/*--------------------------------*- C++ -*----------------------------------*\
  =========                 |
  \\      /  F ield         | OpenFOAM: The Open Source CFD Toolbox
   \\    /   O peration     | Website:  https://openfoam.org
    \\  /    A nd           | Version:  10
     \\/     M anipulation  |
\*---------------------------------------------------------------------------*/
FoamFile
{
    format      ascii;
    class       surfaceScalarField;
    location    "0.23";
    object      phi;
}
// * * * * * * * * * * * * * * * * * * * * * * * * * * * * * * * * * * * * * //

dimensions      [1 0 -1 0 0 0 0];

internalField   nonuniform List<scalar> 
7860
(
3.9895968e-08
5.2881207e-07
1.2192724e-08
5.9641105e-07
7.4279073e-09
5.7347256e-07
5.4994299e-09
5.7063618e-07
4.1150102e-09
5.700921e-07
3.2011592e-09
5.696215e-07
2.559167e-09
5.6934963e-07
2.0793405e-09
5.6918745e-07
1.7093511e-09
5.690776e-07
1.4166755e-09
5.6900028e-07
1.1795181e-09
5.6894475e-07
9.8311597e-10
5.6890399e-07
8.1712561e-10
5.6887357e-07
6.7405682e-10
5.6885064e-07
5.4833637e-10
5.6883329e-07
4.3570367e-10
5.688202e-07
3.328051e-10
5.6881046e-07
2.3691342e-10
5.6880346e-07
1.4572566e-10
5.6879875e-07
5.7210837e-11
5.6879608e-07
-3.0513749e-11
5.6879529e-07
-1.1929028e-10
5.6879634e-07
-2.1102504e-10
5.687993e-07
-3.0779546e-10
5.6880433e-07
-4.1198217e-10
5.6881175e-07
-5.2643206e-10
5.6882202e-07
-6.5467898e-10
5.6883582e-07
-8.0125666e-10
5.6885415e-07
-9.7215921e-10
5.6887848e-07
-1.175548e-09
5.6891097e-07
-1.4229242e-09
5.6895497e-07
-1.7310995e-09
5.6901577e-07
-2.125052e-09
5.6910156e-07
-2.6446633e-09
5.6922723e-07
-3.3723471e-09
5.6943532e-07
-4.4636551e-09
5.6979896e-07
-6.0089966e-09
5.7025302e-07
-9.5080028e-09
5.7220672e-07
-2.9575821e-08
5.8877557e-07
5.3913211e-07
5.9672471e-08
4.691396e-07
3.6665942e-08
6.1941757e-07
2.2628135e-08
5.8751037e-07
1.6253554e-08
5.7701077e-07
1.2290501e-08
5.7405515e-07
9.6062609e-09
5.7230574e-07
7.6774912e-09
5.712784e-07
6.2361563e-09
5.7062878e-07
5.1266597e-09
5.7018709e-07
4.2489288e-09
5.6987801e-07
3.5376287e-09
5.6965605e-07
2.9485905e-09
5.6949303e-07
2.4507687e-09
5.6937139e-07
2.0216879e-09
5.6927972e-07
1.6446334e-09
5.6921035e-07
1.3068275e-09
5.6915801e-07
9.9821276e-10
5.6911908e-07
7.1061076e-10
5.6909106e-07
4.3711549e-10
5.6907225e-07
1.7163514e-10
5.6906156e-07
-9.1476814e-11
5.690584e-07
-3.5774374e-10
5.690626e-07
-6.3287791e-10
5.6907443e-07
-9.2311189e-10
5.6909457e-07
-1.2355849e-09
5.6912422e-07
-1.5788342e-09
5.6916527e-07
-1.9634572e-09
5.6922044e-07
-2.4030501e-09
5.6929374e-07
-2.9155959e-09
5.6939103e-07
-3.5255874e-09
5.6952096e-07
-4.2674436e-09
5.6969682e-07
-5.1915298e-09
5.6993986e-07
-6.3744707e-09
5.702845e-07
-7.9349838e-09
5.7078774e-07
-1.0076291e-08
5.7157663e-07
-1.3204519e-08
5.7292719e-07
-1.8134432e-08
5.7518293e-07
-2.8176685e-08
5.8224897e-07
-4.5802662e-08
6.0640155e-07
4.9332944e-07
6.0008761e-08
4.0913084e-07
5.0487181e-08
6.2893915e-07
3.3370605e-08
6.0462695e-07
2.4817632e-08
5.8556374e-07
1.9323231e-08
5.7954955e-07
1.5331515e-08
5.7629746e-07
1.2360772e-08
5.7424914e-07
1.0101646e-08
5.7288791e-07
8.340762e-09
5.7194798e-07
6.9349983e-09
5.7128377e-07
5.7882759e-09
5.7080277e-07
4.8338294e-09
5.7044747e-07
4.023894e-09
5.7018133e-07
3.3234839e-09
5.6998013e-07
2.7063349e-09
5.6982749e-07
2.1522145e-09
5.6971213e-07
1.6450969e-09
5.696262e-07
1.1718823e-09
5.6956427e-07
7.214632e-10
5.6952266e-07
2.8401087e-10
5.6949901e-07
-1.4960152e-10
5.6949201e-07
-5.8830531e-10
5.6950131e-07
-1.0413293e-09
5.6952745e-07
-1.5187204e-09
5.6957196e-07
-2.0319458e-09
5.6963745e-07
-2.5946526e-09
5.6972797e-07
-3.22368e-09
5.6984947e-07
-3.9404696e-09
5.7001053e-07
-4.7731157e-09
5.7022367e-07
-5.7594291e-09
5.7050728e-07
-6.951595e-09
5.7088899e-07
-8.4238119e-09
5.7141208e-07
-1.0285478e-08
5.7214617e-07
-1.2698466e-08
5.7320073e-07
-1.5895933e-08
5.7477409e-07
-2.0239769e-08
5.7727102e-07
-2.6708101e-08
5.8165127e-07
-3.8947609e-08
5.9448848e-07
-4.8166933e-08
6.1562087e-07
4.4516251e-07
5.487896e-08
3.5425188e-07
5.7452029e-08
6.2636609e-07
4.0467422e-08
6.2161155e-07
3.0778662e-08
5.952525e-07
2.4642986e-08
5.8568523e-07
1.995227e-08
5.8098818e-07
1.6312961e-08
5.7788845e-07
1.3466604e-08
5.7573426e-07
1.1201083e-08
5.742135e-07
9.3646925e-09
5.7312016e-07
7.8495486e-09
5.7231791e-07
6.5771622e-09
5.7171986e-07
5.4896871e-09
5.712688e-07
4.5438103e-09
5.7092601e-07
3.706437e-09
5.7066487e-07
2.9517096e-09
5.7046685e-07
2.2589104e-09
5.70319e-07
1.6109436e-09
5.7021224e-07
9.9320396e-10
5.701404e-07
3.9269639e-10
5.7009952e-07
-2.0268673e-10
5.7008739e-07
-8.0480608e-10
5.7010343e-07
-1.4258962e-09
5.7014854e-07
-2.0792202e-09
5.7022528e-07
-2.7798201e-09
5.7033805e-07
-3.5454449e-09
5.704936e-07
-4.3977575e-09
5.7070178e-07
-5.3639683e-09
5.7097674e-07
-6.4791147e-09
5.7133882e-07
-7.7893225e-09
5.7181748e-07
-9.3563722e-09
5.7245604e-07
-1.1264085e-08
5.7331979e-07
-1.3628725e-08
5.7451081e-07
-1.6611637e-08
5.7618364e-07
-2.0410595e-08
5.7857305e-07
-2.5292273e-08
5.821527e-07
-3.251658e-08
5.8887557e-07
-4.5100217e-08
6.0707212e-07
-4.6548901e-08
6.1706956e-07
3.9861361e-07
4.7965649e-08
3.0628624e-07
6.0076309e-08
6.1425543e-07
4.5399948e-08
6.3628791e-07
3.4875194e-08
6.0577725e-07
2.8399728e-08
5.9216069e-07
2.341953e-08
5.8596837e-07
1.9434259e-08
5.8187372e-07
1.6229178e-08
5.7893935e-07
1.3619772e-08
5.7682291e-07
1.1466631e-08
5.752733e-07
9.6646318e-09
5.7411991e-07
8.1337322e-09
5.7325076e-07
6.8129092e-09
5.7258962e-07
5.6551502e-09
5.7208377e-07
4.6236796e-09
5.7169634e-07
3.6892105e-09
5.7140132e-07
2.8279037e-09
5.711803e-07
2.0198293e-09
5.7102031e-07
1.2477822e-09
5.7091245e-07
4.963362e-10
5.7085096e-07
-2.4894794e-10
5.7083268e-07
-1.0022331e-09
5.7085671e-07
-1.778096e-09
5.7092441e-07
-2.5922499e-09
5.7103944e-07
-3.4623603e-09
5.7120816e-07
-4.4090288e-09
5.7144027e-07
-5.4570334e-09
5.7174978e-07
-6.6369377e-09
5.7215665e-07
-7.9872177e-09
5.726891e-07
-9.5571355e-09
5.733874e-07
-1.1410515e-08
5.7430942e-07
-1.3630168e-08
5.7553944e-07
-1.6324397e-08
5.7720504e-07
-1.9636803e-08
5.7949605e-07
-2.3737652e-08
5.826739e-07
-2.8929855e-08
5.873449e-07
-3.6790163e-08
5.9673588e-07
-4.8462827e-08
6.1874478e-07
-4.3193652e-08
6.1180038e-07
3.5541996e-07
4.0335918e-08
2.6595033e-07
5.8993815e-08
5.9559754e-07
4.8329823e-08
6.469519e-07
3.7587867e-08
6.165192e-07
3.0928725e-08
5.9881983e-07
2.5893891e-08
5.9100321e-07
2.1779964e-08
5.8598764e-07
1.8392094e-08
5.8232722e-07
1.5577623e-08
5.7963738e-07
1.32145e-08
5.7763642e-07
1.1206788e-08
5.7612763e-07
9.4791927e-09
5.7497835e-07
7.9725724e-09
5.7409624e-07
6.6400225e-09
5.7341632e-07
5.4439153e-09
5.7289245e-07
4.3536328e-09
5.7249161e-07
3.3437864e-09
5.7219015e-07
2.3928175e-09
5.7197128e-07
1.4818799e-09
5.7182339e-07
5.9391894e-10
5.7173892e-07
-2.8711893e-10
5.7171371e-07
-1.1770032e-09
5.717466e-07
-2.0919225e-09
5.7183933e-07
-3.0492121e-09
5.7199673e-07
-4.0681605e-09
5.7222711e-07
-5.1709554e-09
5.7254306e-07
-6.3838349e-09
5.7296266e-07
-7.738523e-09
5.7351134e-07
-9.2740266e-09
5.742246e-07
-1.1038943e-08
5.7515232e-07
-1.3094494e-08
5.7636497e-07
-1.5517945e-08
5.7796289e-07
-1.8406697e-08
5.8009379e-07
-2.1884924e-08
5.8297428e-07
-2.6108414e-08
5.8689739e-07
-3.1486668e-08
5.9272316e-07
-3.9653023e-08
6.0490223e-07
-4.9170963e-08
6.2826272e-07
-3.8577706e-08
6.0120713e-07
3.1684225e-07
3.2862548e-08
2.3308779e-07
5.5249654e-08
5.7321044e-07
4.9231864e-08
6.5296969e-07
3.9061192e-08
6.2668987e-07
3.2430404e-08
6.0545062e-07
2.7518583e-08
5.9591503e-07
2.3438613e-08
5.9006761e-07
2.0002924e-08
5.857629e-07
1.7094961e-08
5.8254534e-07
1.4612501e-08
5.8011888e-07
1.2471755e-08
5.7826837e-07
1.0605474e-08
5.7684463e-07
8.9594152e-09
5.757423e-07
7.4893855e-09
5.7488635e-07
6.1590547e-09
5.7422278e-07
4.9381961e-09
5.7371246e-07
3.8012442e-09
5.733271e-07
2.7261179e-09
5.7304641e-07
1.6932442e-09
5.7285626e-07
6.8472729e-10
5.7274744e-07
-3.1638364e-10
5.7271482e-07
-1.3267685e-09
5.7275698e-07
-2.3635024e-09
5.7287606e-07
-3.4447386e-09
5.7307796e-07
-4.5904506e-09
5.7337282e-07
-5.8232787e-09
5.7377589e-07
-7.1695274e-09
5.7430891e-07
-8.6603664e-09
5.7500217e-07
-1.0333281e-08
5.7589752e-07
-1.2233845e-08
5.7705288e-07
-1.4418116e-08
5.7854924e-07
-1.695552e-08
5.805003e-07
-1.9930903e-08
5.8306917e-07
-2.3445041e-08
5.8648842e-07
-2.7639356e-08
5.910917e-07
-3.3032239e-08
5.9811604e-07
-4.100856e-08
6.1287856e-07
-4.768587e-08
6.3494003e-07
-3.3375171e-08
5.8689643e-07
2.8346708e-07
2.6188818e-08
2.0689899e-07
5.0132238e-08
5.4926704e-07
4.849303e-08
6.546089e-07
3.9490583e-08
6.3569232e-07
3.3077072e-08
6.1186413e-07
2.8411749e-08
6.0058035e-07
2.4492747e-08
5.9398662e-07
2.111821e-08
5.8913744e-07
1.8207255e-08
5.854563e-07
1.5680653e-08
5.8264548e-07
1.3469268e-08
5.8047976e-07
1.1515918e-08
5.7879798e-07
9.7730897e-09
5.7748513e-07
8.20099e-09
5.7645845e-07
6.7660872e-09
5.7565768e-07
5.4398353e-09
5.7503872e-07
4.1975864e-09
5.7456935e-07
3.0176677e-09
5.7422633e-07
1.8805832e-09
5.7399335e-07
7.6831124e-10
5.7385971e-07
-3.3633229e-10
5.7381947e-07
-1.4502896e-09
5.7387094e-07
-2.5908539e-09
5.7401662e-07
-3.7762724e-09
5.7426338e-07
-5.0263887e-09
5.7462294e-07
-6.3633575e-09
5.7511286e-07
-7.8124573e-09
5.7575801e-07
-9.4030376e-09
5.7659275e-07
-1.1169626e-08
5.776641e-07
-1.3153198e-08
5.7903646e-07
-1.5402826e-08
5.8079887e-07
-1.7977795e-08
5.8307527e-07
-2.0947561e-08
5.8603894e-07
-2.4387316e-08
5.8992817e-07
-2.843259e-08
5.9513698e-07
-3.3688583e-08
6.0337203e-07
-4.1059873e-08
6.2024985e-07
-4.4794884e-08
6.3867504e-07
-2.8203342e-08
5.7030488e-07
2.5526374e-07
2.0570692e-08
1.8632831e-07
4.4582604e-08
5.2525515e-07
4.6642195e-08
6.5254932e-07
3.9152532e-08
6.4318198e-07
3.3083281e-08
6.1793338e-07
2.8717206e-08
6.0494643e-07
2.5037881e-08
5.9766594e-07
2.1803697e-08
5.9237163e-07
1.8959333e-08
5.8830066e-07
1.6448737e-08
5.8515608e-07
1.4218409e-08
5.8271008e-07
1.2222167e-08
5.8079422e-07
1.0420227e-08
5.7928707e-07
8.7782317e-09
5.7810044e-07
7.2664255e-09
5.7716948e-07
5.8588403e-09
5.764463e-07
4.532557e-09
5.7589563e-07
3.2670396e-09
5.7549184e-07
2.043528e-09
5.7521686e-07
8.4448145e-10
5.7505876e-07
-3.4694177e-10
5.7501089e-07
-1.5473806e-09
5.7507138e-07
-2.7737683e-09
5.7524301e-07
-4.0438336e-09
5.7553344e-07
-5.3766258e-09
5.7595573e-07
-6.7930799e-09
5.7652931e-07
-8.3166342e-09
5.7728157e-07
-9.9739157e-09
5.7825004e-07
-1.1795506e-08
5.7948569e-07
-1.3816735e-08
5.8105768e-07
-1.6078595e-08
5.8306073e-07
-1.8628937e-08
5.8562561e-07
-2.152087e-08
5.8893087e-07
-2.4808413e-08
5.9321571e-07
-2.8637775e-08
5.9896634e-07
-3.3656231e-08
6.0839049e-07
-4.0140282e-08
6.267339e-07
-4.1156064e-08
6.3969082e-07
-2.3415595e-08
5.5256442e-07
2.3184814e-07
1.6015228e-08
1.7031311e-07
3.9143178e-08
5.0212724e-07
4.4117597e-08
6.4757491e-07
3.8288755e-08
6.4901082e-07
3.265316e-08
6.2356897e-07
2.8591005e-08
6.0900858e-07
2.5183184e-08
6.0107376e-07
2.2135751e-08
5.9541906e-07
1.9404815e-08
5.910316e-07
1.6954314e-08
5.8760658e-07
1.4745272e-08
5.8491913e-07
1.2742087e-08
5.8279741e-07
1.0912845e-08
5.8111631e-07
9.2290243e-09
5.7978426e-07
7.6651473e-09
5.7873336e-07
6.1983648e-09
5.7791308e-07
4.808028e-09
5.7728597e-07
3.4752609e-09
5.7682461e-07
2.1825399e-09
5.7650958e-07
9.1328499e-10
5.7632801e-07
-3.4853709e-10
5.7627271e-07
-1.6187994e-09
5.7634164e-07
-2.913607e-09
5.7653782e-07
-4.2496869e-09
5.7686952e-07
-5.6447882e-09
5.7735083e-07
-7.1180961e-09
5.7800262e-07
-8.6906591e-09
5.7885413e-07
-1.0385828e-08
5.799452e-07
-1.2229712e-08
5.8132958e-07
-1.4251595e-08
5.8307957e-07
-1.6484307e-08
5.8529344e-07
-1.89646e-08
5.881059e-07
-2.1730616e-08
5.9169688e-07
-2.4822835e-08
5.9630793e-07
-2.8410113e-08
6.0255362e-07
-3.3119544e-08
6.1309992e-07
-3.8544714e-08
6.3215907e-07
-3.7211902e-08
6.3835801e-07
-1.9181323e-08
5.3453384e-07
2.1266682e-07
1.2423465e-08
1.5788967e-07
3.4113057e-08
4.8043769e-07
4.1248442e-08
6.4043954e-07
3.7077405e-08
6.5318185e-07
3.1940834e-08
6.2870554e-07
2.8167867e-08
6.1278155e-07
2.5032285e-08
6.0420934e-07
2.2191617e-08
5.9825973e-07
1.9600795e-08
5.9362242e-07
1.723923e-08
5.8996814e-07
1.5080288e-08
5.8707807e-07
1.3097653e-08
5.8478004e-07
1.1266684e-08
5.8294728e-07
9.5645242e-09
5.8148642e-07
7.9700521e-09
5.8032783e-07
6.4637527e-09
5.7941938e-07
5.0275376e-09
5.7872218e-07
3.6445182e-09
5.7820763e-07
2.2987493e-09
5.7785535e-07
9.7495948e-10
5.776518e-07
-3.417267e-10
5.775894e-07
-1.6660669e-09
5.7766598e-07
-3.0129873e-09
5.7788474e-07
-4.3978634e-09
5.782544e-07
-5.836798e-09
5.7878976e-07
-7.3468954e-09
5.7951272e-07
-8.9465203e-09
5.8045375e-07
-1.065553e-08
5.8165421e-07
-1.2495484e-08
5.8316953e-07
-1.4489805e-08
5.8507389e-07
-1.666381e-08
5.8746744e-07
-1.904439e-08
5.9048648e-07
-2.1657043e-08
5.9430954e-07
-2.4535966e-08
5.9918685e-07
-2.7875658e-08
6.0589331e-07
-3.2221209e-08
6.1744547e-07
-3.6515304e-08
6.3645316e-07
-3.3263663e-08
6.3510637e-07
-1.5562198e-08
5.1683237e-07
1.9710462e-07
9.6567828e-09
1.4823292e-07
2.9644549e-08
4.6044998e-07
3.828138e-08
6.3180274e-07
3.5656643e-08
6.5580659e-07
3.1057474e-08
6.333047e-07
2.755215e-08
6.1628687e-07
2.4671745e-08
6.0708975e-07
2.2040062e-08
6.0089141e-07
1.9601137e-08
5.9606134e-07
1.7344994e-08
5.9222428e-07
1.5255018e-08
5.8916804e-07
1.3312623e-08
5.8672244e-07
1.149947e-08
5.8476043e-07
9.7978279e-09
5.8318806e-07
8.1906888e-09
5.8193497e-07
6.6618261e-09
5.8094824e-07
5.1957891e-09
5.8018822e-07
3.7778278e-09
5.7962559e-07
2.3937721e-09
5.792394e-07
1.0298808e-09
5.7901569e-07
-3.2732964e-10
5.7894661e-07
-1.691263e-09
5.7902991e-07
-3.0754323e-09
5.7926891e-07
-4.493639e-09
5.7967261e-07
-5.9601434e-09
5.8025627e-07
-7.4898168e-09
5.8104239e-07
-9.0982645e-09
5.820622e-07
-1.0801902e-08
5.8335785e-07
-1.2617983e-08
5.8498561e-07
-1.4564594e-08
5.870205e-07
-1.6660478e-08
5.8956332e-07
-1.8924116e-08
5.9275012e-07
-2.1371022e-08
5.9675644e-07
-2.4035323e-08
6.0185115e-07
-2.7133263e-08
6.0899125e-07
-3.1079377e-08
6.2139158e-07
-3.4256178e-08
6.3962996e-07
-2.9516485e-08
6.3036667e-07
-1.2553577e-08
4.9986946e-07
1.8455104e-07
7.5663579e-09
1.406666e-07
2.5785314e-08
4.422311e-07
3.5387266e-08
6.2220082e-07
3.4136316e-08
6.5705754e-07
3.0086063e-08
6.3735495e-07
2.6823836e-08
6.195491e-07
2.4171239e-08
6.0974235e-07
2.1738857e-08
6.0332379e-07
1.9453114e-08
5.9834708e-07
1.7309656e-08
5.9436774e-07
1.5299598e-08
5.911781e-07
1.3410552e-08
5.8861148e-07
1.1629399e-08
5.8654159e-07
9.9428185e-09
5.8487465e-07
8.3374867e-09
5.835403e-07
6.8002432e-09
5.8248549e-07
5.3181914e-09
5.8167027e-07
3.8787312e-09
5.8106505e-07
2.4695393e-09
5.8064859e-07
1.0785141e-09
5.8040672e-07
-3.0630558e-10
5.8033143e-07
-1.6968345e-09
5.8042044e-07
-3.1050429e-09
5.8067712e-07
-4.5430498e-09
5.8111061e-07
-6.0232032e-09
5.8173642e-07
-7.5581335e-09
5.8257732e-07
-9.1607733e-09
5.8366484e-07
-1.0844322e-08
5.850414e-07
-1.2622157e-08
5.8676345e-07
-1.4507712e-08
5.8890605e-07
-1.6514176e-08
5.9156979e-07
-1.8653151e-08
5.9488909e-07
-2.0933148e-08
5.9903644e-07
-2.3393335e-08
6.0431134e-07
-2.6263281e-08
6.118612e-07
-2.9795107e-08
6.2492341e-07
-3.1928978e-08
6.4176384e-07
-2.6092708e-08
6.245304e-07
-1.010881e-08
4.8388556e-07
1.7444223e-07
6.0116162e-09
1.3465503e-07
2.2513569e-08
4.2572923e-07
3.2667952e-08
6.120465e-07
3.2596859e-08
6.5712864e-07
2.9086679e-08
6.4086512e-07
2.6043082e-08
6.2259269e-07
2.3586094e-08
6.1219933e-07
2.133557e-08
6.0557431e-07
1.9196911e-08
6.0048574e-07
1.7166649e-08
5.96398e-07
1.5241402e-08
5.9310335e-07
1.3413534e-08
5.9043935e-07
1.1674051e-08
5.8828107e-07
1.0013276e-08
5.8653542e-07
8.421054e-09
5.8513253e-07
6.8869631e-09
5.8401958e-07
5.4004703e-09
5.8315676e-07
3.9510326e-09
5.8251449e-07
2.5281483e-09
5.8207148e-07
1.121373e-09
5.8181349e-07
-2.7969207e-10
5.8173249e-07
-1.6854238e-09
5.8182617e-07
-3.1062101e-09
5.820979e-07
-4.5524733e-09
5.8255688e-07
-6.0346779e-09
5.8321862e-07
-7.5633116e-09
5.8410595e-07
-9.1488296e-09
5.8525036e-07
-1.0801549e-08
5.8669412e-07
-1.253149e-08
5.8849339e-07
-1.4348199e-08
5.9072276e-07
-1.6260369e-08
5.9348196e-07
-1.8274306e-08
5.9690303e-07
-2.0394602e-08
6.0115674e-07
-2.2669011e-08
6.0658575e-07
-2.5329295e-08
6.1452148e-07
-2.8448986e-08
6.280431e-07
-2.9647894e-08
6.4296274e-07
-2.3047594e-08
6.179301e-07
-8.1594465e-09
4.6899742e-07
1.6628279e-07
4.8698535e-09
1.2978523e-07
1.9770763e-08
4.1082843e-07
3.0171706e-08
6.0164563e-07
3.1090608e-08
6.5620974e-07
2.809881e-08
6.4385691e-07
2.5252171e-08
6.2543932e-07
2.2958427e-08
6.1449308e-07
2.0868245e-08
6.076645e-07
1.8865795e-08
6.0248819e-07
1.6944523e-08
5.9831928e-07
1.5104497e-08
5.9494338e-07
1.3341519e-08
5.9220233e-07
1.1649707e-08
5.8997288e-07
1.0022263e-08
5.8816287e-07
8.4516578e-09
5.8670313e-07
6.9298288e-09
5.8554141e-07
5.4483529e-09
5.8463824e-07
3.9985822e-09
5.8396426e-07
2.5717398e-09
5.8349832e-07
1.1589846e-09
5.8322625e-07
-2.485492e-10
5.8314003e-07
-1.6597235e-09
5.8323735e-07
-3.0833756e-09
5.8352155e-07
-4.5282884e-09
5.8400179e-07
-6.0031457e-09
5.8469348e-07
-7.5164624e-09
5.8561927e-07
-9.0764804e-09
5.8681038e-07
-1.0691026e-08
5.8830867e-07
-1.2367328e-08
5.9016969e-07
-1.4111823e-08
5.9246726e-07
-1.5929741e-08
5.9529988e-07
-1.7823618e-08
5.9879691e-07
-1.9796931e-08
6.0313005e-07
-2.1907761e-08
6.0869658e-07
-2.4378036e-08
6.1699176e-07
-2.7099761e-08
6.3076482e-07
-2.748503e-08
6.4334801e-07
-2.0390505e-08
6.1083558e-07
-6.6298354e-09
4.5523675e-07
1.5965295e-07
4.0387097e-09
1.2574658e-07
1.7484415e-08
3.9738286e-07
2.7912486e-08
5.9121765e-07
2.9648187e-08
6.5447406e-07
2.7145649e-08
6.4635944e-07
2.4478283e-08
6.2810668e-07
2.2318372e-08
6.1665299e-07
2.0365947e-08
6.0961692e-07
1.848633e-08
6.0436781e-07
1.6666902e-08
6.001387e-07
1.4909405e-08
5.9670087e-07
1.3211976e-08
5.9389976e-07
1.1570957e-08
5.916139e-07
9.9817302e-09
5.8975209e-07
8.4388648e-09
5.88246e-07
6.9362643e-09
5.8704401e-07
5.4673307e-09
5.8610717e-07
4.0251082e-09
5.8540648e-07
2.6024004e-09
5.8492103e-07
1.1918645e-09
5.8463678e-07
-2.1391452e-10
5.8454581e-07
-1.6223596e-09
5.8464579e-07
-3.0408421e-09
5.8494004e-07
-4.4766154e-09
5.8543756e-07
-5.9367352e-09
5.861536e-07
-7.4279575e-09
5.8711049e-07
-8.9566119e-09
5.8833903e-07
-1.0528447e-08
5.898805e-07
-1.2148455e-08
5.917897e-07
-1.38207e-08
5.941395e-07
-1.5547877e-08
5.9702705e-07
-1.7330119e-08
6.0057915e-07
-1.9172097e-08
6.0497203e-07
-2.1142301e-08
6.1066678e-07
-2.3441489e-08
6.1929094e-07
-2.5787182e-08
6.3311052e-07
-2.5480143e-08
6.4304097e-07
-1.8102911e-08
6.0345835e-07
-5.4456035e-09
4.4257944e-07
1.5420735e-07
3.4355086e-09
1.2231115e-07
1.5580712e-08
3.8523781e-07
2.5883672e-08
5.8091481e-07
2.8285009e-08
6.5207276e-07
2.6239056e-08
6.4840538e-07
2.3737299e-08
6.3060843e-07
2.1686232e-08
6.1870405e-07
1.9849888e-08
6.1145326e-07
1.8078925e-08
6.0613877e-07
1.6352684e-08
6.0186494e-07
1.4673098e-08
5.9838046e-07
1.3039754e-08
5.955331e-07
1.1450496e-08
5.9320316e-07
9.9022888e-09
5.913003e-07
8.3913156e-09
5.8975697e-07
6.9130716e-09
5.8852225e-07
5.462494e-09
5.8755775e-07
4.034097e-09
5.8683488e-07
2.6220927e-09
5.8633303e-07
1.2204987e-09
5.8603838e-07
-1.767677e-10
5.8594307e-07
-1.5758032e-09
5.8604483e-07
-2.9826349e-09
5.8634687e-07
-4.4031304e-09
5.8685806e-07
-5.8428985e-09
5.8759337e-07
-7.3071731e-09
5.8857477e-07
-8.8006795e-09
5.8983254e-07
-1.032749e-08
5.9140731e-07
-1.1890874e-08
5.9335308e-07
-1.3493163e-08
5.9574179e-07
-1.5135314e-08
5.986692e-07
-1.6816224e-08
6.0226006e-07
-1.8543504e-08
6.0669931e-07
-2.0394855e-08
6.1251813e-07
-2.254014e-08
6.2143623e-07
-2.4536107e-08
6.3510648e-07
-2.3650067e-08
6.4215493e-07
-1.615083e-08
5.9595911e-07
-4.5383391e-09
4.3096695e-07
1.4966901e-07
2.9956192e-09
1.1931562e-07
1.3991184e-08
3.7424244e-07
2.4067403e-08
5.7083874e-07
2.7006223e-08
6.4913398e-07
2.5383412e-08
6.5002818e-07
2.3037235e-08
6.329546e-07
2.1074858e-08
6.2066643e-07
1.9334937e-08
6.1319318e-07
1.7658754e-08
6.0781496e-07
1.601654e-08
6.0350716e-07
1.4409218e-08
5.9998778e-07
1.2837138e-08
5.9710518e-07
1.1299085e-08
5.9474121e-07
9.7931128e-09
5.9280627e-07
8.3166073e-09
5.9123347e-07
6.8663142e-09
5.8997254e-07
5.4384307e-09
5.8898563e-07
4.0287171e-09
5.8824459e-07
2.6326105e-09
5.8772914e-07
1.2453332e-09
5.8742565e-07
-1.3800512e-10
5.8732641e-07
-1.5223105e-09
5.8742913e-07
-2.9124088e-09
5.8773697e-07
-4.3129443e-09
5.8825859e-07
-5.7282731e-09
5.890087e-07
-7.1623451e-09
5.9000884e-07
-8.6185781e-09
5.9128877e-07
-1.0099734e-08
5.9288847e-07
-1.160781e-08
5.9486116e-07
-1.314394e-08
5.9727792e-07
-1.4707994e-08
6.0023326e-07
-1.6298609e-08
6.0385067e-07
-1.792752e-08
6.0832822e-07
-1.9679515e-08
6.1427013e-07
-2.1685852e-08
6.2344257e-07
-2.3360018e-08
6.3678065e-07
-2.1995974e-08
6.4079089e-07
-1.4493223e-08
5.8845636e-07
-3.8481435e-09
4.2032187e-07
1.4582086e-07
2.6702026e-09
1.1664552e-07
1.2656086e-08
3.6425678e-07
2.2440929e-08
5.6105409e-07
2.5810464e-08
6.4576451e-07
2.4578316e-08
6.5126032e-07
2.2380797e-08
6.3515211e-07
2.0491654e-08
6.2255557e-07
1.8831065e-08
6.1485377e-07
1.7236753e-08
6.0940927e-07
1.5669566e-08
6.0507435e-07
1.4128473e-08
6.0152887e-07
1.2614056e-08
5.986196e-07
1.112563e-08
5.9622964e-07
9.661951e-09
5.9426995e-07
8.2212634e-09
5.9267416e-07
6.8012698e-09
5.9139254e-07
5.3991768e-09
5.9038773e-07
4.0117784e-09
5.8963199e-07
2.6355541e-09
5.8910536e-07
1.2667694e-09
5.8879444e-07
-9.8423254e-11
5.886916e-07
-1.4638856e-09
5.8879459e-07
-2.8333947e-09
5.8910648e-07
-4.21054e-09
5.8963574e-07
-5.5986182e-09
5.9039678e-07
-7.0005227e-09
5.9141074e-07
-8.4186343e-09
5.9270688e-07
-9.8547259e-09
5.9432456e-07
-1.13099e-08
5.9631633e-07
-1.2784524e-08
5.9875254e-07
-1.4277901e-08
6.0172663e-07
-1.5789187e-08
6.0536196e-07
-1.7334904e-08
6.0987393e-07
-1.9004211e-08
6.1593944e-07
-2.088411e-08
6.2532246e-07
-2.2264045e-08
6.3816058e-07
-2.0509158e-08
6.39036e-07
-1.3087577e-08
5.8103478e-07
-3.3246107e-09
4.105589e-07
1.4249625e-07
2.4235182e-09
1.1422213e-07
1.1525503e-08
3.5515507e-07
2.0980694e-08
5.5159913e-07
2.4692742e-08
6.4205255e-07
2.3820591e-08
6.5213247e-07
2.176727e-08
6.3720541e-07
1.9940148e-08
6.2438268e-07
1.8344547e-08
6.1644938e-07
1.6820531e-08
6.1093329e-07
1.5319933e-08
6.0657494e-07
1.383907e-08
6.0300974e-07
1.2378362e-08
6.000803e-07
1.0937354e-08
5.9767065e-07
9.5152132e-09
5.9569209e-07
8.1107695e-09
5.940786e-07
6.7224353e-09
5.9278087e-07
5.3482077e-09
5.9176195e-07
3.9857206e-09
5.9099448e-07
2.6323225e-09
5.9045876e-07
1.2851638e-09
5.901416e-07
-5.8709936e-11
5.9003548e-07
-1.4022638e-09
5.9013815e-07
-2.748379e-09
5.9045259e-07
-4.0997548e-09
5.9098711e-07
-5.4588117e-09
5.9175583e-07
-6.8275948e-09
5.9277952e-07
-8.2076863e-09
5.9408697e-07
-9.6001424e-09
5.9571701e-07
-1.1005474e-08
5.9772166e-07
-1.2423617e-08
6.0017069e-07
-1.3853711e-08
6.0315673e-07
-1.529602e-08
6.0680427e-07
-1.6772065e-08
6.1134998e-07
-1.8372351e-08
6.1753972e-07
-2.0135911e-08
6.2708602e-07
-2.1247641e-08
6.3927231e-07
-1.9175576e-08
6.3696394e-07
-1.1893734e-08
5.7375293e-07
-2.9267347e-09
4.015919e-07
1.3956952e-07
2.2301853e-09
1.1199209e-07
1.0558975e-08
3.4682659e-07
1.9664628e-08
5.4249376e-07
2.3646492e-08
6.380708e-07
2.3105749e-08
6.5267322e-07
2.1193946e-08
6.391172e-07
1.9421233e-08
6.2615539e-07
1.787895e-08
6.1799166e-07
1.6415132e-08
6.123971e-07
1.4973474e-08
6.080166e-07
1.3547155e-08
6.0443606e-07
1.2136139e-08
6.0149132e-07
1.0739997e-08
5.9906679e-07
9.3581003e-09
5.9707399e-07
7.9896505e-09
5.9544705e-07
6.6335698e-09
5.9413695e-07
5.2884596e-09
5.9310706e-07
3.9526225e-09
5.9233031e-07
2.6241173e-09
5.9178726e-07
1.3008307e-09
5.9146488e-07
-1.944142e-11
5.9135575e-07
-1.3389109e-09
5.9145762e-07
-2.6597082e-09
5.9177339e-07
-3.9837972e-09
5.923112e-07
-5.3128897e-09
5.9308492e-07
-6.6483668e-09
5.94115e-07
-7.9912146e-09
5.9542982e-07
-9.3419949e-09
5.9706779e-07
-1.0700864e-08
5.9908053e-07
-1.2067576e-08
6.015374e-07
-1.3441403e-08
6.0453055e-07
-1.4824146e-08
6.0818701e-07
-1.6242159e-08
6.1276799e-07
-1.7784203e-08
6.1908177e-07
-1.9439339e-08
6.2874116e-07
-2.0306769e-08
6.4013974e-07
-1.7978974e-08
6.3463614e-07
-1.0875812e-08
5.6664977e-07
-2.6220609e-09
3.9333815e-07
1.3694746e-07
2.0727185e-09
1.0991955e-07
9.7243905e-09
3.3917529e-07
1.8473189e-08
5.337453e-07
2.2664851e-08
6.3387929e-07
2.2428976e-08
6.529091e-07
2.0657149e-08
6.40889e-07
1.8934134e-08
6.278784e-07
1.7435935e-08
6.1948986e-07
1.6023693e-08
6.1380934e-07
1.46342e-08
6.0940609e-07
1.3257203e-08
6.0581305e-07
1.1891991e-08
6.0285653e-07
1.0538032e-08
6.0042075e-07
9.194753e-09
5.9841726e-07
7.861571e-09
5.9678024e-07
6.5377594e-09
5.9546076e-07
5.2223697e-09
5.9442245e-07
3.9142255e-09
5.9363846e-07
2.6119553e-09
5.9308953e-07
1.3140468e-09
5.9276279e-07
1.8913243e-11
5.9265088e-07
-1.2750345e-09
5.9275156e-07
-2.569312e-09
5.9306766e-07
-3.8652881e-09
5.9360718e-07
-5.1641143e-09
5.9438375e-07
-6.466665e-09
5.9541755e-07
-7.7734987e-09
5.9673665e-07
-9.0848583e-09
5.9837915e-07
-1.0400724e-08
6.003964e-07
-1.1720841e-08
6.0285752e-07
-1.3044834e-08
6.0585455e-07
-1.437632e-08
6.095185e-07
-1.5746035e-08
6.1413771e-07
-1.7238013e-08
6.2057374e-07
-1.8790786e-08
6.3029393e-07
-1.9435517e-08
6.4078447e-07
-1.6902836e-08
6.3210346e-07
-1.0002744e-08
5.5974968e-07
-2.3854754e-09
3.8572088e-07
1.3456198e-07
1.9394462e-09
1.079803e-07
8.996625e-09
3.3211855e-07
1.7389655e-08
5.2535267e-07
2.1741366e-08
6.2952777e-07
2.1785693e-08
6.528648e-07
2.01529e-08
6.4252177e-07
1.8477113e-08
6.2955417e-07
1.7015885e-08
6.2095108e-07
1.5647969e-08
6.1517726e-07
1.4304738e-08
6.1074932e-07
1.2972372e-08
6.0714542e-07
1.1649324e-08
6.0417958e-07
1.0334872e-08
6.017352e-07
9.0284056e-09
5.9972373e-07
7.7294461e-09
5.9807919e-07
6.4374943e-09
5.9675271e-07
5.1519273e-09
5.9570802e-07
3.8719658e-09
5.9491842e-07
2.596686e-09
5.9436481e-07
1.3250562e-09
5.9403442e-07
5.5988706e-11
5.9391995e-07
-1.2116023e-09
5.9401915e-07
-2.4787381e-09
5.943348e-07
-3.7463162e-09
5.9487476e-07
-5.0150557e-09
5.9565249e-07
-6.285457e-09
5.9668795e-07
-7.5577853e-09
5.9800898e-07
-8.8320992e-09
5.9965347e-07
-1.010833e-08
6.0167263e-07
-1.1386335e-08
6.0413552e-07
-1.2666242e-08
6.0713445e-07
-1.395364e-08
6.1080589e-07
-1.5282986e-08
6.1546705e-07
-1.6730835e-08
6.2202159e-07
-1.8185814e-08
6.3174891e-07
-1.8627206e-08
6.4122586e-07
-1.5931564e-08
6.2940782e-07
-9.248399e-09
5.5306651e-07
-2.1980048e-09
3.7867049e-07
1.3236398e-07
1.8228269e-09
1.0615771e-07
8.356188e-09
3.255857e-07
1.6400009e-08
5.1730934e-07
2.0870319e-08
6.2505771e-07
2.1171846e-08
6.5256331e-07
1.9677323e-08
6.4401627e-07
1.8047946e-08
6.3118353e-07
1.6618367e-08
6.2238066e-07
1.528875e-08
6.1650688e-07
1.3986693e-08
6.1205138e-07
1.2694805e-08
6.0843731e-07
1.1410581e-08
6.054638e-07
1.0133059e-08
6.0301272e-07
8.8615338e-09
6.0099526e-07
7.5955515e-09
5.9934518e-07
6.3347492e-09
5.9801352e-07
5.0787305e-09
5.9696404e-07
3.827011e-09
5.9617014e-07
2.579011e-09
5.9561281e-07
1.3340758e-09
5.9527936e-07
9.151233e-11
5.9516251e-07
-1.1493666e-09
5.9526003e-07
-2.3891933e-09
5.9557463e-07
-3.6285007e-09
5.9611406e-07
-4.8676835e-09
5.9689167e-07
-6.1069754e-09
5.9792724e-07
-7.3464544e-09
5.9924846e-07
-8.5860943e-09
6.0089311e-07
-9.8258642e-09
6.029124e-07
-1.1065812e-08
6.0537547e-07
-1.2306666e-08
6.0837531e-07
-1.3556046e-08
6.1205527e-07
-1.4851327e-08
6.1676233e-07
-1.6259134e-08
6.234294e-07
-1.7619745e-08
6.3310952e-07
-1.7875127e-08
6.4148125e-07
-1.5051113e-08
6.265838e-07
-8.5912529e-09
5.4660665e-07
-2.0456495e-09
3.7212488e-07
1.3031833e-07
1.7181397e-09
1.0443984e-07
7.7880002e-09
3.1951643e-07
1.5492622e-08
5.0960529e-07
2.0046824e-08
6.2050381e-07
2.0584012e-08
6.5202617e-07
1.9226859e-08
6.453734e-07
1.7644232e-08
6.3276614e-07
1.6242451e-08
6.2378244e-07
1.4946173e-08
6.1780316e-07
1.3680928e-08
6.1331663e-07
1.2425879e-08
6.0969235e-07
1.117746e-08
6.0671222e-07
9.9344407e-09
6.0425574e-07
8.6959913e-09
6.022337e-07
7.4616297e-09
6.0057954e-07
6.2310624e-09
5.9924408e-07
5.0040422e-09
5.9819106e-07
3.7802968e-09
5.9739388e-07
2.5595046e-09
5.9683361e-07
1.3412996e-09
5.9649756e-07
1.2529398e-10
5.9637852e-07
-1.0888908e-09
5.9647422e-07
-2.3015884e-09
5.9678732e-07
-3.5130573e-09
5.9732553e-07
-4.7234564e-09
5.9810207e-07
-5.932839e-09
5.9913663e-07
-7.1411764e-09
6.004568e-07
-8.3484283e-09
6.0210036e-07
-9.5546578e-09
6.0411863e-07
-1.0760147e-08
6.0658096e-07
-1.1966292e-08
6.0958145e-07
-1.3182715e-08
6.132717e-07
-1.4448818e-08
6.1802844e-07
-1.5819192e-08
6.2479977e-07
-1.7088046e-08
6.3437838e-07
-1.7172981e-08
6.4156618e-07
-1.4249221e-08
6.2366004e-07
-8.013856e-09
5.4037129e-07
-1.9183081e-09
3.6602934e-07
1.2840002e-07
1.6225139e-09
1.0281763e-07
7.280359e-09
3.1385927e-07
1.4657866e-08
5.0222846e-07
1.9266775e-08
6.1589527e-07
2.0019391e-08
6.5127364e-07
1.879837e-08
6.4659439e-07
1.726359e-08
6.343009e-07
1.5886936e-08
6.2515908e-07
1.461994e-08
6.1907015e-07
1.3387786e-08
6.1454878e-07
1.2166398e-08
6.1091374e-07
1.0951081e-08
6.0792754e-07
9.7403141e-09
6.0546651e-07
8.5331295e-09
6.0344089e-07
7.3289855e-09
6.0178368e-07
6.127609e-09
6.0044546e-07
4.9288436e-09
5.9938982e-07
3.7325632e-09
5.9859016e-07
2.5386334e-09
5.9802754e-07
1.3469033e-09
5.9768929e-07
1.572153e-10
5.9756821e-07
-1.0305766e-09
5.9766201e-07
-2.216583e-09
5.9797333e-07
-3.4008624e-09
5.9850981e-07
-4.5834095e-09
5.9928462e-07
-5.7641647e-09
6.0031738e-07
-6.9430519e-09
6.0163568e-07
-8.1200652e-09
6.0327737e-07
-9.2953942e-09
6.0529395e-07
-1.046958e-08
6.0775514e-07
-1.1644721e-08
6.1075659e-07
-1.2832351e-08
6.1445932e-07
-1.4072964e-08
6.1926905e-07
-1.5407381e-08
6.2613419e-07
-1.658655e-08
6.3555754e-07
-1.6515104e-08
6.4149474e-07
-1.3515417e-08
6.2066036e-07
-7.5022181e-09
5.3435809e-07
-1.8088461e-09
3.6033596e-07
1.2659117e-07
1.5342396e-09
1.0128375e-07
6.8241061e-09
3.085702e-07
1.3887734e-08
4.9516563e-07
1.8526745e-08
6.1125672e-07
1.9475742e-08
6.5032476e-07
1.8389154e-08
6.4768096e-07
1.6903763e-08
6.3578626e-07
1.55505e-08
6.2651234e-07
1.4309486e-08
6.2031117e-07
1.3107244e-08
6.1575102e-07
1.191675e-08
6.1210424e-07