/*--------------------------------*- C++ -*----------------------------------*\
  =========                 |
  \\      /  F ield         | OpenFOAM: The Open Source CFD Toolbox
   \\    /   O peration     | Website:  https://openfoam.org
    \\  /    A nd           | Version:  10
     \\/     M anipulation  |
\*---------------------------------------------------------------------------*/
FoamFile
{
    format      ascii;
    class       surfaceScalarField;
    location    "0.23";
    object      phi_0;
}
// * * * * * * * * * * * * * * * * * * * * * * * * * * * * * * * * * * * * * //

dimensions      [1 0 -1 0 0 0 0];

internalField   nonuniform List<scalar> 
7860
(
3.9895965e-08
5.2881207e-07
1.2192722e-08
5.9641105e-07
7.4279054e-09
5.7347256e-07
5.4994279e-09
5.7063618e-07
4.1150083e-09
5.700921e-07
3.2011576e-09
5.696215e-07
2.5591657e-09
5.6934963e-07
2.0793396e-09
5.6918745e-07
1.7093508e-09
5.690776e-07
1.4166757e-09
5.6900027e-07
1.179519e-09
5.6894475e-07
9.8311757e-10
5.6890399e-07
8.1712801e-10
5.6887357e-07
6.7406003e-10
5.6885064e-07
5.4834043e-10
5.6883329e-07
4.357086e-10
5.688202e-07
3.3281093e-10
5.6881046e-07
2.3692011e-10
5.6880345e-07
1.4573329e-10
5.6879875e-07
5.7219373e-11
5.6879608e-07
-3.0504339e-11
5.6879528e-07
-1.1928004e-10
5.6879634e-07
-2.1101404e-10
5.687993e-07
-3.077837e-10
5.6880433e-07
-4.1196975e-10
5.6881175e-07
-5.2641905e-10
5.6882202e-07
-6.5466546e-10
5.6883582e-07
-8.012427e-10
5.6885415e-07
-9.7214497e-10
5.6887848e-07
-1.1755335e-09
5.6891097e-07
-1.4229097e-09
5.6895497e-07
-1.7310851e-09
5.6901577e-07
-2.1250379e-09
5.6910156e-07
-2.6446497e-09
5.6922723e-07
-3.3723341e-09
5.6943532e-07
-4.4636432e-09
5.6979896e-07
-6.0089864e-09
5.7025302e-07
-9.507994e-09
5.7220672e-07
-2.957581e-08
5.8877557e-07
5.3913212e-07
5.9672465e-08
4.691396e-07
3.6665934e-08
6.1941758e-07
2.2628128e-08
5.8751037e-07
1.6253547e-08
5.7701077e-07
1.2290495e-08
5.7405515e-07
9.6062553e-09
5.7230574e-07
7.6774866e-09
5.712784e-07
6.2361531e-09
5.7062878e-07
5.126658e-09
5.7018709e-07
4.2489289e-09
5.69878e-07
3.5376308e-09
5.6965605e-07
2.9485948e-09
5.6949302e-07
2.4507755e-09
5.6937139e-07
2.0216972e-09
5.6927972e-07
1.6446453e-09
5.6921034e-07
1.3068421e-09
5.69158e-07
9.9823016e-10
5.6911907e-07
7.1063093e-10
5.6909105e-07
4.3713845e-10
5.6907224e-07
1.7166086e-10
5.6906155e-07
-9.1448394e-11
5.6905839e-07
-3.5771273e-10
5.690626e-07
-6.3284443e-10
5.6907443e-07
-9.2307614e-10
5.6909456e-07
-1.2355471e-09
5.6912422e-07
-1.5787946e-09
5.6916526e-07
-1.9634159e-09
5.6922044e-07
-2.4030075e-09
5.6929374e-07
-2.9155524e-09
5.6939103e-07
-3.5255433e-09
5.6952096e-07
-4.2673993e-09
5.6969682e-07
-5.1914858e-09
5.6993986e-07
-6.3744275e-09
5.702845e-07
-7.9349419e-09
5.7078775e-07
-1.0076252e-08
5.7157663e-07
-1.3204482e-08
5.7292719e-07
-1.8134399e-08
5.7518294e-07
-2.8176654e-08
5.8224897e-07
-4.5802636e-08
6.0640155e-07
4.9332948e-07
6.0008751e-08
4.0913085e-07
5.0487168e-08
6.2893916e-07
3.3370592e-08
6.0462694e-07
2.481762e-08
5.8556374e-07
1.9323219e-08
5.7954955e-07
1.5331505e-08
5.7629746e-07
1.2360763e-08
5.7424914e-07
1.010164e-08
5.728879e-07
8.3407584e-09
5.7194797e-07
6.9349979e-09
5.7128376e-07
5.7882789e-09
5.7080276e-07
4.8338363e-09
5.7044746e-07
4.0239049e-09
5.7018132e-07
3.3234991e-09
5.6998013e-07
2.7063547e-09
5.6982749e-07
2.1522389e-09
5.6971212e-07
1.645126e-09
5.6962619e-07
1.1719163e-09
5.6956426e-07
7.2150194e-10
5.6952266e-07
2.8405439e-10
5.69499e-07
-1.4955335e-10
5.69492e-07
-5.8825265e-10
5.695013e-07
-1.0412724e-09
5.6952745e-07
-1.5186596e-09
5.6957195e-07
-2.0318813e-09
5.6963744e-07
-2.594585e-09
5.6972797e-07
-3.2236095e-09
5.6984946e-07
-3.9403968e-09
5.7001053e-07
-4.7730413e-09
5.7022367e-07
-5.7593536e-09
5.7050728e-07
-6.9515191e-09
5.7088899e-07
-8.4237364e-09
5.7141208e-07
-1.0285404e-08
5.7214617e-07
-1.2698394e-08
5.7320074e-07
-1.5895865e-08
5.747741e-07
-2.0239705e-08
5.7727103e-07
-2.6708042e-08
5.8165128e-07
-3.8947552e-08
5.9448848e-07
-4.8166892e-08
6.1562089e-07
4.4516259e-07
5.4878947e-08
3.5425191e-07
5.7452008e-08
6.263661e-07
4.0467402e-08
6.2161155e-07
3.0778644e-08
5.9525249e-07
2.4642968e-08
5.8568522e-07
1.9952254e-08
5.8098817e-07
1.6312948e-08
5.7788844e-07
1.3466594e-08
5.7573426e-07
1.1201076e-08
5.7421349e-07
9.3646907e-09
5.7312015e-07
7.8495517e-09
5.723179e-07
6.5771709e-09
5.7171985e-07
5.4897016e-09
5.7126879e-07
4.5438311e-09
5.70926e-07
3.7064643e-09
5.7066485e-07
2.9517437e-09
5.7046684e-07
2.2589514e-09
5.7031898e-07
1.6109916e-09
5.7021222e-07
9.9325898e-10
5.7014039e-07
3.9275835e-10
5.700995e-07
-2.0261802e-10
5.7008738e-07
-8.0473084e-10
5.7010341e-07
-1.4258148e-09
5.7014853e-07
-2.079133e-09
5.7022527e-07
-2.7797276e-09
5.7033804e-07
-3.5453476e-09
5.7049359e-07
-4.3976562e-09
5.7070177e-07
-5.3638635e-09
5.7097674e-07
-6.4790074e-09
5.7133881e-07
-7.7892135e-09
5.7181748e-07
-9.3562625e-09
5.7245604e-07
-1.1263975e-08
5.7331979e-07
-1.3628617e-08
5.7451081e-07
-1.6611532e-08
5.7618365e-07
-2.0410495e-08
5.7857306e-07
-2.5292179e-08
5.8215272e-07
-3.2516491e-08
5.8887559e-07
-4.5100131e-08
6.0707212e-07
-4.6548845e-08
6.1706961e-07
3.9861374e-07
4.7965634e-08
3.0628628e-07
6.0076279e-08
6.1425546e-07
4.5399918e-08
6.3628791e-07
3.4875166e-08
6.0577725e-07
2.8399703e-08
5.9216069e-07
2.3419507e-08
5.8596837e-07
1.9434239e-08
5.8187371e-07
1.6229163e-08
5.7893933e-07
1.3619761e-08
5.7682289e-07
1.1466627e-08
5.7527328e-07
9.6646342e-09
5.741199e-07
8.133742e-09
5.7325074e-07
6.8129269e-09
5.725896e-07
5.6551762e-09
5.7208375e-07
4.6237144e-09
5.7169631e-07
3.6892543e-09
5.714013e-07
2.8279568e-09
5.7118028e-07
2.0198918e-09
5.7102029e-07
1.247854e-09
5.7091243e-07
4.9641729e-10
5.7085094e-07
-2.4885777e-10
5.7083265e-07
-1.0021342e-09
5.7085669e-07
-1.7779888e-09
5.7092439e-07
-2.5921348e-09
5.7103942e-07
-3.462238e-09
5.7120814e-07
-4.4089001e-09
5.7144025e-07
-5.4568991e-09
5.7174977e-07
-6.6367987e-09
5.7215664e-07
-7.9870751e-09
5.7268909e-07
-9.5569905e-09
5.733874e-07
-1.1410369e-08
5.7430942e-07
-1.3630023e-08
5.7553944e-07
-1.6324253e-08
5.7720504e-07
-1.9636663e-08
5.7949606e-07
-2.3737517e-08
5.8267392e-07
-2.8929727e-08
5.8734493e-07
-3.6790038e-08
5.967359e-07
-4.8462709e-08
6.1874479e-07
-4.3193582e-08
6.1180048e-07
3.5542016e-07
4.03359e-08
2.6595039e-07
5.8993776e-08
5.9559759e-07
4.8329782e-08
6.469519e-07
3.758783e-08
6.165192e-07
3.092869e-08
5.9881983e-07
2.5893859e-08
5.910032e-07
2.1779937e-08
5.8598763e-07
1.8392072e-08
5.823272e-07
1.5577607e-08
5.7963736e-07
1.3214492e-08
5.776364e-07
1.1206788e-08
5.761276e-07
9.4792027e-09
5.7497832e-07
7.9725924e-09
5.7409621e-07
6.6400531e-09
5.7341629e-07
5.4439571e-09
5.7289241e-07
4.3536861e-09
5.7249157e-07
3.3438515e-09
5.7219011e-07
2.3928947e-09
5.7197124e-07
1.4819691e-09
5.7182335e-07
5.9401994e-10
5.7173889e-07
-2.870063e-10
5.7171368e-07
-1.1768794e-09
5.7174656e-07
-2.0917879e-09
5.7183929e-07
-3.0490675e-09
5.7199669e-07
-4.0680066e-09
5.7222708e-07
-5.170793e-09
5.7254303e-07
-6.3836653e-09
5.7296264e-07
-7.7383472e-09
5.7351132e-07
-9.273846e-09
5.7422459e-07
-1.1038759e-08
5.7515231e-07
-1.3094309e-08
5.7636496e-07
-1.5517759e-08
5.7796289e-07
-1.8406513e-08
5.8009379e-07
-2.1884745e-08
5.8297429e-07
-2.6108241e-08
5.8689741e-07
-3.1486502e-08
5.9272319e-07
-3.9652857e-08
6.0490226e-07
-4.917081e-08
6.2826275e-07
-3.8577624e-08
6.0120729e-07
3.1684254e-07
3.2862527e-08
2.3308788e-07
5.5249605e-08
5.7321052e-07
4.9231808e-08
6.529697e-07
3.9061142e-08
6.2668986e-07
3.2430358e-08
6.0545061e-07
2.751854e-08
5.9591502e-07
2.3438576e-08
5.9006759e-07
2.0002893e-08
5.8576288e-07
1.7094938e-08
5.8254531e-07
1.4612488e-08
5.8011885e-07
1.2471753e-08
5.7826833e-07
1.0605483e-08
5.7684459e-07
8.9594366e-09
5.7574226e-07
7.4894201e-09
5.748863e-07
6.1591031e-09
5.7422273e-07
4.9382588e-09
5.7371241e-07
3.8013216e-09
5.7332705e-07
2.7262101e-09
5.7304636e-07
1.6933513e-09
5.7285621e-07
6.8484905e-10
5.7274739e-07
-3.1624743e-10
5.7271477e-07
-1.3266183e-09
5.7275693e-07
-2.3633388e-09
5.7287601e-07
-3.4445625e-09
5.7307792e-07
-4.5902627e-09
5.7337278e-07
-5.8230803e-09
5.7377585e-07
-7.1693197e-09
5.7430888e-07
-8.6601509e-09
5.7500215e-07
-1.0333059e-08
5.758975e-07
-1.2233619e-08
5.7705287e-07
-1.4417887e-08
5.7854923e-07
-1.6955291e-08
5.805003e-07
-1.9930675e-08
5.8306918e-07
-2.3444817e-08
5.8648843e-07
-2.7639139e-08
5.9109173e-07
-3.3032028e-08
5.9811607e-07
-4.1008349e-08
6.1287858e-07
-4.7685683e-08
6.3494008e-07
-3.3375077e-08
5.8689669e-07
2.8346746e-07
2.6188795e-08
2.068991e-07
5.0132179e-08
5.4926716e-07
4.8492958e-08
6.5460892e-07
3.9490516e-08
6.356923e-07
3.3077011e-08
6.1186411e-07
2.8411693e-08
6.0058033e-07
2.4492698e-08
5.9398659e-07
2.1118169e-08
5.8913741e-07
1.8207224e-08
5.8545626e-07
1.5680633e-08
5.8264544e-07
1.346926e-08
5.8047971e-07
1.1515925e-08
5.7879793e-07
9.7731116e-09
5.7748507e-07
8.2010278e-09
5.7645839e-07
6.7661417e-09
5.7565761e-07
5.439907e-09
5.7503865e-07
4.1976759e-09
5.7456928e-07
3.0177752e-09
5.7422626e-07
1.8807088e-09
5.7399328e-07
7.6845466e-10
5.7385964e-07
-3.3617127e-10
5.738194e-07
-1.4501115e-09
5.7387087e-07
-2.5906595e-09
5.7401656e-07
-3.7760626e-09
5.7426332e-07
-5.0261645e-09
5.7462288e-07
-6.3631203e-09
5.7511281e-07
-7.8122087e-09
5.7575797e-07
-9.4027791e-09
5.7659272e-07
-1.116936e-08
5.7766408e-07
-1.3152926e-08
5.7903644e-07
-1.540255e-08
5.8079886e-07
-1.7977518e-08
5.8307526e-07
-2.0947285e-08
5.8603895e-07
-2.4387045e-08
5.8992819e-07
-2.8432326e-08
5.9513701e-07
-3.3688322e-08
6.0337207e-07
-4.1059612e-08
6.2024987e-07
-4.4794661e-08
6.3867513e-07
-2.8203238e-08
5.7030526e-07
2.5526422e-07
2.0570666e-08
1.8632845e-07
4.4582533e-08
5.2525531e-07
4.6642105e-08
6.5254935e-07
3.9152446e-08
6.4318195e-07
3.3083203e-08
6.1793336e-07
2.8717134e-08
6.049464e-07
2.5037817e-08
5.9766591e-07
2.1803643e-08
5.9237158e-07
1.8959291e-08
5.8830061e-07
1.6448709e-08
5.8515602e-07
1.4218396e-08
5.8271002e-07
1.222217e-08
5.8079415e-07
1.0420248e-08
5.7928699e-07
8.7782716e-09
5.7810036e-07
7.2664854e-09
5.771694e-07
5.8589208e-09
5.7644621e-07
4.5326587e-09
5.7589554e-07
3.2671627e-09
5.7549175e-07
2.0436726e-09
5.7521677e-07
8.4464754e-10
5.7505867e-07
-3.4675464e-10
5.750108e-07
-1.547173e-09
5.7507129e-07
-2.773541e-09
5.7524293e-07
-4.0435878e-09
5.7553337e-07
-5.3763626e-09
5.7595566e-07
-6.7928009e-09
5.7652925e-07
-8.3163413e-09
5.7728151e-07
-9.9736106e-09
5.7824999e-07
-1.1795191e-08
5.7948566e-07
-1.3816413e-08
5.8105766e-07
-1.6078268e-08
5.8306071e-07
-1.8628608e-08
5.856256e-07
-2.1520541e-08
5.8893088e-07
-2.4808089e-08
5.9321574e-07
-2.8637457e-08
5.9896638e-07
-3.3655914e-08
6.0839053e-07
-4.0139967e-08
6.2673392e-07
-4.1155805e-08
6.3969097e-07
-2.3415482e-08
5.5256494e-07
2.3184874e-07
1.6015199e-08
1.7031328e-07
3.9143094e-08
5.0212745e-07
4.4117485e-08
6.4757498e-07
3.8288647e-08
6.4901079e-07
3.2653061e-08
6.2356894e-07
2.8590915e-08
6.0900855e-07
2.5183103e-08
6.0107372e-07
2.2135682e-08
5.95419e-07
1.9404759e-08
5.9103153e-07
1.6954275e-08
5.876065e-07
1.474525e-08
5.8491904e-07
1.2742084e-08
5.8279732e-07
1.0912864e-08
5.8111622e-07
9.2290652e-09
5.7978416e-07
7.6652117e-09
5.7873325e-07
6.1984536e-09
5.7791297e-07
4.8081417e-09
5.7728585e-07
3.4753999e-09
5.7682449e-07
2.1827044e-09
5.7650946e-07
9.1347478e-10
5.763279e-07
-3.4832238e-10
5.762726e-07
-1.6185604e-09
5.7634153e-07
-2.9133446e-09
5.7653771e-07
-4.2494024e-09
5.7686942e-07
-5.644483e-09
5.7735074e-07
-7.1177719e-09
5.7800253e-07
-8.690318e-09
5.7885405e-07
-1.0385472e-08
5.7994514e-07
-1.2229344e-08
5.8132953e-07
-1.4251218e-08
5.8307953e-07
-1.6483923e-08
5.8529342e-07
-1.8964213e-08
5.8810589e-07
-2.1730229e-08
5.916969e-07
-2.4822452e-08
5.9630796e-07
-2.8409735e-08
6.0255367e-07
-3.3119165e-08
6.1309996e-07
-3.854434e-08
6.3215909e-07
-3.7211606e-08
6.3835823e-07
-1.9181199e-08
5.3453453e-07
2.1266754e-07
1.2423433e-08
1.5788987e-07
3.4112959e-08
4.8043797e-07
4.1248306e-08
6.4043965e-07
3.707727e-08
6.5318182e-07
3.194071e-08
6.2870549e-07
2.8167753e-08
6.127815e-07
2.5032182e-08
6.0420929e-07
2.2191529e-08
5.9825966e-07
1.9600722e-08
5.9362234e-07
1.7239176e-08
5.8996805e-07
1.5080255e-08
5.8707797e-07
1.3097643e-08
5.8477993e-07
1.1266698e-08
5.8294716e-07
9.5645648e-09
5.8148629e-07
7.9701201e-09
5.803277e-07
6.4638491e-09
5.7941924e-07
5.0276631e-09
5.7872204e-07
3.6446734e-09
5.7820748e-07
2.2989342e-09
5.778552e-07
9.7517411e-10
5.7765166e-07
-3.4148282e-10
5.7758926e-07
-1.6657945e-09
5.7766584e-07
-3.0126874e-09
5.7788461e-07
-4.3975373e-09
5.7825427e-07
-5.8364475e-09
5.7878965e-07
-7.3465223e-09
5.7951261e-07
-8.946127e-09
5.8045366e-07
-1.0655119e-08
5.8165413e-07
-1.2495059e-08
5.8316947e-07
-1.4489368e-08
5.8507384e-07
-1.6663364e-08
5.8746741e-07
-1.9043939e-08
5.9048647e-07
-2.1656592e-08
5.9430955e-07
-2.4535518e-08
5.9918689e-07
-2.7875213e-08
6.0589336e-07
-3.2220759e-08
6.174455e-07
-3.6514867e-08
6.364532e-07
-3.3263328e-08
6.3510669e-07
-1.5562065e-08
5.1683327e-07
1.9710547e-07
9.6567463e-09
1.4823316e-07
2.9644435e-08
4.6045035e-07
3.8281216e-08
6.318029e-07
3.5656476e-08
6.5580656e-07
3.1057321e-08
6.3330464e-07
2.755201e-08
6.1628681e-07
2.4671618e-08
6.0708968e-07
2.2039951e-08
6.0089132e-07
1.9601044e-08
5.9606124e-07
1.7344924e-08
5.9222417e-07
1.5254972e-08
5.8916792e-07
1.3312602e-08
5.867223e-07
1.1499478e-08
5.8476028e-07
9.7978665e-09
5.8318791e-07
8.1907592e-09
5.819348e-07
6.6619294e-09
5.8094807e-07
5.1959261e-09
5.8018804e-07
3.7779993e-09
5.7962541e-07
2.3939782e-09
5.7923922e-07
1.0301214e-09
5.7901551e-07
-3.2705491e-10
5.7894643e-07
-1.6909551e-09
5.7902974e-07
-3.0750923e-09
5.7926874e-07
-4.4932683e-09
5.7967245e-07
-5.9597439e-09
5.8025612e-07
-7.4893907e-09
5.8104226e-07
-9.0978144e-09
5.8206208e-07
-1.0801431e-08
5.8335775e-07
-1.2617494e-08
5.8498553e-07
-1.456409e-08
5.8702044e-07
-1.6659963e-08
5.8956328e-07
-1.8923595e-08
5.927501e-07
-2.1370498e-08
5.9675645e-07
-2.4034801e-08
6.0185119e-07
-2.7132743e-08
6.089913e-07
-3.107885e-08
6.2139161e-07
-3.4255672e-08
6.3963002e-07
-2.9516109e-08
6.3036713e-07
-1.2553433e-08
4.9987059e-07
1.8455204e-07
7.5663167e-09
1.4066688e-07
2.5785182e-08
4.4223156e-07
3.5387071e-08
6.2220105e-07
3.4136112e-08
6.5705752e-07
3.0085875e-08
6.3735487e-07
2.6823664e-08
6.1954902e-07
2.4171083e-08
6.0974226e-07
2.1738719e-08
6.0332369e-07
1.9452998e-08
5.9834696e-07
1.7309565e-08
5.943676e-07
1.5299534e-08
5.9117795e-07
1.3410519e-08
5.8861131e-07
1.1629399e-08
5.865414e-07
9.9428532e-09
5.8487445e-07
8.3375581e-09
5.835401e-07
6.8003525e-09
5.8248528e-07
5.3183397e-09
5.8167005e-07
3.8789192e-09
5.8106483e-07
2.4697672e-09
5.8064837e-07
1.078782e-09
5.804065e-07
-3.0599832e-10
5.8033121e-07
-1.6964887e-09
5.8042023e-07
-3.1046597e-09
5.8067691e-07
-4.542631e-09
5.8111042e-07
-6.0227507e-09
5.8173624e-07
-7.5576499e-09
5.8257715e-07
-9.1602614e-09
5.8366469e-07
-1.0843785e-08
5.8504127e-07
-1.2621598e-08
5.8676334e-07
-1.4507135e-08
5.8890597e-07
-1.6513586e-08
5.9156973e-07
-1.8652552e-08
5.9488907e-07
-2.0932546e-08
5.9903645e-07
-2.3392733e-08
6.0431138e-07
-2.6262677e-08
6.1186125e-07
-2.9794493e-08
6.2492343e-07
-3.1928398e-08
6.4176393e-07
-2.6092288e-08
6.2453102e-07
-1.0108654e-08
4.8388696e-07
1.7444339e-07
6.0115697e-09
1.3465536e-07
2.2513418e-08
4.257298e-07
3.2667722e-08
6.120468e-07
3.2596613e-08
6.5712863e-07
2.9086451e-08
6.4086503e-07
2.6042873e-08
6.225926e-07
2.3585903e-08
6.1219923e-07
2.1335401e-08
6.0557419e-07
1.9196766e-08
6.004856e-07
1.7166533e-08
5.9639784e-07
1.5241318e-08
5.9310316e-07
1.3413485e-08
5.9043915e-07
1.167404e-08
5.8828085e-07
1.0013305e-08
5.8653519e-07
8.4211248e-09
5.8513228e-07
6.8870774e-09
5.8401932e-07
5.4006293e-09
5.831565e-07
3.9512372e-09
5.8251422e-07
2.5283988e-09
5.8207121e-07
1.1216694e-09
5.8181323e-07
-2.793503e-10
5.8173223e-07
-1.6850375e-09
5.8182592e-07
-3.1057808e-09
5.8209766e-07
-4.5520027e-09
5.8255664e-07
-6.0341682e-09
5.8321841e-07
-7.5627655e-09
5.8410575e-07
-9.1482503e-09
5.8525018e-07
-1.080094e-08
5.8669396e-07
-1.2530855e-08
5.8849326e-07
-1.4347543e-08
5.9072266e-07
-1.6259697e-08
5.9348189e-07
-1.8273622e-08
5.9690299e-07
-2.0393912e-08
6.0115673e-07
-2.2668319e-08
6.0658579e-07
-2.5328596e-08
6.1452152e-07
-2.8448278e-08
6.2804311e-07
-2.9647233e-08
6.4296288e-07
-2.3047126e-08
6.1793091e-07
-8.1592768e-09
4.6899911e-07
1.6628411e-07
4.869801e-09
1.2978561e-07
1.977059e-08
4.1082912e-07
3.0171436e-08
6.0164603e-07
3.1090314e-08
6.5620977e-07
2.8098534e-08
6.438568e-07
2.5251918e-08
6.2543921e-07
2.2958196e-08
6.1449295e-07
2.0868038e-08
6.0766435e-07
1.8865617e-08
6.0248802e-07
1.6944378e-08
5.9831908e-07
1.5104388e-08
5.9494315e-07
1.3341451e-08
5.9220208e-07
1.1649682e-08
5.8997262e-07
1.0022283e-08
5.8816258e-07
8.4517262e-09
5.8670284e-07
6.9299469e-09
5.855411e-07
5.4485221e-09
5.8463793e-07
3.9988035e-09
5.8396394e-07
2.5720136e-09
5.83498e-07
1.1593108e-09
5.8322593e-07
-2.481709e-10
5.8313971e-07
-1.6592941e-09
5.8323704e-07
-3.0828967e-09
5.8352126e-07
-4.5277619e-09
5.8400151e-07
-6.0025741e-09
5.8469322e-07
-7.5158485e-09
5.8561903e-07
-9.0758278e-09
5.8681016e-07
-1.0690339e-08
5.8830847e-07
-1.236661e-08
5.9016953e-07
-1.411108e-08
5.9246713e-07
-1.5928977e-08
5.9529979e-07
-1.782284e-08
5.9879685e-07
-1.9796144e-08
6.0313004e-07
-2.1906969e-08
6.0869661e-07
-2.4377233e-08
6.1699179e-07
-2.7098948e-08
6.3076482e-07
-2.7484281e-08
6.4334821e-07
-2.0389986e-08
6.1083662e-07
-6.6296508e-09
4.5523877e-07
1.5965446e-07
4.0386505e-09
1.2574703e-07
1.7484218e-08
3.973837e-07
2.7912171e-08
5.9121818e-07
2.9647837e-08
6.5447412e-07
2.7145318e-08
6.4635931e-07
2.447798e-08
6.2810654e-07
2.2318095e-08
6.1665284e-07
2.0365698e-08
6.0961675e-07
1.8486114e-08
6.043676e-07
1.6666724e-08
6.0013847e-07
1.4909268e-08
5.9670061e-07
1.3211885e-08
5.9389947e-07
1.1570914e-08
5.9161359e-07
9.9817395e-09
5.8975176e-07
8.4389287e-09
5.8824565e-07
6.9363848e-09
5.8704365e-07
5.4675094e-09
5.861068e-07
4.025346e-09
5.854061e-07
2.6026981e-09
5.8492065e-07
1.1922221e-09
5.8463641e-07
-2.1349757e-10
5.8454543e-07
-1.6218842e-09
5.8464543e-07
-3.04031e-09
5.8493968e-07
-4.4760287e-09
5.8543723e-07
-5.9360965e-09
5.8615329e-07
-7.4272701e-09
5.871102e-07
-8.9558795e-09
5.8833877e-07
-1.0527674e-08
5.8988027e-07
-1.2147647e-08
5.917895e-07
-1.3819861e-08
5.9413934e-07
-1.5547013e-08
5.9702694e-07
-1.7329236e-08
6.0057908e-07
-1.9171202e-08
6.04972e-07
-2.1141397e-08
6.106668e-07
-2.3440569e-08
6.1929096e-07
-2.5786253e-08
6.3311051e-07
-2.5479299e-08
6.4304126e-07
-1.8102336e-08
6.0345966e-07
-5.4454023e-09
4.4258184e-07
1.5420906e-07
3.435442e-09
1.2231167e-07
1.5580487e-08
3.8523882e-07
2.5883307e-08
5.8091549e-07
2.8284597e-08
6.5207286e-07
2.6238662e-08
6.4840523e-07
2.3736937e-08
6.3060826e-07
2.1685901e-08
6.1870387e-07
1.984959e-08
6.1145306e-07
1.8078664e-08
6.0613853e-07
1.6352466e-08
6.0186466e-07
1.4672927e-08
5.9838015e-07
1.3039635e-08
5.9553276e-07
1.1450433e-08
5.9320279e-07
9.902284e-09
5.9129991e-07
8.3913727e-09
5.8975656e-07
6.9131927e-09
5.8852183e-07
5.4626812e-09
5.8755731e-07
4.0343513e-09
5.8683443e-07
2.622415e-09
5.8633258e-07
1.2208891e-09
5.8603793e-07
-1.7630978e-10
5.8594263e-07
-1.5752788e-09
5.860444e-07
-2.9820457e-09
5.8634645e-07
-4.4024787e-09
5.8685766e-07
-5.8421873e-09
5.8759299e-07
-7.3064057e-09
5.8857442e-07
-8.7998602e-09
5.8983222e-07
-1.0326623e-08
5.9140703e-07
-1.1889966e-08
5.9335284e-07
-1.3492219e-08
5.957416e-07
-1.5134339e-08
5.9866906e-07
-1.6815227e-08
6.0225996e-07
-1.8542491e-08
6.0669927e-07
-2.0393827e-08
6.1251814e-07
-2.2539091e-08
6.2143622e-07
-2.453505e-08
6.3510647e-07
-2.3649119e-08
6.4215533e-07
-1.6150194e-08
5.9596073e-07
-4.5381195e-09
4.3096976e-07
1.4967094e-07
2.9955444e-09
1.1931622e-07
1.399093e-08
3.7424363e-07
2.4066983e-08
5.7083959e-07
2.700574e-08
6.4913416e-07
2.5382945e-08
6.5002801e-07
2.3036806e-08
6.3295438e-07
2.1074465e-08
6.2066621e-07
1.9334582e-08
6.1319294e-07
1.7658441e-08
6.0781467e-07
1.6016276e-08
6.0350683e-07
1.4409008e-08
5.9998741e-07
1.2836986e-08
5.9710478e-07
1.1298996e-08
5.9474078e-07
9.7930905e-09
5.9280581e-07
8.3166548e-09
5.9123299e-07
6.8664342e-09
5.8997205e-07
5.4386253e-09
5.8898512e-07
4.0289877e-09
5.8824407e-07
2.632958e-09
5.8772861e-07
1.2457578e-09
5.8742513e-07
-1.3750388e-10
5.8732589e-07
-1.5217338e-09
5.8742863e-07
-2.9117584e-09
5.8773648e-07
-4.3122227e-09
5.8825812e-07
-5.7274834e-09
5.8900825e-07
-7.161491e-09
5.9000843e-07
-8.6176642e-09
5.9128839e-07
-1.0098765e-08
5.9288813e-07
-1.1606792e-08
5.9486087e-07
-1.314288e-08
5.9727768e-07
-1.4706898e-08
6.0023308e-07
-1.6297485e-08
6.0385055e-07
-1.7926375e-08
6.0832816e-07
-1.9678349e-08
6.1427011e-07
-2.1684659e-08
6.2344253e-07
-2.3358822e-08
6.3678063e-07
-2.1994912e-08
6.4079142e-07
-1.4492521e-08
5.8845834e-07
-3.8479037e-09
4.2032515e-07
1.4582303e-07
2.6701189e-09
1.1664621e-07
1.2655799e-08
3.6425819e-07
2.2440448e-08
5.6105514e-07
2.5809901e-08
6.4576477e-07
2.4577767e-08
6.5126014e-07
2.2380291e-08
6.3515185e-07
2.0491191e-08
6.2255531e-07
1.8830645e-08
6.1485349e-07
1.7236381e-08
6.0940893e-07
1.5669249e-08
6.0507396e-07
1.4128217e-08
6.0152845e-07
1.2613866e-08
5.9861913e-07
1.1125511e-08
5.9622913e-07
9.6619071e-09
5.9426942e-07
8.2212983e-09
5.926736e-07
6.8013864e-09
5.9139196e-07
5.3993775e-09
5.9038713e-07
4.0120649e-09
5.8963138e-07
2.6359274e-09
5.8910475e-07
1.2672298e-09
5.8879383e-07
-9.787622e-11
5.88691e-07
-1.4632531e-09
5.88794e-07
-2.8326786e-09
5.891059e-07
-4.209743e-09
5.8963519e-07
-5.5977435e-09
5.9039626e-07
-6.9995745e-09
5.9141026e-07
-8.4176175e-09
5.9270644e-07
-9.8536461e-09
5.9432416e-07
-1.1308763e-08
5.9631599e-07
-1.2783337e-08
5.9875226e-07
-1.4276672e-08
6.0172641e-07
-1.5787924e-08
6.053618e-07
-1.7333614e-08
6.0987385e-07
-1.9002893e-08
6.1593939e-07
-2.0882758e-08
6.253224e-07
-2.2262695e-08
6.3816057e-07
-2.0507973e-08
6.390367e-07
-1.3086804e-08
5.8103717e-07
-3.3243489e-09
4.1056269e-07
1.4249868e-07
2.4234246e-09
1.1422292e-07
1.1525179e-08
3.5515671e-07
2.0980145e-08
5.5160042e-07
2.469209e-08
6.4205292e-07
2.3819948e-08
6.5213228e-07
2.1766676e-08
6.372051e-07
1.9939604e-08
6.2438238e-07
1.8344053e-08
6.1644904e-07
1.6820091e-08
6.1093289e-07
1.5319556e-08
6.065745e-07
1.3838761e-08
6.0300924e-07
1.2378128e-08
6.0007976e-07
1.0937199e-08
5.9767006e-07
9.5151434e-09
5.9569147e-07
8.1107883e-09
5.9407796e-07
6.722546e-09
5.927802e-07
5.348413e-09
5.9176126e-07
3.9860225e-09
5.9099377e-07
2.6327221e-09
5.9045805e-07
1.2856615e-09
5.9014089e-07
-5.8114541e-11
5.9003477e-07
-1.4015718e-09
5.9013746e-07
-2.7475925e-09
5.9045192e-07
-4.0988765e-09
5.9098647e-07
-5.4578453e-09
5.9175522e-07
-6.8265446e-09
5.9277896e-07
-8.2065576e-09
5.9408645e-07
-9.5989413e-09
5.9571654e-07
-1.1004207e-08
5.9772125e-07
-1.2422292e-08
6.0017034e-07
-1.3852335e-08
6.0315645e-07
-1.5294603e-08
6.0680407e-07
-1.6770614e-08
6.1134986e-07
-1.8370864e-08
6.1753964e-07
-2.0134383e-08
6.2708591e-07
-2.1246123e-08
6.3927231e-07
-1.9174256e-08
6.3696483e-07
-1.1892882e-08
5.7375579e-07
-2.9264491e-09
4.0159626e-07
1.3957223e-07
2.2300813e-09
1.1199299e-07
1.0558611e-08
3.4682852e-07
1.9664004e-08
5.4249532e-07
2.364574e-08
6.380713e-07
2.3105001e-08
6.5267302e-07
2.1193253e-08
6.3911683e-07
1.9420597e-08
6.2615502e-07
1.7878371e-08
6.1799126e-07
1.6414616e-08
6.1239665e-07
1.4973028e-08
6.0801608e-07
1.3546786e-08
6.0443548e-07
1.2135854e-08
6.014907e-07
1.0739802e-08
5.9906612e-07
9.3579997e-09
5.9707327e-07
7.9896493e-09
5.9544631e-07
6.6336718e-09
5.9413618e-07
5.2886678e-09
5.9310627e-07
3.9529391e-09
5.923295e-07
2.6245436e-09
5.9178645e-07
1.3013673e-09
5.9146406e-07
-1.8794916e-11
5.9135494e-07
-1.3381557e-09
5.9145682e-07
-2.6588463e-09
5.9177261e-07
-3.9828316e-09
5.9231046e-07
-5.3118243e-09
5.9308422e-07
-6.6472062e-09
5.9411434e-07
-7.9899645e-09
5.9542921e-07
-9.3406618e-09
5.9706724e-07
-1.0699455e-08
5.9908005e-07
-1.2066099e-08
6.0153699e-07
-1.3439867e-08
6.0453022e-07
-1.4822561e-08
6.0818676e-07
-1.6240532e-08
6.1276783e-07
-1.778253e-08
6.1908164e-07
-1.9437618e-08
6.28741e-07
-2.0305067e-08
6.4013975e-07
-1.7977509e-08
6.3463727e-07
-1.0874875e-08
5.6665316e-07
-2.6217495e-09
3.9334313e-07
1.3695049e-07
2.0726031e-09
1.0992057e-07
9.723983e-09
3.3917753e-07
1.8472482e-08
5.3374717e-07
2.2663988e-08
6.3387996e-07
2.2428109e-08
6.5290891e-07
2.0656342e-08
6.4088858e-07
1.8933394e-08
6.2787796e-07
1.743526e-08
6.194894e-07
1.6023089e-08
6.1380882e-07
1.4633676e-08
6.094055e-07
1.3256765e-08
6.0581239e-07
1.1891648e-08
6.0285581e-07
1.0537789e-08
6.0041997e-07
9.1946162e-09
5.9841645e-07
7.8615455e-09
5.9677938e-07
6.5378494e-09
5.9545987e-07
5.2225786e-09
5.9442154e-07
3.9145558e-09
5.9363752e-07
2.6124086e-09
5.9308859e-07
1.3146237e-09
5.9276185e-07
1.9613523e-11
5.9264995e-07
-1.274212e-09
5.9275064e-07
-2.5683695e-09
5.9306677e-07
-3.8642287e-09
5.9360632e-07
-5.162942e-09
5.9438293e-07
-6.4653849e-09
5.9541678e-07
-7.7721168e-09
5.9673594e-07
-9.0833816e-09
5.9837851e-07
-1.039916e-08
6.0039582e-07
-1.1719199e-08
6.0285702e-07
-1.3043123e-08
6.0585415e-07
-1.4374551e-08
6.0951819e-07
-1.5744213e-08
6.1413749e-07
-1.7236134e-08
6.2057356e-07
-1.8788852e-08
6.3029372e-07
-1.9433613e-08
6.4078451e-07
-1.6901212e-08
6.3210487e-07
-1.0001716e-08
5.5975367e-07
-2.3851364e-09
3.8572655e-07
1.3456535e-07
1.9393187e-09
1.0798146e-07
8.9961699e-09
3.3212113e-07
1.7388857e-08
5.2535491e-07
2.1740379e-08
6.2952864e-07
2.1784693e-08
6.5286462e-07
2.0151966e-08
6.4252128e-07
1.8476255e-08
6.2955366e-07
1.7015103e-08
6.2095055e-07
1.5647266e-08
6.1517666e-07
1.4304125e-08
6.1074864e-07
1.2971856e-08
6.0714466e-07
1.1648913e-08
6.0417876e-07
1.0334574e-08
6.0173431e-07
9.0282264e-09
5.9972279e-07
7.7293913e-09
5.9807821e-07
6.4375687e-09
5.9675169e-07
5.1521346e-09
5.9570697e-07
3.8723088e-09
5.9491735e-07
2.5971665e-09
5.9436374e-07
1.325675e-09
5.9403334e-07
5.6745625e-11
5.9391888e-07
-1.2107084e-09
5.940181e-07
-2.4777094e-09
5.9433377e-07
-3.745156e-09
5.9487376e-07
-5.0137683e-09
5.9565154e-07
-6.2840477e-09
5.9668706e-07
-7.5562605e-09
5.9800815e-07
-8.8304664e-09
5.9965271e-07
-1.0106597e-08
6.0167195e-07
-1.1384513e-08
6.0413494e-07
-1.2664339e-08
6.0713397e-07
-1.3951667e-08
6.1080552e-07
-1.5280949e-08
6.1546677e-07
-1.672873e-08
6.2202134e-07
-1.8183646e-08
6.3174863e-07
-1.8625082e-08
6.4122595e-07
-1.5929768e-08
6.2940956e-07
-9.2472718e-09
5.5307117e-07
-2.1976364e-09
3.7867692e-07
1.3236771e-07
1.8226863e-09
1.0615902e-07
8.3556809e-09
3.2558867e-07
1.6399111e-08
5.1731199e-07
2.0869197e-08
6.250588e-07
2.1170697e-08
6.5256316e-07
1.9676245e-08
6.4401571e-07
1.8046955e-08
6.3118293e-07
1.6617463e-08
6.2238004e-07
1.5287936e-08
6.1650618e-07
1.3985979e-08
6.120506e-07
1.2694201e-08
6.0843644e-07
1.1410094e-08
6.0546286e-07
1.0132698e-08
6.0301171e-07
8.8613056e-09
6.0099418e-07
7.5954621e-09
5.9934406e-07
6.3348039e-09
5.9801235e-07
5.0789333e-09
5.9696284e-07
3.8273651e-09
5.9616892e-07
2.5795186e-09
5.9561158e-07
1.3347378e-09
5.9527812e-07
9.2328766e-11
5.9516128e-07
-1.1483969e-09
5.9525882e-07
-2.3880726e-09
5.9557345e-07
-3.6272324e-09
5.9611292e-07
-4.8662722e-09
5.9689058e-07
-6.1054267e-09
5.9792621e-07
-7.3447751e-09
5.992475e-07
-8.5842923e-09
6.0089223e-07
-9.8239484e-09
6.0291161e-07
-1.1063792e-08
6.0537478e-07
-1.2304553e-08
6.0837473e-07
-1.3553851e-08
6.1205482e-07
-1.4849055e-08
6.1676198e-07
-1.6256779e-08
6.2342907e-07
-1.761732e-08
6.3310918e-07
-1.7872763e-08
6.4148139e-07
-1.504913e-08
6.2658592e-07
-8.5900188e-09
5.4661206e-07
-2.0452497e-09
3.7213215e-07
1.3032246e-07
1.7179851e-09
1.0444131e-07
7.7874366e-09
3.1951984e-07
1.5491615e-08
5.0960841e-07
2.004555e-08
6.2050518e-07
2.0582696e-08
6.5202607e-07
1.922562e-08
6.4537276e-07
1.7643092e-08
6.3276544e-07
1.6241409e-08
6.2378171e-07
1.4945234e-08
6.1780236e-07
1.3680102e-08
6.1331573e-07
1.2425175e-08
6.0969137e-07
1.1176887e-08
6.0671115e-07
9.934008e-09
6.0425459e-07
8.6957066e-09
6.0223249e-07
7.4614996e-09
6.0057826e-07
6.2310925e-09
5.9924276e-07
5.0042372e-09
5.981897e-07
3.7806604e-09
5.9739249e-07
2.560039e-09
5.968322e-07
1.3420061e-09
5.9649615e-07
1.2617271e-10
5.9637712e-07
-1.087841e-09
5.9647284e-07
-2.3003699e-09
5.9678597e-07
-3.5116734e-09
5.9732422e-07
-4.721912e-09
5.9810082e-07
-5.93114e-09
5.9913544e-07
-7.13933e-09
6.0045569e-07
-8.3464428e-09
6.0209934e-07
-9.5525428e-09
6.0411771e-07
-1.0757914e-08
6.0658015e-07
-1.1963951e-08
6.0958077e-07
-1.3180278e-08
6.1327114e-07
-1.4446288e-08
6.1802799e-07
-1.5816565e-08
6.2479934e-07
-1.7085341e-08
6.3437795e-07
-1.7170356e-08
6.4156641e-07
-1.4247036e-08
6.236626e-07
-8.0125067e-09
5.4037753e-07
-1.9178749e-09
3.6603752e-07
1.2840459e-07
1.6223443e-09
1.0281929e-07
7.279734e-09
3.1386316e-07
1.4656739e-08
5.0223211e-07
1.9265336e-08
6.1589698e-07
2.001789e-08
6.512736e-07
1.879695e-08
6.4659367e-07
1.7262283e-08
6.3430009e-07
1.5885742e-08
6.2515825e-07
1.4618861e-08
6.1906924e-07
1.3386833e-08
6.1454776e-07
1.2165581e-08
6.1091262e-07
1.0950411e-08
6.0792632e-07
9.7397999e-09
6.054652e-07
8.5327799e-09
6.0343951e-07
7.3288078e-09
6.0178223e-07
6.1276093e-09
6.0044396e-07
4.9290272e-09
5.9938828e-07
3.732934e-09
5.9858859e-07
2.5391941e-09
5.9802594e-07
1.3476554e-09
5.9768769e-07
1.581591e-10
5.9756661e-07
-1.0294421e-09
5.9766044e-07
-2.2152603e-09
5.9797179e-07
-3.3993548e-09
5.9850832e-07
-4.5817223e-09
5.9928319e-07
-5.7623038e-09
6.0031602e-07
-6.9410251e-09
6.0163441e-07
-8.1178813e-09
6.032762e-07
-9.2930631e-09
6.0529289e-07
-1.0467113e-08
6.077542e-07
-1.1642131e-08
6.1075579e-07
-1.2829648e-08
6.1445866e-07
-1.4070153e-08
6.1926849e-07
-1.5404454e-08
6.2613364e-07
-1.6583539e-08
6.3555704e-07
-1.6512196e-08
6.4149506e-07
-1.3513013e-08
6.2066342e-07
-7.5007448e-09
5.3436526e-07
-1.8083775e-09
3.6034515e-07
1.2659621e-07
1.534054e-09
1.0128561e-07
6.8234146e-09
3.0857463e-07
1.3886476e-08
4.9516988e-07
1.8525124e-08
6.112588e-07
1.9474037e-08
6.5032481e-07
1.8387533e-08
6.4768015e-07
1.690227e-08
6.3578532e-07
1.5549134e-08
6.2651138e-07
1.4308251e-08
6.2031012e-07
1.3106149e-08
6.1574986e-07
1.1915807e-08