/*--------------------------------*- C++ -*----------------------------------*\
  =========                 |
  \\      /  F ield         | OpenFOAM: The Open Source CFD Toolbox
   \\    /   O peration     | Website:  https://openfoam.org
    \\  /    A nd           | Version:  10
     \\/     M anipulation  |
\*---------------------------------------------------------------------------*/
FoamFile
{
    format      ascii;
    class       volScalarField;
    location    "0.23";
    object      T;
}
// * * * * * * * * * * * * * * * * * * * * * * * * * * * * * * * * * * * * * //

dimensions      [0 0 0 1 0 0 0];

internalField   nonuniform List<scalar> 
4000
(
303.10135
299.3429
299.99042
300.00082
299.99993
300
300
300
300
300
300
300
300
300
300
300
300
300
300
300
300
300
300
300
300
300
300
300
300
300
300
300
300
300
300
300
300
300
300
300
309.66347
298.49296
299.77921
300.00184
300.0008
299.99999
300
300
300
300
300
300
300
300
300
300
300
300
300
300
300
300
300
300
300
300
300
300
300
300
300
300
300
300
300
300
300
300
300
300
316.00431
298.68457
299.39219
299.9757
300.00406
300.00025
299.99999
300
300
300
300
300
300
300
300
300
300
300
300
300
300
300
300
300
300
300
300
300
300
300
300
300
300
300
300
300
300
300
300
300
321.74241
299.84595
298.98478
299.89491
300.00716
300.00139
300
299.99999
300
300
300
300
300
300
300
300
300
300
300
300
300
300
300
300
300
300
300
300
300
300
300
300
300
300
300
300
300
300
300
300
326.67129
301.70059
298.70997
299.75312
300.00323
300.00379
300.00017
299.99998
300
300
300
300
300
300
300
300
300
300
300
300
300
300
300
300
300
300
300
300
300
300
300
300
300
300
300
300
300
300
300
300
330.68532
303.94822
298.66325
299.56828
299.98427
300.00697
300.00072
299.99997
299.99999
300
300
300
300
300
300
300
300
300
300
300
300
300
300
300
300
300
300
300
300
300
300
300
300
300
300
300
300
300
300
300
333.77474
306.3311
298.87089
299.37365
299.94516
300.00939
300.00181
300
299.99998
300
300
300
300
300
300
300
300
300
300
300
300
300
300
300
300
300
300
300
300
300
300
300
300
300
300
300
300
300
300
300
336.0223
308.66471
299.30782
299.20376
299.88577
300.00891
300.00346
300.00014
299.99997
300
300
300
300
300
300
300
300
300
300
300
300
300
300
300
300
300
300
300
300
300
300
300
300
300
300
300
300
300
300
300
337.57455
310.83822
299.9243
299.08455
299.81047
300.00353
300.00542
300.00046
299.99996
299.99999
300
300
300
300
300
300
300
300
300
300
300
300
300
300
300
300
300
300
300
300
300
300
300
300
300
300
300
300
300
300
338.60286
312.79888
300.66579
299.03049
299.72629
299.99192
300.00725
300.001
299.99996
299.99998
300
300
300
300
300
300
300
300
300
300
300
300
300
300
300
300
300
300
300
300
300
300
300
300
300
300
300
300
300
300
339.26992
314.53379
301.48366
299.04599
299.64096
299.97368
300.00841
300.00176
300.00001
299.99997
300
300
300
300
300
300
300
300
300
300
300
300
300
300
300
300
300
300
300
300
300
300
300
300
300
300
300
300
300
300
339.70906
316.05424
302.33954
299.1284
299.56153
299.94925
300.00835
300.00269
300.00012
299.99996
300
300
300
300
300
300
300
300
300
300
300
300
300
300
300
300
300
300
300
300
300
300
300
300
300
300
300
300
300
300
340.01689
317.38366
303.2058
299.27101
299.49357
299.91972
300.00662
300.00368
300.0003
299.99996
299.99999
300
300
300
300
300
300
300
300
300
300
300
300
300
300
300
300
300
300
300
300
300
300
300
300
300
300
300
300
300
340.25608
318.54955
304.06405
299.46545
299.44104
299.88654
300.00294
300.00462
300.00057
299.99996
299.99999
300
300
300
300
300
300
300
300
300
300
300
300
300
300
300
300
300
300
300
300
300
300
300
300
300
300
300
300
300
340.46309
319.57876
304.90292
299.70315
299.40641
299.85132
299.99715
300.00535
300.0009
299.99998
299.99998
300
300
300
300
300
300
300
300
300
300
300
300
300
300
300
300
300
300
300
300
300
300
300
300
300
300
300
300
300
340.65665
320.49513
305.71607
299.97619
299.39092
299.81565
299.98928
300.00575
300.0013
300.00003
299.99998
300
300
300
300
300
300
300
300
300
300
300
300
300
300
300
300
300
300
300
300
300
300
300
300
300
300
300
300
300
340.84483
321.31871
306.50039
300.27764
299.39493
299.78099
299.97946
300.00568
300.00174
300.0001
299.99997
300
300
300
300
300
300
300
300
300
300
300
300
300
300
300
300
300
300
300
300
300
300
300
300
300
300
300
300
300
341.02993
322.06571
307.25487
300.60161
299.41818
299.74863
299.96792
300.00505
300.00218
300.00019
299.99997
299.99999
300
300
300
300
300
300
300
300
300
300
300
300
300
300
300
300
300
300
300
300
300
300
300
300
300
300
300
300
341.21161
322.74896
307.97967
300.94318
299.45999
299.71967
299.95495
300.00378
300.00259
300.00031
299.99998
299.99999
300
300
300
300
300
300
300
300
300
300
300
300
300
300
300
300
300
300
300
300
300
300
300
300
300
300
300
300
341.38863
323.37847
308.67557
301.29828
299.51941
299.695
299.94091
300.00182
300.00293
300.00046
299.99999
299.99999
300
300
300
300
300
300
300
300
300
300
300
300
300
300
300
300
300
300
300
300
300
300
300
300
300
300
300
300
341.55972
323.96201
309.34368
301.66352
299.59537
299.67535
299.92614
299.99915
300.00316
300.00063
300.00001
299.99999
300
300
300
300
300
300
300
300
300
300
300
300
300
300
300
300
300
300
300
300
300
300
300
300
300
300
300
300
341.72387
324.50563
309.9852
302.03612
299.6867
299.66128
299.91101
299.99578
300.00326
300.0008
300.00004
299.99998
300
300
300
300
300
300
300
300
300
300
300
300
300
300
300
300
300
300
300
300
300
300
300
300
300
300
300
300
341.88053
325.0141
310.60135
302.41374
299.79224
299.6532
299.8959
299.99175
300.00318
300.00099
300.00007
299.99998
300
300
300
300
300
300
300
300
300
300
300
300
300
300
300
300
300
300
300
300
300
300
300
300
300
300
300
300
342.02946
325.49124
311.19331
302.79445
299.91081
299.6514
299.88116
299.98709
300.0029
300.00117
300.00012
299.99999
300
300
300
300
300
300
300
300
300
300
300
300
300
300
300
300
300
300
300
300
300
300
300
300
300
300
300
300
342.17072
325.94021
311.76221
303.17659
300.04128
299.65607
299.86711
299.98188
300.0024
300.00133
300.00017
299.99999
299.99999
300
300
300
300
300
300
300
300
300
300
300
300
300
300
300
300
300
300
300
300
300
300
300
300
300
300
300
342.30456
326.36361
312.30911
303.55882
300.18254
299.66731
299.85406
299.97619
300.00166
300.00147
300.00024
300
299.99999
300
300
300
300
300
300
300
300
300
300
300
300
300
300
300
300
300
300
300
300
300
300
300
300
300
300
300
342.43135
326.76372
312.83504
303.93996
300.33356
299.68514
299.84231
299.97011
300.00067
300.00156
300.0003
300.00001
299.99999
300
300
300
300
300
300
300
300
300
300
300
300
300
300
300
300
300
300
300
300
300
300
300
300
300
300
300
342.55153
327.14249
313.34097
304.31905
300.49335
299.70952
299.83211
299.96375
299.99943
300.00162
300.00038
300.00002
299.99999
300
300
300
300
300
300
300
300
300
300
300
300
300
300
300
300
300
300
300
300
300
300
300
300
300
300
300
342.66554
327.50166
313.82781
304.69528
300.66098
299.74034
299.82369
299.95719
299.99794
300.00161
300.00045
300.00003
299.99999
300
300
300
300
300
300
300
300
300
300
300
300
300
300
300
300
300
300
300
300
300
300
300
300
300
300
300
342.77384
327.8428
314.29647
305.06796
300.83559
299.77748
299.81724
299.95056
299.9962
300.00154
300.00052
300.00005
299.99999
300
300
300
300
300
300
300
300
300
300
300
300
300
300
300
300
300
300
300
300
300
300
300
300
300
300
300
342.87685
328.16727
314.74778
305.43655
301.01635
299.82076
299.81295
299.94395
299.99423
300.00139
300.00059
300.00007
300
300
300
300
300
300
300
300
300
300
300
300
300
300
300
300
300
300
300
300
300
300
300
300
300
300
300
300
342.97497
328.47635
315.18256
305.80056
301.20252
299.86999
299.81096
299.93748
299.99204
300.00115
300.00065
300.0001
300
300
300
300
300
300
300
300
300
300
300
300
300
300
300
300
300
300
300
300
300
300
300
300
300
300
300
300
343.06854
328.77115
315.6016
306.15962
301.39339
299.92494
299.81139
299.93124
299.98966
300.00083
300.00069
300.00012
300
300
300
300
300
300
300
300
300
300
300
300
300
300
300
300
300
300
300
300
300
300
300
300
300
300
300
300
343.15791
329.05269
316.00561
306.51341
301.58832
299.98538
299.81435
299.92535
299.98711
300.00042
300.00073
300.00015
300.00001
300
300
300
300
300
300
300
300
300
300
300
300
300
300
300
300
300
300
300
300
300
300
300
300
300
300
300
343.24334
329.32189
316.39531
306.8617
301.7867
300.05106
299.81991
299.9199
299.98442
299.99992
300.00074
300.00018
300.00001
300
300
300
300
300
300
300
300
300
300
300
300
300
300
300
300
300
300
300
300
300
300
300
300
300
300
300
343.32511
329.57955
316.77135
307.20428
301.98798
300.12173
299.82813
299.91499
299.98161
299.99932
300.00073
300.00021
300.00002
300
300
300
300
300
300
300
300
300
300
300
300
300
300
300
300
300
300
300
300
300
300
300
300
300
300
300
343.40344
329.82642
317.13435
307.54099
302.19165
300.19712
299.83906
299.9107
299.97872
299.99862
300.0007
300.00024
300.00003
300
300
300
300
300
300
300
300
300
300
300
300
300
300
300
300
300
300
300
300
300
300
300
300
300
300
300
343.47852
330.06315
317.4849
307.87172
302.39724
300.27699
299.85272
299.90713
299.97579
299.99783
300.00064
300.00026
300.00004
300
300
300
300
300
300
300
300
300
300
300
300
300
300
300
300
300
300
300
300
300
300
300
300
300
300
300
343.55054
330.29034
317.82354
308.19638
302.6043
300.36106
299.8691
299.90434
299.97285
299.99696
300.00055
300.00028
300.00005
300
300
300
300
300
300
300
300
300
300
300
300
300
300
300
300
300
300
300
300
300
300
300
300
300
300
300
343.61965
330.50851
318.15077
308.51492
302.81243
300.44908
299.88822
299.90241
299.96994
299.996
300.00042
300.0003
300.00006
300
300
300
300
300
300
300
300
300
300
300
300
300
300
300
300
300
300
300
300
300
300
300
300
300
300
300
343.68598
330.71812
318.46707
308.82727
303.02125
300.54079
299.91004
299.90141
299.9671
299.99496
300.00027
300.00031
300.00007
300
300
300
300
300
300
300
300
300
300
300
300
300
300
300
300
300
300
300
300
300
300
300
300
300
300
300
343.74965
330.9196
318.77286
309.13342
303.23042
300.63593
299.93455
299.90139
299.96435
299.99386
300.00007
300.00031
300.00008
300.00001
300
300
300
300
300
300
300
300
300
300
300
300
300
300
300
300
300
300
300
300
300
300
300
300
300
300
343.81077
331.11331
319.06855
309.43335
303.43962
300.73425
299.9617
299.90242
299.96175
299.99269
299.99985
300.00031
300.00009
300.00001
300
300
300
300
300
300
300
300
300
300
300
300
300
300
300
300
300
300
300
300
300
300
300
300
300
300
343.86942
331.29958
319.35449
309.72705
303.64854
300.8355
299.99143
299.90453
299.95933
299.99148
299.99958
300.0003
300.0001
300.00001
300
300
300
300
300
300
300
300
300
300
300
300
300
300
300
300
300
300
300
300
300
300
300
300
300
300
343.92567
331.47869
319.63102
310.01451
303.85691
300.93945
300.0237
299.90776
299.95712
299.99022
299.99928
300.00028
300.00011
300.00002
300
300
300
300
300
300
300
300
300
300
300
300
300
300
300
300
300
300
300
300
300
300
300
300
300
300
343.97957
331.65088
319.89843
310.29575
304.06445
301.04585
300.05843
299.91216
299.95516
299.98894
299.99894
300.00025
300.00011
300.00002
300
300
300
300
300
300
300
300
300
300
300
300
300
300
300
300
300
300
300
300
300
300
300
300
300
300
344.03118
331.81636
320.15699
310.57075
304.27092
301.15448
300.09556
299.91774
299.95348
299.98764
299.99857
300.0002
300.00012
300.00002
300
300
300
300
300
300
300
300
300
300
300
300
300
300
300
300
300
300
300
300
300
300
300
300
300
300
344.08052
331.9753
320.40693
310.83953
304.47608
301.26509
300.135
299.92454
299.95213
299.98635
299.99816
300.00014
300.00012
300.00003
300
300
300
300
300
300
300
300
300
300
300
300
300
300
300
300
300
300
300
300
300
300
300
300
300
300
344.12761
332.12784
320.64844
311.10208
304.67972
301.37748
300.17667
299.93256
299.95112
299.98506
299.99772
300.00007
300.00013
300.00003
300
300
300
300
300
300
300
300
300
300
300
300
300
300
300
300
300
300
300
300
300
300
300
300
300
300
344.17247
332.27408
320.88171
311.35839
304.88161
301.49141
300.22048
299.94182
299.95049
299.98381
299.99726
299.99999
300.00013
300.00003
300
300
300
300
300
300
300
300
300
300
300
300
300
300
300
300
300
300
300
300
300
300
300
300
300
300
344.21509
332.41411
321.10686
311.60845
305.08156
301.60666
300.26634
299.95233
299.95027
299.98259
299.99677
299.99989
300.00012
300.00004
300.00001
300
300
300
300
300
300
300
300
300
300
300
300
300
300
300
300
300
300
300
300
300
300
300
300
300
344.25545
332.54796
321.32401
311.85223
305.27936
301.72304
300.31414
299.96408
299.95048
299.98144
299.99625
299.99978
300.00011
300.00004
300.00001
300
300
300
300
300
300
300
300
300
300
300
300
300
300
300
300
300
300
300
300
300
300
300
300
300
344.29354
332.67564
321.53324
312.08971
305.47482
301.84033
300.36379
299.97706
299.95115
299.98035
299.99572
299.99965
300.0001
300.00004
300.00001
300
300
300
300
300
300
300
300
300
300
300
300
300
300
300
300
300
300
300
300
300
300
300
300
300
344.32932
332.79713
321.73459
312.32085
305.66776
301.95831
300.41517
299.99128
299.9523
299.97935
299.99517
299.99951
300.00009
300.00005
300.00001
300
300
300
300
300
300
300
300
300
300
300
300
300
300
300
300
300
300
300
300
300
300
300
300
300
344.36276
332.91239
321.92807
312.54559
305.85798
302.07678
300.46818
300.0067
299.95395
299.97846
299.99462
299.99936
300.00007
300.00005
300.00001
300
300
300
300
300
300
300
300
300
300
300
300
300
300
300
300
300
300
300
300
300
300
300
300
300
344.39381
333.02134
322.11367
312.76385
306.0453
302.19555
300.5227
300.02332
299.95611
299.97767
299.99406
299.99919
300.00004
300.00005
300.00001
300
300
300
300
300
300
300
300
300
300
300
300
300
300
300
300
300
300
300
300
300
300
300
300
300
344.42244
333.12387
322.29133
312.97556
306.22954
302.3144
300.57861
300.04111
299.9588
299.97702
299.9935
299.99901
300.00001
300.00005
300.00001
300
300
300
300
300
300
300
300
300
300
300
300
300
300
300
300
300
300
300
300
300
300
300
300
300
344.4486
333.21988
322.46096
313.18061
306.4105
302.43314
300.6358
300.06003
299.96204
299.97651
299.99295
299.99882
299.99998
300.00005
300.00001
300
300
300
300
300
300
300
300
300
300
300
300
300
300
300
300
300
300
300
300
300
300
300
300
300
344.47227
333.30922
322.62246
313.37889
306.588
302.55157
300.69414
300.08006
299.96582
299.97616
299.99241
299.99862
299.99993
300.00004
300.00002
300
300
300
300
300
300
300
300
300
300
300
300
300
300
300
300
300
300
300
300
300
300
300
300
300
344.49342
333.39176
322.77568
313.57024
306.76184
302.66947
300.7535
300.10116
299.97016
299.97598
299.99189
299.99841
299.99989
300.00004
300.00002
300
300
300
300
300
300
300
300
300
300
300
300
300
300
300
300
300
300
300
300
300
300
300
300
300
344.51204
333.46738
322.92044
313.75452
306.93183
302.78666
300.81375
300.12327
299.97507
299.97598
299.99139
299.99819
299.99984
300.00003
300.00002
300
300
300
300
300
300
300
300
300
300
300
300
300
300
300
300
300
300
300
300
300
300
300
300
300
344.52815
333.53595
323.05656
313.93154
307.09774
302.90293
300.87477
300.14636
299.98053
299.97617
299.99092
299.99797
299.99978
300.00003
300.00002
300
300
300
300
300
300
300
300
300
300
300
300
300
300
300
300
300
300
300
300
300
300
300
300
300
344.5418
333.5974
323.18384
314.10111
307.25938
303.01807
300.93641
300.17038
299.98656
299.97656
299.99049
299.99774
299.99972
300.00002
300.00002
300
300
300
300
300
300
300
300
300
300
300
300
300
300
300
300
300
300
300
300
300
300
300
300
300
344.55305
333.65168
323.30208
314.263
307.41653
303.13187
300.99853
300.19526
299.99314
299.97717
299.9901
299.99751
299.99965
300.00001
300.00002
300
300
300
300
300
300
300
300
300
300
300
300
300
300
300
300
300
300
300
300
300
300
300
300
300
344.56199
333.69883
323.41109
314.41699
307.56894
303.24414
301.06101
300.22096
300.00027
299.97799
299.98976
299.99727
299.99958
299.99999
300.00002
300.00001
300
300
300
300
300
300
300
300
300
300
300
300
300
300
300
300
300
300
300
300
300
300
300
300
344.56877
333.73895
323.51071
314.56285
307.7164
303.35466
301.12369
300.2474
300.00795
299.97903
299.98948
299.99704
299.9995
299.99998
300.00002
300.00001
300
300
300
300
300
300
300
300
300
300
300
300
300
300
300
300
300
300
300
300
300
300
300
300
344.57354
333.77221
323.60082
314.70034
307.85866
303.46323
301.18643
300.27453
300.01615
299.98031
299.98925
299.99682
299.99942
299.99996
300.00001
300.00001
300
300
300
300
300
300
300
300
300
300
300
300
300
300
300
300
300
300
300
300
300
300
300
300
344.57648
333.79892
323.68137
314.82924
307.99549
303.56962
301.24909
300.30227
300.02486
299.98183
299.98909
299.9966
299.99934
299.99994
300.00001
300.00001
300
300
300
300
300
300
300
300
300
300
300
300
300
300
300
300
300
300
300
300
300
300
300
300
344.57782
333.81943
323.75239
314.94934
308.12665
303.67365
301.31152
300.33056
300.03406
299.98358
299.989
299.99639
299.99925
299.99992
300.00001
300.00001
300
300
300
300
300
300
300
300
300
300
300
300
300
300
300
300
300
300
300
300
300
300
300
300
344.57779
333.83421
323.814
315.06049
308.25192
303.77509
301.37358
300.35932
300.04374
299.98557
299.98898
299.99619
299.99917
299.9999
300.00001
300.00001
300
300
300
300
300
300
300
300
300
300
300
300
300
300
300
300
300
300
300
300
300
300
300
300
344.57662
333.84384
323.86645
315.16257
308.37108
303.87376
301.43511
300.38848
300.05387
299.98781
299.98905
299.996
299.99908
299.99988
300
300.00001
300
300
300
300
300
300
300
300
300
300
300
300
300
300
300
300
300
300
300
300
300
300
300
300
344.57456
333.84893
323.91011
315.25555
308.48395
303.96946
301.49599
300.41795
300.06442
299.99028
299.98919
299.99583
299.99898
299.99985
300
300.00001
300
300
300
300
300
300
300
300
300
300
300
300
300
300
300
300
300
300
300
300
300
300
300
300
344.57186
333.85017
323.94547
315.33947
308.59038
304.06201
301.55608
300.44768
300.07537
299.99299
299.98943
299.99568
299.99889
299.99982
299.99999
300.00001
300
300
300
300
300
300
300
300
300
300
300
300
300
300
300
300
300
300
300
300
300
300
300
300
344.56873
333.84828
323.97317
315.41447
308.69026
304.15126
301.61523
300.47757
300.0867
299.99594
299.98975
299.99554
299.9988
299.99979
299.99999
300
300
300
300
300
300
300
300
300
300
300
300
300
300
300
300
300
300
300
300
300
300
300
300
300
344.56539
333.84401
323.99395
315.48082
308.78354
304.23706
301.67333
300.50756
300.09837
299.99911
299.99016
299.99543
299.99871
299.99976
299.99998
300
300
300
300
300
300
300
300
300
300
300
300
300
300
300
300
300
300
300
300
300
300
300
300
300
344.56201
333.83805
324.00868
315.53889
308.87021
304.31931
301.73027
300.53757
300.11035
300.00251
299.99067
299.99535
299.99863
299.99973
299.99997
300
300
300
300
300
300
300
300
300
300
300
300
300
300
300
300
300
300
300
300
300
300
300
300
300
344.55874
333.8311
324.01829
315.58916
308.95035
304.39791
301.78594
300.56753
300.12261
300.00613
299.99128
299.99529
299.99854
299.9997
299.99996
300
300
300
300
300
300
300
300
300
300
300
300
300
300
300
300
300
300
300
300
300
300
300
300
300
344.55567
333.82376
324.02378
315.63226
309.02413
304.47281
301.84024
300.59738
300.13512
300.00995
299.99198
299.99526
299.99846
299.99966
299.99996
300
300
300
300
300
300
300
300
300
300
300
300
300
300
300
300
300
300
300
300
300
300
300
300
300
344.55288
333.81653
324.02615
315.66889
309.09176
304.54401
301.89311
300.62705
300.14785
300.01398
299.99277
299.99526
299.99839
299.99963
299.99995
300
300
300
300
300
300
300
300
300
300
300
300
300
300
300
300
300
300
300
300
300
300
300
300
300
344.55038
333.80982
324.02638
315.69986
309.15357
304.61154
301.94448
300.65648
300.16077
300.0182
299.99367
299.99529
299.99832
299.9996
299.99994
300
300
300
300
300
300
300
300
300
300
300
300
300
300
300
300
300
300
300
300
300
300
300
300
300
344.54816
333.8039
324.02538
315.72602
309.20992
304.67545
301.99431
300.68563
300.17385
300.0226
299.99466
299.99535
299.99826
299.99956
299.99993
299.99999
300
300
300
300
300
300
300
300
300
300
300
300
300
300
300
300
300
300
300
300
300
300
300
300
344.54615
333.79893
324.02398
315.74826
309.26128
304.73586
302.04258
300.71444
300.18706
300.02717
299.99574
299.99544
299.9982
299.99953
299.99991
299.99999
300
300
300
300
300
300
300
300
300
300
300
300
300
300
300
300
300
300
300
300
300
300
300
300
344.54428
333.7949
324.02283
315.76747
309.30814
304.79291
302.08928
300.74289
300.20038
300.0319
299.99692
299.99557
299.99816
299.99949
299.9999
299.99999
300
300
300
300
300
300
300
300
300
300
300
300
300
300
300
300
300
300
300
300
300
300
300
300
344.54246
333.7917
324.02243
315.78449
309.35103
304.84679
302.13443
300.77093
300.21377
300.03679
299.99819
299.99574
299.99812
299.99946
299.99989
299.99999
300
300
300
300
300
300
300
300
300
300
300
300
300
300
300
300
300
300
300
300
300
300
300
300
344.54055
333.78911
324.02308
315.80009
309.39053
304.89771
302.17804
300.79854
300.22722
300.04181
299.99955
299.99594
299.99809
299.99943
299.99988
299.99998
300
300
300
300
300
300
300
300
300
300
300
300
300
300
300
300
300
300
300
300
300
300
300
300
344.53844
333.78682
324.0249
315.81493
309.42716
304.94591
302.22016
300.82571
300.2407
300.04697
300.00099
299.99618
299.99807
299.9994
299.99987
299.99998
300
300
300
300
300
300
300
300
300
300
300
300
300
300
300
300
300
300
300
300
300
300
300
300
344.53603
333.78447
324.0278
315.82953
309.46148
304.99162
302.26084
300.85241
300.25419
300.05224
300.00252
299.99645
299.99806
299.99937
299.99985
299.99998
300
300
300
300
300
300
300
300
300
300
300
300
300
300
300
300
300
300
300
300
300
300
300
300
344.5332
333.78167
324.03153
315.84424
309.49395
305.03509
302.30015
300.87864
300.26768
300.05763
300.00414
299.99676
299.99806
299.99935
299.99984
299.99997
300
300
300
300
300
300
300
300
300
300
300
300
300
300
300
300
300
300
300
300
300
300
300
300
344.52989
333.778
324.03566
315.85925
309.525
305.07658
302.33817
300.9044
300.28115
300.06312
300.00583
299.99711
299.99808
299.99932
299.99983
299.99997
300
300
300
300
300
300
300
300
300
300
300
300
300
300
300
300
300
300
300
300
300
300
300
300
344.52603
333.77312
324.03967
315.87458
309.55495
305.11632
302.37495
300.92968
300.29459
300.0687
300.0076
299.99749
299.9981
299.9993
299.99982
299.99997
300
300
300
300
300
300
300
300
300
300
300
300
300
300
300
300
300
300
300
300
300
300
300
300
344.52159
333.76671
324.04298
315.89006
309.58405
305.15452
302.41058
300.95449
300.30797
300.07437
300.00944
299.99791
299.99814
299.99928
299.9998
299.99996
299.99999
300
300
300
300
300
300
300
300
300
300
300
300
300
300
300
300
300
300
300
300
300
300
300
344.51658
333.75852
324.04497
315.90542
309.61243
305.19135
302.44512
300.97883
300.32129
300.0801
300.01136
299.99837
299.99819
299.99926
299.99979
299.99996
299.99999
300
300
300
300
300
300
300
300
300
300
300
300
300
300
300
300
300
300
300
300
300
300
300
344.51101
333.7484
324.04505
315.92021
309.64011
305.22694
302.47865
301.0027
300.33454
300.08591
300.01334
299.99886
299.99826
299.99925
299.99978
299.99995
299.99999
300
300
300
300
300
300
300
300
300
300
300
300
300
300
300
300
300
300
300
300
300
300
300
344.50495
333.7363
324.0427
315.93396
309.66703
305.26141
302.51122
301.02612
300.34771
300.09177
300.01538
299.99939
299.99833
299.99924
299.99977
299.99995
299.99999
300
300
300
300
300
300
300
300
300
300
300
300
300
300
300
300
300
300
300
300
300
300
300
344.49846
333.72224
324.03748
315.94611
309.69303
305.29478
302.54287
301.04908
300.36078
300.09768
300.01749
299.99995
299.99842
299.99924
299.99976
299.99994
299.99999
300
300
300
300
300
300
300
300
300
300
300
300
300
300
300
300
300
300
300
300
300
300
300
344.49164
333.70635
324.02911
315.95611
309.71788
305.3271
302.57366
301.07161
300.37375
300.10364
300.01965
300.00054
299.99853
299.99923
299.99975
299.99994
299.99999
300
300
300
300
300
300
300
300
300
300
300
300
300
300
300
300
300
300
300
300
300
300
300
344.48456
333.68879
324.01744
315.9635
309.74124
305.3582
302.60346
301.0936
300.38656
300.1096
300.02186
300.00117
299.99864
299.99924
299.99974
299.99993
299.99999
300
300
300
300
300
300
300
300
300
300
300
300
300
300
300
300
300
300
300
300
300
300
300
344.47745
333.6699
324.00221
315.96761
309.76304
305.38862
302.633
301.11561
300.39954
300.11573
300.02418
300.00185
299.99878
299.99924
299.99973
299.99993
299.99999
300
300
300
300
300
300
300
300
300
300
300
300
300
300
300
300
300
300
300
300
300
300
300
344.47012
333.65043
323.98558
315.96923
309.78142
305.41486
302.65848
301.13464
300.41081
300.1211
300.02623
300.00246
299.9989
299.99925
299.99973
299.99993
299.99998
300
300
300
300
300
300
300
300
300
300
300
300
300
300
300
300
300
300
300
300
300
300
300
344.46281
333.62282
323.95349
315.96267
309.8057
305.45572
302.7
301.16639
300.43004
300.13048
300.02992
300.0036
299.99916
299.99928
299.99972
299.99992
299.99998
300
300
300
300
300
300
300
300
300
300
300
300
300
300
300
300
300
300
300
300
300
300
300
)
;

boundaryField
{
    wall
    {
        type            fixedValue;
        value           uniform 350;
    }
    sides
    {
        type            zeroGradient;
    }
    frontAndBack
    {
        type            empty;
    }
    inlet
    {
        type            fixedValue;
        value           uniform 300;
    }
    outlet
    {
        type            zeroGradient;
    }
}


// ************************************************************************* //
