/*--------------------------------*- C++ -*----------------------------------*\
  =========                 |
  \\      /  F ield         | OpenFOAM: The Open Source CFD Toolbox
   \\    /   O peration     | Website:  https://openfoam.org
    \\  /    A nd           | Version:  10
     \\/     M anipulation  |
\*---------------------------------------------------------------------------*/
FoamFile
{
    format      ascii;
    class       volVectorField;
    location    "0.23";
    object      U;
}
// * * * * * * * * * * * * * * * * * * * * * * * * * * * * * * * * * * * * * //

dimensions      [0 1 -1 0 0 0 0];

internalField   nonuniform List<vector> 
4000
(
(0 0.018637448 0.47773157)
(0 0.023509987 0.50886061)
(0 0.0081668448 0.50052521)
(0 0.0056146078 0.50033634)
(0 0.0042546248 0.50025746)
(0 0.0032549446 0.50016898)
(0 0.0025560955 0.50011969)
(0 0.002054593 0.50009013)
(0 0.0016765975 0.50006981)
(0 0.001382266 0.50005539)
(0 0.0011472258 0.50004499)
(0 0.00095513805 0.50003733)
(0 0.0007947485 0.5000316)
(0 0.00065808139 0.50002727)
(0 0.00053930834 0.50002399)
(0 0.00043404857 0.50002151)
(0 0.00033891465 0.50001966)
(0 0.00025120457 0.50001833)
(0 0.00016868556 0.50001744)
(0 8.9435643e-05 0.50001693)
(0 1.1721312e-05 0.50001678)
(0 -6.6109555e-05 0.50001698)
(0 -0.00014571923 0.50001754)
(0 -0.00022887242 0.5000185)
(0 -0.00031754668 0.50001991)
(0 -0.00041406325 0.50002185)
(0 -0.00052125866 0.50002446)
(0 -0.00064272423 0.50002793)
(0 -0.00078315373 0.50003252)
(0 -0.00094887332 0.50003863)
(0 -0.0011486927 0.50004688)
(0 -0.0013952703 0.50005824)
(0 -0.0017073525 0.50007414)
(0 -0.0021152883 0.50009709)
(0 -0.002674992 0.50013482)
(0 -0.0034685744 0.50020238)
(0 -0.004560814 0.50027143)
(0 -0.0065850111 0.50043365)
(0 -0.017659447 0.50675406)
(0 -0.01359012 0.47975564)
(0 0.037432662 0.44796929)
(0 0.050955703 0.53232615)
(0 0.021969285 0.5080429)
(0 0.016135619 0.50357318)
(0 0.012416066 0.50242316)
(0 0.009515949 0.50162299)
(0 0.0075206299 0.50115661)
(0 0.0060699184 0.50086592)
(0 0.0049646165 0.500668)
(0 0.0041001916 0.500529)
(0 0.0034076933 0.50042903)
(0 0.0028401738 0.50035553)
(0 0.0023652594 0.50030064)
(0 0.0019598659 0.50025924)
(0 0.0016070331 0.50022789)
(0 0.0012939656 0.50020423)
(0 0.0010107383 0.50018663)
(0 0.00074941339 0.50017395)
(0 0.0005034165 0.50016545)
(0 0.00026707801 0.50016061)
(0 3.5277415e-05 0.50015918)
(0 -0.00019686484 0.50016109)
(0 -0.00043425802 0.50016644)
(0 -0.00068211257 0.50017554)
(0 -0.00094625891 0.50018896)
(0 -0.0012335263 0.50020751)
(0 -0.001552239 0.50023245)
(0 -0.0019129034 0.50026557)
(0 -0.0023292004 0.50030949)
(0 -0.0028194701 0.5003681)
(0 -0.0034090875 0.50044735)
(0 -0.0041344288 0.50055671)
(0 -0.0050485728 0.50071127)
(0 -0.0062313851 0.50093661)
(0 -0.0078317491 0.50129439)
(0 -0.010125455 0.50191053)
(0 -0.013106618 0.50282512)
(0 -0.017426034 0.50608119)
(0 -0.03875882 0.52526811)
(0 -0.02789457 0.4502166)
(0 0.039888246 0.40982062)
(0 0.061428075 0.54930816)
(0 0.031983713 0.52188196)
(0 0.024355488 0.51008055)
(0 0.019193635 0.50658856)
(0 0.014977192 0.50452807)
(0 0.012006788 0.50327139)
(0 0.0097720151 0.50245838)
(0 0.008036632 0.50190106)
(0 0.0066649929 0.50150869)
(0 0.0055568767 0.50122547)
(0 0.0046427491 0.50101672)
(0 0.0038738718 0.50086057)
(0 0.0032148488 0.50074265)
(0 0.0026393457 0.50065327)
(0 0.002127309 0.50058575)
(0 0.0016630617 0.50053549)
(0 0.0012339836 0.50049928)
(0 0.00082956745 0.50047496)
(0 0.00044071407 0.50046114)
(0 5.9181997e-05 0.50045705)
(0 -0.00032289055 0.50046249)
(0 -0.00071341235 0.50047777)
(0 -0.001120763 0.50050379)
(0 -0.0015542877 0.5005421)
(0 -0.0020248814 0.50059506)
(0 -0.0025457428 0.50066619)
(0 -0.003133405 0.50076056)
(0 -0.003809198 0.50088556)
(0 -0.0046013619 0.50105211)
(0 -0.0055482516 0.50127675)
(0 -0.0067038476 0.50158561)
(0 -0.0081453511 0.5020208)
(0 -0.0099768513 0.50265074)
(0 -0.012371163 0.5036151)
(0 -0.015716247 0.5051992)
(0 -0.019872721 0.50785395)
(0 -0.025186394 0.51641224)
(0 -0.047416986 0.53912732)
(0 -0.03085361 0.41488045)
(0 0.034791549 0.3617302)
(0 0.063838837 0.55456337)
(0 0.03938034 0.53747135)
(0 0.030083357 0.51849261)
(0 0.024112599 0.51197729)
(0 0.019279614 0.50849944)
(0 0.015736218 0.50626424)
(0 0.012954252 0.50475543)
(0 0.010743753 0.5037044)
(0 0.0089680297 0.5029561)
(0 0.0075140502 0.50241105)
(0 0.0063021495 0.50200677)
(0 0.0052745225 0.50170298)
(0 0.0043879118 0.50147275)
(0 0.0036095005 0.50129774)
(0 0.0029139049 0.50116526)
(0 0.0022810184 0.50106646)
(0 0.0016944805 0.5009952)
(0 0.0011405503 0.50094728)
(0 0.00060724788 0.50092002)
(0 8.3672493e-05 0.50091195)
(0 -0.00044059699 0.50092265)
(0 -0.00097604184 0.50095276)
(0 -0.0015337324 0.50100398)
(0 -0.0021259481 0.5010793)
(0 -0.0027668949 0.50118331)
(0 -0.0034736119 0.50132272)
(0 -0.0042671768 0.50150721)
(0 -0.0051743695 0.50175077)
(0 -0.0062299693 0.50207389)
(0 -0.0074798445 0.50250704)
(0 -0.0089862271 0.50309722)
(0 -0.010836487 0.50391914)
(0 -0.013137186 0.50508917)
(0 -0.016023979 0.50680681)
(0 -0.019899438 0.50946744)
(0 -0.024731456 0.51427483)
(0 -0.031113316 0.52824694)
(0 -0.050319569 0.54407201)
(0 -0.028438304 0.37238133)
(0 0.027424222 0.31484349)
(0 0.062314766 0.55024073)
(0 0.04461445 0.55146763)
(0 0.033981978 0.52748812)
(0 0.027464028 0.51772241)
(0 0.022455155 0.51291979)
(0 0.018636807 0.50973139)
(0 0.015528178 0.50749258)
(0 0.013006285 0.50589987)
(0 0.010942302 0.50474683)
(0 0.0092248485 0.50389606)
(0 0.0077750694 0.50325909)
(0 0.0065329784 0.50277702)
(0 0.0054521498 0.50240963)
(0 0.0044965341 0.50212912)
(0 0.0036376653 0.50191604)
(0 0.0028525984 0.50175671)
(0 0.0021223932 0.50164154)
(0 0.0014309552 0.50156399)
(0 0.0007641233 0.50151981)
(0 0.00010893233 0.5015067)
(0 -0.00054704901 0.501524)
(0 -0.0012163205 0.50157269)
(0 -0.0019120292 0.50165548)
(0 -0.0026486537 0.50177705)
(0 -0.0034427745 0.50194454)
(0 -0.0043140192 0.50216837)
(0 -0.0052862732 0.5024634)
(0 -0.0063892883 0.50285091)
(0 -0.0076608405 0.50336153)
(0 -0.0091491942 0.50403991)
(0 -0.010916787 0.50495258)
(0 -0.013050455 0.50620235)
(0 -0.015653996 0.50794412)
(0 -0.018815263 0.51040425)
(0 -0.022895764 0.51405477)
(0 -0.028176972 0.52114541)
(0 -0.035707007 0.53932641)
(0 -0.050476482 0.54155561)
(0 -0.024086203 0.33055938)
(0 0.019837865 0.27519813)
(0 0.057989874 0.53974674)
(0 0.047363739 0.56256473)
(0 0.036477567 0.53660452)
(0 0.029636101 0.52350707)
(0 0.024676139 0.51740323)
(0 0.020774299 0.51336293)
(0 0.017509885 0.51044445)
(0 0.014814396 0.50832412)
(0 0.012566903 0.50676172)
(0 0.010665878 0.5055927)
(0 0.0090393282 0.50470791)
(0 0.0076296355 0.50403244)
(0 0.006390938 0.50351406)
(0 0.0052867756 0.50311606)
(0 0.0042876785 0.50281239)
(0 0.0033694174 0.50258453)
(0 0.0025116549 0.50241938)
(0 0.0016968665 0.50230793)
(0 0.00090946438 0.50224435)
(0 0.00013507094 0.50222542)
(0 -0.00064014775 0.50225023)
(0 -0.0014300972 0.50232014)
(0 -0.0022493326 0.50243889)
(0 -0.00311375 0.50261292)
(0 -0.0040413371 0.50285202)
(0 -0.0050530698 0.50317032)
(0 -0.0061740144 0.50358782)
(0 -0.0074347213 0.50413271)
(0 -0.0088731196 0.50484493)
(0 -0.010536476 0.50578147)
(0 -0.012483084 0.50702462)
(0 -0.01479316 0.50869756)
(0 -0.017568488 0.51098191)
(0 -0.020863049 0.51412003)
(0 -0.024973116 0.51873023)
(0 -0.030508067 0.5282299)
(0 -0.038629487 0.54872414)
(0 -0.048508461 0.5339854)
(0 -0.019066905 0.29394107)
(0 0.013083133 0.24255543)
(0 0.051798648 0.52520096)
(0 0.04770929 0.57024849)
(0 0.03775697 0.54552487)
(0 0.030850375 0.52928854)
(0 0.026073553 0.52180155)
(0 0.022238071 0.51699778)
(0 0.01895386 0.5134733)
(0 0.016193734 0.51086477)
(0 0.013849884 0.50891226)
(0 0.011835815 0.50743246)
(0 0.010088939 0.50630034)
(0 0.0085566355 0.50542816)
(0 0.0071961533 0.50475377)
(0 0.0059726927 0.5042328)
(0 0.0048574353 0.50383333)
(0 0.0038261929 0.50353238)
(0 0.0028582935 0.50331358)
(0 0.0019356492 0.50316558)
(0 0.0010419762 0.50308097)
(0 0.00016213102 0.50305568)
(0 -0.00071851429 0.50308854)
(0 -0.0016146588 0.5031813)
(0 -0.0025416078 0.50333866)
(0 -0.0035159273 0.50356877)
(0 -0.0045561224 0.50388392)
(0 -0.0056834321 0.50430169)
(0 -0.0069227711 0.50484673)
(0 -0.0083038456 0.5055533)
(0 -0.0098627272 0.50646917)
(0 -0.011643612 0.5076615)
(0 -0.013698747 0.50922514)
(0 -0.016097641 0.51129807)
(0 -0.01893559 0.51407965)
(0 -0.022243966 0.5178387)
(0 -0.02626358 0.52346795)
(0 -0.031847385 0.53537526)
(0 -0.039758439 0.55589704)
(0 -0.044893533 0.5228252)
(0 -0.014090584 0.26264874)
(0 0.0077700591 0.21554184)
(0 0.044825592 0.50801062)
(0 0.046255261 0.57438089)
(0 0.038035171 0.55375119)
(0 0.03128783 0.53496041)
(0 0.026768355 0.52603015)
(0 0.023116779 0.52053825)
(0 0.019920946 0.51648801)
(0 0.017182302 0.51344138)
(0 0.014813632 0.51113034)
(0 0.012746505 0.50935919)
(0 0.010928867 0.50799064)
(0 0.0093148164 0.50692708)
(0 0.0078663847 0.50609861)
(0 0.0065518276 0.5054546)
(0 0.0053441886 0.50495823)
(0 0.0042203571 0.50458271)
(0 0.0031602024 0.50430878)
(0 0.0021458218 0.50412301)
(0 0.0011608912 0.50401658)
(0 0.00019009557 0.50398462)
(0 -0.00078142 0.50402574)
(0 -0.0017685792 0.50414201)
(0 -0.0027868367 0.50433906)
(0 -0.0038527635 0.50462653)
(0 -0.0049846236 0.50501895)
(0 -0.0062030355 0.50553692)
(0 -0.007531738 0.50620904)
(0 -0.0089984152 0.50707465)
(0 -0.010635863 0.50818789)
(0 -0.012483663 0.50962402)
(0 -0.014586949 0.51148808)
(0 -0.017001921 0.51392895)
(0 -0.019810243 0.51715539)
(0 -0.023027882 0.52148044)
(0 -0.026877345 0.5281829)
(0 -0.032349301 0.54222048)
(0 -0.039401858 0.56050275)
(0 -0.040327543 0.5090869)
(0 -0.00970793 0.23586198)
(0 0.0040048837 0.19355738)
(0 0.037899227 0.48948805)
(0 0.04368672 0.57524023)
(0 0.037563749 0.56084497)
(0 0.031154168 0.54036103)
(0 0.026914209 0.53001124)
(0 0.02351422 0.52390162)
(0 0.020480497 0.51941238)
(0 0.017827018 0.51598757)
(0 0.015489819 0.51335865)
(0 0.013418573 0.51132381)
(0 0.011571927 0.50973719)
(0 0.0099117196 0.50849413)
(0 0.0084057148 0.50751898)
(0 0.0070260834 0.50675635)
(0 0.0057485536 0.50616552)
(0 0.0045518429 0.50571666)
(0 0.0034170323 0.50538812)
(0 0.0023270074 0.50516472)
(0 0.0012659524 0.50503644)
(0 0.00021889295 0.50499771)
(0 -0.00082875834 0.50504698)
(0 -0.0018916537 0.50518657)
(0 -0.0029848809 0.50542289)
(0 -0.0041244624 0.50576691)
(0 -0.0053278119 0.50623498)
(0 -0.0066142496 0.50685022)
(0 -0.0080055856 0.50764443)
(0 -0.0095266762 0.50866095)
(0 -0.011206121 0.50995887)
(0 -0.013077785 0.5116195)
(0 -0.015179189 0.5137555)
(0 -0.017552969 0.51652264)
(0 -0.020263278 0.52013197)
(0 -0.023317984 0.52496369)
(0 -0.026959037 0.53274037)
(0 -0.032200602 0.54839092)
(0 -0.037992813 0.56254484)
(0 -0.035413765 0.49379729)
(0 -0.0062002635 0.21325789)
(0 0.0015510121 0.17613479)
(0 0.031499239 0.47076306)
(0 0.040531853 0.57338604)
(0 0.036558577 0.56659832)
(0 0.030637082 0.54537828)
(0 0.026671498 0.53370436)
(0 0.023543013 0.527032)
(0 0.02071042 0.5221881)
(0 0.018183057 0.51845088)
(0 0.015917453 0.51555065)
(0 0.01387918 0.51328526)
(0 0.012036802 0.51150408)
(0 0.01036002 0.51009806)
(0 0.0088225751 0.50898771)
(0 0.0074009358 0.5081143)
(0 0.0060739861 0.50743431)
(0 0.0048227506 0.50691556)
(0 0.0036299881 0.5065346)
(0 0.0024798196 0.50627484)
(0 0.0013573653 0.50612533)
(0 0.00024840288 0.50607994)
(0 -0.00086098335 0.50613695)
(0 -0.0019847686 0.50629892)
(0 -0.0031372599 0.50657289)
(0 -0.0043334995 0.50697086)
(0 -0.0055895987 0.50751065)
(0 -0.0069231051 0.5082173)
(0 -0.0083534084 0.50912504)
(0 -0.0099020791 0.51028016)
(0 -0.011593127 0.51174523)
(0 -0.013454276 0.51360559)
(0 -0.015515596 0.51597873)
(0 -0.017807712 0.51902318)
(0 -0.020377574 0.52294996)
(0 -0.023232422 0.52823595)
(0 -0.026652626 0.53704081)
(0 -0.031562558 0.55365931)
(0 -0.035902259 0.56231004)
(0 -0.030551752 0.47789763)
(0 -0.003590581 0.19461675)
(0 7.6614872e-05 0.16252662)
(0 0.025869908 0.4526023)
(0 0.037158894 0.56943384)
(0 0.035190596 0.57098869)
(0 0.029876747 0.54996267)
(0 0.026173251 0.53711356)
(0 0.023305528 0.52991198)
(0 0.02068722 0.52478374)
(0 0.018307806 0.52079763)
(0 0.016138905 0.51767343)
(0 0.014159219 0.51521259)
(0 0.012345892 0.51326292)
(0 0.010675843 0.5117132)
(0 0.0091284566 0.51048174)
(0 0.0076844753 0.50950774)
(0 0.0063260908 0.50874585)
(0 0.0050368641 0.5081623)
(0 0.0038015058 0.50773236)
(0 0.0026056676 0.50743841)
(0 0.001435709 0.5072688)
(0 0.00027846436 0.50721699)
(0 -0.0008790048 0.50728112)
(0 -0.0020496899 0.50746395)
(0 -0.003246811 0.50777297)
(0 -0.0044841244 0.50822096)
(0 -0.0057761413 0.50882682)
(0 -0.0071383591 0.50961694)
(0 -0.0085875071 0.51062721)
(0 -0.010141729 0.51190588)
(0 -0.011820513 0.51351766)
(0 -0.013645652 0.51555022)
(0 -0.015640364 0.5181233)
(0 -0.017825285 0.52139511)
(0 -0.020232799 0.52558008)
(0 -0.022876483 0.53128308)
(0 -0.02607422 0.54103166)
(0 -0.03056575 0.55793478)
(0 -0.033423482 0.56019358)
(0 -0.025993293 0.46207692)
(0 -0.0017645881 0.17947882)
(0 -0.00071810724 0.15190947)
(0 0.021107408 0.4354376)
(0 0.033818189 0.5639326)
(0 0.033602854 0.57408892)
(0 0.028973832 0.55409352)
(0 0.025519023 0.54026307)
(0 0.022885396 0.53255208)
(0 0.02047785 0.52719132)
(0 0.018254274 0.52301176)
(0 0.01619526 0.51970741)
(0 0.014290076 0.51708499)
(0 0.01252296 0.51499308)
(0 0.010877012 0.51331977)
(0 0.0093365953 0.51198245)
(0 0.0078864233 0.51091932)
(0 0.0065118937 0.51008399)
(0 0.0051991279 0.5094418)
(0 0.0039348956 0.50896714)
(0 0.0027065368 0.50864178)
(0 0.0015018357 0.50845356)
(0 0.00030888481 0.50839567)
(0 -0.00088406925 0.50846615)
(0 -0.002088825 0.5086679)
(0 -0.0033173142 0.50900872)
(0 -0.0045818208 0.50950191)
(0 -0.0058950986 0.51016706)
(0 -0.0072704895 0.51103144)
(0 -0.0087220343 0.51213191)
(0 -0.01026455 0.5135178)
(0 -0.011913358 0.51525493)
(0 -0.013684909 0.51743196)
(0 -0.015596364 0.52016905)
(0 -0.017660192 0.52362209)
(0 -0.019897867 0.52801679)
(0 -0.022335559 0.53411119)
(0 -0.025314754 0.54468196)
(0 -0.029325334 0.56120796)
(0 -0.030788026 0.5565907)
(0 -0.021891955 0.44677345)
(0 -0.00056395063 0.16725692)
(0 -0.0010702455 0.14358603)
(0 0.017202599 0.41948314)
(0 0.030665339 0.55734163)
(0 0.031913266 0.5760202)
(0 0.028002407 0.55776319)
(0 0.02478235 0.54317875)
(0 0.02234907 0.53497501)
(0 0.020137948 0.52941673)
(0 0.01806823 0.52508923)
(0 0.016123541 0.52164318)
(0 0.014301254 0.51888997)
(0 0.012591212 0.51668049)
(0 0.010981552 0.51490317)
(0 0.0094608296 0.51347531)
(0 0.0080172633 0.51233488)
(0 0.006639192 0.51143512)
(0 0.0053151735 0.51074094)
(0 0.0040340141 0.51022633)
(0 0.0027847839 0.50987268)
(0 0.0015567763 0.50966756)
(0 0.0003394492 0.50960399)
(0 -0.00087764681 0.50967996)
(0 -0.0021049981 0.50989843)
(0 -0.0033531416 0.5102674)
(0 -0.0046328062 0.51080045)
(0 -0.0059549477 0.51151757)
(0 -0.0073307808 0.51244644)
(0 -0.0087717816 0.51362437)
(0 -0.010289697 0.51510108)
(0 -0.011896172 0.51694272)
(0 -0.013603088 0.51923803)
(0 -0.015422449 0.52210621)
(0 -0.017360245 0.52570019)
(0 -0.019431082 0.5302671)
(0 -0.021678595 0.536732)
(0 -0.024447451 0.5479716)
(0 -0.027943003 0.56352275)
(0 -0.028166458 0.55186315)
(0 -0.018321901 0.43225191)
(0 0.00016975808 0.15740504)
(0 -0.0011533608 0.13700491)
(0 0.014077989 0.4048193)
(0 0.027780393 0.55003526)
(0 0.030209874 0.57693001)
(0 0.027014879 0.56097814)
(0 0.024016219 0.54588457)
(0 0.021748425 0.53720773)
(0 0.019712701 0.5314731)
(0 0.01778801 0.52703331)
(0 0.015955851 0.52347815)
(0 0.014219223 0.52062113)
(0 0.012572145 0.51831633)
(0 0.011006671 0.51645314)
(0 0.0095147461 0.51494934)
(0 0.0080875547 0.51374316)
(0 0.0067160205 0.51278796)
(0 0.0053909204 0.51204858)
(0 0.0041029818 0.51149894)
(0 0.00284296 0.51112028)
(0 0.0016016583 0.51090008)
(0 0.0003699294 0.51083126)
(0 -0.00086133034 0.5109118)
(0 -0.0021012529 0.51114468)
(0 -0.003358953 0.51153798)
(0 -0.0046436066 0.51210539)
(0 -0.00596442 0.512867)
(0 -0.0073306024 0.5138506)
(0 -0.0087512897 0.51509353)
(0 -0.010235508 0.5166454)
(0 -0.011791784 0.51857212)
(0 -0.013428255 0.52096189)
(0 -0.015152765 0.52393204)
(0 -0.016966477 0.52763308)
(0 -0.018881023 0.53234469)
(0 -0.020960147 0.53915963)
(0 -0.023529507 0.5508941)
(0 -0.026501225 0.56496173)
(0 -0.025670024 0.54632878)
(0 -0.01529477 0.41866034)
(0 0.00057466406 0.14946042)
(0 -0.001085783 0.13172635)
(0 0.011622932 0.39143739)
(0 0.025191189 0.54230721)
(0 0.028551489 0.57697264)
(0 0.026044641 0.56375806)
(0 0.023255985 0.54840339)
(0 0.021121975 0.5392787)
(0 0.019237554 0.53337782)
(0 0.017444835 0.52885195)
(0 0.015719243 0.52521441)
(0 0.01406698 0.52227652)
(0 0.012484958 0.51989579)
(0 0.010968148 0.51796299)
(0 0.009511107 0.51639663)
(0 0.0081074345 0.51513554)
(0 0.0067502423 0.51413346)
(0 0.0054322572 0.51335549)
(0 0.0041459534 0.51277565)
(0 0.002883663 0.51237526)
(0 0.001637638 0.51214179)
(0 0.00040009348 0.51206817)
(0 -0.00083674836 0.51215236)
(0 -0.0020806848 0.51239733)
(0 -0.0033394441 0.51281116)
(0 -0.0046207147 0.5134075)
(0 -0.005932067 0.51420635)
(0 -0.0072808878 0.51523536)
(0 -0.0086742555 0.51653158)
(0 -0.010118877 0.51814419)
(0 -0.011620733 0.52013851)
(0 -0.013185036 0.52260176)
(0 -0.014816454 0.52564894)
(0 -0.01651292 0.52942992)
(0 -0.0182864 0.5342677)
(0 -0.020220844 0.54141069)
(0 -0.022602471 0.55345711)
(0 -0.025061063 0.56562942)
(0 -0.023361408 0.54025347)
(0 -0.012780939 0.40606058)
(0 0.00075987451 0.14302877)
(0 -0.00094395225 0.12740475)
(0 0.0097186542 0.37927139)
(0 0.02289427 0.53437792)
(0 0.026973302 0.57629318)
(0 0.025110431 0.56613017)
(0 0.022522878 0.55075591)
(0 0.020496386 0.54121563)
(0 0.018738954 0.53515051)
(0 0.017063191 0.53055616)
(0 0.015435778 0.52685731)
(0 0.013863886 0.52385742)
(0 0.012346276 0.52141719)
(0 0.010879985 0.51942887)
(0 0.009461492 0.51781184)
(0 0.0080862812 0.51650566)
(0 0.0067492565 0.51546463)
(0 0.0054448048 0.51465424)
(0 0.0041669393 0.5140488)
(0 0.0029094213 0.51362979)
(0 0.0016658465 0.5133848)
(0 0.00042971403 0.51330679)
(0 -0.00080549424 0.51339375)
(0 -0.0020463077 0.51364859)
(0 -0.0032991498 0.51407932)
(0 -0.0045703322 0.51469943)
(0 -0.0058659452 0.51552874)
(0 -0.0071917726 0.51659453)
(0 -0.008553143 0.51793341)
(0 -0.0099548598 0.51959393)
(0 -0.011400906 0.5216406)
(0 -0.012894312 0.52415947)
(0 -0.014437467 0.5272631)
(0 -0.016026534 0.53110359)
(0 -0.017676333 0.53605656)
(0 -0.019488861 0.54350273)
(0 -0.021694387 0.55567805)
(0 -0.02366453 0.56563588)
(0 -0.021268672 0.53384876)
(0 -0.010727896 0.39445219)
(0 0.00080570521 0.13777677)
(0 -0.00077535843 0.12377905)
(0 0.0082525018 0.36822437)
(0 0.020869366 0.52640688)
(0 0.025493207 0.57501947)
(0 0.024221042 0.56812408)
(0 0.021828048 0.55295909)
(0 0.019888807 0.54304316)
(0 0.018235669 0.53681094)
(0 0.016661535 0.53215843)
(0 0.015122827 0.52841411)
(0 0.013625739 0.52536731)
(0 0.012170071 0.52288109)
(0 0.010754255 0.52084915)
(0 0.0093760996 0.51919173)
(0 0.0080325086 0.51784911)
(0 0.0067198059 0.51677621)
(0 0.0054337523 0.51593901)
(0 0.00416968 0.51531217)
(0 0.0029226105 0.51487745)
(0 0.001687351 0.51462256)
(0 0.00045857592 0.51454057)
(0 -0.00076907201 0.51462946)
(0 -0.0020009534 0.5148921)
(0 -0.0032423003 0.51533636)
(0 -0.0044981864 0.51597553)
(0 -0.0057734008 0.51682911)
(0 -0.0070723579 0.51792398)
(0 -0.008398944 0.51929615)
(0 -0.009756454 0.52099347)
(0 -0.011147372 0.5230796)
(0 -0.012573174 0.52563934)
(0 -0.014034733 0.52878314)
(0 -0.015527741 0.53266881)
(0 -0.01707159 0.53773152)
(0 -0.018782431 0.54545222)
(0 -0.020822805 0.55757937)
(0 -0.022338184 0.56508607)
(0 -0.019396921 0.52727666)
(0 -0.0090728748 0.38379469)
(0 0.00076866177 0.13343201)
(0 -0.00060798798 0.120659)
(0 0.0071252837 0.35818749)
(0 0.019088457 0.51850626)
(0 0.02411707 0.57326054)
(0 0.023378934 0.56976915)
(0 0.021175949 0.55502585)
(0 0.019309327 0.54478174)
(0 0.017740402 0.53837742)
(0 0.016253296 0.53367135)
(0 0.014793647 0.52989292)
(0 0.013365062 0.52681094)
(0 0.011967775 0.52428955)
(0 0.010601091 0.52222381)
(0 0.0092636782 0.52053465)
(0 0.0079534666 0.51916301)
(0 0.0066678709 0.51806443)
(0 0.0054037588 0.51720539)
(0 0.0041575662 0.51656094)
(0 0.0029253991 0.51611309)
(0 0.0017031303 0.51584979)
(0 0.00048648267 0.51576418)
(0 -0.00072885834 0.51585425)
(0 -0.0019472041 0.51612281)
(0 -0.0031727266 0.51657758)
(0 -0.0044094145 0.51723159)
(0 -0.0056609427 0.518104)
(0 -0.0069305861 0.5192212)
(0 -0.0082210775 0.52061862)
(0 -0.0095345589 0.5223434)
(0 -0.010872443 0.52445839)
(0 -0.012235164 0.52704721)
(0 -0.013622701 0.53021875)
(0 -0.015031389 0.53414043)
(0 -0.016486175 0.53931108)
(0 -0.018112333 0.5472735)
(0 -0.01999744 0.5591855)
(0 -0.021096488 0.56407476)
(0 -0.017736908 0.52065789)
(0 -0.0077511628 0.37402522)
(0 0.00068715608 0.12977919)
(0 -0.00045676193 0.11790937)
(0 0.0062544162 0.34905127)
(0 0.017521407 0.51075259)
(0 0.022843002 0.57110773)
(0 0.022582741 0.57109337)
(0 0.020566752 0.55696561)
(0 0.018762985 0.54644749)
(0 0.017261266 0.5398661)
(0 0.01584791 0.5351068)
(0 0.014458072 0.5313019)
(0 0.013091538 0.5281936)
(0 0.011748517 0.52564555)
(0 0.010428801 0.52355389)
(0 0.0091315592 0.52184013)
(0 0.0078554268 0.52044574)
(0 0.0065986306 0.51932676)
(0 0.0053589082 0.51845017)
(0 0.0041335978 0.51779139)
(0 0.002919719 0.51733274)
(0 0.0017140611 0.51706233)
(0 0.00051326188 0.51697341)
(0 -0.00068607876 0.517064)
(0 -0.0018873516 0.51733683)
(0 -0.0030938072 0.51779945)
(0 -0.0043085055 0.51846463)
(0 -0.0055341895 0.51935116)
(0 -0.0067732108 0.52048497)
(0 -0.0080274065 0.52190093)
(0 -0.0092980722 0.52364551)
(0 -0.010585901 0.52578086)
(0 -0.011890693 0.52838955)
(0 -0.013212022 0.53157982)
(0 -0.014547771 0.53553252)
(0 -0.015928798 0.54081125)
(0 -0.017483884 0.54897869)
(0 -0.019222296 0.56052115)
(0 -0.019944893 0.56268472)
(0 -0.01627136 0.51408)
(0 -0.0067015482 0.36507033)
(0 0.00058636699 0.12665179)
(0 -0.00032814596 0.11543593)
(0 0.0055741613 0.34071186)
(0 0.016139269 0.50319599)
(0 0.021664716 0.56863679)
(0 0.021829074 0.57212285)
(0 0.019998049 0.55878498)
(0 0.01825134 0.54805261)
(0 0.016802992 0.54129072)
(0 0.015451723 0.53647556)
(0 0.014123182 0.5326488)
(0 0.012812468 0.52952068)
(0 0.01151943 0.5269525)
(0 0.010244058 0.52484117)
(0 0.0089857601 0.52310857)
(0 0.0077436304 0.52169656)
(0 0.0065164771 0.52056163)
(0 0.0053027044 0.51967113)
(0 0.0041003727 0.51900085)
(0 0.0029072553 0.51853337)
(0 0.0017209143 0.51825698)
(0 0.00053876871 0.51816506)
(0 -0.00064179573 0.5182556)
(0 -0.0018233797 0.51853128)
(0 -0.0030084497 0.51899946)
(0 -0.0041992881 0.51967269)
(0 -0.0053978765 0.52056939)
(0 -0.006605837 0.52171505)
(0 -0.0078243347 0.52314404)
(0 -0.0090540724 0.5249023)
(0 -0.010295304 0.52705137)
(0 -0.011547503 0.529673)
(0 -0.012810214 0.53287583)
(0 -0.014083555 0.53685778)
(0 -0.015404135 0.54224539)
(0 -0.016898538 0.5505777)
(0 -0.018497461 0.56161009)
(0 -0.018882671 0.56098651)
(0 -0.014979434 0.50760454)
(0 -0.005869431 0.35685344)
(0 0.00048203937 0.12392315)
(0 -0.00022347219 0.11317424)
(0 0.0050340351 0.33307434)
(0 0.014915942 0.49586739)
(0 0.020573956 0.56591021)
(0 0.021113779 0.57288149)
(0 0.019466093 0.56048842)
(0 0.017773703 0.54960589)
(0 0.016367898 0.54266265)
(0 0.01506875 0.5377871)
(0 0.013793887 0.53394073)
(0 0.012533219 0.53079739)
(0 0.011285964 0.52821398)
(0 0.010052109 0.52608779)
(0 0.0088311242 0.52434093)
(0 0.0076223734 0.52291548)
(0 0.006425064 0.52176822)
(0 0.0052380969 0.52086685)
(0 0.0040600985 0.52018744)
(0 0.0028894515 0.51971281)
(0 0.0017243569 0.51943144)
(0 0.00056288837 0.51933675)
(0 -0.0005969068 0.51942678)
(0 -0.0017569646 0.5197041)
(0 -0.0029190985 0.52017596)
(0 -0.0040849529 0.52085463)
(0 -0.0052559018 0.52175823)
(0 -0.0064330071 0.52291189)
(0 -0.0076169483 0.52434953)
(0 -0.0088080389 0.52611667)
(0 -0.010006303 0.52827443)
(0 -0.011211123 0.53090399)
(0 -0.012422288 0.53411555)
(0 -0.013642617 0.53812732)
(0 -0.014913926 0.54362423)
(0 -0.016355184 0.55207843)
(0 -0.017820585 0.56247439)
(0 -0.017905294 0.55903921)
(0 -0.013839619 0.5012731)
(0 -0.0052081415 0.34929949)
(0 0.00038338017 0.12149847)
(0 -0.00014121196 0.11108095)
(0 0.0045963804 0.32605411)
(0 0.01382874 0.48878414)
(0 0.01956204 0.56297956)
(0 0.020432714 0.57339112)
(0 0.018966653 0.56207881)
(0 0.017328065 0.55111326)
(0 0.015956672 0.54399103)
(0 0.014701301 0.53904961)
(0 0.01347344 0.53518405)
(0 0.012257611 0.53202857)
(0 0.011052184 0.52943351)
(0 0.009856999 0.52729612)
(0 0.0086714749 0.52553855)
(0 0.0074951127 0.52410295)
(0 0.0063273759 0.52294631)
(0 0.0051675246 0.52203655)
(0 0.0040146184 0.52134998)
(0 0.0028675237 0.52086962)
(0 0.0017249592 0.52058407)
(0 0.00058553695 0.52048684)
(0 -0.0005521498 0.52057597)
(0 -0.0016894889 0.52085398)
(0 -0.0028277603 0.52132794)
(0 -0.0039680969 0.52200994)
(0 -0.0051113991 0.52291783)
(0 -0.0062583115 0.52407641)
(0 -0.0074091793 0.52551929)
(0 -0.0085640842 0.52729168)
(0 -0.0097229748 0.52945445)
(0 -0.010885303 0.53208845)
(0 -0.012051306 0.5353068)
(0 -0.013226776 0.53935056)
(0 -0.01445789 0.54495604)
(0 -0.015851151 0.55348696)
(0 -0.017187972 0.56313404)
(0 -0.017006164 0.55689177)
(0 -0.012831463 0.49511247)
(0 -0.0046791334 0.34233786)
(0 0.00029521995 0.11930799)
(0 -7.8455704e-05 0.10912703)
(0 0.0042337797 0.31957713)
(0 0.012858371 0.4819542)
(0 0.018620738 0.55988757)
(0 0.019782157 0.57367167)
(0 0.018495541 0.56355801)
(0 0.016911758 0.55257842)
(0 0.01556895 0.54528301)
(0 0.014350488 0.54026996)
(0 0.013163861 0.53638432)
(0 0.011988267 0.53321858)
(0 0.010821039 0.53061442)
(0 0.0096617727 0.52846853)
(0 0.0085097713 0.52670296)
(0 0.0073645787 0.5252598)
(0 0.006225808 0.52409611)
(0 0.0050929698 0.52317996)
(0 0.0039654472 0.52248783)
(0 0.0028424817 0.52200289)
(0 0.0017232042 0.52171385)
(0 0.00060666073 0.52161429)
(0 -0.00050811377 0.52170223)
(0 -0.001622064 0.52198012)
(0 -0.002736043 0.52245495)
(0 -0.0038507826 0.52313861)
(0 -0.004966824 0.52404873)
(0 -0.0060845119 0.52520987)
(0 -0.0072039764 0.5266554)
(0 -0.008325185 0.52843039)
(0 -0.0094481144 0.53059554)
(0 -0.0105724 0.53323179)
(0 -0.011698875 0.53645639)
(0 -0.012836395 0.54053524)
(0 -0.014034456 0.54624695)
(0 -0.01538295 0.55480788)
(0 -0.016595355 0.56360702)
(0 -0.016177832 0.55458458)
(0 -0.011936466 0.48913864)
(0 -0.0042514699 0.33590393)
(0 0.0002195426 0.1173011)
(0 -3.1836654e-05 0.10729289)
(0 0.0039266634 0.31357928)
(0 0.011988639 0.47537909)
(0 0.017742692 0.55666991)
(0 0.019158968 0.57374152)
(0 0.018048908 0.56492732)
(0 0.016521885 0.55400333)
(0 0.015203736 0.54654408)
(0 0.014016605 0.54145392)
(0 0.012866281 0.53754633)
(0 0.011726902 0.53437132)
(0 0.010594604 0.53175981)
(0 0.0094686692 0.52960736)
(0 0.0083482558 0.52783581)
(0 0.0072328872 0.52638706)
(0 0.006122249 0.52521814)
(0 0.0050160174 0.52429718)
(0 0.00391381 0.52360077)
(0 0.0028151531 0.52311219)
(0 0.0017194983 0.52282023)
(0 0.00062623455 0.52271851)
(0 -0.00046525288 0.52280504)
(0 -0.001555558 0.52308223)
(0 -0.0026452001 0.52355695)
(0 -0.0037346037 0.52424097)
(0 -0.0048240462 0.52515175)
(0 -0.0059136664 0.52631368)
(0 -0.007003471 0.52775999)
(0 -0.0080933972 0.52953569)
(0 -0.0091835163 0.53170149)
(0 -0.010273722 0.53433875)
(0 -0.011365548 0.53757016)
(0 -0.012470863 0.54168757)
(0 -0.013641298 0.54750129)
(0 -0.014946778 0.55604463)
(0 -0.016038406 0.56390937)
(0 -0.015412797 0.55215092)
(0 -0.011138429 0.4833599)
(0 -0.0039009133 0.32993969)
(0 0.00015655339 0.11544153)
(0 1.9276256e-06 0.10556492)
(0 0.003661269 0.30800545)
(0 0.011206017 0.46905613)
(0 0.016921547 0.55335651)
(0 0.018560608 0.57361771)
(0 0.017623382 0.56618783)
(0 0.016155586 0.5553887)
(0 0.014859693 0.54777829)
(0 0.013699415 0.54260623)
(0 0.0125812 0.5386742)
(0 0.011474555 0.53549021)
(0 0.010374276 0.53287247)
(0 0.0092792861 0.53071483)
(0 0.0081885875 0.52893877)
(0 0.0071016445 0.5274859)
(0 0.0060181603 0.52631313)
(0 0.0049379128 0.5253886)
(0 0.0038606832 0.52468893)
(0 0.0027862078 0.52419746)
(0 0.0017141819 0.52390304)
(0 0.00064425962 0.52379931)
(0 -0.00042390226 0.52388428)
(0 -0.0014906265 0.52416032)
(0 -0.0025561779 0.52463421)
(0 -0.0036207524 0.52531763)
(0 -0.0046844407 0.52622791)
(0 -0.0057472499 0.52738934)
(0 -0.0068091308 0.52883511)
(0 -0.0078700482 0.53061027)
(0 -0.0089302057 0.53277567)
(0 -0.009989801 0.53541344)
(0 -0.011051144 0.53865295)
(0 -0.012128949 0.54281242)
(0 -0.013275723 0.54872191)
(0 -0.014538854 0.55719978)
(0 -0.015513048 0.56405547)
(0 -0.014704 0.54961827)
(0 -0.010423468 0.47777908)
(0 -0.0036088552 0.3243938)
(0 0.00010542207 0.11370341)
(0 2.575703e-05 0.10393321)
(0 0.0034280014 0.30280839)
(0 0.010499211 0.46297981)
(0 0.016151918 0.54997266)
(0 0.017985077 0.57331614)
(0 0.017216106 0.56734067)
(0 0.015810185 0.55673443)
(0 0.014535326 0.54898858)
(0 0.013398346 0.54373079)
(0 0.012308687 0.53977145)
(0 0.01123177 0.53657823)
(0 0.010160941 0.53395491)
(0 0.009094719 0.53179299)
(0 0.0080319586 0.53001345)
(0 0.0069720407 0.52855755)
(0 0.0059146499 0.52738197)
(0 0.0048596175 0.5264548)
(0 0.0038068328 0.52575266)
(0 0.0027561819 0.5252589)
(0 0.00170754 0.52496239)
(0 0.00066076045 0.5248568)
(0 -0.00038429451 0.52494012)
(0 -0.0014277435 0.52521469)
(0 -0.0024696628 0.52568724)
(0 -0.0035100846 0.52636936)
(0 -0.0045489744 0.52727832)
(0 -0.0055862637 0.52843838)
(0 -0.0066218962 0.52988274)
(0 -0.0076559018 0.53165659)
(0 -0.008688634 0.53382104)
(0 -0.0097206198 0.53645939)
(0 -0.010755 0.53970881)
(0 -0.011809071 0.54391351)
(0 -0.012934938 0.54991054)
(0 -0.014155626 0.55827532)
(0 -0.015015624 0.56405828)
(0 -0.014045072 0.54700943)
(0 -0.009779853 0.47239535)
(0 -0.0033612486 0.31922122)
(0 6.4789535e-05 0.1120683)
(0 4.2101016e-05 0.10239005)
(0 0.003220178 0.29794763)
(0 0.0098587561 0.45714288)
(0 0.015429264 0.54653982)
(0 0.017430821 0.57285174)
(0 0.016824723 0.56838722)
(0 0.015483265 0.55803981)
(0 0.014229106 0.550177)
(0 0.013112634 0.54483077)
(0 0.012048524 0.54084106)
(0 0.010998744 0.53763797)
(0 0.0099550984 0.53500938)
(0 0.0089156776 0.53284375)