/*--------------------------------*- C++ -*----------------------------------*\
  =========                 |
  \\      /  F ield         | OpenFOAM: The Open Source CFD Toolbox
   \\    /   O peration     | Website:  https://openfoam.org
    \\  /    A nd           | Version:  10
     \\/     M anipulation  |
\*---------------------------------------------------------------------------*/
FoamFile
{
    format      ascii;
    class       volVectorField;
    location    "0.23";
    object      U_0;
}
// * * * * * * * * * * * * * * * * * * * * * * * * * * * * * * * * * * * * * //

dimensions      [0 1 -1 0 0 0 0];

internalField   nonuniform List<vector> 
4000
(
(0 0.018637447 0.47773157)
(0 0.023509984 0.50886061)
(0 0.0081668429 0.50052521)
(0 0.0056146061 0.50033634)
(0 0.0042546231 0.50025746)
(0 0.003254943 0.50016898)
(0 0.0025560942 0.50011969)
(0 0.002054592 0.50009013)
(0 0.001676597 0.50006981)
(0 0.001382266 0.50005539)
(0 0.0011472263 0.50004499)
(0 0.00095513915 0.50003733)
(0 0.00079475027 0.5000316)
(0 0.00065808387 0.50002727)
(0 0.00053931154 0.50002399)
(0 0.00043405252 0.50002151)
(0 0.00033891938 0.50001966)
(0 0.00025121008 0.50001833)
(0 0.00016869186 0.50001744)
(0 8.9442745e-05 0.50001693)
(0 1.1729197e-05 0.50001678)
(0 -6.6100922e-05 0.50001698)
(0 -0.0001457099 0.50001754)
(0 -0.00022886242 0.5000185)
(0 -0.00031753607 0.50001991)
(0 -0.00041405208 0.50002185)
(0 -0.00052124701 0.50002446)
(0 -0.00064271215 0.50002793)
(0 -0.00078314134 0.50003252)
(0 -0.00094886073 0.50003863)
(0 -0.00114868 0.50004688)
(0 -0.0013952576 0.50005824)
(0 -0.00170734 0.50007414)
(0 -0.0021152762 0.50009709)
(0 -0.0026749803 0.50013482)
(0 -0.0034685635 0.50020238)
(0 -0.0045608042 0.50027143)
(0 -0.0065850021 0.50043365)
(0 -0.017659438 0.50675405)
(0 -0.013590116 0.47975564)
(0 0.037432659 0.44796929)
(0 0.050955696 0.53232615)
(0 0.021969279 0.5080429)
(0 0.016135613 0.50357318)
(0 0.01241606 0.50242316)
(0 0.0095159438 0.50162299)
(0 0.0075206255 0.50115661)
(0 0.006069915 0.50086592)
(0 0.0049646143 0.500668)
(0 0.0041001909 0.500529)
(0 0.0034076943 0.50042903)
(0 0.0028401767 0.50035553)
(0 0.0023652642 0.50030064)
(0 0.001959873 0.50025924)
(0 0.0016070424 0.50022789)
(0 0.0012939772 0.50020423)
(0 0.0010107524 0.50018663)
(0 0.00074942991 0.50017395)
(0 0.00050343546 0.50016544)
(0 0.00026709942 0.50016061)
(0 3.5301225e-05 0.50015918)
(0 -0.0001968387 0.50016109)
(0 -0.00043422966 0.50016643)
(0 -0.00068208211 0.50017554)
(0 -0.00094622654 0.50018895)
(0 -0.0012334922 0.50020751)
(0 -0.0015522034 0.50023245)
(0 -0.0019128665 0.50026557)
(0 -0.0023291625 0.50030949)
(0 -0.0028194315 0.5003681)
(0 -0.0034090486 0.50044735)
(0 -0.0041343899 0.50055671)
(0 -0.0050485344 0.50071127)
(0 -0.0062313477 0.50093661)
(0 -0.0078317131 0.50129439)
(0 -0.010125421 0.50191054)
(0 -0.013106587 0.50282512)
(0 -0.017426005 0.50608119)
(0 -0.038758793 0.52526811)
(0 -0.027894557 0.45021662)
(0 0.039888241 0.40982063)
(0 0.061428064 0.54930816)
(0 0.031983701 0.52188196)
(0 0.024355478 0.51008055)
(0 0.019193625 0.50658856)
(0 0.014977183 0.50452807)
(0 0.01200678 0.50327139)
(0 0.0097720086 0.50245838)
(0 0.0080366277 0.50190106)
(0 0.0066649911 0.50150868)
(0 0.0055568778 0.50122547)
(0 0.0046427534 0.50101671)
(0 0.0038738795 0.50086056)
(0 0.0032148602 0.50074265)
(0 0.002639361 0.50065326)
(0 0.0021273284 0.50058575)
(0 0.0016630852 0.50053548)
(0 0.0012340113 0.50049928)
(0 0.00082959943 0.50047496)
(0 0.00044075025 0.50046113)
(0 5.922233e-05 0.50045704)
(0 -0.0003228462 0.50046248)
(0 -0.00071336416 0.50047777)
(0 -0.0011207111 0.50050379)
(0 -0.0015542325 0.50054209)
(0 -0.0020248233 0.50059506)
(0 -0.002545682 0.50066619)
(0 -0.0031333419 0.50076056)
(0 -0.0038091332 0.50088556)
(0 -0.0046012959 0.50105211)
(0 -0.0055481849 0.50127675)
(0 -0.0067037809 0.50158561)
(0 -0.0081452851 0.5020208)
(0 -0.0099767869 0.50265074)
(0 -0.012371101 0.5036151)
(0 -0.015716188 0.50519921)
(0 -0.019872668 0.50785396)
(0 -0.025186342 0.51641224)
(0 -0.04741694 0.53912733)
(0 -0.03085359 0.4148805)
(0 0.034791543 0.36173022)
(0 0.06383882 0.55456337)
(0 0.03938032 0.53747135)
(0 0.03008334 0.51849261)
(0 0.024112583 0.51197729)
(0 0.019279599 0.50849943)
(0 0.015736205 0.50626423)
(0 0.012954242 0.50475542)
(0 0.010743746 0.5037044)
(0 0.008968026 0.5029561)
(0 0.0075140507 0.50241105)
(0 0.0063021546 0.50200676)
(0 0.0052745326 0.50170297)
(0 0.0043879273 0.50147274)
(0 0.0036095216 0.50129773)
(0 0.0029139319 0.50116525)
(0 0.0022810514 0.50106645)
(0 0.0016945196 0.50099519)
(0 0.0011405956 0.50094727)
(0 0.00060729932 0.50092001)
(0 8.372996e-05 0.50091194)
(0 -0.00044053366 0.50092264)
(0 -0.00097597292 0.50095275)
(0 -0.0015336582 0.50100397)
(0 -0.002125869 0.50107929)
(0 -0.0027668114 0.5011833)
(0 -0.0034735244 0.50132271)
(0 -0.004267086 0.5015072)
(0 -0.0051742761 0.50175077)
(0 -0.006229874 0.50207389)
(0 -0.0074797482 0.50250704)
(0 -0.0089861306 0.50309722)
(0 -0.010836392 0.50391914)
(0 -0.013137092 0.50508917)
(0 -0.016023888 0.50680682)
(0 -0.019899352 0.50946745)
(0 -0.024731378 0.51427485)
(0 -0.031113235 0.52824694)
(0 -0.050319502 0.54407204)
(0 -0.028438278 0.37238142)
(0 0.027424215 0.31484353)
(0 0.062314744 0.55024075)
(0 0.044614421 0.55146762)
(0 0.033981954 0.52748812)
(0 0.027464005 0.51772241)
(0 0.022455134 0.51291979)
(0 0.018636788 0.50973138)
(0 0.015528162 0.50749257)
(0 0.013006274 0.50589986)
(0 0.010942296 0.50474682)
(0 0.0092248476 0.50389605)
(0 0.0077750746 0.50325908)
(0 0.0065329904 0.502777)
(0 0.0054521689 0.50240961)
(0 0.0044965608 0.5021291)
(0 0.0036376998 0.50191602)
(0 0.0028526409 0.50175669)
(0 0.002122444 0.50164153)
(0 0.0014310142 0.50156397)
(0 0.00076419053 0.50151979)
(0 0.00010900766 0.50150668)
(0 -0.00054696583 0.50152398)
(0 -0.0012162298 0.50157268)
(0 -0.0019119313 0.50165547)
(0 -0.0026485493 0.50177704)
(0 -0.003442664 0.50194453)
(0 -0.0043139034 0.50216836)
(0 -0.0052861529 0.50246339)
(0 -0.0063891643 0.5028509)
(0 -0.0076607139 0.50336153)
(0 -0.009149066 0.50403991)
(0 -0.010916658 0.50495258)
(0 -0.013050327 0.50620236)
(0 -0.015653871 0.50794413)
(0 -0.018815142 0.51040427)
(0 -0.022895648 0.51405478)
(0 -0.028176863 0.52114542)
(0 -0.035706894 0.53932642)
(0 -0.050476394 0.54155567)
(0 -0.024086173 0.33055953)
(0 0.019837858 0.27519818)
(0 0.057989846 0.53974677)
(0 0.0473637 0.56256473)
(0 0.036477533 0.53660452)
(0 0.029636069 0.52350707)
(0 0.024676109 0.51740322)
(0 0.020774272 0.51336292)
(0 0.017509863 0.51044444)
(0 0.01481438 0.5083241)
(0 0.012566892 0.50676171)
(0 0.010665875 0.50559268)
(0 0.0090393327 0.50470789)
(0 0.0076296486 0.50403242)
(0 0.0063909602 0.50351404)
(0 0.0052868074 0.50311604)
(0 0.0042877203 0.50281237)
(0 0.0033694695 0.5025845)
(0 0.0025117175 0.50241935)
(0 0.0016969396 0.50230791)
(0 0.00090954799 0.50224433)
(0 0.00013516491 0.50222539)
(0 -0.00064004371 0.5022502)
(0 -0.0014299835 0.50232012)
(0 -0.0022492097 0.50243887)
(0 -0.0031136185 0.5026129)
(0 -0.0040411978 0.502852)
(0 -0.0050529236 0.5031703)
(0 -0.0061738623 0.50358781)
(0 -0.0074345644 0.5041327)
(0 -0.0088729591 0.50484492)
(0 -0.010536313 0.50578147)
(0 -0.012482921 0.50702462)
(0 -0.014792997 0.50869757)
(0 -0.017568328 0.51098192)
(0 -0.020862893 0.51412005)
(0 -0.024972966 0.51873025)
(0 -0.030507924 0.52822992)
(0 -0.038629338 0.54872416)
(0 -0.048508352 0.53398551)
(0 -0.019066872 0.29394129)
(0 0.013083125 0.2425555)
(0 0.051798614 0.525201)
(0 0.047709239 0.57024849)
(0 0.037756923 0.54552486)
(0 0.030850332 0.52928854)
(0 0.026073513 0.52180154)
(0 0.022238036 0.51699777)
(0 0.01895383 0.51347329)
(0 0.016193711 0.51086475)
(0 0.013849869 0.50891223)
(0 0.011835808 0.50743243)
(0 0.010088942 0.50630031)
(0 0.0085566488 0.50542813)
(0 0.0071961779 0.50475374)
(0 0.0059727291 0.50423277)
(0 0.004857484 0.5038333)
(0 0.0038262544 0.50353234)
(0 0.002858368 0.50331354)
(0 0.0019357368 0.50316554)
(0 0.0010420769 0.50308094)
(0 0.0001622445 0.50305564)
(0 -0.00071838828 0.50308851)
(0 -0.0016145207 0.50318126)
(0 -0.0025414583 0.50333863)
(0 -0.0035157671 0.50356874)
(0 -0.0045559524 0.50388389)
(0 -0.0056832533 0.50430167)
(0 -0.0069225848 0.50484672)
(0 -0.0083036531 0.50555328)
(0 -0.00986253 0.50646916)
(0 -0.011643412 0.50766149)
(0 -0.013698545 0.50922514)
(0 -0.016097439 0.51129808)
(0 -0.018935391 0.51407966)
(0 -0.022243773 0.51783872)
(0 -0.026263393 0.52346798)
(0 -0.031847201 0.53537528)
(0 -0.03975825 0.55589707)
(0 -0.044893404 0.52282539)
(0 -0.014090549 0.26264903)
(0 0.0077700502 0.21554194)
(0 0.044825552 0.5080107)
(0 0.046255197 0.5743809)
(0 0.03803511 0.55375118)
(0 0.031287774 0.5349604)
(0 0.026768304 0.52603014)
(0 0.023116732 0.52053823)
(0 0.019920906 0.51648799)
(0 0.01718227 0.51344135)
(0 0.01481361 0.51113031)
(0 0.012746492 0.50935915)
(0 0.010928866 0.5079906)
(0 0.0093148288 0.50692704)
(0 0.0078664108 0.50609856)
(0 0.0065518681 0.50545456)
(0 0.0053442441 0.50495818)
(0 0.004220428 0.50458266)
(0 0.0031602889 0.50430873)
(0 0.0021459243 0.50412296)
(0 0.0011610095 0.50401653)
(0 0.00019022948 0.50398457)
(0 -0.00078127079 0.5040257)
(0 -0.0017684153 0.50414197)
(0 -0.0027866588 0.50433901)
(0 -0.0038525725 0.50462649)
(0 -0.0049844205 0.50501891)
(0 -0.0062028216 0.50553689)
(0 -0.0075315148 0.50620902)
(0 -0.0089981841 0.50707462)
(0 -0.010635626 0.50818787)
(0 -0.012483422 0.50962401)
(0 -0.014586706 0.51148808)
(0 -0.017001678 0.51392896)
(0 -0.019810002 0.51715541)
(0 -0.023027646 0.52148047)
(0 -0.026877116 0.52818294)
(0 -0.032349071 0.5422205)
(0 -0.039401628 0.56050281)
(0 -0.040327394 0.50908718)
(0 -0.0097078936 0.23586236)
(0 0.0040048742 0.1935575)
(0 0.037899181 0.48948816)
(0 0.04368664 0.57524025)
(0 0.03756367 0.56084496)
(0 0.031154097 0.54036101)
(0 0.026914143 0.53001122)
(0 0.02351416 0.5239016)
(0 0.020480445 0.51941235)
(0 0.017826975 0.51598753)
(0 0.015489788 0.51335861)
(0 0.013418554 0.51132377)
(0 0.011571922 0.50973714)
(0 0.0099117299 0.50849408)
(0 0.0084057414 0.50751891)
(0 0.0070261271 0.50675628)
(0 0.0057486151 0.50616546)
(0 0.0045519229 0.50571659)
(0 0.0034171311 0.50538806)
(0 0.0023271252 0.50516465)
(0 0.0012660891 0.50503637)
(0 0.00021904831 0.50499765)
(0 -0.00082858466 0.50504691)
(0 -0.0018914624 0.5051865)
(0 -0.0029846727 0.50542283)
(0 -0.0041242384 0.50576685)
(0 -0.0053275732 0.50623493)
(0 -0.0066139978 0.50685018)
(0 -0.0080053223 0.50764439)
(0 -0.0095264032 0.50866092)
(0 -0.01120584 0.50995885)
(0 -0.013077499 0.51161949)
(0 -0.0151789 0.5137555)
(0 -0.017552679 0.51652265)
(0 -0.020262991 0.52013199)
(0 -0.023317702 0.52496372)
(0 -0.026958759 0.53274041)
(0 -0.032200321 0.54839093)
(0 -0.037992539 0.56254494)
(0 -0.035413596 0.49379768)
(0 -0.0062002255 0.21325837)
(0 0.0015510018 0.17613493)
(0 0.031499186 0.47076321)
(0 0.040531757 0.57338608)
(0 0.036558476 0.5665983)
(0 0.030636992 0.54537825)
(0 0.026671415 0.53370434)
(0 0.023542937 0.52703196)
(0 0.020710353 0.52218806)
(0 0.018183001 0.51845083)
(0 0.01591741 0.5155506)
(0 0.013879152 0.5132852)
(0 0.012036791 0.511504)
(0 0.010360027 0.51009798)
(0 0.008822601 0.50898763)
(0 0.0074009819 0.50811422)
(0 0.0060740533 0.50743422)
(0 0.0048228395 0.50691547)
(0 0.0036300992 0.50653451)
(0 0.002479953 0.50627475)
(0 0.0013575211 0.50612524)
(0 0.00024858079 0.50607986)
(0 -0.00086078373 0.50613686)
(0 -0.001984548 0.50629884)
(0 -0.0031370192 0.50657281)
(0 -0.0043332399 0.50697078)
(0 -0.0055893217 0.50751058)
(0 -0.0069228122 0.50821725)
(0 -0.0083531016 0.50912499)
(0 -0.0099017604 0.51028012)
(0 -0.011592798 0.5117452)
(0 -0.013453941 0.51360558)
(0 -0.015515256 0.51597872)
(0 -0.017807371 0.51902319)
(0 -0.020377235 0.52294999)
(0 -0.023232088 0.52823599)
(0 -0.026652294 0.53704084)
(0 -0.031562221 0.55365933)
(0 -0.03590194 0.5623102)
(0 -0.030551565 0.47789816)
(0 -0.003590541 0.19461733)
(0 7.6603786e-05 0.16252679)
(0 0.025869847 0.4526025)
(0 0.037158779 0.5694339)
(0 0.035190472 0.57098867)
(0 0.029876633 0.54996263)
(0 0.026173147 0.53711353)
(0 0.023305432 0.52991194)
(0 0.020687135 0.52478369)
(0 0.018307735 0.52079757)
(0 0.016138849 0.51767336)
(0 0.014159181 0.51521251)
(0 0.012345873 0.51326283)
(0 0.010675845 0.51171311)
(0 0.0091284805 0.51048163)
(0 0.0076845228 0.50950763)
(0 0.0063261629 0.50874573)
(0 0.0050369615 0.50816219)
(0 0.0038016291 0.50773224)
(0 0.0026058171 0.5074383)
(0 0.0014358847 0.50726869)
(0 0.00027866603 0.50721688)
(0 -0.00087877767 0.50728101)
(0 -0.0020494381 0.50746384)
(0 -0.0032465355 0.50777288)
(0 -0.0044838266 0.50822087)
(0 -0.0057758228 0.50882674)
(0 -0.0071380217 0.50961687)
(0 -0.0085871529 0.51062715)
(0 -0.010141361 0.51190583)
(0 -0.011820133 0.51351762)
(0 -0.013645263 0.51555019)
(0 -0.015639969 0.51812329)
(0 -0.017824888 0.52139512)
(0 -0.020232402 0.52558011)
(0 -0.022876092 0.53128312)
(0 -0.026073828 0.5410317)
(0 -0.030565351 0.55793481)
(0 -0.033423115 0.56019382)
(0 -0.025993085 0.46207761)
(0 -0.0017645457 0.17947951)
(0 -0.00071811906 0.15190968)
(0 0.021107338 0.43543787)
(0 0.033818054 0.5639327)
(0 0.033602701 0.5740889)
(0 0.028973691 0.55409347)
(0 0.025518894 0.54026303)
(0 0.022885278 0.53255203)
(0 0.020477744 0.52719125)
(0 0.018254184 0.52301168)
(0 0.016195187 0.51970732)
(0 0.014290024 0.51708489)
(0 0.01252293 0.51499297)
(0 0.010877006 0.51331965)
(0 0.0093366155 0.51198232)
(0 0.0078864709 0.51091918)
(0 0.0065119698 0.51008386)
(0 0.0051992334 0.50944166)
(0 0.0039350312 0.508967)
(0 0.0027067027 0.50864164)
(0 0.0015020322 0.50845342)
(0 0.00030911149 0.50839553)
(0 -0.00088381291 0.50846602)
(0 -0.0020885399 0.50866777)
(0 -0.0033170014 0.5090086)
(0 -0.0045814818 0.50950179)
(0 -0.0058947352 0.51016696)
(0 -0.0072701038 0.51103135)
(0 -0.0087216286 0.51213184)
(0 -0.010264127 0.51351773)
(0 -0.01191292 0.51525488)
(0 -0.013684461 0.51743193)
(0 -0.015595908 0.52016903)
(0 -0.017659732 0.5236221)
(0 -0.019897407 0.52801683)
(0 -0.022335103 0.53411124)
(0 -0.025314295 0.54468199)
(0 -0.029324866 0.561208)
(0 -0.030787609 0.55659104)
(0 -0.021891726 0.44677433)
(0 -0.00056390548 0.16725773)
(0 -0.001070258 0.14358629)
(0 0.017202518 0.41948349)
(0 0.03066518 0.55734177)
(0 0.031913081 0.57602018)
(0 0.028002233 0.55776313)
(0 0.024782193 0.54317869)
(0 0.022348926 0.53497494)
(0 0.020137817 0.52941665)
(0 0.018068118 0.52508914)
(0 0.016123449 0.52164307)
(0 0.014301185 0.51888985)
(0 0.012591169 0.51668035)
(0 0.010981537 0.51490303)
(0 0.0094608444 0.51347516)
(0 0.0080173096 0.51233471)
(0 0.0066392712 0.51143495)
(0 0.0053152866 0.51074076)
(0 0.0040341618 0.51022615)
(0 0.0027849667 0.5098725)
(0 0.0015569943 0.50966739)
(0 0.00033970217 0.50960382)
(0 -0.00087735949 0.50967979)
(0 -0.0021046774 0.50989827)
(0 -0.0033527886 0.51026725)
(0 -0.0046324228 0.51080031)
(0 -0.0059545357 0.51151744)
(0 -0.0073303425 0.51244632)
(0 -0.0087713198 0.51362427)
(0 -0.010289215 0.51510099)
(0 -0.011895673 0.51694265)
(0 -0.013602575 0.51923799)
(0 -0.015421926 0.52210619)
(0 -0.017359716 0.5257002)
(0 -0.019430552 0.53026714)
(0 -0.021678066 0.53673205)
(0 -0.024446915 0.54797162)
(0 -0.02794246 0.56352281)
(0 -0.028165986 0.55186362)
(0 -0.01832165 0.43225302)
(0 0.00016980608 0.15740599)
(0 -0.0011533737 0.13700521)
(0 0.014077896 0.40481973)
(0 0.027780209 0.55003546)
(0 0.030209653 0.57693)
(0 0.027014668 0.56097807)
(0 0.024016027 0.5458845)
(0 0.021748248 0.53720765)
(0 0.019712542 0.531473)
(0 0.017787871 0.5270332)
(0 0.015955735 0.52347801)
(0 0.014219135 0.52062098)
(0 0.012572086 0.51831616)
(0 0.011006644 0.51645297)
(0 0.0095147534 0.51494916)
(0 0.008087598 0.51374297)
(0 0.0067161015 0.51278775)
(0 0.0053910403 0.51204837)
(0 0.0041031416 0.51149872)
(0 0.0028431601 0.51112007)
(0 0.0016018988 0.51089987)
(0 0.00037021009 0.51083105)
(0 -0.00086101006 0.5109116)
(0 -0.0021008941 0.51114448)
(0 -0.0033585569 0.5115378)
(0 -0.0046431751 0.51210521)
(0 -0.0059639553 0.51286684)
(0 -0.007330107 0.51385046)
(0 -0.0087507666 0.51509341)
(0 -0.010234961 0.51664529)
(0 -0.011791215 0.51857204)
(0 -0.01342767 0.52096184)
(0 -0.015152167 0.52393202)
(0 -0.016965872 0.52763308)
(0 -0.018880415 0.53234472)
(0 -0.020959538 0.53915967)
(0 -0.023528886 0.55089411)
(0 -0.0265006 0.56496183)
(0 -0.025669495 0.5463294)
(0 -0.015294494 0.41866168)
(0 0.00057471482 0.1494615)
(0 -0.0010857963 0.13172669)
(0 0.011622826 0.39143793)
(0 0.025190975 0.54230748)
(0 0.028551226 0.57697264)
(0 0.026044387 0.56375797)
(0 0.023255753 0.5484033)
(0 0.021121762 0.53927861)
(0 0.019237361 0.5333777)
(0 0.017444665 0.52885181)
(0 0.0157191 0.52521425)
(0 0.014066868 0.52227634)
(0 0.01248488 0.5198956)
(0 0.010968106 0.51796277)
(0 0.0095111044 0.5163964)
(0 0.0081074731 0.5151353)
(0 0.0067503239 0.51413322)
(0 0.0054323833 0.51335524)
(0 0.0041461249 0.5127754)
(0 0.0028838806 0.512375)
(0 0.0016379019 0.51214153)
(0 0.00040040335 0.51206791)
(0 -0.00083639306 0.51215212)
(0 -0.0020802852 0.5123971)
(0 -0.0033390017 0.51281094)
(0 -0.0046202314 0.51340728)
(0 -0.0059315452 0.51420616)
(0 -0.0072803304 0.51523519)
(0 -0.0086736656 0.51653143)
(0 -0.010118259 0.51814406)
(0 -0.011620089 0.52013841)
(0 -0.013184372 0.52260169)
(0 -0.014815775 0.5256489)
(0 -0.016512231 0.52942991)
(0 -0.018285705 0.53426773)
(0 -0.020220146 0.54141072)
(0 -0.022601756 0.55345711)
(0 -0.025060349 0.56562956)
(0 -0.023360817 0.54025428)
(0 -0.012780634 0.40606221)
(0 0.00075992779 0.14303002)
(0 -0.00094396584 0.12740515)
(0 0.0097185328 0.37927204)
(0 0.022894024 0.53437828)
(0 0.026972993 0.5762932)
(0 0.025110127 0.56613007)
(0 0.0225226 0.5507558)
(0 0.02049613 0.54121551)
(0 0.018738721 0.53515037)
(0 0.017062985 0.530556)
(0 0.015435604 0.52685712)
(0 0.013863746 0.52385721)
(0 0.012346174 0.52141696)
(0 0.010879926 0.51942862)
(0 0.0094614768 0.51781158)
(0 0.0080863129 0.51650538)
(0 0.0067493371 0.51546434)
(0 0.005444936 0.51465394)
(0 0.0041671222 0.51404849)
(0 0.0029096567 0.51362948)
(0 0.0016661347 0.51338449)
(0 0.00043005468 0.51330649)
(0 -0.0008051017 0.51339346)
(0 -0.0020458644 0.51364831)
(0 -0.0032986575 0.51407905)
(0 -0.0045697929 0.51469918)
(0 -0.0058653615 0.5155285)
(0 -0.0071911476 0.51659432)
(0 -0.0085524802 0.51793323)
(0 -0.0099541634 0.51959377)
(0 -0.01140018 0.52164047)
(0 -0.012893562 0.52415938)
(0 -0.014436698 0.52726305)
(0 -0.016025751 0.53110358)
(0 -0.017675543 0.53605658)
(0 -0.019488062 0.54350275)
(0 -0.021693566 0.55567805)
(0 -0.023663717 0.5656361)
(0 -0.021268013 0.53384979)
(0 -0.010727561 0.39445413)
(0 0.00080576069 0.13777818)
(0 -0.0007753722 0.12377952)
(0 0.0082523636 0.36822516)
(0 0.020869083 0.52640735)
(0 0.025492844 0.57501952)
(0 0.024220681 0.56812397)
(0 0.021827716 0.55295896)
(0 0.019888503 0.54304302)
(0 0.018235391 0.53681077)
(0 0.016661288 0.53215823)
(0 0.015122616 0.52841388)
(0 0.013625567 0.52536706)
(0 0.012169943 0.52288081)
(0 0.010754174 0.52084885)
(0 0.0093760689 0.51919142)
(0 0.008032531 0.51784878)
(0 0.0067198838 0.51677586)
(0 0.0054338875 0.51593865)
(0 0.0041698738 0.51531182)
(0 0.0029228639 0.51487708)
(0 0.0016876644 0.5146222)
(0 0.00045894897 0.51454021)
(0 -0.00076863988 0.51462911)
(0 -0.0020004634 0.51489176)
(0 -0.0032417543 0.51533604)
(0 -0.0044975866 0.51597523)
(0 -0.00577275 0.51682883)
(0 -0.0070716594 0.51792372)
(0 -0.0083982018 0.51929593)
(0 -0.0097556725 0.52099328)
(0 -0.011146556 0.52307944)
(0 -0.012572329 0.52563923)
(0 -0.014033864 0.52878307)
(0 -0.015526856 0.53266878)
(0 -0.017070693 0.53773153)
(0 -0.01878152 0.54545222)
(0 -0.020821868 0.55757935)
(0 -0.022337265 0.56508636)
(0 -0.019396188 0.52727794)
(0 -0.0090725053 0.38379697)
(0 0.00076871916 0.1334336)
(0 -0.00060800188 0.12065954)
(0 0.0071251269 0.35818843)
(0 0.019088134 0.51850685)
(0 0.024116649 0.57326063)
(0 0.023378507 0.56976901)
(0 0.021175556 0.55502569)
(0 0.019308966 0.54478157)
(0 0.017740072 0.53837722)
(0 0.016253001 0.53367111)
(0 0.014793392 0.52989265)
(0 0.013364853 0.52681064)
(0 0.011967615 0.52428923)
(0 0.010600984 0.52222346)
(0 0.0092636285 0.52053428)
(0 0.007953477 0.51916262)
(0 0.006667944 0.51806403)
(0 0.0054038967 0.51720497)
(0 0.0041577704 0.51656051)
(0 0.0029256707 0.51611267)
(0 0.0017034698 0.51584937)
(0 0.00048688985 0.51576376)
(0 -0.00072838416 0.51585384)
(0 -0.0019466642 0.51612241)
(0 -0.0031721228 0.5165772)
(0 -0.0044087493 0.51723123)
(0 -0.0056602191 0.51810367)
(0 -0.0069298079 0.51922089)
(0 -0.0082202488 0.52061835)
(0 -0.0095336845 0.52234317)
(0 -0.010871528 0.52445821)
(0 -0.012234215 0.52704706)
(0 -0.013621723 0.53021866)
(0 -0.01503039 0.53414039)
(0 -0.01648516 0.53931108)
(0 -0.018111298 0.54727349)
(0 -0.019996375 0.55918548)
(0 -0.021095453 0.56407516)
(0 -0.017736096 0.52065946)
(0 -0.0077507556 0.37402789)
(0 0.00068721515 0.12978098)
(0 -0.00045677591 0.11791)
(0 0.0062542391 0.34905239)
(0 0.017521039 0.51075333)
(0 0.022842514 0.57110787)
(0 0.02258224 0.57109322)
(0 0.020566288 0.55696541)
(0 0.018762559 0.54644729)
(0 0.017260877 0.53986587)
(0 0.01584756 0.53510653)
(0 0.014457768 0.53130158)
(0 0.013091285 0.52819325)
(0 0.01174832 0.52564517)
(0 0.010428664 0.52355348)
(0 0.0091314867 0.5218397)
(0 0.0078554221 0.52044528)
(0 0.0065986966 0.51932629)
(0 0.0053590472 0.51844969)
(0 0.0041338117 0.5177909)
(0 0.0029200089 0.51733224)
(0 0.0017144276 0.51706183)
(0 0.00051370491 0.51697292)
(0 -0.00068555991 0.51706352)
(0 -0.0018867583 0.51733637)
(0 -0.0030931414 0.517799)
(0 -0.0043077698 0.51846421)
(0 -0.0055333872 0.51935077)
(0 -0.0067723458 0.52048461)
(0 -0.0080264835 0.52190061)
(0 -0.0092970964 0.52364524)
(0 -0.010584879 0.52578064)
(0 -0.01188963 0.52838937)
(0 -0.013210924 0.5315797)
(0 -0.014546648 0.53553245)
(0 -0.015927653 0.54081123)
(0 -0.017482712 0.54897864)
(0 -0.019221089 0.56052113)
(0 -0.019943729 0.56268525)
(0 -0.01627046 0.51408191)
(0 -0.0067010999 0.36507343)
(0 0.00058642752 0.12665381)
(0 -0.00032815998 0.11543664)
(0 0.005573962 0.34071319)
(0 0.016138851 0.5031969)
(0 0.021664154 0.56863701)
(0 0.02182849 0.57212268)
(0 0.019997504 0.55878474)
(0 0.018250841 0.54805237)
(0 0.016802534 0.54129045)
(0 0.015451311 0.53647524)
(0 0.014122821 0.53264843)
(0 0.012812165 0.52952028)
(0 0.01151919 0.52695206)
(0 0.010243886 0.52484069)
(0 0.0089856606 0.52310807)
(0 0.0077436072 0.52169603)
(0 0.0065165334 0.52056108)
(0 0.0053028428 0.51967057)
(0 0.0041005954 0.51900027)
(0 0.0029075635 0.51853279)
(0 0.0017213087 0.51825641)
(0 0.0005392494 0.51816449)
(0 -0.00064122947 0.51825504)
(0 -0.0018227293 0.51853073)
(0 -0.0030077172 0.51899894)
(0 -0.0041984763 0.5196722)
(0 -0.005396989 0.52056893)
(0 -0.006604878 0.52171463)
(0 -0.0078233092 0.52314366)
(0 -0.009052986 0.52490197)
(0 -0.010294162 0.5270511)
(0 -0.011546314 0.52967279)
(0 -0.012808985 0.53287568)
(0 -0.014082293 0.53685769)
(0 -0.015402846 0.54224534)
(0 -0.016897213 0.55057762)
(0 -0.018496099 0.56161008)
(0 -0.018881369 0.5609872)
(0 -0.01497844 0.50760684)
(0 -0.005868938 0.35685701)
(0 0.00048210124 0.12392541)
(0 -0.00022348625 0.11317506)
(0 0.0050338119 0.3330759)
(0 0.01491547 0.49586851)
(0 0.020573312 0.56591052)
(0 0.021113101 0.57288132)
(0 0.019465457 0.56048813)
(0 0.017773119 0.5496056)
(0 0.016367364 0.54266233)
(0 0.015068267 0.53778673)
(0 0.013793462 0.53394031)
(0 0.012532859 0.53079693)
(0 0.011285675 0.52821347)
(0 0.010051897 0.52608724)
(0 0.0088309929 0.52434035)
(0 0.0076223278 0.52291487)
(0 0.0064251076 0.52176758)
(0 0.0052382327 0.52086619)
(0 0.0040603288 0.52018678)
(0 0.0028897779 0.51971214)
(0 0.0017247801 0.51943077)
(0 0.00056340859 0.51933609)
(0 -0.00059629026 0.51942613)
(0 -0.0017562532 0.51970347)
(0 -0.0029182944 0.52017535)
(0 -0.0040840591 0.52085405)
(0 -0.0052549221 0.5217577)
(0 -0.0064319461 0.52291139)
(0 -0.0076158112 0.52434908)
(0 -0.0088068318 0.52611627)
(0 -0.010005033 0.5282741)
(0 -0.011209797 0.53090372)
(0 -0.012420914 0.53411535)
(0 -0.013641204 0.5381272)
(0 -0.014912476 0.54362414)
(0 -0.01635369 0.55207831)
(0 -0.017819051 0.56247439)
(0 -0.01790384 0.55904009)
(0 -0.013838523 0.50127583)
(0 -0.0052076004 0.34930358)
(0 0.00038344333 0.12150099)
(0 -0.00014122605 0.11108188)
(0 0.0045961313 0.32605593)
(0 0.013828206 0.4887855)
(0 0.019561305 0.56297997)
(0 0.020431931 0.57339094)
(0 0.018965913 0.56207848)
(0 0.017327386 0.55111292)
(0 0.01595605 0.54399065)
(0 0.014700737 0.53904918)
(0 0.013472942 0.53518357)
(0 0.012257186 0.53202803)
(0 0.011051838 0.52943292)
(0 0.0098567396 0.52729548)
(0 0.0086713066 0.52553788)
(0 0.0074950403 0.52410225)
(0 0.0063274034 0.52294558)
(0 0.0051676554 0.5220358)
(0 0.0040148551 0.52134922)
(0 0.0028678679 0.52086885)
(0 0.001725412 0.5205833)
(0 0.00058609858 0.52048608)
(0 -0.00055148002 0.52057522)
(0 -0.0016887125 0.52085324)
(0 -0.0028268795 0.52132723)
(0 -0.0039671148 0.52200927)
(0 -0.0051103199 0.5229172)
(0 -0.0062571399 0.52407583)
(0 -0.007407921 0.52551876)
(0 -0.0085627457 0.52729122)
(0 -0.0097215634 0.52945405)
(0 -0.010883827 0.53208813)
(0 -0.012049774 0.53530656)
(0 -0.013225196 0.5393504)
(0 -0.014456265 0.54495591)
(0 -0.015849471 0.55348679)
(0 -0.01718625 0.56313406)
(0 -0.017004546 0.55689288)
(0 -0.012830255 0.49511569)
(0 -0.0046785405 0.34234253)
(0 0.00029528437 0.11931079)
(0 -7.8469784e-05 0.10912809)
(0 0.0042335027 0.31957924)
(0 0.012857771 0.48195583)
(0 0.018619902 0.55988812)
(0 0.019781256 0.57367149)
(0 0.018494685 0.56355763)
(0 0.016910971 0.55257802)
(0 0.015568228 0.54528258)
(0 0.014349833 0.54026947)
(0 0.013163281 0.53638376)
(0 0.011987769 0.53321796)
(0 0.01082063 0.53061375)
(0 0.0096614596 0.5284678)
(0 0.0085095602 0.52670219)
(0 0.0073644747 0.52525899)
(0 0.0062258158 0.52409527)
(0 0.0050930929 0.5231791)
(0 0.0039656886 0.52248695)
(0 0.0028428434 0.522002)
(0 0.0017236873 0.52171297)
(0 0.00060726563 0.52161341)
(0 -0.00050738768 0.52170136)
(0 -0.0016212182 0.52197928)
(0 -0.00273508 0.52245413)
(0 -0.0038497056 0.52313783)
(0 -0.0049656373 0.524048)
(0 -0.0060832206 0.52520919)
(0 -0.0072025867 0.52665479)
(0 -0.0083237037 0.52842985)
(0 -0.0094465494 0.53059507)
(0 -0.01057076 0.53323141)
(0 -0.011697169 0.5364561)
(0 -0.012834632 0.54053502)
(0 -0.014032637 0.54624677)
(0 -0.015381066 0.55480767)
(0 -0.016593428 0.56360707)
(0 -0.016176034 0.55458596)
(0 -0.011935136 0.48914242)
(0 -0.0042508215 0.33590923)
(0 0.00021960829 0.11730422)
(0 -3.1850693e-05 0.10729409)
(0 0.0039263564 0.31358172)
(0 0.011987966 0.47538104)
(0 0.017741744 0.55667061)
(0 0.019157936 0.57374135)
(0 0.018047921 0.56492687)
(0 0.016520977 0.55400285)
(0 0.015202903 0.54654357)
(0 0.014015848 0.54145335)
(0 0.012865607 0.53754568)
(0 0.011726321 0.53437061)
(0 0.010594122 0.53175903)
(0 0.009468295 0.52960653)
(0 0.0083479954 0.52783493)
(0 0.0072327464 0.52638614)
(0 0.0061222328 0.52521718)
(0 0.0050161297 0.52429619)
(0 0.0039140543 0.52359977)
(0 0.0028155316 0.52311118)
(0 0.0017200123 0.52281922)
(0 0.00062688462 0.5227175)
(0 -0.00046446734 0.52280404)
(0 -0.0015546385 0.52308126)
(0 -0.0026441491 0.52355601)
(0 -0.0037334247 0.52424008)
(0 -0.0048227436 0.52515091)
(0 -0.0059122457 0.52631289)
(0 -0.0070019388 0.52775928)
(0 -0.0080917607 0.52953505)
(0 -0.009181784 0.53170094)
(0 -0.010271903 0.53433829)
(0 -0.011363652 0.53756979)
(0 -0.012468899 0.54168729)
(0 -0.013639267 0.54750104)
(0 -0.014944668 0.55604436)
(0 -0.016036254 0.56390947)
(0 -0.015410805 0.55215261)
(0 -0.011136967 0.4833643)
(0 -0.0039002057 0.32994569)
(0 0.00015662036 0.11544499)
(0 1.9136961e-06 0.10556627)
(0 0.0036609298 0.30800825)
(0 0.011205264 0.46905844)
(0 0.016920477 0.5533574)
(0 0.01855943 0.57361756)
(0 0.017622248 0.56618731)
(0 0.016154541 0.55538815)
(0 0.014858734 0.5477777)
(0 0.013698543 0.54260558)
(0 0.012580421 0.53867346)
(0 0.011473879 0.5354894)
(0 0.010373713 0.53287158)
(0 0.0092788423 0.53071388)
(0 0.0081882706 0.52893776)
(0 0.0071014607 0.52748485)
(0 0.0060181153 0.52631204)
(0 0.0049380109 0.52538748)
(0 0.0038609281 0.52468779)
(0 0.0027866022 0.52419631)
(0 0.0017147273 0.52390188)
(0 0.00064495661 0.52379816)
(0 -0.0004230541 0.52388315)
(0 -0.0014896287 0.52415921)
(0 -0.0025550329 0.52463314)
(0 -0.0036194639 0.5253166)
(0 -0.0046830135 0.52622694)
(0 -0.0057456896 0.52738844)
(0 -0.0068074443 0.52883429)
(0 -0.0078682434 0.53060953)
(0 -0.0089282915 0.53277502)
(0 -0.009987787 0.53541289)
(0 -0.011049041 0.53865251)
(0 -0.012126765 0.54281207)
(0 -0.013273458 0.54872158)
(0 -0.014536497 0.55719945)
(0 -0.01551065 0.56405563)
(0 -0.014701796 0.54962031)
(0 -0.010421864 0.47778418)
(0 -0.0036080844 0.32440057)
(0 0.00010549034 0.11370722)
(0 2.5743297e-05 0.10393474)
(0 0.0034276276 0.30281161)
(0 0.01049837 0.46298252)
(0 0.016150714 0.54997378)
(0 0.017983738 0.57331602)
(0 0.017214809 0.56734009)
(0 0.015808987 0.55673378)
(0 0.014534227 0.5489879)
(0 0.013397345 0.54373004)
(0 0.012307791 0.53977061)
(0 0.01123099 0.5365773)
(0 0.010160285 0.5339539)
(0 0.0090941964 0.53179192)
(0 0.0080315771 0.53001231)
(0 0.0069718074 0.52855635)
(0 0.0059145707 0.52738074)
(0 0.0048596974 0.52645353)
(0 0.0038070758 0.52575136)
(0 0.002756591 0.52525758)
(0 0.0017081169 0.52496108)
(0 0.00066150606 0.52485549)
(0 -0.00038338054 0.52493883)
(0 -0.0014266626 0.52521342)
(0 -0.0024684177 0.52568601)
(0 -0.0035086789 0.52636818)
(0 -0.0045474131 0.52727721)
(0 -0.0055845529 0.52843733)
(0 -0.0066200431 0.52988178)
(0 -0.0076539147 0.53165573)
(0 -0.0086865222 0.53382028)
(0 -0.0097183938 0.53645874)
(0 -0.010752671 0.53970827)
(0 -0.011806647 0.54391308)
(0 -0.012932417 0.54991011)
(0 -0.014152998 0.55827491)
(0 -0.015012959 0.56405852)
(0 -0.01404264 0.54701188)
(0 -0.0097780954 0.47240122)
(0 -0.0033604106 0.31922883)
(0 6.4859123e-05 0.11207251)
(0 4.2087607e-05 0.10239176)
(0 0.0032197672 0.29795131)
(0 0.0098578202 0.45714606)
(0 0.015427913 0.54654121)
(0 0.017429304 0.57285166)
(0 0.016823243 0.56838656)
(0 0.015481895 0.55803906)
(0 0.014227849 0.55017622)
(0 0.013111488 0.54482991)
(0 0.012047496 0.5408401)
(0 0.010997846 0.53763692)
(0 0.0099543386 0.53500824)