/*--------------------------------*- C++ -*----------------------------------*\
  =========                 |
  \\      /  F ield         | OpenFOAM: The Open Source CFD Toolbox
   \\    /   O peration     | Website:  https://openfoam.org
    \\  /    A nd           | Version:  10
     \\/     M anipulation  |
\*---------------------------------------------------------------------------*/
FoamFile
{
    format      ascii;
    class       surfaceScalarField;
    location    "0.12";
    object      phi;
}
// * * * * * * * * * * * * * * * * * * * * * * * * * * * * * * * * * * * * * //

dimensions      [1 0 -1 0 0 0 0];

internalField   nonuniform List<scalar> 
7860
(
3.9892266e-08
5.2881576e-07
1.2189868e-08
5.9641018e-07
7.4249516e-09
5.7347265e-07
5.4960515e-09
5.7063659e-07
4.1115045e-09
5.7009221e-07
3.1976522e-09
5.6962149e-07
2.5557322e-09
5.6934954e-07
2.0760504e-09
5.6918729e-07
1.7062715e-09
5.6907738e-07
1.4138647e-09
5.6899999e-07
1.1770287e-09
5.6894442e-07
9.8099508e-10
5.6890361e-07
8.1541512e-10
5.6887315e-07
6.7279349e-10
5.6885018e-07
5.4755191e-10
5.688328e-07
4.3542467e-10
5.6881968e-07
3.3305315e-10
5.6880992e-07
2.377049e-10
5.688029e-07
1.470718e-10
5.6879818e-07
5.9117447e-11
5.687955e-07
-2.8046258e-11
5.6879471e-07
-1.1626645e-10
5.6879577e-07
-2.0745556e-10
5.6879874e-07
-3.0369688e-10
5.6880379e-07
-4.0737713e-10
5.6881123e-07
-5.2134962e-10
5.6882153e-07
-6.4915496e-10
5.6883536e-07
-7.9533404e-10
5.6885374e-07
-9.6588876e-10
5.6887812e-07
-1.1689889e-09
5.6891067e-07
-1.416145e-09
5.6895473e-07
-1.7241796e-09
5.6901562e-07
-2.1180854e-09
5.691015e-07
-2.6377595e-09
5.6922728e-07
-3.3656248e-09
5.6943549e-07
-4.4573156e-09
5.6979933e-07
-6.0035142e-09
5.7025386e-07
-9.5030693e-09
5.7220725e-07
-2.9569815e-08
5.8877449e-07
5.391381e-07
5.9663742e-08
4.6915208e-07
3.6655588e-08
6.1941831e-07
2.261813e-08
5.875101e-07
1.6242938e-08
5.7701179e-07
1.2279561e-08
5.7405559e-07
9.5953104e-09
5.7230574e-07
7.6667758e-09
5.7127808e-07
6.2259008e-09
5.7062817e-07
5.1170629e-09
5.7018621e-07
4.2401694e-09
5.6987689e-07
3.5298683e-09
5.6965472e-07
2.9419742e-09
5.694915e-07
2.4454255e-09
5.693697e-07
2.017731e-09
5.6927788e-07
1.6421604e-09
5.6920837e-07
1.3059206e-09
5.6915592e-07
9.9893862e-10
5.6911691e-07
7.1301998e-10
5.6908882e-07
4.4124296e-10
5.6906996e-07
1.7749951e-10
5.6905925e-07
-8.3873418e-11
5.6905609e-07
-3.4841618e-10
5.6906031e-07
-6.2185854e-10
5.6907218e-07
-9.1045109e-10
5.6909238e-07
-1.2213519e-09
5.6912213e-07
-1.5631181e-09
5.6916329e-07
-1.9463677e-09
5.6921861e-07
-2.3847192e-09
5.6929209e-07
-2.8961796e-09
5.6938958e-07
-3.5052672e-09
5.6951976e-07
-4.24643e-09
5.696959e-07
-5.1700661e-09
5.6993926e-07
-6.3528404e-09
5.7028428e-07
-7.9135251e-09
5.7078797e-07
-1.0055397e-08
5.7157736e-07
-1.3184697e-08
5.7292863e-07
-1.8116299e-08
5.7518547e-07
-2.8159149e-08
5.822501e-07
-4.5787745e-08
6.0640308e-07
4.9335035e-07
5.9995503e-08
4.0915671e-07
5.0468059e-08
6.2894575e-07
3.3352272e-08
6.0462586e-07
2.4798892e-08
5.8556517e-07
1.9304007e-08
5.7955047e-07
1.5312308e-08
5.7629744e-07
1.2342006e-08
5.7424838e-07
1.0083696e-08
5.7288647e-07
8.3239641e-09
5.7194595e-07
6.9196571e-09
5.7128119e-07
5.7746674e-09
5.7079971e-07
4.8222019e-09
5.7044397e-07
4.0144682e-09
5.7017743e-07
3.3164541e-09
5.6997589e-07
2.7018687e-09
5.6982296e-07
2.150453e-09
5.6970734e-07
1.6461546e-09
5.696212e-07
1.1758469e-09
5.6955913e-07
7.2839515e-10
5.6951741e-07
2.9394327e-10
5.694937e-07
-1.3666393e-10
5.6948669e-07
-5.7238656e-10
5.6949603e-07
-1.0224833e-09
5.6952228e-07
-1.4970317e-09
5.6956693e-07
-2.0075309e-09
5.6963263e-07
-2.5676621e-09
5.6972342e-07
-3.1942995e-09
5.6984525e-07
-3.9089226e-09
5.7000671e-07
-4.739666e-09
5.7022032e-07
-5.7243841e-09
5.7050448e-07
-6.9153109e-09
5.7088682e-07
-8.386699e-09
5.7141064e-07
-1.024801e-08
5.7214559e-07
-1.26612e-08
5.7320116e-07
-1.5859531e-08
5.7477569e-07
-2.0205054e-08
5.7727415e-07
-2.6675411e-08
5.8165582e-07
-3.8915254e-08
5.9448995e-07
-4.8142981e-08
6.1563081e-07
4.4520737e-07
5.4861856e-08
3.5429511e-07
5.7422959e-08
6.2638471e-07
4.0438905e-08
6.2160985e-07
3.0750535e-08
5.9525352e-07
2.4614375e-08
5.8568663e-07
1.9923743e-08
5.8098808e-07
1.6285139e-08
5.7788698e-07
1.3440015e-08
5.757316e-07
1.1176203e-08
5.7420976e-07
9.3419587e-09
5.7311544e-07
7.8293562e-09
5.7231231e-07
6.5598678e-09
5.7171345e-07
5.4756084e-09
5.7126169e-07
4.533227e-09
5.7091827e-07
3.6995907e-09
5.7065659e-07
2.9488041e-09
5.7045812e-07
2.2601114e-09
5.703099e-07
1.6163786e-09
5.7020286e-07
1.0029616e-09
5.7013083e-07
4.0682586e-10
5.7008983e-07
-1.8417632e-10
5.7007769e-07
-7.8194683e-10
5.700938e-07
-1.3987627e-09
5.7013909e-07
-2.0479308e-09
5.702161e-07
-2.7445392e-09
5.7032924e-07
-3.5063846e-09
5.7048527e-07
-4.3551807e-09
5.7069405e-07
-5.3181912e-09
5.7096973e-07
-6.4305108e-09
5.7133264e-07
-7.7383269e-09
5.7181229e-07
-9.3034874e-09
5.7245198e-07
-1.1209888e-08
5.7331704e-07
-1.3573876e-08
5.7450957e-07
-1.6556904e-08
5.7618418e-07
-2.0356915e-08
5.785757e-07
-2.524067e-08
5.8215791e-07
-3.2466456e-08
5.8888161e-07
-4.5050428e-08
6.0707392e-07
-4.6515963e-08
6.1709635e-07
3.9869141e-07
4.7945419e-08
3.0635009e-07
6.0036654e-08
6.1429367e-07
4.5359083e-08
6.3628735e-07
3.4835965e-08
6.057766e-07
2.8360354e-08
5.9216224e-07
2.3380375e-08
5.8596806e-07
1.9396139e-08
5.8187122e-07
1.6192786e-08
5.7893495e-07
1.3585728e-08
5.7681681e-07
1.1435509e-08
5.7526566e-07
9.636952e-09
5.7411087e-07
8.1099649e-09
5.7324044e-07
6.7934742e-09
5.7257818e-07
5.6404174e-09
5.7207133e-07
4.6139691e-09
5.7168304e-07
3.6847926e-09
5.713873e-07
2.8289989e-09
5.7116569e-07
2.0266078e-09
5.7100525e-07
1.2603634e-09
5.7089707e-07
5.1478824e-10
5.7083541e-07
-2.2460968e-10
5.7081709e-07
-9.7204706e-10
5.7084124e-07
-1.7421562e-09
5.709092e-07
-2.5507076e-09
5.7102465e-07
-3.4154267e-09
5.7119396e-07
-4.356978e-09
5.7142682e-07
-5.4002053e-09
5.7173727e-07
-6.5757418e-09
5.7214526e-07
-7.9221376e-09
5.7267904e-07
-9.488734e-09
5.7337889e-07
-1.1339441e-08
5.7430269e-07
-1.3557163e-08
5.7553477e-07
-1.6250301e-08
5.7720271e-07
-1.9562591e-08
5.7949647e-07
-2.3664522e-08
5.8267763e-07
-2.8858719e-08
5.8735211e-07
-3.6719097e-08
5.9674199e-07
-4.8393515e-08
6.1874834e-07
-4.3152099e-08
6.1185493e-07
3.5553931e-07
4.0312974e-08
2.6603768e-07
5.8943302e-08
5.9566375e-07
4.8274505e-08
6.4695609e-07
3.7535442e-08
6.1651559e-07
3.0876924e-08
5.9882076e-07
2.5842566e-08
5.9100242e-07
2.1730077e-08
5.8598371e-07
1.8344519e-08
5.8232051e-07
1.5533134e-08
5.796282e-07
1.3173812e-08
5.7762498e-07
1.1170552e-08
5.7611413e-07
9.4479991e-09
5.7496299e-07
7.946948e-09
5.7407923e-07
6.6204322e-09
5.7339785e-07
5.4307623e-09
5.7287271e-07
4.347258e-09
5.7247081e-07
3.3444687e-09
5.7216848e-07
2.4007733e-09
5.7194894e-07
1.4972627e-09
5.7180058e-07
6.1681805e-10
5.7171585e-07
-2.566792e-10
5.7169059e-07
-1.1390655e-09
5.7172363e-07
-2.0465981e-09
5.7181673e-07
-2.9966838e-09
5.7197474e-07
-4.0086852e-09
5.7220596e-07
-5.1048676e-09
5.72523e-07
-6.3115511e-09
5.7294396e-07
-7.6605454e-09
5.7349426e-07
-9.1909486e-09
5.7420944e-07
-1.0951455e-08
5.751394e-07
-1.3003388e-08
5.7635462e-07
-1.5424125e-08
5.779555e-07
-1.8311182e-08
5.8008977e-07
-2.1788898e-08
5.8297419e-07
-2.6013286e-08
5.8690202e-07
-3.1392845e-08
5.9273167e-07
-3.9557432e-08
6.0490657e-07
-4.9080656e-08
6.2827156e-07
-3.8527961e-08
6.0130223e-07
3.1701135e-07
3.283714e-08
2.3320128e-07
5.5188061e-08
5.7331353e-07
4.9160079e-08
6.5298407e-07
3.8993141e-08
6.2668241e-07
3.23642e-08
6.0544968e-07
2.74533e-08
5.9591332e-07
2.3375252e-08
5.9006176e-07
1.9942561e-08
5.857532e-07
1.7038537e-08
5.8253222e-07
1.4560877e-08
5.8010264e-07
1.2425721e-08
5.7824928e-07
1.0565744e-08
5.7682297e-07
8.9266297e-09
5.7571834e-07
7.4641099e-09
5.7486037e-07
6.1417795e-09
5.7419504e-07
4.9293373e-09
5.7368325e-07
3.801143e-09
5.7329667e-07
2.7350405e-09
5.7301505e-07
1.7113812e-09
5.7282424e-07
7.121928e-10
5.7271504e-07
-2.7955366e-10
5.7268234e-07
-1.2806181e-09
5.7272469e-07
-2.3081578e-09
5.7284427e-07
-3.3804116e-09
5.7304699e-07
-4.5174416e-09
5.7334299e-07
-5.7419813e-09
5.7374754e-07
-7.0804326e-09
5.7428241e-07
-8.5640682e-09
5.7497789e-07
-1.0230481e-08
5.7587586e-07
-1.212536e-08
5.7703427e-07
-1.4304882e-08
5.7853415e-07
-1.6838601e-08
5.8048922e-07
-1.9811498e-08
5.8306267e-07
-2.3324559e-08
5.8648725e-07
-2.7519314e-08
5.9109678e-07
-3.2912138e-08
5.9812449e-07
-4.0884947e-08
6.1287938e-07
-4.7573417e-08
6.3496003e-07
-3.331771e-08
5.8704653e-07
2.8369364e-07
2.6161038e-08
2.0704118e-07
5.0059233e-08
5.4941641e-07
4.8402795e-08
6.5464065e-07
3.9404162e-08
6.3568088e-07
3.2994124e-08
6.1185966e-07
2.833044e-08
6.00577e-07
2.4413952e-08
5.9397825e-07
2.1043214e-08
5.8912394e-07
1.813718e-08
5.8543826e-07
1.5616518e-08
5.826233e-07
1.3412005e-08
5.8045379e-07
1.1466375e-08
5.787686e-07
9.7320243e-09
5.7745269e-07
8.1690736e-09
5.7642332e-07
6.7439024e-09
5.7562021e-07
5.4278773e-09
5.7499927e-07
4.1962629e-09
5.7452829e-07
3.0272983e-09
5.7418401e-07
1.9013995e-09
5.7395014e-07
8.0045531e-10
5.7381599e-07
-2.9280936e-10
5.737756e-07
-1.39543e-09
5.7382731e-07
-2.5247956e-09
5.7397364e-07
-3.699253e-09
5.7422145e-07
-4.9387493e-09
5.7458249e-07
-6.2655479e-09
5.7507434e-07
-7.7050411e-09
5.757219e-07
-9.286698e-09
5.7655955e-07
-1.1045173e-08
5.7763433e-07
-1.3021572e-08
5.7901067e-07
-1.5265107e-08
5.8077768e-07
-1.7835205e-08
5.8305932e-07
-2.080149e-08
5.8602895e-07
-2.4239407e-08
5.8992517e-07
-2.8284294e-08
5.9514166e-07
-3.3538202e-08
6.033784e-07
-4.0904812e-08
6.2024599e-07
-4.4659258e-08
6.3871448e-07
-2.8138589e-08
5.7052586e-07
2.5555505e-07
2.0540477e-08
1.8650182e-07
4.4497686e-08
5.2546071e-07
4.6531495e-08
6.526072e-07
3.9044713e-08
6.4316747e-07
3.2980847e-08
6.1792344e-07
2.8617481e-08
6.0494037e-07
2.4941416e-08
5.9765432e-07
2.1711963e-08
5.9235339e-07
1.8873653e-08
5.8827657e-07
1.6370296e-08
5.8512666e-07
1.4148291e-08
5.826758e-07
1.2161356e-08
5.8075554e-07
1.0369606e-08
5.7924444e-07
8.7385834e-09
5.7805434e-07
7.2384289e-09
5.7712037e-07
5.8430741e-09
5.7639463e-07
4.5294991e-09
5.7584186e-07
3.2770672e-09
5.7543644e-07
2.0669173e-09
5.7516029e-07
8.8140636e-10
5.750015e-07
-2.9641118e-10
5.7495342e-07
-1.4832807e-09
5.7501418e-07
-2.6962449e-09
5.751866e-07
-3.9531464e-09
5.7547835e-07
-5.2731527e-09
5.7590249e-07
-6.6773232e-09
5.7647851e-07
-8.1892266e-09
5.772338e-07
-9.8356269e-09
5.7820595e-07
-1.164725e-08
5.7944595e-07
-1.3659578e-08
5.81023e-07
-1.5913757e-08
5.8303186e-07
-1.8457804e-08
5.8560337e-07
-2.134503e-08
5.8891618e-07
-2.4629729e-08
5.9320987e-07
-2.8457412e-08
5.9896934e-07
-3.3471203e-08
6.0839219e-07
-3.9950398e-08
6.2672519e-07
-4.0996258e-08
6.3976034e-07
-2.334385e-08
5.5287345e-07
2.322112e-07
1.5982363e-08
1.705208e-07
3.9045626e-08
5.0239948e-07
4.3984309e-08
6.4766918e-07
3.8156244e-08
6.4899532e-07
3.2528079e-08
6.2355146e-07
2.8470115e-08
6.0899832e-07
2.5066508e-08
6.0105793e-07
2.2024896e-08
5.9539501e-07
1.9301319e-08
5.9100014e-07
1.685954e-08
5.8756844e-07
1.4660459e-08
5.8487488e-07
1.2668366e-08
5.8274763e-07
1.0851229e-08
5.8106158e-07
9.1804097e-09
5.7972516e-07
7.6303151e-09
5.7867046e-07
6.1779812e-09
5.7784696e-07
4.8026452e-09
5.772172e-07
3.4853175e-09
5.7675377e-07
2.2083606e-09
5.7643725e-07
9.5507974e-10
5.7625478e-07
-2.9067497e-10
5.7619917e-07
-1.5448961e-09
5.762684e-07
-2.8238114e-09
5.7646552e-07
-4.1442758e-09
5.7679881e-07
-5.5241715e-09
5.7728239e-07
-6.9828237e-09
5.7793716e-07
-8.5414282e-09
5.7879241e-07
-1.0223491e-08
5.7988801e-07
-1.2055283e-08
5.8127774e-07
-1.4066262e-08
5.8303398e-07
-1.628943e-08
5.8525503e-07
-1.8761729e-08
5.8807566e-07
-2.1521552e-08
5.91676e-07
-2.4609617e-08
5.9629793e-07
-2.8193375e-08
6.025531e-07
-3.2895169e-08
6.1309398e-07
-3.8316591e-08
6.3214661e-07
-3.7026764e-08
6.3847051e-07
-1.9102637e-08
5.3494932e-07
2.1310856e-07
1.2387618e-08
1.5813476e-07
3.40019e-08
4.8078784e-07
4.1090251e-08
6.4058191e-07
3.6916623e-08
6.5316877e-07
3.1789516e-08
6.2867835e-07
2.8022667e-08
6.1276513e-07
2.4892527e-08
6.0418808e-07
2.2058958e-08
5.9822858e-07
1.9476998e-08
5.935821e-07
1.7125845e-08
5.8991959e-07
1.4978721e-08
5.87022e-07
1.3009182e-08
5.8471717e-07
1.1192456e-08
5.8287831e-07
9.5055566e-09
5.8141206e-07
7.9272308e-09
5.8024879e-07
6.4378351e-09
5.7933636e-07
5.0191541e-09
5.7863588e-07
3.6541726e-09
5.7811875e-07
2.326819e-09
5.777646e-07
1.0216947e-09
5.775599e-07
-2.762047e-10
5.7749707e-07
-1.5817688e-09
5.7757397e-07
-2.9100597e-09
5.7779381e-07
-4.2765941e-09
5.7816535e-07
-5.6976229e-09
5.7870342e-07
-7.1904057e-09
5.7942995e-07
-8.7734713e-09
5.8037547e-07
-1.0466851e-08
5.8158139e-07
-1.2292285e-08
5.8310318e-07
-1.4273389e-08
5.8501508e-07
-1.6435676e-08
5.8741732e-07
-1.8806253e-08
5.9044624e-07
-2.1410923e-08
5.9428067e-07
-2.4284002e-08
5.9917101e-07
-2.7617721e-08
6.0588682e-07
-3.1952439e-08
6.174287e-07
-3.6245344e-08
6.3643951e-07
-3.3051749e-08
6.3527692e-07
-1.5476337e-08
5.1737391e-07
1.9763223e-07
9.6175457e-09
1.4851908e-07
2.951858e-08
4.6089015e-07
3.8095716e-08
6.3200639e-07
3.5463697e-08
6.5580069e-07
3.0875879e-08
6.3326588e-07
2.7379068e-08
6.1626188e-07
2.4505672e-08
6.0706148e-07
2.1882594e-08
6.0085166e-07
1.9454258e-08
5.9601044e-07
1.7210455e-08
5.9216339e-07
1.5134395e-08
5.8909806e-07
1.3207347e-08
5.8664422e-07
1.1410827e-08
5.8467483e-07
9.7269575e-09
5.8309593e-07
8.1385857e-09
5.8183716e-07
6.6293423e-09
5.808456e-07
5.1836363e-09
5.8008159e-07
3.7865785e-09
5.7951581e-07
2.4238606e-09
5.7912732e-07
1.0816021e-09
5.7890216e-07
-2.5382096e-10
5.788325e-07
-1.5959564e-09
5.789161e-07
-2.9584654e-09
5.7915632e-07
-4.3553038e-09
5.7956219e-07
-5.8008937e-09
5.8014901e-07
-7.3102773e-09
5.8093933e-07
-8.8992405e-09
5.8196444e-07
-1.058439e-08
5.8326654e-07
-1.2383183e-08
5.8490197e-07
-1.4313917e-08
5.8694582e-07
-1.6395555e-08
5.8949895e-07
-1.8646832e-08
5.9269752e-07
-2.1083609e-08
5.9671745e-07
-2.3739908e-08
6.0182731e-07
-2.6828759e-08
6.0897567e-07
-3.0760774e-08
6.2136072e-07
-3.3940478e-08
6.3961922e-07
-2.9275988e-08
6.3061243e-07
-1.2460056e-08
5.0055798e-07
1.8517217e-07
7.5232827e-09
1.4099801e-07
2.5643133e-08
4.4277445e-07
3.5171301e-08
6.2248051e-07
3.3906975e-08
6.5706507e-07
2.9869681e-08
6.3730281e-07
2.6618834e-08
6.1951262e-07
2.3975226e-08
6.0970509e-07
2.1553228e-08
6.0327366e-07
1.9280061e-08
5.9828361e-07
1.7151137e-08
5.9429232e-07
1.5157364e-08
5.9109184e-07
1.3286192e-08
5.8851539e-07
1.1524339e-08
5.8643668e-07
9.8583228e-09
5.8476194e-07
8.2746612e-09
5.8342082e-07
6.7600369e-09
5.8236022e-07
5.3014e-09
5.8154022e-07
3.8859993e-09
5.8093121e-07
2.5013617e-09
5.8051196e-07
1.1352357e-09
5.8026829e-07
-2.2449164e-10
5.8019222e-07
-1.5898896e-09
5.802815e-07
-2.973088e-09
5.8053952e-07
-4.3863726e-09
5.8097547e-07
-5.8422662e-09
5.816049e-07
-7.3535846e-09
5.8245065e-07
-8.9334572e-09
5.8354431e-07
-1.0595293e-08
5.8492838e-07
-1.2352691e-08
5.8665937e-07
-1.421932e-08
5.8881245e-07
-1.6208613e-08
5.9148825e-07
-1.8332467e-08
5.9482137e-07
-2.0599771e-08
5.9898475e-07
-2.3049234e-08
6.0427677e-07
-2.5906277e-08
6.1183271e-07
-2.9420794e-08
6.2487523e-07
-3.1563254e-08
6.4176168e-07
-2.582145e-08
6.2487062e-07
-1.0006945e-08
4.8474347e-07
1.7516522e-07
5.9642353e-09
1.3503643e-07
2.2353612e-08
4.2639017e-07
3.2418582e-08
6.1241864e-07
3.2326521e-08
6.5715742e-07
2.8830515e-08
6.4079837e-07
2.5801629e-08
6.2254134e-07
2.3356089e-08
6.1215063e-07
2.111806e-08
6.055117e-07
1.8994257e-08
6.0040741e-07
1.6981024e-08
5.9630555e-07
1.5074736e-08
5.9299813e-07
1.3267572e-08
5.9032255e-07
1.1550363e-08
5.8815389e-07
9.913251e-09
5.8639906e-07
8.3459098e-09
5.8498816e-07
6.8377468e-09
5.8386839e-07
5.3780638e-09
5.8299991e-07
3.956155e-09
5.8235312e-07
2.5613587e-09
5.8190675e-07
1.1830706e-09
5.8164657e-07
-1.8926899e-10
5.8156456e-07
-1.5662013e-09
5.8165843e-07
-2.9582839e-09
5.819316e-07
-4.3761165e-09
5.823933e-07
-5.8303503e-09
5.8305914e-07
-7.3316718e-09
5.8395197e-07
-8.8907481e-09
5.8510339e-07
-1.0518123e-08
5.8655575e-07
-1.2224059e-08
5.8836531e-07
-1.4018358e-08
5.9060675e-07
-1.5909985e-08
5.9337987e-07
-1.7905586e-08
5.9681697e-07
-2.0010125e-08
6.0108929e-07
-2.2270428e-08
6.0653707e-07
-2.4913271e-08
6.1447556e-07
-2.8012616e-08
6.2797458e-07
-2.922745e-08
6.4297651e-07
-2.2743045e-08
6.1838622e-07
-8.0483955e-09
4.7004882e-07
1.6711683e-07
4.8176972e-09
1.3022192e-07
1.9591326e-08
4.1162273e-07
2.9885541e-08
6.0212851e-07
3.0774284e-08
6.562693e-07
2.7797363e-08
6.4377479e-07
2.4969213e-08
6.2536925e-07
2.2689924e-08
6.144299e-07
2.061474e-08
6.075869e-07
1.8629763e-08
6.0239239e-07
1.6728353e-08
5.9820696e-07
1.4910298e-08
5.9481618e-07
1.3171193e-08
5.9206166e-07
1.1504963e-08
5.8982012e-07
9.9046161e-09
5.879994e-07
8.3624366e-09
5.8653034e-07
6.8701786e-09
5.8536065e-07
5.4192418e-09
5.8445084e-07
4.0008061e-09
5.8377156e-07
2.6059252e-09
5.8330163e-07
1.2255897e-09
5.8302691e-07
-1.4923471e-10
5.8293939e-07
-1.5275819e-09
5.8303678e-07
-2.9184674e-09
5.8332249e-07
-4.3308601e-09
5.838057e-07
-5.773641e-09
5.8450192e-07
-7.255535e-09
5.8543386e-07
-8.7850101e-09
5.8663286e-07
-1.0370136e-08
5.8814088e-07
-1.20184e-08
5.9001357e-07
-1.3736517e-08
5.9232486e-07
-1.5530018e-08
5.9517337e-07
-1.7401824e-08
5.9868878e-07
-1.9355738e-08
6.0304321e-07
-2.1448319e-08
6.0862966e-07
-2.3895876e-08
6.1692311e-07
-2.6594475e-08
6.3067318e-07
-2.7004731e-08
6.4338677e-07
-2.0049812e-08
6.114313e-07
-6.5086435e-09
4.5650766e-07
1.6060818e-07
3.9813242e-09
1.2624443e-07
1.7283679e-08
3.9832784e-07
2.7585863e-08
5.9183157e-07
2.9280481e-08
6.5457577e-07
2.6792894e-08
6.4626183e-07
2.4148218e-08
6.2801359e-07
2.2006383e-08
6.1657169e-07
2.0071918e-08
6.0952137e-07
1.8212775e-08
6.0425154e-07
1.6416419e-08
6.0000332e-07
1.4684282e-08
5.9654832e-07
1.3014268e-08
5.9373167e-07
1.1402506e-08
5.9143188e-07
9.8441755e-09
5.8955773e-07
8.3336419e-09
5.8804087e-07
6.8646145e-09
5.8682967e-07
5.4303082e-09
5.8588515e-07
4.023586e-09
5.8517828e-07
2.6370751e-09
5.8468815e-07
1.2632581e-09
5.8440073e-07
-1.0545513e-10
5.843081e-07
-1.4766628e-09
5.8440799e-07
-2.8579223e-09
5.8470375e-07
-4.256679e-09
5.8520445e-07
-5.680193e-09
5.8592543e-07
-7.1354403e-09
5.8688911e-07
-8.6289878e-09
5.8812641e-07
-1.0166841e-08
5.8967873e-07
-1.175427e-08
5.91601e-07
-1.3395634e-08
5.9396623e-07
-1.509396e-08
5.968717e-07
-1.6849809e-08
6.0044463e-07
-1.8668073e-08
6.0486147e-07
-2.0615026e-08
6.1057661e-07
-2.2885462e-08
6.1919355e-07
-2.520559e-08
6.329933e-07
-2.4934397e-08
6.4311557e-07
-1.772292e-08
6.0421982e-07
-5.313247e-09
4.4409798e-07
1.5529494e-07
3.3724729e-09
1.2287658e-07
1.5356759e-08
3.8635251e-07
2.551266e-08
5.8168231e-07
2.7860109e-08
6.5223001e-07
2.5828426e-08
6.4829296e-07
2.3353952e-08
6.3048763e-07
2.1325257e-08
6.1860031e-07
1.9510371e-08
6.1133627e-07
1.7763323e-08
6.0599859e-07
1.6063783e-08
6.0170286e-07
1.4413361e-08
5.9819874e-07
1.2811382e-08
5.9533365e-07
1.1255461e-08
5.929878e-07
9.7423422e-09
5.9107085e-07
8.267996e-09
5.8951522e-07
6.8277119e-09
5.8826996e-07
5.4162319e-09
5.8729663e-07
4.027882e-09
5.8656663e-07
2.6566931e-09
5.8605933e-07
1.2965046e-09
5.8576092e-07
-5.8946563e-11
5.8566355e-07
-1.4159296e-09
5.8576497e-07
-2.7806656e-09
5.8606848e-07
-4.1592155e-09
5.86583e-07
-5.5573972e-09
5.8732361e-07
-6.9806709e-09
5.8831239e-07
-8.4340081e-09
5.8957975e-07
-9.9217489e-09
5.9116647e-07
-1.1447455e-08
5.9312671e-07
-1.3013772e-08
5.9553254e-07
-1.4622017e-08
5.9847995e-07
-1.6271551e-08
6.0209416e-07
-1.7970028e-08
6.0655995e-07
-1.9792167e-08
6.1239875e-07
-2.1901899e-08
6.2130328e-07
-2.387027e-08
6.3496167e-07
-2.3032842e-08
6.4227815e-07
-1.5728124e-08
5.969151e-07
-4.3937613e-09
4.3276362e-07
1.5090118e-07
2.9265568e-09
1.1995562e-07
1.3742014e-08
3.7554777e-07
2.3647805e-08
5.7178481e-07
2.6517889e-08
6.4936238e-07
2.4907781e-08
6.4990256e-07
2.2593833e-08
6.3280102e-07
2.0658863e-08
6.2053516e-07
1.894451e-08
6.1305064e-07
1.7296181e-08
6.0764693e-07
1.5684768e-08
6.0331427e-07
1.4110875e-08
5.9977263e-07
1.2574556e-08
5.9686997e-07
1.1074354e-08
5.94488e-07
9.6080901e-09
5.9253712e-07
8.1729236e-09
5.9095039e-07
6.7653873e-09
5.8967749e-07
5.3814763e-09
5.8868054e-07
4.0167591e-09
5.8793134e-07
2.6664891e-09
5.874096e-07
1.3257114e-09
5.8710169e-07
-1.0639069e-11
5.869999e-07
-1.3476632e-09
5.87102e-07
-2.6903567e-09
5.8741117e-07
-4.0435617e-09
5.8793621e-07
-5.4118457e-09
5.886919e-07
-6.7993871e-09
5.8969993e-07
-8.2098548e-09
5.9099021e-07
-9.646286e-09
5.926029e-07
-1.1110981e-08
5.945914e-07
-1.2605402e-08
5.9702696e-07
-1.412981e-08
6.0000435e-07
-1.5683321e-08
6.0364767e-07
-1.7277461e-08
6.0815409e-07
-1.8993228e-08
6.1411452e-07
-2.095643e-08
6.2326648e-07
-2.2601452e-08
6.366067e-07
-2.1300808e-08
6.409775e-07
-1.4024147e-08
5.8963844e-07
-3.6902796e-09
4.2242975e-07
1.472109e-07
2.5947902e-09
1.1736761e-07
1.2379625e-08
3.657757e-07
2.1968284e-08
5.6220635e-07
2.5252019e-08
6.4608207e-07
2.4029982e-08
6.5112419e-07
2.1869945e-08
6.3496038e-07
2.0014045e-08
6.2239089e-07
1.8383831e-08
6.1468086e-07
1.682188e-08
6.0920889e-07
1.5290114e-08
6.0484604e-07
1.3787218e-08
6.0127553e-07
1.2313449e-08
5.9834374e-07
1.0867862e-08
5.9593359e-07
9.4489673e-09
5.9395601e-07
8.0547756e-09
5.9234458e-07
6.6827696e-09
5.910495e-07
5.3299504e-09
5.9003336e-07
3.9929194e-09
5.8926838e-07
2.6679732e-09
5.8873455e-07
1.3512012e-09
5.8841847e-07
3.8583692e-11
5.8831252e-07
-1.2739124e-09
5.8841449e-07
-2.5902467e-09
5.8872751e-07
-3.9141993e-09
5.8926016e-07
-5.249272e-09
5.9002697e-07
-6.5985839e-09
5.9104924e-07
-7.9647665e-09
5.923564e-07
-9.3498713e-09
5.9398801e-07
-1.0755307e-08
5.9599684e-07
-1.2181784e-08
5.9845344e-07
-1.3629022e-08
6.0145159e-07
-1.5096645e-08
6.0511529e-07
-1.6600635e-08
6.0965808e-07
-1.8225542e-08
6.1573942e-07
-2.0053936e-08
6.2509488e-07
-2.1403731e-08
6.3795649e-07
-1.9729193e-08
6.3930296e-07
-1.2568323e-08
5.8247757e-07
-3.152409e-09
4.1301384e-07
1.4405849e-07
2.3414889e-09
1.1503436e-07
1.1219607e-08
3.5691277e-07
2.0450275e-08
5.5298815e-07
2.4057065e-08
6.4247989e-07
2.3191256e-08
6.5198978e-07
2.1180932e-08
6.369699e-07
1.9393745e-08
6.2417783e-07
1.7834117e-08
6.1624048e-07
1.6347608e-08
6.1069542e-07
1.4887632e-08
6.0630602e-07
1.3450289e-08
6.0271287e-07
1.2035649e-08
5.9975838e-07
1.0642976e-08
5.9732626e-07
9.2711857e-09
5.953278e-07
7.9188666e-09
5.936969e-07
6.5842083e-09
5.9238416e-07
5.265002e-09
5.9135257e-07
3.958692e-09
5.9057469e-07
2.6624495e-09
5.9003079e-07
1.3732568e-09
5.8970766e-07
8.7997908e-11
5.8959778e-07
-1.1964581e-09
5.8969895e-07
-2.4831592e-09
5.9001421e-07
-3.7749852e-09
5.9055199e-07
-5.0745523e-09
5.9132654e-07
-6.3841227e-09
5.9235881e-07
-7.7055227e-09
5.936778e-07
-9.0400831e-09
5.9532257e-07
-1.0388621e-08
5.9734537e-07
-1.175142e-08
5.9981624e-07
-1.3128056e-08
6.0282823e-07
-1.4519223e-08
6.0650646e-07
-1.594548e-08
6.1108433e-07
-1.7491943e-08
6.1728589e-07
-1.9194825e-08
6.2679776e-07
-2.0276044e-08
6.3903771e-07
-1.8303546e-08
6.3733047e-07
-1.1320233e-08
5.7549426e-07
-2.7391305e-09
4.0443274e-07
1.4131936e-07
2.1413273e-09
1.1290307e-07
1.0221435e-08
3.4885073e-07
1.9071439e-08
5.4415324e-07
2.2926002e-08
6.3863138e-07
2.2386513e-08
6.5252933e-07
2.0523427e-08
6.3883204e-07
1.8798253e-08
6.2590266e-07
1.7298429e-08
6.1774029e-07
1.5877989e-08
6.1211587e-07
1.4482795e-08
6.0770121e-07
1.3105927e-08
6.0408974e-07
1.1746974e-08
6.0111733e-07
1.0405213e-08
5.9866803e-07
9.0797541e-09
5.9665326e-07
7.7695562e-09
5.950071e-07
6.4733186e-09
5.9368039e-07
5.1894412e-09
5.9263644e-07
3.9160443e-09
5.9184808e-07
2.6510204e-09
5.9129582e-07
1.3921014e-09
5.9096658e-07
1.3693485e-10
5.9085294e-07
-1.1168372e-09
5.9095272e-07
-2.3714974e-09
5.9126887e-07
-3.6291712e-09
5.9180966e-07
-4.8917491e-09
5.9258911e-07
-6.1608134e-09
5.9362787e-07
-7.4375802e-09
5.9495456e-07
-8.7228741e-09
5.9660786e-07
-1.0017149e-08
5.9863965e-07
-1.1320506e-08
6.011196e-07
-1.2632661e-08
6.0414038e-07
-1.3955767e-08
6.0782957e-07
-1.5314712e-08
6.1244328e-07
-1.679216e-08
6.1876333e-07
-1.8376636e-08
6.2838224e-07
-1.9213873e-08
6.3987495e-07
-1.7007261e-08
6.3512386e-07
-1.0243828e-08
5.6873083e-07
-2.4179964e-09
3.966069e-07
1.3890136e-07
1.9768674e-09
1.1093841e-07
9.3529306e-09
3.4149614e-07
1.7811956e-08
5.3571239e-07
2.1851502e-08
6.3459965e-07
2.1610318e-08
6.5277098e-07
1.9893077e-08
6.4054821e-07
1.822618e-08
6.275691e-07
1.6777915e-08
6.1918851e-07
1.5415734e-08
6.1347807e-07
1.4079261e-08
6.0903769e-07
1.2758307e-08
6.0541069e-07
1.1451779e-08
6.0242386e-07
1.0158833e-08
5.9996097e-07
8.8786325e-09
5.9793346e-07
7.6103528e-09
5.9627537e-07
6.3530498e-09
5.949377e-07
5.1055829e-09
5.9388391e-07
3.8666066e-09
5.9308706e-07
2.6345996e-09
5.9252782e-07
1.4079141e-09
5.9219326e-07
1.8483675e-10
5.9207602e-07
-1.0363439e-09
5.921739e-07
-2.2572709e-09
5.924898e-07
-3.4794491e-09
5.9303184e-07
-4.7041832e-09
5.9381385e-07
-5.9325243e-09
5.9485621e-07
-7.1652375e-09
5.9618728e-07
-8.4028067e-09
5.9784543e-07
-9.6454912e-09
5.9988233e-07
-1.0893374e-08
6.0236748e-07
-1.2146517e-08
6.0539353e-07
-1.3408759e-08
6.0909181e-07
-1.4708786e-08
6.1374331e-07
-1.6123954e-08
6.201785e-07
-1.7595268e-08
6.2985355e-07
-1.821088e-08
6.4049056e-07
-1.5823508e-08
6.3273648e-07
-9.3078934e-09
5.6221521e-07
-2.1638978e-09
3.8946291e-07
1.3673746e-07
1.8364737e-09
1.0911675e-07
8.5888989e-09
3.3476924e-07
1.6654819e-08
5.2766824e-07
2.0826633e-08
6.3043773e-07
2.0857468e-08
6.5274117e-07
1.9285222e-08
6.4211928e-07
1.7675162e-08
6.2917859e-07
1.6272443e-08
6.2059115e-07
1.4962182e-08
6.1478836e-07
1.3679314e-08
6.1032057e-07
1.2410307e-08
6.066797e-07
1.1153235e-08
6.0368093e-07
9.907054e-09
6.0120715e-07
8.6708902e-09
5.9916962e-07
7.4440293e-09
5.9750224e-07
6.2257663e-09
5.9615596e-07
5.0153017e-09
5.9509438e-07
3.8117068e-09
5.9429065e-07
2.6139315e-09
5.937256e-07
1.4208356e-09
5.9338636e-07
2.3123411e-10
5.9326562e-07
-9.5604991e-10
5.9336118e-07
-2.1421313e-09
5.9367588e-07
-3.3280091e-09
5.9421772e-07
-4.514521e-09
5.9500036e-07
-5.7023086e-09
5.96044e-07
-6.8918098e-09
5.9737678e-07
-8.083291e-09
5.9903691e-07
-9.2769323e-09
6.0107597e-07
-1.0472906e-08
6.0356345e-07
-1.1671749e-08
6.0659237e-07
-1.2879089e-08
6.1029915e-07
-1.4126675e-08
6.1499089e-07
-1.5483974e-08
6.215358e-07
-1.684587e-08
6.3121545e-07
-1.7260034e-08
6.4090472e-07
-1.4736428e-08
6.3021288e-07
-8.4861625e-09
5.5596495e-07
-1.957848e-09
3.8293459e-07
1.3477961e-07
1.7126255e-09
1.07422e-07
7.9097736e-09
3.2860245e-07
1.5585717e-08
5.2001826e-07
1.9845196e-08
6.2619065e-07
2.0123282e-08
6.5246483e-07
1.8695303e-08
6.4354599e-07
1.7142352e-08
6.3073082e-07
1.5781071e-08
6.2195232e-07
1.4517725e-08
6.1605172e-07
1.3284241e-08
6.1155407e-07
1.2063814e-08
6.0790013e-07
1.085358e-08
6.0489116e-07
9.6522495e-09
6.0240848e-07
8.4588615e-09
6.0036301e-07
7.2727394e-09
5.9868836e-07
6.0933328e-09
5.9733537e-07
4.9200919e-09
5.9626762e-07
3.7524103e-09
5.9545834e-07
2.5896135e-09
5.948884e-07
1.4309734e-09
5.94545e-07
2.7573803e-10
5.9442086e-07
-8.768308e-10
5.9451375e-07
-2.0274155e-09
5.9482646e-07
-3.176606e-09
5.9536691e-07
-4.3248693e-09
5.9614862e-07
-5.4725342e-09
5.9719167e-07
-6.6198038e-09
5.9852405e-07
-7.7668132e-09
6.0018392e-07
-8.9137355e-09
6.022229e-07
-1.0060894e-08
6.0471061e-07
-1.1209375e-08
6.0774085e-07
-1.2366585e-08
6.1145636e-07
-1.356647e-08
6.1619078e-07
-1.486838e-08
6.2283771e-07
-1.612346e-08
6.3247053e-07
-1.6354369e-08
6.4113563e-07
-1.3731778e-08
6.2759029e-07
-7.7570014e-09
5.4999017e-07
-1.7858139e-09
3.7696341e-07
1.329938e-07
1.6006077e-09
1.0584286e-07
7.3003898e-09
3.2293876e-07
1.4592716e-08
5.1275679e-07
1.8901814e-08
6.2189688e-07
1.9403716e-08
6.5196561e-07
1.8119094e-08
6.448293e-07
1.662474e-08
6.3222428e-07
1.5302382e-08
6.232745e-07
1.4082124e-08
6.1727199e-07
1.2894621e-08
6.1274158e-07
1.1719982e-08
6.0907477e-07
1.0554338e-08
6.0605681e-07
9.396131e-09
6.0356669e-07
8.2442888e-09
6.0151485e-07
7.0981295e-09
5.9983452e-07
5.9571989e-09
5.984763e-07
4.8211283e-09
5.9740369e-07
3.6895601e-09
5.965899e-07
2.5621184e-09
5.9601584e-07
1.4384082e-09
5.9566871e-07
3.1803071e-10
5.9554124e-07
-7.9939284e-10
5.9563118e-07
-1.9141924e-09
5.9594126e-07
-3.0266273e-09
5.9647934e-07
-4.1368705e-09
5.9725887e-07
-5.2450104e-09
5.9829981e-07
-6.3510816e-09
5.9963012e-07
-7.4551424e-09
6.0128798e-07
-8.557398e-09
6.0332515e-07
-9.658349e-09
6.0581156e-07
-1.0759658e-08
6.0884216e-07
-1.1870418e-08
6.1256712e-07
-1.3025826e-08
6.1734619e-07
-1.4273287e-08
6.2408517e-07
-1.5423341e-08
6.3362058e-07
-1.5487455e-08
6.4119975e-07
-1.2797189e-08
6.2490002e-07
-7.1028819e-09
5.4429586e-07
-1.6376451e-09
3.7149817e-07
1.3135615e-07
1.4975374e-09
1.0437094e-07
6.7489464e-09
3.1773028e-07
1.3665879e-08
5.0587645e-07
1.7991903e-08
6.1758966e-07
1.8695372e-08
6.5126601e-07
1.7552812e-08
6.4597054e-07
1.6119368e-08
6.3365667e-07
1.4834725e-08
6.245589e-07
1.3654755e-08
6.1845197e-07
1.2510557e-08
6.138858e-07
1.1379445e-08
6.1020589e-07
1.0256504e-08
6.0717975e-07
9.1399022e-09
6.0468329e-07
8.0284512e-09
6.0262631e-07
6.9214419e-09
6.0094153e-07
5.8184782e-09
5.9957926e-07
4.7193248e-09
5.9850284e-07
3.6238168e-09
5.9768541e-07
2.5318167e-09
5.9710784e-07
1.4431995e-09
5.9675733e-07
3.5785527e-10
5.9662658e-07
-7.2430028e-10
5.9671333e-07
-1.8033086e-09
5.9702027e-07
-2.8791605e-09
5.9755519e-07
-3.9517929e-09
5.983315e-07
-5.021106e-09
5.9936912e-07
-6.0870092e-09
6.0069602e-07
-7.1495139e-09
6.0235049e-07
-8.2088697e-09
6.0438451e-07
-9.2657541e-09
6.0686845e-07
-1.0322404e-08
6.0989881e-07
-1.1389425e-08
6.1363414e-07
-1.25023e-08
6.1845906e-07
-1.3695067e-08
6.2527794e-07
-1.4741362e-08
6.3466688e-07
-1.4653663e-08
6.4111205e-07
-1.1922198e-08
6.2216855e-07
-6.5097872e-09
5.3888345e-07
-1.5061514e-09
3.6649453e-07
1.2985e-07
1.4016703e-09
1.0299969e-07
6.2461677e-09
3.1293683e-07
1.2796883e-08
4.9936902e-07
1.7111567e-08
6.1329784e-07
1.7995446e-08
6.5038746e-07
1.6993164e-08
6.4697158e-07
1.562345e-08
6.3502512e-07
1.437638e-08
6.2580565e-07
1.3234783e-08
6.1959357e-07
1.2131853e-08
6.1498875e-07
1.104248e-08
6.1129526e-07