/*--------------------------------*- C++ -*----------------------------------*\
  =========                 |
  \\      /  F ield         | OpenFOAM: The Open Source CFD Toolbox
   \\    /   O peration     | Website:  https://openfoam.org
    \\  /    A nd           | Version:  10
     \\/     M anipulation  |
\*---------------------------------------------------------------------------*/
FoamFile
{
    format      ascii;
    class       surfaceScalarField;
    location    "0.12";
    object      phi_0;
}
// * * * * * * * * * * * * * * * * * * * * * * * * * * * * * * * * * * * * * //

dimensions      [1 0 -1 0 0 0 0];

internalField   nonuniform List<scalar> 
7860
(
3.9892087e-08
5.2881594e-07
1.218973e-08
5.9641014e-07
7.4248093e-09
5.7347265e-07
5.4958886e-09
5.7063662e-07
4.111335e-09
5.7009222e-07
3.1974819e-09
5.6962149e-07
2.5555642e-09
5.6934954e-07
2.0758878e-09
5.6918728e-07
1.7061172e-09
5.6907737e-07
1.413721e-09
5.6899998e-07
1.1768977e-09
5.689444e-07
9.8087882e-10
5.6890359e-07
8.1531525e-10
5.6887313e-07
6.7271149e-10
5.6885017e-07
5.4748905e-10
5.6883278e-07
4.3538211e-10
5.6881966e-07
3.3303171e-10
5.688099e-07
2.3770536e-10
5.6880288e-07
1.4709473e-10
5.6879816e-07
5.9163215e-11
5.6879548e-07
-2.7977484e-11
5.6879469e-07
-1.1617467e-10
5.6879575e-07
-2.0734092e-10
5.6879872e-07
-3.0355979e-10
5.6880377e-07
-4.0721823e-10
5.6881121e-07
-5.2116978e-10
5.6882151e-07
-6.4895528e-10
5.6883534e-07
-7.9511599e-10
5.6885372e-07
-9.6565407e-10
5.688781e-07
-1.1687396e-09
5.6891066e-07
-1.4158838e-09
5.6895472e-07
-1.7239094e-09
5.6901561e-07
-2.1178099e-09
5.691015e-07
-2.6374833e-09
5.6922728e-07
-3.3653527e-09
5.6943549e-07
-4.4570561e-09
5.6979934e-07
-6.0032877e-09
5.702539e-07
-9.5028632e-09
5.7220727e-07
-2.9569561e-08
5.8877444e-07
5.3913835e-07
5.9663319e-08
4.6915268e-07
3.6655087e-08
6.1941835e-07
2.2617647e-08
5.8751009e-07
1.6242424e-08
5.7701184e-07
1.2279031e-08
5.7405561e-07
9.5947775e-09
5.7230575e-07
7.6662508e-09
5.7127807e-07
6.2253933e-09
5.7062814e-07
5.1165813e-09
5.7018618e-07
4.239721e-09
5.6987684e-07
3.5294598e-09
5.6965466e-07
2.9416114e-09
5.6949144e-07
2.4451136e-09
5.6936963e-07
2.0174746e-09
5.6927781e-07
1.6419635e-09
5.6920829e-07
1.3057867e-09
5.6915584e-07
9.9887032e-10
5.6911682e-07
7.1301967e-10
5.6908873e-07
4.4131233e-10
5.6906987e-07
1.7763979e-10
5.6905915e-07
-8.3661639e-11
5.6905599e-07
-3.4813288e-10
5.6906022e-07
-6.2150423e-10
5.6907209e-07
-9.1002698e-10
5.6909229e-07
-1.22086e-09
5.6912204e-07
-1.5625609e-09
5.6916321e-07
-1.9457487e-09
5.6921853e-07
-2.3840428e-09
5.6929202e-07
-2.895451e-09
5.6938951e-07
-3.5044929e-09
5.695197e-07
-4.245618e-09
5.6969585e-07
-5.1692254e-09
5.6993922e-07
-6.3519825e-09
5.7028425e-07
-7.9126635e-09
5.7078796e-07
-1.0054548e-08
5.7157738e-07
-1.3183882e-08
5.7292868e-07
-1.8115546e-08
5.7518556e-07
-2.8158412e-08
5.8225014e-07
-4.5787111e-08
6.0640314e-07
4.9335124e-07
5.999486e-08
4.0915797e-07
5.0467134e-08
6.2894607e-07
3.3351386e-08
6.046258e-07
2.4797986e-08
5.8556524e-07
1.9303076e-08
5.7955052e-07
1.5311374e-08
5.7629745e-07
1.2341087e-08
5.7424835e-07
1.0082809e-08
5.7288642e-07
8.3231229e-09
5.7194587e-07
6.9188742e-09
5.7128109e-07
5.773954e-09
5.7079958e-07
4.8215679e-09
5.7044383e-07
4.0139227e-09
5.7017727e-07
3.3160047e-09
5.6997572e-07
2.7015223e-09
5.6982277e-07
2.1502154e-09
5.6970715e-07
1.6460306e-09
5.69621e-07
1.1758404e-09
5.6955892e-07
7.2850918e-10
5.695172e-07
2.9417987e-10
5.6949348e-07
-1.3630366e-10
5.6948647e-07
-5.7190249e-10
5.6949582e-07
-1.0218763e-09
5.6952206e-07
-1.4963036e-09
5.6956672e-07
-2.0066851e-09
5.6963243e-07
-2.5667029e-09
5.6972322e-07
-3.1932326e-09
5.6984506e-07
-3.9077552e-09
5.7000654e-07
-4.7384072e-09
5.7022016e-07
-5.7230449e-09
5.7050434e-07
-6.9139042e-09
5.7088671e-07
-8.3852404e-09
5.7141055e-07
-1.0246518e-08
5.7214553e-07
-1.2659698e-08
5.7320114e-07
-1.5858045e-08
5.7477572e-07
-2.0203621e-08
5.7727425e-07
-2.6674046e-08
5.8165599e-07
-3.8913886e-08
5.9448998e-07
-4.8141958e-08
6.1563121e-07
4.4520928e-07
5.4861026e-08
3.5429721e-07
5.7421551e-08
6.2638561e-07
4.0437526e-08
6.2160977e-07
3.0749176e-08
5.9525357e-07
2.4612991e-08
5.8568671e-07
1.9922357e-08
5.8098808e-07
1.628378e-08
5.7788693e-07
1.3438704e-08
5.757315e-07
1.1174961e-08
5.7420961e-07
9.3408033e-09
5.7311525e-07
7.8283033e-09
5.7231208e-07
6.5589317e-09
5.717132e-07
5.4748019e-09
5.712614e-07
4.5325612e-09
5.7091796e-07
3.6990754e-09
5.7065626e-07
2.9484475e-09
5.7045777e-07
2.2599205e-09
5.7030953e-07
1.616359e-09
5.7020248e-07
1.0031175e-09
5.7013044e-07
4.0716049e-10
5.7008944e-07
-1.8366134e-10
5.700773e-07
-7.8125117e-10
5.7009341e-07
-1.3978875e-09
5.701387e-07
-2.0468787e-09
5.7021571e-07
-2.7433144e-09
5.7032886e-07
-3.5049933e-09
5.704849e-07
-4.3536309e-09
5.706937e-07
-5.316493e-09
5.709694e-07
-6.4286767e-09
5.7133235e-07
-7.7363721e-09
5.7181203e-07
-9.3014303e-09
5.7245176e-07
-1.120775e-08
5.7331687e-07
-1.3571684e-08
5.7450946e-07
-1.6554688e-08
5.7618414e-07
-2.0354715e-08
5.7857575e-07
-2.5238528e-08
5.8215807e-07
-3.246435e-08
5.8888181e-07
-4.5048308e-08
6.0707394e-07
-4.6514546e-08
6.1709745e-07
3.9869474e-07
4.7944437e-08
3.0635319e-07
6.0034732e-08
6.1429552e-07
4.5357107e-08
6.3628731e-07
3.4834071e-08
6.0577657e-07
2.835845e-08
5.9216233e-07
2.3378477e-08
5.8596806e-07
1.9394281e-08
5.8187113e-07
1.6190998e-08
5.7893478e-07
1.3584036e-08
5.7681657e-07
1.1433936e-08
5.7526535e-07
9.635518e-09
5.741105e-07
8.1086893e-09
5.7324003e-07
6.7923738e-09
5.7257772e-07
5.6395068e-09
5.7207083e-07
4.613261e-09
5.7168251e-07
3.6842979e-09
5.7138674e-07
2.8287268e-09
5.711651e-07
2.0265657e-09
5.7100464e-07
1.2605571e-09
5.7089645e-07
5.1522182e-10
5.7083477e-07
-2.2393381e-10
5.7081645e-07
-9.7112835e-10
5.708406e-07
-1.7409958e-09
5.7090856e-07
-2.5493087e-09
5.7102402e-07
-3.4137948e-09
5.7119335e-07
-4.3551205e-09
5.7142623e-07
-5.3981323e-09
5.7173671e-07
-6.5734662e-09
5.7214473e-07
-7.9196753e-09
5.7267856e-07
-9.4861045e-09
5.7337846e-07
-1.1336667e-08
5.7430233e-07
-1.3554273e-08
5.7553448e-07
-1.6247328e-08
5.7720252e-07
-1.9559573e-08
5.7949639e-07
-2.3661508e-08
5.8267769e-07
-2.885575e-08
5.8735231e-07
-3.671609e-08
5.9674215e-07
-4.8390544e-08
6.1874839e-07
-4.3150301e-08
6.1185721e-07
3.5554444e-07
4.0311861e-08
2.6604192e-07
5.8940853e-08
5.9566696e-07
4.827183e-08
6.4695627e-07
3.7532912e-08
6.1651541e-07
3.0874424e-08
5.9882081e-07
2.5840083e-08
5.910024e-07
2.1727652e-08
5.8598356e-07
1.834219e-08
5.8232024e-07
1.5530932e-08
5.7962783e-07
1.3171766e-08
5.7762452e-07
1.1168688e-08
5.7611358e-07
9.4463403e-09
5.7496237e-07
7.945515e-09
5.7407854e-07
6.6192434e-09
5.733971e-07
5.4298334e-09
5.7287192e-07
4.3466026e-09
5.7246997e-07
3.3440983e-09
5.7216761e-07
2.4006973e-09
5.7194804e-07
1.4974884e-09
5.7179966e-07
6.1735071e-10
5.7171491e-07
-2.5583638e-10
5.7168964e-07
-1.1379115e-09
5.7172268e-07
-2.0451341e-09
5.7181579e-07
-2.9949133e-09
5.719738e-07
-4.0066144e-09
5.7220505e-07
-5.1025054e-09
5.7252212e-07
-6.3089095e-09
5.7294311e-07
-7.6576398e-09
5.7349346e-07
-9.187798e-09
5.7420871e-07
-1.0948083e-08
5.7513875e-07
-1.2999822e-08
5.7635407e-07
-1.5420398e-08
5.7795506e-07
-1.8307334e-08
5.8008945e-07
-2.1784976e-08
5.8297403e-07
-2.6009347e-08
5.8690206e-07
-3.1388907e-08
5.9273187e-07
-3.9553362e-08
6.049066e-07
-4.9076759e-08
6.2827179e-07
-3.8525792e-08
6.0130624e-07
3.1701864e-07
3.2835908e-08
2.332068e-07
5.5185075e-08
5.7331853e-07
4.9156609e-08
6.5298474e-07
3.898986e-08
6.2668204e-07
3.236101e-08
6.0544964e-07
2.7450149e-08
5.9591326e-07
2.3372182e-08
5.9006153e-07
1.9939617e-08
5.8575281e-07
1.7035757e-08
5.8253169e-07
1.4558297e-08
5.8010198e-07
1.2423371e-08
5.7824851e-07
1.0563652e-08
5.7682209e-07
8.92482e-09
5.7571738e-07
7.4626047e-09
5.7485932e-07
6.1405978e-09
5.7419392e-07
4.9284954e-09
5.7368207e-07
3.8006548e-09
5.7329545e-07
2.7349172e-09
5.7301378e-07
1.7116319e-09
5.7282294e-07
7.1282405e-10
5.7271372e-07
-2.7853775e-10
5.72681e-07
-1.2792158e-09
5.7272335e-07
-2.3063701e-09
5.7284294e-07
-3.3782422e-09
5.7304567e-07
-4.5148972e-09
5.733417e-07
-5.7390719e-09
5.7374629e-07
-7.0771718e-09
5.7428121e-07
-8.5604735e-09
5.7497677e-07
-1.0226574e-08
5.7587482e-07
-1.2121169e-08
5.7703334e-07
-1.4300438e-08
5.7853334e-07
-1.6833942e-08
5.8048856e-07
-1.9806669e-08
5.8306218e-07
-2.3319616e-08
5.8648698e-07
-2.7514319e-08
5.9109676e-07
-3.2907068e-08
5.9812462e-07
-4.087965e-08
6.1287919e-07
-4.7568533e-08
6.3496067e-07
-3.3315189e-08
5.8705289e-07
2.8370345e-07
2.6159694e-08
2.0704808e-07
5.0055697e-08
5.4942365e-07
4.8398435e-08
6.5464215e-07
3.9399999e-08
6.356803e-07
3.2990134e-08
6.1185945e-07
2.8326526e-08
6.0057687e-07
2.4410148e-08
5.9397791e-07
2.1039573e-08
5.8912338e-07
1.8133747e-08
5.8543751e-07
1.5613333e-08
5.8262239e-07
1.3409105e-08
5.8045273e-07
1.1463792e-08
5.7876741e-07
9.7297882e-09
5.7745138e-07
8.1672091e-09
5.764219e-07
6.7424318e-09
5.756187e-07
5.4268197e-09
5.7499768e-07
4.1956345e-09
5.7452663e-07
3.0271125e-09
5.741823e-07
1.901667e-09
5.7394839e-07
8.0118415e-10
5.738142e-07
-2.9161394e-10
5.737738e-07
-1.3937655e-09
5.738255e-07
-2.5226625e-09
5.7397184e-07
-3.6966549e-09
5.7421967e-07
-4.9356932e-09
5.7458074e-07
-6.2620444e-09
5.7507265e-07
-7.701105e-09
5.7572027e-07
-9.2823487e-09
5.7655801e-07
-1.1040434e-08
5.776329e-07
-1.3016475e-08
5.7900938e-07
-1.5259687e-08
5.8077655e-07
-1.7829506e-08
5.8305838e-07
-2.0795563e-08
5.8602824e-07
-2.4233315e-08
5.8992473e-07
-2.8278095e-08
5.9514154e-07
-3.353182e-08
6.0337834e-07
-4.0898128e-08
6.2024549e-07
-4.4653332e-08
6.3871588e-07
-2.813573e-08
5.7053529e-07
2.5556772e-07
2.0539019e-08
1.8651025e-07
4.4493577e-08
5.2547068e-07
4.6526151e-08
6.5260995e-07
3.9039527e-08
6.4316672e-07
3.297593e-08
6.1792295e-07
2.8612695e-08
6.0494011e-07
2.4936776e-08
5.9765383e-07
2.170753e-08
5.9235263e-07
1.886948e-08
5.8827556e-07
1.6366429e-08
5.8512544e-07
1.4144771e-08
5.8267439e-07
1.215822e-08
5.8075396e-07
1.0366888e-08
5.7924271e-07
8.7363116e-09
5.7805247e-07
7.2366291e-09
5.7711838e-07
5.8417681e-09
5.7639254e-07
4.5287055e-09
5.758397e-07
3.2768015e-09
5.7543421e-07
2.067192e-09
5.75158e-07
8.8223112e-10
5.7499916e-07
-2.9502992e-10
5.7495106e-07
-1.4813394e-09
5.7501181e-07
-2.6937433e-09
5.7518424e-07
-3.9500875e-09
5.7547601e-07
-5.2695435e-09
5.759002e-07
-6.6731745e-09
5.7647628e-07
-8.184554e-09
5.7723165e-07
-9.8304511e-09
5.7820391e-07
-1.1641597e-08
5.7944405e-07
-1.3653481e-08
5.8102126e-07
-1.5907256e-08
5.8303032e-07
-1.8450945e-08
5.8560207e-07
-2.1337871e-08
5.8891516e-07
-2.4622342e-08
5.932092e-07
-2.8449839e-08
5.9896904e-07
-3.346331e-08
6.0839181e-07
-3.9942167e-08
6.2672435e-07
-4.0989235e-08
6.3976294e-07
-2.3340665e-08
5.5288672e-07
2.3222706e-07
1.5980784e-08
1.7053087e-07
3.9040911e-08
5.0241269e-07
4.3977881e-08
6.4767368e-07
3.8149879e-08
6.489945e-07
3.252209e-08
6.2355059e-07
2.8464331e-08
6.0899785e-07
2.5060918e-08
6.0105725e-07
2.2019566e-08
5.9539398e-07
1.9296309e-08
5.9099882e-07
1.6854901e-08
5.8756685e-07
1.4656239e-08
5.8487305e-07
1.2664606e-08
5.8274559e-07
1.0847967e-08
5.8105935e-07
9.1776771e-09
5.7972276e-07
7.6281408e-09
5.7866792e-07
6.1763899e-09
5.7784429e-07
4.8016578e-09
5.7721443e-07
3.4849517e-09
5.7675091e-07
2.2086309e-09
5.7643432e-07
9.5599718e-10
5.762518e-07
-2.8910233e-10
5.7619616e-07
-1.5426634e-09
5.7626538e-07
-2.8209173e-09
5.764625e-07
-4.1407226e-09
5.7679582e-07
-5.5199654e-09
5.7727944e-07
-6.9779754e-09
5.7793429e-07
-8.5359534e-09
5.7878963e-07
-1.0217411e-08
5.7988536e-07
-1.2048626e-08
5.8127526e-07
-1.4059062e-08
5.830317e-07
-1.628173e-08
5.8525299e-07
-1.8753579e-08
5.8807392e-07
-2.1513017e-08
5.916746e-07
-2.4600772e-08
5.9629696e-07
-2.8184238e-08
6.025525e-07
-3.2885552e-08
6.1309313e-07
-3.830665e-08
6.3214545e-07
-3.7018584e-08
6.3847488e-07
-1.9099127e-08
5.3496726e-07
2.1312793e-07
1.2385903e-08
1.5814663e-07
3.3996535e-08
4.8080484e-07
4.108263e-08
6.4058873e-07
3.6908911e-08
6.5316803e-07
3.1782286e-08
6.2867699e-07
2.8015743e-08
6.1276436e-07
2.4885859e-08
6.0418714e-07
2.2052611e-08
5.9822723e-07
1.9471041e-08
5.9358039e-07
1.7120336e-08
5.8991755e-07
1.4973711e-08
5.8701968e-07
1.3004718e-08
5.8471458e-07
1.118858e-08
5.8287549e-07
9.5023025e-09
5.8140904e-07
7.9246308e-09
5.8024559e-07
6.4359165e-09
5.7933301e-07
5.0179401e-09
5.786324e-07
3.6536829e-09
5.7811517e-07
2.3270699e-09
5.7776093e-07
1.0226992e-09
5.7755617e-07
-2.7443686e-10
5.7749329e-07
-1.5792312e-09
5.7757017e-07
-2.9067495e-09
5.7779001e-07
-4.2725123e-09
5.7816158e-07
-5.6927746e-09
5.786997e-07
-7.1848007e-09
5.7942631e-07
-8.7671249e-09
5.8037196e-07
-1.0459784e-08
5.8157802e-07
-1.2284526e-08
5.831e-07
-1.4264973e-08
5.8501215e-07
-1.6426649e-08
5.8741467e-07
-1.8796669e-08
5.9044394e-07
-2.1400851e-08
5.9427878e-07
-2.4273518e-08
5.9916962e-07
-2.7606806e-08
6.0588579e-07
-3.1940868e-08
6.1742719e-07
-3.6233524e-08
6.364381e-07
-3.3042341e-08
6.352837e-07
-1.5472491e-08
5.1739741e-07
1.9765544e-07
9.615678e-09
1.4853292e-07
2.9512511e-08
4.6091152e-07
3.8086782e-08
6.3201616e-07
3.5454456e-08
6.5580025e-07
3.0867222e-08
6.3326392e-07
2.737084e-08
6.1626068e-07
2.4497781e-08
6.070602e-07
2.1875097e-08
6.0084992e-07
1.9447233e-08
5.9600825e-07
1.7203965e-08
5.9216082e-07
1.5128497e-08
5.8909515e-07
1.3202091e-08
5.8664099e-07
1.1406258e-08
5.8467132e-07
9.7231147e-09
5.8309218e-07
8.1355029e-09
5.818332e-07
6.6270491e-09
5.8084146e-07
5.182158e-09
5.8007729e-07
3.7859371e-09
5.7951139e-07
2.4240741e-09
5.7912279e-07
1.0826854e-09
5.7889756e-07
-2.5185613e-10
5.7882784e-07
-1.5931019e-09
5.7891142e-07
-2.9547163e-09
5.7915163e-07
-4.3506592e-09
5.7955752e-07
-5.795357e-09
5.801444e-07
-7.3038567e-09
5.8093481e-07
-8.8919497e-09
5.8196005e-07
-1.0576249e-08
5.8326232e-07
-1.237422e-08
5.8489797e-07
-1.4304167e-08
5.8694209e-07
-1.6385065e-08
5.8949556e-07
-1.8635657e-08
5.9269453e-07
-2.1071824e-08
5.9671495e-07
-2.3727584e-08
6.0182538e-07
-2.6815833e-08
6.0897404e-07
-3.0747002e-08
6.2135836e-07
-3.3926596e-08
6.396177e-07
-2.9265265e-08
6.3062236e-07
-1.2455855e-08
5.00588e-07
1.8519959e-07
7.5212443e-09
1.4101401e-07
2.5636295e-08
4.4280084e-07
3.5160921e-08
6.2249393e-07
3.3896006e-08
6.5706522e-07
2.9859388e-08
6.3730015e-07
2.6609118e-08
6.1951083e-07
2.3965949e-08
6.0970338e-07
2.1544434e-08
6.0327144e-07
1.9271832e-08
5.9828086e-07
1.7143544e-08
5.9428911e-07
1.5150468e-08
5.9108822e-07
1.3280047e-08
5.8851141e-07
1.1518993e-08
5.8643238e-07
9.8538173e-09
5.8475736e-07
8.2710325e-09
5.8341599e-07
6.7573167e-09
5.8235518e-07
5.2996157e-09
5.81535e-07
3.8851745e-09
5.8092583e-07
2.5015165e-09
5.8050645e-07
1.1363869e-09
5.8026269e-07
-2.223302e-10
5.8018655e-07
-1.5867074e-09
5.8027579e-07
-2.968878e-09
5.805338e-07
-4.3811313e-09
5.8096978e-07
-5.8359944e-09
5.8159926e-07
-7.3462879e-09
5.8244511e-07
-8.9251469e-09
5.8353891e-07
-1.0585987e-08
5.8492316e-07
-1.2342416e-08
5.866544e-07
-1.4208109e-08
5.8880779e-07
-1.6196513e-08
5.9148397e-07
-1.8319535e-08
5.9481755e-07
-2.0586083e-08
5.989815e-07
-2.3034851e-08
6.0427415e-07
-2.589108e-08
6.1183027e-07
-2.9404559e-08
6.2487184e-07
-3.154711e-08
6.4176025e-07
-2.580931e-08
6.2488456e-07
-1.000236e-08
4.8478106e-07
1.7519723e-07
5.9620076e-09
1.3505481e-07
2.2345935e-08
4.2642228e-07
3.2406612e-08
6.1243652e-07
3.2313611e-08
6.5715853e-07
2.8818356e-08
6.4079494e-07
2.579022e-08
6.2253879e-07
2.3345246e-08
6.1214835e-07
2.1107806e-08
6.0550889e-07
1.8984677e-08
6.0040399e-07
1.6972196e-08
5.9630159e-07
1.5066724e-08
5.9299369e-07
1.3260434e-08
5.903177e-07
1.1544147e-08
5.8814866e-07
9.908003e-09
5.863935e-07
8.3416672e-09
5.8498232e-07
6.8345431e-09
5.838623e-07
5.3759278e-09
5.8299361e-07
3.955112e-09
5.8234665e-07
2.5614308e-09
5.8190013e-07
1.1842765e-09
5.8163984e-07
-1.8691318e-10
5.8155774e-07
-1.5626824e-09
5.8165156e-07
-2.9535919e-09
5.8192471e-07
-4.3702447e-09
5.8238643e-07
-5.823296e-09
5.8305231e-07
-7.323437e-09
5.8394525e-07
-8.8813406e-09
5.8509681e-07
-1.0507558e-08
5.8654938e-07
-1.2212358e-08
5.883592e-07
-1.4005552e-08
5.9060098e-07
-1.5896118e-08
5.9337453e-07
-1.7890715e-08
5.9681215e-07
-1.9994327e-08
6.0108511e-07
-2.2253743e-08
6.0653357e-07
-2.4895521e-08
6.1447205e-07
-2.7993633e-08
6.2796995e-07
-2.9208829e-08
6.4297545e-07
-2.2729371e-08
6.1840511e-07
-8.0433908e-09
4.7009507e-07
1.6715383e-07
4.8152624e-09
1.3024292e-07
1.9582733e-08
4.1166133e-07
2.9871824e-08
6.0215172e-07
3.0759201e-08
6.5627181e-07
2.7783086e-08
6.4377052e-07
2.4955884e-08
6.2536574e-07
2.2677317e-08
6.144269e-07
2.0602848e-08
6.0758337e-07
1.8618673e-08
6.0238817e-07
1.6718146e-08
5.9820212e-07
1.4901042e-08
5.948108e-07
1.3162948e-08
5.9205579e-07
1.149778e-08
5.8981383e-07
9.8985404e-09
5.8799274e-07
8.3575078e-09
5.8652336e-07
6.8664308e-09
5.8535338e-07
5.4167054e-09
5.8444334e-07
3.9995075e-09
5.8376384e-07
2.6058881e-09
5.8329375e-07
1.226835e-09
5.8301889e-07
-1.4668859e-10
5.8293127e-07
-1.5237186e-09
5.8302859e-07
-2.9132734e-09
5.8331426e-07
-4.3243248e-09
5.8379748e-07
-5.7657572e-09
5.8449375e-07
-7.2462998e-09
5.8542579e-07
-8.7744261e-09
5.8662494e-07
-1.0358212e-08
5.8813317e-07
-1.2005154e-08
5.9000614e-07
-1.3721976e-08
5.923178e-07
-1.5514219e-08
5.9516678e-07
-1.7384824e-08
5.9868275e-07
-1.9337609e-08
6.030379e-07
-2.1429069e-08
6.0862503e-07
-2.3875268e-08
6.1691825e-07
-2.6572441e-08
6.3066712e-07
-2.6983399e-08
6.433864e-07
-2.0034474e-08
6.1145618e-07
-6.503179e-09
4.5656378e-07
1.6065066e-07
3.9786663e-09
1.2626831e-07
1.727409e-08
3.9837378e-07
2.7570232e-08
5.9186111e-07
2.9262978e-08
6.545802e-07
2.6776225e-08
6.462567e-07
2.413272e-08
6.280089e-07
2.1991795e-08
6.1656778e-07
2.0058197e-08
6.0951698e-07
1.8200003e-08
6.0424636e-07
1.640468e-08
5.9999744e-07
1.4673646e-08
5.9654183e-07
1.3004796e-08
5.9372464e-07
1.1394251e-08
5.9142438e-07
9.8371823e-09
5.8954981e-07
8.3279502e-09
5.8803259e-07
6.8602589e-09
5.8682107e-07
5.4273194e-09
5.8587628e-07
4.0219915e-09
5.8516917e-07
2.6368999e-09
5.8467885e-07
1.264525e-09
5.8439127e-07
-1.0272501e-10
5.8429852e-07
-1.4724495e-09
5.8439832e-07
-2.8522082e-09
5.8469402e-07
-4.2494487e-09
5.8519472e-07
-5.6714336e-09
5.8591573e-07
-7.1251427e-09
5.868795e-07
-8.6171477e-09
5.8811694e-07
-1.0153461e-08
5.8966948e-07
-1.1739359e-08
5.9159204e-07
-1.3379211e-08
5.9395766e-07
-1.5076057e-08
5.9686362e-07
-1.6830477e-08
6.0043717e-07
-1.8647372e-08
6.0485479e-07
-2.0592927e-08
6.1057058e-07
-2.2861668e-08
6.1918699e-07
-2.5180179e-08
6.3298563e-07
-2.4910102e-08
6.4311633e-07
-1.7705774e-08
6.0425185e-07
-5.3072796e-09
4.4416529e-07
1.5534338e-07
3.3695788e-09
1.2290364e-07
1.534609e-08
3.8640672e-07
2.5494935e-08
5.8171926e-07
2.7839919e-08
6.5223699e-07
2.580907e-08
6.4828697e-07
2.3336013e-08
6.304815e-07
2.1308453e-08
6.1859526e-07
1.9494613e-08
6.1133084e-07
1.7748683e-08
6.059923e-07
1.6050348e-08
6.0169578e-07
1.4401201e-08
5.9819098e-07
1.2800558e-08
5.9532529e-07
1.1246024e-08
5.9297891e-07
9.7343369e-09
5.910615e-07
8.261461e-09
5.8950546e-07
6.8226813e-09
5.8825985e-07
5.412736e-09
5.8728622e-07
4.0259487e-09
5.8655596e-07
2.6563482e-09
5.8604845e-07
1.2977729e-09
5.8574984e-07
-5.6041814e-11
5.8565233e-07
-1.4113635e-09
5.8575364e-07
-2.7744163e-09
5.8605708e-07
-4.1512615e-09
5.8657157e-07
-5.5477189e-09
5.8731219e-07
-6.969251e-09
5.8830103e-07
-8.4208336e-09
5.8956853e-07
-9.906812e-09
5.9115546e-07
-1.1430756e-08
5.9311599e-07
-1.2995318e-08
5.9552222e-07
-1.4601831e-08
5.9847014e-07
-1.6249674e-08
6.0208502e-07
-1.7946504e-08
6.0655162e-07
-1.9766915e-08
6.1239099e-07
-2.187457e-08
6.2129464e-07
-2.3841139e-08
6.349522e-07
-2.3005315e-08
6.422805e-07
-1.5709018e-08
5.9695556e-07
-4.3872463e-09
4.3284351e-07
1.5095613e-07
2.9234175e-09
1.1998616e-07
1.3730181e-08
3.7561126e-07
2.3627796e-08
5.7183036e-07
2.649473e-08
6.4937264e-07
2.4885418e-08
6.4989575e-07
2.2573156e-08
6.3279318e-07
2.0639586e-08
6.2052871e-07
1.8926491e-08
6.1304394e-07
1.7279476e-08
6.0763933e-07
1.5669462e-08
6.0330579e-07
1.4097038e-08
5.997634e-07
1.2562246e-08
5.9686008e-07
1.106362e-08
5.9447754e-07
9.5989739e-09
5.9252614e-07
8.1654615e-09
5.9093898e-07
6.7596113e-09
5.896657e-07
5.3774154e-09
5.8866842e-07
4.0144407e-09
5.8791893e-07
2.6659398e-09
5.8739695e-07
1.3269579e-09
5.8708883e-07
-7.5680598e-12
5.8698686e-07
-1.3427447e-09
5.8708881e-07
-2.6835608e-09
5.8739789e-07
-4.0348596e-09
5.8792286e-07
-5.401209e-09
5.8867854e-07
-6.7867891e-09
5.8968661e-07
-8.195271e-09
5.9097701e-07
-9.6296965e-09
5.9258988e-07
-1.1092372e-08
5.9457866e-07
-1.2584768e-08
5.9701462e-07
-1.410716e-08
5.9999253e-07
-1.5658681e-08
6.0363654e-07
-1.725085e-08
6.0814379e-07
-1.8964503e-08
6.1410464e-07
-2.0925199e-08
6.2325534e-07
-2.2568239e-08
6.3659524e-07
-2.1269766e-08
6.4098203e-07
-1.4002917e-08
5.8968871e-07
-3.6831718e-09
4.2252377e-07
1.4727296e-07
2.5914013e-09
1.1740198e-07
1.2366539e-08
3.6584961e-07
2.194579e-08
5.6226187e-07
2.522559e-08
6.4609644e-07
2.4004268e-08
6.5111664e-07
2.184621e-08
6.3495052e-07
1.9992017e-08
6.2238271e-07
1.8363313e-08
6.1467265e-07
1.68029e-08
6.0919975e-07
1.5272754e-08
6.0483594e-07
1.3771544e-08
6.0126461e-07
1.2299516e-08
5.9833211e-07
1.0855711e-08
5.9592134e-07
9.4386381e-09
5.9394322e-07
8.0462995e-09
5.9233131e-07
6.6761752e-09
5.9103582e-07
5.325264e-09
5.9001933e-07
3.990167e-09
5.8925403e-07
2.6671812e-09
5.8871993e-07
1.352397e-09
5.8840361e-07
4.1796455e-11
5.8829746e-07
-1.2686489e-09
5.8839926e-07
-2.5828987e-09
5.8871214e-07
-3.9047303e-09
5.892447e-07
-5.2376438e-09
5.9001145e-07
-6.5847578e-09
5.9103373e-07
-7.9487046e-09
5.9234095e-07
-9.3315382e-09
5.9397272e-07
-1.0734673e-08
5.959818e-07
-1.2158825e-08
5.9843877e-07
-1.3603727e-08
6.0143743e-07
-1.506902e-08
6.0510183e-07
-1.6570664e-08
6.0964543e-07
-1.819301e-08
6.1572699e-07
-2.0018418e-08
6.2508075e-07
-2.136606e-08
6.3794288e-07
-1.9694339e-08
6.3931031e-07
-1.2544802e-08
5.8253917e-07
-3.1446637e-09
4.1312363e-07
1.4412829e-07
2.3378506e-09
1.1507293e-07
1.120518e-08
3.5699835e-07
2.0425085e-08
5.530551e-07
2.4027045e-08
6.4249933e-07
2.3161827e-08
6.5198163e-07
2.1153793e-08
6.369577e-07
1.936867e-08
6.2416757e-07
1.7810845e-08
6.1623048e-07
1.6326134e-08
6.1068447e-07
1.4868027e-08
6.0629405e-07
1.3432613e-08
6.0270002e-07
1.2019948e-08
5.9974477e-07
1.0629287e-08
5.97312e-07
9.2595391e-09
5.9531297e-07
7.909288e-09
5.9368157e-07
6.5767206e-09
5.9236839e-07
5.2596277e-09
5.9133642e-07
3.9554542e-09
5.905582e-07
2.6613736e-09
5.9001401e-07
1.3743715e-09
5.8969061e-07
9.1335456e-11
5.8958049e-07
-1.1908602e-09
5.8968146e-07
-2.4752595e-09
5.8999654e-07
-3.7647379e-09
5.9053417e-07
-5.0619072e-09
5.9130862e-07
-6.3690272e-09
5.9234085e-07
-7.6879223e-09
5.9365985e-07
-9.0199237e-09
5.9530472e-07
-1.0365851e-08
5.9732772e-07
-1.1725993e-08
5.9979891e-07
-1.3099938e-08
6.0281137e-07
-1.4488391e-08
6.0649028e-07
-1.5911872e-08
6.1106891e-07
-1.745526e-08
6.1727038e-07
-1.9154626e-08
6.2678011e-07
-2.0233526e-08
6.3902178e-07
-1.8264575e-08
6.3734136e-07
-1.1294244e-08
5.7556884e-07
-2.730701e-09
4.0456009e-07
1.4139759e-07
2.1374439e-09
1.1294622e-07
1.0205576e-08
3.4894934e-07
1.9043328e-08
5.4423327e-07
2.2892054e-08
6.3865699e-07
2.2352979e-08
6.5252076e-07
2.0492516e-08
6.3881718e-07
1.8769815e-08
6.2588991e-07
1.7272134e-08
6.1772814e-07
1.585379e-08
6.1210284e-07
1.4460747e-08
6.076871e-07
1.3086079e-08
6.0407469e-07
1.1729361e-08
6.0110149e-07
1.0389862e-08
5.986515e-07
9.0666853e-09
5.9663614e-07
7.7587858e-09
5.9498946e-07
6.4648623e-09
5.9366232e-07
5.1833153e-09
5.9261797e-07
3.9122681e-09
5.9182925e-07
2.6496172e-09
5.9127666e-07
1.3930999e-09
5.9094713e-07
1.4037023e-10
5.9083322e-07
-1.1109225e-09
5.9093275e-07
-2.363054e-09
5.9124867e-07
-3.6181425e-09
5.9178926e-07
-4.8780717e-09
5.9256855e-07
-6.1444178e-09
5.9360719e-07
-7.4183925e-09
5.9493382e-07
-8.7008174e-09
5.9658714e-07
-9.9921462e-09
5.9861905e-07
-1.1292482e-08
6.0109925e-07
-1.2601551e-08
6.0412044e-07
-1.3921513e-08
6.0781025e-07
-1.527719e-08
6.1242459e-07
-1.6750979e-08
6.1874417e-07
-1.8331355e-08
6.2836049e-07
-1.9166116e-08
6.3985654e-07
-1.6963859e-08
6.351391e-07
-1.021519e-08
5.6882017e-07
-2.4088349e-09
3.9675373e-07
1.3898876e-07
1.9727452e-09
1.1098657e-07
9.3355459e-09
3.416093e-07
1.7780689e-08
5.358073e-07
2.1813267e-08
6.3463263e-07
2.1572268e-08
6.5276225e-07
1.9858002e-08
6.4053032e-07
1.8194043e-08
6.275534e-07
1.6748316e-08
6.1917382e-07
1.5388572e-08
6.134626e-07
1.4054567e-08
6.0902111e-07
1.2736116e-08
6.0539314e-07
1.1432111e-08
6.024055e-07
1.0141699e-08
5.9994191e-07
8.8640379e-09
5.979138e-07
7.5983031e-09
5.962552e-07
6.3435503e-09
5.9491707e-07
5.098642e-09
5.9386288e-07
3.8622376e-09
5.9306566e-07
2.6328227e-09
5.9250608e-07
1.4087576e-09
5.9217119e-07
1.8833814e-10
5.9205364e-07
-1.030137e-09
5.9215122e-07
-2.2483006e-09
5.9246684e-07
-3.4676468e-09
5.9300861e-07
-4.6894699e-09
5.9379037e-07
-5.9148117e-09
5.9483253e-07
-7.1444285e-09
5.9616344e-07
-8.3787977e-09
5.9782151e-07
-9.6181741e-09
5.9985843e-07
-1.086264e-08
6.0234371e-07
-1.2112261e-08
6.0537007e-07
-1.3370877e-08
6.0906886e-07
-1.466708e-08
6.137208e-07
-1.607793e-08
6.2015502e-07
-1.7544507e-08
6.2982707e-07
-1.8157491e-08
6.4046953e-07
-1.5775362e-08
6.3275697e-07
-9.2764213e-09
5.6232123e-07
-2.1539538e-09
3.8963127e-07
1.368348e-07
1.8321187e-09
1.0917035e-07
8.5698921e-09
3.3489862e-07
1.6620146e-08
5.2778003e-07
2.0783736e-08
6.3047947e-07
2.0814468e-08
6.5273259e-07
1.9245571e-08
6.4209797e-07
1.7638974e-08
6.2915939e-07
1.6239249e-08
6.2057347e-07
1.4931816e-08
6.1477006e-07
1.3651773e-08
6.1030116e-07
1.2385604e-08
6.0665931e-07
1.1131369e-08
6.0365973e-07
9.8880168e-09
6.0118526e-07
8.6546705e-09
5.9914715e-07
7.4306161e-09
5.9747925e-07
6.2151518e-09
5.9613253e-07
5.0074837e-09
5.9507054e-07
3.8066909e-09
5.9426645e-07
2.6117332e-09
5.9370104e-07
1.4214816e-09
5.9336145e-07
2.34764e-10
5.9324036e-07
-9.4958335e-10
5.9333557e-07
-2.1326608e-09
5.9364991e-07
-3.315453e-09
5.941914e-07
-4.498783e-09
5.949737e-07
-5.6832786e-09
5.9601703e-07
-6.8693643e-09
5.9734953e-07
-8.0572951e-09
5.9900944e-07
-9.2472413e-09
6.0104837e-07
-1.043937e-08
6.0353584e-07
-1.1634216e-08
6.0656491e-07
-1.2837396e-08
6.1027204e-07
-1.4080534e-08
6.1496393e-07
-1.5432778e-08
6.2150726e-07
-1.6789243e-08
6.3118353e-07
-1.7200634e-08
6.4088092e-07
-1.4683231e-08
6.3023957e-07
-8.4516711e-09
5.5608967e-07
-1.9470672e-09
3.8312666e-07
1.3488774e-07
1.7080412e-09
1.0748151e-07
7.8890415e-09
3.2874988e-07
1.5547374e-08
5.2014913e-07
1.9797241e-08
6.2624265e-07
2.0074878e-08
6.5245679e-07
1.8650647e-08
6.4352087e-07
1.7101749e-08
6.3070753e-07
1.5743986e-08
6.2193111e-07
1.4483911e-08
6.1603015e-07
1.3253653e-08
6.1153143e-07
1.2036435e-08
6.0787653e-07
1.0829381e-08
6.0486678e-07
9.6311988e-09
6.0238345e-07
8.4409243e-09
6.0033742e-07
7.2578849e-09
5.9866229e-07
6.0815364e-09
5.9730888e-07
4.911338e-09
5.9624074e-07
3.7466945e-09
5.9543109e-07
2.586945e-09
5.9486079e-07
1.4313763e-09
5.9451701e-07
2.7925307e-10
5.9439248e-07
-8.7014536e-10
5.9448497e-07
-2.0174827e-09
5.9479725e-07
-3.16333e-09
5.9533725e-07
-4.3081346e-09
5.9611851e-07
-5.4522062e-09
5.971611e-07
-6.5957291e-09
5.9849305e-07
-7.7388207e-09
6.0015253e-07
-8.8816382e-09
6.0219119e-07
-1.0024493e-08
6.0467869e-07
-1.1168462e-08
6.0770888e-07
-1.2320925e-08
6.114245e-07
-1.3515668e-08
6.1615868e-07
-1.4811708e-08
6.228033e-07
-1.6060608e-08
6.3243243e-07
-1.6288599e-08
6.4110891e-07
-1.3673235e-08
6.276242e-07
-7.7193087e-09
5.5013574e-07
-1.7741379e-09
3.7718149e-07
1.331136e-07
1.5957917e-09
1.0590878e-07
7.277821e-09
3.2310628e-07
1.4550423e-08
5.1290917e-07
1.8848389e-08
6.2196085e-07
1.9349438e-08
6.5195856e-07
1.8068987e-08
6.4479993e-07
1.6579352e-08
6.3219624e-07
1.5261109e-08
6.2324917e-07
1.4044627e-08
6.1724665e-07
1.2860796e-08
6.1271527e-07
1.1689774e-08
6.0904756e-07
1.0527684e-08
6.0602887e-07
9.372967e-09
6.0353816e-07
8.2245521e-09
6.0148584e-07
7.0817648e-09
5.9980508e-07
5.9441609e-09
5.9844648e-07
4.8113848e-09
5.9737352e-07
3.6830942e-09
5.9655938e-07
2.558931e-09
5.9598495e-07
1.4385194e-09
5.9563743e-07
3.2148184e-10
5.9550952e-07
-7.9253838e-10
5.9559899e-07
-1.9038477e-09
5.9590856e-07
-3.0126811e-09
5.9644608e-07
-4.1191866e-09
5.9722501e-07
-5.223427e-09
5.9826534e-07
-6.3254119e-09
5.9959503e-07
-7.4251744e-09
6.012523e-07
-8.5228963e-09
6.0328891e-07
-9.6190572e-09
6.0577486e-07
-1.0715302e-08
6.0880513e-07
-1.1820676e-08
6.1252988e-07
-1.2970179e-08
6.1730818e-07
-1.4210876e-08
6.24044e-07
-1.5353947e-08
6.335755e-07
-1.5414996e-08
6.4116996e-07
-1.2733035e-08
6.2494224e-07
-7.0618158e-09
5.4446452e-07
-1.6250117e-09
3.7174469e-07
1.3148859e-07
1.4924788e-09
1.0444382e-07
6.7244178e-09
3.1792011e-07
1.3619341e-08
5.0605297e-07
1.793258e-08
6.1766743e-07
1.8634739e-08
6.5126046e-07
1.7496804e-08
6.4593648e-07
1.606882e-08
6.336231e-07
1.4788973e-08
6.2452876e-07
1.3613349e-08
6.1842228e-07
1.247332e-08
6.1385532e-07
1.1346271e-08
6.1017461e-07
1.0227289e-08
6.0714786e-07
9.1145413e-09
6.0465091e-07
8.0068475e-09
6.0259353e-07
6.9035103e-09
6.0090842e-07
5.8041487e-09
5.9954585e-07
4.7085449e-09
5.9846912e-07
3.6165545e-09
5.9765137e-07
2.5280626e-09
5.9707344e-07
1.4429682e-09
5.9672252e-07
3.611875e-10
5.965913e-07
-7.1733631e-10
5.9667751e-07
-1.7926158e-09
5.9698384e-07
-2.8646115e-09
5.9751808e-07
-3.9332291e-09
5.9829363e-07
-4.9983364e-09
5.9933045e-07
-6.0598099e-09
6.0065651e-07
-7.1176276e-09
6.0231011e-07
-8.1720063e-09
6.0434329e-07
-9.2235923e-09
6.0682644e-07
-1.0274592e-08
6.0985613e-07
-1.1335539e-08
6.1359082e-07
-1.2441677e-08
6.1841432e-07
-1.3626714e-08
6.2522903e-07
-1.4665172e-08
6.3461396e-07
-1.4574257e-08
6.4107904e-07
-1.185221e-08
6.222202e-07
-6.4651947e-09
5.3907751e-07
-1.4924987e-09
3.6677199e-07
1.2999609e-07
1.3963451e-09
1.0308012e-07
6.2195411e-09
3.131514e-07
1.2745789e-08
4.9957258e-07
1.704591e-08
6.1339142e-07
1.7927976e-08
6.5038399e-07
1.6930807e-08
6.4693234e-07
1.556738e-08
6.3498521e-07
1.4325873e-08
6.2576992e-07
1.3189261e-08
6.1955889e-07
1.2091051e-08
6.1495355e-07
1.1006228e-08
6.1125944e-07
9.9288366e-09