/*--------------------------------*- C++ -*----------------------------------*\
  =========                 |
  \\      /  F ield         | OpenFOAM: The Open Source CFD Toolbox
   \\    /   O peration     | Website:  https://openfoam.org
    \\  /    A nd           | Version:  10
     \\/     M anipulation  |
\*---------------------------------------------------------------------------*/
FoamFile
{
    format      ascii;
    class       volVectorField;
    location    "0.12";
    object      U;
}
// * * * * * * * * * * * * * * * * * * * * * * * * * * * * * * * * * * * * * //

dimensions      [0 1 -1 0 0 0 0];

internalField   nonuniform List<vector> 
4000
(
(0 0.018635839 0.47773238)
(0 0.023506962 0.50886017)
(0 0.0081640457 0.50052533)
(0 0.0056118048 0.50033643)
(0 0.0042516151 0.50025748)
(0 0.0032518646 0.50016898)
(0 0.0025530467 0.50011967)
(0 0.0020516417 0.5000901)
(0 0.0016738029 0.50006977)
(0 0.0013796821 0.50005534)
(0 0.0011449012 0.50004493)
(0 0.00095311644 0.50003726)
(0 0.00079306891 0.50003152)
(0 0.00065677833 0.50002719)
(0 0.00053841185 0.5000239)
(0 0.00043358422 0.50002141)
(0 0.00033890362 0.50001956)
(0 0.0002516635 0.50001823)
(0 0.00016962655 0.50001734)
(0 9.0866131e-05 0.50001683)
(0 1.3644356e-05 0.50001668)
(0 -6.3695909e-05 0.50001688)
(0 -0.00014282206 0.50001744)
(0 -0.00022550353 0.5000184)
(0 -0.00031372329 0.50001981)
(0 -0.00040980804 0.50002176)
(0 -0.00051660018 0.50002438)
(0 -0.00063769706 0.50002785)
(0 -0.00077779906 0.50003245)
(0 -0.00094323943 0.50003858)
(0 -0.0011428356 0.50004684)
(0 -0.0013892549 0.50005821)
(0 -0.0017012545 0.50007413)
(0 -0.0021091946 0.5000971)
(0 -0.0026690059 0.50013485)
(0 -0.0034628579 0.50020245)
(0 -0.0045555928 0.5002716)
(0 -0.0065800489 0.50043387)
(0 -0.01765443 0.50675337)
(0 -0.013587564 0.47975705)
(0 0.037428241 0.44797475)
(0 0.050946586 0.53232564)
(0 0.021960079 0.50804308)
(0 0.016126744 0.50357378)
(0 0.012406548 0.50242337)
(0 0.0095062805 0.501623)
(0 0.0075110813 0.50115647)
(0 0.006060679 0.50086565)
(0 0.0049558703 0.50066761)
(0 0.0040921053 0.50052851)
(0 0.0034004162 0.50042844)
(0 0.0028338405 0.50035485)
(0 0.0023599902 0.50029988)
(0 0.0019557673 0.50025842)
(0 0.0016041979 0.50022701)
(0 0.0012924726 0.5002033)
(0 0.0010106532 0.50018566)
(0 0.00075078749 0.50017296)
(0 0.00050628752 0.50016443)
(0 0.00027146938 0.50015958)
(0 4.11985e-05 0.50015816)
(0 -0.00018941953 0.50016007)
(0 -0.00042530945 0.50016544)
(0 -0.00067169689 0.50017457)
(0 -0.0009344286 0.50018803)
(0 -0.0012203509 0.50020664)
(0 -0.0015378058 0.50023164)
(0 -0.0018973184 0.50026484)
(0 -0.00231259 0.50030885)
(0 -0.0028019822 0.50036757)
(0 -0.003390894 0.50044694)
(0 -0.0041157285 0.50055645)
(0 -0.0050295978 0.50071118)
(0 -0.0062124048 0.50093673)
(0 -0.0078130591 0.50129473)
(0 -0.010107482 0.5019112)
(0 -0.013090171 0.50282644)
(0 -0.017409972 0.50608201)
(0 -0.038743503 0.52526731)
(0 -0.027887254 0.4502264)
(0 0.039881583 0.40983539)
(0 0.061412464 0.54931013)
(0 0.0319666 0.52188177)
(0 0.024339663 0.51008177)
(0 0.019176826 0.50658913)
(0 0.014960201 0.50452807)
(0 0.011990042 0.50327097)
(0 0.0097558224 0.50245757)
(0 0.0080213087 0.50189991)
(0 0.0066508217 0.50150722)
(0 0.0055441119 0.50122372)
(0 0.0046316208 0.50101472)
(0 0.0038645862 0.50085834)
(0 0.0032075883 0.50074023)
(0 0.0026342694 0.50065068)
(0 0.0021245525 0.50058302)
(0 0.0016627375 0.50053264)
(0 0.0012361805 0.50049634)
(0 0.00083435074 0.50047196)
(0 0.00044812472 0.5004581)
(0 6.9236857e-05 0.50045401)
(0 -0.00031019965 0.50045948)
(0 -0.00069811974 0.50047482)
(0 -0.0011029292 0.50050093)
(0 -0.001534001 0.50053935)
(0 -0.002002259 0.50059247)
(0 -0.0025209321 0.50066379)
(0 -0.0031065854 0.50075839)
(0 -0.0037805833 0.50088366)
(0 -0.0045712025 0.50105053)
(0 -0.0055168383 0.50127553)
(0 -0.0066715149 0.50158482)
(0 -0.0081124875 0.5020205)
(0 -0.0099439144 0.50265102)
(0 -0.012338629 0.50361605)
(0 -0.015684764 0.50520107)
(0 -0.019843683 0.50785705)
(0 -0.02515692 0.51641339)
(0 -0.04739036 0.5391305)
(0 -0.030841975 0.41490681)
(0 0.034783321 0.36175913)
(0 0.063816401 0.55457201)
(0 0.039353533 0.53747063)
(0 0.030059212 0.51849408)
(0 0.024087515 0.51197832)
(0 0.019254348 0.5084994)
(0 0.015711361 0.50626333)
(0 0.012930244 0.50475373)
(0 0.010721048 0.503702)
(0 0.0089470284 0.50295307)
(0 0.0074951162 0.50240744)
(0 0.0062856133 0.50200264)
(0 0.0052606804 0.50169839)
(0 0.0043770263 0.50146775)
(0 0.0036018009 0.50129239)
(0 0.0029095869 0.50115962)
(0 0.0022802445 0.50106058)
(0 0.0016973795 0.50098914)
(0 0.0011472174 0.50094109)
(0 0.00061774354 0.50091377)
(0 9.8022527e-05 0.50090569)
(0 -0.00042240209 0.50091644)
(0 -0.00095404898 0.50094666)
(0 -0.001508026 0.50099805)
(0 -0.0020966522 0.50107362)
(0 -0.0027341745 0.50117795)
(0 -0.0034376754 0.50131774)
(0 -0.0042282781 0.5015027)
(0 -0.005132811 0.50174681)
(0 -0.0061861054 0.50207058)
(0 -0.0074340862 0.50250447)
(0 -0.0089390452 0.5030955)
(0 -0.010788422 0.50391842)
(0 -0.013088882 0.50508961)
(0 -0.015976102 0.50680862)
(0 -0.019852838 0.50947103)
(0 -0.024687725 0.51427967)
(0 -0.031067385 0.52824817)
(0 -0.050280516 0.54408581)
(0 -0.028422993 0.37243296)
(0 0.027415066 0.31489052)
(0 0.062285506 0.5502615)
(0 0.044576317 0.55146701)
(0 0.033947682 0.52748904)
(0 0.027429431 0.51772383)
(0 0.022420449 0.51291963)
(0 0.018602713 0.50972972)
(0 0.015495295 0.50748959)
(0 0.01297521 0.5058957)
(0 0.010913556 0.50474158)
(0 0.0091989087 0.50388983)
(0 0.0077523723 0.50325198)
(0 0.0065139151 0.50276912)
(0 0.0054370671 0.50240104)
(0 0.0044857355 0.50211993)
(0 0.0036314101 0.50190635)
(0 0.0028511024 0.50174661)
(0 0.0021258283 0.50163113)
(0 0.0014394489 0.50155336)
(0 0.00077775787 0.50150906)
(0 0.00012774452 0.50149593)
(0 -0.00052306845 0.50151331)
(0 -0.0011872296 0.50156219)
(0 -0.0018779354 0.50164528)
(0 -0.002609716 0.50176726)
(0 -0.0033992055 0.50193528)
(0 -0.0042660881 0.50215976)
(0 -0.0052343086 0.50245558)
(0 -0.0063336817 0.50284402)
(0 -0.0076020504 0.50335572)
(0 -0.0090877521 0.50403535)
(0 -0.0108533 0.50494946)
(0 -0.012985608 0.50620089)
(0 -0.015588615 0.5079446)
(0 -0.018750222 0.51040705)
(0 -0.022832083 0.51406027)
(0 -0.028115762 0.52115111)
(0 -0.035641548 0.53932823)
(0 -0.050424313 0.54158872)
(0 -0.024068018 0.3306442)
(0 0.019828245 0.27526645)
(0 0.057954019 0.53978602)
(0 0.047312929 0.56256612)
(0 0.036430973 0.53660383)
(0 0.029590454 0.52350847)
(0 0.024630615 0.51740279)
(0 0.020729634 0.5133602)
(0 0.017466872 0.51043971)
(0 0.014773781 0.50831758)
(0 0.012529328 0.50675354)
(0 0.010631943 0.50558301)
(0 0.0090095801 0.50469689)
(0 0.0076045642 0.50402021)
(0 0.0063709795 0.50350077)
(0 0.0052723114 0.50310186)
(0 0.0042790356 0.50279742)
(0 0.0033668683 0.50256893)
(0 0.0025154174 0.5024033)
(0 0.0017071033 0.50229152)
(0 0.00092628231 0.50222775)
(0 0.00015851981 0.50220877)
(0 -0.00061007478 0.5022337)
(0 -0.0013934677 0.5023039)
(0 -0.0022062751 0.50242309)
(0 -0.0030644573 0.50259774)
(0 -0.0039860684 0.50283763)
(0 -0.0049921544 0.50315692)
(0 -0.0061078551 0.50357561)
(0 -0.0073637982 0.5041219)
(0 -0.0087979949 0.50483575)
(0 -0.010457801 0.50577418)
(0 -0.012401602 0.5070195)
(0 -0.014709696 0.50869491)
(0 -0.01748404 0.51098215)
(0 -0.020778729 0.51412376)
(0 -0.024890019 0.51873735)
(0 -0.030426109 0.52823493)
(0 -0.03854179 0.54872858)
(0 -0.048442915 0.53404822)
(0 -0.019046593 0.29406621)
(0 0.013073242 0.24264802)
(0 0.051756448 0.52526598)
(0 0.047644644 0.57025518)
(0 0.037695735 0.54552164)
(0 0.030791798 0.52928913)
(0 0.026015608 0.52180054)
(0 0.022181292 0.51699358)
(0 0.018899258 0.51346625)
(0 0.016142217 0.51085516)
(0 0.013802223 0.50890032)
(0 0.011792735 0.50741839)
(0 0.010051104 0.50628436)
(0 0.0085246398 0.50541046)
(0 0.0071705267 0.50473456)
(0 0.0059538992 0.50421229)
(0 0.0048458732 0.50381172)
(0 0.0038221951 0.50350987)
(0 0.002862127 0.50329037)
(0 0.0019475151 0.50314188)
(0 0.0010620086 0.503057)
(0 0.00019039544 0.50303164)
(0 -0.00068201979 0.50306467)
(0 -0.0015700089 0.5031578)
(0 -0.0024889504 0.50331579)
(0 -0.0034554868 0.50354676)
(0 -0.0044882028 0.50386302)
(0 -0.0056084212 0.50428218)
(0 -0.0068411447 0.50482889)
(0 -0.0082161718 0.50553743)
(0 -0.0097696711 0.5064556)
(0 -0.011545943 0.50765057)
(0 -0.013597346 0.50921725)
(0 -0.015993471 0.51129363)
(0 -0.01882982 0.51407923)
(0 -0.022137973 0.51784309)
(0 -0.026158328 0.52347578)
(0 -0.031741089 0.53537789)
(0 -0.039646184 0.55590816)
(0 -0.044814596 0.52292968)
(0 -0.014068645 0.26282102)
(0 0.0077598788 0.21566158)
(0 0.044777177 0.50810941)
(0 0.046175689 0.57439752)
(0 0.037956825 0.55374492)
(0 0.031214067 0.53495904)
(0 0.026696118 0.52602809)
(0 0.023046118 0.52053211)
(0 0.019853077 0.516478)
(0 0.017118315 0.51342791)
(0 0.014754435 0.51111371)
(0 0.012692957 0.50933968)
(0 0.010881753 0.50796853)
(0 0.0092748416 0.50690264)
(0 0.0078341768 0.50607211)
(0 0.0065279374 0.50542634)
(0 0.0053290898 0.50492846)
(0 0.0042144465 0.50455171)
(0 0.0031637996 0.50427684)
(0 0.0021591695 0.50409039)
(0 0.0011841536 0.50398357)
(0 0.00022335728 0.50395151)
(0 -0.00073815323 0.50399283)
(0 -0.0017153864 0.5041096)
(0 -0.002723882 0.50430746)
(0 -0.0037803005 0.50459608)
(0 -0.0049029987 0.50498999)
(0 -0.0061126928 0.50550981)
(0 -0.0074332242 0.50618416)
(0 -0.0088923849 0.5070524)
(0 -0.010523083 0.50816871)
(0 -0.012365021 0.50960838)
(0 -0.014463461 0.51147647)
(0 -0.016874693 0.51392194)
(0 -0.019680625 0.51715374)
(0 -0.02289751 0.52148494)
(0 -0.026746743 0.52818992)
(0 -0.032214865 0.54221931)
(0 -0.039263015 0.56052679)
(0 -0.040235302 0.50924639)
(0 -0.0096845983 0.23608806)
(0 0.0039943273 0.19370695)
(0 0.037844522 0.48962933)
(0 0.04359111 0.57527278)
(0 0.037465716 0.56083585)
(0 0.031062574 0.54035628)
(0 0.026825497 0.5300074)
(0 0.023427657 0.52389297)
(0 0.020397448 0.51939864)
(0 0.017748773 0.51596931)
(0 0.015417436 0.51333627)
(0 0.013353052 0.51129766)
(0 0.011514179 0.50970763)
(0 0.0098625645 0.50846153)
(0 0.0083658843 0.50748368)
(0 0.0069962192 0.50671872)
(0 0.0057292087 0.50612593)
(0 0.0045434816 0.50567544)
(0 0.0034200305 0.50534565)
(0 0.0023416525 0.50512135)
(0 0.0012924424 0.50499254)
(0 0.00025733446 0.50495367)
(0 -0.0007783483 0.50500316)
(0 -0.001829355 0.50514338)
(0 -0.0029108708 0.50538074)
(0 -0.0040390199 0.50572622)
(0 -0.0052313225 0.5061962)
(0 -0.0065072107 0.50681382)
(0 -0.007888612 0.5076109)
(0 -0.0094005065 0.50863081)
(0 -0.011071622 0.50993268)
(0 -0.01293596 0.51159786)
(0 -0.015031191 0.51373904)
(0 -0.017400053 0.51651208)
(0 -0.020106989 0.52012832)
(0 -0.023160171 0.52496739)
(0 -0.02679941 0.53274453)
(0 -0.03203409 0.5483853)
(0 -0.037825525 0.56259014)
(0 -0.035308255 0.49402637)
(0 -0.0061755497 0.21354402)
(0 0.0015400249 0.17631682)
(0 0.031437897 0.47095616)
(0 0.040418986 0.57344176)
(0 0.036438163 0.5665873)
(0 0.030524638 0.54536853)
(0 0.026563775 0.53369772)
(0 0.02343825 0.52702009)
(0 0.020610023 0.52216975)
(0 0.018088531 0.51842676)
(0 0.015830019 0.51552129)
(0 0.013799985 0.51325111)
(0 0.011966888 0.51146559)
(0 0.010300328 0.51005569)
(0 0.008773945 0.50894192)
(0 0.007364104 0.50806554)
(0 0.0060495885 0.50738303)
(0 0.0048113225 0.50686221)
(0 0.003631965 0.50647964)
(0 0.002495537 0.50621872)
(0 0.0013870587 0.50606852)
(0 0.00029220477 0.50602291)
(0 -0.00080304099 0.50608017)
(0 -0.0019127626 0.5062429)
(0 -0.003051376 0.50651814)
(0 -0.0042340382 0.50691791)
(0 -0.0054769804 0.50746008)
(0 -0.0067978759 0.5081697)
(0 -0.0082162473 0.50908102)
(0 -0.0097538054 0.51024039)
(0 -0.011434705 0.51171039)
(0 -0.013286823 0.51357644)
(0 -0.015340399 0.51595604)
(0 -0.017626182 0.51900788)
(0 -0.020191467 0.5229433)
(0 -0.023043703 0.5282375)
(0 -0.026459832 0.53703962)
(0 -0.031359922 0.55364961)
(0 -0.035704683 0.56238698)
(0 -0.030432771 0.47821195)
(0 -0.0035643492 0.19496894)
(0 6.5218852e-05 0.16274398)
(0 0.025801294 0.45285722)
(0 0.037027368 0.56952124)
(0 0.035044944 0.57097763)
(0 0.029740071 0.5499462)
(0 0.026043596 0.53710272)
(0 0.023179959 0.52989588)
(0 0.020567032 0.52475974)
(0 0.018194724 0.52076643)
(0 0.016034324 0.51763571)
(0 0.014064441 0.51516891)
(0 0.012262096 0.51321385)
(0 0.010604094 0.5116593)
(0 0.0090697055 0.51042357)
(0 0.007639558 0.50944587)
(0 0.0062957293 0.50868084)
(0 0.0050216682 0.50809471)
(0 0.0038019737 0.50766273)
(0 0.0026221867 0.50736732)
(0 0.0014685557 0.50719682)
(0 0.00032780102 0.50714469)
(0 -0.00081312698 0.5072091)
(0 -0.0019673398 0.50739281)
(0 -0.003148178 0.50770336)
(0 -0.004369525 0.50815353)
(0 -0.0056460251 0.50876226)
(0 -0.0069933159 0.50955598)
(0 -0.0084282744 0.51057063)
(0 -0.0099692019 0.51185447)
(0 -0.011635749 0.51347229)
(0 -0.013449877 0.51551179)
(0 -0.015435 0.51809277)
(0 -0.017611904 0.52137364)
(0 -0.020013374 0.52556911)
(0 -0.022652947 0.53128059)
(0 -0.025843655 0.54102239)
(0 -0.030322787 0.55792257)
(0 -0.033193627 0.56031446)
(0 -0.02586028 0.46249314)
(0 -0.0017366674 0.17990316)
(0 -0.00072980098 0.15216542)
(0 0.021030638 0.43576507)
(0 0.033666374 0.56406149)
(0 0.033428889 0.57408067)
(0 0.02880918 0.55406864)
(0 0.0253641 0.54024625)
(0 0.022736074 0.5325306)
(0 0.020335133 0.52716045)
(0 0.018120087 0.52297205)
(0 0.016071191 0.51965974)
(0 0.014177584 0.51703006)
(0 0.012423365 0.51493156)
(0 0.010791508 0.51325236)
(0 0.0092662483 0.51190982)
(0 0.0078321702 0.51084216)
(0 0.0064745456 0.51000299)
(0 0.0051793716 0.50935761)
(0 0.0039332954 0.50888046)
(0 0.002723535 0.50855328)
(0 0.0015377535 0.50836392)
(0 0.0003639188 0.50830559)
(0 -0.00080984379 0.50837636)
(0 -0.0019954636 0.50857911)
(0 -0.0032050037 0.50892171)
(0 -0.0044508874 0.50941748)
(0 -0.0057460141 0.51008604)
(0 -0.00710388 0.51095471)
(0 -0.0085386887 0.5120604)
(0 -0.010065432 0.51345249)
(0 -0.011699611 0.51519685)
(0 -0.013457866 0.5173822)
(0 -0.015357571 0.52012877)
(0 -0.017411393 0.52359275)
(0 -0.019641239 0.52799985)
(0 -0.022072811 0.53410223)
(0 -0.025041354 0.54466172)
(0 -0.029037611 0.56119615)
(0 -0.030523625 0.55676968)
(0 -0.021743956 0.44730934)
(0 -0.00053425479 0.1677599)
(0 -0.0010820496 0.14388427)
(0 0.017116611 0.41989473)
(0 0.030491358 0.55752313)
(0 0.031707647 0.57601864)
(0 0.027805664 0.55772832)
(0 0.024598382 0.54315378)
(0 0.022172674 0.53494663)
(0 0.019969647 0.52937755)
(0 0.017910104 0.52503939)
(0 0.01597738 0.52158376)
(0 0.014168682 0.51882182)
(0 0.012473694 0.51660443)
(0 0.01088041 0.51482003)
(0 0.0093772485 0.5133859)
(0 0.0079522832 0.51224001)
(0 0.0065937149 0.51133561)
(0 0.0052899658 0.51063759)
(0 0.0040297082 0.51011994)
(0 0.0028018805 0.50976406)
(0 0.001595645 0.50955753)
(0 0.00040032545 0.50949337)
(0 -0.00079465827 0.5095696)
(0 -0.0019999331 0.5097892)
(0 -0.0032261776 0.5101602)
(0 -0.0044842709 0.51069624)
(0 -0.0057853266 0.51141732)
(0 -0.007140727 0.51235121)
(0 -0.0085621263 0.51353527)
(0 -0.010061462 0.51501926)
(0 -0.01165058 0.51686942)
(0 -0.013341565 0.51917455)
(0 -0.015146665 0.52205394)
(0 -0.017072115 0.52566091)
(0 -0.019132946 0.53024206)
(0 -0.021371723 0.53671352)
(0 -0.024125685 0.54793752)
(0 -0.027605786 0.56351562)
(0 -0.027864895 0.55211623)
(0 -0.018157604 0.43292651)
(0 0.00020115639 0.15799369)
(0 -0.0011650463 0.13734964)
(0 0.013981625 0.40532753)
(0 0.027582122 0.55028192)
(0 0.029968969 0.57694016)
(0 0.026781549 0.5609319)
(0 0.02379896 0.54584887)
(0 0.021541229 0.53717058)
(0 0.019515418 0.53142392)
(0 0.017602799 0.52697147)
(0 0.015784715 0.52340491)
(0 0.014063957 0.52053755)
(0 0.012434355 0.51822338)
(0 0.010887814 0.51635179)
(0 0.0094161219 0.51484055)
(0 0.0080103084 0.5136279)
(0 0.0066611463 0.51266717)
(0 0.0053592653 0.51192322)
(0 0.0040952488 0.51136994)
(0 0.0028597105 0.5109886)
(0 0.0016433141 0.51076665)
(0 0.00043676942 0.51069706)
(0 -0.0007691659 0.51077781)
(0 -0.0019837731 0.51101192)
(0 -0.0032163173 0.5114075)
(0 -0.004476135 0.51197829)
(0 -0.005772601 0.51274446)
(0 -0.0071151048 0.51373384)
(0 -0.0085129746 0.51498384)
(0 -0.0099754432 0.51654414)
(0 -0.011511256 0.51848075)
(0 -0.013128774 0.52088193)
(0 -0.014836113 0.52386517)
(0 -0.016634735 0.52758141)
(0 -0.018536628 0.53230888)
(0 -0.020603698 0.53912796)
(0 -0.023153372 0.55084341)
(0 -0.026109417 0.564965)
(0 -0.025328293 0.54667383)
(0 -0.015112564 0.41949405)
(0 0.00060753166 0.15014242)
(0 -0.0010971127 0.13212235)
(0 0.011514989 0.39205588)
(0 0.024966258 0.54263308)
(0 0.028271353 0.57700075)
(0 0.02576983 0.56369937)
(0 0.023000707 0.54835398)
(0 0.020879824 0.53923046)
(0 0.019007523 0.53331662)
(0 0.017229072 0.52877596)
(0 0.015519959 0.52512504)
(0 0.013886143 0.52217503)
(0 0.012324319 0.51978332)
(0 0.010829293 0.51784067)
(0 0.0093954527 0.5162656)
(0 0.0080162292 0.51499692)
(0 0.0066845718 0.51398836)
(0 0.0053930494 0.513205)
(0 0.0041339827 0.51262086)
(0 0.0028995539 0.51221726)
(0 0.0016818679 0.51198167)
(0 0.00047298963 0.51190704)
(0 -0.00073500387 0.51199136)
(0 -0.0019500661 0.51223763)
(0 -0.0031800834 0.51265398)
(0 -0.0044329126 0.5132541)
(0 -0.0057163024 0.51405808)
(0 -0.0070378311 0.51509364)
(0 -0.0084047822 0.51639791)
(0 -0.0098240846 0.51802016)
(0 -0.011301955 0.5200258)
(0 -0.012843848 0.52250215)
(0 -0.014454738 0.52556442)
(0 -0.016132908 0.52936292)
(0 -0.017890524 0.53421784)
(0 -0.019808809 0.54136152)
(0 -0.022165482 0.55338723)
(0 -0.024609161 0.56565028)
(0 -0.022976101 0.54071031)
(0 -0.012578978 0.40707539)
(0 0.0007938697 0.14381262)
(0 -0.00095469572 0.12785736)
(0 0.0095979375 0.38001501)
(0 0.022640078 0.5347987)
(0 0.02664967 0.57634683)
(0 0.024788825 0.56605831)
(0 0.02222435 0.55068941)
(0 0.020214662 0.54115348)
(0 0.01847202 0.53507492)
(0 0.016813066 0.53046356)
(0 0.015204868 0.52674914)
(0 0.013654333 0.52373521)
(0 0.01215997 0.52128226)
(0 0.010718641 0.51928253)
(0 0.0093266378 0.5176554)
(0 0.0079792661 0.51634041)
(0 0.0066712555 0.51529185)
(0 0.0053968254 0.51447518)
(0 0.0041498273 0.5138647)
(0 0.0029238657 0.5134419)
(0 0.0017123834 0.51319436)
(0 0.00050872367 0.51311508)
(0 -0.00069378089 0.51320203)
(0 -0.0019018205 0.51345821)
(0 -0.0031219828 0.51389165)
(0 -0.0043607539 0.51451594)
(0 -0.0056244093 0.51535094)
(0 -0.0069189336 0.51642405)
(0 -0.008249872 0.51777198)
(0 -0.0096222626 0.51944337)
(0 -0.011040343 0.52150284)
(0 -0.0125074 0.52403657)
(0 -0.014026167 0.52715741)
(0 -0.015593202 0.5310178)
(0 -0.017223268 0.53598865)
(0 -0.019014663 0.5434311)
(0 -0.021189559 0.55558668)
(0 -0.023146599 0.56568307)
(0 -0.020835982 0.53443927)
(0 -0.010504159 0.39567184)
(0 0.00084044211 0.13867182)
(0 -0.00078529433 0.12429416)
(0 0.00811786 0.36910936)
(0 0.020583088 0.52694005)
(0 0.025121487 0.57510774)
(0 0.023846889 0.56803882)
(0 0.021480516 0.55287174)
(0 0.019562411 0.54296375)
(0 0.01792727 0.53671815)
(0 0.016372882 0.53204639)
(0 0.014856497 0.52828415)
(0 0.013384044 0.52522123)
(0 0.011955038 0.52272041)
(0 0.010567715 0.52067538)
(0 0.0092196893 0.51900637)
(0 0.0079076717 0.51765363)
(0 0.0066278023 0.51657206)
(0 0.0053756658 0.51572762)
(0 0.0041464264 0.51509496)
(0 0.0029349437 0.51465579)
(0 0.0017358683 0.51439787)
(0 0.00054371501 0.51431427)
(0 -0.00064702375 0.51440298)
(0 -0.0018418713 0.51466694)
(0 -0.0030462282 0.51511408)
(0 -0.0042653451 0.51575776)
(0 -0.0055042009 0.51661758)
(0 -0.0067674173 0.51772052)
(0 -0.008059106 0.51910272)
(0 -0.0093828075 0.52081215)
(0 -0.010741275 0.52291259)
(0 -0.012136258 0.52548899)
(0 -0.013569007 0.5286522)
(0 -0.015035644 0.5325601)
(0 -0.016555131 0.53764076)
(0 -0.018238924 0.54535248)
(0 -0.020242648 0.55746452)
(0 -0.021747854 0.56516994)
(0 -0.018912665 0.52802493)
(0 -0.0088252253 0.3852449)
(0 0.00080375781 0.13444856)
(0 -0.00061690033 0.12124303)
(0 0.00697563 0.35923162)
(0 0.018767059 0.51917124)
(0 0.023692339 0.57339409)
(0 0.022946023 0.5696708)
(0 0.020773123 0.55491354)
(0 0.018932649 0.54468111)
(0 0.017385541 0.53826413)
(0 0.015921577 0.53353664)
(0 0.014487777 0.52973778)
(0 0.013087514 0.52663744)
(0 0.0117207 0.52409947)
(0 0.010386431 0.52201884)
(0 0.0090831664 0.5203165)
(0 0.0078086327 0.51893336)
(0 0.0065600524 0.5178249)
(0 0.0053341108 0.51695758)
(0 0.0041270708 0.51630642)
(0 0.0029348743 0.51585344)
(0 0.0017532371 0.51558655)
(0 0.00057771745 0.51549893)
(0 -0.00059614178 0.51558859)
(0 -0.0017728135 0.51585841)
(0 -0.0029566448 0.51631615)
(0 -0.0041517959 0.51697497)
(0 -0.0053621337 0.5178541)
(0 -0.0065911436 0.51898008)
(0 -0.007841789 0.52038849)
(0 -0.009116465 0.52212659)
(0 -0.010416865 0.52425738)
(0 -0.011743711 0.52686468)
(0 -0.013097397 0.53005788)
(0 -0.014474689 0.53400398)
(0 -0.015899621 0.53919179)
(0 -0.017491801 0.54713934)
(0 -0.019333947 0.55904559)
(0 -0.02042695 0.5642074)
(0 -0.017196553 0.5215904)
(0 -0.0074774028 0.3757339)
(0 0.0007222611 0.13092845)
(0 -0.00046443282 0.11856923)
(0 0.0060887372 0.35027397)
(0 0.017161651 0.5115709)
(0 0.022359994 0.57129899)
(0 0.022084387 0.57098295)
(0 0.020101785 0.55682387)
(0 0.018329882 0.54632102)
(0 0.016854494 0.53972845)
(0 0.015468204 0.53494573)
(0 0.014108208 0.53111776)
(0 0.012774133 0.52798872)
(0 0.011465835 0.52542198)
(0 0.010182878 0.52331356)
(0 0.0089242112 0.52158495)
(0 0.0076882575 0.52017757)
(0 0.0064730446 0.51904744)
(0 0.0052761234 0.51816147)
(0 0.0040946576 0.51749505)
(0 0.0029255022 0.51703049)
(0 0.0017652929 0.51675588)
(0 0.00061050533 0.51666449)
(0 -0.00054239899 0.51675438)
(0 -0.0016969673 0.51702832)
(0 -0.0028566204 0.51749394)
(0 -0.0040245844 0.51816414)
(0 -0.0052037925 0.51905781)
(0 -0.0063968049 0.52020104)
(0 -0.0076056905 0.52162886)
(0 -0.0088320008 0.52338791)
(0 -0.010076717 0.52554051)
(0 -0.011339939 0.52816948)
(0 -0.012621687 0.53138363)
(0 -0.013920243 0.53536266)
(0 -0.015264956 0.54065678)
(0 -0.016778058 0.54880309)
(0 -0.018466951 0.56035504)
(0 -0.019188914 0.56288005)
(0 -0.015670038 0.51522581)
(0 -0.0063994492 0.36706773)
(0 0.00062117014 0.1279459)
(0 -0.00033434474 0.11617901)
(0 0.0053915155 0.34213438)
(0 0.01573773 0.50419144)
(0 0.021117822 0.56890011)
(0 0.021258104 0.57200213)
(0 0.019463524 0.55860903)
(0 0.017755118 0.54789495)
(0 0.016338389 0.54112422)
(0 0.015018714 0.53628389)
(0 0.013724531 0.53243135)
(0 0.01245091 0.52928001)
(0 0.011197322 0.52669093)
(0 0.0099635115 0.52456088)
(0 0.0087486541 0.52281168)
(0 0.0075516259 0.52138515)
(0 0.0063710318 0.52023771)
(0 0.0052050876 0.51933668)
(0 0.0040516808 0.51865777)
(0 0.0029084231 0.51818354)
(0 0.0017727295 0.51790229)
(0 0.00064186773 0.51780736)
(0 -0.00048691185 0.51789682)
(0 -0.0016163563 0.51817338)
(0 -0.0027490879 0.51864451)
(0 -0.0038875481 0.51932287)
(0 -0.0050339008 0.52022702)
(0 -0.0061899697 0.52138263)
(0 -0.007357147 0.52282425)
(0 -0.0085363889 0.52459802)
(0 -0.0097282379 0.5267657)
(0 -0.01093248 0.52940934)
(0 -0.012149124 0.53263818)
(0 -0.013378609 0.53664794)
(0 -0.014655338 0.54204802)
(0 -0.016098614 0.55035296)
(0 -0.017641252 0.56141717)
(0 -0.018032609 0.5612604)
(0 -0.014311987 0.50899544)
(0 -0.0055367799 0.35917234)
(0 0.00051629261 0.12537517)
(0 -0.00022794464 0.11400841)
(0 0.0048335462 0.33471985)
(0 0.014469004 0.49706627)
(0 0.019957208 0.56626202)
(0 0.020462511 0.57275318)
(0 0.018854009 0.56027322)
(0 0.017207093 0.54941092)
(0 0.015839058 0.54246206)
(0 0.014576719 0.53756002)
(0 0.013341313 0.53368514)
(0 0.012122919 0.53051599)
(0 0.010920363 0.52790941)
(0 0.0097333666 0.52576247)
(0 0.0085611567 0.52399721)
(0 0.007402878 0.52255565)
(0 0.0062575326 0.52139451)
(0 0.0051238348 0.52048139)
(0 0.0040002436 0.51979232)
(0 0.0028849883 0.51931006)
(0 0.0017761325 0.51902306)
(0 0.00067161413 0.51892477)
(0 -0.00043064481 0.51901324)
(0 -0.0015327115 0.51929112)
(0 -0.0026365359 0.51976574)
(0 -0.0037439089 0.52044953)
(0 -0.0048563715 0.52136077)
(0 -0.0059751736 0.52252476)
(0 -0.0071012103 0.52397565)
(0 -0.0082350391 0.5257592)
(0 -0.0093769685 0.52793676)
(0 -0.010526695 0.53058991)
(0 -0.011684479 0.53382942)
(0 -0.012853328 0.53786991)
(0 -0.014072063 0.5433751)
(0 -0.015451859 0.55179612)
(0 -0.01685403 0.5622546)
(0 -0.016953117 0.55940959)
(0 -0.013100627 0.5029438)
(0 -0.0048427581 0.3519754)
(0 0.00041690633 0.1231224)
(0 -0.0001436743 0.11201452)
(0 0.004377226 0.3279479)
(0 0.013332604 0.49021538)
(0 0.018869105 0.56343854)
(0 0.019692952 0.57325893)
(0 0.01826841 0.56181906)
(0 0.016683212 0.55087404)
(0 0.015356691 0.54375032)
(0 0.014144124 0.53878162)
(0 0.012961471 0.53488486)
(0 0.011793697 0.53170094)
(0 0.010638783 0.52908039)
(0 0.0094962846 0.5269202)
(0 0.0083653712 0.52514241)
(0 0.0072453238 0.52368911)
(0 0.0061354036 0.52251717)
(0 0.0050346909 0.52159443)
(0 0.0039420877 0.52089711)
(0 0.0028563201 0.52040818)
(0 0.0017759847 0.52011619)
(0 0.00069957801 0.52001467)
(0 -0.00037441394 0.52010167)
(0 -0.0014474884 0.52037978)
(0 -0.0025210384 0.5208562)
(0 -0.003596322 0.52154316)
(0 -0.0046743839 0.52245868)
(0 -0.0057560353 0.52362779)
(0 -0.0068418175 0.52508435)
(0 -0.0079320376 0.52687383)
(0 -0.009026914 0.52905736)
(0 -0.010126212 0.53171634)
(0 -0.011230624 0.53496427)
(0 -0.012345928 0.53903686)
(0 -0.013514454 0.54464507)
(0 -0.014834678 0.55313795)
(0 -0.016101173 0.562888)
(0 -0.015943498 0.55737872)
(0 -0.012015271 0.49710071)
(0 -0.0042788627 0.34540916)
(0 0.00032791352 0.12111876)
(0 -7.8595503e-05 0.11016878)
(0 0.0039951782 0.32174669)
(0 0.012309057 0.48364958)
(0 0.017844901 0.56047481)
(0 0.018945175 0.57354047)
(0 0.017701936 0.56324819)
(0 0.016180212 0.55228712)
(0 0.014890423 0.54499526)
(0 0.013721635 0.53995484)
(0 0.012586695 0.53603544)
(0 0.011465594 0.53283862)
(0 0.010355307 0.53020666)
(0 0.0092551253 0.52803592)
(0 0.0081641004 0.52624832)
(0 0.0070815603 0.52478586)
(0 0.0060069239 0.52360545)
(0 0.0049395334 0.52267507)
(0 0.0038786302 0.52197109)
(0 0.002823335 0.52147659)
(0 0.0017726778 0.52118024)
(0 0.00072561506 0.5210756)
(0 -0.00031889925 0.52116074)
(0 -0.0013618904 0.52143816)
(0 -0.0024042944 0.52191497)
(0 -0.0034469377 0.52260323)
(0 -0.0044904746 0.52352078)
(0 -0.005535386 0.52469241)
(0 -0.0065819686 0.52615178)
(0 -0.007630386 0.52794424)
(0 -0.0086808602 0.53013085)
(0 -0.0097333272 0.53279314)
(0 -0.010789032 0.53604851)
(0 -0.011856544 0.54015528)
(0 -0.012980604 0.54586276)
(0 -0.014243205 0.55438232)
(0 -0.015378062 0.56333601)
(0 -0.014996018 0.55521044)
(0 -0.011037216 0.49148536)
(0 -0.0038141671 0.33941198)
(0 0.00025137054 0.11931457)
(0 -2.9319783e-05 0.10845206)
(0 0.0036678582 0.31605448)
(0 0.011381983 0.47737348)
(0 0.016876849 0.5574091)
(0 0.01821551 0.57361742)
(0 0.01715013 0.56456173)
(0 0.0156946 0.55365117)
(0 0.014438759 0.54620135)
(0 0.013309156 0.54108458)
(0 0.012217804 0.53714094)
(0 0.011140076 0.53393227)
(0 0.010071808 0.53129068)
(0 0.0090119641 0.5291114)
(0 0.0079594518 0.52731606)
(0 0.0069135891 0.52584645)
(0 0.0058738812 0.52465942)
(0 0.0048398545 0.523723)
(0 0.0038110071 0.52301363)
(0 0.0027867705 0.52251447)
(0 0.0017665246 0.52221427)
(0 0.00074960157 0.5221066)
(0 -0.00026465992 0.52218953)
(0 -0.0012768975 0.52246552)
(0 -0.0022876746 0.52294156)
(0 -0.0032974704 0.52362961)
(0 -0.0043066346 0.52454734)
(0 -0.0053154006 0.52571942)
(0 -0.0063239008 0.5271794)
(0 -0.0073322267 0.52897261)
(0 -0.0083406571 0.53116017)
(0 -0.0093493591 0.5338241)
(0 -0.010360204 0.53708685)
(0 -0.011384413 0.54123009)
(0 -0.012467941 0.5470311)
(0 -0.013673353 0.55553194)
(0 -0.014680111 0.56361543)
(0 -0.014102964 0.55294034)
(0 -0.010150109 0.4861093)
(0 -0.0034244287 0.33392894)
(0 0.00018755496 0.1176745)
(0 7.4468852e-06 0.10685126)
(0 0.0033815098 0.31081864)
(0 0.010537668 0.4713876)
(0 0.015958196 0.55427409)
(0 0.017500886 0.5735082)
(0 0.016609021 0.5657606)
(0 0.015222929 0.55496591)
(0 0.013999877 0.54737154)
(0 0.012906078 0.54217466)
(0 0.011855016 0.53820469)
(0 0.010817963 0.53498457)
(0 0.0097895146 0.5323346)
(0 0.0087682655 0.53014825)
(0 0.007752978 0.52834674)
(0 0.0067429272 0.52687154)
(0 0.0057376576 0.52567936)
(0 0.0047368233 0.52473816)
(0 0.0037401162 0.52402443)
(0 0.002747212 0.52352135)
(0 0.0017577715 0.5232177)
(0 0.00077143298 0.52310708)
(0 -0.00021214994 0.52318752)
(0 -0.0011932977 0.52346145)
(0 -0.0021722708 0.52393579)
(0 -0.0031492694 0.52462239)
(0 -0.0041244045 0.52553885)
(0 -0.005097724 0.52670975)
(0 -0.0060692495 0.52816862)
(0 -0.0070390446 0.52996087)
(0 -0.0080074662 0.53214783)
(0 -0.0089749403 0.53481236)
(0 -0.0099439995 0.538083)
(0 -0.010928259 0.54226472)
(0 -0.011973637 0.54815151)
(0 -0.013121185 0.55658865)
(0 -0.014003106 0.56374141)
(0 -0.013257165 0.55059827)
(0 -0.0093399721 0.48097872)
(0 -0.0030910238 0.32891183)
(0 0.00013570544 0.11617368)
(0 3.4623988e-05 0.10535698)
(0 0.0031265207 0.30599458)
(0 0.0097646275 0.46568993)
(0 0.015083152 0.55109797)
(0 0.016798783 0.57323017)
(0 0.016075178 0.56684583)
(0 0.014761965 0.55623014)
(0 0.013571826 0.54850756)
(0 0.012511491 0.54322793)
(0 0.011498155 0.5392293)
(0 0.010499625 0.53599775)
(0 0.0095091833 0.53334023)
(0 0.0085250327 0.5311479)
(0 0.0075458013 0.52934141)
(0 0.0065707076 0.52786184)
(0 0.0055993081 0.52666565)
(0 0.0046313459 0.52572071)
(0 0.0036666599 0.52500344)
(0 0.0027051192 0.52449704)
(0 0.0017466106 0.52419028)
(0 0.00079102228 0.52407675)
(0 -0.00016173417 0.52415448)
(0 -0.0011117189 0.52442585)
(0 -0.0020589449 0.52489772)
(0 -0.0030033867 0.52558189)
(0 -0.0039449655 0.5264959)
(0 -0.0048835862 0.52766431)
(0 -0.0058191933 0.52912072)
(0 -0.0067518426 0.5309107)
(0 -0.0076819682 0.53309591)
(0 -0.0086102577 0.53576041)
(0 -0.0095399095 0.53903971)
(0 -0.01048658 0.5432614)
(0 -0.011494907 0.54922421)
(0 -0.01258315 0.55755372)
(0 -0.013343409 0.56372771)
(0 -0.012452271 0.54820939)
(0 -0.0085950652 0.4760961)
(0 -0.0027998901 0.32431874)
(0 9.4520814e-05 0.11479471)
(0 5.4644241e-05 0.10396211)
(0 0.0028961604 0.3015446)
(0 0.0090531985 0.46027684)
(0 0.014246775 0.54790527)
(0 0.016107151 0.57279981)
(0 0.015545699 0.56781866)
(0 0.014308771 0.55744203)
(0 0.013152667 0.54961013)
(0 0.012124347 0.54424641)
(0 0.011146817 0.54021683)
(0 0.010185137 0.53697357)