/*--------------------------------*- C++ -*----------------------------------*\
  =========                 |
  \\      /  F ield         | OpenFOAM: The Open Source CFD Toolbox
   \\    /   O peration     | Website:  https://openfoam.org
    \\  /    A nd           | Version:  10
     \\/     M anipulation  |
\*---------------------------------------------------------------------------*/
FoamFile
{
    format      ascii;
    class       volVectorField;
    location    "0.12";
    object      U_0;
}
// * * * * * * * * * * * * * * * * * * * * * * * * * * * * * * * * * * * * * //

dimensions      [0 1 -1 0 0 0 0];

internalField   nonuniform List<vector> 
4000
(
(0 0.018635762 0.47773242)
(0 0.023506816 0.50886015)
(0 0.0081639108 0.50052533)
(0 0.0056116697 0.50033643)
(0 0.0042514698 0.50025748)
(0 0.0032517153 0.50016898)
(0 0.002552898 0.50011967)
(0 0.0020514966 0.5000901)
(0 0.0016736638 0.50006977)
(0 0.0013795513 0.50005534)
(0 0.0011447806 0.50004493)
(0 0.00095300797 0.50003726)
(0 0.00079297409 0.50003152)
(0 0.00065669854 0.50002718)
(0 0.00053834831 0.50002389)
(0 0.00043353801 0.50002141)
(0 0.00033887559 0.50001956)
(0 0.00025165437 0.50001823)
(0 0.00016963689 0.50001733)
(0 9.0896383e-05 0.50001683)
(0 1.3694733e-05 0.50001668)
(0 -6.3625315e-05 0.50001688)
(0 -0.00014273133 0.50001744)
(0 -0.00022539291 0.5000184)
(0 -0.00031359324 0.50001981)
(0 -0.00040965923 0.50002176)
(0 -0.00051643346 0.50002438)
(0 -0.00063751358 0.50002785)
(0 -0.00077760023 0.50003245)
(0 -0.0009430269 0.50003858)
(0 -0.0011426114 0.50004684)
(0 -0.0013890215 0.50005821)
(0 -0.0017010149 0.50007413)
(0 -0.0021089523 0.5000971)
(0 -0.002668765 0.50013485)
(0 -0.0034626253 0.50020245)
(0 -0.0045553782 0.50027161)
(0 -0.0065798426 0.50043388)
(0 -0.017654219 0.50675334)
(0 -0.013587455 0.47975711)
(0 0.037428026 0.44797502)
(0 0.050946145 0.53232561)
(0 0.021959634 0.50804309)
(0 0.016126316 0.50357381)
(0 0.012406088 0.50242338)
(0 0.0095058112 0.501623)
(0 0.0075106152 0.50115647)
(0 0.0060602242 0.50086564)
(0 0.0049554346 0.5006676)
(0 0.0040916957 0.50052849)
(0 0.0034000388 0.50042842)
(0 0.0028335008 0.50035483)
(0 0.0023596931 0.50029985)
(0 0.0019555171 0.50025839)
(0 0.0016039982 0.50022698)
(0 0.0012923269 0.50020327)
(0 0.001010564 0.50018562)
(0 0.00075075713 0.50017292)
(0 0.00050631774 0.50016439)
(0 0.00027156145 0.50015954)
(0 4.1353235e-05 0.50015811)
(0 -0.00018920186 0.50016003)
(0 -0.00042502907 0.50016539)
(0 -0.00067135454 0.50017453)
(0 -0.00093402567 0.50018799)
(0 -0.0012198894 0.5002066)
(0 -0.0015372883 0.5002316)
(0 -0.0018967484 0.5002648)
(0 -0.0023119717 0.50030882)
(0 -0.0028013208 0.50036754)
(0 -0.0033901958 0.50044692)
(0 -0.004115001 0.50055643)
(0 -0.0050288499 0.50071117)
(0 -0.0062116473 0.50093672)
(0 -0.0078123041 0.50129473)
(0 -0.010106748 0.50191122)
(0 -0.013089492 0.50282648)
(0 -0.017409301 0.50608204)
(0 -0.038742855 0.52526727)
(0 -0.027886942 0.45022682)
(0 0.03988126 0.40983611)
(0 0.061411708 0.54931022)
(0 0.031965772 0.52188176)
(0 0.024338898 0.51008183)
(0 0.019176013 0.50658916)
(0 0.014959377 0.50452808)
(0 0.011989225 0.50327096)
(0 0.0097550265 0.50245754)
(0 0.008020547 0.50189986)
(0 0.0066501059 0.50150716)
(0 0.0055434525 0.50122365)
(0 0.0046310271 0.50101464)
(0 0.0038640664 0.50085826)
(0 0.0032071499 0.50074013)
(0 0.0026339186 0.50065057)
(0 0.002124295 0.50058291)
(0 0.0016625779 0.50053252)
(0 0.0012361226 0.50049622)
(0 0.00083439766 0.50047184)
(0 0.00044827861 0.50045798)
(0 6.9499151e-05 0.50045389)
(0 -0.00030982842 0.50045935)
(0 -0.00069763989 0.50047469)
(0 -0.0011023419 0.5005008)
(0 -0.0015333086 0.50053923)
(0 -0.0020014648 0.50059236)
(0 -0.0025200404 0.50066368)
(0 -0.003105602 0.50075829)
(0 -0.0037795153 0.50088357)
(0 -0.0045700587 0.50105045)
(0 -0.005515629 0.50127547)
(0 -0.0066702527 0.50158477)
(0 -0.0081111874 0.50202047)
(0 -0.0099425947 0.50265101)
(0 -0.012337309 0.50361607)
(0 -0.015683472 0.50520113)
(0 -0.019842478 0.50785716)
(0 -0.025155681 0.51641342)
(0 -0.047389227 0.53913062)
(0 -0.030841476 0.41490793)
(0 0.03478292 0.36176053)
(0 0.063815313 0.55457243)
(0 0.039352236 0.53747059)
(0 0.030058045 0.51849415)
(0 0.024086303 0.51197838)
(0 0.019253124 0.5084994)
(0 0.015710151 0.50626329)
(0 0.012929067 0.50475366)
(0 0.010719923 0.50370191)
(0 0.0089459717 0.50295295)
(0 0.0074941428 0.5024073)
(0 0.0062847367 0.50200248)
(0 0.0052599123 0.5016982)
(0 0.0043763774 0.50146755)
(0 0.0036012802 0.50129218)
(0 0.0029092022 0.50115939)
(0 0.0022800027 0.50106035)
(0 0.0016972861 0.50098889)
(0 0.0011472767 0.50094084)
(0 0.0006179588 0.50091351)
(0 9.8395842e-05 0.50090543)
(0 -0.00042186984 0.50091618)
(0 -0.00095335811 0.5009464)
(0 -0.0015071782 0.5009978)
(0 -0.0020956504 0.50107338)
(0 -0.0027330234 0.50117771)
(0 -0.003436381 0.50131752)
(0 -0.0042268484 0.50150249)
(0 -0.0051312558 0.50174662)
(0 -0.0061844369 0.50207041)
(0 -0.0074323192 0.50250433)
(0 -0.008937197 0.5030954)
(0 -0.010786513 0.50391835)
(0 -0.013086939 0.50508959)
(0 -0.015974151 0.50680866)
(0 -0.019850915 0.50947114)
(0 -0.024685899 0.51427984)
(0 -0.03106544 0.52824819)
(0 -0.050278844 0.54408637)
(0 -0.028422331 0.37243516)
(0 0.027414621 0.3148928)
(0 0.062284085 0.5502625)
(0 0.04457447 0.55146697)
(0 0.033946026 0.52748908)
(0 0.02742776 0.5177239)
(0 0.02241877 0.51291964)
(0 0.018601057 0.50972966)
(0 0.015493686 0.50748948)
(0 0.012973675 0.50589553)
(0 0.010912116 0.50474137)
(0 0.0091975828 0.50388958)
(0 0.0077511779 0.50325169)
(0 0.0065128677 0.5027688)
(0 0.0054361805 0.50240069)
(0 0.0044850217 0.50211956)
(0 0.0036308795 0.50190596)
(0 0.0028507638 0.5017462)
(0 0.002125689 0.50163071)
(0 0.0014395146 0.50155293)
(0 0.00077803303 0.50150862)
(0 0.00012823194 0.50149548)
(0 -0.00052236744 0.50151287)
(0 -0.0011863153 0.50156175)
(0 -0.0018768096 0.50164485)
(0 -0.0026083825 0.50176683)
(0 -0.0033976699 0.50193487)
(0 -0.0042643581 0.50215937)
(0 -0.0052323943 0.50245522)
(0 -0.0063315956 0.50284369)
(0 -0.0075998081 0.50335543)
(0 -0.0090853723 0.5040351)
(0 -0.010850804 0.50494927)
(0 -0.012983023 0.50620076)
(0 -0.015585973 0.50794455)
(0 -0.018747559 0.5104071)
(0 -0.022829442 0.51406044)
(0 -0.028113191 0.52115129)
(0 -0.035638758 0.53932824)
(0 -0.050422064 0.5415901)
(0 -0.024067225 0.33064783)
(0 0.019827778 0.27526976)
(0 0.057952278 0.53978791)
(0 0.047310469 0.56256618)
(0 0.036428723 0.53660379)
(0 0.029588251 0.52350854)
(0 0.024628416 0.51740278)
(0 0.020727469 0.51336009)
(0 0.017464775 0.51043952)
(0 0.014771783 0.50831731)
(0 0.012527456 0.50675321)
(0 0.01063022 0.50558262)
(0 0.0090080272 0.50469644)
(0 0.0076032013 0.50401972)
(0 0.0063698237 0.50350024)
(0 0.0052713776 0.50310129)
(0 0.0042783368 0.50279682)
(0 0.0033664154 0.5025683)
(0 0.0025152196 0.50240265)
(0 0.001707168 0.50229085)
(0 0.00092661489 0.50222707)
(0 0.00015912406 0.50220809)
(0 -0.00060919698 0.50223302)
(0 -0.0013923164 0.50230321)
(0 -0.0022048523 0.50242242)
(0 -0.0030627673 0.50259708)
(0 -0.0039841177 0.502837)
(0 -0.0049899521 0.50315631)
(0 -0.0061054131 0.50357504)
(0 -0.0073611318 0.50412138)
(0 -0.0087951225 0.50483529)
(0 -0.010454745 0.50577379)
(0 -0.01239839 0.50701919)
(0 -0.014706358 0.5086947)
(0 -0.017480614 0.51098205)
(0 -0.020775261 0.51412381)
(0 -0.024886555 0.51873754)
(0 -0.030422645 0.52823503)
(0 -0.038538027 0.54872866)
(0 -0.04844007 0.53405085)
(0 -0.019045698 0.2940716)
(0 0.013072763 0.24265251)
(0 0.0517544 0.52526912)
(0 0.047641513 0.57025548)
(0 0.03769278 0.54552147)
(0 0.030788976 0.52928916)
(0 0.026012814 0.52180051)
(0 0.022178547 0.51699342)
(0 0.018896606 0.51346597)
(0 0.016139694 0.51085477)
(0 0.01379986 0.50889983)
(0 0.011790562 0.50741782)
(0 0.010049146 0.50628371)
(0 0.0085229198 0.50540974)
(0 0.0071690654 0.50473379)
(0 0.0059527145 0.50421147)
(0 0.0048449807 0.50381085)
(0 0.0038216079 0.50350896)
(0 0.0028618562 0.50328944)
(0 0.0019475697 0.50314092)
(0 0.0010623953 0.50305602)
(0 0.00019111896 0.50303065)
(0 -0.00068095684 0.50306368)
(0 -0.0015686061 0.50315682)
(0 -0.0024872099 0.50331481)
(0 -0.003453413 0.50354581)
(0 -0.004485803 0.5038621)
(0 -0.0056057057 0.5042813)
(0 -0.006838127 0.50482807)
(0 -0.0082128693 0.50553667)
(0 -0.009766105 0.50645491)
(0 -0.01154214 0.50764999)
(0 -0.013593335 0.50921678)
(0 -0.015989289 0.51129329)
(0 -0.018825512 0.51407905)
(0 -0.022133594 0.51784311)
(0 -0.026153918 0.52347594)
(0 -0.031736569 0.53537783)
(0 -0.039641336 0.55590848)
(0 -0.044811147 0.52293409)
(0 -0.01406767 0.26282847)
(0 0.0077593884 0.21566738)
(0 0.04477483 0.50811419)
(0 0.046171836 0.5743983)
(0 0.037953047 0.5537446)
(0 0.031210519 0.53495898)
(0 0.026692644 0.52602802)
(0 0.023042713 0.52053186)
(0 0.019849793 0.51647759)
(0 0.017115196 0.51342736)
(0 0.014751518 0.51111303)
(0 0.012690276 0.50933888)
(0 0.010879337 0.50796763)
(0 0.0092727178 0.50690165)
(0 0.0078323693 0.50607104)
(0 0.0065264672 0.5054252)
(0 0.0053279749 0.50492726)
(0 0.0042137024 0.50455046)
(0 0.0031634393 0.50427554)
(0 0.0021592035 0.50408906)
(0 0.0011845903 0.50398223)
(0 0.0002242024 0.50395015)
(0 -0.0007368962 0.50399147)
(0 -0.0017137166 0.50410824)
(0 -0.0027218011 0.50430611)
(0 -0.0037778131 0.50459476)
(0 -0.0049001125 0.50498871)
(0 -0.0061094189 0.50550859)
(0 -0.0074295775 0.50618301)
(0 -0.0088883844 0.50705133)
(0 -0.010518753 0.50816775)
(0 -0.012360389 0.50960754)
(0 -0.014458563 0.51147578)
(0 -0.016869569 0.51392142)
(0 -0.019675326 0.51715344)
(0 -0.0228921 0.5214849)
(0 -0.026741243 0.52818998)
(0 -0.032209115 0.54221902)
(0 -0.039256981 0.56052759)
(0 -0.040231246 0.50925318)
(0 -0.0096835531 0.23609787)
(0 0.003993823 0.1937142)
(0 0.037841872 0.48963617)
(0 0.043586483 0.57527432)
(0 0.037460992 0.56083537)
(0 0.031058176 0.54035605)
(0 0.026821241 0.53000725)
(0 0.0234235 0.52389261)
(0 0.020393446 0.51939807)
(0 0.017744979 0.51596855)
(0 0.015413892 0.51333534)
(0 0.013349796 0.51129659)
(0 0.011511246 0.50970643)
(0 0.0098599847 0.5084602)
(0 0.0083636851 0.50748225)
(0 0.0069944246 0.5067172)
(0 0.0057278392 0.50612433)
(0 0.0045425552 0.50567378)
(0 0.003419562 0.50534394)
(0 0.0023416542 0.50511959)
(0 0.0012929241 0.50499075)
(0 0.00025830322 0.50495186)
(0 -0.00077688806 0.50500135)
(0 -0.0018274016 0.50514157)
(0 -0.0029084253 0.50537895)
(0 -0.0040360867 0.50572446)
(0 -0.0052279094 0.50619449)
(0 -0.0065033291 0.50681218)
(0 -0.0078842777 0.50760934)
(0 -0.0093957401 0.50862937)
(0 -0.011066449 0.50993137)
(0 -0.012930413 0.5115967)
(0 -0.015025307 0.51373808)
(0 -0.017393876 0.51651133)
(0 -0.020100577 0.52012785)
(0 -0.023153597 0.52496722)
(0 -0.026792656 0.53274437)
(0 -0.032026928 0.54838471)
(0 -0.037818213 0.56259179)
(0 -0.035303586 0.49403618)
(0 -0.0061744356 0.21355649)
(0 0.0015395059 0.17632564)
(0 0.031434932 0.47096551)
(0 0.040413529 0.5734444)
(0 0.036432366 0.56658671)
(0 0.030519249 0.54536804)
(0 0.026558621 0.53369743)
(0 0.023433237 0.52701958)
(0 0.020605207 0.52216897)
(0 0.018083973 0.51842575)
(0 0.015825766 0.51552008)
(0 0.013796081 0.51324971)
(0 0.011963372 0.51146402)
(0 0.010297234 0.51005397)
(0 0.0087713031 0.50894006)
(0 0.0073619413 0.50806357)
(0 0.0060479284 0.50738096)
(0 0.0048101849 0.50686006)
(0 0.0036313669 0.50647742)
(0 0.0024954924 0.50621645)
(0 0.0013875788 0.5060662)
(0 0.00029329812 0.50602057)
(0 -0.0008013688 0.50607782)
(0 -0.0019105087 0.50624055)
(0 -0.0030485408 0.50651582)
(0 -0.0042306253 0.50691563)
(0 -0.0054729972 0.50745786)
(0 -0.0067933339 0.50816755)
(0 -0.0082111626 0.50907898)
(0 -0.0097481993 0.51023848)
(0 -0.011428605 0.51170865)
(0 -0.013280262 0.51357489)
(0 -0.015333419 0.51595472)
(0 -0.017618831 0.51900684)
(0 -0.020183808 0.5229426)
(0 -0.023035811 0.52823713)
(0 -0.026451639 0.53703912)
(0 -0.031351161 0.55364872)
(0 -0.035696001 0.56238991)
(0 -0.030427477 0.47822548)
(0 -0.0035631622 0.19498435)
(0 6.4688532e-05 0.1627545)
(0 0.025797985 0.45286957)
(0 0.037021014 0.5695254)
(0 0.035037941 0.57097702)
(0 0.029733532 0.54994537)
(0 0.02603741 0.53710222)
(0 0.023173972 0.52989518)
(0 0.020561293 0.52475871)
(0 0.018189301 0.52076511)
(0 0.016029271 0.51763413)
(0 0.014059806 0.5151671)
(0 0.012257922 0.51321184)
(0 0.01060042 0.51165711)
(0 0.0090665637 0.51042121)
(0 0.0076369785 0.50944337)
(0 0.0062937377 0.50867821)
(0 0.0050202866 0.50809198)
(0 0.003801221 0.50765992)
(0 0.0026220788 0.50736445)
(0 0.0014691053 0.50719389)
(0 0.00032901811 0.50714173)
(0 -0.00081123524 0.50720612)
(0 -0.0019647693 0.50738984)
(0 -0.0031449277 0.50770041)
(0 -0.0043655976 0.50815062)
(0 -0.0056414271 0.50875942)
(0 -0.006988058 0.50955324)
(0 -0.0084223725 0.51056801)
(0 -0.0099626774 0.51185201)
(0 -0.01162863 0.51347002)
(0 -0.013442199 0.51550975)
(0 -0.015426805 0.51809102)
(0 -0.017603244 0.52137222)
(0 -0.020004319 0.5255681)
(0 -0.022643569 0.53127991)
(0 -0.025833817 0.54102139)
(0 -0.030312233 0.55792141)
(0 -0.033183476 0.56031921)
(0 -0.025854332 0.46251115)
(0 -0.0017354026 0.17992179)
(0 -0.00073033442 0.15217779)
(0 0.021026946 0.43578093)
(0 0.033659048 0.56406763)
(0 0.033420533 0.57408015)
(0 0.028801316 0.55406738)
(0 0.025356729 0.54024545)
(0 0.02272898 0.53252964)
(0 0.020328349 0.52715911)
(0 0.018113688 0.52297035)
(0 0.016065236 0.51965774)
(0 0.014172127 0.51702777)
(0 0.012418452 0.51492902)
(0 0.01078718 0.5132496)
(0 0.0092625427 0.51190687)
(0 0.0078291189 0.51083904)
(0 0.0064721764 0.50999972)
(0 0.0051777087 0.50935422)
(0 0.0039323594 0.50887697)
(0 0.0027233434 0.5085497)
(0 0.0015383209 0.50836028)
(0 0.00036525672 0.50830191)
(0 -0.00080772648 0.50837265)
(0 -0.0019925611 0.50857541)
(0 -0.0032013135 0.50891803)
(0 -0.0044464104 0.50941385)
(0 -0.0057407551 0.51008249)
(0 -0.0070978486 0.51095126)
(0 -0.0085318996 0.5120571)
(0 -0.010057906 0.51344936)
(0 -0.011691376 0.51519395)
(0 -0.013448956 0.51737957)
(0 -0.015348033 0.52012647)
(0 -0.01740128 0.52359085)
(0 -0.019630626 0.52799842)
(0 -0.022061757 0.5341011)
(0 -0.025029646 0.54466006)
(0 -0.029025059 0.56119482)
(0 -0.030511895 0.55677685)
(0 -0.021737309 0.44733265)
(0 -0.00053291131 0.16778207)
(0 -0.001082574 0.14389866)
(0 0.017112489 0.41991467)
(0 0.030482973 0.55753179)
(0 0.031697782 0.57601841)
(0 0.027796284 0.55772654)
(0 0.024589652 0.54315256)
(0 0.022164323 0.53494534)
(0 0.019961682 0.52937583)
(0 0.017902604 0.52503725)
(0 0.01597041 0.52158124)
(0 0.014162301 0.51881897)
(0 0.01246795 0.51660129)
(0 0.010875349 0.51481662)
(0 0.0093729094 0.51338226)
(0 0.0079487001 0.51223617)
(0 0.0065909176 0.5113316)
(0 0.0052879802 0.51063343)
(0 0.0040285566 0.51011566)
(0 0.002801582 0.50975968)
(0 0.0015962159 0.50955308)
(0 0.00040177916 0.50948886)
(0 -0.00079231102 0.50956506)
(0 -0.0019966846 0.50978465)
(0 -0.0032220229 0.51015568)
(0 -0.0044792088 0.51069176)
(0 -0.0057793597 0.51141293)
(0 -0.0071338626 0.51234694)
(0 -0.0085543771 0.51353116)
(0 -0.010052847 0.51501536)
(0 -0.011641126 0.51686577)
(0 -0.013331305 0.51917121)
(0 -0.015135645 0.52205098)
(0 -0.017060392 0.52565841)
(0 -0.019120597 0.53024009)
(0 -0.021358782 0.53671178)
(0 -0.024111862 0.54793503)
(0 -0.027591019 0.56351427)
(0 -0.027851462 0.55212653)
(0 -0.018150199 0.43295599)
(0 0.00020257169 0.15801971)
(0 -0.0011655471 0.13736625)
(0 0.013977022 0.40535215)
(0 0.027572578 0.55029371)
(0 0.029957423 0.57694044)
(0 0.026770444 0.56092953)
(0 0.023788678 0.54584711)
(0 0.021531455 0.53716885)
(0 0.019506122 0.53142172)
(0 0.017594062 0.52696878)
(0 0.015776607 0.52340179)
(0 0.014056541 0.52053404)
(0 0.012427683 0.51821952)
(0 0.010881933 0.51634763)
(0 0.0094110736 0.51483612)
(0 0.0080061285 0.51362324)
(0 0.0066578661 0.51266231)
(0 0.0053569121 0.51191819)
(0 0.0040938463 0.51136476)
(0 0.0028592793 0.5109833)
(0 0.0016438722 0.51076126)
(0 0.00043833209 0.5106916)
(0 -0.00076658573 0.51077231)
(0 -0.0019801652 0.51100641)
(0 -0.0032116743 0.51140201)
(0 -0.0044704524 0.51197285)
(0 -0.0057658785 0.5127391)
(0 -0.0071073464 0.51372861)
(0 -0.0085041897 0.51497878)
(0 -0.0099656478 0.51653932)
(0 -0.011500474 0.51847621)
(0 -0.013117037 0.52087774)
(0 -0.014823464 0.52386141)
(0 -0.016621233 0.52757818)
(0 -0.018522347 0.53230623)
(0 -0.020588639 0.5391254)
(0 -0.023137171 0.55083992)
(0 -0.026092202 0.56496383)
(0 -0.025313018 0.54668804)
(0 -0.015104328 0.41953064)
(0 0.00060900427 0.15017264)
(0 -0.0010975742 0.13214137)
(0 0.011509852 0.39208585)
(0 0.024955448 0.54264867)
(0 0.028257944 0.57700182)
(0 0.025756773 0.56369632)
(0 0.022988658 0.54835151)
(0 0.020868442 0.53922819)
(0 0.018996733 0.53331386)
(0 0.017218949 0.52877263)
(0 0.01551058 0.5251212)
(0 0.013877573 0.52217074)
(0 0.012316613 0.51977864)
(0 0.0108225 0.51783564)
(0 0.0093896148 0.51626026)
(0 0.0080113835 0.51499131)
(0 0.0066807505 0.51398252)
(0 0.0053902807 0.51319896)
(0 0.0041322914 0.51261466)
(0 0.0028989619 0.51221092)
(0 0.0016823948 0.51197522)
(0 0.00047465267 0.51190051)
(0 -0.00073218934 0.51198477)
(0 -0.0019460869 0.51223102)
(0 -0.0031749288 0.51264738)
(0 -0.0044265747 0.51324754)
(0 -0.0057087765 0.51405161)
(0 -0.0070291168 0.5150873)
(0 -0.0083948842 0.51639176)
(0 -0.0098130143 0.51801426)
(0 -0.011289732 0.52002021)
(0 -0.012830499 0.52249695)
(0 -0.014440304 0.52555969)
(0 -0.016117446 0.5293588)
(0 -0.017874101 0.53421432)
(0 -0.01979138 0.54135791)
(0 -0.022146619 0.55338257)
(0 -0.024589249 0.56564956)
(0 -0.022958825 0.54072931)
(0 -0.012569828 0.40712011)
(0 0.00079538 0.14384744)
(0 -0.00095510217 0.12787904)
(0 0.0095922165 0.38005103)
(0 0.022627882 0.53481884)
(0 0.026634202 0.57634905)
(0 0.024773573 0.56605454)
(0 0.022210298 0.55068606)
(0 0.020201469 0.54115051)
(0 0.018459559 0.53507147)
(0 0.016801398 0.53045946)
(0 0.015194075 0.52674446)
(0 0.013644482 0.52373002)
(0 0.012151118 0.52127663)
(0 0.010710837 0.5192765)
(0 0.009319925 0.51764903)
(0 0.0079736815 0.51633373)
(0 0.0066668315 0.51528491)
(0 0.0053935904 0.51446801)
(0 0.0041478068 0.51385735)
(0 0.0029230825 0.51343439)
(0 0.0017128586 0.51318672)
(0 0.0005104765 0.51310733)
(0 -0.00069073242 0.51319422)
(0 -0.0018974597 0.51345036)
(0 -0.0031162952 0.5138838)
(0 -0.0043537267 0.51450812)
(0 -0.0056160327 0.5153432)
(0 -0.0069092014 0.51641645)
(0 -0.0082387827 0.51776457)
(0 -0.0096098209 0.51943621)
(0 -0.011026562 0.52149602)
(0 -0.0124923 0.52403016)
(0 -0.014009783 0.52715153)
(0 -0.015575588 0.53101258)
(0 -0.017204475 0.53598402)
(0 -0.01899459 0.54342615)
(0 -0.021167732 0.55558069)
(0 -0.023123726 0.56568314)
(0 -0.020816533 0.53446402)
(0 -0.010494005 0.39572579)
(0 0.00084196833 0.13871165)
(0 -0.00078562926 0.12431876)
(0 0.0081115081 0.36915223)
(0 0.020569378 0.52696558)
(0 0.025103748 0.57511151)
(0 0.023829179 0.56803429)
(0 0.021464204 0.55286732)
(0 0.019547185 0.54295991)
(0 0.017912942 0.53671386)
(0 0.016359496 0.53204139)
(0 0.014844136 0.5282785)
(0 0.013372778 0.525215)
(0 0.011944921 0.52271369)
(0 0.010558797 0.52066822)
(0 0.009212012 0.51899882)
(0 0.0079012715 0.51764574)
(0 0.0066227108 0.51656388)
(0 0.0053719111 0.51571919)
(0 0.0041440338 0.5150863)
(0 0.0029339366 0.51464696)
(0 0.0017362689 0.51438888)
(0 0.00054554441 0.51430516)
(0 -0.00064374436 0.51439379)
(0 -0.0018371213 0.5146577)
(0 -0.0030399885 0.51510482)
(0 -0.0042575973 0.51574852)
(0 -0.0054949287 0.51660841)
(0 -0.0067566069 0.51771147)
(0 -0.0080467479 0.51909386)
(0 -0.0093688976 0.52080355)
(0 -0.010725817 0.52290434)
(0 -0.012119263 0.52548119)
(0 -0.013550503 0.52864496)
(0 -0.015015676 0.53255357)
(0 -0.016533727 0.53763478)
(0 -0.018215914 0.54534589)
(0 -0.020217537 0.55745702)
(0 -0.021721737 0.56517119)
(0 -0.018890854 0.5280565)
(0 -0.008813974 0.38530928)
(0 0.00080527865 0.13449386)
(0 -0.0006171463 0.12127083)
(0 0.0069686057 0.35928218)
(0 0.018751697 0.51920309)
(0 0.023672104 0.57339991)
(0 0.022925575 0.5696655)
(0 0.020754272 0.55490781)
(0 0.018915149 0.54467619)
(0 0.017369139 0.53825884)
(0 0.01590629 0.53353057)
(0 0.014473686 0.52973099)
(0 0.013074688 0.52663001)
(0 0.011709193 0.52409149)
(0 0.01037629 0.52201038)
(0 0.0090744311 0.52030761)
(0 0.007801337 0.51892409)
(0 0.0065542259 0.51781531)
(0 0.0053297801 0.51694772)
(0 0.0041242605 0.51629632)
(0 0.0029336078 0.51584313)
(0 0.0017535379 0.51557607)
(0 0.00057960698 0.5154883)
(0 -0.00059263809 0.51557786)
(0 -0.0017676696 0.5158476)
(0 -0.0029498375 0.5163053)
(0 -0.0041432999 0.51696412)
(0 -0.0053519245 0.51784331)
(0 -0.0065791982 0.5189694)
(0 -0.0078280876 0.52037798)
(0 -0.0091009921 0.52211633)
(0 -0.010399612 0.52424748)
(0 -0.011724677 0.52685523)
(0 -0.013076597 0.53004903)
(0 -0.014452156 0.53399587)
(0 -0.015875351 0.53918413)
(0 -0.017465546 0.54713074)
(0 -0.019305217 0.55903642)
(0 -0.020397293 0.56421028)
(0 -0.017172177 0.52162995)
(0 -0.0074649565 0.37580999)
(0 0.0007237574 0.13097973)
(0 -0.00046457073 0.11860053)
(0 0.0060810043 0.35033316)
(0 0.017144495 0.5116101)
(0 0.022337025 0.57130743)
(0 0.0220609 0.57097688)
(0 0.020080094 0.55681658)
(0 0.018309846 0.54631477)
(0 0.016835794 0.53972196)
(0 0.01545082 0.53493841)
(0 0.014092215 0.53110964)
(0 0.012759597 0.52797992)
(0 0.011452808 0.52541257)
(0 0.010171402 0.52330362)
(0 0.0089143209 0.52157455)
(0 0.0076799835 0.52016677)
(0 0.0064664132 0.51903629)
(0 0.0052711584 0.51815001)
(0 0.0040913817 0.51748333)
(0 0.002923938 0.51701854)
(0 0.0017654642 0.51674373)
(0 0.0006124368 0.51665218)
(0 -0.00053867978 0.51674193)
(0 -0.0016914307 0.51701577)
(0 -0.0028492353 0.51748132)
(0 -0.0040153177 0.5181515)
(0 -0.0051926102 0.51904519)
(0 -0.0063836728 0.5201885)
(0 -0.007590576 0.52161647)
(0 -0.0088148743 0.52337576)
(0 -0.010057554 0.5255287)
(0 -0.011318724 0.52815813)
(0 -0.012598416 0.53137289)
(0 -0.013894932 0.53535266)
(0 -0.015237554 0.54064708)
(0 -0.016748234 0.54879209)
(0 -0.018434252 0.56034405)
(0 -0.019155408 0.56288511)
(0 -0.015642884 0.51527463)
(0 -0.0063857101 0.36715693)
(0 0.00062262594 0.12800369)
(0 -0.00033435351 0.11621413)
(0 0.0053830436 0.34220322)
(0 0.015718625 0.50423913)
(0 0.021091864 0.56891183)
(0 0.021231257 0.57199535)
(0 0.019438669 0.55859993)
(0 0.017732264 0.54788709)
(0 0.01631715 0.54111628)
(0 0.014999025 0.53627511)
(0 0.013706454 0.53242171)
(0 0.012434509 0.52926962)
(0 0.01118264 0.5266799)
(0 0.0099505835 0.52454927)
(0 0.0087375096 0.52279958)
(0 0.0075422892 0.52137263)
(0 0.0063635239 0.52022482)
(0 0.0051994281 0.51932346)
(0 0.0040478893 0.51864427)
(0 0.0029065209 0.51816979)
(0 0.0017727398 0.51788831)
(0 0.00064381764 0.51779318)
(0 -0.00048299193 0.51788248)
(0 -0.0016104321 0.5181589)
(0 -0.0027411202 0.51862993)
(0 -0.0038774949 0.51930822)
(0 -0.0050217166 0.52021236)
(0 -0.006175607 0.52136801)
(0 -0.0073405575 0.52280975)
(0 -0.0085175255 0.52458372)
(0 -0.009707057 0.5267517)
(0 -0.010908944 0.52939578)
(0 -0.012123209 0.53262523)
(0 -0.013350302 0.53663571)
(0 -0.014624533 0.54203585)
(0 -0.016064887 0.55033911)
(0 -0.017604225 0.56140421)
(0 -0.017994937 0.56126824)
(0 -0.014281833 0.50905492)
(0 -0.005521651 0.35927617)
(0 0.000517697 0.12544006)
(0 -0.00022780168 0.11404769)
(0 0.0048243097 0.33479946)
(0 0.01444779 0.4971237)
(0 0.019927993 0.56627777)
(0 0.020431964 0.57274575)
(0 0.018825645 0.56026201)
(0 0.017181118 0.54940112)
(0 0.015815026 0.54245241)
(0 0.014554507 0.53754954)
(0 0.013320967 0.53367373)
(0 0.012104491 0.53050379)
(0 0.010903888 0.52789652)
(0 0.0097188697 0.52574899)
(0 0.0085486584 0.52398322)
(0 0.0073923939 0.52254121)
(0 0.0062490763 0.52137968)
(0 0.0051174201 0.52046622)
(0 0.0039958856 0.51977685)
(0 0.0028827056 0.51929431)
(0 0.0017759474 0.51900707)
(0 0.00067355504 0.51890855)
(0 -0.00042654412 0.51899682)
(0 -0.0015264108 0.51927452)
(0 -0.0026279882 0.519749)
(0 -0.0037330616 0.52043268)
(0 -0.0048431658 0.52134384)
(0 -0.005959546 0.52250781)
(0 -0.0070830941 0.52395877)
(0 -0.0082143657 0.52574246)
(0 -0.0093536704 0.52792028)
(0 -0.010500709 0.53057383)
(0 -0.011655752 0.53381391)
(0 -0.012821812 0.53785503)
(0 -0.014037582 0.54335999)
(0 -0.015413891 0.55177893)
(0 -0.01681231 0.56223954)
(0 -0.016910953 0.55942088)
(0 -0.013067243 0.50301544)
(0 -0.0048261438 0.35209548)
(0 0.00041825487 0.12319502)
(0 -0.00014335682 0.11205832)
(0 0.0043672029 0.32803948)
(0 0.013309111 0.49028393)
(0 0.018836347 0.56345916)
(0 0.019658343 0.57325097)
(0 0.01823617 0.56180543)
(0 0.016653796 0.55086193)
(0 0.015329597 0.54373864)
(0 0.014119163 0.53876916)
(0 0.012938662 0.53487143)
(0 0.011773078 0.53168668)
(0 0.010620376 0.52906542)
(0 0.0094801023 0.52690462)
(0 0.0083514204 0.52512631)
(0 0.0072336087 0.52367254)
(0 0.0061259282 0.5225002)
(0 0.0050274606 0.52157711)
(0 0.0039371117 0.52087948)
(0 0.0028536128 0.52039025)
(0 0.001775567 0.52009799)
(0 0.00070147885 0.51999621)
(0 -0.00037015741 0.52008297)
(0 -0.0014408299 0.52036086)
(0 -0.0025119221 0.52083708)
(0 -0.003584683 0.52152386)
(0 -0.0046601484 0.52243924)
(0 -0.0057391213 0.52360827)
(0 -0.0068221365 0.5250648)
(0 -0.0079094955 0.52685435)
(0 -0.0090014146 0.52903806)
(0 -0.010097659 0.53169736)
(0 -0.01119893 0.5349458)
(0 -0.012310999 0.53901887)
(0 -0.013476027 0.54462647)
(0 -0.014792132 0.55311689)
(0 -0.016054396 0.56287069)
(0 -0.015896518 0.55739421)
(0 -0.011978425 0.49718615)
(0 -0.0042606686 0.34554724)
(0 0.00032920937 0.12119976)
(0 -7.8082687e-05 0.11021747)
(0 0.0039843475 0.32185155)
(0 0.012283108 0.48373077)
(0 0.0178083 0.56050126)
(0 0.018906124 0.57353212)
(0 0.017665433 0.56323181)
(0 0.016147016 0.55227226)
(0 0.014859987 0.54498118)
(0 0.013693694 0.53994007)
(0 0.012561231 0.53601969)
(0 0.011442623 0.53282202)
(0 0.010334834 0.53018934)
(0 0.0092371444 0.52801799)
(0 0.0081486023 0.52622987)
(0 0.0070685344 0.52476694)
(0 0.0059963614 0.52358614)
(0 0.0049314293 0.5226554)
(0 0.0038729856 0.52195109)
(0 0.0028201587 0.52145629)
(0 0.001771988 0.52115964)
(0 0.00072744076 0.52105471)
(0 -0.00031451767 0.52113956)
(0 -0.0013549002 0.52141671)
(0 -0.0023946302 0.52189325)
(0 -0.0034345211 0.52258126)
(0 -0.0044752147 0.52349857)
(0 -0.0055171797 0.52467002)
(0 -0.0065607019 0.52612927)
(0 -0.0076059351 0.52792169)
(0 -0.0086530945 0.53010836)
(0 -0.0097021121 0.53277086)
(0 -0.010754236 0.53602663)
(0 -0.011818013 0.54013368)
(0 -0.012937977 0.54584005)
(0 -0.014195757 0.55435681)
(0 -0.015325876 0.56331633)
(0 -0.014943905 0.55523095)
(0 -0.010996677 0.49158632)
(0 -0.0037942985 0.33956991)
(0 0.00025262467 0.11940467)
(0 -2.8594806e-05 0.10850604)
(0 0.0036561975 0.31617407)
(0 0.011353389 0.47746895)
(0 0.016836085 0.55744243)
(0 0.018171616 0.57360889)
(0 0.01710896 0.56454223)
(0 0.015657272 0.55363309)
(0 0.014404695 0.54618444)
(0 0.013278001 0.54106714)
(0 0.012189491 0.53712255)
(0 0.011114595 0.53391301)
(0 0.010049139 0.53127072)
(0 0.0089920777 0.52909085)
(0 0.0079423179 0.527295)
(0 0.0068991784 0.52582495)
(0 0.0058621687 0.52463754)
(0 0.0048308218 0.52370077)
(0 0.003804645 0.52299107)
(0 0.0027830807 0.52249159)
(0 0.0017655213 0.52219107)
(0 0.00075131308 0.52208308)
(0 -0.00026019033 0.52216567)
(0 -0.0012696105 0.52244131)
(0 -0.0022774943 0.52291701)
(0 -0.0032843039 0.52360471)
(0 -0.0042903718 0.52452212)
(0 -0.0052959147 0.52569389)
(0 -0.0063010486 0.52715362)
(0 -0.0073058501 0.52894664)
(0 -0.0083105853 0.53113411)
(0 -0.0093154117 0.53379809)
(0 -0.010322196 0.53706107)
(0 -0.011342118 0.54120429)
(0 -0.012420881 0.54700361)
(0 -0.013620702 0.55550133)
(0 -0.014622185 0.56359324)
(0 -0.014045419 0.55296675)
(0 -0.010105653 0.48622762)
(0 -0.003402791 0.3341087)
(0 0.0001887854 0.11777446)
(0 8.3952014e-06 0.10691095)
(0 0.0033689911 0.31095452)
(0 0.010506228 0.47149916)
(0 0.015912933 0.55431547)
(0 0.017451733 0.57349971)
(0 0.016562767 0.56573761)
(0 0.015181107 0.55494406)
(0 0.013961893 0.54735132)
(0 0.012871477 0.54215414)
(0 0.011823669 0.53818327)
(0 0.010789823 0.53496233)
(0 0.0097645288 0.53231169)
(0 0.0087463771 0.53012478)
(0 0.0077341296 0.52832281)
(0 0.0067270662 0.5268472)
(0 0.0057247392 0.52565467)
(0 0.0047268128 0.52471314)
(0 0.0037329914 0.52399909)
(0 0.0027429655 0.52349569)
(0 0.0017564121 0.5231917)
(0 0.0007729875 0.52308071)
(0 -0.00020763588 0.52316077)
(0 -0.0011857582 0.52343428)
(0 -0.0021616188 0.52390819)
(0 -0.0031353963 0.52459434)
(0 -0.0041071792 0.52551034)
(0 -0.005076993 0.52668078)
(0 -0.0060448374 0.52813922)
(0 -0.0070107539 0.5299311)
(0 -0.0079750798 0.53211777)
(0 -0.0089382245 0.53478215)
(0 -0.0099027045 0.53805277)
(0 -0.010882071 0.54223408)
(0 -0.011921946 0.54811848)
(0 -0.013063066 0.55655226)
(0 -0.013939147 0.5637166)
(0 -0.013193918 0.55063149)
(0 -0.0092913925 0.48111634)
(0 -0.0030675238 0.32911551)
(0 0.00013693495 0.11628431)
(0 3.5799415e-05 0.10542284)
(0 0.0031131062 0.30614842)
(0 0.0097301297 0.46581953)
(0 0.015033038 0.5511487)
(0 0.016743943 0.573222)
(0 0.016023412 0.56681892)
(0 0.014715282 0.5562039)
(0 0.013529633 0.54848348)
(0 0.012473221 0.54320386)
(0 0.011463601 0.53920445)
(0 0.01046869 0.53597214)
(0 0.0094817765 0.53331402)
(0 0.0085010602 0.53112121)
(0 0.0075251731 0.52931432)
(0 0.006553343 0.52783441)
(0 0.005585138 0.52663792)
(0 0.0046203158 0.52569268)
(0 0.0036587323 0.52497511)
(0 0.0027002751 0.52446839)
(0 0.0017448521 0.52416128)
(0 0.00079237336 0.52404736)
(0 -0.00015722594 0.52412464)
(0 -0.0011039811 0.52439551)
(0 -0.0020478792 0.52486684)
(0 -0.0029888675 0.52555043)
(0 -0.0039268391 0.52646382)
(0 -0.0048616703 0.52763159)
(0 -0.0057932764 0.52908737)
(0 -0.0067216834 0.53087675)
(0 -0.0076472972 0.53306142)
(0 -0.0085707794 0.5357255)
(0 -0.0094952988 0.53900446)
(0 -0.010436418 0.54322521)
(0 -0.011438439 0.54918483)
(0 -0.012519353 0.55751084)
(0 -0.013273181 0.56370013)
(0 -0.012383098 0.54825039)
(0 -0.0085421827 0.47625502)
(0 -0.0027744398 0.3245485)
(0 9.5772493e-05 0.11491689)
(0 5.6040779e-05 0.10403464)
(0 0.0028817966 0.30171824)
(0 0.0090154172 0.46042661)
(0 0.014191444 0.54796671)
(0 0.016046188 0.57279226)
(0 0.015487994 0.56778737)
(0 0.014256867 0.55741073)
(0 0.013105988 0.54958155)
(0 0.012082201 0.54421827)
(0 0.011108902 0.54018807)