/*--------------------------------*- C++ -*----------------------------------*\
  =========                 |
  \\      /  F ield         | OpenFOAM: The Open Source CFD Toolbox
   \\    /   O peration     | Website:  https://openfoam.org
    \\  /    A nd           | Version:  10
     \\/     M anipulation  |
\*---------------------------------------------------------------------------*/
FoamFile
{
    format      ascii;
    class       surfaceScalarField;
    location    "0.12";
    object      phi;
}
// * * * * * * * * * * * * * * * * * * * * * * * * * * * * * * * * * * * * * //

dimensions      [1 0 -1 0 0 0 0];

internalField   nonuniform List<scalar> 
7860
(
3.9892281e-08
5.2881575e-07
1.218987e-08
5.9641019e-07
7.4249526e-09
5.7347265e-07
5.4960527e-09
5.7063659e-07
4.1115059e-09
5.7009221e-07
3.197654e-09
5.6962149e-07
2.5557343e-09
5.6934954e-07
2.0760528e-09
5.6918729e-07
1.7062742e-09
5.6907738e-07
1.4138676e-09
5.6899999e-07
1.1770317e-09
5.6894441e-07
9.8099825e-10
5.6890361e-07
8.154184e-10
5.6887315e-07
6.7279684e-10
5.6885018e-07
5.4755534e-10
5.688328e-07
4.3542817e-10
5.6881968e-07
3.3305662e-10
5.6880992e-07
2.3770833e-10
5.688029e-07
1.4707523e-10
5.6879818e-07
5.9120899e-11
5.687955e-07
-2.8042833e-11
5.6879471e-07
-1.1626305e-10
5.6879577e-07
-2.0745221e-10
5.6879874e-07
-3.0369359e-10
5.6880379e-07
-4.0737392e-10
5.6881123e-07
-5.2134651e-10
5.6882153e-07
-6.4915196e-10
5.6883536e-07
-7.9533115e-10
5.6885374e-07
-9.65886e-10
5.6887812e-07
-1.1689862e-09
5.6891067e-07
-1.4161425e-09
5.6895473e-07
-1.7241773e-09
5.6901562e-07
-2.1180833e-09
5.691015e-07
-2.6377577e-09
5.6922728e-07
-3.3656233e-09
5.6943549e-07
-4.4573146e-09
5.6979933e-07
-6.0035141e-09
5.7025387e-07
-9.5030712e-09
5.7220726e-07
-2.9569831e-08
5.887745e-07
5.3913808e-07
5.9663759e-08
4.6915205e-07
3.6655595e-08
6.1941833e-07
2.2618131e-08
5.8751011e-07
1.6242937e-08
5.7701179e-07
1.2279561e-08
5.7405559e-07
9.5953106e-09
5.7230574e-07
7.6667766e-09
5.7127808e-07
6.2259021e-09
5.7062816e-07
5.1170646e-09
5.7018621e-07
4.2401715e-09
5.6987689e-07
3.5298708e-09
5.6965472e-07
2.9419769e-09
5.694915e-07
2.4454285e-09
5.693697e-07
2.0177342e-09
5.6927788e-07
1.6421638e-09
5.6920837e-07
1.3059241e-09
5.6915592e-07
9.9894216e-10
5.6911691e-07
7.1302359e-10
5.6908882e-07
4.4124658e-10
5.6906996e-07
1.7750316e-10
5.6905925e-07
-8.3869727e-11
5.6905609e-07
-3.484125e-10
5.6906031e-07
-6.2185486e-10
5.6907218e-07
-9.1044741e-10
5.6909238e-07
-1.2213483e-09
5.6912213e-07
-1.5631146e-09
5.6916329e-07
-1.9463643e-09
5.6921861e-07
-2.3847159e-09
5.6929209e-07
-2.8961763e-09
5.6938958e-07
-3.5052641e-09
5.6951976e-07
-4.2464271e-09
5.696959e-07
-5.1700634e-09
5.6993926e-07
-6.352838e-09
5.7028428e-07
-7.9135231e-09
5.7078797e-07
-1.0055396e-08
5.7157736e-07
-1.3184697e-08
5.7292863e-07
-1.8116301e-08
5.7518547e-07
-2.8159158e-08
5.8225011e-07
-4.5787766e-08
6.0640311e-07
4.9335032e-07
5.9995515e-08
4.0915667e-07
5.0468072e-08
6.2894577e-07
3.3352275e-08
6.0462587e-07
2.4798892e-08
5.8556517e-07
1.9304007e-08
5.7955047e-07
1.5312308e-08
5.7629744e-07
1.2342007e-08
5.7424838e-07
1.0083698e-08
5.7288647e-07
8.323966e-09
5.7194594e-07
6.9196596e-09
5.7128119e-07
5.7746705e-09
5.707997e-07
4.8222053e-09
5.7044396e-07
4.0144721e-09
5.7017743e-07
3.3164583e-09
5.6997589e-07
2.7018732e-09
5.6982296e-07
2.1504577e-09
5.6970734e-07
1.6461594e-09
5.696212e-07
1.1758518e-09
5.6955913e-07
7.2840009e-10
5.6951741e-07
2.9394827e-10
5.694937e-07
-1.366589e-10
5.6948669e-07
-5.7238155e-10
5.6949603e-07
-1.0224783e-09
5.6952228e-07
-1.4970267e-09
5.6956693e-07
-2.007526e-09
5.6963263e-07
-2.5676573e-09
5.6972342e-07
-3.1942948e-09
5.6984525e-07
-3.908918e-09
5.7000672e-07
-4.7396615e-09
5.7022032e-07
-5.7243799e-09
5.7050448e-07
-6.915307e-09
5.7088682e-07
-8.3866954e-09
5.7141065e-07
-1.0248007e-08
5.7214559e-07
-1.2661198e-08
5.7320116e-07
-1.585953e-08
5.7477569e-07
-2.0205055e-08
5.7727416e-07
-2.6675416e-08
5.8165583e-07
-3.891527e-08
5.9448997e-07
-4.8143e-08
6.1563084e-07
4.4520732e-07
5.486186e-08
3.5429506e-07
5.7422973e-08
6.2638472e-07
4.043891e-08
6.2160988e-07
3.0750536e-08
5.9525353e-07
2.4614376e-08
5.8568663e-07
1.9923743e-08
5.8098807e-07
1.6285139e-08
5.7788698e-07
1.3440016e-08
5.757316e-07
1.1176205e-08
5.7420975e-07
9.3419613e-09
5.7311544e-07
7.8293595e-09
5.7231231e-07
6.5598716e-09
5.7171345e-07
5.4756127e-09
5.7126169e-07
4.5332317e-09
5.7091827e-07
3.6995958e-09
5.7065659e-07
2.9488095e-09
5.7045812e-07
2.260117e-09
5.703099e-07
1.6163843e-09
5.7020286e-07
1.0029673e-09
5.7013083e-07
4.0683164e-10
5.7008983e-07
-1.8417049e-10
5.7007769e-07
-7.8194102e-10
5.700938e-07
-1.3987569e-09
5.7013909e-07
-2.047925e-09
5.702161e-07
-2.7445335e-09
5.7032924e-07
-3.506379e-09
5.7048527e-07
-4.3551753e-09
5.7069405e-07
-5.3181859e-09
5.7096973e-07
-6.4305058e-09
5.7133264e-07
-7.7383221e-09
5.7181229e-07
-9.303483e-09
5.7245198e-07
-1.1209884e-08
5.7331705e-07
-1.3573873e-08
5.7450958e-07
-1.6556902e-08
5.7618419e-07
-2.0356915e-08
5.7857571e-07
-2.5240672e-08
5.8215792e-07
-3.2466465e-08
5.8888162e-07
-4.5050447e-08
6.0707395e-07
-4.6515977e-08
6.1709637e-07
3.9869134e-07
4.7945418e-08
3.0635004e-07
6.0036667e-08
6.1429367e-07
4.5359091e-08
6.3628738e-07
3.4835968e-08
6.0577662e-07
2.8360354e-08
5.9216225e-07
2.3380376e-08
5.8596805e-07
1.939614e-08
5.8187122e-07
1.6192787e-08
5.7893495e-07
1.3585731e-08
5.7681681e-07
1.1435512e-08
5.7526566e-07
9.6369558e-09
5.7411086e-07
8.1099693e-09
5.7324044e-07
6.7934792e-09
5.7257818e-07
5.6404229e-09
5.7207133e-07
4.613975e-09
5.7168304e-07
3.6847988e-09
5.713873e-07
2.8290053e-09
5.7116569e-07
2.0266144e-09
5.7100525e-07
1.26037e-09
5.7089707e-07
5.147949e-10
5.7083541e-07
-2.2460296e-10
5.7081709e-07
-9.7204041e-10
5.7084124e-07
-1.7421495e-09
5.709092e-07
-2.550701e-09
5.7102465e-07
-3.4154203e-09
5.7119396e-07
-4.3569718e-09
5.7142682e-07
-5.4001992e-09
5.7173727e-07
-6.5757359e-09
5.7214526e-07
-7.922132e-09
5.7267904e-07
-9.4887288e-09
5.7337889e-07
-1.1339436e-08
5.7430269e-07
-1.3557159e-08
5.7553477e-07
-1.6250298e-08
5.7720272e-07
-1.9562589e-08
5.7949648e-07
-2.3664522e-08
5.8267764e-07
-2.8858723e-08
5.8735212e-07
-3.6719108e-08
5.9674201e-07
-4.8393535e-08
6.1874837e-07
-4.3152107e-08
6.1185494e-07
3.5553923e-07
4.0312969e-08
2.6603764e-07
5.8943312e-08
5.9566374e-07
4.8274514e-08
6.4695612e-07
3.7535446e-08
6.1651561e-07
3.0876926e-08
5.9882076e-07
2.5842568e-08
5.9100241e-07
2.1730079e-08
5.8598371e-07
1.8344522e-08
5.8232051e-07
1.5533138e-08
5.796282e-07
1.3173817e-08
5.7762498e-07
1.1170557e-08
5.7611412e-07
9.4480047e-09
5.7496299e-07
7.9469542e-09
5.7407923e-07
6.6204389e-09
5.7339784e-07
5.4307694e-09
5.7287271e-07
4.3472654e-09
5.724708e-07
3.3444762e-09
5.7216848e-07
2.400781e-09
5.7194894e-07
1.4972705e-09
5.7180058e-07
6.1682587e-10
5.7171585e-07
-2.566714e-10
5.7169059e-07
-1.1390578e-09
5.7172363e-07
-2.0465905e-09
5.7181674e-07
-2.9966763e-09
5.7197474e-07
-4.0086778e-09
5.7220596e-07
-5.1048605e-09
5.72523e-07
-6.3115442e-09
5.7294396e-07
-7.6605389e-09
5.7349426e-07
-9.1909425e-09
5.7420944e-07
-1.0951449e-08
5.751394e-07
-1.3003383e-08
5.7635463e-07
-1.5424121e-08
5.7795551e-07
-1.8311179e-08
5.8008977e-07
-2.1788897e-08
5.829742e-07
-2.6013288e-08
5.8690203e-07
-3.1392851e-08
5.9273168e-07
-3.9557445e-08
6.049066e-07
-4.9080674e-08
6.282716e-07
-3.8527963e-08
6.0130223e-07
3.1701127e-07
3.2837132e-08
2.3320125e-07
5.5188066e-08
5.733135e-07
4.9160088e-08
6.529841e-07
3.8993147e-08
6.2668244e-07
3.2364204e-08
6.0544968e-07
2.7453303e-08
5.9591332e-07
2.3375256e-08
5.9006175e-07
1.9942566e-08
5.857532e-07
1.7038542e-08
5.8253222e-07
1.4560883e-08
5.8010264e-07
1.2425728e-08
5.7824928e-07
1.0565752e-08
5.7682297e-07
8.926638e-09
5.7571834e-07
7.4641187e-09
5.7486036e-07
6.1417887e-09
5.7419504e-07
4.9293467e-09
5.7368325e-07
3.8011526e-09
5.7329667e-07
2.7350501e-09
5.7301505e-07
1.7113909e-09
5.7282424e-07
7.1220242e-10
5.7271504e-07
-2.7954414e-10
5.7268234e-07
-1.2806087e-09
5.7272469e-07
-2.3081486e-09
5.7284428e-07
-3.3804026e-09
5.7304699e-07
-4.5174329e-09
5.7334299e-07
-5.7419729e-09
5.7374754e-07
-7.0804247e-09
5.7428241e-07
-8.5640607e-09
5.7497789e-07
-1.0230474e-08
5.7587586e-07
-1.2125354e-08
5.7703428e-07
-1.4304877e-08
5.7853415e-07
-1.6838597e-08
5.8048923e-07
-1.9811495e-08
5.8306267e-07
-2.3324558e-08
5.8648726e-07
-2.7519316e-08
5.9109679e-07
-3.2912145e-08
5.9812451e-07
-4.088496e-08
6.1287942e-07
-4.7573432e-08
6.3496007e-07
-3.3317708e-08
5.8704651e-07
2.8369356e-07
2.616103e-08
2.0704115e-07
5.0059235e-08
5.4941637e-07
4.8402803e-08
6.5464067e-07
3.9404168e-08
6.3568091e-07
3.2994129e-08
6.1185967e-07
2.8330446e-08
6.00577e-07
2.4413959e-08
5.9397824e-07
2.1043221e-08
5.8912393e-07
1.8137188e-08
5.8543825e-07
1.5616527e-08
5.826233e-07
1.3412015e-08
5.8045379e-07
1.1466385e-08
5.787686e-07
9.7320355e-09
5.7745269e-07
8.1690851e-09
5.7642331e-07
6.7439143e-09
5.7562021e-07
5.4278894e-09
5.7499927e-07
4.196275e-09
5.7452829e-07
3.0273104e-09
5.7418401e-07
1.9014115e-09
5.7395014e-07
8.0046717e-10
5.7381599e-07
-2.9279769e-10
5.737756e-07
-1.3954185e-09
5.7382731e-07
-2.5247845e-09
5.7397364e-07
-3.6992422e-09
5.7422145e-07
-4.9387389e-09
5.7458249e-07
-6.265538e-09
5.7507434e-07
-7.7050317e-09
5.757219e-07
-9.2866893e-09
5.7655955e-07
-1.1045165e-08
5.7763433e-07
-1.3021565e-08
5.7901068e-07
-1.5265101e-08
5.8077768e-07
-1.7835201e-08
5.8305933e-07
-2.0801487e-08
5.8602896e-07
-2.4239406e-08
5.8992518e-07
-2.8284296e-08
5.9514168e-07
-3.3538209e-08
6.0337842e-07
-4.0904825e-08
6.2024603e-07
-4.4659269e-08
6.3871452e-07
-2.8138584e-08
5.7052582e-07
2.5555498e-07
2.0540468e-08
1.8650181e-07
4.4497683e-08
5.2546067e-07
4.6531502e-08
6.5260721e-07
3.9044721e-08
6.4316749e-07
3.2980854e-08
6.1792345e-07
2.8617489e-08
6.0494037e-07
2.4941425e-08
5.9765431e-07
2.1711973e-08
5.9235339e-07
1.8873664e-08
5.8827656e-07
1.6370308e-08
5.8512665e-07
1.4148303e-08
5.8267579e-07
1.2161369e-08
5.8075553e-07
1.036962e-08
5.7924444e-07
8.7385971e-09
5.7805434e-07
7.2384429e-09
5.7712036e-07
5.8430882e-09
5.7639463e-07
4.5295131e-09
5.7584186e-07
3.2770811e-09
5.7543644e-07
2.0669309e-09
5.7516029e-07
8.8141982e-10
5.750015e-07
-2.9639807e-10
5.7495342e-07
-1.483268e-09
5.7501418e-07
-2.6962326e-09
5.7518661e-07
-3.9531345e-09
5.7547835e-07
-5.2731413e-09
5.759025e-07
-6.6773124e-09
5.7647851e-07
-8.1892165e-09
5.7723381e-07
-9.8356176e-09
5.7820595e-07
-1.1647241e-08
5.7944596e-07
-1.365957e-08
5.8102301e-07
-1.5913752e-08
5.8303187e-07
-1.8457799e-08
5.8560337e-07
-2.1345028e-08
5.8891619e-07
-2.462973e-08
5.9320988e-07
-2.8457415e-08
5.9896936e-07
-3.3471211e-08
6.0839222e-07
-3.9950411e-08
6.2672523e-07
-4.0996266e-08
6.3976037e-07
-2.3343844e-08
5.528734e-07
2.3221113e-07
1.5982355e-08
1.7052079e-07
3.9045618e-08
5.0239944e-07
4.3984312e-08
6.4766918e-07
3.8156251e-08
6.4899534e-07
3.2528087e-08
6.2355147e-07
2.8470124e-08
6.0899832e-07
2.5066518e-08
6.0105792e-07
2.2024907e-08
5.95395e-07
1.9301331e-08
5.9100014e-07
1.6859552e-08
5.8756843e-07
1.4660472e-08
5.8487487e-07
1.2668379e-08
5.8274762e-07
1.0851243e-08
5.8106158e-07
9.1804233e-09
5.7972516e-07
7.6303287e-09
5.7867046e-07
6.1779948e-09
5.7784696e-07
4.8026585e-09
5.772172e-07
3.4853306e-09
5.7675377e-07
2.2083735e-09
5.7643725e-07
9.5509236e-10
5.7625478e-07
-2.9066272e-10
5.7619917e-07
-1.5448842e-09
5.7626841e-07
-2.8238e-09
5.7646552e-07
-4.1442649e-09
5.7679882e-07
-5.5241611e-09
5.7728239e-07
-6.9828139e-09
5.7793717e-07
-8.5414191e-09
5.7879241e-07
-1.0223483e-08
5.7988802e-07
-1.2055276e-08
5.8127775e-07
-1.4066256e-08
5.8303399e-07
-1.6289426e-08
5.8525504e-07
-1.8761726e-08
5.8807567e-07
-2.1521551e-08
5.9167601e-07
-2.4609618e-08
5.9629795e-07
-2.819338e-08
6.0255312e-07
-3.2895179e-08
6.1309402e-07
-3.8316604e-08
6.3214666e-07
-3.702677e-08
6.3847054e-07
-1.9102631e-08
5.3494926e-07
2.131085e-07
1.238761e-08
1.5813476e-07
3.4001888e-08
4.807878e-07
4.1090249e-08
6.405819e-07
3.6916627e-08
6.5316878e-07
3.1789522e-08
6.2867836e-07
2.8022674e-08
6.1276513e-07
2.4892534e-08
6.0418807e-07
2.2058967e-08
5.9822857e-07
1.9477007e-08
5.935821e-07
1.7125854e-08
5.8991958e-07
1.497873e-08
5.87022e-07
1.3009191e-08
5.8471716e-07
1.1192466e-08
5.828783e-07
9.505566e-09
5.8141206e-07
7.92724e-09
5.8024878e-07
6.4378442e-09
5.7933636e-07
5.019163e-09
5.7863588e-07
3.6541812e-09
5.7811875e-07
2.3268273e-09
5.777646e-07
1.0217027e-09
5.775599e-07
-2.7619692e-10
5.7749707e-07
-1.5817614e-09
5.7757397e-07
-2.9100526e-09
5.7779381e-07
-4.2765874e-09
5.7816535e-07
-5.6976166e-09
5.7870342e-07
-7.1903999e-09
5.7942995e-07
-8.773466e-09
5.8037548e-07
-1.0466846e-08
5.8158139e-07
-1.2292281e-08
5.8310319e-07
-1.4273386e-08
5.8501509e-07
-1.6435674e-08
5.8741732e-07
-1.8806253e-08
5.9044625e-07
-2.1410925e-08
5.9428069e-07
-2.4284006e-08
5.9917103e-07
-2.7617728e-08
6.0588685e-07
-3.1952451e-08
6.1742874e-07
-3.6245357e-08
6.3643957e-07
-3.3051754e-08
6.3527693e-07
-1.547633e-08
5.1737384e-07
1.9763217e-07
9.6175383e-09
1.4851908e-07
2.9518565e-08
4.6089012e-07
3.8095708e-08
6.3200638e-07
3.5463697e-08
6.558007e-07
3.0875881e-08
6.3326588e-07
2.7379071e-08
6.1626188e-07
2.4505675e-08
6.0706147e-07
2.1882597e-08
6.0085165e-07
1.9454261e-08
5.9601043e-07
1.7210458e-08
5.9216339e-07
1.5134397e-08
5.8909806e-07
1.3207349e-08
5.8664421e-07
1.1410828e-08
5.8467482e-07
9.7269588e-09
5.8309593e-07
8.1385867e-09
5.8183716e-07
6.629343e-09
5.808456e-07
5.1836367e-09
5.8008159e-07
3.7865787e-09
5.7951581e-07
2.4238606e-09
5.7912732e-07
1.0816019e-09
5.7890216e-07
-2.5382128e-10
5.788325e-07
-1.5959569e-09
5.7891611e-07
-2.9584661e-09
5.7915632e-07
-4.3553046e-09
5.7956219e-07
-5.8008947e-09
5.8014901e-07
-7.3102784e-09
5.8093933e-07
-8.8992418e-09
5.8196444e-07
-1.0584392e-08
5.8326654e-07
-1.2383185e-08
5.8490198e-07
-1.431392e-08
5.8694583e-07
-1.6395559e-08
5.8949896e-07
-1.8646836e-08
5.9269753e-07
-2.1083615e-08
5.9671746e-07
-2.3739915e-08
6.0182733e-07
-2.682877e-08
6.089757e-07
-3.0760788e-08
6.2136076e-07
-3.3940493e-08
6.3961927e-07
-2.9275992e-08
6.3061243e-07
-1.246005e-08
5.005579e-07
1.8517212e-07
7.5232756e-09
1.4099802e-07
2.5643115e-08
4.4277443e-07
3.5171288e-08
6.2248049e-07
3.3906969e-08
6.5706507e-07
2.9869678e-08
6.3730281e-07
2.6618831e-08
6.1951261e-07
2.3975223e-08
6.0970509e-07
2.1553223e-08
6.0327366e-07
1.9280055e-08
5.982836e-07
1.7151131e-08
5.9429231e-07
1.5157357e-08
5.9109183e-07
1.3286184e-08
5.8851538e-07
1.152433e-08
5.8643668e-07
9.8583134e-09
5.8476194e-07
8.2746513e-09
5.8342082e-07
6.7600267e-09
5.8236022e-07
5.3013896e-09
5.8154022e-07
3.8859887e-09
5.8093121e-07
2.501351e-09
5.8051196e-07
1.135225e-09
5.8026829e-07
-2.245023e-10
5.8019222e-07
-1.5899002e-09
5.802815e-07
-2.9730985e-09
5.8053952e-07
-4.3863829e-09
5.8097547e-07
-5.8422763e-09
5.8160491e-07
-7.3535945e-09
5.8245065e-07
-8.9334669e-09
5.8354431e-07
-1.0595303e-08
5.8492838e-07
-1.2352701e-08
5.8665938e-07
-1.4219329e-08
5.8881245e-07
-1.6208623e-08
5.9148826e-07
-1.8332477e-08
5.9482138e-07
-2.0599781e-08
5.9898477e-07
-2.3049246e-08
6.0427679e-07
-2.5906291e-08
6.1183274e-07
-2.9420811e-08
6.2487528e-07
-3.156327e-08
6.4176173e-07
-2.5821453e-08
6.2487062e-07
-1.000694e-08
4.8474338e-07
1.7516518e-07
5.9642285e-09
1.3503645e-07
2.2353593e-08
4.2639016e-07
3.2418564e-08
6.1241862e-07
3.232651e-08
6.5715741e-07
2.8830506e-08
6.4079837e-07
2.580162e-08
6.2254133e-07
2.3356079e-08
6.1215062e-07
2.1118048e-08
6.055117e-07
1.8994243e-08
6.0040741e-07
1.6981009e-08
5.9630555e-07
1.5074719e-08
5.9299812e-07
1.3267554e-08
5.9032255e-07
1.1550344e-08
5.8815389e-07
9.913231e-09
5.8639906e-07
8.3458892e-09
5.8498816e-07
6.8377259e-09
5.8386839e-07
5.3780426e-09
5.8299991e-07
3.9561337e-09
5.8235312e-07
2.5613375e-09
5.8190675e-07
1.1830495e-09
5.8164658e-07
-1.8928985e-10
5.8156456e-07
-1.5662218e-09
5.8165844e-07
-2.9583041e-09
5.819316e-07
-4.3761362e-09
5.8239331e-07
-5.8303695e-09
5.8305914e-07
-7.3316904e-09
5.8395197e-07
-8.8907662e-09
5.8510339e-07
-1.0518141e-08
5.8655576e-07
-1.2224076e-08
5.8836531e-07
-1.4018375e-08
5.9060675e-07
-1.5910002e-08
5.9337988e-07
-1.7905602e-08
5.9681698e-07
-2.0010141e-08
6.0108931e-07
-2.2270445e-08
6.065371e-07
-2.491329e-08
6.1447559e-07
-2.8012636e-08
6.2797462e-07
-2.9227467e-08
6.4297656e-07
-2.2743049e-08
6.183862e-07
-8.0483913e-09
4.7004872e-07
1.6711679e-07
4.817691e-09
1.3022194e-07
1.9591309e-08
4.1162273e-07
2.9885523e-08
6.0212849e-07
3.0774271e-08
6.5626929e-07
2.7797351e-08
6.4377478e-07
2.49692e-08
6.2536924e-07
2.2689909e-08
6.1442989e-07
2.0614722e-08
6.0758689e-07
1.8629743e-08
6.0239239e-07
1.6728331e-08
5.9820696e-07
1.4910274e-08
5.9481618e-07
1.3171168e-08
5.9206166e-07
1.1504936e-08
5.8982012e-07
9.9045885e-09
5.879994e-07
8.3624083e-09
5.8653034e-07
6.8701498e-09
5.8536065e-07
5.4192128e-09
5.8445084e-07
4.0007769e-09
5.8377156e-07
2.6058961e-09
5.8330164e-07
1.2255609e-09
5.8302691e-07
-1.4926316e-10
5.8293939e-07
-1.5276099e-09
5.8303678e-07
-2.9184949e-09
5.8332249e-07
-4.330887e-09
5.838057e-07
-5.7736672e-09
5.8450192e-07
-7.2555604e-09
5.8543387e-07
-8.7850347e-09
5.8663286e-07
-1.037016e-08
5.8814088e-07
-1.2018423e-08
5.9001358e-07
-1.373654e-08
5.9232487e-07
-1.5530039e-08
5.9517338e-07
-1.7401845e-08
5.9868879e-07
-1.9355759e-08
6.0304322e-07
-2.144834e-08
6.0862968e-07
-2.3895898e-08
6.1692315e-07
-2.6594498e-08
6.3067322e-07
-2.7004748e-08
6.4338681e-07
-2.0049815e-08
6.1143127e-07
-6.5086402e-09
4.5650755e-07
1.6060815e-07
3.9813191e-09
1.2624446e-07
1.7283665e-08
3.9832785e-07
2.758585e-08
5.9183155e-07
2.928047e-08
6.5457576e-07
2.6792882e-08
6.4626183e-07
2.4148205e-08
6.2801359e-07
2.2006367e-08
6.1657169e-07
2.0071899e-08
6.0952137e-07
1.8212754e-08
6.0425154e-07
1.6416396e-08
6.0000332e-07
1.4684256e-08
5.9654832e-07
1.301424e-08
5.9373167e-07
1.1402477e-08
5.9143188e-07
9.8441453e-09
5.8955773e-07
8.3336108e-09
5.8804088e-07
6.8645828e-09
5.8682967e-07
5.4302762e-09
5.8588515e-07
4.0235539e-09
5.8517828e-07
2.637043e-09
5.8468815e-07
1.2632261e-09
5.8440073e-07
-1.0548677e-10
5.843081e-07
-1.4766941e-09
5.8440799e-07
-2.857953e-09
5.8470375e-07
-4.2567091e-09
5.8520446e-07
-5.6802224e-09
5.8592543e-07
-7.135469e-09
5.8688911e-07
-8.6290158e-09
5.8812641e-07
-1.0166869e-08
5.8967873e-07
-1.1754297e-08
5.91601e-07
-1.339566e-08
5.9396623e-07
-1.5093985e-08
5.9687171e-07
-1.6849833e-08
6.0044464e-07
-1.8668096e-08
6.0486148e-07
-2.061505e-08
6.1057663e-07
-2.2885486e-08
6.1919358e-07
-2.5205614e-08
6.3299335e-07
-2.4934414e-08
6.4311561e-07
-1.7722923e-08
6.0421978e-07
-5.3132447e-09
4.4409787e-07
1.5529491e-07
3.3724694e-09
1.2287662e-07
1.5356751e-08
3.8635253e-07
2.5512654e-08
5.8168229e-07
2.7860105e-08
6.5222999e-07
2.5828421e-08
6.4829296e-07
2.3353944e-08
6.3048763e-07
2.1325246e-08
6.1860032e-07
1.9510356e-08
6.1133628e-07
1.7763305e-08
6.059986e-07
1.6063763e-08
6.0170286e-07
1.4413339e-08
5.9819874e-07
1.2811358e-08
5.9533365e-07
1.1255435e-08
5.929878e-07
9.7423152e-09
5.9107085e-07
8.2679679e-09
5.8951522e-07
6.8276831e-09
5.8826996e-07
5.4162025e-09
5.8729663e-07
4.0278523e-09
5.8656663e-07
2.6566631e-09
5.8605934e-07
1.2964746e-09
5.8576092e-07
-5.8976461e-11
5.8566355e-07
-1.4159593e-09
5.8576497e-07
-2.7806951e-09
5.8606848e-07
-4.1592446e-09
5.86583e-07
-5.5574259e-09
5.8732361e-07
-6.9806991e-09
5.8831239e-07
-8.4340357e-09
5.8957975e-07
-9.921776e-09
5.9116647e-07
-1.1447482e-08
5.9312671e-07
-1.3013798e-08
5.9553255e-07
-1.4622042e-08
5.9847995e-07
-1.6271575e-08
6.0209417e-07
-1.7970052e-08
6.0655996e-07
-1.9792191e-08
6.1239877e-07
-2.1901924e-08
6.2130332e-07
-2.3870293e-08
6.3496172e-07
-2.3032857e-08
6.4227817e-07
-1.5728127e-08
5.9691505e-07
-4.3937596e-09
4.327635e-07
1.5090115e-07
2.9265555e-09
1.1995565e-07
1.3742014e-08
3.7554778e-07
2.364781e-08
5.7178478e-07
2.6517896e-08
6.4936236e-07
2.4907786e-08
6.4990256e-07
2.2593834e-08
6.3280103e-07
2.0658861e-08
6.2053517e-07
1.8944504e-08
6.1305065e-07
1.7296172e-08
6.0764694e-07
1.5684757e-08
6.0331428e-07
1.4110861e-08
5.9977264e-07
1.2574541e-08
5.9686997e-07
1.1074337e-08
5.9448801e-07
9.6080713e-09
5.9253712e-07
8.1729036e-09
5.9095039e-07
6.7653662e-09
5.896775e-07
5.3814544e-09
5.8868054e-07
4.0167364e-09
5.8793135e-07
2.6664659e-09
5.8740961e-07
1.3256878e-09
5.871017e-07
-1.066299e-11
5.869999e-07
-1.3476873e-09
5.87102e-07
-2.6903809e-09
5.8741118e-07
-4.0435859e-09
5.8793621e-07
-5.4118699e-09
5.886919e-07
-6.7994113e-09
5.8969993e-07
-8.2098788e-09
5.9099022e-07
-9.6463099e-09
5.9260291e-07
-1.1111004e-08
5.945914e-07
-1.2605425e-08
5.9702697e-07
-1.4129833e-08
6.0000436e-07
-1.5683344e-08
6.0364768e-07
-1.7277484e-08
6.081541e-07
-1.8993251e-08
6.1411454e-07
-2.0956454e-08
6.2326652e-07
-2.2601474e-08
6.3660674e-07
-2.1300821e-08
6.4097752e-07
-1.4024148e-08
5.8963837e-07
-3.6902785e-09
4.2242964e-07
1.4721087e-07
2.5947916e-09
1.1736764e-07
1.2379634e-08
3.657757e-07
2.1968302e-08
5.6220631e-07
2.5252041e-08
6.4608204e-07
2.403e-08
6.511242e-07
2.1869959e-08
6.349604e-07
2.0014055e-08
6.223909e-07
1.8383838e-08
6.1468087e-07
1.6821884e-08
6.092089e-07
1.5290115e-08
6.0484605e-07
1.3787217e-08
6.0127554e-07
1.2313446e-08
5.9834374e-07
1.0867857e-08
5.959336e-07
9.4489602e-09
5.9395602e-07
8.054767e-09
5.9234458e-07
6.6827595e-09
5.910495e-07
5.329939e-09
5.9003336e-07
3.9929069e-09
5.8926838e-07
2.6679597e-09
5.8873455e-07
1.3511868e-09
5.8841847e-07
3.8568547e-11
5.8831252e-07
-1.2739282e-09
5.8841449e-07
-2.5902631e-09
5.8872751e-07
-3.9142163e-09
5.8926016e-07
-5.2492894e-09
5.9002697e-07
-6.5986018e-09
5.9104924e-07
-7.9647849e-09
5.923564e-07
-9.34989e-09
5.9398801e-07
-1.0755326e-08
5.9599684e-07
-1.2181804e-08
5.9845345e-07
-1.3629042e-08
6.014516e-07
-1.5096665e-08
6.0511531e-07
-1.6600655e-08
6.0965809e-07
-1.8225563e-08
6.1573945e-07
-2.0053957e-08
6.2509491e-07
-2.1403751e-08
6.3795653e-07
-1.9729204e-08
6.3930297e-07
-1.2568324e-08
5.8247749e-07
-3.1524086e-09
4.1301372e-07
1.4405846e-07
2.3414932e-09
1.1503439e-07
1.1219624e-08
3.5691276e-07
2.0450308e-08
5.5298809e-07
2.4057104e-08
6.4247986e-07
2.3191292e-08
6.5198979e-07
2.1180962e-08
6.3696991e-07
1.939377e-08
6.2417784e-07
1.783414e-08
6.162405e-07
1.6347627e-08
6.1069543e-07
1.4887648e-08
6.0630603e-07
1.3450303e-08
6.0271288e-07
1.2035659e-08
5.9975839e-07
1.0642984e-08
5.9732627e-07
9.2711917e-09
5.9532781e-07
7.9188706e-09
5.9369691e-07
6.5842103e-09
5.9238416e-07
5.2650023e-09
5.9135257e-07
3.9586906e-09
5.9057469e-07
2.6624466e-09
5.900308e-07
1.3732526e-09
5.8970766e-07
8.7992364e-11
5.8959778e-07
-1.1964648e-09
5.8969895e-07
-2.483167e-09
5.9001421e-07
-3.7749941e-09
5.9055199e-07
-5.0745622e-09
5.9132654e-07
-6.3841335e-09
5.9235881e-07
-7.7055345e-09
5.936778e-07
-9.0400958e-09
5.9532257e-07
-1.0388634e-08
5.9734538e-07
-1.1751435e-08
5.9981625e-07
-1.3128071e-08
6.0282824e-07
-1.4519239e-08
6.0650647e-07
-1.5945497e-08
6.1108435e-07
-1.7491962e-08
6.1728591e-07
-1.9194844e-08
6.267978e-07
-2.027606e-08
6.3903775e-07
-1.8303555e-08
6.3733047e-07
-1.1320233e-08
5.7549417e-07
-2.7391304e-09
4.0443262e-07
1.4131933e-07
2.1413347e-09
1.1290309e-07
1.0221461e-08
3.488507e-07
1.9071485e-08
5.4415316e-07
2.2926059e-08
6.3863134e-07
2.2386567e-08
6.5252934e-07
2.0523474e-08
6.3883206e-07
1.8798295e-08
6.2590268e-07
1.7298467e-08
6.177403e-07
1.5878023e-08
6.1211589e-07
1.4482826e-08
6.0770123e-07
1.3105954e-08
6.0408975e-07
1.1746998e-08
6.0111734e-07
1.0405234e-08
5.9866804e-07
9.0797726e-09
5.9665327e-07
7.769572e-09
5.9500711e-07
6.473332e-09
5.936804e-07
5.1894523e-09
5.9263645e-07
3.9160533e-09
5.9184809e-07
2.6510274e-09
5.9129582e-07
1.3921065e-09
5.9096658e-07
1.369382e-10
5.9085295e-07
-1.1168356e-09
5.9095273e-07
-2.3714973e-09
5.9126888e-07
-3.6291726e-09
5.9180967e-07
-4.891752e-09
5.9258912e-07
-6.1608176e-09
5.9362788e-07
-7.4375858e-09
5.9495457e-07
-8.722881e-09
5.9660787e-07
-1.0017157e-08
5.9863966e-07
-1.1320515e-08
6.011196e-07
-1.2632672e-08
6.0414039e-07
-1.3955779e-08
6.0782958e-07
-1.5314726e-08
6.124433e-07
-1.6792176e-08
6.1876336e-07
-1.8376653e-08
6.2838227e-07
-1.9213887e-08
6.3987498e-07
-1.7007268e-08
6.3512385e-07
-1.0243828e-08
5.6873073e-07
-2.4179967e-09
3.9660679e-07
1.3890134e-07
1.9768779e-09
1.1093843e-07
9.3529638e-09
3.4149609e-07
1.7812015e-08
5.3571228e-07
2.1851574e-08
6.3459959e-07
2.161039e-08
6.5277099e-07
1.9893141e-08
6.4054824e-07
1.8226238e-08
6.2756913e-07
1.6777968e-08
6.1918853e-07
1.5415782e-08
6.134781e-07
1.4079305e-08
6.0903771e-07
1.2758347e-08
6.0541071e-07
1.1451815e-08
6.0242388e-07
1.0158866e-08
5.9996099e-07
8.8786615e-09
5.9793348e-07
7.6103786e-09
5.9627539e-07
6.3530727e-09
5.9493771e-07
5.1056029e-09
5.9388392e-07
3.866624e-09
5.9308707e-07
2.6346145e-09
5.9252783e-07
1.4079267e-09
5.9219327e-07
1.8484718e-10
5.9207603e-07
-1.0363355e-09
5.9217391e-07
-2.2572645e-09
5.924898e-07
-3.4794445e-09
5.9303185e-07
-4.7041804e-09
5.9381385e-07
-5.9325233e-09
5.9485622e-07
-7.1652381e-09
5.9618728e-07
-8.402809e-09
5.9784544e-07
-9.6454951e-09
5.9988234e-07
-1.0893379e-08
6.0236749e-07
-1.2146524e-08
6.0539354e-07
-1.3408767e-08
6.0909182e-07
-1.4708796e-08
6.1374333e-07
-1.6123967e-08
6.2017853e-07
-1.7595282e-08
6.2985359e-07
-1.8210892e-08
6.404906e-07
-1.5823513e-08
6.3273647e-07
-9.3078939e-09
5.6221511e-07
-2.1638985e-09
3.8946279e-07
1.3673744e-07
1.8364872e-09
1.0911675e-07
8.5889393e-09
3.3476916e-07
1.665489e-08
5.276681e-07
2.0826721e-08
6.3043766e-07
2.0857556e-08
6.5274118e-07
1.9285301e-08
6.4211932e-07
1.7675234e-08
6.2917862e-07
1.6272509e-08
6.2059118e-07
1.4962242e-08
6.1478838e-07
1.3679369e-08
6.103206e-07
1.2410357e-08
6.0667973e-07
1.115328e-08
6.0368095e-07
9.9070952e-09
6.0120717e-07
8.6709274e-09
5.9916964e-07
7.4440626e-09
5.9750225e-07
6.2257961e-09
5.9615598e-07
5.0153282e-09
5.9509439e-07
3.8117302e-09
5.9429067e-07
2.6139521e-09
5.9372561e-07
1.4208534e-09
5.9338637e-07
2.3124952e-10
5.9326563e-07
-9.5603686e-10
5.9336119e-07
-2.1421204e-09
5.9367589e-07
-3.3280004e-09
5.9421773e-07
-4.5145142e-09
5.9500037e-07
-5.7023039e-09
5.9604401e-07
-6.8918069e-09
5.9737679e-07
-8.08329e-09
5.9903692e-07
-9.2769331e-09
6.0107599e-07
-1.0472909e-08
6.0356347e-07
-1.1671754e-08
6.0659238e-07
-1.2879095e-08
6.1029917e-07
-1.4126683e-08
6.1499091e-07
-1.5483984e-08
6.2153583e-07
-1.6845882e-08
6.3121549e-07
-1.7260045e-08
6.4090476e-07
-1.4736433e-08
6.3021286e-07
-8.4861632e-09
5.5596484e-07
-1.9578488e-09
3.8293448e-07
1.3477959e-07
1.7126422e-09
1.0742199e-07
7.909821e-09
3.2860233e-07
1.5585798e-08
5.2001808e-07
1.9845297e-08
6.2619055e-07
2.0123385e-08
6.5246484e-07
1.8695397e-08
6.4354604e-07
1.7142436e-08
6.3073086e-07
1.5781148e-08
6.2195235e-07
1.4517795e-08
6.1605175e-07
1.3284305e-08
6.115541e-07
1.2063872e-08
6.0790016e-07
1.0853632e-08
6.0489119e-07
9.6522972e-09
6.0240851e-07
8.4589045e-09
6.0036304e-07
7.2727779e-09
5.9868838e-07
6.0933673e-09
5.9733539e-07
4.9201226e-09
5.9626764e-07
3.7524375e-09
5.9545835e-07
2.5896376e-09
5.9488841e-07
1.4309945e-09
5.9454501e-07
2.7575641e-10
5.9442087e-07
-8.7681497e-10
5.9451377e-07
-2.027402e-09
5.9482648e-07
-3.1765948e-09
5.9536692e-07
-4.3248602e-09
5.9614863e-07
-5.4725272e-09
5.9719168e-07
-6.6197988e-09
5.9852406e-07
-7.7668101e-09
6.0018393e-07
-8.9137343e-09
6.0222291e-07
-1.0060895e-08
6.0471063e-07
-1.1209377e-08
6.0774087e-07
-1.2366589e-08
6.1145638e-07
-1.3566477e-08
6.161908e-07
-1.4868389e-08
6.2283774e-07
-1.6123471e-08
6.3247057e-07
-1.6354378e-08
6.4113567e-07
-1.3731782e-08
6.2759026e-07
-7.7570024e-09
5.4999006e-07
-1.785815e-09
3.7696329e-07
1.3299378e-07
1.6006276e-09
1.0584284e-07
7.3004443e-09
3.2293862e-07
1.4592808e-08
5.1275658e-07
1.8901928e-08
6.2189676e-07
1.9403832e-08
6.5196562e-07
1.81192e-08
6.4482936e-07
1.6624836e-08
6.3222434e-07
1.5302468e-08
6.2327455e-07
1.4082203e-08
6.1727204e-07
1.2894692e-08
6.1274162e-07
1.1720047e-08
6.0907481e-07
1.0554396e-08
6.0605684e-07
9.396183e-09
6.0356672e-07
8.2443354e-09
6.0151488e-07
7.0981712e-09
5.9983455e-07
5.9572361e-09
5.9847632e-07
4.8211614e-09
5.9740371e-07
3.6895894e-09
5.9658993e-07
2.5621442e-09
5.9601586e-07
1.4384308e-09
5.9566873e-07
3.1805046e-10
5.9554125e-07
-7.993758e-10
5.9563119e-07
-1.9141778e-09
5.9594128e-07
-3.026615e-09
5.9647936e-07
-4.1368605e-09
5.9725888e-07
-5.2450024e-09
5.9829982e-07
-6.3510757e-09
5.9963013e-07
-7.4551384e-09
6.01288e-07
-8.5573958e-09
6.0332517e-07
-9.6583487e-09
6.0581158e-07
-1.075966e-08
6.0884218e-07
-1.1870421e-08
6.1256714e-07
-1.3025832e-08
6.1734621e-07
-1.4273295e-08
6.2408521e-07
-1.5423351e-08
6.3362062e-07
-1.5487463e-08
6.4119978e-07
-1.2797193e-08
6.2489999e-07
-7.1028831e-09
5.4429576e-07
-1.6376461e-09
3.7149805e-07
1.3135613e-07
1.497561e-09
1.0437091e-07
6.7490082e-09
3.1773011e-07
1.366598e-08
5.0587619e-07
1.7992028e-08
6.1758951e-07
1.8695499e-08
6.5126602e-07
1.7552929e-08
6.4597061e-07
1.6119473e-08
6.3365674e-07
1.4834819e-08
6.2455896e-07
1.365484e-08
6.1845202e-07
1.2510634e-08
6.1388584e-07
1.1379513e-08
6.1020593e-07
1.0256565e-08
6.0717979e-07
9.1399568e-09
6.0468333e-07
8.0284998e-09
6.0262634e-07
6.921485e-09
6.0094156e-07
5.8185165e-09
5.9957929e-07
4.7193587e-09
5.9850287e-07
3.6238466e-09
5.9768544e-07
2.5318429e-09
5.9710786e-07
1.4432224e-09
5.9675735e-07
3.5787517e-10
5.966266e-07
-7.2428318e-10
5.9671335e-07
-1.803294e-09
5.9702029e-07
-2.8791482e-09
5.9755521e-07
-3.9517828e-09
5.9833152e-07
-5.0210979e-09
5.9936914e-07
-6.0870031e-09
6.0069604e-07
-7.1495096e-09
6.023505e-07
-8.2088673e-09
6.0438453e-07
-9.2657534e-09
6.0686847e-07
-1.0322406e-08
6.0989883e-07
-1.1389428e-08
6.1363416e-07
-1.2502305e-08
6.1845909e-07
-1.3695075e-08
6.2527798e-07
-1.4741371e-08
6.3466692e-07
-1.465367e-08
6.4111208e-07
-1.1922201e-08
6.2216853e-07
-6.5097887e-09
5.3888334e-07
-1.5061524e-09
3.6649442e-07
1.2984998e-07
1.4016981e-09
1.0299964e-07
6.2462375e-09
3.1293662e-07
1.2796994e-08
4.9936872e-07
1.7111703e-08
6.1329767e-07
1.7995584e-08
6.5038747e-07
1.6993291e-08
6.4697166e-07
1.5623563e-08
6.3502521e-07
1.437648e-08
6.2580572e-07
1.3234872e-08
6.1959363e-07
1.2131933e-08
6.149888e-07
1.1042551e-08
6.1129532e-07