/*--------------------------------*- C++ -*----------------------------------*\
  =========                 |
  \\      /  F ield         | OpenFOAM: The Open Source CFD Toolbox
   \\    /   O peration     | Website:  https://openfoam.org
    \\  /    A nd           | Version:  10
     \\/     M anipulation  |
\*---------------------------------------------------------------------------*/
FoamFile
{
    format      ascii;
    class       surfaceScalarField;
    location    "0.12";
    object      phi_0;
}
// * * * * * * * * * * * * * * * * * * * * * * * * * * * * * * * * * * * * * //

dimensions      [1 0 -1 0 0 0 0];

internalField   nonuniform List<scalar> 
7860
(
3.9892102e-08
5.2881593e-07
1.2189732e-08
5.9641015e-07
7.4248103e-09
5.7347266e-07
5.4958898e-09
5.7063661e-07
4.1113365e-09
5.7009222e-07
3.1974838e-09
5.6962149e-07
2.5555663e-09
5.6934954e-07
2.0758902e-09
5.6918728e-07
1.7061199e-09
5.6907737e-07
1.4137239e-09
5.6899998e-07
1.1769008e-09
5.689444e-07
9.8088202e-10
5.6890359e-07
8.1531854e-10
5.6887313e-07
6.7271486e-10
5.6885017e-07
5.474925e-10
5.6883278e-07
4.3538558e-10
5.6881966e-07
3.3303524e-10
5.688099e-07
2.3770889e-10
5.6880288e-07
1.4709825e-10
5.6879816e-07
5.9166707e-11
5.6879548e-07
-2.7973993e-11
5.6879469e-07
-1.161712e-10
5.6879575e-07
-2.0733753e-10
5.6879872e-07
-3.0355642e-10
5.6880377e-07
-4.0721496e-10
5.6881121e-07
-5.211666e-10
5.6882151e-07
-6.4895222e-10
5.6883534e-07
-7.9511301e-10
5.6885372e-07
-9.656512e-10
5.688781e-07
-1.1687369e-09
5.6891066e-07
-1.4158812e-09
5.6895472e-07
-1.7239071e-09
5.6901561e-07
-2.1178078e-09
5.691015e-07
-2.6374814e-09
5.6922728e-07
-3.3653511e-09
5.6943549e-07
-4.4570551e-09
5.6979934e-07
-6.0032875e-09
5.702539e-07
-9.5028651e-09
5.7220728e-07
-2.9569577e-08
5.8877445e-07
5.3913834e-07
5.9663336e-08
4.6915265e-07
3.6655094e-08
6.1941837e-07
2.2617648e-08
5.8751009e-07
1.6242424e-08
5.7701184e-07
1.2279031e-08
5.7405561e-07
9.5947779e-09
5.7230575e-07
7.6662516e-09
5.7127807e-07
6.2253945e-09
5.7062814e-07
5.116583e-09
5.7018618e-07
4.2397232e-09
5.6987684e-07
3.5294623e-09
5.6965466e-07
2.9416142e-09
5.6949144e-07
2.4451166e-09
5.6936963e-07
2.0174779e-09
5.692778e-07
1.641967e-09
5.6920829e-07
1.3057902e-09
5.6915584e-07
9.9887394e-10
5.6911682e-07
7.1302338e-10
5.6908873e-07
4.4131611e-10
5.6906987e-07
1.7764357e-10
5.6905915e-07
-8.3657845e-11
5.6905599e-07
-3.4812911e-10
5.6906022e-07
-6.2150048e-10
5.6907209e-07
-9.1002326e-10
5.6909229e-07
-1.2208563e-09
5.6912204e-07
-1.5625573e-09
5.6916321e-07
-1.9457452e-09
5.6921853e-07
-2.3840393e-09
5.6929202e-07
-2.8954476e-09
5.6938951e-07
-3.5044898e-09
5.695197e-07
-4.245615e-09
5.6969585e-07
-5.1692227e-09
5.6993922e-07
-6.35198e-09
5.7028425e-07
-7.9126615e-09
5.7078796e-07
-1.0054547e-08
5.7157738e-07
-1.3183882e-08
5.7292868e-07
-1.8115548e-08
5.7518556e-07
-2.8158421e-08
5.8225015e-07
-4.5787132e-08
6.0640317e-07
4.933512e-07
5.9994872e-08
4.0915792e-07
5.0467146e-08
6.2894609e-07
3.3351389e-08
6.0462582e-07
2.4797986e-08
5.8556524e-07
1.9303075e-08
5.7955052e-07
1.5311374e-08
5.7629745e-07
1.2341088e-08
5.7424835e-07
1.0082811e-08
5.7288642e-07
8.3231249e-09
5.7194586e-07
6.9188768e-09
5.7128109e-07
5.7739571e-09
5.7079958e-07
4.8215715e-09
5.7044382e-07
4.0139267e-09
5.7017727e-07
3.3160091e-09
5.6997572e-07
2.7015269e-09
5.6982277e-07
2.1502202e-09
5.6970715e-07
1.6460355e-09
5.69621e-07
1.1758455e-09
5.6955892e-07
7.285143e-10
5.695172e-07
2.9418505e-10
5.6949348e-07
-1.3629847e-10
5.6948647e-07
-5.7189733e-10
5.6949582e-07
-1.0218711e-09
5.6952206e-07
-1.4962986e-09
5.6956672e-07
-2.0066801e-09
5.6963243e-07
-2.5666979e-09
5.6972323e-07
-3.1932278e-09
5.6984506e-07
-3.9077505e-09
5.7000654e-07
-4.7384027e-09
5.7022016e-07
-5.7230405e-09
5.7050434e-07
-6.9139002e-09
5.7088671e-07
-8.3852368e-09
5.7141056e-07
-1.0246515e-08
5.7214553e-07
-1.2659695e-08
5.7320114e-07
-1.5858044e-08
5.7477573e-07
-2.0203622e-08
5.7727426e-07
-2.6674051e-08
5.8165599e-07
-3.8913902e-08
5.9449e-07
-4.8141977e-08
6.1563124e-07
4.4520923e-07
5.486103e-08
3.5429716e-07
5.7421565e-08
6.2638562e-07
4.0437532e-08
6.2160979e-07
3.0749177e-08
5.9525358e-07
2.4612991e-08
5.8568671e-07
1.9922357e-08
5.8098808e-07
1.628378e-08
5.7788693e-07
1.3438706e-08
5.7573149e-07
1.1174963e-08
5.7420961e-07
9.340806e-09
5.7311525e-07
7.8283067e-09
5.7231208e-07
6.5589357e-09
5.717132e-07
5.4748063e-09
5.712614e-07
4.5325661e-09
5.7091796e-07
3.6990805e-09
5.7065626e-07
2.9484529e-09
5.7045777e-07
2.2599261e-09
5.7030953e-07
1.6163648e-09
5.7020248e-07
1.0031234e-09
5.7013044e-07
4.0716648e-10
5.7008944e-07
-1.8365536e-10
5.700773e-07
-7.8124522e-10
5.7009341e-07
-1.3978815e-09
5.701387e-07
-2.0468728e-09
5.7021571e-07
-2.7433086e-09
5.7032886e-07
-3.5049876e-09
5.704849e-07
-4.3536254e-09
5.706937e-07
-5.3164876e-09
5.709694e-07
-6.4286716e-09
5.7133235e-07
-7.7363673e-09
5.7181203e-07
-9.3014259e-09
5.7245177e-07
-1.1207747e-08
5.7331688e-07
-1.3571681e-08
5.7450947e-07
-1.6554686e-08
5.7618415e-07
-2.0354714e-08
5.7857575e-07
-2.5238531e-08
5.8215807e-07
-3.2464359e-08
5.8888182e-07
-4.5048328e-08
6.0707397e-07
-4.6514561e-08
6.1709747e-07
3.9869467e-07
4.7944436e-08
3.0635314e-07
6.0034745e-08
6.1429552e-07
4.5357115e-08
6.3628734e-07
3.4834073e-08
6.0577659e-07
2.8358451e-08
5.9216233e-07
2.3378478e-08
5.8596806e-07
1.9394282e-08
5.8187112e-07
1.6191e-08
5.7893478e-07
1.3584038e-08
5.7681657e-07
1.1433939e-08
5.7526535e-07
9.6355221e-09
5.741105e-07
8.108694e-09
5.7324002e-07
6.7923791e-09
5.7257772e-07
5.6395125e-09
5.7207083e-07
4.6132671e-09
5.716825e-07
3.6843043e-09
5.7138674e-07
2.8287334e-09
5.711651e-07
2.0265725e-09
5.7100464e-07
1.260564e-09
5.7089645e-07
5.1522873e-10
5.7083477e-07
-2.2392687e-10
5.7081645e-07
-9.7112143e-10
5.708406e-07
-1.7409889e-09
5.7090856e-07
-2.549302e-09
5.7102402e-07
-3.4137881e-09
5.7119335e-07
-4.355114e-09
5.7142623e-07
-5.398126e-09
5.7173671e-07
-6.5734602e-09
5.7214474e-07
-7.9196696e-09
5.7267856e-07
-9.4860992e-09
5.7337846e-07
-1.1336663e-08
5.7430233e-07
-1.3554269e-08
5.7553448e-07
-1.6247325e-08
5.7720252e-07
-1.9559571e-08
5.7949639e-07
-2.3661509e-08
5.8267769e-07
-2.8855754e-08
5.8735232e-07
-3.6716102e-08
5.9674217e-07
-4.8390564e-08
6.1874843e-07
-4.3150309e-08
6.1185722e-07
3.5554436e-07
4.0311855e-08
2.6604188e-07
5.8940863e-08
5.9566694e-07
4.8271839e-08
6.469563e-07
3.7532916e-08
6.1651543e-07
3.0874426e-08
5.9882081e-07
2.5840085e-08
5.910024e-07
2.1727655e-08
5.8598355e-07
1.8342193e-08
5.8232024e-07
1.5530936e-08
5.7962782e-07
1.3171771e-08
5.7762451e-07
1.1168694e-08
5.7611358e-07
9.4463465e-09
5.7496237e-07
7.9455219e-09
5.7407854e-07
6.6192507e-09
5.733971e-07
5.4298411e-09
5.7287191e-07
4.3466106e-09
5.7246997e-07
3.3441065e-09
5.7216761e-07
2.4007056e-09
5.7194804e-07
1.4974967e-09
5.7179966e-07
6.1735906e-10
5.7171491e-07
-2.5582807e-10
5.7168964e-07
-1.1379033e-09
5.7172268e-07
-2.045126e-09
5.7181579e-07
-2.9949053e-09
5.719738e-07
-4.0066066e-09
5.7220505e-07
-5.1024979e-09
5.7252212e-07
-6.3089022e-09
5.7294311e-07
-7.6576329e-09
5.7349347e-07
-9.1877916e-09
5.7420872e-07
-1.0948077e-08
5.7513875e-07
-1.2999817e-08
5.7635407e-07
-1.5420394e-08
5.7795506e-07
-1.8307331e-08
5.8008946e-07
-2.1784975e-08
5.8297404e-07
-2.6009349e-08
5.8690207e-07
-3.1388912e-08
5.9273188e-07
-3.9553375e-08
6.0490663e-07
-4.9076777e-08
6.2827183e-07
-3.8525795e-08
6.0130624e-07
3.1701856e-07
3.28359e-08
2.3320676e-07
5.5185081e-08
5.733185e-07
4.9156618e-08
6.5298477e-07
3.8989865e-08
6.2668206e-07
3.2361014e-08
6.0544964e-07
2.7450153e-08
5.9591326e-07
2.3372187e-08
5.9006152e-07
1.9939623e-08
5.857528e-07
1.7035764e-08
5.8253168e-07
1.4558304e-08
5.8010197e-07
1.2423379e-08
5.782485e-07
1.056366e-08
5.7682209e-07
8.9248293e-09
5.7571737e-07
7.4626145e-09
5.7485932e-07
6.1406079e-09
5.7419392e-07
4.9285058e-09
5.7368207e-07
3.8006653e-09
5.7329545e-07
2.7349278e-09
5.7301378e-07
1.7116425e-09
5.7282294e-07
7.128345e-10
5.7271372e-07
-2.7852738e-10
5.72681e-07
-1.2792056e-09
5.7272335e-07
-2.3063602e-09
5.7284294e-07
-3.3782325e-09
5.7304568e-07
-4.5148879e-09
5.733417e-07
-5.7390629e-09
5.737463e-07
-7.0771633e-09
5.7428122e-07
-8.5604654e-09
5.7497677e-07
-1.0226567e-08
5.7587482e-07
-1.2121162e-08
5.7703334e-07
-1.4300432e-08
5.7853334e-07
-1.6833938e-08
5.8048856e-07
-1.9806667e-08
5.8306219e-07
-2.3319616e-08
5.8648699e-07
-2.7514321e-08
5.9109677e-07
-3.2907075e-08
5.9812464e-07
-4.0879664e-08
6.1287922e-07
-4.7568548e-08
6.3496072e-07
-3.3315187e-08
5.8705287e-07
2.8370338e-07
2.6159685e-08
2.0704806e-07
5.0055697e-08
5.4942361e-07
4.8398443e-08
6.5464217e-07
3.9400006e-08
6.3568032e-07
3.2990139e-08
6.1185946e-07
2.8326532e-08
6.0057687e-07
2.4410155e-08
5.939779e-07
2.1039581e-08
5.8912338e-07
1.8133756e-08
5.8543751e-07
1.5613343e-08
5.8262239e-07
1.3409116e-08
5.8045273e-07
1.1463804e-08
5.787674e-07
9.7298002e-09
5.7745138e-07
8.1672214e-09
5.7642189e-07
6.7424445e-09
5.756187e-07
5.4268325e-09
5.7499768e-07
4.1956473e-09
5.7452663e-07
3.0271253e-09
5.741823e-07
1.9016797e-09
5.7394839e-07
8.0119667e-10
5.738142e-07
-2.9160163e-10
5.737738e-07
-1.3937535e-09
5.7382551e-07
-2.5226508e-09
5.7397184e-07
-3.6966436e-09
5.7421967e-07
-4.9356823e-09
5.7458074e-07
-6.262034e-09
5.7507265e-07
-7.7010952e-09
5.7572028e-07
-9.2823395e-09
5.7655801e-07
-1.1040426e-08
5.776329e-07
-1.3016468e-08
5.7900938e-07
-1.5259681e-08
5.8077655e-07
-1.7829501e-08
5.8305839e-07
-2.079556e-08
5.8602825e-07
-2.4233314e-08
5.8992474e-07
-2.8278097e-08
5.9514156e-07
-3.3531827e-08
6.0337837e-07
-4.0898142e-08
6.2024553e-07
-4.4653344e-08
6.3871592e-07
-2.8135725e-08
5.7053526e-07
2.5556765e-07
2.053901e-08
1.8651023e-07
4.4493572e-08
5.2547064e-07
4.6526156e-08
6.5260996e-07
3.9039534e-08
6.4316674e-07
3.2975937e-08
6.1792296e-07
2.8612702e-08
6.0494011e-07
2.4936785e-08
5.9765382e-07
2.170754e-08
5.9235262e-07
1.8869491e-08
5.8827556e-07
1.636644e-08
5.8512544e-07
1.4144783e-08
5.8267439e-07
1.2158233e-08
5.8075395e-07
1.0366901e-08
5.7924271e-07
8.736325e-09
5.7805247e-07
7.2366426e-09
5.7711838e-07
5.8417816e-09
5.7639254e-07
4.528719e-09
5.7583969e-07
3.2768149e-09
5.754342e-07
2.0672052e-09
5.75158e-07
8.8224401e-10
5.7499916e-07
-2.9501731e-10
5.7495106e-07
-1.4813272e-09
5.7501182e-07
-2.6937314e-09
5.7518424e-07
-3.9500761e-09
5.7547601e-07
-5.2695326e-09
5.759002e-07
-6.6731642e-09
5.7647628e-07
-8.1845444e-09
5.7723166e-07
-9.8304422e-09
5.7820391e-07
-1.1641589e-08
5.7944405e-07
-1.3653474e-08
5.8102127e-07
-1.590725e-08
5.8303033e-07
-1.8450941e-08
5.8560208e-07
-2.1337869e-08
5.8891517e-07
-2.4622343e-08
5.9320921e-07
-2.8449843e-08
5.9896906e-07
-3.3463318e-08
6.0839184e-07
-3.9942181e-08
6.267244e-07
-4.0989244e-08
6.3976298e-07
-2.3340659e-08
5.5288667e-07
2.3222699e-07
1.5980775e-08
1.7053086e-07
3.9040901e-08
5.0241265e-07
4.3977881e-08
6.4767368e-07
3.8149884e-08
6.4899452e-07
3.2522096e-08
6.2355059e-07
2.8464338e-08
6.0899785e-07
2.5060926e-08
6.0105724e-07
2.2019575e-08
5.9539397e-07
1.9296318e-08
5.9099881e-07
1.6854911e-08
5.8756684e-07
1.4656249e-08
5.8487305e-07
1.2664617e-08
5.8274558e-07
1.0847978e-08
5.8105935e-07
9.1776879e-09
5.7972276e-07
7.6281516e-09
5.7866792e-07
6.1764006e-09
5.7784429e-07
4.8016684e-09
5.7721443e-07
3.4849621e-09
5.7675091e-07
2.208641e-09
5.7643432e-07
9.5600711e-10
5.762518e-07
-2.8909271e-10
5.7619616e-07
-1.5426541e-09
5.7626538e-07
-2.8209083e-09
5.764625e-07
-4.140714e-09
5.7679582e-07
-5.5199573e-09
5.7727944e-07
-6.9779677e-09
5.7793429e-07
-8.5359464e-09
5.7878964e-07
-1.0217404e-08
5.7988537e-07
-1.204862e-08
5.8127527e-07
-1.4059057e-08
5.8303171e-07
-1.6281726e-08
5.85253e-07
-1.8753577e-08
5.8807393e-07
-2.1513017e-08
5.9167461e-07
-2.4600774e-08
5.9629697e-07
-2.8184244e-08
6.0255253e-07
-3.2885562e-08
6.1309316e-07
-3.8306665e-08
6.321455e-07
-3.7018591e-08
6.3847491e-07
-1.9099121e-08
5.349672e-07
2.1312787e-07
1.2385894e-08
1.5814663e-07
3.3996521e-08
4.808048e-07
4.1082625e-08
6.4058872e-07
3.6908912e-08
6.5316804e-07
3.1782289e-08
6.2867699e-07
2.8015746e-08
6.1276436e-07
2.4885863e-08
6.0418713e-07
2.2052615e-08
5.9822722e-07
1.9471045e-08
5.9358038e-07
1.712034e-08
5.8991755e-07
1.4973716e-08
5.8701967e-07
1.3004723e-08
5.8471458e-07
1.1188584e-08
5.8287549e-07
9.5023065e-09
5.8140904e-07
7.9246346e-09
5.8024559e-07
6.4359201e-09
5.7933301e-07
5.0179435e-09
5.786324e-07
3.6536861e-09
5.7811517e-07
2.327073e-09
5.7776093e-07
1.0227021e-09
5.7755617e-07
-2.744341e-10
5.774933e-07
-1.5792287e-09
5.7757017e-07
-2.9067472e-09
5.7779002e-07
-4.2725101e-09
5.7816158e-07
-5.6927726e-09
5.786997e-07
-7.184799e-09
5.7942632e-07
-8.7671235e-09
5.8037196e-07
-1.0459783e-08
5.8157803e-07
-1.2284526e-08
5.8310001e-07
-1.4264974e-08
5.8501215e-07
-1.642665e-08
5.8741467e-07
-1.8796671e-08
5.9044395e-07
-2.1400854e-08
5.942788e-07
-2.4273523e-08
5.9916964e-07
-2.7606815e-08
6.0588582e-07
-3.1940881e-08
6.1742723e-07
-3.6233539e-08
6.3643816e-07
-3.3042347e-08
6.3528371e-07
-1.5472485e-08
5.1739734e-07
1.9765539e-07
9.6156699e-09
1.4853293e-07
2.9512493e-08
4.609115e-07
3.808677e-08
6.3201614e-07
3.5454451e-08
6.5580026e-07
3.086722e-08
6.3326392e-07
2.7370837e-08
6.1626067e-07
2.4497778e-08
6.070602e-07
2.1875094e-08
6.0084991e-07
1.9447229e-08
5.9600825e-07
1.7203961e-08
5.9216082e-07
1.5128492e-08
5.8909514e-07
1.3202086e-08
5.8664098e-07
1.1406252e-08
5.8467132e-07
9.7231085e-09
5.8309218e-07
8.1354963e-09
5.818332e-07
6.6270422e-09
5.8084146e-07
5.182151e-09
5.8007729e-07
3.7859299e-09
5.7951139e-07
2.4240669e-09
5.791228e-07
1.0826782e-09
5.7889756e-07
-2.5186329e-10
5.7882784e-07
-1.5931089e-09
5.7891142e-07
-2.9547233e-09
5.7915163e-07
-4.3506661e-09
5.7955752e-07
-5.7953639e-09
5.801444e-07
-7.3038634e-09
5.8093482e-07
-8.8919563e-09
5.8196005e-07
-1.0576256e-08
5.8326233e-07
-1.2374226e-08
5.8489798e-07
-1.4304174e-08
5.869421e-07
-1.6385072e-08
5.8949557e-07
-1.8635665e-08
5.9269454e-07
-2.1071833e-08
5.9671497e-07
-2.3727594e-08
6.018254e-07
-2.6815845e-08
6.0897407e-07
-3.0747019e-08
6.213584e-07
-3.3926612e-08
6.3961775e-07
-2.926527e-08
6.3062237e-07
-1.245585e-08
5.0058792e-07
1.8519954e-07
7.5212365e-09
1.4101403e-07
2.5636275e-08
4.4280083e-07
3.5160905e-08
6.2249392e-07
3.3895996e-08
6.5706522e-07
2.985938e-08
6.3730015e-07
2.6609109e-08
6.1951083e-07
2.3965939e-08
6.0970337e-07
2.1544422e-08
6.0327144e-07
1.9271819e-08
5.9828085e-07
1.7143531e-08
5.942891e-07
1.5150453e-08
5.9108822e-07
1.3280031e-08
5.8851141e-07
1.1518976e-08
5.8643238e-07
9.8537999e-09
5.8475736e-07
8.2710146e-09
5.8341599e-07
6.7572985e-09
5.8235518e-07
5.2995974e-09
5.81535e-07
3.8851561e-09
5.8092583e-07
2.5014981e-09
5.8050645e-07
1.1363688e-09
5.8026269e-07
-2.2234809e-10
5.8018655e-07
-1.586725e-09
5.8027579e-07
-2.9688951e-09
5.805338e-07
-4.3811481e-09
5.8096978e-07
-5.8360107e-09
5.8159927e-07
-7.3463037e-09
5.8244511e-07
-8.9251622e-09
5.8353891e-07
-1.0586002e-08
5.8492317e-07
-1.234243e-08
5.8665441e-07
-1.4208123e-08
5.8880779e-07
-1.6196527e-08
5.9148398e-07
-1.8319549e-08
5.9481756e-07
-2.0586097e-08
5.9898151e-07
-2.3034866e-08
6.0427417e-07
-2.5891096e-08
6.118303e-07
-2.9404578e-08
6.2487188e-07
-3.1547128e-08
6.417603e-07
-2.5809314e-08
6.2488456e-07
-1.0002355e-08
4.8478096e-07
1.7519718e-07
5.9620003e-09
1.3505483e-07
2.2345915e-08
4.2642229e-07
3.2406592e-08
6.124365e-07
3.2313597e-08
6.5715852e-07
2.8818343e-08
6.4079494e-07
2.5790206e-08
6.2253879e-07
2.334523e-08
6.1214834e-07
2.1107788e-08
6.0550889e-07
1.8984657e-08
6.0040398e-07
1.6972174e-08
5.9630159e-07
1.5066701e-08
5.9299369e-07
1.3260409e-08
5.903177e-07
1.1544122e-08
5.8814866e-07
9.9079763e-09
5.863935e-07
8.3416401e-09
5.8498232e-07
6.8345155e-09
5.838623e-07
5.3759001e-09
5.8299361e-07
3.9550844e-09
5.8234665e-07
2.5614032e-09
5.8190013e-07
1.1842493e-09
5.8163984e-07
-1.8694003e-10
5.8155774e-07
-1.5627087e-09
5.8165156e-07
-2.9536177e-09
5.8192471e-07
-4.3702698e-09
5.8238643e-07
-5.8233204e-09
5.8305232e-07
-7.3234607e-09
5.8394525e-07
-8.8813634e-09
5.8509681e-07
-1.050758e-08
5.8654938e-07
-1.2212379e-08
5.8835921e-07
-1.4005573e-08
5.9060099e-07
-1.5896138e-08
5.9337454e-07
-1.7890735e-08
5.9681216e-07
-1.9994347e-08
6.0108513e-07
-2.2253762e-08
6.0653359e-07
-2.4895542e-08
6.1447208e-07
-2.7993655e-08
6.2797e-07
-2.9208847e-08
6.4297549e-07
-2.2729375e-08
6.1840509e-07
-8.0433868e-09
4.7009497e-07
1.671538e-07
4.8152559e-09
1.3024295e-07
1.9582716e-08
4.1166135e-07
2.9871806e-08
6.021517e-07
3.0759187e-08
6.562718e-07
2.7783072e-08
6.4377052e-07
2.4955868e-08
6.2536574e-07
2.2677298e-08
6.1442689e-07
2.0602827e-08
6.0758337e-07
1.8618649e-08
6.0238816e-07
1.671812e-08
5.9820212e-07
1.4901015e-08
5.948108e-07
1.3162919e-08
5.9205579e-07
1.1497749e-08
5.8981383e-07
9.8985091e-09
5.8799274e-07
8.3574757e-09
5.8652336e-07
6.8663983e-09
5.8535338e-07
5.4166727e-09
5.8444334e-07
3.9994747e-09
5.8376384e-07
2.6058555e-09
5.8329375e-07
1.2268027e-09
5.8301889e-07
-1.4672045e-10
5.8293127e-07
-1.52375e-09
5.8302859e-07
-2.9133041e-09
5.8331426e-07
-4.3243548e-09
5.8379748e-07
-5.7657864e-09
5.8449375e-07
-7.2463282e-09
5.8542579e-07
-8.7744536e-09
5.8662494e-07
-1.0358239e-08
5.8813317e-07
-1.200518e-08
5.9000615e-07
-1.3722e-08
5.9231781e-07
-1.5514243e-08
5.9516678e-07
-1.7384847e-08
5.9868276e-07
-1.9337632e-08
6.0303791e-07
-2.1429091e-08
6.0862505e-07
-2.3875291e-08
6.1691828e-07
-2.6572465e-08
6.3066717e-07
-2.6983416e-08
6.4338644e-07
-2.0034477e-08
6.1145615e-07
-6.5031759e-09
4.5656367e-07
1.6065062e-07
3.9786613e-09
1.2626835e-07
1.7274078e-08
3.983738e-07
2.757022e-08
5.9186109e-07
2.9262968e-08
6.5458019e-07
2.6776214e-08
6.462567e-07
2.4132707e-08
6.280089e-07
2.1991779e-08
6.1656778e-07
2.0058178e-08
6.0951698e-07
1.8199981e-08
6.0424637e-07
1.6404656e-08
5.9999744e-07
1.467362e-08
5.9654183e-07
1.3004768e-08
5.9372465e-07
1.1394222e-08
5.9142438e-07
9.837152e-09
5.8954981e-07
8.327919e-09
5.8803259e-07
6.8602272e-09
5.8682107e-07
5.4272873e-09
5.8587628e-07
4.0219592e-09
5.8516917e-07
2.6368676e-09
5.8467885e-07
1.2644928e-09
5.8439127e-07
-1.0275691e-10
5.8429852e-07
-1.472481e-09
5.8439832e-07
-2.8522393e-09
5.8469402e-07
-4.2494792e-09
5.8519472e-07
-5.6714635e-09
5.8591573e-07
-7.1251719e-09
5.868795e-07
-8.6171762e-09
5.8811694e-07
-1.0153488e-08
5.8966948e-07
-1.1739386e-08
5.9159205e-07
-1.3379237e-08
5.9395766e-07
-1.5076083e-08
5.9686363e-07
-1.6830502e-08
6.0043718e-07
-1.8647397e-08
6.048548e-07
-2.0592951e-08
6.105706e-07
-2.2861693e-08
6.1918702e-07
-2.5180203e-08
6.3298568e-07
-2.4910119e-08
6.4311636e-07
-1.7705777e-08
6.0425181e-07
-5.3072774e-09
4.4416517e-07
1.5534334e-07
3.3695757e-09
1.2290368e-07
1.5346085e-08
3.8640674e-07
2.5494933e-08
5.8171924e-07
2.7839919e-08
6.5223698e-07
2.5809067e-08
6.4828697e-07
2.3336007e-08
6.304815e-07
2.1308444e-08
6.1859527e-07
1.9494601e-08
6.1133084e-07
1.7748669e-08
6.0599231e-07
1.6050331e-08
6.0169578e-07
1.4401183e-08
5.9819098e-07
1.2800537e-08
5.9532529e-07
1.1246001e-08
5.9297891e-07
9.7343133e-09
5.910615e-07
8.2614363e-09
5.8950547e-07
6.8226558e-09
5.8825985e-07
5.4127098e-09
5.8728622e-07
4.025922e-09
5.8655596e-07
2.6563212e-09
5.8604845e-07
1.2977457e-09
5.8574984e-07
-5.6069024e-11
5.8565233e-07
-1.4113907e-09
5.8575364e-07
-2.7744434e-09
5.8605708e-07
-4.1512884e-09
5.8657157e-07
-5.5477455e-09
5.8731219e-07
-6.9692773e-09
5.8830103e-07
-8.4208595e-09
5.8956853e-07
-9.9068376e-09
5.9115546e-07
-1.1430781e-08
5.9311599e-07
-1.2995343e-08
5.9552222e-07
-1.4601856e-08
5.9847014e-07
-1.6249698e-08
6.0208502e-07
-1.7946528e-08
6.0655163e-07
-1.9766939e-08
6.1239101e-07
-2.1874595e-08
6.2129468e-07
-2.3841162e-08
6.3495225e-07
-2.3005329e-08
6.4228053e-07
-1.570902e-08
5.969555e-07
-4.3872448e-09
4.328434e-07
1.509561e-07
2.9234169e-09
1.199862e-07
1.3730184e-08
3.7561128e-07
2.3627806e-08
5.7183034e-07
2.6494743e-08
6.4937263e-07
2.4885428e-08
6.4989575e-07
2.2573162e-08
6.3279319e-07
2.0639589e-08
6.2052872e-07
1.8926491e-08
6.1304395e-07
1.7279473e-08
6.0763933e-07
1.5669457e-08
6.033058e-07
1.409703e-08
5.9976341e-07
1.2562237e-08
5.9686009e-07
1.1063609e-08
5.9447754e-07
9.5989611e-09
5.9252615e-07
8.1654474e-09
5.9093898e-07
6.759596e-09
5.896657e-07
5.3773991e-09
5.8866842e-07
4.0144235e-09
5.8791894e-07
2.6659219e-09
5.8739695e-07
1.3269393e-09
5.8708883e-07
-7.5871993e-12
5.8698686e-07
-1.3427643e-09
5.8708882e-07
-2.6835807e-09
5.8739789e-07
-4.0348797e-09
5.8792286e-07
-5.4012294e-09
5.8867854e-07
-6.7868097e-09
5.8968661e-07
-8.1952918e-09
5.9097701e-07
-9.6297174e-09
5.9258989e-07
-1.1092393e-08
5.9457866e-07
-1.258479e-08
5.9701462e-07
-1.4107182e-08
5.9999253e-07
-1.5658703e-08
6.0363655e-07
-1.7250872e-08
6.081438e-07
-1.8964525e-08
6.1410466e-07
-2.0925222e-08
6.2325537e-07
-2.256826e-08
6.3659528e-07
-2.1269778e-08
6.4098205e-07
-1.4002918e-08
5.8968864e-07
-3.683171e-09
4.2252365e-07
1.4727293e-07
2.5914035e-09
1.1740202e-07
1.2366551e-08
3.6584961e-07
2.1945815e-08
5.6226182e-07
2.5225619e-08
6.4609642e-07
2.4004294e-08
6.5111665e-07
2.1846231e-08
6.3495054e-07
1.9992035e-08
6.2238273e-07
1.8363327e-08
6.1467267e-07
1.6802912e-08
6.0919976e-07
1.5272763e-08
6.0483595e-07
1.3771551e-08
6.0126462e-07
1.229952e-08
5.9833212e-07
1.0855714e-08
5.9592135e-07
9.4386383e-09
5.9394322e-07
8.0462979e-09
5.9233132e-07
6.6761719e-09
5.9103583e-07
5.3252593e-09
5.9001933e-07
3.9901609e-09
5.8925404e-07
2.6671739e-09
5.8871994e-07
1.3523886e-09
5.8840361e-07
4.1787029e-11
5.8829746e-07
-1.2686593e-09
5.8839926e-07
-2.58291e-09
5.8871214e-07
-3.9047424e-09
5.892447e-07
-5.2376566e-09
5.9001145e-07
-6.5847714e-09
5.9103373e-07
-7.9487189e-09
5.9234096e-07
-9.3315532e-09
5.9397272e-07
-1.0734688e-08
5.959818e-07
-1.2158841e-08
5.9843877e-07
-1.3603744e-08
6.0143744e-07
-1.5069038e-08
6.0510184e-07
-1.6570683e-08
6.0964545e-07
-1.819303e-08
6.1572701e-07
-2.0018439e-08
6.2508078e-07
-2.1366078e-08
6.3794292e-07
-1.9694349e-08
6.3931032e-07
-1.2544803e-08
5.8253909e-07
-3.1446634e-09
4.1312351e-07
1.4412827e-07
2.3378559e-09
1.1507296e-07
1.12052e-08
3.5699833e-07
2.0425123e-08
5.5305503e-07
2.4027092e-08
6.424993e-07
2.3161871e-08
6.5198164e-07
2.1153831e-08
6.3695773e-07
1.9368704e-08
6.2416759e-07
1.7810875e-08
6.1623049e-07
1.6326161e-08
6.1068449e-07
1.4868051e-08
6.0629406e-07
1.3432634e-08
6.0270004e-07
1.2019966e-08
5.9974478e-07
1.0629303e-08
5.9731201e-07
9.2595522e-09
5.9531298e-07
7.9092988e-09
5.9368157e-07
6.5767293e-09
5.923684e-07
5.2596344e-09
5.9133643e-07
3.9554591e-09
5.9055821e-07
2.6613768e-09
5.9001402e-07
1.374373e-09
5.8969062e-07
9.1335384e-11
5.895805e-07
-1.1908617e-09
5.8968146e-07
-2.4752624e-09
5.8999654e-07
-3.764742e-09
5.9053418e-07
-5.0619127e-09
5.9130862e-07
-6.3690338e-09
5.9234085e-07
-7.6879302e-09
5.9365985e-07
-9.0199327e-09
5.9530472e-07
-1.0365861e-08
5.9732773e-07
-1.1726005e-08
5.9979892e-07
-1.309995e-08
6.0281138e-07
-1.4488405e-08
6.064903e-07
-1.5911887e-08
6.1106893e-07
-1.7455277e-08
6.172704e-07
-1.9154644e-08
6.2678015e-07
-2.0233542e-08
6.3902182e-07
-1.8264583e-08
6.3734136e-07
-1.1294244e-08
5.7556875e-07
-2.7307011e-09
4.0455997e-07
1.4139757e-07
2.1374524e-09
1.1294625e-07
1.0205604e-08
3.489493e-07
1.904338e-08
5.4423318e-07
2.2892117e-08
6.3865694e-07
2.2353041e-08
6.5252078e-07
2.0492571e-08
6.388172e-07
1.8769865e-08
6.2588994e-07
1.7272179e-08
6.1772816e-07
1.5853831e-08
6.1210285e-07
1.4460785e-08
6.0768711e-07
1.3086113e-08
6.0407471e-07
1.1729392e-08
6.0110151e-07
1.038989e-08
5.9865151e-07
9.0667099e-09
5.9663616e-07
7.7588075e-09
5.9498948e-07
6.4648812e-09
5.9366233e-07
5.1833318e-09
5.9261798e-07
3.9122822e-09
5.9182926e-07
2.649629e-09
5.9127667e-07
1.3931097e-09
5.9094714e-07
1.4037803e-10
5.9083323e-07
-1.1109166e-09
5.9093275e-07
-2.3630499e-09
5.9124868e-07
-3.6181401e-09
5.9178927e-07
-4.8780709e-09
5.9256856e-07
-6.1444186e-09
5.936072e-07
-7.4183949e-09
5.9493383e-07
-8.7008213e-09
5.9658715e-07
-9.9921517e-09
5.9861906e-07
-1.1292489e-08
6.0109925e-07
-1.260156e-08
6.0412045e-07
-1.3921523e-08
6.0781026e-07
-1.5277202e-08
6.1242461e-07
-1.6750992e-08
6.1874419e-07
-1.8331371e-08
6.2836053e-07
-1.9166129e-08
6.3985658e-07
-1.6963866e-08
6.351391e-07
-1.021519e-08
5.6882008e-07
-2.4088354e-09
3.9675361e-07
1.3898873e-07
1.9727568e-09
1.1098659e-07
9.3355818e-09
3.4160924e-07
1.7780753e-08
5.3580718e-07
2.1813346e-08
6.3463257e-07
2.1572346e-08
6.5276227e-07
1.9858073e-08
6.4053035e-07
1.8194107e-08
6.2755343e-07
1.6748375e-08
6.1917384e-07
1.5388626e-08
6.1346262e-07
1.4054617e-08
6.0902113e-07
1.2736162e-08
6.0539316e-07
1.1432152e-08
6.0240552e-07
1.0141736e-08
5.9994193e-07
8.8640715e-09
5.9791382e-07
7.5983332e-09
5.9625522e-07
6.3435772e-09
5.9491708e-07
5.0986658e-09
5.9386289e-07
3.8622587e-09
5.9306567e-07
2.6328411e-09
5.9250609e-07
1.4087734e-09
5.921712e-07
1.8835168e-10
5.9205365e-07
-1.0301257e-09
5.9215123e-07
-2.2482914e-09
5.9246684e-07
-3.4676395e-09
5.9300862e-07
-4.6894646e-09
5.9379038e-07
-5.9148082e-09
5.9483254e-07
-7.1444269e-09
5.9616345e-07
-8.3787979e-09
5.9782152e-07
-9.618176e-09
5.9985844e-07
-1.0862643e-08
6.0234372e-07
-1.2112267e-08
6.0537008e-07
-1.3370884e-08
6.0906888e-07
-1.466709e-08
6.1372082e-07
-1.6077942e-08
6.2015504e-07
-1.754452e-08
6.2982711e-07
-1.8157503e-08
6.4046956e-07
-1.5775368e-08
6.3275696e-07
-9.2764221e-09
5.6232113e-07
-2.1539546e-09
3.8963115e-07
1.3683478e-07
1.8321335e-09
1.0917036e-07
8.5699352e-09
3.3489853e-07
1.6620221e-08
5.2777988e-07
2.078383e-08
6.3047939e-07
2.0814561e-08
6.527326e-07
1.9245657e-08
6.4209801e-07
1.7639052e-08
6.2915943e-07
1.623932e-08
6.205735e-07
1.4931881e-08
6.1477008e-07
1.3651832e-08
6.1030119e-07
1.2385658e-08
6.0665934e-07
1.1131418e-08
6.0365976e-07
9.8880614e-09
6.0118529e-07
8.6547108e-09
5.9914717e-07
7.4306523e-09
5.9747927e-07
6.2151842e-09
5.9613255e-07
5.0075126e-09
5.9507056e-07
3.8067165e-09
5.9426646e-07
2.6117558e-09
5.9370105e-07
1.4215014e-09
5.9336146e-07
2.3478115e-10
5.9324037e-07
-9.4956864e-10
5.9333558e-07
-2.1326484e-09
5.9364992e-07
-3.3154428e-09
5.9419141e-07
-4.4987749e-09
5.9497371e-07
-5.6832725e-09
5.9601704e-07
-6.8693601e-09
5.9734954e-07
-8.0572928e-09
5.9900945e-07
-9.2472409e-09
6.0104839e-07
-1.0439371e-08
6.0353585e-07
-1.163422e-08
6.0656493e-07
-1.2837401e-08
6.1027206e-07
-1.4080542e-08
6.1496396e-07
-1.5432788e-08
6.2150729e-07
-1.6789254e-08
6.3118357e-07
-1.7200644e-08
6.4088095e-07
-1.4683236e-08
6.3023955e-07
-8.4516722e-09
5.5608957e-07
-1.9470683e-09
3.8312654e-07
1.3488771e-07
1.7080592e-09
1.0748151e-07
7.8890917e-09
3.2874977e-07
1.5547459e-08
5.2014894e-07
1.9797347e-08
6.2624255e-07
2.0074985e-08
6.524568e-07
1.8650745e-08
6.4352092e-07
1.7101839e-08
6.3070758e-07
1.5744067e-08
6.2193115e-07
1.4483985e-08
6.1603019e-07
1.325372e-08
6.1153146e-07
1.2036496e-08
6.0787657e-07
1.0829436e-08
6.0486681e-07
9.6312485e-09
6.0238348e-07
8.440969e-09
6.0033745e-07
7.2579248e-09
5.9866232e-07
6.0815722e-09
5.973089e-07
4.9113698e-09
5.9624076e-07
3.7467228e-09
5.9543111e-07
2.58697e-09
5.948608e-07
1.4313982e-09
5.9451703e-07
2.7927212e-10
5.943925e-07
-8.7012896e-10
5.9448498e-07
-2.0174687e-09
5.9479726e-07
-3.1633182e-09
5.9533726e-07
-4.308125e-09
5.9611852e-07
-5.4521987e-09
5.9716111e-07
-6.5957236e-09
5.9849306e-07
-7.7388171e-09
6.0015255e-07
-8.8816366e-09
6.0219121e-07
-1.0024493e-08
6.0467871e-07
-1.1168464e-08
6.077089e-07
-1.2320929e-08
6.1142452e-07
-1.3515675e-08
6.161587e-07
-1.4811717e-08
6.2280333e-07
-1.6060619e-08
6.3243248e-07
-1.6288608e-08
6.4110894e-07
-1.367324e-08
6.2762418e-07
-7.7193102e-09
5.5013564e-07
-1.7741392e-09
3.7718137e-07
1.3311357e-07
1.5958133e-09
1.0590876e-07
7.2778786e-09
3.2310613e-07
1.4550518e-08
5.1290893e-07
1.8848507e-08
6.2196072e-07
1.9349558e-08
6.5195857e-07
1.8069097e-08
6.448e-07
1.6579451e-08
6.321963e-07
1.5261199e-08
6.2324922e-07
1.4044708e-08
6.1724669e-07
1.286087e-08
6.1271532e-07
1.168984e-08
6.090476e-07
1.0527743e-08
6.0602891e-07
9.3730199e-09
6.035382e-07
8.2245994e-09
6.0148587e-07
7.0818069e-09
5.9980511e-07
5.9441983e-09
5.9844651e-07
4.8114179e-09
5.9737354e-07
3.6831235e-09
5.9655941e-07
2.5589568e-09
5.9598497e-07
1.438542e-09
5.9563745e-07
3.2150143e-10
5.9550954e-07
-7.9252156e-10
5.9559901e-07
-1.9038333e-09
5.9590858e-07
-3.012669e-09
5.964461e-07
-4.1191767e-09
5.9722503e-07
-5.2234192e-09
5.9826535e-07
-6.325406e-09
5.9959505e-07
-7.4251704e-09
6.0125231e-07
-8.5228941e-09
6.0328893e-07
-9.6190569e-09
6.0577487e-07
-1.0715304e-08
6.0880514e-07
-1.1820679e-08
6.125299e-07
-1.2970185e-08
6.1730821e-07
-1.4210884e-08
6.2404403e-07
-1.5353957e-08
6.3357555e-07
-1.5415005e-08
6.4116999e-07
-1.273304e-08
6.2494222e-07
-7.0618175e-09
5.4446442e-07
-1.625013e-09
3.7174457e-07
1.3148856e-07
1.4925043e-09
1.0444378e-07
6.7244832e-09
3.1791992e-07
1.3619446e-08
5.060527e-07
1.7932709e-08
6.1766728e-07
1.8634871e-08
6.5126047e-07
1.7496925e-08
6.4593656e-07
1.6068928e-08
6.3362318e-07
1.4789069e-08
6.2452882e-07
1.3613435e-08
6.1842234e-07
1.2473398e-08
6.1385537e-07
1.134634e-08
6.1017466e-07
1.0227351e-08
6.071479e-07
9.114596e-09
6.0465095e-07
8.0068961e-09
6.0259357e-07
6.9035533e-09
6.0090845e-07
5.8041866e-09
5.9954588e-07
4.7085783e-09
5.9846915e-07
3.6165838e-09
5.976514e-07
2.5280882e-09
5.9707347e-07
1.4429904e-09
5.9672254e-07
3.612067e-10
5.9659132e-07
-7.1731986e-10
5.9667753e-07
-1.7926018e-09
5.9698386e-07
-2.8645998e-09
5.975181e-07
-3.9332195e-09
5.9829365e-07
-4.9983288e-09
5.9933046e-07
-6.0598042e-09
6.0065652e-07
-7.1176237e-09
6.0231013e-07
-8.1720041e-09
6.0434331e-07
-9.223592e-09
6.0682646e-07
-1.0274594e-08
6.0985615e-07
-1.1335542e-08
6.1359085e-07
-1.2441683e-08
6.1841435e-07
-1.3626722e-08
6.2522907e-07
-1.4665181e-08
6.3461401e-07
-1.4574265e-08
6.4107907e-07
-1.1852215e-08
6.2222017e-07
-6.4651966e-09
5.390774e-07
-1.4924999e-09
3.6677187e-07
1.2999606e-07
1.3963751e-09
1.0308006e-07
6.2196149e-09
3.1315118e-07
1.2745904e-08
4.9957227e-07
1.704605e-08
6.1339125e-07
1.7928119e-08
6.50384e-07
1.6930937e-08
6.4693242e-07
1.5567495e-08
6.349853e-07
1.4325975e-08
6.2577e-07
1.3189352e-08
6.1955896e-07
1.2091132e-08
6.1495361e-07
1.1006299e-08
6.112595e-07
9.9288995e-09