/*--------------------------------*- C++ -*----------------------------------*\
  =========                 |
  \\      /  F ield         | OpenFOAM: The Open Source CFD Toolbox
   \\    /   O peration     | Website:  https://openfoam.org
    \\  /    A nd           | Version:  10
     \\/     M anipulation  |
\*---------------------------------------------------------------------------*/
FoamFile
{
    format      ascii;
    class       volScalarField;
    location    "0.12";
    object      T_0;
}
// * * * * * * * * * * * * * * * * * * * * * * * * * * * * * * * * * * * * * //

dimensions      [0 0 0 1 0 0 0];

internalField   nonuniform List<scalar> 
4000
(
303.10129
299.34296
299.99042
300.00082
299.99993
300
300
300
300
300
300
300
300
300
300
300
300
300
300
300
300
300
300
300
300
300
300
300
300
300
300
300
300
300
300
300
300
300
300
300.00001
309.66305
298.49311
299.77927
300.00184
300.0008
299.99999
300
300
300
300
300
300
300
300
300
300
300
300
300
300
300
300
300
300
300
300
300
300
300
300
300
300
300
300
300
300
300
300
299.99999
300.00002
316.00322
298.6846
299.3924
299.97571
300.00405
300.00025
299.99999
300
300
300
300
300
300
300
300
300
300
300
300
300
300
300
300
300
300
300
300
300
300
300
300
300
300
300
300
300
300
299.99999
299.99999
300.00002
321.74031
299.84548
298.98518
299.89499
300.00715
300.00138
300
299.99999
300
300
300
300
300
300
300
300
300
300
300
300
300
300
300
300
300
300
300
300
300
300
300
300
300
300
300
300
299.99999
299.99999
299.99999
300.00003
326.66789
301.69912
298.71048
299.75336
300.00322
300.00378
300.00017
299.99998
300
300
300
300
300
300
300
300
300
300
300
300
300
300
300
300
300
300
300
300
300
300
300
300
300
300
299.99999
299.99999
299.99999
299.99998
299.99999
300.00004
330.68038
303.94514
298.66366
299.56878
299.9843
300.00694
300.00071
299.99996
299.99999
300
300
300
300
300
300
300
300
300
300
300
300
300
300
300
300
300
300
300
300
300
300
300
300
299.99999
299.99999
299.99999
299.99999
299.99998
300
300.00004
333.76812
306.32579
298.87083
299.37448
299.94531
300.00935
300.00179
300
299.99998
299.99999
300
300
300
300
300
300
300
300
300
300
300
300
300
300
300
300
300
300
300
300
300
300
299.99999
299.99999
299.99999
299.99999
299.99998
299.99998
300
300.00004
336.01392
308.65652
299.30679
299.20492
299.88611
300.00888
300.00343
300.00014
299.99996
299.99999
300
300
300
300
300
300
300
300
300
300
300
300
300
300
300
300
300
300
300
300
300
299.99999
299.99999
299.99999
299.99999
299.99999
299.99998
299.99998
300.00001
300.00004
337.56437
310.82649
299.92169
299.08595
299.8111
300.00353
300.00538
300.00045
299.99995
299.99999
299.99999
300
300
300
300
300
300
300
300
300
300
300
300
300
300
300
300
300
300
300
299.99999
299.99999
299.99999
299.99999
299.99999
299.99998
299.99998
299.99998
300.00001
300.00004
338.59075
312.78293
300.66091
299.03196
299.72732
299.992
300.0072
300.00098
299.99996
299.99998
299.99999
299.99999
300
300
300
300
300
300
300
300
300
300
300
300
300
300
300
300
300
299.99999
299.99999
299.99999
299.99999
299.99999
299.99999
299.99998
299.99998
299.99998
300.00002
300.00004
339.25565
314.5129
301.47571
299.04725
299.64249
299.9739
300.00834
300.00173
300
299.99996
299.99999
299.99999
299.99999
300
300
300
300
300
300
300
300
300
300
300
300
300
300
299.99999
299.99999
299.99999
299.99999
299.99999
299.99999
299.99999
299.99998
299.99998
299.99998
299.99999
300.00002
300.00004
339.69226
316.02761
302.32763
299.12906
299.5636
299.9497
300.00828
300.00264
300.00011
299.99995
299.99999
299.99999
299.99999
299.99999
299.99999
300
300
300
300
300
300
300
300
300
300
300
299.99999
299.99999
299.99999
299.99999
299.99999
299.99999
299.99999
299.99999
299.99998
299.99998
299.99998
299.99999
300.00002
300.00004
339.99701
317.35038
303.18893
299.27058
299.49621
299.92048
300.00658
300.00362
300.00029
299.99995
299.99998
299.99999
299.99999
299.99999
299.99999
299.99999
299.99999
300
300
300
300
300
300
300
299.99999
299.99999
299.99999
299.99999
299.99999
299.99999
299.99999
299.99999
299.99999
299.99998
299.99998
299.99998
299.99998
299.99999
300.00003
300.00004
340.23245
318.50857
304.04107
299.46331
299.44422
299.88773
300.00295
300.00454
300.00054
299.99995
299.99998
299.99999
299.99999
299.99999
299.99999
299.99999
299.99999
299.99999
299.99999
299.99999
299.99999
299.99999
299.99999
299.99999
299.99999
299.99999
299.99999
299.99999
299.99999
299.99999
299.99999
299.99999
299.99999
299.99998
299.99998
299.99998
299.99998
299.99999
300.00003
300.00003
340.4349
319.52883
304.87257
299.69856
299.41002
299.85305
299.99727
300.00526
300.00087
299.99997
299.99997
299.99999
299.99999
299.99999
299.99999
299.99999
299.99999
299.99999
299.99999
299.99999
299.99999
299.99999
299.99999
299.99999
299.99999
299.99999
299.99999
299.99999
299.99999
299.99999
299.99999
299.99999
299.99999
299.99998
299.99998
299.99997
299.99998
300
300.00003
300.00003
340.62297
320.4348
305.67687
299.96827
299.39481
299.81803
299.98956
300.00564
300.00126
300.00001
299.99996
299.99999
299.99999
299.99999
299.99999
299.99999
299.99999
299.99999
299.99999
299.99999
299.99999
299.99999
299.99999
299.99999
299.99999
299.99999
299.99999
299.99999
299.99999
299.99999
299.99999
299.99999
299.99998
299.99998
299.99998
299.99997
299.99998
300
300.00003
300.00003
340.80461
321.24626
306.45068
300.26534
299.39885
299.78413
299.97998
300.00557
300.00167
300.00008
299.99996
299.99998
299.99999
299.99999
299.99999
299.99999
299.99999
299.99999
299.99999
299.99999
299.99999
299.99999
299.99999
299.99999
299.99999
299.99999
299.99999
299.99999
299.99999
299.99999
299.99999
299.99999
299.99998
299.99998
299.99998
299.99997
299.99998
300
300.00003
300.00003
340.98194
321.97916
307.19274
300.58371
299.42178
299.75262
299.96876
300.00495
300.0021
300.00017
299.99996
299.99998
299.99999
299.99999
299.99999
299.99999
299.99999
299.99999
299.99999
299.99999
299.99999
299.99999
299.99999
299.99999
299.99999
299.99999
299.99999
299.99999
299.99999
299.99999
299.99999
299.99999
299.99998
299.99998
299.99998
299.99997
299.99998
300.00001
300.00003
300.00003
341.15442
322.646
307.90294
300.91824
299.46281
299.72457
299.95623
300.00371
300.00248
300.00028
299.99996
299.99998
299.99999
299.99999
299.99999
299.99999
299.99999
299.99999
299.99999
299.99999
299.99999
299.99999
299.99999
299.99999
299.99999
299.99999
299.99999
299.99999
299.99999
299.99999
299.99999
299.99998
299.99998
299.99998
299.99998
299.99997
299.99998
300.00001
300.00003
300.00003
341.32051
323.2564
308.58175
301.26464
299.52087
299.70086
299.94272
300.00182
300.0028
300.00042
299.99997
299.99998
299.99999
299.99999
299.99999
299.99999
299.99999
299.99999
299.99999
299.99999
299.99999
299.99999
299.99999
299.99999
299.99999
299.99999
299.99999
299.99999
299.99999
299.99999
299.99999
299.99998
299.99998
299.99998
299.99997
299.99997
299.99999
300.00001
300.00003
300.00003
341.47858
323.81767
309.22992
301.61928
299.59473
299.68216
299.92862
299.99927
300.00302
300.00058
299.99999
299.99997
299.99999
299.99999
299.99999
299.99999
299.99999
299.99999
299.99999
299.99999
299.99999
299.99999
299.99999
299.99999
299.99999
299.99999
299.99999
299.99999
299.99999
299.99999
299.99998
299.99998
299.99998
299.99998
299.99997
299.99997
299.99999
300.00001
300.00003
300.00003
341.62729
324.33532
309.84825
301.97906
299.68308
299.66899
299.9143
299.99608
300.00309
300.00074
300.00002
299.99997
299.99998
299.99999
299.99999
299.99999
299.99999
299.99999
299.99999
299.99999
299.99999
299.99999
299.99999
299.99999
299.99999
299.99999
299.99999
299.99999
299.99999
299.99999
299.99998
299.99998
299.99998
299.99998
299.99997
299.99997
299.99999
300.00001
300.00003
300.00003
341.76567
324.81349
310.43748
302.34134
299.78453
299.66169
299.90012
299.99229
300.00301
300.00091
300.00005
299.99997
299.99998
299.99999
299.99999
299.99999
299.99999
299.99999
299.99999
299.99999
299.99999
299.99999
299.99999
299.99999
299.99999
299.99999
299.99999
299.99999
299.99999
299.99998
299.99998
299.99998
299.99998
299.99998
299.99997
299.99998
299.99999
300.00002
300.00003
300.00002
341.89309
325.25526
310.99824
302.70381
299.89773
299.66048
299.88645
299.98795
300.00273
300.00106
300.00009
299.99997
299.99998
299.99999
299.99999
299.99999
299.99999
299.99999
299.99999
299.99999
299.99999
299.99999
299.99999
299.99999
299.99999
299.99999
299.99999
299.99999
299.99999
299.99998
299.99998
299.99998
299.99998
299.99998
299.99997
299.99998
299.99999
300.00002
300.00003
300.00002
342.00917
325.6629
311.53103
303.06443
300.02128
299.66546
299.87361
299.98316
300.00226
300.00121
300.00014
299.99998
299.99998
299.99998
299.99999
299.99999
299.99999
299.99999
299.99999
299.99999
299.99999
299.99999
299.99999
299.99999
299.99999
299.99999
299.99999
299.99999
299.99998
299.99998
299.99998
299.99998
299.99998
299.99997
299.99997
299.99998
299.99999
300.00002
300.00003
300.00003
342.11365
326.03802
312.03619
303.42135
300.15383
299.67662
299.86189
299.97799
300.00157
300.00132
300.00019
299.99998
299.99998
299.99998
299.99999
299.99999
299.99999
299.99999
299.99999
299.99999
299.99999
299.99999
299.99999
299.99999
299.99999
299.99999
299.99999
299.99998
299.99998
299.99998
299.99998
299.99998
299.99998
299.99997
299.99997
299.99998
300
300.00002
300.00003
300.00003
342.20633
326.3817
312.51389
303.7729
300.29404
299.69384
299.85156
299.97256
300.00066
300.00139
300.00025
299.99999
299.99998
299.99998
299.99998
299.99999
299.99999
299.99999
299.99999
299.99999
299.99999
299.99999
299.99999
299.99999
299.99999
299.99999
299.99998
299.99998
299.99998
299.99998
299.99998
299.99998
299.99998
299.99997
299.99997
299.99998
300
300.00002
300.00003
300.00003
342.28701
326.69455
312.96411
304.11753
300.44059
299.71696
299.84285
299.96697
299.99955
300.00143
300.00031
300
299.99998
299.99998
299.99998
299.99998
299.99999
299.99999
299.99999
299.99999
299.99999
299.99999
299.99999
299.99999
299.99999
299.99998
299.99998
299.99998
299.99998
299.99998
299.99998
299.99998
299.99998
299.99997
299.99997
299.99998
300
300.00002
300.00003
300.00004
342.35551
326.97677
313.38665
304.45376
300.59219
299.7457
299.83596
299.96133
299.99823
300.0014
300.00037
300.00001
299.99998
299.99998
299.99998
299.99998
299.99998
299.99998
299.99998
299.99999
299.99999
299.99999
299.99999
299.99998
299.99998
299.99998
299.99998
299.99998
299.99998
299.99998
299.99998
299.99998
299.99998
299.99997
299.99997
299.99998
300
300.00002
300.00003
300.00004
342.41171
327.22818
313.78108
304.78015
300.74755
299.77976
299.83104
299.95575
299.99674
300.00132
300.00042
300.00003
299.99998
299.99998
299.99998
299.99998
299.99998
299.99998
299.99998
299.99998
299.99998
299.99998
299.99998
299.99998
299.99998
299.99998
299.99998
299.99998
299.99998
299.99998
299.99998
299.99998
299.99997
299.99997
299.99997
299.99998
300
300.00002
300.00003
300.00004
342.45556
327.44831
314.14676
305.09531
300.90543
299.81874
299.8282
299.95036
299.99508
300.00117
300.00047
300.00004
299.99998
299.99998
299.99998
299.99998
299.99998
299.99998
299.99998
299.99998
299.99998
299.99998
299.99998
299.99998
299.99998
299.99998
299.99998
299.99998
299.99998
299.99998
299.99998
299.99998
299.99997
299.99997
299.99997
299.99998
300
300.00002
300.00003
300.00005
342.48716
327.63648
314.48285
305.39782
301.06457
299.86223
299.82753
299.94524
299.99328
300.00096
300.00051
300.00006
299.99998
299.99998
299.99998
299.99998
299.99998
299.99998
299.99998
299.99998
299.99998
299.99998
299.99998
299.99998
299.99998
299.99998
299.99998
299.99998
299.99998
299.99998
299.99998
299.99998
299.99997
299.99997
299.99997
299.99998
300
300.00002
300.00004
300.00005
342.50682
327.79197
314.78832
305.68627
301.22373
299.90975
299.82906
299.94052
299.99138
300.00068
300.00053
300.00008
299.99998
299.99998
299.99998
299.99998
299.99998
299.99998
299.99998
299.99998
299.99998
299.99998
299.99998
299.99998
299.99998
299.99998
299.99998
299.99998
299.99998
299.99998
299.99998
299.99997
299.99997
299.99997
299.99997
299.99998
300
300.00002
300.00004
300.00005
342.51516
327.91419
315.06201
305.95922
301.3817
299.96079
299.8328
299.93626
299.98941
300.00033
300.00055
300.0001
299.99998
299.99998
299.99998
299.99998
299.99998
299.99998
299.99998
299.99998
299.99998
299.99998
299.99998
299.99998
299.99998
299.99998
299.99998
299.99998
299.99998
299.99998
299.99998
299.99997
299.99997
299.99997
299.99997
299.99998
300
300.00002
300.00004
300.00005
342.51308
328.00294
315.30272
306.21524
301.53726
300.01482
299.83871
299.93256
299.98741
299.99993
300.00054
300.00011
299.99999
299.99998
299.99998
299.99998
299.99998
299.99998
299.99998
299.99998
299.99998
299.99998
299.99998
299.99998
299.99998
299.99998
299.99998
299.99998
299.99998
299.99998
299.99998
299.99997
299.99997
299.99997
299.99997
299.99998
300
300.00003
300.00004
300.00006
342.5019
328.0587
315.50941
306.45291
301.68921
300.07125
299.84674
299.92949
299.98541
299.99946
300.00052
300.00013
299.99999
299.99998
299.99998
299.99998
299.99998
299.99998
299.99998
299.99998
299.99998
299.99998
299.99998
299.99998
299.99998
299.99998
299.99998
299.99998
299.99998
299.99998
299.99997
299.99997
299.99997
299.99997
299.99997
299.99998
300
300.00003
300.00004
300.00006
342.48328
328.08293
315.68133
306.67093
301.8364
300.12952
299.85678
299.9271
299.98344
299.99894
300.00048
300.00014
300
299.99998
299.99998
299.99998
299.99998
299.99998
299.99998
299.99998
299.99998
299.99998
299.99998
299.99998
299.99998
299.99998
299.99998
299.99998
299.99998
299.99998
299.99997
299.99997
299.99997
299.99997
299.99997
299.99998
300.00001
300.00003
300.00004
300.00006
342.45915
328.07829
315.81829
306.86814
301.97774
300.18901
299.86869
299.92543
299.98155
299.99838
300.00042
300.00015
300
299.99998
299.99998
299.99998
299.99998
299.99998
299.99998
299.99998
299.99998
299.99998
299.99998
299.99998
299.99998
299.99998
299.99998
299.99998
299.99998
299.99997
299.99997
299.99997
299.99997
299.99997
299.99997
299.99998
300.00001
300.00003
300.00005
300.00006
342.43165
328.0488
315.92093
307.04367
302.11223
300.24914
299.88234
299.92452
299.97977
299.99778
300.00034
300.00016
300.00001
299.99998
299.99998
299.99998
299.99998
299.99998
299.99998
299.99998
299.99998
299.99998
299.99998
299.99998
299.99998
299.99998
299.99998
299.99998
299.99998
299.99997
299.99997
299.99997
299.99997
299.99997
299.99997
299.99998
300.00001
300.00003
300.00005
300.00007
342.40291
327.99971
315.99087
307.19704
302.23898
300.30933
299.89752
299.92436
299.97812
299.99716
300.00024
300.00016
300.00001
299.99998
299.99998
299.99998
299.99998
299.99998
299.99998
299.99998
299.99998
299.99998
299.99998
299.99998
299.99998
299.99998
299.99998
299.99998
299.99997
299.99997
299.99997
299.99997
299.99997
299.99997
299.99997
299.99999
300.00001
300.00003
300.00005
300.00007
342.37486
327.93726
316.0309
307.32827
302.35728
300.36903
299.91407
299.92496
299.97663
299.99653
300.00012
300.00016
300.00001
299.99998
299.99997
299.99998
299.99998
299.99998
299.99998
299.99998
299.99998
299.99998
299.99998
299.99998
299.99998
299.99998
299.99998
299.99997
299.99997
299.99997
299.99997
299.99997
299.99997
299.99997
299.99997
299.99999
300.00001
300.00003
300.00005
300.00007
342.34906
327.86808
316.04493
307.43797
302.46664
300.42774
299.93176
299.9263
299.97532
299.99589
299.99999
300.00016
300.00002
299.99998
299.99997
299.99997
299.99998
299.99998
299.99998
299.99998
299.99998
299.99998
299.99998
299.99998
299.99998
299.99997
299.99997
299.99997
299.99997
299.99997
299.99997
299.99997
299.99997
299.99997
299.99997
299.99999
300.00001
300.00003
300.00005
300.00007
342.32652
327.79851
316.03784
307.5274
302.56682
300.48502
299.95038
299.92835
299.97422
299.99526
299.99984
300.00014
300.00002
299.99998
299.99997
299.99997
299.99997
299.99997
299.99997
299.99997
299.99998
299.99997
299.99997
299.99997
299.99997
299.99997
299.99997
299.99997
299.99997
299.99997
299.99997
299.99997
299.99997
299.99997
299.99997
299.99999
300.00001
300.00003
300.00005
300.00007
342.30765
327.73385
316.01515
307.59843
302.65783
300.54051
299.96973
299.93106
299.97332
299.99464
299.99968
300.00013
300.00002
299.99998
299.99997
299.99997
299.99997
299.99997
299.99997
299.99997
299.99997
299.99997
299.99997
299.99997
299.99997
299.99997
299.99997
299.99997
299.99997
299.99997
299.99997
299.99997
299.99997
299.99997
299.99997
299.99999
300.00001
300.00003
300.00005
300.00008
342.29229
327.67773
315.98257
307.65344
302.73998
300.59393
299.9896
299.93438
299.97264
299.99405
299.9995
300.0001
300.00002
299.99998
299.99997
299.99997
299.99997
299.99997
299.99997
299.99997
299.99997
299.99997
299.99997
299.99997
299.99997
299.99997
299.99997
299.99997
299.99997
299.99997
299.99997
299.99997
299.99996
299.99997
299.99997
299.99999
300.00001
300.00003
300.00006
300.00008
342.27983
327.63184
315.94555
307.69519
302.81379
300.6451
300.00979
299.93824
299.97217
299.99349
299.99932
300.00008
300.00002
299.99998
299.99997
299.99997
299.99997
299.99997
299.99997
299.99997
299.99997
299.99997
299.99997
299.99997
299.99997
299.99997
299.99997
299.99997
299.99997
299.99997
299.99997
299.99997
299.99996
299.99996
299.99997
299.99999
300.00001
300.00003
300.00006
300.00008
342.26935
327.5959
315.90877
307.72661
302.87997
300.69391
300.03013
299.94258
299.97191
299.99296
299.99914
300.00004
300.00002
299.99998
299.99997
299.99997
299.99997
299.99997
299.99997
299.99997
299.99997
299.99997
299.99997
299.99997
299.99997
299.99997
299.99997
299.99997
299.99997
299.99997
299.99997
299.99996
299.99996
299.99996
299.99997
299.99999
300.00001
300.00003
300.00006
300.00008
342.25982
327.568
315.87569
307.75057
302.93936
300.74034
300.0505
299.94734
299.97185
299.99247
299.99895
300.00001
300.00002
299.99998
299.99997
299.99997
299.99997
299.99997
299.99997
299.99997
299.99997
299.99997
299.99997
299.99997
299.99997
299.99997
299.99997
299.99997
299.99997
299.99997
299.99996
299.99996
299.99996
299.99996
299.99997
299.99999
300.00001
300.00003
300.00006
300.00008
342.25031
327.54518
315.84834
307.76971
302.99285
300.78441
300.07078
299.95251
299.97202
299.99204
299.99876
299.99997
300.00002
299.99998
299.99997
299.99997
299.99997
299.99997
299.99997
299.99997
299.99997
299.99997
299.99997
299.99997
299.99997
299.99997
299.99997
299.99997
299.99997
299.99996
299.99996
299.99996
299.99996
299.99996
299.99997
299.99999
300.00001
300.00004
300.00006
300.00008
342.2401
327.52406
315.82711
307.78628
303.04136
300.82619
300.09092
299.95805
299.97241
299.99167
299.99858
299.99993
300.00001
299.99998
299.99997
299.99997
299.99997
299.99997
299.99997
299.99997
299.99997
299.99997
299.99997
299.99997
299.99997
299.99997
299.99997
299.99997
299.99997
299.99996
299.99996
299.99996
299.99996
299.99996
299.99997
299.99999
300.00001
300.00004
300.00006
300.00009
342.22871
327.50142
315.81078
307.80194
303.08583
300.86582
300.11085
299.96393
299.97303
299.99137
299.99841
299.99988
300.00001
299.99998
299.99997
299.99997
299.99997
299.99997
299.99997
299.99997
299.99997
299.99997
299.99997
299.99997
299.99997
299.99997
299.99997
299.99997
299.99997
299.99996
299.99996
299.99996
299.99996
299.99996
299.99997
299.99999
300.00001
300.00004
300.00007
300.00009
342.21602
327.47469
315.79675
307.81762
303.12718
300.90348
300.13048
299.9701
299.97385
299.99113
299.99824
299.99983
300
299.99998
299.99997
299.99997
299.99997
299.99997
299.99997
299.99997
299.99997
299.99997
299.99997
299.99997
299.99997
299.99997
299.99997
299.99997
299.99997
299.99996
299.99996
299.99996
299.99996
299.99996
299.99997
299.99999
300.00001
300.00004
300.00007
300.00009
342.20212
327.44222
315.7814
307.83334
303.16628
300.9394
300.14973
299.97643
299.97483
299.99094
299.99808
299.99978
299.99999
299.99998
299.99997
299.99997
299.99997
299.99997
299.99997
299.99997
299.99997
299.99997
299.99997
299.99997
299.99997
299.99997
299.99997
299.99997
299.99996
299.99996
299.99996
299.99996
299.99996
299.99996
299.99997
299.99999
300.00001
300.00004
300.00007
300.00009
342.18735
327.40337
315.76069
307.84802
303.20374
300.9739
300.16848
299.98275
299.97585
299.99077
299.99791
299.99973
299.99998
299.99998
299.99997
299.99996
299.99996
299.99996
299.99996
299.99996
299.99996
299.99996
299.99996
299.99996
299.99996
299.99996
299.99996
299.99996
299.99996
299.99996
299.99996
299.99996
299.99996
299.99996
299.99997
299.99999
300.00001
300.00003
300.00007
300.00009
342.17217
327.35852
315.7308
307.85949
303.23971
301.00726
300.18665
299.98884
299.97679
299.99057
299.99774
299.99968
299.99997
299.99997
299.99996
299.99996
299.99996
299.99996
299.99996
299.99996
299.99996
299.99996
299.99996
299.99996
299.99996
299.99996
299.99996
299.99996
299.99996
299.99996
299.99996
299.99996
299.99996
299.99996
299.99997
299.99998
300.00001
300.00003
300.00007
300.00009
342.15708
327.30884
315.68888
307.86462
303.27359
301.03968
300.20423
299.99457
299.97754
299.99029
299.99754
299.99962
299.99995
299.99996
299.99995
299.99995
299.99995
299.99995
299.99995
299.99995
299.99995
299.99995
299.99995
299.99995
299.99995
299.99995
299.99995
299.99995
299.99995
299.99995
299.99995
299.99995
299.99995
299.99996
299.99997
299.99998
300
300.00003
300.00008
300.00009
342.14257
327.25615
315.63355
307.85976
303.30387
301.07104
300.22128
299.99988
299.97803
299.98989
299.99731
299.99955
299.99994
299.99996
299.99994
299.99994
299.99994
299.99994
299.99994
299.99994
299.99994
299.99994
299.99994
299.99994
299.99994
299.99994
299.99994
299.99994
299.99994
299.99994
299.99994
299.99994
299.99994
299.99995
299.99996
299.99997
300
300.00004
300.00008
300.00009
342.12908
327.20257
315.5653
307.84148
303.3282
301.10082
300.23793
300.00492
299.9783
299.98939
299.99705
299.99948
299.99992
299.99994
299.99993
299.99993
299.99993
299.99993
299.99993
299.99993
299.99993
299.99993
299.99993
299.99993
299.99993
299.99993
299.99993
299.99993
299.99993
299.99993
299.99993
299.99993
299.99993
299.99994
299.99995
299.99997
299.99999
300.00004
300.00008
300.00009
342.11692
327.15027
315.48643
307.80733
303.34371
301.12801
300.25428
300.00999
299.97855
299.98885
299.99677
299.9994
299.9999
299.99994
299.99992
299.99992
299.99992
299.99992
299.99992
299.99992
299.99992
299.99992
299.99992
299.99992
299.99992
299.99992
299.99992
299.99992
299.99992
299.99992
299.99992
299.99992
299.99992
299.99993
299.99994
299.99996
299.99999
300.00004
300.00008
300.00009
342.10631
327.10121
315.40066
307.7566
303.34766
301.15118
300.2703
300.01551
299.97907
299.98838
299.9965
299.99932
299.99989
299.99993
299.99991
299.99991
299.99991
299.99991
299.99991
299.99991
299.99991
299.99991
299.99991
299.99991
299.99991
299.99991
299.99991
299.99991
299.99991
299.99991
299.99991
299.99991
299.99991
299.99992
299.99993
299.99995
299.99999
300.00005
300.00009
300.00009
342.09732
327.05696
315.31258
307.69069
303.33815
301.16877
300.28575
300.02183
299.9802
299.98816
299.99629
299.99926
299.99988
299.99993
299.99991
299.99991
299.9999
299.99991
299.99991
299.99991
299.99991
299.99991
299.99991
299.99991
299.99991
299.99991
299.99991
299.99991
299.99991
299.99991
299.99991
299.99991
299.99991
299.99991
299.99993
299.99995
300
300.00005
300.00009
300.00009
342.08993
327.01853
315.22685
307.61303
303.31472
301.17943
300.30019
300.02919
299.98225
299.98833
299.99618
299.99921
299.99987
299.99993
299.99991
299.99991
299.99991
299.99991
299.99991
299.99991
299.99991
299.99991
299.99991
299.99991
299.99991
299.99991
299.99991
299.99991
299.99991
299.99991
299.99991
299.99991
299.99991
299.99991
299.99993
299.99996
300
300.00006
300.00009
300.00009
342.08406
326.98642
315.14755
307.52853
303.27865
301.18244
300.313
300.03751
299.98535
299.98902
299.99623
299.99919
299.99987
299.99993
299.99992
299.99992
299.99992
299.99992
299.99992
299.99992
299.99992
299.99992
299.99992
299.99992
299.99992
299.99992
299.99992
299.99992
299.99991
299.99991
299.99991
299.99991
299.99991
299.99992
299.99993
299.99996
300.00001
300.00006
300.00009
300.00009
342.07954
326.96059
315.07768
307.44271
303.2328
301.17793
300.32359
300.04646
299.98945
299.99025
299.99646
299.99921
299.99987
299.99994
299.99993
299.99993
299.99993
299.99993
299.99993
299.99993
299.99993
299.99993
299.99993
299.99993
299.99993
299.99993
299.99993
299.99993
299.99993
299.99992
299.99992
299.99992
299.99992
299.99993
299.99994
299.99997
300.00002
300.00007
300.00009
300.00009
342.07617
326.94061
315.01898
307.36082
303.18104
301.16688
300.33151
300.05549
299.99428
299.99193
299.99685
299.99926
299.99988
299.99995
299.99995
299.99994
299.99994
299.99994
299.99994
299.99994
299.99995
299.99995
299.99995
299.99995
299.99995
299.99994
299.99994
299.99994
299.99994
299.99994
299.99994
299.99993
299.99993
299.99994
299.99995
299.99999
300.00003
300.00007
300.00009
300.00009
342.07377
326.92576
314.97186
307.28701
303.12757
301.15093
300.33659
300.06396
299.99941
299.99392
299.99737
299.99935
299.99989
299.99996
299.99996
299.99996
299.99996
299.99996
299.99996
299.99996
299.99996
299.99996
299.99996
299.99996
299.99996
299.99996
299.99996
299.99996
299.99996
299.99995
299.99995
299.99995
299.99995
299.99995
299.99997
300
300.00004
300.00008
300.00009
300.00009
342.07213
326.91519
314.93572
307.22396
303.07618
301.13206
300.33896
300.07134
300.0044
299.996
299.99796
299.99946
299.9999
299.99997
299.99997
299.99997
299.99997
299.99997
299.99997
299.99997
299.99997
299.99997
299.99997
299.99997
299.99997
299.99997
299.99997
299.99997
299.99997
299.99997
299.99997
299.99997
299.99997
299.99997
299.99998
300.00001
300.00005
300.00008
300.00009
300.00009
342.07108
326.90799
314.90919
307.17274
303.02978
301.1122
300.339
300.07727
300.00887
299.99799
299.99856
299.99958
299.99992
299.99998
299.99999
299.99998
299.99998
299.99999
299.99999
299.99999
299.99999
299.99999
299.99999
299.99999
299.99999
299.99999
299.99999
299.99998
299.99998
299.99998
299.99998
299.99998
299.99998
299.99998
300
300.00002
300.00005
300.00008
300.00009
300.00009
342.07045
326.90332
314.89053
307.13306
302.99013
301.09298
300.33727
300.08162
300.01257
299.99973
299.99911
299.9997
299.99994
299.99999
299.99999
299.99999
299.99999
299.99999
300
300
300
300
300
300
300
300
299.99999
299.99999
299.99999
299.99999
299.99999
299.99999
299.99999
300
300.00001
300.00003
300.00006
300.00008
300.00009
300.00009
342.07013
326.90046
314.87791
307.10364
302.95787
301.07558
300.33438
300.08449
300.0154
300.00114
299.99958
299.9998
299.99996
300
300
300
300
300
300
300
300
300
300
300
300
300
300
300
300
300
300
300
300
300
300.00001
300.00003
300.00006
300.00008
300.00009
300.00009
342.07
326.89883
314.86965
307.08263
302.93273
301.06064
300.3309
300.08611
300.01741
300.00221
299.99995
299.99989
299.99998
300
300
300.00001
300.00001
300.00001
300.00001
300.00001
300.00001
300.00001
300.00001
300.00001
300.00001
300.00001
300.00001
300
300
300
300
300
300.00001
300.00001
300.00002
300.00004
300.00006
300.00008
300.00009
300.00009
342.06999
326.89796
314.86435
307.06806
302.91386
301.04839
300.32731
300.08679
300.01872
300.00297
300.00023
299.99997
299.99999
300
300.00001
300.00001
300.00001
300.00001
300.00001
300.00001
300.00001
300.00001
300.00001
300.00001
300.00001
300.00001
300.00001
300.00001
300.00001
300.00001
300.00001
300.00001
300.00001
300.00001
300.00002
300.00004
300.00006
300.00008
300.00009
300.00009
342.07006
326.89755
314.86095
307.05811
302.90007
301.03871
300.32394
300.08686
300.01949
300.00347
300.00043
300.00002
300
300.00001
300.00001
300.00001
300.00001
300.00001
300.00001
300.00001
300.00001
300.00001
300.00001
300.00001
300.00001
300.00001
300.00001
300.00001
300.00001
300.00001
300.00001
300.00001
300.00001
300.00001
300.00002
300.00004
300.00006
300.00008
300.00009
300.00009
342.07016
326.89739
314.85868
307.05127
302.89017
301.03127
300.32098
300.08657
300.0199
300.00378
300.00056
300.00006
300.00001
300.00001
300.00001
300.00001
300.00001
300.00001
300.00001
300.00001
300.00001
300.00001
300.00001
300.00001
300.00001
300.00001
300.00001
300.00001
300.00001
300.00001
300.00001
300.00001
300.00001
300.00001
300.00002
300.00004
300.00006
300.00008
300.00009
300.00009
342.07027
326.89736
314.85707
307.04643
302.88304
301.02566
300.31852
300.08612
300.02008
300.00396
300.00064
300.00008
300.00001
300.00001
300.00001
300.00001
300.00001
300.00001
300.00001
300.00001
300.00001
300.00001
300.00001
300.00001
300.00001
300.00001
300.00001
300.00001
300.00001
300.00001
300.00001
300.00001
300.00001
300.00001
300.00002
300.00004
300.00006
300.00008
300.00009
300.00009
342.07038
326.89738
314.85583
307.0428
302.87782
301.02145
300.31654
300.08565
300.02013
300.00406
300.00069
300.0001
300.00001
300.00001
300.00001
300.00001
300.00001
300.00001
300.00001
300.00001
300.00001
300.00001
300.00001
300.00001
300.00001
300.00001
300.00001
300.00001
300.00001
300.00001
300.00001
300.00001
300.00001
300.00001
300.00002
300.00004
300.00006
300.00008
300.00009
300.00009
342.0705
326.89742
314.8548
307.03993
302.87385
301.01826
300.31498
300.08522
300.02012
300.00411
300.00072
300.00011
300.00002
300.00001
300.00001
300.00001
300.00001
300.00001
300.00001
300.00001
300.00001
300.00001
300.00001
300.00001
300.00001
300.00001
300.00001
300.00001
300.00001
300.00001
300.00001
300.00001
300.00001
300.00001
300.00002
300.00003
300.00006
300.00008
300.00009
300.00009
342.07061
326.89748
314.85393
307.03753
302.87072
301.0158
300.31376
300.08486
300.02008
300.00414
300.00074
300.00012
300.00002
300.00001
300.00001
300.00001
300.00001
300.00001
300.00001
300.00001
300.00001
300.00001
300.00001
300.00001
300.00001
300.00001
300.00001
300.00001
300.00001
300.00001
300.00001
300.00001
300.00001
300.00001
300.00002
300.00003
300.00006
300.00008
300.00009
300.00009
342.07072
326.89755
314.85317
307.03548
302.86814
301.01384
300.31281
300.08457
300.02005
300.00416
300.00075
300.00012
300.00002
300.00001
300.00001
300.00001
300.00001
300.00001
300.00001
300.00001
300.00001
300.00001
300.00001
300.00001
300.00001
300.00001
300.00001
300.00001
300.00001
300.00001
300.00001
300.00001
300.00001