/*--------------------------------*- C++ -*----------------------------------*\
  =========                 |
  \\      /  F ield         | OpenFOAM: The Open Source CFD Toolbox
   \\    /   O peration     | Website:  https://openfoam.org
    \\  /    A nd           | Version:  10
     \\/     M anipulation  |
\*---------------------------------------------------------------------------*/
FoamFile
{
    format      ascii;
    class       volScalarField;
    location    "0.12";
    object      TporMedia_0;
}
// * * * * * * * * * * * * * * * * * * * * * * * * * * * * * * * * * * * * * //

dimensions      [0 0 0 1 0 0 0];

internalField   nonuniform List<scalar> 
4000
(
-1.2893805e-05
6.2605209e-06
0.00044268975
0.00052221752
0.00024791843
0.00026860592
0.00027523245
0.00024443063
0.00031459372
0.0003130368
0.00032316346
0.0003156773
0.00027208485
0.00030768959
0.00026514616
0.00028747906
0.00035501487
0.00029478171
0.00035854792
0.00022779934
0.00029587634
0.00036557233
0.00028677442
0.00035754601
0.00028376851
0.00031993215
0.00029667403
0.00030274588
0.00031263906
0.00030217803
0.00031268926
0.00025241836
0.00026883361
0.00032244315
0.00026292584
0.00025639454
0.00033453265
0.00028891647
0.00031181299
0.00025401521
-1.1138667e-06
2.0672215e-14
4.4878923e-12
-2.8263136e-10
2.4993188e-10
1.5665807e-10
1.2583136e-10
1.2142056e-10
2.1081946e-10
1.3984022e-10
1.9056414e-10
1.7190397e-10
1.6065387e-10
1.8637108e-10
1.4197756e-10
1.5636511e-10
2.3703e-10
2.1191602e-10
2.2579558e-10
1.2779986e-10
1.8368834e-10
1.8687889e-10
1.4902232e-10
2.1457041e-10
1.7700889e-10
2.1138855e-10
2.4434601e-10
1.8682481e-10
2.0409423e-10
1.4850005e-10
1.7669847e-10
1.3432202e-10
2.1774143e-10
1.5373618e-10
1.3488126e-10
1.2971387e-10
1.4515881e-10
2.3279701e-10
1.4171428e-10
1.1563066e-10
-4.5377924e-07
-6.4446603e-15
1.3209203e-20
-1.0080944e-17
-4.9506612e-17
1.3560695e-16
9.0585825e-17
6.0384976e-17
9.5948263e-17
7.438954e-17
1.4072089e-16
8.3499193e-17
9.7083158e-17
6.8457404e-17
6.5685004e-17
7.1227393e-17
1.6100798e-16
1.2445482e-16
1.1571657e-16
6.9731782e-17
8.3514242e-17
1.038185e-16
8.1185998e-17
1.6455156e-16
7.9004071e-17
1.375241e-16
2.1536507e-16
1.0744905e-16
1.1092208e-16
6.3661851e-17
9.2281802e-17
5.6698424e-17
8.657127e-17
1.0212018e-16
6.3171926e-17
1.0046739e-16
9.2517778e-17
8.5969912e-17
5.8801535e-17
5.9227871e-17
-2.4613032e-07
3.5384543e-16
5.4694036e-25
-6.8848683e-26
4.4078265e-24
-5.6531668e-23
4.2869711e-23
2.2252768e-23
6.984272e-23
4.3731229e-23
8.980901e-23
5.3135525e-23
4.0728483e-23
3.545978e-23
3.6213186e-23
4.3828354e-23
8.1626314e-23
7.3509332e-23
6.2691702e-23
4.1361347e-23
5.1109744e-23
6.4802878e-23
6.3000104e-23
8.4352748e-23
5.3370573e-23
1.2789036e-22
8.8843667e-23
7.513024e-23
5.3695149e-23
3.8929854e-23
3.5849172e-23
3.7001081e-23
4.6415068e-23
5.7473419e-23
4.0031864e-23
5.1664852e-23
4.1370547e-23
4.4991892e-23
3.5094378e-23
2.5380152e-23
-1.5661951e-07
7.0293297e-17
8.4017212e-26
3.7367401e-35
1.3876106e-30
5.1215309e-30
7.2962054e-29
1.1415006e-29
3.9972782e-29
4.0574015e-29
4.0605417e-29
3.0523407e-29
1.6448246e-29
2.2269223e-29
1.6159295e-29
1.8450657e-29
4.948137e-29
4.4267638e-29
4.2637473e-29
1.9015112e-29
2.4744084e-29
3.6097833e-29
2.682741e-29
4.7660175e-29
3.6364012e-29
1.0361324e-28
6.5865049e-29
5.3024612e-29
3.8946079e-29
1.8285756e-29
1.6454689e-29
2.5186114e-29
2.0317377e-29
4.4843907e-29
1.7829386e-29
3.4513509e-29
1.7647501e-29
2.1529732e-29
1.5586351e-29
1.2830453e-29
-1.1046924e-07
2.3944952e-17
3.5358139e-26
4.3275938e-35
1.8648087e-38
-2.1171849e-37
-3.9319865e-35
5.4888965e-36
1.5866366e-35
2.3634739e-35
2.3348119e-35
1.5150825e-35
7.6703011e-36
1.4658946e-35
1.0357592e-35
1.2419531e-35
2.8790138e-35
2.6463549e-35
2.515178e-35
9.9476611e-36
1.9407696e-35
2.6493118e-35
2.0723472e-35
3.4551421e-35
1.9372364e-35
6.6810222e-35
3.6893412e-35
3.2106875e-35
2.0830395e-35
1.4910471e-35
1.1866653e-35
1.2381453e-35
1.0521525e-35
2.684385e-35
8.6223496e-36
1.8178936e-35
8.1657044e-36
1.2673142e-35
8.0428583e-36
6.5824354e-36
-8.3766522e-08
1.0634095e-17
-1.8502085e-25
-1.3918604e-34
-5.6630082e-43
6.0766321e-45
3.820745e-42
3.185065e-42
8.5765847e-42
1.2049728e-41
1.3019997e-41
7.8676394e-42
3.3998075e-42
1.0946295e-41
6.6879939e-42
9.3914781e-42
1.7421205e-41
2.6410447e-41
1.8095002e-41
6.5853778e-42
1.2395761e-41
1.2552763e-41
1.3558728e-41
1.81101e-41
2.1668032e-41
4.9064295e-41
2.0391437e-41
1.4362833e-41
1.0237396e-41
8.8975501e-42
7.1954175e-42
6.8497768e-42
6.2722826e-42
1.2811599e-41
7.007093e-42
9.360038e-42
3.4273708e-42
9.2258635e-42
3.614323e-42
3.3571667e-42
-6.6867908e-08
5.5666238e-18
-3.5634311e-27
-1.9296007e-36
-3.480273e-45
-1.0439776e-52
-1.6574964e-49
1.6066006e-47
3.5070309e-48
7.9613951e-48
5.201395e-48
4.9579763e-48
1.5543069e-48
9.1117553e-48
3.0544868e-48
5.6173015e-48
8.1107235e-48
1.8051008e-47
1.1972005e-47
3.5877613e-48
8.5311228e-48
7.4814239e-48
8.4492852e-48
1.1493676e-47
1.1202742e-47
3.7218031e-47
1.1761458e-47
8.8110861e-48
5.9541891e-48
5.4829581e-48
4.6103094e-48
4.3346178e-48
4.8734528e-48
8.1323539e-48
3.4932572e-48
3.9852988e-48
1.667031e-48
4.4183662e-48
1.8919439e-48
1.6546719e-48
-5.5220676e-08
3.2461409e-18
-8.1249983e-28
-3.6334232e-37
-3.5590436e-46
-1.2955239e-53
3.8759018e-57
-4.099548e-54
1.3918147e-54
4.1927412e-54
2.6125667e-54
3.2337421e-54
1.1996148e-54
6.72756e-54
2.3382408e-54
4.2000086e-54
4.0555319e-54
1.6104653e-53
8.9358379e-54
2.2988206e-54
4.1205335e-54
6.8278876e-54
4.6450386e-54
1.2009647e-53
2.2948227e-53
2.0829159e-53
6.6180303e-54
5.8710175e-54
5.3023766e-54
2.9475498e-54
3.0830422e-54
3.5137803e-54
2.7204322e-54
5.2094306e-54
1.5468403e-54
2.1692918e-54
8.0294178e-55
1.9787845e-54
1.5724544e-54
9.4389615e-55
-4.6473116e-08
2.0297006e-18
-2.7079547e-28
-1.1527206e-37
-7.0052281e-47
-4.6198654e-55
7.1736933e-63
3.3048779e-61
7.9885454e-61
3.2789411e-60
2.6930103e-60
2.5023409e-60
6.9380808e-61
6.4918444e-60
1.7668669e-60
4.977455e-60
3.5125148e-60
1.2367055e-59
5.5417505e-60
2.1414168e-60
2.7950964e-60
5.0888626e-60
4.3073243e-60
9.6654657e-60
1.6075385e-59
1.2163625e-59
6.0328405e-60
4.8602163e-60
4.7476671e-60
2.0894428e-60
1.5919397e-60
2.6354085e-60
2.1922378e-60
3.2469928e-60
9.4349367e-61
1.0625089e-60
5.0206972e-61
1.2294591e-60
1.0295557e-60
5.4060633e-61
-3.9357475e-08
1.3236187e-18
-1.0858576e-28
-5.3620286e-38
-2.2294201e-47
-5.9653456e-56
7.7700939e-64
-1.2922724e-68
1.1101421e-66
2.0564122e-66
1.67316e-66
2.4200579e-66
8.1923774e-67
6.9863922e-66
2.1031851e-66
3.4723804e-66
3.5006159e-66
8.3895429e-66
3.3587765e-66
1.1592632e-66
3.2812939e-66
5.5376463e-66
2.7337668e-66
6.2918683e-66
1.8555769e-65
1.0917817e-65
3.9250691e-66
5.1187981e-66
7.8578132e-66
1.6368882e-66
1.3291503e-66
2.3787978e-66
1.1863538e-66
1.7331471e-66
6.9103646e-67
6.1492896e-67
2.2514656e-67
1.608081e-66
5.8073421e-67
6.4233994e-67
-3.3265071e-08
8.8363922e-19
-4.8515741e-29
-4.4073965e-38
-1.3525697e-47
-1.86838e-56
2.5467575e-64
-5.7156451e-72
-6.6860874e-73
8.4646292e-73
1.1046676e-72
1.5119954e-72
5.882025e-73
6.1517945e-72
1.3832832e-72
3.2042873e-72
3.8587597e-72
8.5597054e-72
2.2960018e-72
9.3710726e-73
4.082509e-72
5.8805928e-72
1.9281844e-72
4.9543904e-71
1.1521101e-71
6.6282241e-72
3.7941521e-72
4.450156e-72
7.4546919e-72
1.2768283e-72
1.5664055e-72
1.2638421e-72
8.7167075e-73
1.1385585e-72
4.2289416e-73
5.1431697e-73
1.2584876e-73
1.2628529e-72
7.9700627e-73
3.2069207e-72
-2.7954179e-08
5.9730964e-19
-2.3223176e-29
3.8979316e-38
9.4052863e-48
7.701982e-57
-2.1116147e-64
3.1089896e-72
-3.5748863e-79
3.2334611e-79
6.2695938e-79
1.225456e-78
8.2807195e-79
5.2363968e-78
1.7035999e-78
2.6126086e-78
3.7927409e-78
6.8369536e-78
2.6099395e-78
9.3310131e-79
6.0924199e-78
3.8657468e-78
2.7545948e-78
3.8619469e-77
8.5356928e-78
5.3355543e-78
3.0656678e-78
3.0792602e-78
8.646813e-78
2.166714e-78
1.0615598e-78
1.1523465e-78
5.8185454e-79
8.933706e-79
2.7420422e-79
3.4866271e-79
9.1744717e-80
9.3068071e-79
1.2506123e-78
3.8662964e-78
-2.3350621e-08
4.066474e-19
-1.1653383e-29
3.5919888e-39
7.2058008e-49
3.8261828e-58
7.5129961e-66
-7.8150427e-74
5.1609597e-81
1.4838942e-85
3.1003135e-85
9.557124e-85
1.0369017e-84
5.5035251e-84
2.9713147e-84
4.8826249e-84
2.9936937e-84
7.1194677e-84
2.2572845e-84
8.1767199e-85
8.7624981e-84
6.2520425e-84
5.5334538e-84
4.5174793e-83
6.9973816e-84
3.7443865e-84
2.3824151e-84
2.8193068e-84
1.0327683e-83
4.0321574e-84
8.4920145e-85
1.3362132e-84
5.73573e-85
8.0940131e-85
2.593337e-85
3.5006999e-85
5.3228167e-86
1.1407674e-84
1.0651953e-84
-1.4034802e-83
-1.9419366e-08
2.7826474e-19
-6.054798e-30
8.5977153e-40
1.512198e-49
5.5637465e-59
2.6585835e-67
-2.170136e-75
7.4851712e-83
6.708349e-89
1.2038316e-91
8.8731216e-91
1.2572047e-90
6.9531531e-90
4.5649405e-90
7.8040213e-90
4.2627881e-90
1.5214264e-89
2.5976046e-90
2.3575035e-90
2.1987447e-89
6.4319793e-90
1.0238126e-89
7.0832349e-89
7.2117882e-89
3.4244499e-90
2.7572078e-90
5.2516346e-90
9.2453044e-90
2.3690009e-90
7.1080239e-91
1.1451306e-90
3.5871245e-91
9.3672035e-91
1.8086995e-91
4.9451393e-91
5.9283909e-92
7.8257453e-91
1.8842257e-90
3.4653944e-89
-1.6106287e-08
1.9122929e-19
-3.2318912e-30
2.6471045e-40
4.3152684e-50
1.1583732e-59
2.5143661e-68
-1.7761705e-76
3.7936938e-84
-3.313463e-90
-1.3662546e-96
1.8997144e-96
1.2239734e-96
1.061976e-95
5.5420437e-96
1.0382434e-95
7.156485e-96
2.4433118e-95
4.1977138e-96
5.2284101e-96
4.8735403e-95
1.6206365e-95
1.2208191e-95
7.7485945e-95
1.7880691e-94
3.8023038e-96
2.6788441e-96
9.4535448e-96
1.0544037e-95
2.776627e-96
2.2768643e-96
1.1852195e-95
4.1107318e-97
1.050545e-96
6.0347423e-97
3.4332451e-97
4.3147393e-98
6.8160935e-97
6.0820404e-96
-2.2535081e-95
-1.3331047e-08
1.31826e-19
-1.7614295e-30
9.2767349e-41
1.495628e-50
3.0547402e-60
3.6987621e-69
-2.5418875e-77
3.6277162e-85
-8.0146118e-92
-3.4466066e-98
1.8905155e-102
2.5547433e-102
-3.3028092e-101
2.7528632e-101
5.9085829e-101
1.2134527e-100
2.1628295e-101
2.3479504e-100
9.1042305e-102
1.412798e-99
4.5987555e-101
2.5409295e-100
2.9669185e-100
4.5270745e-100
1.4957341e-101
-4.6041681e-101
2.3319498e-101
-2.2914068e-101
3.9838818e-102
1.4859321e-101
2.5984108e-101
5.2109688e-103
8.7093205e-103
7.4172933e-103
8.6491961e-103
5.1016913e-104
8.6208917e-103
-2.9633909e-100
1.0147779e-101
-1.1007312e-08
9.0997717e-20
-9.749849e-31
3.526061e-41
6.1432725e-51
9.892701e-61
7.4587603e-70
-5.982571e-78
6.0807037e-86
-5.574442e-93
-2.4948303e-99
-2.5747321e-105
5.0899979e-108
-6.9713331e-107
5.7239421e-107
2.1235987e-106
1.2892667e-105
-7.9936969e-107
-7.7684733e-106
2.905606e-107
1.6691597e-103
1.2323733e-106
6.8047495e-106
-7.9387388e-106
2.3327506e-105
5.518185e-107
-2.6601243e-106
-1.8826621e-106
6.5244287e-107
-2.7963029e-107
-7.9268091e-107
5.1523577e-107
5.886111e-109
2.9912365e-108
7.1383061e-109
2.9029049e-108
1.4032143e-109
3.0997275e-108
3.6555328e-106
-2.8661658e-108
-9.0598115e-09
6.2777831e-20
-5.455581e-31
1.4167026e-41
3.0974555e-51
4.0579135e-61
2.0465729e-70
-3.0495326e-78
2.35727e-86
-1.1906491e-93
-1.0014515e-99
-1.3109019e-105
7.7681196e-111
-4.2856415e-112
-2.0949253e-112
-4.2331866e-112
-2.7663331e-111
5.6548442e-112
1.8008019e-111
-8.0094562e-113
-3.344605e-109
-3.6994536e-112
-1.2218301e-111
-5.5380219e-111
-8.6227361e-111
-6.802124e-111
6.8422897e-112
2.0191966e-112
9.9219499e-112
8.9824907e-113
7.8299523e-112
1.0623853e-112
-1.9546125e-114
-2.1808784e-112
1.364446e-114
9.2089859e-113
3.4175475e-115
2.9681877e-112
-3.0243307e-112
5.1731926e-115
-7.4337804e-09
4.3242284e-20
-3.076613e-31
5.9268266e-42
2.3616517e-51
2.5888944e-61
9.1999209e-71
2.1811589e-78
-1.3563198e-86
4.0459431e-94
4.0853231e-100
1.174356e-105
-1.2183037e-110
1.166215e-115
4.8631548e-118
2.3494734e-117
2.837182e-117
-2.3513726e-117
-5.4575281e-117
8.9994517e-119
4.9662707e-115
4.9730222e-118
1.8772949e-117
9.902441e-117
1.3210802e-116
8.6830005e-117
-7.721177e-118
-1.2355442e-117
-1.2383965e-117
-4.6930945e-118
3.0409714e-116
-1.7170408e-117
5.8794893e-120
4.875099e-118
1.5016597e-118
2.2897924e-118
8.3540356e-121
-5.2779933e-118
1.6620416e-118
-6.2198024e-122
-6.0903195e-09
2.976149e-20
-1.7469091e-31
2.5596846e-42
-3.7821942e-51
-3.5626931e-61
-9.2905353e-71
-4.2707812e-79
2.2331933e-87
-4.5206539e-95
2.6613756e-101
2.2100142e-107
-5.6047998e-113
5.6180419e-119
-5.9364883e-124
-4.6056781e-123
-3.4899179e-123
3.3507583e-123
1.232962e-122
-9.1020994e-125
-5.9940271e-121
-3.8565509e-124
-1.7203736e-123
-9.1141455e-123
-4.1557891e-122
-1.1215162e-122
1.1511502e-123
1.346481e-123
1.6161251e-123
4.7841831e-124
-3.2148765e-122
-1.4628697e-122
-9.6444861e-126
1.3774146e-123
-3.0831709e-124
1.3809159e-123
-1.8844028e-126
6.9654323e-124
-5.1372771e-125
5.8806473e-129
-4.9954687e-09
2.0509225e-20
-9.9937665e-32
1.1360531e-42
-2.1697816e-52
-1.8024262e-62
-3.5647276e-72
-7.463044e-81
3.481197e-89
-4.9293433e-97
1.1148982e-103
1.832454e-109
-3.0286557e-115
4.8930062e-121
-5.549437e-127
4.5948826e-129
2.9494501e-129
-2.0411404e-129
-1.0524113e-128
6.9485277e-131
4.6195664e-127
3.0699219e-130
1.2059537e-129
7.2297245e-129
2.856008e-128
1.1050548e-128
-1.1935565e-129
-1.1932169e-129
-1.6763817e-129
-4.8846119e-130
4.6545003e-128
2.3439409e-128
1.1601818e-131
-1.7250015e-129
-8.7113628e-129
-8.3214686e-129
3.6144996e-132
-4.2384224e-130
1.4142246e-131
-5.6134456e-136
-4.1129395e-09
1.4183642e-20
-5.7668451e-32
5.1680765e-43
-4.5122223e-53
-3.3941351e-63
-5.2346908e-73
-6.242726e-82
2.7734191e-90
-2.9225908e-98
3.1347511e-105
2.2108698e-111
-7.1435801e-117
7.1188385e-123
-5.0153072e-129
3.2852978e-136
-1.930995e-135
1.3953637e-135
6.962058e-135
-3.5730251e-137
-4.4100521e-133
-1.8815422e-136
-6.3749517e-136
-4.6655587e-135
-2.0520264e-134
-1.0410927e-134
6.7685577e-136
8.428012e-136
1.990771e-135
4.9007613e-136
-7.5882381e-134
-1.5405571e-134
-1.1117267e-137
2.3222643e-135
8.4453688e-135
1.6514388e-134
-2.5992553e-138
2.6017578e-136
-3.4682533e-138
8.3144917e-143
-3.4048929e-09
9.8600834e-21
-3.3586961e-32
2.4045539e-43
-1.2238096e-53
-8.5754167e-64
-1.0565354e-73
-8.0043999e-83
3.7023504e-91
-3.0019732e-99
1.8736199e-106
4.6073725e-112
-4.927826e-118
4.4779418e-124
-3.0551703e-130
1.6608132e-136
1.1843473e-141
-9.7254134e-142
-5.9537111e-141
1.5307055e-143
3.2131274e-139
7.9672628e-143
3.7568386e-142
2.5752137e-141
1.3962978e-140
6.081872e-141
-4.856696e-142
-4.0593818e-142
-1.1987595e-141
-3.0464309e-142
5.6216607e-140
1.3490208e-140
6.2824845e-144
-2.7813294e-141
-6.2981614e-141
-1.4368943e-140
1.4844766e-144
-1.2679347e-142
8.7596127e-145
2.1914079e-148
-2.8358878e-09
6.8950231e-21
-1.9741531e-32
1.1416068e-43
-3.7830139e-54
-2.5500604e-64
-2.563737e-74
-1.3226091e-83
7.3727915e-92
-4.7749056e-100
1.9127412e-107
5.053559e-113
-1.0581902e-118
6.4505216e-125
-2.9590739e-131
1.474442e-137
-5.8300475e-144
5.5097935e-148
3.1113814e-147
-9.6882318e-150
-1.5324565e-145
-4.3547866e-149
-2.1298377e-148
-1.1225631e-147
-1.0446772e-146
-2.4277002e-147
2.8638571e-148
2.1128456e-148
5.2352229e-148
1.4918934e-148
-2.8999277e-146
-6.5766688e-147
-2.9622845e-150
2.5862632e-147
6.4737779e-147
9.2662169e-147
-7.3375826e-151
4.9398043e-149
-2.6077403e-151
2.4193962e-155
-2.3761657e-09
4.8508089e-21
-1.1704016e-32
5.5181527e-44
-1.2701807e-54
-8.5654805e-65
-7.1652722e-75
-2.6408035e-84
2.5050528e-92
-1.3398755e-100
3.6978813e-108
-2.6078142e-114
2.4560307e-120
-1.6985667e-126
8.2982237e-133
-4.1425481e-139
1.8641435e-145
-6.894892e-152
-1.3702334e-153
3.3262426e-156
5.1957781e-152
1.6868827e-155
9.4027756e-155
5.1097973e-154
3.8547396e-153
1.036593e-153
-1.2020578e-154
-8.3351243e-155
-1.8501635e-154
-8.3153469e-155
1.422031e-152
2.4086989e-153
1.8415623e-156
-1.8783226e-153
-3.316779e-153
-6.2740586e-153
2.8918533e-157
-1.1771891e-155
1.4312287e-157
1.4736259e-162
-2.0026221e-09
3.4338131e-21
-6.9962841e-33
2.7107633e-44
-4.525793e-55
-3.2157254e-65
-2.2788024e-75
-6.2272344e-85
-3.7291434e-92
1.7126665e-100
-3.3933626e-108
1.0817244e-114
-1.3917211e-120
6.252204e-127
-2.1957715e-133
8.0811164e-140
-3.2557047e-146
1.1732375e-152
-3.9610494e-159
-1.3654706e-162
-2.1644222e-158
-5.8892309e-162
-3.7244224e-161
-2.0846713e-160
-1.2731797e-159
-3.7092783e-160
3.6470491e-161
3.3724337e-161
8.8641804e-161
3.5214226e-161
-6.1469179e-159
-1.0692346e-159
-9.4944509e-163
1.1619272e-159
2.0188782e-159
2.8327134e-159
-8.0659338e-164
3.3268985e-162
5.6408189e-163
9.9657246e-170
-1.6979902e-09
2.447233e-21
-4.2175513e-33
1.3520831e-44
-1.6894119e-55
-1.3661031e-65
-8.3409803e-76
-1.7413671e-85
-8.8232493e-94
3.5938327e-102
-5.32818e-110
9.5006835e-117
-4.7018424e-123
1.7868374e-129
-6.4969691e-136
2.6524877e-142
-7.7875861e-149
2.6871553e-155
-8.9550503e-162
3.6213275e-168
6.7682449e-165
1.8140722e-168
1.3026787e-167
5.8412763e-167
4.2503523e-166
9.7610036e-167
-1.2715446e-167
-1.3411301e-167
-2.6642268e-167
-1.4159437e-167
1.9609922e-165
4.2772223e-166
3.9711955e-169
-6.3593996e-166
-8.5245592e-166
-8.370364e-166
2.2002436e-170
-9.5811303e-169
2.2952014e-169
1.4350659e-176
-1.4492828e-09
1.7580067e-21
-2.5664245e-33
6.847858e-45
-6.5587388e-56
-6.9214969e-66
-3.701209e-76
-6.0545035e-86
-1.3439487e-94
5.0614844e-103
-5.779465e-111
6.1012153e-118
-3.585533e-124
1.1921785e-130
-3.2947137e-137
1.032725e-143
-3.5471316e-150
1.0689825e-156
-2.7255689e-163
8.1786626e-170
-2.0414208e-171
-4.315383e-175
-3.4074505e-174
-1.6564898e-173
-9.9452548e-173
-3.1464722e-173
3.4282977e-174
4.0895258e-174
8.7407329e-174
4.5614933e-174
-5.5689174e-172
-1.4499458e-172
-1.4177288e-175
2.2465733e-172
2.5974442e-172
2.7224574e-172
-4.803185e-177
2.3549645e-175
5.745813e-176
3.1765023e-183
-1.2464428e-09
1.2751706e-21
-1.5790862e-33
3.5251317e-45
-2.6379303e-56
-5.1257719e-66
-2.439629e-76
-3.1948439e-86
-4.0652662e-95
1.4818376e-103
-1.3424378e-111
8.8202891e-119
-5.7034168e-125
1.7270572e-131
-5.4098894e-138
1.3656005e-144
-3.2057902e-151
8.1881155e-158
-2.2451428e-164
5.7063492e-171
-9.2964903e-178
1.0807831e-181
8.0686037e-181
4.8226542e-180
2.3859375e-179
8.6196487e-180
-8.1214763e-181
-1.0861294e-180
-2.1507642e-180
-1.3310153e-180
1.8207676e-178
3.9781659e-179
5.4573527e-182
-8.9876327e-179
-7.2805726e-179
-6.205092e-179
9.2469901e-184
-6.2512888e-182
1.0975171e-182
6.5740105e-190
-1.081457e-09
9.3601471e-22
-9.8476329e-34
1.8479435e-45
-1.0975885e-56
1.2153497e-65
5.2336117e-76
5.5949748e-86
4.6016076e-95
-1.7229e-103
1.2825689e-111
-6.0188978e-119
2.4782606e-125
-8.7079636e-132
2.1055938e-138
-4.6890615e-145
1.1654795e-151
-2.4979635e-158
6.3424789e-165
-1.4609289e-171
3.1475534e-178
-7.4932127e-185
-1.9888071e-187
-9.8452456e-187
-5.0420261e-186
-1.7916389e-186
1.7502433e-187
2.5112183e-187
5.4862736e-187
3.6086269e-187
-4.6929041e-185
-1.0165432e-185
-1.5984664e-188
2.3620962e-185
1.8779375e-185
1.3324329e-185
-1.5328601e-190
1.4810694e-188
1.7858265e-189
1.1323324e-196
-9.4780997e-10
6.9709656e-22
-6.2433655e-34
9.8920029e-46
-4.7261597e-57
5.2647901e-67
2.0861733e-77
1.852941e-87
1.0587133e-96
-4.4450718e-105
2.8114761e-113
-9.603971e-121
2.6936958e-127
-7.4884144e-134
1.7571802e-140
-3.5602948e-147
7.5520744e-154
-1.7285626e-160
3.5257361e-167
-7.890179e-174
1.597247e-180
-3.0076653e-187
1.0129842e-193
2.0898844e-193
1.0151708e-192
4.035033e-193
-3.6530268e-194
-5.1744105e-194
-1.1891325e-193
-7.9418988e-194
1.1016019e-191
2.2624085e-192
3.436832e-195
-5.5622463e-192
-4.8616456e-192
-2.0819948e-192
2.3006354e-197
-3.9479561e-195
2.3644596e-196
1.6372473e-203
-8.4019341e-10
5.2827764e-22
-4.0386471e-34
5.4262848e-46
-2.1100328e-57
1.0879655e-67
4.0390553e-78
3.029086e-88
1.2637527e-97
-6.9312467e-106
3.7903481e-114
-1.0019045e-121
2.1098966e-128
-4.8912919e-135
9.2974759e-142
-1.8685425e-148
3.4858323e-155
-7.1902445e-162
1.3691164e-168
-2.5209202e-175
4.6154114e-182
-9.4202671e-189
1.7923916e-195
-3.8021312e-200
-1.8501693e-199
-8.0756847e-200
6.5547283e-201
1.0256379e-200
2.2790476e-200
1.4937683e-200
-2.3545762e-198
-4.7803158e-199
-8.4639197e-202
1.1107764e-198
9.525853e-199
3.2966717e-199
-3.0495056e-204
1.1240407e-201
2.9422101e-203
2.0636292e-210
-7.5429368e-10
4.0864424e-22
-2.6765255e-34
3.0634136e-46
-9.7981515e-58
3.0162095e-68
1.0701563e-78
6.8823977e-89
2.1760855e-98
-2.3296494e-106
1.1343135e-114
-2.3204671e-122
3.3418828e-129
-7.4269717e-136
1.2786863e-142
-2.4200837e-149
4.2563894e-156
-7.7099946e-163
1.2400187e-169
-2.178992e-176
3.7456187e-183
-6.1190195e-190
1.0368686e-196
-2.0198125e-203
3.2162616e-206
1.296367e-206
-1.2175457e-207
-1.748648e-207
-4.153396e-207
-2.4362257e-207
4.3533602e-205
9.7004877e-206
1.6515916e-208
-2.4513926e-205
-1.5865459e-205
-4.3703402e-206
3.7764202e-211
-2.5924509e-208
3.4514837e-210
2.5012848e-217
-6.8662972e-10
3.2368768e-22
-1.8254313e-34
1.7886092e-46
-4.7520428e-58
9.7833714e-69
3.3931123e-79
1.8994216e-89
4.6928972e-99
1.3329069e-106
-5.9687584e-115
9.838069e-123
-9.9442075e-130
2.0649844e-136
-3.5478886e-143
5.9083192e-150
-1.0120101e-156
1.7006637e-163
-2.8380963e-170
4.4045048e-177
-7.1766704e-184
1.2229488e-190
-2.003772e-197
3.0263423e-204
-4.7806659e-211
-1.9759836e-213
1.7808776e-214
2.8934988e-214
6.5743754e-214
4.2392648e-214
-7.7941536e-212
-1.6510722e-212
-2.8158247e-215
4.7598987e-212
2.3197225e-212
4.8927945e-213
-4.3953499e-218
6.3903367e-215
3.615434e-217
2.7087912e-224
-6.3441302e-10
2.633577e-22
-1.2871284e-34
1.0857287e-46
-2.4188939e-58
3.5591907e-69
1.2394811e-79
6.1292175e-90
1.2142064e-99
5.9026888e-108
-2.5118306e-116
3.439077e-124
-2.7658866e-131
5.0262975e-138
-8.0342936e-145
1.2498877e-151
-1.8093163e-158
2.7220108e-165
-4.0032893e-172
5.8448825e-179
-8.8290366e-186
1.2422526e-192
-1.9022121e-199
2.6726458e-206
-3.4787961e-213
7.9058746e-220
-2.7343806e-221
-4.5297644e-221
-9.2177679e-221
-6.3068785e-221
1.280315e-218
2.6704816e-219
4.3986972e-222
-7.6271625e-219
-3.0328523e-219
-5.1047362e-220
4.5599882e-225
-1.62412e-221
3.6560127e-224
2.7735478e-231
-5.9542359e-10
2.2070879e-22
-9.4252788e-35
6.8890279e-47
-1.2990877e-58
1.4289532e-69
5.1671408e-80
2.2906899e-90
3.7213455e-100
8.7664169e-109
-3.6795467e-117
4.2376546e-125
-2.6015164e-132
4.3160544e-139
-6.4185066e-146
8.735532e-153
-1.1566496e-159
1.5210193e-166
-2.0686163e-173
2.8790482e-180
-3.5440414e-187
5.040088e-194
-6.5196112e-201
8.6426471e-208
-1.1041468e-214
1.4723982e-221
1.7142669e-228
6.1636524e-228
1.2490415e-227
8.1910988e-228
-1.6878944e-225
-3.882181e-226
-6.8352089e-229
1.1376772e-225
3.86001e-226
4.84295e-227
-4.4067377e-232
3.7540873e-228
3.340419e-231
2.8288738e-238
-5.6788025e-10
1.9095531e-22
-7.196852e-35
4.5924263e-47
-7.3997135e-59
6.2918784e-70
2.4691216e-80
9.958813e-91
1.3539694e-100
1.9522397e-109
-8.4380878e-118
8.4361878e-126
-3.9431724e-133
5.5414525e-140
-6.9332381e-147
8.2088968e-154
-9.7117988e-161
1.2095216e-167
-1.5601286e-174
2.0632679e-181
-2.5117888e-188
3.009089e-195
-3.5476111e-202
4.4175349e-209
-5.2174526e-216
6.4752603e-223
-7.5630392e-230
-7.1308219e-235
-1.4977633e-234
-1.0575667e-234
2.1004591e-232
4.8968001e-233
9.7584768e-236
-1.4486141e-232
-4.2324767e-233
-4.1963227e-234
4.0159556e-239
-8.8247141e-235
3.4850986e-238
2.8201626e-245
-5.5031196e-10
1.7081031e-22
-5.7485537e-35
3.2305254e-47
-4.4913119e-59
3.0321601e-70
1.3752919e-80
5.1215775e-91
5.933738e-101
5.8413914e-110
-2.7802575e-118
2.4740236e-126
-1.002236e-133
1.1662252e-140
-1.4860012e-147
1.819572e-154
-2.1814129e-161
2.7120297e-168
-3.169552e-175
3.6104136e-182
-4.1803437e-189
4.7794733e-196
-5.2094914e-203
5.5433465e-210
-6.163635e-217
7.4593732e-224
-8.1642104e-231
9.3794987e-238
1.7019459e-241
1.1906124e-241
-2.355559e-239
-6.1198252e-240
-1.2663056e-242
1.605838e-239
4.393721e-240
3.3441702e-241
-3.141198e-246
1.8884268e-241
3.4996061e-245
2.8630668e-252
-5.4141393e-10
1.5801538e-22
-4.8123838e-35
2.4054134e-47
-2.9150132e-59
1.5983175e-70
9.2766163e-81
3.2368223e-91
3.2489519e-101
2.3399187e-110
-1.3442262e-118
1.096094e-126
-3.6425834e-134
3.7942621e-141
-4.6253317e-148
5.3016733e-155
-5.9502226e-162
6.7465321e-169
-7.2438933e-176
7.5929292e-183
-8.2564396e-190
9.0721006e-197
-9.5112471e-204
1.0028245e-210
-1.1364065e-217
1.2112141e-224
-1.2570663e-231
1.4256027e-238
-1.543385e-245
-1.3009829e-248
2.6433168e-246
7.2465599e-247
1.4451e-249
-1.8215456e-246
-4.0692098e-247
-2.5106321e-248
2.416627e-253
-3.6378055e-248
3.5680519e-252
2.8856345e-259
-5.398931e-10
1.5099694e-22
-4.2226198e-35
1.8981034e-47
-2.0266002e-59
9.2063244e-71
8.4165435e-81
2.7934885e-91
2.4685235e-101
1.3623062e-110
-1.1293699e-118
8.5898708e-127
-2.3883834e-134
2.3131563e-141
-2.6224346e-148
2.7773596e-155
-2.9134562e-162
3.0913672e-169
-3.0045534e-176
3.0618544e-183
-3.0461555e-190
2.9564313e-197
-3.1006269e-204
3.2235651e-211
-3.3786195e-218
3.4290043e-225
-3.4818769e-232
3.5588149e-239
-3.8010087e-246
3.8897552e-253
-2.8909215e-253
-8.6209917e-254
-1.7783042e-256
1.8532948e-253
3.4390993e-254
1.6656529e-255
-1.8111236e-260
6.9455817e-255
4.346104e-259
3.2942489e-266
-5.443046e-10
1.4859879e-22
-3.8751381e-35
1.5854296e-47
-1.5082353e-59
5.7800953e-71
1.8627551e-80
5.9792299e-91
4.7262283e-101
2.0775858e-110
-4.2058108e-118
3.0674065e-126
-7.5400733e-134
5.8937861e-141
-5.9191334e-148
5.4668445e-155
-5.3295628e-162
4.9822423e-169
-4.6079073e-176
4.2354777e-183
-3.8157956e-190
3.4264801e-197
-3.1037304e-204
2.6215433e-211
-2.4106171e-218
2.2892667e-225
-2.0623854e-232
1.9051955e-239
-1.8043521e-246
1.7421276e-253
1.1735389e-260
9.3197762e-261
1.7539059e-263
-1.8191783e-260
-2.8337467e-261
-1.1355563e-262
1.367312e-267
-1.0933687e-261
6.0194794e-266
4.2676978e-273
-5.5291768e-10
1.4985851e-22
-3.7022182e-35
1.3962352e-47
-1.1973564e-59
3.9363639e-71
-6.2061434e-81
-1.9643541e-91
-1.4133525e-101
-5.1118455e-111
-1.2893112e-118
9.3193881e-127
-1.9551046e-134
1.1890368e-141
-9.7687859e-149
7.7419321e-156
-5.5520899e-163
4.206864e-170
-3.3139974e-177
2.3877628e-184
-1.7580629e-191
1.2814659e-198
-9.4577888e-206
7.0124233e-213
-5.4935349e-220
4.1266272e-227
-3.1003001e-234
2.3823587e-241
-1.861811e-248
1.6195739e-255
-1.3799501e-262
-8.7543844e-268
-1.7321845e-270
1.689142e-267
2.1969119e-268
7.3151806e-270
-9.4716595e-275
1.5677294e-268
8.5786143e-273
5.8432148e-280
-5.6367531e-10
1.5381581e-22
-3.6562538e-35
1.2877349e-47
-1.0074145e-59
2.8857538e-71
-1.6540869e-81
-5.2857364e-92
-3.5276974e-102
-1.0809482e-111
-7.3527085e-120
5.4322746e-128
-9.8837739e-136
4.7850294e-143
-2.9758824e-150
1.8986861e-157
-1.1400747e-164
6.6364589e-172
-3.8096619e-179
2.2480432e-186
-1.3551368e-193
7.8737705e-201
-4.632213e-208
2.7563391e-215
-1.6339016e-222
9.5209642e-230
-6.0173793e-237
3.8340352e-244
-2.4919005e-251
1.7151238e-258
-1.2076068e-265
8.9559063e-273
1.422962e-277
-1.3081745e-274
-1.5476653e-275
-4.3155641e-277
6.230052e-282
-1.8746615e-275
1.2330642e-279
8.2020243e-287
-5.7432054e-10
1.5937201e-22
-3.6989246e-35
1.2324561e-47
-8.9003262e-60
2.2540487e-71
-7.4703674e-82
-2.4784579e-92
-1.5643529e-102
-4.1670001e-112
-1.5419943e-120
1.2160887e-128
-1.9835042e-136
7.7998562e-144
-3.9225648e-151
1.990977e-158
-9.8661758e-166
4.7239889e-173
-2.2991645e-180
1.107539e-187
-5.3633692e-195
2.5928369e-202
-1.2303786e-209
5.8125514e-217
-2.8516809e-224
1.3812312e-231
-6.705259e-239
3.4249015e-246
-1.7789043e-253
9.3486158e-261
-5.3446309e-268
3.2016648e-275
-2.1609942e-282
8.6955371e-282
9.0997645e-283
2.2584971e-284
-3.9520007e-289
2.1058114e-282
1.7783694e-286
1.12392e-293
-5.8271919e-10
1.6525058e-22
-3.7944664e-35
1.2109631e-47
-8.1646906e-60
1.8529455e-71
-4.179487e-82
-1.484397e-92
-9.0090178e-103
-2.1265765e-112
-5.1873884e-121
4.6261296e-129
-6.9340363e-137
2.2830474e-144
-9.9797802e-152
4.4582984e-159
-2.0197989e-166
9.0677037e-174
-4.0369648e-181
1.8019612e-188
-8.0304949e-196
3.6023233e-203
-1.5978347e-210
7.2501018e-218
-3.1609985e-225
1.4194937e-232
-6.2073816e-240
2.8322409e-247
-1.2937034e-254
5.8850006e-262
-2.8243024e-269
1.3661986e-276
-6.0682668e-284
-4.6252079e-289
-4.4587093e-290
-1.0068091e-291
2.674275e-296
-2.5068809e-289
2.1149954e-293
1.403482e-300
-5.8730381e-10
1.7011357e-22
-3.9070139e-35
1.2080615e-47
-7.6845395e-60
1.5821658e-71
-2.6579937e-82
-1.039995e-92
-6.1287143e-103
-1.2952121e-112
-2.2716233e-121
2.5542451e-129
-3.7441072e-137
1.202229e-144
-5.519914e-152
2.6436954e-159
-1.3005007e-166
6.5601455e-174
-3.2961642e-181
1.6525734e-188
-8.3998866e-196
4.2424369e-203
-2.1223653e-210
1.0601655e-217
-5.2252532e-225
2.5704853e-232
-1.2260875e-239
6.905956e-247
1.7200823e-253
2.229817e-258
-1.2186446e-264
3.9311203e-271
-7.7940619e-278
1.1924348e-284
-1.2452971e-291
1.3849721e-298
-2.5368708e-303
3.7902959e-296
2.0024441e-300
1.4800242e-307
-5.8743467e-10
1.728282e-22
-4.0020336e-35
1.2112914e-47
-7.3381359e-60
1.3858878e-71
-1.8432285e-82
-8.1079375e-93
-4.6360441e-103
-8.7757971e-113
-1.1602034e-121
2.03249e-129
-3.1556821e-137
1.1488882e-144
-7.389118e-152
5.2332707e-159
-3.7860361e-166
2.7945704e-173
-2.2266794e-180
1.7524365e-187
-1.2813118e-194
2.7285283e-202
4.4918966e-208
-2.0964779e-214
6.6638244e-221
-2.0192558e-227
4.8811867e-234
-1.0062318e-240
1.566711e-247
-2.0373507e-254
2.0346673e-261
-1.6756207e-268
1.0553975e-275
-5.1378753e-283
2.0596659e-290
-8.7619878e-298
7.3498878e-305
-6.7845484e-303
1.6098279e-307
-1.4186497e-315
-5.8348651e-10
1.7277204e-22
-4.0506875e-35
1.2108032e-47
-7.0453151e-60
1.2326388e-71
-1.3576141e-82
-6.7628831e-93
-3.7166029e-103
-6.2680526e-113
-6.4509428e-122
4.0796105e-129
-7.3417006e-137
3.9353195e-144
-7.2903572e-151
2.453661e-157
-9.551754e-164
6.3897239e-170
-3.6852436e-176
2.1801717e-182
-1.5881993e-188
1.0784144e-194
-6.6216414e-201
2.7818622e-207
-9.0974125e-214
2.7967504e-220
-7.027958e-227
1.5492868e-233
-2.5751038e-240
3.4647811e-247
-3.7105056e-254
3.1902196e-261
-2.1861644e-268
1.1605856e-275
-5.2082672e-283
2.2838344e-290
-1.4308177e-297
2.5158527e-304
1.9334384e-311
-1.0475814e-312
-5.7661881e-10
1.7000159e-22
-4.0345311e-35
1.1996539e-47
-6.7579548e-60
1.1052691e-71
-1.0416583e-82
-5.8924281e-93
-3.0845692e-103
-4.6327401e-113
-3.820893e-122
-1.1948053e-129
2.63873e-137
-3.2393274e-144
-5.9090147e-151
-6.9605536e-158
-7.974003e-165
-9.2646061e-172
-1.0976368e-178
-1.1968542e-185
-1.4496702e-192
-1.7266839e-199
-2.2393826e-206
-2.3981123e-213