/*--------------------------------*- C++ -*----------------------------------*\
  =========                 |
  \\      /  F ield         | OpenFOAM: The Open Source CFD Toolbox
   \\    /   O peration     | Website:  https://openfoam.org
    \\  /    A nd           | Version:  10
     \\/     M anipulation  |
\*---------------------------------------------------------------------------*/
FoamFile
{
    format      ascii;
    class       volScalarField;
    location    "0.12";
    object      TporMedia;
}
// * * * * * * * * * * * * * * * * * * * * * * * * * * * * * * * * * * * * * //

dimensions      [0 0 0 1 0 0 0];

internalField   nonuniform List<scalar> 
4000
(
-1.36122e-05
6.5653352e-06
0.00043039601
0.00033160447
0.00021536512
0.00024463099
0.00027633413
0.00026192618
0.00026967826
0.00028475002
0.00027137845
0.00027228877
0.00033107472
0.00029187342
0.00026280247
0.00032921789
0.00040106748
0.00030022476
0.00028126133
0.00026400685
0.00026798116
0.00028874335
0.00036364528
0.00030368398
0.00032267914
0.00030787317
0.00033218802
0.00028600529
0.00028901669
0.00030205844
0.0002420571
0.00028746975
0.00030577089
0.00024692582
0.00029673683
0.00026048593
0.00024448985
0.00028448342
0.00025411
0.0002263728
-1.1693895e-06
2.2765145e-14
4.5646009e-12
-3.0308994e-10
1.9865733e-10
1.4808594e-10
1.838104e-10
1.3196551e-10
1.2004264e-10
1.3983265e-10
1.1223819e-10
1.7246897e-10
1.8646081e-10
1.1045524e-10
1.5196006e-10
1.8982378e-10
1.8596884e-10
1.738117e-10
1.716356e-10
1.8294662e-10
2.204868e-10
1.9112276e-10
2.024297e-10
1.3206707e-10
2.1927724e-10
1.3759184e-10
2.2925326e-10
1.6065523e-10
2.2019385e-10
1.8269331e-10
1.1523616e-10
1.364698e-10
1.6261632e-10
1.3600751e-10
1.4610713e-10
1.4162315e-10
1.4626233e-10
1.153664e-10
1.0637467e-10
1.105161e-10
-4.7656201e-07
-7.0909156e-15
1.4067789e-20
-1.1511134e-17
-4.17361e-17
9.830342e-17
7.4258452e-17
5.6634471e-17
4.2057907e-17
8.0367016e-17
5.3309369e-17
7.8566992e-17
9.7683341e-17
1.0386283e-16
7.4985244e-17
1.2099007e-16
1.0241095e-16
1.0934787e-16
7.6784814e-17
7.8951206e-17
1.0809966e-16
1.6765758e-16
1.0406245e-16
8.0854547e-17
1.275637e-16
6.5518233e-17
1.2293223e-16
8.027362e-17
8.6569063e-17
8.9072034e-17
5.374634e-17
7.132472e-17
8.4287826e-17
8.0569877e-17
6.5955166e-17
6.1001445e-17
5.8611738e-17
5.1416459e-17
4.6272935e-17
5.2649268e-17
-2.585344e-07
3.9016566e-16
6.3302512e-25
-8.2435855e-26
4.124857e-24
-4.7824888e-23
4.3528678e-23
2.5610083e-23
2.1153875e-23
3.7777725e-23
2.4497479e-23
4.6785808e-23
4.5127049e-23
5.4304376e-23
3.1329556e-23
5.9506636e-23
5.0125403e-23
5.1214201e-23
3.4293294e-23
4.2876703e-23
6.0707448e-23
1.1346164e-22
5.5537154e-23
3.9082368e-23
7.6333798e-23
4.013197e-23
8.7242897e-23
4.0649075e-23
4.877893e-23
5.9049615e-23
2.9898318e-23
2.9955772e-23
4.7770252e-23
3.9911535e-23
3.1916157e-23
2.3921365e-23
2.9230275e-23
2.359644e-23
2.3363869e-23
2.2526979e-23
-1.6457419e-07
7.7609513e-17
9.7328066e-26
3.8484334e-35
1.3001949e-30
4.6033248e-30
3.2441288e-29
1.0252066e-29
7.586086e-30
1.6497108e-29
1.4367469e-29
2.7380275e-29
2.4976524e-29
3.3777532e-29
1.6474314e-29
2.8058293e-29
5.1411478e-29
3.7469662e-29
1.8964893e-29
1.8187703e-29
3.6124793e-29
7.7052049e-29
3.4933432e-29
2.2108629e-29
4.2016986e-29
2.0323095e-29
5.0861414e-29
1.7717377e-29
3.4015211e-29
2.7735254e-29
1.3527144e-29
2.3910079e-29
1.8807234e-29
1.8206207e-29
1.7812891e-29
1.0212541e-29
1.5142016e-29
9.9383072e-30
1.0085567e-29
1.0149186e-29
-1.1612358e-07
2.6444674e-17
4.1006035e-26
5.2690764e-35
1.8243794e-38
-2.0420187e-37
-2.1163992e-35
4.8644831e-36
3.1148441e-36
6.5469497e-36
8.0700603e-36
1.3685466e-35
1.076857e-35
1.475345e-35
1.0126317e-35
1.4313533e-35
4.7316579e-35
1.902464e-35
1.1577994e-35
9.55049e-36
1.7061094e-35
6.1816379e-35
1.6933227e-35
1.1690667e-35
2.3514145e-35
1.1447696e-35
3.313054e-35
8.5670381e-36
1.4989675e-35
1.3970012e-35
1.1130189e-35
1.203127e-35
1.0536633e-35
9.5986276e-36
7.2912003e-36
5.3812278e-36
5.6862658e-36
5.7934772e-36
5.0178262e-36
4.8870239e-36
-8.8090783e-08
1.1752956e-17
-2.1340539e-25
-1.6859203e-34
-7.1838669e-43
6.2893573e-45
2.3113005e-42
2.0094371e-42
1.595726e-42
2.8469091e-42
3.7095936e-42
9.6415142e-42
5.5446342e-42
9.4128633e-42
5.6908511e-42
1.0107544e-41
4.2093403e-41
9.5541842e-42
6.9508e-42
4.6680025e-42
7.5080026e-42
5.7674141e-41
1.0549461e-41
1.2961691e-41
1.3298422e-41
7.4087779e-42
2.8005156e-41
4.9293414e-42
8.6546594e-42
7.6488638e-42
6.4372688e-42
7.6305846e-42
5.0608047e-42
7.6125697e-42
2.9119297e-42
2.6308945e-42
2.6167421e-42
4.0627638e-42
2.0491564e-42
2.796461e-42
-7.0344809e-08
6.1562163e-18
-4.1415651e-27
-2.355639e-36
-4.4596757e-45
-7.6642547e-53
-1.0579376e-49
4.6135426e-48
6.9030365e-49
1.7370126e-48
2.5526495e-48
5.6629048e-48
4.0842611e-48
5.5169708e-48
3.7368609e-48
7.0028305e-48
2.1540841e-47
7.0262699e-48
4.9384118e-48
3.4720908e-48
4.3938108e-48
3.1799556e-47
5.8892505e-48
9.7785941e-48
6.3430368e-48
6.6080625e-48
1.7996873e-47
2.7727076e-48
4.2166216e-48
4.8557388e-48
4.8650179e-48
5.0276568e-48
2.8493765e-48
4.077662e-48
1.6239826e-48
1.3018069e-48
1.5113772e-48
2.112366e-48
1.3834781e-48
1.3547275e-48
-5.8126506e-08
3.5927196e-18
-9.4500895e-28
-4.4400802e-37
-4.5682637e-46
-1.7080602e-53
2.6070609e-57
-1.2783588e-54
2.9547461e-55
8.6787369e-55
1.7863412e-54
3.109227e-54
2.3874225e-54
3.6864506e-54
2.4635201e-54
3.7304386e-54
1.5428607e-53
6.6250712e-54
3.7701958e-54
2.4126253e-54
3.8609152e-54
2.2106225e-53
3.7123391e-54
6.5833839e-54
4.9508005e-54
4.5591357e-54
1.1425523e-53
2.3147595e-54
2.239524e-54
4.5930946e-54
2.8300142e-54
2.369791e-54
1.4419768e-54
2.7734158e-54
1.0732273e-54
6.944232e-55
1.0425532e-54
1.2747556e-54
6.6727319e-55
7.5438804e-55
-4.8947451e-08
2.2484731e-18
-3.1531578e-28
-1.4105395e-37
-9.0054209e-47
-6.2591294e-55
1.0482212e-62
1.1413376e-61
1.2995053e-61
3.1650662e-61
1.327231e-60
1.7504162e-60
1.3289186e-60
3.418047e-60
1.4512751e-60
2.3576707e-60
1.2418536e-59
6.7593961e-60
2.4632385e-60
2.6118319e-60
2.3899769e-60
1.6442514e-59
2.881997e-60
3.5511891e-60
3.1376419e-60
4.2698656e-60
7.2367727e-60
1.6301435e-60
1.5901862e-60
3.9652411e-60
1.5886089e-60
1.6715786e-60
7.9422278e-61
1.33909e-60
5.643815e-61
9.4238414e-61
5.6656285e-61
8.4026437e-61
3.6826616e-61
5.1411018e-61
-4.1480618e-08
1.4676768e-18
-1.2659059e-28
-6.572856e-38
-2.8716703e-47
-8.0768448e-56
1.0894676e-63
-4.7919193e-69
1.3008117e-67
1.2469777e-67
7.7312879e-67
1.28373e-66
9.8467342e-67
2.8565259e-66
1.0842968e-66
1.3937725e-66
1.0461919e-65
4.8093204e-66
2.4902782e-66
1.4294733e-66
1.9316707e-66
9.6425053e-66
1.7320672e-66
2.6618925e-66
1.7523592e-66
2.5788124e-66
7.3755021e-66
1.3037856e-66
1.2728622e-66
3.0617864e-66
1.3129335e-66
9.8121134e-67
5.8181833e-67
1.1480588e-66
3.6331458e-67
5.3988646e-67
4.0109657e-67
5.3647102e-67
1.8216832e-67
5.2957024e-67
-3.5085296e-08
9.8085964e-19
-5.6633495e-29
-5.4155883e-38
-1.746585e-47
-2.5354007e-56
3.6073095e-64
-8.5476911e-72
-1.3749418e-73
4.6177188e-74
4.2081832e-73
8.1297364e-73
6.216858e-73
1.9574376e-72
8.1795994e-73
1.0377001e-72
6.8914823e-72
4.1544712e-72
2.8690166e-72
7.5837608e-73
1.8450242e-72
7.7027704e-72
2.3190881e-72
3.4640534e-72
1.1518064e-72
2.3672396e-72
4.7292968e-72
1.3121101e-72
7.5020611e-73
1.6908697e-72
1.056416e-72
7.7706875e-73
4.3067272e-73
8.3776392e-73
1.794848e-73
3.2798069e-73
2.2014978e-73
3.2798389e-73
1.8717522e-73
7.0869655e-73
-2.9506384e-08
6.6378009e-19
-2.7145246e-29
4.7765052e-38
1.211301e-47
1.042067e-56
-3.0537426e-64
4.6864927e-72
-6.4807858e-79
1.8596192e-80
2.6599413e-79
5.0868535e-79
3.8799833e-79
1.7667953e-78
6.057765e-79
7.8611267e-79
6.0819011e-78
3.3940491e-78
2.2156084e-78
1.6879782e-78
1.7958802e-78
5.1777868e-78
1.4369504e-78
3.6953063e-78
9.7820328e-79
2.7675281e-78
4.3502827e-78
1.0129051e-78
6.5348283e-79
1.605605e-78
9.5952328e-79
4.3641797e-79
2.14119e-79
7.4615264e-79
1.1764038e-79
1.5977855e-79
1.1047812e-79
2.2804791e-79
1.3950951e-79
1.468677e-78
-2.4668548e-08
4.5246417e-19
-1.3641571e-29
4.417498e-39
9.316431e-49
5.1986061e-58
1.0607544e-65
-1.1659254e-73
7.6510216e-81
9.3436025e-87
1.1645424e-85
3.7510586e-85
5.1138421e-85
1.6631523e-84
5.201109e-85
1.3632379e-84
5.0553542e-84
3.9650322e-84
2.4190316e-84
1.3349293e-84
1.492486e-84
7.5618489e-84
1.7047778e-84
3.1562191e-84
8.0122855e-85
2.6135949e-84
8.4483796e-84
6.5399818e-85
4.5277171e-85
1.024253e-84
1.5774606e-84
2.9777417e-85
1.7968393e-85
6.7168117e-85
7.1356871e-86
8.0806308e-86
6.884702e-86
1.7548687e-85
1.5799409e-85
-9.533154e-84
-2.0535782e-08
3.1006103e-19
-7.1000025e-30
1.0594284e-39
1.9591407e-49
7.5736527e-59
3.7793125e-67
-3.2503633e-75
1.2135636e-82
7.1097193e-89
6.6986455e-92
3.1513558e-91
8.1759555e-91
1.2793376e-90
4.6105867e-91
1.8602466e-90
8.6604188e-90
5.0750829e-90
4.0164312e-90
1.2151956e-90
3.1119714e-90
1.6669414e-89
1.9169106e-90
2.7534225e-90
7.8107948e-91
8.7777188e-90
1.6406725e-89
5.4051639e-91
3.5806591e-91
1.1462061e-90
1.3067299e-90
2.6278883e-91
1.2525273e-91
5.2383245e-91
5.8165321e-92
5.5872116e-92
6.6859388e-92
1.3588617e-91
2.5307508e-91
2.0497365e-89
-1.7051275e-08
2.1342292e-19
-3.7969073e-30
3.2693301e-40
5.6060335e-50
1.5808592e-59
3.6003002e-68
-2.6749954e-76
5.9751721e-84
-6.699043e-90
-2.62427e-96
3.5641264e-97
7.247545e-97
1.2442161e-96
7.8120209e-97
1.9815094e-96
1.2478219e-95
9.2564216e-96
5.1631273e-96
1.9830972e-96
1.1001832e-95
1.5039143e-95
2.6108479e-96
7.0184934e-96
7.1138446e-97
1.2919864e-95
2.2786013e-95
1.146942e-96
8.9722005e-97
1.5706574e-96
1.4954743e-96
8.1952473e-97
1.0091635e-97
3.3222051e-97
6.5100465e-98
4.2817999e-98
5.4077651e-98
8.5497271e-98
9.9004156e-97
-1.7169474e-95
-1.4134596e-08
1.4743282e-19
-2.07432e-30
1.1488659e-40
1.9493397e-50
4.1842646e-60
5.3227148e-69
-3.8447808e-77
5.8200655e-85
-1.4176963e-91
-6.7159876e-98
2.7736992e-103
1.4323513e-102
2.4401972e-102
7.3371451e-103
5.5959224e-102
2.0930912e-101
9.6638948e-102
1.5917663e-101
2.6182971e-102
2.2812737e-101
-5.0794157e-101
-2.033054e-101
1.0853255e-101
-4.3492814e-102
2.2415167e-101
2.9709023e-101
2.0475988e-102
1.4910339e-101
1.7675592e-102
4.300364e-102
8.5192189e-103
1.2254502e-103
2.7618275e-103
6.6671248e-104
3.0285805e-104
4.7666329e-104
1.1587337e-103
2.7531896e-101
1.221812e-101
-1.1693701e-08
1.0203838e-19
-1.1515669e-30
4.3806941e-41
8.0381313e-51
1.360708e-60
1.0772156e-69
-9.0606488e-78
9.670559e-86
-9.67487e-93
-5.631872e-99
-3.3783983e-105
6.1371793e-108
7.765729e-108
9.3226284e-109
2.5341512e-107
2.3378576e-104
2.9872191e-107
4.4165431e-107
3.5339175e-107
-1.0937936e-106
-1.1695079e-105
-1.666408e-106
-5.1998992e-106
-5.7469867e-107
6.4789354e-107
-9.9512052e-107
3.4858709e-108
7.1666048e-107
4.3929606e-108
1.3082341e-107
1.075058e-108
1.3354245e-109
2.7729751e-109
1.6816036e-109
4.2361826e-110
7.1563533e-110
2.6922999e-109
-4.5421927e-106
-3.9082416e-108
-9.6478525e-09
7.061995e-20
-6.4666726e-31
1.7667984e-41
4.0729161e-51
5.6098125e-61
2.9710776e-70
-4.6368345e-78
3.7631431e-86
-1.990624e-93
-1.2140438e-99
-1.268599e-105
5.7020101e-111
1.9990978e-113
1.464002e-113
-4.8684134e-112
-1.036568e-109
-1.9552171e-112
1.2967645e-112
-8.1709594e-113
2.0235985e-111
2.1940403e-111
9.3898394e-112
-1.3878947e-111
9.1367104e-113
-2.350813e-111
-1.1950799e-111
1.8342016e-113
1.1830169e-111
2.7104102e-113
1.9927499e-113
1.7615029e-114
2.8447146e-115
3.4828114e-115
1.0384343e-114
5.3107789e-116
9.6818768e-116
-1.3745837e-114
4.8652905e-112
8.2782219e-115
-7.936659e-09
4.8816763e-20
-3.661227e-31
7.4224645e-42
3.1321058e-51
3.6109031e-61
1.3477641e-70
3.3295564e-78
-2.1712008e-86
6.9912094e-94
1.5028706e-99
1.6083809e-105
-1.2061824e-110
3.500472e-116
-6.8693702e-119
-8.8292337e-117
-5.0262692e-115
4.4147408e-117
-1.9011973e-118
2.0671538e-118
-7.3497582e-117
-3.2022864e-117
-2.1119552e-117
1.8334392e-117
-2.0740283e-118
2.4556758e-116
7.9211749e-117
2.611087e-118
-1.6082083e-117
4.6868995e-119
-8.3994448e-119
2.2532004e-119
2.0395041e-120
-1.8485228e-120
2.6960264e-120
1.3043019e-121
1.3249478e-121
-1.2315169e-119
-2.7551704e-118
-1.1200082e-121
-6.517949e-09
3.3717656e-20
-2.087209e-31
3.2191653e-42
-4.8373137e-51
-4.7927332e-61
-1.3126298e-70
-6.3276482e-79
3.4774243e-87
-7.3800393e-95
7.7896435e-101
6.0410809e-107
-1.7566665e-112
3.205988e-118
-6.2398237e-124
9.4077585e-123
2.1592504e-120
-5.5229833e-123
4.8749936e-124
-2.7299507e-124
1.1217428e-122
3.533563e-123
2.2609929e-123
-2.4019867e-123
4.1137058e-124
-8.630343e-122
-1.8743383e-122
-5.1287224e-124
3.1157961e-123
-3.8255996e-125
-2.4029949e-123
-4.4381416e-125
-1.4590676e-125
-1.6671305e-125
-2.9869163e-125
-2.1872675e-127
4.6955137e-127
2.3397576e-125
1.3449033e-124
1.1008316e-128
-5.3561368e-09
2.3309015e-20
-1.1984892e-31
1.4344025e-42
-2.8643787e-52
-2.503393e-62
-5.1998806e-72
-1.1409665e-80
5.5935271e-89
-8.3907112e-97
2.1711186e-103
2.1751159e-109
-2.7483348e-115
3.5662743e-121
-2.6802106e-127
-1.6619008e-128
-3.1028881e-126
4.9256635e-129
-6.4008602e-130
2.1192751e-130
-3.1394424e-128
-2.8523779e-129
-1.5844361e-129
2.1158738e-129
-3.6974598e-130
1.0518898e-127
2.1095925e-128
5.7205437e-130
-5.0590643e-129
3.3027301e-131
3.9106091e-129
7.0213394e-131
3.4183047e-131
6.2411676e-131
1.0186538e-130
-2.9664389e-131
-2.378052e-132
-2.4308875e-131
-3.5992901e-131
-1.0275239e-135
-4.4151462e-09
1.6161888e-20
-6.9381829e-32
6.54827e-43
-5.992786e-53
-4.7442281e-63
-7.685456e-73
-9.604596e-82
4.4699338e-90
-4.9272388e-98
5.6672255e-105
5.9280554e-111
9.8850715e-116
-8.0681471e-122
7.744595e-128
-8.2581835e-134
2.7110641e-132
-3.5554981e-135
6.1707196e-136
-1.229821e-136
2.9427205e-134
1.6516422e-135
1.188528e-135
-1.9093668e-135
2.2338891e-136
-1.5056314e-133
-1.6044413e-134
-4.7074794e-136
4.8326765e-135
-4.0022868e-137
-3.9214908e-135
-7.5752121e-137
-3.4888939e-137
-1.3717061e-136
-4.1535028e-136
3.5000059e-137
5.3927757e-138
1.4469261e-137
8.5843371e-138
1.2857682e-142
-3.6572446e-09
1.1258363e-20
-4.0521539e-32
3.0561339e-43
-1.6320021e-53
-1.2040045e-63
-1.5580679e-73
-1.2372102e-82
6.0063562e-91
-5.0949897e-99
3.3486817e-106
4.6392298e-112
-5.7000165e-118
5.3603528e-124
-3.4770702e-130
2.1610057e-136
-2.2074295e-138
2.8775295e-141
-3.0709101e-142
8.3948604e-143
-1.8764016e-140
-1.2649134e-141
-1.035829e-141
8.6030756e-142
-1.0598087e-142
1.1340102e-139
9.338458e-141
2.5785147e-142
-4.4516899e-141
4.5061754e-143
3.2055083e-141
1.0528901e-142
2.4900589e-143
1.2784143e-142
7.1682567e-142
-2.0907697e-143
-2.5871139e-144
-6.0192792e-144
-1.9899892e-144
-2.507391e-148
-3.0464339e-09
7.8851591e-21
-2.3874468e-32
1.4549517e-43
-5.0612303e-54
-3.5941971e-64
-3.7957608e-74
-2.0521193e-83
1.2006215e-91
-8.1156092e-100
3.430576e-107
2.3661508e-112
-6.8212395e-118
3.9541675e-124
-2.0387708e-130
1.1189587e-136
-6.377904e-143
-1.2763129e-147
1.5108002e-148
-3.987417e-149
9.3582007e-147
5.578458e-148
6.9507159e-148
-5.0885551e-148
5.2668447e-149
-7.2858388e-146
-6.1770834e-147
-2.3365661e-148
1.7889534e-147
-2.8980217e-149
-1.7271472e-147
-7.0907795e-149
-2.0278428e-149
-1.4995137e-148
-9.0595828e-148
1.8596249e-149
1.2379764e-150
1.9854893e-150
6.7197994e-151
-3.2464946e-155
-2.5519326e-09
5.5536451e-21
-1.4183086e-32
7.0498756e-44
-1.7041352e-54
-1.2116865e-64
-1.0646635e-74
-4.1117229e-84
4.1062118e-92
-2.3051499e-100
6.6770934e-108
-5.2557059e-114
4.1133324e-120
-2.1618039e-126
1.0734845e-132
-6.3735714e-139
2.9553088e-145
-1.2895875e-151
-7.1676538e-155
1.8078679e-155
-4.320179e-153
-2.484477e-154
-3.137095e-154
2.1902053e-154
-2.4913687e-155
3.6451816e-152
2.7629529e-153
1.0723936e-154
-8.6620876e-154
1.6653926e-155
9.3459741e-154
5.5827301e-155
1.5257018e-155
9.0426632e-155
6.0531168e-154
-7.8692539e-156
-4.3138352e-157
-6.7706632e-157
-2.2725001e-157
-2.1756438e-162
-2.149489e-09
3.9339975e-21
-8.4921543e-33
3.4704681e-44
-6.0864537e-55
-4.5655571e-65
-3.398109e-75
-9.7280935e-85
-5.9924968e-92
2.8758691e-100
-6.0213727e-108
1.7136767e-114
-1.3802531e-120
1.0339402e-126
-4.6084306e-133
2.1942446e-139
-7.646387e-146
2.964433e-152
-1.0842129e-158
-8.1252577e-162
1.4638125e-159
1.1999364e-160
1.2671441e-160
-8.0021436e-161
1.1548265e-161
-1.4396105e-158
-9.8497816e-160
-4.1802099e-161
4.198597e-160
-5.8301358e-162
-4.9744834e-160
-2.689701e-161
-1.0816521e-161
-4.6644557e-161
-4.3226033e-160
2.8059075e-162
1.6563858e-163
1.782326e-163
3.1577585e-163
-9.4657106e-170
-1.8207884e-09
2.8041143e-21
-5.1251988e-33
1.7338567e-44
-2.2762795e-55
-1.9478774e-65
-1.2490877e-75
-2.7313849e-85
-1.4392989e-93
6.1252601e-102
-9.4796956e-110
1.7124503e-116
-2.4922008e-122
1.1964667e-128
-3.9377168e-135
1.358133e-141
-5.5828023e-148
2.1622804e-154
-7.3735662e-161
3.1356016e-167
-4.796716e-166
-4.7462491e-167
-4.5073946e-167
2.6221357e-167
-3.6202107e-168
5.0225068e-165
3.7140719e-166
1.4526425e-167
-1.6596277e-166
1.9237441e-168
1.9034806e-166
1.5813767e-167
4.9277444e-168
2.9587924e-167
1.7905012e-166
-1.3497255e-168
-4.5130184e-170
-5.0491872e-170
1.1444945e-169
8.7819243e-178
-1.5519736e-09
2.0133351e-21
-3.1202257e-33
8.7900736e-45
-8.84741e-56
-9.929676e-66
-5.5764558e-76
-9.5497486e-86
-2.2114836e-94
8.6880748e-103
-1.0406162e-110
1.1334307e-117
-5.7908005e-124
3.1711175e-130
-1.2391427e-136
3.9649862e-143
-1.3972663e-149
5.3315104e-156
-1.7052172e-162
4.3139079e-169
1.412247e-172
1.2200505e-173
1.4864729e-173
-7.1707865e-174
1.256848e-174
-1.6177488e-171
-1.1683528e-172
-4.52912e-174
5.3250983e-173
-8.1071517e-175
-7.1025722e-173
-5.3633245e-174
-1.8199769e-174
-1.6313139e-173
-8.872235e-173
3.7041333e-175
1.0371547e-176
1.4617118e-176
2.9051497e-176
1.3734646e-183
-1.3323218e-09
1.45846e-21
-1.9190999e-33
4.5255031e-45
-3.5594151e-56
-7.4821705e-66
-3.7397225e-76
-5.1255444e-86
-6.795642e-95
2.5855862e-103
-2.4360739e-111
1.7064364e-118
-9.6413137e-125
4.017699e-131
-1.3145334e-137
4.0111447e-144
-1.3911027e-150
4.0592017e-157
-1.0927832e-163
2.7083012e-170
-7.7638861e-177
-3.5366157e-180
-3.682508e-180
1.9253956e-180
-3.3723199e-181
4.6541113e-178
3.2481116e-179
1.0579321e-180
-1.7304632e-179
2.0865881e-181
2.1401069e-179
2.0942993e-180
7.5156212e-181
6.731766e-180
3.102734e-179
-8.8339291e-182
-2.0421419e-183
-4.3939115e-183
5.7094639e-183
3.3718124e-190
-1.1532683e-09
1.0681511e-21
-1.1950556e-33
2.3699985e-45
-1.4796532e-56
1.4210667e-65
6.4260121e-76
7.1856361e-86
6.1592445e-95
-2.4003603e-103
1.8745218e-111
-9.5073812e-119
4.3216484e-125
-1.4642883e-131
3.5385293e-138
-9.6269719e-145
2.4905106e-151
-6.2040492e-158
1.4942759e-164
-3.8144753e-171
8.5153121e-178
-2.1122924e-184
9.4768221e-187
-4.9378317e-187
7.2458904e-188
-1.1729615e-184
-8.3193501e-186
-3.0215525e-187
3.990415e-186
-6.1836842e-188
-5.422275e-186
-5.3325341e-187
-2.2447181e-187
-2.3851202e-186
-8.9043703e-186
2.1492797e-188
3.2526285e-190
1.1208204e-189
8.8856172e-190
5.7192869e-197
-1.0078474e-09
7.9287232e-22
-7.5557087e-34
1.2656275e-45
-6.3561549e-57
7.2394705e-67
3.0119686e-77
2.7961177e-87
1.6640837e-96
-7.2742672e-105
4.750537e-113
-1.7310089e-120
5.3944013e-127
-1.2949781e-133
3.2797469e-140
-6.6616165e-147
1.6085763e-153
-3.6534265e-160
8.4360127e-167
-1.8156169e-173
4.3623142e-180
-1.0303974e-186
1.9199113e-194
1.1033511e-193
-1.5178772e-194
2.8182695e-191
1.7499668e-192
6.7170254e-194
-8.4096617e-193
1.4330301e-194
1.2382939e-192
1.2952293e-193
5.2485858e-194
7.6672238e-193
2.0320852e-192
-3.7926489e-195
-5.21532e-197
-3.3669766e-196
1.1801904e-196
8.261735e-204
-8.9036843e-10
5.9816437e-22
-4.8666832e-34
6.9144674e-46
-2.8259025e-57
1.5055575e-67
5.868091e-78
4.596576e-88
1.9952458e-97
-1.1378393e-105
6.4609934e-114
-1.756244e-121
3.9835298e-128
-1.1753419e-134
2.763775e-141
-6.2403304e-148
1.2985801e-154
-2.6255673e-161
5.8240575e-168
-1.1326527e-174
2.2231131e-181
-4.5310582e-188
1.0044454e-194
-2.4902601e-200
3.1893219e-201
-5.9159131e-198
-3.2276715e-199
-1.3782471e-200
1.7603624e-199
-2.9550457e-201
-2.7318342e-199
-2.7658747e-200
-1.2626899e-200
-1.7580287e-199
-4.4240901e-199
6.0198428e-202
7.4833394e-204
9.5209955e-203
1.4340366e-203
1.0585776e-210
-7.961842e-10
4.6004519e-22
-3.2059975e-34
3.880156e-46
-1.3039928e-57
4.1618848e-68
1.550083e-78
1.0402503e-88
3.4195643e-98
-3.827407e-106
1.9334523e-114
-4.0518171e-122
6.3384848e-129
-1.698404e-135
3.674335e-142
-7.4859586e-149
1.5749228e-155
-3.1084989e-162
6.4993395e-169
-1.1398319e-175
2.3000057e-182
-4.5002173e-189
9.5723918e-196
-1.7582242e-202
-5.5454558e-208
1.0102677e-204
6.6339526e-206
2.6500001e-207
-3.0737425e-206
5.3079558e-208
5.8391906e-206
5.7793076e-207
2.8876488e-207
3.6826473e-206
7.9391497e-206
-8.8461673e-209
-9.9398029e-211
-2.4012782e-209
1.4535461e-210
1.1197388e-217
-7.2153216e-10
3.6183622e-22
-2.169427e-34
2.2469954e-46
-6.2695109e-58
1.3399506e-68
4.8775189e-79
2.8460251e-89
7.299876e-99
2.1414043e-106
-9.9190711e-115
1.6947121e-122
-1.9962085e-129
4.234611e-136
-7.904495e-143
1.3806277e-149
-2.3458529e-156
4.0492475e-163
-6.9797122e-170
1.1131032e-176
-1.8124965e-183
2.919044e-190
-4.5532512e-197
7.7423656e-204
-1.2916969e-210
-1.7214607e-211
-1.1281817e-212
-4.6696724e-214
5.2541877e-213
-9.8023755e-215
-9.9133993e-213
-1.0836803e-213
-5.4632888e-214
-7.0387217e-213
-1.3766836e-212
1.0600586e-215
1.2067802e-217
6.2701052e-216
1.5720313e-217
1.2201836e-224
-6.6338787e-10
2.9194931e-22
-1.5147881e-34
1.349711e-46
-3.1554931e-58
4.8215218e-69
1.7620322e-79
9.069726e-90
1.8623762e-99
9.3546773e-108
-4.1059577e-116
5.8015306e-124
-4.6854694e-131
9.140359e-138
-1.6451051e-144
2.9540028e-151
-4.6691599e-158
7.1659623e-165
-1.1056688e-171
1.9930826e-178
-2.7460825e-185
4.2941548e-192
-7.2672758e-199
1.1185554e-205
-1.5974747e-212
2.8972454e-218
1.8502622e-219
7.0804843e-221
-8.4328718e-220
1.5929244e-221
1.4978626e-219
1.8139251e-220
9.300671e-221
1.1442889e-219
1.9247372e-219
-1.1783181e-222
-1.2355174e-224
-1.70923e-222
1.5640684e-224
1.2481257e-231
-6.1933144e-10
2.423488e-22
-1.096344e-34
8.4542322e-47
-1.6711479e-58
1.9082702e-69
7.2401117e-80
3.3356185e-90
5.607105e-100
1.364553e-108
-5.8793771e-117
6.9563285e-125
-4.4598781e-132
7.5987362e-139
-1.181206e-145
1.8288256e-152
-2.6356249e-159
3.9009285e-166
-5.5896017e-173
8.6893501e-180
-1.2161809e-186
1.6290588e-193
-2.3345821e-200
3.3657894e-207
-4.5016853e-214
6.4923566e-221
-2.7641118e-226
-1.0188539e-227
1.216574e-226
-2.5358147e-228
-2.1952893e-226
-2.940641e-227
-1.387988e-227
-1.8132025e-226
-2.3760544e-226
1.1269955e-229
1.2276631e-231
4.6671417e-229
1.6398346e-231
1.2988715e-238
-5.8742859e-10
2.0748044e-22
-8.2595207e-35
5.5508323e-47
-9.3619385e-59
8.2571082e-70
3.4007123e-80
1.4229718e-90
1.9984408e-100
2.9719185e-109
-1.3193774e-117
1.3569443e-125
-6.8957991e-133
9.7498489e-140
-1.3510813e-146
1.8379497e-153
-2.3565182e-160
3.0184073e-167
-3.6816342e-174
4.5096896e-181
-5.9098165e-188
7.7594877e-195
-1.0353532e-201
1.2801061e-208
-1.6981546e-215
2.1516837e-222
-2.7829968e-229
1.4290225e-234
-1.4656868e-233
3.4361958e-235
3.0874193e-233
4.3699377e-234
2.0697853e-234
2.3174169e-233
2.7538053e-233
-1.0448908e-236
-1.1525515e-238
-1.011185e-235
1.615944e-238
1.3392652e-245
-5.6609788e-10
1.8351527e-22
-6.4997304e-35
3.8379659e-47
-5.5749409e-59
3.8992056e-70
1.8587244e-80
7.1688613e-91
8.5649036e-101
8.6855647e-110
-4.2179922e-118
3.8614942e-126
-1.5931937e-133
1.940882e-140
-2.7278676e-147
3.5433792e-154
-4.5910888e-161
5.4460236e-168
-6.6901611e-175
8.5825689e-182
-1.0274898e-188
1.2919469e-195
-1.5360912e-202
1.9906957e-209
-2.3304922e-216
3.0514692e-223
-3.505402e-230
4.1831754e-237
1.8146391e-240
-4.4064726e-242
-4.0411643e-240
-5.6091929e-241
-2.8561696e-241
-2.890085e-240
-2.9477661e-240
8.8855094e-244
9.5071664e-246
2.3497241e-242
1.5431743e-245
1.352881e-252
-5.5397862e-10
1.6781924e-22
-5.3554579e-35
2.8044467e-47
-3.5428903e-59
2.0091261e-70
1.231158e-80
4.4418817e-91
4.5905538e-101
3.3996702e-110
-1.9841207e-118
1.6443704e-126
-5.5848644e-134
5.9076091e-141
-6.8937804e-148
8.5095088e-155
-9.7600814e-162
1.1743158e-168
-1.3357752e-175
1.4886941e-182
-1.652674e-189
1.9741226e-196
-2.2943986e-203
2.4736684e-210
-2.8055515e-217
3.1465452e-224
-3.5359268e-231
3.9866929e-238
-4.4122012e-245
4.9416762e-249
4.7375408e-247
6.6876961e-248
3.4118026e-248
3.4976401e-247
2.7383725e-247
-7.1493141e-251
-7.2798929e-253
-5.7242195e-249
1.5810377e-252
1.3787679e-259
-5.4977744e-10
1.5856546e-22
-4.6236467e-35
2.1698362e-47
-2.4085964e-59
1.1292724e-70
1.1060173e-80
3.789194e-91
3.4403051e-101
1.9488536e-110
-1.6299619e-118
1.2624728e-126
-3.6841217e-134
3.4493797e-141
-3.9823049e-148
4.1944842e-155
-4.7931542e-162
5.0864847e-169
-5.3210162e-176
5.6485837e-183
-5.9495154e-190
6.0282537e-197
-6.2337426e-204
6.8203257e-211
-7.2039149e-218
7.8107943e-225
-8.6619752e-232
9.2770629e-239
-1.0372907e-245
1.1963801e-252
-5.0761477e-254
-7.5437642e-255
-3.9508196e-255
-3.5842408e-254
-2.4536927e-254
5.3510319e-258
5.6557777e-260
1.1501765e-255
1.745461e-259
1.4371906e-266
-5.5211003e-10
1.5444255e-22
-4.1772731e-35
1.7771526e-47
-1.7521649e-59
6.9134051e-71
2.670884e-80
8.828098e-91
7.1502616e-101
3.2142218e-110
-6.337799e-118
4.6981019e-126
-1.1773042e-133
9.7829646e-141
-1.041483e-147
1.1357597e-154
-1.2101088e-161
1.1616084e-168
-1.1558533e-175
1.1124708e-182
-1.0804214e-189
1.0034506e-196
-9.4912814e-204
9.5999557e-211
-9.6695014e-218
9.5729629e-225
-9.9278672e-232
9.9762524e-239
-1.0263554e-245
1.0379664e-252
-1.0855172e-259
8.6294362e-262
4.7894465e-262
3.5619895e-261
2.0846559e-261
-3.7015868e-265
-3.9569248e-267
-2.1444721e-262
2.2114649e-266
1.6766667e-273
-5.5935342e-10
1.5441543e-22
-3.9348323e-35
1.5363823e-47
-1.3607098e-59
4.5930144e-71
-6.9640404e-81
-2.2610918e-91
-1.6600971e-101
-6.1140387e-111
-1.6173787e-118
1.1810107e-126
-2.5938478e-134
1.7369801e-141
-1.4965125e-148
1.4054883e-155
-1.2508109e-162
1.0803196e-169
-9.0949418e-177
7.6690974e-184
-6.6627282e-191
5.5622808e-198
-4.748819e-205
4.142794e-212
-3.4624382e-219
2.9381636e-226
-2.6354076e-233
2.4940758e-240
-2.3490453e-247
2.1887341e-254
-2.3570794e-261
1.4538439e-268
-4.9917065e-269
-3.6150369e-268
-1.6221064e-268
2.4097195e-272
2.7394702e-274
3.3710732e-269
3.3729536e-273
2.3291715e-280
-5.6956415e-10
1.5752066e-22
-3.8409175e-35
1.3941682e-47
-1.1221673e-59
3.290799e-71
-1.8933678e-81
-6.17119e-92
-4.1800421e-102
-1.2977441e-111
-9.0865752e-120
6.760648e-128
-1.2943699e-135
7.2229202e-143
-5.2786316e-150
3.8130954e-157
-2.5905624e-164
1.7328153e-171
-1.1914959e-178
8.3317655e-186
-5.5633138e-193
3.7637931e-200
-2.5265319e-207
1.688382e-214
-1.1709075e-221
8.3448199e-229
-6.1132526e-236
4.4784963e-243
-3.2850721e-250
2.5367007e-257
-2.0359127e-264
1.8717285e-271
4.6645505e-276
3.2063276e-275
1.2688737e-275
-1.5370556e-279
-1.7909958e-281
-4.5814757e-276
4.970411e-280
3.3282913e-287
-5.8053388e-10
1.6270178e-22
-3.8533285e-35
1.3171346e-47
-9.7488415e-60
2.5200514e-71
-8.465772e-82
-2.844811e-92
-1.8119056e-102
-4.8671343e-112
-1.843498e-120
1.4550183e-128
-2.4567139e-136
1.0650325e-143
-6.0925225e-151
3.4297228e-158
-1.9028894e-165
1.0607262e-172
-5.7227614e-180
3.0715538e-187
-1.6759587e-194
9.0093384e-202
-4.7319484e-209
2.6063957e-216
-1.4163903e-223
7.9043858e-231
-4.2804529e-238
2.5299611e-245
-1.4995983e-252
9.4615641e-260
-6.3541479e-267
4.448603e-274
-3.4429466e-281
-2.4799715e-282
-8.5914926e-283
8.5278859e-287
1.068698e-288
5.3364368e-283
7.3438596e-287
4.68872e-294
-5.9003702e-10
1.6872582e-22
-3.9347094e-35
1.2825583e-47
-8.8301436e-60
2.0395472e-71
-4.6721931e-82
-1.6705449e-92
-1.0193973e-102
-2.4225595e-112
-6.0351669e-121
5.3517227e-129
-8.1710429e-137
2.8862342e-144
-1.3900162e-151
6.5984878e-159
-3.1536871e-166
1.4292778e-173
-6.5465579e-181
3.1065962e-188
-1.4137068e-195
6.6743826e-203
-3.0334905e-210
1.4272124e-217
-6.5540973e-225
3.052648e-232
-1.4278891e-239
6.824811e-247
-3.3533123e-254
1.7203061e-261
-9.3500803e-269
5.0176975e-276
-3.023767e-283
1.7372623e-289
4.8212876e-290
-4.213039e-294
-5.4393392e-296
-6.6052484e-290
9.7976979e-294
6.4565131e-301
-5.9623676e-10
1.7423627e-22
-4.0482046e-35
1.2732667e-47
-8.2427091e-60
1.7225723e-71
-2.9314092e-82
-1.1538797e-92
-6.8452028e-103
-1.4613957e-112
-2.6330252e-121
2.8689546e-129
-4.2236137e-137
1.3285963e-144
-5.6877385e-152
2.5230088e-159
-1.1386302e-166
5.1707051e-174
-2.3279016e-181
1.0658974e-188
-4.8265849e-196
2.2122316e-203
-1.001452e-210
4.5565076e-218
-2.1438239e-225
9.8203915e-233
-4.4198637e-240
1.97336e-247
-8.809656e-255
4.0017342e-262
-1.848109e-269
8.9279638e-277
-4.497355e-284
2.2833461e-291
-2.4061285e-297
1.7603596e-301
2.417182e-303
8.955352e-297
1.0584554e-300
7.5098874e-308
-5.9809763e-10
1.7796821e-22
-4.1573591e-35
1.275277e-47
-7.8392146e-60
1.4990767e-71
-2.0085633e-82
-8.9816318e-93
-5.2109607e-103
-1.0050324e-112
-1.37482e-121
2.2119142e-129
-3.2770315e-137
1.0528459e-144
-5.11246e-152
2.7556252e-159
-1.4742583e-166
8.0743359e-174
-4.4196062e-181
2.5259621e-188
-1.4228052e-195
8.0780669e-203
-4.4634603e-210
2.4224053e-217
-9.5018287e-225
-2.6959913e-231
1.4737858e-237
-5.756181e-244
1.4117307e-250
-2.6348462e-257
4.0544278e-264
-4.7526525e-271
4.3220186e-278
-3.0108185e-285
1.6473299e-292
-7.9631352e-300
5.9629873e-307
-1.432143e-303
9.4353261e-308
-1.4571153e-313
-5.9559126e-10
1.7905455e-22
-4.2295932e-35
1.2772075e-47
-7.5202986e-60
1.3291832e-71
-1.4651147e-82
-7.6077075e-93
-4.2964196e-103
-7.4596606e-113
-7.9801473e-122
3.4533446e-129
-5.5818128e-137
2.2818786e-144
-1.719489e-151
1.6836636e-158
-1.894646e-165
2.1239939e-172
-2.7107775e-179
3.0936656e-186
-3.7705918e-193
5.4708711e-200
-4.0717236e-206
4.7731789e-212
-4.9838045e-218
4.5561251e-224
-2.0860626e-230
7.7976806e-237
-2.0782302e-243
3.9024815e-250
-5.8555916e-257
6.8932301e-264
-6.0459341e-271
4.1850108e-278
-2.2692241e-285
1.136849e-292
-7.9327988e-300
2.3023542e-306
-1.4919291e-313
-9.9011749e-314
-5.895911e-10
1.7726831e-22
-4.2412268e-35
1.2705689e-47
-7.2226679e-60
1.1905263e-71
-1.1168215e-82
-6.8072647e-93
-3.6996396e-103
-5.7485998e-113
-4.9122265e-122
-1.9923505e-129
3.963817e-137
-2.5366068e-144
2.2220655e-150
1.4338352e-156
6.2867348e-163
2.1914326e-169
9.3498908e-176
3.4844477e-182
1.2403246e-188
4.4531638e-195
1.7214385e-201
8.174537e-208
7.7830676e-214
7.0462952e-220