/*--------------------------------*- C++ -*----------------------------------*\
  =========                 |
  \\      /  F ield         | OpenFOAM: The Open Source CFD Toolbox
   \\    /   O peration     | Website:  https://openfoam.org
    \\  /    A nd           | Version:  10
     \\/     M anipulation  |
\*---------------------------------------------------------------------------*/
FoamFile
{
    format      ascii;
    class       volVectorField;
    location    "0.12";
    object      U;
}
// * * * * * * * * * * * * * * * * * * * * * * * * * * * * * * * * * * * * * //

dimensions      [0 1 -1 0 0 0 0];

internalField   nonuniform List<vector> 
4000
(
(0 0.018635847 0.47773238)
(0 0.023506969 0.50886017)
(0 0.0081640461 0.50052533)
(0 0.0056118057 0.50033643)
(0 0.0042516163 0.50025748)
(0 0.003251866 0.50016898)
(0 0.0025530484 0.50011967)
(0 0.0020516437 0.5000901)
(0 0.0016738051 0.50006977)
(0 0.0013796845 0.50005534)
(0 0.0011449038 0.50004493)
(0 0.00095311917 0.50003726)
(0 0.00079307175 0.50003152)
(0 0.00065678124 0.50002718)
(0 0.00053841482 0.5000239)
(0 0.00043358728 0.50002141)
(0 0.00033890667 0.50001956)
(0 0.00025166654 0.50001823)
(0 0.00016962957 0.50001734)
(0 9.086918e-05 0.50001683)
(0 1.3647375e-05 0.50001668)
(0 -6.3692908e-05 0.50001688)
(0 -0.0001428191 0.50001744)
(0 -0.0002255006 0.5000184)
(0 -0.00031372043 0.50001981)
(0 -0.00040980527 0.50002176)
(0 -0.00051659749 0.50002438)
(0 -0.00063769449 0.50002785)
(0 -0.00077779657 0.50003245)
(0 -0.00094323707 0.50003858)
(0 -0.0011428334 0.50004684)
(0 -0.0013892528 0.50005821)
(0 -0.0017012526 0.50007413)
(0 -0.0021091929 0.5000971)
(0 -0.0026690044 0.50013485)
(0 -0.0034628568 0.50020245)
(0 -0.0045555922 0.5002716)
(0 -0.0065800489 0.50043387)
(0 -0.017654438 0.50675337)
(0 -0.013587572 0.47975705)
(0 0.037428254 0.44797475)
(0 0.050946599 0.53232564)
(0 0.021960079 0.50804308)
(0 0.016126744 0.50357378)
(0 0.012406548 0.50242336)
(0 0.0095062805 0.50162299)
(0 0.0075110817 0.50115647)
(0 0.0060606799 0.50086565)
(0 0.0049558716 0.50066761)
(0 0.0040921069 0.50052851)
(0 0.0034004182 0.50042844)
(0 0.0028338428 0.50035485)
(0 0.0023599927 0.50029988)
(0 0.00195577 0.50025842)
(0 0.0016042007 0.50022701)
(0 0.0012924757 0.5002033)
(0 0.0010106563 0.50018566)
(0 0.00075079065 0.50017296)
(0 0.00050629069 0.50016443)
(0 0.00027147257 0.50015958)
(0 4.1201717e-05 0.50015816)
(0 -0.00018941629 0.50016007)
(0 -0.00042530623 0.50016544)
(0 -0.00067169364 0.50017457)
(0 -0.00093442543 0.50018803)
(0 -0.0012203478 0.50020664)
(0 -0.0015378027 0.50023164)
(0 -0.0018973154 0.50026484)
(0 -0.002312587 0.50030885)
(0 -0.0028019794 0.50036757)
(0 -0.0033908914 0.50044694)
(0 -0.0041157261 0.50055645)
(0 -0.0050295956 0.50071118)
(0 -0.0062124029 0.50093672)
(0 -0.0078130576 0.50129473)
(0 -0.010107482 0.5019112)
(0 -0.013090172 0.50282643)
(0 -0.017409974 0.50608201)
(0 -0.03874352 0.52526732)
(0 -0.027887269 0.4502264)
(0 0.039881594 0.40983539)
(0 0.061412478 0.54931012)
(0 0.031966603 0.52188176)
(0 0.024339663 0.51008176)
(0 0.019176826 0.50658912)
(0 0.014960201 0.50452807)
(0 0.011990042 0.50327097)
(0 0.0097558232 0.50245757)
(0 0.0080213101 0.5018999)
(0 0.0066508236 0.50150722)
(0 0.0055441143 0.50122372)
(0 0.0046316237 0.50101472)
(0 0.0038645894 0.50085834)
(0 0.0032075919 0.50074023)
(0 0.0026342732 0.50065068)
(0 0.0021245566 0.50058302)
(0 0.0016627416 0.50053264)
(0 0.0012361848 0.50049634)
(0 0.00083435506 0.50047196)
(0 0.00044812909 0.5004581)
(0 6.9241251e-05 0.50045401)
(0 -0.00031019523 0.50045948)
(0 -0.00069811534 0.50047482)
(0 -0.0011029248 0.50050093)
(0 -0.0015339967 0.50053935)
(0 -0.0020022547 0.50059247)
(0 -0.0025209279 0.50066379)
(0 -0.0031065813 0.50075839)
(0 -0.0037805793 0.50088366)
(0 -0.0045711987 0.50105053)
(0 -0.0055168347 0.50127553)
(0 -0.0066715116 0.50158481)
(0 -0.0081124845 0.5020205)
(0 -0.0099439119 0.50265102)
(0 -0.012338628 0.50361605)
(0 -0.015684764 0.50520107)
(0 -0.019843685 0.50785705)
(0 -0.025156926 0.51641339)
(0 -0.04739038 0.53913051)
(0 -0.03084199 0.41490681)
(0 0.034783326 0.36175911)
(0 0.063816414 0.554572)
(0 0.039353538 0.53747062)
(0 0.030059213 0.51849407)
(0 0.024087515 0.51197832)
(0 0.019254348 0.50849939)
(0 0.015711361 0.50626332)
(0 0.012930245 0.50475373)
(0 0.01072105 0.503702)
(0 0.0089470304 0.50295306)
(0 0.0074951187 0.50240744)
(0 0.0062856164 0.50200264)
(0 0.0052606839 0.50169839)
(0 0.0043770303 0.50146775)
(0 0.0036018052 0.50129239)
(0 0.0029095915 0.50115962)
(0 0.0022802493 0.50106058)
(0 0.0016973844 0.50098914)
(0 0.0011472224 0.50094109)
(0 0.00061774862 0.50091377)
(0 9.8027622e-05 0.50090568)
(0 -0.00042239699 0.50091644)
(0 -0.00095404387 0.50094665)
(0 -0.0015080209 0.50099805)
(0 -0.0020966471 0.50107362)
(0 -0.0027341696 0.50117795)
(0 -0.0034376706 0.50131774)
(0 -0.0042282734 0.5015027)
(0 -0.0051328064 0.50174681)
(0 -0.006186101 0.50207057)
(0 -0.0074340822 0.50250447)
(0 -0.0089390415 0.5030955)
(0 -0.010788419 0.50391841)
(0 -0.01308888 0.50508961)
(0 -0.015976101 0.50680862)
(0 -0.019852839 0.50947102)
(0 -0.024687728 0.51427967)
(0 -0.031067394 0.52824817)
(0 -0.050280536 0.54408581)
(0 -0.028423005 0.37243295)
(0 0.027415066 0.3148905)
(0 0.062285514 0.55026148)
(0 0.044576323 0.551467)
(0 0.033947685 0.52748902)
(0 0.027429431 0.51772381)
(0 0.022420449 0.51291962)
(0 0.018602713 0.50972971)
(0 0.015495295 0.50748958)
(0 0.012975212 0.50589569)
(0 0.010913558 0.50474157)
(0 0.0091989117 0.50388982)
(0 0.0077523759 0.50325197)
(0 0.0065139192 0.50276911)
(0 0.0054370717 0.50240103)
(0 0.0044857404 0.50211993)
(0 0.0036314154 0.50190635)
(0 0.0028511079 0.50174661)
(0 0.002125834 0.50163113)
(0 0.0014394547 0.50155336)
(0 0.00077776373 0.50150906)
(0 0.00012775038 0.50149593)
(0 -0.00052306257 0.50151331)
(0 -0.0011872238 0.50156219)
(0 -0.0018779296 0.50164528)
(0 -0.0026097102 0.50176726)
(0 -0.0033991999 0.50193528)
(0 -0.0042660826 0.50215976)
(0 -0.0052343033 0.50245558)
(0 -0.0063336766 0.50284402)
(0 -0.0076020456 0.50335572)
(0 -0.0090877477 0.50403535)
(0 -0.010853296 0.50494946)
(0 -0.012985605 0.50620089)
(0 -0.015588613 0.5079446)
(0 -0.018750221 0.51040705)
(0 -0.022832084 0.51406027)
(0 -0.028115767 0.52115111)
(0 -0.03564156 0.53932823)
(0 -0.050424331 0.54158873)
(0 -0.024068025 0.33064418)
(0 0.019828241 0.27526643)
(0 0.057954023 0.539786)
(0 0.047312936 0.56256611)
(0 0.036430976 0.53660381)
(0 0.029590454 0.52350845)
(0 0.024630616 0.51740277)
(0 0.020729635 0.51336018)
(0 0.017466873 0.5104397)
(0 0.014773784 0.50831757)
(0 0.012529332 0.50675353)
(0 0.010631947 0.50558301)
(0 0.0090095847 0.50469688)
(0 0.0076045694 0.50402021)
(0 0.0063709852 0.50350077)
(0 0.0052723174 0.50310186)
(0 0.0042790419 0.50279742)
(0 0.0033668748 0.50256893)
(0 0.0025154241 0.5024033)
(0 0.0017071102 0.50229151)
(0 0.00092628916 0.50222774)
(0 0.00015852667 0.50220877)
(0 -0.00061006792 0.5022337)
(0 -0.0013934609 0.5023039)
(0 -0.0022062685 0.50242309)
(0 -0.0030644507 0.50259773)
(0 -0.0039860621 0.50283763)
(0 -0.0049921482 0.50315692)
(0 -0.0061078491 0.50357561)
(0 -0.0073637926 0.5041219)
(0 -0.0087979897 0.50483575)
(0 -0.010457796 0.50577418)
(0 -0.012401598 0.5070195)
(0 -0.014709693 0.50869491)
(0 -0.017484038 0.51098214)
(0 -0.020778729 0.51412376)
(0 -0.024890021 0.51873735)
(0 -0.030426115 0.52823493)
(0 -0.038541803 0.54872858)
(0 -0.048442929 0.53404822)
(0 -0.019046594 0.29406619)
(0 0.013073235 0.24264799)
(0 0.051756448 0.52526596)
(0 0.047644649 0.57025516)
(0 0.037695738 0.54552161)
(0 0.0307918 0.52928911)
(0 0.026015609 0.52180052)
(0 0.022181294 0.51699357)
(0 0.018899261 0.51346624)
(0 0.016142221 0.51085515)
(0 0.013802228 0.50890031)
(0 0.011792741 0.50741838)
(0 0.010051111 0.50628435)
(0 0.0085246468 0.50541045)
(0 0.0071705342 0.50473456)
(0 0.005953907 0.50421229)
(0 0.0048458814 0.50381171)
(0 0.0038222034 0.50350986)
(0 0.0028621355 0.50329037)
(0 0.0019475236 0.50314188)
(0 0.0010620171 0.503057)
(0 0.00019040388 0.50303164)
(0 -0.00068201148 0.50306467)
(0 -0.0015700007 0.5031578)
(0 -0.0024889424 0.50331578)
(0 -0.003455479 0.50354676)
(0 -0.0044881953 0.50386302)
(0 -0.005608414 0.50428218)
(0 -0.0068411378 0.50482889)
(0 -0.0082161654 0.50553742)
(0 -0.0097696652 0.50645559)
(0 -0.011545938 0.50765057)
(0 -0.013597341 0.50921725)
(0 -0.015993468 0.51129363)
(0 -0.018829819 0.51407923)
(0 -0.022137973 0.51784308)
(0 -0.026158331 0.52347577)
(0 -0.031741096 0.53537788)
(0 -0.039646196 0.55590816)
(0 -0.044814606 0.52292967)
(0 -0.014068643 0.26282099)
(0 0.0077598712 0.21566156)
(0 0.044777173 0.50810939)
(0 0.046175692 0.5743975)
(0 0.037956829 0.5537449)
(0 0.03121407 0.53495902)
(0 0.026696122 0.52602807)
(0 0.023046122 0.52053209)
(0 0.019853083 0.51647798)
(0 0.017118321 0.51342789)
(0 0.014754442 0.5111137)
(0 0.012692965 0.50933967)
(0 0.010881762 0.50796852)
(0 0.0092748511 0.50690263)
(0 0.0078341867 0.50607211)
(0 0.0065279477 0.50542633)
(0 0.0053291004 0.50492846)
(0 0.0042144571 0.50455171)
(0 0.0031638102 0.50427683)
(0 0.0021591801 0.50409039)
(0 0.0011841641 0.50398357)
(0 0.00022336763 0.50395151)
(0 -0.00073814307 0.50399283)
(0 -0.0017153765 0.5041096)
(0 -0.0027238724 0.50430746)
(0 -0.0037802912 0.50459608)
(0 -0.0049029897 0.50498998)
(0 -0.0061126843 0.5055098)
(0 -0.0074332162 0.50618416)
(0 -0.0088923775 0.5070524)
(0 -0.010523077 0.50816871)
(0 -0.012365015 0.50960837)
(0 -0.014463456 0.51147647)
(0 -0.01687469 0.51392193)
(0 -0.019680623 0.51715373)
(0 -0.02289751 0.52148494)
(0 -0.026746745 0.52818991)
(0 -0.032214872 0.54221931)
(0 -0.039263026 0.56052679)
(0 -0.040235309 0.50924638)
(0 -0.0096845934 0.23608803)
(0 0.0039943207 0.19370693)
(0 0.037844514 0.4896293)
(0 0.043591111 0.57527275)
(0 0.037465719 0.56083582)
(0 0.031062578 0.54035625)
(0 0.026825502 0.53000738)
(0 0.023427664 0.52389294)
(0 0.020397456 0.51939862)
(0 0.017748781 0.51596929)
(0 0.015417445 0.51333625)
(0 0.013353062 0.51129765)
(0 0.01151419 0.50970762)
(0 0.0098625761 0.50846152)
(0 0.0083658962 0.50748367)
(0 0.0069962314 0.50671871)
(0 0.005729221 0.50612592)
(0 0.0045434939 0.50567544)
(0 0.0034200427 0.50534565)
(0 0.0023416646 0.50512135)
(0 0.0012924543 0.50499254)
(0 0.00025734617 0.50495367)
(0 -0.00077833691 0.50500316)
(0 -0.001829344 0.50514338)
(0 -0.00291086 0.50538074)
(0 -0.0040390096 0.50572621)
(0 -0.0052313127 0.5061962)
(0 -0.0065072014 0.50681381)
(0 -0.0078886033 0.50761089)
(0 -0.0094004986 0.50863081)
(0 -0.011071615 0.50993268)
(0 -0.012935954 0.51159785)
(0 -0.015031186 0.51373904)
(0 -0.01740005 0.51651207)
(0 -0.020106987 0.52012831)
(0 -0.023160172 0.52496738)
(0 -0.026799413 0.53274452)
(0 -0.032034098 0.5483853)
(0 -0.037825535 0.56259014)
(0 -0.035308258 0.49402635)
(0 -0.0061755436 0.21354399)
(0 0.00154002 0.17631681)
(0 0.031437887 0.47095614)
(0 0.040418983 0.57344172)
(0 0.036438165 0.56658726)
(0 0.030524642 0.54536849)
(0 0.02656378 0.53369769)
(0 0.023438257 0.52702006)
(0 0.020610031 0.52216972)
(0 0.01808854 0.51842674)
(0 0.015830029 0.51552128)
(0 0.013799996 0.5132511)
(0 0.0119669 0.51146558)
(0 0.01030034 0.51005568)
(0 0.0087739567 0.50894191)
(0 0.0073641158 0.50806553)
(0 0.0060496003 0.50738302)
(0 0.0048113343 0.50686221)
(0 0.0036319766 0.50647963)
(0 0.0024955485 0.50621872)
(0 0.0013870699 0.50606851)
(0 0.00029221573 0.5060229)
(0 -0.00080303038 0.50608017)
(0 -0.0019127523 0.50624289)
(0 -0.0030513661 0.50651814)
(0 -0.0042340288 0.50691791)
(0 -0.0054769714 0.50746008)
(0 -0.0067978675 0.50816969)
(0 -0.0082162396 0.50908102)
(0 -0.0097537983 0.51024038)
(0 -0.011434699 0.51171039)
(0 -0.013286818 0.51357644)
(0 -0.015340395 0.51595604)
(0 -0.01762618 0.51900787)
(0 -0.020191466 0.52294329)
(0 -0.023043704 0.52823749)
(0 -0.026459836 0.53703961)
(0 -0.031359931 0.55364961)
(0 -0.035704693 0.56238698)
(0 -0.030432772 0.47821192)
(0 -0.0035643428 0.19496891)
(0 6.5215797e-05 0.16274398)
(0 0.025801282 0.4528572)
(0 0.03702736 0.56952121)
(0 0.035044943 0.57097759)
(0 0.029740073 0.54994616)
(0 0.0260436 0.53710268)
(0 0.023179964 0.52989585)
(0 0.020567038 0.52475971)
(0 0.018194731 0.5207664)
(0 0.016034332 0.51763569)
(0 0.014064449 0.51516889)
(0 0.012262104 0.51321384)
(0 0.010604102 0.51165929)
(0 0.0090697137 0.51042356)
(0 0.0076395662 0.50944586)
(0 0.0062957373 0.50868083)
(0 0.005021676 0.5080947)
(0 0.0038019813 0.50766273)
(0 0.0026221942 0.50736732)
(0 0.0014685629 0.50719681)
(0 0.00032780799 0.50714468)
(0 -0.00081312026 0.50720909)
(0 -0.0019673334 0.50739281)
(0 -0.0031481719 0.50770335)
(0 -0.0043695192 0.50815352)
(0 -0.0056460197 0.50876225)
(0 -0.0069933109 0.50955598)
(0 -0.0084282699 0.51057062)
(0 -0.0099691979 0.51185447)
(0 -0.011635746 0.51347229)
(0 -0.013449875 0.51551178)
(0 -0.015434999 0.51809277)
(0 -0.017611904 0.52137364)
(0 -0.020013375 0.5255691)
(0 -0.02265295 0.53128058)
(0 -0.025843661 0.54102238)
(0 -0.030322797 0.55792257)
(0 -0.033193637 0.56031445)
(0 -0.02586028 0.4624931)
(0 -0.0017366613 0.17990313)
(0 -0.0007298027 0.15216542)
(0 0.021030624 0.43576506)
(0 0.033666361 0.56406145)
(0 0.033428883 0.57408062)
(0 0.028809178 0.55406859)
(0 0.025364101 0.54024621)
(0 0.022736075 0.53253057)
(0 0.020335135 0.52716042)
(0 0.018120089 0.52297202)
(0 0.016071193 0.51965972)
(0 0.014177586 0.51703004)
(0 0.012423367 0.51493154)
(0 0.010791509 0.51325234)
(0 0.0092662494 0.51190981)
(0 0.0078321711 0.51084215)
(0 0.0064745462 0.51000298)
(0 0.005179372 0.50935761)
(0 0.0039332956 0.50888045)
(0 0.002723535 0.50855327)
(0 0.0015377534 0.50836392)
(0 0.00036391856 0.50830559)
(0 -0.00080984414 0.50837635)
(0 -0.0019954641 0.50857911)
(0 -0.0032050043 0.50892171)
(0 -0.0044508881 0.50941747)
(0 -0.0057460149 0.51008604)
(0 -0.0071038809 0.51095471)
(0 -0.0085386898 0.5120604)
(0 -0.010065433 0.51345248)
(0 -0.011699613 0.51519684)
(0 -0.013457868 0.51738219)
(0 -0.015357574 0.52012876)
(0 -0.017411397 0.52359274)
(0 -0.019641243 0.52799984)
(0 -0.022072817 0.53410222)
(0 -0.025041363 0.54466172)
(0 -0.029037623 0.56119615)
(0 -0.030523635 0.55676967)
(0 -0.021743955 0.44730931)
(0 -0.00053424937 0.16775988)
(0 -0.0010820507 0.14388428)
(0 0.017116598 0.41989473)
(0 0.030491341 0.55752309)
(0 0.031707636 0.57601859)
(0 0.027805658 0.55772826)
(0 0.024598378 0.54315373)
(0 0.02217267 0.5349466)
(0 0.019969643 0.52937752)
(0 0.017910099 0.52503937)
(0 0.015977374 0.52158373)
(0 0.014168676 0.5188218)
(0 0.012473687 0.51660441)
(0 0.010880403 0.51482001)
(0 0.0093772403 0.51338588)
(0 0.0079522746 0.51224)
(0 0.006593706 0.5113356)
(0 0.0052899566 0.51063758)
(0 0.0040296989 0.51011994)
(0 0.0028018711 0.50976406)
(0 0.0015956356 0.50955753)
(0 0.00040031603 0.50949337)
(0 -0.0007946676 0.5095696)
(0 -0.0019999424 0.50978919)
(0 -0.0032261866 0.5101602)
(0 -0.0044842798 0.51069623)
(0 -0.0057853353 0.51141732)
(0 -0.0071407354 0.51235121)
(0 -0.0085621346 0.51353526)
(0 -0.01006147 0.51501926)
(0 -0.011650588 0.51686942)
(0 -0.013341573 0.51917454)
(0 -0.015146673 0.52205393)
(0 -0.017072123 0.5256609)
(0 -0.019132955 0.53024205)
(0 -0.021371733 0.53671351)
(0 -0.024125697 0.54793752)
(0 -0.027605801 0.56351562)
(0 -0.027864905 0.55211622)
(0 -0.018157602 0.43292647)
(0 0.00020116088 0.15799367)
(0 -0.0011650474 0.13734966)
(0 0.013981612 0.40532754)
(0 0.027582103 0.55028189)
(0 0.029968954 0.57694011)
(0 0.026781539 0.56093185)
(0 0.023798951 0.54584882)
(0 0.021541219 0.53717054)
(0 0.019515407 0.53142388)
(0 0.017602787 0.52697144)
(0 0.015784701 0.52340489)
(0 0.014063942 0.52053753)
(0 0.012434339 0.51822336)
(0 0.010887797 0.51635177)
(0 0.0094161045 0.51484054)
(0 0.0080102904 0.51362789)
(0 0.0066611279 0.51266716)
(0 0.0053592466 0.51192321)
(0 0.00409523 0.51136994)
(0 0.0028596917 0.51098859)
(0 0.0016432954 0.51076665)
(0 0.00043675097 0.51069705)
(0 -0.00076918411 0.51077781)
(0 -0.0019837909 0.51101191)
(0 -0.0032163348 0.51140749)
(0 -0.004476152 0.51197829)
(0 -0.0057726175 0.51274445)
(0 -0.0071151208 0.51373383)
(0 -0.00851299 0.51498383)
(0 -0.0099754582 0.51654414)
(0 -0.011511271 0.51848075)
(0 -0.013128788 0.52088192)
(0 -0.014836127 0.52386516)
(0 -0.016634749 0.5275814)
(0 -0.018536642 0.53230887)
(0 -0.020603712 0.53912795)
(0 -0.023153387 0.5508434)
(0 -0.026109434 0.564965)
(0 -0.025328304 0.54667381)
(0 -0.015112562 0.419494)
(0 0.00060753505 0.1501424)
(0 -0.001097114 0.13212238)
(0 0.011514978 0.39205591)
(0 0.024966239 0.54263306)
(0 0.028271336 0.57700069)
(0 0.025769818 0.56369931)
(0 0.023000695 0.54835393)
(0 0.02087981 0.53923042)
(0 0.019007507 0.53331659)
(0 0.017229054 0.52877593)
(0 0.01551994 0.52512501)
(0 0.013886122 0.52217501)
(0 0.012324297 0.51978331)
(0 0.01082927 0.51784066)
(0 0.0093954286 0.51626559)
(0 0.0080162044 0.51499691)
(0 0.0066845466 0.51398835)
(0 0.0053930239 0.51320499)
(0 0.004133957 0.51262085)
(0 0.0028995282 0.51221725)
(0 0.0016818424 0.51198166)
(0 0.00047296445 0.51190703)
(0 -0.00073502871 0.51199135)
(0 -0.0019500905 0.51223762)
(0 -0.0031801072 0.51265397)
(0 -0.0044329358 0.51325409)
(0 -0.005716325 0.51405807)
(0 -0.007037853 0.51509363)
(0 -0.0084048033 0.5163979)
(0 -0.009824105 0.51802015)
(0 -0.011301975 0.52002579)
(0 -0.012843867 0.52250214)
(0 -0.014454756 0.5255644)
(0 -0.016132926 0.52936291)
(0 -0.017890541 0.53421783)
(0 -0.019808826 0.54136151)
(0 -0.0221655 0.55338723)
(0 -0.024609179 0.56565028)
(0 -0.022976112 0.54071029)
(0 -0.012578975 0.40707534)
(0 0.00079387199 0.14381261)
(0 -0.00095469711 0.12785739)
(0 0.0095979295 0.38001504)
(0 0.022640063 0.53479868)
(0 0.026649657 0.57634678)
(0 0.024788814 0.56605825)
(0 0.022224338 0.55068936)
(0 0.020214648 0.54115344)
(0 0.018472004 0.53507489)
(0 0.016813047 0.53046354)
(0 0.015204847 0.52674912)
(0 0.01365431 0.52373519)
(0 0.012159946 0.52128224)
(0 0.010718616 0.51928251)
(0 0.0093266114 0.51765539)
(0 0.0079792389 0.5163404)
(0 0.0066712278 0.51529184)
(0 0.0053967973 0.51447517)
(0 0.004149799 0.51386469)
(0 0.0029238373 0.51344189)
(0 0.0017123551 0.51319435)
(0 0.00050869572 0.51311507)
(0 -0.00069380856 0.51320202)
(0 -0.0019018477 0.5134582)
(0 -0.0031220096 0.51389164)
(0 -0.00436078 0.51451592)
(0 -0.0056244347 0.51535093)
(0 -0.0069189584 0.51642404)
(0 -0.008249896 0.51777197)
(0 -0.0096222858 0.51944335)
(0 -0.011040366 0.52150283)
(0 -0.012507422 0.52403655)
(0 -0.014026188 0.52715739)
(0 -0.015593222 0.53101778)
(0 -0.017223287 0.53598863)
(0 -0.019014682 0.54343109)
(0 -0.021189579 0.55558668)
(0 -0.023146618 0.56568306)
(0 -0.020835992 0.53443924)
(0 -0.010504156 0.39567179)
(0 0.00084044344 0.13867181)
(0 -0.00078529558 0.12429419)
(0 0.0081178559 0.3691094)
(0 0.020583081 0.52694004)
(0 0.025121481 0.57510769)
(0 0.023846883 0.56803876)
(0 0.021480508 0.5528717)
(0 0.0195624 0.54296372)
(0 0.017927257 0.53671811)
(0 0.016372866 0.53204637)
(0 0.01485648 0.52828413)
(0 0.013384025 0.52522121)
(0 0.011955017 0.5227204)
(0 0.010567693 0.52067537)
(0 0.0092196657 0.51900636)
(0 0.0079076472 0.51765362)
(0 0.0066277771 0.51657205)
(0 0.0053756401 0.51572761)
(0 0.0041464003 0.51509495)
(0 0.0029349174 0.51465578)
(0 0.0017358419 0.51439786)
(0 0.00054368865 0.51431425)
(0 -0.00064704995 0.51440297)
(0 -0.0018418973 0.51466693)
(0 -0.0030462539 0.51511407)
(0 -0.0042653703 0.51575775)
(0 -0.0055042258 0.51661757)
(0 -0.0067674416 0.51772051)
(0 -0.0080591298 0.51910271)
(0 -0.0093828307 0.52081213)
(0 -0.010741298 0.52291257)
(0 -0.01213628 0.52548898)
(0 -0.013569029 0.52865219)
(0 -0.015035665 0.53256009)
(0 -0.016555152 0.53764075)
(0 -0.018238944 0.54535247)
(0 -0.020242668 0.55746451)
(0 -0.021747871 0.56516993)
(0 -0.018912674 0.5280249)
(0 -0.0088252232 0.38524484)
(0 0.0008037584 0.13444855)
(0 -0.0006169011 0.12124306)
(0 0.0069756305 0.35923166)
(0 0.018767061 0.51917123)
(0 0.023692343 0.57339404)
(0 0.022946026 0.56967074)
(0 0.020773124 0.55491349)
(0 0.018932646 0.54468108)
(0 0.017385536 0.5382641)
(0 0.015921569 0.53353662)
(0 0.014487767 0.52973776)
(0 0.013087503 0.52663742)
(0 0.011720687 0.52409945)
(0 0.010386416 0.52201883)
(0 0.0090831502 0.52031649)
(0 0.0078086154 0.51893335)
(0 0.0065600342 0.51782489)
(0 0.0053340917 0.51695757)
(0 0.0041270511 0.51630641)
(0 0.002934854 0.51585343)
(0 0.0017532165 0.51558654)
(0 0.00057769656 0.51549892)
(0 -0.00059616287 0.51558858)
(0 -0.0017728347 0.5158584)
(0 -0.002956666 0.51631614)
(0 -0.0041518171 0.51697495)
(0 -0.0053621549 0.51785409)
(0 -0.0065911646 0.51898007)
(0 -0.0078418098 0.52038847)
(0 -0.0091164856 0.52212657)
(0 -0.010416885 0.52425737)
(0 -0.011743731 0.52686466)
(0 -0.013097416 0.53005786)
(0 -0.014474709 0.53400396)
(0 -0.01589964 0.53919178)
(0 -0.01749182 0.54713933)
(0 -0.019333966 0.55904558)
(0 -0.020426966 0.56420738)
(0 -0.01719656 0.52159036)
(0 -0.0074774009 0.37573384)
(0 0.00072226118 0.13092844)
(0 -0.00046443282 0.11856927)
(0 0.0060887428 0.35027401)
(0 0.017161664 0.51157089)
(0 0.022360012 0.57129894)
(0 0.022084404 0.57098289)
(0 0.020101798 0.55682382)
(0 0.018329892 0.54632098)
(0 0.016854501 0.53972843)
(0 0.015468208 0.5349457)
(0 0.01410821 0.53111774)
(0 0.012774133 0.52798871)
(0 0.011465833 0.52542197)
(0 0.010182874 0.52331355)
(0 0.0089242055 0.52158493)
(0 0.0076882503 0.52017756)
(0 0.0064730362 0.51904743)
(0 0.0052761138 0.51816145)
(0 0.004094647 0.51749504)
(0 0.0029254906 0.51703047)
(0 0.0017652806 0.51675586)
(0 0.0006104923 0.51666448)
(0 -0.00054241258 0.51675437)
(0 -0.0016969815 0.5170283)
(0 -0.002856635 0.51749393)
(0 -0.0040245995 0.51816413)
(0 -0.0052038079 0.5190578)
(0 -0.0063968206 0.52020103)
(0 -0.0076057065 0.52162884)
(0 -0.008832017 0.52338789)
(0 -0.010076733 0.52554049)
(0 -0.011339956 0.52816946)
(0 -0.012621704 0.53138361)
(0 -0.01392026 0.53536264)
(0 -0.015264973 0.54065676)
(0 -0.016778076 0.54880308)
(0 -0.018466969 0.56035503)
(0 -0.019188928 0.56288003)
(0 -0.015670044 0.51522576)
(0 -0.0063994477 0.36706767)
(0 0.00062116995 0.12794589)
(0 -0.00033434375 0.11617904)
(0 0.0053915263 0.34213441)
(0 0.015737754 0.50419142)
(0 0.021117854 0.56890006)
(0 0.021258135 0.57200208)
(0 0.019463551 0.55860899)
(0 0.017755141 0.54789492)
(0 0.016338409 0.54112419)
(0 0.015018731 0.53628387)
(0 0.013724545 0.53243133)
(0 0.012450923 0.52927999)
(0 0.011197332 0.52669092)
(0 0.0099635194 0.52456086)
(0 0.00874866 0.52281166)
(0 0.00755163 0.52138514)
(0 0.0063710342 0.5202377)
(0 0.0052050885 0.51933667)
(0 0.0040516801 0.51865776)
(0 0.0029084211 0.51818353)
(0 0.0017727263 0.51790227)
(0 0.00064186339 0.51780734)
(0 -0.00048691718 0.5178968)
(0 -0.0016163627 0.51817336)
(0 -0.0027490951 0.5186445)
(0 -0.0038875562 0.51932285)
(0 -0.0050339097 0.520227)
(0 -0.0061899795 0.52138261)
(0 -0.0073571575 0.52282423)
(0 -0.0085364001 0.524598)
(0 -0.0097282498 0.52676568)
(0 -0.010932493 0.52940932)
(0 -0.012149137 0.53263816)
(0 -0.013378623 0.53664792)
(0 -0.014655353 0.542048)
(0 -0.016098629 0.55035294)
(0 -0.017641268 0.56141715)
(0 -0.018032621 0.56126038)
(0 -0.014311991 0.50899539)
(0 -0.0055367788 0.35917228)
(0 0.00051629226 0.12537516)
(0 -0.00022794257 0.11400844)
(0 0.0048335622 0.33471987)
(0 0.014469038 0.49706624)
(0 0.019957256 0.56626197)
(0 0.020462559 0.57275314)
(0 0.018854051 0.56027318)
(0 0.01720713 0.54941089)
(0 0.015839092 0.54246204)
(0 0.01457675 0.53756)
(0 0.013341341 0.53368512)
(0 0.012122944 0.53051598)
(0 0.010920386 0.52790939)
(0 0.0097333861 0.52576246)
(0 0.0085611738 0.5239972)
(0 0.0074028928 0.52255564)
(0 0.0062575451 0.5213945)
(0 0.0051238454 0.52048138)
(0 0.0040002523 0.51979231)
(0 0.0028849952 0.51931005)
(0 0.0017761377 0.51902305)
(0 0.0006716178 0.51892475)
(0 -0.00043064257 0.51901322)
(0 -0.0015327107 0.51929111)
(0 -0.0026365364 0.51976573)
(0 -0.0037439106 0.52044952)
(0 -0.0048563744 0.52136075)
(0 -0.0059751777 0.52252474)
(0 -0.0071012156 0.52397563)
(0 -0.0082350455 0.52575918)
(0 -0.0093769759 0.52793674)
(0 -0.010526704 0.53058989)
(0 -0.011684489 0.5338294)
(0 -0.012853339 0.53786989)
(0 -0.014072075 0.54337508)
(0 -0.015451872 0.5517961)
(0 -0.016854044 0.56225459)
(0 -0.016953127 0.55940956)
(0 -0.01310063 0.50294374)
(0 -0.0048427574 0.35197534)
(0 0.00041690585 0.12312239)
(0 -0.00014367109 0.11201454)
(0 0.0043772471 0.32794789)
(0 0.013332648 0.49021534)
(0 0.018869166 0.56343848)
(0 0.019693015 0.57325889)
(0 0.018268468 0.56181903)
(0 0.016683264 0.55087402)
(0 0.015356738 0.5437503)
(0 0.014144167 0.53878161)
(0 0.012961511 0.53488485)
(0 0.011793733 0.53170093)
(0 0.010638816 0.52908038)
(0 0.0094963142 0.52692019)
(0 0.0083653978 0.5251424)
(0 0.0072453475 0.5236891)
(0 0.0061354247 0.52251716)
(0 0.0050347095 0.52159442)
(0 0.0039421039 0.5208971)
(0 0.0028563342 0.52040817)
(0 0.0017759967 0.52011618)
(0 0.00069958807 0.52001466)
(0 -0.00037440567 0.52010166)
(0 -0.0014474818 0.52037977)
(0 -0.0025210335 0.52085619)
(0 -0.0035963186 0.52154314)
(0 -0.004674382 0.52245867)
(0 -0.0057560349 0.52362778)
(0 -0.0068418185 0.52508433)
(0 -0.0079320399 0.52687381)
(0 -0.0090269178 0.52905735)
(0 -0.010126217 0.53171633)
(0 -0.01123063 0.53496425)
(0 -0.012345936 0.53903684)
(0 -0.013514463 0.54464505)
(0 -0.014834689 0.55313794)
(0 -0.016101184 0.56288799)
(0 -0.015943507 0.55737869)
(0 -0.012015273 0.49710065)
(0 -0.0042788626 0.3454091)
(0 0.00032791298 0.12111875)
(0 -7.8591048e-05 0.11016879)
(0 0.0039952044 0.32174666)
(0 0.01230911 0.48364951)
(0 0.017844975 0.56047475)
(0 0.018945253 0.57354043)
(0 0.017702007 0.56324817)
(0 0.016180277 0.5522871)
(0 0.014890482 0.54499524)
(0 0.01372169 0.53995483)
(0 0.012586745 0.53603543)
(0 0.01146564 0.53283861)
(0 0.010355349 0.53020665)
(0 0.0092551629 0.52803591)
(0 0.0081641344 0.52624832)
(0 0.0070815909 0.52478585)
(0 0.0060069513 0.52360544)
(0 0.0049395579 0.52267506)
(0 0.003878652 0.52197108)
(0 0.0028233542 0.52147658)
(0 0.0017726946 0.52118023)
(0 0.00072562964 0.52107559)
(0 -0.00031888675 0.52116073)
(0 -0.0013618799 0.52143815)
(0 -0.0024042858 0.52191496)
(0 -0.0034469308 0.52260322)
(0 -0.0044904694 0.52352076)
(0 -0.0055353824 0.52469239)
(0 -0.0065819666 0.52615176)
(0 -0.0076303855 0.52794423)
(0 -0.0086808613 0.53013084)
(0 -0.0097333297 0.53279312)
(0 -0.010789036 0.53604849)
(0 -0.01185655 0.54015527)
(0 -0.012980612 0.54586274)
(0 -0.014243214 0.55438231)
(0 -0.015378072 0.563336)
(0 -0.014996025 0.55521041)
(0 -0.011037219 0.4914853)
(0 -0.0038141674 0.33941191)
(0 0.00025136993 0.11931456)
(0 -2.9314004e-05 0.10845206)
(0 0.0036678895 0.31605442)
(0 0.011382044 0.47737338)
(0 0.016876935 0.55740902)
(0 0.018215601 0.57361738)
(0 0.017150214 0.56456171)
(0 0.015694676 0.55365115)
(0 0.014438829 0.54620133)
(0 0.01330922 0.54108457)
(0 0.012217863 0.53714094)
(0 0.011140129 0.53393226)
(0 0.010071856 0.53129068)
(0 0.0090120077 0.5291114)
(0 0.0079594912 0.52731606)
(0 0.0069136245 0.52584644)
(0 0.005873913 0.52465942)
(0 0.0048398829 0.52372299)
(0 0.0038110324 0.52301362)
(0 0.0027867929 0.52251447)
(0 0.0017665443 0.52221426)
(0 0.00074961888 0.52210659)
(0 -0.0002646449 0.52218952)
(0 -0.0012768846 0.52246551)
(0 -0.0022876637 0.52294155)
(0 -0.0032974614 0.5236296)
(0 -0.0043066274 0.52454733)
(0 -0.0053153952 0.52571941)
(0 -0.0063238969 0.52717939)
(0 -0.0073322245 0.5289726)
(0 -0.0083406564 0.53116015)
(0 -0.00934936 0.53382408)
(0 -0.010360206 0.53708684)
(0 -0.011384418 0.54123007)
(0 -0.012467947 0.54703108)
(0 -0.013673361 0.55553192)
(0 -0.01468012 0.56361542)
(0 -0.014102971 0.55294031)
(0 -0.010150111 0.48610924)
(0 -0.0034244294 0.33392887)
(0 0.00018755431 0.11767449)
(0 7.4541293e-06 0.10685124)
(0 0.0033815465 0.31081855)
(0 0.010537737 0.47138747)
(0 0.015958292 0.554274)
(0 0.017500989 0.57350816)
(0 0.016609118 0.56576059)
(0 0.015223016 0.5549659)
(0 0.013999956 0.54737153)
(0 0.012906149 0.54217465)
(0 0.011855081 0.53820468)
(0 0.010818022 0.53498457)
(0 0.0097895676 0.5323346)
(0 0.0087683133 0.53014825)
(0 0.0077530209 0.52834674)
(0 0.0067429656 0.52687153)
(0 0.005737692 0.52567935)
(0 0.0047368539 0.52473816)
(0 0.0037401433 0.52402442)
(0 0.002747236 0.52352135)
(0 0.0017577926 0.5232177)
(0 0.00077145156 0.52310707)
(0 -0.0002121338 0.52318751)
(0 -0.0011932838 0.52346144)
(0 -0.0021722589 0.52393578)
(0 -0.0031492595 0.52462238)
(0 -0.0041243964 0.52553884)
(0 -0.0050977176 0.52670974)
(0 -0.0060692448 0.52816861)
(0 -0.0070390415 0.52996086)
(0 -0.0080074646 0.53214781)
(0 -0.0089749403 0.53481234)
(0 -0.0099440011 0.53808298)
(0 -0.010928262 0.5422647)
(0 -0.011973642 0.54815149)
(0 -0.013121193 0.55658863)
(0 -0.014003114 0.5637414)
(0 -0.013257171 0.55059824)
(0 -0.0093399744 0.48097865)
(0 -0.0030910248 0.32891176)
(0 0.00013570484 0.11617367)
(0 3.4632918e-05 0.10535694)
(0 0.0031265632 0.30599445)
(0 0.0097647048 0.46568976)
(0 0.015083257 0.55109787)
(0 0.016798897 0.57323014)
(0 0.016075284 0.56684583)
(0 0.01476206 0.55623014)
(0 0.013571912 0.54850756)
(0 0.012511569 0.54322793)
(0 0.011498225 0.53922931)
(0 0.010499688 0.53599776)
(0 0.0095092395 0.53334023)
(0 0.0085250831 0.5311479)
(0 0.0075458462 0.52934141)
(0 0.0065707475 0.52786184)
(0 0.0055993436 0.52666565)
(0 0.0046313773 0.52572071)
(0 0.0036666877 0.52500343)
(0 0.0027051436 0.52449704)
(0 0.0017466321 0.52419028)
(0 0.000791041 0.52407675)
(0 -0.00016171793 0.52415448)
(0 -0.001111705 0.52442584)
(0 -0.0020589331 0.52489771)
(0 -0.0030033768 0.52558188)
(0 -0.0039449573 0.52649589)
(0 -0.0048835797 0.5276643)
(0 -0.0058191884 0.5291207)
(0 -0.0067518393 0.53091069)
(0 -0.0076819663 0.5330959)
(0 -0.0086102574 0.53576039)
(0 -0.0095399106 0.5390397)
(0 -0.010486583 0.54326138)
(0 -0.011494911 0.54922419)
(0 -0.012583156 0.55755371)
(0 -0.013343416 0.56372769)
(0 -0.012452276 0.54820936)
(0 -0.0085950675 0.47609603)
(0 -0.0027998911 0.32431867)
(0 9.4520358e-05 0.1147947)
(0 5.4655157e-05 0.10396205)
(0 0.0028962094 0.30154443)
(0 0.0090532842 0.46027665)
(0 0.01424689 0.54790515)
(0 0.016107274 0.57279978)
(0 0.015545815 0.56781866)
(0 0.014308875 0.55744204)
(0 0.013152759 0.54961013)
(0 0.012124429 0.54424642)
(0 0.011146891 0.54021684)
(0 0.010185202 0.53697358)