/*--------------------------------*- C++ -*----------------------------------*\
  =========                 |
  \\      /  F ield         | OpenFOAM: The Open Source CFD Toolbox
   \\    /   O peration     | Website:  https://openfoam.org
    \\  /    A nd           | Version:  10
     \\/     M anipulation  |
\*---------------------------------------------------------------------------*/
FoamFile
{
    format      ascii;
    class       volVectorField;
    location    "0.12";
    object      U_0;
}
// * * * * * * * * * * * * * * * * * * * * * * * * * * * * * * * * * * * * * //

dimensions      [0 1 -1 0 0 0 0];

internalField   nonuniform List<vector> 
4000
(
(0 0.018635769 0.47773242)
(0 0.023506823 0.50886015)
(0 0.0081639112 0.50052533)
(0 0.0056116706 0.50033643)
(0 0.004251471 0.50025748)
(0 0.0032517168 0.50016898)
(0 0.0025528998 0.50011967)
(0 0.0020514986 0.5000901)
(0 0.0016736661 0.50006977)
(0 0.0013795537 0.50005534)
(0 0.0011447833 0.50004493)
(0 0.0009530107 0.50003726)
(0 0.00079297692 0.50003152)
(0 0.00065670147 0.50002718)
(0 0.00053835131 0.50002389)
(0 0.00043354106 0.50002141)
(0 0.00033887866 0.50001956)
(0 0.00025165747 0.50001823)
(0 0.00016963999 0.50001733)
(0 9.0899475e-05 0.50001683)
(0 1.3697801e-05 0.50001668)
(0 -6.3622261e-05 0.50001688)
(0 -0.00014272833 0.50001744)
(0 -0.00022538993 0.5000184)
(0 -0.00031359032 0.50001981)
(0 -0.0004096564 0.50002176)
(0 -0.00051643072 0.50002438)
(0 -0.00063751093 0.50002785)
(0 -0.00077759765 0.50003245)
(0 -0.00094302446 0.50003858)
(0 -0.0011426091 0.50004684)
(0 -0.0013890194 0.50005821)
(0 -0.001701013 0.50007413)
(0 -0.0021089505 0.5000971)
(0 -0.0026687635 0.50013485)
(0 -0.0034626242 0.50020245)
(0 -0.0045553776 0.50027161)
(0 -0.0065798427 0.50043388)
(0 -0.017654227 0.50675334)
(0 -0.013587463 0.47975711)
(0 0.03742804 0.44797502)
(0 0.050946157 0.53232561)
(0 0.021959635 0.50804309)
(0 0.016126316 0.50357381)
(0 0.012406087 0.50242337)
(0 0.0095058112 0.501623)
(0 0.0075106157 0.50115647)
(0 0.0060602252 0.50086564)
(0 0.004955436 0.50066759)
(0 0.0040916974 0.50052849)
(0 0.0034000409 0.50042842)
(0 0.0028335032 0.50035483)
(0 0.0023596957 0.50029985)
(0 0.0019555199 0.50025839)
(0 0.0016040012 0.50022698)
(0 0.00129233 0.50020327)
(0 0.0010105671 0.50018562)
(0 0.00075076037 0.50017292)
(0 0.00050632104 0.50016439)
(0 0.00027156477 0.50015954)
(0 4.1356561e-05 0.50015811)
(0 -0.00018919853 0.50016003)
(0 -0.00042502578 0.50016539)
(0 -0.00067135124 0.50017453)
(0 -0.00093402243 0.50018799)
(0 -0.0012198862 0.5002066)
(0 -0.0015372852 0.5002316)
(0 -0.0018967454 0.5002648)
(0 -0.0023119687 0.50030882)
(0 -0.002801318 0.50036754)
(0 -0.0033901931 0.50044692)
(0 -0.0041149984 0.50055643)
(0 -0.0050288476 0.50071117)
(0 -0.0062116453 0.50093672)
(0 -0.0078123026 0.50129473)
(0 -0.010106747 0.50191122)
(0 -0.013089493 0.50282648)
(0 -0.017409303 0.50608204)
(0 -0.038742872 0.52526728)
(0 -0.027886957 0.45022682)
(0 0.039881271 0.4098361)
(0 0.061411722 0.54931022)
(0 0.031965775 0.52188175)
(0 0.024338899 0.51008182)
(0 0.019176013 0.50658915)
(0 0.014959376 0.50452807)
(0 0.011989226 0.50327095)
(0 0.0097550274 0.50245754)
(0 0.0080205485 0.50189986)
(0 0.0066501079 0.50150716)
(0 0.005543455 0.50122365)
(0 0.00463103 0.50101464)
(0 0.0038640698 0.50085825)
(0 0.0032071535 0.50074013)
(0 0.0026339225 0.50065057)
(0 0.0021242991 0.50058291)
(0 0.0016625821 0.50053252)
(0 0.001236127 0.50049622)
(0 0.00083440213 0.50047184)
(0 0.00044828315 0.50045798)
(0 6.9503699e-05 0.50045389)
(0 -0.00030982387 0.50045935)
(0 -0.00069763537 0.50047469)
(0 -0.0011023374 0.5005008)
(0 -0.0015333042 0.50053923)
(0 -0.0020014604 0.50059236)
(0 -0.0025200361 0.50066368)
(0 -0.0031055978 0.50075829)
(0 -0.0037795112 0.50088357)
(0 -0.0045700548 0.50105045)
(0 -0.0055156253 0.50127547)
(0 -0.0066702493 0.50158476)
(0 -0.0081111844 0.50202047)
(0 -0.0099425922 0.50265101)
(0 -0.012337308 0.50361607)
(0 -0.015683472 0.50520113)
(0 -0.01984248 0.50785716)
(0 -0.025155687 0.51641342)
(0 -0.047389247 0.53913063)
(0 -0.030841491 0.41490792)
(0 0.034782926 0.36176052)
(0 0.063815325 0.55457242)
(0 0.039352241 0.53747058)
(0 0.030058046 0.51849414)
(0 0.024086302 0.51197837)
(0 0.019253123 0.5084994)
(0 0.015710151 0.50626329)
(0 0.012929068 0.50475366)
(0 0.010719925 0.50370191)
(0 0.0089459737 0.50295294)
(0 0.0074941455 0.50240729)
(0 0.0062847399 0.50200247)
(0 0.005259916 0.5016982)
(0 0.0043763815 0.50146755)
(0 0.0036012846 0.50129218)
(0 0.002909207 0.50115939)
(0 0.0022800076 0.50106034)
(0 0.0016972911 0.50098889)
(0 0.0011472818 0.50094084)
(0 0.00061796404 0.50091351)
(0 9.8401088e-05 0.50090543)
(0 -0.0004218646 0.50091618)
(0 -0.00095335289 0.5009464)
(0 -0.001507173 0.5009978)
(0 -0.0020956452 0.50107338)
(0 -0.0027330183 0.50117771)
(0 -0.003436376 0.50131752)
(0 -0.0042268435 0.50150249)
(0 -0.0051312512 0.50174662)
(0 -0.0061844325 0.50207041)
(0 -0.0074323151 0.50250433)
(0 -0.0089371933 0.50309539)
(0 -0.01078651 0.50391834)
(0 -0.013086936 0.50508959)
(0 -0.01597415 0.50680866)
(0 -0.019850916 0.50947113)
(0 -0.024685903 0.51427984)
(0 -0.03106545 0.52824819)
(0 -0.050278864 0.54408637)
(0 -0.028422343 0.37243515)
(0 0.027414621 0.31489278)
(0 0.062284094 0.55026249)
(0 0.044574477 0.55146696)
(0 0.033946028 0.52748907)
(0 0.02742776 0.51772389)
(0 0.02241877 0.51291962)
(0 0.018601057 0.50972965)
(0 0.015493687 0.50748947)
(0 0.012973677 0.50589553)
(0 0.010912119 0.50474136)
(0 0.009197586 0.50388957)
(0 0.0077511818 0.50325169)
(0 0.0065128721 0.5027688)
(0 0.0054361854 0.50240069)
(0 0.0044850269 0.50211956)
(0 0.003630885 0.50190596)
(0 0.0028507695 0.5017462)
(0 0.0021256949 0.50163071)
(0 0.0014395206 0.50155292)
(0 0.00077803911 0.50150862)
(0 0.00012823802 0.50149548)
(0 -0.00052236134 0.50151286)
(0 -0.0011863092 0.50156175)
(0 -0.0018768036 0.50164485)
(0 -0.0026083766 0.50176683)
(0 -0.0033976642 0.50193487)
(0 -0.0042643524 0.50215937)
(0 -0.0052323889 0.50245522)
(0 -0.0063315904 0.50284369)
(0 -0.0075998032 0.50335543)
(0 -0.0090853678 0.5040351)
(0 -0.0108508 0.50494926)
(0 -0.01298302 0.50620076)
(0 -0.015585971 0.50794455)
(0 -0.018747559 0.5104071)
(0 -0.022829443 0.51406043)
(0 -0.028113196 0.52115128)
(0 -0.03563877 0.53932825)
(0 -0.050422082 0.5415901)
(0 -0.024067232 0.33064781)
(0 0.019827773 0.27526974)
(0 0.057952282 0.53978789)
(0 0.047310475 0.56256616)
(0 0.036428726 0.53660378)
(0 0.029588252 0.52350852)
(0 0.024628417 0.51740277)
(0 0.02072747 0.51336008)
(0 0.017464777 0.51043951)
(0 0.014771786 0.5083173)
(0 0.012527459 0.5067532)
(0 0.010630224 0.50558262)
(0 0.0090080324 0.50469643)
(0 0.0076032071 0.50401971)
(0 0.0063698299 0.50350023)
(0 0.0052713842 0.50310128)
(0 0.0042783437 0.50279682)
(0 0.0033664225 0.5025683)
(0 0.0025152269 0.50240265)
(0 0.0017071753 0.50229085)
(0 0.00092662223 0.50222707)
(0 0.00015913139 0.50220809)
(0 -0.00060918965 0.50223301)
(0 -0.0013923091 0.50230321)
(0 -0.0022048452 0.50242242)
(0 -0.0030627603 0.50259708)
(0 -0.003984111 0.50283699)
(0 -0.0049899456 0.50315631)
(0 -0.0061054069 0.50357504)
(0 -0.0073611258 0.50412138)
(0 -0.008795117 0.50483529)
(0 -0.01045474 0.50577378)
(0 -0.012398385 0.50701918)
(0 -0.014706354 0.50869469)
(0 -0.017480612 0.51098204)
(0 -0.02077526 0.5141238)
(0 -0.024886557 0.51873754)
(0 -0.030422651 0.52823503)
(0 -0.03853804 0.54872867)
(0 -0.048440084 0.53405085)
(0 -0.0190457 0.29407157)
(0 0.013072755 0.24265249)
(0 0.051754399 0.5252691)
(0 0.047641517 0.57025546)
(0 0.037692783 0.54552145)
(0 0.030788978 0.52928914)
(0 0.026012816 0.52180049)
(0 0.02217855 0.5169934)
(0 0.018896609 0.51346595)
(0 0.016139698 0.51085476)
(0 0.013799866 0.50889982)
(0 0.011790568 0.50741781)
(0 0.010049153 0.5062837)
(0 0.0085229278 0.50540974)
(0 0.0071690738 0.50473378)
(0 0.0059527232 0.50421146)
(0 0.0048449897 0.50381084)
(0 0.0038216171 0.50350896)
(0 0.0028618655 0.50328943)
(0 0.001947579 0.50314092)
(0 0.0010624045 0.50305602)
(0 0.00019112814 0.50303065)
(0 -0.00068094779 0.50306367)
(0 -0.0015685972 0.50315682)
(0 -0.0024872012 0.50331481)
(0 -0.0034534045 0.5035458)
(0 -0.0044857949 0.5038621)
(0 -0.0056056979 0.5042813)
(0 -0.0068381196 0.50482807)
(0 -0.0082128624 0.50553666)
(0 -0.0097660987 0.50645491)
(0 -0.011542134 0.50764998)
(0 -0.013593331 0.50921677)
(0 -0.015989286 0.51129329)
(0 -0.01882551 0.51407905)
(0 -0.022133593 0.5178431)
(0 -0.02615392 0.52347594)
(0 -0.031736575 0.53537783)
(0 -0.039641348 0.55590848)
(0 -0.044811157 0.52293408)
(0 -0.014067668 0.26282844)
(0 0.0077593806 0.21566737)
(0 0.044774825 0.50811417)
(0 0.046171838 0.57439827)
(0 0.03795305 0.55374458)
(0 0.031210522 0.53495896)
(0 0.026692648 0.526028)
(0 0.023042718 0.52053184)
(0 0.019849799 0.51647757)
(0 0.017115204 0.51342734)
(0 0.014751526 0.51111302)
(0 0.012690285 0.50933887)
(0 0.010879347 0.50796762)
(0 0.0092727281 0.50690164)
(0 0.00783238 0.50607104)
(0 0.0065264782 0.50542519)
(0 0.0053279861 0.50492726)
(0 0.0042137136 0.50455046)
(0 0.0031634505 0.50427554)
(0 0.0021592148 0.50408906)
(0 0.0011846014 0.50398222)
(0 0.00022421334 0.50395015)
(0 -0.0007368855 0.50399146)
(0 -0.0017137062 0.50410824)
(0 -0.002721791 0.50430611)
(0 -0.0037778033 0.50459476)
(0 -0.0049001031 0.50498871)
(0 -0.00610941 0.50550858)
(0 -0.0074295691 0.50618301)
(0 -0.0088883766 0.50705133)
(0 -0.010518746 0.50816774)
(0 -0.012360383 0.50960753)
(0 -0.014458558 0.51147578)
(0 -0.016869566 0.51392142)
(0 -0.019675324 0.51715343)
(0 -0.0228921 0.52148489)
(0 -0.026741246 0.52818997)
(0 -0.032209122 0.54221901)
(0 -0.039256993 0.5605276)
(0 -0.040231253 0.50925316)
(0 -0.0096835483 0.23609784)
(0 0.0039938162 0.19371419)
(0 0.037841864 0.48963614)
(0 0.043586482 0.57527429)
(0 0.037460995 0.56083534)
(0 0.03105818 0.54035602)
(0 0.026821246 0.53000722)
(0 0.023423506 0.52389258)
(0 0.020393454 0.51939804)
(0 0.017744988 0.51596853)
(0 0.015413901 0.51333533)
(0 0.013349806 0.51129658)
(0 0.011511257 0.50970641)
(0 0.009859996 0.50846019)
(0 0.0083636967 0.50748224)
(0 0.0069944363 0.50671719)
(0 0.0057278511 0.50612432)
(0 0.004542567 0.50567378)
(0 0.0034195738 0.50534393)
(0 0.0023416659 0.50511959)
(0 0.0012929356 0.50499075)
(0 0.00025831445 0.50495186)
(0 -0.00077687713 0.50500134)
(0 -0.001827391 0.50514157)
(0 -0.002908415 0.50537895)
(0 -0.0040360768 0.50572446)
(0 -0.0052278999 0.50619449)
(0 -0.0065033202 0.50681217)
(0 -0.0078842694 0.50760934)
(0 -0.0093957325 0.50862936)
(0 -0.011066442 0.50993137)
(0 -0.012930407 0.5115967)
(0 -0.015025303 0.51373807)
(0 -0.017393873 0.51651133)
(0 -0.020100575 0.52012784)
(0 -0.023153597 0.52496721)
(0 -0.02679266 0.53274436)
(0 -0.032026937 0.54838471)
(0 -0.037818224 0.56259179)
(0 -0.03530359 0.49403616)
(0 -0.0061744296 0.21355646)
(0 0.001539501 0.17632563)
(0 0.031434921 0.47096549)
(0 0.040413523 0.57344437)
(0 0.036432367 0.56658667)
(0 0.030519251 0.54536801)
(0 0.026558625 0.5336974)
(0 0.023433243 0.52701955)
(0 0.020605213 0.52216895)
(0 0.018083981 0.51842573)
(0 0.015825774 0.51552006)
(0 0.01379609 0.51324969)
(0 0.011963381 0.511464)
(0 0.010297243 0.51005396)
(0 0.0087713124 0.50894005)
(0 0.0073619508 0.50806356)
(0 0.0060479378 0.50738095)
(0 0.0048101942 0.50686005)
(0 0.003631376 0.50647741)
(0 0.0024955014 0.50621644)
(0 0.0013875877 0.5060662)
(0 0.00029330671 0.50602056)
(0 -0.00080136045 0.50607782)
(0 -0.0019105007 0.50624055)
(0 -0.0030485331 0.50651581)
(0 -0.0042306179 0.50691563)
(0 -0.0054729901 0.50745785)
(0 -0.0067933274 0.50816755)
(0 -0.0082111566 0.50907898)
(0 -0.0097481939 0.51023848)
(0 -0.0114286 0.51170865)
(0 -0.013280258 0.51357489)
(0 -0.015333416 0.51595472)
(0 -0.017618829 0.51900683)
(0 -0.020183808 0.52294259)
(0 -0.023035813 0.52823712)
(0 -0.026451644 0.53703911)
(0 -0.031351171 0.55364872)
(0 -0.035696011 0.56238991)
(0 -0.030427479 0.47822545)
(0 -0.0035631558 0.19498432)
(0 6.4685384e-05 0.1627545)
(0 0.025797972 0.45286956)
(0 0.037021003 0.56952537)
(0 0.035037936 0.57097698)
(0 0.029733531 0.54994533)
(0 0.026037412 0.53710218)
(0 0.023173974 0.52989515)
(0 0.020561296 0.52475868)
(0 0.018189305 0.52076508)
(0 0.016029275 0.51763411)
(0 0.01405981 0.51516709)
(0 0.012257926 0.51321182)
(0 0.010600423 0.51165709)
(0 0.0090665671 0.5104212)
(0 0.0076369818 0.50944336)
(0 0.0062937408 0.5086782)
(0 0.0050202896 0.50809198)
(0 0.0038012239 0.50765992)
(0 0.0026220815 0.50736444)
(0 0.0014691079 0.50719389)
(0 0.0003290206 0.50714172)
(0 -0.00081123287 0.50720612)
(0 -0.0019647671 0.50738983)
(0 -0.0031449257 0.5077004)
(0 -0.0043655958 0.50815062)
(0 -0.0056414254 0.50875942)
(0 -0.0069880565 0.50955324)
(0 -0.0084223713 0.510568)
(0 -0.0099626766 0.511852)
(0 -0.01162863 0.51347002)
(0 -0.013442199 0.51550975)
(0 -0.015426806 0.51809101)
(0 -0.017603246 0.52137222)
(0 -0.020004322 0.52556809)
(0 -0.022643574 0.5312799)
(0 -0.025833825 0.54102138)
(0 -0.030312244 0.55792141)
(0 -0.033183487 0.5603192)
(0 -0.025854332 0.46251112)
(0 -0.0017353964 0.17992177)
(0 -0.00073033642 0.1521778)
(0 0.021026931 0.43578093)
(0 0.033659032 0.5640676)
(0 0.033420523 0.5740801)
(0 0.028801311 0.55406733)
(0 0.025356726 0.54024541)
(0 0.022728976 0.53252961)
(0 0.020328346 0.52715908)
(0 0.018113684 0.52297033)
(0 0.016065232 0.51965771)
(0 0.014172122 0.51702775)
(0 0.012418447 0.51492901)
(0 0.010787175 0.51324959)
(0 0.0092625372 0.51190686)
(0 0.0078291131 0.51083903)
(0 0.0064721704 0.50999971)
(0 0.0051777025 0.50935421)
(0 0.0039323531 0.50887696)
(0 0.002723337 0.50854969)
(0 0.0015383145 0.50836028)
(0 0.00036525041 0.5083019)
(0 -0.00080773273 0.50837265)
(0 -0.0019925673 0.5085754)
(0 -0.0032013196 0.50891803)
(0 -0.0044464163 0.50941384)
(0 -0.005740761 0.51008248)
(0 -0.0070978543 0.51095126)
(0 -0.0085319053 0.51205709)
(0 -0.010057911 0.51344936)
(0 -0.011691382 0.51519394)
(0 -0.013448962 0.51737957)
(0 -0.015348039 0.52012646)
(0 -0.017401286 0.52359084)
(0 -0.019630633 0.52799842)
(0 -0.022061765 0.53410109)
(0 -0.025029657 0.54466006)
(0 -0.029025073 0.56119482)
(0 -0.030511907 0.55677684)
(0 -0.021737309 0.44733261)
(0 -0.00053290587 0.16778204)
(0 -0.0010825756 0.14389868)
(0 0.017112475 0.41991468)
(0 0.030482953 0.55753176)
(0 0.031697767 0.57601835)
(0 0.027796274 0.55772648)
(0 0.024589643 0.54315252)
(0 0.022164314 0.5349453)
(0 0.019961671 0.5293758)
(0 0.017902592 0.52503722)
(0 0.015970397 0.52158121)
(0 0.014162287 0.51881895)
(0 0.012467936 0.51660127)
(0 0.010875335 0.5148166)
(0 0.0093728941 0.51338225)
(0 0.0079486844 0.51223616)
(0 0.0065909016 0.51133159)
(0 0.005287964 0.51063342)
(0 0.0040285404 0.51011566)
(0 0.0028015658 0.50975968)
(0 0.0015961999 0.50955307)
(0 0.00040176332 0.50948885)
(0 -0.00079232659 0.50956506)
(0 -0.0019966998 0.50978465)
(0 -0.0032220377 0.51015567)
(0 -0.0044792233 0.51069176)
(0 -0.0057793737 0.51141293)
(0 -0.0071338762 0.51234694)
(0 -0.0085543902 0.51353115)
(0 -0.01005286 0.51501535)
(0 -0.011641138 0.51686576)
(0 -0.013331317 0.5191712)
(0 -0.015135657 0.52205097)
(0 -0.017060403 0.52565841)
(0 -0.019120609 0.53024009)
(0 -0.021358794 0.53671177)
(0 -0.024111876 0.54793503)
(0 -0.027591035 0.56351427)
(0 -0.027851474 0.55212651)
(0 -0.018150197 0.43295595)
(0 0.0002025761 0.15801968)
(0 -0.0011655487 0.13736627)
(0 0.013977008 0.40535217)
(0 0.027572558 0.55029368)
(0 0.029957406 0.57694038)
(0 0.02677043 0.56092947)
(0 0.023788665 0.54584706)
(0 0.021531441 0.53716882)
(0 0.019506106 0.53142169)
(0 0.017594044 0.52696875)
(0 0.015776588 0.52340177)
(0 0.01405652 0.52053402)
(0 0.012427661 0.51821951)
(0 0.010881911 0.51634761)
(0 0.0094110503 0.51483611)
(0 0.0080061046 0.51362323)
(0 0.0066578419 0.5126623)
(0 0.0053568876 0.51191818)
(0 0.0040938218 0.51136475)
(0 0.002859255 0.51098329)
(0 0.0016438481 0.51076125)
(0 0.00043830833 0.51069159)
(0 -0.0007666091 0.51077231)
(0 -0.001980188 0.5110064)
(0 -0.0032116965 0.511402)
(0 -0.0044704741 0.51197284)
(0 -0.0057658995 0.51273909)
(0 -0.0071073667 0.5137286)
(0 -0.0085042093 0.51497877)
(0 -0.0099656666 0.51653931)
(0 -0.011500492 0.5184762)
(0 -0.013117054 0.52087773)
(0 -0.014823481 0.5238614)
(0 -0.016621249 0.52757817)
(0 -0.018522363 0.53230622)
(0 -0.020588655 0.53912539)
(0 -0.023137188 0.55083992)
(0 -0.02609222 0.56496383)
(0 -0.02531303 0.54668802)
(0 -0.015104326 0.41953059)
(0 0.00060900755 0.15017262)
(0 -0.001097576 0.13214141)
(0 0.011509841 0.39208588)
(0 0.024955429 0.54264865)
(0 0.028257928 0.57700176)
(0 0.025756759 0.56369626)
(0 0.022988643 0.54835147)
(0 0.020868425 0.53922815)
(0 0.018996714 0.53331383)
(0 0.017218928 0.5287726)
(0 0.015510558 0.52512117)
(0 0.013877549 0.52217072)
(0 0.012316588 0.51977863)
(0 0.010822473 0.51783563)
(0 0.0093895873 0.51626025)
(0 0.0080113553 0.5149913)
(0 0.006680722 0.51398251)
(0 0.0053902519 0.51319895)
(0 0.0041322625 0.51261465)
(0 0.0028989331 0.51221091)
(0 0.0016823662 0.51197521)
(0 0.00047462447 0.5119005)
(0 -0.00073221713 0.51198476)
(0 -0.0019461142 0.51223101)
(0 -0.0031749554 0.51264737)
(0 -0.0044266006 0.51324753)
(0 -0.0057088017 0.5140516)
(0 -0.0070291412 0.51508729)
(0 -0.0083949078 0.51639175)
(0 -0.009813037 0.51801425)
(0 -0.011289754 0.5200202)
(0 -0.01283052 0.52249693)
(0 -0.014440324 0.52555968)
(0 -0.016117465 0.52935878)
(0 -0.017874119 0.5342143)
(0 -0.019791399 0.5413579)
(0 -0.022146638 0.55338257)
(0 -0.024589268 0.56564956)
(0 -0.022958836 0.54072928)
(0 -0.012569825 0.40712005)
(0 0.00079538212 0.14384742)
(0 -0.00095510386 0.12787908)
(0 0.0095922093 0.38005108)
(0 0.022627869 0.53481883)
(0 0.02663419 0.57634899)
(0 0.024773562 0.56605448)
(0 0.022210286 0.55068601)
(0 0.020201455 0.54115048)
(0 0.018459542 0.53507144)
(0 0.016801379 0.53045944)
(0 0.015194054 0.52674444)
(0 0.013644459 0.52373001)
(0 0.012151094 0.52127661)
(0 0.010710812 0.51927648)
(0 0.0093198986 0.51764901)
(0 0.0079736542 0.51633372)
(0 0.0066668036 0.51528489)
(0 0.0053935622 0.514468)
(0 0.0041477783 0.51385734)
(0 0.002923054 0.51343438)
(0 0.0017128302 0.51318671)
(0 0.00051044832 0.51310732)
(0 -0.00069076031 0.51319421)
(0 -0.0018974872 0.51345035)
(0 -0.0031163222 0.51388379)
(0 -0.0043537532 0.51450811)
(0 -0.0056160586 0.51534319)
(0 -0.0069092266 0.51641644)
(0 -0.0082388072 0.51776456)
(0 -0.0096098447 0.5194362)
(0 -0.011026585 0.52149601)
(0 -0.012492323 0.52403015)
(0 -0.014009805 0.52715152)
(0 -0.015575608 0.53101257)
(0 -0.017204496 0.53598401)
(0 -0.01899461 0.54342614)
(0 -0.021167753 0.55558068)
(0 -0.023123744 0.56568313)
(0 -0.020816543 0.53446398)
(0 -0.010494003 0.39572573)
(0 0.00084196951 0.13871164)
(0 -0.00078563058 0.1243188)
(0 0.0081115052 0.36915228)
(0 0.020569374 0.52696557)
(0 0.025103745 0.57511146)
(0 0.023829176 0.56803423)
(0 0.021464199 0.55286727)
(0 0.019547177 0.54295987)
(0 0.017912932 0.53671383)
(0 0.016359484 0.53204136)
(0 0.014844122 0.52827847)
(0 0.013372761 0.52521498)
(0 0.011944903 0.52271367)
(0 0.010558778 0.5206682)
(0 0.0092119915 0.5189988)
(0 0.00790125 0.51764573)
(0 0.0066226886 0.51656387)
(0 0.0053718882 0.51571917)
(0 0.0041440104 0.51508629)
(0 0.002933913 0.51464694)
(0 0.0017362451 0.51438887)
(0 0.00054552049 0.51430515)
(0 -0.00064376826 0.51439377)
(0 -0.0018371451 0.51465768)
(0 -0.0030400122 0.5151048)
(0 -0.0042576207 0.51574851)
(0 -0.0054949518 0.5166084)
(0 -0.0067566297 0.51771146)
(0 -0.0080467704 0.51909385)
(0 -0.0093689196 0.52080354)
(0 -0.010725839 0.52290432)
(0 -0.012119284 0.52548117)
(0 -0.013550524 0.52864495)
(0 -0.015015696 0.53255355)
(0 -0.016533747 0.53763476)
(0 -0.018215934 0.54534587)
(0 -0.020217557 0.55745701)
(0 -0.021721754 0.56517117)
(0 -0.018890862 0.52805646)
(0 -0.0088139719 0.38530922)
(0 0.00080527909 0.13449385)
(0 -0.00061714692 0.12127087)
(0 0.0069686076 0.35928223)
(0 0.018751704 0.51920308)
(0 0.023672114 0.57339986)
(0 0.022925583 0.56966544)
(0 0.020754277 0.55490776)
(0 0.018915151 0.54467615)
(0 0.017369139 0.53825881)
(0 0.015906288 0.53353055)
(0 0.014473682 0.52973097)
(0 0.013074682 0.52663)
(0 0.011709186 0.52409147)
(0 0.010376281 0.52201036)
(0 0.0090744202 0.5203076)
(0 0.0078013249 0.51892408)
(0 0.0065542128 0.5178153)
(0 0.005329766 0.5169477)
(0 0.0041242456 0.51629631)
(0 0.0029335923 0.51584312)
(0 0.0017535218 0.51557606)
(0 0.00057959039 0.51548829)
(0 -0.00059265505 0.51557785)
(0 -0.0017676869 0.51584758)
(0 -0.002949855 0.51630529)
(0 -0.0041433176 0.51696411)
(0 -0.0053519423 0.51784329)
(0 -0.0065792162 0.51896938)
(0 -0.0078281056 0.52037796)
(0 -0.0091010103 0.52211632)
(0 -0.01039963 0.52424746)
(0 -0.011724696 0.52685521)
(0 -0.013076615 0.53004901)
(0 -0.014452174 0.53399585)
(0 -0.015875369 0.53918411)
(0 -0.017465565 0.54713073)
(0 -0.019305235 0.55903641)
(0 -0.020397308 0.56421027)
(0 -0.017172184 0.52162991)
(0 -0.0074649546 0.37580993)
(0 0.00072375737 0.13097971)
(0 -0.00046457045 0.11860057)
(0 0.0060810114 0.35033321)
(0 0.017144512 0.51161009)
(0 0.022337049 0.57130739)
(0 0.022060923 0.57097683)
(0 0.020080113 0.55681654)
(0 0.018309862 0.54631473)
(0 0.016835807 0.53972193)
(0 0.01545083 0.53493838)
(0 0.014092224 0.53110962)
(0 0.012759604 0.5279799)
(0 0.011452812 0.52541256)
(0 0.010171404 0.52330361)
(0 0.0089143216 0.52157453)
(0 0.0076799826 0.52016675)
(0 0.0064664108 0.51903627)
(0 0.0052711547 0.51815)
(0 0.0040913768 0.51748332)
(0 0.002923932 0.51701853)
(0 0.0017654572 0.51674372)
(0 0.00061242889 0.51665217)
(0 -0.00053868846 0.51674192)
(0 -0.0016914402 0.51701576)
(0 -0.0028492454 0.51748131)
(0 -0.0040153286 0.51815148)
(0 -0.0051926217 0.51904518)
(0 -0.0063836849 0.52018849)
(0 -0.0075905886 0.52161645)
(0 -0.0088148875 0.52337574)
(0 -0.010057568 0.52552868)
(0 -0.011318738 0.52815811)
(0 -0.012598431 0.53137287)
(0 -0.013894947 0.53535264)
(0 -0.01523757 0.54064706)
(0 -0.01674825 0.54879207)
(0 -0.018434269 0.56034404)
(0 -0.019155422 0.56288509)
(0 -0.015642889 0.51527458)
(0 -0.0063857088 0.36715687)
(0 0.00062262566 0.12800368)
(0 -0.00033435216 0.11621417)
(0 0.0053830561 0.34220325)
(0 0.015718653 0.50423911)
(0 0.021091903 0.56891179)
(0 0.021231296 0.5719953)
(0 0.019438703 0.55859989)
(0 0.017732293 0.54788705)
(0 0.016317176 0.54111625)
(0 0.014999049 0.53627509)
(0 0.013706476 0.53242169)
(0 0.012434528 0.5292696)
(0 0.011182656 0.52667988)
(0 0.0099505979 0.52454926)
(0 0.0087375219 0.52279957)
(0 0.0075422994 0.52137261)
(0 0.0063635322 0.52022481)
(0 0.0051994347 0.51932345)
(0 0.0040478942 0.51864425)
(0 0.0029065243 0.51816978)
(0 0.0017727417 0.5178883)
(0 0.00064381821 0.51779317)
(0 -0.0004829926 0.51788247)
(0 -0.001610434 0.51815889)
(0 -0.0027411232 0.51862992)
(0 -0.003877499 0.51930821)
(0 -0.0050217218 0.52021234)
(0 -0.0061756132 0.521368)
(0 -0.0073405646 0.52280973)
(0 -0.0085175336 0.5245837)
(0 -0.009707066 0.52675168)
(0 -0.010908954 0.52939577)
(0 -0.01212322 0.53262521)
(0 -0.013350314 0.53663569)
(0 -0.014624546 0.54203584)
(0 -0.016064901 0.55033909)
(0 -0.01760424 0.5614042)
(0 -0.017994948 0.56126822)
(0 -0.014281837 0.50905486)
(0 -0.0055216501 0.3592761)
(0 0.00051769653 0.12544005)
(0 -0.00022779912 0.11404772)
(0 0.0048243276 0.33479947)
(0 0.014447828 0.49712366)
(0 0.019928046 0.56627772)
(0 0.020432019 0.57274571)
(0 0.018825694 0.56026197)
(0 0.017181162 0.54940109)
(0 0.015815066 0.54245239)
(0 0.014554544 0.53754952)
(0 0.013321001 0.53367371)
(0 0.012104522 0.53050378)
(0 0.010903916 0.52789651)
(0 0.009718895 0.52574898)
(0 0.0085486809 0.52398321)
(0 0.0073924139 0.5225412)
(0 0.0062490939 0.52137967)
(0 0.0051174354 0.52046621)
(0 0.0039958989 0.51977683)
(0 0.0028827168 0.5192943)
(0 0.0017759568 0.51900706)
(0 0.00067356272 0.51890853)
(0 -0.00042653807 0.51899681)
(0 -0.0015264064 0.51927451)
(0 -0.0026279853 0.51974898)
(0 -0.0037330601 0.52043266)
(0 -0.0048431656 0.52134382)
(0 -0.0059595472 0.5225078)
(0 -0.0070830966 0.52395875)
(0 -0.0082143695 0.52574244)
(0 -0.0093536754 0.52792026)
(0 -0.010500715 0.53057381)
(0 -0.01165576 0.5338139)
(0 -0.012821821 0.53785501)
(0 -0.014037592 0.54335997)
(0 -0.015413902 0.55177892)
(0 -0.016812322 0.56223952)
(0 -0.016910962 0.55942085)
(0 -0.013067246 0.50301538)
(0 -0.0048261435 0.35209541)
(0 0.00041825429 0.123195)
(0 -0.00014335305 0.11205834)
(0 0.0043672259 0.32803946)
(0 0.013309159 0.49028387)
(0 0.018836413 0.5634591)
(0 0.019658412 0.57325093)
(0 0.018236234 0.5618054)
(0 0.016653853 0.5508619)
(0 0.01532965 0.54373862)
(0 0.014119212 0.53876914)
(0 0.012938707 0.53487142)
(0 0.011773119 0.53168666)
(0 0.010620414 0.52906541)
(0 0.0094801364 0.52690461)
(0 0.0083514512 0.5251263)
(0 0.0072336364 0.52367253)
(0 0.006125953 0.52250019)
(0 0.0050274827 0.5215771)
(0 0.0039371312 0.52087947)
(0 0.00285363 0.52039024)
(0 0.001775582 0.52009798)
(0 0.00070149171 0.5199962)
(0 -0.00037014649 0.52008296)
(0 -0.0014408208 0.52036085)
(0 -0.0025119148 0.52083706)
(0 -0.0035846774 0.52152384)
(0 -0.0046601443 0.52243923)
(0 -0.0057391189 0.52360825)
(0 -0.0068221355 0.52506478)
(0 -0.0079094961 0.52685433)
(0 -0.0090014166 0.52903804)
(0 -0.010097663 0.53169734)
(0 -0.011198935 0.53494578)
(0 -0.012311005 0.53901885)
(0 -0.013476035 0.54462645)
(0 -0.014792142 0.55311688)
(0 -0.016054406 0.56287068)
(0 -0.015896526 0.55739419)
(0 -0.011978428 0.49718609)
(0 -0.0042606688 0.34554717)
(0 0.0003292087 0.12119974)
(0 -7.80776e-05 0.11021748)
(0 0.0039843757 0.32185152)
(0 0.012283164 0.48373068)
(0 0.017808378 0.56050119)
(0 0.018906207 0.57353209)
(0 0.01766551 0.56323179)
(0 0.016147086 0.55227224)
(0 0.014860051 0.54498116)
(0 0.013693753 0.53994006)
(0 0.012561285 0.53601968)
(0 0.011442673 0.53282201)
(0 0.010334879 0.53018933)
(0 0.0092371851 0.52801798)
(0 0.0081486391 0.52622986)
(0 0.0070685676 0.52476694)
(0 0.0059963912 0.52358613)
(0 0.004931456 0.52265539)
(0 0.0038730093 0.52195109)
(0 0.0028201797 0.52145628)
(0 0.0017720066 0.52115963)
(0 0.00072745695 0.5210547)
(0 -0.00031450367 0.52113955)
(0 -0.0013548883 0.5214167)
(0 -0.0023946202 0.52189324)
(0 -0.0034345129 0.52258124)
(0 -0.0044752083 0.52349856)
(0 -0.0055171749 0.52467001)
(0 -0.0065606988 0.52612925)
(0 -0.0076059336 0.52792167)
(0 -0.0086530946 0.53010835)
(0 -0.0097021137 0.53277084)
(0 -0.010754239 0.53602661)
(0 -0.011818018 0.54013366)
(0 -0.012937984 0.54584004)
(0 -0.014195765 0.55435679)
(0 -0.015325885 0.56331631)
(0 -0.014943912 0.55523092)
(0 -0.01099668 0.49158626)
(0 -0.0037942991 0.33956984)
(0 0.00025262391 0.11940465)
(0 -2.8588284e-05 0.10850604)
(0 0.0036562309 0.316174)
(0 0.011353453 0.47746884)
(0 0.016836174 0.55744235)
(0 0.018171712 0.57360885)
(0 0.01710905 0.56454221)
(0 0.015657353 0.55363307)
(0 0.014404768 0.54618443)
(0 0.013278068 0.54106713)
(0 0.012189553 0.53712254)
(0 0.011114651 0.53391301)
(0 0.010049189 0.53127072)
(0 0.0089921233 0.52909084)
(0 0.0079423589 0.527295)
(0 0.0068992152 0.52582494)
(0 0.0058622017 0.52463754)
(0 0.0048308512 0.52370076)
(0 0.0038046712 0.52299106)
(0 0.0027831039 0.52249158)
(0 0.0017655418 0.52219106)
(0 0.00075133102 0.52208307)
(0 -0.00026017477 0.52216566)
(0 -0.0012695972 0.5224413)
(0 -0.002277483 0.522917)
(0 -0.0032842944 0.5236047)
(0 -0.0042903642 0.5245221)
(0 -0.0052959087 0.52569388)
(0 -0.0063010443 0.5271536)
(0 -0.0073058475 0.52894662)
(0 -0.0083105842 0.53113409)
(0 -0.0093154122 0.53379808)
(0 -0.010322198 0.53706105)
(0 -0.011342121 0.54120427)
(0 -0.012420887 0.54700359)
(0 -0.01362071 0.55550132)
(0 -0.014622194 0.56359323)
(0 -0.014045426 0.55296672)
(0 -0.010105656 0.48622756)
(0 -0.003402792 0.33410863)
(0 0.00018878462 0.11777444)
(0 8.403344e-06 0.10691094)
(0 0.0033690302 0.31095441)
(0 0.010506301 0.47149902)
(0 0.015913032 0.55431538)
(0 0.01745184 0.57349968)
(0 0.016562868 0.5657376)
(0 0.015181198 0.55494405)
(0 0.013961975 0.54735132)
(0 0.012871551 0.54215414)
(0 0.011823736 0.53818326)
(0 0.010789883 0.53496233)
(0 0.0097645831 0.53231169)
(0 0.0087464258 0.53012478)
(0 0.0077341732 0.52832281)
(0 0.0067271051 0.5268472)
(0 0.0057247739 0.52565467)
(0 0.0047268435 0.52471314)
(0 0.0037330187 0.52399908)
(0 0.0027429895 0.52349568)
(0 0.0017564332 0.52319169)
(0 0.00077300594 0.52308071)
(0 -0.0002076199 0.52316076)
(0 -0.0011857444 0.52343427)
(0 -0.0021616071 0.52390818)
(0 -0.0031353865 0.52459433)
(0 -0.0041071712 0.52551032)
(0 -0.0050769867 0.52668077)
(0 -0.0060448327 0.52813921)
(0 -0.0070107509 0.52993109)
(0 -0.0079750783 0.53211776)
(0 -0.0089382245 0.53478213)
(0 -0.0099027061 0.53805275)
(0 -0.010882074 0.54223406)
(0 -0.011921952 0.54811846)
(0 -0.013063074 0.55655225)
(0 -0.013939155 0.56371658)
(0 -0.013193924 0.55063146)
(0 -0.0092913952 0.48111627)
(0 -0.003067525 0.32911543)
(0 0.00013693423 0.1162843)
(0 3.5809417e-05 0.10542281)
(0 0.0031131516 0.30614828)
(0 0.0097302106 0.46581936)
(0 0.015033147 0.55114859)
(0 0.016744061 0.57322197)
(0 0.016023522 0.56681892)
(0 0.014715381 0.55620391)
(0 0.013529722 0.54848348)
(0 0.0124733 0.54320386)
(0 0.011463672 0.53920445)
(0 0.010468754 0.53597215)
(0 0.0094818332 0.53331403)
(0 0.0085011107 0.53112121)
(0 0.007525218 0.52931433)
(0 0.0065533828 0.52783442)
(0 0.0055851732 0.52663792)
(0 0.0046203468 0.52569268)
(0 0.0036587596 0.52497511)
(0 0.002700299 0.52446839)
(0 0.001744873 0.52416127)
(0 0.00079239148 0.52404735)
(0 -0.0001572103 0.52412463)
(0 -0.0011039678 0.5243955)
(0 -0.0020478679 0.52486683)
(0 -0.002988858 0.52555042)
(0 -0.0039268315 0.52646381)
(0 -0.0048616643 0.52763158)
(0 -0.0057932718 0.52908736)
(0 -0.0067216804 0.53087674)
(0 -0.0076472956 0.53306141)
(0 -0.0085707793 0.53572548)
(0 -0.0094953002 0.53900444)
(0 -0.010436421 0.54322519)
(0 -0.011438444 0.54918481)
(0 -0.012519359 0.55751083)
(0 -0.013273188 0.56370012)
(0 -0.012383104 0.54825036)
(0 -0.0085421854 0.47625495)
(0 -0.0027744412 0.32454843)
(0 9.5771924e-05 0.11491688)
(0 5.6052983e-05 0.10403459)
(0 0.0028818489 0.30171806)
(0 0.009015507 0.4604264)
(0 0.014191563 0.54796659)
(0 0.016046315 0.57279223)
(0 0.015488114 0.56778738)
(0 0.014256973 0.55741074)
(0 0.013106082 0.54958156)
(0 0.012082284 0.54421828)
(0 0.011108976 0.54018808)
(0 0.01015136 0.53694419)
(0 0.0092013886 0.53427922)