/*--------------------------------*- C++ -*----------------------------------*\
  =========                 |
  \\      /  F ield         | OpenFOAM: The Open Source CFD Toolbox
   \\    /   O peration     | Website:  https://openfoam.org
    \\  /    A nd           | Version:  10
     \\/     M anipulation  |
\*---------------------------------------------------------------------------*/
FoamFile
{
    format      ascii;
    class       surfaceScalarField;
    location    "0.09";
    object      phi;
}
// * * * * * * * * * * * * * * * * * * * * * * * * * * * * * * * * * * * * * //

dimensions      [1 0 -1 0 0 0 0];

internalField   nonuniform List<scalar> 
7860
(
3.9884111e-08
5.2882394e-07
1.2183657e-08
5.9640822e-07
7.4185827e-09
5.7347281e-07
5.4887958e-09
5.7063748e-07
4.1039904e-09
5.7009247e-07
3.1901315e-09
5.696215e-07
2.5483362e-09
5.6934942e-07
2.0689064e-09
5.6918704e-07
1.6994905e-09
5.6907701e-07
1.4075409e-09
5.6899954e-07
1.171244e-09
5.6894388e-07
9.7582116e-10
5.68903e-07
8.1091444e-10
5.6887248e-07
6.6902019e-10
5.6884946e-07
5.4455278e-10
5.6883203e-07
4.332397e-10
5.6881887e-07
3.3171601e-10
5.6880908e-07
2.3724348e-10
5.6880203e-07
1.4750836e-10
5.6879729e-07
6.046854e-11
5.6879459e-07
-2.5769562e-11
5.6879379e-07
-1.1305831e-10
5.6879484e-07
-2.0331664e-10
5.6879781e-07
-2.9863451e-10
5.6880287e-07
-4.0140608e-10
5.6881033e-07
-5.1449298e-10
5.6882064e-07
-6.4144547e-10
5.6883451e-07
-7.8681563e-10
5.6885293e-07
-9.5661849e-10
5.6887737e-07
-1.1590393e-09
5.6890999e-07
-1.4056074e-09
5.6895415e-07
-1.7131679e-09
5.6901515e-07
-2.1067448e-09
5.6910117e-07
-2.6262705e-09
5.6922713e-07
-3.3541937e-09
5.6943555e-07
-4.4463131e-09
5.6979976e-07
-5.9938264e-09
5.7025518e-07
-9.4941656e-09
5.7220804e-07
-2.9558701e-08
5.8877228e-07
5.3914921e-07
5.964442e-08
4.6917972e-07
3.6632872e-08
6.1941969e-07
2.2596364e-08
5.8750929e-07
1.621994e-08
5.7701391e-07
1.2255912e-08
5.740565e-07
9.5716219e-09
5.7230579e-07
7.6434998e-09
5.7127754e-07
6.2034341e-09
5.7062711e-07
5.095741e-09
5.7018471e-07
4.2202815e-09
5.69875e-07
3.511667e-09
5.6965249e-07
2.9256802e-09
5.6948898e-07
2.4312309e-09
5.6936693e-07
2.0058028e-09
5.6927489e-07
1.6326425e-09
5.6920519e-07
1.2989362e-09
5.6915258e-07
9.945917e-10
5.6911342e-07
7.1139688e-10
5.6908522e-07
4.4241279e-10
5.6906627e-07
1.815148e-10
5.6905549e-07
-7.6976922e-11
5.6905228e-07
-3.3862007e-10
5.6905648e-07
-6.0916284e-10
5.6906835e-07
-8.9487595e-10
5.6908858e-07
-1.2029402e-09
5.6911839e-07
-1.5419381e-09
5.6915964e-07
-1.9225174e-09
5.6921509e-07
-2.3583307e-09
5.6928875e-07
-2.8674256e-09
5.6938647e-07
-3.4743685e-09
5.6951694e-07
-4.2136648e-09
5.6969344e-07
-5.1357818e-09
5.6993727e-07
-6.317474e-09
5.7028287e-07
-7.8776346e-09
5.707873e-07
-1.001967e-08
5.7157758e-07
-1.315007e-08
5.7293016e-07
-1.8083968e-08
5.7518908e-07
-2.812716e-08
5.8225123e-07
-4.5759959e-08
6.0640508e-07
4.9338926e-07
5.9966024e-08
4.0921418e-07
5.042588e-08
6.2895981e-07
3.3312207e-08
6.0462286e-07
2.4758168e-08
5.8556794e-07
1.9262352e-08
5.7955232e-07
1.5270694e-08
5.7629745e-07
1.2301212e-08
5.7424702e-07
1.0044379e-08
5.7288394e-07
8.2866835e-09
5.719424e-07
6.8849027e-09
5.7127678e-07
5.7428671e-09
5.7079453e-07
4.793729e-09
5.7043812e-07
3.9896481e-09
5.7017101e-07
3.2955689e-09
5.6996897e-07
2.6851621e-09
5.698156e-07
2.1381335e-09
5.6969961e-07
1.6383988e-09
5.6961316e-07
1.1728015e-09
5.6955082e-07
7.3017879e-10
5.6950889e-07
3.0064687e-10
5.6948502e-07
-1.2497707e-10
5.6947791e-07
-5.5568165e-10
5.6948719e-07
-1.000756e-09
5.6951343e-07
-1.4703109e-09
5.6955814e-07
-1.9758832e-09
5.6962396e-07
-2.5311966e-09
5.6971496e-07
-3.1531748e-09
5.6983707e-07
-3.863355e-09
5.6999893e-07
-4.6899399e-09
5.7021305e-07
-5.6708646e-09
5.7049786e-07
-6.85846e-09
5.7088104e-07
-8.3270945e-09
5.714059e-07
-1.0186373e-08
5.7214215e-07
-1.2598442e-08
5.7319937e-07
-1.5796805e-08
5.7477595e-07
-2.0143886e-08
5.7727724e-07
-2.661651e-08
5.816617e-07
-3.885553e-08
5.9449025e-07
-4.8097883e-08
6.1564743e-07
4.4529137e-07
5.4823656e-08
3.5439143e-07
5.7358521e-08
6.2642516e-07
4.037632e-08
6.2160486e-07
3.0689252e-08
5.9525496e-07
2.4552286e-08
5.8568929e-07
1.98619e-08
5.8098784e-07
1.6224685e-08
5.7788424e-07
1.3381863e-08
5.7572676e-07
1.1121138e-08
5.7420313e-07
9.2906694e-09
5.7310725e-07
7.7824474e-09
5.7230275e-07
6.5178669e-09
5.717027e-07
5.4389746e-09
5.712499e-07
4.5023588e-09
5.7090558e-07
3.6748322e-09
5.7064312e-07
2.9304502e-09
5.7044399e-07
2.2484123e-09
5.702952e-07
1.6115432e-09
5.7018769e-07
1.0051599e-09
5.7011528e-07
4.1619054e-10
5.7007399e-07
-1.6755058e-10
5.7006165e-07
-7.5800406e-10
5.7007764e-07
-1.3674884e-09
5.7012291e-07
-2.0093561e-09
5.7020001e-07
-2.6987466e-09
5.7031335e-07
-3.4535158e-09
5.7046973e-07
-4.2954457e-09
5.70679e-07
-5.2518806e-09
5.7095536e-07
-6.3580102e-09
5.7131918e-07
-7.6601341e-09
5.7179999e-07
-9.2202352e-09
5.7244114e-07
-1.112237e-08
5.7330804e-07
-1.3483075e-08
5.7450285e-07
-1.6464057e-08
5.7618035e-07
-2.0263647e-08
5.7857554e-07
-2.5148863e-08
5.8216246e-07
-3.2375082e-08
5.8888792e-07
-4.4957343e-08
6.0707251e-07
-4.6453167e-08
6.1714326e-07
3.9883821e-07
4.790008e-08
3.0649278e-07
5.9948378e-08
6.1437757e-07
4.5269058e-08
6.3628392e-07
3.4750313e-08
6.0577358e-07
2.8274834e-08
5.9216477e-07
2.3295524e-08
5.8596715e-07
1.9313438e-08
5.8186633e-07
1.6113417e-08
5.7892678e-07
1.3510697e-08
5.7680585e-07
1.1365703e-08
5.7525224e-07
9.5731495e-09
5.7409531e-07
8.0528458e-09
5.7322301e-07
6.7436303e-09
5.7255912e-07
5.5983619e-09
5.7205085e-07
4.5801451e-09
5.7166134e-07
3.6595804e-09
5.7136455e-07
2.8127221e-09
5.7114206e-07
2.0195384e-09
5.7098087e-07
1.2627248e-09
5.7087209e-07
5.2675739e-10
5.7080996e-07
-2.0290184e-10
5.7079131e-07
-9.4051748e-10
5.7081526e-07
-1.7007725e-09
5.7088317e-07
-2.4994939e-09
5.7099873e-07
-3.3544709e-09
5.7116833e-07
-4.2864417e-09
5.714017e-07
-5.3203361e-09
5.717129e-07
-6.4868893e-09
5.7212192e-07
-7.8247713e-09
5.7265706e-07
-9.383466e-09
5.7335868e-07
-1.1227053e-08
5.7428473e-07
-1.3438639e-08
5.7551962e-07
-1.6126857e-08
5.7719107e-07
-1.9435759e-08
5.7948925e-07
-2.3536351e-08
5.8267613e-07
-2.8730868e-08
5.8735698e-07
-3.6587955e-08
5.9674501e-07
-4.8262247e-08
6.1874681e-07
-4.307183e-08
6.1195284e-07
3.5576638e-07
4.0261421e-08
2.6623341e-07
5.8830447e-08
5.9581001e-07
4.8152227e-08
6.4696192e-07
3.7420769e-08
6.1650479e-07
3.0764383e-08
5.9882113e-07
2.5731453e-08
5.9100009e-07
2.1622097e-08
5.8597568e-07
1.8241147e-08
5.8230773e-07
1.5435596e-08
5.796114e-07
1.3083188e-08
5.7760465e-07
1.1087789e-08
5.760907e-07
9.3739253e-09
5.7493687e-07
7.8822832e-09
5.7405076e-07
6.5658001e-09
5.7336734e-07
5.3867013e-09
5.7284044e-07
4.3142309e-09
5.7243702e-07
3.3228709e-09
5.7213342e-07
2.3909392e-09
5.719128e-07
1.4994702e-09
5.7176356e-07
6.3129201e-10
5.7167814e-07
-2.2976693e-10
5.7165237e-07
-1.0995974e-09
5.7168509e-07
-1.9945147e-09
5.7177809e-07
-2.9319903e-09
5.7193621e-07
-3.9314605e-09
5.721678e-07
-5.0152771e-09
5.7248551e-07
-6.2098613e-09
5.7290748e-07
-7.5471438e-09
5.734592e-07
-9.0663657e-09
5.7417629e-07
-1.0816391e-08
5.7510871e-07
-1.2858746e-08
5.7632708e-07
-1.5271045e-08
5.7793192e-07
-1.8151081e-08
5.8007111e-07
-2.1623586e-08
5.8296175e-07
-2.5845122e-08
5.8689767e-07
-3.1222476e-08
5.9273433e-07
-3.9378892e-08
6.0490143e-07
-4.8907445e-08
6.2827536e-07
-3.8430578e-08
6.0147597e-07
3.173358e-07
3.2779985e-08
2.3345618e-07
5.5050043e-08
5.7354249e-07
4.9000943e-08
6.5301104e-07
3.8844061e-08
6.2666125e-07
3.2220391e-08
6.0544472e-07
2.7312189e-08
5.9590831e-07
2.3238515e-08
5.9004936e-07
1.9811989e-08
5.8573426e-07
1.6915582e-08
5.8250781e-07
1.4446807e-08
5.8007343e-07
1.2321645e-08
5.7821587e-07
1.047263e-08
5.7678589e-07
8.8453176e-09
5.7567807e-07
7.3953265e-09
5.7481733e-07
6.0861522e-09
5.7414961e-07
4.8874059e-09
5.7363577e-07
3.7733708e-09
5.7324745e-07
2.7218224e-09
5.7296435e-07
1.7130504e-09
5.7277233e-07
7.2902429e-10
5.7266216e-07
-2.4734138e-10
5.7262873e-07
-1.2328647e-09
5.7267061e-07
-2.2447653e-09
5.7278999e-07
-3.3013518e-09
5.7299279e-07
-4.4227672e-09
5.7328922e-07
-5.6318404e-09
5.7369459e-07
-6.9550872e-09
5.7423073e-07
-8.4239166e-09
5.7492803e-07
-1.0076085e-08
5.7582846e-07
-1.1957478e-08
5.769901e-07
-1.4124501e-08
5.7849411e-07
-1.6646981e-08
5.804544e-07
-1.9610225e-08
5.8303435e-07
-2.3115714e-08
5.8646724e-07
-2.7305343e-08
5.9108729e-07
-3.2691852e-08
5.9812084e-07
-4.065136e-08
6.1286093e-07
-4.7355074e-08
6.3497907e-07
-3.3203769e-08
5.8732467e-07
2.8413203e-07
2.6098592e-08
2.0736109e-07
4.9895272e-08
5.4974971e-07
4.8202273e-08
6.5470453e-07
3.9214604e-08
6.3564834e-07
3.2814035e-08
6.1184512e-07
2.8155047e-08
6.005673e-07
2.4244509e-08
5.9395991e-07
2.0881816e-08
5.8909696e-07
1.798552e-08
5.854041e-07
1.547604e-08
5.8258291e-07
1.328397e-08
5.8040794e-07
1.135188e-08
5.7871798e-07
9.632018e-09
5.7739793e-07
8.0843748e-09
5.7636497e-07
6.6752174e-09
5.7555877e-07
5.3758149e-09
5.7493517e-07
4.1613479e-09
5.7446192e-07
3.0099826e-09
5.7411572e-07
1.9020704e-09
5.7388025e-07
8.1944061e-10
5.7374479e-07
-2.5523879e-10
5.7370341e-07
-1.3390616e-09
5.7375444e-07
-2.4494796e-09
5.7390041e-07
-3.6049106e-09
5.7414822e-07
-4.8253857e-09
5.7450969e-07
-6.1332687e-09
5.7500247e-07
-7.5540744e-09
5.7565153e-07
-9.1174206e-09
5.7649138e-07
-1.0858142e-08
5.7756918e-07
-1.2817563e-08
5.7894952e-07
-1.5045151e-08
5.807217e-07
-1.760064e-08
5.8300989e-07
-2.0554042e-08
5.8598775e-07
-2.39814e-08
5.898946e-07
-2.8017896e-08
5.9512379e-07
-3.3259724e-08
6.0336267e-07
-4.0608551e-08
6.2020976e-07
-4.4392839e-08
6.3876336e-07
-2.8008619e-08
5.7094045e-07
2.5612341e-07
2.047274e-08
1.8689269e-07
4.4306671e-08
5.2592137e-07
4.6285015e-08
6.5272747e-07
3.8807996e-08
6.4312464e-07
3.2758632e-08
6.1789416e-07
2.840289e-08
6.0492304e-07
2.4734804e-08
5.9762801e-07
2.1515658e-08
5.923161e-07
1.8689597e-08
5.8823017e-07
1.6200099e-08
5.8507241e-07
1.399335e-08
5.8261469e-07
1.202288e-08
5.8068845e-07
1.0248636e-08
5.7917218e-07
8.6360145e-09
5.7797759e-07
7.1550321e-09
5.7703975e-07
5.7795151e-09
5.7631069e-07
4.4863552e-09
5.7575508e-07
3.2548413e-09
5.7534723e-07
2.0660483e-09
5.7506904e-07
9.0227672e-10
5.7490857e-07
-2.5347257e-10
5.7485916e-07
-1.4179985e-09
5.7491896e-07
-2.6084023e-09
5.7509081e-07
-3.8425939e-09
5.7538242e-07
-5.1398228e-09
5.7580692e-07
-6.5212489e-09
5.763839e-07
-8.0105669e-09
5.7714085e-07
-9.634697e-09
5.7811551e-07
-1.1424558e-08
5.7935904e-07
-1.3415869e-08
5.8094083e-07
-1.5650058e-08
5.8295588e-07
-1.8175478e-08
5.8553531e-07
-2.1045911e-08
5.8885819e-07
-2.4316308e-08
5.93165e-07
-2.8131091e-08
5.9893858e-07
-3.3125489e-08
6.0835707e-07
-3.9583858e-08
6.2666813e-07
-4.0678893e-08
6.398584e-07
-2.3198244e-08
5.534598e-07
2.3292517e-07
1.5909046e-08
1.7098893e-07
3.8826001e-08
5.0301202e-07
4.3687087e-08
6.4786882e-07
3.7865119e-08
6.4894584e-07
3.2257025e-08
6.2350174e-07
2.8210709e-08
6.0896931e-07
2.4817717e-08
6.0102102e-07
2.178913e-08
5.953447e-07
1.9080764e-08
5.9093853e-07
1.665596e-08
5.8749721e-07
1.4475364e-08
5.8479528e-07
1.2503052e-08
5.8266076e-07
1.0706807e-08
5.8096842e-07
9.0578292e-09
5.7962657e-07
7.5303927e-09
5.7856719e-07
6.1014233e-09
5.7773966e-07
4.7500686e-09
5.7710643e-07
3.4572673e-09
5.7664004e-07
2.2053234e-09
5.7632098e-07
9.7749271e-10
5.761364e-07
-2.4241882e-10
5.7607907e-07
-1.4704475e-09
5.7614699e-07
-2.7228693e-09
5.7634323e-07
-4.0165971e-09
5.7667614e-07
-5.3695863e-09
5.7715991e-07
-6.801257e-09
5.7781557e-07
-8.3329279e-09
5.7867252e-07
-9.9882627e-09
5.7977084e-07
-1.1793733e-08
5.8116451e-07
-1.3779046e-08
5.8292615e-07
-1.5977507e-08
5.8515435e-07
-1.8426431e-08
5.8798423e-07
-2.1164772e-08
5.9159653e-07
-2.4233866e-08
5.9623409e-07
-2.7798745e-08
6.0250345e-07
-3.2472504e-08
6.1303083e-07
-3.7872065e-08
6.3206769e-07
-3.6655375e-08
6.3864171e-07
-1.8941392e-08
5.3574582e-07
2.1398378e-07
1.2308211e-08
1.5868714e-07
3.3751595e-08
4.8157865e-07
4.0737107e-08
6.408873e-07
3.6563249e-08
6.5311903e-07
3.1462029e-08
6.2860219e-07
2.7712073e-08
6.1271915e-07
2.4595962e-08
6.0413716e-07
2.1778684e-08
5.9816198e-07
1.9215422e-08
5.9350179e-07
1.6884865e-08
5.8982777e-07
1.4759925e-08
5.8692022e-07
1.2813923e-08
5.8460676e-07
1.1021883e-08
5.8276046e-07
9.3606452e-09
5.8128781e-07
7.8088176e-09
5.8011902e-07
6.3466453e-09
5.7920183e-07
4.9558271e-09
5.7849725e-07
3.6192833e-09
5.7797658e-07
2.3208947e-09
5.7761937e-07
1.0452268e-09
5.7741207e-07
-2.2275384e-10
5.7734705e-07
-1.4979639e-09
5.774222e-07
-2.7954967e-09
5.7764076e-07
-4.1309099e-09
5.7801156e-07
-5.5205117e-09
5.7854951e-07
-6.9816428e-09
5.792767e-07
-8.5329442e-09
5.8022382e-07
-1.0194598e-08
5.814325e-07
-1.1988547e-08
5.8295846e-07
-1.3938661e-08
5.8487626e-07
-1.6070772e-08
5.8728646e-07
-1.8412402e-08
5.9032587e-07
-2.0990007e-08
5.9417413e-07
-2.3838325e-08
5.9908241e-07
-2.7145504e-08
6.0581063e-07
-3.1442452e-08
6.1732778e-07
-3.5714796e-08
6.3634004e-07
-3.2622756e-08
6.3554967e-07
-1.5298959e-08
5.1842202e-07
1.9868482e-07
9.5314315e-09
1.4916354e-07
2.9235047e-08
4.6188788e-07
3.7680944e-08
6.3244743e-07
3.5039586e-08
6.5576001e-07
3.0483464e-08
6.3315726e-07
2.7010105e-08
6.1619228e-07
2.4155122e-08
6.0699216e-07
2.1552266e-08
6.0076485e-07
1.9146721e-08
5.9590734e-07
1.6927709e-08
5.9204678e-07
1.4878066e-08
5.8896987e-07
1.29788e-08
5.8650603e-07
1.1211209e-08
5.8452805e-07
9.5572336e-09
5.8294178e-07
7.9995787e-09
5.8167668e-07
6.5217682e-09
5.8067965e-07
5.1081344e-09
5.7991089e-07
3.7437377e-09
5.7934098e-07
2.4142389e-09
5.7894887e-07
1.1057423e-09
5.7872056e-07
-1.9538238e-10
5.7864818e-07
-1.5026859e-09
5.7872951e-07
-2.8298351e-09
5.7896791e-07
-4.1908014e-09
5.7937252e-07
-5.6000392e-09
5.7995875e-07
-7.0726484e-09
5.8074931e-07
-8.6245067e-09
5.8177568e-07
-1.0272357e-08
5.8308035e-07
-1.2033845e-08
5.8471995e-07
-1.3927524e-08
5.8676994e-07
-1.5972683e-08
5.8933162e-07
-1.8188514e-08
5.925417e-07
-2.0591612e-08
5.9657723e-07
-2.321601e-08
6.0170681e-07
-2.6268795e-08
6.0886342e-07
-3.0152415e-08
6.212114e-07
-3.3315345e-08
6.3950297e-07
-2.8785166e-08
6.3101949e-07
-1.2265613e-08
5.0190247e-07
1.864192e-07
7.4298242e-09
1.4174337e-07
2.532344e-08
4.4401048e-07
3.4688663e-08
6.2309079e-07
3.3402954e-08
6.5704588e-07
2.9402925e-08
6.3715594e-07
2.6183473e-08
6.1941134e-07
2.3563833e-08
6.0961181e-07
2.1166794e-08
6.0316191e-07
1.8921212e-08
5.9815292e-07
1.6821928e-08
5.9414606e-07
1.4859404e-08
5.9093239e-07
1.3020803e-08
5.8834463e-07
1.1292611e-08
5.8625625e-07
9.6611636e-09
5.8457323e-07
8.1128382e-09
5.83225e-07
6.6342215e-09
5.8215826e-07
5.2122032e-09
5.8133291e-07
3.8340022e-09
5.8071918e-07
2.4871403e-09
5.8029574e-07
1.159379e-09
5.8004832e-07
-1.6136969e-10
5.7996893e-07
-1.4871444e-09
5.8005528e-07
-2.8300461e-09
5.8031082e-07
-4.2023402e-09
5.8074482e-07
-5.616546e-09
5.8137296e-07
-7.0855024e-09
5.8221827e-07
-8.6223983e-09
5.8331258e-07
-1.024075e-08
5.846987e-07
-1.1954324e-08
5.8643352e-07
-1.3777026e-08
5.8859264e-07
-1.5722618e-08
5.9127721e-07
-1.7803493e-08
5.9462257e-07
-2.0029308e-08
5.9880305e-07
-2.2438137e-08
6.0411564e-07
-2.5247551e-08
6.1167283e-07
-2.8702321e-08
6.2466617e-07
-3.0834329e-08
6.4163497e-07
-2.5263905e-08
6.2544907e-07
-9.794132e-09
4.8643269e-07
1.7662507e-07
5.8628438e-09
1.3589261e-07
2.1994523e-08
4.2789904e-07
3.1861265e-08
6.1323581e-07
3.1732682e-08
6.5717549e-07
2.8279077e-08
6.4060791e-07
2.5290966e-08
6.2239886e-07
2.287633e-08
6.1202644e-07
2.0668967e-08
6.053693e-07
1.8578353e-08
6.0024355e-07
1.6600349e-08
5.9612407e-07
1.4730811e-08
5.9280193e-07
1.2961604e-08
5.9011384e-07
1.1283319e-08
5.8793453e-07
9.6859208e-09
5.8617063e-07
8.158954e-09
5.8475197e-07
6.6917481e-09
5.8362547e-07
5.2735692e-09
5.8275109e-07
3.893712e-09
5.8209904e-07
2.5415436e-09
5.816479e-07
1.2065108e-09
5.8138336e-07
-1.2188022e-10
5.8129732e-07
-1.454096e-09
5.813875e-07
-2.8006198e-09
5.8165734e-07
-4.1719833e-09
5.8211618e-07
-5.5787863e-09
5.8277976e-07
-7.0316899e-09
5.8367117e-07
-8.5413739e-09
5.8482226e-07
-1.0118446e-08
5.8627577e-07
-1.1773295e-08
5.8808837e-07
-1.3515931e-08
5.9033528e-07
-1.535563e-08
5.9311691e-07
-1.7299566e-08
5.9656651e-07
-1.9353436e-08
6.0085692e-07
-2.1562521e-08
6.0632472e-07
-2.4143991e-08
6.142543e-07
-2.7171619e-08
6.2769379e-07
-2.8384893e-08
6.4284825e-07
-2.211326e-08
6.1917743e-07
-7.8155931e-09
4.7213503e-07
1.6880948e-07
4.7078969e-09
1.3120009e-07
1.9189353e-08
4.1344268e-07
2.9246147e-08
6.0319468e-07
3.0079951e-08
6.5634395e-07
2.7149969e-08
6.4353601e-07
2.4373461e-08
6.251745e-07
2.2133606e-08
6.1426623e-07
2.009595e-08
6.07407e-07
1.8150699e-08
6.0218881e-07
1.6290941e-08
5.9798383e-07
1.4515879e-08
5.9457699e-07
1.2820768e-08
5.9180895e-07
1.1199295e-08
5.89556e-07
9.6443023e-09
5.8772562e-07
8.1479669e-09
5.862483e-07
6.7019938e-09
5.8507144e-07
5.2977822e-09
5.841553e-07
3.9265526e-09
5.8347027e-07
2.5794326e-09
5.8299502e-07
1.2475128e-09
5.8271528e-07
-7.8123546e-11
5.8262296e-07
-1.4063799e-09
5.8271575e-07
-2.7461397e-09
5.829971e-07
-4.1062431e-09
5.8347629e-07
-5.4954566e-09
5.8416898e-07
-6.9224162e-09
5.8509813e-07
-8.3955382e-09
5.8629539e-07
-9.9228928e-09
5.8780313e-07
-1.1512036e-08
5.8967751e-07
-1.3169835e-08
5.9199308e-07
-1.4902097e-08
5.9484917e-07
-1.6712283e-08
5.9837669e-07
-1.8604787e-08
6.0274942e-07
-2.0633464e-08
6.083534e-07
-2.3003587e-08
6.1662443e-07
-2.5617939e-08
6.3030815e-07
-2.6038072e-08
6.4326838e-07
-1.9341691e-08
6.1248105e-07
-6.2539832e-09
4.5904732e-07
1.625555e-07
3.862813e-09
1.2735724e-07
1.6835132e-08
4.0050139e-07
2.6856418e-08
5.931938e-07
2.8474196e-08
6.5473016e-07
2.6037339e-08
6.4597081e-07
2.3456711e-08
6.2775393e-07
2.1364659e-08
6.1635814e-07
1.9475942e-08
6.0929576e-07
1.7664135e-08
6.0400063e-07
1.5916787e-08
5.9973117e-07
1.4234704e-08
5.9625908e-07
1.2615424e-08
5.9342823e-07
1.1054857e-08
5.9111657e-07
9.5480347e-09
5.8923245e-07
8.0892527e-09
5.8770709e-07
6.672212e-09
5.8648848e-07
5.2901745e-09
5.8553734e-07
3.9360965e-09
5.8482434e-07
2.602736e-09
5.8432839e-07
1.2827366e-09
5.8403528e-07
-3.1308222e-11
5.83937e-07
-1.3468034e-09
5.8403125e-07
-2.6710977e-09
5.843214e-07
-4.0114331e-09
5.8481662e-07
-5.3748772e-09
5.8553242e-07
-6.7682345e-09
5.8649149e-07
-8.1979362e-09
5.8772509e-07
-9.6699027e-09
5.8927509e-07
-1.1189387e-08
5.91197e-07
-1.276082e-08
5.9356451e-07
-1.4387446e-08
5.964758e-07
-1.6070335e-08
6.0005958e-07
-1.7814695e-08
6.0449378e-07
-1.9682718e-08
6.1022143e-07
-2.1857216e-08
6.1879892e-07
-2.4080011e-08
6.3253094e-07
-2.3832615e-08
6.4302099e-07
-1.692986e-08
6.055783e-07
-5.034655e-09
4.4715211e-07
1.5752084e-07
3.2451425e-09
1.2413831e-07
1.4857775e-08
3.8892714e-07
2.4684604e-08
5.8339311e-07
2.6929618e-08
6.524914e-07
2.4951596e-08
6.4794671e-07
2.2555174e-08
6.3014877e-07
2.0588663e-08
6.1832439e-07
1.8829327e-08
6.1105514e-07
1.713845e-08
6.0569153e-07
1.5496314e-08
6.0137331e-07
1.3903898e-08
5.9785149e-07
1.2360151e-08
5.9497198e-07
1.086249e-08
5.9261423e-07
9.4075601e-09
5.9068738e-07
7.9913077e-09
5.8912334e-07
6.6090718e-09
5.8787072e-07
5.2557037e-09
5.868907e-07
3.9256897e-09
5.8615436e-07
2.6132618e-09
5.8564081e-07
1.3124943e-09
5.8533605e-07
1.7388339e-11
5.8523211e-07
-1.2780557e-09
5.8532669e-07
-2.5797585e-09
5.856231e-07
-3.8934885e-09
5.8613035e-07
-5.2247742e-09
5.8686371e-07
-6.5788018e-09
5.8784552e-07
-7.9602993e-09
5.8910659e-07
-9.3734092e-09
5.906882e-07
-1.0821561e-08
5.9264515e-07
-1.2307358e-08
5.9505031e-07
-1.383224e-08
5.9800068e-07
-1.539599e-08
6.0162333e-07
-1.7006138e-08
6.0610393e-07
-1.8731756e-08
6.1194705e-07
-2.0724495e-08
6.2079166e-07
-2.2581866e-08
6.3438831e-07
-2.1784536e-08
6.4222365e-07
-1.4843108e-08
5.9863687e-07
-4.0889673e-09
4.3639797e-07
1.5343187e-07
2.79043e-09
1.2138219e-07
1.3188542e-08
3.785766e-07
2.2711977e-08
5.7390277e-07
2.5450157e-08
6.4976243e-07
2.3895696e-08
6.4949915e-07
2.1675481e-08
6.3236696e-07
1.9817391e-08
6.2018207e-07
1.8170218e-08
6.1270235e-07
1.6588285e-08
6.0727349e-07
1.5043817e-08
6.0291778e-07
1.3536844e-08
5.9935846e-07
1.2067051e-08
5.9644177e-07
1.0632827e-08
5.9404846e-07
9.2319558e-09
5.9208825e-07
7.861645e-09
5.9049365e-07
6.5185516e-09
5.8921381e-07
5.1988601e-09
5.882104e-07
3.8983816e-09
5.8745484e-07
2.6126569e-09
5.8692654e-07
1.3370528e-09
5.8661165e-07
6.685481e-11
5.8650231e-07
-1.2026467e-09
5.865962e-07
-2.4760696e-09
5.8689652e-07
-3.7578504e-09
5.8741213e-07
-5.0521491e-09
5.8815801e-07
-6.3627457e-09
5.8915611e-07
-7.6929316e-09
5.9043677e-07
-9.045404e-09
5.9204068e-07
-1.0422179e-08
5.9402193e-07
-1.1824524e-08
5.9645265e-07
-1.3252679e-08
5.9942884e-07
-1.470602e-08
6.0307668e-07
-1.6195319e-08
6.0759323e-07
-1.7794223e-08
6.1354595e-07
-1.9616744e-08
6.2261418e-07
-2.1136473e-08
6.3590804e-07
-1.9894446e-08
6.4098163e-07
-1.303986e-08
5.9178229e-07
-3.3567949e-09
4.2671491e-07
1.5007508e-07
2.4498619e-09
1.1897647e-07
1.1767359e-08
3.6931822e-07
2.0914901e-08
5.6479675e-07
2.403326e-08
6.4665701e-07
2.2867881e-08
6.5066283e-07
2.0819039e-08
6.3441331e-07
1.9057263e-08
6.2194323e-07
1.7507939e-08
6.142517e-07
1.6024175e-08
6.0875729e-07
1.4570146e-08
6.0437182e-07
1.314411e-08
6.007845e-07
1.1745986e-08
5.978399e-07
1.0374749e-08
5.9541969e-07
9.0289615e-09
5.9343404e-07
7.7067771e-09
5.9181584e-07
6.4059013e-09
5.9051469e-07
5.1236241e-09
5.8949267e-07
3.8568905e-09
5.8872157e-07
2.6023868e-09
5.8818104e-07
1.3566303e-09
5.8785741e-07
1.1606067e-10
5.8774288e-07
-1.1228709e-09
5.8783513e-07
-2.3636102e-09
5.8813726e-07
-3.6094072e-09
5.8865793e-07
-4.8632225e-09
5.8941182e-07
-6.1276287e-09
5.9042052e-07
-7.4047179e-09
5.9171386e-07
-8.6960245e-09
5.9333198e-07
-1.0002482e-08
5.9532838e-07
-1.1324401e-08
5.9777457e-07
-1.2661286e-08
6.0076572e-07
-1.4012752e-08
6.0442814e-07
-1.539319e-08
6.0897367e-07
-1.6878014e-08
6.1503077e-07
-1.8539365e-08
6.2427554e-07
-1.9748897e-08
6.3711758e-07
-1.815348e-08
6.3938621e-07
-1.1477403e-08
5.8510621e-07
-2.7875185e-09
4.1802502e-07
1.4728756e-07
2.1875073e-09
1.1684437e-07
1.0543879e-08
3.6103536e-07
1.9268924e-08
5.5612347e-07
2.2672825e-08
6.4327071e-07
2.1863751e-08
6.514708e-07
1.9983987e-08
6.3629007e-07
1.8310974e-08
6.2361537e-07
1.6848287e-08
6.1571438e-07
1.5453494e-08
6.1015213e-07
1.4083397e-08
6.0574192e-07
1.2733924e-08
6.0213397e-07
1.1404885e-08
5.9916894e-07
1.0095575e-08
5.9672901e-07
8.8050819e-09
5.9472453e-07
7.5322638e-09
5.9308865e-07
6.275657e-09
5.917713e-07
5.0334646e-09
5.9073487e-07
3.8035953e-09
5.8995144e-07
2.5837293e-09
5.8940091e-07
1.3713962e-09
5.8906974e-07
1.6406004e-10
5.8895021e-07
-1.0407949e-09
5.8903998e-07
-2.2455738e-09
5.8934204e-07
-3.4524827e-09
5.8986484e-07
-4.663439e-09
5.9062278e-07
-5.8799858e-09
5.9163707e-07
-7.1032183e-09
5.929371e-07
-8.3337362e-09
5.945625e-07
-9.5716435e-09
5.9656629e-07
-1.0816569e-08
5.990195e-07
-1.2067604e-08
6.0201676e-07
-1.3325043e-08
6.0568558e-07
-1.4606791e-08
6.1025542e-07
-1.5987028e-08
6.1641101e-07
-1.7493877e-08
6.2578238e-07
-1.841914e-08
6.3804284e-07
-1.654791e-08
6.3751498e-07
-1.0115506e-08
5.7867381e-07
-2.3399109e-09
4.1024943e-07
1.4494765e-07
1.977576e-09
1.1493459e-07
9.477099e-09
3.5362711e-07
1.7751116e-08
5.4791365e-07
2.1361333e-08
6.3968389e-07
2.0877832e-08
6.5195414e-07
1.9166717e-08
6.3799766e-07
1.7578823e-08
6.2520207e-07
1.619458e-08
6.1709856e-07
1.4881286e-08
6.1146548e-07
1.3589539e-08
6.0703368e-07
1.2312643e-08
6.0341087e-07
1.1050074e-08
6.004315e-07
9.8012881e-09
5.9797779e-07
8.5657347e-09
5.9596008e-07
7.3428026e-09
5.9431159e-07
6.1316938e-09
5.9298241e-07
4.9313677e-09
5.9193519e-07
3.7405512e-09
5.9114226e-07
2.5577832e-09
5.9058368e-07
1.381478e-09
5.9024605e-07
2.1000081e-10
5.9012169e-07
-9.5825324e-10
5.9020824e-07
-2.124774e-09
5.9050856e-07
-3.2908546e-09
5.9103092e-07
-4.4575106e-09
5.9178944e-07
-5.6254082e-09
5.9280496e-07
-6.7948102e-09
5.941065e-07
-7.9655576e-09
5.9573325e-07
-9.1371053e-09
5.9773784e-07
-1.0308581e-08
6.0019097e-07
-1.1478869e-08
6.0318705e-07
-1.2649181e-08
6.0685589e-07
-1.3840462e-08
6.114467e-07
-1.5122689e-08
6.1769324e-07
-1.6479658e-08
6.2713935e-07
-1.7144535e-08
6.3870772e-07
-1.5062522e-08
6.3543297e-07
-8.9186488e-09
5.7252993e-07
-1.981461e-09
4.0331224e-07
1.4296619e-07
1.8019946e-09
1.1321373e-07
8.5342678e-09
3.4700777e-07
1.6341208e-08
5.40186e-07
2.009126e-08
6.3596434e-07
1.9904688e-08
6.5214194e-07
1.8363029e-08
6.3953529e-07
1.6859789e-08
6.2670374e-07
1.5548555e-08
6.1840966e-07
1.4310986e-08
6.1270311e-07
1.3092997e-08
6.0825169e-07
1.18852e-08
6.0461867e-07
1.0686611e-08
6.0163009e-07
9.4967807e-09
5.9916762e-07
8.3154234e-09
5.9714144e-07
7.1423499e-09
5.9548466e-07
5.9773073e-09
5.9414745e-07
4.8198903e-09
5.9309261e-07
3.6695248e-09
5.9229262e-07
2.5254913e-09
5.9172771e-07
1.3869747e-09
5.9138456e-07
2.531291e-10
5.9125554e-07
-8.7685266e-10
5.9133822e-07
-2.0036595e-09
5.9163537e-07
-3.1277899e-09
5.9215505e-07
-4.2494801e-09
5.9291113e-07
-5.368646e-09
5.9392413e-07
-6.4848474e-09
5.952227e-07
-7.5972942e-09
5.968457e-07
-8.7049102e-09
5.9884546e-07
-9.8064236e-09
6.0129249e-07
-1.090062e-08
6.0428124e-07
-1.1989694e-08
6.0794497e-07
-1.3096875e-08
6.1255388e-07
-1.4285205e-08
6.1888157e-07
-1.5495358e-08
6.2834951e-07
-1.5921589e-08
6.3913395e-07
-1.3682835e-08
6.3319422e-07
-7.8569139e-09
5.6670401e-07
-1.6873851e-09
3.9714271e-07
1.4127881e-07
1.6483752e-09
1.1166071e-07
7.6895964e-09
3.4110553e-07
1.5022024e-08
5.3295109e-07
1.8855978e-08
6.3216954e-07
1.8939692e-08
6.5206137e-07
1.7568967e-08
6.4090152e-07
1.6152369e-08
6.2811834e-07
1.4911104e-08
6.1965069e-07
1.3745036e-08
6.1386925e-07
1.2597155e-08
6.093996e-07
1.1455504e-08
6.0576033e-07
1.0318607e-08
6.0276699e-07
9.1860949e-09
6.0030013e-07
8.0579203e-09
5.9826962e-07
6.9342542e-09
5.9660833e-07
5.8153104e-09
5.9526639e-07
4.7012301e-09
5.9420669e-07
3.5920427e-09
5.9340181e-07
2.4876731e-09
5.9283208e-07
1.3879776e-09
5.9248426e-07
2.9279838e-10
5.9235072e-07
-7.9797486e-10
5.9242899e-07
-1.8843328e-09
5.9272173e-07
-2.9660832e-09
5.932368e-07
-4.042787e-09
5.9398783e-07
-5.1137125e-09
5.9499506e-07
-6.1778143e-09
5.962868e-07
-7.233758e-09
5.9790164e-07
-8.2800033e-09
5.998917e-07
-9.3149204e-09
6.0232741e-07
-1.0337226e-08
6.0530355e-07
-1.1350021e-08
6.0895776e-07
-1.2377884e-08
6.1358174e-07
-1.347453e-08
6.1997822e-07
-1.4539941e-08
6.2941492e-07
-1.4747317e-08
6.3934133e-07
-1.2396476e-08
6.3084338e-07
-6.9061073e-09
5.6121364e-07
-1.4394957e-09
3.916761e-07
1.3983931e-07
1.508366e-09
1.1026272e-07
6.9230104e-09
3.3586069e-07
1.3779572e-08
5.2621392e-07
1.7650332e-08
6.2834839e-07
1.7979549e-08
6.5173783e-07
1.6781429e-08
6.4209476e-07
1.5455225e-08
6.2944204e-07
1.4282854e-08
6.2082268e-07
1.3185395e-08
6.1496677e-07
1.2104782e-08
6.1048025e-07
1.1026795e-08
6.0683832e-07
9.949496e-09
6.0384429e-07
8.8726396e-09
6.0137699e-07
7.7964292e-09
5.9934583e-07
6.721378e-09
5.9768338e-07
5.6481219e-09
5.9633965e-07
4.5772869e-09
5.9527753e-07
3.5094335e-09
5.9446967e-07
2.4450509e-09
5.9389647e-07
1.3845819e-09
5.9354473e-07
3.2846925e-10
5.9340683e-07
-7.2279006e-10
5.9348025e-07
-1.7685792e-09
5.9376752e-07
-2.8081048e-09
5.9427633e-07
-3.84034e-09
5.9502007e-07
-4.8639878e-09
5.9601871e-07
-5.8774695e-09
5.9730028e-07
-6.8789614e-09
5.9890313e-07
-7.8664882e-09
6.0087923e-07
-8.8380606e-09
6.0329898e-07
-9.7922978e-09
6.0625779e-07
-1.0733025e-08
6.0989849e-07
-1.1685131e-08
6.1453385e-07
-1.2691052e-08
6.2098414e-07
-1.3613411e-08
6.3033728e-07
-1.3620145e-08
6.3934806e-07
-1.119402e-08
6.2841725e-07
-6.0476299e-09
5.5606725e-07
-1.2247818e-09
3.8685325e-07
1.3861453e-07
1.3763854e-09
1.0901226e-07
6.2190926e-09
3.3122358e-07
1.2603007e-08
5.1997537e-07
1.6471045e-08
6.2454249e-07
1.7022685e-08
6.5119514e-07
1.5998607e-08
6.4311367e-07
1.4767647e-08
6.3066997e-07
1.3664592e-08
6.219252e-07
1.2633899e-08
6.1599751e-07
1.1618346e-08
6.1149584e-07
1.0601897e-08
6.0785477e-07
9.5822458e-09
6.0486394e-07
8.5593445e-09
6.0239989e-07
7.5336986e-09
6.0037147e-07
6.5061756e-09
5.987109e-07
5.4778153e-09
5.9736801e-07
4.4496892e-09
5.9630565e-07
3.422835e-09
5.9549652e-07
2.3982414e-09
5.9492106e-07
1.3768664e-09
5.9456611e-07
3.5967687e-10
5.9442402e-07
-6.5230147e-10
5.9449223e-07
-1.6579238e-09
5.9477314e-07
-2.6558731e-09
5.9527428e-07
-3.6446089e-09
5.960088e-07
-4.6223341e-09
5.9699643e-07
-5.5869898e-09
5.9826494e-07
-6.5362955e-09
5.9985244e-07
-7.4678451e-09
6.0181078e-07
-8.3792616e-09
6.042104e-07
-9.2690018e-09
6.0714753e-07
-1.0141354e-08
6.1077084e-07
-1.1020465e-08
6.1541296e-07
-1.1936016e-08
6.2189969e-07
-1.2717256e-08
6.3111852e-07
-1.2540476e-08
6.3917128e-07
-1.0069442e-08
6.2594622e-07
-5.2682637e-09
5.5126608e-07
-1.0343928e-09
3.8261938e-07
1.3758014e-07
1.24874e-09
1.0790505e-07
5.5663037e-09
3.271522e-07
1.1484607e-08
5.1423285e-07
1.5317033e-08
6.2078703e-07
1.6069529e-08
6.5045572e-07
1.5220283e-08
6.4395762e-07
1.408986e-08
6.3179677e-07
1.305754e-08
6.2295677e-07
1.2092497e-08
6.1696259e-07
1.1140208e-08
6.1244818e-07
1.0183377e-08
6.0881161e-07
9.2194721e-09
6.0582785e-07
8.2487448e-09
6.0337062e-07
7.2720756e-09
6.0134814e-07
6.2907195e-09
5.9969226e-07
5.3061221e-09
5.9835261e-07
4.319778e-09
5.97292e-07
3.3331618e-09
5.9648314e-07
2.3477097e-09
5.9590651e-07
1.364834e-09
5.9554898e-07
3.8595947e-10
5.954029e-07
-5.8742873e-10
5.9546562e-07
-1.5537278e-09
5.9573944e-07
-2.5111653e-09
5.9623172e-07
-3.4577499e-09
5.9695539e-07
-4.3912392e-09
5.9792992e-07
-5.3091336e-09
5.9918284e-07
-6.2087151e-09
6.0075202e-07
-7.0871369e-09
6.026892e-07
-7.9415942e-09
6.0506485e-07
-8.7702967e-09
6.0797623e-07
-9.5776945e-09
6.1157824e-07
-1.038619e-08
6.1622146e-07
-1.1211749e-08
6.2272525e-07
-1.1854661e-08
6.3176143e-07
-1.1510974e-08
6.388276e-07
-9.0202787e-09
6.2345552e-07
-4.559916e-09
5.4680571e-07
-8.6365535e-10
3.7892312e-07
1.3671648e-07
1.1231033e-09
1.0693847e-07
4.9565204e-09
3.2360967e-07
1.0419844e-08
5.0898029e-07
1.4189696e-08
6.1711144e-07
1.5122739e-08
6.4954081e-07
1.4448024e-08
6.4462713e-07
1.3423224e-08
6.3281734e-07
1.246353e-08
6.2391548e-07
1.1563408e-08
6.1786271e-07
1.0672753e-08
6.1333888e-07
9.7736547e-09
6.0971072e-07