/*--------------------------------*- C++ -*----------------------------------*\
  =========                 |
  \\      /  F ield         | OpenFOAM: The Open Source CFD Toolbox
   \\    /   O peration     | Website:  https://openfoam.org
    \\  /    A nd           | Version:  10
     \\/     M anipulation  |
\*---------------------------------------------------------------------------*/
FoamFile
{
    format      ascii;
    class       surfaceScalarField;
    location    "0.09";
    object      phi_0;
}
// * * * * * * * * * * * * * * * * * * * * * * * * * * * * * * * * * * * * * //

dimensions      [1 0 -1 0 0 0 0];

internalField   nonuniform List<scalar> 
7860
(
3.9883492e-08
5.2882457e-07
1.2183189e-08
5.9640806e-07
7.4181061e-09
5.7347282e-07
5.488255e-09
5.7063755e-07
4.103433e-09
5.7009249e-07
3.1895759e-09
5.696215e-07
2.5477916e-09
5.6934941e-07
2.0683817e-09
5.6918702e-07
1.6989931e-09
5.6907699e-07
1.4070769e-09
5.6899951e-07
1.1708187e-09
5.6894384e-07
9.7543903e-10
5.6890295e-07
8.1057928e-10
5.6887243e-07
6.6873523e-10
5.6884941e-07
5.4432076e-10
5.6883198e-07
4.3306302e-10
5.6881882e-07
3.3159668e-10
5.6880902e-07
2.3718319e-10
5.6880197e-07
1.4750856e-10
5.6879723e-07
6.0530434e-11
5.6879453e-07
-2.5645044e-11
5.6879373e-07
-1.1287046e-10
5.6879478e-07
-2.0306508e-10
5.6879775e-07
-2.9831914e-10
5.6880281e-07
-4.0102719e-10
5.6881026e-07
-5.1405133e-10
5.6882058e-07
-6.409424e-10
5.6883445e-07
-7.862532e-10
5.6885287e-07
-9.5599962e-10
5.6887731e-07
-1.158368e-09
5.6890994e-07
-1.404889e-09
5.689541e-07
-1.7124096e-09
5.6901511e-07
-2.105956e-09
5.6910114e-07
-2.6254635e-09
5.6922712e-07
-3.353383e-09
5.6943554e-07
-4.4455255e-09
5.6979979e-07
-5.9931274e-09
5.7025527e-07
-9.493517e-09
5.7220809e-07
-2.9557882e-08
5.8877211e-07
5.3915003e-07
5.9642951e-08
4.6918182e-07
3.6631156e-08
6.1941978e-07
2.2594731e-08
5.8750921e-07
1.6218225e-08
5.7701406e-07
1.2254157e-08
5.7405656e-07
9.5698718e-09
5.7230579e-07
7.6417868e-09
5.7127749e-07
6.2017856e-09
5.7062702e-07
5.0941793e-09
5.7018459e-07
4.2188255e-09
5.6987486e-07
3.5103327e-09
5.6965233e-07
2.9244812e-09
5.6948881e-07
2.4301788e-09
5.6936673e-07
2.0049074e-09
5.6927468e-07
1.6319122e-09
5.6920497e-07
1.2983783e-09
5.6915235e-07
9.9421241e-10
5.6911319e-07
7.1120135e-10
5.6908498e-07
4.4240551e-10
5.6906602e-07
1.8169946e-10
5.6905524e-07
-7.6597363e-11
5.6905202e-07
-3.3804337e-10
5.6905622e-07
-6.0838754e-10
5.6906809e-07
-8.9390167e-10
5.6908832e-07
-1.2017675e-09
5.6911813e-07
-1.5405692e-09
5.6915938e-07
-1.920956e-09
5.6921484e-07
-2.356583e-09
5.692885e-07
-2.8655001e-09
5.6938623e-07
-3.4722773e-09
5.6951672e-07
-4.2114242e-09
5.6969325e-07
-5.1334133e-09
5.699371e-07
-6.315006e-09
5.7028274e-07
-7.8751051e-09
5.7078722e-07
-1.0017127e-08
5.7157757e-07
-1.3147582e-08
5.7293024e-07
-1.8081623e-08
5.7518931e-07
-2.8124818e-08
5.8225128e-07
-4.5757906e-08
6.064052e-07
4.9339213e-07
5.9963775e-08
4.0921856e-07
5.0422682e-08
6.2896085e-07
3.3309192e-08
6.0462259e-07
2.4755122e-08
5.8556812e-07
1.9259255e-08
5.7955243e-07
1.5267615e-08
5.7629743e-07
1.2298207e-08
5.742469e-07
1.0041491e-08
5.7288374e-07
8.2839521e-09
5.7194213e-07
6.8823586e-09
5.7127645e-07
5.7405371e-09
5.7079415e-07
4.7916358e-09
5.7043771e-07
3.987811e-09
5.7017056e-07
3.2940044e-09
5.6996849e-07
2.6838843e-09
5.6981509e-07
2.1371544e-09
5.6969908e-07
1.6377286e-09
5.6961261e-07
1.1724491e-09
5.6955026e-07
7.3015165e-10
5.6950832e-07
3.0095141e-10
5.6948444e-07
-1.2433558e-10
5.6947731e-07
-5.546992e-10
5.6948659e-07
-9.9942968e-10
5.6951282e-07
-1.4686396e-09
5.6955753e-07
-1.9738674e-09
5.6962336e-07
-2.5288391e-09
5.6971436e-07
-3.1504814e-09
5.6983648e-07
-3.8603349e-09
5.6999836e-07
-4.6866068e-09
5.702125e-07
-5.6672381e-09
5.7049735e-07
-6.8545664e-09
5.7088058e-07
-8.322969e-09
5.714055e-07
-1.0182062e-08
5.7214183e-07
-1.2594007e-08
5.7319916e-07
-1.5792328e-08
5.7477589e-07
-2.0139475e-08
5.7727739e-07
-2.6612221e-08
5.8166206e-07
-3.8851134e-08
5.944902e-07
-4.8094535e-08
6.156486e-07
4.4529759e-07
5.4820731e-08
3.5439879e-07
5.7353616e-08
6.2642819e-07
4.0371594e-08
6.216044e-07
3.0684658e-08
5.9525501e-07
2.454766e-08
5.8568943e-07
1.9857319e-08
5.8098777e-07
1.6220227e-08
5.77884e-07
1.3377591e-08
5.7572637e-07
1.1117104e-08
5.7420262e-07
9.2869168e-09
5.7310664e-07
7.7790138e-09
5.7230206e-07
6.5147837e-09
5.7170194e-07
5.4362687e-09
5.7124907e-07
4.5000531e-09
5.709047e-07
3.6729459e-09
5.706422e-07
2.9289999e-09
5.7044303e-07
2.2474123e-09
5.702942e-07
1.6110058e-09
5.7018667e-07
1.0050959e-09
5.7011423e-07
4.166089e-10
5.7007292e-07
-1.6664197e-10
5.7006056e-07
-7.5659893e-10
5.7007654e-07
-1.365582e-09
5.7012181e-07
-2.0069457e-09
5.701989e-07
-2.6958319e-09
5.7031224e-07
-3.4500994e-09
5.7046862e-07
-4.2915341e-09
5.7067792e-07
-5.2474852e-09
5.7095431e-07
-6.3531485e-09
5.7131817e-07
-7.6548314e-09
5.7179903e-07
-9.2145266e-09
5.7244027e-07
-1.1116302e-08
5.7330728e-07
-1.3476711e-08
5.7450224e-07
-1.6457478e-08
5.7617993e-07
-2.0256967e-08
5.7857538e-07
-2.5142218e-08
5.8216264e-07
-3.2368396e-08
5.8888823e-07
-4.4950455e-08
6.0707226e-07
-4.6448479e-08
6.1714662e-07
3.9884912e-07
4.7896597e-08
3.0650371e-07
5.9941634e-08
6.143839e-07
4.5262237e-08
6.3628352e-07
3.4743876e-08
6.0577323e-07
2.8268451e-08
5.9216485e-07
2.3289229e-08
5.85967e-07
1.9307335e-08
5.8186589e-07
1.6107585e-08
5.7892612e-07
1.3505202e-08
5.7680501e-07
1.13606e-08
5.7525124e-07
9.5684858e-09
5.7409417e-07
8.0486611e-09
5.7322176e-07
6.7399582e-09
5.7255778e-07
5.5952309e-09
5.7204943e-07
4.5775794e-09
5.7165985e-07
3.6576008e-09
5.7136301e-07
2.8113466e-09
5.7114046e-07
2.0187824e-09
5.7097923e-07
1.2626022e-09
5.7087041e-07
5.2728032e-10
5.7080825e-07
-2.0172284e-10
5.7078957e-07
-9.3867337e-10
5.708135e-07
-1.6982561e-09
5.7088139e-07
-2.4963e-09
5.7099694e-07
-3.3505971e-09
5.7116654e-07
-4.2818892e-09
5.7139992e-07
-5.3151107e-09
5.7171114e-07
-6.4810027e-09
5.721202e-07
-7.818243e-09
5.7265541e-07
-9.376325e-09
5.7335712e-07
-1.121934e-08
5.7428329e-07
-1.3430411e-08
5.7551835e-07
-1.6118189e-08
5.7719002e-07
-1.942675e-08
5.7948849e-07
-2.3527142e-08
5.8267577e-07
-2.8721577e-08
5.8735708e-07
-3.6578311e-08
5.9674497e-07
-4.8252481e-08
6.1874643e-07
-4.3065804e-08
6.1195995e-07
3.5578331e-07
4.0257449e-08
2.6624844e-07
5.8821795e-08
5.9582111e-07
4.814293e-08
6.4696216e-07
3.7412128e-08
6.1650377e-07
3.0755968e-08
5.9882099e-07
2.57232e-08
5.9099977e-07
2.1614125e-08
5.8597497e-07
1.8233552e-08
5.823067e-07
1.5428457e-08
5.796101e-07
1.3076571e-08
5.7760313e-07
1.1081751e-08
5.7608899e-07
9.3685116e-09
5.74935e-07
7.877534e-09
5.7404875e-07
6.5617486e-09
5.7336522e-07
5.3833759e-09
5.7283822e-07
4.3116558e-09
5.7243473e-07
3.3210671e-09
5.7213105e-07
2.3899253e-09
5.7191037e-07
1.499263e-09
5.7176108e-07
6.3190659e-10
5.716756e-07
-2.2831687e-10
5.7164979e-07
-1.0972996e-09
5.7168248e-07
-1.9913585e-09
5.7177545e-07
-2.927967e-09
5.7193355e-07
-3.9265645e-09
5.7216514e-07
-5.0095062e-09
5.7248286e-07
-6.2032189e-09
5.7290485e-07
-7.5396395e-09
5.7345662e-07
-9.0580184e-09
5.7417379e-07
-1.0807231e-08
5.7510633e-07
-1.2848816e-08
5.7632487e-07
-1.5260408e-08
5.7792994e-07
-1.813982e-08
5.8006943e-07
-2.1611816e-08
5.8296049e-07
-2.5833002e-08
5.8689696e-07
-3.1210046e-08
5.9273412e-07
-3.9365697e-08
6.0490062e-07
-4.889449e-08
6.2827522e-07
-3.8423226e-08
6.0148868e-07
3.1736009e-07
3.2775571e-08
2.3347579e-07
5.5039428e-08
5.7355994e-07
4.8988805e-08
6.530128e-07
3.8832799e-08
6.2665933e-07
3.220962e-08
6.0544409e-07
2.7301698e-08
5.9590771e-07
2.3228417e-08
5.9004825e-07
1.98024e-08
5.8573271e-07
1.6906593e-08
5.8250591e-07
1.4438493e-08
5.8007123e-07
1.2314069e-08
5.7821342e-07
1.0465845e-08
5.7678323e-07
8.8393676e-09
5.7567523e-07
7.3902485e-09
5.7481434e-07
6.0819773e-09
5.741465e-07
4.884161e-09
5.7363254e-07
3.7710793e-09
5.7324413e-07
2.7205056e-09
5.7296095e-07
1.7127275e-09
5.7276885e-07
7.2971352e-10
5.7265862e-07
-2.4562289e-10
5.7262513e-07
-1.2301007e-09
5.7266696e-07
-2.2409408e-09
5.7278629e-07
-3.2964535e-09
5.7298906e-07
-4.4167842e-09
5.7328547e-07
-5.6247656e-09
5.7369084e-07
-6.9469186e-09
5.74227e-07
-8.4146594e-09
5.7492436e-07
-1.0065754e-08
5.7582488e-07
-1.19461e-08
5.7698668e-07
-1.4112119e-08
5.7849089e-07
-1.6633659e-08
5.8045148e-07
-1.959605e-08
5.8303182e-07
-2.3100814e-08
5.8646525e-07
-2.7289879e-08
5.9108602e-07
-3.2675719e-08
5.9811996e-07
-4.0634017e-08
6.1285892e-07
-4.733866e-08
6.3497986e-07
-3.3195119e-08
5.8734514e-07
2.8416497e-07
2.6093761e-08
2.0738576e-07
4.9882626e-08
5.4977522e-07
4.8186934e-08
6.5470902e-07
3.920025e-08
6.3564539e-07
3.2800527e-08
6.1184363e-07
2.8141999e-08
6.0056624e-07
2.4231995e-08
5.9395827e-07
2.0869971e-08
5.8909474e-07
1.7974447e-08
5.8540143e-07
1.5465822e-08
5.8257986e-07
1.3274676e-08
5.8040456e-07
1.1343566e-08
5.7871434e-07
9.6247308e-09
5.7739407e-07
8.0781534e-09
5.7636091e-07
6.6700944e-09
5.7555456e-07
5.3718183e-09
5.7493082e-07
4.1585027e-09
5.7445744e-07
3.0083118e-09
5.7411114e-07
1.9015955e-09
5.7387557e-07
8.2018285e-10
5.7374003e-07
-2.5325851e-10
5.7369857e-07
-1.3358225e-09
5.7374952e-07
-2.4449612e-09
5.7389543e-07
-3.5990933e-09
5.741432e-07
-4.8182515e-09
5.7450463e-07
-6.124803e-09
5.7499739e-07
-7.5442671e-09
5.7564647e-07
-9.1062688e-09
5.7648636e-07
-1.0845652e-08
5.7756427e-07
-1.2803756e-08
5.7894478e-07
-1.5030064e-08
5.807172e-07
-1.7584332e-08
5.8300575e-07
-2.0536602e-08
5.8598409e-07
-2.3962964e-08
5.8989161e-07
-2.7998595e-08
5.9512165e-07
-3.3239259e-08
6.0336062e-07
-4.0586461e-08
6.2020612e-07
-4.4372714e-08
6.3876612e-07
-2.7998699e-08
5.7097113e-07
2.5616627e-07
2.0467497e-08
1.8692289e-07
4.4291901e-08
5.2595675e-07
4.626611e-08
6.5273617e-07
3.8790033e-08
6.4312071e-07
3.2741942e-08
6.1789138e-07
2.8386918e-08
6.0492126e-07
2.4719549e-08
5.9762565e-07
2.1501267e-08
5.9231302e-07
1.8676184e-08
5.8822652e-07
1.6187752e-08
5.8506829e-07
1.398214e-08
5.8261018e-07
1.2012865e-08
5.8068361e-07
1.0239864e-08
5.7916707e-07
8.6285233e-09
5.7797226e-07
7.1488541e-09
5.7703422e-07
5.774678e-09
5.76305e-07
4.4828841e-09
5.7574924e-07
3.2527598e-09
5.7534126e-07
2.0653799e-09
5.7506295e-07
9.0304533e-10
5.7490237e-07
-2.5124197e-10
5.7485286e-07
-1.4142798e-09
5.7491256e-07
-2.6031682e-09
5.7508432e-07
-3.835817e-09
5.7537584e-07
-5.1314757e-09
5.7580029e-07
-6.5113065e-09
5.7637722e-07
-7.9990076e-09
5.7713417e-07
-9.6215057e-09
5.7810886e-07
-1.1409729e-08
5.7935249e-07
-1.339941e-08
5.8093446e-07
-1.5631995e-08
5.8294979e-07
-1.8155861e-08
5.8552961e-07
-2.1024824e-08
5.8885306e-07
-2.4293887e-08
5.9316068e-07
-2.81074e-08
5.9893516e-07
-3.3100004e-08
6.0835323e-07
-3.9556419e-08
6.2666254e-07
-4.0654812e-08
6.3986451e-07
-2.3187075e-08
5.5350339e-07
2.3297919e-07
1.5903375e-08
1.7102515e-07
3.8808981e-08
5.0305924e-07
4.3664234e-08
6.478835e-07
3.7842983e-08
6.4894115e-07
3.2236644e-08
6.2349716e-07
2.8191397e-08
6.0896646e-07
2.479936e-08
6.0101771e-07
2.1771871e-08
5.9534052e-07
1.9064728e-08
5.9093366e-07
1.6641237e-08
5.8749178e-07
1.4462024e-08
5.8478939e-07
1.2491152e-08
5.8265449e-07
1.0696391e-08
5.8096183e-07
9.0489333e-09
5.7961971e-07
7.5230457e-09
5.7856011e-07
6.0956505e-09
5.7773239e-07
4.7458935e-09
5.77099e-07
3.4547131e-09
5.7663244e-07
2.2044144e-09
5.7631325e-07
9.7825553e-10
5.7612853e-07
-2.3995496e-10
5.7607107e-07
-1.4662504e-09
5.7613886e-07
-2.7169037e-09
5.7633497e-07
-4.0088255e-09
5.7666777e-07
-5.3599697e-09
5.7715143e-07
-6.7897562e-09
5.7780701e-07
-8.319506e-09
5.7866392e-07
-9.9728876e-09
5.7976224e-07
-1.1776381e-08
5.8115599e-07
-1.3759707e-08
5.8291779e-07
-1.5956188e-08
5.8514627e-07
-1.8403164e-08
5.8797659e-07
-2.113963e-08
5.9158952e-07
-2.4206972e-08
5.9622802e-07
-2.777005e-08
6.0249824e-07
-3.2441263e-08
6.1302444e-07
-3.7838671e-08
6.3205994e-07
-3.6627077e-08
6.3865292e-07
-1.8928968e-08
5.3580528e-07
2.1405023e-07
1.2302082e-08
1.5872993e-07
3.3732162e-08
4.8163981e-07
4.0709894e-08
6.4091001e-07
3.653633e-08
6.5311401e-07
3.1437383e-08
6.285953e-07
2.7688952e-08
6.1271477e-07
2.4574101e-08
6.0413258e-07
2.1758206e-08
5.9815642e-07
1.9196456e-08
5.9349541e-07
1.6867499e-08
5.8982074e-07
1.4744227e-08
5.8691266e-07
1.2799942e-08
5.8459877e-07
1.1009657e-08
5.8275212e-07
9.350203e-09
5.8127917e-07
7.800182e-09
5.8011013e-07
6.3398367e-09
5.7919274e-07
4.9508652e-09
5.7848797e-07
3.6161894e-09
5.7796712e-07
2.319693e-09
5.7760975e-07
1.0459459e-09
5.7740227e-07
-2.2008024e-10
5.7733709e-07
-1.4932968e-09
5.7741207e-07
-2.7887914e-09
5.7763047e-07
-4.1221167e-09
5.7800109e-07
-5.5095768e-09
5.7853889e-07
-6.9685096e-09
5.7926594e-07
-8.5175557e-09
5.8021297e-07
-1.01769e-08
5.8142159e-07
-1.1968491e-08
5.8294758e-07
-1.391621e-08
5.8486551e-07
-1.6045906e-08
5.8727597e-07
-1.8385128e-08
5.9031581e-07
-2.0960379e-08
5.9416477e-07
-2.3806429e-08
5.9907407e-07
-2.7111132e-08
6.0580295e-07
-3.1404677e-08
6.1731799e-07
-3.567482e-08
6.3633009e-07
-3.2589948e-08
6.3556805e-07
-1.5285237e-08
5.1850057e-07
1.9876499e-07
9.5248101e-09
1.4921352e-07
2.9212999e-08
4.6196531e-07
3.7648917e-08
6.3248049e-07
3.5007227e-08
6.5575529e-07
3.0453911e-08
6.331475e-07
2.6982649e-08
6.1618579e-07
2.4129317e-08
6.0698594e-07
2.1528187e-08
6.0075757e-07
1.9124497e-08
5.958991e-07
1.6907421e-08
5.9203781e-07
1.485977e-08
5.8896031e-07
1.2962535e-08
5.8649601e-07
1.1197e-08
5.8451765e-07
9.5450989e-09
5.8293107e-07
7.9895313e-09
5.816657e-07
6.5138202e-09
5.8066845e-07
5.1022992e-09
5.7989949e-07
3.7400326e-09
5.7932939e-07
2.4126869e-09
5.7893709e-07
1.1063734e-09
5.7870859e-07
-1.925301e-10
5.78636e-07
-1.4975658e-09
5.7871711e-07
-2.8223917e-09
5.7895529e-07
-4.1809705e-09
5.7935967e-07
-5.5877491e-09
5.7994567e-07
-7.0578209e-09
5.8073602e-07
-8.6070595e-09
5.8176221e-07
-1.0252206e-08
5.8306674e-07
-1.2010911e-08
5.8470628e-07
-1.3901735e-08
5.8675633e-07
-1.5943983e-08
5.8931821e-07
-1.8156871e-08
5.925287e-07
-2.0557047e-08
5.9656495e-07
-2.3178548e-08
6.0169557e-07
-2.6228021e-08
6.0885242e-07
-3.0107285e-08
6.2119725e-07
-3.3268123e-08
6.3949093e-07
-2.8747506e-08
6.3104743e-07
-1.2250518e-08
5.0200358e-07
1.8651447e-07
7.4226777e-09
1.4180123e-07
2.5298549e-08
4.4410674e-07
3.4651326e-08
6.2313685e-07
3.3364443e-08
6.5704234e-07
2.9367756e-08
6.3714276e-07
2.6151097e-08
6.1940204e-07
2.3533603e-08
6.0960345e-07
2.1138706e-08
6.0315249e-07
1.889538e-08
5.9814243e-07
1.6798422e-08
5.9413477e-07
1.4838261e-08
5.9092048e-07
1.3002044e-08
5.8833222e-07
1.1276244e-08
5.8624345e-07
9.6471885e-09
5.8456013e-07
8.1012543e-09
5.8321164e-07
6.6250287e-09
5.8214468e-07
5.2054056e-09
5.8131911e-07
3.8296109e-09
5.8070518e-07
2.4851753e-09
5.8028153e-07
1.1598709e-09
5.8003389e-07
-1.5837853e-10
5.7995425e-07
-1.4815991e-09
5.8004033e-07
-2.8218787e-09
5.8029557e-07
-4.1914699e-09
5.8072926e-07
-5.6028796e-09
5.8135708e-07
-7.0689358e-09
5.8220207e-07
-8.602818e-09
5.8329609e-07
-1.0218037e-08
5.8468196e-07
-1.1928356e-08
5.864166e-07
-1.3747687e-08
5.8857566e-07
-1.5689802e-08
5.9126033e-07
-1.7767119e-08
5.9460602e-07
-1.9989347e-08
5.9878718e-07
-2.2394512e-08
6.0410074e-07
-2.5199605e-08
6.1165751e-07
-2.8648976e-08
6.2464662e-07
-3.0779161e-08
6.4162111e-07
-2.5221003e-08
6.2548927e-07
-9.7775588e-09
4.8656014e-07
1.7673691e-07
5.8551487e-09
1.3595912e-07
2.1966534e-08
4.2801697e-07
3.1818074e-08
6.1329783e-07
3.1687251e-08
6.5717424e-07
2.8237518e-08
6.4059076e-07
2.5253029e-08
6.2238589e-07
2.2841155e-08
6.1201531e-07
2.0636436e-08
6.0535724e-07
1.8548549e-08
6.0023032e-07
1.6573321e-08
5.9611e-07
1.4706569e-08
5.9278723e-07
1.2940141e-08
5.9009865e-07
1.1264618e-08
5.8791897e-07
9.669959e-09
5.8615479e-07
8.1457104e-09
5.8473589e-07
6.6812058e-09
5.8360918e-07
5.2657195e-09
5.827346e-07
3.8885568e-09
5.8208234e-07
2.5390982e-09
5.8163099e-07
1.2068051e-09
5.8136618e-07
-1.1879968e-10
5.8127985e-07
-1.4481656e-09
5.813697e-07
-2.7917578e-09
5.8163916e-07
-4.1600897e-09
5.820976e-07
-5.563743e-09
5.8276074e-07
-7.0133617e-09
5.8365169e-07
-8.5196102e-09
5.8480234e-07
-1.0093083e-08
5.8625543e-07
-1.1744162e-08
5.8806768e-07
-1.3482852e-08
5.9031435e-07
-1.5318437e-08
5.9309591e-07
-1.7258112e-08
5.965457e-07
-1.9307619e-08
6.0083669e-07
-2.151212e-08
6.0630524e-07
-2.4088069e-08
6.1423346e-07
-2.7109172e-08
6.2766773e-07
-2.8321041e-08
6.4283298e-07
-2.2064681e-08
6.1923291e-07
-7.7974115e-09
4.7229287e-07
1.689395e-07
4.6996434e-09
1.3127618e-07
1.915799e-08
4.1358547e-07
2.919651e-08
6.03276e-07
3.0026775e-08
6.5634639e-07
2.710118e-08
6.4351435e-07
2.4329265e-08
6.2515689e-07
2.2092931e-08
6.1425157e-07
2.0058522e-08
6.0739169e-07
1.8116551e-08
6.021723e-07
1.6260086e-08
5.9796646e-07
1.4488288e-08
5.9455903e-07
1.2796396e-08
5.9179055e-07
1.1178092e-08
5.8953728e-07
9.6262138e-09
5.8770666e-07
8.1329457e-09
5.8622915e-07
6.690001e-09
5.8505213e-07
5.288792e-09
5.8413581e-07
3.9205546e-09
5.8345058e-07
2.5764352e-09
5.8297511e-07
1.2475441e-09
5.8269508e-07
-7.5013835e-11
5.8260241e-07
-1.4001187e-09
5.826948e-07
-2.7366303e-09
5.8297568e-07
-4.0933637e-09
5.8345433e-07
-5.4790609e-09
5.8414643e-07
-6.902333e-09
5.8507496e-07
-8.3715729e-09
5.8627158e-07
-9.8948294e-09
5.8777869e-07
-1.1479641e-08
5.8965249e-07
-1.3132862e-08
5.9196757e-07
-1.4860299e-08
5.9482335e-07
-1.6665427e-08
5.9835082e-07
-1.8552668e-08
6.0272393e-07
-2.0575671e-08
6.0832824e-07
-2.2938871e-08
6.1659666e-07
-2.5545486e-08
6.3027434e-07
-2.596477e-08
6.4325227e-07
-1.928696e-08
6.125551e-07
-6.2340371e-09
4.5923995e-07
1.6270547e-07
3.8540059e-09
1.2744398e-07
1.6800097e-08
4.0067264e-07
2.6799694e-08
5.9329815e-07
2.8412391e-08
6.5473792e-07
2.598042e-08
6.4594413e-07
2.3405509e-08
6.2773053e-07
2.13179e-08
6.1633903e-07
1.9433154e-08
6.0927648e-07
1.762527e-08
6.039802e-07
1.5881805e-08
5.9970993e-07
1.4203524e-08
5.9623731e-07
1.2587953e-08
5.9340612e-07
1.1030996e-08
5.9109424e-07
9.5276921e-09
5.8920997e-07
8.0723465e-09
5.876845e-07
6.6586755e-09
5.864658e-07
5.2799601e-09
5.8551453e-07
3.9291783e-09
5.8480136e-07
2.5991125e-09
5.8430517e-07
1.2824325e-09
5.8401176e-07
-2.8240045e-11
5.8391308e-07
-1.3402811e-09
5.8400684e-07
-2.661008e-09
5.842964e-07
-3.9976307e-09
5.8479095e-07
-5.3571835e-09
5.8550599e-07
-6.7464377e-09
5.8646422e-07
-8.1717907e-09
5.8769693e-07
-9.6391311e-09
5.8924603e-07
-1.1153682e-08
5.9116704e-07
-1.271985e-08
5.9353374e-07
-1.4340865e-08
5.9644437e-07
-1.6017802e-08
6.0002776e-07
-1.7755866e-08
6.0446199e-07
-1.9616935e-08
6.1018931e-07
-2.1782902e-08
6.1876263e-07
-2.3996656e-08
6.324881e-07
-2.3749085e-08
6.430047e-07
-1.6868467e-08
6.0567448e-07
-5.0127609e-09
4.4738424e-07
1.576927e-07
3.2357911e-09
1.2423695e-07
1.4818748e-08
3.8913093e-07
2.4620097e-08
5.835247e-07
2.6858245e-08
6.5250642e-07
2.4885595e-08
6.4791452e-07
2.2496178e-08
6.3011827e-07
2.0535218e-08
6.1829972e-07
1.8780717e-08
6.1103103e-07
1.7094508e-08
6.0566644e-07
1.5456925e-08
6.0134751e-07
1.3868913e-08
5.9782532e-07
1.232941e-08
5.9494562e-07
1.0835839e-08
5.9258781e-07
9.3848554e-09
5.9066095e-07
7.9724256e-09
5.8909693e-07
6.5939112e-09
5.8784431e-07
5.2441901e-09
5.8686425e-07
3.9177775e-09
5.8612778e-07
2.6089371e-09
5.8561401e-07
1.3117766e-09
5.8530892e-07
2.0331909e-11
5.8520453e-07
-1.2713589e-09
5.8529853e-07
-2.5691784e-09
5.8559422e-07
-3.878854e-09
5.8610063e-07
-5.2058718e-09
5.8683301e-07
-6.555374e-09
5.8781372e-07
-7.9320432e-09
5.890736e-07
-9.3399767e-09
5.9065396e-07
-1.078256e-08
5.9260963e-07
-1.2262354e-08
5.9501354e-07
-1.3780768e-08
5.9796278e-07
-1.5337572e-08
6.0158457e-07
-1.6940252e-08
6.0606467e-07
-1.8657439e-08
6.119065e-07
-2.0639821e-08
6.2074501e-07
-2.2486752e-08
6.3433503e-07
-2.1690012e-08
6.4220796e-07
-1.477452e-08
5.9875899e-07
-4.0649085e-09
4.3667463e-07
1.536278e-07
2.7805234e-09
1.2149415e-07
1.3145169e-08
3.7881757e-07
2.2638938e-08
5.740663e-07
2.5368227e-08
6.4978692e-07
2.3819621e-08
6.4946096e-07
2.1607879e-08
6.3232787e-07
1.9756655e-08
6.2015051e-07
1.8115337e-08
6.1267239e-07
1.6538932e-08
6.0724287e-07
1.4999774e-08
6.0288668e-07
1.3497872e-08
5.9932722e-07
1.2032906e-08
5.9641059e-07
1.0603283e-08
5.9401743e-07
9.2068081e-09
5.9205743e-07
7.8407184e-09
5.9046302e-07
6.5017037e-09
5.8918333e-07
5.1859839e-09
5.8817997e-07
3.8894082e-09
5.8742435e-07
2.6075569e-09
5.8689587e-07
1.3358383e-09
5.8658064e-07
6.9581015e-11
5.8647079e-07
-1.1958793e-09
5.86564e-07
-2.4651133e-09
5.8686346e-07
-3.7425069e-09
5.8737802e-07
-5.0321671e-09
5.8812267e-07
-6.337818e-09
5.8911937e-07
-7.6626918e-09
5.9039848e-07
-9.0094243e-09
5.9200069e-07
-1.0379969e-08
5.9398017e-07
-1.1775532e-08
5.964091e-07
-1.3196299e-08
5.9938355e-07
-1.4641609e-08
6.0302988e-07
-1.6122126e-08
6.0754519e-07
-1.7710919e-08
6.1349529e-07
-1.9521045e-08
6.2255514e-07
-2.1028832e-08
6.3584282e-07
-1.9788218e-08
6.4096734e-07
-1.2963546e-08
5.9193432e-07
-3.3303189e-09
4.270414e-07
1.5029748e-07
2.439337e-09
1.1910329e-07
1.171924e-08
3.6960156e-07
2.0832531e-08
5.6499744e-07
2.3939751e-08
6.4669346e-07
2.2780723e-08
6.5061817e-07
2.0742016e-08
6.3436392e-07
1.8988651e-08
6.2190322e-07
1.744638e-08
6.1421468e-07
1.5969124e-08
6.0872017e-07
1.4521252e-08
6.0433456e-07
1.3101015e-08
6.0074746e-07
1.1708347e-08
5.9780326e-07
1.034225e-08
5.9538353e-07
9.0013244e-09
5.9339835e-07
7.6837658e-09
5.9178058e-07
6.3873243e-09
5.9047977e-07
5.1093369e-09
5.8945796e-07
3.8467965e-09
5.886869e-07
2.5964383e-09
5.8814623e-07
1.3548299e-09
5.8782225e-07
1.18463e-10
5.8770715e-07
-1.1161573e-09
5.8779862e-07
-2.3524198e-09
5.8809972e-07
-3.5935141e-09
5.8861912e-07
-4.8423357e-09
5.8937149e-07
-6.101388e-09
5.9037842e-07
-7.3726881e-09
5.9166978e-07
-8.6576905e-09
5.932857e-07
-9.9572444e-09
5.9527973e-07
-1.1271573e-08
5.9772343e-07
-1.26001e-08
6.0071207e-07
-1.3942365e-08
6.0437214e-07
-1.5312573e-08
6.089154e-07
-1.6785413e-08
6.1496813e-07
-1.8432131e-08
6.2420186e-07
-1.9628119e-08
6.370388e-07
-1.8034954e-08
6.3937418e-07
-1.139287e-08
5.8529224e-07
-2.7583476e-09
4.1840688e-07
1.4753913e-07
2.1762225e-09
1.1698773e-07
1.0490557e-08
3.6136685e-07
1.9176386e-08
5.5636709e-07
2.2566711e-08
6.4332188e-07
2.1764519e-08
6.5141916e-07
1.9896762e-08
6.3622849e-07
1.8233952e-08
6.2356511e-07
1.6779704e-08
6.1566892e-07
1.5392531e-08
6.1010739e-07
1.4029523e-08
6.0569757e-07
1.268664e-08
6.0209034e-07
1.1363721e-08
5.9912617e-07
1.006011e-08
5.9668714e-07
8.774952e-09
5.9468351e-07
7.5071615e-09
5.9304837e-07
6.2553352e-09
5.917316e-07
5.0177357e-09
5.9069556e-07
3.7923312e-09
5.899123e-07
2.5768612e-09
5.893617e-07
1.3689153e-09
5.8903019e-07
1.6601876e-10
5.8891005e-07
-1.034281e-09
5.8899892e-07
-2.2343222e-09
5.8929976e-07
-3.4362395e-09
5.8982104e-07
-4.6418732e-09
5.9057712e-07
-5.8526821e-09
5.9158923e-07
-7.069669e-09
5.9288676e-07
-8.2933328e-09
5.9450936e-07
-9.5236678e-09
5.9651006e-07
-1.0760186e-08
5.9895995e-07
-1.2001861e-08
6.0195375e-07
-1.3248866e-08
6.0561915e-07
-1.4518821e-08
6.1018535e-07
-1.5885026e-08
6.1633434e-07
-1.7374829e-08
6.2569166e-07
-1.8284857e-08
6.3794883e-07
-1.6416694e-08
6.3750601e-07
-1.0022375e-08
5.7889792e-07
-2.3077768e-09
4.1069228e-07
1.4523135e-07
1.9652998e-09
1.1509635e-07
9.4180561e-09
3.5401313e-07
1.7647566e-08
5.482065e-07
2.1241628e-08
6.3975273e-07
2.0765602e-08
6.5189499e-07
1.9068591e-08
6.3792176e-07
1.7492948e-08
6.2513949e-07
1.611873e-08
6.1704308e-07
1.4814298e-08
6.1141188e-07
1.3530656e-08
6.0698123e-07
1.226119e-08
6.0335981e-07
1.1005432e-08
6.0038193e-07
9.7629137e-09
5.9792966e-07
8.5331629e-09
5.9591326e-07
7.3156471e-09
5.9426589e-07
6.1096448e-09
5.929376e-07
4.91419e-09
5.9189101e-07
3.728082e-09
5.9109841e-07
2.5499303e-09
5.9053985e-07
1.3782191e-09
5.902019e-07
2.1138452e-10
5.9007689e-07
-9.5210573e-10
5.9016241e-07
-2.1136645e-09
5.9046132e-07
-3.2745024e-09
5.9098187e-07
-4.4355451e-09
5.9173817e-07
-5.5973589e-09
5.9275105e-07
-6.7600956e-09
5.940495e-07
-7.9234723e-09
5.9567274e-07
-9.0868059e-09
5.976734e-07
-1.0249072e-08
6.0012221e-07
-1.1408996e-08
6.0311368e-07
-1.2567606e-08
6.0677776e-07
-1.3745446e-08
6.1136319e-07
-1.501146e-08
6.1760035e-07
-1.6348847e-08
6.2702905e-07
-1.6996733e-08
6.3859672e-07
-1.4918535e-08
6.3542782e-07
-8.8167189e-09
5.727961e-07
-1.9461595e-09
4.0382173e-07
1.432852e-07
1.7884081e-09
1.1339602e-07
8.4689407e-09
3.4745526e-07
1.6225848e-08
5.4053483e-07
1.99571e-08
6.3605399e-07
1.9778688e-08
6.5207466e-07
1.8253454e-08
6.3944272e-07
1.6764772e-08
6.2662652e-07
1.5465348e-08
6.1834236e-07
1.4238004e-08
6.1263929e-07
1.3029206e-08
6.0819005e-07
1.1829713e-08
6.045593e-07
1.0638638e-08
6.0157301e-07
9.4556364e-09
5.9911266e-07
8.2805314e-09
5.9708837e-07
7.1132357e-09
5.9543318e-07
5.9535934e-09
5.9409724e-07
4.8012904e-09
5.9304331e-07
3.6558387e-09
5.9224386e-07
2.5166017e-09
5.9167909e-07
1.3828443e-09
5.9133566e-07
2.5380107e-10
5.9120593e-07
-8.7125316e-10
5.9128746e-07
-1.9929206e-09
5.9158299e-07
-3.1116065e-09
5.9210056e-07
-4.2274441e-09
5.92854e-07
-5.3402342e-09
5.9386384e-07
-6.449406e-09
5.9515867e-07
-7.5540208e-09
5.9677735e-07
-8.6528336e-09
5.9877221e-07
-9.7443821e-09
6.0121376e-07
-1.0827244e-08
6.0419654e-07
-1.1903357e-08
6.0785387e-07
-1.2995415e-08
6.1245525e-07
-1.4165279e-08
6.1877022e-07
-1.5353265e-08
6.2821703e-07
-1.5760738e-08
6.3900419e-07
-1.3526442e-08
6.3319352e-07
-7.7462871e-09
5.6701595e-07
-1.6488625e-09
3.977243e-07
1.4163633e-07
1.6330832e-09
1.1186599e-07
7.6174098e-09
3.4162188e-07
1.4894187e-08
5.3336301e-07
1.8706726e-08
6.3228321e-07
1.8799406e-08
6.5198526e-07
1.7447641e-08
6.407897e-07
1.6048151e-08
6.2802389e-07
1.4820659e-08
6.195696e-07
1.3666284e-08
6.1379373e-07
1.2528726e-08
6.0932763e-07
1.1396265e-08
6.0569177e-07
1.0267571e-08
6.027017e-07
9.1424233e-09
6.0023781e-07
8.0209133e-09
5.9820988e-07
6.9033436e-09
5.9655075e-07
5.7900472e-09
5.9521054e-07
4.681275e-09
5.9415209e-07
3.5771573e-09
5.9334798e-07
2.4777139e-09
5.9277853e-07
1.3828916e-09
5.9243048e-07
2.9262208e-10
5.922962e-07
-7.931143e-10
5.923732e-07
-1.8742126e-09
5.9266409e-07
-2.9503773e-09
5.9317673e-07
-4.0210541e-09
5.9392468e-07
-5.0853813e-09
5.9492817e-07
-6.1421635e-09
5.9621546e-07
-7.1898928e-09
5.9782508e-07
-8.2268279e-09
5.9980915e-07
-9.2511075e-09
6.0223804e-07
-1.0261186e-08
6.0520662e-07
-1.1259823e-08
6.0885251e-07
-1.2270916e-08
6.1346635e-07
-1.3346866e-08
6.1984617e-07
-1.438758e-08
6.2925775e-07
-1.4574496e-08
6.3919111e-07
-1.2228632e-08
6.3084766e-07
-6.7873029e-09
5.6157462e-07
-1.3978999e-09
3.923349e-07
1.4023843e-07
1.4909172e-09
1.1049381e-07
6.8434398e-09
3.3645365e-07
1.3638842e-08
5.2669619e-07
1.7485722e-08
6.2848927e-07
1.7824848e-08
6.5165209e-07
1.6648403e-08
6.4196095e-07
1.534205e-08
6.2932761e-07
1.4185557e-08
6.207257e-07
1.3101324e-08
6.1487803e-07
1.2032177e-08
6.1039682e-07
1.0964244e-08
6.0675971e-07
9.8957976e-09
6.0377015e-07
8.8267858e-09
6.0130682e-07
7.7575929e-09
5.9927907e-07
6.6888942e-09
5.9761945e-07
5.62147e-09
5.9627796e-07
4.556075e-09
5.9521748e-07
3.493386e-09
5.9441067e-07
2.4339989e-09
5.9383792e-07
1.3784569e-09
5.9348603e-07
3.2730037e-10
5.9334736e-07
-7.1887544e-10
5.9341937e-07
-1.7593506e-09
5.9370457e-07
-2.7932195e-09
5.9421059e-07
-3.8193296e-09
5.9495079e-07
-4.8362401e-09
5.9594508e-07
-5.8422042e-09
5.9722142e-07
-6.8352006e-09
5.9881808e-07
-7.8130212e-09
6.0078697e-07
-8.7734034e-09
6.0319843e-07
-9.714647e-09
6.0614786e-07
-1.0640144e-08
6.0977801e-07
-1.1573952e-08
6.1440015e-07
-1.2557081e-08
6.208293e-07
-1.3452408e-08
6.3015308e-07
-1.3437163e-08
6.3917586e-07
-1.1016422e-08
6.2842692e-07
-5.9217322e-09
5.5647993e-07
-1.1803988e-09
3.8759357e-07
1.3905804e-07
1.3563085e-09
1.0927229e-07
6.1317685e-09
3.3190094e-07
1.2449385e-08
5.2053515e-07
1.6291353e-08
6.2471362e-07
1.6853972e-08
6.5109888e-07
1.5854384e-08
6.4295504e-07
1.464613e-08
6.3053267e-07
1.3561128e-08
6.2181014e-07
1.2545201e-08
6.1589402e-07
1.1542218e-08
6.1139984e-07
1.0536621e-08
6.0776531e-07
9.5263911e-09
6.0478038e-07
8.5117305e-09
6.0232148e-07
7.4933694e-09
6.0029743e-07
6.4723714e-09
5.9864045e-07
5.4499471e-09
5.9730039e-07
4.4273167e-09
5.9624011e-07
3.4056488e-09
5.9543234e-07
2.3860501e-09
5.9485752e-07
1.3695874e-09
5.9450249e-07
3.5733213e-10
5.9435961e-07
-6.4958572e-10
5.9442629e-07
-1.6499124e-09
5.9470489e-07
-2.6422119e-09
5.952029e-07
-3.6248097e-09
5.9593339e-07
-4.5957534e-09
5.9691602e-07
-5.5528002e-09
5.9817847e-07
-6.4934503e-09
5.9975873e-07
-7.4150342e-09
6.0170855e-07
-8.3148614e-09
6.0409825e-07
-9.1910118e-09
6.0702401e-07
-1.0047248e-08
6.1063424e-07
-1.0906739e-08
6.1525965e-07
-1.179767e-08
6.2172023e-07
-1.2549911e-08
6.3090532e-07
-1.2349975e-08
6.3897593e-07
-9.8846866e-09
6.2596163e-07
-5.1371398e-09
5.5173238e-07
-9.8798797e-10
3.8344441e-07
1.3807005e-07
1.2256114e-09
1.0819735e-07
5.4711718e-09
3.2792139e-07
1.1318729e-08
5.148768e-07
1.5123287e-08
6.2099116e-07
1.5887897e-08
6.5034802e-07
1.5065918e-08
6.4377139e-07
1.3961035e-08
6.3163374e-07
1.2948912e-08
6.2282148e-07
1.2000105e-08
6.1684286e-07
1.1061386e-08
6.1233861e-07
1.0116086e-08
6.0871062e-07
9.1620485e-09
6.0573442e-07
8.1998381e-09
6.0328369e-07
7.2306067e-09
6.0126667e-07
6.2558419e-09
5.9961522e-07
5.2771861e-09
5.9827904e-07
4.296302e-09
5.97221e-07
3.3148091e-09
5.9641383e-07
2.3342709e-09
5.9583806e-07
1.3562157e-09
5.9548055e-07
3.8217767e-10
5.9533365e-07
-5.8624979e-10
5.9539472e-07
-1.5473513e-09
5.9566599e-07
-2.4992313e-09
5.9615478e-07
-3.4397589e-09
5.9687392e-07
-4.3665279e-09
5.9784279e-07
-5.2768428e-09
5.9908878e-07
-6.1677472e-09
6.0064964e-07
-7.0361048e-09
6.0257691e-07
-7.878759e-09
6.0494091e-07
-8.6934876e-09
6.0783874e-07
-9.4841241e-09
6.1142488e-07
-1.0271971e-08
6.1604749e-07
-1.107148e-08
6.2251974e-07
-1.1683975e-08
6.3151781e-07
-1.131649e-08
6.3860845e-07
-8.8319582e-09
6.234771e-07
-4.4263105e-09
5.4732674e-07
-8.1642741e-10
3.7983453e-07
1.3725362e-07
1.0966481e-09
1.0726634e-07
4.8540644e-09
3.2447707e-07
1.0243246e-08
5.0971405e-07
1.3983905e-08
6.1735094e-07
1.4930135e-08
6.4942086e-07
1.4285225e-08
6.4441075e-07
1.3288604e-08
6.3262592e-07
1.23511e-08
6.2375795e-07
1.1468526e-08
6.1772543e-07
1.0592269e-08
6.1321492e-07
9.7052061e-09
6.0959769e-07
8.805229e-09