/*--------------------------------*- C++ -*----------------------------------*\
  =========                 |
  \\      /  F ield         | OpenFOAM: The Open Source CFD Toolbox
   \\    /   O peration     | Website:  https://openfoam.org
    \\  /    A nd           | Version:  10
     \\/     M anipulation  |
\*---------------------------------------------------------------------------*/
FoamFile
{
    format      ascii;
    class       volScalarField;
    location    "0.09";
    object      T;
}
// * * * * * * * * * * * * * * * * * * * * * * * * * * * * * * * * * * * * * //

dimensions      [0 0 0 1 0 0 0];

internalField   nonuniform List<scalar> 
4000
(
303.10113
299.3431
299.99042
300.00082
299.99993
300
300
300
300
300
300
300
300
300
300
300
300
300
300
300
300
300
300
300
300
300
300
300
300
300
300
300
300
300
300
300
300
300
300
300
309.66212
298.49345
299.7794
300.00184
300.0008
299.99999
300
300
300
300
300
300
300
300
300
300
300
300
300
300
300
300
300
300
300
300
300
300
300
300
300
300
300
300
300
300
300
300
300
300
316.00086
298.68471
299.39286
299.97575
300.00405
300.00025
299.99999
300
300
300
300
300
300
300
300
300
300
300
300
300
300
300
300
300
300
300
300
300
300
300
300
300
300
300
300
300
300
300
300
300
321.73581
299.84455
298.98606
299.8952
300.00714
300.00138
300
299.99999
300
300
300
300
300
300
300
300
300
300
300
300
300
300
300
300
300
300
300
300
300
300
300
300
300
300
300
300
300
300
300
300
326.66058
301.69605
298.71163
299.75392
300.00323
300.00377
300.00017
299.99998
300
300
300
300
300
300
300
300
300
300
300
300
300
300
300
300
300
300
300
300
300
300
300
300
300
300
300
300
300
300
300
300
330.6697
303.93866
298.6646
299.56991
299.98441
300.00692
300.00071
299.99997
299.99999
300
300
300
300
300
300
300
300
300
300
300
300
300
300
300
300
300
300
300
300
300
300
300
300
300
300
300
300
300
300
300
333.75367
306.31448
298.87078
299.37631
299.94565
300.00931
300.00179
300
299.99998
300
300
300
300
300
300
300
300
300
300
300
300
300
300
300
300
300
300
300
300
300
300
300
300
300
300
300
300
300
300
300
335.99541
308.63891
299.30468
299.20746
299.88688
300.00885
300.00341
300.00014
299.99997
300
300
300
300
300
300
300
300
300
300
300
300
300
300
300
300
300
300
300
300
300
300
300
300
300
300
300
300
300
300
300
337.54149
310.80104
299.91621
299.08904
299.81251
300.00358
300.00533
300.00045
299.99996
299.99999
300
300
300
300
300
300
300
300
300
300
300
300
300
300
300
300
300
300
300
300
300
300
300
300
300
300
300
300
300
300
338.56305
312.74803
300.65051
299.03522
299.72959
299.99222
300.00712
300.00097
299.99997
299.99998
300
300
300
300
300
300
300
300
300
300
300
300
300
300
300
300
300
300
300
300
300
300
300
300
300
300
300
300
300
300
339.22234
314.46677
301.4586
299.05009
299.64581
299.97443
300.00825
300.00171
300.00001
299.99997
300
300
300
300
300
300
300
300
300
300
300
300
300
300
300
300
300
300
300
300
300
300
300
300
300
300
300
300
300
300
339.65209
315.96822
302.30179
299.13066
299.56811
299.9507
300.0082
300.00259
300.00011
299.99996
300
300
300
300
300
300
300
300
300
300
300
300
300
300
300
300
300
300
300
300
300
300
300
300
300
300
300
300
300
300
339.94825
317.27534
303.15203
299.26986
299.50196
299.92217
300.00655
300.00354
300.00029
299.99996
299.99999
300
300
300
300
300
300
300
300
300
300
300
300
300
300
300
300
300
300
300
300
300
300
300
300
300
300
300
300
300
340.17272
318.415
303.99046
299.45893
299.45116
299.89033
300.00304
300.00442
300.00053
299.99997
299.99999
300
300
300
300
300
300
300
300
300
300
300
300
300
300
300
300
300
300
300
300
300
300
300
300
300
300
300
300
300
340.36097
319.41323
304.80516
299.68888
299.41798
299.85681
299.99757
300.00511
300.00084
299.99999
299.99998
300
300
300
300
300
300
300
300
300
300
300
300
300
300
300
300
300
300
300
300
300
300
300
300
300
300
300
300
300
340.53041
320.29281
305.58909
299.95133
299.40345
299.82319
299.9902
300.00547
300.00121
300.00002
299.99998
300
300
300
300
300
300
300
300
300
300
300
300
300
300
300
300
300
300
300
300
300
300
300
300
300
300
300
300
300
340.68746
321.0724
306.33835
300.23879
299.40767
299.79091
299.98112
300.00539
300.0016
300.00008
299.99997
300
300
300
300
300
300
300
300
300
300
300
300
300
300
300
300
300
300
300
300
300
300
300
300
300
300
300
300
300
340.83285
321.76647
307.05093
300.54475
299.43007
299.76124
299.97058
300.0048
300.00198
300.00017
299.99998
299.99999
300
300
300
300
300
300
300
300
300
300
300
300
300
300
300
300
300
300
300
300
300
300
300
300
300
300
300
300
340.96513
322.38574
307.72576
300.8636
299.46962
299.7352
299.95894
300.00364
300.00233
300.00027
299.99998
299.99999
300
300
300
300
300
300
300
300
300
300
300
300
300
300
300
300
300
300
300
300
300
300
300
300
300
300
300
300
341.0826
322.93771
308.36216
301.19044
299.52498
299.7136
299.94657
300.00189
300.00261
300.0004
299.99999
299.99999
300
300
300
300
300
300
300
300
300
300
300
300
300
300
300
300
300
300
300
300
300
300
300
300
300
300
300
300
341.18388
323.42737
308.95947
301.52096
299.59461
299.69705
299.93385
299.99958
300.00278
300.00053
300.00001
299.99999
300
300
300
300
300
300
300
300
300
300
300
300
300
300
300
300
300
300
300
300
300
300
300
300
300
300
300
300
341.2679
323.85768
309.5168
301.85129
299.67684
299.68595
299.92118
299.99672
300.00283
300.00067
300.00003
299.99999
300
300
300
300
300
300
300
300
300
300
300
300
300
300
300
300
300
300
300
300
300
300
300
300
300
300
300
300
341.33371
324.23008
310.03292
302.17783
299.7699
299.68053
299.90894
299.9934
300.00273
300.00081
300.00006
299.99999
300
300
300
300
300
300
300
300
300
300
300
300
300
300
300
300
300
300
300
300
300
300
300
300
300
300
300
300
341.38051
324.54482
310.50625
302.49721
299.87196
299.68087
299.89746
299.98969
300.00247
300.00093
300.00009
299.99999
300
300
300
300
300
300
300
300
300
300
300
300
300
300
300
300
300
300
300
300
300
300
300
300
300
300
300
300
341.40793
324.80145
310.93485
302.80622
299.98114
299.68688
299.88705
299.98568
300.00204
300.00103
300.00013
299.99999
300
300
300
300
300
300
300
300
300
300
300
300
300
300
300
300
300
300
300
300
300
300
300
300
300
300
300
300
341.41628
324.99927
311.31654
303.10173
300.09554
299.69834
299.87799
299.9815
300.00145
300.00111
300.00017
300
300
300
300
300
300
300
300
300
300
300
300
300
300
300
300
300
300
300
300
300
300
300
300
300
300
300
300
300
341.4068
325.13798
311.64908
303.38073
300.21323
299.71494
299.87049
299.97724
300.0007
300.00115
300.00021
300
300
300
300
300
300
300
300
300
300
300
300
300
300
300
300
300
300
300
300
300
300
300
300
300
300
300
300
300
341.38169
325.21837
311.9305
303.64041
300.3323
299.73622
299.86471
299.97302
299.9998
300.00116
300.00025
300.00001
300
300
300
300
300
300
300
300
300
300
300
300
300
300
300
300
300
300
300
300
300
300
300
300
300
300
300
300
341.34405
325.24293
312.15945
303.87822
300.4509
299.76167
299.86075
299.96896
299.99878
300.00112
300.00029
300.00002
300
300
300
300
300
300
300
300
300
300
300
300
300
300
300
300
300
300
300
300
300
300
300
300
300
300
300
300
341.29768
325.21643
312.33563
304.09202
300.56725
299.79068
299.85866
299.96515
299.99767
300.00103
300.00033
300.00003
300
300
300
300
300
300
300
300
300
300
300
300
300
300
300
300
300
300
300
300
300
300
300
300
300
300
300
300
341.24679
325.14638
312.46023
304.28029
300.67975
299.82257
299.8584
299.96166
299.99649
300.0009
300.00035
300.00004
300
300
300
300
300
300
300
300
300
300
300
300
300
300
300
300
300
300
300
300
300
300
300
300
300
300
300
300
341.19559
325.04308
312.53626
304.4422
300.78698
299.85666
299.8599
299.95857
299.99527
300.00073
300.00037
300.00005
300
300
300
300
300
300
300
300
300
300
300
300
300
300
300
300
300
300
300
300
300
300
300
300
300
300
300
300
341.14777
324.91917
312.5688
304.57782
300.88779
299.89226
299.86305
299.95592
299.99403
300.00052
300.00038
300.00007
300
300
300
300
300
300
300
300
300
300
300
300
300
300
300
300
300
300
300
300
300
300
300
300
300
300
300
300
341.10603
324.78836
312.56491
304.68813
300.98138
299.92875
299.86771
299.95376
299.99282
300.00028
300.00038
300.00008
300
300
300
300
300
300
300
300
300
300
300
300
300
300
300
300
300
300
300
300
300
300
300
300
300
300
300
300
341.07174
324.66347
312.53338
304.77507
301.06726
299.96563
299.87379
299.95213
299.99165
300.00001
300.00036
300.00008
300.00001
300
300
300
300
300
300
300
300
300
300
300
300
300
300
300
300
300
300
300
300
300
300
300
300
300
300
300
341.04488
324.5543
312.48394
304.84155
301.14532
300.00244
299.88116
299.95107
299.99056
299.99972
300.00034
300.00009
300.00001
300
300
300
300
300
300
300
300
300
300
300
300
300
300
300
300
300
300
300
300
300
300
300
300
300
300
300
341.02424
324.46597
312.42617
304.89123
301.21579
300.03876
299.88963
299.95056
299.98956
299.99941
300.00031
300.0001
300.00001
300
300
300
300
300
300
300
300
300
300
300
300
300
300
300
300
300
300
300
300
300
300
300
300
300
300
300
341.00788
324.39838
312.36818
304.92823
301.27922
300.07415
299.8989
299.95052
299.98865
299.9991
300.00026
300.0001
300.00001
300
300
300
300
300
300
300
300
300
300
300
300
300
300
300
300
300
300
300
300
300
300
300
300
300
300
300
340.99368
324.34697
312.31531
304.95658
301.33637
300.10812
299.9085
299.95078
299.98781
299.99878
300.00021
300.0001
300.00002
300
300
300
300
300
300
300
300
300
300
300
300
300
300
300
300
300
300
300
300
300
300
300
300
300
300
300
340.97986
324.30459
312.26925
304.9795
301.38812
300.14022
299.91789
299.95108
299.98698
299.99845
300.00016
300.00011
300.00002
300
300
300
300
300
300
300
300
300
300
300
300
300
300
300
300
300
300
300
300
300
300
300
300
300
300
300
340.96526
324.26382
312.22803
304.99871
301.4353
300.17017
299.92659
299.95117
299.98607
299.99811
300.00012
300.00011
300.00002
300
300
300
300
300
300
300
300
300
300
300
300
300
300
300
300
300
300
300
300
300
300
300
300
300
300
300
340.9495
324.21895
312.18681
305.01397
301.47838
300.19803
299.93443
299.95091
299.98506
299.99775
300.00007
300.00012
300.00003
300
300
300
300
300
300
300
300
300
300
300
300
300
300
300
300
300
300
300
300
300
300
300
300
300
300
300
340.93283
324.16714
312.13971
305.02313
301.51733
300.2242
299.94167
299.95041
299.98395
299.99737
300.00002
300.00013
300.00003
300
300
300
300
300
300
300
300
300
300
300
300
300
300
300
300
300
300
300
300
300
300
300
300
300
300
300
340.91595
324.1086
312.08172
305.02283
301.55144
300.24933
299.94908
299.95005
299.98286
299.99698
299.99998
300.00014
300.00004
300
300
300
300
300
300
300
300
300
300
300
300
300
300
300
300
300
300
300
300
300
300
300
300
300
300
300
340.89969
324.04591
312.01048
305.00969
301.57948
300.27402
299.95769
299.95046
299.982
299.99662
299.99993
300.00015
300.00004
300.00001
300
300
300
300
300
300
300
300
300
300
300
300
300
300
300
300
300
300
300
300
300
300
300
300
300
300
340.88481
323.98286
311.92704
304.98158
301.60001
300.29855
299.96848
299.95235
299.98163
299.99634
299.99987
300.00015
300.00005
300.00001
300
300
300
300
300
300
300
300
300
300
300
300
300
300
300
300
300
300
300
300
300
300
300
300
300
300
340.8719
323.92337
311.8356
304.9386
301.61188
300.32265
299.98196
299.95624
299.98201
299.99619
299.99981
300.00014
300.00005
300.00001
300
300
300
300
300
300
300
300
300
300
300
300
300
300
300
300
300
300
300
300
300
300
300
300
300
300
340.86124
323.87057
311.74225
304.88329
301.6147
300.34553
299.99791
299.96225
299.98326
299.99623
299.99975
300.00013
300.00005
300.00001
300
300
300
300
300
300
300
300
300
300
300
300
300
300
300
300
300
300
300
300
300
300
300
300
300
300
340.85286
323.82638
311.65344
304.82017
301.60907
300.36611
300.0154
299.97002
299.98533
299.99648
299.99971
300.0001
300.00004
300.00001
300
300
300
300
300
300
300
300
300
300
300
300
300
300
300
300
300
300
300
300
300
300
300
300
300
300
340.84659
323.79143
311.57448
304.75464
301.59653
300.38333
300.03305
299.97881
299.98799
299.9969
299.99969
300.00007
300.00004
300.00001
300
300
300
300
300
300
300
300
300
300
300
300
300
300
300
300
300
300
300
300
300
300
300
300
300
300
340.84212
323.76524
311.50865
304.69186
301.57923
300.39647
300.0494
299.9877
299.99092
299.99744
299.9997
300.00005
300.00003
300.00001
300
300
300
300
300
300
300
300
300
300
300
300
300
300
300
300
300
300
300
300
300
300
300
300
300
300
340.83908
323.74661
311.457
304.63582
301.55951
300.40534
300.0633
299.99584
299.99378
299.99803
299.99972
300.00002
300.00002
300
300
300
300
300
300
300
300
300
300
300
300
300
300
300
300
300
300
300
300
300
300
300
300
300
300
300
340.83711
323.73396
311.4187
304.58885
301.53952
300.41027
300.07415
300.00265
299.99631
299.9986
299.99977
300
300.00001
300
300
300
300
300
300
300
300
300
300
300
300
300
300
300
300
300
300
300
300
300
300
300
300
300
300
300
340.83589
323.72569
311.39165
304.55164
301.52089
300.41201
300.08189
300.00791
299.99836
299.99909
299.99982
299.99999
300.00001
300
300
300
300
300
300
300
300
300
300
300
300
300
300
300
300
300
300
300
300
300
300
300
300
300
300
300
340.83515
323.72042
311.37325
304.52354
301.50468
300.41148
300.08691
300.01166
299.9999
299.99948
299.99987
299.99999
300
300
300
300
300
300
300
300
300
300
300
300
300
300
300
300
300
300
300
300
300
300
300
300
300
300
300
300
340.83471
323.71703
311.36095
304.50311
301.49132
300.40963
300.08981
300.01414
300.00098
299.99977
299.99991
299.99999
300
300
300
300
300
300
300
300
300
300
300
300
300
300
300
300
300
300
300
300
300
300
300
300
300
300
300
300
340.83443
323.71474
311.35262
304.48859
301.48078
300.40722
300.09125
300.01566
300.00169
299.99998
299.99995
299.99999
300
300
300
300
300
300
300
300
300
300
300
300
300
300
300
300
300
300
300
300
300
300
300
300
300
300
300
300
340.83423
323.71307
311.34672
304.47826
301.47272
300.40478
300.09179
300.01653
300.00213
300.00012
299.99998
299.99999
300
300
300
300
300
300
300
300
300
300
300
300
300
300
300
300
300
300
300
300
300
300
300
300
300
300
300
300
340.83407
323.71172
311.34221
304.47076
301.46664
300.40259
300.09186
300.01701
300.0024
300.00021
300
299.99999
300
300
300
300
300
300
300
300
300
300
300
300
300
300
300
300
300
300
300
300
300
300
300
300
300
300
300
300
340.83393
323.71055
311.33852
304.46505
301.46205
300.40079
300.09174
300.01726
300.00256
300.00027
300.00001
300
300
300
300
300
300
300
300
300
300
300
300
300
300
300
300
300
300
300
300
300
300
300
300
300
300
300
300
300
340.8338
323.7095
311.33534
304.46048
301.4585
300.39936
300.09157
300.0174
300.00266
300.0003
300.00002
300
300
300
300
300
300
300
300
300
300
300
300
300
300
300
300
300
300
300
300
300
300
300
300
300
300
300
300
300
340.83367
323.70855
311.33253
304.45666
301.4557
300.39825
300.09143
300.01749
300.00273
300.00033
300.00003
300
300
300
300
300
300
300
300
300
300
300
300
300
300
300
300
300
300
300
300
300
300
300
300
300
300
300
300
300
340.83356
323.70769
311.33006
304.45339
301.4534
300.39737
300.09132
300.01756
300.00278
300.00035
300.00003
300
300
300
300
300
300
300
300
300
300
300
300
300
300
300
300
300
300
300
300
300
300
300
300
300
300
300
300
300
340.83345
323.70693
311.32788
304.45055
301.45147
300.39667
300.09124
300.01762
300.00282
300.00036
300.00004
300
300
300
300
300
300
300
300
300
300
300
300
300
300
300
300
300
300
300
300
300
300
300
300
300
300
300
300
300
340.83336
323.70627
311.32599
304.44809
301.44983
300.39609
300.09119
300.01768
300.00286
300.00038
300.00004
300
300
300
300
300
300
300
300
300
300
300
300
300
300
300
300
300
300
300
300
300
300
300
300
300
300
300
300
300
340.83329
323.70568
311.32434
304.44597
301.44842
300.39561
300.09115
300.01773
300.00289
300.00039
300.00004
300
300
300
300
300
300
300
300
300
300
300
300
300
300
300
300
300
300
300
300
300
300
300
300
300
300
300
300
300
340.83322
323.70518
311.32293
304.44414
301.44722
300.3952
300.09112
300.01777
300.00292
300.0004
300.00004
300
300
300
300
300
300
300
300
300
300
300
300
300
300
300
300
300
300
300
300
300
300
300
300
300
300
300
300
300
340.83317
323.70475
311.32171
304.44257
301.44618
300.39485
300.0911
300.01781
300.00294
300.0004
300.00005
300
300
300
300
300
300
300
300
300
300
300
300
300
300
300
300
300
300
300
300
300
300
300
300
300
300
300
300
300
340.83313
323.70439
311.32066
304.44122
301.44529
300.39454
300.09107
300.01784
300.00296
300.00041
300.00005
300
300
300
300
300
300
300
300
300
300
300
300
300
300
300
300
300
300
300
300
300
300
300
300
300
300
300
300
300
340.8331
323.70408
311.31976
304.44006
301.44453
300.39428
300.09105
300.01786
300.00297
300.00042
300.00005
300
300
300
300
300
300
300
300
300
300
300
300
300
300
300
300
300
300
300
300
300
300
300
300
300
300
300
300
300
340.83308
323.70383
311.31899
304.43907
301.44388
300.39406
300.09103
300.01788
300.00299
300.00042
300.00005
300
300
300
300
300
300
300
300
300
300
300
300
300
300
300
300
300
300
300
300
300
300
300
300
300
300
300
300
300
340.83308
323.70364
311.31834
304.43822
301.44332
300.39387
300.09102
300.0179
300.003
300.00042
300.00005
300
300
300
300
300
300
300
300
300
300
300
300
300
300
300
300
300
300
300
300
300
300
300
300
300
300
300
300
300
340.83309
323.70349
311.31779
304.43749
301.44284
300.3937
300.091
300.01791
300.00301
300.00043
300.00005
300
300
300
300
300
300
300
300
300
300
300
300
300
300
300
300
300
300
300
300
300
300
300
300
300
300
300
300
300
340.83311
323.70339
311.31734
304.43687
301.44242
300.39356
300.09099
300.01793
300.00301
300.00043
300.00005
300.00001
300
300
300
300
300
300
300
300
300
300
300
300
300
300
300
300
300
300
300
300
300
300
300
300
300
300
300
300
340.83315
323.70333
311.31697
304.43634
301.44207
300.39344
300.09098
300.01794
300.00302
300.00043
300.00005
300.00001
300
300
300
300
300
300
300
300
300
300
300
300
300
300
300
300
300
300
300
300
300
300
300
300
300
300
300
300
340.8332
323.70332
311.31668
304.4359
301.44177
300.39333
300.09097
300.01795
300.00303
300.00044
300.00005
300.00001
300
300
300
300
300
300
300
300
300
300
300
300
300
300
300
300
300
300
300
300
300
300
300
300
300
300
300
300
340.83326
323.70335
311.31647
304.43553
301.44151
300.39324
300.09096
300.01796
300.00303
300.00044
300.00005
300.00001
300
300
300
300
300
300
300
300
300
300
300
300
300
300
300
300
300
300
300
300
300
300
300
300
300
300
300
300
340.83334
323.70343
311.31632
304.43524
301.4413
300.39317
300.09095
300.01796
300.00304
300.00044
300.00005
300.00001
300
300
300
300
300
300
300
300
300
300
300
300
300
300
300
300
300
300
300
300
300
300
300
300
300
300
300
300
340.83343
323.70355
311.31624
304.435
301.44112
300.3931
300.09095
300.01797
300.00304
300.00044
300.00005
300.00001
300
300
300
300
300
300
300
300
300
300
300
300
300
300
300
300
300
300
300
300
300
300
300
300
300
300
300
300
340.83354
323.70372
311.31622
304.43483
301.44098
300.39305
300.09094
300.01798
300.00304
300.00044
300.00005
300.00001
300
300
300
300
300
300
300
300
300
300
300
300
300
300
300
300
300
300
300
300
300
300
300
300
300
300
300
300
340.83367
323.70394
311.31627
304.43471
301.44087
300.39301
300.09094
300.01798
300.00305
300.00044
300.00005
300.00001
300
300
300
300
300
300
300
300
300
300
300
300
300
300
300
300
300
300
300
300
300
300
300
300
300
300
300
300
340.83382
323.7042
311.31638
304.43465
301.44078
300.39298
300.09094
300.01798
300.00305
300.00044
300.00005
300.00001
300
300
300
300
300
300
300
300
300
300
300
300
300
300
300
300
300
300
300
300
300
300
300
300
300
300
300
300
340.83399
323.70452
311.31656
304.43463
301.44072
300.39295
300.09094
300.01799
300.00305
300.00044
300.00006
300.00001
300
300
300
300
300
300
300
300
300
300
300
300
300
300
300
300
300
300
300
300
300
300
300
300
300
300
300
300
340.83418
323.7049
311.3168
304.43467
301.44069
300.39294
300.09094
300.01799
300.00305
300.00044
300.00006
300.00001
300
300
300
300
300
300
300
300
300
300
300
300
300
300
300
300
300
300
300
300
300
300
300
300
300
300
300
300
340.8344
323.70533
311.31711
304.43476
301.44069
300.39293
300.09094
300.01799
300.00306
300.00045
300.00006
300.00001
300
300
300
300
300
300
300
300
300
300
300
300
300
300
300
300
300
300
300
300
300
300
300
300
300
300
300
300
340.83464
323.70583
311.31749
304.4349
301.4407
300.39293
300.09094
300.018
300.00306
300.00045
300.00006
300.00001
300
300
300
300
300
300
300
300
300
300
300
300
300
300
300
300
300
300
300
300
300
300
300
300
300
300
300
300
340.83492
323.70641
311.31794
304.43509
301.44075
300.39293
300.09095
300.018
300.00306
300.00045
300.00006
300.00001
300
300
300
300
300
300
300
300
300
300
300
300
300
300
300
300
300
300
300
300
300
300
300
300
300
300
300
300
340.83524
323.70706
311.31848
304.43533
301.44081
300.39294
300.09095
300.018
300.00306
300.00045
300.00006
300.00001
300
300
300
300
300
300
300
300
300
300
300
300
300
300
300
300
300
300
300
300
300
300
300
300
300
300
300
300
340.83559
323.7078
311.3191
304.43563
301.4409
300.39297
300.09096
300.018
300.00306
300.00045
300.00006
300.00001
300
300
300
300
300
300
300
300
300
300
300
300
300
300
300
300
300
300
300
300
300
300
300
300
300
300
300
300
340.83599
323.70864
311.31981
304.43599
301.44102
300.39299
300.09096
300.01801
300.00306
300.00045
300.00006
300.00001
300
300
300
300
300
300
300
300
300
300
300
300
300
300
300
300
300
300
300
300
300
300
300
300
300
300
300
300
340.83644
323.70959
311.32064
304.43641
301.44117
300.39303
300.09097
300.01801
300.00306
300.00045
300.00006
300.00001
300
300
300
300
300
300
300
300
300
300
300
300
300
300
300
300
300
300
300
300
300
300
300
300
300
300
300
300
340.83696
323.71066
311.32158
304.43691
301.44134
300.39307
300.09098
300.01801
300.00306
300.00045
300.00006
300.00001
300
300
300
300
300
300
300
300
300
300
300
300
300
300
300
300
300
300
300
300
300
300
300
300
300
300
300
300
340.83754
323.71188
311.32265
304.43748
301.44155
300.39313
300.09099
300.01801
300.00306
300.00045
300.00006
300.00001
300
300
300
300
300
300
300
300
300
300
300
300
300
300
300
300
300
300
300
300
300
300
300
300
300
300
300
300
340.83822
323.71327
311.32387
304.43814
301.44179
300.39319
300.091
300.01801
300.00306
300.00045
300.00006
300.00001
300
300
300
300
300
300
300
300
300
300
300
300
300
300
300
300
300
300
300
300
300
300
300
300
300
300
300
300
340.839
323.71486
311.32526
304.43889
301.44206
300.39326
300.09101
300.01801
300.00306
300.00045
300.00006
300.00001
300
300
300
300
300
300
300
300
300
300
300
300
300
300
300
300
300
300
300
300
300
300
300
300
300
300
300
300
340.83992
323.7167
311.32686
304.43975
301.44238
300.39334
300.09103
300.01802
300.00306
300.00045
300.00006
300.00001
300
300
300
300
300
300
300
300
300
300
300
300
300
300
300
300
300
300
300
300
300
300
300
300
300
300
300
300
340.84103
323.71883
311.32868
304.44073
301.44274
300.39344
300.09104
300.01802
300.00306
300.00045
300.00006
300.00001
300
300
300
300
300
300
300
300
300
300
300
300
300
300
300
300
300
300
300
300
300
300
300
300
300
300
300
300
340.84246
323.72148
311.33089
304.44191
301.44317
300.39355
300.09106
300.01802
300.00306
300.00045
300.00006
300.00001
300
300
300
300
300
300
300
300
300
300
300
300
300
300
300
300
300
300
300
300
300
300
300
300
300
300
300
300
340.84418
323.72415
311.33302
304.44302
301.44357
300.39365
300.09108
300.01802
300.00306
300.00045
300.00006
300.00001
300
300
300
300
300
300
300
300
300
300
300
300
300
300
300
300
300
300
300
300
300
300
300
300
300
300
300
300
340.84834
323.73095
311.33792
304.44546
301.44445
300.39387
300.09112
300.01802
300.00306
300.00045
300.00006
300.00001
300
300
300
300
300
300
300
300
300
300
300
300
300
300
300
300
300
300
300
300
300
300
300
300
300
300
300
300
)
;

boundaryField
{
    wall
    {
        type            fixedValue;
        value           uniform 350;
    }
    sides
    {
        type            zeroGradient;
    }
    frontAndBack
    {
        type            empty;
    }
    inlet
    {
        type            fixedValue;
        value           uniform 300;
    }
    outlet
    {
        type            zeroGradient;
    }
}


// ************************************************************************* //
