/*--------------------------------*- C++ -*----------------------------------*\
  =========                 |
  \\      /  F ield         | OpenFOAM: The Open Source CFD Toolbox
   \\    /   O peration     | Website:  https://openfoam.org
    \\  /    A nd           | Version:  10
     \\/     M anipulation  |
\*---------------------------------------------------------------------------*/
FoamFile
{
    format      ascii;
    class       volVectorField;
    location    "0.09";
    object      U;
}
// * * * * * * * * * * * * * * * * * * * * * * * * * * * * * * * * * * * * * //

dimensions      [0 1 -1 0 0 0 0];

internalField   nonuniform List<vector> 
4000
(
(0 0.01863229 0.47773415)
(0 0.023500335 0.50885918)
(0 0.008157984 0.50052556)
(0 0.0056057728 0.50033661)
(0 0.004245157 0.50025753)
(0 0.003245259 0.50016898)
(0 0.0025464921 0.50011965)
(0 0.0020452573 0.50009006)
(0 0.0016676895 0.5000697)
(0 0.001373929 0.50005526)
(0 0.0011395857 0.50004483)
(0 0.000948306 0.50003715)
(0 0.00078882234 0.5000314)
(0 0.00065314686 0.50002705)
(0 0.00053543982 0.50002375)
(0 0.0004313098 0.50002126)
(0 0.00033735921 0.50001941)
(0 0.00025087615 0.50001807)
(0 0.00016961832 0.50001717)
(0 9.1654074e-05 0.50001666)
(0 1.5240842e-05 0.50001651)
(0 -6.1283643e-05 0.50001671)
(0 -0.00013959203 0.50001727)
(0 -0.00022145916 0.50001823)
(0 -0.00030887434 0.50001964)
(0 -0.00040417127 0.5000216)
(0 -0.0005102002 0.50002422)
(0 -0.00063056769 0.50002771)
(0 -0.00076998477 0.50003232)
(0 -0.00093479729 0.50003846)
(0 -0.0011338376 0.50004674)
(0 -0.0013797913 0.50005813)
(0 -0.0016914386 0.50007407)
(0 -0.002099165 0.50009708)
(0 -0.0026589382 0.50013486)
(0 -0.003453045 0.50020252)
(0 -0.0045464549 0.50027186)
(0 -0.0065711821 0.50043423)
(0 -0.017645247 0.50675206)
(0 -0.01358282 0.47975965)
(0 0.037418423 0.44798678)
(0 0.050926473 0.53232436)
(0 0.021939967 0.50804339)
(0 0.016107489 0.50357503)
(0 0.012385957 0.50242379)
(0 0.0094853783 0.50162302)
(0 0.0074903907 0.50115624)
(0 0.0060405347 0.50086519)
(0 0.0049365885 0.50066694)
(0 0.0040739617 0.50052767)
(0 0.0033836484 0.50042745)
(0 0.0028186557 0.50035373)
(0 0.0023465696 0.50029865)
(0 0.0019442684 0.50025708)
(0 0.0015947569 0.50022559)
(0 0.001285207 0.50020181)
(0 0.0010056626 0.50018411)
(0 0.00074815551 0.50017135)
(0 0.0005060824 0.50016278)
(0 0.00027374442 0.50015791)
(0 4.5992763e-05 0.50015646)
(0 -0.00018208221 0.50015836)
(0 -0.00041542104 0.50016373)
(0 -0.00065926585 0.50017288)
(0 -0.00091948239 0.50018636)
(0 -0.001202938 0.50020501)
(0 -0.0015179988 0.50023007)
(0 -0.001875218 0.50026335)
(0 -0.0022883294 0.50030746)
(0 -0.0027757335 0.50036632)
(0 -0.003362875 0.50044586)
(0 -0.0040862125 0.50055557)
(0 -0.0049989296 0.50071056)
(0 -0.0061810139 0.50093644)
(0 -0.007781445 0.50129484)
(0 -0.010076417 0.50191191)
(0 -0.013061164 0.50282837)
(0 -0.017380994 0.5060831)
(0 -0.038715205 0.52526542)
(0 -0.027873543 0.45024451)
(0 0.039866707 0.40986804)
(0 0.061377853 0.54931411)
(0 0.03192902 0.52188103)
(0 0.024305206 0.51008422)
(0 0.019140366 0.50659026)
(0 0.014923401 0.5045281)
(0 0.011953721 0.50327023)
(0 0.0097205144 0.50245615)
(0 0.0079875556 0.5018979)
(0 0.0066190866 0.50150471)
(0 0.005514795 0.50122077)
(0 0.0046050729 0.50101139)
(0 0.0038411137 0.50085468)
(0 0.0031874574 0.50073628)
(0 0.0026177106 0.50064647)
(0 0.0021117642 0.5005786)
(0 0.0016538885 0.50052804)
(0 0.0012314127 0.50049159)
(0 0.00083378069 0.50046709)
(0 0.0004518442 0.50045314)
(0 7.7313877e-05 0.50044899)
(0 -0.00029772165 0.50045442)
(0 -0.00068122336 0.50046976)
(0 -0.0010816245 0.5004959)
(0 -0.0015083295 0.5005344)
(0 -0.0019722968 0.50058764)
(0 -0.0024867957 0.50065913)
(0 -0.0030684383 0.50075395)
(0 -0.0037386437 0.50087952)
(0 -0.0045257538 0.50104677)
(0 -0.0054682409 0.50127226)
(0 -0.0066202204 0.50158215)
(0 -0.0080590649 0.50201859)
(0 -0.009889087 0.50265006)
(0 -0.012283194 0.50361626)
(0 -0.015629888 0.50520297)
(0 -0.019791978 0.5078613)
(0 -0.02510312 0.51641416)
(0 -0.04734062 0.53913523)
(0 -0.030819897 0.41495585)
(0 0.034764842 0.3618233)
(0 0.063766419 0.55459049)
(0 0.039294376 0.53746826)
(0 0.03000647 0.51849682)
(0 0.024032996 0.51198032)
(0 0.019199575 0.50849932)
(0 0.015657451 0.50626165)
(0 0.012877952 0.50475068)
(0 0.010671147 0.50369778)
(0 0.0089001639 0.50294782)
(0 0.0074518515 0.5024013)
(0 0.0062464444 0.50199572)
(0 0.0052260396 0.50169079)
(0 0.0043472894 0.50145956)
(0 0.0035772932 0.50128369)
(0 0.0028905884 0.50115048)
(0 0.0022669942 0.50105108)
(0 0.0016900787 0.50097933)
(0 0.0011460325 0.50093104)
(0 0.00062280729 0.50090352)
(0 0.00010943481 0.50089531)
(0 -0.00040457445 0.50090599)
(0 -0.00092977445 0.5009362)
(0 -0.001477311 0.50098766)
(0 -0.0020595454 0.50106337)
(0 -0.0026907731 0.50116792)
(0 -0.003388132 0.50130805)
(0 -0.0041728105 0.50149346)
(0 -0.0050717132 0.50173818)
(0 -0.0061197624 0.5020627)
(0 -0.0073629909 0.50249756)
(0 -0.0088638145 0.5030898)
(0 -0.010709828 0.50391422)
(0 -0.013007929 0.50508733)
(0 -0.015893887 0.50680873)
(0 -0.019770879 0.50947439)
(0 -0.024609022 0.51428553)
(0 -0.03098247 0.52824748)
(0 -0.050206664 0.54410928)
(0 -0.028393496 0.37252979)
(0 0.0273944 0.3149952)
(0 0.062220034 0.55030657)
(0 0.044491794 0.55146421)
(0 0.033872546 0.52749006)
(0 0.027354132 0.51772638)
(0 0.022345195 0.51291918)
(0 0.01852884 0.50972652)
(0 0.01542383 0.5074841)
(0 0.012907155 0.50588824)
(0 0.010849731 0.5047324)
(0 0.0091400392 0.50387915)
(0 0.0076990981 0.50323998)
(0 0.0064667929 0.50275598)
(0 0.0053965806 0.5023869)
(0 0.0044523036 0.50210494)
(0 0.0036053936 0.50189063)
(0 0.0028328096 0.50173027)
(0 0.0021155202 0.50161427)
(0 0.0014373428 0.50153608)
(0 0.0007840295 0.50149146)
(0 0.00014252909 0.50147809)
(0 -0.00049967606 0.50149534)
(0 -0.0011551779 0.5015442)
(0 -0.0018372195 0.50162738)
(0 -0.0025603834 0.50174957)
(0 -0.0033413638 0.50191796)
(0 -0.0041999144 0.50214298)
(0 -0.0051600623 0.50243954)
(0 -0.0062517184 0.50282896)
(0 -0.0075128406 0.50334192)
(0 -0.0089919038 0.50402314)
(0 -0.010751577 0.50493925)
(0 -0.012878955 0.50619317)
(0 -0.015478286 0.50794002)
(0 -0.018637635 0.51040649)
(0 -0.022719039 0.5140647)
(0 -0.028004359 0.52115612)
(0 -0.035518956 0.53932613)
(0 -0.050324384 0.54164724)
(0 -0.024032373 0.33080464)
(0 0.019806472 0.27541895)
(0 0.057873492 0.53987202)
(0 0.047199868 0.56256681)
(0 0.036328612 0.53660047)
(0 0.029491018 0.52351046)
(0 0.024531946 0.51740149)
(0 0.020633019 0.51335472)
(0 0.017373675 0.51043078)
(0 0.014685233 0.5083057)
(0 0.012446414 0.50673907)
(0 0.010555549 0.50556628)
(0 0.008940485 0.50467818)
(0 0.0075434455 0.50399978)
(0 0.0063184251 0.50347885)
(0 0.0052288301 0.50307865)
(0 0.0042450657 0.5027731)
(0 0.0033427856 0.50254367)
(0 0.0025015416 0.50237726)
(0 0.001703703 0.50226483)
(0 0.00093357786 0.50220056)
(0 0.00017668536 0.50218123)
(0 -0.00058091094 0.50220594)
(0 -0.0013532268 0.50227607)
(0 -0.0021549317 0.50239537)
(0 -0.0030020462 0.50257031)
(0 -0.0039126942 0.50281072)
(0 -0.0049080033 0.50313077)
(0 -0.0060132104 0.50355054)
(0 -0.0072590581 0.50409825)
(0 -0.0086836936 0.50481394)
(0 -0.010334638 0.50575471)
(0 -0.012270466 0.50700298)
(0 -0.014571668 0.50868205)
(0 -0.017340585 0.5109739)
(0 -0.020631617 0.51412152)
(0 -0.024741145 0.51874132)
(0 -0.030275244 0.52823511)
(0 -0.038375456 0.54872787)
(0 -0.048315719 0.53416174)
(0 -0.019006038 0.29430501)
(0 0.013050887 0.24285519)
(0 0.051661398 0.52540924)
(0 0.047500304 0.57026635)
(0 0.037560876 0.54551137)
(0 0.030664135 0.52928851)
(0 0.025890131 0.52179755)
(0 0.022058754 0.51698485)
(0 0.018781393 0.51345265)
(0 0.016030493 0.51083744)
(0 0.013697786 0.50887898)
(0 0.011696628 0.50739388)
(0 0.0099642387 0.50625707)
(0 0.0084478061 0.50538077)
(0 0.0071044104 0.50470278)
(0 0.0058990928 0.50417871)
(0 0.0048028874 0.50377659)
(0 0.0037914689 0.50347342)
(0 0.0028440362 0.50325282)
(0 0.0019423788 0.50310342)
(0 0.0010700934 0.50301782)
(0 0.00021191779 0.50299193)
(0 -0.00064689205 0.50302461)
(0 -0.0015211611 0.50311762)
(0 -0.0024263251 0.5032757)
(0 -0.0033790921 0.50350703)
(0 -0.0043981236 0.50382395)
(0 -0.0055048332 0.50424412)
(0 -0.006724333 0.50479225)
(0 -0.0080865523 0.50550269)
(0 -0.0096278146 0.50642335)
(0 -0.011392611 0.50762151)
(0 -0.01343352 0.50919219)
(0 -0.01582034 0.51127356)
(0 -0.018649025 0.51406549)
(0 -0.021951656 0.51783754)
(0 -0.025968072 0.52347637)
(0 -0.031543247 0.53536856)
(0 -0.039430656 0.55591544)
(0 -0.044659426 0.5231216)
(0 -0.014024037 0.26315267)
(0 0.0077370407 0.21593001)
(0 0.044667923 0.50832817)
(0 0.045997512 0.57442926)
(0 0.037783904 0.55372609)
(0 0.03105327 0.53495285)
(0 0.026539907 0.52602205)
(0 0.022894044 0.52051889)
(0 0.019707207 0.51645822)
(0 0.016980375 0.51340263)
(0 0.014625728 0.51108362)
(0 0.012574673 0.50930537)
(0 0.010774927 0.50793054)
(0 0.0091803658 0.50686146)
(0 0.007752825 0.50602816)
(0 0.0064603764 0.50538)
(0 0.0052758946 0.50488007)
(0 0.0041761127 0.50450156)
(0 0.0031407546 0.50422521)
(0 0.0021517809 0.50403754)
(0 0.0011927349 0.50392974)
(0 0.00024817086 0.50389693)
(0 -0.00069689344 0.50393775)
(0 -0.0016575199 0.50405428)
(0 -0.0026493059 0.50425219)
(0 -0.0036889793 0.5045412)
(0 -0.0047949771 0.50493588)
(0 -0.0059881121 0.50545693)
(0 -0.0072923439 0.50613306)
(0 -0.0087356082 0.50700371)
(0 -0.010350985 0.50812319)
(0 -0.012178386 0.50956693)
(0 -0.014263331 0.51144018)
(0 -0.016662331 0.51389209)
(0 -0.019457823 0.51713217)
(0 -0.022666749 0.52147369)
(0 -0.026508655 0.52818277)
(0 -0.031961994 0.54219606)
(0 -0.038993331 0.56055283)
(0 -0.040051703 0.50954344)
(0 -0.0096363667 0.23652698)
(0 0.0039709882 0.19404269)
(0 0.037720977 0.48994352)
(0 0.043376522 0.57533817)
(0 0.03724894 0.56080812)
(0 0.030862907 0.54034074)
(0 0.02663399 0.5299963)
(0 0.023241963 0.52387369)
(0 0.020219813 0.51937087)
(0 0.017581201 0.51593445)
(0 0.015261383 0.51329526)
(0 0.013209843 0.51125126)
(0 0.011384956 0.50965654)
(0 0.0097483091 0.50840636)
(0 0.0082674429 0.50742498)
(0 0.0069143196 0.50665698)
(0 0.0056644784 0.50606157)
(0 0.0044964638 0.50560885)
(0 0.0033911974 0.50527716)
(0 0.0023314163 0.50505126)
(0 0.0013011631 0.50492116)
(0 0.00028532365 0.50488128)
(0 -0.00073082353 0.50493006)
(0 -0.001762077 0.50506988)
(0 -0.0028236757 0.5053072)
(0 -0.0039318089 0.50565304)
(0 -0.0051040755 0.50612387)
(0 -0.0063600059 0.50674289)
(0 -0.0077216501 0.50754205)
(0 -0.0092141413 0.50856486)
(0 -0.010866392 0.50987058)
(0 -0.012712631 0.51154075)
(0 -0.014790817 0.51368829)
(0 -0.017143931 0.51646934)
(0 -0.019837047 0.52009599)
(0 -0.0228791 0.52494707)
(0 -0.026506113 0.53272386)
(0 -0.031717776 0.54834468)
(0 -0.037497034 0.56264991)
(0 -0.035095743 0.49445821)
(0 -0.0061237793 0.21410414)
(0 0.0015162854 0.17672568)
(0 0.031299429 0.47138727)
(0 0.040165201 0.57355677)
(0 0.03617149 0.56655197)
(0 0.030279566 0.54533925)
(0 0.026331704 0.53367869)
(0 0.023214331 0.52699274)
(0 0.020396417 0.52213181)
(0 0.01788752 0.51837994)
(0 0.01564321 0.51546683)
(0 0.013628817 0.51318998)
(0 0.01181259 0.51139865)
(0 0.010163948 0.50998373)
(0 0.0086563823 0.50886561)
(0 0.0072661304 0.50798548)
(0 0.0059718682 0.50729975)
(0 0.0047544331 0.50677616)
(0 0.0035964139 0.50639123)
(0 0.0024817754 0.50612832)
(0 0.0013954912 0.50597645)
(0 0.0003231949 0.50592952)
(0 -0.00074916549 0.5059858)
(0 -0.0018357145 0.5061479)
(0 -0.0029509131 0.50642294)
(0 -0.0041099748 0.50682298)
(0 -0.0053292034 0.50736598)
(0 -0.0066263662 0.5080771)
(0 -0.0080211074 0.50899075)
(0 -0.0095352944 0.51015342)
(0 -0.011193276 0.51162791)
(0 -0.013023168 0.51349984)
(0 -0.015055529 0.51588699)
(0 -0.017321385 0.5189485)
(0 -0.019868772 0.52289657)
(0 -0.022705774 0.52820355)
(0 -0.026103051 0.53699837)
(0 -0.030971473 0.55358974)
(0 -0.035312788 0.56249951)
(0 -0.030190498 0.47881096)
(0 -0.003508907 0.19566378)
(0 4.1404944e-05 0.16323212)
(0 0.025646675 0.45342833)
(0 0.036731226 0.56970477)
(0 0.034721992 0.57093788)
(0 0.029442297 0.54989837)
(0 0.025764927 0.53707192)
(0 0.022912645 0.52985787)
(0 0.020312785 0.52470901)
(0 0.017956069 0.52070481)
(0 0.015813011 0.51756484)
(0 0.013861996 0.51509)
(0 0.012079802 0.51312797)
(0 0.010443041 0.51156739)
(0 0.0089308212 0.51032647)
(0 0.0075236318 0.50934429)
(0 0.0062034413 0.50857539)
(0 0.004953613 0.50798594)
(0 0.0037586812 0.50755111)
(0 0.0026041383 0.50725325)
(0 0.0014761973 0.50708068)
(0 0.00036154997 0.50702685)
(0 -0.00075287466 0.50708994)
(0 -0.0018802139 0.50727272)
(0 -0.0030338379 0.5075828)
(0 -0.0042276722 0.50803304)
(0 -0.0054764202 0.50864248)
(0 -0.0067958024 0.5094377)
(0 -0.0082028098 0.51045478)
(0 -0.0097158971 0.51174223)
(0 -0.011354912 0.51336505)
(0 -0.013142062 0.51541123)
(0 -0.015101101 0.51800091)
(0 -0.017253145 0.52129312)
(0 -0.019631825 0.52550342)
(0 -0.022250898 0.53122706)
(0 -0.025414274 0.54095241)
(0 -0.029853199 0.5578435)
(0 -0.032733487 0.56050279)
(0 -0.025586768 0.46329436)
(0 -0.0016774038 0.18074648)
(0 -0.00075309839 0.15273967)
(0 0.020858135 0.43650108)
(0 0.033324245 0.56433539)
(0 0.03304282 0.57404167)
(0 0.028450657 0.55399722)
(0 0.025031986 0.5401988)
(0 0.022419588 0.53247858)
(0 0.020035097 0.52709379)
(0 0.017839182 0.52289233)
(0 0.015811289 0.51956905)
(0 0.013940266 0.51692991)
(0 0.012209931 0.51482323)
(0 0.01060305 0.51313698)
(0 0.0091036865 0.51178839)
(0 0.007696282 0.51071551)
(0 0.0063659999 0.50987184)
(0 0.0050987581 0.50922257)
(0 0.0038811488 0.50874205)
(0 0.0027003555 0.50841194)
(0 0.001544023 0.50822006)
(0 0.00040010899 0.5081596)
(0 -0.00074326121 0.50822861)
(0 -0.0018980209 0.50843004)
(0 -0.0030762402 0.50877179)
(0 -0.004290362 0.50926729)
(0 -0.0055533232 0.50993629)
(0 -0.0068786838 0.51080627)
(0 -0.0082807444 0.51191435)
(0 -0.0097746385 0.51331015)
(0 -0.01137606 0.51505987)
(0 -0.013101891 0.51725253)
(0 -0.014969869 0.52000881)
(0 -0.016993045 0.52348576)
(0 -0.019194245 0.52790957)
(0 -0.021598636 0.53402159)
(0 -0.024529456 0.54455402)
(0 -0.028477477 0.56110008)
(0 -0.029989931 0.5570607)
(0 -0.021437018 0.44835063)
(0 -0.00047122787 0.16876621)
(0 -0.0011039909 0.14455222)
(0 0.016924168 0.42082257)
(0 0.030099098 0.55791232)
(0 0.03125108 0.57598775)
(0 0.027377601 0.55762822)
(0 0.024205126 0.54308361)
(0 0.021800593 0.53487635)
(0 0.019618183 0.52929117)
(0 0.017581942 0.52493768)
(0 0.015674484 0.52146929)
(0 0.013892638 0.51869646)
(0 0.012225765 0.51646969)
(0 0.010661647 0.51467725)
(0 0.0091885183 0.51323622)
(0 0.0077943112 0.51208441)
(0 0.0064671251 0.5111749)
(0 0.0051953143 0.51047243)
(0 0.003967513 0.50995089)
(0 0.0027726455 0.50959159)
(0 0.0015998796 0.50938204)
(0 0.0004385552 0.50931523)
(0 -0.00072187923 0.5093892)
(0 -0.0018920244 0.50960694)
(0 -0.0030825345 0.50997658)
(0 -0.0043042771 0.51051183)
(0 -0.0055683717 0.51123289)
(0 -0.0068862346 0.51216769)
(0 -0.0082695899 0.51335384)
(0 -0.0097304936 0.51484143)
(0 -0.011280968 0.51669703)
(0 -0.012933328 0.51900984)
(0 -0.014700195 0.52189974)
(0 -0.016588254 0.52552116)
(0 -0.018613442 0.53012025)
(0 -0.020816681 0.53659654)
(0 -0.023520614 0.54778241)
(0 -0.02694521 0.56340699)
(0 -0.027251733 0.55254064)
(0 -0.017814382 0.43424874)
(0 0.00026754131 0.15917855)
(0 -0.0011846087 0.13811973)
(0 0.013767036 0.40647648)
(0 0.027135066 0.55081459)
(0 0.029433915 0.57692705)
(0 0.026274405 0.56079813)
(0 0.023336004 0.54574871)
(0 0.021106457 0.53707671)
(0 0.019106394 0.53131325)
(0 0.017221989 0.52684321)
(0 0.015434114 0.5232621)
(0 0.013745096 0.52038245)
(0 0.0121484 0.51805777)
(0 0.010635706 0.51617722)
(0 0.0091986225 0.51465833)
(0 0.0078280415 0.51343912)
(0 0.0065146483 0.51247271)
(0 0.005249024 0.5117238)
(0 0.0040217381 0.51116612)
(0 0.0028234187 0.51078084)
(0 0.0016447668 0.51055534)
(0 0.00047654347 0.51048253)
(0 -0.00069042787 0.5105604)
(0 -0.0018653623 0.51079199)
(0 -0.0030574604 0.51118551)
(0 -0.0042760038 0.51175481)
(0 -0.0055303311 0.51252022)
(0 -0.0068298235 0.51350983)
(0 -0.0081838385 0.51476133)
(0 -0.0096016905 0.51632475)
(0 -0.011092271 0.51826653)
(0 -0.012664142 0.52067541)
(0 -0.014325796 0.52366963)
(0 -0.016079202 0.52740146)
(0 -0.017937113 0.53214712)
(0 -0.019958365 0.53896354)
(0 -0.022443816 0.55063061)
(0 -0.02533797 0.5648505)
(0 -0.024629085 0.54726611)
(0 -0.014729637 0.42114137)
(0 0.00067653223 0.15152265)
(0 -0.0011131497 0.13300396)
(0 0.011276058 0.39345787)
(0 0.024459227 0.5433409)
(0 0.027649189 0.57701759)
(0 0.025173297 0.56352714)
(0 0.02245862 0.54821527)
(0 0.020374579 0.53910642)
(0 0.018534318 0.5331762)
(0 0.016789856 0.52861583)
(0 0.01511667 0.52494862)
(0 0.013520178 0.52198504)
(0 0.011996659 0.51958184)
(0 0.010540699 0.51762945)
(0 0.0091465079 0.5160461)
(0 0.0078073967 0.51477033)
(0 0.0065162488 0.51375563)
(0 0.0052656129 0.51296687)
(0 0.0040478293 0.51237787)
(0 0.0028551323 0.51196983)
(0 0.0016797056 0.51173012)
(0 0.00051370924 0.51165163)
(0 -0.00065066619 0.51173234)
(0 -0.0018212579 0.51197527)
(0 -0.0030058358 0.51238865)
(0 -0.0042121473 0.5129863)
(0 -0.0054478489 0.51378851)
(0 -0.0067204539 0.51482327)
(0 -0.008037219 0.51612804)
(0 -0.0094050996 0.5177525)
(0 -0.010830409 0.51976257)
(0 -0.012318757 0.52224614)
(0 -0.013875481 0.52531937)
(0 -0.015499407 0.52913406)
(0 -0.017203152 0.53400596)
(0 -0.019063173 0.5411366)
(0 -0.021339576 0.55310598)
(0 -0.023715892 0.56553885)
(0 -0.022183601 0.54150876)
(0 -0.012152463 0.40909553)
(0 0.00086454443 0.14540657)
(0 -0.00096595878 0.12886086)
(0 0.0093325902 0.38170492)
(0 0.022067384 0.53571711)
(0 0.025931112 0.57640848)
(0 0.024091817 0.56584316)
(0 0.021592837 0.55050222)
(0 0.019630481 0.54099121)
(0 0.017927544 0.53489818)
(0 0.016309364 0.53026537)
(0 0.014743684 0.52653308)
(0 0.013236826 0.52350451)
(0 0.011786837 0.5210393)
(0 0.010390363 0.51902926)
(0 0.0090435393 0.51739344)
(0 0.0077415754 0.51607102)
(0 0.0064791691 0.51501601)
(0 0.0052505589 0.5141936)
(0 0.0040496603 0.51357789)
(0 0.002870178 0.51315017)
(0 0.0017056861 0.51289793)
(0 0.00054967737 0.51281407)
(0 -0.00060434332 0.51289656)
(0 -0.0017628882 0.5131484)
(0 -0.0029323646 0.51357773)
(0 -0.0041190803 0.51419827)
(0 -0.0053291482 0.51503012)
(0 -0.0065684143 0.51610097)
(0 -0.007842322 0.5174479)
(0 -0.0091558595 0.51912003)
(0 -0.010513289 0.52118257)
(0 -0.011917981 0.52372238)
(0 -0.013372994 0.52685352)
(0 -0.01487543 0.53072986)
(0 -0.016439978 0.53571451)
(0 -0.018158274 0.5431305)
(0 -0.020235031 0.55522571)
(0 -0.022120118 0.56558587)
(0 -0.019942343 0.53548606)
(0 -0.010029817 0.39811639)
(0 0.00091184543 0.1404996)
(0 -0.00079045927 0.12543105)
(0 0.0078242077 0.37112548)
(0 0.019938535 0.52810861)
(0 0.024296575 0.57523194)
(0 0.023037529 0.56777667)
(0 0.020748447 0.55262474)
(0 0.018890174 0.54275353)
(0 0.017304006 0.53649726)
(0 0.015798348 0.53180294)
(0 0.014332055 0.52802154)
(0 0.012910479 0.52494323)
(0 0.011532635 0.52242972)
(0 0.010196565 0.52037415)
(0 0.008899753 0.5186963)
(0 0.0076388573 0.51733605)
(0 0.0064100329 0.51624793)
(0 0.0052089365 0.51539759)
(0 0.004030853 0.51475941)
(0 0.002870803 0.51431492)
(0 0.0017236321 0.5140517)
(0 0.00058407176 0.51396274)
(0 -0.00055314405 0.51404601)
(0 -0.0016932865 0.51430443)
(0 -0.0028414974 0.51474604)
(0 -0.004002766 0.51538436)
(0 -0.0051818214 0.51623921)
(0 -0.0063830542 0.5173379)
(0 -0.0076103773 0.51871701)
(0 -0.0088671802 0.52042503)
(0 -0.010156139 0.5225264)
(0 -0.011478985 0.52510691)
(0 -0.01283723 0.52827887)
(0 -0.014227469 0.53220129)
(0 -0.01566783 0.53729009)
(0 -0.017261106 0.54495884)
(0 -0.019147013 0.55701208)
(0 -0.020576485 0.56510029)
(0 -0.017909547 0.52936613)
(0 -0.0082985603 0.38816954)
(0 0.00087513479 0.13653218)
(0 -0.00061467057 0.12252611)
(0 0.0066519551 0.36161595)
(0 0.01804393 0.52063391)
(0 0.022750426 0.57360164)
(0 0.022011662 0.56935807)
(0 0.019928587 0.55459385)
(0 0.01816264 0.54441136)
(0 0.01667562 0.53798979)
(0 0.01526969 0.53323958)
(0 0.01389465 0.52942076)
(0 0.012553388 0.52630474)
(0 0.011245296 0.52375412)
(0 0.0099693071 0.52166314)
(0 0.0087238032 0.51995223)
(0 0.0075065163 0.51856183)
(0 0.0063147489 0.517447)
(0 0.0051453265 0.51657383)
(0 0.0039947048 0.51591704)
(0 0.00285906 0.5154584)
(0 0.0017343796 0.51518565)
(0 0.00061652314 0.51509183)
(0 -0.00049865097 0.51517492)
(0 -0.0016152759 0.51543778)
(0 -0.0027373396 0.51588827)
(0 -0.003868648 0.51653969)
(0 -0.0050127116 0.51741154)
(0 -0.0061726711 0.51853069)
(0 -0.0073511694 0.5199332)
(0 -0.0085503206 0.5216669)
(0 -0.009771605 0.52379554)
(0 -0.01101559 0.52640392)
(0 -0.012282815 0.52960317)
(0 -0.01357037 0.53356074)
(0 -0.014900436 0.53874794)
(0 -0.016381944 0.54663302)
(0 -0.018084803 0.5584894)
(0 -0.019098983 0.56418064)
(0 -0.016075295 0.52327589)
(0 -0.0068937437 0.37919857)
(0 0.00079320345 0.13329203)
(0 -0.00045373811 0.12001276)
(0 0.0057333873 0.35307273)
(0 0.016352693 0.51337638)
(0 0.021289746 0.57161389)
(0 0.021011643 0.57061652)
(0 0.019132185 0.556417)
(0 0.017451886 0.54597804)
(0 0.016049799 0.53938966)
(0 0.014732389 0.53458541)
(0 0.013441033 0.5307374)
(0 0.012175075 0.52759306)
(0 0.010933866 0.52501432)
(0 0.0097168641 0.52289632)
(0 0.0085230107 0.52115991)
(0 0.0073508193 0.51974596)
(0 0.0061984825 0.51861001)
(0 0.0050637785 0.51771852)
(0 0.0039441524 0.51704656)
(0 0.0028367828 0.51657613)
(0 0.0017386663 0.51629512)
(0 0.00064667471 0.51619665)
(0 -0.00044232153 0.5162787)
(0 -0.0015314289 0.51654402)
(0 -0.0026236014 0.51700033)
(0 -0.0037215973 0.51766066)
(0 -0.0048278677 0.51854416)
(0 -0.005944492 0.51967728)
(0 -0.0070730701 0.52109554)
(0 -0.0082147092 0.52284622)
(0 -0.0093700033 0.52499244)
(0 -0.010538716 0.52761818)
(0 -0.011720839 0.53083419)
(0 -0.012914711 0.53481953)
(0 -0.014146558 0.54010063)
(0 -0.015525999 0.54816209)
(0 -0.017052369 0.55968227)
(0 -0.017692976 0.56291343)
(0 -0.014421909 0.5173091)
(0 -0.0057540232 0.37113659)
(0 0.00069167777 0.13061588)
(0 -0.00031457406 0.11779873)
(0 0.0050027249 0.34539833)
(0 0.014835127 0.50639337)
(0 0.019907243 0.56934963)
(0 0.020032965 0.57157938)
(0 0.018355725 0.55809877)
(0 0.016758572 0.54746273)
(0 0.015430717 0.54070806)
(0 0.014192505 0.53584923)
(0 0.012978162 0.53197759)
(0 0.011782827 0.52881217)
(0 0.010605529 0.52621258)
(0 0.0094459892 0.52407445)
(0 0.0083034822 0.52231887)
(0 0.0071770852 0.52088702)
(0 0.0060656782 0.51973475)
(0 0.0049678132 0.5188289)
(0 0.0038817661 0.5181448)
(0 0.002805578 0.51766466)
(0 0.0017371292 0.51737653)
(0 0.00067418731 0.51727359)
(0 -0.00038547595 0.5173538)
(0 -0.0014440531 0.51761984)
(0 -0.0025035831 0.51807922)
(0 -0.0035659057 0.51874473)
(0 -0.0046325587 0.51963518)
(0 -0.0057047251 0.52077661)
(0 -0.0067831504 0.52220406)
(0 -0.0078681473 0.52396433)
(0 -0.0089596531 0.52612004)
(0 -0.010056883 0.52875458)
(0 -0.011159574 0.53197926)
(0 -0.012267806 0.53598749)
(0 -0.013411348 0.54135788)
(0 -0.01469513 0.54955293)
(0 -0.016050299 0.56061435)
(0 -0.01635817 0.56137275)
(0 -0.012928573 0.51153333)
(0 -0.0048248345 0.36391356)
(0 0.00058671478 0.12838053)
(0 -0.00019911833 0.11582168)
(0 0.0044092154 0.33850471)
(0 0.01346439 0.49972343)
(0 0.018593731 0.56687664)
(0 0.019070526 0.57227184)
(0 0.017594577 0.55964143)
(0 0.016081318 0.54887087)
(0 0.014820341 0.54195349)
(0 0.013653971 0.53703834)
(0 0.012511027 0.53314669)
(0 0.011382177 0.52996582)
(0 0.010265945 0.52735125)
(0 0.0091621516 0.52519866)
(0 0.0080702679 0.52342924)
(0 0.006989785 0.52198427)
(0 0.0059201192 0.52081985)
(0 0.0048604548 0.51990305)
(0 0.0038097662 0.51920944)
(0 0.0027668346 0.51872143)
(0 0.0017303089 0.51842718)
(0 0.00069874388 0.51831993)
(0 -0.00032929406 0.51839761)
(0 -0.0013551913 0.5186628)
(0 -0.0023801837 0.51912284)
(0 -0.0034053107 0.51979027)
(0 -0.0044313252 0.52068358)
(0 -0.005458653 0.52182841)
(0 -0.0064873349 0.52325942)
(0 -0.0075170475 0.52502302)
(0 -0.0085472281 0.52718148)
(0 -0.0095767119 0.52981781)
(0 -0.01060515 0.5330449)
(0 -0.011634612 0.53707274)
(0 -0.012697549 0.54252672)
(0 -0.013889277 0.55081047)
(0 -0.015077452 0.56130764)
(0 -0.015091156 0.55962103)
(0 -0.011574403 0.50599578)
(0 -0.0040598069 0.35746072)
(0 0.00048776138 0.12649481)
(0 -0.00010650365 0.11404051)
(0 0.0039147002 0.33231457)
(0 0.012217126 0.49339167)
(0 0.01733979 0.56425176)
(0 0.018119542 0.57271696)
(0 0.016843966 0.56104556)
(0 0.015417744 0.55020477)
(0 0.014219296 0.54313193)
(0 0.013119294 0.53815851)
(0 0.012043214 0.53424915)
(0 0.010977339 0.53105732)
(0 0.0099195849 0.52843259)
(0 0.0088697839 0.52627031)
(0 0.0078275396 0.52449154)
(0 0.0067926664 0.52303755)
(0 0.0057650126 0.52186454)
(0 0.0047442885 0.52093976)
(0 0.0037300612 0.52023895)
(0 0.0027217482 0.51974467)
(0 0.0017186662 0.51944519)
(0 0.00072005792 0.51933376)
(0 -0.00027481363 0.51940831)
(0 -0.0012666284 0.51967129)
(0 -0.0022559206 0.52012988)
(0 -0.0032430349 0.52079638)
(0 -0.0042280489 0.52168899)
(0 -0.0052107434 0.52283302)
(0 -0.0061905689 0.52426278)
(0 -0.0071666758 0.52602438)
(0 -0.0081380956 0.52817987)
(0 -0.0091033778 0.53081219)
(0 -0.010062167 0.53403675)
(0 -0.011018533 0.53808166)
(0 -0.012006519 0.54361175)
(0 -0.013107618 0.55193797)
(0 -0.01413225 0.5617822)
(0 -0.013887376 0.55771023)
(0 -0.010340343 0.50072812)
(0 -0.0034210564 0.35171319)
(0 0.00039956418 0.12489247)
(0 -3.4456033e-05 0.11242895)
(0 0.0034910614 0.32676145)
(0 0.011073545 0.48741382)
(0 0.016136797 0.56152286)
(0 0.017176138 0.57293579)
(0 0.016099662 0.56231055)
(0 0.01476526 0.55146425)
(0 0.01362756 0.54424712)
(0 0.012590143 0.53921407)
(0 0.011577399 0.5352886)
(0 0.010571612 0.5320895)
(0 0.0095700493 0.52945873)
(0 0.0085725254 0.52729083)
(0 0.0075787737 0.52550657)
(0 0.0065888892 0.52404709)
(0 0.0056030878 0.52286859)
(0 0.0046215312 0.52193841)
(0 0.0036442976 0.52123242)
(0 0.0026713563 0.52073329)
(0 0.0017026046 0.52042935)
(0 0.00073788631 0.52031389)
(0 -0.00022292744 0.52038477)
(0 -0.0011798999 0.52064437)
(0 -0.002132954 0.52109969)
(0 -0.003081831 0.52176281)
(0 -0.0040260245 0.52265165)
(0 -0.0049647591 0.52379123)
(0 -0.0058969778 0.52521559)
(0 -0.0068213752 0.52697062)
(0 -0.0077366208 0.52911826)
(0 -0.0086410169 0.53174162)
(0 -0.0095342076 0.53495958)
(0 -0.010422083 0.53901912)
(0 -0.011339045 0.54461563)
(0 -0.012349434 0.55293758)
(0 -0.013213636 0.5620562)
(0 -0.012742544 0.55568337)
(0 -0.0092102328 0.49575028)
(0 -0.0028788481 0.3466112)
(0 0.00032362065 0.12352591)
(0 1.9796824e-05 0.11097082)
(0 0.0031179026 0.32178906)
(0 0.010017262 0.48179892)
(0 0.014977571 0.55873033)
(0 0.016237736 0.57294766)
(0 0.01535848 0.56343518)
(0 0.014121665 0.55264724)
(0 0.013045007 0.54530087)
(0 0.012067821 0.54020804)
(0 0.011115757 0.53626783)
(0 0.010167717 0.53306473)
(0 0.0092203364 0.5304316)
(0 0.0082734347 0.52826168)
(0 0.0073269153 0.52647534)
(0 0.0063811486 0.52501346)
(0 0.0054366868 0.52383219)
(0 0.0044940956 0.52289888)
(0 0.0035539043 0.52218948)
(0 0.0026165664 0.52168675)
(0 0.0016824868 0.52137905)
(0 0.00075203449 0.52125969)
(0 -0.00017438883 0.52132648)
(0 -0.0010963096 0.52158169)
(0 -0.0020131185 0.52203217)
(0 -0.0029240318 0.52268978)
(0 -0.0038280344 0.5235722)
(0 -0.0047238636 0.52470419)
(0 -0.0056100125 0.52611956)
(0 -0.0064847599 0.52786405)
(0 -0.0073464209 0.52999955)
(0 -0.008193048 0.53260961)
(0 -0.0090242426 0.53581736)
(0 -0.0098473758 0.53988867)
(0 -0.010695936 0.5455396)
(0 -0.011614709 0.55381081)
(0 -0.01232172 0.56214623)
(0 -0.011653625 0.5535759)
(0 -0.0081713147 0.4910732)
(0 -0.0024110017 0.34210041)
(0 0.00025930071 0.12236113)
(0 5.8962965e-05 0.10965667)
(0 0.0027806395 0.31735008)
(0 0.0090350933 0.47655113)
(0 0.013856788 0.55590823)
(0 0.015303352 0.57277032)
(0 0.014618631 0.56441797)
(0 0.013485577 0.55375034)
(0 0.012471799 0.54629351)
(0 0.011553619 0.54114244)
(0 0.010660261 0.53718901)
(0 0.0097680428 0.53398501)
(0 0.0088730433 0.53135297)
(0 0.0079751449 0.52918433)
(0 0.0070744928 0.52739898)
(0 0.0061717561 0.5259375)
(0 0.005267818 0.52475587)
(0 0.0043636222 0.52382146)
(0 0.0034601063 0.52311024)
(0 0.0025581553 0.52260502)
(0 0.0016586213 0.5222942)
(0 0.000762333 0.52217109)
(0 -0.00012984545 0.52223343)
(0 -0.0010169738 0.5224834)
(0 -0.0018979798 0.5229277)
(0 -0.0027716222 0.52357798)
(0 -0.0036364389 0.52445169)
(0 -0.0044907337 0.52557337)
(0 -0.005332589 0.5269766)
(0 -0.0061598875 0.52870703)
(0 -0.0069705739 0.53082656)
(0 -0.0077624223 0.53341939)
(0 -0.0085349179 0.53661352)
(0 -0.0092964708 0.54069301)
(0 -0.010078411 0.5463841)
(0 -0.010904496 0.55455908)
(0 -0.011458185 0.56206769)
(0 -0.0106195 0.55141704)
(0 -0.0072144227 0.48670074)
(0 -0.0020021658 0.33813101)
(0 0.00020508589 0.12137353)
(0 8.5403934e-05 0.10848143)
(0 0.0024690826 0.31340472)
(0 0.0081169061 0.47167072)
(0 0.0127713 0.55308516)
(0 0.01437384 0.57242015)
(0 0.013879988 0.56525761)
(0 0.012856711 0.55476941)
(0 0.011908648 0.54722429)
(0 0.011049033 0.54201847)
(0 0.010212869 0.53805382)
(0 0.0093748049 0.53485209)
(0 0.0085304871 0.5322245)
(0 0.0076799526 0.53006031)
(0 0.0068236783 0.52827883)
(0 0.0059626743 0.52682029)
(0 0.0050981688 0.5256405)
(0 0.0042314725 0.5247068)
(0 0.0033639025 0.52399519)
(0 0.002496734 0.52348849)
(0 0.0016312158 0.52317514)
(0 0.00076857983 0.52304842)
(0 -8.9907057e-05 0.52310604)
(0 -0.00094290007 0.52335007)
(0 -0.0017889249 0.52378704)
(0 -0.0026263415 0.52442843)
(0 -0.0034532932 0.52529147)
(0 -0.0042676932 0.52640046)
(0 -0.0050672407 0.5277888)
(0 -0.0058494299 0.52950203)
(0 -0.0066118081 0.53160209)
(0 -0.007351829 0.534174)
(0 -0.0080687733 0.53735114)
(0 -0.0087715932 0.5414343)
(0 -0.0094883229 0.5471493)
(0 -0.010221089 0.55518434)
(0 -0.010626444 0.56183527)
(0 -0.0096413321 0.54923093)
(0 -0.0063340898 0.48263116)
(0 -0.0016427019 0.33465653)
(0 0.00015973588 0.12054426)
(0 0.00010107403 0.10744257)
(0 0.0021765226 0.30991902)
(0 0.0072556084 0.46715462)
(0 0.01172043 0.55028483)
(0 0.013452102 0.57191239)
(0 0.013144251 0.56595332)
(0 0.012236068 0.55570014)
(0 0.011356977 0.54809179)
(0 0.010555913 0.54283688)
(0 0.0097756511 0.53886371)