/*--------------------------------*- C++ -*----------------------------------*\
  =========                 |
  \\      /  F ield         | OpenFOAM: The Open Source CFD Toolbox
   \\    /   O peration     | Website:  https://openfoam.org
    \\  /    A nd           | Version:  10
     \\/     M anipulation  |
\*---------------------------------------------------------------------------*/
FoamFile
{
    format      ascii;
    class       volVectorField;
    location    "0.09";
    object      U_0;
}
// * * * * * * * * * * * * * * * * * * * * * * * * * * * * * * * * * * * * * //

dimensions      [0 1 -1 0 0 0 0];

internalField   nonuniform List<vector> 
4000
(
(0 0.01863202 0.47773428)
(0 0.023499834 0.50885911)
(0 0.0081575287 0.50052557)
(0 0.0056053223 0.50033662)
(0 0.0042446769 0.50025753)
(0 0.0032447699 0.50016898)
(0 0.0025460086 0.50011965)
(0 0.0020447877 0.50009005)
(0 0.0016672406 0.50006969)
(0 0.0013735068 0.50005525)
(0 0.0011391952 0.50004482)
(0 0.00094795147 0.50003714)
(0 0.00078850738 0.50003139)
(0 0.00065287458 0.50002704)
(0 0.00053521285 0.50002374)
(0 0.00043113041 0.50002125)
(0 0.0003372293 0.5000194)
(0 0.00025079739 0.50001806)
(0 0.00016959208 0.50001716)
(0 9.1681523e-05 0.50001665)
(0 1.5322925e-05 0.5000165)
(0 -6.1146199e-05 0.5000167)
(0 -0.00013939878 0.50001726)
(0 -0.00022120989 0.50001822)
(0 -0.00030856914 0.50001963)
(0 -0.00040381059 0.50002159)
(0 -0.000509785 0.50002421)
(0 -0.00063009947 0.5000277)
(0 -0.00076946573 0.50003231)
(0 -0.00093423046 0.50003845)
(0 -0.0011332271 0.50004673)
(0 -0.0013791427 0.50005812)
(0 -0.0016907591 0.50007407)
(0 -0.0020984639 0.50009708)
(0 -0.0026582277 0.50013486)
(0 -0.003452346 0.50020253)
(0 -0.0045457984 0.50027188)
(0 -0.006570539 0.50043426)
(0 -0.017644574 0.50675197)
(0 -0.013582471 0.47975984)
(0 0.037417675 0.44798769)
(0 0.050924947 0.53232425)
(0 0.021938453 0.5080434)
(0 0.016106049 0.50357511)
(0 0.012384425 0.50242381)
(0 0.0094838305 0.50162302)
(0 0.0074888652 0.50115622)
(0 0.0060390546 0.50086515)
(0 0.0049351752 0.50066689)
(0 0.0040726334 0.50052761)
(0 0.0033824203 0.50042738)
(0 0.0028175408 0.50035365)
(0 0.0023455789 0.50029856)
(0 0.0019434113 0.50025699)
(0 0.0015940415 0.50022549)
(0 0.0012846402 0.50020171)
(0 0.0010052501 0.500184)
(0 0.00074790235 0.50017124)
(0 0.00050599286 0.50016267)
(0 0.00027382206 0.50015779)
(0 4.6240537e-05 0.50015634)
(0 -0.000181662 0.50015824)
(0 -0.00041482679 0.50016361)
(0 -0.0006584967 0.50017276)
(0 -0.00091853844 0.50018624)
(0 -0.0012018204 0.50020489)
(0 -0.0015167102 0.50022996)
(0 -0.0018737626 0.50026324)
(0 -0.0022867136 0.50030736)
(0 -0.0027739663 0.50036622)
(0 -0.0033609688 0.50044577)
(0 -0.0040841836 0.5005555)
(0 -0.0049968001 0.5007105)
(0 -0.0061788123 0.50093641)
(0 -0.0077792057 0.50129483)
(0 -0.010074195 0.50191195)
(0 -0.013059071 0.5028285)
(0 -0.017378883 0.50608316)
(0 -0.038713121 0.52526526)
(0 -0.027872527 0.45024585)
(0 0.039865568 0.40987052)
(0 0.061375218 0.5493144)
(0 0.03192618 0.52188096)
(0 0.024302623 0.51008439)
(0 0.019137647 0.50659033)
(0 0.014920672 0.50452809)
(0 0.01195104 0.50327017)
(0 0.0097179179 0.50245604)
(0 0.0079850804 0.50189775)
(0 0.0066167631 0.50150453)
(0 0.0055126486 0.50122056)
(0 0.0046031253 0.50101115)
(0 0.0038393832 0.50085442)
(0 0.0031859598 0.500736)
(0 0.0026164592 0.50064618)
(0 0.0021107704 0.5005783)
(0 0.001653162 0.50052773)
(0 0.001230962 0.50049127)
(0 0.00083361282 0.50046676)
(0 0.00045196528 0.50045281)
(0 7.7729053e-05 0.50044865)
(0 -0.0002970083 0.50045407)
(0 -0.00068020876 0.50046941)
(0 -0.0010803069 0.50049556)
(0 -0.0015067083 0.50053406)
(0 -0.0019703736 0.5005873)
(0 -0.0024845742 0.50065879)
(0 -0.0030659249 0.50075363)
(0 -0.0037358483 0.50087921)
(0 -0.0045226909 0.50104648)
(0 -0.0054649303 0.501272)
(0 -0.0066166887 0.50158192)
(0 -0.008055348 0.50201841)
(0 -0.0098852325 0.50264995)
(0 -0.012279257 0.50361623)
(0 -0.015625951 0.50520306)
(0 -0.019788233 0.50786157)
(0 -0.02509918 0.51641418)
(0 -0.04733694 0.53913554)
(0 -0.030818252 0.41495948)
(0 0.034763422 0.36182819)
(0 0.0637626 0.55459186)
(0 0.039289889 0.53746803)
(0 0.030002504 0.51849699)
(0 0.024028922 0.51198044)
(0 0.019195505 0.50849928)
(0 0.015653467 0.5062615)
(0 0.012874104 0.50475043)
(0 0.010667487 0.50369745)
(0 0.0088967339 0.50294743)
(0 0.0074486865 0.50240085)
(0 0.0062435746 0.50199523)
(0 0.0052234905 0.50169025)
(0 0.0043450827 0.501459)
(0 0.0035754473 0.5012831)
(0 0.002889119 0.50114986)
(0 0.0022659148 0.50105044)
(0 0.0016894009 0.50097867)
(0 0.0011457664 0.50093036)
(0 0.00062296158 0.50090283)
(0 0.00011001694 0.50089461)
(0 -0.00040355827 0.50090528)
(0 -0.00092831937 0.50093549)
(0 -0.0014754136 0.50098694)
(0 -0.0020572043 0.50106265)
(0 -0.0026879892 0.50116721)
(0 -0.0033849091 0.50130736)
(0 -0.0041691562 0.50149278)
(0 -0.00506764 0.50173753)
(0 -0.0061152888 0.50206209)
(0 -0.007358143 0.50249701)
(0 -0.0088586277 0.50308932)
(0 -0.010704349 0.50391384)
(0 -0.013002224 0.50508708)
(0 -0.01588803 0.50680864)
(0 -0.019764977 0.50947454)
(0 -0.024603297 0.51428586)
(0 -0.030976218 0.52824733)
(0 -0.050201171 0.54411094)
(0 -0.028391284 0.37253696)
(0 0.027392804 0.3150032)
(0 0.062215014 0.55030995)
(0 0.044485358 0.55146391)
(0 0.033866879 0.52749006)
(0 0.027348493 0.5177265)
(0 0.022339596 0.51291909)
(0 0.018523375 0.50972624)
(0 0.015418569 0.50748366)
(0 0.012902164 0.50588767)
(0 0.010845063 0.50473172)
(0 0.0091357377 0.50387837)
(0 0.0076952015 0.50323913)
(0 0.0064633333 0.50275505)
(0 0.0053935852 0.50238592)
(0 0.0044497953 0.50210391)
(0 0.0036033919 0.50188956)
(0 0.0028313315 0.50172916)
(0 0.0021145805 0.50161313)
(0 0.0014369543 0.50153491)
(0 0.00078420343 0.50149027)
(0 0.00014327545 0.50147689)
(0 -0.00049834861 0.50149412)
(0 -0.0011532622 0.50154297)
(0 -0.0018347099 0.50162614)
(0 -0.0025572765 0.50174834)
(0 -0.0033376589 0.50191673)
(0 -0.0041956144 0.50214177)
(0 -0.0051551745 0.50243836)
(0 -0.0062462562 0.50282782)
(0 -0.0075068247 0.50334085)
(0 -0.0089853647 0.50402216)
(0 -0.010744557 0.50493839)
(0 -0.012871509 0.50619247)
(0 -0.015470494 0.50793953)
(0 -0.018629591 0.51040628)
(0 -0.02271087 0.51406485)
(0 -0.027996217 0.52115631)
(0 -0.035509881 0.5393258)
(0 -0.050316911 0.54165146)
(0 -0.02402968 0.33081658)
(0 0.019804783 0.27543063)
(0 0.057867296 0.53987851)
(0 0.047191229 0.56256672)
(0 0.036320867 0.53660008)
(0 0.029483556 0.52351049)
(0 0.024524594 0.51740129)
(0 0.020625866 0.51335423)
(0 0.017366813 0.51043005)
(0 0.014678742 0.50830478)
(0 0.012440355 0.50673799)
(0 0.010549976 0.50556506)
(0 0.0089354422 0.50467684)
(0 0.0075389709 0.50399834)
(0 0.0063145504 0.50347733)
(0 0.0052255822 0.50307705)
(0 0.0042424675 0.50277145)
(0 0.0033408568 0.50254196)
(0 0.0025002995 0.5023755)
(0 0.0017031632 0.50226304)
(0 0.0009337542 0.50219873)
(0 0.00017759048 0.50217937)
(0 -0.00057926557 0.50220406)
(0 -0.001350831 0.50227417)
(0 -0.0021517769 0.50239346)
(0 -0.0029981259 0.50256839)
(0 -0.0039080048 0.50280881)
(0 -0.004902545 0.50312889)
(0 -0.0060069885 0.50354869)
(0 -0.0072520847 0.50409647)
(0 -0.0086759893 0.50481225)
(0 -0.010326235 0.50575315)
(0 -0.012261409 0.50700159)
(0 -0.01456202 0.50868089)
(0 -0.017330434 0.51097304)
(0 -0.020621079 0.51412108)
(0 -0.02473035 0.51874132)
(0 -0.030264169 0.52823483)
(0 -0.038363078 0.54872753)
(0 -0.048306155 0.53417001)
(0 -0.01900295 0.29432284)
(0 0.013049148 0.24287109)
(0 0.05165406 0.5254201)
(0 0.047489237 0.57026698)
(0 0.037550642 0.54551038)
(0 0.030654536 0.52928828)
(0 0.02588077 0.52179717)
(0 0.022049676 0.51698407)
(0 0.018772715 0.51345155)
(0 0.016022309 0.51083607)
(0 0.013690165 0.50887737)
(0 0.01168963 0.50739208)
(0 0.0099579157 0.50625512)
(0 0.0084421995 0.50537868)
(0 0.0070995556 0.50470058)
(0 0.0058950194 0.5041764)
(0 0.0047996207 0.5037742)
(0 0.0037890307 0.50347096)
(0 0.002842446 0.50325029)
(0 0.0019416542 0.50310084)
(0 0.0010702509 0.50301519)
(0 0.00021297294 0.50298925)
(0 -0.00064492462 0.5030219)
(0 -0.0015182676 0.50311488)
(0 -0.0024224929 0.50327294)
(0 -0.0033743103 0.50350426)
(0 -0.004392384 0.50382118)
(0 -0.0054981316 0.50424138)
(0 -0.0067166702 0.50478955)
(0 -0.0080779365 0.50550008)
(0 -0.0096182634 0.50642085)
(0 -0.011382154 0.50761918)
(0 -0.013422205 0.50919009)
(0 -0.015808227 0.51127176)
(0 -0.018636211 0.51406411)
(0 -0.021938278 0.51783672)
(0 -0.025954232 0.52347598)
(0 -0.031528661 0.53536741)
(0 -0.039414536 0.55591553)
(0 -0.044647694 0.52313568)
(0 -0.014020612 0.26317753)
(0 0.0077352651 0.21595065)
(0 0.044659465 0.50834482)
(0 0.045983809 0.57443138)
(0 0.037770744 0.55372433)
(0 0.031041157 0.5349521)
(0 0.026528241 0.52602137)
(0 0.022882774 0.52051771)
(0 0.019696471 0.5164566)
(0 0.016970281 0.51340066)
(0 0.014616352 0.51108136)
(0 0.012566082 0.50930286)
(0 0.010767175 0.50792782)
(0 0.0091734986 0.50685856)
(0 0.0077468792 0.50602511)
(0 0.0064553831 0.50537681)
(0 0.0052718801 0.50487678)
(0 0.0041731002 0.50449818)
(0 0.0031387648 0.50422174)
(0 0.0021508333 0.504034)
(0 0.0011928482 0.50392613)
(0 0.00024936348 0.50389326)
(0 -0.00069460311 0.50393403)
(0 -0.0016541136 0.50405052)
(0 -0.002644766 0.50424839)
(0 -0.0036832889 0.50453738)
(0 -0.0047881215 0.50493206)
(0 -0.0059800801 0.50545312)
(0 -0.0072831292 0.5061293)
(0 -0.0087252119 0.50700004)
(0 -0.010339418 0.50811966)
(0 -0.012165673 0.5095636)
(0 -0.014249514 0.51143714)
(0 -0.016647467 0.51388944)
(0 -0.019442013 0.51713004)
(0 -0.022650147 0.52147226)
(0 -0.026491286 0.5281816)
(0 -0.031943277 0.54219365)
(0 -0.038973066 0.56055411)
(0 -0.040037748 0.50956535)
(0 -0.0096326357 0.23656)
(0 0.003969182 0.19406855)
(0 0.037711391 0.48996752)
(0 0.043359971 0.57534275)
(0 0.037232398 0.56080553)
(0 0.03084784 0.54033916)
(0 0.026619676 0.52999512)
(0 0.023228201 0.52387196)
(0 0.020206748 0.51936858)
(0 0.017568957 0.51593172)
(0 0.015250041 0.51329215)
(0 0.013199473 0.51124785)
(0 0.011375614 0.50965286)
(0 0.0097400411 0.50840246)
(0 0.0082602858 0.5074209)
(0 0.0069083042 0.50665274)
(0 0.0056596306 0.5060572)
(0 0.0044928064 0.50560436)
(0 0.0033887516 0.50527257)
(0 0.0023302025 0.50504658)
(0 0.0013012021 0.50491639)
(0 0.0002866369 0.50487643)
(0 -0.00072821357 0.50492514)
(0 -0.0017581468 0.50506489)
(0 -0.0028184011 0.50530215)
(0 -0.0039251654 0.50564796)
(0 -0.0050960398 0.50611876)
(0 -0.0063505568 0.50673779)
(0 -0.007710771 0.50753699)
(0 -0.0092018223 0.50855989)
(0 -0.010852633 0.50986577)
(0 -0.012697445 0.51153617)
(0 -0.014774238 0.51368404)
(0 -0.017126009 0.51646555)
(0 -0.019817879 0.52009286)
(0 -0.022858847 0.52494472)
(0 -0.026484664 0.53272141)
(0 -0.031694278 0.54834068)
(0 -0.037472242 0.56265345)
(0 -0.035079509 0.49449023)
(0 -0.0061197479 0.21414644)
(0 0.0015144666 0.17675722)
(0 0.031288666 0.47142032)
(0 0.040145575 0.57356505)
(0 0.036151091 0.56654861)
(0 0.030261045 0.54533645)
(0 0.026314348 0.53367677)
(0 0.02319774 0.52699029)
(0 0.020380723 0.52212867)
(0 0.017872861 0.51837625)
(0 0.015629669 0.51546269)
(0 0.013616466 0.51318546)
(0 0.011801483 0.51139382)
(0 0.010154129 0.50997864)
(0 0.0086478857 0.5088603)
(0 0.0072589839 0.50797999)
(0 0.0059660954 0.5072941)
(0 0.0047500549 0.50677038)
(0 0.0035934506 0.50638532)
(0 0.0024802477 0.50612229)
(0 0.0013954212 0.50597032)
(0 0.00032460701 0.50592328)
(0 -0.0007462442 0.50597946)
(0 -0.0018312543 0.50614148)
(0 -0.0029448819 0.50641643)
(0 -0.0041023386 0.5068164)
(0 -0.0053199274 0.50735935)
(0 -0.0066154165 0.50807045)
(0 -0.0080084528 0.50898412)
(0 -0.0095209097 0.51014687)
(0 -0.011177145 0.51162151)
(0 -0.013005287 0.51349369)
(0 -0.015035915 0.51588122)
(0 -0.017300076 0.51894325)
(0 -0.019845858 0.52289209)
(0 -0.022681401 0.52819988)
(0 -0.026076907 0.53699404)
(0 -0.030942523 0.5535839)
(0 -0.035283092 0.5625067)
(0 -0.030171903 0.47885558)
(0 -0.0035045668 0.19571643)
(0 3.9612412e-05 0.16326982)
(0 0.025634644 0.45347225)
(0 0.03670827 0.56971819)
(0 0.034697232 0.57093393)
(0 0.029419761 0.54989393)
(0 0.025744079 0.53706893)
(0 0.022892849 0.52985446)
(0 0.020294132 0.52470479)
(0 0.017938705 0.52069993)
(0 0.015797021 0.51755943)
(0 0.013847447 0.51508415)
(0 0.012066745 0.51312176)
(0 0.010431513 0.51156089)
(0 0.0089208501 0.51031971)
(0 0.00751524 0.50933733)
(0 0.0061966474 0.50856825)
(0 0.0049484341 0.50797864)
(0 0.0037551348 0.50754367)
(0 0.0026022442 0.50724568)
(0 0.0014759786 0.50707297)
(0 0.00036303383 0.50701901)
(0 -0.00074965629 0.50708196)
(0 -0.0018752242 0.50726463)
(0 -0.0030270351 0.50757458)
(0 -0.0042190107 0.50802471)
(0 -0.005465851 0.50863406)
(0 -0.0067832749 0.50942922)
(0 -0.0081882741 0.51044629)
(0 -0.0096993071 0.51173378)
(0 -0.011336229 0.51335674)
(0 -0.013121259 0.51540316)
(0 -0.015078172 0.51799324)
(0 -0.017228104 0.52128604)
(0 -0.01960475 0.5254972)
(0 -0.022221889 0.53122154)
(0 -0.025382761 0.5409455)
(0 -0.029818108 0.5578357)
(0 -0.032698496 0.56051529)
(0 -0.025565686 0.46335428)
(0 -0.0016727458 0.18081059)
(0 -0.00075480103 0.15278405)
(0 0.020844707 0.43655785)
(0 0.033297666 0.56435562)
(0 0.033013162 0.57403747)
(0 0.02842349 0.55399068)
(0 0.025007136 0.54019429)
(0 0.022396172 0.53247391)
(0 0.020013126 0.52708821)
(0 0.017818803 0.52288598)
(0 0.015792583 0.5195621)
(0 0.013923293 0.51692246)
(0 0.012194729 0.51481538)
(0 0.010589648 0.51312881)
(0 0.0090921016 0.51177995)
(0 0.0076865273 0.51070684)
(0 0.0063580858 0.50986298)
(0 0.0050926953 0.50921354)
(0 0.0038769503 0.50873285)
(0 0.0026980387 0.50840259)
(0 0.0015436109 0.50821055)
(0 0.00040163137 0.50814992)
(0 -0.00073976719 0.50821877)
(0 -0.0018925102 0.50842002)
(0 -0.0030686603 0.50876161)
(0 -0.0042806528 0.50925694)
(0 -0.0055414183 0.50992579)
(0 -0.006864512 0.51079565)
(0 -0.008264232 0.51190366)
(0 -0.0097557125 0.51329946)
(0 -0.011354652 0.51504926)
(0 -0.013077942 0.51724214)
(0 -0.01494334 0.5199988)
(0 -0.016963919 0.52347638)
(0 -0.019162572 0.5279011)
(0 -0.021564434 0.53401357)
(0 -0.024491853 0.54454371)
(0 -0.028435528 0.56109036)
(0 -0.029949219 0.55708048)
(0 -0.021413267 0.44842879)
(0 -0.00046625885 0.16884296)
(0 -0.0011055159 0.14460385)
(0 0.016909191 0.42089435)
(0 0.030068563 0.55794131)
(0 0.03121594 0.5759838)
(0 0.027345131 0.55761911)
(0 0.024175707 0.54307707)
(0 0.021773098 0.53487005)
(0 0.019592507 0.5292839)
(0 0.017558216 0.52492953)
(0 0.01565278 0.52146047)
(0 0.013873001 0.5186871)
(0 0.01220822 0.51645991)
(0 0.010646203 0.51466712)
(0 0.0091751783 0.51322582)
(0 0.0077830746 0.51207378)
(0 0.0064579905 0.51116407)
(0 0.0051882827 0.51046142)
(0 0.0039625907 0.50993971)
(0 0.0027698457 0.50958022)
(0 0.0015992242 0.50937049)
(0 0.00044007605 0.50930349)
(0 -0.00071813946 0.50937724)
(0 -0.0018860117 0.50959476)
(0 -0.0030741834 0.50996416)
(0 -0.0042935109 0.51049918)
(0 -0.0055551031 0.51122001)
(0 -0.0068703674 0.5121546)
(0 -0.0082510208 0.5133406)
(0 -0.0097091157 0.51482809)
(0 -0.011256675 0.5166837)
(0 -0.012906019 0.51899665)
(0 -0.014669786 0.5218869)
(0 -0.016554685 0.52550893)
(0 -0.018576717 0.53010894)
(0 -0.020776692 0.5365852)
(0 -0.023476158 0.54776783)
(0 -0.026895663 0.56339552)
(0 -0.027204836 0.55256995)
(0 -0.017787733 0.43434832)
(0 0.00027278979 0.15926917)
(0 -0.0011858489 0.13817925)
(0 0.013750352 0.40656563)
(0 0.027100198 0.55085451)
(0 0.029392662 0.57692401)
(0 0.026235904 0.56078597)
(0 0.023301386 0.54573949)
(0 0.021074384 0.53706829)
(0 0.019076599 0.5313039)
(0 0.017194567 0.52683289)
(0 0.015409121 0.52325105)
(0 0.013722555 0.52037085)
(0 0.012128308 0.51804573)
(0 0.010618052 0.51616484)
(0 0.0091833875 0.51464568)
(0 0.0078152056 0.51342624)
(0 0.0065041938 0.51245965)
(0 0.0052409388 0.51171055)
(0 0.0040160188 0.5111527)
(0 0.0028200723 0.51076722)
(0 0.0016438129 0.51054151)
(0 0.00047801531 0.51046846)
(0 -0.00068648202 0.51054607)
(0 -0.0018588786 0.51077737)
(0 -0.0030483588 0.51117057)
(0 -0.0042641884 0.51173954)
(0 -0.0055156901 0.51250462)
(0 -0.0068122307 0.51349391)
(0 -0.008163155 0.51474513)
(0 -0.0095777676 0.51630834)
(0 -0.011064954 0.51825)
(0 -0.012633278 0.52065891)
(0 -0.014291242 0.52365336)
(0 -0.016040841 0.52738577)
(0 -0.017894877 0.53213221)
(0 -0.019911967 0.53894792)
(0 -0.022391714 0.55061081)
(0 -0.025280057 0.56483757)
(0 -0.024575493 0.54730745)
(0 -0.014699816 0.42126581)
(0 0.00068200603 0.15162851)
(0 -0.001113983 0.13307205)
(0 0.011257507 0.39356696)
(0 0.024419606 0.54339423)
(0 0.027601142 0.57701629)
(0 0.025127982 0.56351141)
(0 0.022418115 0.5482026)
(0 0.020337387 0.5390953)
(0 0.018499966 0.53316428)
(0 0.016758377 0.52860289)
(0 0.015088092 0.52493492)
(0 0.013494489 0.52197079)
(0 0.011973824 0.51956717)
(0 0.010520672 0.51761447)
(0 0.0091292438 0.51603088)
(0 0.0077928494 0.51475492)
(0 0.0065043791 0.51374005)
(0 0.0052563916 0.51295112)
(0 0.0040412401 0.51236195)
(0 0.0028511736 0.5119537)
(0 0.001678393 0.51171375)
(0 0.00051507676 0.51163498)
(0 -0.00064656481 0.51171537)
(0 -0.0018143481 0.51195794)
(0 -0.0029960217 0.5123709)
(0 -0.004199311 0.51296811)
(0 -0.0054318504 0.51376986)
(0 -0.006701132 0.51480414)
(0 -0.0080143924 0.51610846)
(0 -0.0093785695 0.51773253)
(0 -0.010799963 0.5197423)
(0 -0.012284175 0.52222572)
(0 -0.013836545 0.52529903)
(0 -0.015455925 0.52911417)
(0 -0.01715495 0.53398658)
(0 -0.019009734 0.54111555)
(0 -0.021279026 0.55307992)
(0 -0.023648829 0.5655249)
(0 -0.022122765 0.54156491)
(0 -0.012119158 0.40924856)
(0 0.00087018175 0.14552914)
(0 -0.00096625281 0.12893832)
(0 0.0093120206 0.3818368)
(0 0.022022541 0.53578662)
(0 0.025875536 0.57640995)
(0 0.024038849 0.56582337)
(0 0.021545705 0.55048521)
(0 0.019587595 0.54097667)
(0 0.017888184 0.53488311)
(0 0.016273465 0.53024928)
(0 0.014711228 0.52651624)
(0 0.013207755 0.52348716)
(0 0.011761071 0.5210216)
(0 0.010367815 0.51901131)
(0 0.0090241238 0.51737531)
(0 0.0077252148 0.51605276)
(0 0.0064657973 0.51499762)
(0 0.0052401248 0.51417508)
(0 0.0040421309 0.5135592)
(0 0.0028655408 0.51313128)
(0 0.0017039509 0.51287877)
(0 0.00055087755 0.51279459)
(0 -0.00060014854 0.51287668)
(0 -0.001755613 0.51312807)
(0 -0.0029218957 0.51355687)
(0 -0.0041052755 0.51417682)
(0 -0.0053118356 0.51500804)
(0 -0.0065473928 0.51607823)
(0 -0.0078173608 0.51742449)
(0 -0.0091267009 0.519096)
(0 -0.01047965 0.52115799)
(0 -0.01187956 0.52369738)
(0 -0.013329484 0.52682836)
(0 -0.014826537 0.53070491)
(0 -0.016385382 0.53568963)
(0 -0.01809717 0.54310271)
(0 -0.02016524 0.55519229)
(0 -0.022043121 0.56557145)
(0 -0.019873682 0.53556004)
(0 -0.0099926855 0.39830199)
(0 0.00091759939 0.14064051)
(0 -0.00079008672 0.1255188)
(0 0.0078014719 0.37128328)
(0 0.019887952 0.52819738)
(0 0.024232681 0.57523739)
(0 0.022976022 0.5677523)
(0 0.020693905 0.55260235)
(0 0.018840994 0.54273471)
(0 0.01725918 0.53647835)
(0 0.015757671 0.53178309)
(0 0.014295443 0.52800101)
(0 0.012877812 0.52492229)
(0 0.011503771 0.52240854)
(0 0.010171364 0.52035282)
(0 0.008878082 0.5186749)
(0 0.0076205978 0.5173146)
(0 0.0063950849 0.51622643)
(0 0.005197222 0.51537601)
(0 0.0040223188 0.51473769)
(0 0.0028654224 0.514293)
(0 0.0017214071 0.5140295)
(0 0.00058503436 0.51394017)
(0 -0.00054892994 0.51402296)
(0 -0.0016857237 0.51428082)
(0 -0.0028304538 0.51472177)
(0 -0.0039880729 0.51535933)
(0 -0.0051632718 0.51621334)
(0 -0.0063604018 0.51731113)
(0 -0.0075833355 0.51868931)
(0 -0.0088354225 0.52039639)
(0 -0.010119301 0.52249688)
(0 -0.011436667 0.52507663)
(0 -0.012789013 0.52824807)
(0 -0.014172932 0.53217033)
(0 -0.015606462 0.53725848)
(0 -0.017191756 0.5449228)
(0 -0.019067233 0.55697012)
(0 -0.020488796 0.56508603)
(0 -0.017832466 0.5294612)
(0 -0.0082572342 0.38839201)
(0 0.00088099472 0.13669323)
(0 -0.00061354137 0.12262523)
(0 0.006626894 0.36180314)
(0 0.017987035 0.52074537)
(0 0.022677374 0.57361248)
(0 0.021940686 0.56932858)
(0 0.019865817 0.55456488)
(0 0.018106554 0.5443872)
(0 0.016624877 0.53796623)
(0 0.015223901 0.53321527)
(0 0.013853632 0.52939591)
(0 0.01251694 0.52627965)
(0 0.011213199 0.52372895)
(0 0.0099413519 0.521638)
(0 0.0086997984 0.51992716)
(0 0.0074862939 0.51853684)
(0 0.0062981683 0.51742207)
(0 0.0051322772 0.5165489)
(0 0.0039851091 0.51589202)
(0 0.0028528743 0.5154332)
(0 0.0017315958 0.51516015)
(0 0.0006171705 0.51506591)
(0 -0.00049450457 0.51514845)
(0 -0.0016075217 0.51541062)
(0 -0.0027258262 0.51586028)
(0 -0.0038531783 0.51651074)
(0 -0.0049930406 0.51738151)
(0 -0.0061485029 0.51849947)
(0 -0.0073221551 0.51990069)
(0 -0.0085160562 0.52163308)
(0 -0.0097316318 0.52376041)
(0 -0.010969394 0.52636756)
(0 -0.012229844 0.5295658)
(0 -0.013510044 0.53352266)
(0 -0.014832001 0.53870823)
(0 -0.016303845 0.54658702)
(0 -0.01799437 0.55843763)
(0 -0.018999912 0.56416725)
(0 -0.015989211 0.52339547)
(0 -0.0068478379 0.37946245)
(0 0.00079920277 0.13347525)
(0 -0.00045183714 0.12012451)
(0 0.0057058078 0.35329313)
(0 0.016288861 0.5135143)
(0 0.021206653 0.57163172)
(0 0.020930244 0.57058136)
(0 0.019060361 0.5563801)
(0 0.017388289 0.54594733)
(0 0.015992718 0.53936048)
(0 0.01468119 0.53455583)
(0 0.013395403 0.53070753)
(0 0.012134705 0.5275632)
(0 0.010898442 0.52498465)
(0 0.0096860912 0.52286691)
(0 0.008496627 0.52113077)
(0 0.0073285978 0.51971709)
(0 0.0061802344 0.51858133)
(0 0.0050493559 0.51768996)
(0 0.0039334487 0.51701798)
(0 0.0028297343 0.5165474)
(0 0.0017352531 0.51626609)
(0 0.00064692115 0.51616715)
(0 -0.00043834413 0.51624855)
(0 -0.0015236005 0.51651305)
(0 -0.0026117511 0.51696834)
(0 -0.0037054985 0.51762747)
(0 -0.0048072352 0.5185096)
(0 -0.005918977 0.51964117)
(0 -0.0070422555 0.52105774)
(0 -0.0081781054 0.52280663)
(0 -0.0093270453 0.524951)
(0 -0.010488759 0.52757491)
(0 -0.011663175 0.53078927)
(0 -0.012848568 0.53477313)
(0 -0.014070882 0.54005126)
(0 -0.015438779 0.54810425)
(0 -0.016950762 0.55961931)
(0 -0.017581963 0.56290165)
(0 -0.014326303 0.51745677)
(0 -0.0057031504 0.37144668)
(0 0.0006978778 0.13082352)
(0 -0.00031198387 0.11792457)
(0 0.0049723739 0.34565616)
(0 0.014763686 0.50656187)
(0 0.019813199 0.56937618)
(0 0.019940192 0.57153793)
(0 0.018274043 0.55805237)
(0 0.016686896 0.54742402)
(0 0.015366926 0.54067213)
(0 0.01413566 0.53581347)
(0 0.012927777 0.53194192)
(0 0.011738456 0.52877689)
(0 0.010566738 0.52617783)
(0 0.0094123838 0.52404027)
(0 0.008274716 0.52228526)
(0 0.0071528622 0.5208539)
(0 0.0060457546 0.51970203)
(0 0.0049519978 0.51879643)
(0 0.0038699199 0.51811241)
(0 0.0027976143 0.51763217)
(0 0.0017330139 0.51734374)
(0 0.00067393888 0.51724029)
(0 -0.00038178421 0.51731975)
(0 -0.0014362908 0.51758481)
(0 -0.0024915598 0.51804296)
(0 -0.0035493653 0.518707)
(0 -0.0046111746 0.51959574)
(0 -0.0056780933 0.5207352)
(0 -0.0067507818 0.52216047)
(0 -0.0078294599 0.52391837)
(0 -0.0089139653 0.52607157)
(0 -0.010003406 0.52870353)
(0 -0.011097418 0.53192572)
(0 -0.012195974 0.53593143)
(0 -0.013328428 0.54129711)
(0 -0.014598609 0.54948121)
(0 -0.015937218 0.56053877)
(0 -0.016234862 0.56136333)
(0 -0.012823058 0.51171271)
(0 -0.0047686376 0.36427481)
(0 0.00059316259 0.12861512)
(0 -0.0001960159 0.11596325)
(0 0.0043757609 0.33880458)
(0 0.013384639 0.4999269)
(0 0.018487842 0.56691378)
(0 0.018965479 0.57222342)
(0 0.0175023 0.55958377)
(0 0.016001071 0.54882249)
(0 0.014749557 0.54190952)
(0 0.013591337 0.53699536)
(0 0.012455832 0.53310435)
(0 0.011333805 0.52992439)
(0 0.01022382 0.52731081)
(0 0.0091257619 0.52515923)
(0 0.0080391685 0.52339073)
(0 0.0069636014 0.52194656)
(0 0.0058985457 0.52078277)
(0 0.0048432522 0.51986641)
(0 0.0037967597 0.51917301)
(0 0.0027579121 0.51868497)
(0 0.0017254205 0.51839043)
(0 0.00069790029 0.51828262)
(0 -0.00032601872 0.51835945)
(0 -0.0013476574 0.51862349)
(0 -0.0023681825 0.51908208)
(0 -0.0033885574 0.51974773)
(0 -0.0044094524 0.52063892)
(0 -0.0054312005 0.52178132)
(0 -0.0064537398 0.52320958)
(0 -0.0074766313 0.52497012)
(0 -0.008499185 0.52712525)
(0 -0.0095200951 0.52975809)
(0 -0.010538872 0.53298164)
(0 -0.011557412 0.53700561)
(0 -0.01260761 0.54245268)
(0 -0.013783543 0.55072267)
(0 -0.014952903 0.56121791)
(0 -0.01495551 0.55961466)
(0 -0.011458823 0.50621043)
(0 -0.0039980256 0.35787812)
(0 0.00049443785 0.12675909)
(0 -0.00010313844 0.11419972)
(0 0.003877725 0.33266148)
(0 0.012128374 0.49363478)
(0 0.01722123 0.56430141)
(0 0.018001445 0.57266077)
(0 0.016740492 0.56097466)
(0 0.015328568 0.55014484)
(0 0.01414137 0.54307845)
(0 0.01305086 0.53810717)
(0 0.011983276 0.53419923)
(0 0.010925078 0.53100897)
(0 0.0098742571 0.52838586)
(0 0.0088307397 0.52622512)
(0 0.0077942244 0.52444773)
(0 0.0067646189 0.52299491)
(0 0.0057418593 0.52182284)
(0 0.0047257385 0.52089872)
(0 0.0037159014 0.52019828)
(0 0.0027118395 0.51970407)
(0 0.0017129409 0.51940432)
(0 0.00071851831 0.5192923)
(0 -0.00027209426 0.51936588)
(0 -0.0012595029 0.51962753)
(0 -0.0022441639 0.52008441)
(0 -0.0032263354 0.52074879)
(0 -0.0042060003 0.52163885)
(0 -0.0051828315 0.5227799)
(0 -0.0061561577 0.52420624)
(0 -0.0071249895 0.52596399)
(0 -0.008088201 0.52811521)
(0 -0.0090441633 0.53074292)
(0 -0.0099923307 0.53396265)
(0 -0.010936523 0.53800199)
(0 -0.011910066 0.54352248)
(0 -0.012993104 0.55183184)
(0 -0.013996653 0.56167676)
(0 -0.013739775 0.55770754)
(0 -0.010214886 0.50098147)
(0 -0.0033536183 0.35219167)
(0 0.00040632991 0.1251893)
(0 -3.1125662e-05 0.11260803)
(0 0.0034500751 0.32716078)
(0 0.010975168 0.48770138)
(0 0.016004906 0.56158693)
(0 0.017044434 0.57287094)
(0 0.015984617 0.56222424)
(0 0.014667006 0.55139065)
(0 0.01354254 0.54418249)
(0 0.012516075 0.53915311)
(0 0.011512946 0.53523011)
(0 0.01051571 0.53203346)
(0 0.0095217649 0.52940509)
(0 0.0085310549 0.52723939)
(0 0.0075434417 0.52545707)
(0 0.0065591407 0.52399922)
(0 0.0055784776 0.52282202)
(0 0.0046017145 0.52189278)
(0 0.003629022 0.52118735)
(0 0.0026604548 0.5206884)
(0 0.0016959915 0.52038423)
(0 0.00073555408 0.52026814)
(0 -0.00022090749 0.52033795)
(0 -0.0011733752 0.52059603)
(0 -0.0021216856 0.52104935)
(0 -0.0030654842 0.52170997)
(0 -0.0040041581 0.52259578)
(0 -0.0049368091 0.52373178)
(0 -0.0058622395 0.52515197)
(0 -0.0067789792 0.52690225)
(0 -0.0076855085 0.52904452)
(0 -0.0085799113 0.53166198)
(0 -0.0094615854 0.53487354)
(0 -0.010336079 0.53892541)
(0 -0.011236914 0.54450914)
(0 -0.012226997 0.55281083)
(0 -0.013067923 0.56193351)
(0 -0.012583919 0.55568488)
(0 -0.0090755566 0.49604546)
(0 -0.0028059932 0.34715548)
(0 0.00033018212 0.12385812)
(0 2.2764681e-05 0.11117236)
(0 0.0030723801 0.32224647)
(0 0.0099087988 0.48213577)
(0 0.014831974 0.5588106)
(0 0.016092219 0.57287306)
(0 0.015231816 0.56333106)
(0 0.014014473 0.55255764)
(0 0.012953189 0.54522331)
(0 0.011988505 0.54013615)
(0 0.0110472 0.53619976)
(0 0.010108578 0.53300023)
(0 0.009169468 0.53037045)
(0 0.0082298671 0.52820354)
(0 0.007289845 0.52641981)
(0 0.0063499232 0.52496011)
(0 0.0054107885 0.52378055)
(0 0.004473126 0.52284851)
(0 0.0035375723 0.5221399)
(0 0.0026046782 0.52163748)
(0 0.0016749391 0.52132962)
(0 0.00074880985 0.52120959)
(0 -0.00017322222 0.5212752)
(0 -0.0010905958 0.52152869)
(0 -0.0020026081 0.52197688)
(0 -0.0029083717 0.52263159)
(0 -0.0038067541 0.52351046)
(0 -0.0046963566 0.5246382)
(0 -0.0055755131 0.52604858)
(0 -0.0064423137 0.52778729)
(0 -0.0072948525 0.52991619)
(0 -0.0081309221 0.53251885)
(0 -0.0089498174 0.53571837)
(0 -0.00975847 0.53977952)
(0 -0.010589323 0.54541396)
(0 -0.011485681 0.55366127)
(0 -0.012167434 0.56200485)
(0 -0.011485585 0.55358201)
(0 -0.0080286655 0.49141286)
(0 -0.00233347 0.34271474)
(0 0.00026525361 0.12273139)
(0 6.1227134e-05 0.10988368)
(0 0.0027301001 0.31787143)
(0 0.0089163732 0.47694194)
(0 0.013697563 0.55600631)
(0 0.015144313 0.57268475)
(0 0.014480744 0.5642935)
(0 0.013369943 0.55364227)
(0 0.012373774 0.54620114)
(0 0.011469674 0.54105825)
(0 0.010588201 0.53711035)
(0 0.0097062158 0.5339113)
(0 0.0088200741 0.53128377)
(0 0.0079298897 0.5291191)
(0 0.0070360178 0.52733715)
(0 0.0061393126 0.52587847)
(0 0.005240818 0.52469905)
(0 0.0043416173 0.52376626)
(0 0.00344277 0.52305609)
(0 0.0025452699 0.52255135)
(0 0.0016500677 0.52224043)
(0 0.00075808494 0.52211662)
(0 -0.00012972342 0.52217768)
(0 -0.0010123244 0.52242572)
(0 -0.0018885467 0.52286742)
(0 -0.0027570392 0.52351437)
(0 -0.0036162138 0.52438398)
(0 -0.0044642269 0.5255007)
(0 -0.0052989855 0.52689805)
(0 -0.006118161 0.52862159)
(0 -0.0069194467 0.53073315)
(0 -0.0077003169 0.5333169)
(0 -0.0084598883 0.53650071)
(0 -0.0092060309 0.54056714)
(0 -0.0099688828 0.54623755)
(0 -0.010770718 0.55438483)
(0 -0.011297538 0.5619064)
(0 -0.010444453 0.55142807)
(0 -0.0070657983 0.48708692)
(0 -0.0019213209 0.33881879)
(0 0.00021013365 0.12178401)
(0 8.663577e-05 0.10873723)
(0 0.0024132249 0.31399587)
(0 0.0079882366 0.47211981)
(0 0.012599181 0.55320232)
(0 0.014202232 0.57232225)
(0 0.013731818 0.56511018)
(0 0.012733554 0.55464035)
(0 0.011805322 0.54711519)
(0 0.010961323 0.54192065)
(0 0.010138086 0.53796365)
(0 0.0093109696 0.53476851)
(0 0.0084759884 0.53214679)
(0 0.0076334733 0.52998768)
(0 0.0067841583 0.52821049)
(0 0.0059292752 0.52675546)
(0 0.0050702395 0.52557844)
(0 0.0042085212 0.52464677)
(0 0.0033455737 0.52393649)
(0 0.0024827908 0.52343044)
(0 0.001621527 0.52311706)
(0 0.0007631121 0.52298964)
(0 -9.1092553e-05 0.52304586)
(0 -0.00093964617 0.52328775)
(0 -0.0017809723 0.52372181)
(0 -0.0026133169 0.52435945)
(0 -0.0034346918 0.5252178)
(0 -0.0042428537 0.52632109)
(0 -0.0050353134 0.5277026)
(0 -0.0058093348 0.52940775)
(0 -0.0065621856 0.53149835)
(0 -0.0072909823 0.53405935)
(0 -0.0079945769 0.53722381)
(0 -0.0086812842 0.54129066)
(0 -0.0093778312 0.54698038)
(0 -0.010084927 0.55498384)
(0 -0.010462358 0.56165322)
(0 -0.009462566 0.5492472)
(0 -0.0061823602 0.48306522)
(0 -0.0015605943 0.33541997)
(0 0.00016375862 0.12099626)
(0 0.00010099697 0.10773068)
(0 0.002115424 0.3105855)
(0 0.0071180072 0.46766563)
(0 0.011537053 0.55042197)
(0 0.013269725 0.57180076)
(0 0.012987405 0.56578041)
(0 0.012106792 0.55554763)
(0 0.011249617 0.54796414)
(0 0.010465573 0.54272419)
(0 0.0096991335 0.53876121)