/*--------------------------------*- C++ -*----------------------------------*\
  =========                 |
  \\      /  F ield         | OpenFOAM: The Open Source CFD Toolbox
   \\    /   O peration     | Website:  https://openfoam.org
    \\  /    A nd           | Version:  10
     \\/     M anipulation  |
\*---------------------------------------------------------------------------*/
FoamFile
{
    format      ascii;
    class       surfaceScalarField;
    location    "0.13";
    object      phi;
}
// * * * * * * * * * * * * * * * * * * * * * * * * * * * * * * * * * * * * * //

dimensions      [1 0 -1 0 0 0 0];

internalField   nonuniform List<scalar> 
7860
(
3.9893428e-08
5.288146e-07
1.2190763e-08
5.9641045e-07
7.4258779e-09
5.7347262e-07
5.497112e-09
5.7063646e-07
4.1126082e-09
5.7009217e-07
3.1987616e-09
5.6962149e-07
2.5568261e-09
5.6934956e-07
2.0771083e-09
5.6918733e-07
1.7072749e-09
5.6907743e-07
1.4147974e-09
5.6900006e-07
1.1778761e-09
5.689445e-07
9.817443e-10
5.689037e-07
8.1605471e-10
5.6887326e-07
6.7331335e-10
5.688503e-07
5.4794327e-10
5.6883293e-07
4.3568012e-10
5.6881982e-07
3.3316646e-10
5.6881007e-07
2.3767112e-10
5.6880305e-07
1.4688731e-10
5.6879833e-07
5.8779864e-11
5.6879566e-07
-2.853804e-11
5.6879487e-07
-1.1691227e-10
5.6879592e-07
-2.0825379e-10
5.6879889e-07
-3.0464445e-10
5.6880394e-07
-4.084694e-10
5.6881138e-07
-5.2258032e-10
5.6882167e-07
-6.50516e-10
5.6883549e-07
-7.9681541e-10
5.6885386e-07
-9.6747821e-10
5.6887823e-07
-1.1706718e-09
5.6891077e-07
-1.417904e-09
5.6895481e-07
-1.725994e-09
5.6901568e-07
-2.1199302e-09
5.6910153e-07
-2.6396051e-09
5.6922728e-07
-3.3674382e-09
5.6943546e-07
-4.4590402e-09
5.6979924e-07
-6.0050167e-09
5.7025364e-07
-9.504433e-09
5.7220711e-07
-2.9571492e-08
5.887748e-07
5.3913642e-07
5.9666485e-08
4.6914815e-07
3.6658838e-08
6.1941808e-07
2.2621271e-08
5.8751018e-07
1.6246275e-08
5.7701146e-07
1.2283011e-08
5.7405543e-07
9.5987793e-09
5.7230572e-07
7.6701932e-09
5.7127814e-07
6.2292026e-09
5.7062832e-07
5.1201933e-09
5.7018644e-07
4.2430786e-09
5.6987718e-07
3.5325117e-09
5.6965507e-07
2.944312e-09
5.694919e-07
2.4474224e-09
5.6937015e-07
2.019356e-09
5.6927837e-07
1.6433865e-09
5.692089e-07
1.3067247e-09
5.6915648e-07
9.9930165e-10
5.6911749e-07
7.1292674e-10
5.6908942e-07
4.4068203e-10
5.6907058e-07
1.764634e-10
5.6905988e-07
-8.5388263e-11
5.6905672e-07
-3.5040918e-10
5.6906094e-07
-6.2432488e-10
5.6907281e-07
-9.1338152e-10
5.69093e-07
-1.2247324e-09
5.6912273e-07
-1.5669294e-09
5.6916386e-07
-1.9505853e-09
5.6921915e-07
-2.3893123e-09
5.6929259e-07
-2.9011107e-09
5.6939003e-07
-3.5104915e-09
5.6952015e-07
-4.2518942e-09
5.6969621e-07
-5.1757069e-09
5.6993949e-07
-6.3585825e-09
5.7028441e-07
-7.9192763e-09
5.7078798e-07
-1.0061049e-08
5.7157723e-07
-1.3190105e-08
5.729283e-07
-1.8121288e-08
5.7518483e-07
-2.8164018e-08
5.8224984e-07
-4.5791921e-08
6.0640271e-07
4.933445e-07
5.9999671e-08
4.0914858e-07
5.0474065e-08
6.2894368e-07
3.3358028e-08
6.046262e-07
2.4804782e-08
5.855647e-07
1.9310065e-08
5.7955015e-07
1.5318387e-08
5.762974e-07
1.2347983e-08
5.7424855e-07
1.0089466e-08
5.7288683e-07
8.3294311e-09
5.7194647e-07
6.9247372e-09
5.7128187e-07
5.7792847e-09
5.7080052e-07
4.8262883e-09
5.704449e-07
4.0179636e-09
5.7017847e-07
3.3193053e-09
5.6997703e-07
2.7040296e-09
5.6982417e-07
2.1518842e-09
5.6970863e-07
1.6468233e-09
5.6962255e-07
1.1757268e-09
5.6956052e-07
7.2746669e-10
5.6951884e-07
2.9219328e-10
5.6949515e-07
-1.392418e-10
5.6948815e-07
-5.757918e-10
5.6949749e-07
-1.0267082e-09
5.6952372e-07
-1.5020609e-09
5.6956835e-07
-2.0133412e-09
5.6963401e-07
-2.5742212e-09
5.6972474e-07
-3.2015662e-09
5.6984649e-07
-3.9168451e-09
5.7000787e-07
-4.7481813e-09
5.7022136e-07
-5.7334167e-09
5.7050538e-07
-6.9247708e-09
5.7088757e-07
-8.3964798e-09
5.714112e-07
-1.0257986e-08
5.7214591e-07
-1.267122e-08
5.7320121e-07
-1.5869411e-08
5.7477542e-07
-2.0214562e-08
5.7727345e-07
-2.6684445e-08
5.8165471e-07
-3.8924281e-08
5.9448968e-07
-4.8149716e-08
6.1562814e-07
4.4519478e-07
5.4867233e-08
3.5428152e-07
5.743209e-08
6.2637887e-07
4.0447856e-08
6.2161039e-07
3.075937e-08
5.9525318e-07
2.4623382e-08
5.8568614e-07
1.9932759e-08
5.8098802e-07
1.6293984e-08
5.7788732e-07
1.344854e-08
5.7573228e-07
1.1184276e-08
5.7421074e-07
9.3494574e-09
5.7311669e-07
7.8361728e-09
5.723138e-07
6.5659052e-09
5.7171517e-07
5.4807802e-09
5.712636e-07
4.5374571e-09
5.7092035e-07
3.7028129e-09
5.7065882e-07
2.9509618e-09
5.7046048e-07
2.2611574e-09
5.7031236e-07
1.616275e-09
5.702054e-07
1.0016797e-09
5.7013343e-07
4.0434658e-10
5.7009248e-07
-1.8786294e-10
5.7008036e-07
-7.8684082e-10
5.7009647e-07
-1.4048539e-09
5.7014174e-07
-2.0551983e-09
5.702187e-07
-2.7529507e-09
5.7033176e-07
-3.5158956e-09
5.7048769e-07
-4.3657332e-09
5.7069633e-07
-5.3297128e-09
5.7097185e-07
-6.4429131e-09
5.7133456e-07
-7.7515036e-09
5.7181397e-07
-9.3173125e-09
5.7245338e-07
-1.1224213e-08
5.733181e-07
-1.3588526e-08
5.7451023e-07
-1.6571671e-08
5.7618435e-07
-2.037154e-08
5.7857529e-07
-2.5254862e-08
5.8215677e-07
-3.2480376e-08
5.8888022e-07
-4.5064392e-08
6.070737e-07
-4.6525271e-08
6.1708902e-07
3.9866951e-07
4.7951778e-08
3.0633001e-07
6.0049109e-08
6.1428167e-07
4.5371905e-08
6.3628755e-07
3.4848275e-08
6.0577678e-07
2.8372732e-08
5.9216168e-07
2.3392726e-08
5.8596803e-07
1.9408229e-08
5.8187182e-07
1.6204419e-08
5.7893609e-07
1.3596733e-08
5.7681842e-07
1.1445727e-08
5.752677e-07
9.6462413e-09
5.7411329e-07
8.1181982e-09
5.7324321e-07
6.8005382e-09
5.7258126e-07
5.6462119e-09
5.7207468e-07
4.6184071e-09
5.7168662e-07
3.6877995e-09
5.7139108e-07
2.8305124e-09
5.7116964e-07
2.0265776e-09
5.7100933e-07
1.2587512e-09
5.7090126e-07
5.115679e-10
5.7083966e-07
-2.294521e-10
5.7082138e-07
-9.785129e-10
5.7084553e-07
-1.7502335e-09
5.7091346e-07
-2.5603707e-09
5.7102883e-07
-3.4266352e-09
5.7119803e-07
-4.3696753e-09
5.7143073e-07
-5.4143177e-09
5.7174097e-07
-6.5911768e-09
5.7214871e-07
-7.9387821e-09
5.7268217e-07
-9.5064521e-09
5.7338164e-07
-1.1358071e-08
5.7430499e-07
-1.3576516e-08
5.7553654e-07
-1.6270156e-08
5.7720387e-07
-1.9582685e-08
5.7949688e-07
-2.3684524e-08
5.8267713e-07
-2.887837e-08
5.8735062e-07
-3.6738933e-08
5.9674078e-07
-4.8413058e-08
6.1874782e-07
-4.3163905e-08
6.1183987e-07
3.5550561e-07
4.032018e-08
2.6601021e-07
5.8959162e-08
5.9564297e-07
4.8291852e-08
6.4695482e-07
3.7551875e-08
6.1651671e-07
3.0893181e-08
5.9882037e-07
2.5858721e-08
5.9100249e-07
2.1745856e-08
5.8598469e-07
1.8359676e-08
5.8232227e-07
1.5547455e-08
5.7963065e-07
1.3187102e-08
5.7762805e-07
1.1182635e-08
5.7611776e-07
9.4587157e-09
5.7496713e-07
7.9561572e-09
5.7408381e-07
6.6280092e-09
5.7340283e-07
5.4365983e-09
5.7287803e-07
4.3512598e-09
5.7247642e-07
3.346558e-09
5.7217434e-07
2.4008869e-09
5.7195501e-07
1.4953518e-09
5.7180679e-07
6.1284891e-10
5.7172217e-07
-2.627255e-10
5.7169696e-07
-1.1471925e-09
5.7173e-07
-2.0567931e-09
5.7182306e-07
-3.0089171e-09
5.7198096e-07
-4.0229092e-09
5.7221202e-07
-5.121015e-09
5.7252883e-07
-6.3295336e-09
5.7294949e-07
-7.6802516e-09
5.7349942e-07
-9.2122418e-09
5.7421416e-07
-1.0974171e-08
5.7514357e-07
-1.3027332e-08
5.7635816e-07
-1.5449067e-08
5.7795828e-07
-1.8336858e-08
5.8009166e-07
-2.1814991e-08
5.8297502e-07
-2.6039408e-08
5.8690154e-07
-3.141888e-08
5.9273009e-07
-3.958425e-08
6.0490615e-07
-4.9106251e-08
6.2826982e-07
-3.8542169e-08
6.0127578e-07
3.1696344e-07
3.2845109e-08
2.331656e-07
5.5207387e-08
5.7328117e-07
4.9182573e-08
6.5297963e-07
3.9014445e-08
6.2668476e-07
3.238494e-08
6.0544986e-07
2.74738e-08
5.9591363e-07
2.3395233e-08
5.9006325e-07
1.9961722e-08
5.8575578e-07
1.7056619e-08
5.8253575e-07
1.4577647e-08
5.8010702e-07
1.2440968e-08
5.7825444e-07
1.0579276e-08
5.7682882e-07
8.9382767e-09
5.7572481e-07
7.4737218e-09
5.7486738e-07
6.1492252e-09
5.7420253e-07
4.9345042e-09
5.7369114e-07
3.8039363e-09
5.7330491e-07
2.7353832e-09
5.7302356e-07
1.7092135e-09
5.7283296e-07
7.074723e-10
5.7272391e-07
-2.8685176e-10
5.7269128e-07
-1.2905004e-09
5.7273365e-07
-2.3206122e-09
5.7285317e-07
-3.3954058e-09
5.7305575e-07
-4.5349221e-09
5.7335153e-07
-5.7618716e-09
5.7375578e-07
-7.1026312e-09
5.7429025e-07
-8.5884463e-09
5.7498524e-07
-1.025688e-08
5.7588259e-07
-1.2153589e-08
5.7704028e-07
-1.4334714e-08
5.7853928e-07
-1.686977e-08
5.8049333e-07
-1.9843695e-08
5.8306558e-07
-2.335741e-08
5.8648873e-07
-2.7552405e-08
5.9109654e-07
-3.2945613e-08
5.981233e-07
-4.0919797e-08
6.1288034e-07
-4.7605449e-08
6.3495548e-07
-3.3334206e-08
5.8700454e-07
2.8362923e-07
2.6169735e-08
2.0699649e-07
5.0082119e-08
5.4936951e-07
4.8431046e-08
6.546308e-07
3.9431181e-08
6.3568451e-07
3.3020058e-08
6.1186095e-07
2.8355908e-08
6.0057778e-07
2.4438722e-08
5.9398044e-07
2.1066928e-08
5.8912757e-07
1.8159532e-08
5.8544314e-07
1.5637235e-08
5.8262932e-07
1.3430838e-08
5.8046083e-07
1.14831e-08
5.7877656e-07
9.7464426e-09
5.7746147e-07
8.1810084e-09
5.7643281e-07
6.7531999e-09
5.7563034e-07
5.4344049e-09
5.7500994e-07
4.1999088e-09
5.7453941e-07
3.027971e-09
5.741955e-07
1.8990274e-09
5.7396191e-07
7.9498651e-10
5.7382795e-07
-3.0140658e-10
5.7378767e-07
-1.4071667e-09
5.7383941e-07
-2.5396615e-09
5.7398566e-07
-3.7172149e-09
5.742333e-07
-4.9597497e-09
5.7459407e-07
-6.2895028e-09
5.7508554e-07
-7.7318378e-09
5.7573259e-07
-9.3161925e-09
5.7656959e-07
-1.1077187e-08
5.7764359e-07
-1.305589e-08
5.7901898e-07
-1.5301471e-08
5.8078486e-07
-1.7873315e-08
5.8306518e-07
-2.0840993e-08
5.8603326e-07
-2.4279869e-08
5.8992761e-07
-2.8325325e-08
5.9514199e-07
-3.3580296e-08
6.0337827e-07
-4.0948733e-08
6.2024877e-07
-4.4698075e-08
6.3870482e-07
-2.8157268e-08
5.7046373e-07
2.5547196e-07
2.0549912e-08
1.8644734e-07
4.4524276e-08
5.2539616e-07
4.6566119e-08
6.525892e-07
3.9078374e-08
6.4317212e-07
3.3012808e-08
6.1792645e-07
2.8648634e-08
6.0494195e-07
2.4971641e-08
5.9765743e-07
2.1740854e-08
5.9235836e-07
1.8900851e-08
5.8828315e-07
1.6395486e-08
5.8513468e-07
1.4171187e-08
5.8268513e-07
1.2181701e-08
5.8076604e-07
1.0387171e-08
5.79256e-07
8.7531656e-09
5.7806682e-07
7.2498513e-09
5.7713365e-07
5.8511838e-09
5.7640861e-07
4.534167e-09
5.7585642e-07
3.2781866e-09
5.7545148e-07
2.064404e-09
5.7517569e-07
8.7519828e-10
5.7501716e-07
-3.0635407e-10
5.7496923e-07
-1.4969754e-09
5.7503003e-07
-2.7136846e-09
5.7520237e-07
-3.9742988e-09
5.7549392e-07
-5.2979585e-09
5.7591773e-07
-6.7056933e-09
5.7649327e-07
-8.2210398e-09
5.7724793e-07
-9.8707265e-09
5.7821928e-07
-1.168544e-08
5.794583e-07
-1.3700621e-08
5.8103416e-07
-1.5957369e-08
5.8304161e-07
-1.8503649e-08
5.8561146e-07
-2.1392711e-08
5.8892232e-07
-2.467876e-08
5.9321366e-07
-2.8507492e-08
5.9897072e-07
-3.3523207e-08
6.0839399e-07
-4.0004421e-08
6.2672999e-07
-4.1042201e-08
6.397426e-07
-2.3364635e-08
5.5278617e-07
2.3210733e-07
1.5992593e-08
1.7045564e-07
3.9076129e-08
5.02314e-07
4.4025949e-08
6.4763983e-07
3.8197553e-08
6.4900038e-07
3.2567024e-08
6.2355688e-07
2.8507775e-08
6.0900119e-07
2.5102941e-08
6.0106227e-07
2.2059665e-08
5.9540164e-07
1.9334009e-08
5.910088e-07
1.6889792e-08
5.875789e-07
1.4687951e-08
5.8488697e-07
1.2692807e-08
5.8276119e-07
1.087236e-08
5.8107645e-07
9.1980014e-09
5.7974118e-07
7.6441673e-09
5.7868749e-07
6.187921e-09
5.7786485e-07
4.8085256e-09
5.7723582e-07
3.4870167e-09
5.7677299e-07
2.2057811e-09
5.7645693e-07
9.4814793e-10
5.7627479e-07
-3.0200848e-10
5.7621938e-07
-1.5606559e-09
5.7628868e-07
-2.8439961e-09
5.7648571e-07
-4.1688565e-09
5.7681878e-07
-5.5530896e-09
5.7730196e-07
-7.015988e-09
5.7795617e-07
-8.578712e-09
5.7881066e-07
-1.0264728e-08
5.7990529e-07
-1.2100264e-08
5.8129384e-07
-1.411473e-08
5.8304863e-07
-1.6341077e-08
5.8526796e-07
-1.8816188e-08
5.8808657e-07
-2.1578379e-08
5.9168451e-07
-2.4668289e-08
5.9630357e-07
-2.8253753e-08
6.0255619e-07
-3.2958472e-08
6.1309871e-07
-3.838176e-08
6.3215328e-07
-3.7080209e-08
6.3844105e-07
-1.9125517e-08
5.3483148e-07
2.1298181e-07
1.2398735e-08
1.5805795e-07
3.4036602e-08
4.8067791e-07
4.1139607e-08
6.4053756e-07
3.6966668e-08
6.5317319e-07
3.1836528e-08
6.2868688e-07
2.8067772e-08
6.1276993e-07
2.4936013e-08
6.0419404e-07
2.2100387e-08
5.9823727e-07
1.95159e-08
5.9359329e-07
1.7161816e-08
5.8993298e-07
1.5011401e-08
5.8703739e-07
1.3038246e-08
5.8473434e-07
1.1217617e-08
5.8289708e-07
9.5265588e-09
5.8143224e-07
7.9438513e-09
5.8027019e-07
6.4498811e-09
5.7935882e-07
5.0264611e-09
5.7865924e-07
3.656603e-09
5.7814284e-07
2.3242614e-09
5.7778927e-07
1.0140633e-09
5.7758499e-07
-2.8897009e-10
5.7752242e-07
-1.5997021e-09
5.7759941e-07
-2.9331674e-09
5.7781918e-07
-4.3048534e-09
5.7819046e-07
-5.7309791e-09
5.7872809e-07
-7.2287691e-09
5.7945396e-07
-8.8167137e-09
5.803986e-07
-1.0514801e-08
5.8160338e-07
-1.2344724e-08
5.8312376e-07
-1.4330044e-08
5.8503395e-07
-1.6496219e-08
5.8743413e-07
-1.887029e-08
5.9046064e-07
-2.1477965e-08
5.9429219e-07
-2.4353512e-08
5.9917911e-07
-2.7689793e-08
6.0589247e-07
-3.2028534e-08
6.1743745e-07
-3.6322756e-08
6.364475e-07
-3.3113155e-08
6.3523144e-07
-1.5501378e-08
5.172197e-07
1.9748043e-07
9.6296621e-09
1.4842952e-07
2.9557838e-08
4.6075198e-07
3.8153564e-08
6.3194292e-07
3.5523657e-08
6.5580303e-07
3.0932173e-08
6.3327817e-07
2.7432678e-08
6.1626938e-07
2.4557161e-08
6.0706956e-07
2.1931557e-08
6.0086287e-07
1.9500174e-08
5.9602467e-07
1.7252873e-08
5.9218028e-07
1.5172918e-08
5.8911734e-07
1.3241618e-08
5.8666564e-07
1.1440531e-08
5.8469816e-07
9.7518139e-09
5.8312095e-07
8.1583497e-09
5.8186366e-07
6.6438018e-09
5.8087337e-07
5.1926096e-09
5.8011043e-07
3.7899126e-09
5.7954554e-07
2.4214296e-09
5.7915775e-07
1.0733072e-09
5.7893311e-07
-2.6805234e-10
5.7886378e-07
-1.6161696e-09
5.7894753e-07
-2.9846774e-09
5.7918769e-07
-4.3875009e-09
5.7959329e-07
-5.8390291e-09
5.8017961e-07
-7.3542672e-09
5.809692e-07
-8.9489597e-09
5.8199329e-07
-1.0639667e-08
5.8329409e-07
-1.2443795e-08
5.8492789e-07
-1.4379583e-08
5.8696974e-07
-1.6465931e-08
5.8952048e-07
-1.8721498e-08
5.9271621e-07
-2.1162037e-08
5.9673273e-07
-2.3821585e-08
6.0183866e-07
-2.6914075e-08
6.0898496e-07
-3.0851267e-08
6.2137464e-07
-3.4031318e-08
6.3962755e-07
-2.9345911e-08
6.3054604e-07
-1.2487394e-08
5.0036118e-07
1.8499304e-07
7.5365222e-09
1.4089446e-07
2.568736e-08
4.4260392e-07
3.5238492e-08
6.2239333e-07
3.3978128e-08
6.5706344e-07
2.9936611e-08
6.3731943e-07
2.6682146e-08
6.1952377e-07
2.4035777e-08
6.0971593e-07
2.1610695e-08
6.0328796e-07
1.9333876e-08
5.9830149e-07
1.7200805e-08
5.9431336e-07
1.5202452e-08
5.911157e-07
1.3326314e-08
5.8854178e-07
1.1559151e-08
5.8646533e-07
9.8875221e-09
5.8479258e-07
8.2979829e-09
5.834532e-07
6.777251e-09
5.823941e-07
5.3123084e-09
5.8157537e-07
3.8904336e-09
5.8096741e-07
2.4991818e-09
5.80549e-07
1.1263286e-09
5.8030596e-07
-2.402123e-10
5.8023032e-07
-1.6124828e-09
5.803198e-07
-3.0025842e-09
5.8057779e-07
-4.4227712e-09
5.8101347e-07
-5.8855325e-09
5.8164238e-07
-7.4036459e-09
5.8248731e-07
-8.9901975e-09
5.8357985e-07
-1.0658548e-08
5.8496244e-07
-1.2422239e-08
5.8669158e-07
-1.4294878e-08
5.8884238e-07
-1.6289831e-08
5.9151543e-07
-1.8418903e-08
5.9484528e-07
-2.0690869e-08
5.9900469e-07
-2.314455e-08
6.0429234e-07
-2.6006543e-08
6.1184695e-07
-2.9527414e-08
6.2489551e-07
-3.1668811e-08
6.4176894e-07
-2.590055e-08
6.2477778e-07
-1.0036769e-08
4.844974e-07
1.7495627e-07
5.9787249e-09
1.3491747e-07
2.240327e-08
4.2618278e-07
3.249605e-08
6.1230264e-07
3.2410255e-08
6.5714943e-07
2.8909576e-08
6.4081981e-07
2.5875981e-08
6.2255725e-07
2.3426883e-08
6.1216502e-07
2.1185103e-08
6.0552974e-07
1.9056949e-08
6.0042965e-07
1.7038826e-08
5.9633148e-07
1.5127182e-08
5.9302734e-07
1.3314248e-08
5.9035471e-07
1.1590901e-08
5.8818867e-07
9.9473289e-09
5.8643615e-07
8.3732444e-09
5.8502728e-07
6.8580919e-09
5.8390925e-07
5.3912062e-09
5.8304226e-07
3.9619122e-09
5.8239671e-07
2.5595762e-09
5.8195134e-07
1.1736206e-09
5.8169192e-07
-2.0648809e-10
5.8161042e-07
-1.5912647e-09
5.8170457e-07
-2.9912389e-09
5.8197776e-07
-4.4169799e-09
5.8243921e-07
-5.8791051e-09
5.831045e-07
-7.3882624e-09
5.8399647e-07
-8.9550747e-09
5.8514666e-07
-1.0590035e-08
5.865974e-07
-1.2303347e-08
5.8840489e-07
-1.4104747e-08
5.9064377e-07
-1.6003123e-08
5.9341381e-07
-1.8005021e-08
5.9684718e-07
-2.011529e-08
6.0111496e-07
-2.2381e-08
6.0655805e-07
-2.5030351e-08
6.144963e-07
-2.8137223e-08
6.2800238e-07
-2.9349129e-08
6.4298085e-07
-2.2832081e-08
6.1826073e-07
-8.0809392e-09
4.6974626e-07
1.6687533e-07
4.833561e-09
1.3008598e-07
1.9646915e-08
4.1137355e-07
2.9974302e-08
6.0197799e-07
3.0872097e-08
6.5625206e-07
2.7890198e-08
6.4380137e-07
2.5056094e-08
6.2539119e-07
2.2772268e-08
6.1444884e-07
2.0692536e-08
6.0760948e-07
1.8702401e-08
6.0241978e-07
1.6795253e-08
5.9823863e-07
1.4970964e-08
5.9485163e-07
1.3225188e-08
5.9210049e-07
1.15519e-08
5.8986196e-07
9.9441546e-09
5.880439e-07
8.3942794e-09
5.8657716e-07
6.894066e-09
5.8540947e-07
5.4349481e-09
5.8450138e-07
4.0081355e-09
5.8382352e-07
2.6047095e-09
5.8335476e-07
1.2156859e-09
5.8308094e-07
-1.6794513e-10
5.8299406e-07
-1.5551931e-09
5.8309182e-07
-2.9550471e-09
5.8337761e-07
-4.3764476e-09
5.8386061e-07
-5.8282429e-09
5.845563e-07
-7.3191204e-09
5.8548734e-07
-8.8575038e-09
5.8668504e-07
-1.0451411e-08
5.8819131e-07
-1.2108269e-08
5.9006175e-07
-1.3834723e-08
5.9237023e-07
-1.5636222e-08
5.9521531e-07
-1.7515574e-08
5.9872653e-07
-1.947648e-08
6.0307587e-07
-2.1575911e-08
6.0865748e-07
-2.4031792e-08
6.1695218e-07
-2.6739067e-08
6.3070966e-07
-2.7144056e-08
6.4338584e-07
-2.014963e-08
6.112663e-07
-6.5441724e-09
4.561408e-07
1.6033116e-07
3.9986769e-09
1.2608979e-07
1.7345727e-08
3.9803145e-07
2.7687011e-08
5.9164023e-07
2.939399e-08
6.5454581e-07
2.6901293e-08
6.462937e-07
2.4249272e-08
6.2804299e-07
2.2101717e-08
6.1659636e-07
2.0161755e-08
6.0954945e-07
1.8296523e-08
6.0428502e-07
1.6493464e-08
6.0004169e-07
1.4754101e-08
5.9659099e-07
1.3076407e-08
5.9377818e-07
1.1456564e-08
5.914818e-07
9.8898004e-09
5.8961066e-07
8.3705261e-09
5.8809643e-07
6.8924888e-09
5.868875e-07
5.448937e-09
5.8594493e-07
4.0327626e-09
5.852397e-07
2.6366182e-09
5.8475091e-07
1.2530095e-09
5.8446455e-07
-1.2563179e-10
5.843727e-07
-1.5068843e-09
5.8447307e-07
-2.8982807e-09
5.8476901e-07
-4.3072414e-09
5.8526958e-07
-5.740997e-09
5.8599005e-07
-7.2064882e-09
5.8695284e-07
-8.7102392e-09
5.8818879e-07
-1.0258205e-08
5.8973927e-07
-1.1855592e-08
5.9165914e-07
-1.3506691e-08
5.9402133e-07
-1.5214438e-08
5.9692305e-07
-1.6979274e-08
6.0049136e-07
-1.8806015e-08
6.0490261e-07
-2.0761549e-08
6.1061302e-07
-2.3042394e-08
6.1923303e-07
-2.5372303e-08
6.3303956e-07
-2.5093016e-08
6.4310655e-07
-1.7834449e-08
6.0400773e-07
-5.3520455e-09
4.436584e-07
1.5497911e-07
3.3914129e-09
1.2270134e-07
1.5425817e-08
3.8600298e-07
2.5627362e-08
5.8144313e-07
2.7991045e-08
6.5218327e-07
2.5954334e-08
6.4833004e-07
2.347098e-08
6.3052605e-07
2.1435158e-08
6.1863214e-07
1.9613648e-08
6.1137097e-07
1.7859437e-08
6.0603923e-07
1.6152096e-08
6.0174903e-07
1.4493333e-08
5.9824975e-07
1.2882546e-08
5.9538897e-07
1.131741e-08
5.9304694e-07
9.7947195e-09
5.9113335e-07
8.3104893e-09
5.8958066e-07
6.8600477e-09
5.8833795e-07
5.4381685e-09
5.8736681e-07
4.0392047e-09
5.8663866e-07
2.6572091e-09
5.861329e-07
1.2860402e-09
5.8583572e-07
-8.054528e-11
5.8573928e-07
-1.4488071e-09
5.8584133e-07
-2.8249414e-09
5.8614515e-07
-4.214991e-09
5.8665962e-07
-5.6247491e-09
5.8739981e-07
-7.0596445e-09
5.8838773e-07
-8.5246095e-09
5.8965376e-07
-1.0023935e-08
5.912386e-07
-1.1561124e-08
5.9319632e-07
-1.3138747e-08
5.9559895e-07
-1.4758031e-08
5.9854234e-07
-1.6418206e-08
6.0215154e-07
-1.8126902e-08
6.066113e-07
-1.9959673e-08
6.1244579e-07
-2.2082179e-08
6.2135554e-07
-2.4061378e-08
6.3501876e-07
-2.3212514e-08
6.4225769e-07
-1.5852365e-08
5.9664758e-07
-4.4361224e-09
4.3224215e-07
1.5054299e-07
2.9471611e-09
1.1975772e-07
1.3818651e-08
3.7513855e-07
2.3777299e-08
5.7149001e-07
2.6668101e-08
6.4929412e-07
2.5053292e-08
6.4994451e-07
2.2728798e-08
6.3285017e-07
2.0785045e-08
6.2057581e-07
1.9062737e-08
6.1309329e-07
1.7406008e-08
6.0769597e-07
1.5785549e-08
6.0336949e-07
1.420206e-08
5.9983324e-07
1.2655679e-08
5.9693535e-07
1.1145008e-08
5.9455761e-07
9.6679216e-09
5.9261044e-07
8.2216243e-09
5.9102696e-07
6.8026855e-09
5.8975688e-07
5.4071299e-09
5.8876236e-07
4.0305488e-09
5.8801524e-07
2.6682132e-09
5.8749524e-07
1.3151805e-09
5.8718875e-07
-3.3606117e-11
5.8708807e-07
-1.3832225e-09
5.8719095e-07
-2.7386683e-09
5.8750059e-07
-4.1047695e-09
5.8802573e-07
-5.4860744e-09
5.8878111e-07
-6.8867365e-09
5.8978839e-07
-8.3103909e-09
5.9107741e-07
-9.7600309e-09
5.9268824e-07
-1.12379e-08
5.9467419e-07
-1.2745389e-08
5.9710644e-07
-1.4282664e-08
6.0007961e-07
-1.5848709e-08
6.0371758e-07
-1.7455099e-08
6.0821769e-07
-1.9183901e-08
6.1417459e-07
-2.1162534e-08
6.2333417e-07
-2.2819362e-08
6.3667559e-07
-2.1503403e-08
6.4094173e-07
-1.416216e-08
5.8930634e-07
-3.7364987e-09
4.2181649e-07
1.4680649e-07
2.6171097e-09
1.1714485e-07
1.246442e-08
3.6529961e-07
2.2113879e-08
5.6184735e-07
2.5423475e-08
6.4598683e-07
2.4197348e-08
6.5117037e-07
2.2024973e-08
6.3502208e-07
2.0158364e-08
6.224423e-07
1.8518633e-08
6.1473302e-07
1.6946858e-08
6.0926775e-07
1.5404636e-08
6.0491171e-07
1.3890737e-08
6.0134714e-07
1.240551e-08
5.9842058e-07
1.0948071e-08
5.9601505e-07
9.5169859e-09
5.9404152e-07
8.1103079e-09
5.9243364e-07
6.7255543e-09
5.9114164e-07
5.3597514e-09
5.9012817e-07
4.0095181e-09
5.8936547e-07
2.6711625e-09
5.8883359e-07
1.3407807e-09
5.8851913e-07
1.4355587e-11
5.8841449e-07
-1.3121486e-09
5.8851745e-07
-2.6426859e-09
5.8883113e-07
-3.9810318e-09
5.8936407e-07
-5.3306802e-09
5.9013076e-07
-6.6947348e-09
5.9115245e-07
-8.0758018e-09
5.9245848e-07
-9.4758959e-09
5.9408833e-07
-1.0896376e-08
5.9609467e-07
-1.2337885e-08
5.9854795e-07
-1.3800047e-08
6.0154177e-07
-1.528236e-08
6.051999e-07
-1.6800955e-08
6.0973629e-07
-1.8441688e-08
6.1581532e-07
-2.0288466e-08
6.2518094e-07
-2.1650966e-08
6.3803809e-07
-1.995667e-08
6.3924743e-07
-1.2721208e-08
5.8207088e-07
-3.202778e-09
4.1229806e-07
1.4360371e-07
2.3655464e-09
1.1478436e-07
1.1313149e-08
3.5636191e-07
2.0613348e-08
5.5255543e-07
2.425185e-08
6.4235142e-07
2.3382885e-08
6.5203919e-07
2.1358315e-08
6.3704611e-07
1.95582e-08
6.2424224e-07
1.7987227e-08
6.1630399e-07
1.6489261e-08
6.1076573e-07
1.5017235e-08
6.0638374e-07
1.3567315e-08
6.0279706e-07
1.2139667e-08
5.9984823e-07
1.0733622e-08
5.9742109e-07
9.3481492e-09
5.95427e-07
7.981876e-09
5.9379991e-07
6.6330224e-09
5.9249049e-07
5.2993994e-09
5.9146179e-07
3.9784613e-09
5.9068641e-07
2.667382e-09
5.9014467e-07
1.3631405e-09
5.8982337e-07
6.2611672e-11
5.8971502e-07
-1.2373434e-09
5.8981741e-07
-2.5397845e-09
5.9013357e-07
-3.8475985e-09
5.9067189e-07
-5.1634051e-09
5.9144657e-07
-6.4894631e-09
5.924785e-07
-7.8275855e-09
5.937966e-07
-9.1790773e-09
5.9543982e-07
-1.0544715e-08
5.9746031e-07
-1.1924725e-08
5.9992796e-07
-1.3318587e-08
6.0293563e-07
-1.472689e-08
6.066082e-07
-1.6170464e-08
6.1117986e-07
-1.7735963e-08
6.1738082e-07
-1.9460494e-08
6.2690548e-07
-2.0555227e-08
6.3913283e-07
-1.8557952e-08
6.3725016e-07
-1.148915e-08
5.7500208e-07
-2.7939464e-09
4.0360286e-07
1.4080977e-07
2.1671191e-09
1.126233e-07
1.0324323e-08
3.4821641e-07
1.9253439e-08
5.4363632e-07
2.3146324e-08
6.384626e-07
2.2604969e-08
6.525806e-07
2.0725621e-08
6.3892482e-07
1.8984987e-08
6.2598264e-07
1.7471691e-08
6.1781728e-07
1.603792e-08
6.1219951e-07
1.4628879e-08
6.0779278e-07
1.3237675e-08
6.0418826e-07
1.1864002e-08
6.012219e-07
1.0507203e-08
5.9877789e-07
9.1664382e-09
5.9676776e-07
7.8407024e-09
5.9512564e-07
6.5287188e-09
5.9380248e-07
5.2288986e-09
5.9276161e-07
3.9393627e-09
5.9197595e-07
2.6579949e-09
5.9142604e-07
1.3825114e-09
5.9109886e-07
1.1053915e-10
5.9098699e-07
-1.1603044e-09
5.9108825e-07
-2.4323262e-09
5.9140559e-07
-3.7076751e-09
5.9194723e-07
-4.9882609e-09
5.9272715e-07
-6.2756779e-09
5.9376592e-07
-7.5711448e-09
5.9509207e-07
-8.8754757e-09
5.9674415e-07
-1.0189099e-08
5.9877393e-07
-1.1512067e-08
6.0125093e-07
-1.2844014e-08
6.0426758e-07
-1.4187016e-08
6.079512e-07
-1.5566381e-08
6.1255923e-07
-1.7066525e-08
6.1888097e-07
-1.8676234e-08
6.2851518e-07
-1.9527704e-08
6.3998429e-07
-1.7290705e-08
6.3501316e-07
-1.0429976e-08
5.6814135e-07
-2.4775594e-09
3.9565044e-07
1.3833221e-07
2.0043691e-09
1.1062619e-07
9.4657745e-09
3.4076879e-07
1.8014408e-08
5.350997e-07
2.2099691e-08
6.3438255e-07
2.1858322e-08
6.5282229e-07
2.0122703e-08
6.4065972e-07
1.8437472e-08
6.2766757e-07
1.6973273e-08
6.1928145e-07
1.5595618e-08
6.1357718e-07
1.4243274e-08
6.0914513e-07
1.2906028e-08
6.0552551e-07
1.158289e-08
6.0254504e-07
1.0273085e-08
6.000877e-07
8.9758205e-09
5.9806503e-07
7.6903021e-09
5.9641116e-07
6.4155998e-09
5.9507718e-07
5.1505737e-09
5.9402664e-07
3.8938667e-09
5.9323265e-07
2.6439351e-09
5.9267597e-07
1.3991001e-09
5.9234369e-07
1.5761219e-10
5.9222848e-07
-1.0822827e-09
5.9232815e-07
-2.3222693e-09
5.9264558e-07
-3.5638949e-09
5.9318886e-07
-4.8085028e-09
5.9397176e-07
-6.0571765e-09
5.950146e-07
-7.3107033e-09
5.9634559e-07
-8.5695773e-09
5.9800303e-07
-9.8340517e-09
6.0003841e-07
-1.110418e-08
6.0252105e-07
-1.2379954e-08
6.0554336e-07
-1.3665188e-08
6.0923644e-07
-1.4989162e-08
6.138832e-07
-1.6431163e-08
6.2032297e-07
-1.7931626e-08
6.3001565e-07
-1.8562096e-08
6.4061476e-07
-1.6138137e-08
6.325892e-07
-9.5124966e-09
5.6151571e-07
-2.2285145e-09
3.8836646e-07
1.3610369e-07
1.8656496e-09
1.0876924e-07
8.7123247e-09
3.3393836e-07
1.6879329e-08
5.2694702e-07
2.1105147e-08
6.3016336e-07
2.1137895e-08
6.5279025e-07
1.9545059e-08
6.4225176e-07
1.7913424e-08
6.2929881e-07
1.6491936e-08
6.2070288e-07
1.5163755e-08
6.1490537e-07
1.386274e-08
6.1044615e-07
1.2575267e-08
6.0681298e-07
1.1299508e-08
6.038208e-07
1.0034484e-08
6.0135272e-07
8.7793611e-09
5.9932015e-07
7.5334429e-09
5.9765708e-07
6.2960276e-09
5.9631459e-07
5.0663023e-09
5.9525636e-07
3.8433113e-09
5.9445565e-07
2.6259651e-09
5.9389332e-07
1.4130746e-09
5.9355658e-07
2.0339888e-10
5.9343816e-07
-1.0043017e-09
5.9353585e-07
-2.2112056e-09
5.9385248e-07
-3.4183771e-09
5.9439603e-07
-4.626716e-09
5.951801e-07
-5.836921e-09
5.962248e-07
-7.0494778e-09
5.9755815e-07
-8.2646887e-09
5.9921824e-07
-9.4827537e-09
6.0125647e-07
-1.070384e-08
6.0374214e-07
-1.1928441e-08
6.0676796e-07
-1.3162226e-08
6.1047022e-07
-1.4437736e-08
6.1515871e-07
-1.5826508e-08
6.2171174e-07
-1.7221806e-08
6.3141094e-07
-1.7651365e-08
6.4104432e-07
-1.5084397e-08
6.3002223e-07
-8.7104641e-09
5.5514177e-07
-2.0278406e-09
3.8168384e-07
1.3407585e-07
1.7434402e-09
1.070362e-07
8.0444305e-09
3.276565e-07
1.5833976e-08
5.1917449e-07
2.0156619e-08
6.2584899e-07
2.0439156e-08
6.5250891e-07
1.8988278e-08
6.4370179e-07
1.7410115e-08
6.3087648e-07
1.6026813e-08
6.220861e-07
1.4742762e-08
6.1618944e-07
1.3488579e-08
6.1170034e-07
1.2247278e-08
6.0805429e-07
1.101608e-08
6.05052e-07
9.7937566e-09
6.0257504e-07
8.5793735e-09
6.0053453e-07
7.3722602e-09
5.9886419e-07
6.1718535e-09
5.97515e-07
4.9775726e-09
5.9645064e-07
3.788765e-09
5.9564445e-07
2.6046968e-09
5.9507739e-07
1.4245691e-09
5.9473671e-07
2.4755063e-10
5.9461518e-07
-9.2718281e-10
5.9471058e-07
-2.1004034e-09
5.950257e-07
-3.2727932e-09
5.9556842e-07
-4.4449095e-09
5.9635222e-07
-5.617168e-09
5.9739706e-07
-6.7898509e-09
5.9873083e-07
-7.9631617e-09
6.0039155e-07
-9.1373268e-09
6.0243064e-07
-1.0312697e-08
6.0491751e-07
-1.1490351e-08
6.0794561e-07
-1.2677831e-08
6.116577e-07
-1.3910093e-08
6.1639097e-07
-1.5248636e-08
6.2305028e-07
-1.6541715e-08
6.3270402e-07
-1.6788476e-08
6.4129108e-07
-1.4115204e-08
6.2734896e-07
-8.0022468e-09
5.4902882e-07
-1.8615285e-09
3.7554312e-07
1.3221432e-07
1.6330384e-09
1.0541558e-07
7.4469614e-09
3.2186508e-07
1.4866507e-08
5.1177506e-07
1.9248855e-08
6.2147686e-07
1.9758195e-08
6.520014e-07
1.844826e-08
6.4501085e-07
1.6924632e-08
6.3239951e-07
1.5576543e-08
6.2343407e-07
1.4332416e-08
6.1743357e-07
1.3121359e-08
6.1291141e-07
1.1923188e-08
6.0925246e-07
1.0734094e-08
6.0624109e-07
9.5525713e-09
6.0375657e-07
8.3775597e-09
6.0170954e-07
7.2083648e-09
6.0003339e-07
6.0444993e-09
5.9867886e-07
4.8855422e-09
5.976096e-07
3.7310664e-09
5.9679893e-07
2.5806124e-09
5.9622784e-07
1.433689e-09
5.9588363e-07
2.8979138e-10
5.9575907e-07
-8.5157322e-10
5.9585195e-07
-1.9908543e-09
5.9616498e-07
-3.1284345e-09
5.96706e-07
-4.2646107e-09
5.9748839e-07
-5.3995931e-09
5.9853204e-07
-6.5335333e-09
5.9986477e-07
-7.6665978e-09
6.0152461e-07
-8.7990868e-09
6.0356313e-07
-9.9315704e-09
6.0604999e-07
-1.1065759e-08
6.090798e-07
-1.221099e-08
6.1280293e-07
-1.3403716e-08
6.175837e-07
-1.4693497e-08
6.2434006e-07
-1.5886492e-08
6.3389702e-07
-1.5966853e-08
6.4137144e-07
-1.3218098e-08
6.2460021e-07
-7.3702951e-09
5.4318101e-07
-1.7194552e-09
3.6989228e-07
1.3049487e-07
1.5315888e-09
1.0389879e-07
6.9081639e-09
3.1651501e-07
1.3967083e-08
5.0473986e-07
1.8377385e-08
6.1707905e-07
1.909173e-08
6.5128969e-07
1.7921326e-08
6.4618038e-07
1.6454083e-08
6.3386603e-07
1.5139493e-08
6.247485e-07
1.3932073e-08
6.18641e-07
1.2761137e-08
6.1408235e-07
1.1603568e-08
6.1041003e-07
1.0454477e-08
6.0739018e-07
9.3120644e-09
6.0489898e-07
8.175135e-09
6.0284647e-07
7.0429434e-09
6.0116558e-07
5.9150347e-09
5.9980677e-07
4.7910946e-09
5.9873354e-07
3.6708615e-09
5.9791916e-07
2.5540855e-09
5.9734462e-07
1.4405161e-09
5.969972e-07
3.2990636e-10
5.9686968e-07
-7.7797373e-10
5.9695983e-07
-1.8833193e-09
5.9727033e-07
-2.9862799e-09
5.9780896e-07
-4.0869551e-09
5.9858907e-07
-5.1854081e-09
5.9963049e-07
-6.28171e-09
6.0096108e-07
-7.376028e-09
6.0261893e-07
-8.4687581e-09
6.0465586e-07
-9.5607012e-09
6.0714194e-07
-1.0654211e-08
6.1017331e-07
-1.1760282e-08
6.13909e-07
-1.2915904e-08
6.1873932e-07
-1.4157203e-08
6.2558136e-07
-1.5251716e-08
6.3499153e-07
-1.5180622e-08
6.4130035e-07
-1.2382449e-08
6.2180203e-07
-6.8005331e-09
5.375991e-07
-1.5944526e-09
3.646862e-07
1.2890041e-07
1.4373934e-09
1.0247895e-07
6.4188283e-09
3.1156476e-07
1.3127481e-08
4.9805908e-07
1.7538417e-08
6.1268327e-07
1.8437041e-08
6.5039469e-07
1.7404242e-08
6.4721236e-07
1.5995708e-08
6.3527371e-07
1.4713922e-08
6.2603006e-07
1.3540835e-08
6.1981409e-07
1.240763e-08
6.1521557e-07
1.1288597e-08
6.1152907e-07