/*--------------------------------*- C++ -*----------------------------------*\
  =========                 |
  \\      /  F ield         | OpenFOAM: The Open Source CFD Toolbox
   \\    /   O peration     | Website:  https://openfoam.org
    \\  /    A nd           | Version:  10
     \\/     M anipulation  |
\*---------------------------------------------------------------------------*/
FoamFile
{
    format      ascii;
    class       surfaceScalarField;
    location    "0.13";
    object      phi_0;
}
// * * * * * * * * * * * * * * * * * * * * * * * * * * * * * * * * * * * * * //

dimensions      [1 0 -1 0 0 0 0];

internalField   nonuniform List<scalar> 
7860
(
3.9893306e-08
5.2881472e-07
1.2190669e-08
5.9641042e-07
7.4257802e-09
5.7347262e-07
5.4970001e-09
5.7063647e-07
4.1124917e-09
5.7009217e-07
3.1986444e-09
5.6962149e-07
2.5567107e-09
5.6934956e-07
2.0769968e-09
5.6918732e-07
1.7071693e-09
5.6907742e-07
1.4146994e-09
5.6900006e-07
1.1777873e-09
5.6894449e-07
9.816661e-10
5.6890369e-07
8.1598837e-10
5.6887324e-07
6.7325998e-10
5.6885029e-07
5.4790381e-10
5.6883292e-07
4.356554e-10
5.688198e-07
3.3315714e-10
5.6881005e-07
2.3767775e-10
5.6880303e-07
1.4691025e-10
5.6879832e-07
5.8819376e-11
5.6879564e-07
-2.8481822e-11
5.6879485e-07
-1.1683943e-10
5.6879591e-07
-2.0816453e-10
5.6879887e-07
-3.0453911e-10
5.6880393e-07
-4.0834855e-10
5.6881136e-07
-5.2244468e-10
5.6882165e-07
-6.5036645e-10
5.6883548e-07
-7.9665309e-10
5.6885385e-07
-9.6730454e-10
5.6887822e-07
-1.1704883e-09
5.6891076e-07
-1.4177127e-09
5.689548e-07
-1.7257972e-09
5.6901567e-07
-2.1197305e-09
5.6910153e-07
-2.6394057e-09
5.6922728e-07
-3.3672427e-09
5.6943546e-07
-4.4588547e-09
5.6979925e-07
-6.0048554e-09
5.7025367e-07
-9.5042869e-09
5.7220713e-07
-2.9571313e-08
5.8877477e-07
5.391366e-07
5.9666196e-08
4.6914857e-07
3.6658496e-08
6.1941811e-07
2.262094e-08
5.8751017e-07
1.6245923e-08
5.7701149e-07
1.2282647e-08
5.7405545e-07
9.5984133e-09
5.7230572e-07
7.6698328e-09
5.7127814e-07
6.2288546e-09
5.706283e-07
5.1198637e-09
5.7018642e-07
4.2427728e-09
5.6987715e-07
3.5322347e-09
5.6965503e-07
2.944068e-09
5.6949186e-07
2.4472152e-09
5.693701e-07
2.0191891e-09
5.6927832e-07
1.6432628e-09
5.6920884e-07
1.3066468e-09
5.6915642e-07
9.9927148e-10
5.6911743e-07
7.12946e-10
5.6908936e-07
4.4075192e-10
5.6907051e-07
1.7658473e-10
5.6905981e-07
-8.521517e-11
5.6905665e-07
-3.5018449e-10
5.6906088e-07
-6.2404918e-10
5.6907274e-07
-9.1305592e-10
5.6909293e-07
-1.2243586e-09
5.6912266e-07
-1.5665096e-09
5.691638e-07
-1.9501222e-09
5.6921909e-07
-2.3888094e-09
5.6929254e-07
-2.9005722e-09
5.6938998e-07
-3.5099224e-09
5.6952011e-07
-4.2513004e-09
5.6969618e-07
-5.1750953e-09
5.6993947e-07
-6.3579613e-09
5.7028439e-07
-7.9186555e-09
5.7078798e-07
-1.006044e-08
5.7157724e-07
-1.3189524e-08
5.7292834e-07
-1.8120753e-08
5.751849e-07
-2.8163497e-08
5.8224987e-07
-4.5791475e-08
6.0640275e-07
4.9334513e-07
5.9999233e-08
4.0914943e-07
5.0473433e-08
6.289439e-07
3.3357421e-08
6.0462616e-07
2.4804161e-08
5.8556475e-07
1.9309426e-08
5.7955018e-07
1.5317746e-08
5.762974e-07
1.2347353e-08
5.7424853e-07
1.0088857e-08
5.728868e-07
8.3288554e-09
5.7194642e-07
6.9242033e-09
5.712818e-07
5.7788006e-09
5.7080043e-07
4.8258616e-09
5.704448e-07
4.0176008e-09
5.7017836e-07
3.3190121e-09
5.6997691e-07
2.7038112e-09
5.6982404e-07
2.1517448e-09
5.6970849e-07
1.6467665e-09
5.6962241e-07
1.1757555e-09
5.6956037e-07
7.2758289e-10
5.6951868e-07
2.9239839e-10
5.6949499e-07
-1.3894721e-10
5.69488e-07
-5.7540793e-10
5.6949734e-07
-1.026236e-09
5.6952357e-07
-1.5015023e-09
5.695682e-07
-2.0126988e-09
5.6963386e-07
-2.5734989e-09
5.697246e-07
-3.2007686e-09
5.6984636e-07
-3.915978e-09
5.7000774e-07
-4.7472518e-09
5.7022125e-07
-5.7324333e-09
5.7050529e-07
-6.9237433e-09
5.7088749e-07
-8.3954199e-09
5.7141114e-07
-1.0256908e-08
5.7214588e-07
-1.2670139e-08
5.7320121e-07
-1.5868347e-08
5.7477545e-07
-2.0213541e-08
5.7727353e-07
-2.6683476e-08
5.8165483e-07
-3.8923316e-08
5.9448971e-07
-4.8148998e-08
6.1562843e-07
4.4519613e-07
5.4866668e-08
3.5428294e-07
5.743113e-08
6.2637948e-07
4.0446913e-08
6.2161034e-07
3.0758439e-08
5.9525321e-07
2.4622433e-08
5.8568619e-07
1.9931808e-08
5.8098803e-07
1.6293051e-08
5.7788729e-07
1.3447641e-08
5.7573221e-07
1.1183425e-08
5.7421063e-07
9.3486689e-09
5.7311656e-07
7.8354578e-09
5.7231364e-07
6.5652743e-09
5.7171498e-07
5.4802428e-09
5.7126339e-07
4.5370215e-09
5.7092013e-07
3.7024864e-09
5.7065858e-07
2.9507507e-09
5.7046022e-07
2.2610667e-09
5.7031209e-07
1.6163088e-09
5.7020512e-07
1.0018411e-09
5.7013315e-07
4.0463748e-10
5.700922e-07
-1.8744151e-10
5.7008007e-07
-7.8628907e-10
5.7009618e-07
-1.4041732e-09
5.7014145e-07
-2.0543912e-09
5.7021842e-07
-2.7520209e-09
5.7033149e-07
-3.5148484e-09
5.7048743e-07
-4.3645752e-09
5.7069609e-07
-5.3284522e-09
5.7097162e-07
-6.4415598e-09
5.7133436e-07
-7.7500696e-09
5.718138e-07
-9.3158116e-09
5.7245323e-07
-1.1222661e-08
5.7331799e-07
-1.3586943e-08
5.7451016e-07
-1.6570079e-08
5.7618434e-07
-2.0369967e-08
5.7857534e-07
-2.5253339e-08
5.821569e-07
-3.2478886e-08
5.8888038e-07
-4.5062901e-08
6.0707373e-07
-4.6524279e-08
6.1708981e-07
3.9867185e-07
4.795111e-08
3.0633212e-07
6.0047799e-08
6.1428294e-07
4.5370555e-08
6.3628753e-07
3.4846978e-08
6.0577677e-07
2.8371426e-08
5.9216174e-07
2.3391424e-08
5.8596803e-07
1.9406954e-08
5.8187176e-07
1.6203193e-08
5.7893597e-07
1.3595573e-08
5.7681825e-07
1.1444652e-08
5.7526748e-07
9.6452663e-09
5.7411303e-07
8.1173371e-09
5.7324291e-07
6.7998033e-09
5.7258092e-07
5.6456143e-09
5.7207432e-07
4.6179563e-09
5.7168623e-07
3.6875037e-09
5.7139067e-07
2.8303783e-09
5.7116921e-07
2.0266108e-09
5.7100889e-07
1.2589557e-09
5.7090081e-07
5.1194639e-10
5.708392e-07
-2.2889825e-10
5.7082092e-07
-9.7778384e-10
5.7084507e-07
-1.7493309e-09
5.70913e-07
-2.5592976e-09
5.7102838e-07
-3.4253964e-09
5.7119759e-07
-4.3682775e-09
5.7143031e-07
-5.4127694e-09
5.7174058e-07
-6.5894885e-09
5.7214834e-07
-7.9369666e-09
5.7268184e-07
-9.5045246e-09
5.7338135e-07
-1.135605e-08
5.7430476e-07
-1.3574421e-08
5.7553636e-07
-1.6268012e-08
5.7720375e-07
-1.958052e-08
5.7949685e-07
-2.3682374e-08
5.8267719e-07
-2.8876264e-08
5.8735079e-07
-3.6736812e-08
5.9674093e-07
-4.8410974e-08
6.1874789e-07
-4.3162648e-08
6.1184148e-07
3.555092e-07
4.0319423e-08
2.660131e-07
5.8957494e-08
5.9564516e-07
4.8290026e-08
6.4695495e-07
3.7550143e-08
6.165166e-07
3.0891467e-08
5.9882041e-07
2.5857017e-08
5.9100248e-07
2.1744191e-08
5.8598458e-07
1.8358077e-08
5.8232208e-07
1.5545946e-08
5.7963038e-07
1.3185704e-08
5.7762772e-07
1.1181366e-08
5.7611737e-07
9.4575938e-09
5.7496668e-07
7.955198e-09
5.7408332e-07
6.6272264e-09
5.7340229e-07
5.4360039e-09
5.7287746e-07
4.350864e-09
5.7247581e-07
3.3463694e-09
5.7217371e-07
2.4009123e-09
5.7195435e-07
1.4955965e-09
5.7180612e-07
6.1331635e-10
5.7172148e-07
-2.6203348e-10
5.7169627e-07
-1.1462758e-09
5.7172931e-07
-2.0556536e-09
5.7182238e-07
-3.0075585e-09
5.7198029e-07
-4.0213371e-09
5.7221137e-07
-5.1192376e-09
5.7252821e-07
-6.3275609e-09
5.729489e-07
-7.6780965e-09
5.7349888e-07
-9.2099198e-09
5.7421366e-07
-1.09717e-08
5.7514313e-07
-1.3024735e-08
5.7635779e-07
-1.5446369e-08
5.77958e-07
-1.8334087e-08
5.8009147e-07
-2.1812182e-08
5.8297495e-07
-2.6036603e-08
5.8690161e-07
-3.1416092e-08
5.9273028e-07
-3.9581386e-08
6.0490622e-07
-4.9103525e-08
6.2827003e-07
-3.8540659e-08
6.0127861e-07
3.1696854e-07
3.2844272e-08
2.3316935e-07
5.5205356e-08
5.7328457e-07
4.9180207e-08
6.5298011e-07
3.9012201e-08
6.2668452e-07
3.2382753e-08
6.0544985e-07
2.7471637e-08
5.959136e-07
2.3393125e-08
5.9006309e-07
1.99597e-08
5.8575551e-07
1.7054712e-08
5.8253537e-07
1.4575881e-08
5.8010655e-07
1.2439365e-08
5.7825388e-07
1.0577858e-08
5.7682819e-07
8.937062e-09
5.7572411e-07
7.472727e-09
5.7486662e-07
6.1484648e-09
5.7420172e-07
4.9339905e-09
5.7369029e-07
3.8036798e-09
5.7330402e-07
2.7353922e-09
5.7302264e-07
1.7094945e-09
5.7283202e-07
7.0802964e-10
5.7272295e-07
-2.8601562e-10
5.7269031e-07
-1.2893852e-09
5.7273268e-07
-2.3192197e-09
5.7285221e-07
-3.3937402e-09
5.7305481e-07
-4.53299e-09
5.7335062e-07
-5.759682e-09
5.737549e-07
-7.1001961e-09
5.7428942e-07
-8.5857806e-09
5.7498446e-07
-1.0254002e-08
5.7588188e-07
-1.215052e-08
5.7703965e-07
-1.433148e-08
5.7853875e-07
-1.68664e-08
5.8049292e-07
-1.9840223e-08
5.830653e-07
-2.3353877e-08
5.864886e-07
-2.7548855e-08
5.9109659e-07
-3.2942032e-08
5.9812346e-07
-4.091608e-08
6.1288027e-07
-4.7602041e-08
6.3495599e-07
-3.3332455e-08
5.8700903e-07
2.8363609e-07
2.6168822e-08
2.0700119e-07
5.0079715e-08
5.4937444e-07
4.8428075e-08
6.5463185e-07
3.9428335e-08
6.3568414e-07
3.3017324e-08
6.1186082e-07
2.8353221e-08
6.005777e-07
2.4436109e-08
5.9398021e-07
2.1064426e-08
5.8912719e-07
1.8157175e-08
5.8544262e-07
1.5635052e-08
5.8262867e-07
1.3428857e-08
5.8046008e-07
1.1481346e-08
5.787757e-07
9.7449368e-09
5.7746052e-07
8.1797708e-09
5.7643179e-07
6.7522476e-09
5.7562924e-07
5.4337526e-09
5.7500878e-07
4.1995688e-09
5.745382e-07
3.0279533e-09
5.7419425e-07
1.8993396e-09
5.7396063e-07
7.9563413e-10
5.7382665e-07
-3.0042043e-10
5.7378637e-07
-1.4058413e-09
5.738381e-07
-2.5379987e-09
5.7398437e-07
-3.715219e-09
5.7423203e-07
-4.9574279e-09
5.7459283e-07
-6.2868653e-09
5.7508434e-07
-7.728898e-09
5.7573145e-07
-9.3129672e-09
5.7656853e-07
-1.1073696e-08
5.7764261e-07
-1.3052159e-08
5.7901812e-07
-1.5297529e-08
5.8078412e-07
-1.7869196e-08
5.8306458e-07
-2.0836734e-08
5.8603283e-07
-2.427552e-08
5.8992739e-07
-2.8320927e-08
5.95142e-07
-3.3575797e-08
6.0337833e-07
-4.0944053e-08
6.2024852e-07
-4.469395e-08
6.3870589e-07
-2.8155287e-08
5.7047036e-07
2.554808e-07
2.054892e-08
1.8645306e-07
4.4521483e-08
5.2540295e-07
4.6562478e-08
6.525911e-07
3.907483e-08
6.4317165e-07
3.3009439e-08
6.1792615e-07
2.8645347e-08
6.0494179e-07
2.4968451e-08
5.9765711e-07
2.1737804e-08
5.9235784e-07
1.8897981e-08
5.8828244e-07
1.6392829e-08
5.8513382e-07
1.4168776e-08
5.8268413e-07
1.2179564e-08
5.8076491e-07
1.0385334e-08
5.7925475e-07
8.7516503e-09
5.7806547e-07
7.2486778e-09
5.7713222e-07
5.8503691e-09
5.7640709e-07
4.5337253e-09
5.7585485e-07
3.2781298e-09
5.7544985e-07
2.0647411e-09
5.7517402e-07
8.7593581e-10
5.7501546e-07
-3.0521216e-10
5.7496752e-07
-1.4954279e-09
5.7502832e-07
-2.711733e-09
5.7520067e-07
-3.9719476e-09
5.7549224e-07
-5.2952152e-09
5.7591609e-07
-6.7025691e-09
5.7649169e-07
-8.2175492e-09
5.7724643e-07
-9.866888e-09
5.7821787e-07
-1.1681277e-08
5.79457e-07
-1.369616e-08
5.81033e-07
-1.5952642e-08
5.830406e-07
-1.8498695e-08
5.8561064e-07
-2.1387573e-08
5.8892171e-07
-2.4673493e-08
5.932133e-07
-2.8502128e-08
5.9897063e-07
-3.3517653e-08
6.0839385e-07
-3.999867e-08
6.2672954e-07
-4.1037324e-08
6.3974454e-07
-2.3362433e-08
5.5279547e-07
2.3211837e-07
1.5991518e-08
1.7046248e-07
3.9072925e-08
5.0232298e-07
4.4021571e-08
6.4764293e-07
3.8193204e-08
6.4899987e-07
3.2562918e-08
6.2355633e-07
2.8503801e-08
6.090009e-07
2.5099093e-08
6.0106182e-07
2.2055992e-08
5.9540094e-07
1.9330556e-08
5.9100788e-07
1.6886598e-08
5.8757778e-07
1.4685053e-08
5.8488568e-07
1.2690236e-08
5.8275973e-07
1.0870146e-08
5.8107484e-07
9.196169e-09
5.7973945e-07
7.6427394e-09
5.7868564e-07
6.186917e-09
5.7786291e-07
4.8079618e-09
5.772338e-07
3.4869066e-09
5.767709e-07
2.2061353e-09
5.7645479e-07
9.4897413e-10
5.7627262e-07
-3.0070534e-10
5.762172e-07
-1.5588738e-09
5.7628649e-07
-2.8417362e-09
5.7648353e-07
-4.1661231e-09
5.7681663e-07
-5.5498906e-09
5.7729986e-07
-7.0123349e-09
5.7795414e-07
-8.5746204e-09
5.7880872e-07
-1.0260218e-08
5.7990347e-07
-1.209536e-08
5.8129214e-07
-1.4109462e-08
5.830471e-07
-1.633548e-08
5.8526662e-07
-1.8810305e-08
5.8808546e-07
-2.1572259e-08
5.9168367e-07
-2.4661989e-08
5.9630304e-07
-2.824729e-08
6.0255594e-07
-3.2951718e-08
6.1309828e-07
-3.8374829e-08
6.3215265e-07
-3.7074542e-08
6.3844425e-07
-1.9123096e-08
5.3484403e-07
2.1299527e-07
1.2397565e-08
1.5806602e-07
3.4032957e-08
4.8068945e-07
4.1134418e-08
6.4054224e-07
3.6961399e-08
6.5317276e-07
3.183157e-08
6.2868601e-07
2.806301e-08
6.1276944e-07
2.4931418e-08
6.0419342e-07
2.2096008e-08
5.9823635e-07
1.9511787e-08
5.935921e-07
1.7158014e-08
5.8993155e-07
1.5007951e-08
5.8703574e-07
1.3035184e-08
5.847325e-07
1.1214975e-08
5.8289505e-07
9.5243655e-09
5.8143006e-07
7.9421321e-09
5.8026788e-07
6.4486577e-09
5.7935639e-07
5.0257518e-09
5.7865671e-07
3.6564232e-09
5.7814023e-07
2.3246233e-09
5.7778659e-07
1.014976e-09
5.7758227e-07
-2.8750057e-10
5.7751967e-07
-1.5976729e-09
5.7759666e-07
-2.930579e-09
5.7781644e-07
-4.3017096e-09
5.7818776e-07
-5.7272877e-09
5.7872544e-07
-7.2245419e-09
5.7945139e-07
-8.8119668e-09
5.8039614e-07
-1.0509555e-08
5.8160105e-07
-1.2339006e-08
5.8312159e-07
-1.4323886e-08
5.8503198e-07
-1.6489659e-08
5.8743239e-07
-1.8863373e-08
5.9045917e-07
-2.1470746e-08
5.9429104e-07
-2.4346051e-08
5.9917834e-07
-2.7682083e-08
6.0589197e-07
-3.2020421e-08
6.1743662e-07
-3.6314531e-08
6.3644676e-07
-3.3106649e-08
6.3523637e-07
-1.549873e-08
5.1723611e-07
1.9749654e-07
9.6283861e-09
1.4843893e-07
2.9553714e-08
4.6076648e-07
3.8147483e-08
6.3194962e-07
3.5517343e-08
6.5580283e-07
3.0926236e-08
6.3327691e-07
2.7427016e-08
6.1626861e-07
2.4551717e-08
6.0706872e-07
2.1926377e-08
6.0086169e-07
1.9495314e-08
5.9602316e-07
1.7248385e-08
5.9217848e-07
1.5168845e-08
5.8911528e-07
1.3238001e-08
5.8666334e-07
1.1437405e-08
5.8469565e-07
9.7492115e-09
5.8311825e-07
8.1562984e-09
5.8186079e-07
6.6423257e-09
5.8087036e-07
5.191729e-09
5.801073e-07
3.7896448e-09
5.7954232e-07
2.4217886e-09
5.7915445e-07
1.0743033e-09
5.7892975e-07
-2.6641161e-10
5.7886039e-07
-1.6138804e-09
5.7894413e-07
-2.9817391e-09
5.791843e-07
-4.3839169e-09
5.7958994e-07
-5.8348065e-09
5.8017633e-07
-7.3494175e-09
5.80966e-07
-8.9434995e-09
5.8199022e-07
-1.0633618e-08
5.8329117e-07
-1.2437184e-08
5.8492516e-07
-1.4372444e-08
5.8696724e-07
-1.6458306e-08
5.8951826e-07
-1.8713434e-08
5.927143e-07
-2.1153594e-08
5.967312e-07
-2.3812822e-08
6.0183757e-07
-2.6904953e-08
6.089841e-07
-3.0841625e-08
6.2137329e-07
-3.4021673e-08
6.3962681e-07
-2.9338508e-08
6.3055321e-07
-1.2484504e-08
5.003821e-07
1.8501204e-07
7.5351266e-09
1.4090534e-07
2.5682714e-08
4.4262182e-07
3.5231429e-08
6.2240252e-07
3.3970636e-08
6.5706366e-07
2.992955e-08
6.3731773e-07
2.6675456e-08
6.1952263e-07
2.4029372e-08
6.0971481e-07
2.1604611e-08
6.0328646e-07
1.9328176e-08
5.982996e-07
1.7195544e-08
5.9431112e-07
1.5197679e-08
5.9111314e-07
1.3322073e-08
5.8853895e-07
1.1555481e-08
5.8646224e-07
9.884458e-09
5.8478927e-07
8.295555e-09
5.8344969e-07
6.7754856e-09
5.8239043e-07
5.3112282e-09
5.8157156e-07
3.8900576e-09
5.8096349e-07
2.4995255e-09
5.8054498e-07
1.1274042e-09
5.8030187e-07
-2.38396e-10
5.8022619e-07
-1.6099205e-09
5.8031565e-07
-2.9992742e-09
5.8057365e-07
-4.4187156e-09
5.8100938e-07
-5.8807377e-09
5.8163835e-07
-7.3981228e-09
5.8248339e-07
-8.983962e-09
5.8357606e-07
-1.0651621e-08
5.8495883e-07
-1.241465e-08
5.8668819e-07
-1.4286662e-08
5.8883925e-07
-1.6281028e-08
5.9151262e-07
-1.8409567e-08
5.9484284e-07
-2.0681063e-08
5.990027e-07
-2.3134326e-08
6.0429083e-07
-2.5995826e-08
6.118456e-07
-2.9516061e-08
6.2489353e-07
-3.1657611e-08
6.4176836e-07
-2.5892182e-08
6.2478778e-07
-1.0033618e-08
4.8452354e-07
1.7497842e-07
5.9771956e-09
1.3492997e-07
2.2398053e-08
4.2620453e-07
3.2487907e-08
6.1231485e-07
3.2401438e-08
6.5715033e-07
2.8901235e-08
6.4081762e-07
2.5868123e-08
6.2255562e-07
2.3419391e-08
6.1216354e-07
2.1178e-08
6.0552786e-07
1.9050303e-08
6.004273e-07
1.7032697e-08
5.9632872e-07
1.5121623e-08
5.9302422e-07
1.3309307e-08
5.9035126e-07
1.158662e-08
5.8818493e-07
9.9437455e-09
5.8643215e-07
8.3703912e-09
5.8502305e-07
6.8559974e-09
5.8390482e-07
5.3898951e-09
5.8303766e-07
3.9614052e-09
5.8239198e-07
2.5598907e-09
5.819465e-07
1.1747703e-09
5.8168699e-07
-2.0449273e-10
5.8160545e-07
-1.5884167e-09
5.8169958e-07
-2.987535e-09
5.8197277e-07
-4.4124207e-09
5.8243426e-07
-5.8736956e-09
5.8309963e-07
-7.3820121e-09
5.839917e-07
-8.9479988e-09
5.8514205e-07
-1.0582155e-08
5.8659299e-07
-1.229469e-08
5.8840072e-07
-1.4095347e-08
5.9063991e-07
-1.5993024e-08
5.934103e-07
-1.7994278e-08
5.9684409e-07
-2.0103968e-08
6.0111239e-07
-2.236914e-08
6.06556e-07
-2.5017841e-08
6.144943e-07
-2.8123961e-08
6.2799965e-07
-2.9336226e-08
6.4298062e-07
-2.2822666e-08
6.1827422e-07
-8.0775014e-09
4.6977838e-07
1.6690092e-07
4.8318843e-09
1.3010027e-07
1.9641074e-08
4.1139968e-07
2.9964973e-08
6.0199383e-07
3.0861799e-08
6.5625395e-07
2.7880403e-08
6.4379866e-07
2.504691e-08
6.2538894e-07
2.276355e-08
6.1444688e-07
2.0684289e-08
6.0760712e-07
1.8694695e-08
6.0241689e-07
1.6788153e-08
5.9823526e-07
1.4964527e-08
5.9484784e-07
1.3219465e-08
5.9209632e-07
1.1546935e-08
5.8985746e-07
9.9399891e-09
5.8803909e-07
8.3909477e-09
5.8657209e-07
6.8915985e-09
5.8540417e-07
5.4333713e-09
5.8449589e-07
4.0074719e-09
5.8381787e-07
2.604978e-09
5.8334899e-07
1.2169023e-09
5.8307507e-07
-1.6576872e-10
5.8298812e-07
-1.5520478e-09
5.8308585e-07
-2.9509277e-09
5.8337165e-07
-4.3713527e-09
5.8385469e-07
-5.8221754e-09
5.8455045e-07
-7.3120879e-09
5.8548162e-07
-8.8495197e-09
5.8667948e-07
-1.0442495e-08
5.8818596e-07
-1.2098447e-08
5.9005668e-07
-1.3824029e-08
5.9236549e-07
-1.56247e-08
5.9521097e-07
-1.7503279e-08
5.9872267e-07
-1.9463479e-08
6.0307259e-07
-2.1562225e-08
6.0865475e-07
-2.4017271e-08
6.1694934e-07
-2.6723682e-08
6.3070606e-07
-2.7129288e-08
6.4338623e-07
-2.013908e-08
6.1128401e-07
-6.5404196e-09
4.5617972e-07
1.603605e-07
3.99684e-09
1.2610605e-07
1.7339205e-08
3.9806252e-07
2.767638e-08
5.9166035e-07
2.9382039e-08
6.5454906e-07
2.6889855e-08
6.4629046e-07
2.4238586e-08
6.2803998e-07
2.2091619e-08
6.1659382e-07
2.0152226e-08
6.0954653e-07
1.8287632e-08
6.0428149e-07
1.6485279e-08
6.0003761e-07
1.4746685e-08
5.9658644e-07
1.3069811e-08
5.937732e-07
1.1450838e-08
5.9147643e-07
9.8849844e-09
5.8960495e-07
8.3666576e-09
5.8809042e-07
6.8896e-09
5.8688123e-07
5.4470559e-09
5.8593843e-07
4.0319133e-09
5.8523302e-07
2.6368214e-09
5.8474408e-07
1.2542826e-09
5.8445761e-07
-1.2327449e-10
5.8436568e-07
-1.5034318e-09
5.8446601e-07
-2.8937254e-09
5.8476194e-07
-4.3015793e-09
5.8526254e-07
-5.7342282e-09
5.859831e-07
-7.1986177e-09
5.8694601e-07
-8.7012774e-09
5.8818214e-07
-1.0248168e-08
5.8973285e-07
-1.1844505e-08
5.9165301e-07
-1.3494585e-08
5.9401557e-07
-1.5201357e-08
5.9691774e-07
-1.6965272e-08
6.0048659e-07
-1.8791155e-08
6.0489847e-07
-2.0745829e-08
6.1060942e-07
-2.3025628e-08
6.1922914e-07
-2.5354568e-08
6.33035e-07
-2.5076208e-08
6.4310787e-07
-1.7822666e-08
6.0403047e-07
-5.3479472e-09
4.43705e-07
1.5501255e-07
3.3894043e-09
1.2271977e-07
1.5418556e-08
3.8603961e-07
2.5615306e-08
5.8146827e-07
2.7977259e-08
6.5218831e-07
2.5941046e-08
6.4832628e-07
2.3458602e-08
6.3052211e-07
2.1423511e-08
6.1862886e-07
1.9602686e-08
6.1136736e-07
1.7849223e-08
6.0603496e-07
1.6142704e-08
6.0174413e-07
1.4484827e-08
5.9824432e-07
1.2874981e-08
5.9538304e-07
1.1310836e-08
5.9304058e-07
9.7891791e-09
5.911266e-07
8.306021e-09
5.8957357e-07
6.856685e-09
5.8833057e-07
5.4359407e-09
5.8735918e-07
4.0381373e-09
5.8663082e-07
2.6573244e-09
5.8612489e-07
1.2873575e-09
5.8582758e-07
-7.800962e-11
5.8573104e-07
-1.4450394e-09
5.8583304e-07
-2.8199313e-09
5.8613684e-07
-4.2087313e-09
5.8665134e-07
-5.6172364e-09
5.873916e-07
-7.05088e-09
5.8837965e-07
-8.5145997e-09
5.8964586e-07
-1.0012693e-08
5.9123095e-07
-1.1548669e-08
5.9318899e-07
-1.3125109e-08
5.9559201e-07
-1.4743248e-08
5.9853588e-07
-1.6402332e-08
6.0214567e-07
-1.8109993e-08
6.0660613e-07
-1.9941695e-08
6.1244112e-07
-2.2062917e-08
6.2135036e-07
-2.404105e-08
6.3501313e-07
-2.319348e-08
6.422603e-07
-1.5839242e-08
5.9667623e-07
-4.4316474e-09
4.322974e-07
1.505809e-07
2.9449711e-09
1.1977854e-07
1.381059e-08
3.7518141e-07
2.3763687e-08
5.7152098e-07
2.6652284e-08
6.4930145e-07
2.5037933e-08
6.4994028e-07
2.2714516e-08
6.3284513e-07
2.0771665e-08
6.2057163e-07
1.9050178e-08
6.1308885e-07
1.7394325e-08
6.0769082e-07
1.5774817e-08
6.0336364e-07
1.4192346e-08
5.9982679e-07
1.264704e-08
5.9692835e-07
1.1137495e-08
5.9455012e-07
9.6615777e-09
5.9260252e-07
8.2164887e-09
5.9101866e-07
6.7987924e-09
5.8974826e-07
5.4045094e-09
5.8875346e-07
4.0292276e-09
5.880061e-07
2.6682151e-09
5.8748591e-07
1.3165265e-09
5.8717926e-07
-3.0897023e-11
5.8707847e-07
-1.3791342e-09
5.8718128e-07
-2.7331868e-09
5.8749089e-07
-4.0978837e-09
5.8801604e-07
-5.4777765e-09
5.8877149e-07
-6.8770228e-09
5.897789e-07
-8.2992627e-09
5.910681e-07
-9.7474955e-09
5.9267918e-07
-1.1223972e-08
5.9466547e-07
-1.2730092e-08
5.9709813e-07
-1.4266031e-08
6.0007182e-07
-1.583079e-08
6.0371043e-07
-1.7435938e-08
6.0821128e-07
-1.9163427e-08
6.1416861e-07
-2.1140506e-08
6.2332744e-07
-2.2796182e-08
6.3666881e-07
-2.1481943e-08
6.4094606e-07
-1.4147586e-08
5.8934187e-07
-3.7316154e-09
4.2188143e-07
1.4684929e-07
2.6147311e-09
1.1716829e-07
1.2455496e-08
3.6534946e-07
2.2098572e-08
5.6188506e-07
2.5405418e-08
6.4599702e-07
2.4179676e-08
6.5116574e-07
2.200856e-08
6.3501577e-07
2.0143049e-08
6.2243701e-07
1.8504298e-08
6.1472761e-07
1.6933546e-08
6.0926158e-07
1.5392423e-08
6.0490477e-07
1.387969e-08
6.0133952e-07
1.2395687e-08
5.9841235e-07
1.0939522e-08
5.9600629e-07
9.5097548e-09
5.9403229e-07
8.1044336e-09
5.9242398e-07
6.7210708e-09
5.9113163e-07
5.3566892e-09
5.9011784e-07
4.0079047e-09
5.8935489e-07
2.6710227e-09
5.8882279e-07
1.3421374e-09
5.8850815e-07
1.7229978e-11
5.8840338e-07
-1.3077367e-09
5.8850624e-07
-2.6367187e-09
5.8881987e-07
-3.9734936e-09
5.8935281e-07
-5.3215578e-09
5.9011956e-07
-6.6840182e-09
5.9114136e-07
-8.0634857e-09
5.9244757e-07
-9.4619803e-09
5.9407767e-07
-1.0880868e-08
5.9608435e-07
-1.23208e-08
5.9853806e-07
-1.3781411e-08
6.0153243e-07
-1.5262216e-08
6.0519123e-07
-1.6779327e-08
6.0972839e-07
-1.8418463e-08
6.1580775e-07
-2.026339e-08
6.2517237e-07
-2.1624662e-08
6.3803008e-07
-1.9932575e-08
6.3925397e-07
-1.2705066e-08
5.8211436e-07
-3.1974555e-09
4.1237382e-07
1.4365183e-07
2.3629746e-09
1.1481068e-07
1.13033e-08
3.5641957e-07
2.05962e-08
5.5260086e-07
2.4231332e-08
6.4236514e-07
2.3362644e-08
6.5203427e-07
2.1339524e-08
6.3703831e-07
1.9540733e-08
6.2423562e-07
1.7970928e-08
6.1629741e-07
1.6474152e-08
6.1075837e-07
1.5003391e-08
6.0637553e-07
1.3554803e-08
6.0278811e-07
1.2128543e-08
5.9983861e-07
1.0723936e-08
5.9741089e-07
9.3399436e-09
5.9541628e-07
7.9751883e-09
5.9378874e-07
6.627886e-09
5.9247893e-07
5.2958442e-09
5.9144988e-07
3.9765148e-09
5.9067422e-07
2.6670699e-09
5.9013223e-07
1.3644875e-09
5.8981073e-07
6.5641579e-11
5.8970222e-07
-1.2326075e-09
5.8980449e-07
-2.5333203e-09
5.9012058e-07
-3.8393846e-09
5.9065888e-07
-5.1534217e-09
5.914336e-07
-6.4776927e-09
5.9246563e-07
-7.8140141e-09
5.9378389e-07
-9.1636957e-09
5.9542735e-07
-1.0527521e-08
5.9744818e-07
-1.1905722e-08
5.9991626e-07
-1.3297792e-08
6.029245e-07
-1.4704333e-08
6.0659778e-07
-1.6146146e-08
6.111702e-07
-1.770972e-08
6.1737132e-07
-1.9432072e-08
6.2689472e-07
-2.0525514e-08
6.3912352e-07
-1.8531001e-08
6.3725946e-07
-1.1471315e-08
5.7505467e-07
-2.7881534e-09
4.0369066e-07
1.4086368e-07
2.1643522e-09
1.1265276e-07
1.0313483e-08
3.4828277e-07
1.9234297e-08
5.4369057e-07
2.312311e-08
6.3848059e-07
2.2581885e-08
6.5257555e-07
2.0704188e-08
6.3891534e-07
1.8965135e-08
6.2597443e-07
1.7453224e-08
6.1780931e-07
1.6020836e-08
6.1219077e-07
1.4613246e-08
6.0778312e-07
1.3223559e-08
6.0417779e-07
1.1851457e-08
6.0121071e-07
1.0496275e-08
5.9876608e-07
9.1571678e-09
5.9675539e-07
7.8331245e-09
5.9511278e-07
6.5228646e-09
5.9378919e-07
5.2247967e-09
5.9274795e-07
3.93704e-09
5.9196197e-07
2.6574776e-09
5.914118e-07
1.3838255e-09
5.9108438e-07
1.1371116e-10
5.9097234e-07
-1.1552477e-09
5.9107345e-07
-2.4253571e-09
5.9139069e-07
-3.6987659e-09
5.9193229e-07
-4.9773839e-09
5.9271221e-07
-6.2628064e-09
5.9375105e-07
-7.5562545e-09
5.9507733e-07
-8.8585455e-09
5.9672965e-07
-1.0170113e-08
5.9875975e-07
-1.1491018e-08
6.0123717e-07
-1.2820903e-08
6.0425439e-07
-1.4161856e-08
6.0793873e-07
-1.553914e-08
6.1254749e-07
-1.7036986e-08
6.1886917e-07
-1.8644156e-08
6.2850189e-07
-1.9494285e-08
6.3997365e-07
-1.726067e-08
6.3502584e-07
-1.0410321e-08
5.6820433e-07
-2.4712649e-09
3.957516e-07
1.3839241e-07
2.0014077e-09
1.1065907e-07
9.4538784e-09
3.4084484e-07
1.7993111e-08
5.3516397e-07
2.2073535e-08
6.3440567e-07
2.1832104e-08
6.5281732e-07
2.0098344e-08
6.4064835e-07
1.8414986e-08
6.2765747e-07
1.6952423e-08
6.1927184e-07
1.5576371e-08
6.1356683e-07
1.4225688e-08
6.0913381e-07
1.2890165e-08
6.0551332e-07
1.1568799e-08
6.0253208e-07
1.0260808e-08
6.0007407e-07
8.965393e-09
5.980508e-07
7.6817551e-09
5.9639642e-07
6.4089614e-09
5.9506198e-07
5.1458698e-09
5.9401104e-07
3.8911229e-09
5.9321672e-07
2.6431772e-09
5.9265974e-07
1.4003554e-09
5.9232721e-07
1.6090968e-10
5.9221178e-07
-1.0769121e-09
5.9231127e-07
-2.3147921e-09
5.9262857e-07
-3.5542758e-09
5.9317177e-07
-4.7967051e-09
5.9395464e-07
-6.0431625e-09
5.9499751e-07
-7.294436e-09
5.9632861e-07
-8.5510214e-09
5.9798623e-07
-9.8131756e-09
6.000219e-07
-1.1080958e-08
6.0250495e-07
-1.2354371e-08
6.055278e-07
-1.3637233e-08
6.0922159e-07
-1.4958763e-08
6.1386901e-07
-1.6398043e-08
6.2030845e-07
-1.7895574e-08
6.2999942e-07
-1.8524668e-08
6.4060274e-07
-1.6104783e-08
6.3260596e-07
-9.4908907e-09
5.6159043e-07
-2.2216874e-09
3.884824e-07
1.3617072e-07
1.862496e-09
1.0880584e-07
8.6993058e-09
3.3402519e-07
1.6855708e-08
5.2702264e-07
2.1075788e-08
6.3019254e-07
2.1108235e-08
6.5278561e-07
1.9517474e-08
6.4223828e-07
1.7888039e-08
6.2928649e-07
1.6468475e-08
6.2069135e-07
1.5142148e-08
6.1489317e-07
1.384303e-08
6.1043293e-07
1.2557509e-08
6.0679884e-07
1.1283744e-08
6.0380585e-07
1.0020749e-08
6.0133706e-07
8.7676831e-09
5.9930387e-07
7.5238474e-09
5.9764026e-07
6.2885376e-09
5.9629729e-07
5.06094e-09
5.9523864e-07
3.8400996e-09
5.9443756e-07
2.6249292e-09
5.9387491e-07
1.4142422e-09
5.9353789e-07
2.0680139e-10
5.9341922e-07
-9.9862882e-10
5.935167e-07
-2.2032226e-09
5.9383317e-07
-3.4080402e-09
5.9437659e-07
-4.6139777e-09
5.9516058e-07
-5.8217309e-09
5.9620526e-07
-7.0317837e-09
5.9753866e-07
-8.2444382e-09
5.9919889e-07
-9.4598957e-09
6.0123736e-07
-1.0678328e-08
6.0372338e-07
-1.1900235e-08
6.0674971e-07
-1.3131287e-08
6.1045264e-07
-1.4403942e-08
6.1514167e-07
-1.5789517e-08
6.2169402e-07
-1.7181458e-08
6.3139136e-07
-1.7609619e-08
6.410309e-07
-1.5047484e-08
6.3004382e-07
-8.6867725e-09
5.5522972e-07
-2.0204488e-09
3.8181607e-07
1.3415028e-07
1.7400981e-09
1.0707684e-07
8.0302209e-09
3.2775528e-07
1.5807854e-08
5.1926292e-07
2.0123782e-08
6.2588531e-07
2.0405728e-08
6.5250493e-07
1.8957146e-08
6.4368596e-07
1.738155e-08
6.3086157e-07
1.6000503e-08
6.2207231e-07
1.4718591e-08
6.161751e-07
1.3466571e-08
6.1168496e-07
1.2227475e-08
6.0803793e-07
1.0998514e-08
6.0503481e-07
9.7784529e-09
6.0255712e-07
8.5663515e-09
6.0051597e-07
7.3615367e-09
5.9884507e-07
6.1634444e-09
5.9749538e-07
4.9714948e-09
5.9643059e-07
3.7850376e-09
5.9562402e-07
2.603343e-09
5.9505661e-07
1.4256167e-09
5.9471562e-07
2.5103339e-10
5.9459381e-07
-9.2122488e-10
5.9468896e-07
-2.0919236e-09
5.9500386e-07
-3.2617382e-09
5.955464e-07
-4.4312197e-09
5.9633006e-07
-5.600778e-09
5.9737482e-07
-6.770691e-09
5.9870857e-07
-7.9411589e-09
6.0036935e-07
-9.1124066e-09
6.024086e-07
-1.0284787e-08
6.0489576e-07
-1.1459383e-08
6.079243e-07
-1.2643728e-08
6.1163699e-07
-1.3872671e-08
6.1637061e-07
-1.5207487e-08
6.2302884e-07
-1.6496749e-08
6.3268062e-07
-1.6742106e-08
6.4127626e-07
-1.4074493e-08
6.2737621e-07
-7.9763336e-09
5.4913156e-07
-1.8535383e-09
3.7569328e-07
1.3229674e-07
1.6295117e-09
1.0546059e-07
7.4314907e-09
3.2197712e-07
1.4837699e-08
5.118779e-07
1.9212253e-08
6.2152149e-07
1.9720658e-08
6.5199844e-07
1.8413248e-08
6.4499245e-07
1.6892594e-08
6.323816e-07
1.5547136e-08
6.2341765e-07
1.4305472e-08
6.1741677e-07
1.3096874e-08
6.1289357e-07
1.1901188e-08
6.0923362e-07
1.0714599e-08
6.062214e-07
9.5355912e-09
6.0373613e-07
8.363102e-09
6.0168846e-07
7.1964355e-09
6.0001174e-07
6.0351049e-09
5.9865671e-07
4.8786922e-09
5.97587e-07
3.7267747e-09
5.9677593e-07
2.5788991e-09
5.9620448e-07
1.4345813e-09
5.9585994e-07
2.9332499e-10
5.9573506e-07
-8.4535364e-10
5.9582764e-07
-1.9818945e-09
5.9614041e-07
-3.1166706e-09
5.9668118e-07
-4.2499693e-09
5.9746336e-07
-5.381992e-09
5.9850684e-07
-6.5128822e-09
5.9983946e-07
-7.6427997e-09
6.0149927e-07
-8.7720397e-09
6.0353784e-07
-9.9011704e-09
6.0602489e-07
-1.1031902e-08
6.0905504e-07
-1.2173554e-08
6.1277864e-07
-1.3362444e-08
6.175595e-07
-1.4647911e-08
6.2431431e-07
-1.5836594e-08
6.3386931e-07
-1.5915558e-08
6.4135523e-07
-1.3173353e-08
6.2463401e-07
-7.3420242e-09
5.4330023e-07
-1.7108301e-09
3.7006208e-07
1.3058591e-07
1.5278805e-09
1.0394852e-07
6.891359e-09
3.1664171e-07
1.3935392e-08
5.0485885e-07
1.8336717e-08
6.171333e-07
1.9049728e-08
6.5128819e-07
1.7882082e-08
6.4615918e-07
1.6418266e-08
6.3384465e-07
1.5106734e-08
6.24729e-07
1.3902144e-08
6.1862137e-07
1.2733998e-08
6.1406173e-07
1.1579224e-08
6.103884e-07
1.0432928e-08
6.0736769e-07
9.2933037e-09
6.0487575e-07
8.159154e-09
6.0282261e-07
7.0297338e-09
6.0114116e-07
5.9045914e-09
5.9978186e-07
4.7834173e-09
5.9870818e-07
3.6659571e-09
5.9789339e-07
2.5519697e-09
5.9731847e-07
1.4412147e-09
5.9697069e-07
3.3345654e-10
5.9684282e-07
-7.7152263e-10
5.9693262e-07
-1.873905e-09
5.9724279e-07
-2.9738271e-09
5.977811e-07
-4.0713752e-09
5.9856091e-07
-5.1665997e-09
5.9960207e-07
-6.2595592e-09
6.0093242e-07
-7.3504103e-09
6.0259012e-07
-8.4395391e-09
6.0462697e-07
-9.5277402e-09
6.0711309e-07
-1.0617362e-08
6.1014466e-07
-1.1719363e-08
6.1388064e-07
-1.2870578e-08
6.1871072e-07
-1.4106919e-08
6.2555065e-07
-1.519659e-08
6.3495898e-07
-1.5124117e-08
6.4128275e-07
-1.2333443e-08
6.2184333e-07
-6.76977e-09
5.3773656e-07
-1.5851532e-09
3.6487747e-07
1.2900075e-07
1.4335047e-09
1.0253378e-07
6.4006117e-09
3.1170768e-07
1.3092702e-08
4.9819615e-07
1.7493368e-08
6.1274856e-07
1.8390203e-08
6.5039516e-07
1.7360404e-08
6.4718812e-07
1.5955797e-08
6.3524836e-07
1.4677553e-08
6.2600701e-07
1.350771e-08
6.1979121e-07
1.2377664e-08
6.1519179e-07
1.1261766e-08
6.115043e-07