/*--------------------------------*- C++ -*----------------------------------*\
  =========                 |
  \\      /  F ield         | OpenFOAM: The Open Source CFD Toolbox
   \\    /   O peration     | Website:  https://openfoam.org
    \\  /    A nd           | Version:  10
     \\/     M anipulation  |
\*---------------------------------------------------------------------------*/
FoamFile
{
    format      ascii;
    class       volVectorField;
    location    "0.13";
    object      U;
}
// * * * * * * * * * * * * * * * * * * * * * * * * * * * * * * * * * * * * * //

dimensions      [0 1 -1 0 0 0 0];

internalField   nonuniform List<vector> 
4000
(
(0 0.018636345 0.47773212)
(0 0.023507911 0.50886031)
(0 0.008164923 0.50052529)
(0 0.0056126842 0.5003364)
(0 0.0042525615 0.50025748)
(0 0.0032528368 0.50016898)
(0 0.0025540146 0.50011968)
(0 0.0020525864 0.50009011)
(0 0.0016747076 0.50006978)
(0 0.0013805318 0.50005535)
(0 0.0011456823 0.50004495)
(0 0.00095381698 0.50003728)
(0 0.00079367819 0.50003154)
(0 0.0006572869 0.50002721)
(0 0.00053881141 0.50002392)
(0 0.0004338677 0.50002144)
(0 0.000339065 0.50001959)
(0 0.00025169786 0.50001826)
(0 0.00016953017 0.50001737)
(0 9.063637e-05 0.50001686)
(0 1.3279599e-05 0.50001671)
(0 -6.4196048e-05 0.50001691)
(0 -0.00014345669 0.50001747)
(0 -0.00022627061 0.50001843)
(0 -0.00031461945 0.50001984)
(0 -0.00041082849 0.50002179)
(0 -0.00051773859 0.50002441)
(0 -0.00063894548 0.50002788)
(0 -0.00077914771 0.50003247)
(0 -0.00094467649 0.5000386)
(0 -0.001144347 0.50004686)
(0 -0.001390824 0.50005822)
(0 -0.0017028614 0.50007414)
(0 -0.0021108159 0.5000971)
(0 -0.0026706132 0.50013484)
(0 -0.0034644059 0.50020243)
(0 -0.004557018 0.50027156)
(0 -0.006581415 0.50043381)
(0 -0.017655825 0.50675356)
(0 -0.013588278 0.47975666)
(0 0.037429631 0.44797304)
(0 0.05094945 0.5323258)
(0 0.021962968 0.50804303)
(0 0.016129532 0.50357359)
(0 0.012409544 0.50242329)
(0 0.0095093356 0.50162298)
(0 0.0075141156 0.5011565)
(0 0.0060636387 0.50086572)
(0 0.0049587033 0.50066771)
(0 0.0040947649 0.50052864)
(0 0.0034028612 0.5004286)
(0 0.0028360339 0.50035503)
(0 0.0023618989 0.50030009)
(0 0.0019573623 0.50025864)
(0 0.0016054536 0.50022725)
(0 0.0012933672 0.50020355)
(0 0.0010111679 0.50018592)
(0 0.00075090739 0.50017323)
(0 0.00050600084 0.50016471)
(0 0.00027076785 0.50015987)
(0 4.0077226e-05 0.50015844)
(0 -0.00019096187 0.50016035)
(0 -0.00042727048 0.50016571)
(0 -0.00067407046 0.50017485)
(0 -0.00093720451 0.50018829)
(0 -0.0012235146 0.50020689)
(0 -0.001541338 0.50023188)
(0 -0.001901195 0.50026506)
(0 -0.0023167809 0.50030905)
(0 -0.0028064515 0.50036774)
(0 -0.0033955987 0.50044708)
(0 -0.0041206175 0.50055655)
(0 -0.0050346101 0.50071123)
(0 -0.0062174679 0.50093673)
(0 -0.0078180918 0.50129467)
(0 -0.010112365 0.50191105)
(0 -0.013094676 0.5028261)
(0 -0.017414412 0.50608181)
(0 -0.038747778 0.52526756)
(0 -0.027889307 0.45022367)
(0 0.039883679 0.40983075)
(0 0.06141737 0.54930952)
(0 0.031971973 0.52188183)
(0 0.024344633 0.51008138)
(0 0.019182115 0.50658893)
(0 0.014965566 0.50452805)
(0 0.011995357 0.50327106)
(0 0.0097610011 0.50245777)
(0 0.0080262617 0.50190021)
(0 0.0066554701 0.50150761)
(0 0.0055483855 0.50122419)
(0 0.0046354564 0.50101525)
(0 0.0038679276 0.50085894)
(0 0.0032103856 0.50074088)
(0 0.002636479 0.50065137)
(0 0.0021261369 0.50058375)
(0 0.0016636649 0.50053341)
(0 0.001236425 0.50049714)
(0 0.00083389222 0.50047278)
(0 0.00044694872 0.50045893)
(0 6.7334797e-05 0.50045485)
(0 -0.00031283042 0.50046031)
(0 -0.00070147562 0.50047564)
(0 -0.0011070001 0.50050174)
(0 -0.0015387701 0.50054014)
(0 -0.002007702 0.50059322)
(0 -0.0025270168 0.5006645)
(0 -0.003113271 0.50075904)
(0 -0.0037878196 0.50088425)
(0 -0.0045789289 0.50105104)
(0 -0.0055249822 0.50127595)
(0 -0.0066799909 0.50158513)
(0 -0.0081211936 0.50202068)
(0 -0.0099527276 0.50265104)
(0 -0.012347419 0.50361588)
(0 -0.015693349 0.50520065)
(0 -0.01985167 0.50785628)
(0 -0.025165107 0.51641315)
(0 -0.047397824 0.53912968)
(0 -0.030845257 0.41489943)
(0 0.03478591 0.36175004)
(0 0.063823454 0.55456931)
(0 0.03936195 0.53747086)
(0 0.03006679 0.5184936)
(0 0.024095401 0.51197797)
(0 0.019262315 0.50849936)
(0 0.015719237 0.50626353)
(0 0.012937906 0.50475416)
(0 0.010728367 0.50370263)
(0 0.0089538929 0.50295387)
(0 0.0075014267 0.50240841)
(0 0.0062912795 0.50200375)
(0 0.0052656217 0.50169962)
(0 0.0043811715 0.5014691)
(0 0.0036050873 0.50129383)
(0 0.0029119606 0.50116114)
(0 0.00228166 0.50106217)
(0 0.0016977994 0.50099078)
(0 0.0011466124 0.50094278)
(0 0.00061609266 0.50091548)
(0 9.5312893e-05 0.50090741)
(0 -0.00042617496 0.50091816)
(0 -0.00095888062 0.50094836)
(0 -0.001513903 0.50099973)
(0 -0.0021035511 0.50107525)
(0 -0.0027420619 0.50117951)
(0 -0.0034465063 0.50131921)
(0 -0.0042379956 0.50150406)
(0 -0.0051433445 0.50174805)
(0 -0.0061973698 0.50207165)
(0 -0.0074459799 0.50250536)
(0 -0.0089514485 0.50309617)
(0 -0.010801194 0.50391882)
(0 -0.01310185 0.5050897)
(0 -0.015989084 0.50680833)
(0 -0.019865596 0.50947023)
(0 -0.024699808 0.51427851)
(0 -0.031080211 0.52824801)
(0 -0.050291519 0.54408208)
(0 -0.028427338 0.37241847)
(0 0.027417946 0.31487574)
(0 0.062294704 0.55025499)
(0 0.044588289 0.55146722)
(0 0.033958439 0.52748873)
(0 0.027440294 0.51772333)
(0 0.022431375 0.51291959)
(0 0.018613493 0.50973012)
(0 0.01550576 0.50749036)
(0 0.012985193 0.5058968)
(0 0.010922913 0.50474298)
(0 0.0092075088 0.5038915)
(0 0.0077600973 0.50325389)
(0 0.0065206592 0.50277124)
(0 0.0054427367 0.50240335)
(0 0.0044902484 0.50212241)
(0 0.0036346953 0.50190897)
(0 0.0028530998 0.50174934)
(0 0.0021264884 0.50163396)
(0 0.0014387327 0.50155625)
(0 0.00077563715 0.50151201)
(0 0.0001242016 0.50149889)
(0 -0.00052804049 0.50151627)
(0 -0.0011936262 0.50156513)
(0 -0.0018857401 0.50164817)
(0 -0.0026188999 0.50177006)
(0 -0.0034097263 0.50193797)
(0 -0.0042778887 0.50216231)
(0 -0.0052473165 0.50245795)
(0 -0.0063478068 0.50284616)
(0 -0.0076171838 0.5033576)
(0 -0.0091037636 0.50403692)
(0 -0.010870036 0.50495065)
(0 -0.013002892 0.50620165)
(0 -0.015606227 0.50794483)
(0 -0.018767924 0.51040664)
(0 -0.022849589 0.5140591)
(0 -0.028132756 0.52114986)
(0 -0.035659925 0.53932805)
(0 -0.050439087 0.54157964)
(0 -0.024073214 0.33062031)
(0 0.019831267 0.27524497)
(0 0.057965286 0.5397737)
(0 0.047328876 0.56256572)
(0 0.036445575 0.53660403)
(0 0.029604766 0.52350795)
(0 0.024644919 0.5174028)
(0 0.020743721 0.51336087)
(0 0.017480519 0.51044094)
(0 0.014786779 0.50831931)
(0 0.012541502 0.50675573)
(0 0.01064313 0.50558561)
(0 0.0090196314 0.50469985)
(0 0.007613349 0.5040235)
(0 0.0063783809 0.50350435)
(0 0.0052782269 0.50310569)
(0 0.0042833766 0.50280147)
(0 0.0033695593 0.50257315)
(0 0.0025163964 0.50240766)
(0 0.001706321 0.50229599)
(0 0.00092370245 0.50223229)
(0 0.00015411922 0.50221336)
(0 -0.00061630617 0.50223829)
(0 -0.0014015259 0.50230845)
(0 -0.0022161419 0.50242756)
(0 -0.0030760989 0.50260209)
(0 -0.0039994346 0.50284181)
(0 -0.005007177 0.50316089)
(0 -0.0061244468 0.50357931)
(0 -0.0073818507 0.50412527)
(0 -0.0088173764 0.50483872)
(0 -0.010478354 0.50577668)
(0 -0.012423142 0.50702144)
(0 -0.014732011 0.5086962)
(0 -0.017506865 0.51098265)
(0 -0.020801764 0.5141233)
(0 -0.024912958 0.51873593)
(0 -0.030448974 0.52823408)
(0 -0.038566539 0.54872787)
(0 -0.048461575 0.53403083)
(0 -0.019052439 0.29403084)
(0 0.01307634 0.24261892)
(0 0.0517697 0.52524559)
(0 0.047664923 0.57025313)
(0 0.037714907 0.54552264)
(0 0.030810135 0.52928885)
(0 0.026033775 0.52180068)
(0 0.022199152 0.51699464)
(0 0.018916525 0.51346811)
(0 0.016158637 0.51085774)
(0 0.013817588 0.50890353)
(0 0.01180685 0.50742218)
(0 0.010063791 0.50628867)
(0 0.0085357399 0.50541523)
(0 0.0071798997 0.50473975)
(0 0.0059614215 0.50421783)
(0 0.004851438 0.50381756)
(0 0.0038257111 0.50351596)
(0 0.002863519 0.50329668)
(0 0.0019467228 0.50314834)
(0 0.0010589871 0.50306356)
(0 0.00018511522 0.50303826)
(0 -0.00068957286 0.50307129)
(0 -0.0015798325 0.50316438)
(0 -0.0025010253 0.50332226)
(0 -0.0034697755 0.50355307)
(0 -0.0045046487 0.5038691)
(0 -0.0056269464 0.50428796)
(0 -0.0068616484 0.50483429)
(0 -0.0082385286 0.50554237)
(0 -0.0097937279 0.50645998)
(0 -0.011571517 0.5076543)
(0 -0.01362422 0.5092202)
(0 -0.016021402 0.51129568)
(0 -0.018858502 0.51408019)
(0 -0.022167033 0.51784272)
(0 -0.026187501 0.52347444)
(0 -0.031770885 0.535378)
(0 -0.039678023 0.55590583)
(0 -0.044837185 0.52290056)
(0 -0.014075004 0.26277215)
(0 0.0077630518 0.21562396)
(0 0.044792364 0.50807842)
(0 0.046200634 0.57439239)
(0 0.03798133 0.5537469)
(0 0.031237119 0.53495937)
(0 0.026718716 0.52602852)
(0 0.023068282 0.5205337)
(0 0.019874464 0.51648068)
(0 0.017138624 0.51343154)
(0 0.014773422 0.51111821)
(0 0.012710392 0.50934496)
(0 0.010897428 0.50797451)
(0 0.0092885703 0.50690925)
(0 0.0078457948 0.50607927)
(0 0.0065372999 0.50543398)
(0 0.0053360709 0.50493651)
(0 0.004218939 0.50456011)
(0 0.0031657143 0.50428551)
(0 0.0021584347 0.50409928)
(0 0.001180715 0.50399261)
(0 0.00021717818 0.50396063)
(0 -0.00074709203 0.50400196)
(0 -0.0017270854 0.50411867)
(0 -0.0027383224 0.50431639)
(0 -0.0037974427 0.5046048)
(0 -0.004922781 0.50499841)
(0 -0.0061350294 0.50551783)
(0 -0.0074580029 0.50619169)
(0 -0.0089194646 0.50705932)
(0 -0.010552292 0.5081749)
(0 -0.012396151 0.50961369)
(0 -0.014496267 0.51148076)
(0 -0.016908899 0.51392503)
(0 -0.019715882 0.51715539)
(0 -0.022933378 0.52148491)
(0 -0.026783084 0.52818918)
(0 -0.032252722 0.54222088)
(0 -0.039302585 0.56052112)
(0 -0.040261831 0.50920169)
(0 -0.0096914035 0.2360237)
(0 0.003997596 0.19365999)
(0 0.037861655 0.48958501)
(0 0.043621056 0.5752627)
(0 0.037496346 0.56083877)
(0 0.031091149 0.54035767)
(0 0.026853182 0.53000835)
(0 0.023454728 0.52389526)
(0 0.020423524 0.51940236)
(0 0.017773498 0.51597427)
(0 0.015440529 0.51334236)
(0 0.013374247 0.51130477)
(0 0.011533238 0.50971565)
(0 0.0098792744 0.50847036)
(0 0.0083800552 0.50749323)
(0 0.0070076845 0.50672889)
(0 0.0057378237 0.50613664)
(0 0.0045491225 0.50568661)
(0 0.0034225939 0.50535718)
(0 0.0023410545 0.50513316)
(0 0.0012886187 0.50500455)
(0 0.00025024029 0.50496579)
(0 -0.00078873847 0.50501531)
(0 -0.0018430458 0.50515546)
(0 -0.0029278454 0.50539266)
(0 -0.0040592385 0.50573787)
(0 -0.0052547206 0.50620747)
(0 -0.0065336963 0.50682459)
(0 -0.0079180638 0.50762104)
(0 -0.0094327704 0.50864018)
(0 -0.011106509 0.50994112)
(0 -0.012973241 0.51160518)
(0 -0.015070592 0.51374507)
(0 -0.017441268 0.51651657)
(0 -0.020149622 0.52013097)
(0 -0.023203731 0.52496803)
(0 -0.026843994 0.53274506)
(0 -0.032081184 0.54838863)
(0 -0.037873418 0.56257883)
(0 -0.035338744 0.49396184)
(0 -0.0061827925 0.2134623)
(0 0.0015433979 0.17625972)
(0 0.031457072 0.4708956)
(0 0.0404543 0.57342446)
(0 0.036475742 0.56659087)
(0 0.030559654 0.54537151)
(0 0.02659731 0.53369952)
(0 0.023470912 0.52702332)
(0 0.020641427 0.52217478)
(0 0.018118265 0.51843337)
(0 0.01585776 0.51552933)
(0 0.013825434 0.51326043)
(0 0.011989776 0.51147606)
(0 0.010320413 0.51006719)
(0 0.008791012 0.50895432)
(0 0.0073779653 0.50807874)
(0 0.0060600804 0.5073969)
(0 0.0048183047 0.50687666)
(0 0.0036353195 0.50649455)
(0 0.0024951675 0.506234)
(0 0.0013828899 0.50608405)
(0 0.0002841829 0.50603859)
(0 -0.00081494903 0.5060959)
(0 -0.0019285671 0.50625855)
(0 -0.0030710643 0.50653361)
(0 -0.0042575722 0.50693306)
(0 -0.0055042949 0.50747477)
(0 -0.0068288762 0.50818378)
(0 -0.0082508054 0.50909433)
(0 -0.0097917571 0.51025274)
(0 -0.011475847 0.5117216)
(0 -0.013330907 0.51358628)
(0 -0.015387128 0.51596426)
(0 -0.017675218 0.5190142)
(0 -0.020242366 0.52294733)
(0 -0.023095949 0.52823931)
(0 -0.026513869 0.53704226)
(0 -0.031417466 0.55365473)
(0 -0.035761487 0.56236711)
(0 -0.030467303 0.47812301)
(0 -0.0035720589 0.19486805)
(0 6.867902e-05 0.16267587)
(0 0.025822692 0.45277728)
(0 0.037068471 0.56949409)
(0 0.035090343 0.57098131)
(0 0.029782555 0.54995133)
(0 0.026083857 0.53710581)
(0 0.023218982 0.52990035)
(0 0.020604481 0.52476639)
(0 0.018230129 0.52077505)
(0 0.016067321 0.51764608)
(0 0.014094693 0.51518087)
(0 0.012289304 0.51322724)
(0 0.010627989 0.51167396)
(0 0.0090900492 0.51043935)
(0 0.0076561406 0.50946263)
(0 0.0063083685 0.50869843)
(0 0.0050302072 0.50811301)
(0 0.0038062801 0.50768162)
(0 0.0026221512 0.50738666)
(0 0.0014640915 0.50721648)
(0 0.00031884425 0.50716455)
(0 -0.00082661825 0.50722903)
(0 -0.0019853836 0.50741267)
(0 -0.0031707676 0.507723)
(0 -0.004396627 0.50817281)
(0 -0.0056775768 0.508781)
(0 -0.0070292224 0.509574)
(0 -0.0084684052 0.51058772)
(0 -0.010013386 0.51187043)
(0 -0.011683773 0.51348686)
(0 -0.013501479 0.5155247)
(0 -0.015489859 0.51810374)
(0 -0.017669653 0.52138231)
(0 -0.020073523 0.52557501)
(0 -0.022715002 0.53128423)
(0 -0.02590849 0.54102807)
(0 -0.030392043 0.55792918)
(0 -0.03325997 0.56028254)
(0 -0.025899033 0.46237488)
(0 -0.0017448802 0.17978126)
(0 -0.00072630055 0.15208533)
(0 0.021054518 0.43566241)
(0 0.033713754 0.56402142)
(0 0.033483041 0.5740836)
(0 0.028860265 0.55407648)
(0 0.025412083 0.54025122)
(0 0.022782328 0.53253668)
(0 0.020379426 0.52716911)
(0 0.0181619 0.52298311)
(0 0.016110114 0.51967293)
(0 0.014213247 0.51704516)
(0 0.012455438 0.51494839)
(0 0.010819696 0.51327072)
(0 0.0092902889 0.51192954)
(0 0.0078518338 0.51086306)
(0 0.0064896319 0.51002491)
(0 0.005189708 0.50938039)
(0 0.003938735 0.50890395)
(0 0.0027239554 0.50857732)
(0 0.0015330561 0.50838838)
(0 0.00035402836 0.5083303)
(0 -0.00082497957 0.50840117)
(0 -0.0020158723 0.50860387)
(0 -0.0032306875 0.50894624)
(0 -0.0044818205 0.50944159)
(0 -0.0057821397 0.51010954)
(0 -0.0071451075 0.51097737)
(0 -0.0085848892 0.51208199)
(0 -0.010116433 0.51347274)
(0 -0.011755193 0.51521547)
(0 -0.013517756 0.51739887)
(0 -0.015421435 0.52014313)
(0 -0.017478833 0.52360436)
(0 -0.019711725 0.52800823)
(0 -0.022145927 0.53410855)
(0 -0.025118464 0.54467144)
(0 -0.029119907 0.56120359)
(0 -0.03060021 0.55672167)
(0 -0.02178722 0.44715649)
(0 -0.00054297974 0.16761504)
(0 -0.0010785815 0.14379111)
(0 0.017143284 0.41976574)
(0 0.030545579 0.5574667)
(0 0.031771564 0.57601965)
(0 0.027866593 0.5577394)
(0 0.024655214 0.54316133)
(0 0.022227136 0.53495481)
(0 0.020021671 0.52938866)
(0 0.017959141 0.52505338)
(0 0.016022973 0.52160028)
(0 0.014210427 0.51884063)
(0 0.012511231 0.51662529)
(0 0.010913421 0.51484271)
(0 0.0094054491 0.5134102)
(0 0.0079754246 0.51226571)
(0 0.0066115803 0.51136253)
(0 0.0053023674 0.51066554)
(0 0.0040364855 0.51014874)
(0 0.0028028981 0.50979354)
(0 0.0015907918 0.50958751)
(0 0.00038951408 0.50952367)
(0 -0.00081149221 0.50960005)
(0 -0.0020228293 0.50981961)
(0 -0.0032551497 0.51019038)
(0 -0.0045193044 0.51072596)
(0 -0.0058263753 0.51144636)
(0 -0.0071877091 0.51237931)
(0 -0.00861492 0.51356214)
(0 -0.010119899 0.5150446)
(0 -0.011714441 0.51689288)
(0 -0.013410574 0.51919575)
(0 -0.015220477 0.52207246)
(0 -0.017150307 0.52567619)
(0 -0.019214965 0.53025367)
(0 -0.021457296 0.53672356)
(0 -0.024216677 0.54795231)
(0 -0.027702537 0.56352285)
(0 -0.027952522 0.55204754)
(0 -0.018205767 0.43273339)
(0 0.00019195863 0.15782376)
(0 -0.0011616979 0.13724215)
(0 0.014011427 0.40516831)
(0 0.027643819 0.55020523)
(0 0.030043748 0.57693774)
(0 0.026853676 0.56094672)
(0 0.023865904 0.54585984)
(0 0.021604991 0.53718147)
(0 0.019576157 0.53143801)
(0 0.017659961 0.52698896)
(0 0.015837796 0.52342539)
(0 0.014112519 0.52056071)
(0 0.012478015 0.51824894)
(0 0.010926229 0.51637949)
(0 0.0094489893 0.51487014)
(0 0.0080373627 0.51365914)
(0 0.0066821559 0.51269984)
(0 0.0053740289 0.51195709)
(0 0.0041035931 0.51140482)
(0 0.0028614877 0.51102427)
(0 0.0016384002 0.51080294)
(0 0.00042506405 0.51073375)
(0 -0.00078774106 0.51081471)
(0 -0.0020092722 0.51104881)
(0 -0.0032487693 0.51144416)
(0 -0.0045155407 0.51201448)
(0 -0.0058189297 0.5127799)
(0 -0.0071682897 0.51376824)
(0 -0.0085729074 0.51501688)
(0 -0.010041967 0.51657546)
(0 -0.01158416 0.51850995)
(0 -0.013207787 0.52090855)
(0 -0.014920886 0.52388871)
(0 -0.016724828 0.52760122)
(0 -0.018631487 0.53232467)
(0 -0.020703267 0.53914298)
(0 -0.023259985 0.5508643)
(0 -0.026222138 0.56497058)
(0 -0.025427872 0.54657931)
(0 -0.015166097 0.41925456)
(0 0.0005979494 0.14994514)
(0 -0.0010939757 0.13199913)
(0 0.011548266 0.39186221)
(0 0.025036141 0.54253178)
(0 0.028358183 0.576993)
(0 0.025854624 0.56371833)
(0 0.023079167 0.54836936)
(0 0.0209541 0.53924482)
(0 0.019078061 0.53333434)
(0 0.017295344 0.52879761)
(0 0.015581421 0.52515017)
(0 0.013942325 0.52220326)
(0 0.012374816 0.51981433)
(0 0.010873743 0.51787415)
(0 0.0094335374 0.51630126)
(0 0.0080476694 0.51503448)
(0 0.0067091238 0.51402757)
(0 0.0054105005 0.51324561)
(0 0.0041441484 0.51266265)
(0 0.0029022747 0.51225999)
(0 0.0016770072 0.51202512)
(0 0.00046043301 0.511951)
(0 -0.00075535051 0.5120356)
(0 -0.0019782743 0.51228192)
(0 -0.0032162009 0.51269805)
(0 -0.0044769607 0.51329769)
(0 -0.0057682719 0.51410089)
(0 -0.0070976769 0.51513534)
(0 -0.0084724175 0.51643812)
(0 -0.0098993735 0.51805847)
(0 -0.011384704 0.52006175)
(0 -0.012933801 0.52253522)
(0 -0.014551552 0.52559401)
(0 -0.016236136 0.52938828)
(0 -0.017999646 0.53423896)
(0 -0.019924059 0.54138301)
(0 -0.022289583 0.55341526)
(0 -0.024739477 0.56565236)
(0 -0.023088651 0.54058423)
(0 -0.012638418 0.40678295)
(0 0.00078402482 0.14358549)
(0 -0.0009518623 0.12771685)
(0 0.0096350276 0.37978226)
(0 0.022718919 0.53466793)
(0 0.026749832 0.57633148)
(0 0.024887875 0.56608173)
(0 0.022315872 0.55071032)
(0 0.020300794 0.54117222)
(0 0.018553548 0.53509703)
(0 0.016889526 0.53049013)
(0 0.015275682 0.52677971)
(0 0.013719004 0.52376933)
(0 0.012218076 0.52131955)
(0 0.010769806 0.51932264)
(0 0.0093705318 0.517698)
(0 0.0080156009 0.51638518)
(0 0.0066997789 0.5153385)
(0 0.0054173166 0.51452344)
(0 0.0041620926 0.51391431)
(0 0.0029277353 0.51349261)
(0 0.0017077084 0.51324593)
(0 0.00049537522 0.51316725)
(0 -0.00071591469 0.51325458)
(0 -0.0019328319 0.51351087)
(0 -0.0031619426 0.51394415)
(0 -0.0044097091 0.51456797)
(0 -0.0056823791 0.51540218)
(0 -0.0069859032 0.51647413)
(0 -0.0083257855 0.51782047)
(0 -0.0097070151 0.5194898)
(0 -0.011133771 0.52154669)
(0 -0.012609275 0.52407725)
(0 -0.014136164 0.52719422)
(0 -0.015710883 0.5310499)
(0 -0.017348192 0.53601649)
(0 -0.01914742 0.54346077)
(0 -0.021333146 0.55562284)
(0 -0.02329625 0.5656794)
(0 -0.020962634 0.53427529)
(0 -0.010570092 0.39531932)
(0 0.00083047035 0.13841209)
(0 -0.00078285704 0.12413465)
(0 0.0081590788 0.3688325)
(0 0.020671724 0.52677439)
(0 0.025236353 0.57508204)
(0 0.023961908 0.56806686)
(0 0.021586792 0.55289944)
(0 0.019661873 0.54298797)
(0 0.018021081 0.53674554)
(0 0.016460693 0.53207876)
(0 0.014937708 0.52832107)
(0 0.013458136 0.52526216)
(0 0.012021577 0.52276493)
(0 0.010626319 0.52072307)
(0 0.0092700226 0.51905686)
(0 0.0079494424 0.51770657)
(0 0.0066607544 0.51662712)
(0 0.0053995743 0.5157845)
(0 0.0041610917 0.51515336)
(0 0.0029401875 0.51471546)
(0 0.0017315302 0.51445854)
(0 0.0005296514 0.51437568)
(0 -0.00067094447 0.51446488)
(0 -0.0018757656 0.51472905)
(0 -0.0030901943 0.5151761)
(0 -0.0043194622 0.51581937)
(0 -0.0055685245 0.51667841)
(0 -0.006841972 0.51778016)
(0 -0.0081438782 0.51916071)
(0 -0.0094777361 0.52086797)
(0 -0.010846241 0.52296565)
(0 -0.012251074 0.52553863)
(0 -0.013693387 0.5286976)
(0 -0.015169176 0.53260037)
(0 -0.016697506 0.53767698)
(0 -0.018391154 0.54539228)
(0 -0.020407843 0.55750975)
(0 -0.021918691 0.5651578)
(0 -0.019054648 0.52781606)
(0 -0.0088982686 0.38482458)
(0 0.00079379354 0.13415322)
(0 -0.00061495491 0.12106266)
(0 0.0070212643 0.35890516)
(0 0.01886638 0.5189647)
(0 0.023823372 0.57335484)
(0 0.023078849 0.5697035)
(0 0.020895992 0.5549494)
(0 0.01904705 0.54471212)
(0 0.017493042 0.53829787)
(0 0.016021992 0.53357582)
(0 0.014580502 0.52978208)
(0 0.013172019 0.52668623)
(0 0.011796548 0.52415225)
(0 0.010453239 0.52207516)
(0 0.0091406033 0.52037593)
(0 0.0078564093 0.51899551)
(0 0.0065979153 0.51788941)
(0 0.0053618358 0.51702412)
(0 0.0041444565 0.51637469)
(0 0.0029417365 0.51592314)
(0 0.0017494044 0.51565742)
(0 0.00056303476 0.51557069)
(0 -0.00062182991 0.51566097)
(0 -0.0018096534 0.51593111)
(0 -0.0030047638 0.51638887)
(0 -0.0042113136 0.51704736)
(0 -0.0054331507 0.51792578)
(0 -0.0066737351 0.5190506)
(0 -0.0079359966 0.52045734)
(0 -0.0092222864 0.52219321)
(0 -0.010534241 0.52432112)
(0 -0.011872519 0.52692478)
(0 -0.013237404 0.53011341)
(0 -0.014625539 0.53405406)
(0 -0.0160612 0.53923833)
(0 -0.017665601 0.54719148)
(0 -0.019522996 0.55910079)
(0 -0.020620932 0.56418362)
(0 -0.01735519 0.52132896)
(0 -0.0075581883 0.37523741)
(0 0.00071242701 0.13059424)
(0 -0.00046308201 0.11836603)
(0 0.0061390398 0.34989191)
(0 0.017272603 0.51131684)
(0 0.022508751 0.57124245)
(0 0.022236989 0.57102015)
(0 0.020243236 0.5568694)
(0 0.01846097 0.54636033)
(0 0.016977199 0.5397698)
(0 0.015582562 0.53499288)
(0 0.014213638 0.53117059)
(0 0.0128701 0.52804653)
(0 0.011551911 0.52548419)
(0 0.010258694 0.52337966)
(0 0.0089894458 0.52165447)
(0 0.0077426347 0.52025007)
(0 0.0065163215 0.51912254)
(0 0.0053080834 0.51823881)
(0 0.0041151024 0.51757432)
(0 0.002934246 0.51711137)
(0 0.0017621555 0.51683809)
(0 0.00059531648 0.51674777)
(0 -0.00056981676 0.51683843)
(0 -0.0017367905 0.51711285)
(0 -0.0029090151 0.51757864)
(0 -0.0040897179 0.51824864)
(0 -0.0052818202 0.51914171)
(0 -0.0064878648 0.52028387)
(0 -0.0077098942 0.52171007)
(0 -0.0089494224 0.52346689)
(0 -0.010207379 0.52561655)
(0 -0.011483801 0.52824174)
(0 -0.012778598 0.53145107)
(0 -0.01408994 0.53542447)
(0 -0.015447586 0.54071592)
(0 -0.016975639 0.54887003)
(0 -0.018682209 0.56042104)
(0 -0.019408096 0.56284099)
(0 -0.015846735 0.51490339)
(0 -0.006488615 0.36648601)
(0 0.0006115728 0.1275693)
(0 -0.00033370267 0.11595086)
(0 0.0054467052 0.34169018)
(0 0.015861303 0.50388252)
(0 0.021285951 0.56882198)
(0 0.02143258 0.57204346)
(0 0.019625695 0.55866589)
(0 0.017904779 0.54794435)
(0 0.016477923 0.54117464)
(0 0.01514844 0.53634036)
(0 0.013843919 0.53249404)
(0 0.012559441 0.52934815)
(0 0.011294589 0.52676386)
(0 0.010049167 0.52463803)
(0 0.0088224047 0.52289254)
(0 0.0076132182 0.52146925)
(0 0.0064202432 0.52032464)
(0 0.005241717 0.51942605)
(0 0.0040755397 0.51874925)
(0 0.0029193289 0.51827683)
(0 0.0017704967 0.51799709)
(0 0.00062630933 0.5179034)
(0 -0.000515995 0.51799382)
(0 -0.0016591727 0.51827105)
(0 -0.0028058507 0.51874254)
(0 -0.0039584798 0.51942089)
(0 -0.0051192227 0.52032461)
(0 -0.0062898968 0.52147932)
(0 -0.0074718776 0.52291946)
(0 -0.0086660935 0.52469109)
(0 -0.0098730434 0.52685586)
(0 -0.011092456 0.52949568)
(0 -0.01232423 0.53271954)
(0 -0.013568719 0.5367237)
(0 -0.014860938 0.54212239)
(0 -0.016322284 0.55043742)
(0 -0.017885168 0.56149471)
(0 -0.018279129 0.5612019)
(0 -0.014508216 0.50860285)
(0 -0.0056349566 0.3584956)
(0 0.00050701287 0.12495241)
(0 -0.0002281387 0.11375309)
(0 0.0048938097 0.33420638)
(0 0.014606242 0.49669439)
(0 0.020146456 0.56615738)
(0 0.020661095 0.57279803)
(0 0.019039187 0.56034315)
(0 0.017377354 0.54947243)
(0 0.015997159 0.54252326)
(0 0.014723319 0.53762734)
(0 0.013475975 0.53375916)
(0 0.01224516 0.53059592)
(0 0.011029813 0.52799449)
(0 0.0098297194 0.52585208)
(0 0.0086441593 0.52409079)
(0 0.0074723137 0.52265269)
(0 0.0063132107 0.52149457)
(0 0.0051655802 0.52058409)
(0 0.0040278855 0.51989731)
(0 0.0028983526 0.51941703)
(0 0.0017750329 0.51913174)
(0 0.00065584912 0.51903489)
(0 -0.00046129803 0.51912454)
(0 -0.0015784976 0.51940333)
(0 -0.0026977206 0.51987855)
(0 -0.0038207782 0.52056259)
(0 -0.0049492251 0.52147365)
(0 -0.0060843187 0.52263698)
(0 -0.0072269511 0.52408664)
(0 -0.0083776651 0.52586825)
(0 -0.0095367376 0.52804306)
(0 -0.010703817 0.53069246)
(0 -0.011879061 0.53392699)
(0 -0.013065436 0.53796217)
(0 -0.014302603 0.54346772)
(0 -0.015703996 0.55190112)
(0 -0.017129124 0.56234437)
(0 -0.017229178 0.55932697)
(0 -0.013317915 0.50247106)
(0 -0.004950564 0.35119307)
(0 0.00040799233 0.12264944)
(0 -0.00014484232 0.11172967)
(0 0.0044427237 0.32735739)
(0 0.013484596 0.48977166)
(0 0.019081317 0.56330181)
(0 0.01991801 0.57330643)
(0 0.018479033 0.56190395)
(0 0.016876239 0.55095)
(0 0.015535199 0.54382429)
(0 0.014309176 0.53886155)
(0 0.013112775 0.53497191)
(0 0.011930829 0.53179428)
(0 0.010761431 0.52917921)
(0 0.0096042056 0.5270238)
(0 0.0084583698 0.52525019)
(0 0.0073232366 0.52380053)
(0 0.0061980864 0.52263178)
(0 0.0050820058 0.52171183)
(0 0.0039738917 0.52101697)
(0 0.0028724546 0.52053019)
(0 0.0017762674 0.52024011)
(0 0.00068379611 0.52014026)
(0 -0.00040650805 0.52022869)
(0 -0.0014961798 0.52050798)
(0 -0.0025866503 0.52098531)
(0 -0.0036792135 0.52167284)
(0 -0.0047749462 0.52258855)
(0 -0.0058746845 0.52375736)
(0 -0.0069789844 0.52521303)
(0 -0.0080881564 0.52700092)
(0 -0.009202404 0.52918201)
(0 -0.010321458 0.53183748)
(0 -0.011445924 0.53508061)
(0 -0.012581606 0.53914852)
(0 -0.01377192 0.54475935)
(0 -0.015117695 0.55326679)
(0 -0.016410001 0.56299059)
(0 -0.016251341 0.55726679)
(0 -0.012255181 0.49653705)
(0 -0.0043969072 0.34450986)
(0 0.00031937576 0.12059129)
(0 -8.0878257e-05 0.10985193)
(0 0.0040660523 0.32107069)
(0 0.012476947 0.48312426)
(0 0.018082029 0.56029973)
(0 0.019199213 0.57358945)
(0 0.017940585 0.56335003)
(0 0.016398303 0.55238016)
(0 0.015091278 0.54508429)
(0 0.013906785 0.54004937)
(0 0.012756047 0.53613739)
(0 0.011618821 0.5329472)
(0 0.01049218 0.53032095)
(0 0.0093754868 0.52815518)
(0 0.0082678359 0.52637191)
(0 0.0071685793 0.52491321)
(0 0.0060771453 0.52373611)
(0 0.0049928715 0.52280864)
(0 0.0039149806 0.52210725)
(0 0.0028425637 0.52161508)
(0 0.0017746118 0.52132083)
(0 0.00071003413 0.5212181)
(0 -0.00035226764 0.52130494)
(0 -0.0014133747 0.52158388)
(0 -0.002474281 0.52206197)
(0 -0.003535869 0.52275123)
(0 -0.0045988468 0.52366941)
(0 -0.0056637417 0.52484123)
(0 -0.0067308883 0.52630022)
(0 -0.0078004764 0.52809161)
(0 -0.0088727358 0.53027627)
(0 -0.0099475871 0.53293548)
(0 -0.011026218 0.53618651)
(0 -0.01211731 0.54028965)
(0 -0.013266957 0.54600256)
(0 -0.014559502 0.55453859)
(0 -0.015723175 0.56345192)
(0 -0.015337885 0.5550635)
(0 -0.011301332 0.49081917)
(0 -0.0039430563 0.33838352)
(0 0.00024317784 0.11872802)
(0 -3.2851442e-05 0.10810062)
(0 0.003744244 0.31528382)
(0 0.011566967 0.47675587)
(0 0.017140953 0.55718866)
(0 0.018501164 0.5736664)
(0 0.017419526 0.56468264)
(0 0.015940177 0.55376426)
(0 0.014663988 0.54630806)
(0 0.013516097 0.54119601)
(0 0.012406634 0.53725992)
(0 0.011310605 0.53405808)
(0 0.010223924 0.53142235)
(0 0.0091456229 0.52924813)
(0 0.0080746466 0.52745718)
(0 0.0070103253 0.52599138)
(0 0.0059521609 0.52480771)
(0 0.00489966 0.52387427)
(0 0.0038522865 0.52316759)
(0 0.0028094247 0.5226709)
(0 0.001770397 0.522373)
(0 0.00073446853 0.52226749)
(0 -0.00029909474 0.52235244)
(0 -0.0013310084 0.52263033)
(0 -0.0023619167 0.5231081)
(0 -0.0033923794 0.52379767)
(0 -0.0044228253 0.52471662)
(0 -0.0054535614 0.52588953)
(0 -0.0064847856 0.52734981)
(0 -0.0075166453 0.52914265)
(0 -0.0085494563 0.53132897)
(0 -0.0095833978 0.53399053)
(0 -0.010620324 0.5372497)
(0 -0.011671686 0.54139086)
(0 -0.012785063 0.54720072)
(0 -0.014025262 0.55571951)
(0 -0.015063991 0.56374509)
(0 -0.014481053 0.55275218)
(0 -0.010440003 0.4853282)
(0 -0.0035647707 0.33275833)
(0 0.00017963353 0.11702398)
(0 2.5481938e-06 0.10646249)
(0 0.0034635509 0.3099434)
(0 0.010741004 0.47066608)
(0 0.016251448 0.55400052)
(0 0.017820921 0.57355539)
(0 0.016912009 0.56590285)
(0 0.015498519 0.55510241)
(0 0.014251571 0.54749895)
(0 0.013136529 0.54230557)
(0 0.012064751 0.53834305)
(0 0.011006982 0.53512986)
(0 0.0099578595 0.53248575)
(0 0.0089160426 0.53030442)
(0 0.0078803177 0.52850723)
(0 0.0068499575 0.5270358)
(0 0.0058244865 0.52584694)
(0 0.0048035205 0.52490872)
(0 0.0037866972 0.52419773)
(0 0.0027736246 0.52369724)
(0 0.0017638841 0.52339607)
(0 0.00075702388 0.52328787)
(0 -0.0002473992 0.5233707)
(0 -0.0012498088 0.52364696)
(0 -0.0022505729 0.52412357)
(0 -0.003250001 0.52481233)
(0 -0.0042483129 0.52573073)
(0 -0.0052456624 0.52690325)
(0 -0.006242171 0.52836331)
(0 -0.0072379938 0.53015613)
(0 -0.0082335624 0.53234284)
(0 -0.0092293515 0.535006)
(0 -0.010227934 0.53827421)
(0 -0.011243298 0.54245601)
(0 -0.012323265 0.54835572)
(0 -0.013510891 0.55681172)
(0 -0.014428096 0.56388519)
(0 -0.013673564 0.55036222)
(0 -0.0096571701 0.48006957)
(0 -0.0032434288 0.32758528)
(0 0.00012794339 0.115454)
(0 2.8265502e-05 0.104928)
(0 0.0032143895 0.305004)
(0 0.0099876413 0.46485181)
(0 0.015407837 0.55076274)
(0 0.017156077 0.57327346)
(0 0.016414703 0.5670118)
(0 0.015070172 0.55639378)
(0 0.013852116 0.54865911)
(0 0.012767172 0.54338128)
(0 0.011730194 0.53938971)
(0 0.010708274 0.53616496)
(0 0.0096946874 0.53351313)
(0 0.0086876884 0.53132562)
(0 0.0076859124 0.52952326)
(0 0.0066885557 0.52804727)
(0 0.0056951328 0.52685426)
(0 0.0047053256 0.52591221)
(0 0.0037188953 0.52519767)
(0 0.0027356181 0.52469393)
(0 0.0017552761 0.52438982)
(0 0.0007776411 0.52427899)
(0 -0.00019749966 0.52435949)
(0 -0.0011703384 0.5246337)
(0 -0.0021410263 0.52510847)
(0 -0.0031096797 0.52579554)
(0 -0.0040763636 0.52671237)
(0 -0.0050411265 0.52788341)
(0 -0.0060040532 0.52934211)
(0 -0.0069653352 0.53113389)
(0 -0.0079255275 0.53332015)
(0 -0.0088854141 0.53598464)
(0 -0.0098483094 0.53926317)
(0 -0.010830419 0.54348777)
(0 -0.011878553 0.54946824)
(0 -0.013012604 0.5578168)
(0 -0.01381162 0.56388593)
(0 -0.012908881 0.54791838)
(0 -0.0089409905 0.4750451)
(0 -0.0029649618 0.32282177)
(0 8.6780769e-05 0.11400033)
(0 4.677047e-05 0.10348981)
(0 0.0029900841 0.30042706)
(0 0.0092972912 0.45930841)
(0 0.014605285 0.54749901)
(0 0.016504673 0.57283677)
(0 0.015924776 0.56801091)
(0 0.014652245 0.557637)
(0 0.013463684 0.5497897)
(0 0.012406936 0.54442552)
(0 0.011402488 0.54040222)
(0 0.010414471 0.53716538)