/*--------------------------------*- C++ -*----------------------------------*\
  =========                 |
  \\      /  F ield         | OpenFOAM: The Open Source CFD Toolbox
   \\    /   O peration     | Website:  https://openfoam.org
    \\  /    A nd           | Version:  10
     \\/     M anipulation  |
\*---------------------------------------------------------------------------*/
FoamFile
{
    format      ascii;
    class       volVectorField;
    location    "0.13";
    object      U_0;
}
// * * * * * * * * * * * * * * * * * * * * * * * * * * * * * * * * * * * * * //

dimensions      [0 1 -1 0 0 0 0];

internalField   nonuniform List<vector> 
4000
(
(0 0.018636291 0.47773215)
(0 0.023507811 0.50886029)
(0 0.0081648305 0.5005253)
(0 0.0056125914 0.5003364)
(0 0.0042524616 0.50025748)
(0 0.0032527342 0.50016898)
(0 0.0025539125 0.50011968)
(0 0.0020524868 0.50009011)
(0 0.0016746123 0.50006978)
(0 0.0013804424 0.50005535)
(0 0.0011456003 0.50004495)
(0 0.00095374372 0.50003728)
(0 0.00079361478 0.50003154)
(0 0.0006572344 0.5000272)
(0 0.0005387707 0.50002392)
(0 0.00043383958 0.50002144)
(0 0.00033905011 0.50001959)
(0 0.00025169675 0.50001826)
(0 0.00016954322 0.50001736)
(0 9.0663849e-05 0.50001685)
(0 1.3321699e-05 0.50001671)
(0 -6.4139305e-05 0.50001691)
(0 -0.00014338545 0.50001747)
(0 -0.00022618511 0.50001843)
(0 -0.00031452008 0.50001984)
(0 -0.00041071582 0.50002179)
(0 -0.00051761332 0.5000244)
(0 -0.0006388085 0.50002787)
(0 -0.00077900016 0.50003247)
(0 -0.00094451966 0.5000386)
(0 -0.0011441825 0.50004686)
(0 -0.0013906536 0.50005822)
(0 -0.0017026872 0.50007414)
(0 -0.0021106406 0.5000971)
(0 -0.0026704397 0.50013484)
(0 -0.0034642392 0.50020243)
(0 -0.0045568648 0.50027156)
(0 -0.0065812684 0.50043382)
(0 -0.017655676 0.50675354)
(0 -0.013588202 0.4797567)
(0 0.037429485 0.44797322)
(0 0.050949148 0.53232578)
(0 0.021962664 0.50804303)
(0 0.016129238 0.50357361)
(0 0.012409228 0.5024233)
(0 0.0095090133 0.50162299)
(0 0.0075137955 0.5011565)
(0 0.0060633266 0.50086571)
(0 0.0049584048 0.5006677)
(0 0.0040944852 0.50052862)
(0 0.0034026046 0.50042858)
(0 0.0028358044 0.50035501)
(0 0.0023617002 0.50030006)
(0 0.0019571976 0.50025862)
(0 0.0016053256 0.50022722)
(0 0.0012932783 0.50020353)
(0 0.0010111202 0.50018589)
(0 0.00075090246 0.5001732)
(0 0.00050603994 0.50016468)
(0 0.00027085187 0.50015983)
(0 4.0206651e-05 0.50015841)
(0 -0.00019078697 0.50016032)
(0 -0.00042705042 0.50016568)
(0 -0.00067380599 0.50017482)
(0 -0.00093689687 0.50018826)
(0 -0.0012231655 0.50020686)
(0 -0.0015409495 0.50023185)
(0 -0.0019007699 0.50026503)
(0 -0.0023163227 0.50030903)
(0 -0.002805964 0.50036772)
(0 -0.0033950868 0.50044707)
(0 -0.0041200869 0.50055654)
(0 -0.0050340673 0.50071123)
(0 -0.0062169208 0.50093673)
(0 -0.0078175491 0.50129467)
(0 -0.01011184 0.50191107)
(0 -0.013094193 0.50282614)
(0 -0.017413936 0.50608183)
(0 -0.038747321 0.52526753)
(0 -0.027889088 0.45022396)
(0 0.039883459 0.40983124)
(0 0.061416854 0.54930958)
(0 0.031971407 0.52188183)
(0 0.024344109 0.51008142)
(0 0.019181558 0.50658896)
(0 0.014965 0.50452805)
(0 0.011994797 0.50327105)
(0 0.0097604551 0.50245775)
(0 0.0080257399 0.50190017)
(0 0.006654981 0.50150757)
(0 0.0055479368 0.50122414)
(0 0.004635055 0.50101519)
(0 0.0038675795 0.50085888)
(0 0.0032100964 0.50074081)
(0 0.0026362534 0.5006513)
(0 0.002125979 0.50058367)
(0 0.0016635782 0.50053332)
(0 0.0012364123 0.50049705)
(0 0.00083395566 0.50047269)
(0 0.00044708983 0.50045884)
(0 6.7554429e-05 0.50045476)
(0 -0.00031253208 0.50046022)
(0 -0.00070109909 0.50047555)
(0 -0.0011065466 0.50050165)
(0 -0.0015382417 0.50054005)
(0 -0.0020071015 0.50059314)
(0 -0.0025263478 0.50066443)
(0 -0.0031125383 0.50075897)
(0 -0.0037870287 0.50088419)
(0 -0.0045780866 0.50105099)
(0 -0.0055240966 0.50127591)
(0 -0.0066790714 0.50158509)
(0 -0.0081202513 0.50202066)
(0 -0.0099517759 0.50265104)
(0 -0.012346472 0.5036159)
(0 -0.015692426 0.5052007)
(0 -0.019850813 0.50785636)
(0 -0.025164231 0.51641318)
(0 -0.047397027 0.53912977)
(0 -0.030844907 0.41490022)
(0 0.034785638 0.36175099)
(0 0.063822712 0.55456959)
(0 0.039361064 0.53747084)
(0 0.030065992 0.51849365)
(0 0.02409457 0.511978)
(0 0.019261475 0.50849936)
(0 0.015718407 0.50626351)
(0 0.012937098 0.50475412)
(0 0.010727596 0.50370257)
(0 0.0089531704 0.50295379)
(0 0.0075007638 0.5024083)
(0 0.0062906862 0.50200363)
(0 0.0052651066 0.50169949)
(0 0.0043807425 0.50146895)
(0 0.0036047512 0.50129368)
(0 0.0029117234 0.50116097)
(0 0.0022815265 0.501062)
(0 0.0016977737 0.5009906)
(0 0.0011466978 0.5009426)
(0 0.00061629123 0.50091529)
(0 9.5625963e-05 0.50090722)
(0 -0.00042574702 0.50091798)
(0 -0.00095833852 0.50094818)
(0 -0.0015132484 0.50099955)
(0 -0.0021027868 0.50107507)
(0 -0.0027411919 0.50117934)
(0 -0.0034455357 0.50131906)
(0 -0.0042369308 0.50150392)
(0 -0.0051421936 0.50174792)
(0 -0.0061961423 0.50207154)
(0 -0.0074446872 0.50250527)
(0 -0.0089501036 0.5030961)
(0 -0.010799812 0.50391878)
(0 -0.01310045 0.50508969)
(0 -0.015987686 0.50680837)
(0 -0.019864225 0.50947032)
(0 -0.024698513 0.51427864)
(0 -0.031078839 0.52824803)
(0 -0.050290345 0.54408248)
(0 -0.028426875 0.37242001)
(0 0.027417644 0.31487729)
(0 0.062293737 0.55025568)
(0 0.044587029 0.5514672)
(0 0.033957306 0.52748876)
(0 0.027439149 0.51772338)
(0 0.022430222 0.5129196)
(0 0.018612356 0.50973007)
(0 0.015504656 0.50749028)
(0 0.01298414 0.50589668)
(0 0.010921928 0.50474283)
(0 0.009206605 0.50389132)
(0 0.0077592877 0.50325368)
(0 0.0065199555 0.50277101)
(0 0.0054421491 0.5024031)
(0 0.0044897859 0.50212214)
(0 0.0036343657 0.50190868)
(0 0.0028529097 0.50174905)
(0 0.0021264432 0.50163365)
(0 0.0014388365 0.50155594)
(0 0.00077589305 0.50151169)
(0 0.00012461133 0.50149857)
(0 -0.00052747638 0.50151595)
(0 -0.0011929085 0.50156482)
(0 -0.0018848708 0.50164786)
(0 -0.0026178826 0.50176976)
(0 -0.0034085659 0.50193769)
(0 -0.0042765919 0.50216204)
(0 -0.0052458915 0.5024577)
(0 -0.0063462639 0.50284594)
(0 -0.0076155353 0.50335741)
(0 -0.009102024 0.50403676)
(0 -0.010868222 0.50495053)
(0 -0.013001024 0.50620157)
(0 -0.015604328 0.50794481)
(0 -0.01876602 0.51040669)
(0 -0.02284771 0.51405923)
(0 -0.028130937 0.52115)
(0 -0.035657963 0.53932808)
(0 -0.050437513 0.54158061)
(0 -0.024072662 0.33062286)
(0 0.01983095 0.27524723)
(0 0.057964102 0.539775)
(0 0.047327199 0.56256576)
(0 0.036444037 0.53660401)
(0 0.029603257 0.52350801)
(0 0.02464341 0.5174028)
(0 0.020742235 0.5133608)
(0 0.017479079 0.51044081)
(0 0.014785409 0.50831913)
(0 0.01254022 0.50675549)
(0 0.010641953 0.50558533)
(0 0.0090185772 0.50469953)
(0 0.0076124314 0.50402315)
(0 0.0063776127 0.50350397)
(0 0.0052776194 0.50310527)
(0 0.0042829395 0.50280103)
(0 0.0033693009 0.50257269)
(0 0.0025163235 0.50240719)
(0 0.0017064389 0.50229551)
(0 0.00092401498 0.5022318)
(0 0.00015462874 0.50221286)
(0 -0.00061559883 0.50223779)
(0 -0.0014006216 0.50230796)
(0 -0.0022150429 0.50242708)
(0 -0.0030748093 0.50260162)
(0 -0.0039979604 0.50284137)
(0 -0.0050055263 0.50316046)
(0 -0.0061226296 0.50357892)
(0 -0.0073798793 0.50412492)
(0 -0.0088152658 0.50483841)
(0 -0.010476122 0.50577642)
(0 -0.012420809 0.50702124)
(0 -0.0147296 0.50869608)
(0 -0.017504405 0.51098261)
(0 -0.020799287 0.51412337)
(0 -0.024910498 0.5187361)
(0 -0.030446529 0.52823418)
(0 -0.0385639 0.54872796)
(0 -0.048459589 0.53403269)
(0 -0.019051818 0.29403461)
(0 0.013076014 0.24262198)
(0 0.051768308 0.52524773)
(0 0.047662791 0.57025335)
(0 0.037712889 0.54552254)
(0 0.030808203 0.52928889)
(0 0.026031859 0.52180067)
(0 0.022197268 0.51699453)
(0 0.018914703 0.51346792)
(0 0.016156906 0.51085746)
(0 0.013815969 0.50890319)
(0 0.011805365 0.50742178)
(0 0.010062459 0.50628821)
(0 0.0085345791 0.50541472)
(0 0.0071789254 0.50473919)
(0 0.0059606473 0.50421723)
(0 0.0048508756 0.50381693)
(0 0.0038253707 0.5035153)
(0 0.0028634087 0.50329599)
(0 0.0019468492 0.50314764)
(0 0.0010593549 0.50306285)
(0 0.00018572751 0.50303755)
(0 -0.00068871489 0.50307058)
(0 -0.0015787295 0.50316367)
(0 -0.0024996799 0.50332156)
(0 -0.0034681924 0.50355239)
(0 -0.0045028347 0.50386845)
(0 -0.0056249107 0.50428735)
(0 -0.0068594028 0.50483372)
(0 -0.0082360874 0.50554185)
(0 -0.0097911087 0.50645952)
(0 -0.01156874 0.50765392)
(0 -0.01362131 0.5092199)
(0 -0.016018385 0.51129548)
(0 -0.018855413 0.51408011)
(0 -0.022163912 0.51784278)
(0 -0.026184376 0.52347461)
(0 -0.031767702 0.53537801)
(0 -0.039674632 0.5559061)
(0 -0.044834785 0.52290367)
(0 -0.01407433 0.26277735)
(0 0.0077627184 0.21562791)
(0 0.044790769 0.50808168)
(0 0.046198012 0.57439293)
(0 0.037978751 0.5537467)
(0 0.03123469 0.53495934)
(0 0.026716333 0.52602848)
(0 0.023065943 0.52053353)
(0 0.019872207 0.51648039)
(0 0.017136481 0.51343115)
(0 0.01477142 0.51111773)
(0 0.012708556 0.50934439)
(0 0.010895781 0.50797386)
(0 0.0092871329 0.50690854)
(0 0.0078445851 0.5060785)
(0 0.006536334 0.50543315)
(0 0.0053353628 0.50493564)
(0 0.0042185005 0.5045592)
(0 0.0031655552 0.50428457)
(0 0.0021585628 0.50409831)
(0 0.0011811361 0.50399163)
(0 0.000217896 0.50395964)
(0 -0.00074607576 0.50400098)
(0 -0.0017257712 0.50411769)
(0 -0.0027367129 0.50431543)
(0 -0.0037955429 0.50460387)
(0 -0.0049205986 0.50499751)
(0 -0.0061325746 0.50551698)
(0 -0.0074552889 0.5061909)
(0 -0.0089165078 0.50705859)
(0 -0.010549112 0.50817425)
(0 -0.012392772 0.50961314)
(0 -0.014492715 0.51148033)
(0 -0.016905207 0.51392473)
(0 -0.019712087 0.51715525)
(0 -0.022929528 0.52148494)
(0 -0.026779194 0.52818929)
(0 -0.032248682 0.54222075)
(0 -0.039298375 0.56052176)
(0 -0.040259016 0.50920647)
(0 -0.0096906839 0.23603055)
(0 0.003997252 0.19366493)
(0 0.037859856 0.48958967)
(0 0.04361791 0.57526377)
(0 0.037493123 0.56083847)
(0 0.031088138 0.54035753)
(0 0.026850262 0.53000825)
(0 0.023451871 0.52389502)
(0 0.020420771 0.51940196)
(0 0.017770888 0.51597374)
(0 0.015438092 0.51334171)
(0 0.013372013 0.511304)
(0 0.011531233 0.50971479)
(0 0.0098775224 0.50846941)
(0 0.008378577 0.5074922)
(0 0.0070064988 0.50672779)
(0 0.0057369465 0.50613548)
(0 0.0045485676 0.5056854)
(0 0.0034223727 0.50535593)
(0 0.0023411761 0.50513188)
(0 0.00128909 0.50500325)
(0 0.00025106597 0.50496448)
(0 -0.00078755615 0.505014)
(0 -0.0018415069 0.50515416)
(0 -0.0029259526 0.50539137)
(0 -0.0040569971 0.50573662)
(0 -0.0052521386 0.50620627)
(0 -0.006530785 0.50682344)
(0 -0.0079148376 0.50761997)
(0 -0.0094292475 0.5086392)
(0 -0.011102711 0.50994024)
(0 -0.012969195 0.51160443)
(0 -0.015066328 0.51374446)
(0 -0.017436821 0.51651613)
(0 -0.020145035 0.52013072)
(0 -0.023199058 0.524968)
(0 -0.026839226 0.53274505)
(0 -0.032076163 0.54838832)
(0 -0.037868329 0.56258008)
(0 -0.035335512 0.49396873)
(0 -0.0061820276 0.21347099)
(0 0.0015430422 0.17626572)
(0 0.031455058 0.47090197)
(0 0.04045059 0.57342629)
(0 0.036471788 0.56659051)
(0 0.030555965 0.5453712)
(0 0.026593773 0.53369933)
(0 0.023467464 0.52702298)
(0 0.02063811 0.52217425)
(0 0.018115124 0.51843267)
(0 0.015854831 0.51552847)
(0 0.013822749 0.51325943)
(0 0.011987365 0.51147493)
(0 0.010318304 0.51006595)
(0 0.008789228 0.50895298)
(0 0.0073765278 0.50807731)
(0 0.0060590077 0.5073954)
(0 0.0048176125 0.50687509)
(0 0.0036350208 0.50649294)
(0 0.0024952729 0.50623234)
(0 0.0013834075 0.50608237)
(0 0.00028511826 0.50603689)
(0 -0.00081359283 0.5060942)
(0 -0.0019267897 0.50625687)
(0 -0.0030688679 0.50653194)
(0 -0.0042549623 0.50693144)
(0 -0.0055012799 0.5074732)
(0 -0.0068254678 0.50818228)
(0 -0.0082470193 0.50909292)
(0 -0.0097876128 0.51025144)
(0 -0.011471368 0.51172043)
(0 -0.013326123 0.51358526)
(0 -0.015382072 0.51596343)
(0 -0.017669928 0.51901358)
(0 -0.020236892 0.52294695)
(0 -0.023090348 0.52823917)
(0 -0.026508094 0.53704204)
(0 -0.031411337 0.55365425)
(0 -0.035755457 0.56236928)
(0 -0.030463646 0.47813249)
(0 -0.0035712453 0.19487877)
(0 6.8312934e-05 0.16268303)
(0 0.025820445 0.45278568)
(0 0.037064153 0.56949696)
(0 0.035085567 0.57098095)
(0 0.029778078 0.54995081)
(0 0.026079608 0.53710549)
(0 0.02321486 0.52989989)
(0 0.020600522 0.52476569)
(0 0.018226385 0.52077413)
(0 0.016063832 0.51764498)
(0 0.014091497 0.51517959)
(0 0.012286434 0.5132258)
(0 0.010625475 0.51167238)
(0 0.0090879179 0.51043764)
(0 0.0076544158 0.50946081)
(0 0.0063070707 0.50869652)
(0 0.0050293541 0.50811103)
(0 0.0038058864 0.50767957)
(0 0.0026222291 0.50738456)
(0 0.0014646503 0.50721435)
(0 0.00031989056 0.5071624)
(0 -0.00082508042 0.50722687)
(0 -0.0019833532 0.50741053)
(0 -0.0031682464 0.50772089)
(0 -0.0043936202 0.50817074)
(0 -0.0056740928 0.508779)
(0 -0.0070252734 0.50957209)
(0 -0.0084640075 0.51058591)
(0 -0.010008561 0.51186875)
(0 -0.011678545 0.51348534)
(0 -0.013495879 0.51552337)
(0 -0.015483924 0.51810263)
(0 -0.017663425 0.52138144)
(0 -0.020067057 0.52557445)
(0 -0.022708352 0.53128392)
(0 -0.025901566 0.54102754)
(0 -0.030384672 0.55792856)
(0 -0.033252933 0.560286)
(0 -0.025894933 0.46238747)
(0 -0.0017440136 0.1797942)
(0 -0.00072667257 0.15209375)
(0 0.021052009 0.4356732)
(0 0.033708778 0.56402565)
(0 0.033477344 0.57408332)
(0 0.028854881 0.55407568)
(0 0.025407019 0.54025071)
(0 0.02277744 0.53253605)
(0 0.020374741 0.5271682)
(0 0.018157475 0.52298193)
(0 0.016105995 0.51967152)
(0 0.014209475 0.51704354)
(0 0.01245205 0.51494658)
(0 0.010816724 0.51326874)
(0 0.0092877646 0.51192741)
(0 0.0078497826 0.5108608)
(0 0.0064880765 0.51002253)
(0 0.005188668 0.50937793)
(0 0.003938227 0.5089014)
(0 0.002723993 0.50857471)
(0 0.00153365 0.50838573)
(0 0.00035518639 0.50832763)
(0 -0.00082325236 0.50839849)
(0 -0.002013574 0.5086012)
(0 -0.0032278192 0.5089436)
(0 -0.0044783866 0.509439)
(0 -0.0057781485 0.51010702)
(0 -0.0071405711 0.51097496)
(0 -0.0085798242 0.51207971)
(0 -0.010110861 0.51347061)
(0 -0.011749141 0.51521353)
(0 -0.013511256 0.51739715)
(0 -0.015414526 0.52014167)
(0 -0.01747156 0.5236032)
(0 -0.01970415 0.52800742)
(0 -0.022138095 0.53410797)
(0 -0.025110233 0.54467051)
(0 -0.029111155 0.56120291)
(0 -0.030592094 0.55672686)
(0 -0.021782647 0.44717275)
(0 -0.00054205896 0.1676304)
(0 -0.0010789524 0.1438009)
(0 0.01714048 0.41977929)
(0 0.030539884 0.55747265)
(0 0.031764841 0.57601958)
(0 0.027860171 0.55773827)
(0 0.024649213 0.54316056)
(0 0.022221378 0.53495396)
(0 0.020016165 0.5293875)
(0 0.017953947 0.5250519)
(0 0.016018143 0.52159852)
(0 0.014206006 0.51883862)
(0 0.01250726 0.51662305)
(0 0.010909936 0.51484027)
(0 0.0094024818 0.51340757)
(0 0.0079730042 0.51226293)
(0 0.0066097317 0.51135961)
(0 0.0053011121 0.51066251)
(0 0.0040358417 0.51014562)
(0 0.002802881 0.50979034)
(0 0.0015914136 0.50958426)
(0 0.00039078392 0.50952039)
(0 -0.00080956805 0.50959676)
(0 -0.0020202477 0.50981632)
(0 -0.0032519108 0.51018713)
(0 -0.0045154118 0.51072277)
(0 -0.0058218365 0.51144325)
(0 -0.0071825358 0.51237632)
(0 -0.0086091286 0.5135593)
(0 -0.010113511 0.51504194)
(0 -0.011707484 0.51689043)
(0 -0.013403082 0.51919356)
(0 -0.01521249 0.52207057)
(0 -0.017141875 0.52567466)
(0 -0.019206152 0.53025255)
(0 -0.021448133 0.53672262)
(0 -0.024206969 0.54795087)
(0 -0.027692255 0.56352222)
(0 -0.027943242 0.55205495)
(0 -0.018200679 0.43275392)
(0 0.00019292997 0.15784178)
(0 -0.001162059 0.13725345)
(0 0.014008294 0.40518503)
(0 0.02763734 0.55021332)
(0 0.030035883 0.57693804)
(0 0.026846074 0.56094521)
(0 0.023858835 0.54585872)
(0 0.021598247 0.53718034)
(0 0.019569725 0.53143654)
(0 0.017653902 0.52698711)
(0 0.015832168 0.52342321)
(0 0.01410737 0.52055824)
(0 0.01247339 0.51824619)
(0 0.010922166 0.51637651)
(0 0.0094455246 0.51486695)
(0 0.0080345266 0.51365576)
(0 0.0066799751 0.5126963)
(0 0.0053725269 0.51195342)
(0 0.0041027898 0.51140103)
(0 0.0028613998 0.5110204)
(0 0.0016390413 0.510799)
(0 0.00042644482 0.51072977)
(0 -0.00078561294 0.51081072)
(0 -0.0020063922 0.51104482)
(0 -0.0032451362 0.51144021)
(0 -0.0045111567 0.51201059)
(0 -0.0058138013 0.51277611)
(0 -0.0071624274 0.51376458)
(0 -0.0085663269 0.51501338)
(0 -0.01003469 0.51657217)
(0 -0.011576213 0.5185069)
(0 -0.013199205 0.5209058)
(0 -0.01491171 0.52388631)
(0 -0.016715111 0.52759923)
(0 -0.018621294 0.53232313)
(0 -0.020692607 0.53914154)
(0 -0.023248614 0.55086226)
(0 -0.026210165 0.56497017)
(0 -0.025417333 0.54658948)
(0 -0.015160445 0.41927999)
(0 0.00059896245 0.14996605)
(0 -0.0010943182 0.13201209)
(0 0.011544765 0.39188254)
(0 0.025028802 0.54254246)
(0 0.028349051 0.57699389)
(0 0.025845687 0.5637164)
(0 0.02307088 0.54836779)
(0 0.020946241 0.53924333)
(0 0.019070588 0.53333249)
(0 0.017288316 0.52879532)
(0 0.015574899 0.5251475)
(0 0.013936363 0.52220024)
(0 0.01236946 0.519811)
(0 0.010869035 0.51787055)
(0 0.0094295158 0.51629741)
(0 0.0080443665 0.51503042)
(0 0.0067065682 0.51402332)
(0 0.0054087173 0.51324121)
(0 0.004143159 0.51265811)
(0 0.0029020973 0.51225534)
(0 0.0016776571 0.5120204)
(0 0.00046192227 0.51194623)
(0 -0.00075301249 0.51203081)
(0 -0.0019750813 0.51227713)
(0 -0.00321215 0.5126933)
(0 -0.0044720524 0.51329301)
(0 -0.0057625106 0.51409631)
(0 -0.0070910718 0.51513089)
(0 -0.0084649826 0.51643386)
(0 -0.0098911287 0.51805444)
(0 -0.011375676 0.52005799)
(0 -0.012924023 0.5225318)
(0 -0.014541067 0.52559099)
(0 -0.016224999 0.52938573)
(0 -0.017987918 0.53423689)
(0 -0.01991172 0.54138092)
(0 -0.022276351 0.5534125)
(0 -0.024725641 0.56565237)
(0 -0.023076745 0.54059777)
(0 -0.012632144 0.40681398)
(0 0.00078506729 0.14360955)
(0 -0.0009521773 0.12773163)
(0 0.0096311231 0.37980668)
(0 0.02271064 0.5346817)
(0 0.026739299 0.57633318)
(0 0.024877435 0.56607935)
(0 0.022306203 0.55070818)
(0 0.020291678 0.54117029)
(0 0.018544906 0.53509472)
(0 0.016881411 0.53048733)
(0 0.01526816 0.52677647)
(0 0.013712133 0.52376569)
(0 0.012211905 0.52131556)
(0 0.010764379 0.51931832)
(0 0.0093658885 0.5176934)
(0 0.0080117757 0.51638034)
(0 0.0066968018 0.51533344)
(0 0.005415214 0.51451819)
(0 0.0041608875 0.51390892)
(0 0.0029274472 0.51348709)
(0 0.0017083541 0.51324032)
(0 0.00049696852 0.51316159)
(0 -0.00071336257 0.51324889)
(0 -0.0019293126 0.51350518)
(0 -0.0031574512 0.51393849)
(0 -0.0044042437 0.51456238)
(0 -0.0056759417 0.51539669)
(0 -0.0069785003 0.51646879)
(0 -0.0083174289 0.51781533)
(0 -0.0096977224 0.51948491)
(0 -0.011123567 0.52154211)
(0 -0.012598191 0.52407305)
(0 -0.014124243 0.52719046)
(0 -0.01569818 0.53104668)
(0 -0.017334761 0.53601375)
(0 -0.019133205 0.54345786)
(0 -0.021317838 0.55561927)
(0 -0.023280366 0.56568007)
(0 -0.020949241 0.53429287)
(0 -0.010563135 0.3953567)
(0 0.00083152847 0.1384396)
(0 -0.00078313587 0.12415144)
(0 0.0081547363 0.36886155)
(0 0.020662415 0.52679184)
(0 0.025224274 0.57508485)
(0 0.023949784 0.56806402)
(0 0.021575562 0.5528966)
(0 0.019651341 0.54298548)
(0 0.018011131 0.53674268)
(0 0.016451366 0.53207535)
(0 0.014929073 0.52831716)
(0 0.013450254 0.5252578)
(0 0.0120145 0.52276015)
(0 0.010620093 0.52071794)
(0 0.0092646878 0.51905141)
(0 0.0079450346 0.51770084)
(0 0.006657305 0.51662115)
(0 0.0053971107 0.51577832)
(0 0.0041596379 0.51514701)
(0 0.0029397645 0.51470897)
(0 0.0017321561 0.51445194)
(0 0.000531342 0.51436901)
(0 -0.00066817599 0.51445816)
(0 -0.0018719086 0.51472233)
(0 -0.003085241 0.5151694)
(0 -0.0043134077 0.51581274)
(0 -0.0055613678 0.51667189)
(0 -0.0068337162 0.5177738)
(0 -0.0081345315 0.51915456)
(0 -0.0094673127 0.52086209)
(0 -0.010834762 0.52296011)
(0 -0.012238569 0.5255335)
(0 -0.013679896 0.52869296)
(0 -0.015154751 0.53259631)
(0 -0.016682192 0.5376734)
(0 -0.01837485 0.54538835)
(0 -0.020390232 0.55750529)
(0 -0.021900562 0.56515944)
(0 -0.01903964 0.52783844)
(0 -0.0088905634 0.38486913)
(0 0.00079485359 0.13418449)
(0 -0.00061518883 0.12108166)
(0 0.0070164521 0.3589394)
(0 0.018855947 0.51898644)
(0 0.023809592 0.57335909)
(0 0.023064847 0.5697002)
(0 0.020883005 0.55494573)
(0 0.01903493 0.54470892)
(0 0.017481631 0.53829436)
(0 0.016011316 0.5335717)
(0 0.014570632 0.52977739)
(0 0.013163017 0.52668103)
(0 0.011788468 0.52414659)
(0 0.010446128 0.5220691)
(0 0.0091345022 0.52036951)
(0 0.0078513547 0.51898878)
(0 0.0065939392 0.51788241)
(0 0.0053589661 0.51701688)
(0 0.0041427182 0.51636726)
(0 0.0029411517 0.51591555)
(0 0.0017499927 0.5156497)
(0 0.00056481358 0.51556288)
(0 -0.00061884499 0.51565311)
(0 -0.001805449 0.51592323)
(0 -0.0029993288 0.51638101)
(0 -0.0042046397 0.51703956)
(0 -0.0054252326 0.51791809)
(0 -0.0066645714 0.51904307)
(0 -0.0079255909 0.52045004)
(0 -0.0092106479 0.52218619)
(0 -0.010521386 0.52431445)
(0 -0.011858471 0.52691856)
(0 -0.0132222 0.53010773)
(0 -0.01460923 0.53404901)
(0 -0.016043809 0.53923371)
(0 -0.01764698 0.54718631)
(0 -0.019502838 0.55909535)
(0 -0.020600349 0.56418657)
(0 -0.017338425 0.52135694)
(0 -0.0075496675 0.37529)
(0 0.00071347635 0.13062961)
(0 -0.00046326191 0.11838744)
(0 0.0061337296 0.34993198)
(0 0.017260946 0.51134357)
(0 0.022493105 0.57124855)
(0 0.022220899 0.57101641)
(0 0.020228279 0.55686475)
(0 0.018447074 0.54635629)
(0 0.016964163 0.53976551)
(0 0.015570391 0.53498793)
(0 0.0142024 0.531165)
(0 0.012859861 0.52804038)
(0 0.011542725 0.52547753)
(0 0.010250606 0.52337255)
(0 0.0089824993 0.52164696)
(0 0.0077368653 0.52024222)
(0 0.006511761 0.51911438)
(0 0.0053047599 0.51823039)
(0 0.0041130413 0.51756568)
(0 0.0029334701 0.51710255)
(0 0.0017626858 0.51682913)
(0 0.00059717226 0.5167387)
(0 -0.00056661749 0.51682929)
(0 -0.0017322312 0.51710367)
(0 -0.0029030809 0.51756947)
(0 -0.0040823959 0.51823952)
(0 -0.0052731001 0.5191327)
(0 -0.0064777395 0.52027502)
(0 -0.007698361 0.52170145)
(0 -0.0089364841 0.52345856)
(0 -0.010193045 0.5256086)
(0 -0.011468089 0.52823426)
(0 -0.012761537 0.53144417)
(0 -0.014071574 0.53541823)
(0 -0.015427913 0.54071003)
(0 -0.016954458 0.54886337)
(0 -0.01865925 0.56041455)
(0 -0.019384838 0.56284565)
(0 -0.015828063 0.51493787)
(0 -0.0064792109 0.3665476)
(0 0.00061260016 0.12760915)
(0 -0.00033381845 0.11597492)
(0 0.0054408719 0.34173675)
(0 0.015848317 0.50391501)
(0 0.021268265 0.56883038)
(0 0.021414178 0.57203933)
(0 0.019608539 0.55866008)
(0 0.017888902 0.54793927)
(0 0.016463085 0.54116941)
(0 0.015134616 0.53633444)
(0 0.013831174 0.53248742)
(0 0.012547841 0.5293409)
(0 0.011284186 0.52675606)
(0 0.010040008 0.52462973)
(0 0.0088145303 0.52288381)
(0 0.007606663 0.52146014)
(0 0.0064150381 0.52031519)
(0 0.0052378896 0.51941631)
(0 0.0040731152 0.51873927)
(0 0.0029183304 0.51826664)
(0 0.0017709465 0.51798674)
(0 0.00062822842 0.51789292)
(0 -0.00051258594 0.51798325)
(0 -0.0016542535 0.51826043)
(0 -0.0027994022 0.51873191)
(0 -0.0039504837 0.5194103)
(0 -0.0051096624 0.52031412)
(0 -0.0062787581 0.52146898)
(0 -0.0074591501 0.52290934)
(0 -0.0086517713 0.52468127)
(0 -0.0098571269 0.52684643)
(0 -0.011074954 0.52948673)
(0 -0.012305162 0.5327112)
(0 -0.013548117 0.53671605)
(0 -0.014838768 0.54211496)
(0 -0.016298289 0.550429)
(0 -0.017859141 0.56148711)
(0 -0.018252964 0.56120873)
(0 -0.014487481 0.50864482)
(0 -0.0056246025 0.35856722)
(0 0.00050800922 0.12499714)
(0 -0.0002281789 0.11378002)
(0 0.0048874314 0.33426021)
(0 0.014591816 0.49673349)
(0 0.020126545 0.5661686)
(0 0.020640144 0.57279359)
(0 0.019019587 0.56033602)
(0 0.017359277 0.54946612)
(0 0.015980327 0.54251692)
(0 0.014707674 0.5376203)
(0 0.013461576 0.53375135)
(0 0.012232069 0.53058742)
(0 0.011018081 0.52798538)
(0 0.0098193906 0.52584244)
(0 0.0086352713 0.52408068)
(0 0.0074648994 0.52264217)
(0 0.006307299 0.52148369)
(0 0.0051611972 0.52057289)
(0 0.0040250553 0.51988584)
(0 0.0028970983 0.51940534)
(0 0.0017753776 0.51911986)
(0 0.00065781552 0.51902286)
(0 -0.00045768641 0.5191124)
(0 -0.0015732167 0.51939111)
(0 -0.002690746 0.5198663)
(0 -0.0038120854 0.52055036)
(0 -0.00493879 0.5214615)
(0 -0.0060721184 0.52262497)
(0 -0.0072129655 0.52407483)
(0 -0.0083618775 0.52585673)
(0 -0.0095191368 0.52803193)
(0 -0.010684399 0.53068183)
(0 -0.011857835 0.53391699)
(0 -0.013042415 0.53795284)
(0 -0.014277712 0.54345844)
(0 -0.015676921 0.55189063)
(0 -0.017099751 0.56233561)
(0 -0.017199867 0.55933648)
(0 -0.013294951 0.50252158)
(0 -0.0049391946 0.35127583)
(0 0.00040895137 0.12269948)
(0 -0.00014479389 0.11175974)
(0 0.0044357815 0.32741928)
(0 0.013468616 0.48981831)
(0 0.019058986 0.56331644)
(0 0.019894259 0.57330177)
(0 0.018456726 0.5618953)
(0 0.016855727 0.55094221)
(0 0.015516172 0.54381664)
(0 0.014291536 0.5388532)
(0 0.013096566 0.53496273)
(0 0.011916111 0.53178437)
(0 0.010748252 0.52916864)
(0 0.009592605 0.52701265)
(0 0.0084483809 0.52523854)
(0 0.0073148884 0.52378844)
(0 0.0061914045 0.5226193)
(0 0.0050770137 0.52169901)
(0 0.0039706118 0.52100386)
(0 0.0028709094 0.52051684)
(0 0.00177648 0.52022654)
(0 0.0006857911 0.52012651)
(0 -0.00040270432 0.52021481)
(0 -0.0014905389 0.520494)
(0 -0.0025791421 0.52097127)
(0 -0.0036698061 0.52165879)
(0 -0.0047636066 0.52257455)
(0 -0.0058613795 0.52374347)
(0 -0.006963682 0.52519932)
(0 -0.0080708265 0.52698748)
(0 -0.009183021 0.52916895)
(0 -0.010300002 0.53182491)
(0 -0.011422387 0.53506868)
(0 -0.01255598 0.53913721)
(0 -0.013744079 0.54474788)
(0 -0.015087267 0.5532539)
(0 -0.016376997 0.56298063)
(0 -0.016218637 0.55727957)
(0 -0.01222982 0.49659726)
(0 -0.0043844582 0.34460496)
(0 0.00032029422 0.12064709)
(0 -8.0726847e-05 0.10988539)
(0 0.0040585295 0.32114153)
(0 0.012459292 0.48317947)
(0 0.018057073 0.56031845)
(0 0.019172394 0.57358471)
(0 0.017915294 0.56333967)
(0 0.016375105 0.55237063)
(0 0.015069841 0.54507509)
(0 0.013886963 0.54003951)
(0 0.012737869 0.53612666)
(0 0.011602338 0.53293567)
(0 0.010477434 0.53030873)
(0 0.0093625107 0.52814235)
(0 0.0082566573 0.52635854)
(0 0.0071592214 0.52489938)
(0 0.006069629 0.52372186)
(0 0.0049872162 0.52279404)
(0 0.003911206 0.52209234)
(0 0.0028406905 0.52159989)
(0 0.0017746632 0.52130541)
(0 0.00071203593 0.52120248)
(0 -0.00034828604 0.52128916)
(0 -0.0014073803 0.52156796)
(0 -0.002466237 0.52204596)
(0 -0.003525735 0.52273517)
(0 -0.0045865796 0.52365336)
(0 -0.0056492959 0.52482525)
(0 -0.0067142175 0.52628439)
(0 -0.0077815345 0.52807601)
(0 -0.0088514791 0.53026101)
(0 -0.0099239767 0.5329207)
(0 -0.011000224 0.53617233)
(0 -0.012088893 0.54027602)
(0 -0.013235935 0.5459885)
(0 -0.014525444 0.55452294)
(0 -0.015686249 0.56344073)
(0 -0.015301538 0.55508017)
(0 -0.0112734 0.49089034)
(0 -0.0039294642 0.33849226)
(0 0.00024405593 0.11879005)
(0 -3.2582056e-05 0.10813775)
(0 0.0037361259 0.31536457)
(0 0.011547513 0.47682077)
(0 0.017113155 0.55721221)
(0 0.018470997 0.57366176)
(0 0.017390956 0.56467036)
(0 0.015914026 0.55375269)
(0 0.014639914 0.54629705)
(0 0.013493902 0.5411844)
(0 0.01238632 0.5372474)
(0 0.011292214 0.53404473)
(0 0.010207488 0.53140828)
(0 0.0091311673 0.52923342)
(0 0.0080621895 0.52744191)
(0 0.0069998823 0.52597562)
(0 0.005943746 0.52479153)
(0 0.0048932871 0.52385771)
(0 0.0038479712 0.5231507)
(0 0.0028071852 0.52265372)
(0 0.0017702556 0.52235555)
(0 0.00073645213 0.52224981)
(0 -0.00029495383 0.52233457)
(0 -0.001324672 0.52261228)
(0 -0.0023533409 0.52308993)
(0 -0.0033815144 0.5237794)
(0 -0.0044096159 0.52469831)
(0 -0.0054379478 0.52587123)
(0 -0.0064667047 0.52733161)
(0 -0.0074960318 0.52912463)
(0 -0.0085262446 0.53131124)
(0 -0.0095575252 0.53397322)
(0 -0.010591734 0.53723296)
(0 -0.011640299 0.54137452)
(0 -0.01275063 0.54718363)
(0 -0.013987297 0.55570072)
(0 -0.015022855 0.56373267)
(0 -0.014440811 0.55277346)
(0 -0.010409325 0.48541166)
(0 -0.0035499718 0.33288209)
(0 0.00018047525 0.11709277)
(0 2.9504534e-06 0.10650359)
(0 0.0034548237 0.31003508)
(0 0.010719621 0.47074188)
(0 0.016220579 0.55402974)
(0 0.017787109 0.57355106)
(0 0.016879851 0.56588843)
(0 0.015469136 0.55508845)
(0 0.014224624 0.54748583)
(0 0.013111761 0.54229195)
(0 0.012042133 0.53832851)
(0 0.01098654 0.53511445)
(0 0.0099396134 0.53246959)
(0 0.0089000046 0.53028761)
(0 0.0078664949 0.52848986)
(0 0.0068383554 0.52701792)
(0 0.00581511 0.52582862)
(0 0.0047963762 0.52489002)
(0 0.0037817952 0.52417868)
(0 0.0027709794 0.52367788)
(0 0.0017635161 0.52337643)
(0 0.00075896082 0.52326797)
(0 -0.00024312225 0.52335055)
(0 -0.0012431484 0.52362661)
(0 -0.0022414771 0.52410303)
(0 -0.0032384094 0.52479164)
(0 -0.0042341568 0.52570993)
(0 -0.0052288657 0.52688241)
(0 -0.0062226509 0.52834248)
(0 -0.0072156623 0.53013541)
(0 -0.008208328 0.53232233)
(0 -0.0092011227 0.53498584)
(0 -0.01019662 0.53825453)
(0 -0.011208772 0.54243654)
(0 -0.0122852 0.5483351)
(0 -0.013468752 0.55678936)
(0 -0.014382469 0.56387154)
(0 -0.013629182 0.55038885)
(0 -0.0096235735 0.48016675)
(0 -0.0032273591 0.32772554)
(0 0.0001287567 0.11553008)
(0 2.8814663e-05 0.10497336)
(0 0.0032050386 0.30510773)
(0 0.0099641923 0.46493984)
(0 0.015373657 0.55079853)
(0 0.017118311 0.57326969)
(0 0.016378633 0.56699502)
(0 0.015037266 0.55637708)
(0 0.013822051 0.54864352)
(0 0.012739629 0.54336534)
(0 0.011705102 0.53937287)
(0 0.010685638 0.53614723)
(0 0.0096745114 0.53349466)
(0 0.0086699681 0.53130649)
(0 0.0076706403 0.52950356)
(0 0.0066757238 0.52802707)
(0 0.0056847346 0.52683362)
(0 0.0046973583 0.52589118)
(0 0.0037133614 0.52517628)
(0 0.0027325271 0.52467221)
(0 0.001754646 0.52436779)
(0 0.00077949943 0.52425667)
(0 -0.00019311506 0.52433689)
(0 -0.0011633787 0.52461084)
(0 -0.0021314309 0.52508536)
(0 -0.0030973764 0.52577222)
(0 -0.0040612687 0.52668886)
(0 -0.0050231452 0.52785976)
(0 -0.0059830803 0.52931838)
(0 -0.0069412564 0.53111016)
(0 -0.0078982208 0.53329652)
(0 -0.0088547536 0.53596126)
(0 -0.009814163 0.53924013)
(0 -0.010792601 0.54346469)
(0 -0.01183665 0.54944356)
(0 -0.012966037 0.55779042)
(0 -0.013761234 0.56387106)
(0 -0.012860123 0.54795118)
(0 -0.0089043057 0.47515753)
(0 -0.0029475564 0.32298007)
(0 8.757727e-05 0.11408428)
(0 4.7478681e-05 0.10353976)
(0 0.0029800929 0.30054405)
(0 0.0092716338 0.45941013)
(0 0.014567541 0.5475424)
(0 0.016462629 0.57283385)
(0 0.015884458 0.56799154)
(0 0.014615511 0.55761713)
(0 0.013430249 0.54977125)
(0 0.012376413 0.54440693)
(0 0.011374755 0.54038277)
(0 0.010389504 0.53714506)
(0 0.0094125254 0.53448514)
(0 0.0084416411 0.53229143)