/*--------------------------------*- C++ -*----------------------------------*\
  =========                 |
  \\      /  F ield         | OpenFOAM: The Open Source CFD Toolbox
   \\    /   O peration     | Website:  https://openfoam.org
    \\  /    A nd           | Version:  10
     \\/     M anipulation  |
\*---------------------------------------------------------------------------*/
FoamFile
{
    format      ascii;
    class       surfaceScalarField;
    location    "0.19";
    object      phi;
}
// * * * * * * * * * * * * * * * * * * * * * * * * * * * * * * * * * * * * * //

dimensions      [1 0 -1 0 0 0 0];

internalField   nonuniform List<scalar> 
7860
(
3.9895753e-08
5.2881228e-07
1.2192561e-08
5.9641099e-07
7.4277421e-09
5.7347256e-07
5.4992454e-09
5.706362e-07
4.114825e-09
5.7009209e-07
3.2009822e-09
5.6962149e-07
2.5590041e-09
5.6934961e-07
2.0791974e-09
5.6918742e-07
1.7092331e-09
5.6907757e-07
1.4165874e-09
5.6900024e-07
1.1794642e-09
5.6894471e-07
9.8310023e-10
5.6890394e-07
8.1715145e-10
5.6887352e-07
6.741272e-10
5.6885059e-07
5.4845376e-10
5.6883324e-07
4.3587002e-10
5.6882015e-07
3.3302183e-10
5.6881041e-07
2.3718139e-10
5.688034e-07
1.4604525e-10
5.6879869e-07
5.7581767e-11
5.6879602e-07
-3.0092346e-11
5.6879523e-07
-1.1881976e-10
5.6879628e-07
-2.1050747e-10
5.6879925e-07
-3.0723345e-10
5.6880428e-07
-4.1137897e-10
5.6881171e-07
-5.2579154e-10
5.6882198e-07
-6.5400569e-10
5.6883578e-07
-8.0055576e-10
5.6885412e-07
-9.7143656e-10
5.6887845e-07
-1.1748101e-09
5.6891095e-07
-1.4221785e-09
5.6895495e-07
-1.7303541e-09
5.6901577e-07
-2.1243162e-09
5.6910157e-07
-2.6439477e-09
5.6922725e-07
-3.3716626e-09
5.6943535e-07
-4.4630204e-09
5.6979901e-07
-6.0084556e-09
5.7025311e-07
-9.5075244e-09
5.7220678e-07
-2.957525e-08
5.8877548e-07
5.3913267e-07
5.9671961e-08
4.6914032e-07
3.6665342e-08
6.1941761e-07
2.2627565e-08
5.8751034e-07
1.6252963e-08
5.770108e-07
1.228991e-08
5.7405514e-07
9.6056933e-09
5.7230571e-07
7.6769662e-09
5.7127834e-07
6.2356919e-09
5.706287e-07
5.1262721e-09
5.7018699e-07
4.2486328e-09
5.6987788e-07
3.5374379e-09
5.696559e-07
2.948517e-09
5.6949287e-07
2.4508233e-09
5.6937122e-07
2.0218797e-09
5.6927954e-07
1.6449701e-09
5.6921015e-07
1.3073153e-09
5.691578e-07
9.9885622e-10
5.6911887e-07
7.1141259e-10
5.6909084e-07
4.3807681e-10
5.6907203e-07
1.7275533e-10
5.6906134e-07
-9.0200217e-11
5.6905819e-07
-3.5631503e-10
5.690624e-07
-6.3130324e-10
5.6907423e-07
-9.2139927e-10
5.6909438e-07
-1.2337443e-09
5.6912405e-07
-1.5768774e-09
5.6916511e-07
-1.9613981e-09
5.692203e-07
-2.4009044e-09
5.6929363e-07
-2.9133816e-09
5.6939093e-07
-3.5233246e-09
5.695209e-07
-4.2651546e-09
5.6969678e-07
-5.1892395e-09
5.6993985e-07
-6.3722072e-09
5.7028453e-07
-7.9327794e-09
5.7078782e-07
-1.0074183e-08
5.7157675e-07
-1.3202552e-08
5.7292738e-07
-1.8132662e-08
5.7518322e-07
-2.8175003e-08
5.8224912e-07
-4.5801253e-08
6.0640173e-07
4.9333142e-07
6.0007982e-08
4.0913235e-07
5.0486066e-08
6.2893952e-07
3.3369551e-08
6.0462685e-07
2.4816577e-08
5.8556377e-07
1.9322179e-08
5.7954954e-07
1.5330504e-08
5.7629738e-07
1.2359835e-08
5.74249e-07
1.0100814e-08
5.7288772e-07
8.3400622e-09
5.7194774e-07
6.9344563e-09
5.7128349e-07
5.7879148e-09
5.7080245e-07
4.8336701e-09
5.7044711e-07
4.0239549e-09
5.7018093e-07
3.3237809e-09
5.6997971e-07
2.7068815e-09
5.6982705e-07
2.1530212e-09
5.6971166e-07
1.6461715e-09
5.6962572e-07
1.1732298e-09
5.6956378e-07
7.2308556e-10
5.6952217e-07
2.8590719e-10
5.6949852e-07
-1.4743536e-10
5.6949153e-07
-5.8587646e-10
5.6950084e-07
-1.0386483e-09
5.69527e-07
-1.5158007e-09
5.6957153e-07
-2.0288042e-09
5.6963705e-07
-2.5913094e-09
5.6972761e-07
-3.2201586e-09
5.6984915e-07
-3.9367969e-09
5.7001026e-07
-4.7693222e-09
5.7022346e-07
-5.7555488e-09
5.7050712e-07
-6.9476659e-09
5.708889e-07
-8.419876e-09
5.7141206e-07
-1.0281583e-08
5.7214624e-07
-1.2694664e-08
5.732009e-07
-1.5892286e-08
5.7477437e-07
-2.023635e-08
5.7727144e-07
-2.6704937e-08
5.8165181e-07
-3.8944535e-08
5.9448871e-07
-4.8164691e-08
6.1562188e-07
4.4516673e-07
5.4877947e-08
3.5425442e-07
5.7450318e-08
6.2636716e-07
4.0465764e-08
6.216114e-07
3.0777059e-08
5.9525248e-07
2.4641397e-08
5.856852e-07
1.9950742e-08
5.8098804e-07
1.6311543e-08
5.778882e-07
1.3465339e-08
5.7573392e-07
1.120001e-08
5.7421307e-07
9.3638493e-09
5.7311965e-07
7.8489682e-09
5.7231733e-07
6.5768749e-09
5.717192e-07
5.4897195e-09
5.7126809e-07
4.5441857e-09
5.7092525e-07
3.7071747e-09
5.7066406e-07
2.9528252e-09
5.7046601e-07
2.2604154e-09
5.7031813e-07
1.6128454e-09
5.7021135e-07
9.9550555e-10
5.7013951e-07
3.9539666e-10
5.7009863e-07
-1.9959347e-10
5.7008652e-07
-8.0132997e-10
5.7010258e-07
-1.422052e-09
5.7014773e-07
-2.0750272e-09
5.7022451e-07
-2.7753023e-09
5.7033733e-07
-3.5406311e-09
5.7049294e-07
-4.3926812e-09
5.707012e-07
-5.3586679e-09
5.7097625e-07
-6.4736337e-09
5.7133842e-07
-7.7837093e-09
5.718172e-07
-9.3506806e-09
5.7245587e-07
-1.1258374e-08
5.7331976e-07
-1.3623061e-08
5.7451093e-07
-1.6606094e-08
5.7618393e-07
-2.0405259e-08
5.7857354e-07
-2.5287235e-08
5.8215342e-07
-3.2511777e-08
5.8887635e-07
-4.5095536e-08
6.0707247e-07
-4.6545849e-08
6.170722e-07
3.9862088e-07
4.796444e-08
3.0629001e-07
6.0073952e-08
6.1425766e-07
4.5397544e-08
6.362878e-07
3.4872926e-08
6.0577709e-07
2.8397508e-08
5.9216062e-07
2.3417394e-08
5.8596815e-07
1.9432273e-08
5.8187332e-07
1.6227399e-08
5.789388e-07
1.3618251e-08
5.7682222e-07
1.1465419e-08
5.7527248e-07
9.6637717e-09
5.7411897e-07
8.1332647e-09
5.7324971e-07
6.81287e-09
5.7258848e-07
5.6555703e-09
5.7208254e-07
4.6245849e-09
5.7169504e-07
3.6906219e-09
5.7139997e-07
2.8298368e-09
5.7117891e-07
2.0222941e-09
5.710189e-07
1.2507832e-09
5.7091102e-07
4.9987211e-10
5.7084954e-07
-2.4488424e-10
5.7083127e-07
-9.9765474e-10
5.7085535e-07
-1.7730222e-09
5.7092309e-07
-2.5867057e-09
5.7103819e-07
-3.4563772e-09
5.71207e-07
-4.4026446e-09
5.7143921e-07
-5.450292e-09
5.7174885e-07
-6.6298894e-09
5.7215585e-07
-7.9799192e-09
5.7268845e-07
-9.5496503e-09
5.7338693e-07
-1.1402913e-08
5.7430913e-07
-1.3622527e-08
5.7553937e-07
-1.63168e-08
5.772052e-07
-1.9629344e-08
5.7949648e-07
-2.3730443e-08
5.8267463e-07
-2.8922974e-08
5.8734595e-07
-3.6783424e-08
5.967368e-07
-4.845638e-08
6.1874543e-07
-4.3189843e-08
6.1180566e-07
3.5543103e-07
4.0334532e-08
2.6595552e-07
5.8990783e-08
5.9560144e-07
4.8326532e-08
6.4695205e-07
3.7584795e-08
6.1651882e-07
3.0925757e-08
5.9881966e-07
2.5891038e-08
5.9100287e-07
2.1777306e-08
5.8598706e-07
1.8389703e-08
5.823264e-07
1.5575564e-08
5.7963635e-07
1.3212836e-08
5.7763521e-07
1.1205574e-08
5.7612624e-07
9.4784812e-09
5.749768e-07
7.9724082e-09
5.7409455e-07
6.6404449e-09
5.7341451e-07
5.4449576e-09
5.7289053e-07
4.3553217e-09
5.7248961e-07
3.3461419e-09
5.7218809e-07
2.3958528e-09
5.7196919e-07
1.485601e-09
5.7182128e-07
5.9832471e-10
5.7173682e-07
-2.8203704e-10
5.7171164e-07
-1.1712613e-09
5.7174457e-07
-2.0855441e-09
5.7183738e-07
-3.0422285e-09
5.7199488e-07
-4.0606108e-09
5.7222538e-07
-5.1628864e-09
5.7254148e-07
-6.3753016e-09
5.7296126e-07
-7.729588e-09
5.7351013e-07
-9.2647605e-09
5.7422362e-07
-1.1029425e-08
5.7515159e-07
-1.308481e-08
5.7636452e-07
-1.550819e-08
5.7796275e-07
-1.8396973e-08
5.8009398e-07
-2.1875347e-08
5.8297485e-07
-2.6099115e-08
5.868984e-07
-3.1477678e-08
5.9272451e-07
-3.9644053e-08
6.0490317e-07
-4.9162653e-08
6.2826403e-07
-3.8573196e-08
6.012162e-07
3.1685784e-07
3.2860995e-08
2.3309458e-07
5.5245916e-08
5.7321657e-07
4.9227542e-08
6.5297042e-07
3.9057149e-08
6.2668921e-07
3.2426548e-08
6.0545026e-07
2.7514885e-08
5.9591453e-07
2.343516e-08
5.9006678e-07
1.9999805e-08
5.8576175e-07
1.7092257e-08
5.825439e-07
1.4610287e-08
5.8011718e-07
1.2470101e-08
5.7826642e-07
1.0604442e-08
5.7684246e-07
8.9590618e-09
5.7573993e-07
7.489759e-09
5.7488381e-07
6.1601962e-09
5.7422009e-07
4.9401388e-09
5.7370967e-07
3.804013e-09
5.7332422e-07
2.7297295e-09
5.7304347e-07
1.6977066e-09
5.728533e-07
6.9003961e-10
5.7274448e-07
-3.1023118e-10
5.7271191e-07
-1.3197948e-09
5.7275413e-07
-2.3557356e-09
5.7287332e-07
-3.4362164e-09
5.7307536e-07
-4.5812197e-09
5.7337039e-07
-5.8133957e-09
5.7377366e-07
-7.1590583e-09
5.7430692e-07
-8.6493867e-09
5.7500046e-07
-1.0321875e-08
5.7589611e-07
-1.2222109e-08
5.7705183e-07
-1.4406152e-08
5.7854856e-07
-1.6943443e-08
5.8050004e-07
-1.9918833e-08
5.8306937e-07
-2.3433116e-08
5.8648913e-07
-2.7627719e-08
5.91093e-07
-3.3020839e-08
5.9811763e-07
-4.0997079e-08
6.1287941e-07
-4.767563e-08
6.3494258e-07
-3.3370017e-08
5.8691059e-07
2.8348782e-07
2.6187099e-08
2.0690755e-07
5.0127759e-08
5.4927599e-07
4.8487534e-08
6.5461066e-07
3.9485377e-08
6.3569135e-07
3.3072162e-08
6.1186347e-07
2.8407056e-08
6.0057964e-07
2.4488356e-08
5.9398548e-07
2.1114228e-08
5.8913588e-07
1.8203779e-08
5.8545435e-07
1.5677775e-08
5.8264318e-07
1.346707e-08
5.8047713e-07
1.1514477e-08
5.7879505e-07
9.772471e-09
5.7748194e-07
8.2012532e-09
5.7645503e-07
6.7672818e-09
5.7565407e-07
5.4420016e-09
5.7503495e-07
4.2007551e-09
5.7456546e-07
3.0218592e-09
5.7422236e-07
1.8858078e-09
5.7398935e-07
7.7456879e-10
5.7385572e-07
-3.2905266e-10
5.7381553e-07
-1.4420096e-09
5.7386709e-07
-2.5816065e-09
5.7401291e-07
-3.7661013e-09
5.7425985e-07
-5.0153489e-09
5.7461963e-07
-6.3515155e-09
5.7510983e-07
-7.7998907e-09
5.757553e-07
-9.3898353e-09
5.7659041e-07
-1.1155888e-08
5.7766217e-07
-1.3139036e-08
5.7903497e-07
-1.5388361e-08
5.8079789e-07
-1.7963159e-08
5.8307484e-07
-2.0932897e-08
5.8603911e-07
-2.4372787e-08
5.8992902e-07
-2.8418332e-08
5.9513855e-07
-3.3674439e-08
6.0337374e-07
-4.1045614e-08
6.2025059e-07
-4.4782658e-08
6.3867962e-07
-2.8197593e-08
5.7032552e-07
2.5529023e-07
2.0568796e-08
1.8633884e-07
4.4577334e-08
5.2526757e-07
4.6635374e-08
6.5255264e-07
3.9145949e-08
6.4318076e-07
3.3077121e-08
6.1793229e-07
2.8711342e-08
6.0494542e-07
2.5032385e-08
5.9766444e-07
2.1798694e-08
5.9236957e-07
1.8954941e-08
5.882981e-07
1.6445061e-08
5.8515306e-07
1.4215548e-08
5.8270664e-07
1.2220209e-08
5.8079039e-07
1.0419253e-08
5.792829e-07
8.7783113e-09
5.7809597e-07
7.2676175e-09
5.7716476e-07
5.8611928e-09
5.7644137e-07
4.5361067e-09
5.7589055e-07
3.2718115e-09
5.7548666e-07
2.0495351e-09
5.7521163e-07
8.5172459e-10
5.7505353e-07
-3.3847447e-10
5.7500573e-07
-1.5377136e-09
5.7506633e-07
-2.7629388e-09
5.7523814e-07
-4.0318921e-09
5.755288e-07
-5.3636357e-09
5.7595138e-07
-6.7791179e-09
5.7652531e-07
-8.3017901e-09
5.7727797e-07
-9.9582923e-09
5.7824691e-07
-1.1779219e-08
5.7948309e-07
-1.3799913e-08
5.8105567e-07
-1.6061379e-08
5.8305935e-07
-1.8611479e-08
5.8562494e-07
-2.1503335e-08
5.8893097e-07
-2.4790988e-08
5.9321668e-07
-2.8620573e-08
5.9896813e-07
-3.3638984e-08
6.0839215e-07
-4.0122988e-08
6.2673459e-07
-4.1141798e-08
6.3969843e-07
-2.3409285e-08
5.5259301e-07
2.3188094e-07
1.6013136e-08
1.7032581e-07
3.9137052e-08
5.0214381e-07
4.4109287e-08
6.4758046e-07
3.8280558e-08
6.4900948e-07
3.2645521e-08
6.2356731e-07
2.8583767e-08
6.0900717e-07
2.5176392e-08
6.0107181e-07
2.2129548e-08
5.9541642e-07
1.9399337e-08
5.9102831e-07
1.6949687e-08
5.8760271e-07
1.4741608e-08
5.8491472e-07
1.2739492e-08
5.8279251e-07
1.0911412e-08
5.8111098e-07
9.2288345e-09
5.7977855e-07
7.6662705e-09
5.7872732e-07
6.2008577e-09
5.7790678e-07
4.811934e-09
5.7727947e-07
3.4806102e-09
5.7681798e-07
2.1893487e-09
5.7650289e-07
9.2155533e-10
5.7632132e-07
-3.3881766e-10
5.762661e-07
-1.607658e-09
5.7633517e-07
-2.9010854e-09
5.7653157e-07
-4.2358421e-09
5.7686356e-07
-5.6296923e-09
5.7734523e-07
-7.1018363e-09
5.7799745e-07
-8.673338e-09
5.7884947e-07
-1.0367563e-08
5.7994113e-07
-1.2210635e-08
5.8132616e-07
-1.4231854e-08
5.8307689e-07
-1.646406e-08
5.8529156e-07
-1.8944023e-08
5.881049e-07
-2.17099e-08
5.9169684e-07
-2.4802186e-08
5.9630896e-07
-2.8389601e-08
6.0255555e-07
-3.3098809e-08
6.1310136e-07
-3.8524125e-08
6.3215991e-07
-3.7195524e-08
6.3836983e-07
-1.9174458e-08
5.3457194e-07
2.1270648e-07
1.2421148e-08
1.5790477e-07
3.4105994e-08
4.8045916e-07
4.1238465e-08
6.4044807e-07
3.7067331e-08
6.531806e-07
3.1931453e-08
6.2870318e-07
2.8159018e-08
6.127796e-07
2.5023979e-08
6.0420685e-07
2.2184008e-08
5.9825639e-07
1.959404e-08
5.9361828e-07
1.7233475e-08
5.8996327e-07
1.5075664e-08
5.8707253e-07
1.309428e-08
5.8477389e-07
1.1264671e-08
5.8294058e-07
9.5639657e-09
5.8147925e-07
7.971029e-09
5.8032026e-07
6.4663312e-09
5.7941148e-07
5.0317689e-09
5.7871403e-07
3.6504381e-09
5.7819931e-07
2.3063777e-09
5.7784695e-07
9.8430006e-10
5.776434e-07
-3.3068663e-10
5.7758109e-07
-1.6533569e-09
5.7765784e-07
-2.9986538e-09
5.7787686e-07
-4.3819699e-09
5.7824688e-07
-5.8194256e-09
5.7878268e-07
-7.3281423e-09
5.7950617e-07
-8.926502e-09
5.8044783e-07
-1.063438e-08
5.8164901e-07
-1.2473351e-08
5.8316513e-07
-1.4466855e-08
5.8507039e-07
-1.6640224e-08
5.8746493e-07
-1.9020366e-08
5.9048504e-07
-2.16328e-08
5.9430928e-07
-2.4511724e-08
5.9918788e-07
-2.7851425e-08
6.0589525e-07
-3.2196573e-08
6.174465e-07
-3.6491147e-08
6.3645448e-07
-3.3245074e-08
6.3512376e-07
-1.5554759e-08
5.1688163e-07
1.9715172e-07
9.6542074e-09
1.482507e-07
2.9636451e-08
4.6047717e-07
3.8269537e-08
6.3181511e-07
3.5644404e-08
6.5580572e-07
3.1046053e-08
6.333015e-07
2.7541422e-08
6.1628423e-07
2.4661677e-08
6.070866e-07
2.2030813e-08
6.0088725e-07
1.9592888e-08
5.9605621e-07
1.7337911e-08
5.9221825e-07
1.5249253e-08
5.8916119e-07
1.3308313e-08
5.8671483e-07
1.149674e-08
5.8475216e-07
9.7967871e-09
5.831792e-07
8.1914302e-09
5.8192562e-07
6.6644264e-09
5.8093848e-07
5.2003079e-09
5.8017815e-07
3.7843074e-09
5.7961531e-07
2.4022368e-09
5.7922902e-07
1.0403363e-09
5.790053e-07
-3.1489593e-10
5.7893632e-07
-1.676883e-09
5.7901983e-07
-3.0591568e-09
5.7925914e-07
-4.4755384e-09
5.7966326e-07
-5.9403076e-09
5.8024745e-07
-7.4683554e-09
5.8103422e-07
-9.0753069e-09
5.8205478e-07
-1.0777597e-08
5.833513e-07
-1.2592498e-08
5.8498004e-07
-1.4538116e-08
5.8701601e-07
-1.663321e-08
5.8956002e-07
-1.889628e-08
5.9274811e-07
-2.1342865e-08
5.9675586e-07
-2.4007074e-08
6.0185209e-07
-2.7104851e-08
6.0899302e-07
-3.1050396e-08
6.2139205e-07
-3.4228153e-08
6.3963224e-07
-2.9495552e-08
6.3039116e-07
-1.2545518e-08
4.9993159e-07
1.8460621e-07
7.5634863e-09
1.4068738e-07
2.577607e-08
4.422649e-07
3.5373339e-08
6.2221802e-07
3.4121596e-08
6.5705747e-07
3.0072265e-08
6.3735081e-07
2.6810922e-08
6.1954556e-07
2.4159128e-08
6.0973839e-07
2.1727704e-08
6.0331868e-07
1.9443126e-08
5.9834078e-07
1.7301021e-08
5.9436036e-07
1.5292488e-08
5.9116972e-07
1.3405126e-08
5.8860219e-07
1.1625798e-08
5.8653149e-07
9.9411667e-09
5.8486384e-07
8.337891e-09
5.8352889e-07
6.8027918e-09
5.8247358e-07
5.3229535e-09
5.8165799e-07
3.8857559e-09
5.8105251e-07
2.4788559e-09
5.8063592e-07
1.0901313e-09
5.8039403e-07
-2.9240033e-10
5.8031885e-07
-1.6806749e-09
5.804081e-07
-3.0866841e-09
5.8066514e-07
-4.5225691e-09
5.8109914e-07
-6.0006996e-09
5.8172558e-07
-7.5337285e-09
5.8256724e-07
-9.1346103e-09
5.8365566e-07
-1.0816567e-08
5.8503326e-07
-1.2592995e-08
5.8675646e-07
-1.4477352e-08
5.8890036e-07
-1.6482845e-08
5.9156551e-07
-1.8621098e-08
5.9488636e-07
-2.090065e-08
5.9903541e-07
-2.3360614e-08
6.0431206e-07
-2.6230183e-08
6.1186259e-07
-2.9761299e-08
6.2492316e-07
-3.1896751e-08
6.4176769e-07
-2.6069262e-08
6.2456367e-07
-1.0100067e-08
4.839624e-07
1.7450614e-07
6.008408e-09
1.3467916e-07
2.2503054e-08
4.2577064e-07
3.26517e-08
6.1206961e-07
3.2579309e-08
6.5712988e-07
2.907013e-08
6.4085995e-07
2.6027636e-08
6.2258804e-07
2.3571622e-08
6.1219441e-07
2.1322219e-08
6.0556808e-07
1.9184909e-08
6.0047809e-07
1.7156211e-08
5.9638905e-07
1.5232722e-08
5.9309321e-07
1.340679e-08
5.9042812e-07
1.1669405e-08
5.8826887e-07
1.0010868e-08
5.8652237e-07
8.4210064e-09
5.8511875e-07
6.8893762e-09
5.8400521e-07
5.4054235e-09
5.8314194e-07
3.9585833e-09
5.8249935e-07
2.5383314e-09
5.8205617e-07
1.1342002e-09
5.8179816e-07
-2.642322e-10
5.8171728e-07
-1.6673667e-09
5.8181123e-07
-3.0856153e-09
5.8208339e-07
-4.5294247e-09
5.8254295e-07
-6.009284e-09
5.8320544e-07
-7.5357058e-09
5.8409367e-07
-9.11917e-09
5.8523913e-07
-1.0770018e-08
5.866841e-07
-1.2498295e-08
5.8848474e-07
-1.4313569e-08
5.9071564e-07
-1.6224557e-08
5.934765e-07
-1.8237589e-08
5.968994e-07
-2.0357283e-08
6.0115511e-07
-2.2631299e-08
6.0658607e-07
-2.5290949e-08
6.1452224e-07
-2.8409829e-08
6.2804204e-07
-2.9611093e-08
6.4296895e-07
-2.3021433e-08
6.1797401e-07
-8.1499411e-09
4.6909091e-07
1.663562e-07
4.8662666e-09
1.2981311e-07
1.9758839e-08
4.1087853e-07
3.0152865e-08
6.016759e-07
3.1069849e-08
6.5621295e-07
2.8079092e-08
6.4385067e-07
2.5233802e-08
6.2543331e-07
2.2941239e-08
6.1448697e-07
2.0852365e-08
6.0765695e-07
1.8851474e-08
6.0247899e-07
1.6932001e-08
5.9830853e-07
1.5093993e-08
5.9493122e-07
1.3333234e-08
5.9218888e-07
1.1643822e-08
5.8995828e-07
1.0018937e-08
5.8814726e-07
8.4510284e-09
5.8668666e-07
6.9320108e-09
5.8552423e-07
5.4534369e-09
5.8462052e-07
4.0066344e-09
5.8394615e-07
2.5828016e-09
5.8348e-07
1.1730717e-09
5.8320789e-07
-2.3144703e-10
5.831218e-07
-1.639643e-09
5.8321943e-07
-3.0603802e-09
5.8350413e-07
-4.5024688e-09
5.8398504e-07
-5.97462e-09
5.8467759e-07
-7.4853761e-09
5.8560442e-07
-9.0430067e-09
5.8679676e-07
-1.0655366e-08
5.8829646e-07
-1.2329708e-08
5.9015908e-07
-1.4072496e-08
5.9245843e-07
-1.5888986e-08
5.9529299e-07
-1.7781743e-08
5.9879215e-07
-1.9754265e-08
6.0312763e-07
-2.1864481e-08
6.0869629e-07
-2.4333825e-08
6.1699159e-07
-2.7054684e-08
6.307629e-07
-2.7443243e-08
6.4335751e-07
-2.0361399e-08
6.1089216e-07
-6.6194789e-09
4.5534899e-07
1.5973672e-07
4.0347012e-09
1.2577867e-07
1.7470933e-08
3.9744286e-07
2.7890768e-08
5.9125646e-07
2.9623804e-08
6.5448e-07
2.7122299e-08
6.4635213e-07
2.4456555e-08
6.2809903e-07
2.229807e-08
6.1664545e-07
2.0347171e-08
6.0960785e-07
1.8469347e-08
6.0435681e-07
1.6651982e-08
6.0012589e-07
1.4896794e-08
5.966864e-07
1.3201898e-08
5.9388378e-07
1.1563614e-08
5.9159657e-07
9.9773027e-09
5.8973357e-07
8.4375072e-09
5.8822646e-07
6.9381061e-09
5.8702363e-07
5.4724749e-09
5.8608615e-07
4.033631e-09
5.85385e-07
2.6143503e-09
5.8489928e-07
1.2072618e-09
5.8461498e-07
-1.9507815e-10
5.8452414e-07
-1.6001217e-09
5.8462447e-07
-3.01527e-09
5.8491928e-07
-4.4478064e-09
5.8541758e-07
-5.9048166e-09
5.861346e-07
-7.3930875e-09
5.8709269e-07
-8.9189791e-09
5.8832265e-07
-1.0488271e-08
5.8986575e-07
-1.2105984e-08
5.9177679e-07
-1.377621e-08
5.9412865e-07
-1.5501674e-08
5.9701846e-07
-1.7282543e-08
6.0057302e-07
-1.9123497e-08
6.0496858e-07
-2.1092816e-08
6.1066561e-07
-2.3390737e-08
6.1928951e-07
-2.5735566e-08
6.3310773e-07
-2.5432916e-08
6.4305486e-07
-1.80706e-08
6.0352985e-07
-5.4343003e-09
4.4271269e-07
1.5430242e-07
3.4310354e-09
1.2234795e-07
1.5565512e-08
3.8530904e-07
2.5858765e-08
5.8096372e-07
2.8256549e-08
6.5208234e-07
2.6211565e-08
6.4839707e-07
2.3711724e-08
6.3059884e-07
2.1662371e-08
6.186948e-07
1.9827805e-08
6.1144242e-07
1.8058901e-08
6.0612571e-07
1.6335018e-08
6.0184977e-07
1.4658064e-08
5.9836336e-07
1.3027603e-08
5.9551424e-07
1.1441454e-08
5.9318272e-07
9.8965557e-09
5.9127847e-07
8.3890652e-09
5.8973395e-07
6.9144494e-09
5.8849825e-07
5.4676168e-09
5.8753298e-07
4.0430517e-09
5.8680956e-07
2.634936e-09
5.863074e-07
1.2372564e-09
5.8601265e-07
-1.5610158e-10
5.859175e-07
-1.5512666e-09
5.8601964e-07
-2.9542984e-09
5.8632231e-07
-4.3710976e-09
5.8683437e-07
-5.8073064e-09
5.8757081e-07
-7.2681923e-09
5.8855358e-07
-8.7585144e-09
5.8981297e-07
-1.0282378e-08
5.9138962e-07
-1.1843086e-08
5.933375e-07
-1.3443002e-08
5.9572857e-07
-1.5083112e-08
5.9865857e-07
-1.6762354e-08
6.0225226e-07
-1.848833e-08
6.0669456e-07
-2.0338463e-08
6.1251574e-07
-2.2482109e-08
6.2143315e-07
-2.4477279e-08
6.351029e-07
-2.3596902e-08
6.4217449e-07
-1.6115028e-08
5.9604797e-07
-4.5259902e-09
4.3112365e-07
1.4977643e-07
2.9906385e-09
1.1935768e-07
1.3974097e-08
3.7432637e-07
2.4038971e-08
5.7089947e-07
2.6973195e-08
6.4914831e-07
2.5351218e-08
6.5001901e-07
2.3007272e-08
6.3294274e-07
2.1046943e-08
6.2065512e-07
1.9309091e-08
6.1318027e-07
1.7635267e-08
6.0779954e-07
1.5995742e-08
6.034893e-07
1.4391414e-08
5.9996769e-07
1.2822604e-08
5.9708305e-07
1.1288073e-08
5.9471725e-07
9.7858457e-09
5.9278069e-07
8.3132789e-09
5.9120651e-07
6.8670877e-09
5.8994444e-07
5.4434375e-09
5.8895663e-07
4.0380562e-09
5.8821494e-07
2.6463476e-09
5.8769911e-07
1.2635003e-09
5.873955e-07
-1.154107e-10
5.8729641e-07
-1.4953266e-09
5.8739955e-07
-2.8811088e-09
5.8770809e-07
-4.2774379e-09
5.882307e-07
-5.6887066e-09
5.8898208e-07
-7.1189016e-09
5.8998377e-07
-8.5714778e-09
5.9126555e-07
-1.0049233e-08
5.9286737e-07
-1.1554203e-08
5.9484247e-07
-1.3087554e-08
5.9726192e-07
-1.4649192e-08
6.0022021e-07
-1.6237795e-08
6.0384086e-07
-1.7865065e-08
6.0832183e-07
-1.9615445e-08
6.1426612e-07
-2.1619738e-08
6.2343745e-07
-2.3293248e-08
6.3677641e-07
-2.193633e-08
6.4081757e-07
-1.4453621e-08
5.8856526e-07
-3.8346484e-09
4.2050467e-07
1.4594178e-07
2.6646719e-09
1.1669344e-07
1.263693e-08
3.6435503e-07
2.2408608e-08
5.6112857e-07
2.5772334e-08
6.4578485e-07
2.4540805e-08
6.5125051e-07
2.2345846e-08
6.3513764e-07
2.0459136e-08
6.2254181e-07
1.8800951e-08
6.1483846e-07
1.7209337e-08
6.0939115e-07
1.5645208e-08
6.0505343e-07
1.410751e-08
6.0150538e-07
1.2596795e-08
5.9859376e-07
1.1112348e-08
5.9620169e-07
9.6528955e-09
5.9424014e-07
8.21665e-09
5.9264276e-07
6.8012805e-09
5.9135981e-07
5.4039589e-09
5.9035395e-07
4.0214442e-09
5.8959746e-07
2.6501794e-09
5.8907037e-07
1.2863933e-09
5.8875929e-07
-7.3799518e-11
5.886566e-07
-1.4342988e-09
5.8876005e-07
-2.7989207e-09
5.8907271e-07
-4.1712941e-09
5.8960308e-07
-5.5547556e-09
5.9036554e-07
-6.9522389e-09
5.9138126e-07
-8.3661655e-09
5.9267947e-07
-9.7983484e-09
5.9429956e-07
-1.1249929e-08
5.9629405e-07
-1.2721314e-08
5.987333e-07
-1.4211846e-08
6.0171074e-07
-1.5720719e-08
6.0534974e-07
-1.7264398e-08
6.0986551e-07
-1.8931623e-08
6.1593335e-07
-2.0809042e-08
6.2531486e-07
-2.2188546e-08
6.3815591e-07
-2.044245e-08
6.3907147e-07
-1.3043849e-08
5.8116666e-07
-3.3098692e-09
4.1077069e-07
1.4263191e-07
2.417395e-09
1.1427655e-07
1.1504085e-08
3.5526943e-07
2.0944092e-08
5.516895e-07
2.4648934e-08
6.4208037e-07
2.3777091e-08
6.5212234e-07
2.1726668e-08
6.37188e-07
1.9902417e-08
6.2436604e-07
1.8309607e-08
6.1643127e-07
1.6788671e-08
6.1091209e-07
1.5291544e-08
6.0655055e-07
1.3814523e-08
6.0298241e-07
1.2357993e-08
6.0005029e-07
1.0921469e-08
5.9763822e-07
9.5040872e-09
5.9565753e-07
8.1046402e-09
5.940422e-07
6.721505e-09
5.9274294e-07
5.3526411e-09
5.9172281e-07
3.9956443e-09
5.9095445e-07
2.6478235e-09
5.9041819e-07
1.3062892e-09
5.9010082e-07
-3.195357e-11
5.8999484e-07
-1.369912e-09
5.9009801e-07
-2.7105091e-09
5.9041331e-07
-4.0564872e-09
5.9094905e-07
-5.4103102e-09
5.9171936e-07
-6.7740671e-09
5.9274501e-07
-8.1493842e-09
5.9405479e-07
-9.5373616e-09
5.9568753e-07
-1.0938552e-08
5.9769524e-07
-1.2352936e-08
6.0014768e-07
-1.3779694e-08
6.031375e-07
-1.5219129e-08
6.0678917e-07
-1.6692666e-08
6.1133904e-07
-1.8290328e-08
6.1753101e-07
-2.0050943e-08
6.2707548e-07
-2.1162561e-08
6.3926753e-07
-1.9101173e-08
6.3701008e-07
-1.1845523e-08
5.7391101e-07
-2.9106443e-09
4.0183582e-07
1.3972127e-07
2.2234269e-09
1.1205371e-07
1.0535091e-08
3.4695903e-07
1.9623324e-08
5.426024e-07
2.3596381e-08
6.3810778e-07
2.3055528e-08
6.526632e-07
2.1146965e-08
6.3909649e-07
1.9377616e-08
6.2613536e-07
1.7838568e-08
6.1797031e-07
1.6378263e-08
6.123724e-07
1.4940536e-08
6.0798828e-07
1.3518553e-08
6.0440439e-07
1.2112243e-08
6.014566e-07
1.0721144e-08
5.9902932e-07
9.3445916e-09
5.9703408e-07
7.9817488e-09
5.9540505e-07
6.6314991e-09
5.9409319e-07
5.2924034e-09
5.9306191e-07
3.9627228e-09
5.9228413e-07
2.6404736e-09
5.9174044e-07
1.3234994e-09
5.914178e-07
9.551982e-12
5.9130879e-07
-1.3036258e-09
5.9141119e-07
-2.6182095e-09
5.9172789e-07
-3.9362097e-09
5.9226705e-07
-5.2593851e-09
5.9304254e-07
-6.5891644e-09
5.9407479e-07
-7.9265817e-09
5.9539221e-07
-9.2722462e-09
5.970332e-07
-1.0626361e-08
5.9904936e-07
-1.1988725e-08
6.0151005e-07
-1.3358659e-08
6.0450743e-07
-1.4737998e-08
6.0816851e-07
-1.6152953e-08
6.12754e-07
-1.769175e-08
6.190698e-07
-1.9343451e-08
6.2872718e-07
-2.0211194e-08
6.4013528e-07
-1.7896199e-08
6.3469509e-07
-1.0822742e-08
5.6683755e-07
-2.6045191e-09
3.9361759e-07
1.3711675e-07
2.0652813e-09
1.0998911e-07
9.6978229e-09
3.3932798e-07
1.8426733e-08
5.3387485e-07
2.2607766e-08
6.3392736e-07
2.2371236e-08
6.5289977e-07
2.0602989e-08
6.4086465e-07
1.8883891e-08
6.2785442e-07
1.7389434e-08
6.1946476e-07
1.5981191e-08
6.1378064e-07
1.4596142e-08
6.0937333e-07
1.322403e-08
6.057765e-07
1.1864109e-08
6.0281652e-07
1.0515808e-08
6.0037762e-07
9.1785173e-09
5.9837137e-07
7.851613e-09
5.9673195e-07
6.5343261e-09
5.9541048e-07
5.2256646e-09
5.9437057e-07
3.9244075e-09
5.9358539e-07
2.6291376e-09
5.9303571e-07
1.3382959e-09
5.9270864e-07
5.0248459e-11
5.9259684e-07
-1.2366421e-09
5.9269808e-07
-2.5239407e-09
5.9301519e-07
-3.813066e-09
5.9355618e-07
-5.1052204e-09
5.9433469e-07
-6.4013297e-09
5.953709e-07
-7.702004e-09
5.9669288e-07
-9.0075375e-09
5.9833873e-07
-1.031796e-08
6.0035978e-07
-1.1633069e-08
6.0282516e-07
-1.2952538e-08
6.058269e-07
-1.428001e-08
6.0949598e-07
-1.564603e-08
6.1412002e-07
-1.7134051e-08
6.2055783e-07
-1.8682879e-08
6.3027601e-07
-1.9328466e-08
6.4078086e-07
-1.6810965e-08
6.3217759e-07
-9.9444171e-09
5.59971e-07
-2.3663797e-09
3.8603956e-07
1.3475037e-07
1.9312853e-09
1.0805862e-07
8.9671438e-09
3.3229384e-07
1.7337565e-08
5.2550604e-07
2.1676584e-08
6.2958911e-07
2.1719572e-08
6.5285687e-07
2.0090687e-08
6.4249345e-07
1.8419432e-08
6.2952563e-07
1.6962523e-08
6.2092167e-07
1.5599152e-08
6.1514401e-07
1.4260936e-08
6.1071155e-07
1.2934063e-08
6.0710337e-07
1.161695e-08
6.0413364e-07
1.0308834e-08
6.0168573e-07
9.0090642e-09
5.9967114e-07
7.717118e-09
5.980239e-07
6.4324513e-09
5.9669515e-07
5.1543942e-09
5.9564863e-07
3.8821196e-09
5.9485767e-07
2.6146548e-09
5.9430317e-07
1.3509183e-09
5.9397237e-07
8.9771622e-11
5.9385798e-07
-1.169923e-09
5.9395777e-07
-2.4292394e-09
5.9427451e-07
-3.6891287e-09
5.9481607e-07
-4.9503646e-09
5.9559593e-07
-6.2135026e-09
5.9663404e-07
-7.4788636e-09
5.9795824e-07
-8.7465614e-09
5.9960643e-07
-1.0016581e-08
6.016298e-07
-1.1288835e-08
6.0409741e-07
-1.2563505e-08
6.0710157e-07
-1.3846192e-08
6.1077867e-07
-1.5171108e-08
6.1544493e-07
-1.66142e-08
6.2200092e-07
-1.8064706e-08
6.3172651e-07
-1.8507628e-08
6.4122378e-07
-1.5829826e-08
6.2949978e-07
-9.1843948e-09
5.5332557e-07
-2.177252e-09
3.7903241e-07
1.3257311e-07
1.8138957e-09
1.0624564e-07
8.3235495e-09
3.2578618e-07
1.634177e-08
5.1748973e-07
2.0797065e-08
6.2513477e-07
2.1096409e-08
6.5255767e-07
1.9606103e-08
6.4398365e-07
1.7981935e-08
6.3114974e-07
1.655733e-08
6.2234626e-07
1.5232875e-08
6.1646847e-07
1.3936465e-08
6.1200796e-07
1.2650744e-08
6.0838909e-07
1.1373165e-08
6.0541121e-07
1.0102723e-08
6.0295617e-07
8.8386717e-09
6.0093519e-07
7.5805085e-09
5.9928206e-07
6.327823e-09
5.9794783e-07
5.0801687e-09
5.9689628e-07
3.8370102e-09
5.9610082e-07
2.5977156e-09
5.9554247e-07
1.3615769e-09
5.9520851e-07
1.2784699e-10
5.9509171e-07
-1.1042167e-09
5.9518984e-07
-2.3353027e-09
5.9550559e-07
-3.5660012e-09
5.9604677e-07
-4.7967652e-09
5.9682669e-07
-6.0278876e-09
5.9786516e-07
-7.2595058e-09
5.9918986e-07
-8.4916529e-09
6.0083857e-07
-9.7243559e-09
6.028625e-07
-1.0957721e-08
6.0533078e-07
-1.2192535e-08
6.0833638e-07
-1.343641e-08
6.1202254e-07
-1.4726419e-08
6.1673494e-07
-1.6128571e-08
6.2340307e-07
-1.7484169e-08
6.3308211e-07
-1.77419e-08
6.4148151e-07
-1.4938685e-08
6.2669657e-07
-8.5211292e-09
5.4690802e-07
-2.0231343e-09
3.7253442e-07
1.3054998e-07
1.7083899e-09
1.045383e-07
7.751947e-09
3.1974494e-07
1.5427683e-08
5.0981623e-07
1.9964264e-08
6.2059937e-07
2.0498249e-08
6.5202391e-07
1.9145595e-08
6.4533621e-07
1.7568919e-08
6.3272635e-07
1.617285e-08
6.2374232e-07
1.4882426e-08
6.177589e-07
1.3623534e-08
6.1326685e-07
1.2375394e-08
6.0963723e-07
1.1134401e-08
6.0665221e-07
9.8992799e-09
6.0419129e-07
8.6691545e-09
6.0216532e-07
7.4434932e-09
6.0050772e-07
6.2219511e-09
5.9916937e-07
5.0042279e-09
5.9811401e-07
3.7899971e-09
5.9731505e-07
2.5788814e-09
5.9675358e-07
1.3704583e-09
5.9641693e-07
1.6428263e-10
5.9629789e-07
-1.0400831e-09
5.963942e-07
-2.2430322e-09
5.9670854e-07
-3.444884e-09
5.9724862e-07
-4.6458597e-09
5.9802767e-07
-5.8460754e-09
5.9906538e-07
-7.045566e-09
6.0038935e-07
-8.2443542e-09
6.0203736e-07
-9.4425655e-09
6.0406071e-07
-1.0640545e-08
6.0652875e-07
-1.1839746e-08
6.0953558e-07
-1.3049764e-08
6.1323256e-07
-1.4309634e-08
6.1799481e-07
-1.5673354e-08
6.2476679e-07
-1.6936646e-08
6.343454e-07
-1.7024909e-08
6.4156978e-07
-1.4125232e-08
6.2379689e-07
-7.937147e-09
5.4071993e-07
-1.8939226e-09
3.6649119e-07
1.2865606e-07
1.6118953e-09
1.0292762e-07
7.2406198e-09
3.1411888e-07
1.4585643e-08
5.0247383e-07
1.9174021e-08
6.1601244e-07
1.9922217e-08
6.5127603e-07
1.8705936e-08
6.4655239e-07
1.7177915e-08
6.3425428e-07
1.5807803e-08
6.2511241e-07
1.4547438e-08
6.1901926e-07
1.3322419e-08
6.1449187e-07
1.2108758e-08
6.1085089e-07
1.0901726e-08
6.0785924e-07
9.6997533e-09
6.0539327e-07
8.5018231e-09
6.0336325e-07
7.3073414e-09
6.017022e-07
6.1159807e-09
6.0036073e-07
4.9275284e-09
5.9930246e-07
3.7418007e-09
5.9850078e-07
2.5586047e-09
5.9793678e-07
1.3777296e-09
5.9759781e-07
1.9895697e-10
5.9747666e-07
-9.7792118e-10
5.9757108e-07
-2.1530789e-09
5.978837e-07
-3.3266389e-09
5.9842218e-07
-4.4986619e-09
5.9919969e-07
-5.6691551e-09
6.0023587e-07
-6.8381097e-09
6.0155831e-07
-8.0055869e-09
6.0320484e-07
-9.1718425e-09
6.0522697e-07
-1.0337484e-08
6.076944e-07
-1.1504669e-08
6.1070277e-07
-1.2684875e-08
6.1441277e-07
-1.3918167e-08
6.192281e-07
-1.5244823e-08
6.2609344e-07
-1.641788e-08
6.3551846e-07
-1.6350916e-08
6.4150281e-07
-1.3378942e-08
6.2082492e-07
-7.4184343e-09
5.3475942e-07
-1.782479e-09
3.6085524e-07
1.2687358e-07
1.5227005e-09
1.0140632e-07
6.7803959e-09
3.0886425e-07
1.3807606e-08
4.9544968e-07
1.8422847e-08
6.1139895e-07
1.9365991e-08
6.5033333e-07
1.8284333e-08
6.4763395e-07
1.6806575e-08
6.3573193e-07
1.5460783e-08
6.2645817e-07
1.4227269e-08
6.2025277e-07
1.3033029e-08
6.1568611e-07
1.1851163e-08