/*--------------------------------*- C++ -*----------------------------------*\
  =========                 |
  \\      /  F ield         | OpenFOAM: The Open Source CFD Toolbox
   \\    /   O peration     | Website:  https://openfoam.org
    \\  /    A nd           | Version:  10
     \\/     M anipulation  |
\*---------------------------------------------------------------------------*/
FoamFile
{
    format      ascii;
    class       surfaceScalarField;
    location    "0.19";
    object      phi_0;
}
// * * * * * * * * * * * * * * * * * * * * * * * * * * * * * * * * * * * * * //

dimensions      [1 0 -1 0 0 0 0];

internalField   nonuniform List<scalar> 
7860
(
3.9895739e-08
5.2881229e-07
1.219255e-08
5.9641099e-07
7.4277314e-09
5.7347256e-07
5.4992333e-09
5.706362e-07
4.1148126e-09
5.7009209e-07
3.2009701e-09
5.6962149e-07
2.5589925e-09
5.6934961e-07
2.0791867e-09
5.6918742e-07
1.7092237e-09
5.6907757e-07
1.4165794e-09
5.6900024e-07
1.1794579e-09
5.6894471e-07
9.8309591e-10
5.6890394e-07
8.1714927e-10
5.6887352e-07
6.7412732e-10
5.6885059e-07
5.4845629e-10
5.6883324e-07
4.358751e-10
5.6882014e-07
3.3302953e-10
5.6881041e-07
2.371918e-10
5.688034e-07
1.4605833e-10
5.6879869e-07
5.7597595e-11
5.6879602e-07
-3.0073838e-11
5.6879523e-07
-1.1879861e-10
5.6879628e-07
-2.1048376e-10
5.6879924e-07
-3.0720735e-10
5.6880428e-07
-4.1135058e-10
5.688117e-07
-5.2576109e-10
5.6882197e-07
-6.5397338e-10
5.6883578e-07
-8.0052185e-10
5.6885412e-07
-9.7140137e-10
5.6887845e-07
-1.1747739e-09
5.6891095e-07
-1.4221417e-09
5.6895495e-07
-1.7303171e-09
5.6901577e-07
-2.1242795e-09
5.6910157e-07
-2.6439118e-09
5.6922725e-07
-3.3716282e-09
5.6943535e-07
-4.4629883e-09
5.6979901e-07
-6.0084282e-09
5.7025311e-07
-9.5075001e-09
5.7220678e-07
-2.9575221e-08
5.8877547e-07
5.391327e-07
5.9671929e-08
4.6914037e-07
3.6665304e-08
6.1941761e-07
2.2627529e-08
5.8751034e-07
1.6252924e-08
5.770108e-07
1.2289871e-08
5.7405515e-07
9.6056549e-09
5.7230571e-07
7.6769295e-09
5.7127833e-07
6.235658e-09
5.7062869e-07
5.1262419e-09
5.7018698e-07
4.2486071e-09
5.6987787e-07
3.5374175e-09
5.696559e-07
2.9485026e-09
5.6949286e-07
2.4508154e-09
5.6937121e-07
2.0218789e-09
5.6927953e-07
1.6449768e-09
5.6921014e-07
1.3073298e-09
5.6915779e-07
9.9887885e-10
5.6911886e-07
7.1144355e-10
5.6909083e-07
4.3811617e-10
5.6907202e-07
1.7280311e-10
5.6906133e-07
-9.0144099e-11
5.6905817e-07
-3.5625074e-10
5.6906239e-07
-6.3123108e-10
5.6907422e-07
-9.2131956e-10
5.6909437e-07
-1.2336575e-09
5.6912404e-07
-1.5767842e-09
5.691651e-07
-1.9612991e-09
5.6922029e-07
-2.4008004e-09
5.6929362e-07
-2.9132735e-09
5.6939093e-07
-3.5232134e-09
5.6952089e-07
-4.2650414e-09
5.6969678e-07
-5.1891256e-09
5.6993985e-07
-6.3720941e-09
5.7028453e-07
-7.9326688e-09
5.7078782e-07
-1.0074076e-08
5.7157675e-07
-1.3202452e-08
5.7292738e-07
-1.8132572e-08
5.7518323e-07
-2.8174917e-08
5.8224912e-07
-4.5801181e-08
6.0640174e-07
4.9333152e-07
6.0007933e-08
4.0913244e-07
5.0485995e-08
6.2893955e-07
3.3369483e-08
6.0462684e-07
2.4816509e-08
5.8556378e-07
1.932211e-08
5.7954954e-07
1.5330436e-08
5.7629738e-07
1.235977e-08
5.74249e-07
1.0100754e-08
5.7288771e-07
8.3400087e-09
5.7194773e-07
6.9344106e-09
5.7128347e-07
5.7878781e-09
5.7080243e-07
4.8336437e-09
5.7044709e-07
4.0239398e-09
5.7018091e-07
3.323778e-09
5.6997969e-07
2.7068914e-09
5.6982703e-07
2.1530447e-09
5.6971164e-07
1.646209e-09
5.6962569e-07
1.1732816e-09
5.6956376e-07
7.2315191e-10
5.6952215e-07
2.8598805e-10
5.6949849e-07
-1.4734009e-10
5.694915e-07
-5.857671e-10
5.6950081e-07
-1.0385252e-09
5.6952698e-07
-1.5156647e-09
5.6957151e-07
-2.028656e-09
5.6963703e-07
-2.59115e-09
5.6972759e-07
-3.2199891e-09
5.6984913e-07
-3.9366187e-09
5.7001025e-07
-4.7691368e-09
5.7022344e-07
-5.7553578e-09
5.7050711e-07
-6.9474713e-09
5.7088889e-07
-8.4196801e-09
5.7141206e-07
-1.0281388e-08
5.7214624e-07
-1.2694473e-08
5.7320091e-07
-1.5892102e-08
5.7477438e-07
-2.0236177e-08
5.7727146e-07
-2.6704776e-08
5.8165183e-07
-3.8944378e-08
5.9448873e-07
-4.8164576e-08
6.1562193e-07
4.4516694e-07
5.4877883e-08
3.5425458e-07
5.745021e-08
6.2636722e-07
4.0465659e-08
6.2161139e-07
3.0776956e-08
5.9525248e-07
2.4641294e-08
5.8568521e-07
1.9950641e-08
5.8098803e-07
1.6311447e-08
5.7788819e-07
1.3465249e-08
5.7573391e-07
1.119993e-08
5.7421305e-07
9.3637803e-09
5.7311962e-07
7.8489124e-09
5.723173e-07
6.576834e-09
5.7171917e-07
5.489695e-09
5.7126805e-07
4.5441789e-09
5.7092521e-07
3.7071867e-09
5.7066402e-07
2.9528568e-09
5.7046597e-07
2.2604673e-09
5.7031808e-07
1.6129182e-09
5.7021131e-07
9.955995e-10
5.7013947e-07
3.9551175e-10
5.7009858e-07
-1.9945742e-10
5.7008647e-07
-8.0117334e-10
5.7010253e-07
-1.4218755e-09
5.7014768e-07
-2.0748317e-09
5.7022447e-07
-2.7750889e-09
5.7033729e-07
-3.5404012e-09
5.7049291e-07
-4.3924366e-09
5.7070117e-07
-5.3584103e-09
5.7097622e-07
-6.4733653e-09
5.713384e-07
-7.7834326e-09
5.7181718e-07
-9.3503984e-09
5.7245586e-07
-1.125809e-08
5.7331975e-07
-1.3622777e-08
5.7451093e-07
-1.6605814e-08
5.7618394e-07
-2.0404989e-08
5.7857356e-07
-2.5286979e-08
5.8215345e-07
-3.2511532e-08
5.8887638e-07
-4.5095296e-08
6.0707249e-07
-4.6545692e-08
6.1707233e-07
3.9862125e-07
4.7964365e-08
3.0629025e-07
6.0073805e-08
6.142578e-07
4.5397393e-08
6.362878e-07
3.4872782e-08
6.0577709e-07
2.8397365e-08
5.9216062e-07
2.3417254e-08
5.8596814e-07
1.9432139e-08
5.8187331e-07
1.6227275e-08
5.7893877e-07
1.361814e-08
5.7682218e-07
1.1465323e-08
5.7527244e-07
9.6636931e-09
5.7411893e-07
8.1332061e-09
5.7324966e-07
6.8128333e-09
5.7258842e-07
5.6555573e-09
5.7208248e-07
4.6245971e-09
5.7169498e-07
3.6906605e-09
5.713999e-07
2.8299027e-09
5.7117884e-07
2.022388e-09
5.7101882e-07
1.2509054e-09
5.7091095e-07
5.0002269e-10
5.7084946e-07
-2.4470548e-10
5.708312e-07
-9.9744832e-10
5.7085527e-07
-1.7727889e-09
5.7092302e-07
-2.5864469e-09
5.7103812e-07
-3.4560943e-09
5.7120694e-07
-4.4023393e-09
5.7143915e-07
-5.4499666e-09
5.7174879e-07
-6.6295463e-09
5.721558e-07
-7.9795613e-09
5.7268841e-07
-9.5492808e-09
5.733869e-07
-1.1402536e-08
5.7430911e-07
-1.3622145e-08
5.7553936e-07
-1.6316418e-08
5.772052e-07
-1.9628968e-08
5.7949649e-07
-2.3730077e-08
5.8267467e-07
-2.8922623e-08
5.87346e-07
-3.6783079e-08
5.9673684e-07
-4.8456049e-08
6.1874546e-07
-4.3189647e-08
6.1180593e-07
3.554316e-07
4.0334446e-08
2.6595585e-07
5.8990594e-08
5.9560168e-07
4.8326326e-08
6.4695206e-07
3.7584601e-08
6.1651881e-07
3.0925567e-08
5.9881966e-07
2.5890853e-08
5.9100286e-07
2.1777129e-08
5.8598703e-07
1.8389538e-08
5.8232636e-07
1.5575416e-08
5.796363e-07
1.3212708e-08
5.7763515e-07
1.1205469e-08
5.7612617e-07
9.478401e-09
5.7497672e-07
7.9723561e-09
5.7409447e-07
6.6404231e-09
5.7341441e-07
5.444968e-09
5.7289043e-07
4.3553658e-09
5.7248951e-07
3.3462209e-09
5.7218798e-07
2.3959676e-09
5.7196908e-07
1.4857521e-09
5.7182116e-07
5.9851215e-10
5.717367e-07
-2.8181349e-10
5.7171153e-07
-1.1710023e-09
5.7174446e-07
-2.0852507e-09
5.7183727e-07
-3.0419021e-09
5.7199477e-07
-4.0602533e-09
5.7222529e-07
-5.1625001e-09
5.725414e-07
-6.3748891e-09
5.7296118e-07
-7.7291524e-09
5.7351006e-07
-9.2643054e-09
5.7422357e-07
-1.1028954e-08
5.7515155e-07
-1.3084328e-08
5.7636449e-07
-1.5507702e-08
5.7796273e-07
-1.8396484e-08
5.8009398e-07
-2.1874863e-08
5.8297487e-07
-2.6098642e-08
5.8689844e-07
-3.1477219e-08
5.9272457e-07
-3.9643593e-08
6.0490321e-07
-4.9162224e-08
6.2826409e-07
-3.8572963e-08
6.0121667e-07
3.1685864e-07
3.28609e-08
2.33095e-07
5.5245685e-08
5.7321695e-07
4.9227274e-08
6.5297047e-07
3.9056895e-08
6.2668918e-07
3.2426304e-08
6.0545025e-07
2.7514647e-08
5.9591451e-07
2.3434933e-08
5.9006674e-07
1.9999593e-08
5.857617e-07
1.7092066e-08
5.8254383e-07
1.4610121e-08
5.8011709e-07
1.2469963e-08
5.7826632e-07
1.0604336e-08
5.7684235e-07
8.9589902e-09
5.7573981e-07
7.4897251e-09
5.7488368e-07
6.1602022e-09
5.7421996e-07
4.9401866e-09
5.7370952e-07
3.8041041e-09
5.7332407e-07
2.729865e-09
5.7304331e-07
1.697887e-09
5.7285314e-07
6.902652e-10
5.7274433e-07
-3.099607e-10
5.7271175e-07
-1.3194802e-09
5.7275398e-07
-2.3553782e-09
5.7287317e-07
-3.4358178e-09
5.7307521e-07
-4.5807822e-09
5.7337025e-07
-5.812922e-09
5.7377354e-07
-7.1585515e-09
5.7430681e-07
-8.6488507e-09
5.7500036e-07
-1.0321314e-08
5.7589603e-07
-1.2221527e-08
5.7705176e-07
-1.4405556e-08
5.7854852e-07
-1.6942837e-08
5.8050002e-07
-1.9918225e-08
5.8306937e-07
-2.3432512e-08
5.8648916e-07
-2.7627126e-08
5.9109306e-07
-3.3020255e-08
5.981177e-07
-4.0996489e-08
6.1287945e-07
-4.7675101e-08
6.349427e-07
-3.336975e-08
5.8691131e-07
2.8348889e-07
2.6186994e-08
2.0690808e-07
5.0127483e-08
5.4927655e-07
4.8487194e-08
6.5461077e-07
3.9485052e-08
6.356913e-07
3.3071853e-08
6.1186344e-07
2.8406756e-08
6.0057961e-07
2.4488069e-08
5.9398543e-07
2.1113961e-08
5.8913581e-07
1.8203538e-08
5.8545425e-07
1.5677564e-08
5.8264307e-07
1.3466893e-08
5.8047699e-07
1.1514338e-08
5.787949e-07
9.7723751e-09
5.7748178e-07
8.2012029e-09
5.7645485e-07
6.76728e-09
5.7565388e-07
5.4420506e-09
5.7503475e-07
4.2008566e-09
5.7456526e-07
3.0220145e-09
5.7422216e-07
1.8860178e-09
5.7398914e-07
7.7483369e-10
5.7385551e-07
-3.2873317e-10
5.7381532e-07
-1.4416365e-09
5.7386688e-07
-2.581181e-09
5.7401271e-07
-3.7656255e-09
5.7425966e-07
-5.0148254e-09
5.7461945e-07
-6.3509475e-09
5.7510966e-07
-7.799282e-09
5.7575515e-07
-9.3891902e-09
5.7659027e-07
-1.1155212e-08
5.7766205e-07
-1.3138334e-08
5.7903488e-07
-1.5387639e-08
5.8079782e-07
-1.7962424e-08
5.830748e-07
-2.0932157e-08
5.860391e-07
-2.437205e-08
5.8992905e-07
-2.8417605e-08
5.9513861e-07
-3.3673714e-08
6.0337381e-07
-4.1044879e-08
6.2025061e-07
-4.4782025e-08
6.3867985e-07
-2.8197294e-08
5.7032658e-07
2.5529159e-07
2.056868e-08
1.8633949e-07
4.4577012e-08
5.2526834e-07
4.6634954e-08
6.5255286e-07
3.9145541e-08
6.431807e-07
3.3076736e-08
6.1793224e-07
2.8710971e-08
6.0494538e-07
2.503203e-08
5.9766437e-07
2.1798363e-08
5.9236947e-07
1.895464e-08
5.8829798e-07
1.6444797e-08
5.8515291e-07
1.4215325e-08
5.8270647e-07
1.2220033e-08
5.807902e-07
1.0419127e-08
5.7928268e-07
8.7782397e-09
5.7809574e-07
7.2676039e-09
5.7716451e-07
5.8612398e-09
5.7644111e-07
4.5362166e-09
5.7589028e-07
3.2719857e-09
5.7548639e-07
2.0497747e-09
5.7521135e-07
8.5202983e-10
5.7505325e-07
-3.3810381e-10
5.7500545e-07
-1.5372785e-09
5.7506606e-07
-2.7624409e-09
5.7523788e-07
-4.0313337e-09
5.7552855e-07
-5.3630197e-09
5.7595114e-07
-6.778448e-09
5.7652509e-07
-8.3010706e-09
5.7727777e-07
-9.9575282e-09
5.7824673e-07
-1.1778416e-08
5.7948294e-07
-1.3799078e-08
5.8105554e-07
-1.6060518e-08
5.8305926e-07
-1.8610601e-08
5.8562488e-07
-2.1502448e-08
5.8893095e-07
-2.4790102e-08
5.932167e-07
-2.8619693e-08
5.989682e-07
-3.3638097e-08
6.0839221e-07
-4.0122094e-08
6.2673461e-07
-4.1141057e-08
6.3969881e-07
-2.3408956e-08
5.5259448e-07
2.3188264e-07
1.6013009e-08
1.7032659e-07
3.913668e-08
5.0214483e-07
4.4108779e-08
6.4758081e-07
3.8280053e-08
6.4900941e-07
3.2645046e-08
6.2356723e-07
2.8583312e-08
6.0900711e-07
2.5175958e-08
6.0107172e-07
2.2129143e-08
5.9541629e-07
1.9398968e-08
5.9102815e-07
1.694936e-08
5.8760252e-07
1.474133e-08
5.8491449e-07
1.2739269e-08
5.8279226e-07
1.0911249e-08
5.811107e-07
9.2287362e-09
5.7977825e-07
7.6662406e-09
5.7872701e-07
6.2008994e-09
5.7790645e-07
4.8120499e-09
5.7727913e-07
3.4808022e-09
5.7681763e-07
2.1896179e-09
5.7650253e-07
9.2190216e-10
5.7632097e-07
-3.3839338e-10
5.7626575e-07
-1.6071573e-09
5.7633482e-07
-2.9005102e-09
5.7653123e-07
-4.235195e-09
5.7686324e-07
-5.6289765e-09
5.7734492e-07
-7.1010559e-09
5.7799716e-07
-8.672498e-09
5.7884921e-07
-1.0366669e-08
5.799409e-07
-1.2209694e-08
5.8132596e-07
-1.4230873e-08
5.8307672e-07
-1.6463047e-08
5.8529144e-07
-1.8942987e-08
5.8810482e-07
-2.1708851e-08
5.9169682e-07
-2.4801134e-08
5.9630899e-07
-2.838855e-08
6.0255562e-07
-3.3097741e-08
6.1310141e-07
-3.8523059e-08
6.3215993e-07
-3.7194672e-08
6.3837042e-07
-1.91741e-08
5.3457391e-07
2.1270854e-07
1.2421009e-08
1.579057e-07
3.4105567e-08
4.8046048e-07
4.1237859e-08
6.4044861e-07
3.7066715e-08
6.5318054e-07
3.1930874e-08
6.2870306e-07
2.8158466e-08
6.1277951e-07
2.5023453e-08
6.0420674e-07
2.2183516e-08
5.9825623e-07
1.9593591e-08
5.9361808e-07
1.7233076e-08
5.8996303e-07
1.5075323e-08
5.8707225e-07
1.3094003e-08
5.8477358e-07
1.1264465e-08
5.8294024e-07
9.5638348e-09
5.8147888e-07
7.9709781e-09
5.8031987e-07
6.466364e-09
5.7941107e-07
5.0318886e-09
5.7871361e-07
3.6506467e-09
5.7819888e-07
2.3066767e-09
5.778465e-07
9.8469008e-10
5.7764296e-07
-3.3020585e-10
5.7758064e-07
-1.6527864e-09
5.776574e-07
-2.9979956e-09
5.7787644e-07
-4.3812269e-09
5.7824647e-07
-5.8186015e-09
5.7878229e-07
-7.3272416e-09
5.795058e-07
-8.9255305e-09
5.804475e-07
-1.0633344e-08
5.8164871e-07
-1.2472258e-08
5.8316488e-07
-1.4465713e-08
5.8507018e-07
-1.6639043e-08
5.8746477e-07
-1.9019154e-08
5.9048493e-07
-2.163157e-08
5.9430923e-07
-2.4510487e-08
5.991879e-07
-2.7850181e-08
6.0589531e-07
-3.2195301e-08
6.1744653e-07
-3.6489893e-08
6.3645452e-07
-3.3244105e-08
6.3512463e-07
-1.5554369e-08
5.1688417e-07
1.9715417e-07
9.6540537e-09
1.4825179e-07
2.9635965e-08
4.6047884e-07
3.8268822e-08
6.3181588e-07
3.5643661e-08
6.5580569e-07
3.1045354e-08
6.3330134e-07
2.7540759e-08
6.162841e-07
2.4661045e-08
6.0708645e-07
2.2030221e-08
6.0088705e-07
1.9592347e-08
5.9605595e-07
1.7337429e-08
5.9221795e-07
1.5248838e-08
5.8916084e-07
1.3307973e-08
5.8671444e-07
1.1496482e-08
5.8475173e-07
9.7966172e-09
5.8317875e-07
8.1913532e-09
5.8192513e-07
6.6644467e-09
5.8093798e-07
5.200429e-09
5.8017762e-07
3.7845318e-09
5.7961477e-07
2.4025662e-09
5.7922847e-07
1.0407715e-09
5.7900475e-07
-3.1435517e-10
5.7893577e-07
-1.6762378e-09
5.7901928e-07
-3.0584093e-09
5.7925861e-07
-4.4746916e-09
5.7966275e-07
-5.9393658e-09
5.8024697e-07
-7.4673237e-09
5.8103376e-07
-9.0741914e-09
5.8205437e-07
-1.0776405e-08
5.8335093e-07
-1.2591238e-08
5.8497971e-07
-1.4536796e-08
5.8701573e-07
-1.6631841e-08
5.8955981e-07
-1.8894874e-08
5.9274797e-07
-2.1341434e-08
5.9675579e-07
-2.4005629e-08
6.018521e-07
-2.710339e-08
6.0899307e-07
-3.1048896e-08
6.2139203e-07
-3.4226695e-08
6.3963232e-07
-2.9494458e-08
6.303924e-07
-1.2545095e-08
4.9993481e-07
1.8460907e-07
7.5633159e-09
1.4068864e-07
2.5775518e-08
4.4226696e-07
3.5372503e-08
6.2221908e-07
3.4120707e-08
6.5705749e-07
3.0071427e-08
6.3735059e-07
2.681013e-08
6.1954539e-07
2.4158375e-08
6.0973821e-07
2.1726999e-08
6.0331843e-07
1.944248e-08
5.9834047e-07
1.7300444e-08
5.9435998e-07
1.529199e-08
5.9116929e-07
1.3404714e-08
5.8860172e-07
1.1625481e-08
5.8653096e-07
9.9409508e-09
5.8486327e-07
8.3377824e-09
5.835283e-07
6.8027955e-09
5.8247296e-07
5.3230733e-09
5.8165735e-07
3.885995e-09
5.8105185e-07
2.4792162e-09
5.8063525e-07
1.0906138e-09
5.8039335e-07
-2.9179578e-10
5.8031818e-07
-1.6799494e-09
5.8040744e-07
-3.0858401e-09
5.806645e-07
-4.5216099e-09
5.8109852e-07
-5.9996297e-09
5.8172499e-07
-7.5325535e-09
5.8256669e-07
-9.1333371e-09
5.8365515e-07
-1.0815203e-08
5.8503279e-07
-1.2591551e-08
5.8675606e-07
-1.4475836e-08
5.8890002e-07
-1.648127e-08
5.9156524e-07
-1.8619476e-08
5.9488617e-07
-2.0898995e-08
5.9903531e-07
-2.3358938e-08
6.0431204e-07
-2.6228477e-08
6.1186261e-07
-2.9759546e-08
6.249231e-07
-3.189507e-08
6.4176784e-07
-2.6068034e-08
6.2456536e-07
-1.0099608e-08
4.8396638e-07
1.7450946e-07
6.0082188e-09
1.3468062e-07
2.250243e-08
4.2577315e-07
3.2650731e-08
6.1207103e-07
3.2578257e-08
6.5712999e-07
2.9069131e-08
6.4085968e-07
2.6026696e-08
6.2258781e-07
2.3570731e-08
6.1219417e-07
2.1321384e-08
6.0556777e-07
1.9184143e-08
6.0047771e-07
1.7155525e-08
5.963886e-07
1.5232127e-08
5.9309269e-07
1.3406295e-08
5.9042755e-07
1.1669019e-08
5.8826824e-07
1.0010598e-08
5.8652169e-07
8.4208597e-09
5.8511804e-07
6.8893584e-09
5.8400446e-07
5.4055391e-09
5.8314117e-07
3.9588357e-09
5.8249855e-07
2.538723e-09
5.8205536e-07
1.1347321e-09
5.8179734e-07
-2.6355992e-10
5.8171647e-07
-1.6665553e-09
5.8181043e-07
-3.0846672e-09
5.8208261e-07
-4.5283434e-09
5.8254219e-07
-6.0080746e-09
5.8320472e-07
-7.5343744e-09
5.8409299e-07
-9.1177241e-09
5.852385e-07
-1.0768467e-08
5.8668353e-07
-1.2496647e-08
5.8848424e-07
-1.4311837e-08
5.9071521e-07
-1.6222753e-08
5.9347616e-07
-1.8235728e-08
5.9689915e-07
-2.0355379e-08
6.0115496e-07
-2.2629363e-08
6.0658603e-07
-2.5288968e-08
6.1452222e-07
-2.8407794e-08
6.2804192e-07
-2.960917e-08
6.4296922e-07
-2.3020061e-08
6.1797625e-07
-8.1494417e-09
4.6909577e-07
1.6636002e-07
4.8660562e-09
1.2981479e-07
1.9758135e-08
4.1088156e-07
3.0151747e-08
6.0167774e-07
3.1068612e-08
6.5621318e-07
2.807791e-08
6.4385034e-07
2.5232692e-08
6.2543301e-07
2.2940189e-08
6.1448667e-07
2.0851383e-08
6.0765658e-07
1.885057e-08
6.0247852e-07
1.693119e-08
5.9830798e-07
1.5093286e-08
5.9493059e-07
1.3332643e-08
5.9218819e-07
1.1643355e-08
5.8995753e-07
1.0018604e-08
5.8814645e-07
8.4508363e-09
5.866858e-07
6.9319659e-09
5.8552333e-07
5.4535444e-09
5.8461959e-07
4.0068983e-09
5.839452e-07
2.5832245e-09
5.8347903e-07
1.173655e-09
5.8320691e-07
-2.3070309e-10
5.8312083e-07
-1.6387396e-09
5.8321847e-07
-3.05932e-09
5.8350319e-07
-4.5012556e-09
5.8398413e-07
-5.9732592e-09
5.8467672e-07
-7.4838742e-09
5.856036e-07
-9.0413719e-09
5.86796e-07
-1.0653608e-08
5.8829577e-07
-1.2327837e-08
5.9015847e-07
-1.4070526e-08
5.924579e-07
-1.588693e-08
5.9529256e-07
-1.7779616e-08
5.9879183e-07
-1.9752083e-08
6.0312743e-07
-2.1862255e-08
6.086962e-07
-2.4331537e-08
6.169915e-07
-2.7052337e-08
6.3076272e-07
-2.7441055e-08
6.4335794e-07
-2.0359869e-08
6.1089506e-07
-6.6189343e-09
4.5535483e-07
1.5974109e-07
4.0344673e-09
1.257806e-07
1.7470142e-08
3.9744646e-07
2.7889487e-08
5.9125882e-07
2.9622359e-08
6.5448039e-07
2.7120908e-08
6.4635175e-07
2.4455251e-08
6.2809864e-07
2.2296841e-08
6.1664508e-07
2.034602e-08
6.096074e-07
1.8468288e-08
6.0435626e-07
1.665103e-08
6.0012524e-07
1.4895961e-08
5.9668566e-07
1.3201197e-08
5.9388296e-07
1.1563056e-08
5.9159567e-07
9.9768962e-09
5.8973261e-07
8.4372612e-09
5.8822544e-07
6.9380276e-09
5.8702257e-07
5.4725699e-09
5.8608504e-07
4.0339038e-09
5.8538387e-07
2.6148041e-09
5.8489813e-07
1.2078983e-09
5.8461382e-07
-1.9425871e-10
5.8452298e-07
-1.5991204e-09
5.8462333e-07
-3.0140895e-09
5.8491816e-07
-4.4464507e-09
5.8541649e-07
-5.9032916e-09
5.8613356e-07
-7.3914002e-09
5.8709171e-07
-8.9171384e-09
5.8832173e-07
-1.0486287e-08
5.8986492e-07
-1.2103869e-08
5.9177605e-07
-1.3773978e-08
5.9412801e-07
-1.5499339e-08
5.9701792e-07
-1.7280123e-08
6.0057261e-07
-1.9121009e-08
6.0496831e-07
-2.1090266e-08
6.1066545e-07
-2.3388105e-08
6.1928934e-07
-2.5732873e-08
6.3310749e-07
-2.5430438e-08
6.430555e-07
-1.8068898e-08
6.0353352e-07
-5.4337055e-09
4.4271964e-07
1.5430738e-07
3.4307758e-09
1.2235015e-07
1.5564624e-08
3.8531331e-07
2.5857303e-08
5.8096667e-07
2.8254871e-08
6.5208296e-07
2.6209936e-08
6.4839664e-07
2.37102e-08
6.3059834e-07
2.1660938e-08
6.1869434e-07
1.9826463e-08
6.1144188e-07
1.8057666e-08
6.0612505e-07
1.6333905e-08
6.01849e-07
1.4657088e-08
5.9836248e-07
1.3026777e-08
5.9551327e-07
1.144079e-08
5.9318166e-07
9.896064e-09
5.9127733e-07
8.3887555e-09
5.8973275e-07
6.9143298e-09
5.8849699e-07
5.4676937e-09
5.8753168e-07
4.0433303e-09
5.8680823e-07
2.6354198e-09
5.8630604e-07
1.2379474e-09
5.8601129e-07
-1.5520283e-10
5.8591613e-07
-1.5501612e-09
5.8601829e-07
-2.952989e-09
5.8632099e-07
-4.3695885e-09
5.8683309e-07
-5.8056037e-09
5.8756958e-07
-7.2663036e-09
5.8855241e-07
-8.7564492e-09
5.8981188e-07
-1.0280147e-08
5.9138861e-07
-1.1840704e-08
5.933366e-07
-1.3440481e-08
5.9572778e-07
-1.508047e-08
5.9865791e-07
-1.6759609e-08
6.0225175e-07
-1.84855e-08
6.066942e-07
-2.0335552e-08
6.1251551e-07
-2.2479095e-08
6.2143288e-07
-2.4474204e-08
6.351026e-07
-2.3594109e-08
6.4217541e-07
-1.611314e-08
5.9605255e-07
-4.5253401e-09
4.3113184e-07
1.4978204e-07
2.9903508e-09
1.1936018e-07
1.3973103e-08
3.7433137e-07
2.4037309e-08
5.7090312e-07
2.6971257e-08
6.4914922e-07
2.5349321e-08
6.5001854e-07
2.3005497e-08
6.3294212e-07
2.1045277e-08
6.2065455e-07
1.9307533e-08
6.1317962e-07
1.7633831e-08
6.0779876e-07
1.5994446e-08
6.0348838e-07
1.4390274e-08
5.9996665e-07
1.2821635e-08
5.970819e-07
1.1287287e-08
5.94716e-07
9.7852557e-09
5.9277936e-07
8.3128948e-09
5.9120511e-07
6.8669184e-09
5.8994297e-07
5.4434903e-09
5.8895511e-07
4.0383367e-09
5.8821338e-07
2.6468601e-09
5.8769752e-07
1.2642471e-09
5.873939e-07
-1.1442889e-10
5.8729481e-07
-1.4941107e-09
5.8739797e-07
-2.8796615e-09
5.8770654e-07
-4.2757637e-09
5.8822919e-07
-5.6868118e-09
5.8898062e-07
-7.1167944e-09
5.8998239e-07
-8.5691683e-09
5.9126425e-07
-1.0046734e-08
5.9286618e-07
-1.1551527e-08
5.948414e-07
-1.3084717e-08
5.9726097e-07
-1.4646212e-08
6.0021941e-07
-1.6234692e-08
6.0384023e-07
-1.7861857e-08
6.0832137e-07
-1.9612134e-08
6.1426578e-07
-2.1616299e-08
6.2343705e-07
-2.3289753e-08
6.3677605e-07
-2.1933191e-08
6.4081884e-07
-1.445153e-08
5.8857089e-07
-3.8339378e-09
4.2051425e-07
1.459481e-07
2.664354e-09
1.1669628e-07
1.2635821e-08
3.6436087e-07
2.2406727e-08
5.6113302e-07
2.5770107e-08
6.4578611e-07
2.4538606e-08
6.5125e-07
2.2343787e-08
6.3513688e-07
2.0457208e-08
6.2254111e-07
1.8799149e-08
6.1483768e-07
1.7207676e-08
6.0939023e-07
1.5643706e-08
6.0505235e-07
1.4106185e-08
6.0150417e-07
1.2595664e-08
5.9859243e-07
1.1111424e-08
5.9620024e-07
9.6521928e-09
5.9423859e-07
8.2161795e-09
5.9264112e-07
6.801052e-09
5.913581e-07
5.4039806e-09
5.9035218e-07
4.0217224e-09
5.8959564e-07
2.6507189e-09
5.8906852e-07
1.2871968e-09
5.8875742e-07
-7.2730822e-11
5.8865474e-07
-1.4329658e-09
5.8875821e-07
-2.797326e-09
5.890709e-07
-4.1694424e-09
5.8960131e-07
-5.5526535e-09
5.9036383e-07
-6.9498951e-09
5.9137963e-07
-8.3635906e-09
5.9267795e-07
-9.7955551e-09
5.9429814e-07
-1.1246932e-08
5.9629277e-07
-1.271813e-08
5.9873217e-07
-1.4208495e-08
6.0170977e-07
-1.5717222e-08
6.0534896e-07
-1.7260772e-08
6.0986492e-07
-1.8927866e-08
6.1593288e-07
-2.0805131e-08
6.2531431e-07
-2.2184588e-08
6.3815551e-07
-2.0438935e-08
6.3907319e-07
-1.3041537e-08
5.811735e-07
-3.3090927e-09
4.107818e-07
1.4263901e-07
2.4170447e-09
1.1427976e-07
1.1502849e-08
3.552762e-07
2.094197e-08
5.5169488e-07
2.4646386e-08
6.4208207e-07
2.3774552e-08
6.5212182e-07
2.1724289e-08
6.3718708e-07
1.9900193e-08
6.2436519e-07
1.8307531e-08
6.1643034e-07
1.6786756e-08
6.1091101e-07
1.5289811e-08
6.065493e-07
1.381299e-08
6.0298099e-07
1.2356679e-08
6.0004874e-07
1.0920389e-08
5.9763653e-07
9.5032558e-09
5.9565573e-07
8.10407e-09
5.940403e-07
6.7212068e-09
5.9274096e-07
5.352624e-09
5.9172076e-07
3.9959153e-09
5.9095235e-07
2.6483879e-09
5.9041605e-07
1.3071505e-09
5.9009866e-07
-3.0794098e-11
5.8999268e-07
-1.3684549e-09
5.9009587e-07
-2.7087571e-09
5.904112e-07
-4.054445e-09
5.90947e-07
-5.4079845e-09
5.9171737e-07
-6.7714671e-09
5.9274311e-07
-8.1465211e-09
5.94053e-07
-9.5342488e-09
5.9568587e-07
-1.0935206e-08
5.9769373e-07
-1.2349373e-08
6.0014634e-07
-1.3775936e-08
6.0313634e-07
-1.5215198e-08
6.0678822e-07
-1.6688579e-08
6.113383e-07
-1.8286078e-08
6.1753037e-07
-2.0046511e-08
6.2707474e-07
-2.1158096e-08
6.392671e-07
-1.9097247e-08
6.3701234e-07
-1.1842972e-08
5.7391922e-07
-2.9097968e-09
4.0184862e-07
1.3972921e-07
2.2230421e-09
1.1205734e-07
1.0533718e-08
3.4696685e-07
1.962094e-08
5.4260884e-07
2.3593479e-08
6.3811003e-07
2.305261e-08
6.526627e-07
2.1144226e-08
6.3909538e-07
1.9375059e-08
6.2613432e-07
1.7836183e-08
6.1796922e-07
1.6376063e-08
6.1237113e-07
1.4938542e-08
6.0798682e-07
1.3516786e-08
6.0440275e-07
1.2110723e-08
6.014548e-07
1.0719888e-08
5.9902737e-07
9.3436141e-09
5.97032e-07
7.9810644e-09
5.9540285e-07
6.6311196e-09
5.940909e-07
5.2923388e-09
5.9305954e-07
3.962981e-09
5.9228171e-07
2.6410605e-09
5.9173797e-07
1.3244189e-09
5.914153e-07
1.0805905e-11
5.9130629e-07
-1.3020377e-09
5.9140871e-07
-2.6162898e-09
5.9172545e-07
-3.9339631e-09
5.9226467e-07
-5.2568187e-09
5.9304023e-07
-6.5862876e-09
5.9407258e-07
-7.9234062e-09
5.9539012e-07
-9.2687861e-09
5.9703125e-07
-1.0622633e-08
5.9904758e-07
-1.1984747e-08
6.0150845e-07
-1.3354455e-08
6.0450604e-07
-1.4733589e-08
6.0816735e-07
-1.6148357e-08
6.1275307e-07
-1.7686955e-08
6.1906897e-07
-1.9338444e-08
6.2872623e-07
-2.0206172e-08
6.4013482e-07
-1.7891827e-08
6.34698e-07
-1.0819932e-08
5.6684732e-07
-2.6035953e-09
3.9363229e-07
1.3712562e-07
2.0648597e-09
1.0999319e-07
9.6963017e-09
3.3933696e-07
1.8424061e-08
5.338825e-07
2.2604472e-08
6.3393025e-07
2.2367896e-08
6.5289932e-07
2.0599846e-08
6.4086335e-07
1.8880962e-08
6.2785317e-07
1.7386705e-08
6.1946347e-07
1.5978672e-08
6.1377916e-07
1.4593857e-08
6.0937163e-07
1.3222001e-08
6.057746e-07
1.1862357e-08
6.0281444e-07
1.0514353e-08
6.0037537e-07
9.1773748e-09
5.9836898e-07
7.8507984e-09
5.9672943e-07
6.5338525e-09
5.9540785e-07
5.2255429e-09
5.9436785e-07
3.9246465e-09
5.935826e-07
2.629744e-09
5.9303287e-07
1.3392742e-09
5.9270577e-07
5.1600775e-11
5.9259397e-07
-1.2349156e-09
5.9269523e-07
-2.5218424e-09
5.9301238e-07
-3.8106007e-09
5.9355343e-07
-5.1023952e-09
5.9433202e-07
-6.3981542e-09
5.9536834e-07
-7.6984903e-09
5.9669046e-07
-9.0037005e-09
5.9833646e-07
-1.0313817e-08
6.0035769e-07
-1.1628639e-08
6.0282328e-07
-1.2947846e-08
6.0582525e-07
-1.4275079e-08
6.0949459e-07
-1.5640874e-08
6.1411886e-07
-1.7128654e-08
6.2055675e-07
-1.867724e-08
6.3027482e-07
-1.9322835e-08
6.4078042e-07
-1.6806109e-08
6.3218127e-07
-9.9413272e-09
5.5998254e-07
-2.3653744e-09
3.8605634e-07
1.3476024e-07
1.9308249e-09
1.0806319e-07
8.9654619e-09
3.3230412e-07
1.7334579e-08
5.2551507e-07
2.167286e-08
6.2959277e-07
2.1715761e-08
6.5285651e-07
2.0087092e-08
6.4249192e-07
1.8416085e-08
6.2952413e-07
1.6959408e-08
6.2092014e-07
1.5596279e-08
6.1514229e-07
1.4258326e-08
6.1070959e-07
1.2931743e-08
6.0710119e-07
1.161494e-08
6.0413125e-07
1.0307156e-08
6.0168316e-07
9.007736e-09
5.996684e-07
7.716156e-09
5.9802101e-07
6.4318696e-09
5.9669213e-07
5.1542048e-09
5.9564552e-07
3.8823323e-09
5.9485447e-07
2.6152771e-09
5.9429993e-07
1.3519552e-09
5.9396909e-07
9.1225891e-11
5.938547e-07
-1.1680509e-09
5.939545e-07
-2.4269515e-09
5.9427128e-07
-3.6864296e-09
5.948129e-07
-4.9472615e-09
5.9559286e-07
-6.2100053e-09
5.9663109e-07
-7.4749846e-09
5.9795544e-07
-8.7423159e-09
5.9960379e-07
-1.0011987e-08
6.0162736e-07
-1.1283914e-08
6.040952e-07
-1.255828e-08
6.0709962e-07
-1.3840688e-08
6.1077699e-07
-1.5165337e-08
6.1544351e-07
-1.6608141e-08
6.2199956e-07
-1.8058372e-08
6.3172505e-07
-1.8501334e-08
6.4122338e-07
-1.5824445e-08
6.2950438e-07
-9.1810027e-09
5.533391e-07
-2.1761598e-09
3.7905149e-07
1.3258408e-07
1.8133941e-09
1.0625075e-07
8.3216941e-09
3.2579791e-07
1.6338443e-08
5.1750031e-07
2.0792868e-08
6.2513935e-07
2.1092078e-08
6.5255745e-07
1.9602004e-08
6.4398189e-07
1.7978122e-08
6.3114795e-07
1.6553786e-08
6.2234447e-07
1.5229606e-08
6.1646647e-07
1.3933495e-08
6.120057e-07
1.2648098e-08
6.0838658e-07
1.1370867e-08
6.0540848e-07
1.0100797e-08
6.0295323e-07
8.8371352e-09
6.0093206e-07
7.57938e-09
5.9927876e-07
6.3271179e-09
5.979444e-07
5.0799e-09
5.9689273e-07
3.8371886e-09
5.9609719e-07
2.5983493e-09
5.9553877e-07
1.3626719e-09
5.9520477e-07
1.2940662e-10
5.9508796e-07
-1.1021916e-09
5.951861e-07
-2.3328138e-09
5.955019e-07
-3.5630528e-09
5.9604314e-07
-4.7933644e-09
5.9682317e-07
-6.0240443e-09
5.9786177e-07
-7.2552328e-09
5.9918662e-07
-8.4869658e-09
6.0083553e-07
-9.7192735e-09
6.0285967e-07
-1.0952265e-08
6.0532819e-07
-1.2186729e-08
6.0833408e-07
-1.3430281e-08
6.1202054e-07
-1.4719973e-08
6.167332e-07
-1.6121785e-08
6.2340137e-07
-1.7477074e-08
6.3308034e-07
-1.7734883e-08
6.4148119e-07
-1.4932735e-08
6.2670223e-07
-8.5174118e-09
5.4692378e-07
-2.0219501e-09
3.7255603e-07
1.3056213e-07
1.7078449e-09
1.0454401e-07
7.7499048e-09
3.1975826e-07
1.5423986e-08
5.0982856e-07
1.9959551e-08
6.2060502e-07
2.0493344e-08
6.5202389e-07
1.9140937e-08
6.4533419e-07
1.7564589e-08
6.3272422e-07
1.6168829e-08
6.2374021e-07
1.4878718e-08
6.1775659e-07
1.3620163e-08
6.1326426e-07
1.2372386e-08
6.0963436e-07
1.1131784e-08
6.0664908e-07
9.897076e-09
6.0418793e-07
8.6673852e-09
6.0216175e-07
7.4421776e-09
6.0050397e-07
6.2211057e-09
5.9916547e-07
5.0038669e-09
5.9810997e-07
3.7901321e-09
5.9731092e-07
2.5795216e-09
5.9674938e-07
1.3716104e-09
5.9641268e-07
1.6595068e-10
5.9629362e-07
-1.0378976e-09
5.9638995e-07
-2.2403306e-09
5.9670433e-07
-3.4416703e-09
5.9724448e-07
-4.6421407e-09
5.9802364e-07
-5.841861e-09
5.9906149e-07
-7.040869e-09
6.0038563e-07
-8.2391906e-09
6.0203385e-07
-9.4369543e-09
6.0405744e-07
-1.0634508e-08
6.0652575e-07
-1.1833309e-08
6.0953288e-07
-1.3042951e-08
6.1323019e-07
-1.430245e-08
6.179927e-07
-1.5665773e-08
6.2476469e-07
-1.692872e-08
6.3434328e-07
-1.7017107e-08
6.4156958e-07
-1.4118668e-08
6.2380379e-07
-7.9330802e-09
5.4073819e-07
-1.8926408e-09
3.6651559e-07
1.2866949e-07
1.6113045e-09
1.0293398e-07
7.2383769e-09
3.1413397e-07
1.4581545e-08
5.0248813e-07
1.9168743e-08
6.1601933e-07
1.9916679e-08
6.5127629e-07
1.8700659e-08
6.465501e-07
1.7173012e-08
6.3425178e-07
1.5803255e-08
6.2510994e-07
1.4543245e-08
6.190166e-07
1.3318604e-08
6.144889e-07
1.2105351e-08
6.1084761e-07
1.0898755e-08
6.0785567e-07
9.6972418e-09
6.0538945e-07
8.4997946e-09
6.033592e-07
7.3058162e-09
6.0169795e-07
6.1149766e-09
6.0035631e-07
4.9270607e-09
5.9929789e-07
3.7418822e-09
5.984961e-07
2.5592455e-09
5.9793201e-07
1.3789372e-09
5.9759299e-07
2.0073622e-10
5.9747182e-07
-9.7556823e-10
5.9756625e-07
-2.1501529e-09
5.9787892e-07
-3.3231434e-09
5.9841747e-07
-4.4946035e-09
5.991951e-07
-5.6645433e-09
6.0023142e-07
-6.8329574e-09
6.0155405e-07
-7.9999101e-09
6.032008e-07
-9.1656604e-09
6.0522319e-07
-1.033082e-08
6.0769091e-07
-1.1497547e-08
6.1069961e-07
-1.2677319e-08
6.1440996e-07
-1.3910178e-08
6.1922556e-07
-1.5236372e-08
6.2609088e-07
-1.6409048e-08
6.3551596e-07
-1.6342263e-08
6.4150279e-07
-1.3371715e-08
6.2083324e-07
-7.4139929e-09
5.3478047e-07
-1.7810942e-09
3.6088269e-07
1.268884e-07
1.5220616e-09
1.0141337e-07
6.7779376e-09
3.0888129e-07
1.3803074e-08
4.9546618e-07
1.8416955e-08
6.1140727e-07
1.9359758e-08
6.5033394e-07
1.8278373e-08
6.4763139e-07
1.6801037e-08
6.35729e-07
1.5455651e-08
6.264553e-07
1.422254e-08
6.2024971e-07
1.3028725e-08
6.1568271e-07
1.1847315e-08
6.1202902e-07