/*--------------------------------*- C++ -*----------------------------------*\
  =========                 |
  \\      /  F ield         | OpenFOAM: The Open Source CFD Toolbox
   \\    /   O peration     | Website:  https://openfoam.org
    \\  /    A nd           | Version:  10
     \\/     M anipulation  |
\*---------------------------------------------------------------------------*/
FoamFile
{
    format      ascii;
    class       volScalarField;
    location    "0.19";
    object      T;
}
// * * * * * * * * * * * * * * * * * * * * * * * * * * * * * * * * * * * * * //

dimensions      [0 0 0 1 0 0 0];

internalField   nonuniform List<scalar> 
4000
(
303.10135
299.34291
299.99042
300.00082
299.99993
300
300
300
300
300
300
300
300
300
300
300
300
300
300
300
300
300
300
300
300
300
300
300
300
300
300
300
300
300
300
300
300
300
300
300
309.66345
298.49297
299.77921
300.00184
300.0008
299.99999
300
300
300
300
300
300
300
300
300
300
300
300
300
300
300
300
300
300
300
300
300
300
300
300
300
300
300
300
300
300
300
300
300
300
316.00425
298.68458
299.3922
299.9757
300.00406
300.00025
299.99999
300
300
300
300
300
300
300
300
300
300
300
300
300
300
300
300
300
300
300
300
300
300
300
300
300
300
300
300
300
300
300
300
300
321.74229
299.84593
298.9848
299.89491
300.00716
300.00139
300
299.99999
300
300
300
300
300
300
300
300
300
300
300
300
300
300
300
300
300
300
300
300
300
300
300
300
300
300
300
300
300
300
300
300
326.6711
301.70051
298.71
299.75313
300.00323
300.00379
300.00017
299.99998
300
300
300
300
300
300
300
300
300
300
300
300
300
300
300
300
300
300
300
300
300
300
300
300
300
300
300
300
300
300
300
300
330.68504
303.94804
298.66327
299.56831
299.98427
300.00697
300.00072
299.99997
299.99999
300
300
300
300
300
300
300
300
300
300
300
300
300
300
300
300
300
300
300
300
300
300
300
300
300
300
300
300
300
300
300
333.77436
306.3308
298.87089
299.3737
299.94517
300.00938
300.00181
300
299.99998
300
300
300
300
300
300
300
300
300
300
300
300
300
300
300
300
300
300
300
300
300
300
300
300
300
300
300
300
300
300
300
336.02182
308.66424
299.30776
299.20383
299.88579
300.00891
300.00346
300.00014
299.99997
300
300
300
300
300
300
300
300
300
300
300
300
300
300
300
300
300
300
300
300
300
300
300
300
300
300
300
300
300
300
300
337.57397
310.83754
299.92415
299.08463
299.8105
300.00353
300.00542
300.00046
299.99996
299.99999
300
300
300
300
300
300
300
300
300
300
300
300
300
300
300
300
300
300
300
300
300
300
300
300
300
300
300
300
300
300
338.60215
312.79795
300.6655
299.03058
299.72635
299.99192
300.00725
300.001
299.99996
299.99998
300
300
300
300
300
300
300
300
300
300
300
300
300
300
300
300
300
300
300
300
300
300
300
300
300
300
300
300
300
300
339.26909
314.53257
301.48319
299.04607
299.64105
299.97369
300.00841
300.00176
300.00001
299.99997
300
300
300
300
300
300
300
300
300
300
300
300
300
300
300
300
300
300
300
300
300
300
300
300
300
300
300
300
300
300
339.70808
316.05268
302.33884
299.12844
299.56165
299.94928
300.00835
300.00268
300.00012
299.99996
300
300
300
300
300
300
300
300
300
300
300
300
300
300
300
300
300
300
300
300
300
300
300
300
300
300
300
300
300
300
340.01574
317.3817
303.20481
299.27099
299.49373
299.91976
300.00662
300.00368
300.0003
299.99996
299.99999
300
300
300
300
300
300
300
300
300
300
300
300
300
300
300
300
300
300
300
300
300
300
300
300
300
300
300
300
300
340.25472
318.54713
304.06268
299.46532
299.44123
299.88661
300.00294
300.00461
300.00056
299.99996
299.99999
300
300
300
300
300
300
300
300
300
300
300
300
300
300
300
300
300
300
300
300
300
300
300
300
300
300
300
300
300
340.46147
319.5758
304.90111
299.70287
299.40663
299.85142
299.99716
300.00535
300.0009
299.99998
299.99998
300
300
300
300
300
300
300
300
300
300
300
300
300
300
300
300
300
300
300
300
300
300
300
300
300
300
300
300
300
340.65472
320.49155
305.71371
299.97571
299.39115
299.81579
299.9893
300.00574
300.0013
300.00003
299.99998
300
300
300
300
300
300
300
300
300
300
300
300
300
300
300
300
300
300
300
300
300
300
300
300
300
300
300
300
300
340.84254
321.31441
306.4974
300.2769
299.39517
299.78118
299.97949
300.00568
300.00173
300.0001
299.99997
300
300
300
300
300
300
300
300
300
300
300
300
300
300
300
300
300
300
300
300
300
300
300
300
300
300
300
300
300
341.02722
322.06057
307.25112
300.60052
299.4184
299.74887
299.96797
300.00504
300.00217
300.00019
299.99997
299.99999
300
300
300
300
300
300
300
300
300
300
300
300
300
300
300
300
300
300
300
300
300
300
300
300
300
300
300
300
341.20842
322.74286
307.97503
300.94166
299.46016
299.71997
299.95503
300.00377
300.00258
300.00031
299.99998
299.99999
300
300
300
300
300
300
300
300
300
300
300
300
300
300
300
300
300
300
300
300
300
300
300
300
300
300
300
300
341.38489
323.37126
308.66988
301.29621
299.51949
299.69536
299.94102
300.00182
300.00292
300.00046
299.99999
299.99999
300
300
300
300
300
300
300
300
300
300
300
300
300
300
300
300
300
300
300
300
300
300
300
300
300
300
300
300
341.55535
323.95352
309.33678
301.66079
299.59532
299.67577
299.92629
299.99916
300.00315
300.00062
300.00001
299.99999
300
300
300
300
300
300
300
300
300
300
300
300
300
300
300
300
300
300
300
300
300
300
300
300
300
300
300
300
341.71879
324.49567
309.97689
302.03259
299.68647
299.66176
299.91122
299.9958
300.00325
300.0008
300.00004
299.99998
300
300
300
300
300
300
300
300
300
300
300
300
300
300
300
300
300
300
300
300
300
300
300
300
300
300
300
300
341.87463
325.00247
310.59141
302.40925
299.79174
299.65373
299.89617
299.99178
300.00317
300.00098
300.00007
299.99998
300
300
300
300
300
300
300
300
300
300
300
300
300
300
300
300
300
300
300
300
300
300
300
300
300
300
300
300
342.02264
325.4777
311.18149
302.78881
299.90997
299.65196
299.88149
299.98715
300.00289
300.00116
300.00012
299.99999
300
300
300
300
300
300
300
300
300
300
300
300
300
300
300
300
300
300
300
300
300
300
300
300
300
300
300
300
342.16285
325.92448
311.74823
303.1696
300.03999
299.65666
299.86752
299.98196
300.00239
300.00132
300.00017
299.99999
299.99999
300
300
300
300
300
300
300
300
300
300
300
300
300
300
300
300
300
300
300
300
300
300
300
300
300
300
300
342.2955
326.34541
312.29267
303.55024
300.18068
299.66789
299.85457
299.97631
300.00165
300.00146
300.00023
300
299.99999
300
300
300
300
300
300
300
300
300
300
300
300
300
300
300
300
300
300
300
300
300
300
300
300
300
300
300
342.42094
326.7427
312.81578
303.92952
300.331
299.68568
299.84291
299.97027
300.00067
300.00156
300.0003
300.00001
299.99999
300
300
300
300
300
300
300
300
300
300
300
300
300
300
300
300
300
300
300
300
300
300
300
300
300
300
300
342.53959
327.11829
313.3185
304.30645
300.48992
299.70996
299.83281
299.96396
299.99944
300.0016
300.00037
300.00002
299.99999
300
300
300
300
300
300
300
300
300
300
300
300
300
300
300
300
300
300
300
300
300
300
300
300
300
300
300
342.65187
327.47386
313.8017
304.68018
300.6565
299.74064
299.82449
299.95747
299.99796
300.0016
300.00045
300.00003
299.99999
300
300
300
300
300
300
300
300
300
300
300
300
300
300
300
300
300
300
300
300
300
300
300
300
300
300
300
342.75821
327.81092
314.26623
305.04999
300.82983
299.77757
299.81814
299.95091
299.99624
300.00152
300.00052
300.00005
299.99999
300
300
300
300
300
300
300
300
300
300
300
300
300
300
300
300
300
300
300
300
300
300
300
300
300
300
300
342.859
328.1308
314.71287
305.41527
301.00908
299.82054
299.81395
299.94439
299.99429
300.00137
300.00058
300.00007
300
300
300
300
300
300
300
300
300
300
300
300
300
300
300
300
300
300
300
300
300
300
300
300
300
300
300
300
342.9546
328.43469
315.14238
305.7755
301.19345
299.86936
299.81204
299.93801
299.99213
300.00114
300.00064
300.0001
300
300
300
300
300
300
300
300
300
300
300
300
300
300
300
300
300
300
300
300
300
300
300
300
300
300
300
300
343.04533
328.72364
315.55547
306.13024
301.38221
299.92378
299.81255
299.93189
299.98979
300.00083
300.00068
300.00012
300
300
300
300
300
300
300
300
300
300
300
300
300
300
300
300
300
300
300
300
300
300
300
300
300
300
300
300
343.13147
328.99859
315.95279
306.47913
301.57466
299.98354
299.81556
299.92611
299.98728
300.00042
300.00071
300.00015
300.00001
300
300
300
300
300
300
300
300
300
300
300
300
300
300
300
300
300
300
300
300
300
300
300
300
300
300
300
343.21326
329.26036
316.33497
306.82186
301.77016
300.04837
299.82114
299.9208
299.98464
299.99992
300.00073
300.00018
300.00001
300
300
300
300
300
300
300
300
300
300
300
300
300
300
300
300
300
300
300
300
300
300
300
300
300
300
300
343.2909
329.50968
316.70257
307.15815
301.9681
300.11799
299.82934
299.91602
299.9819
299.99933
300.00072
300.0002
300.00002
300
300
300
300
300
300
300
300
300
300
300
300
300
300
300
300
300
300
300
300
300
300
300
300
300
300
300
343.36455
329.74715
317.05612
307.48777
302.16792
300.19212
299.84018
299.91189
299.97908
299.99865
300.00068
300.00023
300.00003
300
300
300
300
300
300
300
300
300
300
300
300
300
300
300
300
300
300
300
300
300
300
300
300
300
300
300
343.43434
329.97331
317.39607
307.81053
302.36909
300.27044
299.85369
299.90846
299.97624
299.99788
300.00062
300.00025
300.00004
300
300
300
300
300
300
300
300
300
300
300
300
300
300
300
300
300
300
300
300
300
300
300
300
300
300
300
343.50037
330.18859
317.72285
308.12623
302.5711
300.35267
299.86984
299.90583
299.9734
299.99703
300.00053
300.00027
300.00005
300
300
300
300
300
300
300
300
300
300
300
300
300
300
300
300
300
300
300
300
300
300
300
300
300
300
300
343.5627
330.39336
318.03682
308.43471
302.77348
300.4385
299.88863
299.90406
299.9706
299.9961
300.00041
300.00029
300.00005
300
300
300
300
300
300
300
300
300
300
300
300
300
300
300
300
300
300
300
300
300
300
300
300
300
300
300
343.62137
330.5879
318.3383
308.73582
302.97578
300.52764
299.90999
299.9032
299.96788
299.9951
300.00026
300.0003
300.00006
300
300
300
300
300
300
300
300
300
300
300
300
300
300
300
300
300
300
300
300
300
300
300
300
300
300
300
343.67638
330.7724
318.62754
309.02941
303.17757
300.61977
299.9339
299.90332
299.96528
299.99404
300.00007
300.0003
300.00007
300.00001
300
300
300
300
300
300
300
300
300
300
300
300
300
300
300
300
300
300
300
300
300
300
300
300
300
300
343.72772
330.94699
318.90473
309.31532
303.37844
300.71459
299.96027
299.90445
299.96283
299.99293
299.99985
300.0003
300.00008
300.00001
300
300
300
300
300
300
300
300
300
300
300
300
300
300
300
300
300
300
300
300
300
300
300
300
300
300
343.77536
331.11172
319.17002
309.5934
303.57798
300.81181
299.98904
299.90664
299.96057
299.99177
299.99959
300.00028
300.00009
300.00001
300
300
300
300
300
300
300
300
300
300
300
300
300
300
300
300
300
300
300
300
300
300
300
300
300
300
343.81923
331.26658
319.42349
309.86349
303.77582
300.9111
300.02011
299.90991
299.95853
299.99059
299.9993
300.00026
300.0001
300.00002
300
300
300
300
300
300
300
300
300
300
300
300
300
300
300
300
300
300
300
300
300
300
300
300
300
300
343.85928
331.41148
319.66515
310.12541
303.97158
301.01218
300.05338
299.91429
299.95676
299.9894
299.99898
300.00023
300.00011
300.00002
300
300
300
300
300
300
300
300
300
300
300
300
300
300
300
300
300
300
300
300
300
300
300
300
300
300
343.89543
331.54629
319.89495
310.37895
304.1649
301.11473
300.08875
299.9198
299.95528
299.9882
299.99863
300.00019
300.00011
300.00002
300
300
300
300
300
300
300
300
300
300
300
300
300
300
300
300
300
300
300
300
300
300
300
300
300
300
343.92762
331.67079
320.11278
310.62391
304.35539
301.21845
300.1261
299.92643
299.95412
299.98701
299.99825
300.00013
300.00012
300.00003
300
300
300
300
300
300
300
300
300
300
300
300
300
300
300
300
300
300
300
300
300
300
300
300
300
300
343.95579
331.78478
320.31847
310.86003
304.54271
301.32304
300.16529
299.93419
299.95331
299.98585
299.99784
300.00006
300.00012
300.00003
300
300
300
300
300
300
300
300
300
300
300
300
300
300
300
300
300
300
300
300
300
300
300
300
300
300
343.97992
331.88798
320.51177
311.08705
304.72648
301.42818
300.20621
299.94308
299.95287
299.98473
299.99742
299.99998
300.00011
300.00003
300
300
300
300
300
300
300
300
300
300
300
300
300
300
300
300
300
300
300
300
300
300
300
300
300
300
344.00002
331.98015
320.69239
311.30465
304.90634
301.53356
300.24869
299.95307
299.95284
299.98366
299.99697
299.99989
300.00011
300.00003
300.00001
300
300
300
300
300
300
300
300
300
300
300
300
300
300
300
300
300
300
300
300
300
300
300
300
300
344.01615
332.06109
320.86
311.51252
305.08191
301.63888
300.29259
299.96414
299.95321
299.98266
299.99651
299.99979
300.0001
300.00004
300.00001
300
300
300
300
300
300
300
300
300
300
300
300
300
300
300
300
300
300
300
300
300
300
300
300
300
344.02844
332.13065
321.01425
311.71027
305.2528
301.74382
300.33776
299.97627
299.95402
299.98175
299.99604
299.99967
300.00009
300.00004
300.00001
300
300
300
300
300
300
300
300
300
300
300
300
300
300
300
300
300
300
300
300
300
300
300
300
300
344.03706
332.18883
321.15477
311.89753
305.41863
301.84807
300.38403
299.98942
299.95528
299.98093
299.99556
299.99954
300.00007
300.00004
300.00001
300
300
300
300
300
300
300
300
300
300
300
300
300
300
300
300
300
300
300
300
300
300
300
300
300
344.04228
332.23575
321.28126
312.07389
305.57902
301.95131
300.43122
300.00354
299.95699
299.98022
299.99508
299.9994
300.00005
300.00004
300.00001
300
300
300
300
300
300
300
300
300
300
300
300
300
300
300
300
300
300
300
300
300
300
300
300
300
344.04444
332.27176
321.39346
312.23894
305.73355
302.05323
300.47917
300.01858
299.95917
299.97963
299.99461
299.99926
300.00003
300.00004
300.00001
300
300
300
300
300
300
300
300
300
300
300
300
300
300
300
300
300
300
300
300
300
300
300
300
300
344.04393
332.29742
321.49126
312.3923
305.88184
302.1535
300.5277
300.0345
299.9618
299.97917
299.99415
299.9991
300
300.00004
300.00001
300
300
300
300
300
300
300
300
300
300
300
300
300
300
300
300
300
300
300
300
300
300
300
300
300
344.04119
332.31349
321.57468
312.53364
306.02352
302.25182
300.57663
300.05122
299.9649
299.97886
299.9937
299.99894
299.99997
300.00004
300.00001
300
300
300
300
300
300
300
300
300
300
300
300
300
300
300
300
300
300
300
300
300
300
300
300
300
344.03669
332.321
321.644
312.66267
306.15821
302.34789
300.62577
300.06868
299.96846
299.9787
299.99328
299.99877
299.99993
300.00003
300.00001
300
300
300
300
300
300
300
300
300
300
300
300
300
300
300
300
300
300
300
300
300
300
300
300
300
344.03092
332.32111
321.69969
312.77924
306.28559
302.44142
300.67494
300.08682
299.97247
299.9787
299.99288
299.99859
299.99989
300.00003
300.00001
300
300
300
300
300
300
300
300
300
300
300
300
300
300
300
300
300
300
300
300
300
300
300
300
300
344.02433
332.31518
321.74253
312.88332
306.40538
302.53212
300.72397
300.10555
299.97691
299.97886
299.99251
299.99842
299.99985
300.00002
300.00001
300
300
300
300
300
300
300
300
300
300
300
300
300
300
300
300
300
300
300
300
300
300
300
300
300
344.01735
332.30459
321.77354
312.97506
306.51736
302.61976
300.77268
300.1248
299.98178
299.9792
299.99218
299.99824
299.9998
300.00002
300.00001
300
300
300
300
300
300
300
300
300
300
300
300
300
300
300
300
300
300
300
300
300
300
300
300
300
344.01034
332.29077
321.794
313.0548
306.62142
302.7041
300.8209
300.1445
299.98705
299.97971
299.99189
299.99806
299.99975
300.00001
300.00001
300
300
300
300
300
300
300
300
300
300
300
300
300
300
300
300
300
300
300
300
300
300
300
300
300
344.00361
332.27506
321.80542
313.12307
306.71751
302.78497
300.86849
300.16457
299.99271
299.9804
299.99164
299.99789
299.99969
300
300.00001
300
300
300
300
300
300
300
300
300
300
300
300
300
300
300
300
300
300
300
300
300
300
300
300
300
343.99736
332.25869
321.80946
313.18065
306.80572
302.86222
300.91529
300.18493
299.99873
299.98126
299.99144
299.99772
299.99964
299.99999
300.00001
300
300
300
300
300
300
300
300
300
300
300
300
300
300
300
300
300
300
300
300
300
300
300
300
300
343.99172
332.24268
321.80786
313.22849
306.88623
302.93575
300.96118
300.2055
300.00509
299.9823
299.99129
299.99755
299.99958
299.99998
300.00001
300
300
300
300
300
300
300
300
300
300
300
300
300
300
300
300
300
300
300
300
300
300
300
300
300
343.98672
332.22784
321.80238
313.26773
306.95938
303.00554
301.00606
300.22621
300.01176
299.98351
299.9912
299.9974
299.99952
299.99996
300.00001
300
300
300
300
300
300
300
300
300
300
300
300
300
300
300
300
300
300
300
300
300
300
300
300
300
343.98233
332.2147
321.79469
313.29962
307.02559
303.0716
301.04984
300.24701
300.01872
299.98489
299.99117
299.99725
299.99945
299.99995
300.00001
300
300
300
300
300
300
300
300
300
300
300
300
300
300
300
300
300
300
300
300
300
300
300
300
300
343.97844
332.20352
321.78629
313.32554
307.08541
303.13399
301.09244
300.26781
300.02594
299.98644
299.99119
299.99712
299.99939
299.99993
300
300
300
300
300
300
300
300
300
300
300
300
300
300
300
300
300
300
300
300
300
300
300
300
300
300
343.97488
332.1943
321.77841
313.34685
307.13947
303.19284
301.13383
300.28858
300.0334
299.98815
299.99127
299.99699
299.99933
299.99991
300
300
300
300
300
300
300
300
300
300
300
300
300
300
300
300
300
300
300
300
300
300
300
300
300
300
343.97146
332.18679
321.77198
313.36487
307.18847
303.24833
301.17397
300.30925
300.04106
299.99001
299.99142
299.99688
299.99927
299.99989
300
300
300
300
300
300
300
300
300
300
300
300
300
300
300
300
300
300
300
300
300
300
300
300
300
300
343.96795
332.18052
321.76756
313.3808
307.23314
303.30067
301.21286
300.32979
300.0489
299.99202
299.99162
299.99679
299.99921
299.99987
299.99999
300
300
300
300
300
300
300
300
300
300
300
300
300
300
300
300
300
300
300
300
300
300
300
300
300
343.96415
332.17488
321.76532
313.39569
307.27421
303.35011
301.25051
300.35015
300.05691
299.99418
299.99189
299.99671
299.99915
299.99985
299.99999
300
300
300
300
300
300
300
300
300
300
300
300
300
300
300
300
300
300
300
300
300
300
300
300
300
343.95985
332.16916
321.76506
313.41031
307.31236
303.3969
301.28696
300.37031
300.06505
299.99646
299.99222
299.99665
299.99909
299.99983
299.99999
300
300
300
300
300
300
300
300
300
300
300
300
300
300
300
300
300
300
300
300
300
300
300
300
300
343.95491
332.16261
321.76626
313.4252
307.34823
303.44131
301.32223
300.39024
300.07331
299.99887
299.9926
299.9966
299.99903
299.99981
299.99998
300
300
300
300
300
300
300
300
300
300
300
300
300
300
300
300
300
300
300
300
300
300
300
300
300
343.9492
332.15452
321.76809
313.44056
307.38233
303.4836
301.35638
300.40992
300.08165
300.0014
299.99305
299.99658
299.99898
299.99979
299.99997
300
300
300
300
300
300
300
300
300
300
300
300
300
300
300
300
300
300
300
300
300
300
300
300
300
343.94268
332.14429
321.76956
313.45634
307.41507
303.52401
301.38945
300.42933
300.09008
300.00404
299.99356
299.99657
299.99893
299.99977
299.99997
300
300
300
300
300
300
300
300
300
300
300
300
300
300
300
300
300
300
300
300
300
300
300
300
300
343.93533
332.13143
321.76957
313.47217
307.44669
303.56276
301.4215
300.44846
300.09856
300.00678
299.99413
299.99659
299.99889
299.99975
299.99996
300
300
300
300
300
300
300
300
300
300
300
300
300
300
300
300
300
300
300
300
300
300
300
300
300
343.92721
332.11565
321.76701
313.48746
307.47731
303.60001
301.45259
300.46729
300.10708
300.00962
299.99475
299.99662
299.99885
299.99973
299.99996
300
300
300
300
300
300
300
300
300
300
300
300
300
300
300
300
300
300
300
300
300
300
300
300
300
343.91841
332.09683
321.76088
313.50143
307.50685
303.6359
301.48275
300.48583
300.11563
300.01254
299.99542
299.99667
299.99881
299.99971
299.99995
300
300
300
300
300
300
300
300
300
300
300
300
300
300
300
300
300
300
300
300
300
300
300
300
300
343.90907
332.07503
321.75037
313.51319
307.5351
303.67049
301.51205
300.50406
300.12419
300.01555
299.99615
299.99675
299.99878
299.99969
299.99994
299.99999
300
300
300
300
300
300
300
300
300
300
300
300
300
300
300
300
300
300
300
300
300
300
300
300
343.89934
332.05051
321.73492
313.52184
307.56172
303.70377
301.5405
300.522
300.13274
300.01862
299.99692
299.99684
299.99876
299.99967
299.99994
299.99999
300
300
300
300
300
300
300
300
300
300
300
300
300
300
300
300
300
300
300
300
300
300
300
300
343.88939
332.02362
321.71422
313.52651
307.58622
303.73565
301.5681
300.53962
300.14129
300.02175
299.99774
299.99695
299.99874
299.99965
299.99993
299.99999
300
300
300
300
300
300
300
300
300
300
300
300
300
300
300
300
300
300
300
300
300
300
300
300
343.87939
331.99486
321.68827
313.52651
307.6081
303.76598
301.59483
300.55691
300.1498
300.02494
299.99861
299.99709
299.99872
299.99963
299.99992
299.99999
300
300
300
300
300
300
300
300
300
300
300
300
300
300
300
300
300
300
300
300
300
300
300
300
343.86951
331.96474
321.65732
313.52132
307.62683
303.79452
301.6206
300.57383
300.15827
300.02819
299.99952
299.99724
299.99872
299.99961
299.99992
299.99999
300
300
300
300
300
300
300
300
300
300
300
300
300
300
300
300
300
300
300
300
300
300
300
300
343.85989
331.93383
321.62181
313.51063
307.64198
303.82103
301.64531
300.59034
300.16667
300.03147
300.00047
299.99742
299.99872
299.9996
299.99991
299.99999
300
300
300
300
300
300
300
300
300
300
300
300
300
300
300
300
300
300
300
300
300
300
300
300
343.85067
331.90267
321.58234
313.49437
307.65323
303.84529
301.66884
300.60638
300.17498
300.0348
300.00148
299.99762
299.99872
299.99959
299.9999
299.99998
300
300
300
300
300
300
300
300
300
300
300
300
300
300
300
300
300
300
300
300
300
300
300
300
343.84196
331.87177
321.5396
313.47261
307.66039
303.86716
301.69109
300.62188
300.18316
300.03815
300.00253
299.99785
299.99874
299.99958
299.9999
299.99998
300
300
300
300
300
300
300
300
300
300
300
300
300
300
300
300
300
300
300
300
300
300
300
300
343.83382
331.84157
321.4943
313.44553
307.66344
303.88666
301.71208
300.63682
300.1912
300.04153
300.00362
299.9981
299.99877
299.99957
299.99989
299.99998
300
300
300
300
300
300
300
300
300
300
300
300
300
300
300
300
300
300
300
300
300
300
300
300
343.82633
331.81246
321.44714
313.41335
307.66239
303.9039
301.73191
300.65126
300.1991
300.04491
300.00475
299.99838
299.99881
299.99956
299.99988
299.99998
300
300
300
300
300
300
300
300
300
300
300
300
300
300
300
300
300
300
300
300
300
300
300
300
343.81952
331.78476
321.3988
313.37626
307.65721
303.91906
301.75081
300.66529
300.20688
300.04828
300.0059
299.99867
299.99885
299.99956
299.99988
299.99997
300
300
300
300
300
300
300
300
300
300
300
300
300
300
300
300
300
300
300
300
300
300
300
300
343.8134
331.75872
321.34991
313.33442
307.64774
303.93229
301.76907
300.67913
300.2146
300.05165
300.00705
299.99895
299.99889
299.99955
299.99987
299.99997
300
300
300
300
300
300
300
300
300
300
300
300
300
300
300
300
300
300
300
300
300
300
300
300
343.80797
331.73453
321.30109
313.28798
307.63356
303.94352
301.78695
300.693
300.22236
300.05502
300.00818
299.99923
299.99893
299.99955
299.99987
299.99997
299.99999
300
300
300
300
300
300
300
300
300
300
300
300
300
300
300
300
300
300
300
300
300
300
300
343.80321
331.71233
321.25294
313.23717
307.61402
303.95234
301.80454
300.70711
300.23027
300.05841
300.00928
299.99948
299.99895
299.99953
299.99986
299.99997
299.99999
300
300
300
300
300
300
300
300
300
300
300
300
300
300
300
300
300
300
300
300
300
300
300
343.79908
331.69217
321.20604
313.18233
307.58834
303.95792
301.82162
300.72158
300.23845
300.06186
300.01036
299.99969
299.99895
299.99951
299.99985
299.99996
299.99999
300
300
300
300
300
300
300
300
300
300
300
300
300
300
300
300
300
300
300
300
300
300
300
343.79556
331.67412
321.16101
313.12406
307.55568
303.95897
301.8375
300.73625
300.24695
300.06542
300.01142
299.99987
299.99893
299.99949
299.99984
299.99996
299.99999
300
300
300
300
300
300
300
300
300
300
300
300
300
300
300
300
300
300
300
300
300
300
300
343.79258
331.65814
321.11839
313.06334
307.51577
303.9543
301.85127
300.7508
300.25572
300.06912
300.0125
300.00003
299.99889
299.99945
299.99982
299.99996
299.99999
300
300
300
300
300
300
300
300
300
300
300
300
300
300
300
300
300
300
300
300
300
300
300
343.79014
331.64423
321.07853
313.00042
307.46696
303.94103
301.86076
300.76431
300.26461
300.07305
300.01368
300.00021
299.99885
299.99941
299.99981
299.99995
299.99999
300
300
300
300
300
300
300
300
300
300
300
300
300
300
300
300
300
300
300
300
300
300
300
343.78808
331.63241
321.04389
312.94283
307.4187
303.92498
301.86746
300.77616
300.27275
300.07669
300.01477
300.00036
299.99881
299.99937
299.99979
299.99995
299.99999
300
300
300
300
300
300
300
300
300
300
300
300
300
300
300
300
300
300
300
300
300
300
300
343.78662
331.6196
320.99857
312.85353
307.32415
303.87284
301.85883
300.7865
300.2837
300.08275
300.01703
300.00092
299.99886
299.99935
299.99978
299.99995
299.99999
300
300
300
300
300
300
300
300
300
300
300
300
300
300
300
300
300
300
300
300
300
300
300
)
;

boundaryField
{
    wall
    {
        type            fixedValue;
        value           uniform 350;
    }
    sides
    {
        type            zeroGradient;
    }
    frontAndBack
    {
        type            empty;
    }
    inlet
    {
        type            fixedValue;
        value           uniform 300;
    }
    outlet
    {
        type            zeroGradient;
    }
}


// ************************************************************************* //
