/*--------------------------------*- C++ -*----------------------------------*\
  =========                 |
  \\      /  F ield         | OpenFOAM: The Open Source CFD Toolbox
   \\    /   O peration     | Website:  https://openfoam.org
    \\  /    A nd           | Version:  10
     \\/     M anipulation  |
\*---------------------------------------------------------------------------*/
FoamFile
{
    format      ascii;
    class       volVectorField;
    location    "0.19";
    object      U;
}
// * * * * * * * * * * * * * * * * * * * * * * * * * * * * * * * * * * * * * //

dimensions      [0 1 -1 0 0 0 0];

internalField   nonuniform List<vector> 
4000
(
(0 0.018637355 0.47773162)
(0 0.023509812 0.50886058)
(0 0.0081666865 0.50052522)
(0 0.0056144532 0.50033635)
(0 0.0042544634 0.50025746)
(0 0.0032547858 0.50016898)
(0 0.0025559465 0.50011968)
(0 0.002054459 0.50009013)
(0 0.0016764833 0.5000698)
(0 0.0013821759 0.50005538)
(0 0.0011471639 0.50004498)
(0 0.00095510792 0.50003732)
(0 0.00079475338 0.50003159)
(0 0.00065812406 0.50002726)
(0 0.00053939119 0.50002398)
(0 0.00043417355 0.5000215)
(0 0.00033908324 0.50001965)
(0 0.00025141777 0.50001832)
(0 0.00016894391 0.50001743)
(0 8.9739127e-05 0.50001692)
(0 1.2069565e-05 0.50001678)
(0 -6.5717599e-05 0.50001697)
(0 -0.00014528509 0.50001754)
(0 -0.00022839814 0.50001849)
(0 -0.00031703484 0.5000199)
(0 -0.00041351694 0.50002184)
(0 -0.00052068163 0.50002446)
(0 -0.00064212071 0.50002792)
(0 -0.00078252854 0.50003251)
(0 -0.00094823195 0.50003863)
(0 -0.0011480412 0.50004688)
(0 -0.0013946154 0.50005824)
(0 -0.0017067019 0.50007414)
(0 -0.0021146506 0.50009709)
(0 -0.0026743768 0.50013482)
(0 -0.0034679967 0.50020239)
(0 -0.0045602947 0.50027145)
(0 -0.0065845259 0.50043367)
(0 -0.017658966 0.50675399)
(0 -0.013589878 0.47975578)
(0 0.037432403 0.44796961)
(0 0.050955172 0.53232612)
(0 0.021968756 0.5080429)
(0 0.016135119 0.50357321)
(0 0.012415543 0.50242316)
(0 0.0095154367 0.50162297)
(0 0.0075201478 0.50115658)
(0 0.0060694818 0.50086588)
(0 0.0049642404 0.50066795)
(0 0.0040998897 0.50052895)
(0 0.0034074781 0.50042897)
(0 0.0028400566 0.50035546)
(0 0.0023652501 0.50030056)
(0 0.0019599734 0.50025916)
(0 0.0016072648 0.5002278)
(0 0.0012943276 0.50020414)
(0 0.0010112353 0.50018654)
(0 0.00075004856 0.50017386)
(0 0.00050419157 0.50016535)
(0 0.00026799319 0.50016052)
(0 3.6331365e-05 0.50015909)
(0 -0.00019567506 0.500161)
(0 -0.00043293704 0.50016635)
(0 -0.00068066661 0.50017546)
(0 -0.00094469582 0.50018888)
(0 -0.0012318558 0.50020744)
(0 -0.0015504722 0.50023239)
(0 -0.0019110533 0.50026552)
(0 -0.0023272819 0.50030945)
(0 -0.0028174998 0.50036807)
(0 -0.0034070841 0.50044733)
(0 -0.004132413 0.50055671)
(0 -0.005046568 0.50071128)
(0 -0.0062294175 0.50093665)
(0 -0.0078298465 0.50129444)
(0 -0.010123657 0.50191062)
(0 -0.013104998 0.50282527)
(0 -0.017424479 0.50608128)
(0 -0.038757365 0.52526805)
(0 -0.027893882 0.45021754)
(0 0.039887853 0.40982148)
(0 0.06142716 0.54930827)
(0 0.03198272 0.52188193)
(0 0.024354587 0.5100806)
(0 0.019192701 0.50658856)
(0 0.014976279 0.50452803)
(0 0.012005928 0.50327131)
(0 0.0097712334 0.50245827)
(0 0.0080359547 0.50190092)
(0 0.0066644434 0.50150853)
(0 0.0055564765 0.50122529)
(0 0.0046425174 0.50101651)
(0 0.003873826 0.50086034)
(0 0.003215004 0.50074241)
(0 0.0026397148 0.50065301)
(0 0.0021279025 0.50058549)
(0 0.0016638877 0.50053522)
(0 0.0012350478 0.500499)
(0 0.0008308729 0.50047468)
(0 0.00044226125 0.50046086)
(0 6.0968636e-05 0.50045678)
(0 -0.00032086932 0.50046222)
(0 -0.00071116429 0.50047752)
(0 -0.0011182986 0.50050355)
(0 -0.0015516205 0.50054187)
(0 -0.0020220276 0.50059486)
(0 -0.0025427215 0.50066601)
(0 -0.0031302383 0.50076041)
(0 -0.0038059112 0.50088544)
(0 -0.0045979833 0.50105203)
(0 -0.0055448127 0.5012767)
(0 -0.0067003835 0.50158561)
(0 -0.0081419009 0.50202085)
(0 -0.0099734596 0.50265084)
(0 -0.012367874 0.50361526)
(0 -0.015713121 0.50519945)
(0 -0.019869885 0.50785431)
(0 -0.02518357 0.51641241)
(0 -0.047414479 0.53912767)
(0 -0.030852528 0.41488294)
(0 0.03479106 0.3617319)
(0 0.063837512 0.55456386)
(0 0.039378769 0.53747128)
(0 0.030081965 0.51849265)
(0 0.024111185 0.51197729)
(0 0.019278233 0.50849935)
(0 0.015734916 0.50626408)
(0 0.012953066 0.50475521)
(0 0.010742719 0.50370413)
(0 0.0089671816 0.50295577)
(0 0.007513419 0.50241068)
(0 0.0063017633 0.50200635)
(0 0.0052744062 0.50170252)
(0 0.0043880875 0.50147226)
(0 0.003609987 0.50129722)
(0 0.0029147174 0.50116471)
(0 0.0022821689 0.5010659)
(0 0.0016959772 0.50099463)
(0 0.0011423979 0.50094671)
(0 0.00060944725 0.50091945)
(0 8.6220542e-05 0.50091139)
(0 -0.00043770704 0.5009221)
(0 -0.00097282101 0.50095223)
(0 -0.0015301957 0.50100348)
(0 -0.0021221144 0.50107884)
(0 -0.0027627875 0.50118289)
(0 -0.0034692582 0.50132235)
(0 -0.0042626084 0.50150689)
(0 -0.0051696223 0.50175052)
(0 -0.0062250836 0.50207371)
(0 -0.0074748653 0.50250694)
(0 -0.0089812039 0.50309721)
(0 -0.010831475 0.50391922)
(0 -0.013132247 0.50508937)
(0 -0.016019176 0.50680713)
(0 -0.019894849 0.50946793)
(0 -0.024727225 0.51427543)
(0 -0.031108961 0.52824718)
(0 -0.050315929 0.5440734)
(0 -0.028436896 0.37238618)
(0 0.027423672 0.31484626)
(0 0.062313023 0.55024193)
(0 0.044612193 0.55146754)
(0 0.033979976 0.52748809)
(0 0.02746205 0.51772238)
(0 0.022453227 0.51291964)
(0 0.018634986 0.50973112)
(0 0.015526512 0.5074922)
(0 0.013004825 0.5058994)
(0 0.010941093 0.50474627)
(0 0.0092239297 0.50389541)
(0 0.0077744789 0.50325837)
(0 0.0065327497 0.50277623)
(0 0.005452312 0.50240878)
(0 0.0044971126 0.50212823)
(0 0.0036386805 0.50191511)
(0 0.0028540663 0.50175575)
(0 0.0021243252 0.50164057)
(0 0.0014333577 0.501563)
(0 0.00076699765 0.50151883)
(0 0.00011227483 0.50150573)
(0 -0.00054324711 0.50152305)
(0 -0.0012120735 0.50157179)
(0 -0.0019073564 0.50165463)
(0 -0.0026435802 0.50177625)
(0 -0.0034373306 0.50194382)
(0 -0.0043082406 0.50216773)
(0 -0.0052802016 0.50246286)
(0 -0.0063829706 0.50285047)
(0 -0.0076543295 0.50336121)
(0 -0.0091425485 0.50403972)
(0 -0.010910071 0.50495254)
(0 -0.013043738 0.50620248)
(0 -0.01564736 0.50794444)
(0 -0.018808791 0.51040478)
(0 -0.022889547 0.51405554)
(0 -0.028171108 0.52114618)
(0 -0.035700868 0.5393268)
(0 -0.050471671 0.54155886)
(0 -0.024084555 0.33056729)
(0 0.019837279 0.27520218)
(0 0.057987717 0.53974904)
(0 0.0473607 0.56256474)
(0 0.036474811 0.53660436)
(0 0.029633452 0.52350699)
(0 0.024673565 0.51740299)
(0 0.020771862 0.51336251)
(0 0.017507652 0.51044387)
(0 0.014812428 0.50832338)
(0 0.012565255 0.50676085)
(0 0.010664603 0.5055917)
(0 0.0090384729 0.5047068)
(0 0.0076292425 0.50403123)
(0 0.0063910447 0.50351276)
(0 0.0052874139 0.50311468)
(0 0.0042888748 0.50281096)
(0 0.0033711922 0.50258305)
(0 0.0025140229 0.50241787)
(0 0.0016998361 0.50230642)
(0 0.00091303784 0.50224284)
(0 0.00013924388 0.50222392)
(0 -0.0006353859 0.50224877)
(0 -0.001424764 0.50231874)
(0 -0.002243452 0.50243757)
(0 -0.0031073531 0.50261169)
(0 -0.0040344616 0.50285089)
(0 -0.0050457604 0.50316932)
(0 -0.0061663228 0.50358697)
(0 -0.007426706 0.50413202)
(0 -0.0088648461 0.50484442)
(0 -0.010528017 0.50578116)
(0 -0.01247452 0.50702454)
(0 -0.014784575 0.50869772)
(0 -0.017559981 0.51098235)
(0 -0.020854725 0.5141208)
(0 -0.024965074 0.5187313)
(0 -0.030500294 0.52823075)
(0 -0.03862135 0.54872491)
(0 -0.048502481 0.53399145)
(0 -0.019065091 0.29395266)
(0 0.013082519 0.24256095)
(0 0.051796082 0.5252048)
(0 0.047705383 0.57024879)
(0 0.037753301 0.54552452)
(0 0.030846924 0.52928835)
(0 0.026070219 0.52180119)
(0 0.022234909 0.51699717)
(0 0.018950954 0.51347246)
(0 0.016191159 0.51086371)
(0 0.013847708 0.508911)
(0 0.011834102 0.50743102)
(0 0.010087747 0.50629874)
(0 0.0085560165 0.50542641)
(0 0.0071961536 0.50475189)
(0 0.0059733516 0.50423082)
(0 0.0048587855 0.50383126)
(0 0.00382826 0.50353025)
(0 0.0028610959 0.50331141)
(0 0.0019391978 0.50316339)
(0 0.0010462742 0.50307879)
(0 0.00016717357 0.50305352)
(0 -0.00071273956 0.50308644)
(0 -0.0016081726 0.50317927)
(0 -0.002534439 0.50333674)
(0 -0.0035081131 0.50356698)
(0 -0.0045477081 0.50388228)
(0 -0.0056744716 0.50430024)
(0 -0.0069133266 0.50484548)
(0 -0.0082939877 0.50555227)
(0 -0.0098525347 0.5064684)
(0 -0.011633172 0.50766102)
(0 -0.013688155 0.50922498)
(0 -0.016086998 0.51129826)
(0 -0.018925012 0.51408022)
(0 -0.022233586 0.51783971)
(0 -0.026253483 0.52346927)
(0 -0.031837405 0.53537607)
(0 -0.039748132 0.55589859)
(0 -0.044886409 0.52283513)
(0 -0.014088654 0.26266457)
(0 0.0077694145 0.21554903)
(0 0.044822613 0.50801651)
(0 0.0462504 0.57438176)
(0 0.038030418 0.5537506)
(0 0.031283419 0.53496003)
(0 0.026764126 0.52602964)
(0 0.023112763 0.5205374)
(0 0.019917243 0.51648684)
(0 0.017179006 0.51343991)
(0 0.014810822 0.51112861)
(0 0.012744257 0.5093572)
(0 0.010927253 0.50798843)
(0 0.0093138981 0.50692468)
(0 0.0078662177 0.50609602)
(0 0.0065524596 0.50545188)
(0 0.0053456592 0.50495539)
(0 0.0042226974 0.50457978)
(0 0.0031634349 0.50430579)
(0 0.0021499602 0.50411999)
(0 0.0011659399 0.50401357)
(0 0.00019604958 0.50398165)
(0 -0.0007745747 0.50402284)
(0 -0.0017608667 0.50413922)
(0 -0.0027782905 0.5043364)
(0 -0.0038434273 0.50462405)
(0 -0.0049745506 0.50501667)
(0 -0.006192289 0.50553489)
(0 -0.0075203913 0.50620729)
(0 -0.0089865512 0.5070732)
(0 -0.010623575 0.50818679)
(0 -0.012471053 0.50962331)
(0 -0.014574129 0.51148779)
(0 -0.016989008 0.51392913)
(0 -0.019797373 0.51715609)
(0 -0.023015213 0.52148171)
(0 -0.026864924 0.52818439)
(0 -0.032336801 0.54222118)
(0 -0.039389239 0.56050569)
(0 -0.040319306 0.50910189)
(0 -0.0097059048 0.23588262)
(0 0.0040042012 0.19356642)
(0 0.037895819 0.48949654)
(0 0.043680814 0.57524205)
(0 0.037557729 0.56084416)
(0 0.03114861 0.54036036)
(0 0.026908926 0.5300105)
(0 0.0235092 0.52390048)
(0 0.020475856 0.51941081)
(0 0.017822865 0.51598561)
(0 0.015486251 0.51335634)
(0 0.01341568 0.51132118)
(0 0.011569791 0.50973426)
(0 0.009910416 0.50849094)
(0 0.0084053089 0.50751555)
(0 0.0070266317 0.50675272)
(0 0.0057501033 0.50616175)
(0 0.0045544314 0.50571276)
(0 0.0034206868 0.50538415)
(0 0.0023317446 0.50516071)
(0 0.0012717784 0.50503243)
(0 0.00022580274 0.50499376)
(0 -0.00082078033 0.50504311)
(0 -0.0018826347 0.50518284)
(0 -0.0029748595 0.50541935)
(0 -0.0041134885 0.50576359)
(0 -0.0053159471 0.50623193)
(0 -0.006601567 0.50684749)
(0 -0.00799217 0.50764206)
(0 -0.0095126236 0.50865899)
(0 -0.011191539 0.50995736)
(0 -0.013062792 0.51161849)
(0 -0.015163914 0.51375504)
(0 -0.017537547 0.51652278)
(0 -0.020247868 0.52013278)
(0 -0.023302765 0.52496518)
(0 -0.026943982 0.53274189)
(0 -0.032185266 0.54839152)
(0 -0.037977757 0.56254996)
(0 -0.035404439 0.4938186)
(0 -0.0061981407 0.21328384)
(0 0.0015502858 0.17614587)
(0 0.031495367 0.47077476)
(0 0.040524803 0.57338926)
(0 0.036551092 0.56659733)
(0 0.03063016 0.54537722)
(0 0.026664974 0.53370334)
(0 0.023536816 0.5270305)
(0 0.020704676 0.52218606)
(0 0.018177896 0.51844834)
(0 0.015912986 0.51554766)
(0 0.013875512 0.51328185)
(0 0.01203403 0.51150028)
(0 0.010358231 0.51009392)
(0 0.0088218463 0.50898327)
(0 0.0074013333 0.50810962)
(0 0.0060755656 0.50742942)
(0 0.0048255562 0.50691052)
(0 0.0036340522 0.50652946)
(0 0.0024851625 0.50626966)
(0 0.0013639952 0.50612015)
(0 0.00025631504 0.50607482)
(0 -0.0008518059 0.50613194)
(0 -0.0019743563 0.50629408)
(0 -0.0031256561 0.50656828)
(0 -0.004320761 0.50696653)
(0 -0.0055757954 0.50750666)
(0 -0.0069083205 0.50821372)
(0 -0.008337739 0.50912191)
(0 -0.0098856349 0.51027755)
(0 -0.01157603 0.51174319)
(0 -0.013436662 0.51360419)
(0 -0.015497613 0.51597801)
(0 -0.017789515 0.51902322)
(0 -0.020359345 0.52295085)
(0 -0.023214353 0.52823762)
(0 -0.026634589 0.53704221)
(0 -0.031544063 0.55365993)
(0 -0.035884641 0.56231831)
(0 -0.030541335 0.4779266)
(0 -0.0035883424 0.19464849)
(0 7.5843063e-05 0.16253996)
(0 0.025865518 0.45261786)
(0 0.037150587 0.569439)
(0 0.035181437 0.57098764)
(0 0.029868216 0.5499611)
(0 0.026165269 0.53711214)
(0 0.023297958 0.52991005)
(0 0.020680187 0.52478114)
(0 0.018301461 0.5207944)
(0 0.016133376 0.51766963)
(0 0.01415463 0.51520825)
(0 0.012342353 0.51325811)
(0 0.010673455 0.51170796)
(0 0.0091273081 0.51047612)
(0 0.0076846442 0.50950181)
(0 0.0063276417 0.50873966)
(0 0.0050398488 0.50815592)
(0 0.0038059626 0.50772585)
(0 0.002611621 0.50743184)
(0 0.0014431695 0.50726223)
(0 0.00028742789 0.50721049)
(0 -0.00086855646 0.50727476)
(0 -0.0020377903 0.50745779)
(0 -0.0032335084 0.5077671)
(0 -0.0044694823 0.50821544)
(0 -0.0057602385 0.50882172)
(0 -0.0071212896 0.50961234)
(0 -0.0085693799 0.51062318)
(0 -0.010122669 0.51190248)
(0 -0.011800658 0.51351498)
(0 -0.013625155 0.51554832)
(0 -0.015619393 0.51812225)
(0 -0.017804016 0.521395)
(0 -0.020211439 0.525581)
(0 -0.022855227 0.53128481)
(0 -0.026052816 0.54103279)
(0 -0.030543763 0.55793564)
(0 -0.033403164 0.56020611)
(0 -0.025981748 0.46211496)
(0 -0.0017622107 0.17951682)
(0 -0.00071892153 0.15192531)
(0 0.021102431 0.43545775)
(0 0.033808495 0.56394035)
(0 0.033591789 0.57408799)
(0 0.028963419 0.55409133)
(0 0.025509336 0.54026114)
(0 0.022876228 0.53254963)
(0 0.020469315 0.52718805)
(0 0.018246545 0.52300772)
(0 0.016188486 0.51970266)
(0 0.014284397 0.51707959)
(0 0.012518503 0.51498708)
(0 0.010873893 0.51331324)
(0 0.0093349167 0.51197546)
(0 0.0078862742 0.51091193)
(0 0.0065133486 0.51007629)
(0 0.005202247 0.50943385)
(0 0.0039397238 0.50895903)
(0 0.0027131032 0.50863359)
(0 0.0015101538 0.50844537)
(0 0.00031895143 0.50838755)
(0 -0.00087227333 0.50845821)
(0 -0.0020753363 0.5086602)
(0 -0.0033021858 0.50900136)
(0 -0.0045651233 0.50949498)
(0 -0.0058769195 0.51016065)
(0 -0.007250934 0.51102563)
(0 -0.0087012243 0.5121268)
(0 -0.010242625 0.51351346)
(0 -0.011890473 0.51525146)
(0 -0.013661237 0.51742944)
(0 -0.015572091 0.52016756)
(0 -0.017635519 0.52362175)
(0 -0.019873029 0.52801769)
(0 -0.022310734 0.53411287)
(0 -0.025289559 0.54468266)
(0 -0.029299504 0.56120942)
(0 -0.030764844 0.55660876)
(0 -0.021879207 0.44682202)
(0 -0.00056141758 0.16730172)
(0 -0.0010710951 0.14360466)
(0 0.01719695 0.41950867)
(0 0.03065411 0.55735269)
(0 0.031900043 0.57601965)
(0 0.027989806 0.55776028)
(0 0.024770674 0.54317616)
(0 0.022338048 0.53497192)
(0 0.020127673 0.52941269)
(0 0.018058895 0.52508424)
(0 0.016115316 0.52163733)
(0 0.014294298 0.51888332)
(0 0.01258567 0.51667312)
(0 0.010977555 0.51489515)
(0 0.0094584962 0.51346673)
(0 0.0080166947 0.51232581)
(0 0.0066404738 0.51142567)
(0 0.0053183751 0.51073118)
(0 0.0040391874 0.51021637)
(0 0.0027919636 0.50986261)
(0 0.0015659793 0.50965749)
(0 0.00035067358 0.50959401)
(0 -0.00086442095 0.50967017)
(0 -0.00208981 0.50988894)
(0 -0.0033360493 0.51025831)
(0 -0.0046138873 0.51079188)
(0 -0.005934299 0.51150961)
(0 -0.0073085186 0.5124392)
(0 -0.0087480418 0.51361797)
(0 -0.010264635 0.51509561)
(0 -0.011869961 0.51693829)
(0 -0.013575918 0.51923474)
(0 -0.01539453 0.52210417)
(0 -0.017331804 0.52569952)
(0 -0.019402377 0.53026786)
(0 -0.021649772 0.53673345)
(0 -0.024417999 0.54797173)
(0 -0.027912955 0.56352529)
(0 -0.028140214 0.55188815)
(0 -0.018307843 0.43231259)
(0 0.00017245093 0.15745721)
(0 -0.0011542364 0.13702664)
(0 0.014071578 0.40485105)
(0 0.027767462 0.55005047)
(0 0.030194218 0.57693016)
(0 0.026999755 0.56097443)
(0 0.024002231 0.54588116)
(0 0.021735259 0.53720387)
(0 0.019700419 0.53146814)
(0 0.017776817 0.52702722)
(0 0.015945943 0.52347102)
(0 0.014210779 0.52061304)
(0 0.012565329 0.51830737)
(0 0.011001633 0.5164434)
(0 0.0095116176 0.51493892)
(0 0.008086452 0.51373216)
(0 0.0067170415 0.51277648)
(0 0.0053941444 0.51203674)
(0 0.004108469 0.51148685)
(0 0.002850751 0.51110806)
(0 0.0016117737 0.51088784)
(0 0.00038236927 0.51081912)
(0 -0.00084658627 0.51089989)
(0 -0.0020842465 0.51113312)
(0 -0.0033397471 0.51152689)
(0 -0.0046222858 0.5120949)
(0 -0.0059410906 0.51285724)
(0 -0.0073053925 0.5138417)
(0 -0.008724349 0.51508561)
(0 -0.010207008 0.51663859)
(0 -0.011761916 0.51856654)
(0 -0.013397232 0.52095767)
(0 -0.015120818 0.52392929)
(0 -0.016933861 0.52763195)
(0 -0.018848016 0.53234519)
(0 -0.020926846 0.53916064)
(0 -0.023495293 0.55089355)
(0 -0.026466551 0.56496597)
(0 -0.025640486 0.54636227)
(0 -0.015279265 0.41873476)
(0 0.00057750813 0.14952058)
(0 -0.0010866753 0.13175154)
(0 0.011615661 0.39147631)
(0 0.025176368 0.54232753)
(0 0.028533097 0.57697392)
(0 0.026026624 0.56375347)
(0 0.023239326 0.54839896)
(0 0.021106343 0.53927392)
(0 0.019222964 0.5333718)
(0 0.017431504 0.52884459)
(0 0.015707393 0.52520581)
(0 0.014056812 0.52226677)
(0 0.012476657 0.51988501)
(0 0.010961882 0.51795128)
(0 0.009507026 0.51638411)
(0 0.008105669 0.51512232)
(0 0.0067509032 0.51411968)
(0 0.0054354348 0.51334127)
(0 0.0041517169 0.51276113)
(0 0.0028920596 0.51236056)
(0 0.0016486931 0.51212706)
(0 0.00041380919 0.51205355)
(0 -0.00082039221 0.51213801)
(0 -0.0020617324 0.51238338)
(0 -0.003317963 0.51279777)
(0 -0.0045967966 0.5133948)
(0 -0.0059058277 0.5141945)
(0 -0.0072524675 0.51522451)
(0 -0.0086438183 0.51652189)
(0 -0.010086612 0.51813579)
(0 -0.01158685 0.52013156)
(0 -0.013149769 0.5225964)
(0 -0.01478006 0.5256453)
(0 -0.016475683 0.52942819)
(0 -0.018248609 0.53426777)
(0 -0.020182532 0.54141102)
(0 -0.022562945 0.5534558)
(0 -0.025021317 0.5656361)
(0 -0.023328308 0.54029718)
(0 -0.012763829 0.40615054)
(0 0.00076285294 0.14309765)
(0 -0.00094485295 0.12743383)
(0 0.0097104228 0.37931851)
(0 0.022877355 0.53440441)
(0 0.026951846 0.57629609)
(0 0.025089115 0.56612467)
(0 0.022503145 0.55075023)
(0 0.020477921 0.54120972)
(0 0.018721719 0.53514325)
(0 0.01704741 0.53054733)
(0 0.015421698 0.52684701)
(0 0.013851733 0.52384578)
(0 0.012336256 0.52140433)
(0 0.010872286 0.51941491)
(0 0.0094562823 0.51779692)
(0 0.0080837079 0.51648992)
(0 0.0067494447 0.51544821)
(0 0.005447857 0.5146373)
(0 0.0041729343 0.51403149)
(0 0.0029184139 0.51361227)
(0 0.0016778673 0.51336724)
(0 0.00044476804 0.51328935)
(0 -0.00078742679 0.5133766)
(0 -0.0020252729 0.5136319)
(0 -0.0032752199 0.51406326)
(0 -0.0045436059 0.51468419)
(0 -0.0058365479 0.51551447)
(0 -0.0071598567 0.51658143)
(0 -0.0085188877 0.51792165)
(0 -0.0099184708 0.51958367)
(0 -0.011362615 0.52163202)
(0 -0.012854374 0.52415273)
(0 -0.014396165 0.52725838)
(0 -0.015984181 0.53110107)
(0 -0.017633225 0.53605598)
(0 -0.019444949 0.5435021)
(0 -0.021648952 0.55567598)
(0 -0.023619227 0.56564591)
(0 -0.021231701 0.53390455)
(0 -0.010709007 0.39455959)
(0 0.00080879804 0.13785514)
(0 -0.00077626044 0.12381248)
(0 0.0082432091 0.36828085)
(0 0.02085013 0.52644075)
(0 0.025468327 0.57502465)
(0 0.024195982 0.56811767)
(0 0.021804792 0.55295194)
(0 0.019867102 0.5430359)
(0 0.018215417 0.53680223)
(0 0.016642957 0.53214791)
(0 0.015106196 0.52840188)
(0 0.013611308 0.52535351)
(0 0.01215807 0.52286585)
(0 0.010744893 0.52083263)
(0 0.0093695644 0.51917408)
(0 0.008028965 0.51783049)
(0 0.0067193945 0.5167568)
(0 0.0054365884 0.51591898)
(0 0.0041758533 0.51529171)
(0 0.0029321843 0.51485672)
(0 0.0017003618 0.51460177)
(0 0.00047503215 0.51451991)
(0 -0.00074918918 0.51460912)
(0 -0.0019776917 0.51487229)
(0 -0.0032157362 0.51531727)
(0 -0.0044684255 0.51595737)
(0 -0.0057405783 0.51681208)
(0 -0.0070366385 0.51790827)
(0 -0.0083605222 0.51928198)
(0 -0.0097155533 0.52098103)
(0 -0.011104245 0.5230691)
(0 -0.012528098 0.52563097)
(0 -0.013988018 0.52877709)
(0 -0.015479731 0.53266527)
(0 -0.017022575 0.53773003)
(0 -0.018732273 0.54545032)
(0 -0.020770814 0.55757655)
(0 -0.022286796 0.56510047)
(0 -0.019355737 0.5273466)
(0 -0.0090520216 0.38392158)
(0 0.00077184958 0.13352076)
(0 -0.00060888557 0.12069729)
(0 0.0071148288 0.35825458)
(0 0.019066656 0.51854885)
(0 0.024088379 0.57326873)
(0 0.023349644 0.56976186)
(0 0.021148673 0.55501695)
(0 0.019283928 0.54477287)
(0 0.017716716 0.53836704)
(0 0.016231535 0.53365889)
(0 0.01477411 0.52987847)
(0 0.01334803 0.52679467)
(0 0.011953502 0.52427162)
(0 0.01058981 0.52220438)
(0 0.0092555979 0.52051391)
(0 0.0079487707 0.51914115)
(0 0.0066667163 0.51804164)
(0 0.0054062754 0.51718186)
(0 0.0041638552 0.51653689)
(0 0.0029355331 0.51608874)
(0 0.0017171525 0.51582535)
(0 0.00050440587 0.51573987)
(0 -0.00070705163 0.51583029)
(0 -0.0019215628 0.51609944)
(0 -0.0031433309 0.51655502)
(0 -0.0043763769 0.51721009)
(0 -0.0056244079 0.51808378)
(0 -0.0068907314 0.5192025)
(0 -0.0081781127 0.52060168)
(0 -0.0094887258 0.52232844)
(0 -0.010824015 0.52444564)
(0 -0.012184443 0.52703688)
(0 -0.013570025 0.5302111)
(0 -0.014977129 0.53413562)
(0 -0.016430606 0.53930836)
(0 -0.01805522 0.54726999)
(0 -0.019938193 0.55918202)
(0 -0.021038444 0.56409474)
(0 -0.017691135 0.52074421)
(0 -0.0077281523 0.37417385)
(0 0.00069042205 0.12987928)
(0 -0.00045765066 0.11795308)
(0 0.006242698 0.34913037)
(0 0.017496773 0.51080541)
(0 0.022810079 0.57111981)
(0 0.022548691 0.57108531)
(0 0.020534907 0.55695468)
(0 0.018733385 0.54643671)
(0 0.017233686 0.53985377)
(0 0.015822539 0.53509213)
(0 0.014435236 0.53128493)
(0 0.013071546 0.52817453)
(0 0.011731651 0.52562456)
(0 0.010415317 0.52353118)
(0 0.0091216898 0.5218159)
(0 0.0078493754 0.52042019)
(0 0.006596572 0.51930014)
(0 0.0053609874 0.5184227)
(0 0.0041399291 0.5177633)
(0 0.0029303852 0.51730428)
(0 0.001729113 0.51703375)
(0 0.00053271706 0.51694497)
(0 -0.00066223549 0.51703595)
(0 -0.0018591698 0.51730943)
(0 -0.0030613706 0.51777296)
(0 -0.004271933 0.51843932)
(0 -0.0054936352 0.51932731)
(0 -0.0067288643 0.52046284)
(0 -0.0079794933 0.52188078)
(0 -0.0092468524 0.52362762)
(0 -0.01053167 0.52576548)
(0 -0.011833776 0.52837692)
(0 -0.013152786 0.53157023)
(0 -0.014486614 0.5355261)
(0 -0.015865966 0.54080692)
(0 -0.017419044 0.5489732)
(0 -0.019155035 0.56051717)
(0 -0.019879572 0.56271165)
(0 -0.016220585 0.51418517)
(0 -0.0066761831 0.36524313)
(0 0.00058969676 0.12676427)
(0 -0.00032902232 0.11548566)
(0 0.0055610781 0.34080451)
(0 0.016111517 0.50326073)
(0 0.021627105 0.5686538)
(0 0.021789687 0.57211417)
(0 0.019961032 0.55877173)
(0 0.018216981 0.54803956)
(0 0.016771006 0.54127612)
(0 0.015422271 0.53645835)
(0 0.014096612 0.53262897)
(0 0.012789121 0.52949844)
(0 0.011499615 0.52692806)
(0 0.010228058 0.52481474)
(0 0.0089738312 0.5230804)
(0 0.0077359976 0.52166688)
(0 0.0065133343 0.5205307)
(0 0.0053042132 0.51963921)
(0 0.0041066614 0.51896821)
(0 0.0029184178 0.51850029)
(0 0.0017370099 0.51822375)
(0 0.00055982072 0.51813195)
(0 -0.00061579951 0.51822292)
(0 -0.0017924888 0.51849931)
(0 -0.0029727508 0.51896852)
(0 -0.004158906 0.51964307)
(0 -0.0053529744 0.52054139)
(0 -0.006556617 0.52168899)
(0 -0.0077710374 0.52312022)
(0 -0.0089969766 0.52488101)
(0 -0.010234726 0.52703292)
(0 -0.011483794 0.52965767)
(0 -0.01274377 0.53286393)
(0 -0.014014794 0.53684938)
(0 -0.015333266 0.54223901)
(0 -0.016825132 0.55056982)
(0 -0.018421371 0.56160586)
(0 -0.018809408 0.56102195)
(0 -0.014923215 0.50773126)
(0 -0.005841512 0.35705304)
(0 0.00048542255 0.12404916)
(0 -0.00022433321 0.11323067)
(0 0.0050194835 0.33318221)
(0 0.014884763 0.49594592)
(0 0.020531167 0.56593333)
(0 0.021068427 0.57287245)
(0 0.019423242 0.56047254)
(0 0.017733966 0.54959018)
(0 0.016330943 0.54264543)
(0 0.015034698 0.53776701)
(0 0.013763105 0.53391766)
(0 0.012506081 0.53077157)
(0 0.011262809 0.52818564)
(0 0.010033248 0.52605719)
(0 0.0088168372 0.52430833)
(0 0.0076129089 0.52288115)
(0 0.0064206364 0.52173245)
(0 0.0052388855 0.52082994)
(0 0.0040662465 0.5201497)
(0 0.0029010652 0.51967455)
(0 0.0017415053 0.51939297)
(0 0.00058560128 0.5192984)
(0 -0.00056863783 0.51938888)
(0 -0.0017231882 0.519667)
(0 -0.0028799038 0.52013998)
(0 -0.0040404701 0.52082012)
(0 -0.0052063026 0.52172554)
(0 -0.0063785055 0.52288136)
(0 -0.0075578 0.5243215)
(0 -0.0087445412 0.52609149)
(0 -0.0099387943 0.52825243)
(0 -0.01113998 0.53088549)
(0 -0.012347933 0.5341009)
(0 -0.013565487 0.53811649)
(0 -0.014834177 0.54361528)
(0 -0.016272302 0.55206775)
(0 -0.017734783 0.56247021)
(0 -0.01782337 0.55908491)
(0 -0.013777479 0.50142432)
(0 -0.0051774688 0.34952876)
(0 0.00038680999 0.12163924)
(0 -0.00014205451 0.11114477)
(0 0.0045802543 0.32617908)
(0 0.013793805 0.48887855)
(0 0.019513544 0.56301015)
(0 0.020380717 0.57338203)
(0 0.018917245 0.56206)
(0 0.017282269 0.55109444)
(0 0.015914127 0.54397077)
(0 0.01466208 0.53902623)
(0 0.013437923 0.53515731)
(0 0.012226205 0.53199871)
(0 0.011025259 0.52940079)
(0 0.0098348964 0.52726082)
(0 0.0086545008 0.52550098)
(0 0.0074835399 0.52406341)
(0 0.0063214404 0.52290512)
(0 0.0051674248 0.52199405)
(0 0.0040205138 0.52130652)
(0 0.0028795338 0.52082554)
(0 0.0017431636 0.52053973)
(0 0.0006099734 0.52044262)
(0 -0.00052148532 0.52053223)
(0 -0.0016526435 0.52081108)
(0 -0.0027848245 0.52128628)
(0 -0.0039192054 0.52196991)
(0 -0.0050567318 0.52287982)
(0 -0.0061980935 0.5240408)
(0 -0.0073436812 0.52548647)
(0 -0.0084936211 0.52726204)
(0 -0.0096479061 0.52942835)
(0 -0.010806031 0.53206628)
(0 -0.011968281 0.53528891)
(0 -0.013140446 0.53933678)
(0 -0.014368347 0.54494395)
(0 -0.015757813 0.55347304)
(0 -0.017091514 0.56313036)
(0 -0.016914811 0.55694971)
(0 -0.012762893 0.49529142)
(0 -0.0046455053 0.34259993)
(0 0.00029869217 0.11946484)
(0 -7.9275859e-05 0.10919899)
(0 0.0042159692 0.31972122)
(0 0.01281933 0.48206677)
(0 0.018565967 0.5599272)
(0 0.01972278 0.57366296)
(0 0.018438789 0.56353595)
(0 0.016859157 0.55255598)
(0 0.015520132 0.54525925)
(0 0.014305473 0.54024284)
(0 0.013123036 0.53635343)
(0 0.01195207 0.53318417)
(0 0.010789875 0.53057678)
(0 0.0096360121 0.52842798)
(0 0.0084897491 0.52665983)
(0 0.007350593 0.52521443)
(0 0.0062181181 0.52404887)
(0 0.005091794 0.52313122)
(0 0.0039709625 0.52243798)
(0 0.0028548224 0.52195231)
(0 0.0017424613 0.52166296)
(0 0.00063288085 0.52156348)
(0 -0.00047492895 0.52165192)
(0 -0.0015819591 0.52193074)
(0 -0.002689109 0.52240692)
(0 -0.0037971579 0.52309236)
(0 -0.0049066956 0.52400471)
(0 -0.0060181154 0.5251685)
(0 -0.0071315966 0.52661713)
(0 -0.0082471542 0.52839564)
(0 -0.009364813 0.53056473)
(0 -0.010484255 0.53320535)
(0 -0.011606363 0.53643469)
(0 -0.012739967 0.54051791)
(0 -0.01393413 0.54623105)
(0 -0.015278098 0.55479027)
(0 -0.016487226 0.56360435)
(0 -0.016076226 0.55465698)
(0 -0.011860924 0.48934885)
(0 -0.0042146812 0.33620218)
(0 0.00022305445 0.11747545)
(0 -3.2629295e-05 0.10737381)
(0 0.0039070542 0.31374472)
(0 0.011945117 0.47551239)
(0 0.017681034 0.55672035)
(0 0.019091418 0.57373373)
(0 0.017983954 0.56490169)
(0 0.016461661 0.55397672)
(0 0.0151479 0.54651628)
(0 0.013965112 0.54142255)
(0 0.01281952 0.53751077)
(0 0.011685343 0.5343318)
(0 0.010558686 0.53171665)
(0 0.0094387954 0.52956093)
(0 0.0083247899 0.52778647)
(0 0.0072161543 0.52633519)
(0 0.0061125323 0.52516414)
(0 0.0050135568 0.52424148)
(0 0.0039188012 0.5235438)
(0 0.0028277461 0.52305437)
(0 0.0017397969 0.52276202)
(0 0.00065429531 0.52266035)
(0 -0.00042942147 0.5227474)
(0 -0.0015119968 0.52302558)
(0 -0.0025939993 0.52350177)
(0 -0.0036759047 0.52418775)
(0 -0.0047580418 0.52510096)
(0 -0.0058406019 0.52626581)
(0 -0.006923644 0.52771554)
(0 -0.0080071566 0.52949513)
(0 -0.0090912624 0.53166528)
(0 -0.010175906 0.53430737)
(0 -0.01126267 0.53754398)
(0 -0.012363368 0.541666)
(0 -0.013529122 0.54748084)
(0 -0.014829275 0.55602285)
(0 -0.015917521 0.56390837)
(0 -0.015300062 0.55224023)
(0 -0.01105534 0.4836052)
(0 -0.0038607545 0.33027781)
(0 0.00016010255 0.11563487)
(0 1.1692745e-06 0.10565567)
(0 0.0036397419 0.30819468)
(0 0.011157618 0.46921294)
(0 0.01685235 0.55341976)
(0 0.018484029 0.57361151)
(0 0.017549297 0.56615833)
(0 0.016086845 0.55535731)
(0 0.014796021 0.54774585)
(0 0.013640699 0.54257004)
(0 0.01252782 0.53863338)
(0 0.011427012 0.53544495)
(0 0.010333045 0.53282314)
(0 0.0092448026 0.53066183)
(0 0.008161246 0.52888249)
(0 0.0070817979 0.52742679)
(0 0.0060061175 0.52625162)
(0 0.0049339362 0.52532515)
(0 0.0038649882 0.52462402)
(0 0.0027989615 0.52413158)
(0 0.001735502 0.52383668)
(0 0.00067421384 0.52373297)
(0 -0.00038529729 0.52381848)
(0 -0.0014434066 0.52409557)
(0 -0.0025004313 0.52457105)
(0 -0.0035566219 0.52525658)
(0 -0.0046121239 0.52616953)
(0 -0.0056670001 0.52733416)
(0 -0.0067212574 0.52878367)
(0 -0.0077749152 0.5305631)
(0 -0.0088282322 0.53273329)
(0 -0.0098814609 0.53537637)
(0 -0.010936958 0.53862156)
(0 -0.012009344 0.54278582)
(0 -0.013150546 0.54869607)
(0 -0.014407481 0.55717335)
(0 -0.015378247 0.56405693)
(0 -0.014579201 0.54972724)
(0 -0.010332223 0.47806367)
(0 -0.0035651107 0.32477576)
(0 0.00010900599 0.11391734)
(0 2.5041643e-05 0.10403472)
(0 0.0034044319 0.30302406)
(0 0.010445516 0.46316323)
(0 0.016074482 0.55005098)
(0 0.017898552 0.57331234)
(0 0.017131886 0.56730703)
(0 0.015731957 0.55669757)
(0 0.014462928 0.54895084)
(0 0.013331594 0.54368913)
(0 0.012247945 0.53972471)
(0 0.011177568 0.53652655)
(0 0.010113788 0.5338987)
(0 0.0090550858 0.53173267)
(0 0.0080002708 0.52994946)
(0 0.0069486806 0.52849038)
(0 0.0058999526 0.52731211)
(0 0.0048538693 0.52638275)
(0 0.00381027 0.52567895)
(0 0.0027689897 0.52518406)
(0 0.0017298514 0.52488698)
(0 0.00069265567 0.52478136)
(0 -0.00034278934 0.52486522)
(0 -0.0013766577 0.52514091)
(0 -0.0024090814 0.52561515)
(0 -0.0034401499 0.52629956)
(0 -0.0044698872 0.52721142)
(0 -0.0054982839 0.52837496)
(0 -0.0065253431 0.5298234)
(0 -0.007551153 0.53160193)
(0 -0.0085761252 0.53377162)
(0 -0.0096008463 0.5364158)
(0 -0.010628498 0.53967137)
(0 -0.01167624 0.54388098)
(0 -0.012795527 0.54987837)
(0 -0.01400908 0.55824376)
(0 -0.014865673 0.56406313)
(0 -0.013907218 0.54714108)
(0 -0.0096798084 0.47272378)
(0 -0.0033136959 0.31965134)
(0 6.8404901e-05 0.11230451)
(0 4.1439446e-05 0.10250331)
(0 0.0031944363 0.29819262)
(0 0.0097993216 0.45735629)
(0 0.015342843 0.54663573)
(0 0.017333365 0.57285131)
(0 0.016729282 0.56834918)
(0 0.015394493 0.55799676)
(0 0.014147015 0.55013318)
(0 0.013036966 0.54478293)
(0 0.011979615 0.54078768)
(0 0.010937149 0.53757912)