/*--------------------------------*- C++ -*----------------------------------*\
  =========                 |
  \\      /  F ield         | OpenFOAM: The Open Source CFD Toolbox
   \\    /   O peration     | Website:  https://openfoam.org
    \\  /    A nd           | Version:  10
     \\/     M anipulation  |
\*---------------------------------------------------------------------------*/
FoamFile
{
    format      ascii;
    class       volVectorField;
    location    "0.19";
    object      U_0;
}
// * * * * * * * * * * * * * * * * * * * * * * * * * * * * * * * * * * * * * //

dimensions      [0 1 -1 0 0 0 0];

internalField   nonuniform List<vector> 
4000
(
(0 0.018637349 0.47773162)
(0 0.023509801 0.50886058)
(0 0.0081666763 0.50052522)
(0 0.0056144432 0.50033635)
(0 0.0042544527 0.50025746)
(0 0.003254775 0.50016898)
(0 0.0025559361 0.50011968)
(0 0.0020544492 0.50009013)
(0 0.0016764745 0.5000698)
(0 0.0013821683 0.50005538)
(0 0.0011471576 0.50004498)
(0 0.0009551033 0.50003732)
(0 0.00079475055 0.50003159)
(0 0.00065812317 0.50002726)
(0 0.00053939238 0.50002398)
(0 0.00043417691 0.5000215)
(0 0.00033908887 0.50001965)
(0 0.00025142573 0.50001832)
(0 0.00016895424 0.50001743)
(0 8.975184e-05 0.50001692)
(0 1.2084659e-05 0.50001677)
(0 -6.5700168e-05 0.50001697)
(0 -0.00014526539 0.50001754)
(0 -0.00022837626 0.50001849)
(0 -0.0003170109 0.5000199)
(0 -0.00041349111 0.50002184)
(0 -0.00052065406 0.50002446)
(0 -0.00064209162 0.50002792)
(0 -0.00078249819 0.50003251)
(0 -0.0009482006 0.50003863)
(0 -0.0011480091 0.50004688)
(0 -0.001394583 0.50005824)
(0 -0.0017066696 0.50007414)
(0 -0.0021146187 0.50009709)
(0 -0.0026743459 0.50013482)
(0 -0.0034679676 0.50020239)
(0 -0.0045602684 0.50027145)
(0 -0.0065845013 0.50043367)
(0 -0.017658942 0.50675399)
(0 -0.013589865 0.47975578)
(0 0.037432387 0.44796963)
(0 0.050955138 0.53232612)
(0 0.021968722 0.5080429)
(0 0.016135087 0.50357321)
(0 0.012415509 0.50242316)
(0 0.0095154024 0.50162297)
(0 0.0075201147 0.50115658)
(0 0.0060694507 0.50086588)
(0 0.0049642121 0.50066795)
(0 0.0040998651 0.50052895)
(0 0.0034074578 0.50042897)
(0 0.0028400412 0.50035546)
(0 0.0023652402 0.50030056)
(0 0.0019599695 0.50025915)
(0 0.0016072673 0.5002278)
(0 0.0012943369 0.50020414)
(0 0.0010112516 0.50018653)
(0 0.0007500721 0.50017386)
(0 0.00050422247 0.50016535)
(0 0.0002680315 0.50016051)
(0 3.637705e-05 0.50015909)
(0 -0.0001956221 0.50016099)
(0 -0.00043287703 0.50016634)
(0 -0.0006805998 0.50017546)
(0 -0.0009446226 0.50018888)
(0 -0.0012317766 0.50020744)
(0 -0.0015503876 0.50023239)
(0 -0.001910964 0.50026551)
(0 -0.0023271886 0.50030944)
(0 -0.0028174033 0.50036807)
(0 -0.0034069853 0.50044733)
(0 -0.004132313 0.50055671)
(0 -0.0050464681 0.50071128)
(0 -0.006229319 0.50093665)
(0 -0.0078297508 0.50129445)
(0 -0.010123566 0.50191063)
(0 -0.013104916 0.50282527)
(0 -0.0174244 0.50608129)
(0 -0.03875729 0.52526805)
(0 -0.027893847 0.45021758)
(0 0.039887829 0.40982154)
(0 0.061427103 0.54930827)
(0 0.031982657 0.52188193)
(0 0.024354529 0.5100806)
(0 0.01919264 0.50658856)
(0 0.014976218 0.50452803)
(0 0.012005869 0.50327131)
(0 0.0097711784 0.50245827)
(0 0.0080359047 0.50190092)
(0 0.0066643997 0.50150852)
(0 0.0055564401 0.50122528)
(0 0.0046424896 0.5010165)
(0 0.0038738076 0.50086033)
(0 0.0032149959 0.5007424)
(0 0.0026397177 0.500653)
(0 0.0021279171 0.50058547)
(0 0.0016639145 0.5005352)
(0 0.001235087 0.50049899)
(0 0.00083092485 0.50047467)
(0 0.00044232597 0.50046084)
(0 6.1046091e-05 0.50045676)
(0 -0.0003207793 0.50046221)
(0 -0.00071106206 0.5004775)
(0 -0.0011181847 0.50050354)
(0 -0.0015514954 0.50054186)
(0 -0.0020218922 0.50059485)
(0 -0.0025425767 0.500666)
(0 -0.0031300852 0.5007604)
(0 -0.0038057511 0.50088543)
(0 -0.0045978175 0.50105202)
(0 -0.0055446429 0.5012767)
(0 -0.0067002115 0.50158561)
(0 -0.0081417287 0.50202085)
(0 -0.0099732894 0.50265084)
(0 -0.012367709 0.50361527)
(0 -0.015712963 0.50519946)
(0 -0.019869741 0.50785433)
(0 -0.025183426 0.51641241)
(0 -0.047414351 0.53912769)
(0 -0.030852472 0.41488307)
(0 0.03479103 0.361732)
(0 0.063837429 0.55456389)
(0 0.03937867 0.53747128)
(0 0.030081876 0.51849265)
(0 0.024111094 0.51197729)
(0 0.019278142 0.50849935)
(0 0.015734829 0.50626407)
(0 0.012952983 0.5047552)
(0 0.010742644 0.50370411)
(0 0.0089671157 0.50295576)
(0 0.0075133639 0.50241066)
(0 0.0063017205 0.50200633)
(0 0.0052743772 0.50170249)
(0 0.0043880735 0.50147223)
(0 0.003609989 0.50129719)
(0 0.0029147364 0.50116469)
(0 0.0022822055 0.50106587)
(0 0.001696032 0.5009946)
(0 0.0011424712 0.50094668)
(0 0.00060953915 0.50091942)
(0 8.6330993e-05 0.50091136)
(0 -0.00043757828 0.50092207)
(0 -0.00097267442 0.5009522)
(0 -0.0015300319 0.50100345)
(0 -0.0021219344 0.50107881)
(0 -0.0027625924 0.50118287)
(0 -0.0034690493 0.50132233)
(0 -0.0042623872 0.50150687)
(0 -0.0051693906 0.50175051)
(0 -0.0062248436 0.5020737)
(0 -0.0074746191 0.50250694)
(0 -0.0089809541 0.5030972)
(0 -0.010831224 0.50391923)
(0 -0.013131999 0.50508938)
(0 -0.016018934 0.50680715)
(0 -0.019894616 0.50946795)
(0 -0.02472701 0.51427545)
(0 -0.031108738 0.52824719)
(0 -0.050315742 0.54407347)
(0 -0.028436824 0.37238643)
(0 0.027423638 0.31484644)
(0 0.062312914 0.55024201)
(0 0.044612051 0.55146753)
(0 0.033979849 0.52748809)
(0 0.027461923 0.51772238)
(0 0.022453101 0.51291964)
(0 0.018634864 0.50973111)
(0 0.015526398 0.50749218)
(0 0.013004721 0.50589938)
(0 0.010941001 0.50474624)
(0 0.0092238524 0.50389538)
(0 0.0077744182 0.50325833)
(0 0.0065327075 0.50277619)
(0 0.0054522899 0.50240874)
(0 0.004497112 0.50212818)
(0 0.0036387026 0.50191506)
(0 0.0028541121 0.5017557)
(0 0.0021243954 0.50164052)
(0 0.0014334526 0.50156295)
(0 0.00076711758 0.50151878)
(0 0.00011241968 0.50150568)
(0 -0.00054307767 0.501523)
(0 -0.00121188 0.50157174)
(0 -0.0019071399 0.50165458)
(0 -0.0026433417 0.50177621)
(0 -0.0034370716 0.50194378)
(0 -0.004307963 0.50216769)
(0 -0.0052799072 0.50246282)
(0 -0.0063826619 0.50285045)
(0 -0.0076540091 0.50336119)
(0 -0.0091422193 0.50403971)
(0 -0.010909736 0.50495253)
(0 -0.013043402 0.50620248)
(0 -0.015647026 0.50794445)
(0 -0.018808463 0.51040481)
(0 -0.022889231 0.51405558)
(0 -0.028170809 0.52114622)
(0 -0.035700553 0.53932682)
(0 -0.050471423 0.54155902)
(0 -0.02408447 0.3305677)
(0 0.019837242 0.27520243)
(0 0.057987583 0.53974918)
(0 0.047360511 0.56256474)
(0 0.036474638 0.53660436)
(0 0.029633284 0.52350699)
(0 0.024673399 0.51740298)
(0 0.020771702 0.5133625)
(0 0.017507501 0.51044384)
(0 0.01481229 0.50832335)
(0 0.012565133 0.50676081)
(0 0.010664499 0.50559165)
(0 0.0090383907 0.50470674)
(0 0.007629184 0.50403116)
(0 0.0063910118 0.50351269)
(0 0.0052874086 0.50311461)
(0 0.0042888985 0.50281088)
(0 0.0033712462 0.50258297)
(0 0.002514108 0.50241779)
(0 0.001699953 0.50230634)
(0 0.00091318666 0.50224276)
(0 0.00013942464 0.50222384)
(0 -0.00063517362 0.50224869)
(0 -0.0014245209 0.50231867)
(0 -0.0022431793 0.50243749)
(0 -0.0031070521 0.50261162)
(0 -0.0040341342 0.50285083)
(0 -0.0050454087 0.50316926)
(0 -0.0061659493 0.50358692)
(0 -0.0074263137 0.50413198)
(0 -0.0088644383 0.50484439)
(0 -0.010527597 0.50578114)
(0 -0.012474092 0.50702453)
(0 -0.014784144 0.50869773)
(0 -0.017559551 0.51098236)
(0 -0.020854303 0.51412083)
(0 -0.024964664 0.51873135)
(0 -0.030499897 0.52823079)
(0 -0.038620932 0.54872494)
(0 -0.048502172 0.53399176)
(0 -0.019064997 0.29395326)
(0 0.013082482 0.2425613)
(0 0.051795923 0.52520504)
(0 0.047705141 0.57024881)
(0 0.037753072 0.5455245)
(0 0.030846706 0.52928834)
(0 0.026070006 0.52180118)
(0 0.022234703 0.51699714)
(0 0.01895076 0.51347242)
(0 0.016190981 0.51086366)
(0 0.01384755 0.50891094)
(0 0.011833967 0.50743094)
(0 0.010087639 0.50629866)
(0 0.0085559378 0.50542632)
(0 0.0071961067 0.5047518)
(0 0.0059733389 0.50423072)
(0 0.0048588088 0.50383116)
(0 0.0038283208 0.50353014)
(0 0.0028611954 0.50331129)
(0 0.0019393366 0.50316327)
(0 0.0010464527 0.50307867)
(0 0.00016739173 0.50305341)
(0 -0.00071248219 0.50308633)
(0 -0.0016078769 0.50317916)
(0 -0.0025341063 0.50333664)
(0 -0.0035077451 0.50356688)
(0 -0.004547307 0.50388219)
(0 -0.0056740399 0.50430015)
(0 -0.0069128675 0.50484541)
(0 -0.0082935045 0.50555221)
(0 -0.0098520315 0.50646836)
(0 -0.011632653 0.50766099)
(0 -0.013687626 0.50922496)
(0 -0.016086463 0.51129826)
(0 -0.018924478 0.51408024)
(0 -0.022233059 0.51783976)
(0 -0.026252968 0.52346933)
(0 -0.031836893 0.53537611)
(0 -0.039747601 0.55589866)
(0 -0.04488604 0.52283564)
(0 -0.014088553 0.26266539)
(0 0.0077693756 0.21554948)
(0 0.04482243 0.50801688)
(0 0.0462501 0.57438182)
(0 0.038030124 0.55375057)
(0 0.031283142 0.53496001)
(0 0.026763858 0.52602962)
(0 0.023112504 0.52053736)
(0 0.019916999 0.51648679)
(0 0.017178781 0.51343984)
(0 0.014810622 0.51112852)
(0 0.012744086 0.5093571)
(0 0.010927113 0.50798832)
(0 0.0093137945 0.50692455)
(0 0.0078661528 0.50609589)
(0 0.0065524362 0.50545174)
(0 0.0053456795 0.50495524)
(0 0.0042227632 0.50457962)
(0 0.0031635476 0.50430564)
(0 0.0021501207 0.50411983)
(0 0.0011661486 0.50401341)
(0 0.00019630657 0.50398149)
(0 -0.00077426997 0.50402269)
(0 -0.0017605153 0.50413907)
(0 -0.0027778939 0.50433625)
(0 -0.0038429874 0.50462391)
(0 -0.0049740701 0.50501655)
(0 -0.0061917709 0.50553477)
(0 -0.0075198392 0.50620719)
(0 -0.0089859692 0.50707312)
(0 -0.010622968 0.50818673)
(0 -0.012470425 0.50962326)
(0 -0.014573487 0.51148777)
(0 -0.016988358 0.51392913)
(0 -0.019796722 0.51715611)
(0 -0.023014568 0.52148176)
(0 -0.026864288 0.52818445)
(0 -0.032336159 0.54222121)
(0 -0.039388587 0.56050583)
(0 -0.040318879 0.50910266)
(0 -0.009705799 0.23588369)
(0 0.0040041604 0.19356698)
(0 0.037895611 0.48949707)
(0 0.043680452 0.57524217)
(0 0.037557358 0.56084412)
(0 0.031148264 0.54036033)
(0 0.026908593 0.53001047)
(0 0.023508879 0.52390043)
(0 0.020475553 0.51941074)
(0 0.017822587 0.51598552)
(0 0.015486002 0.51335623)
(0 0.013415465 0.51132104)
(0 0.011569615 0.50973411)
(0 0.009910282 0.50849077)
(0 0.0084052213 0.50751537)
(0 0.0070265936 0.50675254)
(0 0.0057501175 0.50616155)
(0 0.0045545 0.50571256)
(0 0.0034208114 0.50538394)
(0 0.0023319264 0.5051605)
(0 0.0012720179 0.50503222)
(0 0.00022609999 0.50499355)
(0 -0.00082042586 0.50504291)
(0 -0.0018822242 0.50518264)
(0 -0.0029743946 0.50541915)
(0 -0.0041129716 0.5057634)
(0 -0.005315381 0.50623176)
(0 -0.0066009553 0.50684733)
(0 -0.0079915167 0.50764192)
(0 -0.0095119336 0.50865887)
(0 -0.011190817 0.50995727)
(0 -0.013062045 0.51161842)
(0 -0.015163148 0.513755)
(0 -0.01753677 0.51652277)
(0 -0.020247086 0.52013281)
(0 -0.023301988 0.52496524)
(0 -0.02694321 0.53274196)
(0 -0.032184475 0.54839154)
(0 -0.037976977 0.56255022)
(0 -0.035403954 0.4938197)
(0 -0.0061980294 0.21328518)
(0 0.0015502427 0.17614656)
(0 0.031495132 0.47077548)
(0 0.040524373 0.57338946)
(0 0.036550634 0.56659728)
(0 0.030629733 0.54537717)
(0 0.026664566 0.53370329)
(0 0.023536424 0.52703043)
(0 0.020704305 0.52218596)
(0 0.018177554 0.51844822)
(0 0.015912679 0.51554751)
(0 0.013875246 0.51328167)
(0 0.012033809 0.51150008)
(0 0.010358061 0.51009371)
(0 0.0088217307 0.50898304)
(0 0.0074012763 0.50810937)
(0 0.0060755702 0.50742917)
(0 0.004825625 0.50691026)
(0 0.0036341872 0.50652919)
(0 0.0024853651 0.50626938)
(0 0.001364266 0.50611987)
(0 0.00025665415 0.50607455)
(0 -0.00085139902 0.50613167)
(0 -0.001973883 0.50629382)
(0 -0.0031251182 0.50656803)
(0 -0.004320161 0.50696629)
(0 -0.0055751367 0.50750644)
(0 -0.006907607 0.50821352)
(0 -0.0083369755 0.50912174)
(0 -0.0098848267 0.5102774)
(0 -0.011575184 0.51174307)
(0 -0.013435784 0.5136041)
(0 -0.01549671 0.51597796)
(0 -0.017788596 0.51902321)
(0 -0.020358419 0.52295087)
(0 -0.02321343 0.52823768)
(0 -0.026633663 0.53704226)
(0 -0.031543108 0.55365994)
(0 -0.035883726 0.56231872)
(0 -0.030540792 0.4779281)
(0 -0.0035882247 0.19465013)
(0 7.5797422e-05 0.16254078)
(0 0.025865254 0.45261882)
(0 0.037150084 0.56943933)
(0 0.035180879 0.5709876)
(0 0.029867693 0.54996103)
(0 0.026164775 0.53711208)
(0 0.023297482 0.52990997)
(0 0.020679737 0.52478101)
(0 0.018301045 0.52079424)
(0 0.016133002 0.51766944)
(0 0.014154303 0.51520803)
(0 0.01234208 0.51325786)
(0 0.010673241 0.51170769)
(0 0.0091271588 0.51047583)
(0 0.0076845634 0.5095015)
(0 0.0063276331 0.50873934)
(0 0.0050399153 0.50815559)
(0 0.0038061065 0.50772551)
(0 0.002611844 0.50743149)
(0 0.0014434724 0.50726188)
(0 0.00028781083 0.50721014)
(0 -0.00086809403 0.50727442)
(0 -0.0020372498 0.50745746)
(0 -0.0032328918 0.50776678)
(0 -0.0044687926 0.50821514)
(0 -0.0057594793 0.50882144)
(0 -0.0071204653 0.50961208)
(0 -0.0085684959 0.51062295)
(0 -0.010121731 0.51190229)
(0 -0.011799674 0.51351482)
(0 -0.013624131 0.51554819)
(0 -0.015618338 0.51812217)
(0 -0.01780294 0.52139496)
(0 -0.020210352 0.52558102)
(0 -0.022854139 0.53128488)
(0 -0.026051715 0.54103283)
(0 -0.030542625 0.55793566)
(0 -0.033402107 0.56020674)
(0 -0.025981144 0.46211692)
(0 -0.0017620856 0.17951879)
(0 -0.00071896947 0.15192628)
(0 0.021102134 0.43545899)
(0 0.033807911 0.56394083)
(0 0.033591119 0.57408796)
(0 0.028962784 0.55409122)
(0 0.02550874 0.54026105)
(0 0.022875657 0.53254952)
(0 0.020468775 0.52718789)
(0 0.018246045 0.52300752)
(0 0.016188035 0.51970242)
(0 0.014284002 0.51707931)
(0 0.01251817 0.51498677)
(0 0.010873629 0.51331291)
(0 0.0093347276 0.5119751)
(0 0.0078861646 0.51091155)
(0 0.0065133229 0.51007589)
(0 0.0052023085 0.50943343)
(0 0.0039398752 0.50895861)
(0 0.0027133464 0.50863315)
(0 0.0015104899 0.50844493)
(0 0.00031938058 0.50838712)
(0 -0.00087175165 0.50845778)
(0 -0.0020747235 0.50865978)
(0 -0.0033014842 0.50900096)
(0 -0.0045643361 0.5094946)
(0 -0.0058760508 0.51016029)
(0 -0.0072499886 0.51102531)
(0 -0.0087002083 0.51212651)
(0 -0.010241545 0.51351321)
(0 -0.011889337 0.51525125)
(0 -0.013660053 0.51742928)
(0 -0.015570869 0.52016745)
(0 -0.017634269 0.5236217)
(0 -0.019871762 0.5280177)
(0 -0.022309461 0.53411292)
(0 -0.025288259 0.54468267)
(0 -0.029298164 0.56120947)
(0 -0.030763634 0.55660967)
(0 -0.02187854 0.44682453)
(0 -0.00056128434 0.16730405)
(0 -0.0010711449 0.14360579)
(0 0.017196615 0.41951023)
(0 0.030653437 0.55735338)
(0 0.031899247 0.57601964)
(0 0.027989043 0.55776013)
(0 0.024769961 0.54317604)
(0 0.022337368 0.53497178)
(0 0.02012703 0.52941249)
(0 0.018058299 0.525084)
(0 0.016114776 0.52163703)
(0 0.014293823 0.51888298)
(0 0.012585268 0.51667274)
(0 0.010977233 0.51489474)
(0 0.0094582604 0.51346628)
(0 0.0080165508 0.51232534)
(0 0.0066404267 0.51142517)
(0 0.0053184286 0.51073067)
(0 0.0040393447 0.51021584)
(0 0.0027922268 0.50986208)
(0 0.0015663497 0.50965695)
(0 0.00035115157 0.50959347)
(0 -0.00086383593 0.50966965)
(0 -0.0020891195 0.50988843)
(0 -0.0033352557 0.51025782)
(0 -0.0046129942 0.51079141)
(0 -0.0059333108 0.51150917)
(0 -0.0073074408 0.5124388)
(0 -0.0087468809 0.5136176)
(0 -0.010263398 0.51509529)
(0 -0.011868657 0.51693802)
(0 -0.013574557 0.51923453)
(0 -0.015393122 0.52210402)
(0 -0.01733036 0.52569944)
(0 -0.01940091 0.53026786)
(0 -0.021648291 0.53673348)
(0 -0.024416477 0.5479717)
(0 -0.027911392 0.56352538)
(0 -0.028138842 0.55188942)
(0 -0.018307105 0.43231573)
(0 0.00017259244 0.15745992)
(0 -0.0011542874 0.13702795)
(0 0.0140712 0.40485298)
(0 0.027766692 0.55005141)
(0 0.030193282 0.5769302)
(0 0.026998845 0.56097424)
(0 0.024001384 0.54588099)
(0 0.021734454 0.53720369)
(0 0.019699657 0.5314679)
(0 0.01777611 0.52702692)
(0 0.015945302 0.52347066)
(0 0.014210214 0.52061263)
(0 0.012564848 0.51830691)
(0 0.011001243 0.5164429)
(0 0.0095113275 0.51493838)
(0 0.0080862676 0.51373159)
(0 0.0067169681 0.51277588)
(0 0.0053941865 0.51203612)
(0 0.0041086302 0.51148621)
(0 0.0028510337 0.51110741)
(0 0.0016121796 0.51088719)
(0 0.00038289877 0.51081847)
(0 -0.00084593365 0.51089925)
(0 -0.0020834723 0.51113249)
(0 -0.0033388541 0.51152629)
(0 -0.0046212776 0.51209432)
(0 -0.0059399722 0.5128567)
(0 -0.0073041698 0.5138412)
(0 -0.0087230293 0.51508516)
(0 -0.0102056 0.51663819)
(0 -0.011760428 0.51856621)
(0 -0.013395675 0.5209574)
(0 -0.015119204 0.5239291)
(0 -0.016932202 0.52763185)
(0 -0.018846327 0.53234516)
(0 -0.020925131 0.53916064)
(0 -0.023493521 0.55089347)
(0 -0.026464743 0.56496614)
(0 -0.025638939 0.54636398)
(0 -0.01527845 0.41873863)
(0 0.00057765736 0.14952372)
(0 -0.0010867269 0.13175307)
(0 0.011615234 0.39147867)
(0 0.025175491 0.54232877)
(0 0.028532004 0.57697402)
(0 0.026025547 0.56375323)
(0 0.023238324 0.54839874)
(0 0.021105394 0.53927369)
(0 0.019222067 0.5333715)
(0 0.017430672 0.52884422)
(0 0.015706637 0.52520537)
(0 0.014056143 0.52226628)
(0 0.012476085 0.51988446)
(0 0.010961415 0.51795067)
(0 0.0095066729 0.51638346)
(0 0.0081054367 0.51512164)
(0 0.0067507978 0.51411896)
(0 0.0054354615 0.51334053)
(0 0.0041518795 0.51276036)
(0 0.0028923611 0.51235979)
(0 0.0016491353 0.51212628)
(0 0.00041439277 0.51205278)
(0 -0.00081966766 0.51213724)
(0 -0.0020608685 0.51238263)
(0 -0.0033169626 0.51279704)
(0 -0.0045956637 0.5133941)
(0 -0.0059045676 0.51419385)
(0 -0.0072510868 0.51522391)
(0 -0.0086423247 0.51652133)
(0 -0.010085014 0.51813531)
(0 -0.011585159 0.52013114)
(0 -0.013147996 0.52259606)
(0 -0.014778218 0.52564505)
(0 -0.016473785 0.52942803)
(0 -0.018246671 0.53426771)
(0 -0.020180556 0.54141097)
(0 -0.022560893 0.55345568)
(0 -0.025019241 0.56563639)
(0 -0.02332657 0.54029941)
(0 -0.012762927 0.40615522)
(0 0.00076300888 0.14310124)
(0 -0.00094490455 0.12743558)
(0 0.0097099417 0.37932136)
(0 0.022876359 0.53440602)
(0 0.026950577 0.5762963)
(0 0.025087848 0.56612438)
(0 0.022501966 0.55074995)
(0 0.020476809 0.54120943)
(0 0.01872067 0.53514289)
(0 0.017046436 0.53054689)
(0 0.015420811 0.52684649)
(0 0.013850945 0.52384519)
(0 0.012335579 0.52140367)
(0 0.010871731 0.51941419)
(0 0.0094558562 0.51779615)
(0 0.0080834194 0.5164891)
(0 0.0067493008 0.51544735)
(0 0.0054478632 0.51463641)
(0 0.0041730951 0.51403058)
(0 0.0029187328 0.51361135)
(0 0.0016783464 0.5133663)
(0 0.00044540815 0.51328842)
(0 -0.00078662599 0.51337568)
(0 -0.0020243131 0.513631)
(0 -0.003274104 0.51406239)
(0 -0.0045423382 0.51468335)
(0 -0.005835134 0.51551369)
(0 -0.0071583037 0.5165807)
(0 -0.0085172041 0.51792098)
(0 -0.0099166663 0.51958307)
(0 -0.011360701 0.52163151)
(0 -0.012852363 0.52415231)
(0 -0.01439407 0.52725806)
(0 -0.015982019 0.53110087)
(0 -0.01763101 0.53605587)
(0 -0.01944268 0.543502)
(0 -0.021646588 0.55567579)
(0 -0.023616856 0.56564636)
(0 -0.021229756 0.53390742)
(0 -0.010708011 0.39456518)
(0 0.00080895949 0.13785923)
(0 -0.00077631155 0.12381448)
(0 0.0082426685 0.36828424)
(0 0.020849003 0.5264428)
(0 0.025466863 0.575025)
(0 0.024194502 0.56811733)
(0 0.021803411 0.55295157)
(0 0.019865804 0.54303555)
(0 0.018214194 0.5368018)
(0 0.01664182 0.53214738)
(0 0.015105161 0.52840125)
(0 0.013610387 0.5253528)
(0 0.012157275 0.52286507)
(0 0.010744236 0.52083178)
(0 0.0093690541 0.51917317)
(0 0.0080286109 0.51782952)
(0 0.0067192042 0.51675578)
(0 0.0054365684 0.51591793)
(0 0.0041760086 0.51529063)
(0 0.0029325188 0.51485563)
(0 0.0017008779 0.51460067)
(0 0.00047573106 0.51451881)
(0 -0.00074830774 0.51460803)
(0 -0.0019766294 0.51487122)
(0 -0.0032144961 0.51531623)
(0 -0.0044670121 0.51595637)
(0 -0.0057389977 0.51681114)
(0 -0.0070348981 0.51790739)
(0 -0.0083586312 0.51928118)
(0 -0.0097135222 0.52098032)
(0 -0.011102086 0.52306847)
(0 -0.012525825 0.52563045)
(0 -0.013985646 0.52877669)
(0 -0.015477276 0.532665)
(0 -0.017020053 0.53772986)
(0 -0.018729676 0.54545013)
(0 -0.020768105 0.55757631)
(0 -0.022284102 0.56510114)
(0 -0.019353567 0.5273502)
(0 -0.0090509203 0.38392821)
(0 0.00077201541 0.1335254)
(0 -0.00060893581 0.12069958)
(0 0.0071142233 0.35825859)
(0 0.019065384 0.51855142)
(0 0.024086699 0.57326926)
(0 0.023347923 0.56976148)
(0 0.021147062 0.5550165)
(0 0.019282418 0.54477243)
(0 0.017715297 0.53836652)
(0 0.016230215 0.53365826)
(0 0.014772906 0.52987774)
(0 0.013346956 0.52679383)
(0 0.011952572 0.52427069)
(0 0.010589036 0.52220337)
(0 0.0092549908 0.52051283)
(0 0.0079483404 0.51914001)
(0 0.0066664713 0.51804044)
(0 0.0054062228 0.51718063)
(0 0.0041640007 0.51653562)
(0 0.002935881 0.51608745)
(0 0.0017177058 0.51582405)
(0 0.00050516578 0.51573857)
(0 -0.00070608511 0.51582901)
(0 -0.0019203912 0.51609818)
(0 -0.0031419575 0.5165538)
(0 -0.0043748064 0.51720891)
(0 -0.0056226466 0.51808266)
(0 -0.0068887875 0.51920145)
(0 -0.0081759957 0.52060072)
(0 -0.0094864472 0.52232758)
(0 -0.010821588 0.52444489)
(0 -0.012181882 0.52703625)
(0 -0.013567346 0.5302106)
(0 -0.014974351 0.53413526)
(0 -0.016427742 0.53930811)
(0 -0.018052258 0.5472697)
(0 -0.019935101 0.55918173)
(0 -0.021035395 0.56409568)
(0 -0.01768872 0.52074866)
(0 -0.0077269361 0.37418163)
(0 0.00069059123 0.12988451)
(0 -0.00045769967 0.11795568)
(0 0.0062420223 0.34913508)
(0 0.017495342 0.51080858)
(0 0.022808159 0.57112058)
(0 0.022546699 0.57108489)
(0 0.020533037 0.55695411)
(0 0.018731637 0.54643617)
(0 0.017232044 0.53985314)
(0 0.015821012 0.53509138)
(0 0.014433841 0.53128406)
(0 0.0130703 0.52817355)
(0 0.011730568 0.52562348)
(0 0.010414411 0.52353)
(0 0.0091209722 0.52181463)
(0 0.0078488573 0.52041886)
(0 0.0065962627 0.51929875)
(0 0.005360895 0.51842126)
(0 0.0041400598 0.51776183)
(0 0.0029307439 0.51730278)
(0 0.001729703 0.51703223)
(0 0.00053354008 0.51694345)
(0 -0.00066117928 0.51703445)
(0 -0.001857882 0.51730795)
(0 -0.0030598543 0.51777152)
(0 -0.0042701932 0.51843794)
(0 -0.0054916786 0.51932599)
(0 -0.0067266994 0.5204616)
(0 -0.0079771304 0.52187964)
(0 -0.0092443036 0.52362659)
(0 -0.010528949 0.52576457)
(0 -0.011830899 0.52837615)
(0 -0.013149771 0.53156961)
(0 -0.014483479 0.53552564)
(0 -0.015862724 0.54080657)
(0 -0.017415677 0.54897278)
(0 -0.01915152 0.56051684)
(0 -0.019876137 0.56271295)
(0 -0.016217903 0.51419062)
(0 -0.0066748414 0.36525218)
(0 0.00058986841 0.12677016)
(0 -0.00032906986 0.11548861)
(0 0.0055603268 0.34081001)
(0 0.016109911 0.50326459)
(0 0.021624921 0.56865486)
(0 0.021787392 0.57211373)
(0 0.019958868 0.55877103)
(0 0.018214963 0.5480389)
(0 0.016769113 0.54127538)
(0 0.015420512 0.53645747)
(0 0.014095003 0.53262795)
(0 0.012787681 0.5294973)
(0 0.01149836 0.52692679)
(0 0.010227002 0.52481337)
(0 0.008972988 0.52307893)
(0 0.0077353789 0.52166533)
(0 0.0065129504 0.52052908)
(0 0.0053040728 0.51963754)
(0 0.0041067716 0.5189665)
(0 0.0029187841 0.51849854)
(0 0.0017376361 0.51822199)
(0 0.00056070894 0.51813019)
(0 -0.00061464895 0.51822117)
(0 -0.0017910773 0.51849759)
(0 -0.0029710816 0.51896684)
(0 -0.0041569842 0.51964145)
(0 -0.0053508069 0.52053985)
(0 -0.0065542126 0.52168754)
(0 -0.0077684071 0.52311888)
(0 -0.0089941333 0.52487979)
(0 -0.010231684 0.52703184)
(0 -0.011480571 0.52965675)
(0 -0.012740385 0.53286318)
(0 -0.014011267 0.5368488)
(0 -0.015329606 0.54223853)
(0 -0.016821316 0.55056926)
(0 -0.018417389 0.56160548)
(0 -0.01880555 0.56102368)
(0 -0.014920241 0.50773784)
(0 -0.0058400346 0.35706351)
(0 0.00048559596 0.12405576)
(0 -0.00022437903 0.11323399)
(0 0.0050186512 0.3331886)
(0 0.014882966 0.49595059)
(0 0.020528691 0.56593475)
(0 0.021065796 0.57287199)
(0 0.019420749 0.5604717)
(0 0.017731644 0.54958936)
(0 0.016328769 0.54264455)
(0 0.015032678 0.53776598)
(0 0.013761257 0.53391648)
(0 0.012504424 0.53077024)
(0 0.01126136 0.52818417)
(0 0.010032024 0.5260556)
(0 0.0088158518 0.52430663)
(0 0.0076121755 0.52287936)
(0 0.0064201663 0.52173058)
(0 0.0052386883 0.520828)
(0 0.00406633 0.52014771)
(0 0.0029014357 0.51967253)
(0 0.0017421669 0.51939093)
(0 0.00058655665 0.51929636)
(0 -0.00056738809 0.51938686)
(0 -0.0017216454 0.519665)
(0 -0.002878071 0.52013803)
(0 -0.0040383525 0.52081824)
(0 -0.0052039074 0.52172374)
(0 -0.006375842 0.52287966)
(0 -0.0075548796 0.52431992)
(0 -0.0087413773 0.52609005)
(0 -0.0099354026 0.52825115)
(0 -0.011136378 0.53088438)
(0 -0.012344142 0.53409998)
(0 -0.013561527 0.53811577)
(0 -0.014830054 0.54361465)
(0 -0.016267989 0.55206702)
(0 -0.017730288 0.56246982)
(0 -0.017819052 0.55908715)
(0 -0.013774189 0.50143219)
(0 -0.0051758451 0.34954081)
(0 0.00038698466 0.12164662)
(0 -0.00014209832 0.11114851)
(0 0.0045793356 0.32618644)
(0 0.013791799 0.48888414)
(0 0.019510749 0.56301201)
(0 0.020377713 0.57338157)
(0 0.018914383 0.562059)
(0 0.017279606 0.55109346)
(0 0.015911638 0.54396973)
(0 0.014659768 0.53902502)
(0 0.013435807 0.53515593)
(0 0.012224304 0.53199716)
(0 0.011023593 0.52939909)
(0 0.0098334827 0.52725899)
(0 0.0086533553 0.52549902)
(0 0.0074826766 0.52406135)
(0 0.0063208716 0.52290297)
(0 0.005167161 0.52199182)
(0 0.0040205637 0.52130423)
(0 0.0028799043 0.52082322)
(0 0.0017438595 0.52053739)
(0 0.00061099769 0.52044027)
(0 -0.00052013161 0.52052989)
(0 -0.0016509614 0.52080878)
(0 -0.002782817 0.52128403)
(0 -0.0039168778 0.52196773)
(0 -0.0050540914 0.52287773)
(0 -0.0061951499 0.52403883)
(0 -0.0073404462 0.52548463)
(0 -0.0084901089 0.52726035)
(0 -0.0096441331 0.52942683)
(0 -0.010802016 0.53206495)
(0 -0.011964045 0.53528779)
(0 -0.01313601 0.53933588)
(0 -0.014363715 0.54494312)
(0 -0.015752952 0.55347211)
(0 -0.017086456 0.56312996)
(0 -0.016909991 0.55695258)
(0 -0.01275926 0.49530074)
(0 -0.0046437247 0.34261372)
(0 0.00029886771 0.11947306)
(0 -7.9317362e-05 0.1092032)
(0 0.0042149586 0.31972968)
(0 0.012817096 0.48207341)
(0 0.018562821 0.55992959)
(0 0.019719362 0.57366254)
(0 0.018435514 0.56353477)
(0 0.016856112 0.5525548)
(0 0.015517292 0.54525802)
(0 0.014302835 0.54024144)
(0 0.01312062 0.53635183)
(0 0.011949898 0.53318238)
(0 0.010787966 0.53057483)
(0 0.0096343867 0.52842587)
(0 0.0084884237 0.52665758)
(0 0.0073495829 0.52521206)
(0 0.0062174366 0.5240464)
(0 0.0050914527 0.52312866)
(0 0.0039709709 0.52243536)
(0 0.0028551881 0.52194965)
(0 0.0017431898 0.52166027)
(0 0.00063397562 0.52156078)
(0 -0.00047346645 0.52164924)
(0 -0.0015801296 0.52192809)
(0 -0.0026869154 0.52240433)
(0 -0.0037946053 0.52308985)
(0 -0.0049037915 0.52400229)
(0 -0.0060148697 0.52516621)
(0 -0.0071280214 0.52661499)
(0 -0.0082432641 0.52839367)
(0 -0.0093606252 0.53056294)
(0 -0.010479789 0.53320377)
(0 -0.011601641 0.53643335)
(0 -0.01273501 0.54051679)
(0 -0.013928938 0.54622999)
(0 -0.015272633 0.55478911)
(0 -0.016481552 0.56360397)
(0 -0.016070861 0.55466058)
(0 -0.011856919 0.48935982)
(0 -0.0042127333 0.3362179)
(0 0.00022323057 0.11748459)
(0 -3.2668083e-05 0.10737853)
(0 0.0039059459 0.31375441)
(0 0.011942636 0.47552022)
(0 0.017677505 0.55672336)
(0 0.019087543 0.57373337)
(0 0.017980222 0.56490031)
(0 0.01645819 0.55397531)
(0 0.015144668 0.54651483)
(0 0.013962113 0.54142092)
(0 0.012816771 0.53750892)
(0 0.011682869 0.53432974)
(0 0.010556508 0.53171441)
(0 0.0094369338 0.52955851)
(0 0.0083232633 0.52778389)
(0 0.0072149791 0.52633248)
(0 0.0061117232 0.52516132)
(0 0.0050131262 0.52423856)
(0 0.0039187595 0.5235408)
(0 0.0028281016 0.52305133)
(0 0.0017405558 0.52275894)
(0 0.00065546186 0.52265727)
(0 -0.00042784548 0.52274433)
(0 -0.0015100117 0.52302255)
(0 -0.0025916078 0.5234988)
(0 -0.0036731117 0.52418486)
(0 -0.0047548548 0.52509818)
(0 -0.0058370308 0.52626317)
(0 -0.0069197014 0.52771305)
(0 -0.0080028575 0.52949282)
(0 -0.0090866244 0.53166319)
(0 -0.010170949 0.5343055)
(0 -0.011257418 0.53754238)
(0 -0.01235784 0.54166462)
(0 -0.013523313 0.5474795)
(0 -0.014823147 0.55602144)
(0 -0.015911172 0.56390805)
(0 -0.015294106 0.5522447)
(0 -0.011050933 0.48361802)
(0 -0.0038586285 0.33029564)
(0 0.00016027896 0.11564502)
(0 1.1337229e-06 0.10566094)
(0 0.00363853 0.30820572)
(0 0.011154868 0.46922213)
(0 0.016848402 0.55342352)
(0 0.018479652 0.57361124)
(0 0.017545056 0.56615674)
(0 0.016082901 0.55535564)
(0 0.014792354 0.54774416)
(0 0.013637297 0.54256815)
(0 0.012524702 0.53863125)
(0 0.011424202 0.53544259)
(0 0.010330568 0.53282057)
(0 0.0092426782 0.53065907)
(0 0.0081594949 0.52887956)
(0 0.0070804379 0.5274237)
(0 0.0060051641 0.5262484)
(0 0.004933403 0.52532183)
(0 0.0038648866 0.52462062)
(0 0.0027993006 0.52412811)
(0 0.0017362888 0.52383318)
(0 0.00067545304 0.52372945)
(0 -0.00038360325 0.52381497)
(0 -0.0014412576 0.5240921)
(0 -0.0024978297 0.52456765)
(0 -0.0035535723 0.52525328)
(0 -0.0046086338 0.52616633)
(0 -0.0056630795 0.52733111)
(0 -0.0067169188 0.5287808)
(0 -0.007770174 0.53056043)
(0 -0.0088231064 0.53273084)
(0 -0.0098759716 0.53537418)
(0 -0.010931129 0.53861965)
(0 -0.012003194 0.54278414)
(0 -0.013144063 0.54869441)
(0 -0.014400627 0.55717165)
(0 -0.015371165 0.56405669)
(0 -0.014572604 0.54973272)
(0 -0.010327382 0.47807856)
(0 -0.0035627955 0.32479593)
(0 0.00010918245 0.11392856)
(0 2.5009987e-05 0.10404059)
(0 0.0034031104 0.30303661)
(0 0.010442474 0.46317394)
(0 0.016070079 0.5500556)
(0 0.017893623 0.57331222)
(0 0.017127083 0.56730521)
(0 0.015727486 0.5566956)
(0 0.014458778 0.54894885)
(0 0.013327748 0.54368695)
(0 0.012244419 0.53972227)
(0 0.011174387 0.53652385)
(0 0.010110979 0.53389576)
(0 0.0090526702 0.53172952)
(0 0.0079982703 0.52994613)
(0 0.0069471142 0.52848687)
(0 0.005898837 0.52730846)
(0 0.0048532193 0.52637898)
(0 0.0038100978 0.52567508)
(0 0.0027693053 0.52518013)
(0 0.0017306626 0.524883)
(0 0.00069396798 0.52477737)
(0 -0.00034097293 0.52486124)
(0 -0.0013743365 0.52513696)
(0 -0.0024062573 0.52561128)
(0 -0.0034368273 0.52629578)
(0 -0.0044660732 0.52720776)
(0 -0.0054939884 0.52837146)
(0 -0.0065205787 0.5298201)
(0 -0.0075459351 0.53159884)
(0 -0.0085704722 0.53376878)
(0 -0.0095947796 0.53641323)
(0 -0.010622041 0.5396691)
(0 -0.01166941 0.54387895)
(0 -0.012788306 0.54987634)
(0 -0.014001433 0.55824174)
(0 -0.014857793 0.56406302)
(0 -0.013899929 0.54714773)
(0 -0.0096745003 0.47274099)
(0 -0.0033111804 0.31967407)
(0 6.8581038e-05 0.1123169)
(0 4.1412454e-05 0.10250984)
(0 0.003192999 0.29820683)
(0 0.0097959664 0.45736872)
(0 0.015337945 0.54664136)
(0 0.017327833 0.57285139)
(0 0.016723859 0.56834711)
(0 0.015389441 0.55799445)
(0 0.01414233 0.55013087)
(0 0.013032627 0.54478042)
(0 0.011975638 0.54078489)
(0 0.010933559 0.53757605)
(0 0.0098981885 0.53494215)