/*--------------------------------*- C++ -*----------------------------------*\
  =========                 |
  \\      /  F ield         | OpenFOAM: The Open Source CFD Toolbox
   \\    /   O peration     | Website:  https://openfoam.org
    \\  /    A nd           | Version:  10
     \\/     M anipulation  |
\*---------------------------------------------------------------------------*/
FoamFile
{
    format      ascii;
    class       surfaceScalarField;
    location    "0.04";
    object      phi;
}
// * * * * * * * * * * * * * * * * * * * * * * * * * * * * * * * * * * * * * //

dimensions      [1 0 -1 0 0 0 0];

internalField   nonuniform List<scalar> 
7860
(
3.9760161e-08
5.2894849e-07
1.2095781e-08
5.9637167e-07
7.3340293e-09
5.7346953e-07
5.3967406e-09
5.7064502e-07
4.0132998e-09
5.7009114e-07
3.1037649e-09
5.6961721e-07
2.4672151e-09
5.6934421e-07
1.9937305e-09
5.6918113e-07
1.6306665e-09
5.690707e-07
1.3452314e-09
5.6899306e-07
1.1154717e-09
5.6893738e-07
9.2652777e-10
5.6889656e-07
7.6799826e-10
5.6886614e-07
6.3236468e-10
5.6884324e-07
5.1404709e-10
5.6882592e-07
4.0879394e-10
5.6881285e-07
3.1327212e-10
5.6880312e-07
2.2478307e-10
5.6879608e-07
1.410586e-10
5.6879132e-07
6.0106307e-11
5.6878854e-07
-1.9914964e-11
5.6878761e-07
-1.008045e-10
5.6878848e-07
-1.8442736e-10
5.6879121e-07
-2.7282189e-10
5.6879599e-07
-3.6833498e-10
5.6880311e-07
-4.7378882e-10
5.6881305e-07
-5.927069e-10
5.6882652e-07
-7.296342e-10
5.6884453e-07
-8.9060822e-10
5.6886858e-07
-1.0838803e-09
5.6890088e-07
-1.3211079e-09
5.6894484e-07
-1.6193596e-09
5.6900588e-07
-2.0040436e-09
5.6909232e-07
-2.5156164e-09
5.6921922e-07
-3.2370805e-09
5.6942912e-07
-4.3267007e-09
5.697973e-07
-5.882788e-09
5.7026379e-07
-9.3855563e-09
5.722105e-07
-2.9412715e-08
5.8873494e-07
5.3929523e-07
5.9345305e-08
4.6960688e-07
3.6301181e-08
6.194143e-07
2.2299367e-08
5.8747083e-07
1.5923089e-08
5.7702132e-07
1.1966815e-08
5.7404742e-07
9.2968293e-09
5.722872e-07
7.3863398e-09
5.712547e-07
5.9659793e-09
5.706015e-07
4.8789791e-09
5.701577e-07
4.0245187e-09
5.6984753e-07
3.3368094e-09
5.6962509e-07
2.7713981e-09
5.6946197e-07
2.2970795e-09
5.6934046e-07
1.8913105e-09
5.6924901e-07
1.5373747e-09
5.6917986e-07
1.2225406e-09
5.6912769e-07
9.3683122e-10
5.6908883e-07
6.721735e-10
5.6906074e-07
4.2178488e-10
5.6904171e-07
1.7970923e-10
5.6903062e-07
-5.9556636e-11
5.6902688e-07
-3.0138962e-10
5.6903032e-07
-5.513565e-10
5.6904118e-07
-8.1555173e-10
5.6906019e-07
-1.100992e-09
5.6908855e-07
-1.4161185e-09
5.6912818e-07
-1.7714754e-09
5.6918188e-07
-2.1806709e-09
5.6925373e-07
-2.6617983e-09
5.6934971e-07
-3.2396052e-09
5.6947869e-07
-3.9489742e-09
5.6965422e-07
-4.8410284e-09
5.6989793e-07
-5.9936291e-09
5.7024492e-07
-7.5274582e-09
5.7075305e-07
-9.6482238e-09
5.7154989e-07
-1.2766842e-08
5.7291592e-07
-1.7703914e-08
5.7520086e-07
-2.7725036e-08
5.8223163e-07
-4.5388281e-08
6.0639818e-07
4.9390695e-07
5.9496471e-08
4.1011999e-07
4.9790361e-08
6.2911979e-07
3.2750634e-08
6.0450867e-07
2.422262e-08
5.8554921e-07
1.8746072e-08
5.7952401e-07
1.4783272e-08
5.7625001e-07
1.1847878e-08
5.741901e-07
9.6278379e-09
5.7282154e-07
7.9079623e-09
5.7187758e-07
6.5440115e-09
5.7121148e-07
5.4392121e-09
5.7072989e-07
4.5263798e-09
5.7037481e-07
3.7575387e-09
5.701093e-07
3.0976426e-09
5.6990891e-07
2.5204734e-09
5.6975703e-07
2.0059202e-09
5.6964224e-07
1.5381337e-09
5.6955662e-07
1.1042299e-09
5.6949465e-07
6.9334516e-10
5.694526e-07
2.9591446e-10
5.6942806e-07
-9.6912843e-11
5.6941971e-07
-4.9378548e-10
5.6942719e-07
-9.0364947e-10
5.6945105e-07
-1.336278e-09
5.6949282e-07
-1.8028863e-09
5.6955516e-07
-2.316909e-09
5.6964221e-07
-2.8950371e-09
5.6976001e-07
-3.558666e-09
5.6991736e-07
-4.3359987e-09
5.7012705e-07
-5.265187e-09
5.7040789e-07
-6.3991001e-09
5.7078813e-07
-7.8130994e-09
5.7131194e-07
-9.6184687e-09
5.7205029e-07
-1.1980145e-08
5.7311473e-07
-1.513575e-08
5.747055e-07
-1.9454584e-08
5.7723476e-07
-2.5906672e-08
5.8165296e-07
-3.808144e-08
5.944064e-07
-4.747661e-08
6.1579336e-07
4.4643035e-07
5.419496e-08
3.5594428e-07
5.6355877e-08
6.26963e-07
3.9473919e-08
6.2138676e-07
2.9867735e-08
5.9515463e-07
2.3772676e-08
5.8561914e-07
1.9131852e-08
5.8089085e-07
1.5550836e-08
5.7777112e-07
1.276656e-08
5.7560582e-07
1.0564564e-08
5.7407958e-07
8.7918173e-09
5.7298423e-07
7.3396199e-09
5.721821e-07
6.1290336e-09
5.715854e-07
5.1020418e-09
5.711363e-07
4.2153558e-09
5.707956e-07
3.4360405e-09
5.7053635e-07
2.7384938e-09
5.703398e-07
2.1023215e-09
5.701928e-07
1.5107997e-09
5.7008618e-07
9.497298e-10
5.7001367e-07
4.0654888e-10
5.6997124e-07
-1.304011e-10
5.6995667e-07
-6.7252035e-10
5.6996932e-07
-1.2315788e-09
5.7001011e-07
-1.8203811e-09
5.7008162e-07
-2.4535322e-09
5.7018832e-07
-3.1483856e-09
5.7033706e-07
-3.9262836e-09
5.7053791e-07
-4.8142369e-09
5.7080532e-07
-5.8472746e-09
5.7116009e-07
-7.0718071e-09
5.7163242e-07
-8.5503454e-09
5.7226668e-07
-1.0368074e-08
5.7312967e-07
-1.2643517e-08
5.7432574e-07
-1.5541869e-08
5.7601308e-07
-1.9267705e-08
5.7843134e-07
-2.4094593e-08
5.8206165e-07
-3.1243778e-08
5.8880214e-07
-4.3710678e-08
6.068733e-07
-4.5557341e-08
6.1764002e-07
4.0087301e-07
4.7129207e-08
3.0884878e-07
5.8530446e-08
6.1557671e-07
4.3933561e-08
6.3597827e-07
3.3579762e-08
6.0550612e-07
2.7188487e-08
5.9201041e-07
2.2288304e-08
5.857911e-07
1.8391641e-08
5.8166779e-07
1.527782e-08
5.7871964e-07
1.2759429e-08
5.7659798e-07
1.0695733e-08
5.7504793e-07
8.9808505e-09
5.7389698e-07
7.5344224e-09
5.7303183e-07
6.2954275e-09
5.723753e-07
5.2170704e-09
5.7187396e-07
4.2629398e-09
5.7149048e-07
3.4042145e-09
5.7119852e-07
2.6175911e-09
5.7097942e-07
1.8837251e-09
5.7082005e-07
1.1860332e-09
5.7071137e-07
5.097391e-10
5.7064754e-07
-1.5892511e-10
5.7062533e-07
-8.3343412e-10
5.7064383e-07
-1.5276644e-09
5.7070435e-07
-2.256626e-09
5.7081059e-07
-3.0372912e-09
5.7096899e-07
-3.8896002e-09
5.7118938e-07
-4.8377341e-09
5.7148605e-07
-5.9117769e-09
5.7187936e-07
-7.1499195e-09
5.7239824e-07
-8.6014501e-09
5.7308396e-07
-1.0330714e-08
5.7399594e-07
-1.2421775e-08
5.7522073e-07
-1.4985196e-08
5.7688917e-07
-1.8168874e-08
5.7919677e-07
-2.2151685e-08
5.8241416e-07
-2.7235049e-08
5.8714502e-07
-3.4919415e-08
5.9648651e-07
-4.6444901e-08
6.1839879e-07
-4.1881973e-08
6.130771e-07
3.5899104e-07
3.9356036e-08
2.6954628e-07
5.6961132e-08
5.980052e-07
4.6288902e-08
6.466456e-07
3.5824858e-08
6.1596519e-07
2.9321108e-08
5.9851377e-07
2.4409028e-08
5.9070331e-07
2.0422832e-08
5.8565401e-07
1.7162767e-08
5.8197971e-07
1.4472649e-08
5.792881e-07
1.2229315e-08
5.7729127e-07
1.0336393e-08
5.7578991e-07
8.7186182e-09
5.7464961e-07
7.3171948e-09
5.7377673e-07
6.0857684e-09
5.7310539e-07
4.9873943e-09
5.7258886e-07
3.9922239e-09
5.721937e-07
3.0756959e-09
5.7189596e-07
2.2171187e-09
5.7167863e-07
1.3985437e-09
5.7152995e-07
6.0384021e-10
5.7144225e-07
-1.8209662e-10
5.7141128e-07
-9.7406359e-10
5.714358e-07
-1.787252e-09
5.7151754e-07
-2.6379793e-09
5.7166132e-07
-3.5445037e-09
5.7187552e-07
-4.5279858e-09
5.7217286e-07
-5.6136689e-09
5.7257174e-07
-6.8323619e-09
5.7309806e-07
-8.2223134e-09
5.7378819e-07
-9.831635e-09
5.7469328e-07
-1.1721528e-08
5.7588584e-07
-1.3969985e-08
5.774692e-07
-1.6676205e-08
5.7959539e-07
-1.9968785e-08
5.8248935e-07
-2.4012192e-08
5.8645757e-07
-2.9195523e-08
5.9232835e-07
-3.7048578e-08
6.0433957e-07
-4.6431017e-08
6.2778123e-07
-3.6927695e-08
6.0357378e-07
3.2206335e-07
3.1746726e-08
2.3787805e-07
5.2697413e-08
5.7711575e-07
4.6516903e-08
6.528255e-07
3.6736239e-08
6.2573728e-07
3.0363932e-08
6.0488471e-07
2.5634408e-08
5.9543302e-07
2.1731529e-08
5.8955694e-07
1.8468489e-08
5.8524276e-07
1.572473e-08
5.8203186e-07
1.3397349e-08
5.7961865e-07
1.140277e-08
5.7778449e-07
9.674385e-09
5.76378e-07
8.1588577e-09
5.7529226e-07
6.8130446e-09
5.7445121e-07
5.6017515e-09
5.7380016e-07
4.4959344e-09
5.7329952e-07
3.4712367e-09
5.7292066e-07
2.5068025e-09
5.7264307e-07
1.5843002e-09
5.7245245e-07
6.870946e-10
5.7233946e-07
-2.0047858e-10
5.7229885e-07
-1.0937798e-09
5.7232911e-07
-2.0085231e-09
5.7243229e-07
-2.9614533e-09
5.7261426e-07
-3.9710863e-09
5.7288515e-07
-5.0585607e-09
5.7326034e-07
-6.2486506e-09
5.7376183e-07
-7.5710007e-09
5.7442042e-07
-9.0616387e-09
5.7527883e-07
-1.076485e-08
5.763965e-07
-1.2735741e-08
5.7785674e-07
-1.5043436e-08
5.7977689e-07
-1.7773593e-08
5.8232555e-07
-2.1031097e-08
5.8574686e-07
-2.4962587e-08
5.9038906e-07
-3.0036513e-08
5.9740228e-07
-3.7534432e-08
6.1183749e-07
-4.413841e-08
6.3438521e-07
-3.1373955e-08
5.9080933e-07
2.9068939e-07
2.4941431e-08
2.1304821e-07
4.7025592e-08
5.5513092e-07
4.5007188e-08
6.5485329e-07
3.6501521e-08
6.342304e-07
3.0483499e-08
6.1089959e-07
2.6081877e-08
5.9983479e-07
2.2401349e-08
5.9323759e-07
1.9253289e-08
5.8839083e-07
1.6553309e-08
5.8473184e-07
1.4222179e-08
5.8194979e-07
1.2192009e-08
5.7981467e-07
1.0407207e-08
5.781628e-07
8.8219635e-09
5.7687751e-07
7.39823e-09
5.7587495e-07
6.1042167e-09
5.7509418e-07
4.9130955e-09
5.7449065e-07
3.8019078e-09
5.7403185e-07
2.7506483e-09
5.7369433e-07
1.7414787e-09
5.7346163e-07
7.5804091e-10
5.733229e-07
-2.1516102e-10
5.7327206e-07
-1.1933385e-09
5.7330729e-07
-2.1919896e-09
5.7343095e-07
-3.2274833e-09
5.7364975e-07
-4.3176846e-09
5.7397536e-07
-5.4826566e-09
5.7442532e-07
-6.7454675e-09
5.7502465e-07
-8.1331455e-09
5.758081e-07
-9.6778194e-09
5.7682351e-07
-1.1418052e-08
5.7813673e-07
-1.340061e-08
5.798393e-07
-1.5682871e-08
5.8205916e-07
-1.8333542e-08
5.8497623e-07
-2.1430636e-08
5.8884396e-07
-2.510571e-08
5.9406414e-07
-2.9877011e-08
6.0217358e-07
-3.6585762e-08
6.1854625e-07
-4.0359716e-08
6.3815917e-07
-2.5837527e-08
5.7628714e-07
2.6485187e-07
1.9189164e-08
1.9403056e-07
4.0879255e-08
5.3359391e-07
4.2291389e-08
6.5346839e-07
3.5394851e-08
6.4111084e-07
2.9892256e-08
6.1639628e-07
2.5898232e-08
6.0382872e-07
2.2532983e-08
5.9660303e-07
1.9588685e-08
5.9133515e-07
1.7009169e-08
5.8731136e-07
1.4739469e-08
5.8421949e-07
1.2728835e-08
5.818253e-07
1.0933993e-08
5.7995765e-07
9.3179523e-09
5.7849355e-07
7.8490115e-09
5.7734389e-07
6.4999308e-09
5.7644326e-07
5.2471287e-09
5.7574345e-07
4.069964e-09
5.7520902e-07
2.950099e-09
5.748142e-07
1.8709239e-09
5.7454081e-07
8.1703305e-10
5.743768e-07
-2.2626126e-10
5.7431536e-07
-1.2733903e-09
5.7435442e-07
-2.3389883e-09
5.7449655e-07
-3.4383565e-09
5.7474913e-07
-4.58795e-09
5.7512496e-07
-5.8059062e-09
5.7564328e-07
-7.1126259e-09
5.7633137e-07
-8.5314288e-09
5.7722691e-07
-1.0089305e-08
5.7838139e-07
-1.181772e-08
5.7986516e-07
-1.3753552e-08
5.8177514e-07
-1.5940528e-08
5.8424614e-07
-1.8428771e-08
5.8746447e-07
-2.1272083e-08
5.9168727e-07
-2.4596093e-08
5.9738815e-07
-2.8922025e-08
6.0649952e-07
-3.4547285e-08
6.2417151e-07
-3.5755881e-08
6.3936777e-07
-2.0664134e-08
5.611954e-07
2.4418774e-07
1.4485332e-08
1.7983315e-07
3.4789962e-08
5.1352262e-07
3.8810462e-08
6.4950323e-07
3.366113e-08
6.4624152e-07
2.8796803e-08
6.2125075e-07
2.5246007e-08
6.0737879e-07
2.2244323e-08
5.99605e-07
1.9560316e-08
5.9401921e-07
1.7155236e-08
5.8971645e-07
1.4995885e-08
5.8637885e-07
1.3048062e-08
5.8377313e-07
1.1280826e-08
5.8172489e-07
9.6664663e-09
5.8010792e-07
8.1802717e-09
5.7883009e-07
6.8002447e-09
5.778233e-07
5.5067362e-09
5.7703697e-07
4.2820795e-09
5.7643368e-07
3.110222e-09
5.7598606e-07
1.976361e-09
5.7567467e-07
8.665915e-10
5.7548657e-07
-2.32436e-10
5.7541439e-07
-1.333847e-09
5.7545584e-07
-2.450876e-09
5.7561358e-07
-3.5971957e-09
5.7589545e-07
-4.7872532e-09
5.7631502e-07
-6.0366143e-09
5.7689265e-07
-7.362316e-09
5.7765708e-07
-8.7832248e-09
5.7864782e-07
-1.0320413e-08
5.7991859e-07
-1.1997506e-08
5.8154225e-07
-1.3840957e-08
5.8361859e-07
-1.5880561e-08
5.8628575e-07
-1.8148448e-08
5.8973237e-07
-2.0679359e-08
5.9421819e-07
-2.3597034e-08
6.0030583e-07
-2.7367112e-08
6.102696e-07
-3.1730111e-08
6.2853452e-07
-3.076934e-08
6.3840701e-07
-1.6000741e-08
5.4642681e-07
2.2818701e-07
1.0716575e-08
1.6957995e-07
2.9050719e-08
4.9553961e-07
3.4899451e-08
6.4375088e-07
3.1485882e-08
6.4963509e-07
2.7355428e-08
6.2536594e-07
2.4265545e-08
6.104668e-07
2.164628e-08
6.0222462e-07
1.9253026e-08
5.9641258e-07
1.7055987e-08
5.919135e-07
1.5040271e-08
5.8839457e-07
1.3186602e-08
5.8562681e-07
1.1475541e-08
5.8343596e-07
9.8884234e-09
5.8169504e-07
8.4076348e-09
5.8031089e-07
7.0166991e-09
5.7921424e-07
5.7002724e-09
5.783534e-07
4.4440744e-09
5.7768989e-07
3.2347589e-09
5.7719539e-07
2.0597493e-09
5.7684969e-07
9.07053e-10
5.7663927e-07
-2.349337e-10
5.7655638e-07
-1.3776238e-09
5.7659854e-07
-2.5324405e-09
5.7676841e-07
-3.7110072e-09
5.7707403e-07
-4.9253288e-09
5.7752935e-07
-6.1879564e-09
5.7815528e-07
-7.512122e-09
5.7898125e-07
-8.9118276e-09
5.8004753e-07
-1.0401891e-08
5.8140866e-07
-1.1997925e-08
5.8313829e-07
-1.3716146e-08
5.8533682e-07
-1.557306e-08
5.8814267e-07
-1.7584141e-08
5.9174345e-07
-1.976931e-08
5.9640337e-07
-2.2246846e-08
6.0278337e-07
-2.5374465e-08
6.1339723e-07
-2.8403105e-08
6.3156317e-07
-2.5713197e-08
6.357171e-07
-1.188739e-08
5.3260101e-07
2.1629964e-07
7.7357915e-09
1.6249705e-07
2.3825371e-08
4.7995947e-07
3.0823073e-08
6.3690635e-07
2.9020606e-08
6.5141815e-07
2.5683149e-08
6.2868141e-07
2.306237e-08
6.1308398e-07
2.0826843e-08
6.0446054e-07
1.8736507e-08
5.9850309e-07
1.6765239e-08
5.9388478e-07
1.4913055e-08
5.9024675e-07
1.3173863e-08
5.87366e-07
1.1538674e-08
5.8507115e-07
9.9973034e-09
5.8323641e-07
8.5389793e-09
5.8176921e-07
7.1527194e-09
5.806005e-07
5.8275967e-09
5.7967853e-07
4.5529083e-09
5.7896458e-07
3.3182512e-09
5.7843004e-07
2.1135337e-09
5.7805441e-07
9.289458e-10
5.7782386e-07
-2.4509396e-10
5.7773043e-07
-1.418008e-09
5.7777145e-07
-2.5991298e-09
5.7794953e-07
-3.7977569e-09
5.7827265e-07
-5.0231842e-09
5.7875478e-07
-6.2846971e-09
5.794168e-07
-7.5915092e-09
5.8028806e-07
-8.9526174e-09
5.8140864e-07
-1.0376565e-08
5.8283261e-07
-1.1871108e-08
5.8463284e-07
-1.3442666e-08
5.8690838e-07
-1.509532e-08
5.8979533e-07
-1.6829285e-08
5.9347742e-07
-1.8652503e-08
5.9822659e-07
-2.0671122e-08
6.04802e-07
-2.3102566e-08
6.1582868e-07
-2.4825416e-08
6.3328602e-07
-2.0843684e-08
6.3173538e-07
-8.3317474e-09
5.2008908e-07
2.079679e-07
5.4041956e-09
1.5789034e-07
1.9200557e-08
4.6686593e-07
2.6796286e-08
6.2953922e-07
2.6406642e-08
6.5179337e-07
2.3876645e-08
6.3118244e-07
2.1722544e-08
6.1523224e-07
1.9859675e-08
6.0632373e-07
1.8070198e-08
6.0029282e-07
1.6329224e-08
5.9562577e-07
1.4648582e-08
5.9192739e-07
1.3033757e-08
5.8898082e-07
1.1485233e-08
5.8661967e-07
1.0000631e-08
5.8472101e-07
8.5756028e-09
5.8319424e-07
7.2044317e-09
5.8197167e-07
5.8805175e-09
5.8100244e-07
4.5967377e-09
5.8024836e-07
3.3456948e-09
5.7968109e-07
2.1198833e-09
5.7928022e-07
9.1179994e-10
5.7903195e-07
-2.8597931e-10
5.789282e-07
-1.4807469e-09
5.7896622e-07
-2.6796117e-09
5.7914839e-07
-3.8894229e-09
5.7948247e-07
-5.116665e-09
5.7998202e-07
-6.3672941e-09
5.8066742e-07
-7.646498e-09
5.8156727e-07
-8.9583433e-09
5.8272049e-07
-1.0305294e-08
5.8417956e-07
-1.1687585e-08
5.8601513e-07
-1.3102363e-08
5.8832316e-07
-1.4542197e-08
5.9123516e-07
-1.5993548e-08
5.9492877e-07
-1.7453988e-08
5.9968703e-07
-1.9011616e-08
6.0635962e-07
-2.0735051e-08
6.1755211e-07
-2.1261423e-08
6.3381239e-07
-1.6388897e-08
6.2686285e-07
-5.3563834e-09
5.0905657e-07
2.0261152e-07
3.61421e-09
1.5514509e-07
1.5219971e-08
4.5618239e-07
2.3004477e-08
6.2208009e-07
2.3797093e-08
6.5099978e-07
2.2047091e-08
6.3289851e-07
2.0345576e-08
6.1692559e-07
1.8833865e-08
6.0783551e-07
1.733009e-08
6.0179688e-07
1.5810988e-08
5.9714491e-07
1.4297804e-08
5.9344057e-07
1.2806252e-08
5.9047238e-07
1.1345417e-08
5.8808051e-07
9.9200345e-09
5.861464e-07
8.5316569e-09
5.8458262e-07
7.1794658e-09
5.8332386e-07
5.8609356e-09
5.8232097e-07
4.5723598e-09
5.8153693e-07
3.3092479e-09
5.809442e-07
2.0666271e-09
5.8052284e-07
8.3927603e-10
5.802593e-07
-3.7808352e-10
5.8014557e-07
-1.5906234e-09
5.8017876e-07
-2.8032465e-09
5.8036102e-07
-4.0203966e-09
5.8069962e-07
-5.2458278e-09
5.8120745e-07
-6.4823012e-09
5.819039e-07
-7.731185e-09
5.8281615e-07
-8.9919173e-09
5.8398122e-07
-1.0261301e-08
5.8544894e-07
-1.1532619e-08
5.8728645e-07
-1.2794434e-08
5.8958497e-07
-1.4028841e-08
5.9246957e-07
-1.5210212e-08
5.9611014e-07
-1.6326087e-08
6.008029e-07
-1.7441834e-08
6.0747537e-07
-1.8487706e-08
6.1859798e-07
-1.7973928e-08
6.3329861e-07
-1.2544991e-08
6.2143392e-07
-3.0076191e-09
4.9951921e-07
1.9960389e-07
2.2882724e-09
1.5373387e-07
1.1903626e-08
4.4772053e-07
1.9618992e-08
6.1480807e-07
2.1375646e-08
6.4926714e-07
2.0351191e-08
6.3388802e-07
1.9077225e-08
6.1818937e-07
1.7884893e-08
6.0902739e-07
1.6638466e-08
6.0304357e-07
1.5319212e-08
5.9846421e-07
1.3956479e-08
5.9480332e-07
1.2575244e-08
5.9185362e-07
1.1192389e-08
5.8946337e-07
9.8190184e-09
5.8751978e-07
8.4619633e-09
5.8593969e-07
7.1247967e-09
5.8466104e-07
5.8086644e-09
5.8363711e-07
4.5129599e-09
5.8283265e-07
3.2358523e-09
5.8222132e-07
1.9747037e-09
5.81784e-07
7.2640856e-10
5.8150761e-07
-5.1231808e-10
5.8138431e-07
-1.7446825e-09
5.8141114e-07
-2.9735549e-09
5.815899e-07
-4.2011839e-09
5.8192726e-07
-5.4288611e-09
5.8243514e-07
-6.6564983e-09
5.8313155e-07
-7.8820929e-09
5.8404176e-07
-9.1010303e-09
5.8520017e-07
-1.030518e-08
5.866531e-07
-1.1481777e-08
5.8846306e-07
-1.261187e-08
5.9071508e-07
-1.3668371e-08
5.9352608e-07
-1.4615452e-08
5.9705724e-07
-1.5429997e-08
6.0161746e-07
-1.6148603e-08
6.0819399e-07
-1.6580126e-08
6.1902951e-07
-1.5188686e-08
6.3190718e-07
-9.4399275e-09
6.1568517e-07
-1.323314e-09
4.914026e-07
1.9828056e-07
1.3633061e-09
1.5321828e-07
9.2515362e-09
4.4120233e-07
1.6791441e-08
6.0784307e-07
1.9346856e-08
6.4677059e-07
1.8989691e-08
6.3421258e-07
1.81095e-08
6.1905756e-07
1.719363e-08
6.0994206e-07
1.6163148e-08
6.040742e-07
1.5008607e-08
5.9961883e-07
1.3767116e-08
5.9604484e-07
1.2472181e-08
5.9314859e-07
1.1147613e-08
5.9078797e-07
9.8100245e-09
5.888574e-07
8.470761e-09
5.8727898e-07
7.1371277e-09
5.8599471e-07
5.8133954e-09
5.8496088e-07
4.5016081e-09
5.8414447e-07
3.2022224e-09
5.8352074e-07
1.9146206e-09
5.8307164e-07
6.3753364e-10
5.8278473e-07
-6.3059632e-10
5.8265247e-07
-1.8912833e-09
5.8267186e-07
-3.1456646e-09
5.8284432e-07
-4.3941465e-09
5.8317577e-07
-5.6359882e-09
5.8367702e-07
-6.8687913e-09
5.8436438e-07
-8.0878617e-09
5.8526086e-07
-9.2853892e-09
5.8639773e-07
-1.0449376e-08
5.8781712e-07
-1.1562321e-08
5.8957603e-07
-1.2599342e-08
5.9175213e-07
-1.3525906e-08
5.9445267e-07
-1.4298169e-08
5.9782953e-07
-1.4881338e-08
6.0220065e-07
-1.5272498e-08
6.0858517e-07
-1.5168367e-08
6.189254e-07
-1.3036317e-08
6.2977515e-07
-7.0958418e-09
6.0974471e-07
-2.9644229e-10
4.8460323e-07
1.979841e-07
7.7801072e-10
1.5324365e-07
7.2389269e-09
4.3627487e-07
1.461515e-08
6.0116896e-07
1.7876315e-08
6.4360485e-07
1.8145763e-08
6.3391203e-07
1.762178e-08
6.1956675e-07
1.6930144e-08
6.1063143e-07
1.6064284e-08
6.0494008e-07
1.5030274e-08
6.0065294e-07
1.3873083e-08
5.972021e-07
1.2633819e-08
5.943879e-07
1.1342118e-08
5.9207973e-07
1.0019064e-08
5.901805e-07
8.6795859e-09
5.8861851e-07
7.3339302e-09
5.8734041e-07
5.9888373e-09
5.8630602e-07
4.6484621e-09
5.8548489e-07
3.315101e-09
5.8485415e-07
1.9897746e-09
5.8439701e-07
6.7270954e-10
5.8410184e-07
-6.3624864e-10
5.8396147e-07
-1.9372545e-09
5.8397291e-07
-3.2300783e-09
5.8413719e-07
-4.5137096e-09
5.8445945e-07
-5.7858926e-09
5.8494925e-07
-7.0425653e-09
5.856211e-07
-8.2771569e-09
5.864955e-07
-9.4796944e-09
5.8760032e-07
-1.0635613e-08
5.8897309e-07
-1.172428e-08
5.9066475e-07
-1.271688e-08
5.9274478e-07
-1.3573693e-08
5.9530953e-07
-1.4245126e-08
5.9850101e-07
-1.4683397e-08
6.0263897e-07
-1.4830502e-08
6.0873232e-07
-1.4266333e-08
6.1836127e-07
-1.1496403e-08
6.2700525e-07
-5.4131689e-09
6.0366151e-07
2.8315204e-10
4.7890693e-07
1.9826725e-07
4.6911394e-10
1.5353231e-07
5.8081142e-09
4.3254581e-07
1.3074057e-08
5.9470361e-07
1.7000682e-08
6.3980025e-07
1.7879997e-08
6.3299635e-07
1.7679308e-08
6.1974711e-07
1.7159132e-08
6.111479e-07
1.6405719e-08
6.0569345e-07
1.5448317e-08
6.0161051e-07
1.4339839e-08
5.9831065e-07
1.3127556e-08
5.9560024e-07
1.1845554e-08
5.9336178e-07
1.0518211e-08
5.915079e-07
9.1630227e-09
5.8997375e-07
7.7923358e-09
5.8871115e-07
6.4146812e-09
5.8768373e-07
5.035776e-09
5.8686385e-07
3.6593086e-09
5.8623067e-07
2.2875629e-09
5.8576881e-07
9.2193135e-10
5.8546752e-07
-4.3664528e-10
5.853201e-07
-1.7872754e-09
5.8532359e-07
-3.1287061e-09
5.8547867e-07
-4.4589088e-09
5.8578971e-07
-5.7745996e-09
5.8626499e-07
-7.0706634e-09
5.8691722e-07
-8.3394291e-09
5.8776432e-07
-9.569754e-09
5.8883069e-07
-1.0745778e-08
5.9014916e-07
-1.1845319e-08
5.9176434e-07
-1.2837649e-08
5.9373716e-07
-1.3680282e-08
5.9615222e-07
-1.4319709e-08
5.9914048e-07
-1.4693339e-08
6.0301265e-07
-1.467327e-08
6.087123e-07
-1.3715264e-08
6.1740332e-07
-1.0405453e-08
6.2369549e-07
-4.2645537e-09
5.9752066e-07
4.4303113e-10
4.7419936e-07
1.9871027e-07
3.7838179e-10
1.5387307e-07
4.8615847e-09
4.2965468e-07
1.2020513e-08
5.883954e-07
1.6568484e-08
6.3538209e-07
1.8048929e-08
6.3146421e-07
1.8151892e-08
6.1961448e-07
1.7765011e-08
6.1152911e-07
1.7085525e-08
6.0637295e-07
1.6174203e-08
6.0252208e-07
1.5091931e-08
5.9939301e-07
1.3890362e-08
5.9680186e-07
1.2606613e-08
5.9464557e-07
1.1267244e-08
5.9284731e-07
9.8913899e-09
5.9134964e-07
8.4927714e-09
5.9010981e-07
7.0811355e-09
5.890954e-07
5.6633115e-09
5.8828171e-07
4.2440235e-09
5.8764999e-07
2.8265303e-09
5.8718634e-07
1.4131452e-09
5.8688094e-07
5.6830589e-12
5.867276e-07
-1.3941355e-09
5.8672344e-07
-2.7842713e-09
5.8686884e-07
-4.1619525e-09
5.8716742e-07
-5.5232046e-09
5.8762627e-07
-6.8622856e-09
5.8825633e-07
-8.1709746e-09
5.8907304e-07
-9.4376668e-09
5.9009742e-07
-1.0646132e-08
5.9135766e-07
-1.1773807e-08
5.9289205e-07
-1.2789533e-08
5.9475292e-07
-1.3649978e-08
5.970127e-07
-1.4298606e-08
5.9978915e-07
-1.4655921e-08
6.0337e-07
-1.4518427e-08
6.0857485e-07
-1.3228145e-08
6.1611308e-07
-9.5081671e-09
6.1997556e-07
-3.4611345e-09
5.9147366e-07
3.742671e-10
4.7036396e-07
1.9908453e-07
4.3491426e-10
1.541302e-07
4.264447e-09
4.2733094e-07
1.1213496e-08
5.8229537e-07
1.6269702e-08
6.3044464e-07
1.8318505e-08
6.2934116e-07
1.8720372e-08
6.1917097e-07
1.8456872e-08
6.1178455e-07
1.784032e-08
6.0698964e-07
1.696954e-08
6.0339325e-07
1.5913582e-08
6.0044904e-07
1.4726929e-08
5.9798852e-07
1.3448658e-08
5.9592384e-07
1.2106725e-08
5.9418925e-07
1.072131e-08
5.9273506e-07
9.3070521e-09
5.9152407e-07
7.8745728e-09
5.9052788e-07
6.4315578e-09
5.8972473e-07
4.9835765e-09
5.8909797e-07
3.5347191e-09
5.886352e-07
2.0881113e-09
5.8832755e-07
6.4635207e-10
5.8816936e-07
-7.8808635e-10
5.8815788e-07
-2.2124612e-09
5.8829321e-07
-3.6233545e-09
5.8857831e-07
-5.0162213e-09
5.8901914e-07
-6.3848507e-09
5.8962496e-07
-7.7206834e-09
5.9040887e-07
-9.011929e-09
5.9138866e-07
-1.024236e-08
5.9258809e-07
-1.1389522e-08
5.9403921e-07
-1.2422419e-08
5.9578582e-07
-1.3297729e-08
5.9788801e-07
-1.3955807e-08
6.0044724e-07
-1.4299195e-08
6.037134e-07
-1.4058392e-08
6.0833406e-07
-1.2502565e-08
6.1455727e-07
-8.5565275e-09
6.1602954e-07
-2.8347455e-09
5.8575189e-07
2.2448274e-10
4.6730471e-07
1.9930901e-07
5.5346779e-10
1.5425335e-07
3.8701091e-09
4.2540882e-07
1.0409251e-08
5.7656678e-07
1.5757452e-08
6.2519486e-07
1.8287131e-08
6.2671585e-07
1.8987513e-08
6.1841789e-07
1.886731e-08
6.1189438e-07
1.8334565e-08
6.0752264e-07
1.7527063e-08
6.0420127e-07
1.6522181e-08
6.0145399e-07
1.53764e-08
5.9913427e-07
1.4130252e-08
5.9716996e-07
1.2812797e-08
5.9550667e-07
1.1445096e-08
5.9410273e-07
1.0042606e-08
5.9292652e-07
8.6167627e-09
5.9195369e-07
7.1760796e-09
5.9116538e-07
5.7269669e-09
5.9054705e-07
4.2743602e-09
5.9008777e-07
2.8222263e-09
5.8977965e-07
1.3739916e-09
5.8961756e-07
-6.7067675e-11
5.8959891e-07
-1.4974439e-09
5.8972356e-07
-2.9130015e-09
5.8999384e-07
-4.3085477e-09
5.9041465e-07
-5.6773127e-09
5.909937e-07
-7.0102951e-09
5.9174182e-07
-8.2953965e-09
5.9267373e-07
-9.5162454e-09
5.9380891e-07
-1.0650368e-08
5.951733e-07
-1.1666728e-08
5.9680215e-07
-1.2521894e-08
5.9874315e-07
-1.3152804e-08
6.0107812e-07
-1.3446098e-08
6.0400667e-07
-1.3091754e-08
6.0797969e-07
-1.1353643e-08
6.1281914e-07
-7.4129257e-09
6.1208881e-07
-2.2810334e-09
5.8061998e-07
8.7096383e-11
4.6493655e-07
1.993961e-07
6.7002632e-10
1.5425344e-07
3.5603336e-09
4.2381463e-07
9.4566034e-09
5.7143029e-07
1.4797691e-08
6.1993647e-07
1.7655589e-08
6.2375169e-07
1.8639258e-08
6.1737548e-07
1.8697304e-08
6.1182443e-07
1.8290935e-08
6.0792926e-07
1.7589243e-08
6.0490355e-07
1.6677205e-08
6.0236609e-07
1.561303e-08
6.0019838e-07
1.4438622e-08
5.9834431e-07
1.3184227e-08
5.9676101e-07
1.1871941e-08
5.9541496e-07
1.0518209e-08
5.942802e-07
9.1354352e-09
5.9333641e-07
7.7331003e-09
5.9256766e-07
6.3185847e-09
5.9196151e-07
4.8977922e-09
5.9150851e-07
3.4756516e-09
5.9120174e-07
2.0565404e-09
5.9103661e-07
6.4466937e-10
5.9101072e-07
-7.5554527e-10
5.9112372e-07
-2.1390906e-09
5.9137733e-07
-3.4999379e-09
5.9177545e-07
-4.8305355e-09
5.9232424e-07
-6.1211714e-09
5.930324e-07
-7.3591148e-09
5.9391162e-07
-8.5274559e-09
5.949772e-07
-9.6032855e-09
5.9624908e-07
-1.0555085e-08
5.9775389e-07
-1.1338924e-08
5.9952694e-07
-1.1888933e-08
6.0162807e-07
-1.2082197e-08
6.0419988e-07
-1.160307e-08
6.0750051e-07
-9.7845222e-09
6.1100054e-07
-6.0871341e-09
6.0839138e-07
-1.7602991e-09
5.762931e-07
-2.4022867e-12
4.6317863e-07
1.993937e-07
7.4753312e-10
1.5417458e-07
3.2675141e-09
4.2252352e-07
8.3400057e-09
5.6707486e-07
1.3358979e-08
6.1499936e-07
1.6346233e-08
6.2066351e-07
1.756706e-08
6.1609721e-07
1.782922e-08
6.1155016e-07
1.7592575e-08
6.0816601e-07
1.7041805e-08
6.0545489e-07
1.6266833e-08
6.0314111e-07
1.5327159e-08
6.0113799e-07
1.4265916e-08
5.9940548e-07
1.3114609e-08
5.9791225e-07
1.1896578e-08
5.9663293e-07
1.0629468e-08
5.9554725e-07
9.3268503e-09
5.9463896e-07
7.9993538e-09
5.9389509e-07
6.6554857e-09
5.9330532e-07
5.3022592e-09
5.9286167e-07
3.9456963e-09
5.9255824e-07
2.5912525e-09
5.92391e-07
1.2442023e-09
5.9235771e-07
-8.9992364e-11
5.9245785e-07
-1.4052912e-09
5.9269257e-07
-2.6946563e-09
5.9306475e-07
-3.9495531e-09
5.9357907e-07
-5.1593224e-09
5.9424211e-07
-6.3103342e-09
5.9506257e-07
-7.3848433e-09
5.9605165e-07
-8.3592533e-09
5.9722343e-07
-9.2014708e-09
5.9859605e-07
-9.8672657e-09
6.0019267e-07
-1.0290155e-08
6.020509e-07
-1.0347332e-08
6.0425699e-07
-9.751295e-09
6.0690441e-07
-7.9615468e-09
6.0921073e-07
-4.7005045e-09
6.0513027e-07
-1.2783537e-09
5.728709e-07
-4.5307393e-11
4.6194556e-07
1.9934839e-07
7.7665749e-10
1.5406678e-07
2.9751675e-09
4.2151704e-07
7.1535452e-09
5.6358715e-07
1.1598075e-08
6.1065224e-07
1.4510286e-08
6.1767025e-07
1.5889277e-08
6.1466877e-07
1.6352573e-08
6.1107592e-07
1.6308814e-08
6.082097e-07
1.5938771e-08
6.0582542e-07
1.5332511e-08
6.0374742e-07
1.4549481e-08
6.0192096e-07
1.3633348e-08
6.0032156e-07
1.2616584e-08
5.9892896e-07
1.1523698e-08
5.9772576e-07
1.037356e-08
5.9669733e-07
9.1809748e-09
5.958315e-07
7.9577883e-09
5.9511822e-07
6.7137056e-09
5.9454935e-07
5.4569141e-09
5.9411841e-07
4.1945883e-09
5.9382051e-07
2.9333173e-09
5.9365222e-07
1.6794923e-09
5.9361149e-07
4.3967505e-10
5.9369762e-07
-7.7901262e-10
5.939112e-07
-1.9684676e-09
5.9425415e-07
-3.1191161e-09
5.9472967e-07
-4.2193034e-09
5.9534225e-07
-5.2544824e-09
5.960977e-07
-6.2061215e-09
5.9700323e-07
-7.050139e-09
5.9806739e-07
-7.7544482e-09
5.9930031e-07
-8.2756831e-09
6.0071385e-07
-8.5502272e-09
6.0232539e-07
-8.4656537e-09
6.0417236e-07
-7.7862015e-09
6.062249e-07
-6.1233334e-09
6.075478e-07
-3.4095424e-09
6.0241643e-07
-8.5821037e-10
5.7031953e-07
-3.671469e-11
4.6112405e-07
1.9931168e-07
7.6835688e-10
1.5396714e-07
2.6998177e-09
4.2076061e-07
6.0329922e-09
5.6093196e-07
9.7655731e-09
6.070428e-07
1.2435543e-08
6.1494711e-07
1.3874599e-08
6.1319208e-07
1.4502085e-08
6.1043954e-07
1.4643442e-08
6.080681e-07
1.4458116e-08
6.0601109e-07
1.4030378e-08
6.0417521e-07
1.3417257e-08
6.0253405e-07
1.2661554e-08
6.0107722e-07
1.1795869e-08
5.997946e-07
1.0845381e-08
5.9867621e-07
9.8298845e-09
5.9771279e-07
8.7652244e-09
5.9689612e-07
7.6643391e-09
5.9621908e-07
6.5380383e-09
5.9567562e-07
5.3956104e-09
5.9526081e-07
4.2453186e-09
5.9497077e-07
3.0948239e-09
5.9480268e-07
1.9515702e-09
5.9475471e-07
8.2314946e-10
5.9482601e-07
-2.8231822e-10
5.9501664e-07
-1.3557702e-09
5.9532757e-07
-2.3867321e-09
5.957606e-07
-3.3627466e-09
5.9631823e-07
-4.268635e-09
5.9700356e-07
-5.0855184e-09
5.9782008e-07
-5.7895065e-09
5.9877135e-07
-6.3496718e-09
5.9986044e-07
-6.725387e-09
6.0108953e-07
-6.8596281e-09
6.0245959e-07
-6.6583003e-09
6.0397099e-07
-5.9470038e-09
6.0551356e-07
-4.4821132e-09
6.0608287e-07
-2.3373897e-09
6.0027166e-07
-5.2762161e-10
5.6850973e-07
-7.4871539e-12
4.6060392e-07
1.9930419e-07
7.4163765e-10
1.538932e-07
2.4660355e-09
4.202032e-07
5.0885937e-09
5.5898139e-07
8.0944089e-09
6.0418709e-07
1.0419023e-08
6.1259762e-07
1.1822637e-08
6.1176312e-07
1.255345e-08
6.0970219e-07
1.2844131e-08
6.0777708e-07
1.282194e-08
6.060335e-07
1.2559978e-08
6.0443721e-07
1.211006e-08
6.0298395e-07
1.1512295e-08
6.0167496e-07
1.0798167e-08
6.0050872e-07
9.9926595e-09
5.994817e-07
9.1158818e-09
5.9858955e-07
8.1842788e-09
5.9782771e-07
7.2115463e-09
5.9719179e-07
6.2093348e-09
5.9667781e-07
5.187814e-09
5.9628231e-07
4.1561419e-09
5.9600243e-07
3.1228696e-09
5.9583594e-07
2.0963125e-09
5.9578125e-07
1.0849025e-09
5.958374e-07
9.7546218e-11
5.9600398e-07
-8.5598336e-10
5.9628109e-07
-1.7646162e-09
5.9666922e-07
-2.6154801e-09
5.9716908e-07
-3.3932736e-09
5.9778133e-07
-4.0794649e-09
5.9850626e-07
-4.6512954e-09
5.9934316e-07
-5.080339e-09
6.0028946e-07
-5.3306375e-09
6.0133981e-07
-5.3545992e-09
6.0248354e-07
-5.0803147e-09
6.0369669e-07
-4.3918879e-09
6.0482511e-07
-3.1616354e-09
6.048526e-07
-1.5367051e-09
5.9864671e-07
-2.9557849e-10
5.672686e-07
2.0924044e-11
4.6028742e-07
1.9932512e-07
7.1311392e-10
1.5384625e-07
2.2882478e-09
4.1978936e-07
4.3693388e-09
5.5756726e-07
6.7266614e-09
6.0200121e-07
8.6709358e-09
6.1065175e-07
9.9651405e-09
6.1045395e-07
1.0732171e-08
6.0893075e-07
1.1120865e-08
6.0738804e-07
1.1223313e-08
6.0593116e-07
1.1098121e-08
6.0456243e-07
1.0789532e-08
6.0329253e-07
1.0333243e-08