/*--------------------------------*- C++ -*----------------------------------*\
  =========                 |
  \\      /  F ield         | OpenFOAM: The Open Source CFD Toolbox
   \\    /   O peration     | Website:  https://openfoam.org
    \\  /    A nd           | Version:  10
     \\/     M anipulation  |
\*---------------------------------------------------------------------------*/
FoamFile
{
    format      ascii;
    class       surfaceScalarField;
    location    "0.04";
    object      phi_0;
}
// * * * * * * * * * * * * * * * * * * * * * * * * * * * * * * * * * * * * * //

dimensions      [1 0 -1 0 0 0 0];

internalField   nonuniform List<scalar> 
7860
(
3.9748818e-08
5.289599e-07
1.2088141e-08
5.9636791e-07
7.3270379e-09
5.7346888e-07
5.3894011e-09
5.7064537e-07
4.0063664e-09
5.7009074e-07
3.0974477e-09
5.696166e-07
2.4615338e-09
5.6934358e-07
1.9886814e-09
5.691805e-07
1.6262231e-09
5.690701e-07
1.3413519e-09
5.689925e-07
1.1121086e-09
5.6893686e-07
9.2363362e-10
5.6889609e-07
7.655286e-10
5.6886572e-07
6.3027978e-10
5.6884285e-07
5.1231312e-10
5.6882557e-07
4.0738355e-10
5.6881253e-07
3.1216464e-10
5.6880282e-07
2.2396479e-10
5.687958e-07
1.4052275e-10
5.6879104e-07
5.9853215e-11
5.6878826e-07
-1.9877872e-11
5.6878732e-07
-1.0046271e-10
5.6878818e-07
-1.8375877e-10
5.6879089e-07
-2.717968e-10
5.6879563e-07
-3.6691587e-10
5.6880272e-07
-4.7193032e-10
5.6881261e-07
-5.9035602e-10
5.6882603e-07
-7.2673084e-10
5.6884398e-07
-8.870866e-10
5.6886796e-07
-1.0796715e-09
5.689002e-07
-1.316144e-09
5.6894409e-07
-1.6135817e-09
5.6900506e-07
-1.9974156e-09
5.6909147e-07
-2.5081393e-09
5.6921837e-07
-3.2288034e-09
5.6942833e-07
-4.3178834e-09
5.6979676e-07
-5.8742973e-09
5.7026412e-07
-9.3768788e-09
5.7221032e-07
-2.9400449e-08
5.8873135e-07
5.393075e-07
5.9317652e-08
4.6964632e-07
3.6271766e-08
6.1941214e-07
2.2274333e-08
5.8746576e-07
1.5899147e-08
5.7702058e-07
1.1944534e-08
5.7404536e-07
9.2766041e-09
5.7228453e-07
7.3682559e-09
5.7125193e-07
5.9500021e-09
5.7059876e-07
4.8649921e-09
5.7015511e-07
4.0123643e-09
5.6984513e-07
3.3263181e-09
5.6962291e-07
2.7624036e-09
5.6946001e-07
2.2894277e-09
5.6933869e-07
1.8848654e-09
5.6924742e-07
1.5320209e-09
5.6917842e-07
1.2181851e-09
5.6912637e-07
9.3340391e-10
5.690876e-07
6.6962731e-10
5.6905958e-07
4.200959e-10
5.6904057e-07
1.7887688e-10
5.6902949e-07
-5.9509452e-11
5.6902571e-07
-3.0041606e-10
5.6902909e-07
-5.4938512e-10
5.6903986e-07
-8.1248592e-10
5.6905874e-07
-1.0967091e-09
5.6908694e-07
-1.4104696e-09
5.6912638e-07
-1.7642854e-09
5.6917985e-07
-2.1717401e-09
5.6925144e-07
-2.650906e-09
5.6934713e-07
-3.2265175e-09
5.6947581e-07
-3.9334569e-09
5.6965103e-07
-4.8228696e-09
5.6989448e-07
-5.9726793e-09
5.7024128e-07
-7.5036932e-09
5.7074939e-07
-9.621811e-09
5.7154645e-07
-1.2738339e-08
5.7291329e-07
-1.7674418e-08
5.752002e-07
-2.7692343e-08
5.8222824e-07
-4.5356757e-08
6.0639577e-07
4.9395074e-07
5.9452228e-08
4.1020474e-07
4.9732878e-08
6.2913078e-07
3.2702472e-08
6.0449407e-07
2.4178974e-08
5.8554395e-07
1.8706035e-08
5.7951834e-07
1.4747314e-08
5.7624326e-07
1.1816035e-08
5.7418321e-07
9.599933e-09
5.7281487e-07
7.8837055e-09
5.7187134e-07
6.5230631e-09
5.7120578e-07
5.4212272e-09
5.7072475e-07
4.5110301e-09
5.7037021e-07
3.7445266e-09
5.701052e-07
3.0867085e-09
5.6990524e-07
2.5113994e-09
5.6975373e-07
1.9985314e-09
5.6963924e-07
1.5322984e-09
5.6955384e-07
1.0998591e-09
5.6949202e-07
6.903926e-10
5.6945004e-07
2.9437634e-10
5.6942551e-07
-9.6997503e-11
5.6941709e-07
-4.9233411e-10
5.6942443e-07
-9.0053468e-10
5.6944807e-07
-1.3313261e-09
5.6948953e-07
-1.7958757e-09
5.695515e-07
-2.3075685e-09
5.6963807e-07
-2.8830453e-09
5.6975533e-07
-3.5436526e-09
5.6991205e-07
-4.3175484e-09
5.7012103e-07
-5.2428504e-09
5.7040112e-07
-6.3724127e-09
5.707806e-07
-7.7816154e-09
5.7130369e-07
-9.5818219e-09
5.7204149e-07
-1.1938147e-08
5.7310572e-07
-1.508853e-08
5.7469683e-07
-1.9402877e-08
5.7722764e-07
-2.5850785e-08
5.8164811e-07
-3.8017358e-08
5.9439482e-07
-4.7422935e-08
6.1580135e-07
4.4652781e-07
5.4134184e-08
3.5609224e-07
5.6263125e-08
6.2700651e-07
3.9395108e-08
6.213578e-07
2.9800077e-08
5.9513813e-07
2.371193e-08
5.8560656e-07
1.9078015e-08
5.808772e-07
1.550374e-08
5.7775749e-07
1.2725726e-08
5.7559288e-07
1.0529393e-08
5.7406768e-07
8.7616866e-09
5.7297349e-07
7.3139306e-09
5.7217251e-07
6.1072354e-09
5.7157691e-07
5.0836471e-09
5.7112879e-07
4.1999462e-09
5.7078895e-07
3.4232685e-09
5.7053041e-07
2.7280822e-09
5.7033443e-07
2.0940618e-09
5.7018786e-07
1.5045506e-09
5.7008153e-07
9.4541578e-10
5.7000918e-07
4.041597e-10
5.6996677e-07
-1.3081012e-10
5.6995207e-07
-6.7082726e-10
5.6996445e-07
-1.2275929e-09
5.7000484e-07
-1.8138404e-09
5.7007578e-07
-2.4440995e-09
5.7018176e-07
-3.1356451e-09
5.7032962e-07
-3.9097376e-09
5.7052942e-07
-4.7933044e-09
5.7079562e-07
-5.821293e-09
5.7114903e-07
-7.0400409e-09
5.7161987e-07
-8.5120066e-09
5.7225257e-07
-1.032236e-08
5.7311404e-07
-1.2589678e-08
5.7430882e-07
-1.547934e-08
5.7599538e-07
-1.9196349e-08
5.7841385e-07
-2.4014866e-08
5.8204616e-07
-3.1153401e-08
5.8878665e-07
-4.3605341e-08
6.0684676e-07
-4.5477977e-08
6.1767399e-07
4.0104984e-07
4.7052815e-08
3.0907755e-07
5.8396511e-08
6.1567962e-07
4.3815054e-08
6.3593324e-07
3.3482482e-08
6.0546813e-07
2.7103607e-08
5.9198543e-07
2.2214245e-08
5.8576663e-07
1.8327765e-08
5.8164398e-07
1.5223135e-08
5.7869752e-07
1.2712849e-08
5.7657797e-07
1.0656217e-08
5.7503012e-07
8.947445e-09
5.7388129e-07
7.5062781e-09
5.7301808e-07
6.2718097e-09
5.7236327e-07
5.1973591e-09
5.718634e-07
4.2466255e-09
5.7148115e-07
3.3908934e-09
5.7119017e-07
2.6069604e-09
5.709718e-07
1.8755785e-09
5.7081292e-07
1.1802577e-09
5.7070451e-07
5.0631392e-10
5.7064071e-07
-1.599288e-10
5.7061831e-07
-8.318516e-10
5.7063638e-07
-1.5232343e-09
5.7069622e-07
-2.2489852e-09
5.7080154e-07
-3.0259692e-09
5.7095875e-07
-3.8740113e-09
5.7117767e-07
-4.81717e-09
5.7147259e-07
-5.8853991e-09
5.7186385e-07
-7.1167546e-09
5.7238039e-07
-8.5603904e-09
5.7306351e-07
-1.028053e-08
5.7397271e-07
-1.2361147e-08
5.7519467e-07
-1.4912771e-08
5.7686044e-07
-1.8083428e-08
5.7916604e-07
-2.2052453e-08
5.8238287e-07
-2.7121259e-08
5.8711497e-07
-3.478449e-08
5.9644988e-07
-4.6288389e-08
6.1835067e-07
-4.1773756e-08
6.1315935e-07
3.5927609e-07
3.926463e-08
2.6987331e-07
5.6781814e-08
5.9819997e-07
4.6121771e-08
6.4658769e-07
3.5691545e-08
6.1589283e-07
2.9208425e-08
5.9846812e-07
2.4312406e-08
5.9066279e-07
2.0340748e-08
5.8561566e-07
1.7093467e-08
5.819448e-07
1.4414348e-08
5.7925709e-07
1.2180397e-08
5.7726408e-07
1.0295431e-08
5.7576626e-07
8.6843775e-09
5.7462914e-07
7.2886305e-09
5.7375902e-07
6.0620109e-09
5.7309003e-07
4.9677364e-09
5.7257543e-07
3.9761091e-09
5.721818e-07
3.0627072e-09
5.7188521e-07
2.2069708e-09
5.7166866e-07
1.3910774e-09
5.715204e-07
5.990191e-10
5.7143278e-07
-1.8418667e-10
5.7140152e-07
-9.7321222e-10
5.7142541e-07
-1.7831198e-09
5.7150614e-07
-2.6300904e-09
5.7164851e-07
-3.5322355e-09
5.718609e-07
-4.5105568e-09
5.72156e-07
-5.5901235e-09
5.7255216e-07
-6.8015543e-09
5.7307529e-07
-8.1828906e-09
5.7376173e-07
-9.7820221e-09
5.7466265e-07
-1.1659922e-08
5.7585062e-07
-1.3894364e-08
5.7742911e-07
-1.6584362e-08
5.7955044e-07
-1.9858493e-08
5.8244018e-07
-2.3881571e-08
5.8640596e-07
-2.9041237e-08
5.9227464e-07
-3.6858796e-08
6.0426745e-07
-4.6214685e-08
6.2770656e-07
-3.6787984e-08
6.0373266e-07
3.2248811e-07
3.1640988e-08
2.3832055e-07
5.2469314e-08
5.7743982e-07
4.6292909e-08
6.5276317e-07
3.6560332e-08
6.2561592e-07
3.0220078e-08
6.0480689e-07
2.5513495e-08
5.9536958e-07
2.163045e-08
5.8949877e-07
1.8384416e-08
5.8519084e-07
1.5654963e-08
5.8198655e-07
1.3339524e-08
5.7957952e-07
1.1354864e-08
5.7775093e-07
9.6346898e-09
5.7634932e-07
8.1259508e-09
5.7526776e-07
6.7857577e-09
5.7443022e-07
5.5791433e-09
5.7378205e-07
4.4772681e-09
5.7328368e-07
3.4559615e-09
5.7290652e-07
2.4945402e-09
5.7263009e-07
1.5748355e-09
5.7244011e-07
6.8036987e-10
5.7232725e-07
-2.0436464e-10
5.7228626e-07
-1.0945697e-09
5.7231562e-07
-2.0057937e-09
5.7241736e-07
-2.9546054e-09
5.7259733e-07
-3.959329e-09
5.7286563e-07
-5.0408922e-09
5.7323756e-07
-6.2238335e-09
5.737351e-07
-7.5375331e-09
5.7438899e-07
-9.0177204e-09
5.7524192e-07
-1.0708345e-08
5.7635328e-07
-1.266414e-08
5.7780642e-07
-1.4953829e-08
5.7971881e-07
-1.766266e-08
5.8225928e-07
-2.0895243e-08
5.8567277e-07
-2.4798123e-08
5.9030884e-07
-2.9835885e-08
5.9731241e-07
-3.7280278e-08
6.1171184e-07
-4.3854718e-08
6.34281e-07
-3.1201018e-08
5.9107896e-07
2.9128709e-07
2.4820821e-08
2.1362683e-07
4.6744339e-08
5.5562732e-07
4.4718614e-08
6.5479914e-07
3.6277004e-08
6.340437e-07
3.0306249e-08
6.1077423e-07
2.5936573e-08
5.9973942e-07
2.2282158e-08
5.931533e-07
1.915591e-08
5.883171e-07
1.6473887e-08
5.8466858e-07
1.4157421e-08
5.8189599e-07
1.2139163e-08
5.7976919e-07
1.0363997e-08
5.7812449e-07
8.7865193e-09
5.7684524e-07
7.3690328e-09
5.7584772e-07
6.0800526e-09
5.7507103e-07
4.8930195e-09
5.7447072e-07
3.7852153e-09
5.7401433e-07
2.7368534e-09
5.7367845e-07
1.7303e-09
5.7344667e-07
7.4939313e-10
5.7330816e-07
-2.2117008e-10
5.7325683e-07
-1.1964047e-09
5.7329086e-07
-2.1916037e-09
5.7341257e-07
-3.2229154e-09
5.7362865e-07
-4.3079629e-09
5.7395068e-07
-5.4665389e-09
5.7439614e-07
-6.721404e-09
5.7498997e-07
-8.0992335e-09
5.7576683e-07
-9.6317484e-09
5.7677444e-07
-1.1357037e-08
5.7807857e-07
-1.3321311e-08
5.797707e-07
-1.5581311e-08
5.8197881e-07
-1.8205051e-08
5.8488302e-07
-2.1269882e-08
5.887376e-07
-2.4906252e-08
5.9394522e-07
-2.9625218e-08
6.0203138e-07
-3.6258793e-08
6.1834542e-07
-4.0000904e-08
6.3802312e-07
-2.5628168e-08
5.7670623e-07
2.6565893e-07
1.9050704e-08
1.9477817e-07
4.0538411e-08
5.3431277e-07
4.1930939e-08
6.5343685e-07
3.5116725e-08
6.4084011e-07
2.9680875e-08
6.162036e-07
2.5730367e-08
6.036898e-07
2.2398615e-08
5.9648527e-07
1.9481544e-08
5.912342e-07
1.6923967e-08
5.8722616e-07
1.4671774e-08
5.8414819e-07
1.2675019e-08
5.8176595e-07
1.0891101e-08
5.7990841e-07
9.2835851e-09
5.7845277e-07
7.8212409e-09
5.7731007e-07
6.4772287e-09
5.7641505e-07
5.228312e-09
5.7571964e-07
4.054153e-09
5.7518849e-07
2.9366856e-09
5.7479593e-07
1.8595503e-09
5.7452381e-07
8.0757861e-10
5.7436014e-07
-2.3368468e-10
5.742981e-07
-1.278435e-09
5.7433561e-07
-2.341059e-09
5.744752e-07
-3.43659e-09
5.7472418e-07
-4.5811851e-09
5.7509528e-07
-5.7926436e-09
5.7560761e-07
-7.0909757e-09
5.7628831e-07
-8.4990443e-09
5.771749e-07
-1.00433e-08
5.783187e-07
-1.1754567e-08
5.7978984e-07
-1.3668952e-08
5.8168509e-07
-1.5829253e-08
5.8413912e-07
-1.828455e-08
5.8733833e-07
-2.1087488e-08
5.9154055e-07
-2.4360872e-08
5.972186e-07
-2.8614754e-08
6.0628527e-07
-3.4140092e-08
6.2387077e-07
-3.5313077e-08
6.3919611e-07
-2.0410913e-08
5.6180407e-07
2.4524802e-07
1.4323197e-08
1.8079902e-07
3.4382686e-08
5.1452038e-07
3.8371998e-08
6.4950899e-07
3.3324999e-08
6.4586599e-07
2.8550564e-08
6.2096707e-07
2.5057356e-08
6.0718221e-07
2.2097735e-08
5.994452e-07
1.9447037e-08
5.9388496e-07
1.7068225e-08
5.8960497e-07
1.4929341e-08
5.8628708e-07
1.2997311e-08
5.8369799e-07
1.124211e-08
5.8166362e-07
9.6367709e-09
5.8005811e-07
8.1572014e-09
5.7878964e-07
6.7819186e-09
5.7779034e-07
5.4917092e-09
5.7700986e-07
4.2692818e-09
5.7641093e-07
3.0989142e-09
5.759663e-07
1.9661028e-09
5.7565663e-07
8.5722207e-10
5.7546902e-07
-2.4080495e-10
5.7539613e-07
-1.3408281e-09
5.7543564e-07
-2.4557911e-09
5.7559017e-07
-3.5990491e-09
5.7586745e-07
-4.7846907e-09
5.7628093e-07
-6.0278677e-09
5.7685079e-07
-7.3451305e-09
5.7760558e-07
-8.7547645e-09
5.7858454e-07
-1.0277142e-08
5.7984108e-07
-1.1935039e-08
5.8144774e-07
-1.3753871e-08
5.8350393e-07
-1.5762147e-08
5.861474e-07
-1.7990499e-08
5.8956668e-07
-2.0471902e-08
5.9402196e-07
-2.3325095e-08
6.000718e-07
-2.7000653e-08
6.0996083e-07
-3.1238046e-08
6.2810816e-07
-3.0235639e-08
6.3819371e-07
-1.5691821e-08
5.4726026e-07
2.2955621e-07
1.0524305e-08
1.7081923e-07
2.8574987e-08
4.9687288e-07
3.4380843e-08
6.4380974e-07
3.1087923e-08
6.4913544e-07
2.7071528e-08
6.249664e-07
2.4054886e-08
6.1019683e-07
2.1487248e-08
6.0201324e-07
1.9133875e-08
5.9623845e-07
1.6967588e-08
5.9177127e-07
1.4975232e-08
5.8827944e-07
1.3139039e-08
5.8553418e-07
1.1440789e-08
5.8336187e-07
9.8628005e-09
5.816361e-07
8.3882508e-09
5.802642e-07
7.0013139e-09
5.7917728e-07
5.6871841e-09
5.7832399e-07
4.4320334e-09
5.7766608e-07
3.2229056e-09
5.7717543e-07
2.0475698e-09
5.7683197e-07
8.9435171e-10
5.7662225e-07
-2.4804482e-10
5.7653853e-07
-1.390722e-09
5.7657832e-07
-2.5447737e-09
5.7674422e-07
-3.7214586e-09
5.7704414e-07
-4.9323635e-09
5.7749184e-07
-6.1895458e-09
5.7810798e-07
-7.5056435e-09
5.7892168e-07
-8.8939328e-09
5.7997284e-07
-1.0368337e-08
5.8131549e-07
-1.1943357e-08
5.8302277e-07
-1.3633825e-08
5.851944e-07
-1.5454509e-08
5.8796809e-07
-1.7418758e-08
5.9153094e-07
-1.9543898e-08
5.961471e-07
-2.1941197e-08
6.0246911e-07
-2.4950896e-08
6.1297053e-07
-2.7831396e-08
6.3098867e-07
-2.509392e-08
6.3545624e-07
-1.1515211e-08
5.3368156e-07
2.1804102e-07
7.5120308e-09
1.6405154e-07
2.3290943e-08
4.8167633e-07
3.0232786e-08
6.3703708e-07
2.8562575e-08
6.5078238e-07
2.5360034e-08
6.2814469e-07
2.2828062e-08
6.12725e-07
2.0654015e-08
6.0418774e-07
1.8609842e-08
5.9828281e-07
1.6673167e-08
5.9370795e-07
1.4846415e-08
5.9010619e-07
1.3125477e-08
5.8725512e-07
1.1502957e-08
5.8498439e-07
9.9699336e-09
5.8316913e-07
8.5166294e-09
5.817175e-07
7.132856e-09
5.8056105e-07
5.8083256e-09
5.7964852e-07
4.5328584e-09
5.7894155e-07
3.2964894e-09
5.784118e-07
2.0895062e-09
5.7803895e-07
9.024411e-10
5.7780931e-07
-2.7396023e-10
5.7771494e-07
-1.4487902e-09
5.7775315e-07
-2.6310302e-09
5.7792646e-07
-3.8295822e-09
5.7824269e-07
-5.0532768e-09
5.7871553e-07
-6.310838e-09
5.7936554e-07
-7.6107851e-09
5.8022163e-07
-8.9612416e-09
5.8132329e-07
-1.0369643e-08
5.827239e-07
-1.1842327e-08
5.8449545e-07
-1.33839e-08
5.8673597e-07
-1.4996135e-08
5.8958033e-07
-1.6676267e-08
5.9321107e-07
-1.8428419e-08
5.9789926e-07
-2.0350452e-08
6.0439114e-07
-2.2642762e-08
6.1526285e-07
-2.4201658e-08
6.3254757e-07
-2.0168908e-08
6.3142349e-07
-7.9074214e-09
5.2142008e-07
2.1013361e-07
5.158412e-09
1.5977478e-07
1.8633367e-08
4.6899924e-07
2.6163152e-08
6.2976066e-07
2.5909602e-08
6.5101926e-07
2.3528766e-08
6.304947e-07
2.147702e-08
6.147708e-07
1.9684214e-08
6.0598089e-07
1.7945168e-08
6.000221e-07
1.6240295e-08
5.9541284e-07
1.4584777e-08
5.917617e-07
1.2986683e-08
5.8885321e-07
1.144854e-08
5.8652253e-07
9.9695346e-09
5.8464813e-07
8.5465149e-09
5.8314052e-07
7.1746876e-09
5.8193288e-07
5.8481698e-09
5.8097504e-07
4.5604049e-09
5.8022931e-07
3.3044536e-09
5.7966775e-07
2.0731938e-09
5.7927021e-07
8.5945946e-10
5.7902304e-07
-3.4385729e-10
5.7891825e-07
-1.5437314e-09
5.7895303e-07
-2.7469299e-09
5.7912966e-07
-3.9599111e-09
5.7945567e-07
-5.1886885e-09
5.7994431e-07
-6.4386314e-09
5.8061548e-07
-7.714177e-09
5.8149718e-07
-9.0184165e-09
5.8262753e-07
-1.035253e-08
5.8405801e-07
-1.1715059e-08
5.8585798e-07
-1.310089e-08
5.881218e-07
-1.4499657e-08
5.9097909e-07
-1.5893851e-08
5.9460527e-07
-1.7275497e-08
5.992809e-07
-1.8723607e-08
6.0583925e-07
-2.0292569e-08
6.1683181e-07
-2.0644751e-08
6.3289975e-07
-1.5716206e-08
6.2649495e-07
-4.917697e-09
5.1062158e-07
2.0521591e-07
3.3670388e-09
1.5734382e-07
1.4659995e-08
4.5874448e-07
2.2385074e-08
6.2239759e-07
2.3318154e-08
6.5008692e-07
2.1726246e-08
6.3205215e-07
2.0136893e-08
6.1635205e-07
1.869989e-08
6.0741792e-07
1.7246187e-08
6.0147606e-07
1.576001e-08
5.9689905e-07
1.4267202e-08
5.9325451e-07
1.2786796e-08
5.9033362e-07
1.1330376e-08
5.8797896e-07
9.9045111e-09
5.86074e-07
8.5121041e-09
5.8453293e-07
7.1533346e-09
5.8329166e-07
5.8264195e-09
5.8230196e-07
4.5282121e-09
5.8152753e-07
3.2546537e-09
5.8094132e-07
2.0011158e-09
5.8052376e-07
7.6266735e-10
5.802615e-07
-4.6570702e-10
5.8014663e-07
-1.6889188e-09
5.8017625e-07
-2.9115882e-09
5.8035234e-07
-4.1378279e-09
5.8068192e-07
-5.3709802e-09
5.8117747e-07
-6.6132711e-09
5.8185778e-07
-7.865357e-09
5.8274927e-07
-9.125711e-09
5.8388789e-07
-1.0389812e-08
5.8532212e-07
-1.1649118e-08
5.871173e-07
-1.2889659e-08
5.8936235e-07
-1.4090086e-08
5.9217953e-07
-1.5219952e-08
5.9573514e-07
-1.6259213e-08
6.0032016e-07
-1.7262292e-08
6.0684233e-07
-1.8146551e-08
6.1771607e-07
-1.7446474e-08
6.3219967e-07
-1.1942843e-08
6.2099132e-07
-2.6103578e-09
5.012891e-07
2.0260553e-07
2.0655422e-09
1.5620465e-07
1.1396207e-08
4.5069599e-07
1.9092231e-08
6.1519343e-07
2.1009961e-08
6.4819923e-07
2.0154087e-08
6.3287362e-07
1.8997289e-08
6.1749871e-07
1.7877191e-08
6.0853742e-07
1.6673275e-08
6.0268018e-07
1.5377176e-08
5.9819521e-07
1.402424e-08
5.9460747e-07
1.2643476e-08
5.9171441e-07
1.1254603e-08
5.8936786e-07
9.8706963e-09
5.8745793e-07
8.4999804e-09
5.8590367e-07
7.1470027e-09
5.8464466e-07
5.8135971e-09
5.8363539e-07
4.4996453e-09
5.828415e-07
3.2036675e-09
5.8223732e-07
1.9232847e-09
5.8180416e-07
6.5559174e-10
5.8152922e-07
-6.0252893e-10
5.8140478e-07
-1.854125e-09
5.8142787e-07
-3.101893e-09
5.8160013e-07
-4.347871e-09
5.8192792e-07
-5.5930718e-09
5.8242269e-07
-6.8370208e-09
5.8310175e-07
-8.0771663e-09
5.8398944e-07
-9.3081033e-09
5.8511885e-07
-1.0520549e-08
5.8653459e-07
-1.1700066e-08
5.8829683e-07
-1.2825247e-08
5.9048755e-07
-1.3865443e-08
5.9321974e-07
-1.4779643e-08
5.9664936e-07
-1.5535239e-08
6.0107578e-07
-1.6152987e-08
6.074601e-07
-1.6423387e-08
6.1798648e-07
-1.4823863e-08
6.3060016e-07
-8.9573886e-09
6.1512486e-07
-1.0219377e-09
4.9335367e-07
2.0158358e-07
1.1881499e-09
1.5589977e-07
8.8359477e-09
4.4454153e-07
1.6432686e-08
6.0822544e-07
1.9197384e-08
6.4550006e-07
1.9029102e-08
6.3300852e-07
1.826672e-08
6.1824842e-07
1.7412031e-08
6.0939063e-07
1.6408807e-08
6.0368352e-07
1.5261447e-08
5.9934266e-07
1.4014267e-08
5.9585471e-07
1.2705227e-08
5.9302349e-07
1.1361029e-08
5.907121e-07
1.0000191e-08
5.8881882e-07
8.6353243e-09
5.8726858e-07
7.274568e-09
5.8600546e-07
5.9227411e-09
5.8498726e-07
4.5822439e-09
5.8418204e-07
3.25376e-09
5.8356585e-07
1.9368127e-09
5.8312116e-07
6.3021769e-10
5.8283586e-07
-6.675329e-10
5.8270257e-07
-1.9579202e-09
5.827183e-07
-3.2420455e-09
5.828843e-07
-4.5202613e-09
5.8320618e-07
-5.791732e-09
5.8369421e-07
-7.0538933e-09
5.8436396e-07
-8.3017676e-09
5.8523735e-07
-9.5270768e-09
5.863442e-07
-1.0717057e-08
5.8772461e-07
-1.1852977e-08
5.894328e-07
-1.2908007e-08
5.9154262e-07
-1.3844487e-08
5.9415626e-07
-1.4613662e-08
5.9741857e-07
-1.5169835e-08
6.0163199e-07
-1.5485859e-08
6.0777616e-07
-1.5225741e-08
6.177264e-07
-1.2856397e-08
6.2823085e-07
-6.7408066e-09
6.090093e-07
-9.3309132e-11
4.8670619e-07
2.0149026e-07
6.6506668e-10
1.5606516e-07
6.9379243e-09
4.3989756e-07
1.445694e-08
6.0145453e-07
1.799513e-08
6.4205771e-07
1.8485526e-08
6.3248115e-07
1.807839e-08
6.1863832e-07
1.7431488e-08
6.1003485e-07
1.6573773e-08
6.0454128e-07
1.5529039e-08
6.0038753e-07
1.4350129e-08
5.9703369e-07
1.3082503e-08
5.9429118e-07
1.1758401e-08
5.9203626e-07
1.0400525e-08
5.9017675e-07
9.0247987e-09
5.8864436e-07
7.6420713e-09
5.8738824e-07
6.2594404e-09
5.8636994e-07
4.8812592e-09
5.8556028e-07
3.5099181e-09
5.8493724e-07
2.1464633e-09
5.8448466e-07
7.9110018e-10
5.8419127e-07
-5.563793e-10
5.8405011e-07
-1.896206e-09
5.8405818e-07
-3.2282368e-09
5.8421638e-07
-4.551551e-09
5.8452955e-07
-5.8639742e-09
5.8500668e-07
-7.1615011e-09
5.8566154e-07
-8.4375618e-09
5.8651347e-07
-9.682084e-09
5.8758878e-07
-1.0880214e-08
5.8892279e-07
-1.2010688e-08
5.9056332e-07
-1.3043513e-08
5.925755e-07
-1.3936707e-08
5.9504951e-07
-1.4636458e-08
5.9811838e-07
-1.5083296e-08
6.0207888e-07
-1.5185825e-08
6.0787874e-07
-1.447386e-08
6.1701448e-07
-1.1447608e-08
6.2520464e-07
-5.161779e-09
6.0272352e-07
3.8502024e-10
4.8115942e-07
2.0187527e-07
4.2383258e-10
1.5642301e-07
5.6205325e-09
4.3636364e-07
1.3076401e-08
5.9482311e-07
1.7335101e-08
6.3790875e-07
1.846915e-08
6.312972e-07
1.8386982e-08
6.1869529e-07
1.7898212e-08
6.1051934e-07
1.7138424e-08
6.0530118e-07
1.6158263e-08
6.0136791e-07
1.5018566e-08
5.9817347e-07
1.377036e-08
5.9553943e-07
1.2449824e-08
5.9335684e-07
1.1082561e-08
5.9154406e-07
9.6867483e-09
5.9004022e-07
8.2751075e-09
5.8879993e-07
6.8563574e-09
5.8778874e-07
5.4362908e-09
5.8698039e-07
4.0186011e-09
5.8635498e-07
2.6055305e-09
5.8589778e-07
1.1983962e-09
5.8559845e-07
-2.0196192e-10
5.8545051e-07
-1.5947766e-09
5.8545104e-07
-2.9789391e-09
5.8560059e-07
-4.3525826e-09
5.8590323e-07
-5.7126021e-09
5.8636674e-07
-7.0540745e-09
5.8700305e-07
-8.3695194e-09
5.8782896e-07
-9.6479586e-09
5.8886726e-07
-1.0873617e-08
5.9014849e-07
-1.2024187e-08
5.9171394e-07
-1.306845e-08
5.9361981e-07
-1.3962567e-08
5.9594367e-07
-1.4649503e-08
5.9880536e-07
-1.5054891e-08
6.0248432e-07
-1.50127e-08
6.078366e-07
-1.3920975e-08
6.1592281e-07
-1.0372855e-08
6.2165658e-07
-4.0694802e-09
5.9642018e-07
4.6322552e-10
4.7662672e-07
2.0233849e-07
3.9677473e-10
1.5677081e-07
4.761597e-09
4.3360328e-07
1.2076276e-08
5.8835365e-07
1.6955381e-08
6.33133e-07
1.8705689e-08
6.2947522e-07
1.8933634e-08
6.1843105e-07
1.8577821e-08
6.1086889e-07
1.7891715e-08
6.0598756e-07
1.6959646e-08
6.0230031e-07
1.5850031e-08
5.9928315e-07
1.4617514e-08
5.9677197e-07
1.3300827e-08
5.9467355e-07
1.1927447e-08
5.9291746e-07
1.0516999e-08
5.9145069e-07
9.0834615e-09
5.9023348e-07
7.6367081e-09
5.8923551e-07
6.1836216e-09
5.8843349e-07
4.7289342e-09
5.8780968e-07
3.2758831e-09
5.8735085e-07
1.8267384e-09
5.8704761e-07
3.8325163e-10
5.8689401e-07
-1.0529378e-09
5.8688724e-07
-2.4798937e-09
5.8702756e-07
-3.8949682e-09
5.8731832e-07
-5.2943371e-09
5.8776613e-07
-6.6724346e-09
5.8838116e-07
-8.0212397e-09
5.8917778e-07
-9.3293569e-09
5.9017539e-07
-1.0580749e-08
5.913999e-07
-1.1752922e-08
5.9288613e-07
-1.2814536e-08
5.9468144e-07
-1.3721439e-08
5.9685059e-07
-1.4413979e-08
5.9949792e-07
-1.4801832e-08
6.0287219e-07
-1.4647568e-08
6.0768236e-07
-1.3247796e-08
6.1452307e-07
-9.3615825e-09
6.177704e-07
-3.2709557e-09
5.9032958e-07
3.5355085e-10
4.7300221e-07
2.0269203e-07
4.930255e-10
1.5699935e-07
4.2098454e-09
4.3138063e-07
1.1193121e-08
5.8218897e-07
1.6494957e-08
6.2791469e-07
1.8789155e-08
6.2708577e-07
1.9323445e-08
6.1784898e-07
1.9107842e-08
6.1107612e-07
1.8503649e-08
6.0659222e-07
1.7631973e-08
6.0317244e-07
1.6568674e-08
6.0034651e-07
1.5370653e-08
5.9796997e-07
1.4078364e-08
5.9596582e-07
1.2720611e-08
5.9427519e-07
1.1318084e-08
5.928532e-07
9.8857493e-09
5.916658e-07
8.4344513e-09
5.9068679e-07
6.9720363e-09
5.8989589e-07
5.5041969e-09
5.892775e-07
4.0351209e-09
5.888199e-07
2.5680126e-09
5.885147e-07
1.1055348e-09
5.8835646e-07
-3.4979005e-10
5.8834254e-07
-1.795185e-09
5.8847293e-07
-3.2272117e-09
5.8875033e-07
-4.6413187e-09
5.8918021e-07
-6.0313054e-09
5.8977113e-07
-7.3886354e-09
5.9053509e-07
-8.7015418e-09
5.9148828e-07
-9.9538044e-09
5.9265214e-07
-1.1122892e-08
5.940552e-07
-1.2177501e-08
5.9573603e-07
-1.3073548e-08
5.9774663e-07
-1.3748568e-08
6.0017292e-07
-1.4096904e-08
6.0322052e-07
-1.3829414e-08
6.0741486e-07
-1.2202618e-08
6.1289626e-07
-8.2127323e-09
6.1378051e-07
-2.6202586e-09
5.847371e-07
1.9610186e-10
4.7018582e-07
2.0288813e-07
6.2498112e-10
1.5708485e-07
3.8223027e-09
4.295621e-07
1.0221617e-08
5.7655796e-07
1.5651614e-08
6.2254894e-07
1.8353504e-08
6.2427324e-07
1.9185105e-08
6.1696176e-07
1.9140613e-08
6.111106e-07
1.8654144e-08
6.0707924e-07
1.7879584e-08
6.0394755e-07
1.6899811e-08
6.0132632e-07
1.5773384e-08
5.9909635e-07
1.4542197e-08
5.9719695e-07
1.3236294e-08
5.9558104e-07
1.1877451e-08
5.9421199e-07
1.048168e-08
5.9306152e-07
9.0608595e-09
5.9210756e-07
7.623874e-09
5.9133282e-07
6.177456e-09
5.9072387e-07
4.7268285e-09
5.9027048e-07
3.2762215e-09
5.8996525e-07
1.8293081e-09
5.8980333e-07
3.8960071e-10
5.897822e-07
-1.0391638e-09
5.8990165e-07
-2.4526203e-09
5.9016373e-07
-3.8453436e-09
5.9057289e-07
-5.210321e-09
5.9113606e-07
-6.5382922e-09
5.9186301e-07
-7.8168687e-09
5.9276681e-07
-9.0293445e-09
5.9386457e-07
-1.0152838e-08
5.9517864e-07
-1.115571e-08
5.9673885e-07
-1.1993659e-08
5.9858453e-07
-1.2601518e-08
6.0078073e-07
-1.2862436e-08
6.0348139e-07
-1.2467716e-08
6.070201e-07
-1.0711306e-08
6.1113981e-07
-6.8723789e-09
6.0994154e-07
-2.0418302e-09
5.7990651e-07
6.9435496e-11
4.6807452e-07
2.0295756e-07
7.3533351e-10
1.5705667e-07
3.4991879e-09
4.28088e-07
9.0883541e-09
5.7168831e-07
1.4310656e-08
6.1738501e-07
1.7228876e-08
6.2124448e-07
1.8324154e-08
6.1580971e-07
1.8482537e-08
6.1094157e-07
1.8158737e-08
6.0740351e-07
1.7527198e-08
6.0457965e-07
1.6676049e-08
6.021775e-07
1.5665113e-08
6.0010721e-07
1.45376e-08
5.9832439e-07
1.3324869e-08
5.9679371e-07
1.2049963e-08
5.9548683e-07
1.0730133e-08
5.9438128e-07
9.3784687e-09
5.9345916e-07
8.0050562e-09
5.9270617e-07
6.6178121e-09
5.9211105e-07
5.2231281e-09
5.916651e-07
3.8263871e-09
5.9136193e-07
2.4323994e-09
5.9119725e-07
1.0457985e-09
5.9116874e-07
-3.2857841e-10
5.9127596e-07
-1.6852881e-09
5.9152038e-07
-3.0178507e-09
5.9190539e-07
-4.3182337e-09
5.9243638e-07
-5.5762056e-09
5.9312092e-07
-6.7784681e-09
5.9396901e-07
-7.9074904e-09
5.9499353e-07
-8.9397182e-09
5.9621081e-07
-9.8429254e-09
5.97642e-07
-1.0572518e-08
5.9931406e-07
-1.1062093e-08
6.0127025e-07
-1.1191492e-08
6.0361072e-07
-1.0667526e-08
6.0649607e-07
-8.8905491e-09
6.0936277e-07
-5.4259466e-09
6.0647688e-07
-1.517626e-09
5.7599814e-07
-9.0549826e-12
4.6656592e-07
2.0294851e-07
7.9761998e-10
1.5696637e-07
3.1946664e-09
4.2692681e-07
7.8519698e-09
5.6771755e-07
1.2571604e-08
6.12736e-07
1.5494598e-08
6.1822717e-07
1.6786246e-08
6.1446716e-07
1.7156271e-08
6.1056151e-07
1.7026394e-08
6.0753366e-07
1.6573898e-08
6.0503264e-07
1.5888335e-08
6.0286309e-07
1.5029797e-08
6.0096568e-07
1.4042297e-08
5.9931183e-07
1.2958332e-08
5.9787761e-07
1.1802229e-08
5.9664287e-07
1.0592556e-08
5.955909e-07
9.3437171e-09
5.9470794e-07
8.067097e-09
5.9398273e-07
6.7718887e-09
5.934062e-07
5.465737e-09
5.9297119e-07
4.1552553e-09
5.9267236e-07
2.8464653e-09
5.9250599e-07
1.545195e-09
5.9246995e-07
2.5745837e-10
5.9256364e-07
-1.0101423e-09
5.9278793e-07
-2.2499843e-09
5.9314517e-07
-3.4529181e-09
5.9363926e-07
-4.6076368e-09
5.9427558e-07
-5.6998378e-09
5.9506115e-07
-6.7111004e-09
5.9600473e-07
-7.6172454e-09
5.9711689e-07
-8.3858023e-09
5.984105e-07
-8.9726731e-09
5.9990087e-07
-9.3131762e-09
6.0161069e-07
-9.2936001e-09
6.0359108e-07
-8.6640626e-09
6.0586647e-07
-6.9716114e-09
6.0767026e-07
-4.0288195e-09
6.0353403e-07
-1.0589976e-09
5.7302827e-07
-3.679824e-11
4.6554371e-07
2.0291171e-07
8.127354e-10
1.5686155e-07
2.9067353e-09
4.2604244e-07
6.6431266e-09
5.6465153e-07
1.0672596e-08
6.0880298e-07
1.3413219e-08
6.1541908e-07
1.4807948e-08
6.130321e-07
1.5363783e-08
6.099972e-07
1.5429988e-08
6.074675e-07
1.5168766e-08
6.0529424e-07
1.4665702e-08
6.0336619e-07
1.3979143e-08
6.016522e-07
1.3152705e-08
6.0013822e-07
1.2219335e-08
5.9881094e-07
1.1204264e-08
5.976579e-07
1.0127162e-08
5.9666796e-07
9.0036222e-09
5.9583144e-07
7.8462487e-09
5.9514007e-07
6.6654572e-09
5.9458695e-07
5.4701043e-09
5.9416651e-07
4.2679985e-09
5.9387442e-07
3.0663379e-09
5.9370761e-07
1.8721074e-09
5.9366414e-07
6.9245725e-10
5.9374325e-07
-4.6490293e-10
5.9394525e-07
-1.5912749e-09
5.9427151e-07
-2.6764829e-09
5.9472443e-07
-3.7082767e-09
5.9530733e-07
-4.6715555e-09
5.9602439e-07
-5.5473408e-09
5.9688048e-07
-6.3113722e-09
5.9788088e-07
-6.9319276e-09
5.9903101e-07
-7.3670444e-09
6.0033594e-07
-7.5574152e-09
6.0180102e-07
-7.4044906e-09
6.0343811e-07
-6.7162964e-09
6.0517822e-07
-5.191788e-09
6.061457e-07
-2.8244986e-09
6.0116669e-07
-6.8575335e-10
5.708895e-07
-2.3368115e-11
4.6488132e-07
2.0288835e-07
7.9726777e-10
1.5677196e-07
2.6540038e-09
4.2538428e-07
5.5887421e-09
5.6238102e-07
8.8712857e-09
6.0564691e-07
1.1300697e-08
6.129517e-07
1.2699132e-08
6.1160534e-07
1.3385567e-08
6.0930431e-07
1.3619317e-08
6.0723362e-07
1.3534518e-08
6.0537929e-07
1.3207292e-08
6.0369345e-07
1.2691561e-08
6.021679e-07
1.2028795e-08
6.0080096e-07
1.1251233e-08
5.9958848e-07
1.0384225e-08
5.9852488e-07
9.4479981e-09
5.9760416e-07
8.4589467e-09
5.9682047e-07
7.4306026e-09
5.9616839e-07
6.3743745e-09
5.9564316e-07
5.3001389e-09
5.9524072e-07
4.2167298e-09
5.9495781e-07
3.1323622e-09
5.9479196e-07
2.0550182e-09
5.9474147e-07
9.9281527e-10
5.9480544e-07
-4.5617716e-11
5.9498366e-07
-1.0507298e-09
5.952766e-07
-2.0115931e-09
5.9568527e-07
-2.9153649e-09
5.9621108e-07
-3.746613e-09
5.9685562e-07
-4.4864481e-09
5.9762029e-07
-5.1114226e-09
5.9850584e-07
-5.5918954e-09
5.9951146e-07
-5.8899898e-09
6.0063401e-07
-5.954946e-09
6.0186595e-07
-5.708717e-09
6.0319186e-07
-5.0184636e-09
6.0448794e-07
-3.7126815e-09
6.0483989e-07
-1.8928589e-09
5.9934684e-07
-4.1142919e-10
5.6940805e-07
4.6634916e-12
4.6446523e-07
2.0289302e-07
7.705858e-10
1.5670793e-07
2.4533107e-09
4.2489449e-07
4.7607617e-09
5.6073436e-07
7.3496471e-09
6.0321028e-07
9.4090265e-09
6.1088001e-07
1.0727015e-08
6.1026971e-07
1.1475953e-08
6.0855087e-07
1.1828328e-08
6.0688103e-07
1.1884657e-08
6.0532311e-07
1.1707627e-08
6.0387051e-07
1.1344203e-08
6.0253132e-07
1.08319e-08
6.0131325e-07
1.0200901e-08
6.0021947e-07
9.4756686e-09
5.9925011e-07
8.6762331e-09
5.9840359e-07
7.8192124e-09
5.9767748e-07
6.9186112e-09
5.9706898e-07
5.9864596e-09
5.965753e-07
5.0333395e-09
5.9619384e-07
4.068831e-09
5.9592232e-07
3.1019052e-09
5.9575888e-07
2.1412845e-09
5.9570208e-07
1.1957879e-09
5.9575093e-07
2.7467573e-10
5.9590477e-07
-6.1197768e-10
5.9616325e-07
-1.4528815e-09
5.9652617e-07
-2.2350743e-09
5.9699327e-07
-2.9433846e-09
5.9756392e-07
-3.5597706e-09
5.9823667e-07
-4.0625555e-09
5.9900861e-07
-4.4254096e-09
5.9987431e-07
-4.616124e-09
6.0082472e-07
-4.5942946e-09
6.0184411e-07
-4.3035495e-09
6.0290111e-07
-3.6618261e-09
6.0384621e-07
-2.5913299e-09
6.0376938e-07
-1.2386233e-09
5.9799413e-07
-2.3074131e-10
5.6840017e-07
2.753009e-11
4.6420697e-07
2.0292055e-07
7.4638106e-10
1.5666664e-07
2.3084101e-09
4.245205e-07
4.1650914e-09
5.5953377e-07
6.1781157e-09
6.013668e-07
7.8692432e-09
6.0919521e-07
9.0512872e-09
6.0907808e-07
9.7996394e-09
6.0779959e-07
1.0216338e-08
6.064641e-07
1.0369619e-08
6.051699e-07
1.0307187e-08
6.0393296e-07
1.0067444e-08
6.0277107e-07
9.6825746e-09