/*--------------------------------*- C++ -*----------------------------------*\
  =========                 |
  \\      /  F ield         | OpenFOAM: The Open Source CFD Toolbox
   \\    /   O peration     | Website:  https://openfoam.org
    \\  /    A nd           | Version:  10
     \\/     M anipulation  |
\*---------------------------------------------------------------------------*/
FoamFile
{
    format      ascii;
    class       volScalarField;
    location    "0.04";
    object      TporMedia_0;
}
// * * * * * * * * * * * * * * * * * * * * * * * * * * * * * * * * * * * * * //

dimensions      [0 0 0 1 0 0 0];

internalField   nonuniform List<scalar> 
4000
(
-1.8286596e-07
9.4695886e-08
-6.4255843e-06
-9.3969288e-06
-2.1330592e-05
-1.7076603e-05
-1.6677932e-05
-1.6503242e-05
-1.626342e-05
-1.5878522e-05
-1.573883e-05
-1.5718964e-05
-1.5707472e-05
-1.5560318e-05
-1.5329854e-05
-1.5375568e-05
-1.5172634e-05
-1.531605e-05
-1.5243907e-05
-1.5198267e-05
-1.5236568e-05
-1.5204995e-05
-1.5152862e-05
-1.5115963e-05
-1.5225734e-05
-1.5208512e-05
-1.5287314e-05
-1.5447561e-05
-1.5520912e-05
-1.5567905e-05
-1.568692e-05
-1.6087856e-05
-1.6293461e-05
-1.6489018e-05
-1.6963665e-05
-1.7284682e-05
-1.7720212e-05
-1.8212193e-05
-1.8646161e-05
-1.9480487e-05
-1.6063238e-08
4.4329746e-18
-1.0794402e-15
3.8042298e-14
2.3086372e-13
5.0486705e-13
4.4770246e-13
4.3472129e-13
4.253202e-13
4.1334995e-13
4.0330542e-13
4.0018064e-13
3.9001549e-13
3.8874054e-13
3.7946204e-13
3.7684161e-13
3.7760639e-13
3.8173667e-13
3.709275e-13
3.7260522e-13
3.7175278e-13
3.6906298e-13
3.7326513e-13
3.7203441e-13
3.7494657e-13
3.7431565e-13
3.821491e-13
3.8334766e-13
3.9210296e-13
3.9342986e-13
3.9328162e-13
4.1508828e-13
4.3173586e-13
4.382897e-13
4.6208313e-13
4.7797722e-13
5.0677836e-13
5.3225946e-13
5.6316057e-13
6.0761978e-13
-6.1424822e-09
-8.1632272e-19
-4.8264916e-26
2.6849236e-23
-5.3767363e-22
-7.9145113e-21
-1.2379269e-20
-1.1112189e-20
-1.0821205e-20
-1.0441197e-20
-9.9003183e-21
-9.8124162e-21
-9.4236023e-21
-9.3759728e-21
-9.1145246e-21
-9.058896e-21
-8.9938076e-21
-9.110815e-21
-8.8589577e-21
-8.869556e-21
-8.81396e-21
-8.7126957e-21
-8.8245064e-21
-8.873945e-21
-8.9084818e-21
-8.9459333e-21
-9.1425174e-21
-9.2833974e-21
-9.4164204e-21
-9.5885696e-21
-9.8479634e-21
-1.0306078e-20
-1.1025452e-20
-1.1337451e-20
-1.2090074e-20
-1.2838468e-20
-1.4170707e-20
-1.4982246e-20
-1.677745e-20
-1.8799147e-20
-3.0169543e-09
6.0345439e-20
1.315644e-30
2.9422049e-33
6.6906454e-31
3.2260327e-29
3.2317123e-28
2.8731323e-28
2.6232407e-28
2.5014172e-28
2.343372e-28
2.3057277e-28
2.2174722e-28
2.1837175e-28
2.0903758e-28
2.0624805e-28
2.0520295e-28
2.1081804e-28
2.01614e-28
2.0382124e-28
1.9916242e-28
1.9758165e-28
2.0190675e-28
1.9961693e-28
2.0574183e-28
2.0514881e-28
2.1172098e-28
2.1522086e-28
2.1933649e-28
2.2604806e-28
2.3218991e-28
2.4905381e-28
2.6627866e-28
2.7549793e-28
3.0708399e-28
3.3517726e-28
3.7892639e-28
4.1358901e-28
4.9131412e-28
5.6071241e-28
-1.7157235e-09
9.5400032e-21
1.4802945e-31
5.4821001e-42
1.1683237e-38
-4.3896028e-38
-3.9725244e-36
-7.995839e-36
-6.1843066e-36
-5.7909818e-36
-5.3610841e-36
-5.1487356e-36
-4.9921019e-36
-4.9413421e-36
-4.6430568e-36
-4.5863778e-36
-4.5573578e-36
-4.6808142e-36
-4.479475e-36
-4.4918259e-36
-4.3937008e-36
-4.3618009e-36
-4.4311446e-36
-4.4707029e-36
-4.5702714e-36
-4.5177054e-36
-4.6829484e-36
-4.8087484e-36
-4.8827547e-36
-5.1603113e-36
-5.2565851e-36
-5.7776826e-36
-6.166069e-36
-6.5686385e-36
-7.4988963e-36
-8.2687312e-36
-9.7306921e-36
-1.1154817e-35
-1.3582411e-35
-1.5798371e-35
-1.0830674e-09
2.6961811e-21
4.5084674e-32
7.6292418e-43
2.5428105e-48
2.8701391e-47
1.5877393e-44
2.3284866e-43
1.4982821e-43
1.3107719e-43
1.2004388e-43
1.1406996e-43
1.1008975e-43
1.0831472e-43
1.015907e-43
9.9107575e-44
9.8027026e-44
1.0124571e-43
9.6957646e-44
9.7429775e-44
9.5797117e-44
9.3396763e-44
9.5353179e-44
9.6710922e-44
9.849045e-44
9.7157898e-44
1.0191255e-43
1.0433034e-43
1.0714993e-43
1.1354908e-43
1.1638984e-43
1.3023213e-43
1.3979172e-43
1.5268059e-43
1.7626128e-43
2.0035913e-43
2.4117663e-43
2.9059237e-43
3.5704658e-43
4.0912676e-43
-7.4136704e-10
1.0160667e-21
1.0262375e-31
1.010236e-42
6.3768161e-53
-1.3045107e-56
-2.4433559e-53
-4.7883598e-51
-3.955048e-51
-2.8486292e-51
-2.565447e-51
-2.4152089e-51
-2.3692708e-51
-2.3050452e-51
-2.122742e-51
-2.0813585e-51
-2.0542993e-51
-2.1206633e-51
-2.0052398e-51
-2.0510153e-51
-1.968445e-51
-1.9445976e-51
-1.9882537e-51
-2.004315e-51
-2.0447995e-51
-2.0393896e-51
-2.1394703e-51
-2.1971676e-51
-2.2106697e-51
-2.402383e-51
-2.4660314e-51
-2.833921e-51
-3.0237957e-51
-3.372553e-51
-3.9990046e-51
-4.6963875e-51
-5.8731438e-51
-7.3408089e-51
-8.9740923e-51
-1.1790894e-50
-5.1458908e-10
4.3313056e-22
-3.9517227e-33
-2.6704997e-44
-7.3001022e-55
4.2669818e-64
1.8434729e-62
4.0162408e-59
1.0974859e-58
5.7030357e-59
4.9441013e-59
4.5947474e-59
4.5116987e-59
4.407102e-59
3.9909144e-59
3.9153735e-59
3.8426569e-59
3.9665404e-59
3.7424227e-59
3.8466564e-59
3.6580203e-59
3.6166139e-59
3.6534853e-59
3.7155247e-59
3.8112713e-59
3.7954125e-59
3.9515263e-59
4.1218909e-59
4.1619171e-59
4.4881414e-59
4.628988e-59
5.4349417e-59
5.8636474e-59
6.6288364e-59
8.0880991e-59
9.897359e-59
1.3134593e-58
1.671552e-58
2.1648726e-58
3.6598475e-58
-3.2373573e-10
1.746939e-22
-5.3975738e-34
-2.8323454e-45
-4.0823675e-56
-3.0995916e-65
-8.2222012e-72
-1.3310565e-67
-2.5969481e-66
-1.0054101e-66
-8.0284541e-67
-7.3252422e-67
-7.2704718e-67
-7.0331686e-67
-6.3414878e-67
-6.2680921e-67
-6.0922283e-67
-6.2554594e-67
-5.995946e-67
-6.0915207e-67
-5.8175558e-67
-5.765273e-67
-5.7696098e-67
-5.9513058e-67
-6.0551888e-67
-6.0320434e-67
-6.280179e-67
-6.5676592e-67
-6.654598e-67
-7.1971307e-67
-7.5056127e-67
-8.7897884e-67
-9.6649336e-67
-1.0914546e-66
-1.3749271e-66
-1.744166e-66
-2.4353668e-66
-3.2812807e-66
-4.3553583e-66
-5.0877228e-66
-1.9010878e-10
6.6504049e-23
-1.0112222e-34
-4.4751483e-46
-3.8130712e-57
-4.4213359e-67
1.339251e-76
2.0100218e-76
4.6907559e-74
1.8311744e-74
1.2605907e-74
1.1389692e-74
1.1327096e-74
1.1128625e-74
1.0032861e-74
9.7959898e-75
9.4975497e-75
9.7604364e-75
9.4492144e-75
9.532021e-75
9.1422477e-75
9.0178682e-75
9.0526049e-75
9.3008912e-75
9.403858e-75
9.4063935e-75
9.7660082e-75
1.0203997e-74
1.0303465e-74
1.1177725e-74
1.1550755e-74
1.3672143e-74
1.4889405e-74
1.6937687e-74
2.1361652e-74
2.7583831e-74
3.8694417e-74
5.3925515e-74
6.5427898e-74
3.3720537e-74
-1.2011855e-10
2.7837742e-23
-2.4400341e-35
-9.7132268e-47
-5.3199734e-58
-2.4610654e-68
5.6837337e-78
-1.6626159e-85
-6.4543563e-82
-7.4075654e-82
-3.1137242e-82
-2.7450555e-82
-2.751725e-82
-2.7133472e-82
-2.4686879e-82
-2.3996475e-82
-2.3669248e-82
-2.4353537e-82
-2.3404933e-82
-2.3668702e-82
-2.2779375e-82
-2.2360991e-82
-2.2040635e-82
-2.243659e-82
-2.2623178e-82
-2.2699789e-82
-2.3206667e-82
-2.3486797e-82
-2.3895594e-82
-2.5443944e-82
-2.5887675e-82
-2.998476e-82
-3.1715998e-82
-3.5350567e-82
-4.3386334e-82
-5.237018e-82
-6.7004714e-82
-8.6719987e-82
-8.2589812e-82
-1.9111691e-82
-8.7871519e-11
1.409867e-23
-7.7864187e-36
-3.1266123e-47
-1.204454e-58
-2.9648021e-69
6.1652011e-79
-3.1083282e-88
6.0847764e-90
-2.8153107e-89
-8.6156636e-89
-8.7103675e-88
-6.5898174e-87
1.827978e-87
-5.8022142e-88
-9.9410252e-88
-4.3033884e-88
-1.885113e-87
6.397626e-88
8.8812856e-88
3.1758543e-88
1.2568283e-88
1.3024089e-88
1.4189414e-88
7.8211164e-89
7.0719874e-89
5.7242157e-89
5.4623502e-89
4.5927158e-89
3.7290188e-89
3.8544638e-89
3.5751966e-89
3.1406364e-89
3.0762665e-89
3.3573772e-89
3.0103548e-89
2.4917012e-89
1.8997241e-89
1.0992818e-89
2.1555522e-90
-7.4185821e-11
8.6879e-24
-3.20395e-36
-1.795243e-47
-5.4424713e-59
-8.5513337e-70
2.2635479e-79
-8.6126984e-89
4.1916403e-97
-5.6912552e-97
-3.7801248e-96
-5.6865236e-95
-4.7554442e-94
1.3507134e-94
-4.7309165e-95
-8.6267324e-95
-3.8832055e-95
-1.8509649e-94
6.8226376e-95
9.7532924e-95
3.6338783e-95
1.5196607e-95
1.7248135e-95
2.0675268e-95
1.1332298e-95
1.1461766e-95
9.6989202e-96
1.0776675e-95
7.5465259e-96
7.252797e-96
7.0244164e-96
5.5277779e-96
4.2019583e-96
3.40937e-96
3.0011006e-96
2.0529423e-96
2.834069e-96
-8.8666332e-97
-1.5511557e-97
4.0693098e-98
-6.9873486e-11
6.2885901e-24
-1.62316e-36
2.0357794e-46
5.5199411e-58
6.3617229e-69
-2.8479133e-77
1.0265018e-86
-2.8492122e-95
8.981078e-103
7.4908897e-104
9.5745526e-103
7.5538848e-102
-2.0623737e-102
6.9636565e-103
1.2483496e-102
5.5104814e-103
2.5986628e-102
-9.4391198e-103
-1.3386393e-102
-4.9166291e-103
-2.0657058e-103
-2.3370007e-103
-2.7983984e-103
-1.5349562e-103
-1.5694551e-103
-1.3453308e-103
-1.5088623e-103
-1.0821018e-103
-1.076237e-103
-1.0819191e-103
-9.0374528e-104
-7.6183883e-104
-7.154393e-104
-8.4342118e-104
-1.1619254e-103
-6.3086958e-103
2.2743321e-104
1.4351984e-105
2.7228939e-106
-7.0604657e-11
5.1452693e-24
-9.7742097e-37
3.0407426e-48
8.2570122e-60
7.6125589e-71
1.2021159e-80
-5.489078e-90
8.8926575e-99
-3.513731e-107
-3.1299673e-112
-3.8877428e-111
-3.0187182e-110
8.1228714e-111
-2.7209429e-111
-4.8522812e-111
-2.1358541e-111
-1.005592e-110
3.6438321e-111
5.1625149e-111
1.9000435e-111
7.9963783e-112
9.0702131e-112
1.0885953e-111
5.9911656e-112
6.1733514e-112
5.3292665e-112
6.0429412e-112
4.394398e-112
4.4454805e-112
4.5453834e-112
3.9186267e-112
3.4390207e-112
3.4260188e-112
4.4698027e-112
7.4273424e-112
5.1297409e-111
-1.5767618e-112
-7.4511674e-114
1.6618822e-114
-7.4050425e-11
4.6333382e-24
-6.8855739e-37
9.8181246e-49
2.7479992e-60
2.0256191e-71
1.2756766e-81
-1.0882739e-90
1.1235398e-99
-2.047254e-108
4.3021723e-117
8.2434278e-120
6.3722018e-119
-1.7085344e-119
5.7222162e-120
1.02134e-119
4.5006787e-120
2.1244796e-119
-7.7081285e-120
-1.0959466e-119
-4.0412428e-120
-1.7050969e-120
-1.9421791e-120
-2.3356467e-120
-1.2915529e-120
-1.3369017e-120
-1.1603359e-120
-1.3205563e-120
-9.6743476e-121
-9.8750607e-121
-1.0206937e-120
-8.912055e-121
-7.9658126e-121
-8.1466141e-121
-1.111541e-120
-2.0034261e-120
-1.5451186e-119
4.8671723e-121
2.7987618e-122
1.2933315e-122
-7.8759303e-11
4.5178417e-24
-5.6427901e-37
5.5011415e-49
1.3902804e-60
7.5374015e-72
2.6242147e-82
-4.680122e-91
3.1445474e-100
-3.9949698e-109
6.4737256e-118
-1.0949552e-126
-1.0684702e-127
2.8810641e-128
-9.7062161e-129
-1.7421122e-128
-7.7286102e-129
-3.6653351e-128
1.3347732e-128
1.9068842e-128
7.0514867e-129
2.9920783e-129
3.4194289e-129
4.1244085e-129
2.2875335e-129
2.3748198e-129
2.0636489e-129
2.3551408e-129
1.7246601e-129
1.7619853e-129
1.8219633e-129
1.59152e-129
1.4228241e-129
1.4591389e-129
2.0040848e-129
3.6661969e-129
2.9401666e-128
-1.0278012e-129
-1.135364e-130
1.3841542e-130
-8.3674031e-11
4.7019621e-24
-5.3288948e-37
4.5372272e-49
8.4955581e-61
3.1497122e-72
6.8816465e-83
-5.9455876e-92
2.5552771e-101
-2.9810178e-110
5.5412903e-119
-1.0842212e-127
4.2557522e-136
-5.7789367e-137
1.9756072e-137
3.5931708e-137
1.6128773e-137
7.7225526e-137
-2.8376041e-137
-4.0863324e-137
-1.5197435e-137
-6.4811104e-138
-7.4246921e-138
-8.9833496e-138
-4.9864098e-138
-5.1720981e-138
-4.4843918e-138
-5.1005045e-138
-3.7093612e-138
-3.7584748e-138
-3.828134e-138
-3.2990575e-138
-2.885524e-138
-2.889963e-138
-3.8381778e-138
-6.7233742e-138
-5.2837755e-137
2.2127868e-138
1.1423864e-138
1.8445126e-138
-8.7843668e-11
5.1156924e-24
-5.6552909e-37
5.1126373e-49
6.6660519e-61
1.7162161e-72
2.5593251e-83
-8.644308e-93
2.4461783e-102
-3.233155e-111
1.4452593e-119
-7.1323069e-128
3.5507188e-136
-1.5524655e-144
-1.0790424e-145
-2.0468307e-145
-9.4726582e-146
-4.6820912e-145
1.7600328e-145
2.5835055e-145
9.7552477e-146
4.1899739e-146
4.8291144e-146
5.8416925e-146
3.2164142e-146
3.3026109e-146
2.8121665e-146
3.1086306e-146
2.1906959e-146
2.1224295e-146
2.0501196e-146
1.6513315e-146
1.337578e-146
1.2193252e-146
1.4360898e-146
2.1409561e-146
1.5036032e-145
-8.9151171e-147
1.0012679e-146
2.8564445e-146
-9.0645789e-11
5.6685019e-24
-6.4703142e-37
7.2382806e-49
7.1001355e-61
1.3884128e-72
1.5500405e-83
-3.1212428e-93
6.4098665e-103
-1.1141115e-111
-5.3916986e-120
-2.5345717e-128
-1.2459998e-136
-5.9568003e-145
-3.2648197e-153
-9.2897541e-154
-4.2316873e-154
-2.0628308e-153
7.6887727e-154
1.1226686e-153
4.2230133e-154
1.8118134e-154
2.0869271e-154
2.5324651e-154
1.4058149e-154
1.4581597e-154
1.2625342e-154
1.4258246e-154
1.0292357e-154
1.0354584e-154
1.0439134e-154
8.958161e-155
7.8968697e-155
8.1339287e-155
1.1886503e-154
2.9068205e-154
5.5574601e-153
-9.4690598e-155
3.4514732e-155
5.8255051e-154
-9.2059277e-11
6.2386922e-24
-7.5872225e-37
1.103515e-48
9.3194624e-61
1.5656218e-72
1.4604745e-83
-2.4886093e-93
4.2645923e-103
-1.0143678e-111
-1.7611938e-120
-3.105954e-129
-5.7169741e-138
-1.0552744e-146
-1.9431446e-155
-1.7455391e-162
-7.7861603e-163
-3.7990165e-162
1.4183923e-162
2.0729793e-162
7.8109539e-163
3.3569383e-163
3.8747809e-163
4.7178347e-163
2.6264836e-163
2.7307068e-163
2.3768491e-163
2.6904645e-163
1.953323e-163
1.9795283e-163
2.0105292e-163
1.7435436e-163
1.5567532e-163
1.6311581e-163
2.4524532e-163
6.3806633e-163
1.349774e-161
-2.363435e-163
9.8411112e-164
2.3305173e-161
-9.2491707e-11
6.7006485e-24
-8.7015851e-37
1.3927797e-48
1.1773062e-60
1.9379268e-72
1.701649e-83
-3.3712214e-93
5.6183487e-103
-1.6340812e-111
-2.1814454e-120
-2.9619146e-129
-4.228603e-138
-6.1081309e-147
-8.8864214e-156
-1.3023085e-164
-1.1655826e-171
-5.6270256e-171
2.1086685e-171
3.0953589e-171
1.1703713e-171
5.0407971e-172
5.8343545e-172
7.1086936e-172
3.9646729e-172
4.1226328e-172
3.5881565e-172
4.054453e-172
2.9390276e-172
2.9733664e-172
3.0087059e-172
2.5983567e-172
2.3038981e-172
2.3971623e-172
3.5781398e-172
9.3727556e-172
2.1032734e-170
-4.3312984e-172
3.3669983e-172
-1.4424011e-167
-9.2471875e-11
6.9913936e-24
-9.5151296e-37
1.2588697e-48
1.2471552e-60
2.2890603e-72
2.1304689e-83
-7.2969863e-93
1.3770332e-102
-4.1554367e-111
-5.9231384e-120
-8.5287963e-129
-1.3010177e-137
-2.0273699e-146
-3.2009483e-155
-5.1036716e-164
-8.2235683e-173
-9.2793299e-180
3.4535308e-180
5.0938397e-180
1.9354965e-180
8.3711904e-181
9.7065451e-181
1.1830892e-180
6.5962497e-181
6.8383438e-181
5.9324641e-181
6.6766777e-181
4.8053969e-181
4.8157726e-181
4.8179811e-181
4.0997692e-181
3.5698696e-181
3.6279074e-181
5.2710693e-181
1.3574762e-180
3.214159e-179
-8.6286029e-181
2.007035e-180
6.1157748e-175
-9.2392474e-11
7.1368352e-24
-9.9474664e-37
9.6373232e-49
1.3345633e-60
3.0921309e-72
3.4112425e-83
-6.9999056e-92
1.7299799e-101
-5.0500049e-110
-1.0024902e-118
-1.9728287e-127
-4.1690639e-136
-9.0600557e-145
-2.0076203e-153
-4.5246962e-162
-1.0335234e-170
-2.3897665e-179
-4.7813353e-188
1.1989313e-188
4.587345e-189
1.9915359e-189
2.3137953e-189
2.8174972e-189
1.5694216e-189
1.6198938e-189
1.3940961e-189
1.5551106e-189
1.103849e-189
1.0909289e-189
1.0691798e-189
8.8828023e-190
7.5027789e-190
7.3497098e-190
1.021772e-189
2.5536504e-189
6.4634921e-188
-2.5781762e-189
4.821854e-188
-1.6662603e-182
-9.2424487e-11
7.2051851e-24
-1.0135668e-36
7.4881054e-49
1.8428506e-60
6.0779013e-72
8.795106e-83
6.393584e-92
-2.3764895e-101
6.9296138e-110
2.6069714e-118
9.3383178e-127
3.6699246e-135
1.5021892e-143
6.3368891e-152
2.7378505e-160
1.2080264e-168
5.4384124e-177
2.4876979e-185
1.1675038e-193
2.128489e-197
9.3204375e-198
1.0827304e-197
1.3145972e-197
7.290863e-198
7.4966073e-198
6.3614026e-198
6.9829234e-198
4.8515042e-198
4.6781213e-198
4.4388701e-198
3.5477274e-198
2.8606968e-198
2.653302e-198
3.456954e-198
8.3139285e-198
2.3507859e-196
-1.8354449e-197
-1.0565593e-195
4.0114302e-190
-9.2570641e-11
7.250665e-24
-1.0252679e-36
6.2919313e-49
4.7765419e-60
2.5310817e-71
5.2475976e-82
2.2617759e-91
-1.4457079e-100
4.6288965e-109
6.411782e-117
7.1047065e-125
9.2796271e-133
1.3229267e-140
2.0130598e-148
3.2411981e-156
5.4982938e-164
9.6768729e-172
1.7498705e-179
3.2468779e-187
6.1463903e-195
1.1515206e-202
2.0527915e-205
2.4799024e-205
1.3604355e-205
1.3549275e-205
1.1357826e-205
1.1977648e-205
7.8629924e-206
7.1402951e-206
6.3660442e-206
4.6598456e-206
3.4220725e-206
2.840062e-206
3.3369822e-206
7.6668363e-206
2.8971125e-204
2.0119146e-204
1.2071709e-203
-9.6870856e-198
-9.2762725e-11
7.2956944e-24
-1.0390256e-36
5.7261435e-49
-8.4585778e-60
-8.2370252e-71
-2.6293557e-81
-1.0636292e-90
1.3441343e-99
-5.2421058e-108
1.3262296e-115
-5.8766996e-123
2.0546409e-130
-6.5602915e-138
1.971825e-145
-5.6548685e-153
1.5825219e-160
-4.371674e-168
1.1744309e-175
-3.0826557e-183
8.2468004e-191
-2.1831827e-198
5.7663952e-206
-8.0250461e-213
-3.6196759e-213
-3.6365793e-213
-3.1718242e-213
-3.4309284e-213
-2.3102668e-213
-2.2127246e-213
-2.1075488e-213
-1.655403e-213
-1.4020319e-213
-1.3954677e-213
-2.155293e-213
-4.3559197e-213
-7.4021653e-212
-2.2656754e-212
-1.2791974e-211
2.5245896e-205
-9.2936856e-11
7.3413065e-24
-1.0559692e-36
5.5319938e-49
-2.8949535e-60
-6.2346535e-71
-3.2195291e-81
-1.485968e-90
4.3828239e-99
-2.3154961e-107
2.9148125e-115
-4.3758485e-123
6.4942874e-131
-9.5992815e-139
1.3963458e-146
-2.0443903e-154
2.9847076e-162
-4.3301475e-170
6.3734965e-178
-9.3309325e-186
1.3644151e-193
-2.0028245e-201
2.9371246e-209
-4.2978681e-217
5.3362035e-221
5.3039848e-221
4.6747223e-221
5.0345521e-221
3.381076e-221
3.2515349e-221
3.1103513e-221
2.4724097e-221
2.108386e-221
2.1228255e-221
3.2401862e-221
6.1860393e-221
8.3805031e-220
2.0098562e-220
1.5042152e-219
-6.9095396e-213
-9.3064095e-11
7.3820858e-24
-1.073564e-36
5.5381622e-49
-2.1599393e-60
-1.571724e-70
-1.3363148e-80
-7.7824156e-90
6.9819746e-98
-5.5143043e-106
7.1784841e-114
-1.070791e-121
1.6029637e-129
-2.4151417e-137
3.6982224e-145
-5.6967803e-153
8.8538488e-161
-1.3718832e-168
2.1419607e-176
-3.3424143e-184
5.2274366e-192
-8.1236972e-200
1.2722152e-207
-1.982386e-215
3.0892985e-223
-8.3130874e-229
-7.2108358e-229
-7.7323323e-229
-5.1737236e-229
-4.9128547e-229
-4.7096177e-229
-3.7070123e-229
-3.1143882e-229
-3.1101294e-229
-4.6194176e-229
-8.0738023e-229
-9.1690008e-228
-1.9014877e-228
-2.1078422e-227
2.0469531e-220
-9.3146026e-11
7.4145912e-24
-1.0892008e-36
5.6315667e-49
-1.9696001e-60
5.5190469e-70
7.5611475e-80
5.7901444e-89
-3.9344636e-96
4.9836702e-104
-8.6601064e-112
1.690241e-119
-3.345873e-127
6.654141e-135
-1.3359701e-142
2.7346741e-150
-5.5811554e-158
1.1493234e-165
-2.3859801e-173
4.9618163e-181
-1.0367513e-188
2.1962897e-196
-4.5948112e-204
9.4171987e-212
-1.9545027e-219
4.0319822e-227
-8.0384593e-235
1.5542044e-236
1.0369715e-236
9.7356714e-237
9.1076657e-237
7.1200362e-237
5.8767364e-237
5.7071952e-237
8.1522001e-237
1.2850868e-236
1.2032488e-235
2.0874588e-236
3.5638666e-235
-6.211669e-228
-9.3197663e-11
7.4389726e-24
-1.1017076e-36
5.7428778e-49
-1.9296756e-60
1.5593923e-70
3.2629995e-80
3.2596522e-89
1.7223873e-96
-3.5196611e-104
8.8346308e-112
-2.4342299e-119
6.8224762e-127
-1.935374e-134
5.705769e-142
-1.6309528e-149
4.7670593e-157
-1.3664689e-164
4.0344493e-172
-1.1829489e-179
3.4970985e-187
-1.016837e-194
2.9945661e-202
-8.7718235e-210
2.5459207e-217
-7.4068354e-225
2.0879889e-232
-5.825466e-240
-2.877433e-244
-2.7185836e-244
-2.4579303e-244
-1.9081201e-244
-1.5454676e-244
-1.4838708e-244
-1.982161e-244
-2.7467124e-244
-1.9619905e-243
-2.6877474e-244
-7.2946672e-243
1.9826102e-235
-9.3233552e-11
7.4573035e-24
-1.1112387e-36
5.8387147e-49
-1.9304359e-60
1.1247257e-70
3.3936236e-80
4.2745312e-89
1.7015373e-96
-5.0194984e-104
1.7569151e-111
-6.5023223e-119
2.467323e-126
-9.3360972e-134
3.5023702e-141
-1.3359266e-148
5.0451784e-156
-1.953767e-163
7.3487521e-171
-2.8061989e-178
1.0860668e-185
-4.1960241e-193
1.6398767e-200
-6.1469684e-208
2.3515746e-215
-8.5413001e-223
3.1198664e-230
-1.1419428e-237
4.1513777e-245
8.4014831e-252
8.7319076e-252
6.6936497e-252
5.405499e-252
4.9655299e-252
6.3261388e-252
7.4565976e-252
3.8068837e-251
3.758075e-252
1.7240805e-250
-6.4414161e-243
-9.3262491e-11
7.4717486e-24
-1.1185428e-36
5.9108862e-49
-1.9340334e-60
9.5208453e-71
4.0179681e-80
6.1034549e-89
2.3803748e-96
-8.5382093e-104
3.498027e-111
-1.4742189e-118
6.2028259e-126
-2.7216706e-133
1.1609006e-140
-4.9923342e-148
2.183566e-155
-9.1037872e-163
3.9377975e-170
-1.7189737e-177
7.3809598e-185
-3.1290299e-192
1.3289448e-199
-5.4513837e-207
2.2908195e-214
-9.4302611e-222
3.8834413e-229
-1.6203489e-236
6.6758434e-244
-2.6920438e-251
7.4312364e-259
-2.6363082e-259
-2.1112489e-259
-1.9212146e-259
-2.3069219e-259
-2.2882069e-259
-8.071893e-259
-5.4591023e-260
-4.7035127e-258
2.1120028e-250
-9.3288021e-11
7.4837367e-24
-1.1243612e-36
5.9635798e-49
-1.9315719e-60
8.4647105e-71
5.0770558e-80
9.0064595e-89
3.9501566e-96
-1.5378009e-103
6.4849641e-111
-2.8459725e-118
1.2345736e-125
-5.4519167e-133
2.3411515e-140
-1.0253205e-147
4.4969323e-155
-1.9619173e-162
8.5909317e-170
-3.7667438e-177
1.6254527e-184
-6.895362e-192
2.94045e-199
-1.2627125e-206
5.4022088e-214
-2.2678683e-221
9.4682398e-229
-3.8786866e-236
1.5941949e-243
-6.3412003e-251
2.6144063e-258
-9.6407814e-266
8.3854238e-267
7.5410888e-267
8.722154e-267
7.2865953e-267
1.7471979e-266
8.0075312e-268
1.4222017e-265
-7.1547411e-258
-9.331087e-11
7.4939733e-24
-1.1291882e-36
6.0036697e-49
-1.9249051e-60
7.7053918e-71
7.0267142e-80
1.4305121e-88
6.462459e-96
-2.5769443e-103
1.08286e-110
-4.6850238e-118
2.0100701e-125
-8.5237235e-133
3.6679088e-140
-1.5548435e-147
6.6674395e-155
-2.7858888e-162
1.2218953e-169
-5.1856847e-177
2.1958042e-184
-9.3207267e-192
4.0573543e-199
-1.6819493e-206
7.0061228e-214
-2.8458296e-221
1.1585401e-228
-4.7257885e-236
1.9408442e-243
-7.9482324e-251
3.1745299e-258
-1.2680866e-265
4.775013e-273
-2.961457e-274
-3.2948067e-274
-2.3087873e-274
-3.7825689e-274
-1.1730674e-275
-4.6269412e-273
2.4375847e-265
-9.333094e-11
7.5027644e-24
-1.1332882e-36
6.0362752e-49
-1.917515e-60
7.1427459e-71
1.1578044e-79
2.6797476e-88
1.2633883e-95
-5.3193598e-103
2.1969136e-110
-9.3741641e-118
3.993586e-125
-1.6666382e-132
7.2527601e-140
-2.9953896e-147
1.2272155e-154
-5.1778939e-162
2.1727122e-169
-8.9754125e-177
3.7179888e-184
-1.514967e-191
6.276712e-199
-2.559446e-206
1.0744496e-213
-4.3625195e-221
1.7871411e-228
-7.3517761e-236
2.922606e-243
-1.1670879e-250
4.6182783e-258
-1.8273081e-265
7.1474617e-273
-2.7333506e-280
1.2552332e-281
7.2766435e-282
8.2839513e-282
1.7284509e-283
1.6071631e-280
-8.7139838e-273
-9.3348179e-11
7.5102744e-24
-1.1367935e-36
6.0641095e-49
-1.9114355e-60
6.7274073e-71
3.1500771e-79
8.251739e-88
3.8982036e-95
-1.6379865e-102
6.7960332e-110
-2.8745414e-117
1.2162924e-124
-5.1822676e-132
2.2192152e-139
-9.2959812e-147
3.9304545e-154
-1.6543958e-161
7.1114856e-169
-3.049829e-176
1.3079994e-183
-5.5481486e-191
2.2824701e-198
-9.6601496e-206
3.9183663e-213
-1.6493068e-220
6.843088e-228
-2.7677296e-235
1.1519568e-242
-4.6227634e-250
1.8579784e-257
-7.4168064e-265
2.9671428e-272
-1.1759062e-279
4.4081018e-287
-2.2894952e-289
-1.7951262e-289
-2.560481e-291
-5.7168855e-288
3.1353543e-280
-9.3362826e-11
7.5166569e-24
-1.1397864e-36
6.0883173e-49
-1.9071446e-60
6.4211104e-71
-5.2896623e-79
-1.55386e-87
-7.712544e-95
3.4245199e-102
-1.5066398e-109
6.6574404e-117
-2.88289e-124
1.2593922e-131
-5.3461078e-139
2.2709617e-146
-9.7033148e-154
4.1770607e-161
-1.7703411e-168
7.5201347e-176
-3.2528574e-183
1.3670326e-190
-5.8609428e-198
2.4253201e-205
-1.0245744e-212
4.2949709e-220
-1.7581663e-227
7.2718356e-235
-2.9736646e-242
1.2333702e-249
-5.0113712e-257
2.0581389e-264
-8.3590544e-272
3.2957239e-279
-1.2723687e-286
4.087381e-294
3.934222e-297
3.8278684e-299
2.143525e-295
-1.1802456e-287
-9.3375213e-11
7.5220704e-24
-1.1423354e-36
6.1093696e-49
-1.9043541e-60
6.1925984e-71
-1.558188e-79
-5.1348788e-88
-2.5896027e-95
1.228284e-102
-5.4982633e-110
2.414947e-117
-1.0508374e-124
4.6224779e-132
-2.0919753e-139
9.3264407e-147
-4.1475564e-154
1.8118144e-161
-7.8701635e-169
3.3535776e-176
-1.4734345e-183
6.4445444e-191
-2.7709538e-198
1.2080935e-205
-5.1541064e-213
2.2248438e-220
-9.2242349e-228
3.9751414e-235
-1.6688991e-242
6.8945966e-250
-2.8927615e-257
1.2193636e-264
-5.036137e-272
2.0654326e-279
-8.0682447e-287
2.6427202e-294
-5.9490441e-302
-5.7865279e-307
-8.0824165e-303
4.4296496e-295
-9.3385732e-11
7.52667e-24
-1.1445059e-36
6.1275804e-49
-1.9025796e-60
6.0186142e-71
-9.6187113e-80
-3.5218661e-88
-1.8577538e-95
9.1964364e-103
-4.0844619e-110
1.8535029e-117
-8.3356413e-125
3.798644e-132
-1.7218926e-139
7.6285584e-147
-3.3937175e-154
1.5392995e-161
-6.9658776e-169
3.1363115e-176
-1.3939705e-183
6.0344868e-191
-2.6082277e-198
1.1523887e-205
-4.9603856e-213
2.1381385e-220
-9.2910102e-228
4.0079277e-235
-1.7262132e-242
7.3886292e-250
-3.1795438e-257
1.3293096e-264
-5.6564399e-272
2.4098366e-279
-9.419098e-287
3.150834e-294
-7.1733715e-302
1.090806e-309
3.0883529e-310
-1.6948303e-302
-9.3394688e-11
7.5305889e-24
-1.146357e-36
6.1432731e-49
-1.9014469e-60
5.883222e-71
-7.2185238e-80
-2.9142826e-88
-1.6139087e-95
8.090945e-103
-3.7093737e-110
1.7000832e-117
-7.9145575e-125
3.6320085e-132
-1.6956671e-139
7.9472962e-147
-3.5929911e-154
1.6134745e-161
-7.2029469e-169
3.281467e-176
-1.4837293e-183
6.6966817e-191
-2.9463399e-198
1.3096366e-205
-5.870732e-213
2.6146335e-220
-1.155191e-227
5.0065245e-235
-2.2122368e-242
9.5864479e-250
-4.2476352e-257
1.894241e-264
-8.4336331e-272
3.6409305e-279
-1.470875e-286
5.0779459e-294
-1.1628555e-301
1.8006681e-309
1.2621399e-313
6.7182648e-310
-9.3402331e-11
7.5339389e-24
-1.1479406e-36
6.1567798e-49
-1.9007021e-60
5.7756466e-71
-5.930497e-80
-2.6214712e-88
-1.4194817e-95
7.4888554e-103
-3.5487555e-110
1.6836315e-117
-7.8698392e-125
3.6727858e-132
-1.70645e-139
7.9583398e-147
-3.7820356e-154
1.7861968e-161
-8.1295303e-169
3.6874495e-176
-1.6739128e-183
7.7606487e-191
-3.5984558e-198
1.6680712e-205
-7.6403086e-213
3.4492053e-220
-1.5345894e-227
7.0656655e-235
-3.1274742e-242
1.3911342e-249
-6.2208521e-257
2.772587e-264
-1.2164226e-271
5.2833598e-279
-2.2167598e-286
7.7301648e-294
-1.798365e-301
2.7994083e-309
-1.3425258e-313
-9.4881763e-313
-9.3408875e-11
7.5368104e-24
-1.1492988e-36
6.1684268e-49
-1.9002102e-60
5.6886027e-71
-5.1413295e-80
-2.482035e-88
-1.3823745e-95
7.2199933e-103
-3.5351882e-110
1.7360188e-117
-8.2050308e-125
3.8393498e-132
-1.8426028e-139
8.8441587e-147
-4.1750628e-154
2.0291636e-161
-9.5116406e-169
4.4962965e-176
-2.1337218e-183
9.9388717e-191
-4.6403544e-198
2.1521614e-205
-1.0128537e-212
4.5707008e-220
-2.1587001e-227
9.6686483e-235
-4.3520057e-242
1.9659579e-249
-8.7727376e-257
4.0146336e-264
-1.8011871e-271
8.1847228e-279
-3.4555802e-286
1.2228927e-293
-2.8576049e-301
4.455834e-309
2.413508e-313
-2.5581204e-313
-9.3414496e-11
7.5392788e-24
-1.1504676e-36
6.178495e-49
-1.8999038e-60
5.6176735e-71
-4.6072796e-80
-2.4010459e-88
-1.3652716e-95
7.6530539e-103
-3.8533395e-110
1.9005671e-117
-9.6545894e-125
4.7170945e-132
-2.2944753e-139
1.1018114e-146
-5.4374651e-154
2.5576231e-161
-1.2216307e-168
5.8936678e-176
-2.8156289e-183
1.3456323e-190
-6.4090289e-198
3.0510353e-205
-1.4344811e-212
6.8291342e-220
-3.2590512e-227
1.5333107e-234
-7.1239178e-242
3.3696693e-249
-1.6001822e-256
7.4377246e-264
-3.4246809e-271
1.566137e-278
-6.7437695e-286
2.4505966e-293
-5.8623601e-301
9.1857566e-309
-1.0947048e-313
-7.4858016e-314
-9.3419298e-11
7.541402e-24
-1.1514752e-36
6.1872109e-49
-1.8997221e-60
5.5588815e-71
-4.2284081e-80
-2.3617397e-88
-1.3689418e-95
7.8922157e-103
-3.9808792e-110
2.033435e-117
-1.0019675e-124
4.9150697e-132
-2.483704e-139
1.2553603e-146
-6.391057e-154
3.1864246e-161
-1.5429781e-168
7.5038168e-176
-3.7134912e-183
1.8372498e-190
-9.239848e-198
4.5116641e-205
-2.167976e-212
1.0363699e-219
-5.0205789e-227
2.4609499e-234
-1.1787886e-241
5.6960779e-249
-2.6768191e-256
1.2931724e-263
-5.9619297e-271
2.7214455e-278
-1.2177472e-285
4.5660594e-293
-1.0947246e-300
1.7402602e-308
-4.4697599e-314
1.1450092e-313
-9.3423425e-11
7.5432334e-24
-1.1523457e-36
6.1947808e-49
-1.8996416e-60
5.5101492e-71
-3.9476097e-80
-2.3596052e-88
-1.4341779e-95
8.4833039e-103
-4.5068305e-110
2.3470945e-117
-1.2025533e-124
6.1805966e-132
-3.1374761e-139
1.6059434e-146
-8.2512542e-154
4.2590918e-161
-2.1534917e-168
1.0998936e-175
-5.5376371e-183
2.7992573e-190
-1.4312121e-197
6.9645663e-205
-3.4390009e-212
1.6864447e-219
-8.2606633e-227
4.1249545e-234
-2.0184262e-241
9.8172964e-249
-4.8683554e-256
2.3204883e-263
-1.1105557e-270
5.2265608e-278
-2.3971316e-285
8.8946151e-293
-2.1754152e-300
3.4821292e-308
-4.1266151e-313
-3.8761689e-313
-9.3426978e-11
7.5448167e-24
-1.1530998e-36
6.2013692e-49
-1.899628e-60
5.4694309e-71
-3.7290132e-80
-2.3537187e-88
-1.4492147e-95
9.0098385e-103
-4.7266518e-110
2.465505e-117
-1.3012153e-124
6.8473009e-132
-3.5998219e-139
1.887652e-146
-9.9345808e-154
5.158912e-161
-2.6393517e-168
1.3338906e-175
-6.8789251e-183
3.5536971e-190
-1.8145375e-197
9.3411484e-205
-4.7964642e-212
2.415048e-219
-1.1968306e-226
5.955642e-234
-2.9839301e-241
1.4772543e-248
-7.262263e-256
3.7527416e-263
-1.8586228e-270
9.2768642e-278
-4.2455528e-285
1.6349103e-292
-4.0119187e-300
6.4877561e-308
-2.0793157e-313
4.37457e-313
-9.3430039e-11
7.5461872e-24
-1.1537542e-36
6.2071098e-49
-1.8996668e-60
5.4350752e-71
-3.561447e-80
-2.3812308e-88
-1.4193548e-95
8.7253618e-103
-4.9328243e-110
2.7320413e-117
-1.5073409e-124
8.3207781e-132
-4.4429358e-139
2.3714639e-146
-1.2576884e-153
6.8817123e-161
-3.6997e-168
1.953342e-175
-1.0287329e-182
5.4156784e-190
-2.8021474e-197
1.4602802e-204
-7.744175e-212
4.0304282e-219
-2.07844e-226
1.0826985e-233
-5.6176479e-241
2.8667016e-248
-1.467679e-255
7.4571405e-263
-3.6666437e-270
1.8271425e-277
-8.7894378e-285
3.3457294e-292
-8.3771719e-300
1.3696905e-307
-3.9890269e-313
4.513885e-313
-9.343266e-11
7.5473749e-24
-1.1543229e-36
6.2121237e-49
-1.8997354e-60
5.4060534e-71
-3.4253286e-80
-2.412026e-88
-1.4898459e-95
9.933908e-103
-5.5334836e-110
3.1092552e-117
-1.8004368e-124
1.0259704e-131
-5.6203647e-139
3.0324408e-146
-1.6701875e-153
9.051573e-161
-4.8743159e-168
2.6582063e-175
-1.4744429e-182
7.6743623e-190
-4.2454595e-197
2.3363638e-204
-1.2347277e-211
6.3981301e-219
-3.3708817e-226
1.7389802e-233
-9.1418333e-241
4.6909347e-248
-2.4376772e-255
1.274647e-262
-6.5413915e-270
3.4411522e-277
-1.6502957e-284
6.5483898e-292
-1.6775149e-299
2.737737e-307
-2.289367e-313
-5.1697002e-313
-9.343491e-11
7.5484058e-24
-1.1548183e-36
6.2165087e-49