/*--------------------------------*- C++ -*----------------------------------*\
  =========                 |
  \\      /  F ield         | OpenFOAM: The Open Source CFD Toolbox
   \\    /   O peration     | Website:  https://openfoam.org
    \\  /    A nd           | Version:  10
     \\/     M anipulation  |
\*---------------------------------------------------------------------------*/
FoamFile
{
    format      ascii;
    class       volScalarField;
    location    "0.04";
    object      TporMedia;
}
// * * * * * * * * * * * * * * * * * * * * * * * * * * * * * * * * * * * * * //

dimensions      [0 0 0 1 0 0 0];

internalField   nonuniform List<scalar> 
4000
(
-2.0289455e-07
1.0472717e-07
-6.8586077e-06
-9.9172226e-06
-2.2783296e-05
-1.7822465e-05
-1.7636247e-05
-1.7529065e-05
-1.7127019e-05
-1.7035591e-05
-1.6741921e-05
-1.6672979e-05
-1.6379815e-05
-1.6518327e-05
-1.6351116e-05
-1.6270831e-05
-1.6231269e-05
-1.6167688e-05
-1.6203276e-05
-1.6000396e-05
-1.6183724e-05
-1.6044844e-05
-1.6199498e-05
-1.611309e-05
-1.6202637e-05
-1.6118163e-05
-1.627619e-05
-1.6367504e-05
-1.6646646e-05
-1.664468e-05
-1.6779408e-05
-1.6960669e-05
-1.7174661e-05
-1.7566654e-05
-1.7863229e-05
-1.8496445e-05
-1.8651828e-05
-1.9250855e-05
-1.9769609e-05
-2.0537261e-05
-1.7698047e-08
5.4706846e-18
-1.2660687e-15
4.5099074e-14
2.6739484e-13
5.6024806e-13
4.9591428e-13
4.9161999e-13
4.7778918e-13
4.6750348e-13
4.5720129e-13
4.5548016e-13
4.3743383e-13
4.3598406e-13
4.3013204e-13
4.1869662e-13
4.262727e-13
4.2126926e-13
4.2231855e-13
4.1269454e-13
4.1431768e-13
4.07145e-13
4.1437461e-13
4.1317266e-13
4.2240271e-13
4.2164196e-13
4.2671788e-13
4.2839985e-13
4.4779528e-13
4.5078729e-13
4.5911863e-13
4.7004073e-13
4.7574432e-13
4.936364e-13
5.1823669e-13
5.5075788e-13
5.6707086e-13
5.971093e-13
6.4282225e-13
6.7951889e-13
-6.8309598e-09
-1.018445e-18
-6.2450484e-26
3.4748524e-23
-6.8008067e-22
-9.3818885e-21
-1.4587444e-20
-1.3417079e-20
-1.2878625e-20
-1.2549629e-20
-1.2042129e-20
-1.193503e-20
-1.1422326e-20
-1.118337e-20
-1.1117089e-20
-1.063892e-20
-1.0872212e-20
-1.0715353e-20
-1.0675672e-20
-1.0622184e-20
-1.0275136e-20
-1.0291744e-20
-1.0443012e-20
-1.0398335e-20
-1.062472e-20
-1.0690292e-20
-1.082485e-20
-1.09037e-20
-1.1609049e-20
-1.1802789e-20
-1.2049918e-20
-1.2511876e-20
-1.2797923e-20
-1.3646146e-20
-1.4463591e-20
-1.5968816e-20
-1.662893e-20
-1.8313162e-20
-2.0320854e-20
-2.1946957e-20
-3.3977578e-09
7.6814636e-20
1.8579685e-30
4.2221382e-33
9.1736369e-31
4.1518871e-29
4.055515e-28
3.6132261e-28
3.3435269e-28
3.1956424e-28
3.0647754e-28
3.0183602e-28
2.8361665e-28
2.7611778e-28
2.7263042e-28
2.5928854e-28
2.6413595e-28
2.6218564e-28
2.591931e-28
2.5559427e-28
2.4996888e-28
2.4653604e-28
2.5431794e-28
2.5242574e-28
2.544586e-28
2.5876179e-28
2.6713893e-28
2.6575688e-28
2.8783944e-28
2.9600083e-28
3.0511458e-28
3.171732e-28
3.2692471e-28
3.5924463e-28
3.9010799e-28
4.3765801e-28
4.7491052e-28
5.4094405e-28
6.2945189e-28
6.974069e-28
-1.9405533e-09
1.2136035e-20
2.1082042e-31
8.6906598e-42
2.4521509e-38
-6.1984739e-38
-5.4025668e-36
-1.0420247e-35
-8.2938824e-36
-7.9306064e-36
-7.3049809e-36
-7.3111108e-36
-6.7909816e-36
-6.5198795e-36
-6.4108088e-36
-6.1012103e-36
-6.2020534e-36
-6.1304365e-36
-6.0386091e-36
-5.9679476e-36
-5.8343833e-36
-5.7001947e-36
-5.9195659e-36
-5.8952372e-36
-5.9362296e-36
-6.0462362e-36
-6.2703268e-36
-6.2935859e-36
-6.8133009e-36
-7.1114255e-36
-7.4284966e-36
-7.732793e-36
-8.1045732e-36
-9.0641686e-36
-1.0021449e-35
-1.146877e-35
-1.2971364e-35
-1.5343592e-35
-1.9009795e-35
-2.099027e-35
-1.2217293e-09
3.3986546e-21
6.4905051e-32
1.2213694e-42
5.8404061e-48
4.4702499e-47
2.3407897e-44
3.1910419e-43
2.0982348e-43
1.8722579e-43
1.7311769e-43
1.7029666e-43
1.5998496e-43
1.4983372e-43
1.4783547e-43
1.401245e-43
1.4298181e-43
1.3850212e-43
1.3903371e-43
1.3584517e-43
1.3131106e-43
1.2909868e-43
1.3439035e-43
1.3397808e-43
1.3281269e-43
1.3789848e-43
1.4326301e-43
1.440595e-43
1.5491521e-43
1.649795e-43
1.7330923e-43
1.8300222e-43
1.943434e-43
2.1853446e-43
2.4760501e-43
2.9394598e-43
3.4082666e-43
4.1875312e-43
5.3987021e-43
5.7523363e-43
-8.3325607e-10
1.2713945e-21
1.9307727e-31
2.1037515e-42
1.4443256e-52
-2.2326429e-56
-3.8700412e-53
-6.9109121e-51
-5.8854246e-51
-4.3280125e-51
-4.0047027e-51
-3.867751e-51
-3.5867074e-51
-3.3981044e-51
-3.3292861e-51
-3.1101564e-51
-3.1668005e-51
-3.0837024e-51
-3.0712124e-51
-3.0337259e-51
-2.9381595e-51
-2.8621654e-51
-2.9626454e-51
-2.9544031e-51
-2.9244717e-51
-3.0843337e-51
-3.1829575e-51
-3.2207481e-51
-3.5018692e-51
-3.7306339e-51
-3.8988453e-51
-4.186935e-51
-4.5131315e-51
-5.1694522e-51
-5.9665398e-51
-7.2832864e-51
-8.7587801e-51
-1.1061791e-50
-1.4310567e-50
-1.6570861e-50
-5.8615626e-10
5.5136578e-22
-5.4878557e-33
-4.0850057e-44
-1.2151327e-54
7.6202645e-64
3.1073657e-62
6.2445758e-59
1.8546506e-58
9.5922844e-59
8.619266e-59
8.2124325e-59
7.6126031e-59
7.1072135e-59
6.9163967e-59
6.5293406e-59
6.5892052e-59
6.3536374e-59
6.3284496e-59
6.2072076e-59
5.9867862e-59
5.8782969e-59
6.0921931e-59
6.1196412e-59
5.9866538e-59
6.2784768e-59
6.5715176e-59
6.736177e-59
7.3301045e-59
7.8723095e-59
8.2120634e-59
8.9322513e-59
9.6727284e-59
1.1473284e-58
1.3428034e-58
1.7070138e-58
2.1152387e-58
2.7712185e-58
3.696806e-58
5.4951707e-58
-3.8133407e-10
2.3277429e-22
-7.9853099e-34
-4.6356921e-45
-7.3329082e-56
-6.6719076e-65
-1.4808864e-71
-2.2536705e-67
-5.1874677e-66
-1.8895907e-66
-1.5617775e-66
-1.4952466e-66
-1.3744955e-66
-1.254432e-66
-1.2369255e-66
-1.157692e-66
-1.1542076e-66
-1.1247942e-66
-1.1179128e-66
-1.1023837e-66
-1.0542193e-66
-1.0365313e-66
-1.0708256e-66
-1.0681025e-66
-1.0649992e-66
-1.1208992e-66
-1.1573704e-66
-1.1880326e-66
-1.3113946e-66
-1.4093233e-66
-1.4910292e-66
-1.6046541e-66
-1.7637195e-66
-2.1574501e-66
-2.5646868e-66
-3.3942174e-66
-4.463291e-66
-6.1365559e-66
-8.3685798e-66
-9.8231166e-66
-2.2717048e-10
9.0966177e-23
-1.5359195e-34
-7.6947085e-46
-7.2903102e-57
-9.3819754e-67
3.1130484e-76
3.7309668e-76
9.6513982e-74
3.4736855e-74
2.4956511e-74
2.337465e-74
2.1913883e-74
1.9801764e-74
1.9493048e-74
1.8250177e-74
1.8294249e-74
1.7734873e-74
1.7689813e-74
1.7452276e-74
1.6466781e-74
1.6248789e-74
1.6888809e-74
1.6735449e-74
1.672066e-74
1.7625636e-74
1.8029671e-74
1.8803124e-74
2.0636248e-74
2.2184775e-74
2.3588651e-74
2.5438503e-74
2.8207288e-74
3.4631185e-74
4.1898472e-74
5.6811237e-74
7.7086418e-74
1.1276789e-73
1.4084844e-73
7.802315e-74
-1.4115157e-10
3.7560456e-23
-3.6413534e-35
-1.7011486e-46
-1.0419343e-57
-5.2165735e-68
1.3620842e-77
-3.3691566e-85
-1.1330154e-81
-8.7885845e-82
-4.6414514e-82
-4.2294638e-82
-3.9740914e-82
-3.6272118e-82
-3.5901246e-82
-3.4157243e-82
-3.4097015e-82
-3.2859796e-82
-3.2617575e-82
-3.2461997e-82
-3.0596245e-82
-2.9925795e-82
-3.1080103e-82
-3.0610158e-82
-3.086144e-82
-3.1976584e-82
-3.295029e-82
-3.3969004e-82
-3.6815076e-82
-3.969827e-82
-4.2063768e-82
-4.4502424e-82
-4.8983701e-82
-5.9250513e-82
-7.134364e-82
-9.4219182e-82
-1.2409143e-81
-1.7894938e-81
-1.8547647e-81
-4.6268979e-82
-1.0018022e-10
1.837442e-23
-1.1209317e-35
-5.3956279e-47
-2.2922171e-58
-5.9394675e-69
1.4126804e-78
-7.4438204e-88
8.4097988e-90
-5.0370979e-88
2.5473768e-89
1.9370414e-89
1.9063347e-89
1.7348519e-89
1.7877948e-89
1.684397e-89
1.678359e-89
1.648548e-89
1.6313296e-89
1.5996382e-89
1.4762168e-89
1.40411e-89
1.4532859e-89
1.4025548e-89
1.4059434e-89
1.3707526e-89
1.4247813e-89
1.4361967e-89
1.5055572e-89
1.554495e-89
1.5515736e-89
1.6131451e-89
1.6930117e-89
1.9029307e-89
2.1527065e-89
2.5009792e-89
2.6925843e-89
3.1035627e-89
2.4125379e-89
4.1555487e-90
-8.2015367e-11
1.0903668e-23
-4.4566194e-36
-2.8869111e-47
-9.3136596e-59
-1.4918383e-69
4.3230524e-79
-1.6147082e-88
7.0256156e-97
-1.0787824e-95
1.2231173e-96
1.3009899e-96
1.3478442e-96
1.1899786e-96
1.2394553e-96
1.2628842e-96
1.2609371e-96
1.311035e-96
1.2939496e-96
1.3418871e-96
1.2554784e-96
1.2558319e-96
1.3133001e-96
1.3643629e-96
1.4902913e-96
1.4659306e-96
1.6212655e-96
1.8677203e-96
2.0458626e-96
2.3307483e-96
2.4361882e-96
3.099885e-96
3.6288202e-96
4.6477102e-96
6.7546688e-96
7.0913083e-95
-2.7636166e-96
-9.0391662e-97
-3.6779423e-97
2.0698215e-97
-7.5270403e-11
7.6262557e-24
-2.1900348e-36
-2.1035873e-46
-5.7922379e-58
-6.6273086e-69
9.8629587e-78
-3.1837095e-87
8.921559e-96
-6.7756559e-104
1.7161794e-103
-3.6784244e-103
-2.5899906e-103
-1.8131429e-103
-1.4517425e-103
-1.2453146e-103
-1.1882422e-103
-1.1230221e-103
-9.9929288e-104
-1.0483818e-103
-9.0791318e-104
-8.7935397e-104
-9.0343438e-104
-9.1676444e-104
-9.8699265e-104
-9.5449744e-104
-1.1165336e-103
-1.2420077e-103
-1.4330443e-103
-1.7820105e-103
-2.097556e-103
-3.199599e-103
-5.3611224e-103
-1.8359512e-102
1.6223745e-102
5.5699714e-102
-2.2369848e-103
4.0161684e-104
4.8569695e-105
1.623785e-105
-7.4575216e-11
6.0409251e-24
-1.2731711e-36
4.9524964e-48
1.3240671e-59
1.2149269e-70
2.5606023e-80
-9.3065859e-90
1.6893775e-98
-1.4644168e-106
-1.4991675e-111
2.9471713e-111
2.008418e-111
1.3619478e-111
1.0756595e-111
9.0989752e-112
8.5840997e-112
8.0400377e-112
7.1202232e-112
7.4401868e-112
6.410564e-112
6.245548e-112
6.408363e-112
6.5185613e-112
7.0614312e-112
6.8941652e-112
8.126466e-112
9.173034e-112
1.0795826e-111
1.3738891e-111
1.6714639e-111
2.6906712e-111
4.776426e-111
1.8199369e-110
-1.9149012e-110
-9.4287571e-110
5.7814448e-111
-5.5166202e-112
-3.5606124e-113
1.0217228e-113
-7.7155987e-11
5.2621348e-24
-8.5523704e-37
1.3575839e-48
3.8912223e-60
3.0276409e-71
2.3402791e-81
-1.4601243e-90
1.8447363e-99
-4.8902908e-108
1.4673525e-116
-8.7967826e-120
-5.9155285e-120
-3.9847547e-120
-3.130873e-120
-2.6376637e-120
-2.4847462e-120
-2.3241927e-120
-2.0548196e-120
-2.1526607e-120
-1.8586731e-120
-1.8173928e-120
-1.8654966e-120
-1.9091522e-120
-2.0774022e-120
-2.0348659e-120
-2.4194386e-120
-2.7535765e-120
-3.2789495e-120
-4.2273316e-120
-5.2453486e-120
-8.6189773e-120
-1.5813641e-119
-6.313297e-119
7.1780095e-119
4.0700877e-118
-2.9488971e-119
2.6209266e-120
1.5959301e-121
7.5961306e-122
-8.1414232e-11
4.9608043e-24
-6.6018999e-37
6.4643807e-49
1.9419081e-60
1.2267709e-71
5.0697615e-82
-2.2077138e-90
1.9553333e-99
-2.9373065e-108
5.3865402e-117
-1.0130898e-125
1.1131554e-128
7.5035289e-129
5.9085505e-129
4.982374e-129
4.7093315e-129
4.425038e-129
3.9189163e-129
4.1215232e-129
3.5677769e-129
3.5018908e-129
3.6069711e-129
3.702209e-129
4.0424778e-129
3.9794461e-129
4.7473927e-129
5.428014e-129
6.4895535e-129
8.4117297e-129
1.0504061e-128
1.7416461e-128
3.2315654e-128
1.3128541e-127
-1.540723e-127
-9.2403197e-127
7.2357021e-128
-6.8292641e-129
-6.2154734e-130
7.9500076e-130
-8.6313435e-11
5.0094442e-24
-5.8465855e-37
4.4771409e-49
1.1501785e-60
5.2871339e-72
1.3319459e-82
2.9815398e-91
-1.7307623e-100
2.0168218e-109
-3.3030791e-118
5.6921202e-127
-1.0089106e-135
-1.3163323e-137
-1.0458234e-137
-8.9009493e-138
-8.4689406e-138
-8.0073585e-138
-7.1459359e-138
-7.5530665e-138
-6.5650789e-138
-6.4695492e-138
-6.68548e-138
-6.8931832e-138
-7.5400592e-138
-7.4265646e-138
-8.8682271e-138
-1.0132884e-137
-1.2083465e-137
-1.5626785e-137
-1.9416701e-137
-3.2074801e-137
-5.9114503e-137
-2.383311e-136
2.7729571e-136
1.6559764e-135
-1.3200782e-136
1.4384994e-137
3.4713897e-138
1.0523651e-137
-9.0950336e-11
5.3378162e-24
-5.8627368e-37
4.2197474e-49
7.6279978e-61
2.4022367e-72
3.9559588e-83
-3.2922834e-91
1.1999344e-100
-1.342761e-109
3.0270335e-118
-7.4703622e-127
1.870028e-135
-4.742801e-144
2.7309485e-146
2.3689271e-146
2.2924252e-146
2.1999542e-146
1.9822466e-146
2.1167994e-146
1.8543806e-146
1.8391006e-146
1.9068363e-146
1.968835e-146
2.1531346e-146
2.1142628e-146
2.5100756e-146
2.8427413e-146
3.3444516e-146
4.2495241e-146
5.1729639e-146
8.3046392e-146
1.4801592e-145
5.7213262e-145
-6.3025481e-145
-3.4958852e-144
2.6780005e-145
-3.7543407e-146
-1.9445305e-143
1.5161333e-145
-9.4512339e-11
5.8647116e-24
-6.4543113e-37
5.0782938e-49
6.3903707e-61
1.4340385e-72
1.6630021e-83
-1.0809423e-92
2.6106945e-102
-3.2196178e-111
3.8950435e-119
-7.9243897e-127
1.577287e-134
-3.746259e-142
1.1012661e-149
-8.9728538e-154
-1.065898e-153
-1.3161371e-153
-1.4587074e-153
-1.9785999e-153
-2.1124257e-153
-2.1511831e-153
-2.4812985e-153
-2.4043589e-153
-2.1826926e-153
-1.7026259e-153
-1.6356336e-153
-1.4219707e-153
-1.2483556e-153
-1.2287039e-153
-1.1417438e-153
-1.4159466e-153
-1.9461285e-153
-5.8341021e-153
4.8539677e-153
1.9348907e-152
-1.2275434e-153
3.300211e-154
-9.8199312e-152
2.5103516e-153
-9.6666827e-11
6.4770173e-24
-7.4664676e-37
7.08897e-49
6.9268045e-61
1.2281355e-72
1.1062193e-83
-4.1040761e-93
7.4395245e-103
-1.0679786e-111
-3.2618688e-120
-9.2818796e-129
-2.7609354e-137
-8.1454233e-146
-2.3689126e-154
-3.265211e-162
-3.04772e-162
-3.7410481e-162
-4.1324583e-162
-5.6010853e-162
-5.9584783e-162
-6.0780599e-162
-7.0374289e-162
-6.8364681e-162
-6.2368653e-162
-4.89894e-162
-4.7499687e-162
-4.1703799e-162
-3.7198584e-162
-3.7325089e-162
-3.5530555e-162
-4.5601924e-162
-6.5297897e-162
-2.0751845e-161
1.8973381e-161
9.0635594e-161
-7.2515229e-162
1.5111918e-162
-3.0728146e-160
6.0775814e-161
-9.7604332e-11
7.036351e-24
-8.653307e-37
9.7761435e-49
8.5959982e-61
1.367375e-72
1.0734109e-83
-4.0917416e-93
6.4949745e-103
-1.0568997e-111
-1.6931961e-120
-2.6378134e-129
-4.3165053e-138
-7.1287575e-147
-1.1780316e-155
-1.95059e-164
-5.0884076e-171
-6.2243877e-171
-6.8846723e-171
-9.3647599e-171
-9.9821285e-171
-1.0200708e-170
-1.1842517e-170
-1.1526564e-170
-1.0532648e-170
-8.297739e-171
-8.0641029e-171
-7.0950751e-171
-6.3423588e-171
-6.3830743e-171
-6.1017036e-171
-7.8539864e-171
-1.1321997e-170
-3.6250268e-170
3.3595428e-170
1.6686453e-169
-1.4441735e-170
3.2680832e-171
-9.4847733e-169
3.8144027e-168
-9.7815711e-11
7.4374182e-24
-9.6914517e-37
1.1062382e-48
1.0242232e-60
1.6660659e-72
1.2858516e-83
-1.0599245e-92
1.7255178e-102
-3.0257902e-111
-4.2367416e-120
-5.7770858e-129
-8.3319508e-138
-1.2218744e-146
-1.8078349e-155
-2.6945794e-164
-4.0478041e-173
-9.4717498e-180
-1.0463124e-179
-1.430437e-179
-1.5301577e-179
-1.5686738e-179
-1.8244747e-179
-1.7797126e-179
-1.6261454e-179
-1.2803668e-179
-1.2427314e-179
-1.0896329e-179
-9.7058443e-180
-9.7271907e-180
-9.2295687e-180
-1.1782821e-179
-1.6803659e-179
-5.3106232e-179
4.8520942e-179
2.4103117e-178
-2.2111471e-179
6.1532816e-180
-4.0271337e-177
-3.6787896e-175
-9.7787586e-11
7.665144e-24
-1.0369933e-36
9.9475337e-49
1.1467053e-60
2.1667298e-72
1.8483817e-83
2.2169131e-92
-4.3156286e-102
8.0126851e-111
1.3127461e-119
2.0626277e-128
3.4566313e-137
5.9391957e-146
1.0378367e-154
1.8348758e-163
3.2843294e-172
5.9344804e-181
-1.797428e-188
-2.6224134e-188
-2.8173282e-188
-2.9021704e-188
-3.3797301e-188
-3.2969726e-188
-3.0115654e-188
-2.3629316e-188
-2.2848273e-188
-1.987773e-188
-1.7547987e-188
-1.736705e-188
-1.6241569e-188
-2.0395775e-188
-2.8408677e-188
-8.7289886e-188
7.7145497e-188
3.7639989e-187
-3.6753235e-188
1.408357e-188
-3.6275215e-185
1.3244364e-182
-9.7809244e-11
7.7777642e-24
-1.0719076e-36
8.1334774e-49
1.4293569e-60
3.5487465e-72
3.7311676e-83
1.4290029e-92
-3.8510838e-102
7.791066e-111
1.945921e-119
4.5088674e-128
1.1277935e-136
2.9290484e-145
7.7725887e-154
2.1018595e-162
5.7870904e-171
1.6126824e-179
4.5437248e-188
5.4844497e-197
-8.0591933e-197
-8.3477548e-197
-9.7247099e-197
-9.4773079e-197
-8.6346946e-197
-6.7370694e-197
-6.4734821e-197
-5.5451795e-197
-4.8410115e-197
-4.6939025e-197
-4.2893441e-197
-5.229838e-197
-7.035717e-197
-2.075294e-196
1.7401427e-196
8.266084e-196
-8.7871249e-197
5.4580469e-197
-1.1611439e-191
-3.6086155e-190
-9.7957812e-11
7.8432412e-24
-1.0905701e-36
6.7886635e-49
2.5506105e-60
9.404237e-72
1.3444178e-82
3.7648427e-92
-1.620877e-101
3.7791996e-110
2.0760624e-118
9.6972727e-127
5.0070916e-135
2.7338499e-143
1.5475186e-151
9.1425475e-160
5.9808231e-168
5.8971484e-176
1.3741293e-183
5.6277409e-191
2.7609792e-198
-3.9266938e-205
-6.2487948e-205
-6.0403992e-205
-5.476739e-205
-4.2212144e-205
-4.0018467e-205
-3.3527988e-205
-2.8593318e-205
-2.6969299e-205
-2.3599223e-205
-2.7530617e-205
-3.5011996e-205
-9.6583102e-205
7.5603831e-205
3.4728163e-204
-4.2972057e-205
6.6941801e-205
1.8348959e-199
9.3462944e-198
-9.8184694e-11
7.8999438e-24
-1.1067502e-36
6.0315623e-49
3.5114929e-59
2.1914361e-70
4.6401765e-81
1.262012e-90
-1.0058975e-99
2.9054157e-108
1.2947564e-115
2.5144057e-123
6.351112e-131
1.8428461e-138
5.9964599e-146
2.1211565e-153
8.1460796e-161
3.4255228e-168
1.499421e-175
6.8790832e-183
3.3966764e-190
1.6657584e-197
7.9998791e-205
9.4801028e-213
-2.6084956e-212
-1.912672e-212
-1.6903715e-212
-1.2874672e-212
-1.0332215e-212
-8.6223316e-213
-6.6670997e-213
-6.8435223e-213
-7.5210012e-213
-1.7873194e-212
1.2069133e-212
5.3775193e-212
-1.1533891e-212
-1.6881686e-212
-2.0613109e-207
-2.443767e-205
-9.8412075e-11
7.9567674e-24
-1.1254956e-36
5.6980973e-49
-3.6700254e-60
-4.5707824e-71
-1.5369958e-81
-4.7837743e-91
8.3911961e-100
-3.2618855e-108
5.4238062e-116
-1.4223104e-123
3.3888043e-131
-7.6396955e-139
1.6671424e-146
-3.5547306e-154
7.4975621e-162
-1.5797968e-169
3.2601696e-177
-6.7715383e-185
1.3946764e-192
-2.8287267e-200
5.8087328e-208
-1.1898456e-215
5.384228e-220
3.999182e-220
3.5761608e-220
2.7419187e-220
2.2408231e-220
1.9393101e-220
1.5311418e-220
1.6482958e-220
1.9262152e-220
5.0204425e-220
-3.6145735e-220
-1.4739027e-219
2.0023662e-220
1.723183e-220
2.3104751e-215
7.0221898e-213
-9.8590099e-11
8.0090904e-24
-1.1457771e-36
5.624439e-49
-2.1872254e-60
-7.3337254e-71
-4.1079852e-81
-1.620157e-90
8.1902751e-99
-4.651156e-107
5.7030735e-115
-8.6269804e-123
1.2975393e-130
-1.930344e-138
2.8789721e-146
-4.3083657e-154
6.4874248e-162
-9.6864508e-170
1.4557824e-177
-2.1800349e-185
3.275494e-193
-4.9760998e-201
7.4868477e-209
-1.1372224e-216
1.7036954e-224
-5.9561999e-228
-5.4019312e-228
-4.1267116e-228
-3.3527473e-228
-2.9205461e-228
-2.2789901e-228
-2.4584354e-228
-2.8723605e-228
-7.5341604e-228
5.3888438e-228
2.0396357e-227
-2.2230117e-228
-1.5860526e-228
-2.8904636e-223
-2.1177386e-220
-9.8708305e-11
8.0516737e-24
-1.1647628e-36
5.6868526e-49
-1.8440055e-60
-1.352985e-69
-1.2840825e-79
-6.7853275e-89
2.4915313e-96
-2.2466581e-104
3.1459942e-112
-5.0998897e-120
8.5002258e-128
-1.4045863e-135
2.3766476e-143
-3.9999486e-151
6.7679638e-159
-1.1703113e-166
2.0085359e-174
-3.4939342e-182
6.0912693e-190
-1.0625403e-197
1.858854e-205
-3.2381048e-213
5.6160877e-221
-9.6364312e-229
1.0795618e-235
7.0789939e-236
5.6636957e-236
4.855516e-236
3.7677193e-236
3.9847103e-236
4.6582413e-236
1.1922083e-235
-8.234266e-236
-2.8554173e-235
2.5859049e-236
1.6037608e-236
4.0917957e-231
6.6832283e-228
-9.8780552e-11
8.0834112e-24
-1.1805062e-36
5.7996659e-49
-1.7566497e-60
1.3129129e-70
2.0712974e-80
1.4820723e-89
4.1969826e-97
-6.2610968e-105
1.2305185e-112
-2.6883415e-120
6.0207371e-128
-1.3655058e-135
3.1610123e-143
-7.3307608e-151
1.7180831e-158
-4.0245296e-166
9.4340583e-174
-2.2509495e-181
5.3389207e-189
-1.2737473e-196
3.0107566e-204
-7.1369798e-212
1.669768e-219
-3.9088256e-227
9.0881201e-235
-2.2793991e-242
-1.274712e-243
-1.1008384e-243
-8.4115346e-244
-8.6175987e-244
-9.9120845e-244
-2.5015189e-243
1.6397467e-243
5.025499e-243
-3.6768792e-244
-1.8971839e-244
-6.2294532e-239
-2.1983155e-235
-9.8826329e-11
8.1064641e-24
-1.1926271e-36
5.9123173e-49
-1.7483347e-60
8.3839725e-71
2.1046767e-80
1.988406e-89
3.9831346e-97
-9.6118283e-105
2.7117117e-112
-8.3781574e-120
2.7105892e-127
-8.7368917e-135
2.8464872e-142
-9.246293e-150
3.0518855e-157
-1.0288849e-164
3.3839192e-172
-1.1227601e-179
3.6760045e-187
-1.2230316e-194
4.0498924e-202
-1.3521852e-209
4.3968602e-217
-1.4217052e-224
4.5401891e-232
-1.4313405e-239
4.5166101e-247
3.4368981e-251
2.5741735e-251
2.569096e-251
2.9301799e-251
7.0731704e-251
-4.5694126e-251
-1.1860021e-250
6.5062603e-252
2.6042015e-252
9.7983305e-247
7.4400536e-243
-9.8859993e-11
8.1238473e-24
-1.2017768e-36
6.0037492e-49
-1.7582407e-60
7.0208219e-71
2.7072754e-80
3.235418e-89
6.6322285e-97
-2.2919844e-104
8.8393521e-112
-3.5270303e-119
1.4722731e-126
-6.115644e-134
2.572217e-141
-1.068852e-148
4.4963666e-156
-1.8773918e-163
8.0271672e-171
-3.3015677e-178
1.3944461e-185
-5.7635574e-193
2.3658485e-200
-9.7431515e-208
3.9751364e-215
-1.6237014e-222
6.6998904e-230
-2.7240246e-237
1.0958372e-244
-4.1882134e-252
-8.339274e-259
-9.7976991e-259
-1.1140854e-258
-2.5767666e-258
1.560159e-258
3.4661169e-258
-1.3345025e-259
-3.759177e-260
-1.5971129e-254
-2.5160767e-250
-9.8888663e-11
8.1378562e-24
-1.2088698e-36
6.0719221e-49
-1.7654521e-60
6.3174702e-71
3.8014018e-80
5.5148287e-89
1.2705455e-96
-5.0699832e-104
2.2214424e-111
-1.0099246e-118
4.5570226e-126
-2.0790362e-133
9.6799461e-141
-4.6431392e-148
2.1357994e-155
-9.6499306e-163
4.3461362e-170
-1.9472977e-177
8.8616687e-185
-3.9755972e-192
1.7681698e-199
-7.9956146e-207
3.5306241e-214
-1.5679862e-221
6.8407417e-229
-2.9624085e-236
1.288599e-243
-5.601413e-251
2.3652487e-258
-5.74302e-266
4.672816e-266
1.0634333e-265
-6.2219704e-266
-1.0878865e-265
2.879611e-267
5.6545447e-268
2.5858054e-262
8.9818127e-258
-9.8914554e-11
8.1497317e-24
-1.214624e-36
6.1226763e-49
-1.7665861e-60
5.8232494e-71
6.1349839e-80
1.050988e-88
2.7095873e-96
-1.1787917e-103
5.2199703e-111
-2.3979947e-118
1.121245e-125
-5.1791573e-133
2.3551298e-140
-1.0867082e-147
5.0122597e-155
-2.3202916e-162
1.053383e-169
-4.7706201e-177
2.1799653e-184
-9.738555e-192
4.4171979e-199
-1.9642243e-206
8.5958002e-214
-3.7675416e-221
1.6121418e-228
-7.0932285e-236
3.1529731e-243
-1.3589897e-250
5.9203265e-258
-2.5607845e-265
8.9463125e-273
-4.4758307e-273
2.4960124e-273
3.5288836e-273
-6.3379706e-275
-8.4695461e-276
-4.226461e-270
-3.2433031e-265
-9.893774e-11
8.159983e-24
-1.219462e-36
6.1624042e-49
-1.764191e-60
5.441466e-71
1.5095328e-79
3.0126642e-88
8.4378143e-96
-3.7417401e-103
1.6516088e-110
-7.4270265e-118
3.4168407e-125
-1.5570747e-132
6.988092e-140
-3.141571e-147
1.389675e-154
-6.2759952e-162
2.7861321e-169
-1.2425457e-176
5.6392519e-184
-2.5116341e-191
1.0855165e-198
-4.8603717e-206
2.1197528e-213
-9.3091829e-221
4.0774061e-228
-1.7941186e-235
7.5391715e-243
-3.1958879e-250
1.3772083e-257
-5.807635e-265
2.4170071e-272
-8.088093e-280
-9.9029424e-281
-1.1533428e-280
1.3892559e-282
1.2750148e-283
6.8952483e-278
1.197313e-272
-9.8957989e-11
8.1688072e-24
-1.2235936e-36
6.1953493e-49
-1.76109e-60
5.1469183e-71
-3.7476184e-79
-8.6491708e-88
-2.5552966e-95
1.1793568e-102
-5.1060821e-110
2.3169243e-117
-1.055264e-124
4.8038584e-132
-2.1057265e-139
9.246725e-147
-3.972466e-154
1.7786952e-161
-7.6887406e-169
3.4558042e-176
-1.5115749e-183
6.6151345e-191
-2.9133819e-198
1.2995201e-205
-5.6550896e-213
2.3969642e-220
-1.0508182e-227
4.51575e-235
-1.8944492e-242
8.0064187e-250
-3.4037478e-257
1.4235418e-264
-5.8914228e-272
2.3829743e-279
-8.9278546e-287
3.721219e-288
-3.075097e-290
-1.9312985e-291
-1.147965e-285
-4.4950768e-280
-9.8975292e-11
8.1763372e-24
-1.2271281e-36
6.223642e-49
-1.7587268e-60
4.9240221e-71
-8.8807123e-80
-2.363814e-88
-7.3665539e-96
3.5059635e-103
-1.5503858e-110
6.9413758e-118
-3.1802761e-125
1.3896276e-132
-6.1672715e-140
2.749866e-147
-1.2350685e-154
5.5466555e-162
-2.439875e-169
1.0681917e-176
-4.7494475e-184
2.0696908e-191
-8.9954714e-199
3.9358956e-206
-1.7035534e-213
7.5116649e-221
-3.2419368e-228
1.4009604e-235
-6.0018659e-243
2.6141063e-250
-1.0942353e-257
4.5874963e-265
-1.9187602e-272
8.0011582e-280
-3.1769121e-287
9.2646173e-295
6.8124045e-298
2.9325785e-299
1.9034101e-293
1.7110722e-287
-9.8989954e-11
8.1827288e-24
-1.2301424e-36
6.2481946e-49
-1.7574158e-60
4.7563012e-71
-5.2839755e-80
-1.6177795e-88
-5.3461016e-96
2.7176333e-103
-1.2184916e-110
5.649315e-118
-2.6394975e-125
1.2375511e-132
-5.7762574e-140
2.6554244e-147
-1.2219397e-154
5.6379721e-162
-2.5390967e-169
1.1620242e-176
-5.3583006e-184
2.4466716e-191
-1.1141311e-198
4.9999045e-206
-2.1998786e-213
9.8214215e-221
-4.2305706e-228
1.8405505e-235
-7.8223116e-243
3.3382998e-250
-1.4414306e-257
6.1617132e-265
-2.5918076e-272
1.0811123e-279
-4.3500366e-287
1.4412563e-294
-3.2189572e-302
-4.4756958e-307
-3.1489413e-301
-6.8967763e-295
-9.9002364e-11
8.1881486e-24
-1.2327077e-36
6.2694638e-49
-1.7569195e-60
4.6292102e-71
-3.9060466e-80
-1.3714438e-88
-4.7858558e-96
2.5382727e-103
-1.1892475e-110
5.6120921e-118
-2.6772694e-125
1.2140922e-132
-5.641064e-140
2.6941719e-147
-1.2537453e-154
6.1168963e-162
-2.8140008e-169
1.3139855e-176
-5.9948956e-184
2.7560365e-191
-1.2634968e-198
5.739677e-206
-2.6704872e-213
1.2000396e-220
-5.4240347e-228
2.4387175e-235
-1.1151173e-242
4.8822016e-250
-2.1792614e-257
9.4150409e-265
-4.1019767e-272
1.8304926e-279
-7.4378119e-287
2.4934156e-294
-5.74044e-302
8.9578423e-310
5.0680252e-309
2.7712407e-302
-9.9012917e-11
8.1927561e-24
-1.2348921e-36
6.2878086e-49
-1.7569284e-60
4.531202e-71
-3.1895936e-80
-1.2727819e-88
-4.6228651e-96
2.5695272e-103
-1.2227227e-110
5.8716967e-118
-2.7819437e-125
1.3592236e-132
-6.5280146e-140
3.1512073e-147
-1.4618015e-154
6.9109953e-162
-3.3042812e-169
1.5681306e-176
-7.3850376e-184
3.4248381e-191
-1.5911842e-198
7.5005043e-206
-3.4768533e-213
1.5947226e-220
-7.3453201e-228
3.3591818e-235
-1.5474826e-242
6.9396911e-250
-3.2012434e-257
1.4794265e-264
-6.5361596e-272
2.8636947e-279
-1.2027081e-286
4.1205173e-294
-9.5916937e-302
1.5052625e-309
2.3419629e-313
-1.1425784e-309
-9.9021908e-11
8.1966853e-24
-1.2367562e-36
6.3035888e-49
-1.7571932e-60
4.4539094e-71
-2.7567755e-80
-1.2484606e-88
-4.769101e-96
2.6762474e-103
-1.3307773e-110
6.4191328e-118
-3.1968111e-125
1.5722442e-132
-7.7852051e-140
3.7404327e-147
-1.823285e-154
8.5354514e-162
-4.0163063e-169
1.9145705e-176
-9.3453687e-184
4.4411287e-191
-2.1092971e-198
9.7276444e-206
-4.5758916e-213
2.1765531e-220
-1.0477477e-227
4.982419e-235
-2.2864965e-242
1.0553624e-249
-4.8334117e-257
2.2731832e-264
-1.0616639e-271
4.8431964e-279
-2.0152949e-286
7.1292692e-294
-1.6577871e-301
2.6126855e-309
2.4945249e-313
-3.1656552e-313
-9.9029605e-11
8.2000488e-24
-1.238352e-36
6.3171708e-49
-1.757584e-60
4.3920771e-71
-2.4677835e-80
-1.2593906e-88
-5.1031896e-96
2.9430914e-103
-1.4746219e-110
7.3100363e-118
-3.7355297e-125
1.7972233e-132
-8.9629858e-140
4.5131317e-147
-2.2270136e-154
1.0990716e-161
-5.2793285e-169
2.5631405e-176
-1.2473851e-183
6.0481837e-191
-2.931805e-198
1.4058972e-205
-6.7031978e-213
3.2519247e-220
-1.5823461e-227
7.5487227e-235
-3.6508576e-242
1.7190929e-249
-8.1452736e-257
3.8658382e-264
-1.8177525e-271
8.5389123e-279
-3.7817424e-286
1.356773e-293
-3.2049379e-301
5.1285511e-309
-4.1194562e-313
-2.558107e-313
-9.9036179e-11
8.2029333e-24
-1.239722e-36
6.3288792e-49
-1.758023e-60
4.3416016e-71
-2.2645197e-80
-1.2913644e-88
-5.3812076e-96
3.1988721e-103
-1.6301034e-110
8.286604e-118
-4.1607052e-125
2.1052324e-132
-1.0792228e-139
5.5192554e-147
-2.7373019e-154
1.407219e-161
-7.0147744e-169
3.5653133e-176
-1.8212548e-183
8.9215335e-191
-4.428958e-198
2.2266504e-205
-1.0919029e-212
5.3801999e-220
-2.5817875e-227
1.2375483e-234
-5.9646295e-242
2.9098606e-249
-1.4081853e-256
6.9610371e-264
-3.3473846e-271
1.5628984e-278
-6.9359134e-286
2.4997131e-293
-5.964148e-301
9.5577821e-309
-3.939585e-313
-7.4857355e-314
-9.9041837e-11
8.2054142e-24
-1.2409015e-36
6.338998e-49
-1.7584875e-60
4.3001981e-71
-2.1148381e-80
-1.3442674e-88
-5.9861332e-96
3.8454887e-103
-2.049377e-110
1.1036313e-117
-5.9083497e-125
3.0649744e-132
-1.628422e-139
8.4968839e-147
-4.3013627e-154
2.1855116e-161
-1.1447465e-168
5.6923892e-176
-2.8860931e-183
1.4798218e-190
-7.3694949e-198
3.6729138e-205
-1.8547184e-212
9.1448376e-220
-4.5158972e-227
2.2507563e-234
-1.0970789e-241
5.4659851e-249
-2.6779999e-256
1.3180574e-263
-6.4722492e-271
3.1271742e-278
-1.4374563e-285
5.2715119e-293
-1.2799005e-300
2.0527022e-308
-2.9000476e-313
1.145015e-313
-9.9046684e-11
8.2075508e-24
-1.2419191e-36
6.3477659e-49
-1.758949e-60
4.2658468e-71
-1.9997132e-80
-1.4099672e-88
-6.4855594e-96
4.3201278e-103
-2.4230805e-110
1.3334877e-117
-7.0379274e-125
3.7933052e-132
-1.9909262e-139
1.0600577e-146
-5.6243967e-154
2.9724913e-161
-1.5046614e-168
7.968587e-176
-4.0950348e-183
2.1043605e-190
-1.1214921e-197
6.061977e-205
-3.104099e-212
1.5938445e-219
-8.307046e-227
4.1928675e-234
-2.1224735e-241
1.0942302e-248
-5.4315326e-256
2.7634317e-263
-1.3921513e-270
6.7634616e-278
-3.1049499e-285
1.1649609e-292
-2.8539876e-300
4.6230275e-308
3.7828578e-313
-3.8761569e-313
-9.9050859e-11
8.209396e-24
-1.2427992e-36
6.3553778e-49
-1.7594067e-60
4.2371498e-71
-1.9105002e-80
-1.4788467e-88
-6.7739003e-96
4.6238424e-103
-2.6776816e-110
1.5006889e-117
-8.0957637e-125
4.5859017e-132
-2.4874035e-139
1.370891e-146
-7.4214941e-154
3.9166852e-161
-2.1660952e-168
1.1698968e-175
-6.1417454e-183
3.3346884e-190
-1.760427e-197
9.2736424e-205
-4.8921611e-212
2.5590051e-219
-1.3209461e-226
6.9830211e-234
-3.5907982e-241
1.8085458e-248
-9.3465411e-256
4.7834498e-263
-2.4783013e-270
1.2687923e-277
-6.0069493e-285
2.3575481e-292
-5.8320339e-300
9.6401306e-308
-3.486039e-313
4.3745964e-313
-9.905444e-11
8.2109908e-24
-1.2435616e-36
6.3620002e-49
-1.7598423e-60
4.2131555e-71
-1.8393545e-80
-1.5537609e-88
-7.0600364e-96
4.7662225e-103
-2.7933591e-110
1.6067087e-117
-8.859421e-125
4.9672636e-132
-2.7325872e-139
1.5140353e-146
-8.5238632e-154
4.7125908e-161
-2.5844289e-168
1.421092e-175
-7.8260781e-183
4.331797e-190
-2.3913613e-197
1.2707893e-204
-6.8042431e-212
3.6441153e-219
-1.9275631e-226
1.0287112e-233
-5.5187795e-241
2.9141191e-248
-1.5427471e-255
7.9816143e-263
-4.1519267e-270
2.1745386e-277
-1.0894085e-284
4.237736e-292
-1.0687246e-299
1.7592163e-307
1.4747242e-313
4.5139404e-313
-9.9057522e-11
8.2123724e-24
-1.2442236e-36
6.3677736e-49
-1.7602606e-60
4.1928698e-71
-1.7820932e-80
-1.6376129e-88
-7.8694795e-96
5.8332802e-103
-3.3658622e-110
1.9105173e-117
-1.1024576e-124
6.4514097e-132
-3.7426682e-139
2.1660443e-146
-1.2312941e-153
7.1058217e-161
-3.9989738e-168
2.2179616e-175
-1.2381648e-182
7.0991765e-190
-3.9787027e-197
2.2412708e-204
-1.2249226e-211
6.8437383e-219
-3.6435189e-226
1.9548149e-233
-1.0322039e-240
5.5716496e-248
-2.9567829e-255
1.5508338e-262
-8.2334089e-270
4.2867454e-277
-2.0987495e-284
8.3426359e-292
-2.1361319e-299