/*--------------------------------*- C++ -*----------------------------------*\
  =========                 |
  \\      /  F ield         | OpenFOAM: The Open Source CFD Toolbox
   \\    /   O peration     | Website:  https://openfoam.org
    \\  /    A nd           | Version:  10
     \\/     M anipulation  |
\*---------------------------------------------------------------------------*/
FoamFile
{
    format      ascii;
    class       volVectorField;
    location    "0.04";
    object      U;
}
// * * * * * * * * * * * * * * * * * * * * * * * * * * * * * * * * * * * * * //

dimensions      [0 1 -1 0 0 0 0];

internalField   nonuniform List<vector> 
4000
(
(0 0.018577928 0.47776033)
(0 0.023402634 0.50884309)
(0 0.0080746671 0.50052799)
(0 0.0055274624 0.5003382)
(0 0.0041652983 0.50025725)
(0 0.0031674141 0.50016824)
(0 0.002472801 0.50011875)
(0 0.0019765237 0.50008901)
(0 0.0016043584 0.50006857)
(0 0.0013162463 0.50005409)
(0 0.0010876379 0.50004365)
(0 0.00090208011 0.50003597)
(0 0.00074825019 0.50003023)
(0 0.00061813439 0.5000259)
(0 0.00050588859 0.50002262)
(0 0.00040713273 0.50002014)
(0 0.00031849208 0.5000183)
(0 0.00023728609 0.50001696)
(0 0.00016130969 0.50001605)
(0 8.8672998e-05 0.50001553)
(0 1.7677672e-05 0.50001535)
(0 -5.3291622e-05 0.50001552)
(0 -0.00012586028 0.50001604)
(0 -0.00020175759 0.50001695)
(0 -0.0002829296 0.5000183)
(0 -0.00037167228 0.50002019)
(0 -0.00047080737 0.50002275)
(0 -0.00058392728 0.50002616)
(0 -0.00071575085 0.50003071)
(0 -0.00087266385 0.5000368)
(0 -0.0010635858 0.50004505)
(0 -0.0013013603 0.50005646)
(0 -0.0016050275 0.50007249)
(0 -0.0020053326 0.50009567)
(0 -0.0025588422 0.50013372)
(0 -0.0033495791 0.50020203)
(0 -0.0044445397 0.50027363)
(0 -0.0064661506 0.50043744)
(0 -0.017528421 0.50673342)
(0 -0.013520088 0.47979298)
(0 0.037263635 0.44816805)
(0 0.050621918 0.53229277)
(0 0.021655755 0.50803685)
(0 0.015852714 0.50358274)
(0 0.012127353 0.50242016)
(0 0.0092364112 0.50161503)
(0 0.0072562207 0.5011464)
(0 0.0058229531 0.50085407)
(0 0.0047368292 0.50065514)
(0 0.0038925907 0.50051561)
(0 0.0032207368 0.50041538)
(0 0.0026739988 0.50034179)
(0 0.0022198157 0.50028691)
(0 0.0018350068 0.50024558)
(0 0.0015025835 0.50021431)
(0 0.0012097717 0.5001907)
(0 0.00094670336 0.50017311)
(0 0.00070552304 0.5001604)
(0 0.00047975778 0.50015178)
(0 0.00026385213 0.50014677)
(0 5.2808416e-05 0.50014508)
(0 -0.00015812442 0.50014664)
(0 -0.00037372652 0.50015157)
(0 -0.00059908318 0.50016019)
(0 -0.00083990934 0.50017305)
(0 -0.0011029368 0.500191)
(0 -0.0013964219 0.50021531)
(0 -0.0017308501 0.50024782)
(0 -0.0021199517 0.5002912)
(0 -0.0025822211 0.50034943)
(0 -0.0031433376 0.50042859)
(0 -0.0038402037 0.5005383)
(0 -0.0047267903 0.50069397)
(0 -0.0058842443 0.50092154)
(0 -0.0074628403 0.5012828)
(0 -0.009743075 0.50190604)
(0 -0.012730925 0.50283763)
(0 -0.017028497 0.50608231)
(0 -0.038345623 0.52522511)
(0 -0.027686963 0.45048136)
(0 0.039623966 0.41036954)
(0 0.060838192 0.5493405)
(0 0.031381217 0.52183355)
(0 0.023839417 0.51008763)
(0 0.018674889 0.50657625)
(0 0.014480053 0.5045023)
(0 0.011539715 0.50323904)
(0 0.0093378302 0.50242157)
(0 0.0076378456 0.50186169)
(0 0.0063027846 0.50146803)
(0 0.0052315709 0.5011843)
(0 0.0043542144 0.50097552)
(0 0.003621717 0.50081961)
(0 0.0029985703 0.50070205)
(0 0.002458439 0.50061301)
(0 0.0019813479 0.50054576)
(0 0.0015517537 0.50049562)
(0 0.0011572111 0.50045935)
(0 0.00078741614 0.50043474)
(0 0.00043349372 0.5004204)
(0 8.7440096e-05 0.50041555)
(0 -0.00025835858 0.50041996)
(0 -0.00061156096 0.50043397)
(0 -0.000980301 0.50045847)
(0 -0.0013736906 0.50049504)
(0 -0.001802417 0.50054609)
(0 -0.0022795153 0.50061521)
(0 -0.0028214257 0.50070758)
(0 -0.0034494953 0.50083076)
(0 -0.004192148 0.50099592)
(0 -0.0050881632 0.50121994)
(0 -0.0061922832 0.50152947)
(0 -0.0075830793 0.50196743)
(0 -0.009366868 0.50260336)
(0 -0.011718118 0.50357781)
(0 -0.015031427 0.50518144)
(0 -0.019190954 0.5078688)
(0 -0.024429214 0.5163767)
(0 -0.046671763 0.53915278)
(0 -0.030508903 0.41560927)
(0 0.034450122 0.36283109)
(0 0.062962079 0.55480857)
(0 0.038403688 0.537348)
(0 0.029276684 0.51846394)
(0 0.023325947 0.51194217)
(0 0.018533038 0.50844025)
(0 0.015039877 0.50619197)
(0 0.012310905 0.50467519)
(0 0.010155985 0.50361993)
(0 0.0084364234 0.50286978)
(0 0.0070382112 0.50232435)
(0 0.0058812071 0.50192057)
(0 0.0049073525 0.50161773)
(0 0.0040733358 0.5013886)
(0 0.0033464306 0.50121461)
(0 0.0027014427 0.50108291)
(0 0.0021185243 0.50098455)
(0 0.0015816235 0.50091328)
(0 0.0010773441 0.50086488)
(0 0.00059407609 0.50083659)
(0 0.00012130644 0.50082694)
(0 -0.00035098244 0.50083548)
(0 -0.00083286341 0.50086285)
(0 -0.0013349997 0.50091079)
(0 -0.0018692735 0.50098232)
(0 -0.0024495198 0.50108211)
(0 -0.0030924554 0.50121702)
(0 -0.0038189177 0.50139692)
(0 -0.0046555781 0.50163616)
(0 -0.0056373164 0.50195567)
(0 -0.0068104146 0.50238665)
(0 -0.0082379232 0.50297709)
(0 -0.010008776 0.50380326)
(0 -0.012232658 0.50498387)
(0 -0.015047169 0.50672103)
(0 -0.018862747 0.50941803)
(0 -0.023673359 0.5142578)
(0 -0.029884571 0.52812898)
(0 -0.049180612 0.54433176)
(0 -0.027959349 0.37384838)
(0 0.027023879 0.31667757)
(0 0.061130834 0.55090463)
(0 0.043178144 0.55125934)
(0 0.032807567 0.52736392)
(0 0.026363353 0.51763825)
(0 0.021421971 0.51280533)
(0 0.017680557 0.50959604)
(0 0.014651106 0.50734615)
(0 0.012209907 0.50574837)
(0 0.010225547 0.50459387)
(0 0.008585817 0.50374385)
(0 0.0072115121 0.50310889)
(0 0.006042516 0.50262939)
(0 0.0050325135 0.50226464)
(0 0.0041457254 0.50198648)
(0 0.0033540585 0.50177522)
(0 0.0026350135 0.50161699)
(0 0.0019701469 0.50150208)
(0 0.0013438971 0.50142384)
(0 0.00074266319 0.50137799)
(0 0.0001540603 0.50136216)
(0 -0.00043374119 0.50137568)
(0 -0.001032629 0.50141951)
(0 -0.0016551319 0.50149639)
(0 -0.0023151111 0.50161106)
(0 -0.0030285455 0.50177078)
(0 -0.0038145003 0.50198617)
(0 -0.004696374 0.50227242)
(0 -0.005703559 0.5026513)
(0 -0.0068736882 0.5031542)
(0 -0.0082552395 0.50382692)
(0 -0.0099112924 0.50473759)
(0 -0.011930026 0.50599145)
(0 -0.014418943 0.50774733)
(0 -0.017468547 0.51023748)
(0 -0.021448229 0.51393934)
(0 -0.026649636 0.52102723)
(0 -0.033882851 0.53908635)
(0 -0.048886768 0.54228666)
(0 -0.023479069 0.33304344)
(0 0.019395496 0.27792827)
(0 0.056488084 0.54108643)
(0 0.045388876 0.56230126)
(0 0.034843628 0.53630194)
(0 0.028166088 0.52332729)
(0 0.023314737 0.51720247)
(0 0.019524493 0.51313445)
(0 0.016372752 0.5102034)
(0 0.013788879 0.50807924)
(0 0.011648944 0.50651777)
(0 0.0098510876 0.50535246)
(0 0.0083232705 0.50447284)
(0 0.0070080287 0.50380298)
(0 0.0058599167 0.50328998)
(0 0.0048430338 0.50289663)
(0 0.003928557 0.50259656)
(0 0.0030929645 0.502371)
(0 0.0023166668 0.50220669)
(0 0.0015829171 0.50209449)
(0 0.0008769291 0.50202848)
(0 0.00018514648 0.50200537)
(0 -0.00050541611 0.50202422)
(0 -0.0012077973 0.50208638)
(0 -0.0019356659 0.50219557)
(0 -0.0027040147 0.50235832)
(0 -0.0035299213 0.50258454)
(0 -0.0044334634 0.50288863)
(0 -0.0054388536 0.503291)
(0 -0.0065758807 0.5038205)
(0 -0.0078818871 0.5045181)
(0 -0.0094039044 0.50544238)
(0 -0.011200408 0.50667793)
(0 -0.013352242 0.50835123)
(0 -0.015964924 0.51064991)
(0 -0.019096319 0.51382651)
(0 -0.023047696 0.51848942)
(0 -0.028401929 0.52790432)
(0 -0.036087676 0.54834955)
(0 -0.046418803 0.53549113)
(0 -0.018338158 0.29772528)
(0 0.012610958 0.24634404)
(0 0.049972767 0.52752309)
(0 0.045123009 0.57000751)
(0 0.035562858 0.5449484)
(0 0.028946171 0.52894078)
(0 0.024338915 0.52147073)
(0 0.020659384 0.51663756)
(0 0.017529571 0.51310217)
(0 0.014918481 0.51049463)
(0 0.012715061 0.50854868)
(0 0.010833347 0.50707842)
(0 0.0092112406 0.50595705)
(0 0.0077967643 0.50509557)
(0 0.006548061 0.50443098)
(0 0.0054313089 0.50391833)
(0 0.0044187158 0.50352528)
(0 0.0034871488 0.50322858)
(0 0.0026170082 0.50301167)
(0 0.0017912909 0.50286304)
(0 0.00099481232 0.50277519)
(0 0.00021354485 0.50274394)
(0 -0.0005659912 0.50276807)
(0 -0.0013573168 0.50284926)
(0 -0.0021745216 0.50299221)
(0 -0.0030329101 0.50320512)
(0 -0.0039496829 0.50350039)
(0 -0.0049447384 0.50389587)
(0 -0.0060416369 0.50441666)
(0 -0.0072687495 0.5050978)
(0 -0.0086608897 0.50598832)
(0 -0.010261268 0.50715732)
(0 -0.012121515 0.50870259)
(0 -0.014310528 0.5107664)
(0 -0.016926712 0.5135567)
(0 -0.020006649 0.51735575)
(0 -0.023787393 0.52301038)
(0 -0.029043526 0.53470642)
(0 -0.036384088 0.55541822)
(0 -0.042261153 0.52547373)
(0 -0.013242836 0.26803112)
(0 0.0072727653 0.22054964)
(0 0.042669212 0.51167202)
(0 0.042987928 0.57428933)
(0 0.035176229 0.5528028)
(0 0.02887624 0.53434434)
(0 0.024613635 0.52550905)
(0 0.021174453 0.51999781)
(0 0.018183724 0.5159435)
(0 0.015638501 0.51290797)
(0 0.013448306 0.51061389)
(0 0.011546514 0.50886211)
(0 0.0098823661 0.50751326)
(0 0.0084113563 0.50646826)
(0 0.0070970788 0.50565625)
(0 0.005909334 0.505026)
(0 0.0048226889 0.50454025)
(0 0.0038155328 0.50417193)
(0 0.0028692101 0.50390159)
(0 0.0019672778 0.50371563)
(0 0.001094869 0.50360512)
(0 0.00023813589 0.50356507)
(0 -0.00061627365 0.50359401)
(0 -0.0014817355 0.50369389)
(0 -0.0023720943 0.50387029)
(0 -0.0033022275 0.50413282)
(0 -0.0042886096 0.50449608)
(0 -0.0053499643 0.50498086)
(0 -0.0065080318 0.5056162)
(0 -0.0077884063 0.5064422)
(0 -0.0092217117 0.50751436)
(0 -0.010845452 0.50891011)
(0 -0.012702953 0.5107379)
(0 -0.014848034 0.51315192)
(0 -0.017364113 0.51637266)
(0 -0.020272758 0.52072524)
(0 -0.023775077 0.52738149)
(0 -0.028727235 0.54105304)
(0 -0.035089454 0.55999742)
(0 -0.037114912 0.51330937)
(0 -0.0087370416 0.24315656)
(0 0.0034781187 0.19993587)
(0 0.035399295 0.49489182)
(0 0.039667843 0.57547077)
(0 0.033935747 0.55942932)
(0 0.028157558 0.53934737)
(0 0.024293674 0.5292192)
(0 0.02117769 0.52312115)
(0 0.018409528 0.518643)
(0 0.016001071 0.51524666)
(0 0.013885614 0.51265155)
(0 0.012016321 0.51065129)
(0 0.010354284 0.50909768)
(0 0.0088637949 0.50788458)
(0 0.0075150679 0.50693542)
(0 0.0062825475 0.50619424)
(0 0.0051441146 0.50561996)
(0 0.0040805352 0.5051825)
(0 0.0030748533 0.50486008)
(0 0.0021118601 0.50463736)
(0 0.0011776178 0.50450421)
(0 0.00025902779 0.50445495)
(0 -0.00065658404 0.50448785)
(0 -0.0015818935 0.5046051)
(0 -0.0025299202 0.50481295)
(0 -0.0035144853 0.50512221)
(0 -0.0045506379 0.50554918)
(0 -0.0056551355 0.50611702)
(0 -0.0068469999 0.5068578)
(0 -0.008148056 0.50781552)
(0 -0.0095835721 0.50905047)
(0 -0.011183886 0.51064612)
(0 -0.012983072 0.51271876)
(0 -0.015019103 0.51543045)
(0 -0.017355687 0.5190071)
(0 -0.020004338 0.52383033)
(0 -0.023157616 0.53143093)
(0 -0.027646561 0.54655718)
(0 -0.032646253 0.56213341)
(0 -0.031582539 0.50008028)
(0 -0.0050866278 0.22279193)
(0 0.00098326971 0.18405327)
(0 0.02862783 0.47835288)
(0 0.035686629 0.57414905)
(0 0.032062098 0.56462286)
(0 0.026978559 0.54380784)
(0 0.023543469 0.53253611)
(0 0.020789072 0.52593844)
(0 0.018293021 0.52113376)
(0 0.016069597 0.51745201)
(0 0.014074152 0.51461083)
(0 0.012277811 0.51240205)
(0 0.010653151 0.51067269)
(0 0.0091737385 0.50931246)
(0 0.0078168881 0.50824115)
(0 0.0065622558 0.50739964)
(0 0.0053916523 0.50674423)
(0 0.0042888115 0.50624263)
(0 0.0032390335 0.50587135)
(0 0.0022288653 0.50561372)
(0 0.0012457892 0.50545869)
(0 0.00027792434 0.50539999)
(0 -0.00068626719 0.5054357)
(0 -0.0016582991 0.50556814)
(0 -0.0026498897 0.50580405)
(0 -0.0036732991 0.50615511)
(0 -0.0047416095 0.50663885)
(0 -0.0058690256 0.5072801)
(0 -0.0070712129 0.50811304)
(0 -0.0083655783 0.50918425)
(0 -0.0097713991 0.51055714)
(0 -0.011311061 0.51231882)
(0 -0.013009056 0.51459017)
(0 -0.014888617 0.51753702)
(0 -0.016993068 0.52138701)
(0 -0.019327447 0.52659328)
(0 -0.022085596 0.53502291)
(0 -0.025977394 0.55098322)
(0 -0.029434702 0.56214374)
(0 -0.026053833 0.48677123)
(0 -0.0022897158 0.20674734)
(0 -0.00054257899 0.17222529)
(0 0.022580824 0.46285888)
(0 0.031411286 0.57096644)
(0 0.02973595 0.56836107)
(0 0.025483268 0.54764632)
(0 0.022499715 0.53543615)
(0 0.020117244 0.52841719)
(0 0.017917467 0.52337522)
(0 0.015908106 0.51948412)
(0 0.014062675 0.5164547)
(0 0.012367836 0.51408098)
(0 0.010806811 0.5122087)
(0 0.0093621785 0.51072595)
(0 0.0080182782 0.50955079)
(0 0.0067601611 0.50862245)
(0 0.0055738753 0.50789568)
(0 0.0044464717 0.50733689)
(0 0.0033658732 0.50692143)
(0 0.0023207516 0.50663177)
(0 0.0013003723 0.5064562)
(0 0.00029442972 0.50638803)
(0 -0.00070712291 0.50642515)
(0 -0.0017142798 0.50656994)
(0 -0.0027370952 0.50682943)
(0 -0.0037858947 0.5072158)
(0 -0.0048714101 0.50774733)
(0 -0.0060049052 0.50844979)
(0 -0.0071983026 0.50935851)
(0 -0.0084642536 0.51052139)
(0 -0.0098158612 0.51200331)
(0 -0.011267417 0.51389282)
(0 -0.012833893 0.5163123)
(0 -0.014525382 0.51942792)
(0 -0.016366429 0.52346951)
(0 -0.018357228 0.52897416)
(0 -0.020686928 0.53807269)
(0 -0.023875857 0.55423601)
(0 -0.025767105 0.56043949)
(0 -0.020773068 0.47409471)
(0 -0.00022243854 0.19462107)
(0 -0.0013844346 0.16371887)
(0 0.017345901 0.44887153)
(0 0.027106903 0.5664896)
(0 0.027118606 0.57071697)
(0 0.023778195 0.5508158)
(0 0.021262845 0.53791575)
(0 0.019247382 0.5305517)
(0 0.017351013 0.52535008)
(0 0.015570039 0.5213209)
(0 0.013891804 0.51815985)
(0 0.012316365 0.51566529)
(0 0.010836666 0.51368438)
(0 0.0094436469 0.51210557)
(0 0.0081283007 0.51084678)
(0 0.0068809848 0.50984689)
(0 0.0056920435 0.50906015)
(0 0.004551984 0.50845242)
(0 0.0034515442 0.50799854)
(0 0.0023817411 0.50768047)
(0 0.0013338561 0.50748614)
(0 0.00029939909 0.50740859)
(0 -0.0007299439 0.50744557)
(0 -0.0017624024 0.5075994)
(0 -0.0028061243 0.50787719)
(0 -0.0038692608 0.50829129)
(0 -0.0049599633 0.50886022)
(0 -0.00608635 0.50961)
(0 -0.0072564329 0.5105762)
(0 -0.0084780095 0.51180686)
(0 -0.0097580957 0.5133668)
(0 -0.011103135 0.51534418)
(0 -0.012518803 0.51786033)
(0 -0.014003319 0.52107911)
(0 -0.015565115 0.5252354)
(0 -0.017199788 0.53095483)
(0 -0.019078558 0.5405257)
(0 -0.021505129 0.55631096)
(0 -0.021926202 0.55742138)
(0 -0.015911983 0.46247749)
(0 0.0012342968 0.18588794)
(0 -0.0017522184 0.15788794)
(0 0.0129288 0.43661812)
(0 0.02297373 0.56119176)
(0 0.024364777 0.57181989)
(0 0.021954541 0.55329306)
(0 0.019913374 0.53997698)
(0 0.01825043 0.53234905)
(0 0.016651893 0.52705583)
(0 0.0151015 0.52295363)
(0 0.013596456 0.51971445)
(0 0.012148499 0.51714178)
(0 0.010759385 0.51508626)
(0 0.0094276729 0.51343817)
(0 0.0081505238 0.51211665)
(0 0.006923349 0.5110613)
(0 0.0057406639 0.5102268)
(0 0.0045964001 0.50957915)
(0 0.0034841455 0.50909317)
(0 0.0023973381 0.50875077)
(0 0.0013293762 0.50853975)
(0 0.00027370108 0.50845302)
(0 -0.00077614803 0.50848818)
(0 -0.0018265132 0.50864747)
(0 -0.0028835229 0.50893783)
(0 -0.0039530534 0.50937147)
(0 -0.0050406003 0.50996665)
(0 -0.0061511019 0.51074901)
(0 -0.0072886825 0.5117535)
(0 -0.0084563801 0.51302725)
(0 -0.0096553628 0.5146337)
(0 -0.010884668 0.51665901)
(0 -0.012141075 0.51922138)
(0 -0.013411752 0.52248022)
(0 -0.014692071 0.52667886)
(0 -0.015972932 0.53252744)
(0 -0.017392424 0.54235324)
(0 -0.019052692 0.55727318)
(0 -0.018185796 0.5534559)
(0 -0.011605289 0.45212844)
(0 0.0021520896 0.18001956)
(0 -0.0017904467 0.15416512)
(0 0.0092933538 0.42616914)
(0 0.019172099 0.55545774)
(0 0.021633028 0.57183952)
(0 0.020116888 0.55508705)
(0 0.018542527 0.54162846)
(0 0.017210006 0.53382377)
(0 0.015892735 0.52850043)
(0 0.0145634 0.52438431)
(0 0.013226378 0.52111684)
(0 0.011903841 0.5185065)
(0 0.010605466 0.5164089)
(0 0.0093367166 0.51471752)
(0 0.0081003973 0.5133538)
(0 0.0068965998 0.51225903)
(0 0.005723745 0.51138905)
(0 0.0045790107 0.51071063)
(0 0.0034587259 0.51019908)
(0 0.0023586872 0.50983658)
(0 0.0012743777 0.50961105)
(0 0.00020115751 0.50951538)
(0 -0.00086558864 0.50954708)
(0 -0.0019303244 0.50970816)
(0 -0.0029971842 0.51000528)
(0 -0.0040698197 0.51045015)
(0 -0.0051511602 0.51106036)
(0 -0.0062431097 0.51186056)
(0 -0.0073461258 0.51288435)
(0 -0.0084587893 0.51417695)
(0 -0.0095768412 0.51579926)
(0 -0.010692516 0.51783396)
(0 -0.011794437 0.52039432)
(0 -0.012859331 0.52363361)
(0 -0.013872087 0.52780628)
(0 -0.014819715 0.53369721)
(0 -0.015790812 0.54356159)
(0 -0.016726663 0.55724416)
(0 -0.014803797 0.5488665)
(0 -0.0079589893 0.44310329)
(0 0.0025773913 0.17647992)
(0 -0.0016008535 0.15203421)
(0 0.006387004 0.41748173)
(0 0.015835104 0.54957339)
(0 0.019095837 0.5709594)
(0 0.018409392 0.55623838)
(0 0.017281926 0.54288928)
(0 0.016250354 0.53499874)
(0 0.015187117 0.52970258)
(0 0.014057038 0.52562621)
(0 0.012871096 0.52237626)
(0 0.011661049 0.51976559)
(0 0.010443641 0.51765606)
(0 0.0092305726 0.51594559)
(0 0.0080296944 0.51455893)
(0 0.0068452872 0.51343987)
(0 0.005679281 0.5125461)
(0 0.0045317883 0.5118457)
(0 0.0034016374 0.51131489)
(0 0.0022867921 0.51093643)
(0 0.0011846646 0.51069855)
(0 9.2398003e-05 0.51059425)
(0 -0.00099290944 0.51062097)
(0 -0.0020739836 0.51078045)
(0 -0.0031531292 0.51107884)
(0 -0.0042319787 0.51152714)
(0 -0.0053111587 0.51214185)
(0 -0.0063898823 0.51294616)
(0 -0.0074653862 0.51397162)
(0 -0.0085323576 0.51526072)
(0 -0.0095818182 0.5168707)
(0 -0.010600046 0.51887942)
(0 -0.011568696 0.52139366)
(0 -0.012455004 0.5245593)
(0 -0.013234662 0.52864284)
(0 -0.013892896 0.5344907)
(0 -0.014450877 0.54419385)
(0 -0.014725 0.55637215)
(0 -0.011982508 0.54390893)
(0 -0.0050327516 0.43535514)
(0 0.0025698011 0.17469296)
(0 -0.0012659916 0.15103313)
(0 0.004153442 0.41042708)
(0 0.013060431 0.54370669)
(0 0.016929778 0.56933777)
(0 0.017012246 0.55680212)
(0 0.016303591 0.54378866)
(0 0.015535964 0.53590719)
(0 0.014688574 0.53069324)
(0 0.013723848 0.52670495)
(0 0.012660922 0.52351362)
(0 0.011540247 0.52093591)
(0 0.010384801 0.51884124)
(0 0.0092118231 0.51713321)
(0 0.0080334693 0.51574078)
(0 0.0068575869 0.51461101)
(0 0.0056890893 0.513704)
(0 0.0045305911 0.51298962)
(0 0.0033830648 0.51244535)
(0 0.0022463443 0.51205478)
(0 0.0011195158 0.51180664)
(0 1.2693812e-06 0.51169416)
(0 -0.0011098137 0.5117147)
(0 -0.0022149703 0.51186969)
(0 -0.0033149552 0.51216469)
(0 -0.0044097197 0.51260972)
(0 -0.0054980054 0.51321994)
(0 -0.006576861 0.51401664)
(0 -0.00764097 0.51502882)
(0 -0.0086819561 0.5162955)
(0 -0.0096871762 0.5178694)
(0 -0.010638138 0.51982234)
(0 -0.011511132 0.52225319)
(0 -0.012265834 0.52529975)
(0 -0.012868621 0.52923893)
(0 -0.013304495 0.53495985)
(0 -0.013509466 0.54431766)
(0 -0.013179147 0.55479476)
(0 -0.0098139699 0.53874602)
(0 -0.0028234106 0.42880737)
(0 0.0022204462 0.17407505)
(0 -0.0008633324 0.15076674)
(0 0.0025389686 0.40480867)
(0 0.010885566 0.53790765)
(0 0.015269844 0.56707495)
(0 0.016085085 0.55682378)
(0 0.015766971 0.5443616)
(0 0.015221158 0.53659289)
(0 0.014542196 0.53151479)
(0 0.013700174 0.52765709)
(0 0.012724999 0.52455971)
(0 0.011664309 0.52204311)
(0 0.010546441 0.51998579)
(0 0.0093932918 0.51829825)
(0 0.0082204104 0.51691453)
(0 0.0070384658 0.51578556)
(0 0.0058547228 0.51487435)
(0 0.0046737793 0.51415292)
(0 0.0034983254 0.51360028)
(0 0.0023297062 0.51320109)
(0 0.0011683716 0.51294471)
(0 1.4270848e-05 0.51282468)
(0 -0.0011328131 0.51283833)
(0 -0.0022729307 0.51298675)
(0 -0.0034056264 0.51327482)
(0 -0.0045295776 0.51371149)
(0 -0.0056421425 0.51431036)
(0 -0.0067388354 0.51509058)
(0 -0.0078125893 0.51607821)
(0 -0.0088529633 0.51730835)
(0 -0.0098449476 0.51882854)
(0 -0.010766786 0.52070364)
(0 -0.011591185 0.52302341)
(0 -0.012273328 0.52591716)
(0 -0.01276952 0.52966746)
(0 -0.013061946 0.53517643)
(0 -0.012988613 0.54400545)
(0 -0.012096167 0.55261562)
(0 -0.0082349112 0.53344443)
(0 -0.0013056229 0.4233359)
(0 0.0016427745 0.17414312)
(0 -0.00046615582 0.15091269)
(0 0.001488974 0.40038053)
(0 0.0092659661 0.53215085)
(0 0.014142307 0.56421017)
(0 0.015674366 0.55632356)
(0 0.01572755 0.54464177)
(0 0.015363945 0.53710534)
(0 0.014804109 0.53221565)
(0 0.014041864 0.52852414)
(0 0.013120125 0.52554898)
(0 0.012091503 0.5231156)
(0 0.010988726 0.5211132)
(0 0.0098372298 0.51946031)
(0 0.0086549548 0.51809676)
(0 0.0074545956 0.51697782)
(0 0.0062451045 0.51606979)
(0 0.0050325318 0.51534708)
(0 0.0038208554 0.51479044)
(0 0.0026125761 0.51438572)
(0 0.0014092044 0.51412303)
(0 0.00021167455 0.51399629)
(0 -0.00097929673 0.51400285)
(0 -0.0021628561 0.51414347)
(0 -0.0033376564 0.51442232)
(0 -0.0045014825 0.51484724)
(0 -0.0056507821 0.5154302)
(0 -0.0067801313 0.51618809)
(0 -0.0078814819 0.5171439)
(0 -0.0089432908 0.51832856)
(0 -0.0099494441 0.5197841)
(0 -0.010876522 0.52156791)
(0 -0.011695201 0.52375968)
(0 -0.012359605 0.52647968)
(0 -0.012815728 0.53000799)
(0 -0.013034464 0.53521609)
(0 -0.012753339 0.54332022)
(0 -0.011346106 0.54991454)
(0 -0.0070839449 0.52804026)
(0 -0.0003833173 0.41877689)
(0 0.0010434562 0.17450084)
(0 -0.00013478767 0.15121903)
(0 0.0009282275 0.39688406)
(0 0.0080797763 0.52641529)
(0 0.013422485 0.56075795)
(0 0.015645669 0.55530094)
(0 0.016063925 0.5446531)
(0 0.015856953 0.53748827)
(0 0.015378443 0.53283905)
(0 0.014665233 0.52934171)
(0 0.01377435 0.5265095)
(0 0.012761073 0.52417537)
(0 0.011661529 0.52224068)
(0 0.010503516 0.52063287)
(0 0.0093064634 0.5192981)
(0 0.0080843936 0.51819634)
(0 0.0068473751 0.51729734)
(0 0.0056024707 0.51657807)
(0 0.0043545989 0.51602111)
(0 0.0031071388 0.51561358)
(0 0.0018624326 0.51534642)
(0 0.00062220058 0.51521396)
(0 -0.00061209535 0.51521361)
(0 -0.0018388925 0.51534585)
(0 -0.0030561716 0.51561416)
(0 -0.0042610867 0.5160253)
(0 -0.0054495044 0.51658963)
(0 -0.00661548 0.51732181)
(0 -0.0077505322 0.51824178)
(0 -0.0088427105 0.51937633)
(0 -0.0098756821 0.52076188)
(0 -0.010825673 0.52244819)
(0 -0.011662293 0.52450436)
(0 -0.012341077 0.52704025)
(0 -0.012798557 0.53032218)
(0 -0.012982906 0.53513797)
(0 -0.012542247 0.5423156)
(0 -0.010693431 0.54678429)
(0 -0.0061508604 0.52263005)
(0 8.4137984e-05 0.41502961)
(0 0.0005492015 0.17487801)
(0 0.00010058996 0.15150901)
(0 0.0007468504 0.39409896)
(0 0.0071642012 0.52075875)
(0 0.012862725 0.55676994)
(0 0.015702609 0.55376056)
(0 0.016485 0.54440465)
(0 0.016431676 0.53776497)
(0 0.016021816 0.5334089)
(0 0.015350356 0.53012734)
(0 0.01448851 0.52745243)
(0 0.01349272 0.52522878)
(0 0.012401702 0.52337094)
(0 0.011244684 0.5218159)
(0 0.010042028 0.5205165)
(0 0.0088086353 0.51943758)
(0 0.007555343 0.51855241)
(0 0.0062899721 0.51784056)
(0 0.00501819 0.51728646)
(0 0.0037441124 0.51687854)
(0 0.0024708047 0.5166086)
(0 0.0012006906 0.51647141)
(0 -6.4092812e-05 0.5164645)
(0 -0.0013213431 0.51658805)
(0 -0.0025684439 0.51684497)
(0 -0.0038020089 0.51724095)
(0 -0.0050174446 0.51778487)
(0 -0.0062084401 0.51848924)
(0 -0.0073662923 0.51937109)
(0 -0.0084789307 0.52045321)
(0 -0.0095301056 0.52176647)
(0 -0.010496371 0.52335312)
(0 -0.011346546 0.5252714)
(0 -0.012038165 0.52761839)
(0 -0.012500043 0.53063342)
(0 -0.012649392 0.53497011)
(0 -0.012071095 0.54104555)
(0 -0.0098925538 0.5433629)
(0 -0.0052532623 0.51739373)
(0 0.0002410951 0.4120154)
(0 0.00019824911 0.17514275)
(0 0.00024127368 0.15168888)
(0 0.00081023214 0.39186264)
(0 0.0063697819 0.51533922)
(0 0.012192608 0.55238677)
(0 0.015500438 0.55174626)
(0 0.016632533 0.54389512)
(0 0.016750067 0.53792999)
(0 0.01642588 0.53392028)
(0 0.015815666 0.53087282)
(0 0.01500397 0.5283661)
(0 0.01404811 0.52626183)
(0 0.012988896 0.52448838)
(0 0.011856538 0.52299262)
(0 0.010672205 0.52173437)
(0 0.0094515603 0.52068337)
(0 0.0082061416 0.51981643)
(0 0.0069444946 0.51911568)
(0 0.0056730217 0.51856744)
(0 0.0043965814 0.51816143)
(0 0.0031189823 0.51789029)
(0 0.0018433833 0.51774927)
(0 0.00057264175 0.51773603)
(0 -0.00069034984 0.51785052)
(0 -0.0019423219 0.51809508)
(0 -0.0031792791 0.51847445)
(0 -0.0043960956 0.51899609)
(0 -0.0055860079 0.5196705)
(0 -0.0067399876 0.52051193)
(0 -0.0078457515 0.52153936)
(0 -0.0088869209 0.52277824)
(0 -0.0098403793 0.52426331)
(0 -0.010674016 0.52604193)
(0 -0.011346348 0.52819531)
(0 -0.011780888 0.53092309)
(0 -0.011864214 0.53471044)
(0 -0.011156803 0.53957516)
(0 -0.0087983573 0.53984014)
(0 -0.0043046171 0.51256553)
(0 0.00022145228 0.40965314)
(0 -7.15328e-06 0.17527485)
(0 0.0003026813 0.15173997)
(0 0.00098155614 0.39006446)
(0 0.0056089888 0.51037507)
(0 0.011237343 0.54784595)
(0 0.014794514 0.5493634)
(0 0.016228773 0.54312801)
(0 0.016539309 0.53795519)
(0 0.016337655 0.53434172)
(0 0.015826821 0.53154639)
(0 0.015102317 0.52921861)
(0 0.01422274 0.52724285)
(0 0.013230704 0.52556173)
(0 0.01215736 0.52413224)
(0 0.011024865 0.52292133)
(0 0.0098497822 0.52190366)
(0 0.0086444917 0.52105962)
(0 0.0074183958 0.52037389)
(0 0.0061787494 0.51983464)
(0 0.0049312645 0.51943287)
(0 0.0036805992 0.5191621)
(0 0.0024307544 0.51901804)
(0 0.0011854183 0.51899848)
(0 -5.1702914e-05 0.51910322)
(0 -0.0012765593 0.51933402)
(0 -0.0024843928 0.51969476)
(0 -0.0036693658 0.52019151)
(0 -0.0048240503 0.52083285)
(0 -0.0059388246 0.52163037)
(0 -0.007000906 0.52259933)
(0 -0.0079933689 0.52375987)
(0 -0.0088930481 0.52513917)
(0 -0.0096668298 0.52677366)
(0 -0.010272876 0.52872594)
(0 -0.010632556 0.53114694)
(0 -0.010611825 0.5343443)
(0 -0.0097899089 0.53798707)
(0 -0.0074194912 0.53643321)
(0 -0.0033244876 0.50837201)
(0 0.00013673897 0.40786364)
(0 -8.6962876e-05 0.17530548)
(0 0.00030851511 0.15169166)
(0 0.0011526632 0.38863527)
(0 0.0048684472 0.5060709)
(0 0.0099824061 0.54343773)
(0 0.013537638 0.54677429)
(0 0.015186295 0.54212927)
(0 0.01569642 0.53780926)
(0 0.015653622 0.53463066)
(0 0.015282266 0.5321054)
(0 0.014684244 0.52996869)
(0 0.013919368 0.5281321)
(0 0.013031599 0.52655273)
(0 0.012053044 0.52519783)
(0 0.011007028 0.52404154)
(0 0.0099111885 0.52306353)
(0 0.0087789413 0.52224775)
(0 0.0076207116 0.52158146)
(0 0.0064447538 0.52105469)
(0 0.0052577638 0.52065974)
(0 0.0040653678 0.52039099)
(0 0.0028725212 0.52024465)
(0 0.0016838539 0.52021866)
(0 0.00050400333 0.52031263)
(0 -0.00066207453 0.52052784)
(0 -0.0018087223 0.52086726)
(0 -0.0029292229 0.52133564)
(0 -0.004015297 0.52193969)
(0 -0.0050564977 0.52268835)
(0 -0.0060393083 0.52359326)
(0 -0.006945996 0.5246693)
(0 -0.0077530559 0.5259361)
(0 -0.0084267838 0.52741918)
(0 -0.0089246286 0.52916122)
(0 -0.0091697264 0.53126173)
(0 -0.0090234999 0.53386686)
(0 -0.0081205254 0.53637735)
(0 -0.0058926501 0.53334129)
(0 -0.0023959814 0.50496066)
(0 6.3079219e-05 0.40657339)
(0 -8.2612603e-05 0.1752796)
(0 0.00028551537 0.15159188)
(0 0.0012654058 0.38752583)
(0 0.0041847639 0.50254795)
(0 0.0085540544 0.53943105)
(0 0.01187705 0.54416709)
(0 0.013623483 0.54095594)
(0 0.014310538 0.53747963)
(0 0.014442477 0.5347543)
(0 0.01423553 0.53251367)
(0 0.013791302 0.53058022)
(0 0.013169417 0.52889419)
(0 0.012414185 0.52742704)
(0 0.011558325 0.52615611)
(0 0.010626206 0.52506268)
(0 0.0096365256 0.52413144)
(0 0.0086037885 0.52334993)
(0 0.0075395042 0.52270802)
(0 0.0064529898 0.52219761)
(0 0.0053519853 0.52181234)
(0 0.0042431396 0.52154746)
(0 0.0031324131 0.52139969)
(0 0.0020254242 0.52136714)
(0 0.00092778687 0.52144926)
(0 -0.00015458275 0.52164682)
(0 -0.0012150883 0.52196192)
(0 -0.0022460766 0.52239801)
(0 -0.0032383733 0.52295994)
(0 -0.0041806665 0.52365406)
(0 -0.0050587071 0.52448841)
(0 -0.0058540808 0.52547284)
(0 -0.0065430859 0.52661961)
(0 -0.0070924417 0.52794383)
(0 -0.0074600062 0.52946897)
(0 -0.0075748856 0.53124715)
(0 -0.0073101786 0.53329636)
(0 -0.0063779859 0.53484092)
(0 -0.004406055 0.53070213)
(0 -0.0016042893 0.50235747)
(0 2.8539698e-05 0.40569775)
(0 -4.69625e-05 0.17524176)
(0 0.00025547466 0.15148417)
(0 0.0013100807 0.38668684)
(0 0.0036060663 0.4998133)
(0 0.0071404194 0.536008)
(0 0.010067331 0.54171356)
(0 0.011790458 0.53968972)
(0 0.012603023 0.53698459)
(0 0.01289588 0.53470516)
(0 0.012853447 0.53275528)
(0 0.012569691 0.53103394)
(0 0.012101338 0.52950822)
(0 0.011491421 0.52816303)
(0 0.010772399 0.52698521)
(0 0.0099691168 0.52596289)
(0 0.0091010018 0.52508565)
(0 0.0081834457 0.52434459)
(0 0.0072289092 0.52373218)
(0 0.0062476801 0.52324221)
(0 0.0052484724 0.52286965)
(0 0.0042388991 0.52261066)
(0 0.0032258716 0.52246248)
(0 0.0022159434 0.52242341)
(0 0.0012156448 0.52249275)
(0 0.00023179071 0.52267079)
(0 -0.00072816732 0.52295879)
(0 -0.0016557439 0.5233589)
(0 -0.0025410097 0.52387418)
(0 -0.0033719908 0.52450849)
(0 -0.0041339947 0.52526645)
(0 -0.004808442 0.52615322)
(0 -0.0053720688 0.52717433)
(0 -0.0057934145 0.52833553)
(0 -0.0060328961 0.52964388)
(0 -0.0060292703 0.53111319)
(0 -0.0056786471 0.53267282)
(0 -0.0047761986 0.53345457)
(0 -0.0031207372 0.52857175)
(0 -0.0010012364 0.50047811)
(0 2.9432911e-05 0.40513364)
(0 -9.2727985e-06 0.17522267)
(0 0.00023109422 0.15139519)
(0 0.001306416 0.38606289)
(0 0.0031615073 0.49777576)
(0 0.0059050152 0.53323546)
(0 0.0083585469 0.53953532)
(0 0.009958171 0.53841938)
(0 0.010829006 0.53637017)
(0 0.011243523 0.53450433)
(0 0.011341828 0.53283918)
(0 0.011204189 0.53133194)
(0 0.010881282 0.52997186)
(0 0.010412942 0.52875548)
(0 0.0098300981 0.52767801)
(0 0.0091571537 0.52673376)
(0 0.0084136441 0.52591689)
(0 0.0076154033 0.52522189)
(0 0.0067755096 0.52464373)
(0 0.0059049663 0.52417805)
(0 0.0050132524 0.52382118)
(0 0.0041087669 0.52357015)
(0 0.0031992095 0.52342275)
(0 0.002291912 0.52337747)
(0 0.001394159 0.52343351)
(0 0.00051349 0.5235907)
(0 -0.00034198273 0.5238495)
(0 -0.0011631878 0.52421085)
(0 -0.0019397326 0.52467614)
(0 -0.0026593726 0.52524693)
(0 -0.0033074695 0.52592476)
(0 -0.003866018 0.52671067)
(0 -0.0043131071 0.52760456)
(0 -0.0046204804 0.5286045)
(0 -0.0047533517 0.52970515)
(0 -0.0046624757 0.53089344)
(0 -0.0042714327 0.5320463)
(0 -0.0034501425 0.53226595)
(0 -0.0021216938 0.52693176)
(0 -0.00059133644 0.49917665)
(0 4.8491973e-05 0.40478466)
(0 1.8877661e-05 0.17523019)
(0 0.00021668565 0.15133349)
(0 0.0012814438 0.3855977)
(0 0.0028500538 0.49629018)
(0 0.0049349919 0.5310782)
(0 0.0069168922 0.5376907)
(0 0.0083294387 0.5372213)
(0 0.0091928613 0.53569616)
(0 0.0096774398 0.53419333)
(0 0.0098777906 0.53279425)