/*--------------------------------*- C++ -*----------------------------------*\
  =========                 |
  \\      /  F ield         | OpenFOAM: The Open Source CFD Toolbox
   \\    /   O peration     | Website:  https://openfoam.org
    \\  /    A nd           | Version:  10
     \\/     M anipulation  |
\*---------------------------------------------------------------------------*/
FoamFile
{
    format      ascii;
    class       volVectorField;
    location    "0.04";
    object      U_0;
}
// * * * * * * * * * * * * * * * * * * * * * * * * * * * * * * * * * * * * * //

dimensions      [0 1 -1 0 0 0 0];

internalField   nonuniform List<vector> 
4000
(
(0 0.018572925 0.47776269)
(0 0.023393879 0.50884155)
(0 0.0080675881 0.50052814)
(0 0.0055210974 0.50033829)
(0 0.004159062 0.50025718)
(0 0.0031615829 0.50016814)
(0 0.0024675143 0.50011864)
(0 0.001971797 0.5000889)
(0 0.0016001758 0.50006847)
(0 0.0013125777 0.50005399)
(0 0.0010844447 0.50004356)
(0 0.00089932092 0.50003589)
(0 0.00074588476 0.50003016)
(0 0.00061612579 0.50002583)
(0 0.00050420453 0.50002256)
(0 0.00040574632 0.50002008)
(0 0.00031738223 0.50001824)
(0 0.00023643765 0.5000169)
(0 0.00016071369 0.500016)
(0 8.8326587e-05 0.50001547)
(0 1.7584196e-05 0.5000153)
(0 -5.3122479e-05 0.50001546)
(0 -0.00012541226 0.50001598)
(0 -0.00020100794 0.50001688)
(0 -0.00028184873 0.50001823)
(0 -0.00037022374 0.50002011)
(0 -0.00046894792 0.50002266)
(0 -0.00058160729 0.50002606)
(0 -0.00071291511 0.5000306)
(0 -0.00086925341 0.50003667)
(0 -0.001059541 0.50004492)
(0 -0.0012966264 0.50005631)
(0 -0.0015995632 0.50007234)
(0 -0.0019991205 0.50009552)
(0 -0.0025519121 0.50013358)
(0 -0.0033421076 0.50020193)
(0 -0.004436885 0.5002737)
(0 -0.0064579315 0.50043764)
(0 -0.01751881 0.50673177)
(0 -0.013514789 0.47979575)
(0 0.037249156 0.44818453)
(0 0.050594193 0.53228915)
(0 0.021631155 0.50803558)
(0 0.015831751 0.50358282)
(0 0.012106961 0.50241929)
(0 0.0092176483 0.50161388)
(0 0.0072393716 0.50114521)
(0 0.0058079872 0.50085289)
(0 0.0047236688 0.50065402)
(0 0.0038811139 0.50051456)
(0 0.0032107978 0.50041442)
(0 0.0026654484 0.50034092)
(0 0.002212512 0.50028613)
(0 0.001828822 0.50024488)
(0 0.0014974069 0.50021366)
(0 0.0012055115 0.50019011)
(0 0.0009432878 0.50017256)
(0 0.00070290057 0.50015987)
(0 0.00047789719 0.50015127)
(0 0.00026274268 0.50014625)
(0 5.245979e-05 0.50014455)
(0 -0.00015768162 0.50014609)
(0 -0.00037244024 0.50015098)
(0 -0.00059687967 0.50015954)
(0 -0.00083669223 0.50017233)
(0 -0.0010985867 0.5001902)
(0 -0.0013907963 0.50021441)
(0 -0.0017237838 0.5002468)
(0 -0.0021112594 0.50029006)
(0 -0.0025717018 0.50034817)
(0 -0.0031307832 0.50042719)
(0 -0.0038254148 0.50053679)
(0 -0.0047096048 0.50069239)
(0 -0.0058645728 0.50091995)
(0 -0.0074406914 0.5012813)
(0 -0.0097188214 0.50190492)
(0 -0.012705867 0.50283767)
(0 -0.017000483 0.50608149)
(0 -0.038314772 0.52522089)
(0 -0.027670971 0.45050118)
(0 0.039600723 0.41041557)
(0 0.060788194 0.5493407)
(0 0.031332808 0.52182703)
(0 0.023800607 0.510086)
(0 0.018637878 0.50657329)
(0 0.014446518 0.50449863)
(0 0.01150993 0.50323526)
(0 0.0093115997 0.50241788)
(0 0.0076149602 0.50185821)
(0 0.0062829638 0.50146484)
(0 0.0052145074 0.50118141)
(0 0.0043396086 0.50097292)
(0 0.0036092921 0.50081728)
(0 0.0029880804 0.50069995)
(0 0.0024496739 0.50061112)
(0 0.0019741346 0.50054403)
(0 0.0015459576 0.50049401)
(0 0.001152735 0.50045782)
(0 0.00078420081 0.50043326)
(0 0.00043151711 0.50041892)
(0 8.6717512e-05 0.50041402)
(0 -0.00025777382 0.50041836)
(0 -0.0006095767 0.50043224)
(0 -0.00097678517 0.50045657)
(0 -0.0013684697 0.50049293)
(0 -0.0017952744 0.50054372)
(0 -0.0022701904 0.50061254)
(0 -0.0028096139 0.50070456)
(0 -0.0034348501 0.50082735)
(0 -0.0041742866 0.5009921)
(0 -0.005066679 0.5012157)
(0 -0.006166767 0.50152485)
(0 -0.0075531649 0.50196253)
(0 -0.0093323022 0.50259839)
(0 -0.01167875 0.50357307)
(0 -0.014987596 0.50517768)
(0 -0.019144864 0.50786717)
(0 -0.02437469 0.51637114)
(0 -0.046614974 0.53915173)
(0 -0.03048166 0.41566449)
(0 0.034418812 0.36292505)
(0 0.062885798 0.55482412)
(0 0.038323271 0.53733184)
(0 0.029215037 0.51845654)
(0 0.023269328 0.51193491)
(0 0.018482536 0.50843193)
(0 0.014995589 0.50618357)
(0 0.012272337 0.50466713)
(0 0.010122672 0.50361244)
(0 0.0084078225 0.50286298)
(0 0.0070137736 0.50231824)
(0 0.0058604231 0.50191512)
(0 0.004889764 0.50161289)
(0 0.0040585435 0.50138429)
(0 0.0033340978 0.50121074)
(0 0.0026912946 0.5010794)
(0 0.0021103477 0.5009813)
(0 0.001575265 0.50091022)
(0 0.0010727085 0.5008619)
(0 0.00059112569 0.50083363)
(0 0.00012006091 0.50082389)
(0 -0.00035044549 0.50083226)
(0 -0.00083040691 0.50085937)
(0 -0.0013304251 0.50090695)
(0 -0.001862318 0.50097803)
(0 -0.0024398529 0.50107727)
(0 -0.0030796758 0.50121151)
(0 -0.0038025509 0.50139066)
(0 -0.004635076 0.50162904)
(0 -0.0056120614 0.50194764)
(0 -0.0067797308 0.50237767)
(0 -0.0082010965 0.50296722)
(0 -0.0099651074 0.50379265)
(0 -0.012181572 0.5049729)
(0 -0.014988168 0.50671034)
(0 -0.018795885 0.50940897)
(0 -0.023600829 0.51425042)
(0 -0.029794102 0.52811331)
(0 -0.049091569 0.54434522)
(0 -0.027919914 0.37396149)
(0 0.026985665 0.31683758)
(0 0.061024859 0.55095266)
(0 0.043057322 0.5512301)
(0 0.032716509 0.52734381)
(0 0.026283619 0.51762308)
(0 0.021352045 0.51278943)
(0 0.017620105 0.50958038)
(0 0.014599161 0.50733142)
(0 0.012165579 0.50573491)
(0 0.010187886 0.5045818)
(0 0.0085539298 0.50373313)
(0 0.007184604 0.50309944)
(0 0.00601989 0.50262106)
(0 0.0050135738 0.50225729)
(0 0.0041299759 0.50197994)
(0 0.0033410986 0.50176933)
(0 0.0026245334 0.50161159)
(0 0.0019619233 0.50149701)
(0 0.0013377901 0.50141895)
(0 0.00073861421 0.50137312)
(0 0.00015209127 0.50135715)
(0 -0.00043352708 0.50137037)
(0 -0.001030045 0.50141374)
(0 -0.0016499046 0.50148999)
(0 -0.0023068751 0.50160385)
(0 -0.0030168378 0.50176258)
(0 -0.0037987533 0.50197679)
(0 -0.0046759084 0.50226166)
(0 -0.0056775777 0.50263899)
(0 -0.0068412742 0.50314019)
(0 -0.0082153606 0.5038111)
(0 -0.0098628103 0.50471997)
(0 -0.011871739 0.50597223)
(0 -0.014349732 0.50772702)
(0 -0.017387314 0.51021714)
(0 -0.021354436 0.51392074)
(0 -0.026543744 0.52100676)
(0 -0.033745904 0.53905447)
(0 -0.048759054 0.54233163)
(0 -0.023426917 0.33323904)
(0 0.019352305 0.27817139)
(0 0.056350455 0.54118906)
(0 0.045220079 0.56225797)
(0 0.034715675 0.53625946)
(0 0.028059331 0.52329851)
(0 0.02322289 0.51717505)
(0 0.019446273 0.51310812)
(0 0.016306516 0.51017916)
(0 0.013733105 0.50805749)
(0 0.011602108 0.50649853)
(0 0.0098118354 0.5053356)
(0 0.0082904352 0.50445814)
(0 0.0069806093 0.50379017)
(0 0.0058370729 0.50327878)
(0 0.0048240745 0.50288678)
(0 0.0039129288 0.50258777)
(0 0.003080241 0.50236301)
(0 0.0023065408 0.50219925)
(0 0.0015751939 0.50208734)
(0 0.00087152312 0.50202137)
(0 0.00018207933 0.50199806)
(0 -0.00050601502 0.50201645)
(0 -0.0012056873 0.50207788)
(0 -0.0019304903 0.50218608)
(0 -0.0026952927 0.50234754)
(0 -0.0035170381 0.50257218)
(0 -0.0044156582 0.50287436)
(0 -0.0054152053 0.5032745)
(0 -0.0065452925 0.50380144)
(0 -0.0078430721 0.50449617)
(0 -0.0093553778 0.50541735)
(0 -0.011140475 0.50664967)
(0 -0.013279002 0.50831987)
(0 -0.015876451 0.51061604)
(0 -0.018990601 0.51379157)
(0 -0.022923123 0.51845476)
(0 -0.028255087 0.52785981)
(0 -0.035894025 0.54829605)
(0 -0.046246925 0.53558987)
(0 -0.018273564 0.2980295)
(0 0.012563798 0.24668675)
(0 0.049802802 0.52770706)
(0 0.044899401 0.56995259)
(0 0.035390271 0.54487194)
(0 0.028808482 0.52889014)
(0 0.024223174 0.52142656)
(0 0.020562353 0.51659634)
(0 0.017448683 0.51306499)
(0 0.014851356 0.51046185)
(0 0.012659412 0.50852012)
(0 0.010787242 0.50705372)
(0 0.0091730486 0.50593578)
(0 0.0077651129 0.50507727)
(0 0.0065218159 0.50441518)
(0 0.0054095474 0.50390458)
(0 0.004400704 0.50351316)
(0 0.003472324 0.50321769)
(0 0.0026049642 0.50300161)
(0 0.0017817682 0.50285344)
(0 0.00098769175 0.50276567)
(0 0.00020884438 0.50273413)
(0 -0.00056811617 0.50275759)
(0 -0.0013565687 0.50283772)
(0 -0.0021704535 0.50297922)
(0 -0.0030249144 0.50319022)
(0 -0.0039369758 0.50348312)
(0 -0.0049263406 0.50387574)
(0 -0.0060163498 0.50439315)
(0 -0.0072351273 0.50507036)
(0 -0.0086172063 0.50595641)
(0 -0.010205489 0.50712044)
(0 -0.012051257 0.50866037)
(0 -0.014222997 0.5107187)
(0 -0.016818894 0.51350402)
(0 -0.019875275 0.51729975)
(0 -0.023628946 0.52295027)
(0 -0.028848429 0.53462358)
(0 -0.036124388 0.55533954)
(0 -0.04204068 0.52565344)
(0 -0.013165604 0.26847147)
(0 0.0072199026 0.22100764)
(0 0.042465865 0.51196856)
(0 0.04270244 0.57422843)
(0 0.03495159 0.55267925)
(0 0.02870444 0.53426069)
(0 0.024473387 0.52544134)
(0 0.021059047 0.51993662)
(0 0.018089289 0.5158894)
(0 0.015561521 0.5128611)
(0 0.013385546 0.51057368)
(0 0.011495333 0.50882783)
(0 0.0098405716 0.50748413)
(0 0.008377134 0.50644353)
(0 0.0070689486 0.50563519)
(0 0.0058861029 0.50500794)
(0 0.0048034144 0.50452454)
(0 0.0037994947 0.50415799)
(0 0.0028558887 0.50388886)
(0 0.0019563383 0.50370357)
(0 0.0010861515 0.50359321)
(0 0.00023165018 0.50355278)
(0 -0.00062034801 0.5035808)
(0 -0.0014830432 0.50367922)
(0 -0.0023700944 0.50385356)
(0 -0.0032961772 0.50411343)
(0 -0.0042775422 0.50447334)
(0 -0.0053326606 0.50495404)
(0 -0.0064829841 0.50558451)
(0 -0.0077537741 0.50640479)
(0 -0.009175265 0.50747034)
(0 -0.010784514 0.50885858)
(0 -0.012624332 0.51067805)
(0 -0.014747862 0.51308314)
(0 -0.017238011 0.51629508)
(0 -0.020115824 0.52064012)
(0 -0.023580732 0.52728335)
(0 -0.028477417 0.54091447)
(0 -0.03475488 0.55989168)
(0 -0.036841326 0.51360197)
(0 -0.0086444474 0.24376285)
(0 0.003414929 0.20052747)
(0 0.035158888 0.49533589)
(0 0.039312467 0.57541114)
(0 0.033652541 0.55924349)
(0 0.027949603 0.53921608)
(0 0.024129865 0.52911915)
(0 0.021046147 0.52303403)
(0 0.018304494 0.51856752)
(0 0.015917555 0.51518236)
(0 0.013819244 0.51259725)
(0 0.011963599 0.51060568)
(0 0.01031234 0.50905949)
(0 0.0088302922 0.50785264)
(0 0.0074881205 0.50690865)
(0 0.006260649 0.50617166)
(0 0.0051260831 0.50560067)
(0 0.0040654718 0.50516567)
(0 0.0030621095 0.50484493)
(0 0.002101015 0.50462316)
(0 0.0011684631 0.50449025)
(0 0.00025155991 0.50444051)
(0 -0.00066216509 0.50447221)
(0 -0.0015851764 0.50458751)
(0 -0.0025302692 0.5047926)
(0 -0.003511018 0.50509826)
(0 -0.0045421944 0.50552068)
(0 -0.0056402384 0.50608294)
(0 -0.0068238023 0.506817)
(0 -0.0081142767 0.50776673)
(0 -0.0095364114 0.50899232)
(0 -0.011119929 0.51057715)
(0 -0.012898179 0.51263747)
(0 -0.014908173 0.5153355)
(0 -0.0172127 0.51889785)
(0 -0.019822289 0.52370646)
(0 -0.022925728 0.53127898)
(0 -0.027336495 0.54634239)
(0 -0.032228125 0.56199865)
(0 -0.031249316 0.50052139)
(0 -0.0049704919 0.2235998)
(0 0.00090448185 0.18480998)
(0 0.028343703 0.47898234)
(0 0.035253614 0.57409727)
(0 0.031715247 0.56435678)
(0 0.026732527 0.5436105)
(0 0.023356911 0.53239262)
(0 0.020643679 0.52581842)
(0 0.018180391 0.52103187)
(0 0.015982944 0.51736664)
(0 0.014007768 0.51453989)
(0 0.012227156 0.5123434)
(0 0.010614553 0.51062438)
(0 0.009144249 0.50927276)
(0 0.0077941545 0.5082085)
(0 0.0065444174 0.50737268)
(0 0.0053772618 0.5067217)
(0 0.004276775 0.50622342)
(0 0.003228564 0.50585441)
(0 0.0022194498 0.50559808)
(0 0.0012371664 0.5054434)
(0 0.00027007321 0.50538413)
(0 -0.00069312963 0.50541831)
(0 -0.0016637089 0.50554824)
(0 -0.0026531182 0.50578058)
(0 -0.003673324 0.50612693)
(0 -0.0047370723 0.50660469)
(0 -0.0058581759 0.50723854)
(0 -0.0070518357 0.50806248)
(0 -0.0083349019 0.5091229)
(0 -0.0097259753 0.51048299)
(0 -0.011246618 0.51222962)
(0 -0.012920327 0.51448348)
(0 -0.014769053 0.51741041)
(0 -0.016834716 0.5212386)
(0 -0.019120511 0.52641942)
(0 -0.021814361 0.53479844)
(0 -0.025603601 0.55066947)
(0 -0.028926752 0.56197619)
(0 -0.025653437 0.48739721)
(0 -0.002138291 0.20780334)
(0 -0.00063838104 0.17319598)
(0 0.022246942 0.46371225)
(0 0.030897557 0.57092757)
(0 0.029323134 0.56799524)
(0 0.025195974 0.54736172)
(0 0.022288731 0.5352361)
(0 0.019957616 0.52825622)
(0 0.017797359 0.52324125)
(0 0.015818684 0.5193737)
(0 0.013996673 0.51636445)
(0 0.012319489 0.51400763)
(0 0.01077154 0.51214937)
(0 0.0093363564 0.51067816)
(0 0.0079990531 0.50951239)
(0 0.0067453063 0.50859154)
(0 0.0055616796 0.5078706)
(0 0.0044356541 0.50731614)
(0 0.0033555184 0.50690367)
(0 0.0023102637 0.50661574)
(0 0.0012894436 0.50644068)
(0 0.00028302476 0.50637183)
(0 -0.00071877215 0.50640707)
(0 -0.0017256625 0.50654872)
(0 -0.0027473997 0.5068037)
(0 -0.0037939697 0.50718408)
(0 -0.0048757084 0.50770796)
(0 -0.0060034082 0.50840087)
(0 -0.0071884188 0.50929787)
(0 -0.0084426895 0.51044656)
(0 -0.0097784508 0.51191141)
(0 -0.011208912 0.51378056)
(0 -0.012747688 0.51617595)
(0 -0.014403157 0.51926352)
(0 -0.016197952 0.52327332)
(0 -0.018128983 0.52873721)
(0 -0.020377961 0.53775506)
(0 -0.023442391 0.55380114)
(0 -0.02517377 0.56023387)
(0 -0.020304042 0.47493539)
(0 -3.2407134e-05 0.19598189)
(0 -0.001490088 0.1649564)
(0 0.016963164 0.44998286)
(0 0.026521662 0.56646867)
(0 0.026645078 0.57023462)
(0 0.02344846 0.55042313)
(0 0.021025882 0.53764513)
(0 0.01907247 0.53034096)
(0 0.017222199 0.52517803)
(0 0.015476193 0.52118144)
(0 0.013823852 0.51804783)
(0 0.012267211 0.5155759)
(0 0.010800788 0.51361354)
(0 0.0094167564 0.51204981)
(0 0.0081070878 0.51080316)
(0 0.0068629133 0.50981289)
(0 0.0056751973 0.50903358)
(0 0.0045349503 0.50843137)
(0 0.003433326 0.50798127)
(0 0.0023616954 0.50766541)
(0 0.0013116522 0.50747178)
(0 0.00027499685 0.50739346)
(0 -0.00075630147 0.50742816)
(0 -0.0017901755 0.50757816)
(0 -0.0028344503 0.50785042)
(0 -0.0038969048 0.50825711)
(0 -0.0049852472 0.50881649)
(0 -0.0061070526 0.50955426)
(0 -0.0072696553 0.51050557)
(0 -0.0084799985 0.51171797)
(0 -0.0097440024 0.51325569)
(0 -0.011066723 0.51520617)
(0 -0.012452037 0.51768993)
(0 -0.013895808 0.52087017)
(0 -0.015404013 0.52498148)
(0 -0.016967058 0.53064006)
(0 -0.018747595 0.54009443)
(0 -0.021034479 0.55573758)
(0 -0.021275472 0.55717327)
(0 -0.015388346 0.46354594)
(0 0.001445123 0.18760769)
(0 -0.0018509819 0.15942935)
(0 0.012509271 0.43801142)
(0 0.0223462 0.56119497)
(0 0.023853362 0.57121144)
(0 0.021596161 0.55277607)
(0 0.01966214 0.53962266)
(0 0.01807083 0.53207994)
(0 0.016523392 0.52684048)
(0 0.015010303 0.52278224)
(0 0.013531489 0.51957939)
(0 0.012101395 0.51703626)
(0 0.010723798 0.5150046)
(0 0.0093987985 0.51337567)
(0 0.0081247567 0.51206939)
(0 0.0068979943 0.511026)
(0 0.0057137341 0.51020066)
(0 0.0045664609 0.50955976)
(0 0.0034502041 0.50907842)
(0 0.002358765 0.50873872)
(0 0.0012858519 0.50852859)
(0 0.00022518933 0.50844098)
(0 -0.00082941185 0.50847348)
(0 -0.0018840074 0.50862822)
(0 -0.0029444108 0.50891199)
(0 -0.0040161266 0.50933672)
(0 -0.0051041951 0.50992034)
(0 -0.006212979 0.51068803)
(0 -0.0073458595 0.51167416)
(0 -0.0085049073 0.51292509)
(0 -0.0096900021 0.51450337)
(0 -0.010898492 0.51649404)
(0 -0.01212494 0.51901396)
(0 -0.01335332 0.52222116)
(0 -0.014575876 0.52635771)
(0 -0.015776516 0.53212062)
(0 -0.017082275 0.54179128)
(0 -0.0185953 0.55655069)
(0 -0.017536411 0.55316216)
(0 -0.011059348 0.45341547)
(0 0.0023457554 0.18212797)
(0 -0.0018608558 0.1560194)
(0 0.0088590608 0.42785564)
(0 0.018553284 0.55548695)
(0 0.02113474 0.57110095)
(0 0.019777006 0.5544359)
(0 0.018321233 0.54118001)
(0 0.017066339 0.53348985)
(0 0.015801372 0.52823941)
(0 0.014507492 0.52418119)
(0 0.013192957 0.52096051)
(0 0.011883614 0.51838759)
(0 0.010591597 0.51631973)
(0 0.0093242162 0.51465186)
(0 0.0080856526 0.51330661)
(0 0.0068769983 0.51222615)
(0 0.0056974213 0.51136703)
(0 0.0045446573 0.51069656)
(0 0.0034154602 0.51019044)
(0 0.0023059601 0.5098311)
(0 0.0012119116 0.50960662)
(0 0.00012891374 0.50950999)
(0 -0.00094742655 0.50953866)
(0 -0.0020213377 0.50969456)
(0 -0.0030966923 0.50998411)
(0 -0.0041768229 0.5104187)
(0 -0.0052642537 0.51101545)
(0 -0.0063603558 0.51179843)
(0 -0.0074648681 0.5128004)
(0 -0.0085753993 0.51406556)
(0 -0.0096863393 0.51565346)
(0 -0.010788053 0.51764511)
(0 -0.011866713 0.52015177)
(0 -0.012895108 0.5233242)
(0 -0.013854068 0.52741383)
(0 -0.014722602 0.53318971)
(0 -0.015571986 0.54285855)
(0 -0.016355848 0.55636455)
(0 -0.014233091 0.54851814)
(0 -0.0074321705 0.44458066)
(0 0.0027108575 0.17896159)
(0 -0.0016252546 0.15417979)
(0 0.0059660481 0.41945914)
(0 0.015287623 0.54961181)
(0 0.018688848 0.57008088)
(0 0.018174411 0.55544601)
(0 0.017174399 0.54234039)
(0 0.016220232 0.53459861)
(0 0.015204223 0.52939906)
(0 0.014101547 0.52539687)
(0 0.012928881 0.52220534)
(0 0.011722598 0.51964045)
(0 0.010502213 0.51756662)
(0 0.0092814877 0.51588392)
(0 0.008069711 0.51451874)
(0 0.0068721624 0.51341612)
(0 0.0056914816 0.51253469)
(0 0.0045282807 0.51184324)
(0 0.0033817449 0.5113185)
(0 0.0022500976 0.51094357)
(0 0.001130946 0.5107069)
(0 2.1590175e-05 0.51060158)
(0 -0.0010807348 0.51062504)
(0 -0.002178613 0.51077888)
(0 -0.0032741867 0.511069)
(0 -0.0043688806 0.511506)
(0 -0.0054630397 0.51210581)
(0 -0.0065554814 0.51289086)
(0 -0.0076428735 0.51389167)
(0 -0.008719086 0.51514934)
(0 -0.0097739494 0.51671934)
(0 -0.010791943 0.51867713)
(0 -0.011752384 0.52112659)
(0 -0.012618357 0.52420974)
(0 -0.013360357 0.52818703)
(0 -0.013955378 0.53388566)
(0 -0.014396432 0.54334716)
(0 -0.014509195 0.5553214)
(0 -0.011554095 0.54347937)
(0 -0.0045588439 0.43699231)
(0 0.0026128633 0.17748133)
(0 -0.0012383502 0.15342237)
(0 0.0037779891 0.412678)
(0 0.01263649 0.5437058)
(0 0.016695028 0.56828829)
(0 0.016981574 0.55585599)
(0 0.016408286 0.54313743)
(0 0.015710769 0.53544711)
(0 0.014898257 0.53035771)
(0 0.013946678 0.52646131)
(0 0.012883047 0.52334023)
(0 0.011752905 0.5208163)
(0 0.010582087 0.51876275)
(0 0.0093899054 0.51708614)
(0 0.0081898438 0.51571766)
(0 0.006990628 0.51460597)
(0 0.0057977555 0.51371238)
(0 0.0046142202 0.51300766)
(0 0.0034412393 0.51246989)
(0 0.0022788005 0.51208311)
(0 0.0011260836 0.51183632)
(0 -1.8166485e-05 0.51172286)
(0 -0.0011553362 0.5117401)
(0 -0.0022866363 0.51188931)
(0 -0.0034127862 0.51217578)
(0 -0.004533678 0.51260908)
(0 -0.0056479466 0.51320372)
(0 -0.006752457 0.51398011)
(0 -0.0078415804 0.51496599)
(0 -0.0089064277 0.51619872)
(0 -0.0099335502 0.51772878)
(0 -0.010903037 0.5196249)
(0 -0.011789298 0.52198202)
(0 -0.012548493 0.52493256)
(0 -0.013140733 0.52874284)
(0 -0.013542314 0.53427498)
(0 -0.013648268 0.54333057)
(0 -0.013140212 0.553548)
(0 -0.009540509 0.5381871)
(0 -0.0024300711 0.4305885)
(0 0.0021633585 0.17708722)
(0 -0.00079251076 0.15333479)
(0 0.0022434043 0.40729984)
(0 0.010602525 0.53779387)
(0 0.015246521 0.56579751)
(0 0.016313513 0.55569895)
(0 0.016140105 0.54360886)
(0 0.015653088 0.53608639)
(0 0.014992246 0.53116384)
(0 0.014146621 0.5274155)
(0 0.013155874 0.52439909)
(0 0.012072465 0.521943)
(0 0.010927404 0.51993104)
(0 0.009744418 0.51827759)
(0 0.0085401166 0.51691946)
(0 0.0073258315 0.51580957)
(0 0.0061092266 0.51491239)
(0 0.0048951268 0.51420098)
(0 0.0036863418 0.51365508)
(0 0.0024842623 0.51325983)
(0 0.0012893366 0.51300494)
(0 0.00010147798 0.51288408)
(0 -0.0010795899 0.5128946)
(0 -0.0022539922 0.51303746)
(0 -0.003421352 0.51331723)
(0 -0.0045804257 0.51374241)
(0 -0.0057286367 0.5143259)
(0 -0.006861534 0.51508589)
(0 -0.0079720222 0.51604706)
(0 -0.0090495044 0.51724262)
(0 -0.010078651 0.51871752)
(0 -0.011036877 0.52053295)
(0 -0.011895621 0.5227737)
(0 -0.012607847 0.52556208)
(0 -0.013123002 0.52916401)
(0 -0.013412781 0.53443916)
(0 -0.013264754 0.54288385)
(0 -0.01218107 0.55114576)
(0 -0.0080678373 0.53270763)
(0 -0.0010134687 0.42524353)
(0 0.0015210538 0.17728216)
(0 -0.00037326614 0.15358762)
(0 0.0013009837 0.40306877)
(0 0.0090952631 0.53186057)
(0 0.014288264 0.56263968)
(0 0.016115251 0.55498525)
(0 0.016324847 0.54378744)
(0 0.01601171 0.53656772)
(0 0.015456342 0.53186622)
(0 0.01467855 0.52829961)
(0 0.013732007 0.52541399)
(0 0.012673281 0.52304604)
(0 0.011537391 0.52109183)
(0 0.010351204 0.51947459)
(0 0.0091334017 0.51813746)
(0 0.007897116 0.51703803)
(0 0.0066515237 0.51614422)
(0 0.0054027784 0.51543162)
(0 0.004154887 0.51488178)
(0 0.0029103293 0.51448109)
(0 0.001670563 0.51422005)
(0 0.00043644329 0.51409271)
(0 -0.00079141306 0.51409648)
(0 -0.0020122716 0.51423198)
(0 -0.0032249194 0.51450312)
(0 -0.0044272921 0.51491728)
(0 -0.0056160019 0.51548574)
(0 -0.0067857974 0.51622437)
(0 -0.0079287983 0.51715477)
(0 -0.0090335714 0.51830586)
(0 -0.010084061 0.51971682)
(0 -0.011056584 0.521441)
(0 -0.011921024 0.52355224)
(0 -0.012630608 0.526162)
(0 -0.01312461 0.52952653)
(0 -0.013360776 0.53445236)
(0 -0.013025588 0.54207279)
(0 -0.011432933 0.54821543)
(0 -0.0069394634 0.52712343)
(0 -0.00018954115 0.42082093)
(0 0.00091056805 0.17768885)
(0 -4.3945515e-05 0.15393303)
(0 0.00085503696 0.39973387)
(0 0.0079593889 0.52594175)
(0 0.013612449 0.55885943)
(0 0.016139737 0.55371986)
(0 0.016724788 0.54369274)
(0 0.016570161 0.53692728)
(0 0.01609478 0.53249936)
(0 0.015366808 0.52914003)
(0 0.014453998 0.52640371)
(0 0.01341462 0.5241384)
(0 0.012286707 0.52225368)
(0 0.011099119 0.52068241)
(0 0.0098718223 0.51937446)
(0 0.0086191498 0.51829236)
(0 0.0073513198 0.51740764)
(0 0.0060754657 0.5166985)
(0 0.0047965288 0.51614837)
(0 0.0035178792 0.51574497)
(0 0.0022418299 0.5154796)
(0 0.0009700544 0.51534679)
(0 -0.00029604918 0.51534402)
(0 -0.0015549996 0.51547163)
(0 -0.002804877 0.51573288)
(0 -0.0040429541 0.51613407)
(0 -0.0052652417 0.51668492)
(0 -0.0064659612 0.51739907)
(0 -0.0076368201 0.51829508)
(0 -0.0087660399 0.5193977)
(0 -0.0098374463 0.52074036)
(0 -0.010827308 0.52236854)
(0 -0.011704584 0.52434483)
(0 -0.012424599 0.52676829)
(0 -0.012918018 0.529874)
(0 -0.013118409 0.53436094)
(0 -0.012634341 0.54095807)
(0 -0.010636624 0.54489449)
(0 -0.0059443993 0.52160691)
(0 0.00019272566 0.41724581)
(0 0.00043674888 0.17806118)
(0 0.00017424766 0.15421264)
(0 0.00077144667 0.3970939)
(0 0.0070277664 0.52017792)
(0 0.01293648 0.55457683)
(0 0.016032623 0.55193513)
(0 0.016981715 0.54333032)
(0 0.016994528 0.53717328)
(0 0.016603722 0.53307081)
(0 0.01593487 0.52993884)
(0 0.015068827 0.52736517)
(0 0.014064406 0.52521339)
(0 0.012961994 0.5234073)
(0 0.011791722 0.52188984)
(0 0.010574494 0.52061792)
(0 0.0093255717 0.5195591)
(0 0.0080560151 0.51868853)
(0 0.0067738087 0.51798704)
(0 0.0054847412 0.51743999)
(0 0.0041930229 0.5170364)
(0 0.0029017961 0.51676845)
(0 0.0016135464 0.51663113)
(0 0.00033046147 0.51662203)
(0 -0.00094522015 0.51674126)
(0 -0.0022108587 0.51699147)
(0 -0.003463053 0.51737795)
(0 -0.0046972135 0.51790893)
(0 -0.0059070434 0.51859596)
(0 -0.0070838662 0.51945468)
(0 -0.0082156269 0.52050584)
(0 -0.0092860415 0.52177726)
(0 -0.010271662 0.52330667)
(0 -0.011140525 0.52514537)
(0 -0.011849857 0.52737758)
(0 -0.01232411 0.53020527)
(0 -0.012467958 0.53417635)
(0 -0.011849461 0.53960539)
(0 -0.0095906582 0.54137261)
(0 -0.0049410324 0.51640346)
(0 0.00028461912 0.4144376)
(0 0.00012275203 0.17830147)
(0 0.00029128033 0.15435958)
(0 0.00089699347 0.39500035)
(0 0.006178517 0.51479501)
(0 0.012029418 0.55001418)
(0 0.015485865 0.5497193)
(0 0.016763633 0.54270227)
(0 0.016966151 0.53728581)
(0 0.016690249 0.53355856)
(0 0.016113041 0.53067214)
(0 0.015326404 0.52827276)
(0 0.014389717 0.5262445)
(0 0.013345356 0.52452576)
(0 0.012224475 0.52306977)
(0 0.011048974 0.52184066)
(0 0.0098350704 0.52081105)
(0 0.008594722 0.51995972)
(0 0.0073368299 0.51927014)
(0 0.0060680975 0.51872956)
(0 0.0047936486 0.51832832)
(0 0.0035175319 0.51805948)
(0 0.002243129 0.51791851)
(0 0.00097350871 0.51790313)
(0 -0.00028823139 0.51801324)
(0 -0.0015386258 0.51825094)
(0 -0.0027734725 0.51862056)
(0 -0.0039874396 0.5191289)
(0 -0.0051735441 0.51978553)
(0 -0.0063225183 0.52060328)
(0 -0.0074218176 0.52159906)
(0 -0.0084546939 0.52279521)
(0 -0.0093977682 0.52422177)
(0 -0.010218008 0.52591879)
(0 -0.010873231 0.52795307)
(0 -0.011284775 0.53048366)
(0 -0.011333038 0.53388671)
(0 -0.010589941 0.5380936)
(0 -0.008240605 0.53787538)
(0 -0.0039014829 0.51177249)
(0 0.00022556983 0.41230126)
(0 -4.0865914e-05 0.17841265)
(0 0.00033018185 0.1543784)
(0 0.0010901594 0.39334879)
(0 0.0053662879 0.51003211)
(0 0.010810429 0.54546737)
(0 0.014370439 0.54722189)
(0 0.015903823 0.54182525)
(0 0.016310954 0.53723245)
(0 0.016188151 0.53392234)
(0 0.015743575 0.53129956)
(0 0.015076352 0.52908685)
(0 0.01424663 0.52719316)
(0 0.013298376 0.52557156)
(0 0.01226374 0.5241857)
(0 0.011165804 0.52300703)
(0 0.010021895 0.52201326)
(0 0.0088450413 0.52118682)
(0 0.0076452095 0.52051382)
(0 0.0064301518 0.51998339)
(0 0.0052060274 0.51958722)
(0 0.0039779055 0.51931924)
(0 0.0027501746 0.51917542)
(0 0.0015268962 0.51915364)
(0 0.00031214822 0.5192536)
(0 -0.00088965217 0.51947685)
(0 -0.0020733588 0.51982682)
(0 -0.0032327257 0.52030893)
(0 -0.0043598887 0.52093079)
(0 -0.0054447439 0.52170252)
(0 -0.0064740046 0.52263728)
(0 -0.0074301234 0.52375202)
(0 -0.0082894624 0.52506909)
(0 -0.0090181471 0.52661748)
(0 -0.0095736506 0.52844479)
(0 -0.0098779817 0.53066225)
(0 -0.0098000672 0.53348023)
(0 -0.0089561773 0.53651574)
(0 -0.0066846172 0.53462352)
(0 -0.0028889021 0.5079126)
(0 0.00012675993 0.41073915)
(0 -8.610705e-05 0.17843261)
(0 0.00032090226 0.15431125)
(0 0.0012535809 0.39206635)
(0 0.0046102614 0.50605955)
(0 0.0093624923 0.54123541)
(0 0.01277367 0.54463059)
(0 0.014455228 0.5407444)
(0 0.015056097 0.53699172)
(0 0.015110488 0.53412434)
(0 0.014829591 0.53178128)
(0 0.01431403 0.52976817)
(0 0.013623959 0.52802106)
(0 0.01280409 0.52650757)
(0 0.011887336 0.52520164)
(0 0.01089794 0.52408203)
(0 0.009854383 0.52313155)
(0 0.0087708517 0.5223363)
(0 0.0076584702 0.52168504)
(0 0.0065261229 0.52116884)
(0 0.0053810823 0.52078072)
(0 0.004229509 0.52051552)
(0 0.0030768648 0.52036972)
(0 0.0019282681 0.52034135)
(0 0.00078884214 0.52042996)
(0 -0.00033597086 0.52063656)
(0 -0.0014400144 0.52096367)
(0 -0.0025160404 0.52141538)
(0 -0.0035552187 0.52199735)
(0 -0.0045465104 0.52271704)
(0 -0.005475817 0.52358392)
(0 -0.0063247844 0.52460973)
(0 -0.0070695003 0.52580927)
(0 -0.0076760959 0.52720088)
(0 -0.00810212 0.52881302)
(0 -0.008274423 0.53071043)
(0 -0.0080663899 0.53296492)
(0 -0.0071660238 0.53496949)
(0 -0.0051070411 0.53178627)
(0 -0.0019958087 0.50490299)
(0 5.4444409e-05 0.40965568)
(0 -6.498458e-05 0.17840859)
(0 0.0002920288 0.15420827)
(0 0.0013469486 0.3910917)
(0 0.0039563345 0.50292859)
(0 0.0078669327 0.53754505)
(0 0.010933201 0.54213033)
(0 0.01264102 0.53953358)
(0 0.013393461 0.53657061)
(0 0.013620893 0.53414806)
(0 0.013511686 0.53209421)
(0 0.013161077 0.53029135)
(0 0.012627065 0.52870191)
(0 0.011953624 0.52730726)
(0 0.011173712 0.52609119)
(0 0.010312293 0.52503951)
(0 0.0093887517 0.52414006)
(0 0.0084183029 0.52338257)
(0 0.0074131411 0.5227585)
(0 0.0063832286 0.52226082)
(0 0.0053369113 0.52188394)
(0 0.0042814091 0.5216236)
(0 0.0032232268 0.52147683)
(0 0.002168509 0.52144183)
(0 0.0011233881 0.52151799)
(0 9.4297924e-05 0.52170581)
(0 -0.00091165116 0.52200694)
(0 -0.0018862729 0.52242412)
(0 -0.0028198667 0.52296114)
(0 -0.0037005981 0.52362288)
(0 -0.0045137705 0.52441525)
(0 -0.0052406332 0.52534508)
(0 -0.005857478 0.52642016)
(0 -0.0063317814 0.52764907)
(0 -0.0066228992 0.52904321)
(0 -0.0066663716 0.53062776)
(0 -0.006353379 0.53237369)
(0 -0.0054541851 0.53354078)
(0 -0.003690239 0.52945161)
(0 -0.0012889622 0.50269336)
(0 2.5683563e-05 0.40894421)
(0 -2.6402487e-05 0.17838097)
(0 0.00026320895 0.15410786)
(0 0.001375046 0.39036293)
(0 0.0034402652 0.50057295)
(0 0.0065090097 0.5345069)
(0 0.009120342 0.53986466)
(0 0.01074422 0.53828135)
(0 0.011583997 0.53600725)
(0 0.011951808 0.53400632)
(0 0.011996733 0.53224007)
(0 0.011802304 0.53065216)
(0 0.01142138 0.52922772)
(0 0.010895295 0.52796028)
(0 0.010255872 0.52684248)
(0 0.0095279537 0.52586662)
(0 0.0087312713 0.52502531)
(0 0.007881672 0.52431178)
(0 0.00699213 0.52372007)
(0 0.0060734626 0.5232451)
(0 0.0051349079 0.52288262)
(0 0.0041845889 0.52262932)
(0 0.0032299113 0.52248276)
(0 0.0022779085 0.52244133)
(0 0.0013355775 0.5225043)
(0 0.00041019111 0.5226717)
(0 -0.00049036208 0.52294431)
(0 -0.0013571763 0.5233236)
(0 -0.002179945 0.52381162)
(0 -0.0029463924 0.5244108)
(0 -0.0036416822 0.5251238)
(0 -0.0042473717 0.52595308)
(0 -0.0047408062 0.52690033)
(0 -0.0050922655 0.52796591)
(0 -0.005265146 0.52914778)
(0 -0.0052064065 0.53044176)
(0 -0.0048322729 0.53175548)
(0 -0.0039907459 0.53228977)
(0 -0.002550646 0.52762515)
(0 -0.00078827944 0.5011448)
(0 2.9398182e-05 0.40849367)
(0 6.623363e-06 0.1783735)
(0 0.00024350756 0.15402926)
(0 0.0013636696 0.38981832)
(0 0.0030687664 0.4988506)
(0 0.005407553 0.53211643)
(0 0.0075402649 0.53791493)
(0 0.0090019196 0.53707104)
(0 0.0098599855 0.53535954)
(0 0.010318137 0.53373623)
(0 0.010481147 0.53224317)
(0 0.010416753 0.53086651)
(0 0.010169947 0.52960849)
(0 0.0097775922 0.5284724)
(0 0.009269038 0.52745823)
(0 0.0086679809 0.52656388)
(0 0.0079937421 0.52578619)
(0 0.0072622305 0.52512164)
(0 0.006486754 0.52456669)
(0 0.0056786292 0.52411807)
(0 0.0048476893 0.52377288)
(0 0.0040027041 0.5235287)
(0 0.0031517454 0.52338362)
(0 0.002302511 0.52333628)
(0 0.0014626358 0.52338581)
(0 0.000639989 0.52353184)
(0 -0.00015702312 0.52377437)
(0 -0.00091909494 0.52411372)
(0 -0.0016356805 0.52455034)
(0 -0.0022945309 0.52508453)
(0 -0.0028812386 0.52571615)
(0 -0.0033784423 0.52644401)
(0 -0.0037654639 0.52726501)
(0 -0.0040165563 0.52817327)
(0 -0.0041009591 0.52915754)
(0 -0.003978136 0.53019502)
(0 -0.0035901935 0.53116041)
(0 -0.0028484229 0.53124521)
(0 -0.0017180208 0.52625183)
(0 -0.00046971257 0.5000889)
(0 4.6807515e-05 0.4082128)
(0 2.7519857e-05 0.17838931)
(0 0.00023412847 0.15397545)
(0 0.0013386939 0.38940329)
(0 0.0028209807 0.49759702)
(0 0.0045936983 0.53028878)
(0 0.0062883944 0.53630134)
(0 0.0075488538 0.53596451)
(0 0.0083673887 0.53468815)
(0 0.0088633959 0.53338635)
(0 0.0091014624 0.53214107)