/*--------------------------------*- C++ -*----------------------------------*\
  =========                 |
  \\      /  F ield         | OpenFOAM: The Open Source CFD Toolbox
   \\    /   O peration     | Website:  https://openfoam.org
    \\  /    A nd           | Version:  10
     \\/     M anipulation  |
\*---------------------------------------------------------------------------*/
FoamFile
{
    format      ascii;
    class       surfaceScalarField;
    location    "0.02";
    object      phi;
}
// * * * * * * * * * * * * * * * * * * * * * * * * * * * * * * * * * * * * * //

dimensions      [1 0 -1 0 0 0 0];

internalField   nonuniform List<scalar> 
7860
(
4.2978452e-08
5.2572958e-07
1.2100918e-08
5.9958536e-07
6.9580789e-09
5.738506e-07
5.4073756e-09
5.7025842e-07
4.106596e-09
5.7000847e-07
3.1957735e-09
5.6961849e-07
2.5561421e-09
5.6934728e-07
2.0778863e-09
5.6918589e-07
1.7084573e-09
5.6907705e-07
1.4160452e-09
5.6900002e-07
1.1790511e-09
5.689446e-07
9.8276289e-10
5.6890389e-07
8.168605e-10
5.6887349e-07
6.738656e-10
5.6885058e-07
5.4821209e-10
5.6883324e-07
4.3564386e-10
5.6882015e-07
3.3281079e-10
5.6881041e-07
2.3698881e-10
5.688034e-07
1.4587782e-10
5.6879869e-07
5.7450756e-11
5.68796e-07
-3.0170632e-11
5.687952e-07
-1.1882865e-10
5.6879623e-07
-2.1042571e-10
5.6879917e-07
-3.0703314e-10
5.6880418e-07
-4.1102665e-10
5.6881157e-07
-5.2524774e-10
5.688218e-07
-6.5322398e-10
5.6883556e-07
-7.9948198e-10
5.6885384e-07
-9.7000755e-10
5.6887812e-07
-1.1729506e-09
5.6891054e-07
-1.4197914e-09
5.6895444e-07
-1.7272432e-09
5.6901506e-07
-2.1198732e-09
5.6910025e-07
-2.6377335e-09
5.6922549e-07
-3.3635834e-09
5.694335e-07
-4.3993886e-09
5.6974347e-07
-5.6727346e-09
5.6998104e-07
-9.4383822e-09
5.7247337e-07
-3.2635938e-08
5.9190533e-07
5.36072e-07
5.8461915e-08
4.6726767e-07
3.6842387e-08
6.2120489e-07
2.2751749e-08
5.8794123e-07
1.6273327e-08
5.7673684e-07
1.2268323e-08
5.7401347e-07
9.587113e-09
5.722997e-07
7.666024e-09
5.7126837e-07
6.2282251e-09
5.7062369e-07
5.1207807e-09
5.701845e-07
4.2444876e-09
5.6987632e-07
3.5342155e-09
5.6965487e-07
2.9459482e-09
5.6949215e-07
2.4487311e-09
5.6937071e-07
2.0201436e-09
5.6927917e-07
1.6435085e-09
5.6920987e-07
1.3060755e-09
5.6915758e-07
9.9780807e-10
5.6911868e-07
7.1054566e-10
5.6909066e-07
4.3739803e-10
5.6907183e-07
1.7228831e-10
5.6906111e-07
-9.0414668e-11
5.690579e-07
-3.5621917e-10
5.6906204e-07
-6.3082056e-10
5.6907377e-07
-9.2043187e-10
5.6909379e-07
-1.2321704e-09
5.6912331e-07
-1.5745477e-09
5.6916418e-07
-1.9581311e-09
5.6921914e-07
-2.3964809e-09
5.6929219e-07
-2.9075373e-09
5.6938917e-07
-3.5157375e-09
5.6951874e-07
-4.2554267e-09
5.6969413e-07
-5.1769037e-09
5.6993654e-07
-6.3563922e-09
5.7027974e-07
-7.9110347e-09
5.7078014e-07
-1.0050459e-08
5.7157292e-07
-1.3211828e-08
5.7290484e-07
-1.8216913e-08
5.7498612e-07
-2.8394863e-08
5.8265132e-07
-4.5477572e-08
6.0898804e-07
4.9059442e-07
5.9019212e-08
4.0824846e-07
5.017207e-08
6.3005203e-07
3.3278509e-08
6.048348e-07
2.4744913e-08
5.8527044e-07
1.9278581e-08
5.794798e-07
1.5303012e-08
5.7627527e-07
1.2339995e-08
5.7423138e-07
1.0085937e-08
5.7287775e-07
8.3290161e-09
5.7194142e-07
6.9261167e-09
5.7127922e-07
5.781469e-09
5.7079952e-07
4.8285821e-09
5.7044504e-07
4.0198562e-09
5.7017944e-07
3.3204172e-09
5.6997861e-07
2.7040788e-09
5.6982621e-07
2.1506649e-09
5.69711e-07
1.6441928e-09
5.6962515e-07
1.1715981e-09
5.6956326e-07
7.2180352e-10
5.6952163e-07
2.8500864e-10
5.6949791e-07
-1.4788539e-10
5.6949079e-07
-5.8578026e-10
5.6949993e-07
-1.0378729e-09
5.6952587e-07
-1.5141742e-09
5.695701e-07
-2.0261101e-09
5.6963525e-07
-2.5872775e-09
5.6972535e-07
-3.2144549e-09
5.6984632e-07
-3.9290078e-09
5.7000675e-07
-4.7589345e-09
5.702191e-07
-5.7419251e-09
5.7050173e-07
-6.9299971e-09
5.7088221e-07
-8.3971998e-09
5.7140374e-07
-1.025312e-08
5.7213566e-07
-1.265904e-08
5.7318606e-07
-1.5845238e-08
5.7475912e-07
-2.0174303e-08
5.7723391e-07
-2.6643028e-08
5.8145485e-07
-3.8849047e-08
5.9485734e-07
-4.7561937e-08
6.1770093e-07
4.4303249e-07
5.4483609e-08
3.5376485e-07
5.7348774e-08
6.2718687e-07
4.0347251e-08
6.2183632e-07
3.06299e-08
5.9498779e-07
2.4559558e-08
5.8555015e-07
1.9903838e-08
5.8093099e-07
1.6278926e-08
5.778563e-07
1.3441849e-08
5.7571482e-07
1.1182844e-08
5.7420042e-07
9.3509462e-09
5.7311111e-07
7.8390478e-09
5.7231142e-07
6.5690876e-09
5.71715e-07
5.4834772e-09
5.7126505e-07
4.5390828e-09
5.70923e-07
3.7029329e-09
5.7066236e-07
2.9492586e-09
5.7046467e-07
2.2574099e-09
5.70317e-07
1.6103456e-09
5.7021032e-07
9.9350666e-10
5.7013847e-07
3.9394016e-10
5.7009747e-07
-2.0041965e-10
5.7008515e-07
-8.0138925e-10
5.701009e-07
-1.4211557e-09
5.7014563e-07
-2.0729284e-09
5.7022187e-07
-2.7716863e-09
5.70334e-07
-3.5351008e-09
5.7048876e-07
-4.384738e-09
5.7069596e-07
-5.3476826e-09
5.7096969e-07
-6.4588059e-09
5.7133022e-07
-7.7640136e-09
5.7180694e-07
-9.3247682e-09
5.7244296e-07
-1.1224363e-08
5.7330334e-07
-1.3578612e-08
5.7448991e-07
-1.6547555e-08
5.76155e-07
-2.0319095e-08
5.7853066e-07
-2.5153709e-08
5.8206852e-07
-3.2409074e-08
5.8871021e-07
-4.5089391e-08
6.0753766e-07
-4.6058135e-08
6.1866968e-07
3.9697435e-07
4.7814655e-08
3.0595019e-07
6.0096649e-08
6.1490487e-07
4.5376501e-08
6.3655647e-07
3.476693e-08
6.0559736e-07
2.8320996e-08
5.9199608e-07
2.3364507e-08
5.8588748e-07
1.9392696e-08
5.8182811e-07
1.6198292e-08
5.7890923e-07
1.3596593e-08
5.7680212e-07
1.1448949e-08
5.7525876e-07
9.6510237e-09
5.7410934e-07
8.1232039e-09
5.7324282e-07
6.8047655e-09
5.7258349e-07
5.6489095e-09
5.7207886e-07
4.6190094e-09
5.7169226e-07
3.6858897e-09
5.7139779e-07
2.8257968e-09
5.7117709e-07
2.0188704e-09
5.7101725e-07
1.2479652e-09
5.7090937e-07
4.9770951e-10
5.7084773e-07
-2.4628231e-10
5.7082914e-07
-9.9811614e-10
5.7085273e-07
-1.7723074e-09
5.7091982e-07
-2.5845002e-09
5.7103406e-07
-3.4522778e-09
5.7120178e-07
-4.3961407e-09
5.7143262e-07
-5.4407392e-09
5.7174056e-07
-6.6164729e-09
5.7214543e-07
-7.961598e-09
5.7267535e-07
-9.5250827e-09
5.7337042e-07
-1.1370362e-08
5.7428824e-07
-1.3579607e-08
5.7551258e-07
-1.6260448e-08
5.7717075e-07
-1.9556436e-08
5.7945099e-07
-2.3632372e-08
5.8260659e-07
-2.8793306e-08
5.8722946e-07
-3.671905e-08
5.9663596e-07
-4.845068e-08
6.1926928e-07
-4.2746433e-08
6.1296543e-07
3.5422792e-07
4.0256362e-08
2.6569383e-07
5.8993906e-08
5.9616733e-07
4.8325482e-08
6.4722489e-07
3.7522591e-08
6.1640025e-07
3.0871821e-08
5.9864685e-07
2.5847502e-08
5.9091179e-07
2.174118e-08
5.8593443e-07
1.8361018e-08
5.8228939e-07
1.555298e-08
5.7961016e-07
1.3195041e-08
5.776167e-07
1.1191457e-08
5.7611293e-07
9.4671207e-09
5.7496716e-07
7.9631032e-09
5.740875e-07
6.6326735e-09
5.7340929e-07
5.4383403e-09
5.7288659e-07
4.3495958e-09
5.7248653e-07
3.3411414e-09
5.7218555e-07
2.3914942e-09
5.7196689e-07
1.4818749e-09
5.7181899e-07
5.9529106e-10
5.7173431e-07
-2.8424936e-10
5.7170868e-07
-1.17245e-09
5.7174094e-07
-2.0854286e-09
5.718328e-07
-3.0404413e-09
5.7198907e-07
-4.0566824e-09
5.7221802e-07
-5.1562258e-09
5.7253217e-07
-6.365169e-09
5.729495e-07
-7.7150613e-09
5.7349532e-07
-9.2446894e-09
5.7420498e-07
-1.1002372e-08
5.7512811e-07
-1.3049031e-08
5.763349e-07
-1.5461582e-08
5.7792513e-07
-1.833708e-08
5.8004625e-07
-2.1800107e-08
5.8291401e-07
-2.6003014e-08
5.868095e-07
-3.135756e-08
5.92584e-07
-3.9568006e-08
6.048464e-07
-4.9080752e-08
6.2878203e-07
-3.8202022e-08
6.020867e-07
3.160259e-07
3.2816912e-08
2.3287692e-07
5.5230231e-08
5.7375401e-07
4.9212159e-08
6.5324296e-07
3.900611e-08
6.266063e-07
3.238054e-08
6.0527242e-07
2.7478679e-08
5.9581366e-07
2.3404914e-08
5.900082e-07
1.9974525e-08
5.8571978e-07
1.7071319e-08
5.8251336e-07
1.4593128e-08
5.8009489e-07
1.2456029e-08
5.7825002e-07
1.0592789e-08
5.768304e-07
8.949267e-09
5.7573103e-07
7.4813688e-09
5.7487719e-07
6.1528626e-09
5.742151e-07
4.933613e-09
5.7370578e-07
3.7981363e-09
5.7332102e-07
2.7244243e-09
5.7304061e-07
1.6929718e-09
5.7285044e-07
6.8594783e-10
5.7274134e-07
-3.1353324e-10
5.7270817e-07
-1.3220813e-09
5.7274948e-07
-2.3566961e-09
5.7286742e-07
-3.4354475e-09
5.7306783e-07
-4.578211e-09
5.7336079e-07
-5.8075119e-09
5.7376147e-07
-7.1495168e-09
5.742915e-07
-8.6352321e-09
5.7498103e-07
-1.0301952e-08
5.758717e-07
-1.2195022e-08
5.7702118e-07
-1.4370258e-08
5.7851013e-07
-1.6896867e-08
5.8045174e-07
-1.9859237e-08
5.8300862e-07
-2.3357288e-08
5.8641207e-07
-2.7528712e-08
5.9098092e-07
-3.2897005e-08
5.9795229e-07
-4.0896381e-08
6.1284578e-07
-4.7551873e-08
6.3543752e-07
-3.3086604e-08
5.8762143e-07
2.8293929e-07
2.6149705e-08
2.0672721e-07
5.0115626e-08
5.4978809e-07
4.8474998e-08
6.5488359e-07
3.9442102e-08
6.356392e-07
3.3027605e-08
6.1168692e-07
2.8373253e-08
6.0046801e-07
2.4461596e-08
5.9391985e-07
2.1091942e-08
5.8908943e-07
1.8185078e-08
5.8542023e-07
1.5662122e-08
5.8261785e-07
1.3453888e-08
5.8045826e-07
1.1503247e-08
5.7878104e-07
9.762747e-09
5.7747153e-07
8.1926559e-09
5.7644728e-07
6.7595121e-09
5.7564824e-07
5.4348416e-09
5.7503045e-07
4.1940656e-09
5.745618e-07
3.0155771e-09
5.7421909e-07
1.8799448e-09
5.7398608e-07
7.6921053e-10
5.7385207e-07
-3.3374436e-10
5.7381112e-07
-1.4457918e-09
5.7386153e-07
-2.5841495e-09
5.7400577e-07
-3.7669809e-09
5.7425066e-07
-5.0140343e-09
5.7460784e-07
-6.3473538e-09
5.7509479e-07
-7.7920888e-09
5.7573624e-07
-9.3774368e-09
5.7656638e-07
-1.1137752e-08
5.7763201e-07
-1.3113794e-08
5.7899722e-07
-1.5354355e-08
5.8075069e-07
-1.791841e-08
5.830158e-07
-2.087475e-08
5.8596496e-07
-2.4296931e-08
5.8983425e-07
-2.831818e-08
5.9500217e-07
-3.3554676e-08
6.0318879e-07
-4.0944596e-08
6.202357e-07
-4.4660866e-08
6.3915379e-07
-2.798332e-08
5.7094388e-07
2.5495597e-07
2.0519617e-08
1.862076e-07
4.4566609e-08
5.257411e-07
4.6634526e-08
6.5281568e-07
3.9116761e-08
6.4315696e-07
3.3038927e-08
6.1776475e-07
2.8681362e-08
6.0482557e-07
2.5008999e-08
5.9759222e-07
2.17793e-08
5.9231913e-07
1.893866e-08
5.8826087e-07
1.6431307e-08
5.851252e-07
1.4203745e-08
5.8268582e-07
1.2209891e-08
5.8077489e-07
1.0410024e-08
5.7927139e-07
8.7698428e-09
5.7808746e-07
7.259651e-09
5.7715844e-07
5.8535412e-09
5.7643656e-07
4.5286531e-09
5.7588669e-07
3.2645095e-09
5.7548324e-07
2.0424102e-09
5.7520818e-07
8.4487492e-10
5.7504961e-07
-3.4487576e-10
5.7500087e-07
-1.5434125e-09
5.7506007e-07
-2.7675957e-09
5.7522996e-07
-4.035074e-09
5.7551814e-07
-5.3648055e-09
5.7593757e-07
-6.7776223e-09
5.765076e-07
-8.2968419e-09
5.7725546e-07
-9.9489475e-09
5.7821849e-07
-1.1764352e-08
5.7944742e-07
-1.3778179e-08
5.8101104e-07
-1.6031131e-08
5.8300365e-07
-1.8570745e-08
5.8555541e-07
-2.1449563e-08
5.8884378e-07
-2.4720092e-08
5.9310478e-07
-2.8528286e-08
5.9881037e-07
-3.3535673e-08
6.0819618e-07
-4.0037838e-08
6.2673786e-07
-4.1038534e-08
6.4015449e-07
-2.3246555e-08
5.531519e-07
2.3170942e-07
1.595354e-08
1.7025406e-07
3.9122652e-08
5.0257198e-07
4.4115497e-08
6.4782283e-07
3.8264457e-08
6.49008e-07
3.2616857e-08
6.2341235e-07
2.8560354e-08
6.0888208e-07
2.5158115e-08
6.0099445e-07
2.2114181e-08
5.9536306e-07
1.9386243e-08
5.9098881e-07
1.6938418e-08
5.8757302e-07
1.4731695e-08
5.8489254e-07
1.2730532e-08
5.8277605e-07
1.0903057e-08
5.8109887e-07
9.2207955e-09
5.7976972e-07
7.6583235e-09
5.7872091e-07
6.1928427e-09
5.7790205e-07
4.8037548e-09
5.7727578e-07
3.4722366e-09
5.7681476e-07
2.1808187e-09
5.7649959e-07
9.1297704e-10
5.7631745e-07
-3.4726319e-10
5.7626111e-07
-1.6157118e-09
5.7632852e-07
-2.9084054e-09
5.7652265e-07
-4.2419963e-09
5.7685173e-07
-5.6341499e-09
5.7732972e-07
-7.103957e-09
5.7797741e-07
-8.6723582e-09
5.7882386e-07
-1.0362575e-08
5.799087e-07
-1.2200567e-08
5.8128541e-07
-1.4215448e-08
5.8302592e-07
-1.643983e-08
5.8522803e-07
-1.8910257e-08
5.8802584e-07
-2.1664452e-08
5.9159797e-07
-2.4741563e-08
5.9618189e-07
-2.8311615e-08
6.0238042e-07
-3.3016529e-08
6.1290109e-07
-3.8458142e-08
6.3217947e-07
-3.711393e-08
6.3881028e-07
-1.905257e-08
5.3509054e-07
2.1265685e-07
1.2361364e-08
1.5789269e-07
3.4091453e-08
4.808419e-07
4.124883e-08
6.4066545e-07
3.7060962e-08
6.5319587e-07
3.191176e-08
6.2856155e-07
2.8142639e-08
6.126512e-07
2.5011678e-08
6.0412542e-07
2.2173641e-08
5.982011e-07
1.9584978e-08
5.9357747e-07
1.7225383e-08
5.8993262e-07
1.5068203e-08
5.8704972e-07
1.3087136e-08
5.8475712e-07
1.1257555e-08
5.8292845e-07
9.5566368e-09
5.8147064e-07
7.9632987e-09
5.8031425e-07
6.4580646e-09
5.7940728e-07
5.0228891e-09
5.7871095e-07
3.6409296e-09
5.7819672e-07
2.2962893e-09
5.7784423e-07
9.7374693e-10
5.7763999e-07
-3.415198e-10
5.7757638e-07
-1.6642112e-09
5.7765121e-07
-3.0091915e-09
5.7786763e-07
-4.3917691e-09
5.782343e-07
-5.8279723e-09
5.7876593e-07
-7.3348234e-09
5.7948426e-07
-8.9305965e-09
5.8041963e-07
-1.0635045e-08
5.8161315e-07
-1.2469611e-08
5.8311997e-07
-1.4457594e-08
5.8501391e-07
-1.6624176e-08
5.8739461e-07
-1.8996112e-08
5.9039777e-07
-2.1598494e-08
5.9420035e-07
-2.4464267e-08
5.9904766e-07
-2.7790233e-08
6.0570639e-07
-3.2136106e-08
6.1724696e-07
-3.6445942e-08
6.3648931e-07
-3.3187942e-08
6.3555228e-07
-1.5468237e-08
5.1737084e-07
1.9718861e-07
9.6014887e-09
1.482912e-07
2.9627416e-08
4.6081597e-07
3.8285546e-08
6.3200732e-07
3.5647136e-08
6.5583428e-07
3.1034922e-08
6.3317377e-07
2.7531763e-08
6.1615436e-07
2.465531e-08
6.0700187e-07
2.2025736e-08
6.0083068e-07
1.9588311e-08
5.9601489e-07
1.7333487e-08
5.9218744e-07
1.5244701e-08
5.8913851e-07
1.3303377e-08
5.8669844e-07
1.1491185e-08
5.8474064e-07
9.7904163e-09
5.8317141e-07
8.1840868e-09
5.8192058e-07
6.6559985e-09
5.8093537e-07
5.1907358e-09
5.8017621e-07
3.7735884e-09
5.7961386e-07
2.3904274e-09
5.792274e-07
1.0275555e-09
5.7900286e-07
-3.2846343e-10
5.789324e-07
-1.6909828e-09
5.7901373e-07
-3.0734613e-09
5.7925011e-07
-4.4896423e-09
5.7965048e-07
-5.9537227e-09
5.8023001e-07
-7.4805057e-09
5.8101105e-07
-9.0855251e-09
5.8202465e-07
-1.0785119e-08
5.8331275e-07
-1.2596457e-08
5.8493131e-07
-1.4537537e-08
5.8695499e-07
-1.6627013e-08
5.8948409e-07
-1.8883257e-08
5.9265402e-07
-2.132136e-08
5.9663846e-07
-2.3974401e-08
6.017007e-07
-2.7062069e-08
6.0879406e-07
-3.1013037e-08
6.2119793e-07
-3.420655e-08
6.3968282e-07
-2.9465051e-08
6.3081078e-07
-1.2489514e-08
5.003953e-07
1.846991e-07
7.5207716e-09
1.4077043e-07
2.5775214e-08
4.4256153e-07
3.5396562e-08
6.2238597e-07
3.4134177e-08
6.5709667e-07
3.0070382e-08
6.3723756e-07
2.6808297e-08
6.1941644e-07
2.4158781e-08
6.0965139e-07
2.1728045e-08
6.0326141e-07
1.9443263e-08
5.9829968e-07
1.730056e-08
5.9433015e-07
1.5291159e-08
5.9114791e-07
1.3402697e-08
5.8858691e-07
1.1622065e-08
5.8652127e-07
9.9359593e-09
5.8485751e-07
8.3310739e-09
5.8352546e-07
6.7942702e-09
5.8247217e-07
5.3126814e-09
5.816578e-07
3.8737393e-09
5.810528e-07
2.4651557e-09
5.8063598e-07
1.0748667e-09
5.8039315e-07
-3.0904812e-10
5.8031631e-07
-1.6984596e-09
5.8040314e-07
-3.1052916e-09
5.8065694e-07
-4.5416151e-09
5.8108681e-07
-6.019726e-09
5.8170812e-07
-7.5522003e-09
5.8254352e-07
-9.151915e-09
5.8362437e-07
-1.0832016e-08
5.8499285e-07
-1.260582e-08
5.8670512e-07
-1.4486702e-08
5.8883587e-07
-1.6487791e-08
5.9148518e-07
-1.8620603e-08
5.9478683e-07
-2.0893264e-08
5.9891112e-07
-2.3344245e-08
6.0415168e-07
-2.6207524e-08
6.1165733e-07
-2.9748434e-08
6.2473884e-07
-3.190037e-08
6.4183476e-07
-2.6064681e-08
6.2497509e-07
-1.0069141e-08
4.8439976e-07
1.7462996e-07
5.9767161e-09
1.3479371e-07
2.2510695e-08
4.2602755e-07
3.2681962e-08
6.1221471e-07
3.2601916e-08
6.5717671e-07
2.9078149e-08
6.4076133e-07
2.6032659e-08
6.2246193e-07
2.3577681e-08
6.1210636e-07
2.1328263e-08
6.0551083e-07
1.919002e-08
6.0043792e-07
1.7159969e-08
5.963602e-07
1.5234871e-08
5.9307301e-07
1.3407112e-08
5.9041467e-07
1.1667709e-08
5.8826068e-07
1.0006995e-08
5.8651823e-07
8.4148292e-09
5.8511763e-07
6.8808109e-09
5.8400619e-07
5.3944318e-09
5.8314418e-07
3.9451746e-09
5.8250206e-07
2.5225665e-09
5.8205859e-07
1.1161953e-09
5.8179952e-07
-2.8430228e-10
5.8171681e-07
-1.6892662e-09
5.818081e-07
-3.1090458e-09
5.8207672e-07
-4.5540239e-09
5.8253179e-07
-6.0346245e-09
5.8318872e-07
-7.561293e-09
5.8407019e-07
-9.1444422e-09
5.8520752e-07
-1.0794352e-08
5.8664276e-07
-1.2521009e-08
5.8843177e-07
-1.4333926e-08
5.9064879e-07
-1.6241769e-08
5.9339302e-07
-1.8250776e-08
5.9679584e-07
-2.0365214e-08
6.0102555e-07
-2.2632545e-08
6.0641901e-07
-2.5289594e-08
6.1431438e-07
-2.8421782e-08
6.2787103e-07
-2.9639501e-08
6.4305248e-07
-2.3039982e-08
6.1837557e-07
-8.1388524e-09
4.6949863e-07
1.664911e-07
4.8456539e-09
1.2994806e-07
1.9774657e-08
4.1109855e-07
3.0189839e-08
6.0179953e-07
3.1102231e-08
6.5626432e-07
2.8097189e-08
6.4376637e-07
2.5246878e-08
6.2531224e-07
2.2954076e-08
6.1439917e-07
2.0864442e-08
6.0760046e-07
1.8861862e-08
6.024405e-07
1.694026e-08
5.982818e-07
1.509988e-08
5.9491339e-07
1.3336541e-08
5.9217801e-07
1.1644361e-08
5.8995286e-07
1.0016549e-08
5.8814604e-07
8.4455911e-09
5.8668858e-07
6.9234423e-09
5.8552834e-07
5.4416997e-09
5.8462592e-07
3.9917356e-09
5.8395203e-07
2.5647977e-09
5.8348553e-07
1.1520728e-09
5.8321225e-07
-2.5527482e-10
5.8312416e-07
-1.6660763e-09
5.832189e-07
-3.089137e-09
5.8349978e-07
-4.5332077e-09
5.8397586e-07
-6.0069418e-09
5.8466245e-07
-7.5188237e-09
5.8558207e-07
-9.0770649e-09
5.8676576e-07
-1.0689468e-08
5.8825516e-07
-1.2363245e-08
5.9010555e-07
-1.4104831e-08
5.9239037e-07
-1.5919453e-08
5.9520764e-07
-1.7809585e-08
5.9868597e-07
-1.9778428e-08
6.029944e-07
-2.1884173e-08
6.0852476e-07
-2.4354218e-08
6.1678443e-07
-2.7090876e-08
6.3060769e-07
-2.7494822e-08
6.4345642e-07
-2.0399805e-08
6.1128055e-07
-6.6236788e-09
4.5572251e-07
1.5986743e-07
4.0243129e-09
1.2592375e-07
1.7494334e-08
3.9762852e-07
2.7934324e-08
5.9135954e-07
2.966574e-08
6.545329e-07
2.7150468e-08
6.4628164e-07
2.4477918e-08
6.2798479e-07
2.2317952e-08
6.1655913e-07
2.0365547e-08
6.0955287e-07
1.8485293e-08
6.0432075e-07
1.6665025e-08
6.0010207e-07
1.4906687e-08
5.9667173e-07
1.3208428e-08
5.9387626e-07
1.1566585e-08
5.915947e-07
9.9765513e-09
5.8973607e-07
8.4329078e-09
5.8823223e-07
6.9295741e-09
5.8703167e-07
5.4599664e-09
5.8609553e-07
4.017145e-09
5.8539485e-07
2.5939358e-09
5.8490873e-07
1.1830206e-09
5.8462316e-07
-2.2299081e-10
5.8453017e-07
-1.631496e-09
5.8462741e-07
-3.0498401e-09
5.8491813e-07
-4.48525e-09
5.8541127e-07
-5.9447585e-09
5.8612196e-07
-7.4351025e-09
5.8707241e-07
-8.9625925e-09
5.8829325e-07
-1.0532963e-08
5.8982553e-07
-1.2151202e-08
5.9172379e-07
-1.382139e-08
5.9406056e-07
-1.5546238e-08
5.9693249e-07
-1.7325809e-08
6.0046554e-07
-1.916454e-08
6.0483313e-07
-2.1131438e-08
6.1049166e-07
-2.3432952e-08
6.1908594e-07
-2.5795193e-08
6.3296993e-07
-2.5505943e-08
6.4316718e-07
-1.812589e-08
6.039005e-07
-5.449984e-09
4.430466e-07
1.5441744e-07
3.429377e-09
1.2249437e-07
1.5595616e-08
3.8546228e-07
2.5908843e-08
5.8104631e-07
2.8307907e-08
6.5213384e-07
2.6249833e-08
6.4833972e-07
2.3741626e-08
6.30493e-07
2.168956e-08
6.186112e-07
1.985273e-08
6.113897e-07
1.8080673e-08
6.0609281e-07
1.6353126e-08
6.0182961e-07
1.4672233e-08
5.9835262e-07
1.3037596e-08
5.955109e-07
1.1447058e-08
5.9318524e-07
9.8975968e-09
5.9128554e-07
8.385409e-09
5.8974442e-07
6.9059996e-09
5.8851108e-07
5.4543157e-09
5.8754722e-07
4.0248867e-09
5.8682428e-07
2.6119457e-09
5.8632168e-07
1.2095316e-09
5.8602558e-07
-1.8841764e-10
5.8592812e-07
-1.5879781e-09
5.8602697e-07
-2.995155e-09
5.863253e-07
-4.415794e-09
5.8683191e-07
-5.8554859e-09
5.8756165e-07
-7.3194531e-09
5.8853638e-07
-8.812413e-09
5.8978621e-07
-1.0338431e-08
5.9135155e-07
-1.190078e-08
5.9328614e-07
-1.3501813e-08
5.9566159e-07
-1.5142512e-08
5.9857319e-07
-1.6821695e-08
6.0214472e-07
-1.8546789e-08
6.0655822e-07
-2.0396411e-08
6.1234128e-07
-2.2546181e-08
6.2123571e-07
-2.4559622e-08
6.3498337e-07
-2.3689814e-08
6.4229737e-07
-1.6184674e-08
5.9639536e-07
-4.5501179e-09
4.3141204e-07
1.4986732e-07
2.9959928e-09
1.1949838e-07
1.4009904e-08
3.7444837e-07
2.4095469e-08
5.7096074e-07
2.7033851e-08
6.4919546e-07
2.5399656e-08
6.4997391e-07
2.3046033e-08
6.3284662e-07
2.108177e-08
6.2057546e-07
1.9340865e-08
6.131306e-07
1.7663169e-08
6.0777051e-07
1.6019216e-08
6.0347357e-07
1.4410141e-08
5.9996169e-07
1.2836311e-08
5.9708473e-07
1.1296525e-08
5.9472502e-07
9.7888522e-09
5.9279321e-07
8.3106857e-09
5.9122258e-07
6.858777e-09
5.8996299e-07
5.4293327e-09
5.8897666e-07
4.01813e-09
5.8823548e-07
2.6206254e-09
5.8771918e-07
1.2320596e-09
5.8741414e-07
-1.5244001e-10
5.8731262e-07
-1.537762e-09
5.8741229e-07
-2.9287142e-09
5.8771626e-07
-4.3299223e-09
5.8823311e-07
-5.745727e-09
5.8897746e-07
-7.1800702e-09
5.8997072e-07
-8.6363693e-09
5.9124251e-07
-1.0117388e-08
5.9283257e-07
-1.162513e-08
5.9479388e-07
-1.3160749e-08
5.9719721e-07
-1.472414e-08
6.0013658e-07
-1.6313849e-08
6.0373443e-07
-1.7941499e-08
6.0818587e-07
-1.9693159e-08
6.1409294e-07
-2.1705768e-08
6.2324832e-07
-2.3397738e-08
6.3667534e-07
-2.20478e-08
6.4094743e-07
-1.4535575e-08
5.8888314e-07
-3.8649497e-09
4.2074142e-07
1.4600237e-07
2.6753708e-09
1.1682301e-07
1.267752e-08
3.6444622e-07
2.2471417e-08
5.6116685e-07
2.5842182e-08
6.4582469e-07
2.4599526e-08
6.5121657e-07
2.2393848e-08
6.350523e-07
2.0502008e-08
6.224673e-07
1.8839948e-08
6.1479266e-07
1.7243733e-08
6.0936672e-07
1.5674398e-08
6.050429e-07
1.4131114e-08
6.0150498e-07
1.2614502e-08
5.9860134e-07
1.1123896e-08
5.9621563e-07
9.6580671e-09
5.9425904e-07
8.21526e-09
5.9266539e-07
6.7931825e-09
5.9138507e-07
5.3890543e-09
5.9038079e-07
3.9996883e-09
5.8962484e-07
2.621581e-09
5.8909729e-07
1.2510138e-09
5.8878471e-07
-1.1584418e-10
5.8867947e-07
-1.4828384e-09
5.8877929e-07
-2.8537306e-09
5.8908715e-07
-4.2320954e-09
5.8961148e-07
-5.6212148e-09
5.9036658e-07
-7.0239738e-09
5.9137348e-07
-8.4427557e-09
5.9266129e-07
-9.8793429e-09
5.9426916e-07
-1.1334847e-08
5.9624938e-07
-1.2809652e-08
5.9867202e-07
-1.4303075e-08
6.0163e-07
-1.5814174e-08
6.0524553e-07
-1.7359437e-08
6.0973113e-07
-1.9029633e-08
6.1576313e-07
-2.0917243e-08
6.2513593e-07
-2.2314807e-08
6.380729e-07
-2.0571493e-08
6.3920411e-07
-1.3136683e-08
5.8144833e-07
-3.3447632e-09
4.109495e-07
1.4265761e-07
2.4319551e-09
1.1439105e-07
1.1548728e-08
3.5532945e-07
2.101317e-08
5.517024e-07
2.4727961e-08
6.421099e-07
2.3846299e-08
6.5209823e-07
2.1784364e-08
6.3711423e-07
1.9953818e-08
6.2429785e-07
1.8356278e-08
6.163902e-07
1.6829993e-08
6.1089301e-07
1.5326854e-08
6.0654604e-07
1.3843375e-08
6.0298846e-07
1.2380037e-08
6.0006468e-07
1.0936406e-08
5.9765926e-07
9.5116577e-09
5.9568379e-07
8.1046204e-09
5.9407243e-07
6.7137164e-09
5.9277597e-07
5.3369612e-09
5.9175754e-07
3.9720076e-09
5.909898e-07
2.6162183e-09
5.9045308e-07
1.2667584e-09
5.9013417e-07
-7.9308972e-11
5.9002554e-07
-1.4249323e-09
5.9012491e-07
-2.7729784e-09
5.9043519e-07
-4.1261347e-09
5.9096464e-07
-5.4868089e-09
5.9172725e-07
-6.8570351e-09
5.9274371e-07
-8.2383948e-09
5.9404265e-07
-9.631956e-09
5.9566272e-07
-1.1038245e-08
5.9765567e-07
-1.245721e-08
6.0009098e-07
-1.388799e-08
6.0306078e-07
-1.5330743e-08
6.0668828e-07
-1.6807045e-08
6.1120744e-07
-1.8409293e-08
6.1736538e-07
-2.0181693e-08
6.2690833e-07
-2.1310472e-08
6.3920168e-07
-1.9247147e-08
6.3714079e-07
-1.1948299e-08
5.7414948e-07
-2.9490447e-09
4.0195024e-07
1.3970857e-07
2.2406342e-09
1.1215042e-07
1.0583289e-08
3.469868e-07
1.9698742e-08
5.4258695e-07
2.3684728e-08
6.3812392e-07
2.3135565e-08
6.5264739e-07
2.1214913e-08
6.3903489e-07
1.9438123e-08
6.2607464e-07
1.7893451e-08
6.1793488e-07
1.6427015e-08
6.1235944e-07
1.498244e-08
6.0799061e-07
1.3553095e-08
6.044178e-07
1.213902e-08
6.0147876e-07
1.0739809e-08
5.9905847e-07
9.3548338e-09
5.9706876e-07
7.9832992e-09
5.9544396e-07
6.6241464e-09
5.9413512e-07
5.2759986e-09
5.9310569e-07
3.9371747e-09
5.9232862e-07
2.6057459e-09
5.9178451e-07
1.2796148e-09
5.914603e-07
-4.3403782e-11
5.9134856e-07
-1.3655022e-09
5.9144701e-07
-2.6887969e-09
5.9175849e-07
-4.0152411e-09
5.9229108e-07
-5.3465361e-09
5.9305855e-07
-6.6840501e-09
5.9408122e-07
-8.0287623e-09
5.9538736e-07
-9.3812416e-09
5.970152e-07
-1.0741662e-08
5.9901609e-07
-1.2109789e-08
6.0145911e-07
-1.3484882e-08
6.0443587e-07
-1.4868629e-08
6.0807203e-07
-1.6287539e-08
6.1262634e-07
-1.7832492e-08
6.1891034e-07
-1.9497332e-08
6.2857317e-07
-2.03809e-08
6.4008525e-07
-1.8058777e-08
6.3481867e-07
-1.0934805e-08
5.6702551e-07
-2.6456717e-09
3.9366111e-07
1.3706289e-07
2.0842291e-09
1.1006619e-07
9.7493144e-09
3.3932171e-07
1.8508698e-08
5.3382757e-07
2.2705748e-08
6.3392687e-07
2.2462613e-08
6.5289053e-07
2.0681878e-08
6.4081562e-07
1.8954203e-08
6.2780231e-07
1.7453174e-08
6.1943591e-07
1.6037975e-08
6.1377464e-07
1.4645204e-08
6.0938339e-07
1.3264781e-08
6.0579823e-07
1.1896083e-08
6.0284745e-07
1.0538596e-08
6.0041596e-07
9.191749e-09
5.9841561e-07
7.8549748e-09
5.9678073e-07
6.5275729e-09
5.9546253e-07
5.2086154e-09
5.9442465e-07
3.8969397e-09
5.936403e-07
2.5911877e-09
5.9309026e-07
1.2898659e-09
5.9276162e-07
-8.590661e-12
5.9264702e-07
-1.3057508e-09
5.9274417e-07
-2.6031133e-09
5.9305585e-07
-3.9020349e-09
5.9359e-07
-5.2036579e-09
5.9436017e-07
-6.508845e-09
5.9538641e-07
-7.8181413e-09
5.9669666e-07
-9.131787e-09
5.9832884e-07
-1.0449775e-08
6.0033408e-07
-1.1771862e-08
6.027812e-07
-1.3097649e-08
6.0576166e-07
-1.4430648e-08
6.0940503e-07
-1.5801849e-08
6.1399755e-07
-1.7297585e-08
6.2040607e-07
-1.8860694e-08
6.3013628e-07
-1.9520386e-08
6.4074494e-07
-1.6990127e-08
6.3228841e-07
-1.006542e-08
5.601008e-07
-2.4098134e-09
3.860055e-07
1.3465308e-07
1.9513597e-09
1.0811483e-07
9.0218811e-09
3.3225119e-07
1.7426426e-08
5.2542302e-07
2.1784709e-08
6.2956858e-07
2.182298e-08
6.5285226e-07
2.0181363e-08
6.4245724e-07
1.850039e-08
6.2948328e-07
1.7035894e-08
6.209004e-07
1.5664685e-08
6.1514585e-07
1.4317821e-08
6.1073025e-07
1.2981631e-08
6.0713442e-07
1.1654657e-08
6.0417443e-07
1.0336198e-08
6.0173442e-07
9.0256564e-09
5.9972615e-07
7.7225819e-09
5.9808381e-07
6.4265032e-09
5.9675861e-07
5.136814e-09
5.9571434e-07
3.8527481e-09
5.9492436e-07
2.5734e-09
5.9436961e-07
1.2977618e-09
5.9403726e-07
2.4768675e-11
5.9392001e-07
-1.2466438e-09
5.9401558e-07
-2.5174765e-09
5.9432668e-07
-3.78861e-09
5.9486113e-07
-5.0607533e-09
5.9563231e-07
-6.3343969e-09
5.9666005e-07
-7.6097904e-09
5.9797205e-07
-8.8869791e-09
5.9960603e-07
-1.0165895e-08
6.01613e-07
-1.1446401e-08
6.040617e-07
-1.2728594e-08
6.0704386e-07
-1.4017977e-08
6.1069441e-07
-1.5349372e-08
6.1532894e-07
-1.680175e-08
6.2185845e-07
-1.8267496e-08
6.3160202e-07
-1.8722454e-08
6.411999e-07
-1.6025854e-08
6.2959181e-07
-9.3142716e-09
5.5338922e-07
-2.2227311e-09
3.7891396e-07
1.3243035e-07
1.8347247e-09
1.062801e-07
8.3816602e-09
3.2570425e-07
1.6438018e-08
5.1736667e-07
2.0916036e-08
6.2509056e-07
2.1212741e-08
6.5255555e-07
1.970958e-08
6.439604e-07
1.8074538e-08
6.3111833e-07
1.6641251e-08
6.2233369e-07
1.5308e-08
6.164791e-07
1.4001949e-08
6.120363e-07
1.2705826e-08
6.0843054e-07
1.1417214e-08
6.0546304e-07
1.0135184e-08
6.0301645e-07
8.8590595e-09
6.0100227e-07
7.5884218e-09
5.9935445e-07
6.3229315e-09
5.980241e-07
5.0622056e-09
5.9697506e-07
3.8057768e-09
5.9618079e-07
2.5530919e-09
5.9562229e-07
1.3035242e-09
5.9528683e-07
5.6404173e-11
5.9516713e-07
-1.1889335e-09
5.9526092e-07
-2.4330969e-09
5.9557085e-07
-3.6765953e-09
5.9610463e-07
-4.9198078e-09
5.9687553e-07
-6.1629586e-09
5.979032e-07
-7.4061121e-09
5.992152e-07
-8.6492222e-09
6.0084914e-07
-9.8922444e-09
6.0285602e-07
-1.1135218e-08
6.0530468e-07
-1.2378833e-08
6.0828747e-07
-1.3630652e-08
6.1194623e-07
-1.4928535e-08
6.1662683e-07
-1.6341586e-08
6.232715e-07
-1.7713225e-08
6.3297366e-07
-1.7980595e-08
6.4146727e-07
-1.515214e-08
6.2676335e-07
-8.6600584e-09
5.4689714e-07
-2.0706009e-09
3.7232451e-07
1.3035975e-07
1.7297871e-09
1.0455032e-07
7.8136987e-09
3.1962034e-07
1.5531956e-08
5.0964841e-07
2.0094987e-08
6.2052753e-07
2.06286e-08
6.5202194e-07
1.9263068e-08
6.4532593e-07
1.7674328e-08
6.3270706e-07
1.6268388e-08
6.2373963e-07
1.4968116e-08
6.1777937e-07
1.3698501e-08
6.1330592e-07
1.2438779e-08
6.0969026e-07
1.1185485e-08
6.0671633e-07
9.9374366e-09
6.0426449e-07
8.693846e-09
6.0224586e-07
7.4542642e-09
6.0059403e-07
6.2184148e-09
5.9925994e-07
4.9860663e-09
5.9820741e-07
3.7569724e-09
5.9740989e-07
2.530846e-09
5.9684842e-07
1.3073518e-09
5.9651032e-07
8.6126354e-11
5.9638836e-07
-1.133186e-09
5.9648023e-07
-2.3508916e-09
5.9678855e-07
-3.5672181e-09
5.9732096e-07
-4.7823002e-09
5.9809061e-07
-5.9961776e-09
5.9911708e-07
-7.2088102e-09
6.0042784e-07
-8.4201374e-09
6.0206047e-07
-9.6301978e-09
6.0406608e-07
-1.0839247e-08
6.0651373e-07
-1.204863e-08
6.0949685e-07
-1.3267947e-08
6.1316555e-07
-1.453721e-08
6.1789609e-07
-1.5913508e-08
6.246478e-07
-1.7193511e-08
6.3425367e-07
-1.7288706e-08
6.4156247e-07
-1.4356935e-08
6.2383158e-07
-8.0855192e-09
5.4062572e-07
-1.9434502e-09
3.6618244e-07
1.284163e-07
1.6338129e-09
1.029165e-07
7.3063937e-09
3.1394776e-07
1.4698718e-08
5.0225608e-07
1.9317597e-08
6.1590865e-07
2.0067881e-08
6.5127166e-07
1.8838781e-08
6.4655503e-07
1.7297461e-08
6.3424839e-07
1.5916177e-08
6.2512091e-07
1.4644797e-08
6.1905075e-07
1.3407864e-08
6.1454285e-07
1.2181338e-08
6.1091679e-07
1.0960634e-08
6.0793704e-07
9.7442966e-09
6.0548083e-07
8.531404e-09
6.0345876e-07
7.3214398e-09
6.0180399e-07
6.1141466e-09
6.0046724e-07
4.9093922e-09
5.9941217e-07
3.7070876e-09
5.9861219e-07
2.5071381e-09
5.9804837e-07
1.3094245e-09
5.9770804e-07
1.1381571e-10
5.9758396e-07
-1.0798086e-09
5.9767385e-07
-2.271529e-09
5.9798027e-07
-3.461368e-09
5.985108e-07
-4.6492872e-09
5.9927853e-07
-5.8352033e-09
6.00303e-07
-7.0190273e-09
6.0161166e-07
-8.2007358e-09
6.0324218e-07
-9.3804899e-09
6.0524583e-07
-1.0558788e-08
6.0769202e-07
-1.1737663e-08
6.1067573e-07
-1.2928663e-08
6.1435655e-07
-1.4173019e-08
6.1914044e-07
-1.5514017e-08
6.259888e-07
-1.6704345e-08
6.3544399e-07
-1.6641304e-08
6.4149943e-07
-1.3629954e-08
6.2082023e-07
-7.5768224e-09
5.3457259e-07
-1.8342392e-09
3.6043985e-07
1.2658206e-07
1.5451901e-09
1.0137131e-07
6.8506624e-09
3.0864229e-07
1.3930391e-08
4.9517636e-07
1.8580557e-08
6.1125849e-07
1.9528455e-08
6.5032376e-07
1.8434108e-08
6.4764938e-07
1.6941758e-08
6.3574074e-07
1.5583365e-08
6.264793e-07
1.4337537e-08
6.2029658e-07
1.313007e-08
6.1575032e-07
1.1933942e-08
6.1211292e-07
1.0743396e-08
6.0912758e-07