/*--------------------------------*- C++ -*----------------------------------*\
  =========                 |
  \\      /  F ield         | OpenFOAM: The Open Source CFD Toolbox
   \\    /   O peration     | Website:  https://openfoam.org
    \\  /    A nd           | Version:  10
     \\/     M anipulation  |
\*---------------------------------------------------------------------------*/
FoamFile
{
    format      ascii;
    class       volScalarField;
    location    "0.02";
    object      T;
}
// * * * * * * * * * * * * * * * * * * * * * * * * * * * * * * * * * * * * * //

dimensions      [0 0 0 1 0 0 0];

internalField   nonuniform List<scalar> 
4000
(
302.75021
299.67204
299.99368
300.00065
299.99995
300
300
300
300
300
300
300
300
300
300
300
300
300
300
300
300
300
300
300
300
300
300
300
300
300
300
300
300
300
300
300
300
300
300
300
308.87703
299.06162
299.81833
299.99949
300.00058
299.99999
300
300
300
300
300
300
300
300
300
300
300
300
300
300
300
300
300
300
300
300
300
300
300
300
300
300
300
300
300
300
300
300
300
300
315.06151
299.17468
299.48555
299.9747
300.00298
300.00022
299.99999
300
300
300
300
300
300
300
300
300
300
300
300
300
300
300
300
300
300
300
300
300
300
300
300
300
300
300
300
300
300
300
300
300
320.84981
300.16135
299.12465
299.90254
300.0051
300.00118
300.00001
299.99999
300
300
300
300
300
300
300
300
300
300
300
300
300
300
300
300
300
300
300
300
300
300
300
300
300
300
300
300
300
300
300
300
325.95922
301.86568
298.8752
299.77509
300.00095
300.00322
300.00017
299.99998
300
300
300
300
300
300
300
300
300
300
300
300
300
300
300
300
300
300
300
300
300
300
300
300
300
300
300
300
300
300
300
300
330.19822
304.02613
298.83336
299.60672
299.98321
300.00592
300.00065
299.99998
299.99999
300
300
300
300
300
300
300
300
300
300
300
300
300
300
300
300
300
300
300
300
300
300
300
300
300
300
300
300
300
300
300
333.49395
306.38018
299.03409
299.42748
299.94693
300.0079
300.00163
300.00001
299.99998
300
300
300
300
300
300
300
300
300
300
300
300
300
300
300
300
300
300
300
300
300
300
300
300
300
300
300
300
300
300
300
335.90293
308.7238
299.46131
299.27011
299.89166
300.0072
300.00309
300.00014
299.99997
300
300
300
300
300
300
300
300
300
300
300
300
300
300
300
300
300
300
300
300
300
300
300
300
300
300
300
300
300
300
300
337.5692
310.92749
300.07079
299.16022
299.82125
300.00194
300.00484
300.00044
299.99996
299.99999
300
300
300
300
300
300
300
300
300
300
300
300
300
300
300
300
300
300
300
300
300
300
300
300
300
300
300
300
300
300
338.67141
312.92515
300.80991
299.11285
299.74222
299.99084
300.00646
300.00093
299.99997
299.99999
300
300
300
300
300
300
300
300
300
300
300
300
300
300
300
300
300
300
300
300
300
300
300
300
300
300
300
300
300
300
339.38234
314.69584
301.62979
299.13327
299.66194
299.97347
300.00743
300.00162
300.00002
299.99998
300
300
300
300
300
300
300
300
300
300
300
300
300
300
300
300
300
300
300
300
300
300
300
300
300
300
300
300
300
300
339.84476
316.24676
302.49087
299.21961
299.58725
299.95023
300.00725
300.00247
300.00012
299.99997
300
300
300
300
300
300
300
300
300
300
300
300
300
300
300
300
300
300
300
300
300
300
300
300
300
300
300
300
300
300
340.16261
317.59991
303.36425
299.36576
299.52369
299.92212
300.00549
300.00338
300.00029
299.99996
299.99999
300
300
300
300
300
300
300
300
300
300
300
300
300
300
300
300
300
300
300
300
300
300
300
300
300
300
300
300
300
340.4037
318.78285
304.23042
299.56371
299.47521
299.89053
300.00187
300.00422
300.00054
299.99997
299.99999
300
300
300
300
300
300
300
300
300
300
300
300
300
300
300
300
300
300
300
300
300
300
300
300
300
300
300
300
300
340.60784
319.82321
305.07731
299.8051
299.44434
299.85702
299.99625
300.00487
300.00085
299.99999
299.99998
300
300
300
300
300
300
300
300
300
300
300
300
300
300
300
300
300
300
300
300
300
300
300
300
300
300
300
300
300
340.7959
320.74586
305.89805
300.08207
299.43241
299.82313
299.98863
300.00519
300.00122
300.00003
299.99998
300
300
300
300
300
300
300
300
300
300
300
300
300
300
300
300
300
300
300
300
300
300
300
300
300
300
300
300
300
340.9773
321.57191
306.6893
300.38765
299.43983
299.7903
299.97915
300.00507
300.00162
300.0001
299.99998
300
300
300
300
300
300
300
300
300
300
300
300
300
300
300
300
300
300
300
300
300
300
300
300
300
300
300
300
300
341.15518
322.31852
307.44992
300.7159
299.46639
299.75979
299.96804
300.0044
300.00203
300.00019
299.99998
299.99999
300
300
300
300
300
300
300
300
300
300
300
300
300
300
300
300
300
300
300
300
300
300
300
300
300
300
300
300
341.32971
322.99931
308.18002
301.06183
299.51144
299.73269
299.95556
300.00312
300.0024
300.0003
299.99998
299.99999
300
300
300
300
300
300
300
300
300
300
300
300
300
300
300
300
300
300
300
300
300
300
300
300
300
300
300
300
341.49996
323.62492
308.88039
301.4213
299.57409
299.7099
299.94207
300.00118
300.00271
300.00044
299.99999
299.99999
300
300
300
300
300
300
300
300
300
300
300
300
300
300
300
300
300
300
300
300
300
300
300
300
300
300
300
300
341.6648
324.2036
309.55218
301.79087
299.65325
299.69214
299.92792
299.99856
300.00291
300.0006
300.00001
299.99999
300
300
300
300
300
300
300
300
300
300
300
300
300
300
300
300
300
300
300
300
300
300
300
300
300
300
300
300
341.82332
324.74179
310.19665
302.16771
299.74779
299.67997
299.91346
299.99526
300.00297
300.00076
300.00004
299.99999
300
300
300
300
300
300
300
300
300
300
300
300
300
300
300
300
300
300
300
300
300
300
300
300
300
300
300
300
341.97494
325.24454
310.81508
302.54944
299.85653
299.6738
299.89906
299.99133
300.00287
300.00093
300.00007
299.99999
300
300
300
300
300
300
300
300
300
300
300
300
300
300
300
300
300
300
300
300
300
300
300
300
300
300
300
300
342.11942
325.71589
311.40872
302.93409
299.9783
299.67394
299.88507
299.9868
300.00257
300.0011
300.00012
299.99999
300
300
300
300
300
300
300
300
300
300
300
300
300
300
300
300
300
300
300
300
300
300
300
300
300
300
300
300
342.25678
326.15913
311.97879
303.32001
300.11196
299.68056
299.87182
299.98174
300.00205
300.00125
300.00017
299.99999
299.99999
300
300
300
300
300
300
300
300
300
300
300
300
300
300
300
300
300
300
300
300
300
300
300
300
300
300
300
342.38721
326.577
312.52642
303.70584
300.25642
299.69377
299.8596
299.97624
300.00131
300.00137
300.00023
300
299.99999
300
300
300
300
300
300
300
300
300
300
300
300
300
300
300
300
300
300
300
300
300
300
300
300
300
300
300
342.51104
326.97185
313.05272
304.09041
300.41062
299.71359
299.84872
299.97037
300.00032
300.00145
300.00029
300.00001
299.99999
300
300
300
300
300
300
300
300
300
300
300
300
300
300
300
300
300
300
300
300
300
300
300
300
300
300
300
342.62866
327.34569
313.55873
304.47277
300.57359
299.73998
299.83941
299.96424
299.9991
300.00149
300.00036
300.00002
299.99999
300
300
300
300
300
300
300
300
300
300
300
300
300
300
300
300
300
300
300
300
300
300
300
300
300
300
300
342.74047
327.70032
314.04547
304.85212
300.74439
299.77284
299.83191
299.95794
299.99762
300.00147
300.00043
300.00004
299.99999
300
300
300
300
300
300
300
300
300
300
300
300
300
300
300
300
300
300
300
300
300
300
300
300
300
300
300
342.84689
328.03732
314.51389
305.22781
300.92216
299.81205
299.82642
299.95159
299.99592
300.00139
300.00049
300.00005
300
300
300
300
300
300
300
300
300
300
300
300
300
300
300
300
300
300
300
300
300
300
300
300
300
300
300
300
342.94833
328.3581
314.96492
305.5993
301.10609
299.85742
299.82311
299.94528
299.99399
300.00123
300.00056
300.00007
300
300
300
300
300
300
300
300
300
300
300
300
300
300
300
300
300
300
300
300
300
300
300
300
300
300
300
300
343.04514
328.66394
315.39944
305.96615
301.29543
299.90877
299.82213
299.93913
299.99185
300.00099
300.00061
300.0001
300
300
300
300
300
300
300
300
300
300
300
300
300
300
300
300
300
300
300
300
300
300
300
300
300
300
300
300
343.13768
328.95598
315.81829
306.32801
301.4895
299.96587
299.82361
299.93324
299.98953
300.00066
300.00065
300.00012
300
300
300
300
300
300
300
300
300
300
300
300
300
300
300
300
300
300
300
300
300
300
300
300
300
300
300
300
343.22628
329.23526
316.22228
306.68462
301.68765
300.02851
299.82763
299.92771
299.98705
300.00025
300.00068
300.00015
300.00001
300
300
300
300
300
300
300
300
300
300
300
300
300
300
300
300
300
300
300
300
300
300
300
300
300
300
300
343.31121
329.50272
316.61218
307.03577
301.88931
300.09643
299.8343
299.92265
299.98444
299.99974
300.00068
300.00017
300.00001
300
300
300
300
300
300
300
300
300
300
300
300
300
300
300
300
300
300
300
300
300
300
300
300
300
300
300
343.39274
329.75921
316.98871
307.38131
302.09394
300.1694
299.84365
299.91813
299.98172
299.99915
300.00067
300.0002
300.00002
300
300
300
300
300
300
300
300
300
300
300
300
300
300
300
300
300
300
300
300
300
300
300
300
300
300
300
343.4711
330.00548
317.35255
307.72112
302.30105
300.24716
299.85575
299.91427
299.97893
299.99846
300.00063
300.00022
300.00003
300
300
300
300
300
300
300
300
300
300
300
300
300
300
300
300
300
300
300
300
300
300
300
300
300
300
300
343.5465
330.24222
317.70435
308.05515
302.5102
300.32946
299.87061
299.91113
299.9761
299.99768
300.00057
300.00025
300.00004
300
300
300
300
300
300
300
300
300
300
300
300
300
300
300
300
300
300
300
300
300
300
300
300
300
300
300
343.61912
330.47005
318.04472
308.38336
302.72097
300.41607
299.88825
299.9088
299.97327
299.99681
300.00047
300.00027
300.00005
300
300
300
300
300
300
300
300
300
300
300
300
300
300
300
300
300
300
300
300
300
300
300
300
300
300
300
343.68913
330.68954
318.37422
308.70573
302.93299
300.50672
299.90867
299.90734
299.97048
299.99587
300.00035
300.00028
300.00005
300
300
300
300
300
300
300
300
300
300
300
300
300
300
300
300
300
300
300
300
300
300
300
300
300
300
300
343.75672
330.90121
318.69341
309.0223
303.14593
300.60119
299.93185
299.90684
299.96776
299.99485
300.00019
300.00029
300.00006
300.00001
300
300
300
300
300
300
300
300
300
300
300
300
300
300
300
300
300
300
300
300
300
300
300
300
300
300
343.82202
331.10553
319.00279
309.33311
303.35949
300.69924
299.95777
299.90734
299.96515
299.99376
299.99999
300.00029
300.00007
300.00001
300
300
300
300
300
300
300
300
300
300
300
300
300
300
300
300
300
300
300
300
300
300
300
300
300
300
343.88517
331.30296
319.30285
309.6382
303.57338
300.80064
299.98641
299.9089
299.96269
299.99262
299.99976
300.00029
300.00008
300.00001
300
300
300
300
300
300
300
300
300
300
300
300
300
300
300
300
300
300
300
300
300
300
300
300
300
300
343.94628
331.49388
319.59403
309.93764
303.78735
300.90517
300.01772
299.91158
299.96041
299.99142
299.9995
300.00028
300.00009
300.00001
300
300
300
300
300
300
300
300
300
300
300
300
300
300
300
300
300
300
300
300
300
300
300
300
300
300
344.00545
331.67863
319.87675
310.23152
304.00118
301.01262
300.05167
299.91541
299.95835
299.99019
299.99919
300.00025
300.0001
300.00002
300
300
300
300
300
300
300
300
300
300
300
300
300
300
300
300
300
300
300
300
300
300
300
300
300
300
344.06277
331.85754
320.1514
310.5199
304.21465
301.12279
300.08819
299.92044
299.95655
299.98894
299.99886
300.00022
300.00011
300.00002
300
300
300
300
300
300
300
300
300
300
300
300
300
300
300
300
300
300
300
300
300
300
300
300
300
300
344.11834
332.03091
320.41833
310.80288
304.42759
301.23547
300.12723
299.92669
299.95505
299.98767
299.99848
300.00017
300.00012
300.00002
300
300
300
300
300
300
300
300
300
300
300
300
300
300
300
300
300
300
300
300
300
300
300
300
300
300
344.17226
332.19901
320.67788
311.08056
304.63982
301.35048
300.16874
299.93421
299.95386
299.98639
299.99808
300.00011
300.00012
300.00003
300
300
300
300
300
300
300
300
300
300
300
300
300
300
300
300
300
300
300
300
300
300
300
300
300
300
344.22461
332.36213
320.9304
311.35304
304.85119
301.46764
300.21265
299.943
299.95304
299.98514
299.99764
300.00004
300.00012
300.00003
300
300
300
300
300
300
300
300
300
300
300
300
300
300
300
300
300
300
300
300
300
300
300
300
300
300
344.27549
332.52053
321.1762
311.62043
305.06158
301.58678
300.2589
299.9531
299.95261
299.98391
299.99717
299.99995
300.00012
300.00003
300
300
300
300
300
300
300
300
300
300
300
300
300
300
300
300
300
300
300
300
300
300
300
300
300
300
344.32497
332.67445
321.41558
311.88284
305.27086
301.70774
300.30741
299.96451
299.9526
299.98272
299.99667
299.99985
300.00011
300.00004
300.00001
300
300
300
300
300
300
300
300
300
300
300
300
300
300
300
300
300
300
300
300
300
300
300
300
300
344.37309
332.82411
321.64883
312.14039
305.47894
301.83035
300.35812
299.97725
299.95304
299.98158
299.99616
299.99974
300.00011
300.00004
300.00001
300
300
300
300
300
300
300
300
300
300
300
300
300
300
300
300
300
300
300
300
300
300
300
300
300
344.41992
332.96968
321.87619
312.39318
305.6857
301.95446
300.41095
299.99132
299.95396
299.98052
299.99562
299.99961
300.00009
300.00004
300.00001
300
300
300
300
300
300
300
300
300
300
300
300
300
300
300
300
300
300
300
300
300
300
300
300
300
344.46548
333.11133
322.09788
312.64131
305.89107
302.07994
300.46584
300.00674
299.95537
299.97955
299.99507
299.99947
300.00008
300.00005
300.00001
300
300
300
300
300
300
300
300
300
300
300
300
300
300
300
300
300
300
300
300
300
300
300
300
300
344.50982
333.24919
322.31412
312.88488
306.09497
302.20665
300.52271
300.02349
299.95732
299.97868
299.9945
299.99931
300.00006
300.00005
300.00001
300
300
300
300
300
300
300
300
300
300
300
300
300
300
300
300
300
300
300
300
300
300
300
300
300
344.55301
333.38343
322.52511
313.12398
306.29733
302.33446
300.5815
300.04159
299.95981
299.97792
299.99393
299.99914
300.00003
300.00005
300.00001
300
300
300
300
300
300
300
300
300
300
300
300
300
300
300
300
300
300
300
300
300
300
300
300
300
344.59511
333.51422
322.73105
313.35873
306.49809
302.46325
300.64212
300.06102
299.96287
299.97729
299.99336
299.99895
300
300.00005
300.00001
300
300
300
300
300
300
300
300
300
300
300
300
300
300
300
300
300
300
300
300
300
300
300
300
300
344.63619
333.64173
322.93215
313.58923
306.69721
302.59291
300.70451
300.08177
299.96652
299.97682
299.99279
299.99875
299.99996
300.00005
300.00001
300
300
300
300
300
300
300
300
300
300
300
300
300
300
300
300
300
300
300
300
300
300
300
300
300
344.67631
333.76613
323.12863
313.81559
306.89465
302.72333
300.7686
300.10385
299.97078
299.9765
299.99223
299.99854
299.99992
300.00004
300.00002
300
300
300
300
300
300
300
300
300
300
300
300
300
300
300
300
300
300
300
300
300
300
300
300
300
344.7155
333.88756
323.32067
314.03794
307.09037
302.85442
300.83431
300.12723
299.97566
299.97636
299.99168
299.99832
299.99987
300.00004
300.00002
300
300
300
300
300
300
300
300
300
300
300
300
300
300
300
300
300
300
300
300
300
300
300
300
300
344.75378
334.00616
323.50847
314.25639
307.28436
302.98607
300.90158
300.1519
299.98118
299.97641
299.99115
299.99809
299.99982
300.00003
300.00002
300
300
300
300
300
300
300
300
300
300
300
300
300
300
300
300
300
300
300
300
300
300
300
300
300
344.79118
334.12201
323.69216
314.47102
307.47659
303.11819
300.97034
300.17786
299.98735
299.97666
299.99066
299.99785
299.99976
300.00003
300.00002
300
300
300
300
300
300
300
300
300
300
300
300
300
300
300
300
300
300
300
300
300
300
300
300
300
344.82768
334.23516
323.87187
314.68193
307.66703
303.2507
301.04052
300.20507
299.99419
299.97713
299.99019
299.9976
299.99969
300.00002
300.00002
300
300
300
300
300
300
300
300
300
300
300
300
300
300
300
300
300
300
300
300
300
300
300
300
300
344.86332
334.34568
324.0477
314.88918
307.85566
303.38351
301.11206
300.23352
300.00169
299.97783
299.98977
299.99735
299.99962
300
300.00002
300.00001
300
300
300
300
300
300
300
300
300
300
300
300
300
300
300
300
300
300
300
300
300
300
300
300
344.89812
334.45365
324.21977
315.09285
308.04246
303.51654
301.18489
300.2632
300.00989
299.97878
299.98939
299.99709
299.99954
299.99999
300.00002
300.00001
300
300
300
300
300
300
300
300
300
300
300
300
300
300
300
300
300
300
300
300
300
300
300
300
344.93215
334.55916
324.38817
315.29301
308.22741
303.64974
301.25895
300.29409
300.01877
299.97998
299.98906
299.99683
299.99946
299.99998
300.00002
300.00001
300
300
300
300
300
300
300
300
300
300
300
300
300
300
300
300
300
300
300
300
300
300
300
300
344.96546
334.66234
324.55305
315.48975
308.41052
303.78302
301.33418
300.32616
300.02835
299.98145
299.98879
299.99657
299.99937
299.99996
300.00001
300.00001
300
300
300
300
300
300
300
300
300
300
300
300
300
300
300
300
300
300
300
300
300
300
300
300
344.9981
334.76333
324.71457
315.68317
308.59178
303.91633
301.41053
300.35939
300.03863
299.98319
299.98859
299.99632
299.99927
299.99994
300.00001
300.00001
300
300
300
300
300
300
300
300
300
300
300
300
300
300
300
300
300
300
300
300
300
300
300
300
345.03013
334.86226
324.87288
315.87337
308.7712
304.04961
301.48793
300.39376
300.04962
299.98523
299.98847
299.99607
299.99917
299.99991
300.00001
300.00001
300
300
300
300
300
300
300
300
300
300
300
300
300
300
300
300
300
300
300
300
300
300
300
300
345.06156
334.95925
325.02813
316.06048
308.94881
304.18281
301.56634
300.42924
300.06132
299.98757
299.98842
299.99582
299.99907
299.99989
300.00001
300.00001
300
300
300
300
300
300
300
300
300
300
300
300
300
300
300
300
300
300
300
300
300
300
300
300
345.09239
335.05435
325.18046
316.24458
309.12462
304.31589
301.64569
300.46582
300.07373
299.99021
299.98846
299.99559
299.99896
299.99986
300
300.00001
300
300
300
300
300
300
300
300
300
300
300
300
300
300
300
300
300
300
300
300
300
300
300
300
345.12258
335.1476
325.32993
316.42576
309.29864
304.4488
301.72592
300.50346
300.08686
299.99318
299.98859
299.99537
299.99885
299.99983
300
300.00001
300
300
300
300
300
300
300
300
300
300
300
300
300
300
300
300
300
300
300
300
300
300
300
300
345.15214
335.23897
325.47661
316.60408
309.47088
304.58148
301.807
300.54214
300.1007
299.99648
299.98883
299.99517
299.99874
299.9998
299.99999
300.00001
300
300
300
300
300
300
300
300
300
300
300
300
300
300
300
300
300
300
300
300
300
300
300
300
345.18104
335.32846
325.62052
316.77957
309.64134
304.7139
301.88887
300.58183
300.11526
300.00011
299.98917
299.99498
299.99863
299.99976
299.99999
300.00001
300
300
300
300
300
300
300
300
300
300
300
300
300
300
300
300
300
300
300
300
300
300
300
300
345.2093
335.41608
325.76168
316.95227
309.81001
304.84601
301.97147
300.62252
300.13052
300.00409
299.98962
299.99481
299.99851
299.99973
299.99998
300
300
300
300
300
300
300
300
300
300
300
300
300
300
300
300
300
300
300
300
300
300
300
300
300
345.23699
335.50188
325.90014
317.12221
309.97688
304.97777
302.05478
300.66417
300.1465
300.00842
299.99019
299.99467
299.99839
299.99969
299.99997
300
300
300
300
300
300
300
300
300
300
300
300
300
300
300
300
300
300
300
300
300
300
300
300
300
345.26415
335.58597
326.03599
317.28943
310.14196
305.10914
302.13874
300.70677
300.16319
300.01311
299.9909
299.99456
299.99828
299.99964
299.99996
300
300
300
300
300
300
300
300
300
300
300
300
300
300
300
300
300
300
300
300
300
300
300
300
300
345.29087
335.66848
326.16934
317.45402
310.30527
305.2401
302.22331
300.75029
300.18059
300.01817
299.99173
299.99447
299.99816
299.9996
299.99995
300
300
300
300
300
300
300
300
300
300
300
300
300
300
300
300
300
300
300
300
300
300
300
300
300
345.31719
335.74957
326.30035
317.61608
310.46684
305.37062
302.30846
300.79471
300.19868
300.02359
299.9927
299.99442
299.99805
299.99955
299.99994
300
300
300
300
300
300
300
300
300
300
300
300
300
300
300
300
300
300
300
300
300
300
300
300
300
345.34316
335.82936
326.42917
317.77573
310.62671
305.50069
302.39415
300.84
300.21748
300.0294
299.99382
299.99441
299.99794
299.99951
299.99993
300
300
300
300
300
300
300
300
300
300
300
300
300
300
300
300
300
300
300
300
300
300
300
300
300
345.36877
335.90795
326.55596
317.93308
310.78493
305.63029
302.48034
300.88614
300.23697
300.03559
299.99508
299.99444
299.99784
299.99946
299.99991
299.99999
300
300
300
300
300
300
300
300
300
300
300
300
300
300
300
300
300
300
300
300
300
300
300
300
345.39399
335.98535
326.68079
318.08824
310.94156
305.75941
302.567
300.9331
300.25714
300.04217
299.99651
299.99451
299.99774
299.99941
299.9999
299.99999
300
300
300
300
300
300
300
300
300
300
300
300
300
300
300
300
300
300
300
300
300
300
300
300
345.41876
336.06152
326.80372
318.24129
311.09664
305.88805
302.65409
300.98086
300.278
300.04914
299.99809
299.99462
299.99765
299.99936
299.99988
299.99999
300
300
300
300
300
300
300
300
300
300
300
300
300
300
300
300
300
300
300
300
300
300
300
300
345.44303
336.13639
326.92474
318.39224
311.25019
306.01618
302.74158
301.02938
300.29952
300.0565
299.99985
299.99479
299.99757
299.9993
299.99986
299.99999
300
300
300
300
300
300
300
300
300
300
300
300
300
300
300
300
300
300
300
300
300
300
300
300
345.46678
336.20987
327.04379
318.54112
311.4022
306.1438
302.82944
301.07866
300.32171
300.06426
300.00178
299.99501
299.9975
299.99925
299.99985
299.99998
300
300
300
300
300
300
300
300
300
300
300
300
300
300
300
300
300
300
300
300
300
300
300
300
345.49001
336.28192
327.16083
318.68788
311.55267
306.27087
302.91764
301.12867
300.34456
300.07243
300.00388
299.99528
299.99744
299.9992
299.99983
299.99998
300
300
300
300
300
300
300
300
300
300
300
300
300
300
300
300
300
300
300
300
300
300
300
300
345.51277
336.35255
327.27584
318.83253
311.70157
306.39737
303.00615
301.17939
300.36807
300.081
300.00617
299.99562
299.99739
299.99915
299.99981
299.99997
300
300
300
300
300
300
300
300
300
300
300
300
300
300
300
300
300
300
300
300
300
300
300
300
345.53514
336.42186
327.38886
318.97505
311.84891
306.52328
303.09495
301.2308
300.39222
300.08998
300.00865
299.99602
299.99736
299.9991
299.99979
299.99997
300
300
300
300
300
300
300
300
300
300
300
300
300
300
300
300
300
300
300
300
300
300
300
300
345.55721
336.49
327.49999
319.11552
311.99469
306.64858
303.18401
301.28289
300.41703
300.09937
300.01132
299.99648
299.99734
299.99905
299.99977
299.99996
300
300
300
300
300
300
300
300
300
300
300
300
300
300
300
300
300
300
300
300
300
300
300
300
345.57909
336.55718
327.60941
319.25402
312.13895
306.77327
303.27331
301.33564
300.44247
300.10917
300.01418
299.99702
299.99734
299.999
299.99975
299.99995
300
300
300
300
300
300
300
300
300
300
300
300
300
300
300
300
300
300
300
300
300
300
300
300
345.60083
336.6236
327.71732
319.39071
312.28177
306.89736
303.36284
301.38903
300.46854
300.1194
300.01725
299.99763
299.99735
299.99895
299.99972
299.99995
299.99999
300
300
300
300
300
300
300
300
300
300
300
300
300
300
300
300
300
300
300
300
300
300
300
345.62246
336.68941
327.82393
319.52575
312.42323
307.02088
303.45259
301.44306
300.49525
300.13004
300.02053
299.99831
299.99739
299.99891
299.9997
299.99994
299.99999
300
300
300
300
300
300
300
300
300
300
300
300
300
300
300
300
300
300
300
300
300
300
300
345.64395
336.75469
327.9294
319.6593
312.56345
307.14388
303.54255
301.49769
300.52257
300.1411
300.02401
299.99908
299.99745
299.99887
299.99968
299.99993
299.99999
300
300
300
300
300
300
300
300
300
300
300
300
300
300
300
300
300
300
300
300
300
300
300
345.66523
336.81941
328.03384
319.79152
312.70253
307.26638
303.63273
301.55292
300.5505
300.15258
300.02771
299.99993
299.99753
299.99884
299.99965
299.99993
299.99999
300
300
300
300
300
300
300
300
300
300
300
300
300
300
300
300
300
300
300
300
300
300
300
345.68621
336.88347
328.13724
319.92245
312.84054
307.38842
303.7231
301.60873
300.57903
300.16447
300.03163
300.00086
299.99764
299.99881
299.99963
299.99992
299.99999
300
300
300
300
300
300
300
300
300
300
300
300
300
300
300
300
300
300
300
300
300
300
300
345.70682
336.94673
328.2396
320.05223
312.97762
307.51013
303.81376
301.66516
300.60818
300.1768
300.03578
300.00189
299.99777
299.99878
299.99961
299.99991
299.99998
300
300
300
300
300
300
300
300
300
300
300
300
300
300
300
300
300
300
300
300
300
300
300
345.72694
337.00888
328.34048
320.18033
313.11321
307.63092
303.90421
301.72188
300.63776
300.18948
300.04012
300.00299
299.99793
299.99876
299.99958
299.9999
299.99998
300
300
300
300
300
300
300
300
300
300
300
300
300
300
300
300
300
300
300
300
300
300
300
345.74682
337.07057
328.44144
320.30936
313.25057
307.75406
303.99711
301.78066
300.66878
300.20297
300.04484
300.00424
299.99813
299.99875
299.99956
299.99989
299.99998
300
300
300
300
300
300
300
300
300
300
300
300
300
300
300
300
300
300
300
300
300
300
300
345.76572
337.12731
328.53234
320.42408
313.37177
307.86229
304.07866
301.83231
300.69611
300.21492
300.04905
300.00537
299.99832
299.99874
299.99954
299.99988
299.99998
300
300
300
300
300
300
300
300
300
300
300
300
300
300
300
300
300
300
300
300
300
300
300
345.79185
337.21328
328.67672
320.61195
313.57485
308.04715
304.22047
301.9238
300.74553
300.23707
300.05713
300.00766
299.99875
299.99875
299.99951
299.99987
299.99997
300
300
300
300
300
300
300
300
300
300
300
300
300
300
300
300
300
300
300
300
300
300
300
)
;

boundaryField
{
    wall
    {
        type            fixedValue;
        value           uniform 350;
    }
    sides
    {
        type            zeroGradient;
    }
    frontAndBack
    {
        type            empty;
    }
    inlet
    {
        type            fixedValue;
        value           uniform 300;
    }
    outlet
    {
        type            zeroGradient;
    }
}


// ************************************************************************* //
