/*--------------------------------*- C++ -*----------------------------------*\
  =========                 |
  \\      /  F ield         | OpenFOAM: The Open Source CFD Toolbox
   \\    /   O peration     | Website:  https://openfoam.org
    \\  /    A nd           | Version:  10
     \\/     M anipulation  |
\*---------------------------------------------------------------------------*/
FoamFile
{
    format      ascii;
    class       volVectorField;
    location    "0.02";
    object      U;
}
// * * * * * * * * * * * * * * * * * * * * * * * * * * * * * * * * * * * * * //

dimensions      [0 1 -1 0 0 0 0];

internalField   nonuniform List<vector> 
4000
(
(0 0.016387199 0.47633097)
(0 0.022568639 0.51041129)
(0 0.0094575173 0.50059817)
(0 0.0055123248 0.50022474)
(0 0.004182087 0.50023677)
(0 0.0032403715 0.50016744)
(0 0.0025495625 0.50011821)
(0 0.0020498349 0.50008907)
(0 0.0016733298 0.50006915)
(0 0.0013799199 0.50005492)
(0 0.0011454681 0.50004462)
(0 0.00095379806 0.50003704)
(0 0.0007937209 0.50003135)
(0 0.00065729661 0.50002706)
(0 0.0005387197 0.50002381)
(0 0.00043362487 0.50002135)
(0 0.00033863598 0.50001952)
(0 0.00025105944 0.5000182)
(0 0.0001686698 0.50001731)
(0 8.9552038e-05 0.50001681)
(0 1.1978823e-05 0.50001666)
(0 -6.569662e-05 0.50001685)
(0 -0.0001451324 0.5000174)
(0 -0.00022808675 0.50001834)
(0 -0.00031652793 0.50001973)
(0 -0.00041276777 0.50002166)
(0 -0.00051963158 0.50002424)
(0 -0.00064069656 0.50002767)
(0 -0.00078063828 0.50003221)
(0 -0.00094575834 0.50003827)
(0 -0.0011448269 0.50004643)
(0 -0.001390409 0.50005766)
(0 -0.0017011219 0.50007329)
(0 -0.0021075511 0.50009596)
(0 -0.0026617801 0.5001337)
(0 -0.0034157009 0.50018852)
(0 -0.0044825279 0.50019261)
(0 -0.0074746905 0.50048017)
(0 -0.017198423 0.50802662)
(0 -0.012232152 0.4787079)
(0 0.034167376 0.44480141)
(0 0.049235904 0.53555769)
(0 0.023596248 0.50850002)
(0 0.015822773 0.50327185)
(0 0.012358011 0.50236296)
(0 0.0095090508 0.50161786)
(0 0.0075040967 0.5011506)
(0 0.0060573852 0.50086223)
(0 0.0049559378 0.50066588)
(0 0.0040937292 0.5005275)
(0 0.003402775 0.50042788)
(0 0.0028363969 0.50035461)
(0 0.0023623486 0.50029987)
(0 0.0019576354 0.50025859)
(0 0.0016053561 0.50022732)
(0 0.0012927571 0.50020371)
(0 0.0010099437 0.50018614)
(0 0.00074900202 0.50017349)
(0 0.00050337734 0.50016499)
(0 0.00026741963 0.50016015)
(0 3.6026975e-05 0.5001587)
(0 -0.00019566503 0.50016057)
(0 -0.00043255359 0.50016587)
(0 -0.00067982891 0.50017491)
(0 -0.00094329532 0.50018824)
(0 -0.0012297559 0.50020669)
(0 -0.0015475027 0.5002315)
(0 -0.0019070029 0.50026446)
(0 -0.0023218876 0.50030819)
(0 -0.002810433 0.50036657)
(0 -0.0033979364 0.50044552)
(0 -0.0041206329 0.50055445)
(0 -0.0050310592 0.50070807)
(0 -0.0062101281 0.50093208)
(0 -0.0078168161 0.50129115)
(0 -0.010080987 0.5018732)
(0 -0.012869421 0.50261216)
(0 -0.018563693 0.50639538)
(0 -0.037887617 0.52797429)
(0 -0.025888954 0.44800699)
(0 0.037577535 0.40642211)
(0 0.059885933 0.5519748)
(0 0.033039628 0.52247878)
(0 0.023869298 0.50981963)
(0 0.019157234 0.50654394)
(0 0.0149638 0.50452552)
(0 0.01197848 0.50326461)
(0 0.009753074 0.50245488)
(0 0.0080229011 0.50189919)
(0 0.0066544632 0.5015074)
(0 0.0055488134 0.50122453)
(0 0.0046365331 0.50101599)
(0 0.0038690679 0.50085997)
(0 0.0032111581 0.50074214)
(0 0.0026365617 0.50065281)
(0 0.002125292 0.50058532)
(0 0.0016617218 0.50053506)
(0 0.0012332702 0.50049885)
(0 0.00082946191 0.5004745)
(0 0.00044122927 0.50046063)
(0 6.0362714e-05 0.50045647)
(0 -0.00032097481 0.50046182)
(0 -0.00071067207 0.50047699)
(0 -0.0011170737 0.50050287)
(0 -0.001549482 0.50054101)
(0 -0.0020187485 0.50059378)
(0 -0.0025380181 0.50066467)
(0 -0.0031237566 0.50075876)
(0 -0.0037972105 0.50088346)
(0 -0.0045865117 0.50104966)
(0 -0.0055298864 0.50127392)
(0 -0.0066812599 0.50158237)
(0 -0.0081171573 0.50201681)
(0 -0.0099401434 0.50264531)
(0 -0.012342521 0.50361458)
(0 -0.015683292 0.50517882)
(0 -0.019497123 0.50767322)
(0 -0.025925367 0.51686231)
(0 -0.046680098 0.54156847)
(0 -0.029431097 0.41240066)
(0 0.033328995 0.3591809)
(0 0.062613106 0.55602539)
(0 0.040118352 0.5379581)
(0 0.029634639 0.51829154)
(0 0.024074952 0.51191457)
(0 0.019239072 0.50848273)
(0 0.015694526 0.50625272)
(0 0.012928562 0.50474939)
(0 0.010724453 0.50370063)
(0 0.0089532424 0.50295355)
(0 0.00750274 0.50240927)
(0 0.0062934074 0.50200545)
(0 0.0052677509 0.50170195)
(0 0.0043826942 0.50147191)
(0 0.0036055465 0.50129701)
(0 0.0029110172 0.50116459)
(0 0.0022790694 0.50106581)
(0 0.0016933974 0.50099452)
(0 0.0011403053 0.50094655)
(0 0.00060785636 0.50091919)
(0 8.5195282e-05 0.50091098)
(0 -0.00043806433 0.50092151)
(0 -0.0009723759 0.50095139)
(0 -0.0015287594 0.50100233)
(0 -0.0021194341 0.50107732)
(0 -0.0027585447 0.50118093)
(0 -0.0034630521 0.50131985)
(0 -0.0042539356 0.50150377)
(0 -0.0051578489 0.50174667)
(0 -0.0062094092 0.50206902)
(0 -0.0074542388 0.50250125)
(0 -0.0089544302 0.50309039)
(0 -0.010796953 0.50391108)
(0 -0.013082914 0.5050785)
(0 -0.015964501 0.50679587)
(0 -0.019855267 0.50943746)
(0 -0.024356942 0.51413872)
(0 -0.031574314 0.52866205)
(0 -0.049814139 0.54570167)
(0 -0.027645842 0.37035147)
(0 0.026198858 0.31333849)
(0 0.061203781 0.55102885)
(0 0.045267484 0.55192519)
(0 0.03367965 0.52733231)
(0 0.027435216 0.51759886)
(0 0.0224041 0.51286782)
(0 0.018592109 0.50970468)
(0 0.015498853 0.50747658)
(0 0.012983019 0.5058892)
(0 0.01092438 0.50473954)
(0 0.009210991 0.50389085)
(0 0.0077642553 0.5032552)
(0 0.0065245419 0.502774)
(0 0.005445603 0.5024072)
(0 0.0044915334 0.50212707)
(0 0.0036339744 0.50191423)
(0 0.0028500628 0.50175502)
(0 0.0021209247 0.50163988)
(0 0.0014305204 0.50156227)
(0 0.00076474141 0.50151796)
(0 0.00011067924 0.50150463)
(0 -0.00054405403 0.50152162)
(0 -0.0012119234 0.50156992)
(0 -0.0019060123 0.5016522)
(0 -0.0026407251 0.50177314)
(0 -0.0034325655 0.50193985)
(0 -0.0043010632 0.50216272)
(0 -0.0052699806 0.50245658)
(0 -0.0063689092 0.50284263)
(0 -0.007635431 0.50335144)
(0 -0.0091174957 0.50402751)
(0 -0.010877215 0.50493712)
(0 -0.013001857 0.50618296)
(0 -0.015589044 0.50791805)
(0 -0.01873519 0.51036424)
(0 -0.022843828 0.51397726)
(0 -0.027882106 0.52103256)
(0 -0.036014186 0.53973528)
(0 -0.050073512 0.54266267)
(0 -0.023624868 0.3292472)
(0 0.018609481 0.27434018)
(0 0.056894475 0.54034314)
(0 0.047949056 0.56309275)
(0 0.036280147 0.53652958)
(0 0.029612932 0.5233477)
(0 0.024632711 0.5173232)
(0 0.02073677 0.5133205)
(0 0.017481859 0.51041649)
(0 0.014790627 0.50830485)
(0 0.012548057 0.50674825)
(0 0.010650864 0.50558288)
(0 0.0090273753 0.50470053)
(0 0.0076201683 0.50402671)
(0 0.0063834925 0.50350945)
(0 0.0052810158 0.5031122)
(0 0.0042833663 0.50280902)
(0 0.0033663944 0.50258144)
(0 0.0025098317 0.5024164)
(0 0.0016962126 0.50230491)
(0 0.00091000645 0.50224116)
(0 0.0001368996 0.50222191)
(0 -0.00063689272 0.50224626)
(0 -0.0014252368 0.50231555)
(0 -0.0022426153 0.5024335)
(0 -0.0031048415 0.50260652)
(0 -0.004029818 0.50284436)
(0 -0.0050384138 0.50316108)
(0 -0.0061555653 0.50357661)
(0 -0.0074116546 0.504119)
(0 -0.0088444272 0.50482803)
(0 -0.010500905 0.50576043)
(0 -0.01243894 0.50699798)
(0 -0.014739859 0.50866354)
(0 -0.017501001 0.51093725)
(0 -0.020776165 0.51405142)
(0 -0.024912385 0.5186137)
(0 -0.030276578 0.52815609)
(0 -0.038802443 0.54917208)
(0 -0.048134594 0.53485148)
(0 -0.018770289 0.29314672)
(0 0.011898966 0.24196102)
(0 0.05074476 0.52574344)
(0 0.048211296 0.57081715)
(0 0.037609005 0.54553681)
(0 0.030820826 0.52913184)
(0 0.026037536 0.52171151)
(0 0.022207439 0.51694727)
(0 0.01892873 0.51343776)
(0 0.016171654 0.51083925)
(0 0.01383176 0.50889375)
(0 0.011820853 0.50741864)
(0 0.010076736 0.50628981)
(0 0.0085467674 0.50541991)
(0 0.0071882489 0.50474712)
(0 0.0059664726 0.50422725)
(0 0.0048526911 0.50382849)
(0 0.003822784 0.50352796)
(0 0.002856143 0.50330935)
(0 0.0019347379 0.50316131)
(0 0.001042342 0.50307648)
(0 0.00016387833 0.50305075)
(0 -0.00071522909 0.50308298)
(0 -0.001609638 0.50317488)
(0 -0.0025345778 0.50333112)
(0 -0.0035065287 0.50355981)
(0 -0.0045439094 0.50387318)
(0 -0.0056678527 0.50428872)
(0 -0.0069031521 0.50483095)
(0 -0.0082793578 0.50553397)
(0 -0.0098323725 0.50644534)
(0 -0.011606256 0.5076319)
(0 -0.013652732 0.50918796)
(0 -0.01604234 0.51125111)
(0 -0.018867723 0.51401983)
(0 -0.022153443 0.51775061)
(0 -0.026188934 0.52333275)
(0 -0.031653101 0.5353416)
(0 -0.039823002 0.55635728)
(0 -0.04456494 0.5235357)
(0 -0.013928632 0.26209972)
(0 0.0067150997 0.21509983)
(0 0.043849701 0.50852357)
(0 0.046675935 0.57493151)
(0 0.037921366 0.55382196)
(0 0.031252748 0.53481688)
(0 0.02673564 0.52593505)
(0 0.023089092 0.52048331)
(0 0.019897776 0.5164486)
(0 0.017162108 0.51341211)
(0 0.014796687 0.51110831)
(0 0.012732183 0.50934232)
(0 0.010916955 0.50797754)
(0 0.0093049819 0.5069167)
(0 0.0078583512 0.50609016)
(0 0.0065453807 0.50544751)
(0 0.00533916 0.50495204)
(0 0.0042166345 0.50457706)
(0 0.0031577296 0.50430336)
(0 0.0021445958 0.50411754)
(0 0.0011609627 0.50401082)
(0 0.00019158123 0.5039783)
(0 -0.00077835134 0.5040186)
(0 -0.0017637176 0.50413375)
(0 -0.0027798964 0.50432934)
(0 -0.0038433748 0.50461498)
(0 -0.0049723334 0.50500509)
(0 -0.0061872889 0.50552018)
(0 -0.0075118701 0.50618871)
(0 -0.008973622 0.50704982)
(0 -0.01060516 0.5081574)
(0 -0.012445974 0.50958641)
(0 -0.014540637 0.51144142)
(0 -0.016945909 0.51387075)
(0 -0.019742209 0.51708193)
(0 -0.022935435 0.52137455)
(0 -0.026793112 0.52803322)
(0 -0.032188399 0.54220804)
(0 -0.039400361 0.56093983)
(0 -0.040071445 0.50967734)
(0 -0.0096739392 0.23546526)
(0 0.0031270041 0.19328287)
(0 0.037010793 0.49000624)
(0 0.044023549 0.57575708)
(0 0.037482766 0.56095382)
(0 0.031121782 0.54022937)
(0 0.02688528 0.52990786)
(0 0.023488714 0.52384055)
(0 0.020459156 0.51936933)
(0 0.017808612 0.51595514)
(0 0.015474134 0.51333368)
(0 0.013405157 0.51130436)
(0 0.011560608 0.50972184)
(0 0.0099021997 0.50848179)
(0 0.0083977894 0.50750883)
(0 0.007019586 0.50674777)
(0 0.0057433523 0.506158)
(0 0.0045478555 0.50570976)
(0 0.0034142254 0.50538149)
(0 0.0023253951 0.50515801)
(0 0.0012655983 0.50502936)
(0 0.00021992313 0.50498994)
(0 -0.00082616682 0.50503818)
(0 -0.0018872842 0.50517638)
(0 -0.0029784438 0.50541092)
(0 -0.0041155892 0.50575267)
(0 -0.0053160559 0.50621792)
(0 -0.0065990672 0.50682964)
(0 -0.0079863308 0.50761949)
(0 -0.0095025832 0.50863061)
(0 -0.01117623 0.50992179)
(0 -0.01304105 0.511574)
(0 -0.015134082 0.51369943)
(0 -0.017498158 0.51645301)
(0 -0.020197427 0.52004345)
(0 -0.023228677 0.52483752)
(0 -0.026874726 0.53257555)
(0 -0.032074378 0.54838848)
(0 -0.037955901 0.56295535)
(0 -0.035232757 0.49431724)
(0 -0.0062678919 0.21302261)
(0 0.00087142225 0.17601484)
(0 0.030699065 0.47130967)
(0 0.040778605 0.57387884)
(0 0.036504909 0.56673952)
(0 0.030611804 0.54526186)
(0 0.026647568 0.53359307)
(0 0.023520819 0.52696365)
(0 0.020691841 0.52214083)
(0 0.018166891 0.51841516)
(0 0.015903368 0.51552286)
(0 0.013866977 0.5132634)
(0 0.012026337 0.51148664)
(0 0.010351048 0.5100839)
(0 0.0088149521 0.50897598)
(0 0.0073945307 0.50810432)
(0 0.0060687001 0.50742549)
(0 0.0048185306 0.50690744)
(0 0.0036268225 0.50652676)
(0 0.0024777388 0.5062669)
(0 0.0013564441 0.50611692)
(0 0.00024877423 0.5060707)
(0 -0.00085913873 0.50612647)
(0 -0.0019812323 0.50628679)
(0 -0.0031317456 0.50655863)
(0 -0.0043256492 0.50695391)
(0 -0.0055789839 0.50749036)
(0 -0.0069092074 0.50819289)
(0 -0.0083356144 0.50909552)
(0 -0.0098796813 0.51024436)
(0 -0.011565243 0.51170163)
(0 -0.013419951 0.51355227)
(0 -0.015473541 0.51591321)
(0 -0.017756603 0.51894194)
(0 -0.020317038 0.5228461)
(0 -0.023151031 0.52809072)
(0 -0.026574661 0.53686609)
(0 -0.031467012 0.55366812)
(0 -0.035846484 0.56270656)
(0 -0.030436136 0.47838675)
(0 -0.0037264396 0.19453177)
(0 -0.00040749311 0.16251808)
(0 0.025159755 0.45317217)
(0 0.037316938 0.56991037)
(0 0.035157979 0.57115873)
(0 0.029859009 0.54986637)
(0 0.026153758 0.5369985)
(0 0.023287027 0.52983775)
(0 0.020672011 0.52473288)
(0 0.01829435 0.52075909)
(0 0.016126839 0.51764323)
(0 0.014148561 0.51518867)
(0 0.012336541 0.5132437)
(0 0.010667634 0.51169751)
(0 0.0091213009 0.51046866)
(0 0.0076782753 0.50949654)
(0 0.0063207831 0.50873591)
(0 0.0050324244 0.50815311)
(0 0.0037979422 0.50772344)
(0 0.0026030246 0.50742935)
(0 0.001434071 0.50725917)
(0 0.00027796805 0.50720637)
(0 -0.00087817899 0.50726907)
(0 -0.0020473267 0.50744997)
(0 -0.0032426335 0.50775653)
(0 -0.0044777923 0.50820143)
(0 -0.0057672548 0.50880347)
(0 -0.0071264414 0.50958888)
(0 -0.0085719948 0.51059337)
(0 -0.010121992 0.51186492)
(0 -0.01179579 0.51346793)
(0 -0.013615132 0.51548961)
(0 -0.015603041 0.51804914)
(0 -0.017779857 0.52130343)
(0 -0.020179519 0.52546285)
(0 -0.022805373 0.53112325)
(0 -0.026005535 0.54085463)
(0 -0.030495513 0.55795792)
(0 -0.033360797 0.56058476)
(0 -0.025933605 0.46255099)
(0 -0.0019399141 0.17950209)
(0 -0.0010326646 0.15197824)
(0 0.020485995 0.43601448)
(0 0.033897283 0.56439563)
(0 0.033588061 0.57428199)
(0 0.028963711 0.55401876)
(0 0.025503087 0.54014784)
(0 0.022870326 0.53247377)
(0 0.020465991 0.527138)
(0 0.018243619 0.52297134)
(0 0.01618541 0.51967553)
(0 0.014281168 0.51705957)
(0 0.012514913 0.51497254)
(0 0.010869727 0.51330293)
(0 0.0093300245 0.51196835)
(0 0.0078805035 0.51090718)
(0 0.006506599 0.51007318)
(0 0.0051944594 0.50943175)
(0 0.0039308776 0.50895736)
(0 0.0027032257 0.50863178)
(0 0.0014993241 0.50844289)
(0 0.0003073104 0.50838386)
(0 -0.00088453004 0.50845271)
(0 -0.0020879642 0.50865228)
(0 -0.0033148696 0.50899033)
(0 -0.0045774753 0.50948005)
(0 -0.0058884872 0.51014093)
(0 -0.0072611884 0.51100009)
(0 -0.0087095448 0.51209417)
(0 -0.010248324 0.51347223)
(0 -0.011892756 0.51519979)
(0 -0.013659265 0.51736503)
(0 -0.015564934 0.52008757)
(0 -0.017621654 0.52352177)
(0 -0.019852769 0.52788868)
(0 -0.022275824 0.53394099)
(0 -0.025257408 0.5445079)
(0 -0.029277164 0.56124606)
(0 -0.030728658 0.55697951)
(0 -0.021879413 0.44723576)
(0 -0.00075555049 0.16735006)
(0 -0.001253394 0.14371318)
(0 0.016663461 0.42005452)
(0 0.030678629 0.55779405)
(0 0.031914621 0.57623137)
(0 0.028000286 0.5577091)
(0 0.024769859 0.5430654)
(0 0.022337418 0.5348937)
(0 0.02012931 0.52936168)
(0 0.018060281 0.52504769)
(0 0.016115924 0.5216103)
(0 0.014294165 0.51886364)
(0 0.012584563 0.51665914)
(0 0.010975276 0.51488561)
(0 0.0094549029 0.51346055)
(0 0.0080116588 0.51232213)
(0 0.0066339162 0.51142373)
(0 0.0053102448 0.51073031)
(0 0.0040294685 0.51021592)
(0 0.0027806887 0.50986198)
(0 0.00155323 0.50965609)
(0 0.00033658807 0.50959122)
(0 -0.00087965347 0.50966537)
(0 -0.0021059531 0.50988142)
(0 -0.0033528009 0.51024733)
(0 -0.0046308793 0.51077658)
(0 -0.0059511051 0.51148903)
(0 -0.0073246535 0.51241222)
(0 -0.0087629434 0.51358325)
(0 -0.010277679 0.51505156)
(0 -0.011880439 0.51688298)
(0 -0.013583089 0.51916581)
(0 -0.015397689 0.52201871)
(0 -0.017329427 0.52559277)
(0 -0.019394861 0.53013006)
(0 -0.021631081 0.53655453)
(0 -0.024403255 0.5478039)
(0 -0.027914949 0.56357595)
(0 -0.028117382 0.55225132)
(0 -0.018346834 0.43270383)
(0 -2.0362561e-05 0.15754407)
(0 -0.0012435636 0.13717621)
(0 0.013611654 0.40537761)
(0 0.027741335 0.55048086)
(0 0.030225464 0.57715661)
(0 0.027020554 0.56094391)
(0 0.024007436 0.54577488)
(0 0.021740443 0.53712427)
(0 0.019707255 0.53141667)
(0 0.017782703 0.52699111)
(0 0.015950468 0.5234448)
(0 0.014213979 0.5205944)
(0 0.012566921 0.51829463)
(0 0.011001425 0.51643526)
(0 0.0095094775 0.51493429)
(0 0.0080822699 0.51373014)
(0 0.0067107448 0.51277629)
(0 0.0053856797 0.51203766)
(0 0.0040978222 0.51148818)
(0 0.0028379578 0.51110916)
(0 0.0015969152 0.51088807)
(0 0.00036557723 0.51081781)
(0 -0.00086513114 0.51089635)
(0 -0.0021043172 0.51112659)
(0 -0.0033610581 0.51151657)
(0 -0.0046444903 0.51207986)
(0 -0.005963786 0.51283646)
(0 -0.00732813 0.513814)
(0 -0.008746624 0.5150496)
(0 -0.010228263 0.5165926)
(0 -0.011781516 0.5185086)
(0 -0.013414503 0.52088535)
(0 -0.015135256 0.52383961)
(0 -0.016944021 0.52751983)
(0 -0.018854262 0.53220043)
(0 -0.020925356 0.53897773)
(0 -0.023499454 0.5507358)
(0 -0.026491303 0.5650309)
(0 -0.025634708 0.54671774)
(0 -0.015347515 0.41910252)
(0 0.00039758791 0.14962834)
(0 -0.0011157104 0.13192781)
(0 0.011219324 0.39197744)
(0 0.025112511 0.54274889)
(0 0.028578945 0.57721298)
(0 0.026057244 0.56374323)
(0 0.023251089 0.54829931)
(0 0.021117817 0.53919415)
(0 0.01923525 0.53332042)
(0 0.017442155 0.52880951)
(0 0.015716123 0.52518108)
(0 0.014063588 0.52224985)
(0 0.012481152 0.51987417)
(0 0.010963919 0.51794517)
(0 0.0095064888 0.51638165)
(0 0.0081024541 0.5151226)
(0 0.0067449272 0.51412187)
(0 0.0054266365 0.5133446)
(0 0.0041400835 0.51276487)
(0 0.002877627 0.51236403)
(0 0.001631537 0.51212955)
(0 0.00039405216 0.51205435)
(0 -0.00084257934 0.51213636)
(0 -0.0020861321 0.5123785)
(0 -0.0033443067 0.51278877)
(0 -0.004624761 0.51338073)
(0 -0.0059350324 0.51417427)
(0 -0.0072824898 0.51519687)
(0 -0.0086741992 0.51648541)
(0 -0.010116861 0.51808879)
(0 -0.011616412 0.520072)
(0 -0.013178015 0.52252182)
(0 -0.014806624 0.52555262)
(0 -0.016499233 0.52931204)
(0 -0.018269393 0.53411802)
(0 -0.02019874 0.54122725)
(0 -0.022586637 0.55331099)
(0 -0.025067197 0.56571529)
(0 -0.02334103 0.54064327)
(0 -0.012853111 0.40649179)
(0 0.00060174786 0.14321086)
(0 -0.00093879137 0.12762374)
(0 0.0093681432 0.37978957)
(0 0.022787342 0.53481699)
(0 0.027010128 0.57654552)
(0 0.025128905 0.56613413)
(0 0.02252195 0.55065921)
(0 0.020496012 0.54113114)
(0 0.018739665 0.53509269)
(0 0.017063113 0.53051398)
(0 0.015434922 0.52682447)
(0 0.013862316 0.52383126)
(0 0.012343849 0.52139605)
(0 0.010876752 0.51941152)
(0 0.0094575092 0.51779734)
(0 0.0080815742 0.51649319)
(0 0.006743845 0.51545346)
(0 0.0054387245 0.51464372)
(0 0.0041602578 0.51403832)
(0 0.0029022241 0.51361878)
(0 0.0016582295 0.51337268)
(0 0.00042179292 0.51329296)
(0 -0.00081357866 0.51337758)
(0 -0.0020543925 0.5136294)
(0 -0.0033070533 0.51405636)
(0 -0.0045778543 0.51467187)
(0 -0.0058728549 0.5154956)
(0 -0.0071978176 0.51655471)
(0 -0.008558069 0.5178856)
(0 -0.0099584349 0.51953659)
(0 -0.01140289 0.52157187)
(0 -0.012894371 0.52407703)
(0 -0.014435583 0.52716394)
(0 -0.01602179 0.53098229)
(0 -0.017669105 0.53590319)
(0 -0.019479036 0.54332035)
(0 -0.021692321 0.55554611)
(0 -0.023684871 0.56573825)
(0 -0.021263163 0.53423782)
(0 -0.010812714 0.39486958)
(0 0.00066845481 0.13796107)
(0 -0.0007529576 0.12400547)
(0 0.0079463305 0.36871877)
(0 0.020743674 0.52684347)
(0 0.025536919 0.57528197)
(0 0.024244436 0.56814597)
(0 0.021831172 0.55287113)
(0 0.019892108 0.54295983)
(0 0.01823926 0.53675326)
(0 0.016664002 0.532117)
(0 0.015124169 0.52838224)
(0 0.01362591 0.52534207)
(0 0.012168978 0.52286083)
(0 0.010751999 0.52083269)
(0 0.0093727287 0.51917811)
(0 0.0080280263 0.51783749)
(0 0.0067142279 0.51676584)
(0 0.0054271284 0.51592923)
(0 0.0041620855 0.51530238)
(0 0.0029141258 0.51486704)
(0 0.0016780636 0.51461094)
(0 0.0004485927 0.51452711)
(0 -0.00077962043 0.51461352)
(0 -0.0020119134 0.51487296)
(0 -0.0032535048 0.51531327)
(0 -0.0045094627 0.51594763)
(0 -0.0057845548 0.51679543)
(0 -0.0070831676 0.51788338)
(0 -0.0084091769 0.51924731)
(0 -0.0097659152 0.52093485)
(0 -0.011155911 0.52300939)
(0 -0.012580528 0.52555526)
(0 -0.014040934 0.52868209)
(0 -0.015531982 0.53254517)
(0 -0.017074061 0.53757601)
(0 -0.018784374 0.54527299)
(0 -0.020833859 0.55746269)
(0 -0.022371177 0.56520377)
(0 -0.019405463 0.52766239)
(0 -0.0091649621 0.38419493)
(0 0.00065184479 0.13361004)
(0 -0.00057986343 0.12088516)
(0 0.0068558751 0.35865752)
(0 0.018951443 0.51893975)
(0 0.024165248 0.57353142)
(0 0.023406457 0.56980804)
(0 0.02118323 0.55494765)
(0 0.019316197 0.54470055)
(0 0.01774676 0.53832042)
(0 0.016258215 0.53363108)
(0 0.01479707 0.52986239)
(0 0.013366889 0.52678701)
(0 0.011967984 0.5242706)
(0 0.010599795 0.52220866)
(0 0.0092608785 0.52052233)
(0 0.0079491433 0.51915264)
(0 0.0066620517 0.51805526)
(0 0.0053965098 0.51719676)
(0 0.0041489593 0.51655223)
(0 0.002915502 0.51610369)
(0 0.0016920224 0.51583907)
(0 0.00047426396 0.51575151)
(0 -0.00074206849 0.51583896)
(0 -0.001961262 0.51610417)
(0 -0.0031874747 0.51655481)
(0 -0.0044246978 0.51720384)
(0 -0.005676601 0.51807028)
(0 -0.006946435 0.51918037)
(0 -0.0082369017 0.52056937)
(0 -0.0095501655 0.52228417)
(0 -0.010887728 0.52438738)
(0 -0.012249937 0.5269622)
(0 -0.013637035 0.53011661)
(0 -0.015044594 0.53401537)
(0 -0.016498271 0.53915477)
(0 -0.018125579 0.54709915)
(0 -0.020020916 0.55908454)
(0 -0.021140804 0.56420605)
(0 -0.017758222 0.5210372)
(0 -0.00784636 0.37440502)
(0 0.00058903757 0.12994528)
(0 -0.00042957339 0.11812959)
(0 0.0060155072 0.34949707)
(0 0.01737866 0.51118183)
(0 0.02289342 0.57138534)
(0 0.022613775 0.57114838)
(0 0.020578274 0.55689798)
(0 0.018773302 0.54636936)
(0 0.017270267 0.53981026)
(0 0.015855155 0.53506799)
(0 0.014463468 0.53127303)
(0 0.013094979 0.52817137)
(0 0.011750027 0.52562833)
(0 0.010428439 0.52354049)
(0 0.0091292694 0.5218295)
(0 0.0078511917 0.520437)
(0 0.0065925038 0.51931919)
(0 0.0053509596 0.5184431)
(0 0.0041238812 0.51778418)
(0 0.0029082863 0.51732475)
(0 0.0017009878 0.51705293)
(0 0.00049864293 0.51696196)
(0 -0.00070213603 0.51704981)
(0 -0.0019047165 0.51731916)
(0 -0.0031123288 0.51777749)
(0 -0.0043280342 0.51843752)
(0 -0.0055545861 0.51931791)
(0 -0.0067943317 0.52044447)
(0 -0.0080490668 0.52185184)
(0 -0.0093200669 0.52358628)
(0 -0.010608121 0.52570969)
(0 -0.011912982 0.52830426)
(0 -0.013234485 0.53147723)
(0 -0.014569869 0.5354068)
(0 -0.015950449 0.54065531)
(0 -0.017508053 0.54881063)
(0 -0.019257532 0.56043594)
(0 -0.019999424 0.56282751)
(0 -0.016303961 0.51444961)
(0 -0.0067967697 0.36542654)
(0 0.0005045839 0.12680213)
(0 -0.00030520113 0.11564628)
(0 0.0053607352 0.34113385)
(0 0.015994864 0.50361941)
(0 0.021715509 0.56891956)
(0 0.021863181 0.57219309)
(0 0.020013832 0.55872852)
(0 0.018264925 0.54797833)
(0 0.016814483 0.54123645)
(0 0.015461182 0.53643848)
(0 0.014130504 0.53262194)
(0 0.012817539 0.52950058)
(0 0.011522241 0.52693745)
(0 0.01024458 0.5248299)
(0 0.0089839105 0.52310002)
(0 0.0077394271 0.52168986)
(0 0.006509993 0.52055607)
(0 0.0052939888 0.51966605)
(0 0.0040894502 0.51899557)
(0 0.0028941669 0.51852724)
(0 0.0017057363 0.51824936)
(0 0.00052159279 0.51815528)
(0 -0.0006608753 0.51824297)
(0 -0.0018442477 0.51851504)
(0 -0.0030309642 0.51897881)
(0 -0.0042232959 0.51964673)
(0 -0.0054232384 0.52053712)
(0 -0.0066324388 0.52167538)
(0 -0.0078520372 0.52309567)
(0 -0.0090826761 0.52484367)
(0 -0.010324663 0.52698066)
(0 -0.011577438 0.52958802)
(0 -0.012840811 0.53277334)
(0 -0.014114446 0.53673202)
(0 -0.015435256 0.54209083)
(0 -0.016933329 0.5504171)
(0 -0.018543892 0.56154032)
(0 -0.01894656 0.56113841)
(0 -0.015021862 0.50796104)
(0 -0.0059625417 0.357183)
(0 0.00041404164 0.12405514)
(0 -0.00020596319 0.11337228)
(0 0.0048421448 0.33347299)
(0 0.01477278 0.49628319)
(0 0.020623701 0.56619659)
(0 0.021150665 0.57296598)
(0 0.019486071 0.56044344)
(0 0.017790342 0.54953609)
(0 0.016381765 0.54261031)
(0 0.015080392 0.53775207)
(0 0.01380317 0.53391627)
(0 0.012539955 0.53077985)
(0 0.01129005 0.52820149)
(0 0.010053449 0.52607902)
(0 0.0088296648 0.52433484)
(0 0.0076181771 0.52291124)
(0 0.0064181895 0.52176513)
(0 0.0052285485 0.5208642)
(0 0.0040478749 0.52018455)
(0 0.0028745931 0.51970901)
(0 0.0017069427 0.51942606)
(0 0.00054300468 0.51932912)
(0 -0.00061917739 0.51941619)
(0 -0.0017815217 0.5196898)
(0 -0.0029458139 0.52015712)
(0 -0.004113671 0.52083033)
(0 -0.005286465 0.52172747)
(0 -0.006465301 0.52287357)
(0 -0.0076508764 0.52430238)
(0 -0.0088434392 0.52605918)
(0 -0.010043008 0.52820477)
(0 -0.011248886 0.53081989)
(0 -0.012461099 0.53401367)
(0 -0.013682242 0.53800205)
(0 -0.014954433 0.54347186)
(0 -0.01640036 0.55192613)
(0 -0.017877748 0.5624194)
(0 -0.0179779 0.55919761)
(0 -0.013890598 0.50161312)
(0 -0.0052978538 0.34959947)
(0 0.00032671634 0.12161045)
(0 -0.00012911773 0.1112654)
(0 0.004422942 0.32642985)
(0 0.013688833 0.48919041)
(0 0.019609741 0.56326797)
(0 0.020472174 0.57348874)
(0 0.018990705 0.56204538)
(0 0.017347605 0.55104851)
(0 0.01597292 0.54394105)
(0 0.014715206 0.53901699)
(0 0.013484758 0.53516239)
(0 0.012266017 0.53201395)
(0 0.011057488 0.52942391)
(0 0.0098591105 0.5272902)
(0 0.0086704048 0.52553533)
(0 0.0074909315 0.52410164)
(0 0.0063200842 0.52294616)
(0 0.0051570759 0.52203681)
(0 0.0040010034 0.52134994)
(0 0.0028507913 0.52086861)
(0 0.0017051861 0.52058142)
(0 0.00056279843 0.52048187)
(0 -0.00057777871 0.52056794)
(0 -0.0017179161 0.52084211)
(0 -0.0028588746 0.52131142)
(0 -0.0040017511 0.52198784)
(0 -0.0051474131 0.52288912)
(0 -0.0062965368 0.52403996)
(0 -0.0074495283 0.52547386)
(0 -0.0086064469 0.52723582)
(0 -0.0097672064 0.52938634)
(0 -0.010931105 0.53200578)
(0 -0.012098514 0.53520606)
(0 -0.013275197 0.53922631)
(0 -0.014507779 0.54480659)
(0 -0.015906558 0.55334354)
(0 -0.0172555 0.56309286)
(0 -0.017087013 0.55705387)
(0 -0.012889955 0.49543265)
(0 -0.0047648625 0.34260553)
(0 0.00024767552 0.11939899)
(0 -7.1155469e-05 0.10929742)
(0 0.0040763681 0.31993027)
(0 0.012723065 0.48234899)
(0 0.018665775 0.56017644)
(0 0.01982406 0.57378122)
(0 0.018523576 0.56353605)
(0 0.016934198 0.55251927)
(0 0.015587733 0.54523592)
(0 0.014366793 0.54024016)
(0 0.01317726 0.53636579)
(0 0.011998307 0.53320718)
(0 0.010827522 0.53060803)
(0 0.0096646772 0.52846586)
(0 0.0085091468 0.52670309)
(0 0.0073604376 0.5252619)
(0 0.0062180673 0.52409936)
(0 0.0050815542 0.52318359)
(0 0.0039503629 0.52249112)
(0 0.0028237858 0.52200518)
(0 0.001700958 0.52171445)
(0 0.00058092256 0.52161248)
(0 -0.00053727078 0.52169726)
(0 -0.0016545447 0.52197122)
(0 -0.0027717492 0.52244128)
(0 -0.0038895889 0.52311924)
(0 -0.0050085434 0.52402261)
(0 -0.0061289444 0.52517584)
(0 -0.0072509924 0.5266122)
(0 -0.0083746968 0.5283766)
(0 -0.0095000356 0.53052942)
(0 -0.010626443 0.53315101)
(0 -0.011754728 0.53635729)
(0 -0.012893821 0.54041257)
(0 -0.014093868 0.54610112)
(0 -0.015448564 0.55467374)
(0 -0.016672993 0.56357843)
(0 -0.016266585 0.55474742)
(0 -0.012001663 0.48943561)
(0 -0.0043331536 0.33613671)
(0 0.0001792013 0.1173706)
(0 -2.8492385e-05 0.10744927)
(0 0.0037833373 0.31390998)
(0 0.0118588 0.47576053)
(0 0.017784788 0.55695767)
(0 0.019203292 0.57386182)
(0 0.018080949 0.56491676)
(0 0.01654739 0.55395041)
(0 0.015225284 0.54650042)
(0 0.01403542 0.54142727)
(0 0.012881755 0.53753118)
(0 0.011738554 0.53436339)
(0 0.010602313 0.53175697)
(0 0.0094724762 0.5296084)
(0 0.0083481681 0.52783978)
(0 0.0072288041 0.52639306)
(0 0.0061140208 0.52522527)
(0 0.0050035812 0.52430466)
(0 0.0038971994 0.52360791)
(0 0.0027944184 0.52311831)
(0 0.0016946712 0.52282462)
(0 0.00059735363 0.52272042)
(0 -0.00049811148 0.5228037)
(0 -0.0015922849 0.52307684)
(0 -0.0026856974 0.52354666)
(0 -0.0037787719 0.52422487)
(0 -0.0048717181 0.52512878)
(0 -0.0059646053 0.52628263)
(0 -0.0070574668 0.52771956)
(0 -0.0081503196 0.52948444)
(0 -0.0092433178 0.53163775)
(0 -0.010336188 0.53426023)
(0 -0.011430299 0.53747312)
(0 -0.012537597 0.54156706)
(0 -0.01371053 0.54735981)
(0 -0.015022757 0.55592008)
(0 -0.016126061 0.56389202)
(0 -0.015509257 0.55231142)
(0 -0.011209729 0.48363026)
(0 -0.0039788347 0.33013513)
(0 0.00012182302 0.11548923)
(0 2.1680972e-06 0.10570764)
(0 0.0035304503 0.30831372)
(0 0.011082205 0.46942242)
(0 0.016960761 0.55364168)
(0 0.018607483 0.57374764)
(0 0.017659584 0.56618864)
(0 0.016184414 0.55534265)
(0 0.014884206 0.54773856)
(0 0.013720783 0.54258298)
(0 0.012598748 0.53866263)
(0 0.011487894 0.53548606)
(0 0.010383379 0.53287364)
(0 0.0092841661 0.5307201)
(0 0.0081891221 0.52894708)
(0 0.0070976189 0.52749626)
(0 0.0060094157 0.52632463)
(0 0.0049244317 0.52540046)
(0 0.0038425132 0.52470047)
(0 0.0027633686 0.52420798)
(0 0.0016866691 0.52391179)
(0 0.00061209569 0.52380552)
(0 -0.00046063724 0.52388715)
(0 -0.0015318047 0.52415902)
(0 -0.0026016847 0.52462788)
(0 -0.0036705008 0.52530534)
(0 -0.0047383022 0.52620863)
(0 -0.0058049919 0.52736185)
(0 -0.0068704673 0.52879803)
(0 -0.0079347433 0.5305621)
(0 -0.0089981747 0.53271474)
(0 -0.010060903 0.5353375)
(0 -0.01112503 0.53855831)
(0 -0.012205313 0.54269459)
(0 -0.013355175 0.5485855)
(0 -0.014625537 0.55708508)
(0 -0.01561084 0.56404794)
(0 -0.014808148 0.5497733)
(0 -0.01050047 0.47801944)
(0 -0.0036835013 0.32454952)
(0 7.5028763e-05 0.11372909)
(0 2.3674957e-05 0.10406274)
(0 0.0033084105 0.30309411)
(0 0.010381822 0.46332928)
(0 0.016188618 0.55025379)
(0 0.018034773 0.57345463)
(0 0.0172567 0.56735276)
(0 0.015842592 0.55669571)
(0 0.014562943 0.54895313)
(0 0.013422314 0.54371113)
(0 0.012328424 0.53976371)
(0 0.01124703 0.53657829)
(0 0.010171697 0.53396063)
(0 0.0091008433 0.53180302)
(0 0.0080331674 0.53002659)
(0 0.0069680704 0.52857274)
(0 0.0059053958 0.52739834)
(0 0.0048451071 0.52647161)
(0 0.00378709 0.52576919)
(0 0.0027311751 0.5252744)
(0 0.0016772365 0.52497609)
(0 0.0006251774 0.52486789)
(0 -0.00042507732 0.52494781)
(0 -0.0014735876 0.52521809)
(0 -0.0025204251 0.52568545)
(0 -0.0035656613 0.52636145)
(0 -0.0046092681 0.52726327)
(0 -0.0056510879 0.52841498)
(0 -0.0066909401 0.52984959)
(0 -0.0077288102 0.53161209)
(0 -0.0087651941 0.53376342)
(0 -0.009800688 0.5363864)
(0 -0.010838296 0.53961686)
(0 -0.011895387 0.54379878)
(0 -0.013025042 0.54977977)
(0 -0.014253477 0.5581706)
(0 -0.015123872 0.56405905)
(0 -0.014157086 0.54715584)
(0 -0.0098623527 0.47260231)
(0 -0.0034332205 0.31933485)
(0 3.7738318e-05 0.11207175)
(0 3.837678e-05 0.10250688)
(0 0.0031107911 0.29821053)
(0 0.0097481138 0.45747393)
(0 0.015464048 0.54681544)
(0 0.017483673 0.57299764)
(0 0.016869936 0.5684103)
(0 0.015519476 0.55800872)
(0 0.014259982 0.5501461)
(0 0.013139383 0.54481495)
(0 0.012070756 0.54083756)
(0 0.011016285 0.53764279)
(0 0.0099677824 0.5350202)