/*--------------------------------*- C++ -*----------------------------------*\
  =========                 |
  \\      /  F ield         | OpenFOAM: The Open Source CFD Toolbox
   \\    /   O peration     | Website:  https://openfoam.org
    \\  /    A nd           | Version:  10
     \\/     M anipulation  |
\*---------------------------------------------------------------------------*/
FoamFile
{
    format      ascii;
    class       surfaceScalarField;
    location    "0.16";
    object      phi;
}
// * * * * * * * * * * * * * * * * * * * * * * * * * * * * * * * * * * * * * //

dimensions      [1 0 -1 0 0 0 0];

internalField   nonuniform List<scalar> 
7860
(
3.9895163e-08
5.2881286e-07
1.2192104e-08
5.9641085e-07
7.4272678e-09
5.7347257e-07
5.4987038e-09
5.7063626e-07
4.1142644e-09
5.7009211e-07
3.2004238e-09
5.6962148e-07
2.5584609e-09
5.6934959e-07
2.0786822e-09
5.6918739e-07
1.7087579e-09
5.6907752e-07
1.4161627e-09
5.6900019e-07
1.1790996e-09
5.6894465e-07
9.8280448e-10
5.6890387e-07
8.169322e-10
5.6887344e-07
6.7399123e-10
5.6885051e-07
5.4840682e-10
5.6883315e-07
4.3591693e-10
5.6882005e-07
3.3316641e-10
5.6881031e-07
2.374264e-10
5.6880329e-07
1.4639238e-10
5.6879859e-07
5.8031626e-11
5.6879591e-07
-2.9540219e-11
5.6879512e-07
-1.1816684e-10
5.6879618e-07
-2.0975649e-10
5.6879914e-07
-3.0638825e-10
5.6880419e-07
-4.1044465e-10
5.6881161e-07
-5.2477441e-10
5.6882189e-07
-6.5291329e-10
5.688357e-07
-7.9939696e-10
5.6885405e-07
-9.7022165e-10
5.6887839e-07
-1.1735508e-09
5.689109e-07
-1.4208881e-09
5.6895492e-07
-1.7290477e-09
5.6901575e-07
-2.1230115e-09
5.6910156e-07
-2.6426647e-09
5.6922726e-07
-3.3704228e-09
5.6943538e-07
-4.4618595e-09
5.6979908e-07
-6.0074581e-09
5.7025327e-07
-9.5066332e-09
5.7220688e-07
-2.9574175e-08
5.8877529e-07
5.3913374e-07
5.9670575e-08
4.691423e-07
3.6663696e-08
6.1941772e-07
2.2625975e-08
5.8751029e-07
1.6251278e-08
5.7701096e-07
1.228818e-08
5.740552e-07
9.6039708e-09
5.7230569e-07
7.6752943e-09
5.7127827e-07
6.2341101e-09
5.7062857e-07
5.124816e-09
5.7018682e-07
4.2473347e-09
5.6987767e-07
3.5363271e-09
5.6965565e-07
2.94762e-09
5.6949258e-07
2.4501636e-09
5.693709e-07
2.021478e-09
5.6927919e-07
1.6448441e-09
5.6920978e-07
1.3074797e-09
5.6915741e-07
9.9932268e-10
5.6911846e-07
7.1218953e-10
5.6909043e-07
4.3916944e-10
5.6907161e-07
1.7416553e-10
5.6906092e-07
-8.847384e-11
5.6905776e-07
-3.5427736e-10
5.6906198e-07
-6.2896263e-10
5.6907383e-07
-9.187677e-10
5.6909399e-07
-1.2308374e-09
5.6912368e-07
-1.5737146e-09
5.6916476e-07
-1.9580027e-09
5.6921999e-07
-2.3973039e-09
5.6929335e-07
-2.9096076e-09
5.693907e-07
-3.5194131e-09
5.6952071e-07
-4.2611467e-09
5.6969665e-07
-5.1851816e-09
5.6993978e-07
-6.3681524e-09
5.7028453e-07
-7.9287896e-09
5.707879e-07
-1.0070329e-08
5.7157692e-07
-1.3198924e-08
5.7292768e-07
-1.8129368e-08
5.7518371e-07
-2.8171844e-08
5.8224935e-07
-4.5798587e-08
6.0640203e-07
4.9333515e-07
6.0005879e-08
4.0913645e-07
5.0483029e-08
6.2894057e-07
3.3366639e-08
6.0462668e-07
2.4813605e-08
5.8556399e-07
1.9319139e-08
5.7954967e-07
1.5327483e-08
5.7629735e-07
1.2356906e-08
5.7424884e-07
1.0098044e-08
5.7288744e-07
8.3375103e-09
5.7194735e-07
6.932178e-09
5.71283e-07
5.7859602e-09
5.7080187e-07
4.8320847e-09
5.7044645e-07
4.0227791e-09
5.701802e-07
3.3230503e-09
5.6997892e-07
2.7066263e-09
5.698262e-07
2.1532669e-09
5.6971077e-07
1.6469381e-09
5.6962479e-07
1.1745319e-09
5.6956283e-07
7.2493236e-10
5.6952121e-07
2.8830208e-10
5.6949755e-07
-1.4449462e-10
5.6949056e-07
-5.8239801e-10
5.6949989e-07
-1.0346462e-09
5.6952608e-07
-1.5112952e-09
5.6957064e-07
-2.023822e-09
5.6963621e-07
-2.5858834e-09
5.6972683e-07
-3.2143284e-09
5.6984843e-07
-3.9306091e-09
5.7000963e-07
-4.7628306e-09
5.7022292e-07
-5.7488147e-09
5.7050669e-07
-6.9407587e-09
5.708886e-07
-8.4128744e-09
5.714119e-07
-1.0274575e-08
5.7214623e-07
-1.2687753e-08
5.7320108e-07
-1.5885591e-08
5.7477476e-07
-2.0230018e-08
5.772721e-07
-2.6699022e-08
5.8165272e-07
-3.8938733e-08
5.9448906e-07
-4.8160428e-08
6.1562373e-07
4.4517473e-07
5.4875235e-08
3.5426128e-07
5.7445705e-08
6.2637011e-07
4.0461236e-08
6.2161113e-07
3.0772597e-08
5.9525263e-07
2.4636872e-08
5.8568539e-07
1.9946251e-08
5.8098797e-07
1.6307195e-08
5.778879e-07
1.3461227e-08
5.757334e-07
1.119622e-08
5.7421236e-07
9.3604599e-09
5.7311876e-07
7.8460518e-09
5.7231628e-07
6.574497e-09
5.7171801e-07
5.4879385e-09
5.7126676e-07
4.5430528e-09
5.7092381e-07
3.7067341e-09
5.7066252e-07
2.9531134e-09
5.7046439e-07
2.2614616e-09
5.7031644e-07
1.614671e-09
5.7020962e-07
9.9812402e-10
5.7013775e-07
3.9881329e-10
5.7009686e-07
-1.9538153e-10
5.7008475e-07
-7.9633403e-10
5.7010084e-07
-1.416292e-09
5.7014603e-07
-2.0685318e-09
5.7022288e-07
-2.7681092e-09
5.7033579e-07
-3.5327873e-09
5.704915e-07
-4.3842434e-09
5.7069989e-07
-5.3497023e-09
5.7097509e-07
-6.4642167e-09
5.7133743e-07
-7.7739283e-09
5.718164e-07
-9.3406342e-09
5.724553e-07
-1.1248173e-08
5.7331944e-07
-1.361283e-08
5.7451089e-07
-1.6595973e-08
5.7618422e-07
-2.0395418e-08
5.7857421e-07
-2.5277857e-08
5.8215454e-07
-3.2502748e-08
5.8887761e-07
-4.5086651e-08
6.0707297e-07
-4.6540014e-08
6.1707709e-07
3.9863471e-07
4.7961231e-08
3.0630013e-07
6.0067661e-08
6.1426373e-07
4.5391055e-08
6.3628772e-07
3.4866699e-08
6.0577697e-07
2.8391271e-08
5.9216082e-07
2.3411219e-08
5.8596802e-07
1.9426301e-08
5.8187282e-07
1.6221753e-08
5.7893795e-07
1.3613043e-08
5.7682107e-07
1.1460753e-08
5.7527105e-07
9.6597439e-09
5.7411729e-07
8.1299614e-09
5.7324779e-07
6.8103688e-09
5.7258635e-07
5.6539394e-09
5.7208024e-07
4.623883e-09
5.7169258e-07
3.690898e-09
5.7139738e-07
2.8311298e-09
5.7117621e-07
2.0246328e-09
5.7101612e-07
1.2541857e-09
5.709082e-07
5.0434633e-10
5.708467e-07
-2.3934158e-10
5.7082844e-07
-9.9105799e-10
5.7085255e-07
-1.765397e-09
5.7092037e-07
-2.5780894e-09
5.7103557e-07
-3.4468189e-09
5.7120451e-07
-4.3922055e-09
5.7143689e-07
-5.4390461e-09
5.7174673e-07
-6.6179232e-09
5.7215397e-07
-7.9673328e-09
5.7268684e-07
-9.5365573e-09
5.7338563e-07
-1.1389442e-08
5.7430819e-07
-1.360882e-08
5.7553882e-07
-1.6303017e-08
5.7720509e-07
-1.9615665e-08
5.7949687e-07
-2.3717084e-08
5.8267562e-07
-2.8910098e-08
5.8734755e-07
-3.6770684e-08
5.9673819e-07
-4.8444073e-08
6.1874636e-07
-4.3182519e-08
6.1181553e-07
3.5545219e-07
4.033089e-08
2.6596937e-07
5.8982766e-08
5.9561195e-07
4.8317743e-08
6.4695273e-07
3.7576463e-08
6.1651824e-07
3.0917538e-08
5.9881975e-07
2.5882925e-08
5.9100264e-07
2.1769466e-08
5.8598627e-07
1.8382293e-08
5.8232513e-07
1.5568725e-08
5.7963463e-07
1.3206698e-08
5.7763308e-07
1.1200257e-08
5.7612373e-07
9.4740943e-09
5.7497395e-07
7.9690498e-09
5.740914e-07
6.6382013e-09
5.7341108e-07
5.4439033e-09
5.7288688e-07
4.3555188e-09
5.7248576e-07
3.3476401e-09
5.7218409e-07
2.3986889e-09
5.7196507e-07
1.489799e-09
5.7181709e-07
6.0389481e-10
5.717326e-07
-2.7509792e-10
5.7170743e-07
-1.1629703e-09
5.7174043e-07
-2.0759325e-09
5.7183333e-07
-3.0313423e-09
5.7199098e-07
-4.0485106e-09
5.7222168e-07
-5.1496482e-09
5.7253803e-07
-6.3610169e-09
5.729581e-07
-7.7143642e-09
5.7350731e-07
-9.2487216e-09
5.742212e-07
-1.1012711e-08
5.7514962e-07
-1.306758e-08
5.7636305e-07
-1.5490619e-08
5.7796185e-07
-1.8379256e-08
5.8009372e-07
-2.1857704e-08
5.8297532e-07
-2.6081801e-08
5.8689972e-07
-3.1460766e-08
5.9272652e-07
-3.9626998e-08
6.0490442e-07
-4.9146697e-08
6.2826605e-07
-3.8564473e-08
6.0123331e-07
3.1688772e-07
3.2856956e-08
2.3311258e-07
5.5236136e-08
5.7323292e-07
4.921613e-08
6.5297274e-07
3.9046319e-08
6.2668802e-07
3.2416023e-08
6.0545004e-07
2.7504537e-08
5.9591412e-07
2.3425169e-08
5.9006564e-07
1.9990363e-08
5.8575993e-07
1.7083536e-08
5.8254146e-07
1.4602446e-08
5.8011417e-07
1.2463286e-08
5.7826289e-07
1.0598786e-08
5.7683845e-07
8.9546847e-09
5.757355e-07
7.4867671e-09
5.74879e-07
6.1586807e-09
5.7421496e-07
4.9401761e-09
5.7370427e-07
3.8056647e-09
5.733186e-07
2.7330412e-09
5.7303769e-07
1.7027083e-09
5.7284742e-07
6.9674507e-10
5.7273856e-07
-3.0182462e-10
5.72706e-07
-1.3097068e-09
5.7274831e-07
-2.344003e-09
5.7286763e-07
-3.4228935e-09
5.7306987e-07
-4.5663791e-09
5.7336517e-07
-5.7971281e-09
5.7376878e-07
-7.1414733e-09
5.7430244e-07
-8.6306131e-09
5.7499645e-07
-1.0302062e-08
5.7589265e-07
-1.2201423e-08
5.7704898e-07
-1.4384784e-08
5.7854641e-07
-1.6921599e-08
5.8049867e-07
-1.9896746e-08
5.8306887e-07
-2.3411049e-08
5.8648962e-07
-2.7605948e-08
5.9109462e-07
-3.2999279e-08
5.9811985e-07
-4.0975127e-08
6.1288027e-07
-4.7655857e-08
6.3494678e-07
-3.335999e-08
5.8693744e-07
2.8352773e-07
2.6182672e-08
2.0693011e-07
5.0116156e-08
5.4929968e-07
4.8473176e-08
6.5461575e-07
3.9471605e-08
6.3568955e-07
3.3058946e-08
6.1186268e-07
2.8394131e-08
6.0057894e-07
2.4475886e-08
5.9398389e-07
2.1102444e-08
5.8913337e-07
1.8192888e-08
5.8545102e-07
1.5667964e-08
5.8263909e-07
1.3458514e-08
5.8047234e-07
1.1507335e-08
5.7878963e-07
9.7668879e-09
5.7747595e-07
8.1973548e-09
5.7644853e-07
6.7651777e-09
5.7564714e-07
5.4417838e-09
5.7502766e-07
4.2024975e-09
5.7455789e-07
3.0256176e-09
5.7421457e-07
1.8916191e-09
5.7398142e-07
7.8245064e-10
5.7384773e-07
-3.1910193e-10
5.7380756e-07
-1.4300118e-09
5.7385922e-07
-2.5676035e-09
5.7400522e-07
-3.7501562e-09
5.7425242e-07
-4.9975458e-09
5.7461256e-07
-6.3319603e-09
5.7510319e-07
-7.7787115e-09
5.7574919e-07
-9.3671826e-09
5.7658492e-07
-1.1131936e-08
5.776574e-07
-1.3113981e-08
5.7903102e-07
-1.5362423e-08
5.8079486e-07
-1.7936581e-08
5.8307283e-07
-2.0905949e-08
5.8603824e-07
-2.4345778e-08
5.8992945e-07
-2.8391531e-08
5.9514037e-07
-3.3647553e-08
6.0337587e-07
-4.1018201e-08
6.2025092e-07
-4.475892e-08
6.386875e-07
-2.8186346e-08
5.7036487e-07
2.5534138e-07
2.0563967e-08
1.8636639e-07
4.4563821e-08
5.2530016e-07
4.6617741e-08
6.5256191e-07
3.9128741e-08
6.4317851e-07
3.3060764e-08
6.1793064e-07
2.8695443e-08
6.0494426e-07
2.5017062e-08
5.9766227e-07
2.1784214e-08
5.9236622e-07
1.8941547e-08
5.8829368e-07
1.6432976e-08
5.8514766e-07
1.4204975e-08
5.8270034e-07
1.2211337e-08
5.8078327e-07
1.0412249e-08
5.7927503e-07
8.7733245e-09
5.7808746e-07
7.2647776e-09
5.7715569e-07
5.8606085e-09
5.7643183e-07
4.5378658e-09
5.7588063e-07
3.2759804e-09
5.7547646e-07
2.0561586e-09
5.7520124e-07
8.6082513e-10
5.7504306e-07
-3.2689703e-10
5.7499528e-07
-1.5236827e-09
5.75056e-07
-2.7465014e-09
5.7522804e-07
-4.0131195e-09
5.7551904e-07
-5.3426237e-09
5.7594206e-07
-6.7559876e-09
5.7651655e-07
-8.2766884e-09
5.7726989e-07
-9.9313922e-09
5.7823963e-07
-1.175072e-08
5.7947673e-07
-1.3770042e-08
5.8105035e-07
-1.6030388e-08
5.830552e-07
-1.8579647e-08
5.8562209e-07
-2.1470974e-08
5.8892956e-07
-2.4758451e-08
5.9321693e-07
-2.8588083e-08
5.9897e-07
-3.3606031e-08
6.0839382e-07
-4.0089561e-08
6.2673445e-07
-4.1113949e-08
6.3971189e-07
-2.3396876e-08
5.5264779e-07
2.3194451e-07
1.6007864e-08
1.7035881e-07
3.9121506e-08
5.0218697e-07
4.4088031e-08
6.4759553e-07
3.8259377e-08
6.4900712e-07
3.2625502e-08
6.2356448e-07
2.8564435e-08
6.0900532e-07
2.5157789e-08
6.0106892e-07
2.2111968e-08
5.9541204e-07
1.9383066e-08
5.9102259e-07
1.693498e-08
5.8759574e-07
1.4728704e-08
5.8490661e-07
1.2728606e-08
5.8278337e-07
1.0902741e-08
5.811009e-07
9.2225518e-09
5.7976765e-07
7.662526e-09
5.7871571e-07
6.1997783e-09
5.7789458e-07
4.8136225e-09
5.7726679e-07
3.4851451e-09
5.7680494e-07
2.1967833e-09
5.764896e-07
9.3191772e-10
5.7630793e-07
-3.2552542e-10
5.7625272e-07
-1.5914604e-09
5.7632194e-07
-2.882034e-09
5.7651861e-07
-4.2140162e-09
5.7685102e-07
-5.6051994e-09
5.7733324e-07
-7.0748128e-09
5.7798617e-07
-8.6439499e-09
5.7883903e-07
-1.0336006e-08
5.7993168e-07
-1.2177136e-08
5.8131786e-07
-1.4196669e-08
5.8306988e-07
-1.6427477e-08
5.8528601e-07
-1.8906357e-08
5.8810097e-07
-2.1671509e-08
5.9169472e-07
-2.4763462e-08
5.9630888e-07
-2.8350679e-08
6.0255722e-07
-3.3058993e-08
6.1310213e-07
-3.8484126e-08
6.3215958e-07
-3.7163392e-08
6.3839115e-07
-1.9160898e-08
5.346453e-07
2.1278361e-07
1.2415374e-08
1.5794378e-07
3.408825e-08
4.8051467e-07
4.1213204e-08
6.4047082e-07
3.7041591e-08
6.5317869e-07
3.1907179e-08
6.2869884e-07
2.8135727e-08
6.1277677e-07
2.5001609e-08
6.0420303e-07
2.216287e-08
5.9825078e-07
1.9574464e-08
5.9361099e-07
1.7215755e-08
5.8995445e-07
1.5060072e-08
5.870623e-07
1.3081065e-08
5.8476237e-07
1.1254057e-08
5.8292791e-07
9.5561514e-09
5.8146555e-07
7.9661877e-09
5.8030567e-07
6.4646092e-09
5.7939615e-07
5.0332855e-09
5.7869811e-07
3.6552846e-09
5.7818294e-07
2.3146174e-09
5.7783027e-07
9.9596742e-10
5.7762658e-07
-3.1558661e-10
5.7756427e-07
-1.6348491e-09
5.776412e-07
-2.9767938e-09
5.7786056e-07
-4.3568447e-09
5.7823107e-07
-5.7911541e-09
5.7876755e-07
-7.2968763e-09
5.7949189e-07
-8.8924269e-09
5.8043458e-07
-1.0597714e-08
5.8163697e-07
-1.243435e-08
5.8315449e-07
-1.4425806e-08
5.8506133e-07
-1.6597448e-08
5.8745765e-07
-1.8976221e-08
5.9047974e-07
-2.1587691e-08
5.9430619e-07
-2.4466071e-08
5.9918726e-07
-2.7805236e-08
6.0589639e-07
-3.214904e-08
6.1744593e-07
-3.6443987e-08
6.3645453e-07
-3.3208431e-08
6.351556e-07
-1.5540005e-08
5.1697687e-07
1.972436e-07
9.6478574e-09
1.4829631e-07
2.9616305e-08
4.6054696e-07
3.8239847e-08
6.3184764e-07
3.5613463e-08
6.5580505e-07
3.1016855e-08
6.3329539e-07
2.7513573e-08
6.1628003e-07
2.4634992e-08
6.0708162e-07
2.2005603e-08
6.0088017e-07
1.9569528e-08
5.9604707e-07
1.7316738e-08
5.9220724e-07
1.5230574e-08
5.8914846e-07
1.329241e-08
5.8670054e-07
1.1483869e-08
5.8473645e-07
9.7871748e-09
5.8316225e-07
8.1852737e-09
5.8190758e-07
6.6618931e-09
5.8091953e-07
5.2015346e-09
5.8015847e-07
3.7893999e-09
5.7959507e-07
2.4112691e-09
5.792084e-07
1.0533504e-09
5.789845e-07
-2.9789119e-10
5.7891552e-07
-1.6559122e-09
5.7899922e-07
-3.0342789e-09
5.7923892e-07
-4.4468475e-09
5.7964364e-07
-5.9079338e-09
5.8022864e-07
-7.4324658e-09
5.8101642e-07
-9.036106e-09
5.8203822e-07
-1.0735327e-08
5.8333619e-07
-1.2547442e-08
5.8496661e-07
-1.4490593e-08
5.8700448e-07
-1.6583579e-08
5.8955064e-07
-1.8844941e-08
5.927411e-07
-2.1290274e-08
5.9675152e-07
-2.3953658e-08
6.0185064e-07
-2.7050466e-08
6.0899319e-07
-3.0994224e-08
6.2138969e-07
-3.4173188e-08
6.3963349e-07
-2.9454105e-08
6.3043652e-07
-1.2529484e-08
5.0005225e-07
1.8471412e-07
7.5564796e-09
1.407403e-07
2.5753283e-08
4.4235106e-07
3.533875e-08
6.2226268e-07
3.4084755e-08
6.5705906e-07
3.0037393e-08
6.3734267e-07
2.6777834e-08
6.1953957e-07
2.4127509e-08
6.0973194e-07
2.1697845e-08
6.0330983e-07
1.9415445e-08
5.9832947e-07
1.72759e-08
5.9434679e-07
1.5270273e-08
5.9115409e-07
1.3386135e-08
5.8858467e-07
1.1610319e-08
5.8651226e-07
9.9294562e-09
5.8484311e-07
8.3301722e-09
5.8350686e-07
6.7992546e-09
5.8245045e-07
5.3237538e-09
5.8163397e-07
3.8910151e-09
5.8102781e-07
2.4886602e-09
5.8061076e-07
1.1045311e-09
5.8036863e-07
-2.7339126e-10
5.8029344e-07
-1.6570799e-09
5.8038291e-07
-3.0585648e-09
5.8064041e-07
-4.4900262e-09
5.810751e-07
-5.9638738e-09
5.8170249e-07
-7.4928016e-09
5.8254535e-07
-9.0898061e-09
5.8363522e-07
-1.0768152e-08
5.8501454e-07
-1.254128e-08
5.8673973e-07
-1.4422689e-08
5.8888589e-07
-1.6425631e-08
5.9155358e-07
-1.8561777e-08
5.9487725e-07
-2.0839727e-08
5.9902947e-07
-2.3298505e-08
6.0430942e-07
-2.6166567e-08
6.1186126e-07
-2.9695489e-08
6.2491861e-07
-3.1833271e-08
6.4177128e-07
-2.6022652e-08
6.246259e-07
-1.0082629e-08
4.8411223e-07
1.7463149e-07
6.000659e-09
1.3474018e-07
2.247736e-08
4.2587547e-07
3.2611694e-08
6.1212903e-07
3.2535805e-08
6.5713501e-07
2.9028749e-08
6.4084962e-07
2.5988542e-08
6.2257974e-07
2.3534374e-08
6.1218611e-07
2.1287065e-08
6.0555715e-07
1.9152307e-08
6.0046423e-07
1.7126589e-08
5.9637251e-07
1.5206469e-08
5.9307421e-07
1.3384263e-08
5.9040688e-07
1.1650925e-08
5.882456e-07
9.996723e-09
5.8649731e-07
8.411447e-09
5.8509213e-07
6.8846167e-09
5.8397728e-07
5.4056405e-09
5.8311294e-07
3.963915e-09
5.8246953e-07
2.5488774e-09
5.8202579e-07
1.1500207e-09
5.8176748e-07
-2.4311738e-10
5.8168658e-07
-1.6409788e-09
5.8178077e-07
-3.0540175e-09
5.8205345e-07
-4.4927233e-09
5.8251381e-07
-5.9676298e-09
5.8317739e-07
-7.4892949e-09
5.8406701e-07
-9.0682449e-09
5.8521417e-07
-1.0714869e-08
5.8666116e-07
-1.243926e-08
5.8846412e-07
-1.4251035e-08
5.9069767e-07
-1.6158959e-08
5.934615e-07
-1.8169419e-08
5.9688771e-07
-2.0287091e-08
6.0114714e-07
-2.255946e-08
6.0658179e-07
-2.5216964e-08
6.1451876e-07
-2.8333298e-08
6.2803495e-07
-2.9538313e-08
6.4297629e-07
-2.2969238e-08
6.1805682e-07
-8.1309467e-09
4.6927394e-07
1.6650054e-07
4.8576874e-09
1.2988315e-07
1.9729946e-08
4.1100455e-07
3.0106873e-08
6.01753e-07
3.1018849e-08
6.5622318e-07
2.8030278e-08
6.4383808e-07
2.5187842e-08
6.2542212e-07
2.2897583e-08
6.1447636e-07
2.0811196e-08
6.0764354e-07
1.8813281e-08
6.0246214e-07
1.6897265e-08
5.9828852e-07
1.5063145e-08
5.9490832e-07
1.3306671e-08
5.9216335e-07
1.1621902e-08
5.8993037e-07
1.0001981e-08
5.8811723e-07
8.4393167e-09
5.866548e-07
6.9257829e-09
5.8549081e-07
5.4528914e-09
5.8458583e-07
4.011928e-09
5.839105e-07
2.5940485e-09
5.8344367e-07
1.190343e-09
5.8317119e-07
-2.0812404e-10
5.8308504e-07
-1.6102861e-09
5.8318293e-07
-3.0250532e-09
5.8346821e-07
-4.4612826e-09
5.8395004e-07
-5.9277344e-09
5.8464384e-07
-7.4330004e-09
5.8557228e-07
-8.9854018e-09
5.8676658e-07
-1.0592845e-08
5.882686e-07
-1.2262637e-08
5.9013392e-07
-1.4001296e-08
5.9243633e-07
-1.581413e-08
5.9527433e-07
-1.770377e-08
5.9877735e-07
-1.9673765e-08
6.0311713e-07
-2.1781764e-08
6.0868978e-07
-2.4248221e-08
6.1698522e-07
-2.6966256e-08
6.3075298e-07
-2.7360299e-08
6.4337033e-07
-2.0303137e-08
6.1099966e-07
-6.5987555e-09
4.5556956e-07
1.5990179e-07
4.0252038e-09
1.2585871e-07
1.7438526e-08
3.9759282e-07
2.7838174e-08
5.913545e-07
2.9564402e-08
6.5449719e-07
2.7065036e-08
6.4633732e-07
2.4402771e-08
6.2808431e-07
2.224714e-08
6.1663198e-07
2.0299187e-08
6.0959149e-07
1.8424825e-08
6.043365e-07
1.6611453e-08
6.0010189e-07
1.4860736e-08
5.9665904e-07
1.3170749e-08
5.9385334e-07
1.1537771e-08
5.9156335e-07
9.9571197e-09
5.8969788e-07
8.4232963e-09
5.8818862e-07
6.9301341e-09
5.8698398e-07
5.470964e-09
5.86045e-07
4.0387577e-09
5.853427e-07
2.6262451e-09
5.8485618e-07
1.2260083e-09
5.8457142e-07
-1.6944424e-10
5.8448049e-07
-1.5676133e-09
5.845811e-07
-2.97595e-09
5.8487655e-07
-4.401789e-09
5.8537588e-07
-5.8522693e-09
5.8609432e-07
-7.3342319e-09
5.8705424e-07
-8.8540932e-09
5.8828644e-07
-1.041769e-08
5.898322e-07
-1.2030102e-08
5.9174633e-07
-1.3695479e-08
5.941017e-07
-1.5416608e-08
5.9699546e-07
-1.7193728e-08
6.0055447e-07
-1.9031551e-08
6.0495496e-07
-2.0997955e-08
6.1065619e-07
-2.3292146e-08
6.1927941e-07
-2.5633965e-08
6.330948e-07
-2.5338858e-08
6.4307523e-07
-1.8005734e-08
6.0366653e-07
-5.4116627e-09
4.4297548e-07
1.5449012e-07
3.4205341e-09
1.2243908e-07
1.5529255e-08
3.85486e-07
2.5798903e-08
5.8108631e-07
2.8187767e-08
6.5210871e-07
2.6144739e-08
6.4838023e-07
2.3649054e-08
6.305799e-07
2.1603204e-08
6.1867782e-07
1.9772125e-08
6.1142257e-07
1.8007234e-08
6.0610139e-07
1.6287947e-08
6.0182118e-07
1.4616116e-08
5.9833087e-07
1.2991259e-08
5.954782e-07
1.1411151e-08
5.9314346e-07
9.8726847e-09
5.9123635e-07
8.3719701e-09
5.8968934e-07
6.904426e-09
5.8845152e-07
5.4649122e-09
5.8748452e-07
4.0478637e-09
5.8675975e-07
2.6474127e-09
5.8625663e-07
1.2574951e-09
5.8596134e-07
-1.280547e-10
5.8586604e-07
-1.5154181e-09
5.8596846e-07
-2.9107088e-09
5.8627184e-07
-4.3198828e-09
5.8678505e-07
-5.7486399e-09
5.8752308e-07
-7.2023065e-09
5.8850791e-07
-8.6857028e-09
5.8976983e-07
-1.0202997e-08
5.9134949e-07
-1.1757555e-08
5.9330089e-07
-1.3351804e-08
5.9569595e-07
-1.4986801e-08
5.9863046e-07
-1.6661561e-08
6.0222923e-07
-1.8383688e-08
6.0667708e-07
-2.023007e-08
6.1250257e-07
-2.2369045e-08
6.2141838e-07
-2.4361122e-08
6.3508688e-07
-2.3490699e-08
6.422048e-07
-1.6042974e-08
5.9621881e-07
-4.5012466e-09
4.3143376e-07
1.4998888e-07
2.9790508e-09
1.1946111e-07
1.3933635e-08
3.7453367e-07
2.3971124e-08
5.7105062e-07
2.6893973e-08
6.491864e-07
2.5273614e-08
6.5000048e-07
2.2934543e-08
6.3291884e-07
2.0978474e-08
6.2063386e-07
1.9244741e-08
6.1315631e-07
1.7575558e-08
6.0777058e-07
1.5941306e-08
6.0345543e-07
1.434283e-08
5.9992935e-07
1.2780398e-08
5.9704063e-07
1.1252722e-08
5.9467113e-07
9.7577797e-09
5.9273129e-07
8.2928753e-09
5.9115424e-07
6.8546722e-09
5.8988972e-07
5.4392836e-09
5.8889991e-07
4.0423844e-09
5.8815665e-07
2.6593252e-09
5.8763969e-07
1.2852403e-09
5.8733543e-07
-8.4850654e-11
5.8723613e-07
-1.4559445e-09
5.8733956e-07
-2.8329611e-09
5.8764886e-07
-4.2206404e-09
5.8817273e-07
-5.6234366e-09
5.8892588e-07
-7.0454003e-09
5.8992987e-07
-8.4900522e-09
5.9121448e-07
-9.9602584e-09
5.928197e-07
-1.1458122e-08
5.9479875e-07
-1.2984881e-08
5.9722271e-07
-1.4540517e-08
6.001861e-07
-1.6123792e-08
6.038125e-07
-1.7746364e-08
6.0829966e-07
-1.9492003e-08
6.1424821e-07
-2.1490586e-08
6.2341697e-07
-2.3161045e-08
6.3675734e-07
-2.1816865e-08
6.4086062e-07
-1.4373747e-08
5.8877569e-07
-3.807605e-09
4.2086761e-07
1.4618127e-07
2.6519189e-09
1.1681045e-07
1.2591892e-08
3.6459636e-07
2.2332009e-08
5.6131271e-07
2.5681534e-08
6.4583764e-07
2.4451099e-08
6.5123083e-07
2.2261769e-08
6.3510802e-07
2.0380193e-08
6.2251539e-07
1.8726862e-08
6.1480964e-07
1.7140603e-08
6.0935684e-07
1.5582508e-08
6.0501353e-07
1.4051474e-08
6.0146038e-07
1.2547996e-08
5.9854411e-07
1.1071306e-08
5.9614782e-07
9.6200788e-09
5.9418252e-07
8.1924709e-09
5.9258185e-07
6.7860963e-09
5.912961e-07
5.3980709e-09
5.9028793e-07
4.0250969e-09
5.8952962e-07
2.6635607e-09
5.8900123e-07
1.3096333e-09
5.8868935e-07
-4.0629238e-11
5.885864e-07
-1.3911862e-09
5.8869011e-07
-2.7459159e-09
5.8900359e-07
-4.1085103e-09
5.8953532e-07
-5.4823717e-09
5.9029974e-07
-6.8705023e-09
5.91318e-07
-8.275394e-09
5.9261938e-07
-9.698933e-09
5.9424324e-07
-1.1142335e-08
5.9624215e-07
-1.2606082e-08
5.9868646e-07
-1.4089601e-08
6.0166961e-07
-1.5592172e-08
6.0531507e-07
-1.7130155e-08
6.0983764e-07
-1.8791481e-08
6.1590953e-07
-2.0662056e-08
6.2528754e-07
-2.2038693e-08
6.3813397e-07
-2.0308525e-08
6.3913045e-07
-1.2955491e-08
5.8142266e-07
-3.2803337e-09
4.1119246e-07
1.4290094e-07
2.4034012e-09
1.1440853e-07
1.1454078e-08
3.5554881e-07
2.0857925e-08
5.5191155e-07
2.4545333e-08
6.4215125e-07
2.3673848e-08
6.5210227e-07
2.1629832e-08
6.3715186e-07
1.9811712e-08
6.2433346e-07
1.8224608e-08
6.1639674e-07
1.6709838e-08
6.1087161e-07
1.5219597e-08
6.0650377e-07
1.3750145e-08
6.0292983e-07
1.2301805e-08
5.9999245e-07
1.0874034e-08
5.9757559e-07
9.4659121e-09
5.9559064e-07
8.0761743e-09
5.9397159e-07
6.7031378e-09
5.9266913e-07
5.3447027e-09
5.9164637e-07
3.9984048e-09
5.9087592e-07
2.6614928e-09
5.9033814e-07
1.3310167e-09
5.9001983e-07
3.9201575e-12
5.8991349e-07
-1.3228701e-09
5.900169e-07
-2.6523392e-09
5.9033305e-07
-3.987297e-09
5.9087028e-07
-5.3302774e-09
5.9164272e-07
-6.6834418e-09
5.9267117e-07
-8.048492e-09
5.9398443e-07
-9.4266059e-09
5.9562135e-07
-1.0818417e-08
5.9763396e-07
-1.2223984e-08
6.0009203e-07
-1.3642583e-08
6.0308821e-07
-1.5074598e-08
6.0674708e-07
-1.6541276e-08
6.1130432e-07
-1.8131698e-08
6.1749996e-07
-1.9884245e-08
6.2704009e-07
-2.0993339e-08
6.3924307e-07
-1.8951502e-08
6.3708862e-07
-1.1747966e-08
5.7421912e-07
-2.8784217e-09
4.0232291e-07
1.4002252e-07
2.2081195e-09
1.1220215e-07
1.0479706e-08
3.4728088e-07
1.9526718e-08
5.4286778e-07
2.3478669e-08
6.3820064e-07
2.2937198e-08
6.5264376e-07
2.1035829e-08
6.3905301e-07
1.927374e-08
6.2609547e-07
1.774138e-08
6.179291e-07
1.628816e-08
6.1232484e-07
1.4858272e-08
6.0793366e-07
1.3444865e-08
6.0434324e-07
1.2047799e-08
6.0138951e-07
1.0666551e-08
5.9895684e-07
9.3003964e-09
5.9695679e-07
7.9484374e-09
5.9532354e-07
6.6094943e-09
5.9400808e-07
5.2820649e-09
5.9297379e-07
3.9643474e-09
5.9219364e-07
2.6542947e-09
5.9164819e-07
1.3496866e-09
5.9132444e-07
4.8209829e-11
5.9121497e-07
-1.2524572e-09
5.9131757e-07
-2.5545597e-09
5.9163516e-07
-3.8601784e-09
5.921759e-07
-5.1711453e-09
5.9295368e-07
-6.4889654e-09
5.9398898e-07
-7.8147525e-09
5.9531021e-07
-9.1491986e-09
5.969558e-07
-1.0492591e-08
5.9897735e-07
-1.1844817e-08
6.0144425e-07
-1.3205297e-08
6.0444869e-07
-1.4575935e-08
6.0811772e-07
-1.5982684e-08
6.1271107e-07
-1.7512704e-08
6.1902998e-07
-1.9155024e-08
6.2868241e-07
-2.0020766e-08
6.4010881e-07
-1.7729415e-08
6.3479727e-07
-1.0715234e-08
5.6720494e-07
-2.5694167e-09
3.9417709e-07
1.374531e-07
2.0485892e-09
1.1015559e-07
9.6366316e-09
3.3969711e-07
1.8318763e-08
5.3418951e-07
2.2474543e-08
6.3404658e-07
2.2236148e-08
6.5288227e-07
2.0475878e-08
6.4081304e-07
1.8765305e-08
6.2780594e-07
1.7278662e-08
6.1941573e-07
1.5878546e-08
6.1372496e-07
1.4502402e-08
6.093098e-07
1.3139982e-08
6.0570566e-07
1.1790469e-08
6.0273902e-07
1.0453228e-08
6.0029408e-07
9.1275836e-09
5.9828244e-07
7.8128482e-09
5.9663828e-07
6.5081865e-09
5.9531274e-07
5.2125405e-09
5.9426944e-07
3.9246233e-09
5.9348156e-07
2.6429517e-09
5.9292987e-07
1.3659005e-09
5.9260149e-07
9.1768502e-11
5.924891e-07
-1.1811504e-09
5.9259049e-07
-2.4544915e-09
5.929085e-07
-3.7297469e-09
5.9345115e-07
-5.0081953e-09
5.9423213e-07
-6.2908425e-09
5.9527163e-07
-7.5783823e-09
5.9659775e-07
-8.8711957e-09
5.9824861e-07
-1.0169402e-08
6.0027556e-07
-1.1472892e-08
6.0274774e-07
-1.2781446e-08
6.0575725e-07
-1.409876e-08
6.0943503e-07
-1.5455018e-08
6.1406732e-07
-1.6932517e-08
6.2050747e-07
-1.8470566e-08
6.3022046e-07
-1.9114876e-08
6.4075312e-07
-1.6625617e-08
6.3230801e-07
-9.82617e-09
5.6040549e-07
-2.3282076e-09
3.8667913e-07
1.3512489e-07
1.9131394e-09
1.0824481e-07
8.8996985e-09
3.3271553e-07
1.7217252e-08
5.2587655e-07
2.1526357e-08
6.2973965e-07
2.1565928e-08
6.5284294e-07
1.9945785e-08
6.4243293e-07
1.828446e-08
6.2946713e-07
1.6836653e-08
6.2086352e-07
1.5482587e-08
6.1507903e-07
1.4154464e-08
6.1063793e-07
1.2838521e-08
6.070216e-07
1.15331e-08
6.0404444e-07
1.0237371e-08
6.0158981e-07
8.9506145e-09
5.9956919e-07
7.6722404e-09
5.9791665e-07
6.4016356e-09
5.9658334e-07
5.1380615e-09
5.9553301e-07
3.8806227e-09
5.94739e-07
2.6282782e-09
5.9418221e-07
1.3798784e-09
5.9384989e-07
1.3421554e-10
5.9373476e-07
-1.1099185e-09
5.9383462e-07
-2.3536701e-09
5.9415225e-07
-3.5980659e-09
5.9469555e-07
-4.8439586e-09
5.9547803e-07
-6.0919864e-09
5.9651966e-07
-7.3425572e-09
5.9784832e-07
-8.5958757e-09
5.9950193e-07
-9.8520205e-09
6.0153171e-07
-1.1111004e-08
6.0400672e-07
-1.2373116e-08
6.0701936e-07
-1.3643988e-08
6.1070591e-07
-1.4957361e-08
6.153807e-07
-1.6387962e-08
6.2193807e-07
-1.7826209e-08
6.316587e-07
-1.8268804e-08
6.4119571e-07
-1.5624382e-08
6.2966359e-07
-9.054585e-09
5.5383569e-07
-2.1358214e-09
3.7976037e-07
1.3298907e-07
1.7942278e-09
1.0645332e-07
8.2493841e-09
3.2626615e-07
1.6208078e-08
5.1792328e-07
2.0628245e-08
6.2532219e-07
2.0922284e-08
6.5254931e-07
1.9441447e-08
6.4391348e-07
1.7828761e-08
6.3107965e-07
1.6414721e-08
6.2227753e-07
1.51009e-08
6.1639285e-07
1.3815909e-08
6.1192292e-07
1.2542485e-08
6.0829503e-07
1.1278012e-08
6.0530892e-07
1.0021413e-08
6.0284641e-07
8.7718677e-09
6.0081874e-07
7.5288054e-09
5.9915971e-07
6.2917436e-09
5.978204e-07
5.0601648e-09
5.9676459e-07
3.8334632e-09
5.959657e-07
2.6109373e-09
5.9540473e-07
1.3918095e-09
5.9506902e-07
1.7526243e-10
5.9495131e-07
-1.0395182e-09
5.950494e-07
-2.2532946e-09
5.9536603e-07
-3.4667338e-09
5.9590899e-07
-4.6803694e-09
5.9669166e-07
-5.8945793e-09
5.9773387e-07
-7.1095905e-09
5.9906333e-07
-8.3255298e-09
6.0071787e-07
-9.5425219e-09
6.027487e-07
-1.0760778e-08
6.0522498e-07
-1.1981194e-08
6.0823977e-07
-1.3211379e-08
6.1193609e-07
-1.4487813e-08
6.1665713e-07
-1.5875267e-08
6.2332553e-07
-1.7217052e-08
6.3300049e-07
-1.7475652e-08
6.4145431e-07
-1.4711533e-08
6.2689947e-07
-8.378899e-09
5.4750306e-07
-1.9782561e-09
3.7335972e-07
1.3101081e-07
1.6871336e-09
1.0476938e-07
7.6705778e-09
3.2028941e-07
1.5279521e-08
5.1032072e-07
1.9775167e-08
6.2082988e-07
2.0301585e-08
6.5202351e-07
1.8959072e-08
6.4525571e-07
1.7395581e-08
6.3264294e-07
1.6011729e-08
6.2366134e-07
1.4733436e-08
6.1767115e-07
1.3487438e-08
6.1316892e-07
1.2253105e-08
6.0952936e-07
1.1026773e-08
6.0653525e-07
9.8070859e-09
6.040661e-07
8.5930958e-09
6.0203273e-07
7.3841976e-09
6.0036861e-07
6.179973e-09
5.9902463e-07
4.9800491e-09
5.9796452e-07
3.7840278e-09
5.9716172e-07
2.5914613e-09
5.965973e-07
1.401857e-09
5.9625862e-07
2.1469918e-10
5.9613847e-07
-9.7052151e-10
5.9623462e-07
-2.1542723e-09
5.9654978e-07
-3.3369499e-09
5.9709167e-07
-4.5188565e-09
5.9787357e-07
-5.7001946e-09
5.9891521e-07
-6.88109e-09
6.0024423e-07
-8.0616616e-09
6.0189844e-07
-9.2421349e-09
6.0392917e-07
-1.0422964e-08
6.0640581e-07
-1.1605711e-08
6.0942252e-07
-1.2799924e-08
6.131303e-07
-1.4043916e-08
6.1790112e-07
-1.5390481e-08
6.2467209e-07
-1.6638334e-08
6.3424834e-07
-1.6728932e-08
6.4154491e-07
-1.3874681e-08
6.2404522e-07
-7.7816046e-09
5.4140998e-07
-1.8454058e-09
3.6742353e-07
1.2916541e-07
1.5889863e-09
1.0318411e-07
7.1515469e-09
3.147346e-07
1.4421861e-08
5.0305787e-07
1.8962864e-08
6.1629296e-07
1.9700821e-08
6.5128644e-07
1.8495277e-08
6.4646097e-07
1.6982296e-08
6.3415568e-07
1.5626262e-08
6.2501732e-07
1.4379711e-08
6.189177e-07
1.3169223e-08
6.1437942e-07
1.1971036e-08
6.1072755e-07
1.0780369e-08
6.0772592e-07
9.5955692e-09
6.052509e-07
8.4155464e-09
6.0321275e-07
7.2396309e-09
6.0154453e-07
6.0674204e-09
6.0019684e-07
4.8986287e-09
5.9913331e-07
3.7330002e-09
5.9832735e-07
2.5702713e-09
5.9776003e-07
1.4101617e-09
5.9741873e-07
2.5238317e-10
5.9729625e-07
-9.033433e-10
5.9739035e-07
-2.0572645e-09
5.977037e-07
-3.2095797e-09
5.9824398e-07
-4.3604305e-09
5.9902442e-07
-5.5099096e-09
6.0006469e-07
-6.6581002e-09
6.0139242e-07
-7.80516e-09
6.030455e-07
-8.9514469e-09
6.0507546e-07
-1.009768e-08
6.0755204e-07
-1.1246121e-08
6.1057096e-07
-1.2408142e-08
6.1429232e-07
-1.3622959e-08
6.1911594e-07
-1.4929737e-08
6.2597887e-07
-1.6085663e-08
6.3540427e-07
-1.6022793e-08
6.4148204e-07
-1.3103225e-08
6.2112565e-07
-7.2486549e-09
5.3555541e-07
-1.7301294e-09
3.61905e-07
1.2743528e-07
1.4980779e-09
1.0169034e-07
6.6831046e-09
3.0955853e-07
1.3627001e-08
4.9612268e-07
1.8187747e-08
6.1173714e-07
1.9117534e-08
6.5035788e-07
1.8047113e-08
6.4753113e-07
1.6586402e-08
6.356161e-07
1.5256773e-08
6.2634687e-07
1.403896e-08
6.2013551e-07
1.2861068e-08
6.1555731e-07