/*--------------------------------*- C++ -*----------------------------------*\
  =========                 |
  \\      /  F ield         | OpenFOAM: The Open Source CFD Toolbox
   \\    /   O peration     | Website:  https://openfoam.org
    \\  /    A nd           | Version:  10
     \\/     M anipulation  |
\*---------------------------------------------------------------------------*/
FoamFile
{
    format      ascii;
    class       surfaceScalarField;
    location    "0.16";
    object      phi_0;
}
// * * * * * * * * * * * * * * * * * * * * * * * * * * * * * * * * * * * * * //

dimensions      [1 0 -1 0 0 0 0];

internalField   nonuniform List<scalar> 
7860
(
3.9895122e-08
5.288129e-07
1.2192072e-08
5.9641084e-07
7.427235e-09
5.7347257e-07
5.4986664e-09
5.7063627e-07
4.1142255e-09
5.7009211e-07
3.2003849e-09
5.6962148e-07
2.5584228e-09
5.6934959e-07
2.0786459e-09
5.6918739e-07
1.708724e-09
5.6907752e-07
1.4161319e-09
5.6900018e-07
1.1790726e-09
5.6894464e-07
9.8278169e-10
5.6890387e-07
8.1691425e-10
5.6887344e-07
6.7397848e-10
5.688505e-07
5.483997e-10
5.6883314e-07
4.3591576e-10
5.6882004e-07
3.3317141e-10
5.688103e-07
2.3743779e-10
5.6880329e-07
1.4641028e-10
5.6879858e-07
5.8056109e-11
5.6879591e-07
-2.9509189e-11
5.6879512e-07
-1.1812935e-10
5.6879617e-07
-2.0971265e-10
5.6879914e-07
-3.0633831e-10
5.6880418e-07
-4.1038888e-10
5.6881161e-07
-5.2471318e-10
5.6882188e-07
-6.5284706e-10
5.6883569e-07
-7.9932628e-10
5.6885404e-07
-9.7014714e-10
5.6887839e-07
-1.1734732e-09
5.689109e-07
-1.4208082e-09
5.6895492e-07
-1.7289665e-09
5.6901575e-07
-2.12293e-09
5.6910156e-07
-2.6425842e-09
5.6922727e-07
-3.3703448e-09
5.6943539e-07
-4.4617862e-09
5.6979909e-07
-6.0073949e-09
5.7025328e-07
-9.5065766e-09
5.7220688e-07
-2.9574106e-08
5.8877528e-07
5.3913381e-07
5.9670479e-08
4.6914244e-07
3.6663582e-08
6.1941773e-07
2.2625864e-08
5.8751029e-07
1.625116e-08
5.7701097e-07
1.2288059e-08
5.7405521e-07
9.6038494e-09
5.7230569e-07
7.6751756e-09
5.7127826e-07
6.2339967e-09
5.7062857e-07
5.1247102e-09
5.7018681e-07
4.2472386e-09
5.6987765e-07
3.5362426e-09
5.6965564e-07
2.9475488e-09
5.6949256e-07
2.4501073e-09
5.6937088e-07
2.021438e-09
5.6927917e-07
1.6448215e-09
5.6920976e-07
1.3074755e-09
5.6915739e-07
9.993376e-10
5.6911844e-07
7.1222418e-10
5.690904e-07
4.3922422e-10
5.6907158e-07
1.7424067e-10
5.6906089e-07
-8.8378407e-11
5.6905774e-07
-3.5416183e-10
5.6906196e-07
-6.288275e-10
5.690738e-07
-9.1861362e-10
5.6909397e-07
-1.2306652e-09
5.6912366e-07
-1.5735256e-09
5.6916474e-07
-1.9577981e-09
5.6921997e-07
-2.3970854e-09
5.6929333e-07
-2.9093772e-09
5.6939068e-07
-3.5191729e-09
5.695207e-07
-4.2608993e-09
5.6969664e-07
-5.1849299e-09
5.6993978e-07
-6.3678998e-09
5.7028453e-07
-7.92854e-09
5.7078791e-07
-1.0070087e-08
5.7157693e-07
-1.3198695e-08
5.7292769e-07
-1.8129159e-08
5.7518374e-07
-2.8171643e-08
5.8224937e-07
-4.5798417e-08
6.0640205e-07
4.9333539e-07
6.0005733e-08
4.0913674e-07
5.0482819e-08
6.2894064e-07
3.3366436e-08
6.0462667e-07
2.4813397e-08
5.8556401e-07
1.9318926e-08
5.7954968e-07
1.532727e-08
5.7629735e-07
1.2356698e-08
5.7424883e-07
1.0097845e-08
5.7288742e-07
8.3373251e-09
5.7194733e-07
6.9320096e-09
5.7128297e-07
5.7858119e-09
5.7080183e-07
4.8319595e-09
5.7044641e-07
4.0226796e-09
5.7018016e-07
3.3229788e-09
5.6997887e-07
2.7065849e-09
5.6982615e-07
2.1532572e-09
5.6971072e-07
1.6469615e-09
5.6962473e-07
1.1745894e-09
5.6956277e-07
7.2502459e-10
5.6952114e-07
2.8842943e-10
5.6949748e-07
-1.4433218e-10
5.694905e-07
-5.8220087e-10
5.6949982e-07
-1.0344151e-09
5.6952602e-07
-1.5110313e-09
5.6957058e-07
-2.0235268e-09
5.6963615e-07
-2.5855588e-09
5.6972677e-07
-3.2139768e-09
5.6984838e-07
-3.9302334e-09
5.7000959e-07
-4.7624339e-09
5.7022288e-07
-5.7484008e-09
5.7050666e-07
-6.940332e-09
5.7088857e-07
-8.4124397e-09
5.7141189e-07
-1.0274138e-08
5.7214623e-07
-1.268732e-08
5.7320109e-07
-1.588517e-08
5.7477478e-07
-2.0229618e-08
5.7727214e-07
-2.6698647e-08
5.8165277e-07
-3.8938364e-08
5.9448908e-07
-4.8160155e-08
6.1562384e-07
4.4517524e-07
5.4875046e-08
3.5426175e-07
5.7445385e-08
6.2637032e-07
4.0460921e-08
6.2161112e-07
3.0772285e-08
5.9525264e-07
2.4636555e-08
5.8568541e-07
1.9945935e-08
5.8098797e-07
1.6306887e-08
5.7788788e-07
1.3460933e-08
5.7573337e-07
1.1195946e-08
5.7421231e-07
9.3602102e-09
5.731187e-07
7.8458316e-09
5.7231621e-07
6.5743105e-09
5.7171793e-07
5.4877895e-09
5.7126668e-07
4.5429447e-09
5.7092372e-07
3.7066697e-09
5.7066243e-07
2.9530953e-09
5.7046429e-07
2.2614916e-09
5.7031634e-07
1.6147506e-09
5.7020951e-07
9.9825427e-10
5.7013764e-07
3.989947e-10
5.7009674e-07
-1.9514895e-10
5.7008464e-07
-7.9605086e-10
5.7010073e-07
-1.4159592e-09
5.7014592e-07
-2.0681511e-09
5.7022277e-07
-2.7676828e-09
5.7033568e-07
-3.5323178e-09
5.7049141e-07
-4.3837341e-09
5.706998e-07
-5.3491573e-09
5.7097501e-07
-6.4636407e-09
5.7133736e-07
-7.7733265e-09
5.7181635e-07
-9.3400128e-09
5.7245526e-07
-1.1247539e-08
5.7331941e-07
-1.3612191e-08
5.7451088e-07
-1.6595338e-08
5.7618423e-07
-2.0394798e-08
5.7857424e-07
-2.5277263e-08
5.8215461e-07
-3.2502174e-08
5.8887768e-07
-4.5086084e-08
6.0707299e-07
-4.653964e-08
6.170774e-07
3.986356e-07
4.7961009e-08
3.0630084e-07
6.0067224e-08
6.1426415e-07
4.5390604e-08
6.3628772e-07
3.4866265e-08
6.0577697e-07
2.8390835e-08
5.9216084e-07
2.3410785e-08
5.8596802e-07
1.9425879e-08
5.8187279e-07
1.622135e-08
5.789379e-07
1.3612668e-08
5.76821e-07
1.1460411e-08
5.7527096e-07
9.6594415e-09
5.7411718e-07
8.1297045e-09
5.7324767e-07
6.8101624e-09
5.7258622e-07
5.6537879e-09
5.7208009e-07
4.6237904e-09
5.7169242e-07
3.6908673e-09
5.7139721e-07
2.8311638e-09
5.7117604e-07
2.0247334e-09
5.7101594e-07
1.2543544e-09
5.7090802e-07
5.0458366e-10
5.7084651e-07
-2.3903554e-10
5.7082826e-07
-9.9068387e-10
5.7085237e-07
-1.7649561e-09
5.709202e-07
-2.5775839e-09
5.710354e-07
-3.4462515e-09
5.7120435e-07
-4.3915799e-09
5.7143674e-07
-5.4383665e-09
5.7174659e-07
-6.617195e-09
5.7215384e-07
-7.9665618e-09
5.7268673e-07
-9.5357506e-09
5.7338554e-07
-1.1388607e-08
5.7430812e-07
-1.3607967e-08
5.7553877e-07
-1.6302154e-08
5.7720507e-07
-1.9614805e-08
5.7949688e-07
-2.3716241e-08
5.8267568e-07
-2.8909281e-08
5.8734765e-07
-3.6769872e-08
5.9673827e-07
-4.8443286e-08
6.1874641e-07
-4.3182049e-08
6.1181616e-07
3.5545355e-07
4.0330638e-08
2.6597033e-07
5.8982211e-08
5.9561268e-07
4.8317133e-08
6.4695278e-07
3.7575884e-08
6.165182e-07
3.0916964e-08
5.9881976e-07
2.5882356e-08
5.9100263e-07
2.1768914e-08
5.8598623e-07
1.8381766e-08
5.8232505e-07
1.5568233e-08
5.7963453e-07
1.320625e-08
5.7763294e-07
1.1199861e-08
5.7612357e-07
9.4737564e-09
5.7497377e-07
7.9687767e-09
5.740912e-07
6.6379986e-09
5.7341087e-07
5.4437759e-09
5.7288664e-07
4.3554708e-09
5.7248552e-07
3.3476749e-09
5.7218384e-07
2.3988091e-09
5.7196481e-07
1.4900061e-09
5.7181682e-07
6.0418994e-10
5.7173233e-07
-2.7471474e-10
5.7170716e-07
-1.1624998e-09
5.7174016e-07
-2.0753763e-09
5.7183307e-07
-3.0307029e-09
5.7199073e-07
-4.0477915e-09
5.7222144e-07
-5.1488538e-09
5.725378e-07
-6.3601526e-09
5.7295789e-07
-7.7134365e-09
5.7350712e-07
-9.2477378e-09
5.7422103e-07
-1.101168e-08
5.7514948e-07
-1.3066511e-08
5.7636295e-07
-1.5489524e-08
5.7796178e-07
-1.8378146e-08
5.8009369e-07
-2.1856593e-08
5.8297533e-07
-2.6080706e-08
5.8689979e-07
-3.1459691e-08
5.9272663e-07
-3.9625909e-08
6.0490449e-07
-4.9145673e-08
6.2826617e-07
-3.8563911e-08
6.012344e-07
3.1688964e-07
3.2856677e-08
2.3311382e-07
5.5235459e-08
5.7323406e-07
4.9215339e-08
6.529729e-07
3.9045568e-08
6.2668794e-07
3.241529e-08
6.0545003e-07
2.7503814e-08
5.959141e-07
2.3424467e-08
5.9006558e-07
1.9989694e-08
5.8575982e-07
1.7082912e-08
5.8254131e-07
1.4601876e-08
5.8011398e-07
1.2462781e-08
5.7826267e-07
1.0598354e-08
5.768382e-07
8.9543339e-09
5.7573522e-07
7.4865038e-09
5.748787e-07
6.158511e-09
5.7421464e-07
4.9401052e-09
5.7370392e-07
3.8056964e-09
5.7331824e-07
2.7331787e-09
5.7303733e-07
1.7029539e-09
5.7284705e-07
6.9709992e-10
5.7273818e-07
-3.0136038e-10
5.7270562e-07
-1.309134e-09
5.7274793e-07
-2.3433234e-09
5.7286726e-07
-3.4221102e-09
5.7306951e-07
-4.5654962e-09
5.7336483e-07
-5.7961507e-09
5.7376845e-07
-7.140408e-09
5.7430214e-07
-8.6294676e-09
5.7499618e-07
-1.0300845e-08
5.7589241e-07
-1.2200145e-08
5.7704878e-07
-1.4383456e-08
5.7854626e-07
-1.6920235e-08
5.8049856e-07
-1.989536e-08
5.8306882e-07
-2.3409657e-08
5.8648963e-07
-2.7604569e-08
5.910947e-07
-3.2997906e-08
5.9811997e-07
-4.0973723e-08
6.1288031e-07
-4.7654585e-08
6.3494703e-07
-3.3359343e-08
5.8693916e-07
2.8353029e-07
2.6182367e-08
2.0693167e-07
5.0115354e-08
5.4930132e-07
4.8472182e-08
6.5461611e-07
3.9470651e-08
6.3568944e-07
3.3058028e-08
6.1186264e-07
2.839323e-08
6.005789e-07
2.4475012e-08
5.9398379e-07
2.1101613e-08
5.8913322e-07
1.8192112e-08
5.8545081e-07
1.5667256e-08
5.8263883e-07
1.3457885e-08
5.8047204e-07
1.1506796e-08
5.7878929e-07
9.7664466e-09
5.7747557e-07
8.1970202e-09
5.7644812e-07
6.7649569e-09
5.756467e-07
5.4416829e-09
5.750272e-07
4.2025214e-09
5.7455741e-07
3.02577e-09
5.7421408e-07
1.8919027e-09
5.7398091e-07
7.8286708e-10
5.7384722e-07
-3.1855249e-10
5.7380704e-07
-1.4293302e-09
5.7385871e-07
-2.5667919e-09
5.7400472e-07
-3.7492178e-09
5.7425194e-07
-4.9964856e-09
5.7461209e-07
-6.3307841e-09
5.7510275e-07
-7.7774269e-09
5.7574879e-07
-9.3657987e-09
5.7658455e-07
-1.1130463e-08
5.7765707e-07
-1.3112431e-08
5.7903075e-07
-1.5360809e-08
5.8079463e-07
-1.7934918e-08
5.8307267e-07
-2.0904255e-08
5.8603815e-07
-2.4344071e-08
5.8992944e-07
-2.8389829e-08
5.9514046e-07
-3.3645837e-08
6.0337598e-07
-4.1016443e-08
6.2025091e-07
-4.475739e-08
6.3868798e-07
-2.8185619e-08
5.7036738e-07
2.5534467e-07
2.0563635e-08
1.8636829e-07
4.4562889e-08
5.2530242e-07
4.6616522e-08
6.5256256e-07
3.9127551e-08
6.4317836e-07
3.3059631e-08
6.1793054e-07
2.8694337e-08
6.049442e-07
2.5015992e-08
5.9766214e-07
2.1783196e-08
5.9236602e-07
1.8940597e-08
5.8829341e-07
1.6432108e-08
5.8514732e-07
1.4204203e-08
5.8269994e-07
1.2210672e-08
5.8078282e-07
1.0411702e-08
5.7927454e-07
8.7729062e-09
5.7808692e-07
7.2644955e-09
5.7715511e-07
5.8604697e-09
5.7643122e-07
4.5378762e-09
5.7588e-07
3.2761445e-09
5.7547581e-07
2.0564797e-09
5.7520058e-07
8.6130494e-10
5.7504239e-07
-3.2625798e-10
5.7499461e-07
-1.5228852e-09
5.7505534e-07
-2.745548e-09
5.7522738e-07
-4.0120138e-09
5.755184e-07
-5.3413711e-09
5.7594145e-07
-6.754595e-09
5.7651598e-07
-8.2751643e-09
5.7726935e-07
-9.9297468e-09
5.7823913e-07
-1.1748965e-08
5.7947629e-07
-1.3768192e-08
5.8104997e-07
-1.6028457e-08
5.830549e-07
-1.8577653e-08
5.8562187e-07
-2.1468936e-08
5.8892943e-07
-2.4756392e-08
5.932169e-07
-2.8586016e-08
5.9897008e-07
-3.3603923e-08
6.0839388e-07
-4.0087412e-08
6.267344e-07
-4.1112151e-08
6.3971272e-07
-2.3396072e-08
5.526513e-07
2.319486e-07
1.6007502e-08
1.7036109e-07
3.9120435e-08
5.0218996e-07
4.4086565e-08
6.4759658e-07
3.8257915e-08
6.4900696e-07
3.2624118e-08
6.235643e-07
2.8563094e-08
6.0900522e-07
2.5156493e-08
6.0106874e-07
2.2110737e-08
5.9541177e-07
1.9381916e-08
5.9102223e-07
1.693393e-08
5.8759531e-07
1.4727768e-08
5.849061e-07
1.2727798e-08
5.8278279e-07
1.0902074e-08
5.8110026e-07
9.2220355e-09
5.7976696e-07
7.6621708e-09
5.7871498e-07
6.1995926e-09
5.778938e-07
4.813613e-09
5.7726598e-07
3.4853171e-09
5.768041e-07
2.1971407e-09
5.7648875e-07
9.3246263e-10
5.7630707e-07
-3.247922e-10
5.7625186e-07
-1.5905397e-09
5.7632108e-07
-2.8809284e-09
5.7651777e-07
-4.2127299e-09
5.7685021e-07
-5.6037382e-09
5.7733246e-07
-7.0731845e-09
5.7798542e-07
-8.6421639e-09
5.7883833e-07
-1.0334074e-08
5.7993104e-07
-1.2175071e-08
5.8131729e-07
-1.4194487e-08
5.8306939e-07
-1.6425195e-08
5.8528561e-07
-1.8903994e-08
5.8810067e-07
-2.1669088e-08
5.9169453e-07
-2.4761007e-08
5.9630882e-07
-2.8348199e-08
6.0255727e-07
-3.3056442e-08
6.1310213e-07
-3.848155e-08
6.3215951e-07
-3.7161313e-08
6.3839248e-07
-1.9160018e-08
5.3465001e-07
2.1278858e-07
1.2414979e-08
1.5794647e-07
3.408703e-08
4.8051852e-07
4.1211465e-08
6.404724e-07
3.7039816e-08
6.5317857e-07
3.1905504e-08
6.2869856e-07
2.8134116e-08
6.127766e-07
2.5000056e-08
6.042028e-07
2.2161395e-08
5.9825043e-07
1.9573088e-08
5.9361054e-07
1.7214496e-08
5.899539e-07
1.5058948e-08
5.8706165e-07
1.3080092e-08
5.8476165e-07
1.1253249e-08
5.8292711e-07
9.5555211e-09
5.8146468e-07
7.9657462e-09
5.8030475e-07
6.464366e-09
5.7939518e-07
5.0332485e-09
5.786971e-07
3.6554599e-09
5.7818189e-07
2.3150095e-09
5.778292e-07
9.9657901e-10
5.776255e-07
-3.147545e-10
5.7756319e-07
-1.6337973e-09
5.7764013e-07
-2.9755249e-09
5.778595e-07
-4.3553632e-09
5.7823004e-07
-5.7894665e-09
5.7876656e-07
-7.294991e-09
5.7949095e-07
-8.8903545e-09
5.804337e-07
-1.0595468e-08
5.8163616e-07
-1.2431943e-08
5.8315376e-07
-1.4423257e-08
5.850607e-07
-1.6594777e-08
5.8745713e-07
-1.8973448e-08
5.9047934e-07
-2.1584843e-08
5.9430592e-07
-2.4463173e-08
5.9918715e-07
-2.7802288e-08
6.0589639e-07
-3.2145989e-08
6.1744583e-07
-3.6440944e-08
6.3645446e-07
-3.3206057e-08
6.3515759e-07
-1.5539047e-08
5.16983e-07
1.9724954e-07
9.6474239e-09
1.4829946e-07
2.9614921e-08
4.6055178e-07
3.8237805e-08
6.3184989e-07
3.5611334e-08
6.5580502e-07
3.1014844e-08
6.3329498e-07
2.751165e-08
6.1627977e-07
2.4633144e-08
6.0708131e-07
2.2003849e-08
6.0087973e-07
1.9567892e-08
5.9604649e-07
1.7315241e-08
5.9220655e-07
1.5229235e-08
5.8914766e-07
1.3291248e-08
5.8669963e-07
1.14829e-08
5.8473545e-07
9.7864124e-09
5.8316117e-07
8.1847309e-09
5.8190643e-07
6.6615806e-09
5.8091833e-07
5.2014614e-09
5.8015721e-07
3.7895731e-09
5.7959378e-07
2.4116939e-09
5.7920708e-07
1.05403e-09
5.7898317e-07
-2.9695539e-10
5.7891418e-07
-1.6547208e-09
5.7899789e-07
-3.0328347e-09
5.7923761e-07
-4.4451553e-09
5.7964236e-07
-5.9060005e-09
5.8022741e-07
-7.4303006e-09
5.8101525e-07
-9.0337204e-09
5.8203712e-07
-1.0732735e-08
5.8333517e-07
-1.254466e-08
5.8496569e-07
-1.448764e-08
5.8700368e-07
-1.6580477e-08
5.8954996e-07
-1.8841713e-08
5.9274057e-07
-2.1286949e-08
5.9675116e-07
-2.3950262e-08
6.0185046e-07
-2.7046989e-08
6.0899312e-07
-3.0990612e-08
6.2138945e-07
-3.4169636e-08
6.3963348e-07
-2.9451415e-08
6.3043937e-07
-1.2528441e-08
5.0006002e-07
1.847211e-07
7.5560025e-09
1.4074394e-07
2.5751721e-08
4.4235701e-07
3.5336375e-08
6.2226577e-07
3.4082224e-08
6.5705918e-07
3.0034996e-08
6.3734213e-07
2.6775555e-08
6.1953919e-07
2.4125325e-08
6.0973154e-07
2.1695774e-08
6.0330928e-07
1.9413513e-08
5.9832876e-07
1.7274131e-08
5.9434593e-07
1.526869e-08
5.911531e-07
1.3384758e-08
5.8858356e-07
1.1609165e-08
5.8651105e-07
9.9285415e-09
5.8484179e-07
8.3295112e-09
5.8350546e-07
6.7988595e-09
5.8244898e-07
5.3236346e-09
5.8163244e-07
3.8911799e-09
5.8102624e-07
2.4891151e-09
5.8060915e-07
1.1052798e-09
5.80367e-07
-2.723469e-10
5.8029181e-07
-1.6557403e-09
5.8038128e-07
-3.0569327e-09
5.8063881e-07
-4.4881066e-09
5.8107354e-07
-5.9616741e-09
5.8170097e-07
-7.4903316e-09
5.825439e-07
-9.0870784e-09
5.8363386e-07
-1.0765182e-08
5.8501328e-07
-1.2538085e-08
5.8673859e-07
-1.441929e-08
5.8888489e-07
-1.6422051e-08
5.9155272e-07
-1.8558044e-08
5.9487657e-07
-2.0835872e-08
5.9902898e-07
-2.3294551e-08
6.0430914e-07
-2.6162495e-08
6.1186106e-07
-2.9691252e-08
6.2491821e-07
-3.1829161e-08
6.4177139e-07
-2.6019622e-08
6.2462983e-07
-1.0081494e-08
4.841219e-07
1.746396e-07
6.0001327e-09
1.3474438e-07
2.2475602e-08
4.258827e-07
3.2608951e-08
6.1213314e-07
3.2532821e-08
6.5713538e-07
2.9025909e-08
6.4084893e-07
2.5985856e-08
6.225792e-07
2.3531809e-08
6.1218559e-07
2.1284634e-08
6.0555646e-07
1.915004e-08
6.0046335e-07
1.7124513e-08
5.9637146e-07
1.5204609e-08
5.93073e-07
1.338264e-08
5.9040553e-07
1.164956e-08
5.8824413e-07
9.9956335e-09
5.8649572e-07
8.410649e-09
5.8509045e-07
6.8841238e-09
5.8397551e-07
5.4054641e-09
5.831111e-07
3.9640642e-09
5.8246764e-07
2.5493591e-09
5.8202385e-07
1.1508393e-09
5.8176552e-07
-2.4195958e-10
5.816846e-07
-1.6394818e-09
5.8177881e-07
-3.0521841e-09
5.8205151e-07
-4.4905586e-09
5.8251191e-07
-5.9651414e-09
5.8317556e-07
-7.4864933e-09
5.8406525e-07
-9.0651436e-09
5.8521251e-07
-1.0711484e-08
5.8665962e-07
-1.2435611e-08
5.8846272e-07
-1.4247145e-08
5.9069642e-07
-1.6154852e-08
5.9346043e-07
-1.8165125e-08
5.9688684e-07
-2.0282644e-08
6.011465e-07
-2.2554882e-08
6.0658138e-07
-2.5212222e-08
6.145184e-07
-2.8328363e-08
6.2803435e-07
-2.9533595e-08
6.4297662e-07
-2.296584e-08
6.1806208e-07
-8.1297095e-09
4.6928576e-07
1.6650989e-07
4.8571062e-09
1.2988795e-07
1.9727972e-08
4.1101323e-07
3.0103725e-08
6.0175832e-07
3.1015356e-08
6.562239e-07
2.8026935e-08
6.4383724e-07
2.5184691e-08
6.2542139e-07
2.2894584e-08
6.1447569e-07
2.0808358e-08
6.0764269e-07
1.8810636e-08
6.0246107e-07
1.6894841e-08
5.9828725e-07
1.5060971e-08
5.9490687e-07
1.330477e-08
5.9216173e-07
1.1620297e-08
5.899286e-07
1.0000692e-08
5.8811533e-07
8.4383609e-09
5.8665278e-07
6.9251756e-09
5.8548869e-07
5.4526452e-09
5.8458363e-07
4.0120531e-09
5.8390823e-07
2.5945528e-09
5.8344135e-07
1.1912318e-09
5.8316884e-07
-2.0684796e-10
5.8308268e-07
-1.6086224e-09
5.8318058e-07
-3.0230045e-09
5.8346589e-07
-4.4588539e-09
5.8394776e-07
-5.9249336e-09
5.8464164e-07
-7.4298387e-09
5.8557016e-07
-8.9818932e-09
5.8676457e-07
-1.0589007e-08
5.8826673e-07
-1.225849e-08
5.901322e-07
-1.3996864e-08
5.9243479e-07
-1.5809441e-08
5.9527301e-07
-1.7698856e-08
5.9877625e-07
-1.9668661e-08
6.0311631e-07
-2.1776488e-08
6.0868921e-07
-2.4242728e-08
6.1698464e-07
-2.6960547e-08
6.3075217e-07
-2.7354914e-08
6.4337099e-07
-2.029934e-08
6.110065e-07
-6.5974053e-09
4.5558383e-07
1.5991249e-07
4.0245622e-09
1.2586419e-07
1.7436316e-08
3.9760315e-07
2.783458e-08
5.9136126e-07
2.9560342e-08
6.5449839e-07
2.7061122e-08
6.4633633e-07
2.4399092e-08
6.2808334e-07
2.2243651e-08
6.1663112e-07
2.029589e-08
6.0959045e-07
1.8421753e-08
6.0433521e-07
1.6608637e-08
6.0010037e-07
1.4858207e-08
5.966573e-07
1.3168534e-08
5.9385141e-07
1.1535894e-08
5.9156124e-07
9.9556034e-09
5.8969562e-07
8.4221596e-09
5.8818622e-07
6.9293936e-09
5.8698146e-07
5.4706339e-09
5.8604239e-07
4.0388493e-09
5.8534001e-07
2.6267672e-09
5.8485343e-07
1.2269671e-09
5.8456864e-07
-1.6804524e-10
5.844777e-07
-1.5657733e-09
5.8457831e-07
-2.9736712e-09
5.8487379e-07
-4.3990765e-09
5.8537317e-07
-5.8491312e-09
5.8609169e-07
-7.3306796e-09
5.8705171e-07
-8.8501413e-09
5.8828403e-07
-1.0413356e-08
5.8982994e-07
-1.2025409e-08
5.9174425e-07
-1.3690452e-08
5.9409984e-07
-1.5411277e-08
5.9699383e-07
-1.7188127e-08
6.005531e-07
-1.9025717e-08
6.049539e-07
-2.09919e-08
6.1065539e-07
-2.3285814e-08
6.1927855e-07
-2.5627398e-08
6.3309375e-07
-2.5332745e-08
6.4307634e-07
-1.8001502e-08
6.0367526e-07
-5.4101877e-09
4.4299252e-07
1.545023e-07
3.4198267e-09
1.2244532e-07
1.5526787e-08
3.8549818e-07
2.5794819e-08
5.8109475e-07
2.8183073e-08
6.5211053e-07
2.614018e-08
6.483791e-07
2.3644778e-08
6.3057864e-07
2.1599161e-08
6.1867672e-07
1.9768311e-08
6.114213e-07
1.8003681e-08
6.0609984e-07
1.6284691e-08
6.0181936e-07
1.4613189e-08
5.983288e-07
1.2988691e-08
5.954759e-07
1.1408968e-08
5.9314096e-07
9.8709112e-09
5.9123367e-07
8.3706271e-09
5.896865e-07
6.9035318e-09
5.8844855e-07
5.4644823e-09
5.8748144e-07
4.0479108e-09
5.8675658e-07
2.6479467e-09
5.862534e-07
1.2585232e-09
5.8595806e-07
-1.2652838e-10
5.8586275e-07
-1.5133922e-09
5.8596517e-07
-2.9081849e-09
5.8626858e-07
-4.316866e-09
5.8678185e-07
-5.7451381e-09
5.8751996e-07
-7.1983312e-09
5.885049e-07
-8.6812692e-09
5.8976697e-07
-1.0198124e-08
5.913468e-07
-1.1752266e-08
5.9329839e-07
-1.3346126e-08
5.956937e-07
-1.4980764e-08
5.9862847e-07
-1.6655203e-08
6.0222754e-07
-1.8377045e-08
6.0667574e-07
-2.0223145e-08
6.1250149e-07
-2.2361776e-08
6.2141718e-07
-2.4353607e-08
6.3508558e-07
-2.3483789e-08
6.4220652e-07
-1.6038269e-08
5.9622974e-07
-4.4996346e-09
4.3145388e-07
1.5000266e-07
2.9782724e-09
1.1946817e-07
1.3930886e-08
3.7454793e-07
2.3966502e-08
5.7106102e-07
2.6888576e-08
6.4918903e-07
2.526833e-08
6.4999922e-07
2.2929591e-08
6.3291725e-07
2.0973808e-08
6.2063248e-07
1.9240346e-08
6.1315477e-07
1.7571466e-08
6.0776872e-07
1.5937556e-08
6.0345327e-07
1.4339456e-08
5.999269e-07
1.2777433e-08
5.9703793e-07
1.1250195e-08
5.946682e-07
9.755716e-09
5.9272815e-07
8.291298e-09
5.9115092e-07
6.8536015e-09
5.8988625e-07
5.4387365e-09
5.888963e-07
4.0423749e-09
5.8815294e-07
2.6598643e-09
5.8763591e-07
1.2863361e-09
5.8733159e-07
-8.3192899e-11
5.8723228e-07
-1.4537229e-09
5.873357e-07
-2.8301767e-09
5.8764503e-07
-4.2172976e-09
5.8816897e-07
-5.6195433e-09
5.8892221e-07
-7.040968e-09
5.8992632e-07
-8.4850964e-09
5.9121109e-07
-9.9547985e-09
5.928165e-07
-1.1452182e-08
5.9479578e-07
-1.2978488e-08
5.9722e-07
-1.4533705e-08
6.0018369e-07
-1.6116598e-08
6.0381043e-07
-1.7738826e-08
6.0829797e-07
-1.9484113e-08
6.1424677e-07
-2.1482277e-08
6.2341535e-07
-2.3152484e-08
6.3675579e-07
-2.1809085e-08
6.4086312e-07
-1.4368528e-08
5.8878918e-07
-3.8058437e-09
4.208912e-07
1.4619682e-07
2.6510649e-09
1.1681843e-07
1.2588838e-08
3.6461294e-07
2.23268e-08
5.6132537e-07
2.5675358e-08
6.4584126e-07
2.4445002e-08
6.5122949e-07
2.2256057e-08
6.3510604e-07
2.0374827e-08
6.2251366e-07
1.8721817e-08
6.1480778e-07
1.7135909e-08
6.0935463e-07
1.5578206e-08
6.0501097e-07
1.4047601e-08
6.0145751e-07
1.2544587e-08
5.9854094e-07
1.1068393e-08
5.9614439e-07
9.6176888e-09
5.9417885e-07
8.1906291e-09
5.9257798e-07
6.7848243e-09
5.9129205e-07
5.3973872e-09
5.9028374e-07
4.0250169e-09
5.8952531e-07
2.6640967e-09
5.8899683e-07
1.3107947e-09
5.8868489e-07
-3.8836418e-11
5.8858191e-07
-1.3887593e-09
5.8868562e-07
-2.7428551e-09
5.8899913e-07
-4.1048194e-09
5.8953093e-07
-5.4780582e-09
5.9029545e-07
-6.8655775e-09
5.9131384e-07
-8.2698732e-09
5.9261539e-07
-9.6928359e-09
5.9423946e-07
-1.1135686e-08
5.9623863e-07
-1.2598909e-08
5.9868322e-07
-1.4081939e-08
6.0166672e-07
-1.5584061e-08
6.0531256e-07
-1.7121629e-08
6.0983553e-07
-1.878252e-08
6.1590767e-07
-2.0652594e-08
6.2528542e-07
-2.2028982e-08
6.3813218e-07
-2.0299798e-08
6.3913394e-07
-1.2949716e-08
5.814391e-07
-3.2784109e-09
4.1121989e-07
1.4291841e-07
2.4024671e-09
1.1441752e-07
1.1450694e-08
3.5556798e-07
2.0852075e-08
5.519268e-07
2.4538298e-08
6.4215611e-07
2.3666844e-08
6.521009e-07
2.1623267e-08
6.3714942e-07
1.9805563e-08
6.2433131e-07
1.8218838e-08
6.163945e-07
1.6704472e-08
6.10869e-07
1.5214679e-08
6.0650077e-07
1.3745716e-08
6.0292647e-07
1.2297902e-08
5.9998875e-07
1.087069e-08
5.9757161e-07
9.4631569e-09
5.9558639e-07
8.0740347e-09
5.939671e-07
6.7016372e-09
5.9266445e-07
5.3438612e-09
5.9164151e-07
3.9982391e-09
5.9087094e-07
2.6620165e-09
5.9033305e-07
1.3322401e-09
5.9001467e-07
5.8503981e-12
5.899083e-07
-1.3202286e-09
5.900117e-07
-2.6489861e-09
5.9032789e-07
-3.9832353e-09
5.9086518e-07
-5.3255139e-09
5.9163772e-07
-6.6779874e-09
5.9266632e-07
-8.0423616e-09
5.9397976e-07
-9.4198189e-09
5.9561692e-07
-1.0810997e-08
5.976298e-07
-1.2215962e-08
6.0008819e-07
-1.3633993e-08
6.0308475e-07
-1.506548e-08
6.0674404e-07
-1.6531661e-08
6.1130172e-07
-1.8121554e-08
6.1749756e-07
-1.987351e-08
6.2703737e-07
-2.0982368e-08
6.3924103e-07
-1.8941744e-08
6.3709331e-07
-1.1741587e-08
5.7423894e-07
-2.8763252e-09
4.0235463e-07
1.4004208e-07
2.2071012e-09
1.1221224e-07
1.0475966e-08
3.4730295e-07
1.9520171e-08
5.4288597e-07
2.347069e-08
6.3820699e-07
2.2929186e-08
6.5264242e-07
2.1028312e-08
6.3905008e-07
1.9266715e-08
6.2609282e-07
1.7734801e-08
6.1792641e-07
1.6282048e-08
6.1232176e-07
1.4852671e-08
6.0793014e-07
1.3439818e-08
6.0433932e-07
1.2043346e-08
6.0138523e-07
1.0662727e-08
5.9895222e-07
9.2972337e-09
5.9695188e-07
7.9459643e-09
5.9531837e-07
6.6077355e-09
5.9400268e-07
5.2810422e-09
5.9296821e-07
3.9640788e-09
5.921879e-07
2.6547953e-09
5.9164233e-07
1.350968e-09
5.913185e-07
5.0280683e-11
5.9120898e-07
-1.249592e-09
5.9131157e-07
-2.5508984e-09
5.9162919e-07
-3.8557229e-09
5.9217e-07
-5.1659015e-09
5.929479e-07
-6.482943e-09
5.9398336e-07
-7.8079658e-09
5.9530479e-07
-9.1416665e-09
5.9695062e-07
-1.0484337e-08
5.9897248e-07
-1.1835871e-08
6.0143972e-07
-1.3195694e-08
6.0444457e-07
-1.4565715e-08
6.0811406e-07
-1.5971872e-08
6.1270787e-07
-1.7501254e-08
6.1902694e-07
-1.9142887e-08
6.2867901e-07
-2.0008415e-08
6.4010656e-07
-1.7718537e-08
6.3480344e-07
-1.0708202e-08
5.6722861e-07
-2.5671345e-09
3.9421356e-07
1.3747495e-07
2.0474831e-09
1.1016688e-07
9.632508e-09
3.397224e-07
1.8311459e-08
5.3421107e-07
2.2465528e-08
6.3405471e-07
2.2227018e-08
6.5288105e-07
2.0467299e-08
6.4080955e-07
1.8757305e-08
6.2780271e-07
1.7271186e-08
6.1941252e-07
1.5871606e-08
6.1372134e-07
1.4496044e-08
6.0930571e-07
1.3134251e-08
6.0570111e-07
1.1785407e-08
6.0273407e-07
1.0448872e-08
6.0028876e-07
9.1239679e-09
5.9827678e-07
7.8100026e-09
5.9663234e-07
6.5061375e-09
5.9530654e-07
5.2113111e-09
5.9426303e-07
3.924233e-09
5.9347498e-07
2.643417e-09
5.9292315e-07
1.3672343e-09
5.9259468e-07
9.3980667e-11
5.9248224e-07
-1.1780533e-09
5.9258361e-07
-2.4505066e-09
5.9290165e-07
-3.7248746e-09
5.9344437e-07
-5.0024401e-09
5.9422547e-07
-6.284213e-09
5.9526513e-07
-7.5708914e-09
5.9659146e-07
-8.8628613e-09
5.9824259e-07
-1.0160248e-08
6.0026986e-07
-1.1462946e-08
6.0274242e-07
-1.2770743e-08
6.0575237e-07
-1.4087338e-08
6.0943066e-07
-1.5442894e-08
6.1406343e-07
-1.6919631e-08
6.2050368e-07
-1.845689e-08
6.3021627e-07
-1.9101021e-08
6.4075069e-07
-1.6613526e-08
6.3231594e-07
-9.818436e-09
5.6043352e-07
-2.3257277e-09
3.8672085e-07
1.3514922e-07
1.9119417e-09
1.0825741e-07
8.8951635e-09
3.3274438e-07
1.7209128e-08
5.2590191e-07
2.151621e-08
6.297499e-07
2.1555564e-08
6.5284195e-07
1.9936026e-08
6.4242881e-07
1.8275378e-08
6.2946322e-07
1.6828183e-08
6.208597e-07
1.5474733e-08
6.150748e-07
1.414727e-08
6.1063317e-07
1.2832035e-08
6.0701635e-07
1.1527366e-08
6.0403874e-07
1.0232427e-08
6.015837e-07
8.9464972e-09
5.9956271e-07
7.6689809e-09
5.9790985e-07
6.3992618e-09
5.9657626e-07
5.1365977e-09
5.955257e-07
3.8800899e-09
5.9473148e-07
2.6286942e-09
5.9417455e-07
1.3812576e-09
5.9384212e-07
1.3656927e-10
5.9372692e-07
-1.1065822e-09
5.9382676e-07
-2.3493466e-09
5.9414441e-07
-3.592754e-09
5.9468778e-07
-4.837661e-09
5.9547037e-07
-6.0847099e-09
5.9651218e-07
-7.3343131e-09
5.9784107e-07
-8.58668e-09
5.9949496e-07
-9.8418948e-09
6.0152508e-07
-1.1099976e-08
6.040005e-07
-1.2361219e-08
6.0701361e-07
-1.3631258e-08
6.107007e-07
-1.4943803e-08
6.1537597e-07
-1.6373502e-08
6.2193338e-07
-1.781085e-08
6.3165361e-07
-1.8253313e-08
6.4119315e-07
-1.561098e-08
6.2967361e-07
-9.046096e-09
5.5386863e-07
-2.1331322e-09
3.7980789e-07
1.3301609e-07
1.7929355e-09
1.0646736e-07
8.2444088e-09
3.2629896e-07
1.6199067e-08
5.1795292e-07
2.0616863e-08
6.2533494e-07
2.0910561e-08
6.5254868e-07
1.9430382e-08
6.439087e-07
1.7818481e-08
6.3107495e-07
1.6405152e-08
6.22273e-07
1.5092036e-08
6.1638792e-07
1.3807794e-08
6.1191742e-07
1.2535168e-08
6.0828898e-07
1.1271538e-08
6.0530237e-07
1.0015821e-08
6.0283941e-07
8.7671966e-09
6.0081134e-07
7.5250874e-09
5.9915196e-07
6.2890078e-09
5.9781234e-07
5.0584368e-09
5.9675627e-07
3.8327652e-09
5.9595716e-07
2.6112884e-09
5.9539602e-07
1.3932257e-09
5.9506018e-07
1.7775659e-10
5.9494239e-07
-1.0359362e-09
5.9504045e-07
-2.2486183e-09
5.9535709e-07
-3.4609599e-09
5.9590012e-07
-4.6734984e-09
5.9668291e-07
-5.8866157e-09
5.977253e-07
-7.1005433e-09
5.9905499e-07
-8.3154126e-09
6.0070983e-07
-9.5313538e-09
6.0274102e-07
-1.0748584e-08
6.0521773e-07
-1.1968005e-08
6.0823303e-07
-1.3197228e-08
6.1192992e-07
-1.4472692e-08
6.1665144e-07
-1.5859088e-08
6.2331977e-07
-1.7199857e-08
6.3299438e-07
-1.7458387e-08
6.4145168e-07
-1.4696718e-08
6.2691194e-07
-8.3696006e-09
5.4754151e-07
-1.9753461e-09
3.7341363e-07
1.3104074e-07
1.6857436e-09
1.0478497e-07
7.6651327e-09
3.203266e-07
1.5269554e-08
5.1035518e-07
1.9762442e-08
6.2084554e-07
2.0288371e-08
6.520234e-07
1.8946565e-08
6.452502e-07
1.7383977e-08
6.3263732e-07
1.600095e-08
6.2365598e-07
1.4723464e-08
6.1766541e-07
1.3478311e-08
6.1316257e-07
1.2244875e-08
6.0952241e-07
1.1019486e-08
6.0652776e-07
9.8007836e-09
6.0405811e-07
8.5878158e-09
6.0202431e-07
7.3799739e-09
6.003598e-07
6.1768356e-09
5.9901548e-07
4.9780247e-09
5.9795508e-07
3.7831398e-09
5.9715204e-07
2.5917302e-09
5.9658743e-07
1.4033002e-09
5.9624861e-07
2.1733123e-10
5.9612836e-07
-9.6668879e-10
5.9622447e-07
-2.1492301e-09
5.9653963e-07
-3.3306925e-09
5.9708158e-07
-4.5113818e-09
5.978636e-07
-5.6915041e-09
5.9890542e-07
-6.8711896e-09
6.0023468e-07
-8.0505617e-09
6.018892e-07
-9.2298514e-09
6.0392031e-07
-1.0409518e-08
6.063974e-07
-1.1591132e-08
6.0941464e-07
-1.2784235e-08
6.1312302e-07
-1.4027097e-08
6.178943e-07
-1.537243e-08
6.246651e-07
-1.6619143e-08
6.3424109e-07
-1.6709748e-08
6.4154229e-07
-1.3858347e-08
6.2406054e-07
-7.7714406e-09
5.4145461e-07
-1.8422632e-09
3.6748446e-07
1.2919848e-07
1.5874962e-09
1.0320138e-07
7.1456013e-09
3.1477662e-07
1.4410865e-08
5.0309773e-07
1.8948681e-08
6.1631199e-07
1.9685976e-08
6.5128703e-07
1.8481185e-08
6.464547e-07
1.6969234e-08
6.3414902e-07
1.5614153e-08
6.25011e-07
1.4368522e-08
6.1891104e-07
1.3158989e-08
6.1437211e-07
1.1961808e-08
6.1071959e-07
1.0772193e-08
6.0771737e-07
9.5884888e-09
6.0524182e-07
8.4095994e-09
6.032032e-07
7.2348516e-09
6.0153455e-07
6.0638397e-09
6.0018649e-07
4.896274e-09
5.9912264e-07
3.7318959e-09
5.9831642e-07
2.570439e-09
5.9774889e-07
1.4116203e-09
5.9740743e-07
2.5514904e-10
5.9728483e-07
-8.9925612e-10
5.9737888e-07
-2.0518447e-09
5.9769222e-07
-3.2028187e-09
5.9823256e-07
-4.3523227e-09
5.990131e-07
-5.5004531e-09
6.0005355e-07
-6.6472968e-09
6.0138152e-07
-7.7930161e-09
6.0303492e-07
-8.937974e-09
6.0506526e-07
-1.0082896e-08
6.0754232e-07
-1.1230047e-08
6.105618e-07
-1.2390796e-08
6.1428377e-07
-1.3604301e-08
6.191078e-07
-1.4909654e-08
6.2597046e-07
-1.6064311e-08
6.3539575e-07
-1.6001541e-08
6.4147952e-07
-1.308526e-08
6.2114425e-07
-7.2375676e-09
5.3560691e-07
-1.7267424e-09
3.6197363e-07
1.2747173e-07
1.4964856e-09
1.0170944e-07
6.6766279e-09
3.0960587e-07
1.36149e-08
4.9616857e-07
1.8171987e-08
6.1176005e-07
1.9100908e-08
6.5035939e-07
1.803128e-08
6.4752405e-07
1.657174e-08
6.3560826e-07
1.5243206e-08
6.2633945e-07
1.4026442e-08
6.201278e-07
1.2849627e-08
6.1554893e-07
1.1686195e-08
6.1188303e-07
1.0530203e-08