/*--------------------------------*- C++ -*----------------------------------*\
  =========                 |
  \\      /  F ield         | OpenFOAM: The Open Source CFD Toolbox
   \\    /   O peration     | Website:  https://openfoam.org
    \\  /    A nd           | Version:  10
     \\/     M anipulation  |
\*---------------------------------------------------------------------------*/
FoamFile
{
    format      ascii;
    class       volScalarField;
    location    "0.16";
    object      T;
}
// * * * * * * * * * * * * * * * * * * * * * * * * * * * * * * * * * * * * * //

dimensions      [0 0 0 1 0 0 0];

internalField   nonuniform List<scalar> 
4000
(
303.10134
299.34292
299.99042
300.00082
299.99993
300
300
300
300
300
300
300
300
300
300
300
300
300
300
300
300
300
300
300
300
300
300
300
300
300
300
300
300
300
300
300
300
300
300
300
309.66338
298.493
299.77922
300.00184
300.0008
299.99999
300
300
300
300
300
300
300
300
300
300
300
300
300
300
300
300
300
300
300
300
300
300
300
300
300
300
300
300
300
300
300
300
300
300
316.00408
298.68458
299.39224
299.9757
300.00406
300.00025
299.99999
300
300
300
300
300
300
300
300
300
300
300
300
300
300
300
300
300
300
300
300
300
300
300
300
300
300
300
300
300
300
300
300
300
321.74197
299.84586
298.98486
299.89493
300.00716
300.00139
300
299.99999
300
300
300
300
300
300
300
300
300
300
300
300
300
300
300
300
300
300
300
300
300
300
300
300
300
300
300
300
300
300
300
300
326.67058
301.70029
298.71008
299.75317
300.00323
300.00379
300.00017
299.99998
300
300
300
300
300
300
300
300
300
300
300
300
300
300
300
300
300
300
300
300
300
300
300
300
300
300
300
300
300
300
300
300
330.68429
303.94758
298.66334
299.56838
299.98428
300.00697
300.00072
299.99997
299.99999
300
300
300
300
300
300
300
300
300
300
300
300
300
300
300
300
300
300
300
300
300
300
300
300
300
300
300
300
300
300
300
333.77336
306.33
298.87088
299.37383
299.9452
300.00938
300.00181
300
299.99998
300
300
300
300
300
300
300
300
300
300
300
300
300
300
300
300
300
300
300
300
300
300
300
300
300
300
300
300
300
300
300
336.02057
308.66301
299.30761
299.204
299.88584
300.0089
300.00345
300.00014
299.99997
300
300
300
300
300
300
300
300
300
300
300
300
300
300
300
300
300
300
300
300
300
300
300
300
300
300
300
300
300
300
300
337.57245
310.83578
299.92376
299.08484
299.8106
300.00353
300.00541
300.00046
299.99996
299.99999
300
300
300
300
300
300
300
300
300
300
300
300
300
300
300
300
300
300
300
300
300
300
300
300
300
300
300
300
300
300
338.60036
312.79556
300.66477
299.0308
299.72651
299.99194
300.00724
300.001
299.99996
299.99998
300
300
300
300
300
300
300
300
300
300
300
300
300
300
300
300
300
300
300
300
300
300
300
300
300
300
300
300
300
300
339.26699
314.52945
301.482
299.04626
299.64129
299.97373
300.0084
300.00176
300.00001
299.99997
300
300
300
300
300
300
300
300
300
300
300
300
300
300
300
300
300
300
300
300
300
300
300
300
300
300
300
300
300
300
339.70563
316.04871
302.33706
299.12854
299.56197
299.94935
300.00834
300.00268
300.00012
299.99996
300
300
300
300
300
300
300
300
300
300
300
300
300
300
300
300
300
300
300
300
300
300
300
300
300
300
300
300
300
300
340.01285
317.37675
303.20228
299.27092
299.49413
299.91988
300.00662
300.00367
300.0003
299.99996
299.99999
300
300
300
300
300
300
300
300
300
300
300
300
300
300
300
300
300
300
300
300
300
300
300
300
300
300
300
300
300
340.2513
318.54105
304.05925
299.465
299.44171
299.88679
300.00294
300.0046
300.00056
299.99996
299.99999
300
300
300
300
300
300
300
300
300
300
300
300
300
300
300
300
300
300
300
300
300
300
300
300
300
300
300
300
300
340.45742
319.56842
304.89658
299.70218
299.40717
299.85169
299.99718
300.00534
300.0009
299.99998
299.99998
300
300
300
300
300
300
300
300
300
300
300
300
300
300
300
300
300
300
300
300
300
300
300
300
300
300
300
300
300
340.64993
320.48266
305.70787
299.97452
299.39174
299.81615
299.98935
300.00573
300.0013
300.00003
299.99998
300
300
300
300
300
300
300
300
300
300
300
300
300
300
300
300
300
300
300
300
300
300
300
300
300
300
300
300
300
340.83686
321.30377
306.49
300.27505
299.39576
299.78166
299.97958
300.00566
300.00173
300.00009
299.99997
300
300
300
300
300
300
300
300
300
300
300
300
300
300
300
300
300
300
300
300
300
300
300
300
300
300
300
300
300
341.02051
322.04792
307.24189
300.59783
299.41894
299.74948
299.9681
300.00503
300.00216
300.00019
299.99997
299.99999
300
300
300
300
300
300
300
300
300
300
300
300
300
300
300
300
300
300
300
300
300
300
300
300
300
300
300
300
341.20053
322.72788
307.96364
300.93791
299.46058
299.72071
299.95523
300.00377
300.00257
300.00031
299.99998
299.99999
300
300
300
300
300
300
300
300
300
300
300
300
300
300
300
300
300
300
300
300
300
300
300
300
300
300
300
300
341.37565
323.35359
308.65599
301.29116
299.51971
299.69625
299.9413
300.00182
300.0029
300.00045
299.99999
299.99999
300
300
300
300
300
300
300
300
300
300
300
300
300
300
300
300
300
300
300
300
300
300
300
300
300
300
300
300
341.54454
323.93277
309.31997
301.65416
299.59521
299.6768
299.92667
299.99918
300.00313
300.00062
300.00001
299.99999
300
300
300
300
300
300
300
300
300
300
300
300
300
300
300
300
300
300
300
300
300
300
300
300
300
300
300
300
341.7062
324.47139
309.95671
302.02404
299.6859
299.66292
299.91172
299.99585
300.00322
300.00079
300.00004
299.99999
300
300
300
300
300
300
300
300
300
300
300
300
300
300
300
300
300
300
300
300
300
300
300
300
300
300
300
300
341.86
324.97413
310.56735
302.39842
299.79055
299.65501
299.89682
299.99187
300.00314
300.00097
300.00007
299.99999
300
300
300
300
300
300
300
300
300
300
300
300
300
300
300
300
300
300
300
300
300
300
300
300
300
300
300
300
342.00566
325.44473
311.15296
302.77526
299.90795
299.65333
299.88231
299.98729
300.00287
300.00115
300.00012
299.99999
300
300
300
300
300
300
300
300
300
300
300
300
300
300
300
300
300
300
300
300
300
300
300
300
300
300
300
300
342.14319
325.88621
311.71458
303.15286
300.03692
299.65806
299.86852
299.98217
300.00237
300.00131
300.00017
299.99999
299.99999
300
300
300
300
300
300
300
300
300
300
300
300
300
300
300
300
300
300
300
300
300
300
300
300
300
300
300
342.27275
326.3011
312.25316
303.52975
300.17628
299.66927
299.85577
299.97659
300.00164
300.00144
300.00023
300
299.99999
300
300
300
300
300
300
300
300
300
300
300
300
300
300
300
300
300
300
300
300
300
300
300
300
300
300
300
342.39465
326.6915
312.76958
303.90467
300.32495
299.68696
299.84433
299.97066
300.00067
300.00153
300.0003
300.00001
299.99999
300
300
300
300
300
300
300
300
300
300
300
300
300
300
300
300
300
300
300
300
300
300
300
300
300
300
300
342.50922
327.05924
313.26468
304.27655
300.48185
299.71104
299.83446
299.96447
299.99946
300.00158
300.00037
300.00002
299.99999
300
300
300
300
300
300
300
300
300
300
300
300
300
300
300
300
300
300
300
300
300
300
300
300
300
300
300
342.61681
327.40585
313.73923
304.64444
300.64597
299.74138
299.82637
299.95812
299.99801
300.00157
300.00044
300.00003
299.99999
300
300
300
300
300
300
300
300
300
300
300
300
300
300
300
300
300
300
300
300
300
300
300
300
300
300
300
342.71775
327.7327
314.19392
305.00753
300.81637
299.7778
299.82026
299.95173
299.99633
300.00149
300.0005
300.00005
299.99999
300
300
300
300
300
300
300
300
300
300
300
300
300
300
300
300
300
300
300
300
300
300
300
300
300
300
300
342.81232
328.04094
314.62942
305.36511
300.99212
299.82008
299.81629
299.9454
299.99443
300.00134
300.00056
300.00007
300
300
300
300
300
300
300
300
300
300
300
300
300
300
300
300
300
300
300
300
300
300
300
300
300
300
300
300
342.90077
328.33155
315.0463
305.71655
301.17236
299.86797
299.81459
299.93925
299.99234
300.00111
300.00062
300.00009
300
300
300
300
300
300
300
300
300
300
300
300
300
300
300
300
300
300
300
300
300
300
300
300
300
300
300
300
342.98327
328.60534
315.4451
306.06128
301.35627
299.92118
299.81526
299.93337
299.99008
300.0008
300.00066
300.00012
300
300
300
300
300
300
300
300
300
300
300
300
300
300
300
300
300
300
300
300
300
300
300
300
300
300
300
300
343.05995
328.86298
315.82627
306.3988
301.54308
299.97941
299.81837
299.92787
299.98767
300.00041
300.00069
300.00014
300.00001
300
300
300
300
300
300
300
300
300
300
300
300
300
300
300
300
300
300
300
300
300
300
300
300
300
300
300
343.13088
329.10497
316.19017
306.72863
301.73203
300.04234
299.82399
299.92284
299.98514
299.99993
300.0007
300.00017
300.00001
300
300
300
300
300
300
300
300
300
300
300
300
300
300
300
300
300
300
300
300
300
300
300
300
300
300
300
343.19608
329.33165
316.5371
307.05033
301.92242
300.10962
299.83214
299.91838
299.98254
299.99936
300.00068
300.00019
300.00002
300
300
300
300
300
300
300
300
300
300
300
300
300
300
300
300
300
300
300
300
300
300
300
300
300
300
300
343.25551
329.54324
316.86727
307.36347
302.11356
300.1809
299.84281
299.91457
299.97989
299.99871
300.00065
300.00022
300.00003
300
300
300
300
300
300
300
300
300
300
300
300
300
300
300
300
300
300
300
300
300
300
300
300
300
300
300
343.30913
329.7398
317.18079
307.66764
302.30478
300.25582
299.85599
299.91148
299.97724
299.99798
300.00059
300.00024
300.00003
300
300
300
300
300
300
300
300
300
300
300
300
300
300
300
300
300
300
300
300
300
300
300
300
300
300
300
343.35685
329.92125
317.47766
307.96241
302.49546
300.334
299.87165
299.90918
299.97461
299.99718
300.0005
300.00026
300.00004
300
300
300
300
300
300
300
300
300
300
300
300
300
300
300
300
300
300
300
300
300
300
300
300
300
300
300
343.39858
330.0874
317.7578
308.24735
302.68496
300.41506
299.88971
299.90774
299.97205
299.99632
300.00038
300.00027
300.00005
300
300
300
300
300
300
300
300
300
300
300
300
300
300
300
300
300
300
300
300
300
300
300
300
300
300
300
343.43423
330.23795
318.02098
308.52199
302.87266
300.49861
299.91011
299.90719
299.96959
299.9954
300.00023
300.00028
300.00006
300
300
300
300
300
300
300
300
300
300
300
300
300
300
300
300
300
300
300
300
300
300
300
300
300
300
300
343.46377
330.37252
318.2669
308.78586
303.05795
300.58424
299.93275
299.90758
299.96728
299.99443
300.00006
300.00028
300.00007
300.00001
300
300
300
300
300
300
300
300
300
300
300
300
300
300
300
300
300
300
300
300
300
300
300
300
300
300
343.48722
330.49071
318.49513
309.03842
303.24023
300.67155
299.9575
299.90895
299.96514
299.99343
299.99985
300.00027
300.00008
300.00001
300
300
300
300
300
300
300
300
300
300
300
300
300
300
300
300
300
300
300
300
300
300
300
300
300
300
343.50467
330.59214
318.70518
309.27911
303.41889
300.76013
299.98426
299.9113
299.96322
299.9924
299.99961
300.00025
300.00008
300.00001
300
300
300
300
300
300
300
300
300
300
300
300
300
300
300
300
300
300
300
300
300
300
300
300
300
300
343.51635
330.67654
318.89649
309.50734
303.59332
300.84957
300.01287
299.91465
299.96154
299.99137
299.99935
300.00023
300.00009
300.00001
300
300
300
300
300
300
300
300
300
300
300
300
300
300
300
300
300
300
300
300
300
300
300
300
300
300
343.52261
330.74384
319.06849
309.72248
303.7629
300.93942
300.04317
299.919
299.96013
299.99034
299.99906
300.0002
300.00009
300.00002
300
300
300
300
300
300
300
300
300
300
300
300
300
300
300
300
300
300
300
300
300
300
300
300
300
300
343.52393
330.79425
319.22066
309.92387
303.92703
301.02928
300.07501
299.92435
299.95902
299.98932
299.99875
300.00016
300.0001
300.00002
300
300
300
300
300
300
300
300
300
300
300
300
300
300
300
300
300
300
300
300
300
300
300
300
300
300
343.52095
330.82836
319.3526
310.11089
304.08509
301.11872
300.10819
299.93067
299.95823
299.98834
299.99843
300.0001
300.0001
300.00002
300
300
300
300
300
300
300
300
300
300
300
300
300
300
300
300
300
300
300
300
300
300
300
300
300
300
343.5144
330.84721
319.46414
310.28294
304.23651
301.2073
300.14253
299.93792
299.95779
299.9874
299.99808
300.00004
300.0001
300.00002
300
300
300
300
300
300
300
300
300
300
300
300
300
300
300
300
300
300
300
300
300
300
300
300
300
300
343.50512
330.85231
319.55543
310.43952
304.38071
301.29462
300.17783
299.94609
299.95769
299.98652
299.99772
299.99997
300.00009
300.00003
300
300
300
300
300
300
300
300
300
300
300
300
300
300
300
300
300
300
300
300
300
300
300
300
300
300
343.49398
330.84561
319.62699
310.58027
304.51717
301.38027
300.21389
299.95511
299.95796
299.98571
299.99736
299.99989
300.00009
300.00003
300
300
300
300
300
300
300
300
300
300
300
300
300
300
300
300
300
300
300
300
300
300
300
300
300
300
343.48182
330.82943
319.67982
310.70502
304.64545
301.46386
300.25052
299.96494
299.95861
299.98498
299.99699
299.9998
300.00008
300.00003
300.00001
300
300
300
300
300
300
300
300
300
300
300
300
300
300
300
300
300
300
300
300
300
300
300
300
300
343.4694
330.8063
319.71542
310.81388
304.76519
301.54504
300.28749
299.97551
299.95963
299.98434
299.99662
299.9997
300.00007
300.00003
300.00001
300
300
300
300
300
300
300
300
300
300
300
300
300
300
300
300
300
300
300
300
300
300
300
300
300
343.45736
330.77882
319.73573
310.90723
304.87615
301.6235
300.32463
299.98676
299.96102
299.9838
299.99625
299.9996
300.00005
300.00003
300.00001
300
300
300
300
300
300
300
300
300
300
300
300
300
300
300
300
300
300
300
300
300
300
300
300
300
343.4462
330.74943
319.74314
310.98579
304.97822
301.69896
300.36175
299.99861
299.96277
299.98337
299.9959
299.99949
300.00003
300.00003
300.00001
300
300
300
300
300
300
300
300
300
300
300
300
300
300
300
300
300
300
300
300
300
300
300
300
300
343.4362
330.72027
319.74031
311.05063
305.07147
301.7712
300.39865
300.011
299.96488
299.98305
299.99556
299.99937
300.00001
300.00003
300.00001
300
300
300
300
300
300
300
300
300
300
300
300
300
300
300
300
300
300
300
300
300
300
300
300
300
343.42747
330.69301
319.73008
311.10311
305.15611
301.84009
300.4352
300.02386
299.96734
299.98285
299.99523
299.99925
299.99999
300.00003
300.00001
300
300
300
300
300
300
300
300
300
300
300
300
300
300
300
300
300
300
300
300
300
300
300
300
300
343.41997
330.66881
319.71522
311.14486
305.23255
301.90553
300.47124
300.0371
299.97011
299.98278
299.99493
299.99913
299.99996
300.00003
300.00001
300
300
300
300
300
300
300
300
300
300
300
300
300
300
300
300
300
300
300
300
300
300
300
300
300
343.41351
330.64825
319.69833
311.1777
305.30134
301.96751
300.50665
300.05066
299.9732
299.98282
299.99465
299.99901
299.99993
300.00002
300.00001
300
300
300
300
300
300
300
300
300
300
300
300
300
300
300
300
300
300
300
300
300
300
300
300
300
343.40778
330.63136
319.68163
311.20355
305.36316
302.02608
300.54134
300.06447
299.97658
299.98299
299.9944
299.99888
299.9999
300.00002
300.00001
300
300
300
300
300
300
300
300
300
300
300
300
300
300
300
300
300
300
300
300
300
300
300
300
300
343.40245
330.61769
319.66682
311.22431
305.41881
302.08137
300.57523
300.07847
299.98022
299.98329
299.99418
299.99876
299.99987
300.00001
300.00001
300
300
300
300
300
300
300
300
300
300
300
300
300
300
300
300
300
300
300
300
300
300
300
300
300
343.39713
330.60643
319.65501
311.24175
305.46915
302.13354
300.60827
300.0926
299.98411
299.9837
299.99399
299.99864
299.99983
300.00001
300.00001
300
300
300
300
300
300
300
300
300
300
300
300
300
300
300
300
300
300
300
300
300
300
300
300
300
343.39148
330.59647
319.64663
311.25739
305.51507
302.1828
300.64043
300.1068
299.98822
299.98424
299.99384
299.99852
299.9998
300
300.00001
300
300
300
300
300
300
300
300
300
300
300
300
300
300
300
300
300
300
300
300
300
300
300
300
300
343.38519
330.5866
319.64146
311.27243
305.55742
302.22942
300.67171
300.12104
299.99253
299.98489
299.99372
299.99841
299.99976
299.99999
300.00001
300
300
300
300
300
300
300
300
300
300
300
300
300
300
300
300
300
300
300
300
300
300
300
300
300
343.37804
330.57558
319.63868
311.28764
305.59698
302.27367
300.7021
300.13527
299.99702
299.98565
299.99363
299.9983
299.99972
299.99998
300.00001
300
300
300
300
300
300
300
300
300
300
300
300
300
300
300
300
300
300
300
300
300
300
300
300
300
343.36989
330.56229
319.63701
311.30332
305.63436
302.3158
300.73165
300.14946
300.00167
299.98651
299.99358
299.9982
299.99968
299.99998
300.00001
300
300
300
300
300
300
300
300
300
300
300
300
300
300
300
300
300
300
300
300
300
300
300
300
300
343.36071
330.54581
319.63482
311.31931
305.67002
302.35606
300.76037
300.16357
300.00645
299.98747
299.99356
299.99811
299.99964
299.99997
300
300
300
300
300
300
300
300
300
300
300
300
300
300
300
300
300
300
300
300
300
300
300
300
300
300
343.35055
330.52552
319.63034
311.33501
305.70415
302.3946
300.78829
300.17758
300.01134
299.98851
299.99358
299.99802
299.9996
299.99996
300
300
300
300
300
300
300
300
300
300
300
300
300
300
300
300
300
300
300
300
300
300
300
300
300
300
343.33956
330.50114
319.62186
311.34953
305.73673
302.43154
300.81541
300.19148
300.01634
299.98965
299.99364
299.99795
299.99956
299.99994
300
300
300
300
300
300
300
300
300
300
300
300
300
300
300
300
300
300
300
300
300
300
300
300
300
300
343.32795
330.47271
319.60788
311.36174
305.76756
302.46686
300.84172
300.20522
300.02143
299.99088
299.99374
299.99788
299.99952
299.99993
300
300
300
300
300
300
300
300
300
300
300
300
300
300
300
300
300
300
300
300
300
300
300
300
300
300
343.31596
330.44059
319.58727
311.37048
305.79632
302.50052
300.86717
300.2188
300.02661
299.9922
299.99388
299.99782
299.99949
299.99992
300
300
300
300
300
300
300
300
300
300
300
300
300
300
300
300
300
300
300
300
300
300
300
300
300
300
343.30388
330.4054
319.55934
311.37461
305.82263
302.53246
300.89173
300.23216
300.03187
299.99363
299.99407
299.99779
299.99945
299.99991
299.99999
300
300
300
300
300
300
300
300
300
300
300
300
300
300
300
300
300
300
300
300
300
300
300
300
300
343.29196
330.36796
319.52389
311.37308
305.84615
302.56269
300.91539
300.2453
300.03719
299.99514
299.99431
299.99776
299.99942
299.9999
299.99999
300
300
300
300
300
300
300
300
300
300
300
300
300
300
300
300
300
300
300
300
300
300
300
300
300
343.28045
330.32917
319.48117
311.36499
305.86655
302.59128
300.93821
300.25819
300.04255
299.99673
299.99459
299.99775
299.99939
299.99989
299.99999
300
300
300
300
300
300
300
300
300
300
300
300
300
300
300
300
300
300
300
300
300
300
300
300
300
343.26957
330.28997
319.43181
311.34952
305.88345
302.6184
300.96035
300.27086
300.0479
299.99836
299.9949
299.99775
299.99937
299.99988
299.99999
300
300
300
300
300
300
300
300
300
300
300
300
300
300
300
300
300
300
300
300
300
300
300
300
300
343.25946
330.25125
319.37679
311.32592
305.89631
302.64419
300.98201
300.28336
300.05321
299.99999
299.9952
299.99774
299.99934
299.99986
299.99998
300
300
300
300
300
300
300
300
300
300
300
300
300
300
300
300
300
300
300
300
300
300
300
300
300
343.25026
330.21382
319.31732
311.29357
305.90429
302.66862
301.00344
300.29579
300.05845
300.00156
299.99547
299.99772
299.99931
299.99985
299.99998
300
300
300
300
300
300
300
300
300
300
300
300
300
300
300
300
300
300
300
300
300
300
300
300
300
343.242
330.17835
319.25479
311.25206
305.90619
302.69132
301.02476
300.30826
300.06364
300.00304
299.99568
299.99768
299.99927
299.99984
299.99998
300
300
300
300
300
300
300
300
300
300
300
300
300
300
300
300
300
300
300
300
300
300
300
300
300
343.23472
330.14538
319.19071
311.20133
305.9005
302.71142
301.04586
300.32086
300.06879
300.00442
299.99582
299.9976
299.99922
299.99982
299.99997
300
300
300
300
300
300
300
300
300
300
300
300
300
300
300
300
300
300
300
300
300
300
300
300
300
343.2284
330.11527
319.12662
311.14182
305.88563
302.7275
301.06627
300.33358
300.07398
300.00573
299.99588
299.99749
299.99915
299.9998
299.99997
300
300
300
300
300
300
300
300
300
300
300
300
300
300
300
300
300
300
300
300
300
300
300
300
300
343.22299
330.08829
319.06407
311.07465
305.8602
302.73776
301.0851
300.34626
300.07929
300.00704
299.99592
299.99735
299.99908
299.99978
299.99997
300
300
300
300
300
300
300
300
300
300
300
300
300
300
300
300
300
300
300
300
300
300
300
300
300
343.21843
330.06455
319.00451
311.00158
305.82348
302.74029
301.10112
300.35854
300.08475
300.00848
299.99598
299.99721
299.99901
299.99976
299.99996
300
300
300
300
300
300
300
300
300
300
300
300
300
300
300
300
300
300
300
300
300
300
300
300
300
343.21464
330.04406
318.94921
310.92502
305.7757
302.7335
301.11291
300.36987
300.09034
300.01014
299.99616
299.99711
299.99895
299.99974
299.99996
300
300
300
300
300
300
300
300
300
300
300
300
300
300
300
300
300
300
300
300
300
300
300
300
300
343.21155
330.02673
318.8992
310.84771
305.7182
302.71652
301.11918
300.37956
300.09595
300.01211
299.99654
299.99709
299.9989
299.99972
299.99996
300
300
300
300
300
300
300
300
300
300
300
300
300
300
300
300
300
300
300
300
300
300
300
300
300
343.20907
330.0124
318.8552
310.7725
305.65337
302.68948
301.119
300.38694
300.10138
300.01443
299.99718
299.99718
299.99889
299.99972
299.99995
300
300
300
300
300
300
300
300
300
300
300
300
300
300
300
300
300
300
300
300
300
300
300
300
300
343.20715
330.00084
318.81759
310.70203
305.58435
302.65363
301.11214
300.39148
300.10634
300.01703
299.9981
299.99741
299.99893
299.99972
299.99995
300
300
300
300
300
300
300
300
300
300
300
300
300
300
300
300
300
300
300
300
300
300
300
300
300
343.20569
329.99177
318.7864
310.63842
305.51465
302.61117
301.09906
300.39292
300.11056
300.01981
299.99928
299.99778
299.99901
299.99973
299.99995
300
300
300
300
300
300
300
300
300
300
300
300
300
300
300
300
300
300
300
300
300
300
300
300
300
343.20464
329.9849
318.76136
310.58311
305.44762
302.56489
301.08091
300.39133
300.11382
300.02258
300.00065
299.99826
299.99913
299.99975
299.99995
300
300
300
300
300
300
300
300
300
300
300
300
300
300
300
300
300
300
300
300
300
300
300
300
300
343.20393
329.97992
318.74195
310.53679
305.38607
302.51775
301.0593
300.38711
300.11599
300.02516
300.0021
299.99882
299.99929
299.99978
299.99996
300
300
300
300
300
300
300
300
300
300
300
300
300
300
300
300
300
300
300
300
300
300
300
300
300
343.20351
329.9765
318.72747
310.49944
305.33198
302.47243
301.03601
300.3809
300.11708
300.02741
300.00351
299.99941
299.99947
299.99982
299.99996
300
300
300
300
300
300
300
300
300
300
300
300
300
300
300
300
300
300
300
300
300
300
300
300
300
343.20333
329.97436
318.71715
310.47047
305.2864
302.43106
301.01273
300.37343
300.11719
300.02921
300.00479
299.99998
299.99966
299.99986
299.99997
300
300
300
300
300
300
300
300
300
300
300
300
300
300
300
300
300
300
300
300
300
300
300
300
300
343.20333
329.97322
318.71018
310.44887
305.24953
302.39501
300.99084
300.36544
300.11651
300.03052
300.00588
300.0005
299.99983
299.99991
299.99998
300
300
300
300
300
300
300
300
300
300
300
300
300
300
300
300
300
300
300
300
300
300
300
300
300
343.20348
329.97284
318.70579
310.4334
305.22084
302.36493
300.97129
300.35756
300.11528
300.03137
300.00673
300.00093
299.99999
299.99995
299.99998
300
300
300
300
300
300
300
300
300
300
300
300
300
300
300
300
300
300
300
300
300
300
300
300
300
343.20375
329.97303
318.70334
310.4228
305.19934
302.34079
300.9546
300.35025
300.11372
300.03183
300.00735
300.00128
300.00012
299.99998
299.99999
300
300
300
300
300
300
300
300
300
300
300
300
300
300
300
300
300
300
300
300
300
300
300
300
300
343.20412
329.97364
318.70227
310.41586
305.18379
302.32211
300.94091
300.3438
300.11203
300.03197
300.00777
300.00153
300.00022
300.00001
300
300
300
300
300
300
300
300
300
300
300
300
300
300
300
300
300
300
300
300
300
300
300
300
300
300
343.20456
329.97456
318.70214
310.41156
305.17289
302.3081
300.93005
300.33834
300.11038
300.0319
300.00802
300.0017
300.00029
300.00003
300
300
300
300
300
300
300
300
300
300
300
300
300
300
300
300
300
300
300
300
300
300
300
300
300
300
343.20509
329.9757
318.70266
310.40907
305.16544
302.29787
300.92169
300.33389
300.10887
300.03171
300.00815
300.00182
300.00034
300.00005
300.00001
300
300
300
300
300
300
300
300
300
300
300
300
300
300
300
300
300
300
300
300
300
300
300
300
300
343.20574
329.9771
318.70365
310.4078
305.16044
302.29051
300.91537
300.33033
300.10754
300.03144
300.0082
300.00189
300.00038
300.00006
300.00001
300
300
300
300
300
300
300
300
300
300
300
300
300
300
300
300
300
300
300
300
300
300
300
300
300
343.20652
329.97855
318.70476
310.40724
305.15722
302.28551
300.91091
300.32771
300.10649
300.03119
300.0082
300.00192
300.0004
300.00007
300.00001
300
300
300
300
300
300
300
300
300
300
300
300
300
300
300
300
300
300
300
300
300
300
300
300
300
343.20813
329.98176
318.7074
310.40756
305.15432
302.28046
300.90618
300.3248
300.10524
300.03083
300.00815
300.00194
300.00041
300.00008
300.00001
300
300
300
300
300
300
300
300
300
300
300
300
300
300
300
300
300
300
300
300
300
300
300
300
300
)
;

boundaryField
{
    wall
    {
        type            fixedValue;
        value           uniform 350;
    }
    sides
    {
        type            zeroGradient;
    }
    frontAndBack
    {
        type            empty;
    }
    inlet
    {
        type            fixedValue;
        value           uniform 300;
    }
    outlet
    {
        type            zeroGradient;
    }
}


// ************************************************************************* //
