/*--------------------------------*- C++ -*----------------------------------*\
  =========                 |
  \\      /  F ield         | OpenFOAM: The Open Source CFD Toolbox
   \\    /   O peration     | Website:  https://openfoam.org
    \\  /    A nd           | Version:  10
     \\/     M anipulation  |
\*---------------------------------------------------------------------------*/
FoamFile
{
    format      ascii;
    class       volVectorField;
    location    "0.16";
    object      U;
}
// * * * * * * * * * * * * * * * * * * * * * * * * * * * * * * * * * * * * * //

dimensions      [0 1 -1 0 0 0 0];

internalField   nonuniform List<vector> 
4000
(
(0 0.018637098 0.47773175)
(0 0.02350933 0.50886051)
(0 0.008166238 0.50052524)
(0 0.0056140038 0.50033636)
(0 0.0042539816 0.50025746)
(0 0.0032542944 0.50016898)
(0 0.0025554628 0.50011968)
(0 0.0020539947 0.50009012)
(0 0.001676049 0.50006979)
(0 0.0013817814 0.50005537)
(0 0.0011468179 0.50004497)
(0 0.0009548186 0.50003731)
(0 0.00079452785 0.50003158)
(0 0.0006579687 0.50002724)
(0 0.00053931148 0.50002396)
(0 0.0004341741 0.50002148)
(0 0.00033916786 0.50001963)
(0 0.00025158935 0.5000183)
(0 0.00016920439 0.50001741)
(0 9.0089538e-05 0.50001691)
(0 1.2509994e-05 0.50001676)
(0 -6.5187998e-05 0.50001696)
(0 -0.00014466827 0.50001752)
(0 -0.00022769695 0.50001847)
(0 -0.00031625319 0.50001988)
(0 -0.00041265985 0.50002183)
(0 -0.00051975515 0.50002444)
(0 -0.00064113207 0.50002791)
(0 -0.00078148617 0.5000325)
(0 -0.00094714545 0.50003862)
(0 -0.0011469216 0.50004688)
(0 -0.0013934752 0.50005824)
(0 -0.0017055553 0.50007414)
(0 -0.0021135137 0.5000971)
(0 -0.0026732684 0.50013483)
(0 -0.0034669459 0.5002024)
(0 -0.0045593414 0.50027148)
(0 -0.0065836265 0.50043371)
(0 -0.017658064 0.50675387)
(0 -0.01358942 0.47975603)
(0 0.037431702 0.44797048)
(0 0.050953724 0.53232604)
(0 0.021967292 0.50804293)
(0 0.016133709 0.5035733)
(0 0.012414035 0.50242319)
(0 0.0095139113 0.50162297)
(0 0.0075186514 0.50115655)
(0 0.0060680479 0.50086583)
(0 0.0049629016 0.50066788)
(0 0.0040986759 0.50052886)
(0 0.0034064164 0.50042886)
(0 0.0028391715 0.50035533)
(0 0.0023645636 0.50030042)
(0 0.001959505 0.50025901)
(0 0.0016070313 0.50022764)
(0 0.0012943432 0.50020397)
(0 0.0010115117 0.50018636)
(0 0.00075059453 0.50017368)
(0 0.00050501311 0.50016516)
(0 0.00026909341 0.50016033)
(0 3.7710514e-05 0.5001589)
(0 -0.00019401971 0.50016081)
(0 -0.00043101136 0.50016617)
(0 -0.00067847946 0.50017529)
(0 -0.00094225939 0.50018872)
(0 -0.0012291854 0.50020729)
(0 -0.0015475867 0.50023225)
(0 -0.001907975 0.50026539)
(0 -0.0023240367 0.50030934)
(0 -0.0028141174 0.50036799)
(0 -0.0034035983 0.50044728)
(0 -0.0041288621 0.50055668)
(0 -0.005042996 0.50071129)
(0 -0.0062258741 0.50093669)
(0 -0.0078263857 0.50129453)
(0 -0.010120355 0.50191076)
(0 -0.013101999 0.50282552)
(0 -0.017421575 0.50608145)
(0 -0.038754619 0.52526793)
(0 -0.027892578 0.45021929)
(0 0.039886797 0.40982383)
(0 0.061424684 0.54930858)
(0 0.031980002 0.5218819)
(0 0.024352075 0.51008079)
(0 0.019190038 0.50658864)
(0 0.014973599 0.50452801)
(0 0.012003303 0.50327122)
(0 0.0097687188 0.50245811)
(0 0.0080336065 0.5019007)
(0 0.0066623124 0.50150825)
(0 0.0055546087 0.50122496)
(0 0.004640955 0.50101614)
(0 0.0038726066 0.50085993)
(0 0.0032141611 0.50074196)
(0 0.0026392773 0.50065253)
(0 0.0021278951 0.50058498)
(0 0.0016643302 0.50053469)
(0 0.0012359555 0.50049846)
(0 0.00083225629 0.50047413)
(0 0.00044412576 0.5004603)
(0 6.3314904e-05 0.50045622)
(0 -0.00031804581 0.50046168)
(0 -0.00070787336 0.50047699)
(0 -0.0011145553 0.50050304)
(0 -0.0015474453 0.50054139)
(0 -0.0020174467 0.50059441)
(0 -0.0025377669 0.50066561)
(0 -0.0031249478 0.50076005)
(0 -0.0038003289 0.50088513)
(0 -0.0045921596 0.50105178)
(0 -0.005538805 0.50127653)
(0 -0.0066942565 0.50158552)
(0 -0.0081357282 0.50202085)
(0 -0.009967326 0.50265095)
(0 -0.012361867 0.50361549)
(0 -0.015707355 0.50519984)
(0 -0.019864608 0.50785492)
(0 -0.025178263 0.51641266)
(0 -0.047409726 0.53912828)
(0 -0.030850463 0.41488766)
(0 0.034789757 0.36173649)
(0 0.063833955 0.55456524)
(0 0.039374514 0.53747117)
(0 0.030078131 0.51849287)
(0 0.024107211 0.51197743)
(0 0.019274245 0.50849931)
(0 0.015731015 0.50626389)
(0 0.012949331 0.50475488)
(0 0.010739231 0.50370367)
(0 0.0089640128 0.5029552)
(0 0.0075106354 0.50241)
(0 0.0062994255 0.50200558)
(0 0.0052725687 0.50170166)
(0 0.0043867985 0.50147133)
(0 0.0036092884 0.50129623)
(0 0.0029146448 0.50116367)
(0 0.0022827513 0.50106481)
(0 0.0016972367 0.50099351)
(0 0.0011443499 0.50094557)
(0 0.00061210002 0.50091831)
(0 8.957518e-05 0.50091025)
(0 -0.00043365666 0.50092098)
(0 -0.00096808864 0.50095114)
(0 -0.0015248026 0.50100243)
(0 -0.0021160898 0.50107784)
(0 -0.0027561687 0.50118197)
(0 -0.0034620905 0.50132151)
(0 -0.0042549458 0.50150615)
(0 -0.0051615274 0.50174989)
(0 -0.0062166284 0.50207321)
(0 -0.0074661314 0.50250658)
(0 -0.0089722827 0.50309701)
(0 -0.010822469 0.50391921)
(0 -0.013123276 0.50508957)
(0 -0.016010363 0.50680759)
(0 -0.019886344 0.50946869)
(0 -0.024719311 0.51427641)
(0 -0.03110073 0.5282475)
(0 -0.05030899 0.54407595)
(0 -0.028434195 0.37239538)
(0 0.02742222 0.31485372)
(0 0.062308385 0.55024524)
(0 0.044606141 0.55146745)
(0 0.033974528 0.52748823)
(0 0.027456562 0.51772257)
(0 0.022447739 0.51291956)
(0 0.018629623 0.50973078)
(0 0.015521382 0.50749163)
(0 0.013000034 0.50589861)
(0 0.010936734 0.50474528)
(0 0.0092200915 0.50389425)
(0 0.0077712413 0.50325705)
(0 0.0065301849 0.50277476)
(0 0.0054504841 0.50240719)
(0 0.0044960774 0.50212652)
(0 0.0036384854 0.50191332)
(0 0.0028547499 0.50175389)
(0 0.0021259175 0.50163865)
(0 0.0014358792 0.50156105)
(0 0.00077045987 0.50151687)
(0 0.00011667971 0.50150377)
(0 -0.00053790708 0.50152113)
(0 -0.0012058159 0.50156991)
(0 -0.0019002089 0.50165282)
(0 -0.0026355807 0.50177454)
(0 -0.0034285275 0.50194222)
(0 -0.0042986934 0.50216627)
(0 -0.0052699807 0.50246156)
(0 -0.0063721579 0.50284937)
(0 -0.0076430186 0.50336033)
(0 -0.0091308457 0.50403908)
(0 -0.010898095 0.50495218)
(0 -0.01303162 0.50620243)
(0 -0.015635254 0.50794474)
(0 -0.018796857 0.51040551)
(0 -0.022877968 0.51405674)
(0 -0.02816008 0.52114741)
(0 -0.035689197 0.53932733)
(0 -0.050462446 0.54156488)
(0 -0.024081368 0.33058236)
(0 0.01983575 0.27521301)
(0 0.057982032 0.53975528)
(0 0.047352635 0.56256497)
(0 0.036467404 0.53660424)
(0 0.0296262 0.52350716)
(0 0.024666352 0.51740284)
(0 0.020764819 0.51336197)
(0 0.017500918 0.51044296)
(0 0.014806138 0.50832216)
(0 0.012559526 0.50675932)
(0 0.010659545 0.5055899)
(0 0.0090341874 0.50470475)
(0 0.0076258204 0.50402896)
(0 0.0063885669 0.50351029)
(0 0.0052859513 0.50311205)
(0 0.0042884874 0.50280819)
(0 0.0033719294 0.50258017)
(0 0.0025159226 0.50241491)
(0 0.0017029251 0.5023034)
(0 0.00091733114 0.5022398)
(0 0.0001447447 0.5022209)
(0 -0.00062868626 0.50224579)
(0 -0.0014168868 0.50231584)
(0 -0.0022344312 0.50243477)
(0 -0.0030972354 0.50260903)
(0 -0.004023307 0.50284841)
(0 -0.0050336425 0.50316705)
(0 -0.0061533289 0.50358495)
(0 -0.0074129377 0.50413029)
(0 -0.0088504194 0.50484302)
(0 -0.010513063 0.50578013)
(0 -0.012459185 0.50702393)
(0 -0.014769019 0.50869758)
(0 -0.017544391 0.51098274)
(0 -0.020839306 0.51412181)
(0 -0.024950023 0.51873292)
(0 -0.030485594 0.52823198)
(0 -0.038605792 0.54872602)
(0 -0.048490949 0.53400279)
(0 -0.019061556 0.29397482)
(0 0.013080941 0.24257564)
(0 0.051789386 0.52521512)
(0 0.047695117 0.57024988)
(0 0.037743557 0.54552399)
(0 0.030837602 0.52928838)
(0 0.026061017 0.52180093)
(0 0.022225928 0.51699635)
(0 0.018942373 0.51347113)
(0 0.016183142 0.51086192)
(0 0.013840397 0.50890878)
(0 0.011827631 0.50742841)
(0 0.01008224 0.50629578)
(0 0.0085515839 0.50542313)
(0 0.007192895 0.50474834)
(0 0.0059713538 0.50422702)
(0 0.0048581224 0.50382727)
(0 0.0038289922 0.50352609)
(0 0.0028632705 0.50330714)
(0 0.0019428482 0.50315904)
(0 0.0010514196 0.50307441)
(0 0.0001738188 0.50304916)
(0 -0.00070460394 0.50308214)
(0 -0.0015985714 0.50317507)
(0 -0.0025234124 0.50333269)
(0 -0.0034957166 0.50356313)
(0 -0.0045340135 0.50387868)
(0 -0.0056595667 0.50429694)
(0 -0.0068973163 0.50484254)
(0 -0.0082769936 0.50554974)
(0 -0.0098346957 0.50646633)
(0 -0.011614645 0.50765947)
(0 -0.013669116 0.50922402)
(0 -0.016067633 0.51129795)
(0 -0.018905545 0.51408065)
(0 -0.022214269 0.51784102)
(0 -0.02623449 0.52347118)
(0 -0.031818425 0.53537705)
(0 -0.039728312 0.55590105)
(0 -0.044872591 0.52285388)
(0 -0.014084862 0.26269498)
(0 0.0077677806 0.21556803)
(0 0.044814922 0.50803219)
(0 0.046237756 0.57438445)
(0 0.038017939 0.55374961)
(0 0.031271659 0.53495975)
(0 0.026752625 0.52602918)
(0 0.02310155 0.52053622)
(0 0.019906535 0.51648497)
(0 0.017168998 0.51343742)
(0 0.014801685 0.51112553)
(0 0.01273615 0.5093536)
(0 0.010920322 0.50798434)
(0 0.0093082777 0.50692016)
(0 0.0078620262 0.50609113)
(0 0.006549801 0.50544665)
(0 0.005344622 0.50494989)
(0 0.0042233548 0.50457406)
(0 0.0031658439 0.50429991)
(0 0.0021541616 0.50411401)
(0 0.0011719578 0.50400754)
(0 0.00020389094 0.50397563)
(0 -0.00076491986 0.50401691)
(0 -0.0017494264 0.50413342)
(0 -0.0027651109 0.5043308)
(0 -0.0038285727 0.50461872)
(0 -0.0049581046 0.50501169)
(0 -0.0061743543 0.50553031)
(0 -0.0075010903 0.50620318)
(0 -0.0089660264 0.50706965)
(0 -0.010601989 0.50818386)
(0 -0.012448589 0.50962108)
(0 -0.014550991 0.51148635)
(0 -0.016965415 0.51392856)
(0 -0.019773583 0.51715651)
(0 -0.022991529 0.52148325)
(0 -0.026841443 0.52818638)
(0 -0.032312901 0.54222172)
(0 -0.039364838 0.56051063)
(0 -0.040303238 0.50913037)
(0 -0.0097018968 0.2359224)
(0 0.0040024929 0.19359018)
(0 0.037887113 0.48951897)
(0 0.043665609 0.57524728)
(0 0.037542097 0.56084273)
(0 0.03113398 0.54035954)
(0 0.026894765 0.53000973)
(0 0.023495418 0.52389885)
(0 0.020462698 0.51940827)
(0 0.017810566 0.51598225)
(0 0.015475007 0.51335223)
(0 0.013405679 0.51131636)
(0 0.011561207 0.50972881)
(0 0.0099034042 0.50848492)
(0 0.0084000095 0.50750903)
(0 0.0070231671 0.50674577)
(0 0.0057485782 0.50615443)
(0 0.0045549323 0.50570516)
(0 0.0034232816 0.50537634)
(0 0.0023364822 0.50515275)
(0 0.0012786885 0.50502441)
(0 0.00023489499 0.50498576)
(0 -0.00080951586 0.50503521)
(0 -0.001869229 0.50517511)
(0 -0.0029593643 0.50541188)
(0 -0.0040959772 0.50575647)
(0 -0.0052965149 0.50622525)
(0 -0.0065803317 0.50684133)
(0 -0.007969272 0.50763652)
(0 -0.0094882267 0.50865417)
(0 -0.01116583 0.50995335)
(0 -0.013035981 0.51161539)
(0 -0.015136237 0.51375295)
(0 -0.017509255 0.51652182)
(0 -0.020219257 0.52013311)
(0 -0.023274181 0.52496685)
(0 -0.026915384 0.53274366)
(0 -0.032155786 0.54839157)
(0 -0.037948486 0.56255888)
(0 -0.035386144 0.49385932)
(0 -0.0061939153 0.21333402)
(0 0.0015484894 0.17617481)
(0 0.031485584 0.47080541)
(0 0.040506835 0.57339819)
(0 0.036531869 0.56659564)
(0 0.030612166 0.54537561)
(0 0.026647732 0.5337021)
(0 0.02352008 0.5270283)
(0 0.020688703 0.5221827)
(0 0.018162959 0.51844394)
(0 0.015899316 0.51554229)
(0 0.013863328 0.51327558)
(0 0.01202353 0.5114932)
(0 0.010349597 0.51008611)
(0 0.0088152397 0.50897482)
(0 0.0073968971 0.50810062)
(0 0.0060734216 0.50741995)
(0 0.0048258055 0.50690068)
(0 0.0036367746 0.50651934)
(0 0.0024904161 0.50625935)
(0 0.0013718158 0.50610976)
(0 0.00026671575 0.50606445)
(0 -0.00083883445 0.50612168)
(0 -0.0019588476 0.50628405)
(0 -0.0031076674 0.50655858)
(0 -0.0043003742 0.50695726)
(0 -0.0055531178 0.50749795)
(0 -0.0068834846 0.50820567)
(0 -0.008310904 0.50911464)
(0 -0.0098569861 0.51027118)
(0 -0.01154578 0.51173785)
(0 -0.013405049 0.51359999)
(0 -0.015464903 0.51597509)
(0 -0.017755995 0.51902172)
(0 -0.020325357 0.52295096)
(0 -0.023180268 0.52823924)
(0 -0.026600165 0.53704339)
(0 -0.031508328 0.55365964)
(0 -0.035850213 0.56233306)
(0 -0.030520793 0.47798223)
(0 -0.0035838699 0.19471007)
(0 7.3956328e-05 0.16257456)
(0 0.025854548 0.45265834)
(0 0.037129622 0.56945301)
(0 0.035158155 0.570986)
(0 0.029846303 0.54995845)
(0 0.026144461 0.53711022)
(0 0.023277828 0.52990714)
(0 0.020660983 0.52477679)
(0 0.018283499 0.52078874)
(0 0.016116922 0.51766276)
(0 0.014139932 0.51520027)
(0 0.01232964 0.51324911)
(0 0.010662936 0.51169805)
(0 0.0091191685 0.5104654)
(0 0.0076790479 0.50949039)
(0 0.0063247292 0.50872766)
(0 0.0050397369 0.50814345)
(0 0.003808744 0.50771302)
(0 0.0026173638 0.50741878)
(0 0.0014519168 0.50724906)
(0 0.00029919676 0.50719733)
(0 -0.00085377414 0.50726174)
(0 -0.0020200299 0.50744505)
(0 -0.0032128324 0.50775475)
(0 -0.0044459811 0.50820363)
(0 -0.0057340308 0.50881059)
(0 -0.0070925234 0.50960203)
(0 -0.0085382329 0.51061383)
(0 -0.010089349 0.51189424)
(0 -0.011765403 0.513508)
(0 -0.013588232 0.51554275)
(0 -0.015581103 0.51811826)
(0 -0.017764682 0.52139276)
(0 -0.020171451 0.52558074)
(0 -0.022814957 0.53128613)
(0 -0.026011776 0.54103298)
(0 -0.030501073 0.55793537)
(0 -0.033363265 0.56022886)
(0 -0.025958872 0.46218832)
(0 -0.0017574535 0.17959083)
(0 -0.0007208874 0.15196612)
(0 0.02109012 0.43550975)
(0 0.033784263 0.56396099)
(0 0.033563944 0.57408687)
(0 0.028936969 0.55408739)
(0 0.025484404 0.54025827)
(0 0.022852207 0.53254581)
(0 0.020446414 0.52718252)
(0 0.01822512 0.52300056)
(0 0.016168841 0.51969402)
(0 0.014266816 0.51706958)
(0 0.012503245 0.51497582)
(0 0.010861194 0.51330086)
(0 0.0093249889 0.51196209)
(0 0.0078793042 0.5108977)
(0 0.006509497 0.51006134)
(0 0.0052016475 0.50941832)
(0 0.0039424831 0.50894306)
(0 0.0027193005 0.50861732)
(0 0.0015198404 0.50842895)
(0 0.00033214922 0.50837114)
(0 -0.00085557052 0.50844196)
(0 -0.0020551652 0.50864427)
(0 -0.0032786135 0.50898592)
(0 -0.0045382481 0.50948018)
(0 -0.0058468719 0.51014667)
(0 -0.007217877 0.51101264)
(0 -0.0086653545 0.51211497)
(0 -0.010204173 0.51350298)
(0 -0.011849703 0.51524251)
(0 -0.013618447 0.51742221)
(0 -0.015527615 0.52016223)
(0 -0.017589722 0.52361855)
(0 -0.019826346 0.52801684)
(0 -0.022263507 0.53411355)
(0 -0.025241032 0.54468147)
(0 -0.029249119 0.56120978)
(0 -0.030719109 0.556642)
(0 -0.021853839 0.44691612)
(0 -0.00055635098 0.16738922)
(0 -0.0010731177 0.14365229)
(0 0.017183118 0.41957404)
(0 0.030626296 0.55738175)
(0 0.031867084 0.57601968)
(0 0.02795814 0.55775481)
(0 0.024740986 0.54317201)
(0 0.022309572 0.53496696)
(0 0.02010055 0.52940574)
(0 0.018033515 0.52507533)
(0 0.016092026 0.52162661)
(0 0.014273418 0.51887095)
(0 0.012567492 0.51665923)
(0 0.010962345 0.51487991)
(0 0.0094464934 0.51345028)
(0 0.0080081102 0.51230832)
(0 0.0066354895 0.51140729)
(0 0.005317143 0.5107121)
(0 0.0040418296 0.51019675)
(0 0.0027985714 0.50984262)
(0 0.0015766129 0.50963731)
(0 0.00036536104 0.50957383)
(0 -0.00084568315 0.50965018)
(0 -0.0020670593 0.50986932)
(0 -0.0033093566 0.51023926)
(0 -0.0045833587 0.51077359)
(0 -0.0059000759 0.51149229)
(0 -0.007270779 0.51242307)
(0 -0.0087070011 0.51360322)
(0 -0.010220546 0.51508247)
(0 -0.011823116 0.51692697)
(0 -0.013526646 0.51922547)
(0 -0.0153432 0.52209717)
(0 -0.017278825 0.52569507)
(0 -0.019348225 0.53026615)
(0 -0.021594723 0.53673306)
(0 -0.024361035 0.54796878)
(0 -0.027854082 0.56352714)
(0 -0.028088217 0.55193466)
(0 -0.018279759 0.43243062)
(0 0.00017782572 0.15755938)
(0 -0.0011562877 0.13708182)
(0 0.014056023 0.40493181)
(0 0.02773571 0.55008997)
(0 0.030155542 0.57693219)
(0 0.026962125 0.56096725)
(0 0.023967075 0.54587533)
(0 0.021701693 0.53719749)
(0 0.019668486 0.53145951)
(0 0.017746933 0.52701624)
(0 0.0159185 0.52345787)
(0 0.014186137 0.52059792)
(0 0.012543813 0.51829044)
(0 0.010983541 0.51642485)
(0 0.0094972184 0.51491892)
(0 0.0080759823 0.51371091)
(0 0.0067107058 0.51275418)
(0 0.0053921144 0.51201358)
(0 0.0041108834 0.51146303)
(0 0.0028577142 0.51108379)
(0 0.0016233564 0.51086334)
(0 0.00039860619 0.51079461)
(0 -0.00082569492 0.51087558)
(0 -0.0020587378 0.51110923)
(0 -0.0033096953 0.51150367)
(0 -0.0045878036 0.51207257)
(0 -0.0059023302 0.51283605)
(0 -0.0072625464 0.51382189)
(0 -0.0086776512 0.51506744)
(0 -0.010156735 0.5166223)
(0 -0.011708386 0.51855241)
(0 -0.013340804 0.52094594)
(0 -0.0150619 0.52392025)
(0 -0.016872907 0.52762594)
(0 -0.018785536 0.53234225)
(0 -0.020863011 0.53915867)
(0 -0.023428855 0.5508885)
(0 -0.026398333 0.56497042)
(0 -0.02558173 0.54642517)
(0 -0.01524819 0.41888015)
(0 0.00058316371 0.14963873)
(0 -0.0010887271 0.13181508)
(0 0.011598174 0.39157464)
(0 0.02514028 0.54237972)
(0 0.028488049 0.57697896)
(0 0.025982214 0.56374445)
(0 0.023197902 0.54839101)
(0 0.021066972 0.53926576)
(0 0.019185566 0.53336116)
(0 0.017396507 0.52883118)
(0 0.015675235 0.52518985)
(0 0.014027893 0.52224848)
(0 0.012451339 0.51986458)
(0 0.010940497 0.51792891)
(0 0.0094898726 0.51636003)
(0 0.0080930115 0.51509677)
(0 0.0067429705 0.51409287)
(0 0.0054324198 0.51331344)
(0 0.0041537756 0.51273251)
(0 0.0028993114 0.51233141)
(0 0.0016612197 0.51209762)
(0 0.00043165358 0.51202407)
(0 -0.00079722516 0.51210874)
(0 -0.0020332785 0.5123546)
(0 -0.0032842986 0.51276974)
(0 -0.0045580404 0.5133678)
(0 -0.0058621416 0.51416882)
(0 -0.007204058 0.51520044)
(0 -0.0085909374 0.51649971)
(0 -0.010029558 0.51811582)
(0 -0.011525969 0.52011409)
(0 -0.013085451 0.52258174)
(0 -0.014712751 0.52563378)
(0 -0.016405883 0.52942019)
(0 -0.018176848 0.53426316)
(0 -0.020108842 0.54140686)
(0 -0.022485908 0.55344837)
(0 -0.024942824 0.56564455)
(0 -0.023262223 0.54037989)
(0 -0.012729443 0.40632695)
(0 0.00076874445 0.14323322)
(0 -0.00094687924 0.12750664)
(0 0.009690792 0.37943679)
(0 0.02283649 0.53447182)
(0 0.02689971 0.57630541)
(0 0.025037034 0.56611374)
(0 0.022454565 0.55073966)
(0 0.02043195 0.54119935)
(0 0.01867813 0.53513024)
(0 0.017006623 0.5305311)
(0 0.015384199 0.52682779)
(0 0.013817966 0.52382382)
(0 0.012306621 0.52137987)
(0 0.010847151 0.51938819)
(0 0.0094359776 0.51776819)
(0 0.0080685265 0.51645945)
(0 0.006739641 0.51541626)
(0 0.005443646 0.51460414)
(0 0.0041744913 0.5139974)
(0 0.0029258741 0.51357754)
(0 0.001691325 0.51333214)
(0 0.00046427542 0.5132542)
(0 -0.00076185891 0.51334168)
(0 -0.0019936778 0.51359752)
(0 -0.003237675 0.51402974)
(0 -0.0045002346 0.51465183)
(0 -0.0057875208 0.51548363)
(0 -0.0071053932 0.51655242)
(0 -0.0084592569 0.51789483)
(0 -0.009853993 0.51955938)
(0 -0.011293662 0.52161062)
(0 -0.012781368 0.52413458)
(0 -0.014319588 0.52724386)
(0 -0.015904582 0.53109061)
(0 -0.017551131 0.53604914)
(0 -0.019360225 0.54349505)
(0 -0.021560097 0.55566596)
(0 -0.023529447 0.56566)
(0 -0.021157647 0.53401085)
(0 -0.010670962 0.39477098)
(0 0.00081487383 0.13800972)
(0 -0.00077823829 0.12389557)
(0 0.0082212248 0.3684217)
(0 0.020804008 0.52652619)
(0 0.025408333 0.57503975)
(0 0.024135261 0.56810484)
(0 0.021748075 0.55293819)
(0 0.019813645 0.54302282)
(0 0.018164828 0.53678642)
(0 0.016595633 0.53212841)
(0 0.015062669 0.52837889)
(0 0.013572066 0.52532735)
(0 0.012123553 0.52283679)
(0 0.010715506 0.52080094)
(0 0.0093456703 0.51914005)
(0 0.0080108876 0.51779443)
(0 0.0067074151 0.51671901)
(0 0.0054309457 0.51587978)
(0 0.0041767429 0.51525142)
(0 0.0029397584 0.51481567)
(0 0.0017147287 0.51456028)
(0 0.00049625457 0.51447831)
(0 -0.00072109307 0.51456777)
(0 -0.0019427512 0.51483153)
(0 -0.0031740284 0.51527746)
(0 -0.0044200773 0.51591889)
(0 -0.0056857675 0.5167753)
(0 -0.0069755959 0.51787359)
(0 -0.0082935329 0.51924979)
(0 -0.0096429581 0.52095174)
(0 -0.011026441 0.5230431)
(0 -0.012445538 0.52560868)
(0 -0.013901221 0.52875897)
(0 -0.015389289 0.53265177)
(0 -0.016928994 0.53772029)
(0 -0.018635223 0.5454396)
(0 -0.020668825 0.55756382)
(0 -0.022184636 0.56512218)
(0 -0.019273002 0.52748063)
(0 -0.0090099442 0.38417225)
(0 0.0007780586 0.13369613)
(0 -0.00061079496 0.12079178)
(0 0.0070902865 0.35842089)
(0 0.019014754 0.51865547)
(0 0.024019693 0.57329137)
(0 0.023279228 0.56974727)
(0 0.02108274 0.55499943)
(0 0.019222003 0.54475648)
(0 0.01765824 0.5383479)
(0 0.016176854 0.5336356)
(0 0.014723798 0.52985117)
(0 0.013302623 0.5267637)
(0 0.011913482 0.5242373)
(0 0.010555617 0.52216703)
(0 0.0092276328 0.52047387)
(0 0.0079273875 0.51909876)
(0 0.0066522246 0.51799725)
(0 0.0053989385 0.51713584)
(0 0.0041638905 0.51648959)
(0 0.0029431111 0.51604053)
(0 0.0017323966 0.51577661)
(0 0.00052739092 0.51569098)
(0 -0.00067629861 0.51578165)
(0 -0.0018830655 0.51605144)
(0 -0.0030971645 0.51650808)
(0 -0.0043226698 0.51716463)
(0 -0.0055633436 0.51804023)
(0 -0.0068225503 0.51916131)
(0 -0.0081031141 0.5205633)
(0 -0.0094072691 0.52229334)
(0 -0.010736522 0.52441428)
(0 -0.012091393 0.52700973)
(0 -0.013471975 0.53018869)
(0 -0.014874711 0.53411838)
(0 -0.016324276 0.53929493)
(0 -0.017944436 0.54725473)
(0 -0.019821648 0.55916656)
(0 -0.020922722 0.56412633)
(0 -0.017598941 0.52091054)
(0 -0.0076816581 0.37446843)
(0 0.00069671804 0.13007737)
(0 -0.00045947415 0.11806018)
(0 0.006215399 0.34932527)
(0 0.017438534 0.51093669)
(0 0.022731804 0.57115206)
(0 0.02246744 0.5710692)
(0 0.020458576 0.55693273)
(0 0.018661913 0.54641632)
(0 0.017166342 0.53983072)
(0 0.015759599 0.53506445)
(0 0.01437731 0.53125268)
(0 0.013019218 0.52813808)
(0 0.011685446 0.52558428)
(0 0.010375716 0.52348743)
(0 0.009089126 0.52176906)
(0 0.0078242366 0.52037066)
(0 0.0065791969 0.51924831)
(0 0.0053516654 0.51836897)
(0 0.0041389002 0.5177081)
(0 0.0029378395 0.51724801)
(0 0.0017451908 0.51697684)
(0 0.00055750643 0.51688786)
(0 -0.00062869685 0.51697908)
(0 -0.0018168981 0.51725325)
(0 -0.0030104372 0.51771794)
(0 -0.0042124658 0.51838595)
(0 -0.005425821 0.51927606)
(0 -0.006652951 0.52041422)
(0 -0.0078957919 0.52183531)
(0 -0.0091557387 0.52358582)
(0 -0.010433586 0.52572788)
(0 -0.01172923 0.52834408)
(0 -0.013042369 0.53154274)
(0 -0.014370986 0.53550433)
(0 -0.015745511 0.54078885)
(0 -0.017292997 0.54895243)
(0 -0.019022405 0.56049908)
(0 -0.019749021 0.56275575)
(0 -0.016118089 0.51438882)
(0 -0.0066248795 0.36558668)
(0 0.00059603841 0.12698719)
(0 -0.00033074417 0.11560668)
(0 0.0055308278 0.34103146)
(0 0.016046344 0.50342052)
(0 0.021538282 0.56869805)
(0 0.02169637 0.57209693)
(0 0.019873011 0.55874467)
(0 0.018134772 0.54801438)
(0 0.01669372 0.54124849)
(0 0.015350089 0.53642563)
(0 0.014030168 0.53259106)
(0 0.01272905 0.52945576)
(0 0.011446484 0.52688102)
(0 0.010182388 0.52476376)
(0 0.0089360926 0.52302589)
(0 0.0077066111 0.52160931)
(0 0.0064926686 0.52047049)
(0 0.0052925845 0.51957684)
(0 0.0041043336 0.51890413)
(0 0.002925602 0.51843497)
(0 0.0017538645 0.51815767)
(0 0.00058644847 0.5180656)
(0 -0.00057934821 0.51815679)
(0 -0.0017462203 0.51843392)
(0 -0.0029167309 0.51890438)
(0 -0.0040932596 0.51958073)
(0 -0.0052778887 0.5204814)
(0 -0.0064723443 0.52163192)
(0 -0.0076778977 0.52306665)
(0 -0.008895359 0.52483153)
(0 -0.01012509 0.52698813)
(0 -0.011366673 0.52961819)
(0 -0.012619785 0.53283044)
(0 -0.013884626 0.53682213)
(0 -0.015197193 0.5422152)
(0 -0.016682168 0.55054253)
(0 -0.018271012 0.56158535)
(0 -0.018662667 0.56108155)
(0 -0.014809512 0.50797772)
(0 -0.0057850064 0.35745105)
(0 0.00049177649 0.12429918)
(0 -0.00022593782 0.11336698)
(0 0.0049860902 0.333445)
(0 0.014812022 0.4961385)
(0 0.020430766 0.56599232)
(0 0.020961716 0.57285463)
(0 0.01932213 0.56043968)
(0 0.017639718 0.54955928)
(0 0.016242539 0.5426124)
(0 0.014952199 0.53772849)
(0 0.01368716 0.53387329)
(0 0.012437371 0.53072181)
(0 0.011201946 0.52813096)
(0 0.0099807923 0.52599805)
(0 0.0087732967 0.52424521)
(0 0.007578738 0.52281454)
(0 0.0063962343 0.52166286)
(0 0.0052245962 0.52075788)
(0 0.0040623587 0.52007568)
(0 0.0029078119 0.5195991)
(0 0.0017590643 0.51931662)
(0 0.0006140928 0.5192217)
(0 -0.00052914959 0.51931237)
(0 -0.0016726984 0.51959125)
(0 -0.0028184687 0.52006558)
(0 -0.0039682086 0.52074768)
(0 -0.0051233996 0.52165566)
(0 -0.0062852144 0.52281469)
(0 -0.0074544458 0.52425869)
(0 -0.0086315221 0.5260332)
(0 -0.009816585 0.52819934)
(0 -0.011009131 0.5308383)
(0 -0.012209094 0.53406036)
(0 -0.013419343 0.53808266)
(0 -0.014680874 0.54358447)
(0 -0.016110642 0.5520328)
(0 -0.017564939 0.56244768)
(0 -0.017658989 0.55916338)
(0 -0.013651608 0.50171961)
(0 -0.0051153712 0.3499872)
(0 0.00039315018 0.12191882)
(0 -0.00014352466 0.11129788)
(0 0.004543527 0.32648183)
(0 0.013712823 0.48910862)
(0 0.019400467 0.56308701)
(0 0.020259185 0.57336439)
(0 0.018801522 0.5620206)
(0 0.017174561 0.55105682)
(0 0.015813322 0.54393145)
(0 0.014568095 0.53898104)
(0 0.013351408 0.5351056)
(0 0.012147883 0.53194094)
(0 0.010955789 0.52933749)
(0 0.0097748776 0.52719252)
(0 0.0086044782 0.52542819)
(0 0.0074440014 0.52398669)
(0 0.0062928162 0.52282504)
(0 0.0051500869 0.52191116)
(0 0.0040147764 0.5212214)
(0 0.002885653 0.52073878)
(0 0.0017613378 0.52045191)
(0 0.00064034198 0.52035434)
(0 -0.00047884206 0.5204441)
(0 -0.0015977068 0.52072375)
(0 -0.0027176382 0.52120038)
(0 -0.0038398793 0.5218861)
(0 -0.0049654442 0.5227988)
(0 -0.0060950948 0.52396327)
(0 -0.0072292968 0.52541317)
(0 -0.0083682538 0.5271937)
(0 -0.0095120394 0.52936573)
(0 -0.010660231 0.53201017)
(0 -0.011813216 0.53524012)
(0 -0.012976785 0.5392951)
(0 -0.014196078 0.5449047)
(0 -0.015575549 0.55342924)
(0 -0.016900309 0.56310633)
(0 -0.016731246 0.55705088)
(0 -0.012623836 0.4956421)
(0 -0.0045774269 0.34312525)
(0 0.00030499782 0.11977658)
(0 -8.0590848e-05 0.10937047)
(0 0.0041757164 0.32006843)
(0 0.012729399 0.48233952)
(0 0.018439044 0.56002547)
(0 0.019584897 0.57364647)
(0 0.018306811 0.56348929)
(0 0.016736442 0.55251048)
(0 0.01540553 0.54521259)
(0 0.014198735 0.54019002)
(0 0.013024793 0.53629339)
(0 0.011863087 0.53311736)
(0 0.010710853 0.5305038)
(0 0.0095675906 0.52834939)
(0 0.0084325088 0.52657623)
(0 0.0073050553 0.52512643)
(0 0.0061847438 0.52395708)
(0 0.0050709833 0.52303627)
(0 0.0039630556 0.5223405)
(0 0.0028600992 0.52185295)
(0 0.0017611424 0.52156236)
(0 0.00066512615 0.5214623)
(0 -0.00042902052 0.52155084)
(0 -0.0015223516 0.52183046)
(0 -0.0026158311 0.52230813)
(0 -0.003710306 0.52299582)
(0 -0.0048064372 0.52391116)
(0 -0.0059046927 0.52507874)
(0 -0.00700533 0.52653195)
(0 -0.0081084449 0.52831587)
(0 -0.009214147 0.53049121)
(0 -0.010322208 0.53313896)
(0 -0.01143361 0.53637629)
(0 -0.012557145 0.54046691)
(0 -0.013741035 0.54618174)
(0 -0.015073193 0.55473636)
(0 -0.01627267 0.56357957)
(0 -0.015871843 0.5547851)
(0 -0.011707605 0.48976211)
(0 -0.0041402328 0.33680141)
(0 0.00022930808 0.11782213)
(0 -3.3763469e-05 0.10756533)
(0 0.0038630829 0.3141413)
(0 0.011845493 0.47583351)
(0 0.017539021 0.55684402)
(0 0.018935547 0.57371959)
(0 0.017833954 0.56484703)
(0 0.016322262 0.55392207)
(0 0.015017987 0.54646109)
(0 0.013844251 0.541361)
(0 0.012708301 0.5374413)
(0 0.011584566 0.53425481)
(0 0.010469095 0.5316328)
(0 0.0093610669 0.52947084)
(0 0.0082595395 0.5276908)
(0 0.0071639357 0.52623461)
(0 0.0060738364 0.52505933)
(0 0.0049888117 0.52413312)
(0 0.003908373 0.52343259)
(0 0.0028319394 0.52294102)
(0 0.0017588553 0.52264723)
(0 0.00068840118 0.52254484)
(0 -0.00038014806 0.52263192)
(0 -0.0014474996 0.52291088)
(0 -0.0025142881 0.52338862)
(0 -0.0035810579 0.52407696)
(0 -0.0046482109 0.52499337)
(0 -0.0057160149 0.52616228)
(0 -0.0067846098 0.52761695)
(0 -0.0078540676 0.52940239)
(0 -0.0089245995 0.53157932)
(0 -0.0099962448 0.53422917)
(0 -0.011070684 0.53747441)
(0 -0.012159633 0.54160401)
(0 -0.013313216 0.54741962)
(0 -0.014599563 0.5559575)
(0 -0.015677502 0.56388377)
(0 -0.015073137 0.55240009)
(0 -0.01088663 0.48408887)
(0 -0.0037795442 0.33095853)
(0 0.00016628816 0.11601945)
(0 2.4786776e-07 0.105869)
(0 0.0035918573 0.30864593)
(0 0.011047521 0.46958868)
(0 0.016693927 0.55357332)
(0 0.018308427 0.5736012)
(0 0.017379374 0.56609497)
(0 0.015928951 0.5552921)
(0 0.014649159 0.5476808)
(0 0.013504235 0.54249853)
(0 0.012402283 0.53855325)
(0 0.011313225 0.53535652)
(0 0.010231793 0.53272711)
(0 0.0091567967 0.5305589)
(0 0.0080871347 0.52877338)
(0 0.0070221656 0.52731223)
(0 0.0059614836 0.52613236)
(0 0.0049047559 0.52520193)
(0 0.0038516534 0.52449761)
(0 0.0028018016 0.52400273)
(0 0.001754785 0.52370617)
(0 0.00071014581 0.52360158)
(0 -0.00033257242 0.52368701)
(0 -0.001373809 0.52396484)
(0 -0.0024139474 0.52444191)
(0 -0.0034533071 0.52512992)
(0 -0.0044921075 0.52604624)
(0 -0.0055304892 0.52721519)
(0 -0.0065685415 0.52866999)
(0 -0.0076063694 0.5304557)
(0 -0.0086443229 0.53263319)
(0 -0.0096827542 0.53528466)
(0 -0.010724109 0.53853909)
(0 -0.011782841 0.54271095)
(0 -0.012909722 0.5486209)
(0 -0.014150668 0.55709515)
(0 -0.015110542 0.56403367)
(0 -0.014327921 0.54992411)
(0 -0.010146942 0.47862625)
(0 -0.0034767424 0.32554616)
(0 0.00011510805 0.11434291)
(0 2.4372113e-05 0.10427172)
(0 0.0033524381 0.30353574)
(0 0.010324134 0.46360041)
(0 0.015898252 0.55023944)
(0 0.017701364 0.57330765)
(0 0.016940008 0.56723428)
(0 0.015553613 0.55662025)
(0 0.014297351 0.54887439)
(0 0.013177939 0.54360628)
(0 0.012106649 0.53963256)
(0 0.011049469 0.53642527)
(0 0.0099997064 0.53378906)
(0 0.0089557654 0.53161544)
(0 0.0079163892 0.52982542)
(0 0.0068808501 0.52836032)
(0 0.0058487192 0.52717685)
(0 0.0048197137 0.5262431)
(0 0.003793609 0.52553572)
(0 0.0027701774 0.52503809)
(0 0.0017491808 0.5247391)
(0 0.00073035851 0.52463241)
(0 -0.00028654279 0.52471608)
(0 -0.0013017604 0.52499244)
(0 -0.0023154915 0.52546829)
(0 -0.0033278943 0.52615524)
(0 -0.0043390662 0.52707063)
(0 -0.0053490755 0.52823873)
(0 -0.0063580083 0.52969278)
(0 -0.0073660394 0.531478)
(0 -0.0083736739 0.53365551)
(0 -0.0093816012 0.53630867)
(0 -0.010393078 0.53957401)
(0 -0.011425011 0.54379108)
(0 -0.012527557 0.54978699)
(0 -0.013722748 0.55815125)
(0 -0.014567945 0.56404262)
(0 -0.013629684 0.54738081)
(0 -0.0094767258 0.47337451)
(0 -0.0032177679 0.32052024)
(0 7.4407423e-05 0.11277437)
(0 4.1068776e-05 0.10276596)
(0 0.0031381375 0.29877095)
(0 0.00966581 0.45786238)
(0 0.015147333 0.54686466)
(0 0.017112624 0.57285434)
(0 0.016513279 0.56826639)
(0 0.015193604 0.55790564)
(0 0.013960824 0.55004365)
(0 0.012864414 0.54468717)
(0 0.011821021 0.540682)
(0 0.010793351 0.53746347)