/*--------------------------------*- C++ -*----------------------------------*\
  =========                 |
  \\      /  F ield         | OpenFOAM: The Open Source CFD Toolbox
   \\    /   O peration     | Website:  https://openfoam.org
    \\  /    A nd           | Version:  10
     \\/     M anipulation  |
\*---------------------------------------------------------------------------*/
FoamFile
{
    format      ascii;
    class       volVectorField;
    location    "0.16";
    object      U_0;
}
// * * * * * * * * * * * * * * * * * * * * * * * * * * * * * * * * * * * * * //

dimensions      [0 1 -1 0 0 0 0];

internalField   nonuniform List<vector> 
4000
(
(0 0.018637081 0.47773175)
(0 0.023509296 0.50886051)
(0 0.008166207 0.50052524)
(0 0.0056139728 0.50033636)
(0 0.0042539483 0.50025746)
(0 0.0032542602 0.50016898)
(0 0.002555429 0.50011968)
(0 0.002053962 0.50009012)
(0 0.0016760181 0.50006979)
(0 0.001381753 0.50005537)
(0 0.0011467926 0.50004497)
(0 0.00095479675 0.50003731)
(0 0.00079450999 0.50003157)
(0 0.00065795525 0.50002724)
(0 0.00053930279 0.50002396)
(0 0.00043417049 0.50002148)
(0 0.00033916958 0.50001963)
(0 0.00025159659 0.5000183)
(0 0.00016921728 0.50001741)
(0 9.010818e-05 0.5000169)
(0 1.2534392e-05 0.50001675)
(0 -6.5157875e-05 0.50001695)
(0 -0.00014463254 0.50001752)
(0 -0.00022765573 0.50001847)
(0 -0.00031620676 0.50001988)
(0 -0.00041260846 0.50002183)
(0 -0.00051969917 0.50002444)
(0 -0.00064107194 0.50002791)
(0 -0.00078142241 0.5000325)
(0 -0.00094707864 0.50003862)
(0 -0.0011468524 0.50004688)
(0 -0.0013934044 0.50005824)
(0 -0.0017054839 0.50007414)
(0 -0.0021134425 0.5000971)
(0 -0.0026731988 0.50013483)
(0 -0.0034668797 0.5002024)
(0 -0.0045592811 0.50027149)
(0 -0.0065835695 0.50043371)
(0 -0.017658007 0.50675386)
(0 -0.013589391 0.47975605)
(0 0.037431653 0.44797054)
(0 0.050953623 0.53232603)
(0 0.02196719 0.50804293)
(0 0.016133611 0.50357331)
(0 0.01241393 0.50242319)
(0 0.0095138041 0.50162297)
(0 0.0075185455 0.50115655)
(0 0.0060679456 0.50086583)
(0 0.004962805 0.50066787)
(0 0.004098587 0.50052885)
(0 0.0034063369 0.50042885)
(0 0.0028391029 0.50035532)
(0 0.0023645075 0.50030041)
(0 0.0019594625 0.500259)
(0 0.0016070036 0.50022763)
(0 0.0012943313 0.50020396)
(0 0.0010115163 0.50018635)
(0 0.00075061626 0.50017366)
(0 0.00050505239 0.50016515)
(0 0.00026915051 0.50016032)
(0 3.7785504e-05 0.50015889)
(0 -0.00019392693 0.5001608)
(0 -0.00043090113 0.50016616)
(0 -0.00067835225 0.50017528)
(0 -0.00094211587 0.50018871)
(0 -0.0012290265 0.50020728)
(0 -0.0015474135 0.50023224)
(0 -0.0019077889 0.50026539)
(0 -0.0023238392 0.50030934)
(0 -0.0028139103 0.50036798)
(0 -0.0034033837 0.50044727)
(0 -0.0041286425 0.50055668)
(0 -0.0050427739 0.50071129)
(0 -0.0062256529 0.50093669)
(0 -0.0078261687 0.50129453)
(0 -0.010120147 0.50191077)
(0 -0.013101809 0.50282554)
(0 -0.01742139 0.50608146)
(0 -0.038754444 0.52526792)
(0 -0.027892494 0.4502194)
(0 0.039886724 0.40982399)
(0 0.061424512 0.5493086)
(0 0.031979813 0.5218819)
(0 0.0243519 0.5100808)
(0 0.019189852 0.50658865)
(0 0.01497341 0.50452801)
(0 0.012003117 0.50327122)
(0 0.0097685395 0.5024581)
(0 0.0080334372 0.50190069)
(0 0.0066621564 0.50150823)
(0 0.005554469 0.50122494)
(0 0.0046408343 0.50101611)
(0 0.0038725075 0.5008599)
(0 0.0032140856 0.50074193)
(0 0.0026392275 0.5006525)
(0 0.0021278724 0.50058495)
(0 0.0016643361 0.50053466)
(0 0.0012359909 0.50049843)
(0 0.00083232202 0.50047409)
(0 0.00044422227 0.50046027)
(0 6.344232e-05 0.50045619)
(0 -0.00031788765 0.50046164)
(0 -0.00070768496 0.50047695)
(0 -0.0011143375 0.50050301)
(0 -0.0015471993 0.50054136)
(0 -0.002017174 0.50059438)
(0 -0.0025374693 0.50066558)
(0 -0.0031246276 0.50076002)
(0 -0.0037999888 0.50088511)
(0 -0.0045918026 0.50105177)
(0 -0.0055384348 0.50127652)
(0 -0.006693877 0.50158551)
(0 -0.008135344 0.50202085)
(0 -0.0099669425 0.50265095)
(0 -0.01236149 0.5036155)
(0 -0.015706992 0.50519987)
(0 -0.019864274 0.50785496)
(0 -0.025177925 0.51641268)
(0 -0.047409422 0.53912832)
(0 -0.030850331 0.41488796)
(0 0.034789666 0.36173681)
(0 0.063833708 0.55456533)
(0 0.039374218 0.53747116)
(0 0.030077864 0.51849289)
(0 0.024106933 0.51197744)
(0 0.019273965 0.50849931)
(0 0.01573074 0.50626388)
(0 0.012949065 0.50475486)
(0 0.01073898 0.50370364)
(0 0.0089637815 0.50295517)
(0 0.0075104281 0.50240996)
(0 0.006299246 0.50200553)
(0 0.0052724206 0.50170161)
(0 0.0043866849 0.50147127)
(0 0.0036092121 0.50129616)
(0 0.0029146082 0.5011636)
(0 0.0022827562 0.50106475)
(0 0.0016972847 0.50099344)
(0 0.0011444421 0.5009455)
(0 0.00061223698 0.50091823)
(0 8.9757205e-05 0.50091017)
(0 -0.00043342981 0.50092091)
(0 -0.00096781766 0.50095107)
(0 -0.0015244886 0.50100236)
(0 -0.0021157346 0.50107778)
(0 -0.0027557742 0.5011819)
(0 -0.0034616595 0.50132145)
(0 -0.0042544816 0.5015061)
(0 -0.0051610338 0.50174985)
(0 -0.0062161097 0.50207317)
(0 -0.0074655925 0.50250656)
(0 -0.0089717294 0.50309699)
(0 -0.010821908 0.50391921)
(0 -0.013122715 0.50508958)
(0 -0.016009809 0.50680761)
(0 -0.019885807 0.50946874)
(0 -0.024718809 0.51427647)
(0 -0.031100206 0.52824752)
(0 -0.050308546 0.54407611)
(0 -0.028434022 0.37239597)
(0 0.02742212 0.31485424)
(0 0.062308063 0.55024547)
(0 0.044605721 0.55146744)
(0 0.033974149 0.52748824)
(0 0.027456179 0.51772259)
(0 0.022447355 0.51291956)
(0 0.018629245 0.50973076)
(0 0.015521018 0.50749159)
(0 0.01299969 0.50589856)
(0 0.010936417 0.50474522)
(0 0.0092198071 0.50389418)
(0 0.0077709945 0.50325696)
(0 0.0065299804 0.50277467)
(0 0.0054503261 0.50240709)
(0 0.0044959694 0.50212641)
(0 0.0036384306 0.5019132)
(0 0.002854751 0.50175377)
(0 0.0021259763 0.50163853)
(0 0.0014359974 0.50156093)
(0 0.00077063826 0.50151674)
(0 0.00011691863 0.50150365)
(0 -0.0005376079 0.501521)
(0 -0.0012054573 0.50156979)
(0 -0.0018997925 0.5016527)
(0 -0.0026351085 0.50177443)
(0 -0.0034280024 0.50194212)
(0 -0.0042981188 0.50216617)
(0 -0.0052693608 0.50246148)
(0 -0.0063714976 0.50284929)
(0 -0.0076423237 0.50336026)
(0 -0.0091301227 0.50403904)
(0 -0.010897351 0.50495215)
(0 -0.013030864 0.50620242)
(0 -0.015634495 0.50794475)
(0 -0.018796105 0.51040555)
(0 -0.022877235 0.51405681)
(0 -0.028159379 0.52114748)
(0 -0.035688451 0.53932735)
(0 -0.050461855 0.54156527)
(0 -0.024081162 0.33058333)
(0 0.019835645 0.27521377)
(0 0.057981638 0.53975571)
(0 0.047352076 0.56256499)
(0 0.036466889 0.53660423)
(0 0.029625695 0.52350718)
(0 0.024665848 0.51740284)
(0 0.020764324 0.51336193)
(0 0.017500441 0.51044291)
(0 0.014805689 0.50832208)
(0 0.012559111 0.50675923)
(0 0.010659172 0.50558978)
(0 0.0090338632 0.50470462)
(0 0.0076255506 0.50402881)
(0 0.0063883568 0.50351014)
(0 0.0052858054 0.50311189)
(0 0.0042884097 0.50280801)
(0 0.003371923 0.50257999)
(0 0.0025159903 0.50241472)
(0 0.0017030688 0.50230321)
(0 0.00091755185 0.50223961)
(0 0.00014504295 0.5022207)
(0 -0.00062831076 0.5022456)
(0 -0.0014164351 0.50231565)
(0 -0.0022339051 0.50243459)
(0 -0.0030966375 0.50260886)
(0 -0.0040226408 0.50284825)
(0 -0.0050329123 0.5031669)
(0 -0.0061525398 0.50358482)
(0 -0.0074120959 0.50413018)
(0 -0.0088495319 0.50484292)
(0 -0.010512138 0.50578006)
(0 -0.012458232 0.50702388)
(0 -0.014768047 0.50869756)
(0 -0.017543412 0.51098275)
(0 -0.020838333 0.51412187)
(0 -0.024949068 0.51873301)
(0 -0.030484658 0.52823205)
(0 -0.038604795 0.54872608)
(0 -0.048490208 0.53400352)
(0 -0.019061328 0.29397624)
(0 0.013080833 0.24257666)
(0 0.051788923 0.52521584)
(0 0.047694406 0.57024996)
(0 0.037742882 0.54552396)
(0 0.030836955 0.52928839)
(0 0.026060375 0.52180092)
(0 0.022225299 0.5169963)
(0 0.018941768 0.51347105)
(0 0.016182572 0.51086181)
(0 0.013839871 0.50890865)
(0 0.011827157 0.50742825)
(0 0.010081827 0.50629559)
(0 0.0085512385 0.50542292)
(0 0.0071926238 0.50474811)
(0 0.0059711625 0.50422678)
(0 0.0048580157 0.50382701)
(0 0.0038289742 0.50352583)
(0 0.0028633444 0.50330686)
(0 0.0019430163 0.50315876)
(0 0.0010516834 0.50307413)
(0 0.00017417893 0.50304887)
(0 -0.00070414777 0.50308186)
(0 -0.0015980204 0.5031748)
(0 -0.0025227687 0.50333243)
(0 -0.0034949832 0.50356288)
(0 -0.0045331946 0.50387844)
(0 -0.0056586674 0.50429672)
(0 -0.0068963428 0.50484234)
(0 -0.0082759531 0.50554956)
(0 -0.0098335968 0.50646618)
(0 -0.011613497 0.50765936)
(0 -0.01366793 0.50922394)
(0 -0.016066421 0.51129791)
(0 -0.01890432 0.51408067)
(0 -0.022213047 0.51784109)
(0 -0.026233284 0.52347129)
(0 -0.031817213 0.5353771)
(0 -0.039727041 0.55590119)
(0 -0.044871701 0.52285508)
(0 -0.014084616 0.26269693)
(0 0.0077676687 0.21556935)
(0 0.044814391 0.50803328)
(0 0.046236881 0.57438464)
(0 0.038017075 0.55374955)
(0 0.031270844 0.53495973)
(0 0.026751825 0.52602915)
(0 0.023100766 0.52053615)
(0 0.019905782 0.51648486)
(0 0.017168289 0.51343726)
(0 0.01480103 0.51112534)
(0 0.01273556 0.50935337)
(0 0.010919806 0.50798409)
(0 0.0093078447 0.50691987)
(0 0.0078616836 0.50609082)
(0 0.0065495556 0.50544632)
(0 0.0053444796 0.50494954)
(0 0.0042233201 0.50457369)
(0 0.0031659208 0.50429954)
(0 0.0021543529 0.50411363)
(0 0.0011722654 0.50400716)
(0 0.00020431559 0.50397525)
(0 -0.00076437836 0.50401652)
(0 -0.0017487694 0.50413304)
(0 -0.0027643407 0.50433044)
(0 -0.0038276931 0.50461837)
(0 -0.0049571201 0.50501136)
(0 -0.006173271 0.50553)
(0 -0.0074999153 0.50620291)
(0 -0.0089647682 0.5070694)
(0 -0.010600657 0.50818366)
(0 -0.012447195 0.50962092)
(0 -0.014549548 0.51148623)
(0 -0.016963936 0.5139285)
(0 -0.019772084 0.51715651)
(0 -0.022990029 0.52148333)
(0 -0.026839948 0.52818648)
(0 -0.032311372 0.54222174)
(0 -0.039363269 0.56051093)
(0 -0.040302201 0.50913219)
(0 -0.0097016364 0.23592495)
(0 0.0040023765 0.19359182)
(0 0.037886513 0.48952053)
(0 0.043664559 0.57524765)
(0 0.037541016 0.56084264)
(0 0.031132967 0.54035949)
(0 0.026893782 0.5300097)
(0 0.023494458 0.52389876)
(0 0.020461776 0.51940812)
(0 0.017809697 0.51598205)
(0 0.015474205 0.51335197)
(0 0.013404956 0.51131606)
(0 0.011560573 0.50972847)
(0 0.0099028699 0.50848454)
(0 0.0083995837 0.50750862)
(0 0.0070228577 0.50674533)
(0 0.0057483919 0.50615397)
(0 0.0045548749 0.50570468)
(0 0.0034233575 0.50537584)
(0 0.002336695 0.50515224)
(0 0.0012790403 0.5050239)
(0 0.00023538688 0.50498524)
(0 -0.00080888406 0.5050347)
(0 -0.0018684587 0.50517461)
(0 -0.0029584582 0.50541139)
(0 -0.0040949393 0.505756)
(0 -0.0052953506 0.50622481)
(0 -0.0065790476 0.50684092)
(0 -0.0079678765 0.50763615)
(0 -0.0094867294 0.50865384)
(0 -0.011164242 0.50995307)
(0 -0.013034315 0.51161516)
(0 -0.015134508 0.51375279)
(0 -0.017507478 0.51652173)
(0 -0.020217451 0.52013309)
(0 -0.023272368 0.52496693)
(0 -0.02691356 0.53274374)
(0 -0.032153896 0.54839155)
(0 -0.037946599 0.56255943)
(0 -0.035384961 0.49386192)
(0 -0.0061936401 0.21333725)
(0 0.0015483676 0.17617681)
(0 0.031484911 0.47080754)
(0 0.040505596 0.57339882)
(0 0.036530543 0.56659553)
(0 0.030610923 0.54537551)
(0 0.026646538 0.53370203)
(0 0.023518917 0.52702817)
(0 0.020687587 0.5221825)
(0 0.018161909 0.51844366)
(0 0.015898346 0.51554195)
(0 0.013862451 0.51327519)
(0 0.012022761 0.51149275)
(0 0.010348945 0.51008562)
(0 0.0088147171 0.50897429)
(0 0.0073965122 0.50810004)
(0 0.0060731823 0.50741935)
(0 0.0048257185 0.50690006)
(0 0.0036368451 0.5065187)
(0 0.0024906482 0.50625869)
(0 0.0013722121 0.5061091)
(0 0.00026727763 0.50606378)
(0 -0.00083810705 0.50612102)
(0 -0.0019579561 0.5062834)
(0 -0.0031066149 0.50655794)
(0 -0.004299165 0.50695666)
(0 -0.0055517578 0.50749737)
(0 -0.0068819815 0.50820513)
(0 -0.008309267 0.50911415)
(0 -0.0098552261 0.51027075)
(0 -0.011543909 0.51173747)
(0 -0.013403082 0.51359969)
(0 -0.015462857 0.51597486)
(0 -0.017753887 0.51902158)
(0 -0.020323208 0.52295093)
(0 -0.023178102 0.5282393)
(0 -0.026597965 0.53704342)
(0 -0.031506033 0.55365958)
(0 -0.03584799 0.56233397)
(0 -0.030519462 0.47798579)
(0 -0.0035835783 0.19471404)
(0 7.3829033e-05 0.16257694)
(0 0.025853794 0.45266114)
(0 0.037128179 0.56945399)
(0 0.035156551 0.5709859)
(0 0.029844791 0.54995828)
(0 0.026143023 0.53711011)
(0 0.023276433 0.52990696)
(0 0.020659646 0.52477653)
(0 0.018282241 0.52078839)
(0 0.016115759 0.51766233)
(0 0.014138881 0.51519977)
(0 0.012328715 0.51324854)
(0 0.01066215 0.51169742)
(0 0.0091185336 0.51046472)
(0 0.0076785746 0.50948967)
(0 0.0063244265 0.5087269)
(0 0.0050396123 0.50814266)
(0 0.0038088037 0.50771221)
(0 0.0026176125 0.50741795)
(0 0.0014523576 0.50724822)
(0 0.00029983139 0.50719649)
(0 -0.00085294562 0.5072609)
(0 -0.002019009 0.50744422)
(0 -0.0032116222 0.50775395)
(0 -0.0044445864 0.50820286)
(0 -0.0057324582 0.50880985)
(0 -0.0070907812 0.50960134)
(0 -0.0085363313 0.5106132)
(0 -0.0100873 0.51189368)
(0 -0.011763221 0.51350751)
(0 -0.013585933 0.51554235)
(0 -0.015578705 0.51811796)
(0 -0.017762205 0.52139256)
(0 -0.020168919 0.52558067)
(0 -0.022812393 0.53128617)
(0 -0.026009149 0.54103294)
(0 -0.030498325 0.5579353)
(0 -0.033360683 0.56023028)
(0 -0.025957386 0.46219303)
(0 -0.0017571432 0.1795956)
(0 -0.00072101927 0.15196893)
(0 0.021089277 0.43551335)
(0 0.033782596 0.56396242)
(0 0.033562028 0.5740868)
(0 0.028935148 0.55408713)
(0 0.025482685 0.5402581)
(0 0.022850546 0.53254558)
(0 0.020444824 0.52718218)
(0 0.018223624 0.52300011)
(0 0.016167459 0.51969348)
(0 0.014265565 0.51706895)
(0 0.012502142 0.51497511)
(0 0.010860253 0.51330008)
(0 0.0093242248 0.51196124)
(0 0.007878728 0.5108968)
(0 0.006509119 0.51006039)
(0 0.0052014763 0.50941733)
(0 0.0039425258 0.50894204)
(0 0.0027195625 0.50861628)
(0 0.0015203254 0.5084279)
(0 0.00033285927 0.50837009)
(0 -0.00085463506 0.50844091)
(0 -0.0020540058 0.50864324)
(0 -0.0032772335 0.50898491)
(0 -0.0045366526 0.50947921)
(0 -0.005845068 0.51014574)
(0 -0.0072158738 0.51101177)
(0 -0.0086631632 0.51211417)
(0 -0.010201807 0.51350226)
(0 -0.011847178 0.51524188)
(0 -0.01361578 0.51742169)
(0 -0.015524827 0.52016183)
(0 -0.017586835 0.52361828)
(0 -0.019823387 0.52801672)
(0 -0.022260496 0.53411353)
(0 -0.025237922 0.54468132)
(0 -0.02924587 0.56120974)
(0 -0.030716145 0.55664408)
(0 -0.021852188 0.44692218)
(0 -0.00055602068 0.16739487)
(0 -0.0010732525 0.14365557)
(0 0.017182172 0.41957856)
(0 0.030624386 0.55738377)
(0 0.03186482 0.5760197)
(0 0.027955964 0.55775446)
(0 0.024738944 0.54317175)
(0 0.022307609 0.53496666)
(0 0.020098673 0.52940531)
(0 0.01803175 0.52507477)
(0 0.016090394 0.52162593)
(0 0.01427194 0.51887017)
(0 0.012566186 0.51665835)
(0 0.010961228 0.51487894)
(0 0.0094455806 0.51344923)
(0 0.0080074147 0.51230721)
(0 0.0066350229 0.51140613)
(0 0.005316915 0.51071089)
(0 0.0040418482 0.5101955)
(0 0.0027988428 0.50984135)
(0 0.0015771414 0.50963602)
(0 0.00036614915 0.50957253)
(0 -0.00084463483 0.50964889)
(0 -0.0020657522 0.50986805)
(0 -0.003307794 0.51023802)
(0 -0.0045815459 0.51077239)
(0 -0.0058980206 0.51149115)
(0 -0.0072684912 0.51242199)
(0 -0.0087044926 0.51360223)
(0 -0.010217832 0.51508157)
(0 -0.011820213 0.51692618)
(0 -0.013523572 0.51922481)
(0 -0.015339979 0.52209664)
(0 -0.017275481 0.52569471)
(0 -0.019344788 0.53026596)
(0 -0.02159121 0.53673295)
(0 -0.024357378 0.5479685)
(0 -0.027850279 0.56352717)
(0 -0.028084841 0.5519376)
(0 -0.018277929 0.43243823)
(0 0.00017817565 0.15756599)
(0 -0.0011564234 0.13708561)
(0 0.014054962 0.40493738)
(0 0.027733533 0.5500927)
(0 0.030152889 0.57693234)
(0 0.026959544 0.56096678)
(0 0.023964661 0.54587496)
(0 0.021699384 0.53719709)
(0 0.019666283 0.53145897)
(0 0.017744862 0.52701554)
(0 0.015916586 0.52345704)
(0 0.014184401 0.52059696)
(0 0.012542277 0.51828937)
(0 0.010982223 0.51642367)
(0 0.0094961358 0.51491765)
(0 0.0080751494 0.51370956)
(0 0.0067101357 0.51275276)
(0 0.0053918181 0.51201211)
(0 0.0041108697 0.51146151)
(0 0.0028579903 0.51108224)
(0 0.0016239273 0.51086177)
(0 0.00039947481 0.51079303)
(0 -0.0008245276 0.51087401)
(0 -0.002057273 0.51110769)
(0 -0.0033079363 0.51150216)
(0 -0.0045857561 0.51207111)
(0 -0.0059000021 0.51283465)
(0 -0.0072599483 0.51382057)
(0 -0.008674796 0.51506621)
(0 -0.010153638 0.51662119)
(0 -0.011705066 0.51855142)
(0 -0.013337282 0.5209451)
(0 -0.0150582 0.52391958)
(0 -0.016869057 0.52762545)
(0 -0.018781567 0.53234196)
(0 -0.020858932 0.53915843)
(0 -0.023424584 0.55088806)
(0 -0.02639392 0.5649706)
(0 -0.02557791 0.54642916)
(0 -0.015246163 0.41888954)
(0 0.00058353112 0.14964638)
(0 -0.0010888614 0.13181944)
(0 0.011596983 0.39158141)
(0 0.02513781 0.54238332)
(0 0.028484963 0.57697932)
(0 0.025979173 0.56374385)
(0 0.023195064 0.5483905)
(0 0.021064271 0.53926524)
(0 0.019182994 0.53336049)
(0 0.017394089 0.52883033)
(0 0.015673 0.52518884)
(0 0.014025866 0.52224732)
(0 0.012449542 0.51986328)
(0 0.010938951 0.5179275)
(0 0.0094885963 0.51635851)
(0 0.0080920212 0.51509514)
(0 0.0067422804 0.51409116)
(0 0.0054320421 0.51331167)
(0 0.0041537205 0.51273069)
(0 0.0028995867 0.51232955)
(0 0.0016618313 0.51209573)
(0 0.00043260496 0.51202218)
(0 -0.0007959326 0.51210686)
(0 -0.0020316457 0.51235274)
(0 -0.0032823289 0.51276791)
(0 -0.0045557395 0.51336603)
(0 -0.0058595178 0.51416713)
(0 -0.0072011223 0.51519883)
(0 -0.0085877036 0.51649822)
(0 -0.010026043 0.51811446)
(0 -0.011522192 0.52011287)
(0 -0.013081435 0.52258069)
(0 -0.014708521 0.52563292)
(0 -0.016401471 0.52941955)
(0 -0.018172284 0.53426273)
(0 -0.020104128 0.54140646)
(0 -0.022480949 0.55344776)
(0 -0.02493774 0.56564496)
(0 -0.023257921 0.54038514)
(0 -0.012727198 0.40633836)
(0 0.00076912604 0.143242)
(0 -0.0009470103 0.12751162)
(0 0.0096894581 0.37944494)
(0 0.022833698 0.53447647)
(0 0.026896146 0.57630606)
(0 0.025033474 0.56611301)
(0 0.022451245 0.55073897)
(0 0.020428804 0.54119869)
(0 0.01867514 0.53512942)
(0 0.017003815 0.53053007)
(0 0.015381604 0.52682657)
(0 0.01381561 0.52382243)
(0 0.01230453 0.52137832)
(0 0.010845348 0.51938649)
(0 0.0094344817 0.51776637)
(0 0.0080673564 0.51645751)
(0 0.0067388125 0.51541423)
(0 0.0054431726 0.51460203)
(0 0.0041743843 0.51399523)
(0 0.0029261423 0.51357533)
(0 0.001691975 0.5133299)
(0 0.00046531148 0.51325194)
(0 -0.00076043488 0.51333943)
(0 -0.0019918664 0.5135953)
(0 -0.0032354794 0.51402756)
(0 -0.0044976606 0.51464972)
(0 -0.0057845769 0.51548159)
(0 -0.0071020907 0.51655049)
(0 -0.0084556103 0.51789302)
(0 -0.0098500199 0.51955773)
(0 -0.011289384 0.52160913)
(0 -0.012776808 0.52413329)
(0 -0.014314774 0.52724279)
(0 -0.015899547 0.53108979)
(0 -0.017545907 0.53604855)
(0 -0.019354801 0.54349444)
(0 -0.021554372 0.55566514)
(0 -0.023523625 0.56566075)
(0 -0.02115282 0.53401763)
(0 -0.010668476 0.39478467)
(0 0.00081526583 0.13801975)
(0 -0.00077836429 0.12390125)
(0 0.0082197342 0.3684314)
(0 0.020800861 0.52653207)
(0 0.025404237 0.5750408)
(0 0.024131117 0.56810398)
(0 0.021744206 0.55293728)
(0 0.019809996 0.54302198)
(0 0.018161369 0.53678541)
(0 0.016592386 0.53212716)
(0 0.015059668 0.52837743)
(0 0.013569341 0.52532569)
(0 0.012121131 0.52283494)
(0 0.010713411 0.52079892)
(0 0.0093439262 0.51913789)
(0 0.0080095134 0.51779214)
(0 0.006706428 0.51671661)
(0 0.0054303606 0.51587729)
(0 0.0041765723 0.51524885)
(0 0.0029400121 0.51481305)
(0 0.0017154142 0.51455762)
(0 0.00049737691 0.51447565)
(0 -0.00071953143 0.51456511)
(0 -0.0019407504 0.51482889)
(0 -0.0031715913 0.51527488)
(0 -0.0044172095 0.51591637)
(0 -0.0056824776 0.51677288)
(0 -0.0069718956 0.51787129)
(0 -0.0082894371 0.51924763)
(0 -0.0096384852 0.52094974)
(0 -0.011021613 0.5230413)
(0 -0.01244038 0.5256071)
(0 -0.013895763 0.52875764)
(0 -0.015383566 0.53265072)
(0 -0.016923035 0.53771948)
(0 -0.018629004 0.54543871)
(0 -0.020662247 0.55756279)
(0 -0.022178004 0.56512338)
(0 -0.019267604 0.5274892)
(0 -0.0090071936 0.3841885)
(0 0.0007784573 0.1337075)
(0 -0.00061091425 0.12079824)
(0 0.0070886262 0.35843232)
(0 0.01901122 0.5186628)
(0 0.024015011 0.57329293)
(0 0.023274432 0.56974628)
(0 0.021078252 0.55499826)
(0 0.019217786 0.54475542)
(0 0.017654252 0.53834667)
(0 0.016173114 0.53363411)
(0 0.014720342 0.52984943)
(0 0.013299484 0.52676173)
(0 0.011910688 0.52423512)
(0 0.010553197 0.52216466)
(0 0.0092256092 0.52047132)
(0 0.0079257823 0.51909607)
(0 0.0066510566 0.51799443)
(0 0.005398224 0.51713291)
(0 0.0041636431 0.51648658)
(0 0.0029433418 0.51603746)
(0 0.001733114 0.51577349)
(0 0.00052860066 0.51568785)
(0 -0.00067459327 0.51577852)
(0 -0.0018808642 0.51604835)
(0 -0.0030944695 0.51650504)
(0 -0.0043194867 0.51716166)
(0 -0.0055596807 0.51803737)
(0 -0.0068184194 0.51915857)
(0 -0.0080985305 0.52056073)
(0 -0.0094022517 0.52229095)
(0 -0.010731093 0.52441211)
(0 -0.01208558 0.52700781)
(0 -0.013465809 0.53018706)
(0 -0.014868228 0.53411706)
(0 -0.016317502 0.53929383)
(0 -0.017937333 0.54725351)
(0 -0.019814125 0.55916531)
(0 -0.020915203 0.56412814)
(0 -0.017592921 0.5209212)
(0 -0.0076786179 0.37448756)
(0 0.00069711997 0.13009022)
(0 -0.00045958526 0.11806749)
(0 0.0062135565 0.34933866)
(0 0.017434575 0.51094571)
(0 0.022726478 0.57115428)
(0 0.022461916 0.57106811)
(0 0.02045339 0.55693127)
(0 0.018657057 0.54641499)
(0 0.017161762 0.53982924)
(0 0.015755309 0.53506268)
(0 0.014373346 0.53125061)
(0 0.013015616 0.52813575)
(0 0.011682238 0.52558171)
(0 0.01037293 0.52348465)
(0 0.0090867889 0.52176608)
(0 0.0078223713 0.52036751)
(0 0.0065778237 0.51924502)
(0 0.005350802 0.51836556)
(0 0.0041385615 0.51770459)
(0 0.0029380377 0.51724443)
(0 0.0017459353 0.51697321)
(0 0.00055880411 0.5168842)
(0 -0.00062684209 0.51697543)
(0 -0.0018144852 0.51724963)
(0 -0.0030074678 0.51771437)
(0 -0.004208945 0.51838246)
(0 -0.0054217568 0.51927269)
(0 -0.0066483551 0.52041099)
(0 -0.0078906797 0.52183226)
(0 -0.0091501293 0.52358298)
(0 -0.010427503 0.52572529)
(0 -0.0117227 0.52834176)
(0 -0.013035426 0.53154074)
(0 -0.014363667 0.53550268)
(0 -0.015737835 0.54078741)
(0 -0.017284911 0.54895081)
(0 -0.019013838 0.56049761)
(0 -0.019740532 0.56275833)
(0 -0.016111392 0.51440189)
(0 -0.0066215242 0.36560902)
(0 0.00059644046 0.12700166)
(0 -0.00033084571 0.11561491)
(0 0.005528791 0.34104703)
(0 0.016041921 0.50343148)
(0 0.021532247 0.56870108)
(0 0.021690035 0.57209576)
(0 0.019867043 0.55874286)
(0 0.0181292 0.54801272)
(0 0.016688478 0.5412467)
(0 0.015345183 0.53642352)
(0 0.014025638 0.53258862)
(0 0.012724933 0.52945303)
(0 0.011442813 0.52687801)
(0 0.010179195 0.52476051)
(0 0.008933405 0.52302243)
(0 0.0077044539 0.52160565)
(0 0.0064910637 0.52046667)
(0 0.0052915509 0.51957288)
(0 0.0041038875 0.51890006)
(0 0.0029257567 0.51843082)
(0 0.0017546307 0.51815346)
(0 0.00058783401 0.51806136)
(0 -0.00057733856 0.51815255)
(0 -0.0017435847 0.51842971)
(0 -0.0029134702 0.51890023)
(0 -0.004089378 0.51957667)
(0 -0.0052733939 0.52047746)
(0 -0.0064672476 0.52162813)
(0 -0.0076722142 0.52306306)
(0 -0.0088891077 0.52482817)
(0 -0.010118295 0.52698504)
(0 -0.011359361 0.52961541)
(0 -0.012611991 0.53282802)
(0 -0.013876387 0.53682008)
(0 -0.015188522 0.54221334)
(0 -0.016672995 0.55054042)
(0 -0.018261295 0.56158366)
(0 -0.018653121 0.56108509)
(0 -0.014802079 0.50799356)
(0 -0.005781311 0.35747695)
(0 0.00049217611 0.12431542)
(0 -0.00022602831 0.11337624)
(0 0.0049838475 0.33346301)
(0 0.014807094 0.4961517)
(0 0.020423956 0.56599635)
(0 0.020954485 0.57285342)
(0 0.019315288 0.56043746)
(0 0.017633345 0.54955724)
(0 0.016236559 0.54261025)
(0 0.01494661 0.537726)
(0 0.013682001 0.53387044)
(0 0.012432681 0.53071862)
(0 0.011197761 0.52812747)
(0 0.0099771464 0.52599428)
(0 0.0087702188 0.5242412)
(0 0.0075762546 0.52281031)
(0 0.0063943689 0.52165845)
(0 0.0052233692 0.5207533)
(0 0.0040617875 0.52007098)
(0 0.0029079111 0.5195943)
(0 0.0017598455 0.51931176)
(0 0.00061556511 0.5192168)
(0 -0.00052698033 0.51930747)
(0 -0.0016698293 0.51958638)
(0 -0.0028148996 0.52006077)
(0 -0.0039639429 0.52074296)
(0 -0.0051184441 0.52165108)
(0 -0.0062795796 0.52281027)
(0 -0.0074481463 0.52425449)
(0 -0.0086245766 0.52602925)
(0 -0.0098090167 0.52819568)
(0 -0.011000968 0.53083498)
(0 -0.012200371 0.53405744)
(0 -0.013410095 0.53808014)
(0 -0.014671105 0.54358211)
(0 -0.016100268 0.55203013)
(0 -0.01755396 0.56244579)
(0 -0.01764829 0.5591681)
(0 -0.013643377 0.50173861)
(0 -0.0051113107 0.35001706)
(0 0.00039354527 0.12193697)
(0 -0.00014360244 0.11130826)
(0 0.0045410671 0.32650255)
(0 0.013707347 0.48912437)
(0 0.019392811 0.56309225)
(0 0.020250965 0.57336318)
(0 0.018793707 0.56201794)
(0 0.017167295 0.55105432)
(0 0.015806522 0.54392888)
(0 0.014561748 0.53897811)
(0 0.013345551 0.53510227)
(0 0.012142559 0.53193723)
(0 0.010951036 0.52933345)
(0 0.0097707297 0.52718816)
(0 0.008600967 0.52542356)
(0 0.0074411548 0.52398183)
(0 0.0062906592 0.52281996)
(0 0.0051486411 0.52190591)
(0 0.0040140605 0.521216)
(0 0.0028856828 0.52073327)
(0 0.0017621262 0.52044633)
(0 0.00064189913 0.52034871)
(0 -0.00047650904 0.52043846)
(0 -0.0015945937 0.52071813)
(0 -0.0027137439 0.52119483)
(0 -0.0038352058 0.52188065)
(0 -0.0049599973 0.52279349)
(0 -0.0060888838 0.52395815)
(0 -0.0072223352 0.52540827)
(0 -0.0083605595 0.52718907)
(0 -0.0095036349 0.52936142)
(0 -0.010651144 0.53200623)
(0 -0.01180348 0.53523661)
(0 -0.012966436 0.53929201)
(0 -0.014185105 0.54490172)
(0 -0.015563853 0.55342593)
(0 -0.016887948 0.56310427)
(0 -0.016719296 0.55705701)
(0 -0.01261474 0.49566471)
(0 -0.0045729768 0.34315951)
(0 0.0003053867 0.11979683)
(0 -8.0653959e-05 0.10938208)
(0 0.0041730282 0.32009217)
(0 0.012723329 0.48235817)
(0 0.018430465 0.56003216)
(0 0.019575587 0.57364532)
(0 0.018297917 0.56348612)
(0 0.016728183 0.55250745)
(0 0.015397821 0.54520953)
(0 0.014191549 0.54018659)
(0 0.013018166 0.53628952)
(0 0.011857063 0.53311307)
(0 0.010705471 0.53049913)
(0 0.0095628883 0.52834438)
(0 0.0084285182 0.52657091)
(0 0.0073018058 0.52512085)
(0 0.0061822616 0.52395126)
(0 0.0050692914 0.52303025)
(0 0.0039621737 0.52233433)
(0 0.0028600444 0.52184665)
(0 0.0017619288 0.52155597)
(0 0.00066676513 0.52145586)
(0 -0.00042652044 0.52154439)
(0 -0.0015189848 0.52182402)
(0 -0.002611595 0.52230176)
(0 -0.0037052011 0.52298955)
(0 -0.0048004677 0.52390503)
(0 -0.0058978664 0.52507281)
(0 -0.0069976589 0.52652627)
(0 -0.0080999454 0.52831048)
(0 -0.0092048404 0.53048616)
(0 -0.01031212 0.53313431)
(0 -0.011422775 0.5363721)
(0 -0.012545593 0.54046315)
(0 -0.013728742 0.54617803)
(0 -0.015060048 0.55473231)
(0 -0.016258799 0.56357736)
(0 -0.015858538 0.55479292)
(0 -0.011697577 0.48978878)
(0 -0.0041353685 0.33684051)
(0 0.00022968932 0.11784465)
(0 -3.3809448e-05 0.10757826)
(0 0.0038601555 0.31416838)
(0 0.011838783 0.47585545)
(0 0.01752944 0.55685242)
(0 0.018925043 0.57371859)
(0 0.017823865 0.56484331)
(0 0.016312903 0.55391841)
(0 0.015009271 0.54645746)
(0 0.01383614 0.54135699)
(0 0.012700826 0.53743681)
(0 0.011577771 0.53424986)
(0 0.010463022 0.53162743)
(0 0.009355754 0.5294651)
(0 0.0082550204 0.52768472)
(0 0.0071602409 0.52622823)
(0 0.0060709932 0.52505269)
(0 0.0049868441 0.52412627)
(0 0.003907302 0.52342556)
(0 0.0028317831 0.52293385)
(0 0.0017596292 0.52263995)
(0 0.00069011778 0.5225375)
(0 -0.00037747866 0.52262455)
(0 -0.0014438702 0.52290353)
(0 -0.0025096943 0.52338133)
(0 -0.0035754984 0.52406978)
(0 -0.0046416878 0.52498634)
(0 -0.005708534 0.52615545)
(0 -0.006776181 0.52761038)
(0 -0.0078447052 0.52939612)
(0 -0.0089143226 0.53157343)
(0 -0.0099850782 0.53422371)
(0 -0.011058658 0.53746944)
(0 -0.012146773 0.54159947)
(0 -0.013299481 0.54741506)
(0 -0.014584834 0.5559526)
(0 -0.01566199 0.56388147)
(0 -0.015058367 0.55240989)
(0 -0.010875597 0.48412011)
(0 -0.0037742413 0.33100298)
(0 0.00016666054 0.11604442)
(0 2.219779e-07 0.10588338)
(0 0.00358868 0.30867671)
(0 0.011040121 0.46961432)
(0 0.016683257 0.55358374)
(0 0.018296615 0.57360044)
(0 0.01736797 0.56609064)
(0 0.015918375 0.55528772)
(0 0.014639333 0.5476765)
(0 0.013495105 0.54249386)
(0 0.012393875 0.53854806)
(0 0.011305584 0.53535082)
(0 0.010224962 0.53272096)
(0 0.0091508138 0.53055234)
(0 0.008082035 0.52876645)
(0 0.0070179806 0.52730497)
(0 0.0059582413 0.52612481)
(0 0.0049024813 0.52519415)
(0 0.0038503684 0.52448962)
(0 0.0028015254 0.52399459)
(0 0.0017555342 0.52369791)
(0 0.0007119345 0.52359324)
(0 -0.0003297326 0.52367864)
(0 -0.001369909 0.52395648)
(0 -0.0024089807 0.52443361)
(0 -0.0034472702 0.52512172)
(0 -0.0044850001 0.52603819)
(0 -0.0055223144 0.52720735)
(0 -0.0065593063 0.52866242)
(0 -0.0075960853 0.53044846)
(0 -0.0086330061 0.53262634)
(0 -0.0096704267 0.53527827)
(0 -0.010710798 0.5385332)
(0 -0.011768563 0.54270548)
(0 -0.012894419 0.54861534)
(0 -0.014134214 0.55708931)
(0 -0.01509325 0.56403134)
(0 -0.014311572 0.54993623)
(0 -0.010134829 0.47866262)
(0 -0.0034709764 0.3255965)
(0 0.00011547045 0.11437055)
(0 2.4369942e-05 0.10428767)
(0 0.0033490003 0.3035706)
(0 0.010315992 0.46363021)
(0 0.015886405 0.55025221)
(0 0.017688125 0.57330724)
(0 0.016927157 0.56722929)
(0 0.015541696 0.55661504)
(0 0.014286304 0.54886932)
(0 0.013167692 0.54360085)
(0 0.01209722 0.53962658)
(0 0.011040903 0.53641875)
(0 0.0099920456 0.53378203)
(0 0.0089490498 0.53160797)
(0 0.0079106542 0.52981754)
(0 0.0068761275 0.52835208)
(0 0.0058450376 0.5271683)
(0 0.0048170988 0.52623429)
(0 0.0037920834 0.52552669)
(0 0.0027697613 0.52502888)
(0 0.0017498918 0.52472975)
(0 0.00073221235 0.52462298)
(0 -0.00028353278 0.5247066)
(0 -0.0012975831 0.52498296)
(0 -0.002310138 0.52545886)
(0 -0.0033213584 0.52614592)
(0 -0.0043313444 0.52706146)
(0 -0.0053401678 0.52822977)
(0 -0.0063479181 0.5296841)
(0 -0.0073547744 0.53146966)
(0 -0.0083612464 0.53364757)
(0 -0.0093680292 0.53630121)
(0 -0.010378383 0.53956708)
(0 -0.0114092 0.54378454)
(0 -0.012510552 0.54978026)
(0 -0.013704423 0.55814435)
(0 -0.014548729 0.56404034)
(0 -0.013611637 0.54739562)
(0 -0.009463457 0.4734166)
(0 -0.0032115141 0.32057703)
(0 7.47589e-05 0.11280487)
(0 4.1094518e-05 0.1027836)
(0 0.0031344294 0.2988103)
(0 0.0096568743 0.45789684)
(0 0.015134216 0.54688015)
(0 0.017097832 0.57285442)
(0 0.016498843 0.56826071)
(0 0.015180214 0.55789949)
(0 0.013948437 0.55003769)
(0 0.012852944 0.54468089)
(0 0.011810477 0.54067512)
(0 0.010783774 0.53745601)