/*--------------------------------*- C++ -*----------------------------------*\
  =========                 |
  \\      /  F ield         | OpenFOAM: The Open Source CFD Toolbox
   \\    /   O peration     | Website:  https://openfoam.org
    \\  /    A nd           | Version:  10
     \\/     M anipulation  |
\*---------------------------------------------------------------------------*/
FoamFile
{
    format      ascii;
    class       surfaceScalarField;
    location    "0.17";
    object      phi;
}
// * * * * * * * * * * * * * * * * * * * * * * * * * * * * * * * * * * * * * //

dimensions      [1 0 -1 0 0 0 0];

internalField   nonuniform List<scalar> 
7860
(
3.9895451e-08
5.2881258e-07
1.2192318e-08
5.9641093e-07
7.4274913e-09
5.7347257e-07
5.4989602e-09
5.7063623e-07
4.1145314e-09
5.700921e-07
3.2006919e-09
5.6962149e-07
2.5587242e-09
5.693496e-07
2.078935e-09
5.691874e-07
1.7089947e-09
5.6907754e-07
1.4163787e-09
5.6900021e-07
1.1792906e-09
5.6894467e-07
9.8296647e-10
5.689039e-07
8.1706176e-10
5.6887348e-07
6.7408521e-10
5.6885054e-07
5.4846263e-10
5.6883319e-07
4.3593235e-10
5.6882009e-07
3.3313962e-10
5.6881035e-07
2.3735607e-10
5.6880334e-07
1.4627765e-10
5.6879863e-07
5.7872068e-11
5.6879596e-07
-2.9744585e-11
5.6879517e-07
-1.1841549e-10
5.6879622e-07
-2.1004844e-10
5.6879919e-07
-3.0672203e-10
5.6880423e-07
-4.1081821e-10
5.6881165e-07
-5.2518516e-10
5.6882193e-07
-6.5335813e-10
5.6883574e-07
-7.9987225e-10
5.6885408e-07
-9.7072308e-10
5.6887842e-07
-1.1740734e-09
5.6891093e-07
-1.4214264e-09
5.6895494e-07
-1.7295952e-09
5.6901576e-07
-2.1235606e-09
5.6910157e-07
-2.6432068e-09
5.6922726e-07
-3.3709488e-09
5.6943537e-07
-4.462354e-09
5.6979905e-07
-6.0078848e-09
5.702532e-07
-9.5070179e-09
5.7220684e-07
-2.9574654e-08
5.8877538e-07
5.3913326e-07
5.9671232e-08
4.6914135e-07
3.6664465e-08
6.1941769e-07
2.2626713e-08
5.8751032e-07
1.6252061e-08
5.7701088e-07
1.2288988e-08
5.7405517e-07
9.6047792e-09
5.7230569e-07
7.6760842e-09
5.7127829e-07
6.234864e-09
5.7062862e-07
5.1255181e-09
5.7018689e-07
4.2479706e-09
5.6987776e-07
3.5368839e-09
5.6965576e-07
2.9480859e-09
5.694927e-07
2.4505281e-09
5.6937103e-07
2.021732e-09
5.6927934e-07
1.6449796e-09
5.6920994e-07
1.3074899e-09
5.6915758e-07
9.9920237e-10
5.6911864e-07
7.1193477e-10
5.6909061e-07
4.3877764e-10
5.6907179e-07
1.7363554e-10
5.690611e-07
-8.9141844e-11
5.6905795e-07
-3.5508158e-10
5.6906216e-07
-6.2989991e-10
5.6907401e-07
-9.1983329e-10
5.6909416e-07
-1.232025e-09
5.6912384e-07
-1.5750162e-09
5.6916492e-07
-1.9594086e-09
5.6922013e-07
-2.3988027e-09
5.6929347e-07
-2.911186e-09
5.693908e-07
-3.5210559e-09
5.695208e-07
-4.2628364e-09
5.6969672e-07
-5.1868985e-09
5.6993982e-07
-6.3698737e-09
5.7028454e-07
-7.9304888e-09
5.7078787e-07
-1.0071975e-08
5.7157686e-07
-1.3200479e-08
5.7292756e-07
-1.8130786e-08
5.7518351e-07
-2.8173215e-08
5.8224927e-07
-4.579976e-08
6.0640193e-07
4.933335e-07
6.0006862e-08
4.0913451e-07
5.0484444e-08
6.2894011e-07
3.336799e-08
6.0462677e-07
2.4814984e-08
5.8556389e-07
1.9320554e-08
5.795496e-07
1.5328896e-08
5.7629735e-07
1.2358284e-08
5.742489e-07
1.0099357e-08
5.7288755e-07
8.3387332e-09
5.7194751e-07
6.9332858e-09
5.712832e-07
5.7869309e-09
5.7080211e-07
4.832898e-09
5.7044673e-07
4.0234172e-09
5.7018051e-07
3.3234973e-09
5.6997926e-07
2.7068688e-09
5.6982657e-07
2.1532933e-09
5.6971116e-07
1.6467393e-09
5.6962519e-07
1.1741012e-09
5.6956324e-07
7.2426515e-10
5.6952163e-07
2.8739636e-10
5.6949797e-07
-1.4563854e-10
5.6949098e-07
-5.8377721e-10
5.695003e-07
-1.0362552e-09
5.6952648e-07
-1.5131262e-09
5.6957103e-07
-2.025864e-09
5.6963658e-07
-2.5881229e-09
5.6972718e-07
-3.216749e-09
5.6984875e-07
-3.9331914e-09
5.7000992e-07
-4.765552e-09
5.7022316e-07
-5.7516492e-09
5.7050689e-07
-6.9436769e-09
5.7088874e-07
-8.4158428e-09
5.7141199e-07
-1.0277556e-08
5.7214625e-07
-1.2690702e-08
5.7320102e-07
-1.5888457e-08
5.7477461e-07
-2.0232738e-08
5.7727184e-07
-2.6701574e-08
5.8165234e-07
-3.8941253e-08
5.9448894e-07
-4.8162291e-08
6.1562297e-07
4.4517121e-07
5.4876491e-08
3.5425806e-07
5.7447847e-08
6.2636876e-07
4.0463333e-08
6.2161127e-07
3.0774663e-08
5.9525255e-07
2.4638973e-08
5.8568529e-07
1.9948344e-08
5.8098798e-07
1.6309232e-08
5.7788801e-07
1.3463167e-08
5.7573361e-07
1.1198026e-08
5.7421265e-07
9.3620968e-09
5.7311913e-07
7.8474877e-09
5.7231672e-07
6.5757029e-09
5.7171852e-07
5.4888886e-09
5.7126733e-07
4.5437244e-09
5.7092442e-07
3.7071076e-09
5.7066318e-07
2.9531723e-09
5.7046509e-07
2.2611927e-09
5.7031717e-07
1.6140643e-09
5.7021037e-07
9.9717312e-10
5.7013852e-07
3.9751503e-10
5.7009763e-07
-1.970268e-10
5.7008552e-07
-7.9832227e-10
5.701016e-07
-1.4186156e-09
5.7014678e-07
-2.0711793e-09
5.702236e-07
-2.7710654e-09
5.7033647e-07
-3.5360329e-09
5.7049214e-07
-4.3877548e-09
5.7070048e-07
-5.353452e-09
5.7097561e-07
-6.4681726e-09
5.7133789e-07
-7.7780535e-09
5.7181677e-07
-9.3448869e-09
5.7245558e-07
-1.1252506e-08
5.7331961e-07
-1.361719e-08
5.7451094e-07
-1.66003e-08
5.7618413e-07
-2.0399638e-08
5.7857395e-07
-2.5281892e-08
5.8215409e-07
-3.250665e-08
5.888771e-07
-4.5090512e-08
6.0707281e-07
-4.6542556e-08
6.1707501e-07
3.9862866e-07
4.796271e-08
3.0629541e-07
6.0070573e-08
6.1426093e-07
4.5394055e-08
6.3628778e-07
3.4869578e-08
6.0577703e-07
2.839416e-08
5.9216071e-07
2.341409e-08
5.8596805e-07
1.9429091e-08
5.8187301e-07
1.6224408e-08
5.789383e-07
1.3615514e-08
5.7682155e-07
1.1462994e-08
5.7527165e-07
9.6617126e-09
5.74118e-07
8.1316201e-09
5.7324861e-07
6.8116833e-09
5.7258727e-07
5.6548795e-09
5.7208123e-07
4.6244228e-09
5.7169364e-07
3.6910153e-09
5.713985e-07
2.8308072e-09
5.7117738e-07
2.023857e-09
5.7101732e-07
1.2529478e-09
5.7090943e-07
5.0264202e-10
5.7084793e-07
-2.4151203e-10
5.7082968e-07
-9.9368955e-10
5.7085377e-07
-1.7684798e-09
5.7092157e-07
-2.5816087e-09
5.7103672e-07
-3.4507548e-09
5.7120561e-07
-4.3965329e-09
5.7143792e-07
-5.4437343e-09
5.7174768e-07
-6.6229363e-09
5.7215481e-07
-7.9726288e-09
5.7268758e-07
-9.5420882e-09
5.7338623e-07
-1.1395153e-08
5.7430864e-07
-1.3614651e-08
5.755391e-07
-1.6308899e-08
5.7720518e-07
-1.9621522e-08
5.7949675e-07
-2.3722822e-08
5.8267525e-07
-2.8915648e-08
5.8734691e-07
-3.6776197e-08
5.9673765e-07
-4.8449423e-08
6.1874603e-07
-4.3185706e-08
6.1181129e-07
3.5544295e-07
4.0332563e-08
2.6596294e-07
5.8986465e-08
5.9560709e-07
4.8321797e-08
6.4695243e-07
3.7580308e-08
6.165185e-07
3.0921337e-08
5.9881968e-07
2.5886686e-08
5.910027e-07
2.1773117e-08
5.8598658e-07
1.8385764e-08
5.8232565e-07
1.5571955e-08
5.7963535e-07
1.320963e-08
5.7763398e-07
1.1202838e-08
5.7612479e-07
9.4762764e-09
5.7497517e-07
7.9707899e-09
5.7409275e-07
6.6394614e-09
5.7341255e-07
5.4446504e-09
5.7288845e-07
4.3557251e-09
5.7248742e-07
3.3472833e-09
5.7218582e-07
2.3977521e-09
5.7196685e-07
1.4882706e-09
5.7181891e-07
6.017692e-10
5.7173443e-07
-2.7782075e-10
5.7170927e-07
-1.1662844e-09
5.7174224e-07
-2.079826e-09
5.7183511e-07
-3.0357969e-09
5.719927e-07
-4.0535019e-09
5.7222332e-07
-5.155145e-09
5.7253956e-07
-6.3669815e-09
5.7295951e-07
-7.7207519e-09
5.7350858e-07
-9.2554804e-09
5.7422231e-07
-1.1019782e-08
5.7515053e-07
-1.3074896e-08
5.7636375e-07
-1.5498105e-08
5.7796231e-07
-1.8386829e-08
5.8009391e-07
-2.186527e-08
5.8297519e-07
-2.6089249e-08
5.8689923e-07
-3.1468066e-08
5.9272573e-07
-3.9634389e-08
6.0490397e-07
-4.9153636e-08
6.2826528e-07
-3.8568267e-08
6.0122592e-07
3.1687468e-07
3.2858808e-08
2.3310425e-07
5.5240635e-08
5.7322537e-07
4.9221383e-08
6.5297169e-07
3.9051306e-08
6.2668856e-07
3.2420877e-08
6.054501e-07
2.7509322e-08
5.9591426e-07
2.3429807e-08
5.900661e-07
1.999477e-08
5.8576069e-07
1.7087636e-08
5.8254249e-07
1.4606171e-08
5.8011544e-07
1.2466571e-08
5.7826439e-07
1.0601574e-08
5.7684017e-07
8.9569218e-09
5.757374e-07
7.4884071e-09
5.7488107e-07
6.1596834e-09
5.7421717e-07
4.9405075e-09
5.737066e-07
3.8052971e-09
5.7332103e-07
2.7319538e-09
5.730402e-07
1.7008868e-09
5.7284997e-07
6.9418202e-10
5.7274114e-07
-3.0512965e-10
5.7270858e-07
-1.3137471e-09
5.7275086e-07
-2.3487646e-09
5.7287012e-07
-3.4283549e-09
5.7307229e-07
-4.5725111e-09
5.7336747e-07
-5.8038937e-09
5.7377095e-07
-7.1488274e-09
5.7430445e-07
-8.6385022e-09
5.7499826e-07
-1.0310423e-08
5.7589423e-07
-1.2210187e-08
5.770503e-07
-1.439387e-08
5.7854744e-07
-1.6930919e-08
5.8049936e-07
-1.9906201e-08
5.8306919e-07
-2.3420526e-08
5.8648952e-07
-2.7615327e-08
5.9109403e-07
-3.3008599e-08
5.98119e-07
-4.0984653e-08
6.1288003e-07
-4.7664462e-08
6.3494509e-07
-3.3364354e-08
5.8692582e-07
2.8351033e-07
2.6184698e-08
2.0691969e-07
5.0121479e-08
5.4928876e-07
4.847977e-08
6.5461342e-07
3.9477932e-08
6.3569037e-07
3.3065026e-08
6.11863e-07
2.8400091e-08
6.0057919e-07
2.4481656e-08
5.9398453e-07
2.1107923e-08
5.8913442e-07
1.8197986e-08
5.8545242e-07
1.56726e-08
5.8264083e-07
1.346261e-08
5.8047438e-07
1.1510823e-08
5.7879195e-07
9.7697042e-09
5.7747852e-07
8.1994442e-09
5.7645133e-07
6.7664921e-09
5.7565013e-07
5.4422824e-09
5.7503081e-07
4.2021472e-09
5.7456117e-07
3.024393e-09
5.7421795e-07
1.8895028e-09
5.7398486e-07
7.7943329e-10
5.7385121e-07
-3.230215e-10
5.7381103e-07
-1.4348263e-09
5.7386266e-07
-2.5732971e-09
5.7400859e-07
-3.7567041e-09
5.7425569e-07
-5.0049143e-09
5.7461568e-07
-6.3401062e-09
5.7510614e-07
-7.7875822e-09
5.7575192e-07
-9.3767157e-09
5.7658739e-07
-1.1142059e-08
5.7765957e-07
-1.3124611e-08
5.7903285e-07
-1.5373467e-08
5.8079629e-07
-1.7947937e-08
5.8307383e-07
-2.0917501e-08
5.8603875e-07
-2.4357393e-08
5.8992941e-07
-2.8403093e-08
5.9513973e-07
-3.3659192e-08
6.033751e-07
-4.103011e-08
6.2025094e-07
-4.4769259e-08
6.3868424e-07
-2.8191245e-08
5.703478e-07
2.5531908e-07
2.0566174e-08
1.8635369e-07
4.4570006e-08
5.2528516e-07
4.662582e-08
6.5255766e-07
3.9136629e-08
6.4317953e-07
3.3068271e-08
6.1793135e-07
2.8702754e-08
6.0494471e-07
2.502413e-08
5.9766315e-07
2.1790923e-08
5.9236763e-07
1.894779e-08
5.8829556e-07
1.6438656e-08
5.8514996e-07
1.4210005e-08
5.8270303e-07
1.2215633e-08
5.8078633e-07
1.0415739e-08
5.7927842e-07
8.7759439e-09
5.7809112e-07
7.2664692e-09
5.771596e-07
5.8613242e-09
5.7643595e-07
4.5375665e-09
5.7588492e-07
3.274636e-09
5.7548088e-07
2.0537481e-09
5.7520575e-07
8.5733693e-10
5.7504762e-07
-3.314651e-10
5.7499983e-07
-1.5293229e-09
5.7506052e-07
-2.7531963e-09
5.7523247e-07
-4.0208411e-09
5.7552334e-07
-5.3513337e-09
5.7594618e-07
-6.7656369e-09
5.7652044e-07
-8.2872168e-09
5.772735e-07
-9.9427282e-09
5.782429e-07
-1.176278e-08
5.7947962e-07
-1.3782732e-08
5.810528e-07
-1.6043601e-08
5.8305716e-07
-1.8593265e-08
5.8562349e-07
-2.1484864e-08
5.8893035e-07
-2.4772462e-08
5.93217e-07
-2.8602119e-08
5.9896939e-07
-3.3620315e-08
6.083933e-07
-4.01041e-08
6.2673473e-07
-4.1126091e-08
6.3970623e-07
-2.3402287e-08
5.52624e-07
2.319168e-07
1.601027e-08
1.7034362e-07
3.9128607e-08
5.0216714e-07
4.409775e-08
6.4758862e-07
3.8269066e-08
6.4900818e-07
3.2634668e-08
6.2356572e-07
2.8573301e-08
6.0900607e-07
2.5166345e-08
6.0107011e-07
2.2120085e-08
5.9541388e-07
1.9390619e-08
5.9102502e-07
1.694186e-08
5.8759872e-07
1.4734806e-08
5.8491009e-07
1.2733837e-08
5.8278729e-07
1.0907016e-08
5.8110524e-07
9.2257943e-09
5.7977234e-07
7.664671e-09
5.7872072e-07
6.20077e-09
5.7789985e-07
4.8134153e-09
5.7727228e-07
3.4837035e-09
5.7681059e-07
2.1940825e-09
5.7649537e-07
9.2794341e-10
5.7631376e-07
-3.3077664e-10
5.7625855e-07
-1.5979808e-09
5.7632772e-07
-2.8898045e-09
5.7652429e-07
-4.223006e-09
5.7685654e-07
-5.6153657e-09
5.7733854e-07
-7.0861005e-09
5.7799118e-07
-8.6562911e-09
5.7884369e-07
-1.034932e-08
5.7993593e-07
-1.2191329e-08
5.8132163e-07
-1.4211634e-08
5.8307311e-07
-1.6443093e-08
5.8528862e-07
-1.892249e-08
5.8810289e-07
-2.1688007e-08
5.9169587e-07
-2.4780157e-08
5.9630915e-07
-2.8367514e-08
6.0255674e-07
-3.3076274e-08
6.1310206e-07
-3.8501543e-08
6.3216e-07
-3.7177414e-08
6.383821e-07
-1.9166817e-08
5.346134e-07
2.1274998e-07
1.2418004e-08
1.5792585e-07
3.4096339e-08
4.8048921e-07
4.1224732e-08
6.404604e-07
3.7053343e-08
6.5317954e-07
3.1918269e-08
6.2870076e-07
2.8146384e-08
6.1277795e-07
2.501187e-08
6.0420463e-07
2.21726e-08
5.9825315e-07
1.958352e-08
5.936141e-07
1.7224009e-08
5.8995823e-07
1.5067406e-08
5.8706669e-07
1.3087372e-08
5.8476733e-07
1.125924e-08
5.8293337e-07
9.5601239e-09
5.8147146e-07
7.9688742e-09
5.8031197e-07
6.4659456e-09
5.7940278e-07
5.033219e-09
5.78705e-07
3.6537743e-09
5.7819004e-07
2.3116339e-09
5.7783751e-07
9.9149349e-10
5.776339e-07
-3.2155604e-10
5.775716e-07
-1.6423066e-09
5.7764847e-07
-2.985719e-09
5.778677e-07
-4.3672041e-09
5.7823802e-07
-5.8029006e-09
5.7877423e-07
-7.309949e-09
5.7949822e-07
-8.9067504e-09
5.8044049e-07
-1.0613199e-08
5.8164238e-07
-1.245089e-08
5.8315932e-07
-1.4443282e-08
5.850655e-07
-1.6615725e-08
5.8746106e-07
-1.8995148e-08
5.9048231e-07
-2.1607096e-08
5.9430782e-07
-2.4485774e-08
5.9918783e-07
-2.7825236e-08
6.058962e-07
-3.2169692e-08
6.1744651e-07
-3.6464544e-08
6.3645485e-07
-3.3224438e-08
6.3514199e-07
-1.5546452e-08
5.1693541e-07
1.9720353e-07
9.6507444e-09
1.4827538e-07
2.9625473e-08
4.60515e-07
3.8253372e-08
6.3183275e-07
3.5627564e-08
6.5580533e-07
3.1030169e-08
6.3329811e-07
2.7526288e-08
6.1628182e-07
2.4647202e-08
6.0708372e-07
2.2017175e-08
6.0088318e-07
1.9580299e-08
5.9605098e-07
1.7326563e-08
5.9221197e-07
1.5239319e-08
5.8915393e-07
1.3299955e-08
5.8670669e-07
1.1490102e-08
5.8474322e-07
9.7919983e-09
5.8316956e-07
8.188602e-09
5.8191537e-07
6.6636531e-09
5.8092773e-07
5.2016661e-09
5.8016699e-07
3.7878555e-09
5.7960385e-07
2.4080147e-09
5.7921735e-07
1.0483652e-09
5.7899355e-07
-3.0461428e-10
5.7892458e-07
-1.6643663e-09
5.7900822e-07
-3.0444429e-09
5.7924778e-07
-4.4586853e-09
5.7965226e-07
-5.9213946e-09
5.8023694e-07
-7.4474827e-09
5.8102431e-07
-9.0525963e-09
5.8204561e-07
-1.0753192e-08
5.8334298e-07
-1.2566565e-08
5.8497269e-07
-1.4510841e-08
5.8700977e-07
-1.6604802e-08
5.8955502e-07
-1.8866971e-08
5.9274448e-07
-2.1312918e-08
5.9675376e-07
-2.3976733e-08
6.0185165e-07
-2.7074038e-08
6.0899351e-07
-3.1018655e-08
6.2139113e-07
-3.419717e-08
6.3963336e-07
-2.9472227e-08
6.3041705e-07
-1.2536496e-08
4.9999968e-07
1.8466703e-07
7.5596587e-09
1.4071605e-07
2.5763636e-08
4.4231166e-07
3.5354481e-08
6.2224226e-07
3.4101517e-08
6.5705831e-07
3.0053267e-08
6.373463e-07
2.6792912e-08
6.1954216e-07
2.4141945e-08
6.0973468e-07
2.1711517e-08
6.0331361e-07
1.9428171e-08
5.9833432e-07
1.7287516e-08
5.9435262e-07
1.528063e-08
5.9116082e-07
1.3395097e-08
5.8859222e-07
1.1617761e-08
5.8652056e-07
9.9352668e-09
5.8485206e-07
8.3342554e-09
5.8351638e-07
6.8015279e-09
5.8246046e-07
5.3241487e-09
5.8164437e-07
3.8894775e-09
5.8103852e-07
2.4851506e-09
5.8062168e-07
1.0990248e-09
5.8037967e-07
-2.8090391e-10
5.8030451e-07
-1.6665931e-09
5.8039391e-07
-3.0700569e-09
5.8065124e-07
-4.5034592e-09
5.8108567e-07
-5.979193e-09
5.8171267e-07
-7.5099349e-09
5.8255505e-07
-9.1086636e-09
5.8364433e-07
-1.0788625e-08
5.8502294e-07
-1.2563242e-08
5.8674731e-07
-1.4445994e-08
5.8889252e-07
-1.6450113e-08
5.9155914e-07
-1.858725e-08
5.9488162e-07
-2.0865978e-08
5.9903249e-07
-2.3325357e-08
6.0431102e-07
-2.6194165e-08
6.1186232e-07
-2.9724138e-08
6.249211e-07
-3.1860993e-08
6.4177022e-07
-2.6043049e-08
6.245991e-07
-1.0090261e-08
4.8404689e-07
1.7457677e-07
6.0041676e-09
1.3471226e-07
2.2489016e-08
4.2582758e-07
3.2629862e-08
6.121019e-07
3.2555569e-08
6.5713265e-07
2.9047555e-08
6.4085425e-07
2.6006324e-08
6.2258336e-07
2.3551345e-08
6.1218966e-07
2.1303123e-08
6.0556183e-07
1.9167255e-08
6.0047019e-07
1.7140242e-08
5.9637963e-07
1.5218662e-08
5.930824e-07
1.3394841e-08
5.9041605e-07
1.165975e-08
5.8825565e-07
1.0003672e-08
5.8650814e-07
8.4164114e-09
5.8510364e-07
6.8875037e-09
5.8398936e-07
5.406373e-09
5.831255e-07
3.9624315e-09
5.8248246e-07
2.5451326e-09
5.8203898e-07
1.1439853e-09
5.8178082e-07
-2.5145609e-10
5.8169995e-07
-1.6516164e-09
5.8179407e-07
-3.0669325e-09
5.8206656e-07
-4.5078762e-09
5.8252661e-07
-5.9849627e-09
5.8318976e-07
-7.5087305e-09
5.8407882e-07
-9.0896867e-09
5.8522529e-07
-1.07382e-08
5.8667145e-07
-1.2464342e-08
5.8847345e-07
-1.4277709e-08
5.9070589e-07
-1.6187044e-08
5.9346848e-07
-1.819871e-08
5.9689328e-07
-2.0317356e-08
6.0115114e-07
-2.2590541e-08
6.0658421e-07
-2.5249086e-08
6.1452086e-07
-2.8366642e-08
6.2803866e-07
-2.9570123e-08
6.429737e-07
-2.2992097e-08
6.1802108e-07
-8.1392637e-09
4.6919406e-07
1.664375e-07
4.8615637e-09
1.2985115e-07
1.9743034e-08
4.1094705e-07
3.012773e-08
6.0171783e-07
3.1041985e-08
6.5621849e-07
2.8052428e-08
6.4384372e-07
2.5208711e-08
6.2542704e-07
2.2917435e-08
6.1448093e-07
2.082996e-08
6.0764931e-07
1.8830748e-08
6.024694e-07
1.6913227e-08
5.9829715e-07
1.5077419e-08
5.9491821e-07
1.3319087e-08
5.9217438e-07
1.1632306e-08
5.8994243e-07
1.0010236e-08
5.8813021e-07
8.4453026e-09
5.8666857e-07
6.9293958e-09
5.8550527e-07
5.4540449e-09
5.8460085e-07
4.0105528e-09
5.8392595e-07
2.5900929e-09
5.8345944e-07
1.1837726e-09
5.8318714e-07
-2.1732549e-10
5.8310105e-07
-1.6221165e-09
5.8319886e-07
-3.0394915e-09
5.8348393e-07
-4.4782884e-09
5.8396541e-07
-5.9472469e-09
5.8465872e-07
-7.4549383e-09
5.8558651e-07
-9.009662e-09
5.8678001e-07
-1.0619302e-08
5.8828109e-07
-1.2291143e-08
5.9014529e-07
-1.4031678e-08
5.9244643e-07
-1.5846193e-08
5.9528299e-07
-1.773729e-08
5.9878438e-07
-1.9708493e-08
6.0312234e-07
-2.1817574e-08
6.0869329e-07
-2.4285414e-08
6.169887e-07
-2.7004813e-08
6.3075806e-07
-2.7396578e-08
6.4336546e-07
-2.032867e-08
6.1095317e-07
-6.6078325e-09
4.5547322e-07
1.5982967e-07
4.029486e-09
1.258222e-07
1.7453186e-08
3.9752447e-07
2.7861993e-08
5.9130983e-07
2.9591313e-08
6.5448934e-07
2.7090981e-08
6.4634397e-07
2.4427152e-08
6.2809082e-07
2.2270256e-08
6.1663782e-07
2.0321011e-08
6.0959856e-07
1.8445136e-08
6.0434528e-07
1.6630024e-08
6.0011227e-07
1.4877363e-08
5.9667087e-07
1.3185246e-08
5.9386649e-07
1.1549968e-08
5.915777e-07
9.9668661e-09
5.8971331e-07
8.4304585e-09
5.8820498e-07
6.9345974e-09
5.8700113e-07
5.4726321e-09
5.8606281e-07
4.0375527e-09
5.8536103e-07
2.6221083e-09
5.8487488e-07
1.2188998e-09
5.8459035e-07
-1.79545e-10
5.8449949e-07
-1.5807069e-09
5.8460002e-07
-2.9920168e-09
5.8489524e-07
-4.4207883e-09
5.8539418e-07
-5.8741386e-09
5.8611207e-07
-7.358886e-09
5.8707126e-07
-8.8814232e-09
5.8830255e-07
-1.0447562e-08
5.8984723e-07
-1.2062359e-08
5.9176009e-07
-1.3729937e-08
5.94114e-07
-1.5453057e-08
5.9700611e-07
-1.7231924e-08
6.0056325e-07
-1.9071236e-08
6.0496165e-07
-2.1039045e-08
6.106611e-07
-2.3335008e-08
6.1928466e-07
-2.5678296e-08
6.3310134e-07
-2.5380025e-08
6.4306719e-07
-1.8034179e-08
6.0360732e-07
-5.4215798e-09
4.4286062e-07
1.5440809e-07
3.4252592e-09
1.2239757e-07
1.5545634e-08
3.8540542e-07
2.5825978e-08
5.8103051e-07
2.8218886e-08
6.5209669e-07
2.6174974e-08
6.483878e-07
2.3677418e-08
6.305883e-07
2.1630009e-08
6.1868522e-07
1.9797395e-08
6.1143117e-07
1.8030748e-08
6.0611193e-07
1.6309456e-08
6.0183356e-07
1.4635395e-08
5.9834493e-07
1.3008105e-08
5.9549378e-07
1.1425377e-08
5.9316043e-07
9.8841259e-09
5.9125456e-07
8.3804798e-09
5.8970863e-07
6.9098776e-09
5.8847173e-07
5.467199e-09
5.8750549e-07
4.0468992e-09
5.8678133e-07
2.6431304e-09
5.8627865e-07
1.2498488e-09
5.8598363e-07
-1.3909039e-10
5.8588843e-07
-1.5298473e-09
5.8599078e-07
-2.928514e-09
5.8629391e-07
-4.341024e-09
5.8680669e-07
-5.7730533e-09
5.875441e-07
-7.2299042e-09
5.8852811e-07
-8.7163714e-09
5.8978902e-07
-1.0236596e-08
5.9136745e-07
-1.1793919e-08
5.9331741e-07
-1.3390737e-08
5.9571082e-07
-1.5028077e-08
5.9864345e-07
-1.6704921e-08
6.0224009e-07
-1.842887e-08
6.066856e-07
-2.0277043e-08
6.1250927e-07
-2.2418227e-08
6.2142585e-07
-2.4411835e-08
6.3509495e-07
-2.353721e-08
6.4219257e-07
-1.6074587e-08
5.961447e-07
-4.5120867e-09
4.3129812e-07
1.49896e-07
2.9842539e-09
1.1941406e-07
1.3951888e-08
3.7443937e-07
2.4001772e-08
5.7098189e-07
2.692977e-08
6.4916908e-07
2.5308677e-08
6.5000881e-07
2.2967408e-08
6.3292948e-07
2.1009438e-08
6.2064317e-07
1.9273887e-08
6.1316672e-07
1.7602668e-08
6.0778315e-07
1.5966113e-08
6.0347011e-07
1.4365087e-08
5.9994595e-07
1.2799884e-08
5.9705899e-07
1.1269235e-08
5.9469108e-07
9.7711389e-09
5.9275265e-07
8.3029203e-09
5.9117684e-07
6.8612643e-09
5.8991339e-07
5.4423055e-09
5.8892445e-07
4.04174e-09
5.8818189e-07
2.6549398e-09
5.8766545e-07
1.2770608e-09
5.8736151e-07
-9.6855387e-11
5.8726235e-07
-1.4717827e-09
5.8736571e-07
-2.8526183e-09
5.8767474e-07
-4.2440782e-09
5.8819815e-07
-5.6505915e-09
5.8895061e-07
-7.0761826e-09
5.899537e-07
-8.524345e-09
5.9123718e-07
-9.9979163e-09
5.9284102e-07
-1.149897e-08
5.9481846e-07
-1.3028715e-08
5.9724057e-07
-1.4587098e-08
6.0020184e-07
-1.6172844e-08
6.0382584e-07
-1.7797631e-08
6.0831038e-07
-1.9545518e-08
6.1425716e-07
-2.1546792e-08
6.2342712e-07
-2.3218793e-08
6.3676695e-07
-2.186921e-08
6.4084298e-07
-1.4408806e-08
5.886843e-07
-3.8194517e-09
4.2070877e-07
1.4607655e-07
2.6576333e-09
1.167573e-07
1.2612181e-08
3.6448668e-07
2.2366568e-08
5.6122905e-07
2.5722511e-08
6.4581367e-07
2.4491575e-08
6.5123969e-07
2.2299703e-08
6.3512125e-07
2.0415831e-08
6.2252701e-07
1.8760353e-08
6.148222e-07
1.7171741e-08
6.0937176e-07
1.5611006e-08
6.0503085e-07
1.4077067e-08
6.0147989e-07
1.2570442e-08
5.9856561e-07
1.1090388e-08
5.9617113e-07
9.6355997e-09
5.9420744e-07
8.2042571e-09
5.9260819e-07
6.7939965e-09
5.9132365e-07
5.4019566e-09
5.9031649e-07
4.0248621e-09
5.8955899e-07
2.6591222e-09
5.8903119e-07
1.3009306e-09
5.887197e-07
-5.3634923e-11
5.8861691e-07
-1.4085067e-09
5.8872058e-07
-2.7675419e-09
5.8903378e-07
-4.1344059e-09
5.8956501e-07
-5.5124748e-09
5.9032868e-07
-6.9047229e-09
5.9134595e-07
-8.3136133e-09
5.9264607e-07
-9.7410017e-09
5.9426841e-07
-1.1188072e-08
5.9626553e-07
-1.2655275e-08
5.9870777e-07
-1.4142e-08
6.0168856e-07
-1.5647488e-08
6.0533132e-07
-1.7188145e-08
6.0985104e-07
-1.8852253e-08
6.1592127e-07
-2.0726047e-08
6.2530091e-07
-2.2104178e-08
6.3814508e-07
-2.0367232e-08
6.3910604e-07
-1.2994287e-08
5.8131135e-07
-3.2932697e-09
4.1100775e-07
1.4278328e-07
2.409658e-09
1.1434867e-07
1.1476575e-08
3.5542194e-07
2.0896752e-08
5.5181076e-07
2.4592028e-08
6.4211911e-07
2.3720369e-08
6.5211132e-07
2.1673458e-08
6.3716803e-07
1.985259e-08
6.2434784e-07
1.8262956e-08
6.1641184e-07
1.6745472e-08
6.1088925e-07
1.5252214e-08
6.0652411e-07
1.377946e-08
6.0295265e-07
1.2327558e-08
6.0001751e-07
1.0895991e-08
5.976027e-07
9.4838602e-09
5.9561957e-07
8.0899261e-09
5.9400212e-07
6.7125296e-09
5.9270104e-07
5.3495946e-09
5.9167943e-07
3.9986804e-09
5.909099e-07
2.6570595e-09
5.9037281e-07
1.3218064e-09
5.9005495e-07
-1.011197e-11
5.8994883e-07
-1.3417455e-09
5.9005221e-07
-2.6760528e-09
5.9036809e-07
-4.0158164e-09
5.9090477e-07
-5.3635435e-09
5.9167641e-07
-6.7213663e-09
5.9270377e-07
-8.0909558e-09
5.9401566e-07
-9.4734578e-09
5.9565091e-07
-1.0869472e-08
5.9766155e-07
-1.2279023e-08
6.0011732e-07
-1.3701347e-08
6.0311088e-07
-1.5136791e-08
6.0676677e-07
-1.6606678e-08
6.1132093e-07
-1.8200501e-08
6.1751509e-07
-1.9956837e-08
6.2705725e-07
-2.1067313e-08
6.3925556e-07
-1.9017133e-08
6.3705585e-07
-1.1790811e-08
5.7408503e-07
-2.8925307e-09
4.0210947e-07
1.3989075e-07
2.2149483e-09
1.1213492e-07
1.0504588e-08
3.4713486e-07
1.9570197e-08
5.4274742e-07
2.353166e-08
6.3815859e-07
2.2990447e-08
6.5265254e-07
2.1085823e-08
6.3907251e-07
1.9320475e-08
6.2611313e-07
1.7785143e-08
6.1794717e-07
1.6328799e-08
6.1234559e-07
1.4895474e-08
6.0795743e-07
1.3478322e-08
6.043698e-07
1.2077235e-08
6.014186e-07
1.0691714e-08
5.9898822e-07
9.3210597e-09
5.9699023e-07
7.9643992e-09
5.9535878e-07
6.6205782e-09
5.9404487e-07
5.2881195e-09
5.9301188e-07
3.9652458e-09
5.9223278e-07
2.6499346e-09
5.9168812e-07
1.33999e-09
5.913649e-07
3.3123889e-11
5.912557e-07
-1.2729598e-09
5.913583e-07
-2.5804805e-09
5.9167561e-07
-3.8914915e-09
5.9221579e-07
-5.2077966e-09
5.9299271e-07
-6.53087e-09
5.9402684e-07
-7.8617934e-09
5.9534658e-07
-9.2012252e-09
5.9699035e-07
-1.0549417e-08
5.9900974e-07
-1.190622e-08
6.0147412e-07
-1.3271011e-08
6.0447567e-07
-1.4645662e-08
6.0814142e-07
-1.6056239e-08
6.1273151e-07
-1.7590367e-08
6.1904922e-07
-1.9237093e-08
6.2870397e-07
-2.010403e-08
6.401225e-07
-1.7802568e-08
6.3475439e-07
-1.0762456e-08
5.6704492e-07
-2.5847812e-09
3.9393179e-07
1.3730597e-07
2.0560183e-09
1.100803e-07
9.6640827e-09
3.3952977e-07
1.8367297e-08
5.3404692e-07
2.2534443e-08
6.3399265e-07
2.2296859e-08
6.5289021e-07
2.0532975e-08
6.4083622e-07
1.881857e-08
6.2782747e-07
1.7328448e-08
6.1943728e-07
1.5924743e-08
6.137493e-07
1.454469e-08
6.0933748e-07
1.3178036e-08
6.0573645e-07
1.1823994e-08
6.0277264e-07
1.0481956e-08
6.0033026e-07
9.1512733e-09
5.9832091e-07
7.8312845e-09
5.9667877e-07
6.5211806e-09
5.9535497e-07
5.2199294e-09
5.9431314e-07
3.9262694e-09
5.9352644e-07
2.6387426e-09
5.9297565e-07
1.3557484e-09
5.9264789e-07
7.5612543e-11
5.9253583e-07
-1.2033479e-09
5.9263726e-07
-2.4827391e-09
5.92955e-07
-3.7640267e-09
5.9349707e-07
-5.0484598e-09
5.9427714e-07
-6.3370128e-09
5.953154e-07
-7.6303463e-09
5.9663991e-07
-8.9288063e-09
5.9828881e-07
-1.0232476e-08
6.0031341e-07
-1.1541205e-08
6.0278285e-07
-1.285473e-08
6.057892e-07
-1.4176721e-08
6.0946341e-07
-1.5537521e-08
6.140923e-07
-1.7019931e-08
6.2053163e-07
-1.8563045e-08
6.3024709e-07
-1.9208279e-08
6.4076773e-07
-1.6706924e-08
6.3225304e-07
-9.8781121e-09
5.602161e-07
-2.3449085e-09
3.8639859e-07
1.3496106e-07
1.9211954e-09
1.0816072e-07
8.9299111e-09
3.3252452e-07
1.7271268e-08
5.2570878e-07
2.159382e-08
6.2967163e-07
2.1634888e-08
6.5284931e-07
2.001078e-08
6.4246015e-07
1.8344985e-08
6.2949317e-07
1.689312e-08
6.2088913e-07
1.5534939e-08
6.1510748e-07
1.4202381e-08
6.1067004e-07
1.288166e-08
6.0705717e-07
1.157115e-08
6.0408315e-07
1.0270049e-08
6.0163136e-07
8.9776659e-09
5.9961329e-07
7.6934368e-09
5.97963e-07
6.4167762e-09
5.9663163e-07
5.1469719e-09
5.9558294e-07
3.8831547e-09
5.9479025e-07
2.6243091e-09
5.9423449e-07
1.3693104e-09
5.9390289e-07
1.1697725e-10
5.9378817e-07
-1.1338743e-09
5.9388811e-07
-2.3843621e-09
5.9420549e-07
-3.6354859e-09
5.947482e-07
-4.888068e-09
5.9552973e-07
-6.1427153e-09
5.9657004e-07
-7.3998017e-09
5.97897e-07
-8.6594956e-09
5.995485e-07
-9.9218377e-09
6.0157575e-07
-1.1186799e-08
6.0404781e-07
-1.2454623e-08
6.0705702e-07
-1.3730927e-08
6.1073971e-07
-1.5049658e-08
6.1541104e-07
-1.6486076e-08
6.2196804e-07
-1.7930088e-08
6.316911e-07
-1.8373245e-08
6.4121089e-07
-1.5714508e-08
6.295943e-07
-9.1116037e-09
5.536132e-07
-2.1539387e-09
3.7944093e-07
1.3280712e-07
1.8029361e-09
1.0635966e-07
8.2825571e-09
3.2604892e-07
1.6268025e-08
5.1772712e-07
2.0703965e-08
6.252376e-07
2.1000336e-08
6.5255323e-07
1.9515196e-08
6.4394509e-07
1.7897337e-08
6.3111091e-07
1.6478578e-08
6.2230787e-07
1.5160049e-08
6.1642602e-07
1.3870036e-08
6.1196006e-07
1.2591234e-08
6.0833597e-07
1.1321056e-08
6.0535333e-07
1.0058455e-08
6.0289396e-07
8.8026402e-09
6.0086911e-07
7.5530686e-09
5.9921257e-07
6.3092855e-09
5.9787541e-07
5.0708004e-09
5.9682142e-07
3.8370336e-09
5.9602402e-07
2.6073092e-09
5.9546422e-07
1.3808747e-09
5.9512932e-07
1.5693774e-10
5.950121e-07
-1.0652902e-09
5.9511033e-07
-2.286545e-09
5.9542674e-07
-3.5074661e-09
5.9596912e-07
-4.7285574e-09
5.9675082e-07
-5.9501649e-09
5.9779165e-07
-7.1724816e-09
5.9911932e-07
-8.3955975e-09
6.0077161e-07
-9.6195984e-09
6.0279975e-07
-1.0844652e-08
6.0527287e-07
-1.2071609e-08
6.0828398e-07
-1.3308079e-08
6.1197618e-07
-1.4590801e-08
6.1669376e-07
-1.5985087e-08
6.2336233e-07
-1.7333377e-08
6.3303939e-07
-1.7592075e-08
6.4146958e-07
-1.4811176e-08
6.268134e-07
-8.4413646e-09
5.4724339e-07
-1.9978699e-09
3.7299743e-07
1.3080925e-07
1.6965181e-09
1.0466531e-07
7.7069164e-09
3.2004318e-07
1.5345873e-08
5.1009263e-07
1.9859878e-08
6.2072594e-07
2.0389626e-08
6.5202392e-07
1.9042495e-08
6.4529202e-07
1.7473058e-08
6.326802e-07
1.6083742e-08
6.2369716e-07
1.4800072e-08
6.1770969e-07
1.3548398e-08
6.1321173e-07
1.2308024e-08
6.0957635e-07
1.107531e-08
6.0658604e-07
9.8489324e-09
6.0412034e-07
8.6279732e-09
6.0209006e-07
7.4118558e-09
6.0042869e-07
6.2001899e-09
5.9908708e-07
4.9926298e-09
5.9802898e-07
3.7888033e-09
5.9722784e-07
2.5882878e-09
5.9666473e-07
1.3906153e-09
5.9632699e-07
1.9529377e-10
5.9620742e-07
-9.9816036e-10
5.9630379e-07
-2.1901897e-09
5.9661877e-07
-3.3811637e-09
5.9716009e-07
-4.5713558e-09
5.9794101e-07
-5.7609373e-09
5.9898123e-07
-6.9499999e-09
6.0030838e-07
-8.1386261e-09
6.0196024e-07
-9.327002e-09
6.0398813e-07
-1.0515538e-08
6.064614e-07
-1.170575e-08
6.0947419e-07
-1.2907208e-08
6.1317764e-07
-1.4158541e-08
6.1794509e-07
-1.5513069e-08
6.2471686e-07
-1.6768206e-08
6.3429453e-07
-1.6858328e-08
6.415597e-07
-1.398457e-08
6.2393964e-07
-7.8499008e-09
5.4110872e-07
-1.8665965e-09
3.6701413e-07
1.2894266e-07
1.599069e-09
1.0306875e-07
7.1912619e-09
3.1445636e-07
1.4495114e-08
5.0279401e-07
1.905734e-08
6.1616659e-07
1.9799804e-08
6.5128209e-07
1.8589359e-08
6.4650226e-07
1.7069589e-08
6.341998e-07
1.5707252e-08
6.2505945e-07
1.445457e-08
6.1896237e-07
1.3237681e-08
6.1442862e-07
1.2032721e-08
6.1078131e-07
1.083493e-08
6.0778383e-07
9.6426884e-09
6.0531258e-07
8.4549365e-09
6.0327782e-07
7.2710333e-09
6.0161259e-07
6.0906046e-09
6.0026751e-07
4.9133912e-09
5.992062e-07
3.7391625e-09
5.9840207e-07
2.5676794e-09
5.9783621e-07
1.3986849e-09
5.9749599e-07
2.3191333e-10
5.9737419e-07
-9.3289033e-10
5.9746859e-07
-2.0959498e-09
5.9778183e-07
-3.2574383e-09
5.9832158e-07
-4.4174704e-09
5.9910104e-07
-5.5761088e-09
6.0013987e-07
-6.7334036e-09
6.0146567e-07
-7.889477e-09
6.0311631e-07
-9.0446477e-09
6.051433e-07
-1.0199591e-08
6.0761634e-07
-1.1356525e-08
6.1063112e-07
-1.252687e-08
6.1434799e-07
-1.3750213e-08
6.1916843e-07
-1.5066208e-08
6.2603285e-07
-1.6230233e-08
6.3545855e-07
-1.6166195e-08
6.4149567e-07
-1.3224117e-08
6.2099756e-07
-7.3231778e-09
5.3520778e-07
-1.7529789e-09
3.6144393e-07
1.2718968e-07
1.5088783e-09
1.0156278e-07
6.7264114e-09
3.0924502e-07
1.3707673e-08
4.9581884e-07
1.8292803e-08
6.1158492e-07
1.9228469e-08
6.5034729e-07
1.8152903e-08
6.4757765e-07
1.668449e-08
6.3566801e-07
1.5347617e-08
6.2639627e-07
1.4122828e-08
6.2018716e-07
1.293773e-08
6.1561373e-07
1.1765594e-08
6.1195344e-07
1.0600493e-08