/*--------------------------------*- C++ -*----------------------------------*\
  =========                 |
  \\      /  F ield         | OpenFOAM: The Open Source CFD Toolbox
   \\    /   O peration     | Website:  https://openfoam.org
    \\  /    A nd           | Version:  10
     \\/     M anipulation  |
\*---------------------------------------------------------------------------*/
FoamFile
{
    format      ascii;
    class       surfaceScalarField;
    location    "0.17";
    object      phi_0;
}
// * * * * * * * * * * * * * * * * * * * * * * * * * * * * * * * * * * * * * //

dimensions      [1 0 -1 0 0 0 0];

internalField   nonuniform List<scalar> 
7860
(
3.9895422e-08
5.288126e-07
1.2192296e-08
5.9641092e-07
7.4274687e-09
5.7347257e-07
5.4989343e-09
5.7063623e-07
4.1145047e-09
5.700921e-07
3.2006653e-09
5.6962148e-07
2.5586984e-09
5.6934959e-07
2.0789105e-09
5.691874e-07
1.7089722e-09
5.6907754e-07
1.4163586e-09
5.6900021e-07
1.1792733e-09
5.6894467e-07
9.8295248e-10
5.689039e-07
8.1705139e-10
5.6887347e-07
6.7407881e-10
5.6885054e-07
5.4846042e-10
5.6883318e-07
4.3593461e-10
5.6882009e-07
3.3314649e-10
5.6881035e-07
2.3736769e-10
5.6880333e-07
1.4629409e-10
5.6879863e-07
5.7893364e-11
5.6879595e-07
-2.971845e-11
5.6879517e-07
-1.1838463e-10
5.6879622e-07
-2.1001291e-10
5.6879918e-07
-3.0668203e-10
5.6880422e-07
-4.1077396e-10
5.6881165e-07
-5.2513702e-10
5.6882192e-07
-6.533064e-10
5.6883573e-07
-7.9981738e-10
5.6885408e-07
-9.7066553e-10
5.6887842e-07
-1.1740138e-09
5.6891092e-07
-1.4213652e-09
5.6895493e-07
-1.7295332e-09
5.6901576e-07
-2.1234987e-09
5.6910157e-07
-2.6431459e-09
5.6922726e-07
-3.37089e-09
5.6943537e-07
-4.4622989e-09
5.6979906e-07
-6.0078375e-09
5.7025321e-07
-9.5069756e-09
5.7220684e-07
-2.9574603e-08
5.8877538e-07
5.3913332e-07
5.9671165e-08
4.6914145e-07
3.6664385e-08
6.1941769e-07
2.2626636e-08
5.8751031e-07
1.625198e-08
5.7701089e-07
1.2288904e-08
5.7405517e-07
9.6046955e-09
5.7230569e-07
7.6760028e-09
5.7127829e-07
6.2347868e-09
5.7062862e-07
5.1254468e-09
5.7018688e-07
4.2479067e-09
5.6987775e-07
3.5368288e-09
5.6965575e-07
2.9480409e-09
5.6949269e-07
2.4504943e-09
5.6937102e-07
2.0217104e-09
5.6927932e-07
1.644971e-09
5.6920992e-07
1.3074952e-09
5.6915756e-07
9.9922194e-10
5.6911862e-07
7.1196902e-10
5.6909059e-07
4.3882686e-10
5.6907177e-07
1.736998e-10
5.6906108e-07
-8.906252e-11
5.6905793e-07
-3.5498751e-10
5.6906214e-07
-6.2979143e-10
5.6907399e-07
-9.1971091e-10
5.6909414e-07
-1.2318894e-09
5.6912383e-07
-1.5748684e-09
5.691649e-07
-1.9592497e-09
5.6922011e-07
-2.3986339e-09
5.6929346e-07
-2.9110088e-09
5.6939079e-07
-3.520872e-09
5.6952079e-07
-4.2626478e-09
5.6969671e-07
-5.1867073e-09
5.6993982e-07
-6.3696825e-09
5.7028454e-07
-7.9303005e-09
5.7078788e-07
-1.0071793e-08
5.7157686e-07
-1.3200308e-08
5.7292757e-07
-1.813063e-08
5.7518353e-07
-2.8173065e-08
5.8224928e-07
-4.5799634e-08
6.0640194e-07
4.9333368e-07
6.000676e-08
4.0913471e-07
5.0484297e-08
6.2894016e-07
3.3367848e-08
6.0462676e-07
2.481484e-08
5.855639e-07
1.9320406e-08
5.7954961e-07
1.5328749e-08
5.7629735e-07
1.2358141e-08
5.7424889e-07
1.0099222e-08
5.7288754e-07
8.3386081e-09
5.7194749e-07
6.9331735e-09
5.7128318e-07
5.7868338e-09
5.7080209e-07
4.8328184e-09
5.704467e-07
4.0233569e-09
5.7018048e-07
3.3234581e-09
5.6997922e-07
2.706852e-09
5.6982653e-07
2.1533003e-09
5.6971111e-07
1.646771e-09
5.6962515e-07
1.1741582e-09
5.695632e-07
7.24348e-10
5.6952158e-07
2.875052e-10
5.6949792e-07
-1.4550371e-10
5.6949094e-07
-5.8361683e-10
5.6950026e-07
-1.0360699e-09
5.6952644e-07
-1.5129168e-09
5.6957099e-07
-2.0256318e-09
5.6963654e-07
-2.5878695e-09
5.6972714e-07
-3.2164763e-09
5.6984872e-07
-3.9329014e-09
5.7000989e-07
-4.7652473e-09
5.7022314e-07
-5.7513327e-09
5.7050687e-07
-6.943352e-09
5.7088873e-07
-8.415513e-09
5.7141198e-07
-1.0277225e-08
5.7214625e-07
-1.2690376e-08
5.7320103e-07
-1.5888141e-08
5.7477463e-07
-2.0232438e-08
5.7727187e-07
-2.6701294e-08
5.8165239e-07
-3.8940978e-08
5.9448896e-07
-4.8162089e-08
6.1562305e-07
4.4517159e-07
5.4876359e-08
3.5425839e-07
5.7447624e-08
6.263689e-07
4.0463113e-08
6.2161126e-07
3.0774447e-08
5.9525256e-07
2.4638753e-08
5.856853e-07
1.9948125e-08
5.8098798e-07
1.630902e-08
5.77888e-07
1.3462966e-08
5.7573359e-07
1.119784e-08
5.7421262e-07
9.3619296e-09
5.7311909e-07
7.8473427e-09
5.7231667e-07
6.5755834e-09
5.7171846e-07
5.4887973e-09
5.7126727e-07
4.5436638e-09
5.7092436e-07
3.7070796e-09
5.7066311e-07
2.9531789e-09
5.7046501e-07
2.2612352e-09
5.7031709e-07
1.6141438e-09
5.7021029e-07
9.9729019e-10
5.7013843e-07
3.9767001e-10
5.7009754e-07
-1.9683397e-10
5.7008544e-07
-7.9809214e-10
5.7010152e-07
-1.418349e-09
5.701467e-07
-2.0708777e-09
5.7022352e-07
-2.7707304e-09
5.7033639e-07
-3.5356667e-09
5.7049207e-07
-4.3873602e-09
5.7070041e-07
-5.3530319e-09
5.7097556e-07
-6.4677307e-09
5.7133784e-07
-7.7775939e-09
5.7181674e-07
-9.3444142e-09
5.7245555e-07
-1.1252026e-08
5.7331959e-07
-1.3616707e-08
5.7451093e-07
-1.6599822e-08
5.7618414e-07
-2.0399174e-08
5.7857398e-07
-2.5281449e-08
5.8215414e-07
-3.2506223e-08
5.8887716e-07
-4.5090091e-08
6.0707283e-07
-4.6542279e-08
6.1707524e-07
3.9862931e-07
4.7962554e-08
3.062959e-07
6.0070267e-08
6.1426122e-07
4.539374e-08
6.3628777e-07
3.4869275e-08
6.0577702e-07
2.8393857e-08
5.9216072e-07
2.3413789e-08
5.8596805e-07
1.9428799e-08
5.8187299e-07
1.6224131e-08
5.7893826e-07
1.3615258e-08
5.7682149e-07
1.1462764e-08
5.7527158e-07
9.6615124e-09
5.7411792e-07
8.1314541e-09
5.7324852e-07
6.8115552e-09
5.7258716e-07
5.6547926e-09
5.7208112e-07
4.6243798e-09
5.7169352e-07
3.6910187e-09
5.7139837e-07
2.8308587e-09
5.7117725e-07
2.0239581e-09
5.7101719e-07
1.2530995e-09
5.7090929e-07
5.0284457e-10
5.708478e-07
-2.4125867e-10
5.7082954e-07
-9.9338598e-10
5.7085364e-07
-1.7681272e-09
5.7092144e-07
-2.5812088e-09
5.710366e-07
-3.4503098e-09
5.712055e-07
-4.3960457e-09
5.7143781e-07
-5.4432084e-09
5.7174757e-07
-6.6223757e-09
5.7215472e-07
-7.9720382e-09
5.726875e-07
-9.5414729e-09
5.7338617e-07
-1.139452e-08
5.7430859e-07
-1.3614005e-08
5.7553908e-07
-1.6308249e-08
5.7720518e-07
-1.9620876e-08
5.7949677e-07
-2.3722191e-08
5.8267529e-07
-2.8915038e-08
5.8734699e-07
-3.6775594e-08
5.9673772e-07
-4.844884e-08
6.1874607e-07
-4.3185358e-08
6.1181176e-07
3.5544395e-07
4.0332386e-08
2.6596361e-07
5.8986075e-08
5.956076e-07
4.832137e-08
6.4695247e-07
3.7579903e-08
6.1651847e-07
3.0920937e-08
5.9881968e-07
2.5886291e-08
5.9100269e-07
2.1772734e-08
5.8598654e-07
1.8385401e-08
5.8232559e-07
1.5571619e-08
5.7963527e-07
1.3209326e-08
5.7763388e-07
1.1202573e-08
5.7612468e-07
9.4760557e-09
5.7497504e-07
7.9706178e-09
5.740926e-07
6.639342e-09
5.7341239e-07
5.4445873e-09
5.7288828e-07
4.3557213e-09
5.7248724e-07
3.3473412e-09
5.7218563e-07
2.3978734e-09
5.7196666e-07
1.4884566e-09
5.7181871e-07
6.0202046e-10
5.7173423e-07
-2.7750437e-10
5.7170907e-07
-1.1659036e-09
5.7174204e-07
-2.0793822e-09
5.7183491e-07
-3.0352923e-09
5.7199251e-07
-4.0529391e-09
5.7222314e-07
-5.1545278e-09
5.725394e-07
-6.3663139e-09
5.7295936e-07
-7.720039e-09
5.7350845e-07
-9.2547281e-09
5.7422219e-07
-1.1018997e-08
5.7515044e-07
-1.3074085e-08
5.7636368e-07
-1.5497277e-08
5.7796227e-07
-1.8385994e-08
5.8009389e-07
-2.1864437e-08
5.8297521e-07
-2.6088431e-08
5.8689929e-07
-3.1467266e-08
5.9272582e-07
-3.963358e-08
6.0490403e-07
-4.9152879e-08
6.2826537e-07
-3.8567853e-08
6.0122673e-07
3.168761e-07
3.2858612e-08
2.3310512e-07
5.524016e-08
5.7322617e-07
4.9220828e-08
6.529718e-07
3.9050779e-08
6.266885e-07
3.2420364e-08
6.0545009e-07
2.7508817e-08
5.9591424e-07
2.3429318e-08
5.9006604e-07
1.9994307e-08
5.857606e-07
1.7087207e-08
5.8254237e-07
1.4605783e-08
5.801153e-07
1.2466232e-08
5.7826423e-07
1.0601289e-08
5.7683998e-07
8.9566974e-09
5.7573719e-07
7.4882482e-09
5.7488084e-07
6.1595944e-09
5.7421693e-07
4.9404921e-09
5.7370634e-07
3.8053583e-09
5.7332076e-07
2.7320938e-09
5.7303992e-07
1.701107e-09
5.7284969e-07
6.9448327e-10
5.7274086e-07
-3.0474744e-10
5.727083e-07
-1.3132848e-09
5.7275058e-07
-2.3482238e-09
5.7286985e-07
-3.4277381e-09
5.7307202e-07
-4.5718217e-09
5.7336722e-07
-5.8031358e-09
5.7377071e-07
-7.1480061e-09
5.7430423e-07
-8.6376236e-09
5.7499807e-07
-1.0309494e-08
5.7589406e-07
-1.2209216e-08
5.7705016e-07
-1.4392865e-08
5.7854733e-07
-1.692989e-08
5.8049929e-07
-1.9905159e-08
5.8306916e-07
-2.3419484e-08
5.8648953e-07
-2.7614298e-08
5.910941e-07
-3.3007578e-08
5.981191e-07
-4.0983612e-08
6.1288006e-07
-4.7663524e-08
6.3494528e-07
-3.3363877e-08
5.8692709e-07
2.8351222e-07
2.6184484e-08
2.0692079e-07
5.0120916e-08
5.4928991e-07
4.8479072e-08
6.5461367e-07
3.9477262e-08
6.3569029e-07
3.3064382e-08
6.1186297e-07
2.839946e-08
6.0057916e-07
2.4481046e-08
5.9398446e-07
2.1107345e-08
5.891343e-07
1.819745e-08
5.8545227e-07
1.5672114e-08
5.8264064e-07
1.3462184e-08
5.8047416e-07
1.1510464e-08
5.787917e-07
9.7694184e-09
5.7747824e-07
8.1992381e-09
5.7645102e-07
6.7663709e-09
5.756498e-07
5.4422506e-09
5.7503046e-07
4.2022085e-09
5.7456081e-07
3.02455e-09
5.7421758e-07
1.8897573e-09
5.7398449e-07
7.7978629e-10
5.7385083e-07
-3.2257005e-10
5.7381065e-07
-1.4342773e-09
5.7386228e-07
-2.5726524e-09
5.7400823e-07
-3.7559665e-09
5.7425534e-07
-5.0040877e-09
5.7461535e-07
-6.3391956e-09
5.7510582e-07
-7.7865934e-09
5.7575163e-07
-9.3756559e-09
5.7658713e-07
-1.1140936e-08
5.7765934e-07
-1.3123434e-08
5.7903266e-07
-1.5372247e-08
5.8079614e-07
-1.7946685e-08
5.8307373e-07
-2.091623e-08
5.8603871e-07
-2.4356117e-08
5.8992942e-07
-2.8401826e-08
5.9513981e-07
-3.3657919e-08
6.033752e-07
-4.1028811e-08
6.2025095e-07
-4.4768132e-08
6.3868461e-07
-2.8190711e-08
5.7034967e-07
2.5532151e-07
2.056594e-08
1.8635503e-07
4.456935e-08
5.2528675e-07
4.6624963e-08
6.5255811e-07
3.9135792e-08
6.4317942e-07
3.3067474e-08
6.1793127e-07
2.8701978e-08
6.0494466e-07
2.5023381e-08
5.9766306e-07
2.1790213e-08
5.9236747e-07
1.8947131e-08
5.8829535e-07
1.6438059e-08
5.8514971e-07
1.4209479e-08
5.8270274e-07
1.2215188e-08
5.8078599e-07
1.0415382e-08
5.7927804e-07
8.7756822e-09
5.7809072e-07
7.2663091e-09
5.7715917e-07
5.8612711e-09
5.764355e-07
4.5376246e-09
5.7588445e-07
3.2748085e-09
5.754804e-07
2.0540373e-09
5.7520526e-07
8.5774393e-10
5.7504712e-07
-3.309402e-10
5.7499934e-07
-1.528681e-09
5.7506003e-07
-2.7524396e-09
5.7523199e-07
-4.0199728e-09
5.7552287e-07
-5.3503582e-09
5.7594573e-07
-6.7645597e-09
5.7652002e-07
-8.2860448e-09
5.7727311e-07
-9.9414694e-09
5.7824255e-07
-1.1761444e-08
5.7947931e-07
-1.3781329e-08
5.8105254e-07
-1.6042143e-08
5.8305696e-07
-1.8591765e-08
5.8562335e-07
-2.1483337e-08
5.8893028e-07
-2.4770925e-08
5.9321701e-07
-2.8600581e-08
5.9896947e-07
-3.3618754e-08
6.0839337e-07
-4.0102514e-08
6.2673471e-07
-4.1124768e-08
6.3970686e-07
-2.3401697e-08
5.5262659e-07
2.3191981e-07
1.6010015e-08
1.7034522e-07
3.9127853e-08
5.0216924e-07
4.4096717e-08
6.4758936e-07
3.8268036e-08
6.4900807e-07
3.2633693e-08
6.2356559e-07
2.8572359e-08
6.0900599e-07
2.5165436e-08
6.0106998e-07
2.2119225e-08
5.9541368e-07
1.938982e-08
5.9102475e-07
1.6941134e-08
5.8759839e-07
1.4734166e-08
5.849097e-07
1.2733292e-08
5.8278686e-07
1.0906576e-08
5.8110476e-07
9.2254675e-09
5.7977183e-07
7.6644645e-09
5.7872017e-07
6.2006899e-09
5.7789927e-07
4.8134665e-09
5.7727168e-07
3.4838899e-09
5.7680997e-07
2.1944068e-09
5.7649474e-07
9.2840691e-10
5.7631312e-07
-3.3017372e-10
5.7625792e-07
-1.5972394e-09
5.7632709e-07
-2.8889269e-09
5.7652367e-07
-4.2219958e-09
5.7685594e-07
-5.6142278e-09
5.7733796e-07
-7.0848413e-09
5.7799063e-07
-8.6549182e-09
5.7884319e-07
-1.0347843e-08
5.7993548e-07
-1.2189757e-08
5.8132123e-07
-1.420998e-08
5.8307276e-07
-1.6441371e-08
5.8528835e-07
-1.8920714e-08
5.8810269e-07
-2.1686195e-08
5.9169576e-07
-2.4778326e-08
5.9630914e-07
-2.8365671e-08
6.0255681e-07
-3.3074386e-08
6.1310208e-07
-3.8499645e-08
6.3215997e-07
-3.7175887e-08
6.383831e-07
-1.9166172e-08
5.3461688e-07
2.1275364e-07
1.2417725e-08
1.5792774e-07
3.4095479e-08
4.8049191e-07
4.1223506e-08
6.4046151e-07
3.7052092e-08
6.5317945e-07
3.1917089e-08
6.2870056e-07
2.8145251e-08
6.1277782e-07
2.5010779e-08
6.0420445e-07
2.2171567e-08
5.9825289e-07
1.9582561e-08
5.9361376e-07
1.7223137e-08
5.8995782e-07
1.5066635e-08
5.8706621e-07
1.3086714e-08
5.8476678e-07
1.1258704e-08
5.8293277e-07
9.5597212e-09
5.8147081e-07
7.9686124e-09
5.8031128e-07
6.4658318e-09
5.7940205e-07
5.033259e-09
5.7870425e-07
3.6539723e-09
5.7818926e-07
2.3119932e-09
5.7783672e-07
9.9201578e-10
5.776331e-07
-3.2087038e-10
5.775708e-07
-1.6414585e-09
5.7764768e-07
-2.984711e-09
5.7786693e-07
-4.3660401e-09
5.7823727e-07
-5.8015861e-09
5.7877351e-07
-7.3084909e-09
5.7949754e-07
-8.9051573e-09
5.8043986e-07
-1.0611481e-08
5.816418e-07
-1.2449059e-08
5.8315881e-07
-1.4441351e-08
5.8506506e-07
-1.6613711e-08
5.8746071e-07
-1.8993065e-08
5.9048205e-07
-2.1604965e-08
5.9430766e-07
-2.4483615e-08
5.9918779e-07
-2.7823048e-08
6.0589625e-07
-3.2167438e-08
6.1744647e-07
-3.6462304e-08
6.3645484e-07
-3.3222696e-08
6.3514349e-07
-1.554575e-08
5.1693993e-07
1.9720789e-07
9.6504375e-09
1.4827759e-07
2.9624498e-08
4.6051839e-07
3.8251933e-08
6.3183434e-07
3.5626063e-08
6.5580531e-07
3.1028752e-08
6.3329782e-07
2.7524935e-08
6.1628163e-07
2.4645903e-08
6.0708348e-07
2.2015945e-08
6.0088285e-07
1.9579157e-08
5.9605055e-07
1.7325524e-08
5.9221145e-07
1.5238399e-08
5.8915333e-07
1.3299166e-08
5.8670602e-07
1.1489457e-08
5.8474248e-07
9.7915071e-09
5.8316876e-07
8.1882747e-09
5.8191451e-07
6.6634977e-09
5.8092683e-07
5.2016891e-09
5.8016606e-07
3.788062e-09
5.7960289e-07
2.4084085e-09
5.7921637e-07
1.0489482e-09
5.7899256e-07
-3.0384129e-10
5.7892359e-07
-1.6634044e-09
5.7900724e-07
-3.0432946e-09
5.7924682e-07
-4.457355e-09
5.7965133e-07
-5.9198881e-09
5.8023604e-07
-7.4458077e-09
5.8102346e-07
-9.0507623e-09
5.8204481e-07
-1.075121e-08
5.8334225e-07
-1.2564449e-08
5.8497204e-07
-1.4508605e-08
5.8700921e-07
-1.6602463e-08
5.8955456e-07
-1.8864548e-08
5.9274413e-07
-2.1310432e-08
5.9675354e-07
-2.3974205e-08
6.0185156e-07
-2.7071461e-08
6.089935e-07
-3.1015989e-08
6.21391e-07
-3.4194558e-08
6.3963341e-07
-2.9470255e-08
6.3041919e-07
-1.2535733e-08
5.0000541e-07
1.8467216e-07
7.5593202e-09
1.4071861e-07
2.5762533e-08
4.4231584e-07
3.5352805e-08
6.2224444e-07
3.4099731e-08
6.5705839e-07
3.0051576e-08
6.3734591e-07
2.6791306e-08
6.1954188e-07
2.4140408e-08
6.0973438e-07
2.1710063e-08
6.033132e-07
1.9426821e-08
5.9833379e-07
1.7286287e-08
5.9435198e-07
1.5279538e-08
5.9116008e-07
1.3394157e-08
5.885914e-07
1.1616988e-08
5.8651965e-07
9.9346726e-09
5.8485108e-07
8.3338506e-09
5.8351534e-07
6.8013214e-09
5.8245936e-07
5.324148e-09
5.8164323e-07
3.8896886e-09
5.8103735e-07
2.4855776e-09
5.8062048e-07
1.0996702e-09
5.8037846e-07
-2.8003924e-10
5.803033e-07
-1.66551e-09
5.8039271e-07
-3.068758e-09
5.8065006e-07
-4.5019492e-09
5.8108452e-07
-5.9774782e-09
5.8171157e-07
-7.5080237e-09
5.82554e-07
-9.1065663e-09
5.8364335e-07
-1.0786354e-08
5.8502204e-07
-1.2560812e-08
5.867465e-07
-1.444342e-08
5.8889182e-07
-1.6447415e-08
5.9155856e-07
-1.8584449e-08
5.9488117e-07
-2.0863097e-08
5.9903219e-07
-2.3322416e-08
6.0431088e-07
-2.6191149e-08
6.1186223e-07
-2.9721014e-08
6.2492086e-07
-3.1857975e-08
6.4177037e-07
-2.6040831e-08
6.2460205e-07
-1.008943e-08
4.8405401e-07
1.7458273e-07
6.0037934e-09
1.3471522e-07
2.2487773e-08
4.2583267e-07
3.2627925e-08
6.1210479e-07
3.2553462e-08
6.571329e-07
2.904555e-08
6.4085375e-07
2.6004428e-08
6.2258297e-07
2.3549537e-08
6.1218927e-07
2.1301414e-08
6.0556132e-07
1.9165667e-08
6.0046954e-07
1.7138795e-08
5.9637885e-07
1.5217374e-08
5.930815e-07
1.339373e-08
5.9041504e-07
1.1658831e-08
5.8825455e-07
1.0002958e-08
5.8650695e-07
8.4159153e-09
5.8510238e-07
6.8872354e-09
5.8398804e-07
5.4063407e-09
5.8312412e-07
3.9626421e-09
5.8248104e-07
2.5455908e-09
5.8203753e-07
1.1446942e-09
5.8177936e-07
-2.5049536e-10
5.8169849e-07
-1.6504046e-09
5.8179262e-07
-3.0654724e-09
5.8206513e-07
-4.5061726e-09
5.8252522e-07
-5.9830222e-09
5.8318842e-07
-7.5065623e-09
5.8407754e-07
-9.0873018e-09
5.8522409e-07
-1.0735612e-08
5.8667035e-07
-1.2461566e-08
5.8847245e-07
-1.4274764e-08
5.9070502e-07
-1.618395e-08
5.9346774e-07
-1.819549e-08
5.9689271e-07
-2.0314035e-08
6.0115073e-07
-2.2587138e-08
6.0658398e-07
-2.5245576e-08
6.1452067e-07
-2.8363007e-08
6.2803829e-07
-2.9566661e-08
6.4297402e-07
-2.2989612e-08
6.18025e-07
-8.1383593e-09
4.6920276e-07
1.6644437e-07
4.8611497e-09
1.2985454e-07
1.9741637e-08
4.1095316e-07
3.0125505e-08
6.0172158e-07
3.1039517e-08
6.5621899e-07
2.8050064e-08
6.4384312e-07
2.5206484e-08
6.2542651e-07
2.2915318e-08
6.1448044e-07
2.0827961e-08
6.0764868e-07
1.882889e-08
6.0246861e-07
1.6911533e-08
5.9829621e-07
1.5075909e-08
5.9491712e-07
1.331778e-08
5.9217317e-07
1.163122e-08
5.8994111e-07
1.0009385e-08
5.8812878e-07
8.4447001e-09
5.8666706e-07
6.9290534e-09
5.8550369e-07
5.4539721e-09
5.845992e-07
4.0107572e-09
5.8392426e-07
2.5905799e-09
5.8345771e-07
1.1845459e-09
5.8318539e-07
-2.1626437e-10
5.830993e-07
-1.6207681e-09
5.8319712e-07
-3.0378587e-09
5.8348222e-07
-4.476376e-09
5.8396374e-07
-5.9450622e-09
5.846571e-07
-7.4524908e-09
5.8558497e-07
-9.0069636e-09
5.8677856e-07
-1.0616367e-08
5.8827975e-07
-1.2287988e-08
5.9014408e-07
-1.4028324e-08
5.9244535e-07
-1.5842661e-08
5.9528208e-07
-1.7733606e-08
5.9878365e-07
-1.9704684e-08
6.0312181e-07
-2.1813655e-08
6.0869295e-07
-2.4281352e-08
6.1698837e-07
-2.7000611e-08
6.3075755e-07
-2.7392631e-08
6.4336604e-07
-2.0325896e-08
6.1095826e-07
-6.6068457e-09
4.5548371e-07
1.5983752e-07
4.0290281e-09
1.2582607e-07
1.745162e-08
3.9753174e-07
2.785945e-08
5.9131459e-07
2.958844e-08
6.5449018e-07
2.7088211e-08
6.4634326e-07
2.4424548e-08
6.2809012e-07
2.2267788e-08
6.1663719e-07
2.0318683e-08
6.0959779e-07
1.8442973e-08
6.0434432e-07
1.662805e-08
6.0011113e-07
1.4875601e-08
5.9666957e-07
1.3183717e-08
5.9386505e-07
1.1548691e-08
5.9157613e-07
9.9658571e-09
5.8971162e-07
8.4297327e-09
5.8820319e-07
6.9341675e-09
5.8699925e-07
5.4725087e-09
5.8606086e-07
4.0377444e-09
5.8535902e-07
2.6226212e-09
5.8487283e-07
1.2197381e-09
5.8458828e-07
-1.7837915e-10
5.8449742e-07
-1.5792139e-09
5.8459796e-07
-2.9901993e-09
5.8489321e-07
-4.4186514e-09
5.8539219e-07
-5.8716896e-09
5.8611014e-07
-7.3561352e-09
5.8706942e-07
-8.8783832e-09
5.8830081e-07
-1.0444249e-08
5.8984561e-07
-1.205879e-08
5.9175862e-07
-1.3726134e-08
5.941127e-07
-1.5449042e-08
5.9700499e-07
-1.7227726e-08
6.0056233e-07
-1.9066884e-08
6.0496097e-07
-2.1034549e-08
6.1066062e-07
-2.3330329e-08
6.1928415e-07
-2.5673466e-08
6.3310069e-07
-2.5375549e-08
6.4306812e-07
-1.8031089e-08
6.036138e-07
-5.4205018e-09
4.4287312e-07
1.5441702e-07
3.4247532e-09
1.2240198e-07
1.5543883e-08
3.85414e-07
2.5823086e-08
5.8103645e-07
2.8215562e-08
6.5209798e-07
2.6171743e-08
6.4838699e-07
2.3674387e-08
6.305874e-07
2.1627145e-08
6.1868442e-07
1.9794697e-08
6.1143023e-07
1.802824e-08
6.0611078e-07
1.6307166e-08
6.0183221e-07
1.4633349e-08
5.9834339e-07
1.3006324e-08
5.9549208e-07
1.1423883e-08
5.9315857e-07
9.8829369e-09
5.9125256e-07
8.3796121e-09
5.8970651e-07
6.9093453e-09
5.8846952e-07
5.4670139e-09
5.8750319e-07
4.0470707e-09
5.8677896e-07
2.6436656e-09
5.8627624e-07
1.2507527e-09
5.8598119e-07
-1.3781543e-10
5.8588599e-07
-1.5282012e-09
5.8598834e-07
-2.9264991e-09
5.862915e-07
-4.3386455e-09
5.8680433e-07
-5.770319e-09
5.8754182e-07
-7.2268245e-09
5.8852592e-07
-8.7129597e-09
5.8978695e-07
-1.0232869e-08
5.9136552e-07
-1.1789895e-08
5.9331564e-07
-1.3386439e-08
5.9570924e-07
-1.5023531e-08
5.9864208e-07
-1.6700157e-08
6.0223896e-07
-1.8423916e-08
6.0668473e-07
-2.0271904e-08
6.125086e-07
-2.2412858e-08
6.214251e-07
-2.4406311e-08
6.3509414e-07
-2.3532154e-08
6.4219397e-07
-1.6071154e-08
5.961528e-07
-4.5109084e-09
4.3131287e-07
1.4990611e-07
2.9836959e-09
1.1941906e-07
1.3949935e-08
3.7444941e-07
2.3998495e-08
5.7098922e-07
2.6925942e-08
6.4917094e-07
2.5304927e-08
6.5000793e-07
2.2963892e-08
6.3292835e-07
2.1006126e-08
6.2064216e-07
1.9270771e-08
6.1316559e-07
1.7599773e-08
6.0778178e-07
1.5963468e-08
6.0346851e-07
1.4362721e-08
5.9994414e-07
1.279782e-08
5.9705698e-07
1.1267497e-08
5.946889e-07
9.7697455e-09
5.9275031e-07
8.3018902e-09
5.9117437e-07
6.8606131e-09
5.8991079e-07
5.442046e-09
5.8892176e-07
4.0418829e-09
5.8817913e-07
2.6554932e-09
5.8766263e-07
1.2780301e-09
5.8735865e-07
-9.5467177e-11
5.8725948e-07
-1.4699748e-09
5.8736285e-07
-2.850393e-09
5.8767192e-07
-4.2414406e-09
5.8819538e-07
-5.6475494e-09
5.8894792e-07
-7.0727468e-09
5.8995112e-07
-8.5205295e-09
5.9123473e-07
-9.9937382e-09
5.9283873e-07
-1.149445e-08
5.9481635e-07
-1.3023876e-08
5.9723867e-07
-1.4581968e-08
6.0020017e-07
-1.6167454e-08
6.0382444e-07
-1.779201e-08
6.0830928e-07
-1.9539664e-08
6.1425626e-07
-2.1540658e-08
6.2342609e-07
-2.3212505e-08
6.3676599e-07
-2.1863521e-08
6.4084498e-07
-1.4405e-08
5.8869428e-07
-3.8181639e-09
4.2072604e-07
1.4608795e-07
2.6570196e-09
1.1676296e-07
1.2610009e-08
3.6449836e-07
2.236287e-08
5.6123798e-07
2.5718126e-08
6.4581624e-07
2.4487242e-08
6.5123875e-07
2.2295642e-08
6.3511983e-07
2.0412016e-08
6.2252576e-07
1.8756768e-08
6.1482084e-07
1.7168411e-08
6.0937013e-07
1.5607963e-08
6.0502896e-07
1.4074341e-08
6.0147776e-07
1.256806e-08
5.9856326e-07
1.1088373e-08
5.9616858e-07
9.6339753e-09
5.9420471e-07
8.2030423e-09
5.926053e-07
6.7932082e-09
5.9132063e-07
5.401609e-09
5.9031336e-07
4.0249671e-09
5.8955577e-07
2.6596886e-09
5.8902791e-07
1.301965e-09
5.8871638e-07
-5.2129572e-11
5.8861358e-07
-1.406528e-09
5.8871725e-07
-2.7650924e-09
5.8903049e-07
-4.1314905e-09
5.8956178e-07
-5.5091012e-09
5.9032553e-07
-6.9009022e-09
5.9134292e-07
-8.3093598e-09
5.9264319e-07
-9.7363331e-09
5.942657e-07
-1.118301e-08
5.9626303e-07
-1.2649843e-08
5.987055e-07
-1.4136228e-08
6.0168656e-07
-1.564141e-08
6.0532963e-07
-1.7181787e-08
6.0984966e-07
-1.8845606e-08
6.1592008e-07
-2.0719065e-08
6.2529955e-07
-2.209705e-08
6.3814398e-07
-2.0360853e-08
6.3910878e-07
-1.2990076e-08
5.813235e-07
-3.2918633e-09
4.1102782e-07
1.4279608e-07
2.4089852e-09
1.1435504e-07
1.1474165e-08
3.5543546e-07
2.0892595e-08
5.5182151e-07
2.4587028e-08
6.4212255e-07
2.3715386e-08
6.5211036e-07
2.1668783e-08
6.371663e-07
1.9848209e-08
6.2434629e-07
1.8258847e-08
6.164102e-07
1.6741657e-08
6.1088733e-07
1.5248727e-08
6.0652189e-07
1.3776332e-08
6.0295015e-07
1.2324819e-08
6.0001477e-07
1.0893667e-08
5.9759973e-07
9.4819759e-09
5.956164e-07
8.0885021e-09
5.9399877e-07
6.7115843e-09
5.9269755e-07
5.3491436e-09
5.916758e-07
3.9987367e-09
5.9090618e-07
2.6576332e-09
5.9036901e-07
1.3229052e-09
5.900511e-07
-8.482407e-12
5.8994496e-07
-1.3395868e-09
5.9004835e-07
-2.6733652e-09
5.9036426e-07
-4.0126039e-09
5.9090102e-07
-5.3598137e-09
5.9167274e-07
-6.7171304e-09
5.9270024e-07
-8.0862283e-09
5.9401228e-07
-9.4682569e-09
5.9564773e-07
-1.0863819e-08
5.9765859e-07
-1.2272945e-08
6.0011463e-07
-1.3694874e-08
6.0310849e-07
-1.5129956e-08
6.0676471e-07
-1.6599508e-08
6.1131921e-07
-1.8192976e-08
6.1751355e-07
-1.9948917e-08
6.2705549e-07
-2.1059262e-08
6.3925432e-07
-1.9010003e-08
6.3705953e-07
-1.1786161e-08
5.7409966e-07
-2.8909965e-09
4.0213266e-07
1.3990509e-07
2.2142129e-09
1.1214208e-07
1.0501919e-08
3.4715043e-07
1.9565538e-08
5.4276026e-07
2.3525982e-08
6.3816309e-07
2.2984739e-08
6.5265162e-07
2.1080461e-08
6.3907042e-07
1.9315462e-08
6.2611123e-07
1.7780449e-08
6.1794521e-07
1.6324443e-08
6.1234334e-07
1.4891491e-08
6.0795484e-07
1.3474747e-08
6.043669e-07
1.2074098e-08
6.0141542e-07
1.0689045e-08
5.9898479e-07
9.3188838e-09
5.9698656e-07
7.9627393e-09
5.9535492e-07
6.619454e-09
5.9404083e-07
5.2875482e-09
5.9300771e-07
3.9652415e-09
5.9222848e-07
2.6505085e-09
5.9168374e-07
1.34115e-09
5.9136046e-07
3.4875535e-11
5.9125124e-07
-1.2706137e-09
5.9135384e-07
-2.5775405e-09
5.9167119e-07
-3.8879622e-09
5.9221144e-07
-5.2036851e-09
5.9298847e-07
-6.5261872e-09
5.9402274e-07
-7.856554e-09
5.9534265e-07
-9.1954475e-09
5.9698663e-07
-1.0543124e-08
5.9900627e-07
-1.1899437e-08
6.0147094e-07
-1.326377e-08
6.0447282e-07
-1.4637998e-08
6.0813893e-07
-1.6048174e-08
6.1272939e-07
-1.7581873e-08
6.1904724e-07
-1.922814e-08
6.2870176e-07
-2.0094968e-08
6.4012115e-07
-1.7794622e-08
6.3475918e-07
-1.0757331e-08
5.6706237e-07
-2.58311e-09
3.9395844e-07
1.3732198e-07
2.0552169e-09
1.1008833e-07
9.6611361e-09
3.3954762e-07
1.8362093e-08
5.3406214e-07
2.252802e-08
6.3399843e-07
2.2290346e-08
6.5288938e-07
2.0526846e-08
6.4083375e-07
1.8812851e-08
6.2782515e-07
1.7323103e-08
6.1943495e-07
1.5919785e-08
6.1374666e-07
1.4540156e-08
6.0933447e-07
1.3173963e-08
6.0573309e-07
1.1820415e-08
6.0276897e-07
1.0478902e-08
6.003263e-07
9.1487716e-09
5.9831669e-07
7.8293595e-09
5.9667433e-07
6.5198538e-09
5.9535034e-07
5.2192191e-09
5.9430834e-07
3.926191e-09
5.9352151e-07
2.6393086e-09
5.9297062e-07
1.3569679e-09
5.926428e-07
7.7492371e-11
5.9253071e-07
-1.200805e-09
5.9263214e-07
-2.4795327e-09
5.9294992e-07
-3.7601602e-09
5.9349207e-07
-5.04394e-09
5.9427225e-07
-6.3318503e-09
5.9531065e-07
-7.6245553e-09
5.9663535e-07
-8.9224053e-09
5.9828447e-07
-1.0225487e-08
6.0030935e-07
-1.1533656e-08
6.0277911e-07
-1.2846652e-08
6.0578581e-07
-1.416815e-08
6.0946043e-07
-1.5528474e-08
6.1408971e-07
-1.701037e-08
6.2052914e-07
-1.8552956e-08
6.3024435e-07
-1.9198114e-08
6.4076631e-07
-1.6698092e-08
6.3225916e-07
-9.8724751e-09
5.6023675e-07
-2.3430915e-09
3.8642905e-07
1.3497888e-07
1.9203249e-09
1.081697e-07
8.926665e-09
3.3254491e-07
1.7265472e-08
5.257267e-07
2.1586581e-08
6.2967892e-07
2.1627485e-08
6.5284865e-07
2.0003797e-08
6.4245724e-07
1.833848e-08
6.2949037e-07
1.688705e-08
6.2088637e-07
1.5529314e-08
6.151044e-07
1.4197237e-08
6.1066655e-07
1.2877036e-08
6.0705329e-07
1.1567081e-08
6.0407892e-07
1.0266568e-08
6.0162681e-07
8.9748013e-09
5.9960846e-07
7.6912153e-09
5.9795791e-07
6.4152207e-09
5.9662633e-07
5.1461022e-09
5.9557746e-07
3.8829875e-09
5.9478462e-07
2.6248581e-09
5.9422875e-07
1.370586e-09
5.9389707e-07
1.1898683e-10
5.9378231e-07
-1.1311262e-09
5.9388225e-07
-2.3808748e-09
5.9419967e-07
-3.6312616e-09
5.9474245e-07
-4.8831129e-09
5.955241e-07
-6.137039e-09
5.9656457e-07
-7.393418e-09
5.9789173e-07
-8.6524225e-09
5.9954348e-07
-9.9140977e-09
6.0157102e-07
-1.1178419e-08
6.0404343e-07
-1.2445635e-08
6.0705303e-07
-1.3721366e-08
6.1073616e-07
-1.5039534e-08
6.1540788e-07
-1.6475342e-08
6.2196495e-07
-1.7918755e-08
6.3168776e-07
-1.8361878e-08
6.4120943e-07
-1.5704719e-08
6.29602e-07
-9.1054154e-09
5.5363745e-07
-2.151967e-09
3.7947561e-07
1.3282692e-07
1.8019934e-09
1.0636967e-07
8.2789896e-09
3.2607212e-07
1.6261588e-08
5.1774807e-07
2.0695835e-08
6.2524666e-07
2.099195e-08
6.5255284e-07
1.9507266e-08
6.4394172e-07
1.788996e-08
6.3110756e-07
1.6471707e-08
6.223046e-07
1.5153685e-08
6.1642242e-07
1.3864217e-08
6.1195602e-07
1.2586e-08
6.0833151e-07
1.1316444e-08
6.0534848e-07
1.00545e-08
6.0288876e-07
8.799373e-09
6.0086359e-07
7.5505167e-09
5.9920677e-07
6.3074733e-09
5.9786937e-07
5.0697491e-09
5.9681518e-07
3.8367611e-09
5.9601761e-07
2.6078306e-09
5.9545768e-07
1.3822016e-09
5.951227e-07
1.5907859e-10
5.9500543e-07
-1.0623295e-09
5.9510366e-07
-2.2827626e-09
5.954201e-07
-3.5028633e-09
5.9596255e-07
-4.7231391e-09
5.9674437e-07
-5.9439399e-09
5.9778537e-07
-7.1654627e-09
5.9911326e-07
-8.387802e-09
6.0076582e-07
-9.6110479e-09
6.0279427e-07
-1.0835373e-08
6.0526775e-07
-1.2061633e-08
6.0827929e-07
-1.3297439e-08
6.1197197e-07
-1.45795e-08
6.1668994e-07
-1.597307e-08
6.2335852e-07
-1.7320683e-08
6.3303537e-07
-1.7579403e-08
6.4146815e-07
-1.4800352e-08
6.2682295e-07
-8.4345844e-09
5.4727168e-07
-1.9957346e-09
3.7303676e-07
1.3083118e-07
1.6955002e-09
1.0467645e-07
7.7030048e-09
3.2006948e-07
1.5338743e-08
5.1011701e-07
1.9850776e-08
6.2073708e-07
2.0380159e-08
6.5202391e-07
1.9033517e-08
6.4528815e-07
1.7464715e-08
6.3267621e-07
1.6075985e-08
6.236933e-07
1.4792894e-08
6.1770551e-07
1.3541835e-08
6.1320708e-07
1.2302118e-08
6.0957123e-07
1.10701e-08
6.0658049e-07
9.8444552e-09
6.041144e-07
8.6242607e-09
6.0208378e-07
7.4089371e-09
6.0042209e-07
6.1980908e-09
5.9908022e-07
4.9913728e-09
5.980219e-07
3.7884076e-09
5.9722058e-07
2.5887697e-09
5.9665732e-07
1.3919877e-09
5.9631948e-07
1.9756668e-10
5.9619986e-07
-9.9498003e-10
5.9629621e-07
-2.1860986e-09
5.9661122e-07
-3.3761617e-09
5.9715261e-07
-4.5654464e-09
5.9793366e-07
-5.7541279e-09
5.9897405e-07
-6.9423022e-09
6.0030143e-07
-8.1300559e-09
6.0195357e-07
-9.3175799e-09
6.0398179e-07
-1.0505289e-08
6.0645546e-07
-1.1694707e-08
6.0946871e-07
-1.2895398e-08
6.1317266e-07
-1.4145957e-08
6.179405e-07
-1.549965e-08
6.2471221e-07
-1.675403e-08
6.3428975e-07
-1.6844241e-08
6.4155836e-07
-1.3972631e-08
6.2395134e-07
-7.8424865e-09
5.4114153e-07
-1.8642886e-09
3.6705856e-07
1.2896689e-07
1.597973e-09
1.0308111e-07
7.1869825e-09
3.1448609e-07
1.4487236e-08
5.0282222e-07
1.904718e-08
6.1618013e-07
1.9789153e-08
6.512826e-07
1.8579226e-08
6.4649787e-07
1.706018e-08
6.3419507e-07
1.5698519e-08
6.2505492e-07
1.4446496e-08
6.1895754e-07
1.3230301e-08
6.1442328e-07
1.2026077e-08
6.1077545e-07
1.0829063e-08
6.0777751e-07
9.6376366e-09
6.0530583e-07
8.4507331e-09
6.0327068e-07
7.2677089e-09
6.0160512e-07
6.0881861e-09
6.0025974e-07
4.9119023e-09
5.9919818e-07
3.7386238e-09
5.9839386e-07
2.5681083e-09
5.9782784e-07
1.4000959e-09
5.974875e-07
2.3431774e-10
5.9736563e-07
-9.2948424e-10
5.9746001e-07
-2.0915369e-09
5.9777327e-07
-3.2520168e-09
5.9831309e-07
-4.4110421e-09
5.9909268e-07
-5.5686793e-09
6.0013169e-07
-6.7249827e-09
6.0145773e-07
-7.8800786e-09
6.0310867e-07
-9.0342908e-09
6.0513601e-07
-1.0188299e-08
6.0760947e-07
-1.1344328e-08
6.1062474e-07
-1.2513791e-08
6.1434212e-07
-1.3736235e-08
6.1916294e-07
-1.5051262e-08
6.2602724e-07
-1.6214447e-08
6.3545294e-07
-1.6150579e-08
6.4149449e-07
-1.321098e-08
6.2101174e-07
-7.3150858e-09
5.3524564e-07
-1.7504893e-09
3.6149396e-07
1.2721641e-07
1.5077015e-09
1.0157645e-07
6.7217402e-09
3.0927854e-07
1.3698991e-08
4.9585134e-07
1.8281498e-08
6.1160125e-07
1.9216522e-08
6.5034848e-07
1.8141499e-08
6.475727e-07
1.6673907e-08
6.3566245e-07
1.533781e-08
6.2639096e-07
1.4113772e-08
6.2018157e-07
1.2929454e-08
6.156076e-07
1.1758141e-08