/*--------------------------------*- C++ -*----------------------------------*\
  =========                 |
  \\      /  F ield         | OpenFOAM: The Open Source CFD Toolbox
   \\    /   O peration     | Website:  https://openfoam.org
    \\  /    A nd           | Version:  10
     \\/     M anipulation  |
\*---------------------------------------------------------------------------*/
FoamFile
{
    format      ascii;
    class       volScalarField;
    location    "0.17";
    object      TporMedia;
}
// * * * * * * * * * * * * * * * * * * * * * * * * * * * * * * * * * * * * * //

dimensions      [0 0 0 1 0 0 0];

internalField   nonuniform List<scalar> 
4000
(
-7.2217235e-05
3.3306473e-05
0.00032044151
0.00045858048
0.00033079216
0.00038046338
0.00033375255
0.00038181016
0.00043538476
0.00039669043
0.00038878056
0.00046497381
0.00041291066
0.00045240202
0.00032188131
0.00031377802
0.0003967791
0.00037799013
0.00041212285
0.00048047921
0.00033723046
0.00039001705
0.00040526363
0.00034674358
0.00045605952
0.00027446233
0.00042757157
0.00034517022
0.00031879525
0.00033676058
0.00037234609
0.00033567646
0.00037060764
0.00034769326
0.00038731484
0.00036147412
0.00036073228
0.00032312536
0.0003581307
0.00036052097
-7.3182795e-06
6.5593954e-13
1.9278318e-11
3.1120038e-10
3.3245436e-10
1.8249504e-10
1.9404556e-10
2.101374e-10
3.0280208e-10
2.1275822e-10
2.4550487e-10
2.5745226e-10
2.8274992e-10
2.3031112e-10
2.5088964e-10
1.5947725e-10
2.3277508e-10
2.1189761e-10
2.2996042e-10
2.6807837e-10
2.2940467e-10
2.0925638e-10
2.3150028e-10
1.7273077e-10
1.9023649e-10
1.2378772e-10
2.2898254e-10
1.5088463e-10
1.5719023e-10
2.052283e-10
1.8506522e-10
2.0175703e-10
2.3870811e-10
2.4778122e-10
1.8098227e-10
2.1363377e-10
1.7662135e-10
1.8937535e-10
1.9828388e-10
1.5190564e-10
-2.983973e-06
-2.5627962e-13
3.5824411e-19
5.3591247e-17
6.1969107e-16
9.6344634e-17
1.2651786e-16
1.2048215e-16
1.6643768e-16
1.1742397e-16
1.330285e-16
1.8937522e-16
1.5794789e-16
1.2756467e-16
1.3540001e-16
8.5809984e-17
1.9421702e-16
1.7123813e-16
1.2594613e-16
1.3038945e-16
1.4434831e-16
1.6681624e-16
1.5511503e-16
1.1201935e-16
9.2034375e-17
7.2440184e-17
1.1389672e-16
1.1700302e-16
8.8108877e-17
1.229532e-16
1.0863561e-16
9.0042932e-17
1.2456924e-16
1.6662157e-16
1.4123374e-16
1.2177471e-16
1.0372654e-16
1.0385843e-16
1.0414965e-16
8.0750519e-17
-1.6285706e-06
1.5642424e-14
1.5946823e-22
2.2991737e-24
-1.252973e-21
1.0834047e-22
9.1366326e-23
1.0816106e-22
7.7219552e-23
1.0185898e-22
1.0808587e-22
2.041141e-22
8.6210884e-23
1.1887423e-22
6.0087635e-23
7.373387e-23
1.132354e-22
8.190359e-23
1.0504537e-22
1.0077621e-22
1.06279e-22
9.5399518e-23
9.802431e-23
6.2795378e-23
6.231801e-23
4.1955231e-23
8.7996191e-23
8.5070792e-23
8.7463639e-23
9.6717396e-23
1.0889828e-22
4.0434734e-23
5.4726821e-23
9.3420803e-23
1.1339877e-22
5.7247415e-23
7.8386607e-23
8.5921747e-23
6.3571251e-23
4.4539497e-23
-1.041476e-06
3.1084741e-15
2.4482622e-23
4.269649e-31
-5.4772304e-28
-1.9202235e-28
9.0162839e-29
7.0797483e-29
5.9937317e-29
9.8634235e-29
6.6978825e-29
1.4505597e-28
6.9011009e-29
6.5754231e-29
4.1592766e-29
3.6893607e-29
8.5793518e-29
4.6657668e-29
1.2271379e-28
7.0498288e-29
6.3755753e-29
6.7716359e-29
4.6492784e-29
3.7455081e-29
3.4405095e-29
2.2736131e-29
6.909782e-29
7.2219456e-29
8.8913799e-29
6.4380693e-29
8.0959102e-29
2.5236582e-29
3.8189872e-29
5.3101131e-29
7.0541701e-29
5.6429097e-29
6.7779517e-29
5.4324822e-29
4.6255585e-29
2.5460854e-29
-7.3893988e-07
1.0657257e-15
1.0319579e-23
8.2746349e-32
-4.7818242e-35
7.5598399e-35
1.0231042e-34
5.1113112e-35
5.3808352e-35
9.6366239e-35
6.1966896e-35
1.3088375e-34
5.5899195e-35
4.2525344e-35
2.8514347e-35
2.6135391e-35
4.7073223e-35
2.8132275e-35
7.5186025e-35
6.9597384e-35
4.0341875e-35
4.9190213e-35
2.9552085e-35
2.0816245e-35
1.6599473e-35
1.4472305e-35
4.702671e-35
6.2247044e-35
4.7056146e-35
4.1759855e-35
3.9104917e-35
1.6044017e-35
2.3196022e-35
2.6708017e-35
4.1997876e-35
2.821625e-35
4.340683e-35
2.9561685e-35
2.4025956e-35
1.7475194e-35
-5.6476351e-07
4.7850767e-16
-5.6362446e-23
-2.8012601e-31
-7.1963249e-39
-1.9689531e-41
-2.6135421e-40
3.8041827e-41
3.4632013e-41
9.0431424e-41
4.5899003e-41
7.363595e-41
3.1863344e-41
2.6049707e-41
2.3130811e-41
1.4177646e-41
2.3688908e-41
1.6041349e-41
4.0643965e-41
4.6275936e-41
2.0478547e-41
3.5788539e-41
1.7053666e-41
1.463813e-41
1.9254631e-41
1.420853e-41
2.1995413e-41
4.1507245e-41
2.2709569e-41
2.8595984e-41
2.142733e-41
9.8494575e-42
1.6487127e-41
1.4565518e-41
2.2317317e-41
1.8156292e-41
2.0547169e-41
2.0459175e-41
1.1594972e-41
9.4238615e-42
-4.5501404e-07
2.5368806e-16
-1.0792521e-24
-3.8689958e-33
-4.5460559e-41
2.3604428e-47
1.2238914e-46
4.0517018e-47
1.7646096e-47
8.5556899e-47
3.404205e-47
4.4578818e-47
1.8104867e-47
2.1837609e-47
1.4976251e-47
7.3764862e-48
1.1982365e-47
9.2571052e-48
3.6695561e-47
3.1195674e-47
1.1889837e-47
1.5316373e-47
1.246221e-47
8.6213535e-48
8.7645588e-48
7.778118e-48
1.4748942e-47
2.773039e-47
1.7365577e-47
1.5122863e-47
1.2871994e-47
5.6547686e-48
1.0854346e-47
1.0153534e-47
1.2868534e-47
1.2808746e-47
8.8754167e-48
1.4479694e-47
6.2969645e-48
6.2371111e-48
-3.7968015e-07
1.5009351e-16
-2.5056414e-25
-7.4415089e-34
-4.81021e-42
-9.418932e-49
-2.2400599e-53
1.1976303e-52
1.1464559e-53
5.7329612e-53
2.212606e-53
3.1800999e-53
1.3767196e-53
1.0231352e-53
8.4125091e-54
4.7578512e-54
8.69987e-54
5.8590429e-54
3.5318188e-53
2.0934902e-53
7.8795412e-54
8.493363e-54
7.884702e-54
6.0573843e-54
5.8691107e-54
4.1377213e-54
8.2663172e-54
2.1579848e-53
1.0724656e-53
1.2200844e-53
8.7719865e-54
2.9331916e-54
6.0667213e-54
4.8175247e-54
5.8662058e-54
7.7041443e-54
5.6772743e-54
8.654058e-54
3.2102922e-54
4.8664475e-54
-3.2336282e-07
9.5447893e-17
-8.5166789e-26
-2.4174523e-34
-9.679425e-43
-4.0113371e-50
4.9778072e-57
-2.4934086e-58
7.9042035e-60
4.7292784e-59
1.5962676e-59
1.4723968e-59
1.0921061e-59
6.3195864e-60
6.0070622e-60
2.7919617e-60
8.0993566e-60
3.7049594e-60
2.0091964e-59
1.1000959e-59
4.7292146e-60
4.5495517e-60
4.9782958e-60
3.1419295e-60
3.3452617e-60
2.301483e-60
6.0702394e-60
9.1703475e-60
5.2727731e-60
7.8661117e-60
4.4989961e-60
1.4658244e-60
3.8972154e-60
2.9817507e-60
3.1787601e-60
4.7571752e-60
2.9918128e-60
4.4396063e-60
2.4516055e-60
2.7538475e-60
-2.7723184e-07
6.3353098e-17
-3.4861747e-26
-1.155742e-34
-3.1822135e-43
-5.5066894e-51
5.335035e-58
-1.1525091e-64
4.2578392e-66
3.0613786e-65
9.3973748e-66
9.4588494e-66
4.572928e-66
4.2607823e-66
4.0693059e-66
1.8087318e-66
6.0348027e-66
2.217041e-66
1.0079907e-65
4.3434939e-66
3.5061541e-66
2.8941692e-66
5.3958812e-66
2.0623992e-66
1.4968901e-66
2.161286e-66
4.3912242e-66
7.8530851e-66
2.6280113e-66
3.3646039e-66
2.6727801e-66
8.6944057e-67
2.4479933e-66
1.8573477e-66
1.7750878e-66
3.2780308e-66
1.9561921e-66
3.0325204e-66
1.2112938e-66
1.5044817e-66
-2.3748363e-07
4.3105883e-17
-1.5933098e-26
-9.8922836e-35
-2.0184921e-43
-1.8202317e-51
1.8685976e-58
-3.1824989e-65
-1.8138411e-71
2.3106753e-71
6.2939236e-72
5.4462347e-72
2.3619741e-72
2.4399774e-72
2.541671e-72
1.1917804e-72
3.9102344e-72
1.5908631e-72
5.3285402e-72
2.7189642e-72
1.8369154e-72
1.6271435e-72
3.0330934e-72
1.3241701e-72
9.2240874e-73
1.1319346e-72
2.1435074e-72
4.42351e-72
2.0129037e-72
1.8692309e-72
1.5088501e-72
3.6698372e-73
9.8779932e-73
1.1513966e-72
8.6859541e-73
1.6599157e-72
1.0665774e-72
1.5122979e-72
5.9869464e-73
9.8063241e-73
-2.0230782e-07
2.9718915e-17
-7.8037867e-27
8.2128067e-35
1.3217542e-43
7.1391402e-52
-1.6356137e-58
1.8203635e-65
1.5025131e-71
2.3801623e-77
4.6312582e-78
3.9842431e-78
1.2981624e-78
1.3171982e-78
1.9430539e-78
6.337976e-79
2.1215057e-78
9.6011022e-79
2.4630848e-78
1.4318168e-78
1.0477066e-78
1.0631663e-78
2.1399804e-78
8.8054498e-79
6.0751034e-79
4.9938231e-79
1.448487e-78
2.4060852e-78
1.3613866e-78
1.2692479e-78
9.6164557e-79
1.7182246e-79
4.6784539e-79
5.9010307e-79
3.9384256e-79
7.6347908e-79
5.8820438e-79
7.7683817e-79
2.7881058e-79
6.227194e-79
-1.7150133e-07
2.0671028e-17
-4.0157257e-27
8.1578143e-36
1.0951059e-44
3.8410836e-53
3.9796735e-60
-3.1573945e-67
1.7979721e-73
8.8419807e-80
2.4951277e-84
2.1795207e-84
7.1908785e-85
9.2546601e-85
1.4804858e-84
2.8609967e-85
1.3181348e-84
6.1329588e-85
1.2703614e-84
9.1194007e-85
6.5091195e-85
6.5514984e-85
2.0179182e-84
3.8289043e-85
2.7565858e-85
4.5041257e-85
6.5549939e-85
1.2882629e-84
5.693894e-85
8.5751105e-85
5.2405421e-85
9.8540807e-86
3.3052909e-85
2.87424e-85
2.2864658e-85
5.3521945e-85
3.3763986e-85
4.365212e-85
1.2905571e-85
3.4444024e-85
-1.4491586e-07
1.4477406e-17
-2.1436483e-27
2.0221496e-36
2.3902713e-45
5.8250629e-54
1.7346686e-61
-9.9696928e-69
3.393431e-75
2.3159468e-81
1.6751537e-87
1.8374968e-90
3.2299032e-91
5.1596225e-91
9.0211302e-91
1.5773366e-91
6.7486884e-91
4.2422927e-91
7.2229458e-91
6.9208114e-91
4.0637954e-91
5.191463e-91
1.2117522e-90
1.6458383e-91
1.2951364e-91
2.776728e-91
3.2266169e-91
8.9912676e-91
3.0779971e-91
5.801624e-91
2.6685943e-91
4.5305408e-92
1.7565193e-91
1.6761036e-91
1.0040153e-91
3.0599154e-91
1.3034789e-91
2.5829614e-91
9.0399529e-92
2.5363633e-91
-1.2237514e-07
1.0211418e-17
-1.1792386e-27
6.4452403e-37
7.0932991e-46
1.2620762e-54
1.7596276e-62
-8.716415e-70
1.5253011e-76
1.2427596e-82
5.4391746e-89
3.0543629e-95
2.4883309e-97
3.2482566e-97
5.6973713e-97
8.0895816e-98
3.7751382e-97
2.1079834e-97
4.4775618e-97
3.1866284e-97
2.4971237e-97
3.7133537e-97
9.030513e-97
8.7698807e-98
6.6259729e-98
1.3454152e-97
1.6172656e-97
4.2399972e-97
1.6897027e-97
2.6365686e-97
1.672062e-97
2.8182214e-98
9.2214479e-98
8.0539216e-98
4.7159476e-98
1.4962355e-97
8.3550106e-98
1.2731453e-97
4.3809055e-98
1.5371689e-97
-1.0347188e-07
7.2564137e-18
-6.6531817e-28
2.3466972e-37
2.5720108e-46
3.4852825e-55
2.7372245e-63
-1.2772424e-70
1.362122e-77
2.857955e-83
2.0335606e-89
1.598364e-95
8.519851e-102
1.9264702e-103
3.8407229e-103
5.4202331e-104
1.9867713e-103
1.2690834e-103
2.0614023e-103
1.8572979e-103
1.4931388e-103
2.180147e-103
4.9521942e-103
4.3701892e-104
3.8750394e-104
6.9084899e-104
1.3302153e-103
2.0879333e-103
9.9726341e-104
1.6514892e-103
7.789184e-104
1.3220054e-104
5.46862e-104
5.1958463e-104
2.6811058e-104
8.2993518e-104
3.7059319e-104
7.4211778e-104
2.3534387e-104
1.3168254e-103
-8.7742371e-08
5.1976618e-18
-3.8398123e-28
9.3269607e-38
1.1171307e-46
1.195844e-55
5.8599137e-64
-3.41309e-71
2.5029342e-78
-6.623494e-83
-3.3356745e-89
-2.7075825e-95
-1.8684902e-101
-9.1526532e-108
2.7062371e-109
2.7712819e-110
1.9300784e-109
1.1393359e-109
1.8127885e-109
1.1974467e-109
7.7758686e-110
1.4399672e-109
3.1698416e-109
2.4960336e-110
3.3180299e-110
4.1298818e-110
7.492621e-110
1.0403489e-109
9.3680669e-110
7.0659796e-110
5.1034169e-110
7.2144232e-111
4.461799e-110
2.4042044e-110
1.3117383e-110
3.3213842e-110
2.056879e-110
3.7464026e-110
1.6069407e-110
1.4946826e-109
-7.4656699e-08
3.7520087e-18
-2.2598039e-28
3.9528099e-38
6.0878531e-47
5.3098982e-56
1.7418255e-64
-2.1189519e-71
1.113433e-78
-1.0494733e-84
-5.3878813e-91
-3.6245857e-97
-2.1911358e-103
-1.120655e-109
1.8956627e-115
1.6027574e-116
1.325539e-115
7.5017691e-116
1.1136919e-115
8.4636149e-116
5.3952376e-116
8.1788242e-116
2.7468003e-115
2.1807584e-116
2.0189227e-116
3.0870917e-116
5.9363859e-116
6.4076918e-116
4.5715482e-116
4.5600591e-116
4.4248656e-116
3.5654234e-117
2.7754544e-116
1.636656e-116
5.6328645e-117
3.0230287e-116
1.1204571e-116
2.1010812e-116
9.17649e-117
2.147734e-115
-6.3742686e-08
2.7280499e-18
-1.3530572e-28
1.7607838e-38
5.3845311e-47
3.9351142e-56
9.0997255e-65
1.0403443e-71
-4.3385195e-79
1.193255e-85
6.1904177e-92
3.3514773e-98
1.8670123e-104
1.2108356e-110
1.0896354e-116
2.1008963e-122
9.4442626e-122
3.1586924e-122
9.0746994e-122
5.8033062e-122
4.1278752e-122
6.5620294e-122
1.7886774e-121
1.6235633e-122
2.1217984e-122
1.6565281e-122
3.5453128e-122
5.7600812e-122
3.4196747e-122
7.0596756e-122
2.0434813e-122
2.268699e-123
1.1646208e-122
1.14013e-122
3.7224163e-123
2.0765303e-122
5.548602e-123
1.2404387e-122
5.0556056e-123
2.3776018e-121
-5.4605607e-08
1.9971218e-18
-8.2263092e-29
8.1659236e-39
-4.8788866e-47
-3.0735407e-56
-5.2189176e-65
-1.4543214e-72
5.0483598e-80
-8.2221145e-87
-8.5420902e-93
-5.3850445e-99
-4.6332441e-105
-2.8304291e-111
-2.2755371e-117
-1.8419201e-123
9.2062767e-128
3.3434403e-128
4.6437767e-128
4.803196e-128
2.7742696e-128
6.2965763e-128
1.2667129e-127
1.1561332e-128
1.6359666e-128
1.5327845e-128
2.9032483e-128
3.4158558e-128
1.8523154e-128
4.5314187e-128
1.0608812e-128
1.298779e-129
5.4886601e-129
6.8504015e-129
2.1915745e-129
1.1580473e-128
3.7809436e-129
6.6873469e-129
4.0413043e-129
8.349484e-127
-4.6913532e-08
1.4708692e-18
-5.0684136e-29
3.9151346e-39
-4.4924428e-48
-2.5031619e-57
-3.2191507e-66
-4.1962537e-74
1.3119091e-81
-1.327812e-88
-2.4956583e-94
-2.1859808e-100
-1.6788458e-106
-1.3651653e-112
-8.0111644e-119
-5.8336733e-125
-8.1111865e-131
3.2853195e-134
4.4627385e-134
4.4363162e-134
1.9762716e-134
5.8550526e-134
8.6123384e-134
9.8295345e-135
9.6153872e-135
1.0752719e-134
2.1397506e-134
2.0179709e-134
1.162581e-134
2.6653336e-134
1.0304872e-134
7.2666669e-136
3.9294166e-135
3.4916013e-135
1.8762384e-135
8.0794281e-135
2.4393634e-135
4.9314896e-135
2.1944777e-135
2.4720684e-132
-4.0402656e-08
1.0890355e-18
-3.1595532e-29
1.9304757e-39
-1.0556848e-48
-5.3524688e-58
-5.3658875e-67
-3.9902397e-75
1.1589899e-82
-8.1991173e-90
1.1710102e-95
7.8088206e-102
4.7025104e-108
5.8097773e-114
5.283401e-120
2.042936e-125
1.8437425e-131
1.3784989e-137
4.7034708e-140
2.3052492e-140
1.4639106e-140
3.8160988e-140
7.1320302e-140
7.0004936e-141
6.2749951e-141
8.113764e-141
1.605974e-140
1.7864159e-140
1.0292832e-140
1.7052797e-140
6.4621109e-141
6.5035106e-142
3.5805824e-141
2.1779008e-141
1.4403626e-141
5.5968872e-141
1.3190532e-141
2.9861189e-141
1.7708139e-141
-4.3807113e-138
-3.4856644e-08
8.0988469e-19
-1.9894577e-29
9.7473929e-40
-3.1555602e-49
-1.5002769e-58
-1.1995516e-67
-5.6742057e-76
1.7381451e-83
-9.3039505e-91
1.0295786e-96
6.5660579e-103
3.2827029e-109
2.2206293e-115
1.556696e-121
1.2698242e-127
9.4095593e-134
8.6680486e-140
1.7404723e-145
1.3646804e-146
1.1673805e-146
2.8153749e-146
5.5527907e-146
4.8979726e-147
4.7695478e-147
8.4426887e-147
1.0641437e-146
1.6587274e-146
7.4962509e-147
9.838481e-147
5.005971e-147
2.9164633e-148
2.1328453e-147
1.7368468e-147
9.3835569e-148
3.1917423e-147
6.5536609e-148
1.9830826e-147
1.519542e-147
2.3194342e-144
-3.0116081e-08
6.046049e-19
-1.2637772e-29
5.0232752e-40
-1.0677139e-49
-4.9319683e-59
-3.216189e-68
-1.0344429e-76
3.7885295e-84
-1.5816855e-91
5.1998836e-98
3.5978787e-104
2.978323e-110
2.266849e-116
2.0862975e-122
2.9740545e-128
3.8304669e-134
1.7869901e-140
3.5871003e-146
3.888176e-152
1.0578512e-152
2.1723131e-152
5.8329365e-152
3.8733415e-153
2.7146574e-153
1.0140613e-152
6.4247172e-153
1.1560991e-152
6.2857362e-153
9.813847e-153
4.279272e-153
1.6958037e-154
1.6600358e-153
1.0451008e-153
5.8631391e-154
1.8538262e-153
4.4823923e-154
9.5411201e-154
-3.2058774e-153
-1.3670015e-150
-2.6044526e-08
4.5273385e-19
-8.088777e-30
2.6346175e-40
-3.9090789e-50
-1.8335606e-59
-9.9333487e-69
-2.2751537e-77
1.5967622e-84
-5.4767239e-92
1.1582198e-98
1.1441152e-104
8.2818782e-111
8.0699423e-117
8.2075772e-123
5.457753e-129
4.6226454e-135
4.0042803e-141
3.0005403e-147
2.7683292e-153
1.6081432e-158
1.6609201e-158
5.86146e-158
3.6147735e-159
1.8501367e-159
1.0024136e-158
5.2388009e-159
1.344388e-158
4.5614264e-159
5.2997196e-159
3.5054034e-159
1.4628746e-160
8.978274e-160
6.8610434e-160
3.8417186e-160
1.1765018e-159
3.1875878e-160
9.077967e-160
-2.7064279e-156
4.7628238e-157
-2.2540513e-08
3.3991582e-19
-5.2118131e-30
1.4033239e-40
-1.515649e-50
-7.6825298e-60
-3.5220924e-69
-5.9489957e-78
-1.1234124e-84
3.1440165e-92
-4.3840863e-99
-5.2722656e-105
-3.6421669e-111
-3.2542802e-117
-3.4635534e-123
-4.1595228e-129
-4.6738085e-135
-5.2810121e-141
-3.8486433e-147
-3.2635295e-153
-2.1898178e-159
1.7582102e-164
4.2302474e-164
4.5086824e-165
1.2750773e-165
7.3856116e-165
3.8181202e-165
8.8549402e-165
4.1129145e-165
3.9272674e-165
2.1335847e-165
1.8036478e-166
5.4826943e-166
9.2896032e-166
2.030135e-166
6.8766558e-166
2.2956494e-166
7.6992647e-166
2.4542127e-162
-1.5575289e-163
-1.9518399e-08
2.5575759e-19
-3.3774995e-30
7.5762131e-41
-6.1400316e-51
-3.7154136e-60
-1.4658259e-69
-1.8797143e-78
-5.1121935e-86
1.2572808e-93
-1.1667011e-100
1.5047384e-105
2.9246217e-111
3.0915289e-117
4.135229e-123
8.2428659e-129
8.3396692e-135
2.4019265e-140
2.395739e-146
3.0175065e-152
5.9105078e-158
7.5596449e-164
1.4063976e-169
2.9584695e-171
9.8434032e-172
5.3177807e-171
2.8460846e-171
1.1049948e-170
3.3678106e-171
3.9651326e-171
4.0135775e-171
1.4467788e-172
5.0596055e-172
7.0899786e-172
2.1036433e-172
6.8135265e-172
2.1142671e-172
1.025104e-171
-2.415177e-168
4.0226903e-170
-1.6908539e-08
1.9279019e-19
-2.1999556e-30
4.1395301e-41
-2.5771876e-51
-2.2766706e-60
-7.8634921e-70
-7.840987e-79
-9.7711665e-87
2.1888329e-94
-1.5609105e-101
5.7266083e-107
4.2932659e-113
3.9215388e-119
3.7119017e-125
-7.6866308e-130
-1.1871001e-135
-2.3711047e-141
-2.2397684e-147
-2.2339238e-153
-2.8553681e-159
-2.327784e-165
-3.732683e-171
-8.7378933e-178
9.356026e-178
4.6746857e-177
2.4225033e-177
8.3471963e-177
3.1718755e-177
3.6735278e-177
2.5839059e-177
8.1008511e-179
4.5476056e-178
7.351882e-178
2.2071903e-178
5.1188902e-178
2.2063178e-178
1.8299458e-177
1.4702933e-174
-1.761207e-176
-1.4652178e-08
1.455379e-19
-1.4392727e-30
2.2858053e-41
-1.1139894e-51
-3.0661858e-60
-9.4243e-70
-7.467859e-79
-5.3660029e-87
1.1580578e-94
-6.3227274e-102
4.7486233e-108
5.1283618e-114
8.8782448e-120
1.3281679e-125
1.1869624e-131
1.5016402e-137
1.619182e-143
4.9323792e-149
7.6636945e-155
8.6645655e-161
1.0231842e-166
1.9625602e-172
3.2053579e-178
1.0443211e-183
4.734725e-183
2.325111e-183
7.3020577e-183
2.8264646e-183
3.5335589e-183
1.7346915e-183
6.0939317e-185
3.8969786e-184
5.3680236e-184
1.7720644e-184
5.6442351e-184
1.5516825e-184
3.8440973e-183
-1.3962092e-180
-6.2026201e-182
-1.2700113e-08
1.0999772e-19
-9.4522628e-31
1.2740747e-41
-4.9362155e-52
7.0239082e-61
1.9540794e-70
1.2526843e-79
5.7764407e-88
-1.2629214e-95
5.3886121e-103
-2.7126466e-109
-3.501299e-115
-3.6944637e-121
-8.511813e-127
-1.894976e-132
-1.6376047e-138
-2.2627441e-144
-3.599707e-150
-2.4065858e-156
-2.2246257e-162
-2.4271568e-168
-3.4365132e-174
-3.1266138e-180
-3.3691718e-186
1.0594051e-188
2.8421133e-189
7.8202653e-189
3.8239902e-189
3.0939262e-189
1.20624e-189
4.0093802e-191
4.425081e-190
3.3742983e-190
1.2532558e-190
3.9083484e-190
2.0039849e-190
-2.8825322e-188
4.9659064e-186
-3.1647724e-188
-1.101036e-08
8.3214693e-20
-6.228108e-31
7.1607934e-42
-2.2345021e-52
1.0512069e-61
2.6954481e-71
1.4210315e-80
4.4896131e-89
-1.0825442e-96
3.7383482e-104
-9.3050681e-111
-1.2140391e-116
-3.6082687e-122
-3.6364828e-128
-4.412402e-134
-1.3170938e-139
-3.8332694e-145
-9.7109765e-151
-1.8548676e-156
-2.5246921e-162
-3.4516465e-168
-3.4970475e-174
-3.8301049e-180
-3.8736766e-186
-9.1792667e-192
3.1139434e-195
1.0185132e-194
3.7534811e-195
2.3671755e-195
1.1905636e-195
5.6700338e-197
2.5933784e-196
3.048585e-196
1.1157765e-196
3.2836299e-196
3.3936973e-196
-9.0766514e-194
-1.0185188e-191
-6.2230944e-195
-9.5470066e-09
6.2997232e-20
-4.1151798e-31
4.0542959e-42
-1.0304458e-52
2.5961264e-62
6.2547106e-72
2.7516148e-81
6.2609803e-90
-2.024323e-97
5.9055644e-105
-8.8579431e-112
-2.7566496e-117
-6.5055979e-123
-9.7444468e-129
-1.9936823e-134
3.5637433e-139
4.5000778e-145
1.4920175e-150
4.6163761e-156
5.3189079e-162
8.6246546e-168
7.7676357e-174
1.495303e-179
1.8853218e-185
2.4560674e-191
3.7273498e-197
1.0474837e-200
3.8139665e-201
1.71125e-201
2.9959723e-201
3.7324405e-203
3.1345284e-202
2.0800671e-202
1.0887531e-202
1.1128526e-201
-9.8547996e-202
-1.1723383e-198
-1.8641708e-197
-8.4633469e-202
-8.2801626e-09
4.772035e-20
-2.7257069e-31
2.3105765e-42
-4.8297929e-53
7.6605536e-63
1.7735329e-72
6.6053433e-82
1.1199085e-90
-7.9351473e-98
1.978147e-105
-2.4268372e-112
1.2551138e-117
6.1476594e-123
-1.3766175e-127
-4.5579266e-133
-4.3938696e-138
-1.3191091e-143
-1.7832375e-149
-3.5493767e-154
1.9779275e-159
3.2845345e-165
1.0410945e-170
1.3552267e-176
5.459508e-182
8.9674573e-188
1.0068839e-193
1.4247254e-199
2.2377777e-205
2.9138368e-207
2.8830263e-207
6.0559399e-209
4.3411635e-208
2.8414377e-208
1.0102518e-208
1.4900648e-207
-6.3973927e-207
4.4764831e-204
-1.4603911e-203
-1.0188728e-208
-7.1840943e-09
3.6168976e-20
-1.8093058e-31
1.3246581e-42
-2.296854e-53
2.4929953e-63
5.6944162e-73
1.8185426e-82
2.3601345e-91
2.1854629e-98
-4.8408569e-106
4.1963723e-113
-7.4942314e-119
-6.470487e-125
-1.2198532e-130
1.0793992e-135
5.9816337e-141
8.5454724e-147
1.2395121e-151
1.0015666e-156
-3.2649465e-161
-6.2372734e-167
-8.051947e-173
-1.4312851e-178
-1.8416756e-184
-2.4446001e-190
-3.2936167e-196
-6.6951215e-202
-1.0206695e-207
1.995109e-213
5.1469118e-213
1.8130953e-214
5.5256788e-214
3.1479085e-214
4.031126e-214
1.3293095e-213
2.4024298e-212
-1.216612e-208
-6.4268769e-210
-1.0862632e-215
-6.2367887e-09
2.7432467e-20
-1.2034651e-31
7.6360077e-43
-1.1066683e-53
8.6598387e-64
2.0167914e-73
5.5924729e-83
5.6817108e-92
1.2305254e-99
-2.5140608e-107
1.6238068e-114
-2.1755552e-120
-8.3884463e-126
-1.0077122e-130
-2.4099062e-136
5.7506463e-142
2.0419728e-147
-1.9537067e-152
1.0066769e-157
3.0861409e-163
-2.6009873e-168
1.4430366e-173
4.179953e-179
2.7218864e-184
2.7074204e-189
5.3807563e-195
9.9534581e-201
3.3709041e-206
4.7812898e-212
1.2328883e-217
2.7091692e-220
5.3107394e-220
4.5747349e-220
5.0809051e-220
-9.7398724e-218
5.0575174e-218
3.083105e-214
-2.1363744e-216
-1.1951877e-222
-5.4192499e-09
2.08251e-20
-8.0213197e-32
4.4245145e-43
-5.3962363e-54
3.1556976e-64
7.8320958e-74
1.9081145e-83
1.5475099e-92
1.6632498e-100
-3.1694973e-108
1.715687e-115
-8.4363655e-122
-1.718133e-127
-2.6831967e-133
-1.6929354e-138
9.9263642e-144
5.7707352e-149
2.4920694e-154
-9.2735151e-160
-4.608885e-165
-7.1794028e-170
-1.6344157e-175
2.0754876e-180
2.4358033e-185
-2.652875e-189
1.1166479e-193
1.7362232e-199
5.4971671e-205
5.5039319e-211
1.8367498e-216
2.1696173e-222
5.5543031e-226
9.1491396e-226
2.4670223e-225
-7.5254812e-223
-1.7415127e-223
4.2927833e-220
-5.3387522e-223
-1.5632695e-229
-4.7148463e-09
1.5829084e-20
-5.3580863e-32
2.5765614e-43
-2.6607421e-54
1.1943399e-64
3.3762732e-74
7.3165452e-84
4.8157335e-93
3.1040815e-101
-5.8544695e-109
2.4903613e-116
-6.7032344e-123
-2.4654971e-128
6.2203944e-134
1.3784198e-138
6.3811432e-144
-2.8881772e-149
3.5403327e-154
-2.8927343e-159
7.312823e-165
-5.4011503e-170
-1.5535154e-175
-1.934403e-180
-9.7324348e-186
-1.8555889e-191
-7.1094415e-197
-3.9959863e-202
-5.455545e-207
1.9984466e-212
4.0500258e-218
8.1714963e-224
9.9505008e-230
3.0564841e-231
4.4489706e-231
-1.5923692e-228
2.9343088e-228
-2.058472e-225
-1.0245264e-229
-2.0734408e-236
-4.1092935e-09
1.2053556e-20
-3.5883374e-32
1.5081319e-43
-1.3260332e-54
4.6644954e-65
1.6817773e-74
3.2799584e-84
1.7784502e-93
7.581888e-102
-1.4573666e-109
5.3528646e-117
-1.2601072e-123
-5.3554685e-129
-2.8867127e-134
1.9425066e-139
-5.4146382e-145
1.0466276e-150
-1.4600273e-155
4.9095723e-161
-1.2710589e-166
2.7970199e-172
1.754839e-177
-3.5897651e-183
-1.0995203e-188
4.3367158e-194
-1.7115781e-199
2.400247e-205
6.51399e-211
-3.7710304e-216
-2.5659719e-221
-1.1113085e-226
-5.0858449e-232
1.2601236e-236
-9.4275478e-237
3.4900608e-234
-4.2830379e-234
6.5539469e-230
-7.186138e-237
-2.2405879e-243
-3.5897988e-09
9.2013581e-21
-2.41053e-32
8.8750021e-44
-6.6776871e-55
1.8720269e-65
1.1124887e-74
1.9772844e-84
8.9515603e-94
2.6974243e-102
-5.8296713e-110
1.8339745e-117
-2.9295171e-124
1.2693613e-129
-9.5159279e-135
1.9385485e-140
-2.3385043e-145
3.2722612e-151
-1.6699322e-156
-1.5109778e-161
-2.1584852e-166
4.0103181e-172
1.8331574e-177
-7.2806033e-183
-1.9961728e-188
-4.7533017e-194
2.2636895e-199
-1.9347682e-204
-1.1729745e-209
-1.0899731e-213
1.9591732e-218
-1.5832397e-223
-1.7500236e-228
-4.2904531e-234
3.1750092e-239
-5.3691546e-240
4.2477089e-240
2.2934856e-235
3.246826e-242
2.2323577e-249
-3.1453025e-09
7.0478073e-21
-1.6255751e-32
5.2536762e-44
-3.3983447e-55
7.6990338e-66
3.7618904e-74
6.1703897e-84
2.3623349e-93
5.2445672e-102
-1.4661359e-109
4.0167641e-117
-4.7357208e-124
5.168058e-130
-6.1744463e-136
-3.4400619e-141
6.7575947e-147
-5.8978749e-152
8.0821975e-158
-1.3607606e-163
1.3037875e-169
-1.6395557e-175
5.4890128e-181
-1.3280883e-186
2.0688975e-192
6.1845757e-197
-3.1582646e-202
5.5132416e-208
-1.2367017e-212
-7.6489279e-218
-1.7694803e-223
-7.5599788e-229
5.0760274e-233
6.003589e-239
-1.5455098e-244
5.9791739e-246
-7.2875139e-246
2.8755132e-241
5.1273181e-248
3.7772106e-255
-2.7660461e-09
5.4223234e-21
-1.1015722e-32
3.1308979e-44
-1.7484469e-55
3.2393745e-66
-1.8762481e-75
-2.878264e-85
-9.4245402e-95
-1.5929554e-103
7.903109e-111
-1.9099591e-118
1.9469828e-125
-1.0153253e-131
5.0838912e-137
-4.0735729e-142
5.43082e-148
-7.1231939e-154
8.8847068e-160
-1.4704547e-165
1.5996826e-171
-1.8685099e-177
2.6253977e-183
-8.1022134e-189
2.096857e-194
-2.0323955e-200
3.850063e-206
-2.9583373e-211
3.4278975e-216
-1.0969691e-221
4.8377768e-227
-8.3330981e-232
3.4768527e-237
-1.6190482e-242
1.9922447e-248
-4.4131175e-252
9.3012336e-252
2.4879204e-247
4.2069823e-254
3.1091552e-261
-2.4434528e-09
4.1956474e-21
-7.510828e-33
1.8804566e-44
-9.101608e-56
1.3932142e-66
-3.333088e-76
-4.8529242e-86
-1.3744791e-95
-1.8103395e-104
-6.9037873e-111
1.5437361e-118
-1.1754412e-125
5.4190139e-132
-1.1022838e-137
1.023823e-143
-1.8220107e-149
2.5567023e-155
-3.0617106e-161
2.4136411e-167
-3.9934095e-173
4.0157696e-179
-1.0562863e-184
1.0083067e-190
-1.1551777e-196
1.2198194e-202
-2.8104204e-208
3.2055709e-214
-4.3620866e-220
5.395306e-226
-9.1762859e-232
2.4384746e-237
-1.6661529e-242
6.8682387e-247
-1.091528e-252
3.9104927e-258
-5.7949206e-258
2.2430468e-253
3.2268202e-260
2.4526733e-267
-2.1700178e-09
3.2698822e-21
-5.1607597e-33
1.1399027e-44
-4.7990534e-56
6.1242432e-67
-8.4679234e-77
-1.1897227e-86
-2.9460357e-96
-3.0921841e-105
-9.3110275e-113
1.9621456e-120
-1.2036578e-127
4.3315652e-134
-5.6432708e-140
4.1808817e-146
-3.1321388e-152
3.4203306e-158
-1.7062103e-164
2.3887853e-170
-2.1717369e-176
1.5806007e-182
-9.8675254e-189
8.2402964e-195
-7.9930458e-201
7.7958363e-207
-1.2723764e-212
2.6258647e-218
-3.0909171e-224
4.3242356e-230
-6.9637671e-236
6.9230153e-241
4.7495486e-246
-2.0599947e-251
1.0708278e-257
-5.8710982e-264
4.7583166e-264
2.1346224e-259
2.7673475e-266
1.9990858e-273
-1.9392039e-09
2.5710326e-21
-3.5801992e-33
6.9865458e-45
-2.5670959e-56
2.7531628e-67
-2.5107682e-77
-3.4683575e-87
-7.5847974e-97
-6.4576761e-106
-8.7021963e-114
1.7605333e-121
-9.5792885e-129
2.782462e-135
-1.7036269e-141
1.1734417e-147
-8.8314656e-154
5.0537409e-160
-2.2366329e-166
1.2144595e-172
-1.0159785e-178
8.3281825e-185
-5.6527124e-191
4.8564315e-197
-3.3228432e-203
3.1208337e-209
-2.089833e-215
1.4400704e-221
-8.6203843e-228
6.8820833e-234
-6.544502e-240
5.0407237e-246
-1.0833543e-251
2.2271345e-257
-2.0163058e-263
1.1721466e-269
-3.1440817e-270
1.2128167e-265
1.6589882e-272
1.2064063e-279
-1.7453098e-09
2.0432217e-21
-2.5131051e-33
4.3389184e-45
-1.3958193e-56
1.267246e-67
-8.1945122e-78
-1.1384822e-87
-2.2212653e-97
-1.5579343e-106
-1.241337e-114
2.4737905e-122
-1.1301739e-129
2.2925901e-136
-1.301745e-142
6.7490848e-149
-4.0563339e-155
2.1489693e-161
-1.2332481e-167
6.9294471e-174
-3.9229999e-180
1.8759174e-186
-7.4585083e-193
4.6320954e-199
-2.4564787e-205
3.5994701e-211
-3.2978013e-217
1.7356187e-223
-1.7154975e-229
9.9117424e-236
-8.5207651e-242
7.0971157e-248
-7.1950543e-254
4.9230989e-260
-2.7261306e-266
8.8783144e-273
1.3579269e-276
5.9869075e-272
7.6043801e-279
5.7817289e-286
-1.5833921e-09
1.6443455e-21
-1.7892856e-33
2.7372325e-45
-7.7329699e-57
5.9828577e-68
-2.873858e-78
-4.1304954e-88
-7.261465e-98
-4.2560862e-107
-2.2602592e-115
4.8091535e-123
-1.8817293e-130
3.2309378e-137
-1.6578802e-143
7.2457021e-150
-3.0754037e-156
1.5715911e-162
-8.9176259e-169
3.8575641e-175
-2.5834797e-181
1.8172995e-187
-8.5702717e-194
4.2058596e-200
-2.5589754e-206
1.0142913e-212
-4.3591424e-219
2.7567857e-225
-1.609812e-231
1.1690863e-237
-8.7015878e-244
5.0366446e-250
-4.6532341e-256
2.5941187e-262
-1.056066e-268
3.4126172e-275
-2.0039147e-281
2.4999567e-278
3.3842613e-285
2.5527172e-292
-1.4491913e-09
1.3427524e-21
-1.2955534e-33
1.7590215e-45
-4.377097e-57
2.9037474e-68
-1.0708035e-78
-1.6527759e-88
-2.645388e-98
-1.3130732e-107
-4.9686908e-116
1.1497948e-123
-4.0605408e-131
5.4588907e-138
-2.3859584e-144
1.1430079e-150
-3.7388624e-157
2.045593e-163
-7.2008373e-170
3.6062467e-176
-1.2262473e-182
4.846015e-189
-2.0324584e-195
9.5291622e-202
-5.1521052e-208
2.4725762e-214
-1.3160948e-220
9.2785296e-227
-5.4392208e-233
2.8830159e-239
-1.5128223e-245
1.3399475e-251
-8.8693939e-258
4.5963082e-264
-1.6503861e-270
5.4283421e-277
-2.2913213e-283
1.0943028e-284
1.4743084e-291
1.123771e-298
-1.3390475e-09
1.1147051e-21
-9.5658719e-34
1.1549825e-45
-2.5390316e-57
1.4527092e-68
-4.2163797e-79
-7.3737408e-89
-1.0853836e-98
-4.6168186e-108
-1.3015232e-116
3.8628975e-124
-1.2240676e-131
1.3212461e-138
-3.6587644e-145
1.2443293e-151
-4.4520109e-158
1.4923889e-164
-5.1962395e-171
2.5271049e-177
-1.0170619e-183
4.0030988e-190
-1.6789599e-196
8.4104009e-203
-3.4841682e-209
1.5385722e-215
-6.6588455e-222
3.107143e-228
-1.5794587e-234
9.0278689e-241
-4.1017706e-247
2.4244244e-253
-1.4848874e-259
6.3924817e-266
-1.936704e-272
5.7020794e-279
-2.3514999e-285
3.90415e-291
5.2548392e-298
4.0859589e-305
-1.2498192e-09
9.4243296e-22
-7.2220397e-34
7.7728815e-46
-1.5142359e-57
7.5137876e-69
-1.750943e-79
-3.7794692e-89
-5.1727966e-99
-1.9074725e-108
-4.1466575e-117
1.9119685e-124
-5.7178715e-132
5.3268439e-139
-1.4253344e-145
6.3995893e-152
-2.1998699e-158
8.7138911e-165
-3.6665932e-171
1.3513825e-177
-6.1566929e-184
2.011803e-190
-7.3569105e-197
2.4818963e-203
-9.9299092e-210
3.4272762e-216
-1.2567216e-222
5.7349937e-229
-2.2795551e-235
9.211564e-242
-5.6153447e-248
2.5376367e-254
-1.75432e-260
3.3528304e-267
-1.9243763e-273
4.6485278e-279