/*--------------------------------*- C++ -*----------------------------------*\
  =========                 |
  \\      /  F ield         | OpenFOAM: The Open Source CFD Toolbox
   \\    /   O peration     | Website:  https://openfoam.org
    \\  /    A nd           | Version:  10
     \\/     M anipulation  |
\*---------------------------------------------------------------------------*/
FoamFile
{
    format      ascii;
    class       volScalarField;
    location    "0.17";
    object      TporMedia_0;
}
// * * * * * * * * * * * * * * * * * * * * * * * * * * * * * * * * * * * * * //

dimensions      [0 0 0 1 0 0 0];

internalField   nonuniform List<scalar> 
4000
(
-6.865718e-05
3.1634903e-05
0.00026568502
0.00041866731
0.00037801027
0.00039349936
0.00035476831
0.00036144204
0.0003914317
0.00042057579
0.00037404841
0.00039763507
0.00036348436
0.00046795438
0.00038948913
0.00038799304
0.00041794812
0.00046508431
0.00042273807
0.00038241191
0.00029948218
0.00043452638
0.00037589369
0.00039940691
0.00036062072
0.00037249058
0.00041026322
0.00054064768
0.00030285472
0.00036517292
0.00035236046
0.00033480217
0.00034824603
0.00032166923
0.00032823294
0.00031834958
0.00034227065
0.00031439725
0.00038348001
0.00038598106
-6.9811004e-06
6.025076e-13
1.5718393e-11
3.2525044e-10
2.7832522e-10
1.9824334e-10
1.9118598e-10
2.870295e-10
2.1149607e-10
1.9774699e-10
2.4537759e-10
2.4063004e-10
1.8880236e-10
2.7830049e-10
2.4802607e-10
1.6749379e-10
2.9029691e-10
2.181014e-10
2.0225736e-10
2.4347855e-10
1.7535016e-10
2.8323455e-10
1.5481861e-10
1.936249e-10
2.360351e-10
2.2847387e-10
2.1905885e-10
4.3592962e-10
1.6557358e-10
2.3639239e-10
2.0717864e-10
2.1525163e-10
1.536131e-10
1.766041e-10
1.6914283e-10
2.1102685e-10
1.5276854e-10
1.8985528e-10
1.7422997e-10
1.9526243e-10
-2.85121e-06
-2.4039192e-13
2.796753e-19
6.4289127e-17
5.6806822e-16
2.2776841e-16
9.9696313e-17
1.9695762e-16
1.3502622e-16
1.0441383e-16
2.6340837e-16
1.2249257e-16
1.9882836e-16
2.0262321e-16
2.5346348e-16
1.1918267e-16
1.7285766e-16
1.9047259e-16
1.2474094e-16
2.6057738e-16
1.2834537e-16
1.5460952e-16
8.6584996e-17
1.3601788e-16
2.3291539e-16
1.6544806e-16
1.32132e-16
2.1242977e-16
1.1770381e-16
2.1881805e-16
1.3133101e-16
8.5569903e-17
1.1008732e-16
1.097397e-16
1.1122695e-16
8.6926796e-17
8.8915787e-17
1.2380273e-16
8.0861992e-17
1.408155e-16
-1.5561962e-06
1.4245674e-14
1.3835973e-22
2.6487777e-24
-6.2548341e-22
3.3194846e-22
1.1699462e-22
1.5913345e-22
6.5618662e-23
9.4533602e-23
1.4130617e-22
7.4883703e-23
1.2387003e-22
1.0317e-22
1.618353e-22
7.983549e-23
9.9501488e-23
1.4404101e-22
6.704579e-23
1.4986019e-22
7.4758687e-23
2.2428613e-22
6.3946026e-23
7.9795138e-23
2.0088317e-22
7.8103948e-23
1.334056e-22
1.2699834e-22
7.6037749e-23
1.1690331e-22
6.381923e-23
4.4782061e-23
6.8915815e-23
6.0918848e-23
7.0473674e-23
5.8880802e-23
4.1657822e-23
7.2808654e-23
4.1729188e-23
8.9886117e-23
-9.9540072e-07
2.8295342e-15
2.1317855e-23
3.6724534e-31
-4.3832998e-28
-4.0734097e-28
7.9039399e-29
1.1710566e-28
3.038685e-29
6.6932138e-29
1.1844262e-28
5.6869662e-29
7.8040175e-29
1.3601354e-28
8.5632155e-29
1.5491138e-28
5.4611575e-29
9.3909041e-29
4.5596479e-29
1.0989059e-28
3.9489144e-29
1.3300919e-28
5.2250418e-29
5.5520982e-29
1.5183663e-28
8.2998457e-29
7.4773407e-29
1.0563862e-28
5.082615e-29
8.2790094e-29
5.328245e-29
2.2765195e-29
4.3055221e-29
3.5857155e-29
4.5279358e-29
4.7100876e-29
2.5820435e-29
4.1634106e-29
2.7090919e-29
5.9462253e-29
-7.0664128e-07
9.7352722e-16
9.0697775e-24
6.9708773e-32
-3.4018897e-35
1.3669893e-34
2.2578958e-34
1.0770065e-34
2.4635679e-35
5.9222473e-35
1.0172444e-34
3.0866059e-35
6.0636131e-35
1.2088023e-34
5.2405408e-35
1.2025842e-34
4.9416673e-35
2.0879568e-34
3.0981837e-35
9.1994817e-35
4.2972519e-35
8.6057051e-35
4.882191e-35
3.8894416e-35
9.474197e-35
6.9737561e-35
4.2598786e-35
6.32302e-35
3.37073e-35
6.2915167e-35
3.7691568e-35
1.269725e-35
3.4871485e-35
2.010961e-35
3.1475787e-35
2.8968975e-35
1.7688253e-35
2.5559299e-35
1.2998254e-35
3.3892235e-35
-5.3966692e-07
4.3692643e-16
-4.7366111e-23
-2.2508073e-31
-5.5281767e-39
-3.0962887e-41
-2.5447203e-40
7.1089095e-41
1.6608685e-41
4.6820153e-41
7.7940572e-41
2.2141329e-41
4.072152e-41
8.4373833e-41
2.6711872e-41
8.2483631e-41
5.5835786e-41
1.1627764e-40
1.6674435e-41
7.1049422e-41
4.2101352e-41
4.3178344e-41
3.8172096e-41
2.1183187e-41
6.3795905e-41
5.6026945e-41
3.0253462e-41
4.9580771e-41
2.1077179e-41
3.353308e-41
2.3530275e-41
7.4375251e-42
2.1948891e-41
1.0373327e-41
1.510859e-41
2.7666148e-41
1.2446336e-41
3.3650021e-41
8.501114e-42
1.7991525e-41
-4.3493179e-07
2.3182049e-16
-9.4265758e-25
-3.2330041e-33
-3.6385006e-41
2.2891194e-47
1.1268831e-46
5.7669241e-47
1.3253184e-47
2.7640006e-47
4.6293997e-47
1.7143725e-47
2.5910438e-47
4.4451822e-47
1.7094931e-47
5.0311001e-47
4.5242957e-47
7.2302153e-47
1.0137309e-47
5.5615498e-47
2.0600012e-47
3.0021089e-47
2.5868306e-47
1.1681459e-47
4.3414285e-47
3.3821458e-47
1.5796206e-47
3.2720161e-47
1.3227741e-47
1.9457052e-47
1.8067182e-47
5.1588072e-48
1.3414142e-47
6.1381218e-48
7.7903447e-48
1.5846693e-47
6.5793591e-48
2.0467474e-47
4.9536717e-48
1.0670737e-47
-3.6302975e-07
1.372646e-16
-2.1920491e-25
-6.2229212e-34
-3.8347116e-42
-6.5098509e-49
-2.0740863e-53
1.0576539e-52
1.3327303e-53
2.1645682e-53
2.8747658e-53
1.3994581e-53
1.7779776e-53
3.0233917e-53
9.1309775e-54
2.6850301e-53
2.4287377e-53
4.542212e-53
7.7152732e-54
3.0237954e-53
1.6077499e-53
1.6693012e-53
1.6327631e-53
1.2177994e-53
2.2535424e-53
1.9124515e-53
8.7602085e-54
1.7054275e-53
7.5895441e-54
1.2084335e-53
1.1579547e-53
2.1540579e-54
8.5805641e-54
2.9345256e-54
5.2579613e-54
1.3720976e-53
3.1763716e-54
9.430455e-54
2.9063176e-54
5.47707e-54
-3.0915364e-07
8.7272623e-17
-7.4493617e-26
-2.0208923e-34
-7.7505347e-43
-3.0906635e-50
3.6230973e-57
-1.7916074e-58
6.232018e-60
1.0084997e-59
1.5658423e-59
8.6931303e-60
1.1292411e-59
1.6583637e-59
5.1450465e-60
1.4436981e-59
2.0719096e-59
2.6197134e-59
6.2418256e-60
1.7627596e-59
1.1462135e-59
9.5939486e-60
1.2360397e-59
8.2035026e-60
1.4804059e-59
1.4395884e-59
3.6841236e-60
1.1793094e-59
3.7389854e-60
5.737988e-60
6.8429691e-60
1.5047509e-60
4.1483423e-60
1.5220992e-60
3.8682057e-60
7.7838313e-60
1.6772966e-60
5.9388167e-60
1.6165936e-60
2.4729175e-60
-2.6506518e-07
5.7939299e-17
-3.0503698e-26
-9.6610303e-35
-2.548593e-43
-4.2003575e-51
3.8994867e-58
-6.887255e-65
3.9797133e-66
4.9830937e-66
8.348225e-66
4.5146138e-66
1.0963486e-65
9.6389934e-66
2.9012115e-66
9.1792205e-66
1.7496388e-65
2.3407565e-65
3.0897233e-66
1.2980839e-65
5.2876737e-66
7.2266585e-66
5.8196582e-66
4.0404437e-66
8.9971267e-66
6.4776394e-66
2.4934798e-66
7.0379889e-66
1.6900718e-66
3.63415e-66
4.242551e-66
1.1451486e-66
2.3067898e-66
7.4623127e-67
1.6687227e-66
3.9128932e-66
8.0977827e-67
2.9861983e-66
6.8468139e-67
1.405267e-66
-2.2707436e-07
3.9431226e-17
-1.3940858e-26
-8.2855455e-35
-1.6174275e-43
-1.3975519e-51
1.3301147e-58
-2.4477362e-65
-1.088147e-71
3.1385839e-72
4.6923925e-72
2.3318223e-72
4.914793e-72
7.3406803e-72
1.8486366e-72
4.4106202e-72
1.0330742e-71
1.2140188e-71
1.7863266e-72
8.8492647e-72
2.4995137e-72
4.6899122e-72
3.1022299e-72
2.5735747e-72
4.7263533e-72
3.9869567e-72
1.2212552e-72
2.8139386e-72
9.5903724e-73
1.7873687e-72
3.6093053e-72
6.8196066e-73
1.2487851e-72
3.950059e-73
8.8472155e-73
2.2054766e-72
4.8206068e-73
1.7404033e-72
3.9052122e-73
7.8349054e-73
-1.9347313e-07
2.7188828e-17
-6.8315528e-27
6.8486498e-35
1.0548242e-43
5.4381413e-52
-1.3673626e-58
1.4635634e-65
1.5681588e-70
8.7371068e-77
3.2891154e-78
1.1954738e-78
2.976795e-78
5.2359635e-78
1.3624171e-78
3.8011087e-78
6.985852e-78
6.6343854e-78
1.6425257e-78
5.9366005e-78
1.44324e-78
3.936132e-78
1.4422306e-78
1.4516154e-78
2.7568453e-78
2.1135039e-78
6.5949048e-79
1.5481249e-78
5.4127408e-79
8.4439442e-79
2.2152901e-78
3.4630149e-79
6.10527e-79
2.0693839e-79
5.0855452e-79
1.0809487e-78
2.1738713e-79
8.3758869e-79
2.8416766e-79
5.8829638e-79
-1.640031e-07
1.8911179e-17
-3.5151501e-27
6.830787e-36
8.782265e-45
2.9491676e-53
2.9988472e-60
-2.15947e-67
1.3706673e-73
7.6961843e-80
3.0297874e-84
7.2478299e-85
1.4350216e-84
3.7163099e-84
6.1889587e-85
2.1595024e-84
5.8096281e-84
4.4478303e-84
9.0001984e-85
3.9302461e-84
8.7145597e-85
2.0821494e-84
6.5602649e-85
1.1208863e-84
1.3891031e-84
1.2672008e-84
3.5014064e-85
9.6478805e-85
3.5574228e-85
3.9547574e-85
9.5905057e-85
1.4196138e-85
3.5814806e-85
1.1026472e-85
2.3265921e-85
5.0913788e-85
1.0888834e-85
4.2516286e-85
1.5205672e-85
3.7567983e-85
-1.3857046e-07
1.3243451e-17
-1.8763709e-27
1.6934823e-36
1.9151434e-45
4.4673121e-54
1.2787127e-61
-7.2419606e-69
2.2729834e-75
1.3666283e-81
1.0459805e-87
5.1711915e-91
7.5531338e-91
2.5131608e-90
2.9997737e-91
1.1685821e-90
2.979734e-90
4.011427e-90
7.1183157e-91
1.8851045e-90
5.5702479e-91
1.324519e-90
5.0861232e-91
9.0302096e-91
9.794062e-91
9.5239122e-91
1.7394701e-91
5.7147728e-91
1.4905519e-91
2.5000798e-91
8.0205612e-91
8.3022131e-92
1.8503762e-91
9.3040358e-92
1.5155768e-91
3.1343063e-91
7.2020941e-92
2.0505655e-91
9.131008e-92
1.8403543e-91
-1.1698042e-07
9.3382913e-18
-1.0318892e-27
5.397913e-37
5.6847058e-46
9.6751866e-55
1.2959311e-62
-6.1876102e-70
9.435331e-77
7.919067e-83
3.576358e-89
3.4144896e-95
6.856682e-97
1.7200712e-96
2.2132172e-97
1.0015791e-96
1.8657529e-96
4.0082289e-96
5.0798891e-97
9.6217062e-97
2.7724536e-97
9.8766504e-97
2.9968547e-97
5.6018465e-97
5.7686769e-97
6.9778985e-97
1.1215313e-97
3.3846164e-97
1.0077255e-97
1.6490097e-97
4.1422749e-97
5.200689e-98
8.5754118e-98
5.1694641e-98
9.254863e-98
2.0404902e-97
3.5655301e-98
1.3442694e-97
6.2160248e-98
1.2464104e-97
-9.8922825e-08
6.6365975e-18
-5.8232107e-28
1.9655272e-37
2.0612936e-46
2.674125e-55
2.0100639e-63
-9.0426686e-71
8.8438318e-78
2.1524593e-83
1.015044e-89
4.9571565e-96
3.2297769e-102
1.3363057e-102
2.2106404e-103
6.3704396e-103
9.1039716e-103
3.0083907e-102
3.5808012e-103
5.1039271e-103
1.831801e-103
6.3538646e-103
2.3738546e-103
4.0166611e-103
3.8695697e-103
5.405692e-103
6.2839782e-104
1.8790178e-103
4.4509964e-104
7.8614375e-104
2.5414771e-103
4.5554398e-104
4.4874522e-104
3.7537735e-104
4.6530616e-104
1.2239844e-103
1.92386e-104
5.6577203e-104
4.4730673e-104
8.7383981e-104
-8.3868743e-08
4.7526569e-18
-3.3597666e-28
7.8123868e-38
8.9527677e-47
9.173772e-56
4.3052222e-64
-2.3659597e-71
1.5955854e-78
-2.1949258e-84
-1.401272e-90
-6.9189131e-97
-4.0004295e-103
6.0265593e-109
1.9954688e-109
4.6249244e-109
6.9351323e-109
2.3033229e-108
3.2256893e-109
3.8819295e-109
1.6141655e-109
3.6500655e-109
1.8315163e-109
2.2227405e-109
3.6353547e-109
3.2101633e-109
3.1862569e-110
1.0199281e-109
3.8782604e-110
5.4529892e-110
1.3740279e-109
4.5113294e-110
2.8429966e-110
1.6019707e-110
2.3680375e-110
7.602425e-110
1.2395245e-110
2.9590666e-110
2.6966586e-110
7.4077049e-110
-7.1347101e-08
3.4300413e-18
-1.977036e-28
3.3104785e-38
4.8763267e-47
4.0708559e-56
1.2797394e-64
-1.3647851e-71
6.9701641e-79
-3.0295339e-85
-2.1673944e-91
-1.5230712e-97
-1.2170187e-103
-8.0580176e-110
9.7378653e-116
3.2493856e-115
5.4790919e-115
2.0416517e-114
2.9700254e-115
2.7836426e-115
1.1849347e-115
2.2155383e-115
1.5456771e-115
2.419809e-115
1.8922369e-115
2.1936729e-115
1.9572552e-116
6.9352359e-116
2.5172139e-116
3.8664913e-116
8.3516068e-116
2.5741795e-116
1.8453629e-116
1.0473351e-116
1.1345882e-116
4.2378471e-116
7.427824e-117
1.7094867e-116
2.2269544e-116
4.1791381e-115
-6.0914016e-08
2.4936956e-18
-1.1836165e-28
1.4744329e-38
4.3163934e-47
3.0230506e-56
6.6996354e-65
7.9948879e-72
-3.2035413e-79
8.0014635e-86
5.0693745e-92
3.4231195e-98
2.4146726e-104
2.4442716e-110
2.013046e-116
2.1980655e-121
4.8489721e-121
1.4737205e-120
1.7285765e-121
1.841025e-121
1.0814949e-121
1.4737666e-121
1.1154457e-121
1.8068565e-121
2.2032552e-121
1.7774848e-121
9.1111509e-123
5.7050386e-122
2.0737177e-122
3.3164722e-122
5.8626598e-122
1.3202733e-122
1.2981198e-122
6.9569291e-123
6.9351047e-123
2.1814082e-122
4.9709972e-123
1.4426545e-122
2.0872797e-122
6.2737269e-121
-5.2169311e-08
1.8250305e-18
-7.193957e-29
6.8362326e-39
-3.9159417e-47
-2.36088e-56
-3.8337833e-65
-1.0355125e-72
3.4577802e-80
-5.0448425e-87
-4.8847163e-93
-4.4984165e-99
-2.6526276e-105
-2.9677093e-111
-2.2367186e-117
-1.759773e-123
3.621558e-127
1.0714738e-126
9.6243183e-128
1.3864436e-127
1.51742e-127
1.2548963e-127
9.6182388e-128
1.4247697e-127
1.8898081e-127
1.8781999e-127
6.0419305e-129
2.8210076e-128
1.7746202e-128
1.8224379e-128
3.7959773e-128
7.6884687e-129
7.1148623e-129
4.1709823e-129
5.1575866e-129
1.6200027e-128
3.0715015e-129
8.6774795e-129
1.1124025e-128
-2.1046658e-126
-4.4811909e-08
1.3437138e-18
-4.4311367e-29
3.2768243e-39
-3.6034055e-48
-1.9228768e-57
-2.3688402e-66
-2.9591876e-74
8.7385425e-82
-8.0888441e-89
-1.420555e-94
-9.850449e-101
-8.8771898e-107
-5.9560705e-113
-4.7385258e-119
-3.389457e-125
-3.9078652e-131
8.2608186e-133
1.2088649e-133
8.9209323e-134
9.6310613e-134
8.9940975e-134
8.0663934e-134
1.2630952e-133
1.5508049e-133
9.925798e-134
4.5017703e-135
1.8869963e-134
1.7292209e-134
1.1953768e-134
2.354871e-134
4.9330649e-135
5.5033982e-135
2.2122059e-135
3.3065778e-135
8.6394917e-135
1.6943361e-135
7.3405401e-135
9.5860878e-135
2.5974187e-132
-3.8576034e-08
9.9438691e-19
-2.7608402e-29
1.6149533e-39
-8.4592764e-49
-4.1054276e-58
-3.941673e-67
-2.8123308e-75
7.8675939e-83
-5.4833479e-90
1.4653069e-95
1.2165607e-101
1.6078133e-107
1.205322e-113
1.2675144e-119
1.037772e-125
8.3209868e-132
6.4156201e-138
7.9911632e-140
8.4226594e-140
7.2904584e-140
6.4447285e-140
5.6339596e-140
1.0013873e-139
1.2412679e-139
7.0693309e-140
2.8430736e-141
2.6891156e-140
1.1810488e-140
1.0626995e-140
1.79015e-140
3.1002486e-141
3.859136e-141
1.5203575e-141
2.0150689e-141
5.4533242e-141
9.3584653e-142
5.4394641e-141
5.0844322e-140
-3.6567181e-138
-3.3270073e-08
7.3916527e-19
-1.7375857e-29
8.1504533e-40
-2.5276232e-49
-1.1507062e-58
-8.815236e-68
-4.012747e-76
1.1705404e-83
-5.8925359e-91
3.6870773e-97
2.1203105e-103
1.4597729e-109
1.094088e-115
9.2041745e-122
6.7963009e-128
4.7846728e-134
4.9793475e-140
1.2464743e-145
7.181617e-146
8.3243214e-146
3.5274117e-146
4.488693e-146
8.0377592e-146
1.012499e-145
4.8663131e-146
2.4903999e-147
2.1136585e-146
8.058805e-147
7.2515255e-147
2.5657179e-146
1.9829171e-147
2.701062e-147
9.0194895e-148
1.2433528e-147
3.6744319e-147
4.9175892e-148
7.0374411e-147
1.1764434e-145
2.2047793e-144
-2.8730628e-08
5.514466e-19
-1.1030614e-29
4.1977393e-40
-8.5461476e-50
-3.7780974e-59
-2.3595891e-68
-7.255586e-77
2.5765613e-84
-1.0139977e-91
3.6779384e-98
3.4831497e-104
2.2218602e-110
1.1982009e-116
1.7823957e-122
1.1118833e-128
8.052943e-135
9.7117055e-141
6.1134566e-147
5.9001082e-152
6.2261605e-152
4.3000096e-152
3.693964e-152
8.7374424e-152
6.3990836e-152
2.8499868e-152
1.8249808e-153
1.339556e-152
5.4026138e-153
4.7365366e-153
1.6841706e-152
1.3652276e-153
2.3327719e-153
5.3358002e-154
9.55877e-154
2.1665037e-153
4.2447936e-154
7.4230002e-153
-3.8383259e-151
-1.0863953e-150
-2.4833657e-08
4.1264918e-19
-7.0549234e-30
2.2001101e-40
-3.1271486e-50
-1.4042431e-59
-7.2879996e-69
-1.5992999e-77
1.0468169e-84
-3.3616229e-92
6.8257521e-99
6.3857137e-105
4.8400528e-111
6.2670365e-117
4.7519301e-123
1.058764e-128
1.2121001e-134
9.428057e-141
8.5307714e-147
5.7927163e-153
5.5693222e-158
5.1899479e-158
2.8011389e-158
7.9211594e-158
4.5610586e-158
3.2684538e-158
1.4914974e-159
1.287923e-158
4.3207131e-159
4.231453e-159
2.4187988e-158
7.0270406e-160
1.6895682e-159
4.1456533e-160
6.0931584e-160
1.5165092e-159
4.6971603e-160
6.5221823e-159
-1.1908371e-156
3.1716201e-157
-2.1480328e-08
3.0956834e-19
-4.5417988e-30
1.1709037e-40
-1.2115038e-50
-5.8794519e-60
-2.5814104e-69
-4.1788887e-78
-7.6760088e-85
2.107361e-92
-2.6286276e-99
-2.9434456e-105
-1.9329723e-111
-2.145754e-117
-2.2296798e-123
-2.2360737e-129
-2.6247784e-135
-1.6816256e-141
-2.0633091e-147
-1.1323858e-153
-9.5968708e-160
3.7736376e-164
4.9491122e-164
6.0310588e-164
4.0115818e-164
2.8097342e-164
1.568145e-165
1.0355367e-164
4.595348e-165
4.0140232e-165
2.4002614e-164
4.1630774e-166
2.0866089e-165
3.2681419e-166
3.8976311e-166
1.4275619e-165
3.9314398e-166
8.8462416e-165
1.0597776e-161
-7.7741706e-164
-1.8588452e-08
2.3271872e-19
-2.9405369e-30
6.3157088e-41
-4.9041025e-51
-2.8386959e-60
-1.0730937e-69
-1.3178673e-78
-3.4824302e-86
8.2255515e-94
-7.0920711e-101
-2.3359296e-106
-1.9794691e-112
-2.168695e-118
-3.1398299e-124
-2.4256186e-130
-3.2493366e-136
-8.0368444e-142
-1.7989207e-147
-1.8804379e-153
-2.7495655e-159
-2.7633561e-165
4.7879696e-170
2.2592811e-169
3.3798038e-170
4.154541e-170
1.4041026e-171
1.0142378e-170
3.7896766e-171
3.1375205e-171
1.4539882e-170
2.7283236e-172
1.1938992e-171
2.8463452e-172
2.5025779e-172
1.2916966e-171
3.0455935e-172
3.327212e-170
-9.9152321e-168
2.6517551e-170
-1.6092295e-08
1.7524783e-19
-1.9132579e-30
3.4471383e-41
-2.0562691e-51
-1.7364562e-60
-5.7464043e-70
-5.4963322e-79
-6.5627573e-87
1.4005745e-94
-9.2710969e-102
1.4091782e-107
1.258295e-113
1.6976364e-119
6.5514459e-125
1.1882504e-130
1.2748859e-136
1.6069253e-142
1.538893e-148
2.2452891e-154
2.1723709e-160
5.6057672e-166
5.1326062e-172
2.7355623e-175
6.86675e-176
4.0531239e-176
1.5009336e-177
6.0786246e-177
3.7369424e-177
3.0314753e-177
1.1383125e-176
2.0760045e-178
1.0754622e-177
1.6726249e-178
1.3656729e-178
9.8617803e-178
4.6535505e-178
5.4296134e-176
1.1336066e-173
-1.1279353e-176
-1.3935413e-08
1.3215764e-19
-1.2502805e-30
1.9013228e-41
-8.8789363e-52
-2.3176853e-60
-6.8246363e-70
-5.1867946e-79
-3.5621984e-87
7.343321e-95
-3.7462856e-102
2.3888362e-108
2.7845349e-114
2.0302785e-120
-6.3182025e-125
-9.7576468e-131
-3.5846303e-136
-4.3485932e-142
-1.2823405e-147
-1.407309e-153
-3.9740792e-159
-7.2229684e-165
-1.340769e-170
-1.4957725e-176
7.5838947e-182
8.4229284e-182
1.5837185e-183
7.1749285e-183
2.5428531e-183
2.8201265e-183
1.1108409e-182
2.4843661e-184
8.4936595e-184
9.9490541e-185
9.9713784e-185
1.168136e-183
5.4330584e-184
2.0293821e-181
-8.6644438e-180
1.5430864e-181
-1.2070395e-08
9.9773542e-20
-8.2007891e-31
1.0584397e-41
-3.9296047e-52
5.3974033e-61
1.4389035e-70
8.8446144e-80
3.9009224e-88
-8.1880496e-96
3.3895103e-103
-1.3055859e-109
-2.2038705e-115
-7.6134983e-121
-1.9696352e-126
-4.1258051e-132
-2.0356798e-137
-3.4196276e-143
-4.8744705e-149
-2.9099439e-154
-9.2778168e-160
-1.8872686e-165
-7.9066532e-171
-1.1419692e-176
-8.8416973e-183
1.1833967e-187
1.542384e-189
1.1141181e-188
2.5334913e-189
4.1864923e-189
1.0505549e-188
2.5361283e-190
1.2878897e-189
7.2736261e-191
1.548861e-190
1.3752568e-189
3.6700351e-190
-1.3333722e-186
-1.5392788e-184
5.5837622e-188
-1.0456913e-08
7.539066e-20
-5.3962198e-31
5.9407825e-42
-1.7765629e-52
8.0341544e-62
1.974072e-71
9.9808922e-81
3.0303103e-89
-6.9990445e-97
2.3128827e-104
-5.0024534e-111
-6.5298975e-117
-7.6945456e-123
3.3906368e-128
1.0313935e-133
2.1689434e-139
3.0824354e-145
1.2094235e-150
2.4335637e-156
5.9180549e-162
1.0532988e-167
1.7699401e-173
3.7573051e-179
3.6202778e-184
1.3193964e-189
7.493264e-195
1.6656006e-194
3.8637564e-195
5.6755827e-195
3.8920703e-194
3.7433502e-196
1.1265321e-195
8.0996899e-197
1.485468e-196
1.7292929e-195
1.0593226e-195
2.2630445e-191
1.6727157e-190
1.0843056e-194
-9.060819e-09
5.7004429e-20
-3.5604553e-31
3.358672e-42
-8.1811394e-53
1.9798856e-62
4.5716547e-72
1.9295653e-81
4.2155985e-90
-1.2803015e-97
3.5741441e-105
-5.653603e-112
2.0003839e-117
1.9915505e-123
4.6131367e-129
8.4551201e-135
1.7946492e-140
4.2402256e-145
8.4863213e-151
2.4823057e-156
-8.2609867e-162
-4.116628e-167
-7.9989619e-173
1.3415068e-175
3.2840158e-181
1.2099106e-186
5.1608561e-192
8.1871403e-198
4.8272385e-201
6.827158e-201
3.3043256e-200
5.2880769e-202
1.1497332e-201
5.1299623e-203
9.4210316e-203
4.0462665e-201
5.8477641e-201
-9.9877927e-197
3.2584311e-195
1.9392418e-201
-7.8534222e-09
4.3128461e-20
-2.3548634e-31
1.9113076e-42
-3.829138e-53
5.8320905e-63
1.2938044e-72
4.6218261e-82
7.5215213e-91
-4.6308299e-98
1.1089922e-105
-1.2493453e-112
7.5124065e-118
9.3494355e-124
9.7291803e-130
-2.1926449e-135
5.8945194e-140
2.9876652e-145
3.3552371e-151
1.8143e-156
-4.9009456e-162
-9.6989416e-168
-6.0749238e-173
-9.2642418e-179
-1.7089857e-184
-1.9795652e-190
-6.7427267e-196
-1.5081593e-201
4.2311664e-207
7.9526344e-207
3.8201518e-206
1.1614585e-207
2.3821597e-207
1.036999e-208
9.2294694e-209
5.0382198e-206
1.5623165e-206
2.5062911e-202
2.8437189e-201
5.3837406e-208
-6.8097476e-09
3.2649065e-20
-1.5608172e-31
1.0940661e-42
-1.8182774e-53
1.8949097e-63
4.1462871e-73
1.2703787e-82
1.5814284e-91
1.4619866e-98
-3.0783834e-106
2.6707705e-113
-2.7989013e-119
-1.4039173e-124
-9.1218524e-130
-4.4461537e-135
-4.6961261e-141
-1.1059134e-146
4.7855983e-152
1.3799834e-157
7.1984401e-163
2.279107e-168
3.244675e-174
2.1281554e-179
5.0097858e-185
9.5037083e-190
1.354202e-195
3.3687713e-201
3.9327415e-207
1.4428156e-212
1.0999779e-211
1.3427751e-213
1.7213648e-213
2.7230967e-214
1.2406865e-214
1.5732688e-211
1.8343486e-211
-9.0229318e-208
1.3244511e-207
1.9618952e-214
-5.9088275e-09
2.4734275e-20
-1.0366522e-31
6.296912e-43
-8.7475694e-54
6.5719918e-64
1.4657081e-73
3.8988986e-83
3.8032393e-92
8.0239832e-100
-1.5760313e-107
9.8227717e-115
-7.5515072e-121
-1.627645e-126
-4.4301042e-132
-2.2935687e-137
-1.4328056e-142
6.8833791e-148
1.9923874e-153
-1.0284769e-158
-1.4789387e-164
9.27823e-170
3.2612874e-175
9.8124093e-181
4.8131201e-186
-2.3452315e-191
-1.2433811e-196
4.7678592e-201
2.8865724e-206
4.4031286e-212
3.7836429e-217
2.3238327e-219
4.1571655e-219
5.2785374e-220
1.6578465e-220
7.0742547e-217
-1.9499576e-216
-9.2034461e-212
4.6010524e-214
6.0917195e-221
-5.132299e-09
1.8757107e-20
-6.8996794e-32
3.6430761e-43
-4.2591471e-54
2.3914979e-64
5.6833916e-74
1.328855e-83
1.0352603e-92
1.0624755e-100
-1.9416589e-108
1.0048303e-115
-3.7450536e-122
2.4869833e-127
-6.9506967e-133
2.035283e-137
-3.69765e-142
-9.0304948e-148
-4.0957013e-153
-1.0888029e-158
2.2590369e-164
1.3524448e-169
-2.9210647e-175
-1.9775062e-180
-2.5655696e-186
-8.2700317e-192
-1.2848924e-196
-1.6762139e-202
1.5244431e-207
3.7209038e-213
1.5096906e-218
2.3534342e-224
8.5330589e-225
1.0848755e-224
4.8323237e-226
-1.7102197e-222
2.2216676e-222
1.2686297e-216
1.2184066e-220
1.5671434e-227
-4.4641922e-09
1.4244541e-20
-4.6028745e-32
2.1184654e-43
-2.0971401e-54
9.0387581e-65
2.4439773e-74
5.0834387e-84
3.2143941e-93
1.9847645e-101
-3.5901582e-109
1.5014753e-116
-4.5960974e-123
4.2748993e-127
1.3085294e-132
-2.3971493e-138
8.3766553e-143
-1.5346238e-148
5.361915e-154
-7.0390268e-159
2.1784526e-164
4.5412744e-168
2.709505e-172
7.7878891e-177
-1.5628975e-182
3.5979948e-187
-1.9430817e-191
6.8119876e-197
2.1957096e-202
3.6595525e-208
1.1193935e-213
9.9557715e-219
8.9462564e-224
1.1944302e-226
1.2874358e-231
3.6965255e-228
-2.5337612e-227
9.9053342e-222
3.1468581e-227
4.0792801e-234
-3.8906557e-09
1.0839477e-20
-3.0790466e-32
1.2383801e-43
-1.0438056e-54
3.5259072e-65
1.2139093e-74
2.2729286e-84
1.1842044e-93
4.8681628e-102
-9.1991137e-110
3.3053973e-117
-6.1514758e-124
1.9515272e-129
6.736792e-135
-2.8935808e-140
7.9247709e-146
1.797828e-151
-3.0390729e-157
-5.1650204e-163
-1.2215553e-167
3.9097056e-173
-1.3528577e-177
-1.5506721e-182
-7.8284177e-187
2.350815e-192
-4.5683605e-197
1.4503364e-202
-1.0066084e-207
-3.834554e-213
-8.5131219e-219
3.2906803e-225
1.2173124e-228
3.4901701e-232
4.9213519e-237
-6.8721771e-234
5.0193664e-233
-2.8033352e-227
6.5532556e-235
3.6978159e-241
-3.3994164e-09
8.2712211e-21
-2.0665698e-32
7.2797097e-44
-5.2508559e-55
1.4137185e-65
7.9803175e-75
1.3617357e-84
5.9279816e-94
1.7186113e-102
-3.54923e-110
1.0603408e-117
-1.568719e-124
4.4225555e-130
4.653668e-135
-9.5770793e-141
5.1636098e-146
-4.7796053e-152
-2.788916e-156
8.0024988e-161
-7.1465206e-166
1.4157741e-171
-1.5263451e-175
1.196034e-180
-2.099252e-186
-6.4782629e-192
1.8555088e-197
-5.1593617e-203
8.2203795e-209
1.1758033e-214
2.8588054e-220
5.0851033e-225
4.9618546e-231
-4.2851246e-236
-1.5539934e-241
8.6235256e-240
2.1520099e-239
-3.0136505e-233
-4.8514453e-240
-3.2975029e-247
-2.9798004e-09
6.3350023e-21
-1.3928368e-32
4.3059501e-44
-2.6701278e-55
5.8103948e-66
2.4633224e-74
3.8796811e-84
1.4282308e-93
3.0523136e-102
-8.220404e-110
2.1566582e-117
-2.5441983e-124
2.5815754e-130
-1.0010111e-135
9.3766845e-142
-4.3861549e-147
4.3543071e-153
-7.5415025e-159
7.0265277e-165
-5.4181874e-171
4.6450109e-177
2.9741436e-181
-5.0714477e-185
6.4043222e-191
-1.6130106e-196
3.2423535e-202
9.6142826e-208
-1.8606096e-213
2.9600146e-219
-1.7528493e-224
-1.6678323e-230
8.969739e-236
-1.0145825e-241
4.7516282e-247
-5.3964352e-246
1.1234094e-244
-3.90381e-239
-5.9700872e-246
-4.3584485e-253
-2.6223905e-09
4.875681e-21
-9.4372018e-33
2.5650976e-44
-1.3732351e-55
2.4440486e-66
-1.3826148e-75
-2.0369858e-85
-6.4166884e-95
-1.0443758e-103
4.948688e-111
-1.1712699e-118
1.0657423e-125
-5.7765889e-132
8.7521039e-138
-8.9791626e-144
1.0348991e-149
-1.0738196e-155
1.5774248e-161
-3.7820425e-167
2.7943953e-173
-3.6789539e-179
4.2283723e-185
9.7535612e-192
-1.2007451e-196
9.6130283e-202
-1.269364e-207
3.7403822e-214
4.4209487e-219
-1.2393213e-224
9.4575997e-230
4.9835573e-234
-8.0773045e-240
1.2519839e-245
-1.2149896e-251
6.7497753e-252
1.7259858e-251
-4.9055162e-245
-6.650466e-252
-5.0559518e-259
-2.3189517e-09
3.7759163e-21
-6.4369844e-33
1.5408071e-44
-7.1491226e-56
1.0513942e-66
-2.4368823e-76
-3.4081068e-86
-9.2908516e-96
-1.1793846e-104
-4.2226462e-111
9.0313465e-119
-6.729658e-126
2.5587579e-132
-2.1721935e-138
1.4394446e-144
-2.6703693e-150
1.6859736e-156
-1.5010271e-162
1.2696318e-168
-9.1898368e-175
6.6386613e-181
-8.9033114e-187
1.2808469e-192
-1.2095235e-198
3.9073116e-204
-6.242901e-210
6.2784501e-216
-6.3695764e-222
9.575935e-228
-1.4140945e-233
1.2090912e-239
-5.3742485e-246
-1.8939943e-251
2.487795e-257
-2.9487748e-258
3.2421411e-257
-4.0106768e-251
-5.6247292e-258
-4.201942e-265
-2.0622791e-09
2.9469953e-21
-4.4273935e-33
9.3470882e-45
-3.7723131e-56
4.625855e-67
-6.184145e-77
-8.3459678e-87
-1.9895408e-96
-2.0135046e-105
-5.7617832e-113
1.1582515e-120
-7.1429609e-128
2.1023465e-134
-1.5411335e-140
1.3429453e-146
-9.3974815e-153
5.878564e-159
-3.6308136e-165
2.8187181e-171
-2.4908319e-177
2.6564127e-183
-1.8876116e-189
1.1841998e-195
-7.9093134e-202
9.0764124e-208
-8.7353685e-214
8.2038257e-220
-9.7423512e-226
1.1794957e-231
-9.6445111e-238
7.9587038e-244
-1.3964679e-249
2.777907e-255
-1.7743944e-261
1.2819015e-264
1.6495095e-263
-3.1062258e-257
-4.1198268e-264
-2.9148354e-271
-1.846115e-09
2.322012e-21
-3.0768919e-33
5.7376119e-45
-2.02093e-56
2.0830721e-67
-1.8350707e-77
-2.4348283e-87
-5.1287594e-97
-4.211991e-106
-5.4999204e-114
1.070998e-121
-5.4589908e-129
1.4169275e-135
-1.2126576e-141
6.3993085e-148
-3.9410422e-154
2.9081508e-160
-1.5640971e-166
1.0898477e-172
-5.8021717e-179
2.5357658e-185
-1.8613144e-191
1.5697291e-197
-8.7490759e-204
5.3534976e-210
-4.3358784e-216
4.3776959e-222
-3.5321112e-228
2.9610371e-234
-1.9288795e-240
1.9211105e-246
-1.3732464e-252
1.2464877e-258
-7.5738572e-265
-1.9988688e-271
1.6566502e-269
-1.7646449e-263
-2.2854753e-270
-1.69946e-277
-1.664996e-09
1.8505091e-21
-2.1655243e-33
3.5719377e-45
-1.1015349e-56
9.6136585e-68
-6.0037803e-78
-8.0120364e-88
-1.5063975e-97
-1.0194583e-106
-7.9072836e-115
1.5400503e-122
-6.7247843e-130
1.2520915e-136
-8.1183744e-143
4.8829464e-149
-2.7690794e-155
1.3680822e-161
-6.5064604e-168
3.2116465e-174
-1.4283914e-180
7.962534e-187
-4.2506093e-193
3.1672974e-199
-2.0707379e-205
1.3197075e-211
-9.1258381e-218
4.9413186e-224
-3.4307799e-230
1.624839e-236
-1.2023935e-242
7.7094598e-249
-1.3198022e-254
7.7377398e-261
-4.0699092e-267
1.250654e-273
2.4570385e-276
-1.0368495e-269
-1.3570544e-276
-9.9334529e-284
-1.5142256e-09
1.4945887e-21
-1.5474117e-33
2.261243e-45
-6.1242384e-57
4.5560132e-68
-2.1134365e-78
-2.9168731e-88
-4.9445557e-98
-2.7995993e-107
-1.4369758e-115
2.9110153e-123
-1.1278148e-130
1.7998287e-137
-6.6812888e-144
3.511502e-150
-1.41569e-156
5.9399834e-163
-3.5521278e-169
1.7084061e-175
-7.3651585e-182
2.8523859e-188
-1.3274868e-194
6.0851186e-201
-2.3539513e-207
1.4312487e-213
-8.2001503e-220
3.8538616e-226
-2.3359466e-232
1.4549929e-238
-9.2424058e-245
6.3718639e-251
-3.4297194e-257
2.2723113e-263
-8.99781e-270
2.8345363e-276
2.16504e-282
-5.0279768e-276
-6.625037e-283
-4.856541e-290
-1.3897513e-09
1.2258012e-21
-1.1256844e-33
1.4599271e-45
-3.4830908e-57
2.2225177e-68
-7.9159156e-79
-1.1727841e-88
-1.8107398e-98
-8.6867186e-108
-3.1779785e-116
7.2537695e-124
-2.4342575e-131
3.1311124e-138
-1.1113203e-144
4.5582538e-151
-1.6307361e-157
6.005957e-164
-2.1471874e-170
8.3656146e-177
-3.2641966e-183
1.4144997e-189
-5.8040351e-196
2.5907794e-202
-9.9753654e-209
5.0095041e-215
-1.9474136e-221
1.021372e-227
-4.4957251e-234
2.0923857e-240
-1.00682e-246
4.3597186e-253
-2.4878581e-259
9.7390224e-266
-3.0847208e-272
8.216228e-279
-2.7341632e-285
-2.4011966e-282
-3.1231459e-289
-2.451076e-296
-1.2881002e-09
1.0228608e-21
-8.3599046e-34
9.6429635e-46
-2.0328634e-57
1.1191659e-68
-3.1384364e-79
-5.2628432e-89
-7.4789548e-99
-3.077842e-108
-8.4001359e-117
2.4008284e-124
-7.4959461e-132
7.8890927e-139
-2.7810348e-145
9.9138442e-152
-4.0666083e-158
1.5327531e-164
-5.6481714e-171
2.1299168e-177
-7.7275512e-184
2.4475159e-190
-1.129709e-196
4.0594564e-203
-1.3454259e-209
4.4306849e-216
-1.8546712e-222
6.5934687e-229
-2.5016604e-235
1.781909e-241
-7.1320744e-248
3.1293384e-254
-2.1417105e-260
9.8368112e-267
-2.5451216e-273
7.0083648e-280
-2.5997528e-286
-1.2636709e-288
-1.5302513e-295
-1.1550888e-302
-1.2062967e-09
8.6987036e-22
-6.3552408e-34
6.5367719e-46
-1.2215659e-57
5.8352809e-69
-1.3143703e-79
-2.7151053e-89
-3.5901392e-99
-1.2817936e-108
-2.7017952e-117
1.2254618e-124
-3.4988508e-132
3.2576601e-139
-7.4670426e-146
2.6402514e-152
-9.2007367e-159
2.8997001e-165
-9.2039055e-172
2.9312793e-178
-8.6765352e-185
2.9744989e-191
-1.0510208e-197
3.4716616e-204
-1.4972745e-210
2.6561798e-217
-2.8724541e-223
-5.1669846e-230
-1.2384796e-235
-6.3936103e-242
-6.9334456e-248
-1.1572774e-253
-9.3063994e-260
-1.6812609e-266
-6.6258137e-272
6.4524332e-278
-6.4570438e-284