/*--------------------------------*- C++ -*----------------------------------*\
  =========                 |
  \\      /  F ield         | OpenFOAM: The Open Source CFD Toolbox
   \\    /   O peration     | Website:  https://openfoam.org
    \\  /    A nd           | Version:  10
     \\/     M anipulation  |
\*---------------------------------------------------------------------------*/
FoamFile
{
    format      ascii;
    class       volVectorField;
    location    "0.17";
    object      U;
}
// * * * * * * * * * * * * * * * * * * * * * * * * * * * * * * * * * * * * * //

dimensions      [0 1 -1 0 0 0 0];

internalField   nonuniform List<vector> 
4000
(
(0 0.018637225 0.47773168)
(0 0.023509561 0.50886055)
(0 0.0081664482 0.50052523)
(0 0.0056142161 0.50033635)
(0 0.0042542105 0.50025746)
(0 0.0032545294 0.50016898)
(0 0.0025556962 0.50011968)
(0 0.0020542211 0.50009012)
(0 0.0016762637 0.5000698)
(0 0.00138198 0.50005538)
(0 0.0011469964 0.50004498)
(0 0.00095497336 0.50003731)
(0 0.00079465562 0.50003158)
(0 0.00065806662 0.50002725)
(0 0.00053937702 0.50002397)
(0 0.00043420517 0.50002149)
(0 0.00033916265 0.50001964)
(0 0.0002515465 0.50001831)
(0 0.00016912297 0.50001742)
(0 8.9968928e-05 0.50001691)
(0 1.2350013e-05 0.50001676)
(0 -6.538709e-05 0.50001696)
(0 -0.00014490579 0.50001753)
(0 -0.00022797182 0.50001848)
(0 -0.00031656388 0.50001989)
(0 -0.00041300432 0.50002184)
(0 -0.0005201309 0.50002445)
(0 -0.00064153614 0.50002792)
(0 -0.00078191507 0.50003251)
(0 -0.00094759512 0.50003863)
(0 -0.0011473874 0.50004688)
(0 -0.0013939519 0.50005824)
(0 -0.0017060368 0.50007414)
(0 -0.0021139931 0.5000971)
(0 -0.0026737377 0.50013483)
(0 -0.0034673925 0.5002024)
(0 -0.0045597482 0.50027147)
(0 -0.0065840122 0.50043369)
(0 -0.01765846 0.50675393)
(0 -0.013589626 0.47975592)
(0 0.037432039 0.44797007)
(0 0.050954406 0.53232608)
(0 0.021967971 0.50804291)
(0 0.016134364 0.50357325)
(0 0.012414738 0.50242317)
(0 0.0095146251 0.50162297)
(0 0.0075193559 0.50115656)
(0 0.0060687281 0.50086585)
(0 0.0049635431 0.50066791)
(0 0.0040992655 0.50052889)
(0 0.003406942 0.5004289)
(0 0.0028396222 0.50035539)
(0 0.0023649296 0.50030048)
(0 0.0019597777 0.50025907)
(0 0.0016072031 0.50022771)
(0 0.0012944078 0.50020404)
(0 0.0010114638 0.50018643)
(0 0.00075042993 0.50017376)
(0 0.00050472904 0.50016525)
(0 0.00026868823 0.50016041)
(0 3.7183768e-05 0.50015899)
(0 -0.00019466715 0.50016089)
(0 -0.00043177731 0.50016625)
(0 -0.00067936049 0.50017537)
(0 -0.00094325059 0.50018879)
(0 -0.0012302805 0.50020736)
(0 -0.001548778 0.50023231)
(0 -0.0019092531 0.50026545)
(0 -0.0023253909 0.50030939)
(0 -0.0028155351 0.50036803)
(0 -0.0034050652 0.50044731)
(0 -0.0041303619 0.50055669)
(0 -0.0050445098 0.50071129)
(0 -0.0062273808 0.50093668)
(0 -0.0078278619 0.50129449)
(0 -0.010121768 0.5019107)
(0 -0.013103287 0.50282541)
(0 -0.017422827 0.50608138)
(0 -0.038755821 0.52526799)
(0 -0.027893157 0.45021853)
(0 0.039887296 0.40982274)
(0 0.061425841 0.54930843)
(0 0.031981262 0.5218819)
(0 0.02435324 0.51008069)
(0 0.019191275 0.50658859)
(0 0.014974849 0.50452801)
(0 0.012004533 0.50327125)
(0 0.0097699059 0.50245817)
(0 0.0080347253 0.50190079)
(0 0.0066633404 0.50150836)
(0 0.0055555255 0.5012251)
(0 0.004641742 0.5010163)
(0 0.0038732471 0.50086011)
(0 0.0032146403 0.50074215)
(0 0.0026395822 0.50065274)
(0 0.0021280147 0.5005852)
(0 0.0016642556 0.50053492)
(0 0.0012356796 0.5004987)
(0 0.00083177408 0.50047437)
(0 0.00044343442 0.50046055)
(0 6.2413647e-05 0.50045646)
(0 -0.00031915557 0.50046191)
(0 -0.000709188 0.50047722)
(0 -0.0011160689 0.50050327)
(0 -0.0015491496 0.50054161)
(0 -0.0020193311 0.50059461)
(0 -0.0025398181 0.50066579)
(0 -0.0031271501 0.50076021)
(0 -0.0038026639 0.50088527)
(0 -0.004594606 0.5010519)
(0 -0.0055413386 0.50127662)
(0 -0.0066968497 0.50158557)
(0 -0.0081383495 0.50202086)
(0 -0.0099699391 0.50265091)
(0 -0.012364434 0.5036154)
(0 -0.015709827 0.50519968)
(0 -0.019866879 0.50785466)
(0 -0.025180557 0.51641256)
(0 -0.0474118 0.53912803)
(0 -0.030851372 0.41488562)
(0 0.034790364 0.36173435)
(0 0.063835608 0.55456459)
(0 0.039376483 0.5374712)
(0 0.030079905 0.51849275)
(0 0.024109053 0.51197734)
(0 0.019276099 0.50849931)
(0 0.015732837 0.50626396)
(0 0.012951087 0.50475501)
(0 0.010740885 0.50370386)
(0 0.0089655319 0.50295544)
(0 0.0075119913 0.50241028)
(0 0.0063005914 0.50200591)
(0 0.0052735206 0.50170203)
(0 0.004387515 0.50147173)
(0 0.0036097508 0.50129665)
(0 0.0029148374 0.50116412)
(0 0.0022826609 0.50106528)
(0 0.0016968532 0.50099399)
(0 0.001143666 0.50094606)
(0 0.00061111153 0.5009188)
(0 8.828086e-05 0.50091074)
(0 -0.00043525493 0.50092147)
(0 -0.00096998571 0.50095162)
(0 -0.0015269901 0.50100289)
(0 -0.0021185561 0.50107828)
(0 -0.0027588985 0.50118238)
(0 -0.0034650652 0.50132188)
(0 -0.0042581428 0.50150648)
(0 -0.0051649207 0.50175018)
(0 -0.0062201876 0.50207344)
(0 -0.0074698219 0.50250676)
(0 -0.0089760656 0.50309711)
(0 -0.0108263 0.50391924)
(0 -0.013127105 0.5050895)
(0 -0.016014136 0.50680741)
(0 -0.019889997 0.50946838)
(0 -0.024722722 0.514276)
(0 -0.031104295 0.52824738)
(0 -0.050312014 0.54407486)
(0 -0.028435379 0.37239139)
(0 0.027422889 0.31485025)
(0 0.062310531 0.55024369)
(0 0.044608936 0.55146747)
(0 0.033977044 0.52748814)
(0 0.0274591 0.51772245)
(0 0.022450285 0.51291957)
(0 0.018632121 0.5097309)
(0 0.015523785 0.50749185)
(0 0.013002296 0.50589893)
(0 0.010938813 0.50474569)
(0 0.0092219492 0.50389474)
(0 0.0077728425 0.50325761)
(0 0.0065314977 0.50277539)
(0 0.0054514803 0.50240787)
(0 0.0044967322 0.50212725)
(0 0.0036387778 0.50191409)
(0 0.0028546625 0.50175469)
(0 0.0021254366 0.50163948)
(0 0.0014349951 0.5015619)
(0 0.00076916684 0.50151772)
(0 0.00011497594 0.50150463)
(0 -0.00054001937 0.50152197)
(0 -0.0012083301 0.50157073)
(0 -0.0019031143 0.50165362)
(0 -0.002638862 0.5017753)
(0 -0.0034321651 0.50194293)
(0 -0.0043026627 0.50216692)
(0 -0.0052742525 0.50246215)
(0 -0.0063766979 0.50284987)
(0 -0.0076477875 0.50336074)
(0 -0.0091357985 0.50403939)
(0 -0.010903181 0.50495236)
(0 -0.013036784 0.50620248)
(0 -0.015640429 0.50794464)
(0 -0.018801975 0.51040522)
(0 -0.022882949 0.51405625)
(0 -0.028164841 0.5211469)
(0 -0.035694257 0.53932713)
(0 -0.050466464 0.54156229)
(0 -0.02408276 0.33057582)
(0 0.01983645 0.27520799)
(0 0.057984652 0.53975238)
(0 0.047356353 0.56256484)
(0 0.036470818 0.53660426)
(0 0.029629547 0.52350704)
(0 0.02466969 0.51740286)
(0 0.02076809 0.51336217)
(0 0.017504062 0.51044332)
(0 0.014809095 0.50832266)
(0 0.012562245 0.50675996)
(0 0.010661978 0.50559066)
(0 0.0090362898 0.50470562)
(0 0.0076275522 0.50402993)
(0 0.0063898925 0.50351135)
(0 0.0052868393 0.50311318)
(0 0.0042889112 0.50280938)
(0 0.0033718669 0.50258141)
(0 0.0025153566 0.50241619)
(0 0.001701843 0.50230471)
(0 0.0009157254 0.50224112)
(0 0.00014261283 0.50222222)
(0 -0.00063134177 0.50224709)
(0 -0.0014200581 0.50231711)
(0 -0.002238105 0.502436)
(0 -0.003101393 0.5026102)
(0 -0.0040279241 0.50284951)
(0 -0.0050386888 0.50316807)
(0 -0.0061587682 0.50358586)
(0 -0.0074187275 0.50413108)
(0 -0.0088565111 0.50484367)
(0 -0.010519401 0.50578062)
(0 -0.012465708 0.50702424)
(0 -0.014775658 0.50869769)
(0 -0.017551065 0.51098261)
(0 -0.020845928 0.51412142)
(0 -0.024956508 0.51873226)
(0 -0.03049195 0.52823149)
(0 -0.038612546 0.54872558)
(0 -0.048495972 0.5339979)
(0 -0.019063098 0.29396519)
(0 0.013081661 0.24256884)
(0 0.051792463 0.52521034)
(0 0.047699838 0.57024934)
(0 0.037748039 0.54552419)
(0 0.030841895 0.52928831)
(0 0.026065264 0.52180099)
(0 0.022230087 0.51699666)
(0 0.018946365 0.51347167)
(0 0.016186896 0.51086266)
(0 0.013843851 0.50890971)
(0 0.011830725 0.50742951)
(0 0.01008492 0.50629704)
(0 0.0085538023 0.50542453)
(0 0.0071946078 0.50474986)
(0 0.0059725227 0.50422866)
(0 0.0048587147 0.50382899)
(0 0.0038289809 0.50352789)
(0 0.0028626343 0.50330899)
(0 0.0019415715 0.50316092)
(0 0.0010494929 0.50307631)
(0 0.00017123867 0.50305106)
(0 -0.00070783496 0.50308402)
(0 -0.0016024442 0.50317691)
(0 -0.0025279114 0.50333447)
(0 -0.0035008195 0.50356483)
(0 -0.0045396913 0.50388028)
(0 -0.0056657834 0.50429841)
(0 -0.0069040284 0.50484386)
(0 -0.0082841505 0.50555089)
(0 -0.0098422392 0.50646729)
(0 -0.011622509 0.50766021)
(0 -0.013677226 0.5092245)
(0 -0.016075909 0.51129815)
(0 -0.018913891 0.51408053)
(0 -0.022222577 0.51784052)
(0 -0.026242685 0.52347042)
(0 -0.031826643 0.53537669)
(0 -0.039736926 0.55590005)
(0 -0.044878612 0.52284578)
(0 -0.014086515 0.26268176)
(0 0.0077685252 0.21555925)
(0 0.044818447 0.50802495)
(0 0.046243558 0.57438318)
(0 0.038023667 0.55375001)
(0 0.031277062 0.53495981)
(0 0.02675792 0.52602931)
(0 0.023106727 0.52053667)
(0 0.0199115 0.51648573)
(0 0.017173665 0.51343846)
(0 0.014805979 0.51112683)
(0 0.012740003 0.50935513)
(0 0.010923669 0.50798609)
(0 0.0093110606 0.50692209)
(0 0.007864193 0.50609323)
(0 0.0065513061 0.5054489)
(0 0.0053454263 0.50495226)
(0 0.0042234258 0.50457653)
(0 0.0031651558 0.50430246)
(0 0.0021526956 0.5041166)
(0 0.0011697021 0.50401017)
(0 0.00020084094 0.50397826)
(0 -0.00076876165 0.5040195)
(0 -0.0017540498 0.50413596)
(0 -0.002770498 0.50433326)
(0 -0.003834698 0.50462108)
(0 -0.0049649342 0.5050139)
(0 -0.0061818463 0.50553235)
(0 -0.0075091941 0.50620503)
(0 -0.0089746828 0.50707126)
(0 -0.01061113 0.50818521)
(0 -0.012458137 0.50962213)
(0 -0.01456086 0.51148706)
(0 -0.016975512 0.5139289)
(0 -0.019783797 0.51715642)
(0 -0.02300173 0.52148268)
(0 -0.026851588 0.52818561)
(0 -0.032323264 0.54222158)
(0 -0.039375455 0.56050857)
(0 -0.040310245 0.50911804)
(0 -0.0097036447 0.23590509)
(0 0.0040032715 0.19357922)
(0 0.037891094 0.48950864)
(0 0.043672571 0.57524484)
(0 0.037549257 0.56084333)
(0 0.031140686 0.54035984)
(0 0.026901267 0.53000999)
(0 0.023501763 0.52389949)
(0 0.020468778 0.51940932)
(0 0.017816279 0.51598366)
(0 0.015480267 0.51335397)
(0 0.013410405 0.51131841)
(0 0.011565322 0.50973114)
(0 0.0099068415 0.5084875)
(0 0.0084027077 0.50751183)
(0 0.0070250727 0.50674877)
(0 0.0057496452 0.50615759)
(0 0.0045551223 0.50570845)
(0 0.0034225641 0.50537972)
(0 0.0023348348 0.5051562)
(0 0.0012760968 0.5050279)
(0 0.00023135297 0.50498924)
(0 -0.00081400598 0.50503866)
(0 -0.0018746561 0.5051785)
(0 -0.0029657085 0.50541516)
(0 -0.0041032094 0.50575961)
(0 -0.0053045968 0.50622822)
(0 -0.0065892152 0.50684408)
(0 -0.0079788993 0.50763901)
(0 -0.0094985299 0.50865635)
(0 -0.011176731 0.50995519)
(0 -0.013047392 0.51161685)
(0 -0.015148057 0.51375398)
(0 -0.017521378 0.51652236)
(0 -0.020231557 0.52013309)
(0 -0.023286508 0.52496625)
(0 -0.026927757 0.53274302)
(0 -0.032168585 0.54839168)
(0 -0.037961236 0.56255512)
(0 -0.035394129 0.49384166)
(0 -0.0061957595 0.21331218)
(0 0.0015493081 0.17616148)
(0 0.031490049 0.47079132)
(0 0.040515046 0.57339405)
(0 0.036540657 0.56659635)
(0 0.030620397 0.54537626)
(0 0.02665563 0.53370256)
(0 0.023527764 0.52702918)
(0 0.020696061 0.5221841)
(0 0.018169872 0.51844579)
(0 0.015905683 0.51554457)
(0 0.013869055 0.51327825)
(0 0.01202853 0.51149623)
(0 0.010353792 0.51008946)
(0 0.0088185585 0.50897846)
(0 0.0073992778 0.50810449)
(0 0.0060748108 0.50742404)
(0 0.0048261586 0.50690494)
(0 0.0036360559 0.50652372)
(0 0.002488599 0.50626382)
(0 0.0013688831 0.50611428)
(0 0.00026265982 0.50606897)
(0 -0.000844012 0.50612616)
(0 -0.0019651349 0.50628844)
(0 -0.0031150428 0.50656284)
(0 -0.0043088053 0.50696135)
(0 -0.0055625615 0.50750181)
(0 -0.0068938872 0.50820926)
(0 -0.0083222001 0.50911791)
(0 -0.0098690992 0.51027407)
(0 -0.011558621 0.5117403)
(0 -0.013418519 0.51360196)
(0 -0.015478889 0.51597651)
(0 -0.017770376 0.51902254)
(0 -0.020339986 0.52295108)
(0 -0.023194985 0.5282387)
(0 -0.026615077 0.53704304)
(0 -0.031523863 0.55365994)
(0 -0.035865226 0.56232679)
(0 -0.030529768 0.47795808)
(0 -0.0035858238 0.19468325)
(0 7.4815271e-05 0.16255865)
(0 0.025859545 0.45263977)
(0 0.037139185 0.56944656)
(0 0.035168778 0.57098668)
(0 0.029856307 0.54995956)
(0 0.026153971 0.53711098)
(0 0.023287047 0.52990832)
(0 0.020669804 0.52477861)
(0 0.018291784 0.52079114)
(0 0.016124556 0.51766568)
(0 0.014146807 0.51520368)
(0 0.012335658 0.51325296)
(0 0.010668006 0.51170231)
(0 0.0091232098 0.51047001)
(0 0.0076819894 0.50949531)
(0 0.0063265096 0.50873284)
(0 0.0050403047 0.50814885)
(0 0.003808058 0.50771858)
(0 0.0026153931 0.50742445)
(0 0.0014486407 0.50725479)
(0 0.00029460565 0.50720306)
(0 -0.0008596795 0.50726743)
(0 -0.0020272374 0.50745063)
(0 -0.0032213183 0.50776018)
(0 -0.00445571 0.50820884)
(0 -0.0057449555 0.50881552)
(0 -0.007104584 0.50960662)
(0 -0.0085513569 0.51061803)
(0 -0.01010345 0.51189798)
(0 -0.011780384 0.5135112)
(0 -0.01360398 0.51554536)
(0 -0.015597491 0.51812019)
(0 -0.017781574 0.52139394)
(0 -0.02018868 0.52558107)
(0 -0.022832364 0.53128578)
(0 -0.026029574 0.54103312)
(0 -0.030519652 0.55793571)
(0 -0.033380682 0.56021914)
(0 -0.025968875 0.46215643)
(0 -0.0017595334 0.17955858)
(0 -0.00071999441 0.15194738)
(0 0.021095719 0.43548593)
(0 0.033795298 0.56395151)
(0 0.033576628 0.57408731)
(0 0.028949022 0.55408908)
(0 0.025495776 0.54025944)
(0 0.022863183 0.53254738)
(0 0.020456906 0.52718485)
(0 0.018234973 0.5230036)
(0 0.016177924 0.51969771)
(0 0.014275006 0.51707386)
(0 0.01251043 0.51498065)
(0 0.010867272 0.51330619)
(0 0.0093298684 0.51196785)
(0 0.0078829042 0.51090384)
(0 0.0065117476 0.5100678)
(0 0.0052024901 0.50942503)
(0 0.0039418704 0.50894998)
(0 0.0027171966 0.50862438)
(0 0.001516221 0.50843609)
(0 0.0003270023 0.50837829)
(0 -0.00086224537 0.50844905)
(0 -0.0020633557 0.50865125)
(0 -0.0032882946 0.5089927)
(0 -0.0045493817 0.50948671)
(0 -0.0058594063 0.51015286)
(0 -0.0072317467 0.51101843)
(0 -0.0086804796 0.51212028)
(0 -0.010220459 0.51350772)
(0 -0.011867041 0.51524661)
(0 -0.013636712 0.51742558)
(0 -0.015546667 0.52016479)
(0 -0.017609407 0.5236202)
(0 -0.019846478 0.52801748)
(0 -0.02228394 0.53411353)
(0 -0.025262099 0.54468227)
(0 -0.02927107 0.56120991)
(0 -0.030739093 0.55662774)
(0 -0.021864942 0.44687518)
(0 -0.00055856683 0.16735107)
(0 -0.001072202 0.14363045)
(0 0.017189397 0.41954414)
(0 0.030638942 0.55736844)
(0 0.031882075 0.57601959)
(0 0.027972546 0.55775719)
(0 0.024754503 0.54317375)
(0 0.022322557 0.53496903)
(0 0.020112947 0.52940868)
(0 0.018045156 0.52507913)
(0 0.01610276 0.5216312)
(0 0.014283107 0.51887626)
(0 0.012576011 0.5166652)
(0 0.01096958 0.51488647)
(0 0.0094523404 0.51345737)
(0 0.0080124781 0.51231587)
(0 0.0066382995 0.51141523)
(0 0.0053183286 0.51072035)
(0 0.004041337 0.51020525)
(0 0.0027963593 0.50985129)
(0 0.001572653 0.50964608)
(0 0.00035963829 0.50958262)
(0 -0.00085317065 0.50965891)
(0 -0.0020762996 0.50987791)
(0 -0.0033203235 0.51024763)
(0 -0.0045960115 0.51078165)
(0 -0.0059143592 0.51149996)
(0 -0.0072866216 0.51243025)
(0 -0.008724316 0.51360983)
(0 -0.01023923 0.51508841)
(0 -0.011843049 0.51693215)
(0 -0.013547691 0.51922978)
(0 -0.015365203 0.52210052)
(0 -0.017301613 0.52569733)
(0 -0.019371597 0.53026724)
(0 -0.021618561 0.53673358)
(0 -0.024385788 0.54797042)
(0 -0.027879755 0.56352669)
(0 -0.028110957 0.55191465)
(0 -0.01829206 0.43237921)
(0 0.00017547554 0.15751481)
(0 -0.0011553632 0.13705655)
(0 0.014063073 0.40489491)
(0 0.027750126 0.55007191)
(0 0.030173108 0.57693119)
(0 0.026979219 0.5609704)
(0 0.023983054 0.54587781)
(0 0.02171697 0.53720018)
(0 0.01968305 0.53146318)
(0 0.017760606 0.52702093)
(0 0.015931112 0.52346351)
(0 0.014197533 0.52060442)
(0 0.012553853 0.51829772)
(0 0.010992098 0.51643284)
(0 0.0095041772 0.51492755)
(0 0.0080812405 0.51372009)
(0 0.0067141751 0.51276382)
(0 0.00539372 0.5120236)
(0 0.0041105643 0.51147335)
(0 0.0028554236 0.51109432)
(0 0.0016190612 0.51087398)
(0 0.00039228817 0.51080528)
(0 -0.00083403976 0.51088619)
(0 -0.0020690982 0.51111969)
(0 -0.0033220444 0.51151386)
(0 -0.0046020988 0.51208241)
(0 -0.0059185122 0.51284543)
(0 -0.007280539 0.51383071)
(0 -0.0086973606 0.51507558)
(0 -0.010178049 0.51662966)
(0 -0.011731174 0.51855887)
(0 -0.013364918 0.52095138)
(0 -0.01508717 0.52392456)
(0 -0.016899143 0.52762895)
(0 -0.018812521 0.53234395)
(0 -0.020890675 0.53915996)
(0 -0.023457749 0.55089114)
(0 -0.026428107 0.56496892)
(0 -0.025607448 0.54639805)
(0 -0.015261811 0.41881677)
(0 0.0005806926 0.14958716)
(0 -0.0010878074 0.13178603)
(0 0.011606086 0.39152977)
(0 0.025156642 0.54235589)
(0 0.028508481 0.57697659)
(0 0.026002359 0.56374843)
(0 0.0232167 0.54839444)
(0 0.021084858 0.53926923)
(0 0.019202587 0.5333657)
(0 0.01741248 0.52883693)
(0 0.015689972 0.52519671)
(0 0.014041222 0.52225635)
(0 0.012463106 0.51987338)
(0 0.010950559 0.51793856)
(0 0.0094981024 0.51637042)
(0 0.0080992955 0.5151078)
(0 0.0067472102 0.51410446)
(0 0.0054345314 0.51332548)
(0 0.0041536909 0.5127449)
(0 0.002896977 0.51234405)
(0 0.0016565976 0.51211041)
(0 0.00042472169 0.5120369)
(0 -0.00080647333 0.51212151)
(0 -0.0020448329 0.51236719)
(0 -0.0032981324 0.51278204)
(0 -0.0045741092 0.51337969)
(0 -0.0058803832 0.51418019)
(0 -0.0072243914 0.51521115)
(0 -0.0086132623 0.51650964)
(0 -0.010053754 0.51812484)
(0 -0.011551895 0.52012206)
(0 -0.013112948 0.52258853)
(0 -0.014741633 0.52563924)
(0 -0.016435941 0.52942415)
(0 -0.018207859 0.53426567)
(0 -0.020140798 0.5414092)
(0 -0.022519437 0.55345216)
(0 -0.02497711 0.5656414)
(0 -0.023291171 0.54034415)
(0 -0.012744525 0.40624998)
(0 0.00076617368 0.14317402)
(0 -0.00094597705 0.1274734)
(0 0.0096996602 0.37938288)
(0 0.022854993 0.53444109)
(0 0.026923327 0.5763011)
(0 0.025060626 0.56611858)
(0 0.022476577 0.55074427)
(0 0.020452797 0.5412038)
(0 0.018697929 0.53513582)
(0 0.017025197 0.53053808)
(0 0.015401338 0.52683607)
(0 0.013833481 0.52383329)
(0 0.012320341 0.52139042)
(0 0.010858921 0.51939972)
(0 0.0094456544 0.5177806)
(0 0.008075986 0.51647261)
(0 0.006744774 0.51543007)
(0 0.0054463597 0.51461849)
(0 0.0041747093 0.51401216)
(0 0.0029235362 0.5135926)
(0 0.0016863877 0.51334738)
(0 0.00045671237 0.51326949)
(0 -0.00077205736 0.51335691)
(0 -0.0020065034 0.51361256)
(0 -0.0032531013 0.51404445)
(0 -0.0045182165 0.51466608)
(0 -0.0058079936 0.51549727)
(0 -0.0071282717 0.51656532)
(0 -0.0084844351 0.51790683)
(0 -0.0098813428 0.51957034)
(0 -0.011323034 0.52162038)
(0 -0.012812589 0.52414297)
(0 -0.014352459 0.52725072)
(0 -0.015938875 0.53109575)
(0 -0.017586625 0.53605273)
(0 -0.019396988 0.54349877)
(0 -0.021598796 0.555671)
(0 -0.023568691 0.5656545)
(0 -0.021190107 0.53396485)
(0 -0.010687656 0.39467866)
(0 0.00081222776 0.1379422)
(0 -0.00077736486 0.12385769)
(0 0.0082311405 0.36835756)
(0 0.020824864 0.52648728)
(0 0.025435475 0.57503282)
(0 0.02416273 0.56811054)
(0 0.021773735 0.55294422)
(0 0.019837846 0.54302847)
(0 0.018187763 0.53679323)
(0 0.016617136 0.53213682)
(0 0.015082512 0.52838881)
(0 0.013590042 0.52533864)
(0 0.012139476 0.52284934)
(0 0.010729203 0.52081462)
(0 0.0093569873 0.51915475)
(0 0.0080196873 0.51781001)
(0 0.0067135774 0.51673534)
(0 0.0054343681 0.51589674)
(0 0.0041773405 0.51526886)
(0 0.0029374638 0.51483346)
(0 0.0017094922 0.51457829)
(0 0.000488045 0.51449641)
(0 -0.00073228911 0.5145858)
(0 -0.0019569279 0.51484934)
(0 -0.0031911607 0.51529492)
(0 -0.0044401197 0.51593582)
(0 -0.0057086537 0.51679156)
(0 -0.0070012376 0.51788901)
(0 -0.0083218189 0.51926419)
(0 -0.0096737536 0.52096495)
(0 -0.011059587 0.52305494)
(0 -0.012480851 0.52561897)
(0 -0.01393849 0.52876751)
(0 -0.015428267 0.53265835)
(0 -0.016969472 0.53772528)
(0 -0.018677356 0.54544505)
(0 -0.020713271 0.55757019)
(0 -0.02222932 0.56511348)
(0 -0.019309289 0.52742254)
(0 -0.0090284149 0.3840627)
(0 0.00077536142 0.13361949)
(0 -0.00060996024 0.12074878)
(0 0.0071013386 0.35834523)
(0 0.019038195 0.51860697)
(0 0.02405073 0.57328103)
(0 0.023311042 0.56975376)
(0 0.021112526 0.55500716)
(0 0.019249991 0.5447636)
(0 0.0176847 0.53835617)
(0 0.016201645 0.53364567)
(0 0.014746677 0.52986297)
(0 0.013323363 0.52677709)
(0 0.011931878 0.52425213)
(0 0.010571484 0.52218317)
(0 0.0092408015 0.52049116)
(0 0.0079377081 0.51911707)
(0 0.0066595657 0.51801643)
(0 0.0054031876 0.51715574)
(0 0.0041649537 0.51651006)
(0 0.0029409135 0.51606142)
(0 0.0017268818 0.51579776)
(0 0.00051852202 0.51571223)
(0 -0.00068853926 0.51580285)
(0 -0.0018986753 0.51607241)
(0 -0.0031161205 0.51652866)
(0 -0.0043449274 0.51718463)
(0 -0.0055888357 0.51805948)
(0 -0.0068511864 0.51917961)
(0 -0.0081347791 0.52058046)
(0 -0.0094418225 0.52230916)
(0 -0.010773797 0.52442855)
(0 -0.012131197 0.52702225)
(0 -0.013514082 0.53019922)
(0 -0.01491886 0.53412672)
(0 -0.016370283 0.53930167)
(0 -0.017992551 0.54726232)
(0 -0.019872463 0.5591743)
(0 -0.020973365 0.56411345)
(0 -0.017639397 0.52083836)
(0 -0.0077020728 0.37433959)
(0 0.00069399178 0.12999078)
(0 -0.00045868703 0.11801151)
(0 0.006227673 0.34923669)
(0 0.017464804 0.51087704)
(0 0.022767131 0.57113738)
(0 0.022504102 0.57107639)
(0 0.020493009 0.55694246)
(0 0.018694163 0.54642522)
(0 0.017196758 0.53984072)
(0 0.015788075 0.53507644)
(0 0.014403588 0.53126664)
(0 0.013043051 0.52815385)
(0 0.011706613 0.5256017)
(0 0.010394017 0.52350634)
(0 0.0091043775 0.5217893)
(0 0.0078362759 0.52039206)
(0 0.006587881 0.51927071)
(0 0.0053568716 0.5183922)
(0 0.0041405253 0.51773199)
(0 0.0029358005 0.51727239)
(0 0.001739424 0.51700153)
(0 0.00054796878 0.51691268)
(0 -0.00064202811 0.51700385)
(0 -0.0018340245 0.51727778)
(0 -0.0030313387 0.51774204)
(0 -0.0042370999 0.51840942)
(0 -0.005454121 0.51929869)
(0 -0.0066848255 0.52043581)
(0 -0.0079311232 0.52185563)
(0 -0.0091943822 0.52360464)
(0 -0.010475369 0.52574497)
(0 -0.01177395 0.5283592)
(0 -0.013089789 0.53155562)
(0 -0.014420837 0.5355148)
(0 -0.015797642 0.54079778)
(0 -0.017347759 0.54896261)
(0 -0.019080258 0.56050816)
(0 -0.01980618 0.56273756)
(0 -0.016163086 0.51430035)
(0 -0.0066474092 0.36543632)
(0 0.00059330294 0.12688972)
(0 -0.00033001289 0.11555177)
(0 0.0055444066 0.34092841)
(0 0.016075704 0.50334799)
(0 0.021578322 0.56867795)
(0 0.021738424 0.57210464)
(0 0.019912662 0.5587567)
(0 0.018171807 0.54802542)
(0 0.016728562 0.54126051)
(0 0.015382678 0.53643984)
(0 0.014060238 0.5326075)
(0 0.012756335 0.52947425)
(0 0.011470746 0.52690137)
(0 0.01020341 0.5247858)
(0 0.0089536781 0.52304945)
(0 0.0077205845 0.52163419)
(0 0.0065028753 0.52049651)
(0 0.0052988912 0.5196038)
(0 0.0041066275 0.51893185)
(0 0.0029237916 0.51846325)
(0 0.0017478787 0.51818632)
(0 0.00057623651 0.51809442)
(0 -0.00059381451 0.51818558)
(0 -0.0017649469 0.51846246)
(0 -0.0029397029 0.51893246)
(0 -0.0041204373 0.51960813)
(0 -0.0053092074 0.52050788)
(0 -0.0065077134 0.52165724)
(0 -0.0077171986 0.52309057)
(0 -0.0089384445 0.5248538)
(0 -0.010171783 0.52700847)
(0 -0.011416765 0.52963634)
(0 -0.012673029 0.5328461)
(0 -0.013940747 0.53683517)
(0 -0.015256091 0.54222683)
(0 -0.016744295 0.55055578)
(0 -0.018336619 0.56159572)
(0 -0.018726938 0.56105675)
(0 -0.014859445 0.50787053)
(0 -0.0058098218 0.35727674)
(0 0.00048904815 0.12418985)
(0 -0.00022527072 0.11330522)
(0 0.0050010546 0.33332579)
(0 0.014844751 0.49605117)
(0 0.020475971 0.56596558)
(0 0.021009747 0.57286262)
(0 0.019367616 0.56045433)
(0 0.01768211 0.54957289)
(0 0.016282323 0.54262682)
(0 0.014989371 0.53774525)
(0 0.013721451 0.53389256)
(0 0.012468496 0.53074339)
(0 0.011229652 0.52815464)
(0 0.010004847 0.52602363)
(0 0.0087934887 0.52427249)
(0 0.0075948795 0.52284332)
(0 0.0064081592 0.52169293)
(0 0.0052321604 0.52078902)
(0 0.0040654398 0.52010768)
(0 0.0029063093 0.51963175)
(0 0.0017528998 0.5193497)
(0 0.00060320577 0.51925499)
(0 -0.00054479268 0.51934566)
(0 -0.0016931084 0.51962429)
(0 -0.0028436384 0.52009813)
(0 -0.003998102 0.52077949)
(0 -0.0051579558 0.52168649)
(0 -0.0063243452 0.52284425)
(0 -0.007498034 0.52428672)
(0 -0.0086794204 0.52605941)
(0 -0.0098686138 0.52822343)
(0 -0.011065078 0.53085997)
(0 -0.012268705 0.53407927)
(0 -0.013482345 0.53809878)
(0 -0.01474723 0.54359938)
(0 -0.016180903 0.55204964)
(0 -0.017639066 0.56245919)
(0 -0.017731006 0.55913053)
(0 -0.013706898 0.50159107)
(0 -0.005142641 0.3497863)
(0 0.00039044197 0.12179654)
(0 -0.00014293105 0.11122861)
(0 0.0045599566 0.32634461)
(0 0.013749214 0.48900438)
(0 0.01945132 0.56305223)
(0 0.02031382 0.57337232)
(0 0.01885351 0.56203821)
(0 0.017222932 0.55107344)
(0 0.015858606 0.54394867)
(0 0.014610357 0.53900074)
(0 0.013390382 0.53512809)
(0 0.01218327 0.53196601)
(0 0.010987317 0.52936492)
(0 0.0098022999 0.52722207)
(0 0.0086275711 0.52545966)
(0 0.0074625641 0.52401984)
(0 0.0063066714 0.52285963)
(0 0.0051590799 0.52194697)
(0 0.0040187751 0.52125819)
(0 0.0028845472 0.5207763)
(0 0.0017550418 0.52048994)
(0 0.00062878614 0.52039263)
(0 -0.00049569893 0.52048241)
(0 -0.0016198827 0.52076181)
(0 -0.0027451338 0.52123794)
(0 -0.0038726638 0.52192288)
(0 -0.005003463 0.52283451)
(0 -0.0061382645 0.52399763)
(0 -0.0072775039 0.52544585)
(0 -0.0084213532 0.52722441)
(0 -0.0095698526 0.52939412)
(0 -0.010722544 0.5320359)
(0 -0.011879772 0.53526283)
(0 -0.013047324 0.53931487)
(0 -0.014270636 0.54492355)
(0 -0.015654767 0.55345024)
(0 -0.016983769 0.5631188)
(0 -0.016811681 0.55700832)
(0 -0.012684926 0.49548933)
(0 -0.0046073188 0.34289493)
(0 0.00030232031 0.11964023)
(0 -8.0082062e-05 0.10929301)
(0 0.00419369 0.31991121)
(0 0.01276976 0.48221605)
(0 0.018496056 0.55998106)
(0 0.019646806 0.57365392)
(0 0.018366021 0.56351019)
(0 0.016791468 0.55253065)
(0 0.015456922 0.54523308)
(0 0.014246637 0.54021309)
(0 0.013068952 0.53631954)
(0 0.011903188 0.53314638)
(0 0.010746609 0.53053544)
(0 0.0095987423 0.52838341)
(0 0.0084588192 0.52661237)
(0 0.007326312 0.52516444)
(0 0.0062007584 0.52399671)
(0 0.0050815912 0.52307726)
(0 0.0039681152 0.5223826)
(0 0.0028594906 0.5218959)
(0 0.0017547709 0.52160589)
(0 0.00065291427 0.52150616)
(0 -0.00044712358 0.52159475)
(0 -0.0015463735 0.52187413)
(0 -0.0026457798 0.52235129)
(0 -0.0037461593 0.52303816)
(0 -0.0048481487 0.52395236)
(0 -0.0059521863 0.52511849)
(0 -0.0070584989 0.52656991)
(0 -0.00816715 0.52835168)
(0 -0.0092782141 0.53052451)
(0 -0.010391425 0.53316937)
(0 -0.011507723 0.53640342)
(0 -0.012635915 0.54049101)
(0 -0.013824588 0.54620528)
(0 -0.015162243 0.55476211)
(0 -0.016366323 0.56359271)
(0 -0.015961406 0.55473099)
(0 -0.011774963 0.48958195)
(0 -0.004172914 0.33653855)
(0 0.00022667023 0.1176705)
(0 -3.3353438e-05 0.10747895)
(0 0.0038826789 0.31396188)
(0 0.011890146 0.47568827)
(0 0.017602735 0.55678821)
(0 0.019005447 0.57372603)
(0 0.017901159 0.56487157)
(0 0.016384674 0.55394635)
(0 0.015076144 0.54648538)
(0 0.013898385 0.54138794)
(0 0.012758181 0.53747159)
(0 0.011629868 0.53428828)
(0 0.010509516 0.53166917)
(0 0.0093963351 0.52950984)
(0 0.0082894068 0.52773216)
(0 0.007188179 0.52627805)
(0 0.0060922574 0.52510457)
(0 0.005001236 0.52417988)
(0 0.0039146498 0.52348059)
(0 0.0028319397 0.52298998)
(0 0.0017524743 0.52269686)
(0 0.00067555317 0.52259486)
(0 -0.00039952436 0.52268203)
(0 -0.0014734427 0.52296079)
(0 -0.0025468151 0.52343801)
(0 -0.0036201579 0.5241255)
(0 -0.0046938481 0.52504073)
(0 -0.0057681237 0.52620809)
(0 -0.0068430936 0.52766085)
(0 -0.0079187969 0.52944399)
(0 -0.0089954087 0.53161822)
(0 -0.010072929 0.53426495)
(0 -0.011152996 0.53750668)
(0 -0.012247369 0.5416332)
(0 -0.013406605 0.5474487)
(0 -0.014699372 0.55598863)
(0 -0.015782258 0.56389723)
(0 -0.015172574 0.55233237)
(0 -0.010960745 0.48387789)
(0 -0.0038151821 0.3306598)
(0 0.00016369804 0.11585125)
(0 5.4192281e-07 0.10577293)
(0 0.0036131535 0.30844197)
(0 0.011096803 0.46941889)
(0 0.016764917 0.5535041)
(0 0.018387078 0.57360597)
(0 0.017455403 0.56612346)
(0 0.015999536 0.55532114)
(0 0.014714789 0.5477095)
(0 0.013565237 0.54252988)
(0 0.01245846 0.53858823)
(0 0.011364246 0.53539499)
(0 0.010277344 0.53276878)
(0 0.0091965945 0.53060347)
(0 0.0081209212 0.52882055)
(0 0.0070497084 0.52736169)
(0 0.0059825754 0.52618381)
(0 0.0049192136 0.52525507)
(0 0.0038593174 0.52455213)
(0 0.0028025342 0.52405833)
(0 0.0017484712 0.52376255)
(0 0.00069669057 0.52365842)
(0 -0.00035324154 0.523744)
(0 -0.0014017425 0.52402166)
(0 -0.0024491739 0.52449822)
(0 -0.0034958297 0.52518537)
(0 -0.0045419039 0.52610045)
(0 -0.0055875078 0.52726778)
(0 -0.0066327001 0.52872056)
(0 -0.0076775525 0.53050384)
(0 -0.0087223788 0.53267845)
(0 -0.0097674903 0.53532657)
(0 -0.010815295 0.53857727)
(0 -0.011880319 0.5427461)
(0 -0.013013838 0.54865646)
(0 -0.014262213 0.55713234)
(0 -0.015227355 0.564047)
(0 -0.014438012 0.54984049)
(0 -0.010228323 0.47838073)
(0 -0.0035155056 0.32520796)
(0 0.00011257316 0.1141568)
(0 2.452929e-05 0.10416516)
(0 0.0033755114 0.30330467)
(0 0.010378393 0.46340302)
(0 0.015977126 0.55015459)
(0 0.017789573 0.57330997)
(0 0.017025743 0.56726705)
(0 0.015633217 0.55665476)
(0 0.014371216 0.54890819)
(0 0.013246491 0.54364265)
(0 0.012169738 0.53967283)
(0 0.011106764 0.53646937)
(0 0.010050883 0.53383665)
(0 0.0090005317 0.53166621)
(0 0.0079544797 0.52987903)
(0 0.0069120248 0.52841645)
(0 0.0058727635 0.52723517)
(0 0.0048364371 0.52630328)
(0 0.0038028439 0.52559745)
(0 0.0027717778 0.52510102)
(0 0.0017430218 0.52480292)
(0 0.00071633498 0.52469678)
(0 -0.00030851544 0.52478067)
(0 -0.0013317461 0.5250569)
(0 -0.0023535332 0.52553226)
(0 -0.0033740113 0.52621835)
(0 -0.004393253 0.52713248)
(0 -0.0054112991 0.5282989)
(0 -0.0064282053 0.52975084)
(0 -0.0074441139 0.53153349)
(0 -0.0084594938 0.53370796)
(0 -0.0094749927 0.53635757)
(0 -0.010493836 0.53961901)
(0 -0.011533043 0.54383317)
(0 -0.012643333 0.54983007)
(0 -0.013847054 0.5581952)
(0 -0.014697811 0.56405525)
(0 -0.013751243 0.54727879)
(0 -0.0095659019 0.4730904)
(0 -0.0032598264 0.32013868)
(0 7.1935023e-05 0.11256892)
(0 4.106413e-05 0.10264804)
(0 0.0031630635 0.29851002)
(0 0.0097254083 0.45763406)
(0 0.015234728 0.5467617)
(0 0.017211245 0.57285329)
(0 0.016609662 0.56830375)
(0 0.015283133 0.55794638)
(0 0.014043739 0.55008331)
(0 0.012941244 0.54472928)
(0 0.011891675 0.54072823)
(0 0.010857506 0.53751386)