/*--------------------------------*- C++ -*----------------------------------*\
  =========                 |
  \\      /  F ield         | OpenFOAM: The Open Source CFD Toolbox
   \\    /   O peration     | Website:  https://openfoam.org
    \\  /    A nd           | Version:  10
     \\/     M anipulation  |
\*---------------------------------------------------------------------------*/
FoamFile
{
    format      ascii;
    class       volVectorField;
    location    "0.17";
    object      U_0;
}
// * * * * * * * * * * * * * * * * * * * * * * * * * * * * * * * * * * * * * //

dimensions      [0 1 -1 0 0 0 0];

internalField   nonuniform List<vector> 
4000
(
(0 0.018637212 0.47773169)
(0 0.023509538 0.50886054)
(0 0.0081664267 0.50052523)
(0 0.0056141946 0.50033635)
(0 0.0042541875 0.50025746)
(0 0.003254506 0.50016898)
(0 0.0025556732 0.50011968)
(0 0.0020541991 0.50009012)
(0 0.0016762431 0.5000698)
(0 0.0013819613 0.50005538)
(0 0.00114698 0.50004498)
(0 0.00095495966 0.50003731)
(0 0.00079464496 0.50003158)
(0 0.00065805929 0.50002725)
(0 0.00053937328 0.50002397)
(0 0.00043420523 0.50002149)
(0 0.00033916669 0.50001964)
(0 0.00025155464 0.50001831)
(0 0.00016913531 0.50001742)
(0 8.9985521e-05 0.50001691)
(0 1.237086e-05 0.50001676)
(0 -6.5362035e-05 0.50001696)
(0 -0.00014487662 0.50001753)
(0 -0.00022793864 0.50001848)
(0 -0.00031652687 0.50001989)
(0 -0.00041296373 0.50002184)
(0 -0.00052008704 0.50002445)
(0 -0.00064148933 0.50002792)
(0 -0.00078186569 0.50003251)
(0 -0.00094754366 0.50003863)
(0 -0.0011473344 0.50004688)
(0 -0.0013938978 0.50005824)
(0 -0.0017059824 0.50007414)
(0 -0.0021139392 0.5000971)
(0 -0.0026736851 0.50013483)
(0 -0.0034673427 0.5002024)
(0 -0.004559703 0.50027147)
(0 -0.0065839695 0.5004337)
(0 -0.017658417 0.50675392)
(0 -0.013589604 0.47975593)
(0 0.037432005 0.44797011)
(0 0.050954336 0.53232607)
(0 0.0219679 0.50804291)
(0 0.016134296 0.50357326)
(0 0.012414665 0.50242317)
(0 0.009514551 0.50162297)
(0 0.0075192831 0.50115656)
(0 0.0060686582 0.50086585)
(0 0.0049634777 0.5006679)
(0 0.0040992059 0.50052889)
(0 0.0034068895 0.5004289)
(0 0.0028395781 0.50035538)
(0 0.0023648949 0.50030047)
(0 0.0019597533 0.50025906)
(0 0.0016071898 0.5002277)
(0 0.0012944063 0.50020403)
(0 0.0010114746 0.50018643)
(0 0.00075045357 0.50017375)
(0 0.00050476571 0.50016524)
(0 0.00026873812 0.5001604)
(0 3.7246895e-05 0.50015898)
(0 -0.00019459089 0.50016088)
(0 -0.00043168823 0.50016624)
(0 -0.00067925894 0.50017536)
(0 -0.00094313713 0.50018878)
(0 -0.0012301559 0.50020735)
(0 -0.001548643 0.50023231)
(0 -0.0019091089 0.50026544)
(0 -0.0023252386 0.50030939)
(0 -0.0028153762 0.50036803)
(0 -0.0034049012 0.5004473)
(0 -0.0041301947 0.50055669)
(0 -0.0050443415 0.50071129)
(0 -0.0062272136 0.50093668)
(0 -0.0078276985 0.5012945)
(0 -0.010121612 0.50191071)
(0 -0.013103145 0.50282542)
(0 -0.01742269 0.50608139)
(0 -0.03875569 0.52526798)
(0 -0.027893095 0.45021862)
(0 0.039887245 0.40982285)
(0 0.061425721 0.54930844)
(0 0.03198113 0.5218819)
(0 0.024353118 0.5100807)
(0 0.019191146 0.5065886)
(0 0.014974718 0.50452801)
(0 0.012004406 0.50327125)
(0 0.0097697832 0.50245817)
(0 0.0080346103 0.50190078)
(0 0.0066632356 0.50150835)
(0 0.0055554331 0.50122508)
(0 0.004641664 0.50101628)
(0 0.0038731853 0.50086009)
(0 0.0032145963 0.50074213)
(0 0.0026395574 0.50065272)
(0 0.0021280103 0.50058518)
(0 0.0016642725 0.50053489)
(0 0.0012357185 0.50049867)
(0 0.00083183551 0.50047434)
(0 0.00044351869 0.50046052)
(0 6.2520795e-05 0.50045644)
(0 -0.00031902572 0.50046189)
(0 -0.00070903592 0.50047719)
(0 -0.0011158953 0.50050324)
(0 -0.0015489554 0.50054158)
(0 -0.0020191174 0.50059459)
(0 -0.0025395866 0.50066577)
(0 -0.0031269024 0.50076019)
(0 -0.0038024021 0.50088526)
(0 -0.0045943325 0.50105188)
(0 -0.0055410561 0.50127661)
(0 -0.0066965612 0.50158556)
(0 -0.0081380586 0.50202086)
(0 -0.0099696497 0.50265091)
(0 -0.012364151 0.50361541)
(0 -0.015709555 0.5051997)
(0 -0.019866629 0.50785469)
(0 -0.025180306 0.51641257)
(0 -0.047411575 0.53912806)
(0 -0.030851274 0.41488584)
(0 0.034790301 0.36173457)
(0 0.063835435 0.55456465)
(0 0.039376277 0.5374712)
(0 0.030079719 0.51849276)
(0 0.02410886 0.51197735)
(0 0.019275905 0.50849931)
(0 0.015732647 0.50626395)
(0 0.012950904 0.50475499)
(0 0.010740714 0.50370384)
(0 0.008965376 0.50295541)
(0 0.0075118536 0.50241025)
(0 0.0063004747 0.50200587)
(0 0.0052734274 0.50170199)
(0 0.0043874478 0.50147168)
(0 0.0036097116 0.5012966)
(0 0.0029148278 0.50116407)
(0 0.0022826823 0.50106523)
(0 0.0016969067 0.50099394)
(0 0.0011437524 0.50094601)
(0 0.00061123111 0.50091875)
(0 8.8433808e-05 0.50091069)
(0 -0.00043506888 0.50092142)
(0 -0.0009697672 0.50095156)
(0 -0.0015267401 0.50100284)
(0 -0.002118276 0.50107824)
(0 -0.0027585899 0.50118233)
(0 -0.0034647302 0.50132184)
(0 -0.0042577841 0.50150645)
(0 -0.0051645411 0.50175015)
(0 -0.0062197905 0.50207342)
(0 -0.0074694112 0.50250674)
(0 -0.0089756456 0.5030971)
(0 -0.010825876 0.50391924)
(0 -0.013126682 0.50508951)
(0 -0.01601372 0.50680743)
(0 -0.019889595 0.50946841)
(0 -0.024722348 0.51427604)
(0 -0.031103905 0.52824739)
(0 -0.050311685 0.54407498)
(0 -0.02843525 0.37239183)
(0 0.027422819 0.31485062)
(0 0.062310305 0.55024385)
(0 0.044608642 0.55146746)
(0 0.033976779 0.52748814)
(0 0.027458833 0.51772246)
(0 0.022450017 0.51291956)
(0 0.018631859 0.50973088)
(0 0.015523535 0.50749183)
(0 0.013002061 0.5058989)
(0 0.010938599 0.50474565)
(0 0.0092217592 0.50389469)
(0 0.0077726808 0.50325754)
(0 0.0065313678 0.50277532)
(0 0.0054513853 0.50240779)
(0 0.0044966746 0.50212717)
(0 0.0036387599 0.501914)
(0 0.0028546863 0.5017546)
(0 0.0021255035 0.50163939)
(0 0.0014351061 0.5015618)
(0 0.0007693225 0.50151763)
(0 0.00011517642 0.50150453)
(0 -0.00053977439 0.50152188)
(0 -0.0012080414 0.50157064)
(0 -0.0019027832 0.50165353)
(0 -0.0026384902 0.50177522)
(0 -0.0034317548 0.50194285)
(0 -0.0043022167 0.50216685)
(0 -0.0052737741 0.50246208)
(0 -0.0063761909 0.50284982)
(0 -0.0076472563 0.50336069)
(0 -0.0091352482 0.50403936)
(0 -0.010902617 0.50495235)
(0 -0.013036213 0.50620248)
(0 -0.015639858 0.50794465)
(0 -0.018801411 0.51040526)
(0 -0.022882402 0.51405631)
(0 -0.028164319 0.52114696)
(0 -0.035693704 0.53932715)
(0 -0.050466027 0.54156258)
(0 -0.024082608 0.33057653)
(0 0.019836376 0.27520851)
(0 0.057984376 0.53975268)
(0 0.047355961 0.56256485)
(0 0.036470458 0.53660425)
(0 0.029629194 0.52350705)
(0 0.024669339 0.51740286)
(0 0.020767747 0.51336214)
(0 0.017503732 0.51044328)
(0 0.014808787 0.5083226)
(0 0.012561963 0.50675989)
(0 0.010661727 0.50559057)
(0 0.0090360755 0.50470553)
(0 0.0076273787 0.50402982)
(0 0.0063897637 0.50351123)
(0 0.0052867585 0.50311306)
(0 0.0042888813 0.50280925)
(0 0.0033718902 0.50258128)
(0 0.0025154351 0.50241605)
(0 0.0017019779 0.50230457)
(0 0.00091591757 0.50224098)
(0 0.00014286244 0.50222207)
(0 -0.0006310351 0.50224695)
(0 -0.0014196953 0.50231697)
(0 -0.0022376877 0.50243587)
(0 -0.0031009233 0.50261008)
(0 -0.0040274047 0.50284939)
(0 -0.0050381231 0.50316796)
(0 -0.0061581603 0.50358576)
(0 -0.0074180822 0.504131)
(0 -0.0088558338 0.5048436)
(0 -0.010518698 0.50578057)
(0 -0.012464986 0.50702421)
(0 -0.014774924 0.50869768)
(0 -0.01755033 0.51098263)
(0 -0.0208452 0.51412147)
(0 -0.024955796 0.51873233)
(0 -0.030491254 0.52823155)
(0 -0.038611808 0.54872563)
(0 -0.048495425 0.53399844)
(0 -0.01906293 0.29396624)
(0 0.013081585 0.24256955)
(0 0.051792137 0.52521085)
(0 0.047699339 0.5702494)
(0 0.037747566 0.54552416)
(0 0.030841441 0.52928832)
(0 0.026064815 0.52180098)
(0 0.022229649 0.51699662)
(0 0.018945945 0.5134716)
(0 0.016186502 0.51086257)
(0 0.01384349 0.50890961)
(0 0.011830403 0.50742939)
(0 0.010084645 0.5062969)
(0 0.0085535774 0.50542438)
(0 0.0071944384 0.50474969)
(0 0.005972413 0.50422848)
(0 0.0048586682 0.5038288)
(0 0.0038290005 0.50352769)
(0 0.0028627223 0.50330878)
(0 0.0019417296 0.50316072)
(0 0.001049722 0.5030761)
(0 0.0001715392 0.50305085)
(0 -0.00070746346 0.50308381)
(0 -0.0016020028 0.50317671)
(0 -0.0025274019 0.50333428)
(0 -0.0035002446 0.50356465)
(0 -0.0045390542 0.50388011)
(0 -0.0056650881 0.50429825)
(0 -0.0069032799 0.50484372)
(0 -0.0082833544 0.50555077)
(0 -0.0098414021 0.50646719)
(0 -0.011621638 0.50766013)
(0 -0.013676329 0.50922445)
(0 -0.016074996 0.51129813)
(0 -0.018912972 0.51408055)
(0 -0.022221664 0.51784058)
(0 -0.026241787 0.52347051)
(0 -0.031825743 0.53537674)
(0 -0.039735986 0.55590016)
(0 -0.044877956 0.52284666)
(0 -0.014086334 0.2626832)
(0 0.0077684465 0.21556017)
(0 0.044818074 0.50802572)
(0 0.046242943 0.57438331)
(0 0.03802306 0.55374997)
(0 0.03127649 0.5349598)
(0 0.026757359 0.52602929)
(0 0.023106179 0.52053662)
(0 0.019910975 0.51648565)
(0 0.017173173 0.51343834)
(0 0.014805529 0.51112668)
(0 0.0127396 0.50935496)
(0 0.010923322 0.5079859)
(0 0.0093107756 0.50692188)
(0 0.0078639756 0.506093)
(0 0.0065511612 0.50544865)
(0 0.0053453583 0.504952)
(0 0.0042234381 0.50457626)
(0 0.0031652513 0.50430218)
(0 0.0021528762 0.50411632)
(0 0.001169969 0.50400988)
(0 0.00020119465 0.50397797)
(0 -0.00076832154 0.50401922)
(0 -0.0017535245 0.50413568)
(0 -0.0027698897 0.504333)
(0 -0.0038340095 0.50462082)
(0 -0.0049641695 0.50501366)
(0 -0.0061810101 0.50553213)
(0 -0.007508292 0.50620483)
(0 -0.0089737215 0.50707109)
(0 -0.010610117 0.50818507)
(0 -0.012457081 0.50962202)
(0 -0.014559771 0.51148699)
(0 -0.0169744 0.51392887)
(0 -0.019782674 0.51715644)
(0 -0.02300061 0.52148275)
(0 -0.026850477 0.5281857)
(0 -0.032322131 0.5422216)
(0 -0.039374297 0.5605088)
(0 -0.040309482 0.50911939)
(0 -0.0097034539 0.23590698)
(0 0.0040031894 0.19358037)
(0 0.037890672 0.48950973)
(0 0.043671832 0.5752451)
(0 0.037548497 0.56084326)
(0 0.031139974 0.5403598)
(0 0.026900577 0.53000996)
(0 0.02350109 0.52389942)
(0 0.020468134 0.5194092)
(0 0.017815675 0.5159835)
(0 0.015479713 0.51335377)
(0 0.013409909 0.51131818)
(0 0.011564894 0.50973088)
(0 0.009906487 0.50848721)
(0 0.0084024342 0.50751152)
(0 0.0070248861 0.50674844)
(0 0.0057495505 0.50615724)
(0 0.0045551237 0.50570809)
(0 0.0034226649 0.50537935)
(0 0.0023350375 0.50515583)
(0 0.0012764027 0.50502752)
(0 0.00023176271 0.50498886)
(0 -0.00081349275 0.50503828)
(0 -0.0018740407 0.50517813)
(0 -0.0029649933 0.50541481)
(0 -0.0041023978 0.50575927)
(0 -0.0053036931 0.5062279)
(0 -0.0065882249 0.50684378)
(0 -0.0079778289 0.50763874)
(0 -0.0094973871 0.50865612)
(0 -0.011175524 0.509955)
(0 -0.013046131 0.51161669)
(0 -0.015146754 0.51375388)
(0 -0.017520044 0.51652231)
(0 -0.020230206 0.5201331)
(0 -0.023285157 0.52496633)
(0 -0.026926403 0.53274309)
(0 -0.032167188 0.54839168)
(0 -0.037959846 0.56255554)
(0 -0.03539326 0.49384359)
(0 -0.0061955583 0.21331456)
(0 0.0015492218 0.17616288)
(0 0.031489575 0.47079281)
(0 0.040514174 0.57339449)
(0 0.036539723 0.56659627)
(0 0.030619522 0.54537618)
(0 0.02665479 0.5337025)
(0 0.023526948 0.52702908)
(0 0.02069528 0.52218394)
(0 0.018169139 0.51844559)
(0 0.015905011 0.51554431)
(0 0.013868452 0.51327796)
(0 0.012028008 0.5114959)
(0 0.010353357 0.5100891)
(0 0.0088182199 0.50897806)
(0 0.007399042 0.50810407)
(0 0.0060746837 0.50742359)
(0 0.004826145 0.50690447)
(0 0.0036361597 0.50652324)
(0 0.0024888231 0.50626333)
(0 0.0013692292 0.50611378)
(0 0.00026312869 0.50606847)
(0 -0.00084342068 0.50612567)
(0 -0.0019644226 0.50628796)
(0 -0.003114212 0.50656238)
(0 -0.0043078598 0.50696091)
(0 -0.0055615064 0.5075014)
(0 -0.0068927284 0.50820887)
(0 -0.008320945 0.50911756)
(0 -0.0098677565 0.51027376)
(0 -0.011557201 0.51174004)
(0 -0.013417032 0.51360176)
(0 -0.015477348 0.51597637)
(0 -0.017768794 0.51902246)
(0 -0.02033838 0.52295108)
(0 -0.023193373 0.52823877)
(0 -0.026613446 0.53704309)
(0 -0.031522167 0.55365992)
(0 -0.035863591 0.56232749)
(0 -0.030528791 0.47796072)
(0 -0.0035856108 0.19468617)
(0 7.4724635e-05 0.16256032)
(0 0.025859014 0.45264173)
(0 0.037138168 0.56944724)
(0 0.035167648 0.57098661)
(0 0.029855242 0.54995944)
(0 0.026152959 0.53711089)
(0 0.023286066 0.52990819)
(0 0.020668867 0.5247784)
(0 0.018290905 0.52079087)
(0 0.016123749 0.51766536)
(0 0.014146083 0.51520331)
(0 0.012335027 0.51325254)
(0 0.010667479 0.51170184)
(0 0.0091227957 0.51046951)
(0 0.0076816958 0.50949477)
(0 0.0063263432 0.50873227)
(0 0.0050402712 0.50814825)
(0 0.0038081618 0.50771797)
(0 0.0026156376 0.50742383)
(0 0.001449028 0.50725416)
(0 0.00029513674 0.50720244)
(0 -0.0008590049 0.50726681)
(0 -0.0020264208 0.50745002)
(0 -0.0032203625 0.50775959)
(0 -0.0044546192 0.50820828)
(0 -0.0057437351 0.50881499)
(0 -0.0071032408 0.50960613)
(0 -0.0085498991 0.51061758)
(0 -0.010101888 0.51189758)
(0 -0.011778727 0.51351086)
(0 -0.013602242 0.51554508)
(0 -0.015595686 0.51811999)
(0 -0.017779717 0.52139382)
(0 -0.02018679 0.52558105)
(0 -0.022830457 0.53128583)
(0 -0.026027629 0.54103312)
(0 -0.030517626 0.55793569)
(0 -0.033378785 0.56022022)
(0 -0.025967787 0.46215991)
(0 -0.0017593067 0.17956209)
(0 -0.00072008882 0.15194936)
(0 0.021095123 0.43548846)
(0 0.033794123 0.56395251)
(0 0.033575277 0.57408726)
(0 0.028947738 0.5540889)
(0 0.025494565 0.54025931)
(0 0.022862014 0.53254721)
(0 0.020455791 0.52718459)
(0 0.018233927 0.52300326)
(0 0.016176962 0.5196973)
(0 0.014274141 0.51707339)
(0 0.012509676 0.51498012)
(0 0.010866639 0.5133056)
(0 0.0093293666 0.51196721)
(0 0.0078825426 0.51090317)
(0 0.0065115339 0.51006709)
(0 0.0052024307 0.5094243)
(0 0.0039419704 0.50894922)
(0 0.0027174599 0.5086236)
(0 0.0015166502 0.50843531)
(0 0.00032759847 0.50837751)
(0 -0.00086148231 0.50844828)
(0 -0.0020624273 0.50865049)
(0 -0.0032872039 0.50899197)
(0 -0.0045481332 0.509486)
(0 -0.005858006 0.51015219)
(0 -0.007230202 0.5110178)
(0 -0.0086787996 0.51211971)
(0 -0.010218655 0.51350722)
(0 -0.011865124 0.51524617)
(0 -0.013634697 0.51742523)
(0 -0.015544569 0.52016453)
(0 -0.017607244 0.52362004)
(0 -0.01984427 0.52801743)
(0 -0.022281704 0.53411355)
(0 -0.025259798 0.5446822)
(0 -0.029268677 0.56120992)
(0 -0.030736918 0.55662931)
(0 -0.021863734 0.44687964)
(0 -0.00055832548 0.16735523)
(0 -0.0010722991 0.14363276)
(0 0.017188728 0.41954731)
(0 0.030637595 0.55736985)
(0 0.031880477 0.5760196)
(0 0.027971011 0.55775693)
(0 0.024753062 0.54317355)
(0 0.022321174 0.5349688)
(0 0.020111628 0.52940835)
(0 0.018043919 0.52507871)
(0 0.016101622 0.52163069)
(0 0.014282084 0.51887567)
(0 0.012575116 0.51666454)
(0 0.010968825 0.51488575)
(0 0.0094517371 0.51345659)
(0 0.0080120369 0.51231504)
(0 0.006638029 0.51141436)
(0 0.0053182362 0.51071945)
(0 0.0040414284 0.51020431)
(0 0.0027966391 0.50985035)
(0 0.0015731241 0.50964512)
(0 0.00036030212 0.50958166)
(0 -0.00085231401 0.50965796)
(0 -0.0020752517 0.50987697)
(0 -0.0033190876 0.51024672)
(0 -0.0045945924 0.51078078)
(0 -0.0059127632 0.51149913)
(0 -0.0072848571 0.51242948)
(0 -0.0087223928 0.51360912)
(0 -0.01023716 0.51508777)
(0 -0.011840845 0.5169316)
(0 -0.013545369 0.51922933)
(0 -0.015362781 0.52210017)
(0 -0.01729911 0.5256971)
(0 -0.019369034 0.53026714)
(0 -0.021615953 0.53673354)
(0 -0.024383085 0.54797026)
(0 -0.027876958 0.56352676)
(0 -0.028108484 0.55191685)
(0 -0.018290723 0.43238482)
(0 0.00017573149 0.15751966)
(0 -0.0011554615 0.13705922)
(0 0.014062321 0.40489883)
(0 0.027748589 0.55007383)
(0 0.030171235 0.57693129)
(0 0.026977396 0.56097006)
(0 0.02398135 0.54587754)
(0 0.021715341 0.53719988)
(0 0.019681499 0.53146277)
(0 0.017759151 0.52702042)
(0 0.015929773 0.52346289)
(0 0.014196327 0.5206037)
(0 0.012552796 0.51829692)
(0 0.010991203 0.51643197)
(0 0.0095034568 0.5149266)
(0 0.0080807064 0.51371908)
(0 0.006713837 0.51276276)
(0 0.0053935863 0.5120225)
(0 0.0041106415 0.51147222)
(0 0.0028557168 0.51109317)
(0 0.0016195739 0.51087282)
(0 0.00039302212 0.51080411)
(0 -0.00083308432 0.51088503)
(0 -0.0020679228 0.51111855)
(0 -0.0033206523 0.51151276)
(0 -0.0046004952 0.51208134)
(0 -0.0059167039 0.51284441)
(0 -0.0072785348 0.51382976)
(0 -0.0086951714 0.51507471)
(0 -0.010175687 0.51662887)
(0 -0.011728655 0.51855818)
(0 -0.013362258 0.52095081)
(0 -0.015084389 0.52392411)
(0 -0.016896261 0.52762865)
(0 -0.018809563 0.53234379)
(0 -0.020887649 0.53915984)
(0 -0.023454595 0.55089088)
(0 -0.026424864 0.56496911)
(0 -0.025604652 0.54640103)
(0 -0.015260331 0.41882368)
(0 0.00058096179 0.14959278)
(0 -0.0010879056 0.13178911)
(0 0.011605242 0.39153454)
(0 0.025154897 0.54235843)
(0 0.028506301 0.57697684)
(0 0.026000209 0.563748)
(0 0.023214694 0.54839406)
(0 0.021082949 0.53926884)
(0 0.019200773 0.5333652)
(0 0.017410779 0.5288363)
(0 0.015688406 0.52519596)
(0 0.01403981 0.52225549)
(0 0.012461864 0.51987242)
(0 0.010949504 0.5179375)
(0 0.0094972476 0.51636928)
(0 0.0080986539 0.51510659)
(0 0.0067467926 0.51410318)
(0 0.0054343471 0.51332416)
(0 0.0041537473 0.51274355)
(0 0.00289728 0.51234267)
(0 0.0016571511 0.51210901)
(0 0.00042552802 0.5120355)
(0 -0.00080541377 0.51212011)
(0 -0.0020435215 0.51236582)
(0 -0.0032965726 0.5127807)
(0 -0.0045723063 0.5133784)
(0 -0.0058783445 0.51417895)
(0 -0.0072221264 0.51520999)
(0 -0.0086107825 0.51650857)
(0 -0.010051073 0.51812387)
(0 -0.01154903 0.52012121)
(0 -0.013109916 0.52258781)
(0 -0.014738455 0.52563867)
(0 -0.016432641 0.52942375)
(0 -0.018204461 0.53426543)
(0 -0.020137304 0.54140898)
(0 -0.022515779 0.55345179)
(0 -0.024973377 0.56564178)
(0 -0.023288024 0.54034807)
(0 -0.012742887 0.40625836)
(0 0.00076645393 0.14318046)
(0 -0.00094607377 0.12747692)
(0 0.0096987127 0.37938861)
(0 0.022853018 0.53444436)
(0 0.026920805 0.57630155)
(0 0.025058107 0.56611806)
(0 0.022474226 0.55074377)
(0 0.020450571 0.54120331)
(0 0.018695816 0.53513521)
(0 0.017023217 0.53053732)
(0 0.015399514 0.52683516)
(0 0.013831834 0.52383225)
(0 0.01231889 0.52138926)
(0 0.010857683 0.51939845)
(0 0.0094446459 0.51777923)
(0 0.0080752204 0.51647116)
(0 0.0067442635 0.51542856)
(0 0.0054461145 0.51461691)
(0 0.0041747377 0.51401055)
(0 0.0029238448 0.51359095)
(0 0.0016869811 0.51334572)
(0 0.00045759328 0.51326782)
(0 -0.00077088821 0.51335524)
(0 -0.0020050472 0.51361092)
(0 -0.0032513616 0.51404284)
(0 -0.0045161987 0.51466453)
(0 -0.0058057053 0.51549579)
(0 -0.007125723 0.51656393)
(0 -0.0084816383 0.51790554)
(0 -0.0098783128 0.51956917)
(0 -0.011319787 0.52161934)
(0 -0.012809146 0.52414209)
(0 -0.014348842 0.52725)
(0 -0.01593511 0.53109522)
(0 -0.017582737 0.53605238)
(0 -0.019392969 0.54349841)
(0 -0.021594575 0.55567049)
(0 -0.02356442 0.56565514)
(0 -0.021186581 0.53396988)
(0 -0.010685844 0.39468872)
(0 0.00081251656 0.13794955)
(0 -0.000777459 0.12386171)
(0 0.0082300801 0.36836439)
(0 0.020822636 0.52649143)
(0 0.025432575 0.57503356)
(0 0.024159795 0.56810992)
(0 0.021770992 0.55294356)
(0 0.019835259 0.54302785)
(0 0.018185312 0.53679248)
(0 0.016614841 0.5321359)
(0 0.015080398 0.52838772)
(0 0.013588131 0.5253374)
(0 0.012137788 0.52284796)
(0 0.010727759 0.52081312)
(0 0.009355804 0.51915314)
(0 0.0080187799 0.5178083)
(0 0.0067129591 0.51673355)
(0 0.0054340504 0.51589488)
(0 0.0041773326 0.51526695)
(0 0.0029377732 0.51483151)
(0 0.0017101241 0.51457632)
(0 0.00048900256 0.51449443)
(0 -0.00073100471 0.51458383)
(0 -0.0019553177 0.5148474)
(0 -0.003189228 0.51529302)
(0 -0.0044378702 0.51593399)
(0 -0.0057060953 0.5167898)
(0 -0.0069983807 0.51788734)
(0 -0.0083186767 0.51926264)
(0 -0.0096703417 0.52096353)
(0 -0.011055924 0.52305368)
(0 -0.012476958 0.52561788)
(0 -0.013934389 0.52876662)
(0 -0.015423988 0.53265767)
(0 -0.016965038 0.53772478)
(0 -0.018672751 0.54544451)
(0 -0.020708425 0.55756955)
(0 -0.022224458 0.56511447)
(0 -0.019305348 0.52742889)
(0 -0.0090264096 0.38407462)
(0 0.00077565625 0.13362783)
(0 -0.00061005082 0.12075335)
(0 0.0071001555 0.35835329)
(0 0.019035688 0.51861214)
(0 0.024047411 0.57328213)
(0 0.02330764 0.56975307)
(0 0.021109339 0.55500632)
(0 0.019246997 0.54476283)
(0 0.01768187 0.53835527)
(0 0.016198996 0.53364456)
(0 0.014744235 0.52986168)
(0 0.013321154 0.52677562)
(0 0.011929925 0.52425051)
(0 0.010569808 0.5221814)
(0 0.0092394204 0.52048927)
(0 0.0079366392 0.51911506)
(0 0.0066588236 0.51801433)
(0 0.0054027847 0.51715356)
(0 0.0041649005 0.51650782)
(0 0.0029412181 0.51605913)
(0 0.0017275503 0.51579544)
(0 0.00051955805 0.51570991)
(0 -0.000687134 0.51580053)
(0 -0.0018969015 0.51607013)
(0 -0.0031139813 0.51652642)
(0 -0.0043424285 0.51718246)
(0 -0.0055859853 0.51805739)
(0 -0.0068479953 0.51917763)
(0 -0.0081312609 0.52057861)
(0 -0.0094379938 0.52230746)
(0 -0.010769677 0.52442703)
(0 -0.012126808 0.52702093)
(0 -0.01350945 0.53019812)
(0 -0.014914014 0.53412586)
(0 -0.016365245 0.53930099)
(0 -0.017987294 0.54726156)
(0 -0.019866924 0.55917352)
(0 -0.020967857 0.56411491)
(0 -0.017635005 0.52084625)
(0 -0.0076998568 0.37435361)
(0 0.0006942904 0.1300002)
(0 -0.00045877316 0.11801669)
(0 0.0062263577 0.34924613)
(0 0.017461993 0.5108834)
(0 0.022763351 0.57113895)
(0 0.022500179 0.57107562)
(0 0.020489323 0.55694141)
(0 0.01869071 0.54642426)
(0 0.017193501 0.53983963)
(0 0.015785028 0.53507513)
(0 0.014400779 0.53126512)
(0 0.013040509 0.52815212)
(0 0.011704362 0.52559979)
(0 0.010392079 0.52350427)
(0 0.0091027734 0.52178708)
(0 0.0078350239 0.52038972)
(0 0.0065869971 0.51926825)
(0 0.0053563695 0.51838965)
(0 0.0041404164 0.51772937)
(0 0.002936094 0.51726972)
(0 0.0017401266 0.51699883)
(0 0.00054908481 0.51690996)
(0 -0.00064049635 0.51700114)
(0 -0.0018320771 0.51727511)
(0 -0.0030289788 0.51773942)
(0 -0.0042343331 0.51840687)
(0 -0.0054509556 0.51929624)
(0 -0.0066812725 0.52043347)
(0 -0.0079271968 0.52185344)
(0 -0.0091900994 0.52360262)
(0 -0.01047075 0.52574315)
(0 -0.011769019 0.5283576)
(0 -0.013084572 0.53155427)
(0 -0.014415365 0.53551372)
(0 -0.015791933 0.54079688)
(0 -0.017341777 0.54896158)
(0 -0.019073953 0.56050725)
(0 -0.019799965 0.56273961)
(0 -0.016158201 0.51431001)
(0 -0.0066449638 0.36545267)
(0 0.00059360329 0.12690033)
(0 -0.00033009376 0.11555761)
(0 0.00554295 0.3409394)
(0 0.016072561 0.50335573)
(0 0.021574035 0.5686801)
(0 0.02173392 0.57210382)
(0 0.019908413 0.55875541)
(0 0.018167838 0.54802423)
(0 0.016724828 0.54125921)
(0 0.015379187 0.53643829)
(0 0.014057021 0.5326057)
(0 0.01275342 0.52947222)
(0 0.011468161 0.52689914)
(0 0.010201179 0.52478339)
(0 0.0089518235 0.52304687)
(0 0.0077191258 0.52163146)
(0 0.0065018301 0.52049366)
(0 0.0052982743 0.51960084)
(0 0.0041064515 0.51892881)
(0 0.0029240667 0.51846015)
(0 0.0017486128 0.51818318)
(0 0.00057743331 0.51809127)
(0 -0.00059215114 0.51818243)
(0 -0.0017628156 0.51845934)
(0 -0.0029371078 0.5189294)
(0 -0.0041173834 0.51960515)
(0 -0.0053057029 0.52050501)
(0 -0.0065037694 0.52165451)
(0 -0.0077128296 0.52308799)
(0 -0.008933668 0.52485141)
(0 -0.01016662 0.52700631)
(0 -0.01141124 0.52963442)
(0 -0.01266717 0.53284446)
(0 -0.013934586 0.53683382)
(0 -0.015249641 0.54222564)
(0 -0.016737508 0.55055442)
(0 -0.01832947 0.56159468)
(0 -0.018719951 0.56105954)
(0 -0.014854025 0.50788223)
(0 -0.0058071284 0.35729568)
(0 0.00048934858 0.12420175)
(0 -0.00022534556 0.1133118)
(0 0.0049994477 0.33333851)
(0 0.014841244 0.49606049)
(0 0.020471128 0.56596844)
(0 0.021004599 0.57286177)
(0 0.019362738 0.56045276)
(0 0.017677562 0.54957142)
(0 0.016278055 0.54262525)
(0 0.014985385 0.53774342)
(0 0.013717777 0.53389046)
(0 0.012465166 0.53074103)
(0 0.011226695 0.52815205)
(0 0.010002289 0.52602083)
(0 0.0087913536 0.5242695)
(0 0.0075931886 0.52284016)
(0 0.0064069313 0.52168963)
(0 0.0052314117 0.5207856)
(0 0.004065184 0.52010417)
(0 0.0029065575 0.51962817)
(0 0.0017536612 0.51934608)
(0 0.00060448446 0.51925135)
(0 -0.00054299194 0.51934202)
(0 -0.0016907834 0.51962068)
(0 -0.0028407932 0.52009458)
(0 -0.003994741 0.52077603)
(0 -0.005154087 0.52168314)
(0 -0.0063199797 0.52284105)
(0 -0.0074931863 0.5242837)
(0 -0.0086741083 0.5260566)
(0 -0.0098628589 0.52822086)
(0 -0.011058906 0.53085767)
(0 -0.012262145 0.53407729)
(0 -0.013475429 0.53809711)
(0 -0.014739963 0.54359785)
(0 -0.016173228 0.55204791)
(0 -0.017630989 0.56245805)
(0 -0.017723178 0.5591342)
(0 -0.013700898 0.50160509)
(0 -0.0051396811 0.34980813)
(0 0.00039074117 0.12180985)
(0 -0.00014299901 0.111236)
(0 0.0045581903 0.32635926)
(0 0.013745312 0.48901551)
(0 0.019445868 0.56305595)
(0 0.02030796 0.57337148)
(0 0.01884793 0.56203633)
(0 0.017217739 0.55107165)
(0 0.015853743 0.5439468)
(0 0.01460582 0.53899859)
(0 0.013386201 0.53512564)
(0 0.012179479 0.53196327)
(0 0.010983946 0.52936192)
(0 0.0097993777 0.52721884)
(0 0.0086251231 0.52545621)
(0 0.0074606131 0.5240162)
(0 0.0063052375 0.52285583)
(0 0.0051581806 0.52194304)
(0 0.0040184254 0.52125415)
(0 0.0028847591 0.52077219)
(0 0.0017558254 0.52048577)
(0 0.0006301474 0.52038843)
(0 -0.00049375521 0.52047822)
(0 -0.0016173545 0.52075765)
(0 -0.0027420234 0.52123384)
(0 -0.0038689752 0.52191888)
(0 -0.0049992039 0.52283064)
(0 -0.0061334456 0.52399391)
(0 -0.0072721396 0.52544233)
(0 -0.0084154615 0.52722111)
(0 -0.0095634553 0.52939109)
(0 -0.010715667 0.53203317)
(0 -0.011872445 0.53526044)
(0 -0.013039578 0.53931282)
(0 -0.01426247 0.54492161)
(0 -0.015646113 0.55344808)
(0 -0.016974675 0.56311757)
(0 -0.016802938 0.55701306)
(0 -0.012678297 0.49550599)
(0 -0.0046040739 0.34291995)
(0 0.00030261723 0.11965506)
(0 -8.0142072e-05 0.10930128)
(0 0.0041917555 0.31992799)
(0 0.012765428 0.48222925)
(0 0.018489939 0.55998582)
(0 0.019640161 0.57365313)
(0 0.018359662 0.56350796)
(0 0.016785555 0.55252848)
(0 0.015451398 0.54523086)
(0 0.014241488 0.54021058)
(0 0.013064208 0.53631669)
(0 0.011898885 0.53314321)
(0 0.01074278 0.53053198)
(0 0.0095954161 0.52837968)
(0 0.0084560233 0.52660841)
(0 0.0073240708 0.52516027)
(0 0.0061990934 0.52399236)
(0 0.0050805212 0.52307276)
(0 0.0039676561 0.52237798)
(0 0.0028596558 0.52189119)
(0 0.001755571 0.52160111)
(0 0.00065435728 0.52150135)
(0 -0.00044503258 0.52158994)
(0 -0.0015436322 0.52186935)
(0 -0.0026423888 0.52234658)
(0 -0.0037421222 0.52303355)
(0 -0.0048434724 0.52394789)
(0 -0.0059468811 0.52511419)
(0 -0.0070525787 0.52656582)
(0 -0.0081606325 0.52834784)
(0 -0.009271121 0.53052096)
(0 -0.010383782 0.53316614)
(0 -0.011499561 0.53640057)
(0 -0.012627262 0.5404885)
(0 -0.013815434 0.54620285)
(0 -0.015152514 0.55475945)
(0 -0.016356118 0.56359144)
(0 -0.015951671 0.55473701)
(0 -0.011767654 0.48960159)
(0 -0.0041693658 0.3365671)
(0 0.00022696398 0.117687)
(0 -3.3404206e-05 0.10748818)
(0 0.0038805671 0.31398105)
(0 0.011885351 0.4757038)
(0 0.017595895 0.55679419)
(0 0.018997939 0.57372535)
(0 0.017893935 0.56486895)
(0 0.016377961 0.55394374)
(0 0.015069886 0.54648276)
(0 0.013892559 0.54138501)
(0 0.012752816 0.53746829)
(0 0.011625 0.53428463)
(0 0.01050518 0.53166519)
(0 0.009392562 0.52950557)
(0 0.0082862255 0.52772762)
(0 0.0071856152 0.52627328)
(0 0.006090334 0.5250996)
(0 0.0049999729 0.52417474)
(0 0.0039140643 0.52347532)
(0 0.0028320463 0.5229846)
(0 0.0017532846 0.52269141)
(0 0.00067707623 0.52258938)
(0 -0.00039728237 0.52267654)
(0 -0.0014704786 0.52295533)
(0 -0.0025431281 0.52343262)
(0 -0.003615751 0.52412021)
(0 -0.0046887271 0.52503558)
(0 -0.0057622981 0.52620313)
(0 -0.0068365766 0.52765611)
(0 -0.0079116055 0.52943952)
(0 -0.0089875641 0.53161407)
(0 -0.010064457 0.53426115)
(0 -0.011143927 0.53750328)
(0 -0.012237728 0.54163016)
(0 -0.013396371 0.54744569)
(0 -0.014688465 0.55598541)
(0 -0.015770842 0.56389595)
(0 -0.015161765 0.55233988)
(0 -0.010952702 0.48390088)
(0 -0.003811312 0.33069223)
(0 0.00016398779 0.11586955)
(0 5.0199291e-07 0.10578321)
(0 0.0036108554 0.30846376)
(0 0.011091506 0.46943704)
(0 0.016757291 0.55351153)
(0 0.018378624 0.57360548)
(0 0.017447224 0.56612042)
(0 0.015991936 0.55531802)
(0 0.01470772 0.5477064)
(0 0.013558665 0.54252647)
(0 0.012452409 0.53858442)
(0 0.011358755 0.5353908)
(0 0.01027245 0.53276422)
(0 0.0091923286 0.53059859)
(0 0.0081173142 0.52881538)
(0 0.0070467873 0.52735626)
(0 0.0059803643 0.52617815)
(0 0.0049177337 0.52524923)
(0 0.003858587 0.52454614)
(0 0.002802569 0.52405222)
(0 0.0017492838 0.52375635)
(0 0.00069829136 0.52365218)
(0 -0.0003508453 0.52373776)
(0 -0.0013985463 0.52401545)
(0 -0.002445176 0.52449207)
(0 -0.0034910317 0.52517932)
(0 -0.0045363104 0.52609456)
(0 -0.0055811272 0.52726208)
(0 -0.0066255443 0.5287151)
(0 -0.0076696375 0.53049866)
(0 -0.0087137248 0.53267361)
(0 -0.0097581222 0.53532212)
(0 -0.010805242 0.53857325)
(0 -0.011869602 0.54274243)
(0 -0.013002424 0.54865277)
(0 -0.01425002 0.55712849)
(0 -0.015214622 0.56404576)
(0 -0.014426043 0.54984976)
(0 -0.01021949 0.47840748)
(0 -0.003511295 0.32524467)
(0 0.00011285811 0.11417705)
(0 2.4502188e-05 0.10417657)
(0 0.003373018 0.30332938)
(0 0.010372556 0.46342413)
(0 0.015968646 0.55016369)
(0 0.017780085 0.57330975)
(0 0.017016513 0.56726356)
(0 0.015624639 0.55665106)
(0 0.014363252 0.54890454)
(0 0.013239097 0.54363871)
(0 0.012162934 0.53966845)
(0 0.011100589 0.53646456)
(0 0.010045375 0.53383145)
(0 0.008995724 0.53166065)
(0 0.007950404 0.52987315)
(0 0.0069087092 0.52841028)
(0 0.0058702333 0.52722876)
(0 0.0048347145 0.52629667)
(0 0.0038019484 0.52559066)
(0 0.0027717262 0.5250941)
(0 0.0017438279 0.5247959)
(0 0.00071801019 0.52468971)
(0 -0.00030596247 0.52477358)
(0 -0.0013283095 0.52504984)
(0 -0.0023492098 0.52552527)
(0 -0.0033688011 0.52621147)
(0 -0.0043871592 0.52712575)
(0 -0.0054043283 0.52829237)
(0 -0.0064203679 0.52974457)
(0 -0.0074354243 0.53152753)
(0 -0.0084499706 0.53370235)
(0 -0.0094646595 0.53635237)
(0 -0.01048272 0.53961427)
(0 -0.011521158 0.54382877)
(0 -0.012630634 0.54982559)
(0 -0.01383346 0.55819065)
(0 -0.014683651 0.56405413)
(0 -0.013738025 0.54729009)
(0 -0.0095562207 0.47312135)
(0 -0.0032552565 0.32018009)
(0 7.2214374e-05 0.11259128)
(0 4.1052215e-05 0.10266068)
(0 0.0031603659 0.29853793)
(0 0.0097189921 0.4576585)
(0 0.015225325 0.54677275)
(0 0.01720063 0.57285344)
(0 0.016599277 0.56829977)
(0 0.015273477 0.55794202)
(0 0.01403479 0.55007903)
(0 0.012932947 0.54472472)
(0 0.011884046 0.5407232)
(0 0.010850581 0.53750837)
(0 0.0098243552 0.53486895)