/*--------------------------------*- C++ -*----------------------------------*\
  =========                 |
  \\      /  F ield         | OpenFOAM: The Open Source CFD Toolbox
   \\    /   O peration     | Website:  https://openfoam.org
    \\  /    A nd           | Version:  10
     \\/     M anipulation  |
\*---------------------------------------------------------------------------*/
FoamFile
{
    format      ascii;
    class       surfaceScalarField;
    location    "0.04";
    object      phi;
}
// * * * * * * * * * * * * * * * * * * * * * * * * * * * * * * * * * * * * * //

dimensions      [1 0 -1 0 0 0 0];

internalField   nonuniform List<scalar> 
7860
(
3.9760135e-08
5.2894852e-07
1.2095772e-08
5.9637165e-07
7.3340212e-09
5.7346953e-07
5.3967319e-09
5.7064502e-07
4.0132914e-09
5.7009114e-07
3.1037569e-09
5.6961721e-07
2.4672075e-09
5.6934421e-07
1.9937235e-09
5.6918113e-07
1.6306601e-09
5.690707e-07
1.3452256e-09
5.6899306e-07
1.1154663e-09
5.6893738e-07
9.2652288e-10
5.6889656e-07
7.6799382e-10
5.6886614e-07
6.3236062e-10
5.6884324e-07
5.140434e-10
5.6882592e-07
4.0879057e-10
5.6881285e-07
3.1326899e-10
5.6880312e-07
2.2478018e-10
5.6879608e-07
1.4105591e-10
5.6879132e-07
6.0103781e-11
5.6878854e-07
-1.9917322e-11
5.6878761e-07
-1.0080675e-10
5.6878848e-07
-1.8442952e-10
5.6879121e-07
-2.7282396e-10
5.6879599e-07
-3.6833698e-10
5.6880311e-07
-4.7379079e-10
5.6881305e-07
-5.9270887e-10
5.6882652e-07
-7.2963614e-10
5.6884453e-07
-8.9061015e-10
5.6886858e-07
-1.0838823e-09
5.6890088e-07
-1.3211098e-09
5.6894484e-07
-1.6193615e-09
5.6900588e-07
-2.0040455e-09
5.6909232e-07
-2.5156182e-09
5.6921922e-07
-3.2370821e-09
5.6942912e-07
-4.326702e-09
5.697973e-07
-5.8827885e-09
5.7026379e-07
-9.3855549e-09
5.722105e-07
-2.9412701e-08
5.8873492e-07
5.3929525e-07
5.9345265e-08
4.6960695e-07
3.6301148e-08
6.1941428e-07
2.2299343e-08
5.8747082e-07
1.5923068e-08
5.7702132e-07
1.1966795e-08
5.7404742e-07
9.2968106e-09
5.722872e-07
7.386323e-09
5.712547e-07
5.9659643e-09
5.7060149e-07
4.878966e-09
5.701577e-07
4.0245073e-09
5.6984752e-07
3.3367996e-09
5.6962509e-07
2.7713897e-09
5.6946197e-07
2.2970724e-09
5.6934046e-07
1.8913045e-09
5.6924901e-07
1.5373696e-09
5.6917986e-07
1.2225363e-09
5.6912769e-07
9.3682767e-10
5.6908883e-07
6.721705e-10
5.6906074e-07
4.2178231e-10
5.6904171e-07
1.7970706e-10
5.6903062e-07
-5.9558522e-11
5.6902688e-07
-3.0139131e-10
5.6903032e-07
-5.5135806e-10
5.6904118e-07
-8.155532e-10
5.6906019e-07
-1.1009935e-09
5.6908855e-07
-1.41612e-09
5.6912818e-07
-1.771477e-09
5.6918188e-07
-2.1806727e-09
5.6925373e-07
-2.6618002e-09
5.6934971e-07
-3.2396073e-09
5.6947869e-07
-3.9489764e-09
5.6965422e-07
-4.8410308e-09
5.6989793e-07
-5.9936317e-09
5.7024492e-07
-7.5274608e-09
5.7075305e-07
-9.6482261e-09
5.7154989e-07
-1.2766844e-08
5.7291592e-07
-1.7703914e-08
5.7520086e-07
-2.7725029e-08
5.8223162e-07
-4.5388262e-08
6.0639816e-07
4.9390699e-07
5.9496425e-08
4.101201e-07
4.9790302e-08
6.2911977e-07
3.275059e-08
6.0450864e-07
2.4222582e-08
5.8554921e-07
1.8746037e-08
5.79524e-07
1.4783241e-08
5.7625e-07
1.184785e-08
5.7419009e-07
9.6278135e-09
5.7282153e-07
7.9079413e-09
5.7187758e-07
6.5439934e-09
5.7121147e-07
5.4391968e-09
5.7072989e-07
4.5263669e-09
5.703748e-07
3.757528e-09
5.701093e-07
3.0976338e-09
5.6990891e-07
2.520466e-09
5.6975703e-07
2.0059141e-09
5.6964224e-07
1.5381288e-09
5.6955662e-07
1.1042259e-09
5.6949465e-07
6.933419e-10
5.694526e-07
2.9591181e-10
5.6942806e-07
-9.6915035e-11
5.6941971e-07
-4.9378734e-10
5.6942719e-07
-9.0365114e-10
5.6945105e-07
-1.3362795e-09
5.6949282e-07
-1.8028878e-09
5.6955516e-07
-2.3169106e-09
5.6964221e-07
-2.8950389e-09
5.6976001e-07
-3.558668e-09
5.6991736e-07
-4.336001e-09
5.7012705e-07
-5.2651896e-09
5.7040789e-07
-6.3991031e-09
5.7078813e-07
-7.8131026e-09
5.7131194e-07
-9.6184722e-09
5.7205029e-07
-1.1980148e-08
5.7311473e-07
-1.5135753e-08
5.747055e-07
-1.9454586e-08
5.7723475e-07
-2.5906671e-08
5.8165295e-07
-3.8081429e-08
5.9440638e-07
-4.7476595e-08
6.1579333e-07
4.4643039e-07
5.419491e-08
3.5594444e-07
5.6355789e-08
6.2696303e-07
3.9473848e-08
6.2138672e-07
2.9867676e-08
5.9515461e-07
2.3772623e-08
5.8561912e-07
1.9131806e-08
5.8089084e-07
1.5550795e-08
5.7777111e-07
1.2766525e-08
5.7560581e-07
1.0564534e-08
5.7407957e-07
8.7917917e-09
5.7298422e-07
7.3395982e-09
5.7218209e-07
6.1290154e-09
5.7158539e-07
5.1020266e-09
5.7113629e-07
4.2153432e-09
5.7079559e-07
3.4360301e-09
5.7053634e-07
2.7384853e-09
5.7033979e-07
2.1023145e-09
5.7019279e-07
1.510794e-09
5.7008617e-07
9.4972515e-10
5.7001367e-07
4.0654507e-10
5.6997124e-07
-1.3040428e-10
5.6995666e-07
-6.7252298e-10
5.6996931e-07
-1.231581e-09
5.7001011e-07
-1.8203832e-09
5.7008162e-07
-2.4535342e-09
5.7018832e-07
-3.1483877e-09
5.7033706e-07
-3.9262858e-09
5.7053791e-07
-4.8142394e-09
5.7080532e-07
-5.8472774e-09
5.7116009e-07
-7.0718103e-09
5.7163242e-07
-8.5503491e-09
5.7226668e-07
-1.0368078e-08
5.7312967e-07
-1.2643521e-08
5.7432574e-07
-1.5541873e-08
5.7601308e-07
-1.9267709e-08
5.7843134e-07
-2.4094595e-08
5.8206164e-07
-3.1243776e-08
5.8880213e-07
-4.3710666e-08
6.0687327e-07
-4.5557332e-08
6.1764e-07
4.0087306e-07
4.7129151e-08
3.08849e-07
5.8530328e-08
6.1557679e-07
4.3933457e-08
6.3597821e-07
3.3579676e-08
6.0550608e-07
2.7188412e-08
5.9201039e-07
2.2288237e-08
5.8579108e-07
1.8391583e-08
5.8166777e-07
1.5277769e-08
5.7871962e-07
1.2759386e-08
5.7659796e-07
1.0695695e-08
5.7504791e-07
8.9808184e-09
5.7389697e-07
7.5343949e-09
5.7303182e-07
6.2954039e-09
5.7237529e-07
5.2170502e-09
5.7187395e-07
4.2629225e-09
5.7149047e-07
3.4041995e-09
5.7119852e-07
2.6175782e-09
5.7097942e-07
1.883714e-09
5.7082004e-07
1.1860236e-09
5.7071136e-07
5.097307e-10
5.7064754e-07
-1.5893253e-10
5.7062533e-07
-8.3344067e-10
5.7064383e-07
-1.5276703e-09
5.7070435e-07
-2.2566314e-09
5.7081059e-07
-3.0372963e-09
5.7096899e-07
-3.8896051e-09
5.7118938e-07
-4.837739e-09
5.7148605e-07
-5.9117818e-09
5.7187936e-07
-7.1499246e-09
5.7239824e-07
-8.6014556e-09
5.7308396e-07
-1.0330719e-08
5.7399594e-07
-1.2421781e-08
5.7522073e-07
-1.4985202e-08
5.7688916e-07
-1.816888e-08
5.7919676e-07
-2.215169e-08
5.8241415e-07
-2.7235052e-08
5.8714501e-07
-3.4919413e-08
5.964865e-07
-4.6444893e-08
6.1839875e-07
-4.1881973e-08
6.1307708e-07
3.5899109e-07
3.9355966e-08
2.6954656e-07
5.6960982e-08
5.9800536e-07
4.6288759e-08
6.4664554e-07
3.5824739e-08
6.1596513e-07
2.9321005e-08
5.9851373e-07
2.4408937e-08
5.9070327e-07
2.0422752e-08
5.8565398e-07
1.7162698e-08
5.8197968e-07
1.4472588e-08
5.7928807e-07
1.2229262e-08
5.7729124e-07
1.0336347e-08
5.7578988e-07
8.718577e-09
5.7464959e-07
7.3171584e-09
5.7377671e-07
6.0857361e-09
5.7310538e-07
4.9873654e-09
5.7258885e-07
3.9921981e-09
5.7219369e-07
3.0756727e-09
5.7189595e-07
2.2170978e-09
5.7167862e-07
1.3985248e-09
5.7152994e-07
6.0382301e-10
5.7144224e-07
-1.8211229e-10
5.7141127e-07
-9.7407793e-10
5.714358e-07
-1.7872651e-09
5.7151754e-07
-2.6379915e-09
5.7166132e-07
-3.5445151e-09
5.7187551e-07
-4.5279966e-09
5.7217286e-07
-5.6136792e-09
5.7257173e-07
-6.8323718e-09
5.7309806e-07
-8.2223231e-09
5.7378819e-07
-9.8316447e-09
5.7469328e-07
-1.1721538e-08
5.7588584e-07
-1.3969995e-08
5.774692e-07
-1.6676214e-08
5.7959539e-07
-1.9968794e-08
5.8248935e-07
-2.40122e-08
5.8645756e-07
-2.9195529e-08
5.9232834e-07
-3.704858e-08
6.0433955e-07
-4.6431016e-08
6.2778119e-07
-3.6927703e-08
6.0357377e-07
3.2206339e-07
3.1746636e-08
2.3787844e-07
5.269723e-08
5.7711601e-07
4.6516718e-08
6.5282544e-07
3.6736085e-08
6.2573719e-07
3.03638e-08
6.0488465e-07
2.5634292e-08
5.9543297e-07
2.1731427e-08
5.895569e-07
1.8468398e-08
5.8524271e-07
1.572465e-08
5.8203182e-07
1.3397278e-08
5.7961862e-07
1.1402705e-08
5.7778446e-07
9.674327e-09
5.7637797e-07
8.1588049e-09
5.7529223e-07
6.8129964e-09
5.7445119e-07
5.6017072e-09
5.7380014e-07
4.4958937e-09
5.732995e-07
3.4711991e-09
5.7292064e-07
2.5067677e-09
5.7264305e-07
1.584268e-09
5.7245244e-07
6.8706472e-10
5.7233945e-07
-2.005063e-10
5.7229884e-07
-1.0938056e-09
5.723291e-07
-2.008547e-09
5.7243228e-07
-2.9614755e-09
5.7261425e-07
-3.971107e-09
5.7288515e-07
-5.0585801e-09
5.7326034e-07
-6.2486688e-09
5.7376183e-07
-7.5710179e-09
5.7442041e-07
-9.061655e-09
5.7527883e-07
-1.0764865e-08
5.763965e-07
-1.2735756e-08
5.7785673e-07
-1.5043451e-08
5.7977689e-07
-1.7773607e-08
5.8232555e-07
-2.1031111e-08
5.8574686e-07
-2.4962599e-08
5.9038905e-07
-3.0036523e-08
5.9740227e-07
-3.753444e-08
6.1183747e-07
-4.4138419e-08
6.3438518e-07
-3.1373969e-08
5.9080932e-07
2.9068943e-07
2.4941309e-08
2.130487e-07
4.7025377e-08
5.5513127e-07
4.5006959e-08
6.5485324e-07
3.650133e-08
6.3423026e-07
3.0483338e-08
6.108995e-07
2.6081736e-08
5.9983472e-07
2.2401224e-08
5.9323752e-07
1.9253177e-08
5.8839077e-07
1.6553208e-08
5.8473179e-07
1.4222086e-08
5.8194975e-07
1.2191924e-08
5.7981463e-07
1.0407128e-08
5.7816277e-07
8.82189e-09
5.7687748e-07
7.3981612e-09
5.7587492e-07
6.1041521e-09
5.7509415e-07
4.9130346e-09
5.7449063e-07
3.8018506e-09
5.7403183e-07
2.7505945e-09
5.7369431e-07
1.741428e-09
5.7346161e-07
7.5799328e-10
5.7332289e-07
-2.1520569e-10
5.7327205e-07
-1.1933803e-09
5.7330728e-07
-2.1920288e-09
5.7343093e-07
-3.2275198e-09
5.7364974e-07
-4.3177186e-09
5.7397535e-07
-5.4826884e-09
5.7442531e-07
-6.7454971e-09
5.7502464e-07
-8.133173e-09
5.7580809e-07
-9.6778449e-09
5.7682351e-07
-1.1418076e-08
5.7813673e-07
-1.3400632e-08
5.7983929e-07
-1.5682892e-08
5.8205916e-07
-1.8333562e-08
5.8497622e-07
-2.1430655e-08
5.8884395e-07
-2.5105727e-08
5.9406413e-07
-2.9877027e-08
6.0217357e-07
-3.6585777e-08
6.1854622e-07
-4.0359734e-08
6.3815914e-07
-2.5837547e-08
5.7628714e-07
2.6485188e-07
1.9188953e-08
1.9403098e-07
4.0879007e-08
5.3359426e-07
4.2291121e-08
6.5346836e-07
3.5394623e-08
6.4111066e-07
2.9892067e-08
6.1639615e-07
2.5898066e-08
6.0382862e-07
2.2532833e-08
5.9660295e-07
1.9588547e-08
5.9133508e-07
1.7009041e-08
5.873113e-07
1.4739349e-08
5.8421944e-07
1.2728721e-08
5.8182526e-07
1.0933884e-08
5.7995761e-07
9.3178484e-09
5.7849352e-07
7.8489118e-09
5.7734386e-07
6.4998354e-09
5.7644323e-07
5.2470373e-09
5.7574343e-07
4.0698767e-09
5.75209e-07
2.9500157e-09
5.7481418e-07
1.8708446e-09
5.7454079e-07
8.169579e-10
5.7437678e-07
-2.2633231e-10
5.7431534e-07
-1.2734572e-09
5.7435441e-07
-2.3390512e-09
5.7449653e-07
-3.4384154e-09
5.7474911e-07
-4.5880049e-09
5.7512494e-07
-5.8059572e-09
5.7564327e-07
-7.1126732e-09
5.7633136e-07
-8.5314722e-09
5.772269e-07
-1.0089345e-08
5.7838138e-07
-1.1817757e-08
5.7986515e-07
-1.3753586e-08
5.8177513e-07
-1.5940558e-08
5.8424613e-07
-1.8428799e-08
5.8746447e-07
-2.1272109e-08
5.9168726e-07
-2.4596118e-08
5.9738814e-07
-2.8922047e-08
6.064995e-07
-3.4547309e-08
6.2417149e-07
-3.5755908e-08
6.3936774e-07
-2.0664156e-08
5.6119539e-07
2.4418773e-07
1.448493e-08
1.798331e-07
3.4789668e-08
5.1352271e-07
3.8810164e-08
6.4950321e-07
3.3660871e-08
6.4624131e-07
2.8796586e-08
6.2125057e-07
2.5245813e-08
6.0737866e-07
2.2244141e-08
5.996049e-07
1.9560142e-08
5.9401913e-07
1.7155067e-08
5.8971638e-07
1.499572e-08
5.8637879e-07
1.30479e-08
5.8377308e-07
1.1280668e-08
5.8172485e-07
9.6663117e-09
5.8010788e-07
8.1801208e-09
5.7883005e-07
6.8000979e-09
5.7782326e-07
5.5065939e-09
5.7703694e-07
4.2819422e-09
5.7643365e-07
3.1100899e-09
5.7598603e-07
1.9762345e-09
5.7567465e-07
8.6647077e-10
5.7548654e-07
-2.325507e-10
5.7541437e-07
-1.3339555e-09
5.7545581e-07
-2.4509782e-09
5.7561356e-07
-3.5972916e-09
5.7589543e-07
-4.7873427e-09
5.76315e-07
-6.0366973e-09
5.7689262e-07
-7.3623927e-09
5.7765706e-07
-8.7832952e-09
5.786478e-07
-1.0320478e-08
5.7991857e-07
-1.1997565e-08
5.8154224e-07
-1.384101e-08
5.8361858e-07
-1.5880608e-08
5.8628573e-07
-1.814849e-08
5.8973235e-07
-2.0679398e-08
5.9421818e-07
-2.3597069e-08
6.0030581e-07
-2.7367144e-08
6.1026958e-07
-3.1730144e-08
6.2853449e-07
-3.0769375e-08
6.3840697e-07
-1.6000764e-08
5.4642678e-07
2.2818697e-07
1.0715951e-08
1.6957924e-07
2.9050368e-08
4.9553905e-07
3.489915e-08
6.4375081e-07
3.1485605e-08
6.4963487e-07
2.7355182e-08
6.2536574e-07
2.4265311e-08
6.1046667e-07
2.1646046e-08
6.0222452e-07
1.925279e-08
5.9641249e-07
1.7055748e-08
5.9191343e-07
1.5040029e-08
5.8839451e-07
1.3186359e-08
5.8562676e-07
1.1475297e-08
5.8343591e-07
9.8881821e-09
5.81695e-07
8.4073968e-09
5.8031084e-07
7.0164657e-09
5.792142e-07
5.7000448e-09
5.7835336e-07
4.4438535e-09
5.7768985e-07
3.2345456e-09
5.7719535e-07
2.0595444e-09
5.7684965e-07
9.0685696e-10
5.7663923e-07
-2.3512034e-10
5.7655635e-07
-1.3778008e-09
5.765985e-07
-2.5326074e-09
5.7676837e-07
-3.7111637e-09
5.7707399e-07
-4.9254748e-09
5.7752931e-07
-6.188092e-09
5.7815525e-07
-7.5122472e-09
5.7898122e-07
-8.9119428e-09
5.800475e-07
-1.0401997e-08
5.8140863e-07
-1.1998021e-08
5.8313826e-07
-1.3716231e-08
5.8533679e-07
-1.5573134e-08
5.8814264e-07
-1.7584206e-08
5.9174343e-07
-1.9769367e-08
5.9640334e-07
-2.2246896e-08
6.0278335e-07
-2.5374511e-08
6.133972e-07
-2.840315e-08
6.3156314e-07
-2.5713239e-08
6.3571706e-07
-1.1887409e-08
5.3260096e-07
2.1629956e-07
7.7350576e-09
1.6249594e-07
2.3824982e-08
4.799578e-07
3.0822804e-08
6.3690609e-07
2.9020325e-08
6.5141796e-07
2.5682861e-08
6.2868121e-07
2.3062065e-08
6.1308386e-07
2.0826515e-08
6.0446046e-07
1.8736159e-08
5.9850303e-07
1.6764875e-08
5.9388473e-07
1.4912679e-08
5.9024671e-07
1.317348e-08
5.8736596e-07
1.1538289e-08
5.8507111e-07
9.9969193e-09
5.8323637e-07
8.5385992e-09
5.8176917e-07
7.1523459e-09
5.8060045e-07
5.8272319e-09
5.7967848e-07
4.552554e-09
5.7896453e-07
3.3179088e-09
5.7842999e-07
2.1132045e-09
5.7805436e-07
9.2863078e-10
5.7782381e-07
-2.4539409e-10
5.7773038e-07
-1.4182926e-09
5.777714e-07
-2.5993982e-09
5.7794948e-07
-3.7980088e-09
5.782726e-07
-5.0234193e-09
5.7875473e-07
-6.2849152e-09
5.7941675e-07
-7.5917107e-09
5.8028802e-07
-8.9528031e-09
5.814086e-07
-1.0376736e-08
5.8283256e-07
-1.1871262e-08
5.8463279e-07
-1.3442802e-08
5.8690833e-07
-1.5095437e-08
5.8979528e-07
-1.6829385e-08
5.9347738e-07
-1.8652585e-08
5.9822654e-07
-2.067119e-08
6.0480196e-07
-2.3102626e-08
6.1582864e-07
-2.4825472e-08
6.3328599e-07
-2.0843729e-08
6.3173533e-07
-8.3317623e-09
5.2008899e-07
2.079678e-07
5.4035368e-09
1.5788924e-07
1.9200159e-08
4.6686272e-07
2.6796065e-08
6.2953852e-07
2.6406349e-08
6.5179327e-07
2.3876279e-08
6.3118234e-07
2.1722114e-08
6.152322e-07
1.9859188e-08
6.0632372e-07
1.8069666e-08
6.0029281e-07
1.6328661e-08
5.9562576e-07
1.4647998e-08
5.9192737e-07
1.3033162e-08
5.889808e-07
1.1484633e-08
5.8661964e-07
1.0000034e-08
5.8472097e-07
8.5750127e-09
5.8319419e-07
7.2038524e-09
5.8197162e-07
5.8799525e-09
5.8100238e-07
4.5961894e-09
5.8024829e-07
3.3451654e-09
5.7968102e-07
2.1193744e-09
5.7928015e-07
9.1131303e-10
5.7903188e-07
-2.8644314e-10
5.7892814e-07
-1.4811868e-09
5.7896615e-07
-2.6800267e-09
5.7914832e-07
-3.8898125e-09
5.7948239e-07
-5.1170288e-09
5.7998195e-07
-6.3676319e-09
5.8066735e-07
-7.6468099e-09
5.815672e-07
-8.9586302e-09
5.8272042e-07
-1.0305556e-08
5.8417949e-07
-1.1687822e-08
5.8601506e-07
-1.3102571e-08
5.8832309e-07
-1.4542376e-08
5.9123509e-07
-1.5993698e-08
5.949287e-07
-1.7454107e-08
5.9968696e-07
-1.9011709e-08
6.0635956e-07
-2.0735129e-08
6.1755207e-07
-2.126149e-08
6.3381235e-07
-1.6388943e-08
6.2686278e-07
-5.3563931e-09
5.0905645e-07
2.0261141e-07
3.6137527e-09
1.5514418e-07
1.5219578e-08
4.5617736e-07
2.300427e-08
6.2207862e-07
2.3796744e-08
6.5099977e-07
2.2046586e-08
6.3289858e-07
2.034495e-08
6.1692568e-07
1.8833145e-08
6.0783559e-07
1.7329302e-08
6.0179694e-07
1.5810155e-08
5.9714494e-07
1.4296944e-08
5.9344058e-07
1.2805379e-08
5.9047236e-07
1.1344542e-08
5.8808048e-07
9.9191658e-09
5.8614635e-07
8.5308007e-09
5.8458256e-07
7.1786273e-09
5.8332379e-07
5.860119e-09
5.8232089e-07
4.5715684e-09
5.8153685e-07
3.3084845e-09
5.8094411e-07
2.0658938e-09
5.8052275e-07
8.3857431e-10
5.802592e-07
-3.7875213e-10
5.8014547e-07
-1.5912577e-09
5.8017866e-07
-2.8038455e-09
5.8036091e-07
-4.0209595e-09
5.8069951e-07
-5.2463541e-09
5.8120735e-07
-6.4827902e-09
5.8190379e-07
-7.7316363e-09
5.8281605e-07
-8.9923302e-09
5.8398112e-07
-1.0261675e-08
5.8544884e-07
-1.1532954e-08
5.8728635e-07
-1.279473e-08
5.8958487e-07
-1.4029097e-08
5.9246946e-07
-1.5210425e-08
5.9611004e-07
-1.6326255e-08
6.0080279e-07
-1.7441964e-08
6.0747528e-07
-1.8487808e-08
6.1859791e-07
-1.7974007e-08
6.3329855e-07
-1.2545036e-08
6.2143382e-07
-3.0076246e-09
4.9951904e-07
1.996038e-07
2.2880291e-09
1.5373308e-07
1.1903249e-08
4.4771389e-07
1.9618738e-08
6.1480566e-07
2.137518e-08
6.4926722e-07
2.035049e-08
6.3388833e-07
1.9076354e-08
6.1818964e-07
1.78839e-08
6.090276e-07
1.6637393e-08
6.030437e-07
1.5318089e-08
5.9846429e-07
1.3955329e-08
5.9480335e-07
1.2574083e-08
5.9185361e-07
1.1191231e-08
5.8946334e-07
9.8178719e-09
5.8751971e-07
8.4608366e-09
5.859396e-07
7.1236956e-09
5.8466094e-07
5.8075936e-09
5.83637e-07
4.5119231e-09
5.8283252e-07
3.2348524e-09
5.8222118e-07
1.9737432e-09
5.8178386e-07
7.2548925e-10
5.8150746e-07
-5.1319465e-10
5.8138415e-07
-1.745515e-09
5.8141098e-07
-2.9743421e-09
5.8158974e-07
-4.2019249e-09
5.819271e-07
-5.4295548e-09
5.8243498e-07
-6.6571437e-09
5.8313138e-07
-7.882688e-09
5.840416e-07
-9.1015712e-09
5.8520001e-07
-1.0305663e-08
5.8665294e-07
-1.1482206e-08
5.8846289e-07
-1.2612254e-08
5.9071492e-07
-1.3668705e-08
5.9352592e-07
-1.4615733e-08
5.9705707e-07
-1.5430226e-08
6.0161729e-07
-1.6148782e-08
6.0819384e-07
-1.6580261e-08
6.190294e-07
-1.518878e-08
6.3190708e-07
-9.4399694e-09
6.1568501e-07
-1.3233174e-09
4.914024e-07
1.9828048e-07
1.3632033e-09
1.5321747e-07
9.2511991e-09
4.41195e-07
1.6791099e-08
6.0783992e-07
1.9346245e-08
6.4677073e-07
1.898879e-08
6.3421316e-07
1.8108402e-08
6.19058e-07
1.7192406e-08
6.0994237e-07
1.6161845e-08
6.0407439e-07
1.500726e-08
5.9961892e-07
1.3765748e-08
5.9604487e-07
1.2470808e-08
5.9314856e-07
1.1146249e-08
5.907879e-07
9.8086795e-09
5.8885729e-07
8.4694421e-09
5.8727884e-07
7.1358407e-09
5.8599454e-07
5.8121447e-09
5.849607e-07
4.5003975e-09
5.8414427e-07
3.2010548e-09
5.8352053e-07
1.9134983e-09
5.8307142e-07
6.3645851e-10
5.827845e-07
-6.3162271e-10
5.8265224e-07
-1.8922596e-09
5.8267162e-07
-3.1465894e-09
5.8284408e-07
-4.3950188e-09
5.8317553e-07
-5.6368065e-09
5.8367677e-07
-6.8695537e-09
5.8436414e-07
-8.088564e-09
5.8526061e-07
-9.2860237e-09
5.8639747e-07
-1.0449937e-08
5.8781685e-07
-1.1562816e-08
5.8957578e-07
-1.2599786e-08
5.9175189e-07
-1.3526297e-08
5.9445243e-07
-1.4298508e-08
5.9782928e-07
-1.4881628e-08
6.0220041e-07
-1.5272735e-08
6.0858495e-07
-1.5168544e-08
6.1892521e-07
-1.3036428e-08
6.2977497e-07
-7.0958822e-09
6.0974447e-07
-2.9644595e-10
4.8460297e-07
1.9798404e-07
7.7794812e-10
1.5324273e-07
7.2386451e-09
4.362681e-07
1.4614731e-08
6.0116561e-07
1.7875599e-08
6.4360509e-07
1.8144743e-08
6.3391286e-07
1.762057e-08
6.1956736e-07
1.6928825e-08
6.1063181e-07
1.6062904e-08
6.0494029e-07
1.5028862e-08
6.0065303e-07
1.3871661e-08
5.9720209e-07
1.26324e-08
5.9438782e-07
1.1340714e-08
5.9207959e-07
1.0017682e-08
5.9018032e-07
8.678233e-09
5.8861829e-07
7.3326109e-09
5.8734017e-07
5.9875553e-09
5.8630576e-07
4.6472207e-09
5.8548461e-07
3.3139026e-09
5.8485385e-07
1.9886212e-09
5.8439671e-07
6.7160296e-10
5.8410152e-07
-6.3730694e-10
5.8396115e-07
-1.9382632e-09
5.8397258e-07
-3.231036e-09
5.8413685e-07
-4.514615e-09
5.8445911e-07
-5.7867439e-09
5.849489e-07
-7.0433596e-09
5.8562076e-07
-8.2778881e-09
5.8649514e-07
-9.4803524e-09
5.8759994e-07
-1.063619e-08
5.889727e-07
-1.1724787e-08
5.9066438e-07
-1.2717337e-08
5.9274445e-07
-1.3574103e-08
5.953092e-07
-1.4245492e-08
5.9850068e-07
-1.4683728e-08
6.0263865e-07
-1.4830787e-08
6.0873201e-07
-1.4266546e-08
6.1836097e-07
-1.149653e-08
6.2700495e-07
-5.4132096e-09
6.0366116e-07
2.8314376e-10
4.7890662e-07
1.9826719e-07
4.6900486e-10
1.5353129e-07
5.8078632e-09
4.325405e-07
1.3073607e-08
5.9470071e-07
1.6999962e-08
6.3980065e-07
1.7879011e-08
6.3299738e-07
1.7678168e-08
6.1974783e-07
1.7157918e-08
6.111483e-07
1.6404469e-08
6.0569364e-07
1.5447053e-08
6.0161055e-07
1.4338573e-08
5.9831059e-07
1.3126299e-08
5.956001e-07
1.1844313e-08
5.9336158e-07
1.0516992e-08
5.9150765e-07
9.1618288e-09
5.8997346e-07
7.791171e-09
5.8871083e-07
6.4135481e-09
5.8768338e-07
5.0346771e-09
5.8686349e-07
3.6582457e-09
5.8623029e-07
2.2865378e-09
5.8576842e-07
9.2094554e-10
5.8546712e-07
-4.3759053e-10
5.8531969e-07
-1.7881788e-09
5.8532317e-07
-3.1295663e-09
5.8547825e-07
-4.4597244e-09
5.8578928e-07
-5.7753684e-09
5.8626455e-07
-7.0713819e-09
5.8691677e-07
-8.3400908e-09
5.8776385e-07
-9.5703484e-09
5.888302e-07
-1.0746298e-08
5.9014865e-07
-1.1845776e-08
5.9176386e-07
-1.2838063e-08
5.9373674e-07
-1.3680658e-08
5.961518e-07
-1.4320057e-08
5.9914008e-07
-1.4693672e-08
6.0301227e-07
-1.467357e-08
6.0871191e-07
-1.3715491e-08
6.174029e-07
-1.0405583e-08
6.2369505e-07
-4.2645925e-09
5.9752017e-07
4.4301813e-10
4.7419901e-07
1.9871022e-07
3.7816413e-10
1.5387198e-07
4.8613072e-09
4.2965097e-07
1.2020083e-08
5.8839337e-07
1.6567877e-08
6.3538273e-07
1.8048145e-08
6.3146538e-07
1.8151012e-08
6.1961525e-07
1.7764095e-08
6.115295e-07
1.7084598e-08
6.0637311e-07
1.6173274e-08
6.0252209e-07
1.5091007e-08
5.9939291e-07
1.3889445e-08
5.9680167e-07
1.2605709e-08
5.9464532e-07
1.1266354e-08
5.9284701e-07
9.8905166e-09
5.913493e-07
8.491917e-09
5.9010943e-07
7.0803018e-09
5.89095e-07
5.6624999e-09
5.8828129e-07
4.2432356e-09
5.8764956e-07
2.8257672e-09
5.8718589e-07
1.4124083e-09
5.8688048e-07
4.9735067e-12
5.8672713e-07
-1.3948166e-09
5.8672297e-07
-2.7849225e-09
5.8686835e-07
-4.1625722e-09
5.8716693e-07
-5.5237906e-09
5.8762577e-07
-6.8628346e-09
5.8825582e-07
-8.1714809e-09
5.890725e-07
-9.438123e-09
5.9009685e-07
-1.0646534e-08
5.9135706e-07
-1.1774161e-08
5.9289149e-07
-1.2789856e-08
5.9475243e-07
-1.3650276e-08
5.9701223e-07
-1.4298892e-08
5.997887e-07
-1.4656207e-08
6.0336959e-07
-1.4518694e-08
6.0857441e-07
-1.3228348e-08
6.1611256e-07
-9.5082766e-09
6.1997498e-07
-3.4611645e-09
5.9147306e-07
3.7425235e-10
4.703636e-07
1.9908447e-07
4.3457715e-10
1.5412909e-07
4.264098e-09
4.2732833e-07
1.1213119e-08
5.8229425e-07
1.6269296e-08
6.3044552e-07
1.8318041e-08
6.2934241e-07
1.8719875e-08
6.1917177e-07
1.8456371e-08
6.1178493e-07
1.7839823e-08
6.0698979e-07
1.6969047e-08
6.0339325e-07
1.5913092e-08
6.0044893e-07
1.4726442e-08
5.9798832e-07
1.3448174e-08
5.9592359e-07
1.2106245e-08
5.9418894e-07
1.0720834e-08
5.9273472e-07
9.3065821e-09
5.9152369e-07
7.8741095e-09
5.9052748e-07
6.4311022e-09
5.897243e-07
4.9831297e-09
5.8909753e-07
3.5342822e-09
5.8863474e-07
2.0876853e-09
5.8832708e-07
6.459383e-10
5.8816888e-07
-7.8848684e-10
5.881574e-07
-2.212847e-09
5.8829272e-07
-3.6237241e-09
5.8857781e-07
-5.0165727e-09
5.8901863e-07
-6.3851813e-09
5.8962443e-07
-7.72099e-09
5.9040832e-07
-9.012209e-09
5.9138807e-07
-1.0242612e-08
5.9258747e-07
-1.138975e-08
5.9403863e-07
-1.2422626e-08
5.9578531e-07
-1.3297923e-08
5.9788753e-07
-1.3955999e-08
6.0044678e-07
-1.4299392e-08
6.0371299e-07
-1.4058578e-08
6.083336e-07
-1.2502703e-08
6.1455669e-07
-8.5565921e-09
6.1602888e-07
-2.8347578e-09
5.8575123e-07
2.2447154e-10
4.6730438e-07
1.9930895e-07
5.5304331e-10
1.5425224e-07
3.8696846e-09
4.2540663e-07
1.0408941e-08
5.7656631e-07
1.575727e-08
6.2519592e-07
1.8287011e-08
6.2671713e-07
1.8987415e-08
6.1841869e-07
1.8867228e-08
6.1189477e-07
1.8334493e-08
6.075228e-07
1.7526994e-08
6.0420129e-07
1.6522109e-08
6.0145392e-07
1.5376322e-08
5.9913411e-07
1.4130166e-08
5.9716974e-07
1.2812704e-08
5.9550641e-07
1.1444995e-08
5.9410243e-07
1.0042498e-08
5.9292619e-07
8.6166484e-09
5.9195333e-07
7.1759597e-09
5.91165e-07
5.7268424e-09
5.9054665e-07
4.274232e-09
5.9008735e-07
2.8220956e-09
5.8977922e-07
1.3738596e-09
5.8961712e-07
-6.7199936e-11
5.8959846e-07
-1.4975751e-09
5.897231e-07
-2.9131301e-09
5.8999337e-07
-4.3086722e-09
5.9041417e-07
-5.6774317e-09
5.909932e-07
-7.0104083e-09
5.917413e-07
-8.2955063e-09
5.9267317e-07
-9.5163551e-09
5.9380832e-07
-1.0650473e-08
5.9517275e-07
-1.1666823e-08
5.9680167e-07
-1.2521984e-08
5.9874269e-07
-1.3152894e-08
6.0107769e-07
-1.3446186e-08
6.0400629e-07
-1.3091832e-08
6.0797925e-07
-1.1353691e-08
6.1281855e-07
-7.4129316e-09
6.1208812e-07
-2.2810237e-09
5.8061933e-07
8.7091001e-11
4.6493627e-07
1.9939605e-07
6.6956439e-10
1.5425236e-07
3.5598649e-09
4.2381236e-07
9.4563532e-09
5.7143011e-07
1.4797692e-08
6.1993762e-07
1.7655743e-08
6.2375295e-07
1.8639474e-08
6.1737628e-07
1.8697547e-08
6.1182485e-07
1.8291187e-08
6.0792947e-07
1.7589493e-08
6.0490364e-07
1.6677446e-08
6.0236608e-07
1.5613257e-08
6.001983e-07
1.4438834e-08
5.9834417e-07
1.3184421e-08
5.9676082e-07
1.1872118e-08
5.9541474e-07
1.051837e-08
5.9427994e-07
9.1355801e-09
5.9333613e-07
7.7332301e-09
5.9256735e-07
6.3187004e-09
5.9196119e-07
4.8978948e-09
5.9150816e-07
3.4757422e-09
5.9120138e-07
2.0566203e-09
5.9103625e-07
6.4473968e-10
5.9101034e-07
-7.5548338e-10
5.9112332e-07
-2.1390359e-09
5.9137692e-07
-3.4998893e-09
5.9177503e-07
-4.8304929e-09
5.923238e-07
-6.1211369e-09
5.9303195e-07
-7.3590945e-09
5.9391113e-07
-8.527455e-09
5.9497669e-07
-9.6032956e-09
5.962486e-07
-1.0555092e-08
5.9775347e-07
-1.1338929e-08
5.9952653e-07
-1.1888934e-08
6.016277e-07
-1.2082185e-08
6.0419954e-07
-1.1603044e-08
6.0750011e-07
-9.7844816e-09
6.1099999e-07
-6.0870855e-09
6.0839073e-07
-1.760271e-09
5.7629252e-07
-2.4033351e-12
4.631784e-07
1.9939365e-07
7.4707588e-10
1.5417352e-07
3.267042e-09
4.2252097e-07
8.3397963e-09
5.6707469e-07
1.3359081e-08
6.1500047e-07
1.6346537e-08
6.2066469e-07
1.7567451e-08
6.1609799e-07
1.7829643e-08
6.1155062e-07
1.7593006e-08
6.0816629e-07
1.7042231e-08
6.0545506e-07
1.6267246e-08
6.0314119e-07
1.5327554e-08
6.01138e-07
1.426629e-08
5.9940543e-07
1.3114962e-08
5.9791215e-07
1.1896909e-08
5.9663279e-07
1.0629778e-08
5.9554708e-07
9.3271395e-09
5.9463877e-07
7.9996232e-09
5.9389487e-07
6.6557363e-09
5.9330508e-07
5.302492e-09
5.9286141e-07
3.9459125e-09
5.9255796e-07
2.5914533e-09
5.9239071e-07
1.2443889e-09
5.9235741e-07
-8.9819028e-11
5.9245754e-07
-1.4051301e-09
5.9269224e-07
-2.6945071e-09
5.9306441e-07
-3.9494165e-09
5.9357872e-07
-5.1592019e-09
5.9424173e-07
-6.3102371e-09
5.9506217e-07
-7.384775e-09
5.9605123e-07
-8.359204e-09
5.9722303e-07
-9.201423e-09
5.9859569e-07
-9.8672155e-09
6.0019233e-07
-1.0290096e-08
6.0205059e-07
-1.0347248e-08
6.042567e-07
-9.7511922e-09
6.0690406e-07
-7.9614433e-09
6.0921025e-07
-4.7004212e-09
6.0512971e-07
-1.2783174e-09
5.7287042e-07
-4.5305737e-11
4.619454e-07
1.9934835e-07
7.7622524e-10
1.5406574e-07
2.9747181e-09
4.215142e-07
7.1533526e-09
5.6358684e-07
1.1598193e-08
6.1065322e-07
1.4510614e-08
6.1767131e-07
1.5889703e-08
6.1466951e-07
1.6353035e-08
6.110764e-07
1.6309285e-08
6.0821003e-07
1.5939239e-08
6.0582565e-07
1.5332966e-08
6.0374758e-07
1.4549919e-08
6.0192105e-07
1.3633767e-08
6.0032159e-07
1.2616981e-08
5.9892894e-07
1.1524073e-08
5.977257e-07
1.0373914e-08
5.9669724e-07
9.1813075e-09
5.9583138e-07
7.9581008e-09
5.9511808e-07
6.7139987e-09
5.9454918e-07
5.4571889e-09
5.9411823e-07
4.1948459e-09
5.9382031e-07
2.9335587e-09
5.93652e-07
1.6797186e-09
5.9361126e-07
4.3988704e-10
5.9369737e-07
-7.7881429e-10
5.9391094e-07
-1.9682829e-09
5.9425388e-07
-3.1189464e-09
5.9472938e-07
-4.2191522e-09
5.9534194e-07
-5.2543563e-09
5.9609738e-07
-6.2060249e-09
5.970029e-07
-7.0500626e-09
5.9806707e-07
-7.754375e-09
5.9930001e-07
-8.2756066e-09
6.0071356e-07
-8.5501372e-09
6.0232512e-07
-8.4655351e-09
6.041721e-07
-7.7860634e-09
6.0622459e-07
-6.1232035e-09
6.0754739e-07
-3.4094504e-09
6.0241597e-07
-8.58178e-10
5.7031915e-07
-3.6715457e-11
4.6112394e-07
1.9931163e-07
7.6795032e-10
1.539661e-07
2.6993963e-09
4.2075758e-07
6.0327955e-09
5.6093149e-07
9.7656462e-09
6.0704363e-07
1.2435808e-08
6.1494804e-07
1.3874962e-08
6.1319277e-07
1.4502489e-08
6.1044003e-07
1.4643859e-08
6.0806846e-07
1.4458535e-08
6.0601136e-07
1.4030789e-08
6.0417541e-07
1.3417656e-08
6.0253419e-07
1.2661938e-08
6.0107731e-07
1.1796235e-08
5.9979465e-07
1.0845728e-08
5.9867621e-07
9.8302134e-09
5.9771276e-07
8.7655351e-09
5.9689606e-07
7.6646321e-09
5.9621899e-07
6.5383142e-09
5.956755e-07
5.39587e-09
5.9526067e-07
4.2455629e-09
5.9497062e-07
3.0950536e-09
5.9480251e-07
1.9517861e-09
5.9475453e-07
8.2335231e-10
5.9482581e-07
-2.8212816e-10
5.9501643e-07
-1.3555932e-09
5.9532735e-07
-2.3865694e-09
5.9576036e-07
-3.3626012e-09
5.9631798e-07
-4.2685116e-09
5.9700329e-07
-5.0854196e-09
5.9781982e-07
-5.7894248e-09
5.9877108e-07
-6.3495937e-09
5.9986018e-07
-6.7253052e-09
6.0108928e-07
-6.8595324e-09
6.0245935e-07
-6.6581787e-09
6.0397075e-07
-5.9468666e-09
6.0551328e-07
-4.4819897e-09
6.0608252e-07
-2.3373107e-09
6.0027129e-07
-5.2760072e-10
5.6850945e-07
-7.4902576e-12
4.6060383e-07
1.9930415e-07
7.412477e-10
1.5389215e-07
2.4656334e-09
4.2020007e-07
5.0883801e-09
5.589808e-07
8.0944105e-09
6.0418776e-07
1.0419186e-08
6.1259842e-07
1.182289e-08
6.1176374e-07
1.2553748e-08
6.0970266e-07
1.284445e-08
6.0777745e-07
1.2822267e-08
6.0603379e-07
1.2560306e-08
6.0443744e-07
1.2110382e-08
6.0298412e-07
1.1512608e-08
6.0167508e-07
1.0798468e-08
6.0050879e-07
9.9929473e-09
5.9948174e-07
9.1161557e-09
5.9858955e-07
8.1845387e-09
5.9782768e-07
7.2117923e-09
5.9719174e-07
6.2095672e-09
5.9667773e-07
5.1880334e-09
5.9628221e-07
4.1563487e-09
5.9600231e-07
3.1230645e-09
5.958358e-07
2.0964959e-09
5.957811e-07
1.0850748e-09
5.9583723e-07
9.7707686e-11
5.960038e-07
-8.5583317e-10
5.9628089e-07
-1.7644783e-09
5.9666901e-07
-2.6153565e-09
5.9716886e-07
-3.3931671e-09
5.9778111e-07
-4.0793762e-09
5.9850603e-07
-4.6512194e-09
5.9934293e-07
-5.0802665e-09
6.0028923e-07
-5.330562e-09
6.0133958e-07
-5.3545125e-09
6.0248331e-07
-5.0802098e-09
6.0369645e-07
-4.3917741e-09
6.0482485e-07
-3.1615381e-09
6.0485229e-07
-1.5366497e-09
5.9864641e-07
-2.9557099e-10
5.6726837e-07
2.0918691e-11
4.6028735e-07
1.9932507e-07
7.1273062e-10
1.5384518e-07
2.2878528e-09
4.1978619e-07
4.3691039e-09
5.5756658e-07
6.726592e-09
6.0200176e-07
8.6709955e-09
6.1065242e-07
9.9652816e-09
6.1045449e-07
1.0732359e-08
6.0893118e-07
1.112108e-08
6.073884e-07
1.1223544e-08
6.0593145e-07
1.109836e-08
6.0456266e-07
1.0789773e-08
6.0329271e-07
1.0333481e-08
6.0213138e-07