/*--------------------------------*- C++ -*----------------------------------*\
  =========                 |
  \\      /  F ield         | OpenFOAM: The Open Source CFD Toolbox
   \\    /   O peration     | Website:  https://openfoam.org
    \\  /    A nd           | Version:  10
     \\/     M anipulation  |
\*---------------------------------------------------------------------------*/
FoamFile
{
    format      ascii;
    class       surfaceScalarField;
    location    "0.04";
    object      phi_0;
}
// * * * * * * * * * * * * * * * * * * * * * * * * * * * * * * * * * * * * * //

dimensions      [1 0 -1 0 0 0 0];

internalField   nonuniform List<scalar> 
7860
(
3.9748792e-08
5.2895993e-07
1.2088132e-08
5.9636789e-07
7.3270294e-09
5.7346888e-07
5.389392e-09
5.7064537e-07
4.0063575e-09
5.7009074e-07
3.0974392e-09
5.696166e-07
2.4615259e-09
5.6934358e-07
1.988674e-09
5.691805e-07
1.6262164e-09
5.690701e-07
1.3413457e-09
5.689925e-07
1.1121029e-09
5.6893686e-07
9.2362848e-10
5.6889609e-07
7.6552393e-10
5.6886571e-07
6.3027549e-10
5.6884285e-07
5.1230918e-10
5.6882557e-07
4.0737993e-10
5.6881253e-07
3.1216129e-10
5.6880282e-07
2.2396168e-10
5.687958e-07
1.4051988e-10
5.6879104e-07
5.9850509e-11
5.6878826e-07
-1.9880471e-11
5.6878732e-07
-1.0046516e-10
5.6878818e-07
-1.8376112e-10
5.6879089e-07
-2.7179902e-10
5.6879563e-07
-3.66918e-10
5.6880272e-07
-4.7193242e-10
5.6881261e-07
-5.9035811e-10
5.6882603e-07
-7.2673292e-10
5.6884398e-07
-8.8708864e-10
5.6886796e-07
-1.0796736e-09
5.689002e-07
-1.316146e-09
5.6894409e-07
-1.6135837e-09
5.6900506e-07
-1.9974175e-09
5.6909147e-07
-2.5081412e-09
5.6921837e-07
-3.2288051e-09
5.6942832e-07
-4.3178847e-09
5.6979676e-07
-5.874298e-09
5.7026412e-07
-9.3768775e-09
5.7221031e-07
-2.9400434e-08
5.8873134e-07
5.3930751e-07
5.9317611e-08
4.6964639e-07
3.6271732e-08
6.1941211e-07
2.2274309e-08
5.8746575e-07
1.5899125e-08
5.7702058e-07
1.1944513e-08
5.7404536e-07
9.2765848e-09
5.7228453e-07
7.3682384e-09
5.7125193e-07
5.9499866e-09
5.7059876e-07
4.8649785e-09
5.7015511e-07
4.0123524e-09
5.6984513e-07
3.3263079e-09
5.6962291e-07
2.7623948e-09
5.6946001e-07
2.2894203e-09
5.6933869e-07
1.884859e-09
5.6924742e-07
1.5320155e-09
5.6917842e-07
1.2181805e-09
5.6912637e-07
9.3340002e-10
5.690876e-07
6.6962399e-10
5.6905957e-07
4.2009308e-10
5.6904057e-07
1.7887446e-10
5.6902949e-07
-5.9511602e-11
5.6902571e-07
-3.0041799e-10
5.6902909e-07
-5.4938692e-10
5.6903986e-07
-8.1248757e-10
5.6905874e-07
-1.0967107e-09
5.6908694e-07
-1.4104712e-09
5.6912638e-07
-1.7642871e-09
5.6917985e-07
-2.1717419e-09
5.6925144e-07
-2.650908e-09
5.6934713e-07
-3.2265197e-09
5.6947581e-07
-3.9334593e-09
5.6965103e-07
-4.8228721e-09
5.6989448e-07
-5.972682e-09
5.7024128e-07
-7.5036959e-09
5.7074939e-07
-9.6218134e-09
5.7154645e-07
-1.2738341e-08
5.7291329e-07
-1.7674417e-08
5.752002e-07
-2.7692336e-08
5.8222824e-07
-4.5356739e-08
6.0639574e-07
4.9395078e-07
5.945218e-08
4.1020486e-07
4.9732817e-08
6.2913077e-07
3.2702426e-08
6.0449405e-07
2.4178934e-08
5.8554394e-07
1.8705999e-08
5.7951833e-07
1.4747282e-08
5.7624325e-07
1.1816006e-08
5.741832e-07
9.5999076e-09
5.7281486e-07
7.8836834e-09
5.7187134e-07
6.5230441e-09
5.7120577e-07
5.421211e-09
5.7072475e-07
4.5110164e-09
5.703702e-07
3.744515e-09
5.701052e-07
3.0866987e-09
5.6990524e-07
2.5113912e-09
5.6975373e-07
1.9985245e-09
5.6963924e-07
1.5322926e-09
5.6955384e-07
1.0998544e-09
5.6949202e-07
6.9038862e-10
5.6945004e-07
2.9437297e-10
5.694255e-07
-9.7000354e-11
5.6941709e-07
-4.9233663e-10
5.6942443e-07
-9.0053694e-10
5.6944807e-07
-1.3313282e-09
5.6948953e-07
-1.7958777e-09
5.695515e-07
-2.3075705e-09
5.6963807e-07
-2.8830475e-09
5.6975533e-07
-3.5436549e-09
5.6991205e-07
-4.317551e-09
5.7012103e-07
-5.2428533e-09
5.7040112e-07
-6.3724159e-09
5.707806e-07
-7.7816188e-09
5.7130369e-07
-9.5818256e-09
5.7204149e-07
-1.1938151e-08
5.7310572e-07
-1.5088534e-08
5.7469683e-07
-1.9402879e-08
5.7722764e-07
-2.5850783e-08
5.816481e-07
-3.8017348e-08
5.943948e-07
-4.742292e-08
6.1580132e-07
4.4652786e-07
5.4134132e-08
3.5609241e-07
5.6263033e-08
6.2700654e-07
3.9395034e-08
6.2135776e-07
2.9800015e-08
5.9513811e-07
2.3711874e-08
5.8560655e-07
1.9077966e-08
5.8087718e-07
1.5503696e-08
5.7775748e-07
1.2725688e-08
5.7559287e-07
1.052936e-08
5.7406767e-07
8.7616578e-09
5.7297348e-07
7.3139059e-09
5.721725e-07
6.1072142e-09
5.715769e-07
5.0836289e-09
5.7112879e-07
4.1999307e-09
5.7078894e-07
3.4232551e-09
5.7053041e-07
2.7280708e-09
5.7033443e-07
2.094052e-09
5.7018786e-07
1.5045422e-09
5.7008153e-07
9.4540849e-10
5.7000918e-07
4.0415339e-10
5.6996676e-07
-1.3081568e-10
5.6995206e-07
-6.7083217e-10
5.6996445e-07
-1.2275974e-09
5.7000484e-07
-1.8138445e-09
5.7007578e-07
-2.4441033e-09
5.7018176e-07
-3.1356488e-09
5.7032962e-07
-3.9097413e-09
5.7052942e-07
-4.7933082e-09
5.7079562e-07
-5.821297e-09
5.7114903e-07
-7.0400452e-09
5.7161987e-07
-8.5120113e-09
5.7225257e-07
-1.0322365e-08
5.7311404e-07
-1.2589683e-08
5.7430881e-07
-1.5479345e-08
5.7599538e-07
-1.9196353e-08
5.7841384e-07
-2.4014869e-08
5.8204616e-07
-3.1153399e-08
5.8878664e-07
-4.360533e-08
6.0684674e-07
-4.5477969e-08
6.1767396e-07
4.0104989e-07
4.7052755e-08
3.0907778e-07
5.8396388e-08
6.1567971e-07
4.3814944e-08
6.3593318e-07
3.3482391e-08
6.0546809e-07
2.7103526e-08
5.9198541e-07
2.2214173e-08
5.8576661e-07
1.8327701e-08
5.8164396e-07
1.5223078e-08
5.786975e-07
1.27128e-08
5.7657795e-07
1.0656173e-08
5.7503011e-07
8.9474067e-09
5.7388128e-07
7.5062444e-09
5.7301807e-07
6.2717799e-09
5.7236326e-07
5.1973327e-09
5.7186339e-07
4.246602e-09
5.7148114e-07
3.3908724e-09
5.7119016e-07
2.6069416e-09
5.7097179e-07
1.8755615e-09
5.7081291e-07
1.1802425e-09
5.707045e-07
5.0630014e-10
5.7064071e-07
-1.5994135e-10
5.7061831e-07
-8.3186306e-10
5.7063637e-07
-1.5232448e-09
5.7069622e-07
-2.248995e-09
5.7080154e-07
-3.0259784e-09
5.7095875e-07
-3.87402e-09
5.7117767e-07
-4.8171783e-09
5.7147259e-07
-5.8854072e-09
5.7186385e-07
-7.1167626e-09
5.7238039e-07
-8.5603985e-09
5.7306351e-07
-1.0280538e-08
5.7397271e-07
-1.2361155e-08
5.7519466e-07
-1.4912779e-08
5.7686044e-07
-1.8083436e-08
5.7916604e-07
-2.205246e-08
5.8238287e-07
-2.7121264e-08
5.8711496e-07
-3.478449e-08
5.9644987e-07
-4.6288383e-08
6.1835063e-07
-4.1773757e-08
6.1315934e-07
3.5927614e-07
3.9264555e-08
2.6987361e-07
5.6781658e-08
5.9820014e-07
4.6121621e-08
6.4658763e-07
3.569142e-08
6.1589277e-07
2.9208316e-08
5.9846808e-07
2.4312308e-08
5.9066276e-07
2.0340661e-08
5.8561563e-07
1.709339e-08
5.8194477e-07
1.4414279e-08
5.7925706e-07
1.2180335e-08
5.7726406e-07
1.0295375e-08
5.7576624e-07
8.6843272e-09
5.7462912e-07
7.2885848e-09
5.73759e-07
6.0619692e-09
5.7309001e-07
4.9676983e-09
5.7257542e-07
3.976074e-09
5.7218179e-07
3.0626749e-09
5.718852e-07
2.206941e-09
5.7166865e-07
1.3910499e-09
5.715204e-07
5.989936e-10
5.7143277e-07
-1.8421032e-10
5.7140152e-07
-9.7323417e-10
5.714254e-07
-1.7831402e-09
5.7150613e-07
-2.6301094e-09
5.7164851e-07
-3.5322533e-09
5.7186089e-07
-4.5105735e-09
5.7215599e-07
-5.5901393e-09
5.7255215e-07
-6.8015692e-09
5.7307529e-07
-8.1829049e-09
5.7376172e-07
-9.7820359e-09
5.7466265e-07
-1.1659935e-08
5.7585062e-07
-1.3894377e-08
5.7742911e-07
-1.6584374e-08
5.7955044e-07
-1.9858505e-08
5.8244018e-07
-2.3881582e-08
5.8640595e-07
-2.9041245e-08
5.9227463e-07
-3.68588e-08
6.0426743e-07
-4.6214686e-08
6.2770652e-07
-3.6787993e-08
6.0373264e-07
3.2248815e-07
3.1640891e-08
2.3832096e-07
5.2469124e-08
5.7744008e-07
4.6292717e-08
6.5276311e-07
3.6560171e-08
6.2561582e-07
3.0219939e-08
6.0480683e-07
2.5513371e-08
5.9536953e-07
2.1630339e-08
5.8949872e-07
1.8384317e-08
5.851908e-07
1.5654872e-08
5.8198651e-07
1.3339442e-08
5.7957949e-07
1.1354788e-08
5.777509e-07
9.6346198e-09
5.7634929e-07
8.1258857e-09
5.7526774e-07
6.785697e-09
5.744302e-07
5.5790863e-09
5.7378203e-07
4.4772147e-09
5.7328366e-07
3.4559114e-09
5.729065e-07
2.4944932e-09
5.7263007e-07
1.5747913e-09
5.724401e-07
6.8032849e-10
5.7232724e-07
-2.0440347e-10
5.7228625e-07
-1.094606e-09
5.7231561e-07
-2.0058277e-09
5.7241736e-07
-2.9546371e-09
5.7259732e-07
-3.9593586e-09
5.7286562e-07
-5.0409199e-09
5.7323756e-07
-6.2238594e-09
5.737351e-07
-7.5375572e-09
5.7438899e-07
-9.017743e-09
5.7524191e-07
-1.0708366e-08
5.7635327e-07
-1.266416e-08
5.7780641e-07
-1.4953848e-08
5.797188e-07
-1.7662678e-08
5.8225928e-07
-2.089526e-08
5.8567276e-07
-2.4798138e-08
5.9030883e-07
-2.9835898e-08
5.9731239e-07
-3.7280289e-08
6.1171182e-07
-4.3854729e-08
6.3428097e-07
-3.1201034e-08
5.9107895e-07
2.9128712e-07
2.4820686e-08
2.1362734e-07
4.6744119e-08
5.5562766e-07
4.471838e-08
6.5479909e-07
3.6276805e-08
6.3404356e-07
3.0306081e-08
6.1077414e-07
2.5936424e-08
5.9973935e-07
2.2282022e-08
5.9315324e-07
1.9155787e-08
5.8831704e-07
1.6473772e-08
5.8466853e-07
1.4157313e-08
5.8189595e-07
1.2139062e-08
5.7976915e-07
1.0363901e-08
5.7812445e-07
8.7864279e-09
5.7684522e-07
7.3689456e-09
5.7584769e-07
6.0799694e-09
5.7507101e-07
4.8929401e-09
5.744707e-07
3.7851397e-09
5.7401431e-07
2.7367815e-09
5.7367844e-07
1.7302317e-09
5.7344665e-07
7.4932853e-10
5.7330814e-07
-2.2123109e-10
5.7325682e-07
-1.1964622e-09
5.7329084e-07
-2.1916576e-09
5.7341256e-07
-3.2229659e-09
5.7362864e-07
-4.3080101e-09
5.7395067e-07
-5.4665828e-09
5.7439613e-07
-6.7214448e-09
5.7498996e-07
-8.0992712e-09
5.7576682e-07
-9.631783e-09
5.7677443e-07
-1.1357069e-08
5.7807856e-07
-1.332134e-08
5.7977069e-07
-1.5581339e-08
5.819788e-07
-1.8205076e-08
5.8488302e-07
-2.1269906e-08
5.887376e-07
-2.4906273e-08
5.939452e-07
-2.9625237e-08
6.0203136e-07
-3.6258812e-08
6.183454e-07
-4.0000924e-08
6.3802308e-07
-2.5628189e-08
5.7670622e-07
2.6565893e-07
1.9050451e-08
1.9477848e-07
4.0538159e-08
5.3431306e-07
4.1930668e-08
6.5343682e-07
3.5116491e-08
6.4083993e-07
2.9680677e-08
6.1620347e-07
2.5730188e-08
6.0368971e-07
2.2398449e-08
5.9648519e-07
1.9481387e-08
5.9123413e-07
1.6923817e-08
5.872261e-07
1.4671629e-08
5.8414814e-07
1.2674878e-08
5.8176591e-07
1.0890963e-08
5.7990837e-07
9.2834516e-09
5.7845273e-07
7.8211112e-09
5.7731003e-07
6.477103e-09
5.7641502e-07
5.2281906e-09
5.7571961e-07
4.054036e-09
5.7518847e-07
2.9365733e-09
5.747959e-07
1.8594429e-09
5.7452379e-07
8.0747632e-10
5.7436011e-07
-2.337818e-10
5.7429808e-07
-1.2785268e-09
5.7433559e-07
-2.3411456e-09
5.7447518e-07
-3.4366711e-09
5.7472416e-07
-4.5812609e-09
5.7509526e-07
-5.792714e-09
5.7560759e-07
-7.0910409e-09
5.7628829e-07
-8.4991041e-09
5.7717488e-07
-1.0043355e-08
5.7831868e-07
-1.1754616e-08
5.7978983e-07
-1.3668997e-08
5.8168507e-07
-1.5829294e-08
5.8413911e-07
-1.8284587e-08
5.8733831e-07
-2.1087522e-08
5.9154054e-07
-2.4360903e-08
5.9721859e-07
-2.8614782e-08
6.0628524e-07
-3.414012e-08
6.2387074e-07
-3.5313107e-08
6.3919607e-07
-2.0410937e-08
5.6180405e-07
2.45248e-07
1.4322717e-08
1.8079871e-07
3.4382386e-08
5.1452028e-07
3.8371703e-08
6.4950897e-07
3.3324735e-08
6.4586579e-07
2.8550333e-08
6.209669e-07
2.5057139e-08
6.071821e-07
2.2097524e-08
5.9944511e-07
1.9446827e-08
5.9388489e-07
1.7068015e-08
5.8960491e-07
1.4929132e-08
5.8628703e-07
1.2997103e-08
5.8369794e-07
1.1241902e-08
5.8166358e-07
9.6365662e-09
5.8005807e-07
8.1570001e-09
5.787896e-07
6.7817216e-09
5.777903e-07
5.4915174e-09
5.7700982e-07
4.2690959e-09
5.7641089e-07
3.0987349e-09
5.7596627e-07
1.9659305e-09
5.756566e-07
8.570574e-10
5.7546899e-07
-2.4096174e-10
5.753961e-07
-1.3409767e-09
5.7543561e-07
-2.4559313e-09
5.7559014e-07
-3.5991807e-09
5.7586742e-07
-4.7848135e-09
5.762809e-07
-6.0279819e-09
5.7685076e-07
-7.345236e-09
5.7760555e-07
-8.7548615e-09
5.7858451e-07
-1.0277231e-08
5.7984106e-07
-1.1935119e-08
5.8144772e-07
-1.3753942e-08
5.835039e-07
-1.576221e-08
5.8614738e-07
-1.7990555e-08
5.8956666e-07
-2.0471952e-08
5.9402194e-07
-2.3325139e-08
6.0007178e-07
-2.7000694e-08
6.099608e-07
-3.1238085e-08
6.2810813e-07
-3.0235678e-08
6.3819367e-07
-1.5691844e-08
5.4726022e-07
2.2955616e-07
1.0523599e-08
1.708182e-07
2.857463e-08
4.9687191e-07
3.4380554e-08
6.4380964e-07
3.108764e-08
6.4913526e-07
2.7071256e-08
6.2496623e-07
2.405461e-08
6.1019672e-07
2.1486959e-08
6.0201317e-07
1.9133573e-08
5.9623839e-07
1.6967276e-08
5.9177122e-07
1.4974912e-08
5.882794e-07
1.3138716e-08
5.8553414e-07
1.1440464e-08
5.8336183e-07
9.8624769e-09
5.8163606e-07
8.3879309e-09
5.8026415e-07
7.0009997e-09
5.7917724e-07
5.6868774e-09
5.7832395e-07
4.4317356e-09
5.7766604e-07
3.2226178e-09
5.7717539e-07
2.0472931e-09
5.7683193e-07
8.9408681e-10
5.766222e-07
-2.4829721e-10
5.7653849e-07
-1.3909614e-09
5.7657828e-07
-2.5449996e-09
5.7674418e-07
-3.7216707e-09
5.7704409e-07
-4.9325615e-09
5.7749179e-07
-6.1897297e-09
5.7810793e-07
-7.5058134e-09
5.7892164e-07
-8.8940895e-09
5.7997279e-07
-1.0368481e-08
5.8131545e-07
-1.1943488e-08
5.8302273e-07
-1.363394e-08
5.8519436e-07
-1.545461e-08
5.8796805e-07
-1.7418844e-08
5.915309e-07
-1.9543971e-08
5.9614707e-07
-2.1941259e-08
6.0246907e-07
-2.4950951e-08
6.129705e-07
-2.7831448e-08
6.3098864e-07
-2.5093965e-08
6.3545619e-07
-1.151523e-08
5.3368149e-07
2.1804093e-07
7.5112591e-09
1.6405017e-07
2.3290549e-08
4.8167399e-07
3.0232531e-08
6.3703671e-07
2.8562275e-08
6.5078228e-07
2.5359694e-08
6.2814457e-07
2.282768e-08
6.1272494e-07
2.0653591e-08
6.0418771e-07
1.8609384e-08
5.9828278e-07
1.6672685e-08
5.9370793e-07
1.4845917e-08
5.9010616e-07
1.3124969e-08
5.8725509e-07
1.1502447e-08
5.8498436e-07
9.9694248e-09
5.8316909e-07
8.5161264e-09
5.8171746e-07
7.1323623e-09
5.8056101e-07
5.8078439e-09
5.7964847e-07
4.5323908e-09
5.7894149e-07
3.2960378e-09
5.7841175e-07
2.089072e-09
5.780389e-07
9.0202555e-10
5.7780925e-07
-2.7435616e-10
5.7771487e-07
-1.4491657e-09
5.7775309e-07
-2.6313847e-09
5.779264e-07
-3.829915e-09
5.7824263e-07
-5.0535876e-09
5.7871547e-07
-6.3111267e-09
5.7936548e-07
-7.611052e-09
5.8022157e-07
-8.9614875e-09
5.8132323e-07
-1.0369869e-08
5.8272384e-07
-1.1842532e-08
5.844954e-07
-1.338408e-08
5.8673591e-07
-1.499629e-08
5.8958027e-07
-1.6676398e-08
5.9321101e-07
-1.8428524e-08
5.978992e-07
-2.0350535e-08
6.0439109e-07
-2.2642833e-08
6.152628e-07
-2.4201722e-08
6.3254753e-07
-2.0168956e-08
6.3142343e-07
-7.907435e-09
5.2141998e-07
2.101335e-07
5.1577742e-09
1.5977352e-07
1.8632957e-08
4.6899508e-07
2.6162926e-08
6.2975971e-07
2.590926e-08
6.5101926e-07
2.3528305e-08
6.3049472e-07
2.1476463e-08
6.1477085e-07
1.968358e-08
6.0598095e-07
1.7944476e-08
6.0002214e-07
1.6239566e-08
5.9541286e-07
1.4584024e-08
5.9176171e-07
1.2985918e-08
5.888532e-07
1.1447772e-08
5.8652251e-07
9.968772e-09
5.8464809e-07
8.545763e-09
5.8314047e-07
7.173951e-09
5.8193282e-07
5.8474522e-09
5.8097497e-07
4.5597093e-09
5.8022924e-07
3.3037823e-09
5.7966768e-07
2.0725489e-09
5.7927013e-07
8.5884238e-10
5.7902296e-07
-3.4444528e-10
5.7891817e-07
-1.5442891e-09
5.7895294e-07
-2.7474566e-09
5.7912957e-07
-3.9604059e-09
5.7945558e-07
-5.189151e-09
5.7994422e-07
-6.4390613e-09
5.8061539e-07
-7.7145742e-09
5.8149709e-07
-9.0187809e-09
5.8262744e-07
-1.0352862e-08
5.8405792e-07
-1.1715358e-08
5.858579e-07
-1.3101154e-08
5.8812171e-07
-1.4499885e-08
5.90979e-07
-1.5894041e-08
5.9460517e-07
-1.7275647e-08
5.9928081e-07
-1.8723723e-08
6.0583917e-07
-2.0292662e-08
6.1683175e-07
-2.0644826e-08
6.328997e-07
-1.5716253e-08
6.2649486e-07
-4.9177049e-09
5.1062143e-07
2.052158e-07
3.3666357e-09
1.5734279e-07
1.4659584e-08
4.5873843e-07
2.2384828e-08
6.2239575e-07
2.3317716e-08
6.5008703e-07
2.1725604e-08
6.3205239e-07
2.01361e-08
6.1635225e-07
1.8698988e-08
6.0741809e-07
1.7245209e-08
6.0147618e-07
1.5758985e-08
5.9689912e-07
1.4266152e-08
5.9325454e-07
1.2785734e-08
5.9033362e-07
1.1329316e-08
5.8797893e-07
9.9034613e-09
5.8607395e-07
8.5110719e-09
5.8453286e-07
7.1523256e-09
5.8329157e-07
5.825438e-09
5.8230186e-07
4.5272617e-09
5.8152742e-07
3.2537371e-09
5.809412e-07
2.0002355e-09
5.8052364e-07
7.6182492e-10
5.8026138e-07
-4.6651008e-10
5.801465e-07
-1.6896811e-09
5.8017611e-07
-2.9123088e-09
5.803522e-07
-4.1385059e-09
5.8068178e-07
-5.3716147e-09
5.8117733e-07
-6.6138615e-09
5.8185764e-07
-7.8659019e-09
5.8274913e-07
-9.1262079e-09
5.8388775e-07
-1.0390258e-08
5.8532198e-07
-1.1649517e-08
5.8711716e-07
-1.2890014e-08
5.8936221e-07
-1.4090394e-08
5.9217939e-07
-1.5220211e-08
5.9573499e-07
-1.6259421e-08
6.0032002e-07
-1.7262453e-08
6.068422e-07
-1.8146674e-08
6.1771597e-07
-1.7446562e-08
6.3219959e-07
-1.1942887e-08
6.2099119e-07
-2.6103615e-09
5.0128891e-07
2.0260545e-07
2.0653472e-09
1.5620374e-07
1.1395823e-08
4.5068864e-07
1.9091913e-08
6.151907e-07
2.1009383e-08
6.4819943e-07
2.0153235e-08
6.3287412e-07
1.8996249e-08
6.174991e-07
1.7876027e-08
6.0853771e-07
1.6672032e-08
6.0268036e-07
1.5375887e-08
5.9819531e-07
1.4022928e-08
5.9460751e-07
1.2642158e-08
5.9171439e-07
1.1253292e-08
5.893678e-07
9.8694028e-09
5.8745784e-07
8.4987115e-09
5.8590356e-07
7.1457643e-09
5.8464452e-07
5.8123935e-09
5.8363524e-07
4.4984804e-09
5.8284134e-07
3.2025442e-09
5.8223715e-07
1.9222054e-09
5.8180398e-07
6.5455818e-10
5.8152903e-07
-6.0351518e-10
5.8140458e-07
-1.8550625e-09
5.8142767e-07
-3.1027806e-09
5.8159993e-07
-4.3487076e-09
5.8192771e-07
-5.5938562e-09
5.8242248e-07
-6.8377515e-09
5.8310154e-07
-8.0778399e-09
5.8398922e-07
-9.3087138e-09
5.8511863e-07
-1.0521091e-08
5.8653436e-07
-1.1700545e-08
5.8829662e-07
-1.2825677e-08
5.9048735e-07
-1.386582e-08
5.9321953e-07
-1.4779966e-08
5.9664914e-07
-1.5535511e-08
6.0107557e-07
-1.6153204e-08
6.074599e-07
-1.6423549e-08
6.1798632e-07
-1.4823968e-08
6.3060001e-07
-8.9574299e-09
6.1512466e-07
-1.0219396e-09
4.9335343e-07
2.0158351e-07
1.1880633e-09
1.5589881e-07
8.835623e-09
4.4453409e-07
1.6432288e-08
6.0822222e-07
1.9196682e-08
6.4550036e-07
1.9028093e-08
6.3300929e-07
1.8265515e-08
6.1824898e-07
1.7410711e-08
6.0939099e-07
1.6407418e-08
6.0368373e-07
1.5260022e-08
5.9934276e-07
1.4012828e-08
5.9585472e-07
1.270379e-08
5.9302344e-07
1.1359605e-08
5.9071199e-07
9.9987894e-09
5.8881866e-07
8.6339515e-09
5.872684e-07
7.2732291e-09
5.8600525e-07
5.9214403e-09
5.8498703e-07
4.5809846e-09
5.841818e-07
3.2525449e-09
5.8356559e-07
1.9356438e-09
5.8312089e-07
6.2909698e-10
5.8283558e-07
-6.6860397e-10
5.8270229e-07
-1.9589402e-09
5.8271801e-07
-3.2430132e-09
5.82884e-07
-4.5211754e-09
5.8320588e-07
-5.7925909e-09
5.836939e-07
-7.0546945e-09
5.8436365e-07
-8.3025057e-09
5.8523704e-07
-9.5277421e-09
5.8634387e-07
-1.0717641e-08
5.8772426e-07
-1.1853491e-08
5.8943247e-07
-1.290847e-08
5.9154233e-07
-1.38449e-08
5.9415597e-07
-1.4614026e-08
5.9741827e-07
-1.5170158e-08
6.0163171e-07
-1.5486132e-08
6.0777588e-07
-1.5225944e-08
6.1772614e-07
-1.285652e-08
6.282306e-07
-6.7408473e-09
6.0900899e-07
-9.3315101e-11
4.867059e-07
2.014902e-07
6.6498169e-10
1.5606407e-07
6.9376614e-09
4.3989126e-07
1.4456501e-08
6.0145146e-07
1.7994389e-08
6.4205816e-07
1.8484494e-08
6.3248215e-07
1.8077188e-08
6.1863901e-07
1.74302e-08
6.1003525e-07
1.657244e-08
6.0454149e-07
1.5527685e-08
6.003876e-07
1.434877e-08
5.9703365e-07
1.3081151e-08
5.9429106e-07
1.1757066e-08
5.9203608e-07
1.0399212e-08
5.9017652e-07
9.0235137e-09
5.886441e-07
7.6408179e-09
5.8738795e-07
6.2582218e-09
5.8636963e-07
4.880078e-09
5.8555994e-07
3.5087765e-09
5.8493689e-07
2.1453632e-09
5.844843e-07
7.9004319e-10
5.841909e-07
-5.5739179e-10
5.8404973e-07
-1.8971727e-09
5.8405779e-07
-3.2291563e-09
5.8421599e-07
-4.5524219e-09
5.8452915e-07
-5.8647945e-09
5.8500628e-07
-7.1622674e-09
5.8566113e-07
-8.4382676e-09
5.8651304e-07
-9.6827182e-09
5.8758833e-07
-1.0880768e-08
5.8892232e-07
-1.2011174e-08
5.9056288e-07
-1.3043953e-08
5.9257511e-07
-1.3937105e-08
5.9504912e-07
-1.4636821e-08
5.98118e-07
-1.5083637e-08
6.0207853e-07
-1.518613e-08
6.0787838e-07
-1.4474089e-08
6.170141e-07
-1.1447742e-08
6.2520425e-07
-5.1618191e-09
6.0272307e-07
3.850105e-10
4.8115908e-07
2.0187522e-07
4.2366493e-10
1.564218e-07
5.6202802e-09
4.3635903e-07
1.307597e-08
5.9482077e-07
1.7334442e-08
6.3790941e-07
1.8468273e-08
6.3129837e-07
1.8385985e-08
6.1869605e-07
1.7897167e-08
6.1051974e-07
1.7137358e-08
6.0530135e-07
1.615719e-08
6.0136793e-07
1.5017495e-08
5.9817338e-07
1.3769298e-08
5.9553926e-07
1.2448775e-08
5.933566e-07
1.1081529e-08
5.9154377e-07
9.6857371e-09
5.900399e-07
8.2741192e-09
5.8879957e-07
6.8553942e-09
5.8778836e-07
5.4353546e-09
5.8697999e-07
4.0176935e-09
5.8635456e-07
2.6046529e-09
5.8589735e-07
1.1975501e-09
5.8559801e-07
-2.0277524e-10
5.8545005e-07
-1.5955559e-09
5.8545058e-07
-2.9796831e-09
5.8560012e-07
-4.3532896e-09
5.8590276e-07
-5.71327e-09
5.8636626e-07
-7.0546996e-09
5.8700256e-07
-8.3700956e-09
5.8782844e-07
-9.6484767e-09
5.8886671e-07
-1.0874071e-08
5.9014792e-07
-1.2024586e-08
5.917134e-07
-1.3068813e-08
5.9361934e-07
-1.39629e-08
5.9594322e-07
-1.4649818e-08
5.9880492e-07
-1.5055203e-08
6.0248392e-07
-1.5012991e-08
6.0783617e-07
-1.3921197e-08
6.1592231e-07
-1.0372979e-08
6.2165604e-07
-4.0695155e-09
5.9641961e-07
4.6321088e-10
4.7662636e-07
2.0233844e-07
3.9647712e-10
1.5676954e-07
4.7612878e-09
4.3360012e-07
1.2075889e-08
5.8835225e-07
1.6954906e-08
6.331339e-07
1.8705109e-08
6.294765e-07
1.8932998e-08
6.1843185e-07
1.857717e-08
6.1086927e-07
1.7891063e-08
6.0598771e-07
1.6958995e-08
6.0230031e-07
1.5849383e-08
5.9928304e-07
1.461687e-08
5.9677178e-07
1.3300188e-08
5.9467329e-07
1.1926815e-08
5.9291715e-07
1.0516377e-08
5.9145034e-07
9.0828489e-09
5.902331e-07
7.6361069e-09
5.892351e-07
6.1830331e-09
5.8843307e-07
4.7283596e-09
5.8780924e-07
3.2753236e-09
5.8735039e-07
1.8261953e-09
5.8704714e-07
3.8272609e-10
5.8689353e-07
-1.0534446e-09
5.8688675e-07
-2.4803803e-09
5.8702706e-07
-3.8954331e-09
5.8731782e-07
-5.2947781e-09
5.8776561e-07
-6.6728487e-09
5.8838063e-07
-8.0216226e-09
5.8917722e-07
-9.329704e-09
5.901748e-07
-1.0581058e-08
5.9139927e-07
-1.1753197e-08
5.9288554e-07
-1.2814787e-08
5.9468094e-07
-1.3721673e-08
5.9685011e-07
-1.4414208e-08
5.9949746e-07
-1.4802067e-08
6.0287178e-07
-1.4647792e-08
6.076819e-07
-1.3247967e-08
6.1452249e-07
-9.361671e-09
6.1776975e-07
-3.2709773e-09
5.9032893e-07
3.5353689e-10
4.7300185e-07
2.0269198e-07
4.9261202e-10
1.5699806e-07
4.2094475e-09
4.3137825e-07
1.1192794e-08
5.8218834e-07
1.649471e-08
6.2791579e-07
1.8788929e-08
6.2708709e-07
1.9323223e-08
6.1784978e-07
1.910763e-08
6.1107651e-07
1.8503444e-08
6.0659238e-07
1.763177e-08
6.0317246e-07
1.6568469e-08
6.0034642e-07
1.5370444e-08
5.979698e-07
1.4078151e-08
5.9596558e-07
1.2720392e-08
5.9427491e-07
1.1317861e-08
5.9285288e-07
9.8855232e-09
5.9166545e-07
8.4342227e-09
5.9068641e-07
6.9718061e-09
5.8989549e-07
5.503966e-09
5.8927708e-07
4.0348905e-09
5.8881947e-07
2.567784e-09
5.8851425e-07
1.105309e-09
5.8835601e-07
-3.5001182e-10
5.8834207e-07
-1.7954013e-09
5.8847246e-07
-3.227421e-09
5.8874984e-07
-4.6415194e-09
5.8917971e-07
-6.0314954e-09
5.8977061e-07
-7.3888135e-09
5.9053454e-07
-8.7017086e-09
5.914877e-07
-9.9539622e-09
5.9265153e-07
-1.1123038e-08
5.9405462e-07
-1.2177633e-08
5.9573554e-07
-1.3073673e-08
5.9774615e-07
-1.3748694e-08
6.0017248e-07
-1.4097032e-08
6.0322012e-07
-1.3829535e-08
6.0741441e-07
-1.2202704e-08
6.1289567e-07
-8.2127643e-09
6.1377981e-07
-2.620259e-09
5.8473643e-07
1.9609302e-10
4.701855e-07
2.0288808e-07
6.2449892e-10
1.5708358e-07
3.8218328e-09
4.2955984e-07
1.0221346e-08
5.7655776e-07
1.565157e-08
6.2255015e-07
1.8353588e-08
6.2427454e-07
1.9185238e-08
6.1696256e-07
1.9140769e-08
6.1111101e-07
1.865431e-08
6.0707943e-07
1.7879748e-08
6.0394762e-07
1.6899966e-08
6.0132629e-07
1.5773527e-08
5.9909624e-07
1.4542326e-08
5.9719679e-07
1.3236408e-08
5.9558083e-07
1.187755e-08
5.9421174e-07
1.0481765e-08
5.9306123e-07
9.0609305e-09
5.9210725e-07
7.6239322e-09
5.9133249e-07
6.1775025e-09
5.9072351e-07
4.7268643e-09
5.9027011e-07
3.2762479e-09
5.8996487e-07
1.8293262e-09
5.8980293e-07
3.8961179e-10
5.8978179e-07
-1.0391584e-09
5.8990123e-07
-2.4526193e-09
5.901633e-07
-3.8453458e-09
5.9057244e-07
-5.2103258e-09
5.911356e-07
-6.5383009e-09
5.9186252e-07
-7.8168865e-09
5.9276629e-07
-9.0293767e-09
5.9386403e-07
-1.0152877e-08
5.9517813e-07
-1.1155744e-08
5.9673841e-07
-1.199369e-08
5.985841e-07
-1.2601547e-08
6.0078034e-07
-1.2862456e-08
6.0348104e-07
-1.2467725e-08
6.0701968e-07
-1.0711297e-08
6.1113924e-07
-6.8723504e-09
6.0994087e-07
-2.0418091e-09
5.7990589e-07
6.9432475e-11
4.6807426e-07
2.0295751e-07
7.3483534e-10
1.5705543e-07
3.4986899e-09
4.2808551e-07
9.088125e-09
5.7168821e-07
1.4310738e-08
6.1738621e-07
1.7229151e-08
6.2124572e-07
1.8324509e-08
6.158105e-07
1.8482923e-08
6.1094202e-07
1.815913e-08
6.0740377e-07
1.7527587e-08
6.0457979e-07
1.6676425e-08
6.0217756e-07
1.5665471e-08
6.001072e-07
1.4537938e-08
5.9832432e-07
1.3325186e-08
5.9679359e-07
1.2050259e-08
5.9548667e-07
1.0730408e-08
5.9438109e-07
9.3787241e-09
5.9345894e-07
8.0052926e-09
5.9270592e-07
6.6180304e-09
5.9211078e-07
5.2233296e-09
5.9166481e-07
3.826573e-09
5.9136163e-07
2.4325708e-09
5.9119694e-07
1.0459566e-09
5.9116841e-07
-3.2843242e-10
5.9127562e-07
-1.6851532e-09
5.9152003e-07
-3.0177263e-09
5.9190502e-07
-4.3181201e-09
5.92436e-07
-5.5761061e-09
5.9312051e-07
-6.77839e-09
5.9396857e-07
-7.90744e-09
5.9499308e-07
-8.9396856e-09
5.9621038e-07
-9.8428927e-09
5.9764162e-07
-1.0572484e-08
5.993137e-07
-1.1062052e-08
6.0126992e-07
-1.1191429e-08
6.0361042e-07
-1.0667445e-08
6.064957e-07
-8.8904635e-09
6.0936227e-07
-5.4258725e-09
6.0647629e-07
-1.5175913e-09
5.7599761e-07
-9.0544887e-12
4.6656573e-07
2.0294846e-07
7.9714019e-10
1.5696515e-07
3.1941799e-09
4.26924e-07
7.8517607e-09
5.6771736e-07
1.2571724e-08
6.127371e-07
1.5494931e-08
6.182283e-07
1.6786674e-08
6.1446792e-07
1.7156734e-08
6.1056199e-07
1.7026866e-08
6.0753398e-07
1.6574365e-08
6.0503286e-07
1.5888789e-08
6.0286323e-07
1.5030233e-08
6.0096576e-07
1.4042713e-08
5.9931184e-07
1.2958725e-08
5.9787758e-07
1.18026e-08
5.966428e-07
1.0592905e-08
5.9559079e-07
9.3440449e-09
5.947078e-07
8.0674042e-09
5.9398257e-07
6.7721764e-09
5.9340601e-07
5.4660061e-09
5.9297099e-07
4.1555071e-09
5.9267213e-07
2.8467008e-09
5.9250575e-07
1.5454153e-09
5.924697e-07
2.576644e-10
5.9256338e-07
-1.0099498e-09
5.9278765e-07
-2.2498052e-09
5.9314488e-07
-3.4527534e-09
5.9363895e-07
-4.6074904e-09
5.9427525e-07
-5.6997169e-09
5.9506081e-07
-6.7110103e-09
5.9600438e-07
-7.6171764e-09
5.9711655e-07
-8.3857358e-09
5.9841018e-07
-8.9726036e-09
5.9990057e-07
-9.3130945e-09
6.0161041e-07
-9.2934891e-09
6.0359082e-07
-8.6639307e-09
6.0586615e-07
-6.9714848e-09
6.0766982e-07
-4.0287259e-09
6.0353353e-07
-1.0589617e-09
5.7302785e-07
-3.679786e-11
4.6554357e-07
2.0291167e-07
8.1228413e-10
1.5686034e-07
2.9062781e-09
4.2603939e-07
6.6429177e-09
5.6465118e-07
1.0672682e-08
6.0880391e-07
1.3413507e-08
6.1542007e-07
1.4808334e-08
6.1303281e-07
1.5364208e-08
6.099977e-07
1.5430426e-08
6.0746787e-07
1.5169204e-08
6.0529451e-07
1.4666131e-08
6.0336639e-07
1.3979559e-08
6.0165233e-07
1.3153104e-08
6.001383e-07
1.2219714e-08
5.9881097e-07
1.1204624e-08
5.9765789e-07
1.0127502e-08
5.9666792e-07
9.0039428e-09
5.9583136e-07
7.8465505e-09
5.9513996e-07
6.6657412e-09
5.9458682e-07
5.4703713e-09
5.9416636e-07
4.2682495e-09
5.9387426e-07
3.0665737e-09
5.9370743e-07
1.872329e-09
5.9366395e-07
6.9266524e-10
5.9374304e-07
-4.6470806e-10
5.9394502e-07
-1.5910934e-09
5.9427127e-07
-2.6763158e-09
5.9472418e-07
-3.7081276e-09
5.9530707e-07
-4.67143e-09
5.9602411e-07
-5.5472424e-09
5.9688019e-07
-6.3112926e-09
5.978806e-07
-6.9318514e-09
5.9903075e-07
-7.3669644e-09
6.0033569e-07
-7.5573209e-09
6.0180077e-07
-7.4043675e-09
6.0343787e-07
-6.7161544e-09
6.0517794e-07
-5.1916575e-09
6.0614533e-07
-2.8244111e-09
6.0116629e-07
-6.8572677e-10
5.7088917e-07
-2.3370042e-11
4.6488122e-07
2.0288831e-07
7.9683922e-10
1.5677074e-07
2.6535732e-09
4.2538108e-07
5.5885198e-09
5.6238053e-07
8.8713019e-09
6.0564768e-07
1.1300886e-08
6.1295255e-07
1.2699413e-08
6.1160598e-07
1.3385893e-08
6.0930479e-07
1.3619663e-08
6.07234e-07
1.3534871e-08
6.0537959e-07
1.3207643e-08
6.0369368e-07
1.2691904e-08
6.0216808e-07
1.2029127e-08
6.0080108e-07
1.1251552e-08
5.9958855e-07
1.0384529e-08
5.9852492e-07
9.4482867e-09
5.9760416e-07
8.45922e-09
5.9682043e-07
7.430861e-09
5.9616833e-07
6.3746184e-09
5.9564307e-07
5.3003689e-09
5.9524061e-07
4.2169465e-09
5.9495769e-07
3.1325662e-09
5.9479181e-07
2.0552102e-09
5.9474131e-07
9.9299566e-10
5.9480526e-07
-4.5448679e-11
5.9498347e-07
-1.0505725e-09
5.952764e-07
-2.0114486e-09
5.9568506e-07
-2.9152357e-09
5.9621086e-07
-3.7465025e-09
5.9685538e-07
-4.4863579e-09
5.9762005e-07
-5.1113466e-09
5.985056e-07
-5.5918228e-09
5.9951123e-07
-5.8899137e-09
6.0063378e-07
-5.9548573e-09
6.0186572e-07
-5.708606e-09
6.0319162e-07
-5.0183401e-09
6.0448768e-07
-3.7125729e-09
6.0483957e-07
-1.8927933e-09
5.9934652e-07
-4.1141683e-10
5.694078e-07
4.6580447e-12
4.6446515e-07
2.0289297e-07
7.701691e-10
1.567067e-07
2.4528946e-09
4.2489124e-07
4.7605199e-09
5.6073376e-07
7.3495882e-09
6.0321091e-07
9.4091068e-09
6.1088073e-07
1.0727179e-08
6.1027029e-07
1.1476165e-08
6.0855132e-07
1.1828567e-08
6.068814e-07
1.188491e-08
6.0532341e-07
1.1707886e-08
6.0387075e-07
1.1344461e-08
6.025315e-07
1.0832154e-08
6.0131339e-07
1.0201148e-08
6.0021956e-07
9.4759063e-09
5.9925016e-07
8.6764608e-09
5.9840361e-07
7.8194295e-09
5.9767747e-07
6.9188174e-09
5.9706894e-07
5.9866551e-09
5.9657524e-07
5.0335244e-09
5.9619375e-07
4.0690057e-09
5.9592221e-07
3.10207e-09
5.9575875e-07
2.1414397e-09
5.9570194e-07
1.1959337e-09
5.9575077e-07
2.7481215e-10
5.959046e-07
-6.1185095e-10
5.9616306e-07
-1.4527653e-09
5.9652597e-07
-2.23497e-09
5.9699307e-07
-2.9432939e-09
5.9756371e-07
-3.5596934e-09
5.9823646e-07
-4.0624882e-09
5.9900839e-07
-4.4253454e-09
5.9987409e-07
-4.6160576e-09
6.008245e-07
-4.5942196e-09
6.0184389e-07
-4.3034615e-09
6.0290087e-07
-3.6617332e-09
6.0384595e-07
-2.5912533e-09
6.0376909e-07
-1.2385834e-09
5.9799385e-07
-2.3074154e-10
5.6839996e-07
2.7522298e-11
4.6420689e-07
2.029205e-07
7.459674e-10
1.566654e-07
2.307997e-09
4.2451722e-07
4.1648302e-09
5.595331e-07
6.1779944e-09
6.0136732e-07
7.8692321e-09
6.0919582e-07
9.0513507e-09
6.0907857e-07
9.799751e-09
6.0779999e-07
1.0216481e-08
6.0646444e-07
1.0369783e-08
6.0517018e-07
1.0307364e-08
6.0393319e-07
1.0067627e-08
6.0277125e-07
9.6827593e-09
6.0169826e-07
9.1797277e-09
6.007226e-07