/*--------------------------------*- C++ -*----------------------------------*\
  =========                 |
  \\      /  F ield         | OpenFOAM: The Open Source CFD Toolbox
   \\    /   O peration     | Website:  https://openfoam.org
    \\  /    A nd           | Version:  10
     \\/     M anipulation  |
\*---------------------------------------------------------------------------*/
FoamFile
{
    format      ascii;
    class       volVectorField;
    location    "0.04";
    object      U;
}
// * * * * * * * * * * * * * * * * * * * * * * * * * * * * * * * * * * * * * //

dimensions      [0 1 -1 0 0 0 0];

internalField   nonuniform List<vector> 
4000
(
(0 0.018577915 0.47776033)
(0 0.023402619 0.50884309)
(0 0.0080746597 0.50052799)
(0 0.0055274551 0.5003382)
(0 0.0041652908 0.50025725)
(0 0.0031674068 0.50016824)
(0 0.0024727942 0.50011875)
(0 0.0019765173 0.50008901)
(0 0.0016043525 0.50006857)
(0 0.0013162409 0.50005409)
(0 0.0010876329 0.50004365)
(0 0.00090207559 0.50003597)
(0 0.00074824607 0.50003023)
(0 0.00061813065 0.5000259)
(0 0.00050588519 0.50002262)
(0 0.00040712961 0.50002014)
(0 0.0003184892 0.5000183)
(0 0.00023728344 0.50001696)
(0 0.00016130723 0.50001605)
(0 8.8670701e-05 0.50001553)
(0 1.7675527e-05 0.50001535)
(0 -5.3293651e-05 0.50001552)
(0 -0.00012586223 0.50001604)
(0 -0.00020175945 0.50001695)
(0 -0.00028293139 0.5000183)
(0 -0.00037167404 0.50002019)
(0 -0.0004708091 0.50002275)
(0 -0.000583929 0.50002616)
(0 -0.00071575253 0.50003071)
(0 -0.00087266555 0.5000368)
(0 -0.0010635875 0.50004505)
(0 -0.001301362 0.50005646)
(0 -0.0016050291 0.50007249)
(0 -0.0020053342 0.50009567)
(0 -0.0025588437 0.50013372)
(0 -0.0033495803 0.50020203)
(0 -0.0044445406 0.50027363)
(0 -0.0064661509 0.50043744)
(0 -0.017528414 0.50673342)
(0 -0.01352008 0.47979298)
(0 0.037263609 0.44816806)
(0 0.050621881 0.53229277)
(0 0.021655733 0.50803686)
(0 0.015852695 0.50358275)
(0 0.012127335 0.50242016)
(0 0.0092363941 0.50161503)
(0 0.0072562051 0.5011464)
(0 0.0058229392 0.50085407)
(0 0.0047368169 0.50065514)
(0 0.0038925799 0.50051561)
(0 0.0032207274 0.50041538)
(0 0.0026739909 0.50034179)
(0 0.0022198089 0.50028692)
(0 0.001835001 0.50024558)
(0 0.0015025786 0.50021431)
(0 0.0012097676 0.5001907)
(0 0.00094669993 0.50017311)
(0 0.00070552017 0.5001604)
(0 0.00047975534 0.50015178)
(0 0.00026385004 0.50014677)
(0 5.2806643e-05 0.50014508)
(0 -0.00015812599 0.50014664)
(0 -0.00037372797 0.50015158)
(0 -0.00059908451 0.50016019)
(0 -0.00083991063 0.50017305)
(0 -0.0011029381 0.500191)
(0 -0.0013964233 0.50021531)
(0 -0.0017308515 0.50024782)
(0 -0.0021199533 0.5002912)
(0 -0.0025822229 0.50034944)
(0 -0.0031433396 0.50042859)
(0 -0.0038402058 0.5005383)
(0 -0.0047267925 0.50069397)
(0 -0.0058842466 0.50092154)
(0 -0.0074628426 0.5012828)
(0 -0.0097430768 0.50190604)
(0 -0.012730926 0.50283763)
(0 -0.017028497 0.50608231)
(0 -0.038345609 0.5252251)
(0 -0.027686949 0.45048136)
(0 0.039623937 0.41036959)
(0 0.060838139 0.54934051)
(0 0.031381174 0.52183356)
(0 0.023839382 0.51008764)
(0 0.018674857 0.50657626)
(0 0.014480024 0.50450231)
(0 0.011539689 0.50323904)
(0 0.0093378074 0.50242157)
(0 0.0076378258 0.50186169)
(0 0.0063027676 0.50146803)
(0 0.0052315563 0.5011843)
(0 0.0043542021 0.50097552)
(0 0.0036217067 0.50081961)
(0 0.0029985617 0.50070205)
(0 0.002458432 0.50061301)
(0 0.001981342 0.50054576)
(0 0.001551749 0.50049562)
(0 0.0011572072 0.50045935)
(0 0.00078741298 0.50043475)
(0 0.00043349114 0.50042041)
(0 8.7437981e-05 0.50041555)
(0 -0.00025836034 0.50041996)
(0 -0.00061156252 0.50043397)
(0 -0.00098030236 0.50045847)
(0 -0.001373692 0.50049504)
(0 -0.0018024184 0.5005461)
(0 -0.0022795168 0.50061522)
(0 -0.0028214274 0.50070758)
(0 -0.0034494972 0.50083076)
(0 -0.0041921502 0.50099592)
(0 -0.0050881657 0.50121994)
(0 -0.006192286 0.50152947)
(0 -0.0075830823 0.50196743)
(0 -0.0093668712 0.50260337)
(0 -0.011718121 0.50357781)
(0 -0.015031429 0.50518144)
(0 -0.019190955 0.5078688)
(0 -0.024429212 0.5163767)
(0 -0.046671748 0.53915278)
(0 -0.03050889 0.41560928)
(0 0.034450094 0.36283118)
(0 0.062962009 0.5548086)
(0 0.038403618 0.537348)
(0 0.029276631 0.51846395)
(0 0.023325899 0.51194217)
(0 0.018532995 0.50844026)
(0 0.015039839 0.50619197)
(0 0.012310872 0.50467519)
(0 0.010155956 0.50361993)
(0 0.0084363991 0.50286978)
(0 0.0070381905 0.50232435)
(0 0.0058811897 0.50192057)
(0 0.0049073379 0.50161773)
(0 0.0040733236 0.5013886)
(0 0.0033464206 0.50121461)
(0 0.0027014344 0.50108291)
(0 0.0021185175 0.50098455)
(0 0.001581618 0.50091329)
(0 0.0010773396 0.50086488)
(0 0.00059407241 0.5008366)
(0 0.00012130338 0.50082694)
(0 -0.00035098498 0.50083548)
(0 -0.00083286553 0.50086285)
(0 -0.0013350016 0.50091079)
(0 -0.0018692753 0.50098232)
(0 -0.0024495216 0.50108212)
(0 -0.0030924573 0.50121702)
(0 -0.0038189198 0.50139693)
(0 -0.0046555805 0.50163616)
(0 -0.005637319 0.50195567)
(0 -0.0068104177 0.50238665)
(0 -0.0082379267 0.5029771)
(0 -0.01000878 0.50380326)
(0 -0.012232662 0.50498388)
(0 -0.015047173 0.50672104)
(0 -0.01886275 0.50941804)
(0 -0.02367336 0.51425781)
(0 -0.029884568 0.52812899)
(0 -0.049180599 0.54433176)
(0 -0.027959341 0.37384839)
(0 0.027023853 0.31667771)
(0 0.061130746 0.55090469)
(0 0.043178042 0.55125934)
(0 0.032807488 0.52736392)
(0 0.026363283 0.51763825)
(0 0.021421909 0.51280533)
(0 0.017680503 0.50959604)
(0 0.014651058 0.50734614)
(0 0.012209867 0.50574837)
(0 0.010225512 0.50459387)
(0 0.0085857867 0.50374385)
(0 0.0072114861 0.50310889)
(0 0.0060424937 0.50262939)
(0 0.0050324944 0.50226464)
(0 0.004145709 0.50198648)
(0 0.0033540444 0.50177522)
(0 0.0026350014 0.50161699)
(0 0.0019701365 0.50150208)
(0 0.001343888 0.50142385)
(0 0.00074265532 0.501378)
(0 0.00015405337 0.50136217)
(0 -0.0004337473 0.50137568)
(0 -0.0010326344 0.50141952)
(0 -0.0016551368 0.5014964)
(0 -0.0023151157 0.50161106)
(0 -0.0030285498 0.50177079)
(0 -0.0038145046 0.50198617)
(0 -0.0046963783 0.50227242)
(0 -0.0057035635 0.5026513)
(0 -0.0068736929 0.50315421)
(0 -0.0082552445 0.50382693)
(0 -0.0099112977 0.5047376)
(0 -0.011930031 0.50599146)
(0 -0.014418949 0.50774734)
(0 -0.017468552 0.51023749)
(0 -0.021448234 0.51393935)
(0 -0.026649639 0.52102724)
(0 -0.033882849 0.53908635)
(0 -0.048886761 0.54228666)
(0 -0.023479067 0.33304345)
(0 0.019395465 0.27792848)
(0 0.056487976 0.54108654)
(0 0.045388737 0.56230126)
(0 0.034843518 0.53630194)
(0 0.028165993 0.52332729)
(0 0.023314653 0.51720247)
(0 0.019524419 0.51313444)
(0 0.016372687 0.51020339)
(0 0.013788822 0.50807924)
(0 0.011648895 0.50651777)
(0 0.0098510441 0.50535246)
(0 0.0083232322 0.50447284)
(0 0.0070079948 0.50380298)
(0 0.0058598867 0.50328997)
(0 0.004843007 0.50289663)
(0 0.0039285332 0.50259656)
(0 0.003092943 0.502371)
(0 0.0023166475 0.50220669)
(0 0.0015828997 0.50209449)
(0 0.00087691327 0.50202848)
(0 0.00018513209 0.50200537)
(0 -0.00050542927 0.50202423)
(0 -0.0012078093 0.50208638)
(0 -0.001935677 0.50219558)
(0 -0.0027040251 0.50235832)
(0 -0.003529931 0.50258455)
(0 -0.0044334727 0.50288864)
(0 -0.0054388626 0.50329101)
(0 -0.0065758894 0.50382051)
(0 -0.0078818957 0.50451811)
(0 -0.0094039131 0.50544239)
(0 -0.011200417 0.50667794)
(0 -0.013352251 0.50835124)
(0 -0.015964933 0.51064993)
(0 -0.019096327 0.51382652)
(0 -0.023047704 0.51848943)
(0 -0.028401934 0.52790433)
(0 -0.036087679 0.54834956)
(0 -0.046418802 0.53549113)
(0 -0.018338162 0.29772529)
(0 0.012610915 0.24634432)
(0 0.049972633 0.52752325)
(0 0.045122831 0.57000751)
(0 0.035562713 0.54494838)
(0 0.02894605 0.52894077)
(0 0.024338808 0.52147072)
(0 0.020659289 0.51663755)
(0 0.017529488 0.51310216)
(0 0.014918407 0.51049462)
(0 0.012714995 0.50854867)
(0 0.010833288 0.50707841)
(0 0.0092111872 0.50595704)
(0 0.0077967159 0.50509556)
(0 0.0065480169 0.50443098)
(0 0.0054312685 0.50391832)
(0 0.0044186786 0.50352528)
(0 0.0034871145 0.50322858)
(0 0.0026169765 0.50301167)
(0 0.0017912615 0.50286304)
(0 0.00099478508 0.50277519)
(0 0.00021351959 0.50274394)
(0 -0.00056601469 0.50276807)
(0 -0.0013573386 0.50284926)
(0 -0.0021745419 0.50299222)
(0 -0.003032929 0.50320513)
(0 -0.0039497005 0.5035004)
(0 -0.0049447551 0.50389588)
(0 -0.0060416526 0.50441667)
(0 -0.0072687644 0.50509781)
(0 -0.0086609039 0.50598833)
(0 -0.010261281 0.50715733)
(0 -0.012121528 0.50870261)
(0 -0.014310541 0.51076641)
(0 -0.016926725 0.51355672)
(0 -0.020006661 0.51735577)
(0 -0.023787404 0.5230104)
(0 -0.029043536 0.53470644)
(0 -0.036384098 0.55541823)
(0 -0.04226116 0.52547373)
(0 -0.013242844 0.26803112)
(0 0.0072727167 0.22055007)
(0 0.042669042 0.51167225)
(0 0.042987712 0.57428933)
(0 0.03517605 0.55280276)
(0 0.02887609 0.53434432)
(0 0.024613505 0.52550903)
(0 0.021174337 0.51999779)
(0 0.018183621 0.51594348)
(0 0.015638409 0.51290795)
(0 0.013448222 0.51061387)
(0 0.011546437 0.5088621)
(0 0.0098822946 0.50751325)
(0 0.0084112897 0.50646825)
(0 0.0070970165 0.50565624)
(0 0.0059092756 0.505026)
(0 0.0048226339 0.50454025)
(0 0.0038154811 0.50417193)
(0 0.0028691614 0.50390159)
(0 0.0019672319 0.50371563)
(0 0.0010948259 0.50360512)
(0 0.00023809536 0.50356508)
(0 -0.00061631167 0.50359402)
(0 -0.0014817711 0.5036939)
(0 -0.0023721276 0.50387029)
(0 -0.0033022586 0.50413283)
(0 -0.0042886385 0.50449608)
(0 -0.0053499913 0.50498087)
(0 -0.006508057 0.50561621)
(0 -0.0077884298 0.50644221)
(0 -0.0092217334 0.50751437)
(0 -0.010845472 0.50891012)
(0 -0.012702973 0.51073791)
(0 -0.014848053 0.51315193)
(0 -0.017364131 0.51637267)
(0 -0.020272775 0.52072526)
(0 -0.023775093 0.52738151)
(0 -0.02872725 0.54105306)
(0 -0.035089471 0.55999744)
(0 -0.037114927 0.51330936)
(0 -0.0087370526 0.24315655)
(0 0.0034780324 0.19993658)
(0 0.035399072 0.49489215)
(0 0.039667593 0.57547078)
(0 0.033935534 0.55942925)
(0 0.02815738 0.53934732)
(0 0.024293521 0.52921916)
(0 0.021177554 0.52312112)
(0 0.018409403 0.51864297)
(0 0.016000955 0.51524663)
(0 0.013885506 0.51265153)
(0 0.012016219 0.51065127)
(0 0.010354187 0.50909766)
(0 0.0088637019 0.50788457)
(0 0.0075149787 0.50693541)
(0 0.0062824619 0.50619423)
(0 0.0051440326 0.50561996)
(0 0.0040804568 0.5051825)
(0 0.0030747784 0.50486008)
(0 0.0021117887 0.50463735)
(0 0.0011775499 0.50450421)
(0 0.00025896354 0.50445495)
(0 -0.00065664473 0.50448786)
(0 -0.0015819507 0.50460511)
(0 -0.0025299738 0.50481295)
(0 -0.0035145355 0.50512221)
(0 -0.0045506846 0.50554919)
(0 -0.0056551788 0.50611703)
(0 -0.00684704 0.50685781)
(0 -0.0081480929 0.50781553)
(0 -0.0095836057 0.50905049)
(0 -0.011183917 0.51064614)
(0 -0.012983101 0.51271877)
(0 -0.01501913 0.51543047)
(0 -0.017355712 0.51900713)
(0 -0.020004362 0.52383035)
(0 -0.023157639 0.53143095)
(0 -0.027646583 0.5465572)
(0 -0.032646278 0.56213343)
(0 -0.03158256 0.50008027)
(0 -0.00508664 0.2227919)
(0 0.00098303863 0.18405424)
(0 0.028627521 0.47835333)
(0 0.035686358 0.57414906)
(0 0.03206186 0.56462275)
(0 0.026978355 0.54380776)
(0 0.023543292 0.53253605)
(0 0.020788909 0.5259384)
(0 0.018292866 0.52113373)
(0 0.016069448 0.51745198)
(0 0.014074006 0.51461081)
(0 0.012277668 0.51240203)
(0 0.010653011 0.51067267)
(0 0.0091736014 0.50931245)
(0 0.0078167541 0.50824114)
(0 0.0065621251 0.50739964)
(0 0.0053915253 0.50674422)
(0 0.0042886886 0.50624263)
(0 0.0032389151 0.50587134)
(0 0.0022287516 0.50561371)
(0 0.0012456805 0.50545868)
(0 0.00027782084 0.50539999)
(0 -0.00068636537 0.5054357)
(0 -0.0016583919 0.50556814)
(0 -0.0026499769 0.50580405)
(0 -0.0036733807 0.50615511)
(0 -0.0047416855 0.50663886)
(0 -0.0058690961 0.50728011)
(0 -0.0070712779 0.50811305)
(0 -0.0083656378 0.50918426)
(0 -0.0097714533 0.51055715)
(0 -0.01131111 0.51231884)
(0 -0.0130091 0.51459019)
(0 -0.014888657 0.51753704)
(0 -0.016993105 0.52138703)
(0 -0.019327481 0.5265933)
(0 -0.022085627 0.53502294)
(0 -0.025977424 0.55098325)
(0 -0.029434736 0.56214375)
(0 -0.02605386 0.48677121)
(0 -0.0022897264 0.2067473)
(0 -0.00054302958 0.17222626)
(0 0.02258041 0.46285944)
(0 0.031411022 0.57096645)
(0 0.029735703 0.56836093)
(0 0.025483042 0.54764621)
(0 0.022499509 0.53543608)
(0 0.020117041 0.52841715)
(0 0.017917261 0.52337519)
(0 0.015907897 0.51948409)
(0 0.014062463 0.51645467)
(0 0.012367623 0.51408096)
(0 0.010806597 0.51220868)
(0 0.0093619657 0.51072593)
(0 0.0080180676 0.50955078)
(0 0.0067599539 0.50862244)
(0 0.0055736727 0.50789567)
(0 0.0044462746 0.50733688)
(0 0.0033656823 0.50692143)
(0 0.0023205677 0.50663177)
(0 0.0013001959 0.50645619)
(0 0.00029426143 0.50638802)
(0 -0.00070728284 0.50642515)
(0 -0.0017144311 0.50656994)
(0 -0.0027372375 0.50682942)
(0 -0.0037860279 0.5072158)
(0 -0.0048715341 0.50774733)
(0 -0.00600502 0.50844979)
(0 -0.0071984085 0.50935851)
(0 -0.008464351 0.5105214)
(0 -0.0098159505 0.51200332)
(0 -0.011267497 0.51389283)
(0 -0.012833963 0.51631231)
(0 -0.014525445 0.51942794)
(0 -0.016366483 0.52346953)
(0 -0.018357276 0.52897418)
(0 -0.020686971 0.53807272)
(0 -0.023875898 0.55423605)
(0 -0.025767147 0.5604395)
(0 -0.020773098 0.47409467)
(0 -0.00022244392 0.194621)
(0 -0.0013850176 0.16371964)
(0 0.017345403 0.44887213)
(0 0.027106689 0.56648961)
(0 0.027118374 0.57071681)
(0 0.023777946 0.55081567)
(0 0.02126259 0.53791569)
(0 0.019247106 0.53055166)
(0 0.017350716 0.52535005)
(0 0.015569726 0.52132088)
(0 0.013891478 0.51815984)
(0 0.012316032 0.51566527)
(0 0.010836328 0.51368437)
(0 0.0094433086 0.51210555)
(0 0.0081279645 0.51084677)
(0 0.0068806533 0.50984687)
(0 0.0056917188 0.50906013)
(0 0.0045516678 0.50845241)
(0 0.0034512379 0.50799852)
(0 0.0023814458 0.50768046)
(0 0.0013335728 0.50748613)
(0 0.00029912852 0.50740858)
(0 -0.00073020108 0.50744555)
(0 -0.0017626457 0.50759938)
(0 -0.0028063533 0.50787717)
(0 -0.0038694752 0.50829128)
(0 -0.0049601628 0.50886021)
(0 -0.0060865346 0.50960999)
(0 -0.0072566032 0.51057619)
(0 -0.0084781665 0.51180685)
(0 -0.00975824 0.5133668)
(0 -0.011103264 0.51534418)
(0 -0.012518915 0.51786033)
(0 -0.014003416 0.52107912)
(0 -0.015565196 0.52523541)
(0 -0.017199855 0.53095485)
(0 -0.019078615 0.54052573)
(0 -0.021505182 0.55631099)
(0 -0.021926251 0.55742139)
(0 -0.015912014 0.46247743)
(0 0.0012342987 0.18588786)
(0 -0.0017527382 0.15788855)
(0 0.012928285 0.43661869)
(0 0.022973593 0.56119182)
(0 0.024364566 0.57181976)
(0 0.021954246 0.55329296)
(0 0.019913028 0.53997695)
(0 0.018250026 0.53234905)
(0 0.016651443 0.52705584)
(0 0.015101017 0.52295363)
(0 0.01359595 0.51971445)
(0 0.01214798 0.51714178)
(0 0.010758859 0.51508625)
(0 0.0094271464 0.51343816)
(0 0.0081500013 0.51211663)
(0 0.0069228345 0.51106129)
(0 0.0057401606 0.51022678)
(0 0.0045959104 0.50957912)
(0 0.0034836715 0.50909314)
(0 0.0023968815 0.50875075)
(0 0.0013289383 0.50853972)
(0 0.00027328291 0.50845299)
(0 -0.00077654549 0.50848815)
(0 -0.0018268892 0.50864744)
(0 -0.0028838769 0.5089378)
(0 -0.0039533849 0.50937144)
(0 -0.005040909 0.50996662)
(0 -0.0061513877 0.51074898)
(0 -0.007288946 0.51175348)
(0 -0.0084566219 0.51302723)
(0 -0.0096555835 0.51463368)
(0 -0.010884865 0.51665899)
(0 -0.012141246 0.51922137)
(0 -0.013411898 0.52248021)
(0 -0.01469219 0.52667886)
(0 -0.015973025 0.53252744)
(0 -0.0173925 0.54235326)
(0 -0.019052757 0.55727321)
(0 -0.018185851 0.55345588)
(0 -0.011605315 0.45212834)
(0 0.0021520972 0.18001946)
(0 -0.0017907655 0.15416571)
(0 0.0092929014 0.42616964)
(0 0.019172017 0.55545791)
(0 0.021632807 0.57183951)
(0 0.020116502 0.55508705)
(0 0.018542028 0.54162851)
(0 0.017209409 0.53382384)
(0 0.015892068 0.52850048)
(0 0.014562685 0.52438435)
(0 0.013225632 0.52111687)
(0 0.011903078 0.51850651)
(0 0.010604696 0.5164089)
(0 0.0093359491 0.51471751)
(0 0.0080996381 0.51335378)
(0 0.0068958542 0.51225901)
(0 0.0057230169 0.51138901)
(0 0.0045783035 0.51071059)
(0 0.003458042 0.51019904)
(0 0.0023580289 0.50983654)
(0 0.0012737465 0.509611)
(0 0.00020055482 0.50951533)
(0 -0.00086616168 0.50954702)
(0 -0.0019308668 0.50970811)
(0 -0.0029976953 0.51000523)
(0 -0.0040702988 0.5104501)
(0 -0.0051516068 0.5110603)
(0 -0.0062435235 0.51186051)
(0 -0.0073465063 0.51288431)
(0 -0.0084591356 0.51417691)
(0 -0.0095771529 0.51579921)
(0 -0.010692794 0.51783391)
(0 -0.011794681 0.52039428)
(0 -0.012859539 0.52363357)
(0 -0.013872256 0.52780624)
(0 -0.014819845 0.53369719)
(0 -0.015790913 0.5435616)
(0 -0.016726744 0.55724417)
(0 -0.014803856 0.54886646)
(0 -0.0079590084 0.44310316)
(0 0.0025773996 0.17647982)
(0 -0.0016009781 0.15203478)
(0 0.0063866727 0.41748206)
(0 0.015835025 0.54957372)
(0 0.019095554 0.57095962)
(0 0.018408863 0.55623855)
(0 0.017281226 0.54288946)
(0 0.016249525 0.53499891)
(0 0.015186202 0.52970271)
(0 0.014056068 0.5256263)
(0 0.012870093 0.52237631)
(0 0.011660031 0.51976561)
(0 0.010442619 0.51765607)
(0 0.009229558 0.51594558)
(0 0.0080286941 0.5145589)
(0 0.0068443071 0.51343983)
(0 0.0056783256 0.51254605)
(0 0.0045308613 0.51184564)
(0 0.0034007417 0.51131483)
(0 0.00228593 0.51093636)
(0 0.001183838 0.51069847)
(0 9.1608192e-05 0.51059417)
(0 -0.00099366105 0.51062089)
(0 -0.0020746959 0.51078036)
(0 -0.0031538014 0.51107876)
(0 -0.0042326098 0.51152705)
(0 -0.0053117479 0.51214176)
(0 -0.0063904286 0.51294608)
(0 -0.0074658871 0.51397154)
(0 -0.008532809 0.51526064)
(0 -0.009582218 0.51687062)
(0 -0.010600404 0.51887934)
(0 -0.011569014 0.52139358)
(0 -0.012455275 0.52455922)
(0 -0.013234887 0.52864276)
(0 -0.013893077 0.53449064)
(0 -0.014451016 0.54419384)
(0 -0.014725101 0.55637214)
(0 -0.011982571 0.54390885)
(0 -0.0050327624 0.43535497)
(0 0.002569805 0.17469287)
(0 -0.0012660301 0.15103362)
(0 0.0041532433 0.41042721)
(0 0.013060317 0.54370722)
(0 0.016929402 0.5693383)
(0 0.017011562 0.55680254)
(0 0.016302696 0.54378902)
(0 0.015534932 0.53590748)
(0 0.014687457 0.53069345)
(0 0.013722678 0.52670508)
(0 0.012659725 0.5235137)
(0 0.01153904 0.52093595)
(0 0.010383596 0.51884125)
(0 0.0092106313 0.51713318)
(0 0.0080322976 0.51574074)
(0 0.0068564409 0.51461095)
(0 0.0056879735 0.51370392)
(0 0.0045295089 0.51298953)
(0 0.0033820191 0.51244525)
(0 0.0022453374 0.51205467)
(0 0.0011185496 0.51180652)
(0 3.4521874e-07 0.51169404)
(0 -0.0011106944 0.51171458)
(0 -0.0022158064 0.51186957)
(0 -0.0033157457 0.51216456)
(0 -0.0044104635 0.51260959)
(0 -0.0054987013 0.51321981)
(0 -0.0065775068 0.51401651)
(0 -0.0076415603 0.51502869)
(0 -0.0086824833 0.51629537)
(0 -0.0096876367 0.51786928)
(0 -0.01063855 0.51982222)
(0 -0.011511503 0.52225307)
(0 -0.012266155 0.52529963)
(0 -0.012868898 0.52923881)
(0 -0.013304731 0.53495975)
(0 -0.013509651 0.5443176)
(0 -0.013179276 0.5547947)
(0 -0.0098140371 0.53874588)
(0 -0.002823416 0.42880716)
(0 0.0022204435 0.17407496)
(0 -0.00086339739 0.1507671)
(0 0.0025388534 0.40480865)
(0 0.010885418 0.53790841)
(0 0.015269391 0.56707586)
(0 0.016084301 0.55682449)
(0 0.01576597 0.54436213)
(0 0.015220035 0.53659329)
(0 0.014541005 0.53151507)
(0 0.013698943 0.52765727)
(0 0.012723751 0.52455981)
(0 0.011663059 0.52204315)
(0 0.0105452 0.51998578)
(0 0.0093920671 0.51829821)
(0 0.0082192085 0.51691446)
(0 0.0070372913 0.51578547)
(0 0.0058535795 0.51487424)
(0 0.0046726701 0.5141528)
(0 0.0034972529 0.51360015)
(0 0.0023286724 0.51320094)
(0 0.001167378 0.51294456)
(0 1.3318851e-05 0.51282452)
(0 -0.0011337222 0.51283816)
(0 -0.0022737958 0.51298658)
(0 -0.0034064463 0.51327465)
(0 -0.004530351 0.51371131)
(0 -0.0056428676 0.51431018)
(0 -0.0067395089 0.5150904)
(0 -0.0078132038 0.51607802)
(0 -0.0088535086 0.51730814)
(0 -0.0098454197 0.51882836)
(0 -0.010767209 0.52070348)
(0 -0.01159157 0.52302325)
(0 -0.012273667 0.525917)
(0 -0.012769827 0.52966731)
(0 -0.013062226 0.53517629)
(0 -0.012988839 0.54400533)
(0 -0.01209632 0.5526155)
(0 -0.0082349814 0.53344422)
(0 -0.0013056275 0.42333565)
(0 0.0016427667 0.17414302)
(0 -0.00046630469 0.15091289)
(0 0.0014888487 0.40038049)
(0 0.0092657976 0.53215188)
(0 0.014141832 0.56421146)
(0 0.015673598 0.55632455)
(0 0.015726596 0.54464247)
(0 0.015362902 0.53710582)
(0 0.014803025 0.53221597)
(0 0.014040759 0.52852433)
(0 0.013119013 0.52554909)
(0 0.012090395 0.52311564)
(0 0.010987629 0.52111318)
(0 0.0098361495 0.51946025)
(0 0.0086538951 0.51809666)
(0 0.0074535599 0.5169777)
(0 0.0062440954 0.51606964)
(0 0.0050315514 0.51534692)
(0 0.0038199057 0.51479027)
(0 0.0026116586 0.51438553)
(0 0.0014083205 0.51412284)
(0 0.00021082544 0.51399609)
(0 -0.00098010994 0.51400264)
(0 -0.0021636323 0.51414326)
(0 -0.0033383943 0.5144221)
(0 -0.0045021807 0.51484702)
(0 -0.0056514383 0.51542998)
(0 -0.0067807416 0.51618785)
(0 -0.0078820386 0.51714364)
(0 -0.0089437835 0.51832828)
(0 -0.0099498701 0.51978385)
(0 -0.010876904 0.52156771)
(0 -0.011695552 0.52375948)
(0 -0.012359922 0.52647948)
(0 -0.012816029 0.53000781)
(0 -0.013034755 0.53521592)
(0 -0.012753581 0.54332003)
(0 -0.011346269 0.54991433)
(0 -0.0070840109 0.52803996)
(0 -0.00038332443 0.4187766)
(0 0.0010434459 0.17450074)
(0 -0.00013502049 0.15121911)
(0 0.00092800274 0.39688409)
(0 0.0080795858 0.52641653)
(0 0.013422058 0.56075954)
(0 0.015645053 0.55530218)
(0 0.01606318 0.54465391)
(0 0.01585616 0.53748879)
(0 0.015377635 0.53283938)
(0 0.014664421 0.52934191)
(0 0.013773539 0.5265096)
(0 0.012760267 0.52417539)
(0 0.011660732 0.52224064)
(0 0.01050273 0.52063279)
(0 0.0093056907 0.51929798)
(0 0.0080836363 0.51819619)
(0 0.0068466348 0.51729717)
(0 0.0056017489 0.51657788)
(0 0.0043538969 0.51602091)
(0 0.0031064577 0.51561336)
(0 0.0018617734 0.51534619)
(0 0.00062156468 0.51521372)
(0 -0.00061270715 0.51521337)
(0 -0.001839479 0.5153456)
(0 -0.0030567317 0.5156139)
(0 -0.0042616186 0.51602503)
(0 -0.0054500061 0.51658936)
(0 -0.0066159474 0.51732153)
(0 -0.0077509596 0.51824147)
(0 -0.0088430906 0.51937599)
(0 -0.0098760142 0.52076157)
(0 -0.010825971 0.52244795)
(0 -0.011662569 0.52450413)
(0 -0.012341334 0.52704003)
(0 -0.012798811 0.530322)
(0 -0.012983163 0.53513777)
(0 -0.012542467 0.54231535)
(0 -0.010693576 0.54678399)
(0 -0.0061509095 0.52262966)
(0 8.4129233e-05 0.41502929)
(0 0.0005491911 0.17487791)
(0 0.00010029774 0.15150903)
(0 0.00074648544 0.39409905)
(0 0.0071639764 0.52076008)
(0 0.012862402 0.55677171)
(0 0.015702239 0.55376193)
(0 0.016484574 0.54440551)
(0 0.016431239 0.5377655)
(0 0.016021384 0.53340924)
(0 0.015349927 0.53012753)
(0 0.014488083 0.52745252)
(0 0.013492295 0.52522879)
(0 0.012401279 0.5233709)
(0 0.011244264 0.5218158)
(0 0.010041611 0.52051637)
(0 0.0088082224 0.51943742)
(0 0.007554935 0.51855223)
(0 0.00628957 0.51784035)
(0 0.0050177948 0.51728624)
(0 0.0037437248 0.51687831)
(0 0.0024704259 0.51660836)
(0 0.0012003216 0.51647116)
(0 -6.4451089e-05 0.51646424)
(0 -0.0013216895 0.51658778)
(0 -0.0025687773 0.51684469)
(0 -0.0038023275 0.51724067)
(0 -0.0050177469 0.51778457)
(0 -0.0062087228 0.51848892)
(0 -0.0073665533 0.51937073)
(0 -0.0084791674 0.52045283)
(0 -0.0095303197 0.52176613)
(0 -0.010496564 0.52335285)
(0 -0.011346724 0.52527115)
(0 -0.012038336 0.52761817)
(0 -0.012500219 0.53063324)
(0 -0.012649572 0.53496989)
(0 -0.01207125 0.54104524)
(0 -0.0098926506 0.54336251)
(0 -0.0052532817 0.51739328)
(0 0.00024108861 0.41201507)
(0 0.00019823981 0.17514264)
(0 0.00024095181 0.15168888)
(0 0.0008097471 0.39186272)
(0 0.0063695191 0.51534049)
(0 0.012192409 0.55238854)
(0 0.015500334 0.55174766)
(0 0.016632443 0.54389599)
(0 0.016749994 0.53793051)
(0 0.01642582 0.5339206)
(0 0.015815612 0.53087301)
(0 0.015003914 0.52836619)
(0 0.01404805 0.52626184)
(0 0.012988829 0.52448834)
(0 0.011856464 0.52299253)
(0 0.010672123 0.52173425)
(0 0.0094514714 0.52068321)
(0 0.0082060463 0.51981624)
(0 0.0069443936 0.51911548)
(0 0.0056729158 0.51856722)
(0 0.0043964713 0.51816119)
(0 0.0031188691 0.51789004)
(0 0.0018432681 0.51774901)
(0 0.00057252542 0.51773576)
(0 -0.00069046613 0.51785024)
(0 -0.0019424371 0.51809479)
(0 -0.0031793915 0.51847416)
(0 -0.0043962045 0.51899579)
(0 -0.0055861112 0.51967017)
(0 -0.0067400872 0.52051157)
(0 -0.0078458494 0.52153897)
(0 -0.0088870209 0.52277789)
(0 -0.0098404702 0.52426303)
(0 -0.010674098 0.52604168)
(0 -0.01134643 0.52819509)
(0 -0.011780972 0.53092292)
(0 -0.011864293 0.53471021)
(0 -0.011156867 0.53957481)
(0 -0.0087983857 0.5398397)
(0 -0.0043046015 0.51256504)
(0 0.00022145165 0.40965282)
(0 -7.1607531e-06 0.17527474)
(0 0.00030235467 0.15174001)
(0 0.00098101015 0.39006447)
(0 0.0056086999 0.51037616)
(0 0.011237249 0.54784758)
(0 0.01479462 0.54936472)
(0 0.01622895 0.54312884)
(0 0.01653952 0.53795569)
(0 0.016337881 0.53434203)
(0 0.015827048 0.53154658)
(0 0.015102539 0.52921871)
(0 0.014222951 0.52724288)
(0 0.0132309 0.5255617)
(0 0.012157542 0.52413217)
(0 0.011025031 0.52292121)
(0 0.0098499331 0.52190352)
(0 0.008644628 0.52105945)
(0 0.007418518 0.5203737)
(0 0.0061788585 0.51983443)
(0 0.0049313613 0.51943265)
(0 0.0036806846 0.51916186)
(0 0.0024308296 0.51901779)
(0 0.0011854843 0.51899822)
(0 -5.164505e-05 0.51910295)
(0 -0.0012765086 0.51933375)
(0 -0.0024843479 0.51969447)
(0 -0.0036693267 0.5201912)
(0 -0.0048240163 0.52083253)
(0 -0.0059388006 0.52163001)
(0 -0.007000897 0.52259896)
(0 -0.0079933795 0.52375953)
(0 -0.008893059 0.52513889)
(0 -0.0096668361 0.52677341)
(0 -0.010272882 0.52872571)
(0 -0.010632557 0.53114676)
(0 -0.010611809 0.53434407)
(0 -0.0097898827 0.53798671)
(0 -0.0074194518 0.53643274)
(0 -0.0033244431 0.50837151)
(0 0.00013674413 0.40786334)
(0 -8.6968372e-05 0.17530538)
(0 0.0003081968 0.15169173)
(0 0.0011521157 0.38863521)
(0 0.0048681522 0.50607176)
(0 0.0099823724 0.54343913)
(0 0.013537856 0.54677547)
(0 0.015186619 0.54213004)
(0 0.015696788 0.53780974)
(0 0.015654003 0.53463097)
(0 0.015282647 0.5321056)
(0 0.014684616 0.5299688)
(0 0.013919726 0.52813215)
(0 0.01303194 0.52655273)
(0 0.012053366 0.52519778)
(0 0.01100733 0.52404145)
(0 0.0099114715 0.52306341)
(0 0.0087792055 0.5222476)
(0 0.0076209579 0.52158129)
(0 0.0064449829 0.5210545)
(0 0.0052579766 0.52065954)
(0 0.0040655653 0.52039077)
(0 0.0028727046 0.52024442)
(0 0.0016840241 0.52021842)
(0 0.00050416141 0.52031238)
(0 -0.00066192788 0.52052758)
(0 -0.001808586 0.52086699)
(0 -0.0029290975 0.52133535)
(0 -0.0040151829 0.52193938)
(0 -0.0050564012 0.52268802)
(0 -0.0060392353 0.52359291)
(0 -0.0069459507 0.52466898)
(0 -0.0077530163 0.52593582)
(0 -0.0084267417 0.52741893)
(0 -0.0089245845 0.529161)
(0 -0.0091696686 0.53126154)
(0 -0.0090234134 0.53386662)
(0 -0.0081204334 0.53637698)
(0 -0.0058925628 0.53334083)
(0 -0.0023959227 0.50496019)
(0 6.3085945e-05 0.40657312)
(0 -8.2616782e-05 0.1752795)
(0 0.00028520758 0.15159197)
(0 0.0012648895 0.38752571)
(0 0.0041844786 0.50254859)
(0 0.0085540305 0.5394322)
(0 0.011877282 0.54416811)
(0 0.013623832 0.54095663)
(0 0.014310938 0.53748009)
(0 0.014442892 0.53475461)
(0 0.014235946 0.53251388)
(0 0.01379171 0.53058035)
(0 0.013169812 0.52889426)
(0 0.012414563 0.52742706)
(0 0.011558684 0.52615609)
(0 0.010626545 0.52506261)
(0 0.0096368462 0.52413134)
(0 0.0086040903 0.52334981)
(0 0.0075397878 0.52270788)
(0 0.0064532559 0.52219745)
(0 0.0053522349 0.52181216)
(0 0.0042433735 0.52154727)
(0 0.0031326323 0.52139948)
(0 0.0020256296 0.52136692)
(0 0.00092797941 0.52144903)
(0 -0.00015440255 0.52164658)
(0 -0.0012149197 0.52196166)
(0 -0.0022459206 0.52239774)
(0 -0.0032382307 0.52295965)
(0 -0.0041805435 0.52365376)
(0 -0.0050586086 0.5244881)
(0 -0.0058540099 0.52547255)
(0 -0.0065430226 0.52661934)
(0 -0.0070923771 0.52794358)
(0 -0.0074599366 0.52946875)
(0 -0.0075747981 0.53124693)
(0 -0.0073100586 0.53329611)
(0 -0.0063778638 0.53484057)
(0 -0.0044059491 0.5307017)
(0 -0.0016042336 0.50235706)
(0 2.8543405e-05 0.40569752)
(0 -4.6965611e-05 0.17524166)
(0 0.00025517417 0.15148427)
(0 0.0013095994 0.38668667)
(0 0.0036057961 0.49981378)
(0 0.0071403684 0.53600891)
(0 0.010067508 0.5417144)
(0 0.011790749 0.53969033)
(0 0.012603368 0.53698501)
(0 0.012896244 0.53470546)
(0 0.012853817 0.5327555)
(0 0.012570057 0.53103409)
(0 0.012101694 0.52950831)
(0 0.011491765 0.52816307)
(0 0.010772729 0.52698521)
(0 0.00996943 0.52596285)
(0 0.0091012987 0.52508558)
(0 0.0081837264 0.52434449)
(0 0.007229174 0.52373206)
(0 0.0062479297 0.52324206)
(0 0.0052487073 0.52286949)
(0 0.0042391202 0.52261048)
(0 0.0032260796 0.52246229)
(0 0.002216139 0.5224232)
(0 0.0012158288 0.52249253)
(0 0.00023196333 0.52267056)
(0 -0.00072800565 0.52295855)
(0 -0.0016555942 0.52335865)
(0 -0.0025408729 0.52387392)
(0 -0.0033718717 0.52450821)
(0 -0.0041338964 0.52526617)
(0 -0.0048083662 0.52615294)
(0 -0.0053720003 0.52717407)
(0 -0.0057933456 0.52833528)
(0 -0.0060328205 0.52964365)
(0 -0.0060291776 0.53111295)
(0 -0.0056785257 0.53267256)
(0 -0.0047760788 0.53345423)
(0 -0.003120639 0.52857136)
(0 -0.0010011952 0.50047775)
(0 2.9430352e-05 0.40513343)
(0 -9.2763153e-06 0.17522256)
(0 0.00023079705 0.15139529)
(0 0.0013059571 0.38606268)
(0 0.0031612486 0.49777613)
(0 0.0059049203 0.53323618)
(0 0.0083586399 0.53953601)
(0 0.0099583656 0.5384199)
(0 0.010829255 0.53637056)
(0 0.011243797 0.53450462)
(0 0.011342114 0.5328394)
(0 0.011204478 0.5313321)
(0 0.010881568 0.52997197)
(0 0.010413221 0.52875553)
(0 0.0098303674 0.52767802)
(0 0.0091574118 0.52673373)
(0 0.0084138903 0.52591684)
(0 0.0076156372 0.52522181)
(0 0.0067757313 0.52464363)
(0 0.005905176 0.52417793)
(0 0.0050134504 0.52382103)
(0 0.0041089538 0.52356998)
(0 0.0031993856 0.52342257)
(0 0.002292078 0.52337728)
(0 0.0013943153 0.52343331)
(0 0.00051363665 0.52359049)
(0 -0.00034184546 0.52384927)
(0 -0.0011630608 0.52421061)
(0 -0.0019396166 0.52467589)
(0 -0.0026592709 0.52524667)
(0 -0.0033073833 0.5259245)
(0 -0.0038659478 0.52671041)
(0 -0.0043130428 0.5276043)
(0 -0.0046204167 0.52860425)
(0 -0.0047532816 0.5297049)
(0 -0.0046623929 0.53089318)
(0 -0.0042713299 0.53204602)
(0 -0.0034500451 0.53226562)
(0 -0.0021216189 0.52693141)
(0 -0.00059131324 0.49917634)
(0 4.8483015e-05 0.40478446)
(0 1.8873614e-05 0.17523008)
(0 0.00021638916 0.15133358)
(0 0.0012809927 0.38559747)
(0 0.0028497997 0.49629046)
(0 0.0049348531 0.53107879)
(0 0.0069169029 0.53769127)
(0 0.0083295349 0.53722175)
(0 0.0091930109 0.53569651)
(0 0.0096776197 0.5341936)