/*--------------------------------*- C++ -*----------------------------------*\
  =========                 |
  \\      /  F ield         | OpenFOAM: The Open Source CFD Toolbox
   \\    /   O peration     | Website:  https://openfoam.org
    \\  /    A nd           | Version:  10
     \\/     M anipulation  |
\*---------------------------------------------------------------------------*/
FoamFile
{
    format      ascii;
    class       volVectorField;
    location    "0.04";
    object      U_0;
}
// * * * * * * * * * * * * * * * * * * * * * * * * * * * * * * * * * * * * * //

dimensions      [0 1 -1 0 0 0 0];

internalField   nonuniform List<vector> 
4000
(
(0 0.018572912 0.47776269)
(0 0.023393862 0.50884154)
(0 0.0080675804 0.50052814)
(0 0.0055210897 0.50033829)
(0 0.0041590541 0.50025718)
(0 0.0031615752 0.50016814)
(0 0.0024675071 0.50011864)
(0 0.0019717903 0.5000889)
(0 0.0016001695 0.50006847)
(0 0.001312572 0.50005399)
(0 0.0010844395 0.50004356)
(0 0.00089931618 0.50003589)
(0 0.00074588044 0.50003016)
(0 0.00061612184 0.50002583)
(0 0.00050420091 0.50002256)
(0 0.00040574299 0.50002008)
(0 0.00031737914 0.50001824)
(0 0.00023643481 0.5000169)
(0 0.00016071105 0.500016)
(0 8.8324135e-05 0.50001547)
(0 1.7581863e-05 0.5000153)
(0 -5.3124684e-05 0.50001546)
(0 -0.00012541438 0.50001598)
(0 -0.00020100994 0.50001688)
(0 -0.00028185064 0.50001823)
(0 -0.00037022561 0.50002011)
(0 -0.00046894978 0.50002266)
(0 -0.00058160911 0.50002606)
(0 -0.0007129169 0.5000306)
(0 -0.00086925523 0.50003667)
(0 -0.0010595428 0.50004492)
(0 -0.0012966282 0.50005631)
(0 -0.0015995649 0.50007234)
(0 -0.0019991222 0.50009552)
(0 -0.0025519136 0.50013358)
(0 -0.0033421089 0.50020193)
(0 -0.0044368859 0.5002737)
(0 -0.006457932 0.50043764)
(0 -0.017518803 0.50673177)
(0 -0.013514781 0.47979575)
(0 0.03724913 0.44818455)
(0 0.050594155 0.53228915)
(0 0.021631132 0.50803559)
(0 0.015831732 0.50358282)
(0 0.012106942 0.5024193)
(0 0.0092176305 0.50161388)
(0 0.0072393555 0.50114521)
(0 0.0058079727 0.50085289)
(0 0.004723656 0.50065402)
(0 0.0038811027 0.50051456)
(0 0.0032107881 0.50041442)
(0 0.0026654401 0.50034093)
(0 0.002212505 0.50028613)
(0 0.001828816 0.50024488)
(0 0.0014974017 0.50021366)
(0 0.0012055072 0.50019011)
(0 0.00094328408 0.50017256)
(0 0.00070289741 0.50015987)
(0 0.00047789451 0.50015127)
(0 0.00026274037 0.50014625)
(0 5.2457788e-05 0.50014455)
(0 -0.00015768341 0.50014609)
(0 -0.00037244188 0.50015098)
(0 -0.00059688116 0.50015954)
(0 -0.00083669366 0.50017233)
(0 -0.0010985881 0.5001902)
(0 -0.0013907977 0.50021441)
(0 -0.0017237853 0.5002468)
(0 -0.0021112611 0.50029006)
(0 -0.0025717036 0.50034817)
(0 -0.0031307852 0.50042719)
(0 -0.003825417 0.50053679)
(0 -0.0047096071 0.50069239)
(0 -0.0058645752 0.50091995)
(0 -0.0074406937 0.5012813)
(0 -0.0097188232 0.50190493)
(0 -0.012705868 0.50283767)
(0 -0.017000482 0.50608149)
(0 -0.038314759 0.52522089)
(0 -0.027670957 0.45050118)
(0 0.039600692 0.41041562)
(0 0.060788138 0.54934071)
(0 0.031332763 0.52182704)
(0 0.023800571 0.51008601)
(0 0.018637845 0.5065733)
(0 0.014446488 0.50449863)
(0 0.011509903 0.50323526)
(0 0.0093115759 0.50241788)
(0 0.0076149394 0.50185821)
(0 0.0062829459 0.50146484)
(0 0.005214492 0.50118141)
(0 0.0043395956 0.50097292)
(0 0.003609281 0.50081728)
(0 0.0029880711 0.50069996)
(0 0.002449666 0.50061112)
(0 0.001974128 0.50054403)
(0 0.0015459521 0.50049401)
(0 0.0011527304 0.50045782)
(0 0.00078419699 0.50043326)
(0 0.0004315139 0.50041892)
(0 8.6714784e-05 0.50041403)
(0 -0.00025777618 0.50041836)
(0 -0.0006095788 0.50043224)
(0 -0.00097678704 0.50045657)
(0 -0.0013684714 0.50049293)
(0 -0.0017952762 0.50054373)
(0 -0.0022701923 0.50061254)
(0 -0.0028096159 0.50070456)
(0 -0.0034348522 0.50082735)
(0 -0.0041742891 0.5009921)
(0 -0.0050666817 0.50121571)
(0 -0.00616677 0.50152485)
(0 -0.0075531682 0.50196253)
(0 -0.0093323056 0.50259839)
(0 -0.011678753 0.50357308)
(0 -0.014987599 0.50517769)
(0 -0.019144865 0.50786717)
(0 -0.024374688 0.51637114)
(0 -0.046614959 0.53915173)
(0 -0.030481647 0.4156645)
(0 0.034418783 0.36292514)
(0 0.062885724 0.55482415)
(0 0.038323197 0.53733184)
(0 0.02921498 0.51845655)
(0 0.023269277 0.51193492)
(0 0.018482489 0.50843193)
(0 0.014995548 0.50618357)
(0 0.012272301 0.50466713)
(0 0.010122641 0.50361244)
(0 0.0084077954 0.50286297)
(0 0.0070137503 0.50231824)
(0 0.0058604031 0.50191512)
(0 0.0048897468 0.50161289)
(0 0.0040585288 0.50138429)
(0 0.0033340851 0.50121074)
(0 0.0026912838 0.5010794)
(0 0.0021103385 0.5009813)
(0 0.001575257 0.50091022)
(0 0.0010727016 0.50086191)
(0 0.00059111976 0.50083363)
(0 0.0001200557 0.50082389)
(0 -0.00035045009 0.50083226)
(0 -0.00083041097 0.50085937)
(0 -0.0013304288 0.50090695)
(0 -0.0018623215 0.50097803)
(0 -0.0024398562 0.50107727)
(0 -0.0030796791 0.50121152)
(0 -0.0038025542 0.50139066)
(0 -0.0046350795 0.50162905)
(0 -0.0056120651 0.50194765)
(0 -0.0067797348 0.50237768)
(0 -0.0082011009 0.50296722)
(0 -0.009965112 0.50379266)
(0 -0.012181576 0.50497291)
(0 -0.014988173 0.50671034)
(0 -0.018795889 0.50940898)
(0 -0.023600831 0.51425043)
(0 -0.0297941 0.52811332)
(0 -0.049091557 0.54434522)
(0 -0.027919906 0.3739615)
(0 0.026985637 0.31683773)
(0 0.061024767 0.55095272)
(0 0.043057215 0.5512301)
(0 0.032716425 0.52734381)
(0 0.026283544 0.51762309)
(0 0.021351978 0.51278943)
(0 0.017620046 0.50958037)
(0 0.014599109 0.50733142)
(0 0.012165532 0.50573491)
(0 0.010187845 0.50458179)
(0 0.0085538941 0.50373313)
(0 0.0071845726 0.50309943)
(0 0.0060198623 0.50262106)
(0 0.0050135493 0.50225729)
(0 0.004129954 0.50197994)
(0 0.0033410791 0.50176933)
(0 0.0026245159 0.50161159)
(0 0.0019619077 0.50149701)
(0 0.001337776 0.50141895)
(0 0.00073860149 0.50137312)
(0 0.00015207972 0.50135715)
(0 -0.0004335376 0.50137037)
(0 -0.0010300546 0.50141375)
(0 -0.0016499135 0.50149)
(0 -0.0023068835 0.50160386)
(0 -0.0030168457 0.50176259)
(0 -0.0037987608 0.50197679)
(0 -0.0046759156 0.50226167)
(0 -0.0056775848 0.502639)
(0 -0.0068412814 0.5031402)
(0 -0.0082153679 0.50381111)
(0 -0.0098628176 0.50471998)
(0 -0.011871746 0.50597224)
(0 -0.014349739 0.50772703)
(0 -0.017387321 0.51021715)
(0 -0.021354442 0.51392076)
(0 -0.026543747 0.52100677)
(0 -0.033745904 0.53905447)
(0 -0.048759048 0.54233163)
(0 -0.023426915 0.33323905)
(0 0.01935227 0.2781716)
(0 0.056350341 0.54118917)
(0 0.045219934 0.56225797)
(0 0.034715559 0.53625945)
(0 0.02805923 0.52329851)
(0 0.0232228 0.51717505)
(0 0.019446192 0.51310811)
(0 0.016306444 0.51017915)
(0 0.013733041 0.50805748)
(0 0.011602051 0.50649852)
(0 0.0098117842 0.50533559)
(0 0.0082903889 0.50445813)
(0 0.0069805674 0.50379017)
(0 0.0058370347 0.50327878)
(0 0.0048240395 0.50288678)
(0 0.0039128967 0.50258777)
(0 0.0030802115 0.50236301)
(0 0.0023065135 0.50219925)
(0 0.0015751688 0.50208734)
(0 0.00087149984 0.50202138)
(0 0.00018205777 0.50199806)
(0 -0.00050603506 0.50201645)
(0 -0.0012057059 0.50207789)
(0 -0.0019305076 0.50218608)
(0 -0.0026953089 0.50234755)
(0 -0.0035170533 0.50257218)
(0 -0.0044156725 0.50287437)
(0 -0.0054152189 0.5032745)
(0 -0.0065453054 0.50380145)
(0 -0.0078430845 0.50449618)
(0 -0.0093553899 0.50541736)
(0 -0.011140487 0.50664968)
(0 -0.013279013 0.50831988)
(0 -0.015876462 0.51061605)
(0 -0.018990611 0.51379158)
(0 -0.022923132 0.51845478)
(0 -0.028255095 0.52785982)
(0 -0.03589403 0.54829606)
(0 -0.046246926 0.53558987)
(0 -0.018273568 0.2980295)
(0 0.012563753 0.24668704)
(0 0.04980266 0.52770723)
(0 0.044899217 0.56995259)
(0 0.035390121 0.54487192)
(0 0.028808354 0.52889013)
(0 0.02422306 0.52142655)
(0 0.020562251 0.51659632)
(0 0.017448591 0.51306497)
(0 0.014851273 0.51046184)
(0 0.012659337 0.50852011)
(0 0.010787173 0.50705371)
(0 0.009172985 0.50593578)
(0 0.0077650539 0.50507726)
(0 0.0065217608 0.50441518)
(0 0.0054094959 0.50390458)
(0 0.0044006557 0.50351316)
(0 0.0034722786 0.50321769)
(0 0.0026049216 0.50300161)
(0 0.0017817282 0.50285344)
(0 0.0009876542 0.50276567)
(0 0.00020880916 0.50273413)
(0 -0.00056814919 0.50275759)
(0 -0.0013565996 0.50283773)
(0 -0.0021704824 0.50297922)
(0 -0.0030249414 0.50319023)
(0 -0.003937001 0.50348313)
(0 -0.0049263642 0.50387575)
(0 -0.0060163719 0.50439316)
(0 -0.007235148 0.50507037)
(0 -0.0086172257 0.50595642)
(0 -0.010205507 0.50712045)
(0 -0.012051275 0.50866038)
(0 -0.014223014 0.51071871)
(0 -0.01681891 0.51350404)
(0 -0.01987529 0.51729976)
(0 -0.023628959 0.52295028)
(0 -0.028848441 0.5346236)
(0 -0.0361244 0.55533955)
(0 -0.042040689 0.52565344)
(0 -0.013165612 0.26847147)
(0 0.0072198538 0.22100811)
(0 0.042465685 0.5119688)
(0 0.042702219 0.57422843)
(0 0.034951405 0.55267921)
(0 0.028704284 0.53426067)
(0 0.024473249 0.52544132)
(0 0.021058923 0.51993659)
(0 0.018089177 0.51588938)
(0 0.015561417 0.51286108)
(0 0.013385449 0.51057366)
(0 0.011495241 0.50882782)
(0 0.0098404853 0.50748412)
(0 0.0083770519 0.50644352)
(0 0.0070688703 0.50563518)
(0 0.0058860282 0.50500793)
(0 0.0048033431 0.50452454)
(0 0.0037994267 0.50415799)
(0 0.0028558239 0.50388886)
(0 0.0019562767 0.50370357)
(0 0.0010860931 0.50359321)
(0 0.00023159498 0.50355278)
(0 -0.0006204001 0.50358081)
(0 -0.0014830922 0.50367923)
(0 -0.0023701404 0.50385357)
(0 -0.0032962202 0.50411344)
(0 -0.0042775824 0.50447334)
(0 -0.005332698 0.50495405)
(0 -0.0064830188 0.50558452)
(0 -0.0077538061 0.5064048)
(0 -0.0091752944 0.50747035)
(0 -0.010784542 0.50885859)
(0 -0.012624357 0.51067807)
(0 -0.014747886 0.51308316)
(0 -0.017238033 0.51629509)
(0 -0.020115845 0.52064014)
(0 -0.023580752 0.52728337)
(0 -0.028477435 0.54091449)
(0 -0.0347549 0.55989169)
(0 -0.036841344 0.51360196)
(0 -0.0086444588 0.24376283)
(0 0.0034148246 0.20052826)
(0 0.035158648 0.49533623)
(0 0.039312217 0.57541114)
(0 0.033652326 0.55924342)
(0 0.027949418 0.53921604)
(0 0.024129702 0.52911911)
(0 0.021045998 0.523034)
(0 0.018304354 0.51856749)
(0 0.015917421 0.51518233)
(0 0.013819115 0.51259723)
(0 0.011963474 0.51060566)
(0 0.010312218 0.50905948)
(0 0.0088301735 0.50785263)
(0 0.007488005 0.50690864)
(0 0.0062605369 0.50617165)
(0 0.0051259746 0.50560066)
(0 0.004065367 0.50516567)
(0 0.0030620088 0.50484493)
(0 0.0021009185 0.50462316)
(0 0.0011683709 0.50449025)
(0 0.00025147224 0.50444051)
(0 -0.0006622482 0.50447221)
(0 -0.0015852549 0.50458751)
(0 -0.002530343 0.50479261)
(0 -0.0035110871 0.50509826)
(0 -0.0045422589 0.50552068)
(0 -0.0056402982 0.50608294)
(0 -0.0068238575 0.506817)
(0 -0.0081143273 0.50776674)
(0 -0.0095364575 0.50899233)
(0 -0.011119971 0.51057716)
(0 -0.012898217 0.51263748)
(0 -0.014908208 0.51533551)
(0 -0.017212732 0.51889787)
(0 -0.019822318 0.52370648)
(0 -0.022925756 0.53127901)
(0 -0.027336522 0.54634242)
(0 -0.032228154 0.56199867)
(0 -0.03124934 0.50052137)
(0 -0.0049705043 0.22359977)
(0 0.00090419557 0.18481101)
(0 0.028343368 0.4789828)
(0 0.03525335 0.57409727)
(0 0.031715008 0.56435668)
(0 0.026732314 0.54361043)
(0 0.02335672 0.53239257)
(0 0.020643493 0.52581838)
(0 0.018180208 0.52103184)
(0 0.015982761 0.51736662)
(0 0.014007585 0.51453987)
(0 0.012226972 0.51234339)
(0 0.01061437 0.51062437)
(0 0.0091440681 0.50927275)
(0 0.0077939761 0.50820849)
(0 0.0065442424 0.50737267)
(0 0.0053770909 0.50672169)
(0 0.004276609 0.50622341)
(0 0.0032284035 0.5058544)
(0 0.0022192952 0.50559807)
(0 0.0012370182 0.5054434)
(0 0.00026993186 0.50538412)
(0 -0.00069326397 0.50541831)
(0 -0.0016638359 0.50554824)
(0 -0.0026532379 0.50578058)
(0 -0.003673436 0.50612693)
(0 -0.0047371767 0.50660469)
(0 -0.0058582726 0.50723855)
(0 -0.0070519249 0.50806249)
(0 -0.0083349839 0.50912291)
(0 -0.0097260503 0.510483)
(0 -0.011246685 0.51222963)
(0 -0.012920387 0.51448349)
(0 -0.014769107 0.51741042)
(0 -0.016834764 0.52123862)
(0 -0.019120553 0.52641944)
(0 -0.021814399 0.53479847)
(0 -0.025603637 0.5506695)
(0 -0.028926791 0.56197621)
(0 -0.025653466 0.48739718)
(0 -0.0021383008 0.2078033)
(0 -0.00063889818 0.17319692)
(0 0.022246494 0.4637128)
(0 0.030897315 0.57092758)
(0 0.029322892 0.56799511)
(0 0.025195732 0.54736163)
(0 0.022288496 0.53523605)
(0 0.019957369 0.52825619)
(0 0.0177971 0.52324122)
(0 0.015818415 0.51937368)
(0 0.013996395 0.51636444)
(0 0.012319206 0.51400761)
(0 0.010771255 0.51214936)
(0 0.0093360713 0.51067815)
(0 0.0079987702 0.50951238)
(0 0.0067450275 0.50859153)
(0 0.0055614066 0.50787059)
(0 0.0044353883 0.50731613)
(0 0.0033552609 0.50690366)
(0 0.0023100154 0.50661573)
(0 0.0012892054 0.50644067)
(0 0.00028279726 0.50637182)
(0 -0.00071898846 0.50640706)
(0 -0.0017258672 0.50654871)
(0 -0.0027475925 0.50680369)
(0 -0.0037941502 0.50718407)
(0 -0.0048758766 0.50770795)
(0 -0.0060035639 0.50840087)
(0 -0.0071885626 0.50929787)
(0 -0.008442822 0.51044656)
(0 -0.0097785727 0.51191141)
(0 -0.011209021 0.51378057)
(0 -0.012747783 0.51617596)
(0 -0.01440324 0.51926353)
(0 -0.016198022 0.52327333)
(0 -0.018129043 0.52873723)
(0 -0.020378013 0.53775508)
(0 -0.023442439 0.55380117)
(0 -0.025173817 0.56023388)
(0 -0.020304074 0.47493534)
(0 -3.2410572e-05 0.19598182)
(0 -0.0014906982 0.16495709)
(0 0.016962641 0.44998344)
(0 0.026521481 0.56646871)
(0 0.026644847 0.57023449)
(0 0.023448176 0.55042304)
(0 0.021025569 0.53764511)
(0 0.019072116 0.53034095)
(0 0.01722181 0.52517803)
(0 0.015475779 0.52118144)
(0 0.01382342 0.51804783)
(0 0.012266768 0.51557589)
(0 0.01080034 0.51361354)
(0 0.0094163079 0.5120498)
(0 0.0081066427 0.51080315)
(0 0.0068624749 0.50981287)
(0 0.0056747683 0.50903357)
(0 0.0045345327 0.50843135)
(0 0.0034329217 0.50798125)
(0 0.0023613059 0.50766539)
(0 0.0013112786 0.50747176)
(0 0.00027463993 0.50739344)
(0 -0.00075664077 0.50742814)
(0 -0.0017904966 0.50757814)
(0 -0.0028347527 0.50785039)
(0 -0.003897188 0.50825708)
(0 -0.004985511 0.50881647)
(0 -0.006107297 0.50955424)
(0 -0.0072698808 0.51050555)
(0 -0.0084802061 0.51171796)
(0 -0.009744193 0.51325568)
(0 -0.011066893 0.51520616)
(0 -0.012452185 0.51768992)
(0 -0.013895935 0.52087017)
(0 -0.015404118 0.52498148)
(0 -0.01696714 0.53064007)
(0 -0.018747664 0.54009445)
(0 -0.02103454 0.55573761)
(0 -0.021275526 0.55717327)
(0 -0.015388376 0.46354586)
(0 0.0014451273 0.1876076)
(0 -0.0018514724 0.15942988)
(0 0.012508751 0.43801194)
(0 0.022346089 0.5611951)
(0 0.02385313 0.57121139)
(0 0.021595799 0.55277604)
(0 0.019661694 0.5396227)
(0 0.018070303 0.53207999)
(0 0.016522806 0.52684052)
(0 0.015009676 0.52278227)
(0 0.013530836 0.51957941)
(0 0.012100727 0.51703627)
(0 0.010723123 0.5150046)
(0 0.009398125 0.51337566)
(0 0.0081240902 0.51206937)
(0 0.0068973393 0.51102598)
(0 0.0057130944 0.51020063)
(0 0.0045658393 0.50955973)
(0 0.0034496029 0.50907838)
(0 0.0023581861 0.50873868)
(0 0.0012852969 0.50852855)
(0 0.00022465932 0.50844094)
(0 -0.00082991576 0.50847344)
(0 -0.0018844843 0.50862818)
(0 -0.0029448601 0.50891194)
(0 -0.0040165477 0.50933668)
(0 -0.0051045876 0.5099203)
(0 -0.0062133428 0.51068799)
(0 -0.0073461947 0.51167412)
(0 -0.0085052138 0.51292506)
(0 -0.00969028 0.51450334)
(0 -0.010898741 0.516494)
(0 -0.012125157 0.51901393)
(0 -0.013353505 0.52222113)
(0 -0.014576027 0.52635769)
(0 -0.015776632 0.53212061)
(0 -0.017082366 0.54179129)
(0 -0.018595375 0.55655071)
(0 -0.017536469 0.55316214)
(0 -0.011059372 0.45341536)
(0 0.0023457645 0.18212787)
(0 -0.0018611204 0.15601992)
(0 0.0088586286 0.42785605)
(0 0.018553204 0.55548722)
(0 0.021134465 0.57110107)
(0 0.019776515 0.55443601)
(0 0.018320597 0.54118015)
(0 0.017065586 0.53348998)
(0 0.015800539 0.52823952)
(0 0.014506608 0.52418126)
(0 0.013192041 0.52096056)
(0 0.011882683 0.51838762)
(0 0.010590663 0.51631974)
(0 0.0093232875 0.51465185)
(0 0.0080847364 0.51330658)
(0 0.0068761003 0.51222612)
(0 0.0056965456 0.51136699)
(0 0.0045438075 0.51069651)
(0 0.003414639 0.51019038)
(0 0.0023051699 0.50983104)
(0 0.001211154 0.50960656)
(0 0.00012819005 0.50950992)
(0 -0.000948115 0.50953859)
(0 -0.0020219899 0.50969449)
(0 -0.0030973074 0.50998404)
(0 -0.0041774002 0.51041863)
(0 -0.0052647926 0.51101538)
(0 -0.0063608555 0.51179836)
(0 -0.0074653272 0.51280033)
(0 -0.008575815 0.51406549)
(0 -0.00968671 0.51565339)
(0 -0.010788385 0.51764504)
(0 -0.011867007 0.5201517)
(0 -0.012895358 0.52332414)
(0 -0.013854274 0.52741377)
(0 -0.014722763 0.53318966)
(0 -0.01557211 0.54285854)
(0 -0.016355941 0.55636455)
(0 -0.014233153 0.54851808)
(0 -0.0074321858 0.44458051)
(0 0.0027108656 0.17896149)
(0 -0.0016253464 0.1541803)
(0 0.0059657547 0.41945936)
(0 0.015287527 0.54961228)
(0 0.01868849 0.57008129)
(0 0.018173761 0.55544634)
(0 0.017173554 0.54234069)
(0 0.016219253 0.53459885)
(0 0.015203157 0.52939925)
(0 0.014100429 0.52539699)
(0 0.012927734 0.52220542)
(0 0.011721439 0.51964048)
(0 0.010501056 0.51756663)
(0 0.0092803417 0.5158839)
(0 0.0080685837 0.5145187)
(0 0.0068710596 0.51341607)
(0 0.0056904076 0.51253462)
(0 0.0045272392 0.51184317)
(0 0.0033807387 0.51131842)
(0 0.0022491291 0.51094348)
(0 0.0011300169 0.5107068)
(0 2.0701911e-05 0.51060148)
(0 -0.0010815808 0.51062494)
(0 -0.0021794157 0.51077877)
(0 -0.0032749451 0.51106889)
(0 -0.0043695938 0.51150589)
(0 -0.0054637065 0.5121057)
(0 -0.0065561003 0.51289075)
(0 -0.0076434402 0.51389156)
(0 -0.0087195941 0.51514923)
(0 -0.0097743951 0.51671923)
(0 -0.010792343 0.51867702)
(0 -0.011752742 0.52112648)
(0 -0.012618665 0.52420964)
(0 -0.013360619 0.52818693)
(0 -0.013955596 0.53388557)
(0 -0.0143966 0.54334712)
(0 -0.014509313 0.55532136)
(0 -0.011554161 0.54347926)
(0 -0.0045588507 0.43699212)
(0 0.0026128655 0.17748123)
(0 -0.0012383998 0.15342278)
(0 0.0037778241 0.41267803)
(0 0.012636363 0.54370649)
(0 0.016694585 0.56828907)
(0 0.016980797 0.5558566)
(0 0.016407294 0.54313791)
(0 0.015709647 0.53544747)
(0 0.01489706 0.53035796)
(0 0.013945438 0.52646147)
(0 0.012881786 0.52334033)
(0 0.011751639 0.52081635)
(0 0.010580828 0.51876275)
(0 0.0093886628 0.51708611)
(0 0.0081886239 0.5157176)
(0 0.0069894358 0.51460589)
(0 0.0057965951 0.51371229)
(0 0.0046130947 0.51300755)
(0 0.0034401515 0.51246977)
(0 0.0022777524 0.51208298)
(0 0.0011250769 0.51183618)
(0 -1.9130314e-05 0.51172272)
(0 -0.0011562559 0.51173995)
(0 -0.0022875107 0.51188916)
(0 -0.0034136142 0.51217562)
(0 -0.0045344584 0.51260892)
(0 -0.0056486779 0.51320356)
(0 -0.0067531362 0.51397994)
(0 -0.0078422008 0.51496582)
(0 -0.0089069795 0.51619854)
(0 -0.0099340284 0.51772862)
(0 -0.010903465 0.51962476)
(0 -0.011789687 0.52198187)
(0 -0.012548833 0.52493241)
(0 -0.013141036 0.52874269)
(0 -0.013542584 0.53427485)
(0 -0.013648483 0.54333047)
(0 -0.013140358 0.5535479)
(0 -0.0095405797 0.53818692)
(0 -0.0024300738 0.43058827)
(0 0.0021633542 0.17708712)
(0 -0.00079262276 0.15333504)
(0 0.0022432902 0.40729979)
(0 0.01060238 0.53779483)
(0 0.015246041 0.56579869)
(0 0.016312712 0.55569986)
(0 0.016139103 0.54360951)
(0 0.015651985 0.53608685)
(0 0.014991091 0.53116415)
(0 0.014145438 0.52741569)
(0 0.013154681 0.52439919)
(0 0.012071274 0.52194304)
(0 0.010926224 0.51993103)
(0 0.0097432548 0.51827754)
(0 0.0085389755 0.51691938)
(0 0.0073247164 0.51580946)
(0 0.0061081405 0.51491226)
(0 0.0048940724 0.51420083)
(0 0.0036853211 0.51365492)
(0 0.002483277 0.51325966)
(0 0.0012883883 0.51300476)
(0 0.00010056796 0.51288389)
(0 -0.0010804605 0.51289441)
(0 -0.0022548221 0.51303726)
(0 -0.0034221402 0.51331703)
(0 -0.0045811706 0.5137422)
(0 -0.0057293363 0.51432569)
(0 -0.0068621845 0.51508567)
(0 -0.0079726157 0.51604682)
(0 -0.0090500298 0.51724237)
(0 -0.010079104 0.51871729)
(0 -0.011037283 0.52053276)
(0 -0.011895994 0.52277351)
(0 -0.01260818 0.52556189)
(0 -0.013123313 0.52916383)
(0 -0.013413077 0.53443899)
(0 -0.013264998 0.54288369)
(0 -0.012181236 0.55114558)
(0 -0.0080679078 0.53270737)
(0 -0.0010134731 0.42524326)
(0 0.0015210445 0.17728207)
(0 -0.00037347428 0.15358771)
(0 0.0013008129 0.40306876)
(0 0.0090951042 0.53186179)
(0 0.014287816 0.56264122)
(0 0.016114562 0.55498642)
(0 0.016324006 0.54378821)
(0 0.016010807 0.53656824)
(0 0.015455415 0.53186655)
(0 0.014677612 0.52829981)
(0 0.013731067 0.52541409)
(0 0.012672345 0.52304607)
(0 0.011536465 0.5210918)
(0 0.010350292 0.51947452)
(0 0.0091325058 0.51813735)
(0 0.0078962388 0.51703789)
(0 0.0066506673 0.51614406)
(0 0.0054019446 0.51543144)
(0 0.0041540773 0.51488158)
(0 0.002909545 0.51448089)
(0 0.0016698054 0.51421983)
(0 0.00043571369 0.51409248)
(0 -0.0007921137 0.51409624)
(0 -0.0020129421 0.51423174)
(0 -0.0032255587 0.51450288)
(0 -0.0044278983 0.51491703)
(0 -0.0056165729 0.51548548)
(0 -0.0067863291 0.5162241)
(0 -0.007929284 0.51715447)
(0 -0.0090340017 0.51830554)
(0 -0.010084434 0.51971653)
(0 -0.011056918 0.52144077)
(0 -0.011921333 0.52355202)
(0 -0.012630892 0.52616178)
(0 -0.013124888 0.52952635)
(0 -0.013361055 0.53445216)
(0 -0.013025826 0.54207256)
(0 -0.011433094 0.54821516)
(0 -0.006939523 0.52712308)
(0 -0.00018954913 0.42082063)
(0 0.0009105574 0.17768875)
(0 -4.4232425e-05 0.15393301)
(0 0.00085473182 0.39973392)
(0 0.0079591983 0.52594312)
(0 0.013612093 0.5588612)
(0 0.016139278 0.55372121)
(0 0.016724245 0.5436936)
(0 0.016569596 0.53692781)
(0 0.016094212 0.53249969)
(0 0.015366241 0.52914023)
(0 0.014453431 0.52640381)
(0 0.013414056 0.52413842)
(0 0.012286147 0.52225363)
(0 0.011098564 0.52068232)
(0 0.0098712741 0.51937433)
(0 0.0086186095 0.51829221)
(0 0.0073507884 0.51740746)
(0 0.0060749445 0.5166983)
(0 0.0047960188 0.51614816)
(0 0.0035173816 0.51574474)
(0 0.0022413457 0.51547936)
(0 0.00096958473 0.51534654)
(0 -0.00029650338 0.51534376)
(0 -0.0015554371 0.51547136)
(0 -0.0028052967 0.51573261)
(0 -0.0040433541 0.51613379)
(0 -0.0052656203 0.51668463)
(0 -0.0064663145 0.51739876)
(0 -0.0076371448 0.51829474)
(0 -0.0087663311 0.51939733)
(0 -0.0098377049 0.52074003)
(0 -0.01082754 0.52236828)
(0 -0.011704799 0.52434459)
(0 -0.012424803 0.52676806)
(0 -0.012918226 0.52987381)
(0 -0.013118624 0.53436072)
(0 -0.012634529 0.54095777)
(0 -0.010636747 0.54489413)
(0 -0.005944434 0.52160647)
(0 0.00019271711 0.41724548)
(0 0.00043673912 0.17806107)
(0 0.00017391263 0.15421258)
(0 0.00077099393 0.39709396)
(0 0.0070275281 0.52017928)
(0 0.012936246 0.55457867)
(0 0.016032439 0.55193655)
(0 0.016981522 0.54333119)
(0 0.016994343 0.53717381)
(0 0.016603546 0.53307114)
(0 0.015934698 0.52993903)
(0 0.015068654 0.52736527)
(0 0.014064229 0.5252134)
(0 0.012961813 0.52340726)
(0 0.011791536 0.52188975)
(0 0.010574304 0.52061779)
(0 0.0093253774 0.51955894)
(0 0.0080558177 0.51868834)
(0 0.006773609 0.51798684)
(0 0.00548454 0.51743977)
(0 0.0041928212 0.51703616)
(0 0.0029015949 0.5167682)
(0 0.0016133469 0.51663087)
(0 0.00033026449 0.51662176)
(0 -0.0009454133 0.51674099)
(0 -0.002211047 0.51699118)
(0 -0.0034632346 0.51737766)
(0 -0.0046973875 0.51790862)
(0 -0.0059072069 0.51859563)
(0 -0.0070840199 0.51945431)
(0 -0.0082157712 0.52050545)
(0 -0.0092861801 0.52177691)
(0 -0.010271787 0.5233064)
(0 -0.01114064 0.52514511)
(0 -0.01184997 0.52737735)
(0 -0.012324228 0.5302051)
(0 -0.012468076 0.53417613)
(0 -0.011849563 0.53960505)
(0 -0.0095907171 0.54137218)
(0 -0.0049410322 0.51640297)
(0 0.00028461477 0.41443727)
(0 0.00012274407 0.17830136)
(0 0.00029092754 0.15435953)
(0 0.00089643945 0.39500035)
(0 0.0061782348 0.51479622)
(0 0.012029297 0.55001592)
(0 0.015485919 0.54972067)
(0 0.01676374 0.54270312)
(0 0.016966287 0.53728632)
(0 0.016690399 0.53355888)
(0 0.016113192 0.53067233)
(0 0.01532655 0.52827286)
(0 0.014389853 0.52624453)
(0 0.013345479 0.52452573)
(0 0.012224585 0.52306969)
(0 0.011049071 0.52184054)
(0 0.0098351535 0.5208109)
(0 0.0085947924 0.51995954)
(0 0.0073368884 0.51926995)
(0 0.0060681448 0.51872935)
(0 0.0047936857 0.51832809)
(0 0.0035175598 0.51805924)
(0 0.0022431489 0.51791826)
(0 0.00097352149 0.51790287)
(0 -0.00028822449 0.51801297)
(0 -0.0015386238 0.51825065)
(0 -0.0027734738 0.51862026)
(0 -0.0039874441 0.5191286)
(0 -0.0051735503 0.5197852)
(0 -0.0063225305 0.52060291)
(0 -0.0074218401 0.52159868)
(0 -0.0084547321 0.52279486)
(0 -0.0093978036 0.52422149)
(0 -0.010218037 0.52591853)
(0 -0.010873262 0.52795284)
(0 -0.011284803 0.53048348)
(0 -0.011333053 0.53388648)
(0 -0.010589946 0.53809324)
(0 -0.0082405909 0.53787491)
(0 -0.0039014488 0.51177198)
(0 0.00022557215 0.41230094)
(0 -4.0871938e-05 0.17841254)
(0 0.0003298322 0.15437838)
(0 0.001089573 0.39334871)
(0 0.0053659827 0.51003309)
(0 0.01081038 0.5454689)
(0 0.014370638 0.54722314)
(0 0.015904118 0.54182604)
(0 0.01631129 0.53723294)
(0 0.0161885 0.53392266)
(0 0.015743924 0.53129976)
(0 0.015076692 0.52908697)
(0 0.014246955 0.5271932)
(0 0.013298684 0.52557155)
(0 0.01226403 0.52418564)
(0 0.011166075 0.52300694)
(0 0.010022148 0.52201314)
(0 0.0088452757 0.52118667)
(0 0.0076454267 0.52051364)
(0 0.0064303524 0.5199832)
(0 0.0052062125 0.51958701)
(0 0.0039780761 0.51931902)
(0 0.0027503318 0.51917519)
(0 0.001527041 0.51915339)
(0 0.00031228174 0.51925334)
(0 -0.00088952913 0.51947658)
(0 -0.002073245 0.51982654)
(0 -0.0032326216 0.52030864)
(0 -0.0043597942 0.52093047)
(0 -0.0054446652 0.52170218)
(0 -0.0064739477 0.52263693)
(0 -0.007430094 0.52375169)
(0 -0.008289437 0.52506882)
(0 -0.0090181182 0.52661723)
(0 -0.0095736213 0.52844457)
(0 -0.0098779416 0.53066207)
(0 -0.0097999998 0.53347999)
(0 -0.0089561043 0.53651537)
(0 -0.0066845439 0.53462306)
(0 -0.0028888463 0.50791212)
(0 0.00012676649 0.41073886)
(0 -8.6111708e-05 0.17843251)
(0 0.00032056331 0.15431127)
(0 0.0012530141 0.3920662)
(0 0.0046099563 0.50606029)
(0 0.0093624648 0.54123668)
(0 0.012773908 0.54463167)
(0 0.014455581 0.54074512)
(0 0.015056499 0.53699218)
(0 0.015110905 0.53412465)
(0 0.014830008 0.5317815)
(0 0.014314438 0.5297683)
(0 0.013624353 0.52802113)
(0 0.012804466 0.52650759)
(0 0.011887693 0.52520161)
(0 0.010898277 0.52408196)
(0 0.0098547002 0.52313145)
(0 0.0087711496 0.52233617)
(0 0.0076587496 0.52168489)
(0 0.0065263845 0.52116867)
(0 0.005381327 0.52078053)
(0 0.0042297379 0.52051532)
(0 0.0030770789 0.5203695)
(0 0.0019284683 0.52034112)
(0 0.00078902943 0.52042972)
(0 -0.00033579589 0.52063631)
(0 -0.0014398509 0.52096341)
(0 -0.0025158892 0.5214151)
(0 -0.0035550805 0.52199705)
(0 -0.0045463918 0.52271673)
(0 -0.0054757234 0.5235836)
(0 -0.0063247204 0.52460942)
(0 -0.0070694435 0.525809)
(0 -0.0076760371 0.52720063)
(0 -0.0081020574 0.52881279)
(0 -0.0082743434 0.53071023)
(0 -0.008066276 0.53296468)
(0 -0.0071659069 0.53496913)
(0 -0.0051069368 0.53178583)
(0 -0.0019957488 0.50490255)
(0 5.4449806e-05 0.40965543)
(0 -6.4988435e-05 0.17840848)
(0 0.00029169912 0.15420831)
(0 0.0013464201 0.3910915)
(0 0.0039560432 0.50292914)
(0 0.0078668848 0.53754606)
(0 0.010933397 0.54213124)
(0 0.012641332 0.53953421)
(0 0.013393826 0.53657105)
(0 0.013621277 0.53414837)
(0 0.013512074 0.53209443)
(0 0.013161459 0.5302915)
(0 0.012627437 0.528702)
(0 0.011953982 0.5273073)
(0 0.011174054 0.52609118)
(0 0.010312617 0.52503946)
(0 0.0093890588 0.52413998)
(0 0.0084185928 0.52338247)
(0 0.0074134143 0.52275837)
(0 0.0063834857 0.52226067)
(0 0.0053371532 0.52188377)
(0 0.0042816364 0.52162342)
(0 0.0032234404 0.52147663)
(0 0.0021687098 0.52144162)
(0 0.0011235768 0.52151776)
(0 9.4474895e-05 0.52170558)
(0 -0.00091148541 0.5220067)
(0 -0.0018861194 0.52242386)
(0 -0.0028197263 0.52296087)
(0 -0.0037004764 0.5236226)
(0 -0.0045136713 0.52441496)
(0 -0.0052405593 0.5253448)
(0 -0.0058574114 0.5264199)
(0 -0.0063317139 0.52764882)
(0 -0.0066228254 0.52904298)
(0 -0.0066662797 0.53062754)
(0 -0.0063532543 0.53237343)
(0 -0.0054540604 0.53354044)
(0 -0.0036901336 0.52945121)
(0 -0.0012889136 0.50269297)
(0 2.5683486e-05 0.40894399)
(0 -2.6406299e-05 0.17838087)
(0 0.00026288432 0.15410789)
(0 0.0013745492 0.39036269)
(0 0.0034399894 0.50057336)
(0 0.0065089192 0.5345077)
(0 0.0091204556 0.5398654)
(0 0.010744439 0.5382819)
(0 0.011584271 0.53600765)
(0 0.011952106 0.53400662)
(0 0.011997041 0.53224029)
(0 0.011802614 0.53065232)
(0 0.011421685 0.52922783)
(0 0.010895592 0.52796034)
(0 0.010256157 0.52684249)
(0 0.0095282266 0.5258666)
(0 0.0087315311 0.52502525)
(0 0.0078819184 0.52431169)
(0 0.0069923631 0.52371996)
(0 0.0060736828 0.52324497)
(0 0.0051351156 0.52288247)
(0 0.0041847847 0.52262916)
(0 0.0032300958 0.52248257)
(0 0.0022780822 0.52244114)
(0 0.001335741 0.52250409)
(0 0.00041034463 0.52267148)
(0 -0.00049021833 0.52294408)
(0 -0.0013570434 0.52332336)
(0 -0.0021798235 0.52381137)
(0 -0.0029462863 0.52441054)
(0 -0.0036415933 0.52512354)
(0 -0.0042473013 0.52595281)
(0 -0.0047407421 0.52690007)
(0 -0.0050922014 0.52796566)
(0 -0.0052650751 0.52914754)
(0 -0.0052063209 0.53044151)
(0 -0.0048321624 0.53175521)
(0 -0.003990639 0.53228944)
(0 -0.0025505605 0.52762479)
(0 -0.00078824921 0.50114447)
(0 2.9391183e-05 0.40849347)
(0 6.6189783e-06 0.1783734)
(0 0.0002431846 0.15402929)
(0 0.0013631885 0.38981805)
(0 0.0030685006 0.49885091)
(0 0.0054074164 0.53211708)
(0 0.0075402911 0.53791554)
(0 0.0090020363 0.53707152)
(0 0.009860156 0.53535991)
(0 0.010318337 0.53373651)
(0 0.010481364 0.53224338)
(0 0.010416978 0.53086667)
(0 0.010170174 0.5296086)
(0 0.009777817 0.52847246)
(0 0.0092692576 0.52745825)
(0 0.0086681932 0.52656386)
(0 0.007993946 0.52578615)
(0 0.0072624253 0.52512157)
(0 0.0064869394 0.5245666)
(0 0.0056788051 0.52411796)
(0 0.004847856 0.52377275)
(0 0.0040028617 0.52352854)
(0 0.0031518942 0.52338345)
(0 0.0023026513 0.52333609)
(0 0.0014627679 0.52338562)
(0 0.00064011294 0.52353163)
(0 -0.00015690721 0.52377415)
(0 -0.00091898795 0.52411349)
(0 -0.0016355828 0.5245501)
(0 -0.0022944449 0.52508428)
(0 -0.0028811645 0.5257159)
(0 -0.0033783803 0.52644375)
(0 -0.0037654066 0.52726476)
(0 -0.0040165001 0.52817302)
(0 -0.0041008975 0.52915729)
(0 -0.0039780654 0.53019476)
(0 -0.0035901083 0.53116013)
(0 -0.0028483448 0.53124489)
(0 -0.0017179629 0.52625151)
(0 -0.00046969977 0.5000886)
(0 4.6795126e-05 0.40821261)
(0 2.7515221e-05 0.1783892)
(0 0.00023380537 0.15397546)
(0 0.0013382153 0.38940299)
(0 0.0028207174 0.49759728)
(0 0.0045935236 0.53028931)
(0 0.0062883484 0.53630184)
(0 0.0075488825 0.53596491)
(0 0.0083674694 0.53468847)
(0 0.0088635099 0.53338661)