/*--------------------------------*- C++ -*----------------------------------*\
  =========                 |
  \\      /  F ield         | OpenFOAM: The Open Source CFD Toolbox
   \\    /   O peration     | Website:  https://openfoam.org
    \\  /    A nd           | Version:  10
     \\/     M anipulation  |
\*---------------------------------------------------------------------------*/
FoamFile
{
    format      ascii;
    class       surfaceScalarField;
    location    "0.13";
    object      phi;
}
// * * * * * * * * * * * * * * * * * * * * * * * * * * * * * * * * * * * * * //

dimensions      [1 0 -1 0 0 0 0];

internalField   nonuniform List<scalar> 
7860
(
3.9893443e-08
5.2881458e-07
1.2190765e-08
5.9641046e-07
7.4258787e-09
5.7347262e-07
5.4971129e-09
5.7063646e-07
4.1126093e-09
5.7009217e-07
3.198763e-09
5.6962149e-07
2.5568278e-09
5.6934956e-07
2.0771102e-09
5.6918733e-07
1.7072771e-09
5.6907743e-07
1.4147997e-09
5.6900006e-07
1.1778785e-09
5.689445e-07
9.8174689e-10
5.689037e-07
8.1605741e-10
5.6887326e-07
6.7331611e-10
5.688503e-07
5.4794609e-10
5.6883293e-07
4.3568297e-10
5.6881982e-07
3.3316931e-10
5.6881007e-07
2.3767401e-10
5.6880305e-07
1.468902e-10
5.6879833e-07
5.8782725e-11
5.6879566e-07
-2.8535173e-11
5.6879487e-07
-1.1690941e-10
5.6879592e-07
-2.0825097e-10
5.6879889e-07
-3.0464166e-10
5.6880394e-07
-4.0846665e-10
5.6881138e-07
-5.2257764e-10
5.6882167e-07
-6.5051339e-10
5.6883549e-07
-7.9681287e-10
5.6885386e-07
-9.6747577e-10
5.6887823e-07
-1.1706695e-09
5.6891077e-07
-1.4179018e-09
5.6895481e-07
-1.725992e-09
5.6901568e-07
-2.1199284e-09
5.6910153e-07
-2.6396035e-09
5.6922728e-07
-3.3674368e-09
5.6943546e-07
-4.4590394e-09
5.6979924e-07
-6.0050166e-09
5.7025364e-07
-9.504435e-09
5.7220712e-07
-2.9571508e-08
5.8877482e-07
5.3913641e-07
5.9666502e-08
4.6914812e-07
3.6658845e-08
6.194181e-07
2.2621272e-08
5.8751019e-07
1.6246275e-08
5.7701146e-07
1.2283011e-08
5.7405543e-07
9.5987794e-09
5.7230572e-07
7.6701937e-09
5.7127814e-07
6.2292034e-09
5.7062832e-07
5.1201944e-09
5.7018644e-07
4.2430801e-09
5.6987718e-07
3.5325135e-09
5.6965507e-07
2.944314e-09
5.694919e-07
2.4474246e-09
5.6937015e-07
2.0193584e-09
5.6927837e-07
1.6433891e-09
5.692089e-07
1.3067274e-09
5.6915648e-07
9.9930447e-10
5.6911749e-07
7.129296e-10
5.6908942e-07
4.40685e-10
5.6907058e-07
1.7646642e-10
5.6905988e-07
-8.5385201e-11
5.6905672e-07
-3.5040613e-10
5.6906094e-07
-6.2432181e-10
5.6907281e-07
-9.1337846e-10
5.69093e-07
-1.2247294e-09
5.6912273e-07
-1.5669264e-09
5.6916386e-07
-1.9505823e-09
5.6921915e-07
-2.3893093e-09
5.6929259e-07
-2.9011078e-09
5.6939003e-07
-3.5104887e-09
5.6952015e-07
-4.2518916e-09
5.6969621e-07
-5.1757044e-09
5.6993949e-07
-6.3585802e-09
5.7028441e-07
-7.9192745e-09
5.7078798e-07
-1.0061047e-08
5.7157723e-07
-1.3190105e-08
5.729283e-07
-1.812129e-08
5.7518483e-07
-2.8164027e-08
5.8224985e-07
-4.5791942e-08
6.0640273e-07
4.9334446e-07
5.9999683e-08
4.0914853e-07
5.0474077e-08
6.2894371e-07
3.3358031e-08
6.0462621e-07
2.4804782e-08
5.855647e-07
1.9310065e-08
5.7955015e-07
1.5318387e-08
5.762974e-07
1.2347984e-08
5.7424855e-07
1.0089466e-08
5.7288683e-07
8.3294323e-09
5.7194647e-07
6.9247389e-09
5.7128187e-07
5.7792868e-09
5.7080052e-07
4.8262908e-09
5.704449e-07
4.0179665e-09
5.7017847e-07
3.3193084e-09
5.6997703e-07
2.704033e-09
5.6982417e-07
2.1518877e-09
5.6970863e-07
1.6468269e-09
5.6962255e-07
1.1757306e-09
5.6956052e-07
7.2747064e-10
5.6951884e-07
2.9219734e-10
5.6949515e-07
-1.3923771e-10
5.6948815e-07
-5.7578768e-10
5.6949749e-07
-1.026704e-09
5.6952372e-07
-1.5020567e-09
5.6956835e-07
-2.013337e-09
5.6963401e-07
-2.5742171e-09
5.6972474e-07
-3.2015621e-09
5.6984649e-07
-3.916841e-09
5.7000787e-07
-4.7481774e-09
5.7022136e-07
-5.7334129e-09
5.7050538e-07
-6.9247671e-09
5.7088757e-07
-8.3964764e-09
5.714112e-07
-1.0257983e-08
5.7214591e-07
-1.2671217e-08
5.7320121e-07
-1.586941e-08
5.7477542e-07
-2.0214563e-08
5.7727345e-07
-2.668445e-08
5.8165472e-07
-3.8924297e-08
5.944897e-07
-4.8149735e-08
6.1562817e-07
4.4519473e-07
5.4867239e-08
3.5428146e-07
5.7432106e-08
6.2637888e-07
4.0447862e-08
6.2161042e-07
3.0759371e-08
5.9525319e-07
2.4623383e-08
5.8568614e-07
1.9932759e-08
5.8098802e-07
1.6293984e-08
5.7788732e-07
1.3448541e-08
5.7573228e-07
1.1184277e-08
5.7421074e-07
9.3494591e-09
5.7311669e-07
7.8361751e-09
5.723138e-07
6.5659079e-09
5.7171517e-07
5.4807832e-09
5.7126359e-07
4.5374605e-09
5.7092035e-07
3.7028166e-09
5.7065882e-07
2.9509658e-09
5.7046048e-07
2.2611616e-09
5.7031235e-07
1.6162794e-09
5.702054e-07
1.0016843e-09
5.7013343e-07
4.0435118e-10
5.7009248e-07
-1.8785824e-10
5.7008036e-07
-7.8683606e-10
5.7009647e-07
-1.404849e-09
5.7014174e-07
-2.0551935e-09
5.702187e-07
-2.7529459e-09
5.7033176e-07
-3.5158908e-09
5.7048769e-07
-4.3657285e-09
5.7069633e-07
-5.3297081e-09
5.7097185e-07
-6.4429085e-09
5.7133456e-07
-7.7514992e-09
5.7181397e-07
-9.3173084e-09
5.7245338e-07
-1.1224209e-08
5.733181e-07
-1.3588523e-08
5.7451023e-07
-1.6571669e-08
5.7618436e-07
-2.0371539e-08
5.7857529e-07
-2.5254864e-08
5.8215678e-07
-3.2480384e-08
5.8888023e-07
-4.5064411e-08
6.0707373e-07
-4.6525285e-08
6.1708904e-07
3.9866944e-07
4.7951778e-08
3.0632996e-07
6.0049125e-08
6.1428167e-07
4.5371914e-08
6.3628758e-07
3.4848279e-08
6.057768e-07
2.8372733e-08
5.9216168e-07
2.3392727e-08
5.8596803e-07
1.940823e-08
5.8187182e-07
1.620442e-08
5.7893609e-07
1.3596734e-08
5.7681842e-07
1.1445729e-08
5.7526769e-07
9.6462439e-09
5.7411329e-07
8.1182013e-09
5.7324321e-07
6.8005417e-09
5.7258125e-07
5.6462159e-09
5.7207468e-07
4.6184114e-09
5.7168662e-07
3.6878041e-09
5.7139108e-07
2.8305172e-09
5.7116964e-07
2.0265826e-09
5.7100933e-07
1.2587564e-09
5.7090126e-07
5.1157319e-10
5.7083966e-07
-2.2944669e-10
5.7082138e-07
-9.7850743e-10
5.7084553e-07
-1.750228e-09
5.7091346e-07
-2.5603652e-09
5.7102883e-07
-3.4266297e-09
5.7119803e-07
-4.3696699e-09
5.7143073e-07
-5.4143124e-09
5.7174097e-07
-6.5911716e-09
5.7214871e-07
-7.938777e-09
5.7268217e-07
-9.5064473e-09
5.7338164e-07
-1.1358067e-08
5.74305e-07
-1.3576512e-08
5.7553654e-07
-1.6270153e-08
5.7720387e-07
-1.9582683e-08
5.7949689e-07
-2.3684524e-08
5.8267713e-07
-2.8878374e-08
5.8735063e-07
-3.6738944e-08
5.967408e-07
-4.8413077e-08
6.1874786e-07
-4.3163912e-08
6.1183988e-07
3.5550553e-07
4.0320177e-08
2.6601016e-07
5.8959175e-08
5.9564295e-07
4.8291863e-08
6.4695485e-07
3.755188e-08
6.1651673e-07
3.0893184e-08
5.9882038e-07
2.5858723e-08
5.9100249e-07
2.1745857e-08
5.8598468e-07
1.8359678e-08
5.8232227e-07
1.5547458e-08
5.7963064e-07
1.3187105e-08
5.7762805e-07
1.1182638e-08
5.7611775e-07
9.4587195e-09
5.7496713e-07
7.9561614e-09
5.7408381e-07
6.6280139e-09
5.7340282e-07
5.4366033e-09
5.7287803e-07
4.351265e-09
5.7247642e-07
3.3465636e-09
5.7217434e-07
2.4008926e-09
5.7195501e-07
1.4953577e-09
5.7180679e-07
6.1285492e-10
5.7172217e-07
-2.6271939e-10
5.7169696e-07
-1.1471863e-09
5.7173e-07
-2.0567869e-09
5.7182306e-07
-3.008911e-09
5.7198096e-07
-4.0229031e-09
5.7221202e-07
-5.121009e-09
5.7252883e-07
-6.3295278e-09
5.7294949e-07
-7.6802459e-09
5.7349942e-07
-9.2122364e-09
5.7421416e-07
-1.0974166e-08
5.7514357e-07
-1.3027327e-08
5.7635816e-07
-1.5449064e-08
5.7795828e-07
-1.8336855e-08
5.8009166e-07
-2.181499e-08
5.8297502e-07
-2.6039409e-08
5.8690155e-07
-3.1418885e-08
5.9273011e-07
-3.9584262e-08
6.0490618e-07
-4.9106267e-08
6.2826987e-07
-3.8542171e-08
6.0127578e-07
3.1696336e-07
3.2845104e-08
2.3316556e-07
5.5207397e-08
5.7328113e-07
4.9182586e-08
6.5297966e-07
3.9014452e-08
6.2668478e-07
3.2384944e-08
6.0544987e-07
2.7473803e-08
5.9591363e-07
2.3395236e-08
5.9006325e-07
1.9961724e-08
5.8575578e-07
1.7056622e-08
5.8253575e-07
1.4577651e-08
5.8010702e-07
1.2440972e-08
5.7825443e-07
1.0579281e-08
5.7682882e-07
8.9382817e-09
5.7572481e-07
7.4737272e-09
5.7486738e-07
6.1492311e-09
5.7420253e-07
4.9345103e-09
5.7369114e-07
3.8039427e-09
5.7330491e-07
2.7353898e-09
5.7302356e-07
1.7092202e-09
5.7283296e-07
7.0747908e-10
5.7272391e-07
-2.8684491e-10
5.7269128e-07
-1.2904936e-09
5.7273365e-07
-2.3206054e-09
5.7285317e-07
-3.3953991e-09
5.7305575e-07
-4.5349155e-09
5.7335153e-07
-5.7618651e-09
5.7375578e-07
-7.102625e-09
5.7429025e-07
-8.5884403e-09
5.7498524e-07
-1.0256874e-08
5.7588259e-07
-1.2153584e-08
5.7704028e-07
-1.433471e-08
5.7853928e-07
-1.6869767e-08
5.8049334e-07
-1.9843693e-08
5.8306559e-07
-2.3357409e-08
5.8648874e-07
-2.7552406e-08
5.9109655e-07
-3.2945619e-08
5.9812332e-07
-4.0919809e-08
6.1288037e-07
-4.7605461e-08
6.3495552e-07
-3.3334203e-08
5.8700452e-07
2.8362916e-07
2.6169729e-08
2.0699646e-07
5.0082126e-08
5.4936946e-07
4.8431059e-08
6.5463082e-07
3.943119e-08
6.3568454e-07
3.3020063e-08
6.1186096e-07
2.8355913e-08
6.0057779e-07
2.4438727e-08
5.9398044e-07
2.1066933e-08
5.8912757e-07
1.8159537e-08
5.8544314e-07
1.563724e-08
5.8262931e-07
1.3430843e-08
5.8046083e-07
1.1483106e-08
5.7877656e-07
9.7464487e-09
5.7746147e-07
8.1810149e-09
5.7643281e-07
6.7532067e-09
5.7563034e-07
5.4344119e-09
5.7500994e-07
4.1999161e-09
5.7453941e-07
3.0279785e-09
5.741955e-07
1.8990349e-09
5.7396191e-07
7.9499408e-10
5.7382795e-07
-3.0139899e-10
5.7378767e-07
-1.4071592e-09
5.7383941e-07
-2.5396541e-09
5.7398566e-07
-3.7172076e-09
5.742333e-07
-4.9597425e-09
5.7459407e-07
-6.2894958e-09
5.7508554e-07
-7.7318312e-09
5.7573259e-07
-9.3161863e-09
5.7656959e-07
-1.1077181e-08
5.7764359e-07
-1.3055885e-08
5.7901898e-07
-1.5301467e-08
5.8078486e-07
-1.7873312e-08
5.8306518e-07
-2.0840991e-08
5.8603327e-07
-2.4279869e-08
5.8992762e-07
-2.8325328e-08
5.9514201e-07
-3.3580303e-08
6.0337829e-07
-4.0948745e-08
6.2024881e-07
-4.4698084e-08
6.3870486e-07
-2.8157261e-08
5.704637e-07
2.554719e-07
2.0549906e-08
1.8644731e-07
4.4524279e-08
5.2539611e-07
4.6566131e-08
6.5258921e-07
3.9078385e-08
6.4317215e-07
3.3012815e-08
6.1792647e-07
2.864864e-08
6.0494196e-07
2.4971647e-08
5.9765743e-07
2.1740859e-08
5.9235836e-07
1.8900857e-08
5.8828314e-07
1.6395492e-08
5.8513468e-07
1.4171193e-08
5.8268513e-07
1.2181708e-08
5.8076604e-07
1.0387179e-08
5.79256e-07
8.7531733e-09
5.7806682e-07
7.2498592e-09
5.7713365e-07
5.851192e-09
5.764086e-07
4.5341753e-09
5.7585642e-07
3.2781951e-09
5.7545148e-07
2.0644125e-09
5.7517569e-07
8.7520677e-10
5.7501715e-07
-3.0634566e-10
5.7496923e-07
-1.4969671e-09
5.7503003e-07
-2.7136765e-09
5.7520237e-07
-3.9742909e-09
5.7549392e-07
-5.2979508e-09
5.7591773e-07
-6.705686e-09
5.7649327e-07
-8.2210329e-09
5.7724793e-07
-9.87072e-09
5.7821928e-07
-1.1685434e-08
5.794583e-07
-1.3700616e-08
5.8103417e-07
-1.5957365e-08
5.8304161e-07
-1.8503646e-08
5.8561146e-07
-2.1392709e-08
5.8892233e-07
-2.4678761e-08
5.9321367e-07
-2.8507495e-08
5.9897074e-07
-3.3523214e-08
6.0839401e-07
-4.0004432e-08
6.2673003e-07
-4.1042206e-08
6.3974263e-07
-2.3364627e-08
5.5278612e-07
2.3210727e-07
1.5992588e-08
1.7045561e-07
3.907613e-08
5.0231394e-07
4.402596e-08
6.4763983e-07
3.8197564e-08
6.4900041e-07
3.2567033e-08
6.235569e-07
2.8507783e-08
6.090012e-07
2.5102948e-08
6.0106227e-07
2.2059672e-08
5.9540164e-07
1.9334016e-08
5.910088e-07
1.68898e-08
5.875789e-07
1.468796e-08
5.8488697e-07
1.2692816e-08
5.8276118e-07
1.0872369e-08
5.8107644e-07
9.1980107e-09
5.7974118e-07
7.6441768e-09
5.7868748e-07
6.1879307e-09
5.7786485e-07
4.8085354e-09
5.7723582e-07
3.4870266e-09
5.7677298e-07
2.2057909e-09
5.7645693e-07
9.4815761e-10
5.7627479e-07
-3.0199896e-10
5.7621938e-07
-1.5606465e-09
5.7628868e-07
-2.843987e-09
5.7648571e-07
-4.1688477e-09
5.7681878e-07
-5.5530812e-09
5.7730196e-07
-7.0159801e-09
5.7795617e-07
-8.5787046e-09
5.7881066e-07
-1.0264721e-08
5.799053e-07
-1.2100258e-08
5.8129384e-07
-1.4114725e-08
5.8304863e-07
-1.6341073e-08
5.8526796e-07
-1.8816185e-08
5.8808658e-07
-2.1578378e-08
5.9168452e-07
-2.466829e-08
5.9630358e-07
-2.8253757e-08
6.0255621e-07
-3.295848e-08
6.1309874e-07
-3.838177e-08
6.3215332e-07
-3.7080212e-08
6.3844107e-07
-1.9125509e-08
5.3483142e-07
2.1298176e-07
1.239873e-08
1.5805793e-07
3.4036601e-08
4.8067784e-07
4.1139617e-08
6.4053755e-07
3.6966679e-08
6.5317322e-07
3.1836538e-08
6.286869e-07
2.8067781e-08
6.1276993e-07
2.4936022e-08
6.0419404e-07
2.2100397e-08
5.9823726e-07
1.951591e-08
5.9359329e-07
1.7161826e-08
5.8993298e-07
1.5011411e-08
5.8703738e-07
1.3038258e-08
5.8473434e-07
1.1217629e-08
5.8289707e-07
9.5265704e-09
5.8143223e-07
7.9438631e-09
5.8027019e-07
6.449893e-09
5.7935882e-07
5.026473e-09
5.7865924e-07
3.6566148e-09
5.7814284e-07
2.324273e-09
5.7778927e-07
1.0140747e-09
5.7758499e-07
-2.8895896e-10
5.7752242e-07
-1.5996913e-09
5.7759941e-07
-2.933157e-09
5.7781918e-07
-4.3048434e-09
5.7819046e-07
-5.7309696e-09
5.7872809e-07
-7.2287603e-09
5.7945396e-07
-8.8167056e-09
5.803986e-07
-1.0514793e-08
5.8160338e-07
-1.2344717e-08
5.8312376e-07
-1.4330039e-08
5.8503395e-07
-1.6496215e-08
5.8743414e-07
-1.8870287e-08
5.9046065e-07
-2.1477964e-08
5.942922e-07
-2.4353513e-08
5.9917913e-07
-2.7689797e-08
6.0589249e-07
-3.2028542e-08
6.1743748e-07
-3.6322765e-08
6.3644754e-07
-3.3113155e-08
6.3523146e-07
-1.550137e-08
5.1721963e-07
1.9748039e-07
9.6296583e-09
1.484295e-07
2.9557835e-08
4.6075191e-07
3.8153571e-08
6.3194291e-07
3.5523669e-08
6.5580306e-07
3.0932184e-08
6.3327819e-07
2.7432689e-08
6.1626939e-07
2.4557173e-08
6.0706956e-07
2.193157e-08
6.0086287e-07
1.9500186e-08
5.9602467e-07
1.7252886e-08
5.9218028e-07
1.5172932e-08
5.8911734e-07
1.3241633e-08
5.8666564e-07
1.1440545e-08
5.8469816e-07
9.7518285e-09
5.8312095e-07
8.1583644e-09
5.8186366e-07
6.6438165e-09
5.8087337e-07
5.1926241e-09
5.8011043e-07
3.7899269e-09
5.7954554e-07
2.4214437e-09
5.7915775e-07
1.0733208e-09
5.7893311e-07
-2.6803913e-10
5.7886378e-07
-1.6161569e-09
5.7894753e-07
-2.9846652e-09
5.7918769e-07
-4.3874893e-09
5.7959329e-07
-5.8390182e-09
5.8017962e-07
-7.354257e-09
5.809692e-07
-8.9489504e-09
5.819933e-07
-1.0639659e-08
5.8329409e-07
-1.2443788e-08
5.8492789e-07
-1.4379577e-08
5.8696974e-07
-1.6465927e-08
5.8952049e-07
-1.8721495e-08
5.9271622e-07
-2.1162037e-08
5.9673274e-07
-2.3821587e-08
6.0183868e-07
-2.691408e-08
6.0898498e-07
-3.0851275e-08
6.2137467e-07
-3.4031326e-08
6.3962759e-07
-2.934591e-08
6.3054605e-07
-1.2487386e-08
5.0036111e-07
1.84993e-07
7.5365192e-09
1.4089445e-07
2.5687355e-08
4.4260386e-07
3.5238498e-08
6.223933e-07
3.397814e-08
6.5706346e-07
2.9936624e-08
6.3731945e-07
2.6682159e-08
6.1952378e-07
2.4035792e-08
6.0971593e-07
2.1610711e-08
6.0328795e-07
1.9333892e-08
5.9830149e-07
1.7200822e-08
5.9431335e-07
1.5202469e-08
5.9111569e-07
1.3326331e-08
5.8854178e-07
1.1559169e-08
5.8646532e-07
9.88754e-09
5.8479258e-07
8.2980007e-09
5.8345319e-07
6.7772685e-09
5.823941e-07
5.3123256e-09
5.8157537e-07
3.8904504e-09
5.8096741e-07
2.4991982e-09
5.80549e-07
1.1263444e-09
5.8030596e-07
-2.4019702e-10
5.8023032e-07
-1.6124682e-09
5.803198e-07
-3.0025702e-09
5.8057779e-07
-4.422758e-09
5.8101348e-07
-5.8855202e-09
5.8164238e-07
-7.4036345e-09
5.8248731e-07
-8.9901872e-09
5.8357985e-07
-1.0658538e-08
5.8496244e-07
-1.2422231e-08
5.8669158e-07
-1.4294872e-08
5.8884238e-07
-1.6289826e-08
5.9151544e-07
-1.84189e-08
5.9484529e-07
-2.0690868e-08
5.9900471e-07
-2.3144552e-08
6.0429236e-07
-2.6006548e-08
6.1184698e-07
-2.9527423e-08
6.2489555e-07
-3.1668819e-08
6.4176899e-07
-2.5900548e-08
6.2477778e-07
-1.0036762e-08
4.8449732e-07
1.7495624e-07
5.9787223e-09
1.3491746e-07
2.2403264e-08
4.2618272e-07
3.2496053e-08
6.123026e-07
3.2410266e-08
6.5714944e-07
2.890959e-08
6.4081983e-07
2.5875996e-08
6.2255726e-07
2.34269e-08
6.1216502e-07
2.1185121e-08
6.0552974e-07
1.9056968e-08
6.0042964e-07
1.7038846e-08
5.9633147e-07
1.5127202e-08
5.9302733e-07
1.3314268e-08
5.9035471e-07
1.1590921e-08
5.8818867e-07
9.9473489e-09
5.8643615e-07
8.3732641e-09
5.8502728e-07
6.8581112e-09
5.8390925e-07
5.3912251e-09
5.8304226e-07
3.9619305e-09
5.8239671e-07
2.5595939e-09
5.8195134e-07
1.1736376e-09
5.8169192e-07
-2.0647186e-10
5.8161043e-07
-1.5912492e-09
5.8170458e-07
-2.9912243e-09
5.8197776e-07
-4.4169661e-09
5.8243922e-07
-5.8790922e-09
5.831045e-07
-7.3882505e-09
5.8399647e-07
-8.9550641e-09
5.8514666e-07
-1.0590026e-08
5.8659741e-07
-1.2303339e-08
5.884049e-07
-1.410474e-08
5.9064378e-07
-1.6003118e-08
5.9341382e-07
-1.8005018e-08
5.9684719e-07
-2.0115289e-08
6.0111498e-07
-2.2381002e-08
6.0655808e-07
-2.5030357e-08
6.1449633e-07
-2.8137232e-08
6.2800243e-07
-2.9349137e-08
6.4298089e-07
-2.2832078e-08
6.1826072e-07
-8.0809336e-09
4.6974618e-07
1.6687531e-07
4.8335585e-09
1.3008597e-07
1.9646907e-08
4.113735e-07
2.9974302e-08
6.0197795e-07
3.0872107e-08
6.5625206e-07
2.7890212e-08
6.4380138e-07
2.505611e-08
6.2539119e-07
2.2772286e-08
6.1444883e-07
2.0692555e-08
6.0760948e-07
1.8702421e-08
6.0241978e-07
1.6795274e-08
5.9823862e-07
1.4970985e-08
5.9485162e-07
1.3225209e-08
5.9210048e-07
1.155192e-08
5.8986196e-07
9.9441742e-09
5.880439e-07
8.3942986e-09
5.8657715e-07
6.8940846e-09
5.8540947e-07
5.434966e-09
5.8450138e-07
4.0081527e-09
5.8382352e-07
2.6047259e-09
5.8335477e-07
1.2157016e-09
5.8308094e-07
-1.6793024e-10
5.8299406e-07
-1.555179e-09
5.8309182e-07
-2.9550339e-09
5.8337762e-07
-4.3764352e-09
5.8386062e-07
-5.8282315e-09
5.845563e-07
-7.31911e-09
5.8548735e-07
-8.8574946e-09
5.8668505e-07
-1.0451403e-08
5.8819131e-07
-1.2108262e-08
5.9006176e-07
-1.3834718e-08
5.9237024e-07
-1.5636218e-08
5.9521532e-07
-1.7515573e-08
5.9872654e-07
-1.9476481e-08
6.0307589e-07
-2.1575915e-08
6.0865751e-07
-2.4031799e-08
6.1695222e-07
-2.6739077e-08
6.307097e-07
-2.7144064e-08
6.4338588e-07
-2.0149628e-08
6.1126628e-07
-6.5441678e-09
4.5614072e-07
1.6033114e-07
3.9986744e-09
1.2608978e-07
1.7345717e-08
3.9803141e-07
2.7687008e-08
5.9164018e-07
2.9393997e-08
6.545458e-07
2.6901306e-08
6.4629371e-07
2.4249288e-08
6.2804299e-07
2.2101734e-08
6.1659636e-07
2.0161773e-08
6.0954945e-07
1.8296542e-08
6.0428501e-07
1.6493482e-08
6.0004168e-07
1.4754119e-08
5.9659099e-07
1.3076424e-08
5.9377818e-07
1.1456581e-08
5.914818e-07
9.8898163e-09
5.8961066e-07
8.3705412e-09
5.8809643e-07
6.8925032e-09
5.868875e-07
5.4489506e-09
5.8594493e-07
4.0327754e-09
5.852397e-07
2.6366302e-09
5.8475091e-07
1.2530206e-09
5.8446455e-07
-1.2562137e-10
5.843727e-07
-1.5068747e-09
5.8447308e-07
-2.8982719e-09
5.8476902e-07
-4.3072333e-09
5.8526958e-07
-5.7409897e-09
5.8599006e-07
-7.2064817e-09
5.8695284e-07
-8.7102336e-09
5.881888e-07
-1.02582e-08
5.8973928e-07
-1.1855589e-08
5.9165915e-07
-1.3506688e-08
5.9402134e-07
-1.5214438e-08
5.9692307e-07
-1.6979275e-08
6.0049138e-07
-1.8806018e-08
6.0490263e-07
-2.0761554e-08
6.1061305e-07
-2.3042403e-08
6.1923307e-07
-2.5372314e-08
6.3303961e-07
-2.5093024e-08
6.4310659e-07
-1.7834448e-08
6.0400771e-07
-5.3520419e-09
4.4365831e-07
1.549791e-07
3.3914103e-09
1.2270134e-07
1.5425807e-08
3.8600294e-07
2.5627356e-08
5.8144308e-07
2.7991049e-08
6.5218325e-07
2.5954345e-08
6.4833004e-07
2.3470994e-08
6.3052604e-07
2.1435172e-08
6.1863213e-07
1.9613662e-08
6.1137097e-07
1.785945e-08
6.0603923e-07
1.6152109e-08
6.0174902e-07
1.4493345e-08
5.9824975e-07
1.2882558e-08
5.9538897e-07
1.131742e-08
5.9304694e-07
9.7947284e-09
5.9113335e-07
8.3104971e-09
5.8958066e-07
6.8600546e-09
5.8833795e-07
5.4381745e-09
5.8736681e-07
4.0392098e-09
5.8663866e-07
2.6572135e-09
5.8613291e-07
1.2860439e-09
5.8583572e-07
-8.0542314e-11
5.8573929e-07
-1.4488047e-09
5.8584134e-07
-2.8249396e-09
5.8614515e-07
-4.2149898e-09
5.8665963e-07
-5.6247484e-09
5.8739982e-07
-7.0596444e-09
5.8838774e-07
-8.52461e-09
5.8965377e-07
-1.0023936e-08
5.9123861e-07
-1.1561126e-08
5.9319634e-07
-1.313875e-08
5.9559896e-07
-1.4758035e-08
5.9854235e-07
-1.6418211e-08
6.0215156e-07
-1.8126908e-08
6.0661133e-07
-1.9959681e-08
6.1244582e-07
-2.2082191e-08
6.2135558e-07
-2.4061392e-08
6.3501882e-07
-2.3212523e-08
6.4225772e-07
-1.5852364e-08
5.9664755e-07
-4.4361198e-09
4.3224207e-07
1.5054298e-07
2.9471585e-09
1.1975772e-07
1.3818641e-08
3.7513852e-07
2.3777292e-08
5.7148996e-07
2.6668102e-08
6.4929409e-07
2.50533e-08
6.499445e-07
2.2728808e-08
6.3285016e-07
2.0785055e-08
6.205758e-07
1.9062746e-08
6.1309328e-07
1.7406016e-08
6.0769596e-07
1.5785555e-08
6.0336948e-07
1.4202064e-08
5.9983324e-07
1.2655681e-08
5.9693535e-07
1.1145009e-08
5.9455761e-07
9.6679214e-09
5.9261044e-07
8.2216228e-09
5.9102696e-07
6.8026829e-09
5.8975689e-07
5.4071262e-09
5.8876237e-07
4.0305443e-09
5.8801524e-07
2.6682081e-09
5.8749524e-07
1.3151747e-09
5.8718876e-07
-3.361239e-11
5.8708807e-07
-1.3832292e-09
5.8719096e-07
-2.7386752e-09
5.875006e-07
-4.1047768e-09
5.8802573e-07
-5.4860819e-09
5.8878112e-07
-6.8867442e-09
5.897884e-07
-8.3103988e-09
5.9107742e-07
-9.7600389e-09
5.9268825e-07
-1.1237908e-08
5.946742e-07
-1.2745398e-08
5.9710645e-07
-1.4282673e-08
6.0007963e-07
-1.5848719e-08
6.037176e-07
-1.745511e-08
6.0821772e-07
-1.9183913e-08
6.1417462e-07
-2.1162548e-08
6.2333421e-07
-2.2819377e-08
6.3667564e-07
-2.1503413e-08
6.4094176e-07
-1.4162161e-08
5.8930629e-07
-3.7364969e-09
4.218164e-07
1.4680648e-07
2.6171075e-09
1.1714485e-07
1.2464412e-08
3.6529959e-07
2.2113872e-08
5.618473e-07
2.5423475e-08
6.4598679e-07
2.4197353e-08
6.5117036e-07
2.202498e-08
6.3502208e-07
2.0158369e-08
6.2244229e-07
1.8518636e-08
6.1473302e-07
1.6946859e-08
6.0926775e-07
1.5404634e-08
6.0491171e-07
1.3890733e-08
6.0134714e-07
1.2405504e-08
5.9842058e-07
1.0948063e-08
5.9601505e-07
9.5169765e-09
5.9404153e-07
8.1102971e-09
5.9243364e-07
6.7255422e-09
5.9114164e-07
5.3597382e-09
5.9012817e-07
4.0095042e-09
5.8936548e-07
2.6711479e-09
5.888336e-07
1.3407656e-09
5.8851914e-07
1.4340207e-11
5.884145e-07
-1.3121642e-09
5.8851746e-07
-2.6427015e-09
5.8883113e-07
-3.9810475e-09
5.8936408e-07
-5.3306958e-09
5.9013077e-07
-6.6947502e-09
5.9115245e-07
-8.075817e-09
5.9245849e-07
-9.475911e-09
5.9408834e-07
-1.0896391e-08
5.9609468e-07
-1.23379e-08
5.9854796e-07
-1.3800061e-08
6.0154179e-07
-1.5282375e-08
6.0519992e-07
-1.6800969e-08
6.0973631e-07
-1.8441704e-08
6.1581536e-07
-2.0288483e-08
6.2518099e-07
-2.1650983e-08
6.3803814e-07
-1.995668e-08
6.3924745e-07
-1.2721209e-08
5.8207082e-07
-3.2027768e-09
4.1229797e-07
1.436037e-07
2.365545e-09
1.1478437e-07
1.1313145e-08
3.563619e-07
2.0613346e-08
5.5255538e-07
2.4251852e-08
6.4235138e-07
2.338289e-08
6.5203918e-07
2.135832e-08
6.370461e-07
1.9558203e-08
6.2424224e-07
1.7987226e-08
6.1630399e-07
1.6489257e-08
6.1076573e-07
1.5017228e-08
6.0638374e-07
1.3567305e-08
6.0279706e-07
1.2139655e-08
5.9984823e-07
1.0733608e-08
5.974211e-07
9.3481329e-09
5.95427e-07
7.981858e-09
5.9379991e-07
6.6330032e-09
5.924905e-07
5.2993791e-09
5.9146179e-07
3.9784402e-09
5.9068642e-07
2.6673602e-09
5.9014468e-07
1.3631184e-09
5.8982338e-07
6.2589302e-11
5.8971503e-07
-1.2373658e-09
5.8981742e-07
-2.5398069e-09
5.9013358e-07
-3.8476208e-09
5.9067189e-07
-5.1634271e-09
5.9144658e-07
-6.4894848e-09
5.9247851e-07
-7.8276067e-09
5.9379661e-07
-9.179098e-09
5.9543983e-07
-1.0544736e-08
5.9746032e-07
-1.1924745e-08
5.9992797e-07
-1.3318606e-08
6.0293565e-07
-1.4726909e-08
6.0660822e-07
-1.6170483e-08
6.1117989e-07
-1.7735982e-08
6.1738085e-07
-1.9460513e-08
6.2690552e-07
-2.0555246e-08
6.3913288e-07
-1.8557963e-08
6.3725017e-07
-1.1489151e-08
5.7500201e-07
-2.7939456e-09
4.0360277e-07
1.4080976e-07
2.1671191e-09
1.126233e-07
1.0324324e-08
3.4821639e-07
1.9253444e-08
5.4363627e-07
2.3146332e-08
6.3846256e-07
2.2604978e-08
6.5258058e-07
2.0725627e-08
6.3892482e-07
1.898499e-08
6.2598264e-07
1.7471689e-08
6.1781728e-07
1.6037914e-08
6.1219951e-07
1.462887e-08
6.0779279e-07
1.3237663e-08
6.0418827e-07
1.1863987e-08
6.0122191e-07
1.0507186e-08
5.987779e-07
9.166419e-09
5.9676777e-07
7.8406815e-09
5.9512565e-07
6.5286966e-09
5.9380248e-07
5.2288752e-09
5.9276162e-07
3.9393383e-09
5.9197595e-07
2.6579699e-09
5.9142605e-07
1.3824859e-09
5.9109886e-07
1.1051341e-10
5.90987e-07
-1.1603302e-09
5.9108826e-07
-2.432352e-09
5.914056e-07
-3.7077008e-09
5.9194724e-07
-4.9882863e-09
5.9272716e-07
-6.2757029e-09
5.9376593e-07
-7.5711694e-09
5.9509208e-07
-8.8754997e-09
5.9674416e-07
-1.0189122e-08
5.9877395e-07
-1.151209e-08
6.0125094e-07
-1.2844037e-08
6.042676e-07
-1.4187038e-08
6.0795122e-07
-1.5566402e-08
6.1255925e-07
-1.7066546e-08
6.18881e-07
-1.8676255e-08
6.2851523e-07
-1.9527722e-08
6.3998434e-07
-1.7290715e-08
6.3501316e-07
-1.0429977e-08
5.6814127e-07
-2.4775588e-09
3.9565035e-07
1.383322e-07
2.0043711e-09
1.1062619e-07
9.4657827e-09
3.4076876e-07
1.8014423e-08
5.3509963e-07
2.2099709e-08
6.343825e-07
2.1858338e-08
6.5282228e-07
2.0122715e-08
6.4065972e-07
1.8437479e-08
6.2766757e-07
1.6973275e-08
6.1928146e-07
1.5595616e-08
6.1357719e-07
1.4243268e-08
6.0914514e-07
1.2906019e-08
6.0552552e-07
1.1582878e-08
6.0254505e-07
1.027307e-08
6.0008771e-07
8.9758034e-09
5.9806504e-07
7.6902831e-09
5.9641117e-07
6.4155793e-09
5.9507719e-07
5.1505519e-09
5.9402664e-07
3.8938438e-09
5.9323266e-07
2.6439113e-09
5.9267598e-07
1.3990758e-09
5.923437e-07
1.575874e-10
5.9222849e-07
-1.0823078e-09
5.9232815e-07
-2.3222945e-09
5.9264558e-07
-3.5639202e-09
5.9318887e-07
-4.808528e-09
5.9397177e-07
-6.0572015e-09
5.950146e-07
-7.310728e-09
5.963456e-07
-8.5696017e-09
5.9800304e-07
-9.8340757e-09
6.0003842e-07
-1.1104203e-08
6.0252107e-07
-1.2379977e-08
6.0554337e-07
-1.3665211e-08
6.0923645e-07
-1.4989183e-08
6.1388322e-07
-1.6431185e-08
6.20323e-07
-1.7931647e-08
6.3001569e-07
-1.8562113e-08
6.4061481e-07
-1.6138146e-08
6.325892e-07
-9.5124969e-09
5.6151562e-07
-2.2285142e-09
3.8836637e-07
1.3610369e-07
1.865654e-09
1.0876923e-07
8.7123403e-09
3.3393832e-07
1.6879356e-08
5.2694694e-07
2.1105179e-08
6.301633e-07
2.1137923e-08
6.5279024e-07
1.9545081e-08
6.4225177e-07
1.791344e-08
6.2929882e-07
1.6491946e-08
6.207029e-07
1.5163761e-08
6.1490539e-07
1.3862742e-08
6.1044616e-07
1.2575265e-08
6.06813e-07
1.1299502e-08
6.0382081e-07
1.0034476e-08
6.0135273e-07
8.7793507e-09
5.9932016e-07
7.5334304e-09
5.9765709e-07
6.2960133e-09
5.963146e-07
5.0662864e-09
5.9525637e-07
3.843294e-09
5.9445565e-07
2.6259468e-09
5.9389333e-07
1.4130554e-09
5.9355659e-07
2.0337887e-10
5.9343817e-07
-1.0043223e-09
5.9353586e-07
-2.2112267e-09
5.9385249e-07
-3.4183986e-09
5.9439604e-07
-4.6267378e-09
5.9518011e-07
-5.836943e-09
5.9622481e-07
-7.0494998e-09
5.9755816e-07
-8.2647107e-09
5.9921825e-07
-9.4827757e-09
6.0125648e-07
-1.0703862e-08
6.0374215e-07
-1.1928462e-08
6.0676797e-07
-1.3162247e-08
6.1047024e-07
-1.4437757e-08
6.1515873e-07
-1.5826529e-08
6.2171177e-07
-1.7221826e-08
6.3141099e-07
-1.765138e-08
6.4104436e-07
-1.5084404e-08
6.3002222e-07
-8.7104638e-09
5.5514168e-07
-2.0278403e-09
3.8168374e-07
1.3407585e-07
1.7434471e-09
1.0703619e-07
8.0444538e-09
3.2765644e-07
1.5834015e-08
5.1917439e-07
2.0156666e-08
6.2584893e-07
2.0439199e-08
6.525089e-07
1.8988313e-08
6.4370181e-07
1.7410142e-08
6.308765e-07
1.6026835e-08
6.2208612e-07
1.4742779e-08
6.1618946e-07
1.3488592e-08
6.1170036e-07
1.2247287e-08
6.080543e-07
1.1016085e-08
6.0505201e-07
9.793759e-09
6.0257506e-07
8.5793732e-09
6.0053455e-07
7.3722574e-09
5.9886421e-07
6.1718485e-09
5.9751501e-07
4.9775657e-09
5.9645065e-07
3.7887564e-09
5.9564446e-07
2.6046868e-09
5.950774e-07
1.4245577e-09
5.9473672e-07
2.4753809e-10
5.9461519e-07
-9.271964e-10
5.9471059e-07
-2.1004179e-09
5.9502571e-07
-3.2728085e-09
5.9556843e-07
-4.4449255e-09
5.9635223e-07
-5.6171846e-09
5.9739707e-07
-6.7898681e-09
5.9873084e-07
-7.9631793e-09
6.0039156e-07
-9.1373447e-09
6.0243065e-07
-1.0312715e-08
6.0491752e-07
-1.149037e-08
6.0794563e-07
-1.267785e-08
6.1165772e-07
-1.3910112e-08
6.16391e-07
-1.5248655e-08
6.2305031e-07
-1.6541733e-08
6.3270407e-07
-1.6788489e-08
6.4129112e-07
-1.4115209e-08
6.2734894e-07
-8.002246e-09
5.4902872e-07
-1.8615282e-09
3.7554303e-07
1.3221432e-07
1.6330481e-09
1.0541557e-07
7.4469922e-09
3.21865e-07
1.486656e-08
5.1177494e-07
1.9248918e-08
6.2147678e-07
1.9758255e-08
6.520014e-07
1.8448311e-08
6.4501087e-07
1.6924675e-08
6.3239954e-07
1.5576579e-08
6.234341e-07
1.4332447e-08
6.174336e-07
1.3121385e-08
6.1291143e-07
1.192321e-08
6.0925248e-07
1.0734112e-08
6.0624111e-07
9.5525858e-09
6.0375659e-07
8.377571e-09
6.0170956e-07
7.2083733e-09
6.0003341e-07
6.0445051e-09
5.9867888e-07
4.8855457e-09
5.9760961e-07
3.7310678e-09
5.9679894e-07
2.5806119e-09
5.9622785e-07
1.4336867e-09
5.9588365e-07
2.8978745e-10
5.9575908e-07
-8.5157864e-10
5.9585196e-07
-1.9908611e-09
5.9616499e-07
-3.1284426e-09
5.9670601e-07
-4.2646199e-09
5.974884e-07
-5.3996033e-09
5.9853205e-07
-6.5335445e-09
5.9986478e-07
-7.6666099e-09
6.0152462e-07
-8.7990997e-09
6.0356314e-07
-9.9315841e-09
6.0605001e-07
-1.1065773e-08
6.0907981e-07
-1.2211005e-08
6.1280295e-07
-1.3403732e-08
6.1758372e-07
-1.4693513e-08
6.243401e-07
-1.5886507e-08
6.3389706e-07
-1.5966863e-08
6.4137148e-07
-1.3218101e-08
6.2460018e-07
-7.3702939e-09
5.4318091e-07
-1.7194548e-09
3.6989219e-07
1.3049487e-07
1.5316011e-09
1.0389876e-07
6.9082018e-09
3.165149e-07
1.3967148e-08
5.047397e-07
1.8377465e-08
6.1707896e-07
1.9091808e-08
6.5128969e-07
1.7921394e-08
6.4618042e-07
1.6454142e-08
6.3386606e-07
1.5139544e-08
6.2474853e-07
1.3932118e-08
6.1864103e-07
1.2761177e-08
6.1408238e-07
1.1603603e-08
6.1041006e-07
1.0454507e-08
6.0739021e-07
9.3120909e-09
6.04899e-07
8.1751579e-09
6.028465e-07
7.0429629e-09
6.011656e-07
5.9150512e-09
5.9980679e-07
4.7911082e-09
5.9873356e-07
3.6708725e-09
5.9791918e-07
2.5540941e-09
5.9734463e-07
1.4405225e-09
5.9699722e-07
3.2991076e-10
5.968697e-07
-7.7797123e-10
5.9695984e-07
-1.8833185e-09
5.9727034e-07
-2.9862808e-09
5.9780897e-07
-4.0869575e-09
5.9858908e-07
-5.1854121e-09
5.9963051e-07
-6.2817153e-09
6.0096109e-07
-7.3760346e-09
6.0261894e-07
-8.4687659e-09
6.0465587e-07
-9.5607101e-09
6.0714195e-07
-1.0654221e-08
6.1017333e-07
-1.1760293e-08
6.1390902e-07
-1.2915916e-08
6.1873934e-07
-1.4157216e-08
6.255814e-07
-1.5251728e-08
6.3499157e-07
-1.518063e-08
6.4130038e-07
-1.2382451e-08
6.21802e-07
-6.8005317e-09
5.3759899e-07
-1.5944522e-09
3.6468611e-07
1.2890041e-07
1.4374084e-09
1.0247891e-07
6.4188728e-09
3.1156462e-07
1.3127557e-08
4.9805889e-07
1.7538511e-08
6.1268316e-07
1.8437135e-08
6.5039469e-07
1.7404327e-08
6.472124e-07
1.5995782e-08
6.3527376e-07
1.4713987e-08
6.260301e-07
1.3540894e-08
6.1981412e-07
1.2407683e-08
6.1521561e-07
1.1288644e-08
6.115291e-07
1.0177786e-08