/*--------------------------------*- C++ -*----------------------------------*\
  =========                 |
  \\      /  F ield         | OpenFOAM: The Open Source CFD Toolbox
   \\    /   O peration     | Website:  https://openfoam.org
    \\  /    A nd           | Version:  10
     \\/     M anipulation  |
\*---------------------------------------------------------------------------*/
FoamFile
{
    format      ascii;
    class       surfaceScalarField;
    location    "0.13";
    object      phi_0;
}
// * * * * * * * * * * * * * * * * * * * * * * * * * * * * * * * * * * * * * //

dimensions      [1 0 -1 0 0 0 0];

internalField   nonuniform List<scalar> 
7860
(
3.9893321e-08
5.2881471e-07
1.219067e-08
5.9641043e-07
7.425781e-09
5.7347262e-07
5.497001e-09
5.7063647e-07
4.1124929e-09
5.7009217e-07
3.1986459e-09
5.6962149e-07
2.5567124e-09
5.6934956e-07
2.0769987e-09
5.6918732e-07
1.7071714e-09
5.6907742e-07
1.4147016e-09
5.6900006e-07
1.1777897e-09
5.6894449e-07
9.8166869e-10
5.6890369e-07
8.1599107e-10
5.6887324e-07
6.7326275e-10
5.6885029e-07
5.4790664e-10
5.6883291e-07
4.3565826e-10
5.688198e-07
3.3316005e-10
5.6881005e-07
2.3768067e-10
5.6880303e-07
1.4691317e-10
5.6879832e-07
5.8822289e-11
5.6879564e-07
-2.8478946e-11
5.6879485e-07
-1.1683656e-10
5.6879591e-07
-2.0816169e-10
5.6879887e-07
-3.045363e-10
5.6880393e-07
-4.0834579e-10
5.6881136e-07
-5.2244198e-10
5.6882165e-07
-6.5036384e-10
5.6883548e-07
-7.9665058e-10
5.6885385e-07
-9.6730213e-10
5.6887822e-07
-1.170486e-09
5.6891076e-07
-1.4177106e-09
5.689548e-07
-1.7257952e-09
5.6901567e-07
-2.1197287e-09
5.6910153e-07
-2.6394041e-09
5.6922728e-07
-3.3672413e-09
5.6943546e-07
-4.4588538e-09
5.6979925e-07
-6.0048552e-09
5.7025367e-07
-9.5042888e-09
5.7220713e-07
-2.9571329e-08
5.8877478e-07
5.3913659e-07
5.9666213e-08
4.6914853e-07
3.6658503e-08
6.1941813e-07
2.2620941e-08
5.8751018e-07
1.6245923e-08
5.7701149e-07
1.2282647e-08
5.7405545e-07
9.5984134e-09
5.7230572e-07
7.6698332e-09
5.7127814e-07
6.2288554e-09
5.706283e-07
5.1198649e-09
5.7018641e-07
4.2427743e-09
5.6987715e-07
3.5322365e-09
5.6965503e-07
2.94407e-09
5.6949186e-07
2.4472175e-09
5.693701e-07
2.0191915e-09
5.6927832e-07
1.6432654e-09
5.6920884e-07
1.3066495e-09
5.6915642e-07
9.9927436e-10
5.6911743e-07
7.1294893e-10
5.6908936e-07
4.4075494e-10
5.6907051e-07
1.7658777e-10
5.6905981e-07
-8.5212097e-11
5.6905665e-07
-3.5018141e-10
5.6906088e-07
-6.2404609e-10
5.6907274e-07
-9.1305284e-10
5.6909293e-07
-1.2243555e-09
5.6912266e-07
-1.5665065e-09
5.691638e-07
-1.9501192e-09
5.6921909e-07
-2.3888064e-09
5.6929254e-07
-2.9005693e-09
5.6938998e-07
-3.5099196e-09
5.6952011e-07
-4.2512978e-09
5.6969618e-07
-5.1750928e-09
5.6993947e-07
-6.3579591e-09
5.702844e-07
-7.9186536e-09
5.7078798e-07
-1.0060439e-08
5.7157724e-07
-1.3189524e-08
5.7292834e-07
-1.8120755e-08
5.751849e-07
-2.8163506e-08
5.8224988e-07
-4.5791496e-08
6.0640277e-07
4.9334509e-07
5.9999245e-08
4.0914939e-07
5.0473445e-08
6.2894392e-07
3.3357424e-08
6.0462618e-07
2.4804161e-08
5.8556475e-07
1.9309426e-08
5.7955018e-07
1.5317746e-08
5.762974e-07
1.2347353e-08
5.7424853e-07
1.0088858e-08
5.7288679e-07
8.3288567e-09
5.7194642e-07
6.924205e-09
5.712818e-07
5.7788028e-09
5.7080043e-07
4.8258641e-09
5.704448e-07
4.0176037e-09
5.7017836e-07
3.3190153e-09
5.6997691e-07
2.7038146e-09
5.6982404e-07
2.1517484e-09
5.6970849e-07
1.6467703e-09
5.696224e-07
1.1757594e-09
5.6956037e-07
7.2758694e-10
5.6951868e-07
2.9240249e-10
5.6949499e-07
-1.3894305e-10
5.69488e-07
-5.7540375e-10
5.6949734e-07
-1.0262318e-09
5.6952357e-07
-1.5014981e-09
5.695682e-07
-2.0126946e-09
5.6963386e-07
-2.5734947e-09
5.697246e-07
-3.2007644e-09
5.6984636e-07
-3.9159739e-09
5.7000774e-07
-4.7472479e-09
5.7022125e-07
-5.7324294e-09
5.7050529e-07
-6.9237397e-09
5.7088749e-07
-8.3954166e-09
5.7141114e-07
-1.0256905e-08
5.7214588e-07
-1.2670137e-08
5.7320121e-07
-1.5868346e-08
5.7477545e-07
-2.0213542e-08
5.7727353e-07
-2.6683482e-08
5.8165484e-07
-3.8923332e-08
5.9448973e-07
-4.8149016e-08
6.1562846e-07
4.4519607e-07
5.4866673e-08
3.5428289e-07
5.7431145e-08
6.263795e-07
4.0446919e-08
6.2161036e-07
3.075844e-08
5.9525322e-07
2.4622433e-08
5.8568619e-07
1.9931808e-08
5.8098803e-07
1.6293051e-08
5.7788728e-07
1.3447642e-08
5.757322e-07
1.1183427e-08
5.7421063e-07
9.3486707e-09
5.7311655e-07
7.8354601e-09
5.7231364e-07
6.565277e-09
5.7171498e-07
5.4802459e-09
5.7126339e-07
4.537025e-09
5.7092013e-07
3.7024902e-09
5.7065858e-07
2.9507547e-09
5.7046022e-07
2.261071e-09
5.7031209e-07
1.6163133e-09
5.7020512e-07
1.0018457e-09
5.7013315e-07
4.0464222e-10
5.7009219e-07
-1.8743671e-10
5.7008007e-07
-7.8628421e-10
5.7009618e-07
-1.4041683e-09
5.7014145e-07
-2.0543863e-09
5.7021842e-07
-2.7520161e-09
5.7033149e-07
-3.5148436e-09
5.7048743e-07
-4.3645705e-09
5.7069609e-07
-5.3284475e-09
5.7097162e-07
-6.4415553e-09
5.7133436e-07
-7.7500652e-09
5.718138e-07
-9.3158075e-09
5.7245323e-07
-1.1222658e-08
5.7331799e-07
-1.358694e-08
5.7451017e-07
-1.6570077e-08
5.7618435e-07
-2.0369966e-08
5.7857534e-07
-2.5253341e-08
5.8215691e-07
-3.2478894e-08
5.8888039e-07
-4.506292e-08
6.0707376e-07
-4.6524293e-08
6.1708983e-07
3.9867178e-07
4.795111e-08
3.0633207e-07
6.0047815e-08
6.1428293e-07
4.5370564e-08
6.3628756e-07
3.4846981e-08
6.0577678e-07
2.8371428e-08
5.9216175e-07
2.3391424e-08
5.8596803e-07
1.9406955e-08
5.8187175e-07
1.6203194e-08
5.7893597e-07
1.3595575e-08
5.7681825e-07
1.1444654e-08
5.7526748e-07
9.645269e-09
5.7411303e-07
8.1173403e-09
5.7324291e-07
6.7998069e-09
5.7258092e-07
5.6456184e-09
5.7207431e-07
4.6179607e-09
5.7168623e-07
3.6875084e-09
5.7139067e-07
2.8303833e-09
5.7116921e-07
2.0266159e-09
5.7100889e-07
1.2589611e-09
5.7090081e-07
5.1195181e-10
5.708392e-07
-2.2889274e-10
5.7082092e-07
-9.7777824e-10
5.7084507e-07
-1.7493252e-09
5.70913e-07
-2.559292e-09
5.7102838e-07
-3.4253909e-09
5.7119759e-07
-4.368272e-09
5.7143031e-07
-5.412764e-09
5.7174058e-07
-6.5894833e-09
5.7214834e-07
-7.9369615e-09
5.7268184e-07
-9.5045198e-09
5.7338135e-07
-1.1356045e-08
5.7430476e-07
-1.3574417e-08
5.7553636e-07
-1.6268009e-08
5.7720376e-07
-1.9580519e-08
5.7949686e-07
-2.3682375e-08
5.826772e-07
-2.8876268e-08
5.873508e-07
-3.6736823e-08
5.9674095e-07
-4.8410993e-08
6.1874793e-07
-4.3162656e-08
6.1184149e-07
3.5550912e-07
4.0319419e-08
2.6601305e-07
5.8957507e-08
5.9564514e-07
4.8290037e-08
6.4695499e-07
3.7550149e-08
6.1651662e-07
3.089147e-08
5.9882042e-07
2.5857019e-08
5.9100248e-07
2.1744193e-08
5.8598458e-07
1.8358079e-08
5.8232208e-07
1.5545948e-08
5.7963038e-07
1.3185706e-08
5.7762772e-07
1.1181369e-08
5.7611736e-07
9.4575977e-09
5.7496668e-07
7.9552023e-09
5.7408332e-07
6.6272312e-09
5.7340229e-07
5.436009e-09
5.7287746e-07
4.3508694e-09
5.7247581e-07
3.3463751e-09
5.7217371e-07
2.4009182e-09
5.7195435e-07
1.4956025e-09
5.7180612e-07
6.1332254e-10
5.7172148e-07
-2.6202721e-10
5.7169627e-07
-1.1462695e-09
5.7172931e-07
-2.0556473e-09
5.7182238e-07
-3.0075522e-09
5.7198029e-07
-4.0213309e-09
5.7221137e-07
-5.1192315e-09
5.7252821e-07
-6.327555e-09
5.729489e-07
-7.6780908e-09
5.7349888e-07
-9.2099144e-09
5.7421366e-07
-1.0971695e-08
5.7514314e-07
-1.302473e-08
5.7635779e-07
-1.5446365e-08
5.77958e-07
-1.8334084e-08
5.8009148e-07
-2.1812181e-08
5.8297495e-07
-2.6036605e-08
5.8690162e-07
-3.1416097e-08
5.9273029e-07
-3.9581398e-08
6.0490625e-07
-4.9103541e-08
6.2827007e-07
-3.854066e-08
6.0127861e-07
3.1696846e-07
3.2844267e-08
2.3316931e-07
5.5205365e-08
5.7328454e-07
4.9180219e-08
6.5298014e-07
3.9012208e-08
6.2668454e-07
3.2382758e-08
6.0544985e-07
2.747164e-08
5.959136e-07
2.3393128e-08
5.9006309e-07
1.9959703e-08
5.857555e-07
1.7054716e-08
5.8253537e-07
1.4575885e-08
5.8010655e-07
1.2439369e-08
5.7825388e-07
1.0577863e-08
5.7682819e-07
8.9370672e-09
5.7572411e-07
7.4727326e-09
5.7486662e-07
6.1484708e-09
5.7420172e-07
4.9339968e-09
5.7369029e-07
3.8036863e-09
5.7330402e-07
2.7353989e-09
5.7302264e-07
1.7095014e-09
5.7283202e-07
7.080366e-10
5.7272295e-07
-2.8600862e-10
5.7269031e-07
-1.2893782e-09
5.7273268e-07
-2.3192127e-09
5.7285221e-07
-3.3937333e-09
5.7305481e-07
-4.5329832e-09
5.7335062e-07
-5.7596754e-09
5.737549e-07
-7.1001897e-09
5.7428942e-07
-8.5857745e-09
5.7498446e-07
-1.0253996e-08
5.7588188e-07
-1.2150515e-08
5.7703965e-07
-1.4331475e-08
5.7853875e-07
-1.6866396e-08
5.8049292e-07
-1.9840221e-08
5.830653e-07
-2.3353876e-08
5.8648861e-07
-2.7548857e-08
5.910966e-07
-3.2942038e-08
5.9812348e-07
-4.0916092e-08
6.128803e-07
-4.7602054e-08
6.3495603e-07
-3.3332452e-08
5.8700901e-07
2.8363601e-07
2.6168815e-08
2.0700115e-07
5.0079721e-08
5.4937439e-07
4.8428088e-08
6.5463187e-07
3.9428344e-08
6.3568417e-07
3.3017329e-08
6.1186083e-07
2.8353226e-08
6.0057771e-07
2.4436113e-08
5.9398021e-07
2.106443e-08
5.8912719e-07
1.8157179e-08
5.8544262e-07
1.5635057e-08
5.8262867e-07
1.3428862e-08
5.8046007e-07
1.1481352e-08
5.787757e-07
9.7449431e-09
5.7746052e-07
8.1797775e-09
5.7643179e-07
6.7522546e-09
5.7562924e-07
5.4337598e-09
5.7500878e-07
4.1995763e-09
5.745382e-07
3.0279609e-09
5.7419425e-07
1.8993473e-09
5.7396063e-07
7.9564192e-10
5.7382665e-07
-3.0041264e-10
5.7378637e-07
-1.4058336e-09
5.738381e-07
-2.5379911e-09
5.7398437e-07
-3.7152116e-09
5.7423203e-07
-4.9574206e-09
5.7459283e-07
-6.2868583e-09
5.7508434e-07
-7.7288913e-09
5.7573145e-07
-9.3129609e-09
5.7656853e-07
-1.1073691e-08
5.7764261e-07
-1.3052154e-08
5.7901812e-07
-1.5297525e-08
5.8078412e-07
-1.7869192e-08
5.8306459e-07
-2.0836733e-08
5.8603284e-07
-2.427552e-08
5.8992739e-07
-2.8320929e-08
5.9514201e-07
-3.3575804e-08
6.0337835e-07
-4.0944065e-08
6.2024856e-07
-4.4693959e-08
6.3870593e-07
-2.8155281e-08
5.7047033e-07
2.5548073e-07
2.0548914e-08
1.8645303e-07
4.4521486e-08
5.2540289e-07
4.656249e-08
6.5259112e-07
3.907484e-08
6.4317168e-07
3.3009446e-08
6.1792616e-07
2.8645353e-08
6.049418e-07
2.4968456e-08
5.9765711e-07
2.1737809e-08
5.9235783e-07
1.8897987e-08
5.8828244e-07
1.6392836e-08
5.8513382e-07
1.4168783e-08
5.8268413e-07
1.2179571e-08
5.8076491e-07
1.0385342e-08
5.7925475e-07
8.7516584e-09
5.7806547e-07
7.2486861e-09
5.7713221e-07
5.8503776e-09
5.7640709e-07
4.5337341e-09
5.7585484e-07
3.2781386e-09
5.7544985e-07
2.06475e-09
5.7517402e-07
8.7594463e-10
5.7501546e-07
-3.0520344e-10
5.7496752e-07
-1.4954193e-09
5.7502832e-07
-2.7117245e-09
5.7520067e-07
-3.9719394e-09
5.7549224e-07
-5.2952074e-09
5.7591609e-07
-6.7025616e-09
5.7649169e-07
-8.2175421e-09
5.7724643e-07
-9.8668814e-09
5.7821787e-07
-1.1681271e-08
5.79457e-07
-1.3696154e-08
5.81033e-07
-1.5952638e-08
5.8304061e-07
-1.8498692e-08
5.8561064e-07
-2.1387572e-08
5.8892172e-07
-2.4673493e-08
5.9321332e-07
-2.8502131e-08
5.9897065e-07
-3.3517661e-08
6.0839388e-07
-3.9998681e-08
6.2672958e-07
-4.1037329e-08
6.3974457e-07
-2.3362426e-08
5.5279543e-07
2.3211831e-07
1.5991512e-08
1.7046246e-07
3.9072925e-08
5.0232292e-07
4.4021581e-08
6.4764294e-07
3.8193214e-08
6.489999e-07
3.2562926e-08
6.2355635e-07
2.8503808e-08
6.0900091e-07
2.5099101e-08
6.0106182e-07
2.2055999e-08
5.9540094e-07
1.9330564e-08
5.9100788e-07
1.6886607e-08
5.8757778e-07
1.4685062e-08
5.8488567e-07
1.2690246e-08
5.8275973e-07
1.0870155e-08
5.8107484e-07
9.1961789e-09
5.7973945e-07
7.6427496e-09
5.7868564e-07
6.1869273e-09
5.7786291e-07
4.8079722e-09
5.772338e-07
3.486917e-09
5.767709e-07
2.2061456e-09
5.7645479e-07
9.4898439e-10
5.7627262e-07
-3.0069525e-10
5.762172e-07
-1.5588639e-09
5.7628649e-07
-2.8417266e-09
5.7648354e-07
-4.1661139e-09
5.7681663e-07
-5.5498818e-09
5.7729986e-07
-7.0123266e-09
5.7795414e-07
-8.5746126e-09
5.7880872e-07
-1.0260211e-08
5.7990347e-07
-1.2095354e-08
5.8129215e-07
-1.4109457e-08
5.830471e-07
-1.6335476e-08
5.8526663e-07
-1.8810302e-08
5.8808547e-07
-2.1572258e-08
5.9168368e-07
-2.466199e-08
5.9630305e-07
-2.8247294e-08
6.0255595e-07
-3.2951726e-08
6.1309831e-07
-3.837484e-08
6.321527e-07
-3.7074544e-08
6.3844428e-07
-1.9123088e-08
5.3484397e-07
2.1299522e-07
1.239756e-08
1.58066e-07
3.4032955e-08
4.8068939e-07
4.1134427e-08
6.4054223e-07
3.696141e-08
6.5317279e-07
3.183158e-08
6.2868602e-07
2.8063019e-08
6.1276944e-07
2.4931428e-08
6.0419342e-07
2.2096018e-08
5.9823635e-07
1.9511797e-08
5.935921e-07
1.7158025e-08
5.8993155e-07
1.5007962e-08
5.8703573e-07
1.3035196e-08
5.8473249e-07
1.1214988e-08
5.8289505e-07
9.5243782e-09
5.8143005e-07
7.9421449e-09
5.8026788e-07
6.4486705e-09
5.7935639e-07
5.0257646e-09
5.7865671e-07
3.6564359e-09
5.7814023e-07
2.3246358e-09
5.7778659e-07
1.0149883e-09
5.7758227e-07
-2.8748859e-10
5.7751967e-07
-1.5976613e-09
5.7759666e-07
-2.9305678e-09
5.7781644e-07
-4.301699e-09
5.7818776e-07
-5.7272776e-09
5.7872544e-07
-7.2245325e-09
5.7945139e-07
-8.8119581e-09
5.8039614e-07
-1.0509547e-08
5.8160106e-07
-1.2338999e-08
5.831216e-07
-1.432388e-08
5.8503199e-07
-1.6489655e-08
5.874324e-07
-1.886337e-08
5.9045918e-07
-2.1470745e-08
5.9429105e-07
-2.4346053e-08
5.9917836e-07
-2.7682087e-08
6.0589199e-07
-3.202043e-08
6.1743665e-07
-3.631454e-08
6.3644681e-07
-3.3106649e-08
6.3523639e-07
-1.5498722e-08
5.1723604e-07
1.974965e-07
9.6283821e-09
1.4843891e-07
2.955371e-08
4.6076642e-07
3.8147489e-08
6.319496e-07
3.5517355e-08
6.5580285e-07
3.0926247e-08
6.3327693e-07
2.7427028e-08
6.1626862e-07
2.455173e-08
6.0706872e-07
2.192639e-08
6.0086169e-07
1.9495328e-08
5.9602316e-07
1.7248399e-08
5.9217848e-07
1.516886e-08
5.8911527e-07
1.3238017e-08
5.8666334e-07
1.1437421e-08
5.8469565e-07
9.7492273e-09
5.8311825e-07
8.1563142e-09
5.8186079e-07
6.6423414e-09
5.8087036e-07
5.1917447e-09
5.801073e-07
3.7896602e-09
5.7954231e-07
2.4218036e-09
5.7915445e-07
1.074318e-09
5.7892975e-07
-2.6639747e-10
5.7886039e-07
-1.6138668e-09
5.7894413e-07
-2.9817261e-09
5.791843e-07
-4.3839045e-09
5.7958994e-07
-5.8347949e-09
5.8017633e-07
-7.3494067e-09
5.8096601e-07
-8.9434896e-09
5.8199023e-07
-1.0633609e-08
5.8329118e-07
-1.2437177e-08
5.8492517e-07
-1.4372438e-08
5.8696725e-07
-1.6458301e-08
5.8951826e-07
-1.8713431e-08
5.9271431e-07
-2.1153594e-08
5.9673121e-07
-2.3812824e-08
6.0183759e-07
-2.6904958e-08
6.0898412e-07
-3.0841634e-08
6.2137333e-07
-3.4021682e-08
6.3962685e-07
-2.9338507e-08
6.3055321e-07
-1.2484497e-08
5.0038203e-07
1.85012e-07
7.5351232e-09
1.4090533e-07
2.5682708e-08
4.4262176e-07
3.5231434e-08
6.2240249e-07
3.3970648e-08
6.5706368e-07
2.9929563e-08
6.3731775e-07
2.667547e-08
6.1952263e-07
2.4029387e-08
6.097148e-07
2.1604627e-08
6.0328645e-07
1.9328193e-08
5.9829959e-07
1.7195562e-08
5.9431111e-07
1.5197697e-08
5.9111314e-07
1.3322091e-08
5.8853894e-07
1.1555499e-08
5.8646224e-07
9.8844765e-09
5.8478927e-07
8.2955734e-09
5.8344969e-07
6.7755038e-09
5.8239043e-07
5.311246e-09
5.8157156e-07
3.890075e-09
5.8096349e-07
2.4995424e-09
5.8054498e-07
1.1274205e-09
5.8030188e-07
-2.3838027e-10
5.8022619e-07
-1.6099055e-09
5.8031565e-07
-2.9992599e-09
5.8057366e-07
-4.4187021e-09
5.8100938e-07
-5.8807251e-09
5.8163835e-07
-7.3981111e-09
5.8248339e-07
-8.9839514e-09
5.8357607e-07
-1.0651612e-08
5.8495884e-07
-1.2414642e-08
5.866882e-07
-1.4286655e-08
5.8883926e-07
-1.6281023e-08
5.9151263e-07
-1.8409564e-08
5.9484285e-07
-2.0681062e-08
5.9900271e-07
-2.3134328e-08
6.0429085e-07
-2.5995831e-08
6.1184563e-07
-2.951607e-08
6.2489357e-07
-3.1657619e-08
6.417684e-07
-2.589218e-08
6.2478777e-07
-1.0033611e-08
4.8452346e-07
1.7497839e-07
5.9771926e-09
1.3492996e-07
2.2398045e-08
4.2620448e-07
3.2487908e-08
6.1231482e-07
3.2401449e-08
6.5715034e-07
2.8901249e-08
6.4081763e-07
2.5868138e-08
6.2255563e-07
2.3419408e-08
6.1216353e-07
2.1178018e-08
6.0552785e-07
1.9050321e-08
6.0042729e-07
1.7032717e-08
5.9632871e-07
1.5121643e-08
5.9302421e-07
1.3309327e-08
5.9035126e-07
1.158664e-08
5.8818492e-07
9.9437648e-09
5.8643215e-07
8.3704101e-09
5.8502305e-07
6.8560159e-09
5.8390482e-07
5.3899131e-09
5.8303766e-07
3.9614227e-09
5.8239198e-07
2.5599075e-09
5.819465e-07
1.1747864e-09
5.81687e-07
-2.0447734e-10
5.8160545e-07
-1.5884021e-09
5.8169958e-07
-2.9875212e-09
5.8197277e-07
-4.4124078e-09
5.8243427e-07
-5.8736835e-09
5.8309963e-07
-7.382001e-09
5.8399171e-07
-8.9479888e-09
5.8514205e-07
-1.0582146e-08
5.8659299e-07
-1.2294682e-08
5.8840073e-07
-1.4095341e-08
5.9063992e-07
-1.599302e-08
5.9341031e-07
-1.7994276e-08
5.9684411e-07
-2.0103968e-08
6.0111241e-07
-2.2369143e-08
6.0655603e-07
-2.5017847e-08
6.1449433e-07
-2.812397e-08
6.2799969e-07
-2.9336234e-08
6.4298067e-07
-2.2822664e-08
6.182742e-07
-8.0774959e-09
4.697783e-07
1.6690089e-07
4.8318815e-09
1.3010027e-07
1.9641064e-08
4.1139963e-07
2.996497e-08
6.0199379e-07
3.0861807e-08
6.5625395e-07
2.7880416e-08
6.4379867e-07
2.5046925e-08
6.2538894e-07
2.2763566e-08
6.1444688e-07
2.0684307e-08
6.0760712e-07
1.8694713e-08
6.0241689e-07
1.6788172e-08
5.9823526e-07
1.4964545e-08
5.9484784e-07
1.3219483e-08
5.9209632e-07
1.1546953e-08
5.8985745e-07
9.940006e-09
5.8803909e-07
8.390964e-09
5.8657209e-07
6.8916141e-09
5.8540417e-07
5.4333862e-09
5.8449589e-07
4.0074862e-09
5.8381788e-07
2.6049916e-09
5.8334899e-07
1.2169151e-09
5.8307507e-07
-1.657566e-10
5.8298812e-07
-1.5520364e-09
5.8308586e-07
-2.9509171e-09
5.8337166e-07
-4.3713428e-09
5.8385469e-07
-5.8221664e-09
5.8455045e-07
-7.3120798e-09
5.8548162e-07
-8.8495125e-09
5.8667949e-07
-1.0442489e-08
5.8818597e-07
-1.2098442e-08
5.9005669e-07
-1.3824026e-08
5.923655e-07
-1.5624698e-08
5.9521098e-07
-1.7503279e-08
5.9872269e-07
-1.946348e-08
6.0307261e-07
-2.1562229e-08
6.0865477e-07
-2.4017279e-08
6.1694938e-07
-2.6723693e-08
6.3070611e-07
-2.7129297e-08
6.4338627e-07
-2.0139079e-08
6.1128399e-07
-6.5404152e-09
4.5617963e-07
1.6036048e-07
3.9968371e-09
1.2610604e-07
1.7339194e-08
3.9806249e-07
2.7676375e-08
5.9166031e-07
2.9382044e-08
6.5454905e-07
2.6889866e-08
6.4629046e-07
2.42386e-08
6.2803997e-07
2.2091633e-08
6.1659381e-07
2.0152241e-08
6.0954652e-07
1.8287646e-08
6.0428148e-07
1.6485293e-08
6.0003761e-07
1.4746698e-08
5.9658643e-07
1.3069824e-08
5.9377319e-07
1.1450849e-08
5.9147643e-07
9.8849954e-09
5.8960495e-07
8.3666677e-09
5.8809042e-07
6.8896092e-09
5.8688123e-07
5.4470643e-09
5.8593844e-07
4.031921e-09
5.8523302e-07
2.6368284e-09
5.8474408e-07
1.2542889e-09
5.8445761e-07
-1.2326885e-10
5.8436568e-07
-1.5034268e-09
5.8446602e-07
-2.893721e-09
5.8476195e-07
-4.3015755e-09
5.8526255e-07
-5.7342251e-09
5.859831e-07
-7.1986151e-09
5.8694601e-07
-8.7012755e-09
5.8818215e-07
-1.0248167e-08
5.8973286e-07
-1.1844505e-08
5.9165302e-07
-1.3494586e-08
5.9401558e-07
-1.5201359e-08
5.9691776e-07
-1.6965275e-08
6.004866e-07
-1.879116e-08
6.0489849e-07
-2.0745836e-08
6.1060945e-07
-2.3025638e-08
6.1922918e-07
-2.5354581e-08
6.3303505e-07
-2.5076218e-08
6.4310791e-07
-1.7822666e-08
6.0403044e-07
-5.3479438e-09
4.4370491e-07
1.5501253e-07
3.3894013e-09
1.2271977e-07
1.5418545e-08
3.8603958e-07
2.5615298e-08
5.8146822e-07
2.797726e-08
6.5218829e-07
2.5941054e-08
6.4832628e-07
2.3458612e-08
6.3052211e-07
2.1423521e-08
6.1862885e-07
1.9602695e-08
6.1136735e-07
1.7849231e-08
6.0603495e-07
1.6142711e-08
6.0174413e-07
1.4484833e-08
5.9824431e-07
1.2874986e-08
5.9538304e-07
1.1310839e-08
5.9304058e-07
9.7891813e-09
5.911266e-07
8.3060221e-09
5.8957357e-07
6.8566851e-09
5.8833057e-07
5.4359399e-09
5.8735918e-07
4.0381357e-09
5.8663082e-07
2.6573222e-09
5.861249e-07
1.2873548e-09
5.8582758e-07
-7.8012853e-11
5.8573105e-07
-1.4450431e-09
5.8583305e-07
-2.8199353e-09
5.8613684e-07
-4.2087357e-09
5.8665135e-07
-5.6172411e-09
5.8739161e-07
-7.050885e-09
5.8837966e-07
-8.514605e-09
5.8964587e-07
-1.0012699e-08
5.9123096e-07
-1.1548675e-08
5.93189e-07
-1.3125115e-08
5.9559202e-07
-1.4743255e-08
5.985359e-07
-1.640234e-08
6.0214569e-07
-1.8110002e-08
6.0660615e-07
-1.9941706e-08
6.1244115e-07
-2.206293e-08
6.2135041e-07
-2.4041065e-08
6.3501318e-07
-2.3193491e-08
6.4226033e-07
-1.5839243e-08
5.9667619e-07
-4.4316449e-09
4.3229731e-07
1.5058089e-07
2.9449683e-09
1.1977855e-07
1.381058e-08
3.7518139e-07
2.3763678e-08
5.7152094e-07
2.6652283e-08
6.4930142e-07
2.5037937e-08
6.4994027e-07
2.2714522e-08
6.3284513e-07
2.077167e-08
6.2057162e-07
1.9050181e-08
6.1308885e-07
1.7394326e-08
6.0769081e-07
1.5774817e-08
6.0336364e-07
1.4192344e-08
5.9982678e-07
1.2647036e-08
5.9692835e-07
1.1137489e-08
5.9455012e-07
9.6615703e-09
5.9260252e-07
8.21648e-09
5.9101866e-07
6.7987826e-09
5.8974827e-07
5.4044987e-09
5.8875346e-07
4.0292162e-09
5.8800611e-07
2.6682031e-09
5.8748591e-07
1.3165141e-09
5.8717927e-07
-3.0909796e-11
5.8707847e-07
-1.3791472e-09
5.8718128e-07
-2.7331999e-09
5.8749089e-07
-4.0978969e-09
5.8801605e-07
-5.4777897e-09
5.887715e-07
-6.8770359e-09
5.897789e-07
-8.2992757e-09
5.9106811e-07
-9.7475083e-09
5.9267919e-07
-1.1223984e-08
5.9466548e-07
-1.2730104e-08
5.9709814e-07
-1.4266044e-08
6.0007184e-07
-1.5830803e-08
6.0371045e-07
-1.7435951e-08
6.082113e-07
-1.9163442e-08
6.1416864e-07
-2.1140523e-08
6.2332749e-07
-2.2796199e-08
6.3666886e-07
-2.1481955e-08
6.4094609e-07
-1.4147588e-08
5.8934182e-07
-3.7316137e-09
4.2188134e-07
1.4684927e-07
2.6147289e-09
1.171683e-07
1.2455489e-08
3.6534945e-07
2.2098565e-08
5.6188501e-07
2.5405417e-08
6.4599698e-07
2.4179679e-08
6.5116572e-07
2.2008563e-08
6.3501576e-07
2.014305e-08
6.2243701e-07
1.8504297e-08
6.1472761e-07
1.6933542e-08
6.0926158e-07
1.5392416e-08
6.0490477e-07
1.3879681e-08
6.0133952e-07
1.2395675e-08
5.9841235e-07
1.0939508e-08
5.9600629e-07
9.5097392e-09
5.9403229e-07
8.1044166e-09
5.9242399e-07
6.7210527e-09
5.9113163e-07
5.3566702e-09
5.9011785e-07
4.0078849e-09
5.8935489e-07
2.6710024e-09
5.8882279e-07
1.3421168e-09
5.8850815e-07
1.7209146e-11
5.8840338e-07
-1.3077576e-09
5.8850625e-07
-2.6367396e-09
5.8881988e-07
-3.9735143e-09
5.8935282e-07
-5.3215782e-09
5.9011957e-07
-6.6840383e-09
5.9114136e-07
-8.0635054e-09
5.9244757e-07
-9.4619996e-09
5.9407768e-07
-1.0880887e-08
5.9608436e-07
-1.2320818e-08
5.9853807e-07
-1.3781429e-08
6.0153245e-07
-1.5262234e-08
6.0519125e-07
-1.6779344e-08
6.0972841e-07
-1.8418481e-08
6.1580778e-07
-2.0263409e-08
6.2517242e-07
-2.162468e-08
6.3803013e-07
-1.9932586e-08
6.3925399e-07
-1.2705067e-08
5.821143e-07
-3.1974544e-09
4.1237372e-07
1.4365182e-07
2.3629735e-09
1.1481069e-07
1.1303297e-08
3.5641956e-07
2.0596199e-08
5.5260081e-07
2.4231335e-08
6.423651e-07
2.3362649e-08
6.5203426e-07
2.1339527e-08
6.3703831e-07
1.9540733e-08
6.2423562e-07
1.7970924e-08
6.1629741e-07
1.6474145e-08
6.1075837e-07
1.500338e-08
6.0637553e-07
1.355479e-08
6.0278811e-07
1.2128527e-08
5.9983862e-07
1.0723918e-08
5.974109e-07
9.3399235e-09
5.9541629e-07
7.9751667e-09
5.9378874e-07
6.6278631e-09
5.9247893e-07
5.2958203e-09
5.9144989e-07
3.9764902e-09
5.9067422e-07
2.6670448e-09
5.9013224e-07
1.364462e-09
5.8981074e-07
6.5615903e-11
5.8970223e-07
-1.2326332e-09
5.898045e-07
-2.5333459e-09
5.9012059e-07
-3.83941e-09
5.9065889e-07
-5.1534467e-09
5.914336e-07
-6.4777173e-09
5.9246563e-07
-7.8140382e-09
5.9378389e-07
-9.1637193e-09
5.9542736e-07
-1.0527544e-08
5.9744819e-07
-1.1905744e-08
5.9991628e-07
-1.3297814e-08
6.0292452e-07
-1.4704355e-08
6.0659779e-07
-1.6146167e-08
6.1117022e-07
-1.7709741e-08
6.1737136e-07
-1.9432093e-08
6.2689477e-07
-2.0525533e-08
6.3912357e-07
-1.8531012e-08
6.3725947e-07
-1.1471317e-08
5.7505461e-07
-2.7881527e-09
4.0369056e-07
1.4086367e-07
2.1643529e-09
1.1265276e-07
1.0313487e-08
3.4828275e-07
1.9234305e-08
5.4369051e-07
2.3123121e-08
6.3848055e-07
2.2581895e-08
6.5257554e-07
2.0704195e-08
6.3891534e-07
1.8965138e-08
6.2597444e-07
1.7453222e-08
6.1780931e-07
1.602083e-08
6.1219077e-07
1.4613237e-08
6.0778313e-07
1.3223547e-08
6.041778e-07
1.1851441e-08
6.0121072e-07
1.0496258e-08
5.9876608e-07
9.1571481e-09
5.967554e-07
7.8331031e-09
5.9511279e-07
6.5228418e-09
5.9378919e-07
5.2247727e-09
5.9274796e-07
3.9370152e-09
5.9196198e-07
2.6574521e-09
5.914118e-07
1.3837996e-09
5.9108439e-07
1.1368486e-10
5.9097234e-07
-1.1552742e-09
5.9107346e-07
-2.4253835e-09
5.913907e-07
-3.6987922e-09
5.9193229e-07
-4.97741e-09
5.9271222e-07
-6.2628323e-09
5.9375106e-07
-7.55628e-09
5.9507734e-07
-8.8585706e-09
5.9672965e-07
-1.0170138e-08
5.9875976e-07
-1.1491042e-08
6.0123718e-07
-1.2820927e-08
6.042544e-07
-1.4161879e-08
6.0793875e-07
-1.5539162e-08
6.1254751e-07
-1.7037008e-08
6.188692e-07
-1.8644178e-08
6.2850194e-07
-1.9494303e-08
6.399737e-07
-1.726068e-08
6.3502585e-07
-1.0410322e-08
5.6820425e-07
-2.4712644e-09
3.957515e-07
1.383924e-07
2.0014105e-09
1.1065907e-07
9.4538895e-09
3.4084482e-07
1.7993131e-08
5.351639e-07
2.2073558e-08
6.3440562e-07
2.1832124e-08
6.5281731e-07
2.0098359e-08
6.4064835e-07
1.8414996e-08
6.2765748e-07
1.6952427e-08
6.1927185e-07
1.5576371e-08
6.1356684e-07
1.4225684e-08
6.0913382e-07
1.2890158e-08
6.0551333e-07
1.1568789e-08
6.0253209e-07
1.0260796e-08
6.0007408e-07
8.9653786e-09
5.9805081e-07
7.6817388e-09
5.9639643e-07
6.4089434e-09
5.9506199e-07
5.1458505e-09
5.9401105e-07
3.8911024e-09
5.9321673e-07
2.6431559e-09
5.9265975e-07
1.4003333e-09
5.9232721e-07
1.6088696e-10
5.9221179e-07
-1.0769352e-09
5.9231128e-07
-2.3148155e-09
5.9262858e-07
-3.5542995e-09
5.9317178e-07
-4.7967289e-09
5.9395465e-07
-6.0431863e-09
5.9499751e-07
-7.2944597e-09
5.9632862e-07
-8.551045e-09
5.9798624e-07
-9.8131989e-09
6.0002191e-07
-1.1080981e-08
6.0250496e-07
-1.2354393e-08
6.0552781e-07
-1.3637256e-08
6.0922161e-07
-1.4958785e-08
6.1386904e-07
-1.6398065e-08
6.2030848e-07
-1.7895595e-08
6.2999947e-07
-1.8524685e-08
6.4060279e-07
-1.6104791e-08
6.3260596e-07
-9.4908908e-09
5.6159035e-07
-2.221687e-09
3.884823e-07
1.3617072e-07
1.8625014e-09
1.0880583e-07
8.6993247e-09
3.3402514e-07
1.6855741e-08
5.2702256e-07
2.1075826e-08
6.3019249e-07
2.1108269e-08
6.5278561e-07
1.9517501e-08
6.4223829e-07
1.788806e-08
6.2928651e-07
1.646849e-08
6.2069137e-07
1.5142159e-08
6.1489319e-07
1.3843037e-08
6.1043295e-07
1.2557512e-08
6.0679885e-07
1.1283744e-08
6.0380586e-07
1.0020746e-08
6.0133707e-07
8.7676778e-09
5.9930388e-07
7.52384e-09
5.9764027e-07
6.2885282e-09
5.962973e-07
5.0609289e-09
5.9523865e-07
3.8400871e-09
5.9443757e-07
2.6249154e-09
5.9387492e-07
1.4142272e-09
5.935379e-07
2.0678545e-10
5.9341923e-07
-9.9864556e-10
5.9351671e-07
-2.20324e-09
5.9383317e-07
-3.4080583e-09
5.943766e-07
-4.6139963e-09
5.9516059e-07
-5.82175e-09
5.9620527e-07
-7.0318031e-09
5.9753867e-07
-8.2444578e-09
5.9919889e-07
-9.4599155e-09
6.0123737e-07
-1.0678348e-08
6.0372339e-07
-1.1900255e-08
6.0674972e-07
-1.3131307e-08
6.1045266e-07
-1.4403962e-08
6.1514169e-07
-1.5789538e-08
6.2169406e-07
-1.7181477e-08
6.3139141e-07
-1.7609634e-08
6.4103094e-07
-1.5047491e-08
6.3004381e-07
-8.6867721e-09
5.5522963e-07
-2.0204486e-09
3.8181598e-07
1.3415027e-07
1.7401062e-09
1.0707683e-07
8.0302475e-09
3.2775521e-07
1.58079e-08
5.1926281e-07
2.0123836e-08
6.2588524e-07
2.0405778e-08
6.5250492e-07
1.8957188e-08
6.4368599e-07
1.7381585e-08
6.308616e-07
1.6000532e-08
6.2207234e-07
1.4718615e-08
6.1617512e-07
1.346659e-08
6.1168498e-07
1.2227491e-08
6.0803795e-07
1.0998526e-08
6.0503482e-07
9.778462e-09
6.0255714e-07
8.5663577e-09
6.0051599e-07
7.3615403e-09
5.9884508e-07
6.1634457e-09
5.974954e-07
4.9714939e-09
5.964306e-07
3.7850349e-09
5.9562403e-07
2.6033386e-09
5.9505662e-07
1.4256107e-09
5.9471563e-07
2.5102597e-10
5.9459381e-07
-9.2123357e-10
5.9468897e-07
-2.0919335e-09
5.9500387e-07
-3.2617491e-09
5.9554641e-07
-4.4312316e-09
5.9633007e-07
-5.6007909e-09
5.9737483e-07
-6.7707047e-09
5.9870858e-07
-7.9411732e-09
6.0036936e-07
-9.1124216e-09
6.0240862e-07
-1.0284802e-08
6.0489577e-07
-1.1459399e-08
6.0792432e-07
-1.2643744e-08
6.11637e-07
-1.3872688e-08
6.1637064e-07
-1.5207504e-08
6.2302887e-07
-1.6496765e-08
6.3268067e-07
-1.6742118e-08
6.412763e-07
-1.4074498e-08
6.2737619e-07
-7.9763328e-09
5.4913146e-07
-1.8535381e-09
3.7569318e-07
1.3229673e-07
1.6295225e-09
1.0546057e-07
7.4315247e-09
3.2197703e-07
1.4837757e-08
5.1187776e-07
1.9212323e-08
6.2152141e-07
1.9720726e-08
6.5199844e-07
1.8413307e-08
6.4499249e-07
1.6892645e-08
6.3238163e-07
1.554718e-08
6.2341768e-07
1.430551e-08
6.174168e-07
1.3096908e-08
6.1289359e-07
1.1901218e-08
6.0923364e-07
1.0714624e-08
6.0622142e-07
9.5356128e-09
6.0373615e-07
8.3631202e-09
6.0168848e-07
7.1964506e-09
6.0001175e-07
6.0351172e-09
5.9865673e-07
4.8787019e-09
5.9758702e-07
3.7267821e-09
5.9677595e-07
2.5789042e-09
5.9620449e-07
1.4345844e-09
5.9585995e-07
2.9332624e-10
5.9573507e-07
-8.4535407e-10
5.9582765e-07
-1.9818966e-09
5.9614042e-07
-3.1166742e-09
5.9668119e-07
-4.2499743e-09
5.9746337e-07
-5.3819983e-09
5.9850685e-07
-6.5128898e-09
5.9983947e-07
-7.6428084e-09
6.0149928e-07
-8.7720495e-09
6.0353786e-07
-9.9011812e-09
6.0602491e-07
-1.1031914e-08
6.0905505e-07
-1.2173566e-08
6.1277866e-07
-1.3362458e-08
6.1755953e-07
-1.4647926e-08
6.2431434e-07
-1.5836608e-08
6.3386935e-07
-1.5915568e-08
6.4135526e-07
-1.3173356e-08
6.2463398e-07
-7.3420231e-09
5.4330013e-07
-1.7108298e-09
3.7006199e-07
1.305859e-07
1.527894e-09
1.0394849e-07
6.8913999e-09
3.1664159e-07
1.3935462e-08
5.0485869e-07
1.8336804e-08
6.171332e-07
1.9049813e-08
6.5128819e-07
1.7882158e-08
6.4615922e-07
1.6418333e-08
6.338447e-07
1.5106793e-08
6.2472904e-07
1.3902197e-08
6.186214e-07
1.2734045e-08
6.1406176e-07
1.1579266e-08
6.1038843e-07
1.0432965e-08
6.0736772e-07
9.2933368e-09
6.0487578e-07
8.1591832e-09
6.0282263e-07
7.0297593e-09
6.0114118e-07
5.9046135e-09
5.9978188e-07
4.7834364e-09
5.987082e-07
3.6659734e-09
5.9789341e-07
2.5519833e-09
5.9731848e-07
1.4412259e-09
5.9697071e-07
3.3346545e-10
5.9684283e-07
-7.7151583e-10
5.9693263e-07
-1.8739002e-09
5.972428e-07
-2.9738242e-09
5.9778111e-07
-4.071374e-09
5.9856092e-07
-5.1666001e-09
5.9960208e-07
-6.2595613e-09
6.0093244e-07
-7.3504138e-09
6.0259013e-07
-8.4395441e-09
6.0462699e-07
-9.5277465e-09
6.0711311e-07
-1.0617369e-08
6.1014467e-07
-1.1719372e-08
6.1388066e-07
-1.2870589e-08
6.1871074e-07
-1.410693e-08
6.2555068e-07
-1.5196602e-08
6.3495902e-07
-1.5124125e-08
6.4128278e-07
-1.2333444e-08
6.218433e-07
-6.7697689e-09
5.3773646e-07
-1.5851528e-09
3.6487737e-07
1.2900075e-07
1.4335209e-09
1.0253374e-07
6.4006591e-09
3.1170754e-07
1.3092783e-08
4.9819595e-07
1.7493469e-08
6.1274845e-07
1.8390305e-08
6.5039516e-07
1.7360496e-08
6.4718817e-07
1.5955879e-08
6.3524842e-07
1.4677625e-08
6.2600706e-07
1.3507776e-08
6.1979125e-07
1.2377723e-08
6.1519182e-07
1.1261819e-08