/*--------------------------------*- C++ -*----------------------------------*\
  =========                 |
  \\      /  F ield         | OpenFOAM: The Open Source CFD Toolbox
   \\    /   O peration     | Website:  https://openfoam.org
    \\  /    A nd           | Version:  10
     \\/     M anipulation  |
\*---------------------------------------------------------------------------*/
FoamFile
{
    format      ascii;
    class       volScalarField;
    location    "0.13";
    object      T;
}
// * * * * * * * * * * * * * * * * * * * * * * * * * * * * * * * * * * * * * //

dimensions      [0 0 0 1 0 0 0];

internalField   nonuniform List<scalar> 
4000
(
303.10131
299.34294
299.99042
300.00082
299.99993
300
300
300
300
300
300
300
300
300
300
300
300
300
300
300
300
300
300
300
300
300
300
300
300
300
300
300
300
300
300
300
300
300
300
300.00001
309.6632
298.49306
299.77925
300.00184
300.0008
299.99999
300
300
300
300
300
300
300
300
300
300
300
300
300
300
300
300
300
300
300
300
300
300
300
300
300
300
300
300
300
300
300
300
299.99999
300.00002
316.0036
298.68459
299.39232
299.9757
300.00405
300.00025
299.99999
300
300
300
300
300
300
300
300
300
300
300
300
300
300
300
300
300
300
300
300
300
300
300
300
300
300
300
300
300
300
299.99999
299.99999
300.00002
321.74105
299.84564
298.98503
299.89496
300.00715
300.00138
300
299.99999
300
300
300
300
300
300
300
300
300
300
300
300
300
300
300
300
300
300
300
300
300
300
300
300
300
300
300
300
299.99999
299.99999
299.99999
300.00003
326.66908
301.69962
298.7103
299.75327
300.00322
300.00378
300.00017
299.99998
300
300
300
300
300
300
300
300
300
300
300
300
300
300
300
300
300
300
300
300
300
300
300
300
300
300
299.99999
299.99999
299.99999
299.99998
299.99999
300.00004
330.68211
303.94621
298.6635
299.5686
299.98429
300.00695
300.00071
299.99996
299.99999
300
300
300
300
300
300
300
300
300
300
300
300
300
300
300
300
300
300
300
300
300
300
300
300
299.99999
299.99999
299.99999
299.99999
299.99998
300
300.00004
333.77044
306.32764
298.87084
299.37419
299.94525
300.00936
300.0018
300
299.99998
299.99999
300
300
300
300
300
300
300
300
300
300
300
300
300
300
300
300
300
300
300
300
300
300
299.99999
299.99999
299.99999
299.99999
299.99998
299.99998
300
300.00004
336.01686
308.65937
299.30714
299.20451
299.88599
300.00888
300.00344
300.00014
299.99996
299.99999
300
300
300
300
300
300
300
300
300
300
300
300
300
300
300
300
300
300
300
300
300
299.99999
299.99999
299.99999
299.99999
299.99999
299.99998
299.99998
300.00001
300.00004
337.56795
310.83058
299.92259
299.08545
299.81088
300.00352
300.00539
300.00045
299.99995
299.99999
299.99999
300
300
300
300
300
300
300
300
300
300
300
300
300
300
300
300
300
300
300
299.99999
299.99999
299.99999
299.99999
299.99999
299.99998
299.99998
299.99998
300.00001
300.00004
338.59502
312.7885
300.6626
299.03144
299.72696
299.99197
300.00721
300.00099
299.99996
299.99998
299.99999
299.99999
300
300
300
300
300
300
300
300
300
300
300
300
300
300
300
300
300
299.99999
299.99999
299.99999
299.99999
299.99999
299.99999
299.99998
299.99998
299.99998
300.00002
300.00004
339.2607
314.52021
301.47847
299.0468
299.64195
299.97382
300.00836
300.00174
300
299.99996
299.99999
299.99999
299.99999
300
300
300
300
300
300
300
300
300
300
300
300
300
300
300
299.99999
299.99999
299.99999
299.99999
299.99999
299.99999
299.99998
299.99998
299.99998
299.99999
300.00002
300.00004
339.69823
316.03694
302.33177
299.12882
299.56287
299.94953
300.0083
300.00265
300.00011
299.99995
299.99999
299.99999
299.99999
299.99999
299.99999
300
300
300
300
300
300
300
300
300
300
300
299.99999
299.99999
299.99999
299.99999
299.99999
299.99999
299.99999
299.99999
299.99998
299.99998
299.99998
299.99999
300.00002
300.00004
340.00411
317.36206
303.1948
299.27072
299.49528
299.92021
300.00659
300.00364
300.00029
299.99995
299.99998
299.99999
299.99999
299.99999
299.99999
299.99999
300
300
300
300
300
300
300
300
300
299.99999
299.99999
299.99999
299.99999
299.99999
299.99999
299.99999
299.99999
299.99999
299.99998
299.99998
299.99998
299.99999
300.00003
300.00004
340.24093
318.52297
304.04908
299.46404
299.4431
299.88731
300.00294
300.00456
300.00055
299.99995
299.99998
299.99999
299.99999
299.99999
299.99999
299.99999
299.99999
299.99999
299.99999
300
300
300
299.99999
299.99999
299.99999
299.99999
299.99999
299.99999
299.99999
299.99999
299.99999
299.99999
299.99999
299.99998
299.99998
299.99998
299.99998
299.99999
300.00003
300.00003
340.44507
319.54642
304.88316
299.70014
299.40875
299.85244
299.99722
300.00528
300.00088
299.99997
299.99997
299.99999
299.99999
299.99999
299.99999
299.99999
299.99999
299.99999
299.99999
299.99999
299.99999
299.99999
299.99999
299.99999
299.99999
299.99999
299.99999
299.99999
299.99999
299.99999
299.99999
299.99999
299.99999
299.99998
299.99998
299.99997
299.99998
300
300.00003
300.00003
340.63521
320.45611
305.69056
299.97101
299.39344
299.8172
299.98946
300.00567
300.00127
300.00001
299.99996
299.99999
299.99999
299.99999
299.99999
299.99999
299.99999
299.99999
299.99999
299.99999
299.99999
299.99999
299.99999
299.99999
299.99999
299.99999
299.99999
299.99999
299.99999
299.99999
299.99999
299.99999
299.99998
299.99998
299.99998
299.99997
299.99998
300
300.00003
300.00003
340.81933
321.27192
306.46808
300.2696
299.39747
299.78303
299.97979
300.0056
300.00169
300.00008
299.99996
299.99998
299.99999
299.99999
299.99999
299.99999
299.99999
299.99999
299.99999
299.99999
299.99999
299.99999
299.99999
299.99999
299.99999
299.99999
299.99999
299.99999
299.99999
299.99999
299.99999
299.99999
299.99998
299.99998
299.99998
299.99997
299.99998
300
300.00003
300.00003
340.99967
322.00993
307.21452
300.58991
299.42051
299.75123
299.96847
300.00498
300.00212
300.00017
299.99996
299.99998
299.99999
299.99999
299.99999
299.99999
299.99999
299.99999
299.99999
299.99999
299.99999
299.99999
299.99999
299.99999
299.99999
299.99999
299.99999
299.99999
299.99999
299.99999
299.99999
299.99999
299.99998
299.99998
299.99998
299.99997
299.99998
300.00001
300.00003
300.00003
341.1758
322.68276
307.92987
300.9269
299.4618
299.72286
299.95578
300.00373
300.00251
300.00029
299.99996
299.99998
299.99999
299.99999
299.99999
299.99999
299.99999
299.99999
299.99999
299.99999
299.99999
299.99999
299.99999
299.99999
299.99999
299.99999
299.99999
299.99999
299.99999
299.99999
299.99999
299.99998
299.99998
299.99998
299.99998
299.99997
299.99998
300.00001
300.00003
300.00003
341.34635
323.3002
308.61475
301.27633
299.52033
299.69882
299.94209
300.00181
300.00284
300.00043
299.99997
299.99998
299.99999
299.99999
299.99999
299.99999
299.99999
299.99999
299.99999
299.99999
299.99999
299.99999
299.99999
299.99999
299.99999
299.99999
299.99999
299.99999
299.99999
299.99999
299.99999
299.99998
299.99998
299.99998
299.99997
299.99997
299.99999
300.00001
300.00003
300.00003
341.50986
323.86977
309.27002
301.63466
299.59491
299.67979
299.92776
299.99922
300.00306
300.00059
299.99999
299.99997
299.99999
299.99999
299.99999
299.99999
299.99999
299.99999
299.99999
299.99999
299.99999
299.99999
299.99999
299.99999
299.99999
299.99999
299.99999
299.99999
299.99999
299.99999
299.99999
299.99998
299.99998
299.99998
299.99997
299.99997
299.99999
300.00001
300.00003
300.00003
341.66516
324.39724
309.89665
301.99892
299.68427
299.6663
299.91316
299.99597
300.00314
300.00076
300.00002
299.99997
299.99998
299.99999
299.99999
299.99999
299.99999
299.99999
299.99999
299.99999
299.99999
299.99999
299.99999
299.99999
299.99999
299.99999
299.99999
299.99999
299.99999
299.99999
299.99998
299.99998
299.99998
299.99998
299.99997
299.99998
299.99999
300.00002
300.00003
300.00003
341.81144
324.88705
310.49557
302.36658
299.78713
299.65873
299.89867
299.9921
300.00306
300.00093
300.00005
299.99997
299.99998
299.99999
299.99999
299.99999
299.99999
299.99999
299.99999
299.99999
299.99999
299.99999
299.99999
299.99999
299.99999
299.99999
299.99999
299.99999
299.99999
299.99999
299.99998
299.99998
299.99998
299.99998
299.99997
299.99998
299.99999
300.00002
300.00003
300.00003
341.94823
325.34262
311.06765
302.73544
299.90216
299.65731
299.88463
299.98765
300.00278
300.00109
300.0001
299.99997
299.99998
299.99999
299.99999
299.99999
299.99999
299.99999
299.99999
299.99999
299.99999
299.99999
299.99999
299.99999
299.99999
299.99999
299.99999
299.99999
299.99999
299.99998
299.99998
299.99998
299.99998
299.99998
299.99997
299.99998
299.99999
300.00002
300.00003
300.00003
342.07531
325.76664
311.61366
303.10362
300.02808
299.66217
299.87137
299.98272
300.0023
300.00124
300.00015
299.99998
299.99998
299.99999
299.99999
299.99999
299.99999
299.99999
299.99999
299.99999
299.99999
299.99999
299.99999
299.99999
299.99999
299.99999
299.99999
299.99999
299.99999
299.99998
299.99998
299.99998
299.99998
299.99998
299.99997
299.99998
299.99999
300.00002
300.00003
300.00003
342.19262
326.16119
312.13424
303.46947
300.16361
299.67334
299.8592
299.97738
300.00159
300.00136
300.0002
299.99998
299.99998
299.99998
299.99999
299.99999
299.99999
299.99999
299.99999
299.99999
299.99999
299.99999
299.99999
299.99999
299.99999
299.99999
299.99999
299.99999
299.99998
299.99998
299.99998
299.99998
299.99998
299.99997
299.99997
299.99998
300
300.00002
300.00003
300.00003
342.30017
326.52791
312.62994
303.8315
300.30752
299.69075
299.84839
299.97173
300.00066
300.00144
300.00026
299.99999
299.99998
299.99998
299.99999
299.99999
299.99999
299.99999
299.99999
299.99999
299.99999
299.99999
299.99999
299.99999
299.99999
299.99999
299.99999
299.99998
299.99998
299.99998
299.99998
299.99998
299.99998
299.99997
299.99997
299.99998
300
300.00002
300.00003
300.00003
342.398
326.86803
313.10119
304.18839
300.45861
299.71426
299.83918
299.96588
299.9995
300.00148
300.00033
300
299.99998
299.99998
299.99998
299.99999
299.99999
299.99999
299.99999
299.99999
299.99999
299.99999
299.99999
299.99999
299.99999
299.99999
299.99998
299.99998
299.99998
299.99998
299.99998
299.99998
299.99998
299.99997
299.99997
299.99998
300
300.00002
300.00003
300.00003
342.48611
327.18245
313.54829
304.53892
300.6157
299.74367
299.83176
299.95994
299.99813
300.00146
300.00039
300.00001
299.99998
299.99998
299.99998
299.99998
299.99999
299.99999
299.99999
299.99999
299.99999
299.99999
299.99999
299.99999
299.99999
299.99998
299.99998
299.99998
299.99998
299.99998
299.99998
299.99998
299.99998
299.99997
299.99997
299.99998
300
300.00002
300.00003
300.00004
342.56447
327.47175
313.97141
304.88196
300.77767
299.77873
299.82632
299.95402
299.99655
300.00138
300.00045
300.00003
299.99998
299.99998
299.99998
299.99998
299.99998
299.99999
299.99999
299.99999
299.99999
299.99999
299.99999
299.99999
299.99998
299.99998
299.99998
299.99998
299.99998
299.99998
299.99998
299.99998
299.99998
299.99997
299.99997
299.99998
300
300.00002
300.00003
300.00004
342.633
327.73618
314.37055
305.21645
300.94339
299.8191
299.82298
299.94822
299.99479
300.00124
300.0005
300.00005
299.99998
299.99998
299.99998
299.99998
299.99998
299.99998
299.99998
299.99998
299.99998
299.99998
299.99998
299.99998
299.99998
299.99998
299.99998
299.99998
299.99998
299.99998
299.99998
299.99998
299.99997
299.99997
299.99997
299.99998
300
300.00002
300.00003
300.00004
342.69161
327.97576
314.74559
305.54134
301.1118
299.86445
299.82186
299.94267
299.99288
300.00102
300.00055
300.00007
299.99998
299.99998
299.99998
299.99998
299.99998
299.99998
299.99998
299.99998
299.99998
299.99998
299.99998
299.99998
299.99998
299.99998
299.99998
299.99998
299.99998
299.99998
299.99998
299.99998
299.99997
299.99997
299.99997
299.99998
300
300.00002
300.00003
300.00004
342.74021
328.19021
315.0962
305.85562
301.28184
299.91437
299.82301
299.93746
299.99083
300.00072
300.00058
300.00009
299.99998
299.99998
299.99998
299.99998
299.99998
299.99998
299.99998
299.99998
299.99998
299.99998
299.99998
299.99998
299.99998
299.99998
299.99998
299.99998
299.99998
299.99998
299.99998
299.99998
299.99997
299.99997
299.99997
299.99998
300
300.00002
300.00004
300.00005
342.77879
328.37907
315.42189
306.15826
301.45247
299.96844
299.82647
299.93269
299.98868
300.00036
300.0006
300.00011
299.99999
299.99998
299.99998
299.99998
299.99998
299.99998
299.99998
299.99998
299.99998
299.99998
299.99998
299.99998
299.99998
299.99998
299.99998
299.99998
299.99998
299.99998
299.99998
299.99998
299.99997
299.99997
299.99997
299.99998
300.00001
300.00003
300.00004
300.00005
342.80742
328.54176
315.72199
306.44822
301.62265
300.0262
299.83224
299.92844
299.98646
299.99992
300.0006
300.00013
299.99999
299.99998
299.99998
299.99998
299.99998
299.99998
299.99998
299.99998
299.99998
299.99998
299.99998
299.99998
299.99998
299.99998
299.99998
299.99998
299.99998
299.99998
299.99998
299.99997
299.99997
299.99997
299.99997
299.99998
300.00001
300.00003
300.00004
300.00005
342.82632
328.67764
315.99568
306.72442
301.79137
300.08717
299.84029
299.9248
299.98422
299.99941
300.00058
300.00015
300
299.99998
299.99998
299.99998
299.99998
299.99998
299.99998
299.99998
299.99998
299.99998
299.99998
299.99998
299.99998
299.99998
299.99998
299.99998
299.99998
299.99998
299.99998
299.99997
299.99997
299.99997
299.99997
299.99999
300.00001
300.00003
300.00004
300.00005
342.83595
328.78624
316.24204
306.98576
301.95762
300.15084
299.85057
299.92184
299.98198
299.99884
300.00054
300.00016
300
299.99998
299.99998
299.99998
299.99998
299.99998
299.99998
299.99998
299.99998
299.99998
299.99998
299.99998
299.99998
299.99998
299.99998
299.99998
299.99998
299.99998
299.99998
299.99997
299.99997
299.99997
299.99997
299.99999
300.00001
300.00003
300.00004
300.00005
342.837
328.8674
316.46011
307.23112
302.1204
300.21669
299.86299
299.91962
299.97979
299.99821
300.00047
300.00018
300.00001
299.99998
299.99998
299.99998
299.99998
299.99998
299.99998
299.99998
299.99998
299.99998
299.99998
299.99998
299.99998
299.99998
299.99998
299.99998
299.99998
299.99998
299.99998
299.99997
299.99997
299.99997
299.99997
299.99999
300.00001
300.00003
300.00004
300.00006
342.83044
328.92147
316.64903
307.45939
302.27871
300.28416
299.87743
299.91817
299.97769
299.99754
300.00039
300.00019
300.00001
299.99998
299.99998
299.99998
299.99998
299.99998
299.99998
299.99998
299.99998
299.99998
299.99998
299.99998
299.99998
299.99998
299.99998
299.99998
299.99998
299.99998
299.99997
299.99997
299.99997
299.99997
299.99997
299.99999
300.00001
300.00003
300.00004
300.00006
342.81753
328.94957
316.80817
307.66949
302.4316
300.35272
299.89376
299.91754
299.9757
299.99682
300.00028
300.00019
300.00002
299.99998
299.99998
299.99998
299.99998
299.99998
299.99998
299.99998
299.99998
299.99998
299.99998
299.99998
299.99998
299.99998
299.99998
299.99998
299.99998
299.99998
299.99997
299.99997
299.99997
299.99997
299.99997
299.99999
300.00001
300.00003
300.00005
300.00006
342.79976
328.95375
316.93733
307.86049
302.57815
300.42181
299.91182
299.91774
299.97386
299.99608
300.00015
300.0002
300.00002
299.99998
299.99998
299.99998
299.99998
299.99998
299.99998
299.99998
299.99998
299.99998
299.99998
299.99998
299.99998
299.99998
299.99998
299.99998
299.99998
299.99997
299.99997
299.99997
299.99997
299.99997
299.99997
299.99999
300.00001
300.00003
300.00005
300.00006
342.77876
328.93702
317.03692
308.03163
302.71749
300.49089
299.93143
299.91878
299.9722
299.99533
300
300.00019
300.00003
299.99998
299.99998
299.99998
299.99998
299.99998
299.99998
299.99998
299.99998
299.99998
299.99998
299.99998
299.99998
299.99998
299.99998
299.99998
299.99998
299.99997
299.99997
299.99997
299.99997
299.99997
299.99997
299.99999
300.00001
300.00003
300.00005
300.00007
342.75617
328.90339
317.10814
308.18246
302.84888
300.55942
299.95239
299.92064
299.97075
299.99457
299.99983
300.00018
300.00003
299.99998
299.99998
299.99998
299.99998
299.99998
299.99998
299.99998
299.99998
299.99998
299.99998
299.99998
299.99998
299.99998
299.99998
299.99998
299.99997
299.99997
299.99997
299.99997
299.99997
299.99997
299.99997
299.99999
300.00001
300.00003
300.00005
300.00007
342.73355
328.85756
317.15307
308.31291
302.97169
300.62691
299.9745
299.92331
299.96953
299.99381
299.99964
300.00016
300.00004
299.99998
299.99998
299.99998
299.99998
299.99998
299.99998
299.99998
299.99998
299.99998
299.99998
299.99998
299.99998
299.99998
299.99998
299.99997
299.99997
299.99997
299.99997
299.99997
299.99997
299.99997
299.99997
299.99999
300.00001
300.00003
300.00005
300.00007
342.71217
328.80461
317.17471
308.42339
303.08547
300.6929
299.99754
299.92676
299.96855
299.99307
299.99944
300.00014
300.00004
299.99998
299.99997
299.99997
299.99998
299.99998
299.99998
299.99998
299.99998
299.99998
299.99998
299.99998
299.99998
299.99998
299.99997
299.99997
299.99997
299.99997
299.99997
299.99997
299.99997
299.99997
299.99997
299.99999
300.00001
300.00003
300.00005
300.00007
342.69295
328.74948
317.17688
308.51482
303.18997
300.75699
300.02132
299.93094
299.96783
299.99237
299.99922
300.00011
300.00004
299.99999
299.99997
299.99997
299.99997
299.99997
299.99998
299.99998
299.99998
299.99998
299.99998
299.99998
299.99997
299.99997
299.99997
299.99997
299.99997
299.99997
299.99997
299.99997
299.99997
299.99997
299.99997
299.99999
300.00001
300.00003
300.00005
300.00007
342.6764
328.69647
317.16397
308.58867
303.28517
300.81885
300.04562
299.9358
299.96737
299.9917
299.99899
300.00007
300.00004
299.99999
299.99997
299.99997
299.99997
299.99997
299.99997
299.99997
299.99997
299.99997
299.99997
299.99997
299.99997
299.99997
299.99997
299.99997
299.99997
299.99997
299.99997
299.99997
299.99997
299.99997
299.99997
299.99999
300.00001
300.00003
300.00006
300.00007
342.66258
328.6488
317.1407
308.64689
303.37127
300.87821
300.07025
299.94129
299.96718
299.99107
299.99876
300.00003
300.00004
299.99999
299.99997
299.99997
299.99997
299.99997
299.99997
299.99997
299.99997
299.99997
299.99997
299.99997
299.99997
299.99997
299.99997
299.99997
299.99997
299.99997
299.99997
299.99997
299.99997
299.99997
299.99997
299.99999
300.00001
300.00004
300.00006
300.00008
342.65118
328.60837
317.11167
308.69184
303.44873
300.93492
300.09503
299.94733
299.96725
299.9905
299.99852
299.99998
300.00003
299.99999
299.99997
299.99997
299.99997
299.99997
299.99997
299.99997
299.99997
299.99997
299.99997
299.99997
299.99997
299.99997
299.99997
299.99997
299.99997
299.99997
299.99997
299.99997
299.99996
299.99997
299.99997
299.99999
300.00001
300.00004
300.00006
300.00008
342.64164
328.57568
317.08106
308.7261
303.51823
300.9889
300.1198
299.95386
299.96758
299.98999
299.99828
299.99992
300.00003
299.99999
299.99997
299.99997
299.99997
299.99997
299.99997
299.99997
299.99997
299.99997
299.99997
299.99997
299.99997
299.99997
299.99997
299.99997
299.99997
299.99997
299.99997
299.99997
299.99996
299.99997
299.99997
299.99999
300.00001
300.00004
300.00006
300.00008
342.63322
328.54995
317.0522
308.75232
303.5806
301.04014
300.14441
299.96081
299.96814
299.98954
299.99805
299.99987
300.00002
299.99999
299.99997
299.99997
299.99997
299.99997
299.99997
299.99997
299.99997
299.99997
299.99997
299.99997
299.99997
299.99997
299.99997
299.99997
299.99997
299.99997
299.99997
299.99996
299.99996
299.99997
299.99997
299.99999
300.00001
300.00004
300.00006
300.00008
342.62518
328.52946
317.02741
308.77303
303.63675
301.08871
300.16876
299.9681
299.96893
299.98916
299.99782
299.9998
300.00001
299.99999
299.99997
299.99997
299.99997
299.99997
299.99997
299.99997
299.99997
299.99997
299.99997
299.99997
299.99997
299.99997
299.99997
299.99997
299.99997
299.99997
299.99996
299.99996
299.99996
299.99996
299.99997
299.99999
300.00001
300.00004
300.00006
300.00008
342.61684
328.51193
317.00778
308.79039
303.68762
301.13474
300.19275
299.97568
299.96994
299.98884
299.99759
299.99974
300
299.99999
299.99997
299.99997
299.99997
299.99997
299.99997
299.99997
299.99997
299.99997
299.99997
299.99997
299.99997
299.99997
299.99997
299.99997
299.99997
299.99996
299.99996
299.99996
299.99996
299.99996
299.99997
299.99999
300.00001
300.00004
300.00006
300.00008
342.60768
328.49485
316.99321
308.80614
303.73408
301.17836
300.21633
299.98351
299.97115
299.98859
299.99738
299.99967
299.99999
299.99998
299.99997
299.99997
299.99997
299.99997
299.99997
299.99997
299.99997
299.99997
299.99997
299.99997
299.99997
299.99997
299.99997
299.99997
299.99996
299.99996
299.99996
299.99996
299.99996
299.99996
299.99997
299.99999
300.00001
300.00004
300.00007
300.00008
342.59738
328.47592
316.98243
308.82143
303.77692
301.21971
300.23944
299.99156
299.97258
299.98843
299.99718
299.9996
299.99998
299.99998
299.99997
299.99997
299.99997
299.99997
299.99997
299.99997
299.99997
299.99997
299.99997
299.99997
299.99997
299.99997
299.99997
299.99996
299.99996
299.99996
299.99996
299.99996
299.99996
299.99996
299.99997
299.99999
300.00001
300.00004
300.00007
300.00009
342.58583
328.45325
316.97325
308.83679
303.81681
301.25894
300.26205
299.9998
299.97422
299.98835
299.99699
299.99953
299.99996
299.99998
299.99997
299.99997
299.99997
299.99997
299.99997
299.99997
299.99997
299.99997
299.99997
299.99997
299.99997
299.99997
299.99997
299.99996
299.99996
299.99996
299.99996
299.99996
299.99996
299.99996
299.99997
299.99999
300.00001
300.00004
300.00007
300.00009
342.57312
328.42557
316.96283
308.85215
303.85433
301.29622
300.28414
300.00822
299.97607
299.98836
299.99683
299.99947
299.99995
299.99998
299.99997
299.99997
299.99997
299.99997
299.99997
299.99997
299.99997
299.99997
299.99997
299.99997
299.99997
299.99997
299.99997
299.99996
299.99996
299.99996
299.99996
299.99996
299.99996
299.99996
299.99997
299.99999
300.00001
300.00004
300.00007
300.00009
342.55949
328.39229
316.94808
308.86678
303.88998
301.33178
300.30569
300.01675
299.9781
299.98846
299.99669
299.9994
299.99993
299.99998
299.99997
299.99997
299.99997
299.99997
299.99997
299.99997
299.99997
299.99997
299.99997
299.99997
299.99997
299.99997
299.99997
299.99996
299.99996
299.99996
299.99996
299.99996
299.99996
299.99996
299.99997
299.99999
300.00001
300.00004
300.00007
300.00009
342.54529
328.35354
316.926
308.87929
303.92407
301.36593
300.3267
300.02529
299.98025
299.98861
299.99656
299.99933
299.99991
299.99997
299.99997
299.99997
299.99996
299.99996
299.99997
299.99997
299.99997
299.99997
299.99996
299.99996
299.99996
299.99996
299.99996
299.99996
299.99996
299.99996
299.99996
299.99996
299.99996
299.99996
299.99997
299.99999
300.00001
300.00004
300.00007
300.00009
342.53094
328.31004
316.89417
308.88767
303.95662
301.399
300.34718
300.03372
299.9824
299.98878
299.99643
299.99926
299.99989
299.99997
299.99997
299.99996
299.99996
299.99996
299.99996
299.99996
299.99996
299.99996
299.99996
299.99996
299.99996
299.99996
299.99996
299.99996
299.99996
299.99996
299.99996
299.99996
299.99996
299.99996
299.99997
299.99999
300.00001
300.00004
300.00007
300.00009
342.51688
328.26303
316.85104
308.88935
303.98711
301.43123
300.36721
300.04193
299.98445
299.98889
299.99629
299.99919
299.99987
299.99996
299.99996
299.99996
299.99996
299.99996
299.99995
299.99995
299.99995
299.99995
299.99995
299.99995
299.99995
299.99995
299.99995
299.99995
299.99995
299.99995
299.99995
299.99996
299.99996
299.99996
299.99997
299.99999
300.00001
300.00004
300.00008
300.00009
342.50348
328.21407
316.79625
308.88152
304.01436
301.46265
300.38687
300.04984
299.98629
299.9889
299.9961
299.9991
299.99985
299.99995
299.99995
299.99995
299.99995
299.99995
299.99995
299.99995
299.99995
299.99995
299.99995
299.99995
299.99995
299.99995
299.99995
299.99995
299.99995
299.99995
299.99995
299.99995
299.99995
299.99996
299.99997
299.99998
300.00001
300.00004
300.00008
300.00009
342.49107
328.16487
316.73068
308.8615
304.0364
301.49287
300.40623
300.05747
299.98788
299.98877
299.99586
299.99901
299.99982
299.99994
299.99994
299.99994
299.99994
299.99994
299.99994
299.99994
299.99994
299.99994
299.99994
299.99994
299.99994
299.99994
299.99994
299.99994
299.99994
299.99994
299.99994
299.99994
299.99994
299.99995
299.99996
299.99998
300
300.00004
300.00008
300.00009
342.47988
328.11709
316.65642
308.82728
304.05069
301.52092
300.42526
300.06494
299.9893
299.98852
299.99557
299.99889
299.99979
299.99993
299.99993
299.99993
299.99993
299.99992
299.99992
299.99992
299.99992
299.99992
299.99992
299.99992
299.99993
299.99993
299.99993
299.99993
299.99993
299.99993
299.99993
299.99993
299.99993
299.99994
299.99995
299.99997
300
300.00005
300.00008
300.00009
342.47005
328.0722
316.57646
308.77805
304.05452
301.54533
300.44372
300.07247
299.99071
299.98823
299.99526
299.99877
299.99976
299.99992
299.99992
299.99992
299.99992
299.99992
299.99992
299.99992
299.99992
299.99992
299.99992
299.99992
299.99992
299.99992
299.99992
299.99992
299.99992
299.99992
299.99992
299.99992
299.99992
299.99993
299.99995
299.99997
300
300.00005
300.00008
300.00009
342.46163
328.03137
316.49436
308.7146
304.04561
301.56425
300.46116
300.08025
299.99238
299.98803
299.99496
299.99865
299.99973
299.99991
299.99992
299.99991
299.99991
299.99991
299.99991
299.99991
299.99991
299.99991
299.99991
299.99991
299.99991
299.99991
299.99991
299.99991
299.99991
299.99991
299.99991
299.99991
299.99992
299.99992
299.99994
299.99996
300
300.00005
300.00009
300.00009
342.4546
327.99539
316.41378
308.63936
304.02274
301.57587
300.47688
300.08841
299.99461
299.98811
299.99475
299.99855
299.9997
299.9999
299.99991
299.99991
299.99991
299.99991
299.99991
299.99991
299.99991
299.99991
299.99991
299.99991
299.99991
299.99991
299.99991
299.99991
299.99991
299.99991
299.99991
299.99991
299.99991
299.99992
299.99993
299.99996
300.00001
300.00006
300.00009
300.00009
342.44887
327.96467
316.338
308.55616
303.98623
301.57885
300.49005
300.0969
299.99762
299.98863
299.99469
299.99849
299.99968
299.9999
299.99991
299.99991
299.99991
299.99991
299.99991
299.99991
299.99991
299.99991
299.99991
299.99991
299.99991
299.99991
299.99991
299.99991
299.99991
299.99991
299.99991
299.99991
299.99991
299.99992
299.99993
299.99996
300.00001
300.00006
300.00009
300.00009
342.44433
327.93926
316.26967
308.4697
303.93799
301.57269
300.49993
300.10551
300.00148
299.98971
299.99484
299.99848
299.99968
299.99991
299.99992
299.99992
299.99991
299.99991
299.99992
299.99992
299.99992
299.99992
299.99992
299.99992
299.99992
299.99992
299.99992
299.99991
299.99991
299.99991
299.99991
299.99991
299.99991
299.99992
299.99994
299.99997
300.00002
300.00007
300.00009
300.00009
342.44083
327.91893
316.21053
308.38478
303.88133
301.55797
300.50601
300.11382
300.0061
299.99136
299.99524
299.99854
299.99968
299.99991
299.99993
299.99993
299.99993
299.99993
299.99993
299.99993
299.99993
299.99993
299.99993
299.99993
299.99993
299.99993
299.99993
299.99993
299.99992
299.99992
299.99992
299.99992
299.99992
299.99993
299.99995
299.99998
300.00003
300.00007
300.00009
300.00009
342.43821
327.9032
316.16136
308.30568
303.82036
301.53624
300.5082
300.12139
300.01119
299.99349
299.99586
299.99866
299.9997
299.99992
299.99994
299.99994
299.99994
299.99994
299.99994
299.99994
299.99994
299.99994
299.99994
299.99994
299.99994
299.99994
299.99994
299.99994
299.99994
299.99993
299.99993
299.99993
299.99993
299.99994
299.99996
299.99999
300.00004
300.00008
300.00009
300.00009
342.43633
327.89147
316.12211
308.2356
303.75929
301.50972
300.50679
300.1278
300.01638
299.99593
299.99665
299.99884
299.99973
299.99993
299.99996
299.99995
299.99995
299.99995
299.99995
299.99996
299.99996
299.99996
299.99996
299.99996
299.99996
299.99996
299.99995
299.99995
299.99995
299.99995
299.99995
299.99995
299.99995
299.99995
299.99997
300
300.00005
300.00008
300.00009
300.00009
342.43505
327.88306
316.09202
308.17641
303.7018
301.4809
300.50245
300.13278
300.02128
299.99845
299.99753
299.99906
299.99977
299.99995
299.99997
299.99997
299.99997
299.99997
299.99997
299.99997
299.99997
299.99997
299.99997
299.99997
299.99997
299.99997
299.99997
299.99997
299.99997
299.99996
299.99996
299.99996
299.99996
299.99997
299.99998
300.00001
300.00005
300.00008
300.00009
300.00009
342.43422
327.87731
316.06988
308.12866
303.6506
301.45213
300.49604
300.13622
300.02555
300.00084
299.99842
299.99929
299.99982
299.99996
299.99998
299.99998
299.99998
299.99998
299.99998
299.99998
299.99998
299.99998
299.99998
299.99998
299.99998
299.99998
299.99998
299.99998
299.99998
299.99998
299.99998
299.99997
299.99998
299.99998
300
300.00002
300.00006
300.00008
300.00009
300.00009
342.43374
327.87358
316.05424
308.0918
303.60725
301.42527
300.48846
300.13821
300.029
300.00292
299.99924
299.99952
299.99986
299.99997
299.99999
299.99999
299.99999
299.99999
299.99999
299.99999
299.99999
299.99999
299.99999
299.99999
299.99999
299.99999
299.99999
299.99999
299.99999
299.99999
299.99999
299.99999
299.99999
299.99999
300.00001
300.00003
300.00006
300.00008
300.00009
300.00009
342.43351
327.87132
316.04365
308.06451
303.5722
301.40157
300.48056
300.13897
300.03157
300.00461
299.99994
299.99972
299.99991
299.99998
300
300
300
300
300
300
300
300
300
300
300
300
300
300
300
300
299.99999
299.99999
300
300
300.00001
300.00003
300.00006
300.00008
300.00009
300.00009
342.43345
327.8701
316.03675
308.04504
303.54502
301.38166
300.47296
300.13879
300.03332
300.00589
300.00049
299.99989
299.99994
299.99999
300
300
300
300
300
300
300
300
300
300
300
300
300
300
300
300
300
300
300
300.00001
300.00002
300.00004
300.00006
300.00008
300.00009
300.00009
342.43351
327.86955
316.03241
308.0316
303.52471
301.36562
300.4661
300.138
300.03438
300.00679
300.00091
300.00002
299.99998
300
300
300
300
300
300
300
300
300
300
300
300
300
300
300
300
300
300
300
300.00001
300.00001
300.00002
300.00004
300.00006
300.00008
300.00009
300.00009
342.43363
327.86943
316.02976
308.0225
303.50996
301.35313
300.46023
300.13689
300.03492
300.00737
300.0012
300.00012
300
300
300
300.00001
300.00001
300.00001
300.00001
300.00001
300.00001
300.00001
300.00001
300.00001
300.00001
300.00001
300.00001
300.00001
300.00001
300.00001
300.00001
300.00001
300.00001
300.00001
300.00002
300.00004
300.00006
300.00008
300.00009
300.00009
342.4338
327.86954
316.02814
308.01637
303.49945
301.34369
300.45539
300.13567
300.03511
300.00772