/*--------------------------------*- C++ -*----------------------------------*\
  =========                 |
  \\      /  F ield         | OpenFOAM: The Open Source CFD Toolbox
   \\    /   O peration     | Website:  https://openfoam.org
    \\  /    A nd           | Version:  10
     \\/     M anipulation  |
\*---------------------------------------------------------------------------*/
FoamFile
{
    format      ascii;
    class       volScalarField;
    location    "0.13";
    object      TporMedia_0;
}
// * * * * * * * * * * * * * * * * * * * * * * * * * * * * * * * * * * * * * //

dimensions      [0 0 0 1 0 0 0];

internalField   nonuniform List<scalar> 
4000
(
-1.9433054e-05
9.0475695e-06
0.00031348746
0.00023223444
0.00021021478
0.00021292607
0.00022108889
0.00023130121
0.00022516048
0.00022811852
0.00022572595
0.00021334853
0.00021734755
0.0002681457
0.00022269207
0.00025893512
0.00026908105
0.00020632112
0.0002462973
0.00020618073
0.00022701131
0.00022831265
0.00021582192
0.00023754174
0.00021122587
0.00022645928
0.00023541229
0.00025531556
0.00020369608
0.0002453967
0.00020205558
0.0002570871
0.00024985319
0.00021117023
0.00023077607
0.00020169005
0.00021648579
0.00019714931
0.00020042744
0.00021430661
-1.6409551e-06
4.3455273e-14
4.5861073e-12
3.9818848e-10
9.9960111e-11
9.702635e-11
8.6784409e-11
1.1214449e-10
8.8751843e-11
8.7497432e-11
9.9519614e-11
7.7878488e-11
1.0813623e-10
1.0501558e-10
8.9555217e-11
9.1994593e-11
1.2422129e-10
8.5489609e-11
1.1012355e-10
1.0773383e-10
8.7934925e-11
9.4822864e-11
6.9479097e-11
7.875409e-11
1.1245274e-10
8.8014326e-11
9.9545678e-11
1.1228543e-10
8.9278329e-11
1.1103369e-10
9.0614915e-11
1.0339418e-10
9.1466627e-11
7.3118274e-11
8.3299436e-11
7.3407711e-11
7.3835449e-11
7.3353302e-11
8.5914627e-11
7.9148872e-11
-6.6855802e-07
-1.3667978e-14
1.9637021e-20
2.0395062e-17
-5.9774521e-17
4.5847495e-17
3.2120155e-17
4.9271471e-17
2.6736155e-17
4.4743351e-17
4.2602747e-17
2.8081539e-17
3.6893188e-17
3.8684474e-17
3.1909127e-17
3.3357141e-17
4.0164291e-17
3.4679656e-17
4.3573958e-17
3.6884842e-17
3.5869011e-17
4.0359071e-17
2.9873577e-17
2.5398982e-17
4.2400221e-17
3.2283182e-17
4.507855e-17
4.0201888e-17
3.0460314e-17
4.1238002e-17
3.2967483e-17
4.0965421e-17
3.4235273e-17
2.5045515e-17
2.7685733e-17
2.8575776e-17
3.4673138e-17
2.7471026e-17
3.2243948e-17
3.2010857e-17
-3.6293477e-07
7.6738541e-16
1.7387337e-24
2.010613e-25
9.978319e-24
-4.6366201e-22
9.4659667e-24
2.1296867e-23
1.3463416e-23
1.7972714e-23
1.4520582e-23
9.8929907e-24
1.5728933e-23
1.3845135e-23
1.2559845e-23
1.4493194e-23
1.6246172e-23
1.4034282e-23
1.7138041e-23
1.7154713e-23
1.2115213e-23
1.6419407e-23
1.2411174e-23
1.0794171e-23
1.367739e-23
1.2671775e-23
1.5962951e-23
1.7576911e-23
1.1226093e-23
1.5318562e-23
1.3854071e-23
1.8318234e-23
1.2805646e-23
9.854416e-24
1.0880665e-23
1.1351674e-23
1.3164995e-23
1.053587e-23
1.2293301e-23
1.2922558e-23
-2.3133776e-07
1.530401e-16
2.6849674e-25
1.6876805e-33
2.93192e-30
7.2990593e-29
4.4632749e-30
7.4629739e-30
5.6920402e-30
8.1466327e-30
6.1540698e-30
3.8553608e-30
5.686259e-30
5.2011876e-30
5.3822526e-30
6.6392654e-30
5.7225766e-30
4.3597137e-30
6.1722662e-30
7.1266571e-30
5.1383425e-30
7.9999129e-30
4.7943638e-30
4.5960754e-30
5.4150705e-30
5.2371202e-30
5.8714731e-30
8.7085554e-30
3.8495122e-30
7.5896882e-30
4.8847858e-30
7.4113484e-30
5.2786451e-30
3.7370942e-30
4.3691079e-30
3.9629928e-30
5.2163421e-30
3.9067855e-30
4.5355187e-30
4.0724189e-30
-1.6355663e-07
5.232993e-17
1.1343969e-25
2.0391223e-34
5.6530164e-38
-4.7597138e-36
1.5305792e-35
2.4252575e-36
2.4017174e-36
2.6445669e-36
2.5507427e-36
1.9747193e-36
2.3042825e-36
1.873968e-36
2.4175124e-36
2.6177751e-36
2.2792702e-36
1.8399011e-36
2.2458023e-36
2.7032572e-36
1.9105988e-36
3.4254566e-36
2.1765016e-36
2.457606e-36
2.44674e-36
2.1177292e-36
3.1806198e-36
3.8589159e-36
1.3130206e-36
3.0288607e-36
2.2404294e-36
2.9082952e-36
2.2164914e-36
8.0145549e-37
1.8338847e-36
1.4980698e-36
2.0827023e-36
1.5832996e-36
1.5164963e-36
1.4666215e-36
-1.2436241e-07
2.3335797e-17
-5.9568613e-25
-6.5910923e-34
-3.9034663e-42
2.190663e-43
-2.9938046e-42
9.1766307e-43
7.9539317e-43
1.0254998e-42
9.0739593e-43
1.0360029e-42
9.2677102e-43
6.8444571e-43
1.1000123e-42
9.761901e-43
1.1226683e-42
7.6374622e-43
1.2095821e-42
1.1575045e-42
8.871227e-43
1.708771e-42
8.3111727e-43
1.0060264e-42
1.0380149e-42
8.7500441e-43
1.43102e-42
1.5149293e-42
6.864346e-43
1.4315551e-42
9.254025e-43
1.1385017e-42
8.5616075e-43
1.1691994e-42
5.5299567e-43
5.5215991e-43
6.0170117e-43
5.0269501e-43
5.9924589e-43
6.5574783e-43
-9.9589287e-08
1.2275769e-17
-1.1599376e-26
-9.2544793e-36
-2.4459324e-44
-1.2249245e-50
1.9384817e-49
8.6300588e-49
2.8845312e-49
5.2324961e-49
3.0166353e-49
4.7666146e-49
4.0026313e-49
2.3051892e-49
4.3412584e-49
4.5520315e-49
4.3838085e-49
3.2212981e-49
5.5326102e-49
4.2153526e-49
5.1402994e-49
7.4286772e-49
3.2636249e-49
4.6547488e-49
4.7759476e-49
3.5672396e-49
6.4484427e-49
6.085225e-49
2.9334119e-49
6.7580524e-49
3.84231e-49
5.3264001e-49
2.588455e-49
-6.1843346e-49
2.1878375e-49
1.6236926e-49
5.8177179e-49
2.2745437e-49
1.5940032e-49
2.3745548e-49
-8.2539044e-08
7.1978683e-18
-2.6626809e-27
-1.7574741e-36
-2.5312889e-45
-1.257425e-52
-6.9301735e-57
-7.5595336e-55
1.0660197e-55
2.3291847e-55
1.4062408e-55
1.6786067e-55
1.7090785e-55
1.1370826e-55
1.6513234e-55
1.6950612e-55
2.1212447e-55
1.4349185e-55
2.3940149e-55
2.3202163e-55
2.4474585e-55
5.3180726e-55
1.2760029e-55
2.0159467e-55
2.1144015e-55
1.620578e-55
3.6746649e-55
2.9410615e-55
1.1873065e-55
3.3062403e-55
1.701092e-55
2.8625825e-55
5.202009e-55
1.183427e-54
8.185089e-56
1.7267357e-55
-1.202481e-55
1.0540646e-55
1.5874773e-55
9.6270642e-56
-6.9753094e-08
4.5280888e-18
-8.9429278e-28
-5.6307216e-37
-5.0418984e-46
-4.839701e-54
1.1573963e-61
1.0815582e-61
4.3254202e-62
8.0895467e-62
4.957829e-62
7.4066129e-62
9.0239384e-62
5.9372121e-62
9.8856701e-62
6.5779051e-62
9.5360547e-62
6.2558198e-62
1.0226368e-61
7.5308133e-62
1.0872579e-61
3.8017187e-61
5.2674475e-62
1.0202405e-61
1.2136992e-61
9.0571912e-62
1.9550655e-61
1.1515097e-61
4.9950714e-62
2.1220438e-61
5.8488944e-62
1.1149393e-61
-1.8664963e-61
-2.0502767e-60
3.1286994e-62
-7.049198e-62
4.19687e-61
1.1148106e-62
-1.6823838e-62
3.8418043e-62
-5.9351269e-08
2.973068e-18
-3.6160335e-28
-2.6481241e-37
-1.6246533e-46
-6.3611366e-55
1.2434586e-62
-7.4135227e-69
2.5346546e-68
3.0869579e-68
2.126884e-68
3.0994646e-68
4.9468288e-68
3.0129661e-68
5.3040578e-68
3.6655122e-68
5.8011876e-68
3.0482486e-68
7.3508242e-68
6.3937585e-68
4.907847e-68
1.9735796e-67
2.3586548e-68
4.0942469e-68
4.8150866e-68
4.5913116e-68
9.8532504e-68
6.9198776e-68
2.3553648e-68
9.7346236e-68
5.7094644e-68
6.5979174e-68
3.4904146e-67
1.8791304e-66
2.2261057e-68
1.2328433e-67
-5.6133114e-67
2.9552477e-68
1.1666123e-67
2.6212368e-68
-5.0413493e-08
1.9991704e-18
-1.6297527e-28
-2.2116828e-37
-1.0025063e-46
-2.0384469e-55
4.2158555e-63
-1.4275935e-70
6.3428719e-74
1.0268836e-74
7.9695449e-75
1.630632e-74
2.6541414e-74
1.766515e-74
3.2112162e-74
2.0085368e-74
3.4292708e-74
1.5384121e-74
3.3147169e-74
6.0165309e-75
3.098032e-74
1.2888457e-73
1.0602299e-74
1.8482108e-74
2.6843916e-74
1.4432082e-74
3.7743025e-74
2.5343953e-74
1.1380905e-74
2.9117269e-74
6.68639e-75
3.1700561e-75
-9.351857e-73
-3.6105431e-72
-1.0823169e-74
-6.0347411e-74
3.4691148e-73
-3.3082195e-74
-6.3390337e-74
1.3780236e-74
-4.2589837e-08
1.3618735e-18
-7.87393e-29
1.9139952e-37
6.8331574e-47
8.2433018e-56
-3.5273814e-63
7.8102922e-71
-2.4845796e-77
3.8367611e-81
3.9675151e-81
6.9269343e-81
1.4311563e-80
8.4078213e-81
1.4682132e-80
1.0993832e-80
1.8922465e-80
1.1599412e-80
1.7082893e-80
2.4109752e-80
1.7601699e-80
6.578701e-80
6.5750629e-81
1.1504496e-80
1.7594214e-80
1.3949887e-80
6.4904408e-80
1.1706294e-80
4.9141783e-81
2.5241214e-80
3.341748e-80
3.2186355e-80
6.3845064e-79
2.1157456e-78
8.9485242e-81
1.4672865e-79
-1.3036965e-78
3.1682043e-80
9.9347572e-80
6.7623968e-81
-3.5779022e-08
9.3492792e-19
-3.9905795e-29
1.8128936e-38
5.3886965e-48
4.2188751e-57
1.1837522e-64
-1.8501698e-72
1.8837641e-79
7.57933e-86
1.4333674e-87
3.2567127e-87
7.539679e-87
3.658273e-87
6.1156599e-87
5.6124757e-87
7.1742395e-87
6.9892537e-87
8.5547806e-87
-2.8891976e-87
1.0745903e-86
3.2296876e-86
4.00617e-87
4.4286993e-87
1.2527029e-86
3.960396e-87
6.5140643e-87
4.6875115e-87
2.3884047e-87
-4.365117e-87
2.2882572e-87
-8.8740135e-87
-3.872901e-85
-2.4668674e-84
-2.6637531e-86
-1.592605e-85
6.1004625e-85
-5.4168193e-86
-4.679402e-86
6.9895628e-87
-2.994441e-08
6.4570611e-19
-2.0963017e-29
4.4020458e-39
1.1493175e-48
6.241314e-58
4.3280116e-66
-5.2777622e-74
2.9562037e-81
1.306322e-87
1.1223843e-93
1.88055e-93
3.4915284e-93
1.4257965e-93
3.7423658e-93
2.6375511e-93
3.3830053e-93
3.2650702e-93
3.5960403e-93
1.0547936e-92
7.7349871e-93
1.8788202e-92
4.1209969e-93
4.075852e-93
8.0726781e-93
5.7791929e-93
1.1459631e-92
4.3013234e-93
1.7392533e-93
1.2179708e-92
1.4332378e-92
1.8674174e-92
4.6388079e-91
2.0225565e-90
1.5620589e-92
1.356485e-91
-1.9664254e-90
9.666846e-93
4.3585488e-92
8.5406508e-93
-2.5021277e-08
4.4852297e-19
-1.1330441e-29
1.375305e-39
3.335366e-49
1.3226502e-58
4.2020781e-67
-4.4180294e-75
1.4251374e-82
1.2931421e-88
5.2506823e-95
9.0391728e-100
2.2524352e-99
9.1653048e-100
3.2138726e-99
1.3975629e-99
1.866948e-99
4.163274e-99
2.46838e-99
1.0614026e-99
4.8567183e-99
1.0698056e-98
1.6029548e-99
1.5101904e-99
5.5110005e-99
1.9330273e-99
-1.2404168e-100
1.9900466e-99
6.9046168e-100
-3.7197383e-99
-2.5933954e-99
-4.3898732e-99
-5.4901193e-97
-2.4570188e-96
-8.8151542e-99
-1.8327359e-97
1.2811064e-96
-1.7227242e-98
-2.5520353e-98
-4.5317374e-98
-2.0905042e-08
3.1327071e-19
-6.2689402e-30
4.9013156e-40
1.178841e-49
3.5600552e-59
6.3225485e-68
-6.4691403e-76
1.3970962e-83
-7.8472236e-90
-2.4416124e-96
-1.4095228e-102
1.5478529e-105
5.9178817e-106
2.5836543e-105
1.336449e-105
1.2460821e-105
3.0822536e-105
1.4383909e-105
5.3319355e-105
5.0142961e-105
6.8109754e-105
1.2834233e-105
1.4958347e-105
4.2719411e-105
3.6162021e-105
4.3870396e-105
2.1668989e-105
7.7042305e-106
2.6664124e-105
1.3246923e-104
5.9311559e-105
1.6943294e-103
3.5607348e-102
1.1439473e-104
1.7630828e-103
-8.5911502e-103
8.8812202e-105
-3.1823498e-105
1.3458858e-102
-1.7472928e-08
2.1985868e-19
-3.5355064e-30
1.9010764e-40
4.9627335e-50
1.1827754e-59
1.3093038e-68
-1.5736301e-76
2.3874905e-84
-3.9740824e-91
-1.4473431e-97
-6.9392175e-104
-4.0419874e-110
4.5519258e-112
1.3642314e-111
9.9294868e-112
1.177346e-111
2.5002769e-111
1.0706599e-111
1.6937958e-111
4.9255469e-111
4.0212795e-111
1.0790979e-111
7.0696122e-112
2.9210194e-111
1.5879619e-111
-1.2135523e-111
1.6190871e-111
4.500395e-112
-2.591667e-111
-1.8055914e-111
-3.3728364e-111
-1.910312e-109
-3.5321449e-108
-1.2962225e-110
-3.9472265e-110
7.5011326e-109
-3.2728219e-111
-5.5419533e-111
-9.6139547e-109
-1.4603508e-08
1.5482308e-19
-2.0241568e-30
7.8272896e-41
2.5860876e-50
5.0194378e-60
3.7193215e-69
-8.5037886e-77
9.7746455e-85
-7.9620611e-92
-3.1350871e-98
-1.4559486e-104
-9.1636734e-111
-5.5178102e-117
1.0205288e-117
4.3115622e-118
7.5200449e-118
1.8281632e-117
8.5654246e-118
2.0985936e-117
4.2462552e-117
2.6807484e-117
1.4722296e-117
8.0192328e-118
1.5189428e-117
1.6818205e-117
5.6938841e-117
9.902405e-118
6.6166674e-118
1.0105893e-117
2.4200333e-117
7.0150944e-118
1.408753e-115
2.0058621e-114
5.7993978e-117
7.0535505e-116
-6.4845925e-115
2.1962978e-117
-6.5940798e-117
4.8715621e-115
-1.2195312e-08
1.0922424e-19
-1.1722371e-30
3.3678512e-41
2.0883826e-50
3.3965234e-60
1.7749225e-69
5.6473313e-77
-5.1702191e-85
2.4577617e-92
1.199996e-98
7.6684378e-105
4.1270553e-111
4.3387656e-117
3.7636867e-123
3.8879604e-124
1.4219186e-123
1.3070986e-123
9.7677903e-124
1.2177656e-123
5.8206494e-123
2.4680018e-123
1.1395999e-123
5.099275e-124
1.2474762e-123
2.4724123e-123
1.5882325e-123
1.1621407e-123
4.6831325e-124
-1.2418716e-123
-1.0618622e-123
-2.634268e-123
-1.1971665e-121
-9.8359804e-121
-5.1046838e-123
-1.3992821e-122
1.076152e-121
-9.2654888e-124
-1.0185137e-122
-1.3682834e-121
-1.0170658e-08
7.7100516e-20
-6.847553e-31
1.4987253e-41
-2.6709424e-50
-3.7385078e-60
-1.4343155e-69
-9.4812317e-78
7.3496127e-86
-2.2160905e-93
-3.0425816e-99
-1.5395244e-105
-9.576131e-112
-1.0895665e-117
-1.6692485e-123
-1.1868558e-129
1.4833133e-129
1.467326e-129
1.3379711e-129
1.6829567e-129
6.5975949e-129
4.4612846e-129
1.3328841e-129
1.0474029e-129
2.4441822e-129
2.8972118e-129
2.1242752e-129
1.3273866e-129
6.9228441e-130
1.4504018e-129
1.39727e-129
2.1555156e-130
6.35012e-128
8.3285325e-127
4.4648756e-129
2.637179e-128
-2.3970571e-127
4.9104566e-130
1.8683765e-128
2.310833e-128
-8.4739844e-09
5.4441384e-20
-4.028242e-31
6.8513432e-42
-1.8703697e-51
-2.312957e-61
-6.7316972e-71
-2.0420615e-79
1.4019868e-87
-2.9594441e-95
1.5216742e-101
6.2665294e-108
5.4723038e-114
5.4594431e-120
6.843177e-126
4.4353757e-132
2.8082585e-135
2.3663376e-135
2.7435792e-135
1.930949e-135
6.4256206e-135
-1.4910765e-133
1.7924832e-135
1.213515e-135
3.305137e-135
1.0902151e-134
2.0994262e-135
1.7118351e-135
5.1761534e-136
4.041665e-136
-5.5227078e-136
-1.1904065e-135
-8.1542126e-134
-5.7711129e-133
-6.9118679e-135
-5.5937446e-135
4.1235512e-134
4.7660264e-138
-1.0429142e-134
-2.8868082e-135
-7.0611368e-09
3.8474801e-20
-2.3851903e-31
3.2039782e-42
-4.0634225e-52
-4.5601851e-62
-1.0352973e-71
-1.7902076e-80
1.165178e-88
-1.8176813e-96
3.3091974e-103
1.8797827e-109
1.5700875e-115
5.7361929e-121
1.9182869e-126
3.1628091e-132
8.3010352e-138
-1.4823075e-140
4.129461e-141
5.1991312e-141
1.0236796e-140
-4.2046949e-139
3.1611674e-141
-1.1991832e-139
1.0531842e-140
1.4146016e-140
6.3345393e-141
3.2649662e-141
6.7846532e-142
2.398085e-141
1.2008129e-141
-1.1322084e-141
-1.0827089e-140
1.8286908e-138
2.5517409e-143
1.8029772e-140
-5.5573174e-140
2.981571e-142
4.6297457e-141
3.2821929e-142
-5.8924912e-09
2.7240979e-20
-1.4216347e-31
1.5286353e-42
-1.13726e-52
-1.1924948e-62
-2.1631189e-72
-2.3797335e-81
1.6185167e-89
-1.9334734e-97
2.0532725e-104
1.5439265e-110
1.0790151e-116
4.0084089e-122
1.2067808e-127
4.7253967e-133
9.5802792e-139
1.5782783e-144
1.8449578e-146
2.349969e-146
5.2661548e-146
1.4792002e-144
-8.6910581e-147
-5.1960791e-145
2.7952318e-146
4.1218878e-146
-2.0447879e-146
7.8858481e-147
1.5411967e-147
3.1442616e-147
5.7009384e-147
-2.4283688e-147
-1.8310271e-145
6.5165353e-145
-2.8050877e-147
1.8254067e-146
-2.5265291e-145
-4.9854474e-148
-1.8406502e-147
-6.0001722e-149
-4.9298606e-09
1.9339187e-20
-8.5296337e-32
7.4252987e-43
-3.6094812e-53
-3.6555264e-63
-5.4110259e-73
-4.0482224e-82
3.332686e-90
-3.1439856e-98
1.9844488e-105
3.0668427e-111
4.234857e-117
-2.0588614e-120
-5.6462666e-126
-4.5933652e-131
1.106747e-136
-6.0089457e-142
2.2072624e-147
-8.3270718e-152
-9.3416003e-152
-7.3446768e-150
1.5000563e-152
-2.6265674e-150
-4.454533e-151
-7.8585115e-152
4.1192764e-152
3.2898578e-152
-2.6959148e-153
5.5330728e-153
6.5116143e-151
5.914405e-153
-5.1201012e-151
8.1005201e-151
-2.4449164e-153
4.1568253e-152
1.5602986e-149
3.7123159e-154
4.948129e-154
5.7981618e-155
-4.1373377e-09
1.3772225e-20
-5.1503256e-32
3.6650173e-43
-1.2405842e-53
-1.2642947e-63
-1.5571175e-73
-8.3177859e-83
1.1880568e-90
-9.1868653e-99
3.7980623e-106
1.6312731e-111
2.0374549e-117
8.6586474e-123
-2.4426293e-128
1.0971471e-133
-1.4879966e-139
1.477162e-145
-2.0832249e-151
4.8052815e-157
9.0406454e-158
1.8261995e-155
-2.9652015e-158
9.0562398e-156
4.6827676e-157
9.7051641e-158
-9.050933e-158
-1.5132487e-157
8.011846e-159
-1.208349e-158
-9.1748664e-157
-1.1585065e-158
1.5538647e-156
-2.2412153e-156
-6.0190717e-159
-3.6414891e-157
-1.8780499e-155
-2.2118555e-160
-1.8385313e-160
9.4111175e-162
-3.4838317e-09
9.8400317e-21
-3.1283682e-32
1.8348998e-43
-4.513399e-54
-4.8913256e-64
-5.1035372e-74
-2.018071e-83
-1.2591293e-90
8.2893664e-99
-2.4261719e-106
1.7147996e-112
1.0384436e-117
-4.8562518e-123
5.9154051e-129
-9.0102082e-135
3.8217793e-140
-1.3547466e-145
1.3317263e-151
-1.6834169e-157
1.3170693e-163
-2.1887045e-161
3.6300889e-164
-8.573369e-162
-5.9828674e-163
-2.0295957e-163
9.1802298e-164
5.6347894e-163
-1.9107949e-164
2.9461493e-164
2.0872791e-162
2.1741639e-164
-3.9620786e-162
-5.6478974e-162
7.6274174e-164
2.3926279e-162
1.4411152e-161
1.580933e-166
2.9863668e-166
7.8669579e-169
-2.9436983e-09
7.0547058e-21
-1.9108157e-32
9.3039626e-44
-1.7154247e-54
-2.150956e-64
-1.9334305e-74
-5.8312208e-84
-4.0702423e-92
2.37042e-100
-5.0138301e-108
1.4995793e-114
1.766845e-120
-1.6817961e-126
1.9711802e-132
-1.694491e-138
1.0979282e-144
-1.3178765e-150
1.078556e-156
-7.0487796e-163
4.8961609e-169
1.6277051e-167
-2.5064268e-170
7.2419622e-168
5.2686783e-169
1.6502864e-169
-8.0024568e-170
-4.8738867e-169
2.3002759e-170
-4.1306852e-170
-1.6846652e-168
-3.3359209e-170
1.8295259e-166
-2.1183786e-167
-1.4943419e-169
-2.7407691e-168
-9.538243e-168
-1.0691997e-172
-8.9880451e-172
4.6994301e-176
-2.4966594e-09
5.0772308e-21
-1.1736115e-32
4.7732654e-44
-6.7552971e-55
-1.1459477e-64
-9.0204917e-75
-2.1262822e-84
-6.6027639e-93
3.533224e-101
-5.7542542e-109
9.586651e-116
-8.6644472e-120
5.135792e-125
-3.4937784e-131
4.7181736e-137
-3.3502631e-143
4.1698278e-149
-3.4272239e-155
2.7908384e-161
-2.2249487e-167
3.9272558e-174
1.67378e-176
-4.4557686e-174
-4.7753239e-175
-1.1256236e-175
5.0315556e-176
5.1985375e-175
-3.2352293e-176
2.7255287e-176
2.0606253e-174
2.8718035e-176
-2.4183126e-172
2.9272774e-173
5.8944327e-175
2.9983753e-174
5.6073076e-174
4.4410835e-179
-3.8686118e-178
2.4161512e-183
-2.1266724e-09
3.67101e-21
-7.251548e-33
2.4768736e-44
-2.7419568e-55
-9.7804056e-65
-6.8518734e-75
-1.2895827e-84
-2.2968155e-93
1.1832051e-101
-1.506112e-109
1.5737158e-116
-6.3602917e-122
1.9016339e-127
-1.4418817e-133
1.0363749e-139
-6.3523453e-146
4.0321551e-152
-2.5552373e-158
1.6873282e-164
-1.1788272e-170
6.1611847e-177
-1.1246506e-182
3.1348895e-180
2.0491016e-181
7.3228549e-182
-3.3185581e-182
-3.1804957e-181
2.2462409e-182
-1.8626553e-182
-1.2007349e-180
-2.0229196e-182
4.2812973e-178
-7.4646601e-179
-4.0084372e-181
-1.8663182e-180
-2.3155911e-180
-2.097292e-185
-1.3026376e-184
1.1539907e-190
-1.8208578e-09
2.6698168e-21
-4.5118685e-33
1.3003407e-44
-1.1436075e-55
7.6231675e-65
4.8313214e-75
7.397331e-85
8.4980975e-94
-4.4873755e-102
4.6681146e-110
-3.2581172e-117
8.8570283e-123
-1.1091215e-128
5.404459e-135
-2.0840892e-141
9.6605887e-148
-4.2147196e-154
2.4004106e-160
-1.1440277e-166
5.5903953e-173
-2.2504829e-179
1.3610183e-185
-1.5655526e-186
-1.0029926e-187
-4.0853457e-188
2.0017189e-188
1.5675991e-187
-8.3644325e-189
1.0317065e-188
7.0600988e-187
1.1484225e-188
-3.3841261e-184
5.3315492e-185
3.69886e-187
7.6841048e-187
8.2528443e-187
9.3614795e-192
-2.6389067e-191
4.5061185e-198
-1.5686395e-09
1.9561584e-21
-2.8310076e-33
6.9131501e-45
-4.8933306e-56
6.7594774e-66
3.941647e-76
4.9935391e-86
3.9698912e-95
-2.3454418e-103
2.0326097e-111
-1.0137529e-118
6.6412144e-125
-3.8341e-131
1.8231073e-137
-6.7601757e-144
2.8447722e-150
-1.3600294e-156
5.3060564e-163
-2.6154134e-169
9.6454872e-176
-4.8039313e-182
1.942493e-188
6.9389009e-193
4.1697858e-194
2.0183811e-194
-8.0635475e-195
-8.4038389e-194
4.3222729e-195
-7.6616305e-195
-3.6623586e-193
-5.3827998e-195
2.1153433e-190
-3.867928e-191
-2.1875166e-193
-2.4885129e-193
-2.4864759e-193
-4.1356847e-198
-4.2704196e-198
1.2581736e-206
-1.3612247e-09
1.446738e-21
-1.7948923e-33
3.7276012e-45
-2.1473831e-56
1.4650312e-66
8.0047158e-77
8.5224959e-87
4.9196863e-96
-3.7891388e-104
2.8204914e-112
-1.0287386e-119
5.0394761e-126
-5.9431489e-132
2.995124e-138
-1.2455589e-144
4.5056497e-151
-1.7701057e-157
6.5356397e-164
-2.3375994e-170
1.0070214e-176
-4.076468e-183
1.5253836e-189
-6.9594244e-196
-1.4061594e-200
-6.7153775e-201
3.0072716e-201
3.1946323e-200
-1.5860696e-201
3.3152455e-201
1.7285362e-199
2.1890783e-201
-1.4456847e-196
1.4555887e-197
7.3158481e-200
7.1163636e-200
5.8393329e-200
2.6563474e-204
-5.706786e-205
-2.7599898e-212
-1.1912887e-09
1.0824711e-21
-1.1527344e-33
2.043032e-45
-9.6725388e-57
4.0275967e-67
2.1035752e-77
1.9099362e-87
8.3008108e-97
-1.2694534e-104
8.3620277e-113
-2.3205369e-120
6.2216186e-127
-4.0336022e-133
1.3488473e-139
-3.7590345e-146
1.2401772e-152
-4.3189724e-159
1.2890046e-165
-4.988822e-172
1.5639688e-178
-5.4028952e-185
1.5317124e-191
-4.7421431e-198
1.3072669e-204
2.2624317e-207
-1.1054499e-207
-9.6843811e-207
5.875437e-208
-9.5760052e-208
-6.9350056e-206
-7.9706923e-208
6.2653519e-203
-5.4777603e-204
-2.8383261e-206
-1.5433525e-206
-1.3137967e-206
-1.057423e-210
-7.3831387e-212
-4.9940401e-219
-1.0527312e-09
8.2145718e-22
-7.5217208e-34
1.141454e-45
-4.4800972e-57
1.2587895e-67
6.4309695e-78
5.0491987e-88
1.7010786e-97
5.8849823e-105
-3.5045259e-113
7.7666153e-121
-1.3424511e-127
5.060974e-134
-1.9104008e-140
6.4606119e-147
-2.1034378e-153
5.909413e-160
-1.522165e-166
3.971388e-173
-1.340756e-179
4.0350014e-186
-1.1171875e-192
3.4339928e-199
-9.3296955e-206
2.5975516e-212
3.7297834e-214
2.764184e-213
-1.6477109e-214
3.2669069e-214
3.0577513e-212
2.7280701e-214
-2.1792034e-209
2.2461864e-210
8.5658523e-213
2.8942002e-213
2.5030445e-213
5.1548016e-217
-8.4422675e-219
-6.6417343e-226
-9.4051011e-10
6.3401588e-22
-5.0040316e-34
6.5240675e-46
-2.1397491e-57
4.3078354e-68
2.2130917e-78
1.5228044e-88
4.0740617e-98
2.587217e-106
-1.4389442e-114
2.5764185e-122
-3.0549735e-129
1.0599595e-135
-3.1417165e-142
8.8861963e-149
-2.3647294e-155
6.232724e-162
-1.8311529e-168
4.7089193e-175
-1.1355419e-181
2.6903609e-188
-6.0431499e-195
1.5257071e-201
-3.6395642e-208
1.0875718e-214
-1.264636e-220
-6.9380206e-220
4.9450206e-221
-8.0692967e-221
-8.3045385e-219
-8.2610714e-221
6.7627324e-216
-6.3834776e-217
-2.0483736e-219
-5.5968527e-220
-4.3248974e-220
-2.4140446e-223
-8.4095174e-226
-7.0220771e-233
-8.5048511e-10
4.9914701e-22
-3.4074759e-34
3.8305103e-46
-1.0576713e-57
1.589436e-68
8.5037905e-79
5.1961468e-89
1.1274814e-98
3.4694134e-107
-1.8694439e-115
2.7856543e-123
-2.7059374e-130
8.4178242e-137
-2.2657966e-143
5.0620933e-150
-1.2852145e-156
2.9451162e-163
-7.1604454e-170
1.7143672e-176
-3.7543482e-183
9.2325034e-190
-2.0861845e-196
4.7892587e-203
-1.1693591e-209
2.5823937e-216
-6.2709631e-223
1.7916691e-226
-1.2101518e-227
2.1130683e-227
2.0315133e-225
2.0575185e-227
-1.8090957e-222
1.5240684e-223
4.114301e-226
8.6856798e-227
6.7964965e-227
2.5693326e-229
-8.4632164e-233
-7.4920699e-240
-7.7927489e-10
4.0201603e-22
-2.3848731e-34
2.3210414e-46
-5.4343315e-58
6.2835898e-69
3.6715648e-79
2.0187449e-89
3.6196443e-99
6.7477021e-108
-3.6806741e-116
4.6578769e-124
-3.2711794e-131
6.9948018e-138
-1.6200447e-144
3.4168856e-151
-7.0688554e-158
1.4429773e-164
-3.1252329e-171
5.9518108e-178
-1.2964015e-184
2.4904925e-191
-5.5848101e-198
1.0738081e-204
-2.1631283e-211
4.2304738e-218
-9.8564683e-225
1.948763e-231
2.4749047e-234
-4.2721651e-234
-4.2010422e-232
-4.8916345e-234
4.1274581e-229
-3.6328698e-230
-6.8764731e-233
-1.1239486e-233
-9.5281774e-234
-1.1497996e-235
-8.3319325e-240
-7.3961585e-247
-7.2413685e-10
3.3216316e-22
-1.7228618e-34
1.4585501e-46
-2.9164378e-58
2.6575838e-69
1.8212562e-79
9.1327936e-90
1.3766855e-99
1.7360741e-108
-1.0170187e-116
1.1256894e-124
-6.1636819e-132
1.155285e-138
-2.2737656e-145
5.1116361e-152
-9.6109054e-159
1.9644503e-165
-3.7400033e-172
6.6952552e-179
-1.3612906e-185
2.5530801e-192
-4.3745121e-199
7.9365583e-206
-1.5233693e-212
3.1457465e-219
-5.7113804e-226
1.0661787e-232
-1.9724791e-239
8.814687e-241
8.4624167e-239
9.5609211e-241
-8.9843396e-236
6.7632105e-237
1.0715116e-239
1.4317079e-240
1.2608992e-240
5.7476678e-242
-7.6016469e-247
-7.2373766e-254
-6.8284678e-10
2.822348e-22
-1.289837e-34
9.5519799e-47
-1.6430678e-58
1.2036714e-69
1.0963509e-79
5.0841016e-90
6.5478216e-100
5.9579168e-109
-4.0509572e-117
4.014924e-125
-1.7239497e-132
2.739546e-139
-5.4107812e-146
9.4119094e-153
-1.6228421e-159
3.0101941e-166
-4.9596379e-173
8.0316196e-180
-1.3782408e-186
2.3290122e-193
-4.2461469e-200
6.6948351e-207
-1.1151238e-213
1.7020658e-220
-2.8680525e-227
4.7892124e-234
-7.9949032e-241
-1.4575815e-248
-1.5125191e-245
-2.0439959e-247
1.6404691e-242
-1.2256582e-243
-1.5046588e-246
-1.6271386e-247
-1.5455318e-247
-3.6065042e-248
-6.9685079e-254
-6.9839072e-261
-6.535775e-10
2.4707367e-22
-1.0042379e-34
6.5487511e-47
-9.7644359e-59
5.8505662e-70
9.5319404e-80
4.148045e-90
4.6353438e-100
3.1928596e-109
-2.9576788e-117
2.6665783e-125
-9.4415486e-133
1.2441287e-139
-2.3501331e-146
3.9595532e-153
-6.5856089e-160
9.7412245e-167
-1.5215526e-173
2.4867527e-180
-3.8129035e-187
6.0505456e-194
-9.6996499e-201
1.5174662e-207
-2.4639039e-214
3.6547026e-221
-5.7204395e-228
8.5297013e-235
-1.3439267e-241
2.2189037e-248
2.6989401e-252
3.6937613e-254
-3.3321005e-249
1.938308e-250
1.934156e-253
1.5843127e-254
1.69305e-254
2.0186749e-254
-4.6963396e-261
-5.5952978e-268
-6.3478135e-10
2.2307239e-22
-8.1525425e-35
4.7177393e-47
-6.1465566e-59
3.0590267e-70
-5.5822366e-78
-2.3155532e-88
-2.2784014e-98
-1.2306245e-107
2.31685e-115
-1.9646123e-123
5.8136325e-131
-6.4648822e-138
9.905979e-145
-1.6080674e-151
2.2094547e-158
-3.4096871e-165
4.7031398e-172
-7.3081069e-179
1.0770626e-185
-1.374022e-192
1.8497698e-199
-2.7793956e-206
3.711615e-213
-5.9755114e-220
8.8412281e-227
-1.3091905e-233
2.0243066e-240
-3.0595965e-247
4.4535709e-254
-1.2928692e-260
5.5546064e-256
-2.8773242e-257
-2.2479229e-260
-1.574923e-261
-1.6708077e-261
-1.2413823e-260
-1.5049966e-267
-1.0226553e-274
-6.2505352e-10
2.0769814e-22
-6.9101528e-35
3.580065e-47
-4.1105595e-59
1.7235346e-70
-2.2399073e-80
-9.0057791e-91
-7.9145221e-101
-3.448444e-110
-1.7278096e-117
1.4144253e-125
-3.6465552e-133
3.5673647e-140
-5.0242686e-147
7.7376693e-154
-1.0520742e-160
1.4005853e-167
-1.8000787e-174
2.402699e-181
-2.9593701e-188
3.7128864e-195
-5.2811396e-202
7.2598334e-209
-9.444335e-216
1.2295759e-222
-1.5654666e-229
1.9621339e-236
-2.5988977e-243
3.5827879e-250
-4.9916555e-257
6.9483956e-264
-8.2401137e-263
3.9180284e-264
2.3974421e-267
1.3442521e-268
1.6163796e-268
5.731797e-267
3.9025388e-274
1.4111234e-281
-6.2299076e-10
1.99141e-22
-6.1135449e-35
2.8639299e-47
-2.9242899e-59
1.0469318e-70
-6.2198666e-81
-2.4678379e-91
-1.9633486e-101
-7.0692061e-111
-6.417836e-119
5.2453013e-127
-1.1933584e-134
9.5626953e-142
-1.2873827e-148
1.6591967e-155
-2.0707407e-162
2.6530118e-169
-3.3558849e-176
4.3385769e-183
-5.0722918e-190
6.1807232e-197
-8.0467461e-204
9.3801536e-211
-1.1522401e-217
1.461241e-224
-1.8360537e-231
2.1946645e-238
-2.9136746e-245
3.8484102e-252
-4.908675e-259
6.5127516e-266
1.1025779e-269
-5.0173521e-271
-2.3536404e-274
-1.0926817e-275
-1.4390275e-275
-2.3325937e-273
-2.0310431e-280
-9.2859325e-288
-6.2705428e-10
1.9603592e-22
-5.6331364e-35
2.4120742e-47
-2.2113618e-59
6.8469364e-71
-2.4924866e-81
-9.9520897e-92
-7.2609321e-102
-2.20469e-111
-1.0002426e-119
8.4524443e-128
-1.7397964e-135
1.233201e-142
-1.5279732e-149
1.9583226e-156
-2.5163411e-163
2.9367449e-170
-3.661975e-177
4.3797533e-184
-5.3768818e-191
6.7777738e-198
-7.4772439e-205
9.2087262e-212
-1.0654837e-218
1.2924174e-225
-1.5397626e-232
1.9866318e-239
-2.4877931e-246
3.05193e-253
-3.6716117e-260
4.5351372e-267
-5.4529075e-274
5.7438025e-278
2.1081979e-281
8.2692659e-283
1.2650387e-282
7.5151262e-280
6.3525686e-287
2.7058774e-294
-6.3545756e-10
1.9722888e-22
-5.3828036e-35
2.1312628e-47
-1.772097e-59
4.8045291e-71
-1.2143297e-81
-4.9887618e-92
-3.3811051e-102
-8.823204e-112
-2.5218651e-120
2.3215784e-128
-4.3681736e-136
2.663277e-143
-2.9537302e-150
3.4865385e-157
-4.156959e-164
4.824696e-171
-5.5640625e-178
6.0236235e-185
-6.8750646e-192
7.113743e-199
-7.6981348e-206
8.2942245e-213
-8.9811654e-220
9.9717586e-227
-1.1295671e-233
1.2907645e-240
-1.3865771e-247
1.5636231e-254
-1.9010545e-261
2.3306357e-268
-2.908059e-275
3.1829381e-282
-2.2408332e-288
-5.7803619e-290
-1.0547616e-289
-2.3794168e-286
-2.1021761e-293
-9.2677912e-301
-6.4614563e-10
2.0158521e-22
-5.3011843e-35
1.9642694e-47
-1.4968227e-59
3.5967942e-71
-6.7817998e-82
-2.9451146e-92
-1.8797082e-102
-4.2927473e-112
-8.6397683e-121
9.2381969e-129
-1.6208976e-136
8.4430257e-144
-7.8435794e-151
7.5845809e-158
-7.494307e-165
7.2098588e-172
-6.8387737e-179
6.4717849e-186
-6.4205964e-193
6.0891244e-200
-5.6779866e-207
5.2827916e-214
-4.938844e-221
4.8069534e-228
-4.6864941e-235
4.9387282e-242
-5.04611e-249
5.2405141e-256
-5.7095795e-263
6.8763687e-270
-8.1640535e-277
8.441281e-284
-7.1190455e-291
4.7250635e-297
8.4063287e-297
5.2263578e-293
3.5851812e-300
1.3097902e-307
-6.5690199e-10
2.0785007e-22
-5.3390114e-35
1.8739137e-47
-1.3227367e-59
2.8505954e-71
-4.2057228e-82
-2.0009503e-92
-1.2217509e-102
-2.4876394e-112
-3.7926417e-121
5.1825298e-129
-8.5299415e-137
3.7949402e-144
-2.8155872e-151
2.3303728e-158
-1.7995089e-165
1.3694217e-172
-1.0354344e-179
8.0273997e-187
-6.4469209e-194
4.8223604e-201
-3.6013762e-208
2.7987289e-215
-2.2668034e-222
1.7496136e-229
-1.4181168e-236
1.1711607e-243
-1.0333057e-250
9.323201e-258
-8.8201001e-265
8.8045034e-272
-9.1830297e-279
9.3361696e-286
-7.6571093e-293
4.9196406e-300
-6.1624192e-304
-9.9752644e-300
-8.1737296e-307
1.6675141e-313
-6.6561989e-10
2.146114e-22
-5.451167e-35
1.8339067e-47
-1.2119406e-59
2.3693986e-71
-2.8320648e-82
-1.5537016e-92
-9.2403792e-103
-1.7101983e-112
-2.0751501e-121
4.5018625e-129
-6.9967098e-137
2.5992797e-144
-1.5611704e-151
9.7436528e-159
-6.2615743e-166
3.9315959e-173
-2.4788081e-180
1.5150461e-187
-9.1004722e-195
5.4252051e-202
-3.3535726e-209
2.0684739e-216
-1.287748e-223
8.0135654e-231
-5.1388442e-238
3.4149583e-245
-2.3175854e-252
1.6942312e-259
-1.3160966e-266
1.0703177e-273
-9.3582811e-281
8.1457524e-288
-5.9675615e-295
3.8424787e-302
-2.7162058e-309
1.9616919e-306
9.9514341e-313
-1.3895324e-313
-6.706661e-10
2.2040103e-22
-5.5930237e-35
1.8237221e-47
-1.1400018e-59
2.0440557e-71
-2.0335769e-82
-1.3917891e-92
-8.2218015e-103
-1.4092428e-112
-1.4105908e-121
1.0831715e-128
-1.6551516e-136
5.1405162e-144
-2.4472327e-151
1.2883938e-158
-6.5755425e-166
3.3367168e-173
-1.6927479e-180
8.5571729e-188
-4.2823345e-195
2.1959611e-202
-1.1223644e-209
5.6036547e-217