/*--------------------------------*- C++ -*----------------------------------*\
  =========                 |
  \\      /  F ield         | OpenFOAM: The Open Source CFD Toolbox
   \\    /   O peration     | Website:  https://openfoam.org
    \\  /    A nd           | Version:  10
     \\/     M anipulation  |
\*---------------------------------------------------------------------------*/
FoamFile
{
    format      ascii;
    class       volScalarField;
    location    "0.13";
    object      TporMedia;
}
// * * * * * * * * * * * * * * * * * * * * * * * * * * * * * * * * * * * * * //

dimensions      [0 0 0 1 0 0 0];

internalField   nonuniform List<scalar> 
4000
(
-2.0531181e-05
9.4610921e-06
0.00024703394
0.0002164569
0.00021178644
0.00021148173
0.00019778044
0.00022142242
0.00018999048
0.00020637283
0.000189437
0.00021668146
0.00020667905
0.00020391957
0.00022216677
0.00021507305
0.00019831714
0.00020191721
0.00023207911
0.00026546863
0.0002186028
0.00021650597
0.00021058423
0.00020313657
0.00020966886
0.00021495462
0.00021605954
0.00021594143
0.00020972891
0.00020248769
0.00019597005
0.00018749793
0.00021430667
0.00020985427
0.00020103578
0.00022333344
0.0002319646
0.00019485092
0.0001868565
0.00021759606
-1.7215009e-06
4.7512449e-14
3.7692297e-12
1.3265782e-09
1.2437717e-10
7.8200211e-11
9.6986078e-11
8.0997123e-11
7.6285987e-11
6.713833e-11
9.0689374e-11
9.3574715e-11
7.8132626e-11
7.4965363e-11
8.6467834e-11
8.2536119e-11
9.4213219e-11
8.7478301e-11
1.2025544e-10
8.7679458e-11
9.4519661e-11
8.2504661e-11
7.2179451e-11
8.5036981e-11
8.4946941e-11
9.7648098e-11
1.0403414e-10
9.2460877e-11
8.8598172e-11
6.8420422e-11
7.1372116e-11
7.8772403e-11
1.0903857e-10
8.3648206e-11
7.0872897e-11
8.2597861e-11
9.7575528e-11
8.4341631e-11
7.7362459e-11
7.6036551e-11
-7.0088325e-07
-1.5168694e-14
1.6878446e-20
6.7466075e-17
-5.4438109e-17
3.4430676e-17
3.2531401e-17
2.8775681e-17
2.7937498e-17
2.3219507e-17
2.7996729e-17
3.4946041e-17
2.3654231e-17
3.2423011e-17
2.8991065e-17
2.8237063e-17
4.1681589e-17
3.1689322e-17
5.2852995e-17
3.0202064e-17
3.6777231e-17
3.4659419e-17
2.7905733e-17
2.7912893e-17
3.0123217e-17
4.8183677e-17
4.1526919e-17
3.0843906e-17
4.204636e-17
2.4421038e-17
2.49925e-17
3.1939105e-17
3.6215803e-17
2.9531621e-17
3.5055507e-17
2.8893894e-17
3.1188085e-17
2.5623371e-17
2.6669035e-17
2.6389324e-17
-3.8069232e-07
8.4529891e-16
2.0055763e-24
6.9678599e-25
9.030839e-24
5.3896845e-23
1.0183209e-23
1.0004271e-23
1.0332065e-23
8.4264932e-24
1.3043332e-23
1.3286991e-23
9.8012842e-24
1.2024121e-23
1.064568e-23
1.0296741e-23
1.4545235e-23
1.1797649e-23
2.5898167e-23
1.1334286e-23
1.4588403e-23
1.3111107e-23
9.2714927e-24
1.0154825e-23
1.2491916e-23
1.7191182e-23
1.3932179e-23
1.221393e-23
1.8627036e-23
9.8039864e-24
9.7715762e-24
9.86825e-24
1.6320584e-23
1.0984417e-23
1.2925014e-23
9.8082178e-24
1.1551512e-23
8.4034898e-24
1.0819482e-23
1.0804038e-23
-2.426999e-07
1.6851846e-16
3.0990313e-25
3.7887114e-33
2.7610275e-30
-9.1154205e-30
3.9581796e-30
3.9539523e-30
3.1298167e-30
4.1708065e-30
4.6075916e-30
4.7664165e-30
3.8773812e-30
4.8926268e-30
3.900767e-30
5.1089217e-30
6.1664111e-30
5.4825175e-30
9.1683285e-30
4.1636003e-30
5.4817867e-30
4.7011608e-30
3.9936231e-30
3.8457372e-30
5.535357e-30
6.6499964e-30
6.0489233e-30
4.5646328e-30
6.9739606e-30
4.1021601e-30
4.245086e-30
4.5023258e-30
5.4946049e-30
3.8296493e-30
4.7711315e-30
3.5552782e-30
4.9013817e-30
2.8213277e-30
3.7098062e-30
3.3013315e-30
-1.71597e-07
5.7576276e-17
1.3124764e-25
2.4715679e-34
5.4917679e-38
6.5734019e-37
6.1137661e-36
1.53856e-36
1.0778937e-36
1.5525736e-36
2.2398241e-36
1.7701422e-36
1.8174124e-36
1.8836317e-36
2.0194302e-36
1.9388994e-36
3.0091286e-36
2.4309895e-36
3.5229008e-36
1.5793621e-36
2.0161732e-36
2.1663668e-36
1.6011738e-36
1.3659842e-36
2.1124847e-36
2.5811537e-36
2.238512e-36
1.9105703e-36
2.1549041e-36
1.6680002e-36
1.5562077e-36
1.4865151e-36
1.7998706e-36
1.7134497e-36
2.6526795e-36
1.3677551e-36
1.4771919e-36
2.2440158e-38
1.2584743e-36
1.2561994e-36
-1.3051778e-07
2.5694963e-17
-6.9011658e-25
-8.0052562e-34
-4.9610796e-42
-3.1778519e-44
-1.2157593e-42
7.3545916e-43
3.2547484e-43
6.9313098e-43
7.6688343e-43
6.932316e-43
6.976144e-43
8.2998783e-43
1.0849037e-42
6.2494713e-43
1.125295e-42
9.27907e-43
1.3984665e-42
6.4813018e-43
1.0185481e-42
8.6432364e-43
7.5267562e-43
5.696852e-43
8.5345219e-43
1.1747375e-42
9.2946198e-43
1.4409314e-42
2.8749013e-42
7.5147024e-43
6.330632e-43
7.0623347e-43
7.7634408e-43
7.784353e-43
-3.3212068e-41
4.6895697e-43
9.3777471e-43
1.9181388e-42
3.620355e-43
4.9995333e-43
-1.045535e-07
1.3524639e-17
-1.3405092e-26
-1.1215109e-35
-3.1065207e-44
4.2567977e-51
8.5588173e-50
3.8248406e-49
1.4410179e-49
2.3928672e-49
2.615539e-49
2.8584234e-49
3.072316e-49
3.2165461e-49
4.8025354e-49
3.2868777e-49
6.2406251e-49
3.584027e-49
5.7502573e-49
2.8264227e-49
3.7306036e-49
4.2734143e-49
3.6853889e-49
2.5932229e-49
3.5888768e-49
5.0090936e-49
4.0607059e-49
1.7245023e-49
-1.0270827e-48
2.4298568e-49
2.8970653e-49
2.7266413e-49
1.8783875e-49
3.4633093e-49
6.2771545e-47
2.3400248e-49
-2.1755613e-49
-7.5956451e-48
3.0070169e-49
2.0496902e-49
-8.6696475e-08
7.9347873e-18
-3.0803256e-27
-2.1324976e-36
-3.2174995e-45
-1.6148147e-52
-3.1865372e-57
-8.0532551e-55
6.1493714e-56
9.5764345e-56
1.0502479e-55
1.1568594e-55
1.1796037e-55
1.3118318e-55
3.1395307e-55
1.407279e-55
2.8276288e-55
1.4975512e-55
3.0279411e-55
1.1900527e-55
1.5750325e-55
1.6846763e-55
2.1520099e-55
1.0104701e-55
1.9228454e-55
2.225448e-55
1.8675948e-55
5.5241606e-55
2.5673991e-54
1.4156034e-55
1.1583917e-55
1.3825276e-55
1.450134e-55
1.0557008e-55
-4.3295153e-53
-1.1420867e-55
3.6295406e-54
3.5200374e-54
-1.3143792e-55
7.4156782e-56
-7.3300776e-08
4.9947057e-18
-1.0351346e-27
-6.8354891e-37
-6.4193479e-46
-6.4915767e-54
1.6295999e-61
-7.9444593e-63
1.9376677e-62
3.2467597e-62
4.2475588e-62
4.9423425e-62
4.8608694e-62
5.3862389e-62
1.4334332e-61
6.4446862e-62
1.5078463e-61
8.0402609e-62
1.328775e-61
4.4747985e-62
6.7844477e-62
5.9688783e-62
1.1009169e-61
2.9539807e-62
6.4761878e-62
8.0794896e-62
7.8413685e-62
-1.1175149e-60
-4.5638863e-60
3.4832075e-62
3.9530333e-62
2.793951e-62
-4.4265494e-62
8.3371427e-62
1.0593104e-58
4.0780823e-61
-1.655363e-57
-7.1136331e-60
3.6238447e-61
2.6088661e-62
-6.2389428e-08
3.281014e-18
-4.1871729e-28
-3.2173146e-37
-2.0705351e-46
-8.4954639e-55
1.750059e-62
1.2977681e-68
1.2829075e-68
1.3779757e-68
1.8380973e-68
2.1912882e-68
1.9502815e-68
2.4072266e-68
4.9690289e-68
3.0092097e-68
6.4729844e-68
2.6275276e-68
6.2574618e-68
3.2123908e-68
4.2964765e-68
3.0207956e-68
4.2408362e-68
4.6299194e-68
3.7954999e-68
4.9665334e-68
5.4896632e-68
1.4055537e-66
3.2305462e-66
3.1656841e-68
2.4046046e-68
7.9788104e-68
2.0614686e-67
-1.283544e-66
-6.1242838e-65
-7.2256494e-67
1.6523526e-63
3.0224443e-65
-8.3017421e-67
1.1859944e-68
-5.3023309e-08
2.2080058e-18
-1.8891186e-28
-2.6895374e-37
-1.2794412e-46
-2.7289265e-55
5.8441805e-63
-2.1336488e-70
-6.9057605e-74
3.7880586e-75
8.2567911e-75
8.9571634e-75
1.1451736e-74
1.1680269e-74
2.7779855e-74
1.2563028e-74
2.3751466e-74
1.3172516e-74
3.4501738e-74
4.742837e-75
1.6695632e-74
8.7145583e-75
2.4172203e-74
-1.3670621e-75
9.3238086e-75
2.1150777e-74
-4.5642849e-75
-1.7033495e-72
-6.1921334e-72
-1.2941248e-74
2.0205149e-75
-3.6463933e-74
-1.6175916e-73
1.6238958e-72
8.0402502e-71
1.6003141e-72
-1.6006494e-69
-1.9426623e-71
3.9262876e-73
5.4899197e-75
-4.4815899e-08
1.5052339e-18
-9.1349844e-29
2.3202201e-37
8.6888714e-47
1.099525e-55
-4.9711212e-63
1.1521329e-70
-4.0363954e-77
2.7703949e-81
3.9661011e-81
4.4675106e-81
2.7141676e-81
5.8698235e-81
7.9988287e-81
7.0090898e-81
9.6926191e-81
6.114596e-81
1.7220603e-80
7.276955e-81
1.3391278e-80
5.6549291e-81
1.197033e-80
1.9949868e-80
1.3666529e-80
1.7412273e-80
3.2140496e-80
4.1982412e-78
7.8558664e-78
4.1011307e-80
5.2804788e-81
8.3475398e-80
1.7721243e-79
-1.9612454e-78
-2.2775517e-76
-2.6138937e-78
1.6237512e-75
3.1155003e-77
-6.2494907e-79
3.1114211e-81
-3.7672241e-08
1.0342517e-18
-4.6346624e-29
2.2087114e-38
6.8905292e-48
5.659731e-57
1.6252988e-64
-2.6554333e-72
2.8496091e-79
9.3291506e-86
1.4392639e-87
1.6180137e-87
2.0548777e-87
1.9402466e-87
7.4631912e-87
1.7263692e-87
4.3823805e-87
3.5483042e-87
7.1988119e-87
-1.4161719e-87
1.5530223e-88
5.4538265e-88
4.6925253e-87
-4.6900397e-87
-5.3900972e-87
7.7348047e-87
-1.2220117e-86
-2.9502377e-84
-5.0585727e-84
-3.172448e-86
-8.8697903e-87
-7.2399365e-86
-9.6856425e-86
4.1532443e-84
5.789912e-82
4.6502296e-84
-1.6727663e-81
-2.3338802e-83
3.8034098e-85
1.9862837e-87
-3.1548269e-08
7.1494242e-19
-2.4372104e-29
5.3693236e-39
1.4714299e-48
8.3807459e-58
6.0929718e-66
-7.8393104e-74
4.5434349e-81
1.9758835e-87
1.9766308e-93
1.0953633e-93
3.2094237e-94
2.099956e-93
1.9023498e-93
3.4831695e-93
1.9319727e-93
1.4789028e-93
4.4094083e-93
3.6174572e-93
6.9165102e-93
4.7513193e-93
2.9070282e-93
1.0264212e-92
8.1567443e-93
7.6291017e-93
7.8033972e-93
3.7879274e-90
8.5311767e-90
3.9714083e-92
7.0186499e-93
7.8908966e-92
1.0423855e-91
-2.5378851e-90
-5.0844149e-88
-7.625301e-90
1.9218871e-87
2.940831e-89
-9.9220259e-92
2.8507289e-93
-2.6378708e-08
4.9709414e-19
-1.3188057e-29
1.6797876e-39
4.2759277e-49
1.7786193e-58
5.920475e-67
-6.5497539e-75
2.2810797e-82
1.0726772e-87
4.09219e-94
5.3797958e-100
8.0895457e-100
3.5858009e-100
1.7761175e-99
-2.0880866e-100
1.396884e-99
1.4654462e-99
2.0971622e-99
-9.6639331e-100
-4.778074e-100
-4.5134981e-101
1.3525067e-99
-2.4442051e-99
-3.568272e-99
2.2772151e-99
-6.1577291e-99
-2.0991016e-96
-6.3075632e-96
-3.059356e-98
-2.1144675e-99
-7.9136917e-98
-1.2369917e-97
1.553601e-96
9.136794e-94
5.1387588e-96
-1.3822696e-93
-1.8454008e-95
2.3821303e-97
3.0597765e-99
-2.2057944e-08
3.4762071e-19
-7.3069601e-30
5.9958513e-40
1.514223e-49
4.7965352e-59
8.9394196e-68
-9.6374951e-76
2.1677223e-83
-1.7089462e-89
-6.8093543e-96
-3.3315403e-102
9.4336487e-107
8.4259997e-106
4.7846463e-106
7.171596e-106
9.5053171e-106
6.3434279e-106
2.039711e-105
2.2498473e-105
2.5955724e-105
1.30086e-105
1.8259551e-105
4.395911e-105
9.1112081e-105
4.9793331e-105
3.4064355e-105
2.6293714e-102
5.4634265e-102
1.6852706e-104
2.9851774e-105
6.5712462e-104
8.9251234e-104
-2.4003653e-102
-9.9233521e-100
-4.0039168e-102
2.2177521e-99
2.7006974e-101
1.2427242e-104
-1.3847442e-104
-1.8455812e-08
2.443155e-19
-4.1276716e-30
2.3297256e-40
6.3897835e-50
1.5976532e-59
1.8540608e-68
-2.3430144e-76
3.7343793e-84
-6.3432977e-91
-2.2202174e-97
-9.8862732e-104
-7.1214371e-110
9.5018339e-113
7.5399587e-112
-1.9818923e-112
5.7540081e-112
6.626836e-112
1.0990862e-111
2.7888026e-112
-8.4683784e-112
-2.4235734e-112
7.6361597e-112
-2.5811142e-111
-4.389635e-111
1.6062094e-111
-7.3969748e-111
-2.81341e-109
-8.2252313e-108
-7.4561273e-111
-3.0759101e-111
-1.4802075e-109
-8.4139168e-110
4.2196703e-108
4.4214036e-106
1.0564517e-107
-1.2219893e-105
-1.2888019e-107
4.6675104e-110
4.78342e-110
-1.5446366e-08
1.7237072e-19
-2.3681661e-30
9.6132866e-41
3.3403465e-50
6.803326e-60
5.2860544e-69
-1.2671892e-76
1.534733e-84
-1.3654397e-91
-5.6309354e-98
-2.1500924e-104
-1.3262408e-110
-6.969202e-117
2.534282e-118
2.0729051e-118
5.9266939e-118
3.5309914e-118
1.1969796e-117
1.3328709e-117
1.5118316e-117
5.1233208e-118
5.51713e-118
3.8695024e-117
1.0086911e-116
2.3938463e-117
4.2228463e-117
8.7303839e-115
4.0362696e-114
1.7877833e-116
1.7880544e-117
8.0240135e-116
8.521793e-116
-3.2220431e-114
-3.1877855e-112
-2.1366673e-114
9.372123e-112
1.0430846e-113
3.2141831e-116
-2.2878825e-116
-1.2920912e-08
1.2187961e-19
-1.3749148e-30
4.1473519e-41
2.7130151e-50
4.6300545e-60
2.5370252e-69
8.3301298e-77
-8.0122598e-85
3.9975439e-92
1.931021e-98
1.1729128e-104
7.1413902e-111
4.7525857e-117
4.183724e-123
-1.1058154e-124
3.7164393e-124
2.9806677e-124
7.9449392e-124
1.7577637e-124
4.4876809e-124
4.4496298e-125
4.7122718e-124
-3.2619979e-124
1.9766324e-123
1.5487027e-123
-1.839529e-123
-2.9991925e-121
-1.7734555e-120
-5.4185805e-123
-1.8657986e-123
-4.8179346e-122
-6.9811079e-122
1.6811339e-120
3.5392105e-118
2.1104867e-119
-5.5053384e-118
-6.2527061e-121
4.6989933e-122
6.195479e-123
-1.0796203e-08
8.6256731e-20
-8.0546058e-31
1.8511545e-41
-3.4028735e-50
-4.9982817e-60
-2.0101318e-69
-1.3830611e-77
1.1197885e-85
-3.6544131e-93
-1.0087352e-98
-4.3484255e-105
-3.0016325e-111
-1.9891151e-117
-2.3523722e-123
-1.9688851e-129
3.3155619e-130
3.704884e-130
8.1588435e-130
5.8344741e-130
1.0431219e-129
2.0280531e-130
5.3442629e-130
2.0894278e-129
3.58791e-129
2.4603968e-129
1.3543167e-129
2.0061212e-127
8.2328273e-127
8.3507604e-129
1.6356254e-129
4.0408137e-128
3.5937866e-128
-2.8284983e-126
-9.3617723e-125
-2.6661486e-126
9.0841147e-124
3.0078174e-126
2.1474828e-127
-1.097875e-129
-9.0121589e-09
6.1072675e-20
-4.7527875e-31
8.4896648e-42
-2.4228669e-51
-3.1445789e-61
-9.5955908e-71
-3.0437424e-79
2.1977139e-87
-4.9501988e-95
3.2908081e-101
1.5663404e-107
8.0389858e-114
2.5462136e-119
2.1867901e-125
2.9432641e-131
4.0666007e-136
9.2514317e-136
1.0638592e-135
2.529006e-136
5.9964985e-136
2.6668627e-136
1.056236e-135
1.0045258e-135
2.0303753e-135
2.1755039e-135
-2.4582602e-135
-2.5486582e-134
-1.7301118e-132
1.615756e-135
-4.6422945e-136
-5.1114512e-134
-2.8752448e-134
1.1820817e-132
2.4812082e-130
5.4769802e-132
-1.5199887e-129
4.252259e-132
-2.4095835e-133
1.4210161e-136
-7.5224314e-09
4.3276439e-20
-2.8228327e-31
3.9830056e-42
-5.2893494e-52
-6.2325074e-62
-1.4834386e-71
-2.6862834e-80
1.8426764e-88
-2.9930866e-96
8.0077087e-103
2.9528134e-109
5.1507742e-115
5.9773154e-121
1.4334927e-126
2.0711125e-132
2.3360994e-138
1.6855068e-141
1.2672318e-141
6.1456488e-142
2.7252882e-141
5.4111956e-142
1.0595777e-141
2.5892898e-141
3.2182957e-141
3.4055113e-141
1.4334435e-141
7.2359032e-139
-9.2477501e-140
8.3807464e-141
5.6847273e-142
1.1258592e-139
4.2999154e-141
-9.3548486e-139
-2.8367637e-137
-3.3384554e-138
-7.5531767e-136
2.3596776e-137
1.2288947e-139
-1.743969e-143
-6.2861103e-09
3.0715702e-20
-1.687353e-31
1.9061665e-42
-1.4858979e-52
-1.6362502e-62
-3.1118182e-72
-3.5832803e-81
2.5548986e-89
-3.1667824e-97
3.3514418e-104
2.7743837e-110
1.7363241e-116
4.535273e-122
1.4530694e-127
5.1249581e-132
7.9470057e-138
1.2764357e-143
1.0738794e-146
1.324536e-147
6.1315746e-147
-2.9373998e-147
1.7162879e-147
5.0277939e-147
5.5041387e-147
4.7397318e-146
-7.584706e-147
2.1542815e-144
-1.0700806e-144
5.3116349e-147
-7.3267482e-149
-5.8965291e-146
-3.1976965e-146
4.1759487e-145
1.3845961e-142
2.134958e-144
-1.5483663e-141
-8.0456257e-143
-5.570785e-146
2.8465207e-150
-5.2644496e-09
2.1852804e-20
-1.0150955e-31
9.2859145e-43
-4.7313831e-53
-5.0347724e-63
-7.814638e-73
-6.123263e-82
5.2845078e-90
-5.229058e-98
3.5487894e-105
2.4012335e-111
7.598421e-117
5.0592217e-122
7.4530391e-128
-1.0947612e-132
-1.4086045e-138
-3.902231e-144
2.5404914e-148
3.5851452e-153
-4.5619407e-152
-1.6797931e-152
5.7014748e-152
-1.9430398e-152
2.7512222e-152
3.459195e-151
-2.3118716e-152
4.4813613e-150
-2.2938793e-150
2.6150201e-152
-2.4928793e-154
-1.8917075e-152
-1.3267472e-152
-8.8024309e-151
8.6166269e-149
1.0080191e-151
2.3437742e-146
4.7635389e-148
2.1643417e-152
-1.6233753e-156
-4.4212331e-09
1.5591674e-20
-6.1445426e-32
4.5958945e-43
-1.6309917e-53
-1.7474701e-63
-2.2567035e-73
-1.2618994e-82
1.9139346e-90
-1.5526999e-98
6.8176619e-106
1.0668149e-111
1.1630888e-117
1.6633466e-122
1.9132559e-127
-2.0474294e-132
-8.3321623e-138
1.1525726e-143
1.5426896e-148
-1.941404e-154
2.6091248e-157
3.905863e-158
-1.8820161e-157
4.279885e-158
-6.0794406e-158
5.6406982e-156
4.8149994e-158
-7.1711492e-156
-5.9653312e-156
2.5178208e-157
2.3505475e-159
-4.7712686e-158
-7.8726557e-158
6.6856679e-157
2.7975778e-154
2.9036025e-156
-3.2712503e-152
-6.5991364e-154
-8.203529e-159
-3.4947719e-163
-3.7243965e-09
1.1158042e-20
-3.7408243e-32
2.3068627e-43
-5.950173e-54
-6.7857436e-64
-7.4233892e-74
-3.0733508e-83
-1.9231991e-90
1.3317255e-98
-4.0617046e-106
3.490745e-112
3.0566751e-118
2.1324263e-123
-3.6148622e-128
3.6346551e-133
-5.3600371e-139
5.9437553e-145
-1.3032364e-150
1.6386114e-156
-1.0097778e-161
-2.8059791e-164
-8.1284261e-163
-4.9019491e-164
1.9762682e-163
-7.3251794e-162
-6.0286671e-164
-4.1776012e-160
7.0858919e-162
-4.0237701e-163
-3.2317795e-165
-2.2466621e-163
3.5664224e-163
2.1919875e-162
2.044563e-159
-9.8580539e-162
3.931405e-158
5.80457e-160
8.3226624e-165
-3.1388538e-170
-3.1474145e-09
8.0103131e-21
-2.2896604e-32
1.1725133e-43
-2.2672423e-54
-2.9966848e-64
-2.8244667e-74
-8.9149882e-84
-6.4809552e-92
3.9547716e-100
-8.8729608e-108
4.0356863e-114
6.1855492e-120
-4.4836788e-125
5.6214754e-131
-5.0023264e-137
1.0624718e-142
-3.7494394e-148
3.3481926e-154
-4.5433999e-160
5.2525222e-166
2.0788683e-170
1.19729e-168
4.0055952e-170
-1.8449694e-169
1.2813144e-167
8.0616231e-170
9.2587746e-166
-1.0465199e-167
8.3539734e-169
5.8073439e-171
3.309247e-169
-1.4186235e-168
-1.8921382e-167
1.1110975e-164
1.3465492e-167
-5.3054061e-164
-3.2893734e-166
6.6741335e-170
2.1798128e-177
-2.6690338e-09
5.7706566e-21
-1.4088235e-32
6.0283884e-44
-8.9488264e-55
-1.6064899e-64
-1.3260402e-74
-3.2708222e-84
-1.0594034e-92
5.9268487e-101
-1.0056163e-108
1.9123178e-115
4.4664758e-121
-4.5676659e-127
6.0115643e-133
-5.7762258e-139
1.5212137e-144
-9.1559057e-151
1.6040176e-156
-2.8498056e-162
2.0772174e-168
-2.3226405e-174
-2.2170414e-174
-4.5478947e-176
1.4739739e-175
-8.1758431e-174
-7.2213698e-176
-9.9640587e-172
1.2585309e-173
-8.5511551e-175
-1.0299237e-176
-4.3056982e-175
2.1990038e-174
2.4442125e-173
-1.216056e-169
-1.2647148e-173
3.0303759e-170
1.7344319e-172
3.9245177e-176
2.2331818e-183
-2.2724041e-09
4.1746729e-21
-8.717111e-33
3.133806e-44
-3.6393521e-55
-1.3958082e-64
-1.025465e-74
-2.0189436e-84
-3.751202e-93
2.0221229e-101
-2.6967496e-109
2.9920426e-116
8.0692889e-122
-2.1088723e-127
2.3396796e-133
-1.9370981e-139
1.7866965e-145
-1.4218535e-151
8.2515545e-158
-5.3889541e-164
4.789114e-170
-4.5444982e-176
1.5332283e-180
3.6589374e-182
-1.1395043e-181
6.9131757e-180
7.7297441e-182
6.2372048e-178
-9.8314882e-180
4.1653033e-181
8.1969953e-183
2.8762764e-181
-2.1361728e-180
-2.8582407e-179
1.4718123e-175
7.3752976e-180
-1.5388079e-176
-7.655334e-179
1.1409203e-182
7.1820723e-190
-1.9439387e-09
3.036111e-21
-5.4284807e-33
1.6473806e-44
-1.5200392e-55
1.0030084e-64
6.6660834e-75
1.0672993e-84
1.278786e-93
-7.0482977e-102
7.6830106e-110
-5.6234807e-117
-6.0581118e-122
3.9945723e-128
-2.4859323e-134
1.2375348e-140
-8.6244354e-147
4.4988823e-153
-2.0212794e-159
1.0461904e-165
-4.391576e-172
2.3453761e-178
-1.4036531e-184
-1.6432873e-188
6.5661669e-188
-4.6225057e-186
-5.7562561e-188
-3.8206187e-184
1.0900585e-185
-2.5846392e-187
-5.1595222e-189
-3.2077993e-187
2.0296204e-186
3.4748088e-185
-9.6080077e-182
-3.8658222e-186
5.5380549e-183
2.8415606e-185
2.2795103e-189
1.5523212e-196
-1.6725006e-09
2.2230636e-21
-3.4068015e-33
8.7637879e-45
-6.5089317e-56
9.2788513e-66
5.6744101e-76
7.5154101e-86
6.2300333e-95
-3.8243545e-103
3.4665139e-111
-1.7918862e-118
1.4848319e-124
-1.2208161e-130
7.7262377e-137
-3.3814807e-143
1.787831e-149
-1.4482356e-155
7.2160573e-162
-3.4319564e-168
1.2343644e-174
-6.1021469e-181
2.7765553e-187
-1.2285625e-193
-3.2728139e-194
1.8665266e-192
3.0317441e-194
1.6683063e-190
-6.3941046e-192
1.316664e-193
3.0089779e-195
1.6777533e-193
-1.0246374e-192
-2.9358425e-191
5.5292791e-188
1.4360013e-192
-1.6983016e-189
-1.6491059e-191
3.5674439e-196
2.7018959e-203
-1.4488028e-09
1.6417637e-21
-2.1585299e-33
4.7244617e-45
-2.855987e-56
2.0224843e-66
1.1590412e-76
1.2895617e-86
7.7579291e-96
-6.2185903e-104
4.8275557e-112
-1.8596609e-119
7.3505268e-126
-6.4429512e-132
3.2656072e-138
-1.360249e-144
5.2726569e-151
-2.1998656e-157
7.3296079e-164
-3.2881656e-170
1.2608428e-176
-4.7233234e-183
1.9037238e-189
-7.5682542e-196
1.2916056e-200
-8.005358e-199
-1.3509132e-200
-5.2813811e-197
3.2548683e-198
-6.0361922e-200
-1.2458996e-201
-7.1626928e-200
5.5533643e-199
3.036097e-197
-2.8255412e-194
-4.5381251e-199
4.7929489e-196
8.4193629e-198
5.7404394e-203
4.4826543e-210
-1.2650878e-09
1.2255181e-21
-1.3839226e-33
2.5860507e-45
-1.2848255e-56
5.564466e-67
3.0488396e-77
2.8912748e-87
1.3084486e-96
-2.0895033e-104
1.4265933e-112
-4.1774217e-120
1.2293024e-126
-6.5002094e-133
2.5967732e-139
-9.9916841e-146
3.3829476e-152
-1.2614537e-158
4.2253737e-165
-1.3193093e-171
5.0104306e-178
-1.9049497e-184
7.1694445e-191
-2.7392728e-197
8.8074029e-204
3.1336327e-205
4.5853165e-207
2.3698298e-203
-1.1537476e-204
2.1866021e-206
4.5643708e-208
2.8886951e-206
-2.9666008e-205
-1.5354242e-203
1.0651245e-200
1.1867577e-205
-1.0187395e-202
-5.3186842e-204
7.0547442e-210
5.7812932e-217
-1.1148766e-09
9.2689817e-22
-9.0037899e-34
1.4410769e-45
-5.9353654e-57
1.7360984e-67
9.3068068e-78
7.6271116e-88
2.6738781e-97
9.7778153e-105
-6.0636847e-113
1.3989858e-120
-2.3385963e-127
1.3707888e-133
-4.5851796e-140
1.4036292e-146
-4.0073081e-153
1.2690702e-159
-3.7949513e-166
1.3961692e-172
-4.1732319e-179
1.2540077e-185
-3.7390578e-192
1.0600285e-198
-3.3527539e-205
7.0702958e-213
-1.3955868e-213
-7.4219114e-210
3.6431254e-211
-8.5296782e-213
-1.433202e-214
-1.1802236e-212
1.1619421e-211
4.8891158e-210
-3.5913742e-207
-2.6917029e-212
1.9593007e-209
3.3134031e-210
1.2194513e-216
9.0789724e-224
-9.9278785e-10
7.122104e-22
-5.9639328e-34
8.2022219e-46
-2.822615e-57
5.9178457e-68
3.1915489e-78
2.2908731e-88
6.3720857e-98
4.1949765e-106
-2.4245136e-114
4.5079643e-122
-6.2442827e-129
2.3778467e-135
-7.239768e-142
2.0147342e-148
-6.5673312e-155
1.812791e-161
-5.0826743e-168
1.3726365e-174
-3.7526741e-181
1.0769352e-187
-3.8199436e-194
9.4697051e-201
-2.7101648e-207
7.3920775e-214
1.9772875e-220
1.9382653e-216
-9.8700079e-218
2.5179295e-219
4.0107187e-221
4.55243e-219
-3.6172014e-218
-1.58607e-216
9.1878826e-214
5.2372147e-219
-3.614912e-216
-2.6256643e-216
-1.4809074e-223
-2.8123014e-231
-8.9438964e-10
5.5755593e-22
-4.0369937e-34
4.7870888e-46
-1.3865274e-57
2.1698451e-68
1.2195151e-78
7.76781e-89
1.7506828e-98
5.5699858e-107
-3.11221e-115
4.7953513e-123
-4.6596519e-130
1.3951025e-136
-4.76446e-143
1.2752457e-149
-3.1739508e-156
7.8586031e-163
-1.9981492e-169
4.5855167e-176
-1.0181945e-182
2.3947571e-189
-5.6115875e-196
1.4227099e-202
-7.6291971e-209
7.1162783e-215
-5.7674528e-220
-5.2696009e-223
2.7523486e-224
-7.8557073e-226
-1.4209743e-227
-1.2047496e-225
9.3721878e-225
5.3757493e-223
-1.8670484e-220
-9.1294985e-226
6.0505482e-223
2.4044401e-222
2.2895875e-229
1.0944364e-236
-8.1605066e-10
4.4600324e-22
-2.8039024e-34
2.8776285e-46
-7.0642895e-58
8.5034256e-69
5.226468e-79
2.9928794e-89
5.5680889e-99
1.0747137e-107
-6.0667078e-116
8.0229572e-124
-5.9852059e-131
1.7393802e-137
-3.6916293e-144
8.2811004e-151
-1.9598876e-157
4.5677408e-164
-9.5170718e-171
2.2988574e-177
-5.6951422e-184
1.2730863e-190
-2.8082755e-197
6.7077105e-204
-1.5539205e-210
3.2622974e-217
-7.1901441e-224
1.2552189e-229
-7.0728219e-231
1.9011413e-232
3.3036286e-234
2.9685028e-232
-2.5263377e-231
-1.3507721e-229
3.5006008e-227
1.2954532e-232
-9.0904482e-230
-1.5259978e-228
-1.2134345e-235
-5.2252227e-243
-7.5480941e-10
3.6557809e-22
-2.0066046e-34
1.7901677e-46
-3.750603e-58
3.5558902e-69
2.5702554e-79
1.3408653e-89
2.0945561e-99
2.7294486e-108
-1.6483039e-116
1.8869842e-124
-1.0151782e-131
2.1806239e-138
-5.9074419e-145
1.1693216e-151
-2.3542357e-158
4.9139919e-165
-8.7000058e-172
1.9609346e-178
-3.9730399e-185
7.8153963e-192
-1.5198295e-198
3.0822214e-205
-6.6929654e-212
1.2956869e-218
-2.5904885e-225
6.2777454e-232
1.3748686e-237
-4.0524693e-239
-6.4980744e-241
-7.4223626e-239
5.1398276e-238
2.738667e-236
-5.6158166e-234
-1.5212538e-239
1.3172776e-236
1.1614517e-234
9.8428298e-242
4.443959e-249
-7.0826501e-10
3.0783643e-22
-1.4856749e-34
1.158143e-46
-2.0853678e-58
1.5880768e-69
1.5347113e-79
7.3947959e-90
9.8541766e-100
9.2571911e-109
-6.4993964e-117
6.6152193e-125
-2.9724416e-132
6.1371152e-139
-1.3784644e-145
2.5923644e-152
-4.4335928e-159
8.237036e-166
-1.4488667e-172
2.7420281e-179
-5.183594e-186
8.8379404e-193
-1.5332465e-199
2.8465701e-206
-5.2211212e-213
8.9870781e-220
-1.8756864e-226
3.4743823e-233
-6.1930163e-240
9.3036611e-246
1.3085044e-247
1.5776311e-245
-1.233587e-244
-4.7272322e-243
8.6296547e-241
1.6604646e-246
-1.660375e-243
-8.1513051e-241
-6.4375718e-248
-2.8645827e-255
-6.7445178e-10
2.6683859e-22
-1.1421965e-34
7.8279619e-47
-1.2202148e-58
7.5916696e-70
1.3389312e-79
6.045025e-90
6.9769876e-100
4.951104e-109
-4.7176697e-117
4.4095415e-125
-1.6129266e-132
2.5721977e-139
-4.8893408e-146
8.9646374e-153
-1.5003244e-159
2.5473121e-166
-4.880491e-173
8.6496589e-180
-1.426744e-186
2.2629605e-193
-3.6467606e-200
5.9137067e-207
-9.2019866e-214
1.3798454e-220
-2.2878518e-227
3.9779457e-234
-6.7443826e-241
1.2195558e-247
-4.6607112e-254
-3.4635164e-252
2.3600561e-251
7.7764322e-250
-1.0907389e-247
-1.6978835e-253
1.8284865e-250
4.5557258e-247
3.6164816e-254
1.6438847e-261
-6.5172485e-10
2.3841716e-22
-9.1449276e-35
5.5499167e-47
-7.5469445e-59
3.8946306e-70
-1.2046358e-78
-5.1753499e-89
-5.2499412e-99
-2.916625e-108
5.5765639e-116
-4.8386283e-124
1.5001816e-131
-1.7945695e-138
3.4766783e-145
-5.9204663e-152
8.8857498e-159
-1.4492189e-165
2.0436001e-172
-3.03701e-179
4.1606338e-186
-6.0093026e-193
8.6733144e-200
-1.3529935e-206
1.8402859e-213
-3.0021633e-220
4.9809109e-227
-7.898165e-234
1.2128753e-240
-1.8689583e-247
2.8799223e-254
5.8523532e-259
-4.1992493e-258
-1.3351434e-256
1.2883861e-254
1.5596723e-260
-2.0058142e-257
-3.6135402e-253
-2.9417919e-260
-1.3951955e-267
-6.3863227e-10
2.1964719e-22
-7.6387851e-35
4.1394623e-47
-4.9507288e-59
2.1488778e-70
-2.7779411e-80
-1.1547055e-90
-1.0441964e-100
-4.6724665e-110
-2.5903616e-117
2.1660559e-125
-5.7476847e-133
5.8712565e-140
-9.0577346e-147
1.3525415e-153
-1.9823813e-160
2.7961771e-167
-4.0020227e-174
5.8711444e-181
-8.0019149e-188
1.0524967e-194
-1.4806342e-201
1.8987472e-208
-2.7717999e-215
3.5975674e-222
-4.7498982e-229
6.4293245e-236
-8.6516782e-243
1.2199603e-249
-1.8689092e-256
2.8253512e-263
6.5817353e-265
1.9093206e-263
-1.4602352e-261
-1.2706066e-267
2.1368842e-264
2.3307971e-259
2.0387233e-266
9.2531314e-274
-6.3377384e-10
2.0845148e-22
-6.6589521e-35
3.2525496e-47
-3.4511619e-59
1.2765761e-70
-7.6745552e-81
-3.1428652e-91
-2.5681474e-101
-9.4815292e-111
-8.9354285e-119
7.4004894e-127
-1.7020811e-134
1.4798522e-141
-2.0040655e-148
2.9592714e-155
-3.7803842e-162
5.1254679e-169
-6.8118851e-176
9.2075716e-183
-1.2552774e-189
1.5221045e-196
-1.8640501e-203
2.4596152e-210
-3.0175442e-217
4.1295703e-224
-5.0547157e-231
7.4037682e-238
-9.6582337e-245
1.3801414e-251
-1.8919965e-258
2.5787975e-265
-1.2719407e-271
-2.4978551e-270
1.4583698e-268
9.931874e-275
-2.0781273e-271
-1.0105222e-265
-8.5224959e-273
-3.780663e-280
-6.3566628e-10
2.0329949e-22
-6.0489657e-35
2.6909534e-47
-2.5566523e-59
8.1608395e-71
-3.018523e-81
-1.2421624e-91
-9.2926247e-102
-2.8889252e-111
-1.34962e-119
1.1575669e-127
-2.3962998e-135
1.8157372e-142
-2.4091652e-149
3.1123371e-156
-4.0893733e-163
5.0361027e-170
-5.798441e-177
6.5699806e-184
-8.2830644e-191
1.0459204e-197
-1.2773925e-204
1.5887727e-211
-1.8410682e-218
2.2964436e-225
-2.7076682e-232
3.4704564e-239
-4.1968336e-246
5.4650134e-253
-6.6122113e-260
9.2449314e-267
-1.2811906e-273
3.2740396e-277
-1.3933975e-275
-6.905782e-282
1.5545479e-278
4.9715827e-272
4.1926032e-279
1.9187285e-286
-6.4261861e-10
2.0295805e-22
-5.70621e-35
2.337946e-47
-2.0083882e-59
5.5996812e-71
-1.4391626e-81
-6.0845316e-92
-4.220095e-102
-1.1250875e-111
-3.3028229e-120
3.0671777e-128
-5.7992621e-136
3.7316724e-143
-4.3020322e-150
5.1856745e-157
-6.2226009e-164
7.3716536e-171
-8.7886995e-178
1.0001287e-184
-1.2745107e-191
1.5558726e-198
-1.7271311e-205
2.0852373e-212
-2.4519788e-219
2.7129196e-226
-3.1837993e-233
4.0507343e-240
-4.7986436e-247
6.1336004e-254
-8.0187062e-261
1.0375196e-267
-1.3342098e-274
1.5634478e-281
1.2460041e-282
4.274358e-289
-4.2004559e-286
-1.5359603e-278
-1.2111049e-285
-4.9927949e-293
-6.5267174e-10
2.0628257e-22
-5.5597153e-35
2.1227473e-47
-1.665587e-59
4.1047198e-71
-7.8667297e-82
-3.5082828e-92
-2.2853175e-102
-5.3154719e-112
-1.0941598e-120
1.1701639e-128
-2.0750291e-136
1.1596753e-143
-1.2507691e-150
1.3531011e-157
-1.4781471e-164
1.5792033e-171
-1.6329473e-178
1.7273844e-185
-1.8006505e-192
1.8418047e-199
-1.9154623e-206
2.0168045e-213
-2.0368969e-220
2.1412935e-227
-2.3759082e-234
2.6779451e-241
-3.263644e-248
3.8603819e-255
-4.5313439e-262
5.5911455e-269
-6.8368516e-276
7.3990791e-283
-1.7088981e-289
-1.9094765e-296
-2.1971838e-292
4.3055017e-285
3.512492e-292
1.4812202e-299
-6.636527e-10
2.1205427e-22
-5.5552441e-35
2.0004012e-47
-1.4487084e-59
3.1925818e-71
-4.7839597e-82
-2.3282646e-92
-1.4449497e-102
-2.9839444e-112
-4.6184767e-121
6.3314743e-129
-1.0721408e-136
5.1678889e-144
-4.7771344e-151
4.4339762e-158
-4.0118615e-165
3.5937641e-172
-2.9892296e-179
2.5979672e-186
-2.3309586e-193
2.0537539e-200
-1.8680835e-207
1.7785059e-214
-1.5786258e-221
1.5363575e-228
-1.4589672e-235
1.3790915e-242
-1.3046815e-249
1.3671139e-256
-1.4021911e-263
1.7187558e-270
-2.0723053e-277
2.1204237e-284
-1.7796332e-291
1.2672591e-298
6.245939e-299
-9.1861097e-292
-7.0534041e-299
-2.6770954e-306
-6.7338108e-10
2.1889997e-22
-5.645488e-35
1.9402089e-47
-1.3106732e-59
2.6123576e-71
-3.1685226e-82
-1.765921e-92
-1.0616143e-102
-1.9824098e-112
-2.430956e-121
5.2409145e-129
-8.3706819e-137
3.4548672e-144
-2.4116828e-151
1.8637088e-158
-1.3351865e-165
9.687972e-173
-6.9015462e-180
4.919905e-187
-3.4781774e-194
2.5390954e-201
-1.752446e-208
1.268035e-215
-9.1634972e-223
6.5488788e-230
-5.0116199e-237
3.8296142e-244
-3.0581258e-251
2.6481005e-258
-2.405789e-265
2.3939307e-272
-2.3979681e-279
2.2623416e-286
-1.7718266e-293
1.1967761e-300
-1.4124909e-305
2.1057011e-298
1.5611154e-305
4.8939521e-313
-6.8000071e-10
2.253356e-22
-5.784609e-35
1.9190795e-47
-1.2218787e-59
2.2269044e-71
-2.2458125e-82
-1.5444015e-92
-9.166217e-103
-1.5772891e-112
-1.5909436e-121
1.1220951e-128
-1.763198e-136
5.9351666e-144
-3.2468188e-151
1.8703571e-158
-1.1019071e-165
6.3760051e-173
-3.6796961e-180
2.1047928e-187
-1.1949836e-194
6.8045805e-202