/*--------------------------------*- C++ -*----------------------------------*\
  =========                 |
  \\      /  F ield         | OpenFOAM: The Open Source CFD Toolbox
   \\    /   O peration     | Website:  https://openfoam.org
    \\  /    A nd           | Version:  10
     \\/     M anipulation  |
\*---------------------------------------------------------------------------*/
FoamFile
{
    format      ascii;
    class       volVectorField;
    location    "0.13";
    object      U;
}
// * * * * * * * * * * * * * * * * * * * * * * * * * * * * * * * * * * * * * //

dimensions      [0 1 -1 0 0 0 0];

internalField   nonuniform List<vector> 
4000
(
(0 0.018636352 0.47773212)
(0 0.023507918 0.50886031)
(0 0.0081649233 0.50052529)
(0 0.0056126849 0.5003364)
(0 0.0042525624 0.50025748)
(0 0.0032528379 0.50016898)
(0 0.002554016 0.50011968)
(0 0.002052588 0.50009011)
(0 0.0016747094 0.50006978)
(0 0.0013805337 0.50005535)
(0 0.0011456844 0.50004495)
(0 0.0009538192 0.50003728)
(0 0.00079368051 0.50003154)
(0 0.0006572893 0.50002721)
(0 0.00053881387 0.50002392)
(0 0.00043387019 0.50002144)
(0 0.00033906749 0.50001959)
(0 0.0002517004 0.50001826)
(0 0.00016953271 0.50001737)
(0 9.0638908e-05 0.50001686)
(0 1.3282118e-05 0.50001671)
(0 -6.419352e-05 0.50001691)
(0 -0.00014345419 0.50001747)
(0 -0.00022626815 0.50001843)
(0 -0.00031461702 0.50001984)
(0 -0.00041082611 0.50002179)
(0 -0.00051773625 0.50002441)
(0 -0.00063894321 0.50002788)
(0 -0.00077914552 0.50003247)
(0 -0.0009446744 0.5000386)
(0 -0.0011443451 0.50004686)
(0 -0.0013908221 0.50005822)
(0 -0.0017028597 0.50007414)
(0 -0.0021108144 0.5000971)
(0 -0.0026706119 0.50013484)
(0 -0.003464405 0.50020243)
(0 -0.0045570175 0.50027156)
(0 -0.0065814151 0.50043381)
(0 -0.017655832 0.50675357)
(0 -0.013588286 0.47975666)
(0 0.037429644 0.44797304)
(0 0.050949463 0.5323258)
(0 0.021962969 0.50804302)
(0 0.016129532 0.50357359)
(0 0.012409544 0.50242329)
(0 0.0095093355 0.50162298)
(0 0.0075141158 0.5011565)
(0 0.0060636392 0.50086572)
(0 0.0049587041 0.50066771)
(0 0.0040947661 0.50052864)
(0 0.0034028627 0.5004286)
(0 0.0028360356 0.50035503)
(0 0.0023619008 0.50030009)
(0 0.0019573644 0.50025864)
(0 0.0016054558 0.50022725)
(0 0.0012933695 0.50020355)
(0 0.0010111703 0.50018592)
(0 0.00075090987 0.50017323)
(0 0.00050600341 0.50016471)
(0 0.0002707705 0.50015987)
(0 4.0079909e-05 0.50015844)
(0 -0.00019095919 0.50016035)
(0 -0.00042726778 0.50016571)
(0 -0.00067406776 0.50017485)
(0 -0.00093720183 0.50018829)
(0 -0.001223512 0.50020689)
(0 -0.0015413354 0.50023188)
(0 -0.0019011923 0.50026506)
(0 -0.0023167783 0.50030905)
(0 -0.002806449 0.50036774)
(0 -0.0033955963 0.50044708)
(0 -0.0041206153 0.50055655)
(0 -0.005034608 0.50071123)
(0 -0.0062174661 0.50093673)
(0 -0.0078180904 0.50129466)
(0 -0.010112365 0.50191105)
(0 -0.013094677 0.5028261)
(0 -0.017414414 0.50608181)
(0 -0.038747794 0.52526757)
(0 -0.027889322 0.45022367)
(0 0.039883691 0.40983075)
(0 0.061417385 0.54930951)
(0 0.031971976 0.52188182)
(0 0.024344633 0.51008137)
(0 0.019182115 0.50658893)
(0 0.014965565 0.50452804)
(0 0.011995357 0.50327106)
(0 0.0097610016 0.50245777)
(0 0.0080262625 0.5019002)
(0 0.0066554713 0.50150761)
(0 0.0055483871 0.50122419)
(0 0.0046354585 0.50101525)
(0 0.0038679299 0.50085894)
(0 0.0032103882 0.50074088)
(0 0.0026364818 0.50065137)
(0 0.0021261399 0.50058375)
(0 0.001663668 0.50053341)
(0 0.0012364283 0.50049714)
(0 0.00083389563 0.50047278)
(0 0.00044695227 0.50045893)
(0 6.733837e-05 0.50045485)
(0 -0.0003128268 0.50046031)
(0 -0.00070147197 0.50047564)
(0 -0.0011069965 0.50050174)
(0 -0.0015387665 0.50054014)
(0 -0.0020076984 0.50059322)
(0 -0.0025270132 0.5006645)
(0 -0.0031132674 0.50075904)
(0 -0.0037878161 0.50088425)
(0 -0.0045789255 0.50105104)
(0 -0.0055249789 0.50127595)
(0 -0.0066799878 0.50158513)
(0 -0.0081211908 0.50202068)
(0 -0.0099527253 0.50265104)
(0 -0.012347417 0.50361588)
(0 -0.015693349 0.50520065)
(0 -0.019851672 0.50785627)
(0 -0.025165113 0.51641315)
(0 -0.047397844 0.53912969)
(0 -0.030845272 0.41489943)
(0 0.034785916 0.36175002)
(0 0.063823467 0.5545693)
(0 0.039361956 0.53747085)
(0 0.030066792 0.51849359)
(0 0.024095401 0.51197796)
(0 0.019262315 0.50849935)
(0 0.015719237 0.50626353)
(0 0.012937906 0.50475416)
(0 0.010728368 0.50370263)
(0 0.0089538941 0.50295387)
(0 0.0075014284 0.5024084)
(0 0.0062912817 0.50200375)
(0 0.0052656242 0.50169962)
(0 0.0043811743 0.5014691)
(0 0.0036050905 0.50129383)
(0 0.002911964 0.50116114)
(0 0.0022816636 0.50106217)
(0 0.0016978031 0.50099078)
(0 0.0011466163 0.50094278)
(0 0.00061609668 0.50091548)
(0 9.5316976e-05 0.50090741)
(0 -0.00042617079 0.50091816)
(0 -0.00095887641 0.50094836)
(0 -0.0015138988 0.50099973)
(0 -0.0021035469 0.50107525)
(0 -0.0027420577 0.5011795)
(0 -0.0034465021 0.50131921)
(0 -0.0042379914 0.50150406)
(0 -0.0051433404 0.50174805)
(0 -0.0061973659 0.50207165)
(0 -0.0074459762 0.50250536)
(0 -0.008951445 0.50309617)
(0 -0.010801191 0.50391881)
(0 -0.013101847 0.5050897)
(0 -0.015989083 0.50680833)
(0 -0.019865596 0.50947023)
(0 -0.024699811 0.51427851)
(0 -0.03108022 0.52824801)
(0 -0.050291538 0.54408208)
(0 -0.028427349 0.37241845)
(0 0.027417947 0.31487572)
(0 0.062294714 0.55025498)
(0 0.044588297 0.5514672)
(0 0.033958442 0.52748872)
(0 0.027440295 0.51772331)
(0 0.022431375 0.51291958)
(0 0.018613493 0.50973011)
(0 0.01550576 0.50749035)
(0 0.012985194 0.5058968)
(0 0.010922914 0.50474297)
(0 0.0092075108 0.50389149)
(0 0.0077600997 0.50325388)
(0 0.0065206621 0.50277124)
(0 0.00544274 0.50240334)
(0 0.004490252 0.5021224)
(0 0.0036346992 0.50190896)
(0 0.0028531039 0.50174934)
(0 0.0021264927 0.50163396)
(0 0.0014387372 0.50155625)
(0 0.00077564177 0.501512)
(0 0.00012420628 0.50149889)
(0 -0.00052803569 0.50151627)
(0 -0.0011936214 0.50156513)
(0 -0.0018857353 0.50164817)
(0 -0.0026188951 0.50177006)
(0 -0.0034097215 0.50193797)
(0 -0.004277884 0.50216231)
(0 -0.0052473118 0.50245795)
(0 -0.0063478022 0.50284616)
(0 -0.0076171794 0.5033576)
(0 -0.0091037595 0.50403692)
(0 -0.010870033 0.50495065)
(0 -0.013002889 0.50620164)
(0 -0.015606225 0.50794483)
(0 -0.018767923 0.51040664)
(0 -0.02284959 0.51405909)
(0 -0.02813276 0.52114986)
(0 -0.035659936 0.53932805)
(0 -0.050439104 0.54157964)
(0 -0.024073221 0.33062029)
(0 0.019831263 0.27524495)
(0 0.057965293 0.53977368)
(0 0.047328885 0.5625657)
(0 0.03644558 0.53660401)
(0 0.029604768 0.52350794)
(0 0.02464492 0.51740278)
(0 0.020743722 0.51336085)
(0 0.01748052 0.51044093)
(0 0.014786781 0.50831931)
(0 0.012541504 0.50675572)
(0 0.010643132 0.50558561)
(0 0.0090196344 0.50469985)
(0 0.0076133525 0.5040235)
(0 0.0063783848 0.50350435)
(0 0.0052782311 0.50310569)
(0 0.004283381 0.50280146)
(0 0.0033695641 0.50257315)
(0 0.0025164013 0.50240766)
(0 0.0017063262 0.50229599)
(0 0.00092370769 0.50223229)
(0 0.00015412454 0.50221336)
(0 -0.00061630075 0.50223829)
(0 -0.0014015205 0.50230844)
(0 -0.0022161365 0.50242756)
(0 -0.0030760935 0.50260208)
(0 -0.0039994292 0.50284181)
(0 -0.0050071718 0.50316088)
(0 -0.0061244418 0.50357931)
(0 -0.0073818457 0.50412527)
(0 -0.0088173718 0.50483872)
(0 -0.01047835 0.50577667)
(0 -0.012423138 0.50702144)
(0 -0.014732007 0.5086962)
(0 -0.017506863 0.51098265)
(0 -0.020801763 0.5141233)
(0 -0.024912959 0.51873593)
(0 -0.030448979 0.52823407)
(0 -0.038566551 0.54872787)
(0 -0.048461588 0.53403083)
(0 -0.01905244 0.29403081)
(0 0.013076333 0.24261889)
(0 0.051769703 0.52524556)
(0 0.047664932 0.57025311)
(0 0.037714913 0.54552262)
(0 0.030810138 0.52928883)
(0 0.026033777 0.52180066)
(0 0.022199154 0.51699463)
(0 0.018916527 0.5134681)
(0 0.01615864 0.51085772)
(0 0.013817591 0.50890352)
(0 0.011806853 0.50742218)
(0 0.010063795 0.50628866)
(0 0.0085357441 0.50541523)
(0 0.0071799043 0.50473974)
(0 0.0059614265 0.50421783)
(0 0.0048514432 0.50381756)
(0 0.0038257166 0.50351596)
(0 0.0028635247 0.50329667)
(0 0.0019467286 0.50314834)
(0 0.001058993 0.50306356)
(0 0.00018512121 0.50303826)
(0 -0.00068956682 0.50307129)
(0 -0.0015798265 0.50316438)
(0 -0.0025010193 0.50332226)
(0 -0.0034697696 0.50355306)
(0 -0.0045046429 0.5038691)
(0 -0.0056269407 0.50428796)
(0 -0.006861643 0.50483429)
(0 -0.0082385233 0.50554236)
(0 -0.0097937231 0.50645998)
(0 -0.011571513 0.5076543)
(0 -0.013624216 0.5092202)
(0 -0.016021399 0.51129567)
(0 -0.0188585 0.51408019)
(0 -0.022167033 0.51784272)
(0 -0.026187503 0.52347443)
(0 -0.031770891 0.535378)
(0 -0.039678034 0.55590583)
(0 -0.044837194 0.52290055)
(0 -0.014075001 0.26277212)
(0 0.0077630452 0.21562393)
(0 0.044792364 0.50807839)
(0 0.046200642 0.57439236)
(0 0.037981337 0.55374688)
(0 0.031237123 0.53495935)
(0 0.026718719 0.5260285)
(0 0.023068285 0.52053368)
(0 0.019874467 0.51648066)
(0 0.017138628 0.51343153)
(0 0.014773426 0.5111182)
(0 0.012710396 0.50934495)
(0 0.010897432 0.5079745)
(0 0.0092885754 0.50690924)
(0 0.0078458003 0.50607927)
(0 0.0065373057 0.50543397)
(0 0.005336077 0.50493651)
(0 0.0042189453 0.5045601)
(0 0.0031657208 0.50428551)
(0 0.0021584412 0.50409927)
(0 0.0011807216 0.50399261)
(0 0.00021718488 0.50396062)
(0 -0.00074708536 0.50400196)
(0 -0.0017270788 0.50411867)
(0 -0.0027383159 0.50431639)
(0 -0.0037974363 0.5046048)
(0 -0.0049227748 0.5049984)
(0 -0.0061350234 0.50551783)
(0 -0.0074579972 0.50619169)
(0 -0.0089194592 0.50705932)
(0 -0.010552287 0.50817489)
(0 -0.012396147 0.50961369)
(0 -0.014496263 0.51148076)
(0 -0.016908897 0.51392502)
(0 -0.01971588 0.51715539)
(0 -0.022933378 0.5214849)
(0 -0.026783086 0.52818917)
(0 -0.032252728 0.54222088)
(0 -0.039302594 0.56052112)
(0 -0.040261836 0.50920168)
(0 -0.0096913981 0.23602367)
(0 0.0039975901 0.19365997)
(0 0.037861653 0.48958498)
(0 0.043621063 0.57526267)
(0 0.037496354 0.56083874)
(0 0.031091154 0.54035765)
(0 0.026853186 0.53000833)
(0 0.023454732 0.52389524)
(0 0.020423528 0.51940234)
(0 0.017773503 0.51597426)
(0 0.015440534 0.51334234)
(0 0.013374252 0.51130476)
(0 0.011533244 0.50971564)
(0 0.0098792806 0.50847035)
(0 0.0083800617 0.50749322)
(0 0.0070076913 0.50672889)
(0 0.0057378307 0.50613663)
(0 0.0045491298 0.5056866)
(0 0.0034226013 0.50535718)
(0 0.002341062 0.50513316)
(0 0.0012886261 0.50500455)
(0 0.00025024772 0.50496579)
(0 -0.00078873108 0.50501531)
(0 -0.0018430386 0.50515545)
(0 -0.0029278383 0.50539265)
(0 -0.0040592316 0.50573786)
(0 -0.0052547139 0.50620747)
(0 -0.00653369 0.50682459)
(0 -0.0079180578 0.50762104)
(0 -0.0094327648 0.50864018)
(0 -0.011106504 0.50994111)
(0 -0.012973237 0.51160518)
(0 -0.015070589 0.51374506)
(0 -0.017441265 0.51651657)
(0 -0.020149621 0.52013096)
(0 -0.023203731 0.52496802)
(0 -0.026843997 0.53274505)
(0 -0.03208119 0.54838863)
(0 -0.037873426 0.56257883)
(0 -0.035338745 0.49396183)
(0 -0.006182786 0.21346228)
(0 0.0015433934 0.1762597)
(0 0.031457068 0.47089556)
(0 0.040454306 0.57342443)
(0 0.03647575 0.56659085)
(0 0.030559661 0.54537148)
(0 0.026597316 0.53369949)
(0 0.023470917 0.5270233)
(0 0.020641432 0.52217476)
(0 0.018118271 0.51843336)
(0 0.015857767 0.51552931)
(0 0.013825441 0.51326042)
(0 0.011989783 0.51147605)
(0 0.010320421 0.51006718)
(0 0.0087910199 0.50895431)
(0 0.0073779735 0.50807873)
(0 0.0060600888 0.5073969)
(0 0.0048183133 0.50687665)
(0 0.0036353281 0.50649455)
(0 0.0024951762 0.50623399)
(0 0.0013828985 0.50608405)
(0 0.00028419134 0.50603859)
(0 -0.00081494074 0.50609589)
(0 -0.001928559 0.50625855)
(0 -0.0030710564 0.5065336)
(0 -0.0042575646 0.50693306)
(0 -0.0055042877 0.50747477)
(0 -0.0068288693 0.50818377)
(0 -0.0082507991 0.50909432)
(0 -0.0097917513 0.51025274)
(0 -0.011475841 0.51172159)
(0 -0.013330903 0.51358627)
(0 -0.015387124 0.51596426)
(0 -0.017675215 0.5190142)
(0 -0.020242365 0.52294732)
(0 -0.02309595 0.5282393)
(0 -0.026513872 0.53704225)
(0 -0.031417473 0.55365472)
(0 -0.035761494 0.5623671)
(0 -0.030467301 0.47812299)
(0 -0.0035720523 0.19486803)
(0 6.8676119e-05 0.16267585)
(0 0.025822687 0.45277725)
(0 0.037068474 0.56949406)
(0 0.03509035 0.57098129)
(0 0.029782562 0.5499513)
(0 0.026083863 0.53710578)
(0 0.023218989 0.52990032)
(0 0.020604488 0.52476637)
(0 0.018230137 0.52077503)
(0 0.016067329 0.51764607)
(0 0.014094702 0.51518086)
(0 0.012289313 0.51322722)
(0 0.010627999 0.51167395)
(0 0.0090900592 0.51043934)
(0 0.0076561508 0.50946262)
(0 0.0063083788 0.50869842)
(0 0.0050302176 0.508113)
(0 0.0038062904 0.50768161)
(0 0.0026221615 0.50738665)
(0 0.0014641016 0.50721648)
(0 0.00031885416 0.50716455)
(0 -0.00082660859 0.50722902)
(0 -0.0019853743 0.50741267)
(0 -0.0031707586 0.507723)
(0 -0.0043966184 0.5081728)
(0 -0.0056775687 0.50878099)
(0 -0.0070292148 0.509574)
(0 -0.0084683982 0.51058772)
(0 -0.01001338 0.51187042)
(0 -0.011683768 0.51348685)
(0 -0.013501474 0.5155247)
(0 -0.015489856 0.51810374)
(0 -0.017669651 0.5213823)
(0 -0.020073523 0.525575)
(0 -0.022715003 0.53128422)
(0 -0.025908494 0.54102806)
(0 -0.030392049 0.55792918)
(0 -0.033259975 0.56028253)
(0 -0.02589903 0.46237485)
(0 -0.0017448742 0.17978124)
(0 -0.00072630187 0.15208532)
(0 0.021054512 0.43566238)
(0 0.033713756 0.56402139)
(0 0.033483048 0.57408357)
(0 0.028860273 0.55407644)
(0 0.025412091 0.54025118)
(0 0.022782337 0.53253665)
(0 0.020379435 0.52716908)
(0 0.01816191 0.52298308)
(0 0.016110125 0.51967291)
(0 0.014213259 0.51704514)
(0 0.01245545 0.51494837)
(0 0.010819708 0.51327071)
(0 0.0092903016 0.51192953)
(0 0.0078518466 0.51086305)
(0 0.0064896447 0.5100249)
(0 0.0051897208 0.50938039)
(0 0.0039387476 0.50890394)
(0 0.0027239679 0.50857732)
(0 0.0015330683 0.50838837)
(0 0.00035404019 0.5083303)
(0 -0.00082496812 0.50840117)
(0 -0.0020158613 0.50860386)
(0 -0.003230677 0.50894623)
(0 -0.0044818105 0.50944158)
(0 -0.0057821304 0.51010953)
(0 -0.0071450988 0.51097737)
(0 -0.0085848813 0.51208199)
(0 -0.010116426 0.51347273)
(0 -0.011755187 0.51521546)
(0 -0.013517751 0.51739886)
(0 -0.015421431 0.52014313)
(0 -0.01747883 0.52360435)
(0 -0.019711725 0.52800822)
(0 -0.022145929 0.53410854)
(0 -0.025118467 0.54467143)
(0 -0.029119914 0.56120359)
(0 -0.030600214 0.55672166)
(0 -0.021787216 0.44715646)
(0 -0.00054297453 0.16761502)
(0 -0.0010785815 0.14379109)
(0 0.017143278 0.41976571)
(0 0.030545578 0.55746666)
(0 0.03177157 0.57601962)
(0 0.027866602 0.55773937)
(0 0.024655224 0.54316129)
(0 0.022227147 0.53495478)
(0 0.020021683 0.52938864)
(0 0.017959154 0.52505336)
(0 0.016022987 0.52160026)
(0 0.014210442 0.51884061)
(0 0.012511247 0.51662527)
(0 0.010913437 0.5148427)
(0 0.0094054646 0.51341018)
(0 0.0079754401 0.5122657)
(0 0.0066115957 0.51136252)
(0 0.0053023826 0.51066553)
(0 0.0040365004 0.51014873)
(0 0.0028029127 0.50979353)
(0 0.001590806 0.5095875)
(0 0.0003895278 0.50952367)
(0 -0.00081147903 0.50960005)
(0 -0.0020228167 0.5098196)
(0 -0.0032551377 0.51019037)
(0 -0.0045192931 0.51072595)
(0 -0.0058263647 0.51144635)
(0 -0.0071876994 0.5123793)
(0 -0.0086149112 0.51356213)
(0 -0.010119891 0.51504459)
(0 -0.011714435 0.51689287)
(0 -0.013410569 0.51919574)
(0 -0.015220473 0.52207245)
(0 -0.017150304 0.52567618)
(0 -0.019214965 0.53025366)
(0 -0.021457298 0.53672355)
(0 -0.024216681 0.5479523)
(0 -0.027702544 0.56352284)
(0 -0.027952526 0.55204753)
(0 -0.018205762 0.43273336)
(0 0.00019196299 0.15782375)
(0 -0.001161697 0.13724215)
(0 0.01401142 0.40516828)
(0 0.027643817 0.55020519)
(0 0.030043753 0.5769377)
(0 0.026853685 0.56094669)
(0 0.023865916 0.54585981)
(0 0.021605004 0.53718143)
(0 0.019576171 0.53143798)
(0 0.017659976 0.52698893)
(0 0.015837812 0.52342537)
(0 0.014112536 0.52056069)
(0 0.012478032 0.51824892)
(0 0.010926246 0.51637947)
(0 0.0094490067 0.51487013)
(0 0.00803738 0.51365912)
(0 0.0066821729 0.51269982)
(0 0.0053740456 0.51195708)
(0 0.0041036093 0.51140481)
(0 0.0028615034 0.51102427)
(0 0.0016384155 0.51080293)
(0 0.00042507868 0.51073375)
(0 -0.00078772708 0.51081471)
(0 -0.0020092589 0.5110488)
(0 -0.0032487568 0.51144416)
(0 -0.0045155288 0.51201447)
(0 -0.0058189188 0.51277989)
(0 -0.0071682797 0.51376824)
(0 -0.0085728983 0.51501687)
(0 -0.010041959 0.51657545)
(0 -0.011584154 0.51850994)
(0 -0.013207782 0.52090855)
(0 -0.014920882 0.5238887)
(0 -0.016724826 0.52760121)
(0 -0.018631487 0.53232466)
(0 -0.020703269 0.53914298)
(0 -0.023259989 0.5508643)
(0 -0.026222145 0.56497057)
(0 -0.025427875 0.5465793)
(0 -0.015166092 0.41925453)
(0 0.00059795293 0.14994514)
(0 -0.0010939744 0.13199913)
(0 0.011548259 0.39186219)
(0 0.025036135 0.54253174)
(0 0.028358186 0.57699296)
(0 0.025854633 0.56371829)
(0 0.023079179 0.54836932)
(0 0.020954113 0.53924478)
(0 0.019078077 0.53333431)
(0 0.017295361 0.52879758)
(0 0.015581439 0.52515014)
(0 0.013942343 0.52220323)
(0 0.012374833 0.51981431)
(0 0.01087376 0.51787413)
(0 0.0094335546 0.51630124)
(0 0.0080476863 0.51503447)
(0 0.0067091402 0.51402756)
(0 0.0054105164 0.5132456)
(0 0.0041441637 0.51266264)
(0 0.0029022894 0.51225998)
(0 0.0016770213 0.51202512)
(0 0.00046044645 0.51195099)
(0 -0.00075533774 0.5120356)
(0 -0.0019782622 0.51228191)
(0 -0.0032161896 0.51269805)
(0 -0.0044769502 0.51329769)
(0 -0.0057682622 0.51410089)
(0 -0.0070976681 0.51513533)
(0 -0.0084724097 0.51643811)
(0 -0.0098993667 0.51805846)
(0 -0.011384698 0.52006174)
(0 -0.012933797 0.52253521)
(0 -0.014551549 0.525594)
(0 -0.016236135 0.52938827)
(0 -0.017999647 0.53423896)
(0 -0.019924061 0.541383)
(0 -0.022289589 0.55341525)
(0 -0.024739485 0.56565236)
(0 -0.023088655 0.54058421)
(0 -0.012638414 0.40678292)
(0 0.00078402758 0.14358549)
(0 -0.00095186104 0.12771685)
(0 0.0096350207 0.37978224)
(0 0.022718911 0.53466789)
(0 0.026749832 0.57633143)
(0 0.024887883 0.56608168)
(0 0.022315883 0.55071027)
(0 0.020300807 0.54117218)
(0 0.018553562 0.53509699)
(0 0.016889541 0.5304901)
(0 0.015275697 0.52677969)
(0 0.013719019 0.5237693)
(0 0.012218091 0.52131953)
(0 0.01076982 0.51932262)
(0 0.0093705459 0.51769798)
(0 0.0080156144 0.51638517)
(0 0.0066997918 0.51533848)
(0 0.0054173287 0.51452342)
(0 0.0041621041 0.5139143)
(0 0.0029277462 0.5134926)
(0 0.0017077186 0.51324592)
(0 0.0004953847 0.51316725)
(0 -0.00071590585 0.51325458)
(0 -0.0019328236 0.51351087)
(0 -0.0031619351 0.51394415)
(0 -0.0044097023 0.51456797)
(0 -0.005682373 0.51540217)
(0 -0.0069858977 0.51647412)
(0 -0.0083257808 0.51782046)
(0 -0.0097070112 0.51948979)
(0 -0.011133768 0.52154669)
(0 -0.012609273 0.52407725)
(0 -0.014136164 0.52719422)
(0 -0.015710884 0.5310499)
(0 -0.017348194 0.53601648)
(0 -0.019147425 0.54346076)
(0 -0.021333153 0.55562283)
(0 -0.023296259 0.56567939)
(0 -0.020962638 0.53427527)
(0 -0.010570088 0.39531929)
(0 0.00083047242 0.13841209)
(0 -0.00078285618 0.12413465)
(0 0.0081590722 0.3688325)
(0 0.020671714 0.52677436)
(0 0.02523635 0.57508199)
(0 0.023961913 0.56806681)
(0 0.021586801 0.55289939)
(0 0.019661884 0.54298793)
(0 0.018021093 0.5367455)
(0 0.016460705 0.53207873)
(0 0.014937719 0.52832104)
(0 0.013458146 0.52526214)
(0 0.012021586 0.5227649)
(0 0.010626328 0.52072306)
(0 0.0092700306 0.51905684)
(0 0.0079494495 0.51770655)
(0 0.0066607608 0.51662711)
(0 0.0053995798 0.51578448)
(0 0.0041610965 0.51515335)
(0 0.0029401916 0.51471545)
(0 0.0017315336 0.51445854)
(0 0.00052965428 0.51437568)
(0 -0.00067094212 0.51446488)
(0 -0.0018757637 0.51472905)
(0 -0.0030901929 0.51517609)
(0 -0.0043194612 0.51581936)
(0 -0.005568524 0.5166784)
(0 -0.0068419719 0.51778015)
(0 -0.0081438786 0.51916071)
(0 -0.009477737 0.52086796)
(0 -0.010846242 0.52296564)
(0 -0.012251076 0.52553862)
(0 -0.01369339 0.52869759)
(0 -0.01516918 0.53260036)
(0 -0.016697511 0.53767697)
(0 -0.018391161 0.54539227)
(0 -0.020407853 0.55750975)
(0 -0.021918701 0.5651578)
(0 -0.019054654 0.52781604)
(0 -0.0088982659 0.38482455)
(0 0.00079379498 0.13415323)
(0 -0.00061495458 0.12106266)
(0 0.0070212587 0.35890516)
(0 0.01886637 0.51896466)
(0 0.023823367 0.57335478)
(0 0.023078852 0.56970344)
(0 0.020895999 0.55494935)
(0 0.019047058 0.54471207)
(0 0.017493049 0.53829783)
(0 0.016021998 0.53357579)
(0 0.014580508 0.52978205)
(0 0.013172023 0.5266862)
(0 0.01179655 0.52415222)
(0 0.010453241 0.52207514)
(0 0.0091406034 0.52037591)
(0 0.0078564082 0.51899549)
(0 0.0065979133 0.5178894)
(0 0.0053618328 0.51702411)
(0 0.0041444528 0.51637468)
(0 0.0029417322 0.51592313)
(0 0.0017493995 0.51565741)
(0 0.00056302946 0.51557068)
(0 -0.0006218356 0.51566096)
(0 -0.0018096594 0.51593111)
(0 -0.00300477 0.51638887)
(0 -0.00421132 0.51704735)
(0 -0.0054331572 0.51792577)
(0 -0.0066737417 0.51905059)
(0 -0.0079360033 0.52045734)
(0 -0.0092222932 0.5221932)
(0 -0.010534248 0.52432111)
(0 -0.011872526 0.52692477)
(0 -0.013237411 0.5301134)
(0 -0.014625547 0.53405405)
(0 -0.016061209 0.53923833)
(0 -0.017665611 0.54719147)
(0 -0.019523008 0.55910079)
(0 -0.020620944 0.56418362)
(0 -0.017355196 0.52132893)
(0 -0.0075581862 0.37523738)
(0 0.00071242792 0.13059424)
(0 -0.00046308215 0.11836603)
(0 0.0061390361 0.34989192)
(0 0.017272594 0.51131681)
(0 0.022508746 0.57124239)
(0 0.022236991 0.57102008)
(0 0.020243241 0.55686935)
(0 0.018460974 0.54636029)
(0 0.016977202 0.53976976)
(0 0.015582563 0.53499285)
(0 0.014213637 0.53117056)
(0 0.012870097 0.52804651)
(0 0.011551907 0.52548417)
(0 0.010258687 0.52337964)
(0 0.0089894379 0.52165445)
(0 0.0077426255 0.52025006)
(0 0.0065163112 0.51912253)
(0 0.0053080721 0.5182388)
(0 0.0041150903 0.51757431)
(0 0.0029342334 0.51711136)
(0 0.0017621424 0.51683809)
(0 0.00059530309 0.51674776)
(0 -0.00056983037 0.51683842)
(0 -0.0017368042 0.51711284)
(0 -0.0029090288 0.51757863)
(0 -0.0040897315 0.51824863)
(0 -0.0052818337 0.5191417)
(0 -0.0064878781 0.52028386)
(0 -0.0077099073 0.52171006)
(0 -0.0089494353 0.52346688)
(0 -0.010207391 0.52561654)
(0 -0.011483814 0.52824173)
(0 -0.01277861 0.53145106)
(0 -0.014089951 0.53542446)
(0 -0.015447598 0.54071591)
(0 -0.016975651 0.54887002)
(0 -0.018682223 0.56042104)
(0 -0.019408109 0.56284098)
(0 -0.015846741 0.51490336)
(0 -0.0064886132 0.36648598)
(0 0.00061157328 0.12756931)
(0 -0.00033370306 0.11595087)
(0 0.0054467042 0.34169019)
(0 0.015861299 0.50388249)
(0 0.02128595 0.56882192)
(0 0.021432582 0.5720434)
(0 0.019625698 0.55866583)
(0 0.017904781 0.5479443)
(0 0.016477923 0.5411746)
(0 0.015148437 0.53634033)
(0 0.013843913 0.53249401)
(0 0.012559433 0.52934812)
(0 0.011294578 0.52676384)
(0 0.010049155 0.52463801)
(0 0.0088223908 0.52289253)
(0 0.0076132028 0.52146924)
(0 0.0064202266 0.52032463)
(0 0.0052416994 0.51942603)
(0 0.0040755213 0.51874924)
(0 0.0029193099 0.51827682)
(0 0.0017704774 0.51799708)
(0 0.00062628973 0.51790339)
(0 -0.00051601473 0.51799381)
(0 -0.0016591924 0.51827104)
(0 -0.0028058703 0.51874253)
(0 -0.0039584991 0.51942088)
(0 -0.0051192418 0.5203246)
(0 -0.0062899154 0.52147931)
(0 -0.0074718958 0.52291945)
(0 -0.0086661112 0.52469108)
(0 -0.0098730605 0.52685585)
(0 -0.011092473 0.52949567)
(0 -0.012324246 0.53271953)
(0 -0.013568734 0.53672369)
(0 -0.014860954 0.54212238)
(0 -0.016322299 0.55043741)
(0 -0.017885184 0.56149471)
(0 -0.018279143 0.56120189)
(0 -0.014508222 0.50860282)
(0 -0.005634955 0.35849556)
(0 0.00050701306 0.12495242)
(0 -0.00022813901 0.11375309)
(0 0.0048938122 0.33420639)
(0 0.014606244 0.49669436)
(0 0.020146461 0.56615732)
(0 0.020661101 0.57279797)
(0 0.019039192 0.56034309)
(0 0.017377357 0.54947239)
(0 0.015997158 0.54252323)
(0 0.014723315 0.53762731)
(0 0.013475968 0.53375914)
(0 0.012245151 0.53059589)
(0 0.0110298 0.52799447)
(0 0.0098297049 0.52585206)
(0 0.0086441429 0.52409078)
(0 0.0074722957 0.52265268)
(0 0.0063131915 0.52149456)
(0 0.0051655599 0.52058408)
(0 0.0040278643 0.51989729)
(0 0.0028983308 0.51941702)
(0 0.0017750106 0.51913173)
(0 0.00065582657 0.51903488)
(0 -0.00046132069 0.51912453)
(0 -0.0015785203 0.51940332)
(0 -0.0026977431 0.51987854)
(0 -0.0038208005 0.52056257)
(0 -0.0049492471 0.52147364)
(0 -0.0060843403 0.52263697)
(0 -0.0072269722 0.52408662)
(0 -0.0083776856 0.52586824)
(0 -0.0095367575 0.52804305)
(0 -0.010703836 0.53069245)
(0 -0.01187908 0.53392698)
(0 -0.013065454 0.53796216)
(0 -0.01430262 0.5434677)
(0 -0.015704014 0.55190112)
(0 -0.017129141 0.56234437)
(0 -0.017229191 0.55932695)
(0 -0.01331792 0.50247103)
(0 -0.0049505626 0.35119303)
(0 0.00040799237 0.12264945)
(0 -0.00014484229 0.11172967)
(0 0.0044427303 0.32735739)
(0 0.013484608 0.48977163)
(0 0.019081331 0.56330175)
(0 0.019918024 0.57330636)
(0 0.018479043 0.56190389)
(0 0.016876246 0.55094996)
(0 0.015535202 0.54382426)
(0 0.014309175 0.53886152)
(0 0.01311277 0.53497189)
(0 0.011930822 0.53179426)
(0 0.010761421 0.52917919)
(0 0.0096041932 0.52702378)
(0 0.0084583553 0.52525018)
(0 0.0073232204 0.52380052)
(0 0.0061980687 0.52263176)
(0 0.005081987 0.52171182)
(0 0.0039738718 0.52101696)
(0 0.002872434 0.52053018)
(0 0.0017762462 0.5202401)
(0 0.00068377447 0.52014025)
(0 -0.00040652997 0.52022868)
(0 -0.0014962019 0.52050797)
(0 -0.0025866724 0.52098529)
(0 -0.0036792356 0.52167283)
(0 -0.0047749682 0.52258853)
(0 -0.0058747061 0.52375735)
(0 -0.0069790058 0.52521302)
(0 -0.0080881773 0.5270009)
(0 -0.0092024245 0.529182)
(0 -0.010321477 0.53183747)
(0 -0.011445943 0.5350806)
(0 -0.012581624 0.53914851)
(0 -0.013771938 0.54475934)
(0 -0.015117713 0.55326678)
(0 -0.016410018 0.56299058)
(0 -0.016251353 0.55726677)
(0 -0.012255185 0.49653701)
(0 -0.0043969058 0.34450981)
(0 0.00031937573 0.1205913)
(0 -8.087759e-05 0.10985193)
(0 0.0040660633 0.32107069)
(0 0.012476968 0.48312422)
(0 0.018082055 0.56029967)
(0 0.019199238 0.57358938)
(0 0.017940605 0.56334998)
(0 0.016398318 0.55238012)
(0 0.015091288 0.54508425)
(0 0.013906791 0.54004935)
(0 0.01275605 0.53613737)
(0 0.01161882 0.53294718)
(0 0.010492176 0.53032093)
(0 0.0093754805 0.52815516)
(0 0.0082678274 0.52637189)
(0 0.0071685688 0.5249132)
(0 0.0060771333 0.52373609)
(0 0.0049928579 0.52280863)
(0 0.0039149659 0.52210724)
(0 0.0028425479 0.52161507)
(0 0.0017745952 0.52132082)
(0 0.00071001681 0.52121809)
(0 -0.00035228551 0.52130493)
(0 -0.0014133931 0.52158387)
(0 -0.0024742997 0.52206196)
(0 -0.003535888 0.52275121)
(0 -0.0045988659 0.5236694)
(0 -0.0056637608 0.52484121)
(0 -0.0067309074 0.52630021)
(0 -0.0078004953 0.52809159)
(0 -0.0088727546 0.53027625)
(0 -0.0099476056 0.53293547)
(0 -0.011026236 0.53618649)
(0 -0.012117327 0.54028963)
(0 -0.013266974 0.54600254)
(0 -0.014559519 0.55453858)
(0 -0.01572319 0.56345191)
(0 -0.015337895 0.55506347)
(0 -0.011301334 0.49081912)
(0 -0.003943055 0.33838347)
(0 0.00024317778 0.11872803)
(0 -3.285001e-05 0.10810061)
(0 0.0037442596 0.31528381)
(0 0.011566998 0.47675583)
(0 0.017140993 0.5571886)
(0 0.018501203 0.57366635)
(0 0.017419558 0.5646826)
(0 0.015940202 0.55376423)
(0 0.014664008 0.54630803)
(0 0.013516113 0.54119598)
(0 0.012406646 0.5372599)
(0 0.011310614 0.53405807)
(0 0.010223929 0.53142234)
(0 0.0091456258 0.52924812)
(0 0.0080746471 0.52745716)
(0 0.0070103236 0.52599137)
(0 0.0059521572 0.5248077)
(0 0.0048996545 0.52387426)
(0 0.0038522795 0.52316758)
(0 0.0028094164 0.52267089)
(0 0.0017703875 0.52237298)
(0 0.00073445797 0.52226748)
(0 -0.00029910622 0.52235243)
(0 -0.0013310207 0.52263031)
(0 -0.0023619297 0.52310809)
(0 -0.0033923931 0.52379765)
(0 -0.0044228395 0.52471661)
(0 -0.005453576 0.52588951)
(0 -0.0064848006 0.52734979)
(0 -0.0075166606 0.52914263)
(0 -0.0085494718 0.53132896)
(0 -0.0095834134 0.53399051)
(0 -0.01062034 0.53724968)
(0 -0.011671701 0.54139084)
(0 -0.012785079 0.5472007)
(0 -0.014025277 0.5557195)
(0 -0.015064004 0.56374508)
(0 -0.014481061 0.55275215)
(0 -0.010440004 0.48532814)
(0 -0.0035647694 0.33275828)
(0 0.00017963351 0.11702399)
(0 2.5505311e-06 0.10646248)
(0 0.0034635711 0.30994336)
(0 0.010741045 0.47066602)
(0 0.016251503 0.55400046)
(0 0.017820975 0.57355534)
(0 0.016912056 0.56590281)
(0 0.015498558 0.55510237)
(0 0.014251604 0.54749893)
(0 0.013136557 0.54230555)
(0 0.012064775 0.53834304)
(0 0.011007002 0.53512984)
(0 0.0099578764 0.53248574)
(0 0.0089160563 0.5303044)
(0 0.0078803286 0.52850722)
(0 0.0068499658 0.52703579)
(0 0.0058244925 0.52584693)
(0 0.0048035243 0.52490871)
(0 0.0037866992 0.52419772)
(0 0.0027736248 0.52369723)
(0 0.0017638827 0.52339606)
(0 0.00075702107 0.52328786)
(0 -0.00024740329 0.52337068)
(0 -0.0012498141 0.52364695)
(0 -0.0022505793 0.52412356)
(0 -0.0032500085 0.52481231)
(0 -0.0042483213 0.52573071)
(0 -0.0052456717 0.52690324)
(0 -0.0062421809 0.52836329)
(0 -0.0072380045 0.53015612)
(0 -0.0082335737 0.53234283)
(0 -0.0092293634 0.53500598)
(0 -0.010227946 0.5382742)
(0 -0.011243311 0.542456)
(0 -0.012323278 0.5483557)
(0 -0.013510904 0.55681171)
(0 -0.014428107 0.56388518)
(0 -0.013673571 0.55036219)
(0 -0.0096571704 0.48006951)
(0 -0.0032434277 0.32758524)
(0 0.00012794344 0.11545401)
(0 2.8268826e-05 0.10492797)
(0 0.0032144142 0.30500393)
(0 0.0099876914 0.46485173)
(0 0.015407905 0.55076267)
(0 0.017156147 0.57327342)
(0 0.016414765 0.56701177)
(0 0.015070226 0.55639376)
(0 0.013852163 0.54865909)
(0 0.012767213 0.54338126)
(0 0.01173023 0.5393897)
(0 0.010708306 0.53616494)
(0 0.0096947156 0.53351312)
(0 0.008687713 0.53132561)
(0 0.0076859337 0.52952325)
(0 0.006688574 0.52804726)
(0 0.0056951484 0.52685426)
(0 0.0047053386 0.5259122)
(0 0.0037189059 0.52519766)
(0 0.0027356266 0.52469392)
(0 0.0017552826 0.52438981)
(0 0.0007776458 0.52427898)
(0 -0.00019749662 0.52435948)
(0 -0.001170337 0.52463369)
(0 -0.0021410263 0.52510846)
(0 -0.0031096811 0.52579553)
(0 -0.0040763662 0.52671236)
(0 -0.0050411304 0.5278834)
(0 -0.0060040581 0.5293421)
(0 -0.0069653412 0.53113387)
(0 -0.0079255344 0.53332013)
(0 -0.008885422 0.53598462)
(0 -0.009848318 0.53926315)
(0 -0.010830429 0.54348775)
(0 -0.011878564 0.54946822)
(0 -0.013012615 0.55781678)
(0 -0.013811629 0.56388592)
(0 -0.012908886 0.54791835)
(0 -0.0089409902 0.47504504)
(0 -0.0029649607 0.32282172)
(0 8.6780919e-05 0.11400034)
(0 4.6774832e-05 0.10348978)
(0 0.0029901132 0.30042697)
(0 0.0092973495 0.4593083)
(0 0.014605365 0.54749894)
(0 0.016504758 0.57283673)
(0 0.015924853 0.56801089)
(0 0.014652312 0.55763698)
(0 0.013463744 0.54978968)
(0 0.012406989 0.54442551)
(0 0.011402536 0.54040221)
(0 0.010414514 0.53716537)