/*--------------------------------*- C++ -*----------------------------------*\
  =========                 |
  \\      /  F ield         | OpenFOAM: The Open Source CFD Toolbox
   \\    /   O peration     | Website:  https://openfoam.org
    \\  /    A nd           | Version:  10
     \\/     M anipulation  |
\*---------------------------------------------------------------------------*/
FoamFile
{
    format      ascii;
    class       volVectorField;
    location    "0.13";
    object      U_0;
}
// * * * * * * * * * * * * * * * * * * * * * * * * * * * * * * * * * * * * * //

dimensions      [0 1 -1 0 0 0 0];

internalField   nonuniform List<vector> 
4000
(
(0 0.018636299 0.47773215)
(0 0.023507818 0.5088603)
(0 0.0081648308 0.50052529)
(0 0.0056125921 0.5003364)
(0 0.0042524626 0.50025748)
(0 0.0032527354 0.50016898)
(0 0.0025539139 0.50011968)
(0 0.0020524884 0.50009011)
(0 0.0016746141 0.50006978)
(0 0.0013804443 0.50005535)
(0 0.0011456024 0.50004494)
(0 0.00095374594 0.50003728)
(0 0.0007936171 0.50003154)
(0 0.0006572368 0.5000272)
(0 0.00053877319 0.50002392)
(0 0.00043384209 0.50002144)
(0 0.00033905263 0.50001959)
(0 0.00025169932 0.50001826)
(0 0.00016954578 0.50001736)
(0 9.0666423e-05 0.50001685)
(0 1.3324253e-05 0.50001671)
(0 -6.4136784e-05 0.50001691)
(0 -0.00014338294 0.50001747)
(0 -0.00022618263 0.50001843)
(0 -0.00031451764 0.50001984)
(0 -0.00041071343 0.50002179)
(0 -0.00051761099 0.5000244)
(0 -0.00063880626 0.50002787)
(0 -0.00077899799 0.50003247)
(0 -0.00094451759 0.5000386)
(0 -0.0011441805 0.50004686)
(0 -0.0013906517 0.50005822)
(0 -0.0017026855 0.50007414)
(0 -0.002110639 0.5000971)
(0 -0.0026704384 0.50013484)
(0 -0.0034642382 0.50020243)
(0 -0.0045568643 0.50027156)
(0 -0.0065812685 0.50043382)
(0 -0.017655683 0.50675355)
(0 -0.01358821 0.4797567)
(0 0.037429498 0.44797322)
(0 0.050949161 0.53232578)
(0 0.021962664 0.50804303)
(0 0.016129238 0.50357361)
(0 0.012409228 0.5024233)
(0 0.0095090131 0.50162298)
(0 0.0075137957 0.5011565)
(0 0.0060633271 0.50086571)
(0 0.0049584057 0.5006677)
(0 0.0040944863 0.50052862)
(0 0.0034026061 0.50042858)
(0 0.0028358061 0.50035501)
(0 0.0023617022 0.50030006)
(0 0.0019571997 0.50025862)
(0 0.0016053278 0.50022722)
(0 0.0012932806 0.50020353)
(0 0.0010111227 0.50018589)
(0 0.000750905 0.5001732)
(0 0.00050604256 0.50016468)
(0 0.00027085453 0.50015983)
(0 4.0209341e-05 0.50015841)
(0 -0.00019078427 0.50016032)
(0 -0.00042704771 0.50016568)
(0 -0.00067380328 0.50017482)
(0 -0.00093689415 0.50018826)
(0 -0.0012231628 0.50020686)
(0 -0.0015409469 0.50023185)
(0 -0.0019007673 0.50026503)
(0 -0.0023163201 0.50030903)
(0 -0.0028059615 0.50036772)
(0 -0.0033950844 0.50044707)
(0 -0.0041200846 0.50055654)
(0 -0.0050340652 0.50071123)
(0 -0.0062169189 0.50093673)
(0 -0.0078175477 0.50129467)
(0 -0.010111839 0.50191106)
(0 -0.013094193 0.50282613)
(0 -0.017413939 0.50608183)
(0 -0.038747337 0.52526754)
(0 -0.027889103 0.45022396)
(0 0.03988347 0.40983123)
(0 0.061416869 0.54930958)
(0 0.03197141 0.52188182)
(0 0.024344109 0.51008141)
(0 0.019181557 0.50658895)
(0 0.014965 0.50452804)
(0 0.011994797 0.50327105)
(0 0.0097604555 0.50245775)
(0 0.0080257407 0.50190017)
(0 0.0066549823 0.50150756)
(0 0.0055479385 0.50122414)
(0 0.0046350571 0.50101519)
(0 0.0038675819 0.50085887)
(0 0.0032100991 0.50074081)
(0 0.0026362563 0.5006513)
(0 0.0021259821 0.50058367)
(0 0.0016635814 0.50053332)
(0 0.0012364157 0.50049705)
(0 0.00083395916 0.50047269)
(0 0.00044709343 0.50045884)
(0 6.7558057e-05 0.50045476)
(0 -0.00031252841 0.50046022)
(0 -0.00070109538 0.50047555)
(0 -0.0011065429 0.50050165)
(0 -0.001538238 0.50054005)
(0 -0.0020070978 0.50059314)
(0 -0.0025263442 0.50066442)
(0 -0.0031125347 0.50075897)
(0 -0.0037870252 0.50088419)
(0 -0.0045780832 0.50105099)
(0 -0.0055240933 0.50127591)
(0 -0.0066790683 0.50158509)
(0 -0.0081202485 0.50202066)
(0 -0.0099517735 0.50265104)
(0 -0.01234647 0.5036159)
(0 -0.015692426 0.50520069)
(0 -0.019850815 0.50785636)
(0 -0.025164237 0.51641318)
(0 -0.047397046 0.53912978)
(0 -0.030844922 0.41490022)
(0 0.034785644 0.36175098)
(0 0.063822726 0.55456958)
(0 0.03936107 0.53747083)
(0 0.030065993 0.51849364)
(0 0.02409457 0.511978)
(0 0.019261475 0.50849935)
(0 0.015718407 0.50626351)
(0 0.012937098 0.50475411)
(0 0.010727596 0.50370256)
(0 0.0089531717 0.50295378)
(0 0.0075007656 0.5024083)
(0 0.0062906883 0.50200363)
(0 0.0052651092 0.50169948)
(0 0.0043807454 0.50146895)
(0 0.0036047544 0.50129368)
(0 0.0029117268 0.50116097)
(0 0.0022815302 0.501062)
(0 0.0016977776 0.5009906)
(0 0.0011467018 0.5009426)
(0 0.00061629536 0.50091529)
(0 9.5630146e-05 0.50090722)
(0 -0.00042574277 0.50091798)
(0 -0.00095833422 0.50094818)
(0 -0.0015132441 0.50099955)
(0 -0.0021027826 0.50107507)
(0 -0.0027411876 0.50117934)
(0 -0.0034455315 0.50131906)
(0 -0.0042369266 0.50150392)
(0 -0.0051421895 0.50174792)
(0 -0.0061961384 0.50207154)
(0 -0.0074446834 0.50250526)
(0 -0.0089501001 0.5030961)
(0 -0.010799809 0.50391878)
(0 -0.013100448 0.50508969)
(0 -0.015987685 0.50680836)
(0 -0.019864226 0.50947032)
(0 -0.024698516 0.51427864)
(0 -0.031078849 0.52824803)
(0 -0.050290365 0.54408249)
(0 -0.028426887 0.37242)
(0 0.027417644 0.31487727)
(0 0.062293747 0.55025566)
(0 0.044587037 0.55146718)
(0 0.033957309 0.52748875)
(0 0.02743915 0.51772337)
(0 0.022430223 0.51291959)
(0 0.018612356 0.50973007)
(0 0.015504656 0.50749027)
(0 0.012984142 0.50589668)
(0 0.010921929 0.50474282)
(0 0.009206607 0.50389131)
(0 0.0077592903 0.50325368)
(0 0.0065199585 0.50277101)
(0 0.0054421524 0.50240309)
(0 0.0044897896 0.50212214)
(0 0.0036343697 0.50190868)
(0 0.0028529139 0.50174905)
(0 0.0021264476 0.50163365)
(0 0.0014388411 0.50155594)
(0 0.0007758978 0.50151169)
(0 0.00012461612 0.50149857)
(0 -0.00052747147 0.50151595)
(0 -0.0011929035 0.50156482)
(0 -0.0018848659 0.50164786)
(0 -0.0026178777 0.50176976)
(0 -0.0034085611 0.50193768)
(0 -0.0042765871 0.50216203)
(0 -0.0052458868 0.5024577)
(0 -0.0063462593 0.50284594)
(0 -0.0076155309 0.5033574)
(0 -0.0091020199 0.50403675)
(0 -0.010868219 0.50495053)
(0 -0.01300102 0.50620157)
(0 -0.015604325 0.50794481)
(0 -0.018766019 0.51040669)
(0 -0.022847711 0.51405923)
(0 -0.028130941 0.52115)
(0 -0.035657974 0.53932808)
(0 -0.05043753 0.54158061)
(0 -0.024072668 0.33062283)
(0 0.019830946 0.2752472)
(0 0.057964109 0.53977498)
(0 0.047327208 0.56256575)
(0 0.036444042 0.53660399)
(0 0.029603259 0.52350799)
(0 0.024643411 0.51740278)
(0 0.020742236 0.51336078)
(0 0.01747908 0.5104408)
(0 0.01478541 0.50831912)
(0 0.012540222 0.50675549)
(0 0.010641956 0.50558533)
(0 0.0090185803 0.50469953)
(0 0.0076124349 0.50402314)
(0 0.0063776167 0.50350396)
(0 0.0052776237 0.50310527)
(0 0.0042829441 0.50280102)
(0 0.0033693058 0.50257269)
(0 0.0025163286 0.50240719)
(0 0.0017064442 0.5022955)
(0 0.00092402038 0.5022318)
(0 0.0001546342 0.50221286)
(0 -0.00061559329 0.50223779)
(0 -0.001400616 0.50230795)
(0 -0.0022150373 0.50242708)
(0 -0.0030748038 0.50260162)
(0 -0.003997955 0.50284137)
(0 -0.005005521 0.50316046)
(0 -0.0061226244 0.50357891)
(0 -0.0073798743 0.50412491)
(0 -0.0088152611 0.50483841)
(0 -0.010476118 0.50577642)
(0 -0.012420805 0.50702124)
(0 -0.014729596 0.50869607)
(0 -0.017504403 0.51098261)
(0 -0.020799287 0.51412336)
(0 -0.0249105 0.51873609)
(0 -0.030446534 0.52823418)
(0 -0.038563912 0.54872796)
(0 -0.048459603 0.53403269)
(0 -0.01905182 0.29403458)
(0 0.013076008 0.24262195)
(0 0.05176831 0.52524771)
(0 0.0476628 0.57025333)
(0 0.037712895 0.54552252)
(0 0.030808206 0.52928887)
(0 0.026031861 0.52180065)
(0 0.022197269 0.51699451)
(0 0.018914705 0.5134679)
(0 0.016156908 0.51085745)
(0 0.013815972 0.50890318)
(0 0.011805368 0.50742177)
(0 0.010062463 0.5062882)
(0 0.0085345835 0.50541471)
(0 0.0071789301 0.50473918)
(0 0.0059606524 0.50421723)
(0 0.004850881 0.50381692)
(0 0.0038253764 0.5035153)
(0 0.0028634145 0.50329599)
(0 0.0019468552 0.50314764)
(0 0.001059361 0.50306285)
(0 0.00018573367 0.50303755)
(0 -0.00068870872 0.50307058)
(0 -0.0015787234 0.50316367)
(0 -0.0024996738 0.50332156)
(0 -0.0034681863 0.50355239)
(0 -0.0045028288 0.50386845)
(0 -0.0056249049 0.50428734)
(0 -0.0068593973 0.50483372)
(0 -0.0082360821 0.50554184)
(0 -0.0097911038 0.50645952)
(0 -0.011568736 0.50765391)
(0 -0.013621306 0.5092199)
(0 -0.016018382 0.51129547)
(0 -0.018855411 0.5140801)
(0 -0.022163912 0.51784278)
(0 -0.026184377 0.5234746)
(0 -0.031767708 0.53537801)
(0 -0.039674643 0.5559061)
(0 -0.044834794 0.52290366)
(0 -0.014074328 0.26277732)
(0 0.0077627117 0.21562789)
(0 0.044790769 0.50808165)
(0 0.04619802 0.57439291)
(0 0.037978758 0.55374668)
(0 0.031234694 0.53495932)
(0 0.026716336 0.52602846)
(0 0.023065946 0.52053351)
(0 0.01987221 0.51648038)
(0 0.017136485 0.51343114)
(0 0.014771424 0.51111772)
(0 0.01270856 0.50934438)
(0 0.010895786 0.50797385)
(0 0.0092871381 0.50690853)
(0 0.0078445908 0.50607849)
(0 0.00653634 0.50543314)
(0 0.0053353691 0.50493564)
(0 0.004218507 0.50455919)
(0 0.0031655619 0.50428457)
(0 0.0021585696 0.50409831)
(0 0.0011811429 0.50399163)
(0 0.00021790287 0.50395964)
(0 -0.00074606893 0.50400097)
(0 -0.0017257644 0.50411769)
(0 -0.0027367062 0.50431543)
(0 -0.0037955364 0.50460386)
(0 -0.0049205922 0.5049975)
(0 -0.0061325685 0.50551698)
(0 -0.0074552831 0.50619089)
(0 -0.0089165024 0.50705859)
(0 -0.010549107 0.50817425)
(0 -0.012392767 0.50961314)
(0 -0.014492712 0.51148032)
(0 -0.016905204 0.51392472)
(0 -0.019712085 0.51715524)
(0 -0.022929528 0.52148493)
(0 -0.026779196 0.52818928)
(0 -0.032248688 0.54222074)
(0 -0.039298385 0.56052176)
(0 -0.040259021 0.50920645)
(0 -0.0096906786 0.23603052)
(0 0.0039972461 0.1936649)
(0 0.037859853 0.48958964)
(0 0.043617916 0.57526374)
(0 0.03749313 0.56083845)
(0 0.031088143 0.54035751)
(0 0.026850266 0.53000823)
(0 0.023451875 0.523895)
(0 0.020420775 0.51940195)
(0 0.017770892 0.51597373)
(0 0.015438097 0.51334169)
(0 0.013372019 0.51130399)
(0 0.011531239 0.50971478)
(0 0.0098775288 0.5084694)
(0 0.0083785839 0.50749219)
(0 0.0070065059 0.50672779)
(0 0.0057369538 0.50613547)
(0 0.0045485752 0.50568539)
(0 0.0034223804 0.50535593)
(0 0.0023411839 0.50513188)
(0 0.0012890978 0.50500325)
(0 0.00025107368 0.50496448)
(0 -0.00078754849 0.50501399)
(0 -0.0018414995 0.50515415)
(0 -0.0029259453 0.50539137)
(0 -0.00405699 0.50573661)
(0 -0.0052521317 0.50620627)
(0 -0.0065307785 0.50682344)
(0 -0.0079148315 0.50761996)
(0 -0.0094292418 0.50863919)
(0 -0.011102706 0.50994024)
(0 -0.01296919 0.51160442)
(0 -0.015066325 0.51374445)
(0 -0.017436818 0.51651612)
(0 -0.020145034 0.52013072)
(0 -0.023199058 0.524968)
(0 -0.026839228 0.53274504)
(0 -0.032076169 0.54838832)
(0 -0.037868337 0.56258007)
(0 -0.035335513 0.49396871)
(0 -0.0061820211 0.21347097)
(0 0.0015430376 0.1762657)
(0 0.031455053 0.47090193)
(0 0.040450595 0.57342627)
(0 0.036471796 0.56659049)
(0 0.030555971 0.54537118)
(0 0.026593778 0.53369931)
(0 0.023467469 0.52702296)
(0 0.020638115 0.52217423)
(0 0.01811513 0.51843265)
(0 0.015854837 0.51552845)
(0 0.013822756 0.51325942)
(0 0.011987373 0.51147492)
(0 0.010318312 0.51006594)
(0 0.0087892365 0.50895297)
(0 0.0073765366 0.5080773)
(0 0.0060590166 0.50739539)
(0 0.0048176215 0.50687509)
(0 0.0036350299 0.50649293)
(0 0.0024952821 0.50623234)
(0 0.0013834166 0.50608236)
(0 0.0002851272 0.50603689)
(0 -0.00081358405 0.50609419)
(0 -0.0019267811 0.50625686)
(0 -0.0030688597 0.50653194)
(0 -0.0042549543 0.50693143)
(0 -0.0055012723 0.5074732)
(0 -0.0068254607 0.50818228)
(0 -0.0082470127 0.50909292)
(0 -0.0097876067 0.51025144)
(0 -0.011471363 0.51172042)
(0 -0.013326118 0.51358525)
(0 -0.015382068 0.51596342)
(0 -0.017669926 0.51901357)
(0 -0.020236891 0.52294695)
(0 -0.023090348 0.52823916)
(0 -0.026508097 0.53704203)
(0 -0.031411343 0.55365424)
(0 -0.035755464 0.56236927)
(0 -0.030463645 0.47813247)
(0 -0.0035712387 0.19487874)
(0 6.8310013e-05 0.16268301)
(0 0.025820439 0.45278565)
(0 0.037064156 0.56949693)
(0 0.035085574 0.57098092)
(0 0.029778085 0.54995078)
(0 0.026079615 0.53710547)
(0 0.023214868 0.52989986)
(0 0.02060053 0.52476567)
(0 0.018226394 0.52077411)
(0 0.016063841 0.51764496)
(0 0.014091507 0.51517957)
(0 0.012286444 0.51322578)
(0 0.010625486 0.51167237)
(0 0.0090879288 0.51043763)
(0 0.0076544269 0.5094608)
(0 0.0063070819 0.50869651)
(0 0.0050293653 0.50811102)
(0 0.0038058976 0.50767956)
(0 0.0026222402 0.50738456)
(0 0.0014646612 0.50721435)
(0 0.00031990125 0.5071624)
(0 -0.00082507004 0.50722687)
(0 -0.0019833431 0.50741052)
(0 -0.0031682368 0.50772089)
(0 -0.004393611 0.50817073)
(0 -0.0056740841 0.50877899)
(0 -0.0070252653 0.50957208)
(0 -0.008464 0.51058591)
(0 -0.010008554 0.51186874)
(0 -0.011678539 0.51348533)
(0 -0.013495874 0.51552336)
(0 -0.015483921 0.51810262)
(0 -0.017663423 0.52138144)
(0 -0.020067056 0.52557444)
(0 -0.022708353 0.53128391)
(0 -0.025901569 0.54102753)
(0 -0.030384679 0.55792856)
(0 -0.033252939 0.560286)
(0 -0.02589493 0.46238744)
(0 -0.0017440077 0.17979418)
(0 -0.00072667389 0.15209374)
(0 0.021052003 0.43567316)
(0 0.033708778 0.56402562)
(0 0.033477351 0.57408329)
(0 0.028854889 0.55407564)
(0 0.025407027 0.54025068)
(0 0.02277745 0.53253602)
(0 0.020374751 0.52716817)
(0 0.018157487 0.52298191)
(0 0.016106007 0.5196715)
(0 0.014209488 0.51704352)
(0 0.012452063 0.51494656)
(0 0.010816738 0.51326873)
(0 0.0092877783 0.5119274)
(0 0.0078497964 0.51086079)
(0 0.0064880903 0.51002252)
(0 0.0051886818 0.50937792)
(0 0.0039382405 0.50890139)
(0 0.0027240063 0.50857471)
(0 0.001533663 0.50838572)
(0 0.00035519904 0.50832762)
(0 -0.00082324012 0.50839848)
(0 -0.0020135622 0.50860119)
(0 -0.0032278079 0.50894359)
(0 -0.0044783759 0.50943899)
(0 -0.0057781385 0.51010702)
(0 -0.0071405619 0.51097496)
(0 -0.0085798158 0.5120797)
(0 -0.010110853 0.5134706)
(0 -0.011749134 0.51521352)
(0 -0.01351125 0.51739714)
(0 -0.015414522 0.52014166)
(0 -0.017471558 0.52360319)
(0 -0.019704149 0.52800741)
(0 -0.022138097 0.53410796)
(0 -0.025110237 0.5446705)
(0 -0.029111162 0.56120291)
(0 -0.030592098 0.55672685)
(0 -0.021782643 0.44717272)
(0 -0.00054205374 0.16763039)
(0 -0.0010789524 0.14380089)
(0 0.017140474 0.41977926)
(0 0.030539883 0.55747262)
(0 0.031764846 0.57601955)
(0 0.02786018 0.55773823)
(0 0.024649223 0.54316052)
(0 0.022221389 0.53495393)
(0 0.020016177 0.52938747)
(0 0.017953961 0.52505187)
(0 0.016018158 0.5215985)
(0 0.014206021 0.5188386)
(0 0.012507276 0.51662303)
(0 0.010909952 0.51484025)
(0 0.009402498 0.51340756)
(0 0.0079730203 0.51226292)
(0 0.0066097477 0.5113596)
(0 0.0053011278 0.5106625)
(0 0.0040358571 0.51014561)
(0 0.0028028961 0.50979033)
(0 0.0015914282 0.50958425)
(0 0.00039079804 0.50952038)
(0 -0.00080955451 0.50959675)
(0 -0.0020202348 0.50981632)
(0 -0.0032518985 0.51018712)
(0 -0.0045154002 0.51072276)
(0 -0.0058218256 0.51144325)
(0 -0.0071825258 0.51237631)
(0 -0.0086091195 0.51355929)
(0 -0.010113503 0.51504193)
(0 -0.011707478 0.51689043)
(0 -0.013403076 0.51919355)
(0 -0.015212486 0.52207056)
(0 -0.017141873 0.52567465)
(0 -0.019206151 0.53025254)
(0 -0.021448134 0.53672261)
(0 -0.024206973 0.54795086)
(0 -0.027692262 0.56352222)
(0 -0.027943246 0.55205493)
(0 -0.018200674 0.43275389)
(0 0.00019293434 0.15784177)
(0 -0.0011620582 0.13725345)
(0 0.014008286 0.40518501)
(0 0.027637336 0.55021328)
(0 0.030035886 0.576938)
(0 0.026846082 0.56094517)
(0 0.023858846 0.54585868)
(0 0.02159826 0.5371803)
(0 0.019569739 0.5314365)
(0 0.017653918 0.52698708)
(0 0.015832184 0.52342319)
(0 0.014107387 0.52055821)
(0 0.012473407 0.51824617)
(0 0.010922183 0.51637649)
(0 0.0094455415 0.51486693)
(0 0.0080345432 0.51365574)
(0 0.0066799915 0.51269628)
(0 0.0053725429 0.51195341)
(0 0.0041028053 0.51140102)
(0 0.0028614147 0.51102039)
(0 0.0016390558 0.51079899)
(0 0.00042645868 0.51072977)
(0 -0.0007855997 0.51081071)
(0 -0.0020063796 0.51104482)
(0 -0.0032451243 0.51144021)
(0 -0.0045111456 0.51201059)
(0 -0.0058137909 0.5127761)
(0 -0.007162418 0.51376457)
(0 -0.0085663184 0.51501337)
(0 -0.010034683 0.51657216)
(0 -0.011576207 0.51850689)
(0 -0.0131992 0.52090579)
(0 -0.014911706 0.5238863)
(0 -0.01671511 0.52759922)
(0 -0.018621294 0.53232312)
(0 -0.020692609 0.53914153)
(0 -0.02324862 0.55086225)
(0 -0.026210173 0.56497016)
(0 -0.025417337 0.54658947)
(0 -0.015160441 0.41927996)
(0 0.00059896602 0.14996604)
(0 -0.001094317 0.13201209)
(0 0.011544758 0.39188252)
(0 0.025028795 0.54254242)
(0 0.028349052 0.57699384)
(0 0.025845694 0.56371635)
(0 0.02307089 0.54836775)
(0 0.020946254 0.53924329)
(0 0.019070602 0.53333245)
(0 0.017288331 0.52879529)
(0 0.015574914 0.52514747)
(0 0.013936378 0.52220022)
(0 0.012369475 0.51981098)
(0 0.010869051 0.51787053)
(0 0.0094295306 0.51629739)
(0 0.0080443809 0.5150304)
(0 0.0067065821 0.51402331)
(0 0.0054087306 0.5132412)
(0 0.0041431718 0.5126581)
(0 0.0029021095 0.51225534)
(0 0.0016776687 0.5120204)
(0 0.00046193326 0.51194622)
(0 -0.00075300216 0.5120308)
(0 -0.0019750716 0.51227712)
(0 -0.0032121409 0.51269329)
(0 -0.004472044 0.513293)
(0 -0.005762503 0.5140963)
(0 -0.0070910649 0.51513089)
(0 -0.0084649766 0.51643385)
(0 -0.0098911236 0.51805443)
(0 -0.011375672 0.52005799)
(0 -0.01292402 0.52253179)
(0 -0.014541066 0.52559098)
(0 -0.016224998 0.52938573)
(0 -0.017987919 0.53423689)
(0 -0.019911723 0.54138092)
(0 -0.022276357 0.55341249)
(0 -0.024725649 0.56565237)
(0 -0.02307675 0.54059775)
(0 -0.01263214 0.40681395)
(0 0.00078507007 0.14360955)
(0 -0.00095217629 0.12773163)
(0 0.0096311155 0.37980667)
(0 0.02271063 0.53468166)
(0 0.026739297 0.57633313)
(0 0.02487744 0.5660793)
(0 0.022306212 0.55070813)
(0 0.020291688 0.54117024)
(0 0.018544917 0.53509468)
(0 0.016881423 0.5304873)
(0 0.015268172 0.52677644)
(0 0.013712144 0.52376566)
(0 0.012211916 0.52131553)
(0 0.010764389 0.5193183)
(0 0.0093658983 0.51769338)
(0 0.0080117847 0.51638032)
(0 0.0066968102 0.51533342)
(0 0.0054152216 0.51451818)
(0 0.0041608945 0.51390891)
(0 0.0029274536 0.51348709)
(0 0.0017083599 0.51324031)
(0 0.00049697375 0.51316158)
(0 -0.00071335789 0.51324888)
(0 -0.0019293085 0.51350517)
(0 -0.0031574475 0.51393848)
(0 -0.0044042405 0.51456237)
(0 -0.005675939 0.51539668)
(0 -0.0069784982 0.51646878)
(0 -0.0083174274 0.51781532)
(0 -0.0096977215 0.5194849)
(0 -0.011123566 0.52154211)
(0 -0.012598192 0.52407304)
(0 -0.014124245 0.52719045)
(0 -0.015698182 0.53104667)
(0 -0.017334765 0.53601374)
(0 -0.019133211 0.54345785)
(0 -0.021317847 0.55561927)
(0 -0.023280376 0.56568006)
(0 -0.020949247 0.53429285)
(0 -0.010563132 0.39535667)
(0 0.00083153052 0.1384396)
(0 -0.00078313531 0.12415144)
(0 0.0081547294 0.36886155)
(0 0.020662403 0.5267918)
(0 0.025224269 0.57508479)
(0 0.023949786 0.56806396)
(0 0.021575568 0.55289655)
(0 0.019651349 0.54298543)
(0 0.018011138 0.53674264)
(0 0.016451373 0.53207532)
(0 0.014929079 0.52831713)
(0 0.01345026 0.52525777)
(0 0.012014504 0.52276013)
(0 0.010620096 0.52071792)
(0 0.00926469 0.51905139)
(0 0.0079450358 0.51770082)
(0 0.0066573054 0.51662113)
(0 0.0053971103 0.5157783)
(0 0.0041596368 0.515147)
(0 0.0029397628 0.51470896)
(0 0.0017321539 0.51445194)
(0 0.00053133935 0.514369)
(0 -0.00066817902 0.51445816)
(0 -0.001871912 0.51472232)
(0 -0.0030852446 0.51516939)
(0 -0.0043134116 0.51581273)
(0 -0.0055613718 0.51667188)
(0 -0.0068337204 0.51777379)
(0 -0.008134536 0.51915456)
(0 -0.0094673175 0.52086208)
(0 -0.010834767 0.5229601)
(0 -0.012238574 0.52553349)
(0 -0.013679901 0.52869295)
(0 -0.015154758 0.53259631)
(0 -0.016682199 0.53767339)
(0 -0.018374859 0.54538835)
(0 -0.020390243 0.55750529)
(0 -0.021900573 0.56515943)
(0 -0.019039646 0.52783841)
(0 -0.0088905609 0.38486909)
(0 0.00079485498 0.13418449)
(0 -0.00061518878 0.12108166)
(0 0.0070164466 0.35893941)
(0 0.018855936 0.51898641)
(0 0.023809586 0.57335903)
(0 0.023064847 0.56970014)
(0 0.020883009 0.55494568)
(0 0.019034934 0.54470888)
(0 0.017481633 0.53829432)
(0 0.016011318 0.53357167)
(0 0.014570632 0.52977736)
(0 0.013163016 0.526681)
(0 0.011788464 0.52414657)
(0 0.010446123 0.52206908)
(0 0.009134496 0.5203695)
(0 0.0078513473 0.51898876)
(0 0.0065939308 0.51788239)
(0 0.0053589569 0.51701687)
(0 0.0041427084 0.51636725)
(0 0.0029411413 0.51591554)
(0 0.0017499819 0.51564969)
(0 0.0005648025 0.51556287)
(0 -0.00061885631 0.5156531)
(0 -0.0018054604 0.51592322)
(0 -0.0029993403 0.516381)
(0 -0.0042046512 0.51703955)
(0 -0.0054252439 0.51791808)
(0 -0.0066645827 0.51904306)
(0 -0.0079256019 0.52045003)
(0 -0.0092106588 0.52218618)
(0 -0.010521397 0.52431444)
(0 -0.011858482 0.52691855)
(0 -0.013222211 0.53010772)
(0 -0.014609241 0.534049)
(0 -0.01604382 0.5392337)
(0 -0.017646992 0.5471863)
(0 -0.019502852 0.55909535)
(0 -0.020600362 0.56418656)
(0 -0.017338431 0.52135691)
(0 -0.0075496655 0.37528996)
(0 0.00071347717 0.13062961)
(0 -0.00046326223 0.11838745)
(0 0.0061337264 0.34993199)
(0 0.017260937 0.51134354)
(0 0.0224931 0.57124849)
(0 0.022220899 0.57101634)
(0 0.020228281 0.55686469)
(0 0.018447074 0.54635624)
(0 0.016964162 0.53976547)
(0 0.015570387 0.5349879)
(0 0.014202394 0.53116498)
(0 0.012859853 0.52804035)
(0 0.011542715 0.52547751)
(0 0.010250595 0.52337253)
(0 0.0089824861 0.52164694)
(0 0.0077368507 0.5202422)
(0 0.0065117453 0.51911437)
(0 0.0053047433 0.51823038)
(0 0.004113024 0.51756567)
(0 0.0029334524 0.51710254)
(0 0.0017626677 0.51682912)
(0 0.000597154 0.51673869)
(0 -0.00056663584 0.51682928)
(0 -0.0017322495 0.51710366)
(0 -0.0029030991 0.51756946)
(0 -0.0040824139 0.51823951)
(0 -0.0052731177 0.51913269)
(0 -0.0064777568 0.52027501)
(0 -0.0076983779 0.52170144)
(0 -0.0089365005 0.52345855)
(0 -0.010193061 0.52560859)
(0 -0.011468105 0.52823425)
(0 -0.012761552 0.53144416)
(0 -0.014071588 0.53541822)
(0 -0.015427927 0.54071002)
(0 -0.016954473 0.54886336)
(0 -0.018659266 0.56041455)
(0 -0.019384852 0.56284564)
(0 -0.01582807 0.51493784)
(0 -0.0064792092 0.36654756)
(0 0.00061260055 0.12760916)
(0 -0.00033381889 0.11597492)
(0 0.0054408718 0.34173677)
(0 0.015848315 0.50391498)
(0 0.021268265 0.56883031)
(0 0.02141418 0.57203927)
(0 0.019608541 0.55866002)
(0 0.017888902 0.54793923)
(0 0.016463082 0.54116937)
(0 0.01513461 0.53633441)
(0 0.013831165 0.53248739)
(0 0.01254783 0.52934087)
(0 0.011284172 0.52675604)
(0 0.010039993 0.52462971)
(0 0.0088145131 0.52288379)
(0 0.0076066444 0.52146012)
(0 0.0064150183 0.52031518)
(0 0.0052378689 0.5194163)
(0 0.0040730937 0.51873926)
(0 0.0029183084 0.51826663)
(0 0.0017709242 0.51798673)
(0 0.00062820588 0.51789291)
(0 -0.00051260855 0.51798324)
(0 -0.0016542761 0.51826042)
(0 -0.0027994246 0.5187319)
(0 -0.0039505057 0.51941029)
(0 -0.0051096841 0.52031411)
(0 -0.0062787794 0.52146897)
(0 -0.0074591708 0.52290933)
(0 -0.0086517915 0.52468126)
(0 -0.0098571464 0.52684641)
(0 -0.011074972 0.52948672)
(0 -0.01230518 0.53271119)
(0 -0.013548135 0.53671604)
(0 -0.014838786 0.54211495)
(0 -0.016298306 0.55042899)
(0 -0.017859158 0.56148711)
(0 -0.018252978 0.56120872)
(0 -0.014487486 0.50864478)
(0 -0.0056246009 0.35856717)
(0 0.00050800935 0.12499715)
(0 -0.00022817913 0.11378003)
(0 0.0048874352 0.33426022)
(0 0.014591821 0.49673347)
(0 0.020126553 0.56616854)
(0 0.020640153 0.57279352)
(0 0.019019593 0.56033596)
(0 0.01735928 0.54946608)
(0 0.015980326 0.54251689)
(0 0.01470767 0.53762027)
(0 0.013461568 0.53375133)
(0 0.012232059 0.5305874)
(0 0.011018068 0.52798537)
(0 0.0098193756 0.52584242)
(0 0.0086352545 0.52408066)
(0 0.007464881 0.52264216)
(0 0.0063072793 0.52148367)
(0 0.0051611764 0.52057288)
(0 0.0040250337 0.51988583)
(0 0.0028970761 0.51940533)
(0 0.0017753549 0.51911985)
(0 0.0006577925 0.51902285)
(0 -0.0004577096 0.51911239)
(0 -0.0015732399 0.5193911)
(0 -0.0026907692 0.51986629)
(0 -0.0038121084 0.52055035)
(0 -0.0049388127 0.52146149)
(0 -0.0060721408 0.52262495)
(0 -0.0072129874 0.52407482)
(0 -0.0083618989 0.52585672)
(0 -0.0095191576 0.52803192)
(0 -0.010684419 0.53068182)
(0 -0.011857854 0.53391698)
(0 -0.013042434 0.53795282)
(0 -0.014277731 0.54345843)
(0 -0.01567694 0.55189062)
(0 -0.017099769 0.56233561)
(0 -0.01719988 0.55933647)
(0 -0.013294956 0.50252153)
(0 -0.0049391931 0.35127578)
(0 0.00040895137 0.12269948)
(0 -0.00014479361 0.11175974)
(0 0.0044357897 0.32741929)
(0 0.013468631 0.48981828)
(0 0.019059005 0.56331639)
(0 0.019894277 0.57330171)
(0 0.01845674 0.56189524)
(0 0.016855736 0.55094217)
(0 0.015516177 0.54381661)
(0 0.014291537 0.53885317)
(0 0.013096564 0.53496271)
(0 0.011916106 0.53178435)
(0 0.010748245 0.52916862)
(0 0.0095925949 0.52701264)
(0 0.0084483688 0.52523853)
(0 0.0073148745 0.52378842)
(0 0.0061913891 0.52261928)
(0 0.0050769971 0.521699)
(0 0.0039705942 0.52100385)
(0 0.0028708908 0.52051683)
(0 0.0017764608 0.52022653)
(0 0.00068577134 0.5201265)
(0 -0.00040272447 0.5202148)
(0 -0.0014905594 0.52049399)
(0 -0.0025791627 0.52097126)
(0 -0.0036698268 0.52165878)
(0 -0.0047636274 0.52257453)
(0 -0.0058614002 0.52374346)
(0 -0.0069637025 0.52519931)
(0 -0.0080708467 0.52698747)
(0 -0.0091830409 0.52916893)
(0 -0.010300021 0.5318249)
(0 -0.011422406 0.53506866)
(0 -0.012555998 0.53913719)
(0 -0.013744097 0.54474787)
(0 -0.015087285 0.55325389)
(0 -0.016377014 0.56298062)
(0 -0.016218649 0.55727955)
(0 -0.012229823 0.49659722)
(0 -0.0043844569 0.34460491)
(0 0.00032029417 0.12064709)
(0 -8.072584e-05 0.1098854)
(0 0.0040585424 0.32114153)
(0 0.012459318 0.48317943)
(0 0.018057105 0.5603184)
(0 0.019172425 0.57358465)
(0 0.017915319 0.56333962)
(0 0.016375124 0.55237059)
(0 0.015069855 0.54507506)
(0 0.013886974 0.54003948)
(0 0.012737876 0.53612664)
(0 0.011602342 0.53293565)
(0 0.010477435 0.53030871)
(0 0.0093625091 0.52814233)
(0 0.0082566533 0.52635853)
(0 0.0071592155 0.52489936)
(0 0.0060696214 0.52372185)
(0 0.0049872069 0.52279403)
(0 0.0039111954 0.52209233)
(0 0.0028406788 0.52159988)
(0 0.0017746505 0.5213054)
(0 0.00071202231 0.52120246)
(0 -0.0003483004 0.52128914)
(0 -0.0014073953 0.52156795)
(0 -0.0024662525 0.52204595)
(0 -0.0035257511 0.52273516)
(0 -0.004586596 0.52365335)
(0 -0.0056493126 0.52482524)
(0 -0.0067142344 0.52628438)
(0 -0.0077815515 0.528076)
(0 -0.0088514961 0.53026099)
(0 -0.0099239937 0.53292068)
(0 -0.011000241 0.53617232)
(0 -0.01208891 0.540276)
(0 -0.013235951 0.54598848)
(0 -0.01452546 0.55452293)
(0 -0.015686264 0.56344073)
(0 -0.015301548 0.55508015)
(0 -0.011273402 0.49089029)
(0 -0.003929463 0.33849221)
(0 0.00024405585 0.11879006)
(0 -3.2580185e-05 0.10813775)
(0 0.0037361435 0.31536454)
(0 0.011547549 0.47682072)
(0 0.017113201 0.55721215)
(0 0.018471043 0.57366171)
(0 0.017390995 0.56467032)
(0 0.015914058 0.55375266)
(0 0.01463994 0.54629702)
(0 0.013493924 0.54118437)
(0 0.012386338 0.53724738)
(0 0.011292229 0.53404472)
(0 0.0102075 0.53140827)
(0 0.0091311762 0.52923341)
(0 0.0080621958 0.5274419)
(0 0.0069998863 0.52597561)
(0 0.0059437479 0.52479152)
(0 0.0048932871 0.5238577)
(0 0.0038479694 0.52315069)
(0 0.0028071819 0.52265371)
(0 0.0017702509 0.52235554)
(0 0.00073644618 0.5222498)
(0 -0.00029496091 0.52233456)
(0 -0.0013246801 0.52261227)
(0 -0.0023533499 0.52308991)
(0 -0.0033815243 0.52377938)
(0 -0.0044096266 0.5246983)
(0 -0.0054379592 0.52587122)
(0 -0.0064667168 0.52733159)
(0 -0.0074960443 0.52912461)
(0 -0.0085262576 0.53131123)
(0 -0.0095575386 0.5339732)
(0 -0.010591747 0.53723294)
(0 -0.011640313 0.5413745)
(0 -0.012750644 0.54718361)
(0 -0.013987312 0.55570071)
(0 -0.015022868 0.56373266)
(0 -0.014440819 0.55277343)
(0 -0.010409327 0.4854116)
(0 -0.0035499707 0.33288204)
(0 0.00018047519 0.11709278)
(0 2.9532799e-06 0.10650358)
(0 0.0034548459 0.31003503)
(0 0.010719666 0.47074181)
(0 0.01622064 0.55402968)
(0 0.017787171 0.57355101)
(0 0.016879905 0.5658884)
(0 0.015469182 0.55508843)
(0 0.014224664 0.5474858)
(0 0.013111796 0.54229193)
(0 0.012042164 0.5383285)
(0 0.010986567 0.53511444)
(0 0.0099396368 0.53246958)
(0 0.0089000246 0.5302876)
(0 0.007866512 0.52848985)
(0 0.0068383696 0.52701791)
(0 0.0058151218 0.52582862)
(0 0.0047963856 0.52489001)
(0 0.0037818025 0.52417867)
(0 0.0027709847 0.52367787)
(0 0.0017635197 0.52337642)
(0 0.00075896267 0.52326796)
(0 -0.00024312188 0.52335054)
(0 -0.0012431494 0.5236266)
(0 -0.0022414795 0.52410302)
(0 -0.003238413 0.52479162)
(0 -0.0042341616 0.52570992)
(0 -0.0052288716 0.52688239)
(0 -0.0062226578 0.52834246)
(0 -0.00721567 0.53013539)
(0 -0.0082083367 0.53232231)
(0 -0.0092011321 0.53498582)
(0 -0.01019663 0.53825451)
(0 -0.011208783 0.54243653)
(0 -0.012285211 0.54833508)
(0 -0.013468764 0.55678935)
(0 -0.014382479 0.56387153)
(0 -0.013629188 0.55038882)
(0 -0.0096235738 0.4801667)
(0 -0.0032273581 0.32772549)
(0 0.0001287567 0.11553009)
(0 2.8818512e-05 0.10497334)
(0 0.0032050653 0.30510766)
(0 0.0099642462 0.46493976)
(0 0.015373731 0.55079846)
(0 0.017118388 0.57326965)
(0 0.016378702 0.566995)
(0 0.015037326 0.55637705)
(0 0.013822104 0.5486435)
(0 0.012739677 0.54336533)
(0 0.011705145 0.53937286)
(0 0.010685677 0.53614722)
(0 0.0096745458 0.53349465)
(0 0.0086699986 0.53130648)
(0 0.0076706672 0.52950355)
(0 0.0066757475 0.52802707)
(0 0.0056847553 0.52683362)
(0 0.0046973762 0.52589117)
(0 0.0037133767 0.52517628)
(0 0.0027325401 0.5246722)
(0 0.0017546568 0.52436778)
(0 0.00077950821 0.52425666)
(0 -0.00019310816 0.52433688)
(0 -0.0011633735 0.52461083)
(0 -0.0021314274 0.52508535)
(0 -0.0030973744 0.5257722)
(0 -0.0040612682 0.52668884)
(0 -0.0050231461 0.52785974)
(0 -0.0059830825 0.52931836)
(0 -0.0069412597 0.53111014)
(0 -0.0078982253 0.53329651)
(0 -0.0088547592 0.53596124)
(0 -0.0098141696 0.53924011)
(0 -0.010792609 0.54346468)
(0 -0.011836658 0.54944354)
(0 -0.012966046 0.55779041)
(0 -0.013761242 0.56387104)
(0 -0.012860127 0.54795114)
(0 -0.0089043056 0.47515747)
(0 -0.0029475555 0.32298003)
(0 8.7577377e-05 0.11408429)
(0 4.7483615e-05 0.10353973)
(0 0.002980124 0.30054395)
(0 0.0092716956 0.45941001)
(0 0.014567626 0.54754232)
(0 0.01646272 0.57283381)
(0 0.015884542 0.56799152)
(0 0.014615585 0.55761711)
(0 0.013430316 0.54977124)
(0 0.012376472 0.54440692)
(0 0.011374809 0.54038276)
(0 0.010389552 0.53714505)
(0 0.0094125691 0.53448514)