/*--------------------------------*- C++ -*----------------------------------*\
  =========                 |
  \\      /  F ield         | OpenFOAM: The Open Source CFD Toolbox
   \\    /   O peration     | Website:  https://openfoam.org
    \\  /    A nd           | Version:  10
     \\/     M anipulation  |
\*---------------------------------------------------------------------------*/
FoamFile
{
    format      ascii;
    class       surfaceScalarField;
    location    "0.29";
    object      phi;
}
// * * * * * * * * * * * * * * * * * * * * * * * * * * * * * * * * * * * * * //

dimensions      [1 0 -1 0 0 0 0];

internalField   nonuniform List<scalar> 
7860
(
3.9895993e-08
5.2881205e-07
1.2192739e-08
5.9641106e-07
7.4279182e-09
5.7347257e-07
5.4994372e-09
5.7063619e-07
4.1150103e-09
5.7009211e-07
3.2011498e-09
5.6962152e-07
2.5591463e-09
5.6934965e-07
2.0793066e-09
5.6918747e-07
1.7093025e-09
5.6907762e-07
1.4166105e-09
5.690003e-07
1.1794354e-09
5.6894477e-07
9.8301449e-10
5.6890401e-07
8.1700428e-10
5.688736e-07
6.7391481e-10
5.6885067e-07
5.4817308e-10
5.6883332e-07
4.3551875e-10
5.6882023e-07
3.3259833e-10
5.6881049e-07
2.3668488e-10
5.6880348e-07
1.4547566e-10
5.6879878e-07
5.693993e-11
5.687961e-07
-3.0804773e-11
5.6879531e-07
-1.1960044e-10
5.6879636e-07
-2.1135305e-10
5.6879932e-07
-3.0813975e-10
5.6880436e-07
-4.1234089e-10
5.6881177e-07
-5.2680315e-10
5.6882204e-07
-6.550601e-10
5.6883583e-07
-8.0164523e-10
5.6885417e-07
-9.7255238e-10
5.6887849e-07
-1.1759425e-09
5.6891098e-07
-1.4233168e-09
5.6895497e-07
-1.7314862e-09
5.6901577e-07
-2.1254286e-09
5.6910156e-07
-2.6450249e-09
5.6922722e-07
-3.3726888e-09
5.6943531e-07
-4.4639687e-09
5.6979894e-07
-6.0092613e-09
5.7025298e-07
-9.5082345e-09
5.7220669e-07
-2.9576094e-08
5.8877562e-07
5.3913184e-07
5.9672536e-08
4.6913951e-07
3.6666009e-08
6.1941759e-07
2.2628186e-08
5.875104e-07
1.6253592e-08
5.7701079e-07
1.2290519e-08
5.7405518e-07
9.6062517e-09
5.7230579e-07
7.6774489e-09
5.7127845e-07
6.2360751e-09
5.7062884e-07
5.1265344e-09
5.7018716e-07
4.2487545e-09
5.6987808e-07
3.5374011e-09
5.6965613e-07
2.9483058e-09
5.6949311e-07
2.4504237e-09
5.6937148e-07
2.0212799e-09
5.6927981e-07
1.6441602e-09
5.6921044e-07
1.3062879e-09
5.691581e-07
9.976061e-10
5.6911917e-07
7.0993703e-10
5.6909115e-07
4.3637546e-10
5.6907234e-07
1.7083027e-10
5.6906165e-07
-9.2344185e-11
5.6905849e-07
-3.5867055e-10
5.6906269e-07
-6.3386037e-10
5.6907451e-07
-9.2414531e-10
5.6909464e-07
-1.2366639e-09
5.6912429e-07
-1.5799525e-09
5.6916532e-07
-1.9646077e-09
5.6922049e-07
-2.4042249e-09
5.6929378e-07
-2.9167864e-09
5.6939105e-07
-3.526784e-09
5.6952098e-07
-4.2686357e-09
5.6969682e-07
-5.1927059e-09
5.6993984e-07
-6.3756181e-09
5.7028447e-07
-7.9360878e-09
5.7078769e-07
-1.0077336e-08
5.7157655e-07
-1.3205483e-08
5.7292709e-07
-1.8135292e-08
5.7518279e-07
-2.8177494e-08
5.8224889e-07
-4.5803333e-08
6.0640146e-07
4.9332851e-07
6.0008867e-08
4.0913064e-07
5.048732e-08
6.2893914e-07
3.3370715e-08
6.04627e-07
2.4817715e-08
5.8556379e-07
1.9323279e-08
5.7954962e-07
1.5331518e-08
5.7629755e-07
1.2360718e-08
5.7424925e-07
1.0101527e-08
5.7288803e-07
8.3405673e-09
5.7194812e-07
6.93472e-09
5.7128392e-07
5.7879065e-09
5.7080294e-07
4.8333623e-09
5.7044765e-07
4.0233235e-09
5.7018152e-07
3.3228053e-09
5.6998033e-07
2.7055447e-09
5.698277e-07
2.1513102e-09
5.6971234e-07
1.6440773e-09
5.6962641e-07
1.1707473e-09
5.6956448e-07
7.2021407e-10
5.6952287e-07
2.826501e-10
5.6949921e-07
-1.5107011e-10
5.6949221e-07
-5.8987651e-10
5.695015e-07
-1.0429967e-09
5.6952763e-07
-1.5204761e-09
5.6957212e-07
-2.0337805e-09
5.696376e-07
-2.5965558e-09
5.697281e-07
-3.2256397e-09
5.6984957e-07
-3.9424724e-09
5.7001062e-07
-4.7751469e-09
5.7022373e-07
-5.7614724e-09
5.705073e-07
-6.9536326e-09
5.7088898e-07
-8.4258245e-09
5.7141204e-07
-1.0287445e-08
5.7214609e-07
-1.2700362e-08
5.7320061e-07
-1.5897732e-08
5.7477392e-07
-2.0241436e-08
5.7727079e-07
-2.6709629e-08
5.8165098e-07
-3.8949078e-08
5.9448834e-07
-4.8167996e-08
6.1562038e-07
4.4516051e-07
5.4879108e-08
3.5425153e-07
5.7452262e-08
6.2636598e-07
4.0467618e-08
6.2161165e-07
3.0778813e-08
5.9525259e-07
2.4643087e-08
5.8568534e-07
1.9952306e-08
5.8098833e-07
1.6312916e-08
5.7788864e-07
1.3466464e-08
5.7573448e-07
1.1200835e-08
5.7421375e-07
9.3643243e-09
5.7312044e-07
7.8490489e-09
5.7231822e-07
6.5765215e-09
5.7172018e-07
5.4888969e-09
5.7126914e-07
4.5428638e-09
5.7092637e-07
3.7053289e-09
5.7066523e-07
2.9504362e-09
5.7046723e-07
2.2574698e-09
5.7031937e-07
1.6093357e-09
5.7021262e-07
9.9143024e-10
5.7014078e-07
3.9076038e-10
5.7009988e-07
-2.0477972e-10
5.7008775e-07
-8.070487e-10
5.7010376e-07
-1.4282793e-09
5.7014886e-07
-2.0817325e-09
5.7022557e-07
-2.7824485e-09
5.7033831e-07
-3.5481743e-09
5.7049383e-07
-4.4005708e-09
5.7070197e-07
-5.3668463e-09
5.7097689e-07
-6.4820365e-09
5.7133892e-07
-7.7922651e-09
5.7181753e-07
-9.3593103e-09
5.7245603e-07
-1.1266991e-08
5.7331972e-07
-1.363157e-08
5.7451067e-07
-1.6614387e-08
5.7618343e-07
-2.0413212e-08
5.7857275e-07
-2.5294716e-08
5.821523e-07
-3.2518885e-08
5.8887515e-07
-4.510244e-08
6.070719e-07
-4.6550338e-08
6.1706828e-07
3.9861017e-07
4.7965838e-08
3.062857e-07
6.0076657e-08
6.1425516e-07
4.5400265e-08
6.3628804e-07
3.4875442e-08
6.0577742e-07
2.8399909e-08
5.9216088e-07
2.3419625e-08
5.8596861e-07
1.9434247e-08
5.8187401e-07
1.6229041e-08
5.7893969e-07
1.361949e-08
5.768233e-07
1.146619e-08
5.7527374e-07
9.6640159e-09
5.7412039e-07
8.1329284e-09
5.7325127e-07
6.8119063e-09
5.7259016e-07
5.6539389e-09
5.7208433e-07
4.6222526e-09
5.7169692e-07
3.6875627e-09
5.7140192e-07
2.8260325e-09
5.711809e-07
2.0177341e-09
5.7102091e-07
1.2454649e-09
5.7091305e-07
4.9380129e-10
5.7085155e-07
-2.5169349e-10
5.7083324e-07
-1.0051799e-09
5.7085725e-07
-1.781232e-09
5.7092491e-07
-2.5955605e-09
5.710399e-07
-3.4658282e-09
5.7120858e-07
-4.4126343e-09
5.7144063e-07
-5.460754e-09
5.7175009e-07
-6.6407485e-09
5.7215688e-07
-7.9910911e-09
5.7268926e-07
-9.5610415e-09
5.7338748e-07
-1.1414421e-08
5.7430941e-07
-1.3634039e-08
5.7553933e-07
-1.6328193e-08
5.7720482e-07
-1.9640485e-08
5.7949572e-07
-2.3741169e-08
5.8267343e-07
-2.8933173e-08
5.873443e-07
-3.6793376e-08
5.9673535e-07
-4.8465868e-08
6.1874439e-07
-4.3195434e-08
6.1179784e-07
3.5541474e-07
4.033615e-08
2.6594954e-07
5.8994299e-08
5.9559701e-07
4.8330303e-08
6.4695203e-07
3.7588252e-08
6.1651947e-07
3.092902e-08
5.9882011e-07
2.5894077e-08
5.9100356e-07
2.1780016e-08
5.8598807e-07
1.8391986e-08
5.8232772e-07
1.5577333e-08
5.7963795e-07
1.3214008e-08
5.7763706e-07
1.1206074e-08
5.7612832e-07
9.47824e-09
5.749791e-07
7.9713666e-09
5.7409704e-07
6.6385515e-09
5.7341715e-07
5.4421698e-09
5.728933e-07
4.3516061e-09
5.7249248e-07
3.3414747e-09
5.7219103e-07
2.3902201e-09
5.7197217e-07
1.4789988e-09
5.7182427e-07
5.9075944e-10
5.7173978e-07
-2.9054831e-10
5.7171455e-07
-1.1806908e-09
5.7174739e-07
-2.0958534e-09
5.7184008e-07
-3.0533681e-09
5.7199742e-07
-4.0725202e-09
5.7222773e-07
-5.1754939e-09
5.725436e-07
-6.3885246e-09
5.7296312e-07
-7.7433326e-09
5.7351169e-07
-9.2789219e-09
5.7422485e-07
-1.1043887e-08
5.7515245e-07
-1.3099446e-08
5.7636497e-07
-1.5522861e-08
5.7796275e-07
-1.841153e-08
5.8009349e-07
-2.1889625e-08
5.8297381e-07
-2.6112924e-08
5.8689673e-07
-3.1490977e-08
5.9272235e-07
-3.9657271e-08
6.0490165e-07
-4.9174857e-08
6.2826197e-07
-3.8579802e-08
6.0120279e-07
3.1683493e-07
3.2862826e-08
2.3308672e-07
5.5250294e-08
5.7320954e-07
4.923255e-08
6.5296978e-07
3.906176e-08
6.2669026e-07
3.2430853e-08
6.0545102e-07
2.7518898e-08
5.9591551e-07
2.3438764e-08
5.9006821e-07
2.0002879e-08
5.857636e-07
1.7094693e-08
5.8254614e-07
1.4611984e-08
5.8011977e-07
1.2470966e-08
5.7826934e-07
1.060439e-08
5.7684567e-07
8.9580194e-09
5.7574341e-07
7.4876626e-09
5.748875e-07
6.1569929e-09
5.7422397e-07
4.9357869e-09
5.7371369e-07
3.7984826e-09
5.7332834e-07
2.7230025e-09
5.7304765e-07
1.6897773e-09
5.7285749e-07
6.8091503e-10
5.7274865e-07
-3.2053129e-10
5.72716e-07
-1.3312375e-09
5.727581e-07
-2.3682749e-09
5.7287711e-07
-3.4497929e-09
5.7307893e-07
-4.5957607e-09
5.733737e-07
-5.8288149e-09
5.7377666e-07
-7.175256e-09
5.7430956e-07
-8.6662499e-09
5.7500269e-07
-1.0339278e-08
5.7589788e-07
-1.2239911e-08
5.7705308e-07
-1.4424202e-08
5.7854926e-07
-1.6961575e-08
5.8050012e-07
-1.993687e-08
5.8306879e-07
-2.345086e-08
5.864878e-07
-2.7644965e-08
5.9109084e-07
-3.3037668e-08
5.9811506e-07
-4.1013963e-08
6.1287794e-07
-4.7690638e-08
6.3493865e-07
-3.337755e-08
5.868897e-07
2.8345738e-07
2.6189145e-08
2.0689757e-07
5.0133058e-08
5.4926563e-07
4.8493973e-08
6.5460886e-07
3.949139e-08
6.3569284e-07
3.3077724e-08
6.1186468e-07
2.841224e-08
6.00581e-07
2.4493041e-08
5.9398741e-07
2.1118269e-08
5.8913838e-07
1.8207045e-08
5.8545736e-07
1.5680144e-08
5.8264667e-07
1.3468429e-08
5.8048106e-07
1.1514726e-08
5.7879938e-07
9.7715205e-09
5.7748661e-07
8.1990258e-09
5.7646e-07
6.7637133e-09
5.7565928e-07
5.4370411e-09
5.7504036e-07
4.1943656e-09
5.7457101e-07
3.0140181e-09
5.74228e-07
1.8765072e-09
5.73995e-07
7.6381569e-10
5.7386134e-07
-3.4123585e-10
5.7382105e-07
-1.455585e-09
5.7387245e-07
-2.5965202e-09
5.7401805e-07
-3.7822839e-09
5.742647e-07
-5.032715e-09
5.7462413e-07
-6.3699635e-09
5.7511391e-07
-7.8193034e-09
5.757589e-07
-9.4100794e-09
5.7659346e-07
-1.1176815e-08
5.7766461e-07
-1.3160482e-08
5.7903675e-07
-1.5410147e-08
5.8079892e-07
-1.7985093e-08
5.8307507e-07
-2.0954771e-08
5.8603847e-07
-2.4394367e-08
5.899274e-07
-2.8439422e-08
5.9513589e-07
-3.3695276e-08
6.0337091e-07
-4.1066538e-08
6.202492e-07
-4.4800537e-08
6.3867265e-07
-2.8205978e-08
5.7029514e-07
2.5525141e-07
2.0571073e-08
1.863265e-07
4.458363e-08
5.2525307e-07
4.6643449e-08
6.5254904e-07
3.9153642e-08
6.4318265e-07
3.3084197e-08
6.1793413e-07
2.8717926e-08
6.0494727e-07
2.5038368e-08
5.9766696e-07
2.1803907e-08
5.9237284e-07
1.8959225e-08
5.8830204e-07
1.6448273e-08
5.8515762e-07
1.4217555e-08
5.8271177e-07
1.2220892e-08
5.8079604e-07
1.0418504e-08
5.79289e-07
8.7760397e-09
5.7810246e-07
7.263746e-09
5.7717158e-07
5.8556603e-09
5.7644844e-07
4.5288684e-09
5.7589781e-07
3.2628393e-09
5.7549403e-07
2.0388182e-09
5.7521902e-07
8.3926979e-10
5.7506089e-07
-3.5264233e-10
5.7501296e-07
-1.5535515e-09
5.7507336e-07
-2.7803855e-09
5.7524488e-07
-4.0508675e-09
5.7553518e-07
-5.3840412e-09
5.759573e-07
-6.8008362e-09
5.765307e-07
-8.3246855e-09
5.7728275e-07
-9.9822105e-09
5.7825099e-07
-1.1803988e-08
5.7948639e-07
-1.3825343e-08
5.810581e-07
-1.6087263e-08
5.8306084e-07
-1.8637596e-08
5.856254e-07
-2.1529444e-08
5.8893031e-07
-2.481682e-08
5.9321477e-07
-2.8645968e-08
5.9896504e-07
-3.366434e-08
6.0838928e-07
-4.0148314e-08
6.2673317e-07
-4.1162619e-08
6.3968695e-07
-2.341847e-08
5.5255099e-07
2.3183294e-07
1.6015671e-08
1.7031083e-07
3.9144437e-08
5.0212431e-07
4.4119221e-08
6.4757426e-07
3.8290245e-08
6.4901162e-07
3.2654409e-08
6.2356996e-07
2.8592018e-08
6.0900966e-07
2.5183925e-08
6.0107506e-07
2.2136168e-08
5.9542059e-07
1.9404859e-08
5.9103335e-07
1.6953941e-08
5.8760854e-07
1.4744441e-08
5.8492127e-07
1.2740762e-08
5.8279972e-07
1.0910995e-08
5.8111877e-07
9.2266218e-09
5.7978684e-07
7.6621714e-09
5.7873603e-07
6.1947998e-09
5.7791582e-07
4.8038636e-09
5.7728874e-07
3.4704931e-09
5.768274e-07
2.1771706e-09
5.7651235e-07
9.073222e-10
5.7633073e-07
-3.5507886e-10
5.7627536e-07
-1.6258993e-09
5.7634418e-07
-2.9212378e-09
5.7654022e-07
-4.2578149e-09
5.7687176e-07
-5.6533733e-09
5.7735286e-07
-7.1270917e-09
5.7800442e-07
-8.7000128e-09
5.7885567e-07
-1.0395481e-08
5.7994646e-07
-1.2239599e-08
5.8133051e-07
-1.4261647e-08
5.8308015e-07
-1.6494448e-08
5.8529364e-07
-1.8974751e-08
5.881057e-07
-2.174069e-08
5.9169625e-07
-2.483274e-08
5.9630682e-07
-2.8419825e-08
6.0255212e-07
-3.3129234e-08
6.1309869e-07
-3.8554215e-08
6.3215816e-07
-3.7219378e-08
6.3835212e-07
-1.918443e-08
5.3451604e-07
2.1264851e-07
1.2423979e-08
1.5788685e-07
3.4114583e-08
4.804337e-07
4.1250504e-08
6.4043834e-07
3.707936e-08
6.5318277e-07
3.1942499e-08
6.2870683e-07
2.8169247e-08
6.1278291e-07
2.5033348e-08
6.0421096e-07
2.2192305e-08
5.9826164e-07
1.960105e-08
5.9362461e-07
1.7239001e-08
5.8997059e-07
1.5079527e-08
5.8708075e-07
1.3096317e-08
5.8478293e-07
1.1264736e-08
5.8295035e-07
9.5619329e-09
5.8148964e-07
7.9667925e-09
5.8033117e-07
6.4598057e-09
5.794228e-07
5.0228909e-09
5.7872566e-07
3.6391663e-09
5.7821112e-07
2.2926936e-09
5.7785882e-07
9.6820845e-10
5.7765522e-07
-3.4915716e-10
5.7759272e-07
-1.6741537e-09
5.7766917e-07
-3.0216998e-09
5.7788777e-07
-4.4071637e-09
5.7825722e-07
-5.8466409e-09
5.7879234e-07
-7.3572283e-09
5.7951501e-07
-8.9572835e-09
5.8045572e-07
-1.0666657e-08
5.8165583e-07
-1.2506902e-08
5.8317075e-07
-1.4501433e-08
5.8507468e-07
-1.6675564e-08
5.8746777e-07
-1.9056179e-08
5.9048632e-07
-2.1668768e-08
5.9430884e-07
-2.4547529e-08
5.9918558e-07
-2.7887063e-08
6.0589166e-07
-3.223265e-08
6.1744428e-07
-3.6526381e-08
6.3645189e-07
-3.3272096e-08
6.3509783e-07
-1.5565547e-08
5.1680949e-07
1.9708296e-07
9.6573788e-09
1.4822947e-07
2.9646379e-08
4.604447e-07
3.8283952e-08
6.3180076e-07
3.5659159e-08
6.5580756e-07
3.105965e-08
6.3330633e-07
2.7553985e-08
6.1628857e-07
2.4673211e-08
6.0709173e-07
2.2041096e-08
6.0089375e-07
1.9601671e-08
5.9606403e-07
1.734497e-08
5.9222729e-07
1.5254379e-08
5.8917134e-07
1.331132e-08
5.8672599e-07
1.149746e-08
5.8476421e-07
9.7950742e-09
5.8319202e-07
8.1871618e-09
5.8193908e-07
6.657503e-09
5.8095246e-07
5.190655e-09
5.801925e-07
3.7718756e-09
5.796299e-07
2.3870024e-09
5.7924369e-07
1.0223024e-09
5.7901992e-07
-3.3569944e-10
5.7895073e-07
-1.7003989e-09
5.7903387e-07
-3.0853003e-09
5.7927267e-07
-4.5041969e-09
5.7967612e-07
-5.9713404e-09
5.8025948e-07
-7.501594e-09
5.8104526e-07
-9.1105549e-09
5.8206469e-07
-1.081463e-08
5.833599e-07
-1.2631068e-08
5.8498719e-07
-1.4577945e-08
5.8702156e-07
-1.6673999e-08
5.8956383e-07
-1.8937704e-08
5.9275002e-07
-2.1384566e-08
5.967557e-07
-2.4048723e-08
6.0184974e-07
-2.7146558e-08
6.0898949e-07
-3.1092755e-08
6.2139047e-07
-3.4268951e-08
6.3962808e-07
-2.9525925e-08
6.3035481e-07
-1.2557186e-08
4.9984075e-07
1.8452577e-07
7.5670482e-09
1.4066243e-07
2.5787491e-08
4.4222426e-07
3.5390429e-08
6.2219783e-07
3.4139502e-08
6.5705849e-07
3.0088859e-08
6.3735698e-07
2.6826225e-08
6.1955121e-07
2.4173201e-08
6.0974475e-07
2.1740322e-08
6.0332663e-07
1.9454007e-08
5.9835035e-07
1.7309907e-08
5.9437139e-07
1.5299143e-08
5.911821e-07
1.3409335e-08
5.886158e-07
1.162737e-08
5.8654617e-07
9.9399342e-09
5.8487946e-07
8.3337127e-09
5.835453e-07
6.7955529e-09
5.8249062e-07
5.3125669e-09
5.8167549e-07
3.872163e-09
5.810703e-07
2.4620274e-09
5.8065383e-07
1.0700675e-09
5.8041188e-07
-3.1566876e-10
5.8033646e-07
-1.7070864e-09
5.8042529e-07
-3.1161461e-09
5.8068173e-07
-4.5549577e-09
5.8111493e-07
-6.0358592e-09
5.8174038e-07
-7.5714721e-09
5.8258087e-07
-9.1747197e-09
5.8366793e-07
-1.0858793e-08
5.8504398e-07
-1.2637059e-08
5.8676545e-07
-1.4522945e-08
5.8890744e-07
-1.6529634e-08
5.9157051e-07
-1.8668718e-08
5.9488911e-07
-2.09487e-08
5.9903568e-07
-2.3408772e-08
6.0430981e-07
-2.6278681e-08
6.118594e-07
-2.9810621e-08
6.2492241e-07
-3.1943579e-08
6.4176104e-07
-2.610322e-08
6.2451445e-07
-1.0112708e-08
4.8385024e-07
1.7441306e-07
6.0124143e-09
1.3465001e-07
2.251614e-08
4.2572054e-07
3.2671796e-08
6.1204217e-07
3.2600834e-08
6.5712945e-07
2.9090221e-08
6.4086759e-07
2.604614e-08
6.2259529e-07
2.3588656e-08
6.1220224e-07
2.1337564e-08
6.0557772e-07
1.9198251e-08
6.0048966e-07
1.7167256e-08
5.9640239e-07
1.5241203e-08
5.9310815e-07
1.3412463e-08
5.9044454e-07
1.1672052e-08
5.8828658e-07
1.0010299e-08
5.8654121e-07
8.4170582e-09
5.8513854e-07
6.8819176e-09
5.8402576e-07
5.3943539e-09
5.8316305e-07
3.9438335e-09
5.8252082e-07
2.5198653e-09
5.820778e-07
1.1120147e-09
5.8181973e-07
-2.9010607e-10
5.8173858e-07
-1.6968635e-09
5.8183205e-07
-3.1186347e-09
5.821035e-07
-4.5658313e-09
5.8256212e-07
-6.0489071e-09
5.8322346e-07
-7.5783393e-09
5.8411031e-07
-9.1645729e-09
5.8525417e-07
-1.0817915e-08
5.8669732e-07
-1.2548376e-08
5.8849592e-07
-1.4365493e-08
5.9072456e-07
-1.6277953e-08
5.9348297e-07
-1.829205e-08
5.969032e-07
-2.0412367e-08
6.01156e-07
-2.2686708e-08
6.0658415e-07
-2.5347037e-08
6.1451973e-07
-2.8466854e-08
6.2804223e-07
-2.9664472e-08
6.4295866e-07
-2.3059259e-08
6.1790923e-07
-8.163668e-09
4.6895465e-07
1.662494e-07
4.8707742e-09
1.2977924e-07
1.9773777e-08
4.1081754e-07
3.0176327e-08
6.0163962e-07
3.1095507e-08
6.5621027e-07
2.8103239e-08
6.4385986e-07
2.5256027e-08
6.254425e-07
2.2961708e-08
6.1449656e-07
2.0870879e-08
6.0766855e-07
1.8867685e-08
6.0249285e-07
1.6945579e-08
5.9832449e-07
1.5104634e-08
5.949491e-07
1.3340665e-08
5.922085e-07
1.1647795e-08
5.8997945e-07
1.0019236e-08
5.8816977e-07
8.4474701e-09
5.8671031e-07
6.924444e-09
5.8554879e-07
5.4417456e-09
5.8464575e-07
3.990738e-09
5.8397183e-07
2.5626558e-09
5.8350588e-07
1.1486693e-09
5.8323372e-07
-2.600753e-10
5.8314733e-07
-1.6724281e-09
5.832444e-07
-3.0972144e-09
5.8352828e-07
-4.5432051e-09
5.8400811e-07
-6.0190722e-09
5.8469932e-07
-7.5333184e-09
5.8562455e-07
-9.0941744e-09
5.8681502e-07
-1.0709456e-08
5.883126e-07
-1.2386379e-08
5.9017284e-07
-1.4131372e-08
5.9246955e-07
-1.5949656e-08
5.9530126e-07
-1.7843756e-08
5.987973e-07
-1.9817142e-08
6.0312939e-07
-2.1927966e-08
6.0869498e-07
-2.4398382e-08
6.1699015e-07
-2.7120216e-08
6.3076406e-07
-2.7503751e-08
6.4334219e-07
-2.0403418e-08
6.108089e-07
-6.6344198e-09
4.5518565e-07
1.5961498e-07
4.0397687e-09
1.2573948e-07
1.7487928e-08
3.9736939e-07
2.7917991e-08
5.9120957e-07
2.9654158e-08
6.544741e-07
2.7151122e-08
6.4636289e-07
2.4483087e-08
6.2811054e-07
2.2322509e-08
6.1665713e-07
2.0369347e-08
6.0962171e-07
1.8488885e-08
6.0437331e-07
1.666851e-08
6.0014487e-07
1.4909971e-08
5.9670764e-07
1.3211417e-08
5.9390706e-07
1.1569196e-08
5.9162167e-07
9.9787044e-09
5.8976026e-07
8.4345205e-09
5.8825449e-07
6.9305595e-09
5.8705275e-07
5.4602357e-09
5.8611608e-07
4.0166053e-09
5.8541546e-07
2.5924849e-09
5.8493e-07
1.1805444e-09
5.8464566e-07
-2.2661796e-10
5.8455449e-07
-1.6364118e-09
5.8465419e-07
-3.0561954e-09
5.8494807e-07
-4.4932085e-09
5.8544513e-07
-5.9544933e-09
5.8616061e-07
-7.4467931e-09
5.8711685e-07
-8.9764243e-09
5.8834465e-07
-1.0549123e-08
5.898853e-07
-1.216987e-08
5.9179359e-07
-1.3842718e-08
5.941424e-07
-1.5570351e-08
5.9702889e-07
-1.735289e-08
6.0057984e-07
-1.9195006e-08
6.049715e-07
-2.1165287e-08
6.1066526e-07
-2.3464724e-08
6.1928958e-07
-2.581048e-08
6.3310982e-07
-2.5501191e-08
6.430329e-07
-1.8117177e-08
6.0342489e-07
-5.4505928e-09
4.4251907e-07
1.5416438e-07
3.4367222e-09
1.2230276e-07
1.5584784e-08
3.8522133e-07
2.5890178e-08
5.8090418e-07
2.8292214e-08
6.5207206e-07
2.6245752e-08
6.4840935e-07
2.3743218e-08
6.3061307e-07
2.1691378e-08
6.1870897e-07
1.9854194e-08
6.114589e-07
1.8082274e-08
6.0614523e-07
1.6354961e-08
6.0187218e-07
1.4674196e-08
5.983884e-07
1.3039578e-08
5.9554168e-07
1.1448962e-08
5.9321229e-07
9.8993222e-09
5.913099e-07
8.3868561e-09
5.8976696e-07
6.9070709e-09
5.8853253e-07
5.4549174e-09
5.8756823e-07
4.0249232e-09
5.8684545e-07
2.6113147e-09
5.8634361e-07
1.2081238e-09
5.8604885e-07
-1.9071764e-10
5.8595333e-07
-1.5912916e-09
5.8605477e-07
-2.9996102e-09
5.8635639e-07
-4.4215264e-09
5.8686704e-07
-5.862634e-09
5.8760172e-07
-7.3281523e-09
5.8858237e-07
-8.8227925e-09
5.8983929e-07
-1.0350612e-08
5.9141312e-07
-1.191487e-08
5.9335784e-07
-1.3517882e-08
5.9574541e-07
-1.5160595e-08
5.986716e-07
-1.6841893e-08
6.0226114e-07
-1.8569393e-08
6.06699e-07
-2.0420924e-08
6.1251679e-07
-2.2566576e-08
6.2143523e-07
-2.4562527e-08
6.3510577e-07
-2.3673646e-08
6.4214402e-07
-1.6166568e-08
5.9591781e-07
-4.5437767e-09
4.3089628e-07
1.4962061e-07
2.9970044e-09
1.1930576e-07
1.3995879e-08
3.7422247e-07
2.4075036e-08
5.7082503e-07
2.701484e-08
6.4913226e-07
2.5391527e-08
6.5003267e-07
2.3044457e-08
6.3296014e-07
2.1081184e-08
6.2067224e-07
1.9340307e-08
6.1319977e-07
1.7663042e-08
6.078225e-07
1.6019617e-08
6.0351561e-07
1.4410965e-08
5.9999705e-07
1.2837447e-08
5.9711519e-07
1.129786e-08
5.9475188e-07
9.790272e-09
5.9281749e-07
8.3120807e-09
5.9124515e-07
6.8600467e-09
5.8998457e-07
5.4303819e-09
5.8899789e-07
4.0188617e-09
5.8825697e-07
2.6209388e-09
5.8774153e-07
1.2318515e-09
5.8743793e-07
-1.5327463e-10
5.8733846e-07
-1.5393292e-09
5.8744082e-07
-2.9311215e-09
5.8774818e-07
-4.3332796e-09
5.882692e-07
-5.7501431e-09
5.8901858e-07
-7.1856456e-09
5.9001787e-07
-8.6431892e-09
5.9129684e-07
-1.012552e-08
5.9289545e-07
-1.1634622e-08
5.9486694e-07
-1.3171615e-08
5.9728241e-07
-1.4736354e-08
6.0023634e-07
-1.6327464e-08
6.0385225e-07
-1.7956696e-08
6.0832823e-07
-1.9708998e-08
6.1426909e-07
-2.1715829e-08
6.2344206e-07
-2.3389861e-08
6.367798e-07
-2.2022303e-08
6.4077646e-07
-1.451056e-08
5.8840606e-07
-3.8540734e-09
4.2023979e-07
1.4576653e-07
2.6717769e-09
1.16634e-07
1.2661474e-08
3.6423279e-07
2.2449825e-08
5.6103669e-07
2.582069e-08
6.457614e-07
2.458807e-08
6.5126528e-07
2.2389532e-08
6.3515868e-07
2.0499355e-08
6.2256242e-07
1.8837677e-08
6.1486145e-07
1.7242144e-08
6.0941803e-07
1.5673591e-08
6.0508416e-07
1.4131e-08
6.0153964e-07
1.2614964e-08
5.9863123e-07
1.1124811e-08
5.9624203e-07
9.6593119e-09
5.9428299e-07
8.2167257e-09
5.9268773e-07
6.7947705e-09
5.9140652e-07
5.3906693e-09
5.9040199e-07
4.0012329e-09
5.8964641e-07
2.6229578e-09
5.891198e-07
1.252127e-09
5.8880876e-07
-1.1508923e-10
5.8870567e-07
-1.4825346e-09
5.8880827e-07
-2.8539679e-09
5.8911961e-07
-4.2329609e-09
5.8964819e-07
-5.6227917e-09
5.9040841e-07
-7.026336e-09
5.9142142e-07
-8.4459573e-09
5.9271646e-07
-9.8834116e-09
5.943329e-07
-1.1339785e-08
5.9632332e-07
-1.2815431e-08
5.9875805e-07
-1.4309636e-08
6.0173055e-07
-1.5821543e-08
6.0536416e-07
-1.7367705e-08
6.098744e-07
-1.9037471e-08
6.1593886e-07
-2.0917996e-08
6.2532259e-07
-2.2297639e-08
6.3815944e-07
-2.0538478e-08
6.390173e-07
-1.310665e-08
5.8097424e-07
-3.331077e-09
4.1046422e-07
1.4243546e-07
2.4252995e-09
1.1420871e-07
1.1531657e-08
3.5512645e-07
2.0991002e-08
5.5157736e-07
2.470479e-08
6.4204762e-07
2.3832225e-08
6.5213785e-07
2.1777754e-08
6.3721315e-07
1.9949439e-08
6.2439074e-07
1.83526e-08
6.1645829e-07
1.6827207e-08
6.1094342e-07
1.5325072e-08
6.0658629e-07
1.3842524e-08
6.0302219e-07
1.2379997e-08
6.0009376e-07
1.0937048e-08
5.9768498e-07
9.5128624e-09
5.9570717e-07
8.1062851e-09
5.9409431e-07
6.715746e-09
5.9279706e-07
5.3392599e-09
5.9177848e-07
3.9744793e-09
5.9101119e-07
2.6187713e-09
5.9047551e-07
1.2693055e-09
5.9015823e-07
-7.6852816e-11
5.9005183e-07
-1.4226487e-09
5.9015406e-07
-2.7709437e-09
5.9046791e-07
-4.1244174e-09
5.9100167e-07
-5.48547e-09
5.9176946e-07
-6.8561272e-09
5.9279207e-07
-8.2379519e-09
5.9409828e-07
-9.6319817e-09
5.9572693e-07
-1.103871e-08
5.9773004e-07
-1.2458056e-08
6.001774e-07
-1.3889142e-08
6.0316163e-07
-1.5332221e-08
6.0680723e-07
-1.6808861e-08
6.1135104e-07
-1.8409784e-08
6.1753978e-07
-2.0174105e-08
6.2708691e-07
-2.1285339e-08
6.3927068e-07
-1.9208147e-08
6.3694011e-07
-1.191469e-08
5.7368078e-07
-2.9337825e-09
4.0148331e-07
1.3950167e-07
2.2321926e-09
1.1197653e-07
1.0565977e-08
3.4679269e-07
1.9676509e-08
5.4246685e-07
2.3660594e-08
6.3806354e-07
2.3119532e-08
6.5267891e-07
2.1206442e-08
6.3912624e-07
1.9432356e-08
6.2616482e-07
1.7888665e-08
6.1800198e-07
1.6423296e-08
6.1240879e-07
1.4979912e-08
6.0802968e-07
1.3551701e-08
6.044504e-07
1.2138643e-08
6.0150681e-07
1.0740326e-08
5.9908329e-07
9.3561362e-09
5.9709136e-07
7.9852938e-09
5.9546515e-07
6.6267399e-09
5.9415561e-07
5.2790954e-09
5.9312612e-07
3.940683e-09
5.923496e-07
2.6095821e-09
5.9180661e-07
1.2837006e-09
5.9148411e-07
-3.9145528e-11
5.9137468e-07
-1.3611429e-09
5.9147606e-07
-2.6844035e-09
5.9179117e-07
-4.0108683e-09
5.9232813e-07
-5.3422272e-09
5.9310082e-07
-6.6798397e-09
5.9412968e-07
-8.024671e-09
5.9544311e-07
-9.3772625e-09
5.9707952e-07
-1.0737751e-08
5.9909053e-07
-1.2105873e-08
6.0154552e-07
-1.3480881e-08
6.0453664e-07
-1.4864567e-08
6.0819092e-07
-1.6283353e-08
6.1276982e-07
-1.7826239e-08
6.1908267e-07
-1.9482275e-08
6.2874295e-07
-2.0348953e-08
6.4013736e-07
-1.8015077e-08
6.3460623e-07
-1.089881e-08
5.6656451e-07
-2.6297354e-09
3.9321423e-07
1.3687194e-07
2.0749712e-09
1.0990158e-07
9.7323256e-09
3.3913537e-07
1.8486816e-08
5.3371238e-07
2.268126e-08
6.3386911e-07
2.24452e-08
6.5291497e-07
2.0671948e-08
6.4089949e-07
1.8947359e-08
6.2788941e-07
1.7447559e-08
6.1950178e-07
1.6033571e-08
6.1382278e-07
1.4642142e-08
6.0942111e-07
1.3263025e-08
6.0582952e-07
1.1895527e-08
6.0287431e-07
1.0539133e-08
6.0043969e-07
9.1932868e-09
5.9843721e-07
7.8574271e-09
5.9680101e-07
6.5308469e-09
5.9548219e-07
5.2126191e-09
5.9444435e-07
3.9015893e-09
5.9366063e-07
2.5964086e-09
5.9311179e-07
1.2955882e-09
5.9278493e-07
-2.4348492e-12
5.926727e-07
-1.2992301e-09
5.9277286e-07
-2.5962852e-09
5.9308822e-07
-3.8949453e-09
5.9362679e-07
-5.1963385e-09
5.9440222e-07
-6.5013159e-09
5.9543466e-07
-7.8104128e-09
5.9675221e-07
-9.1238499e-09
5.9839296e-07
-1.0441586e-08
6.0040827e-07
-1.1763347e-08
6.0286728e-07
-1.3088738e-08
6.0586203e-07
-1.4421369e-08
6.0952355e-07
-1.5792065e-08
6.1414052e-07
-1.7285119e-08
6.2057572e-07
-1.8838932e-08
6.3029676e-07
-1.9482598e-08
6.4078102e-07
-1.6942772e-08
6.3206641e-07
-1.0027952e-08
5.5964969e-07
-2.3938224e-09
3.855801e-07
1.3447811e-07
1.941965e-09
1.0795963e-07
9.0055858e-09
3.3207179e-07
1.7405217e-08
5.2531279e-07
2.1760358e-08
6.2951398e-07
2.1804681e-08
6.5287065e-07
2.0170324e-08
6.4253384e-07
1.8492739e-08
6.2956699e-07
1.7029693e-08
6.2096483e-07
1.5659812e-08
6.1519266e-07
1.4314412e-08
6.1076651e-07
1.2979673e-08
6.0716426e-07
1.1654069e-08
6.0419992e-07
1.0336896e-08
6.0175686e-07
9.0275625e-09
5.9974654e-07
7.7256116e-09
5.9810296e-07
6.4305665e-09
5.9677724e-07
5.1418274e-09
5.9573309e-07
3.858639e-09
5.9494382e-07
2.580102e-09
5.9439033e-07
1.30521e-09
5.9405982e-07
3.2900014e-11
5.9394501e-07
-1.2378859e-09
5.9404364e-07
-2.508145e-09
5.9435848e-07
-3.778748e-09
5.9489739e-07
-5.0503882e-09
5.9567386e-07
-6.3235399e-09
5.9670781e-07
-7.5984434e-09
5.9802711e-07
-8.8751331e-09
5.9966965e-07
-1.0153517e-08
6.0168665e-07
-1.1433432e-08
6.041472e-07
-1.2714982e-08
6.0714358e-07
-1.4003757e-08
6.1081233e-07
-1.5334329e-08
6.1547109e-07
-1.6783518e-08
6.2202491e-07
-1.8239674e-08
6.3175291e-07
-1.8679627e-08
6.4122097e-07
-1.5975658e-08
6.2936244e-07
-9.2759958e-09
5.5295003e-07
-2.2070709e-09
3.7851118e-07
1.3227104e-07
1.8256334e-09
1.0613402e-07
8.3662734e-09
3.255312e-07
1.6417708e-08
5.172614e-07
2.0892194e-08
6.2503952e-07
2.1193951e-08
6.525689e-07
1.9697728e-08
6.4403006e-07
1.8066304e-08
6.3119842e-07
1.6634661e-08
6.2239647e-07
1.5302837e-08
6.1652449e-07
1.3998351e-08
6.1207099e-07
1.2703813e-08
6.084588e-07
1.1416736e-08
6.0548699e-07
1.0136177e-08
6.0303742e-07
8.8614542e-09
6.0102126e-07
7.5921358e-09
5.9937228e-07
6.3278834e-09
5.9804149e-07
5.0683257e-09
5.9699265e-07
3.8130045e-09
5.9619914e-07
2.5613665e-09
5.9564197e-07
1.3127845e-09
5.9530841e-07
6.6593443e-11
5.951912e-07
-1.1778664e-09
5.952881e-07
-2.4211985e-09
5.9560181e-07
-3.6639076e-09
5.961401e-07
-4.9063603e-09
5.9691631e-07
-6.1487621e-09
5.9795022e-07
-7.3911636e-09
5.9926951e-07
-8.6335124e-09
6.00912e-07
-9.8757525e-09
6.0292889e-07
-1.1117908e-08
6.0538935e-07
-1.2360685e-08
6.0838636e-07
-1.361171e-08
6.1206335e-07
-1.4908499e-08
6.1676788e-07
-1.6317944e-08
6.2343435e-07
-1.7679864e-08
6.3311483e-07
-1.7933363e-08
6.4147447e-07
-1.5099711e-08
6.2652879e-07
-8.6214282e-09
5.4647175e-07
-2.055483e-09
3.7194523e-07
1.3021556e-07
1.721257e-09
1.044128e-07
7.7993162e-09
3.1945321e-07
1.5512675e-08
5.0954809e-07
2.0071903e-08
6.2048032e-07
2.0609619e-08
6.5203118e-07
1.9250636e-08
6.4538904e-07
1.7665689e-08
6.3278336e-07
1.6261568e-08
6.2380059e-07
1.496281e-08
6.1782324e-07
1.3694851e-08
6.1333895e-07
1.2436844e-08
6.097168e-07
1.1185244e-08
6.0673859e-07
9.9388421e-09
6.0428382e-07
8.6968318e-09
6.0226327e-07
7.458756e-09
6.0061036e-07
6.2243471e-09
5.992759e-07
4.9933855e-09
5.9822361e-07
3.7656271e-09
5.974269e-07
2.5407793e-09
5.9686682e-07
1.3185053e-09
5.9653068e-07
9.8448103e-11
5.9641126e-07
-1.1197414e-09
5.9650629e-07
-2.3363653e-09
5.9681844e-07
-3.5516518e-09
5.9735539e-07
-4.7657288e-09
5.9813038e-07
-5.9786194e-09
5.9916311e-07
-7.190265e-09
6.0048116e-07
-8.400597e-09
6.0212233e-07
-9.6096513e-09
6.0413795e-07
-1.0817685e-08
6.0659738e-07
-1.2026069e-08
6.0959474e-07
-1.3244444e-08
6.1328173e-07
-1.451238e-08
6.1803581e-07
-1.5884722e-08
6.2480669e-07
-1.7155009e-08
6.3438512e-07
-1.7237542e-08
6.4155701e-07
-1.4302695e-08
6.2359394e-07
-8.0468114e-09
5.4021586e-07
-1.9289589e-09
3.6582738e-07
1.282866e-07
1.6259663e-09
1.0278687e-07
7.2930186e-09
3.1378623e-07
1.4680509e-08
5.0216067e-07
1.9295409e-08
6.1586545e-07
2.0048918e-08
6.5127768e-07
1.8825949e-08
6.4661201e-07
1.728855e-08
6.3432076e-07
1.5909246e-08
6.2517989e-07
1.4639466e-08
6.1909302e-07
1.3404281e-08
6.1457414e-07
1.2179597e-08
6.1094149e-07
1.0960739e-08
6.0795745e-07
9.7462087e-09
6.0549835e-07
8.5350648e-09
6.0347442e-07
7.3267918e-09
6.0181863e-07
6.1211449e-09
6.0048155e-07
4.9179973e-09
5.9942676e-07
3.7172534e-09
5.9862764e-07
2.5188102e-09
5.9806526e-07
1.3225483e-09
5.9772694e-07
1.2834331e-10
5.9760546e-07
-1.0639185e-09
5.9769855e-07
-2.2543141e-09
5.9800883e-07
-3.4428688e-09
5.9854394e-07
-4.6295443e-09
5.9931706e-07
-5.8142476e-09
6.0034781e-07
-6.9968708e-09
6.0166378e-07
-8.1773771e-09
6.0330284e-07
-9.3559267e-09
6.053165e-07
-1.0533032e-08
6.0777449e-07
-1.1710771e-08
6.1077248e-07
-1.2900704e-08
6.1447166e-07
-1.414352e-08
6.1927863e-07
-1.5480269e-08
6.2614344e-07
-1.6660988e-08
6.3556584e-07
-1.6586537e-08
6.4148256e-07
-1.3574163e-08
6.2058156e-07
-7.5381673e-09
5.3417987e-07
-1.8203669e-09
3.6010958e-07
1.2646623e-07
1.5380529e-09
1.0124886e-07
6.8382301e-09
3.0848614e-07
1.3913218e-08
4.9508577e-07
1.8559311e-08
6.112194e-07
1.9509646e-08
6.5032736e-07
1.8421006e-08
6.4770065e-07
1.6932671e-08
6.3580909e-07
1.557641e-08
6.2653615e-07
1.4332274e-08
6.2033716e-07
1.312665e-08
6.1577976e-07
1.1932487e-08
6.1213565e-07