/*--------------------------------*- C++ -*----------------------------------*\
  =========                 |
  \\      /  F ield         | OpenFOAM: The Open Source CFD Toolbox
   \\    /   O peration     | Website:  https://openfoam.org
    \\  /    A nd           | Version:  10
     \\/     M anipulation  |
\*---------------------------------------------------------------------------*/
FoamFile
{
    format      ascii;
    class       surfaceScalarField;
    location    "0.29";
    object      phi_0;
}
// * * * * * * * * * * * * * * * * * * * * * * * * * * * * * * * * * * * * * //

dimensions      [1 0 -1 0 0 0 0];

internalField   nonuniform List<scalar> 
7860
(
3.9895994e-08
5.2881205e-07
1.2192739e-08
5.9641106e-07
7.4279185e-09
5.7347257e-07
5.4994376e-09
5.7063619e-07
4.1150108e-09
5.7009211e-07
3.2011504e-09
5.6962152e-07
2.559147e-09
5.6934965e-07
2.0793075e-09
5.6918747e-07
1.7093036e-09
5.6907762e-07
1.4166118e-09
5.690003e-07
1.1794369e-09
5.6894477e-07
9.830161e-10
5.6890401e-07
8.1700607e-10
5.688736e-07
6.7391683e-10
5.6885067e-07
5.4817531e-10
5.6883332e-07
4.3552117e-10
5.6882023e-07
3.3260098e-10
5.6881049e-07
2.3668767e-10
5.6880348e-07
1.4547863e-10
5.6879878e-07
5.694309e-11
5.687961e-07
-3.0801454e-11
5.6879531e-07
-1.1959693e-10
5.6879636e-07
-2.1134941e-10
5.6879932e-07
-3.0813597e-10
5.6880436e-07
-4.1233701e-10
5.6881177e-07
-5.2679917e-10
5.6882204e-07
-6.5505605e-10
5.6883583e-07
-8.0164111e-10
5.6885417e-07
-9.7254824e-10
5.6887849e-07
-1.1759384e-09
5.6891098e-07
-1.4233127e-09
5.6895497e-07
-1.7314822e-09
5.6901577e-07
-2.1254248e-09
5.6910156e-07
-2.6450213e-09
5.6922722e-07
-3.3726853e-09
5.6943531e-07
-4.4639655e-09
5.6979894e-07
-6.0092586e-09
5.7025298e-07
-9.5082321e-09
5.7220669e-07
-2.9576091e-08
5.8877562e-07
5.3913184e-07
5.9672537e-08
4.6913951e-07
3.666601e-08
6.1941759e-07
2.2628187e-08
5.875104e-07
1.6253593e-08
5.7701079e-07
1.2290521e-08
5.7405518e-07
9.6062538e-09
5.7230579e-07
7.6774514e-09
5.7127845e-07
6.2360781e-09
5.7062884e-07
5.1265379e-09
5.7018716e-07
4.2487585e-09
5.6987808e-07
3.5374056e-09
5.6965613e-07
2.9483109e-09
5.6949311e-07
2.4504294e-09
5.6937148e-07
2.0212862e-09
5.6927981e-07
1.6441672e-09
5.6921044e-07
1.3062955e-09
5.691581e-07
9.9761435e-10
5.6911917e-07
7.0994586e-10
5.6909115e-07
4.3638484e-10
5.6907234e-07
1.7084025e-10
5.6906165e-07
-9.233366e-11
5.6905849e-07
-3.5865955e-10
5.6906269e-07
-6.3384888e-10
5.6907451e-07
-9.2413343e-10
5.6909464e-07
-1.2366516e-09
5.6912429e-07
-1.5799399e-09
5.6916532e-07
-1.9645949e-09
5.6922049e-07
-2.404212e-09
5.6929378e-07
-2.9167735e-09
5.6939105e-07
-3.5267711e-09
5.6952098e-07
-4.268623e-09
5.6969682e-07
-5.1926935e-09
5.6993984e-07
-6.3756061e-09
5.7028447e-07
-7.9360763e-09
5.7078769e-07
-1.0077325e-08
5.7157655e-07
-1.3205473e-08
5.7292709e-07
-1.8135283e-08
5.7518279e-07
-2.8177486e-08
5.8224889e-07
-4.5803326e-08
6.0640146e-07
4.9332852e-07
6.0008868e-08
4.0913064e-07
5.0487322e-08
6.2893914e-07
3.3370716e-08
6.04627e-07
2.4817717e-08
5.8556379e-07
1.9323282e-08
5.7954962e-07
1.5331521e-08
5.7629755e-07
1.2360722e-08
5.7424925e-07
1.0101531e-08
5.7288803e-07
8.340573e-09
5.7194812e-07
6.9347267e-09
5.7128392e-07
5.7879141e-09
5.7080294e-07
4.8333709e-09
5.7044765e-07
4.0233331e-09
5.7018151e-07
3.322816e-09
5.6998033e-07
2.7055565e-09
5.698277e-07
2.1513231e-09
5.6971233e-07
1.6440912e-09
5.696264e-07
1.1707623e-09
5.6956448e-07
7.2022998e-10
5.6952287e-07
2.8266701e-10
5.6949921e-07
-1.5105227e-10
5.6949221e-07
-5.8985781e-10
5.6950149e-07
-1.0429772e-09
5.6952763e-07
-1.5204559e-09
5.6957212e-07
-2.0337597e-09
5.6963759e-07
-2.5965345e-09
5.697281e-07
-3.225618e-09
5.6984957e-07
-3.9424504e-09
5.7001061e-07
-4.7751249e-09
5.7022373e-07
-5.7614504e-09
5.705073e-07
-6.9536109e-09
5.7088898e-07
-8.4258032e-09
5.7141204e-07
-1.0287424e-08
5.7214609e-07
-1.2700342e-08
5.7320061e-07
-1.5897713e-08
5.7477392e-07
-2.0241419e-08
5.7727079e-07
-2.6709613e-08
5.8165098e-07
-3.8949063e-08
5.9448834e-07
-4.8167985e-08
6.1562038e-07
4.4516053e-07
5.4879109e-08
3.5425153e-07
5.7452264e-08
6.2636598e-07
4.046762e-08
6.2161165e-07
3.0778816e-08
5.9525259e-07
2.4643091e-08
5.8568534e-07
1.995231e-08
5.8098833e-07
1.6312922e-08
5.7788863e-07
1.3466471e-08
5.7573448e-07
1.1200843e-08
5.7421375e-07
9.3643336e-09
5.7312043e-07
7.8490596e-09
5.7231821e-07
6.5765336e-09
5.7172018e-07
5.4889105e-09
5.7126914e-07
4.542879e-09
5.7092636e-07
3.7053456e-09
5.7066523e-07
2.9504544e-09
5.7046722e-07
2.2574896e-09
5.7031937e-07
1.6093569e-09
5.7021261e-07
9.9145295e-10
5.7014077e-07
3.9078451e-10
5.7009988e-07
-2.0475423e-10
5.7008774e-07
-8.0702194e-10
5.7010376e-07
-1.4282514e-09
5.7014886e-07
-2.0817036e-09
5.7022557e-07
-2.7824187e-09
5.7033831e-07
-3.5481437e-09
5.7049382e-07
-4.4005397e-09
5.7070197e-07
-5.3668148e-09
5.7097689e-07
-6.4820049e-09
5.7133892e-07
-7.7922335e-09
5.7181753e-07
-9.359279e-09
5.7245603e-07
-1.126696e-08
5.7331972e-07
-1.363154e-08
5.7451067e-07
-1.6614359e-08
5.7618343e-07
-2.0413185e-08
5.7857275e-07
-2.5294691e-08
5.821523e-07
-3.2518861e-08
5.8887515e-07
-4.5102417e-08
6.070719e-07
-4.6550324e-08
6.1706829e-07
3.9861021e-07
4.7965839e-08
3.0628569e-07
6.0076659e-08
6.1425516e-07
4.5400268e-08
6.3628804e-07
3.4875446e-08
6.0577741e-07
2.8399914e-08
5.9216087e-07
2.3419631e-08
5.8596861e-07
1.9434255e-08
5.8187401e-07
1.6229049e-08
5.7893969e-07
1.3619501e-08
5.7682329e-07
1.1466202e-08
5.7527373e-07
9.6640296e-09
5.7412038e-07
8.1329441e-09
5.7325126e-07
6.8119239e-09
5.7259016e-07
5.6539585e-09
5.7208433e-07
4.6222743e-09
5.7169691e-07
3.6875865e-09
5.7140191e-07
2.8260582e-09
5.711809e-07
2.0177619e-09
5.7102091e-07
1.2454947e-09
5.7091304e-07
4.93833e-10
5.7085154e-07
-2.5166002e-10
5.7083324e-07
-1.0051447e-09
5.7085725e-07
-1.7811953e-09
5.7092491e-07
-2.5955224e-09
5.710399e-07
-3.4657889e-09
5.7120858e-07
-4.4125939e-09
5.7144063e-07
-5.4607129e-09
5.7175009e-07
-6.6407068e-09
5.7215688e-07
-7.9910492e-09
5.7268926e-07
-9.5609997e-09
5.7338748e-07
-1.141438e-08
5.7430941e-07
-1.3633998e-08
5.7553934e-07
-1.6328154e-08
5.7720483e-07
-1.9640446e-08
5.7949572e-07
-2.3741133e-08
5.8267344e-07
-2.8933139e-08
5.8734431e-07
-3.6793343e-08
5.9673536e-07
-4.8465838e-08
6.1874439e-07
-4.3195416e-08
6.1179787e-07
3.5541479e-07
4.033615e-08
2.6594954e-07
5.8994301e-08
5.9559701e-07
4.8330306e-08
6.4695203e-07
3.7588256e-08
6.1651946e-07
3.0929025e-08
5.9882011e-07
2.5894083e-08
5.9100355e-07
2.1780024e-08
5.8598807e-07
1.8391997e-08
5.8232771e-07
1.5577345e-08
5.7963795e-07
1.3214022e-08
5.7763705e-07
1.120609e-08
5.7612832e-07
9.4782591e-09
5.7497909e-07
7.9713883e-09
5.7409703e-07
6.6385757e-09
5.7341714e-07
5.4421966e-09
5.7289329e-07
4.3516355e-09
5.7249247e-07
3.3415067e-09
5.7219103e-07
2.3902546e-09
5.7197216e-07
1.4790359e-09
5.7182426e-07
5.9079898e-10
5.7173978e-07
-2.9050647e-10
5.7171454e-07
-1.1806468e-09
5.7174739e-07
-2.0958074e-09
5.7184007e-07
-3.0533203e-09
5.7199741e-07
-4.0724708e-09
5.7222773e-07
-5.1754432e-09
5.725436e-07
-6.3884728e-09
5.7296312e-07
-7.7432801e-09
5.7351169e-07
-9.278869e-09
5.7422485e-07
-1.1043834e-08
5.7515245e-07
-1.3099393e-08
5.7636497e-07
-1.5522809e-08
5.7796275e-07
-1.841148e-08
5.800935e-07
-2.1889576e-08
5.8297382e-07
-2.6112878e-08
5.8689674e-07
-3.1490933e-08
5.9272236e-07
-3.9657228e-08
6.0490165e-07
-4.9174818e-08
6.2826198e-07
-3.8579781e-08
6.0120283e-07
3.1683501e-07
3.2862826e-08
2.3308671e-07
5.5250296e-08
5.7320954e-07
4.9232553e-08
6.5296977e-07
3.9061765e-08
6.2669025e-07
3.2430859e-08
6.0545101e-07
2.7518905e-08
5.9591551e-07
2.3438774e-08
5.900682e-07
2.0002891e-08
5.857636e-07
1.7094707e-08
5.8254613e-07
1.4612001e-08
5.8011976e-07
1.2470985e-08
5.7826933e-07
1.0604413e-08
5.7684566e-07
8.9580451e-09
5.757434e-07
7.4876914e-09
5.7488749e-07
6.1570249e-09
5.7422396e-07
4.9358221e-09
5.7371368e-07
3.798521e-09
5.7332833e-07
2.7230441e-09
5.7304764e-07
1.689822e-09
5.7285748e-07
6.8096275e-10
5.7274864e-07
-3.2048068e-10
5.7271598e-07
-1.3311843e-09
5.7275809e-07
-2.3682191e-09
5.728771e-07
-3.4497348e-09
5.7307893e-07
-4.5957006e-09
5.7337369e-07
-5.8287531e-09
5.7377665e-07
-7.1751929e-09
5.7430956e-07
-8.6661858e-09
5.7500268e-07
-1.0339213e-08
5.7589788e-07
-1.2239846e-08
5.7705308e-07
-1.4424137e-08
5.7854926e-07
-1.6961511e-08
5.8050013e-07
-1.9936808e-08
5.8306879e-07
-2.34508e-08
5.8648781e-07
-2.7644908e-08
5.9109085e-07
-3.3037613e-08
5.9811507e-07
-4.1013908e-08
6.1287795e-07
-4.769059e-08
6.3493866e-07
-3.3377526e-08
5.8688977e-07
2.8345748e-07
2.6189145e-08
2.0689757e-07
5.0133059e-08
5.4926562e-07
4.8493976e-08
6.5460886e-07
3.9491394e-08
6.3569283e-07
3.307773e-08
6.1186468e-07
2.8412248e-08
6.0058099e-07
2.4493051e-08
5.939874e-07
2.1118282e-08
5.8913836e-07
1.8207061e-08
5.8545735e-07
1.5680163e-08
5.8264666e-07
1.3468452e-08
5.8048104e-07
1.1514752e-08
5.7879936e-07
9.7715501e-09
5.774866e-07
8.1990592e-09
5.7645998e-07
6.7637505e-09
5.7565927e-07
5.4370823e-09
5.7504034e-07
4.1944107e-09
5.74571e-07
3.014067e-09
5.7422798e-07
1.8765598e-09
5.7399499e-07
7.6387195e-10
5.7386132e-07
-3.4117608e-10
5.7382103e-07
-1.4555219e-09
5.7387244e-07
-2.596454e-09
5.7401804e-07
-3.782215e-09
5.7426469e-07
-5.0326436e-09
5.7462412e-07
-6.36989e-09
5.751139e-07
-7.8192282e-09
5.7575889e-07
-9.410003e-09
5.7659346e-07
-1.1176738e-08
5.7766461e-07
-1.3160404e-08
5.7903675e-07
-1.541007e-08
5.8079892e-07
-1.7985016e-08
5.8307507e-07
-2.0954696e-08
5.8603847e-07
-2.4394294e-08
5.8992741e-07
-2.8439352e-08
5.951359e-07
-3.3695208e-08
6.0337092e-07
-4.1066471e-08
6.2024921e-07
-4.4800481e-08
6.3867267e-07
-2.8205952e-08
5.7029524e-07
2.5525153e-07
2.0571073e-08
1.863265e-07
4.458363e-08
5.2525307e-07
4.6643451e-08
6.5254904e-07
3.9153646e-08
6.4318264e-07
3.3084203e-08
6.1793412e-07
2.8717934e-08
6.0494726e-07
2.5038379e-08
5.9766695e-07
2.1803921e-08
5.9237282e-07
1.8959243e-08
5.8830203e-07
1.6448295e-08
5.8515761e-07
1.4217581e-08
5.8271176e-07
1.2220921e-08
5.8079602e-07
1.0418538e-08
5.7928898e-07
8.7760777e-09
5.7810244e-07
7.2637886e-09
5.7717156e-07
5.8557075e-09
5.7644842e-07
4.5289202e-09
5.7589779e-07
3.2628957e-09
5.7549401e-07
2.0388791e-09
5.7521901e-07
8.3933506e-10
5.7506087e-07
-3.5257288e-10
5.7501294e-07
-1.5534781e-09
5.7507334e-07
-2.7803083e-09
5.7524487e-07
-4.050787e-09
5.7553517e-07
-5.3839577e-09
5.7595729e-07
-6.8007502e-09
5.7653069e-07
-8.3245973e-09
5.7728274e-07
-9.9821207e-09
5.7825098e-07
-1.1803897e-08
5.7948639e-07
-1.3825252e-08
5.810581e-07
-1.6087172e-08
5.8306084e-07
-1.8637506e-08
5.8562541e-07
-2.1529355e-08
5.8893032e-07
-2.4816734e-08
5.9321479e-07
-2.8645885e-08
5.9896505e-07
-3.3664258e-08
6.083893e-07
-4.0148233e-08
6.2673318e-07
-4.1162553e-08
6.3968699e-07
-2.3418441e-08
5.5255113e-07
2.3183309e-07
1.6015671e-08
1.7031083e-07
3.9144437e-08
5.021243e-07
4.4119222e-08
6.4757425e-07
3.8290248e-08
6.4901161e-07
3.2654414e-08
6.2356995e-07
2.8592026e-08
6.0900964e-07
2.5183936e-08
6.0107504e-07
2.2136183e-08
5.9542058e-07
1.9404878e-08
5.9103333e-07
1.6953964e-08
5.8760852e-07
1.4744468e-08
5.8492125e-07
1.2740794e-08
5.827997e-07
1.0911033e-08
5.8111874e-07
9.2266646e-09
5.7978681e-07
7.6622196e-09
5.78736e-07
6.1948533e-09
5.7791579e-07
4.8039226e-09
5.7728872e-07
3.4705574e-09
5.7682737e-07
2.1772402e-09
5.7651232e-07
9.07397e-10
5.7633071e-07
-3.5499906e-10
5.7627534e-07
-1.6258148e-09
5.7634416e-07
-2.9211489e-09
5.765402e-07
-4.257722e-09
5.7687174e-07
-5.6532767e-09
5.7735284e-07
-7.1269921e-09
5.7800441e-07
-8.6999105e-09
5.7885566e-07
-1.0395377e-08
5.7994645e-07
-1.2239493e-08
5.813305e-07
-1.4261541e-08
5.8308015e-07
-1.6494342e-08
5.8529364e-07
-1.8974645e-08
5.8810571e-07
-2.1740586e-08
5.9169626e-07
-2.4832639e-08
5.9630684e-07
-2.8419726e-08
6.0255214e-07
-3.3129136e-08
6.130987e-07
-3.855412e-08
6.3215817e-07
-3.7219304e-08
6.3835218e-07
-1.9184399e-08
5.3451622e-07
2.1264869e-07
1.2423978e-08
1.5788685e-07
3.4114581e-08
4.804337e-07
4.1250503e-08
6.4043833e-07
3.7079361e-08
6.5318275e-07
3.1942503e-08
6.2870681e-07
2.8169255e-08
6.1278289e-07
2.5033359e-08
6.0421094e-07
2.219232e-08
5.9826161e-07
1.960107e-08
5.9362458e-07
1.7239026e-08
5.8997056e-07
1.5079557e-08
5.8708072e-07
1.3096352e-08
5.847829e-07
1.1264778e-08
5.8295032e-07
9.5619806e-09
5.8148961e-07
7.9668464e-09
5.8033114e-07
6.4598659e-09
5.7942277e-07
5.0229574e-09
5.7872562e-07
3.639239e-09
5.7821109e-07
2.2927726e-09
5.7785879e-07
9.6829351e-10
5.7765519e-07
-3.4906628e-10
5.775927e-07
-1.6740572e-09
5.7766915e-07
-3.0215982e-09
5.7788774e-07
-4.4070573e-09
5.782572e-07
-5.8465302e-09
5.7879232e-07
-7.3571138e-09
5.7951499e-07
-8.9571659e-09
5.8045571e-07
-1.0666537e-08
5.8165582e-07
-1.250678e-08
5.8317075e-07
-1.4501311e-08
5.8507468e-07
-1.6675441e-08
5.8746777e-07
-1.9056057e-08
5.9048632e-07
-2.1668648e-08
5.9430885e-07
-2.4547412e-08
5.991856e-07
-2.7886948e-08
6.0589168e-07
-3.2232535e-08
6.1744429e-07
-3.6526271e-08
6.364519e-07
-3.3272012e-08
6.3509792e-07
-1.5565514e-08
5.1680972e-07
1.9708318e-07
9.6573773e-09
1.4822947e-07
2.9646376e-08
4.604447e-07
3.8283949e-08
6.3180075e-07
3.5659158e-08
6.5580754e-07
3.1059653e-08
6.3330632e-07
2.7553992e-08
6.1628855e-07
2.4673222e-08
6.0709171e-07
2.2041111e-08
6.0089373e-07
1.9601692e-08
5.96064e-07
1.7344996e-08
5.9222726e-07
1.5254412e-08
5.891713e-07
1.3311359e-08
5.8672595e-07
1.1497505e-08
5.8476417e-07
9.7951269e-09
5.8319199e-07
8.1872216e-09
5.8193904e-07
6.6575701e-09
5.8095242e-07
5.1907294e-09
5.8019246e-07
3.7719572e-09
5.7962986e-07
2.3870914e-09
5.7924365e-07
1.0223984e-09
5.7901988e-07
-3.3559669e-10
5.7895069e-07
-1.7002897e-09
5.7903384e-07
-3.0851851e-09
5.7927264e-07
-4.504076e-09
5.7967609e-07
-5.9712144e-09
5.8025946e-07
-7.5014636e-09
5.8104524e-07
-9.1104207e-09
5.8206467e-07
-1.0814493e-08
5.8335989e-07
-1.2630928e-08
5.8498718e-07
-1.4577804e-08
5.8702155e-07
-1.6673858e-08
5.8956383e-07
-1.8937564e-08
5.9275003e-07
-2.1384427e-08
5.9675572e-07
-2.4048587e-08
6.0184976e-07
-2.7146424e-08
6.0898951e-07
-3.1092621e-08
6.2139049e-07
-3.4268824e-08
6.3962811e-07
-2.9525831e-08
6.3035493e-07
-1.2557151e-08
4.9984104e-07
1.8452602e-07
7.567046e-09
1.4066243e-07
2.5787486e-08
4.4222426e-07
3.5390423e-08
6.2219782e-07
3.4139499e-08
6.5705847e-07
3.008886e-08
6.3735695e-07
2.682623e-08
6.1955118e-07
2.4173211e-08
6.0974472e-07
2.1740337e-08
6.033266e-07
1.9454028e-08
5.9835031e-07
1.7309934e-08
5.9437135e-07
1.5299177e-08
5.9118206e-07
1.3409377e-08
5.8861575e-07
1.162742e-08
5.8654613e-07
9.9399919e-09
5.8487941e-07
8.3337785e-09
5.8354525e-07
6.7956271e-09
5.8249057e-07
5.3126495e-09
5.8167544e-07
3.8722541e-09
5.8107026e-07
2.4621268e-09
5.8065378e-07
1.070175e-09
5.8041183e-07
-3.155534e-10
5.8033642e-07
-1.7069635e-09
5.8042525e-07
-3.1160162e-09
5.8068169e-07
-4.5548212e-09
5.8111489e-07
-6.0357168e-09
5.8174035e-07
-7.5713244e-09
5.8258085e-07
-9.1745675e-09
5.8366791e-07
-1.0858637e-08
5.8504396e-07
-1.2636901e-08
5.8676544e-07
-1.4522785e-08
5.8890744e-07
-1.6529473e-08
5.9157052e-07
-1.8668557e-08
5.9488911e-07
-2.0948541e-08
5.990357e-07
-2.3408616e-08
6.0430984e-07
-2.6278526e-08
6.1185942e-07
-2.9810466e-08
6.2492243e-07
-3.1943434e-08
6.4176107e-07
-2.6103117e-08
6.2451461e-07
-1.011267e-08
4.8385059e-07
1.7441335e-07
6.0124115e-09
1.3465002e-07
2.2516132e-08
4.2572054e-07
3.2671786e-08
6.1204216e-07
3.2600828e-08
6.5712943e-07
2.9090219e-08
6.4086756e-07
2.6046142e-08
6.2259526e-07
2.3588664e-08
6.122022e-07
2.1337578e-08
6.0557768e-07
1.9198272e-08
6.0048962e-07
1.7167284e-08
5.9640234e-07
1.5241239e-08
5.9310811e-07
1.3412508e-08
5.9044448e-07
1.1672105e-08
5.8828653e-07
1.0010361e-08
5.8654116e-07
8.41713e-09
5.8513849e-07
6.8819991e-09
5.840257e-07
5.394445e-09
5.83163e-07
3.9439343e-09
5.8252077e-07
2.5199755e-09
5.8207774e-07
1.1121343e-09
5.8181968e-07
-2.8997744e-10
5.8173853e-07
-1.6967261e-09
5.81832e-07
-3.1184892e-09
5.8210345e-07
-4.5656782e-09
5.8256208e-07
-6.048747e-09
5.8322342e-07
-7.5781731e-09
5.8411027e-07
-9.1644013e-09
5.8525414e-07
-1.0817739e-08
5.866973e-07
-1.2548196e-08
5.884959e-07
-1.4365312e-08
5.9072455e-07
-1.627777e-08
5.9348297e-07
-1.8291867e-08
5.9690321e-07
-2.0412186e-08
6.0115602e-07
-2.2686529e-08
6.0658418e-07
-2.534686e-08
6.1451976e-07
-2.8466676e-08
6.2804224e-07
-2.9664309e-08
6.4295871e-07
-2.3059145e-08
6.1790944e-07
-8.1636268e-09
4.6895508e-07
1.6624973e-07
4.8707706e-09
1.2977925e-07
1.9773767e-08
4.1081755e-07
3.0176314e-08
6.0163962e-07
3.1095496e-08
6.5621024e-07
2.8103232e-08
6.4385983e-07
2.5256027e-08
6.2544247e-07
2.2961714e-08
6.1449652e-07
2.0870891e-08
6.0766851e-07
1.8867705e-08
6.024928e-07
1.6945607e-08
5.9832444e-07
1.5104671e-08
5.9494904e-07
1.3340711e-08
5.9220844e-07
1.1647851e-08
5.8997939e-07
1.0019303e-08
5.8816971e-07
8.4475477e-09
5.8671024e-07
6.9245325e-09
5.8554872e-07
5.4418451e-09
5.8464568e-07
3.9908485e-09
5.8397176e-07
2.5627773e-09
5.8350581e-07
1.1488014e-09
5.8323365e-07
-2.5993278e-10
5.8314726e-07
-1.6722756e-09
5.8324434e-07
-3.0970525e-09
5.8352823e-07
-4.5430343e-09
5.8400806e-07
-6.0188933e-09
5.8469928e-07
-7.5331322e-09
5.8562451e-07
-9.093982e-09
5.8681499e-07
-1.0709258e-08
5.8831257e-07
-1.2386177e-08
5.9017282e-07
-1.4131168e-08
5.9246954e-07
-1.594945e-08
5.9530126e-07
-1.7843549e-08
5.9879731e-07
-1.9816936e-08
6.0312941e-07
-2.1927762e-08
6.08695e-07
-2.4398179e-08
6.1699017e-07
-2.7120013e-08
6.3076408e-07
-2.7503567e-08
6.4334226e-07
-2.0403292e-08
6.1080917e-07
-6.6343752e-09
4.5518616e-07
1.5961535e-07
4.0397642e-09
1.2573949e-07
1.7487915e-08
3.9736941e-07
2.7917973e-08
5.9120957e-07
2.9654141e-08
6.5447408e-07
2.7151111e-08
6.4636286e-07
2.4483082e-08
6.2811049e-07
2.2322511e-08
6.1665709e-07
2.0369356e-08
6.0962166e-07
1.8488903e-08
6.0437326e-07
1.6668537e-08
6.001448e-07
1.4910008e-08
5.9670757e-07
1.3211465e-08
5.9390699e-07
1.1569256e-08
5.916216e-07
9.9787756e-09
5.8976019e-07
8.4346037e-09
5.8825441e-07
6.9306551e-09
5.8705267e-07
5.4603438e-09
5.8611599e-07
4.0167259e-09
5.8541538e-07
2.5926179e-09
5.8492992e-07
1.1806896e-09
5.8464558e-07
-2.264609e-10
5.8455441e-07
-1.6362433e-09
5.8465412e-07
-3.056016e-09
5.84948e-07
-4.4930189e-09
5.8544507e-07
-5.9542944e-09
5.8616055e-07
-7.4465857e-09
5.871168e-07
-8.9762095e-09
5.8834461e-07
-1.0548902e-08
5.8988527e-07
-1.2169644e-08
5.9179356e-07
-1.3842488e-08
5.9414239e-07
-1.5570119e-08
5.9702889e-07
-1.7352658e-08
6.0057985e-07
-1.9194774e-08
6.0497152e-07
-2.1165057e-08
6.1066529e-07
-2.3464493e-08
6.1928961e-07
-2.5810251e-08
6.3310984e-07
-2.5500985e-08
6.4303299e-07
-1.8117039e-08
6.0342522e-07
-5.4505444e-09
4.4251966e-07
1.5416481e-07
3.4367168e-09
1.2230278e-07
1.5584767e-08
3.8522137e-07
2.5890153e-08
5.8090419e-07
2.829219e-08
6.5207204e-07
2.6245734e-08
6.4840931e-07
2.3743207e-08
6.3061302e-07
2.1691375e-08
6.1870892e-07
1.98542e-08
6.1145884e-07
1.808229e-08
6.0614517e-07
1.6354986e-08
6.0187211e-07
1.4674233e-08
5.9838832e-07
1.3039627e-08
5.9554159e-07
1.1449023e-08
5.932122e-07
9.8993972e-09
5.9130981e-07
8.3869447e-09
5.8976686e-07
6.9071734e-09
5.8853244e-07
5.455034e-09
5.8756813e-07
4.025054e-09
5.8684536e-07
2.6114596e-09
5.8634351e-07
1.2082826e-09
5.8604876e-07
-1.905453e-10
5.8595324e-07
-1.5911062e-09
5.8605468e-07
-2.9994124e-09
5.8635631e-07
-4.4213168e-09
5.8686697e-07
-5.8624136e-09
5.8760165e-07
-7.3279221e-09
5.8858231e-07
-8.8225536e-09
5.8983924e-07
-1.0350366e-08
5.9141308e-07
-1.1914617e-08
5.9335781e-07
-1.3517625e-08
5.957454e-07
-1.5160335e-08
5.986716e-07
-1.6841632e-08
6.0226115e-07
-1.8569132e-08
6.0669902e-07
-2.0420664e-08
6.1251682e-07
-2.2566315e-08
6.2143526e-07
-2.4562267e-08
6.3510579e-07
-2.3673416e-08
6.4214414e-07
-1.6166416e-08
5.9591822e-07
-4.5437241e-09
4.3089697e-07
1.4962108e-07
2.9969978e-09
1.1930579e-07
1.3995858e-08
3.7422252e-07
2.4075004e-08
5.7082505e-07
2.7014809e-08
6.4913224e-07
2.5391502e-08
6.5003262e-07
2.3044439e-08
6.3296008e-07
2.1081175e-08
6.2067218e-07
1.9340308e-08
6.131997e-07
1.7663054e-08
6.0782242e-07
1.601964e-08
6.0351552e-07
1.4411001e-08
5.9999696e-07
1.2837496e-08
5.971151e-07
1.1297924e-08
5.9475177e-07
9.7903503e-09
5.9281739e-07
8.3121744e-09
5.9124504e-07
6.8601561e-09
5.8998446e-07
5.4305073e-09
5.8899778e-07
4.0190031e-09
5.8825686e-07
2.6210962e-09
5.8774142e-07
1.2320245e-09
5.8743783e-07
-1.5308617e-10
5.8733835e-07
-1.5391258e-09
5.8744072e-07
-2.9309039e-09
5.8774808e-07
-4.3330486e-09
5.8826911e-07
-5.7498996e-09
5.890185e-07
-7.1853907e-09
5.900178e-07
-8.6429242e-09
5.9129678e-07
-1.0125246e-08
5.928954e-07
-1.1634341e-08
5.9486691e-07
-1.3171328e-08
5.9728238e-07
-1.4736064e-08
6.0023633e-07
-1.6327171e-08
6.0385225e-07
-1.7956403e-08
6.0832825e-07
-1.9708705e-08
6.1426912e-07
-2.1715533e-08
6.2344209e-07
-2.3389569e-08
6.3677982e-07
-2.2022047e-08
6.4077662e-07
-1.4510392e-08
5.8840657e-07
-3.8540162e-09
4.202406e-07
1.4576707e-07
2.671769e-09
1.1663403e-07
1.2661448e-08
3.6423286e-07
2.2449786e-08
5.6103672e-07
2.5820648e-08
6.4576138e-07
2.4588035e-08
6.5126523e-07
2.2389506e-08
6.3515861e-07
2.0499338e-08
6.2256235e-07
1.8837672e-08
6.1486137e-07
1.724215e-08
6.0941794e-07
1.5673611e-08
6.0508406e-07
1.4131033e-08
6.0153954e-07
1.2615013e-08
5.9863112e-07
1.1124875e-08
5.9624191e-07
9.6593933e-09
5.9428287e-07
8.2168243e-09
5.9268761e-07
6.7948868e-09
5.9140639e-07
5.3908036e-09
5.9040187e-07
4.0013853e-09
5.8964628e-07
2.6231282e-09
5.8911968e-07
1.2523152e-09
5.8880864e-07
-1.1488357e-10
5.8870555e-07
-1.482312e-09
5.8880815e-07
-2.8537292e-09
5.891195e-07
-4.2327067e-09
5.8964809e-07
-5.6225233e-09
5.9040832e-07
-7.0260545e-09
5.9142133e-07
-8.4456641e-09
5.9271639e-07
-9.8831081e-09
5.9433284e-07
-1.1339473e-08
5.9632327e-07
-1.2815112e-08
5.9875802e-07
-1.4309312e-08
6.0173053e-07
-1.5821216e-08
6.0536416e-07
-1.7367377e-08
6.0987441e-07
-1.9037142e-08
6.1593888e-07
-2.0917663e-08
6.2532261e-07
-2.2297312e-08
6.3815947e-07
-2.0538195e-08
6.390175e-07
-1.3106466e-08
5.8097484e-07
-3.3310148e-09
4.1046514e-07
1.4243605e-07
2.4252902e-09
1.1420875e-07
1.1531626e-08
3.5512655e-07
2.0990953e-08
5.5157741e-07
2.4704736e-08
6.420476e-07
2.3832179e-08
6.5213779e-07
2.1777718e-08
6.3721307e-07
1.9949414e-08
6.2439065e-07
1.8352587e-08
6.164582e-07
1.6827207e-08
6.1094332e-07
1.5325087e-08
6.0658618e-07
1.3842555e-08
6.0302207e-07
1.2380044e-08
6.0009363e-07
1.0937113e-08
5.9768484e-07
9.5129466e-09
5.9570703e-07
8.1063886e-09
5.9409417e-07
6.7158693e-09
5.9279691e-07
5.3394035e-09
5.9177833e-07
3.9746432e-09
5.9101104e-07
2.6189555e-09
5.9047536e-07
1.2695098e-09
5.9015809e-07
-7.6628833e-11
5.9005169e-07
-1.4224055e-09
5.9015393e-07
-2.7706822e-09
5.9046778e-07
-4.1241383e-09
5.9100155e-07
-5.4851747e-09
5.9176935e-07
-6.8558168e-09
5.9279197e-07
-8.2376279e-09
5.940982e-07
-9.6316458e-09
5.9572686e-07
-1.1038364e-08
5.9772999e-07
-1.2457702e-08
6.0017736e-07
-1.3888782e-08
6.0316161e-07
-1.5331857e-08
6.0680723e-07
-1.6808494e-08
6.1135105e-07
-1.8409414e-08
6.175398e-07
-2.0173731e-08
6.2708692e-07
-2.1284973e-08
6.3927072e-07
-1.9207833e-08
6.3694036e-07
-1.1914489e-08
5.7368149e-07
-2.9337148e-09
4.0148437e-07
1.3950234e-07
2.2321817e-09
1.1197659e-07
1.056594e-08
3.4679282e-07
1.9676449e-08
5.4246693e-07
2.3660527e-08
6.3806353e-07
2.3119472e-08
6.5267884e-07
2.1206394e-08
6.3912615e-07
1.943232e-08
6.2616472e-07
1.7888643e-08
6.1800187e-07
1.6423289e-08
6.1240867e-07
1.4979921e-08
6.0802955e-07
1.3551728e-08
6.0445026e-07
1.2138689e-08
6.0150667e-07
1.0740391e-08
5.9908314e-07
9.3562226e-09
5.970912e-07
7.9854019e-09
5.9546499e-07
6.6268703e-09
5.9415544e-07
5.2792484e-09
5.9312595e-07
3.9408588e-09
5.9234943e-07
2.6097808e-09
5.9180644e-07
1.283922e-09
5.9148394e-07
-3.8902076e-11
5.9137451e-07
-1.3608776e-09
5.914759e-07
-2.6841174e-09
5.9179102e-07
-4.0105624e-09
5.9232799e-07
-5.3419027e-09
5.9310069e-07
-6.679498e-09
5.9412957e-07
-8.0243136e-09
5.9544301e-07
-9.3768912e-09
5.9707944e-07
-1.0737368e-08
5.9909047e-07
-1.210548e-08
6.0154547e-07
-1.348048e-08
6.0453661e-07
-1.4864162e-08
6.0819091e-07
-1.6282944e-08
6.1276983e-07
-1.7825825e-08
6.1908268e-07
-1.9481856e-08
6.2874296e-07
-2.0348545e-08
6.401374e-07
-1.801473e-08
6.3460655e-07
-1.089859e-08
5.6656535e-07
-2.6296619e-09
3.9321544e-07
1.3687267e-07
2.0749584e-09
1.0990165e-07
9.732282e-09
3.3913553e-07
1.8486744e-08
5.3371249e-07
2.2681179e-08
6.3386911e-07
2.2445125e-08
6.529149e-07
2.0671885e-08
6.4089939e-07
1.894731e-08
6.278893e-07
1.7447526e-08
6.1950166e-07
1.6033554e-08
6.1382265e-07
1.4642143e-08
6.0942096e-07
1.3263046e-08
6.0582936e-07
1.1895569e-08
6.0287414e-07
1.0539197e-08
6.0043951e-07
9.1933751e-09
5.9843702e-07
7.8575396e-09
5.9680082e-07
6.5309844e-09
5.95482e-07
5.2127819e-09
5.9444416e-07
3.9017777e-09
5.9366044e-07
2.5966227e-09
5.931116e-07
1.2958278e-09
5.9278474e-07
-2.1699355e-12
5.9267251e-07
-1.298941e-09
5.9277267e-07
-2.5959728e-09
5.9308805e-07
-3.8946104e-09
5.9362663e-07
-5.1959825e-09
5.9440207e-07
-6.5009402e-09
5.9543453e-07
-7.8100192e-09
5.9675209e-07
-9.1234403e-09
5.9839286e-07
-1.0441163e-08
6.0040819e-07
-1.1762912e-08
6.0286722e-07
-1.3088294e-08
6.0586199e-07
-1.4420918e-08
6.0952354e-07
-1.5791609e-08
6.1414052e-07
-1.7284656e-08
6.2057573e-07
-1.8838464e-08
6.3029676e-07
-1.9482144e-08
6.4078108e-07
-1.694239e-08
6.3206679e-07
-1.0027712e-08
5.5965068e-07
-2.3937426e-09
3.8558147e-07
1.3447893e-07
1.9419503e-09
1.0795972e-07
9.0055348e-09
3.3207199e-07
1.7405132e-08
5.2531293e-07
2.1760259e-08
6.29514e-07
2.1804588e-08
6.5287057e-07
2.0170245e-08
6.4253373e-07
1.8492675e-08
6.2956687e-07
1.7029647e-08
6.2096469e-07
1.5659784e-08
6.1519251e-07
1.4314404e-08
6.1076634e-07
1.2979688e-08
6.0716408e-07
1.1654107e-08
6.0419972e-07
1.0336959e-08
6.0175666e-07
9.0276519e-09
5.9974633e-07
7.725728e-09
5.9810275e-07
6.4307108e-09
5.9677702e-07
5.142e-09
5.9573287e-07
3.8588403e-09
5.949436e-07
2.580332e-09
5.9439011e-07
1.3054684e-09
5.940596e-07
3.3186511e-11
5.9394479e-07
-1.2375719e-09
5.9404343e-07
-2.5078044e-09
5.9435828e-07
-3.778382e-09
5.9489721e-07
-5.0499982e-09
5.9567368e-07
-6.3231277e-09
5.9670766e-07
-7.5980106e-09
5.9802697e-07
-8.8746819e-09
5.9966953e-07
-1.015305e-08
6.0168656e-07
-1.1432951e-08
6.0414712e-07
-1.2714489e-08
6.0714353e-07
-1.4003256e-08
6.108123e-07
-1.5333821e-08
6.1547109e-07
-1.6783003e-08
6.2202491e-07
-1.8239152e-08
6.3175291e-07
-1.8679123e-08
6.4122106e-07
-1.5975237e-08
6.2936291e-07
-9.2757336e-09
5.5295117e-07
-2.2069844e-09
3.7851272e-07
1.3227195e-07
1.8256166e-09
1.0613413e-07
8.3662142e-09
3.2553144e-07
1.6417607e-08
5.1726159e-07
2.0892075e-08
6.2503955e-07
2.1193838e-08
6.5256881e-07
1.9697629e-08
6.4402993e-07
1.8066223e-08
6.3119827e-07
1.66346e-08
6.2239631e-07
1.5302796e-08
6.1652431e-07
1.3998333e-08
6.120708e-07
1.270382e-08
6.0845859e-07
1.1416768e-08
6.0548678e-07
1.0136237e-08
6.0303719e-07
8.8615439e-09
6.0102102e-07
7.5922556e-09
5.9937203e-07
6.3280343e-09
5.9804124e-07
5.0685082e-09
5.9699239e-07
3.8132189e-09
5.9619888e-07
2.561613e-09
5.9564171e-07
1.3130629e-09
5.9530815e-07
6.6903438e-11
5.9519095e-07
-1.1775257e-09
5.9528786e-07
-2.4208278e-09
5.9560158e-07
-3.6635083e-09
5.9613989e-07
-4.9059339e-09
5.9691611e-07
-6.1483103e-09
5.9795003e-07
-7.3906885e-09
5.9926935e-07
-8.6330161e-09
6.0091186e-07
-9.8752376e-09
6.0292878e-07
-1.1117377e-08
6.0538926e-07
-1.2360141e-08
6.083863e-07
-1.3611156e-08
6.1206332e-07
-1.4907936e-08
6.1676787e-07
-1.6317369e-08
6.2343435e-07
-1.7679282e-08
6.3311482e-07
-1.7932805e-08
6.4147458e-07
-1.5099248e-08
6.2652935e-07
-8.6211422e-09
5.4647307e-07
-2.0553893e-09
3.7194697e-07
1.3021656e-07
1.7212378e-09
1.0441292e-07
7.7992478e-09
3.194535e-07
1.5512558e-08
5.0954833e-07
2.0071762e-08
6.2048038e-07
2.0609481e-08
6.520311e-07
1.9250516e-08
6.453889e-07
1.7665589e-08
6.327832e-07
1.6261489e-08
6.2380041e-07
1.4962754e-08
6.1782305e-07
1.369482e-08
6.1333873e-07
1.2436841e-08
6.0971657e-07
1.118527e-08
6.0673835e-07
9.9388986e-09
6.0428356e-07
8.6969207e-09
6.02263e-07
7.4588784e-09
6.0061008e-07
6.224504e-09
5.9927561e-07
4.9935776e-09
5.9822332e-07
3.7658549e-09
5.9742661e-07
2.5410429e-09
5.9686652e-07
1.3188046e-09
5.9653039e-07
9.878264e-11
5.9641097e-07
-1.1193723e-09
5.9650602e-07
-2.3359628e-09
5.9681817e-07
-3.551217e-09
5.9735514e-07
-4.7652634e-09
5.9813015e-07
-5.9781253e-09
5.9916289e-07
-7.1897443e-09
6.0048097e-07
-8.4000521e-09
6.0212217e-07
-9.6090849e-09
6.0413781e-07
-1.0817099e-08
6.0659727e-07
-1.2025468e-08
6.0959467e-07
-1.3243831e-08
6.1328168e-07
-1.4511754e-08
6.1803579e-07
-1.5884083e-08
6.2480668e-07
-1.7154363e-08
6.343851e-07
-1.7236925e-08
6.4155714e-07
-1.4302187e-08
6.2359461e-07
-8.0464998e-09
5.4021738e-07
-1.9288576e-09
3.6582933e-07
1.282877e-07
1.6259445e-09
1.0278702e-07
7.2929402e-09
3.1378658e-07
1.4680372e-08
5.0216097e-07
1.9295243e-08
6.1586554e-07
2.0048753e-08
6.5127759e-07
1.8825803e-08
6.4661185e-07
1.7288427e-08
6.3432057e-07
1.5909146e-08
6.2517969e-07
1.4639392e-08
6.190928e-07
1.3404235e-08
6.1457389e-07
1.2179581e-08
6.1094122e-07
1.0960755e-08
6.0795717e-07
9.7462595e-09
6.0549806e-07
8.5351515e-09
6.0347411e-07
7.3269158e-09
6.0181831e-07
6.1213073e-09
6.0048122e-07
4.9181989e-09
5.9942643e-07
3.7174946e-09
5.9862731e-07
2.5190913e-09
5.9806493e-07
1.3228692e-09
5.9772661e-07
1.2870354e-10
5.9760514e-07
-1.0635196e-09
5.9769824e-07
-2.2538776e-09
5.9800853e-07
-3.4423962e-09
5.9854366e-07
-4.6290371e-09
5.9931679e-07
-5.813708e-09
6.0034756e-07
-6.9963011e-09
6.0166356e-07
-8.1767797e-09
6.0330264e-07
-9.3553044e-09
6.0531633e-07
-1.0532389e-08
6.0777436e-07
-1.1710109e-08
6.1077238e-07
-1.2900026e-08
6.144716e-07
-1.4142828e-08
6.1927859e-07
-1.5479561e-08
6.2614341e-07
-1.6660271e-08
6.3556581e-07
-1.6585855e-08
6.4148272e-07
-1.3573606e-08
6.2058236e-07
-7.5378282e-09
5.341816e-07
-1.8202574e-09
3.6011176e-07
1.2646744e-07
1.5380282e-09
1.0124903e-07
6.8381405e-09
3.0848656e-07
1.3913061e-08
4.9508614e-07
1.8559117e-08
6.1121954e-07
1.950945e-08
6.5032727e-07
1.842083e-08
6.4770046e-07
1.6932521e-08
6.3580888e-07
1.5576286e-08
6.2653592e-07
1.4332179e-08
6.2033691e-07
1.3126586e-08
6.1577949e-07