/*--------------------------------*- C++ -*----------------------------------*\
  =========                 |
  \\      /  F ield         | OpenFOAM: The Open Source CFD Toolbox
   \\    /   O peration     | Website:  https://openfoam.org
    \\  /    A nd           | Version:  10
     \\/     M anipulation  |
\*---------------------------------------------------------------------------*/
FoamFile
{
    format      ascii;
    class       volScalarField;
    location    "0.29";
    object      T;
}
// * * * * * * * * * * * * * * * * * * * * * * * * * * * * * * * * * * * * * //

dimensions      [0 0 0 1 0 0 0];

internalField   nonuniform List<scalar> 
4000
(
303.10135
299.3429
299.99042
300.00082
299.99993
300
300
300
300
300
300
300
300
300
300
300
300
300
300
300
300
300
300
300
300
300
300
300
300
300
300
300
300
300
300
300
300
300
300
300
309.66347
298.49296
299.77921
300.00184
300.0008
299.99999
300
300
300
300
300
300
300
300
300
300
300
300
300
300
300
300
300
300
300
300
300
300
300
300
300
300
300
300
300
300
300
300
300
300
316.00432
298.68457
299.39219
299.9757
300.00406
300.00025
299.99999
300
300
300
300
300
300
300
300
300
300
300
300
300
300
300
300
300
300
300
300
300
300
300
300
300
300
300
300
300
300
300
300
300
321.74242
299.84596
298.98477
299.89491
300.00716
300.00139
300
299.99999
300
300
300
300
300
300
300
300
300
300
300
300
300
300
300
300
300
300
300
300
300
300
300
300
300
300
300
300
300
300
300
300
326.67132
301.7006
298.70996
299.75311
300.00323
300.00379
300.00017
299.99998
300
300
300
300
300
300
300
300
300
300
300
300
300
300
300
300
300
300
300
300
300
300
300
300
300
300
300
300
300
300
300
300
330.68537
303.94824
298.66324
299.56827
299.98427
300.00697
300.00072
299.99997
299.99999
300
300
300
300
300
300
300
300
300
300
300
300
300
300
300
300
300
300
300
300
300
300
300
300
300
300
300
300
300
300
300
333.77481
306.33115
298.87089
299.37364
299.94516
300.00939
300.00181
300
299.99998
300
300
300
300
300
300
300
300
300
300
300
300
300
300
300
300
300
300
300
300
300
300
300
300
300
300
300
300
300
300
300
336.02239
308.6648
299.30783
299.20375
299.88577
300.00891
300.00346
300.00014
299.99997
300
300
300
300
300
300
300
300
300
300
300
300
300
300
300
300
300
300
300
300
300
300
300
300
300
300
300
300
300
300
300
337.57467
310.83835
299.92433
299.08453
299.81046
300.00352
300.00542
300.00046
299.99996
299.99999
300
300
300
300
300
300
300
300
300
300
300
300
300
300
300
300
300
300
300
300
300
300
300
300
300
300
300
300
300
300
338.603
312.79906
300.66584
299.03047
299.72627
299.99192
300.00725
300.001
299.99996
299.99998
300
300
300
300
300
300
300
300
300
300
300
300
300
300
300
300
300
300
300
300
300
300
300
300
300
300
300
300
300
300
339.2701
314.53404
301.48375
299.04598
299.64095
299.97368
300.00841
300.00176
300.00001
299.99997
300
300
300
300
300
300
300
300
300
300
300
300
300
300
300
300
300
300
300
300
300
300
300
300
300
300
300
300
300
300
339.70928
316.05457
302.33969
299.12839
299.5615
299.94924
300.00835
300.00269
300.00012
299.99996
300
300
300
300
300
300
300
300
300
300
300
300
300
300
300
300
300
300
300
300
300
300
300
300
300
300
300
300
300
300
340.01717
317.38409
303.20602
299.27102
299.49354
299.91971
300.00662
300.00368
300.0003
299.99996
299.99999
300
300
300
300
300
300
300
300
300
300
300
300
300
300
300
300
300
300
300
300
300
300
300
300
300
300
300
300
300
340.25642
318.55011
304.06435
299.46547
299.441
299.88652
300.00294
300.00462
300.00057
299.99996
299.99999
300
300
300
300
300
300
300
300
300
300
300
300
300
300
300
300
300
300
300
300
300
300
300
300
300
300
300
300
300
340.4635
319.57946
304.90334
299.70321
299.40636
299.85129
299.99715
300.00536
300.0009
299.99998
299.99998
300
300
300
300
300
300
300
300
300
300
300
300
300
300
300
300
300
300
300
300
300
300
300
300
300
300
300
300
300
340.65716
320.49601
305.71662
299.9763
299.39087
299.81561
299.98928
300.00575
300.0013
300.00003
299.99998
300
300
300
300
300
300
300
300
300
300
300
300
300
300
300
300
300
300
300
300
300
300
300
300
300
300
300
300
300
340.84544
321.31979
306.50112
300.27782
299.39488
299.78094
299.97945
300.00568
300.00174
300.0001
299.99997
300
300
300
300
300
300
300
300
300
300
300
300
300
300
300
300
300
300
300
300
300
300
300
300
300
300
300
300
300
341.03066
322.06703
307.25581
300.60188
299.41813
299.74857
299.96791
300.00505
300.00218
300.00019
299.99997
299.99999
300
300
300
300
300
300
300
300
300
300
300
300
300
300
300
300
300
300
300
300
300
300
300
300
300
300
300
300
341.21248
322.75056
307.98086
300.94357
299.45995
299.7196
299.95494
300.00378
300.00259
300.00031
299.99998
299.99999
300
300
300
300
300
300
300
300
300
300
300
300
300
300
300
300
300
300
300
300
300
300
300
300
300
300
300
300
341.38968
323.3804
308.67706
301.29881
299.51939
299.69491
299.94088
300.00182
300.00293
300.00046
299.99999
299.99999
300
300
300
300
300
300
300
300
300
300
300
300
300
300
300
300
300
300
300
300
300
300
300
300
300
300
300
300
341.56095
323.96433
309.34552
301.66424
299.59538
299.67525
299.9261
299.99915
300.00316
300.00063
300.00001
299.99999
300
300
300
300
300
300
300
300
300
300
300
300
300
300
300
300
300
300
300
300
300
300
300
300
300
300
300
300
341.72533
324.50839
309.98746
302.03707
299.68677
299.66116
299.91096
299.99578
300.00326
300.00081
300.00004
299.99998
300
300
300
300
300
300
300
300
300
300
300
300
300
300
300
300
300
300
300
300
300
300
300
300
300
300
300
300
341.88224
325.01738
310.6041
302.41497
299.79238
299.65306
299.89583
299.99174
300.00318
300.00099
300.00007
299.99998
300
300
300
300
300
300
300
300
300
300
300
300
300
300
300
300
300
300
300
300
300
300
300
300
300
300
300
300
342.03145
325.49512
311.19664
302.79601
299.91104
299.65125
299.88107
299.98708
300.0029
300.00117
300.00012
299.99999
300
300
300
300
300
300
300
300
300
300
300
300
300
300
300
300
300
300
300
300
300
300
300
300
300
300
300
300
342.17304
325.94477
311.7662
303.17857
300.04164
299.65591
299.86699
299.98186
300.0024
300.00133
300.00017
299.99999
299.99999
300
300
300
300
300
300
300
300
300
300
300
300
300
300
300
300
300
300
300
300
300
300
300
300
300
300
300
342.30725
326.36896
312.31388
303.56128
300.18307
299.66715
299.85393
299.97616
300.00166
300.00147
300.00024
300
299.99999
300
300
300
300
300
300
300
300
300
300
300
300
300
300
300
300
300
300
300
300
300
300
300
300
300
300
300
342.43447
326.76995
312.8407
303.94299
300.3343
299.68499
299.84215
299.97007
300.00067
300.00157
300.00031
300.00001
299.99999
300
300
300
300
300
300
300
300
300
300
300
300
300
300
300
300
300
300
300
300
300
300
300
300
300
300
300
342.55513
327.14974
313.34764
304.32276
300.49436
299.70939
299.83191
299.96369
299.99943
300.00162
300.00038
300.00002
299.99999
300
300
300
300
300
300
300
300
300
300
300
300
300
300
300
300
300
300
300
300
300
300
300
300
300
300
300
342.66968
327.51007
313.83565
304.69978
300.66231
299.74026
299.82346
299.95711
299.99793
300.00161
300.00045
300.00003
299.99999
300
300
300
300
300
300
300
300
300
300
300
300
300
300
300
300
300
300
300
300
300
300
300
300
300
300
300
342.7786
327.85251
314.30564
305.07339
300.83731
299.77746
299.81698
299.95046
299.99619
300.00154
300.00052
300.00005
299.99999
300
300
300
300
300
300
300
300
300
300
300
300
300
300
300
300
300
300
300
300
300
300
300
300
300
300
300
342.8823
328.17847
314.75847
305.44304
301.01856
299.82083
299.81265
299.94382
299.99421
300.00139
300.00059
300.00008
300
300
300
300
300
300
300
300
300
300
300
300
300
300
300
300
300
300
300
300
300
300
300
300
300
300
300
300
342.9812
328.48922
315.19498
305.80828
301.2053
299.87018
299.81063
299.93732
299.99202
300.00116
300.00065
300.0001
300
300
300
300
300
300
300
300
300
300
300
300
300
300
300
300
300
300
300
300
300
300
300
300
300
300
300
300
343.07566
328.78591
315.61597
306.16876
301.39686
299.9253
299.81104
299.93105
299.98963
300.00084
300.0007
300.00013
300
300
300
300
300
300
300
300
300
300
300
300
300
300
300
300
300
300
300
300
300
300
300
300
300
300
300
300
343.16601
329.06957
316.02219
306.52417
301.5926
299.98595
299.81398
299.92512
299.98706
300.00042
300.00073
300.00015
300.00001
300
300
300
300
300
300
300
300
300
300
300
300
300
300
300
300
300
300
300
300
300
300
300
300
300
300
300
343.25255
329.34115
316.41438
306.87431
301.79194
300.05191
299.81953
299.91963
299.98435
299.99992
300.00074
300.00018
300.00001
300
300
300
300
300
300
300
300
300
300
300
300
300
300
300
300
300
300
300
300
300
300
300
300
300
300
300
343.33557
329.6015
316.79322
307.219
301.99433
300.12292
299.82776
299.91467
299.98152
299.99931
300.00073
300.00021
300.00002
300
300
300
300
300
300
300
300
300
300
300
300
300
300
300
300
300
300
300
300
300
300
300
300
300
300
300
343.41529
329.85137
317.15937
307.5581
302.1993
300.19874
299.83871
299.91033
299.97861
299.99861
300.0007
300.00024
300.00003
300
300
300
300
300
300
300
300
300
300
300
300
300
300
300
300
300
300
300
300
300
300
300
300
300
300
300
343.49194
330.09147
317.51345
307.89154
302.40638
300.27913
299.85241
299.9067
299.97565
299.99782
300.00064
300.00026
300.00004
300
300
300
300
300
300
300
300
300
300
300
300
300
300
300
300
300
300
300
300
300
300
300
300
300
300
300
343.56571
330.32242
317.85605
308.21927
302.61517
300.36382
299.86887
299.90386
299.97268
299.99694
300.00055
300.00028
300.00005
300
300
300
300
300
300
300
300
300
300
300
300
300
300
300
300
300
300
300
300
300
300
300
300
300
300
300
343.63678
330.54479
318.18771
308.54124
302.82528
300.45259
299.8881
299.90188
299.96973
299.99597
300.00043
300.0003
300.00006
300
300
300
300
300
300
300
300
300
300
300
300
300
300
300
300
300
300
300
300
300
300
300
300
300
300
300
343.7053
330.7591
318.50895
308.85747
303.03638
300.54519
299.91008
299.90082
299.96684
299.99492
300.00027
300.00031
300.00007
300
300
300
300
300
300
300
300
300
300
300
300
300
300
300
300
300
300
300
300
300
300
300
300
300
300
300
343.77142
330.96581
318.82026
309.16797
303.24814
300.64138
299.93479
299.90076
299.96405
299.9938
300.00008
300.00032
300.00008
300.00001
300
300
300
300
300
300
300
300
300
300
300
300
300
300
300
300
300
300
300
300
300
300
300
300
300
300
343.83527
331.16536
319.12208
309.47276
303.46027
300.74094
299.9622
299.90174
299.96139
299.99261
299.99985
300.00032
300.00009
300.00001
300
300
300
300
300
300
300
300
300
300
300
300
300
300
300
300
300
300
300
300
300
300
300
300
300
300
343.89697
331.35813
319.41486
309.77189
303.67252
300.84363
299.99228
299.90382
299.95891
299.99137
299.99958
300.0003
300.0001
300.00001
300
300
300
300
300
300
300
300
300
300
300
300
300
300
300
300
300
300
300
300
300
300
300
300
300
300
343.95662
331.54447
319.69898
310.06542
303.88465
300.94925
300.02497
299.90704
299.95663
299.99009
299.99927
300.00028
300.00011
300.00002
300
300
300
300
300
300
300
300
300
300
300
300
300
300
300
300
300
300
300
300
300
300
300
300
300
300
344.01432
331.72472
319.97481
310.3534
304.09642
301.05759
300.06023
299.91143
299.9546
299.98878
299.99893
300.00025
300.00012
300.00002
300
300
300
300
300
300
300
300
300
300
300
300
300
300
300
300
300
300
300
300
300
300
300
300
300
300
344.07017
331.89915
320.24271
310.63591
304.30765
301.16843
300.098
299.91704
299.95286
299.98745
299.99855
300.00021
300.00012
300.00002
300
300
300
300
300
300
300
300
300
300
300
300
300
300
300
300
300
300
300
300
300
300
300
300
300
300
344.12424
332.06805
320.50301
310.91301
304.51815
301.28159
300.13821
299.92389
299.95142
299.98611
299.99813
300.00015
300.00013
300.00003
300
300
300
300
300
300
300
300
300
300
300
300
300
300
300
300
300
300
300
300
300
300
300
300
300
300
344.1766
332.23166
320.75599
311.18479
304.72775
301.39688
300.18081
299.93201
299.95034
299.98478
299.99768
300.00008
300.00013
300.00003
300
300
300
300
300
300
300
300
300
300
300
300
300
300
300
300
300
300
300
300
300
300
300
300
300
300
344.22733
332.39022
321.00195
311.45131
304.93629
301.51411
300.22572
299.94141
299.94964
299.98348
299.9972
299.99999
300.00013
300.00004
300
300
300
300
300
300
300
300
300
300
300
300
300
300
300
300
300
300
300
300
300
300
300
300
300
300
344.27648
332.54391
321.24114
311.71266
305.14364
301.63312
300.27287
299.95211
299.94934
299.9822
299.99669
299.99989
300.00013
300.00004
300.00001
300
300
300
300
300
300
300
300
300
300
300
300
300
300
300
300
300
300
300
300
300
300
300
300
300
344.32411
332.69295
321.47381
311.96891
305.34968
301.75372
300.32218
299.96411
299.94948
299.98098
299.99616
299.99978
300.00012
300.00004
300.00001
300
300
300
300
300
300
300
300
300
300
300
300
300
300
300
300
300
300
300
300
300
300
300
300
300
344.37027
332.83749
321.70018
312.22014
305.55427
301.87576
300.37358
299.97743
299.95009
299.97983
299.9956
299.99965
300.00011
300.00005
300.00001
300
300
300
300
300
300
300
300
300
300
300
300
300
300
300
300
300
300
300
300
300
300
300
300
300
344.41501
332.9777
321.92047
312.46642
305.75731
301.99909
300.427
299.99207
299.95119
299.97876
299.99503
299.9995
300.00009
300.00005
300.00001
300
300
300
300
300
300
300
300
300
300
300
300
300
300
300
300
300
300
300
300
300
300
300
300
300
344.45836
333.11371
322.13486
312.70783
305.95869
302.12355
300.48234
300.00802
299.95281
299.97778
299.99444
299.99934
300.00007
300.00005
300.00001
300
300
300
300
300
300
300
300
300
300
300
300
300
300
300
300
300
300
300
300
300
300
300
300
300
344.50036
333.24567
322.34353
312.94443
306.15834
302.249
300.53954
300.02529
299.95496
299.97691
299.99384
299.99917
300.00005
300.00005
300.00001
300
300
300
300
300
300
300
300
300
300
300
300
300
300
300
300
300
300
300
300
300
300
300
300
300
344.54103
333.37367
322.54664
313.17629
306.35615
302.37529
300.59851
300.04385
299.95766
299.97617
299.99324
299.99898
300.00001
300.00005
300.00001
300
300
300
300
300
300
300
300
300
300
300
300
300
300
300
300
300
300
300
300
300
300
300
300
300
344.58042
333.49784
322.74434
313.40348
306.55204
302.5023
300.65916
300.06371
299.96095
299.97558
299.99264
299.99877
299.99998
300.00005
300.00002
300
300
300
300
300
300
300
300
300
300
300
300
300
300
300
300
300
300
300
300
300
300
300
300
300
344.61853
333.61824
322.93677
313.62604
306.74594
302.62989
300.72142
300.08485
299.96482
299.97513
299.99205
299.99856
299.99994
300.00005
300.00002
300
300
300
300
300
300
300
300
300
300
300
300
300
300
300
300
300
300
300
300
300
300
300
300
300
344.65538
333.73497
323.12404
313.84403
306.93778
302.75794
300.78521
300.10724
299.9693
299.97486
299.99147
299.99833
299.99989
300.00004
300.00002
300
300
300
300
300
300
300
300
300
300
300
300
300
300
300
300
300
300
300
300
300
300
300
300
300
344.69099
333.84808
323.30625
314.0575
307.12747
302.88632
300.85043
300.13088
299.97439
299.97477
299.99091
299.99809
299.99983
300.00004
300.00002
300
300
300
300
300
300
300
300
300
300
300
300
300
300
300
300
300
300
300
300
300
300
300
300
300
344.72537
333.95764
323.48351
314.26649
307.31497
303.01491
300.91701
300.15574
299.98012
299.97488
299.99038
299.99785
299.99977
300.00003
300.00002
300
300
300
300
300
300
300
300
300
300
300
300
300
300
300
300
300
300
300
300
300
300
300
300
300
344.75851
334.06368
323.65589
314.47103
307.50019
303.14361
300.98486
300.18179
299.98649
299.9752
299.98987
299.99759
299.99971
300.00002
300.00002
300
300
300
300
300
300
300
300
300
300
300
300
300
300
300
300
300
300
300
300
300
300
300
300
300
344.79042
334.16623
323.82346
314.67116
307.68308
303.27229
301.05389
300.20901
299.9935
299.97574
299.98941
299.99733
299.99963
300.00001
300.00002
300.00001
300
300
300
300
300
300
300
300
300
300
300
300
300
300
300
300
300
300
300
300
300
300
300
300
344.82109
334.26531
323.98627
314.86689
307.86356
303.40084
301.12403
300.23737
300.00116
299.97652
299.98898
299.99707
299.99955
300
300.00002
300.00001
300
300
300
300
300
300
300
300
300
300
300
300
300
300
300
300
300
300
300
300
300
300
300
300
344.85052
334.36093
324.14436
315.05825
308.04159
303.52916
301.19519
300.26683
300.00948
299.97754
299.98861
299.9968
299.99947
299.99998
300.00002
300.00001
300
300
300
300
300
300
300
300
300
300
300
300
300
300
300
300
300
300
300
300
300
300
300
300
344.8787
334.45308
324.29776
315.24523
308.2171
303.65714
301.26729
300.29737
300.01846
299.97882
299.9883
299.99653
299.99938
299.99996
300.00002
300.00001
300
300
300
300
300
300
300
300
300
300
300
300
300
300
300
300
300
300
300
300
300
300
300
300
344.9056
334.54175
324.44648
315.42784
308.39001
303.78467
301.34023
300.32895
300.0281
299.98037
299.98805
299.99627
299.99928
299.99994
300.00001
300.00001
300
300
300
300
300
300
300
300
300
300
300
300
300
300
300
300
300
300
300
300
300
300
300
300
344.93122
334.62691
324.59052
315.60607
308.56027
303.91166
301.41394
300.36154
300.03839
299.98219
299.98787
299.99601
299.99918
299.99992
300.00001
300.00001
300
300
300
300
300
300
300
300
300
300
300
300
300
300
300
300
300
300
300
300
300
300
300
300
344.95553
334.70853
324.72988
315.77991
308.7278
304.03799
301.48832
300.39509
300.04934
299.98429
299.98777
299.99576
299.99908
299.9999
300.00001
300.00001
300
300
300
300
300
300
300
300
300
300
300
300
300
300
300
300
300
300
300
300
300
300
300
300
344.97851
334.78656
324.86451
315.94932
308.89254
304.16357
301.5633
300.42956
300.06094
299.98669
299.98775
299.99551
299.99897
299.99987
300
300.00001
300
300
300
300
300
300
300
300
300
300
300
300
300
300
300
300
300
300
300
300
300
300
300
300
345.00015
334.86094
324.99439
316.11428
309.05442
304.28829
301.63879
300.46491
300.07318
299.98939
299.98782
299.99528
299.99886
299.99984
300
300.00001
300
300
300
300
300
300
300
300
300
300
300
300
300
300
300
300
300
300
300
300
300
300
300
300
345.02043
334.93164
325.11947
316.27473
309.21335
304.41204
301.7147
300.5011
300.08606
299.99239
299.98799
299.99507
299.99875
299.99981
299.99999
300.00001
300
300
300
300
300
300
300
300
300
300
300
300
300
300
300
300
300
300
300
300
300
300
300
300
345.03933
334.99857
325.23967
316.43063
309.36927
304.53474
301.79093
300.53808
300.09956
299.99571
299.98826
299.99487
299.99863
299.99977
299.99999
300.00001
300
300
300
300
300
300
300
300
300
300
300
300
300
300
300
300
300
300
300
300
300
300
300
300
345.05683
335.06169
325.35493
316.5819
309.52208
304.65627
301.86742
300.57581
300.11367
299.99933
299.98864
299.9947
299.99852
299.99973
299.99998
300.00001
300
300
300
300
300
300
300
300
300
300
300
300
300
300
300
300
300
300
300
300
300
300
300
300
345.07293
335.12093
325.46516
316.72848
309.67169
304.77652
301.94405
300.61423
300.12838
300.00328
299.98912
299.99454
299.9984
299.9997
299.99997
300
300
300
300
300
300
300
300
300
300
300
300
300
300
300
300
300
300
300
300
300
300
300
300
300
345.08762
335.17624
325.57028
316.87028
309.81802
304.8954
302.02076
300.6533
300.14367
300.00754
299.98973
299.99442
299.99829
299.99965
299.99996
300
300
300
300
300
300
300
300
300
300
300
300
300
300
300
300
300
300
300
300
300
300
300
300
300
345.10092
335.22757
325.67019
317.00721
309.96096
305.0128
302.09744
300.69295
300.15954
300.01212
299.99046
299.99432
299.99817
299.99961
299.99995
300
300
300
300
300
300
300
300
300
300
300
300
300
300
300
300
300
300
300
300
300
300
300
300
300
345.11283
335.2749
325.7648
317.13916
310.10042
305.12861
302.174
300.73315
300.17595
300.01703
299.99132
299.99426
299.99806
299.99957
299.99994
300
300
300
300
300
300
300
300
300
300
300
300
300
300
300
300
300
300
300
300
300
300
300
300
300
345.12337
335.31821
325.85401
317.26603
310.23628
305.24271
302.25036
300.77383
300.19289
300.02226
299.9923
299.99423
299.99796
299.99952
299.99993
300
300
300
300
300
300
300
300
300
300
300
300
300
300
300
300
300
300
300
300
300
300
300
300
300
345.13259
335.35751
325.93775
317.38771
310.36844
305.35501
302.32641
300.81494
300.21034
300.0278
299.99342
299.99424
299.99785
299.99947
299.99992
300
300
300
300
300
300
300
300
300
300
300
300
300
300
300
300
300
300
300
300
300
300
300
300
300
345.14053
335.39283
326.01593
317.50407
310.49677
305.46538
302.40207
300.85641
300.22828
300.03366
299.99469
299.99429
299.99776
299.99942
299.9999
299.99999
300
300
300
300
300
300
300
300
300
300
300
300
300
300
300
300
300
300
300
300
300
300
300
300
345.14724
335.42424
326.08852
317.61501
310.62115
305.57371
302.47724
300.8982
300.24667
300.03984
299.99609
299.99438
299.99767
299.99937
299.99989
299.99999
300
300
300
300
300
300
300
300
300
300
300
300
300
300
300
300
300
300
300
300
300
300
300
300
345.1528
335.45182
326.15546
317.72041
310.74147
305.67988
302.55183
300.94024
300.2655
300.04632
299.99763
299.99452
299.99759
299.99933
299.99987
299.99999
300
300
300
300
300
300
300
300
300
300
300
300
300
300
300
300
300
300
300
300
300
300
300
300
345.15728
335.47571
326.21676
317.82017
310.8576
305.78378
302.62574
300.98246
300.28474
300.05311
299.99932
299.99471
299.99753
299.99928
299.99985
299.99998
300
300
300
300
300
300
300
300
300
300
300
300
300
300
300
300
300
300
300
300
300
300
300
300
345.16077
335.49606
326.27246
317.91421
310.96941
305.8853
302.69887
301.02482
300.30436
300.06018
300.00116
299.99495
299.99747
299.99923
299.99984
299.99998
300
300
300
300
300
300
300
300
300
300
300
300
300
300
300
300
300
300
300
300
300
300
300
300
345.16338
335.51308
326.32262
318.00244
311.0768
305.98432
302.77114
301.06724
300.32434
300.06755
300.00314
299.99524
299.99742
299.99918
299.99982
299.99997
300
300
300
300
300
300
300
300
300
300
300
300
300
300
300
300
300
300
300
300
300
300
300
300
345.1652
335.52699
326.36737
318.08483
311.17966
306.08073
302.84245
301.10966
300.34463
300.0752
300.00528
299.99559
299.99739
299.99913
299.9998
299.99997
300
300
300
300
300
300
300
300
300
300
300
300
300
300
300
300
300
300
300
300
300
300
300
300
345.16635
335.53807
326.40686
318.16136
311.27789
306.17442
302.91271
301.15203
300.36521
300.08311
300.00756
299.99599
299.99738
299.99909
299.99978
299.99996
300
300
300
300
300
300
300
300
300
300
300
300
300
300
300
300
300
300
300
300
300
300
300
300
345.16694
335.5466
326.44134
318.23206
311.37141
306.26529
302.98183
301.19428
300.38605
300.09129
300.00999
299.99645
299.99738
299.99905
299.99976
299.99996
300
300
300
300
300
300
300
300
300
300
300
300
300
300
300
300
300
300
300
300
300
300
300
300
345.16708
335.5529
326.47106
318.29699
311.46016
306.35324
303.04972
301.23635
300.40712
300.09971
300.01257
299.99697
299.99739
299.99901
299.99974
299.99995
299.99999
300
300
300
300
300
300
300
300
300
300
300
300
300
300
300
300
300
300
300
300
300
300
300
345.16689
335.5573
326.49636
318.35628
311.5441
306.43821
303.11631
301.27818
300.42838
300.10837
300.01529
299.99756
299.99743
299.99897
299.99972
299.99994
299.99999
300
300
300
300
300
300
300
300
300
300
300
300
300
300
300
300
300
300
300
300
300
300
300
345.16646
335.56014
326.51763
318.41008
311.62324
306.52011
303.18152
301.31972
300.44981
300.11726
300.01816
299.99821
299.99748
299.99894
299.9997
299.99994
299.99999
300
300
300
300
300
300
300
300
300
300
300
300
300
300
300
300
300
300
300
300
300
300
300
345.16589
335.56177
326.53527
318.45864
311.6976
306.5989
303.24528
301.36091
300.47137
300.12636
300.02117
299.99892
299.99756
299.99891
299.99968
299.99993
299.99999
300
300
300
300
300
300
300
300
300
300
300
300
300
300
300
300
300
300
300
300
300
300
300
345.16526
335.5625
326.54976
318.50222
311.76725
306.67453
303.30754
301.4017
300.49303
300.13566
300.02431
299.99969
299.99765
299.99889
299.99966
299.99992
299.99999
300
300
300
300
300
300
300
300
300
300
300
300
300
300
300
300
300
300
300
300
300
300
300
345.16466
335.56267
326.56159
318.54119
311.83232
306.74704
303.36828
301.44209
300.51478
300.14515
300.0276
300.00053
299.99777
299.99887
299.99964
299.99992
299.99999
300
300
300
300
300
300
300
300
300
300
300
300
300
300
300
300
300
300
300
300
300
300
300
345.16411
335.5625
326.57118
318.57583
311.89279
306.81619
303.42721
301.48181
300.53647
300.15477
300.031
300.00144
299.99791
299.99886
299.99962
299.99991
299.99998
300
300
300
300
300
300
300
300
300
300
300
300
300
300
300
300
300
300
300
300
300
300
300
345.16378
335.5625
326.57937
318.60712
311.9499
306.88343
303.48572
301.52192
300.55873
300.16482
300.03463
300.00243
299.99808
299.99885
299.9996
299.9999
299.99998
300
300
300
300
300
300
300
300
300
300
300
300
300
300
300
300
300
300
300
300
300
300
300
345.16333
335.56191
326.58526
318.63258
311.99803
306.94099
303.53622
301.55675
300.57818
300.17366
300.03786
300.00333
299.99825
299.99885
299.99959
299.99989
299.99998
300
300
300
300
300
300
300
300
300
300
300
300
300
300
300
300
300
300
300
300
300
300
300
345.16492
335.56483
326.59544
318.66915
312.07035
307.0318
303.61898
301.6156
300.61196
300.18948
300.04385
300.0051
299.9986
299.99887
299.99957
299.99988
299.99998
300
300
300
300
300
300
300
300
300
300
300
300
300
300
300
300
300
300
300
300
300
300
300
)
;

boundaryField
{
    wall
    {
        type            fixedValue;
        value           uniform 350;
    }
    sides
    {
        type            zeroGradient;
    }
    frontAndBack
    {
        type            empty;
    }
    inlet
    {
        type            fixedValue;
        value           uniform 300;
    }
    outlet
    {
        type            zeroGradient;
    }
}


// ************************************************************************* //
