/*--------------------------------*- C++ -*----------------------------------*\
  =========                 |
  \\      /  F ield         | OpenFOAM: The Open Source CFD Toolbox
   \\    /   O peration     | Website:  https://openfoam.org
    \\  /    A nd           | Version:  10
     \\/     M anipulation  |
\*---------------------------------------------------------------------------*/
FoamFile
{
    format      ascii;
    class       volVectorField;
    location    "0.29";
    object      U;
}
// * * * * * * * * * * * * * * * * * * * * * * * * * * * * * * * * * * * * * //

dimensions      [0 1 -1 0 0 0 0];

internalField   nonuniform List<vector> 
4000
(
(0 0.018637459 0.47773157)
(0 0.023510005 0.50886061)
(0 0.0081668576 0.50052522)
(0 0.0056146158 0.50033634)
(0 0.0042546276 0.50025746)
(0 0.0032549402 0.50016898)
(0 0.0025560821 0.50011969)
(0 0.0020545687 0.50009013)
(0 0.001676561 0.50006981)
(0 0.0013822158 0.50005539)
(0 0.0011471607 0.50004499)
(0 0.00095505691 0.50003733)
(0 0.0007946504 0.5000316)
(0 0.0006579655 0.50002727)
(0 0.00053917402 0.50002399)
(0 0.00043389542 0.50002151)
(0 0.00033874242 0.50001967)
(0 0.0002510132 0.50001834)
(0 0.00016847524 0.50001744)
(0 8.920671e-05 0.50001694)
(0 1.1474344e-05 0.50001679)
(0 -6.6373752e-05 0.50001699)
(0 -0.00014599964 0.50001755)
(0 -0.00022916779 0.5000185)
(0 -0.00031785553 0.50001991)
(0 -0.00041438384 0.50002185)
(0 -0.00052158909 0.50002446)
(0 -0.00064306232 0.50002793)
(0 -0.00078349708 0.50003252)
(0 -0.00094921932 0.50003863)
(0 -0.0011490384 0.50004688)
(0 -0.0013956125 0.50005824)
(0 -0.0017076878 0.50007414)
(0 -0.0021156127 0.50009709)
(0 -0.0026753012 0.50013481)
(0 -0.0034688614 0.50020237)
(0 -0.0045610694 0.50027142)
(0 -0.0065852472 0.50043364)
(0 -0.017659678 0.50675408)
(0 -0.013590236 0.47975558)
(0 0.037432696 0.44796925)
(0 0.050955767 0.53232616)
(0 0.02196934 0.5080429)
(0 0.016135658 0.50357319)
(0 0.012416091 0.50242317)
(0 0.0095159536 0.50162301)
(0 0.0075206078 0.50115663)
(0 0.0060698646 0.50086594)
(0 0.0049645262 0.50066802)
(0 0.0041000603 0.50052903)
(0 0.003407517 0.50042906)
(0 0.002839949 0.50035556)
(0 0.0023649828 0.50030067)
(0 0.0019595351 0.50025928)
(0 0.0016066459 0.50022793)
(0 0.0012935205 0.50020427)
(0 0.0010102345 0.50018667)
(0 0.0007488505 0.50017399)
(0 0.00050279488 0.50016549)
(0 0.00026639872 0.50016065)
(0 3.454203e-05 0.50015922)
(0 -0.0001976539 0.50016112)
(0 -0.00043509774 0.50016647)
(0 -0.00068299921 0.50017557)
(0 -0.00094718804 0.50018898)
(0 -0.0012344929 0.50020754)
(0 -0.0015532371 0.50023247)
(0 -0.0019139264 0.50026558)
(0 -0.0023302411 0.5003095)
(0 -0.0028205203 0.5003681)
(0 -0.0034101386 0.50044735)
(0 -0.0041354711 0.5005567)
(0 -0.0050495956 0.50071125)
(0 -0.0062323764 0.50093659)
(0 -0.0078326965 0.50129435)
(0 -0.010126341 0.50191048)
(0 -0.013107408 0.50282504)
(0 -0.017426784 0.50608114)
(0 -0.038759515 0.52526814)
(0 -0.027894896 0.45021616)
(0 0.039888301 0.40982051)
(0 0.061428195 0.54930816)
(0 0.031983828 0.52188198)
(0 0.02435557 0.51008058)
(0 0.019193695 0.5065886)
(0 0.014977217 0.50452812)
(0 0.012006767 0.50327145)
(0 0.0097719404 0.50245845)
(0 0.0080364951 0.50190114)
(0 0.0066647861 0.50150877)
(0 0.005556593 0.50122556)
(0 0.0046423822 0.50101682)
(0 0.0038734164 0.50086067)
(0 0.0032143003 0.50074276)
(0 0.0026387004 0.50065338)
(0 0.0021265643 0.50058587)
(0 0.001662216 0.50053561)
(0 0.0012330363 0.5004994)
(0 0.00082851913 0.50047508)
(0 0.00043956634 0.50046125)
(0 5.7937581e-05 0.50045716)
(0 -0.00032422768 0.50046259)
(0 -0.00071483706 0.50047787)
(0 -0.0011222689 0.50050388)
(0 -0.0015558675 0.50054218)
(0 -0.0020265263 0.50059513)
(0 -0.0025474428 0.50066625)
(0 -0.0031351489 0.5007606)
(0 -0.0038109736 0.50088558)
(0 -0.0046031555 0.50105212)
(0 -0.0055500482 0.50127674)
(0 -0.0067056311 0.50158558)
(0 -0.0081471035 0.50202075)
(0 -0.0099785524 0.50265066)
(0 -0.012372793 0.50361499)
(0 -0.015717779 0.50519906)
(0 -0.019874097 0.50785376)
(0 -0.02518775 0.51641215)
(0 -0.047418178 0.53912714)
(0 -0.030854121 0.41487927)
(0 0.034791623 0.36172998)
(0 0.063839025 0.55456333)
(0 0.039380542 0.53747141)
(0 0.030083505 0.51849266)
(0 0.024112713 0.51197736)
(0 0.019279677 0.50849953)
(0 0.015736216 0.50626436)
(0 0.012954174 0.50475557)
(0 0.010743585 0.50370456)
(0 0.0089677607 0.50295628)
(0 0.0075136703 0.50241124)
(0 0.0063016497 0.50200698)
(0 0.0052738947 0.50170319)
(0 0.0043871493 0.50147298)
(0 0.0036085981 0.50129797)
(0 0.0029128585 0.5011655)
(0 0.0022798256 0.5010667)
(0 0.0016931402 0.50099544)
(0 0.0011390633 0.50094752)
(0 0.00060561637 0.50092026)
(0 8.1900321e-05 0.50091217)
(0 -0.00044250428 0.50092287)
(0 -0.00097807697 0.50095296)
(0 -0.0015358864 0.50100416)
(0 -0.0021282103 0.50107947)
(0 -0.0027692528 0.50118345)
(0 -0.0034760514 0.50132284)
(0 -0.004269682 0.5015073)
(0 -0.0051769228 0.50175083)
(0 -0.0062325513 0.50207392)
(0 -0.007482434 0.50250703)
(0 -0.0089888012 0.50309717)
(0 -0.010839021 0.50391904)
(0 -0.01313965 0.50508902)
(0 -0.016026347 0.5068066)
(0 -0.019901675 0.50946716)
(0 -0.024733498 0.51427451)
(0 -0.031115393 0.52824679)
(0 -0.05032129 0.54407133)
(0 -0.028438964 0.37237903)
(0 0.027424313 0.31484311)
(0 0.062315033 0.55024061)
(0 0.044614769 0.55146771)
(0 0.033982222 0.52748822)
(0 0.02746422 0.51772253)
(0 0.02245528 0.51291995)
(0 0.018636847 0.50973159)
(0 0.015528115 0.50749281)
(0 0.013006104 0.50590014)
(0 0.010941988 0.50474713)
(0 0.0092243862 0.50389639)
(0 0.0077744474 0.50325944)
(0 0.006532186 0.50277739)
(0 0.0054511778 0.50241001)
(0 0.0044953754 0.50212952)
(0 0.0036363143 0.50191645)
(0 0.0028510517 0.50175712)
(0 0.0021206495 0.50164196)
(0 0.0014290149 0.50156439)
(0 0.00076198932 0.50152021)
(0 0.00010660962 0.50150708)
(0 -0.00054955326 0.50152436)
(0 -0.0012189969 0.50157304)
(0 -0.0019148659 0.5016558)
(0 -0.0026516368 0.50177733)
(0 -0.0034458877 0.50194479)
(0 -0.0043172439 0.50216857)
(0 -0.0052895887 0.50246356)
(0 -0.0063926714 0.50285102)
(0 -0.007664266 0.50336158)
(0 -0.0091526344 0.50403989)
(0 -0.010920212 0.50495249)
(0 -0.013053833 0.50620219)
(0 -0.015657291 0.50794388)
(0 -0.018818438 0.51040392)
(0 -0.022898778 0.51405432)
(0 -0.028179784 0.52114497)
(0 -0.035709916 0.53932617)
(0 -0.050478742 0.54155404)
(0 -0.02408697 0.33055564)
(0 0.019837971 0.27519754)
(0 0.057990228 0.53974645)
(0 0.047364206 0.56256484)
(0 0.036477944 0.53660469)
(0 0.029636402 0.52350726)
(0 0.024676355 0.51740348)
(0 0.020774408 0.51336324)
(0 0.017509864 0.51044481)
(0 0.014814226 0.50832453)
(0 0.012566562 0.50676218)
(0 0.010665351 0.5055932)
(0 0.0090385983 0.50470845)
(0 0.007628689 0.50403301)
(0 0.0063897633 0.50351465)
(0 0.0052853631 0.50311667)
(0 0.0042860212 0.50281302)
(0 0.0033675107 0.50258516)
(0 0.0025094968 0.50242002)
(0 0.0016944574 0.50230856)
(0 0.00090680766 0.50224497)
(0 0.00013217266 0.50222601)
(0 -0.00064327882 0.5022508)
(0 -0.0014334494 0.50232068)
(0 -0.0022528912 0.50243939)
(0 -0.0031174977 0.50261336)
(0 -0.0040452536 0.5028524)
(0 -0.005057132 0.50317064)
(0 -0.0061781963 0.50358807)
(0 -0.0074389943 0.50413288)
(0 -0.0088774521 0.50484501)
(0 -0.010540834 0.50578145)
(0 -0.012487431 0.50702451)
(0 -0.014797456 0.50869733)
(0 -0.017572689 0.51098155)
(0 -0.020867109 0.51411953)
(0 -0.024976992 0.5187296)
(0 -0.03051177 0.52822939)
(0 -0.038633317 0.54872369)
(0 -0.048511251 0.53398249)
(0 -0.019067741 0.29393562)
(0 0.013083253 0.24255459)
(0 0.051799099 0.52520043)
(0 0.047709938 0.57024859)
(0 0.037757524 0.54552513)
(0 0.030850822 0.52928882)
(0 0.026073894 0.5218019)
(0 0.022238282 0.51699822)
(0 0.018953913 0.51347382)
(0 0.016193602 0.51086536)
(0 0.013849544 0.50891291)
(0 0.011835244 0.50743317)
(0 0.010088119 0.50630111)
(0 0.0085555486 0.50542897)
(0 0.0071947849 0.50475462)
(0 0.0059710309 0.50423369)
(0 0.0048554711 0.50383423)
(0 0.0038239204 0.5035333)
(0 0.0028557098 0.5033145)
(0 0.0019327548 0.50316648)
(0 0.0010387748 0.50308186)
(0 0.00015862964 0.50305654)
(0 -0.00072230523 0.50308937)
(0 -0.0016187252 0.50318207)
(0 -0.0025459322 0.50333937)
(0 -0.0035204888 0.50356942)
(0 -0.0045608965 0.50388448)
(0 -0.0056883909 0.50430216)
(0 -0.0069278833 0.5048471)
(0 -0.0083090766 0.50555355)
(0 -0.0098680391 0.5064693)
(0 -0.011648964 0.5076615)
(0 -0.013704094 0.509225)
(0 -0.016102938 0.51129777)
(0 -0.018940784 0.51407917)
(0 -0.022249 0.51783802)
(0 -0.026268418 0.52346715)
(0 -0.031852109 0.53537472)
(0 -0.039763259 0.55589617)
(0 -0.044896834 0.52282046)
(0 -0.014091464 0.26264131)
(0 0.007770193 0.21554069)
(0 0.04482615 0.50800975)
(0 0.046256125 0.57438094)
(0 0.038035953 0.55375155)
(0 0.031288469 0.53496081)
(0 0.026768863 0.52603063)
(0 0.023117131 0.52053884)
(0 0.019921108 0.51648872)
(0 0.017182243 0.51344218)
(0 0.014813322 0.51113124)
(0 0.012745917 0.50936017)
(0 0.010927978 0.50799169)
(0 0.0093136061 0.5069282)
(0 0.0078648346 0.50609977)
(0 0.0065499231 0.50545581)
(0 0.0053419184 0.50495947)
(0 0.0042177138 0.50458396)
(0 0.0031571821 0.50431004)
(0 0.0021424248 0.50412426)
(0 0.0011571214 0.50401781)
(0 0.0001859611 0.50398581)
(0 -0.00078590709 0.50402688)
(0 -0.0017734025 0.50414308)
(0 -0.0027919757 0.50434004)
(0 -0.0038581936 0.50462742)
(0 -0.0049903159 0.50501973)
(0 -0.0062089573 0.50553758)
(0 -0.0075378523 0.50620957)
(0 -0.0090046811 0.50707501)
(0 -0.010642236 0.50818809)
(0 -0.012490095 0.50962404)
(0 -0.014593388 0.5114879)
(0 -0.017008313 0.51392857)
(0 -0.019816527 0.51715478)
(0 -0.023033989 0.52147957)
(0 -0.02688326 0.52818196)
(0 -0.032355178 0.54221993)
(0 -0.03940772 0.56050118)
(0 -0.040331333 0.5090798)
(0 -0.0097088451 0.23585235)
(0 0.0040050332 0.19355587)
(0 0.037899906 0.4894867)
(0 0.043687838 0.57524017)
(0 0.037564818 0.56084546)
(0 0.031155056 0.54036157)
(0 0.026914933 0.53001187)
(0 0.02351476 0.52390241)
(0 0.020480812 0.51941331)
(0 0.01782707 0.51598863)
(0 0.015489575 0.51335984)
(0 0.013418 0.51132511)
(0 0.011570997 0.50973858)
(0 0.0099104068 0.50849561)
(0 0.0084039981 0.50752052)
(0 0.0070239449 0.50675795)
(0 0.0057459798 0.50616717)
(0 0.0045488245 0.50571832)
(0 0.0034135644 0.50538979)
(0 0.0023230896 0.50516637)
(0 0.0012615889 0.50503806)
(0 0.00021409291 0.50499929)
(0 -0.00083398125 0.50504849)
(0 -0.0018972806 0.50518799)
(0 -0.0029908883 0.50542421)
(0 -0.0041308218 0.5057681)
(0 -0.00533449 0.50623604)
(0 -0.0066212083 0.50685111)
(0 -0.0080127821 0.50764514)
(0 -0.0095340631 0.50866147)
(0 -0.011213646 0.50995917)
(0 -0.013085394 0.51161956)
(0 -0.01518682 0.51375532)
(0 -0.017560562 0.51652219)
(0 -0.020270761 0.52013121)
(0 -0.023325278 0.52496263)
(0 -0.026966161 0.53273933)
(0 -0.032207766 0.54839033)
(0 -0.037999762 0.56254219)
(0 -0.035418026 0.49378724)
(0 -0.0062012148 0.21324584)
(0 0.0015511777 0.17613285)
(0 0.031500055 0.47076108)
(0 0.040533266 0.57338576)
(0 0.036559996 0.56659893)
(0 0.030638284 0.54537901)
(0 0.026672495 0.53370519)
(0 0.023543794 0.527033)
(0 0.020710939 0.52218929)
(0 0.018183269 0.51845224)
(0 0.015917317 0.51555218)
(0 0.013878658 0.51328693)
(0 0.012035861 0.51150587)
(0 0.01035863 0.51009996)
(0 0.0088207104 0.5089897)
(0 0.0073985752 0.50811637)
(0 0.0060711133 0.50743643)
(0 0.0048193542 0.50691771)
(0 0.0036260618 0.50653676)
(0 0.0024753623 0.50627699)
(0 0.0013523814 0.50612744)
(0 0.00024290242 0.50608199)
(0 -0.00086698506 0.50613891)
(0 -0.0019912503 0.50630077)
(0 -0.0031441948 0.50657461)
(0 -0.0043408552 0.50697242)
(0 -0.0055973372 0.50751203)
(0 -0.0069311827 0.50821848)
(0 -0.0083617761 0.50912599)
(0 -0.0099106826 0.51028086)
(0 -0.011601907 0.51174565)
(0 -0.013463169 0.51360572)
(0 -0.015524533 0.51597854)
(0 -0.017816623 0.51902265)
(0 -0.020386377 0.52294905)
(0 -0.023241032 0.52823471)
(0 -0.026661109 0.53703971)
(0 -0.031571143 0.55365862)
(0 -0.035910339 0.56230587)
(0 -0.03055648 0.47788405)
(0 -0.0035915777 0.19460207)
(0 7.6796517e-05 0.16252419)
(0 0.025870881 0.45259952)
(0 0.037160648 0.56943323)
(0 0.035192438 0.57098942)
(0 0.029878339 0.54996362)
(0 0.02617459 0.53711461)
(0 0.023306614 0.52991325)
(0 0.020688002 0.52478524)
(0 0.018308232 0.52079935)
(0 0.016138926 0.51767535)
(0 0.014158793 0.51521469)
(0 0.012344978 0.51326518)
(0 0.010674406 0.5117156)
(0 0.0091264668 0.51048425)
(0 0.0076819077 0.50951035)
(0 0.0063229259 0.50874852)
(0 0.0050330881 0.50816502)
(0 0.0037971108 0.50773509)
(0 0.0026006518 0.50744113)
(0 0.0014300766 0.50727147)
(0 0.00027222632 0.50721959)
(0 -0.00088583162 0.50728362)
(0 -0.0020570818 0.50746631)
(0 -0.0032547379 0.50777517)
(0 -0.0044925497 0.50822296)
(0 -0.005785022 0.50882859)
(0 -0.0071476459 0.50961846)
(0 -0.0085971443 0.51062845)
(0 -0.010151655 0.5119068)
(0 -0.011830661 0.51351825)
(0 -0.013655949 0.51555044)
(0 -0.015650733 0.51812313)
(0 -0.017835645 0.52139451)
(0 -0.020243056 0.52557902)
(0 -0.022886554 0.53128168)
(0 -0.026084226 0.54103058)
(0 -0.030575891 0.55793386)
(0 -0.033432742 0.56018738)
(0 -0.025998498 0.46205919)
(0 -0.0017656423 0.1794613)
(0 -0.00071791059 0.15190648)
(0 0.021108563 0.43543383)
(0 0.033820335 0.56393151)
(0 0.0336052 0.57408974)
(0 0.028975903 0.55409473)
(0 0.025520783 0.54026439)
(0 0.02288686 0.53255365)
(0 0.020478963 0.52719317)
(0 0.018254976 0.52301388)
(0 0.016195496 0.51970979)
(0 0.014289795 0.51708759)
(0 0.012522116 0.51499588)
(0 0.010875563 0.51332275)
(0 0.0093345079 0.51198558)
(0 0.0078836676 0.51092256)
(0 0.0065084466 0.51008732)
(0 0.0051949728 0.50944518)
(0 0.0039300228 0.50897054)
(0 0.0027009432 0.50864516)
(0 0.0014955256 0.50845689)
(0 0.00030186974 0.50839891)
(0 -0.00089177083 0.50846927)
(0 -0.0020971869 0.50867085)
(0 -0.0033263029 0.50901147)
(0 -0.0045913955 0.50950442)
(0 -0.005905211 0.5101693)
(0 -0.0072810843 0.51103338)
(0 -0.0087330489 0.5121335)
(0 -0.010275916 0.51351901)
(0 -0.011924998 0.51525572)
(0 -0.013696743 0.51743231)
(0 -0.015608303 0.52016892)
(0 -0.017672145 0.52362145)
(0 -0.01990973 0.5280156)
(0 -0.022347254 0.53410968)
(0 -0.025326464 0.54468094)
(0 -0.029337174 0.56120663)
(0 -0.030798526 0.55658188)
(0 -0.021897667 0.44675093)
(0 -0.00056507165 0.16723636)
(0 -0.0010700356 0.14358238)
(0 0.017203962 0.41947816)
(0 0.030667933 0.55733987)
(0 0.031916204 0.57602107)
(0 0.028005057 0.55776471)
(0 0.024784624 0.54318039)
(0 0.022350995 0.53497692)
(0 0.020139471 0.52941899)
(0 0.018069282 0.52509183)
(0 0.016124057 0.52164608)
(0 0.014301176 0.51889315)
(0 0.012590488 0.51668392)
(0 0.010980134 0.51490682)
(0 0.0094586774 0.51347914)
(0 0.0080143426 0.51233885)
(0 0.0066354756 0.5114392)
(0 0.0053106419 0.51074508)
(0 0.0040286551 0.5102305)
(0 0.0027785934 0.50987683)
(0 0.001549758 0.50967165)
(0 0.0003316153 0.50960798)
(0 -0.00088627633 0.5096838)
(0 -0.0021143945 0.50990207)
(0 -0.0033632679 0.51027081)
(0 -0.0046436171 0.51080357)
(0 -0.0059663896 0.51152036)
(0 -0.0073427917 0.51244886)
(0 -0.008784292 0.51362638)
(0 -0.01030263 0.51510263)
(0 -0.011909442 0.51694377)
(0 -0.013616604 0.51923855)
(0 -0.015436113 0.52210616)
(0 -0.017373954 0.52569952)
(0 -0.019444719 0.5302658)
(0 -0.021692098 0.53673042)
(0 -0.024461059 0.54797067)
(0 -0.027956695 0.56352076)
(0 -0.028178274 0.55185109)
(0 -0.018328165 0.43222394)
(0 0.00016856646 0.15738119)
(0 -0.0011531396 0.1370005)
(0 0.014079594 0.40481284)
(0 0.0277835 0.55003262)
(0 0.030213504 0.57693086)
(0 0.02701822 0.56098002)
(0 0.02401911 0.54588659)
(0 0.021750906 0.53721004)
(0 0.019714723 0.53147582)
(0 0.017789493 0.52703644)
(0 0.015956723 0.52348165)
(0 0.014219417 0.52062497)
(0 0.0125716 0.51832047)
(0 0.011005333 0.51645755)
(0 0.0095125676 0.51495397)
(0 0.0080844965 0.51374797)
(0 0.0067120513 0.5127929)
(0 0.005386017 0.5120536)
(0 0.0040971297 0.51150399)
(0 0.0028361533 0.51112532)
(0 0.0015939002 0.51090505)
(0 0.00036123244 0.51083611)
(0 -0.00087094462 0.51091648)
(0 -0.0021117532 0.51114913)
(0 -0.0033702988 0.51154215)
(0 -0.0046557479 0.51210922)
(0 -0.0059772976 0.51287044)
(0 -0.0073441477 0.51385361)
(0 -0.0087654254 0.51509604)
(0 -0.010250148 0.51664737)
(0 -0.011806834 0.5185735)
(0 -0.013443614 0.52096264)
(0 -0.015168323 0.52393211)
(0 -0.016982118 0.52763241)
(0 -0.018896622 0.5323433)
(0 -0.020975664 0.53915804)
(0 -0.023545226 0.55089327)
(0 -0.026516935 0.56495879)
(0 -0.025683247 0.54631277)
(0 -0.015301643 0.41862619)
(0 0.00057340367 0.149433)
(0 -0.0010855524 0.13172106)
(0 0.011624811 0.39142917)
(0 0.025194877 0.54230342)
(0 0.028555919 0.57697338)
(0 0.026048801 0.56376033)
(0 0.023259616 0.54840586)
(0 0.021125123 0.53928148)
(0 0.019240176 0.53338108)
(0 0.017446843 0.52885569)
(0 0.015720556 0.5252186)
(0 0.01406752 0.52228111)
(0 0.012484657 0.51990075)
(0 0.010966944 0.51796826)
(0 0.0095089464 0.51640218)
(0 0.0081042715 0.5151413)
(0 0.0067460406 0.51413939)
(0 0.0054269896 0.51336152)
(0 0.0041396023 0.51278173)
(0 0.0028762208 0.51238132)
(0 0.001629107 0.51214777)
(0 0.00039048655 0.51207401)
(0 -0.00084740827 0.512158)
(0 -0.0020923639 0.51240271)
(0 -0.0033520981 0.51281621)
(0 -0.0046342889 0.51341215)
(0 -0.0059464962 0.51421055)
(0 -0.0072960965 0.51523904)
(0 -0.0086901581 0.51653468)
(0 -0.010135379 0.51814666)
(0 -0.011637728 0.52014028)
(0 -0.013202414 0.52260279)
(0 -0.014834094 0.52564917)
(0 -0.01653069 0.52942929)
(0 -0.018304169 0.53426627)
(0 -0.020238603 0.54140918)
(0 -0.022620532 0.55345639)
(0 -0.025078971 0.56562516)
(0 -0.023376147 0.54023277)
(0 -0.012788487 0.40601952)
(0 0.00075855074 0.14299749)
(0 -0.00094371386 0.12739845)
(0 0.0097208438 0.37926108)
(0 0.022898617 0.53437268)
(0 0.026978652 0.57629368)
(0 0.02511555 0.56613287)
(0 0.022527385 0.55075891)
(0 0.020500324 0.54121894)
(0 0.018742289 0.53515438)
(0 0.017065831 0.5305606)
(0 0.015437629 0.52686228)
(0 0.01386486 0.52386287)
(0 0.012346295 0.52142308)
(0 0.01087898 0.51943514)
(0 0.0094594002 0.51781843)
(0 0.0080830512 0.51651251)
(0 0.0067448464 0.51547167)
(0 0.005439183 0.51466141)
(0 0.0041600847 0.51405603)
(0 0.0029013242 0.51363701)
(0 0.0016565082 0.51339194)
(0 0.00041914749 0.51331377)
(0 -0.00081726478 0.5134005)
(0 -0.0020592458 0.51365504)
(0 -0.0033132077 0.51408538)
(0 -0.0045854501 0.51470504)
(0 -0.0058820517 0.51553381)
(0 -0.0072087848 0.51659901)
(0 -0.008570967 0.51793722)
(0 -0.0099733907 0.51959699)
(0 -0.011420029 0.52164285)
(0 -0.012913904 0.52416086)
(0 -0.014457393 0.52726356)
(0 -0.016046649 0.53110305)
(0 -0.017696503 0.53605516)
(0 -0.019509112 0.54350139)
(0 -0.021715038 0.55567742)
(0 -0.023684832 0.5656299)
(0 -0.021285049 0.53382254)
(0 -0.010736194 0.39440341)
(0 0.0008043247 0.13774129)
(0 -0.00077511339 0.12377158)
(0 0.008255039 0.36821162)
(0 0.020874455 0.52639984)
(0 0.025499607 0.57501958)
(0 0.024227276 0.56812723)
(0 0.021833585 0.55296271)
(0 0.019893676 0.5430471)
(0 0.018239847 0.53681549)
(0 0.016664926 0.53216366)
(0 0.015125324 0.52841996)
(0 0.013627244 0.52537374)
(0 0.012170496 0.52288803)
(0 0.01075352 0.52085654)
(0 0.009374135 0.5191995)
(0 0.0080292555 0.51785719)
(0 0.0067152163 0.51678452)
(0 0.0054277896 0.51594748)
(0 0.0041623194 0.51532072)
(0 0.0029138397 0.51488599)
(0 0.0016771699 0.51463101)
(0 0.00044699736 0.51454885)
(0 -0.00078202246 0.51463748)
(0 -0.0020152368 0.51489977)
(0 -0.0032578652 0.51534359)
(0 -0.0045149677 0.51598224)
(0 -0.0057913209 0.51683521)
(0 -0.0070913261 0.51792938)
(0 -0.0084188574 0.51930077)
(0 -0.0097771977 0.52099723)
(0 -0.01116882 0.52308243)
(0 -0.012595191 0.52564118)
(0 -0.01405717 0.52878389)
(0 -0.015550439 0.53266842)
(0 -0.017094417 0.53773023)
(0 -0.01880545 0.54545115)
(0 -0.020846317 0.55757876)
(0 -0.022361096 0.56507786)
(0 -0.019415075 0.52724404)
(0 -0.0090820017 0.38373732)
(0 0.00076723087 0.13339195)
(0 -0.00060773711 0.1206502)
(0 0.0071282072 0.35817188)
(0 0.019094381 0.51849701)
(0 0.024124664 0.57326005)
(0 0.023386456 0.56977276)
(0 0.021182689 0.55503019)
(0 0.019315284 0.5447864)
(0 0.017745568 0.53838276)
(0 0.016257571 0.53367747)
(0 0.014796912 0.52989978)
(0 0.013367207 0.52681847)
(0 0.011968701 0.52429768)
(0 0.010600707 0.52223246)
(0 0.0092619072 0.52054375)
(0 0.007950241 0.51917249)
(0 0.0066631358 0.51807419)
(0 0.0053974723 0.51721533)
(0 0.0041496991 0.51657098)
(0 0.0029159361 0.51612314)
(0 0.0016920697 0.51585974)
(0 0.00047383715 0.51577393)
(0 -0.00074306226 0.51586371)
(0 -0.001962925 0.51613187)
(0 -0.003189909 0.51658614)
(0 -0.0044279883 0.51723956)
(0 -0.0056808235 0.51811126)
(0 -0.0069516753 0.51922767)
(0 -0.0082432628 0.5206242)
(0 -0.0095577148 0.522348)
(0 -0.010896432 0.52446192)
(0 -0.012259837 0.52704958)
(0 -0.013647895 0.53021989)
(0 -0.015056931 0.53414028)
(0 -0.016511939 0.53931)
(0 -0.018138423 0.54727281)
(0 -0.020024105 0.55918483)
(0 -0.021122246 0.56406377)
(0 -0.017756994 0.52061788)
(0 -0.0077612002 0.37395832)
(0 0.00068568007 0.12973414)
(0 -0.00045650564 0.11789904)
(0 0.0062577661 0.34903236)
(0 0.017528264 0.51074067)
(0 0.022851946 0.57110641)
(0 0.022591742 0.57109744)
(0 0.020574888 0.55697076)
(0 0.018770208 0.54645299)
(0 0.017267583 0.53987234)
(0 0.015853219 0.53511393)
(0 0.014462242 0.53130988)
(0 0.013094445 0.52820236)
(0 0.011750051 0.52565502)
(0 0.010428861 0.52356398)
(0 0.0091300572 0.52185074)
(0 0.0078522868 0.52045678)
(0 0.0065937902 0.51933814)
(0 0.0053523193 0.51846178)
(0 0.0041252265 0.51780312)
(0 0.0029095466 0.51734447)
(0 0.0017020839 0.51707396)
(0 0.00049949198 0.51698483)
(0 -0.00070161381 0.5170751)
(0 -0.0019046081 0.51734748)
(0 -0.0031127257 0.51780953)
(0 -0.0043290105 0.51847404)
(0 -0.0055561897 0.51935977)
(0 -0.0067965992 0.52049268)
(0 -0.0080520613 0.52190762)
(0 -0.0093238567 0.52365108)
(0 -0.010612665 0.52578522)
(0 -0.011918274 0.52839259)
(0 -0.013240242 0.53158145)
(0 -0.014576444 0.53553269)
(0 -0.015957808 0.5408105)
(0 -0.017513374 0.54897849)
(0 -0.01925243 0.56052031)
(0 -0.019973748 0.56267033)
(0 -0.016293546 0.51403156)
(0 -0.0067125805 0.3649929)
(0 0.00058484987 0.12660131)
(0 -0.00032788444 0.11542386)
(0 0.0055779792 0.34068913)
(0 0.01614717 0.50318087)
(0 0.02167518 0.56863434)
(0 0.021839765 0.57212736)
(0 0.020007795 0.55879106)
(0 0.018260027 0.54805907)
(0 0.016810641 0.54129798)
(0 0.015458233 0.53648383)
(0 0.014128409 0.53265806)
(0 0.012816276 0.52953084)
(0 0.011521694 0.52696347)
(0 0.010244666 0.52485286)
(0 0.0089846129 0.52312088)
(0 0.0077406427 0.52170938)
(0 0.0065115784 0.52057483)
(0 0.0052958397 0.5196846)
(0 0.004091503 0.51901447)
(0 0.0028963579 0.51854701)
(0 0.001707983 0.51827053)
(0 0.0005238149 0.51817837)
(0 -0.00065874374 0.51826855)
(0 -0.0018422758 0.51854372)
(0 -0.0030292306 0.51901128)
(0 -0.0042218728 0.51968374)
(0 -0.0054221665 0.52057954)
(0 -0.0066317169 0.52172418)
(0 -0.0078516723 0.52315202)
(0 -0.0090827195 0.524909)
(0 -0.010325097 0.5270567)
(0 -0.011578266 0.52967684)
(0 -0.012841753 0.53287806)
(0 -0.014115671 0.53685841)
(0 -0.015436727 0.54224512)
(0 -0.016931788 0.55057811)
(0 -0.018531408 0.56160892)
(0 -0.0189149 0.56096801)
(0 -0.015003904 0.50754652)
(0 -0.0058815431 0.35676437)
(0 0.00048048338 0.12386674)
(0 -0.00022320544 0.11316021)
(0 0.0050383643 0.33304723)
(0 0.014925003 0.49584847)
(0 0.020586125 0.56590629)
(0 0.02112639 0.5728864)
(0 0.019477688 0.56049555)
(0 0.017784076 0.54961345)
(0 0.016377082 0.54267106)
(0 0.015076648 0.53779666)
(0 0.013800343 0.53395142)
(0 0.012538081 0.53080913)
(0 0.011289094 0.52822665)
(0 0.010053382 0.52610129)
(0 0.0088304285 0.52435514)
(0 0.007619614 0.52293027)
(0 0.0064201615 0.52178347)
(0 0.0052309888 0.52088242)
(0 0.0040507398 0.5202032)
(0 0.0028778153 0.51972861)
(0 0.0017104341 0.51944713)
(0 0.00054668912 0.51935219)
(0 -0.00061535353 0.51944181)
(0 -0.0017776104 0.51971858)
(0 -0.0029418761 0.52018973)
(0 -0.0041097759 0.52086754)
(0 -0.0052826645 0.52177014)
(0 -0.006461585 0.52292264)
(0 -0.0076471986 0.52435898)
(0 -0.0088398014 0.52612469)
(0 -0.010039402 0.5282809)
(0 -0.011245365 0.53090877)
(0 -0.012457464 0.53411853)
(0 -0.013678517 0.53812855)
(0 -0.014950468 0.54362459)
(0 -0.016392581 0.55207956)
(0 -0.017858713 0.56247267)
(0 -0.017941194 0.5590158)
(0 -0.013866571 0.50120424)
(0 -0.0052214193 0.3491976)
(0 0.000381786 0.1214356)
(0 -0.00014094003 0.11106471)
(0 0.0046012662 0.32602199)
(0 0.013839088 0.48876076)
(0 0.019576115 0.56297374)
(0 0.020447498 0.57339635)
(0 0.018980361 0.56208712)
(0 0.017340372 0.5511221)
(0 0.015967617 0.54400075)
(0 0.014710795 0.53906061)
(0 0.013481314 0.53519635)
(0 0.012263699 0.53204206)
(0 0.011056331 0.52944807)
(0 0.0098590669 0.52731164)
(0 0.0086713399 0.52555489)
(0 0.0074926681 0.52411997)
(0 0.0063225326 0.52296386)
(0 0.0051602119 0.52205448)
(0 0.0040047849 0.52136813)
(0 0.0028551374 0.52088783)
(0 0.0017100082 0.52060218)
(0 0.00056802853 0.52050468)
(0 -0.00057218538 0.52059337)
(0 -0.0017120001 0.52087075)
(0 -0.0028526775 0.52134393)
(0 -0.0039953276 0.52202497)
(0 -0.0051408302 0.52293174)
(0 -0.0062898092 0.52408902)
(0 -0.0074425899 0.52553045)
(0 -0.008599235 0.52730124)
(0 -0.009759675 0.52946225)
(0 -0.010923345 0.53209437)
(0 -0.012090464 0.53531069)
(0 -0.01326683 0.53935255)
(0 -0.014498783 0.54495724)
(0 -0.015893119 0.55348895)
(0 -0.01723068 0.56313155)
(0 -0.017046054 0.55686258)
(0 -0.012861109 0.4950314)
(0 -0.004693664 0.34222185)
(0 0.00029358703 0.11923808)
(0 -7.8178765e-05 0.1091083)
(0 0.00423927 0.3195393)
(0 0.012870144 0.48192558)
(0 0.018636938 0.55987938)
(0 0.01979939 0.57367712)
(0 0.018511654 0.56356762)
(0 0.016926273 0.55258871)
(0 0.015581907 0.54529422)
(0 0.014361808 0.54028259)
(0 0.013173366 0.53639841)
(0 0.011995771 0.53323404)
(0 0.010826372 0.53063111)
(0 0.009664782 0.52848631)
(0 0.0085103194 0.52672168)
(0 0.0073625466 0.52527931)
(0 0.0062210962 0.52411623)
(0 0.0050854986 0.52320052)
(0 0.0039551577 0.52250866)
(0 0.0028293366 0.52202381)
(0 0.0017071882 0.52173467)
(0 0.00058777874 0.52163481)
(0 -0.00052983128 0.52172227)
(0 -0.0016465634 0.52199949)
(0 -0.0027632514 0.52247344)
(0 -0.0038806015 0.52315604)
(0 -0.0049991326 0.5240649)
(0 -0.006119167 0.5252246)
(0 -0.0072408132 0.52666851)
(0 -0.0083640177 0.52844171)
(0 -0.0094887377 0.5306049)
(0 -0.01061459 0.53323904)
(0 -0.011742389 0.53646139)
(0 -0.012881007 0.54053819)
(0 -0.014080136 0.54624922)
(0 -0.015429944 0.55481085)
(0 -0.016643073 0.56360344)
(0 -0.016222056 0.55454862)
(0 -0.011969034 0.48904389)
(0 -0.0042673429 0.33577239)
(0 0.00021786968 0.11722355)
(0 -3.1555211e-05 0.10727137)
(0 0.0039328087 0.31353497)
(0 0.012001984 0.4753444)
(0 0.017761252 0.55665878)
(0 0.019178951 0.57374705)
(0 0.018067747 0.56493836)
(0 0.016538913 0.55401527)
(0 0.015218985 0.54655698)
(0 0.014030007 0.54146838)
(0 0.012877649 0.53756244)
(0 0.011736033 0.53438898)
(0 0.010601311 0.53177887)
(0 0.0094727826 0.52962767)
(0 0.0083496238 0.5278572)
(0 0.0072313778 0.52640934)
(0 0.006117751 0.52524113)
(0 0.0050084414 0.52432069)
(0 0.0039030892 0.5236246)
(0 0.0028012439 0.52313614)
(0 0.0017023816 0.52284408)
(0 0.00060591279 0.52274204)
(0 -0.00048874967 0.52282805)
(0 -0.0015821747 0.5231045)
(0 -0.0026748601 0.52357826)
(0 -0.0037672025 0.5242611)
(0 -0.0048594555 0.52517049)
(0 -0.0059517335 0.52633082)
(0 -0.0070440193 0.52777533)
(0 -0.0081362276 0.52954903)
(0 -0.0092284084 0.53171266)
(0 -0.010320435 0.53434755)
(0 -0.011413822 0.53757647)
(0 -0.012520469 0.54169171)
(0 -0.013692236 0.54750486)
(0 -0.014999291 0.5560487)
(0 -0.016091596 0.56390435)
(0 -0.015461726 0.55210709)
(0 -0.011174163 0.48324982)
(0 -0.0039182214 0.3297911)
(0 0.00015483867 0.11535569)
(0 2.2126534e-06 0.1055403)
(0 0.0036681229 0.3079538)
(0 0.011221091 0.46901442)
(0 0.016942724 0.55334181)
(0 0.018583669 0.57362313)
(0 0.017645297 0.56620042)
(0 0.016175463 0.55540253)
(0 0.014877542 0.54779311)
(0 0.013715181 0.54262274)
(0 0.012594688 0.53869257)
(0 0.011485546 0.53551033)
(0 0.010382564 0.53289417)
(0 0.0092846839 0.53073795)
(0 0.0081909277 0.52896311)
(0 0.0071007808 0.52751128)
(0 0.0060139693 0.52633932)
(0 0.0049302944 0.52541539)
(0 0.0038495619 0.5247161)
(0 0.002771533 0.52422478)
(0 0.00169593 0.52393027)
(0 0.00062243034 0.52382621)
(0 -0.0004492798 0.52391062)
(0 -0.001519496 0.52418585)
(0 -0.0025884591 0.52465869)
(0 -0.003656335 0.52534081)
(0 -0.0047231888 0.52624956)
(0 -0.0057890008 0.52740922)
(0 -0.0068536961 0.52885299)
(0 -0.0079172152 0.53062594)
(0 -0.0089797384 0.53278891)
(0 -0.010041441 0.53542407)
(0 -0.011104616 0.53866084)
(0 -0.012184023 0.54281802)
(0 -0.013332431 0.54872706)
(0 -0.014597416 0.55720505)
(0 -0.015572205 0.56404858)
(0 -0.014758029 0.54956536)
(0 -0.010462629 0.47765193)
(0 -0.003627695 0.3242265)
(0 0.00010366381 0.11360857)
(0 2.6044239e-05 0.10390514)
(0 0.0034356207 0.30274847)
(0 0.010516185 0.46293002)
(0 0.016175988 0.54995365)
(0 0.018011573 0.57332122)
(0 0.017241483 0.56735495)
(0 0.015833281 0.55675039)
(0 0.014556114 0.54900557)
(0 0.013416786 0.5437496)
(0 0.012324581 0.53979233)
(0 0.011244879 0.53660109)
(0 0.010171039 0.53397956)
(0 0.0091016009 0.53181925)
(0 0.0080354401 0.53004109)
(0 0.0069719606 0.52858636)
(0 0.0059108711 0.52741172)
(0 0.0048520285 0.52648524)
(0 0.0037953487 0.52578354)
(0 0.0027407443 0.52528997)
(0 0.0016881199 0.52499339)
(0 0.00063735476 0.52488746)
(0 -0.0004116581 0.52497018)
(0 -0.0014590079 0.52524386)
(0 -0.0025047442 0.52571526)
(0 -0.0035488669 0.52639596)
(0 -0.0045913143 0.52730323)
(0 -0.0056319886 0.52846134)
(0 -0.0066708055 0.5299035)
(0 -0.0077077689 0.5316749)
(0 -0.0087432067 0.53383668)
(0 -0.0097776219 0.53647213)
(0 -0.010814141 0.53971855)
(0 -0.011870124 0.54392088)
(0 -0.012997967 0.54991756)
(0 -0.014220808 0.55828191)
(0 -0.015081282 0.56404903)
(0 -0.014104627 0.5469461)
(0 -0.0098227164 0.4722492)
(0 -0.0033817212 0.31903341)
(0 6.2986139e-05 0.11196372)
(0 4.2388468e-05 0.10235816)
(0 0.003228623 0.29787842)
(0 0.009877811 0.45708384)
(0 0.015456525 0.54651566)
(0 0.017461137 0.57285618)
(0 0.01685398 0.5684033)
(0 0.015509986 0.55805817)
(0 0.014253208 0.55019645)
(0 0.013134091 0.54485217)
(0 0.012067136 0.54086476)
(0 0.011014254 0.53766389)