/*--------------------------------*- C++ -*----------------------------------*\
  =========                 |
  \\      /  F ield         | OpenFOAM: The Open Source CFD Toolbox
   \\    /   O peration     | Website:  https://openfoam.org
    \\  /    A nd           | Version:  10
     \\/     M anipulation  |
\*---------------------------------------------------------------------------*/
FoamFile
{
    format      ascii;
    class       volVectorField;
    location    "0.29";
    object      U_0;
}
// * * * * * * * * * * * * * * * * * * * * * * * * * * * * * * * * * * * * * //

dimensions      [0 1 -1 0 0 0 0];

internalField   nonuniform List<vector> 
4000
(
(0 0.018637459 0.47773156)
(0 0.023510005 0.50886061)
(0 0.0081668579 0.50052522)
(0 0.005614616 0.50033634)
(0 0.004254628 0.50025746)
(0 0.0032549407 0.50016898)
(0 0.0025560827 0.50011969)
(0 0.0020545694 0.50009013)
(0 0.0016765619 0.50006981)
(0 0.0013822169 0.50005539)
(0 0.0011471619 0.50004499)
(0 0.00095505825 0.50003733)
(0 0.00079465189 0.5000316)
(0 0.00065796719 0.50002727)
(0 0.00053917589 0.50002399)
(0 0.00043389746 0.50002151)
(0 0.00033874464 0.50001967)
(0 0.00025101559 0.50001834)
(0 0.00016847776 0.50001744)
(0 8.9209406e-05 0.50001694)
(0 1.1477195e-05 0.50001679)
(0 -6.6370755e-05 0.50001699)
(0 -0.00014599651 0.50001755)
(0 -0.00022916453 0.5000185)
(0 -0.00031785216 0.50001991)
(0 -0.00041438039 0.50002185)
(0 -0.00052158556 0.50002446)
(0 -0.00064305872 0.50002793)
(0 -0.00078349346 0.50003252)
(0 -0.0009492157 0.50003863)
(0 -0.0011490348 0.50004688)
(0 -0.001395609 0.50005824)
(0 -0.0017076843 0.50007414)
(0 -0.0021156094 0.50009709)
(0 -0.002675298 0.50013481)
(0 -0.0034688585 0.50020237)
(0 -0.0045610668 0.50027142)
(0 -0.0065852448 0.50043364)
(0 -0.017659676 0.50675408)
(0 -0.013590235 0.47975558)
(0 0.037432696 0.44796925)
(0 0.050955768 0.53232616)
(0 0.02196934 0.5080429)
(0 0.016135659 0.50357319)
(0 0.012416093 0.50242317)
(0 0.0095159552 0.50162301)
(0 0.0075206098 0.50115663)
(0 0.006069867 0.50086594)
(0 0.004964529 0.50066802)
(0 0.0041000636 0.50052903)
(0 0.0034075208 0.50042906)
(0 0.0028399532 0.50035556)
(0 0.0023649876 0.50030067)
(0 0.0019595404 0.50025928)
(0 0.0016066518 0.50022793)
(0 0.0012935269 0.50020427)
(0 0.0010102415 0.50018667)
(0 0.00074885801 0.50017399)
(0 0.00050280289 0.50016548)
(0 0.00026640723 0.50016065)
(0 3.455106e-05 0.50015922)
(0 -0.00019764443 0.50016112)
(0 -0.00043508785 0.50016647)
(0 -0.00068298893 0.50017557)
(0 -0.00094717745 0.50018898)
(0 -0.001234482 0.50020754)
(0 -0.001553226 0.50023247)
(0 -0.0019139151 0.50026558)
(0 -0.0023302297 0.5003095)
(0 -0.002820509 0.5003681)
(0 -0.0034101273 0.50044735)
(0 -0.00413546 0.5005567)
(0 -0.0050495848 0.50071125)
(0 -0.006232366 0.50093659)
(0 -0.0078326867 0.50129435)
(0 -0.010126332 0.50191048)
(0 -0.0131074 0.50282504)
(0 -0.017426776 0.50608114)
(0 -0.038759508 0.52526814)
(0 -0.027894893 0.45021616)
(0 0.039888301 0.40982051)
(0 0.061428196 0.54930816)
(0 0.031983829 0.52188198)
(0 0.024355572 0.51008058)
(0 0.019193697 0.5065886)
(0 0.01497722 0.50452812)
(0 0.01200677 0.50327145)
(0 0.0097719444 0.50245844)
(0 0.0080364998 0.50190114)
(0 0.0066647916 0.50150877)
(0 0.0055565993 0.50122556)
(0 0.0046423894 0.50101682)
(0 0.0038734244 0.50086067)
(0 0.0032143092 0.50074276)
(0 0.0026387103 0.50065338)
(0 0.0021265752 0.50058587)
(0 0.0016622278 0.5005356)
(0 0.001233049 0.5004994)
(0 0.00082853269 0.50047507)
(0 0.00043958078 0.50046125)
(0 5.7952872e-05 0.50045716)
(0 -0.00032421161 0.50046259)
(0 -0.00071482026 0.50047787)
(0 -0.0011222515 0.50050388)
(0 -0.0015558494 0.50054218)
(0 -0.0020265077 0.50059513)
(0 -0.0025474239 0.50066625)
(0 -0.0031351297 0.5007606)
(0 -0.0038109542 0.50088558)
(0 -0.0046031361 0.50105212)
(0 -0.005550029 0.50127674)
(0 -0.0067056122 0.50158558)
(0 -0.0081470851 0.50202075)
(0 -0.0099785347 0.50265066)
(0 -0.012372776 0.50361499)
(0 -0.015717764 0.50519906)
(0 -0.019874083 0.50785377)
(0 -0.025187736 0.51641215)
(0 -0.047418166 0.53912715)
(0 -0.030854116 0.41487928)
(0 0.034791624 0.36172998)
(0 0.063839026 0.55456333)
(0 0.039380544 0.53747141)
(0 0.030083507 0.51849266)
(0 0.024112715 0.51197736)
(0 0.01927968 0.50849953)
(0 0.015736221 0.50626435)
(0 0.012954179 0.50475556)
(0 0.010743592 0.50370456)
(0 0.0089677683 0.50295628)
(0 0.0075136792 0.50241124)
(0 0.0063016597 0.50200698)
(0 0.005273906 0.50170319)
(0 0.004387162 0.50147297)
(0 0.003608612 0.50129797)
(0 0.0029128738 0.50116549)
(0 0.0022798423 0.5010667)
(0 0.0016931583 0.50099544)
(0 0.0011390826 0.50094752)
(0 0.00060563698 0.50092025)
(0 8.1922141e-05 0.50091217)
(0 -0.00044248129 0.50092286)
(0 -0.00097805292 0.50095295)
(0 -0.0015358614 0.50100416)
(0 -0.0021281844 0.50107946)
(0 -0.0027692262 0.50118345)
(0 -0.0034760242 0.50132284)
(0 -0.0042696544 0.5015073)
(0 -0.0051768949 0.50175083)
(0 -0.0062325234 0.50207392)
(0 -0.0074824063 0.50250703)
(0 -0.0089887739 0.50309717)
(0 -0.010838994 0.50391904)
(0 -0.013139625 0.50508902)
(0 -0.016026322 0.50680661)
(0 -0.019901652 0.50946717)
(0 -0.024733477 0.51427452)
(0 -0.031115372 0.52824679)
(0 -0.050321272 0.54407134)
(0 -0.028438957 0.37237906)
(0 0.027424313 0.3148431)
(0 0.062315034 0.5502406)
(0 0.044614771 0.55146771)
(0 0.033982225 0.52748822)
(0 0.027464224 0.51772253)
(0 0.022455285 0.51291995)
(0 0.018636853 0.50973158)
(0 0.015528122 0.50749281)
(0 0.013006112 0.50590014)
(0 0.010941997 0.50474713)
(0 0.0092243975 0.50389638)
(0 0.0077744604 0.50325944)
(0 0.0065322006 0.50277738)
(0 0.0054511942 0.50241001)
(0 0.0044953936 0.50212951)
(0 0.0036363343 0.50191644)
(0 0.0028510735 0.50175712)
(0 0.002120673 0.50164195)
(0 0.0014290402 0.50156439)
(0 0.00076201637 0.50152021)
(0 0.0001066383 0.50150708)
(0 -0.00054952307 0.50152436)
(0 -0.0012189652 0.50157303)
(0 -0.001914833 0.5016558)
(0 -0.0026516027 0.50177733)
(0 -0.0034458527 0.50194479)
(0 -0.004317208 0.50216857)
(0 -0.0052895522 0.50246356)
(0 -0.0063926346 0.50285101)
(0 -0.0076642291 0.50336158)
(0 -0.0091525977 0.50403989)
(0 -0.010920176 0.50495249)
(0 -0.013053797 0.50620219)
(0 -0.015657256 0.50794388)
(0 -0.018818405 0.51040392)
(0 -0.022898747 0.51405433)
(0 -0.028179755 0.52114498)
(0 -0.035709886 0.53932617)
(0 -0.050478719 0.54155406)
(0 -0.024086962 0.33055568)
(0 0.019837971 0.27519754)
(0 0.057990229 0.53974645)
(0 0.047364208 0.56256484)
(0 0.036477947 0.53660469)
(0 0.029636406 0.52350726)
(0 0.02467636 0.51740347)
(0 0.020774414 0.51336324)
(0 0.017509873 0.5104448)
(0 0.014814235 0.50832452)
(0 0.012566574 0.50676218)
(0 0.010665365 0.50559319)
(0 0.0090386141 0.50470845)
(0 0.007628707 0.504033)
(0 0.0063897834 0.50351465)
(0 0.0052853855 0.50311667)
(0 0.004286046 0.50281302)
(0 0.0033675377 0.50258516)
(0 0.0025095261 0.50242001)
(0 0.0016944889 0.50230856)
(0 0.00090684137 0.50224496)
(0 0.00013220847 0.50222601)
(0 -0.00064324104 0.50225079)
(0 -0.0014334097 0.50232067)
(0 -0.0022528499 0.50243938)
(0 -0.0031174549 0.50261336)
(0 -0.0040452095 0.5028524)
(0 -0.0050570869 0.50317064)
(0 -0.0061781505 0.50358807)
(0 -0.0074389479 0.50413288)
(0 -0.0088774055 0.50484501)
(0 -0.010540787 0.50578146)
(0 -0.012487385 0.50702451)
(0 -0.014797411 0.50869734)
(0 -0.017572646 0.51098156)
(0 -0.020867067 0.51411954)
(0 -0.024976952 0.51872961)
(0 -0.030511733 0.5282294)
(0 -0.038633279 0.54872369)
(0 -0.048511223 0.53398252)
(0 -0.019067733 0.29393567)
(0 0.013083253 0.24255459)
(0 0.0517991 0.52520043)
(0 0.04770994 0.57024859)
(0 0.037757527 0.54552512)
(0 0.030850826 0.52928882)
(0 0.0260739 0.5218019)
(0 0.022238289 0.51699821)
(0 0.018953922 0.51347381)
(0 0.016193614 0.51086535)
(0 0.013849558 0.50891291)
(0 0.01183526 0.50743317)
(0 0.010088138 0.5063011)
(0 0.0085555698 0.50542896)
(0 0.0071948089 0.50475461)
(0 0.0059710576 0.50423368)
(0 0.0048555006 0.50383423)
(0 0.0038239527 0.50353329)
(0 0.002855745 0.50331449)
(0 0.0019327927 0.50316648)
(0 0.0010388154 0.50308185)
(0 0.00015867288 0.50305653)
(0 -0.00072225951 0.50308936)
(0 -0.0016186772 0.50318206)
(0 -0.0025458821 0.50333937)
(0 -0.0035204368 0.50356941)
(0 -0.0045608429 0.50388448)
(0 -0.0056883359 0.50430216)
(0 -0.0069278273 0.5048471)
(0 -0.0083090199 0.50555355)
(0 -0.0098679822 0.5064693)
(0 -0.011648907 0.5076615)
(0 -0.013704038 0.509225)
(0 -0.016102882 0.51129777)
(0 -0.01894073 0.51407918)
(0 -0.022248948 0.51783803)
(0 -0.026268368 0.52346716)
(0 -0.031852061 0.53537473)
(0 -0.03976321 0.55589618)
(0 -0.044896801 0.52282051)
(0 -0.014091455 0.26264139)
(0 0.0077701928 0.21554069)
(0 0.044826151 0.50800974)
(0 0.046256127 0.57438094)
(0 0.038035956 0.55375155)
(0 0.031288474 0.5349608)
(0 0.026768869 0.52603063)
(0 0.023117139 0.52053883)
(0 0.019921118 0.51648871)
(0 0.017182256 0.51344217)
(0 0.014813338 0.51113123)
(0 0.012745935 0.50936016)
(0 0.010928 0.50799168)
(0 0.0093136306 0.50692819)
(0 0.0078648623 0.50609976)
(0 0.0065499541 0.5054558)
(0 0.0053419529 0.50495946)
(0 0.0042177517 0.50458395)
(0 0.0031572234 0.50431003)
(0 0.0021424694 0.50412424)
(0 0.0011571692 0.5040178)
(0 0.00018601213 0.5039858)
(0 -0.00078585304 0.50402687)
(0 -0.0017733456 0.50414307)
(0 -0.0027919162 0.50434003)
(0 -0.0038581318 0.50462742)
(0 -0.0049902521 0.50501973)
(0 -0.0062088918 0.50553757)
(0 -0.0075377855 0.50620956)
(0 -0.0090046134 0.50707501)
(0 -0.010642168 0.50818809)
(0 -0.012490027 0.50962404)
(0 -0.01459332 0.51148791)
(0 -0.017008247 0.51392858)
(0 -0.019816462 0.51715479)
(0 -0.023033927 0.52147958)
(0 -0.026883199 0.52818197)
(0 -0.032355118 0.54221993)
(0 -0.039407661 0.56050119)
(0 -0.040331295 0.50907987)
(0 -0.0097088361 0.23585245)
(0 0.0040050328 0.19355587)
(0 0.037899906 0.4894867)
(0 0.043687839 0.57524016)
(0 0.03756482 0.56084545)
(0 0.03115506 0.54036156)
(0 0.026914939 0.53001186)
(0 0.023514768 0.5239024)
(0 0.020480823 0.5194133)
(0 0.017827084 0.51598861)
(0 0.015489592 0.51335982)
(0 0.01341802 0.51132509)
(0 0.01157102 0.50973857)
(0 0.0099104344 0.5084956)
(0 0.0084040295 0.50752051)
(0 0.0070239803 0.50675793)
(0 0.0057460192 0.50616715)
(0 0.004548868 0.50571831)
(0 0.003413612 0.50538978)
(0 0.0023231412 0.50516636)
(0 0.0012616444 0.50503805)
(0 0.00021415217 0.50499928)
(0 -0.00083391839 0.50504848)
(0 -0.0018972144 0.50518798)
(0 -0.002990819 0.5054242)
(0 -0.0041307496 0.5057681)
(0 -0.0053344153 0.50623603)
(0 -0.0066211316 0.50685111)
(0 -0.0080127038 0.50764514)
(0 -0.0095339836 0.50866147)
(0 -0.011213566 0.50995917)
(0 -0.013085314 0.51161957)
(0 -0.015186741 0.51375532)
(0 -0.017560483 0.51652219)
(0 -0.020270684 0.52013122)
(0 -0.023325204 0.52496264)
(0 -0.026966089 0.53273934)
(0 -0.032207694 0.54839033)
(0 -0.037999693 0.56254222)
(0 -0.035417984 0.49378734)
(0 -0.0062012054 0.21324596)
(0 0.0015511772 0.17613285)
(0 0.031500054 0.47076108)
(0 0.040533266 0.57338576)
(0 0.036559998 0.56659892)
(0 0.030638287 0.545379)
(0 0.026672501 0.53370518)
(0 0.023543803 0.52703299)
(0 0.020710951 0.52218928)
(0 0.018183283 0.51845223)
(0 0.015917335 0.51555216)
(0 0.013878681 0.51328691)
(0 0.012035888 0.51150585)
(0 0.010358661 0.51009994)
(0 0.0088207457 0.50898968)
(0 0.0073986151 0.50811635)
(0 0.006071158 0.50743641)
(0 0.0048194036 0.50691769)
(0 0.003626116 0.50653674)
(0 0.0024754212 0.50627697)
(0 0.0013524449 0.50612742)
(0 0.00024297043 0.50608197)
(0 -0.00086691277 0.50613889)
(0 -0.001991174 0.50630076)
(0 -0.0031441148 0.5065746)
(0 -0.0043407718 0.50697241)
(0 -0.0055972508 0.50751202)
(0 -0.0069310938 0.50821847)
(0 -0.0083616852 0.50912598)
(0 -0.0099105903 0.51028086)
(0 -0.011601814 0.51174565)
(0 -0.013463075 0.51360572)
(0 -0.015524439 0.51597854)
(0 -0.017816531 0.51902266)
(0 -0.020386286 0.52294907)
(0 -0.023240944 0.52823473)
(0 -0.026661023 0.53703973)
(0 -0.031571057 0.55365862)
(0 -0.035910258 0.56230591)
(0 -0.030556433 0.47788419)
(0 -0.003591568 0.19460222)
(0 7.6795835e-05 0.16252419)
(0 0.025870879 0.45259952)
(0 0.037160646 0.56943323)
(0 0.035192439 0.57098941)
(0 0.029878341 0.54996361)
(0 0.026174595 0.53711459)
(0 0.023306622 0.52991323)
(0 0.020688014 0.52478522)
(0 0.018308247 0.52079933)
(0 0.016138946 0.51767533)
(0 0.014158817 0.51521466)
(0 0.012345007 0.51326516)
(0 0.01067444 0.51171558)
(0 0.009126506 0.51048423)
(0 0.0076819524 0.50951033)
(0 0.006322976 0.5087485)
(0 0.0050331437 0.508165)
(0 0.003797172 0.50773506)
(0 0.0026007185 0.5074411)
(0 0.0014301488 0.50727145)
(0 0.0002723037 0.50721957)
(0 -0.00088574921 0.50728359)
(0 -0.0020569947 0.50746629)
(0 -0.0032546463 0.50777515)
(0 -0.0044924542 0.50822295)
(0 -0.0057849229 0.50882858)
(0 -0.0071475437 0.50961845)
(0 -0.0085970397 0.51062844)
(0 -0.010151549 0.5119068)
(0 -0.011830553 0.51351825)
(0 -0.013655841 0.51555044)
(0 -0.015650625 0.51812313)
(0 -0.017835538 0.52139452)
(0 -0.020242951 0.52557904)
(0 -0.022886452 0.5312817)
(0 -0.026084126 0.54103059)
(0 -0.03057579 0.55793387)
(0 -0.03343265 0.56018744)
(0 -0.025998447 0.46205937)
(0 -0.001765632 0.17946148)
(0 -0.0007179114 0.15190648)
(0 0.02110856 0.43543383)
(0 0.033820332 0.5639315)
(0 0.033605198 0.57408973)
(0 0.028975904 0.55409472)
(0 0.025520787 0.54026437)
(0 0.022886867 0.53255363)
(0 0.020478975 0.52719315)
(0 0.018254992 0.52301386)
(0 0.016195516 0.51970976)
(0 0.014289821 0.51708757)
(0 0.012522147 0.51499585)
(0 0.010875601 0.51332272)
(0 0.0093345511 0.51198555)
(0 0.007883717 0.51092253)
(0 0.0065085023 0.51008729)
(0 0.005195035 0.50944515)
(0 0.0039300914 0.50897051)
(0 0.0027010182 0.50864513)
(0 0.001495607 0.50845686)
(0 0.00030195715 0.50839888)
(0 -0.00089167758 0.50846924)
(0 -0.0020970881 0.50867082)
(0 -0.003326199 0.50901145)
(0 -0.0045912869 0.5095044)
(0 -0.0059050982 0.51016929)
(0 -0.0072809678 0.51103336)
(0 -0.0087329294 0.51213349)
(0 -0.010275794 0.513519)
(0 -0.011924874 0.51525572)
(0 -0.013696619 0.51743231)
(0 -0.015608179 0.52016893)
(0 -0.017672022 0.52362146)
(0 -0.019909609 0.52801562)
(0 -0.022347136 0.53410969)
(0 -0.025326346 0.54468095)
(0 -0.029337056 0.56120664)
(0 -0.030798422 0.55658197)
(0 -0.021897611 0.44675116)
(0 -0.00056506074 0.16723656)
(0 -0.0010700365 0.14358238)
(0 0.017203958 0.41947815)
(0 0.030667928 0.55733986)
(0 0.0319162 0.57602105)
(0 0.028005055 0.5577647)
(0 0.024784626 0.54318037)
(0 0.022351001 0.53497689)
(0 0.020139481 0.52941896)
(0 0.018069298 0.5250918)
(0 0.016124079 0.52164605)
(0 0.014301204 0.51889312)
(0 0.012590522 0.51668388)
(0 0.010980174 0.51490678)
(0 0.0094587246 0.5134791)
(0 0.0080143968 0.51233881)
(0 0.0066355372 0.51143916)
(0 0.0053107108 0.51074504)
(0 0.0040287315 0.51023046)
(0 0.0027786771 0.50987679)
(0 0.001549849 0.50967162)
(0 0.00033171333 0.50960794)
(0 -0.00088617152 0.50968377)
(0 -0.0021142833 0.50990204)
(0 -0.0033631506 0.51027078)
(0 -0.0046434944 0.51080355)
(0 -0.0059662619 0.51152034)
(0 -0.0073426598 0.51244884)
(0 -0.0087841564 0.51362637)
(0 -0.010302491 0.51510262)
(0 -0.011909302 0.51694377)
(0 -0.013616463 0.51923855)
(0 -0.015435972 0.52210617)
(0 -0.017373813 0.52569953)
(0 -0.01944458 0.53026581)
(0 -0.021691962 0.53673044)
(0 -0.024460923 0.54797068)
(0 -0.027956559 0.56352078)
(0 -0.028178157 0.55185121)
(0 -0.018328103 0.43222422)
(0 0.00016857803 0.15738142)
(0 -0.0011531406 0.1370005)
(0 0.014079588 0.40481284)
(0 0.027783492 0.55003261)
(0 0.030213496 0.57693084)
(0 0.027018216 0.56098)
(0 0.024019111 0.54588656)
(0 0.021750911 0.53721001)
(0 0.019714733 0.53147579)
(0 0.017789508 0.52703641)
(0 0.015956744 0.52348161)
(0 0.014219445 0.52062493)
(0 0.012571635 0.51832043)
(0 0.011005376 0.51645751)
(0 0.0095126184 0.51495393)
(0 0.0080845556 0.51374793)
(0 0.0067121187 0.51279285)
(0 0.0053860928 0.51205356)
(0 0.004097214 0.51150395)
(0 0.0028362461 0.51112528)
(0 0.0015940012 0.51090501)
(0 0.00036134162 0.51083607)
(0 -0.00087082762 0.51091644)
(0 -0.0021116288 0.51114909)
(0 -0.0033701674 0.51154212)
(0 -0.0046556101 0.51210919)
(0 -0.005977154 0.51287042)
(0 -0.0073439991 0.51385359)
(0 -0.0087652724 0.51509603)
(0 -0.010249992 0.51664735)
(0 -0.011806675 0.51857349)
(0 -0.013443454 0.52096264)
(0 -0.015168162 0.52393211)
(0 -0.016981958 0.52763243)
(0 -0.018896464 0.53234332)
(0 -0.020975508 0.53915807)
(0 -0.023545069 0.55089329)
(0 -0.026516779 0.56495882)
(0 -0.025683118 0.54631294)
(0 -0.015301576 0.41862653)
(0 0.00057341589 0.14943327)
(0 -0.0010855535 0.13172106)
(0 0.011624804 0.39142918)
(0 0.025194865 0.54230342)
(0 0.028555907 0.57697336)
(0 0.026048793 0.56376031)
(0 0.023259613 0.54840583)
(0 0.021125125 0.53928145)
(0 0.019240183 0.53338104)
(0 0.017446857 0.52885565)
(0 0.015720577 0.52521856)
(0 0.014067549 0.52228107)
(0 0.012484694 0.5199007)
(0 0.010966989 0.51796821)
(0 0.0095090007 0.51640212)
(0 0.0081043351 0.51514125)
(0 0.0067461136 0.51413933)
(0 0.0054270722 0.51336147)
(0 0.0041396947 0.51278167)
(0 0.0028763228 0.51238127)
(0 0.0016292185 0.51214772)
(0 0.00039060736 0.51207396)
(0 -0.00084727847 0.51215796)
(0 -0.0020922255 0.51240267)
(0 -0.0033519517 0.51281617)
(0 -0.0046341351 0.51341212)
(0 -0.0059463356 0.51421052)
(0 -0.0072959299 0.51523902)
(0 -0.0086899864 0.51653466)
(0 -0.010135203 0.51814664)
(0 -0.01163755 0.52014027)
(0 -0.013202233 0.52260279)
(0 -0.014833912 0.52564917)
(0 -0.016530508 0.5294293)
(0 -0.018303989 0.5342663)
(0 -0.020238425 0.5414092)
(0 -0.022620352 0.5534564)
(0 -0.025078794 0.56562521)
(0 -0.023376003 0.54023298)
(0 -0.012788414 0.40601993)
(0 0.00075856357 0.1429978)
(0 -0.00094371499 0.12739846)
(0 0.0097208346 0.37926109)
(0 0.022898601 0.53437268)
(0 0.026978635 0.57629366)
(0 0.025115537 0.56613284)
(0 0.022527378 0.55075887)
(0 0.020500322 0.54121891)
(0 0.018742294 0.53515433)
(0 0.017065843 0.53056056)
(0 0.015437648 0.52686223)
(0 0.013864888 0.52386282)
(0 0.012346333 0.52142302)
(0 0.010879027 0.51943508)
(0 0.0094594576 0.51781837)
(0 0.008083119 0.51651245)
(0 0.0067449249 0.51547161)
(0 0.0054392725 0.51466135)
(0 0.0041601853 0.51405596)
(0 0.0029014357 0.51363695)
(0 0.0016566305 0.51339187)
(0 0.00041928042 0.51331371)
(0 -0.00081712155 0.51340044)
(0 -0.0020590927 0.51365498)
(0 -0.0033130454 0.51408533)
(0 -0.0045852792 0.514705)
(0 -0.0058818729 0.51553378)
(0 -0.007208599 0.51659898)
(0 -0.0085707751 0.51793719)
(0 -0.0099731939 0.51959697)
(0 -0.011419828 0.52164284)
(0 -0.012913701 0.52416086)
(0 -0.014457188 0.52726356)
(0 -0.016046444 0.53110307)
(0 -0.0176963 0.53605518)
(0 -0.01950891 0.54350142)
(0 -0.021714833 0.55567743)
(0 -0.023684633 0.56562996)
(0 -0.021284889 0.53382281)
(0 -0.010736114 0.39440389)
(0 0.00080433809 0.13774164)
(0 -0.0007751146 0.12377159)
(0 0.0082550275 0.36821164)
(0 0.020874435 0.52639984)
(0 0.025499584 0.57501956)
(0 0.024227258 0.5681272)
(0 0.021833572 0.55296267)
(0 0.01989367 0.54304705)
(0 0.018239848 0.53681544)
(0 0.016664935 0.5321636)
(0 0.015125342 0.5284199)
(0 0.013627271 0.52537368)
(0 0.012170534 0.52288796)
(0 0.010753569 0.52085647)
(0 0.009374195 0.51919943)
(0 0.0080293273 0.51785711)
(0 0.0067153002 0.51678445)
(0 0.0054278859 0.5159474)
(0 0.0041624282 0.51532065)
(0 0.0029139609 0.51488591)
(0 0.0016773034 0.51463094)
(0 0.00044714301 0.51454878)
(0 -0.00078186508 0.51463741)
(0 -0.0020150682 0.5148997)
(0 -0.0032576859 0.51534353)
(0 -0.0045147785 0.51598219)
(0 -0.0057911226 0.51683516)
(0 -0.0070911196 0.51792934)
(0 -0.0084186438 0.51930074)
(0 -0.0097769782 0.52099721)
(0 -0.011168596 0.52308242)
(0 -0.012594963 0.52564117)
(0 -0.01405694 0.5287839)
(0 -0.015550209 0.53266843)
(0 -0.017094188 0.53773025)
(0 -0.018805221 0.54545117)
(0 -0.020846085 0.55757878)
(0 -0.022360872 0.56507795)
(0 -0.019414899 0.52724437)
(0 -0.0090819136 0.38373788)
(0 0.00076724475 0.13339235)
(0 -0.00060773839 0.12065022)
(0 0.0071281932 0.35817192)
(0 0.019094355 0.51849702)
(0 0.024124634 0.57326003)
(0 0.02338643 0.56977272)
(0 0.02118267 0.55503014)
(0 0.019315272 0.54478635)
(0 0.017745564 0.5383827)
(0 0.016257576 0.53367741)
(0 0.014796927 0.52989971)
(0 0.013367233 0.52681839)
(0 0.011968738 0.5242976)
(0 0.010600757 0.52223238)
(0 0.0092619694 0.52054367)
(0 0.0079503165 0.5191724)
(0 0.006663225 0.5180741)
(0 0.0053975754 0.51721524)
(0 0.0041498164 0.51657089)
(0 0.0029160675 0.51612305)
(0 0.001692215 0.51585965)
(0 0.00047399617 0.51577385)
(0 -0.00074288987 0.51586363)
(0 -0.0019627398 0.5161318)
(0 -0.0031897116 0.51658607)
(0 -0.0044277795 0.51723949)
(0 -0.0056806042 0.51811121)
(0 -0.0069514465 0.51922762)
(0 -0.0082430257 0.52062416)
(0 -0.0095574707 0.52234797)
(0 -0.010896182 0.5244619)
(0 -0.012259583 0.52704958)
(0 -0.013647639 0.5302199)
(0 -0.015056674 0.53414029)
(0 -0.016511681 0.53931002)
(0 -0.018138164 0.54727283)
(0 -0.020023843 0.55918485)
(0 -0.021121995 0.56406389)
(0 -0.0177568 0.52061828)
(0 -0.0077611037 0.37395898)
(0 0.00068569441 0.12973459)
(0 -0.00045650701 0.11789907)
(0 0.0062577492 0.3490324)
(0 0.017528232 0.51074069)
(0 0.022851908 0.57110639)
(0 0.022591707 0.5710974)
(0 0.02057486 0.55697071)
(0 0.018770189 0.54645293)
(0 0.017267573 0.53987227)
(0 0.015853219 0.53511386)
(0 0.014462253 0.5313098)
(0 0.013094468 0.52820228)
(0 0.011750087 0.52565493)
(0 0.010428911 0.52356388)
(0 0.0091301213 0.52185065)
(0 0.0078523659 0.52045668)
(0 0.0065938847 0.51933804)
(0 0.0053524294 0.51846167)
(0 0.0041253525 0.51780301)
(0 0.0029096886 0.51734437)
(0 0.0017022416 0.51707386)
(0 0.00049966523 0.51698474)
(0 -0.00070142542 0.517075)
(0 -0.0019044052 0.51734739)
(0 -0.0031125088 0.51780945)
(0 -0.0043287805 0.51847396)
(0 -0.0055559477 0.51935971)
(0 -0.0067963463 0.52049262)
(0 -0.0080517986 0.52190757)
(0 -0.0093235857 0.52365105)
(0 -0.010612387 0.52578519)
(0 -0.011917991 0.52839258)
(0 -0.013239956 0.53158145)
(0 -0.014576156 0.53553271)
(0 -0.015957519 0.54081053)
(0 -0.017513083 0.54897851)
(0 -0.019252135 0.56052033)
(0 -0.019973468 0.56267049)
(0 -0.016293332 0.51403205)
(0 -0.0067124748 0.36499366)
(0 0.00058486463 0.1266018)
(0 -0.00032788589 0.1154239)
(0 0.0055779591 0.3406892)
(0 0.016147131 0.5031809)
(0 0.021675132 0.56863432)
(0 0.021839719 0.57212731)
(0 0.020007758 0.55879099)
(0 0.01826 0.548059)
(0 0.016810623 0.5412979)
(0 0.015458227 0.53648374)
(0 0.014128416 0.53265796)
(0 0.012816296 0.52953074)
(0 0.011521728 0.52696337)
(0 0.010244715 0.52485275)
(0 0.0089846785 0.52312076)
(0 0.007740725 0.52170926)
(0 0.006511678 0.52057471)
(0 0.0052959569 0.51968448)
(0 0.0040916381 0.51901435)
(0 0.0028965109 0.51854689)
(0 0.0017081538 0.51827041)
(0 0.00052400326 0.51817825)
(0 -0.00065853824 0.51826844)
(0 -0.0018420538 0.51854362)
(0 -0.0030289927 0.51901118)
(0 -0.00422162 0.51968365)
(0 -0.0054218999 0.52057946)
(0 -0.0066314377 0.52172411)
(0 -0.0078513818 0.52315196)
(0 -0.0090824193 0.52490896)
(0 -0.010324788 0.52705667)
(0 -0.011577951 0.52967682)
(0 -0.012841434 0.53287806)
(0 -0.014115349 0.53685842)
(0 -0.015436404 0.54224514)
(0 -0.016931461 0.55057812)
(0 -0.018531077 0.56160895)
(0 -0.018914589 0.56096821)
(0 -0.015003669 0.50754709)
(0 -0.0058814274 0.35676525)
(0 0.00048049857 0.12386729)
(0 -0.00022320698 0.11316026)
(0 0.0050383406 0.33304732)
(0 0.014924956 0.49584852)
(0 0.020586066 0.56590627)
(0 0.021126333 0.57288634)
(0 0.01947764 0.56049548)
(0 0.017784039 0.54961337)
(0 0.016377056 0.54267097)
(0 0.015076634 0.53779656)
(0 0.013800343 0.53395132)
(0 0.012538097 0.53080901)
(0 0.011289125 0.52822653)
(0 0.010053431 0.52610116)
(0 0.0088304951 0.52435501)
(0 0.0076196994 0.52293014)
(0 0.0064202663 0.52178333)
(0 0.0052311134 0.52088228)
(0 0.0040508844 0.52020306)
(0 0.00287798 0.51972847)
(0 0.0017106189 0.519447)
(0 0.00054689357 0.51935206)
(0 -0.00061512974 0.51944168)
(0 -0.0017773678 0.51971846)
(0 -0.0029416156 0.52018962)
(0 -0.0041094985 0.52086744)
(0 -0.0052823713 0.52177005)
(0 -0.0064612774 0.52292256)
(0 -0.0076468779 0.52435891)
(0 -0.0088394694 0.52612464)
(0 -0.01003906 0.52828086)
(0 -0.011245016 0.53090875)
(0 -0.012457109 0.53411852)
(0 -0.013678158 0.53812856)
(0 -0.014950106 0.54362461)
(0 -0.016392214 0.55207958)
(0 -0.017858342 0.56247271)
(0 -0.017940848 0.55901605)
(0 -0.013866313 0.50120492)
(0 -0.0052212927 0.3491986)
(0 0.0003818016 0.12143621)
(0 -0.00014094169 0.11106477)
(0 0.0046012385 0.32602211)
(0 0.013839032 0.48876083)
(0 0.019576043 0.56297373)
(0 0.020447426 0.57339628)
(0 0.0189803 0.56208703)
(0 0.017340323 0.55112201)
(0 0.015967581 0.54400065)
(0 0.014710772 0.53906049)
(0 0.013481307 0.53519623)
(0 0.012263709 0.53204193)
(0 0.011056359 0.52944793)
(0 0.0098591138 0.52731149)
(0 0.008671407 0.52555474)
(0 0.0074927562 0.52411981)
(0 0.0063226424 0.5229637)
(0 0.0051603438 0.52205432)
(0 0.0040049392 0.52136797)
(0 0.0028553143 0.52088767)
(0 0.0017102077 0.52060202)
(0 0.00056825 0.52050453)
(0 -0.00057194212 0.52059322)
(0 -0.0017117355 0.52087061)
(0 -0.0028523926 0.52134379)
(0 -0.0039950236 0.52202485)
(0 -0.0051405082 0.52293163)
(0 -0.0062894707 0.52408893)
(0 -0.0074422364 0.52553037)
(0 -0.0085988683 0.52730117)
(0 -0.009759297 0.5294622)
(0 -0.010922958 0.53209434)
(0 -0.01209007 0.53531068)
(0 -0.013266431 0.53935256)
(0 -0.01449838 0.54495726)
(0 -0.015892708 0.55348896)
(0 -0.017230266 0.5631316)
(0 -0.017045671 0.55686288)
(0 -0.012860827 0.4950322)
(0 -0.0046935258 0.34222298)
(0 0.00029360308 0.11923876)
(0 -7.8180514e-05 0.10910838)
(0 0.0042392378 0.31953944)
(0 0.012870078 0.48192568)
(0 0.018636851 0.55987938)
(0 0.019799303 0.57367705)
(0 0.018511578 0.56356753)
(0 0.016926211 0.55258861)
(0 0.015581859 0.54529411)
(0 0.014361775 0.54028246)
(0 0.01317335 0.53639828)
(0 0.011995774 0.53323389)
(0 0.010826395 0.53063095)
(0 0.0096648264 0.52848614)
(0 0.0085103863 0.52672151)
(0 0.0073626369 0.52527913)
(0 0.0062212107 0.52411605)
(0 0.0050856378 0.52320034)
(0 0.0039553221 0.52250848)
(0 0.0028295262 0.52202362)
(0 0.0017074032 0.52173449)
(0 0.00058801825 0.52163463)
(0 -0.0005295673 0.52172209)
(0 -0.0016462752 0.52199932)
(0 -0.0027629405 0.52247329)
(0 -0.0038802688 0.52315589)
(0 -0.0049987796 0.52406477)
(0 -0.0061187951 0.52522449)
(0 -0.0072404242 0.52666842)
(0 -0.0083636134 0.52844163)
(0 -0.0094883203 0.53060484)
(0 -0.010614162 0.533239)
(0 -0.011741952 0.53646137)
(0 -0.012880564 0.54053819)
(0 -0.014079686 0.54624922)
(0 -0.015429486 0.55481085)
(0 -0.016642612 0.5636035)
(0 -0.016221633 0.55454899)
(0 -0.011968725 0.48904482)
(0 -0.0042671923 0.33577367)
(0 0.00021788619 0.11722431)
(0 -3.1557061e-05 0.10727147)
(0 0.0039327717 0.31353515)
(0 0.012001906 0.47534453)
(0 0.017761149 0.55665879)
(0 0.019178846 0.57374697)
(0 0.018067652 0.56493825)
(0 0.016538835 0.55401515)
(0 0.015218923 0.54655685)
(0 0.014029962 0.54146823)
(0 0.012877622 0.53756228)
(0 0.011736028 0.53438881)
(0 0.010601328 0.53177869)
(0 0.0094728233 0.52962748)
(0 0.0083496896 0.527857)
(0 0.0072314697 0.52640914)
(0 0.0061178699 0.52524092)
(0 0.0050085878 0.52432048)
(0 0.0039032637 0.52362439)
(0 0.0028014465 0.52313592)
(0 0.0017026126 0.52284387)
(0 0.00060617141 0.52274184)
(0 -0.00048846359 0.52282785)
(0 -0.0015818615 0.52310431)
(0 -0.0026745215 0.52357808)
(0 -0.0037668393 0.52426094)
(0 -0.0048590691 0.52517035)
(0 -0.0059513256 0.52633069)
(0 -0.0070435918 0.52777522)
(0 -0.0081357825 0.52954894)
(0 -0.009227948 0.53171258)
(0 -0.010319962 0.5343475)
(0 -0.011413338 0.53757644)
(0 -0.012519978 0.54169171)
(0 -0.013691736 0.54750486)
(0 -0.01499878 0.55604869)
(0 -0.016091084 0.56390443)
(0 -0.015461259 0.55210754)
(0 -0.011173824 0.4832509)
(0 -0.0039180576 0.32979254)
(0 0.00015485566 0.11535652)
(0 2.2106966e-06 0.10554041)
(0 0.0036680805 0.30795403)
(0 0.011221001 0.46901458)
(0 0.016942603 0.55334183)
(0 0.018583543 0.57362305)
(0 0.017645182 0.5662003)
(0 0.016175366 0.5554024)
(0 0.014877463 0.54779296)
(0 0.013715121 0.54262258)
(0 0.01259465 0.53869239)
(0 0.01148553 0.53551014)
(0 0.010382574 0.53289397)
(0 0.0092847196 0.53073774)
(0 0.0081909913 0.52896289)
(0 0.0071008735 0.52751104)
(0 0.006014092 0.52633909)
(0 0.0049304478 0.52541515)
(0 0.0038497465 0.52471586)
(0 0.0027717489 0.52422454)
(0 0.0016961776 0.52393003)
(0 0.00062270899 0.52382598)
(0 -0.00044897039 0.52391039)
(0 -0.0015191564 0.52418563)
(0 -0.0025880908 0.52465848)
(0 -0.0036559389 0.52534062)
(0 -0.0047227666 0.52624938)
(0 -0.0057885542 0.52740906)
(0 -0.0068532271 0.52885286)
(0 -0.007916726 0.53062582)
(0 -0.0089792315 0.53278883)
(0 -0.010040919 0.535424)
(0 -0.011104082 0.5386608)
(0 -0.012183478 0.54281801)
(0 -0.013331876 0.54872705)
(0 -0.014596848 0.55720504)
(0 -0.015571638 0.56404869)
(0 -0.014757515 0.5495659)
(0 -0.010462258 0.47765317)
(0 -0.003627517 0.32422811)
(0 0.00010368132 0.11360949)
(0 2.6042184e-05 0.10390528)
(0 0.0034355724 0.30274875)
(0 0.010516081 0.46293023)
(0 0.016175846 0.54995369)
(0 0.018011422 0.57332114)
(0 0.017241344 0.56735481)
(0 0.015833163 0.55675023)
(0 0.014556016 0.5490054)
(0 0.013416709 0.54374942)
(0 0.012324527 0.53979213)
(0 0.011244852 0.53660087)
(0 0.010171039 0.53397933)
(0 0.0091016301 0.531819)
(0 0.0080355002 0.53004084)
(0 0.0069720529 0.5285861)
(0 0.0059109968 0.52741145)
(0 0.0048521884 0.52648497)
(0 0.0037955433 0.52578327)
(0 0.0027409739 0.5252897)
(0 0.0016883846 0.52499312)
(0 0.00063765431 0.52488719)
(0 -0.00041132419 0.52496992)
(0 -0.0014586403 0.52524362)
(0 -0.0025043442 0.52571503)
(0 -0.0035484358 0.52639574)
(0 -0.0045908537 0.52730304)
(0 -0.0056315004 0.52846116)
(0 -0.0066702918 0.52990334)
(0 -0.007707232 0.53167477)
(0 -0.0087426494 0.53383657)
(0 -0.0097770469 0.53647206)
(0 -0.010813551 0.53971851)
(0 -0.011869522 0.54392086)
(0 -0.012997352 0.54991754)
(0 -0.014220178 0.55828189)
(0 -0.015080653 0.56404916)
(0 -0.014104061 0.54694674)
(0 -0.009822312 0.47225062)
(0 -0.003381528 0.31903522)
(0 6.3004203e-05 0.11196474)
(0 4.2386332e-05 0.10235831)
(0 0.0032285683 0.29787875)
(0 0.0098776913 0.4570841)
(0 0.015456359 0.54651573)
(0 0.017460959 0.57285609)
(0 0.016853815 0.56840314)
(0 0.015509843 0.558058)
(0 0.014253087 0.55019626)
(0 0.013133995 0.54485196)
(0 0.012067065 0.54086453)
(0 0.011014212 0.53766364)
(0 0.0099672473 0.53503705)