/*--------------------------------*- C++ -*----------------------------------*\
  =========                 |
  \\      /  F ield         | OpenFOAM: The Open Source CFD Toolbox
   \\    /   O peration     | Website:  https://openfoam.org
    \\  /    A nd           | Version:  10
     \\/     M anipulation  |
\*---------------------------------------------------------------------------*/
FoamFile
{
    format      ascii;
    class       surfaceScalarField;
    location    "0.14";
    object      phi;
}
// * * * * * * * * * * * * * * * * * * * * * * * * * * * * * * * * * * * * * //

dimensions      [1 0 -1 0 0 0 0];

internalField   nonuniform List<scalar> 
7860
(
3.9894226e-08
5.288138e-07
1.2191379e-08
5.9641063e-07
7.4265164e-09
5.734726e-07
5.4978434e-09
5.7063637e-07
4.1133696e-09
5.7009214e-07
3.1995266e-09
5.6962148e-07
2.5575799e-09
5.6934957e-07
2.0778358e-09
5.6918735e-07
1.7079629e-09
5.6907747e-07
1.4154339e-09
5.6900012e-07
1.1784507e-09
5.6894456e-07
9.8224737e-10
5.6890378e-07
8.1647784e-10
5.6887334e-07
6.7364906e-10
5.6885039e-07
5.4818513e-10
5.6883302e-07
4.3582262e-10
5.6881992e-07
3.332051e-10
5.6881017e-07
2.3760235e-10
5.6880316e-07
1.4670858e-10
5.6879844e-07
5.8489638e-11
5.6879577e-07
-2.8940222e-11
5.6879498e-07
-1.17426e-10
5.6879604e-07
-2.0887748e-10
5.68799e-07
-3.0537534e-10
5.6880405e-07
-4.0930365e-10
5.6881148e-07
-5.2351273e-10
5.6882176e-07
-6.5154012e-10
5.6883559e-07
-7.979233e-10
5.6885395e-07
-9.6866043e-10
5.688783e-07
-1.1719171e-09
5.6891083e-07
-1.4191993e-09
5.6895486e-07
-1.727324e-09
5.6901571e-07
-2.1212764e-09
5.6910155e-07
-2.6409458e-09
5.6922728e-07
-3.3687499e-09
5.6943543e-07
-4.4602827e-09
5.6979918e-07
-6.0060953e-09
5.7025348e-07
-9.5054078e-09
5.7220701e-07
-2.9572685e-08
5.8877502e-07
5.3913523e-07
5.9668367e-08
4.6914546e-07
3.6661072e-08
6.1941792e-07
2.2623433e-08
5.8751023e-07
1.6248575e-08
5.7701123e-07
1.2285389e-08
5.7405533e-07
9.6011698e-09
5.723057e-07
7.672546e-09
5.7127819e-07
6.2314717e-09
5.7062843e-07
5.1223382e-09
5.701866e-07
4.2450633e-09
5.6987739e-07
3.5343034e-09
5.6965532e-07
2.9458815e-09
5.694922e-07
2.4487436e-09
5.6937048e-07
2.0204059e-09
5.6927873e-07
1.6441453e-09
5.6920928e-07
1.3071754e-09
5.6915689e-07
9.994303e-10
5.6911792e-07
7.127224e-10
5.6908986e-07
4.4013678e-10
5.6907103e-07
1.7557237e-10
5.6906033e-07
-8.6626798e-11
5.6905718e-07
-3.5199379e-10
5.690614e-07
-6.2625077e-10
5.6907326e-07
-9.1564038e-10
5.6909344e-07
-1.2273124e-09
5.6912315e-07
-1.5698148e-09
5.6916427e-07
-1.9537562e-09
5.6921953e-07
-2.3927444e-09
5.6929293e-07
-2.9047749e-09
5.6939033e-07
-3.5143535e-09
5.6952041e-07
-4.2559137e-09
5.6969642e-07
-5.1798367e-09
5.6993963e-07
-6.3627671e-09
5.7028448e-07
-7.923449e-09
5.7078796e-07
-1.0065131e-08
5.7157711e-07
-1.3193996e-08
5.7292804e-07
-1.8124862e-08
5.7518435e-07
-2.816749e-08
5.8224964e-07
-4.5794887e-08
6.0640242e-07
4.9334034e-07
6.0002528e-08
4.09143e-07
5.0478189e-08
6.2894225e-07
3.3361987e-08
6.0462642e-07
2.4808839e-08
5.8556437e-07
1.9314239e-08
5.7954992e-07
1.5322575e-08
5.7629737e-07
1.2352098e-08
5.7424867e-07
1.009343e-08
5.7288709e-07
8.333178e-09
5.7194686e-07
6.9282046e-09
5.7128237e-07
5.7824166e-09
5.7080111e-07
4.8290348e-09
5.7044558e-07
4.0202801e-09
5.7017923e-07
3.3211524e-09
5.6997786e-07
2.7053732e-09
5.6982506e-07
2.1526952e-09
5.6970957e-07
1.6470778e-09
5.6962353e-07
1.175406e-09
5.6956153e-07
7.265568e-10
5.6951988e-07
2.9068577e-10
5.694962e-07
-1.4135017e-10
5.6948921e-07
-5.7849881e-10
5.6949855e-07
-1.0300059e-09
5.6952477e-07
-1.5059356e-09
5.6956937e-07
-2.0177729e-09
5.6963499e-07
-2.5791835e-09
5.6972568e-07
-3.2070255e-09
5.6984737e-07
-3.9227603e-09
5.7000867e-07
-4.7545033e-09
5.7022208e-07
-5.7400873e-09
5.7050599e-07
-6.9317219e-09
5.7088806e-07
-8.4036321e-09
5.7141154e-07
-1.0265247e-08
5.7214609e-07
-1.2678479e-08
5.7320119e-07
-1.5876537e-08
5.7477517e-07
-2.0221389e-08
5.7727289e-07
-2.6690903e-08
5.8165386e-07
-3.8930704e-08
5.9448944e-07
-4.815449e-08
6.156262e-07
4.4518585e-07
5.4870917e-08
3.542722e-07
5.7438355e-08
6.2637485e-07
4.0454009e-08
6.2161074e-07
3.0765451e-08
5.9525292e-07
2.4629586e-08
5.8568579e-07
1.9938969e-08
5.8098798e-07
1.6300074e-08
5.7788757e-07
1.3454401e-08
5.7573277e-07
1.1189811e-08
5.7421145e-07
9.3545795e-09
5.731176e-07
7.8408018e-09
5.7231489e-07
6.5699692e-09
5.7171641e-07
5.4842152e-09
5.7126498e-07
4.5402066e-09
5.7092187e-07
3.7048277e-09
5.7066044e-07
2.9522001e-09
5.7046219e-07
2.2615846e-09
5.7031415e-07
1.6158638e-09
5.7020725e-07
1.00041e-09
5.7013533e-07
4.0220567e-10
5.7009441e-07
-1.9088003e-10
5.700823e-07
-7.9073142e-10
5.700984e-07
-1.4096073e-09
5.7014364e-07
-2.0607955e-09
5.7022056e-07
-2.7593637e-09
5.7033356e-07
-3.5230871e-09
5.704894e-07
-4.373656e-09
5.7069794e-07
-5.338309e-09
5.7097332e-07
-6.4521133e-09
5.7133588e-07
-7.7612258e-09
5.718151e-07
-9.3274607e-09
5.7245429e-07
-1.1234675e-08
5.7331876e-07
-1.3599174e-08
5.7451059e-07
-1.6582353e-08
5.7618437e-07
-2.0382069e-08
5.7857488e-07
-2.5265033e-08
5.8215586e-07
-3.2490304e-08
5.8887913e-07
-4.5074303e-08
6.0707344e-07
-4.6531852e-08
6.1708375e-07
3.98654e-07
4.7956131e-08
3.0631625e-07
6.0057648e-08
6.1427342e-07
4.5380712e-08
6.3628764e-07
3.4856745e-08
6.0577687e-07
2.8381256e-08
5.9216128e-07
2.3401235e-08
5.8596801e-07
1.9416555e-08
5.8187225e-07
1.6212421e-08
5.789369e-07
1.3604284e-08
5.7681958e-07
1.1452714e-08
5.7526917e-07
9.6525584e-09
5.7411504e-07
8.123751e-09
5.7324522e-07
6.8052423e-09
5.7258349e-07
5.6499927e-09
5.7207712e-07
4.6211997e-09
5.7168923e-07
3.6895484e-09
5.7139384e-07
2.8311718e-09
5.7117253e-07
2.0261111e-09
5.7101232e-07
1.2571319e-09
5.7090431e-07
5.0877855e-10
5.7084276e-07
-2.334189e-10
5.708245e-07
-9.8365446e-10
5.7084864e-07
-1.7565367e-09
5.7091652e-07
-2.5678114e-09
5.7103183e-07
-3.4351778e-09
5.7120092e-07
-4.379272e-09
5.7143349e-07
-5.4249079e-09
5.7174357e-07
-6.6026858e-09
5.721511e-07
-7.9511203e-09
5.7268432e-07
-9.5195139e-09
5.733835e-07
-1.1371733e-08
5.7430651e-07
-1.3590635e-08
5.7553766e-07
-1.6284568e-08
5.7720453e-07
-1.9597198e-08
5.79497e-07
-2.36989e-08
5.8267658e-07
-2.8892425e-08
5.8734938e-07
-3.6753046e-08
5.9673975e-07
-4.8426891e-08
6.1874728e-07
-4.3172228e-08
6.1182909e-07
3.5548177e-07
4.0325111e-08
2.659914e-07
5.8970027e-08
5.956287e-07
4.830376e-08
6.4695388e-07
3.7563177e-08
6.1651742e-07
3.0904377e-08
5.9882008e-07
2.5869852e-08
5.9100253e-07
2.1756726e-08
5.8598537e-07
1.8370107e-08
5.8232352e-07
1.5557292e-08
5.796324e-07
1.3196201e-08
5.7763026e-07
1.1190865e-08
5.7612038e-07
9.4659589e-09
5.7497013e-07
7.9623077e-09
5.7408714e-07
6.6329735e-09
5.7340645e-07
5.4402949e-09
5.7288191e-07
4.3536189e-09
5.7248052e-07
3.347522e-09
5.7217862e-07
2.4004095e-09
5.7195943e-07
1.4933987e-09
5.7181132e-07
6.093977e-10
5.7172676e-07
-2.6768516e-10
5.7170158e-07
-1.1536584e-09
5.7173461e-07
-2.0647502e-09
5.7182762e-07
-3.0183368e-09
5.7198542e-07
-4.0337486e-09
5.7221634e-07
-5.1332165e-09
5.7253296e-07
-6.3430232e-09
5.7295338e-07
-7.6949383e-09
5.7350301e-07
-9.2280164e-09
5.7421739e-07
-1.0990904e-08
5.7514638e-07
-1.3044874e-08
5.7636048e-07
-1.5467244e-08
5.7796003e-07
-1.8355471e-08
5.8009275e-07
-2.1833808e-08
5.8297534e-07
-2.6058149e-08
5.8690092e-07
-3.1437462e-08
5.9272869e-07
-3.9603283e-08
6.0490557e-07
-4.9124321e-08
6.2826832e-07
-3.855216e-08
6.0125693e-07
3.1692961e-07
3.2850563e-08
2.3314118e-07
5.522062e-08
5.7325897e-07
4.9198007e-08
6.5297649e-07
3.9029094e-08
6.2668628e-07
3.2399222e-08
6.0544994e-07
2.7487927e-08
5.9591383e-07
2.3409005e-08
5.900643e-07
1.9974919e-08
5.857576e-07
1.7069053e-08
5.8253826e-07
1.4589145e-08
5.8011016e-07
1.2451371e-08
5.7825815e-07
1.0588443e-08
5.7683305e-07
8.9460792e-09
5.7572951e-07
7.4800464e-09
5.7487248e-07
6.153973e-09
5.7420799e-07
4.9375906e-09
5.736969e-07
3.8052908e-09
5.7331092e-07
2.7349492e-09
5.7302977e-07
1.7069487e-09
5.7283932e-07
7.0334819e-10
5.7273036e-07
-2.9284893e-10
5.7269778e-07
-1.2983697e-09
5.7274013e-07
-2.3303371e-09
5.7285958e-07
-3.406954e-09
5.7306203e-07
-4.5482443e-09
5.7335763e-07
-5.7769005e-09
5.7376162e-07
-7.1192805e-09
5.7429576e-07
-8.6066093e-09
5.7499034e-07
-1.0276428e-08
5.7588721e-07
-1.2174371e-08
5.7704433e-07
-1.4356553e-08
5.7854266e-07
-1.6892462e-08
5.8049594e-07
-1.9867008e-08
5.830673e-07
-2.3381067e-08
5.864894e-07
-2.7576105e-08
5.9109596e-07
-3.2969455e-08
5.9812204e-07
-4.0944473e-08
6.1288059e-07
-4.7628008e-08
6.3495186e-07
-3.3345776e-08
5.869747e-07
2.8358384e-07
2.6175688e-08
2.0696592e-07
5.0097784e-08
5.4933737e-07
4.8450421e-08
6.5462392e-07
3.9449754e-08
6.3568687e-07
3.3037918e-08
6.1186175e-07
2.8373465e-08
6.0057828e-07
2.4455805e-08
5.9398196e-07
2.1083277e-08
5.8913013e-07
1.8174921e-08
5.8544662e-07
1.565146e-08
5.8263363e-07
1.3443714e-08
5.804659e-07
1.1494459e-08
5.7878231e-07
9.756133e-09
5.7746783e-07
8.1888964e-09
5.7643972e-07
6.7591686e-09
5.7563771e-07
5.438354e-09
5.7501772e-07
4.2017544e-09
5.7454752e-07
3.0276457e-09
5.7420388e-07
1.8964797e-09
5.7397049e-07
7.9018161e-10
5.7383666e-07
-3.084868e-10
5.7379645e-07
-1.4165233e-09
5.7384817e-07
-2.5512776e-09
5.7399434e-07
-3.7310551e-09
5.7424181e-07
-4.975759e-09
5.7460233e-07
-6.3076055e-09
5.7509346e-07
-7.751936e-09
5.7574009e-07
-9.3381646e-09
5.7657657e-07
-1.1100886e-08
5.7764993e-07
-1.3081142e-08
5.7902458e-07
-1.5328074e-08
5.8078959e-07
-1.7901036e-08
5.830689e-07
-2.0869563e-08
5.8603583e-07
-2.4308968e-08
5.899288e-07
-2.8354665e-08
5.9514166e-07
-3.3610218e-08
6.033776e-07
-4.0979763e-08
6.2025013e-07
-4.4725348e-08
6.3869744e-07
-2.8170337e-08
5.7041968e-07
2.554135e-07
2.0556373e-08
1.8641006e-07
4.4542472e-08
5.2535197e-07
4.6589855e-08
6.525767e-07
3.910151e-08
6.4317512e-07
3.3034822e-08
6.179284e-07
2.867012e-08
6.0494298e-07
2.4992501e-08
5.9765958e-07
2.1760791e-08
5.9236184e-07
1.8919601e-08
5.8828781e-07
1.6412812e-08
5.8514041e-07
1.4186875e-08
5.8269184e-07
1.2195556e-08
5.8077363e-07
1.0399018e-08
5.7926437e-07
8.7628483e-09
5.7807589e-07
7.2572345e-09
5.7714333e-07
5.8561511e-09
5.764188e-07
4.5366205e-09
5.7586705e-07
3.278047e-09
5.7546245e-07
2.0616105e-09
5.7518692e-07
8.6970867e-10
5.7502856e-07
-3.145631e-10
5.7498072e-07
-1.5079077e-09
5.7504151e-07
-2.727324e-09
5.7521375e-07
-3.990608e-09
5.755051e-07
-5.3168779e-09
5.759286e-07
-6.7271399e-09
5.7650373e-07
-8.2449052e-09
5.7725786e-07
-9.8968752e-09
5.7822854e-07
-1.1713708e-08
5.7946677e-07
-1.3730813e-08
5.8104169e-07
-1.5989257e-08
5.8304804e-07
-1.8536972e-08
5.8561662e-07
-2.1427163e-08
5.8892602e-07
-2.4713979e-08
5.9321562e-07
-2.8543248e-08
5.9897093e-07
-3.3560104e-08
6.0839445e-07
-4.0042506e-08
6.2673254e-07
-4.107441e-08
6.3972935e-07
-2.3379146e-08
5.5272442e-07
2.3203435e-07
1.5999607e-08
1.7041106e-07
3.9097002e-08
5.0225551e-07
4.4054489e-08
6.4761953e-07
3.8225943e-08
6.4900357e-07
3.2593854e-08
6.2356042e-07
2.8533765e-08
6.0900306e-07
2.5128107e-08
6.0106524e-07
2.2083686e-08
5.9540626e-07
1.9356579e-08
5.9101492e-07
1.6910641e-08
5.8758635e-07
1.4706834e-08
5.8489564e-07
1.27095e-08
5.8277096e-07
1.0886664e-08
5.8108721e-07
9.2097395e-09
5.7975281e-07
7.6531843e-09
5.7869988e-07
6.1940834e-09
5.778779e-07
4.811721e-09
5.7724941e-07
3.4871534e-09
5.7678702e-07
2.202788e-09
5.7647129e-07
9.4197474e-10
5.7628938e-07
-3.1139118e-10
5.7623408e-07
-1.5732559e-09
5.7630338e-07
-2.859799e-09
5.765003e-07
-4.1878245e-09
5.7683312e-07
-5.5751599e-09
5.7731594e-07
-7.0410717e-09
5.7796964e-07
-8.6066917e-09
5.7882347e-07
-1.0295456e-08
5.799173e-07
-1.213356e-08
5.8130487e-07
-1.4150379e-08
5.8305851e-07
-1.6378827e-08
5.8527648e-07
-1.8855749e-08
5.8809354e-07
-2.1619407e-08
5.9168967e-07
-2.4710387e-08
5.963066e-07
-2.8296802e-08
6.0255734e-07
-3.3003309e-08
6.1310096e-07
-3.8427614e-08
6.3215684e-07
-3.7117603e-08
6.3841934e-07
-1.9141462e-08
5.3474828e-07
2.1289289e-07
1.2406368e-08
1.580054e-07
3.406035e-08
4.8060274e-07
4.1173432e-08
6.4050695e-07
3.7001061e-08
6.5317586e-07
3.1868926e-08
6.2869245e-07
2.8098919e-08
6.1277306e-07
2.4966083e-08
6.0419808e-07
2.2129051e-08
5.982433e-07
1.9542806e-08
5.9360116e-07
1.7186659e-08
5.899425e-07
1.5033905e-08
5.870484e-07
1.3058161e-08
5.847467e-07
1.1234717e-08
5.8291065e-07
9.5406447e-09
5.8144688e-07
7.9547482e-09
5.8028578e-07
6.4574382e-09
5.7937521e-07
5.0305509e-09
5.786763e-07
3.6571208e-09
5.7816045e-07
2.3211252e-09
5.7780729e-07
1.0072138e-09
5.7760329e-07
-2.9956945e-10
5.7754087e-07
-1.6140644e-09
5.7761787e-07
-2.9512813e-09
5.7783751e-07
-4.326682e-09
5.7820852e-07
-5.7564583e-09
5.7874571e-07
-7.2578058e-09
5.7947099e-07
-8.8491834e-09
5.8041485e-07
-1.0550545e-08
5.8161867e-07
-1.2383549e-08
5.8313787e-07
-1.4371716e-08
5.8504667e-07
-1.6540464e-08
5.8744523e-07
-1.8916789e-08
5.9046986e-07
-2.1526334e-08
5.9429922e-07
-2.4403339e-08
5.991836e-07
-2.7741116e-08
6.0589512e-07
-3.2082347e-08
6.1744219e-07
-3.6377128e-08
6.3645162e-07
-3.3156039e-08
6.3519825e-07
-1.5518803e-08
5.1711104e-07
1.9737409e-07
9.6379973e-09
1.4836824e-07
2.9584709e-08
4.6065756e-07
3.8193208e-08
6.318992e-07
3.5564868e-08
6.5580416e-07
3.0970985e-08
6.332862e-07
2.7469728e-08
6.1627428e-07
2.4592804e-08
6.07075e-07
2.1965484e-08
6.0087062e-07
1.953199e-08
5.9603465e-07
1.7282236e-08
5.9219225e-07
1.519952e-08
5.8913111e-07
1.326518e-08
5.8668104e-07
1.1460802e-08
5.8471503e-07
9.7685723e-09
5.8313911e-07
8.1714006e-09
5.8188295e-07
6.6529768e-09
5.8089363e-07
5.1977656e-09
5.8013151e-07
3.7909316e-09
5.7956728e-07
2.4182181e-09
5.7918e-07
1.0657957e-09
5.7895571e-07
-2.7990855e-10
5.7888657e-07
-1.6323901e-09
5.7897035e-07
-3.0052556e-09
5.7921038e-07
-4.4124029e-09
5.7961567e-07
-5.8681914e-09
5.802015e-07
-7.3875947e-09
5.8099039e-07
-8.9863234e-09
5.8201358e-07
-1.0680901e-08
5.8331324e-07
-1.2488693e-08
5.8494566e-07
-1.4427896e-08
5.8698588e-07
-1.6517365e-08
5.895347e-07
-1.8775704e-08
5.927282e-07
-2.1218596e-08
5.9674211e-07
-2.388009e-08
6.018451e-07
-2.6974763e-08
6.0898979e-07
-3.0915172e-08
6.213826e-07
-3.4095019e-08
6.3963147e-07
-2.9394664e-08
6.3049789e-07
-1.2506395e-08
5.0022277e-07
1.8486769e-07
7.5456503e-09
1.4082357e-07
2.5717642e-08
4.4248746e-07
3.5284541e-08
6.2233335e-07
3.4027039e-08
6.5706168e-07
2.9982776e-08
6.3733029e-07
2.6725937e-08
6.1953107e-07
2.4077744e-08
6.097232e-07
2.1650577e-08
6.0329779e-07
1.9371241e-08
5.9831399e-07
1.723527e-08
5.9432822e-07
1.5233677e-08
5.9113271e-07
1.3353992e-08
5.8856073e-07
1.1583007e-08
5.8648601e-07
9.9073113e-09
5.8481481e-07
8.3134906e-09
5.8347677e-07
6.788291e-09
5.8241883e-07
5.3187224e-09
5.8160108e-07
3.8920897e-09
5.8099391e-07
2.4959741e-09
5.8057611e-07
1.118177e-09
5.8033351e-07
-2.5336193e-10
5.8025811e-07
-1.6306582e-09
5.8034765e-07
-3.0257855e-09
5.806055e-07
-4.4509694e-09
5.8104085e-07
-5.9186674e-09
5.816692e-07
-7.4416234e-09
5.8251334e-07
-9.0328868e-09
5.8360484e-07
-1.0705778e-08
5.8498613e-07
-1.2473796e-08
5.8671368e-07
-1.43505e-08
5.8886258e-07
-1.6349205e-08
5.9153341e-07
-1.8481657e-08
5.9486065e-07
-2.0756548e-08
5.99017e-07
-2.3212787e-08
6.0430133e-07
-2.6077801e-08
6.1185481e-07
-2.9602617e-08
6.2490741e-07
-3.174273e-08
6.4177158e-07
-2.5955625e-08
6.2471079e-07
-1.0057482e-08
4.8432463e-07
1.7481021e-07
5.9887399e-09
1.3483599e-07
2.2437284e-08
4.2604123e-07
3.2549145e-08
6.1222291e-07
3.2467823e-08
6.5714314e-07
2.8964134e-08
6.4083377e-07
2.5927452e-08
6.2256767e-07
2.3476009e-08
6.1217464e-07
2.1231703e-08
6.055421e-07
1.9100562e-08
6.0044513e-07
1.7079031e-08
5.9634975e-07
1.5163606e-08
5.9304813e-07
1.3346557e-08
5.9037778e-07
1.1618795e-08
5.8821378e-07
9.9705408e-09
5.8646306e-07
8.3915405e-09
5.8505577e-07
6.871269e-09
5.8393911e-07
5.3990903e-09
5.8307326e-07
3.9643576e-09
5.8242865e-07
2.5564642e-09
5.8198401e-07
1.1648595e-09
5.8172511e-07
-2.2096332e-10
5.8164393e-07
-1.6114915e-09
5.8173818e-07
-3.0172261e-09
5.8201124e-07
-4.448706e-09
5.8247233e-07
-5.9165161e-09
5.8313701e-07
-7.4312686e-09
5.840281e-07
-9.0035475e-09
5.8517712e-07
-1.0643803e-08
5.8662639e-07
-1.2362191e-08
5.8843207e-07
-1.4168396e-08
5.9066879e-07
-1.6071253e-08
5.9343626e-07
-1.8077235e-08
5.9686663e-07
-2.0191111e-08
6.0113088e-07
-2.2460133e-08
6.0657036e-07
-2.5113502e-08
6.1450818e-07
-2.8225025e-08
6.2801893e-07
-2.9434236e-08
6.4298079e-07
-2.2893998e-08
6.1817055e-07
-8.1035314e-09
4.6953416e-07
1.6670668e-07
4.8445565e-09
1.2999282e-07
1.9685008e-08
4.1120357e-07
3.0035143e-08
6.0187465e-07
3.0939357e-08
6.5623922e-07
2.7954288e-08
6.4381861e-07
2.5116288e-08
6.2540556e-07
2.2829477e-08
6.1446144e-07
2.0746695e-08
6.0762489e-07
1.8753033e-08
6.0243879e-07
1.6841896e-08
5.9826089e-07
1.5013216e-08
5.9487681e-07
1.3262688e-08
5.9212831e-07
1.1584323e-08
5.8989214e-07
9.9712157e-09
5.8807617e-07
8.4157254e-09
5.8661126e-07
6.9096771e-09
5.8544515e-07
5.4445354e-09
5.845384e-07
4.0115394e-09
5.8386164e-07
2.6017982e-09
5.8339375e-07
1.2063553e-09
5.8312055e-07
-1.8377204e-10
5.8303406e-07
-1.5775654e-09
5.8313197e-07
-2.9839848e-09
5.8341766e-07
-4.4119399e-09
5.8390029e-07
-5.8702454e-09
5.8459531e-07
-7.3675518e-09
5.855254e-07
-8.9122421e-09
5.8672181e-07
-1.0512289e-08
5.8822644e-07
-1.2175068e-08
5.9009485e-07
-1.3907172e-08
5.9240089e-07
-1.5713985e-08
5.9524308e-07
-1.7598238e-08
5.9875089e-07
-1.9563559e-08
6.030962e-07
-2.1667219e-08
6.0867402e-07
-2.4128278e-08
6.1696923e-07
-2.6840871e-08
6.3073153e-07
-2.7241411e-08
6.4338133e-07
-2.0218977e-08
6.1114812e-07
-6.5688335e-09
4.5588402e-07
1.6013784e-07
4.0107423e-09
1.2598373e-07
1.7388271e-08
3.978294e-07
2.7756352e-08
5.9150897e-07
2.9472056e-08
6.5452402e-07
2.6976162e-08
6.4631425e-07
2.4319343e-08
6.2806223e-07
2.2168031e-08
6.1661273e-07
2.0224396e-08
6.0956853e-07
1.8355013e-08
6.0430818e-07
1.6547306e-08
6.000686e-07
1.4802864e-08
5.9662125e-07
1.3119705e-08
5.9381146e-07
1.1494053e-08
5.9151779e-07
9.9211733e-09
5.8964905e-07
8.3955143e-09
5.8813692e-07
6.9108575e-09
5.8692981e-07
5.4604831e-09
5.8598877e-07
4.037313e-09
5.8528481e-07
2.6340281e-09
5.8479703e-07
1.2431614e-09
5.8451142e-07
-1.4282812e-10
5.8442005e-07
-1.5314915e-09
5.8452063e-07
-2.9303327e-09
5.848165e-07
-4.3467415e-09
5.853167e-07
-5.7879146e-09
5.8603649e-07
-7.2607553e-09
5.8699824e-07
-8.7717458e-09
5.882328e-07
-1.0326793e-08
5.8978148e-07
-1.1931053e-08
5.9169911e-07
-1.3588755e-08
5.9405859e-07
-1.5302771e-08
5.9695709e-07
-1.7073451e-08
6.0052157e-07
-1.890556e-08
6.0492831e-07
-2.0866427e-08
6.1063488e-07
-2.3153779e-08
6.1925658e-07
-2.5489619e-08
6.3306737e-07
-2.5203767e-08
6.4309548e-07
-1.7911872e-08
6.0385622e-07
-5.3789783e-09
4.4335112e-07
1.5475887e-07
3.4046297e-09
1.2258106e-07
1.5473203e-08
3.8576483e-07
2.5706011e-08
5.8127918e-07
2.8081117e-08
6.5214969e-07
2.6041336e-08
6.4835378e-07
2.3552195e-08
6.3055116e-07
2.1511698e-08
6.186532e-07
1.9685776e-08
6.1139446e-07
1.7926698e-08
6.0606726e-07
1.6213963e-08
6.0178133e-07
1.4549347e-08
5.9828587e-07
1.29323e-08
5.9542851e-07
1.136054e-08
5.9308955e-07
9.8309041e-09
5.9117869e-07
8.3394446e-09
5.8962838e-07
6.8815255e-09
5.8838773e-07
5.4519532e-09
5.8741835e-07
4.0451105e-09
5.8669166e-07
2.6550784e-09
5.8618706e-07
1.2757416e-09
5.8589076e-07
-9.9117389e-11
5.8579491e-07
-1.4757298e-09
5.8589725e-07
-2.8602661e-09
5.8620104e-07
-4.2587392e-09
5.8671517e-07
-5.6769089e-09
5.8745466e-07
-7.1201667e-09
5.884415e-07
-8.5934027e-09
5.8970604e-07
-1.010086e-08
5.9128894e-07
-1.1645986e-08
5.9324424e-07
-1.3231291e-08
5.9564389e-07
-1.4857928e-08
5.9858373e-07
-1.6525032e-08
6.0218867e-07
-1.8240218e-08
6.0664349e-07
-2.0079633e-08
6.124743e-07
-2.2210147e-08
6.213871e-07
-2.4195825e-08
6.3505305e-07
-2.3337898e-08
6.4223755e-07
-1.5938561e-08
5.9645688e-07
-4.4655362e-09
4.318781e-07
1.5029333e-07
2.9615999e-09
1.1962179e-07
1.3871282e-08
3.748599e-07
2.3866118e-08
5.7128811e-07
2.6771464e-08
6.4924548e-07
2.5153894e-08
6.4997112e-07
2.2822545e-08
6.3288226e-07
2.087304e-08
6.2060265e-07
1.9145451e-08
6.1312205e-07
1.7483032e-08
6.0772968e-07
1.5856334e-08
6.0340803e-07
1.4266124e-08
5.9987608e-07
1.2712596e-08
5.9698204e-07
1.1194401e-08
5.9460775e-07
9.7094561e-09
5.9266363e-07
8.2550049e-09
5.9108283e-07
6.8276533e-09
5.8981508e-07
5.4234586e-09
5.8882254e-07
4.0380416e-09
5.8807707e-07
2.6667e-09
5.8755841e-07
1.3045159e-09
5.8725294e-07
-5.3546436e-11
5.8715297e-07
-1.4125287e-09
5.8725623e-07
-2.7774148e-09
5.8756592e-07
-4.1530001e-09
5.8809075e-07
-5.5438013e-09
5.8884546e-07
-6.9539362e-09
5.8985164e-07
-8.3869984e-09
5.911391e-07
-9.8459329e-09
5.9274787e-07
-1.1332928e-08
5.9473123e-07
-1.2849311e-08
5.9716028e-07
-1.439517e-08
6.0012959e-07
-1.596939e-08
6.0376289e-07
-1.7583582e-08
6.0825769e-07
-1.9320569e-08
6.1421128e-07
-2.1308887e-08
6.2337541e-07
-2.2972661e-08
6.3671682e-07
-2.1644739e-08
6.4090963e-07
-1.4257873e-08
5.8907002e-07
-3.7686032e-09
4.2138883e-07
1.4652473e-07
2.6328285e-09
1.1699172e-07
1.2522715e-08
3.6497564e-07
2.2213779e-08
5.6160166e-07
2.5541499e-08
6.4591933e-07
2.431313e-08
6.5119931e-07
2.2132764e-08
6.3506231e-07
2.0259154e-08
6.2247617e-07
1.8613121e-08
6.1476808e-07
1.7034714e-08
6.0930809e-07
1.54853e-08
6.0495744e-07
1.3963708e-08
6.0139767e-07
1.247035e-08
5.984754e-07
1.1004392e-08
5.960737e-07
9.5644462e-09
5.9410358e-07
8.148605e-09
5.9249867e-07
6.7544222e-09
5.9120926e-07
5.378956e-09
5.9019801e-07
4.0188532e-09
5.8943717e-07
2.6704466e-09
5.8890681e-07
1.329856e-09
5.8859353e-07
-6.9113405e-12
5.8848974e-07
-1.3438883e-09
5.885932e-07
-2.684989e-09
5.8890702e-07
-4.0339676e-09
5.8943973e-07
-5.3942914e-09
5.9020578e-07
-6.7690311e-09
5.9122638e-07
-8.1607536e-09
5.9253082e-07
-9.5714268e-09
5.9415855e-07
-1.1002355e-08
5.9616216e-07
-1.2454117e-08
5.9861204e-07
-1.3926252e-08
6.0160172e-07
-1.5418165e-08
6.052548e-07
-1.6946086e-08
6.0978561e-07
-1.8596798e-08
6.15862e-07
-2.045512e-08
6.2523374e-07
-2.1824941e-08
6.3808664e-07
-2.0115352e-08
6.3920004e-07
-1.2827209e-08
5.8178187e-07
-3.2377794e-09
4.117994e-07
1.4328695e-07
2.3825887e-09
1.146124e-07
1.1377536e-08
3.5598732e-07
2.0725293e-08
5.5225952e-07
2.4385995e-08
6.4226074e-07
2.3515547e-08
6.5206966e-07
2.148179e-08
6.3709569e-07
1.9673239e-08
6.2428461e-07
1.8094776e-08
6.1634655e-07
1.65891e-08
6.1081378e-07
1.5108807e-08
6.0643774e-07
1.3650107e-08
6.0285637e-07
1.2213236e-08
5.9991227e-07
1.0797578e-08
5.9748936e-07
9.4021472e-09
5.9549901e-07
8.0256121e-09
5.9387521e-07
6.6662282e-09
5.9256865e-07
5.3218365e-09
5.915424e-07
3.9899169e-09
5.9076909e-07
2.6676643e-09
5.9022907e-07
1.3520754e-09
5.8990912e-07
4.0041897e-11
5.8980177e-07
-1.2715548e-09
5.899048e-07
-2.5857616e-09
5.9022123e-07
-3.9054461e-09
5.9075942e-07
-5.2332037e-09
5.9153354e-07
-6.5712645e-09
5.9256444e-07
-7.921406e-09
5.9388096e-07
-9.2848896e-09
5.9552203e-07
-1.066244e-08
5.9753971e-07
-1.2054217e-08
6.0000382e-07
-1.3459618e-08
6.0300712e-07
-1.4879143e-08
6.0667433e-07
-1.6333808e-08
6.1124027e-07
-1.7911351e-08
6.1743954e-07
-1.9649471e-08
6.2697186e-07
-2.0751797e-08
6.3918897e-07
-1.8735451e-08
6.3718369e-07
-1.1606258e-08
5.7465268e-07
-2.832052e-09
4.0302519e-07
1.4045489e-07
2.1855136e-09
1.1243075e-07
1.0395237e-08
3.4778539e-07
1.9378442e-08
5.4328308e-07
2.3298138e-08
6.3834382e-07
2.2756329e-08
6.5261151e-07
2.0866548e-08
6.3898504e-07
1.9115847e-08
6.2603515e-07
1.7593682e-08
6.178687e-07
1.6150969e-08
6.122565e-07
1.4732453e-08
6.0785626e-07
1.3331258e-08
6.0425757e-07
1.1947153e-08
6.0129637e-07
1.0579538e-08
5.9885698e-07
9.2276177e-09
5.9685093e-07
7.8904278e-09
5.952124e-07
6.566725e-09
5.9389235e-07
5.2549478e-09
5.9285418e-07
3.9532386e-09
5.920708e-07
2.6594981e-09
5.9152281e-07
1.3714553e-09
5.9119716e-07
8.6748868e-11
5.9108648e-07
-1.1969951e-09
5.9118854e-07
-2.4820719e-09
5.9150631e-07
-3.770619e-09
5.9204796e-07
-5.0645291e-09
5.9282745e-07
-6.3653743e-09
5.9386528e-07
-7.6743437e-09
5.9518993e-07
-8.9922129e-09
5.968399e-07
-1.0319362e-08
5.9886686e-07
-1.1655782e-08
6.0134024e-07
-1.3001021e-08
6.0435236e-07
-1.4357084e-08
6.0803039e-07
-1.5749568e-08
6.1263275e-07
-1.7264117e-08
6.1895409e-07
-1.8889653e-08
6.2859739e-07
-1.9748873e-08
6.4004819e-07
-1.7488555e-08
6.3492337e-07
-1.0559042e-08
5.6772317e-07
-2.5189738e-09
3.9498512e-07
1.3793592e-07
2.0241294e-09
1.1041119e-07
9.5436601e-09
3.4027501e-07
1.8153532e-08
5.3468132e-07
2.227081e-08
6.3423011e-07
2.2030318e-08
6.5285223e-07
2.0282981e-08
6.4073188e-07
1.8585842e-08
6.2773207e-07
1.7111184e-08
6.1934334e-07
1.5723182e-08
6.1364451e-07
1.4360003e-08
6.0921944e-07
1.3011419e-08
6.0560615e-07
1.1676515e-08
6.0263128e-07
1.0354575e-08
6.0017891e-07
9.0448518e-09
5.9816065e-07
7.7465896e-09
5.9651066e-07
6.4588892e-09
5.9518005e-07
5.1806339e-09
5.9413243e-07
3.9104827e-09
5.9334095e-07
2.6469028e-09
5.9278639e-07
1.3882216e-09
5.9245584e-07
1.3269192e-10
5.92342e-07
-1.1214376e-09
5.9244267e-07
-2.375851e-09
5.9276072e-07
-3.6320914e-09
5.933042e-07
-4.8914945e-09
5.9408685e-07
-6.1551302e-09
5.9512892e-07
-7.4237648e-09
5.9645857e-07
-8.6978618e-09
5.98114e-07
-9.9776328e-09
6.0014663e-07
-1.1263074e-08
6.0262568e-07
-1.2554097e-08
6.0564338e-07
-1.385447e-08
6.0933076e-07
-1.5193879e-08
6.1397216e-07
-1.6652964e-08
6.2041317e-07
-1.8171686e-08
6.3011611e-07
-1.8809939e-08
6.4068644e-07
-1.6357926e-08
6.3247136e-07
-9.6543966e-09
5.6101964e-07
-2.2734396e-09
3.8760417e-07
1.3566248e-07
1.8867759e-09
1.0852982e-07
8.797632e-09
3.3337486e-07
1.7033688e-08
5.2645491e-07
2.1297297e-08
6.2997101e-07
2.1332582e-08
6.5281743e-07
1.9726716e-08
6.4233721e-07
1.8081109e-08
6.2937741e-07
1.6647335e-08
6.2077708e-07
1.5307207e-08
6.1498465e-07
1.3993833e-08
6.1053282e-07
1.2693525e-08
6.0690646e-07
1.140453e-08
6.0392027e-07
1.012593e-08
6.0145751e-07
8.8569342e-09
5.9942965e-07
7.5968822e-09
5.9777071e-07
6.3450985e-09
5.9643183e-07
5.1007878e-09
5.9537674e-07
3.8630036e-09
5.9457874e-07
2.6306594e-09
5.9401873e-07
1.402563e-09
5.9368394e-07
1.7746619e-10
5.935671e-07
-1.0458781e-09
5.9366602e-07
-2.2686588e-09
5.939835e-07
-3.4919475e-09
5.9452749e-07
-4.7166476e-09
5.9531155e-07
-5.943456e-09
5.9635572e-07
-7.1728484e-09
5.9768796e-07
-8.4051076e-09
5.9934626e-07
-9.6404018e-09
6.0138192e-07
-1.087885e-08
6.0386413e-07
-1.2120871e-08
6.0688541e-07
-1.3372129e-08
6.1058202e-07
-1.4665706e-08
6.1526574e-07
-1.6074575e-08
6.2182204e-07
-1.7490766e-08
6.315323e-07
-1.7928012e-08
6.4112369e-07
-1.5327754e-08
6.298711e-07
-8.8660955e-09
5.5455798e-07
-2.0764797e-09
3.8081455e-07
1.33586e-07
1.7659221e-09
1.0677029e-07
8.1376172e-09
3.2701568e-07
1.6004736e-08
5.1859922e-07
2.0371614e-08
6.2560976e-07
2.0658706e-08
6.5253117e-07
1.9193468e-08
6.4380186e-07
1.7599032e-08
6.3097151e-07
1.6201357e-08
6.221747e-07
1.4903541e-08
6.1628247e-07
1.3635291e-08
6.1180107e-07
1.2379496e-08
6.0816225e-07
1.1133447e-08
6.0516632e-07
9.8959756e-09
6.0269499e-07
8.6661902e-09
6.0065943e-07
7.4434504e-09
5.9899345e-07
6.2272134e-09
5.9764807e-07
5.0169083e-09
5.9658705e-07
3.8118832e-09
5.9578376e-07
2.6113967e-09
5.9521922e-07
1.4146357e-09
5.948807e-07
2.2075023e-10
5.9476099e-07
-9.7110515e-10
5.9485787e-07
-2.1617261e-09
5.9517412e-07
-3.3518157e-09
5.9571758e-07
-4.54195e-09
5.9650168e-07
-5.7325571e-09
5.9754633e-07
-6.923924e-09
5.9887933e-07
-8.1162491e-09
6.0053858e-07
-9.3097411e-09
6.0257541e-07
-1.0504714e-08
6.050591e-07
-1.1702188e-08
6.0808288e-07
-1.2909752e-08
6.1178959e-07
-1.4163048e-08
6.1651904e-07
-1.5525056e-08
6.2318405e-07
-1.6841865e-08
6.3284911e-07
-1.7096085e-08
6.4137791e-07
-1.4383785e-08
6.271588e-07
-8.1725252e-09
5.4834672e-07
-1.914092e-09
3.7455612e-07
1.3167191e-07
1.6568579e-09
1.0512099e-07
7.5484936e-09
3.2113868e-07
1.5054889e-08
5.111063e-07
1.9488599e-08
6.2118299e-07
2.0004896e-08
6.5201614e-07
1.8679262e-08
6.451269e-07
1.7136809e-08
6.3251355e-07
1.5771968e-08
6.2353946e-07
1.4512015e-08
6.1754243e-07
1.3284981e-08
6.1302811e-07
1.2070481e-08
6.0937675e-07
1.0864765e-08
6.0637204e-07
9.6663869e-09
6.0389336e-07
8.4743243e-09
6.0185149e-07
7.2879066e-09
6.0017987e-07
6.1066583e-09
5.9882932e-07
4.9301586e-09
5.9776355e-07
3.7579699e-09
5.9695595e-07
2.5896125e-09
5.9638757e-07
1.4245676e-09
5.9604574e-07
2.6229705e-10
5.9592326e-07
-8.9772899e-10
5.960179e-07
-2.0559994e-09
5.9633239e-07
-3.2129353e-09
5.9687452e-07
-4.3688696e-09
5.9765762e-07
-5.5240434e-09
5.9870151e-07
-6.6786319e-09
6.0003392e-07
-7.832815e-09
6.0169276e-07
-8.9868936e-09
6.0372949e-07
-1.0141418e-08
6.0621362e-07
-1.1298063e-08
6.0923952e-07
-1.2466281e-08
6.129578e-07
-1.3683366e-08
6.1773612e-07
-1.500035e-08
6.2450103e-07
-1.6220121e-08
6.3406888e-07
-1.6307581e-08
6.4146537e-07
-1.3513566e-08
6.2436479e-07
-7.5561478e-09
5.423893e-07
-1.7761661e-09
3.6877614e-07
1.2989574e-07
1.5567244e-09
1.035732e-07
7.0185191e-09
3.1569397e-07
1.4174363e-08
5.0396629e-07
1.8643875e-08
6.1672195e-07
1.9367979e-08
6.5129385e-07
1.8180531e-08
6.4631376e-07
1.6691643e-08
6.3400194e-07
1.5357608e-08
6.2487337e-07
1.4132029e-08
6.1876801e-07
1.2942984e-08
6.1421717e-07
1.1767059e-08
6.1055268e-07
1.0599411e-08
6.0753968e-07
9.4382937e-09
6.0505448e-07
8.2825433e-09
6.0300724e-07
7.1314292e-09
6.0133098e-07
5.9844975e-09
5.9997625e-07
4.8414216e-09
5.9890662e-07
3.7019153e-09
5.9809546e-07
2.5656938e-09
5.9752379e-07
1.4324623e-09
5.9717898e-07
3.0192348e-10
5.970538e-07
-8.2620859e-10
5.9714603e-07
-1.9521875e-09
5.9745837e-07
-3.0762221e-09
5.9799855e-07
-4.1984691e-09
5.9877987e-07
-5.3190449e-09
5.9982208e-07
-6.4380669e-09
6.0115294e-07
-7.5557398e-09
6.0281044e-07
-8.6724837e-09
6.0484624e-07
-9.7891036e-09
6.0733024e-07
-1.0907949e-08
6.1035837e-07
-1.2040212e-08
6.1409007e-07
-1.3223894e-08
6.189198e-07
-1.4496515e-08
6.2577365e-07
-1.5621063e-08
6.3519343e-07
-1.5556586e-08
6.4140089e-07
-1.2706445e-08
6.2151465e-07
-7.0028899e-09
5.3668574e-07
-1.6555515e-09
3.634288e-07
1.2824019e-07
1.4638248e-09
1.0211992e-07
6.5385e-09
3.1063923e-07
1.3354994e-08
4.9716832e-07
1.7833736e-08
6.1225348e-07
1.8745339e-08
6.5038475e-07
1.7694147e-08
6.473644e-07
1.6260863e-08
6.3543463e-07
1.495659e-08
6.2617749e-07
1.3762714e-08
6.1996189e-07
1.2609021e-08
6.1537087e-07
1.1469404e-08
6.116923e-07
1.0337883e-08