/*--------------------------------*- C++ -*----------------------------------*\
  =========                 |
  \\      /  F ield         | OpenFOAM: The Open Source CFD Toolbox
   \\    /   O peration     | Website:  https://openfoam.org
    \\  /    A nd           | Version:  10
     \\/     M anipulation  |
\*---------------------------------------------------------------------------*/
FoamFile
{
    format      ascii;
    class       surfaceScalarField;
    location    "0.14";
    object      phi_0;
}
// * * * * * * * * * * * * * * * * * * * * * * * * * * * * * * * * * * * * * //

dimensions      [1 0 -1 0 0 0 0];

internalField   nonuniform List<scalar> 
7860
(
3.9894142e-08
5.2881388e-07
1.2191314e-08
5.9641061e-07
7.4264488e-09
5.734726e-07
5.497766e-09
5.7063638e-07
4.1132891e-09
5.7009214e-07
3.1994457e-09
5.6962149e-07
2.5575002e-09
5.6934957e-07
2.077759e-09
5.6918735e-07
1.7078904e-09
5.6907747e-07
1.415367e-09
5.6900011e-07
1.1783905e-09
5.6894456e-07
9.82195e-10
5.6890377e-07
8.1643413e-10
5.6887333e-07
6.7361488e-10
5.6885038e-07
5.4816114e-10
5.6883301e-07
4.3580944e-10
5.6881991e-07
3.332032e-10
5.6881016e-07
2.3761213e-10
5.6880314e-07
1.4673031e-10
5.6879843e-07
5.8523466e-11
5.6879576e-07
-2.8894251e-11
5.6879497e-07
-1.1736797e-10
5.6879602e-07
-2.0880757e-10
5.6879899e-07
-3.0529389e-10
5.6880404e-07
-4.0921104e-10
5.6881147e-07
-5.234096e-10
5.6882175e-07
-6.5142718e-10
5.6883558e-07
-7.9780144e-10
5.6885394e-07
-9.685307e-10
5.688783e-07
-1.1717807e-09
5.6891082e-07
-1.4190578e-09
5.6895486e-07
-1.7271789e-09
5.6901571e-07
-2.1211299e-09
5.6910155e-07
-2.6408002e-09
5.6922728e-07
-3.3686076e-09
5.6943543e-07
-4.4601482e-09
5.6979918e-07
-6.0059787e-09
5.702535e-07
-9.5053027e-09
5.7220702e-07
-2.9572556e-08
5.88775e-07
5.3913536e-07
5.9668168e-08
4.6914574e-07
3.6660836e-08
6.1941794e-07
2.2623204e-08
5.8751023e-07
1.6248332e-08
5.7701125e-07
1.2285137e-08
5.7405534e-07
9.6009169e-09
5.723057e-07
7.6722973e-09
5.7127819e-07
6.2312321e-09
5.7062842e-07
5.1221122e-09
5.7018659e-07
4.2448546e-09
5.6987737e-07
3.5341158e-09
5.696553e-07
2.945718e-09
5.6949217e-07
2.4486071e-09
5.6937044e-07
2.0202989e-09
5.6927869e-07
1.6440699e-09
5.6920924e-07
1.3071336e-09
5.6915684e-07
9.9942346e-10
5.6911787e-07
7.1275174e-10
5.6908981e-07
4.4020316e-10
5.6907098e-07
1.7567627e-10
5.6906028e-07
-8.6485229e-11
5.6905713e-07
-3.5181476e-10
5.6906135e-07
-6.2603489e-10
5.6907321e-07
-9.153886e-10
5.6909339e-07
-1.2270261e-09
5.6912311e-07
-1.5694957e-09
5.6916422e-07
-1.9534066e-09
5.6921949e-07
-2.392367e-09
5.692929e-07
-2.904373e-09
5.693903e-07
-3.5139308e-09
5.6952038e-07
-4.2554747e-09
5.696964e-07
-5.1793866e-09
5.6993962e-07
-6.3623119e-09
5.7028447e-07
-7.922996e-09
5.7078796e-07
-1.0064689e-08
5.7157712e-07
-1.3193575e-08
5.7292807e-07
-1.8124476e-08
5.751844e-07
-2.8167116e-08
5.8224966e-07
-4.5794568e-08
6.0640245e-07
4.9334079e-07
6.0002227e-08
4.0914359e-07
5.0477753e-08
6.2894241e-07
3.3361568e-08
6.046264e-07
2.4808409e-08
5.8556441e-07
1.9313797e-08
5.7954995e-07
1.5322132e-08
5.7629737e-07
1.2351663e-08
5.7424866e-07
1.0093012e-08
5.7288707e-07
8.3327831e-09
5.7194681e-07
6.92784e-09
5.7128231e-07
5.7820885e-09
5.7080105e-07
4.8287486e-09
5.7044551e-07
4.0200406e-09
5.7017915e-07
3.3209639e-09
5.6997777e-07
2.7052394e-09
5.6982497e-07
2.1526193e-09
5.6970946e-07
1.6470624e-09
5.6962343e-07
1.1754531e-09
5.6956142e-07
7.2666785e-10
5.6951977e-07
2.9086168e-10
5.6949609e-07
-1.4110917e-10
5.694891e-07
-5.7819301e-10
5.6949844e-07
-1.0296363e-09
5.6952465e-07
-1.5055038e-09
5.6956926e-07
-2.0172812e-09
5.6963489e-07
-2.5786349e-09
5.6972558e-07
-3.2064238e-09
5.6984728e-07
-3.9221101e-09
5.7000858e-07
-4.7538101e-09
5.70222e-07
-5.7393576e-09
5.7050593e-07
-6.9309631e-09
5.70888e-07
-8.4028529e-09
5.7141151e-07
-1.0264458e-08
5.7214608e-07
-1.2677691e-08
5.732012e-07
-1.5875765e-08
5.747752e-07
-2.0220651e-08
5.7727295e-07
-2.6690206e-08
5.8165395e-07
-3.8930013e-08
5.9448947e-07
-4.8153976e-08
6.1562641e-07
4.4518681e-07
5.4870528e-08
3.5427318e-07
5.7437693e-08
6.2637527e-07
4.0453358e-08
6.216107e-07
3.0764808e-08
5.9525295e-07
2.462893e-08
5.8568583e-07
1.9938312e-08
5.8098799e-07
1.629943e-08
5.7788754e-07
1.3453782e-08
5.7573271e-07
1.1189227e-08
5.7421137e-07
9.3540406e-09
5.731175e-07
7.8403165e-09
5.7231477e-07
6.5695452e-09
5.7171628e-07
5.4838595e-09
5.7126483e-07
4.5399254e-09
5.709217e-07
3.7046263e-09
5.7066027e-07
2.9520831e-09
5.7046201e-07
2.2615558e-09
5.7031395e-07
1.6159261e-09
5.7020705e-07
1.0005655e-09
5.7013513e-07
4.024557e-10
5.700942e-07
-1.9053507e-10
5.7008209e-07
-7.9029195e-10
5.7009819e-07
-1.4090746e-09
5.7014344e-07
-2.0601718e-09
5.7022036e-07
-2.7586523e-09
5.7033337e-07
-3.5222922e-09
5.7048922e-07
-4.372783e-09
5.7069777e-07
-5.3373644e-09
5.7097316e-07
-6.4511049e-09
5.7133574e-07
-7.7601626e-09
5.7181498e-07
-9.3263534e-09
5.724542e-07
-1.1233536e-08
5.7331869e-07
-1.3598017e-08
5.7451056e-07
-1.6581195e-08
5.7618437e-07
-2.038093e-08
5.7857493e-07
-2.5263934e-08
5.8215596e-07
-3.2489233e-08
5.8887925e-07
-4.5073237e-08
6.0707347e-07
-4.6531145e-08
6.1708432e-07
3.9865567e-07
4.7955671e-08
3.063177e-07
6.0056745e-08
6.1427429e-07
4.5379781e-08
6.3628763e-07
3.4855849e-08
6.0577687e-07
2.8380354e-08
5.9216132e-07
2.3400335e-08
5.8596801e-07
1.9415674e-08
5.818722e-07
1.6211576e-08
5.7893681e-07
1.3603488e-08
5.7681946e-07
1.1451979e-08
5.7526901e-07
9.6518955e-09
5.7411485e-07
8.1231711e-09
5.73245e-07
6.8047545e-09
5.7258325e-07
5.6496052e-09
5.7207685e-07
4.6209195e-09
5.7168895e-07
3.6893817e-09
5.7139354e-07
2.8311234e-09
5.7117221e-07
2.0261851e-09
5.7101199e-07
1.2573311e-09
5.7090398e-07
5.0910464e-10
5.7084243e-07
-2.3296521e-10
5.7082416e-07
-9.8307363e-10
5.708483e-07
-1.7558304e-09
5.7091619e-07
-2.5669825e-09
5.7103151e-07
-3.4342303e-09
5.7120061e-07
-4.3782116e-09
5.714332e-07
-5.4237413e-09
5.717433e-07
-6.6014215e-09
5.7215084e-07
-7.9497684e-09
5.7268409e-07
-9.5180861e-09
5.733833e-07
-1.1370243e-08
5.7430635e-07
-1.3589098e-08
5.7553755e-07
-1.6283003e-08
5.7720446e-07
-1.9595625e-08
5.79497e-07
-2.3697345e-08
5.8267665e-07
-2.8890908e-08
5.8734952e-07
-3.6751527e-08
5.9673987e-07
-4.8425405e-08
6.1874735e-07
-4.3171336e-08
6.1183025e-07
3.5548433e-07
4.0324591e-08
2.6599339e-07
5.8968879e-08
5.9563021e-07
4.8302501e-08
6.4695398e-07
3.7561982e-08
6.1651735e-07
3.0903192e-08
5.9882011e-07
2.5868674e-08
5.9100253e-07
2.1755576e-08
5.859853e-07
1.8369005e-08
5.8232338e-07
1.5556254e-08
5.7963221e-07
1.3195243e-08
5.7763002e-07
1.1190001e-08
5.761201e-07
9.4652016e-09
5.749698e-07
7.9616689e-09
5.7408678e-07
6.6324635e-09
5.7340606e-07
5.4399225e-09
5.7288149e-07
4.3533919e-09
5.7248008e-07
3.3474466e-09
5.7217816e-07
2.4004907e-09
5.7195895e-07
1.4936402e-09
5.7181083e-07
6.0980171e-10
5.7172626e-07
-2.6711766e-10
5.7170108e-07
-1.1529279e-09
5.7173411e-07
-2.0638585e-09
5.7182712e-07
-3.0172874e-09
5.7198494e-07
-4.0325466e-09
5.7221587e-07
-5.1318684e-09
5.7253252e-07
-6.3415375e-09
5.7295296e-07
-7.6933254e-09
5.7350263e-07
-9.2262885e-09
5.7421705e-07
-1.0989076e-08
5.7514609e-07
-1.3042961e-08
5.7636024e-07
-1.5465267e-08
5.7795985e-07
-1.8353451e-08
5.8009265e-07
-2.1831771e-08
5.8297531e-07
-2.6056124e-08
5.86901e-07
-3.1435458e-08
5.9272886e-07
-3.9601236e-08
6.0490565e-07
-4.9122382e-08
6.282685e-07
-3.855109e-08
6.0125896e-07
3.1693324e-07
3.2849987e-08
2.3314376e-07
5.5219222e-08
5.7326131e-07
4.9196375e-08
6.5297683e-07
3.9027544e-08
6.2668612e-07
3.239771e-08
6.0544993e-07
2.7486432e-08
5.9591381e-07
2.3407548e-08
5.9006418e-07
1.9973524e-08
5.8575741e-07
1.706774e-08
5.8253799e-07
1.4587933e-08
5.8010982e-07
1.2450278e-08
5.7825775e-07
1.0587483e-08
5.7683259e-07
8.9452674e-09
5.75729e-07
7.479395e-09
5.7487193e-07
6.1534929e-09
5.7420739e-07
4.9372909e-09
5.7369628e-07
3.8051794e-09
5.7331027e-07
2.7350321e-09
5.7302909e-07
1.7072304e-09
5.7283863e-07
7.0383175e-10
5.7272966e-07
-2.921623e-10
5.7269707e-07
-1.2974804e-09
5.7273943e-07
-2.3292473e-09
5.7285889e-07
-3.4056676e-09
5.7306136e-07
-4.546767e-09
5.7335697e-07
-5.7752402e-09
5.7376099e-07
-7.1174472e-09
5.7429517e-07
-8.6046151e-09
5.749898e-07
-1.0274288e-08
5.7588672e-07
-1.2172101e-08
5.770439e-07
-1.4354173e-08
5.7854231e-07
-1.6889995e-08
5.8049567e-07
-1.986448e-08
5.8306713e-07
-2.3378507e-08
5.8648934e-07
-2.7573546e-08
5.9109604e-07
-3.2966887e-08
5.981222e-07
-4.0941822e-08
6.1288058e-07
-4.7625589e-08
6.3495226e-07
-3.3344538e-08
5.8697791e-07
2.835887e-07
2.6175059e-08
2.0696915e-07
5.0096129e-08
5.4934076e-07
4.8448373e-08
6.5462465e-07
3.944779e-08
6.3568663e-07
3.3036028e-08
6.1186167e-07
2.8371607e-08
6.0057823e-07
2.4453997e-08
5.9398179e-07
2.1081547e-08
5.8912986e-07
1.8173295e-08
5.8544624e-07
1.5649959e-08
5.8263316e-07
1.3442359e-08
5.8046535e-07
1.1493268e-08
5.7878169e-07
9.755123e-09
5.7746714e-07
8.188082e-09
5.7643897e-07
6.7585626e-09
5.7563691e-07
5.4379674e-09
5.7501687e-07
4.2015965e-09
5.7454664e-07
3.0277236e-09
5.7420297e-07
1.8967991e-09
5.7396956e-07
7.9074604e-10
5.7383572e-07
-3.0767561e-10
5.7379549e-07
-1.4154656e-09
5.7384722e-07
-2.5499756e-09
5.739934e-07
-3.7295133e-09
5.7424089e-07
-4.9739838e-09
5.7460144e-07
-6.3056058e-09
5.7509261e-07
-7.7497231e-09
5.7573929e-07
-9.3357526e-09
5.7657583e-07
-1.1098291e-08
5.7764926e-07
-1.3078384e-08
5.79024e-07
-1.5325176e-08
5.807891e-07
-1.7898024e-08
5.8306852e-07
-2.0866466e-08
5.8603557e-07
-2.4305821e-08
5.899287e-07
-2.83515e-08
5.9514172e-07
-3.3606998e-08
6.033777e-07
-4.0976432e-08
6.2025002e-07
-4.4722427e-08
6.3869826e-07
-2.8168939e-08
5.7042442e-07
2.5541976e-07
2.0555691e-08
1.86414e-07
4.454055e-08
5.2535663e-07
4.6587347e-08
6.5257803e-07
3.9099063e-08
6.4317481e-07
3.3032492e-08
6.1792819e-07
2.8667845e-08
6.0494287e-07
2.4990292e-08
5.9765935e-07
2.1758681e-08
5.9236147e-07
1.8917618e-08
5.8828731e-07
1.6410983e-08
5.851398e-07
1.4185222e-08
5.8269111e-07
1.2194101e-08
5.8077281e-07
1.0397781e-08
5.7926346e-07
8.761846e-09
5.780749e-07
7.256482e-09
5.7714228e-07
5.855661e-09
5.7641769e-07
4.5364036e-09
5.758659e-07
3.2781121e-09
5.7546126e-07
2.061964e-09
5.751857e-07
8.7035494e-10
5.7502732e-07
-3.1362178e-10
5.7497947e-07
-1.5066714e-09
5.7504027e-07
-2.7257949e-09
5.7521252e-07
-3.9887908e-09
5.7550389e-07
-5.3147798e-09
5.7592743e-07
-6.7247708e-09
5.7650261e-07
-8.2422776e-09
5.772568e-07
-9.8940049e-09
5.7822756e-07
-1.1710614e-08
5.7946587e-07
-1.3727516e-08
5.810409e-07
-1.5985785e-08
5.8304737e-07
-1.8533353e-08
5.8561609e-07
-2.142343e-08
5.8892565e-07
-2.4710172e-08
5.9321544e-07
-2.8539393e-08
5.9897094e-07
-3.3556136e-08
6.0839444e-07
-4.0038421e-08
6.267323e-07
-4.1070963e-08
6.397308e-07
-2.3377596e-08
5.5273105e-07
2.3204217e-07
1.5998866e-08
1.7041577e-07
3.9094797e-08
5.0226169e-07
4.4051473e-08
6.4762168e-07
3.822294e-08
6.4900324e-07
3.2591014e-08
6.2356005e-07
2.8531012e-08
6.0900287e-07
2.5125441e-08
6.0106492e-07
2.2081142e-08
5.9540577e-07
1.935419e-08
5.9101426e-07
1.6908437e-08
5.8758555e-07
1.4704842e-08
5.8489471e-07
1.2707745e-08
5.827699e-07
1.0885168e-08
5.8108604e-07
9.2085215e-09
5.7975155e-07
7.6522618e-09
5.7869854e-07
6.1934711e-09
5.7787648e-07
4.8114313e-09
5.7724794e-07
3.4871963e-09
5.7678549e-07
2.2031712e-09
5.7646973e-07
9.4270341e-10
5.7628779e-07
-3.1031413e-10
5.7623249e-07
-1.5718301e-09
5.7630178e-07
-2.8580267e-09
5.7649872e-07
-4.1857105e-09
5.7683157e-07
-5.572712e-09
5.7731443e-07
-7.0383004e-09
5.7796819e-07
-8.603611e-09
5.7882211e-07
-1.0292083e-08
5.7991603e-07
-1.2129916e-08
5.813037e-07
-1.4146487e-08
5.8305747e-07
-1.6374717e-08
5.852756e-07
-1.8851453e-08
5.8809283e-07
-2.1614963e-08
5.9168916e-07
-2.4705839e-08
5.9630631e-07
-2.8292164e-08
6.0255727e-07
-3.2998491e-08
6.1310076e-07
-3.84227e-08
6.3215651e-07
-3.7113605e-08
6.3842171e-07
-1.913976e-08
5.3475721e-07
2.1290241e-07
1.240556e-08
1.5801095e-07
3.4057842e-08
4.8061068e-07
4.1169857e-08
6.4051019e-07
3.6997423e-08
6.5317559e-07
3.1865495e-08
6.2869187e-07
2.8095619e-08
6.1277273e-07
2.4962896e-08
6.0419765e-07
2.2126013e-08
5.9824265e-07
1.9539956e-08
5.9360031e-07
1.7184031e-08
5.8994147e-07
1.5031529e-08
5.8704721e-07
1.3056065e-08
5.8474537e-07
1.1232925e-08
5.8290918e-07
9.5391795e-09
5.814453e-07
7.9536293e-09
5.8028409e-07
6.4566824e-09
5.7937343e-07
5.0301721e-09
5.7867445e-07
3.6571307e-09
5.7815853e-07
2.3215326e-09
5.7780533e-07
1.0080248e-09
5.776013e-07
-2.9835117e-10
5.7753886e-07
-1.612438e-09
5.7761587e-07
-2.9492488e-09
5.7783553e-07
-4.3242482e-09
5.7820657e-07
-5.7536313e-09
5.7874381e-07
-7.2545971e-09
5.7946916e-07
-8.8456077e-09
5.8041312e-07
-1.0546621e-08
5.8161704e-07
-1.2379299e-08
5.8313638e-07
-1.4367168e-08
5.8504534e-07
-1.6535648e-08
5.8744408e-07
-1.8911741e-08
5.9046892e-07
-2.1521097e-08
5.9429852e-07
-2.4397959e-08
5.9918318e-07
-2.7735589e-08
6.058949e-07
-3.2076568e-08
6.1744174e-07
-3.6371306e-08
6.3645125e-07
-3.3151458e-08
6.3520186e-07
-1.5516944e-08
5.1712269e-07
1.9738546e-07
9.6371146e-09
1.4837471e-07
2.958187e-08
4.6066752e-07
3.8189017e-08
6.3190382e-07
3.5560507e-08
6.5580405e-07
3.0966874e-08
6.3328536e-07
2.7465801e-08
6.1627377e-07
2.4589025e-08
6.0707443e-07
2.1961887e-08
6.0086979e-07
1.9528618e-08
5.9603358e-07
1.7279127e-08
5.9219096e-07
1.5196708e-08
5.8912963e-07
1.3262696e-08
5.8667938e-07
1.1458674e-08
5.847132e-07
9.7668251e-09
5.8313714e-07
8.170056e-09
5.8188086e-07
6.6520536e-09
5.8089143e-07
5.1972797e-09
5.8012922e-07
3.790896e-09
5.7956492e-07
2.4186429e-09
5.7917758e-07
1.0666883e-09
5.7895325e-07
-2.7854374e-10
5.788841e-07
-1.6305517e-09
5.7896788e-07
-3.0029451e-09
5.7920792e-07
-4.409625e-09
5.7961325e-07
-5.8649544e-09
5.8019914e-07
-7.3839104e-09
5.8098811e-07
-8.9822076e-09
5.8201141e-07
-1.0676373e-08
5.8331121e-07
-1.2483778e-08
5.8494378e-07
-1.4422622e-08
5.8698418e-07
-1.6511766e-08
5.8953322e-07
-1.876982e-08
5.9272697e-07
-2.1212473e-08
5.9674117e-07
-2.3873775e-08
6.0184448e-07
-2.6968231e-08
6.0898935e-07
-3.0908314e-08
6.2138183e-07
-3.4088203e-08
6.3963114e-07
-2.938946e-08
6.3050312e-07
-1.2504369e-08
5.002376e-07
1.8488109e-07
7.5446828e-09
1.4083106e-07
2.5714442e-08
4.4249975e-07
3.5279673e-08
6.223397e-07
3.4021863e-08
6.5706189e-07
2.9977885e-08
6.3732916e-07
2.6721293e-08
6.1953031e-07
2.4073292e-08
6.0972243e-07
2.1646345e-08
6.0329674e-07
1.9367277e-08
5.9831265e-07
1.7231616e-08
5.9432662e-07
1.5230372e-08
5.9113087e-07
1.3351069e-08
5.8855868e-07
1.1580498e-08
5.8648377e-07
9.9052431e-09
5.848124e-07
8.3118874e-09
5.8347421e-07
6.7871738e-09
5.8241615e-07
5.3181087e-09
5.8159829e-07
3.8919943e-09
5.8099103e-07
2.4964084e-09
5.8057317e-07
1.1191496e-09
5.8033051e-07
-2.5184572e-10
5.8025509e-07
-1.6285961e-09
5.8034463e-07
-3.0231785e-09
5.806025e-07
-4.4478219e-09
5.810379e-07
-5.9149876e-09
5.8166631e-07
-7.4374232e-09
5.8251055e-07
-9.0281825e-09
5.8360217e-07
-1.070059e-08
5.8498361e-07
-1.246815e-08
5.8671134e-07
-1.4344427e-08
5.8886046e-07
-1.6342742e-08
5.9153154e-07
-1.8474845e-08
5.9485908e-07
-2.074944e-08
5.9901576e-07
-2.3205423e-08
6.0430046e-07
-2.6070134e-08
6.1185406e-07
-2.9594551e-08
6.2490624e-07
-3.1734825e-08
6.4177141e-07
-2.5949749e-08
6.2471804e-07
-1.0055274e-08
4.8434313e-07
1.7482582e-07
5.9876772e-09
1.348446e-07
2.2433688e-08
4.2605617e-07
3.2543531e-08
6.1223135e-07
3.246173e-08
6.5714383e-07
2.8958352e-08
6.4083232e-07
2.5921992e-08
6.2256659e-07
2.3470794e-08
6.1217363e-07
2.1226754e-08
6.0554079e-07
1.9095931e-08
6.0044347e-07
1.7074764e-08
5.9634779e-07
1.5159745e-08
5.9304589e-07
1.334314e-08
5.9037529e-07
1.1615855e-08
5.8821106e-07
9.9681088e-09
5.8646014e-07
8.3896426e-09
5.8505268e-07
6.869928e-09
5.8393586e-07
5.3983259e-09
5.8306989e-07
3.964186e-09
5.8242517e-07
2.5568985e-09
5.8198045e-07
1.1659093e-09
5.817215e-07
-2.1929134e-10
5.8164029e-07
-1.6091941e-09
5.8173453e-07
-3.0143036e-09
5.8200761e-07
-4.4451623e-09
5.8246875e-07
-5.9123588e-09
5.8313351e-07
-7.4265096e-09
5.840247e-07
-8.9982033e-09
5.8517387e-07
-1.0637895e-08
5.8662331e-07
-1.2355745e-08
5.884292e-07
-1.4161446e-08
5.9066616e-07
-1.6063836e-08
5.9343393e-07
-1.8069396e-08
5.9686464e-07
-2.0182906e-08
6.0112927e-07
-2.2451595e-08
6.0656915e-07
-2.5104559e-08
6.1450703e-07
-2.8215613e-08
6.280173e-07
-2.9425141e-08
6.4298094e-07
-2.2887396e-08
6.1818029e-07
-8.1011239e-09
4.6955685e-07
1.667247e-07
4.8433883e-09
1.3000267e-07
1.968098e-08
4.1122151e-07
3.0028709e-08
6.0188558e-07
3.0932236e-08
6.5624061e-07
2.7947494e-08
6.4381682e-07
2.51099e-08
6.2540406e-07
2.28234e-08
6.1446012e-07
2.0740939e-08
6.0762325e-07
1.8747651e-08
6.0243676e-07
1.683694e-08
5.982585e-07
1.5008731e-08
5.948741e-07
1.3258715e-08
5.921253e-07
1.15809e-08
5.8988887e-07
9.9683731e-09
5.8807267e-07
8.413493e-09
5.8660756e-07
6.9080799e-09
5.8544127e-07
5.4435949e-09
5.8453437e-07
4.0112734e-09
5.8385749e-07
2.6022213e-09
5.8338951e-07
1.2074786e-09
5.8311624e-07
-1.8194063e-10
5.8302971e-07
-1.5750214e-09
5.8312761e-07
-2.9807276e-09
5.8341332e-07
-4.4079723e-09
5.83896e-07
-5.8655746e-09
5.8459111e-07
-7.3621891e-09
5.8552132e-07
-8.9062037e-09
5.8671788e-07
-1.0505596e-08
5.882227e-07
-1.2167748e-08
5.9009135e-07
-1.3899258e-08
5.9239767e-07
-1.5705517e-08
5.9524019e-07
-1.7589264e-08
5.9874838e-07
-1.9554135e-08
6.0309414e-07
-2.1657369e-08
6.0867238e-07
-2.4117904e-08
6.1696756e-07
-2.6829962e-08
6.3072936e-07
-2.7231011e-08
6.4338199e-07
-2.0211586e-08
6.1116087e-07
-6.5662056e-09
4.5591147e-07
1.6015849e-07
4.0094588e-09
1.2599494e-07
1.738377e-08
3.9785072e-07
2.7749018e-08
5.9152285e-07
2.946379e-08
6.5452637e-07
2.6968223e-08
6.4631213e-07
2.4311902e-08
6.2806022e-07
2.2160982e-08
6.1661102e-07
2.0217732e-08
6.0956651e-07
1.8348789e-08
6.0430571e-07
1.6541578e-08
6.0006571e-07
1.4797681e-08
5.96618e-07
1.311511e-08
5.9380787e-07
1.1490085e-08
5.915139e-07
9.9178692e-09
5.8964489e-07
8.3929043e-09
5.8813252e-07
6.9089685e-09
5.8692521e-07
5.4593385e-09
5.85984e-07
4.0369323e-09
5.852799e-07
2.6344274e-09
5.8479201e-07
1.2443533e-09
5.8450632e-07
-1.4083424e-10
5.844149e-07
-1.5286898e-09
5.8451547e-07
-2.9267211e-09
5.8481135e-07
-4.3423218e-09
5.853116e-07
-5.7826928e-09
5.8603148e-07
-7.2547417e-09
5.8699336e-07
-8.7649559e-09
5.8822809e-07
-1.0319248e-08
5.8977699e-07
-1.192278e-08
5.9169488e-07
-1.3579787e-08
5.9405467e-07
-1.5293149e-08
5.9695355e-07
-1.7063225e-08
6.0051846e-07
-1.8894787e-08
6.0492571e-07
-2.0855114e-08
6.1063271e-07
-2.3141805e-08
6.1925425e-07
-2.5477052e-08
6.330646e-07
-2.519194e-08
6.4309687e-07
-1.7903623e-08
6.0387255e-07
-5.3761082e-09
4.4338396e-07
1.5478238e-07
3.4032216e-09
1.2259378e-07
1.5468188e-08
3.8578995e-07
2.5697691e-08
5.8129651e-07
2.8071577e-08
6.521533e-07
2.6032106e-08
6.4835133e-07
2.3543566e-08
6.3054855e-07
2.1503556e-08
6.1865099e-07
1.9678097e-08
6.1139197e-07
1.7919533e-08
6.0606428e-07
1.6207373e-08
6.0177787e-07
1.4543383e-08
5.9828199e-07
1.292701e-08
5.9542424e-07
1.1355966e-08
5.9308494e-07
9.8270834e-09
5.9117377e-07
8.3364103e-09
5.8962319e-07
6.8793063e-09
5.8838231e-07
5.4505741e-09
5.8741273e-07
4.0445928e-09
5.8668588e-07
2.6554396e-09
5.8618116e-07
1.276996e-09
5.8588476e-07
-9.6958979e-11
5.8578885e-07
-1.4726597e-09
5.8589117e-07
-2.8562806e-09
5.8619497e-07
-4.2538385e-09
5.8670916e-07
-5.6710974e-09
5.8744874e-07
-7.1134533e-09
5.8843572e-07
-8.5858016e-09
5.8970044e-07
-1.0092391e-08
5.9128358e-07
-1.1636675e-08
5.9323916e-07
-1.3221171e-08
5.9563917e-07
-1.484704e-08
5.9857942e-07
-1.6513428e-08
6.0218485e-07
-1.8227951e-08
6.0664023e-07
-2.0066692e-08
6.1247145e-07
-2.2196391e-08
6.2138395e-07
-2.4181425e-08
6.3504964e-07
-2.3324513e-08
6.4223996e-07
-1.592938e-08
5.9647742e-07
-4.4624012e-09
4.3191698e-07
1.5031998e-07
2.9600592e-09
1.1963617e-07
1.3865709e-08
3.7488929e-07
2.3856719e-08
5.7130945e-07
2.6760513e-08
6.4925069e-07
2.5143217e-08
6.4996839e-07
2.2812579e-08
6.3287892e-07
2.0863673e-08
6.2059984e-07
1.9136636e-08
6.1311901e-07
1.7474819e-08
6.077261e-07
1.5848784e-08
6.0340391e-07
1.4259293e-08
5.9987148e-07
1.2706534e-08
5.96977e-07
1.1189153e-08
5.9460232e-07
9.7050599e-09
5.9265786e-07
8.251496e-09
5.9107676e-07
6.8250624e-09
5.8980875e-07
5.4218121e-09
5.8881598e-07
4.0373623e-09
5.8807033e-07
2.6670071e-09
5.8755152e-07
1.3058253e-09
5.8724594e-07
-5.1222707e-11
5.871459e-07
-1.4091801e-09
5.8724913e-07
-2.7730361e-09
5.8755883e-07
-4.1475895e-09
5.8808371e-07
-5.537361e-09
5.8883851e-07
-6.9464731e-09
5.8984483e-07
-8.3785243e-09
5.9113249e-07
-9.8364657e-09
5.9274152e-07
-1.1322492e-08
5.9472519e-07
-1.2837938e-08
5.9715462e-07
-1.43829e-08
6.0012438e-07
-1.5956275e-08
6.0375822e-07
-1.7569668e-08
6.0825362e-07
-1.9305823e-08
6.1420761e-07
-2.1293154e-08
6.2337128e-07
-2.2956244e-08
6.3671273e-07
-2.1629653e-08
6.4091337e-07
-1.424768e-08
5.8909545e-07
-3.7651807e-09
4.2143448e-07
1.465548e-07
2.6311481e-09
1.1700793e-07
1.2516539e-08
3.650098e-07
2.2203205e-08
5.6162762e-07
2.5528992e-08
6.4592655e-07
2.4300838e-08
6.5119635e-07
2.2121299e-08
6.3505813e-07
2.0248416e-08
6.2247263e-07
1.8603043e-08
6.1476439e-07
1.7025336e-08
6.0930381e-07
1.5476686e-08
6.0495256e-07
1.3955916e-08
6.0139225e-07
1.2463432e-08
5.9846949e-07
1.0998396e-08
5.9606736e-07
9.5594112e-09
5.9409685e-07
8.1445678e-09
5.924916e-07
6.7514148e-09
5.912019e-07
5.3770063e-09
5.9019039e-07
4.0179854e-09
5.8942935e-07
2.6706816e-09
5.8889882e-07
1.3312118e-09
5.8858541e-07
-4.41855e-12
5.8848153e-07
-1.3402517e-09
5.8858496e-07
-2.6801985e-09
5.8889877e-07
-4.0280186e-09
5.8943153e-07
-5.3871831e-09
5.9019767e-07
-6.7607674e-09
5.9121842e-07
-8.1513435e-09
5.9252307e-07
-9.5608852e-09
5.9415106e-07
-1.0990703e-08
5.9615501e-07
-1.2441384e-08
5.986053e-07
-1.3912477e-08
6.0159547e-07
-1.5403396e-08
6.0524914e-07
-1.6930361e-08
6.0978059e-07
-1.8580056e-08
6.158573e-07
-2.0437202e-08
6.2522843e-07
-2.180631e-08
6.3808183e-07
-2.0098417e-08
6.3920548e-07
-1.2815921e-08
5.8181295e-07
-3.2340471e-09
4.118526e-07
1.4332075e-07
2.380763e-09
1.1463061e-07
1.1370711e-08
3.5602682e-07
2.0713441e-08
5.5229078e-07
2.4371776e-08
6.4227043e-07
2.3501458e-08
6.5206657e-07
2.146865e-08
6.3709054e-07
1.9660976e-08
6.2428018e-07
1.8083295e-08
6.1634207e-07
1.6578431e-08
6.1080868e-07
1.5099016e-08
6.0643197e-07
1.3641254e-08
6.0285001e-07
1.2205375e-08
5.9990537e-07
1.0790756e-08
5.9748198e-07
9.3964057e-09
5.954912e-07
8.020989e-09
5.9386702e-07
6.6627564e-09
5.9256013e-07
5.3195449e-09
5.915336e-07
3.9888309e-09
5.9076006e-07
2.6678062e-09
5.9021985e-07
1.3534644e-09
5.8989975e-07
4.2693687e-11
5.897923e-07
-1.2676246e-09
5.8989528e-07
-2.580543e-09
5.9021169e-07
-3.8989315e-09
5.9074992e-07
-5.225389e-09
5.9152413e-07
-6.5621499e-09
5.9255518e-07
-7.9109964e-09
5.9387192e-07
-9.2731958e-09
5.9551326e-07
-1.0649479e-08
5.9753129e-07
-1.2040015e-08
5.9999583e-07
-1.3444208e-08
6.0299966e-07
-1.4862571e-08
6.066675e-07
-1.6316097e-08
6.1123411e-07
-1.7892411e-08
6.1743362e-07
-1.9629148e-08
6.2696517e-07
-2.0730743e-08
6.3918343e-07
-1.8716507e-08
6.3719124e-07
-1.1593788e-08
5.7469023e-07
-2.8279875e-09
4.030868e-07
1.4049276e-07
2.1835381e-09
1.1245115e-07
1.0387716e-08
3.4783083e-07
1.9365203e-08
5.433204e-07
2.3282041e-08
6.383565e-07
2.2740248e-08
6.526084e-07
2.0851543e-08
6.3897879e-07
1.9101887e-08
6.2602967e-07
1.7580647e-08
6.178633e-07
1.6138875e-08
6.1225046e-07
1.4721363e-08
6.0784949e-07
1.3321236e-08
6.0425013e-07
1.1938252e-08
6.0128835e-07
1.0571806e-08
5.9884842e-07
9.2210977e-09
5.968419e-07
7.8851572e-09
5.9520296e-07
6.5627371e-09
5.9388255e-07
5.2522722e-09
5.9284407e-07
3.9519018e-09
5.9206044e-07
2.6595234e-09
5.9151222e-07
1.3728639e-09
5.9118641e-07
8.9559058e-11
5.9107561e-07
-1.1927661e-09
5.911776e-07
-2.4764104e-09
5.9149534e-07
-3.7635135e-09
5.9203702e-07
-5.0559713e-09
5.9281659e-07
-6.3553595e-09
5.9385456e-07
-7.6628718e-09
5.9517943e-07
-8.979289e-09
5.9682968e-07
-1.0304998e-08
5.98857e-07
-1.1639997e-08
6.0133083e-07
-1.2983844e-08
6.0434351e-07
-1.4338553e-08
6.0802221e-07
-1.5729689e-08
6.1262525e-07
-1.7242765e-08
6.1894669e-07
-1.8866691e-08
6.2858909e-07
-1.9725178e-08
6.4004191e-07
-1.7467436e-08
6.349335e-07
-1.0545298e-08
5.6776809e-07
-2.5145553e-09
3.9505606e-07
1.3797821e-07
2.0220012e-09
1.1043398e-07
9.5353934e-09
3.4032705e-07
1.8138793e-08
5.347255e-07
2.2252661e-08
6.3424637e-07
2.2012037e-08
6.5284927e-07
2.0265906e-08
6.4072441e-07
1.8570002e-08
6.2772536e-07
1.7096434e-08
6.1933685e-07
1.5709519e-08
6.1363739e-07
1.4347487e-08
6.0921152e-07
1.3000113e-08
6.0559751e-07
1.1666474e-08
6.0262199e-07
1.0345846e-08
6.0016905e-07
9.037477e-09
5.9815027e-07
7.7406063e-09
5.9649983e-07
6.4543305e-09
5.9516883e-07
5.1775296e-09
5.9412087e-07
3.9088596e-09
5.933291e-07
2.6467855e-09
5.927743e-07
1.3896328e-09
5.9244357e-07
1.3565242e-10
5.9232959e-07
-1.116908e-09
5.9243016e-07
-2.3697346e-09
5.9274816e-07
-3.6243723e-09
5.9329166e-07
-4.8821592e-09
5.9407437e-07
-6.1441682e-09
5.9511657e-07
-7.4111695e-09
5.9644643e-07
-8.6836312e-09
5.9810214e-07
-9.961771e-09
6.0013514e-07
-1.1245592e-08
6.0261465e-07
-1.2535017e-08
6.0563294e-07
-1.3833819e-08
6.0932101e-07
-1.517164e-08
6.1396307e-07
-1.6628976e-08
6.2040403e-07
-1.8145841e-08
6.3010596e-07
-1.8783375e-08
6.4067945e-07
-1.633446e-08
6.3248458e-07
-9.6392848e-09
5.6107292e-07
-2.2686455e-09
3.8768542e-07
1.3570956e-07
1.8844934e-09
1.0855521e-07
8.7885707e-09
3.3343424e-07
1.7017329e-08
5.2650687e-07
2.127691e-08
6.2999152e-07
2.131188e-08
6.5281481e-07
1.9707351e-08
6.4232837e-07
1.8063191e-08
6.2936923e-07
1.6630696e-08
6.207693e-07
1.5291822e-08
6.1497627e-07
1.3979756e-08
6.1052359e-07
1.2680817e-08
6.0689645e-07
1.1393244e-08
6.0390956e-07
1.0116112e-08
6.0144618e-07
8.848625e-09
5.9941776e-07
7.5901179e-09
5.9775834e-07
6.3399114e-09
5.9641903e-07
5.097207e-09
5.9536357e-07
3.8610562e-09
5.9456526e-07
2.6303705e-09
5.9400498e-07
1.4039569e-09
5.9366998e-07
1.8056628e-10
5.9355298e-07
-1.0410491e-09
5.9365178e-07
-2.262079e-09
5.9396919e-07
-3.4835956e-09
5.9451318e-07
-4.7065041e-09
5.9529728e-07
-5.9315031e-09
5.9634157e-07
-7.1590714e-09
5.97674e-07
-8.3894958e-09
5.9933256e-07
-9.6229496e-09
6.0136859e-07
-1.0859558e-08
6.0385126e-07
-1.2099751e-08
6.0687313e-07
-1.3349194e-08
6.1057045e-07
-1.464091e-08
6.1525478e-07
-1.604772e-08
6.2181084e-07
-1.7461787e-08
6.3152002e-07
-1.7898344e-08
6.41116e-07
-1.5301763e-08
6.29888e-07
-8.8495184e-09
5.5462067e-07
-2.0712887e-09
3.8090719e-07
1.3363827e-07
1.7634848e-09
1.067985e-07
8.1277111e-09
3.2708319e-07
1.5986632e-08
5.1865995e-07
2.0348794e-08
6.2563526e-07
2.0635347e-08
6.5252912e-07
1.9171578e-08
6.4379153e-07
1.7578826e-08
6.3096163e-07
1.6182645e-08
6.2216542e-07
1.4886272e-08
6.1627265e-07
1.3619509e-08
6.1179036e-07
1.2365259e-08
6.081507e-07
1.1120805e-08
6.0515402e-07
9.884973e-09
6.0268201e-07
8.6568641e-09
6.0064587e-07
7.4358346e-09
5.9897936e-07
6.2213381e-09
5.9763353e-07
5.0128014e-09
5.9657211e-07
3.8095712e-09
5.9576849e-07
2.610905e-09
5.9520365e-07
1.4159899e-09
5.9486489e-07
2.2397605e-10
5.9474499e-07
-9.6598161e-10
5.9484173e-07
-2.1546779e-09
5.9515789e-07
-3.3428159e-09
5.9570131e-07
-4.5309716e-09
5.9648544e-07
-5.7195738e-09
5.9753017e-07
-6.9089115e-09
5.9886333e-07
-8.0991857e-09
6.0052284e-07
-9.2906092e-09
6.0256001e-07
-1.0483502e-08
6.0504415e-07
-1.1678893e-08
6.0806852e-07
-1.2884366e-08
6.1177593e-07
-1.4135493e-08
6.1650591e-07
-1.5495093e-08
6.2317044e-07
-1.6809495e-08
6.3283442e-07
-1.7063072e-08
6.4136958e-07
-1.4355086e-08
6.2718001e-07
-8.1543833e-09
5.4841997e-07
-1.9084823e-09
3.7466129e-07
1.3172979e-07
1.6542667e-09
1.0515226e-07
7.537692e-09
3.2121518e-07
1.5034909e-08
5.1117689e-07
1.9463143e-08
6.212143e-07
1.9978634e-08
6.5201496e-07
1.8654598e-08
6.4511494e-07
1.711409e-08
6.325017e-07
1.5750989e-08
6.2352844e-07
1.4492693e-08
6.1753096e-07
1.3267346e-08
6.1301571e-07
1.2054586e-08
6.0936346e-07
1.0850655e-08
6.0635795e-07
9.6541019e-09
6.0387857e-07
8.4638972e-09
6.0183607e-07
7.2793672e-09
6.0016389e-07
6.1000338e-09
5.9881286e-07
4.9254745e-09
5.9774667e-07
3.7552512e-09
5.9693871e-07
2.5888845e-09
5.9637002e-07
1.4258569e-09
5.9602792e-07
2.6563162e-10
5.9590522e-07
-8.9231923e-10
5.9599968e-07
-2.0484823e-09
5.9631405e-07
-3.2032771e-09
5.9685611e-07
-4.3570349e-09
5.976392e-07
-5.5099961e-09
5.9868314e-07
-6.6623358e-09
6.0001567e-07
-7.8142352e-09
6.0167474e-07
-8.9659979e-09
6.0371178e-07
-1.0118179e-08
6.0619634e-07
-1.1272459e-08
6.092228e-07
-1.243828e-08
6.1294175e-07
-1.3652849e-08
6.1772048e-07
-1.4967038e-08
6.2448463e-07
-1.6184095e-08
6.3405148e-07
-1.627098e-08
6.4145647e-07
-1.3481973e-08
6.2439101e-07
-7.5363398e-09
5.4247434e-07
-1.770115e-09
3.6889506e-07
1.2995968e-07
1.5539808e-09
1.0360777e-07
7.0067706e-09
3.157804e-07
1.4152371e-08
5.0404791e-07
1.8615567e-08
6.1675999e-07
1.9338554e-08
6.5129387e-07
1.8152832e-08
6.4630004e-07
1.6666177e-08
6.3398784e-07
1.5334159e-08
6.2486034e-07
1.4110478e-08
6.1875464e-07
1.2923343e-08
6.1420286e-07
1.1749374e-08
6.1053743e-07
1.0583719e-08
6.075236e-07
9.4246278e-09
6.0503766e-07
8.2709305e-09
6.0298977e-07
7.1218939e-09
6.0131293e-07
5.9770622e-09
5.9995769e-07
4.8361083e-09
5.9888762e-07
3.6987468e-09
5.9807607e-07
2.5646944e-09
5.9750407e-07
1.4336591e-09
5.9715896e-07
3.0534668e-10
5.9703353e-07
-8.2052515e-10
5.9712556e-07
-1.944206e-09
5.9743773e-07
-3.065901e-09
5.979778e-07
-4.1857635e-09
5.9875906e-07
-5.3039069e-09
5.9980128e-07
-6.4204468e-09
6.0113221e-07
-7.5355869e-09
6.0278988e-07
-8.649748e-09
6.0482594e-07
-9.7637378e-09
6.0731033e-07
-1.087991e-08
6.1033897e-07
-1.2009437e-08
6.1407128e-07
-1.3190214e-08
6.1890126e-07
-1.4459614e-08
6.2575403e-07
-1.5581121e-08
6.3517299e-07
-1.551615e-08
6.4139149e-07
-1.2671771e-08
6.2154663e-07
-6.9813133e-09
5.3678388e-07
-1.649035e-09
3.6356279e-07
1.2831064e-07
1.4609311e-09
1.0215804e-07
6.5257522e-09
3.1073662e-07
1.333085e-08
4.9726228e-07
1.7802353e-08
6.1229926e-07
1.8712477e-08
6.5038636e-07
1.7663137e-08
6.4734881e-07
1.62324e-08
6.3541796e-07
1.4930457e-08
6.2616211e-07
1.3738752e-08
6.1994635e-07
1.2587219e-08
6.153544e-07
1.1449793e-08
6.1167486e-07
1.0320494e-08
6.086529e-07