/*--------------------------------*- C++ -*----------------------------------*\
  =========                 |
  \\      /  F ield         | OpenFOAM: The Open Source CFD Toolbox
   \\    /   O peration     | Website:  https://openfoam.org
    \\  /    A nd           | Version:  10
     \\/     M anipulation  |
\*---------------------------------------------------------------------------*/
FoamFile
{
    format      ascii;
    class       volVectorField;
    location    "0.14";
    object      U;
}
// * * * * * * * * * * * * * * * * * * * * * * * * * * * * * * * * * * * * * //

dimensions      [0 1 -1 0 0 0 0];

internalField   nonuniform List<vector> 
4000
(
(0 0.018636691 0.47773195)
(0 0.023508563 0.5088604)
(0 0.0081655272 0.50052527)
(0 0.0056132905 0.50033638)
(0 0.0042532143 0.50025747)
(0 0.0032535074 0.50016898)
(0 0.0025546818 0.50011968)
(0 0.0020532366 0.50009011)
(0 0.0016753288 0.50006978)
(0 0.0013811129 0.50005536)
(0 0.0011462136 0.50004496)
(0 0.00095428973 0.50003729)
(0 0.00079408441 0.50003156)
(0 0.00065761964 0.50002722)
(0 0.00053906457 0.50002394)
(0 0.00043403601 0.50002146)
(0 0.00033914408 0.50001961)
(0 0.00025168422 0.50001828)
(0 0.00016942108 0.50001739)
(0 9.0430045e-05 0.50001688)
(0 1.2975138e-05 0.50001673)
(0 -6.4598658e-05 0.50001693)
(0 -0.00014395651 0.50001749)
(0 -0.00022686577 0.50001845)
(0 -0.00031530701 0.50001986)
(0 -0.00041160452 0.50002181)
(0 -0.00051859793 0.50002442)
(0 -0.00063988183 0.50002789)
(0 -0.00078015342 0.50003249)
(0 -0.0009457425 0.50003861)
(0 -0.0011454627 0.50004687)
(0 -0.0013919767 0.50005823)
(0 -0.0017040365 0.50007414)
(0 -0.0021119963 0.5000971)
(0 -0.0026717784 0.50013484)
(0 -0.0034655236 0.50020242)
(0 -0.0045580431 0.50027153)
(0 -0.0065823935 0.50043377)
(0 -0.017656819 0.5067537)
(0 -0.013588786 0.47975638)
(0 0.037430584 0.44797186)
(0 0.050951416 0.53232591)
(0 0.021964956 0.50804298)
(0 0.016131452 0.50357346)
(0 0.012411609 0.50242324)
(0 0.0095114413 0.50162298)
(0 0.0075162057 0.50115652)
(0 0.0060656746 0.50086577)
(0 0.0049606476 0.50066778)
(0 0.0040965838 0.50052873)
(0 0.0034045244 0.50042871)
(0 0.0028375142 0.50035516)
(0 0.0023631721 0.50030023)
(0 0.0019584068 0.5002588)
(0 0.0016062505 0.50022742)
(0 0.0012939003 0.50020374)
(0 0.0010114238 0.50018611)
(0 0.00075087501 0.50017342)
(0 0.00050567193 0.50016491)
(0 0.00027013679 0.50016007)
(0 3.9141071e-05 0.50015864)
(0 -0.00019220326 0.50016055)
(0 -0.00042881434 0.50016592)
(0 -0.00067591106 0.50017504)
(0 -0.00093933304 0.50018848)
(0 -0.001225919 0.50020707)
(0 -0.0015440026 0.50023205)
(0 -0.0019041003 0.50026521)
(0 -0.0023199036 0.50030918)
(0 -0.0028097638 0.50036786)
(0 -0.0033990678 0.50044718)
(0 -0.0041242052 0.50055661)
(0 -0.0050382712 0.50071126)
(0 -0.0062211494 0.50093672)
(0 -0.0078217352 0.50129461)
(0 -0.010115885 0.50191093)
(0 -0.013097911 0.50282585)
(0 -0.017417585 0.50608165)
(0 -0.038750819 0.52526773)
(0 -0.027890764 0.45022172)
(0 0.039885115 0.40982757)
(0 0.061420736 0.54930909)
(0 0.031975665 0.52188187)
(0 0.024348054 0.51008111)
(0 0.019185759 0.5065888)
(0 0.014969262 0.50452803)
(0 0.011999018 0.50327113)
(0 0.0097645637 0.50245792)
(0 0.0080296617 0.50190042)
(0 0.0066586502 0.50150789)
(0 0.0055512943 0.50122453)
(0 0.0046380476 0.50101564)
(0 0.0038701594 0.50085937)
(0 0.0032122213 0.50074135)
(0 0.0026378863 0.50065188)
(0 0.002127088 0.50058429)
(0 0.0016641365 0.50053397)
(0 0.0012363983 0.50049772)
(0 0.00083335283 0.50047337)
(0 0.00044588695 0.50045954)
(0 6.5745355e-05 0.50045546)
(0 -0.00031494799 0.50046091)
(0 -0.00070411687 0.50047624)
(0 -0.0011101556 0.50050232)
(0 -0.0015424251 0.5005407)
(0 -0.0020118361 0.50059376)
(0 -0.0025316036 0.500665)
(0 -0.0031182779 0.5007595)
(0 -0.0037932071 0.50088466)
(0 -0.0045846499 0.50105139)
(0 -0.0055309814 0.50127623)
(0 -0.006686204 0.50158532)
(0 -0.008127545 0.50202078)
(0 -0.0099591274 0.50265102)
(0 -0.012353773 0.50361573)
(0 -0.015699527 0.50520031)
(0 -0.019857393 0.5078557)
(0 -0.025170946 0.51641295)
(0 -0.047403122 0.53912908)
(0 -0.030847579 0.41489419)
(0 0.034787682 0.3617438)
(0 0.063828288 0.55456744)
(0 0.03936773 0.53747101)
(0 0.030072004 0.51849327)
(0 0.024100831 0.51197772)
(0 0.019267803 0.50849933)
(0 0.015724662 0.50626369)
(0 0.012943177 0.50475447)
(0 0.010733393 0.50370309)
(0 0.0089585922 0.50295445)
(0 0.0075057261 0.5024091)
(0 0.0062951125 0.50200455)
(0 0.0052689285 0.50170052)
(0 0.0043838991 0.50147008)
(0 0.0036071894 0.50129488)
(0 0.0029133972 0.50116225)
(0 0.0022823974 0.50106333)
(0 0.0016978104 0.50099198)
(0 0.0011458761 0.50094401)
(0 0.00061459487 0.50091673)
(0 9.3045683e-05 0.50090866)
(0 -0.00042921266 0.50091941)
(0 -0.00096268303 0.50094959)
(0 -0.0015184571 0.50100093)
(0 -0.0021088363 0.50107641)
(0 -0.0027480496 0.50118061)
(0 -0.0034531595 0.50132025)
(0 -0.0042452681 0.50150501)
(0 -0.0051511807 0.50174889)
(0 -0.0062057034 0.50207238)
(0 -0.0074547328 0.50250594)
(0 -0.0089605303 0.50309659)
(0 -0.010810499 0.50391904)
(0 -0.013111253 0.50508969)
(0 -0.015998453 0.50680805)
(0 -0.01987476 0.5094696)
(0 -0.024708448 0.51427762)
(0 -0.031089333 0.52824783)
(0 -0.050299309 0.54407938)
(0 -0.028430403 0.37240819)
(0 0.027419915 0.3148656)
(0 0.062301003 0.55025051)
(0 0.044596503 0.55146733)
(0 0.033965836 0.5274885)
(0 0.027447773 0.51772298)
(0 0.022438901 0.51291956)
(0 0.018620918 0.5097304)
(0 0.015512963 0.50749091)
(0 0.012992052 0.50589759)
(0 0.010929324 0.50474399)
(0 0.0092133754 0.50389271)
(0 0.0077653316 0.50325527)
(0 0.0065251826 0.50277278)
(0 0.0054464793 0.50240503)
(0 0.0044931489 0.50212421)
(0 0.0036367009 0.50191087)
(0 0.0028541659 0.50175134)
(0 0.0021265789 0.50163602)
(0 0.0014378198 0.50155836)
(0 0.00077370137 0.50151415)
(0 0.00012123208 0.50150105)
(0 -0.0005320459 0.50151842)
(0 -0.0011986607 0.50156725)
(0 -0.0018917873 0.50165024)
(0 -0.0026259337 0.50177206)
(0 -0.0034177102 0.50193988)
(0 -0.0042867752 0.5021641)
(0 -0.0052570463 0.50245959)
(0 -0.0063583079 0.50284764)
(0 -0.0076283708 0.50335887)
(0 -0.009115536 0.50403795)
(0 -0.010882278 0.50495141)
(0 -0.01301547 0.50620207)
(0 -0.015618979 0.50794488)
(0 -0.018780678 0.51040622)
(0 -0.02286214 0.51405814)
(0 -0.02814488 0.52114885)
(0 -0.035672961 0.53932781)
(0 -0.050449521 0.54157312)
(0 -0.024076867 0.33060339)
(0 0.019833332 0.27523026)
(0 0.057972998 0.53976523)
(0 0.047339809 0.56256539)
(0 0.03645561 0.53660413)
(0 0.029614617 0.52350758)
(0 0.024654772 0.5174028)
(0 0.020753427 0.51336134)
(0 0.017489917 0.51044183)
(0 0.014795719 0.50832056)
(0 0.012549852 0.50675731)
(0 0.010650771 0.50558749)
(0 0.0090264548 0.504702)
(0 0.0076192558 0.5040259)
(0 0.0063832836 0.50350696)
(0 0.0052820485 0.50310848)
(0 0.0042860507 0.50280442)
(0 0.00337103 0.50257623)
(0 0.0025166179 0.50241085)
(0 0.0017052579 0.50229925)
(0 0.00092132979 0.5022356)
(0 0.00015042266 0.50221669)
(0 -0.00062133045 0.50224161)
(0 -0.0014078704 0.50231172)
(0 -0.0022237875 0.50243077)
(0 -0.0030850143 0.50260519)
(0 -0.0040095759 0.50284478)
(0 -0.0050184865 0.50316367)
(0 -0.0061368523 0.50358188)
(0 -0.0073952644 0.50412758)
(0 -0.0088316942 0.50484072)
(0 -0.010493453 0.50577832)
(0 -0.01243888 0.50702266)
(0 -0.014748229 0.50869694)
(0 -0.017523369 0.51098282)
(0 -0.020818332 0.51412278)
(0 -0.024929372 0.51873473)
(0 -0.030465249 0.52823328)
(0 -0.038584051 0.54872717)
(0 -0.048474718 0.5340184)
(0 -0.019056533 0.29400583)
(0 0.013078457 0.24259899)
(0 0.051778765 0.52523158)
(0 0.047678818 0.57025166)
(0 0.037728078 0.54552328)
(0 0.030822755 0.52928863)
(0 0.026046292 0.52180077)
(0 0.022211463 0.51699538)
(0 0.018928424 0.51346944)
(0 0.016169941 0.51085957)
(0 0.013828142 0.50890584)
(0 0.011816508 0.50742492)
(0 0.010072421 0.50629179)
(0 0.0085432235 0.5054187)
(0 0.0071861308 0.50474352)
(0 0.0059663068 0.50422187)
(0 0.004854897 0.50382182)
(0 0.0038276757 0.50352041)
(0 0.0028639332 0.50330127)
(0 0.0019455432 0.50315305)
(0 0.0010561825 0.50306834)
(0 0.00018066724 0.50304307)
(0 -0.0006956702 0.50307609)
(0 -0.0015875716 0.50316912)
(0 -0.0025103849 0.5033269)
(0 -0.0034807199 0.50355756)
(0 -0.0045171269 0.5038734)
(0 -0.0056408911 0.50429202)
(0 -0.0068769752 0.50483805)
(0 -0.0082551343 0.50554575)
(0 -0.0098114901 0.50646294)
(0 -0.011590291 0.50765675)
(0 -0.013643839 0.50922207)
(0 -0.016041681 0.51129687)
(0 -0.018879212 0.5140806)
(0 -0.022187904 0.51784217)
(0 -0.026208338 0.52347319)
(0 -0.031792046 0.53537778)
(0 -0.039700497 0.55590389)
(0 -0.044853055 0.52287982)
(0 -0.014079442 0.26273766)
(0 0.0077652249 0.21559821)
(0 0.044802749 0.50805716)
(0 0.046217716 0.57438877)
(0 0.037998157 0.55374817)
(0 0.031252983 0.53495954)
(0 0.026734289 0.5260288)
(0 0.023083566 0.5205348)
(0 0.019889214 0.51648257)
(0 0.017152619 0.51343413)
(0 0.01478648 0.51112144)
(0 0.012722342 0.50934876)
(0 0.010908114 0.50797883)
(0 0.0092978522 0.50691404)
(0 0.0078535474 0.50608448)
(0 0.0065434129 0.50543954)
(0 0.0053404491 0.50494238)
(0 0.0042215014 0.50456623)
(0 0.0031663944 0.50429184)
(0 0.0021571801 0.50410576)
(0 0.001177488 0.50399919)
(0 0.00021195545 0.50396725)
(0 -0.00075431924 0.50400857)
(0 -0.0017363102 0.50412521)
(0 -0.002749522 0.50432281)
(0 -0.0038105777 0.50461102)
(0 -0.0049377942 0.50500437)
(0 -0.0061518448 0.50552347)
(0 -0.0074765243 0.50619692)
(0 -0.0089395744 0.50706407)
(0 -0.01057385 0.50817907)
(0 -0.012418992 0.50961719)
(0 -0.014520198 0.51148349)
(0 -0.01693371 0.51392686)
(0 -0.01974131 0.51715617)
(0 -0.022959101 0.52148446)
(0 -0.026808996 0.52818822)
(0 -0.032279549 0.54222155)
(0 -0.03933045 0.56051671)
(0 -0.040280423 0.50916994)
(0 -0.0096961375 0.23597837)
(0 0.0039998413 0.19362785)
(0 0.037873371 0.48955463)
(0 0.043641556 0.57525566)
(0 0.037517372 0.56084063)
(0 0.031110814 0.54035854)
(0 0.026872267 0.53000896)
(0 0.023473408 0.52389685)
(0 0.020441523 0.51940498)
(0 0.017790556 0.5159778)
(0 0.015456435 0.51334671)
(0 0.013388803 0.51130988)
(0 0.011546263 0.50972144)
(0 0.0098906064 0.50847676)
(0 0.008389549 0.50750017)
(0 0.0070152123 0.50673631)
(0 0.0057432747 0.50614445)
(0 0.0045524026 0.50569475)
(0 0.0034236252 0.5053656)
(0 0.0023397755 0.50514178)
(0 0.0012849839 0.5050133)
(0 0.00024422115 0.5049746)
(0 -0.00079715432 0.50502411)
(0 -0.0018538531 0.50516417)
(0 -0.0029410207 0.50540121)
(0 -0.0040747397 0.50574618)
(0 -0.0052724852 0.50621546)
(0 -0.0065536406 0.50683216)
(0 -0.0079400811 0.50762809)
(0 -0.0094567293 0.50864661)
(0 -0.011132252 0.50994681)
(0 -0.013000584 0.51161001)
(0 -0.015099318 0.5137489)
(0 -0.017471137 0.51651926)
(0 -0.020180337 0.5201323)
(0 -0.023234926 0.5249679)
(0 -0.02687573 0.53274484)
(0 -0.032114489 0.54839036)
(0 -0.03790707 0.56257028)
(0 -0.03536006 0.49391613)
(0 -0.0061878185 0.21340484)
(0 0.0015457253 0.17622064)
(0 0.031470187 0.4708541)
(0 0.040478468 0.57341244)
(0 0.036501531 0.56659313)
(0 0.030583754 0.54537342)
(0 0.026620438 0.53370068)
(0 0.023493466 0.52702553)
(0 0.020663126 0.5221783)
(0 0.018138806 0.51843805)
(0 0.015876902 0.51553505)
(0 0.013842949 0.51326711)
(0 0.012005459 0.51148361)
(0 0.010334079 0.51007551)
(0 0.0088024946 0.50896333)
(0 0.007387119 0.50808835)
(0 0.0060667786 0.50740702)
(0 0.0048224393 0.50688721)
(0 0.0036368009 0.50650544)
(0 0.0024939242 0.50624515)
(0 0.0013788684 0.50609537)
(0 0.00027734833 0.50605)
(0 -0.00082461345 0.5061073)
(0 -0.0019410586 0.50626986)
(0 -0.0030863601 0.50654472)
(0 -0.0042756285 0.50694388)
(0 -0.0055250455 0.50748518)
(0 -0.0068522307 0.50819367)
(0 -0.0082766479 0.50910358)
(0 -0.0098199438 0.51026121)
(0 -0.011506204 0.51172915)
(0 -0.013363232 0.51359276)
(0 -0.01542118 0.51596951)
(0 -0.01771073 0.51901802)
(0 -0.020279001 0.52294946)
(0 -0.023133321 0.52823981)
(0 -0.026552276 0.53704331)
(0 -0.031458084 0.55365749)
(0 -0.035801318 0.56235236)
(0 -0.030491393 0.47806015)
(0 -0.003577401 0.19479721)
(0 7.1081846e-05 0.16262925)
(0 0.025837336 0.45272254)
(0 0.037096597 0.56947528)
(0 0.035121494 0.57098357)
(0 0.029811799 0.54995465)
(0 0.026111637 0.53710782)
(0 0.023245953 0.52990339)
(0 0.020630387 0.52477103)
(0 0.018254626 0.52078113)
(0 0.016090132 0.51765347)
(0 0.014115564 0.51518944)
(0 0.012308002 0.51323688)
(0 0.010644306 0.51168456)
(0 0.0091037977 0.5104508)
(0 0.0076671571 0.50947482)
(0 0.0063165099 0.50871126)
(0 0.0050353512 0.50812637)
(0 0.0038083248 0.50769541)
(0 0.0026210147 0.50740078)
(0 0.0014597116 0.50723082)
(0 0.00031117881 0.507179)
(0 -0.00083759141 0.50724348)
(0 -0.0019996654 0.50742702)
(0 -0.0031883371 0.50773713)
(0 -0.0044174403 0.50818658)
(0 -0.0057015653 0.50879428)
(0 -0.0070562909 0.50958666)
(0 -0.0084984301 0.51059961)
(0 -0.010046213 0.51188137)
(0 -0.011719215 0.51349669)
(0 -0.013539313 0.51553323)
(0 -0.015529825 0.51811076)
(0 -0.017711455 0.52138758)
(0 -0.020116782 0.52557822)
(0 -0.022759342 0.53128577)
(0 -0.025954507 0.54103099)
(0 -0.030440843 0.5579327)
(0 -0.033306401 0.56025912)
(0 -0.025926017 0.46229146)
(0 -0.0017505683 0.17969579)
(0 -0.00072384825 0.1520305)
(0 0.021070872 0.43559215)
(0 0.033746174 0.56399373)
(0 0.033520195 0.57408524)
(0 0.028895438 0.55408157)
(0 0.025445213 0.54025445)
(0 0.022814327 0.53254079)
(0 0.020410107 0.52717511)
(0 0.018190879 0.52299088)
(0 0.01613708 0.51968228)
(0 0.014237913 0.51705596)
(0 0.012477547 0.51496049)
(0 0.010839015 0.513284)
(0 0.0093066113 0.51194385)
(0 0.0078649764 0.51087828)
(0 0.0064994351 0.5100409)
(0 0.0051960352 0.50939704)
(0 0.0039414716 0.50892112)
(0 0.0027230085 0.50859489)
(0 0.0015283539 0.50840623)
(0 0.00034552092 0.5083483)
(0 -0.00083732099 0.50841919)
(0 -0.0020320537 0.50862177)
(0 -0.0032506913 0.50896388)
(0 -0.0045056043 0.50945882)
(0 -0.0058096346 0.5101262)
(0 -0.0071762155 0.5109933)
(0 -0.0086194812 0.512097)
(0 -0.010154346 0.51348662)
(0 -0.011796228 0.51522803)
(0 -0.013561676 0.51740988)
(0 -0.015467956 0.52015235)
(0 -0.017527632 0.52361147)
(0 -0.019762388 0.52801292)
(0 -0.022198125 0.53411168)
(0 -0.025173123 0.54467687)
(0 -0.029177805 0.56120734)
(0 -0.030653718 0.55668673)
(0 -0.021817295 0.44704887)
(0 -0.00054902585 0.1675136)
(0 -0.0010761225 0.14372729)
(0 0.017161565 0.41967751)
(0 0.030582679 0.55742775)
(0 0.031815417 0.57601986)
(0 0.027908553 0.55774661)
(0 0.024694479 0.54316625)
(0 0.022264851 0.53496031)
(0 0.020057757 0.52939633)
(0 0.017993187 0.52506317)
(0 0.016054628 0.52161198)
(0 0.014239374 0.51885406)
(0 0.012537188 0.51664028)
(0 0.010936132 0.5148591)
(0 0.0094246847 0.51342783)
(0 0.0079909838 0.51228443)
(0 0.0066232872 0.51138218)
(0 0.0053100709 0.51068597)
(0 0.0040400581 0.51016981)
(0 0.0028022355 0.50981509)
(0 0.0015858122 0.50960941)
(0 0.00038015853 0.50954576)
(0 -0.00082526017 0.50962218)
(0 -0.002041022 0.50984162)
(0 -0.003277755 0.5102121)
(0 -0.0045462836 0.51074722)
(0 -0.0058576611 0.51146697)
(0 -0.0072232035 0.51239907)
(0 -0.0086544912 0.51358083)
(0 -0.010163379 0.51506199)
(0 -0.01176162 0.51690871)
(0 -0.013461203 0.51920976)
(0 -0.015274255 0.52208435)
(0 -0.017206881 0.5256856)
(0 -0.019273894 0.53026031)
(0 -0.021518344 0.53672895)
(0 -0.024281109 0.54796089)
(0 -0.027770512 0.56352601)
(0 -0.028013654 0.55199784)
(0 -0.018239201 0.43259767)
(0 0.00018557537 0.15770491)
(0 -0.001159284 0.13716848)
(0 0.014031874 0.40505946)
(0 0.027686039 0.55015237)
(0 0.030095056 0.57693544)
(0 0.02690336 0.56095634)
(0 0.023912186 0.54586701)
(0 0.021649192 0.53718875)
(0 0.019618348 0.53144769)
(0 0.017699718 0.52700116)
(0 0.01587473 0.52343985)
(0 0.014146282 0.52057721)
(0 0.012508299 0.51826728)
(0 0.010952755 0.51639948)
(0 0.0094715092 0.5148916)
(0 0.0080556566 0.51368188)
(0 0.0066960318 0.51272368)
(0 0.0053833214 0.51198187)
(0 0.0041081619 0.51143035)
(0 0.0028612168 0.5110504)
(0 0.001633197 0.51082948)
(0 0.00041485992 0.51076054)
(0 -0.00080299163 0.51084157)
(0 -0.0020295897 0.51107555)
(0 -0.003274149 0.51147059)
(0 -0.0045459497 0.51204039)
(0 -0.0058543058 0.51280508)
(0 -0.0072085376 0.51379246)
(0 -0.0086178961 0.51503987)
(0 -0.010091526 0.51659696)
(0 -0.011638075 0.51852966)
(0 -0.013265799 0.52092616)
(0 -0.014982679 0.52390387)
(0 -0.016790025 0.52761347)
(0 -0.018699632 0.53233386)
(0 -0.020774266 0.53915143)
(0 -0.023335412 0.55087667)
(0 -0.02630124 0.56497207)
(0 -0.025497251 0.54651124)
(0 -0.015203219 0.41908653)
(0 0.00059128324 0.14980731)
(0 -0.0010916613 0.13191462)
(0 0.011571124 0.39172985)
(0 0.025083966 0.54246202)
(0 0.028417762 0.57698689)
(0 0.025913048 0.5637306)
(0 0.023133444 0.54837941)
(0 0.021005642 0.53925438)
(0 0.019127128 0.53334645)
(0 0.01734152 0.52881266)
(0 0.015624279 0.52516786)
(0 0.013981487 0.52222333)
(0 0.01240995 0.51983656)
(0 0.010904548 0.5178983)
(0 0.0094597457 0.51632712)
(0 0.0080690443 0.51506184)
(0 0.0067254581 0.51405622)
(0 0.0054216151 0.51327535)
(0 0.0041498903 0.51269328)
(0 0.0029025162 0.51229132)
(0 0.0016716446 0.51205696)
(0 0.00044938681 0.51198314)
(0 -0.00077213613 0.51206785)
(0 -0.00200083 0.51231406)
(0 -0.0032445314 0.51272987)
(0 -0.0045110423 0.51332895)
(0 -0.0058080502 0.51413134)
(0 -0.0071430636 0.51516471)
(0 -0.0085232864 0.51646612)
(0 -0.0099555563 0.51808478)
(0 -0.011445986 0.52008603)
(0 -0.01299992 0.52255711)
(0 -0.014622181 0.52561309)
(0 -0.016310875 0.52940403)
(0 -0.018078049 0.53425143)
(0 -0.020006219 0.54139546)
(0 -0.022377328 0.55343202)
(0 -0.02483084 0.56565079)
(0 -0.023166983 0.54049376)
(0 -0.012679602 0.40657808)
(0 0.00077715263 0.14342693)
(0 -0.00094970012 0.12762039)
(0 0.0096605395 0.37962326)
(0 0.022772886 0.53457795)
(0 0.026818563 0.57631994)
(0 0.02495614 0.56609681)
(0 0.022379225 0.55072398)
(0 0.020360625 0.54118467)
(0 0.018610337 0.53511207)
(0 0.016942894 0.53050854)
(0 0.015325167 0.52680119)
(0 0.013764199 0.52379355)
(0 0.012258627 0.52134625)
(0 0.010805391 0.51935156)
(0 0.0094008663 0.51772889)
(0 0.0080404323 0.5164178)
(0 0.0067188862 0.51537261)
(0 0.0054305077 0.51455881)
(0 0.0041692028 0.51395072)
(0 0.0029286251 0.51352984)
(0 0.0017022624 0.51328376)
(0 0.00048350243 0.51320546)
(0 -0.00073428188 0.51329295)
(0 -0.0019577362 0.51354916)
(0 -0.0031934012 0.51398211)
(0 -0.0044477107 0.51460533)
(0 -0.0057268813 0.51543866)
(0 -0.0070368288 0.51650943)
(0 -0.0083830184 0.51785425)
(0 -0.0097703952 0.51952171)
(0 -0.011203089 0.52157634)
(0 -0.01268427 0.52410421)
(0 -0.014216506 0.527218)
(0 -0.015796156 0.53106992)
(0 -0.017437987 0.53603312)
(0 -0.019242066 0.54347832)
(0 -0.021434629 0.55564456)
(0 -0.023401092 0.56567307)
(0 -0.021050701 0.53415798)
(0 -0.010615748 0.39507272)
(0 0.00082347854 0.1382309)
(0 -0.00078089819 0.12402504)
(0 0.008187476 0.36864345)
(0 0.020732411 0.52666051)
(0 0.025315184 0.57506317)
(0 0.024041202 0.56808482)
(0 0.021660406 0.55291751)
(0 0.019731036 0.54300401)
(0 0.018086521 0.53676411)
(0 0.016522096 0.53210112)
(0 0.014994585 0.52834694)
(0 0.013510053 0.52529117)
(0 0.012068158 0.52279676)
(0 0.010667227 0.52075744)
(0 0.0093049564 0.51909348)
(0 0.0079781364 0.51774515)
(0 0.0066829756 0.51666741)
(0 0.0054151194 0.51582623)
(0 0.0041697848 0.51519629)
(0 0.0029418781 0.51475935)
(0 0.0017260911 0.51450314)
(0 0.00051697903 0.51442074)
(0 -0.00069093092 0.51451016)
(0 -0.0019031231 0.51477428)
(0 -0.0031249554 0.51522101)
(0 -0.004361632 0.51586367)
(0 -0.0056180773 0.51672178)
(0 -0.0068988473 0.51782226)
(0 -0.008207976 0.51920116)
(0 -0.0095489112 0.52090636)
(0 -0.010924296 0.52300155)
(0 -0.01233576 0.52557155)
(0 -0.013784375 0.52872695)
(0 -0.015266048 0.53262556)
(0 -0.016799924 0.53769883)
(0 -0.018499718 0.54541617)
(0 -0.020524584 0.55753695)
(0 -0.022038317 0.56514469)
(0 -0.01915331 0.527667)
(0 -0.0089488286 0.38453095)
(0 0.00078676812 0.13394731)
(0 -0.00061324944 0.12093858)
(0 0.0070527623 0.35868231)
(0 0.01893441 0.5188228)
(0 0.023913317 0.57332638)
(0 0.023170452 0.56972428)
(0 0.02098116 0.55497277)
(0 0.019126691 0.5447326)
(0 0.017568145 0.53832067)
(0 0.016092346 0.5336028)
(0 0.014645599 0.52981304)
(0 0.0132314 0.52672074)
(0 0.011849821 0.52418995)
(0 0.010500053 0.52211573)
(0 0.0091806453 0.52041904)
(0 0.0078894033 0.51904084)
(0 0.0066236188 0.51793667)
(0 0.0053800361 0.51707302)
(0 0.0041549684 0.51642495)
(0 0.0029443992 0.5159745)
(0 0.0017440791 0.51570961)
(0 0.00054960411 0.51562345)
(0 -0.00064346122 0.51571402)
(0 -0.0018395586 0.51598417)
(0 -0.0030429948 0.51644164)
(0 -0.0042578963 0.51709951)
(0 -0.0054880813 0.51797697)
(0 -0.0067369761 0.51910045)
(0 -0.0080074713 0.52050543)
(0 -0.0093018729 0.52223908)
(0 -0.010621765 0.52436427)
(0 -0.011967748 0.52696466)
(0 -0.013340024 0.53014937)
(0 -0.014735145 0.53408549)
(0 -0.016177561 0.53926665)
(0 -0.017789624 0.54722311)
(0 -0.019656614 0.55913391)
(0 -0.020756731 0.56416136)
(0 -0.017465373 0.52114275)
(0 -0.0076140944 0.37489098)
(0 0.00070544765 0.13036133)
(0 -0.00046168083 0.11822606)
(0 0.0061738358 0.34963119)
(0 0.017348635 0.5111424)
(0 0.022610891 0.5712018)
(0 0.022342276 0.57104356)
(0 0.020341362 0.55689904)
(0 0.01855234 0.54638625)
(0 0.017063069 0.53979764)
(0 0.015662856 0.53502526)
(0 0.014287845 0.53120743)
(0 0.012937744 0.52808736)
(0 0.011612586 0.52552859)
(0 0.010312039 0.52342726)
(0 0.0090351408 0.5217049)
(0 0.0077803971 0.520303)
(0 0.0065459028 0.51917762)
(0 0.0053292646 0.51829574)
(0 0.0041276909 0.51763279)
(0 0.0029380721 0.51717109)
(0 0.0017570703 0.51689878)
(0 0.00058118391 0.51680913)
(0 -0.00059310481 0.51690018)
(0 -0.0017693233 0.51717468)
(0 -0.0029508721 0.51764023)
(0 -0.0041409493 0.51830964)
(0 -0.0053424504 0.51920174)
(0 -0.0065578866 0.52034251)
(0 -0.0077892629 0.52176687)
(0 -0.0090380491 0.52352134)
(0 -0.010305122 0.52566809)
(0 -0.01159046 0.52828975)
(0 -0.012893883 0.5314948)
(0 -0.014213478 0.53546339)
(0 -0.015579298 0.54075216)
(0 -0.017116767 0.54891095)
(0 -0.018834418 0.56046045)
(0 -0.019561538 0.56280685)
(0 -0.015969429 0.5146741)
(0 -0.0065503144 0.36608054)
(0 0.00060471127 0.12730695)
(0 -0.00033266051 0.11579351)
(0 0.0054849773 0.34138714)
(0 0.015946035 0.50367052)
(0 0.021401435 0.56876613)
(0 0.021553022 0.57206917)
(0 0.019738296 0.55870283)
(0 0.01800924 0.54797684)
(0 0.016575755 0.54120847)
(0 0.015239741 0.53637901)
(0 0.013928193 0.53253765)
(0 0.012636201 0.52939619)
(0 0.011363421 0.52681587)
(0 0.010109707 0.52469358)
(0 0.008874331 0.52295123)
(0 0.0076562467 0.5215307)
(0 0.0064541236 0.52038848)
(0 0.0052662278 0.51949194)
(0 0.0040904834 0.51881687)
(0 0.0029245285 0.51834586)
(0 0.0017657935 0.51806723)
(0 0.00061155345 0.51797435)
(0 -0.00054093027 0.51806527)
(0 -0.0016943995 0.51834268)
(0 -0.0028514749 0.518814)
(0 -0.0040145823 0.51949181)
(0 -0.0051858632 0.52039459)
(0 -0.006367107 0.5215479)
(0 -0.0075596548 0.52298615)
(0 -0.0087643932 0.52475533)
(0 -0.0099817694 0.52691704)
(0 -0.011211454 0.52955311)
(0 -0.012453251 0.53277238)
(0 -0.013707448 0.53677154)
(0 -0.015009493 0.54216826)
(0 -0.016482258 0.55048936)
(0 -0.018057776 0.56154071)
(0 -0.018451759 0.56115276)
(0 -0.014644468 0.50832401)
(0 -0.0057028912 0.35802433)
(0 0.00050032825 0.12465797)
(0 -0.0002275176 0.11357676)
(0 0.0049357177 0.33385616)
(0 0.014700403 0.49643932)
(0 0.020276502 0.5660829)
(0 0.020798263 0.57282549)
(0 0.019167895 0.56038849)
(0 0.017496379 0.54951282)
(0 0.016108241 0.54256421)
(0 0.014826767 0.53767328)
(0 0.013571336 0.53381055)
(0 0.01233194 0.53065218)
(0 0.011107601 0.52805511)
(0 0.0098981547 0.52591658)
(0 0.0087029254 0.52415874)
(0 0.0075211318 0.52272366)
(0 0.0063518344 0.52156817)
(0 0.0051937898 0.52065995)
(0 0.0040454827 0.51997508)
(0 0.0029051554 0.5194964)
(0 0.0017708733 0.51921238)
(0 0.00064056616 0.51911648)
(0 -0.00048785286 0.51920676)
(0 -0.0016164642 0.51948585)
(0 -0.002747233 0.51996101)
(0 -0.003881955 0.5206446)
(0 -0.005022169 0.52155479)
(0 -0.00616911 0.52271676)
(0 -0.0073236405 0.52416452)
(0 -0.0084862658 0.52594364)
(0 -0.0096572143 0.52811529)
(0 -0.010836077 0.53076077)
(0 -0.012022918 0.53399046)
(0 -0.013220662 0.53802059)
(0 -0.014469565 0.54352514)
(0 -0.015884643 0.55196595)
(0 -0.01732402 0.56239714)
(0 -0.017422612 0.5592593)
(0 -0.013468817 0.5021356)
(0 -0.0050251663 0.35064869)
(0 0.00040152921 0.1223201)
(0 -0.00014471436 0.11153269)
(0 0.00448841 0.32695472)
(0 0.013588949 0.48946744)
(0 0.019227211 0.5632048)
(0 0.020073575 0.5733349)
(0 0.018625597 0.56195885)
(0 0.017011414 0.55099977)
(0 0.015660913 0.54387362)
(0 0.014425988 0.53891593)
(0 0.013220298 0.53503219)
(0 0.012028582 0.53185989)
(0 0.010849012 0.52924955)
(0 0.0096812673 0.52709836)
(0 0.0085246098 0.52532849)
(0 0.0073783891 0.52388211)
(0 0.006241916 0.52271622)
(0 0.0051143009 0.52179874)
(0 0.0039944574 0.52110599)
(0 0.002881108 0.52062098)
(0 0.0017728325 0.52033234)
(0 0.00066810021 0.5202336)
(0 -0.00043463543 0.52032282)
(0 -0.001536908 0.52060257)
(0 -0.0026401474 0.52107997)
(0 -0.0037456427 0.52176719)
(0 -0.0048544617 0.52268214)
(0 -0.0059674259 0.52384968)
(0 -0.0070850688 0.52530352)
(0 -0.00820767 0.52708894)
(0 -0.0093353902 0.52926685)
(0 -0.010467904 0.53191828)
(0 -0.011605731 0.53515642)
(0 -0.012754673 0.53921943)
(0 -0.013958912 0.54483055)
(0 -0.015320915 0.55334656)
(0 -0.016629144 0.56305022)
(0 -0.016467255 0.55717665)
(0 -0.012421868 0.49613727)
(0 -0.0044786014 0.34388447)
(0 0.00031316334 0.12022405)
(0 -8.1326336e-05 0.10963253)
(0 0.0041156437 0.32060984)
(0 0.012592283 0.48276423)
(0 0.018245128 0.56017578)
(0 0.019374945 0.57361796)
(0 0.018106868 0.5634157)
(0 0.016551327 0.55244099)
(0 0.015233097 0.54514348)
(0 0.014038246 0.54011351)
(0 0.012876864 0.53620784)
(0 0.011728541 0.5330234)
(0 0.010590423 0.53040226)
(0 0.0094619304 0.52824102)
(0 0.0083422029 0.52646176)
(0 0.0072306267 0.52500658)
(0 0.0061266575 0.52383256)
(0 0.0050296516 0.52290776)
(0 0.0039388437 0.52220867)
(0 0.0028533299 0.52171844)
(0 0.0017721005 0.52142582)
(0 0.00069406002 0.52132438)
(0 -0.00038189679 0.5214122)
(0 -0.0014568595 0.52169177)
(0 -0.0025318301 0.52217013)
(0 -0.0036076967 0.52285925)
(0 -0.0046851684 0.52377685)
(0 -0.0057647682 0.52494757)
(0 -0.0068468177 0.52640487)
(0 -0.0079314853 0.52819389)
(0 -0.0090189663 0.53037542)
(0 -0.010109132 0.53303059)
(0 -0.011203091 0.53627659)
(0 -0.012309581 0.54037521)
(0 -0.013475646 0.54609002)
(0 -0.014787248 0.55463552)
(0 -0.015968575 0.56351838)
(0 -0.015577997 0.5549465)
(0 -0.011484973 0.49034676)
(0 -0.0040322613 0.33766863)
(0 0.00023722866 0.1183197)
(0 -3.3967655e-05 0.10785697)
(0 0.0037978539 0.31475859)
(0 0.011694108 0.47633274)
(0 0.017322687 0.55703284)
(0 0.018698935 0.57369373)
(0 0.017607505 0.56476033)
(0 0.016112857 0.55383804)
(0 0.014823474 0.54637881)
(0 0.013663557 0.54127139)
(0 0.012541924 0.53734194)
(0 0.011433321 0.53414627)
(0 0.010333722 0.53151598)
(0 0.0092422208 0.52934657)
(0 0.0081578055 0.52755987)
(0 0.0070798371 0.52609781)
(0 0.0060078398 0.52491742)
(0 0.0049413335 0.52398683)
(0 0.0038797863 0.52328262)
(0 0.0028225793 0.52278806)
(0 0.0017690246 0.52249196)
(0 0.00071837286 0.52238794)
(0 -0.00033012822 0.52247408)
(0 -0.0013772141 0.52275282)
(0 -0.0024235492 0.52323111)
(0 -0.0034697118 0.52392078)
(0 -0.004516144 0.5248394)
(0 -0.0055631618 0.52601145)
(0 -0.0066109628 0.52747028)
(0 -0.007659686 0.52926096)
(0 -0.0087096243 0.53144433)
(0 -0.009760916 0.53410196)
(0 -0.010815356 0.53735623)
(0 -0.011884523 0.54149353)
(0 -0.013017134 0.54730725)
(0 -0.014279516 0.55583602)
(0 -0.01533769 0.56381824)
(0 -0.01474711 0.55260351)
(0 -0.01064179 0.48477417)
(0 -0.0036619042 0.33194482)
(0 0.00017394146 0.11657123)
(0 6.6574178e-07 0.10619266)
(0 0.0035212825 0.30934705)
(0 0.010880803 0.47017188)
(0 0.01645332 0.55380733)
(0 0.018042699 0.57358003)
(0 0.017123771 0.56599385)
(0 0.01569277 0.55519124)
(0 0.01443037 0.54758319)
(0 0.013301398 0.5423939)
(0 0.012215732 0.53843824)
(0 0.011143747 0.53523155)
(0 0.010080121 0.53259317)
(0 0.009023575 0.53041689)
(0 0.0079729367 0.52862417)
(0 0.0069275043 0.52715665)
(0 0.005886818 0.52597122)
(0 0.0048504987 0.52503602)
(0 0.0038181793 0.52432766)
(0 0.002789454 0.52382947)
(0 0.0017638824 0.5235303)
(0 0.00074098585 0.52342381)
(0 -0.00027971044 0.52350805)
(0 -0.001298664 0.52378544)
(0 -0.0023162777 0.52426285)
(0 -0.0033328947 0.52495203)
(0 -0.0043487644 0.52587043)
(0 -0.0053640653 0.52704244)
(0 -0.0063789354 0.52850138)
(0 -0.007393538 0.5302924)
(0 -0.0084082975 0.53247647)
(0 -0.0094236616 0.53513596)
(0 -0.01044217 0.53839961)
(0 -0.011478033 0.54257856)
(0 -0.012580394 0.54848444)
(0 -0.013793633 0.55695039)
(0 -0.014732134 0.56396478)
(0 -0.013967317 0.55017661)
(0 -0.0098783082 0.47942431)
(0 -0.0033489108 0.32666342)
(0 0.0001224815 0.11495327)
(0 2.5516217e-05 0.10462996)
(0 0.0032763396 0.30432929)
(0 0.010140984 0.46427787)
(0 0.015631426 0.55052607)
(0 0.01740393 0.57329362)
(0 0.016652442 0.56711746)
(0 0.015288009 0.55650001)
(0 0.014051949 0.54875903)
(0 0.012950908 0.54348446)
(0 0.011898111 0.53949984)
(0 0.010860154 0.53628186)
(0 0.0098303226 0.53363598)
(0 0.0088069314 0.5314537)
(0 0.0077886524 0.52965594)
(0 0.0067747001 0.52818399)
(0 0.0057645961 0.52699454)
(0 0.0047580169 0.52605562)
(0 0.0037547072 0.52534385)
(0 0.0027544168 0.52484256)
(0 0.0017568922 0.52454064)
(0 0.00076186332 0.52443175)
(0 -0.00023092992 0.52451394)
(0 -0.0012217305 0.52478959)
(0 -0.0022107416 0.52526551)
(0 -0.0031981319 0.5259534)
(0 -0.0041840151 0.52687065)
(0 -0.0051684845 0.52804164)
(0 -0.0061516617 0.52949971)
(0 -0.0071337675 0.53129017)
(0 -0.0081153706 0.53347427)
(0 -0.0090972477 0.53613556)
(0 -0.010082718 0.53941012)
(0 -0.01108832 0.54363328)
(0 -0.012162366 0.54962261)
(0 -0.013325771 0.55798039)
(0 -0.014147996 0.56397157)
(0 -0.013232051 0.54769013)
(0 -0.0091826751 0.47429834)
(0 -0.0030792177 0.3217812)
(0 8.1500275e-05 0.11344788)
(0 4.3055304e-05 0.10316147)
(0 0.0030563501 0.29966617)
(0 0.0094650965 0.4586453)
(0 0.014852247 0.54721215)
(0 0.016780761 0.57285034)
(0 0.016190782 0.56813261)
(0 0.014895768 0.55776323)
(0 0.013686334 0.54990778)
(0 0.01261103 0.54454573)
(0 0.0115886 0.54052927)
(0 0.01058253 0.53729935)