/*--------------------------------*- C++ -*----------------------------------*\
  =========                 |
  \\      /  F ield         | OpenFOAM: The Open Source CFD Toolbox
   \\    /   O peration     | Website:  https://openfoam.org
    \\  /    A nd           | Version:  10
     \\/     M anipulation  |
\*---------------------------------------------------------------------------*/
FoamFile
{
    format      ascii;
    class       volVectorField;
    location    "0.14";
    object      U_0;
}
// * * * * * * * * * * * * * * * * * * * * * * * * * * * * * * * * * * * * * //

dimensions      [0 1 -1 0 0 0 0];

internalField   nonuniform List<vector> 
4000
(
(0 0.018636655 0.47773197)
(0 0.023508494 0.50886039)
(0 0.0081654633 0.50052527)
(0 0.0056132264 0.50033638)
(0 0.0042531452 0.50025747)
(0 0.0032534364 0.50016898)
(0 0.0025546113 0.50011968)
(0 0.0020531679 0.50009011)
(0 0.0016752633 0.50006978)
(0 0.0013810518 0.50005536)
(0 0.0011461579 0.50004496)
(0 0.00095424035 0.50003729)
(0 0.00079404227 0.50003155)
(0 0.00065758549 0.50002722)
(0 0.00053903908 0.50002394)
(0 0.00043401974 0.50002146)
(0 0.00033913751 0.50001961)
(0 0.00025168773 0.50001828)
(0 0.00016943495 0.50001738)
(0 9.0454486e-05 0.50001688)
(0 1.3010221e-05 0.50001673)
(0 -6.4552942e-05 0.50001693)
(0 -0.00014390029 0.50001749)
(0 -0.00022679926 0.50001845)
(0 -0.00031523055 0.50001986)
(0 -0.00041151854 0.5000218)
(0 -0.00051850303 0.50002442)
(0 -0.00063977871 0.50002789)
(0 -0.00078004294 0.50003249)
(0 -0.00094562566 0.50003861)
(0 -0.0011453406 0.50004687)
(0 -0.0013918509 0.50005823)
(0 -0.0017039085 0.50007414)
(0 -0.0021118679 0.5000971)
(0 -0.0026716519 0.50013484)
(0 -0.0034654025 0.50020242)
(0 -0.0045579322 0.50027153)
(0 -0.0065822878 0.50043377)
(0 -0.017656712 0.50675369)
(0 -0.013588731 0.47975641)
(0 0.037430483 0.44797198)
(0 0.050951208 0.5323259)
(0 0.021964746 0.50804299)
(0 0.016131249 0.50357347)
(0 0.012411391 0.50242325)
(0 0.0095112185 0.50162298)
(0 0.0075159847 0.50115652)
(0 0.0060654595 0.50086576)
(0 0.0049604425 0.50066778)
(0 0.0040963923 0.50052872)
(0 0.0034043499 0.5004287)
(0 0.0028373596 0.50035515)
(0 0.00236304 0.50030022)
(0 0.0019582995 0.50025878)
(0 0.0016061701 0.5002274)
(0 0.0012938486 0.50020372)
(0 0.0010114022 0.50018609)
(0 0.00075088481 0.5001734)
(0 0.00050571394 0.50016489)
(0 0.00027021162 0.50016005)
(0 3.9248987e-05 0.50015862)
(0 -0.00019206229 0.50016053)
(0 -0.00042864066 0.50016589)
(0 -0.00067570537 0.50017502)
(0 -0.00093909633 0.50018846)
(0 -0.0012256526 0.50020705)
(0 -0.0015437084 0.50023203)
(0 -0.0019037804 0.50026519)
(0 -0.0023195607 0.50030917)
(0 -0.0028094008 0.50036785)
(0 -0.0033986886 0.50044717)
(0 -0.0041238138 0.50055661)
(0 -0.0050378726 0.50071126)
(0 -0.0062207493 0.50093672)
(0 -0.0078213399 0.50129462)
(0 -0.010115504 0.50191094)
(0 -0.013097561 0.50282588)
(0 -0.017417243 0.50608167)
(0 -0.038750491 0.52526771)
(0 -0.027890607 0.45022193)
(0 0.039884963 0.4098279)
(0 0.06142038 0.54930913)
(0 0.031975275 0.52188186)
(0 0.024347692 0.51008113)
(0 0.019185373 0.50658881)
(0 0.014968871 0.50452803)
(0 0.011998631 0.50327112)
(0 0.0097641873 0.50245791)
(0 0.008029303 0.5019004)
(0 0.0066583153 0.50150786)
(0 0.0055509889 0.50122449)
(0 0.0046377767 0.5010156)
(0 0.0038699276 0.50085933)
(0 0.0032120326 0.5007413)
(0 0.002637744 0.50065183)
(0 0.0021269953 0.50058423)
(0 0.001664096 0.50053391)
(0 0.001236412 0.50049766)
(0 0.00083342219 0.50047331)
(0 0.000446013 0.50045947)
(0 6.5928631e-05 0.50045539)
(0 -0.00031470752 0.50046085)
(0 -0.00070381978 0.50047617)
(0 -0.001109803 0.50050226)
(0 -0.0015420187 0.50054064)
(0 -0.0020113782 0.5005937)
(0 -0.0025310973 0.50066495)
(0 -0.0031177268 0.50075945)
(0 -0.0037926156 0.50088461)
(0 -0.0045840233 0.50105135)
(0 -0.0055303258 0.5012762)
(0 -0.0066855264 0.5015853)
(0 -0.0081268538 0.50202077)
(0 -0.0099584323 0.50265103)
(0 -0.012353084 0.50361575)
(0 -0.015698859 0.50520035)
(0 -0.019856775 0.50785576)
(0 -0.025170316 0.51641298)
(0 -0.047402552 0.53912914)
(0 -0.030847329 0.41489476)
(0 0.034787495 0.36174446)
(0 0.063827778 0.55456764)
(0 0.039367119 0.53747099)
(0 0.030071453 0.5184933)
(0 0.024100257 0.51197774)
(0 0.019267223 0.50849933)
(0 0.015724088 0.50626367)
(0 0.01294262 0.50475444)
(0 0.010732862 0.50370304)
(0 0.0089580972 0.50295439)
(0 0.0075052745 0.50240903)
(0 0.0062947115 0.50200446)
(0 0.0052685847 0.50170042)
(0 0.0043836182 0.50146997)
(0 0.0036069764 0.50129477)
(0 0.0029132565 0.50116213)
(0 0.0022823327 0.5010632)
(0 0.0016978247 0.50099185)
(0 0.0011459716 0.50094387)
(0 0.00061477298 0.50091659)
(0 9.3307233e-05 0.50090853)
(0 -0.00042886768 0.50091927)
(0 -0.00096225537 0.50094946)
(0 -0.0015179483 0.5010008)
(0 -0.0021082488 0.50107628)
(0 -0.0027473866 0.50118049)
(0 -0.0034524253 0.50132014)
(0 -0.0042444679 0.50150491)
(0 -0.0051503207 0.5017488)
(0 -0.006204791 0.5020723)
(0 -0.0074537767 0.50250588)
(0 -0.0089595404 0.50309654)
(0 -0.010809487 0.50391902)
(0 -0.013110232 0.50508969)
(0 -0.015997438 0.50680808)
(0 -0.019873769 0.50946967)
(0 -0.024707515 0.51427772)
(0 -0.031088351 0.52824785)
(0 -0.050298472 0.54407967)
(0 -0.028430074 0.37240929)
(0 0.027419707 0.31486667)
(0 0.062300338 0.55025099)
(0 0.044595635 0.55146732)
(0 0.033965054 0.52748853)
(0 0.027446981 0.51772301)
(0 0.022438105 0.51291957)
(0 0.018620133 0.50973037)
(0 0.015512202 0.50749085)
(0 0.012991328 0.50589751)
(0 0.010928648 0.50474388)
(0 0.0092127588 0.50389257)
(0 0.0077647835 0.50325512)
(0 0.0065247116 0.50277262)
(0 0.0054460932 0.50240485)
(0 0.0044928542 0.50212401)
(0 0.0036365034 0.50191067)
(0 0.0028540705 0.50175112)
(0 0.0021265896 0.50163579)
(0 0.0014379394 0.50155813)
(0 0.00077393204 0.50151391)
(0 0.00012157485 0.50150081)
(0 -0.00053159096 0.50151819)
(0 -0.0011980944 0.50156702)
(0 -0.0018911118 0.50165002)
(0 -0.002625152 0.50177185)
(0 -0.0034168264 0.50193968)
(0 -0.0042857948 0.50216391)
(0 -0.005255976 0.50245942)
(0 -0.0063571559 0.50284748)
(0 -0.0076271466 0.50335874)
(0 -0.0091142506 0.50403784)
(0 -0.010880944 0.50495133)
(0 -0.013014103 0.50620203)
(0 -0.015617596 0.50794488)
(0 -0.018779297 0.51040627)
(0 -0.022860784 0.51405825)
(0 -0.028143573 0.52114896)
(0 -0.035671559 0.53932784)
(0 -0.050448401 0.54157382)
(0 -0.024076476 0.33060521)
(0 0.019833114 0.27523181)
(0 0.057972183 0.53976613)
(0 0.047338654 0.56256543)
(0 0.036454549 0.53660412)
(0 0.029613575 0.52350762)
(0 0.02465373 0.5174028)
(0 0.020752401 0.51336129)
(0 0.017488924 0.51044173)
(0 0.014794774 0.50832043)
(0 0.012548972 0.50675714)
(0 0.010649968 0.50558729)
(0 0.0090257396 0.50470177)
(0 0.00761864 0.50402564)
(0 0.0063827768 0.50350668)
(0 0.0052816591 0.50310818)
(0 0.0042857859 0.50280409)
(0 0.003370896 0.5025759)
(0 0.0025166196 0.5024105)
(0 0.0017053992 0.5022989)
(0 0.00092161324 0.50223524)
(0 0.00015084967 0.50221632)
(0 -0.00062075961 0.50224125)
(0 -0.0014071568 0.50231137)
(0 -0.0022229335 0.50243042)
(0 -0.0030840235 0.50260486)
(0 -0.0040084534 0.50284446)
(0 -0.0050172391 0.50316338)
(0 -0.0061354881 0.5035816)
(0 -0.0073937933 0.50412733)
(0 -0.0088301278 0.50484051)
(0 -0.010491805 0.50577815)
(0 -0.012437167 0.50702254)
(0 -0.014746467 0.50869687)
(0 -0.01752158 0.51098281)
(0 -0.02081654 0.51412284)
(0 -0.0249276 0.51873487)
(0 -0.030463496 0.52823337)
(0 -0.03858217 0.54872725)
(0 -0.048473309 0.53401974)
(0 -0.019056095 0.29400851)
(0 0.013078234 0.2426011)
(0 0.051777807 0.52523306)
(0 0.04767735 0.57025182)
(0 0.037726685 0.54552321)
(0 0.03082142 0.52928866)
(0 0.026044968 0.52180076)
(0 0.02221016 0.5169953)
(0 0.018927165 0.51346929)
(0 0.016168746 0.51085937)
(0 0.013827028 0.50890559)
(0 0.011815491 0.50742462)
(0 0.010071515 0.50629145)
(0 0.0085424421 0.50541832)
(0 0.0071854853 0.50474311)
(0 0.0059658075 0.50422143)
(0 0.0048545525 0.50382136)
(0 0.0038274937 0.50351993)
(0 0.0028639196 0.50330077)
(0 0.0019457028 0.50315253)
(0 0.0010565185 0.50306782)
(0 0.00018118156 0.50304255)
(0 -0.00069497719 0.50307557)
(0 -0.001586701 0.50316861)
(0 -0.0025093394 0.5033264)
(0 -0.0034795037 0.50355708)
(0 -0.0045157459 0.50387294)
(0 -0.0056393532 0.50429158)
(0 -0.00687529 0.50483765)
(0 -0.0082533135 0.5055454)
(0 -0.0098095475 0.50646263)
(0 -0.011588243 0.5076565)
(0 -0.013641704 0.50922188)
(0 -0.016039479 0.51129676)
(0 -0.018876969 0.51408057)
(0 -0.022185648 0.51784224)
(0 -0.026206091 0.52347334)
(0 -0.031789769 0.53537782)
(0 -0.039698085 0.55590411)
(0 -0.044851356 0.52288205)
(0 -0.014078968 0.26274136)
(0 0.0077649953 0.21560093)
(0 0.044801653 0.50805941)
(0 0.046215912 0.57438916)
(0 0.037996378 0.55374804)
(0 0.031251305 0.53495953)
(0 0.02673264 0.52602877)
(0 0.023081948 0.52053468)
(0 0.019887653 0.51648236)
(0 0.017151139 0.51343385)
(0 0.014785101 0.51112109)
(0 0.012721082 0.50934835)
(0 0.010906991 0.50797836)
(0 0.0092968816 0.50691352)
(0 0.0078527426 0.50608391)
(0 0.0065427862 0.50543894)
(0 0.0053400108 0.50494175)
(0 0.0042212604 0.50456557)
(0 0.0031663579 0.50429115)
(0 0.0021573539 0.50410505)
(0 0.001177876 0.50399847)
(0 0.00021256002 0.50396653)
(0 -0.00075349742 0.50400786)
(0 -0.0017352722 0.50412451)
(0 -0.0027482708 0.50432212)
(0 -0.003809118 0.50461035)
(0 -0.0049361327 0.50500373)
(0 -0.0061499904 0.50552287)
(0 -0.0074744881 0.50619637)
(0 -0.0089373698 0.50706356)
(0 -0.010571492 0.50817863)
(0 -0.012416501 0.50961683)
(0 -0.014517595 0.51148321)
(0 -0.016931017 0.51392668)
(0 -0.019738556 0.5171561)
(0 -0.022956322 0.52148452)
(0 -0.026806204 0.52818834)
(0 -0.032276666 0.5422215)
(0 -0.039327463 0.5605172)
(0 -0.040278434 0.50917336)
(0 -0.0096956326 0.23598323)
(0 0.0039996036 0.19363124)
(0 0.037872134 0.48955784)
(0 0.043639391 0.5752564)
(0 0.037515149 0.56084044)
(0 0.031108733 0.54035845)
(0 0.026870247 0.53000889)
(0 0.02347143 0.52389668)
(0 0.020439617 0.51940469)
(0 0.017788751 0.51597742)
(0 0.015454754 0.51334624)
(0 0.013387267 0.51130932)
(0 0.011544893 0.50972081)
(0 0.0098894195 0.50847606)
(0 0.0083885614 0.50749942)
(0 0.0070144381 0.5067355)
(0 0.0057427261 0.5061436)
(0 0.0045520899 0.50569387)
(0 0.003423557 0.50536468)
(0 0.0023399583 0.50514084)
(0 0.0012854228 0.50501235)
(0 0.00024491882 0.50497364)
(0 -0.00079619677 0.50502315)
(0 -0.0018526366 0.50516323)
(0 -0.0029395485 0.50540029)
(0 -0.0040730168 0.50574529)
(0 -0.0052705191 0.5062146)
(0 -0.0065514412 0.50683135)
(0 -0.0079376607 0.50762734)
(0 -0.009454103 0.50864593)
(0 -0.011129438 0.50994621)
(0 -0.012997602 0.51160951)
(0 -0.015096194 0.51374851)
(0 -0.017467897 0.516519)
(0 -0.020177013 0.52013218)
(0 -0.023231558 0.52496794)
(0 -0.026872313 0.53274489)
(0 -0.032110912 0.5483902)
(0 -0.037903466 0.56257123)
(0 -0.035357782 0.49392104)
(0 -0.006187283 0.213411)
(0 0.0015454785 0.17622476)
(0 0.031468802 0.47085848)
(0 0.040475916 0.57341372)
(0 0.036498804 0.5665929)
(0 0.030581203 0.54537322)
(0 0.026617989 0.53370056)
(0 0.023491077 0.5270253)
(0 0.020660827 0.52217792)
(0 0.018136631 0.51843755)
(0 0.015874877 0.51553444)
(0 0.0138411 0.51326639)
(0 0.012003807 0.51148279)
(0 0.010332645 0.51007461)
(0 0.0088012976 0.50896235)
(0 0.0073861748 0.5080873)
(0 0.0060661011 0.50740592)
(0 0.0048220405 0.50688606)
(0 0.0036366906 0.50650426)
(0 0.0024941101 0.50624394)
(0 0.0013793564 0.50609414)
(0 0.00027814179 0.50604876)
(0 -0.00082351299 0.50610606)
(0 -0.001939652 0.50626863)
(0 -0.0030846504 0.50654352)
(0 -0.0042736212 0.50694271)
(0 -0.0055227486 0.50748406)
(0 -0.0068496549 0.50819261)
(0 -0.0082738069 0.50910259)
(0 -0.0098168542 0.51026032)
(0 -0.011502886 0.51172836)
(0 -0.013359708 0.51359209)
(0 -0.015417477 0.51596898)
(0 -0.017706879 0.51901764)
(0 -0.020275038 0.52294926)
(0 -0.023129289 0.52823979)
(0 -0.026548143 0.53704324)
(0 -0.031453726 0.55365723)
(0 -0.035797056 0.56235397)
(0 -0.030488821 0.4780669)
(0 -0.0035768322 0.1948048)
(0 7.0826372e-05 0.16263418)
(0 0.025835789 0.45272832)
(0 0.037093625 0.56947727)
(0 0.0351182 0.57098334)
(0 0.029808703 0.5499543)
(0 0.026108694 0.53710761)
(0 0.023243094 0.52990306)
(0 0.020627641 0.52477053)
(0 0.01825203 0.52078048)
(0 0.016087717 0.51765267)
(0 0.014113358 0.51518851)
(0 0.01230603 0.51323583)
(0 0.010642591 0.51168341)
(0 0.0091023616 0.51044956)
(0 0.0076660174 0.5094735)
(0 0.0063156825 0.50870987)
(0 0.0050348498 0.50812492)
(0 0.0038081606 0.50769391)
(0 0.0026211965 0.50739924)
(0 0.0014602461 0.50722926)
(0 0.00031207043 0.50717744)
(0 -0.00083634075 0.50724192)
(0 -0.0019980562 0.50742547)
(0 -0.0031863724 0.5077356)
(0 -0.0044151256 0.50818509)
(0 -0.0056989092 0.50879286)
(0 -0.0070533048 0.50958531)
(0 -0.0084951288 0.51059834)
(0 -0.010042615 0.51188021)
(0 -0.01171534 0.51349566)
(0 -0.013535189 0.51553234)
(0 -0.01552548 0.51811005)
(0 -0.017706922 0.52138705)
(0 -0.020112105 0.52557792)
(0 -0.02275456 0.53128565)
(0 -0.025949558 0.54103072)
(0 -0.030435611 0.55793237)
(0 -0.033301437 0.56026167)
(0 -0.025923138 0.46230041)
(0 -0.0017499627 0.17970493)
(0 -0.00072410988 0.15203629)
(0 0.021069143 0.43559957)
(0 0.033742749 0.56399666)
(0 0.033516266 0.57408508)
(0 0.028891714 0.55408104)
(0 0.025441702 0.54025411)
(0 0.022810935 0.53254036)
(0 0.020406853 0.52717446)
(0 0.018187807 0.52299004)
(0 0.016134222 0.51968128)
(0 0.014235303 0.51705479)
(0 0.012475212 0.51495918)
(0 0.010836982 0.51328256)
(0 0.0093049027 0.5119423)
(0 0.0078636129 0.51087663)
(0 0.0064984346 0.51003916)
(0 0.0051954127 0.50939523)
(0 0.0039412399 0.50891925)
(0 0.0027231778 0.50859299)
(0 0.0015289318 0.50840429)
(0 0.00034651267 0.50834635)
(0 -0.0008359128 0.50841724)
(0 -0.0020302291 0.50861983)
(0 -0.0032484531 0.50896198)
(0 -0.0045029581 0.50945697)
(0 -0.0058065891 0.51012441)
(0 -0.0071727827 0.5109916)
(0 -0.0086156768 0.5120954)
(0 -0.010150189 0.51348516)
(0 -0.011791742 0.51522671)
(0 -0.013556888 0.51740874)
(0 -0.015462899 0.5201514)
(0 -0.017522342 0.52361075)
(0 -0.019756911 0.52801247)
(0 -0.022192498 0.5341114)
(0 -0.025167249 0.54467635)
(0 -0.029171602 0.561207)
(0 -0.030648002 0.55669052)
(0 -0.021814089 0.44706041)
(0 -0.00054838196 0.16752445)
(0 -0.001076386 0.14373403)
(0 0.017159632 0.41968683)
(0 0.03057876 0.55743188)
(0 0.03181078 0.57601986)
(0 0.02790411 0.55774586)
(0 0.024690316 0.54316574)
(0 0.022260851 0.53495973)
(0 0.020053928 0.52939551)
(0 0.017989574 0.52506212)
(0 0.016051271 0.52161072)
(0 0.014236308 0.51885261)
(0 0.012534444 0.51663866)
(0 0.010933738 0.51485733)
(0 0.009422667 0.51342591)
(0 0.0079893651 0.5122824)
(0 0.0066220872 0.51138004)
(0 0.0053093065 0.51068375)
(0 0.0040397436 0.51016752)
(0 0.0028023824 0.50981275)
(0 0.0015864292 0.50960703)
(0 0.00038125179 0.50954337)
(0 -0.00082368722 0.50961978)
(0 -0.0020389689 0.50983924)
(0 -0.0032752239 0.51020976)
(0 -0.0045432801 0.51074493)
(0 -0.0058541939 0.51146476)
(0 -0.007219285 0.51239695)
(0 -0.0086501376 0.51357884)
(0 -0.01015861 0.51506015)
(0 -0.011756462 0.51690705)
(0 -0.013455684 0.5192083)
(0 -0.015268409 0.52208313)
(0 -0.017200749 0.52568465)
(0 -0.019267525 0.53025967)
(0 -0.021511766 0.53672845)
(0 -0.024274187 0.54796005)
(0 -0.027763233 0.56352576)
(0 -0.028007127 0.55200323)
(0 -0.018235639 0.43261221)
(0 0.00018625565 0.15771762)
(0 -0.0011595443 0.13717627)
(0 0.01402971 0.40507095)
(0 0.027681577 0.55015796)
(0 0.030089629 0.57693571)
(0 0.026898098 0.56095535)
(0 0.023907278 0.54586627)
(0 0.021644501 0.53718799)
(0 0.019613868 0.53144666)
(0 0.017695496 0.52699985)
(0 0.015870809 0.5234383)
(0 0.014142701 0.52057543)
(0 0.012505092 0.5182653)
(0 0.010949954 0.51639732)
(0 0.0094691418 0.51488927)
(0 0.0080537479 0.51367941)
(0 0.0066946035 0.51272109)
(0 0.0053823921 0.51197918)
(0 0.0041077474 0.51142758)
(0 0.0028613298 0.51104756)
(0 0.0016338477 0.5108266)
(0 0.00041605541 0.51075763)
(0 -0.000801247 0.51083866)
(0 -0.0020272946 0.51107265)
(0 -0.0032713051 0.51146774)
(0 -0.0045425622 0.5120376)
(0 -0.0058503831 0.51280238)
(0 -0.0072040921 0.51378987)
(0 -0.0086129443 0.51503743)
(0 -0.010086089 0.51659469)
(0 -0.011632178 0.51852759)
(0 -0.013259474 0.52092433)
(0 -0.014975962 0.52390231)
(0 -0.016782958 0.52761224)
(0 -0.018692268 0.53233296)
(0 -0.020766618 0.53915062)
(0 -0.023327313 0.55087545)
(0 -0.026292775 0.56497202)
(0 -0.025489848 0.5465186)
(0 -0.015199266 0.41910452)
(0 0.00059199448 0.14982203)
(0 -0.001091913 0.13192356)
(0 0.011568704 0.39174382)
(0 0.025078911 0.54246941)
(0 0.028411459 0.57698757)
(0 0.025906859 0.56372933)
(0 0.023127686 0.54837837)
(0 0.021000169 0.53925338)
(0 0.019121914 0.53334517)
(0 0.017336612 0.52881105)
(0 0.015619724 0.52516596)
(0 0.013977328 0.52222117)
(0 0.012406223 0.51983415)
(0 0.010901289 0.51789569)
(0 0.0094569843 0.51632432)
(0 0.0080668076 0.51505887)
(0 0.0067237696 0.51405311)
(0 0.0054204953 0.51327212)
(0 0.0041493565 0.51268994)
(0 0.0029025826 0.51228791)
(0 0.0016723224 0.5120535)
(0 0.00045068446 0.51197965)
(0 -0.00077021321 0.51206435)
(0 -0.0019982795 0.51231058)
(0 -0.0032413541 0.51272643)
(0 -0.0045072428 0.51332558)
(0 -0.0058036363 0.51412807)
(0 -0.0071380474 0.51516156)
(0 -0.0085176843 0.51646314)
(0 -0.0099493896 0.518082)
(0 -0.011439281 0.52008348)
(0 -0.012992708 0.52255484)
(0 -0.014614501 0.52561113)
(0 -0.016302773 0.52940244)
(0 -0.018069577 0.53425021)
(0 -0.01999737 0.54139425)
(0 -0.022367909 0.55343036)
(0 -0.024821066 0.5656511)
(0 -0.023158629 0.54050353)
(0 -0.012675218 0.4066)
(0 0.00077788698 0.14344387)
(0 -0.00094993801 0.1276306)
(0 0.0096578367 0.37964005)
(0 0.022767181 0.53458747)
(0 0.026811291 0.57632119)
(0 0.024948907 0.56609525)
(0 0.022372501 0.55072255)
(0 0.020354267 0.54118336)
(0 0.018604297 0.53511048)
(0 0.016937216 0.53050658)
(0 0.015319902 0.52679888)
(0 0.013759392 0.52379094)
(0 0.012254319 0.52134337)
(0 0.010801619 0.51934843)
(0 0.0093976626 0.51772554)
(0 0.0080378261 0.51641426)
(0 0.006716903 0.5153689)
(0 0.0054291695 0.51455496)
(0 0.0041685284 0.51394675)
(0 0.0029286302 0.51352578)
(0 0.0017029596 0.51327964)
(0 0.00048490137 0.51320131)
(0 -0.00073217453 0.51328878)
(0 -0.0019549169 0.51354501)
(0 -0.0031898697 0.51397801)
(0 -0.0044434703 0.51460131)
(0 -0.0057219392 0.51543474)
(0 -0.0070311962 0.51650565)
(0 -0.0083767111 0.51785066)
(0 -0.0097634342 0.51951833)
(0 -0.011195501 0.52157322)
(0 -0.012676087 0.5241014)
(0 -0.014207768 0.52721555)
(0 -0.015786912 0.5310679)
(0 -0.017428284 0.53603147)
(0 -0.019231873 0.54347659)
(0 -0.021423738 0.5556424)
(0 -0.023389881 0.56567391)
(0 -0.021041313 0.53417063)
(0 -0.010610889 0.39509908)
(0 0.00082422719 0.13825025)
(0 -0.00078111733 0.12403664)
(0 0.0081844654 0.36866341)
(0 0.020725994 0.52667256)
(0 0.025306842 0.57506521)
(0 0.024032797 0.56808296)
(0 0.02165259 0.55291563)
(0 0.019723682 0.54300233)
(0 0.018079556 0.53676215)
(0 0.016515556 0.53209874)
(0 0.014988525 0.52834417)
(0 0.013504523 0.52528805)
(0 0.012063201 0.52279332)
(0 0.010662882 0.52075372)
(0 0.0093012583 0.51908951)
(0 0.0079751161 0.51774096)
(0 0.0066806603 0.51666303)
(0 0.0054135325 0.51582169)
(0 0.0041689467 0.51519162)
(0 0.0029418058 0.51475457)
(0 0.0017267987 0.51449828)
(0 0.00051847743 0.51441584)
(0 -0.00068863357 0.51450524)
(0 -0.0019000217 0.51476938)
(0 -0.0031210484 0.51521615)
(0 -0.0043569213 0.51585889)
(0 -0.0056125686 0.51671712)
(0 -0.0068925507 0.51781775)
(0 -0.0082009061 0.51919686)
(0 -0.0095410882 0.5209023)
(0 -0.010915746 0.52299777)
(0 -0.012326515 0.52556812)
(0 -0.013774475 0.52872393)
(0 -0.015255543 0.53262301)
(0 -0.016788855 0.53769665)
(0 -0.018488026 0.5454138)
(0 -0.020512058 0.55753424)
(0 -0.022025529 0.5651463)
(0 -0.019142796 0.52768306)
(0 -0.0089434478 0.38456232)
(0 0.00078752229 0.13396929)
(0 -0.00061344507 0.12095172)
(0 0.0070494203 0.35870584)
(0 0.018927214 0.51883782)
(0 0.023903796 0.57332945)
(0 0.02316074 0.56972214)
(0 0.020972113 0.55497034)
(0 0.019118218 0.54473046)
(0 0.017560145 0.53831826)
(0 0.016084845 0.53359993)
(0 0.014638656 0.52980972)
(0 0.013225067 0.52671703)
(0 0.011844143 0.52418589)
(0 0.010495072 0.52211134)
(0 0.0091763972 0.52041436)
(0 0.007885921 0.51903591)
(0 0.006620931 0.51793153)
(0 0.0053781679 0.51706769)
(0 0.0041539414 0.51641947)
(0 0.0029442319 0.51596891)
(0 0.0017447867 0.51570392)
(0 0.00055119893 0.5156177)
(0 -0.00064096917 0.51570825)
(0 -0.0018361624 0.51597841)
(0 -0.0030386913 0.51643593)
(0 -0.0042526854 0.51709388)
(0 -0.005481967 0.51797146)
(0 -0.0067299665 0.51909511)
(0 -0.0079995792 0.52050031)
(0 -0.0092931168 0.52223422)
(0 -0.010612169 0.52435973)
(0 -0.011957344 0.52696051)
(0 -0.013328851 0.53014566)
(0 -0.014723254 0.5340823)
(0 -0.016164982 0.53926382)
(0 -0.017776266 0.54721995)
(0 -0.019642278 0.55913062)
(0 -0.020742217 0.56416399)
(0 -0.017453633 0.52116279)
(0 -0.0076081451 0.37492797)
(0 0.00070619919 0.13038619)
(0 -0.00046184827 0.11824089)
(0 0.0061701405 0.34965872)
(0 0.017340591 0.51116085)
(0 0.022600077 0.57120617)
(0 0.022331109 0.57104116)
(0 0.020330933 0.55689597)
(0 0.018542613 0.54638354)
(0 0.017053915 0.5397947)
(0 0.015654288 0.53502182)
(0 0.014279921 0.53120349)
(0 0.01293052 0.52808297)
(0 0.011606109 0.5255238)
(0 0.010306352 0.52342211)
(0 0.0090302826 0.52169943)
(0 0.0077764014 0.52029725)
(0 0.0065427995 0.51917163)
(0 0.0053270798 0.51828953)
(0 0.0041264474 0.51762641)
(0 0.0029377898 0.51716457)
(0 0.0017577662 0.51689216)
(0 0.00058287043 0.51680245)
(0 -0.00059041488 0.51689346)
(0 -0.0017656199 0.51716797)
(0 -0.0029461513 0.51763355)
(0 -0.0041352087 0.51830305)
(0 -0.0053356911 0.51919528)
(0 -0.0065501141 0.52033623)
(0 -0.0077804876 0.52176081)
(0 -0.0090282866 0.52351557)
(0 -0.010294394 0.52566267)
(0 -0.011578797 0.52828475)
(0 -0.012881322 0.53149029)
(0 -0.014200067 0.53545943)
(0 -0.015565053 0.54074853)
(0 -0.017101562 0.54890685)
(0 -0.018818086 0.56045654)
(0 -0.019545139 0.5628108)
(0 -0.015956358 0.51469877)
(0 -0.0065437486 0.36612381)
(0 0.00060545279 0.12733495)
(0 -0.0003327948 0.11581019)
(0 0.0054809087 0.34141913)
(0 0.015937068 0.50369295)
(0 0.021389206 0.56877213)
(0 0.021540244 0.57206655)
(0 0.019726324 0.558699)
(0 0.017998112 0.54797345)
(0 0.016565318 0.54120491)
(0 0.015229988 0.53637491)
(0 0.013919184 0.53253299)
(0 0.012627992 0.52939103)
(0 0.011356061 0.52681026)
(0 0.010103242 0.52468757)
(0 0.0088687989 0.52294486)
(0 0.0076516826 0.52152402)
(0 0.0064505582 0.52038152)
(0 0.0052636881 0.51948475)
(0 0.0040889934 0.51880949)
(0 0.0029241089 0.51833832)
(0 0.0017664624 0.51805957)
(0 0.00061332675 0.51796661)
(0 -0.00053803918 0.51805749)
(0 -0.0016903797 0.51833489)
(0 -0.0028463179 0.51880625)
(0 -0.0040082832 0.51948414)
(0 -0.00517842 0.52038705)
(0 -0.0063585219 0.52154055)
(0 -0.0075499344 0.52297904)
(0 -0.0087535496 0.52474852)
(0 -0.0099698209 0.52691061)
(0 -0.011198426 0.52954712)
(0 -0.01243918 0.53276693)
(0 -0.013692376 0.53676667)
(0 -0.014993417 0.54216364)
(0 -0.016465016 0.55048413)
(0 -0.018039252 0.56153616)
(0 -0.018433309 0.56115837)
(0 -0.014629953 0.50835399)
(0 -0.0056956615 0.3580746)
(0 0.00050105359 0.12468939)
(0 -0.00022761323 0.11359546)
(0 0.0049312573 0.33389313)
(0 0.014690434 0.4964663)
(0 0.020262727 0.56609089)
(0 0.020783706 0.57282271)
(0 0.019154205 0.56038379)
(0 0.017483692 0.54950861)
(0 0.01609638 0.5425599)
(0 0.014815706 0.53766842)
(0 0.013561129 0.53380507)
(0 0.012322647 0.53064615)
(0 0.01109927 0.52804857)
(0 0.0098908327 0.52590961)
(0 0.0086966513 0.52415136)
(0 0.0075159406 0.52271594)
(0 0.0063477574 0.52156015)
(0 0.0051908544 0.52065167)
(0 0.0040437133 0.51996659)
(0 0.0029045741 0.51948773)
(0 0.0017714991 0.51920357)
(0 0.00064241722 0.51910757)
(0 -0.00048476139 0.5191978)
(0 -0.0016121192 0.51947687)
(0 -0.0027416224 0.51995206)
(0 -0.0038750703 0.52063572)
(0 -0.0050140045 0.52154604)
(0 -0.0061596632 0.5227082)
(0 -0.0073129135 0.52415621)
(0 -0.0084742656 0.52593564)
(0 -0.0096439543 0.52810769)
(0 -0.010821577 0.53075364)
(0 -0.01200721 0.53398391)
(0 -0.013203782 0.53801463)
(0 -0.014451483 0.54351934)
(0 -0.015865163 0.55195941)
(0 -0.017303096 0.56239195)
(0 -0.017401935 0.55926695)
(0 -0.01345274 0.50217165)
(0 -0.0050172263 0.35070674)
(0 0.0004022335 0.12235524)
(0 -0.00014476486 0.1115536)
(0 0.004483541 0.32699723)
(0 0.013577897 0.48949962)
(0 0.019211753 0.56321518)
(0 0.020057061 0.57333205)
(0 0.01861 0.56195316)
(0 0.016996996 0.55099458)
(0 0.015647478 0.54386844)
(0 0.014413484 0.53891017)
(0 0.013208774 0.53502577)
(0 0.012018097 0.53185286)
(0 0.010839617 0.52924198)
(0 0.0096730059 0.5270903)
(0 0.0085175216 0.52532)
(0 0.0073725089 0.52387324)
(0 0.0062372747 0.52270701)
(0 0.0051109258 0.52178925)
(0 0.0039923735 0.52109625)
(0 0.0028803378 0.52061105)
(0 0.0017733965 0.52032225)
(0 0.00067001778 0.5202234)
(0 -0.00043134657 0.52031255)
(0 -0.0015322315 0.52059226)
(0 -0.0026340681 0.52106968)
(0 -0.0037381477 0.52175697)
(0 -0.0048455403 0.52267204)
(0 -0.0059570702 0.52383977)
(0 -0.0070732749 0.52529386)
(0 -0.0081944385 0.5270796)
(0 -0.0093207276 0.52925791)
(0 -0.010451824 0.53190985)
(0 -0.011588257 0.53514859)
(0 -0.012735829 0.53921218)
(0 -0.013938641 0.54482334)
(0 -0.015298984 0.5533385)
(0 -0.016605606 0.56304438)
(0 -0.016444168 0.55718679)
(0 -0.012404108 0.49618022)
(0 -0.0044699055 0.34395114)
(0 0.00031384302 0.12026324)
(0 -8.1324015e-05 0.10965584)
(0 0.0041103508 0.32065849)
(0 0.012580062 0.48280231)
(0 0.018227843 0.56018905)
(0 0.019356283 0.57361514)
(0 0.018089163 0.56340891)
(0 0.016534992 0.55243466)
(0 0.015217926 0.54513728)
(0 0.014024157 0.54010673)
(0 0.012863897 0.53620034)
(0 0.011716753 0.53301524)
(0 0.010579863 0.5303935)
(0 0.0094526429 0.52823174)
(0 0.0083342253 0.52645201)
(0 0.0072239926 0.52499642)
(0 0.0061213966 0.52382203)
(0 0.0050257909 0.52289692)
(0 0.0039364077 0.52219757)
(0 0.0028523414 0.52170712)
(0 0.0017725811 0.52141432)
(0 0.0006960307 0.52131274)
(0 -0.00037841583 0.52140047)
(0 -0.0014518486 0.52168)
(0 -0.0025252701 0.52215836)
(0 -0.0035995697 0.52284754)
(0 -0.0046754577 0.52376524)
(0 -0.0057534593 0.52493613)
(0 -0.0068338991 0.52639368)
(0 -0.0079169495 0.52818303)
(0 -0.0090028111 0.53036497)
(0 -0.010091361 0.53302066)
(0 -0.01118372 0.53626728)
(0 -0.012288617 0.54036646)
(0 -0.013452997 0.54608115)
(0 -0.014762648 0.55462572)
(0 -0.015942199 0.56351192)
(0 -0.015552312 0.55495961)
(0 -0.011465401 0.4903975)
(0 -0.0040227647 0.33774482)
(0 0.0002378815 0.11836327)
(0 -3.3903636e-05 0.10788287)
(0 0.0037921232 0.31481403)
(0 0.01168063 0.47637749)
(0 0.01730342 0.5570495)
(0 0.018677923 0.57369108)
(0 0.017587477 0.56475231)
(0 0.016094409 0.55383037)
(0 0.014806394 0.5463714)
(0 0.013647732 0.54126343)
(0 0.01252738 0.53733322)
(0 0.011420112 0.53413683)
(0 0.010321895 0.5315059)
(0 0.0092318173 0.52933592)
(0 0.0081488606 0.52754872)
(0 0.007072382 0.52608622)
(0 0.0060019024 0.52490544)
(0 0.0049369392 0.52397451)
(0 0.0038769586 0.52327001)
(0 0.0028213411 0.52277521)
(0 0.0017693981 0.52247891)
(0 0.00072038068 0.52237474)
(0 -0.00032646338 0.52246077)
(0 -0.001371869 0.52273944)
(0 -0.0024164999 0.5232177)
(0 -0.0034609345 0.52390741)
(0 -0.0045056152 0.52482612)
(0 -0.0055508589 0.52599833)
(0 -0.0065968654 0.52745739)
(0 -0.0076437763 0.52924839)
(0 -0.0086918889 0.53143216)
(0 -0.0097413478 0.53409031)
(0 -0.010793956 0.5373452)
(0 -0.011861279 0.54148301)
(0 -0.012991913 0.54729642)
(0 -0.014252022 0.55582423)
(0 -0.015308247 0.56381119)
(0 -0.014718633 0.55262011)
(0 -0.010620278 0.48483367)
(0 -0.003651562 0.33203151)
(0 0.00017456666 0.11661955)
(0 8.014477e-07 0.10622136)
(0 0.0035151013 0.30941001)
(0 0.010865977 0.47022414)
(0 0.016431911 0.55382798)
(0 0.018019126 0.57357772)
(0 0.017101195 0.56598447)
(0 0.015671998 0.55518201)
(0 0.014411199 0.54757438)
(0 0.013283678 0.54238458)
(0 0.012199472 0.53842813)
(0 0.011128995 0.53522067)
(0 0.010066921 0.53258161)
(0 0.0090119633 0.53040473)
(0 0.0079629448 0.52861147)
(0 0.0069191598 0.52714348)
(0 0.0058801457 0.52595764)
(0 0.0048455216 0.52502207)
(0 0.0038149193 0.5243134)
(0 0.002787933 0.52381495)
(0 0.0017641231 0.52351555)
(0 0.00074301227 0.52340888)
(0 -0.00027587295 0.52349299)
(0 -0.0012929882 0.52377029)
(0 -0.0023087345 0.52424765)
(0 -0.0033234536 0.52493684)
(0 -0.0043373937 0.5258553)
(0 -0.005350733 0.52702744)
(0 -0.00636361 0.52848659)
(0 -0.0073761894 0.5302779)
(0 -0.008388899 0.53246236)
(0 -0.0094021913 0.53512236)
(0 -0.010418612 0.53838662)
(0 -0.011452349 0.54256599)
(0 -0.012552403 0.54847133)
(0 -0.013763018 0.55693635)
(0 -0.014699392 0.56395718)
(0 -0.01393585 0.5501973)
(0 -0.0098547207 0.47949361)
(0 -0.0033376783 0.32676165)
(0 0.00012307993 0.11500671)
(0 2.5734371e-05 0.10466169)
(0 0.0032696966 0.30440052)
(0 0.010124716 0.46433856)
(0 0.015607706 0.55055137)
(0 0.017377573 0.57329185)
(0 0.016627077 0.56710659)
(0 0.015264691 0.55648899)
(0 0.014030493 0.54874859)
(0 0.012931127 0.54347359)
(0 0.011879991 0.53948815)
(0 0.010843734 0.53626936)
(0 0.0098156409 0.53362277)
(0 0.0087940182 0.53143984)
(0 0.0077775333 0.52964152)
(0 0.0067653976 0.52816908)
(0 0.0057571304 0.52697919)
(0 0.0047524074 0.52603989)
(0 0.0037509732 0.52532779)
(0 0.0027525788 0.52482621)
(0 0.0017569727 0.52452405)
(0 0.00076388733 0.52441495)
(0 -0.00022693422 0.52449698)
(0 -0.0012157316 0.5247725)
(0 -0.0022027047 0.52524834)
(0 -0.0031880187 0.5259362)
(0 -0.0041717847 0.52685348)
(0 -0.0051540938 0.52802456)
(0 -0.0061350662 0.5294828)
(0 -0.0071149224 0.53127352)
(0 -0.0080942326 0.53345798)
(0 -0.0090737771 0.53611975)
(0 -0.010056878 0.53939488)
(0 -0.011060038 0.54361834)
(0 -0.01213141 0.54960686)
(0 -0.013291804 0.55796383)
(0 -0.014111723 0.56396351)
(0 -0.013197399 0.54771554)
(0 -0.0091568791 0.47437856)
(0 -0.0030670496 0.32189208)
(0 8.2074735e-05 0.11350683)
(0 4.3367282e-05 0.10319644)
(0 0.0030492348 0.2997465)
(0 0.0094472888 0.45871542)
(0 0.014826039 0.54724281)
(0 0.016751386 0.57284935)
(0 0.016162378 0.56812012)
(0 0.01486967 0.55775015)
(0 0.013662393 0.54989546)
(0 0.012589017 0.54453308)
(0 0.011568473 0.54051579)
(0 0.010564316 0.53728504)