/*--------------------------------*- C++ -*----------------------------------*\
  =========                 |
  \\      /  F ield         | OpenFOAM: The Open Source CFD Toolbox
   \\    /   O peration     | Website:  https://openfoam.org
    \\  /    A nd           | Version:  10
     \\/     M anipulation  |
\*---------------------------------------------------------------------------*/
FoamFile
{
    format      ascii;
    class       surfaceScalarField;
    location    "0.01";
    object      phi;
}
// * * * * * * * * * * * * * * * * * * * * * * * * * * * * * * * * * * * * * //

dimensions      [1 0 -1 0 0 0 0];

internalField   nonuniform List<scalar> 
7860
(
3.7037971e-08
5.3168697e-07
1.1367655e-08
5.9436232e-07
6.8711139e-09
5.7320493e-07
4.8532236e-09
5.7072566e-07
3.5703689e-09
5.6999057e-07
2.776357e-09
5.6950171e-07
2.2284064e-09
5.6925563e-07
1.8239363e-09
5.6911214e-07
1.5135184e-09
5.6901807e-07
1.2668477e-09
5.6895432e-07
1.064804e-09
5.6890968e-07
8.9492823e-10
5.6887751e-07
7.4874983e-10
5.6885381e-07
6.2030587e-10
5.6883607e-07
5.0526365e-10
5.6882266e-07
4.0037453e-10
5.6881251e-07
3.0312388e-10
5.6880487e-07
2.1150181e-10
5.6879924e-07
1.2382099e-10
5.6879529e-07
3.8563153e-11
5.6879287e-07
-4.5565206e-11
5.6879174e-07
-1.2987056e-10
5.6879192e-07
-2.1569775e-10
5.6879344e-07
-3.0450752e-10
5.6879643e-07
-3.9796602e-10
5.6880108e-07
-4.9808463e-10
5.6880774e-07
-6.0739556e-10
5.6881693e-07
-7.2921661e-10
5.6882945e-07
-8.6806583e-10
5.6884648e-07
-1.0303294e-09
5.688699e-07
-1.2253719e-09
5.6890268e-07
-1.4675575e-09
5.6894983e-07
-1.779809e-09
5.6901991e-07
-2.2001307e-09
5.6912799e-07
-2.8057839e-09
5.6931333e-07
-3.7781041e-09
5.6968002e-07
-5.3394119e-09
5.7026902e-07
-8.6647272e-09
5.7203306e-07
-2.7064447e-08
5.871075e-07
5.4164349e-07
5.4604437e-08
4.7715369e-07
3.2576081e-08
6.1627933e-07
1.9861391e-08
5.8591197e-07
1.4019527e-08
5.7656932e-07
1.0535608e-08
5.7347451e-07
8.2358345e-09
5.7180142e-07
6.6087916e-09
5.7088263e-07
5.4054311e-09
5.7031545e-07
4.4787307e-09
5.6994473e-07
3.7393728e-09
5.6969363e-07
3.131743e-09
5.6951727e-07
2.6193953e-09
5.6938982e-07
2.1774668e-09
5.6929569e-07
1.7884092e-09
5.6922508e-07
1.4394282e-09
5.691716e-07
1.1208942e-09
5.69131e-07
8.2531804e-10
5.691004e-07
5.46669e-10
5.6907784e-07
2.7990257e-10
5.6906202e-07
2.0595227e-11
5.6905214e-07
-2.3531963e-10
5.6904761e-07
-4.9175848e-10
5.6904831e-07
-7.5276028e-10
5.690544e-07
-1.0226969e-09
5.6906632e-07
-1.3065734e-09
5.6908491e-07
-1.6103895e-09
5.6911151e-07
-1.9416667e-09
5.6914817e-07
-2.3102335e-09
5.6919797e-07
-2.7293864e-09
5.6926559e-07
-3.2178758e-09
5.6935835e-07
-3.803068e-09
5.6948783e-07
-4.526753e-09
5.6967348e-07
-5.4559942e-09
5.6994911e-07
-6.7024441e-09
5.703744e-07
-8.4565672e-09
5.7106741e-07
-1.1109207e-08
5.7233261e-07
-1.5536481e-08
5.7469626e-07
-2.4562048e-08
5.8105858e-07
-4.0853531e-08
6.0339894e-07
5.0078992e-07
5.0876769e-08
4.2694172e-07
4.2258239e-08
6.2480621e-07
2.8404113e-08
5.9969995e-07
2.1210213e-08
5.8375964e-07
1.6594997e-08
5.7808997e-07
1.3270134e-08
5.7512625e-07
1.080791e-08
5.7334481e-07
8.9320738e-09
5.7219125e-07
7.4545025e-09
5.7142226e-07
6.2559173e-09
5.7089218e-07
5.2583029e-09
5.7051484e-07
4.4086362e-09
5.7023944e-07
3.6698461e-09
5.7003444e-07
3.0152414e-09
5.6987965e-07
2.4250305e-09
5.6976177e-07
1.8841006e-09
5.6967189e-07
1.3805516e-09
5.6960391e-07
9.0469453e-10
5.6955366e-07
4.4835318e-10
5.6951832e-07
4.3148082e-12
5.6949613e-07
-4.340523e-10
5.6948594e-07
-8.7321452e-10
5.6948743e-07
-1.3197761e-09
5.6950092e-07
-1.7808595e-09
5.6952736e-07
-2.2645507e-09
5.6956856e-07
-2.780451e-09
5.6962737e-07
-3.3404399e-09
5.6970811e-07
-3.9598184e-09
5.6981731e-07
-4.6588916e-09
5.6996462e-07
-5.4657054e-09
5.7016512e-07
-6.4201003e-09
5.7044219e-07
-7.5807038e-09
5.7083404e-07
-9.0366214e-09
5.7140498e-07
-1.0928971e-08
5.7226671e-07
-1.3467771e-08
5.7360617e-07
-1.6967924e-08
5.7583272e-07
-2.2265157e-08
5.7999345e-07
-3.1760102e-08
5.9055349e-07
-3.8652603e-08
6.102914e-07
4.6213727e-07
4.0716907e-08
3.8854166e-07
4.3528553e-08
6.2227373e-07
3.2873041e-08
6.1014342e-07
2.622916e-08
5.9036725e-07
2.1586994e-08
5.827325e-07
1.7915287e-08
5.7879832e-07
1.5016479e-08
5.7624359e-07
1.2695896e-08
5.7451179e-07
1.0799231e-08
5.7331888e-07
9.2178768e-09
5.7247349e-07
7.8733238e-09
5.7185935e-07
6.7085652e-09
5.7140415e-07
5.6817656e-09
5.710612e-07
4.7616298e-09
5.7079974e-07
3.9242394e-09
5.7059912e-07
3.1508768e-09
5.7044521e-07
2.4265044e-09
5.7032824e-07
1.7386737e-09
5.7024144e-07
1.0767334e-09
5.7018021e-07
4.3123134e-10
5.7014159e-07
-2.0664414e-10
5.7012377e-07
-8.4544302e-10
5.7012619e-07
-1.493886e-09
5.7014932e-07
-2.1613189e-09
5.7019475e-07
-2.8582291e-09
5.7026543e-07
-3.5968709e-09
5.7036597e-07
-4.3921026e-09
5.705033e-07
-5.2625892e-09
5.7068775e-07
-6.2323876e-09
5.7093438e-07
-7.3333828e-09
5.7126607e-07
-8.6086156e-09
5.7171738e-07
-1.0117247e-08
5.7234263e-07
-1.1940329e-08
5.7322802e-07
-1.4191891e-08
5.7451823e-07
-1.7021169e-08
5.7643541e-07
-2.0562317e-08
5.7937383e-07
-2.5316988e-08
5.8474808e-07
-3.2236646e-08
5.974731e-07
-3.0483315e-08
6.0853803e-07
4.3165391e-07
2.913203e-08
3.6373794e-07
3.94005e-08
6.1282977e-07
3.412656e-08
6.1501533e-07
2.9180637e-08
5.9521759e-07
2.5214548e-08
5.8669839e-07
2.1795217e-08
5.8221902e-07
1.8894685e-08
5.7914416e-07
1.6431519e-08
5.769749e-07
1.4326541e-08
5.7542382e-07
1.2509859e-08
5.7429013e-07
1.0922386e-08
5.7344678e-07
9.51668e-09
5.7280982e-07
8.2551174e-09
5.7232272e-07
7.1078313e-09
5.7194698e-07
6.0509251e-09
5.7165598e-07
5.0650089e-09
5.7143108e-07
4.1340471e-09
5.7125915e-07
3.2444575e-09
5.7113099e-07
2.3844057e-09
5.7104022e-07
1.5432562e-09
5.709827e-07
7.1101791e-10
5.7095596e-07
-1.2202715e-10
5.7095919e-07
-9.6575587e-10
5.70993e-07
-1.8306447e-09
5.710596e-07
-2.7282507e-09
5.7116299e-07
-3.6718166e-09
5.7130949e-07
-4.6769465e-09
5.7150839e-07
-5.7625175e-09
5.7177328e-07
-6.951798e-09
5.7212362e-07
-8.2737898e-09
5.7258802e-07
-9.7647269e-09
5.7320827e-07
-1.14694e-08
5.7404726e-07
-1.3440455e-08
5.7519904e-07
-1.5735497e-08
5.7681323e-07
-1.8418793e-08
5.7911866e-07
-2.1499355e-08
5.8245435e-07
-2.4975215e-08
5.882239e-07
-2.7982514e-08
6.0048036e-07
-2.0326517e-08
6.0088199e-07
4.1132735e-07
1.8482201e-08
3.5072245e-07
3.1832309e-08
6.0067338e-07
3.2113524e-08
6.1421499e-07
2.9540852e-08
5.9764438e-07
2.6715221e-08
5.8952221e-07
2.3977273e-08
5.8495939e-07
2.1442912e-08
5.8167866e-07
1.914488e-08
5.7927288e-07
1.7082104e-08
5.7748655e-07
1.5231505e-08
5.7614068e-07
1.3563768e-08
5.7511448e-07
1.2050017e-08
5.7432353e-07
1.0663984e-08
5.7370871e-07
9.3827264e-09
5.732282e-07
8.1865454e-09
5.7285212e-07
7.0585694e-09
5.7255901e-07
5.984246e-09
5.7233343e-07
4.9508412e-09
5.7216435e-07
3.9469798e-09
5.7204404e-07
2.9622508e-09
5.7196738e-07
1.986793e-09
5.7193138e-07
1.0109861e-09
5.7193496e-07
2.5100104e-11
5.7197885e-07
-9.810465e-10
5.720657e-07
-2.0184399e-09
5.7220034e-07
-3.0992661e-09
5.7239028e-07
-4.237325e-09
5.7264641e-07
-5.4484177e-09
5.7298433e-07
-6.7507506e-09
5.7342591e-07
-8.1648951e-09
5.7400212e-07
-9.7133576e-09
5.7475669e-07
-1.1418662e-08
5.7575252e-07
-1.3298907e-08
5.7707924e-07
-1.5354552e-08
5.7886883e-07
-1.7560754e-08
5.8132483e-07
-1.9825706e-08
5.8471926e-07
-2.1659207e-08
5.9005736e-07
-2.0918673e-08
5.9973979e-07
-1.1011996e-08
5.9097528e-07
4.0031532e-07
1.0888226e-08
3.4529788e-07
2.3492922e-08
5.8939675e-07
2.7468717e-08
6.0975321e-07
2.7163058e-08
5.9779547e-07
2.5678529e-08
5.9100307e-07
2.3850573e-08
5.8679006e-07
2.1921031e-08
5.836084e-07
2.002133e-08
5.8117252e-07
1.8213893e-08
5.7929394e-07
1.651916e-08
5.7783537e-07
1.493864e-08
5.7669495e-07
1.3464643e-08
5.7579748e-07
1.208546e-08
5.7508785e-07
1.0788181e-08
5.7452543e-07
9.560042e-09
5.7408021e-07
8.3890135e-09
5.7373e-07
7.2639747e-09
5.7345843e-07
6.1746862e-09
5.732536e-07
5.1116539e-09
5.7310703e-07
4.065959e-09
5.7301303e-07
3.0290455e-09
5.7296825e-07
1.9925348e-09
5.7297142e-07
9.4802474e-10
5.7302331e-07
-1.1310507e-10
5.7312679e-07
-1.1998515e-09
5.7328704e-07
-2.3217241e-09
5.7351211e-07
-3.4888078e-09
5.7381345e-07
-4.7115776e-09
5.7420706e-07
-6.0006397e-09
5.7471493e-07
-7.3655494e-09
5.7536699e-07
-8.8128512e-09
5.7620395e-07
-1.0341908e-08
5.7728154e-07
-1.1938174e-08
5.7867547e-07
-1.3556076e-08
5.8048669e-07
-1.5093704e-08
5.8286241e-07
-1.6368392e-08
5.8599391e-07
-1.668497e-08
5.903739e-07
-1.3684652e-08
5.9673944e-07
-4.7407591e-09
5.8203135e-07
3.9557453e-07
6.8472639e-09
3.4340336e-07
1.6713115e-08
5.8089634e-07
2.1896813e-08
6.0423297e-07
2.3073978e-08
5.9649299e-07
2.2759694e-08
5.9131273e-07
2.182386e-08
5.8772802e-07
2.0564771e-08
5.8486767e-07
1.9166017e-08
5.8257122e-07
1.7729082e-08
5.8073083e-07
1.6307345e-08
5.7925707e-07
1.4927562e-08
5.780747e-07
1.3600821e-08
5.7712418e-07
1.2329396e-08
5.7635923e-07
1.1110732e-08
5.7574405e-07
9.9397449e-09
5.7525116e-07
8.8101345e-09
5.7485956e-07
7.7151184e-09
5.745534e-07
6.6478147e-09
5.7432086e-07
5.6014181e-09
5.7415338e-07
4.5692644e-09
5.7404514e-07
3.5448198e-09
5.7399265e-07
2.5216538e-09
5.7399455e-07
1.4933989e-09
5.7405153e-07
4.5373108e-10
5.7416641e-07
-6.0360034e-10
5.7434433e-07
-1.6846437e-09
5.7459311e-07
-2.7950507e-09
5.7492381e-07
-3.9392572e-09
5.7535122e-07
-5.12003e-09
5.7589566e-07
-6.33623e-09
5.7658315e-07
-7.5801666e-09
5.7744785e-07
-8.8322754e-09
5.7853361e-07
-1.005306e-08
5.7989621e-07
-1.1168243e-08
5.8160183e-07
-1.2037547e-08
5.8373168e-07
-1.2435047e-08
5.8639137e-07
-1.1759344e-08
5.8969816e-07
-8.2056922e-09
5.9318575e-07
-1.6999733e-09
5.755256e-07
3.9387453e-07
5.3713385e-09
3.4256519e-07
1.2357197e-08
5.7529798e-07
1.7026446e-08
5.9939759e-07
1.8795195e-08
5.9464008e-07
1.9235512e-08
5.90868e-07
1.8977789e-08
5.8798701e-07
1.8295355e-08
5.8555022e-07
1.7368927e-08
5.834976e-07
1.631085e-08
5.8178887e-07
1.5191086e-08
5.8037679e-07
1.4051818e-08
5.7921392e-07
1.2917333e-08
5.7825862e-07
1.1800715e-08
5.7747581e-07
1.0708025e-08
5.768367e-07
9.6409799e-09
5.7631816e-07
8.5986443e-09
5.7590186e-07
7.5784994e-09
5.755735e-07
6.5771091e-09
5.7532221e-07
5.5905309e-09
5.7513992e-07
4.6145722e-09
5.7502106e-07
3.6449506e-09
5.7496223e-07
2.6774112e-09
5.7496204e-07
1.7078317e-09
5.7502106e-07
7.3235286e-10
5.7514185e-07
-2.5243149e-10
5.7532907e-07
-1.2491373e-09
5.7558977e-07
-2.2591103e-09
5.7593374e-07
-3.2819147e-09
5.7637398e-07
-4.313333e-09
5.7692703e-07
-5.344087e-09
5.7761386e-07
-6.3565098e-09
5.7846023e-07
-7.3195507e-09
5.7949661e-07
-8.1812288e-09
5.8075785e-07
-8.8588503e-09
5.8227941e-07
-9.217031e-09
5.8408982e-07
-9.0477889e-09
5.8622209e-07
-7.9597178e-09
5.8861005e-07
-4.9066731e-09
5.9013266e-07
-7.2931609e-10
5.713482e-07
3.9314517e-07
5.0811278e-09
3.4184662e-07
9.9961775e-09
5.7178095e-07
1.3551061e-08
5.9579849e-07
1.5323872e-08
5.9281575e-07
1.6105245e-08
5.9008303e-07
1.6255214e-08
5.8783766e-07
1.5977492e-08
5.85828e-07
1.5417366e-08
5.8405768e-07
1.4676583e-08
5.825296e-07
1.3825735e-08
5.812276e-07
1.2912017e-08
5.801276e-07
1.1966259e-08
5.7920434e-07
1.1008048e-08
5.7843397e-07
1.004931e-08
5.7779539e-07
9.0968138e-09
5.7727061e-07
8.1538897e-09
5.7684474e-07
7.2216011e-09
5.7650575e-07
6.2995412e-09
5.7624422e-07
5.3863777e-09
5.7605304e-07
4.4802342e-09
5.7592716e-07
3.578969e-09
5.7586345e-07
2.6804014e-09
5.7586057e-07
1.7825244e-09
5.759189e-07
8.8374218e-10
5.7604059e-07
-1.6836476e-11
5.7622961e-07
-9.1898569e-10
5.7649188e-07
-1.8206982e-09
5.7683541e-07
-2.7173704e-09
5.7727061e-07
-3.6005521e-09
5.7781017e-07
-4.4560287e-09
5.784693e-07
-5.2611537e-09
5.7926531e-07
-5.9811404e-09
5.8021655e-07
-6.563733e-09
5.813404e-07
-6.9336876e-09
5.8264933e-07
-6.9840702e-09
5.8414016e-07
-6.5599743e-09
5.8579796e-07
-5.4489804e-09
5.8749901e-07
-3.1907598e-09
5.878744e-07
-5.9401857e-10
5.6875142e-07
3.9255112e-07
5.0801647e-09
3.4110642e-07
8.78793e-09
5.6946518e-07
1.1334604e-08
5.9326893e-07
1.2866036e-08
5.9125165e-07
1.371749e-08
5.892288e-07
1.4060193e-08
5.8749523e-07
1.4023944e-08
5.8586426e-07
1.3712143e-08
5.8436944e-07
1.3206169e-08
5.8303554e-07
1.2567507e-08
5.8186622e-07
1.1840855e-08
5.8085421e-07
1.1058007e-08
5.7998714e-07
1.0241072e-08
5.7925087e-07
9.4050565e-09
5.7863137e-07
8.5598618e-09
5.7811576e-07
7.7117611e-09
5.7769279e-07
6.864489e-09
5.7735298e-07
6.020035e-09
5.7708863e-07
5.1792265e-09
5.768938e-07
4.3421653e-09
5.7676418e-07
3.5085711e-09
5.76697e-07
2.6780727e-09
5.7669102e-07
1.850485e-09
5.7674644e-07
1.0261069e-09
5.7686492e-07
2.0607519e-10
5.770496e-07
-6.0719688e-10
5.773051e-07
-1.4093419e-09
5.7763752e-07
-2.1933596e-09
5.7805459e-07
-2.9483624e-09
5.7856513e-07
-3.6582343e-09
5.7917913e-07
-4.2995661e-09
5.799066e-07
-4.8393659e-09
5.8075631e-07
-5.2323779e-09
5.8173337e-07
-5.4183048e-09
5.8283521e-07
-5.3217202e-09
5.8404354e-07
-4.844091e-09
5.8532029e-07
-3.8823127e-09
5.865372e-07
-2.2934068e-09
5.8628546e-07
-5.9412834e-10
5.6705211e-07
3.9195695e-07
5.0483331e-09
3.404115e-07
8.0967109e-09
5.6779402e-07
9.9423749e-09
5.9146263e-07
1.1189618e-08
5.8998058e-07
1.1981544e-08
5.8843467e-07
1.2386364e-08
5.8709055e-07
1.2476463e-08
5.8577416e-07
1.2319938e-08
5.8452592e-07
1.1976823e-08
5.8337861e-07
1.149624e-08
5.8234676e-07
1.0916689e-08
5.8143371e-07
1.0267502e-08
5.8063628e-07
9.5704995e-09
5.7994783e-07
8.8416004e-09
5.7936022e-07
8.0922018e-09
5.7886512e-07
7.3303123e-09
5.7845464e-07
6.5614494e-09
5.781218e-07
5.7893421e-09
5.778607e-07
5.0164793e-09
5.7766662e-07
4.244547e-09
5.7753607e-07
3.4747882e-09
5.7746672e-07
2.7083199e-09
5.7745745e-07
1.9464361e-09
5.7750828e-07
1.1909254e-09
5.7762039e-07
4.4443635e-10
5.7779604e-07
-2.8908977e-10
5.7803859e-07
-1.0039604e-09
5.7835234e-07
-1.6918307e-09
5.7874242e-07
-2.3410892e-09
5.7921435e-07
-2.9356962e-09
5.7977369e-07
-3.4540743e-09
5.8042494e-07
-3.8678804e-09
5.8117007e-07
-4.1408967e-09
5.8200634e-07
-4.2286783e-09
5.8292295e-07
-4.0813316e-09
5.8389615e-07
-3.6437923e-09
5.8488271e-07
-2.8698027e-09
5.8576317e-07
-1.7384624e-09
5.8515408e-07
-5.3590152e-10
5.6584951e-07
3.9142101e-07
4.9565494e-09
3.3981393e-07
7.6098786e-09
5.6650401e-07
9.0070248e-09
5.9011152e-07
1.0005036e-08
5.8896265e-07
1.0693755e-08
5.8774407e-07
1.1093769e-08
5.8669062e-07
1.1240609e-08
5.856273e-07
1.1176551e-08
5.8458994e-07
1.0943423e-08
5.8361169e-07
1.0578415e-08
5.8271172e-07
1.0112803e-08
5.8189928e-07
9.5719152e-09
5.8117713e-07
8.9757113e-09
5.8054399e-07
8.3396048e-09
5.7999629e-07
7.6753103e-09
5.7952937e-07
6.9916238e-09
5.7913828e-07
6.2950988e-09
5.7881828e-07
5.5906158e-09
5.7856514e-07
4.8818558e-09
5.7837534e-07
4.1716997e-09
5.7824618e-07
3.4625712e-09
5.781758e-07
2.756748e-09
5.7816323e-07
2.0566607e-09
5.7820833e-07
1.3651991e-09
5.7831181e-07
6.8604697e-10
5.7847515e-07
2.406284e-11
5.7870053e-07
-6.1425772e-10
5.7899062e-07
-1.2203101e-09
5.7934843e-07
-1.7827445e-09
5.7977674e-07
-2.2868357e-09
5.8027774e-07
-2.7138798e-09
5.8085194e-07
-3.0407867e-09
5.8149694e-07
-3.240066e-09
5.8220558e-07
-3.2807982e-09
5.8296365e-07
-3.1315964e-09
5.837469e-07
-2.7648766e-09
5.8451595e-07
-2.1619272e-09
5.8516018e-07
-1.3309569e-09
5.8432307e-07
-4.3717456e-10
5.6495568e-07
3.909838e-07
4.8460711e-09
3.3932289e-07
7.2200118e-09
5.6548401e-07
8.3195084e-09
5.8906147e-07
9.1175981e-09
5.8814679e-07
9.6987591e-09
5.871612e-07
1.006393e-08
5.863255e-07
1.0228057e-08
5.8546315e-07
1.0216084e-08
5.8460187e-07
1.0055965e-08
5.8377177e-07
9.774822e-09
5.8299282e-07
9.3970727e-09
5.8227699e-07
8.9436627e-09
5.816305e-07
8.4319844e-09
5.8105562e-07
7.8761518e-09
5.8055208e-07
7.287434e-09
5.8011805e-07
6.674737e-09
5.7975094e-07
6.0450713e-09
5.794479e-07
5.4039822e-09
5.7920618e-07
4.7559315e-09
5.7902335e-07
4.1046383e-09
5.7889743e-07
3.4533843e-09
5.7882701e-07
2.8052974e-09
5.7881127e-07
2.1636264e-09
5.7884995e-07
1.5320172e-09
5.7894337e-07
9.1480466e-10
5.7909232e-07
3.1732946e-10
5.7929796e-07
-2.5372109e-10
5.7956163e-07
-7.8995439e-10
5.7988462e-07
-1.2808949e-09
5.8026764e-07
-1.7136487e-09
5.8071045e-07
-2.072659e-09
5.8121091e-07
-2.3398806e-09
5.8176412e-07
-2.4951704e-09
5.8236083e-07
-2.5177783e-09
5.8298621e-07
-2.3888875e-09
5.8361797e-07
-2.0960275e-09
5.8422304e-07
-1.6336254e-09
5.8469773e-07
-1.010501e-09
5.836999e-07
-3.3782769e-10
5.6428297e-07
3.9064593e-07
4.7460659e-09
3.3892536e-07
6.9015362e-09
5.6467676e-07
7.7847676e-09
5.8823121e-07
8.4243471e-09
5.8749104e-07
8.9071775e-09
5.8667676e-07
9.2262805e-09
5.8600643e-07
9.385995e-09
5.8530341e-07
9.4002986e-09
5.8458752e-07
9.2873131e-09
5.8388471e-07
9.0662917e-09
5.832138e-07
8.7557668e-09
5.8258747e-07
8.3725426e-09
5.8201368e-07
7.9312742e-09
5.8149685e-07
7.4444052e-09
5.810389e-07
6.9223135e-09
5.8064009e-07
6.3735634e-09
5.8029964e-07
5.8051993e-09
5.8001622e-07
5.223048e-09
5.7978829e-07
4.632009e-09
5.7961434e-07
4.0363288e-09
5.7949307e-07
3.4398577e-09
5.7942344e-07
2.8462949e-09
5.7940479e-07
2.2594253e-09
5.7943678e-07
1.6833565e-09
5.795194e-07
1.1227586e-09
5.7965288e-07
5.8311074e-10
5.7983757e-07
7.0945126e-11
5.8007375e-07
-4.0589056e-10
5.8036141e-07
-8.3809587e-10
5.806998e-07
-1.2147294e-09
5.8108704e-07
-1.5232576e-09
5.815194e-07
-1.7498949e-09
5.8199071e-07
-1.8803079e-09
5.824912e-07
-1.9008291e-09
5.8300669e-07
-1.8009806e-09
5.8351808e-07
-1.5758586e-09
5.8399788e-07
-1.2259388e-09
5.8434777e-07
-7.5765185e-10
5.8323158e-07
-2.5521454e-10
5.6378049e-07
3.9039067e-07
4.6645481e-09
3.3860387e-07
6.645924e-09
5.6403977e-07
7.3607844e-09
5.8757278e-07
7.8724854e-09
5.8696449e-07
8.2688043e-09
5.8627893e-07
8.5393441e-09
5.8573591e-07
8.6830888e-09
5.8515963e-07
8.7072706e-09
5.845633e-07
8.6233078e-09
5.8396863e-07
8.444588e-09
5.8339248e-07
8.1848958e-09
5.8284712e-07
7.8574256e-09
5.823411e-07
7.4742334e-09
5.8187999e-07
7.0459987e-09
5.8146709e-07
6.5819898e-09
5.8110406e-07
6.0901539e-09
5.8079144e-07
5.5772782e-09
5.8052906e-07
5.0491842e-09
5.8031634e-07
4.5109356e-09
5.8015255e-07
3.9670479e-09
5.8003691e-07
3.4216936e-09
5.7996875e-07
2.8789027e-09
5.7994754e-07
2.3427582e-09
5.7997288e-07
1.8175888e-09
5.8004453e-07
1.3081569e-09
5.8016227e-07
8.1984137e-10
5.8032584e-07
3.5880205e-10
5.8053475e-07
-6.7873191e-11
5.8078804e-07
-4.5209831e-10
5.8108398e-07
-7.8480544e-10
5.8141971e-07
-1.056103e-09
5.8179065e-07
-1.2556138e-09
5.8219018e-07
-1.3733421e-09
5.8260889e-07
-1.4006444e-09
5.8303395e-07
-1.3320129e-09
5.8344941e-07
-1.1664147e-09
5.8383224e-07
-9.0734988e-10
5.8408867e-07
-5.6012946e-10
5.8288431e-07
-1.9059109e-10
5.6341091e-07
3.9020004e-07
4.5991835e-09
3.3834369e-07
6.4426463e-09
5.6353774e-07
7.0229218e-09
5.8705185e-07
7.4297957e-09
5.8654383e-07
7.750839e-09
5.8595643e-07
7.9742049e-09
5.8551255e-07
8.0962225e-09
5.8503758e-07
8.1200275e-09
5.8453945e-07
8.0525404e-09
5.8403607e-07
7.9028874e-09
5.8354209e-07
7.6811628e-09
5.830688e-07
7.3975645e-09
5.8262466e-07
7.0618415e-09
5.8221567e-07
6.6829829e-09
5.8184591e-07
6.269084e-09
5.8151791e-07
5.8273326e-09
5.8123314e-07
5.3640741e-09
5.8099227e-07
4.8849227e-09
5.8079545e-07
4.3948998e-09
5.8064253e-07
3.8985849e-09
5.8053318e-07
3.4002719e-09
5.8046702e-07
2.9041254e-09
5.8044364e-07
2.4143343e-09
5.8046263e-07
1.9352612e-09
5.8052356e-07
1.4715828e-09
5.806259e-07
1.028417e-09
5.8076896e-07
6.1142579e-10
5.809517e-07
2.2688443e-10
5.8117254e-07
-1.1832004e-10
5.8142915e-07
-4.1676595e-10
5.8171811e-07
-6.6075109e-10
5.8203459e-07
-8.4261758e-10
5.8237201e-07
-9.5556025e-10
5.8272179e-07
-9.939719e-10
5.8307232e-07
-9.5570022e-10
5.834111e-07
-8.4179518e-10
5.837183e-07
-6.5682422e-10
5.8390366e-07
-4.0590729e-10
5.8263336e-07
-1.3996484e-10
5.6314493e-07
3.9006004e-07
4.545939e-09
3.3813366e-07
6.2799335e-09
5.6314272e-07
6.7519727e-09
5.866414e-07
7.0723065e-09
5.8621055e-07
7.3283078e-09
5.8569902e-07
7.5077306e-09
5.8533312e-07
7.6057121e-09
5.8493957e-07
7.6229562e-09
5.8452216e-07
7.563404e-09
5.8409558e-07
7.4331378e-09
5.8367231e-07
7.2394475e-09
5.8326245e-07
6.9901201e-09
5.8287394e-07
6.6929399e-09
5.8251281e-07
6.3553672e-09
5.8218344e-07
5.9843586e-09
5.8188888e-07
5.5862929e-09
5.8163117e-07
5.1669718e-09
5.8141155e-07
4.7316705e-09
5.8123071e-07
4.2852205e-09
5.8108893e-07
3.8321115e-09
5.8098625e-07
3.3766034e-09
5.8092249e-07
2.9228424e-09
5.8089736e-07
2.4749757e-09
5.8091045e-07
2.0372617e-09
5.8096123e-07
1.6141685e-09
5.8104895e-07
1.2104572e-09
5.8117263e-07
8.3123645e-10
5.8133088e-07
4.819808e-10
5.8152175e-07
1.6848458e-10
5.817426e-07
-1.0324545e-10
5.819898e-07
-3.2724174e-10
5.8225855e-07
-4.9788805e-10
5.8254261e-07
-6.1033072e-10
5.8283419e-07
-6.6221496e-10
5.8312416e-07
-6.5200524e-10
5.8340085e-07
-5.8263158e-10
5.8364888e-07
-4.5831401e-10
5.837793e-07
-2.8432275e-10
5.8245932e-07
-9.9574482e-11
5.6296014e-07
3.8996042e-07
4.5018962e-09
3.3796519e-07
6.1480335e-09
5.6283353e-07
6.5325811e-09
5.8632015e-07
6.7812122e-09
5.8594963e-07
6.9813518e-09
5.8549752e-07
7.1209143e-09
5.8519355e-07
7.1946488e-09
5.848658e-07
7.2018724e-09
5.845149e-07
7.1445889e-09
5.8415282e-07
7.0267403e-09
5.8379011e-07
6.8535214e-09
5.8343562e-07
6.6308215e-09
5.830966e-07
6.3647984e-09
5.8277879e-07
6.0615799e-09
5.8248661e-07
5.7270727e-09
5.8222334e-07
5.3668578e-09
5.8199134e-07
4.9861514e-09
5.8179221e-07
4.5898127e-09
5.81627e-07
4.1823856e-09
5.8149632e-07
3.7681607e-09
5.8140043e-07
3.35125e-09
5.8133936e-07
2.9356683e-09
5.813129e-07
2.5254136e-09
5.8132067e-07
2.1245436e-09
5.8136205e-07
1.7372403e-09
5.8143621e-07
1.3678582e-09
5.8154197e-07
1.0209449e-09
5.8167775e-07
7.0122683e-10
5.8184143e-07
4.135417e-10
5.8203024e-07
1.6271206e-10
5.8224058e-07
-4.6673872e-11
5.8246789e-07
-2.1060414e-10
5.827065e-07
-3.259938e-10
5.8294954e-07
-3.910541e-10
5.8318918e-07
-4.0623343e-10
5.8341598e-07
-3.7430446e-10
5.8361691e-07
-2.9963697e-10
5.8370459e-07
-1.8735659e-10
5.82347e-07
-6.6873237e-11
5.6283962e-07
3.8989351e-07
4.4651556e-09
3.3783143e-07
6.0399046e-09
5.6259405e-07
6.3531611e-09
5.8607155e-07
6.5421448e-09
5.8574887e-07
6.6944763e-09
5.8534386e-07
6.7984914e-09
5.8508952e-07
6.8489773e-09
5.8481528e-07
6.8445104e-09
5.8451932e-07
6.7858612e-09
5.8421143e-07
6.6754878e-09
5.8390044e-07
6.5170429e-09
5.8359402e-07
6.3149457e-09
5.8329865e-07
6.0740348e-09
5.8301966e-07
5.7993066e-09
5.827613e-07
5.4957323e-09
5.8252687e-07
5.1681425e-09
5.8231888e-07
4.8211666e-09
5.8213914e-07
4.4592124e-09
5.8198891e-07
4.0864779e-09
5.8186901e-07
3.7069823e-09
5.8177988e-07
3.324612e-09
5.8172168e-07
2.9431712e-09
5.816943e-07
2.5664359e-09
5.8169736e-07
2.1982008e-09
5.8173025e-07
1.8423183e-09
5.8179205e-07
1.5027197e-09
5.8188153e-07
1.1834132e-09
5.8199701e-07
8.8845031e-10
5.8213635e-07
6.2184927e-10
5.822968e-07
3.8746869e-10
5.8247492e-07
1.8882315e-10
5.8266649e-07
2.8821031e-11
5.8286646e-07
-9.0509662e-11
5.8306882e-07
-1.6843821e-10
5.8326707e-07
-2.0585142e-10
5.8345335e-07
-2.0559966e-10
5.8361662e-07
-1.7177886e-10
5.8367072e-07
-1.0937721e-10
5.8228456e-07
-4.0233715e-11
5.6277043e-07
3.8985323e-07
4.434354e-09
3.3772677e-07
5.950507e-09
5.6241179e-07
6.2051689e-09
5.8588263e-07
6.3443126e-09
5.8559837e-07
6.4557803e-09
5.8523109e-07
6.5284236e-09
5.8501685e-07
6.5572824e-09
5.8478639e-07
6.5405855e-09
5.8453597e-07
6.4783388e-09
5.8427363e-07
6.371985e-09
5.8400675e-07
6.2240539e-09
5.8374191e-07
6.0378402e-09
5.8348482e-07
5.8171277e-09
5.8324033e-07
5.5659695e-09
5.8301241e-07
5.2885229e-09
5.8280428e-07
4.9889354e-09
5.8261843e-07
4.6712742e-09
5.8245676e-07
4.3394894e-09
5.8232065e-07
3.9974045e-09
5.8221105e-07
3.6487258e-09
5.8212852e-07
3.2970644e-09
5.820733e-07
2.9459645e-09
5.8204535e-07
2.5989336e-09
5.8204435e-07
2.2594688e-09
5.8206967e-07
1.9310744e-09
5.821204e-07
1.6172645e-09
5.8219529e-07
1.3215466e-09
5.8229268e-07
1.0473774e-09
5.8241048e-07
7.9808739e-10
5.8254605e-07
5.7676506e-10
5.826962e-07
3.8610284e-10
5.8285711e-07
2.2819815e-10
5.8302432e-07
1.0428579e-10
5.8319269e-07
1.4610205e-11
5.833567e-07
-4.2072813e-11
5.8350999e-07
-6.8354743e-11
5.8364286e-07
-6.8112764e-11
5.8367044e-07
-4.6303399e-11
5.8226271e-07
-1.8410846e-11
5.627425e-07
3.8983478e-07
4.4084292e-09
3.3764663e-07
5.8760962e-09
5.6227688e-07
6.0822248e-09
5.8574312e-07
6.1795406e-09
5.8549004e-07
6.2560787e-09
5.8515327e-07
6.3012137e-09
5.8497169e-07
6.3103343e-09
5.8477723e-07
6.2815565e-09
5.8456471e-07
6.2144315e-09
5.8434071e-07
6.1097172e-09
5.8411142e-07
5.9691326e-09
5.8388245e-07
5.7951196e-09
5.8365879e-07
5.5906278e-09
5.8344477e-07
5.3589338e-09
5.8324406e-07
5.1034986e-09
5.8305967e-07
4.8278616e-09
5.8289402e-07
4.5355678e-09
5.8274901e-07
4.2301228e-09
5.8262606e-07
3.9149695e-09
5.8252616e-07
3.5934819e-09
5.8244996e-07
3.2689698e-09
5.8239777e-07
2.9446894e-09
5.8236959e-07
2.6238563e-09
5.8236514e-07
2.3096549e-09
5.8238383e-07
2.0052409e-09
5.8242477e-07
1.7137314e-09
5.8248676e-07
1.4381794e-09
5.8256819e-07
1.1815266e-09
5.8266709e-07
9.4653185e-10
5.82781e-07
7.3567097e-10
5.8290702e-07
5.5100798e-10
5.8304173e-07
3.9404404e-10
5.8318124e-07
2.6551857e-10
5.8332118e-07
1.6532363e-10
5.8345686e-07
9.215126e-11
5.8358312e-07
4.3649184e-11
5.8369132e-07
1.6258451e-11
5.8369779e-07
5.1022318e-12
5.8227382e-07
-6.7605276e-14
5.6274762e-07
3.8983467e-07
4.3865276e-09
3.3758722e-07
5.8138043e-09
5.621814e-07
5.9794665e-09
5.8564481e-07
6.0415311e-09
5.8541724e-07
6.0881876e-09
5.8510535e-07
6.1092993e-09
5.8495055e-07
6.1006316e-09
5.8478586e-07
6.0603249e-09
5.8460497e-07
5.9876779e-09
5.8441331e-07
5.8829944e-09
5.8421606e-07
5.7474137e-09
5.8401799e-07
5.582735e-09
5.8382343e-07
5.3912526e-09
5.8363621e-07
5.1756099e-09
5.8345966e-07
4.9386792e-09
5.8329656e-07
4.6834672e-09
5.8314919e-07
4.4130445e-09
5.8301939e-07
4.1304979e-09
5.8290856e-07
3.8388986e-09
5.8281772e-07
3.5412859e-09
5.8274753e-07
3.2406596e-09
5.8269835e-07
2.9399774e-09
5.8267023e-07
2.6421553e-09
5.8266291e-07
2.3500649e-09
5.8267587e-07
2.0665249e-09
5.8270827e-07
1.7942836e-09
5.8275896e-07
1.5359885e-09
5.8282645e-07
1.2941391e-09
5.8290889e-07
1.0710225e-09
5.8300407e-07
8.6862891e-10
5.8310937e-07
6.8854695e-10
5.8322177e-07
5.3184842e-10
5.833379e-07
3.9894963e-10
5.8345403e-07
2.8952262e-10
5.8356624e-07
2.0232152e-10
5.8367028e-07
1.3521375e-10
5.8375838e-07
8.5049635e-11
5.8374791e-07
4.7342701e-11
5.8231149e-07
1.5652649e-11
5.6277927e-07
3.8985028e-07
4.367957e-09
3.3754539e-07
5.7613932e-09
5.6211896e-07
5.8931239e-09
5.8558103e-07
5.9253637e-09
5.8537449e-07
5.9464234e-09
5.8508304e-07
5.9466051e-09
5.8495034e-07
5.9220431e-09
5.8481039e-07
5.8709772e-09
5.8465599e-07
5.7925837e-09
5.8449166e-07
5.6868732e-09
5.8432173e-07
5.5545731e-09
5.8415025e-07
5.3970015e-09
5.8398095e-07
5.21594e-09
5.8381723e-07
5.0135191e-09
5.8366204e-07
4.7921177e-09
5.8351791e-07
4.554281e-09
5.8338698e-07
4.302656e-09
5.8327097e-07
4.0399429e-09
5.8317123e-07
3.7688605e-09
5.8308876e-07
3.4921229e-09
5.8302423e-07
3.2124232e-09
5.8297801e-07
2.9324231e-09
5.8295019e-07
2.6547432e-09
5.8294055e-07
2.3819521e-09
5.8294862e-07
2.1165509e-09
5.8297363e-07
1.8609513e-09
5.8301451e-07
1.6174425e-09
5.8306991e-07
1.3881478e-09
5.8313815e-07
1.1749668e-09
5.8321721e-07
9.7950574e-10
5.8330479e-07
8.0299415e-10
5.8339824e-07
6.4619614e-10
5.8349465e-07
5.0931368e-10
5.8359087e-07
3.9191174e-10
5.836836e-07
2.9283096e-10
5.8376932e-07
2.1017463e-10
5.83841e-07
1.4123126e-10
5.8381681e-07
8.2218353e-11
5.8237046e-07
2.9301326e-11
5.6283215e-07
3.8987954e-07
4.3521556e-09
3.3751852e-07
5.7170948e-09
5.6208435e-07
5.820233e-09
5.8554634e-07
5.8271485e-09
5.8535726e-07
5.8262472e-09
5.8508271e-07
5.8082166e-09
5.8496833e-07
5.7695349e-09
5.8484903e-07
5.7085783e-09
5.8471691e-07
5.6244835e-09
5.8457572e-07
5.5170772e-09
5.8442909e-07
5.3867982e-09
5.8428048e-07
5.2346047e-09
5.841331e-07
5.0618795e-09
5.8398991e-07
4.8703388e-09
5.8385354e-07
4.6619504e-09
5.8372626e-07
4.4388636e-09
5.8361003e-07
4.2033509e-09
5.8350644e-07
3.9577622e-09
5.8341677e-07
3.7044889e-09
5.8334199e-07
3.4459369e-09
5.8328273e-07
3.1845055e-09
5.832394e-07
2.9225709e-09
5.8321208e-07
2.6624706e-09
5.8320061e-07
2.4064869e-09
5.8320456e-07
2.1568272e-09
5.8322325e-07
1.9155994e-09
5.832557e-07
1.6847796e-09
5.8330069e-07
1.4661719e-09
5.8335671e-07
1.2613584e-09
5.8342198e-07
1.0716418e-09
5.8349446e-07
8.9798028e-10
5.8357186e-07
7.4091884e-10
5.8365167e-07
6.0052153e-10
5.8373123e-07
4.7631606e-10
5.8380776e-07
3.6724408e-10
5.8387835e-07
2.7164975e-10
5.8393655e-07
1.8723918e-10
5.8390118e-07
1.1095925e-10
5.8244669e-07
4.0845698e-11
5.6290222e-07
3.8992034e-07
4.3386667e-09
3.3750444e-07
5.6794995e-09
5.6207326e-07
5.7584382e-09
5.8553628e-07
5.7437798e-09
5.8536176e-07
5.7240045e-09
5.8510126e-07
5.690134e-09
5.8500217e-07
5.638958e-09
5.8490017e-07
5.5690038e-09
5.8478682e-07
5.4794188e-09
5.8466526e-07
5.3699212e-09
5.8453855e-07
5.2407488e-09
5.8440961e-07
5.0925925e-09
5.8428122e-07
4.9265247e-09
5.8415594e-07
4.7439282e-09
5.8403609e-07
4.5464297e-09
5.8392371e-07
4.3358407e-09
5.8382057e-07
4.1141061e-09
5.8372813e-07
3.883262e-09
5.8364758e-07
3.6454006e-09
5.835798e-07
3.4026415e-09
5.8352545e-07
3.1571084e-09
5.8348489e-07
2.9109086e-09
5.8345823e-07
2.6661138e-09
5.8344536e-07
2.4247406e-09
5.8344589e-07
2.1887286e-09
5.8345922e-07
1.9599145e-09
5.8348447e-07
1.7400022e-09
5.8352056e-07
1.5305255e-09
5.8356614e-07
1.3328066e-09
5.8361966e-07
1.1479082e-09
5.8367932e-07
9.7658284e-10
5.8374315e-07
8.1922096e-10
5.8380899e-07
6.7580248e-10
5.8387461e-07
5.4585821e-10
5.8393767e-07
4.2844141e-10
5.8399573e-07
3.2212383e-10
5.8404282e-07
2.249808e-10
5.8399828e-07
1.3458417e-10
5.8253705e-07
5.0422922e-11
5.6298634e-07
3.8997072e-07
4.3271175e-09
3.3750131e-07
5.6474745e-09
5.6208217e-07
5.7058506e-09
5.8554713e-07
5.6727568e-09
5.8538484e-07
5.6367309e-09
5.8513607e-07
5.5890829e-09
5.8504978e-07
5.5268794e-09
5.8496234e-07
5.4488001e-09
5.8486485e-07
5.3540323e-09
5.8475998e-07
5.2422366e-09
5.846503e-07
5.1135131e-09
5.8453829e-07
4.9683543e-09
5.8442633e-07
4.8075915e-09
5.8431666e-07
4.6323394e-09
5.842113e-07
4.4439424e-09
5.8411207e-07
4.243925e-09
5.8402055e-07
4.0339478e-09
5.8393807e-07
3.8157686e-09