/*--------------------------------*- C++ -*----------------------------------*\
  =========                 |
  \\      /  F ield         | OpenFOAM: The Open Source CFD Toolbox
   \\    /   O peration     | Website:  https://openfoam.org
    \\  /    A nd           | Version:  10
     \\/     M anipulation  |
\*---------------------------------------------------------------------------*/
FoamFile
{
    format      ascii;
    class       surfaceScalarField;
    location    "0.01";
    object      phi_0;
}
// * * * * * * * * * * * * * * * * * * * * * * * * * * * * * * * * * * * * * //

dimensions      [1 0 -1 0 0 0 0];

internalField   nonuniform List<scalar> 
7860
(
3.6764759e-08
5.319539e-07
1.1279071e-08
5.9417059e-07
6.8067304e-09
5.7318256e-07
4.8067353e-09
5.7070885e-07
3.5429472e-09
5.6997246e-07
2.7605257e-09
5.6949108e-07
2.2194258e-09
5.6924974e-07
1.8192273e-09
5.6910883e-07
1.5112242e-09
5.6901662e-07
1.2657157e-09
5.6895412e-07
1.0640219e-09
5.689103e-07
8.939667e-10
5.6887865e-07
7.4726607e-10
5.6885529e-07
6.1808078e-10
5.6883777e-07
5.0215962e-10
5.6882451e-07
3.9630773e-10
5.6881443e-07
2.9804598e-10
5.6880684e-07
2.0539001e-10
5.6880123e-07
1.1666797e-10
5.687973e-07
3.0345375e-11
5.687949e-07
-5.4832639e-11
5.6879375e-07
-1.4017101e-10
5.6879391e-07
-2.2700941e-10
5.6879542e-07
-3.1679987e-10
5.6879837e-07
-4.1119014e-10
5.6880297e-07
-5.1216674e-10
5.6880956e-07
-6.2222144e-10
5.6881864e-07
-7.4460976e-10
5.6883098e-07
-8.8374935e-10
5.6884773e-07
-1.0458831e-09
5.6887073e-07
-1.2401357e-09
5.6890286e-07
-1.4805068e-09
5.6894898e-07
-1.7893794e-09
5.6901749e-07
-2.2040905e-09
5.6912334e-07
-2.7999654e-09
5.6930452e-07
-3.7541848e-09
5.6966288e-07
-5.292662e-09
5.7024716e-07
-8.6030976e-09
5.7201914e-07
-2.6836303e-08
5.8694195e-07
5.418726e-07
5.3809509e-08
4.7824992e-07
3.2253381e-08
6.1558759e-07
1.9750703e-08
5.8567621e-07
1.3956363e-08
5.7650591e-07
1.0507709e-08
5.7342203e-07
8.2266811e-09
5.7177296e-07
6.6096191e-09
5.7086767e-07
5.4104972e-09
5.7030882e-07
4.4841033e-09
5.6994389e-07
3.7426806e-09
5.6969641e-07
3.1315804e-09
5.6952227e-07
2.6149595e-09
5.6939614e-07
2.1683341e-09
5.6930279e-07
1.7743879e-09
5.6923259e-07
1.4204631e-09
5.691793e-07
1.0970058e-09
5.6913876e-07
7.9656347e-10
5.6910815e-07
5.1311447e-10
5.6908555e-07
2.4161342e-10
5.6906967e-07
-2.23583e-11
5.6905974e-07
-2.8290726e-10
5.6905517e-07
-5.4396317e-10
5.6905584e-07
-8.0957976e-10
5.690619e-07
-1.0841384e-09
5.690738e-07
-1.3726497e-09
5.6909235e-07
-1.6810989e-09
5.6911888e-07
-2.0169642e-09
5.6915538e-07
-2.3899946e-09
5.6920488e-07
-2.8133231e-09
5.6927193e-07
-3.3054438e-09
5.6936372e-07
-3.893266e-09
5.6949155e-07
-4.6178699e-09
5.6967446e-07
-5.5450596e-09
5.6994555e-07
-6.7849322e-09
5.7036409e-07
-8.5256336e-09
5.7104609e-07
-1.1150956e-08
5.7228907e-07
-1.5539438e-08
5.7463651e-07
-2.4393361e-08
5.8087394e-07
-4.0137447e-08
6.026869e-07
5.0173602e-07
4.9281327e-08
4.2997858e-07
4.1463652e-08
6.2332495e-07
2.828387e-08
5.9876184e-07
2.1294057e-08
5.8348933e-07
1.6753569e-08
5.7796374e-07
1.3459453e-08
5.7506799e-07
1.1009446e-08
5.7331855e-07
9.1341347e-09
5.72185e-07
7.6504005e-09
5.7142849e-07
6.4419406e-09
5.7090574e-07
5.4323515e-09
5.7053273e-07
4.5695759e-09
5.7025979e-07
3.8171181e-09
5.7005612e-07
3.1486224e-09
5.6990196e-07
2.544487e-09
5.6978431e-07
1.9896985e-09
5.6969442e-07
1.4724005e-09
5.6962632e-07
9.8291149e-10
5.6957591e-07
5.1304226e-10
5.6954041e-07
5.5563394e-11
5.6951809e-07
-3.9619797e-10
5.695078e-07
-8.4874819e-10
5.6950926e-07
-1.3087229e-09
5.6952275e-07
-1.7832732e-09
5.6954922e-07
-2.2805031e-09
5.6959045e-07
-2.8100147e-09
5.6964926e-07
-3.3836513e-09
5.6972988e-07
-4.0166308e-09
5.6983873e-07
-4.7290664e-09
5.6998524e-07
-5.5486675e-09
5.701842e-07
-6.5146656e-09
5.7045842e-07
-7.6846704e-09
5.7084533e-07
-9.1458044e-09
5.7140756e-07
-1.1035647e-08
5.722548e-07
-1.3559894e-08
5.7357121e-07
-1.7016722e-08
5.7574677e-07
-2.2178627e-08
5.7979929e-07
-3.1136609e-08
5.8983279e-07
-3.700064e-08
6.0855181e-07
4.6473625e-07
3.8387247e-08
3.9463729e-07
4.1935448e-08
6.2009638e-07
3.2503263e-08
6.0791424e-07
2.6363754e-08
5.8958522e-07
2.1910179e-08
5.8241925e-07
1.8336742e-08
5.7864283e-07
1.5490961e-08
5.7616522e-07
1.319529e-08
5.7448154e-07
1.1307271e-08
5.7331738e-07
9.7245325e-09
5.7248935e-07
8.3721579e-09
5.7188597e-07
7.1953672e-09
5.7143745e-07
6.1537209e-09
5.7109863e-07
5.2168261e-09
5.7083972e-07
4.361363e-09
5.7064064e-07
3.5690204e-09
5.7048763e-07
2.8250418e-09
5.7037117e-07
2.1171796e-09
5.7028464e-07
1.4349278e-09
5.7022353e-07
7.6895483e-10
5.7018493e-07
1.1053741e-10
5.7016709e-07
-5.4878566e-10
5.7016945e-07
-1.2176447e-09
5.7019248e-07
-1.9052768e-09
5.7023772e-07
-2.622033e-09
5.7030808e-07
-3.3799818e-09
5.7040808e-07
-4.1937153e-09
5.7054449e-07
-5.0815059e-09
5.7072739e-07
-6.0668409e-09
5.7097144e-07
-7.1806855e-09
5.7129891e-07
-8.4646174e-09
5.7174322e-07
-9.975385e-09
5.7235697e-07
-1.1789915e-08
5.7322296e-07
-1.4013888e-08
5.7447965e-07
-1.6783961e-08
5.7634215e-07
-2.0208369e-08
5.7917205e-07
-2.4635543e-08
5.8422733e-07
-3.0635852e-08
5.9583397e-07
-2.7887234e-08
6.0580406e-07
4.3684988e-07
2.6577916e-08
3.7313567e-07
3.6995799e-08
6.1046722e-07
3.3081707e-08
6.1135385e-07
2.8872863e-08
5.9369714e-07
2.5247665e-08
5.860467e-07
2.2042839e-08
5.8185e-07
1.9282143e-08
5.7892685e-07
1.6910904e-08
5.7685364e-07
1.48671e-08
5.7536205e-07
1.3090686e-08
5.7426663e-07
1.1528938e-08
5.7344859e-07
1.013859e-08
5.7282867e-07
8.8848342e-09
5.7235326e-07
7.7397682e-09
5.7198565e-07
6.6809094e-09
5.7170037e-07
5.689915e-09
5.7147949e-07
4.751549e-09
5.713104e-07
3.8528621e-09
5.711842e-07
2.9825377e-09
5.7109472e-07
2.1303863e-09
5.7103795e-07
1.2868231e-09
5.7101152e-07
4.4252385e-10
5.7101462e-07
-4.1199008e-10
5.7104786e-07
-1.2867596e-09
5.7111336e-07
-2.1928256e-09
5.7121501e-07
-3.14281e-09
5.7135893e-07
-4.151529e-09
5.7155407e-07
-5.2368024e-09
5.7181353e-07
-6.4204638e-09
5.7215598e-07
-7.7294602e-09
5.7260878e-07
-9.1970397e-09
5.7321167e-07
-1.0863355e-08
5.7402416e-07
-1.2774025e-08
5.751345e-07
-1.4974312e-08
5.766808e-07
-1.7506995e-08
5.7887571e-07
-2.035219e-08
5.8201812e-07
-2.3355633e-08
5.8723165e-07
-2.5431399e-08
5.9791061e-07
-1.7493091e-08
5.9786663e-07
4.1935767e-07
1.6460235e-08
3.6259262e-07
2.9096614e-08
5.9889367e-07
3.0242007e-08
6.0966592e-07
2.8365964e-08
5.9544406e-07
2.596928e-08
5.8844478e-07
2.3539512e-08
5.8428283e-07
2.1231241e-08
5.8123611e-07
1.9103183e-08
5.7898255e-07
1.7170103e-08
5.77296e-07
1.5419803e-08
5.760178e-07
1.3830726e-08
5.7503853e-07
1.2379428e-08
5.7428083e-07
1.104356e-08
5.7368999e-07
9.8030716e-09
5.7322701e-07
8.6404453e-09
5.7286386e-07
7.540494e-09
5.7258031e-07
6.4900018e-09
5.7236176e-07
5.4773286e-09
5.7219774e-07
4.4920246e-09
5.7208089e-07
3.5244919e-09
5.7200635e-07
2.5656264e-09
5.7197126e-07
1.6065404e-09
5.7197457e-07
6.3825651e-10
5.7201701e-07
-3.4859864e-10
5.7210108e-07
-1.3640976e-09
5.7223138e-07
-2.4193323e-09
5.7241504e-07
-3.5267645e-09
5.7266237e-07
-4.7004835e-09
5.7298812e-07
-5.9564711e-09
5.7341283e-07
-7.3122858e-09
5.7396546e-07
-8.7863201e-09
5.7468658e-07
-1.0395216e-08
5.7563392e-07
-1.2148828e-08
5.7688898e-07
-1.4035971e-08
5.7856882e-07
-1.6010846e-08
5.8085145e-07
-1.7958374e-08
5.8396652e-07
-1.9348584e-08
5.8862273e-07
-1.8114902e-08
5.966778e-07
-8.8576514e-09
5.8861025e-07
4.1050089e-07
9.8389511e-09
3.5842242e-07
2.1111414e-08
5.8880286e-07
2.5141342e-08
6.0518655e-07
2.5246293e-08
5.9521713e-07
2.4147831e-08
5.8954312e-07
2.2636924e-08
5.8579673e-07
2.0966058e-08
5.8290799e-07
1.9278838e-08
5.8067063e-07
1.7646171e-08
5.7892953e-07
1.6096577e-08
5.7756826e-07
1.4638034e-08
5.7649794e-07
1.326785e-08
5.7565188e-07
1.1978223e-08
5.7498048e-07
1.0759296e-08
5.744468e-07
9.6007211e-09
5.740233e-07
8.4924031e-09
5.736895e-07
7.4248076e-09
5.7343022e-07
6.3890256e-09
5.7323439e-07
5.3767134e-09
5.7309407e-07
4.3799801e-09
5.7300395e-07
3.3912315e-09
5.7296087e-07
2.4030246e-09
5.7296365e-07
1.4079115e-09
5.7301299e-07
3.9829363e-10
5.7311156e-07
-6.3369328e-10
5.7326423e-07
-1.6962476e-09
5.7347846e-07
-2.7978846e-09
5.7376488e-07
-3.947138e-09
5.7413824e-07
-5.1522164e-09
5.7461878e-07
-6.4196178e-09
5.7523373e-07
-7.7519841e-09
5.7601981e-07
-9.1436924e-09
5.770265e-07
-1.0573855e-08
5.7832001e-07
-1.1990369e-08
5.799862e-07
-1.3282358e-08
5.8214431e-07
-1.4259312e-08
5.8494434e-07
-1.4306912e-08
5.886712e-07
-1.1384615e-08
5.9375638e-07
-3.6278358e-09
5.8085435e-07
4.0687394e-07
6.6734201e-09
3.5686872e-07
1.5126921e-08
5.8160268e-07
1.9731553e-08
6.0030481e-07
2.0979913e-08
5.9387839e-07
2.0903391e-08
5.8961847e-07
2.020823e-08
5.8649425e-07
1.9173051e-08
5.8394416e-07
1.7974903e-08
5.8186963e-07
1.6714367e-08
5.8019093e-07
1.5447353e-08
5.7883614e-07
1.4203712e-08
5.7774245e-07
1.2997593e-08
5.7685886e-07
1.1834027e-08
5.7614492e-07
1.0712833e-08
5.7556886e-07
9.6309382e-09
5.7510606e-07
8.5837461e-09
5.7473755e-07
7.5659303e-09
5.744489e-07
6.5718708e-09
5.7422931e-07
5.5958813e-09
5.7407093e-07
4.6323157e-09
5.7396838e-07
3.6756007e-09
5.7391845e-07
2.7202419e-09
5.7391987e-07
1.7608208e-09
5.7397327e-07
7.9201267e-10
5.7408124e-07
-1.9134686e-10
5.7424846e-07
-1.1940944e-09
5.7448207e-07
-2.2205069e-09
5.7479216e-07
-3.2733367e-09
5.7519193e-07
-4.3535243e-09
5.7569983e-07
-5.4577342e-09
5.763388e-07
-6.5758421e-09
5.7713878e-07
-7.6858502e-09
5.7813737e-07
-8.7461499e-09
5.7938118e-07
-9.6826875e-09
5.809236e-07
-1.036128e-08
5.8282377e-07
-1.0568745e-08
5.8515267e-07
-9.8302549e-09
5.8793358e-07
-6.7290263e-09
5.9065602e-07
-1.3753432e-09
5.7550154e-07
4.0549947e-07
5.667596e-09
3.5597245e-07
1.1565682e-08
5.770051e-07
1.5436212e-08
5.9630979e-07
1.7044062e-08
5.9221277e-07
1.7553418e-08
5.8910771e-07
1.7423784e-08
5.8662559e-07
1.6890409e-08
5.8447848e-07
1.6114728e-08
5.8264617e-07
1.5200662e-08
5.8110586e-07
1.4214994e-08
5.7982267e-07
1.3199201e-08
5.787591e-07
1.2178125e-08
5.778808e-07
1.1165909e-08
5.7715799e-07
1.0169839e-08
5.7656579e-07
9.1928542e-09
5.7608391e-07
8.2351754e-09
5.7569609e-07
7.2953491e-09
5.7538959e-07
6.3709155e-09
5.7515461e-07
5.4588334e-09
5.7498387e-07
4.5557541e-09
5.7487232e-07
3.658201e-09
5.7481686e-07
2.7627081e-09
5.7481623e-07
1.865944e-09
5.748709e-07
9.6486234e-10
5.7498318e-07
5.6910187e-11
5.7515727e-07
-8.5961617e-10
5.7539946e-07
-1.7850727e-09
5.7571848e-07
-2.7181835e-09
5.7612591e-07
-3.6535701e-09
5.7663608e-07
-4.5811165e-09
5.7726721e-07
-5.4826564e-09
5.7804119e-07
-6.3275791e-09
5.7898316e-07
-7.0661712e-09
5.8012064e-07
-7.621584e-09
5.8147988e-07
-7.873631e-09
5.8307668e-07
-7.6416141e-09
5.8492152e-07
-6.6390021e-09
5.8693184e-07
-4.1248055e-09
5.8814269e-07
-7.5806774e-10
5.7213567e-07
4.0474227e-07
5.49124e-09
3.5514312e-07
9.7219847e-09
5.7408978e-07
1.2576573e-08
5.9342114e-07
1.4100203e-08
5.9065322e-07
1.4831402e-08
5.8837538e-07
1.5012465e-08
5.8644581e-07
1.4807561e-08
5.846843e-07
1.4339875e-08
5.8311472e-07
1.3699152e-08
5.8174744e-07
1.2949214e-08
5.8057347e-07
1.2133787e-08
5.7957539e-07
1.128214e-08
5.7873331e-07
1.0413353e-08
5.7802764e-07
9.5394255e-09
5.7744058e-07
8.6675063e-09
5.7695669e-07
7.8014557e-09
5.76563e-07
6.9429311e-09
5.7624898e-07
6.0921389e-09
5.7600626e-07
5.248358e-09
5.7582851e-07
4.4103123e-09
5.7571123e-07
3.5764486e-09
5.7565159e-07
2.745165e-09
5.7564837e-07
1.9150263e-09
5.757019e-07
1.0850019e-09
5.7581407e-07
2.5475695e-10
5.7598838e-07
-5.7496262e-10
5.7623004e-07
-1.4016906e-09
5.7654606e-07
-2.2204199e-09
5.769455e-07
-3.0226243e-09
5.7743914e-07
-3.7944012e-09
5.7803985e-07
-4.5141966e-09
5.7876184e-07
-5.1497012e-09
5.7961953e-07
-5.6536464e-09
5.8062544e-07
-5.9594157e-09
5.8178651e-07
-5.9765563e-09
5.8309469e-07
-5.5795259e-09
5.8452536e-07
-4.6186021e-09
5.8597178e-07
-2.8015343e-09
5.8632649e-07
-6.7312885e-10
5.7000813e-07
4.0407001e-07
5.4487703e-09
3.5435267e-07
8.7486619e-09
5.7209705e-07
1.0796405e-08
5.9137775e-07
1.2085149e-08
5.8933976e-07
1.2832424e-08
5.8762733e-07
1.3147103e-08
5.8613222e-07
1.3128919e-08
5.8470337e-07
1.2862866e-08
5.8338163e-07
1.241843e-08
5.8219274e-07
1.1849371e-08
5.8114339e-07
1.1195682e-08
5.8022994e-07
1.0486375e-08
5.7944348e-07
9.7420056e-09
5.7877287e-07
8.9768035e-09
5.7820664e-07
8.2003711e-09
5.7773398e-07
7.4189766e-09
5.7734526e-07
6.6365248e-09
5.7703229e-07
5.8552778e-09
5.7678836e-07
5.0763922e-09
5.7660825e-07
4.3003282e-09
5.7648815e-07
3.5271747e-09
5.764256e-07
2.7569278e-09
5.7641947e-07
1.9897564e-09
5.7646993e-07
1.2262847e-09
5.765784e-07
4.6792765e-10
5.7674759e-07
-2.826964e-10
5.7698152e-07
-1.0211922e-09
5.7728542e-07
-1.740676e-09
5.7766584e-07
-2.4308177e-09
5.7813015e-07
-3.0766018e-09
5.786865e-07
-3.6566148e-09
5.7934272e-07
-4.1412279e-09
5.80105e-07
-4.4908596e-09
5.8097594e-07
-4.6539088e-09
5.8195042e-07
-4.5682092e-09
5.8300985e-07
-4.1577021e-09
5.8411571e-07
-3.3499168e-09
5.8516485e-07
-2.0636551e-09
5.8504109e-07
-6.2089372e-10
5.6856623e-07
4.0344998e-07
5.3596389e-09
3.5366119e-07
8.1341237e-09
5.7061527e-07
9.6468167e-09
5.8988208e-07
1.0692924e-08
5.8827392e-07
1.1370959e-08
5.8694877e-07
1.1721533e-08
5.8578266e-07
1.1798686e-08
5.8462709e-07
1.1657589e-08
5.8352358e-07
1.1348529e-08
5.8250266e-07
1.0913666e-08
5.8157911e-07
1.0386753e-08
5.8075771e-07
9.7939576e-09
5.8003713e-07
9.155063e-09
5.7941262e-07
8.4847217e-09
5.7887784e-07
7.793592e-09
5.7842596e-07
7.0892959e-09
5.7805041e-07
6.3771969e-09
5.7774524e-07
5.6610206e-09
5.775054e-07
4.943348e-09
5.7732678e-07
4.2260127e-09
5.7720634e-07
3.5104332e-09
5.7714203e-07
2.7979066e-09
5.7713286e-07
2.0898901e-09
5.771788e-07
1.3882941e-09
5.7728085e-07
6.9581536e-10
5.7744093e-07
1.6322849e-11
5.7766187e-07
-6.4466745e-10
5.7794727e-07
-1.2793679e-09
5.783014e-07
-1.8770458e-09
5.7872868e-07
-2.4230975e-09
5.792334e-07
-2.8982339e-09
5.7981871e-07
-3.2776046e-09
5.8048523e-07
-3.5299598e-09
5.8122915e-07
-3.6180592e-09
5.8203938e-07
-3.5011747e-09
5.8289382e-07
-3.1380556e-09
5.8375345e-07
-2.4957736e-09
5.8452343e-07
-1.5636933e-09
5.8410987e-07
-5.1998518e-10
5.6752338e-07
4.0293085e-07
5.2384081e-09
3.5309027e-07
7.6721268e-09
5.6946326e-07
8.8360284e-09
5.8874017e-07
9.6753992e-09
5.8741727e-07
1.0259749e-08
5.8636403e-07
1.0598411e-08
5.8544497e-07
1.0717537e-08
5.8450884e-07
1.06512e-08
5.8359077e-07
1.0434128e-08
5.8272058e-07
1.0097943e-08
5.8191614e-07
9.669756e-09
5.8118675e-07
9.1718744e-09
5.8053586e-07
8.6221297e-09
5.7996322e-07
8.0344756e-09
5.7946634e-07
7.4196547e-09
5.7904164e-07
6.7858401e-09
5.7868508e-07
6.1392082e-09
5.7839273e-07
5.4844318e-09
5.7816102e-07
4.8250978e-09
5.7798697e-07
4.164063e-09
5.7786823e-07
3.503765e-09
5.7780319e-07
2.8465046e-09
5.7779097e-07
2.1947182e-09
5.7783144e-07
1.5512559e-09
5.7792516e-07
9.1968301e-10
5.7807335e-07
3.0462095e-10
5.7827778e-07
-2.8787698e-10
5.7854062e-07
-8.4987001e-10
5.7886424e-07
-1.371048e-09
5.7925071e-07
-1.8382221e-09
5.7970143e-07
-2.2348626e-09
5.802162e-07
-2.5409125e-09
5.8079213e-07
-2.7328896e-09
5.8142198e-07
-2.785116e-09
5.8209246e-07
-2.6721303e-09
5.8278169e-07
-2.3734762e-09
5.8345565e-07
-1.8760087e-09
5.8402682e-07
-1.1837455e-09
5.8341846e-07
-4.0682793e-10
5.6674732e-07
4.0252488e-07
5.121123e-09
3.5262996e-07
7.3017372e-09
5.6855795e-07
8.2216467e-09
5.8784627e-07
8.8939129e-09
5.8672934e-07
9.3846937e-09
5.8587294e-07
9.6899042e-09
5.851407e-07
9.8203668e-09
5.8437924e-07
9.7961675e-09
5.8361582e-07
9.6404541e-09
5.8287714e-07
9.3761915e-09
5.8218126e-07
9.0244146e-09
5.8153938e-07
8.6034324e-09
5.8095769e-07
8.1286462e-09
5.8043885e-07
7.6127027e-09
5.7998314e-07
7.0658134e-09
5.7958937e-07
6.4961377e-09
5.792556e-07
5.9101706e-09
5.7897954e-07
5.3131082e-09
5.7875894e-07
4.7091794e-09
5.7859175e-07
4.1019457e-09
5.7847631e-07
3.494573e-09
5.7841141e-07
2.8900859e-09
5.7839631e-07
2.2916138e-09
5.7843076e-07
1.7026384e-09
5.7851499e-07
1.1272513e-09
5.7864959e-07
5.7043117e-10
5.7883545e-07
3.8327147e-11
5.7907357e-07
-4.6138529e-10
5.7936481e-07
-9.1932069e-10
5.797095e-07
-1.3240202e-09
5.8010698e-07
-1.6618333e-09
5.8055487e-07
-1.9171774e-09
5.8104833e-07
-2.0729679e-09
5.8157862e-07
-2.1119345e-09
5.8213228e-07
-2.0188952e-09
5.826895e-07
-1.7845921e-09
5.832222e-07
-1.4060027e-09
5.8364908e-07
-8.8749855e-10
5.8290081e-07
-3.0838796e-10
5.6616906e-07
4.0221734e-07
5.023293e-09
3.5226062e-07
7.0053158e-09
5.6784753e-07
7.7404885e-09
5.8714107e-07
8.2778591e-09
5.8617758e-07
8.6832424e-09
5.854673e-07
8.9467623e-09
5.8487811e-07
9.0712282e-09
5.8425563e-07
9.0678781e-09
5.8362002e-07
8.951719e-09
5.8299415e-07
8.7390256e-09
5.823948e-07
8.4457118e-09
5.8183354e-07
8.086402e-09
5.8131785e-07
7.6740012e-09
5.808521e-07
7.2195851e-09
5.804384e-07
6.7324843e-09
5.8007732e-07
6.2204733e-09
5.7976846e-07
5.6900073e-09
5.7951086e-07
5.1464747e-09
5.7930332e-07
4.5944457e-09
5.7914462e-07
4.0379102e-09
5.7903369e-07
3.4805045e-09
5.7896966e-07
2.9257268e-09
5.7895193e-07
2.3771482e-09
5.7898019e-07
1.8386218e-09
5.7905436e-07
1.3144921e-09
5.7917457e-07
8.0980915e-10
5.7934099e-07
3.3053254e-10
5.795537e-07
-1.1626105e-10
5.7981245e-07
-5.2224128e-10
5.8011633e-07
-8.777559e-10
5.8046335e-07
-1.1718716e-09
5.8084983e-07
-1.3927011e-09
5.8127e-07
-1.5281313e-09
5.817149e-07
-1.5667145e-09
5.8217171e-07
-1.5001847e-09
5.8262382e-07
-1.3249187e-09
5.8304778e-07
-1.0425026e-09
5.8336751e-07
-6.5714332e-10
5.825163e-07
-2.3044982e-10
5.6574322e-07
4.0198774e-07
4.9452236e-09
3.5196411e-07
6.7706884e-09
5.6729103e-07
7.3598416e-09
5.8658529e-07
7.7868199e-09
5.8573726e-07
8.1165752e-09
5.8513732e-07
8.3366662e-09
5.8465893e-07
8.4457401e-09
5.8414741e-07
8.4495576e-09
5.8361705e-07
8.3575689e-09
5.8308698e-07
8.1810819e-09
5.8257213e-07
7.9319159e-09
5.8208355e-07
7.6215244e-09
5.8162908e-07
7.2604872e-09
5.8121398e-07
6.8582681e-09
5.8084146e-07
6.4231557e-09
5.8051328e-07
5.9623191e-09
5.8023014e-07
5.4819313e-09
5.7999209e-07
4.9873279e-09
5.7979876e-07
4.483183e-09
5.7964961e-07
3.9736883e-09
5.7954403e-07
3.4627319e-09
5.7948146e-07
2.9540733e-09
5.7946143e-07
2.4515153e-09
5.7948359e-07
1.9590718e-09
5.7954765e-07
1.4811307e-09
5.7965335e-07
1.0226094e-09
5.7980035e-07
5.8909166e-10
5.7998806e-07
1.8694172e-10
5.8021544e-07
-1.7664347e-10
5.8048076e-07
-4.9367195e-10
5.8078122e-07
-7.555467e-10
5.8111255e-07
-9.5332182e-10
5.8146862e-07
-1.0785304e-09
5.8184095e-07
-1.1240756e-09
5.822181e-07
-1.0855553e-09
5.8258615e-07
-9.6241055e-10
5.8292548e-07
-7.5859724e-10
5.8316455e-07
-4.7834199e-10
5.8223689e-07
-1.6982849e-10
5.6543555e-07
4.0181876e-07
4.8825e-09
3.5172641e-07
6.5846392e-09
5.6685572e-07
7.0568514e-09
5.8614913e-07
7.3926563e-09
5.8538894e-07
7.6562923e-09
5.8487349e-07
7.8343517e-09
5.8448177e-07
7.9233882e-09
5.8405922e-07
7.9258151e-09
5.8361546e-07
7.847341e-09
5.831663e-07
7.6956689e-09
5.8272464e-07
7.4794474e-09
5.8230061e-07
7.2075177e-09
5.8190185e-07
6.8884171e-09
5.8153392e-07
6.5300891e-09
5.8120063e-07
6.1397475e-09
5.8090446e-07
5.7238479e-09
5.8064688e-07
5.2881308e-09
5.8042864e-07
4.8377097e-09
5.8025002e-07
4.377185e-09
5.8011098e-07
3.9107726e-09
5.8001128e-07
3.4424369e-09
5.7995064e-07
2.9760272e-09
5.7992868e-07
2.51541e-09
5.7994505e-07
2.0645986e-09
5.799993e-07
1.6278724e-09
5.8009092e-07
1.2098843e-09
5.8021918e-07
8.1574421e-10
5.8038304e-07
4.5106792e-10
5.8058096e-07
1.2196547e-10
5.808107e-07
-1.6503135e-10
5.8106906e-07
-4.0322313e-10
5.8135158e-07
-5.860457e-10
5.8165229e-07
-7.0775428e-10
5.819635e-07
-7.636139e-10
5.822748e-07
-7.5211598e-10
5.8257549e-07
-6.7442188e-10
5.8284863e-07
-5.3508033e-10
5.8302605e-07
-3.3858452e-10
5.8204123e-07
-1.2201869e-10
5.6521983e-07
4.0169758e-07
4.8312012e-09
3.5153696e-07
6.4353405e-09
5.665166e-07
6.8134323e-09
5.8580913e-07
7.0736794e-09
5.851168e-07
7.2800561e-09
5.8466694e-07
7.419053e-09
5.8434366e-07
7.4862984e-09
5.8399282e-07
7.4822144e-09
5.8362038e-07
7.4100258e-09
5.8323932e-07
7.274861e-09
5.8286064e-07
7.0829646e-09
5.8249334e-07
6.841084e-09
5.8214457e-07
6.556029e-09
5.8181981e-07
6.2343811e-09
5.8152311e-07
5.8823249e-09
5.8125735e-07
5.5055719e-09
5.8102447e-07
5.109351e-09
5.808257e-07
4.6984446e-09
5.8066177e-07
4.2772555e-09
5.80533e-07
3.8498912e-09
5.8043948e-07
3.420259e-09
5.803811e-07
2.9921651e-09
5.8035761e-07
2.569413e-09
5.8036864e-07
2.1558969e-09
5.8041365e-07
1.7556855e-09
5.8049197e-07
1.37309e-09
5.8060261e-07
1.0127066e-09
5.8074426e-07
6.7942443e-10
5.8091508e-07
3.7837861e-10
5.8111258e-07
1.1484343e-10
5.8133343e-07
-1.0597744e-10
5.8157324e-07
-2.792427e-10
5.8182639e-07
-4.0077234e-10
5.8208587e-07
-4.689933e-10
5.8234386e-07
-4.823356e-10
5.8258967e-07
-4.4390157e-10
5.8281103e-07
-3.5750093e-10
5.8294048e-07
-2.2802908e-10
5.819126e-07
-8.3770443e-11
5.6507641e-07
4.0161465e-07
4.7887505e-09
3.5138748e-07
6.3139713e-09
5.6625491e-07
6.6157625e-09
5.8554701e-07
6.8132164e-09
5.8490796e-07
6.970342e-09
5.8450966e-07
7.0739545e-09
5.8424092e-07
7.1194071e-09
5.8394821e-07
7.1059877e-09
5.8363463e-07
7.0353048e-09
5.8331083e-07
6.9106761e-09
5.829861e-07
6.7365525e-09
5.8266829e-07
6.5180375e-09
5.8236392e-07
6.2605168e-09
5.8207816e-07
5.9693918e-09
5.8181507e-07
5.6499064e-09
5.8157767e-07
5.3070473e-09
5.8136816e-07
4.9455027e-09
5.8118808e-07
4.5696633e-09
5.8103844e-07
4.1836526e-09
5.8091984e-07
3.7913779e-09
5.8083259e-07
3.3965922e-09
5.8077672e-07
3.0029622e-09
5.8075208e-07
2.6141367e-09
5.8075829e-07
2.2338102e-09
5.8079481e-07
1.8657768e-09
5.8086083e-07
1.513968e-09
5.8095525e-07
1.1824666e-09
5.8107659e-07
8.754887e-10
5.8122289e-07
5.9731871e-10
5.8139158e-07
3.5219239e-10
5.8157939e-07
1.4410234e-10
5.8178217e-07
-2.3506133e-11
5.8199483e-07
-1.4804689e-10
5.8221125e-07
-2.2793351e-10
5.8242458e-07
-2.6384155e-10
5.8262641e-07
-2.5818527e-10
5.8280621e-07
-2.151808e-10
5.8289831e-07
-1.3962322e-10
5.8183788e-07
-5.2758117e-11
5.6499037e-07
4.0156273e-07
4.7533927e-09
3.5127131e-07
6.2143091e-09
5.660563e-07
6.4536921e-09
5.8534857e-07
6.5987556e-09
5.847519e-07
6.7136637e-09
5.843946e-07
6.7857313e-09
5.8416972e-07
6.810381e-09
5.8392439e-07
6.7862986e-09
5.8365954e-07
6.7140629e-09
5.833839e-07
6.5957359e-09
5.8310525e-07
6.434448e-09
5.8283041e-07
6.2340316e-09
5.8256516e-07
5.9987197e-09
5.823143e-07
5.7329158e-09
5.820817e-07
5.4410298e-09
5.8187038e-07
5.1273724e-09
5.8168264e-07
4.7960961e-09
5.8152018e-07
4.4511736e-09
5.8138419e-07
4.0964027e-09
5.8127544e-07
3.7354308e-09
5.8119439e-07
3.3717909e-09
5.8114119e-07
3.0089442e-09
5.8111575e-07
2.6503234e-09
5.8111774e-07
2.2993723e-09
5.8114659e-07
1.959576e-09
5.8120146e-07
1.6344766e-09
5.8128118e-07
1.3276678e-09
5.8138423e-07
1.0427613e-09
5.8150862e-07
7.8331583e-10
5.8165186e-07
5.527238e-10
5.8181081e-07
3.5404721e-10
5.8198167e-07
1.8979694e-10
5.8215991e-07
6.1660095e-11
5.8234021e-07
-2.9719371e-11
5.8251679e-07
-8.5255055e-11
5.8268278e-07
-1.0746394e-10
5.8282925e-07
-1.0025087e-10
5.8289193e-07
-6.8391202e-11
5.8180685e-07
-2.7422188e-11
5.6495023e-07
4.0153614e-07
4.7237996e-09
3.5118304e-07
6.1318343e-09
5.6590955e-07
6.3197464e-09
5.8520262e-07
6.4209127e-09
5.8464007e-07
6.4996748e-09
5.8431571e-07
6.5438935e-09
5.8412635e-07
6.549233e-09
5.8391988e-07
6.514102e-09
5.8369549e-07
6.4384413e-09
5.8346038e-07
6.3234527e-09
5.8322107e-07
6.1713049e-09
5.8298338e-07
5.9848579e-09
5.8275243e-07
5.7674247e-09
5.8253256e-07
5.5225785e-09
5.8232737e-07
5.2540061e-09
5.8213978e-07
4.9654058e-09
5.8197207e-07
4.6604208e-09
5.8182599e-07
4.3426045e-09
5.8170283e-07
4.0154078e-09
5.8160346e-07
3.6821846e-09
5.8152844e-07
3.3462079e-09
5.8147799e-07
3.010692e-09
5.8145209e-07
2.6788167e-09
5.8145044e-07
2.3537472e-09
5.8147249e-07
2.0386468e-09
5.8151738e-07
1.7366771e-09
5.8158397e-07
1.45098e-09
5.8167075e-07
1.1846367e-09
5.8177579e-07
9.4059834e-10
5.8189672e-07
7.2158421e-10
5.8203065e-07
5.2994419e-10
5.8217413e-07
3.6749025e-10
5.8232319e-07
2.3526279e-10
5.8247326e-07
1.3344712e-10
5.8261943e-07
6.0888015e-11
5.8275616e-07
1.5299566e-11
5.8287566e-07
-6.9464387e-12
5.82915e-07
-1.0624314e-11
5.8181135e-07
-6.4709807e-12
5.6494691e-07
4.0153049e-07
4.698921e-09
3.5111824e-07
6.0631373e-09
5.6580579e-07
6.2082957e-09
5.8510026e-07
6.2725306e-09
5.8456542e-07
6.3203445e-09
5.8426777e-07
6.3401275e-09
5.8410742e-07
6.3278603e-09
5.8393297e-07
6.2818692e-09
5.837423e-07
6.2017167e-09
5.8354135e-07
6.0880238e-09
5.8333558e-07
5.9422645e-09
5.8312996e-07
5.7665613e-09
5.8292895e-07
5.5634995e-09
5.8273644e-07
5.3359695e-09
5.8255572e-07
5.0870412e-09
5.8238952e-07
4.8198692e-09
5.8224006e-07
4.5376263e-09
5.8210905e-07
4.2434613e-09
5.8199781e-07
3.940476e-09
5.8190727e-07
3.6317169e-09
5.8183801e-07
3.3201767e-09
5.8179035e-07
3.0088015e-09
5.8176428e-07
2.7004994e-09
5.8175956e-07
2.3981467e-09
5.8177566e-07
2.1045875e-09
5.8181176e-07
1.8226232e-09
5.8186676e-07
1.5549873e-09
5.819392e-07
1.3043021e-09
5.820273e-07
1.0730146e-09
5.8212883e-07
8.6330804e-10
5.8224117e-07
6.7698867e-10
5.8236127e-07
5.153551e-10
5.8248564e-07
3.7903433e-10
5.826104e-07
2.6789335e-10
5.8273139e-07
1.8076493e-10
5.8284411e-07
1.1555155e-10
5.829417e-07
6.9005554e-11
5.8296237e-07
3.6615142e-11
5.8184456e-07
1.1341587e-11
5.64973e-07
4.0154265e-07
4.6779182e-09
3.5107327e-07
6.0055894e-09
5.6573786e-07
6.1150175e-09
5.8503432e-07
6.1480602e-09
5.8452218e-07
6.169357e-09
5.8424635e-07
6.1677817e-09
5.8410984e-07
6.139652e-09
5.8396192e-07
6.0833248e-09
5.8379944e-07
5.998154e-09
5.8362734e-07
5.884376e-09
5.8345017e-07
5.7429672e-09
5.8327218e-07
5.5754938e-09
5.8309724e-07
5.3839693e-09
5.8292878e-07
5.1707279e-09
5.8276977e-07
4.9383182e-09
5.8262275e-07
4.6894197e-09
5.8248977e-07
4.4267791e-09
5.823725e-07
4.153166e-09
5.8227224e-07
3.8713435e-09
5.821899e-07
3.5840511e-09
5.8212612e-07
3.2939961e-09
5.8208122e-07
3.0038493e-09
5.8205524e-07
2.716243e-09
5.8204798e-07
2.4337667e-09
5.8205895e-07
2.1589577e-09
5.8208738e-07
1.894284e-09
5.8213224e-07
1.6421154e-09
5.8219219e-07
1.4046811e-09
5.8226555e-07
1.1840121e-09
5.8235031e-07
9.818662e-10
5.8244413e-07
7.9963758e-10
5.8254432e-07
6.382555e-10
5.8264784e-07
4.9807059e-10
5.827514e-07
3.7876668e-10
5.8285151e-07
2.7923393e-10
5.8294446e-07
1.9756731e-10
5.8302418e-07
1.309614e-10
5.8302979e-07
7.5505588e-11
5.8190083e-07
2.6768604e-11
5.6502255e-07
4.0157024e-07
4.6601174e-09
3.5104511e-07
5.957137e-09
5.6569999e-07
6.036545e-09
5.8499898e-07
6.0431468e-09
5.8450556e-07
6.0416956e-09
5.8424768e-07
6.0214946e-09
5.8413087e-07
5.9791895e-09
5.8400504e-07
5.9132301e-09
5.8386621e-07
5.8228711e-09
5.837185e-07
5.7081001e-09
5.8356575e-07
5.5695402e-09
5.8341155e-07
5.4083402e-09
5.8325925e-07
5.2260666e-09
5.8311186e-07
5.0246023e-09
5.8297205e-07
4.8060597e-09
5.828421e-07
4.5727071e-09
5.8272393e-07
4.3269114e-09
5.8261911e-07
4.0710936e-09
5.8252886e-07
3.8076971e-09
5.8245411e-07
3.5391649e-09
5.8239546e-07
3.267924e-09
5.8235327e-07
2.996374e-09
5.823276e-07
2.7268771e-09
5.8231829e-07
2.4617467e-09
5.8232489e-07
2.2032321e-09
5.8234671e-07
1.9534976e-09
5.8238279e-07
1.7145927e-09
5.824319e-07
1.4884118e-09
5.8249254e-07
1.2766441e-09
5.8256289e-07
1.080711e-09
5.8264088e-07
9.0169442e-10
5.8272414e-07
7.4025912e-10
5.8281009e-07
5.9657178e-10
5.828959e-07
4.7023225e-10
5.8297866e-07
3.6020658e-10
5.8305529e-07
2.6480805e-10
5.8312039e-07
1.8165261e-10
5.8311375e-07
1.0753383e-10
5.8197576e-07
3.9901373e-11
5.65091e-07
4.0161095e-07
4.6449752e-09
3.5103125e-07
5.9161576e-09
5.6568745e-07
5.9702243e-09
5.8498944e-07
5.954337e-09
5.8451158e-07
5.9333423e-09
5.8426856e-07
5.8969184e-09
5.8416812e-07
5.8420158e-09
5.8406075e-07
5.7672076e-09
5.8394182e-07
5.6717188e-09
5.8381479e-07
5.5553819e-09
5.8368289e-07
5.4185713e-09
5.8354916e-07
5.2621239e-09
5.834165e-07
5.0872574e-09
5.8328753e-07
4.8954906e-09
5.8316462e-07
4.688572e-09
5.8304982e-07
4.4684176e-09
5.8294489e-07
4.2370592e-09
5.8285127e-07
3.9966027e-09
5.8277012e-07
3.7491953e-09
5.8270232e-07
3.4970003e-09
5.8264846e-07
3.2421774e-09
5.8260889e-07
2.9868663e-09
5.8258372e-07
2.7331713e-09
5.8257279e-07
2.4831461e-09
5.8257572e-07
2.2387743e-09
5.8259188e-07
2.0019472e-09
5.8262042e-07
1.7744338e-09
5.8266022e-07
1.5578451e-09
5.8270993e-07
1.3535897e-09
5.8276795e-07
1.1628229e-09
5.8283245e-07
9.8639032e-10
5.8290138e-07
8.2476824e-10
5.8297251e-07
6.7800603e-10
5.8304347e-07
5.4567719e-10
5.8311179e-07
4.2684014e-10
5.8317494e-07
3.2002757e-10
5.8322801e-07
2.2323006e-10
5.8321136e-07
1.338718e-10
5.8206592e-07
5.0848692e-11
5.6517482e-07
4.016626e-07
4.6320515e-09
3.5102961e-07
5.8813572e-09
5.6569636e-07
5.913942e-09
5.8500179e-07
5.8788665e-09
5.8453691e-07
5.841054e-09
5.8430626e-07
5.7905064e-09
5.8421949e-07
5.7244503e-09
5.8412761e-07
5.6415938e-09
5.8402547e-07
5.5411745e-09
5.8391601e-07
5.4229336e-09
5.8380193e-07
5.2870726e-09
5.8368582e-07
5.1341962e-09
5.8357017e-07
4.9652501e-09
5.8345727e-07
4.78146e-09
5.8334921e-07
4.5842723e-09
5.832478e-07
4.3753026e-09
5.8315466e-07
4.1562897e-09
5.8307108e-07
3.9290578e-09
5.8299815e-07
3.6954841e-09
5.8293669e-07
3.4574732e-09
5.8288727e-07
3.2169347e-09
5.8285023e-07
2.9757643e-09
5.8282569e-07
2.7358255e-09
5.8281352e-07
2.4989313e-09
5.8281341e-07
2.2668238e-09
5.8282479e-07
2.0411507e-09
5.8284689e-07
1.8234377e-09
5.8287873e-07
1.6150554e-09
5.8291911e-07
1.4171824e-09
5.8296662e-07
1.2307635e-09
5.8301967e-07
1.0564648e-09
5.8307648e-07
8.9462964e-10
5.8313515e-07
7.4523642e-10
5.8319366e-07
6.0786555e-10
5.8324996e-07
4.8167707e-10
5.8330192e-07
3.6540771e-10
5.8334507e-07
2.5737148e-10
5.8332019e-07
1.5551262e-10
5.8216858e-07
5.9884179e-11
5.6527125e-07
4.0172329e-07
4.620987e-09
3.5103843e-07
5.8516951e-09
5.6572349e-07
5.8659997e-09
5.8503276e-07
5.8145044e-09
5.8457876e-07
5.7621941e-09
5.8435845e-07
5.6993497e-09
5.8428315e-07
5.6234428e-09
5.8420431e-07
5.533317e-09
5.8411639e-07
5.4282476e-09
5.8402187e-07
5.3079276e-09
5.8392304e-07
5.1724398e-09
5.838221e-07
5.0222162e-09
5.8372119e-07
4.8579915e-09
5.8362229e-07
4.6807548e-09
5.8352723e-07
4.4917026e-09
5.8343765e-07
4.2921954e-09
5.8335495e-07
4.0837178e-09
5.8328035e-07
3.8678443e-09
5.8321482e-07
3.6462092e-09