/*--------------------------------*- C++ -*----------------------------------*\
  =========                 |
  \\      /  F ield         | OpenFOAM: The Open Source CFD Toolbox
   \\    /   O peration     | Website:  https://openfoam.org
    \\  /    A nd           | Version:  10
     \\/     M anipulation  |
\*---------------------------------------------------------------------------*/
FoamFile
{
    format      ascii;
    class       volVectorField;
    location    "0.01";
    object      U;
}
// * * * * * * * * * * * * * * * * * * * * * * * * * * * * * * * * * * * * * //

dimensions      [0 1 -1 0 0 0 0];

internalField   nonuniform List<vector> 
4000
(
(0 0.018342484 0.47855778)
(0 0.022366724 0.50817152)
(0 0.0069643819 0.50051632)
(0 0.0050239994 0.50036595)
(0 0.0037373157 0.50024182)
(0 0.0028225726 0.50014895)
(0 0.0022184068 0.5001038)
(0 0.0017936109 0.50007713)
(0 0.0014757803 0.50005933)
(0 0.0012284135 0.50004717)
(0 0.0010294916 0.50003862)
(0 0.00086484741 0.50003245)
(0 0.00072509186 0.5000279)
(0 0.00060376798 0.50002449)
(0 0.00049627888 0.50002192)
(0 0.00039924539 0.50001998)
(0 0.00031010293 0.50001851)
(0 0.00022683666 0.50001744)
(0 0.00014779929 0.50001668)
(0 7.1592065e-05 0.50001622)
(0 -3.0245607e-06 0.50001601)
(0 -7.7231442e-05 0.50001604)
(0 -0.00015220461 0.50001633)
(0 -0.00022917661 0.50001691)
(0 -0.00030953459 0.5000178)
(0 -0.00039491447 0.50001908)
(0 -0.00048733612 0.50002085)
(0 -0.0005894083 0.50002326)
(0 -0.00070463112 0.50002653)
(0 -0.00083788299 0.50003103)
(0 -0.00099623219 0.50003733)
(0 -0.0011903388 0.50004635)
(0 -0.0014368736 0.50005965)
(0 -0.0017636339 0.50007983)
(0 -0.0022249949 0.50011406)
(0 -0.0029216894 0.50018357)
(0 -0.0039306418 0.50028496)
(0 -0.0054975419 0.50042706)
(0 -0.016533054 0.50616997)
(0 -0.013195845 0.48046112)
(0 0.035345509 0.45169216)
(0 0.046688205 0.5302403)
(0 0.018545506 0.50751677)
(0 0.014183535 0.50348694)
(0 0.010675722 0.50218232)
(0 0.0081332626 0.50139872)
(0 0.0064552246 0.50097991)
(0 0.0052416112 0.50072516)
(0 0.004319506 0.50055803)
(0 0.0035953468 0.50044458)
(0 0.0030084188 0.50036488)
(0 0.0025194651 0.5003073)
(0 0.0021022635 0.50026479)
(0 0.0017385827 0.50023293)
(0 0.0014153243 0.50020881)
(0 0.0011227785 0.50019052)
(0 0.00085351598 0.50017674)
(0 0.00060166381 0.50016659)
(0 0.00036237066 0.50015948)
(0 0.00013152793 0.50015505)
(0 -9.4539099e-05 0.50015302)
(0 -0.00031935576 0.50015334)
(0 -0.00054639409 0.50015607)
(0 -0.00077931375 0.50016144)
(0 -0.0010222032 0.50016981)
(0 -0.0012798489 0.5001818)
(0 -0.0015581241 0.50019832)
(0 -0.0018645444 0.50022079)
(0 -0.0022090958 0.50025132)
(0 -0.0026055585 0.5002932)
(0 -0.0030736533 0.50035171)
(0 -0.0036428189 0.50043557)
(0 -0.0043586875 0.50055989)
(0 -0.0052926261 0.50075116)
(0 -0.0065741393 0.50106687)
(0 -0.0084957659 0.50165694)
(0 -0.011212581 0.50268171)
(0 -0.014459057 0.50567788)
(0 -0.034728131 0.52330748)
(0 -0.025720759 0.45370758)
(0 0.034874249 0.41886874)
(0 0.052660678 0.54601758)
(0 0.026002402 0.51973547)
(0 0.02111299 0.50936226)
(0 0.016399754 0.50579714)
(0 0.012878559 0.50385868)
(0 0.010446193 0.50274882)
(0 0.0085928665 0.50204909)
(0 0.0071460042 0.50158708)
(0 0.0059873125 0.50127118)
(0 0.0050333167 0.50104769)
(0 0.0042288557 0.50088531)
(0 0.0035358381 0.50076489)
(0 0.00292708 0.50067423)
(0 0.0023826586 0.50060537)
(0 0.0018875526 0.50055297)
(0 0.0014300961 0.50051341)
(0 0.0010009551 0.50048421)
(0 0.00059234462 0.50046369)
(0 0.00019760557 0.50045086)
(0 -0.00018926732 0.50044496)
(0 -0.00057402156 0.50044585)
(0 -0.00096231773 0.5004537)
(0 -0.0013601302 0.50046909)
(0 -0.0017740695 0.50049308)
(0 -0.0022117828 0.50052738)
(0 -0.0026825718 0.50057454)
(0 -0.0031981233 0.50063845)
(0 -0.0037737068 0.50072494)
(0 -0.0044299632 0.50084308)
(0 -0.0051956114 0.50100709)
(0 -0.0061119996 0.5012405)
(0 -0.0072413335 0.5015836)
(0 -0.0086738773 0.502107)
(0 -0.010538707 0.50294152)
(0 -0.013190771 0.50439873)
(0 -0.016836013 0.50710871)
(0 -0.020162848 0.51463139)
(0 -0.039020596 0.53549656)
(0 -0.025544963 0.42406104)
(0 0.026111428 0.38096782)
(0 0.048787128 0.55006507)
(0 0.029887209 0.53157409)
(0 0.02568484 0.51614053)
(0 0.020788231 0.51022369)
(0 0.017094514 0.5071238)
(0 0.014328097 0.50521189)
(0 0.012077149 0.50395465)
(0 0.010252487 0.50310618)
(0 0.0087451083 0.5025148)
(0 0.0074733308 0.5020903)
(0 0.006380293 0.50177843)
(0 0.0054241052 0.50154507)
(0 0.0045735497 0.50136811)
(0 0.0038049664 0.50123289)
(0 0.0031000169 0.5011295)
(0 0.0024441323 0.50105114)
(0 0.0018254326 0.50099311)
(0 0.0012338809 0.50095224)
(0 0.00066076522 0.50092653)
(0 9.8156148e-05 0.5009147)
(0 -0.00046152461 0.50091638)
(0 -0.0010257641 0.50093191)
(0 -0.0016024226 0.50096237)
(0 -0.0022001151 0.5010098)
(0 -0.0028286577 0.5010774)
(0 -0.0034998019 0.50116999)
(0 -0.004227949 0.50129481)
(0 -0.0050313993 0.50146255)
(0 -0.0059340792 0.50168967)
(0 -0.0069677943 0.50200143)
(0 -0.0081754176 0.50243861)
(0 -0.0096172997 0.50306836)
(0 -0.011376741 0.50400626)
(0 -0.01352464 0.50544121)
(0 -0.016318115 0.50776095)
(0 -0.020137149 0.51211436)
(0 -0.022768352 0.52302527)
(0 -0.035258551 0.53799909)
(0 -0.018690249 0.3926762)
(0 0.015689358 0.35070056)
(0 0.039768666 0.54489043)
(0 0.03046379 0.53872742)
(0 0.027957909 0.52164496)
(0 0.023713418 0.51432587)
(0 0.020475559 0.51046976)
(0 0.017776945 0.50791729)
(0 0.015433408 0.50616323)
(0 0.013446985 0.50493902)
(0 0.011740914 0.50406161)
(0 0.010257398 0.50341851)
(0 0.0089514127 0.50293835)
(0 0.0077863462 0.50257445)
(0 0.0067331547 0.5022957)
(0 0.0057686862 0.502081)
(0 0.0048742607 0.50191577)
(0 0.0040345565 0.5017899)
(0 0.0032367479 0.50169632)
(0 0.0024697936 0.50163019)
(0 0.0017239423 0.50158839)
(0 0.00099022688 0.50156905)
(0 0.00026005824 0.50157156)
(0 -0.00047506958 0.50159641)
(0 -0.0012240056 0.50164525)
(0 -0.0019963402 0.50172118)
(0 -0.0028027952 0.501829)
(0 -0.0036558876 0.50197591)
(0 -0.0045704822 0.50217254)
(0 -0.0055647192 0.50243428)
(0 -0.0066611437 0.50278429)
(0 -0.0078878554 0.5032571)
(0 -0.0092793525 0.50390625)
(0 -0.01087803 0.50481511)
(0 -0.012741956 0.50612134)
(0 -0.014883885 0.50803509)
(0 -0.017366128 0.51090858)
(0 -0.020716968 0.51610259)
(0 -0.022234069 0.52773344)
(0 -0.027089245 0.53273627)
(0 -0.010135229 0.3685573)
(0 0.0075528938 0.33321683)
(0 0.028686172 0.53521)
(0 0.027790361 0.54025961)
(0 0.027550458 0.52482285)
(0 0.024611551 0.51740017)
(0 0.022208694 0.51329493)
(0 0.0199092 0.51041088)
(0 0.01777586 0.50834266)
(0 0.015869328 0.50684108)
(0 0.014158546 0.50573004)
(0 0.012620167 0.50489535)
(0 0.011228827 0.50425979)
(0 0.0099600981 0.50377057)
(0 0.0087925065 0.50339118)
(0 0.0077075091 0.5030961)
(0 0.006689216 0.50286725)
(0 0.0057239735 0.50269182)
(0 0.0047999238 0.50256074)
(0 0.0039065749 0.50246773)
(0 0.0030344518 0.50240865)
(0 0.0021747289 0.50238108)
(0 0.0013189129 0.50238417)
(0 0.00045858339 0.50241854)
(0 -0.00041492083 0.50248634)
(0 -0.0013108267 0.50259154)
(0 -0.002239192 0.50274032)
(0 -0.0032113392 0.50294176)
(0 -0.0042401119 0.503209)
(0 -0.0053402975 0.50356074)
(0 -0.0065288437 0.50402406)
(0 -0.0078247654 0.50463801)
(0 -0.00924814 0.50546033)
(0 -0.010816129 0.50657561)
(0 -0.012549866 0.50811437)
(0 -0.014427985 0.51027404)
(0 -0.016321936 0.51332671)
(0 -0.018665715 0.5184084)
(0 -0.018909294 0.52836348)
(0 -0.017552241 0.52394263)
(0 -0.0034460564 0.35496064)
(0 0.003198263 0.32521234)
(0 0.018713297 0.52485786)
(0 0.022939642 0.53761527)
(0 0.02462666 0.52574767)
(0 0.023230398 0.51924012)
(0 0.021795437 0.51530851)
(0 0.020111991 0.51240189)
(0 0.018408137 0.5102269)
(0 0.016777351 0.50858263)
(0 0.015238526 0.50732633)
(0 0.013801533 0.50635759)
(0 0.012462357 0.50560408)
(0 0.011211689 0.50501402)
(0 0.010038465 0.50455009)
(0 0.0089313092 0.50418522)
(0 0.0078793212 0.50389972)
(0 0.0068723627 0.5036793)
(0 0.0059010991 0.50351364)
(0 0.0049569118 0.50339548)
(0 0.0040317664 0.50331999)
(0 0.0031180372 0.50328433)
(0 0.0022083303 0.50328744)
(0 0.0012953231 0.50333002)
(0 0.00037159048 0.50341454)
(0 -0.00057056601 0.5035455)
(0 -0.0015392249 0.50372988)
(0 -0.0025429864 0.50397778)
(0 -0.0035908599 0.50430344)
(0 -0.0046921916 0.50472668)
(0 -0.0058560409 0.5052751)
(0 -0.0070899551 0.50598699)
(0 -0.0083978636 0.5069161)
(0 -0.0097729912 0.50813702)
(0 -0.011196578 0.50975438)
(0 -0.012623794 0.51192592)
(0 -0.013826326 0.51484882)
(0 -0.014957719 0.51918229)
(0 -0.014164112 0.52624635)
(0 -0.009547581 0.51517653)
(0 -1.8513945e-05 0.34905462)
(0 0.0019394041 0.32189538)
(0 0.011964696 0.51622911)
(0 0.01769082 0.5330742)
(0 0.020374576 0.52507589)
(0 0.020251108 0.51994542)
(0 0.019682507 0.51648329)
(0 0.018663998 0.51378934)
(0 0.017469932 0.511679)
(0 0.016212447 0.5100194)
(0 0.014949771 0.50871093)
(0 0.013716285 0.50767506)
(0 0.012526539 0.5068516)
(0 0.011385418 0.50619514)
(0 0.010292284 0.50567138)
(0 0.0092434785 0.50525449)
(0 0.0082338454 0.5049251)
(0 0.0072575632 0.50466874)
(0 0.0063086006 0.50447478)
(0 0.0053809406 0.5043356)
(0 0.0044686758 0.50424604)
(0 0.0035660243 0.50420304)
(0 0.0026673081 0.50420543)
(0 0.0017669212 0.50425388)
(0 0.00085930224 0.50435093)
(0 -6.1072011e-05 0.50450123)
(0 -0.00099962394 0.50471188)
(0 -0.0019615491 0.50499301)
(0 -0.0029513856 0.50535846)
(0 -0.0039725346 0.5058272)
(0 -0.0050261019 0.50642439)
(0 -0.0061088707 0.50718355)
(0 -0.0072104768 0.50814913)
(0 -0.0083064994 0.50937949)
(0 -0.0093485291 0.51094763)
(0 -0.010270175 0.51295457)
(0 -0.010846476 0.51552785)
(0 -0.010983356 0.51889232)
(0 -0.0096346673 0.52306801)
(0 -0.0045502842 0.50833576)
(0 0.00084314185 0.34685423)
(0 0.0021669372 0.32042176)
(0 0.0085402681 0.51017442)
(0 0.013423508 0.52852364)
(0 0.016241446 0.52358548)
(0 0.016860518 0.5198024)
(0 0.016905589 0.51695701)
(0 0.016441057 0.51461337)
(0 0.015706571 0.51268512)
(0 0.014817794 0.511109)
(0 0.013850533 0.50982661)
(0 0.012852165 0.50878426)
(0 0.011849927 0.50793732)
(0 0.01085925 0.50724973)
(0 0.0098879041 0.50669276)
(0 0.0089389044 0.50624385)
(0 0.0080123512 0.50588545)
(0 0.0071065804 0.5056041)
(0 0.0062188894 0.50538965)
(0 0.0053459869 0.5052347)
(0 0.0044842712 0.50513416)
(0 0.003630003 0.50508494)
(0 0.0027794201 0.50508584)
(0 0.0019288293 0.50513742)
(0 0.0010747037 0.50524208)
(0 0.00021381804 0.50540421)
(0 -0.00065653363 0.50563046)
(0 -0.0015383348 0.50593015)
(0 -0.0024319167 0.50631562)
(0 -0.0033355357 0.50680341)
(0 -0.0042439964 0.50741437)
(0 -0.0051460581 0.50817504)
(0 -0.0060216114 0.50911818)
(0 -0.0068366294 0.5102835)
(0 -0.0075312928 0.51171436)
(0 -0.0080272887 0.5134562)
(0 -0.0081548705 0.51556767)
(0 -0.00772364 0.51802903)
(0 -0.006268641 0.52003874)
(0 -0.0022314081 0.50375858)
(0 0.0005670899 0.34593254)
(0 0.002646427 0.3195808)
(0 0.0072395101 0.50634238)
(0 0.010564605 0.52490506)
(0 0.013058018 0.52190707)
(0 0.013945573 0.51918548)
(0 0.014330328 0.5169531)
(0 0.014235358 0.51500096)
(0 0.013842082 0.51331536)
(0 0.013253258 0.51188467)
(0 0.01254247 0.51068335)
(0 0.011759734 0.50968095)
(0 0.010937958 0.50884847)
(0 0.010098431 0.50816012)
(0 0.0092543822 0.5075939)
(0 0.0084136134 0.50713162)
(0 0.0075802895 0.50675854)
(0 0.0067561602 0.506463)
(0 0.0059413943 0.50623595)
(0 0.0051351482 0.50607064)
(0 0.0043359576 0.50596237)
(0 0.0035420166 0.50590823)
(0 0.0027513921 0.50590699)
(0 0.0019622087 0.50595909)
(0 0.0011728382 0.50606662)
(0 0.00038212602 0.50623342)
(0 -0.00041025826 0.50646527)
(0 -0.0012036406 0.50677008)
(0 -0.0019951224 0.50715818)
(0 -0.0027792766 0.50764256)
(0 -0.0035467967 0.50823913)
(0 -0.0042819938 0.50896675)
(0 -0.0049605154 0.50984655)
(0 -0.0055460441 0.51090076)
(0 -0.0059824007 0.51214883)
(0 -0.0061949488 0.51359745)
(0 -0.0060714108 0.5152496)
(0 -0.0054420215 0.51700004)
(0 -0.0041435668 0.51768666)
(0 -0.0014128744 0.50092536)
(0 0.00016301336 0.34535182)
(0 0.0029194514 0.31889138)
(0 0.0068270553 0.50392137)
(0 0.0088465553 0.52232991)
(0 0.010905242 0.52039834)
(0 0.011781742 0.51841595)
(0 0.012301723 0.51669652)
(0 0.012409623 0.5151079)
(0 0.012236657 0.51367571)
(0 0.011862677 0.5124163)
(0 0.011349024 0.51132647)
(0 0.010741504 0.51039382)
(0 0.010072934 0.50960258)
(0 0.0093663616 0.50893639)
(0 0.0086376064 0.50837997)
(0 0.0078972595 0.50791978)
(0 0.0071521722 0.50754433)
(0 0.0064065601 0.5072441)
(0 0.0056628086 0.50701155)
(0 0.0049220622 0.50684087)
(0 0.0041846594 0.50672794)
(0 0.0034504664 0.50667014)
(0 0.0027191477 0.50666631)
(0 0.0019904094 0.50671673)
(0 0.0012642441 0.50682307)
(0 0.00054119905 0.50698848)
(0 -0.00017721902 0.50721762)
(0 -0.00088828456 0.50751671)
(0 -0.0015870691 0.5078938)
(0 -0.002265988 0.50835818)
(0 -0.0029136185 0.50892088)
(0 -0.0035129839 0.50959365)
(0 -0.0040398951 0.51038786)
(0 -0.0044607996 0.51131228)
(0 -0.0047297295 0.51236967)
(0 -0.0047866399 0.51354719)
(0 -0.0045610222 0.51481629)
(0 -0.0039417656 0.51606009)
(0 -0.0028867708 0.51603212)
(0 -0.0011254636 0.49915094)
(0 -4.1181687e-05 0.34483918)
(0 0.0029977264 0.3182196)
(0 0.0066264055 0.50224384)
(0 0.0078191658 0.52052309)
(0 0.0094963299 0.51916311)
(0 0.010248353 0.5176733)
(0 0.010786389 0.51634588)
(0 0.010985735 0.5150635)
(0 0.010942122 0.51386441)
(0 0.010711251 0.5127761)
(0 0.010340235 0.51180826)
(0 0.0098674821 0.51096041)
(0 0.0093224024 0.51022648)
(0 0.0087270836 0.50959779)
(0 0.008097779 0.50906487)
(0 0.0074462241 0.50861852)
(0 0.0067807368 0.50825038)
(0 0.0061071001 0.50795325)
(0 0.0054292549 0.50772114)
(0 0.0047498395 0.50754937)
(0 0.004070614 0.50743447)
(0 0.0033928032 0.50737421)
(0 0.0027173879 0.50736754)
(0 0.0020453708 0.50741455)
(0 0.0013780455 0.5075165)
(0 0.0007172768 0.50767576)
(0 6.5861823e-05 0.50789582)
(0 -0.00057207938 0.50818124)
(0 -0.0011904883 0.50853765)
(0 -0.0017808628 0.50897121)
(0 -0.0023312852 0.50948857)
(0 -0.0028255127 0.51009578)
(0 -0.0032418766 0.51079696)
(0 -0.0035521592 0.51159226)
(0 -0.003721178 0.51247446)
(0 -0.0037059732 0.51342354)
(0 -0.0034636134 0.51440066)
(0 -0.002933644 0.51529656)
(0 -0.0021129583 0.51488066)
(0 -0.00093475185 0.4979399)
(0 -8.9473986e-05 0.34435017)
(0 0.0029935138 0.31759872)
(0 0.0064290148 0.50096569)
(0 0.007146406 0.51919516)
(0 0.0085305524 0.5181741)
(0 0.0091354096 0.5170184)
(0 0.0096372862 0.51598308)
(0 0.0098651003 0.5149483)
(0 0.0098917838 0.5139507)
(0 0.0097528698 0.51302009)
(0 0.0094827895 0.51217235)
(0 0.0091119219 0.51141386)
(0 0.008664993 0.51074503)
(0 0.0081617155 0.51016281)
(0 0.0076174396 0.50966234)
(0 0.0070439058 0.50923807)
(0 0.0064499722 0.50888446)
(0 0.0058422552 0.5085964)
(0 0.0052256744 0.50836947)
(0 0.0046039064 0.50820007)
(0 0.0039797633 0.50808547)
(0 0.0033555141 0.50802383)
(0 0.0027331673 0.50801423)
(0 0.0021147345 0.50805661)
(0 0.0015024937 0.50815179)
(0 0.00089926088 0.50830141)
(0 0.00030871043 0.50850787)
(0 -0.00026429612 0.5087742)
(0 -0.00081319143 0.50910387)
(0 -0.0013293528 0.50950045)
(0 -0.0018014666 0.50996711)
(0 -0.0022150437 0.51050575)
(0 -0.0025517363 0.51111567)
(0 -0.0027892639 0.51179201)
(0 -0.0029018028 0.51252286)
(0 -0.0028607098 0.51328651)
(0 -0.0026410317 0.51404561)
(0 -0.0022142136 0.5146994)
(0 -0.0015870119 0.51404576)
(0 -0.00074686242 0.49704418)
(0 -8.1089619e-05 0.34392093)
(0 0.0029722099 0.31707508)
(0 0.0062263658 0.49995627)
(0 0.0066530709 0.51817175)
(0 0.0078188138 0.51738009)
(0 0.0082891841 0.51645979)
(0 0.0087351787 0.51564306)
(0 0.0089587336 0.51480571)
(0 0.0090194155 0.51397754)
(0 0.0089378887 0.51318664)
(0 0.0087384279 0.51245082)
(0 0.0084441097 0.51177993)
(0 0.0080748749 0.51117836)
(0 0.0076475201 0.51064688)
(0 0.0071757967 0.51018404)
(0 0.0066707517 0.50978717)
(0 0.0061411462 0.50945305)
(0 0.0055938793 0.50917842)
(0 0.005034385 0.50896024)
(0 0.0044669884 0.50879594)
(0 0.0038952209 0.50868347)
(0 0.0033221017 0.50862139)
(0 0.0027503936 0.50860892)
(0 0.0021828454 0.50864587)
(0 0.0016224318 0.50873268)
(0 0.0010725988 0.50887033)
(0 0.00053753454 0.50906026)
(0 2.2421011e-05 0.50930417)
(0 -0.00046615578 0.50960386)
(0 -0.00091998976 0.50996075)
(0 -0.0013288669 0.51037551)
(0 -0.0016804171 0.51084718)
(0 -0.0019597585 0.51137222)
(0 -0.0021499328 0.51194302)
(0 -0.0022326907 0.51254641)
(0 -0.0021896875 0.51316151)
(0 -0.0020073283 0.51375644)
(0 -0.0016739907 0.51423714)
(0 -0.0011979216 0.51341953)
(0 -0.00057383246 0.49636609)
(0 -6.4612609e-05 0.34358072)
(0 0.0029531865 0.31665159)
(0 0.0060454242 0.49915841)
(0 0.0062672737 0.51736552)
(0 0.0072671227 0.51674148)
(0 0.0076234275 0.5159922)
(0 0.0080097124 0.51534058)
(0 0.008213015 0.5146598)
(0 0.0082857443 0.51397211)
(0 0.0082383174 0.51330216)
(0 0.008087403 0.51266732)
(0 0.0078500454 0.51207873)
(0 0.0075418613 0.51154295)
(0 0.0071767048 0.51106316)
(0 0.0067664587 0.51064028)
(0 0.0063210993 0.51027378)
(0 0.0058488874 0.50996227)
(0 0.005356617 0.509704)
(0 0.0048498821 0.50949711)
(0 0.0043333384 0.50933992)
(0 0.0038109518 0.509231)
(0 0.003286231 0.50916928)
(0 0.0027624459 0.50915411)
(0 0.0022428388 0.50918523)
(0 0.0017308304 0.50926274)
(0 0.0012302285 0.50938707)
(0 0.00074544445 0.50955886)
(0 0.00028169551 0.50977876)
(0 -0.00015474659 0.51004725)
(0 -0.00055639721 0.5103642)
(0 -0.0009143346 0.51072853)
(0 -0.0012182779 0.51113747)
(0 -0.0014565768 0.51158596)
(0 -0.0016166048 0.51206532)
(0 -0.0016858403 0.51256267)
(0 -0.0016528788 0.51305959)
(0 -0.0015110598 0.51352967)
(0 -0.0012567861 0.51388422)
(0 -0.00089794912 0.51294721)
(0 -0.00043078435 0.49585772)
(0 -5.1296354e-05 0.34332411)
(0 0.0029380014 0.31630974)
(0 0.0058978773 0.49852925)
(0 0.0059606528 0.51672671)
(0 0.0068303026 0.51622851)
(0 0.0070910157 0.51560641)
(0 0.0074200819 0.51508097)
(0 0.0075960225 0.51452436)
(0 0.0076677077 0.51395226)
(0 0.0076387106 0.51338546)
(0 0.0075202558 0.51283978)
(0 0.0073246803 0.51232636)
(0 0.0070639562 0.51185266)
(0 0.0067492486 0.51142325)
(0 0.0063905648 0.51104058)
(0 0.0059966559 0.51070562)
(0 0.0055750553 0.51041834)
(0 0.0051321976 0.51017816)
(0 0.0046735803 0.5099842)
(0 0.0042039433 0.5098355)
(0 0.0037274541 0.50973118)
(0 0.0032478897 0.50967048)
(0 0.0027688149 0.50965289)
(0 0.0022937563 0.50967808)
(0 0.0018263718 0.50974591)
(0 0.0013706181 0.50985638)
(0 0.00093091541 0.51000949)
(0 0.00051229868 0.51020508)
(0 0.0001205644 0.51044267)
(0 -0.00023765163 0.51072107)
(0 -0.00055477579 0.51103809)
(0 -0.00082241332 0.51138992)
(0 -0.0010316086 0.51177082)
(0 -0.0011732316 0.5121722)
(0 -0.0012387574 0.51258208)
(0 -0.0012213359 0.51298509)
(0 -0.0011185042 0.51335921)
(0 -0.0009303326 0.51362022)
(0 -0.00066401172 0.51259458)
(0 -0.00031881374 0.49548165)
(0 -4.0942999e-05 0.34313181)
(0 0.0029250749 0.31603273)
(0 0.0057807796 0.49803288)
(0 0.0057166885 0.51622049)
(0 0.0064817339 0.5158176)
(0 0.0066620304 0.51529191)
(0 0.0069386033 0.51486422)
(0 0.0070847401 0.51440657)
(0 0.0071477883 0.51392934)
(0 0.0071268047 0.51344977)
(0 0.0070292124 0.5129817)
(0 0.0068637911 0.51253561)
(0 0.0066395728 0.51211906)
(0 0.0063654059 0.51173728)
(0 0.0060495629 0.51139362)
(0 0.0056995601 0.51109001)
(0 0.0053221036 0.51082742)
(0 0.0049231192 0.51060612)
(0 0.0045078346 0.51042598)
(0 0.0040808929 0.51028662)
(0 0.0036464816 0.51018761)
(0 0.0032084681 0.51012846)
(0 0.002770538 0.51010878)
(0 0.0023363314 0.51012821)
(0 0.0019095766 0.51018643)
(0 0.0014942179 0.5102831)
(0 0.0010945347 0.51041777)
(0 0.00071524356 0.5105897)
(0 0.00036158229 0.51079775)
(0 3.9330013e-05 0.51104004)
(0 -0.00024520322 0.51131373)
(0 -0.00048528548 0.51161461)
(0 -0.00067406597 0.51193675)
(0 -0.00080514603 0.51227221)
(0 -0.00087272142 0.5126102)
(0 -0.00087296028 0.51293829)
(0 -0.00080574748 0.51323781)
(0 -0.00067291011 0.51342809)
(0 -0.00048084849 0.5123362)
(0 -0.00023182433 0.4952077)
(0 -3.2280115e-05 0.34298869)
(0 0.0029135597 0.3158087)
(0 0.0056869125 0.49764153)
(0 0.0055215747 0.51582051)
(0 0.0062016349 0.51549046)
(0 0.0063141621 0.51503891)
(0 0.0065437021 0.51468782)
(0 0.0066601449 0.51430951)
(0 0.0067104517 0.51391022)
(0 0.0066907217 0.51350408)
(0 0.0066057674 0.51310299)
(0 0.0064617349 0.51271639)
(0 0.0062653499 0.51235154)
(0 0.0060235374 0.51201383)
(0 0.0057430437 0.51170702)
(0 0.0054302257 0.51143367)
(0 0.0050909478 0.51119537)
(0 0.0047305548 0.510993)
(0 0.0043538988 0.51082697)
(0 0.0039654013 0.51069738)
(0 0.0035691359 0.51060411)
(0 0.003168924 0.51054692)
(0 0.0027684358 0.51052552)
(0 0.0023712929 0.51053953)
(0 0.0019811671 0.51058852)
(0 0.0016018743 0.51067192)
(0 0.0012374546 0.51078895)
(0 0.00089223571 0.51093852)
(0 0.00057086943 0.51111903)
(0 0.00027832112 0.51132823)
(0 1.9801892e-05 0.51156298)
(0 -0.00019936594 0.51181898)
(0 -0.00037394524 0.51209054)
(0 -0.00049969207 0.51237046)
(0 -0.00057245846 0.51264958)
(0 -0.00059052553 0.51291745)
(0 -0.00055500045 0.51315856)
(0 -0.00046835661 0.51329448)
(0 -0.00033638632 0.51215283)
(0 -0.00016321403 0.49501345)
(0 -2.4725469e-05 0.34288492)
(0 0.0029033276 0.31562837)
(0 0.0056103311 0.49733417)
(0 0.0053639268 0.5155063)
(0 0.0059744962 0.51523269)
(0 0.0060299297 0.51483885)
(0 0.0062179857 0.51454835)
(0 0.0063062664 0.514234)
(0 0.00634197 0.51389884)
(0 0.0063192764 0.51355441)
(0 0.0062412385 0.51321078)
(0 0.006112084 0.51287628)
(0 0.0059367657 0.51255762)
(0 0.0057206524 0.51226002)
(0 0.0054691908 0.5119874)
(0 0.0051876972 0.5117426)
(0 0.0048812321 0.51152758)
(0 0.0045545415 0.51134366)
(0 0.0042120465 0.51119161)
(0 0.0038578677 0.51107186)
(0 0.0034958727 0.51098454)
(0 0.0031297376 0.51092961)
(0 0.0027630168 0.51090686)
(0 0.0023992152 0.51091592)
(0 0.0020418579 0.51095628)
(0 0.0016945536 0.51102724)
(0 0.0013610457 0.51112782)
(0 0.001045244 0.51125668)
(0 0.00075123054 0.51141202)
(0 0.00048322702 0.51159139)
(0 0.00024551121 0.5117916)
(0 4.2257047e-05 0.51200849)
(0 -0.00012258713 0.51223681)
(0 -0.00024609311 0.51247009)
(0 -0.00032558493 0.51270094)
(0 -0.00036060178 0.51292011)
(0 -0.00035264378 0.51311525)
(0 -0.00030452793 0.51320892)
(0 -0.00022135465 0.51202965)
(0 -0.00010826201 0.49488221)
(0 -1.8164935e-05 0.34281303)
(0 0.0028943782 0.31548429)
(0 0.0055470865 0.49709467)
(0 0.0052351731 0.51526172)
(0 0.0057885654 0.51503255)
(0 0.0057958706 0.5146842)
(0 0.0059477014 0.51444205)
(0 0.0060100625 0.51417957)
(0 0.0060307027 0.51389732)
(0 0.0060025676 0.5136047)
(0 0.0059275481 0.51331018)
(0 0.0058084943 0.51302101)
(0 0.0056490171 0.51274322)
(0 0.005453249 0.51248172)
(0 0.0052255565 0.51224035)
(0 0.0049703489 0.51202203)
(0 0.0046919503 0.51182893)
(0 0.0043945246 0.5116626)
(0 0.0040820431 0.51152406)
(0 0.0037582823 0.51141397)
(0 0.0034268448 0.51133265)
(0 0.0030911943 0.51128018)
(0 0.0027546993 0.51125643)
(0 0.0024206803 0.51126108)
(0 0.0020924547 0.51129356)
(0 0.0017733766 0.51135309)
(0 0.0014668636 0.51143861)
(0 0.0011764074 0.51154864)
(0 0.00090556016 0.51168131)
(0 0.0006578875 0.51183416)
(0 0.00043688468 0.51200406)
(0 0.00024582344 0.51218713)
(0 8.7640397e-05 0.51237866)
(0 -3.556292e-05 0.51257297)
(0 -0.00012229948 0.5127639)
(0 -0.0001726903 0.51294373)
(0 -0.00018839339 0.51310217)
(0 -0.00017233264 0.5131628)
(0 -0.00012894874 0.51195497)
(0 -6.3896828e-05 0.49480117)
(0 -1.2594323e-05 0.34276695)
(0 0.0028866234 0.31537046)
(0 0.0054944728 0.4969106)
(0 0.0051290612 0.51507413)
(0 0.0056351082 0.51488044)
(0 0.005601769 0.51456836)
(0 0.0057221501 0.51436515)
(0 0.0057610955 0.51414498)
(0 0.0057670392 0.51390651)
(0 0.0057321426 0.51365742)
(0 0.0056575461 0.5134048)
(0 0.005545122 0.51315488)
(0 0.0053974771 0.51291303)
(0 0.0052177753 0.51268371)
(0 0.0050094998 0.51247058)
(0 0.0047762865 0.51227652)
(0 0.0045218032 0.51210375)
(0 0.0042496697 0.51195392)
(0 0.0039634133 0.51182821)
(0 0.0036664494 0.51172741)
(0 0.0033620833 0.51165198)
(0 0.0030535249 0.51160211)
(0 0.0027439123 0.51157771)
(0 0.0024363381 0.51157849)
(0 0.0021338757 0.51160391)
(0 0.0018395992 0.51165313)
(0 0.0015565938 0.51172507)
(0 0.0012879506 0.51181823)
(0 0.001036742 0.51193074)
(0 0.00080596924 0.51206022)
(0 0.00059848279 0.51220373)
(0 0.00041685338 0.51235774)
(0 0.0002632494 0.51251806)
(0 0.00013915337 0.51267981)
(0 4.531915e-05 0.51283773)
(0 -1.867316e-05 0.51298564)
(0 -5.4527906e-05 0.51311448)
(0 -6.5017741e-05 0.51314909)
(0 -5.4251969e-05 0.51191959)
(0 -2.7821853e-05 0.49476035)
(0 -7.7788039e-06 0.34274192)
(0 0.0028799254 0.31528208)
(0 0.0054504655 0.49677226)
(0 0.0050409614 0.51493358)
(0 0.0055075689 0.51476853)
(0 0.0054398238 0.51448567)
(0 0.0055329888 0.51431406)
(0 0.0055510296 0.51412861)
(0 0.0055431017 0.5139265)
(0 0.0055008762 0.51371403)
(0 0.0054250239 0.51349713)
(0 0.0053167293 0.5132811)
(0 0.0051778551 0.51307067)
(0 0.0050108135 0.51286986)
(0 0.0048183742 0.51268205)
(0 0.0046035232 0.51250998)
(0 0.0043693547 0.51235583)
(0 0.0041189936 0.51222128)
(0 0.0038555447 0.51210758)
(0 0.0035820641 0.5120156)
(0 0.0033015472 0.51194587)
(0 0.0030169292 0.51189865)
(0 0.0027310929 0.51187391)
(0 0.0024468796 0.5118714)
(0 0.0021671002 0.51189057)
(0 0.0018945414 0.51193063)
(0 0.0016319629 0.51199048)
(0 0.0013820833 0.51206869)
(0 0.0011475492 0.51216345)
(0 0.00093088259 0.51227252)
(0 0.00073440846 0.51239321)
(0 0.00056014997 0.51252234)
(0 0.00040971325 0.51265624)
(0 0.00028411242 0.51279075)
(0 0.00018367468 0.51292139)
(0 0.00010781027 0.5130432)
(0 5.4885059e-05 0.5131481)
(0 2.2416841e-05 0.51316208)
(0 6.4034355e-06 0.51191629)
(0 1.8894759e-06 0.49475179)
(0 -3.4188205e-06 0.34273431)
(0 0.0028741451 0.31521515)
(0 0.0054134798 0.4966719)
(0 0.0049673604 0.51483216)
(0 0.0054009351 0.51469045)
(0 0.0053039881 0.51443133)
(0 0.005373639 0.51428556)
(0 0.0053731614 0.51412874)
(0 0.0053524155 0.51395694)
(0 0.0053027732 0.51377533)
(0 0.0052246244 0.51358885)
(0 0.0051186759 0.51340205)
(0 0.0049862421 0.513219)
(0 0.0048291566 0.51304331)
(0 0.0046496166 0.51287803)
(0 0.0044500685 0.51272573)
(0 0.0042331124 0.5125885)
(0 0.004001431 0.51246796)
(0 0.0037577378 0.51236539)
(0 0.0035047436 0.51228166)
(0 0.003245136 0.51221737)
(0 0.0029815693 0.51217281)
(0 0.0027166617 0.51214801)
(0 0.0024529944 0.51214272)
(0 0.0021931115 0.51215647)
(0 0.0019395161 0.51218848)
(0 0.0016946594 0.51223771)
(0 0.0014609203 0.5123028)
(0 0.001240572 0.51238205)
(0 0.0010357335 0.51247343)
(0 0.00084830433 0.51257448)
(0 0.0006798805 0.51268239)
(0 0.00053165897 0.51279397)
(0 0.00040431783 0.51290568)
(0 0.00029792626 0.51301375)
(0 0.00021181635 0.51311411)
(0 0.00014447557 0.51319956)
(0 9.3756008e-05 0.51319705)
(0 5.5836195e-05 0.51193902)
(0 2.6818612e-05 0.49476922)
(0 7.1998179e-07 0.34274137)
(0 0.0028691568 0.31516638)
(0 0.005382256 0.49660329)
(0 0.0049055398 0.51476349)
(0 0.0053113129 0.51464093)
(0 0.0051895129 0.51440125)
(0 0.0052388594 0.51427674)
(0 0.0052220611 0.51414367)
(0 0.0051896384 0.51399722)
(0 0.0051327868 0.51384166)
(0 0.0050517417 0.51368112)
(0 0.0049468814 0.51351946)
(0 0.0048191198 0.51336022)
(0 0.0046698464 0.51320657)
(0 0.0045008028 0.51306125)
(0 0.0043139897 0.51292663)
(0 0.0041115862 0.51280464)
(0 0.0038958853 0.51269685)
(0 0.0036692454 0.51260447)
(0 0.0034340536 0.51252841)
(0 0.0031927011 0.51246926)
(0 0.0029475668 0.51242734)
(0 0.0027010057 0.5124027)
(0 0.0024553409 0.51239514)
(0 0.0022128554 0.51240423)
(0 0.0019757809 0.51242925)
(0 0.0017462817 0.51246922)
(0 0.0015264315 0.5125229)
(0 0.0013181798 0.51258872)
(0 0.0011233079 0.51266483)
(0 0.0009433725 0.51274906)
(0 0.00077963825 0.51283893)
(0 0.00063300166 0.51293168)
(0 0.00050390588 0.51302431)
(0 0.00039226691 0.51311366)
(0 0.0002974024 0.51319636)
(0 0.00021793409 0.51326593)
(0 0.00015204301 0.51325011)
(0 9.6250695e-05 0.51198243)
(0 4.7860224e-05 0.49480732)
(0 4.5589351e-06 0.34276154)
(0 0.0028648496 0.31513303)
(0 0.005355787 0.49656135)
(0 0.0048533656 0.51472234)
(0 0.0052356385 0.51461563)
(0 0.0050926294 0.51439198)
(0 0.0051244404 0.51428506)
(0 0.0050933055 0.51417177)
(0 0.0050503489 0.51404659)
(0 0.0049866683 0.51391306)
(0 0.004902427 0.51377464)
(0 0.004797781 0.51363462)
(0 0.0046733531 0.51349604)
(0 0.0045301935 0.51336167)
(0 0.0043696822 0.51323397)
(0 0.0041934541 0.51311506)
(0 0.0040033318 0.51300674)
(0 0.0038012693 0.51291046)
(0 0.003589306 0.51282738)
(0 0.0033695319 0.51275838)
(0 0.00314406 0.51270404)
(0 0.0029150057 0.51266468)
(0 0.0026844708 0.51264041)
(0 0.0024545299 0.51263104)
(0 0.0022272166 0.51263618)
(0 0.0020045086 0.51265519)
(0 0.001788308 0.51268717)
(0 0.0015804169 0.51273099)
(0 0.0013825061 0.51278523)
(0 0.0011960748 0.51284825)
(0 0.001022404 0.51291813)
(0 0.00086250144 0.5129927)
(0 0.00071704272 0.51306959)
(0 0.00058630942 0.51314626)
(0 0.00047013298 0.51322006)
(0 0.00036785629 0.51328818)
(0 0.00027824271 0.51334473)
(0 0.00019977686 0.51331809)
(0 0.0001293603 0.51204257)
(0 6.5430734e-05 0.49486207)
(0 7.902547e-06 0.34279276)
(0 0.002861127 0.31511281)
(0 0.0053332634 0.49654194)
(0 0.0048091434 0.51470445)
(0 0.0051714752 0.51461093)
(0 0.0050103187 0.51440056)
(0 0.0050269765 0.51430828)
(0 0.0049832735 0.51421154)
(0 0.0049308781 0.51410427)
(0 0.0048608401 0.51398941)
(0 0.0047733031 0.51386989)
(0 0.004668276 0.51374847)
(0 0.0045461713 0.51362779)
(0 0.0044077805 0.51351026)
(0 0.0042541971 0.51339805)
(0 0.004086757 0.51329306)
(0 0.0039069825 0.51319692)
(0 0.0037165341 0.51311099)
(0 0.0035171693 0.51303634)
(0 0.0033107087 0.5129738)
(0 0.0030990086 0.51292393)
(0 0.002883938 0.51288707)
(0 0.0026673602 0.51286331)
(0 0.0024511156 0.51285253)
(0 0.0022370051 0.51285437)
(0 0.0020267721 0.51286826)
(0 0.0018220818 0.5128934)
(0 0.0016244972 0.51292876)
(0 0.0014354493 0.5129731)
(0 0.0012562027 0.51302494)
(0 0.0010878159 0.5130826)
(0 0.00093109786 0.51314422)
(0 0.00078656177 0.51320777)
(0 0.00065438049 0.51327108)
(0 0.00053434521 0.51333194)
(0 0.000425847 0.51338801)
(0 0.00032779185 0.51343386)
(0 0.00023893691 0.51339836)
(0 0.00015651828 0.51211638)
(0 7.9945891e-05 0.49493042)
(0 1.0699382e-05 0.34283319)
(0 0.0028579062 0.31510384)
(0 0.0053140309 0.49654161)