/*--------------------------------*- C++ -*----------------------------------*\
  =========                 |
  \\      /  F ield         | OpenFOAM: The Open Source CFD Toolbox
   \\    /   O peration     | Website:  https://openfoam.org
    \\  /    A nd           | Version:  10
     \\/     M anipulation  |
\*---------------------------------------------------------------------------*/
FoamFile
{
    format      ascii;
    class       volVectorField;
    location    "0.01";
    object      U_0;
}
// * * * * * * * * * * * * * * * * * * * * * * * * * * * * * * * * * * * * * //

dimensions      [0 1 -1 0 0 0 0];

internalField   nonuniform List<vector> 
4000
(
(0 0.018193833 0.47860627)
(0 0.02220404 0.50813326)
(0 0.0069187293 0.50051276)
(0 0.0049761782 0.50035833)
(0 0.003704532 0.5002371)
(0 0.0028028939 0.50014631)
(0 0.0022071641 0.50010234)
(0 0.0017874151 0.50007635)
(0 0.0014725729 0.50005902)
(0 0.0012268247 0.50004719)
(0 0.0010285996 0.50003887)
(0 0.00086405007 0.50003285)
(0 0.00072399863 0.50002841)
(0 0.00060212711 0.50002507)
(0 0.00049393043 0.50002255)
(0 0.00039608992 0.50002064)
(0 0.00030608096 0.5000192)
(0 0.00022191482 0.50001814)
(0 0.00014195366 0.5000174)
(0 6.4821665e-05 0.50001694)
(0 -1.071159e-05 0.50001673)
(0 -8.5833097e-05 0.50001676)
(0 -0.00016170598 0.50001704)
(0 -0.00023955384 0.5000176)
(0 -0.00032075186 0.50001848)
(0 -0.00040691762 0.50001973)
(0 -0.00050004063 0.50002145)
(0 -0.00060268482 0.5000238)
(0 -0.00071827818 0.50002699)
(0 -0.00085158904 0.50003136)
(0 -0.0010095138 0.50003747)
(0 -0.0012024479 0.5000462)
(0 -0.0014466773 0.5000591)
(0 -0.0017693976 0.50007868)
(0 -0.0022237185 0.50011188)
(0 -0.0029083536 0.50017928)
(0 -0.0039025782 0.50027717)
(0 -0.0054733476 0.50042546)
(0 -0.016405439 0.50614032)
(0 -0.013072876 0.48050018)
(0 0.034810191 0.45201772)
(0 0.046105828 0.52995851)
(0 0.018437205 0.50746618)
(0 0.014114712 0.5034583)
(0 0.01063439 0.50215306)
(0 0.0081173578 0.50138114)
(0 0.0064525032 0.50096968)
(0 0.0052445981 0.50071941)
(0 0.0043243043 0.50055546)
(0 0.0035992877 0.5004441)
(0 0.0030098589 0.50036575)
(0 0.0025174608 0.50030902)
(0 0.0020962939 0.50026706)
(0 0.001728388 0.50023554)
(0 0.0014008025 0.50021163)
(0 0.0011039185 0.50019345)
(0 0.00083035434 0.50017974)
(0 0.00057425952 0.50016961)
(0 0.00033077302 0.5001625)
(0 9.5800828e-05 0.5001581)
(0 -0.00013434351 0.50015604)
(0 -0.00036322328 0.50015634)
(0 -0.0005943129 0.50015904)
(0 -0.0008312882 0.50016437)
(0 -0.0010782449 0.50017267)
(0 -0.0013399609 0.50018455)
(0 -0.0016222911 0.50020091)
(0 -0.0019326947 0.50022311)
(0 -0.0022810551 0.50025322)
(0 -0.0026809761 0.50029443)
(0 -0.0031518722 0.50035188)
(0 -0.0037226606 0.50043407)
(0 -0.004438169 0.50055579)
(0 -0.0053688026 0.50074325)
(0 -0.0066414009 0.50105263)
(0 -0.0085425003 0.50163069)
(0 -0.011233826 0.5026497)
(0 -0.014480382 0.50564085)
(0 -0.034261981 0.52302435)
(0 -0.025233328 0.45401872)
(0 0.033742911 0.42011201)
(0 0.051300494 0.54515293)
(0 0.025769804 0.51940188)
(0 0.021157438 0.50927595)
(0 0.016507312 0.50573631)
(0 0.01303687 0.50382806)
(0 0.010621301 0.50273412)
(0 0.0087715477 0.50204433)
(0 0.0073217309 0.50158896)
(0 0.0061556484 0.50127709)
(0 0.005191828 0.50105599)
(0 0.0043762208 0.50089498)
(0 0.0036713645 0.50077529)
(0 0.0030504542 0.50068497)
(0 0.0024937863 0.50061621)
(0 0.0019864593 0.50056378)
(0 0.0015168656 0.50052413)
(0 0.001075692 0.50049481)
(0 0.00065514552 0.50047418)
(0 0.00024855953 0.50046126)
(0 -0.00015010124 0.5004553)
(0 -0.00054662352 0.50045615)
(0 -0.00094669094 0.500464)
(0 -0.0013563119 0.50047941)
(0 -0.001782121 0.50050342)
(0 -0.0022317648 0.50053771)
(0 -0.0027145452 0.50058479)
(0 -0.003242087 0.5006485)
(0 -0.0038295481 0.5007345)
(0 -0.0044973689 0.50085172)
(0 -0.0052738888 0.50101405)
(0 -0.0061997386 0.50124459)
(0 -0.0073357714 0.50158275)
(0 -0.0087709226 0.50209852)
(0 -0.01063045 0.50292078)
(0 -0.013250754 0.50435232)
(0 -0.016853618 0.50703448)
(0 -0.020049642 0.51434408)
(0 -0.037760709 0.53451448)
(0 -0.02440241 0.4253889)
(0 0.024432905 0.38421147)
(0 0.04632163 0.54833054)
(0 0.029294424 0.53041803)
(0 0.025705755 0.51578777)
(0 0.021001149 0.51007319)
(0 0.017439646 0.50705658)
(0 0.014729777 0.50518373)
(0 0.012509397 0.50395044)
(0 0.010698157 0.50311635)
(0 0.0091928981 0.50253334)
(0 0.0079164538 0.50211373)
(0 0.0068143175 0.50180463)
(0 0.0058460745 0.50157276)
(0 0.0049814683 0.50139651)
(0 0.0041974676 0.50126155)
(0 0.003476157 0.50115816)
(0 0.002803259 0.50107967)
(0 0.0021670962 0.50102147)
(0 0.0015577814 0.50098043)
(0 0.0009667153 0.50095456)
(0 0.00038605415 0.50094264)
(0 -0.00019170072 0.50094428)
(0 -0.00077395918 0.50095982)
(0 -0.0013684973 0.50099033)
(0 -0.0019838299 0.50103782)
(0 -0.0026296284 0.50110543)
(0 -0.0033174662 0.50119791)
(0 -0.0040614594 0.50132239)
(0 -0.0048794962 0.50148929)
(0 -0.0057949003 0.50171477)
(0 -0.0068385139 0.50202346)
(0 -0.0080516429 0.50245522)
(0 -0.0094915915 0.50307528)
(0 -0.011237481 0.50399645)
(0 -0.013355873 0.50540408)
(0 -0.016063907 0.50766465)
(0 -0.019748415 0.51186228)
(0 -0.022071518 0.52206519)
(0 -0.032809451 0.53598984)
(0 -0.01691813 0.396031)
(0 0.01412367 0.35675326)
(0 0.036485825 0.54243215)
(0 0.029245028 0.53628644)
(0 0.027486399 0.52070959)
(0 0.023620234 0.51394046)
(0 0.020628095 0.51027166)
(0 0.01806819 0.50781326)
(0 0.015822957 0.50611734)
(0 0.013901257 0.50492796)
(0 0.012237794 0.50407198)
(0 0.01078213 0.50344242)
(0 0.0094934337 0.50297093)
(0 0.0083380173 0.50261264)
(0 0.0072888576 0.50233753)
(0 0.0063242332 0.5021252)
(0 0.0054265117 0.50196151)
(0 0.0045811616 0.50183662)
(0 0.0037759698 0.50174365)
(0 0.0030003939 0.50167789)
(0 0.0022450956 0.50163626)
(0 0.001501475 0.50161697)
(0 0.00076129206 0.50161941)
(0 1.6378939e-05 0.50164405)
(0 -0.00074174635 0.50169253)
(0 -0.0015222682 0.50176785)
(0 -0.002335421 0.50187472)
(0 -0.0031931191 0.50202013)
(0 -0.0041094369 0.50221445)
(0 -0.0051014586 0.50247259)
(0 -0.0061902672 0.50281695)
(0 -0.0074018392 0.50328078)
(0 -0.0087676306 0.50391554)
(0 -0.0103249 0.50480067)
(0 -0.012122781 0.50606632)
(0 -0.014170382 0.50791316)
(0 -0.016482772 0.51065859)
(0 -0.019542044 0.51546293)
(0 -0.020721421 0.52583712)
(0 -0.023858622 0.53000163)
(0 -0.0084477404 0.37447722)
(0 0.0067697001 0.34192273)
(0 0.025483273 0.53272941)
(0 0.025957828 0.53667661)
(0 0.026257613 0.52318573)
(0 0.023804612 0.51664309)
(0 0.021717097 0.51284771)
(0 0.019636727 0.51013615)
(0 0.017675822 0.50817753)
(0 0.015897695 0.5067451)
(0 0.014285722 0.50567943)
(0 0.012824561 0.50487532)
(0 0.011494189 0.50426082)
(0 0.010274194 0.50378638)
(0 0.0091460055 0.50341753)
(0 0.0080932464 0.50313003)
(0 0.0071016847 0.50290667)
(0 0.0061589664 0.5027352)
(0 0.0052542803 0.50260692)
(0 0.0043780092 0.5025158)
(0 0.0035214284 0.50245785)
(0 0.0026763921 0.50243075)
(0 0.001835056 0.50243368)
(0 0.00098963978 0.50246722)
(0 0.00013215762 0.50253347)
(0 -0.00074586662 0.50263623)
(0 -0.0016536281 0.50278144)
(0 -0.0026014039 0.50297779)
(0 -0.0036007248 0.50323783)
(0 -0.0046647009 0.50357937)
(0 -0.0058080484 0.50402802)
(0 -0.0070467172 0.50462058)
(0 -0.0083966607 0.50541093)
(0 -0.0098693098 0.50647733)
(0 -0.011474552 0.5079379)
(0 -0.013187044 0.5099713)
(0 -0.014854609 0.51280975)
(0 -0.016804875 0.51730675)
(0 -0.016847782 0.52575061)
(0 -0.014551153 0.52136636)
(0 -0.0025344218 0.36316348)
(0 0.0032598436 0.33564494)
(0 0.016455046 0.52319449)
(0 0.020877449 0.53359926)
(0 0.022717907 0.52360874)
(0 0.021745304 0.51809529)
(0 0.020605657 0.51456072)
(0 0.019169009 0.51189601)
(0 0.017672453 0.50988054)
(0 0.016209091 0.50834317)
(0 0.014809182 0.50716071)
(0 0.01348832 0.50624403)
(0 0.012247361 0.50552797)
(0 0.011080902 0.5049653)
(0 0.00998087 0.50452165)
(0 0.0089382462 0.50417192)
(0 0.0079440087 0.50389774)
(0 0.006989542 0.50368571)
(0 0.0060667735 0.50352615)
(0 0.0051681607 0.5034122)
(0 0.004286613 0.5033393)
(0 0.0034153682 0.50330476)
(0 0.002547858 0.50330758)
(0 0.0016775796 0.50334842)
(0 0.00079796338 0.50342959)
(0 -9.7752527e-05 0.50355536)
(0 -0.0010165877 0.50373228)
(0 -0.0019658965 0.5039698)
(0 -0.0029531714 0.50428125)
(0 -0.003985891 0.50468503)
(0 -0.0050707663 0.50520662)
(0 -0.0062123158 0.50588102)
(0 -0.0074105768 0.50675672)
(0 -0.0086545159 0.50790014)
(0 -0.0099172405 0.50940172)
(0 -0.011148815 0.51139406)
(0 -0.012133395 0.51403655)
(0 -0.012915703 0.51774623)
(0 -0.01210203 0.52346528)
(0 -0.0075369368 0.51355251)
(0 9.5465593e-05 0.35867682)
(0 0.0024449092 0.33306642)
(0 0.01091042 0.51578447)
(0 0.015902372 0.52936824)
(0 0.018412671 0.5227676)
(0 0.01852365 0.51851939)
(0 0.018157809 0.51547763)
(0 0.017347093 0.51305977)
(0 0.016340984 0.51114059)
(0 0.015248122 0.50961656)
(0 0.014130357 0.50840582)
(0 0.013023966 0.50744146)
(0 0.011946386 0.50667116)
(0 0.010905106 0.50605466)
(0 0.0099017279 0.50556122)
(0 0.0089345094 0.50516743)
(0 0.0079999126 0.50485562)
(0 0.0070934911 0.50461251)
(0 0.0062103953 0.50442829)
(0 0.0053456439 0.50429591)
(0 0.0044942591 0.50421059)
(0 0.0036513199 0.50416947)
(0 0.0028119739 0.50417146)
(0 0.0019714356 0.50421718)
(0 0.0011249904 0.50430897)
(0 0.00026802293 0.50445111)
(0 -0.00060389079 0.50465017)
(0 -0.0014948157 0.50491542)
(0 -0.0024079638 0.50525946)
(0 -0.0033452027 0.50569956)
(0 -0.0043058756 0.50625825)
(0 -0.005284729 0.50696529)
(0 -0.0062690536 0.50785938)
(0 -0.0072327757 0.5089903)
(0 -0.0081259008 0.51041829)
(0 -0.0088789965 0.51222077)
(0 -0.0092998441 0.51449195)
(0 -0.0092411189 0.51732519)
(0 -0.008008958 0.52059314)
(0 -0.0035981498 0.50786506)
(0 0.00057603849 0.35702138)
(0 0.0027158163 0.33173817)
(0 0.0083645233 0.51080617)
(0 0.012194884 0.5255028)
(0 0.014684615 0.52136684)
(0 0.015339881 0.51825117)
(0 0.015474034 0.51579028)
(0 0.0151394 0.51371776)
(0 0.014539052 0.51198892)
(0 0.013780642 0.51056166)
(0 0.012935995 0.50939092)
(0 0.012050745 0.50843313)
(0 0.011152398 0.50765083)
(0 0.010257179 0.50701303)
(0 0.0093739048 0.50649458)
(0 0.0085066886 0.50607552)
(0 0.0076566831 0.50574016)
(0 0.0068232007 0.50547637)
(0 0.0060044334 0.50527497)
(0 0.0051979113 0.50512921)
(0 0.0044007949 0.50503445)
(0 0.0036100652 0.50498787)
(0 0.0028226563 0.50498834)
(0 0.0020355646 0.50503637)
(0 0.0012459637 0.50513413)
(0 0.0004513586 0.5052856)
(0 -0.00035018614 0.50549678)
(0 -0.0011598906 0.50577606)
(0 -0.0019771326 0.50613442)
(0 -0.0027992739 0.50658655)
(0 -0.0036203496 0.50715065)
(0 -0.0044284137 0.50784959)
(0 -0.0052030864 0.50871087)
(0 -0.0059112753 0.5097667)
(0 -0.006497246 0.51105074)
(0 -0.0068852259 0.51259261)
(0 -0.0069376864 0.51442554)
(0 -0.0064690224 0.51649292)
(0 -0.0052013579 0.51805906)
(0 -0.0019409549 0.50418033)
(0 0.00028914231 0.35615918)
(0 0.0030702675 0.33083775)
(0 0.0074554082 0.50767339)
(0 0.0098693197 0.52256788)
(0 0.012028893 0.51990267)
(0 0.012827188 0.51764239)
(0 0.013210732 0.51572446)
(0 0.013169219 0.51401177)
(0 0.012851679 0.51251423)
(0 0.012349394 0.51123086)
(0 0.011727972 0.51014454)
(0 0.011033254 0.5092322)
(0 0.010296228 0.50847049)
(0 0.0095373902 0.50783787)
(0 0.0087698562 0.50731562)
(0 0.0080016719 0.50688794)
(0 0.0072374252 0.50654193)
(0 0.0064793725 0.50626725)
(0 0.0057282194 0.50605584)
(0 0.004983663 0.50590166)
(0 0.0042447719 0.50580046)
(0 0.0035102624 0.50574961)
(0 0.0027787134 0.50574801)
(0 0.0020487544 0.50579602)
(0 0.0013192571 0.5058955)
(0 0.00058956088 0.50604987)
(0 -0.00014018155 0.50626425)
(0 -0.00086887841 0.50654561)
(0 -0.0015932081 0.50690306)
(0 -0.002307502 0.50734773)
(0 -0.0030025231 0.50789321)
(0 -0.0036630952 0.50855527)
(0 -0.004266282 0.50935091)
(0 -0.0047785173 0.51029692)
(0 -0.0051501985 0.51140643)
(0 -0.0053141005 0.51267891)
(0 -0.0051807842 0.51410333)
(0 -0.004610127 0.5155839)
(0 -0.0035110139 0.51616124)
(0 -0.0013645892 0.50188596)
(0 6.1571113e-06 0.35550976)
(0 0.0032277816 0.33008113)
(0 0.0071144904 0.50563091)
(0 0.0084985247 0.52049795)
(0 0.010288589 0.51862753)
(0 0.011029986 0.51695589)
(0 0.011497896 0.51547599)
(0 0.011607222 0.51408508)
(0 0.011465427 0.51281817)
(0 0.011140727 0.51169443)
(0 0.010686012 0.51071484)
(0 0.010141929 0.50987141)
(0 0.0095381969 0.50915218)
(0 0.0088960767 0.50854402)
(0 0.0082304455 0.50803424)
(0 0.0075514714 0.50761135)
(0 0.0068659044 0.50726545)
(0 0.0061780522 0.50698825)
(0 0.005490507 0.50677313)
(0 0.0048046852 0.50661497)
(0 0.004121232 0.50651008)
(0 0.0034403363 0.50645613)
(0 0.0027619888 0.50645208)
(0 0.002086215 0.50649814)
(0 0.0014133096 0.50659579)
(0 0.00074409195 0.50674776)
(0 8.0282947e-05 0.50695812)
(0 -0.00057526156 0.50723226)
(0 -0.0012176528 0.50757711)
(0 -0.0018395584 0.50800046)
(0 -0.0024301854 0.50851147)
(0 -0.0029738469 0.50911959)
(0 -0.003448641 0.50983335)
(0 -0.0038245948 0.51065838)
(0 -0.0040621578 0.51159407)
(0 -0.0041101198 0.51262617)
(0 -0.0039120815 0.5137225)
(0 -0.0033844724 0.51478845)
(0 -0.0025046081 0.51483284)
(0 -0.0011003259 0.50040154)
(0 -0.00010190277 0.35495096)
(0 0.0032486932 0.32938903)
(0 0.0068778282 0.50415892)
(0 0.0076464805 0.51901652)
(0 0.0091288244 0.51759244)
(0 0.009747261 0.51631796)
(0 0.010214214 0.51516853)
(0 0.010388026 0.51404405)
(0 0.01034803 0.51298428)
(0 0.010140722 0.51201548)
(0 0.0098060382 0.51114848)
(0 0.0093773699 0.51038482)
(0 0.008880768 0.50972066)
(0 0.0083361259 0.50914944)
(0 0.0077583108 0.50866358)
(0 0.0071582229 0.50825545)
(0 0.0065437172 0.507918)
(0 0.0059203604 0.50764505)
(0 0.0052920387 0.50743143)
(0 0.0046614396 0.50727303)
(0 0.0040304352 0.50716683)
(0 0.0034003981 0.50711085)
(0 0.0027724696 0.50710415)
(0 0.0021478082 0.50714679)
(0 0.0015278378 0.50723982)
(0 0.00091450793 0.50738529)
(0 0.00031063767 0.50758619)
(0 -0.00027979168 0.50784638)
(0 -0.00085103603 0.50817057)
(0 -0.0013951283 0.50856382)
(0 -0.0019011353 0.50903144)
(0 -0.0023544187 0.50957791)
(0 -0.0027357249 0.51020574)
(0 -0.0030204363 0.51091366)
(0 -0.0031785872 0.5116934)
(0 -0.0031747107 0.51252607)
(0 -0.0029742421 0.51337543)
(0 -0.002533909 0.51415472)
(0 -0.0018530703 0.5138926)
(0 -0.00088281576 0.49935507)
(0 -0.00010821421 0.35445985)
(0 0.0032259298 0.32878547)
(0 0.0066481208 0.50301936)
(0 0.0070544095 0.51789969)
(0 0.0083007265 0.51676067)
(0 0.0087903537 0.51576223)
(0 0.0092194781 0.5148602)
(0 0.0094109027 0.51395029)
(0 0.0094261526 0.51306787)
(0 0.0092946822 0.51224004)
(0 0.0090454165 0.51148195)
(0 0.0087044586 0.51080047)
(0 0.0082934438 0.51019704)
(0 0.0078298794 0.50966984)
(0 0.0073275841 0.50921522)
(0 0.0067972649 0.50882875)
(0 0.0062471056 0.50850588)
(0 0.0056833028 0.50824231)
(0 0.0051105333 0.50803428)
(0 0.0045323517 0.50787869)
(0 0.0039515262 0.50777318)
(0 0.0033703279 0.50771613)
(0 0.0027907875 0.50770672)
(0 0.002214935 0.50774488)
(0 0.0016450396 0.50783128)
(0 0.0010838567 0.50796729)
(0 0.00053491684 0.5081549)
(0 2.7978007e-06 0.50839662)
(0 -0.00050641023 0.50869526)
(0 -0.00098479727 0.5090536)
(0 -0.0014221372 0.50947395)
(0 -0.0018055696 0.50995732)
(0 -0.00211894 0.51050228)
(0 -0.0023430653 0.5111036)
(0 -0.002456106 0.51174984)
(0 -0.002434673 0.51242119)
(0 -0.0022586519 0.51308514)
(0 -0.0019082226 0.51366168)
(0 -0.0013890735 0.51319855)
(0 -0.00068254134 0.49857358)
(0 -8.8260549e-05 0.3540538)
(0 0.0032000562 0.32829284)
(0 0.0064386173 0.50212322)
(0 0.0066059703 0.51702825)
(0 0.0076724121 0.51609032)
(0 0.0080470653 0.51529026)
(0 0.0084253931 0.51457523)
(0 0.0086097879 0.51383672)
(0 0.008651386 0.51310312)
(0 0.0085674273 0.51239947)
(0 0.0083781875 0.511742)
(0 0.0081033777 0.51114015)
(0 0.0077603257 0.51059851)
(0 0.0073638219 0.51011843)
(0 0.0069261251 0.50969914)
(0 0.0064571967 0.50933869)
(0 0.0059650251 0.50903456)
(0 0.0054559707 0.50878407)
(0 0.0049351002 0.50858471)
(0 0.0044064925 0.50843428)
(0 0.0038735158 0.50833104)
(0 0.0033390757 0.50827376)
(0 0.0028058451 0.50826172)
(0 0.0022764811 0.50829475)
(0 0.0017538404 0.50837318)
(0 0.001241198 0.50849779)
(0 0.00074248454 0.50866972)
(0 0.00026251909 0.5088903)
(0 -0.00019268745 0.50916089)
(0 -0.00061570715 0.50948242)
(0 -0.00099737204 0.50985507)
(0 -0.0013267892 0.51027748)
(0 -0.0015909831 0.51074603)
(0 -0.0017753933 0.5112533)
(0 -0.0018646885 0.51178731)
(0 -0.0018438802 0.51232934)
(0 -0.0017020798 0.51285226)
(0 -0.0014315499 0.51328183)
(0 -0.0010393624 0.51267607)
(0 -0.0005139638 0.49798708)
(0 -6.9287812e-05 0.35374208)
(0 0.0031790073 0.32789975)
(0 0.0062648405 0.50142121)
(0 0.0062542566 0.51634171)
(0 0.0071806605 0.51555156)
(0 0.0074572463 0.51489725)
(0 0.0077825972 0.51432466)
(0 0.0079475459 0.51372251)
(0 0.007997633 0.51311235)
(0 0.0079417525 0.51251594)
(0 0.0077937584 0.51194882)
(0 0.0075681709 0.51142126)
(0 0.007278506 0.51093952)
(0 0.0069368986 0.51050689)
(0 0.0065538748 0.51012458)
(0 0.0061383644 0.50979248)
(0 0.0056978344 0.50950961)
(0 0.005238485 0.50927464)
(0 0.0047654685 0.50908607)
(0 0.004283112 0.50894253)
(0 0.0037951313 0.5088428)
(0 0.0033048346 0.50878599)
(0 0.0028153155 0.5087715)
(0 0.0023296399 0.5087991)
(0 0.0018510291 0.50886882)
(0 0.0013830431 0.50898097)
(0 0.00092976784 0.50913597)
(0 0.00049599555 0.50933425)
(0 8.741618e-05 0.50957602)
(0 -0.000289252 0.5098609)
(0 -0.0006260684 0.51018762)
(0 -0.00091398909 0.51055335)
(0 -0.0011429362 0.51095327)
(0 -0.0013020814 0.51137934)
(0 -0.0013809209 0.51181994)
(0 -0.0013701152 0.51225888)
(0 -0.0012644939 0.5126737)
(0 -0.0010619813 0.51299531)
(0 -0.00076963065 0.51228552)
(0 -0.00038097334 0.49755345)
(0 -5.4541213e-05 0.35351013)
(0 0.0031618279 0.32758454)
(0 0.0061269794 0.50087158)
(0 0.0059764179 0.5158005)
(0 0.0067911085 0.51512079)
(0 0.0069846333 0.51457557)
(0 0.0072593684 0.51411258)
(0 0.0073992603 0.51361897)
(0 0.0074470467 0.51311049)
(0 0.0074060465 0.51260547)
(0 0.0072855263 0.5121179)
(0 0.007095985 0.51165789)
(0 0.0068477615 0.51123234)
(0 0.0065506037 0.51084561)
(0 0.0062133404 0.51050018)
(0 0.0058437655 0.51019718)
(0 0.0054486481 0.50993681)
(0 0.0050338195 0.50971873)
(0 0.0046043013 0.50954232)
(0 0.0041644558 0.5094068)
(0 0.0037181429 0.50931148)
(0 0.0032688782 0.50925571)
(0 0.0028199882 0.50923905)
(0 0.0023747627 0.50926119)
(0 0.0019366036 0.50932196)
(0 0.0015091706 0.50942128)
(0 0.0010965223 0.50955903)
(0 0.00070324525 0.50973496)
(0 0.00033457231 0.50994843)
(0 -3.5622072e-06 0.5101982)
(0 -0.00030446093 0.51048209)
(0 -0.00056075475 0.51079646)
(0 -0.0007646951 0.51113598)
(0 -0.00090853567 0.51149288)
(0 -0.00098503569 0.51185637)
(0 -0.00098859571 0.51221315)
(0 -0.00091754598 0.5125444)
(0 -0.00077245565 0.51278546)
(0 -0.00055990962 0.51199872)
(0 -0.00027809111 0.49723751)
(0 -4.265352e-05 0.35333817)
(0 0.0031471121 0.32733115)
(0 0.0060177445 0.50044085)
(0 0.00575599 0.51537465)
(0 0.0064802167 0.51477849)
(0 0.0066033844 0.51431634)
(0 0.0068316719 0.5139387)
(0 0.0069446712 0.5135319)
(0 0.0069839088 0.51310703)
(0 0.0069490171 0.51267928)
(0 0.0068460542 0.51226088)
(0 0.0066824898 0.51186121)
(0 0.0064661152 0.51148718)
(0 0.0062046414 0.51114363)
(0 0.0059053478 0.51083374)
(0 0.0055749066 0.51055946)
(0 0.0052193189 0.51032181)
(0 0.0048439283 0.51012119)
(0 0.0044534819 0.50995761)
(0 0.0040522234 0.50983082)
(0 0.0036440002 0.50974049)
(0 0.0032323799 0.50968624)
(0 0.0028207695 0.50966771)
(0 0.0024125334 0.50968459)
(0 0.0020111091 0.50973653)
(0 0.0016201174 0.50982319)
(0 0.0012434633 0.50994405)
(0 0.00088542098 0.51009837)
(0 0.00055069862 0.51028496)
(0 0.00024445233 0.51050202)
(0 -2.7748355e-05 0.51074684)
(0 -0.00026001785 0.51101551)
(0 -0.00044641436 0.51130262)
(0 -0.00058156604 0.51160105)
(0 -0.000660462 0.51190113)
(0 -0.00068004907 0.51219215)
(0 -0.00064050117 0.51245814)
(0 -0.00054372275 0.51263794)
(0 -0.00039570466 0.51179377)
(0 -0.00019781954 0.4970121)
(0 -3.2662951e-05 0.35321259)
(0 0.0031342746 0.32712844)
(0 0.0059297337 0.50010417)
(0 0.0055794453 0.51504131)
(0 0.0062298764 0.5145092)
(0 0.0062935484 0.51411118)
(0 0.0064802203 0.5138007)
(0 0.0065666235 0.5134637)
(0 0.0065939917 0.51310764)
(0 0.0065595421 0.512745)
(0 0.0064671255 0.51238625)
(0 0.0063219726 0.51203982)
(0 0.0061298833 0.51171228)
(0 0.0058968871 0.51140852)
(0 0.0056289115 0.51113209)
(0 0.0053315879 0.51088537)
(0 0.0050101495 0.51066994)
(0 0.0046693992 0.5104867)
(0 0.0043137243 0.51033613)
(0 0.0039471451 0.51021837)
(0 0.0035733827 0.51013339)
(0 0.0031959394 0.510081)
(0 0.0028181848 0.51006095)
(0 0.0024434435 0.5100729)
(0 0.00207508 0.51011643)
(0 0.0017165779 0.51019098)
(0 0.0013716073 0.51029579)
(0 0.0010440756 0.51042977)
(0 0.0007381532 0.51059143)
(0 0.00045825936 0.51077861)
(0 0.00020899515 0.51098842)
(0 -4.9887771e-06 0.51121691)
(0 -0.0001791487 0.51145895)
(0 -0.00030999942 0.51170806)
(0 -0.00039382165 0.51195622)
(0 -0.00042940728 0.51219416)
(0 -0.00041785537 0.512409)
(0 -0.00036147125 0.51254145)
(0 -0.00026586844 0.51165413)
(0 -0.00013413459 0.49685759)
(0 -2.4124344e-05 0.35312431)
(0 0.0031231439 0.32696755)
(0 0.0058577308 0.49984295)
(0 0.0054363877 0.51478282)
(0 0.0060262724 0.51430055)
(0 0.0060397042 0.51395267)
(0 0.0061896669 0.51369549)
(0 0.0062509514 0.51341493)
(0 0.0062650067 0.5131156)
(0 0.0062274857 0.51280771)
(0 0.0061407486 0.51250014)
(0 0.0060083969 0.51220029)
(0 0.0058347028 0.5119142)
(0 0.0056243399 0.5116466)
(0 0.0053820913 0.51140108)
(0 0.0051126603 0.51118027)
(0 0.0048205549 0.51098605)
(0 0.0045100294 0.51081966)
(0 0.0041850687 0.5106819)
(0 0.0038494056 0.51057318)
(0 0.003506557 0.5104937)
(0 0.0031598758 0.51044344)
(0 0.0028126085 0.51042221)
(0 0.0024679564 0.51042968)
(0 0.002129134 0.51046539)
(0 0.0017994226 0.51052864)
(0 0.0014822109 0.51061853)
(0 0.0011810202 0.51073378)
(0 0.0008995041 0.5108727)
(0 0.00064141523 0.51103304)
(0 0.00041052802 0.51121186)
(0 0.00021049368 0.51140538)
(0 4.4723207e-05 0.51160888)
(0 -8.429558e-05 0.51181657)
(0 -0.00017428282 0.51202206)
(0 -0.00022498056 0.51221699)
(0 -0.0002377216 0.51239145)
(0 -0.00021514575 0.51248696)
(0 -0.0001621991 0.51156703)
(0 -8.3002629e-05 0.49675932)
(0 -1.6880618e-05 0.35306627)
(0 0.003113576 0.3268413)
(0 0.0057982594 0.49964288)
(0 0.0053192621 0.51458531)
(0 0.0058591597 0.51414244)
(0 0.005830145 0.51383422)
(0 0.0059480331 0.51361973)
(0 0.0059862466 0.51338505)
(0 0.0059867066 0.5131326)
(0 0.0059440647 0.51287074)
(0 0.0058596939 0.51260692)
(0 0.0057360265 0.51234759)
(0 0.005576179 0.51209815)
(0 0.0053837504 0.51186302)
(0 0.0051625752 0.51164569)
(0 0.0049165525 0.51144886)
(0 0.0046495298 0.51127453)
(0 0.0043652334 0.51112415)
(0 0.0040672345 0.51099871)
(0 0.0037589442 0.51089884)
(0 0.0034436276 0.51082487)
(0 0.0031244318 0.51077689)
(0 0.0028044213 0.51075481)
(0 0.002486617 0.51075831)
(0 0.0021740332 0.51078689)
(0 0.0018697099 0.51083982)
(0 0.0015767334 0.51091608)
(0 0.0012982425 0.51101435)
(0 0.0010374134 0.51113286)
(0 0.00079741471 0.51126936)
(0 0.00058133022 0.51142102)
(0 0.00039202797 0.51158434)
(0 0.00023203716 0.51175507)
(0 0.0001031837 0.51192818)
(0 6.6793681e-06 0.51209822)
(0 -5.7633045e-05 0.51225839)
(0 -9.1235101e-05 0.51240041)
(0 -9.6815697e-05 0.512467)
(0 -7.8732211e-05 0.51152236)
(0 -4.1676697e-05 0.49670594)
(0 -1.0803719e-05 0.3530327)
(0 0.0031053776 0.32674396)
(0 0.0057488156 0.4994929)
(0 0.0052225631 0.51443789)
(0 0.005720938 0.51402656)
(0 0.005655998 0.51375006)
(0 0.005746013 0.51357004)
(0 0.0057633995 0.51337288)
(0 0.0057506626 0.5131593)
(0 0.0057018226 0.51293615)
(0 0.0056176128 0.51270969)
(0 0.005499635 0.51248544)
(0 0.0053501415 0.5122682)
(0 0.00517189 0.51206199)
(0 0.0049679409 0.51187011)
(0 0.0047415091 0.51169518)
(0 0.0044958565 0.51153925)
(0 0.0042342186 0.51140385)
(0 0.0039597622 0.51129008)
(0 0.0036755654 0.51119869)
(0 0.003384616 0.51113011)
(0 0.0030898218 0.51108453)
(0 0.0027940288 0.5110619)
(0 0.0025000421 0.51106194)
(0 0.0022106461 0.51108415)
(0 0.0019286204 0.51112779)
(0 0.0016567457 0.51119182)
(0 0.0013977976 0.51127489)
(0 0.0011545215 0.51137528)
(0 0.00092958518 0.51149082)
(0 0.0007255055 0.51161887)
(0 0.00054453941 0.51175623)
(0 0.00038856099 0.51189915)
(0 0.00025885431 0.51204332)
(0 0.00015602587 0.51218404)
(0 7.9678637e-05 0.51231594)
(0 2.8293307e-05 0.51243171)
(0 -6.228821e-07 0.51247545)
(0 -1.1154397e-05 0.51151217)
(0 -7.9064334e-06 0.4966885)
(0 -5.4965634e-06 0.35301919)
(0 0.0030983524 0.32667087)
(0 0.0057074783 0.49938428)
(0 0.0051421694 0.51433196)
(0 0.0056058597 0.51394613)
(0 0.0055104458 0.51369524)
(0 0.0055763127 0.51354327)
(0 0.0055751063 0.51337697)
(0 0.0055499467 0.51319573)
(0 0.0054944642 0.51300519)
(0 0.0054089901 0.51281058)
(0 0.0052945425 0.51261664)
(0 0.0051527323 0.51242755)
(0 0.0049856647 0.51224693)
(0 0.0047957748 0.51207783)
(0 0.0045857043 0.51192273)
(0 0.0043582043 0.51178363)
(0 0.0041160659 0.51166207)
(0 0.0038620734 0.5115592)
(0 0.0035989762 0.51147582)
(0 0.0033294766 0.51141244)
(0 0.0030562273 0.51136931)
(0 0.0027818363 0.51134641)
(0 0.0025088744 0.51134351)
(0 0.0022398825 0.51136011)
(0 0.0019773755 0.5113955)
(0 0.0017238375 0.51144867)
(0 0.0014817074 0.5115183)
(0 0.0012533496 0.51160276)
(0 0.0010410072 0.51170002)
(0 0.00084673544 0.51180765)
(0 0.00067231291 0.5119228)
(0 0.00051913501 0.51204218)
(0 0.00038807671 0.5121621)
(0 0.00027939168 0.5122786)
(0 0.00019253809 0.51238731)
(0 0.00012606265 0.51248182)
(0 7.7766453e-05 0.51250737)
(0 4.3774527e-05 0.51153009)
(0 2.0201308e-05 0.49669987)
(0 -5.7310143e-07 0.35302238)
(0 0.0030923273 0.32661821)
(0 0.0056727413 0.49931008)
(0 0.005074928 0.51426061)
(0 0.0055094995 0.51389558)
(0 0.0053881719 0.51366555)
(0 0.0054331506 0.51353657)
(0 0.0054154682 0.51339578)
(0 0.0053788453 0.51324153)
(0 0.0053166795 0.5130785)
(0 0.0052290605 0.51291105)
(0 0.0051166007 0.51274323)
(0 0.0049804383 0.51257867)
(0 0.0048221755 0.5124206)
(0 0.0046437466 0.51227176)
(0 0.004447317 0.51213448)
(0 0.0042351987 0.51201064)
(0 0.0040097871 0.51190175)
(0 0.0037735134 0.51180895)
(0 0.0035288134 0.51173306)
(0 0.0032781076 0.51167464)
(0 0.0030237906 0.51163395)
(0 0.0027682262 0.51161103)
(0 0.0025137453 0.51160566)
(0 0.0022626437 0.5116174)
(0 0.002017177 0.51164557)
(0 0.0017795492 0.51168919)
(0 0.0015518933 0.51174706)
(0 0.0013362404 0.51181762)
(0 0.0011344763 0.51189904)
(0 0.00094828292 0.51198911)
(0 0.00077906573 0.51208531)
(0 0.00062786864 0.5121848)
(0 0.00049527596 0.51228442)
(0 0.00038132631 0.51238083)
(0 0.00028541339 0.51247048)
(0 0.00020618794 0.51254769)
(0 0.00014176162 0.5125586)
(0 8.8589974e-05 0.51157044)
(0 4.3841578e-05 0.49673419)
(0 3.9884578e-06 0.35304027)
(0 0.0030871537 0.32658284)
(0 0.0056434146 0.49926467)
(0 0.0050183892 0.51421826)
(0 0.0054284036 0.51387032)
(0 0.0052849834 0.5136574)
(0 0.0053119039 0.51354737)
(0 0.0052796923 0.51342777)
(0 0.0052326332 0.51329613)
(0 0.0051639919 0.51315635)
(0 0.0050737238 0.51301208)
(0 0.0049621627 0.51286675)
(0 0.004830101 0.51272352)
(0 0.0046787547 0.51258522)
(0 0.0045096591 0.51245432)
(0 0.0043245865 0.51233295)
(0 0.0041254752 0.51222286)
(0 0.0039143724 0.51212547)
(0 0.0036933897 0.51204189)
(0 0.0034646702 0.51197295)
(0 0.0032303647 0.5119192)
(0 0.0029926161 0.51188092)
(0 0.0027535473 0.51185818)
(0 0.0025152531 0.5118508)
(0 0.0022797903 0.51185838)
(0 0.0020491679 0.51188028)
(0 0.0018253305 0.51191562)
(0 0.0016101367 0.51196325)
(0 0.0014053291 0.51202178)
(0 0.0012124939 0.51208954)
(0 0.0010330122 0.51216458)
(0 0.00086799979 0.51224467)
(0 0.00071824138 0.51232737)
(0 0.00058411864 0.51240999)
(0 0.00046554354 0.51248974)
(0 0.00036190172 0.51256366)
(0 0.00027196481 0.51262674)
(0 0.0001941397 0.51262578)
(0 0.00012526231 0.51162887)
(0 6.3610137e-05 0.49678685)
(0 8.0106981e-06 0.35307075)
(0 0.0030827048 0.32656214)
(0 0.0056185504 0.49924348)
(0 0.0049706254 0.51420034)
(0 0.0053598457 0.51386655)
(0 0.0051975421 0.51366775)
(0 0.0052088492 0.51357343)
(0 0.0051638657 0.5134715)
(0 0.0051073931 0.51335887)
(0 0.0050326284 0.51323877)
(0 0.0049394634 0.51311428)
(0 0.0048280435 0.51298832)
(0 0.0046989095 0.51286359)
(0 0.0045529819 0.51274259)
(0 0.004391479 0.51262752)
(0 0.0042158505 0.51252028)
(0 0.0040277184 0.5124225)
(0 0.003828827 0.5123355)
(0 0.0036210021 0.51226032)
(0 0.0034061185 0.51219777)
(0 0.0031860749 0.51214838)
(0 0.0029627747 0.51211245)
(0 0.0027381102 0.51209007)
(0 0.0025139495 0.51208109)
(0 0.0022921232 0.51208515)
(0 0.0020744097 0.51210167)
(0 0.0018625171 0.51212985)
(0 0.0016580605 0.51216866)
(0 0.0014625337 0.51221683)
(0 0.0012772733 0.51227288)
(0 0.0011034174 0.51233509)
(0 0.00094185768 0.51240153)
(0 0.00079318753 0.51247007)
(0 0.0006576499 0.51253847)
(0 0.00053508791 0.51260435)
(0 0.00042491331 0.51266529)
(0 0.00032602789 0.51271676)
(0 0.00023710871 0.51270612)
(0 0.00015533562 0.51170205)
(0 7.9976145e-05 0.4968544)
(0 1.1405325e-05 0.35311175)
(0 0.0030788729 0.32655394)
(0 0.0055973888 0.49924275)
(0 0.0049301043 0.51420309)
(0 0.0053016521 0.51388106)
(0 0.0051231672 0.51369399)
(0 0.0051209672 0.51361277)
(0 0.0050647783 0.51352565)
(0 0.0049998693 0.51342903)
(0 0.0049194088 0.51332564)
(0 0.0048232705 0.51321805)
(0 0.0047114753 0.51310874)
(0 0.0045843816 0.51300006)
(0 0.0044426846 0.51289417)
(0 0.0042873512 0.51279301)
(0 0.004119567 0.51269829)
(0 0.0039406877 0.51261148)
(0 0.003752196 0.5125338)
(0 0.0035556648 0.51246623)
(0 0.0033527264 0.51240952)
(0 0.0031450477 0.51236418)
(0 0.0029343087 0.51233053)
(0 0.0027221856 0.51230864)
(0 0.0025103339 0.51229842)
(0 0.0023003731 0.51229954)
(0 0.00209387 0.51231149)
(0 0.0018923194 0.51233355)
(0 0.0016971221 0.51236479)
(0 0.0015095581 0.5124041)
(0 0.0013307559 0.51245016)
(0 0.0011616577 0.51250146)
(0 0.001002981 0.51255634)
(0 0.00085517855 0.51261297)
(0 0.00071840036 0.51266944)
(0 0.00059245771 0.51272379)
(0 0.00047680775 0.51277397)
(0 0.00037048193 0.51281589)
(0 0.0002723985 0.5127973)
(0 0.00018002518 0.51178731)
(0 9.3451065e-05 0.49693414)
(0 1.4216506e-05 0.35316146)
(0 0.0030755673 0.32655644)
(0 0.005579315 0.49925939)