/*--------------------------------*- C++ -*----------------------------------*\
  =========                 |
  \\      /  F ield         | OpenFOAM: The Open Source CFD Toolbox
   \\    /   O peration     | Website:  https://openfoam.org
    \\  /    A nd           | Version:  10
     \\/     M anipulation  |
\*---------------------------------------------------------------------------*/
FoamFile
{
    format      ascii;
    class       surfaceScalarField;
    location    "0.02";
    object      phi;
}
// * * * * * * * * * * * * * * * * * * * * * * * * * * * * * * * * * * * * * //

dimensions      [1 0 -1 0 0 0 0];

internalField   nonuniform List<scalar> 
7860
(
3.9014032e-08
5.2969746e-07
1.1843395e-08
5.9587439e-07
7.1386137e-09
5.7341267e-07
5.1612476e-09
5.7068518e-07
3.7986207e-09
5.7007038e-07
2.9228468e-09
5.6958351e-07
2.3163478e-09
5.6931422e-07
1.8692759e-09
5.6915478e-07
1.5290719e-09
5.690479e-07
1.2628273e-09
5.6897393e-07
1.0488693e-09
5.6892164e-07
8.7276547e-10
5.6888378e-07
7.2455141e-10
5.6885589e-07
5.9713225e-10
5.6883509e-07
4.8532522e-10
5.6881947e-07
3.8524353e-10
5.6880774e-07
2.9388786e-10
5.6879901e-07
2.088674e-10
5.6879268e-07
1.2820217e-10
5.6878832e-07
5.0176056e-11
5.6878568e-07
-2.678132e-11
5.6878461e-07
-1.0419573e-10
5.6878507e-07
-1.8364498e-10
5.687871e-07
-2.6686268e-10
5.6879087e-07
-3.5586469e-10
5.6879666e-07
-4.5310978e-10
5.6880491e-07
-5.6172202e-10
5.6881628e-07
-6.8581188e-10
5.6883176e-07
-8.309572e-10
5.6885282e-07
-1.0049477e-09
5.6888166e-07
-1.2190169e-09
5.6892175e-07
-1.4899816e-09
5.6897865e-07
-1.8434499e-09
5.6906116e-07
-2.3202558e-09
5.6918451e-07
-3.003996e-09
5.6939146e-07
-4.0661829e-09
5.6976992e-07
-5.6458316e-09
5.7028741e-07
-9.1105504e-09
5.7217251e-07
-2.8734428e-08
5.8833171e-07
5.3997357e-07
5.8124838e-08
4.7160529e-07
3.5078189e-08
6.1890897e-07
2.1371692e-08
5.8711566e-07
1.510985e-08
5.7694711e-07
1.127238e-08
5.7390788e-07
8.7177084e-09
5.7213819e-07
6.9094778e-09
5.7112246e-07
5.5784508e-09
5.7048582e-07
4.5670594e-09
5.700593e-07
3.774972e-09
5.6976603e-07
3.1378555e-09
5.6955877e-07
2.6128721e-09
5.6940877e-07
2.1704111e-09
5.6929836e-07
1.7894386e-09
5.6921607e-07
1.4546168e-09
5.691543e-07
1.1544567e-09
5.6910791e-07
8.8010075e-10
5.6907338e-07
6.2449381e-10
5.6904829e-07
3.8179615e-10
5.6903103e-07
1.4694651e-10
5.6902054e-07
-8.4682492e-11
5.6901625e-07
-3.1758182e-10
5.6901798e-07
-5.5639346e-10
5.6902593e-07
-8.0621998e-10
5.6904071e-07
-1.0729906e-09
5.6906344e-07
-1.3639388e-09
5.6909586e-07
-1.6882619e-09
5.6914061e-07
-2.0580758e-09
5.6920158e-07
-2.4898546e-09
5.692846e-07
-3.0066684e-09
5.6939849e-07
-3.6417886e-09
5.6955688e-07
-4.4450358e-09
5.6978191e-07
-5.4940889e-09
5.7011023e-07
-6.9114146e-09
5.7060185e-07
-8.9050397e-09
5.7138509e-07
-1.1896288e-08
5.7276118e-07
-1.6728115e-08
5.7511924e-07
-2.6526271e-08
5.8197067e-07
-4.4114165e-08
6.0591961e-07
4.9585941e-07
5.7483589e-08
4.1421232e-07
4.734841e-08
6.2903982e-07
3.0942101e-08
6.0350841e-07
2.2737116e-08
5.851511e-07
1.7505543e-08
5.7913959e-07
1.3770781e-08
5.7587297e-07
1.103284e-08
5.7386041e-07
8.9798614e-09
5.7253881e-07
7.3975434e-09
5.7164163e-07
6.144603e-09
5.7101898e-07
5.1279653e-09
5.7057541e-07
4.2839927e-09
5.7025276e-07
3.5680273e-09
5.7001433e-07
2.9480231e-09
5.6983608e-07
2.4004114e-09
5.6970192e-07
1.907409e-09
5.6960093e-07
1.4552203e-09
5.6952558e-07
1.0327973e-09
5.6947073e-07
6.3095269e-10
5.6943288e-07
2.4169582e-10
5.6940981e-07
-1.4229013e-10
5.6940025e-07
-5.2810463e-10
5.694038e-07
-9.2307132e-10
5.694209e-07
-1.3352099e-09
5.6945286e-07
-1.7737895e-09
5.6950203e-07
-2.2500486e-09
5.6957213e-07
-2.7781781e-09
5.6966875e-07
-3.3767296e-09
5.6980014e-07
-4.0707075e-09
5.6997859e-07
-4.8947723e-09
5.7022256e-07
-5.8981846e-09
5.705603e-07
-7.1528012e-09
5.7103654e-07
-8.767456e-09
5.7172489e-07
-1.0907669e-08
5.7274207e-07
-1.3814176e-08
5.7429161e-07
-1.787229e-08
5.768193e-07
-2.403757e-08
5.8128453e-07
-3.5682072e-08
5.9361518e-07
-4.5262341e-08
6.1549989e-07
4.5059708e-07
5.1283796e-08
3.6308838e-07
5.2335332e-08
6.280087e-07
3.6487131e-08
6.1932605e-07
2.7571056e-08
5.9406228e-07
2.1912043e-08
5.8479901e-07
1.7649733e-08
5.8013538e-07
1.4389411e-08
5.7712074e-07
1.1867521e-08
5.750607e-07
9.8751055e-09
5.7363405e-07
8.2671018e-09
5.7262699e-07
6.9423109e-09
5.7190021e-07
5.828415e-09
5.7136666e-07
4.87324e-09
5.7096951e-07
4.0385152e-09
5.7067081e-07
3.295574e-09
5.7044487e-07
2.6224555e-09
5.7027405e-07
2.001899e-09
5.7014614e-07
1.4199253e-09
5.7005271e-07
8.6480066e-10
5.6998802e-07
3.2624701e-10
5.6994837e-07
-2.0517809e-10
5.6993168e-07
-7.3864199e-10
5.6993727e-07
-1.2835689e-09
5.6996584e-07
-1.8502028e-09
5.700195e-07
-2.4502654e-09
5.701021e-07
-3.0977943e-09
5.7021967e-07
-3.8102626e-09
5.7038122e-07
-4.6101427e-09
5.7060003e-07
-5.5271491e-09
5.7089561e-07
-6.6015465e-09
5.7129697e-07
-7.8889801e-09
5.7184774e-07
-9.4671408e-09
5.726147e-07
-1.1446967e-08
5.7370472e-07
-1.3989086e-08
5.752842e-07
-1.7299951e-08
5.7760248e-07
-2.1663726e-08
5.8118309e-07
-2.8196216e-08
5.8781703e-07
-3.9685878e-08
6.0510485e-07
-4.2168281e-08
6.179823e-07
4.084288e-07
4.3329061e-08
3.2007169e-07
5.2648525e-08
6.1877111e-07
3.9414402e-08
6.325107e-07
3.0293154e-08
6.031709e-07
2.4630898e-08
5.9046182e-07
2.0304578e-08
5.8446199e-07
1.6876688e-08
5.8054864e-07
1.4133292e-08
5.778041e-07
1.1901525e-08
5.7586582e-07
1.0056475e-08
5.7447204e-07
8.5054229e-09
5.7345126e-07
7.1790156e-09
5.7269307e-07
6.0254049e-09
5.7212312e-07
5.0053052e-09
5.7169091e-07
4.0884686e-09
5.7136171e-07
3.2511742e-09
5.7111135e-07
2.4743951e-09
5.7092292e-07
1.7424507e-09
5.7078465e-07
1.0419886e-09
5.7068848e-07
3.61188e-10
5.7062917e-07
-3.1087142e-10
5.7060374e-07
-9.8480069e-10
5.706112e-07
-1.6714573e-09
5.7065249e-07
-2.3825168e-09
5.7073056e-07
-3.1311411e-09
5.7085073e-07
-3.9327943e-09
5.7102132e-07
-4.8063002e-09
5.7125473e-07
-5.7752571e-09
5.7156899e-07
-6.8699599e-09
5.7199031e-07
-8.130066e-09
5.7255708e-07
-9.6083607e-09
5.7332604e-07
-1.1375284e-08
5.7438163e-07
-1.3525214e-08
5.7585466e-07
-1.61904e-08
5.7794938e-07
-1.9540452e-08
5.8095254e-07
-2.3853485e-08
5.8549612e-07
-3.040052e-08
5.9436406e-07
-4.0411574e-08
6.1511591e-07
-3.7063565e-08
6.1463429e-07
3.7136525e-07
3.4488992e-08
2.8634763e-07
4.9001695e-08
6.0453919e-07
4.0002619e-08
6.4145912e-07
3.147315e-08
6.1167452e-07
2.610331e-08
5.9583085e-07
2.199425e-08
5.8857149e-07
1.8631685e-08
5.8391124e-07
1.5845584e-08
5.805902e-07
1.3508784e-08
5.7820263e-07
1.1524842e-08
5.7645599e-07
9.8180887e-09
5.7515803e-07
8.3297096e-09
5.7418146e-07
7.0138861e-09
5.7343896e-07
5.8344507e-09
5.7287036e-07
4.7625444e-09
5.7243363e-07
3.7748111e-09
5.7209909e-07
2.8519916e-09
5.7184575e-07
1.9778346e-09
5.7165882e-07
1.1382335e-09
5.7152809e-07
3.2052435e-10
5.7144689e-07
-4.870868e-10
5.7141136e-07
-1.296074e-09
5.714202e-07
-2.1181078e-09
5.7147454e-07
-2.965572e-09
5.7157804e-07
-3.8521565e-09
5.7173732e-07
-4.7935424e-09
5.7196272e-07
-5.8082467e-09
5.7226945e-07
-6.9186891e-09
5.7267944e-07
-8.1525333e-09
5.7322417e-07
-9.5443863e-09
5.7394894e-07
-1.1138205e-08
5.7491987e-07
-1.2990388e-08
5.7623382e-07
-1.5172048e-08
5.7803633e-07
-1.7778728e-08
5.8055608e-07
-2.0940838e-08
5.8411466e-07
-2.4943952e-08
5.8949924e-07
-3.0934709e-08
6.0035483e-07
-3.8099578e-08
6.2228078e-07
-3.0288494e-08
6.0682322e-07
3.4107679e-07
2.5629353e-08
2.6228233e-07
4.2602625e-08
5.8828253e-07
3.8499686e-08
6.4555138e-07
3.1533013e-08
6.1859122e-07
2.681042e-08
6.0054687e-07
2.3126473e-08
5.9225577e-07
1.9982842e-08
5.8705502e-07
1.726938e-08
5.8330372e-07
1.4915281e-08
5.8055678e-07
1.2857893e-08
5.7851343e-07
1.1043325e-08
5.7697264e-07
9.4273504e-09
5.7579748e-07
7.9733958e-09
5.7489296e-07
6.6509972e-09
5.7419281e-07
5.4347009e-09
5.7364997e-07
4.3030512e-09
5.7323079e-07
3.2377243e-09
5.7291113e-07
2.2227961e-09
5.726738e-07
1.2441152e-09
5.7250682e-07
2.8876152e-10
5.7240229e-07
-6.5542505e-10
5.723556e-07
-1.6002962e-09
5.7236512e-07
-2.5578243e-09
5.7243211e-07
-3.5405276e-09
5.7256079e-07
-4.561931e-09
5.7275877e-07
-5.6370608e-09
5.730379e-07
-6.7830037e-09
5.7341544e-07
-8.0195439e-09
5.7391603e-07
-9.369858e-09
5.7457453e-07
-1.0861212e-08
5.7544034e-07
-1.2525835e-08
5.7658454e-07
-1.4402608e-08
5.7811064e-07
-1.6535585e-08
5.8016935e-07
-1.8974612e-08
5.8299515e-07
-2.1792807e-08
5.869329e-07
-2.5215813e-08
5.9292229e-07
-2.9928602e-08
6.0506766e-07
-3.3372146e-08
6.2572436e-07
-2.2523477e-08
5.9597458e-07
3.1855337e-07
1.7585623e-08
2.4706644e-07
3.5010001e-08
5.7218411e-07
3.5618815e-08
6.4500676e-07
3.0980733e-08
6.231358e-07
2.7219873e-08
6.0428788e-07
2.4105452e-08
5.9537005e-07
2.1285932e-08
5.89875e-07
1.8723819e-08
5.8586596e-07
1.6411443e-08
5.8286924e-07
1.4324817e-08
5.8060014e-07
1.2435311e-08
5.7886224e-07
1.0715505e-08
5.7751737e-07
9.139781e-09
5.7646877e-07
7.68487e-09
5.756478e-07
6.3299831e-09
5.7500494e-07
5.0566161e-09
5.7450424e-07
3.848253e-09
5.7411957e-07
2.6900217e-09
5.7383211e-07
1.5683379e-09
5.7362859e-07
4.7055632e-10
5.7350016e-07
-6.153752e-10
5.7344161e-07
-1.7012332e-09
5.7345106e-07
-2.7988315e-09
5.735298e-07
-3.9203372e-09
5.7368237e-07
-5.0785708e-09
5.7391709e-07
-6.2872936e-09
5.742467e-07
-7.5614645e-09
5.7468969e-07
-8.9174382e-09
5.7527208e-07
-1.037302e-08
5.7603019e-07
-1.1947216e-08
5.7701462e-07
-1.3659438e-08
5.7829684e-07
-1.5529026e-08
5.7998031e-07
-1.7570604e-08
5.8221101e-07
-1.9784196e-08
5.8520882e-07
-2.217539e-08
5.8932417e-07
-2.4834325e-08
5.9558131e-07
-2.773891e-08
6.0797232e-07
-2.7308143e-08
6.2529367e-07
-1.4797735e-08
5.8346424e-07
3.0375564e-07
1.0992695e-08
2.3886197e-07
2.7457053e-08
5.5760944e-07
3.207695e-08
6.4051771e-07
3.0147749e-08
6.2490693e-07
2.7548944e-08
6.0684548e-07
2.508145e-08
5.978366e-07
2.2654532e-08
5.9230295e-07
2.0307844e-08
5.8821286e-07
1.8092237e-08
5.8508493e-07
1.6022441e-08
5.8267002e-07
1.4096119e-08
5.8078864e-07
1.2303388e-08
5.7931019e-07
1.0630443e-08
5.781418e-07
9.0621209e-09
5.7721621e-07
7.583174e-09
5.7648397e-07
6.1788796e-09
5.7590861e-07
4.8352965e-09
5.7546324e-07
3.5393034e-09
5.7512819e-07
2.2785179e-09
5.7488945e-07
1.041152e-09
5.747376e-07
-1.8418644e-10
5.7466703e-07
-1.4086702e-09
5.7467562e-07
-2.6434334e-09
5.7476464e-07
-3.899757e-09
5.7493878e-07
-5.1892069e-09
5.7520661e-07
-6.5237166e-09
5.7558129e-07
-7.915551e-09
5.760816e-07
-9.3770892e-09
5.767337e-07
-1.0920287e-08
5.7757346e-07
-1.2555603e-08
5.7865001e-07
-1.4289738e-08
5.8003105e-07
-1.6122557e-08
5.8181321e-07
-1.8040772e-08
5.841293e-07
-2.0000795e-08
5.8716892e-07
-2.1942114e-08
5.9126557e-07
-2.3773998e-08
5.9741327e-07
-2.4713406e-08
6.0891181e-07
-2.0947756e-08
6.215281e-07
-8.2172351e-09
5.7073379e-07
2.9553838e-07
6.2343939e-09
2.3538158e-07
2.0708982e-08
5.4534253e-07
2.8247969e-08
6.3313061e-07
2.8929938e-08
6.239978e-07
2.7567168e-08
6.0814275e-07
2.5786126e-08
5.996156e-07
2.3803919e-08
5.9428691e-07
2.1739194e-08
5.9027785e-07
1.968874e-08
5.871354e-07
1.7700869e-08
5.8465792e-07
1.579748e-08
5.8269206e-07
1.3985442e-08
5.8112225e-07
1.2262882e-08
5.7986438e-07
1.0623242e-08
5.7885587e-07
9.057486e-09
5.7804975e-07
7.5554185e-09
5.7741071e-07
6.1064281e-09
5.7691225e-07
4.6998807e-09
5.7653476e-07
3.325302e-09
5.7626405e-07
1.9724361e-09
5.7609049e-07
6.3121214e-10
5.7600827e-07
-7.0829448e-10
5.7601515e-07
-2.0559059e-09
5.7611227e-07
-3.4213709e-09
5.7630426e-07
-4.8143499e-09
5.7659962e-07
-6.2443051e-09
5.7701126e-07
-7.720189e-09
5.7755751e-07
-9.2498637e-09
5.7826339e-07
-1.0839074e-08
5.791627e-07
-1.2489723e-08
5.8030068e-07
-1.4196691e-08
5.8173804e-07
-1.5942487e-08
5.8355902e-07
-1.7690299e-08
5.8587713e-07
-1.9364668e-08
5.8884331e-07
-2.0845372e-08
5.927463e-07
-2.1865759e-08
5.9843369e-07
-2.1077831e-08
6.0812392e-07
-1.5063477e-08
6.1551379e-07
-3.5352026e-09
5.5920553e-07
2.9200313e-07
3.3468374e-09
2.3452086e-07
1.519364e-08
5.357329e-07
2.4250385e-08
6.2421086e-07
2.6975515e-08
6.2100204e-07
2.6784774e-08
6.0825047e-07
2.5706965e-08
6.0069012e-07
2.4217463e-08
5.9577872e-07
2.2506797e-08
5.9198883e-07
2.0702789e-08
5.8893935e-07
1.8879682e-08
5.8648097e-07
1.7079539e-08
5.8449215e-07
1.5324102e-08
5.8287763e-07
1.3622857e-08
5.8156558e-07
1.1977901e-08
5.8050078e-07
1.0386818e-08
5.7964078e-07
8.8445246e-09
5.7895295e-07
7.3444014e-09
5.7841232e-07
5.8789922e-09
5.7800011e-07
4.4404225e-09
5.7770257e-07
3.0206506e-09
5.7751021e-07
1.6116032e-09
5.7741727e-07
2.0527953e-10
5.7742143e-07
-1.2061622e-09
5.7752366e-07
-2.6302905e-09
5.7772834e-07
-4.0741539e-09
5.7804343e-07
-5.5441302e-09
5.7848119e-07
-7.0452524e-09
5.7905858e-07
-8.5803953e-09
5.7979849e-07
-1.0148889e-08
5.8073114e-07
-1.1744329e-08
5.8189607e-07
-1.3351002e-08
5.8334467e-07
-1.4937232e-08
5.851452e-07
-1.6447779e-08
5.8738763e-07
-1.7786808e-08
5.901823e-07
-1.8787814e-08
5.9374726e-07
-1.9063772e-08
5.987096e-07
-1.7072173e-08
6.0613228e-07
-1.0153504e-08
6.0859508e-07
-8.9771885e-10
5.4994971e-07
2.9110537e-07
2.0061431e-09
2.3473912e-07
1.1094367e-08
5.287268e-07
2.0208951e-08
6.1522651e-07
2.4119227e-08
6.1682567e-07
2.4894527e-08
6.0738908e-07
2.4493368e-08
6.0108698e-07
2.3524881e-08
5.9674958e-07
2.2226883e-08
5.9328716e-07
2.0743257e-08
5.9042287e-07
1.9165443e-08
5.8805867e-07
1.7550431e-08
5.8610706e-07
1.593219e-08
5.8449578e-07
1.4330278e-08
5.8316739e-07
1.2754933e-08
5.8207603e-07
1.1210326e-08
5.8118529e-07
9.6967239e-09
5.8046645e-07
8.2118916e-09
5.7989706e-07
6.7520211e-09
5.7945989e-07
5.3123494e-09
5.7914215e-07
3.8875791e-09
5.7893489e-07
2.4721701e-09
5.7883259e-07
1.0605828e-09
5.7883292e-07
-3.5250454e-10
5.7893666e-07
-1.7720018e-09
5.7914775e-07
-3.2017759e-09
5.7947311e-07
-4.6447741e-09
5.799241e-07
-6.1017307e-09
5.8051544e-07
-7.5704025e-09
5.8126707e-07
-9.0439021e-09
5.8220455e-07
-1.0508262e-08
5.8336034e-07
-1.1938795e-08
5.8477511e-07
-1.3293374e-08
5.8649969e-07
-1.4504129e-08
5.885983e-07
-1.5464951e-08
5.9114302e-07
-1.5986798e-08
5.9426901e-07
-1.5643726e-08
5.9836643e-07
-1.3062507e-08
6.0355096e-07
-6.4540337e-09
6.0198652e-07
2.4767696e-10
5.4324793e-07
2.9135304e-07
1.6874324e-09
2.3512959e-07
8.3625496e-09
5.2393754e-07
1.6388632e-08
6.0736289e-07
2.062068e-08
6.1237745e-07
2.2050881e-08
6.0588414e-07
2.2231304e-08
6.0090191e-07
2.176389e-08
5.9721895e-07
2.0895641e-08
5.9415571e-07
1.9771951e-08
5.9154646e-07
1.8491786e-08
5.8933873e-07
1.7120883e-08
5.8747787e-07
1.5701933e-08
5.8591464e-07
1.4262447e-08
5.8460679e-07
1.2819591e-08
5.8351879e-07
1.1383495e-08
5.826213e-07
9.9595094e-09
5.8189035e-07
8.5497457e-09
5.8130674e-07
7.1541495e-09
5.808554e-07
5.7712613e-09
5.8052495e-07
4.3987702e-09
5.8030729e-07
3.0339346e-09
5.8019733e-07
1.6739415e-09
5.8019283e-07
3.1626567e-10
5.8029425e-07
-1.0409522e-09
5.8050488e-07
-2.398909e-09
5.8083098e-07
-3.7564249e-09
5.8128153e-07
-5.1102464e-09
5.8186918e-07
-6.4534443e-09
5.8261018e-07
-7.7737434e-09
5.8352476e-07
-9.0511189e-09
5.8463763e-07
-1.0254331e-08
5.8597823e-07
-1.1335178e-08
5.8758045e-07
-1.2220319e-08
5.8948335e-07
-1.2803131e-08
5.9172575e-07
-1.2900827e-08
5.9436661e-07
-1.2124489e-08
5.9759e-07
-9.4791157e-09
6.0090549e-07
-3.998331e-09
5.9650565e-07
4.0805088e-10
5.3884149e-07
2.917611e-07
1.8491486e-09
2.3531714e-07
6.7402578e-09
5.2078533e-07
1.311049e-08
6.0121906e-07
1.703023e-08
6.0831353e-07
1.8776998e-08
6.0408169e-07
1.9381324e-08
6.0029329e-07
1.9335585e-08
5.9726601e-07
1.8859243e-08
5.946323e-07
1.8086089e-08
5.9231956e-07
1.7112778e-08
5.9031198e-07
1.6007175e-08
5.8858341e-07
1.48164e-08
5.8710536e-07
1.3573031e-08
5.858501e-07
1.229927e-08
5.847925e-07
1.1009968e-08
5.8391055e-07
9.7147616e-09
5.8318551e-07
8.4196074e-09
5.8260184e-07
7.1279072e-09
5.8214705e-07
5.841337e-09
5.8181147e-07
4.560483e-09
5.8158809e-07
3.2853515e-09
5.8147242e-07
2.0158069e-09
5.8146232e-07
7.5197767e-10
5.8155802e-07
-5.0525131e-10
5.8176206e-07
-1.7536768e-09
5.8207936e-07
-2.9893384e-09
5.8251714e-07
-4.2054404e-09
5.8308523e-07
-5.3912572e-09
5.8379594e-07
-6.5305785e-09
5.8466403e-07
-7.5995245e-09
5.8570652e-07
-8.5635248e-09
5.8694218e-07
-9.3730624e-09
5.8838993e-07
-9.9569969e-09
5.9006723e-07
-1.0217507e-08
5.919862e-07
-1.0001146e-08
5.941502e-07
-9.0045204e-09
5.9659332e-07
-6.6317202e-09
5.9853263e-07
-2.5456987e-09
5.9241957e-07
2.0098655e-10
5.3609478e-07
2.919621e-07
2.1073574e-09
2.3525681e-07
5.8662999e-09
5.1868652e-07
1.0581159e-08
5.9679728e-07
1.386951e-08
6.0494892e-07
1.5649443e-08
6.0226516e-07
1.6496015e-08
5.9944324e-07
1.6751556e-08
5.970112e-07
1.6585895e-08
5.9479814e-07
1.6111509e-08
5.9279393e-07
1.5414547e-08
5.9100892e-07
1.455901e-08
5.8943894e-07
1.3592027e-08
5.8807232e-07
1.2548039e-08
5.8689407e-07
1.1451996e-08
5.8588853e-07
1.0321821e-08
5.8504071e-07
9.1702547e-09
5.8433706e-07
8.0062488e-09
5.8376583e-07
6.8360406e-09
5.8331724e-07
5.6639782e-09
5.8298352e-07
4.4931815e-09
5.8275888e-07
3.3260909e-09
5.8263949e-07
2.1649548e-09
5.8262344e-07
1.0122888e-09
5.8271068e-07
-1.2861149e-10
5.8290294e-07
-1.2531789e-09
5.8320391e-07
-2.3548431e-09
5.8361879e-07
-3.4242888e-09
5.8415466e-07
-4.4483501e-09
5.8481999e-07
-5.4086822e-09
5.8562435e-07
-6.2800061e-09
5.8657783e-07
-7.0277934e-09
5.8768996e-07
-7.6055301e-09
5.8896766e-07
-7.9504725e-09
5.9041216e-07
-7.9806871e-09
5.920164e-07
-7.5822275e-09
5.9375172e-07
-6.5507853e-09
5.9556186e-07
-4.5941412e-09
5.9657597e-07
-1.7533005e-09
5.8957871e-07
-3.6063644e-11
5.3437755e-07
2.9192605e-07
2.2890451e-09
2.350346e-07
5.4063548e-09
5.171978e-07
8.8057585e-09
5.9373771e-07
1.1406615e-08
6.0232073e-07
1.3037914e-08
6.0061177e-07
1.3966685e-08
5.9851189e-07
1.4396761e-08
5.9658146e-07
1.4444115e-08
5.9475091e-07
1.4195278e-08
5.9304278e-07
1.3720972e-08
5.9148324e-07
1.3077064e-08
5.9008285e-07
1.2307056e-08
5.8884234e-07
1.1444376e-08
5.8775676e-07
1.0514492e-08
5.8681842e-07
9.536688e-09
5.8601852e-07
8.5254938e-09
5.8534826e-07
7.4918502e-09
5.8479948e-07
6.4440438e-09
5.8436506e-07
5.3884665e-09
5.840391e-07
4.3302468e-09
5.8381711e-07
3.2737921e-09
5.8369596e-07
2.2232807e-09
5.8367396e-07
1.1831299e-09
5.8375084e-07
1.5846807e-10
5.8392761e-07
-8.4429003e-10
5.8420668e-07
-1.8169107e-09
5.8459142e-07
-2.7485588e-09
5.8508632e-07
-3.6249513e-09
5.8569639e-07
-4.4273157e-09
5.8642672e-07
-5.1311304e-09
5.8728166e-07
-5.7046203e-09
5.8826346e-07
-6.1073024e-09
5.8937035e-07
-6.2881777e-09
5.9059304e-07
-6.1844808e-09
5.9191271e-07
-5.7201778e-09
5.9328743e-07
-4.7768118e-09
5.946185e-07
-3.2442698e-09
5.9504344e-07
-1.3186492e-09
5.8765311e-07
-1.7049928e-10
5.3322942e-07
2.9175557e-07
2.3638225e-09
2.3474989e-07
5.1285979e-09
5.1605109e-07
7.6314543e-09
5.9159686e-07
9.6384025e-09
6.0031464e-07
1.1041e-08
5.9919613e-07
1.1941108e-08
5.9760993e-07
1.2441803e-08
5.960809e-07
1.2613497e-08
5.9457929e-07
1.2517309e-08
5.9313899e-07
1.2207264e-08
5.917933e-07
1.1729043e-08
5.9056109e-07
1.1120259e-08
5.8945114e-07
1.041127e-08
5.8846577e-07
9.6262971e-09
5.8760341e-07
8.7845178e-09
5.8686032e-07
7.9010615e-09
5.8623173e-07
6.9878879e-09
5.8571267e-07
6.0545407e-09
5.8529842e-07
5.1087938e-09
5.8498487e-07
4.1572123e-09
5.847687e-07
3.2056512e-09
5.8464753e-07
2.2597136e-09
5.8461992e-07
1.3251958e-09
5.8468537e-07
4.0852225e-10
5.848443e-07
-4.827298e-10
5.8509795e-07
-1.3394119e-09
5.8544812e-07
-2.1500943e-09
5.8589702e-07
-2.9004851e-09
5.864468e-07
-3.5726918e-09
5.8709895e-07
-4.1444422e-09
5.8785342e-07
-4.5883173e-09
5.8870735e-07
-4.87126e-09
5.8965331e-07
-4.9545413e-09
5.9067634e-07
-4.7939726e-09
5.9175216e-07
-4.3435588e-09
5.9283703e-07
-3.5452642e-09
5.9382022e-07
-2.3759952e-09
5.9387418e-07
-1.0447898e-09
5.8632192e-07
-2.0362352e-10
5.3238827e-07
2.9155196e-07
2.3639707e-09
2.3446888e-07
4.9130871e-09
5.1511463e-07
6.8552603e-09
5.900218e-07
8.4080516e-09
5.9877596e-07
9.5735625e-09
5.9802242e-07
1.0386164e-08
5.9679599e-07
1.0888438e-08
5.9557867e-07
1.1118287e-08
5.9434948e-07
1.1115539e-08
5.9314175e-07
1.0919039e-08
5.9198981e-07
1.0564187e-08
5.9091595e-07
1.0081865e-08
5.8993347e-07
9.4982729e-09
5.8904937e-07
8.8352608e-09
5.8826643e-07
8.1108574e-09
5.8758473e-07
7.3398693e-09
5.8700273e-07
6.5344765e-09
5.8651808e-07
5.7047912e-09
5.8612812e-07
4.8593696e-09
5.858303e-07
4.005679e-09
5.8562241e-07
3.1505274e-09
5.855027e-07
2.3004671e-09
5.8546999e-07
1.4621892e-09
5.8552366e-07
6.4290659e-10
5.856636e-07
-1.492261e-10
5.8589009e-07
-9.0471854e-10
5.8620362e-07
-1.6122872e-09
5.866046e-07
-2.2583946e-09
5.8709292e-07
-2.8268349e-09
5.876674e-07
-3.2983422e-09
5.8832494e-07
-3.6503857e-09
5.890594e-07
-3.8573172e-09
5.8986025e-07
-3.8913078e-09
5.9071034e-07
-3.7235512e-09
5.9158442e-07
-3.3288863e-09
5.9244238e-07
-2.6847672e-09
5.9317612e-07
-1.7994084e-09
5.9298884e-07
-8.3557131e-10
5.853581e-07
-1.8108461e-10
5.3173381e-07
2.9137088e-07
2.3303656e-09
2.3422084e-07
4.71862e-09
5.143332e-07
6.310097e-09
5.8879522e-07
7.5336854e-09
5.9757175e-07
8.4893617e-09
5.9706091e-07
9.1943738e-09
5.9608995e-07
9.660941e-09
5.9511211e-07
9.9066173e-09
5.9410383e-07
9.9554416e-09
5.9309294e-07
9.8339888e-09
5.9211127e-07
9.5685579e-09
5.9118139e-07
9.1835343e-09
5.9031851e-07
8.7006792e-09
5.8953224e-07
8.1389522e-09
5.8882817e-07
7.5146285e-09
5.8820906e-07
6.8415793e-09
5.8767579e-07
6.1316236e-09
5.8722804e-07
5.3949066e-09
5.8686484e-07
4.6402765e-09
5.8658494e-07
3.8756496e-09
5.8638704e-07
3.1083606e-09
5.8627e-07
2.3454993e-09
5.8623286e-07
1.5942387e-09
5.8627493e-07
8.6215653e-10
5.8639569e-07
1.5755862e-10
5.865947e-07
-5.102061e-10
5.868714e-07
-1.1304496e-09
5.8722485e-07
-1.6908227e-09
5.876533e-07
-2.1771815e-09
5.8815377e-07
-2.5734286e-09
5.887212e-07
-2.861701e-09
5.8934768e-07
-3.0228542e-09
5.9002141e-07
-3.0377549e-09
5.9072525e-07
-2.8888866e-09
5.9143556e-07
-2.5641258e-09
5.9211763e-07
-2.0584679e-09
5.9267047e-07
-1.3863906e-09
5.9231677e-07
-6.5842976e-10
5.8463015e-07
-1.4181334e-10
5.3121721e-07
2.9122908e-07
2.2899484e-09
2.3401128e-07
4.5412676e-09
5.1368212e-07
5.8938526e-09
5.878042e-07
6.8783595e-09
5.9660883e-07
7.660835e-09
5.9627379e-07
8.2599802e-09
5.9548994e-07
8.6753564e-09
5.9469673e-07
8.9130511e-09
5.9386615e-07
8.9864502e-09
5.9301955e-07
8.9130044e-09
5.9218472e-07
8.7116352e-09
5.9138277e-07
8.4010565e-09
5.9062909e-07
7.9988496e-09
5.8993445e-07
7.5210103e-09
5.8930601e-07
6.9818073e-09
5.8874827e-07
6.3938342e-09
5.8826377e-07
5.7681733e-09
5.8785371e-07
5.1146218e-09
5.875184e-07
4.4419482e-09
5.8725762e-07
3.75816e-09
5.8707084e-07
3.0707732e-09
5.8695739e-07
2.3870786e-09
5.8691656e-07
1.7144017e-09
5.8694761e-07
1.0603562e-09
5.8704974e-07
4.3308578e-10
5.8722197e-07
-1.5850981e-10
5.87463e-07
-7.0457877e-10
5.8777093e-07
-1.1942233e-09
5.8814295e-07
-1.6153356e-09
5.8857488e-07
-1.9548075e-09
5.8906068e-07
-2.1988208e-09
5.895917e-07
-2.3334796e-09
5.9015608e-07
-2.3460793e-09
5.9073786e-07
-2.2266784e-09
5.9131616e-07
-1.970655e-09
5.9186161e-07
-1.5802662e-09
5.9228009e-07
-1.0682863e-09
5.918048e-07
-5.0752593e-10
5.840694e-07
-1.0512706e-10
5.3081482e-07
2.9112396e-07
2.254162e-09
2.3383572e-07
4.3860399e-09
5.1314415e-07
5.5569881e-09
5.8699266e-07
6.3612739e-09
5.9582756e-07
7.0036392e-09
5.9562753e-07
7.5075366e-09
5.9498528e-07
7.8682942e-09
5.9433597e-07
8.0860659e-09
5.936484e-07
8.1675329e-09
5.9293809e-07
8.1237348e-09
5.9222853e-07
7.9679589e-09
5.9153855e-07
7.7142783e-09
5.9088278e-07
7.3766222e-09
5.9027211e-07
6.9682192e-09
5.8971442e-07
6.5013182e-09
5.8921518e-07
5.987095e-09
5.88778e-07
5.4356835e-09
5.8840513e-07
4.8562851e-09
5.880978e-07
4.2573245e-09
5.8785658e-07
3.6466322e-09
5.8768153e-07
3.0316397e-09
5.8757239e-07
2.4195781e-09
5.8752863e-07
1.8176742e-09
5.8754952e-07
1.2333375e-09
5.8763408e-07
6.7433264e-10
5.8778098e-07
1.4892131e-10
5.8798841e-07
-3.3402302e-10
5.8825388e-07
-7.6497487e-10
5.8857391e-07
-1.1338221e-09
5.8894374e-07
-1.4300446e-09
5.8935691e-07
-1.6431169e-09
5.8980478e-07
-1.7631454e-09
5.9027611e-07
-1.781936e-09
5.9075666e-07
-1.6943292e-09
5.9122856e-07
-1.4997194e-09
5.9166701e-07
-1.2027961e-09
5.9198317e-07
-8.1361486e-10
5.9141563e-07
-3.8250661e-10
5.836383e-07
-7.6218831e-11
5.3050855e-07
2.9104775e-07
2.2251259e-09
2.3368784e-07
4.2551486e-09
5.1270255e-07
5.2783825e-09
5.8632781e-07
5.9407446e-09
5.9518957e-07
6.4691013e-09
5.9509585e-07
6.8902036e-09
5.9456348e-07
7.1984128e-09
5.9402775e-07
7.3910341e-09
5.9345579e-07
7.4707242e-09
5.928584e-07
7.4441794e-09
5.9225508e-07
7.3205456e-09
5.9166219e-07
7.1102528e-09
5.9109308e-07
6.8241871e-09
5.9055818e-07
6.4731363e-09
5.9006548e-07
6.0674562e-09
5.8962086e-07
5.6168994e-09
5.8922856e-07
5.1305599e-09
5.8889147e-07
4.6168987e-09
5.8861147e-07
4.0838224e-09
5.8838967e-07
3.5387949e-09
5.8822657e-07
2.9889684e-09
5.8812222e-07
2.4413222e-09
5.8807628e-07
1.9028013e-09
5.8808805e-07
1.3804458e-09
5.8815644e-07
8.8150439e-10
5.8827993e-07
4.1351564e-10
5.8845641e-07
-1.5644394e-11
5.8868304e-07
-3.977905e-10
5.8895606e-07
-7.2454835e-10
5.892705e-07
-9.8754359e-10
5.8961991e-07
-1.1788373e-09
5.8999608e-07
-1.2914888e-09
5.9038877e-07
-1.3203669e-09
5.9078554e-07
-1.2632065e-09
5.9117141e-07
-1.1214172e-09
5.9152522e-07
-9.0021046e-10
5.9176197e-07
-6.0767937e-10
5.911231e-07
-2.8135456e-10
5.8331199e-07
-5.4219108e-11
5.3028143e-07
2.9099354e-07
2.2015376e-09
2.3356255e-07
4.1467112e-09
5.1234131e-07
5.0475492e-09
5.8578493e-07
5.5947151e-09
5.9466806e-07
6.0290284e-09
5.9465869e-07
6.3788627e-09
5.9421301e-07
6.6386543e-09
5.9376795e-07
6.8044668e-09
5.9328999e-07
6.8766217e-09
5.9278625e-07
6.8589382e-09
5.9227277e-07
6.7575889e-09
5.9176355e-07
6.5802178e-09
5.9127045e-07
6.3352516e-09
5.9080315e-07
6.0314014e-09
5.9036933e-07
5.6773269e-09
5.8997494e-07
5.2814322e-09
5.8962446e-07
4.8517615e-09
5.8932115e-07
4.3959683e-09
5.8906727e-07
3.9213375e-09
5.888643e-07
3.434842e-09
5.8871307e-07
2.9432211e-09
5.8861384e-07
2.4530689e-09
5.8856644e-07
1.970924e-09
5.885702e-07
1.5033512e-09
5.8862402e-07
1.0570072e-09
5.8872628e-07
6.3867662e-10
5.8887474e-07
2.5526848e-10
5.8906645e-07
-8.6238665e-11
5.8929758e-07
-3.7893485e-10
5.895632e-07
-6.1621726e-10
5.898572e-07
-7.9212024e-10
5.9017199e-07
-9.0182206e-10
5.9049848e-07
-9.4223668e-10
5.9082596e-07
-9.1278961e-10
5.9114197e-07
-8.158246e-10
5.9142826e-07
-6.5640329e-10
5.9160255e-07
-4.4137326e-10
5.9090808e-07
-2.0027226e-10
5.830709e-07
-3.7074527e-11
5.3011824e-07
2.9095648e-07
2.181796e-09
2.3345622e-07
4.0569618e-09
5.1204644e-07
4.8566279e-09
5.8534294e-07
5.3089147e-09
5.9424254e-07
5.6647734e-09
5.943004e-07
5.9533388e-09
5.9392386e-07
6.1694211e-09
5.9355185e-07
6.3086602e-09
5.9315076e-07
6.3700693e-09
5.9272485e-07
6.3555926e-09
5.9228725e-07
6.2693004e-09
5.9184984e-07
6.1167407e-09
5.9142302e-07
5.9043922e-09
5.9101551e-07
5.6392407e-09
5.9063449e-07
5.3284706e-09
5.9028572e-07
4.9792561e-09
5.8997368e-07
4.5986333e-09
5.8970177e-07
4.1934359e-09
5.8947247e-07
3.7702777e-09
5.8928747e-07
3.3355686e-09
5.8914778e-07
2.8955515e-09
5.8905387e-07
2.4563504e-09
5.8900564e-07
2.0240208e-09
5.8900253e-07
1.6045931e-09
5.8904346e-07
1.2041016e-09
5.8912678e-07
8.2858789e-10
5.8925026e-07
4.8406805e-10
5.8941098e-07
1.7645822e-10
5.8960519e-07
-8.8572097e-11
5.8982824e-07
-3.0580671e-10
5.9007444e-07
-4.7078038e-10
5.9033697e-07
-5.8017161e-10
5.9060788e-07
-6.322386e-10
5.9087803e-07
-6.2735433e-10
5.9113709e-07
-5.6822036e-10
5.9136914e-07
-4.595226e-10
5.9149386e-07
-3.0725352e-10
5.9075582e-07
-1.3520624e-10
5.8289886e-07
-2.3287338e-11
5.3000634e-07
2.909332e-07
2.1648828e-09
2.3336615e-07
3.9821534e-09
5.118065e-07
4.6984677e-09
5.8498404e-07
5.0721382e-09
5.9389654e-07
5.3621042e-09
5.9400834e-07
5.5979882e-09
5.9368742e-07
5.7750764e-09
5.9337474e-07
5.8890034e-09
5.9303684e-07
5.9380934e-09
5.9267577e-07
5.92309e-09
5.9230226e-07
5.846593e-09
5.9192635e-07
5.7125921e-09
5.9155702e-07
5.5260435e-09
5.9120206e-07
5.2925233e-09
5.9086802e-07
5.0179585e-09
5.9056029e-07
4.7084299e-09
5.9028322e-07
4.3700383e-09
5.9004017e-07
4.0088222e-09
5.8983369e-07
3.6307148e-09
5.8966558e-07
3.241531e-09
5.8953697e-07
2.8469741e-09
5.8944843e-07
2.4526521e-09
5.8939997e-07
2.0640983e-09
5.8939109e-07
1.686785e-09
5.8942077e-07
1.3261263e-09
5.8948744e-07
9.8745785e-10
5.8958894e-07
6.7598906e-10
5.8972246e-07
3.9671725e-10
5.8988447e-07
1.5429409e-10
5.9007067e-07
-4.7161268e-11
5.902759e-07
-2.0430072e-10
5.9049411e-07
-3.1485052e-10
5.9071843e-07
-3.7793856e-10
5.9094113e-07
-3.9443528e-10
5.9115359e-07
-3.6708333e-10
5.9134179e-07
-3.0012708e-10
5.9142691e-07
-1.9890918e-10
5.9065461e-07
-8.2766857e-11
5.8278273e-07
-1.202386e-11
5.2993561e-07
2.9092118e-07
2.1502589e-09
2.3329015e-07
3.9192918e-09
5.1161234e-07
4.5667998e-09
5.8469366e-07
4.8750869e-09
5.9361664e-07
5.1094982e-09
5.9377209e-07
5.3000932e-09
5.934963e-07
5.4426777e-09
5.9323214e-07
5.5330949e-09
5.9294643e-07
5.5693541e-09
5.9263951e-07
5.5514482e-09
5.9232017e-07
5.48096e-09
5.9199684e-07
5.3607301e-09
5.9167726e-07
5.194536e-09
5.9136826e-07
4.9868153e-09
5.9107574e-07
4.7424386e-09
5.9080467e-07
4.466533e-09
5.9055913e-07
4.164352e-09
5.9034236e-07
3.8411867e-09
5.9015686e-07
3.5023077e-09
5.9000446e-07
3.1529334e-09
5.8988635e-07
2.7982142e-09
5.8980315e-07
2.4432265e-09
5.8975496e-07
2.0929706e-09
5.8974136e-07
1.7523632e-09
5.8976139e-07
1.4262211e-09
5.8981359e-07
1.1192273e-09
5.8989594e-07
8.3587416e-10
5.9000581e-07
5.8037709e-10
5.9013997e-07
3.5655577e-10
5.9029449e-07
1.6767507e-10
5.9046478e-07
1.6253045e-11
5.9064554e-07
-9.6163516e-11
5.9083085e-07
-1.6924332e-10
5.9101421e-07
-2.0408235e-10
5.9118844e-07
-2.0328752e-10
5.91341e-07
-1.7066574e-10
5.913943e-07
-1.1109214e-10
5.9059504e-07
-4.0475099e-11
5.8271212e-07
-2.6191292e-12
5.2989776e-07
2.9091857e-07
2.1376042e-09
2.3322633e-07
3.8661395e-09
5.1145663e-07
4.4565139e-09
5.8446015e-07
4.7101985e-09
5.933919e-07
4.8976393e-09
5.9358303e-07
5.0493112e-09
5.9334413e-07
5.1615454e-09
5.9311989e-07
5.2304971e-09
5.9287749e-07
5.2540849e-09
5.9261593e-07
5.2318503e-09
5.9234241e-07
5.1646809e-09
5.9206401e-07
5.054576e-09
5.9178737e-07
4.9044067e-09
5.9151844e-07
4.7176983e-09
5.9126246e-07