/*--------------------------------*- C++ -*----------------------------------*\
  =========                 |
  \\      /  F ield         | OpenFOAM: The Open Source CFD Toolbox
   \\    /   O peration     | Website:  https://openfoam.org
    \\  /    A nd           | Version:  10
     \\/     M anipulation  |
\*---------------------------------------------------------------------------*/
FoamFile
{
    format      ascii;
    class       surfaceScalarField;
    location    "0.02";
    object      phi_0;
}
// * * * * * * * * * * * * * * * * * * * * * * * * * * * * * * * * * * * * * //

dimensions      [1 0 -1 0 0 0 0];

internalField   nonuniform List<scalar> 
7860
(
3.893862e-08
5.2977379e-07
1.180326e-08
5.9583822e-07
7.1082681e-09
5.7340287e-07
5.1333913e-09
5.706827e-07
3.7759062e-09
5.7006525e-07
2.905598e-09
5.6957805e-07
2.3034442e-09
5.6930988e-07
1.8598309e-09
5.6915133e-07
1.5223557e-09
5.6904518e-07
1.2581812e-09
5.6897187e-07
1.0457403e-09
5.6892013e-07
8.707042e-10
5.6888272e-07
7.2319796e-10
5.6885518e-07
5.9620334e-10
5.6883467e-07
4.8460187e-10
5.6881927e-07
3.8456021e-10
5.6880771e-07
2.9312355e-10
5.687991e-07
2.0793887e-10
5.6879285e-07
1.2705868e-10
5.6878854e-07
4.8796328e-11
5.6878592e-07
-2.8390884e-11
5.6878485e-07
-1.0600063e-10
5.6878527e-07
-1.8558101e-10
5.6878724e-07
-2.688324e-10
5.6879091e-07
-3.5773219e-10
5.6879656e-07
-4.5469319e-10
5.6880463e-07
-5.6278412e-10
5.6881576e-07
-6.8604856e-10
5.6883094e-07
-8.2998462e-10
5.6885161e-07
-1.002289e-09
5.6887998e-07
-1.2140897e-09
5.6891949e-07
-1.4820954e-09
5.689757e-07
-1.8318415e-09
5.6905745e-07
-2.3040747e-09
5.6917994e-07
-2.9822509e-09
5.693859e-07
-4.0389308e-09
5.6976442e-07
-5.6155579e-09
5.7028439e-07
-9.0738738e-09
5.7216611e-07
-2.8667101e-08
5.8830106e-07
5.400409e-07
5.7926834e-08
4.7188802e-07
3.4909417e-08
6.1884172e-07
2.126091e-08
5.8704731e-07
1.5018612e-08
5.7692506e-07
1.1201438e-08
5.7388245e-07
8.6652823e-09
5.7211422e-07
6.8718079e-09
5.7110337e-07
5.5524928e-09
5.7047065e-07
4.5500555e-09
5.7004763e-07
3.7645606e-09
5.6975737e-07
3.1321217e-09
5.6955258e-07
2.6102871e-09
5.6940456e-07
2.1697737e-09
5.6929571e-07
1.7898196e-09
5.6921463e-07
1.4553088e-09
5.6915379e-07
1.1549317e-09
5.691081e-07
8.7997704e-10
5.6907407e-07
6.2351083e-10
5.6904932e-07
3.7979577e-10
5.6903227e-07
1.4386113e-10
5.6902187e-07
-8.8834867e-11
5.6901755e-07
-3.2269826e-10
5.6901915e-07
-5.6227966e-10
5.6902683e-07
-8.1257896e-10
5.6904122e-07
-1.079404e-09
5.690634e-07
-1.3698409e-09
5.6909508e-07
-1.6929053e-09
5.6913884e-07
-2.0604879e-09
5.6919853e-07
-2.4887864e-09
5.6927992e-07
-3.000537e-09
5.6939175e-07
-3.6286228e-09
5.6954758e-07
-4.4224226e-09
5.6976951e-07
-5.4592188e-09
5.7009425e-07
-6.861275e-09
5.7058201e-07
-8.8362946e-09
5.7136093e-07
-1.1807134e-08
5.7273527e-07
-1.6620917e-08
5.7509818e-07
-2.6375661e-08
5.8192086e-07
-4.3926974e-08
6.0585238e-07
4.9611393e-07
5.7154966e-08
4.1483572e-07
4.7005624e-08
6.2898364e-07
3.0719483e-08
6.0331767e-07
2.256881e-08
5.850746e-07
1.7380419e-08
5.79071e-07
1.3681943e-08
5.7581272e-07
1.0972419e-08
5.738129e-07
8.9412236e-09
5.7250186e-07
7.3749294e-09
5.7161393e-07
6.1333811e-09
5.7099893e-07
5.1245066e-09
5.7056146e-07
4.2854794e-09
5.702436e-07
3.5723017e-09
5.700089e-07
2.9534524e-09
5.6983349e-07
2.4057752e-09
5.6970148e-07
1.9118112e-09
5.6960207e-07
1.4580215e-09
5.6952787e-07
1.0335652e-09
5.6947379e-07
6.2942692e-10
5.6943642e-07
2.3776384e-10
5.6941354e-07
-1.4860164e-10
5.6940393e-07
-5.3663049e-10
5.6940718e-07
-9.3349891e-10
5.6942371e-07
-1.3470578e-09
5.6945479e-07
-1.7863733e-09
5.6950273e-07
-2.2624318e-09
5.6957114e-07
-2.7891049e-09
5.6966552e-07
-3.3845361e-09
5.6979397e-07
-4.0732089e-09
5.699686e-07
-4.8891246e-09
5.7020767e-07
-5.8807329e-09
5.705392e-07
-7.118893e-09
5.7100768e-07
-8.7113036e-09
5.7168668e-07
-1.0822591e-08
5.7269331e-07
-1.3692525e-08
5.7423087e-07
-1.7706905e-08
5.7674966e-07
-2.3823181e-08
5.8121447e-07
-3.5371869e-08
5.9346956e-07
-4.4930947e-08
6.1541147e-07
4.5118299e-07
5.0811662e-08
3.6420219e-07
5.1771393e-08
6.2803758e-07
3.6111419e-08
6.1894197e-07
2.7306813e-08
5.938743e-07
2.1721968e-08
5.8465641e-07
1.7517631e-08
5.8001716e-07
1.4301366e-08
5.7702917e-07
1.1811656e-08
5.7499157e-07
9.8418651e-09
5.7358373e-07
8.2492501e-09
5.7259155e-07
6.9343875e-09
5.7187633e-07
5.8263277e-09
5.7135166e-07
4.8739534e-09
5.7096127e-07
4.0397933e-09
5.7066766e-07
3.2957849e-09
5.7044549e-07
2.6204264e-09
5.7027743e-07
1.9968092e-09
5.7015149e-07
1.4112298e-09
5.7005937e-07
8.5217682e-10
5.6999547e-07
3.0955951e-10
5.6995616e-07
-2.2588943e-10
5.6993938e-07
-7.6316555e-10
5.6994446e-07
-1.3115095e-09
5.6997206e-07
-1.8809506e-09
5.7002424e-07
-2.4829473e-09
5.7010473e-07
-3.1312007e-09
5.702194e-07
-3.8427448e-09
5.7037707e-07
-4.6394701e-09
5.705907e-07
-5.5503177e-09
5.7087946e-07
-6.6145166e-09
5.7127188e-07
-7.8863483e-09
5.7181104e-07
-9.4417309e-09
5.7256307e-07
-1.1389234e-08
5.7363418e-07
-1.3886905e-08
5.7519098e-07
-1.713855e-08
5.7748252e-07
-2.1425397e-08
5.8103651e-07
-2.7855386e-08
5.8764446e-07
-3.9174672e-08
6.0478885e-07
-4.1656566e-08
6.1789337e-07
4.0952643e-07
4.2685512e-08
3.2191785e-07
5.1827004e-08
6.1899142e-07
3.8871766e-08
6.3184189e-07
2.9946311e-08
6.0278698e-07
2.4396936e-08
5.9020648e-07
2.0148545e-08
5.8426581e-07
1.6775864e-08
5.8040185e-07
1.4069954e-08
5.7769748e-07
1.1862599e-08
5.7579108e-07
1.0032632e-08
5.7442152e-07
8.4899452e-09
5.7341902e-07
7.1670998e-09
5.7267451e-07
6.0136345e-09
5.7211474e-07
4.9912577e-09
5.7169003e-07
4.0704403e-09
5.7136631e-07
3.2279842e-09
5.7111989e-07
2.4452477e-09
5.7093423e-07
1.706839e-09
5.7079779e-07
9.9962976e-10
5.7070268e-07
3.1198248e-10
5.7064381e-07
-3.6685742e-10
5.7061823e-07
-1.0473393e-09
5.7062495e-07
-1.740146e-09
5.7066487e-07
-2.4567429e-09
5.7074084e-07
-3.2100251e-09
5.7085801e-07
-4.0151028e-09
5.7102448e-07
-4.8903184e-09
5.7125229e-07
-5.8586058e-09
5.7155899e-07
-6.9493323e-09
5.7197019e-07
-8.2008417e-09
5.7252339e-07
-9.6640527e-09
5.7327425e-07
-1.1406867e-08
5.7430588e-07
-1.3519893e-08
5.7574721e-07
-1.6130326e-08
5.7780142e-07
-1.940172e-08
5.8075392e-07
-2.3599654e-08
5.8523445e-07
-2.9961479e-08
5.9400629e-07
-3.9669762e-08
6.1449713e-07
-3.6286807e-08
6.1451041e-07
3.7323965e-07
3.3615842e-08
2.8931319e-07
4.7915019e-08
6.0506244e-07
3.9345054e-08
6.4035959e-07
3.1140953e-08
6.1096169e-07
2.5932113e-08
5.9541386e-07
2.1913458e-08
5.8828485e-07
1.8606908e-08
5.8370845e-07
1.5853555e-08
5.8045086e-07
1.3534018e-08
5.7811064e-07
1.1557079e-08
5.7639849e-07
9.8504235e-09
5.751257e-07
8.357533e-09
5.7416743e-07
7.0341204e-09
5.7343818e-07
5.8450505e-09
5.7287913e-07
4.762168e-09
5.7244922e-07
3.7625979e-09
5.7211949e-07
2.8274126e-09
5.7186944e-07
1.9405917e-09
5.7168463e-07
1.0881948e-09
5.7155511e-07
2.5768405e-10
5.7147435e-07
-5.626304e-10
5.7143857e-07
-1.3841229e-09
5.7144647e-07
-2.2183517e-09
5.7149912e-07
-3.0775575e-09
5.7160007e-07
-3.9752356e-09
5.7175572e-07
-4.9267891e-09
5.7197606e-07
-5.9503309e-09
5.7227585e-07
-7.0676878e-09
5.7267637e-07
-8.3056414e-09
5.7320817e-07
-9.6974662e-09
5.7391524e-07
-1.1285058e-08
5.7486187e-07
-1.3121826e-08
5.7614268e-07
-1.5274082e-08
5.7789949e-07
-1.7829724e-08
5.8035709e-07
-2.0908774e-08
5.83833e-07
-2.4764911e-08
5.8909061e-07
-3.045312e-08
5.9969452e-07
-3.7103452e-08
6.2114748e-07
-2.915002e-08
6.0655701e-07
3.4408968e-07
2.4530408e-08
2.6672293e-07
4.1293759e-08
5.8920256e-07
3.7822306e-08
6.4381883e-07
3.1362836e-08
6.1735704e-07
2.6860991e-08
5.9990644e-07
2.3275124e-08
5.9187106e-07
2.0181308e-08
5.8680251e-07
1.7489394e-08
5.8314286e-07
1.5139782e-08
5.8046033e-07
1.3076367e-08
5.7846197e-07
1.1249235e-08
5.769529e-07
9.6166639e-09
5.7580007e-07
8.1436227e-09
5.7491129e-07
6.8006242e-09
5.742222e-07
5.5628368e-09
5.7368708e-07
4.4091998e-09
5.732732e-07
3.3216387e-09
5.7295707e-07
2.2843838e-09
5.7272196e-07
1.2833794e-09
5.7255618e-07
3.0576594e-10
5.7245203e-07
-6.6058264e-10
5.7240498e-07
-1.6274887e-09
5.7241344e-07
-2.606885e-09
5.7247859e-07
-3.6112327e-09
5.7260449e-07
-4.6539607e-09
5.7279851e-07
-5.7499363e-09
5.7307211e-07
-6.9159847e-09
5.7344197e-07
-8.1714672e-09
5.7393193e-07
-9.5388725e-09
5.7457564e-07
-1.104435e-08
5.7542079e-07
-1.2718241e-08
5.7653583e-07
-1.4596383e-08
5.7802089e-07
-1.6717759e-08
5.8002094e-07
-1.9122842e-08
5.8276224e-07
-2.1870064e-08
5.8658029e-07
-2.5128851e-08
5.9234946e-07
-2.9408807e-08
6.0397454e-07
-3.2113517e-08
6.2385225e-07
-2.1035172e-08
5.9547872e-07
3.2305455e-07
1.63834e-08
2.5307348e-07
3.35613e-08
5.7357092e-07
3.4967787e-08
6.4245507e-07
3.1019749e-08
6.2118122e-07
2.7546205e-08
6.0335493e-07
2.4544177e-08
5.9487327e-07
2.1774888e-08
5.8957244e-07
1.9230493e-08
5.856874e-07
1.6916971e-08
5.8277395e-07
1.4817745e-08
5.805613e-07
1.2908699e-08
5.7886205e-07
1.1165102e-08
5.7754376e-07
9.5629437e-09
5.7651355e-07
8.0799584e-09
5.7570528e-07
6.6959893e-09
5.7507114e-07
5.392933e-09
5.7457635e-07
4.1545301e-09
5.7419557e-07
2.9660714e-09
5.7391051e-07
1.8140773e-09
5.7370827e-07
6.8597161e-10
5.7358023e-07
-4.3025664e-10
5.735213e-07
-1.5463511e-09
5.7352963e-07
-2.6740882e-09
5.7360642e-07
-3.8255866e-09
5.7375608e-07
-5.013591e-09
5.7398661e-07
-6.2517415e-09
5.7431035e-07
-7.5547957e-09
5.7474511e-07
-8.9387741e-09
5.7531599e-07
-1.0420921e-08
5.7605788e-07
-1.2019316e-08
5.7701927e-07
-1.3751748e-08
5.7826835e-07
-1.5634624e-08
5.7990385e-07
-1.7677802e-08
5.820642e-07
-1.9871793e-08
5.8495632e-07
-2.220349e-08
5.8891207e-07
-2.4691168e-08
5.9483723e-07
-2.708183e-08
6.0636529e-07
-2.5824493e-08
6.2259501e-07
-1.3185316e-08
5.8283962e-07
3.0986923e-07
9.9093951e-09
2.4619721e-07
2.5974323e-08
5.5954585e-07
3.1377961e-08
6.3712266e-07
3.0214903e-08
6.2214501e-07
2.7959357e-08
6.0556357e-07
2.5635625e-08
5.971969e-07
2.3280357e-08
5.9192899e-07
2.0969698e-08
5.8799825e-07
1.876838e-08
5.8497532e-07
1.6698804e-08
5.8263093e-07
1.4763588e-08
5.8079732e-07
1.2955834e-08
5.7935158e-07
1.1263623e-08
5.7820582e-07
9.673046e-09
5.7729592e-07
8.1697099e-09
5.7657454e-07
6.7394928e-09
5.7600662e-07
5.3688915e-09
5.7556623e-07
4.0451137e-09
5.7523435e-07
2.7560349e-09
5.7499741e-07
1.490079e-09
5.7484624e-07
2.360367e-10
5.747754e-07
-1.0170969e-09
5.7478282e-07
-2.280287e-09
5.7486967e-07
-3.5646278e-09
5.7504047e-07
-4.8814685e-09
5.753035e-07
-6.2424767e-09
5.7567141e-07
-7.6595668e-09
5.7616226e-07
-9.1446296e-09
5.7680111e-07
-1.0708914e-08
5.7762222e-07
-1.2361829e-08
5.7867224e-07
-1.4108444e-08
5.8001502e-07
-1.5945655e-08
5.8174112e-07
-1.7855638e-08
5.8397424e-07
-1.9786553e-08
5.8688729e-07
-2.1656611e-08
5.9078219e-07
-2.3308967e-08
5.9648965e-07
-2.3766554e-08
6.0682294e-07
-1.933894e-08
6.1816746e-07
-6.8188369e-09
5.7031956e-07
3.0305035e-07
5.4834164e-09
2.4359984e-07
1.9320392e-08
5.479413e-07
2.735269e-08
6.2915303e-07
2.8683479e-08
6.2055277e-07
2.7682514e-08
6.0649749e-07
2.6089591e-08
5.9878914e-07
2.4222993e-08
5.9379752e-07
2.2237042e-08
5.8998441e-07
2.0240216e-08
5.8697212e-07
1.8288102e-08
5.8458303e-07
1.6407732e-08
5.8267767e-07
1.4609317e-08
5.8114998e-07
1.2893331e-08
5.7992179e-07
1.1254905e-08
5.7893432e-07
9.6862654e-09
5.7814316e-07
8.1781823e-09
5.7751468e-07
6.720813e-09
5.7702358e-07
5.3041522e-09
5.7665099e-07
3.918259e-09
5.7638328e-07
2.5533467e-09
5.7621114e-07
1.1997777e-09
5.7612895e-07
-1.5195533e-10
5.7613453e-07
-1.5112544e-09
5.7622894e-07
-2.8874215e-09
5.7641662e-07
-4.2896143e-09
5.7670568e-07
-5.7267226e-09
5.771085e-07
-7.2070066e-09
5.7764252e-07
-8.7374601e-09
5.7833155e-07
-1.0322712e-08
5.7920745e-07
-1.1963172e-08
5.8031268e-07
-1.3651728e-08
5.8170356e-07
-1.5367763e-08
5.8345714e-07
-1.7069905e-08
5.8567637e-07
-1.8676381e-08
5.8849375e-07
-2.0047699e-08
5.9215349e-07
-2.0879246e-08
5.9732118e-07
-1.9764725e-08
6.0570841e-07
-1.3489773e-08
6.1189251e-07
-2.6019579e-09
5.5943173e-07
3.0044834e-07
3.0193266e-09
2.4315662e-07
1.4038533e-08
5.3908513e-07
2.3077563e-08
6.2016554e-07
2.6155128e-08
6.171952e-07
2.6284633e-08
6.0629152e-07
2.5429745e-08
5.9964251e-07
2.4104972e-08
5.9512452e-07
2.2524803e-08
5.915648e-07
2.0824586e-08
5.8867223e-07
1.9084513e-08
5.8632301e-07
1.7351303e-08
5.844108e-07
1.5650171e-08
5.8285102e-07
1.3993297e-08
5.8157857e-07
1.238487e-08
5.8054266e-07
1.0824134e-08
5.7970381e-07
9.3073499e-09
5.7903138e-07
7.8290158e-09
5.7850182e-07
6.3826226e-09
5.7809729e-07
4.9611249e-09
5.7780469e-07
3.5572293e-09
5.7761495e-07
2.1635654e-09
5.7752253e-07
7.7281931e-10
5.7752519e-07
-6.2215811e-10
5.7762384e-07
-2.028206e-09
5.7782258e-07
-3.4515545e-09
5.7812894e-07
-4.8976846e-09
5.7855455e-07
-6.3705686e-09
5.7911532e-07
-7.8718135e-09
5.7983271e-07
-9.3992113e-09
5.8073476e-07
-1.0944443e-08
5.8185783e-07
-1.2489454e-08
5.8324848e-07
-1.3999591e-08
5.8496719e-07
-1.5415535e-08
5.8709223e-07
-1.6637571e-08
5.897157e-07
-1.748886e-08
5.930047e-07
-1.7583883e-08
5.9741612e-07
-1.5488323e-08
6.0361277e-07
-8.7994724e-09
6.0520358e-07
-4.8082456e-10
5.5111302e-07
2.9996749e-07
2.0492075e-09
2.4343927e-07
1.0279342e-08
5.3283304e-07
1.8845517e-08
6.1167689e-07
2.2745171e-08
6.1304902e-07
2.3737553e-08
6.0522744e-07
2.3557618e-08
5.9982015e-07
2.2781341e-08
5.9590284e-07
2.1650204e-08
5.9269614e-07
2.030996e-08
5.9001235e-07
1.8855299e-08
5.8777755e-07
1.73464e-08
5.8591959e-07
1.5820187e-08
5.8437713e-07
1.4298791e-08
5.8309987e-07
1.2794608e-08
5.8204675e-07
1.1313628e-08
5.8118469e-07
9.8576599e-09
5.8048725e-07
8.4257864e-09
5.799336e-07
7.0153498e-09
5.7950763e-07
5.6226123e-09
5.7919733e-07
4.2432162e-09
5.7899425e-07
2.8725108e-09
5.7889314e-07
1.5058258e-09
5.7889178e-07
1.3871636e-10
5.7899085e-07
-1.2328197e-09
5.7919402e-07
-2.6116002e-09
5.7950762e-07
-3.9995254e-09
5.7994237e-07
-5.3960637e-09
5.8051177e-07
-6.7975332e-09
5.8123408e-07
-8.1953851e-09
5.8213252e-07
-9.5737382e-09
5.8323609e-07
-1.0905763e-08
5.8458041e-07
-1.2147244e-08
5.8620857e-07
-1.3228072e-08
5.8817296e-07
-1.4041564e-08
5.905291e-07
-1.4401989e-08
5.9336502e-07
-1.3920933e-08
5.9693496e-07
-1.1443816e-08
6.0113555e-07
-5.4475381e-09
5.992072e-07
3.110033e-10
5.453544e-07
3.002785e-07
1.95226e-09
2.437082e-07
7.9099239e-09
5.2868138e-07
1.5051367e-08
6.0468019e-07
1.8975548e-08
6.0894554e-07
2.0485035e-08
6.0366112e-07
2.0838834e-08
5.9946371e-07
2.0552166e-08
5.9619102e-07
1.9854759e-08
5.9339374e-07
1.8887456e-08
5.9097957e-07
1.7748521e-08
5.8891641e-07
1.6504477e-08
5.8716356e-07
1.5199639e-08
5.8568189e-07
1.3863315e-08
5.8443612e-07
1.2514405e-08
5.8339558e-07
1.1164635e-08
5.8253438e-07
9.8207841e-09
5.8183103e-07
8.4862432e-09
5.8126807e-07
7.1621087e-09
5.808317e-07
5.8479706e-09
5.805114e-07
4.5424936e-09
5.8029965e-07
3.2438668e-09
5.801917e-07
1.9501894e-09
5.8018539e-07
6.5985571e-10
5.8028111e-07
-6.2800864e-10
5.8048182e-07
-1.9137873e-09
5.8079334e-07
-3.1950489e-09
5.8122357e-07
-4.467417e-09
5.8178407e-07
-5.7227121e-09
5.8248931e-07
-6.9473213e-09
5.8335706e-07
-8.1198797e-09
5.8440858e-07
-9.2079506e-09
5.8566841e-07
-1.0162887e-08
5.8716344e-07
-1.091216e-08
5.8892216e-07
-1.1352715e-08
5.9096958e-07
-1.1317554e-08
5.9332979e-07
-1.0477613e-08
5.9609494e-07
-8.0748012e-09
5.9873266e-07
-3.3676508e-09
5.9449998e-07
2.7972973e-10
5.4170698e-07
3.0055824e-07
2.1794182e-09
2.4373369e-07
6.5834936e-09
5.2597645e-07
1.2011604e-08
5.9947705e-07
1.5467446e-08
6.0538275e-07
1.7163462e-08
6.0192585e-07
1.7862713e-08
5.9876195e-07
1.7951114e-08
5.9610354e-07
1.7617387e-08
5.9372761e-07
1.6985049e-08
5.9161188e-07
1.6145877e-08
5.8975554e-07
1.5165766e-08
5.8814364e-07
1.4091597e-08
5.8675603e-07
1.2956483e-08
5.855712e-07
1.1783518e-08
5.8456852e-07
1.0588572e-08
5.837293e-07
9.3823157e-09
5.8303726e-07
8.1717098e-09
5.8247865e-07
6.9611072e-09
5.8204227e-07
5.7530844e-09
5.817194e-07
4.5490853e-09
5.8150363e-07
3.3499417e-09
5.8139082e-07
2.1563266e-09
5.8137898e-07
9.6916823e-10
5.8146825e-07
-2.0986237e-10
5.8166082e-07
-1.3776644e-09
5.8196111e-07
-2.5295217e-09
5.823754e-07
-3.6577795e-09
5.829123e-07
-4.7509178e-09
5.8358242e-07
-5.7920525e-09
5.8439817e-07
-6.7569249e-09
5.8537342e-07
-7.6111713e-09
5.8652263e-07
-8.3067683e-09
5.8785901e-07
-8.7765092e-09
5.8939187e-07
-8.930068e-09
5.9112311e-07
-8.6362231e-09
5.9303591e-07
-7.6561852e-09
5.9511487e-07
-5.5799983e-09
5.9665644e-07
-2.2089692e-09
5.9112892e-07
4.6677282e-11
5.3945133e-07
3.0060494e-07
2.4108832e-09
2.4354634e-07
5.8960754e-09
5.2414125e-07
9.820582e-09
5.958407e-07
1.262692e-08
6.0252631e-07
1.4267237e-08
6.0026097e-07
1.5128069e-08
5.9789905e-07
1.5455785e-08
5.957763e-07
1.5386487e-08
5.9379703e-07
1.501895e-08
5.9197942e-07
1.4431406e-08
5.9034309e-07
1.368358e-08
5.8889147e-07
1.2820543e-08
5.8761907e-07
1.1875916e-08
5.8651583e-07
1.0874539e-08
5.855699e-07
9.8346122e-09
5.8476923e-07
8.7693544e-09
5.8410252e-07
7.688301e-09
5.835597e-07
6.5983131e-09
5.8313226e-07
5.5043763e-09
5.8281334e-07
4.4102445e-09
5.8259776e-07
3.3189826e-09
5.8248208e-07
2.2334497e-09
5.8246452e-07
1.1567609e-09
5.8254494e-07
9.2775932e-11
5.8272481e-07
-9.5336031e-10
5.8300725e-07
-1.9746219e-09
5.8339666e-07
-2.9612941e-09
5.8389897e-07
-3.8999937e-09
5.8452112e-07
-4.7724689e-09
5.8527065e-07
-5.5540684e-09
5.8615503e-07
-6.2118125e-09
5.8718038e-07
-6.7022921e-09
5.8834949e-07
-6.9687508e-09
5.8965833e-07
-6.9391215e-09
5.9109348e-07
-6.5214766e-09
5.9261827e-07
-5.5665616e-09
5.9415996e-07
-3.8955536e-09
5.9498543e-07
-1.5950915e-09
5.8882846e-07
-1.4707314e-10
5.3800333e-07
3.0045788e-07
2.5375809e-09
2.4325054e-07
5.5219666e-09
5.2278865e-07
8.3583232e-09
5.9332716e-07
1.0545064e-08
6.0032466e-07
1.199871e-08
5.9879254e-07
1.2881513e-08
5.9701467e-07
1.3327626e-08
5.9533041e-07
1.3424273e-08
5.9370046e-07
1.3243855e-08
5.9215985e-07
1.2848021e-08
5.9073894e-07
1.2287073e-08
5.8945243e-07
1.1601186e-08
5.8830498e-07
1.0821896e-08
5.8729514e-07
9.9736857e-09
5.8641813e-07
9.0754129e-09
5.8566752e-07
8.1415319e-09
5.8503642e-07
7.1831199e-09
5.8451813e-07
6.2087259e-09
5.8410667e-07
5.2250767e-09
5.83797e-07
4.2376729e-09
5.8358518e-07
3.251307e-09
5.8346846e-07
2.2705362e-09
5.834453e-07
1.3001371e-09
5.8351536e-07
3.4555326e-10
5.8367941e-07
-5.8654538e-10
5.8393937e-07
-1.4877964e-09
5.8429793e-07
-2.3474015e-09
5.847586e-07
-3.1513842e-09
5.8532512e-07
-3.8817072e-09
5.8600098e-07
-4.5152423e-09
5.8678858e-07
-5.022649e-09
5.876878e-07
-5.3674271e-09
5.8869429e-07
-5.5051462e-09
5.8979607e-07
-5.3831308e-09
5.9097148e-07
-4.9430668e-09
5.9217822e-07
-4.1051553e-09
5.9332207e-07
-2.812748e-09
5.9369304e-07
-1.2418329e-09
5.8725757e-07
-2.2499001e-10
5.3698651e-07
3.002329e-07
2.566528e-09
2.4293415e-07
5.2667766e-09
5.217124e-07
7.4048101e-09
5.915237e-07
9.0935357e-09
5.986387e-07
1.032018e-08
5.9755662e-07
1.1142093e-08
5.9619158e-07
1.1620256e-08
5.9485234e-07
1.1804607e-08
5.9351615e-07
1.1744112e-08
5.9222037e-07
1.1484292e-08
5.9099877e-07
1.1065063e-08
5.8987168e-07
1.0520189e-08
5.8884987e-07
9.8775348e-09
5.8793781e-07
9.1597566e-09
5.8713592e-07
8.3850885e-09
5.8644221e-07
7.5681389e-09
5.8585338e-07
6.7206251e-09
5.8536566e-07
5.8520305e-09
5.8497528e-07
4.970184e-09
5.8467886e-07
4.0817737e-09
5.8447361e-07
3.1928093e-09
5.8435744e-07
2.3090521e-09
5.8432907e-07
1.4364316e-09
5.8438799e-07
5.8145549e-10
5.845344e-07
-2.4831752e-10
5.8476915e-07
-1.0438886e-09
5.8509352e-07
-1.7942009e-09
5.8550892e-07
-2.4856413e-09
5.8601658e-07
-3.1014582e-09
5.8661682e-07
-3.62118e-09
5.8730831e-07
-4.0201496e-09
5.8808679e-07
-4.2693906e-09
5.8894354e-07
-4.3361571e-09
5.8986285e-07
-4.1848551e-09
5.908202e-07
-3.7817687e-09
5.9177515e-07
-3.0914882e-09
5.926318e-07
-2.1082854e-09
5.9270985e-07
-9.9369474e-10
5.86143e-07
-2.206853e-10
5.3621352e-07
3.0001223e-07
2.5408745e-09
2.4264448e-07
5.0484989e-09
5.2082234e-07
6.7552729e-09
5.9015166e-07
8.0757166e-09
5.9732846e-07
9.0877379e-09
5.9653806e-07
9.8129952e-09
5.9546542e-07
1.0272663e-08
5.9439271e-07
1.0492028e-08
5.9329681e-07
1.0501859e-08
5.9221055e-07
1.0334053e-08
5.9116659e-07
1.0018847e-08
5.9018689e-07
9.5833818e-09
5.8928534e-07
9.0512178e-09
5.8846998e-07
8.4423797e-09
5.8774477e-07
7.7736627e-09
5.8711093e-07
7.0590624e-09
5.8656799e-07
6.3102461e-09
5.8611449e-07
5.5370184e-09
5.8574852e-07
4.747766e-09
5.8546812e-07
3.949872e-09
5.8527151e-07
3.1501048e-09
5.8515722e-07
2.3549875e-09
5.851242e-07
1.5711573e-09
5.8517183e-07
8.0571831e-10
5.8529985e-07
6.660845e-11
5.8550827e-07
-6.3703554e-10
5.8579717e-07
-1.2945174e-09
5.8616641e-07
-1.8931827e-09
5.8661525e-07
-2.4181362e-09
5.8714178e-07
-2.8519939e-09
5.8774218e-07
-3.1748751e-09
5.8840968e-07
-3.3647548e-09
5.8913344e-07
-3.3986126e-09
5.8989672e-07
-3.2539862e-09
5.9067558e-07
-2.913268e-09
5.9143444e-07
-2.3648939e-09
5.9208344e-07
-1.6182973e-09
5.9196327e-07
-7.8955211e-10
5.8531427e-07
-1.8182775e-10
5.3560582e-07
2.9983041e-07
2.4972945e-09
2.4239659e-07
4.8487543e-09
5.2008151e-07
6.2740349e-09
5.8905823e-07
7.3274137e-09
5.9628832e-07
8.1571527e-09
5.9570315e-07
8.7791531e-09
5.9484267e-07
9.1964017e-09
5.9397548e-07
9.4195951e-09
5.9307364e-07
9.4667507e-09
5.921634e-07
9.3593075e-09
5.9127404e-07
9.1193827e-09
5.9042682e-07
8.7680993e-09
5.8963663e-07
8.3247495e-09
5.8891334e-07
7.8064621e-09
5.8826306e-07
7.22818e-09
5.8768922e-07
6.6028192e-09
5.8719336e-07
5.9415241e-09
5.8677579e-07
5.2539669e-09
5.8643608e-07
4.5486641e-09
5.8617343e-07
3.8332918e-09
5.8598689e-07
3.1149947e-09
5.8587552e-07
2.400687e-09
5.8583852e-07
1.6973455e-09
5.8587518e-07
1.0122975e-09
5.8598491e-07
3.535014e-10
5.8616708e-07
-2.7018245e-10
5.8642086e-07
-8.4875408e-10
5.8674499e-07
-1.3708128e-09
5.8713732e-07
-1.8235266e-09
5.875945e-07
-2.1925417e-09
5.881112e-07
-2.4622895e-09
5.8867944e-07
-2.616542e-09
5.892877e-07
-2.6396998e-09
5.8991988e-07
-2.5184335e-09
5.9055432e-07
-2.244808e-09
5.9116083e-07
-1.8181115e-09
5.9165675e-07
-1.24939e-09
5.9139456e-07
-6.1483387e-10
5.8467972e-07
-1.3868819e-10
5.3512969e-07
2.9969173e-07
2.4549168e-09
2.421889e-07
4.6711358e-09
5.1946913e-07
5.8912956e-09
5.8816773e-07
6.7459518e-09
5.9544862e-07
7.4268713e-09
5.9501785e-07
7.9526312e-09
5.9431626e-07
8.3193059e-09
5.9360882e-07
8.5296657e-09
5.928633e-07
8.5934484e-09
5.9209962e-07
8.5245676e-09
5.9134293e-07
8.3387866e-09
5.9061261e-07
8.0521713e-09
5.8992325e-07
7.6801652e-09
5.8928535e-07
7.2370819e-09
5.8870615e-07
6.7358915e-09
5.8819042e-07
6.1881975e-09
5.8774106e-07
5.6043329e-09
5.8735966e-07
4.993527e-09
5.870469e-07
4.3641113e-09
5.8680286e-07
3.7237444e-09
5.8662726e-07
3.079644e-09
5.8651963e-07
2.438819e-09
5.8647935e-07
1.8082976e-09
5.8650571e-07
1.1953477e-09
5.8659786e-07
6.0768412e-10
5.8675475e-07
5.3654511e-11
5.869749e-07
-4.5759902e-10
5.8725625e-07
-9.1613209e-10
5.8759586e-07
-1.3110141e-09
5.8798939e-07
-1.6306515e-09
5.8843085e-07
-1.8630811e-09
5.8891187e-07
-1.99661e-09
5.8942123e-07
-2.0209635e-09
5.8994424e-07
-1.9287458e-09
5.9046211e-07
-1.7174282e-09
5.9094951e-07
-1.3904775e-09
5.9132981e-07
-9.5725736e-10
5.9096134e-07
-4.6855761e-10
5.8419103e-07
-1.0264568e-10
5.3476379e-07
2.995891e-07
2.4195848e-09
2.4201483e-07
4.519844e-09
5.1896675e-07
5.5768512e-09
5.8743947e-07
6.2771354e-09
5.9476478e-07
6.8369166e-09
5.9445425e-07
7.2776652e-09
5.9387491e-07
7.5933745e-09
5.9329312e-07
7.7827902e-09
5.9267389e-07
7.8505431e-09
5.9203188e-07
7.8053544e-09
5.9138812e-07
7.6582341e-09
5.9075974e-07
7.4212043e-09
5.9016029e-07
7.1064327e-09
5.8960013e-07
6.7256845e-09
5.890869e-07
6.2900186e-09
5.8862609e-07
5.8096561e-09
5.8822143e-07
5.2939696e-09
5.8787535e-07
4.7515508e-09
5.8758932e-07
4.1903282e-09
5.8736408e-07
3.6177152e-09
5.8719988e-07
3.0407727e-09
5.8709658e-07
2.466379e-09
5.8705375e-07
1.9013967e-09
5.8707069e-07
1.3528324e-09
5.8714643e-07
8.2797946e-10
5.8727961e-07
3.3452974e-10
5.8746835e-07
-1.1934478e-10
5.8771013e-07
-5.2496812e-10
5.8800149e-07
-8.732814e-10
5.8833771e-07
-1.1550079e-09
5.8871258e-07
-1.3610629e-09
5.8911793e-07
-1.4831442e-09
5.8954332e-07
-1.5146556e-09
5.8997576e-07
-1.4518926e-09
5.9039935e-07
-1.2951699e-09
5.907928e-07
-1.049257e-09
5.910839e-07
-7.2186229e-10
5.9063396e-07
-3.4951668e-10
5.838187e-07
-7.4844075e-11
5.3448913e-07
2.9951426e-07
2.3909769e-09
2.4186809e-07
4.3942941e-09
5.1855637e-07
5.3169702e-09
5.8684533e-07
5.8930505e-09
5.9420656e-07
6.3530969e-09
5.9399086e-07
6.7200998e-09
5.9350736e-07
6.9877098e-09
5.9302551e-07
7.1527602e-09
5.9250885e-07
7.2168346e-09
5.9196781e-07
7.1851608e-09
5.914198e-07
7.065292e-09
5.9087961e-07
6.8661154e-09
5.9035947e-07
6.5971117e-09
5.8986914e-07
6.2678395e-09
5.8941618e-07
5.8876068e-09
5.8900633e-07
5.4652864e-09
5.8864375e-07
5.0092392e-09
5.883314e-07
4.5273129e-09
5.8807125e-07
4.026894e-09
5.8786451e-07
3.5149929e-09
5.8771179e-07
2.9983498e-09
5.8761323e-07
2.4835487e-09
5.8756855e-07
1.9771325e-09
5.8757712e-07
1.48571e-09
5.8763786e-07
1.0160461e-09
5.8774928e-07
5.7512249e-10
5.8790928e-07
1.7016161e-10
5.881151e-07
-1.9141117e-10
5.8836307e-07
-5.0210844e-10
5.8864841e-07
-7.5455518e-10
5.8896503e-07
-9.4189869e-10
5.8930528e-07
-1.058321e-09
5.8965975e-07
-1.0997113e-09
5.9001716e-07
-1.0645863e-09
5.9036424e-07
-9.5467533e-10
5.9068289e-07
-7.7494658e-10
5.9090418e-07
-5.3198943e-10
5.9039101e-07
-2.5404861e-10
5.8354077e-07
-5.3305479e-11
5.342884e-07
2.9946097e-07
2.3673269e-09
2.4174403e-07
4.2907572e-09
5.1822187e-07
5.1025128e-09
5.863621e-07
5.5767351e-09
5.9375143e-07
5.953692e-09
5.9361096e-07
6.2570097e-09
5.9320352e-07
6.4805625e-09
5.9280196e-07
6.6203778e-09
5.9236905e-07
6.6762699e-09
5.9191192e-07
6.6511553e-09
5.9144492e-07
6.5501151e-09
5.9098066e-07
6.3796547e-09
5.9052994e-07
6.147103e-09
5.9010169e-07
5.8601625e-09
5.8970313e-07
5.5265941e-09
5.893399e-07
5.1540162e-09
5.8901634e-07
4.7497917e-09
5.8873563e-07
4.320983e-09
5.8850007e-07
3.8743567e-09
5.8831114e-07
3.4164213e-09
5.8816973e-07
2.953486e-09
5.8807617e-07
2.4917306e-09
5.8803032e-07
2.0372766e-09
5.8803158e-07
1.5962513e-09
5.8807889e-07
1.1748364e-09
5.881707e-07
7.7928966e-10
5.8830484e-07
4.1592874e-10
5.8847847e-07
9.1069657e-11
5.8868793e-07
-1.8910879e-10
5.889286e-07
-4.1879426e-10
5.8919472e-07
-5.9282957e-10
5.8947932e-07
-7.0716678e-10
5.8977409e-07
-7.5935841e-10
5.9006936e-07
-7.4921086e-10
5.903541e-07
-6.7909891e-10
5.9061279e-07
-5.5376915e-10
5.9077886e-07
-3.7904119e-10
5.9021629e-07
-1.7758074e-10
5.8333931e-07
-3.6106796e-11
5.3414694e-07
2.9942487e-07
2.3472584e-09
2.4163924e-07
4.204899e-09
5.179499e-07
4.925393e-09
5.8597009e-07
5.3154003e-09
5.9338153e-07
5.6226105e-09
5.9330114e-07
5.8709954e-09
5.9295465e-07
6.0548549e-09
5.9261809e-07
6.1699924e-09
5.9225392e-07
6.2152347e-09
5.9186669e-07
6.1919915e-09
5.9146817e-07
6.1035975e-09
5.9106906e-07
5.9547723e-09
5.9067877e-07
5.7511491e-09
5.9030532e-07
5.498899e-09
5.8995539e-07
5.2044503e-09
5.8963436e-07
4.87429e-09
5.893465e-07
4.5148374e-09
5.8909509e-07
4.1323735e-09
5.8888254e-07
3.7330137e-09
5.8871051e-07
3.3227108e-09
5.8858004e-07
2.9072786e-09
5.8849161e-07
2.4924258e-09
5.8844517e-07
2.0837928e-09
5.8844022e-07
1.6869825e-09
5.8847571e-07
1.307577e-09
5.8855011e-07
9.5113181e-10
5.8866129e-07
6.2313804e-10
5.8880647e-07
3.2894501e-10
5.8898213e-07
7.3623802e-11
5.8918392e-07
-1.3822422e-10
5.8940658e-07
-3.0273068e-10
5.8964384e-07
-4.1709953e-10
5.8988846e-07
-4.7997626e-10
5.9013224e-07
-4.9188232e-10
5.9036601e-07
-4.554121e-10
5.9057632e-07
-3.749293e-10
5.9069838e-07
-2.5566262e-10
5.9009703e-07
-1.1606415e-10
5.8319973e-07
-2.2106156e-11
5.34053e-07
2.9940278e-07
2.3299934e-09
2.4155105e-07
4.1330816e-09
5.177298e-07
4.7784398e-09
5.8565312e-07
5.0985238e-09
5.9308235e-07
5.3469449e-09
5.9305036e-07
5.5479939e-09
5.9275314e-07
5.696484e-09
5.924696e-07
5.7883017e-09
5.9216211e-07
5.8217655e-09
5.9183323e-07
5.7973213e-09
5.9149262e-07
5.7170831e-09
5.911493e-07
5.5844443e-09
5.9081141e-07
5.4037166e-09
5.9048606e-07
5.1798258e-09
5.9017928e-07
4.9180709e-09
5.8989612e-07
4.6239416e-09
5.8964064e-07
4.3029908e-09
5.8941605e-07
3.9607517e-09
5.8922478e-07
3.6026905e-09
5.8906857e-07
3.2341857e-09
5.8894855e-07
2.8605257e-09
5.8886527e-07
2.4869158e-09
5.8881879e-07
2.1184887e-09
5.8880865e-07
1.7603103e-09
5.8883389e-07
1.4173737e-09
5.8889305e-07
1.0945748e-09
5.8898409e-07
7.9666271e-10
5.8910439e-07
5.2815597e-10
5.8925064e-07
2.9322001e-10
5.8941887e-07
9.5498272e-11
5.8960431e-07
-6.2097775e-11
5.8980144e-07
-1.7764549e-10
5.9000402e-07
-2.5049493e-10
5.9020509e-07
-2.8153426e-10
5.9039705e-07
-2.7333024e-10
5.9056813e-07
-2.2981969e-10
5.9065487e-07
-1.5576518e-10
5.9002298e-07
-6.6351478e-11
5.8311032e-07
-1.06122e-11
5.3399727e-07
2.9939217e-07
2.3150903e-09
2.4147719e-07
4.0725725e-09
5.1755307e-07
4.6557469e-09
5.8539821e-07
4.9175366e-09
5.9284211e-07
5.1162671e-09
5.9284949e-07
5.2765651e-09
5.925924e-07
5.3937854e-09
5.9235237e-07
5.4640566e-09
5.9209185e-07
5.485481e-09
5.9181181e-07
5.4579055e-09
5.915202e-07
5.3825997e-09
5.9122461e-07
5.2619799e-09
5.9093204e-07
5.0993361e-09
5.9064871e-07
4.8985913e-09
5.9038003e-07
4.6640993e-09
5.9013061e-07
4.4004845e-09
5.8990426e-07
4.1125211e-09
5.8970402e-07
3.8050459e-09
5.8953226e-07
3.4829011e-09
5.8939072e-07
3.1508975e-09
5.8928056e-07
2.8137942e-09
5.8920238e-07
2.4762867e-09
5.891563e-07
2.1429978e-09
5.8914194e-07
1.8184654e-09
5.8915843e-07
1.5071218e-09
5.892044e-07
1.2132571e-09
5.8927796e-07
9.4096408e-10
5.8937668e-07
6.9405679e-10
5.8949756e-07
4.7596156e-10
5.8963697e-07
2.895763e-10
5.897907e-07
1.3710149e-10
5.8995392e-07
1.9851935e-11
5.9012127e-07
-6.1954215e-11
5.9028691e-07
-1.0935893e-10
5.9044446e-07
-1.2476149e-10
5.9058353e-07
-1.1168582e-10
5.9064181e-07
-7.4590377e-11
5.8998589e-07
-2.6189898e-11
5.8306193e-07
-8.7712022e-13
5.3397198e-07
2.9939131e-07
2.3022322e-09
2.414157e-07
4.0213331e-09
5.1741284e-07
4.5526848e-09
5.85195e-07
4.7656466e-09
5.926512e-07
4.9222676e-09
5.9269089e-07
5.0474989e-09
5.9246674e-07
5.1372247e-09
5.9226263e-07
5.1878888e-09
5.9204119e-07
5.1975532e-09
5.9180215e-07
5.1657087e-09
5.9155205e-07
5.0930483e-09
5.9129728e-07
4.9812728e-09
5.9104382e-07
4.8328869e-09
5.907971e-07
4.6510105e-09