/*--------------------------------*- C++ -*----------------------------------*\
  =========                 |
  \\      /  F ield         | OpenFOAM: The Open Source CFD Toolbox
   \\    /   O peration     | Website:  https://openfoam.org
    \\  /    A nd           | Version:  10
     \\/     M anipulation  |
\*---------------------------------------------------------------------------*/
FoamFile
{
    format      ascii;
    class       volScalarField;
    location    "0.02";
    object      TporMedia;
}
// * * * * * * * * * * * * * * * * * * * * * * * * * * * * * * * * * * * * * //

dimensions      [0 0 0 1 0 0 0];

internalField   nonuniform List<scalar> 
4000
(
-3.5776502e-08
1.3627597e-08
-7.4106432e-07
-1.6517712e-06
-7.5925091e-06
-6.4825542e-06
-6.4593947e-06
-6.3746955e-06
-6.2950382e-06
-6.2248154e-06
-6.2053964e-06
-6.170936e-06
-6.1718058e-06
-6.1600535e-06
-6.1330882e-06
-6.1535516e-06
-6.1410358e-06
-6.1294151e-06
-6.1078008e-06
-6.1216812e-06
-6.1094088e-06
-6.0829633e-06
-6.0981006e-06
-6.0737586e-06
-6.0575751e-06
-6.0724138e-06
-6.0417811e-06
-6.0329576e-06
-6.0508049e-06
-6.0518173e-06
-6.081026e-06
-6.13493e-06
-6.1721023e-06
-6.2418149e-06
-6.393685e-06
-6.5592744e-06
-6.7344806e-06
-6.9811787e-06
-7.3560512e-06
-7.936976e-06
-2.002693e-09
9.0021462e-20
-1.9726225e-17
1.6450178e-15
2.4572007e-14
7.9179179e-14
6.3472785e-14
6.1252863e-14
5.9449772e-14
5.899053e-14
5.8608067e-14
5.7823926e-14
5.8212157e-14
5.7418504e-14
5.7448323e-14
5.7598266e-14
5.732623e-14
5.71967e-14
5.7112368e-14
5.7232055e-14
5.6811629e-14
5.6394447e-14
5.6511041e-14
5.6457934e-14
5.6224967e-14
5.594507e-14
5.5542836e-14
5.5842501e-14
5.5742461e-14
5.588928e-14
5.6361483e-14
5.7089676e-14
5.7749115e-14
5.9377797e-14
6.1933065e-14
6.4997454e-14
6.8922557e-14
7.4433487e-14
8.2901853e-14
9.354599e-14
-7.2174539e-10
-1.5579134e-20
-1.3604032e-28
1.5409193e-25
-1.6808433e-23
-3.7163341e-22
-5.8191434e-22
-5.446337e-22
-5.2695158e-22
-5.2079083e-22
-5.164651e-22
-5.0847784e-22
-5.1226069e-22
-5.0495292e-22
-5.0556925e-22
-5.0716792e-22
-5.0763689e-22
-5.0304564e-22
-5.0435412e-22
-5.0440107e-22
-4.9790081e-22
-4.9524904e-22
-4.9509808e-22
-4.968809e-22
-4.8879676e-22
-4.8846637e-22
-4.8502716e-22
-4.8471858e-22
-4.8589876e-22
-4.8669824e-22
-4.9041124e-22
-5.0161489e-22
-5.0931921e-22
-5.2766023e-22
-5.5815023e-22
-5.9608848e-22
-6.473698e-22
-7.2688334e-22
-8.8801883e-22
-1.3305415e-21
-4.0916865e-10
1.8725246e-21
5.7242015e-33
2.9417786e-36
3.9036262e-33
3.4630575e-31
7.9680145e-30
8.93888e-30
7.9047891e-30
7.7334203e-30
7.7046348e-30
7.5417123e-30
7.5510449e-30
7.4395569e-30
7.4224423e-30
7.5081649e-30
7.5109926e-30
7.3932109e-30
7.4188062e-30
7.4016132e-30
7.1808055e-30
7.1637154e-30
7.1079762e-30
7.0686496e-30
6.9378594e-30
6.8568911e-30
6.7547231e-30
6.7106829e-30
6.7139175e-30
6.6604925e-30
6.7038298e-30
6.8212949e-30
6.9832057e-30
7.1916319e-30
7.7931308e-30
8.4122308e-30
9.3247471e-30
1.0369274e-29
1.413604e-29
4.7262068e-29
-2.0938879e-10
2.389621e-22
4.5137654e-34
3.3609911e-45
-6.5178968e-43
-1.1418822e-40
-1.4938855e-37
3.2352527e-37
3.7328568e-36
-4.0044597e-35
-6.3301577e-36
-6.2701761e-36
-3.3254439e-36
-3.2935869e-36
-3.3531688e-36
-3.4147211e-36
-2.3085538e-36
-1.863794e-36
-1.6717654e-36
-1.7777474e-36
-1.4120879e-36
-1.1614106e-36
-9.892408e-37
-8.8202268e-37
-8.0144438e-37
-6.7524844e-37
-6.2770368e-37
-6.0359137e-37
-5.1042329e-37
-4.817786e-37
-4.644558e-37
-4.4726127e-37
-4.5248236e-37
-4.6360774e-37
-5.4139942e-37
-6.6855669e-37
-1.1993298e-36
-2.4288776e-36
-5.5092497e-37
-3.3295229e-37
-8.5506027e-11
2.8454613e-23
5.2483107e-35
1.8972244e-46
-7.4759189e-53
2.4172592e-50
3.939258e-46
-4.6073595e-45
-3.4626886e-44
3.5762222e-43
5.6069283e-44
5.5594624e-44
2.9191567e-44
2.9088577e-44
2.9384251e-44
2.9863389e-44
2.0206125e-44
1.6350831e-44
1.4584321e-44
1.5403584e-44
1.2237681e-44
1.0057527e-44
8.4789763e-45
7.5357836e-45
6.7971001e-45
5.6984037e-45
5.2679713e-45
5.0363173e-45
4.2375181e-45
3.9794322e-45
3.8487117e-45
3.7175153e-45
3.7453719e-45
3.9346397e-45
4.7397923e-45
6.3187698e-45
1.3940511e-44
4.1428048e-44
4.7232507e-45
7.5064606e-46
-4.1818724e-11
5.4526732e-24
4.7710318e-35
8.9211092e-47
1.2684621e-57
-6.7438026e-60
-2.3551608e-55
8.0643842e-54
6.7698036e-53
-6.9582991e-52
-1.0913252e-52
-1.0832246e-52
-5.6918533e-53
-5.6879678e-53
-5.7648271e-53
-5.8693005e-53
-3.9907488e-53
-3.238461e-53
-2.8909844e-53
-3.0642344e-53
-2.4401304e-53
-2.0120545e-53
-1.6988401e-53
-1.5124444e-53
-1.3669298e-53
-1.1474433e-53
-1.0631486e-53
-1.0182768e-53
-8.5691544e-54
-8.0649268e-54
-7.8350737e-54
-7.5936954e-54
-7.7019913e-54
-8.1726425e-54
-9.9951426e-54
-1.3713419e-53
-3.2413107e-53
-1.0901228e-52
-1.157273e-53
-1.4328417e-54
-2.7600764e-11
1.9449788e-24
-2.831186e-36
-2.8292032e-48
-1.3319018e-59
-1.3436687e-68
4.7811477e-65
-5.8432699e-63
-7.246285e-62
7.4680888e-61
1.1705775e-61
1.1674648e-61
6.1620234e-62
6.1878518e-62
6.2967031e-62
6.440264e-62
4.398403e-62
3.5843789e-62
3.2115321e-62
3.4169204e-62
2.7316412e-62
2.2610423e-62
1.9160011e-62
1.7096801e-62
1.5501311e-62
1.304963e-62
1.2119498e-62
1.1638565e-62
9.818139e-63
9.2644122e-63
9.0232812e-63
8.7683749e-63
8.9021191e-63
9.478975e-63
1.164126e-62
1.6073047e-62
3.857991e-62
1.3469594e-61
1.6154374e-62
9.9443231e-63
-2.3458125e-11
1.1599144e-24
-8.2829569e-37
-4.8960842e-49
-1.1102417e-60
-1.1010664e-70
-4.358196e-75
2.6431374e-72
8.1996851e-71
-8.3874568e-70
-1.305071e-70
-1.3117749e-70
-6.9806217e-71
-7.0570816e-71
-7.2362492e-71
-7.4399738e-71
-5.1127699e-71
-4.192234e-71
-3.7762435e-71
-4.0361023e-71
-3.2413435e-71
-2.6969576e-71
-2.293204e-71
-2.0540707e-71
-1.8693586e-71
-1.5784399e-71
-1.4694112e-71
-1.4151102e-71
-1.1955723e-71
-1.1289805e-71
-1.0991287e-71
-1.0654186e-71
-1.0781711e-71
-1.1417408e-71
-1.387649e-71
-1.8830839e-71
-4.3628292e-71
-1.4867335e-70
-2.3424988e-71
2.8603997e-71
-2.3749592e-11
1.0051805e-24
-6.1833726e-37
-2.5433712e-49
-3.6278642e-61
-1.6600829e-71
8.8602326e-82
-9.111547e-82
-3.8347549e-79
3.4630885e-78
4.7738673e-79
4.8989124e-79
2.671629e-79
2.7497391e-79
2.8708109e-79
2.9916906e-79
2.0874925e-79
1.7302144e-79
1.5769815e-79
1.6998636e-79
1.3782483e-79
1.1575019e-79
9.913658e-80
8.9406044e-80
8.1908452e-80
6.948029e-80
6.4722359e-80
6.244348e-80
5.2613552e-80
4.9366896e-80
4.7380933e-80
4.5021483e-80
4.4263224e-80
4.4795443e-80
5.1240178e-80
6.3337981e-80
1.2311753e-79
3.5767847e-79
1.1690429e-79
5.4030637e-80
-2.6308658e-11
1.0988081e-24
-7.4948001e-37
-2.5877321e-49
-2.9123426e-61
-8.265368e-72
3.3485733e-82
1.7021535e-91
-5.8096522e-88
5.5781796e-87
8.602217e-88
8.873444e-88
4.8321628e-88
4.9718436e-88
5.19807e-88
5.4221751e-88
3.7890355e-88
3.1489706e-88
2.8737732e-88
3.1024119e-88
2.5205978e-88
2.1207813e-88
1.8193173e-88
1.6427354e-88
1.5073362e-88
1.2815696e-88
1.1946945e-88
1.1546307e-88
9.7512496e-89
9.1807157e-89
8.8595102e-89
8.4626029e-89
8.4119571e-89
8.6279803e-89
1.0064586e-88
1.2833234e-88
2.7183594e-88
9.2842656e-88
2.7208359e-88
1.4717278e-88
-2.9404102e-11
1.3195398e-24
-9.4672812e-37
-3.3242934e-49
-3.6083089e-61
-7.8504976e-72
3.0843889e-82
-8.7411346e-92
-4.9969644e-97
4.8565225e-96
8.1340525e-97
8.5092659e-97
4.6638359e-97
4.8279053e-97
5.0712903e-97
5.3214448e-97
3.7368454e-97
3.1206159e-97
2.8585694e-97
3.0975646e-97
2.5254596e-97
2.130891e-97
1.8335169e-97
1.658297e-97
1.524307e-97
1.2988097e-97
1.2118361e-97
1.1709041e-97
9.8899515e-98
9.3069012e-98
8.9701791e-98
8.5535938e-98
8.4768821e-98
8.6683492e-98
1.0059219e-97
1.271986e-97
2.7000875e-97
9.816599e-97
3.6127496e-97
1.6522888e-96
-3.147711e-11
1.5595861e-24
-8.9694044e-37
-3.8770102e-49
-4.846528e-61
-9.738872e-72
4.6425679e-82
-1.4303873e-91
-1.3321206e-100
4.3924252e-105
8.0172537e-106
8.5529332e-106
4.736049e-106
4.9544152e-106
5.2477121e-106
5.5511332e-106
3.9231075e-106
3.2990621e-106
3.0375434e-106
3.3071454e-106
2.7087127e-106
2.2940255e-106
1.9803211e-106
1.7958442e-106
1.6523783e-106
1.4074664e-106
1.3147731e-106
1.2684612e-106
1.0685999e-106
1.0027939e-106
9.6125076e-107
9.104925e-107
8.9375471e-107
9.0214085e-107
1.0294337e-106
1.2687763e-106
2.6327368e-106
1.0147564e-105
5.7683496e-106
-1.6249105e-104
-3.2114014e-11
1.7256151e-24
-7.1216823e-37
-4.6153617e-49
-7.7453224e-61
-1.6870417e-71
1.197138e-81
-4.5350114e-91
-7.4192018e-100
-1.0899234e-108
1.3096229e-114
1.4402391e-114
8.1043478e-115
8.610337e-115
9.2269383e-115
9.8706374e-115
7.046851e-115
5.9794486e-115
5.5480047e-115
6.0774819e-115
5.0019768e-115
4.257218e-115
3.6893716e-115
3.3510908e-115
3.0883287e-115
2.6292215e-115
2.4539748e-115
2.3583596e-115
1.9763728e-115
1.8422595e-115
1.7473533e-115
1.633896e-115
1.5751625e-115
1.5551961e-115
1.7194726e-115
2.0306654e-115
4.0598301e-115
1.7179211e-114
2.214092e-114
9.7390988e-113
-3.1951797e-11
1.7983508e-24
-5.7336008e-37
-7.0251947e-49
-1.7935881e-60
-4.8140234e-71
6.146707e-81
-3.1958127e-90
-2.3757212e-98
-1.1048431e-106
-6.2991744e-115
4.9209181e-123
5.1221983e-123
5.6064263e-123
6.1591525e-123
6.7673764e-123
4.9035314e-123
4.2306229e-123
3.9884902e-123
4.4317571e-123
3.6904534e-123
3.155242e-123
2.7505695e-123
2.5054946e-123
2.3084604e-123
1.9600251e-123
1.8237255e-123
1.7345732e-123
1.4340682e-123
1.313711e-123
1.2179123e-123
1.0973533e-123
1.0166876e-123
9.5429271e-124
9.8475387e-124
1.0630993e-123
2.006632e-123
1.1443803e-122
-3.3868187e-122
-6.1733685e-121
-3.1645743e-11
1.8156219e-24
-4.9919979e-37
-1.7063961e-48
-7.2177082e-60
-2.6099365e-70
7.1983582e-80
-5.6481012e-89
3.9912176e-97
-5.463638e-105
6.1177286e-113
-6.5113208e-121
6.7505579e-129
-5.8333266e-131
-6.362025e-131
-6.8999186e-131
-4.9790662e-131
-4.2749027e-131
-4.0330869e-131
-4.4264979e-131
-3.7000155e-131
-3.1339976e-131
-2.7517337e-131
-2.50549e-131
-2.2885233e-131
-1.9548652e-131
-1.816681e-131
-1.7435622e-131
-1.4361735e-131
-1.3269045e-131
-1.2324614e-131
-1.1366606e-131
-1.0722299e-131
-1.0325102e-131
-1.113385e-131
-1.2760599e-131
-2.3815743e-131
-9.1296511e-131
1.5123381e-130
4.6268108e-129
-3.1458795e-11
1.8166419e-24
-4.688934e-37
5.0930251e-47
3.6487972e-58
1.8494597e-68
-1.3276844e-77
1.6971736e-86
-8.0239983e-95
4.9467982e-103
-2.9643011e-111
1.7718188e-119
-1.0667197e-127
6.4772714e-136
3.8584852e-139
4.2140912e-139
3.0472084e-139
2.6155559e-139
2.4854634e-139
2.7332666e-139
2.2847631e-139
1.9378363e-139
1.6948359e-139
1.5431451e-139
1.4135974e-139
1.2028379e-139
1.1144498e-139
1.0652958e-139
8.7557675e-140
8.0582846e-140
7.4038526e-140
6.7920978e-140
6.3854142e-140
6.1327927e-140
6.5977288e-140
7.4859458e-140
1.3310077e-139
4.3321946e-139
-6.2212801e-139
-3.9418836e-137
-3.1400717e-11
1.8193675e-24
-4.6306444e-37
3.0678841e-48
3.4959854e-59
2.4405601e-69
-5.6086175e-78
1.2205147e-86
-7.1020899e-95
5.0186025e-103
-3.5594383e-111
2.5395954e-119
-1.8373984e-127
1.3430212e-135
-9.839726e-144
-3.1313072e-147
-2.2592447e-147
-1.9496423e-147
-1.8622243e-147
-2.046314e-147
-1.7126393e-147
-1.4573578e-147
-1.2694968e-147
-1.1543649e-147
-1.0562971e-147
-8.950101e-148
-8.2255102e-148
-7.8481128e-148
-6.3506195e-148
-5.8356191e-148
-5.3099945e-148
-4.8100287e-148
-4.4661884e-148
-4.2299314e-148
-4.4662622e-148
-4.9617664e-148
-8.297922e-148
-2.3105766e-147
3.0210296e-147
3.5859353e-145
-3.1410405e-11
1.8265383e-24
-4.677251e-37
2.2544628e-48
3.6097582e-59
3.2565571e-69
-3.2681657e-77
1.1688366e-85
-1.0180531e-93
1.0638895e-101
-1.1262715e-109
1.1971612e-117
-1.2845571e-125
1.3972427e-133
-1.5328767e-141
1.6827157e-149
2.48517e-155
2.1650164e-155
2.072942e-155
2.2650014e-155
1.8999073e-155
1.6220985e-155
1.4148942e-155
1.277544e-155
1.1576088e-155
9.7268686e-156
8.9008557e-156
8.3752999e-156
6.7206577e-156
6.1294274e-156
5.5160526e-156
4.9370007e-156
4.5085972e-156
4.2061702e-156
4.3424937e-156
4.6749623e-156
7.216744e-156
1.6272992e-155
-1.7844042e-155
-3.3296749e-153
-3.1439504e-11
1.8357403e-24
-4.7439456e-37
2.0538521e-48
4.1352961e-59
4.4725674e-69
5.8053556e-76
-3.0252565e-84
3.8537853e-92
-5.8169016e-100
8.8304972e-108
-1.3507809e-115
2.0653952e-123
-3.1920709e-131
4.945216e-139
-7.6848937e-147
1.1891238e-154
-2.1798226e-162
-3.2529914e-163
-3.5384033e-163
-2.9315006e-163
-2.5204107e-163
-2.1833623e-163
-1.9624494e-163
-1.7668417e-163
-1.4755215e-163
-1.3358655e-163
-1.2383195e-163
-9.8900811e-164
-8.901052e-164
-7.9212484e-164
-6.9767186e-164
-6.2898632e-164
-5.7607665e-164
-5.8817482e-164
-6.1234377e-164
-8.514169e-164
-1.4406174e-163
1.1719025e-163
3.1597741e-161
-3.1466618e-11
1.8446375e-24
-4.7957151e-37
1.9467204e-48
4.664323e-59
5.7240855e-69
1.0367667e-76
-6.7145811e-85
1.0285025e-92
-1.816703e-100
3.1983926e-108
-5.7574143e-116
1.0253932e-123
-1.8505428e-131
3.3325551e-139
-5.9753455e-147
1.0672141e-154
-1.8967616e-162
3.9607646e-170
6.2321636e-171
5.1787387e-171
4.4820642e-171
3.8109909e-171
3.4056927e-171
3.0600683e-171
2.5353856e-171
2.2751514e-171
2.0991475e-171
1.645031e-171
1.473419e-171
1.3065624e-171
1.123477e-171
1.0028672e-171
9.0636499e-172
9.1585764e-172
9.234202e-172
1.1633741e-171
1.4114454e-171
-7.9770671e-172
-3.0611951e-169
-3.1487084e-11
1.8522061e-24
-4.8289981e-37
1.8512906e-48
5.2021257e-59
7.0325344e-69
7.50483e-77
-5.5788699e-85
8.8000115e-93
-1.5702671e-100
2.8324295e-108
-5.0200594e-116
8.9318304e-124
-1.5881546e-131
2.8092185e-139
-5.0440921e-147
8.9450933e-155
-1.5732244e-162
2.8037363e-170
-6.0086645e-178
-9.1206055e-179
-7.8364491e-179
-6.6352491e-179
-5.9449478e-179
-5.2864006e-179
-4.3546437e-179
-3.8507769e-179
-3.5188539e-179
-2.7440608e-179
-2.4294875e-179
-2.1542591e-179
-1.8085212e-179
-1.6087955e-179
-1.4341321e-179
-1.4583295e-179
-1.4335791e-179
-1.6045908e-179
-1.3989163e-179
5.4147014e-180
3.0037369e-177
-3.150226e-11
1.8583516e-24
-4.8509e-37
1.7666173e-48
5.8133388e-59
8.5338852e-69
6.5310098e-77
-5.3949359e-85
8.5124461e-93
-1.4847832e-100
2.5603114e-108
-4.4778463e-116
7.7855591e-124
-1.351567e-131
2.3565683e-139
-4.075808e-147
7.0346689e-155
-1.2149059e-162
2.0932315e-170
-3.5883507e-178
7.699229e-186
1.330615e-186
1.1219494e-186
9.966923e-187
8.8636778e-187
7.2786829e-187
6.3806621e-187
5.8009225e-187
4.4777452e-187
3.9234826e-187
3.4469369e-187
2.8982411e-187
2.5435095e-187
2.2561347e-187
2.2608544e-187
2.1698044e-187
2.1968849e-187
1.3726962e-187
-3.6921624e-188
-3.0161253e-185
-3.1514169e-11
1.8633297e-24
-4.8676265e-37
1.6990896e-48
6.5272007e-59
1.0314056e-68
6.4171842e-77
-5.8739459e-85
9.2091913e-93
-1.607357e-100
2.7639777e-108
-4.7914441e-116
8.2288218e-124
-1.4313143e-131
2.4824031e-139
-4.3015215e-147
7.3815852e-155
-1.2561894e-162
2.1352285e-170
-3.6354481e-178
6.1594311e-186
-1.2672397e-193
-1.8906244e-194
-1.6601963e-194
-1.4806052e-194
-1.1937003e-194
-1.0469197e-194
-9.5520434e-195
-7.2713442e-195
-6.3146745e-195
-5.491548e-195
-4.5764858e-195
-4.0166565e-195
-3.5424437e-195
-3.4881063e-195
-3.2729337e-195
-3.0090722e-195
-1.3627782e-195
2.5357376e-196
3.0739947e-193
-3.1524053e-11
1.8674209e-24
-4.8820045e-37
1.6486177e-48
7.3352144e-59
1.2377957e-68
6.7409278e-77
-6.8273375e-85
1.1200921e-92
-1.9622881e-100
3.4612507e-108
-6.1073876e-116
1.0756898e-123
-1.863198e-131
3.2373178e-139
-5.6507706e-147
9.8610422e-155
-1.7047966e-162
2.934232e-170
-5.0682604e-178
8.6766984e-186
-1.4869942e-193
2.8522029e-201
2.8131105e-202
2.4812083e-202
2.0089047e-202
1.7379894e-202
1.5705577e-202
1.1946296e-202
1.0265439e-202
8.9109399e-203
7.3823935e-203
6.3990342e-203
5.688667e-203
5.5087717e-203
5.0431257e-203
4.1662374e-203
1.3697019e-203
-1.7624115e-204
-3.1985898e-201
-3.1532478e-11
1.8708324e-24
-4.8947531e-37
1.6114e-48
8.2151389e-59
1.4680745e-68
7.3341214e-77
-8.1871543e-85
1.3809279e-92
-2.4781007e-100
4.4361362e-108
-7.9340026e-116
1.4233063e-123
-2.5552731e-131
4.5459422e-139
-8.0478857e-147
1.4278912e-154
-2.5179821e-162
4.4369576e-170
-7.8957175e-178
1.3890162e-185
-2.4284365e-193
4.2181473e-201
-7.779672e-209
-4.258365e-210
-3.4432036e-210
-2.9453692e-210
-2.6561867e-210
-1.9936692e-210
-1.7030224e-210
-1.4836161e-210
-1.2129403e-210
-1.0447702e-210
-9.2050488e-211
-8.9031208e-211
-8.0183005e-211
-5.9650652e-211
-1.3963054e-211
1.2406961e-212
3.3960963e-209
-3.1539695e-11
1.8737032e-24
-4.9059261e-37
1.5834343e-48
9.1467189e-59
1.7176944e-68
8.1022043e-77
-9.7725159e-85
1.7062876e-92
-3.1729618e-100
5.8701384e-108
-1.0808964e-115
1.9711451e-123
-3.6154355e-131
6.6033522e-139
-1.2066277e-146
2.1956178e-154
-3.9769217e-162
7.1160139e-170
-1.2732111e-177
2.282144e-185
-4.068053e-193
7.1988182e-201
-1.268242e-208
2.3114742e-216
5.9838996e-218
5.1302841e-218
4.5713173e-218
3.3958616e-218
2.8976567e-218
2.4953642e-218
2.0350297e-218
1.7580616e-218
1.5409913e-218
1.4773101e-218
1.2953504e-218
8.6633781e-219
1.4559521e-219
-8.8321262e-221
-3.6697194e-217
-3.1545865e-11
1.8761314e-24
-4.9155671e-37
1.5617874e-48
1.0117563e-58
1.9829632e-68
9.0062015e-77
-1.1736715e-84
2.094439e-92
-3.9914832e-100
7.5065817e-108
-1.4196617e-115
2.6863684e-123
-5.0184995e-131
9.372115e-139
-1.7537461e-146
3.2314443e-154
-5.9772746e-162
1.097951e-169
-2.0121577e-177
3.7066741e-185
-6.7427315e-193
1.2200488e-200
-2.1956876e-208
3.9373862e-216
-7.1239409e-224
-9.1086771e-226
-8.0599593e-226
-5.925402e-226
-5.025422e-226
-4.2956577e-226
-3.5235262e-226
-3.0366278e-226
-2.6429531e-226
-2.5349652e-226
-2.1580031e-226
-1.2900557e-226
-1.5404386e-227
6.3552803e-229
4.0394697e-225
-3.1551128e-11
1.8781911e-24
-4.9238289e-37
1.5445955e-48
1.1117807e-58
2.2606414e-68
9.9479176e-77
-1.3879187e-84
2.5515981e-92
-4.9580006e-100
9.7364524e-108
-1.8818626e-115
3.6369949e-123
-7.0450653e-131
1.3569953e-138
-2.5567866e-146
4.8134483e-154
-9.0517786e-162
1.6841162e-169
-3.1975415e-177
5.9387554e-185
-1.0983302e-192
2.0301002e-200
-3.7257436e-208
6.8061872e-216
-1.2466755e-223
2.2638036e-231
1.4572495e-233
1.0599267e-233
9.0158985e-234
7.6231349e-234
6.2020842e-234
5.3376323e-234
4.5842228e-234
4.3943766e-234
3.661108e-234
1.9547329e-234
1.6494202e-235
-4.6282942e-237
-4.5048922e-233
-3.1555621e-11
1.8799425e-24
-4.9309076e-37
1.530717e-48
1.213876e-58
2.5483415e-68
1.0975977e-76
-1.625871e-84
3.0923484e-92
-6.236403e-100
1.2511044e-107
-2.4984425e-115
4.9257617e-123
-9.7187076e-131
1.9118486e-138
-3.7326847e-146
7.2287832e-154
-1.3986111e-161
2.692616e-169
-5.1179695e-177
9.8111681e-185
-1.8436866e-192
3.4730833e-200
-6.5770841e-208
1.2306183e-215
-2.3016375e-223
4.2949105e-231
-7.8125796e-239
-1.9466069e-241
-1.6457028e-241
-1.37671e-241
-1.1216259e-241
-9.6087941e-242
-8.259493e-242
-7.7962272e-242
-6.3621651e-242
-3.0389379e-242
-1.8025321e-243
3.3911264e-245
5.0964265e-241
-3.1559462e-11
1.8814361e-24
-4.9369892e-37
1.5193896e-48
1.3170707e-58
2.8420489e-68
1.2060105e-76
-1.880897e-84
3.6644092e-92
-7.4923431e-100
1.5397406e-107
-3.1420644e-115
6.3673142e-123
-1.2966913e-130
2.6007979e-138
-5.2230076e-146
1.0419793e-153
-2.0403088e-161
4.0216259e-169
-7.8147405e-177
1.5342822e-184
-2.9436979e-192
5.6716277e-200
-1.0970478e-207
2.0930647e-215
-4.0253905e-223
7.5357102e-231
-1.4193917e-238
2.6700577e-246
3.0998826e-249
2.562625e-249
2.0719471e-249
1.7577948e-249
1.5041423e-249
1.4226915e-249
1.1391443e-249
4.8496759e-250
1.9919443e-251
-2.531875e-253
-5.880791e-249
-3.156275e-11
1.8827126e-24
-4.9422284e-37
1.510062e-48
1.4201883e-58
3.1382855e-68
1.3090342e-76
-2.1387582e-84
4.2960729e-92
-9.0655128e-100
1.9038369e-107
-3.9839902e-115
8.22654e-123
-1.7118972e-130
3.4784197e-138
-7.1378819e-146
1.4515905e-153
-2.936591e-161
5.9715565e-169
-1.2039687e-176
2.3767402e-184
-4.6720479e-192
9.1876522e-200
-1.7984863e-207
3.4921404e-215
-6.7905757e-223
1.3145141e-230
-2.5698883e-238
4.9278416e-246
-9.4389117e-254
-4.8567763e-257
-3.8923992e-257
-3.3033249e-257
-2.8042849e-257
-2.6441494e-257
-2.0768865e-257
-7.8355543e-258
-2.223648e-259
1.8911511e-261
6.8917199e-257
-3.1565572e-11
1.883807e-24
-4.9467538e-37
1.5023366e-48
1.5222042e-58
3.4340561e-68
1.4172527e-76
-2.4582806e-84
5.1026017e-92
-1.1042427e-99
2.3924947e-107
-5.1262353e-115
1.0852599e-122
-2.3162904e-130
4.9062006e-138
-1.0351421e-145
2.1633336e-153
-4.5140474e-161
9.2609114e-169
-1.8925517e-176
3.8764114e-184
-7.849016e-192
1.5879915e-199
-3.1930592e-207
6.389289e-215
-1.2688095e-222
2.5192003e-230
-4.9542109e-238
9.6161326e-246
-1.8759836e-253
3.6167018e-261
7.557554e-265
6.2933731e-265
5.3480313e-265
5.0690096e-265
3.8605984e-265
1.2990731e-265
2.5259492e-267
-1.4392575e-269
-8.2125172e-265
-3.1567996e-11
1.8847469e-24
-4.9506696e-37
1.4958881e-48
1.6222213e-58
3.7253592e-68
1.5212313e-76
-2.7280122e-84
5.8456842e-92
-1.3105136e-99
2.9245883e-107
-6.4277073e-115
1.4103195e-122
-3.0898721e-130
6.6054167e-138
-1.4267707e-145
3.0713963e-153
-6.5276508e-161
1.3793e-168
-2.8723428e-176
6.0458727e-184
-1.2436813e-191
2.5877706e-199
-5.3253873e-207
1.0830525e-214
-2.1808801e-222
4.3637919e-230
-8.8419053e-238
1.7601184e-245
-3.4714388e-253
6.8223929e-261
-1.3425403e-268
-1.2433116e-272
-1.0469957e-272
-1.0002664e-272
-7.3028354e-273
-2.1892164e-273
-2.9308131e-275
1.1000341e-277
9.9213955e-273
-3.1570083e-11
1.8855563e-24
-4.9540649e-37
1.4904898e-48
1.7192212e-58
4.0098715e-68
1.6245262e-76
-3.0440626e-84
6.6266088e-92
-1.5357337e-99
3.4821392e-107
-7.8274647e-115
1.7885148e-122
-3.9829701e-130
8.7521846e-138
-1.9212715e-145
4.1910665e-153
-9.1124579e-161
1.9640253e-168
-4.2230991e-176
8.9950508e-184
-1.9368341e-191
4.1221364e-199
-8.6916224e-207
1.826859e-214
-3.8366938e-222
7.9272789e-230
-1.6304201e-237
3.3484484e-245
-6.8057094e-253
1.3733468e-260
-2.7565691e-268
5.593298e-276
2.1106621e-280
2.0065971e-280
1.4298186e-280
3.8180881e-281
3.4505643e-283
-8.4966294e-286
-1.2138189e-280
-3.157188e-11
1.8862547e-24
-4.9570134e-37
1.4859309e-48
1.812539e-58
4.2856501e-68
1.7190325e-76
-3.3715677e-84
7.5467879e-92
-1.7931717e-99
4.2524433e-107
-9.9352719e-115
2.2839185e-122
-5.2042085e-130
1.1860959e-137
-2.6706935e-145
6.0294193e-153
-1.334268e-160
2.9681441e-168
-6.5456444e-176
1.4295438e-183
-3.1042192e-191
6.7945218e-199
-1.4577589e-206
3.1097254e-214
-6.5547449e-222
1.4038204e-229
-2.9831177e-237
6.2636908e-245
-1.3226806e-252
2.7362712e-260
-5.6556026e-268
1.1629414e-275
-2.3953113e-283
-4.1432425e-288
-2.8471121e-288
-6.765428e-289
-4.0741462e-291
6.6099415e-294
1.5119763e-288
-3.157343e-11
1.8868586e-24
-4.9595794e-37
1.4820715e-48
1.9016087e-58
4.5492185e-68
1.8125008e-76
-3.7208967e-84
8.726909e-92
-2.1526479e-99
5.1949809e-107
-1.2389008e-114
2.9231924e-122
-6.8887183e-130
1.6086084e-137
-3.723913e-145
8.6645586e-153
-1.9984557e-160
4.5668662e-168
-1.0316599e-175
2.3372079e-183
-5.2638548e-191
1.1677364e-198
-2.5527658e-206
5.579122e-214
-1.223412e-221
2.6621785e-229
-5.7501296e-237
1.2419022e-244
-2.6372033e-252
5.6340675e-260
-1.2001831e-267
2.553165e-275
-5.4378697e-283
1.1368593e-290
5.8094809e-296
1.2247732e-296
4.9376379e-299
-5.2127742e-302
-1.9176066e-296
-3.1574769e-11
1.8873818e-24
-4.9618176e-37
1.4787947e-48
1.9860091e-58
4.7996241e-68
1.9012278e-76
-3.9936782e-84
9.609064e-92
-2.4311009e-99
6.0952985e-107
-1.4941286e-114
3.7032727e-122
-8.9107995e-130
2.1302731e-137
-5.076161e-145
1.1992688e-152
-2.8101532e-160
6.5721519e-168
-1.5204281e-175
3.4756376e-183
-8.0341804e-191
1.8283289e-198
-4.1416909e-206
9.3031574e-214
-2.0695963e-221
4.6508568e-229
-1.0456401e-236
2.3272594e-244
-5.0807791e-252
1.1033834e-259
-2.3894038e-267
5.211852e-275
-1.133197e-282
2.4379579e-290
-5.0988021e-298
-2.1736567e-304
-6.0270236e-307
4.1001687e-310
2.4665657e-304
-3.1575926e-11
1.887836e-24
-4.9637741e-37
1.4759982e-48
2.0654482e-58
5.0354864e-68
1.9886924e-76
-4.3993308e-84
1.0918692e-91
-2.8707295e-99
7.2648449e-107
-1.854072e-114
4.5891392e-122
-1.1412988e-129
2.8492688e-137
-6.8980965e-145
1.6985955e-152
-4.1301088e-160
9.8907955e-168
-2.3686748e-175
5.6823929e-183
-1.3329694e-190
3.1360066e-198
-7.2459189e-206
1.6693186e-213
-3.8352898e-221
8.7439284e-229
-1.9880222e-236
4.5308134e-244
-1.0232494e-251
2.2925606e-259
-5.0686597e-267
1.1303753e-274
-2.4931271e-282
5.5177847e-290
-1.1815573e-297
2.2144427e-305
-3.0792723e-313
1.3727517e-313
-3.3855959e-312
-3.1576926e-11
1.8882311e-24
-4.9654863e-37
1.4736021e-48
2.1395735e-58
5.2568089e-68
2.0600874e-76
-4.6599094e-84
1.1995375e-91
-3.1612575e-99
8.3019831e-107
-2.1805831e-114
5.6388407e-122
-1.4455741e-129
3.6874435e-137
-9.2335965e-145
2.3041805e-152
-5.653453e-160
1.4062465e-167
-3.4469755e-175
8.3654051e-183
-2.0031238e-190
4.7759142e-198
-1.1307996e-205
2.6932878e-213
-6.45005e-221
1.5229821e-228
-3.540969e-236
8.2947871e-244
-1.9196966e-251
4.4449121e-259
-1.0277286e-266
2.3668264e-274
-5.4070418e-282
1.214003e-289
-2.7349124e-297
5.2778918e-305
-4.779514e-313
-6.456009e-314
-2.7824485e-315
-3.157779e-11
1.8885753e-24
-4.9669894e-37
1.4715502e-48
2.2086762e-58
5.4629711e-68
2.1295514e-76
-5.0631921e-84
1.3435194e-91
-3.674236e-99
1.0106889e-106
-2.6650914e-114
7.2281548e-122
-1.9124546e-129
4.9548257e-137
-1.2949483e-144
3.2870545e-152
-8.4205432e-160
2.151559e-167
-5.382829e-175
1.3526562e-182
-3.3673868e-190
8.2902754e-198
-2.0156825e-205
4.9115896e-213
-1.1784069e-220
2.85165e-228
-6.7669864e-236
1.5977703e-243
-3.7755121e-251
8.9560985e-259
-2.0980353e-266
4.97539e-274
-1.1544121e-281
2.672292e-289
-6.0334087e-297
1.1746172e-304
-1.7101834e-312
-1.4703792e-313
-7.0161848e-314
-3.1578536e-11
1.8888755e-24
-4.9683113e-37
1.4697815e-48
2.2727301e-58
5.6540368e-68
2.1992736e-76
-5.3800429e-84
1.4550915e-91
-4.0955148e-99
1.1481235e-106
-3.1522296e-114
8.7021683e-122
-2.3759023e-129
6.3399172e-137
-1.6835058e-144
4.419328e-152
-1.1716809e-159
3.0662694e-167
-7.9987463e-175
2.0451319e-182
-5.1802301e-190
1.302148e-197
-3.3084416e-205
8.2685571e-213
-2.0576613e-220
5.1028088e-228
-1.2553347e-235
3.065141e-243
-7.5655999e-251
1.8432491e-258
-4.4480922e-266
1.0756697e-273
-2.5560817e-281
6.1120181e-289
-1.4267483e-296
2.8708417e-304
-3.9777611e-312
1.1215813e-313
1.8233505e-313
-3.1579181e-11
1.8891382e-24
-4.9694777e-37
1.4682592e-48
2.3316685e-58
5.8317409e-68
2.2531188e-76
-5.7298956e-84
1.6089375e-91
-4.7450094e-99
1.3743375e-106
-3.8895669e-114
1.0997745e-121
-3.0540641e-129
8.3544554e-137
-2.2962426e-144
6.1833031e-152
-1.6789791e-159
4.4299557e-167
-1.1697351e-174
3.1134386e-182
-8.1559131e-190
2.1092651e-197
-5.4789887e-205
1.4054361e-212
-3.5832694e-220
8.9550333e-228
-2.2470753e-235
5.558095e-243
-1.3648882e-250
3.4154385e-258
-8.443208e-266
2.0979681e-273
-5.1907529e-281
1.266987e-288
-3.0173965e-296
6.2562639e-304
-8.3582742e-312
1.1333767e-313
3.3447331e-314
-3.1579736e-11
1.889368e-24
-4.9705075e-37
1.4669423e-48
2.3857938e-58
5.9927004e-68
2.3031814e-76
-6.0160256e-84
1.7201406e-91
-5.2062409e-99
1.5631996e-106
-4.655952e-114
1.3644142e-121
-3.9380343e-129
1.1143898e-136
-3.1563275e-144
8.8508646e-152
-2.4249408e-159
6.7221621e-167
-1.8276762e-174
4.939228e-182
-1.3507754e-189
3.6074915e-197
-9.5103512e-205
2.4966519e-212
-6.4685765e-220
1.6819092e-227
-4.383839e-235
1.1283376e-242
-2.9230867e-250
7.5084805e-258
-1.8890458e-265
4.7721656e-273
-1.207564e-280
3.0764571e-288
-7.5157006e-296
1.5815265e-303
-2.0715645e-311
9.2521856e-314
-2.8057587e-313
-3.1580212e-11
1.8895694e-24
-4.9714192e-37
1.4658038e-48
2.4357977e-58
6.1429984e-68
2.3526217e-76
-6.387753e-84
1.9061595e-91
-5.9635811e-99
1.8496788e-106
-5.6506893e-114
1.6907471e-121
-4.9779163e-129
1.4616077e-136
-4.2344733e-144
1.2005228e-151
-3.4825438e-159
9.9532168e-167
-2.7761657e-174
7.7208934e-182
-2.1182204e-189
5.8457923e-197
-1.5927929e-204
4.3071173e-212
-1.1611058e-219
3.0859464e-227
-8.3120295e-235
2.2139318e-242
-5.818219e-250
1.5176725e-257
-4.0112053e-265
1.0515015e-272
-2.724456e-280
7.0446466e-288
-1.7687848e-295
3.7764871e-303
-5.0448858e-311
5.7075683e-314
-8.0288558e-314
-3.158062e-11
1.8897463e-24
-4.9722286e-37
1.4648097e-48
2.4806511e-58
6.2792531e-68
2.3925055e-76
-6.8507884e-84
2.1110382e-91
-6.809998e-99
2.1883591e-106
-6.9056971e-114
2.1274343e-121
-6.5312065e-129
1.993805e-136
-5.9470862e-144
1.7669485e-151
-5.1765419e-159
1.5174639e-166
-4.3963186e-174
1.2622254e-181
-3.5589099e-189
1.0064024e-196
-2.774656e-204
7.6618413e-212
-2.1104205e-219
5.857346e-227
-1.6115716e-234
4.3706109e-242
-1.2056048e-249
3.2284049e-257
-8.7366647e-265
2.3526097e-272
-6.2279108e-280
1.6664145e-287
-4.2588366e-295
9.4150995e-303
-1.2871815e-310
1.399103e-313
-1.3558961e-313
-3.1580967e-11
1.8899017e-24
-4.9729504e-37
1.4639495e-48
2.5223851e-58
6.4029611e-68
2.4272771e-76
-7.1620509e-84
2.2948022e-91
-7.7551445e-99
2.5713368e-106
-8.3457381e-114
2.68741e-121
-8.6743667e-129
2.7115398e-136
-8.2694638e-144
2.5381209e-151
-7.7027634e-159
2.2847292e-166
-6.8118398e-174
2.000601e-181
-5.8395577e-189
1.7118407e-196
-4.9253795e-204
1.4000866e-211
-3.9422011e-219
1.1192629e-226
-3.1004989e-234
8.7665987e-242
-2.4137683e-249
6.6832541e-257
-1.8154078e-264
5.0310158e-272
-1.3725377e-279
3.8450917e-287
-1.0119905e-294
2.2546068e-302
-3.120295e-310
-3.5131955e-314
-1.4216984e-313
-3.1581258e-11
1.8900383e-24
-4.9735937e-37
1.4632027e-48
2.5600181e-58
6.5166111e-68
2.4659023e-76
-7.5407065e-84
2.5054413e-91
-8.6690167e-99
2.9722604e-106
-1.0120235e-113
3.4017071e-121
-1.1142392e-128
3.6253293e-136
-1.1695636e-143
3.7389629e-151
-1.1617744e-158
3.6291312e-166
-1.1353134e-173
3.4459832e-181
-1.0487975e-188
3.1234242e-196
-9.3017877e-204
2.7177785e-211
-7.9623466e-219
2.3102459e-226
-6.7529068e-234
1.9554638e-241
-5.5296729e-249
1.5670912e-256
-4.4220646e-264
1.2492724e-271
-3.5292384e-279
9.7874141e-287
-2.6929228e-294
6.176389e-302
-8.665824e-310
-8.5258583e-314
6.7666407e-314
-3.1581499e-11
1.8901586e-24
-4.9741705e-37
1.4625497e-48
2.5943859e-58
6.6187057e-68
2.4896934e-76
-7.8673107e-84
2.6794934e-91
-9.3711656e-99
3.3159987e-106
-1.1443823e-113
3.9414716e-121
-1.345117e-128
4.6033504e-136
-1.5119002e-143
4.8782502e-151
-1.5982821e-158
5.0792402e-166
-1.6056967e-173
5.06697e-181
-1.6011382e-188
4.8551236e-196
-1.4811507e-203
4.551964e-211
-1.343178e-218
4.0996431e-226
-1.2154803e-233
3.5596284e-241
-1.0584894e-248
3.1276435e-256
-9.2123952e-264
2.6895468e-271
-7.8491719e-279
2.2666384e-286
-6.3051911e-294
1.4845683e-301
-2.1058693e-309
-9.6834976e-316
6.4327642e-314
-3.1581698e-11
1.8902644e-24
-4.9746892e-37
1.4619813e-48
2.6253683e-58