/*--------------------------------*- C++ -*----------------------------------*\
  =========                 |
  \\      /  F ield         | OpenFOAM: The Open Source CFD Toolbox
   \\    /   O peration     | Website:  https://openfoam.org
    \\  /    A nd           | Version:  10
     \\/     M anipulation  |
\*---------------------------------------------------------------------------*/
FoamFile
{
    format      ascii;
    class       volScalarField;
    location    "0.02";
    object      TporMedia_0;
}
// * * * * * * * * * * * * * * * * * * * * * * * * * * * * * * * * * * * * * //

dimensions      [0 0 0 1 0 0 0];

internalField   nonuniform List<scalar> 
4000
(
-2.8171877e-08
1.1180412e-08
-9.3634621e-07
-1.4078153e-06
-6.8659185e-06
-6.0694351e-06
-5.9677828e-06
-5.8777258e-06
-5.830982e-06
-5.7788614e-06
-5.7830596e-06
-5.7270479e-06
-5.7169572e-06
-5.721159e-06
-5.7136799e-06
-5.7146493e-06
-5.7234476e-06
-5.7164397e-06
-5.7032719e-06
-5.7030319e-06
-5.6848883e-06
-5.6950534e-06
-5.6717198e-06
-5.6470313e-06
-5.6706463e-06
-5.6492202e-06
-5.6274302e-06
-5.6406849e-06
-5.6339333e-06
-5.6481153e-06
-5.668295e-06
-5.6801078e-06
-5.7438686e-06
-5.8015827e-06
-5.9069788e-06
-6.0640454e-06
-6.2419565e-06
-6.4272601e-06
-6.8178577e-06
-7.354986e-06
-1.5929294e-09
6.4385539e-20
-2.1482918e-17
2.2602595e-15
2.6436383e-14
6.6915094e-14
5.2463801e-14
5.061053e-14
5.0157377e-14
4.9672345e-14
4.9447958e-14
4.8783648e-14
4.868623e-14
4.867613e-14
4.8498182e-14
4.8718679e-14
4.8548138e-14
4.8807522e-14
4.8579279e-14
4.8481789e-14
4.8320073e-14
4.836526e-14
4.8323324e-14
4.7992293e-14
4.792799e-14
4.765564e-14
4.7522258e-14
4.7425053e-14
4.7342343e-14
4.7631284e-14
4.7642291e-14
4.7937606e-14
4.8902129e-14
5.0032022e-14
5.1518209e-14
5.4228467e-14
5.760646e-14
6.177034e-14
6.8942392e-14
8.0889266e-14
-6.3707172e-10
-8.0222141e-21
-1.2726931e-28
1.8725222e-25
-1.4992394e-23
-2.6501642e-22
-4.8494432e-22
-4.6558527e-22
-4.6013281e-22
-4.5006051e-22
-4.4884525e-22
-4.4442736e-22
-4.4112543e-22
-4.4139719e-22
-4.4053443e-22
-4.4022547e-22
-4.3937719e-22
-4.4290688e-22
-4.3958737e-22
-4.3891956e-22
-4.3758418e-22
-4.3954142e-22
-4.3529426e-22
-4.3332301e-22
-4.3077377e-22
-4.2637711e-22
-4.2270832e-22
-4.2436169e-22
-4.2113407e-22
-4.2318315e-22
-4.2221288e-22
-4.2647387e-22
-4.3749668e-22
-4.5051389e-22
-4.7007503e-22
-5.0595839e-22
-5.4785262e-22
-6.0148892e-22
-7.4491145e-22
-1.3494102e-21
-3.671822e-10
2.5100218e-21
6.5745675e-33
3.5681023e-36
2.500692e-33
2.3439569e-31
1.962231e-29
1.5613292e-29
1.2218444e-29
1.1743966e-29
1.1606526e-29
1.1737693e-29
1.1422635e-29
1.1423021e-29
1.1347495e-29
1.1179394e-29
1.1021713e-29
1.0990569e-29
1.1091193e-29
1.0767194e-29
1.0681739e-29
1.0716527e-29
1.03019e-29
1.0214989e-29
9.9220057e-30
9.7616647e-30
9.3955567e-30
9.210937e-30
9.0453956e-30
8.9820266e-30
8.822385e-30
8.9563657e-30
8.9986351e-30
9.3862063e-30
9.853375e-30
1.0839051e-29
1.2235681e-29
1.346623e-29
1.7241443e-29
3.8311841e-29
-1.6303771e-10
1.597968e-22
2.6990504e-34
1.9995018e-45
-3.3281448e-43
-8.2835451e-41
-1.9896231e-36
1.3291975e-36
-7.8301436e-37
-6.8445279e-37
-6.6102302e-37
-6.4818755e-37
-6.2280041e-37
-6.2683307e-37
-5.8532442e-37
-5.6559088e-37
-5.5249096e-37
-5.4700877e-37
-5.2448327e-37
-5.0093012e-37
-4.7641843e-37
-4.6777191e-37
-4.3960438e-37
-4.2848363e-37
-3.8006717e-37
-3.6222517e-37
-3.408682e-37
-3.1896093e-37
-3.0220917e-37
-2.9326658e-37
-2.7392798e-37
-2.7385935e-37
-2.8092558e-37
-2.8751271e-37
-3.1784498e-37
-3.967246e-37
-6.5940337e-37
-2.8920998e-36
-4.8834304e-37
-1.6124344e-37
-6.468328e-11
1.6326048e-23
2.9184217e-35
9.2788699e-47
-2.1174061e-53
2.0328231e-50
3.4681888e-45
-5.126486e-45
2.8072757e-45
2.4400933e-45
2.3542813e-45
2.3043865e-45
2.2166142e-45
2.2424566e-45
2.092828e-45
2.0284897e-45
1.9834319e-45
1.9683518e-45
1.8930296e-45
1.8076313e-45
1.7227469e-45
1.6899477e-45
1.5911377e-45
1.5484637e-45
1.3720912e-45
1.3071169e-45
1.2277593e-45
1.1485809e-45
1.0905588e-45
1.0545662e-45
9.8821813e-46
9.9198463e-46
1.022814e-45
1.0557858e-45
1.192315e-45
1.5467646e-45
2.8516762e-45
1.5190838e-44
2.0935189e-45
2.9089625e-46
-3.3712108e-11
3.4865548e-24
2.6688018e-35
3.8892429e-47
3.9243842e-58
-5.5196872e-60
-1.3601698e-54
5.6612475e-54
-3.6084075e-54
-3.1310405e-54
-3.0259454e-54
-2.9716885e-54
-2.8678004e-54
-2.9131819e-54
-2.7272698e-54
-2.6509068e-54
-2.6069475e-54
-2.5952488e-54
-2.5050981e-54
-2.39908e-54
-2.2941304e-54
-2.2576543e-54
-2.1318768e-54
-2.0799821e-54
-1.8470381e-54
-1.7640521e-54
-1.6599625e-54
-1.5567316e-54
-1.4807539e-54
-1.4361842e-54
-1.3496522e-54
-1.3579838e-54
-1.4057366e-54
-1.4609423e-54
-1.6636701e-54
-2.1894859e-54
-4.1806437e-54
-2.3889458e-53
-3.4420805e-54
-6.0091642e-55
-2.3923868e-11
1.4456792e-24
-3.1618427e-36
-2.3851611e-48
-8.8930824e-60
7.2077345e-69
1.9652442e-64
-3.5216234e-63
3.5117171e-63
3.0156557e-63
2.9154243e-63
2.8814573e-63
2.7987512e-63
2.8551083e-63
2.6874127e-63
2.6257331e-63
2.5948592e-63
2.5960012e-63
2.5166309e-63
2.4208204e-63
2.3238916e-63
2.2964108e-63
2.1772764e-63
2.1311273e-63
1.8993752e-63
1.8201739e-63
1.716109e-63
1.6137588e-63
1.5387698e-63
1.4961222e-63
1.4065606e-63
1.4173228e-63
1.4669477e-63
1.5242272e-63
1.7314323e-63
2.2717912e-63
4.2994329e-63
2.4607741e-62
4.208651e-63
-1.8600273e-62
-2.1564048e-11
9.8776499e-25
-1.2957684e-36
-6.0758974e-49
-1.2105726e-60
-1.0622321e-69
-1.4309828e-74
1.7142991e-72
-5.8734562e-72
-4.6735681e-72
-4.4417111e-72
-4.4408825e-72
-4.3599334e-72
-4.4921061e-72
-4.2628996e-72
-4.1962263e-72
-4.1743704e-72
-4.2053371e-72
-4.1042396e-72
-3.969499e-72
-3.8296873e-72
-3.8073386e-72
-3.6300695e-72
-3.5670159e-72
-3.1950887e-72
-3.0721754e-72
-2.9036454e-72
-2.7362571e-72
-2.612216e-72
-2.5429269e-72
-2.3843543e-72
-2.3923904e-72
-2.4567869e-72
-2.5149687e-72
-2.79906e-72
-3.5545333e-72
-6.2678812e-72
-3.3326397e-71
-8.0203202e-72
-3.788764e-71
-2.266299e-11
9.4855644e-25
-1.4143034e-36
-5.054495e-49
-7.0437234e-61
-9.6282397e-71
4.6689988e-81
-7.6309413e-82
-1.7750088e-80
-1.9770829e-80
-2.2272088e-80
-2.1976282e-80
-2.1366704e-80
-2.1665368e-80
-2.0418353e-80
-2.0025333e-80
-1.9850987e-80
-1.9909993e-80
-1.9381924e-80
-1.8698749e-80
-1.8026882e-80
-1.7894815e-80
-1.7003081e-80
-1.6687309e-80
-1.4898864e-80
-1.4354128e-80
-1.3577486e-80
-1.281099e-80
-1.2266491e-80
-1.2065288e-80
-1.1452986e-80
-1.1657346e-80
-1.2388135e-80
-1.3304073e-80
-1.5960308e-80
-2.2948029e-80
-5.8544343e-80
-9.6028703e-79
-5.2783341e-80
-7.0829241e-80
-2.5389716e-11
1.0967703e-24
-1.988256e-36
-6.6349725e-49
-8.1077691e-61
-4.9793514e-71
2.08431e-81
-5.7384045e-91
-1.5862025e-89
-1.965793e-89
-2.3697689e-89
-2.3569511e-89
-2.3005334e-89
-2.3434343e-89
-2.2207455e-89
-2.185229e-89
-2.1765989e-89
-2.1909629e-89
-2.1417021e-89
-2.0716792e-89
-2.0047306e-89
-1.9935537e-89
-1.8998652e-89
-1.8677739e-89
-1.6696143e-89
-1.6113672e-89
-1.5257732e-89
-1.4404002e-89
-1.3809742e-89
-1.3581083e-89
-1.2908102e-89
-1.313673e-89
-1.3964876e-89
-1.5026042e-89
-1.8066805e-89
-2.5989836e-89
-6.7375189e-89
-1.1907441e-87
-7.4998035e-89
-2.6090903e-88
-2.8049082e-11
1.3249688e-24
-1.5969566e-36
-6.0526051e-49
-7.8882712e-61
-3.2194647e-71
1.4743637e-81
-6.6041454e-91
-1.2776863e-98
-1.6261281e-98
-2.0962798e-98
-2.1135632e-98
-2.0807349e-98
-2.1367733e-98
-2.0395374e-98
-2.0213021e-98
-2.0249917e-98
-2.0499509e-98
-2.0144008e-98
-1.9562829e-98
-1.9015147e-98
-1.8961459e-98
-1.8122246e-98
-1.7864532e-98
-1.5994386e-98
-1.5460709e-98
-1.4639472e-98
-1.3821178e-98
-1.3222076e-98
-1.2988314e-98
-1.2295993e-98
-1.2465672e-98
-1.3174088e-98
-1.4055614e-98
-1.6696995e-98
-2.3581284e-98
-6.0114077e-98
-1.1126206e-96
-9.674314e-98
1.5697814e-95
-2.9446586e-11
1.5234884e-24
-9.8343803e-37
-5.1248869e-49
-8.4256187e-61
-2.9800819e-71
1.8456664e-81
-9.2059411e-91
-1.0112762e-99
-1.9618414e-107
-2.5819077e-107
-2.6586199e-107
-2.6519739e-107
-2.7542986e-107
-2.6577674e-107
-2.6605367e-107
-2.6847235e-107
-2.7377123e-107
-2.7078656e-107
-2.6447266e-107
-2.5829423e-107
-2.5853121e-107
-2.4798752e-107
-2.4478328e-107
-2.1968994e-107
-2.1263486e-107
-2.0112932e-107
-1.8949074e-107
-1.8067179e-107
-1.7668683e-107
-1.6602441e-107
-1.6674709e-107
-1.7398431e-107
-1.8228548e-107
-2.1180663e-107
-2.8923008e-107
-7.1261533e-107
-1.3996744e-105
-2.1553287e-106
-9.5769854e-104
-2.9664006e-11
1.6312539e-24
-6.7751109e-37
-5.9193523e-49
-1.4089247e-60
-5.2491338e-71
5.306826e-81
-3.233465e-90
-9.1003625e-99
-2.4580155e-107
-1.5501575e-115
-8.4993104e-116
-8.660789e-116
-9.1730391e-116
-8.9897794e-116
-9.1549556e-116
-9.3503207e-116
-9.6456338e-116
-9.634067e-116
-9.4986706e-116
-9.3127731e-116
-9.3904046e-116
-9.0521048e-116
-8.9498712e-116
-8.0479394e-116
-7.7730509e-116
-7.3433147e-116
-6.8949129e-116
-6.5284697e-116
-6.3078746e-116
-5.8397521e-116
-5.7638388e-116
-5.8559164e-116
-5.9454222e-116
-6.5942343e-116
-8.4814678e-116
-1.98914e-115
-4.4968618e-114
-4.2977473e-114
5.082737e-112
-2.9415573e-11
1.6657896e-24
-5.4015979e-37
-1.0073867e-48
-3.8313145e-60
-1.7277846e-70
3.3644407e-80
-2.7656475e-89
6.5249251e-97
-7.0965371e-104
2.3233081e-111
-6.4730127e-119
2.2200148e-123
2.2898152e-123
2.1282465e-123
2.1057619e-123
2.1022573e-123
2.1150024e-123
2.0918309e-123
2.0156019e-123
1.963706e-123
1.9594659e-123
1.8842236e-123
1.8422823e-123
1.65782e-123
1.5977953e-123
1.5163717e-123
1.4373183e-123
1.3828472e-123
1.4002729e-123
1.3306227e-123
1.3607886e-123
1.496406e-123
1.6845712e-123
2.2729204e-123
4.0122319e-123
1.131694e-122
7.6959917e-122
2.1969231e-122
-3.1515234e-120
-2.9176114e-11
1.670654e-24
-4.8356193e-37
-3.0309177e-48
-1.9162245e-59
-1.1364043e-69
4.885268e-79
-5.9863003e-88
3.0508105e-96
-1.8775565e-104
1.1024196e-112
-6.4656638e-121
3.788107e-129
-1.3524162e-131
-1.254928e-131
-1.24915e-131
-1.2446917e-131
-1.2580141e-131
-1.2466127e-131
-1.2033361e-131
-1.1701916e-131
-1.1739211e-131
-1.1239537e-131
-1.0988683e-131
-9.8675048e-132
-9.5164686e-132
-8.9864761e-132
-8.5250421e-132
-8.2037608e-132
-8.271084e-132
-7.8138504e-132
-7.9840284e-132
-8.7162626e-132
-9.8313186e-132
-1.3234614e-131
-2.3443284e-131
-6.3829751e-131
-3.6673644e-130
-8.3440255e-131
2.3284658e-128
-2.9067859e-11
1.6724331e-24
-4.6706527e-37
1.5781122e-47
1.5889881e-58
1.2656561e-68
-1.3007183e-77
2.5711849e-86
-1.3618102e-94
8.3143824e-103
-5.0492164e-111
3.0825412e-119
-1.9030419e-127
1.1866523e-135
7.8570749e-140
7.8616096e-140
7.9032443e-140
8.0180028e-140
7.9716225e-140
7.6926055e-140
7.4867069e-140
7.5277216e-140
7.1905858e-140
7.0232116e-140
6.3030084e-140
6.0627342e-140
5.6957936e-140
5.3559316e-140
5.1263594e-140
5.1481596e-140
4.8288859e-140
4.8626936e-140
5.2658198e-140
5.8513429e-140
7.7850819e-140
1.3575471e-139
3.5052787e-139
1.7494967e-138
3.5682314e-139
-1.8999168e-136
-2.905396e-11
1.6782923e-24
-4.6848267e-37
4.2887227e-48
6.1371688e-59
6.3299935e-69
-1.4835205e-77
4.8139387e-86
-3.6770653e-94
3.2019579e-102
-2.79873e-110
2.4695788e-118
-2.2120686e-126
1.9889069e-134
-1.8029045e-142
-7.1565358e-148
-7.2602346e-148
-7.3884856e-148
-7.4139354e-148
-7.1231393e-148
-6.9037317e-148
-6.9808515e-148
-6.6176707e-148
-6.4309261e-148
-5.7541063e-148
-5.4995397e-148
-5.1438956e-148
-4.8388163e-148
-4.5670024e-148
-4.5396797e-148
-4.1940299e-148
-4.1936911e-148
-4.4412728e-148
-4.8651075e-148
-6.3661787e-148
-1.0797865e-147
-2.6105578e-147
-1.087164e-146
-1.875812e-147
1.6034034e-144
-2.9077298e-11
1.6868671e-24
-4.7496996e-37
3.3529639e-48
6.0585983e-59
7.5696111e-69
-3.3551783e-77
1.6411779e-85
-1.8863506e-93
2.4524148e-101
-3.207217e-109
4.2054287e-117
-5.5807334e-125
7.4918309e-133
-1.0016565e-140
1.350118e-148
7.9643119e-156
9.959089e-156
1.0023223e-155
9.6470775e-156
9.2443647e-156
9.3951854e-156
8.8766091e-156
8.5468022e-156
7.6681945e-156
7.282294e-156
6.7377502e-156
6.2817661e-156
5.9005345e-156
5.7241395e-156
5.2492401e-156
5.1722784e-156
5.4017198e-156
5.7852063e-156
7.4841165e-156
1.2320324e-155
2.733032e-155
8.8588198e-155
1.1462573e-155
-1.3789356e-152
-2.9105309e-11
1.6956415e-24
-4.8059985e-37
3.002603e-48
6.3948639e-59
9.1123402e-69
-6.5310905e-77
4.1360918e-85
-6.0120164e-93
9.7648525e-101
-1.5820203e-108
2.5812861e-116
-4.2326749e-124
6.8750541e-132
-1.1195109e-139
1.8462276e-147
-3.0371866e-155
3.3410013e-163
-1.6523545e-163
-1.5642843e-163
-1.5009747e-163
-1.5295006e-163
-1.4349538e-163
-1.3527186e-163
-1.2198327e-163
-1.1547709e-163
-1.0517368e-163
-9.8397337e-164
-9.0752361e-164
-8.701358e-164
-7.8493368e-164
-7.7226694e-164
-7.8999283e-164
-8.3505357e-164
-1.0692562e-163
-1.7196224e-163
-3.4895156e-163
-8.2679785e-163
-7.3706143e-164
1.2030274e-160
-2.9127682e-11
1.7032823e-24
-4.8411728e-37
2.7500451e-48
6.7355222e-59
1.0547089e-68
-1.2896561e-76
9.350086e-85
-1.4345904e-92
2.3893516e-100
-3.9934008e-108
6.6195756e-116
-1.097197e-123
1.8321763e-131
-3.0614702e-139
5.1202346e-147
-8.5389691e-155
1.4211586e-162
-2.0775382e-170
2.5892556e-171
2.4683776e-171
2.5122582e-171
2.3536654e-171
2.1939187e-171
1.9675673e-171
1.8403032e-171
1.6676599e-171
1.5496179e-171
1.4225634e-171
1.3473193e-171
1.2067996e-171
1.1824124e-171
1.18825e-171
1.2520951e-171
1.5776817e-171
2.4757593e-171
4.5934641e-171
7.9509235e-171
4.7685315e-172
-1.0731111e-168
-2.9144185e-11
1.7095272e-24
-4.8619933e-37
2.5439632e-48
7.1156564e-59
1.2028775e-68
-3.7876361e-76
3.0159601e-84
-4.5538375e-92
7.4032413e-100
-1.1979675e-107
1.9325258e-115
-3.1143889e-123
5.0895831e-131
-8.2632612e-139
1.3356961e-146
-2.1819327e-154
3.4788385e-162
-5.610183e-170
8.5437526e-178
-3.944079e-179
-4.0044276e-179
-3.7123216e-179
-3.3963614e-179
-3.0751217e-179
-2.8623298e-179
-2.6124079e-179
-2.3739473e-179
-2.1834595e-179
-2.0430283e-179
-1.824714e-179
-1.773229e-179
-1.7681334e-179
-1.8368449e-179
-2.2858187e-179
-3.5346456e-179
-5.9553186e-179
-7.6007326e-179
-3.0896222e-180
9.7122687e-177
-2.9156834e-11
1.7145784e-24
-4.8765477e-37
2.3864639e-48
7.5778694e-59
1.3695949e-68
1.4493738e-75
-1.253802e-83
1.8858511e-91
-3.0547894e-99
4.8871294e-107
-7.8274649e-115
1.2509436e-122
-2.0037681e-130
3.2199757e-138
-5.154137e-146
8.2236075e-154
-1.3116493e-161
2.0866225e-169
-3.3171069e-177
5.3204626e-185
6.2493412e-187
5.7958807e-187
5.3333883e-187
4.740151e-187
4.4283176e-187
4.0090082e-187
3.5869797e-187
3.2912558e-187
3.0609923e-187
2.7072415e-187
2.6246234e-187
2.579376e-187
2.6614918e-187
3.2998683e-187
5.0052572e-187
7.7105596e-187
7.2744151e-187
2.0109349e-188
-8.9836815e-185
-2.9167148e-11
1.718712e-24
-4.8888975e-37
2.2722048e-48
8.1135746e-59
1.5561406e-68
3.6519123e-76
-3.4715734e-84
5.2933769e-92
-8.6193437e-100
1.400818e-107
-2.2633076e-115
3.6905135e-123
-6.0146769e-131
9.7333634e-139
-1.5533832e-146
2.5250456e-154
-4.0437215e-162
6.4789772e-170
-1.0421635e-177
1.6503902e-185
-2.7192246e-193
-9.1413569e-195
-8.3414703e-195
-7.3427008e-195
-6.9113508e-195
-6.1442659e-195
-5.4944142e-195
-4.9995393e-195
-4.660388e-195
-4.0822088e-195
-3.912801e-195
-3.8485665e-195
-3.9237472e-195
-4.8130156e-195
-7.1995309e-195
-1.01137e-194
-7.0539003e-195
-1.325725e-196
8.4393349e-193
-2.9175868e-11
1.7221442e-24
-4.9000982e-37
2.1900277e-48
8.6912204e-59
1.7557765e-68
2.5938742e-76
-2.6735502e-84
4.2141501e-92
-7.1183489e-100
1.186382e-107
-1.9685627e-115
3.2460114e-123
-5.3635934e-131
8.8835552e-139
-1.4615112e-146
2.3946115e-154
-3.9404035e-162
6.4403379e-170
-1.0563277e-177
1.7066257e-185
-2.7586094e-193
4.5932845e-201
1.3328794e-202
1.1709637e-202
1.0988499e-202
9.7802443e-203
8.655688e-203
7.7690199e-203
7.2899453e-203
6.3144561e-203
5.9828376e-203
5.8778339e-203
5.8752933e-203
7.2077632e-203
1.0550404e-202
1.3663492e-202
6.9274719e-203
8.8893765e-205
-8.0733019e-201
-2.9183323e-11
1.7250229e-24
-4.9101216e-37
2.1296139e-48
9.2825214e-59
1.9613441e-68
2.2604254e-76
-2.508771e-84
4.0618587e-92
-6.9451947e-100
1.2012792e-107
-2.0429236e-115
3.4816432e-123
-5.9442373e-131
1.0096631e-138
-1.707513e-146
2.856859e-154
-4.8074239e-162
8.0275903e-170
-1.336864e-177
2.2179856e-185
-3.6595903e-193
5.9899983e-201
-9.9507134e-209
-1.899104e-210
-1.7756107e-210
-1.5653039e-210
-1.3827136e-210
-1.2302115e-210
-1.1569795e-210
-1.0037114e-210
-9.3472342e-211
-9.1602286e-211
-9.0023273e-211
-1.0948202e-210
-1.6084484e-210
-1.875536e-210
-6.9297502e-211
-5.9928965e-213
7.8622858e-209
-2.9189691e-11
1.7274513e-24
-4.91887e-37
2.0837181e-48
9.8697812e-59
2.1671887e-68
2.1678144e-76
-2.5615934e-84
4.3211931e-92
-7.6048274e-100
1.3266372e-107
-2.3376087e-115
4.0794806e-123
-7.1485838e-131
1.2490687e-138
-2.1800013e-146
3.7937035e-154
-6.5411156e-162
1.1215287e-169
-1.9165028e-177
3.2428902e-185
-5.5324442e-193
9.3313313e-201
-1.5471451e-208
2.5959461e-216
2.9309451e-218
2.5795975e-218
2.2437676e-218
1.9843299e-218
1.874696e-218
1.6041311e-218
1.5017523e-218
1.4410541e-218
1.4204825e-218
1.7373089e-218
2.4905773e-218
2.6466961e-218
7.0591953e-219
4.127842e-221
-7.7647077e-217
-2.9195121e-11
1.729507e-24
-4.926402e-37
2.0478163e-48
1.0442423e-58
2.3705818e-68
2.1300839e-76
-2.6847458e-84
4.6844062e-92
-8.5150684e-100
1.5345577e-107
-2.7433322e-115
4.8831353e-123
-8.7156954e-131
1.5405251e-138
-2.7327889e-146
4.8549302e-154
-8.5856292e-162
1.4887513e-169
-2.6008195e-177
4.5314803e-185
-7.8580916e-193
1.3451517e-200
-2.3142961e-208
3.9393142e-216
-6.6510657e-224
-4.3116536e-226
-3.7757604e-226
-3.2975954e-226
-3.1087471e-226
-2.6565704e-226
-2.4564388e-226
-2.3371652e-226
-2.3002585e-226
-2.7887505e-226
-3.9433716e-226
-3.7870893e-226
-7.3539228e-227
-2.8674374e-229
7.816702e-225
-2.919975e-11
1.7312525e-24
-4.9328709e-37
2.0191685e-48
1.0994235e-58
2.5673821e-68
2.1377673e-76
-2.8375898e-84
5.0832971e-92
-9.5166691e-100
1.7725259e-107
-3.2586031e-115
5.9452258e-123
-1.0849703e-130
1.9740103e-138
-3.5626689e-146
6.3915678e-154
-1.1465149e-161
2.052911e-169
-3.6510051e-177
6.5108269e-185
-1.1474148e-192
2.0133196e-200
-3.4992402e-208
6.0956661e-216
-1.055515e-223
1.8125735e-231
6.3987082e-234
5.6370771e-234
5.2971931e-234
4.4847853e-234
4.1178827e-234
3.9211892e-234
3.7863093e-234
4.6240352e-234
6.3565382e-234
5.5897358e-234
7.796664e-235
2.0024301e-237
-7.9872195e-233
-2.9203703e-11
1.7327384e-24
-4.9384351e-37
1.9959837e-48
1.1520135e-58
2.7567129e-68
2.1687036e-76
-3.0602506e-84
5.604309e-92
-1.0640181e-99
2.0173359e-107
-3.8136308e-115
7.2003457e-123
-1.3420687e-130
2.527761e-138
-4.7133416e-146
8.6170892e-154
-1.5782589e-161
2.8957257e-169
-5.3195258e-177
9.6593937e-185
-1.7417243e-192
3.1295135e-200
-5.6012555e-208
1.001423e-215
-1.7752525e-223
3.1009372e-231
-5.3936149e-239
-9.821848e-242
-9.1048395e-242
-7.6877235e-242
-7.0096813e-242
-6.7195406e-242
-6.4768e-242
-7.8321304e-242
-1.0541184e-241
-8.3947397e-242
-8.3718177e-243
-1.4138292e-245
8.2979454e-241
-2.9207085e-11
1.734007e-24
-4.9432373e-37
1.9770317e-48
1.2016077e-58
2.9370019e-68
2.2033397e-76
-3.2326888e-84
6.0802484e-92
-1.2043089e-99
2.380792e-107
-4.6124476e-115
8.9213856e-123
-1.7180118e-130
3.2844547e-138
-6.1481823e-146
1.164476e-153
-2.186032e-161
4.0875163e-169
-7.5558463e-177
1.4085196e-184
-2.5903852e-192
4.7668622e-200
-8.7391313e-208
1.5728332e-215
-2.8617514e-223
5.1529984e-231
-9.1906816e-239
1.6278754e-246
1.6166535e-249
1.3491635e-249
1.2265442e-249
1.1817635e-249
1.1387131e-249
1.3586183e-249
1.7976572e-249
1.2991978e-249
9.1570459e-251
1.0110236e-253
-8.7862582e-249
-2.9209983e-11
1.7350929e-24
-4.9473909e-37
1.9614216e-48
1.2479788e-58
3.1064432e-68
2.244761e-76
-3.4091182e-84
6.6123869e-92
-1.3378662e-99
2.6876579e-107
-5.3743464e-115
1.0626126e-122
-2.1138525e-130
4.1560073e-138
-8.0495377e-146
1.5656557e-153
-3.0366009e-161
5.7702795e-169
-1.1071884e-176
2.1109819e-184
-3.9549729e-192
7.4922052e-200
-1.4052167e-207
2.6238492e-215
-4.8066139e-223
8.8882673e-231
-1.6312802e-238
2.9835375e-246
-5.4100223e-254
-2.4397409e-257
-2.1821743e-257
-2.0930329e-257
-2.0392792e-257
-2.3897764e-257
-3.1428661e-257
-2.0284996e-257
-1.007052e-258
-7.3132217e-262
9.4008827e-257
-2.9212473e-11
1.7360247e-24
-4.9509896e-37
1.9484582e-48
1.2910788e-58
3.2646536e-68
2.2956908e-76
-3.6627361e-84
7.3819963e-92
-1.5384662e-99
3.1911367e-107
-6.5583346e-115
1.351233e-122
-2.7011253e-130
5.4456509e-138
-1.0825163e-145
2.1619294e-153
-4.2635296e-161
8.5019177e-169
-1.6467645e-176
3.1952641e-184
-6.2342711e-192
1.1841789e-199
-2.25654e-207
4.2709141e-215
-8.0197523e-223
1.5116629e-230
-2.799457e-238
5.2089621e-246
-9.7452833e-254
1.7880615e-261
4.0241442e-265
3.8296018e-265
3.7391857e-265
4.3482838e-265
5.5414298e-265
3.2393596e-265
1.1336856e-266
5.3459532e-270
-1.023012e-264
-2.9214613e-11
1.7368262e-24
-4.9541143e-37
1.9376213e-48
1.3307132e-58
3.411255e-68
2.3267449e-76
-3.8319699e-84
7.9232498e-92
-1.6941227e-99
3.638179e-107
-7.6635833e-115
1.622667e-122
-3.3415727e-130
6.8990499e-138
-1.4051595e-145
2.8690578e-153
-5.8151944e-161
1.1733829e-168
-2.3329491e-176
4.6532369e-184
-9.1970078e-192
1.802944e-199
-3.5370218e-207
6.9170607e-215
-1.3385976e-222
2.5920035e-230
-4.9921242e-238
9.4766905e-246
-1.7989982e-253
3.4041067e-261
-6.4433185e-269
-7.2001768e-273
-7.0109501e-273
-8.1462149e-273
-9.9764803e-273
-5.3518922e-273
-1.292762e-274
-3.9372987e-278
1.1336013e-272
-2.9216456e-11
1.7375171e-24
-4.9568305e-37
1.9285115e-48
1.3670639e-58
3.5463742e-68
2.368662e-76
-4.064353e-84
8.7694458e-92
-1.9386041e-99
4.2165053e-107
-9.2347359e-115
1.9770116e-122
-4.22416e-130
9.0306373e-138
-1.9164279e-145
4.0188108e-153
-8.3136446e-161
1.7138872e-168
-3.5018011e-176
7.142386e-184
-1.4499912e-191
2.9402317e-199
-5.9330272e-207
1.1775177e-214
-2.3345429e-222
4.6022383e-230
-9.0195508e-238
1.7905386e-245
-3.4613143e-253
6.7025909e-261
-1.2975905e-268
2.4798459e-276
1.3479088e-280
1.5532357e-280
1.8456259e-280
9.0053493e-281
1.4949462e-282
2.9492044e-286
-1.265182e-280
-2.9218046e-11
1.7381141e-24
-4.9591965e-37
1.9208213e-48
1.4001002e-58
3.6693442e-68
2.3932216e-76
-4.2754207e-84
9.3247987e-92
-2.1334998e-99
4.8636479e-107
-1.0836763e-114
2.3920113e-122
-5.2759788e-130
1.1601999e-137
-2.5236103e-145
5.4296677e-153
-1.1455273e-160
2.4111559e-168
-5.0575807e-176
1.060538e-183
-2.1934104e-191
4.5522568e-199
-9.3376258e-207
1.9011355e-214
-3.8353946e-222
7.714642e-230
-1.5540615e-237
3.1249744e-245
-6.1817397e-253
1.2245881e-260
-2.406907e-268
4.7184198e-276
-9.2203882e-284
-3.0106712e-288
-3.486203e-288
-1.53833e-288
-1.7725349e-290
-2.2319438e-294
1.4417562e-288
-2.9219418e-11
1.7386309e-24
-4.9612615e-37
1.9142941e-48
1.430161e-58
3.7809808e-68
2.4277177e-76
-4.5023493e-84
1.0261422e-91
-2.4194034e-99
5.6404338e-107
-1.2986267e-114
2.9885987e-122
-6.7795081e-130
1.512533e-137
-3.3792931e-145
7.4748106e-153
-1.6450794e-160
3.6057093e-168
-7.8997427e-176
1.7100063e-183
-3.7099605e-191
7.8907576e-199
-1.6728652e-206
3.4652706e-214
-7.3019525e-222
1.509046e-229
-3.1044592e-237
6.3125867e-245
-1.2872229e-252
2.6329736e-260
-5.3392681e-268
1.0793604e-275
-2.1837103e-283
4.3855972e-291
6.9075493e-296
2.7171826e-296
2.1249235e-298
1.7034172e-302
-1.6569517e-296
-2.9220604e-11
1.7390792e-24
-4.9630681e-37
1.9087287e-48
1.4572393e-58
3.8825825e-68
2.4587533e-76
-4.7185436e-84
1.1004923e-91
-2.6231565e-99
6.2678065e-107
-1.4809889e-114
3.5114615e-122
-8.1688371e-130
1.88377e-137
-4.2757457e-145
9.6672075e-153
-2.1674196e-160
4.8531044e-168
-1.0695149e-175
2.3464794e-183
-5.1541297e-191
1.119048e-198
-2.427312e-206
5.2821491e-214
-1.1220585e-221
2.380654e-229
-5.0987817e-237
1.0724018e-244
-2.2408003e-252
4.715382e-260
-9.7734912e-268
2.0016052e-275
-4.153234e-283
8.4660609e-291
-1.7168243e-298
-4.8006641e-304
-2.5855153e-306
-1.3239469e-310
1.9507021e-304
-2.9221631e-11
1.7394688e-24
-4.9646512e-37
1.9039777e-48
1.481761e-58
3.974099e-68
2.4777623e-76
-4.9524348e-84
1.1887908e-91
-2.9652116e-99
7.3574866e-107
-1.8097683e-114
4.4636118e-122
-1.0702658e-129
2.4954817e-137
-5.8923116e-145
1.3709592e-152
-3.146756e-160
7.2559492e-168
-1.6592404e-175
3.7495377e-183
-8.4890927e-191
1.91184e-198
-4.2365066e-206
9.1942946e-214
-2.0225704e-221
4.4643792e-229
-9.6135936e-237
2.0614061e-244
-4.4429273e-252
9.577839e-260
-2.0557028e-267
4.3769635e-275
-9.2994949e-283
1.9714997e-290
-4.0540148e-298
7.4153699e-306
5.6482398e-314
3.7908982e-314
-2.8451739e-312
-2.9222518e-11
1.739808e-24
-4.9660417e-37
1.8998946e-48
1.5037404e-58
4.0567178e-68
2.492444e-76
-5.0490536e-84
1.2521507e-91
-3.2149824e-99
8.2061276e-107
-2.0697746e-114
5.208082e-122
-1.2924845e-129
3.154239e-137
-7.6156186e-145
1.8203847e-152
-4.3712557e-160
1.0351572e-167
-2.4359194e-175
5.6398885e-183
-1.2847495e-190
2.9355459e-198
-6.6560647e-206
1.5147559e-213
-3.3799783e-221
7.5626634e-229
-1.6823464e-236
3.7211345e-244
-8.1874825e-252
1.7872892e-259
-3.9180399e-267
8.5473695e-275
-1.8514022e-282
4.0174662e-290
-8.5369351e-298
1.6049022e-305
2.9722364e-313
5.9781416e-314
-1.8502336e-313
-2.9223285e-11
1.7401039e-24
-4.9672654e-37
1.8963913e-48
1.5234381e-58
4.1298741e-68
2.5062221e-76
-5.2703859e-84
1.3546167e-91
-3.6073846e-99
9.5250077e-107
-2.4391713e-114
6.2970348e-122
-1.6289594e-129
4.1298508e-137
-1.0239658e-144
2.5520721e-152
-6.2967655e-160
1.5278286e-167
-3.7081491e-175
8.9420589e-183
-2.1072292e-190
4.9205449e-198
-1.1473018e-205
2.672621e-213
-6.1308373e-221
1.4048906e-228
-3.2578104e-236
7.4164746e-244
-1.6720375e-251
3.8171884e-259
-8.5313384e-267
1.8927259e-274
-4.2382116e-282
9.3704439e-290
-2.0577202e-297
3.9467728e-305
-6.0485118e-313
3.3268244e-314
-2.0031781e-313
-2.9223949e-11
1.7403625e-24
-4.9683461e-37
1.8933646e-48
1.5412027e-58
4.1977155e-68
2.5316016e-76
-5.6421415e-84
1.5291449e-91
-4.2417024e-99
1.1503188e-106
-3.0440934e-114
8.1267187e-122
-2.1030066e-129
5.4985403e-137
-1.4131002e-144
3.6080406e-152
-9.1209304e-160
2.3008866e-167
-5.747259e-175
1.4161392e-182
-3.4462864e-190
8.2342184e-198
-1.9841993e-205
4.8004379e-213
-1.1247023e-220
2.6405652e-228
-6.2076243e-236
1.4379891e-243
-3.3148407e-251
7.6146344e-259
-1.7628906e-266
4.1187532e-274
-9.4236409e-282
2.147665e-289
-4.7744043e-297
9.2885477e-305
-1.0442367e-312
-1.1711207e-313
-2.1639125e-313
-2.9224522e-11
1.7405889e-24
-4.9693008e-37
1.8907436e-48
1.557112e-58
4.2563079e-68
2.5305955e-76
-5.7134147e-84
1.566502e-91
-4.4456985e-99
1.2578387e-106
-3.4437676e-114
9.5206369e-122
-2.564473e-129
6.8424772e-137
-1.8160357e-144
4.7725885e-152
-1.2390213e-159
3.216681e-167
-8.1874122e-175
2.0572197e-182
-5.156092e-190
1.2790864e-197
-3.1409931e-205
7.8345134e-213
-1.914322e-220
4.6368107e-228
-1.1173943e-235
2.6889952e-243
-6.4790513e-251
1.5393325e-258
-3.6540931e-266
8.6242017e-274
-2.0506427e-281
4.7647715e-289
-1.0945141e-296
2.2071569e-304
-3.091137e-312
-1.0004871e-313
-1.3083687e-313
-2.9225016e-11
1.7407873e-24
-4.9701489e-37
1.888479e-48
1.5711887e-58
4.3102892e-68
2.538404e-76
-5.8898944e-84
1.6463893e-91
-4.8406363e-99
1.3986825e-106
-3.9850571e-114
1.1194155e-121
-3.0976909e-129
8.5516285e-137
-2.3423321e-144
6.2969455e-152
-1.6946642e-159
4.4509959e-167
-1.1810077e-174
3.0770994e-182
-7.8948163e-190
2.0128026e-197
-5.0718507e-205
1.269881e-212
-3.1755233e-220
7.8985434e-228
-1.9348967e-235
4.7789067e-243
-1.1681145e-250
2.8502606e-258
-6.8703025e-266
1.6738616e-273
-4.0467026e-281
9.6972113e-289
-2.2761538e-296
4.6852139e-304
-6.4467173e-312
9.7879901e-314
-1.1988264e-313
-2.9225441e-11
1.7409615e-24
-4.970903e-37
1.8865038e-48
1.5839059e-58
4.3570035e-68
2.5475209e-76
-6.1772966e-84
1.8161542e-91
-5.5576798e-99
1.6791847e-106
-4.9647519e-114
1.4397305e-121
-4.1725485e-129
1.1906668e-136
-3.3422135e-144
9.1834404e-152
-2.5394867e-159
6.9487857e-167
-1.8869388e-174
5.0619136e-182
-1.3346064e-189
3.5211302e-197
-9.1852215e-205
2.4135674e-212
-6.3610384e-220
1.6289145e-227
-4.2003127e-235
1.0808746e-242
-2.7400006e-250
6.8143599e-258
-1.7119719e-265
4.1995984e-273
-1.0448853e-280
2.5844399e-288
-6.1815399e-296
1.3038266e-303
-1.7630729e-311
-6.1876075e-314
-2.8450623e-313
-2.9225803e-11
1.7411146e-24
-4.9715753e-37
1.8847906e-48
1.5952525e-58
4.3995481e-68
2.5463213e-76
-6.3690691e-84
1.9125785e-91
-5.8686964e-99
1.8429461e-106
-5.6600842e-114
1.7019879e-121
-5.1057471e-129
1.4943597e-136
-4.3593004e-144
1.2562038e-151
-3.5847541e-159
1.0145812e-166
-2.8432366e-174
7.7240518e-182
-2.1198572e-189
5.7460618e-197
-1.5615545e-204
4.1367223e-212
-1.0987568e-219
2.9157618e-227
-7.691819e-235
2.0040736e-242
-5.2099367e-250
1.3698084e-257
-3.5681705e-265
9.1567754e-273
-2.3431708e-280
5.9212877e-288
-1.4678828e-295
3.195331e-303
-4.3294912e-311
1.3942777e-313
-1.1940261e-313
-2.9226112e-11
1.7412495e-24
-4.9721769e-37
1.8832947e-48
1.605437e-58
4.4379007e-68
2.5474556e-76
-6.5035233e-84
2.0877311e-91
-6.7550187e-99
2.2098517e-106
-6.940007e-114
2.1520073e-121
-6.6455952e-129
2.010438e-136
-6.0542755e-144
1.7986486e-151
-5.255993e-159
1.5372739e-166
-4.4017377e-174
1.2554315e-181
-3.5388581e-189
9.9489063e-197
-2.7473297e-204
7.5581813e-212
-2.0469991e-219
5.566111e-227
-1.5087962e-234
4.0286446e-242
-1.1002509e-249
2.9234983e-257
-7.7767171e-265
2.0483175e-272
-5.3478412e-280
1.392603e-287
-3.5776475e-295
7.9005811e-303
-1.10114e-310
-1.8297232e-313
5.9172819e-314
-2.9226372e-11
1.7413683e-24
-4.9727163e-37
1.8819876e-48
1.6145598e-58
4.47154e-68
2.556063e-76
-6.8308886e-84
2.1877855e-91
-7.3869398e-99
2.4700115e-106
-8.1648618e-114
2.6240593e-121
-8.4255146e-129
2.6502444e-136
-8.2170323e-144
2.530837e-151
-7.8392919e-159
2.3540362e-166
-7.0299929e-174
2.0508591e-181
-5.9181845e-189
1.6858297e-196
-4.8172112e-204
1.362843e-211
-3.7943708e-219
1.0665995e-226
-2.9873582e-234
8.4601397e-242
-2.3263742e-249
6.4115734e-257
-1.756886e-264
4.8092104e-272
-1.3075251e-279
3.5250243e-287
-9.2560666e-295
2.1252444e-302
-2.9823491e-310
-1.9181053e-313
-5.1335902e-314
-2.9226588e-11
1.741473e-24
-4.9732018e-37
1.8808451e-48
1.6228531e-58
4.5025502e-68
2.5496149e-76
-6.957396e-84
2.3276234e-91
-8.2604773e-99
2.8961824e-106
-9.9075447e-114
3.3401971e-121
-1.1243017e-128
3.6605295e-136
-1.1735811e-143
3.7058377e-151
-1.1473632e-158
3.5888997e-166
-1.0948182e-173
3.3198249e-181
-1.0033747e-188
3.0107781e-196
-8.8599572e-204
2.5839776e-211
-7.5766115e-219
2.2074014e-226
-6.4005217e-234
1.8234843e-241
-5.2000985e-249
1.4555818e-256
-4.0374494e-264
1.1197958e-271
-3.1186087e-279