/*--------------------------------*- C++ -*----------------------------------*\
  =========                 |
  \\      /  F ield         | OpenFOAM: The Open Source CFD Toolbox
   \\    /   O peration     | Website:  https://openfoam.org
    \\  /    A nd           | Version:  10
     \\/     M anipulation  |
\*---------------------------------------------------------------------------*/
FoamFile
{
    format      ascii;
    class       volVectorField;
    location    "0.02";
    object      U;
}
// * * * * * * * * * * * * * * * * * * * * * * * * * * * * * * * * * * * * * //

dimensions      [0 1 -1 0 0 0 0];

internalField   nonuniform List<vector> 
4000
(
(0 0.018531432 0.47797986)
(0 0.023101914 0.50866468)
(0 0.0077048544 0.5005308)
(0 0.0053219844 0.50034928)
(0 0.0039700184 0.50025364)
(0 0.0029923587 0.50016241)
(0 0.0023254587 0.5001136)
(0 0.0018545065 0.50008443)
(0 0.0015041999 0.50006456)
(0 0.0012346797 0.50005069)
(0 0.0010215624 0.50004082)
(0 0.00084869461 0.50003364)
(0 0.00070512994 0.50002833)
(0 0.00058323535 0.50002436)
(0 0.00047752875 0.50002137)
(0 0.00038396636 0.50001912)
(0 0.00029948204 0.50001745)
(0 0.00022167883 0.50001623)
(0 0.00014861522 0.5000154)
(0 7.8650965e-05 0.50001489)
(0 1.0328864e-05 0.50001469)
(0 -5.7724447e-05 0.50001478)
(0 -0.00012688588 0.50001518)
(0 -0.00019862427 0.50001591)
(0 -0.00027460432 0.50001703)
(0 -0.00035681527 0.50001862)
(0 -0.00044774226 0.5000208)
(0 -0.00055061041 0.50002378)
(0 -0.00066974528 0.5000278)
(0 -0.00081112772 0.5000333)
(0 -0.00098329246 0.5000409)
(0 -0.001198801 0.50005161)
(0 -0.0014766152 0.50006699)
(0 -0.001847558 0.50008961)
(0 -0.0023694275 0.50012713)
(0 -0.0031346027 0.50019722)
(0 -0.0042147378 0.50028063)
(0 -0.0061132243 0.50043979)
(0 -0.017210021 0.50658068)
(0 -0.013431974 0.479984)
(0 0.036842935 0.44915682)
(0 0.049513343 0.53183855)
(0 0.020550631 0.50792736)
(0 0.015155382 0.50358614)
(0 0.011467773 0.50236554)
(0 0.0086721498 0.50155153)
(0 0.0067925722 0.50108981)
(0 0.0054444222 0.50080432)
(0 0.0044306292 0.50061249)
(0 0.0036469612 0.50048002)
(0 0.0030246578 0.50038619)
(0 0.0025177824 0.50031818)
(0 0.002095224 0.50026804)
(0 0.0017351784 0.50023064)
(0 0.001421928 0.50020254)
(0 0.0011438515 0.50018143)
(0 0.00089211769 0.50016571)
(0 0.00065980867 0.50015429)
(0 0.00044131068 0.50014644)
(0 0.00023187408 0.50014168)
(0 2.7275413e-05 0.50013974)
(0 -0.00017646474 0.50014055)
(0 -0.00038333197 0.50014419)
(0 -0.00059757277 0.50015096)
(0 -0.00082399034 0.50016135)
(0 -0.0010683095 0.50017616)
(0 -0.0013376644 0.50019657)
(0 -0.0016412906 0.50022437)
(0 -0.0019915462 0.50026217)
(0 -0.0024054623 0.50031393)
(0 -0.0029072307 0.50038578)
(0 -0.0035324546 0.50048761)
(0 -0.0043345202 0.50063552)
(0 -0.0053944276 0.50085624)
(0 -0.0068616724 0.5012119)
(0 -0.009033993 0.5018431)
(0 -0.01196885 0.50282751)
(0 -0.015955116 0.50599515)
(0 -0.037206609 0.52479701)
(0 -0.027197821 0.45145444)
(0 0.038683354 0.41267807)
(0 0.058662203 0.54891802)
(0 0.029343218 0.52136338)
(0 0.022522927 0.50994514)
(0 0.017471726 0.50637818)
(0 0.013485244 0.50429847)
(0 0.010742013 0.50305955)
(0 0.0086996735 0.50226604)
(0 0.0071327896 0.50173047)
(0 0.0059066464 0.50135997)
(0 0.0049224746 0.50109679)
(0 0.004113598 0.50090569)
(0 0.0034341202 0.50076465)
(0 0.002851312 0.50065931)
(0 0.0023413202 0.50058011)
(0 0.0018863532 0.50052054)
(0 0.001472786 0.50047613)
(0 0.0010898738 0.50044384)
(0 0.00072884745 0.50042159)
(0 0.00038225215 0.50040805)
(0 4.3440361e-05 0.50040248)
(0 -0.0002938564 0.50040464)
(0 -0.00063591034 0.50041481)
(0 -0.00098938088 0.50043375)
(0 -0.0013617632 0.50046287)
(0 -0.0017619322 0.50050439)
(0 -0.0022008655 0.50056164)
(0 -0.0026926563 0.50063953)
(0 -0.0032559906 0.5007454)
(0 -0.0039163373 0.50089027)
(0 -0.0047092766 0.50109112)
(0 -0.0056862542 0.50137509)
(0 -0.0069235467 0.50178684)
(0 -0.0085264176 0.50239869)
(0 -0.01066268 0.50335263)
(0 -0.013745497 0.50496368)
(0 -0.017770219 0.50772047)
(0 -0.022432993 0.51597915)
(0 -0.0444295 0.53867756)
(0 -0.029448077 0.41802051)
(0 0.033038266 0.36733823)
(0 0.059509433 0.55487829)
(0 0.035051389 0.53618475)
(0 0.027148813 0.51792552)
(0 0.021493806 0.5114609)
(0 0.017063733 0.50797904)
(0 0.013891651 0.50579181)
(0 0.011415037 0.50433536)
(0 0.0094660663 0.50333864)
(0 0.0079101047 0.50264179)
(0 0.0066390468 0.50214254)
(0 0.0055794105 0.50177787)
(0 0.0046786579 0.5015075)
(0 0.0038982149 0.50130481)
(0 0.0032094258 0.50115191)
(0 0.0025905545 0.50103657)
(0 0.0020247097 0.50095039)
(0 0.001498403 0.50088755)
(0 0.0010005095 0.50084413)
(0 0.00052148704 0.50081759)
(0 5.2784524e-05 0.50080652)
(0 -0.00041367981 0.50081047)
(0 -0.0008859829 0.5008299)
(0 -0.0013726478 0.5008663)
(0 -0.0018831851 0.5009223)
(0 -0.002428725 0.50100208)
(0 -0.003022846 0.50111187)
(0 -0.0036827071 0.50126091)
(0 -0.0044306544 0.50146282)
(0 -0.0052965399 0.501738)
(0 -0.0063208946 0.50211746)
(0 -0.0075600533 0.5026496)
(0 -0.00909662 0.50341316)
(0 -0.011036851 0.5045325)
(0 -0.013502616 0.50621457)
(0 -0.016915109 0.50889901)
(0 -0.021411802 0.51374556)
(0 -0.026586684 0.5270838)
(0 -0.045541903 0.54417663)
(0 -0.026277103 0.37863727)
(0 0.025108059 0.32429308)
(0 0.056213408 0.55207184)
(0 0.03811924 0.54906464)
(0 0.029646528 0.52604681)
(0 0.023815334 0.5166676)
(0 0.019437437 0.51193324)
(0 0.01616703 0.50885289)
(0 0.01349858 0.50672945)
(0 0.011343882 0.50524862)
(0 0.0095793894 0.50419614)
(0 0.0081053308 0.50343235)
(0 0.0068538572 0.50286908)
(0 0.0057735608 0.50244819)
(0 0.0048253766 0.50213059)
(0 0.0039795004 0.50188968)
(0 0.0032127411 0.5017071)
(0 0.0025066767 0.50157011)
(0 0.001846317 0.50146985)
(0 0.0012191 0.5014003)
(0 0.00061410944 0.50135756)
(0 2.148796e-05 0.50133943)
(0 -0.00056811654 0.50134519)
(0 -0.0011640316 0.50137554)
(0 -0.0017760201 0.50143272)
(0 -0.0024148398 0.50152072)
(0 -0.0030928646 0.50164586)
(0 -0.0038248795 0.50181751)
(0 -0.004629127 0.50204945)
(0 -0.0055287153 0.50236183)
(0 -0.0065536271 0.50278447)
(0 -0.0077431643 0.50336193)
(0 -0.009148842 0.50416176)
(0 -0.010845354 0.50529093)
(0 -0.01293108 0.50691612)
(0 -0.015468189 0.50928065)
(0 -0.018816641 0.51290026)
(0 -0.023396455 0.51978471)
(0 -0.02890051 0.53697462)
(0 -0.043557447 0.54294073)
(0 -0.021053439 0.34135705)
(0 0.016756698 0.28965753)
(0 0.049897687 0.54406645)
(0 0.038339069 0.55876172)
(0 0.030522008 0.53368636)
(0 0.0249169 0.52157267)
(0 0.020871784 0.51573086)
(0 0.017713268 0.51191006)
(0 0.01503167 0.5092121)
(0 0.012807624 0.50729375)
(0 0.010932561 0.50590514)
(0 0.0093265956 0.5048824)
(0 0.0079345981 0.50411895)
(0 0.0067115495 0.50354251)
(0 0.0056220718 0.5031037)
(0 0.004638208 0.50276834)
(0 0.0037374459 0.50251257)
(0 0.002901374 0.50231959)
(0 0.0021146275 0.50217766)
(0 0.0013640532 0.50207871)
(0 0.00063802832 0.50201751)
(0 -7.405526e-05 0.50199104)
(0 -0.00078231674 0.5019983)
(0 -0.0014968173 0.5020402)
(0 -0.0022279906 0.50211967)
(0 -0.0029871465 0.502242)
(0 -0.0037870048 0.50241544)
(0 -0.0046423495 0.50265224)
(0 -0.005570846 0.50297016)
(0 -0.0065940455 0.5033949)
(0 -0.0077388116 0.50396385)
(0 -0.0090390387 0.50473203)
(0 -0.010535988 0.50578078)
(0 -0.012287138 0.50723475)
(0 -0.014378718 0.50928843)
(0 -0.016823702 0.51221014)
(0 -0.019876263 0.51661788)
(0 -0.024175473 0.52539532)
(0 -0.02918426 0.54465976)
(0 -0.039047598 0.53747948)
(0 -0.014791041 0.31101599)
(0 0.0090622484 0.2636808)
(0 0.041486376 0.53302906)
(0 0.03601815 0.56474179)
(0 0.030212422 0.54037214)
(0 0.025264725 0.52601248)
(0 0.021741556 0.51919072)
(0 0.01884222 0.51479992)
(0 0.016269721 0.51165357)
(0 0.014064917 0.50937462)
(0 0.012143957 0.50769549)
(0 0.010454451 0.50643995)
(0 0.0089569591 0.50548997)
(0 0.0076159011 0.50476404)
(0 0.0064022197 0.50420567)
(0 0.0052917617 0.50377513)
(0 0.0042641967 0.50344423)
(0 0.0033022729 0.50319291)
(0 0.0023911288 0.50300699)
(0 0.0015177009 0.50287663)
(0 0.0006702163 0.50279539)
(0 -0.00016221944 0.50275952)
(0 -0.00099006716 0.50276773)
(0 -0.0018236956 0.50282109)
(0 -0.0026737488 0.50292308)
(0 -0.0035515494 0.50308005)
(0 -0.0044694967 0.50330184)
(0 -0.005441529 0.5036029)
(0 -0.0064836387 0.50400398)
(0 -0.0076144189 0.5045347)
(0 -0.0088557332 0.50523739)
(0 -0.010233825 0.50617348)
(0 -0.011777748 0.50743254)
(0 -0.013522136 0.50914734)
(0 -0.015532423 0.51152557)
(0 -0.017781372 0.51485996)
(0 -0.020393671 0.51991298)
(0 -0.024074735 0.53020943)
(0 -0.027549128 0.54944419)
(0 -0.032468197 0.52916942)
(0 -0.0082001559 0.28819021)
(0 0.0030470234 0.24542453)
(0 0.032153812 0.5203099)
(0 0.032082691 0.56672857)
(0 0.029215185 0.54542275)
(0 0.025297048 0.52976077)
(0 0.022427464 0.5222096)
(0 0.019888564 0.51744292)
(0 0.017508437 0.51398941)
(0 0.015380626 0.51143963)
(0 0.013457325 0.50952792)
(0 0.011717631 0.50807639)
(0 0.010138888 0.50696227)
(0 0.0086968688 0.50609989)
(0 0.0073703186 0.50542905)
(0 0.0061400482 0.5049067)
(0 0.00498891 0.50450183)
(0 0.0039016436 0.50419209)
(0 0.0028645768 0.50396146)
(0 0.0018653094 0.50379875)
(0 0.00089241053 0.50369653)
(0 -6.4871828e-05 0.50365045)
(0 -0.0010169351 0.50365896)
(0 -0.0019740679 0.50372319)
(0 -0.0029467178 0.50384703)
(0 -0.0039457791 0.50403758)
(0 -0.0049828347 0.50430576)
(0 -0.0060704138 0.50466749)
(0 -0.0072221828 0.50514534)
(0 -0.0084530735 0.50577106)
(0 -0.0097791036 0.50658928)
(0 -0.011217765 0.50766371)
(0 -0.012785687 0.50908679)
(0 -0.014492825 0.51099108)
(0 -0.016374548 0.51358089)
(0 -0.01837339 0.51716573)
(0 -0.020476041 0.5226326)
(0 -0.023311643 0.53368344)
(0 -0.024564641 0.55080994)
(0 -0.024712752 0.5188196)
(0 -0.002440404 0.2722744)
(0 -0.00064549995 0.23403403)
(0 0.023019458 0.50719708)
(0 0.027510918 0.56487616)
(0 0.027843472 0.54823251)
(0 0.025224268 0.53255538)
(0 0.023086321 0.52469318)
(0 0.020965319 0.51977506)
(0 0.018838859 0.51616859)
(0 0.01683792 0.51344813)
(0 0.014956022 0.51137033)
(0 0.013202967 0.5097667)
(0 0.011572846 0.50851711)
(0 0.010053873 0.50753684)
(0 0.0086333318 0.50676527)
(0 0.0072977508 0.50615831)
(0 0.0060339246 0.50568368)
(0 0.0048292836 0.50531781)
(0 0.0036719827 0.50504357)
(0 0.0025508656 0.50484885)
(0 0.0014553717 0.50472553)
(0 0.00037538084 0.50466881)
(0 -0.00069896874 0.50467693)
(0 -0.0017774293 0.50475101)
(0 -0.0028697944 0.50489518)
(0 -0.0039860584 0.50511693)
(0 -0.0051365011 0.5054278)
(0 -0.0063317481 0.50584436)
(0 -0.0075826374 0.50638987)
(0 -0.0089000024 0.50709649)
(0 -0.010293715 0.50800869)
(0 -0.011772096 0.50918861)
(0 -0.013339877 0.51072576)
(0 -0.014984904 0.51274461)
(0 -0.016707913 0.51542925)
(0 -0.018436519 0.51908757)
(0 -0.020019284 0.52463906)
(0 -0.021898227 0.5354068)
(0 -0.020879625 0.54881218)
(0 -0.016876815 0.50745126)
(0 0.0014053371 0.26252731)
(0 -0.0020553929 0.22813304)
(0 0.015062058 0.49498009)
(0 0.022943337 0.5598516)
(0 0.026053733 0.548605)
(0 0.024863852 0.53423995)
(0 0.023490603 0.52657426)
(0 0.021822885 0.52173648)
(0 0.020007307 0.51813145)
(0 0.018192289 0.51534595)
(0 0.016411219 0.51317486)
(0 0.014699793 0.51146913)
(0 0.013067883 0.51011872)
(0 0.011516256 0.50904465)
(0 0.010040927 0.50818904)
(0 0.0086346768 0.50750892)
(0 0.007288888 0.50697232)
(0 0.0059943432 0.50655549)
(0 0.00474168 0.50624095)
(0 0.00352162 0.50601617)
(0 0.0023250748 0.50587267)
(0 0.00114314 0.50580539)
(0 -3.2945779e-05 0.5058124)
(0 -0.0012118331 0.50589477)
(0 -0.0024021064 0.50605664)
(0 -0.0036122918 0.50630562)
(0 -0.0048507979 0.50665331)
(0 -0.0061257893 0.50711621)
(0 -0.0074447508 0.50771713)
(0 -0.008813984 0.5084871)
(0 -0.010237123 0.50946818)
(0 -0.011713442 0.51071761)
(0 -0.01323641 0.51231629)
(0 -0.014777208 0.51437397)
(0 -0.016302542 0.51704251)
(0 -0.01773838 0.520603)
(0 -0.018814349 0.52588921)
(0 -0.019714507 0.53538215)
(0 -0.016962014 0.54420531)
(0 -0.010020484 0.49642657)
(0 0.0030217446 0.25769994)
(0 -0.0018347853 0.22587507)
(0 0.0090437772 0.48468828)
(0 0.018676811 0.55275393)
(0 0.023639601 0.54685279)
(0 0.023811374 0.53481779)
(0 0.023187848 0.52782295)
(0 0.022004705 0.52327575)
(0 0.020558107 0.51981003)
(0 0.018997981 0.51706159)
(0 0.017391655 0.51487187)
(0 0.015793995 0.5131183)
(0 0.014229062 0.51170698)
(0 0.012709324 0.51056852)
(0 0.01123927 0.5096505)
(0 0.0098182203 0.50891311)
(0 0.0084426096 0.5083261)
(0 0.0071071311 0.5078666)
(0 0.005805506 0.50751751)
(0 0.0045309443 0.50726641)
(0 0.0032764311 0.5071048)
(0 0.0020348755 0.50702755)
(0 0.00079920661 0.50703263)
(0 -0.00043754134 0.50712099)
(0 -0.0016821574 0.50729663)
(0 -0.0029411042 0.5075669)
(0 -0.0042203395 0.50794298)
(0 -0.0055250228 0.50844057)
(0 -0.0068587979 0.50908102)
(0 -0.0082230608 0.5098928)
(0 -0.0096152338 0.51091367)
(0 -0.011026176 0.51219343)
(0 -0.012438703 0.51379999)
(0 -0.013812988 0.51582366)
(0 -0.015086958 0.51837945)
(0 -0.016188322 0.52169524)
(0 -0.016778314 0.52642792)
(0 -0.016774054 0.53400336)
(0 -0.013116034 0.53818818)
(0 -0.0049211346 0.48703908)
(0 0.002933871 0.25604618)
(0 -0.00087718267 0.22551719)
(0 0.0052756771 0.47682833)
(0 0.014861483 0.54491596)
(0 0.020578139 0.54367453)
(0 0.021826983 0.53443547)
(0 0.021876161 0.52844659)
(0 0.021192698 0.52435618)
(0 0.020157074 0.52114129)
(0 0.018912656 0.51852046)
(0 0.01755106 0.51638321)
(0 0.016139253 0.51463693)
(0 0.014713159 0.51320754)
(0 0.01329522 0.5120378)
(0 0.011897687 0.51108287)
(0 0.010526282 0.51030772)
(0 0.0091826097 0.50968509)
(0 0.0078655712 0.50919392)
(0 0.0065723628 0.50881818)
(0 0.005299121 0.5085461)
(0 0.0040413637 0.50836947)
(0 0.0027942852 0.50828329)
(0 0.0015529789 0.5082855)
(0 0.00031262937 0.50837688)
(0 -0.00093129983 0.50856112)
(0 -0.0021827493 0.50884488)
(0 -0.0034448089 0.50923862)
(0 -0.0047192989 0.50975645)
(0 -0.0060057884 0.51041739)
(0 -0.0073007178 0.51124623)
(0 -0.0085956203 0.51227491)
(0 -0.0098741309 0.51354417)
(0 -0.011109686 0.51510659)
(0 -0.0122559 0.51703018)
(0 -0.013231904 0.51939409)
(0 -0.013962925 0.52235452)
(0 -0.014110575 0.52635395)
(0 -0.013389349 0.53184362)
(0 -0.0095927579 0.53199417)
(0 -0.0018401353 0.48000142)
(0 0.0020109101 0.25595983)
(0 9.4732927e-05 0.22581549)
(0 0.0034849549 0.47132899)
(0 0.011648157 0.53757911)
(0 0.017175634 0.53989574)
(0 0.01907452 0.53334523)
(0 0.019654433 0.52850316)
(0 0.019440608 0.52497332)
(0 0.018816962 0.52208943)
(0 0.01791636 0.51966901)
(0 0.01684193 0.51764617)
(0 0.015665886 0.51595862)
(0 0.014432559 0.51455319)
(0 0.01317182 0.51338606)
(0 0.011902375 0.51242127)
(0 0.010635612 0.51162973)
(0 0.0093779477 0.51098811)
(0 0.0081323852 0.51047793)
(0 0.0068996424 0.51008487)
(0 0.0056789234 0.5097982)
(0 0.0044684772 0.50961036)
(0 0.0032660098 0.50951664)
(0 0.002069018 0.50951501)
(0 0.00087509202 0.50960603)
(0 -0.000317953 0.50979292)
(0 -0.0015112232 0.51008148)
(0 -0.0027048466 0.51048083)
(0 -0.0038974657 0.51100305)
(0 -0.0050846826 0.51166418)
(0 -0.0062585063 0.51248449)
(0 -0.0074054579 0.5134892)
(0 -0.008503769 0.51470915)
(0 -0.0095201405 0.5161813)
(0 -0.010405194 0.51795062)
(0 -0.011072181 0.52006433)
(0 -0.011441091 0.52260461)
(0 -0.011230335 0.52581191)
(0 -0.010069523 0.52944211)
(0 -0.0066519081 0.52655641)
(0 -0.00044542897 0.4752386)
(0 0.00104923 0.2563352)
(0 0.00074565267 0.22610431)
(0 0.0030051133 0.46771983)
(0 0.0091660162 0.53155375)
(0 0.013915582 0.5362063)
(0 0.016031671 0.53184966)
(0 0.016957952 0.5281109)
(0 0.017126453 0.52517353)
(0 0.016864915 0.52266499)
(0 0.016290742 0.52049437)
(0 0.015505225 0.5186333)
(0 0.014579511 0.51704723)
(0 0.01356183 0.51570271)
(0 0.012486327 0.51456928)
(0 0.011376222 0.51362035)
(0 0.010247246 0.51283334)
(0 0.0091097686 0.5121894)
(0 0.0079703572 0.51167319)
(0 0.0068329204 0.51127252)
(0 0.0056995381 0.51097808)
(0 0.0045710879 0.51078317)
(0 0.0034477345 0.51068354)
(0 0.0023293337 0.51067725)
(0 0.001215841 0.51076462)
(0 0.00010745832 0.51094824)
(0 -0.00099441779 0.51123302)
(0 -0.0020872125 0.51162617)
(0 -0.0031666186 0.51213759)
(0 -0.0042250532 0.51277987)
(0 -0.0052511369 0.5135684)
(0 -0.0062278531 0.51452144)
(0 -0.0071303341 0.51565997)
(0 -0.0079223135 0.5170066)
(0 -0.0085548552 0.51858517)
(0 -0.0089472022 0.52041633)
(0 -0.0090183188 0.52252213)
(0 -0.0085668767 0.52498463)
(0 -0.0072517286 0.52718258)
(0 -0.0044533505 0.52234016)
(0 -8.971938e-05 0.47223907)
(0 0.00042086844 0.25662928)
(0 0.0010634661 0.22616495)
(0 0.0031320488 0.465393)
(0 0.0074307452 0.5270773)
(0 0.011195666 0.53301668)
(0 0.013206042 0.53023132)
(0 0.014292686 0.52742875)
(0 0.014718463 0.52505127)
(0 0.014731888 0.52292537)
(0 0.014428422 0.52102735)
(0 0.013897137 0.51935702)
(0 0.013202876 0.5179025)
(0 0.012393102 0.51664712)
(0 0.011502956 0.51557264)
(0 0.010557862 0.51466137)
(0 0.009576199 0.51389721)
(0 0.008571085 0.51326598)
(0 0.0075517852 0.5127557)
(0 0.0065247724 0.51235657)
(0 0.0054945411 0.51206087)
(0 0.0044642471 0.51186299)
(0 0.0034362274 0.51175921)
(0 0.0024124387 0.51174777)
(0 0.0013949093 0.51182873)
(0 0.00038600716 0.51200397)
(0 -0.00061086427 0.51227734)
(0 -0.0015909499 0.51265419)
(0 -0.0025475776 0.51314201)
(0 -0.003471029 0.51374987)
(0 -0.0043478506 0.51448837)
(0 -0.0051593004 0.5153692)
(0 -0.005879809 0.5164044)
(0 -0.0064739475 0.51760461)
(0 -0.0068965483 0.51897673)
(0 -0.0070802879 0.52052119)
(0 -0.0069517351 0.52222171)
(0 -0.0063838304 0.52405647)
(0 -0.0051281913 0.52526494)
(0 -0.0029757076 0.51935574)
(0 -0.00017011924 0.47039984)
(0 0.00012637897 0.25669069)
(0 0.0011698394 0.2260189)
(0 0.0033778528 0.46382024)
(0 0.0063210844 0.5239454)
(0 0.0091727876 0.53046128)
(0 0.010906054 0.52869494)
(0 0.012003775 0.52661488)
(0 0.012560341 0.52472272)
(0 0.012751 0.52295544)
(0 0.012644614 0.52132802)
(0 0.012312745 0.51985864)
(0 0.011810427 0.51855166)
(0 0.011180624 0.51740327)
(0 0.010456684 0.51640535)
(0 0.009664026 0.51554801)
(0 0.008821962 0.51482104)
(0 0.007945061 0.51421473)
(0 0.0070442866 0.51372039)
(0 0.0061279043 0.51333062)
(0 0.0052022153 0.51303943)
(0 0.0042721578 0.51284229)
(0 0.0033418148 0.51273614)
(0 0.0024148538 0.5127194)
(0 0.0014949637 0.5127919)
(0 0.00058621547 0.51295485)
(0 -0.00030643016 0.51321091)
(0 -0.0011766739 0.51356381)
(0 -0.0020163308 0.51401857)
(0 -0.0028145435 0.51458103)
(0 -0.003557088 0.51525744)
(0 -0.004225201 0.51605386)
(0 -0.0047946381 0.51697499)
(0 -0.0052336224 0.51802236)
(0 -0.0055033251 0.51919117)
(0 -0.0055522407 0.52046843)
(0 -0.0053217119 0.52181951)
(0 -0.0047396919 0.52316787)
(0 -0.0036581766 0.52373977)
(0 -0.0020595741 0.51733948)
(0 -0.00031050421 0.4692214)
(0 3.2461784e-05 0.25658364)
(0 0.0011842878 0.22576152)
(0 0.0035263295 0.46265446)
(0 0.0056416007 0.52177415)
(0 0.0077808059 0.52849174)
(0 0.0091921459 0.52734808)
(0 0.010207256 0.52579092)
(0 0.010795736 0.52429393)
(0 0.011078867 0.5228415)
(0 0.011098765 0.52146459)
(0 0.010909005 0.52019098)
(0 0.010553342 0.51903488)
(0 0.010068109 0.51800136)
(0 0.0094829694 0.51708991)
(0 0.0088216387 0.51629686)
(0 0.0081029493 0.51561697)
(0 0.0073417645 0.51504446)
(0 0.0065498076 0.51457366)
(0 0.0057363745 0.51419942)
(0 0.0049089443 0.51391738)
(0 0.0040737043 0.51372413)
(0 0.0032360111 0.51361726)
(0 0.0024008026 0.51359537)
(0 0.0015729954 0.51365813)
(0 0.00075785902 0.51380614)
(0 -3.856664e-05 0.51404095)
(0 -0.00080904564 0.51436482)
(0 -0.001544668 0.51478058)
(0 -0.0022342883 0.51529125)
(0 -0.0028639674 0.5158995)
(0 -0.0034161839 0.51660693)
(0 -0.0038693648 0.5174128)
(0 -0.0041968287 0.51831243)
(0 -0.0043673323 0.51929417)
(0 -0.0043440227 0.52033787)
(0 -0.0040853595 0.52140395)
(0 -0.0035547061 0.52239574)
(0 -0.002679747 0.52256954)
(0 -0.001505047 0.51597081)
(0 -0.00036880972 0.46838764)
(0 1.9899925e-05 0.25641093)
(0 0.0011761381 0.22547715)
(0 0.0035501963 0.46171714)
(0 0.0052082384 0.52020992)
(0 0.0068460623 0.52698406)
(0 0.0079641924 0.52621925)
(0 0.0088550759 0.52502913)
(0 0.0094142208 0.52384151)
(0 0.0097293461 0.52265305)
(0 0.0098198139 0.52149687)
(0 0.0097237687 0.52040374)
(0 0.009474035 0.51939263)
(0 0.0090997381 0.51847394)
(0 0.0086259551 0.5176523)
(0 0.0080736816 0.51692862)
(0 0.0074603076 0.51630156)
(0 0.0068001248 0.51576854)
(0 0.006104862 0.51532646)
(0 0.0053841965 0.51497216)
(0 0.0046462247 0.51470277)
(0 0.0038978908 0.51451588)
(0 0.0031453781 0.5144097)
(0 0.0023944724 0.51438306)
(0 0.0016509093 0.51443547)
(0 0.00092071142 0.51456705)
(0 0.00021054463 0.5147784)
(0 -0.00047193854 0.51507048)
(0 -0.001117703 0.51544433)
(0 -0.0017159392 0.51590073)
(0 -0.0022537015 0.51643958)
(0 -0.0027154386 0.51705925)
(0 -0.0030828644 0.51775537)
(0 -0.0033346602 0.51851956)
(0 -0.0034470753 0.51933707)
(0 -0.0033951139 0.52018534)
(0 -0.0031523859 0.52102677)
(0 -0.0027028856 0.52176339)
(0 -0.0020189542 0.52168369)
(0 -0.0011493681 0.51500047)
(0 -0.00034441233 0.46774656)
(0 2.4654336e-05 0.25623955)
(0 0.0011705993 0.2252137)
(0 0.0034983629 0.46093455)
(0 0.0048974278 0.5190149)
(0 0.0061964942 0.52581289)
(0 0.0070761232 0.52529172)
(0 0.0078366617 0.52435991)
(0 0.0083373266 0.52341021)
(0 0.0086479821 0.52243698)
(0 0.0087710922 0.52146917)
(0 0.0087330611 0.52053638)
(0 0.0085573022 0.51965885)
(0 0.0082662371 0.51884957)
(0 0.0078802633 0.51811627)
(0 0.0074172588 0.51746292)
(0 0.0068926546 0.51689102)
(0 0.0063196227 0.51640045)
(0 0.0057093685 0.51599015)
(0 0.0050714592 0.51565863)
(0 0.004414159 0.51540426)
(0 0.0037447569 0.51522555)
(0 0.0030698801 0.51512124)
(0 0.0023957954 0.51509039)
(0 0.0017287 0.51513242)
(0 0.001075004 0.51524702)
(0 0.00044162141 0.51543408)
(0 -0.00016376865 0.5156935)
(0 -0.0007324214 0.51602495)
(0 -0.0012542645 0.51642749)
(0 -0.0017177165 0.5168991)
(0 -0.0021094667 0.51743599)
(0 -0.0024145581 0.51803168)
(0 -0.0026165562 0.51867601)
(0 -0.0026982116 0.51935355)
(0 -0.0026433106 0.52004239)
(0 -0.0024366893 0.52070952)
(0 -0.0020733942 0.52126279)
(0 -0.0015470792 0.52101266)
(0 -0.00089379345 0.51427697)
(0 -0.00028072859 0.46723846)
(0 2.5727339e-05 0.25609824)
(0 0.0011706343 0.22498753)
(0 0.0034220488 0.46027884)
(0 0.004647739 0.51805915)
(0 0.005713018 0.52488313)
(0 0.00640703 0.52453286)
(0 0.0070487612 0.52378764)
(0 0.0074823995 0.5230207)
(0 0.0077699159 0.52222078)
(0 0.0079024406 0.52141081)
(0 0.0078981829 0.52061718)
(0 0.0077731114 0.51985932)
(0 0.0075439917 0.519151)
(0 0.0072269501 0.51850145)
(0 0.0068367868 0.51791651)
(0 0.0063868054 0.51739956)
(0 0.0058887811 0.51695225)
(0 0.0053530718 0.51657507)
(0 0.0047887978 0.51626784)
(0 0.0042040589 0.51602995)
(0 0.0036061682 0.51586064)
(0 0.0030018886 0.51575914)
(0 0.0023976691 0.51572471)
(0 0.0017998772 0.51575672)
(0 0.0012150219 0.51585455)
(0 0.00064997893 0.51601756)
(0 0.00011218595 0.51624484)
(0 -0.00039017308 0.51653509)
(0 -0.00084796439 0.51688618)
(0 -0.0012510885 0.51729482)
(0 -0.0015884487 0.51775596)
(0 -0.0018481043 0.51826213)
(0 -0.0020176921 0.51880272)
(0 -0.0020851194 0.51936298)
(0 -0.0020402779 0.51992321)
(0 -0.0018753605 0.52045536)
(0 -0.0015908475 0.52087396)
(0 -0.0011886026 0.52050177)
(0 -0.00069209923 0.51372085)
(0 -0.00021271259 0.46683881)
(0 2.2040154e-05 0.25599135)
(0 0.0011731602 0.22479792)
(0 0.0033496069 0.4597345)
(0 0.0044368972 0.51727854)
(0 0.0053305361 0.52413206)
(0 0.0058801366 0.52391053)
(0 0.0064198977 0.52330475)
(0 0.0067883112 0.52267946)
(0 0.0070448661 0.52201877)
(0 0.0071735824 0.52133991)
(0 0.0071873007 0.5206654)
(0 0.0070964382 0.52001288)
(0 0.0069132786 0.5193957)
(0 0.0066503143 0.51882357)
(0 0.0063195554 0.51830326)
(0 0.0059322353 0.5178393)
(0 0.0054986505 0.5174345)
(0 0.0050281471 0.51709049)
(0 0.004529191 0.51680802)
(0 0.0040094894 0.51658729)
(0 0.0034761436 0.51642812)
(0 0.0029358169 0.51633014)
(0 0.0023949092 0.5162928)
(0 0.0018597319 0.51631544)
(0 0.0013366763 0.51639727)
(0 0.00083237581 0.51653722)
(0 0.00035384742 0.51673389)
(0 -9.1412578e-05 0.51698527)
(0 -0.00049530311 0.51728852)
(0 -0.00084917245 0.51763959)
(0 -0.0011439062 0.51803286)
(0 -0.0013701392 0.51846064)
(0 -0.0015187132 0.51891261)
(0 -0.0015813797 0.51937546)
(0 -0.0015520908 0.51983215)
(0 -0.0014274764 0.52025904)
(0 -0.0012104066 0.52057609)
(0 -0.00090520049 0.52011226)
(0 -0.00052700329 0.5132911)
(0 -0.00015542599 0.46653128)
(0 1.6939821e-05 0.25591326)
(0 0.0011756845 0.22463883)
(0 0.0032896006 0.45928658)
(0 0.0042586407 0.5166386)
(0 0.0050181411 0.52351963)
(0 0.0054530219 0.52339868)
(0 0.0059069353 0.52290014)
(0 0.0062158659 0.52238605)
(0 0.0064393633 0.52183764)
(0 0.006557131 0.52126738)
(0 0.0065786576 0.52069407)
(0 0.0065103758 0.52013318)
(0 0.006361158 0.51959706)
(0 0.0061405416 0.51909522)
(0 0.0058581367 0.51863472)
(0 0.0055232889 0.51822066)
(0 0.0051448567 0.51785658)
(0 0.0047311231 0.51754482)
(0 0.0042897899 0.51728681)
(0 0.0038280276 0.51708333)
(0 0.0033525635 0.51693465)
(0 0.0028697905 0.5168407)
(0 0.0023858878 0.51680112)
(0 0.0019069448 0.51681526)
(0 0.0014390798 0.51688219)
(0 0.00098854931 0.51700063)
(0 0.00056183952 0.51716882)
(0 0.00016571313 0.51738436)
(0 -0.00019275846 0.51764401)
(0 -0.00050625142 0.5179434)
(0 -0.00076734234 0.51827679)
(0 -0.0009687773 0.51863669)
(0 -0.0011038317 0.51901362)
(0 -0.0011670042 0.51939582)
(0 -0.0011548733 0.51976894)
(0 -0.001066599 0.52011294)
(0 -0.0009059019 0.52035168)
(0 -0.00067757934 0.51981734)
(0 -0.0003919676 0.51296284)
(0 -0.00011083285 0.46630047)
(0 1.2516599e-05 0.25585712)
(0 0.0011773339 0.22450445)
(0 0.0032411303 0.45891976)
(0 0.0041098294 0.51611536)
(0 0.0047605145 0.52301884)
(0 0.005102163 0.52297745)
(0 0.0054838381 0.52256299)
(0 0.0057399078 0.52213727)
(0 0.0059309999 0.5216799)
(0 0.0060342134 0.52119964)
(0 0.0060570298 0.52071197)
(0 0.0060030858 0.52023021)
(0 0.0058787224 0.51976546)
(0 0.005691143 0.5193266)
(0 0.0054479621 0.5189206)
(0 0.0051568729 0.51855272)
(0 0.0048254059 0.51822686)
(0 0.0044608028 0.51794579)
(0 0.0040699615 0.51771137)
(0 0.0036594373 0.51752479)
(0 0.0032354803 0.51738664)
(0 0.0028040976 0.51729709)
(0 0.0023711284 0.51725591)
(0 0.0019423248 0.5172625)
(0 0.0015234283 0.51731589)
(0 0.0011202371 0.51741466)
(0 0.00073865395 0.51755688)
(0 0.00038470192 0.51773996)
(0 6.4502353e-05 0.51796051)
(0 -0.00021580273 0.51821414)
(0 -0.00045020205 0.51849526)
(0 -0.00063310324 0.51879692)
(0 -0.00075960593 0.51911058)
(0 -0.00082611176 0.51942609)
(0 -0.00083087015 0.51973148)
(0 -0.00077441615 0.52000957)
(0 -0.00066059178 0.52018701)
(0 -0.00049413268 0.51959782)
(0 -0.00028259996 0.5127173)
(0 -7.6217533e-05 0.46613201)
(0 9.2590757e-06 0.25581785)
(0 0.0011781596 0.22439048)
(0 0.0032011576 0.45861996)
(0 0.0039865448 0.51568885)
(0 0.0045477063 0.5226097)
(0 0.004812392 0.5226315)
(0 0.0051329918 0.52228382)
(0 0.0053425807 0.52192905)
(0 0.0055031811 0.52154595)
(0 0.005590309 0.52114039)
(0 0.0056103021 0.52072508)
(0 0.0055648606 0.52031133)
(0 0.0054584787 0.51990893)
(0 0.0052965508 0.51952598)
(0 0.0050850692 0.51916904)
(0 0.0048303187 0.51884332)
(0 0.0045386452 0.5185528)
(0 0.0042163136 0.51830045)
(0 0.0038694273 0.51808838)
(0 0.0035038952 0.51791803)
(0 0.0031254344 0.51779022)
(0 0.0027395953 0.51770528)
(0 0.0023518015 0.51766311)
(0 0.0019673944 0.51766316)
(0 0.001591677 0.51770446)
(0 0.0012299471 0.51778556)
(0 0.00088751378 0.51790448)
(0 0.00056968756 0.51805858)
(0 0.00028173555 0.51824452)
(0 2.8784761e-05 0.51845807)
(0 -0.00018431516 0.51869398)
(0 -0.00035325515 0.51894593)
(0 -0.00047448332 0.51920643)
(0 -0.00054569424 0.51946678)
(0 -0.00056618211 0.51971705)
(0 -0.00053718083 0.51994233)
(0 -0.00046233097 0.52007128)
(0 -0.00034615419 0.5194392)
(0 -0.00019450029 0.5125389)
(0 -4.8698839e-05 0.46601358)
(0 6.9545865e-06 0.25579197)
(0 0.0011784569 0.22429383)
(0 0.0031673495 0.45837541)
(0 0.0038843195 0.51534204)
(0 0.004371557 0.52227637)
(0 0.0045721635 0.52234865)
(0 0.0048409175 0.52205451)
(0 0.0050098607 0.52175716)
(0 0.0051424399 0.52143497)
(0 0.0052132028 0.52109157)
(0 0.0052278864 0.52073736)
(0 0.0051868629 0.5203819)
(0 0.0050932947 0.5200337)
(0 0.0049511927 0.5197)
(0 0.0047652502 0.51938686)
(0 0.0045405747 0.51909922)
(0 0.0042824791 0.51884098)
(0 0.00399634 0.51861515)
(0 0.0036875053 0.51842396)
(0 0.0033612415 0.51826896)
(0 0.0030227122 0.51815112)
(0 0.0026769757 0.51807091)
(0 0.0023289987 0.51802829)
(0 0.0019836732 0.5180228)
(0 0.0016458335 0.51805349)
(0 0.0013202652 0.51811895)
(0 0.0010116995 0.51821723)
(0 0.00072478479 0.51834579)
(0 0.00046403137 0.51850142)
(0 0.00023371155 0.51868015)
(0 3.773567e-05 0.51887722)
(0 -0.0001205699 0.51908695)
(0 -0.00023863852 0.51930286)
(0 -0.00031503087 0.51951756)
(0 -0.00034967408 0.51972281)
(0 -0.00034410771 0.51990551)
(0 -0.00030164381 0.51999581)
(0 -0.00022651217 0.51933005)
(0 -0.00012351463 0.51241478)
(0 -2.6405344e-05 0.46593526)
(0 5.3136914e-06 0.25577698)
(0 0.0011784642 0.22421209)
(0 0.0031383654 0.45817669)
(0 0.0037990562 0.51506085)
(0 0.0042251014 0.52200598)
(0 0.0043720942 0.52211893)
(0 0.0045967336 0.52186805)
(0 0.0047302704 0.52161752)
(0 0.0048374982 0.52134554)
(0 0.0048923738 0.521054)
(0 0.004900371 0.5207514)
(0 0.0048609597 0.52044581)
(0 0.0047763521 0.52014454)
(0 0.0046495104 0.519854)
(0 0.004484099 0.51957968)
(0 0.0042842543 0.51932615)
(0 0.0040544033 0.51909712)
(0 0.0037991319 0.51889553)
(0 0.00352309 0.51872361)
(0 0.0032309285 0.51858297)
(0 0.002927262 0.51847463)
(0 0.0026166489 0.51839915)
(0 0.0023035845 0.51835656)
(0 0.0019924978 0.51834647)
(0 0.0016877492 0.51836799)
(0 0.0013936216 0.5184198)
(0 0.0011142996 0.51850003)
(0 0.00085383064 0.51860629)
(0 0.0006160653 0.5187356)
(0 0.00040456313 0.51888433)
(0 0.00022248244 0.51904819)
(0 7.2402129e-05 0.5192222)
(0 -4.3823311e-05 0.51940076)
(0 -0.00012532695 0.51957765)
(0 -0.00017239704 0.51974599)
(0 -0.00018664805 0.51989417)
(0 -0.00017102946 0.51995349)
(0 -0.0001294263 0.51926119)
(0 -6.617071e-05 0.51233468)
(0 -8.2963093e-06 0.46588916)
(0 4.1135569e-06 0.255771)
(0 0.0011783165 0.22414326)
(0 0.0031134239 0.45801631)
(0 0.0037274528 0.51483397)
(0 0.0041026324 0.52178802)
(0 0.0042045964 0.52193406)