/*--------------------------------*- C++ -*----------------------------------*\
  =========                 |
  \\      /  F ield         | OpenFOAM: The Open Source CFD Toolbox
   \\    /   O peration     | Website:  https://openfoam.org
    \\  /    A nd           | Version:  10
     \\/     M anipulation  |
\*---------------------------------------------------------------------------*/
FoamFile
{
    format      ascii;
    class       volVectorField;
    location    "0.02";
    object      U_0;
}
// * * * * * * * * * * * * * * * * * * * * * * * * * * * * * * * * * * * * * //

dimensions      [0 1 -1 0 0 0 0];

internalField   nonuniform List<vector> 
4000
(
(0 0.018496812 0.47799314)
(0 0.02304871 0.50865308)
(0 0.0076713093 0.50053163)
(0 0.0052958417 0.50034865)
(0 0.0039478376 0.50025267)
(0 0.0029746834 0.50016149)
(0 0.002312015 0.50011286)
(0 0.001844543 0.50008383)
(0 0.0014969832 0.50006408)
(0 0.0012295905 0.50005031)
(0 0.0010180691 0.50004053)
(0 0.0008463539 0.50003343)
(0 0.00070358315 0.50002818)
(0 0.00058219724 0.50002426)
(0 0.00047677641 0.50002131)
(0 0.000383329 0.5000191)
(0 0.00029883236 0.50001744)
(0 0.00022092602 0.50001624)
(0 0.00014769966 0.50001542)
(0 7.7540619e-05 0.50001492)
(0 9.01719e-06 0.50001472)
(0 -5.9219418e-05 0.5000148)
(0 -0.0001285205 0.50001518)
(0 -0.00020032679 0.5000159)
(0 -0.00027627118 0.50001699)
(0 -0.00035830543 0.50001855)
(0 -0.00044886975 0.50002069)
(0 -0.00055113509 0.50002361)
(0 -0.00066936222 0.50002757)
(0 -0.00080945575 0.50003298)
(0 -0.0009798632 0.50004048)
(0 -0.0011930551 0.50005107)
(0 -0.0014679103 0.50006633)
(0 -0.0018351671 0.50008881)
(0 -0.0023526217 0.50012617)
(0 -0.0031131001 0.50019619)
(0 -0.0041891967 0.5002799)
(0 -0.0060820101 0.50044049)
(0 -0.017162448 0.50657053)
(0 -0.013401518 0.47999722)
(0 0.036726377 0.44926433)
(0 0.049327336 0.53179192)
(0 0.02043272 0.50790649)
(0 0.015069863 0.50357836)
(0 0.011396978 0.50235496)
(0 0.008617751 0.50154139)
(0 0.0067532323 0.50108171)
(0 0.0054167911 0.50079784)
(0 0.0044120057 0.50060744)
(0 0.0036351281 0.50047622)
(0 0.0030177403 0.50038343)
(0 0.0025142681 0.50031626)
(0 0.0020939188 0.50026679)
(0 0.0017351513 0.50022991)
(0 0.0014224642 0.50020221)
(0 0.001144412 0.50018141)
(0 0.0008923057 0.50016591)
(0 0.00065934411 0.50015464)
(0 0.00044001102 0.50014688)
(0 0.00022964106 0.50014216)
(0 2.4087647e-05 0.50014021)
(0 -0.00018055444 0.50014095)
(0 -0.00038819402 0.50014448)
(0 -0.00060299274 0.50015107)
(0 -0.00082965612 0.50016121)
(0 -0.0010737916 0.50017569)
(0 -0.0013423897 0.50019567)
(0 -0.001644508 0.50022291)
(0 -0.0019922845 0.50026)
(0 -0.0024024823 0.50031087)
(0 -0.0028989724 0.50038164)
(0 -0.0035169904 0.50048216)
(0 -0.0043095713 0.5006286)
(0 -0.0053573352 0.50084772)
(0 -0.0068092983 0.50120159)
(0 -0.0089646701 0.50183221)
(0 -0.011884514 0.50281953)
(0 -0.01584656 0.50597889)
(0 -0.03703805 0.52475099)
(0 -0.027090888 0.45156403)
(0 0.038499924 0.41300372)
(0 0.058316304 0.54884932)
(0 0.029091193 0.52126996)
(0 0.022364662 0.50991147)
(0 0.017343427 0.50634268)
(0 0.013391119 0.50426601)
(0 0.010677743 0.5030338)
(0 0.0086571903 0.50224578)
(0 0.0071066673 0.50171504)
(0 0.0058924337 0.50134864)
(0 0.0049165387 0.50108878)
(0 0.0041131276 0.50090031)
(0 0.003436954 0.50076134)
(0 0.0028558037 0.50065761)
(0 0.0023462318 0.50057962)
(0 0.0018907671 0.50052095)
(0 0.0014760367 0.50047721)
(0 0.0010914971 0.50044536)
(0 0.00072854376 0.50042338)
(0 0.00037985968 0.50040995)
(0 3.892282e-05 0.50040435)
(0 -0.00030041507 0.50040634)
(0 -0.00064430327 0.50041617)
(0 -0.00099926315 0.5004346)
(0 -0.001372629 0.50046301)
(0 -0.0017730784 0.50050355)
(0 -0.0022113409 0.50055951)
(0 -0.0027011936 0.50063572)
(0 -0.003260918 0.50073944)
(0 -0.0039154684 0.50088158)
(0 -0.00469978 0.50107901)
(0 -0.0056644802 0.50135878)
(0 -0.0068849656 0.50176559)
(0 -0.0084656115 0.50237202)
(0 -0.010572162 0.50331987)
(0 -0.013619279 0.50492759)
(0 -0.017612116 0.50768813)
(0 -0.022202104 0.51590341)
(0 -0.044106693 0.53859725)
(0 -0.029268333 0.41834253)
(0 0.032785992 0.36801521)
(0 0.058978234 0.55482858)
(0 0.034609327 0.53596234)
(0 0.026896916 0.51782596)
(0 0.021294697 0.51137548)
(0 0.016923238 0.50790562)
(0 0.013797924 0.50573435)
(0 0.0113537 0.50429121)
(0 0.0094283798 0.50330592)
(0 0.0078888189 0.50261835)
(0 0.0066285895 0.50212642)
(0 0.0055756586 0.50176746)
(0 0.0046785336 0.50150149)
(0 0.0038994411 0.50130215)
(0 0.0032103339 0.50115175)
(0 0.002589935 0.50103827)
(0 0.002021703 0.50095341)
(0 0.0014924209 0.50089146)
(0 0.00099117925 0.50084858)
(0 0.0005086106 0.50082228)
(0 3.6322593e-05 0.50081115)
(0 -0.00043361753 0.50081475)
(0 -0.0009091347 0.50083353)
(0 -0.0013985784 0.50086891)
(0 -0.0019112537 0.50092349)
(0 -0.0024580324 0.50100132)
(0 -0.0030521578 0.50110851)
(0 -0.0037103488 0.50125411)
(0 -0.0044543649 0.50145153)
(0 -0.0053132769 0.50172091)
(0 -0.006326583 0.50209295)
(0 -0.0075492011 0.5026157)
(0 -0.0090619468 0.50336772)
(0 -0.010969405 0.50447369)
(0 -0.013388901 0.50614039)
(0 -0.016739485 0.5088119)
(0 -0.021177722 0.51365192)
(0 -0.026196062 0.52689642)
(0 -0.045032012 0.5440853)
(0 -0.026009417 0.37930965)
(0 0.024717786 0.32545613)
(0 0.055450932 0.55209399)
(0 0.037460755 0.54865361)
(0 0.029306577 0.52582299)
(0 0.02356398 0.51650101)
(0 0.019270041 0.51179859)
(0 0.016058964 0.50874985)
(0 0.013429175 0.5066527)
(0 0.011301086 0.50519345)
(0 0.0095533821 0.50415778)
(0 0.0080891595 0.5034069)
(0 0.0068426126 0.50285346)
(0 0.0057637154 0.50243997)
(0 0.0048144264 0.5021279)
(0 0.0039656783 0.50189108)
(0 0.003194812 0.50171148)
(0 0.0024837943 0.50157658)
(0 0.0018179247 0.50147773)
(0 0.0011848615 0.50140902)
(0 0.00057386129 0.50136664)
(0 -2.4780691e-05 0.50134841)
(0 -0.0006202783 0.50135361)
(0 -0.0012218146 0.50138294)
(0 -0.0018389863 0.50143853)
(0 -0.0024823474 0.50152428)
(0 -0.003164006 0.50164632)
(0 -0.0038983883 0.50181379)
(0 -0.004703247 0.50204014)
(0 -0.0056010076 0.50234509)
(0 -0.0066206938 0.50275791)
(0 -0.0078002623 0.50332248)
(0 -0.0091892977 0.50410554)
(0 -0.010859606 0.50521309)
(0 -0.012906811 0.50681168)
(0 -0.015386119 0.50914409)
(0 -0.018647296 0.51272888)
(0 -0.023132613 0.51957215)
(0 -0.028354085 0.53660026)
(0 -0.042800992 0.54285332)
(0 -0.020601075 0.34257804)
(0 0.016167689 0.29156691)
(0 0.048835917 0.54419114)
(0 0.037486221 0.55806053)
(0 0.030171119 0.53325617)
(0 0.024709801 0.52129042)
(0 0.02076977 0.51552084)
(0 0.017673415 0.51175577)
(0 0.015027819 0.50910208)
(0 0.012824893 0.50721808)
(0 0.010959585 0.50585514)
(0 0.0093561394 0.50485153)
(0 0.0079618285 0.50410225)
(0 0.0067331982 0.50353622)
(0 0.0056359712 0.50310502)
(0 0.0046429263 0.50277519)
(0 0.0037320528 0.50252335)
(0 0.0028852839 0.5023331)
(0 0.0020874945 0.50219296)
(0 0.0013256987 0.50209506)
(0 0.00058839778 0.50203427)
(0 -0.00013491706 0.50200763)
(0 -0.00085428177 0.50201414)
(0 -0.001579666 0.50205468)
(0 -0.0023213956 0.50213207)
(0 -0.0030906381 0.50225142)
(0 -0.003899912 0.50242075)
(0 -0.004763713 0.50265194)
(0 -0.0056992832 0.50296226)
(0 -0.0067275532 0.50337671)
(0 -0.0078744456 0.50393177)
(0 -0.0091724365 0.50468119)
(0 -0.010660716 0.50570481)
(0 -0.012393009 0.50712495)
(0 -0.014451612 0.50913431)
(0 -0.01684123 0.51199932)
(0 -0.019794048 0.51633101)
(0 -0.023961046 0.52497989)
(0 -0.028512892 0.54395096)
(0 -0.037943654 0.53734652)
(0 -0.014046553 0.31309712)
(0 0.0083504793 0.26671734)
(0 0.040071014 0.53324423)
(0 0.035040876 0.56357099)
(0 0.029967606 0.53960276)
(0 0.025242467 0.52557115)
(0 0.021844558 0.51889946)
(0 0.019002956 0.51459959)
(0 0.016458062 0.51151991)
(0 0.01426341 0.50928946)
(0 0.012340498 0.50764501)
(0 0.010642141 0.50641443)
(0 0.0091314164 0.50548233)
(0 0.0077743961 0.5047692)
(0 0.0065430956 0.50421994)
(0 0.0054140236 0.50379584)
(0 0.0043672745 0.50346942)
(0 0.0033858659 0.50322113)
(0 0.0024551051 0.50303714)
(0 0.0015620306 0.50290786)
(0 0.00069493572 0.50282698)
(0 -0.00015703607 0.50279084)
(0 -0.0010043209 0.50279816)
(0 -0.0018572597 0.50284995)
(0 -0.0027264588 0.50294957)
(0 -0.0036231785 0.50310315)
(0 -0.0045597108 0.50332022)
(0 -0.0055498225 0.50361478)
(0 -0.0066092172 0.50400692)
(0 -0.0077560375 0.50452531)
(0 -0.0090113876 0.50521097)
(0 -0.010400252 0.50612339)
(0 -0.011949876 0.50734971)
(0 -0.013690861 0.50901864)
(0 -0.015683556 0.51133293)
(0 -0.017893934 0.51458016)
(0 -0.020409321 0.51948898)
(0 -0.023924909 0.52947441)
(0 -0.02677228 0.54817922)
(0 -0.030941889 0.528874)
(0 -0.00724895 0.29148363)
(0 0.0024462499 0.24985915)
(0 0.03041975 0.52060702)
(0 0.031059305 0.56486818)
(0 0.029104821 0.54413106)
(0 0.025504486 0.52910252)
(0 0.022786944 0.52183031)
(0 0.020305589 0.51720283)
(0 0.017951537 0.51384267)
(0 0.015829191 0.51135682)
(0 0.013898281 0.509489)
(0 0.012143724 0.50806792)
(0 0.010545454 0.50697495)
(0 0.0090810493 0.5061273)
(0 0.0077303486 0.50546669)
(0 0.0064748299 0.50495139)
(0 0.005297776 0.5045513)
(0 0.0041842007 0.50424471)
(0 0.0031206066 0.50401603)
(0 0.002094703 0.50385435)
(0 0.0010951333 0.50375242)
(0 0.00011118856 0.50370599)
(0 -0.00086749647 0.50371353)
(0 -0.0018511823 0.5037761)
(0 -0.0028502838 0.50389747)
(0 -0.0038756457 0.50408448)
(0 -0.0049387673 0.5043477)
(0 -0.006052051 0.50470252)
(0 -0.007228935 0.50517072)
(0 -0.0084840007 0.50578291)
(0 -0.0098326495 0.50658205)
(0 -0.011291271 0.50762923)
(0 -0.012875001 0.50901339)
(0 -0.014590133 0.5108612)
(0 -0.016465493 0.51336782)
(0 -0.018441593 0.51683141)
(0 -0.02045316 0.52205974)
(0 -0.023091658 0.53251327)
(0 -0.023667985 0.54880499)
(0 -0.022827655 0.5183056)
(0 -0.0015949617 0.27699097)
(0 -0.0008976695 0.23984055)
(0 0.021164095 0.50767158)
(0 0.026472576 0.56219588)
(0 0.027710462 0.54626451)
(0 0.025490412 0.53161796)
(0 0.023539242 0.52420543)
(0 0.021493463 0.51948662)
(0 0.019411574 0.51600408)
(0 0.017430427 0.51336532)
(0 0.01555323 0.51134227)
(0 0.013795555 0.50977575)
(0 0.012154331 0.50855147)
(0 0.010619909 0.50758859)
(0 0.0091808652 0.50682899)
(0 0.0078246023 0.50623021)
(0 0.0065385316 0.50576112)
(0 0.0053105232 0.50539887)
(0 0.0041290583 0.50512688)
(0 0.0029832304 0.50493336)
(0 0.0018626815 0.50481042)
(0 0.00075745847 0.50475337)
(0 -0.00034214933 0.50476047)
(0 -0.0014457447 0.5048328)
(0 -0.0025629732 0.50497432)
(0 -0.0037036579 0.50519228)
(0 -0.0048778696 0.5054978)
(0 -0.0060959793 0.50590687)
(0 -0.007368462 0.50644185)
(0 -0.0087056647 0.50713356)
(0 -0.010116738 0.50802449)
(0 -0.011608804 0.50917361)
(0 -0.013184993 0.51066569)
(0 -0.014830288 0.5126178)
(0 -0.016537044 0.5152007)
(0 -0.018235798 0.51870088)
(0 -0.019720629 0.52390914)
(0 -0.021371301 0.5337625)
(0 -0.019825853 0.54608079)
(0 -0.014889762 0.50689602)
(0 0.0018418391 0.26860244)
(0 -0.0018953847 0.23501547)
(0 0.013422972 0.49586655)
(0 0.021869168 0.55645912)
(0 0.025628853 0.54595602)
(0 0.024858063 0.53298338)
(0 0.023703318 0.52594061)
(0 0.022149377 0.52136787)
(0 0.020418094 0.51791991)
(0 0.018658646 0.51523722)
(0 0.016915338 0.51313507)
(0 0.015228854 0.51147602)
(0 0.013612344 0.51015765)
(0 0.012069123 0.50910583)
(0 0.010596868 0.50826574)
(0 0.0091896173 0.50759644)
(0 0.0078397092 0.50706734)
(0 0.0065386703 0.50665559)
(0 0.0052777398 0.50634434)
(0 0.0040481412 0.50612148)
(0 0.0028412199 0.50597879)
(0 0.0016484614 0.50591135)
(0 0.00046147231 0.50591728)
(0 -0.00072803117 0.50599757)
(0 -0.0019282596 0.50615623)
(0 -0.0031473295 0.50640055)
(0 -0.0043931832 0.50674167)
(0 -0.0056734469 0.50719543)
(0 -0.0069949276 0.5077836)
(0 -0.0083630813 0.50853566)
(0 -0.0097804566 0.50949138)
(0 -0.011244794 0.51070434)
(0 -0.012747366 0.51224953)
(0 -0.014257334 0.51422797)
(0 -0.015732077 0.51677553)
(0 -0.017101272 0.52013927)
(0 -0.018058533 0.52499277)
(0 -0.018716295 0.53335197)
(0 -0.015741928 0.54102194)
(0 -0.0082984825 0.49623027)
(0 0.0029853687 0.26480257)
(0 -0.0013997753 0.23341255)
(0 0.0079378695 0.48624869)
(0 0.017560892 0.54903419)
(0 0.022746403 0.5437207)
(0 0.023262579 0.53325246)
(0 0.02286673 0.52700301)
(0 0.021841039 0.5227804)
(0 0.020524433 0.51950469)
(0 0.019064863 0.51688298)
(0 0.017539535 0.51477993)
(0 0.016006875 0.51308617)
(0 0.014494479 0.51171689)
(0 0.01301757 0.51060837)
(0 0.011582639 0.50971183)
(0 0.010190637 0.5089899)
(0 0.0088392942 0.50841398)
(0 0.0075243686 0.50796229)
(0 0.0062404753 0.50761851)
(0 0.0049815955 0.50737075)
(0 0.0037413984 0.50721082)
(0 0.0025134238 0.50713377)
(0 0.0012912049 0.50713762)
(0 6.837529e-05 0.50722327)
(0 -0.0011612337 0.50739453)
(0 -0.002403414 0.50765837)
(0 -0.0036633766 0.50802546)
(0 -0.0049454408 0.50851069)
(0 -0.0062522358 0.50913419)
(0 -0.0075839372 0.50992267)
(0 -0.0089364951 0.51091121)
(0 -0.010298965 0.51214554)
(0 -0.011651454 0.51368682)
(0 -0.012952767 0.51561543)
(0 -0.014133268 0.5180297)
(0 -0.015120813 0.52111359)
(0 -0.015574607 0.52536213)
(0 -0.015357785 0.53177653)
(0 -0.011806239 0.53499502)
(0 -0.0037502323 0.48759633)
(0 0.0025991621 0.26372314)
(0 -0.00038298682 0.23330885)
(0 0.0048167647 0.47919492)
(0 0.013777287 0.54139668)
(0 0.019279672 0.54038873)
(0 0.020715603 0.53263223)
(0 0.020963597 0.52742271)
(0 0.020459827 0.52369565)
(0 0.019583145 0.52069868)
(0 0.018473587 0.5182281)
(0 0.017228622 0.51619659)
(0 0.015916821 0.51452549)
(0 0.014577164 0.5131505)
(0 0.013234536 0.5120206)
(0 0.011903217 0.51109507)
(0 0.010590678 0.51034169)
(0 0.0092999838 0.50973511)
(0 0.0080312785 0.50925559)
(0 0.0067828325 0.50888806)
(0 0.0055517295 0.50862134)
(0 0.0043343419 0.50844764)
(0 0.00312666 0.50836219)
(0 0.0019245437 0.50836298)
(0 0.00072393914 0.50845074)
(0 -0.00047891768 0.50862894)
(0 -0.00168711 0.50890374)
(0 -0.0029028099 0.50928507)
(0 -0.004126845 0.50978603)
(0 -0.0053575977 0.51042425)
(0 -0.0065901491 0.51122252)
(0 -0.007814462 0.51220979)
(0 -0.009012494 0.51342241)
(0 -0.010155262 0.51490591)
(0 -0.011195649 0.51671771)
(0 -0.012049878 0.51892129)
(0 -0.012639956 0.52162735)
(0 -0.012657478 0.52514056)
(0 -0.011805237 0.52963049)
(0 -0.008347958 0.52921515)
(0 -0.0012838109 0.48146027)
(0 0.0016165632 0.26381641)
(0 0.00049770939 0.23358426)
(0 0.0035486934 0.4744461)
(0 0.010725733 0.53469994)
(0 0.015733669 0.53677766)
(0 0.01763497 0.53141929)
(0 0.018348014 0.52729902)
(0 0.018297401 0.52413985)
(0 0.017830174 0.5214904)
(0 0.017073351 0.51923807)
(0 0.016129902 0.51733746)
(0 0.015071305 0.51573969)
(0 0.013943497 0.5144011)
(0 0.012777861 0.51328418)
(0 0.011594676 0.51235735)
(0 0.010406813 0.51159455)
(0 0.0092220139 0.51097458)
(0 0.0080444689 0.51048045)
(0 0.0068759577 0.51009893)
(0 0.0057166452 0.50982001)
(0 0.0045656638 0.5096366)
(0 0.0034215516 0.50954427)
(0 0.0022826086 0.50954108)
(0 0.0011472264 0.5096275)
(0 1.3973136e-05 0.50980649)
(0 -0.0011173188 0.51008339)
(0 -0.0022458703 0.51046655)
(0 -0.0033694439 0.51096701)
(0 -0.0044825175 0.51159928)
(0 -0.0055759577 0.51238144)
(0 -0.006635061 0.51333563)
(0 -0.0076370038 0.51448822)
(0 -0.0085473136 0.51586951)
(0 -0.0093168763 0.51751431)
(0 -0.0098616234 0.51945629)
(0 -0.010099204 0.52174013)
(0 -0.0097939636 0.52450608)
(0 -0.0086108493 0.52740305)
(0 -0.0056356617 0.52444253)
(0 -0.00034167719 0.47748057)
(0 0.00076277942 0.26413985)
(0 0.0010210956 0.23373038)
(0 0.0033484093 0.47139895)
(0 0.0085057743 0.52950243)
(0 0.012620888 0.53346196)
(0 0.014589814 0.52992541)
(0 0.015565888 0.52678765)
(0 0.015847293 0.5241962)
(0 0.015710147 0.52192252)
(0 0.015261953 0.51992746)
(0 0.014598109 0.51819863)
(0 0.013786642 0.5167129)
(0 0.012875329 0.51544513)
(0 0.011898489 0.51437075)
(0 0.010880053 0.5134674)
(0 0.009836626 0.51271554)
(0 0.008779495 0.51209853)
(0 0.0077161297 0.51160262)
(0 0.006651299 0.51121676)
(0 0.0055878959 0.51093245)
(0 0.0045275685 0.51074352)
(0 0.0034712185 0.51064603)
(0 0.0024194168 0.51063816)
(0 0.0013728164 0.51072013)
(0 0.00033233586 0.51089421)
(0 -0.00069991461 0.51116494)
(0 -0.0017206314 0.51153857)
(0 -0.0027247678 0.51202399)
(0 -0.0037040229 0.51263224)
(0 -0.0046463479 0.51337651)
(0 -0.0055341896 0.51427212)
(0 -0.0063425669 0.51533591)
(0 -0.0070357369 0.51658478)
(0 -0.0075664364 0.51803416)
(0 -0.0078607244 0.51969405)
(0 -0.0078397941 0.5215623)
(0 -0.0073469816 0.52366057)
(0 -0.0061040689 0.52539939)
(0 -0.003740548 0.52092175)
(0 -0.00020463566 0.47503212)
(0 0.00027001814 0.26429263)
(0 0.0012450603 0.23364542)
(0 0.0035374537 0.46941631)
(0 0.0070462239 0.52579043)
(0 0.010221588 0.53071076)
(0 0.012003853 0.52840656)
(0 0.013064811 0.52606192)
(0 0.013540583 0.52398295)
(0 0.013631516 0.52207622)
(0 0.013419703 0.52034936)
(0 0.012984786 0.51881284)
(0 0.01238658 0.5174632)
(0 0.011670141 0.5162902)
(0 0.010869442 0.51528056)
(0 0.010009607 0.51442033)
(0 0.0091091356 0.5136962)
(0 0.0081815085 0.5130961)
(0 0.0072364748 0.51260961)
(0 0.0062810466 0.51222806)
(0 0.0053202776 0.51194459)
(0 0.0043578845 0.5117541)
(0 0.0033967586 0.51165324)
(0 0.0024394025 0.51164034)
(0 0.0014883623 0.51171539)
(0 0.00054655361 0.51188)
(0 -0.00038214922 0.51213753)
(0 -0.0012925357 0.51249256)
(0 -0.0021775005 0.51295151)
(0 -0.0030270673 0.51352202)
(0 -0.0038276876 0.5142127)
(0 -0.0045608609 0.51503268)
(0 -0.0052018598 0.51599057)
(0 -0.0057172411 0.51709263)
(0 -0.0060649079 0.51833986)
(0 -0.0061860097 0.51972544)
(0 -0.0060140423 0.52122164)
(0 -0.005456043 0.52278021)
(0 -0.004327646 0.52374913)
(0 -0.0025397154 0.51850324)
(0 -0.00031945661 0.47351161)
(0 6.9990241e-05 0.26423133)
(0 0.0013056695 0.23340047)
(0 0.0037278465 0.46802149)
(0 0.0061501124 0.523227)
(0 0.0085400925 0.528555)
(0 0.010029765 0.52702226)
(0 0.011051705 0.52526904)
(0 0.011604223 0.52361902)
(0 0.011827137 0.52204391)
(0 0.011775073 0.52057357)
(0 0.01150932 0.51923184)
(0 0.011078893 0.51802813)
(0 0.010523087 0.51696306)
(0 0.0098730775 0.51603222)
(0 0.0091531216 0.51522869)
(0 0.0083819665 0.51454462)
(0 0.0075739986 0.51397214)
(0 0.0067402312 0.51350399)
(0 0.0058891202 0.51313383)
(0 0.0050272391 0.51285644)
(0 0.0041598428 0.51266785)
(0 0.0032913511 0.51256531)
(0 0.0024257739 0.51254736)
(0 0.00156712 0.5126138)
(0 0.00071977536 0.51276558)
(0 -0.00011105006 0.51300489)
(0 -0.00091888591 0.51333482)
(0 -0.0016954667 0.51375942)
(0 -0.0024300743 0.51428329)
(0 -0.0031089019 0.51491107)
(0 -0.003714056 0.5156468)
(0 -0.004222843 0.51649264)
(0 -0.0046063045 0.51744718)
(0 -0.0048295457 0.51850229)
(0 -0.0048491419 0.51964109)
(0 -0.0046155074 0.52082634)
(0 -0.0040787569 0.52197876)
(0 -0.0031388176 0.52245927)
(0 -0.001815892 0.51687364)
(0 -0.00040916612 0.47248878)
(0 1.9419308e-05 0.26405477)
(0 0.0013074289 0.2330931)
(0 0.0037963932 0.46694161)
(0 0.0055971727 0.52142073)
(0 0.0074130494 0.5269005)
(0 0.008606251 0.5258381)
(0 0.0095240872 0.52450617)
(0 0.010074012 0.52319759)
(0 0.010355839 0.52190579)
(0 0.010399306 0.52066641)
(0 0.010248842 0.51950892)
(0 0.0099422226 0.51844978)
(0 0.0095116964 0.51749659)
(0 0.0089842427 0.51665124)
(0 0.0083818761 0.51591224)
(0 0.0077223788 0.51527615)
(0 0.0070200087 0.51473866)
(0 0.0062861789 0.51429529)
(0 0.0055300697 0.51394183)
(0 0.0047591704 0.51367462)
(0 0.0039797555 0.51349073)
(0 0.00319731 0.51338803)
(0 0.002416917 0.51336529)
(0 0.0016436248 0.51342212)
(0 0.00088280706 0.51355893)
(0 0.00014054371 0.51377688)
(0 -0.00057599723 0.51407768)
(0 -0.0012581086 0.51446339)
(0 -0.0018950829 0.51493606)
(0 -0.0024737456 0.51549715)
(0 -0.0029778173 0.51614684)
(0 -0.0033876253 0.51688279)
(0 -0.0036794961 0.51769865)
(0 -0.0038262378 0.51858148)
(0 -0.0037976099 0.51950997)
(0 -0.0035605296 0.52044664)
(0 -0.0030911174 0.52130517)
(0 -0.0023452731 0.52147586)
(0 -0.0013668382 0.51574233)
(0 -0.00040892955 0.47172907)
(0 1.7652641e-05 0.26385395)
(0 0.0013003553 0.23279114)
(0 0.0037633052 0.46605383)
(0 0.0052216864 0.52007589)
(0 0.0066448721 0.52562232)
(0 0.0075849549 0.52485653)
(0 0.0083782604 0.52382143)
(0 0.0088833072 0.52277749)
(0 0.0091772997 0.52171927)
(0 0.0092705007 0.52067968)
(0 0.0091939218 0.51968863)
(0 0.0089752038 0.51876539)
(0 0.0086396275 0.51792136)
(0 0.0082095328 0.51716253)
(0 0.007704011 0.51649114)
(0 0.0071391499 0.51590713)
(0 0.0065283747 0.51540901)
(0 0.005882856 0.5149946)
(0 0.005211928 0.5146615)
(0 0.0045234904 0.51440741)
(0 0.003824386 0.51423035)
(0 0.0031207518 0.51412878)
(0 0.0024183508 0.51410168)
(0 0.0017228895 0.51414852)
(0 0.0010403269 0.51426928)
(0 0.00037719926 0.51446427)
(0 -0.00025908438 0.51473402)
(0 -0.00085988473 0.51507902)
(0 -0.0014150108 0.51549932)
(0 -0.0019124534 0.51599405)
(0 -0.0023380316 0.5165607)
(0 -0.0026753859 0.51719407)
(0 -0.0029059514 0.51788515)
(0 -0.0030095597 0.51861919)
(0 -0.0029660951 0.51937433)
(0 -0.0027555414 0.52011683)
(0 -0.0023684871 0.5207643)
(0 -0.0017904975 0.52073025)
(0 -0.0010583215 0.51491521)
(0 -0.00034915829 0.47113265)
(0 2.105028e-05 0.2636767)
(0 0.0012979118 0.23252531)
(0 0.003684768 0.46531186)
(0 0.0049322506 0.51901893)
(0 0.0060872223 0.52461519)
(0 0.0068266406 0.52405142)
(0 0.0075001127 0.52322912)
(0 0.0079439107 0.52238883)
(0 0.0082243768 0.5215197)
(0 0.0083381643 0.52064888)
(0 0.0083065961 0.51980387)
(0 0.0081490318 0.51900404)
(0 0.0078846431 0.5182624)
(0 0.0075313386 0.51758717)
(0 0.0071051414 0.51698304)
(0 0.0066201211 0.51645227)
(0 0.0060884686 0.51599548)
(0 0.0055206921 0.51561229)
(0 0.0049258695 0.51530176)
(0 0.0043119238 0.51506273)
(0 0.0036859023 0.51489402)
(0 0.0030542516 0.51479462)
(0 0.0024230853 0.5147637)
(0 0.0017984452 0.51480067)
(0 0.0011865532 0.51490513)
(0 0.00059406975 0.51507677)
(0 2.8319124e-05 0.51531519)
(0 -0.00050245957 0.51561969)
(0 -0.0009888963 0.51598888)
(0 -0.0014203776 0.51642029)
(0 -0.0017849201 0.51690971)
(0 -0.002069312 0.5174504)
(0 -0.0022594053 0.51803228)
(0 -0.0023407978 0.51864065)
(0 -0.0023006097 0.51925521)
(0 -0.0021278078 0.51984709)
(0 -0.0018204692 0.52034059)
(0 -0.0013770139 0.52016293)
(0 -0.00082216365 0.51428571)
(0 -0.00027259638 0.47066153)
(0 1.9704517e-05 0.26353727)
(0 0.0012992401 0.23230128)
(0 0.0036012181 0.46469539)
(0 0.0046916922 0.51816245)
(0 0.0056541211 0.52380636)
(0 0.0062371783 0.52339113)
(0 0.0068052829 0.52272618)
(0 0.0071856288 0.52204345)
(0 0.0074404505 0.52132654)
(0 0.0075576048 0.52059655)
(0 0.0075518822 0.51987744)
(0 0.0074363197 0.51918724)
(0 0.0072251207 0.5185391)
(0 0.0069323119 0.51794222)
(0 0.0065710318 0.51740265)
(0 0.0061532902 0.51692417)
(0 0.0056898726 0.51650886)
(0 0.0051903864 0.51615765)
(0 0.0046633852 0.51587074)
(0 0.0041165377 0.51564786)
(0 0.0035568199 0.5154885)
(0 0.0029907184 0.51539207)
(0 0.0024244345 0.51535795)
(0 0.0018640881 0.5153855)
(0 0.0013159134 0.51547408)
(0 0.0007864526 0.51562289)
(0 0.0002827244 0.51583088)
(0 -0.00018764187 0.5160965)
(0 -0.00061621995 0.51641741)
(0 -0.0009938273 0.51679014)
(0 -0.0013105606 0.51720954)
(0 -0.0015559476 0.51766828)
(0 -0.0017194061 0.51815619)
(0 -0.0017909484 0.51865965)
(0 -0.0017626098 0.51916078)
(0 -0.0016289795 0.51963536)
(0 -0.001391706 0.52001371)
(0 -0.0010537702 0.51973002)
(0 -0.00063100098 0.51379958)
(0 -0.00020345446 0.47029579)
(0 1.5518094e-05 0.26343301)
(0 0.001301411 0.23211399)
(0 0.0035292459 0.46418811)
(0 0.0044887113 0.51746214)
(0 0.005303694 0.52314914)
(0 0.0057632012 0.52284831)
(0 0.0062417154 0.52230323)
(0 0.006562515 0.52174375)
(0 0.0067871083 0.52114957)
(0 0.0068979056 0.52053654)
(0 0.0069055039 0.51992488)
(0 0.0068183251 0.51933067)
(0 0.00664672 0.5187664)
(0 0.0064014949 0.51824137)
(0 0.0060932475 0.51776227)
(0 0.0057320523 0.5173337)
(0 0.0053272723 0.51695871)
(0 0.0048875089 0.51663914)
(0 0.0044206342 0.51637599)
(0 0.0039338775 0.51616969)
(0 0.0034339462 0.51602025)
(0 0.002927164 0.51592741)
(0 0.0024196193 0.51589072)
(0 0.0019173145 0.51590956)
(0 0.0014263106 0.51598312)
(0 0.00095286248 0.51611027)
(0 0.00050353652 0.51628953)
(0 8.5280403e-05 0.51651881)
(0 -0.00029448567 0.5167952)
(0 -0.00062793823 0.51711467)
(0 -0.00090696818 0.51747172)
(0 -0.0011234015 0.51785901)
(0 -0.0012694098 0.51826692)
(0 -0.0013382276 0.51868325)
(0 -0.0013251218 0.51909279)
(0 -0.0012279984 0.51947522)
(0 -0.0010500086 0.51976543)
(0 -0.00079543558 0.51940098)
(0 -0.00047485036 0.5134264)
(0 -0.00014831486 0.47001834)
(0 1.1276457e-05 0.26335651)
(0 0.0013029331 0.23195662)
(0 0.0034708888 0.46377317)
(0 0.0043191641 0.51689011)
(0 0.0050159318 0.52261269)
(0 0.0053755855 0.52240166)
(0 0.0057784301 0.52194992)
(0 0.0060455159 0.52148804)
(0 0.0062390996 0.52099326)
(0 0.0063382635 0.52047725)
(0 0.006351013 0.51995679)
(0 0.0062824913 0.51944588)
(0 0.0061401505 0.51895589)
(0 0.0059322171 0.51849575)
(0 0.005667141 0.51807224)
(0 0.005353268 0.51769035)
(0 0.0049986136 0.51735366)
(0 0.0046107578 0.51706458)
(0 0.0041968162 0.51682469)
(0 0.0037634673 0.51663488)
(0 0.0033170164 0.51649555)
(0 0.0028634813 0.51640674)
(0 0.0024086917 0.51636813)
(0 0.0019583917 0.51637912)
(0 0.0015183386 0.51643882)
(0 0.0010943918 0.51654592)
(0 0.00069258328 0.51669866)
(0 0.00031915176 0.51689465)
(0 -1.9453033e-05 0.51713072)
(0 -0.00031663044 0.51740262)
(0 -0.00056578359 0.51770489)
(0 -0.0007605939 0.51803051)
(0 -0.00089530824 0.51837072)
(0 -0.0009654328 0.51871487)
(0 -0.00096832563 0.51905021)
(0 -0.00090376748 0.51935956)
(0 -0.00077537807 0.51958112)
(0 -0.00058769674 0.51915423)
(0 -0.00034830892 0.51314484)
(0 -0.00010550066 0.46981295)
(0 8.0617998e-06 0.26330126)
(0 0.0013035781 0.23182375)
(0 0.0034232662 0.46343461)
(0 0.0041788876 0.51642429)
(0 0.0047788979 0.52217482)
(0 0.0050564074 0.5220348)
(0 0.0053951652 0.52165679)
(0 0.0056145918 0.52127299)
(0 0.0057782345 0.52085919)
(0 0.0058631322 0.52042374)
(0 0.0058757481 0.51998048)
(0 0.0058189329 0.51954139)
(0 0.0056979993 0.51911662)
(0 0.0055191533 0.51871441)
(0 0.0052890778 0.51834132)
(0 0.0050146249 0.51800239)
(0 0.0047025857 0.51770142)
(0 0.0043595598 0.51744117)
(0 0.0039918896 0.51722354)
(0 0.0036056469 0.51704977)
(0 0.0032066542 0.51692051)
(0 0.0028005294 0.51683601)
(0 0.0023927451 0.51679608)
(0 0.0019886918 0.51680018)
(0 0.0015937394 0.51684735)
(0 0.0012132887 0.51693623)
(0 0.00085280456 0.51706494)
(0 0.00051782156 0.51723095)
(0 0.00021391165 0.51743103)
(0 -5.3399568e-05 0.51766098)
(0 -0.00027877258 0.51791558)
(0 -0.00045733015 0.51818836)
(0 -0.00058487684 0.51847152)
(0 -0.0006584774 0.5187559)
(0 -0.00067682754 0.51903088)
(0 -0.00064071748 0.51928181)
(0 -0.00055374666 0.51944928)
(0 -0.00042038511 0.51897371)
(0 -0.00024641171 0.51293766)
(0 -7.1706005e-05 0.46966542)
(0 5.8652337e-06 0.26326278)
(0 0.0013036031 0.23171145)
(0 0.0033834274 0.4631588)
(0 0.0040629537 0.51604592)
(0 0.0045832621 0.52181828)
(0 0.0047925019 0.52173472)
(0 0.0050767915 0.52141557)
(0 0.005254284 0.52109478)
(0 0.0053899509 0.5207473)
(0 0.0054595675 0.52037887)
(0 0.0054687268 0.52000088)
(0 0.0054186934 0.5196235)
(0 0.0053132219 0.51925562)
(0 0.0051569599 0.51890469)
(0 0.0049551629 0.51857684)
(0 0.0047134209 0.51827696)
(0 0.0044374442 0.51800888)
(0 0.0041329255 0.51777547)
(0 0.003805456 0.51757881)
(0 0.0034604852 0.51742034)
(0 0.0031033132 0.5173009)
(0 0.0027391039 0.51722088)
(0 0.0023729129 0.51718019)
(0 0.0020097198 0.51717834)
(0 0.0016544598 0.51721441)
(0 0.0013120465 0.51728702)
(0 0.00098737845 0.51739425)
(0 0.0006853225 0.51753363)
(0 0.00041066581 0.51770197)
(0 0.00016802037 0.51789529)
(0 -3.8303554e-05 0.51810874)
(0 -0.00020453843 0.51833648)
(0 -0.00032763807 0.51857169)
(0 -0.00040572232 0.51880655)
(0 -0.00043832561 0.51903226)
(0 -0.00042673572 0.51923618)
(0 -0.00037431462 0.51936066)
(0 -0.00028531724 0.51884694)
(0 -0.00016438748 0.5127906)
(0 -4.4455058e-05 0.46956423)
(0 4.3861125e-06 0.26323781)
(0 0.0013032913 0.23161672)
(0 0.0033495064 0.46293481)
(0 0.0039666377 0.5157394)
(0 0.0044211051 0.52152915)
(0 0.0045732898 0.52149086)
(0 0.0048111892 0.5212191)
(0 0.0049519903 0.52094956)
(0 0.0050620565 0.52065664)
(0 0.0051163805 0.5203441)
(0 0.0051201108 0.52002128)
(0 0.0050734244 0.51969679)
(0 0.0049789538 0.5193783)
(0 0.0048401572 0.51907247)
(0 0.0046611517 0.5187849)
(0 0.004446478 0.5185202)
(0 0.0042009111 0.51828204)
(0 0.0039293262 0.51807331)
(0 0.0036366091 0.51789616)
(0 0.0033276005 0.51775209)
(0 0.0030070685 0.51764209)
(0 0.0026796996 0.5175666)
(0 0.0023501032 0.51752565)
(0 0.0020228202 0.5175188)
(0 0.0017023323 0.51754518)
(0 0.0013930627 0.51760345)
(0 0.0010993652 0.51769176)
(0 0.00082549255 0.51780773)
(0 0.00057554086 0.51794835)
(0 0.00035335567 0.51810994)
(0 0.00016241815 0.51828807)
(0 5.6476514e-06 0.51847759)
(0 -0.00011474852 0.51867257)
(0 -0.00019759647 0.51886639)
(0 -0.00024293456 0.51905173)
(0 -0.00025224645 0.51921761)
(0 -0.00022857203 0.51930769)
(0 -0.00017586182 0.51876395)
(0 -9.8169782e-05 0.51269217)
(0 -2.2259998e-05 0.46950024)
(0 3.3967123e-06 0.26322397)
(0 0.0013028202 0.23153716)
(0 0.0033204259 0.46275396)
(0 0.0038860495 0.51549216)
(0 0.0042859095 0.52129609)
(0 0.0043902237 0.52129447)
(0 0.0045885649 0.52106118)
(0 0.0046973921 0.52083357)
(0 0.0047843623 0.52058577)
(0 0.0048239871 0.52031996)
(0 0.0048212367 0.52004381)
(0 0.0047755501 0.51976456)
(0 0.0046887591 0.51948883)
(0 0.0045634217 0.51922248)
(0 0.0044027551 0.51897055)
(0 0.0042104375 0.51873727)
(0 0.0039904455 0.51852613)
(0 0.003746932 0.51833989)
(0 0.0034841363 0.51818067)
(0 0.0032063219 0.51805003)
(0 0.0029177369 0.51794896)
(0 0.0026225901 0.517878)
(0 0.0023250386 0.51783722)
(0 0.0020291793 0.51782626)
(0 0.0017390415 0.5178443)
(0 0.0014585732 0.51789009)
(0 0.0011916175 0.51796191)
(0 0.00094187324 0.51805751)
(0 0.00071283679 0.51817412)
(0 0.00050771598 0.5183084)
(0 0.00032932904 0.51845639)
(0 0.00017994966 0.51861356)
(0 6.1180001e-05 0.51877482)
(0 -2.6272926e-05 0.51893459)
(0 -8.2728891e-05 0.51908678)
(0 -0.00010968786 0.51922169)
(0 -0.00010984977 0.5192841)
(0 -8.6809777e-05 0.51871668)
(0 -4.4563113e-05 0.51263335)
(0 -4.203111e-06 0.46946619)
(0 2.7530391e-06 0.26321931)
(0 0.0013022803 0.23147068)
(0 0.0032954622 0.46260931)
(0 0.0038181936 0.51529416)