/*--------------------------------*- C++ -*----------------------------------*\
  =========                 |
  \\      /  F ield         | OpenFOAM: The Open Source CFD Toolbox
   \\    /   O peration     | Website:  https://openfoam.org
    \\  /    A nd           | Version:  10
     \\/     M anipulation  |
\*---------------------------------------------------------------------------*/
FoamFile
{
    format      ascii;
    class       surfaceScalarField;
    location    "0.07";
    object      phi;
}
// * * * * * * * * * * * * * * * * * * * * * * * * * * * * * * * * * * * * * //

dimensions      [1 0 -1 0 0 0 0];

internalField   nonuniform List<scalar> 
7860
(
3.9868115e-08
5.2884e-07
1.2171699e-08
5.9640413e-07
7.4065209e-09
5.7347292e-07
5.4752095e-09
5.7063901e-07
4.0900915e-09
5.7009279e-07
3.1763825e-09
5.6962136e-07
2.5349535e-09
5.6934906e-07
2.0560899e-09
5.6918648e-07
1.6874037e-09
5.6907629e-07
1.3963121e-09
5.6899869e-07
1.1609772e-09
5.6894292e-07
9.6660101e-10
5.6890196e-07
8.0281027e-10
5.6887137e-07
6.6208921e-10
5.6884829e-07
5.3884263e-10
5.6883081e-07
4.2879093e-10
5.6881762e-07
3.2856364e-10
5.6880779e-07
2.3541859e-10
5.6880071e-07
1.470391e-10
5.6879594e-07
6.1380795e-11
5.6879322e-07
-2.3451746e-11
5.6879239e-07
-1.0931247e-10
5.6879342e-07
-1.9812302e-10
5.6879637e-07
-2.9197683e-10
5.6880141e-07
-3.9327288e-10
5.6880886e-07
-5.0487988e-10
5.6881917e-07
-6.3035798e-10
5.6883304e-07
-7.7427291e-10
5.6885149e-07
-9.4265823e-10
5.6887596e-07
-1.143724e-09
5.6890865e-07
-1.3890319e-09
5.6895289e-07
-1.6954709e-09
5.6901403e-07
-2.0881267e-09
5.6910026e-07
-2.607006e-09
5.6922649e-07
-3.3346211e-09
5.6943524e-07
-4.4270954e-09
5.6980012e-07
-5.9766053e-09
5.7025718e-07
-9.4780089e-09
5.7220911e-07
-2.9538043e-08
5.8876778e-07
5.3916988e-07
5.960631e-08
4.6923421e-07
3.6588761e-08
6.1942148e-07
2.2554844e-08
5.8750676e-07
1.6176687e-08
5.7701718e-07
1.2212028e-08
5.7405745e-07
9.5282107e-09
5.7230518e-07
7.6013164e-09
5.7127596e-07
6.163101e-09
5.706247e-07
5.057745e-09
5.7018165e-07
4.1850103e-09
5.6987142e-07
3.4794351e-09
5.696485e-07
2.8967424e-09
5.6948465e-07
2.4057948e-09
5.6936232e-07
1.9840387e-09
5.6927005e-07
1.6146924e-09
5.6920016e-07
1.2849206e-09
5.6914739e-07
9.846151e-10
5.691081e-07
7.0555276e-10
5.6907977e-07
4.4078692e-10
5.6906071e-07
1.8418755e-10
5.6904982e-07
-6.9929612e-11
5.6904651e-07
-3.2712683e-10
5.6905062e-07
-5.9315812e-10
5.690624e-07
-8.7430342e-10
5.6908256e-07
-1.177757e-09
5.6911231e-07
-1.512122e-09
5.6915354e-07
-1.8880754e-09
5.69209e-07
-2.319311e-09
5.6928272e-07
-2.8239326e-09
5.6938058e-07
-3.4265828e-09
5.695113e-07
-4.1618678e-09
5.6968818e-07
-5.0803869e-09
5.6993255e-07
-6.2590758e-09
5.7027895e-07
-7.8170817e-09
5.707845e-07
-9.9580966e-09
5.7157626e-07
-1.3089146e-08
5.7293117e-07
-1.8025944e-08
5.7519398e-07
-2.8068483e-08
5.8225165e-07
-4.5707967e-08
6.0640727e-07
4.9346191e-07
5.9907394e-08
4.0932812e-07
5.0343221e-08
6.2898559e-07
3.3235165e-08
6.0461454e-07
2.468112e-08
5.855712e-07
1.9184687e-08
5.7955389e-07
1.5194147e-08
5.7629572e-07
1.2227076e-08
5.7424303e-07
9.973663e-09
5.7287811e-07
8.2201841e-09
5.7193513e-07
6.8232584e-09
5.7126835e-07
5.6865935e-09
5.7078517e-07
4.7432412e-09
5.70428e-07
3.945282e-09
5.7016028e-07
3.2575988e-09
5.6995773e-07
2.6538156e-09
5.6980395e-07
2.1136037e-09
5.696876e-07
1.6208545e-09
5.6960085e-07
1.1623955e-09
5.6953823e-07
7.2705345e-10
5.6949605e-07
3.0493901e-10
5.6947193e-07
-1.1313487e-10
5.6946458e-07
-5.3616088e-10
5.6947364e-07
-9.7343446e-10
5.6949968e-07
-1.435078e-09
5.695442e-07
-1.9326474e-09
5.6960988e-07
-2.4798969e-09
5.6970079e-07
-3.0937963e-09
5.698229e-07
-3.7959485e-09
5.6998488e-07
-4.6146481e-09
5.7019928e-07
-5.5879555e-09
5.7048461e-07
-6.768369e-09
5.7086859e-07
-8.2304771e-09
5.7139466e-07
-1.0084175e-08
5.7213265e-07
-1.2492018e-08
5.7319235e-07
-1.5688037e-08
5.7477228e-07
-2.0035467e-08
5.772786e-07
-2.6509811e-08
5.8166833e-07
-3.8744779e-08
5.9448662e-07
-4.8012631e-08
6.1567512e-07
4.4544928e-07
5.4746996e-08
3.5458359e-07
5.7231063e-08
6.265021e-07
4.0254951e-08
6.2159012e-07
3.0572587e-08
5.9525345e-07
2.4435971e-08
5.8569052e-07
1.9747747e-08
5.8098395e-07
1.6114569e-08
5.7787621e-07
1.3277154e-08
5.7571553e-07
1.1022909e-08
5.7418937e-07
9.199786e-09
5.7309147e-07
7.6996028e-09
5.7228535e-07
6.4436144e-09
5.7168399e-07
5.3737579e-09
5.7123013e-07
4.4465375e-09
5.7088496e-07
3.628703e-09
5.7062178e-07
2.8942653e-09
5.7042204e-07
2.2223943e-09
5.7027272e-07
1.595897e-09
5.7016473e-07
1.0000817e-09
5.7009186e-07
4.218743e-10
5.7005014e-07
-1.5091013e-10
5.7003737e-07
-7.3021124e-10
5.7005295e-07
-1.3283493e-09
5.7009782e-07
-1.9586857e-09
5.7017454e-07
-2.6363792e-09
5.7028758e-07
-3.3793209e-09
5.7044373e-07
-4.2093496e-09
5.7065293e-07
-5.1538944e-09
5.7092942e-07
-6.2482663e-09
5.7129366e-07
-7.5389328e-09
5.7177527e-07
-9.0881043e-09
5.7241777e-07
-1.0980138e-08
5.732867e-07
-1.3331958e-08
5.7448447e-07
-1.6305814e-08
5.761662e-07
-2.0100877e-08
5.7856734e-07
-2.4984842e-08
5.8216257e-07
-3.2207857e-08
5.8889134e-07
-4.4782715e-08
6.0706148e-07
-4.633306e-08
6.1722547e-07
3.9911622e-07
4.7808326e-08
3.0677924e-07
5.9772192e-08
6.1454016e-07
4.5092976e-08
6.3626862e-07
3.4586208e-08
6.0575989e-07
2.8113887e-08
5.9216284e-07
2.3138398e-08
5.8595945e-07
1.9162528e-08
5.8185208e-07
1.5970435e-08
5.7890762e-07
1.3376953e-08
5.7678286e-07
1.1242249e-08
5.7522618e-07
9.4608181e-09
5.7406678e-07
7.9522934e-09
5.7319252e-07
6.6553764e-09
5.7252705e-07
5.5228224e-09
5.7201751e-07
4.5176609e-09
5.7162694e-07
3.610442e-09
5.7132926e-07
2.7771896e-09
5.7110597e-07
1.9978575e-09
5.7094406e-07
1.2551397e-09
5.7083458e-07
5.3351905e-10
5.7077176e-07
-1.815311e-10
5.7075242e-07
-9.0426276e-10
5.7077568e-07
-1.6493497e-09
5.708429e-07
-2.4326178e-09
5.7095781e-07
-3.2718684e-09
5.7112683e-07
-4.1878716e-09
5.7135973e-07
-5.2056163e-09
5.7167068e-07
-6.3559322e-09
5.7207974e-07
-7.6776311e-09
5.7261536e-07
-9.2203967e-09
5.7331804e-07
-1.1048584e-08
5.7424596e-07
-1.3245669e-08
5.7548378e-07
-1.5920758e-08
5.7715956e-07
-1.9218576e-08
5.7946402e-07
-2.3311254e-08
5.8266002e-07
-2.8500568e-08
5.8735189e-07
-3.6345412e-08
5.9673619e-07
-4.8013097e-08
6.1872916e-07
-4.2916389e-08
6.1212876e-07
3.5619983e-07
4.0156271e-08
2.666288e-07
5.8603257e-08
5.9609724e-07
4.7911074e-08
6.4696021e-07
3.719966e-08
6.1647061e-07
3.0551659e-08
5.9881078e-07
2.5525133e-08
5.9098599e-07
2.1424821e-08
5.8595239e-07
1.8054972e-08
5.8227747e-07
1.5262021e-08
5.7957581e-07
1.2923394e-08
5.7756481e-07
1.0942697e-08
5.7604748e-07
9.2442447e-09
5.7489097e-07
7.7685649e-09
5.7400273e-07
6.4684764e-09
5.733176e-07
5.3061227e-09
5.727893e-07
4.2506974e-09
5.7238469e-07
3.2766575e-09
5.7208001e-07
2.3623169e-09
5.718584e-07
1.4887218e-09
5.7170818e-07
6.3872334e-10
5.7162176e-07
-2.0382015e-10
5.7159497e-07
-1.0547678e-09
5.7162663e-07
-1.930406e-09
5.7171854e-07
-2.8481861e-09
5.7187559e-07
-3.8275399e-09
5.7210618e-07
-4.8908367e-09
5.7242303e-07
-6.0645481e-09
5.7284439e-07
-7.3806971e-09
5.7339589e-07
-8.8786734e-09
5.7411333e-07
-1.060756e-08
5.7504693e-07
-1.262919e-08
5.7626759e-07
-1.50216e-08
5.7787619e-07
-1.7883129e-08
5.8002109e-07
-2.1339342e-08
5.8292024e-07
-2.5548032e-08
5.8686871e-07
-3.0913111e-08
5.9271697e-07
-3.9045276e-08
6.0486835e-07
-4.8574913e-08
6.282588e-07
-3.8239602e-08
6.0179345e-07
3.1796023e-07
3.2662644e-08
2.3397415e-07
5.4769944e-08
5.7399706e-07
4.8684635e-08
6.5304555e-07
3.855484e-08
6.2659927e-07
3.1947479e-08
6.0541794e-07
2.704959e-08
5.9588391e-07
2.2988565e-08
5.9001343e-07
1.9577076e-08
5.8568896e-07
1.6697349e-08
5.8245554e-07
1.4246492e-08
5.8001566e-07
1.2140186e-08
5.7815379e-07
1.0310727e-08
5.7672043e-07
8.703493e-09
5.7560997e-07
7.2739767e-09
5.7474712e-07
5.985592e-09
5.7407768e-07
4.8079074e-09
5.7356237e-07
3.7151944e-09
5.7317273e-07
2.685243e-09
5.7288836e-07
1.6983765e-09
5.7269505e-07
7.3661281e-10
5.7258353e-07
-2.1707656e-10
5.7254866e-07
-1.179449e-09
5.72589e-07
-2.1676656e-09
5.7270676e-07
-3.1999849e-09
5.7290791e-07
-4.296516e-09
5.7320272e-07
-5.4800789e-09
5.736066e-07
-6.7772159e-09
5.7414153e-07
-8.219411e-09
5.7483808e-07
-9.8445597e-09
5.7573848e-07
-1.1698767e-08
5.7690113e-07
-1.3838761e-08
5.7840758e-07
-1.6334823e-08
5.8037226e-07
-1.927288e-08
5.8295915e-07
-2.275544e-08
5.864028e-07
-2.6925339e-08
5.9103861e-07
-3.2288822e-08
5.9808045e-07
-4.0210633e-08
6.1279017e-07
-4.693127e-08
6.3497944e-07
-3.2977525e-08
5.8783971e-07
2.8498271e-07
2.5969787e-08
2.0801485e-07
4.9560036e-08
5.5041795e-07
4.7800785e-08
6.5480616e-07
3.8844718e-08
6.3555372e-07
3.247106e-08
6.1179113e-07
2.7828135e-08
6.0052686e-07
2.3934836e-08
5.9390675e-07
2.0592011e-08
5.8903179e-07
1.7717313e-08
5.8533024e-07
1.5230638e-08
5.8250234e-07
1.3062239e-08
5.8032219e-07
1.1154427e-08
5.7862825e-07
9.4592631e-09
5.7730513e-07
7.9366105e-09
5.7626977e-07
6.5526656e-09
5.7546163e-07
5.278672e-09
5.7483637e-07
4.0898227e-09
5.7436158e-07
2.9643264e-09
5.7401385e-07
1.8826005e-09
5.7377678e-07
8.2655818e-10
5.7363957e-07
-2.2103773e-10
5.7359625e-07
-1.2771801e-09
5.7364515e-07
-2.3592204e-09
5.737888e-07
-3.4854834e-09
5.7403418e-07
-4.6759228e-09
5.7439316e-07
-5.9528509e-09
5.7488353e-07
-7.3417678e-09
5.7553044e-07
-8.8723297e-09
5.7636865e-07
-1.057948e-08
5.7744563e-07
-1.2504743e-08
5.788264e-07
-1.4697902e-08
5.8060074e-07
-1.7219155e-08
5.8289351e-07
-2.0139218e-08
5.8587921e-07
-2.3535342e-08
5.8979892e-07
-2.7542723e-08
5.95046e-07
-3.2746764e-08
6.0328449e-07
-4.0044556e-08
6.2008796e-07
-4.3870296e-08
6.3880518e-07
-2.77474e-08
5.7171681e-07
2.5723531e-07
2.0332716e-08
1.8769556e-07
4.3913472e-08
5.2685341e-07
4.5788159e-08
6.5293507e-07
3.8343604e-08
6.4299627e-07
3.2334127e-08
6.1779974e-07
2.8002557e-08
6.0485841e-07
2.4357602e-08
5.9755174e-07
2.1164216e-08
5.9222518e-07
1.836565e-08
5.881288e-07
1.590471e-08
5.8496328e-07
1.3727198e-08
5.824997e-07
1.1786373e-08
5.8056907e-07
1.0041995e-08
5.7904951e-07
8.4593451e-09
5.7785242e-07
7.0083929e-09
5.7691258e-07
5.6629686e-09
5.7618179e-07
4.4000125e-09
5.7562454e-07
3.1988962e-09
5.7521497e-07
2.0408052e-09
5.7493487e-07
9.0817095e-10
5.7477221e-07
-2.1586023e-10
5.7472029e-07
-1.3479336e-09
5.7477722e-07
-2.5049944e-09
5.7494586e-07
-3.7048017e-09
5.7523399e-07
-4.9664674e-09
5.7565482e-07
-6.3110384e-09
5.762281e-07
-7.7621331e-09
5.7698154e-07
-9.3466499e-09
5.7795317e-07
-1.1095561e-08
5.7919455e-07
-1.3044737e-08
5.8077558e-07
-1.5235888e-08
5.8279189e-07
-1.7717817e-08
5.8537544e-07
-2.0545093e-08
5.8870649e-07
-2.3773964e-08
5.9302779e-07
-2.7547152e-08
5.9881919e-07
-3.2484977e-08
6.0822232e-07
-3.8880458e-08
6.2648344e-07
-4.0050328e-08
6.3997505e-07
-2.2902182e-08
5.5456867e-07
2.3433313e-07
1.5757606e-08
1.71955e-07
3.8371167e-08
5.0426236e-07
4.3084199e-08
6.4822894e-07
3.72912e-08
6.487871e-07
3.1737917e-08
6.2335159e-07
2.7726705e-08
6.088695e-07
2.4364425e-08
6.0091407e-07
2.1368757e-08
5.9522086e-07
1.8694922e-08
5.9080264e-07
1.630542e-08
5.8735278e-07
1.4160471e-08
5.8464465e-07
1.222388e-08
5.8250566e-07
1.0463259e-08
5.8081014e-07
8.8497222e-09
5.7946596e-07
7.3575355e-09
5.7840477e-07
5.9636745e-09
5.7757566e-07
4.6473862e-09
5.7694082e-07
3.3897471e-09
5.7647261e-07
2.1732296e-09
5.7615139e-07
9.812816e-10
5.7596416e-07
-2.0208152e-10
5.7590365e-07
-1.3926752e-09
5.7596782e-07
-2.6065488e-09
5.7615974e-07
-3.8603893e-09
5.7648783e-07
-5.1719358e-09
5.7696637e-07
-6.560412e-09
5.7761658e-07
-8.0469743e-09
5.784681e-07
-9.6551764e-09
5.7956137e-07
-1.1411456e-08
5.8095083e-07
-1.334559e-08
5.8270971e-07
-1.5491092e-08
5.849374e-07
-1.7885686e-08
5.8777004e-07
-2.0569183e-08
5.9138999e-07
-2.3584093e-08
5.960427e-07
-2.7091234e-08
6.0232633e-07
-3.1685816e-08
6.128169e-07
-3.7013064e-08
6.3181069e-07
-3.5913185e-08
6.3887517e-07
-1.8609926e-08
5.3726541e-07
2.157232e-07
1.2144902e-08
1.5983184e-07
3.3230426e-08
4.8320705e-07
4.0016666e-08
6.4145419e-07
3.5863595e-08
6.5293821e-07
3.0833662e-08
6.283794e-07
2.713298e-08
6.1256987e-07
2.40573e-08
6.0398982e-07
2.1281621e-08
5.9799656e-07
1.8761235e-08
5.9332303e-07
1.6473848e-08
5.8964017e-07
1.4391901e-08
5.867266e-07
1.2488465e-08
5.844091e-07
1.0738429e-08
5.8256017e-07
9.1186014e-09
5.8108579e-07
7.6076402e-09
5.7991574e-07
6.1859062e-09
5.7899739e-07
4.8352665e-09
5.7829147e-07
3.5388509e-09
5.7776903e-07
2.2807824e-09
5.7740946e-07
1.0458945e-09
5.7719905e-07
-1.8055778e-10
5.771301e-07
-1.413188e-09
5.7720045e-07
-2.6667753e-09
5.7741333e-07
-3.9565585e-09
5.7777761e-07
-5.2985296e-09
5.7830834e-07
-6.7097253e-09
5.7902777e-07
-8.2085099e-09
5.7996689e-07
-9.8148343e-09
5.8116769e-07
-1.155048e-08
5.8268647e-07
-1.3439262e-08
5.845985e-07
-1.55071e-08
5.8700524e-07
-1.7781843e-08
5.9004478e-07
-2.0290833e-08
5.9389898e-07
-2.3069522e-08
5.988214e-07
-2.6298641e-08
6.0555545e-07
-3.0490228e-08
6.1700849e-07
-3.4683686e-08
6.3600415e-07
-3.1758489e-08
6.3594998e-07
-1.4930575e-08
5.2043749e-07
2.0079263e-07
9.3557711e-09
1.5050437e-07
2.8641798e-08
4.6396074e-07
3.6830273e-08
6.3328331e-07
3.4196743e-08
6.5557052e-07
2.9729646e-08
6.3284356e-07
2.6323354e-08
6.1597555e-07
2.3521162e-08
6.0679208e-07
2.0970404e-08
6.0054736e-07
1.8617579e-08
5.9567586e-07
1.6450863e-08
5.9180689e-07
1.4452582e-08
5.8872488e-07
1.2603542e-08
5.8625814e-07
1.0884977e-08
5.8427874e-07
9.2788758e-09
5.8269189e-07
7.7680796e-09
5.8142653e-07
6.3363177e-09
5.8042915e-07
4.968181e-09
5.796596e-07
3.6490302e-09
5.7908818e-07
2.3648595e-09
5.7869363e-07
1.1021333e-09
5.7846177e-07
-1.5239589e-10
5.7838463e-07
-1.4118766e-09
5.7845993e-07
-2.6895574e-09
5.7869101e-07
-3.9989783e-09
5.7908703e-07
-5.3541549e-09
5.7966352e-07
-6.7697491e-09
5.8044337e-07
-8.2612149e-09
5.8145836e-07
-9.8449034e-09
5.8275138e-07
-1.1538129e-08
5.843797e-07
-1.3359208e-08
5.8641958e-07
-1.5327336e-08
5.8897337e-07
-1.7461896e-08
5.9217934e-07
-1.9780299e-08
5.9621738e-07
-2.2316394e-08
6.0135749e-07
-2.5266157e-08
6.0850521e-07
-2.9014835e-08
6.2075717e-07
-3.209514e-08
6.3908445e-07
-2.7789257e-08
6.316441e-07
-1.1857869e-08
5.0450611e-07
1.8893476e-07
7.2414771e-09
1.4330117e-07
2.465142e-08
4.4660239e-07
3.3693893e-08
6.2426628e-07
3.239821e-08
6.5686646e-07
2.8506035e-08
6.3673192e-07
2.5375435e-08
6.1910511e-07
2.2824125e-08
6.0934342e-07
2.0491851e-08
6.0287969e-07
1.831053e-08
5.9785718e-07
1.6274051e-08
5.9384337e-07
1.4372354e-08
5.9062658e-07
1.2592485e-08
5.8803801e-07
1.0920981e-08
5.8595024e-07
9.3443413e-09
5.8426853e-07
7.8492011e-09
5.8292167e-07
6.4224701e-09
5.8185589e-07
5.0514124e-09
5.8103066e-07
3.7236591e-09
5.8041593e-07
2.4271752e-09
5.7999011e-07
1.1501912e-09
5.7973876e-07
-1.1888724e-10
5.7965371e-07
-1.3915813e-09
5.7973262e-07
-2.6794523e-09
5.7997888e-07
-3.9942022e-09
5.8040179e-07
-5.3477654e-09
5.8101709e-07
-6.7523804e-09
5.8184798e-07
-8.2206298e-09
5.8292661e-07
-9.7654351e-09
5.8429619e-07
-1.1400004e-08
5.8601427e-07
-1.313776e-08
5.8815733e-07
-1.4992113e-08
5.9082772e-07
-1.6975435e-08
5.9416267e-07
-1.9097967e-08
5.9833991e-07
-2.139616e-08
6.0365569e-07
-2.4072578e-08
6.1118163e-07
-2.7359534e-08
6.2404413e-07
-2.9407673e-08
6.4113259e-07
-2.412567e-08
6.2636209e-07
-9.3436413e-09
4.8972408e-07
1.7959112e-07
5.661612e-09
1.3769332e-07
2.1236111e-08
4.3109474e-07
3.0707198e-08
6.1483062e-07
3.0546109e-08
6.5703018e-07
2.7220273e-08
6.4005306e-07
2.4347159e-08
6.219766e-07
2.2020128e-08
6.1167042e-07
1.9892736e-08
6.0500716e-07
1.7879825e-08
5.9987011e-07
1.5976629e-08
5.9574656e-07
1.4178529e-08
5.9242468e-07
1.247741e-08
5.8973913e-07
1.0864083e-08
5.8756357e-07
9.3288447e-09
5.8580377e-07
7.8616561e-09
5.8438886e-07
6.4523231e-09
5.8326522e-07
5.0906293e-09
5.8239236e-07
3.7664175e-09
5.8174015e-07
2.4696273e-09
5.8128691e-07
1.1903004e-09
5.8101809e-07
-8.1437774e-11
5.8092545e-07
-1.3554022e-09
5.8100659e-07
-2.6414022e-09
5.8126488e-07
-3.9492535e-09
5.8170964e-07
-5.2888018e-09
5.8235664e-07
-6.6699158e-09
5.832291e-07
-8.1024496e-09
5.8435914e-07
-9.5961641e-09
5.8578991e-07
-1.1160603e-08
5.8757871e-07
-1.2804968e-08
5.898017e-07
-1.4537836e-08
5.9256059e-07
-1.6366035e-08
5.9599087e-07
-1.8295372e-08
6.0026925e-07
-2.0367489e-08
6.0572781e-07
-2.2780729e-08
6.1359487e-07
-2.5604427e-08
6.2686783e-07
-2.6734537e-08
6.4226271e-07
-2.0821038e-08
6.204486e-07
-7.3178308e-09
4.7622088e-07
1.722733e-07
4.4933581e-09
1.3327595e-07
1.8335957e-08
4.1733901e-07
2.791626e-08
6.0529838e-07
2.869058e-08
6.5626199e-07
2.5909541e-08
6.4282861e-07
2.3278923e-08
6.2460485e-07
2.1150234e-08
6.1379895e-07
1.9210676e-08
6.0694681e-07
1.735866e-08
6.0172215e-07
1.5587282e-08
5.9751794e-07
1.3895423e-08
5.9411654e-07
1.227857e-08
5.9135599e-07
1.0730868e-08
5.8911128e-07
9.2457174e-09
5.8728893e-07
7.8159215e-09
5.8581866e-07
6.4338529e-09
5.8464729e-07
5.0916035e-09
5.8373461e-07
3.7811019e-09
5.8305065e-07
2.4941981e-09
5.8257381e-07
1.2227204e-09
5.8228957e-07
-4.1493439e-11
5.8218967e-07
-1.3065369e-09
5.8227164e-07
-2.5804802e-09
5.8253883e-07
-3.871274e-09
5.8300043e-07
-5.1867402e-09
5.836721e-07
-6.5345022e-09
5.8457686e-07
-7.9218935e-09
5.8574654e-07
-9.3558358e-09
5.8722385e-07
-1.0842685e-08
5.8906556e-07
-1.2388089e-08
5.9134711e-07
-1.3996699e-08
5.941692e-07
-1.5671156e-08
5.9766533e-07
-1.7415178e-08
6.0201328e-07
-1.9276369e-08
6.07589e-07
-2.1437699e-08
6.157562e-07
-2.3808769e-08
6.292389e-07
-2.4147593e-08
6.4260153e-07
-1.7883197e-08
6.141842e-07
-5.7030472e-09
4.6404073e-07
1.6657025e-07
3.6335705e-09
1.2974638e-07
1.5877108e-08
4.0520865e-07
2.5333055e-08
5.9590647e-07
2.6860433e-08
6.5474566e-07
2.4595282e-08
6.4508762e-07
2.219656e-08
6.270003e-07
2.0244032e-08
6.1575112e-07
1.8474815e-08
6.0871614e-07
1.6774003e-08
6.03423e-07
1.5130199e-08
5.9916175e-07
1.354419e-08
5.9570255e-07
1.2014063e-08
5.9288612e-07
1.0536505e-08
5.9058884e-07
9.1074084e-09
5.8871802e-07
7.7219598e-09
5.8720411e-07
6.3747634e-09
5.8599449e-07
5.0599819e-09
5.8504939e-07
3.7714657e-09
5.8433917e-07
2.502864e-09
5.8384241e-07
1.247719e-09
5.8354471e-07
-4.5321256e-13
5.8343784e-07
-1.2481562e-09
5.8351934e-07
-2.5016968e-09
5.8379237e-07
-3.7672599e-09
5.84266e-07
-5.0507622e-09
5.8495561e-07
-6.3577513e-09
5.8588385e-07
-7.6932829e-09
5.8708207e-07
-9.0617776e-09
5.8859235e-07
-1.0466865e-08
5.9047065e-07
-1.1911251e-08
5.9279149e-07
-1.3396442e-08
5.956544e-07
-1.492204e-08
5.9919093e-07
-1.6491396e-08
6.0358263e-07
-1.8157275e-08
6.0925488e-07
-2.0077296e-08
6.1767623e-07
-2.2014335e-08
6.3117594e-07
-2.1687744e-08
6.4227494e-07
-1.5293078e-08
6.0778954e-07
-4.4233535e-09
4.5317101e-07
1.621469e-07
2.9979676e-09
1.2688336e-07
1.3784385e-08
3.9456936e-07
2.2949466e-08
5.8682562e-07
2.5070018e-08
6.5264277e-07
2.3288463e-08
6.4686266e-07
2.1115386e-08
6.2916905e-07
1.9321949e-08
6.1754391e-07
1.7707051e-08
6.1033116e-07
1.6147215e-08
6.0498288e-07
1.4625308e-08
6.0068366e-07
1.3142818e-08
5.9718504e-07
1.1699677e-08
5.9432926e-07
1.0294514e-08
5.91994e-07
8.925214e-09
5.9008733e-07
7.5889449e-09
5.8854038e-07
6.282231e-09
5.8730121e-07
5.0010663e-09
5.8633056e-07
3.7410412e-09
5.855992e-07
2.4974646e-09
5.8508599e-07
1.2654749e-09
5.847767e-07
4.0147017e-11
5.8466317e-07
-1.183394e-09
5.8474288e-07
-2.4099148e-09
5.8501889e-07
-3.6439241e-09
5.8550001e-07
-4.8895735e-09
5.8620126e-07
-6.150527e-09
5.8714481e-07
-7.4298148e-09
5.8836136e-07
-8.729683e-09
5.8989222e-07
-1.0051448e-08
5.9179242e-07
-1.1395388e-08
5.9413543e-07
-1.2760493e-08
5.970195e-07
-1.414421e-08
6.0057464e-07
-1.5550607e-08
6.0498903e-07
-1.7035657e-08
6.1073993e-07
-1.8723724e-08
6.1936429e-07
-2.0250185e-08
6.327024e-07
-1.9375236e-08
6.414e-07
-1.3017999e-08
6.014323e-07
-3.4096422e-09
4.4356265e-07
1.5873726e-07
2.5197706e-09
1.2452926e-07
1.1988139e-08
3.8529064e-07
2.0747146e-08
5.7817619e-07
2.3324708e-08
6.5009158e-07
2.1993819e-08
6.4818704e-07
2.004389e-08
6.3111343e-07
1.8397798e-08
6.1918896e-07
1.6923632e-08
6.1180542e-07
1.5494995e-08
6.0641159e-07
1.4088772e-08
6.020899e-07
1.2706315e-08
5.985675e-07
1.1348892e-08
5.9568668e-07
1.0016654e-08
5.9332624e-07
8.7090997e-09
5.9139488e-07
7.4250555e-09
5.8982443e-07
6.1626928e-09
5.8856357e-07
4.9196134e-09
5.8757364e-07
3.6929644e-09
5.8682585e-07
2.4795629e-09
5.862994e-07
1.2760204e-09
5.8598025e-07
7.8866296e-11
5.8586033e-07
-1.1153334e-09
5.8593709e-07
-2.3098538e-09
5.8621342e-07
-3.50768e-09
5.8669784e-07
-4.7113696e-09
5.8740495e-07
-5.9229049e-09
5.8835635e-07
-7.1435369e-09
5.8958199e-07
-8.3736344e-09
5.9112232e-07
-9.6125534e-09
5.9303134e-07
-1.0858546e-08
5.9538143e-07
-1.2108566e-08
5.9826952e-07
-1.3358544e-08
6.0182462e-07
-1.461373e-08
6.0624422e-07
-1.5930653e-08
6.1205685e-07
-1.7394953e-08
6.208286e-07
-1.8536921e-08
6.3384437e-07
-1.7217811e-08
6.4008089e-07
-1.1020928e-08
5.9523542e-07
-2.6030677e-09
4.3514479e-07
1.561342e-07
2.1480328e-09
1.2257556e-07
1.0428049e-08
3.7725192e-07
1.870457e-08
5.7004065e-07
2.1625373e-08
6.4720832e-07
2.0713117e-08
6.4909332e-07
1.8986704e-08
6.3283297e-07
1.748107e-08
6.2069305e-07
1.6136813e-08
6.1314974e-07
1.4830538e-08
6.0771795e-07
1.3533754e-08
6.033867e-07
1.2247193e-08
5.9985406e-07
1.0973153e-08
5.9696073e-07
9.7130562e-09
5.9458634e-07
8.4677531e-09
5.9264019e-07
7.2374782e-09
5.9105471e-07
6.0218252e-09
5.8977923e-07
4.819804e-09
5.8877566e-07
3.6299439e-09
5.8801571e-07
2.4504168e-09
5.8747893e-07
1.2791671e-09
5.871515e-07
1.1404461e-10
5.8702545e-07
-1.0470598e-09
5.8709819e-07
-2.2060798e-09
5.8737244e-07
-3.3646241e-09
5.8785638e-07
-4.5238276e-09
5.8856416e-07
-5.6841907e-09
5.8951671e-07
-6.8454166e-09
5.9074322e-07
-8.0062605e-09
5.9228316e-07
-9.1644089e-09
5.9418949e-07
-1.0316399e-08
5.9653342e-07
-1.1457483e-08
5.9941061e-07
-1.258249e-08
6.0294963e-07
-1.3697794e-08
6.0735953e-07
-1.4857506e-08
6.1321657e-07
-1.6105538e-08
6.2207663e-07
-1.6890449e-08
6.3462928e-07
-1.5217394e-08
6.3840783e-07
-9.2670361e-09
5.8928507e-07
-1.9568408e-09
4.278346e-07
1.5417735e-07
1.8455691e-09
1.2095037e-07
9.0549033e-09
3.7034459e-07
1.6802025e-08
5.6247272e-07
1.997221e-08
6.4408971e-07
1.9447993e-08
6.4961279e-07
1.7947199e-08
6.3432551e-07
1.6579104e-08
6.2205899e-07
1.5356574e-08
6.1437227e-07
1.4164899e-08
6.0890974e-07
1.2971482e-08
6.0458013e-07
1.1776294e-08
6.0104925e-07
1.0582531e-08
5.9815449e-07
9.3927618e-09
5.9577611e-07
8.2090295e-09
5.9382392e-07
7.0327949e-09
5.9223094e-07
5.8648918e-09
5.9094713e-07
4.7055656e-09
5.8993499e-07
3.5545672e-09
5.8916671e-07
2.4112742e-09
5.8862222e-07
1.2748239e-09
5.8828795e-07
1.4425287e-10
5.8815603e-07
-9.8136054e-10
5.8822381e-07
-2.1027495e-09
5.8849383e-07
-3.2203028e-09
5.8897394e-07
-4.3339042e-09
5.8967776e-07
-5.4427656e-09
5.9062558e-07
-6.5452575e-09
5.9184572e-07
-7.6387559e-09
5.9337666e-07
-8.7195209e-09
5.9527026e-07
-9.7826108e-09
5.9759651e-07
-1.0821809e-08
6.0044981e-07
-1.1831065e-08
6.0395889e-07
-1.2817399e-08
6.0834586e-07
-1.3829552e-08
6.1422872e-07
-1.4868961e-08
6.2311604e-07
-1.5325168e-08
6.3508549e-07
-1.3375188e-08
6.3645786e-07
-7.7280429e-09
5.8363792e-07
-1.4365272e-09
4.2154309e-07
1.5274082e-07
1.5867304e-09
1.196075e-07
7.831172e-09
3.6447097e-07
1.5024905e-08
5.5550361e-07
1.8367864e-08
6.4081557e-07
1.8202504e-08
6.4977554e-07
1.6929904e-08
6.3558851e-07
1.5699193e-08
6.2328684e-07
1.4592345e-08
6.15479e-07
1.3508419e-08
6.0999378e-07
1.2412462e-08
6.0567612e-07
1.1303822e-08
6.021579e-07
1.0186609e-08
5.9927171e-07
9.0645093e-09
5.9689821e-07
7.9406688e-09
5.9494776e-07
6.8176466e-09
5.9335397e-07
5.6973717e-09
5.9206741e-07
4.5811762e-09
5.9105119e-07
3.4698876e-09
5.90278e-07
2.3639501e-09
5.8972816e-07
1.2635591e-09
5.8938835e-07
1.6880513e-10
5.8925078e-07
-9.201807e-10
5.893128e-07
-2.0030727e-09
5.8957672e-07
-3.0791919e-09
5.9005006e-07
-4.1473392e-09
5.9074591e-07
-5.205623e-09
5.9168386e-07
-6.2512841e-09
5.9289138e-07
-7.2805336e-09
5.9440592e-07
-8.288421e-09
5.9627815e-07
-9.268723e-09
5.9857682e-07
-1.021393e-08
6.0139502e-07
-1.1117198e-08
6.0486216e-07
-1.1985463e-08
6.0921413e-07
-1.2859399e-08
6.1510266e-07
-1.3699087e-08
6.2395573e-07
-1.3855989e-08
6.352424e-07
-1.1694674e-08
6.3429654e-07
-6.3843254e-09
5.7832758e-07
-1.0187702e-09
4.1617753e-07
1.5172204e-07
1.3552848e-09
1.1851673e-07
6.730891e-09
3.5954121e-07
1.3365563e-08
5.4914606e-07
1.6819516e-08
6.3745112e-07
1.6984942e-08
6.4961072e-07
1.5942273e-08
6.3662036e-07
1.4850104e-08
6.2437535e-07
1.3854186e-08
6.1647464e-07
1.2871637e-08
6.1097646e-07
1.1867185e-08
6.0668061e-07
1.0839924e-08
6.0318516e-07
9.7949656e-09
6.0031667e-07
8.7371425e-09
5.9795604e-07
7.6706534e-09
5.9601426e-07
6.5990602e-09
5.9442556e-07
5.5252676e-09
5.931412e-07
4.4515657e-09
5.921249e-07
3.3797288e-09
5.9134984e-07
2.3111399e-09
5.9079675e-07
1.2469277e-09
5.9045256e-07
1.8811123e-10
5.903096e-07
-8.6425267e-10
5.9036516e-07
-1.9089145e-09
5.9062139e-07
-2.9442722e-09
5.9108542e-07
-3.9682028e-09
5.9176984e-07
-4.9778874e-09
5.9269355e-07
-5.9696299e-09
5.9388312e-07
-6.9386841e-09
5.9537497e-07
-7.8790995e-09
5.9721857e-07
-8.7835713e-09
5.9948129e-07
-9.6434719e-09
6.0225492e-07
-1.0451217e-08
6.0566991e-07
-1.1212848e-08
6.0997576e-07
-1.1958706e-08
6.1584852e-07
-1.2610008e-08
6.2460703e-07
-1.2498521e-08
6.3513091e-07
-1.0182168e-08
6.3198019e-07
-5.2246041e-09
5.7337002e-07
-6.8955044e-10
4.1164248e-07
1.5103249e-07
1.1424436e-09
1.176559e-07
5.7390162e-09
3.5546884e-07
1.1823816e-08
5.4339704e-07
1.5339504e-08
6.3404905e-07
1.5808113e-08
6.4914716e-07
1.4994827e-08
6.3742181e-07
1.4041984e-08
6.2532367e-07
1.3152419e-08
6.1736374e-07
1.2264729e-08
6.1186428e-07
1.1345459e-08
6.0759993e-07
1.0393933e-08
6.0413669e-07
9.4163718e-09
6.0129423e-07
8.418774e-09
5.9895364e-07
7.4063517e-09
5.9702668e-07
6.3835853e-09
5.9544833e-07
5.3542483e-09
5.9417055e-07
4.3214748e-09
5.9315767e-07
3.2878703e-09
5.9238345e-07
2.2556424e-09
5.9182898e-07
1.2267406e-09
5.9148147e-07
2.029998e-10
5.9133335e-07
-8.1371247e-10
5.9138188e-07
-1.8213441e-09
5.9162903e-07
-2.8175008e-09
5.9208158e-07
-3.7992805e-09
5.9275163e-07
-4.7630986e-09
5.9365737e-07
-5.7045048e-09
5.9482453e-07
-6.6179984e-09
5.9628847e-07
-7.4968503e-09
5.9809742e-07
-8.3329094e-09
6.0031736e-07
-9.116666e-09
6.0303868e-07
-9.8399028e-09
6.0639315e-07
-1.050709e-08
6.1064295e-07
-1.1136594e-08
6.1647803e-07
-1.1614209e-08
6.2508465e-07
-1.126742e-08
6.3478413e-07
-8.8454328e-09
6.2955821e-07
-4.2438675e-09
5.6876846e-07
-4.400415e-10
4.0783865e-07
1.5059244e-07
9.4502685e-10
1.1700499e-07
4.8502265e-09
3.5216563e-07
1.0406312e-08
5.382398e-07
1.3944269e-08
6.3065184e-07
1.4687563e-08
6.4841448e-07
1.4099071e-08
6.3799757e-07
1.3284149e-08
6.2613311e-07
1.2495344e-08
6.1815181e-07
1.1695222e-08
6.1266452e-07
1.0854141e-08
6.0844107e-07
9.9721269e-09
6.0501872e-07
9.056549e-09
6.0220981e-07
8.1145446e-09
5.9989565e-07
7.1522745e-09
5.9798896e-07
6.1750472e-09
5.9642556e-07
5.1874038e-09
5.9515819e-07
4.1932189e-09
5.9415186e-07
3.1958275e-09
5.9338084e-07
2.1981628e-09
5.9282665e-07
1.2028978e-09
5.9247674e-07
2.1258771e-10
5.9232366e-07
-7.7018696e-10
5.9236466e-07
-1.7426732e-09
5.9260151e-07
-2.7017936e-09
5.9304071e-07
-3.6439875e-09
5.9369383e-07
-4.565042e-09
5.9457843e-07
-5.4599119e-09
5.9571941e-07
-6.322531e-09
5.9715109e-07
-7.1456145e-09
5.9892051e-07
-7.920437e-09
6.0109218e-07
-8.636925e-09
6.0375517e-07
-9.2864648e-09
6.0704269e-07
-9.8715994e-09
6.1122809e-07
-1.0397989e-08
6.1700443e-07
-1.0720289e-08
6.2540696e-07
-1.017412e-08
6.3423796e-07
-7.6913916e-09
6.2707549e-07
-3.4400093e-09
5.6451708e-07
-2.6323993e-10
4.0466189e-07
1.503292e-07
7.6404362e-10
1.1654201e-07
4.0672949e-09
3.4953637e-07
9.1253034e-09
5.3364543e-07
1.2652351e-08
6.2729489e-07
1.3638546e-08
6.474454e-07
1.3264125e-08
6.3835846e-07
1.2581883e-08
6.2680879e-07
1.1886358e-08
6.1884629e-07
1.1165399e-08
6.1338557e-07
1.0394752e-08
6.0921179e-07
9.5754585e-09
6.0583802e-07
8.7159546e-09
6.0306932e-07
7.8244083e-09
6.0078719e-07
6.9078281e-09
5.9890554e-07
5.9722501e-09
5.9736114e-07
5.0228869e-09
5.9610756e-07
4.0642625e-09
5.9511049e-07
3.1003554e-09
5.9434475e-07
2.1347426e-09
5.9379227e-07
1.1707423e-09
5.9344074e-07
2.1155299e-10
5.9328285e-07
-7.396075e-10
5.9331582e-07
-1.6793619e-09
5.9354127e-07
-2.6040294e-09
5.9396538e-07
-3.5094766e-09
5.9459927e-07
-4.3909586e-09
5.9545991e-07
-5.2429505e-09
5.965714e-07
-6.0589649e-09
5.9796711e-07
-6.8313513e-09
5.996929e-07
-7.551072e-09
6.018119e-07
-8.2078501e-09
6.0441195e-07
-8.7930351e-09
6.0762788e-07
-9.3073388e-09
6.117424e-07
-9.7442269e-09
6.1744132e-07
-9.9325967e-09
6.2559533e-07
-9.225893e-09
6.3353126e-07
-6.7242919e-09
6.2457389e-07
-2.8099927e-09
5.6060278e-07
-1.522591e-10
4.0200415e-07
1.5017694e-07
6.0394782e-10
1.1624018e-07
3.3990351e-09
3.4747497e-07
7.9975285e-09
5.2957353e-07
1.1483115e-08
6.2400983e-07
1.2674239e-08
6.462787e-07
1.2495034e-08
6.3852348e-07
1.193541e-08
6.273607e-07
1.132364e-08
6.1945665e-07
1.0672515e-08
6.1403676e-07
9.9640046e-09
6.0992038e-07
9.2002205e-09
6.0660182e-07
8.3904562e-09
6.0387908e-07
7.5437365e-09
6.0163391e-07
6.6677943e-09
5.9978148e-07
5.7692969e-09
5.9825964e-07
4.8540476e-09
5.9702281e-07
3.9271487e-09
5.9603739e-07
2.9931567e-09
5.9527874e-07
2.0562306e-09
5.9472919e-07
1.1202742e-09
5.9437669e-07
1.8907275e-10
5.9421405e-07
-7.3357212e-10
5.9423846e-07
-1.643709e-09
5.9445141e-07
-2.5370999e-09
5.9485877e-07
-3.4090818e-09
5.9547126e-07
-4.2544205e-09
5.9630525e-07
-5.0671584e-09
5.9738414e-07
-5.8404503e-09
5.987404e-07
-6.5663792e-09
6.0041883e-07
-7.2357653e-09
6.0248129e-07
-7.8384197e-09
6.0501461e-07
-8.3660396e-09
6.081555e-07
-8.8180338e-09
6.1219439e-07
-9.1776172e-09
6.178009e-07
-9.2546701e-09
6.2567238e-07
-8.4276714e-09
6.3270427e-07
-5.9450307e-09
6.2209125e-07
-2.3459172e-09
5.5700367e-07
-9.7991441e-11
3.9975623e-07
1.5007894e-07
4.7181188e-10
1.1606624e-07
2.8573571e-09
3.4586398e-07
7.0431682e-09
5.2597142e-07
1.0457698e-08
6.2082601e-07
1.1808063e-08
6.4496095e-07
1.1796299e-08
6.3852092e-07
1.1344538e-08
6.2780374e-07
1.0805617e-08
6.1999379e-07
1.0214726e-08
6.1462767e-07
9.5599029e-09
6.1057528e-07
8.8441266e-09
6.0731761e-07
8.0772749e-09