/*--------------------------------*- C++ -*----------------------------------*\
  =========                 |
  \\      /  F ield         | OpenFOAM: The Open Source CFD Toolbox
   \\    /   O peration     | Website:  https://openfoam.org
    \\  /    A nd           | Version:  10
     \\/     M anipulation  |
\*---------------------------------------------------------------------------*/
FoamFile
{
    format      ascii;
    class       surfaceScalarField;
    location    "0.07";
    object      phi_0;
}
// * * * * * * * * * * * * * * * * * * * * * * * * * * * * * * * * * * * * * //

dimensions      [1 0 -1 0 0 0 0];

internalField   nonuniform List<scalar> 
7860
(
3.986648e-08
5.2884164e-07
1.2170492e-08
5.964037e-07
7.4053172e-09
5.7347292e-07
5.4738641e-09
5.7063916e-07
4.0887268e-09
5.7009281e-07
3.1750441e-09
5.6962133e-07
2.5336612e-09
5.6934901e-07
2.0548612e-09
5.6918642e-07
1.6862525e-09
5.6907621e-07
1.3952485e-09
5.689986e-07
1.1600085e-09
5.6894283e-07
9.6573311e-10
5.6890186e-07
8.0204744e-10
5.6887126e-07
6.6143479e-10
5.6884818e-07
5.3829929e-10
5.688307e-07
4.2836084e-10
5.688175e-07
3.2824875e-10
5.6880768e-07
2.3522083e-10
5.6880059e-07
1.4696049e-10
5.6879582e-07
6.142347e-11
5.687931e-07
-2.3285478e-11
5.6879227e-07
-1.0902008e-10
5.6879329e-07
-1.9770174e-10
5.6879624e-07
-2.9142387e-10
5.6880128e-07
-3.9258548e-10
5.6880872e-07
-5.0405555e-10
5.6881903e-07
-6.2939481e-10
5.6883291e-07
-7.7316994e-10
5.6885135e-07
-9.4141587e-10
5.6887582e-07
-1.1423449e-09
5.6890851e-07
-1.3875216e-09
5.6895276e-07
-1.6938392e-09
5.6901391e-07
-2.0863898e-09
5.6910015e-07
-2.6051877e-09
5.6922641e-07
-3.3327522e-09
5.694352e-07
-4.4252403e-09
5.6980014e-07
-5.9749269e-09
5.7025736e-07
-9.4764165e-09
5.722092e-07
-2.9535979e-08
5.8876731e-07
5.3917194e-07
5.9602403e-08
4.692398e-07
3.6584284e-08
6.194216e-07
2.2550678e-08
5.8750644e-07
1.6172388e-08
5.7701745e-07
1.2207705e-08
5.7405749e-07
9.523973e-09
5.7230507e-07
7.5972329e-09
5.7127576e-07
6.1592267e-09
5.7062442e-07
5.0541201e-09
5.7018132e-07
4.1816648e-09
5.6987106e-07
3.4763911e-09
5.696481e-07
2.8940167e-09
5.6948423e-07
2.4033997e-09
5.6936188e-07
1.9819837e-09
5.692696e-07
1.6129849e-09
5.691997e-07
1.2835666e-09
5.6914692e-07
9.8362028e-10
5.6910762e-07
7.0492262e-10
5.6907929e-07
4.4052743e-10
5.6906022e-07
1.8430521e-10
5.6904932e-07
-6.9427482e-11
5.69046e-07
-3.2623202e-10
5.690501e-07
-5.918618e-10
5.6906187e-07
-8.7259625e-10
5.6908202e-07
-1.1756297e-09
5.6911176e-07
-1.5095657e-09
5.6915297e-07
-1.8850829e-09
5.6920842e-07
-2.3158779e-09
5.6928214e-07
-2.8200589e-09
5.6938e-07
-3.4222747e-09
5.6951073e-07
-4.157141e-09
5.6968763e-07
-5.0752701e-09
5.6993204e-07
-6.2536158e-09
5.702785e-07
-7.8113519e-09
5.7078415e-07
-9.952201e-09
5.7157605e-07
-1.3083245e-08
5.7293118e-07
-1.8020262e-08
5.7519438e-07
-2.8062668e-08
5.822516e-07
-4.5702757e-08
6.064074e-07
4.9346919e-07
5.9901355e-08
4.0933984e-07
5.0334785e-08
6.289881e-07
3.3227397e-08
6.0461354e-07
2.4673432e-08
5.8557139e-07
1.9177015e-08
5.7955392e-07
1.5186658e-08
5.7629542e-07
1.2219887e-08
5.7424253e-07
9.9668628e-09
5.7287745e-07
8.2138364e-09
5.7193435e-07
6.8174108e-09
5.7126748e-07
5.681281e-09
5.7078423e-07
4.7384895e-09
5.7042703e-07
3.9411095e-09
5.7015926e-07
3.2540193e-09
5.6995669e-07
2.6508397e-09
5.6980288e-07
2.1112401e-09
5.6968652e-07
1.6191114e-09
5.6959975e-07
1.1612814e-09
5.6953712e-07
7.2657788e-10
5.6949492e-07
3.0511289e-10
5.6947079e-07
-1.1229877e-10
5.6946341e-07
-5.34648e-10
5.6947245e-07
-9.7122861e-10
5.6949845e-07
-1.4321616e-09
5.6954295e-07
-1.9290025e-09
5.696086e-07
-2.4755059e-09
5.6969948e-07
-3.0886437e-09
5.6982156e-07
-3.7900229e-09
5.6998352e-07
-4.607945e-09
5.7019793e-07
-5.5804805e-09
5.7048326e-07
-6.7601435e-09
5.7086729e-07
-8.2215431e-09
5.7139344e-07
-1.0074605e-08
5.7213156e-07
-1.2481925e-08
5.7319147e-07
-1.5677592e-08
5.7477171e-07
-2.0024928e-08
5.7727852e-07
-2.6499314e-08
5.8166877e-07
-3.8733743e-08
5.9448603e-07
-4.8004046e-08
6.1567771e-07
4.4546514e-07
5.4739059e-08
3.5460342e-07
5.7217982e-08
6.265098e-07
4.0242649e-08
6.2158829e-07
3.0560903e-08
5.9525302e-07
2.4424448e-08
5.8569038e-07
1.9736555e-08
5.8098332e-07
1.6103878e-08
5.778752e-07
1.3267079e-08
5.7571425e-07
1.1013533e-08
5.741879e-07
9.1911709e-09
5.7308985e-07
7.691792e-09
5.7228361e-07
6.4366386e-09
5.7168218e-07
5.3676385e-09
5.7122826e-07
4.4412897e-09
5.7088304e-07
3.6243378e-09
5.7061984e-07
2.8907921e-09
5.7042007e-07
2.2198223e-09
5.7027072e-07
1.5942364e-09
5.7016271e-07
9.9934514e-10
5.7008981e-07
4.220769e-10
5.7004805e-07
-1.4974979e-10
5.7003524e-07
-7.280712e-10
5.7005077e-07
-1.3252044e-09
5.7009559e-07
-1.954508e-09
5.7017226e-07
-2.6311391e-09
5.7028523e-07
-3.3729884e-09
5.7044133e-07
-4.2018965e-09
5.7065047e-07
-5.145297e-09
5.7092692e-07
-6.2385091e-09
5.7129114e-07
-7.528014e-09
5.7177277e-07
-9.0760423e-09
5.7241532e-07
-1.0966979e-08
5.7328438e-07
-1.3317788e-08
5.7448237e-07
-1.6290776e-08
5.7616446e-07
-2.0085201e-08
5.7856614e-07
-2.4968837e-08
5.8216216e-07
-3.219132e-08
5.8889125e-07
-4.476521e-08
6.0705992e-07
-4.6320893e-08
6.1723339e-07
3.9914425e-07
4.7798777e-08
3.0680892e-07
5.9754011e-08
6.1455663e-07
4.5075035e-08
6.3626651e-07
3.456971e-08
6.0575799e-07
2.8097899e-08
5.921622e-07
2.3122965e-08
5.8595827e-07
1.9147864e-08
5.8185031e-07
1.5956677e-08
5.7890544e-07
1.3364197e-08
5.7678038e-07
1.1230564e-08
5.7522348e-07
9.4502496e-09
5.7406393e-07
7.9428725e-09
5.7318956e-07
6.6471225e-09
5.7252401e-07
5.5157477e-09
5.7201442e-07
4.5117736e-09
5.7162381e-07
3.605749e-09
5.713261e-07
2.7736987e-09
5.7110277e-07
1.9955793e-09
5.7094083e-07
1.2540886e-09
5.7083131e-07
5.3371423e-10
5.7076843e-07
-1.8006485e-10
5.7074902e-07
-9.0149501e-10
5.707722e-07
-1.6452444e-09
5.7083934e-07
-2.4271339e-09
5.7095415e-07
-3.264961e-09
5.7112306e-07
-4.1794934e-09
5.7135586e-07
-5.1957205e-09
5.716667e-07
-6.3444758e-09
5.7207568e-07
-7.6645794e-09
5.7261124e-07
-9.2057301e-09
5.7331392e-07
-1.1032307e-08
5.742419e-07
-1.3227818e-08
5.7547989e-07
-1.5901417e-08
5.7715597e-07
-1.91979e-08
5.7946094e-07
-2.3289515e-08
5.8265776e-07
-2.8478008e-08
5.8735065e-07
-3.6321302e-08
5.9673455e-07
-4.7987973e-08
6.1872659e-07
-4.2900541e-08
6.1214596e-07
3.5624371e-07
4.0145274e-08
2.6666991e-07
5.8579691e-08
5.9612658e-07
4.788638e-08
6.4695918e-07
3.7177345e-08
6.1646629e-07
3.0530475e-08
5.98809e-07
2.5504838e-08
5.9098393e-07
2.1405642e-08
5.8594951e-07
1.8037067e-08
5.8227401e-07
1.5245489e-08
5.7957196e-07
1.2908302e-08
5.7756067e-07
1.0929086e-08
5.7604315e-07
9.2321382e-09
5.7488651e-07
7.7579738e-09
5.7399818e-07
6.4594044e-09
5.7331299e-07
5.2985703e-09
5.7278465e-07
4.2446654e-09
5.7238e-07
3.2721494e-09
5.7207529e-07
2.3593411e-09
5.7185364e-07
1.4872934e-09
5.7170335e-07
6.3886509e-10
5.7161686e-07
-2.0207698e-10
5.7158997e-07
-1.0513831e-09
5.7162151e-07
-1.9253306e-09
5.7171329e-07
-2.8413627e-09
5.7187018e-07
-3.8189037e-09
5.721006e-07
-4.8803179e-09
5.7241728e-07
-6.0520738e-09
5.7283846e-07
-7.366196e-09
5.733898e-07
-8.8620811e-09
5.7410713e-07
-1.0588826e-08
5.7504067e-07
-1.2608289e-08
5.7626137e-07
-1.4998543e-08
5.7787015e-07
-1.7857978e-08
5.8001541e-07
-2.1312247e-08
5.8291521e-07
-2.5519271e-08
5.8686478e-07
-3.0882693e-08
5.9271407e-07
-3.9011945e-08
6.048638e-07
-4.8541187e-08
6.2825584e-07
-3.8220001e-08
6.0182477e-07
3.1802371e-07
3.2650318e-08
2.3402821e-07
5.4740744e-08
5.740438e-07
4.8652093e-08
6.5304786e-07
3.8525545e-08
6.2659162e-07
3.1920239e-08
6.0541409e-07
2.7023732e-08
5.9588047e-07
2.2964265e-08
5.9000899e-07
1.9554508e-08
5.8568377e-07
1.6676606e-08
5.8244986e-07
1.4227628e-08
5.8000965e-07
1.2123227e-08
5.7814755e-07
1.0295679e-08
5.7671406e-07
8.6903512e-09
5.7560351e-07
7.2627288e-09
5.7474061e-07
5.9762249e-09
5.7407115e-07
4.8004107e-09
5.7355582e-07
3.7095637e-09
5.7316614e-07
2.6814819e-09
5.7288172e-07
1.6964989e-09
5.7268834e-07
7.3664426e-10
5.7257672e-07
-2.1509801e-10
5.7254171e-07
-1.1754723e-09
5.7258189e-07
-2.1616261e-09
5.7269944e-07
-3.1918053e-09
5.7290036e-07
-4.2861071e-09
5.7319491e-07
-5.4673409e-09
5.7359851e-07
-6.7620421e-09
5.7413316e-07
-8.2016912e-09
5.7482945e-07
-9.8241867e-09
5.7572963e-07
-1.1675644e-08
5.7689213e-07
-1.3812816e-08
5.7839854e-07
-1.6306017e-08
5.8036335e-07
-1.9241234e-08
5.8295063e-07
-2.2721075e-08
5.8639506e-07
-2.6888481e-08
5.9103219e-07
-3.2249063e-08
5.9807466e-07
-4.0166395e-08
6.1278113e-07
-4.6888047e-08
6.3497749e-07
-3.2954149e-08
5.8789088e-07
2.8506956e-07
2.595621e-08
2.0808333e-07
4.9524925e-08
5.5048707e-07
4.7759296e-08
6.5481495e-07
3.8807124e-08
6.3554205e-07
3.243676e-08
6.1178396e-07
2.7795924e-08
6.0052133e-07
2.3904748e-08
5.9390019e-07
2.0564218e-08
5.8902431e-07
1.7691893e-08
5.8532218e-07
1.5207617e-08
5.8249393e-07
1.3041614e-08
5.8031355e-07
1.1136176e-08
5.786195e-07
9.4433533e-09
5.7729633e-07
7.9230058e-09
5.7626096e-07
6.5413321e-09
5.7545283e-07
5.2695825e-09
5.7482757e-07
4.0829601e-09
5.7435276e-07
2.9596864e-09
5.7400499e-07
1.8801936e-09
5.7376783e-07
8.2641159e-10
5.736305e-07
-2.1887901e-10
5.73587e-07
-1.2726528e-09
5.7363566e-07
-2.3522421e-09
5.7377903e-07
-3.4759528e-09
5.7402407e-07
-4.6637204e-09
5.7438268e-07
-5.9378402e-09
5.7487263e-07
-7.3237983e-09
5.7551912e-07
-8.8512405e-09
5.763569e-07
-1.0555106e-08
5.7743349e-07
-1.2476924e-08
5.7881395e-07
-1.4666494e-08
5.8058811e-07
-1.7184048e-08
5.8288091e-07
-2.0100361e-08
5.8586694e-07
-2.3492802e-08
5.897875e-07
-2.7496579e-08
5.9503597e-07
-3.2696022e-08
6.032741e-07
-3.9987711e-08
6.2007282e-07
-4.381672e-08
6.388065e-07
-2.7720229e-08
5.7179439e-07
2.5734933e-07
2.0317924e-08
1.8777996e-07
4.3872109e-08
5.2695037e-07
4.5736607e-08
6.5295431e-07
3.8296262e-08
6.4298024e-07
3.2291611e-08
6.1778768e-07
2.7963113e-08
6.048498e-07
2.4321004e-08
5.9754233e-07
2.1130602e-08
5.9221471e-07
1.8335066e-08
5.8811772e-07
1.5877137e-08
5.8495186e-07
1.3702587e-08
5.824881e-07
1.1764658e-08
5.8055742e-07
1.0023105e-08
5.7903789e-07
8.4432085e-09
5.7784086e-07
6.9949464e-09
5.7690109e-07
5.6521613e-09
5.7617036e-07
4.3918092e-09
5.7561312e-07
3.1932808e-09
5.7520352e-07
2.0377825e-09
5.7492333e-07
9.0776841e-10
5.7476051e-07
-2.1359094e-10
5.7470836e-07
-1.3429158e-09
5.7476499e-07
-2.4971252e-09
5.7493324e-07
-3.693952e-09
5.752209e-07
-4.9524816e-09
5.7564121e-07
-6.2937353e-09
5.7621389e-07
-7.7413078e-09
5.7696669e-07
-9.3220774e-09
5.7793767e-07
-1.1067001e-08
5.7917842e-07
-1.3011945e-08
5.8075889e-07
-1.5198624e-08
5.8277479e-07
-1.7675868e-08
5.8535815e-07
-2.0498305e-08
5.8868938e-07
-2.3722304e-08
5.930115e-07
-2.7490426e-08
5.9880409e-07
-3.242149e-08
6.0820517e-07
-3.880931e-08
6.2646064e-07
-3.9985563e-08
6.3998275e-07
-2.2871181e-08
5.5468001e-07
2.3447815e-07
1.57416e-08
1.7205691e-07
3.8323126e-08
5.0439314e-07
4.3021412e-08
6.4826345e-07
3.723254e-08
6.4876678e-07
3.1685878e-08
6.2333281e-07
2.7679054e-08
6.088565e-07
2.4320545e-08
6.009009e-07
2.13287e-08
5.9520657e-07
1.8658677e-08
5.9078775e-07
1.6272902e-08
5.8733763e-07
1.4131563e-08
5.8462944e-07
1.2198456e-08
5.8249053e-07
1.0441191e-08
5.8079515e-07
8.830893e-09
5.7945116e-07
7.3418417e-09
5.7839014e-07
5.9510332e-09
5.7756117e-07
4.6377384e-09
5.7692641e-07
3.3830603e-09
5.764582e-07
2.1694997e-09
5.7613689e-07
9.8053497e-10
5.7594948e-07
-1.9978692e-10
5.7588869e-07
-1.3872483e-09
5.7595245e-07
-2.5978641e-09
5.7614386e-07
-3.8482856e-09
5.7647132e-07
-5.1562156e-09
5.7694914e-07
-6.5408411e-09
5.7759851e-07
-8.0232825e-09
5.7844914e-07
-9.6270598e-09
5.7954145e-07
-1.1378581e-08
5.8092994e-07
-1.3307603e-08
5.8268791e-07
-1.5447628e-08
5.8491482e-07
-1.7836392e-08
5.8774692e-07
-2.0513764e-08
5.9136675e-07
-2.352235e-08
5.9602009e-07
-2.7022552e-08
6.0230429e-07
-3.1607753e-08
6.1279037e-07
-3.6925933e-08
6.3177882e-07
-3.5836366e-08
6.3889319e-07
-1.8574986e-08
5.3741863e-07
2.1590317e-07
1.2127664e-08
1.5995302e-07
3.3175163e-08
4.8337833e-07
3.994138e-08
6.4150961e-07
3.5791935e-08
6.5291411e-07
3.0770652e-08
6.2835181e-07
2.7076059e-08
6.1255076e-07
2.400533e-08
6.039717e-07
2.1234489e-08
5.9797744e-07
1.8718841e-08
5.933034e-07
1.643601e-08
5.8962046e-07
1.4358411e-08
5.8670705e-07
1.2459111e-08
5.8438983e-07
1.0713012e-08
5.8254125e-07
9.0969414e-09
5.8106723e-07
7.5895828e-09
5.798975e-07
6.171328e-09
5.7897942e-07
4.8240777e-09
5.7827367e-07
3.5309978e-09
5.7775128e-07
2.2762489e-09
5.7739164e-07
1.0447037e-09
5.7718103e-07
-1.7834216e-10
5.7711173e-07
-1.4074598e-09
5.7718157e-07
-2.6573841e-09
5.7739379e-07
-3.9433076e-09
5.7775725e-07
-5.2811736e-09
5.78287e-07
-6.687969e-09
5.7900531e-07
-8.1820064e-09
5.7994318e-07
-9.7831855e-09
5.8114263e-07
-1.1513239e-08
5.8266e-07
-1.3395939e-08
5.8457061e-07
-1.5457172e-08
5.8697605e-07
-1.7724777e-08
5.9001452e-07
-2.022614e-08
5.9386812e-07
-2.2996752e-08
5.987907e-07
-2.6216595e-08
6.0552414e-07
-3.0395741e-08
6.1696952e-07
-3.4578895e-08
6.3596198e-07
-3.1668675e-08
6.3598297e-07
-1.489148e-08
5.2064143e-07
2.0101169e-07
9.337285e-09
1.5064691e-07
2.8578644e-08
4.6418002e-07
3.6741102e-08
6.3336611e-07
3.4110289e-08
6.555436e-07
2.9654096e-08
6.3280484e-07
2.6256029e-08
6.1594817e-07
2.3460277e-08
6.0676752e-07
2.0915579e-08
6.0052217e-07
1.8568578e-08
5.956504e-07
1.6407371e-08
5.9178167e-07
1.4414265e-08
5.8870015e-07
1.257008e-08
5.8623402e-07
1.0856076e-08
5.8425526e-07
9.2542785e-09
5.8266903e-07
7.7475676e-09
5.8140422e-07
6.3197173e-09
5.8040727e-07
4.9553648e-09
5.7963802e-07
3.6399181e-09
5.7906673e-07
2.3594199e-09
5.7867214e-07
1.1003838e-09
5.7844006e-07
-1.5038648e-10
5.783625e-07
-1.4059869e-09
5.7843717e-07
-2.6796104e-09
5.7866741e-07
-3.9847383e-09
5.7906238e-07
-5.3353239e-09
5.7963759e-07
-6.7459629e-09
5.8041595e-07
-8.232039e-09
5.8142925e-07
-9.8098305e-09
5.8272042e-07
-1.1496578e-08
5.8434675e-07
-1.3310525e-08
5.8638456e-07
-1.5270803e-08
5.8893633e-07
-1.7396752e-08
5.9214047e-07
-1.9705801e-08
5.9617717e-07
-2.2231727e-08
6.0131663e-07
-2.5169371e-08
6.0846178e-07
-2.8902119e-08
6.2070227e-07
-3.1971031e-08
6.3903089e-07
-2.7685409e-08
6.3169735e-07
-1.1814302e-08
5.0477033e-07
1.8919739e-07
7.2217295e-09
1.434678e-07
2.4579579e-08
4.4687828e-07
3.3589327e-08
6.2438382e-07
3.2295073e-08
6.568381e-07
2.8416284e-08
6.3667954e-07
2.5296527e-08
6.1906681e-07
2.2753514e-08
6.0931057e-07
2.0428762e-08
6.0284698e-07
1.8254524e-08
5.9782465e-07
1.6224636e-08
5.9381156e-07
1.4329033e-08
5.9059576e-07
1.2554799e-08
5.8800826e-07
1.0888518e-08
5.8592154e-07
9.3167475e-09
5.842408e-07
7.8261813e-09
5.8289478e-07
6.4037904e-09
5.8182967e-07
5.0369002e-09
5.8100491e-07
3.7132029e-09
5.8039043e-07
2.4207242e-09
5.7996462e-07
1.1477558e-09
5.7971304e-07
-1.1723466e-10
5.796275e-07
-1.3857042e-09
5.7970564e-07
-2.6691462e-09
5.7995086e-07
-3.9791899e-09
5.8037242e-07
-5.327692e-09
5.809861e-07
-6.7268062e-09
5.8181507e-07
-8.1890231e-09
5.8289147e-07
-9.7271651e-09
5.8425856e-07
-1.1354334e-08
5.8597392e-07
-1.3083845e-08
5.8811407e-07
-1.4929e-08
5.9078149e-07
-1.6902085e-08
5.9411356e-07
-1.9013306e-08
5.9828839e-07
-2.1298874e-08
6.036022e-07
-2.3959798e-08
6.1112271e-07
-2.7226914e-08
6.2396938e-07
-2.926265e-08
6.4106663e-07
-2.4006654e-08
6.2644135e-07
-9.295142e-09
4.9005882e-07
1.7990225e-07
5.6405406e-09
1.3788765e-07
2.115465e-08
4.3143717e-07
3.0585596e-08
6.1499117e-07
3.0424336e-08
6.5700215e-07
2.7114626e-08
6.399842e-07
2.4255508e-08
6.2192419e-07
2.1939053e-08
6.1162699e-07
1.9820916e-08
6.049652e-07
1.7816532e-08
5.9982905e-07
1.5921138e-08
5.9570696e-07
1.4130135e-08
5.9238676e-07
1.2435481e-08
5.8970291e-07
1.0828065e-08
5.8752896e-07
9.2982672e-09
5.857706e-07
7.836134e-09
5.8435692e-07
6.4315525e-09
5.8323425e-07
5.0743856e-09
5.8236208e-07
3.7545527e-09
5.8171027e-07
2.4620681e-09
5.8125711e-07
1.1870475e-09
5.8098806e-07
-8.0308926e-11
5.8089485e-07
-1.3497418e-09
5.8097508e-07
-2.6309771e-09
5.8123209e-07
-3.933744e-09
5.8167519e-07
-5.2677933e-09
5.8232015e-07
-6.6428886e-09
5.8319016e-07
-8.0687671e-09
5.8431735e-07
-9.5550598e-09
5.8574486e-07
-1.1111168e-08
5.8753003e-07
-1.2746137e-08
5.8974905e-07
-1.4468383e-08
5.9250373e-07
-1.6284586e-08
5.9592977e-07
-1.8200439e-08
6.0020424e-07
-2.0257107e-08
6.0565887e-07
-2.2650945e-08
6.1351655e-07
-2.5450488e-08
6.2676893e-07
-2.6567168e-08
6.4218331e-07
-2.0685661e-08
6.2055985e-07
-7.2637381e-09
4.766369e-07
1.7263851e-07
4.4707297e-09
1.3350244e-07
1.8243806e-08
4.1775939e-07
2.7775884e-08
6.0551114e-07
2.854822e-08
6.5623637e-07
2.5786355e-08
6.4274014e-07
2.3173461e-08
6.2453456e-07
2.1058098e-08
6.1374218e-07
1.9129824e-08
6.0689358e-07
1.7287965e-08
6.0167093e-07
1.5525718e-08
5.9746921e-07
1.3842032e-08
5.9407045e-07
1.2232508e-08
5.9131244e-07
1.0691411e-08
5.8907006e-07
9.2122623e-09
5.8724975e-07
7.787979e-09
5.857812e-07
6.4110402e-09
5.8461119e-07
5.0736379e-09
5.8369948e-07
3.7677946e-09
5.8301611e-07
2.4854503e-09
5.8253946e-07
1.2185208e-09
5.8225499e-07
-4.1065765e-11
5.8215444e-07
-1.3013231e-09
5.8223534e-07
-2.5702174e-09
5.8250099e-07
-3.8556e-09
5.8296058e-07
-5.1651799e-09
5.8362973e-07
-6.5064537e-09
5.8453144e-07
-7.8866107e-09
5.8569751e-07
-9.3124082e-09
5.8717066e-07
-1.0790016e-08
5.8900764e-07
-1.2324872e-08
5.912839e-07
-1.3921398e-08
5.9410026e-07
-1.5582012e-08
5.9759038e-07
-1.7310193e-08
6.0193243e-07
-1.9152766e-08
6.0750144e-07
-2.1290298e-08
6.1565408e-07
-2.3632526e-08
6.2911116e-07
-2.3956774e-08
6.4250756e-07
-1.7730323e-08
6.143334e-07
-5.6424864e-09
4.6454906e-07
1.6699603e-07
3.6088548e-09
1.3001005e-07
1.5773079e-08
4.0571976e-07
2.5172163e-08
5.9618158e-07
2.6695654e-08
6.5472471e-07
2.4453083e-08
6.4497609e-07
2.207641e-08
6.2690773e-07
2.0140449e-08
6.1567776e-07
1.8384848e-08
6.086493e-07
1.6695997e-08
6.0335982e-07
1.5062751e-08
5.9910245e-07
1.3486036e-08
5.9564716e-07
1.1964109e-08
5.9283437e-07
1.0493834e-08
5.9054033e-07
9.0712672e-09
5.8867232e-07
7.6917436e-09
5.8716073e-07
6.3500034e-09
5.8595293e-07
5.0403324e-09
5.8500916e-07
3.7566944e-09
5.8429975e-07
2.4928443e-09
5.8380331e-07
1.2424245e-09
5.8350541e-07
-9.5314951e-13
5.8339782e-07
-1.2436672e-09
5.8347805e-07
-2.4919392e-09
5.8374926e-07
-3.7518321e-09
5.8422047e-07
-5.0291302e-09
5.8490703e-07
-6.3292317e-09
5.8583154e-07
-7.6570194e-09
5.870253e-07
-9.0167125e-09
5.8853035e-07
-1.0411706e-08
5.9040263e-07
-1.1844433e-08
5.9271663e-07
-1.3316092e-08
5.9557192e-07
-1.4825961e-08
5.9910025e-07
-1.6376992e-08
6.0348346e-07
-1.8020808e-08
6.0914526e-07
-1.9912246e-08
6.1754552e-07
-2.1815482e-08
6.310144e-07
-2.1472991e-08
6.4216507e-07
-1.5121896e-08
6.0798231e-07
-4.3553824e-09
4.5378255e-07
1.6264065e-07
2.9703024e-09
1.2718948e-07
1.3667244e-08
3.9518509e-07
2.2766505e-08
5.8717394e-07
2.4881309e-08
6.5262886e-07
2.3126097e-08
6.4672426e-07
2.0979953e-08
6.2904924e-07
1.9206804e-08
6.1745022e-07
1.7608134e-08
6.1024809e-07
1.6062206e-08
6.049058e-07
1.4552344e-08
6.0061232e-07
1.3080274e-08
5.9711924e-07
1.1646178e-08
5.9426846e-07
1.0248928e-08
5.9193759e-07
8.8866218e-09
5.9003463e-07
7.5566204e-09
5.8849073e-07
6.255615e-09
5.8725394e-07
4.9797482e-09
5.8628503e-07
3.7247439e-09
5.8555476e-07
2.4860334e-09
5.8504202e-07
1.2588721e-09
5.8473257e-07
3.8448816e-11
5.8461825e-07
-1.1800039e-09
5.8469651e-07
-2.4011244e-09
5.8497039e-07
-3.6292906e-09
5.8544864e-07
-4.8685067e-09
5.8614625e-07
-6.1222657e-09
5.870853e-07
-7.3933966e-09
5.8829643e-07
-8.6839061e-09
5.8982086e-07
-9.9948247e-09
5.9171355e-07
-1.1326087e-08
5.940479e-07
-1.2676288e-08
5.9692213e-07
-1.4042427e-08
6.0046639e-07
-1.542797e-08
6.0486901e-07
-1.6887342e-08
6.1060463e-07
-1.8541829e-08
6.1920001e-07
-2.0029438e-08
6.3250201e-07
-1.9137101e-08
6.4127274e-07
-1.2828439e-08
6.0167365e-07
-3.3335738e-09
4.4428769e-07
1.5930708e-07
2.4880657e-09
1.2488336e-07
1.1856765e-08
3.8602557e-07
2.0541054e-08
5.7860899e-07
2.3111182e-08
6.5008704e-07
2.1810683e-08
6.4801768e-07
1.9893028e-08
6.3096096e-07
1.8271354e-08
6.1907079e-07
1.6816261e-08
6.117033e-07
1.5403562e-08
6.0631857e-07
1.4010873e-08
6.0200502e-07
1.2639916e-08
5.9849019e-07
1.1292308e-08
5.9561607e-07
9.9685209e-09
5.9326138e-07
8.6683291e-09
5.9133482e-07
7.3907952e-09
5.8976827e-07
6.1342927e-09
5.8851044e-07
4.8965982e-09
5.8752272e-07
3.6750126e-09
5.8677635e-07
2.466492e-09
5.8625054e-07
1.2677777e-09
5.8593129e-07
7.5524202e-11
5.858105e-07
-1.1135762e-09
5.8588561e-07
-2.3026654e-09
5.8615948e-07
-3.4945833e-09
5.8664056e-07
-4.691724e-09
5.8734339e-07
-5.8958789e-09
5.8828946e-07
-7.1080718e-09
5.8950863e-07
-8.3283957e-09
5.9104119e-07
-9.5558689e-09
5.9294103e-07
-1.078833e-08
5.9528036e-07
-1.2022235e-08
5.9815603e-07
-1.3252928e-08
6.0169709e-07
-1.4484812e-08
6.0610089e-07
-1.5772444e-08
6.1189227e-07
-1.7198206e-08
6.2062577e-07
-1.8296473e-08
6.3360028e-07
-1.6958415e-08
6.3993468e-07
-1.0814162e-08
5.955294e-07
-2.5189124e-09
4.3599244e-07
1.5678817e-07
2.1111927e-09
1.2298352e-07
1.0281695e-08
3.7812079e-07
1.8475221e-08
5.7056906e-07
2.1387221e-08
6.4721534e-07
2.0509551e-08
6.4888882e-07
1.8821035e-08
6.3264213e-07
1.7344247e-08
6.2054595e-07
1.6022052e-08
6.1302556e-07
1.4733748e-08
6.0760697e-07
1.3451906e-08
6.0328688e-07
1.2177811e-08
5.9976429e-07
1.0914224e-08
5.9687966e-07
9.6629782e-09
5.9451262e-07
8.425267e-09
5.9257254e-07
7.2016087e-09
5.9099193e-07
5.9918335e-09
5.8972022e-07
4.7951517e-09
5.8871941e-07
3.6102661e-09
5.8796123e-07
2.4355034e-09
5.8742531e-07
1.2689505e-09
5.8709785e-07
1.0859522e-10
5.8697086e-07
-1.0475358e-09
5.8704174e-07
-2.2012312e-09
5.8731317e-07
-3.3539443e-09
5.8779328e-07
-4.5066335e-09
5.8849608e-07
-5.6595925e-09
5.8944242e-07
-6.8122758e-09
5.9066131e-07
-7.9631322e-09
5.9219205e-07
-9.1094649e-09
5.9408736e-07
-1.0247329e-08
5.9641823e-07
-1.1371378e-08
5.9928008e-07
-1.2475702e-08
6.0280141e-07
-1.3565539e-08
6.0719073e-07
-1.4692615e-08
6.1301934e-07
-1.5897539e-08
6.218307e-07
-1.6634459e-08
6.343372e-07
-1.4940988e-08
6.3824121e-07
-9.0460611e-09
5.8963447e-07
-1.8658e-09
4.2881218e-07
1.5492236e-07
1.8027918e-09
1.2141832e-07
8.8936182e-09
3.7136149e-07
1.6550783e-08
5.6310698e-07
1.9711305e-08
6.4411014e-07
1.9225877e-08
6.49369e-07
1.7768666e-08
6.3409055e-07
1.6433963e-08
6.2187839e-07
1.5236485e-08
6.1422303e-07
1.4064693e-08
6.0877887e-07
1.2887449e-08
6.0446414e-07
1.170549e-08
6.0094625e-07
1.0522621e-08
5.9806253e-07
9.3419124e-09
5.9569333e-07
8.1658185e-09
5.9374863e-07
6.9961296e-09
5.9216162e-07
5.8339489e-09
5.908824e-07
4.6797457e-09
5.8987361e-07
3.5334623e-09
5.8910752e-07
2.394646e-09
5.8856413e-07
1.2625891e-09
5.882299e-07
1.3647703e-10
5.8809698e-07
-9.8446538e-10
5.8816269e-07
-2.1008176e-09
5.8842953e-07
-3.2128034e-09
5.8890526e-07
-4.3201212e-09
5.896034e-07
-5.421766e-09
5.9054407e-07
-6.5158463e-09
5.917554e-07
-7.5994117e-09
5.9327562e-07
-8.668307e-09
5.9515626e-07
-9.717055e-09
5.9746698e-07
-1.0738755e-08
6.0030179e-07
-1.1726459e-08
6.0378912e-07
-1.2685757e-08
6.0815003e-07
-1.3662593e-08
6.1399618e-07
-1.465518e-08
6.2282329e-07
-1.5060081e-08
6.347421e-07
-1.3088555e-08
6.3626969e-07
-7.4982471e-09
5.8404417e-07
-1.3413855e-09
4.2265532e-07
1.5358097e-07
1.537823e-09
1.2014127e-07
7.6563497e-09
3.6564817e-07
1.4755193e-08
5.5625222e-07
1.8088366e-08
6.4085071e-07
1.7965882e-08
6.4948852e-07
1.674234e-08
6.3530392e-07
1.5549402e-08
6.2306832e-07
1.4470362e-08
6.1530195e-07
1.3407924e-08
6.0984144e-07
1.232905e-08
6.0554305e-07
1.1234111e-08
6.0204119e-07
1.0127963e-08
5.9916868e-07
9.0148914e-09
5.9680641e-07
7.8985103e-09
5.9486502e-07
6.7817489e-09
5.9327839e-07
5.6668325e-09
5.9199732e-07
4.5553372e-09
5.9098511e-07
3.4482978e-09
5.9021456e-07
2.3463413e-09
5.8966609e-07
1.2498309e-09
5.8932642e-07
1.5901656e-10
5.8918779e-07
-9.258133e-10
5.8924752e-07
-2.004171e-09
5.8950789e-07
-3.0752051e-09
5.899763e-07
-4.1375252e-09
5.9066572e-07
-5.1890189e-09
5.9159557e-07
-6.2266618e-09
5.9279304e-07
-7.246335e-09
5.9429529e-07
-8.2426636e-09
5.9615259e-07
-9.208866e-09
5.9843318e-07
-1.0136696e-08
6.0122962e-07
-1.1018296e-08
6.0467072e-07
-1.1858896e-08
6.0899063e-07
-1.2695989e-08
6.1483328e-07
-1.3486566e-08
6.2361387e-07
-1.359033e-08
6.3484587e-07
-1.1407027e-08
6.3408639e-07
-6.1536857e-09
5.7879083e-07
-9.2405803e-10
4.174257e-07
1.5265691e-07
1.3009049e-09
1.19121e-07
6.5458104e-09
3.6088765e-07
1.3083222e-08
5.5001495e-07
1.6528137e-08
6.3750152e-07
1.6740198e-08
6.492769e-07
1.5751427e-08
6.3628126e-07
1.4700789e-08
6.2411514e-07
1.3734836e-08
6.1626762e-07
1.2774826e-08
6.1080158e-07
1.1787892e-08
6.0653002e-07
1.0774407e-08
6.0305468e-07
9.7403582e-09
6.0020274e-07
8.6912475e-09
5.9785552e-07
7.6317862e-09
5.9592448e-07
6.5659333e-09
5.9434424e-07
5.4969085e-09
5.9306635e-07
4.4272608e-09
5.9205476e-07
3.3589853e-09
5.9128284e-07
2.2936609e-09
5.9073142e-07
1.2325964e-09
5.9038749e-07
1.7698256e-10
5.9024341e-07
-8.7195486e-10
5.9029646e-07
-1.9127946e-09
5.9054873e-07
-2.9437541e-09
5.9100726e-07
-3.962515e-09
5.9168449e-07
-4.9660378e-09
5.9259909e-07
-5.9503677e-09
5.9377738e-07
-6.9104412e-09
5.9525537e-07
-7.8399026e-09
5.9708206e-07
-8.7309103e-09
5.9932419e-07
-9.5741093e-09
6.0207282e-07
-1.0360862e-08
6.0545748e-07
-1.1095324e-08
6.097251e-07
-1.1804361e-08
6.1554232e-07
-1.2406257e-08
6.2421576e-07
-1.2241895e-08
6.3468151e-07
-9.9043527e-09
6.3174885e-07
-5.0031203e-09
5.738896e-07
-6.0089816e-10
4.1302348e-07
1.5205601e-07
1.0841798e-09
1.1833323e-07
5.5491903e-09
3.569884e-07
1.1537123e-08
5.4438904e-07
1.5045103e-08
6.3411464e-07
1.5563185e-08
6.4876385e-07
1.4807287e-08
6.3702461e-07
1.3898472e-08
6.2501921e-07
1.3039989e-08
6.171256e-07
1.217508e-08
6.1166662e-07
1.127315e-08
6.07432e-07
1.0335012e-08
6.0399283e-07
9.3678432e-09
6.0116991e-07
8.3783458e-09
5.9884502e-07
7.3722615e-09
5.9693057e-07
6.3544778e-09
5.9536203e-07
5.3290926e-09
5.9409174e-07
4.2995092e-09
5.9308435e-07
3.2685656e-09
5.9231379e-07
2.2386786e-09
5.9176131e-07
1.2119919e-09
5.9141418e-07
1.9052693e-10
5.9126488e-07
-8.2366512e-10
5.9131066e-07
-1.8283468e-09
5.9155342e-07
-2.8209319e-09
5.9199985e-07
-3.7983151e-09
5.9266188e-07
-4.75669e-09
5.9355747e-07
-5.6913561e-09
5.9471205e-07
-6.596518e-09
5.9616054e-07
-7.465082e-09
5.9795062e-07
-8.288425e-09
6.0014754e-07
-9.0563902e-09
6.0284079e-07
-9.7597794e-09
6.0616087e-07
-1.040118e-08
6.103665e-07
-1.0995429e-08
6.1613657e-07
-1.1425689e-08
6.2464603e-07
-1.1029092e-08
6.3428491e-07
-8.5887721e-09
6.2930853e-07
-4.0425075e-09
5.6934334e-07
-3.629865e-10
4.0934395e-07
1.5169302e-07
8.8535924e-10
1.177549e-07
4.6634893e-09
3.5385514e-07
1.0125761e-08
5.393543e-07
1.365691e-08
6.3073275e-07
1.4450314e-08
6.479811e-07
1.3920261e-08
6.3754106e-07
1.3149907e-08
6.2578377e-07
1.2391923e-08
6.1788282e-07
1.1613888e-08
6.1244478e-07
1.0789328e-08
6.0825663e-07
9.9198562e-09
6.0486231e-07
9.0138041e-09
6.0207596e-07
8.0789978e-09
5.9977983e-07
7.1221163e-09
5.9788745e-07
6.148871e-09
5.9633528e-07
5.16413e-09
5.9507648e-07
4.1720452e-09
5.9407644e-07
3.1761965e-09
5.9330964e-07
2.1797414e-09
5.9275776e-07
1.1855645e-09
5.9240836e-07
1.9642598e-10
5.9225402e-07
-7.8489035e-10
5.9229198e-07
-1.7554261e-09
5.9252396e-07
-2.7118924e-09
5.9295632e-07
-3.6505081e-09
5.9360049e-07
-4.5668258e-09
5.9447379e-07
-5.4555474e-09
5.9560077e-07
-6.3103257e-09
5.9701532e-07
-7.1235517e-09
5.9876385e-07
-7.8861083e-09
6.009101e-07
-8.5874052e-09
6.0354209e-07
-9.218025e-09
6.067915e-07
-9.7788806e-09
6.1092736e-07
-1.0272517e-08
6.1663021e-07
-1.0551745e-08
6.2492526e-07
-9.9621701e-09
6.3369534e-07
-7.466758e-09
6.2681312e-07
-3.2693282e-09
5.6514591e-07
-2.021371e-10
4.0627676e-07
1.5149088e-07
7.0636427e-10
1.1736024e-07
3.8936396e-09
3.5138357e-07
8.8635236e-09
5.3487793e-07
1.238267e-08
6.2739286e-07
1.3415535e-08
6.4696535e-07
1.3096884e-08
6.3784512e-07
1.2457311e-08
6.264164e-07
1.1790968e-08
6.1854807e-07
1.1090614e-08
6.1314524e-07
1.0335163e-08
6.0901215e-07
9.5271892e-09
6.056703e-07
8.6760201e-09
6.0292713e-07
7.7904587e-09
6.0066539e-07
6.8780044e-09
5.9879991e-07
5.9450877e-09
5.9726819e-07
4.9972524e-09
5.9602432e-07
4.0393119e-09
5.9503438e-07
3.0755061e-09
5.9427344e-07
2.1096553e-09
5.9372361e-07
1.1453102e-09
5.933727e-07
1.858971e-10
5.9321343e-07
-7.6513811e-10
5.9324301e-07
-1.7041854e-09
5.93463e-07
-2.6273227e-09
5.9387946e-07
-3.5301636e-09
5.9450333e-07
-4.407696e-09
5.9535132e-07
-5.2541123e-09
5.9644719e-07
-6.0626249e-09
5.9782383e-07
-6.8252627e-09
5.9952649e-07
-7.5326425e-09
6.0161748e-07
-8.174086e-09
6.0418353e-07
-8.740358e-09
6.0735777e-07
-9.231028e-09
6.1141803e-07
-9.6375288e-09
6.1703671e-07
-9.7885838e-09
6.2507632e-07
-9.047949e-09
6.3295471e-07
-6.5417815e-09
6.2430696e-07
-2.678534e-09
5.6128267e-07
-1.0985557e-10
4.0370809e-07
1.5138102e-07
5.5260126e-10
1.1711806e-07
3.250061e-09
3.494573e-07
7.7695136e-09
5.3091457e-07
1.1243085e-08
6.2412916e-07
1.2471805e-08
6.4576111e-07
1.2341096e-08
6.3796058e-07
1.1819836e-08
6.2692958e-07
1.1234671e-08
6.1913179e-07
1.0602281e-08
6.137777e-07
9.9073637e-09
6.0970715e-07
9.153368e-09
6.064243e-07
8.3503672e-09
6.0373013e-07
7.5079672e-09
6.0150779e-07
6.6343764e-09
5.996735e-07
5.7366628e-09
5.9816591e-07
4.8209791e-09
5.9694e-07
3.8927398e-09
5.9596261e-07
2.9567865e-09
5.952094e-07
2.017545e-09
5.9466285e-07
1.0791749e-09
5.9431107e-07
1.4571388e-10
5.9414689e-07
-7.7878165e-10
5.941675e-07
-1.6900961e-09
5.9437432e-07
-2.5837124e-09
5.9477307e-07
-3.4546683e-09
5.9537429e-07
-4.2974069e-09
5.9619406e-07
-5.1056229e-09
5.972554e-07
-5.8721016e-09
5.9859031e-07
-6.5885394e-09
6.0024293e-07
-7.2453666e-09
6.0227431e-07
-7.8320055e-09
6.0477017e-07
-8.3397144e-09
6.0786548e-07
-8.7673546e-09
6.1184567e-07
-9.0978099e-09
6.1736717e-07
-9.1434194e-09
6.2512193e-07
-8.2932038e-09
6.321045e-07
-5.8140324e-09
6.2182779e-07
-2.2585516e-09
5.5772719e-07
-7.4546686e-11
4.0152408e-07
1.5130647e-07
4.3166245e-10
1.1699055e-07
2.7449316e-09
3.4794903e-07
6.8662203e-09
5.2740448e-07
1.0262924e-08
6.2097224e-07
1.1636663e-08
6.444204e-07
1.1661945e-08
6.3792033e-07
1.1242551e-08
6.2734008e-07
1.0727394e-08
6.1964517e-07
1.0153373e-08
6.1435173e-07
9.5103535e-09
6.1035025e-07
8.8023916e-09
6.0713228e-07
8.0400794e-09