/*--------------------------------*- C++ -*----------------------------------*\
  =========                 |
  \\      /  F ield         | OpenFOAM: The Open Source CFD Toolbox
   \\    /   O peration     | Website:  https://openfoam.org
    \\  /    A nd           | Version:  10
     \\/     M anipulation  |
\*---------------------------------------------------------------------------*/
FoamFile
{
    format      ascii;
    class       volScalarField;
    location    "0.07";
    object      TporMedia;
}
// * * * * * * * * * * * * * * * * * * * * * * * * * * * * * * * * * * * * * //

dimensions      [0 0 0 1 0 0 0];

internalField   nonuniform List<scalar> 
4000
(
-1.3670704e-06
7.1836573e-07
-4.2060994e-05
-3.7259572e-05
-5.8893416e-05
-5.389431e-05
-5.2068256e-05
-5.4201473e-05
-5.1173085e-05
-5.2943586e-05
-5.0755421e-05
-5.1590038e-05
-5.1924552e-05
-5.0655138e-05
-5.1430548e-05
-5.1903342e-05
-4.7451922e-05
-5.0193956e-05
-5.0479786e-05
-4.9297257e-05
-4.945867e-05
-5.0047383e-05
-5.1260822e-05
-5.1044481e-05
-5.0360827e-05
-5.018139e-05
-5.1900385e-05
-5.2737298e-05
-5.1464984e-05
-5.1990804e-05
-5.2459127e-05
-5.3153027e-05
-5.4678347e-05
-5.4413451e-05
-5.7293875e-05
-5.7460931e-05
-5.8565793e-05
-5.8957535e-05
-5.9528394e-05
-6.3018112e-05
-1.2501946e-07
2.7116277e-16
-5.1662698e-14
9.3238194e-13
2.9813888e-12
4.9616541e-12
4.4540687e-12
4.595436e-12
4.5124725e-12
4.5418043e-12
4.141445e-12
4.6427553e-12
4.2683461e-12
4.1649611e-12
4.2507731e-12
4.1381667e-12
3.9642696e-12
4.2054575e-12
4.2525693e-12
4.2222283e-12
4.1989771e-12
4.028431e-12
4.067452e-12
4.3173719e-12
4.3261493e-12
4.1536749e-12
4.334005e-12
4.5587679e-12
4.6193318e-12
4.7530513e-12
4.5764452e-12
4.6312703e-12
4.938823e-12
4.9357183e-12
5.2723265e-12
5.4892722e-12
5.8096571e-12
5.7836332e-12
5.9457872e-12
6.4223215e-12
-5.0064683e-08
-7.4006139e-17
-1.7582813e-23
4.5939762e-21
-4.2487876e-20
-3.1143604e-19
-3.9841922e-19
-3.7597032e-19
-3.7201714e-19
-3.7028203e-19
-3.3838262e-19
-3.8040677e-19
-3.3353888e-19
-3.3850425e-19
-3.4844925e-19
-3.2682344e-19
-3.2243097e-19
-3.3938064e-19
-3.3039709e-19
-3.2639572e-19
-3.2750294e-19
-3.1331193e-19
-3.2358045e-19
-3.5374724e-19
-3.2799464e-19
-3.3641014e-19
-3.6242975e-19
-3.7782022e-19
-3.7650653e-19
-4.1068094e-19
-3.9876139e-19
-3.9083301e-19
-4.2290877e-19
-4.2618713e-19
-4.7388836e-19
-5.11074e-19
-5.6143915e-19
-5.3086713e-19
-5.5683925e-19
-6.3478642e-19
-2.6550484e-08
4.2543266e-18
7.3972184e-28
3.7078865e-30
3.4434935e-28
6.9706698e-27
3.2540948e-26
3.110435e-26
3.0973587e-26
2.9298193e-26
2.6653461e-26
2.9799535e-26
2.6316361e-26
2.6899859e-26
2.643091e-26
2.6029448e-26
2.5696872e-26
2.6189664e-26
2.6542501e-26
2.5807755e-26
2.5928261e-26
2.481949e-26
2.4874737e-26
2.7058896e-26
2.4646558e-26
2.6977016e-26
2.7458992e-26
2.9827464e-26
3.0830645e-26
3.3384904e-26
3.4051615e-26
3.2879163e-26
3.6236834e-26
3.6809495e-26
4.0854342e-26
4.4614408e-26
5.3299691e-26
4.9659697e-26
5.2564664e-26
6.1758726e-26
-1.6436488e-08
8.0072016e-19
1.0504559e-28
3.0535447e-38
-1.1543497e-34
-5.8369266e-35
-1.6995762e-33
-2.6571877e-33
-2.3162794e-33
-2.3257376e-33
-2.0090874e-33
-2.3049755e-33
-1.8746694e-33
-2.0348539e-33
-2.034919e-33
-1.8812722e-33
-1.8157089e-33
-2.0285454e-33
-1.8775127e-33
-1.9107687e-33
-1.9069453e-33
-1.8528209e-33
-1.8640085e-33
-2.0392081e-33
-1.9112995e-33
-2.0393011e-33
-2.0576607e-33
-2.2462491e-33
-2.4724587e-33
-2.7276637e-33
-2.7568e-33
-2.5933937e-33
-3.0393515e-33
-3.1836189e-33
-3.423517e-33
-3.8225318e-33
-4.7724301e-33
-4.6118507e-33
-4.6918115e-33
-5.6622106e-33
-1.1220503e-08
2.5768891e-19
4.0496275e-29
5.527663e-39
-1.8583914e-43
2.4994824e-43
3.7063849e-41
2.3685192e-40
1.8272997e-40
1.7586563e-40
1.5318584e-40
1.6973197e-40
1.3991619e-40
1.5393698e-40
1.4787814e-40
1.3770163e-40
1.3319079e-40
1.4689414e-40
1.3801446e-40
1.3907575e-40
1.4295552e-40
1.3474146e-40
1.3681483e-40
1.4677657e-40
1.3775596e-40
1.5470476e-40
1.489021e-40
1.6497048e-40
1.843608e-40
2.1453295e-40
2.09878e-40
2.1182912e-40
2.4003982e-40
2.5964478e-40
2.8740435e-40
3.1814789e-40
4.2480308e-40
4.0182232e-40
4.4121564e-40
4.902681e-40
-8.1827358e-09
1.0739647e-19
-3.3924128e-28
-2.7842848e-38
-1.2921672e-47
-7.7319777e-52
-3.317011e-49
-1.7005101e-47
-1.5281139e-47
-1.2930087e-47
-1.1063011e-47
-1.196589e-47
-1.0324415e-47
-1.103775e-47
-1.0785048e-47
-9.9469999e-48
-9.6164068e-48
-1.0381482e-47
-9.7831116e-48
-9.8221983e-48
-9.9034226e-48
-9.3681789e-48
-9.5010615e-48
-1.0216454e-47
-9.7883542e-48
-1.0887313e-47
-1.0997553e-47
-1.2233075e-47
-1.3237828e-47
-1.6080104e-47
-1.5392617e-47
-1.5907835e-47
-1.8151298e-47
-2.0801837e-47
-2.3312265e-47
-2.6605913e-47
-3.5583414e-47
-3.3417337e-47
-3.8896795e-47
-4.3956436e-47
-6.2355333e-09
5.2300471e-20
-3.5871565e-30
-2.0735018e-40
-4.1685605e-50
1.7269329e-58
1.450306e-57
6.3115243e-55
1.4201877e-54
9.8324596e-55
7.3173812e-55
8.4502971e-55
7.1964911e-55
7.5606851e-55
7.1130091e-55
6.7737658e-55
6.5094851e-55
7.1555606e-55
6.7405379e-55
6.9499051e-55
6.6785129e-55
6.3268469e-55
6.4576217e-55
6.8977869e-55
6.8763738e-55
7.6044428e-55
7.7826402e-55
8.6514491e-55
9.3601551e-55
1.1367825e-54
1.085201e-54
1.202081e-54
1.3647536e-54
1.6445368e-54
1.8494191e-54
2.0818277e-54
2.8867818e-54
2.7053947e-54
3.3079675e-54
3.7379518e-54
-4.8713697e-09
2.8060268e-20
-7.2977406e-31
-3.3988173e-41
-3.6425047e-51
-1.7160574e-59
-3.649973e-66
-1.0342979e-62
-1.3655436e-61
-7.1976899e-62
-5.0289945e-62
-5.7517343e-62
-4.872737e-62
-5.3112294e-62
-4.6292889e-62
-4.5149408e-62
-4.3294708e-62
-4.7218978e-62
-4.3256336e-62
-4.5285094e-62
-4.3184505e-62
-4.1025481e-62
-4.3380228e-62
-4.6951449e-62
-4.4834382e-62
-5.2278609e-62
-5.1419134e-62
-5.8869147e-62
-6.2749674e-62
-7.4940706e-62
-7.4641184e-62
-8.4373622e-62
-9.5199814e-62
-1.224945e-61
-1.3861917e-61
-1.6527277e-61
-2.3851934e-61
-2.1315178e-61
-2.6528002e-61
-2.838424e-61
-3.8371692e-09
1.5930635e-20
-2.1555221e-31
-9.2731892e-42
-6.0593711e-52
-4.6294343e-61
8.0931919e-70
8.0608809e-71
1.2123771e-68
5.8873156e-69
3.347727e-69
3.7241059e-69
3.0513219e-69
3.4193849e-69
2.9819852e-69
2.9665108e-69
2.7219329e-69
3.0575341e-69
2.6807278e-69
2.8160166e-69
2.7893426e-69
2.6127762e-69
2.8160409e-69
2.979511e-69
3.0084899e-69
3.2472275e-69
3.3595729e-69
3.7447906e-69
4.1590717e-69
5.1578504e-69
5.0982741e-69
5.6941786e-69
6.6116197e-69
9.0084814e-69
9.7827243e-69
1.2274802e-68
1.8639951e-68
1.6186697e-68
2.0944361e-68
2.033121e-68
-3.0081783e-09
9.3009018e-21
-7.5591893e-32
-3.600348e-42
-1.5808453e-52
-4.7536524e-62
6.7841876e-71
-6.2221889e-79
-5.8937657e-76
-5.3336952e-76
-2.164119e-76
-2.3183038e-76
-1.9405204e-76
-2.2275045e-76
-1.8802742e-76
-1.8197005e-76
-1.6860762e-76
-1.9003258e-76
-1.6611184e-76
-1.7403556e-76
-1.7064205e-76
-1.6430098e-76
-1.7492372e-76
-1.7848143e-76
-1.8340262e-76
-2.0512312e-76
-2.1179787e-76
-2.3903108e-76
-2.6686375e-76
-3.3793407e-76
-3.3043862e-76
-3.9107463e-76
-4.4206337e-76
-6.1477082e-76
-7.0919319e-76
-8.6709572e-76
-1.3827315e-75
-1.2040549e-75
-1.5172758e-75
-1.3258667e-75
-2.3111636e-09
5.4373252e-21
-2.8887551e-32
-2.2275626e-42
-7.0864414e-53
-1.0849381e-62
1.5975932e-71
-4.0130508e-80
1.4342877e-83
5.8633016e-83
1.4334358e-83
1.3678029e-83
1.1759598e-83
1.3081262e-83
1.1075483e-83
1.1371477e-83
1.0031031e-83
1.1406659e-83
1.008727e-83
1.0138525e-83
1.0111584e-83
9.773625e-84
1.0663883e-83
1.0616854e-83
1.1105285e-83
1.2213274e-83
1.2764033e-83
1.4521525e-83
1.5853278e-83
2.0821629e-83
2.0554587e-83
2.4369512e-83
2.7829282e-83
3.9917209e-83
4.8794045e-83
6.1881655e-83
9.7292733e-83
8.5569116e-83
1.0492178e-82
8.0735937e-83
-1.708735e-09
3.0946165e-21
-1.1363644e-32
4.1742902e-42
1.0232324e-52
9.1699726e-63
-2.442524e-71
4.0715887e-80
-4.96282e-88
-6.6292575e-90
-9.4002518e-91
-8.0524434e-91
-6.8371392e-91
-7.5841215e-91
-6.2944012e-91
-6.3288368e-91
-5.6624382e-91
-6.4390533e-91
-5.8469231e-91
-5.6874226e-91
-5.6072398e-91
-5.6203875e-91
-5.9907842e-91
-5.9990787e-91
-6.4062756e-91
-7.204701e-91
-7.3767859e-91
-8.3586426e-91
-9.5133515e-91
-1.2328805e-90
-1.203008e-90
-1.4905385e-90
-1.7097489e-90
-2.5984506e-90
-3.1967398e-90
-4.2334e-90
-6.6281727e-90
-5.6515767e-90
-6.4432961e-90
-3.7455384e-90
-1.2165852e-09
1.7005187e-21
-4.4845042e-33
1.5937521e-43
3.1746537e-54
1.8260093e-64
5.0309832e-73
-6.0910496e-82
4.0463053e-90
2.437356e-97
6.8822607e-98
4.509054e-98
3.7193004e-98
4.1818376e-98
3.4962264e-98
3.4964999e-98
3.0371151e-98
3.5242478e-98
3.1669574e-98
3.0946565e-98
3.0568599e-98
3.0209874e-98
3.2644198e-98
3.3127341e-98
3.4842798e-98
3.9611185e-98
4.1601804e-98
4.5893371e-98
5.3619209e-98
6.7642147e-98
6.8026118e-98
8.7178633e-98
1.0230597e-97
1.5345892e-97
1.9672403e-97
2.6580481e-97
4.1241232e-97
3.5225115e-97
3.4289867e-97
1.0998843e-97
-8.6072789e-10
9.2582587e-22
-1.7999631e-33
2.7412465e-44
4.6592263e-55
1.8401776e-65
1.0775305e-74
-1.0312187e-83
4.1247597e-92
-2.3695115e-99
-5.4034731e-105
-2.4208056e-105
-1.9929426e-105
-2.2494092e-105
-1.8480971e-105
-1.7949167e-105
-1.555105e-105
-1.817451e-105
-1.6148244e-105
-1.5755753e-105
-1.5844499e-105
-1.5950701e-105
-1.7026675e-105
-1.7378975e-105
-1.823975e-105
-2.0636108e-105
-2.1802026e-105
-2.4146899e-105
-2.8462375e-105
-3.5437761e-105
-3.7195715e-105
-4.8105168e-105
-5.5910399e-105
-8.6635731e-105
-1.1760511e-104
-1.6018976e-104
-2.5016398e-104
-1.908443e-104
-1.5799639e-104
-2.2427502e-105
-6.2886661e-10
5.1916176e-22
-7.5750349e-34
6.4104597e-45
9.75521e-56
2.7876669e-66
7.2674869e-76
-6.0372733e-85
1.5706187e-93
-4.7410193e-101
3.7584773e-108
1.2683399e-112
1.0104896e-112
1.1035543e-112
9.0630706e-113
8.7461421e-113
7.7674091e-113
8.8585599e-113
7.6504214e-113
7.7423725e-113
7.6130794e-113
7.8029125e-113
8.1880792e-113
8.4277772e-113
8.9717573e-113
1.0385257e-112
1.0730318e-112
1.185164e-112
1.4315817e-112
1.7700837e-112
1.9290459e-112
2.4942722e-112
2.9810549e-112
4.6476747e-112
6.5752713e-112
9.1223934e-112
1.358955e-111
9.6897278e-112
6.1132247e-112
4.6454888e-113
-4.8471202e-10
3.0783994e-22
-3.4149088e-34
1.8061656e-45
2.5904499e-56
5.5857657e-67
8.0707383e-77
-6.4785657e-86
1.1725888e-94
-1.993841e-102
1.7307734e-109
-8.8161275e-117
-4.7978178e-120
-5.311644e-120
-4.3760507e-120
-4.2502511e-120
-3.6152504e-120
-4.0702341e-120
-3.4895596e-120
-3.5416036e-120
-3.5530657e-120
-3.5345659e-120
-3.8658385e-120
-3.9631144e-120
-4.1730692e-120
-4.8005131e-120
-4.988229e-120
-5.6356025e-120
-6.8318055e-120
-8.3834696e-120
-9.2364762e-120
-1.2259851e-119
-1.4820311e-119
-2.3418044e-119
-3.3882016e-119
-4.8525255e-119
-6.8602487e-119
-4.4687801e-119
-2.1578063e-119
-1.7144097e-120
-3.9478629e-10
1.9450339e-22
-1.6585939e-34
5.8766844e-46
8.441112e-57
1.4227146e-67
1.2801132e-77
-1.1678359e-86
1.5623542e-95
-1.5543539e-103
1.3697117e-110
-7.3859091e-118
3.5090051e-125
2.415805e-127
1.9404606e-127
1.9212062e-127
1.6187654e-127
1.8032173e-127
1.6072341e-127
1.6112609e-127
1.6047597e-127
1.5628744e-127
1.7446169e-127
1.782925e-127
1.8397225e-127
2.2068034e-127
2.241971e-127
2.616653e-127
3.0845789e-127
3.7924957e-127
4.3390193e-127
5.764134e-127
7.0135355e-127
1.1352046e-126
1.6886649e-126
2.3734666e-126
3.0985602e-126
1.7683045e-126
7.7683195e-127
-1.6665563e-127
-3.3657163e-10
1.303304e-22
-8.6379587e-35
2.1498672e-46
3.3627955e-57
4.5728501e-68
2.7704564e-78
-4.077643e-87
4.2684608e-96
-2.7278997e-104
1.9647966e-111
-1.0981848e-118
4.9656627e-126
-2.301383e-133
-8.62348e-135
-8.565276e-135
-7.1683618e-135
-7.9139593e-135
-7.0142691e-135
-6.9791961e-135
-6.8606425e-135
-6.7701535e-135
-7.3908294e-135
-7.7813634e-135
-7.8544289e-135
-9.550216e-135
-9.6864506e-135
-1.1559523e-134
-1.3613325e-134
-1.6709714e-134
-1.9140381e-134
-2.605345e-134
-3.2470865e-134
-5.1970225e-134
-7.838238e-134
-1.0872047e-133
-1.2720441e-133
-6.3596911e-134
-3.2211922e-134
-3.8163579e-135
-2.9678504e-10
9.1824758e-23
-4.7880296e-35
8.6748975e-47
1.7076004e-57
1.9328244e-68
8.3762896e-79
1.0264426e-86
-8.9105744e-96
3.8792965e-104
-1.8445519e-111
9.7785108e-119
-4.1094095e-126
1.6462266e-133
-6.2397485e-141
3.4607532e-142
2.8633423e-142
3.0896296e-142
2.7251681e-142
2.7455954e-142
2.6875772e-142
2.6304134e-142
2.912058e-142
3.1201198e-142
3.0449739e-142
3.7870929e-142
3.800882e-142
4.5710769e-142
5.621503e-142
6.6738909e-142
7.8268846e-142
1.1115941e-141
1.4082649e-141
2.3208456e-141
3.6752527e-141
4.7546234e-141
4.8102647e-141
2.1329965e-141
1.6001698e-141
-6.5504045e-143
-2.6821875e-10
6.758415e-23
-2.8113118e-35
3.8171178e-47
1.363039e-57
1.3264409e-68
4.3244171e-79
3.4374218e-88
-2.6301297e-97
8.2712813e-106
-2.4606431e-113
1.1302928e-120
-4.1052586e-128
1.403397e-135
-4.8318952e-143
-1.0102074e-149
-9.5811585e-150
-1.0324945e-149
-9.0541e-150
-9.2532424e-150
-8.9024812e-150
-8.6697046e-150
-9.6128042e-150
-1.0401675e-149
-1.0352579e-149
-1.2680816e-149
-1.284138e-149
-1.5708758e-149
-1.9112357e-149
-2.3587368e-149
-2.7811306e-149
-4.112911e-149
-5.3586269e-149
-8.9527942e-149
-1.5129173e-148
-1.8866273e-148
-1.6846203e-148
-6.6268784e-149
-9.7819674e-149
-1.1648657e-150
-2.4726961e-10
5.1821318e-23
-1.7472957e-35
1.8240348e-47
-2.7729732e-57
-2.396163e-68
-6.1251393e-79
-2.108744e-88
1.5195568e-97
-3.6333903e-106
6.5992927e-114
-2.4085133e-121
7.1828854e-129
-2.0169123e-136
5.653354e-144
-1.585424e-151
2.7294046e-157
2.8374375e-157
2.5400361e-157
2.5498094e-157
2.4927659e-157
2.3941548e-157
2.7163873e-157
2.8952949e-157
2.8942809e-157
3.6024928e-157
3.6655719e-157
4.4300131e-157
5.470827e-157
6.7140582e-157
8.211118e-157
1.2364214e-156
1.6540529e-156
2.878639e-156
5.1198855e-156
6.3338206e-156
4.990243e-156
1.857074e-156
8.2893876e-156
-2.5537879e-158
-2.3225365e-10
4.1399099e-23
-1.1520206e-35
9.4743455e-48
-1.7545133e-58
-1.3843155e-69
-2.8613408e-80
-5.6385547e-90
4.1028862e-99
-7.7964418e-108
9.607921e-116
-2.9605445e-123
7.9567057e-131
-2.0454562e-138
5.2531797e-146
-1.3340829e-153
3.4500233e-161
-7.2313467e-165
-6.4618765e-165
-6.6734652e-165
-6.4465659e-165
-6.2483964e-165
-7.0108102e-165
-7.3994163e-165
-7.4065577e-165
-9.3882447e-165
-9.6108255e-165
-1.1501024e-164
-1.4153225e-164
-1.7262052e-164
-2.0955144e-164
-3.2255983e-164
-4.495986e-164
-7.9122253e-164
-1.4476502e-163
-1.7456555e-163
-1.2391033e-163
-4.7249587e-164
-1.264282e-162
-7.5706166e-166
-2.2238728e-10
3.4517995e-23
-8.0865183e-36
5.3684685e-48
-4.7278412e-59
-3.4710108e-70
-5.9155874e-81
-7.5559002e-91
6.0106757e-100
-9.3974393e-109
8.7380065e-117
-2.7901994e-124
8.3538725e-132
-2.3547526e-139
6.8113667e-147
-1.9833443e-154
5.83359e-162
-1.7304529e-169
1.9451772e-172
2.0148603e-172
1.9450028e-172
1.8697723e-172
2.1295632e-172
2.2363909e-172
2.2220737e-172
2.755636e-172
2.7795437e-172
3.3114871e-172
3.9806281e-172
4.879308e-172
5.7189745e-172
8.6812517e-172
1.1936264e-171
2.0547425e-171
3.6697008e-171
4.1603406e-171
2.6690849e-171
1.1593397e-171
2.5903364e-169
-2.6885043e-173
-2.1725083e-10
3.0118243e-23
-6.0698394e-36
3.3342543e-48
-1.8199842e-59
-1.2565945e-70
-1.7892348e-81
-1.5968927e-91
1.5509662e-100
-2.0610944e-109
1.6031691e-117
-8.738225e-125
5.1561534e-132
-2.6458635e-139
1.4521469e-146
-8.2546828e-154
4.8349398e-161
-2.8984471e-168
1.6709828e-175
-1.1965687e-179
-1.1672538e-179
-1.1197382e-179
-1.2735884e-179
-1.3024203e-179
-1.270055e-179
-1.5087549e-179
-1.4610024e-179
-1.6227329e-179
-1.9756393e-179
-2.1607907e-179
-2.3947406e-179
-3.4204654e-179
-4.3498955e-179
-6.9010024e-179
-1.0621097e-178
-1.0057043e-178
-5.7961446e-179
-3.0926087e-179
-2.785844e-176
-1.0378336e-180
-2.1649092e-10
2.7570737e-23
-4.8921037e-36
2.2794929e-48
-8.7199382e-60
-5.7418027e-71
-6.9588502e-82
-4.6126918e-92
6.8689044e-101
-8.0888209e-110
5.5065175e-118
1.2134676e-123
2.0878805e-130
6.135437e-137
1.717463e-143
4.0284849e-150
9.8837756e-157
2.2438919e-163
5.2349103e-170
1.174386e-176
3.0557501e-183
-2.7146603e-186
-3.9141553e-186
-4.0110782e-186
-4.3553723e-186
-5.9460071e-186
-1.5923502e-185
-6.3363434e-185
3.0311856e-185
1.3889054e-185
7.146131e-186
6.6925062e-186
5.604632e-186
6.1360616e-186
6.1045287e-186
3.543835e-186
1.5961085e-186
1.032408e-186
1.270316e-183
-3.6557736e-188
-2.1958492e-10
2.6489637e-23
-4.240441e-36
1.7174057e-48
-4.919935e-60
-3.2111603e-71
-3.439777e-82
-1.8074108e-92
1.2472651e-100
-1.3906991e-109
8.4977152e-118
7.1854152e-125
3.6667819e-132
2.384816e-139
1.6385198e-146
1.18928e-153
9.5057942e-161
7.3027396e-168
6.2313867e-175
5.4434321e-182
4.9447148e-189
-2.5740878e-193
-3.3934921e-193
-3.8705702e-193
-4.1331692e-193
-5.8258178e-193
-1.5429709e-192
-6.8959387e-192
2.7774871e-192
1.1858635e-192
6.1593132e-193
6.4978657e-193
6.0746405e-193
6.6770411e-193
1.4035187e-192
-5.1891574e-193
-8.7927238e-194
-3.7813762e-194
-3.1676639e-191
-1.1578433e-195
-2.256283e-10
2.6602347e-23
-3.9381493e-36
1.4189083e-48
-3.1554021e-60
-2.2310723e-71
-2.2569251e-82
-1.0178227e-92
-1.7812395e-101
2.1033164e-110
-1.1157211e-118
1.4606518e-125
6.5785991e-132
-1.8160295e-138
2.6749443e-145
-2.9932961e-152
2.6750721e-159
-2.069217e-166
1.526166e-173
-1.0182971e-180
6.6048916e-188
-4.1996934e-195
2.2116767e-200
2.4745607e-200
2.7978051e-200
4.3049969e-200
1.1984139e-199
6.5104228e-199
-3.3853402e-199
-2.2827589e-199
-3.378681e-199
3.6111995e-199
8.8465653e-200
5.7106858e-200
9.986029e-200
-6.1727884e-200
1.0632395e-200
1.001885e-201
5.8748355e-199
-3.158639e-203
-2.3322964e-10
2.7643846e-23
-3.8755958e-36
1.2688281e-48
-2.2395361e-60
-2.0543526e-71
-2.1674679e-82
-9.2424861e-93
-6.3862299e-102
9.8420317e-111
-4.5242941e-119
6.3402269e-127
-9.9369653e-135
1.4227991e-142
-1.8957263e-150
2.4483833e-158
-3.3318101e-166
6.4308974e-174
-2.5216225e-181
1.4697577e-188
-9.1958692e-196
5.8629635e-203
-2.5486008e-208
-2.8347281e-208
-3.2989769e-208
-5.2435772e-208
-1.5096422e-207
-8.4382084e-207
4.6057891e-207
1.1653695e-206
-1.1662061e-204
-7.1560696e-207
-2.9513579e-207
-2.3300419e-207
-9.6699693e-207
1.7183473e-206
-4.3316766e-208
-1.4300227e-209
-1.0844993e-206
-7.698202e-211
-2.4066614e-10
2.9268061e-23
-3.9686601e-36
1.2026028e-48
-1.7223292e-60
-3.1768594e-71
-3.9993933e-82
-1.7985149e-92
-7.4900687e-102
2.6761727e-110
-1.1103683e-118
6.2453489e-127
-3.6142689e-135
2.0433751e-143
-1.1192477e-151
5.9970802e-160
-3.170158e-168
1.6516032e-176
-8.5552078e-185
4.4155142e-193
-2.2743282e-201
1.1445749e-209
1.2646791e-216
1.4763041e-216
1.740628e-216
2.8148271e-216
8.2444111e-216
4.7504446e-215
-2.6681864e-215
-7.4547982e-215
8.4464389e-213
4.9773855e-215
2.406885e-215
2.1696151e-215
1.1842562e-214
-1.992557e-214
5.2856556e-216
1.1902479e-217
3.1141581e-214
-1.7146472e-218
-2.463726e-10
3.1014932e-23
-4.1345297e-36
1.177527e-48
-1.4103696e-60
1.0135043e-70
1.790883e-81
9.3298411e-92
2.7641933e-101
1.2490275e-109
-5.169328e-118
1.7406591e-126
-5.8929086e-135
1.9956036e-143
-6.6915539e-152
2.2273626e-160
-7.3795858e-169
2.4387167e-177
-8.0585025e-186
2.6621465e-194
-8.8091662e-203
2.9160868e-211
-9.7072461e-220
-4.9350442e-225
-5.8757559e-225
-9.5900028e-225
-2.8432723e-224
-1.6555672e-223
9.4339074e-224
2.7714046e-223
-3.2996743e-221
-1.9394272e-223
-9.6991968e-224
-9.8850687e-224
-6.1958378e-223
1.1638582e-222
-3.1015546e-224
-6.9382198e-226
1.0362399e-220
-3.748512e-226
-2.4956217e-10
3.240346e-23
-4.2893131e-36
1.1622149e-48
-1.2117457e-60
1.6094211e-71
4.4123068e-82
2.6194924e-92
5.8654931e-102
7.7642364e-111
-3.5930136e-119
9.2550316e-128
-2.3928113e-136
6.3579889e-145
-1.6989104e-153
4.5591067e-162
-1.2276594e-170
3.3161481e-179
-8.9933742e-188
2.4440391e-196
-6.6817843e-205
1.8335922e-213
-5.0470674e-222
1.3948051e-230
1.6289408e-233
2.670719e-233
7.9448572e-233
4.6478848e-232
-2.6624361e-232
-7.9901474e-232
9.729279e-230
5.6541455e-232
2.8206471e-232
3.0778411e-232
2.0637508e-231
-4.1673731e-231
1.2006355e-232
7.0598801e-234
2.1274056e-228
-8.6030193e-234
-2.5052194e-10
3.3143309e-23
-4.3706605e-36
1.1371715e-48
-1.0811447e-60
1.0261244e-71
3.1020068e-82
1.6130024e-92
2.6749902e-102
2.260342e-111
-1.2144432e-119
2.9413381e-128
-7.3771324e-137
1.9506957e-145
-5.2783615e-154
1.4500219e-162
-4.0289532e-171
1.1335458e-179
-3.2173047e-188
9.2024056e-197
-2.6475619e-205
7.6689799e-214
-2.224932e-222
6.4674162e-231
-1.8850624e-239
-7.7576614e-242
-2.2956822e-241
-1.3360264e-240
7.5879419e-241
2.2858418e-240
-2.7757154e-238
-1.5699794e-240
-7.5629526e-241
-8.4529154e-241
-5.7238033e-240
1.2010993e-239
-4.0195153e-241
2.3170212e-242
2.3097955e-236
-2.2784911e-241
-2.503148e-10
3.328951e-23
-4.3657611e-36
1.0981638e-48
-9.973378e-61
1.1530773e-71
1.9865854e-82
6.5431614e-93
7.6034172e-103
5.4392363e-112
-2.7267998e-120
7.6091096e-129
-2.4437654e-137
8.7047363e-146
-3.2578438e-154
1.2580942e-162
-5.0003466e-171
2.0323084e-179
-8.4378287e-188
3.552702e-196
-1.5148359e-204
6.4862333e-213
-2.7700569e-221
1.1419212e-229
-4.01384e-238
1.665951e-247
9.5068326e-250
5.4279474e-249
-2.9973724e-249
-8.8305699e-249
1.0414555e-246
5.5473128e-249
2.4737705e-249
2.6867599e-249
1.7313418e-248
-3.6497556e-248
1.5637419e-249
2.0583007e-249
1.9189345e-244
-7.8778317e-249
-2.5014904e-10
3.3169388e-23
-4.3127741e-36
1.0541093e-48
-9.5039689e-61
5.1604712e-71
4.5403677e-82
8.7622821e-93
6.9442424e-103
5.0026354e-112
-1.680592e-120
6.8441443e-129
-4.9590212e-137
4.9449647e-145
-5.7636617e-153
7.6051143e-161
-1.1150601e-168
1.8018795e-176
-3.1559108e-184
5.9010555e-192
-1.1569502e-199
2.338805e-207
-4.6956245e-215
9.2688745e-223
-1.7451038e-230
3.0797401e-238
-4.9265279e-246
7.0709338e-254
3.8467247e-257
9.9801877e-257
-1.0260144e-254
-4.6108938e-257
-1.6838079e-257
-1.5800702e-257
-8.6359891e-257
1.7445852e-256
-1.1971921e-257
-1.412367e-257
1.4865066e-252
-3.9713764e-256
-2.5087224e-10
3.3157571e-23
-4.2723702e-36
1.0192315e-48
-9.3269939e-61
-1.1871273e-71
-6.274242e-83
-7.7562607e-94
-4.3201711e-104
-3.4223422e-113
7.0867974e-122
-6.2241043e-130
-8.1670029e-138
-6.9050364e-146
-5.3124544e-154
-3.8522203e-162
-2.6682817e-170
-1.7829249e-178
-1.1652892e-186
-7.4756902e-195
-4.7658153e-203
-3.0140434e-211
-1.9153558e-219
-1.2250122e-227
-8.0168315e-236
-5.3388869e-244
-3.7240846e-252
-2.6564827e-260
2.9693262e-265
8.7145252e-265
-1.021609e-262
-5.2123422e-265
-2.3463351e-265
-4.1891292e-265
-4.689903e-263
-1.2884346e-263
-2.5671437e-265
3.7163654e-266
1.2452651e-260
-4.0451378e-263
-2.5278924e-10
3.3501871e-23
-4.2967446e-36
1.0058591e-48
-9.3406637e-61
-5.4788876e-72
-2.077626e-83
-1.8760601e-94
-7.9030083e-105
-6.6456454e-114
9.4893292e-123
-2.8256333e-129
-1.0315279e-137
-3.2461757e-146
-1.0052765e-154
-3.0778212e-163
-9.3197834e-172
-2.7985123e-180
-8.3709833e-189
-2.4938024e-197
-7.4134597e-206
-2.2057756e-214
-6.5941136e-223
-1.975634e-231
-5.9554331e-240
-1.8114071e-248
-5.5685077e-257
-1.7370484e-265
3.9317392e-274
2.745847e-273
-3.2294379e-271
-1.8035192e-273
-1.1140326e-273
-1.6845852e-273
-2.1218786e-271
-5.7092577e-272
-1.1626327e-273
3.9978838e-274
1.3064459e-268
-6.1215567e-269
-2.5573045e-10
3.4274722e-23
-4.4150197e-36
1.0215306e-48
-9.429147e-61
-4.216149e-72
-1.3411684e-83
-1.0085803e-94
-3.5315381e-105
-2.7397824e-114
3.1774895e-123
5.1058361e-131
1.2524075e-139
2.7709275e-148
6.1684959e-157
1.3777715e-165
3.0821261e-174
6.9027435e-183
1.5477154e-191
3.4792689e-200
7.8283765e-209
1.7657996e-217
3.9866891e-226
9.0247267e-235
2.0472268e-243
4.6521072e-252
1.0600784e-260
2.4213244e-269
5.5484909e-278
6.2387471e-282
-7.3112103e-280
-4.2001815e-282
-6.1153235e-282
-4.0645867e-282
-5.3712473e-280
-1.5575401e-280
-3.4142355e-282
3.206364e-282
2.0316337e-276
1.061387e-275
-2.5923738e-10
3.5401882e-23
-4.6320234e-36
1.0690872e-48
-9.5248479e-61
-4.3637e-72
-1.3380166e-83
-9.4702585e-95
-3.0482068e-105
-1.9579545e-114
2.1717349e-123
2.7162292e-131
5.9983545e-140
1.211468e-148
2.4872475e-157
5.162678e-166
1.0828801e-174
2.287228e-183
4.8511212e-192
1.0344556e-200
2.2158683e-209
4.7592541e-218
1.0239789e-226
2.2040321e-235
4.7376345e-244
1.0160587e-252
2.1703794e-261
4.6240443e-270
9.7866469e-279
2.0570666e-287
-1.5008591e-288
-8.6768952e-291
-1.9131516e-290
-8.2657698e-291
-1.1102283e-288
-3.4530455e-289
-8.9531612e-291
4.1012276e-290
5.9073755e-284
-1.0312289e-282
-2.6277135e-10
3.6717145e-23
-4.9314716e-36
1.1472691e-48
-9.6464265e-61
-6.2271845e-72
-2.0957458e-83
-1.5638773e-94
-5.1105232e-105
-2.7197266e-114
3.3735323e-123
5.2520255e-131
1.2604793e-139
2.7688184e-148
6.2303861e-157
1.4312362e-165
3.3391386e-174
7.8770949e-183
1.874524e-191
4.4952767e-200
1.0842833e-208
2.6232479e-217
6.3632669e-226
1.5409468e-234
3.7189747e-243
8.9257588e-252
2.1281091e-260
4.8465189e-269
-3.5076565e-276
-9.3694081e-282
-3.4648145e-288
-8.0441053e-295
-5.5583401e-299
-1.7307435e-299
-2.3243431e-297
-7.8182721e-298
-2.5985542e-299
1.4764929e-297
6.8780028e-291
8.2318898e-290
-2.6588618e-10
3.8024621e-23
-5.280307e-36
1.2508144e-48
-9.859582e-61
-1.9239161e-71
-8.1004024e-83
-7.0925598e-94
-2.5877724e-104
-1.2293172e-113
1.9929936e-122
6.6415096e-130
2.0413041e-138
5.6906979e-147
1.6365366e-155
4.8349516e-164
1.4579882e-172
4.4711301e-181
1.3895521e-189
4.3640515e-198
1.3819342e-206
4.3953444e-215
1.3958932e-223
4.44246e-232
1.4037257e-240
3.6212715e-249
6.1670702e-256
-4.6679036e-262
-1.0081694e-267
-2.6158447e-273
-9.7716104e-280
-2.2881783e-286
-3.3084406e-293
-3.0414679e-300
-6.0715654e-306
-2.1815062e-306
-1.0447858e-307
3.0185058e-304
-7.5676335e-298
-5.6339421e-297
-2.6832554e-10
3.9158833e-23
-5.6357905e-36
1.370524e-48
-1.021258e-60
1.5185758e-71
9.2884286e-83
1.0592664e-93
4.7221154e-104
2.2107591e-113
-5.5088197e-122
8.5211914e-129
4.0077615e-137
1.669581e-145
7.2267371e-154
3.2412451e-162
1.4969403e-170
7.0602956e-179
3.3966605e-187
1.6525148e-195
8.1112071e-204
3.9992763e-212
1.9709489e-220
8.3064504e-229
1.6369904e-235
-1.1766028e-241
9.2911124e-248
-7.2466312e-254
-1.585677e-259
-4.1596533e-265
-1.5800513e-271
-3.7602586e-278
-5.584182e-285
-5.2790517e-292
-3.8152239e-299
-2.6775824e-306
-4.469503e-313
-2.3260162e-310
3.7182184e-305
3.903097e-304
-2.7003355e-10
4.0026033e-23
-5.9563633e-36
1.4943065e-48
-1.0707629e-60
6.0347867e-72
6.6557148e-83
1.1020658e-93
6.5432333e-104
3.3383267e-113
-1.5655642e-121
4.5156259e-129
4.1217217e-137
3.1648263e-145
2.5474969e-153
2.1516912e-161
1.8924452e-169
1.7157185e-177
1.561853e-185
1.9565813e-193
-4.8032723e-201
8.0356322e-208
-9.2587701e-215
1.1924852e-221
-1.5319015e-228
1.8580002e-235
-2.6595586e-242
3.6569743e-249
-6.8744522e-256
1.7575639e-262
-1.8989258e-268
-1.6993453e-274
-3.9128669e-281
-4.8400985e-288
-5.2947826e-295
-1.8681681e-301
-5.5589567e-307
2.4483947e-312
-2.3498803e-312
-2.7335156e-311
-2.7110185e-10
4.0612648e-23
-6.2131605e-36
1.6097062e-48
-1.1306616e-60
4.2712933e-72
1.4445942e-82
3.946673e-93
3.3981268e-103
2.0756676e-112
-2.5877216e-120
5.1588398e-128
1.5530183e-135
3.2603932e-143
7.2928559e-151
1.9893318e-158
-1.2862177e-166
1.4394304e-172
-2.3446083e-179
3.550513e-186
-4.8945232e-193
6.1244757e-200
-7.1773716e-207
9.3029412e-214
-1.19791e-220
1.4764521e-227
-2.1513432e-234
3.0300685e-241
-5.920513e-248
1.5823942e-254
-1.7928028e-260
-1.6911847e-266
-4.1751396e-273
-5.4849654e-280
-6.2189847e-287
-1.9795875e-293
-3.5715889e-299
-3.9558055e-307
-8.1474345e-314
1.0193026e-312
-2.716931e-10
4.0963713e-23
-6.396436e-36
1.7071329e-48
-1.1949421e-60
3.684066e-72
-2.3786759e-82
-1.2979914e-92
-1.7725959e-102
-1.4132688e-111
5.2797964e-118
-9.8996911e-126
7.4907813e-133
-2.3433805e-139
5.9226271e-146
-9.8360151e-153
1.3441395e-159
-1.6864237e-166
1.8589912e-173
-1.9822255e-180
2.0505612e-187
-2.1805666e-194
2.091486e-201
-2.2882161e-208
2.3741198e-215
-2.8101705e-222
3.5191566e-229
-5.2992485e-236
9.6567695e-243
-2.580329e-249
1.8989074e-255
9.248452e-262
2.2142525e-268
3.341103e-275
1.1572773e-281
-9.0368342e-289
2.3224755e-296
-4.8230154e-304
2.0135865e-311
1.8018198e-312
-2.7197626e-10
4.1149191e-23
-6.5137571e-36
1.7821438e-48
-1.2573475e-60
3.5013747e-72
-7.7717736e-83
-1.3643138e-92
-3.2908582e-102
-3.7106577e-111
-1.1865695e-118
2.546059e-126
-8.082932e-134
3.0884834e-141
-1.1926446e-148
4.4551806e-156
-1.6840616e-163
6.1658932e-171
-2.2894519e-178
8.3529549e-186
-3.1133002e-193
1.2171638e-200
-5.2491032e-208
2.72629e-215
-1.8180334e-222
1.7034783e-229
-1.9684723e-236
2.7213886e-243
-4.8053691e-250
1.2236152e-256
-8.3707096e-263
-3.5268259e-269
-8.257391e-276
-1.0892329e-282
-3.7784787e-289
3.2495044e-296
-1.0561614e-303
3.2788835e-311
-8.1077602e-313
-2.4343074e-313
-2.720882e-10
4.1236055e-23
-6.5822874e-36
1.8355534e-48
-1.3129763e-60
3.4969599e-72
-5.607268e-83
2.4868836e-92
1.2501671e-101
2.1453723e-110
5.1604803e-118
-1.4397384e-125
4.1874379e-133
-1.3566012e-140
4.530647e-148
-1.5069189e-155
4.9969922e-163
-1.6702312e-170
5.606504e-178
-1.9162518e-185
6.6097492e-193
-2.2326638e-200
7.6022747e-208
-2.5612679e-215
8.7159068e-223
-2.955149e-230
1.0091433e-237
-3.4545687e-245
1.1640301e-252
-3.8937452e-260
1.2934712e-267
-4.1478788e-275
1.6565281e-282
-1.8956136e-290
1.1072457e-296
-1.0151293e-303
4.3171013e-311
-5.2598419e-314
1.4884583e-313
1.2386083e-313
-2.7212139e-10
4.1273984e-23
-6.6204549e-36
1.871651e-48
-1.3591973e-60
3.5722163e-72
-5.00506e-83
7.290477e-93
1.1633199e-101
3.2854606e-110
8.7163913e-118
-3.5515958e-125
1.2585759e-132
-4.7564267e-140
1.8376723e-147
-7.3504683e-155
2.8688345e-162
-1.1773486e-169
4.8843173e-177
-1.9829976e-184
8.0170055e-192
-3.2846181e-199
1.3592572e-206
-5.5892953e-214
2.3018939e-221
-9.3674442e-229
3.7608985e-236
-1.5248467e-243
6.1195762e-251
-2.287901e-258
2.1709462e-266
4.5220989e-272
-3.4075172e-278
1.8040728e-284
-5.8134208e-291
9.5285998e-298
-7.9258352e-305
5.8949362e-312
1.1302227e-313
-1.350979e-313
-2.7212872e-10
4.1293078e-23
-6.6427462e-36
1.8958127e-48
-1.3956868e-60
3.674132e-72
-4.866254e-83
5.1919576e-93
-2.7151139e-101
-1.3882873e-109
-4.5175257e-117
2.9948902e-124
-1.4671225e-131
7.5346872e-139
-3.9385501e-146
2.0431485e-153
-1.1372805e-160
6.3001024e-168
-3.6009866e-175
2.0564348e-182
-1.1466139e-189
6.6875352e-197
-3.771715e-204
2.1632181e-211
-1.254428e-218
6.9916544e-226
-3.8247605e-233
1.409728e-240
5.7641573e-247
-4.805392e-253
4.5989062e-259
-3.5374205e-265
2.486084e-271
-1.2797692e-277
4.4469645e-284
-7.9148955e-291
7.1092958e-298
-4.9266771e-305
5.9203859e-312