/*--------------------------------*- C++ -*----------------------------------*\
  =========                 |
  \\      /  F ield         | OpenFOAM: The Open Source CFD Toolbox
   \\    /   O peration     | Website:  https://openfoam.org
    \\  /    A nd           | Version:  10
     \\/     M anipulation  |
\*---------------------------------------------------------------------------*/
FoamFile
{
    format      ascii;
    class       volScalarField;
    location    "0.07";
    object      TporMedia_0;
}
// * * * * * * * * * * * * * * * * * * * * * * * * * * * * * * * * * * * * * //

dimensions      [0 0 0 1 0 0 0];

internalField   nonuniform List<scalar> 
4000
(
-1.2797721e-06
6.7208109e-07
-3.8038972e-05
-3.6062474e-05
-5.6211651e-05
-5.1260638e-05
-4.9899705e-05
-5.0255173e-05
-4.9564148e-05
-4.8997285e-05
-4.9724824e-05
-4.9176175e-05
-4.6940927e-05
-4.7680298e-05
-4.9539721e-05
-4.7236236e-05
-4.7432455e-05
-4.6672416e-05
-4.6408706e-05
-4.7130068e-05
-4.8219761e-05
-4.8329687e-05
-4.7348803e-05
-4.8497002e-05
-4.862458e-05
-4.88567e-05
-5.0382792e-05
-4.9522481e-05
-4.9421203e-05
-5.1097254e-05
-5.0546698e-05
-5.0953709e-05
-5.1956441e-05
-5.385128e-05
-5.4430466e-05
-5.6207291e-05
-5.6303323e-05
-5.6707954e-05
-5.7837422e-05
-5.9739586e-05
-1.1686655e-07
2.3696743e-16
-4.3715707e-14
8.5787422e-13
2.5998211e-12
4.6956374e-12
4.1527725e-12
4.049664e-12
3.9708768e-12
3.9901267e-12
4.0323307e-12
3.9810933e-12
3.6208692e-12
3.7525691e-12
3.86297e-12
3.6339641e-12
3.6710372e-12
3.7585388e-12
3.6256661e-12
3.7513921e-12
3.7366197e-12
3.6717319e-12
3.6613131e-12
3.6605312e-12
3.8890635e-12
3.8683429e-12
3.8528215e-12
4.0854273e-12
4.1857486e-12
4.3795651e-12
4.319038e-12
4.3478577e-12
4.7694276e-12
4.7066061e-12
4.7047394e-12
5.0966347e-12
5.1477843e-12
5.3881883e-12
5.2998036e-12
5.7104212e-12
-4.6749865e-08
-6.4221813e-17
-1.3915476e-23
3.9490454e-21
-3.4807217e-20
-2.7396919e-19
-3.4289004e-19
-3.3473082e-19
-3.3805089e-19
-3.053366e-19
-3.0149007e-19
-3.2230093e-19
-2.7466281e-19
-2.9474391e-19
-2.9748814e-19
-2.6876359e-19
-2.7268519e-19
-2.7579731e-19
-2.8197073e-19
-2.8076569e-19
-2.7519429e-19
-2.8193549e-19
-2.8469351e-19
-2.7006131e-19
-3.1140375e-19
-2.9916648e-19
-3.168466e-19
-3.1183871e-19
-3.3987181e-19
-3.6543069e-19
-3.7283152e-19
-3.6644449e-19
-4.1021368e-19
-3.8039447e-19
-4.0963324e-19
-4.2408189e-19
-4.7855571e-19
-4.931911e-19
-5.0792893e-19
-5.3908964e-19
-2.4761814e-08
3.7083333e-18
6.0235017e-28
2.9813232e-30
2.6361035e-28
5.7505173e-27
2.756569e-26
2.7324614e-26
2.6703262e-26
2.2965628e-26
2.2944398e-26
2.4298649e-26
2.1150932e-26
2.1370128e-26
2.2607386e-26
1.9886265e-26
2.0031267e-26
1.9581371e-26
2.0351873e-26
2.0855024e-26
2.0274125e-26
2.071586e-26
2.1078277e-26
1.9491427e-26
2.3129535e-26
2.3132555e-26
2.444491e-26
2.4134963e-26
2.6978148e-26
2.8804683e-26
2.89857e-26
2.9863437e-26
3.412114e-26
3.2284687e-26
3.3467282e-26
3.621505e-26
4.3083367e-26
4.3941867e-26
4.420133e-26
4.9276972e-26
-1.5307024e-08
6.956768e-19
8.5172876e-29
2.3141873e-38
-1.0297315e-34
-4.5228053e-35
-1.3707198e-33
-2.1940932e-33
-1.9918956e-33
-1.76368e-33
-1.634773e-33
-1.7520801e-33
-1.4655522e-33
-1.6000866e-33
-1.6341568e-33
-1.3782409e-33
-1.4333912e-33
-1.4183977e-33
-1.4647667e-33
-1.4954399e-33
-1.4701481e-33
-1.4569499e-33
-1.5366508e-33
-1.4216816e-33
-1.70345e-33
-1.6677621e-33
-1.7849892e-33
-1.7347578e-33
-2.0613134e-33
-2.1912429e-33
-2.1130572e-33
-2.3672865e-33
-2.7065402e-33
-2.45924e-33
-2.7278707e-33
-2.9307724e-33
-3.8068129e-33
-3.7327857e-33
-4.0223309e-33
-4.377137e-33
-1.0431308e-08
2.2321169e-19
3.2672848e-29
4.1654783e-39
-1.5505637e-43
1.8099645e-43
2.8225509e-41
1.7656563e-40
1.5488749e-40
1.2580317e-40
1.161626e-40
1.2237091e-40
1.0201743e-40
1.1167524e-40
1.1218416e-40
9.6039896e-41
9.7675841e-41
9.5634109e-41
1.0078301e-40
1.0403448e-40
1.0212632e-40
9.8929071e-41
1.0484687e-40
9.9133034e-41
1.2023454e-40
1.1337091e-40
1.2624456e-40
1.2488129e-40
1.4934526e-40
1.5463699e-40
1.6252289e-40
1.7512241e-40
2.058808e-40
1.9399658e-40
2.0268096e-40
2.3874556e-40
3.1080618e-40
3.2537266e-40
3.500703e-40
3.7642287e-40
-7.5917046e-09
9.2717552e-20
-2.8946205e-28
-2.2166766e-38
-9.6189553e-48
-5.2465182e-52
-2.3715113e-49
-1.2013599e-47
-1.2399949e-47
-8.6127728e-48
-8.0105914e-48
-8.1564184e-48
-7.0816485e-48
-7.3727856e-48
-7.6541608e-48
-6.4897934e-48
-6.9501372e-48
-6.3317634e-48
-6.7100008e-48
-6.8981138e-48
-6.6250507e-48
-6.6071693e-48
-6.8905815e-48
-6.7088494e-48
-8.1299031e-48
-7.9561518e-48
-8.7939401e-48
-8.6180004e-48
-1.0468475e-47
-1.0568261e-47
-1.2002444e-47
-1.2911048e-47
-1.570069e-47
-1.4828211e-47
-1.5089518e-47
-1.8663442e-47
-2.4381386e-47
-2.5889075e-47
-2.9463027e-47
-3.0571205e-47
-5.770829e-09
4.4979162e-20
-2.8780277e-30
-1.5505578e-40
-2.9122147e-50
1.1290194e-58
9.7421061e-58
4.21987e-55
1.0694745e-54
5.8017357e-55
5.4867269e-55
5.3897633e-55
4.7088535e-55
4.8156372e-55
4.7619789e-55
4.3258072e-55
4.5162398e-55
3.9796738e-55
4.2699544e-55
4.5170725e-55
4.3990949e-55
4.3679991e-55
4.4346957e-55
4.4341402e-55
5.3455015e-55
5.1362069e-55
6.184566e-55
5.7969647e-55
7.0179645e-55
7.3375593e-55
8.0559591e-55
8.9185476e-55
1.1000557e-54
1.072504e-54
1.1292907e-54
1.3885898e-54
1.9092959e-54
2.1940564e-54
2.3929456e-54
2.4298149e-54
-4.4936891e-09
2.4017612e-20
-5.816318e-31
-2.5215223e-41
-2.5226514e-51
-1.1192412e-59
-2.302008e-66
-6.4919176e-63
-1.0443542e-61
-4.2299448e-62
-3.6554955e-62
-3.4788449e-62
-3.05136e-62
-3.0780783e-62
-3.1150728e-62
-2.7267825e-62
-2.7904345e-62
-2.5363443e-62
-2.646721e-62
-2.7674333e-62
-2.8248413e-62
-2.7290808e-62
-2.7511139e-62
-2.7749636e-62
-3.4166708e-62
-3.3083643e-62
-3.9170902e-62
-3.8072408e-62
-4.6182798e-62
-4.8165439e-62
-5.4963418e-62
-6.0981049e-62
-7.913105e-62
-7.5954106e-62
-8.1590863e-62
-1.0258752e-61
-1.4564191e-61
-1.7334223e-61
-1.8932627e-61
-1.7195139e-61
-3.5258139e-09
1.3558763e-20
-1.7059938e-31
-6.8210792e-42
-4.1576899e-52
-2.9717346e-61
4.875555e-70
4.7581865e-71
8.590928e-69
3.1173503e-69
2.3065807e-69
2.1197594e-69
1.8709532e-69
1.866809e-69
1.8993e-69
1.6465765e-69
1.7329552e-69
1.5802354e-69
1.59889e-69
1.7312961e-69
1.6900012e-69
1.6338689e-69
1.6511914e-69
1.685016e-69
2.1622553e-69
2.0589435e-69
2.394904e-69
2.4626143e-69
2.8301118e-69
3.0071055e-69
3.4123178e-69
3.9905389e-69
5.3148336e-69
5.0100308e-69
5.8063934e-69
7.3879272e-69
1.0409435e-68
1.2672795e-68
1.3637342e-68
1.1805273e-68
-2.751044e-09
7.8640417e-21
-5.9361546e-32
-2.620482e-42
-1.072533e-52
-3.0162104e-62
4.034225e-71
-3.4590518e-79
-3.9223374e-76
-2.816868e-76
-1.4438238e-76
-1.2544725e-76
-1.1683594e-76
-1.1196263e-76
-1.1275943e-76
-9.7454463e-77
-1.0272327e-76
-9.3474699e-77
-9.4971424e-77
-1.0114063e-76
-1.0187851e-76
-9.4905691e-77
-9.6867119e-77
-9.7035878e-77
-1.3138687e-76
-1.222876e-76
-1.4458224e-76
-1.448623e-76
-1.7180696e-76
-1.8990382e-76
-2.1604347e-76
-2.566855e-76
-3.504454e-76
-3.2872157e-76
-3.8550567e-76
-5.1601532e-76
-7.5863936e-76
-8.7433441e-76
-9.225967e-76
-7.5202816e-76
-2.0980316e-09
4.5532229e-21
-2.2442808e-32
-1.5906737e-42
-4.712781e-53
-6.7471684e-63
9.3117842e-72
-2.2008877e-80
8.8075822e-84
2.8525922e-83
8.9930531e-84
7.3129429e-84
6.8092186e-84
6.3420675e-84
6.5286493e-84
5.4094348e-84
5.8553248e-84
5.3139993e-84
5.4619337e-84
5.5910426e-84
5.7064647e-84
5.2827862e-84
5.4030145e-84
5.4093341e-84
7.2088741e-84
6.9542076e-84
8.1994875e-84
8.2439872e-84
9.8268608e-84
1.0988497e-83
1.2501041e-83
1.5553904e-83
2.0822658e-83
2.046522e-83
2.496527e-83
3.3204494e-83
5.2708656e-83
5.6790731e-83
5.9328145e-83
4.3645664e-83
-1.5348306e-09
2.5561265e-21
-8.6978213e-33
3.2869182e-42
7.4966613e-53
6.2820026e-63
-1.5582951e-71
2.4402511e-80
-2.8050989e-88
-2.9212275e-90
-5.8099059e-91
-4.0535748e-91
-3.740052e-91
-3.5705002e-91
-3.5638841e-91
-3.0041985e-91
-3.1520028e-91
-2.8650357e-91
-2.8836228e-91
-3.1084477e-91
-3.1123384e-91
-2.7894384e-91
-2.9178385e-91
-2.8864709e-91
-3.955653e-91
-3.7980075e-91
-4.5395641e-91
-4.580087e-91
-5.4441127e-91
-6.212186e-91
-7.0889948e-91
-8.7971428e-91
-1.2229938e-90
-1.2321288e-90
-1.5005004e-90
-2.1527563e-90
-3.4991138e-90
-3.5843725e-90
-3.540879e-90
-1.8407878e-90
-1.0830668e-09
1.3862844e-21
-3.3823203e-33
1.1328923e-43
2.0976707e-54
1.1282413e-64
2.9492076e-73
-3.3588407e-82
2.1144963e-90
7.2006545e-98
3.8031635e-98
2.2437758e-98
1.9632518e-98
1.8496536e-98
1.7955899e-98
1.576586e-98
1.6176443e-98
1.4544737e-98
1.4623667e-98
1.5986495e-98
1.5805115e-98
1.4784355e-98
1.4851611e-98
1.4481183e-98
2.0981048e-98
1.9575029e-98
2.3112302e-98
2.4265502e-98
2.890424e-98
3.3298621e-98
3.8202421e-98
4.7097997e-98
7.0333701e-98
7.0636459e-98
9.0523767e-98
1.2621589e-97
2.1118817e-97
2.0446943e-97
1.8284248e-97
4.7894343e-98
-7.6474467e-10
7.4984873e-22
-1.345969e-33
1.9191797e-44
3.0288714e-55
1.1186142e-65
6.1726768e-75
-5.5689179e-84
2.1087354e-92
-1.1361957e-99
-2.7439025e-105
-1.1474293e-105
-9.6716367e-106
-9.1667825e-106
-8.7920963e-106
-7.8118353e-106
-8.0293498e-106
-7.0115094e-106
-7.2697208e-106
-7.8966127e-106
-7.7356816e-106
-7.2154539e-106
-7.2036343e-106
-7.0900365e-106
-1.0450535e-105
-9.7416333e-106
-1.141586e-105
-1.1971782e-105
-1.42143e-105
-1.6821516e-105
-1.8896248e-105
-2.442823e-105
-3.6250985e-105
-3.8099164e-105
-5.0623183e-105
-7.153841e-105
-1.2001148e-104
-1.0907656e-104
-7.6989499e-105
-9.2448769e-106
-5.6159906e-10
4.2113404e-22
-5.6602927e-34
4.4711782e-45
6.3072639e-56
1.6848616e-66
4.1329748e-76
-3.2346122e-85
7.964486e-94
-2.3058612e-101
1.8481145e-108
5.7241271e-113
4.5403704e-113
4.2377183e-113
4.1342533e-113
3.6051372e-113
3.7492775e-113
3.235199e-113
3.3473912e-113
3.73535e-113
3.5182192e-113
3.3404055e-113
3.3358339e-113
3.2972376e-113
4.8032675e-113
4.5315122e-113
5.2471854e-113
5.7792733e-113
6.5913663e-113
7.9153999e-113
8.9678594e-113
1.1988427e-112
1.81513e-112
1.8994742e-112
2.6718276e-112
3.8015289e-112
6.1013129e-112
5.0867633e-112
2.8207588e-112
1.8795016e-113
-4.3684379e-10
2.5154976e-22
-2.5654174e-34
1.2645758e-45
1.6764183e-56
3.3776448e-67
4.5907419e-77
-3.4731973e-86
5.9567078e-95
-9.6253737e-103
8.1119534e-110
-4.0558352e-117
-2.0911672e-120
-1.9301974e-120
-1.8316359e-120
-1.5840758e-120
-1.6770879e-120
-1.4149275e-120
-1.4582803e-120
-1.6568339e-120
-1.5805776e-120
-1.5122034e-120
-1.5047099e-120
-1.4650797e-120
-2.1992091e-120
-2.0089686e-120
-2.3388801e-120
-2.6537585e-120
-2.9660716e-120
-3.6828413e-120
-4.1883291e-120
-5.4280133e-120
-8.4474563e-120
-9.1842309e-120
-1.290909e-119
-1.9213934e-119
-2.7912118e-119
-2.1533795e-119
-9.2739456e-120
-8.6722874e-121
-3.5947024e-10
1.6056938e-22
-1.2572038e-34
4.1494559e-46
5.483514e-57
8.6359387e-68
7.3214351e-78
-6.2736628e-87
7.9706628e-96
-7.6356058e-104
6.2836662e-111
-3.3639569e-118
1.4852245e-125
8.2906385e-128
8.2387538e-128
6.9148942e-128
7.1392286e-128
6.1748577e-128
6.2543649e-128
6.9767704e-128
6.8734141e-128
6.6928513e-128
6.5143185e-128
6.3293025e-128
9.4491031e-128
8.890802e-128
1.0205225e-127
1.1599993e-127
1.2697271e-127
1.6134849e-127
1.8220224e-127
2.479423e-127
3.6974054e-127
4.2208982e-127
6.2113765e-127
8.8771024e-127
1.2167206e-126
8.0643098e-127
3.2251054e-127
-4.8714467e-128
-3.0946498e-10
1.0881769e-22
-6.6198026e-35
1.5349778e-46
2.1947036e-57
2.7928182e-68
1.5997301e-78
-2.1896761e-87
2.1858284e-96
-1.341135e-104
8.895332e-112
-4.6620974e-119
1.9482798e-126
-8.3538735e-134
-3.4511716e-135
-2.7959988e-135
-2.9183999e-135
-2.5173699e-135
-2.4769708e-135
-2.8373494e-135
-2.84202e-135
-2.7089544e-135
-2.6945046e-135
-2.5492535e-135
-3.9093409e-135
-3.5482127e-135
-4.1004956e-135
-4.723151e-135
-5.2752827e-135
-6.7271855e-135
-7.721366e-135
-1.0516489e-134
-1.617461e-134
-1.7704331e-134
-2.9302828e-134
-3.9608467e-134
-4.8645098e-134
-2.7576698e-134
-1.2888186e-134
-9.9368263e-136
-2.7529329e-10
7.7589819e-23
-3.7161511e-35
6.2761054e-47
1.1186604e-57
1.1890921e-68
4.8964079e-79
7.3237888e-87
-6.0995223e-96
2.5565342e-104
-1.0946114e-111
5.0233617e-119
-1.8671172e-126
6.8856335e-134
-2.3202339e-141
1.0131919e-142
1.0193576e-142
8.9423192e-143
8.876813e-143
9.9972951e-143
1.0071313e-142
9.5016373e-143
9.5189668e-143
9.2684161e-143
1.3902332e-142
1.2732415e-142
1.4911313e-142
1.6980836e-142
1.9481757e-142
2.5326161e-142
2.8491817e-142
4.1036739e-142
6.3357332e-142
6.6055955e-142
1.2198549e-141
1.6484267e-141
1.7765944e-141
8.7872045e-142
6.3629044e-142
-1.6288521e-143
-2.5082151e-10
5.7838342e-23
-2.2141617e-35
2.8053182e-47
8.824829e-58
8.1018307e-69
2.5211391e-79
1.9394576e-88
-1.4344507e-97
4.3491772e-106
-1.1319662e-113
4.3905964e-121
-1.3992886e-128
4.2212536e-136
-1.2697799e-143
-2.5992019e-150
-2.9915448e-150
-2.6325469e-150
-2.6420213e-150
-2.943564e-150
-2.9711138e-150
-2.7905523e-150
-2.8038067e-150
-2.7564378e-150
-4.1646929e-150
-3.775246e-150
-4.5043848e-150
-5.2180787e-150
-5.9729704e-150
-7.7895896e-150
-8.8242902e-150
-1.330706e-149
-2.0537313e-149
-1.8859238e-149
-4.4241193e-149
-6.0921733e-149
-5.6444609e-149
-2.4994466e-149
-4.1747441e-149
-2.9199955e-151
-2.3306068e-10
4.495723e-23
-1.3995637e-35
1.3661133e-47
-2.8510606e-57
-2.330582e-68
-5.695687e-79
-1.8801781e-88
1.31509e-97
-3.032625e-106
5.0632753e-114
-1.6177659e-121
4.3243673e-129
-1.120123e-136
2.8860921e-144
-7.376329e-152
7.8891679e-158
6.6869129e-158
6.787566e-158
7.5556819e-158
7.6715915e-158
7.1980577e-158
7.1515739e-158
7.2008449e-158
1.0672793e-157
9.6425856e-158
1.1774056e-157
1.3507237e-157
1.5598208e-157
2.0355797e-157
2.3463862e-157
3.5184267e-157
5.6911699e-157
3.5343292e-157
1.3057968e-156
1.8055292e-156
1.5072054e-156
6.3656973e-157
4.0627783e-156
-6.746403e-159
-2.2066422e-10
3.6443472e-23
-9.4059719e-36
7.2579764e-48
-1.3475789e-58
-1.003285e-69
-1.9765015e-80
-3.7173984e-90
2.6168297e-99
-4.7893379e-108
5.7307968e-116
-1.7206174e-123
4.6383562e-131
-1.2074961e-138
3.1283333e-146
-8.1555092e-154
2.1059717e-161
-1.7877361e-165
-1.8358881e-165
-2.0529484e-165
-2.0300991e-165
-1.9064101e-165
-1.9101954e-165
-1.9262885e-165
-2.8510502e-165
-2.5397895e-165
-3.0873629e-165
-3.4843357e-165
-3.9819682e-165
-5.2578668e-165
-5.9803956e-165
-8.8904197e-165
-1.4284568e-164
-2.4204785e-165
-3.2840907e-164
-4.4478262e-164
-3.3956714e-164
-1.5290009e-164
-6.0719252e-163
-2.031929e-166
-2.1303232e-10
3.0867339e-23
-6.7462103e-36
4.2231692e-48
-3.7065802e-59
-2.5461378e-70
-4.1108091e-81
-5.0042855e-91
3.7965999e-100
-5.7144842e-109
5.4206605e-117
-2.2584961e-124
8.6305973e-132
-3.1465298e-139
1.1534308e-146
-4.4897977e-154
1.7209597e-161
-6.30618e-169
7.3233476e-173
8.1940416e-173
8.0758505e-173
7.6064618e-173
7.3945648e-173
7.5454573e-173
1.0880133e-172
9.5655914e-173
1.1612721e-172
1.2595354e-172
1.3872712e-172
1.7554588e-172
1.9398878e-172
2.7247257e-172
4.1749389e-172
-1.695282e-172
8.5486498e-172
1.0198417e-171
7.0684902e-172
3.7747007e-172
1.0596794e-169
-7.4014326e-174
-2.0983178e-10
2.7394241e-23
-5.1866514e-36
2.7034546e-48
-1.4753361e-59
-9.4495181e-71
-1.2714436e-81
-1.0869793e-91
9.8209653e-101
-1.2629458e-109
1.0542665e-117
-2.0231277e-124
4.1921105e-131
-6.9559843e-138
1.2951459e-144
-2.6635668e-151
5.6435778e-158
-1.2382759e-164
2.9122583e-171
-6.5684904e-178
-1.7643111e-179
-1.6260765e-179
-1.5814082e-179
-1.4538465e-179
-1.9818194e-179
-1.4881787e-179
-1.6018167e-179
-1.593945e-179
-1.4030981e-179
-1.6892747e-179
-1.604861e-179
-1.9331745e-179
-2.5085937e-179
2.5130535e-179
-3.2536633e-179
-2.8859097e-179
-1.6883893e-179
-1.1168523e-179
-6.9722085e-177
-2.7853415e-181
-2.1070704e-10
2.5529593e-23
-4.2896048e-36
1.9098199e-48
-7.2900845e-60
-4.4670363e-71
-5.1648375e-82
-3.3309475e-92
4.4824178e-101
-5.2043435e-110
3.872212e-118
2.9991783e-125
1.8346348e-132
1.3734352e-139
1.0764546e-146
8.7383882e-154
7.0999814e-161
5.8868668e-168
4.745894e-175
4.079436e-182
-1.5547709e-186
-1.4286859e-186
-1.42952e-186
-1.4091909e-186
-1.9858976e-186
-1.4594431e-186
-1.6451923e-186
-1.7800286e-186
-1.7604167e-186
-2.0978146e-186
-2.2009543e-186
-3.264287e-186
-5.1736533e-186
3.4768286e-185
9.2391691e-186
1.8968224e-186
6.4295005e-187
4.1879434e-187
2.1382271e-184
-9.413248e-189
-2.1504182e-10
2.4960311e-23
-3.8158499e-36
1.4869296e-48
-4.2066163e-60
-2.6260575e-71
-2.7585453e-82
-1.4514037e-92
8.2453944e-101
-9.4514164e-110
6.0966035e-118
6.9801114e-125
4.8744518e-132
5.2068606e-139
7.4416888e-146
1.4291473e-152
4.2083493e-159
1.5317803e-165
7.2507279e-172
7.10467e-178
6.4544116e-184
-8.2890755e-189
-2.6479018e-192
-9.2371357e-192
-3.6375943e-192
-2.2849196e-192
-1.2017864e-192
-7.1352219e-193
-4.0740416e-193
-4.0892229e-193
-2.8115866e-193
-3.098781e-193
-4.3293026e-193
3.9102498e-191
6.600223e-193
3.5644601e-193
-6.8065788e-194
-1.4774776e-194
-4.2470336e-192
-2.7829045e-196
-2.217723e-10
2.5440557e-23
-3.6271295e-36
1.2651468e-48
-2.7359452e-60
-1.9728989e-71
-2.0526431e-82
-9.6602788e-93
-1.574091e-101
2.0795303e-110
-1.1054054e-118
2.9659815e-126
-9.2894167e-134
2.37338e-141
-5.5078235e-149
1.2078225e-156
-2.493433e-164
4.6285295e-172
-2.2405816e-179
-1.2908626e-185
-1.1766725e-191
1.5270909e-196
4.8828665e-200
1.740511e-199
6.9020943e-200
5.0608252e-200
2.4879077e-200
1.5858318e-200
9.7492209e-201
1.0888964e-200
8.2802533e-201
6.2927048e-201
2.7202747e-200
-7.0011003e-198
1.5923479e-199
6.2969012e-200
5.3549069e-201
2.7777959e-202
7.0576628e-200
-7.0186171e-204
-2.2937001e-10
2.669559e-23
-3.6322144e-36
1.1569216e-48
-1.9604777e-60
-2.0916439e-71
-2.4264931e-82
-1.1339024e-92
-7.1634326e-102
1.4963458e-110
-6.5726105e-119
4.9762554e-127
-3.8653555e-135
2.8824186e-143
-2.058048e-151
1.4322595e-159
-9.7722502e-168
6.5623364e-176
-4.3600306e-184
2.9674477e-192
5.7849452e-200
-1.0074065e-204
-3.2363083e-208
-1.1641026e-207
-4.6965439e-208
-3.5080886e-208
-1.7604878e-208
-1.1500557e-208
-7.415884e-209
-8.743131e-209
-7.2931742e-209
-8.3326817e-209
-2.4871463e-208
1.1224578e-205
-3.2662561e-207
-1.6645738e-207
-9.8283464e-209
-2.8192376e-210
-1.3951998e-207
-1.6043943e-211
-2.3613571e-10
2.8350951e-23
-3.7539751e-36
1.1108713e-48
-1.5225206e-60
-5.0760412e-71
-7.5943547e-82
-3.8921598e-92
-1.4696603e-101
3.1730851e-109
-1.241325e-117
4.8379595e-126
-1.9132271e-134
7.4935256e-143
-2.8904707e-151
1.1009999e-159
-4.1618292e-168
1.5642839e-176
-5.8572275e-185
2.1917555e-193
-8.2134439e-202
3.0909539e-210
1.2097245e-216
4.4257283e-216
1.7979756e-216
1.3582511e-216
6.9300725e-217
4.6034439e-217
3.0249784e-217
3.6799096e-217
3.2086457e-217
4.3741093e-217
7.5189582e-217
-8.2630042e-214
2.1574499e-215
1.3083891e-215
7.2229268e-217
1.8343958e-218
6.9265579e-215
-3.4379417e-219
-2.4078438e-10
2.9942289e-23
-3.9138022e-36
1.0918129e-48
-1.2632066e-60
3.5409059e-71
7.7271187e-82
4.4801657e-92
1.1809095e-101
2.5615824e-110
-9.859574e-119
2.6763498e-127
-7.3600739e-136
2.0553658e-144
-5.7499875e-153
1.6041806e-161
-4.481516e-170
1.2525125e-178
-3.5064151e-187
9.8672274e-196
-2.7824927e-204
7.8736954e-213
-2.2393059e-221
-1.2625012e-224
-5.1577059e-225
-3.9242011e-225
-2.0085801e-225
-1.3438808e-225
-8.945818e-226
-1.0996005e-225
-9.7981697e-226
-1.4598259e-225
-1.5972816e-225
3.151942e-222
-8.0816877e-224
-5.4152035e-224
-3.1112693e-225
-9.5713648e-227
2.6806755e-222
-7.446039e-227
-2.4298496e-10
3.1060104e-23
-4.0391545e-36
1.0752457e-48
-1.1056963e-60
1.4106752e-71
3.8981977e-82
2.1692524e-92
4.1772675e-102
4.594672e-111
-1.8805421e-119
4.4371008e-128
-1.0838661e-136
2.7566273e-145
-7.1180014e-154
1.8556514e-162
-4.8761551e-171
1.2927069e-179
-3.4532715e-188
9.2905279e-197
-2.5091501e-205
6.8162581e-214
-1.8573416e-222
5.1022678e-231
1.4097889e-233
1.0720397e-233
5.4850205e-234
3.6653231e-234
2.4348594e-234
2.9879046e-234
2.662674e-234
4.1454236e-234
2.7565922e-234
-9.285962e-231
2.2899803e-232
1.6182841e-232
1.0398557e-233
6.1399945e-235
3.5386977e-230
-1.7702444e-234
-2.4340506e-10
3.1555499e-23
-4.0896109e-36
1.0492232e-48
-1.0123972e-60
1.3367388e-71
2.6122333e-82
1.0159848e-92
1.4023006e-102
1.210157e-111
-4.9414735e-120
1.2455829e-128
-3.4849041e-137
1.0520628e-145
-3.2906268e-154
1.0546994e-162
-3.4577722e-171
1.1540382e-179
-3.900602e-188
1.3344468e-196
-4.5984574e-205
1.594725e-213
-5.551323e-222
1.9319971e-230
-6.7051937e-239
-3.6989264e-242
-1.8705431e-242
-1.2315599e-242
-8.048512e-243
-9.6591937e-243
-8.4235754e-243
-1.3253401e-242
-4.0904918e-243
2.807245e-239
-6.4022501e-241
-4.6019731e-241
-3.5769575e-242
-4.4892669e-243
3.1125398e-238
-5.2521878e-242
-2.4321639e-10
3.1605804e-23
-4.0746873e-36
1.0153134e-48
-9.6532303e-61
4.8229332e-71
4.9692273e-82
1.1539828e-92
1.1103328e-102
9.6997373e-112
-3.1407673e-120
1.0673563e-128
-5.159082e-137
2.983571e-145
-1.8683084e-153
1.2490333e-161
-8.8091109e-170
6.49143e-178
-4.9711741e-186
3.9209245e-194
-3.1604657e-202
2.5787625e-210
-2.0994815e-218
1.7005904e-226
-1.3614865e-234
1.0514776e-242
6.1158533e-251
8.7568627e-251
5.421262e-251
6.0760774e-251
4.9283311e-251
7.3530301e-251
-1.3564883e-252
-1.2697039e-247
2.4657383e-249
1.7285703e-249
1.8660902e-250
-6.4079537e-250
2.3415195e-246
-2.1799648e-249
-2.4347683e-10
3.1562112e-23
-4.0414294e-36
9.8390137e-49
-9.5364176e-61
-1.2706212e-71
-7.5744941e-83
-1.0978924e-93
-7.4330088e-104
-7.9484503e-113
1.7402627e-121
-1.148638e-129
-2.6211211e-136
-6.1766784e-144
-1.1309542e-151
-1.782287e-159
-2.5450258e-167
-3.3241162e-175
-4.152576e-183
-4.9739958e-191
-5.8386982e-199
-6.8099517e-207
-7.8642537e-215
-9.2904899e-223
-1.126521e-230
-1.433494e-238
-1.9822089e-246
-3.0300259e-254
9.4886027e-259
1.3265723e-258
1.5483536e-258
5.4774939e-258
4.1549239e-258
3.6423011e-255
-3.3614519e-257
-1.956201e-257
-7.8671727e-258
-3.6093835e-258
1.7905136e-254
-1.5669462e-256
-2.4476822e-10
3.1735783e-23
-4.0440286e-36
9.6696525e-49
-9.6497693e-61
-5.4296696e-72
-2.2153059e-83
-2.256824e-94
-1.1353293e-104
-1.6184368e-113
2.4530943e-122
-1.4867273e-129
-6.7407888e-138
-2.6039799e-146
-9.7910632e-155
-3.6254088e-163
-1.3171329e-171
-4.7188947e-180
-1.6750996e-188
-5.934946e-197
-2.1133331e-205
-7.6822376e-214
-2.9939393e-222
-1.3908093e-230
-9.01607e-239
-8.4390842e-247
-1.0398689e-254
-1.5238759e-262
3.6480197e-267
5.267537e-267
6.068815e-267
7.8676841e-266
1.3153754e-265
2.3758948e-263
-2.2166142e-265
-1.5451128e-265
-4.7913709e-266
-1.5512526e-266
1.620961e-262
-3.4534263e-263
-2.471476e-10
3.2284084e-23
-4.1210612e-36
9.7341138e-49
-9.8288618e-61
-3.916206e-72
-1.2808298e-83
-1.0443378e-94
-4.2446483e-105
-6.8348007e-114
8.142801e-123
1.0383287e-130
2.7012517e-139
6.4101473e-148
1.5215359e-156
3.6136979e-165
8.5540984e-174
2.0285574e-182
4.8056584e-191
1.1388821e-199
2.703821e-208
6.4237752e-217
1.5288367e-225
3.6525166e-234
8.7320757e-243
2.097287e-251
5.0623831e-260
1.2259068e-268
9.2255232e-276
1.2966182e-275
1.4984345e-275
2.0951421e-274
3.2741639e-274
6.1078449e-272
-6.3297184e-274
-4.6608799e-274
-1.53068e-274
-5.6227834e-275
2.0195932e-270
9.6353259e-270
-2.5028601e-10
3.3203139e-23
-4.2880734e-36
1.007849e-48
-9.9378613e-61
-3.7084011e-72
-1.1198496e-83
-8.2737967e-95
-2.9917223e-105
-3.893323e-114
4.2236159e-123
3.6007522e-131
7.7764918e-140
1.5646795e-148
3.1958004e-157
6.587516e-166
1.3689627e-174
2.8550042e-183
5.9888182e-192
1.2598667e-200
2.658365e-209
5.628829e-218
1.1948442e-226
2.5378066e-235
5.3895844e-244
1.1425274e-252
2.41929e-261
5.1110064e-270
1.0762994e-278
2.7241128e-284
3.1134646e-284
4.478642e-283
6.628829e-283
1.2375038e-280
-1.3436821e-282
-1.0456481e-282
-3.9796629e-283
-2.036169e-283
4.2788644e-278
-1.0968945e-276
-2.5367664e-10
3.4371702e-23
-4.5387089e-36
1.0708516e-48
-9.9654667e-61
-4.4891056e-72
-1.4257146e-83
-1.0715064e-94
-3.8035068e-105
-3.5227431e-114
4.045234e-123
3.6684676e-131
8.1498858e-140
1.6922915e-148
3.6004999e-157
7.7894467e-166
1.7066246e-174
3.7793226e-183
8.4406476e-192
1.8972459e-200
4.2889019e-209
9.7244234e-218
2.2076524e-226
5.0057035e-235
1.1321847e-243
2.5261308e-252
-1.4528215e-260
-6.4928412e-267
-1.3694883e-273
-1.789558e-280
-1.5746461e-287
9.6105935e-292
1.3371656e-291
2.4439137e-289
-2.7146323e-291
-2.2427119e-291
-1.0683165e-291
-4.5969085e-292
2.4604316e-285
8.68156e-284
-2.5683174e-10
3.561055e-23
-4.8483112e-36
1.1591438e-48
-1.0009075e-60
-7.9216802e-72
-3.0045466e-83
-2.5598093e-94
-9.8157818e-105
-6.9851907e-114
9.8123686e-123
1.3373759e-130
3.6193211e-139
9.1001265e-148
2.360848e-156
6.2839239e-165
1.7011114e-173
4.683165e-182
1.3046792e-190
3.6612909e-199
1.0359459e-207
2.9359546e-216
8.3416021e-225
3.3276708e-233
-8.0117315e-240
-1.2439318e-245
-9.0450464e-252
-2.93108e-258
-6.2253079e-265
-8.2538484e-272
-7.3705889e-279
-4.5150038e-286
-2.1383619e-293
5.567524e-298
-6.2725096e-300
-5.5583846e-300
-3.6023528e-300
5.545338e-299
-5.5921141e-292
-6.1831047e-291
-2.5941809e-10
3.6744847e-23
-5.1796747e-36
1.2656219e-48
-1.0170637e-60
-1.6519206e-70
-8.5750382e-82
-9.1890626e-93
-4.1693653e-103
-2.5973684e-112
5.161084e-121
1.9137953e-128
7.4532179e-137
2.6685537e-145
9.9162053e-154
3.8056248e-162
1.5000289e-170
6.0220404e-179
2.4600444e-187
1.0141909e-195
4.2168446e-204
2.4023977e-212
-3.7168183e-219
3.3746196e-225
-2.8632272e-231
-4.4411825e-237
-3.2579332e-243
-1.0705189e-249
-2.3125061e-256
-3.1332308e-263
-2.8663299e-270
-1.8130678e-277
-8.8870562e-285
-3.7164595e-292
-2.1461023e-299
-3.1905914e-305
-1.2444158e-308
-1.1015019e-304
3.0240703e-299
4.1883058e-298
-2.613052e-10
3.7655029e-23
-5.492346e-36
1.3799736e-48
-1.0492211e-60
9.307902e-72
7.8675055e-83
1.1772883e-93
6.8918203e-104
4.2730088e-113
-1.4078878e-121
9.9625266e-129
6.905283e-137
4.249161e-145
2.741588e-153
1.8450737e-161
1.2863578e-169
9.1984757e-178
2.4681121e-186
4.3389195e-192
-2.6970021e-198
1.5145314e-204
-9.0443025e-211
8.0740551e-217
-6.9258942e-223
-1.0831626e-228
-8.0586883e-235
-2.7050165e-241
-5.9891686e-248
-8.3558331e-255
-7.9225196e-262
-5.2283409e-269
-2.6862738e-276
-1.1762397e-283
-6.8729596e-291
-9.190965e-297
2.3222e-303
-7.9449406e-310
-1.2011217e-306
-2.870413e-305
-2.6253339e-10
3.8299e-23
-5.753961e-36
1.4905746e-48
-1.0956216e-60
5.1721491e-72
9.7477519e-83
2.2855452e-93
1.8769459e-103
1.2973911e-112
-8.6296815e-121
2.0844465e-128
3.7756105e-136
5.5022599e-144
8.4969574e-152
1.3302887e-159
-2.7180063e-167
-4.4186821e-173
-5.8361846e-178
5.7285256e-184
-3.5697773e-190
1.9944859e-196
-1.1921719e-202
1.0670336e-208
-9.2576309e-215
-1.4797242e-220
-1.1195997e-226
-3.8581122e-233
-8.8757869e-240
-1.2875941e-246
-1.289619e-253
-8.9813483e-261
-4.9296793e-268
-2.2801768e-275
-1.3458169e-282
-1.546505e-288
2.1370722e-295
1.9895403e-303
-1.0091812e-310
1.9502197e-312
-2.632428e-10
3.8701518e-23
-5.9486836e-36
1.5873891e-48
-1.1509429e-60
4.0660112e-72
1.3135807e-81
5.6151681e-92
7.0398311e-102
5.9977986e-111
-1.1685555e-118
2.2289707e-126
-1.1742823e-132
-1.4383566e-139
-2.5756956e-146
-6.4768807e-153
-3.0992583e-159
-2.4647374e-165
-3.0512124e-170
2.918934e-176
-1.779116e-182
9.9440018e-189
-5.8743322e-195
5.3149555e-201
-4.7657805e-207
-7.81893e-213
-6.1370642e-219
-2.2173345e-225
-5.3794426e-232
-8.3223305e-239
-9.0676971e-246
-6.8674741e-253
-4.1496885e-260
-2.0726762e-267
-1.2161878e-274
-1.0537444e-280
3.4172812e-288
-7.0118858e-296
2.6835407e-303
-1.9737072e-310
-2.6360074e-10
3.8923669e-23
-6.0783325e-36
1.664533e-48
-1.2086766e-60
3.6945944e-72
-1.1968022e-82
-1.2375299e-92
-2.6011427e-102
-2.9815025e-111
-1.6054422e-117
3.1026e-125
-1.0753728e-132
4.6403e-140
-2.0270524e-147
8.1514011e-155
-3.3332642e-162
1.3041512e-169
-3.9032783e-177
-9.9660881e-184
7.4571755e-190
-4.0804288e-196
2.4849744e-202
-2.2150108e-208
2.0125811e-214
3.0323777e-220
2.3503303e-226
8.3655559e-233
1.9784111e-239
2.8709304e-246
2.897342e-253
1.9803549e-260
1.2229778e-267
4.5849993e-275
3.4377435e-282
2.9348094e-288
-1.235228e-295
3.7895535e-303
-2.6160594e-310
5.7384785e-313
-2.637538e-10
3.9032292e-23
-6.1566202e-36
1.7211312e-48
-1.2630033e-60
3.6091431e-72
-7.0078354e-83
-8.877911e-92
-3.5388295e-101
-5.8858392e-110
-2.4515042e-117
5.8399285e-125
-1.6754199e-132
5.2665276e-140
-1.7000504e-147
5.3488374e-155
-1.7468432e-162
5.7279016e-170
-1.8446062e-177
5.8968799e-185
-1.9005949e-192
6.059058e-200
-1.9706272e-207
7.142743e-215
-8.8491838e-222
-9.5734011e-228
-7.2833372e-234
-2.4509448e-240
-5.5707624e-247
-7.4700558e-254
-7.0937472e-261
-4.2181096e-268
-2.6014794e-275
-6.3293609e-283
-7.7819958e-290
-6.2348044e-296
3.373753e-303
-1.5293811e-310
1.1218258e-313
-2.4715306e-314
-2.6380644e-10
3.9081009e-23
-6.200988e-36
1.7601994e-48
-1.3100297e-60
3.6509888e-72
-5.8239951e-83
1.296321e-92
1.2327974e-101
3.2035545e-110
1.0984565e-117
-3.6556801e-125
1.1708499e-132
-4.0752195e-140
1.455526e-147
-5.2332991e-155
1.9388083e-162
-7.1638997e-170
2.6589112e-177
-9.8662153e-185
3.6435447e-192
-1.3663843e-199
5.159788e-207
-1.951697e-214
7.2370766e-222
-2.7313404e-229
1.0117567e-236
-3.7752318e-244
1.3861934e-251
-5.038931e-259
1.8002006e-266
-6.335837e-274
3.2806179e-281
-6.3318186e-288
1.4662271e-294
-2.1088162e-301
1.6272979e-308
-4.1862522e-313
1.5387674e-313
1.2386076e-313
-2.6382155e-10
3.9104448e-23
-6.2264896e-36
1.7865166e-48
-1.3482219e-60
3.7434394e-72
-5.4979218e-83
7.4062161e-93
4.5932498e-101
1.9996188e-109
7.6742028e-117
-4.0590365e-124
1.8031275e-131
-8.2422272e-139
3.9062347e-146
-1.866176e-153
8.9284651e-161
-4.5723862e-168
2.2392349e-175
-1.1224307e-182
5.5708009e-190
-2.7758715e-197
1.4030976e-204
-7.0738045e-212
3.4927737e-219
-1.8013829e-226
8.7939259e-234
-4.2423309e-241
1.890854e-248
-1.8913773e-256
-3.2624756e-262
2.2619996e-268
-1.2074222e-274
5.6553215e-281
-1.4562186e-287
2.2520935e-294
-1.8744561e-301
1.2559662e-308
1.1240744e-313
-1.3509788e-313
-2.638299e-10
3.9120658e-23
-6.2432446e-36
1.8047128e-48
-1.3780312e-60
3.8449928e-72
-5.4594377e-83
6.0711913e-93
-1.6553272e-101
-1.3415528e-109
-6.4556409e-117
5.384136e-124
-3.388728e-131
2.2559583e-138
-1.4500426e-145
9.8970862e-153
-7.1446077e-160
5.0763673e-167
-3.5734003e-174
2.5611249e-181
-1.8069907e-188
1.2799826e-195
-8.9718658e-203
6.3821008e-210
-4.6014207e-217
3.2432072e-224
-2.2572377e-231
1.5373914e-238
-8.9833495e-246
-8.5169196e-253
1.1266928e-258
-8.0359098e-265
4.3645716e-271
-1.5146011e-277
4.1824929e-284
-6.917491e-291
5.4896278e-298
-3.2466996e-305
2.9956907e-312