/*--------------------------------*- C++ -*----------------------------------*\
  =========                 |
  \\      /  F ield         | OpenFOAM: The Open Source CFD Toolbox
   \\    /   O peration     | Website:  https://openfoam.org
    \\  /    A nd           | Version:  10
     \\/     M anipulation  |
\*---------------------------------------------------------------------------*/
FoamFile
{
    format      ascii;
    class       volVectorField;
    location    "0.07";
    object      U;
}
// * * * * * * * * * * * * * * * * * * * * * * * * * * * * * * * * * * * * * //

dimensions      [0 1 -1 0 0 0 0];

internalField   nonuniform List<vector> 
4000
(
(0 0.018625314 0.47773759)
(0 0.02348744 0.50885721)
(0 0.0081463988 0.50052597)
(0 0.0055944131 0.50033692)
(0 0.0042331412 0.50025758)
(0 0.0032331098 0.50016896)
(0 0.0025345664 0.50011959)
(0 0.0020337489 0.50008996)
(0 0.0016567511 0.50006957)
(0 0.0013636876 0.5000551)
(0 0.0011301436 0.50004466)
(0 0.00093974594 0.50003696)
(0 0.00078121211 0.50003119)
(0 0.00064654222 0.50002683)
(0 0.00052988704 0.50002353)
(0 0.00042684782 0.50002103)
(0 0.00033402136 0.50001917)
(0 0.00024869166 0.50001782)
(0 0.0001686133 0.50001692)
(0 9.1852319e-05 0.5000164)
(0 1.6664543e-05 0.50001625)
(0 -5.8614214e-05 0.50001644)
(0 -0.00013565862 0.500017)
(0 -0.0002162459 0.50001796)
(0 -0.00030236921 0.50001937)
(0 -0.00039636755 0.50002133)
(0 -0.0005010987 0.50002395)
(0 -0.00062017966 0.50002744)
(0 -0.00075833563 0.50003206)
(0 -0.00092193148 0.50003821)
(0 -0.0011198248 0.50004651)
(0 -0.0013647349 0.50005793)
(0 -0.0016754867 0.50007391)
(0 -0.0020825192 0.50009696)
(0 -0.002641879 0.50013481)
(0 -0.0034360844 0.50020258)
(0 -0.0045303611 0.50027226)
(0 -0.0065552474 0.50043482)
(0 -0.017628356 0.50674956)
(0 -0.013573986 0.47976443)
(0 0.037398964 0.44801034)
(0 0.050887038 0.5323214)
(0 0.021901245 0.50804357)
(0 0.016071048 0.50357706)
(0 0.012347493 0.50242424)
(0 0.0094468329 0.50162276)
(0 0.0074526891 0.50115556)
(0 0.0060042063 0.50086413)
(0 0.004902109 0.50066559)
(0 0.0040417169 0.50052609)
(0 0.003353945 0.50042568)
(0 0.0027917421 0.50035181)
(0 0.0023226477 0.5002966)
(0 0.0019235034 0.50025493)
(0 0.0015772855 0.50022335)
(0 0.0012711437 0.50019949)
(0 0.00099510577 0.50018173)
(0 0.00074119193 0.50016892)
(0 0.00050279052 0.50016029)
(0 0.000274197 0.50015537)
(0 5.0258588e-05 0.50015388)
(0 -0.00017393832 0.50015574)
(0 -0.00040333878 0.50016107)
(0 -0.00064319109 0.50017019)
(0 -0.00089937098 0.50018365)
(0 -0.0011787606 0.50020229)
(0 -0.0014897475 0.50022736)
(0 -0.0018429157 0.50026067)
(0 -0.0022520414 0.50030485)
(0 -0.0027355827 0.50036382)
(0 -0.003319061 0.50044353)
(0 -0.0040390363 0.50055349)
(0 -0.0049488331 0.50070884)
(0 -0.006128615 0.50093523)
(0 -0.0077275259 0.50129427)
(0 -0.010022316 0.50191241)
(0 -0.013009649 0.50283113)
(0 -0.017328399 0.50608437)
(0 -0.038662659 0.52526116)
(0 -0.027847748 0.45027815)
(0 0.039836923 0.40993233)
(0 0.061309405 0.54932072)
(0 0.031856008 0.52187827)
(0 0.024239561 0.5100878)
(0 0.019071889 0.50659134)
(0 0.014855255 0.50452719)
(0 0.011887332 0.50326804)
(0 0.009656702 0.50245289)
(0 0.0079271239 0.5018938)
(0 0.0065626678 0.50149994)
(0 0.0054628889 0.50121546)
(0 0.0045580847 0.50100563)
(0 0.0037993706 0.50084857)
(0 0.0031512253 0.50072987)
(0 0.002587208 0.50063982)
(0 0.0020871743 0.50057174)
(0 0.001635369 0.500521)
(0 0.001219104 0.50048439)
(0 0.00082781167 0.50045974)
(0 0.00045233711 0.50044565)
(0 8.4386947e-05 0.50044137)
(0 -0.0002839534 0.50044667)
(0 -0.00066064921 0.5004619)
(0 -0.001054141 0.50048794)
(0 -0.0014738462 0.50052636)
(0 -0.0019307447 0.50057956)
(0 -0.0024381388 0.50065106)
(0 -0.0030126887 0.50074596)
(0 -0.003675882 0.50087171)
(0 -0.0044561547 0.50103927)
(0 -0.0053921055 0.50126523)
(0 -0.0065380148 0.50157583)
(0 -0.0079714869 0.50201329)
(0 -0.0097971522 0.50264621)
(0 -0.012188116 0.50361432)
(0 -0.015533654 0.50520402)
(0 -0.019699395 0.50786675)
(0 -0.025004431 0.51641329)
(0 -0.04724731 0.53914198)
(0 -0.03077786 0.41504754)
(0 0.034727416 0.36195046)
(0 0.063666675 0.55462462)
(0 0.03917836 0.53746061)
(0 0.029905257 0.51849952)
(0 0.023930049 0.51198175)
(0 0.019097733 0.50849701)
(0 0.015558634 0.50625671)
(0 0.01278329 0.50474362)
(0 0.010581759 0.50368905)
(0 0.008816895 0.50293775)
(0 0.007375373 0.50239016)
(0 0.0061772987 0.50198371)
(0 0.0051646602 0.50167807)
(0 0.0042940252 0.50144627)
(0 0.0035324291 0.50126992)
(0 0.0028543628 0.5011363)
(0 0.0022396135 0.50103654)
(0 0.001671729 0.50096447)
(0 0.0011368889 0.50091588)
(0 0.0006230403 0.50088808)
(0 0.00011921487 0.50087959)
(0 -0.00038507529 0.50089001)
(0 -0.00090038406 0.50091997)
(0 -0.0014378611 0.5009712)
(0 -0.0020098794 0.50104673)
(0 -0.0026307576 0.50115116)
(0 -0.0033176728 0.50129127)
(0 -0.0040918741 0.50147679)
(0 -0.0049803552 0.50172181)
(0 -0.0060181634 0.50204691)
(0 -0.0072515032 0.50248268)
(0 -0.0087430113 0.5030763)
(0 -0.010580585 0.50390271)
(0 -0.012871598 0.50507865)
(0 -0.015752075 0.50680393)
(0 -0.019626115 0.50947536)
(0 -0.024466818 0.51429119)
(0 -0.030824914 0.52824098)
(0 -0.050066544 0.54414914)
(0 -0.028336517 0.37271215)
(0 0.027352014 0.31520395)
(0 0.062088185 0.55039229)
(0 0.044324498 0.5514531)
(0 0.033727256 0.52748704)
(0 0.027211193 0.5177268)
(0 0.02220474 0.51291436)
(0 0.018393102 0.50971718)
(0 0.015294319 0.50747128)
(0 0.012785274 0.50587269)
(0 0.010736489 0.50471465)
(0 0.0090362471 0.50385964)
(0 0.0076054041 0.50321906)
(0 0.0063837067 0.50273392)
(0 0.0053245071 0.50236392)
(0 0.0043915702 0.50208119)
(0 0.0035562737 0.50186622)
(0 0.0027955417 0.50170529)
(0 0.0020903242 0.50158877)
(0 0.0014244322 0.50151008)
(0 0.00078362048 0.50146498)
(0 0.00015484646 0.50145114)
(0 -0.00047439558 0.50146792)
(0 -0.0011166874 0.50151632)
(0 -0.0017852664 0.50159907)
(0 -0.0024947192 0.5017209)
(0 -0.0032617579 0.50188901)
(0 -0.0041061746 0.50211391)
(0 -0.0050520619 0.50241056)
(0 -0.006129432 0.50280038)
(0 -0.00737639 0.50331418)
(0 -0.0088416192 0.50399681)
(0 -0.010588058 0.50491508)
(0 -0.012703146 0.50617215)
(0 -0.015291762 0.50792354)
(0 -0.018442378 0.5103965)
(0 -0.022517949 0.51406342)
(0 -0.027801173 0.52115587)
(0 -0.035288855 0.53931242)
(0 -0.050132539 0.54175077)
(0 -0.023962373 0.33110925)
(0 0.019761294 0.27572492)
(0 0.057709882 0.54003831)
(0 0.046974104 0.56255891)
(0 0.036129167 0.53658522)
(0 0.029301299 0.52350675)
(0 0.024347153 0.51739237)
(0 0.020455151 0.5133388)
(0 0.017204711 0.51040974)
(0 0.014526812 0.50828067)
(0 0.012299654 0.50671086)
(0 0.010421356 0.50553552)
(0 0.0088195688 0.50464539)
(0 0.0074363501 0.50396538)
(0 0.006225574 0.50344313)
(0 0.0051505605 0.50304185)
(0 0.0041816581 0.50273539)
(0 0.003294488 0.50250515)
(0 0.0024685904 0.50233798)
(0 0.0016863391 0.50222483)
(0 0.00093205823 0.50215983)
(0 0.00019129072 0.50213976)
(0 -0.00054987095 0.50216372)
(0 -0.0013054151 0.5022331)
(0 -0.0020899885 0.50235167)
(0 -0.0029195996 0.50252594)
(0 -0.0038123761 0.50276581)
(0 -0.0047894736 0.50308552)
(0 -0.0058761891 0.50350524)
(0 -0.0071033677 0.50405336)
(0 -0.0085093134 0.50477006)
(0 -0.01014178 0.50571268)
(0 -0.012059652 0.5069639)
(0 -0.014343783 0.50864738)
(0 -0.017097276 0.51094568)
(0 -0.020375227 0.51410279)
(0 -0.024474531 0.51873316)
(0 -0.029997528 0.52821939)
(0 -0.038059737 0.5487101)
(0 -0.04806858 0.53436705)
(0 -0.018924959 0.29476218)
(0 0.013004141 0.24327324)
(0 0.051466669 0.52568963)
(0 0.047209657 0.57027451)
(0 0.037296163 0.54547725)
(0 0.030419388 0.52927533)
(0 0.025654435 0.52178139)
(0 0.021832856 0.51695955)
(0 0.018567772 0.5134203)
(0 0.015830989 0.51079972)
(0 0.013513561 0.50883698)
(0 0.011528623 0.5073485)
(0 0.009813167 0.50620904)
(0 0.0083141907 0.50533063)
(0 0.0069886445 0.50465096)
(0 0.0058014802 0.5041255)
(0 0.0047236789 0.5037222)
(0 0.0037308927 0.50341798)
(0 0.002802323 0.50319638)
(0 0.0019197817 0.50304599)
(0 0.0010669025 0.50295937)
(0 0.00022847024 0.50293242)
(0 -0.00061020535 0.50296398)
(0 -0.0014638957 0.50305584)
(0 -0.0023479876 0.50321275)
(0 -0.0032791504 0.50344297)
(0 -0.0042760248 0.50375891)
(0 -0.0053600295 0.50417833)
(0 -0.0065563181 0.5047261)
(0 -0.0078949103 0.50543675)
(0 -0.0094122802 0.50635843)
(0 -0.011153159 0.50755872)
(0 -0.013170466 0.50913303)
(0 -0.015534362 0.51121999)
(0 -0.018341681 0.51402037)
(0 -0.021625591 0.51780498)
(0 -0.025625258 0.52345356)
(0 -0.031175847 0.53532571)
(0 -0.039017173 0.55590363)
(0 -0.044354302 0.52347418)
(0 -0.01393319 0.26379296)
(0 0.0076892344 0.21647457)
(0 0.044442413 0.5087607)
(0 0.045635892 0.5744726)
(0 0.037442091 0.55366767)
(0 0.030743622 0.5349226)
(0 0.026245766 0.5259948)
(0 0.022613514 0.52048062)
(0 0.019443131 0.51641072)
(0 0.016734763 0.51334828)
(0 0.01439971 0.5110239)
(0 0.012369151 0.50924146)
(0 0.010590537 0.50786337)
(0 0.0090175412 0.50679176)
(0 0.0076118656 0.50595646)
(0 0.006341498 0.50530666)
(0 0.005179272 0.50480533)
(0 0.004101917 0.50442556)
(0 0.0030891824 0.50414797)
(0 0.0021230779 0.50395903)
(0 0.0011872142 0.50384988)
(0 0.00026622419 0.5038156)
(0 -0.00065478543 0.50385484)
(0 -0.0015907871 0.50396968)
(0 -0.0025572916 0.50416584)
(0 -0.0035709501 0.5044531)
(0 -0.0046501402 0.50484613)
(0 -0.005815643 0.50536578)
(0 -0.0070914247 0.50604094)
(0 -0.0085054815 0.50691131)
(0 -0.01009102 0.50803151)
(0 -0.011888178 0.50947738)
(0 -0.01394283 0.51135466)
(0 -0.016311838 0.51381314)
(0 -0.019078641 0.51706363)
(0 -0.022261635 0.52142026)
(0 -0.026077382 0.52813409)
(0 -0.031488609 0.54211395)
(0 -0.038470739 0.56056469)
(0 -0.039686417 0.51009602)
(0 -0.0095363587 0.23738145)
(0 0.0039225497 0.19472711)
(0 0.037464332 0.49057043)
(0 0.04293778 0.57544201)
(0 0.036817624 0.56072212)
(0 0.030476829 0.54028367)
(0 0.026272737 0.52995215)
(0 0.022899457 0.52381791)
(0 0.019898895 0.51930353)
(0 0.017283999 0.51585874)
(0 0.014988907 0.51321315)
(0 0.012962848 0.51116426)
(0 0.011163904 0.50956581)
(0 0.009553453 0.50831279)
(0 0.0080989115 0.50732922)
(0 0.0067721726 0.50655944)
(0 0.005548758 0.50596251)
(0 0.0044072379 0.50550837)
(0 0.0033285934 0.50517524)
(0 0.0022956482 0.5049478)
(0 0.0012925525 0.50481597)
(0 0.00030431419 0.50477415)
(0 -0.00068365412 0.50482077)
(0 -0.0016860137 0.50495821)
(0 -0.0027178669 0.50519298)
(0 -0.003795274 0.50553619)
(0 -0.0049357213 0.50600441)
(0 -0.0061586522 0.50662105)
(0 -0.0074860696 0.50741827)
(0 -0.0089431161 0.5084399)
(0 -0.010558783 0.5097456)
(0 -0.012367484 0.51141742)
(0 -0.014407525 0.51356893)
(0 -0.016722219 0.51635713)
(0 -0.019377764 0.51999592)
(0 -0.022384727 0.52486327)
(0 -0.025972562 0.53263455)
(0 -0.031121393 0.54821203)
(0 -0.036854565 0.56271097)
(0 -0.034668143 0.49527024)
(0 -0.0060146417 0.21520352)
(0 0.0014680758 0.1775626)
(0 0.031010309 0.47225476)
(0 0.039642748 0.57375263)
(0 0.035637675 0.56643787)
(0 0.029803956 0.5452437)
(0 0.025893438 0.53360971)
(0 0.022801736 0.52691361)
(0 0.020011711 0.52203893)
(0 0.017532843 0.51827721)
(0 0.01531933 0.51535687)
(0 0.01333621 0.51307464)
(0 0.011551415 0.51127935)
(0 0.0099341679 0.5098615)
(0 0.0084578577 0.50874119)
(0 0.0070986813 0.50785934)
(0 0.0058353359 0.5071721)
(0 0.0046487273 0.50664705)
(0 0.0035215507 0.50626054)
(0 0.0024379073 0.50599583)
(0 0.0013829307 0.50584185)
(0 0.00034243137 0.50579242)
(0 -0.00069745079 0.50584583)
(0 -0.0017506423 0.50600468)
(0 -0.0028314037 0.50627613)
(0 -0.003954752 0.50667235)
(0 -0.0051368066 0.50721143)
(0 -0.0063951734 0.50791875)
(0 -0.0077493717 0.50882899)
(0 -0.0092212011 0.50998902)
(0 -0.010835014 0.51146215)
(0 -0.012619036 0.51333461)
(0 -0.014604127 0.51572499)
(0 -0.016821617 0.51879364)
(0 -0.019320788 0.52275498)
(0 -0.022111147 0.52807694)
(0 -0.025452048 0.53685019)
(0 -0.030234677 0.55339703)
(0 -0.034539854 0.56264296)
(0 -0.029697794 0.47994809)
(0 -0.0033902831 0.1970385)
(0 -5.0221253e-06 0.16423463)
(0 0.025322641 0.4545868)
(0 0.036117672 0.57003036)
(0 0.034071926 0.57079831)
(0 0.028862584 0.54975097)
(0 0.02523846 0.53696761)
(0 0.022421076 0.52974793)
(0 0.01985685 0.52458367)
(0 0.017537704 0.52056835)
(0 0.015432591 0.51742065)
(0 0.013519544 0.51494031)
(0 0.011775016 0.51297442)
(0 0.010175457 0.51141119)
(0 0.0086999105 0.51016838)
(0 0.0073288775 0.50918477)
(0 0.0060444025 0.5084146)
(0 0.0048299769 0.50782381)
(0 0.003670303 0.50738737)
(0 0.002551074 0.5070875)
(0 0.0014587287 0.50691241)
(0 0.00038020354 0.50685547)
(0 -0.0006973098 0.50691483)
(0 -0.001786676 0.50709328)
(0 -0.0029009857 0.50739846)
(0 -0.0040538832 0.50784332)
(0 -0.0052597962 0.50844708)
(0 -0.0065341862 0.50923655)
(0 -0.0078938145 0.51024813)
(0 -0.009356959 0.51153078)
(0 -0.010943361 0.51315009)
(0 -0.012675218 0.51519478)
(0 -0.014576499 0.51778602)
(0 -0.016668573 0.52108448)
(0 -0.018986387 0.52530807)
(0 -0.021544365 0.53104172)
(0 -0.024629586 0.54072385)
(0 -0.02895831 0.55758363)
(0 -0.031819222 0.56076914)
(0 -0.025024999 0.46482831)
(0 -0.001548868 0.18242789)
(0 -0.00079542508 0.15392177)
(0 0.020495804 0.43800566)
(0 0.032611132 0.56483481)
(0 0.032261782 0.57388264)
(0 0.027750892 0.55378316)
(0 0.024404845 0.54004572)
(0 0.02183942 0.53232833)
(0 0.019500089 0.52692761)
(0 0.017350707 0.52271418)
(0 0.015369123 0.51938318)
(0 0.01354376 0.51673897)
(0 0.011858126 0.51462908)
(0 0.010294887 0.5129409)
(0 0.0088381105 0.51159117)
(0 0.0074723208 0.51051751)
(0 0.0061828366 0.50967309)
(0 0.0049557831 0.50902282)
(0 0.0037780007 0.50854081)
(0 0.0026369533 0.50820856)
(0 0.0015205919 0.50801376)
(0 0.00041720105 0.50794949)
(0 -0.00068474709 0.50801378)
(0 -0.0017968239 0.50820956)
(0 -0.0029307254 0.50854477)
(0 -0.0040985099 0.50903292)
(0 -0.0053127263 0.50969395)
(0 -0.0065865518 0.51055559)
(0 -0.007933922 0.51165532)
(0 -0.009369647 0.51304326)
(0 -0.01090916 0.51478629)
(0 -0.012569165 0.5169743)
(0 -0.014367465 0.51972921)
(0 -0.01631728 0.52321026)
(0 -0.018442691 0.52764555)
(0 -0.020768124 0.5337577)
(0 -0.023594173 0.54422052)
(0 -0.027406642 0.56076853)
(0 -0.02892286 0.55749731)
(0 -0.020800833 0.45035932)
(0 -0.00033265052 0.17078761)
(0 -0.0011392016 0.14592904)
(0 0.016519509 0.42273382)
(0 0.029276715 0.55863629)
(0 0.030323205 0.57581877)
(0 0.026540573 0.55733135)
(0 0.023463628 0.54286506)
(0 0.021121546 0.5346738)
(0 0.018995996 0.52907403)
(0 0.017016888 0.52470847)
(0 0.015165452 0.52123314)
(0 0.013438043 0.51845646)
(0 0.011823753 0.51622784)
(0 0.010310362 0.51443484)
(0 0.0088862129 0.51299397)
(0 0.0075394258 0.51184251)
(0 0.0062583607 0.51093315)
(0 0.0050316823 0.51023031)
(0 0.003848373 0.50970761)
(0 0.0026977347 0.50934615)
(0 0.0015693376 0.50913329)
(0 0.00045294419 0.50906193)
(0 -0.00066155138 0.50913002)
(0 -0.0017842842 0.50934053)
(0 -0.0029254239 0.50970161)
(0 -0.0040953317 0.51022708)
(0 -0.0053046038 0.51093726)
(0 -0.0065641227 0.51186037)
(0 -0.0078850777 0.5130344)
(0 -0.0092790117 0.51450998)
(0 -0.01075748 0.51635444)
(0 -0.012332387 0.51865798)
(0 -0.0140162 0.52154198)
(0 -0.015815621 0.52516361)
(0 -0.017747557 0.52976963)
(0 -0.019850084 0.53623002)
(0 -0.022417671 0.5473165)
(0 -0.025680613 0.56300169)
(0 -0.026019676 0.55320114)
(0 -0.01709707 0.43681647)
(0 0.00041590787 0.16157586)
(0 -0.0012092232 0.13970862)
(0 0.013315573 0.408861)
(0 0.026192307 0.55182061)
(0 0.02834214 0.57676114)
(0 0.025281803 0.56040094)
(0 0.022465433 0.54544437)
(0 0.020317775 0.5368069)
(0 0.01838888 0.53103298)
(0 0.016574068 0.526552)
(0 0.01485341 0.5229658)
(0 0.013228757 0.52008457)
(0 0.011693388 0.51776036)
(0 0.010239138 0.51588148)
(0 0.0088578686 0.51436475)
(0 0.0075408055 0.51314762)
(0 0.0062790327 0.51218275)
(0 0.0050635719 0.51143446)
(0 0.0038854634 0.5108762)
(0 0.0027358287 0.5104889)
(0 0.0016058832 0.51025977)
(0 0.00048692007 0.51018159)
(0 -0.00062967822 0.51025226)
(0 -0.0017525437 0.51047477)
(0 -0.0028902676 0.51085732)
(0 -0.0040514846 0.51141383)
(0 -0.0052448524 0.51216477)
(0 -0.0064790383 0.51313847)
(0 -0.0077626586 0.51437301)
(0 -0.0091042769 0.51591898)
(0 -0.010512051 0.51784363)
(0 -0.011993825 0.5202368)
(0 -0.013557628 0.52321854)
(0 -0.015205194 0.52694439)
(0 -0.016949623 0.53168859)
(0 -0.018844131 0.5384658)
(0 -0.021156723 0.55000199)
(0 -0.023862268 0.56437138)
(0 -0.023219271 0.54820959)
(0 -0.013923227 0.42435888)
(0 0.00083446585 0.15433526)
(0 -0.0011237781 0.13482648)
(0 0.010772798 0.39638918)
(0 0.023383515 0.54469348)
(0 0.026375321 0.57687119)
(0 0.024005977 0.56301064)
(0 0.021443563 0.54780079)
(0 0.019465349 0.53875095)
(0 0.017713614 0.53281826)
(0 0.016053291 0.52824992)
(0 0.0144601 0.52458093)
(0 0.012939084 0.52161944)
(0 0.011486487 0.51922028)
(0 0.010097268 0.51727284)
(0 0.0087660984 0.51569456)
(0 0.0074868125 0.51442334)
(0 0.0062528703 0.51341214)
(0 0.0050574214 0.51262544)
(0 0.003893424 0.51203676)
(0 0.0027537414 0.51162703)
(0 0.0016311986 0.51138344)
(0 0.0005186103 0.51129873)
(0 -0.00059114684 0.51137075)
(0 -0.0017051968 0.51160246)
(0 -0.0028305643 0.51200203)
(0 -0.0039741916 0.51258331)
(0 -0.0051428744 0.51336669)
(0 -0.0063432045 0.51438033)
(0 -0.0075814526 0.51566207)
(0 -0.0088635358 0.51726213)
(0 -0.010194699 0.51924724)
(0 -0.01157944 0.52170649)
(0 -0.01302222 0.52475816)
(0 -0.014521229 0.52855761)
(0 -0.016088377 0.53341457)
(0 -0.017791122 0.54047432)
(0 -0.019853396 0.55228149)
(0 -0.022013005 0.56498726)
(0 -0.020583104 0.54279874)
(0 -0.011247874 0.4130597)
(0 0.0010324466 0.14867864)
(0 -0.0009602992 0.13094471)
(0 0.0087717079 0.38526435)
(0 0.020844718 0.53748773)
(0 0.024456095 0.57630109)
(0 0.022730244 0.56518659)
(0 0.02041771 0.54994888)
(0 0.018590112 0.54052775)
(0 0.016996523 0.53444531)
(0 0.015479304 0.52981013)
(0 0.014008037 0.52608138)
(0 0.012588931 0.52306035)
(0 0.011220242 0.52060431)
(0 0.0098992969 0.51860383)
(0 0.0086229619 0.51697708)
(0 0.0073872225 0.51566255)
(0 0.0061875724 0.5146137)
(0 0.0050190453 0.51379533)
(0 0.0038763465 0.5131812)
(0 0.0027539649 0.51275237)
(0 0.00164626 0.51249609)
(0 0.00054750105 0.51240513)
(0 -0.00054796757 0.51247729)
(0 -0.0016458053 0.51271547)
(0 -0.0027515434 0.51312769)
(0 -0.0038705004 0.51372765)
(0 -0.005007733 0.51453545)
(0 -0.0061679321 0.51557891)
(0 -0.0073552746 0.51689537)
(0 -0.0085733712 0.51853445)
(0 -0.0098250108 0.52056211)
(0 -0.011111963 0.52306642)
(0 -0.012435876 0.52616387)
(0 -0.013792627 0.53001182)
(0 -0.015194623 0.5349616)
(0 -0.016720635 0.54226573)
(0 -0.018537644 0.55416938)
(0 -0.020176513 0.5649638)
(0 -0.018139049 0.53718903)
(0 -0.0090172224 0.40292941)
(0 0.0010907696 0.14428138)
(0 -0.00076842257 0.12781084)
(0 0.0071986088 0.3754028)
(0 0.018553837 0.53037538)
(0 0.022601067 0.57518557)
(0 0.021462514 0.56695711)
(0 0.019398242 0.55189904)
(0 0.017709023 0.54215541)
(0 0.016256813 0.53592922)
(0 0.01487134 0.53124175)
(0 0.013515492 0.52747181)
(0 0.012195013 0.52440874)
(0 0.010909499 0.52191144)
(0 0.009658079 0.51987162)
(0 0.0084393265 0.51820813)
(0 0.007250988 0.51686014)
(0 0.0060902827 0.51578166)
(0 0.0049538909 0.51493793)
(0 0.0038380851 0.51430304)
(0 0.0027388413 0.51385827)
(0 0.0016519462 0.51359101)
(0 0.0005730584 0.51349405)
(0 -0.00050211894 0.51356521)
(0 -0.0015778582 0.51380723)
(0 -0.0026582571 0.51422797)
(0 -0.0037471421 0.51484083)
(0 -0.0048479762 0.51566555)
(0 -0.005963739 0.51672942)
(0 -0.0070967652 0.51806915)
(0 -0.0082486799 0.51973358)
(0 -0.0094202126 0.52178776)
(0 -0.010610907 0.52431868)
(0 -0.011820191 0.52744122)
(0 -0.013042628 0.53131728)
(0 -0.014291928 0.53634343)
(0 -0.0156538 0.5438493)
(0 -0.017230744 0.55568532)
(0 -0.018383059 0.56440962)
(0 -0.015893907 0.53154971)
(0 -0.007168267 0.39393715)
(0 0.0010657997 0.14088098)
(0 -0.00057894583 0.12524299)
(0 0.0059529895 0.36670953)
(0 0.016481835 0.5234808)
(0 0.02081586 0.57363991)
(0 0.020205487 0.56834999)
(0 0.018389885 0.55365729)
(0 0.016832786 0.54364724)
(0 0.015508282 0.53728319)
(0 0.014244164 0.53255381)
(0 0.012997079 0.52875769)
(0 0.011771126 0.52566736)
(0 0.010566823 0.52314228)
(0 0.0093847173 0.52107511)
(0 0.0082247296 0.51938534)
(0 0.0070860633 0.51801275)
(0 0.0059674013 0.51691192)
(0 0.004866856 0.51604862)
(0 0.0037820906 0.51539731)
(0 0.0027104246 0.51493954)
(0 0.0016489494 0.51466289)
(0 0.00059460914 0.5145602)
(0 -0.00045563542 0.51462925)
(0 -0.001504771 0.51487267)
(0 -0.0025555724 0.51529808)
(0 -0.0036105067 0.51591852)
(0 -0.0046716004 0.51675325)
(0 -0.0057403159 0.51782896)
(0 -0.0068173832 0.51918161)
(0 -0.0079027257 0.52085916)
(0 -0.0089953425 0.52292574)
(0 -0.010092936 0.52546715)
(0 -0.011193141 0.52859712)
(0 -0.012289956 0.53248462)
(0 -0.013398471 0.53757227)
(0 -0.014606147 0.54523283)
(0 -0.015948457 0.55685157)
(0 -0.016653593 0.56342252)
(0 -0.013842959 0.52600668)
(0 -0.0056378504 0.38602744)
(0 0.00099428159 0.13827184)
(0 -0.00040939854 0.12311397)
(0 0.0049509953 0.35908896)
(0 0.014598934 0.51689171)
(0 0.019100054 0.57176093)
(0 0.018959764 0.56939153)
(0 0.017394538 0.55522605)
(0 0.015968162 0.5450119)
(0 0.014761018 0.53851797)
(0 0.013609267 0.53375459)
(0 0.012464561 0.52994462)
(0 0.011328663 0.5268397)
(0 0.010202809 0.52429852)
(0 0.0090887281 0.52221452)
(0 0.0079874536 0.52050769)
(0 0.006899423 0.5191184)
(0 0.0058245727 0.51800181)
(0 0.0047622616 0.51712417)
(0 0.0037113808 0.51646039)
(0 0.0026704506 0.51599233)
(0 0.0016377402 0.51570773)
(0 0.00061135941 0.51559955)
(0 -0.00041057897 0.51566551)
(0 -0.001429891 0.5159081)
(0 -0.00244816 0.51633466)
(0 -0.0034666294 0.51695784)
(0 -0.0044860516 0.51779635)
(0 -0.0055065589 0.51887621)
(0 -0.0065274945 0.52023256)
(0 -0.0075473254 0.52191244)
(0 -0.0085635834 0.52397899)
(0 -0.0095724146 0.52651685)
(0 -0.010569941 0.52963913)
(0 -0.011550087 0.53352409)
(0 -0.012528843 0.53865846)
(0 -0.013590041 0.54642307)
(0 -0.014703722 0.55769181)
(0 -0.015003531 0.56208794)
(0 -0.011977144 0.52065024)
(0 -0.0043691375 0.37913107)
(0 0.00089820413 0.13629509)
(0 -0.00026800481 0.12133751)
(0 0.0041263492 0.35245052)
(0 0.01287862 0.51066757)
(0 0.017451434 0.56962879)
(0 0.017726464 0.57010618)
(0 0.016413647 0.55660528)
(0 0.015120106 0.54625412)
(0 0.014023088 0.53964184)
(0 0.01297619 0.53485134)
(0 0.011927896 0.53103807)
(0 0.010877434 0.52792963)
(0 0.0098267211 0.52538264)
(0 0.0087785528 0.52329105)
(0 0.0077349464 0.52157534)
(0 0.0066974213 0.52017636)
(0 0.0056670048 0.51904986)
(0 0.0046441455 0.5181626)
(0 0.0036288161 0.51748991)
(0 0.0026206026 0.51701398)
(0 0.0016188267 0.51672277)
(0 0.00062264331 0.51660931)
(0 -0.00036879787 0.5166713)
(0 -0.0013562631 0.51691105)
(0 -0.0023402756 0.51733563)
(0 -0.0033209963 0.51795722)
(0 -0.004298063 0.51879398)
(0 -0.0052704571 0.51987118)
(0 -0.0062363337 0.52122313)
(0 -0.0071929158 0.52289588)
(0 -0.0081364796 0.52495154)
(0 -0.0090618288 0.52747365)
(0 -0.0099637368 0.5305752)
(0 -0.010836294 0.53444543)
(0 -0.011695551 0.53961089)
(0 -0.012616644 0.54742647)
(0 -0.013508886 0.55823057)
(0 -0.013446059 0.56047912)
(0 -0.010288073 0.51554178)
(0 -0.0033161028 0.37317146)
(0 0.00078942931 0.13482685)
(0 -0.00015691296 0.11985716)
(0 0.0034297739 0.34671078)
(0 0.011300063 0.50484572)
(0 0.015869413 0.56730908)
(0 0.016509469 0.57051662)
(0 0.015450355 0.55779352)
(0 0.014293814 0.5473756)
(0 0.013302211 0.54066095)
(0 0.012353891 0.53585039)
(0 0.011396386 0.53204328)
(0 0.010426635 0.52894127)
(0 0.0094473244 0.52639766)
(0 0.0084622881 0.52430672)
(0 0.0074744775 0.52258935)
(0 0.0064863952 0.52118692)
(0 0.0055000335 0.5200557)
(0 0.0045168003 0.51916301)
(0 0.0035376207 0.5184846)
(0 0.0025630217 0.51800299)
(0 0.0015932573 0.51770637)
(0 0.00062841131 0.51758785)
(0 -0.0003314455 0.51764509)
(0 -0.0012861502 0.51788025)
(0 -0.0022352942 0.51830006)
(0 -0.0031780948 0.51891628)
(0 -0.0041132307 0.51974643)
(0 -0.0050387024 0.52081506)
(0 -0.005951662 0.52215556)
(0 -0.0068482818 0.52381299)
(0 -0.0077237635 0.52584837)
(0 -0.0085717482 0.52834412)
(0 -0.0093857654 0.53141362)
(0 -0.010160105 0.53525811)
(0 -0.010909857 0.54043769)
(0 -0.011697075 0.54825004)
(0 -0.012377082 0.55849318)
(0 -0.011994349 0.55865827)
(0 -0.0087707762 0.51071956)
(0 -0.0024457525 0.36806797)
(0 0.00067399788 0.1337681)
(0 -7.473505e-05 0.11863662)
(0 0.002827652 0.34179329)
(0 0.0098493922 0.49944592)
(0 0.014357387 0.56485493)
(0 0.01531695 0.57064409)
(0 0.014511062 0.55878906)
(0 0.013496234 0.5483762)
(0 0.012606923 0.54157994)
(0 0.011751625 0.53675743)
(0 0.010879372 0.53296541)
(0 0.0099854073 0.52987902)
(0 0.0090733405 0.52734714)
(0 0.008148068 0.52526422)
(0 0.0072134687 0.52355162)
(0 0.0062729599 0.52215125)
(0 0.0053293978 0.52101995)
(0 0.0043850396 0.52012554)
(0 0.0034416473 0.51944423)
(0 0.0025005762 0.51895891)
(0 0.001562902 0.51865795)
(0 0.00062952801 0.51853458)
(0 -0.00029866357 0.51858642)
(0 -0.0012206952 0.51881545)
(0 -0.0021353478 0.5192281)
(0 -0.0030410281 0.51983566)
(0 -0.0039356021 0.52065505)
(0 -0.0048162516 0.52171003)
(0 -0.005679303 0.52303307)
(0 -0.0065200661 0.5246682)
(0 -0.0073328455 0.52667528)
(0 -0.0081103065 0.52913559)
(0 -0.0088448539 0.53216328)
(0 -0.0095308899 0.53597185)
(0 -0.010181525 0.54114717)
(0 -0.010842237 0.54890243)
(0 -0.011322099 0.55850597)
(0 -0.010662081 0.55667835)
(0 -0.0074242595 0.50620403)
(0 -0.0017373184 0.36373744)
(0 0.00055619511 0.13303554)
(0 -1.8240493e-05 0.11765151)
(0 0.0023001596 0.33762644)
(0 0.0085200998 0.49447378)
(0 0.012923708 0.56230894)
(0 0.014161609 0.57050896)
(0 0.013605611 0.5595911)
(0 0.012736133 0.54925521)
(0 0.011946351 0.54240274)
(0 0.011178517 0.53757794)
(0 0.010385681 0.53380978)
(0 0.0095621995 0.5307476)
(0 0.0087127591 0.5282351)
(0 0.007843339 0.52616684)
(0 0.0069587461 0.52446475)
(0 0.0060632497 0.52307133)
(0 0.0051604809 0.52194401)
(0 0.0042534475 0.52105118)
(0 0.0033446467 0.5203695)
(0 0.0024361608 0.5198822)
(0 0.0015297876 0.51957788)
(0 0.00062715171 0.51944987)
(0 -0.00027015203 0.51949577)
(0 -0.0011604346 0.51971737)
(0 -0.0020417766 0.52012081)
(0 -0.0029118939 0.52071691)
(0 -0.0037679737 0.52152199)
(0 -0.0046065297 0.52255903)
(0 -0.0054232319 0.52385958)
(0 -0.0062127185 0.5254666)
(0 -0.0069685908 0.52743871)
(0 -0.0076827633 0.52985601)
(0 -0.0083467198 0.53283372)
(0 -0.00895489 0.53659704)
(0 -0.0095175639 0.54174882)
(0 -0.010061246 0.54939488)
(0 -0.010356703 0.55829682)
(0 -0.0094622899 0.55458512)
(0 -0.0062503241 0.50200247)
(0 -0.0011789013 0.36009422)
(0 0.00044101031 0.1325553)
(0 1.6718063e-05 0.11688267)
(0 0.0018388988 0.33414039)
(0 0.0073128306 0.48992353)
(0 0.011581257 0.55970527)
(0 0.013059262 0.57013161)
(0 0.012745544 0.56020123)
(0 0.012022212 0.55001295)
(0 0.011328207 0.54313371)
(0 0.010641535 0.53831787)
(0 0.0099216225 0.53458217)
(0 0.0091627868 0.53155222)
(0 0.0083708647 0.52906607)
(0 0.0075528907 0.52701842)
(0 0.0067145679 0.52533193)
(0 0.0058609425 0.52394977)
(0 0.0049963333 0.52283005)
(0 0.0041244075 0.5219417)
(0 0.0032483067 0.52126187)
(0 0.0023707519 0.52077413)
(0 0.0014941773 0.52046733)
(0 0.00062084406 0.52033488)
(0 -0.00024702412 0.52037436)
(0 -0.001107114 0.52058741)
(0 -0.0019568976 0.52097986)
(0 -0.0027934994 0.52156212)
(0 -0.0036135403 0.52234989)
(0 -0.0044129953 0.52336542)
(0 -0.0051870284 0.52463933)
(0 -0.0059297886 0.52621349)
(0 -0.0066343843 0.52814527)
(0 -0.0072922447 0.53051354)
(0 -0.0078942489 0.53343474)
(0 -0.0084348903 0.5371447)
(0 -0.0089211651 0.54225372)
(0 -0.0093595952 0.54974189)
(0 -0.0094904586 0.55789587)
(0 -0.0084055345 0.55241941)
(0 -0.0052517787 0.49811289)
(0 -0.00076271062 0.3570489)
(0 0.00033431871 0.13226019)
(0 3.4648839e-05 0.1163112)
(0 0.0014440481 0.33126339)
(0 0.0062348671 0.48578052)
(0 0.010346213 0.55707233)
(0 0.012026455 0.56953424)
(0 0.01194115 0.56062512)
(0 0.011360171 0.55065232)
(0 0.010756109 0.54377855)
(0 0.010143096 0.53898405)
(0 0.0094888194 0.53528905)
(0 0.0087882404 0.5322986)
(0 0.0080482794 0.52984505)
(0 0.0072769153 0.52782327)
(0 0.0064806673 0.52615684)
(0 0.005665265 0.52478975)
(0 0.0048356277 0.52368077)
(0 0.0039959997 0.52279945)
(0 0.003150089 0.52212343)
(0 0.0023011818 0.52163661)
(0 0.0014522786 0.52132808)
(0 0.00060620902 0.52119135)
(0 -0.00023424097 0.52122399)
(0 -0.0010662003 0.52142748)
(0 -0.0018866011 0.52180739)
(0 -0.0026920478 0.5223737)
(0 -0.003478674 0.52314158)
(0 -0.0042420072 0.52413253)
(0 -0.0049768159 0.52537632)
(0 -0.0056769043 0.52691376)
(0 -0.0063350785 0.52880095)
(0 -0.0069425497 0.5311156)
(0 -0.0074899743 0.53397552)
(0 -0.0079721231 0.53762554)
(0 -0.0083927701 0.54267398)
(0 -0.0087391738 0.54996115)
(0 -0.0087290305 0.557336)
(0 -0.0074988482 0.55021914)
(0 -0.0044306447 0.49452672)
(0 -0.0004796547 0.35450769)
(0 0.00024180912 0.13208885)
(0 3.9961991e-05 0.11591462)
(0 0.0011209397 0.32891828)
(0 0.0052993707 0.48202316)
(0 0.0092372101 0.55443619)
(0 0.011078964 0.56874344)
(0 0.011199771 0.56087451)
(0 0.010751465 0.55118012)
(0 0.010229015 0.54434488)
(0 0.0096810816 0.53958435)
(0 0.0090845813 0.53593752)
(0 0.0084354827 0.53299292)
(0 0.0077415712 0.53057739)
(0 0.007011584 0.52858609)
(0 0.0062527382 0.52694364)
(0 0.00547135 0.52559492)
(0 0.0046728629 0.52449945)
(0 0.0038620326 0.52362741)
(0 0.0030430733 0.52295688)
(0 0.0022197813 0.52247215)
(0 0.0013956697 0.52216251)
(0 0.00057408539 0.5220216)
(0 -0.00024167149 0.52204695)
(0 -0.0010482178 0.52223993)
(0 -0.0018419879 0.52260583)
(0 -0.0026191055 0.52315426)
(0 -0.0033752535 0.52389985)
(0 -0.00410555 0.52486348)
(0 -0.0048044131 0.52607407)
(0 -0.005465368 0.52757145)
(0 -0.006081029 0.52941054)
(0 -0.0066425788 0.53166805)
(0 -0.0071407784 0.53446329)
(0 -0.0075710053 0.53804852)
(0 -0.0079345051 0.54302135)
(0 -0.0082018984 0.55007248)
(0 -0.0080766167 0.55665256)
(0 -0.0067464689 0.54801996)
(0 -0.0037862792 0.49122924)
(0 -0.00031471801 0.35237419)
(0 0.00016725649 0.13198715)
(0 3.6875933e-05 0.11566424)
(0 0.00087610046 0.32702018)
(0 0.0045235873 0.47862347)
(0 0.0082755516 0.55182351)
(0 0.010233241 0.56779292)
(0 0.010528361 0.56096888)
(0 0.010196951 0.55160744)
(0 0.0097457468 0.54484198)
(0 0.0092539137 0.54012723)