/*--------------------------------*- C++ -*----------------------------------*\
  =========                 |
  \\      /  F ield         | OpenFOAM: The Open Source CFD Toolbox
   \\    /   O peration     | Website:  https://openfoam.org
    \\  /    A nd           | Version:  10
     \\/     M anipulation  |
\*---------------------------------------------------------------------------*/
FoamFile
{
    format      ascii;
    class       volVectorField;
    location    "0.07";
    object      U_0;
}
// * * * * * * * * * * * * * * * * * * * * * * * * * * * * * * * * * * * * * //

dimensions      [0 1 -1 0 0 0 0];

internalField   nonuniform List<vector> 
4000
(
(0 0.0186246 0.47773794)
(0 0.023486129 0.50885701)
(0 0.0081452358 0.50052601)
(0 0.0055932838 0.50033695)
(0 0.0042319566 0.50025758)
(0 0.003231922 0.50016895)
(0 0.0025334099 0.50011958)
(0 0.0020326413 0.50008994)
(0 0.0016557056 0.50006955)
(0 0.0013627145 0.50005508)
(0 0.0011292505 0.50004464)
(0 0.00093893887 0.50003694)
(0 0.00078049545 0.50003117)
(0 0.00064591937 0.50002681)
(0 0.00052936065 0.50002351)
(0 0.00042642005 0.50002101)
(0 0.00033369403 0.50001915)
(0 0.00024846651 0.5000178)
(0 0.00016849207 0.5000169)
(0 9.1836837e-05 0.50001638)
(0 1.6756772e-05 0.50001623)
(0 -5.8412151e-05 0.50001642)
(0 -0.00013534441 0.50001698)
(0 -0.0002158171 0.50001794)
(0 -0.0003018234 0.50001935)
(0 -0.00039570246 0.5000213)
(0 -0.00050031241 0.50002393)
(0 -0.00061927096 0.50002741)
(0 -0.00075730434 0.50003203)
(0 -0.00092077897 0.50003818)
(0 -0.0011185548 0.50004648)
(0 -0.0013633542 0.5000579)
(0 -0.0016740067 0.50007389)
(0 -0.0020809568 0.50009695)
(0 -0.0026402594 0.5001348)
(0 -0.0034344565 0.50020258)
(0 -0.0045288004 0.5002723)
(0 -0.0065536852 0.50043488)
(0 -0.017626678 0.50674931)
(0 -0.013573102 0.47976491)
(0 0.037396963 0.44801275)
(0 0.05088301 0.53232107)
(0 0.021897337 0.50804357)
(0 0.01606741 0.50357724)
(0 0.012343687 0.50242427)
(0 0.0094430532 0.50162271)
(0 0.0074490243 0.50115547)
(0 0.0060007034 0.50086401)
(0 0.0048988086 0.50066545)
(0 0.00403865 0.50052592)
(0 0.0033511341 0.5004255)
(0 0.0027892042 0.50035162)
(0 0.0023203954 0.5002964)
(0 0.0019215463 0.50025473)
(0 0.0015756308 0.50022315)
(0 0.0012697973 0.50019929)
(0 0.00099407268 0.50018152)
(0 0.00074047703 0.5001687)
(0 0.00050239883 0.50016008)
(0 0.00027413398 0.50015515)
(0 5.0530298e-05 0.50015365)
(0 -0.00017332505 0.50015551)
(0 -0.00040237644 0.50016083)
(0 -0.00064187164 0.50016995)
(0 -0.00089768618 0.5001834)
(0 -0.0011767024 0.50020204)
(0 -0.0014873087 0.50022711)
(0 -0.0018400912 0.50026041)
(0 -0.0022488289 0.5003046)
(0 -0.0027319846 0.50036357)
(0 -0.0033150868 0.50044329)
(0 -0.0040347048 0.50055327)
(0 -0.0049441774 0.50070865)
(0 -0.0061236862 0.50093507)
(0 -0.0077223929 0.50129417)
(0 -0.010017105 0.50191242)
(0 -0.013004633 0.50283137)
(0 -0.017323218 0.50608446)
(0 -0.038657417 0.5252607)
(0 -0.027845155 0.45028151)
(0 0.039833843 0.40993891)
(0 0.061302379 0.54932132)
(0 0.031848598 0.52187791)
(0 0.024232981 0.51008809)
(0 0.019065091 0.50659137)
(0 0.014848555 0.50452703)
(0 0.011880866 0.50326777)
(0 0.0096505411 0.50245253)
(0 0.0079213353 0.50189337)
(0 0.0065573005 0.50149945)
(0 0.0054579784 0.50121493)
(0 0.0045536572 0.50100508)
(0 0.0037954452 0.50084799)
(0 0.0031478158 0.50072928)
(0 0.0025843248 0.50063921)
(0 0.0020848258 0.50057112)
(0 0.0016335624 0.50052037)
(0 0.0012178466 0.50048375)
(0 0.00082711134 0.50045909)
(0 0.00045220272 0.50044499)
(0 8.4828874e-05 0.5004407)
(0 -0.00028292311 0.50044599)
(0 -0.000659017 0.5004612)
(0 -0.0010518919 0.50048723)
(0 -0.0014709645 0.50052563)
(0 -0.0019272146 0.50057881)
(0 -0.0024339455 0.5006503)
(0 -0.0030078199 0.50074519)
(0 -0.0036703302 0.50087094)
(0 -0.0044499198 0.50103851)
(0 -0.0053851984 0.5012645)
(0 -0.0065304621 0.50157514)
(0 -0.0079633377 0.50201269)
(0 -0.0097884884 0.50264573)
(0 -0.012179042 0.50361401)
(0 -0.015524355 0.505204)
(0 -0.019690345 0.50786717)
(0 -0.024994656 0.51641308)
(0 -0.047237952 0.53914254)
(0 -0.03077361 0.41505671)
(0 0.034723518 0.36196353)
(0 0.063656382 0.55462797)
(0 0.039166517 0.53745965)
(0 0.029895067 0.51849963)
(0 0.023919795 0.51198173)
(0 0.019087697 0.50849664)
(0 0.015548995 0.50625609)
(0 0.012774143 0.50474282)
(0 0.010573195 0.50368812)
(0 0.0088089772 0.50293672)
(0 0.0073681457 0.50238905)
(0 0.0061707939 0.50198254)
(0 0.0051589005 0.50167686)
(0 0.0042890259 0.50144503)
(0 0.0035282014 0.50126866)
(0 0.0028509155 0.50113503)
(0 0.0022369544 0.50103525)
(0 0.0016698664 0.50096316)
(0 0.0011358327 0.50091455)
(0 0.00062280265 0.50088673)
(0 0.00011981052 0.50087821)
(0 -0.00038362854 0.5008886)
(0 -0.00089806539 0.50091852)
(0 -0.001434647 0.50096972)
(0 -0.0020057446 0.50104521)
(0 -0.0026256753 0.50114961)
(0 -0.003311617 0.50128969)
(0 -0.0040848214 0.50147519)
(0 -0.0049722876 0.5017202)
(0 -0.0060090723 0.50204531)
(0 -0.0072413944 0.50248113)
(0 -0.008731911 0.50307484)
(0 -0.010568548 0.5039014)
(0 -0.012858729 0.50507757)
(0 -0.015738507 0.50680321)
(0 -0.01961208 0.50947519)
(0 -0.024452855 0.51429148)
(0 -0.030809216 0.52824006)
(0 -0.05005241 0.54415292)
(0 -0.028330713 0.37273047)
(0 0.027347567 0.31522548)
(0 0.062074504 0.55040087)
(0 0.044307325 0.55145161)
(0 0.033712561 0.52748641)
(0 0.027196911 0.51772655)
(0 0.022190868 0.51291361)
(0 0.018379844 0.50971602)
(0 0.0152818 0.50746982)
(0 0.012773602 0.50587102)
(0 0.010725734 0.50471282)
(0 0.0090264567 0.50385769)
(0 0.0075966119 0.50321703)
(0 0.0063759338 0.50273183)
(0 0.0053177667 0.50236179)
(0 0.0043858706 0.50207903)
(0 0.0035516212 0.50186403)
(0 0.0027919424 0.50170308)
(0 0.0020877859 0.50158653)
(0 0.0014229655 0.50150781)
(0 0.00078324016 0.50146267)
(0 0.00015557172 0.50144878)
(0 -0.00047254047 0.50146551)
(0 -0.0011136731 0.50151385)
(0 -0.0017810589 0.50159653)
(0 -0.0024892804 0.50171829)
(0 -0.0032550469 0.50188634)
(0 -0.0040981494 0.50211117)
(0 -0.0050426822 0.50240778)
(0 -0.0061186625 0.50279757)
(0 -0.0073642053 0.50331137)
(0 -0.0088280107 0.50399406)
(0 -0.01057304 0.50491245)
(0 -0.012686768 0.50616976)
(0 -0.015274134 0.50792153)
(0 -0.018423656 0.51039506)
(0 -0.022498389 0.51406281)
(0 -0.027781131 0.52115535)
(0 -0.035265795 0.53931052)
(0 -0.050113071 0.5417608)
(0 -0.023955182 0.33113999)
(0 0.019756519 0.27575659)
(0 0.057692814 0.54005513)
(0 0.046950805 0.56255752)
(0 0.036108902 0.53658312)
(0 0.029282286 0.52350589)
(0 0.024328866 0.51739101)
(0 0.020437761 0.51333683)
(0 0.017188378 0.51040734)
(0 0.014511656 0.50827797)
(0 0.012285741 0.50670794)
(0 0.010408731 0.50553245)
(0 0.0088082596 0.50464221)
(0 0.0074263705 0.50396212)
(0 0.0062169295 0.50343982)
(0 0.0051432522 0.5030385)
(0 0.0041756859 0.50273201)
(0 0.0032898533 0.50250174)
(0 0.0024652982 0.50233453)
(0 0.0016843994 0.50222134)
(0 0.00093148743 0.50215628)
(0 0.00019211243 0.50213614)
(0 -0.00054762533 0.50216002)
(0 -0.0013017062 0.5022293)
(0 -0.0020847695 0.50234776)
(0 -0.0029128163 0.50252192)
(0 -0.003803969 0.50276166)
(0 -0.0047793792 0.50308126)
(0 -0.005864343 0.50350089)
(0 -0.0070897089 0.50404893)
(0 -0.0084937894 0.50476562)
(0 -0.010124356 0.50570829)
(0 -0.012040316 0.50695966)
(0 -0.014322561 0.50864344)
(0 -0.017074264 0.51094225)
(0 -0.020350598 0.5141002)
(0 -0.024448521 0.51873155)
(0 -0.029970015 0.52821698)
(0 -0.038027918 0.54870743)
(0 -0.048043347 0.5343872)
(0 -0.018916551 0.29480851)
(0 0.01299917 0.24331667)
(0 0.051446249 0.52571821)
(0 0.04717951 0.57027445)
(0 0.037269147 0.54547287)
(0 0.030394792 0.52927321)
(0 0.025631074 0.52177906)
(0 0.021810759 0.51695642)
(0 0.018547134 0.5134166)
(0 0.015811933 0.51079563)
(0 0.01349614 0.50883262)
(0 0.011512871 0.50734395)
(0 0.009799096 0.50620436)
(0 0.0083017998 0.50532587)
(0 0.0069779248 0.50464615)
(0 0.0057924199 0.50412067)
(0 0.0047162669 0.50371734)
(0 0.0037251218 0.50341309)
(0 0.0027981925 0.50319145)
(0 0.0019172989 0.503041)
(0 0.0010660847 0.5029543)
(0 0.00022934498 0.50292724)
(0 -0.00060759884 0.50295869)
(0 -0.0014595066 0.50305039)
(0 -0.0023417533 0.50320714)
(0 -0.0032709973 0.50343718)
(0 -0.0042658693 0.50375293)
(0 -0.0053477801 0.50417216)
(0 -0.0065418784 0.50471975)
(0 -0.007878183 0.50543026)
(0 -0.0093931736 0.50635185)
(0 -0.011131596 0.50755216)
(0 -0.013146395 0.50912662)
(0 -0.015507761 0.51121391)
(0 -0.018312614 0.51401493)
(0 -0.021594232 0.51780062)
(0 -0.025591734 0.52345004)
(0 -0.031139301 0.53532007)
(0 -0.038975278 0.55590104)
(0 -0.044322954 0.52350907)
(0 -0.013923672 0.26385814)
(0 0.0076841378 0.21653135)
(0 0.044418651 0.50880506)
(0 0.045598201 0.57447578)
(0 0.03740706 0.55366032)
(0 0.030712425 0.53491833)
(0 0.026216579 0.525991)
(0 0.022586075 0.5204759)
(0 0.01941765 0.51640527)
(0 0.016711359 0.51334236)
(0 0.01437841 0.51101767)
(0 0.012349965 0.50923503)
(0 0.010573451 0.50785683)
(0 0.0090025299 0.50678515)
(0 0.0075988973 0.50594982)
(0 0.0063305409 0.5053)
(0 0.0051702982 0.50479867)
(0 0.0040949064 0.50441887)
(0 0.003084125 0.50414124)
(0 0.0021199761 0.50395223)
(0 0.0011860843 0.50384297)
(0 0.00026709773 0.50380856)
(0 -0.00065186097 0.50384762)
(0 -0.0015857476 0.50396226)
(0 -0.0025500563 0.50415817)
(0 -0.0035614217 0.50444516)
(0 -0.0046382056 0.5048379)
(0 -0.0058011752 0.50535724)
(0 -0.0070742857 0.50603211)
(0 -0.0084855264 0.50690222)
(0 -0.010068103 0.50802224)
(0 -0.011862162 0.50946802)
(0 -0.013913602 0.51134539)
(0 -0.016279308 0.5138042)
(0 -0.019042812 0.51705542)
(0 -0.022222658 0.52141328)
(0 -0.026035131 0.52812738)
(0 -0.031441355 0.54210365)
(0 -0.038417528 0.56056379)
(0 -0.039648657 0.51015104)
(0 -0.0095257724 0.23746883)
(0 0.0039173962 0.19479869)
(0 0.037437172 0.49063507)
(0 0.042891842 0.57545098)
(0 0.03677325 0.56071128)
(0 0.030437846 0.54027612)
(0 0.026236869 0.52994618)
(0 0.022865982 0.52381103)
(0 0.019867994 0.51929579)
(0 0.017255773 0.51585047)
(0 0.014963343 0.51320457)
(0 0.012939916 0.51115549)
(0 0.011143551 0.50955696)
(0 0.0095356162 0.50830392)
(0 0.0080835264 0.50732036)
(0 0.0067591788 0.50655061)
(0 0.0055381043 0.5059537)
(0 0.0043988857 0.50549956)
(0 0.0033225196 0.5051664)
(0 0.0022918474 0.50493888)
(0 0.0012910385 0.50480693)
(0 0.00030512156 0.50476493)
(0 -0.00068046912 0.50481131)
(0 -0.0016803722 0.50494846)
(0 -0.0027096669 0.50518288)
(0 -0.0037843902 0.5055257)
(0 -0.0049220053 0.50599349)
(0 -0.0061419337 0.50660967)
(0 -0.0074661583 0.50740643)
(0 -0.008919806 0.50842763)
(0 -0.010531858 0.50973297)
(0 -0.012336728 0.51140455)
(0 -0.014372735 0.51355601)
(0 -0.016683212 0.51634447)
(0 -0.019334453 0.51998401)
(0 -0.022337188 0.52485257)
(0 -0.025920238 0.53262294)
(0 -0.031061691 0.54819565)
(0 -0.036788854 0.56271412)
(0 -0.034623676 0.49535155)
(0 -0.0060029673 0.21531645)
(0 0.0014629931 0.17765038)
(0 0.030979598 0.47234467)
(0 0.03958781 0.57377057)
(0 0.035582566 0.56642327)
(0 0.029755851 0.54523145)
(0 0.025849925 0.5336006)
(0 0.022761474 0.52690386)
(0 0.019974782 0.52202823)
(0 0.017499308 0.51826597)
(0 0.015289117 0.51534535)
(0 0.013309228 0.51306301)
(0 0.011527554 0.51126771)
(0 0.0099133138 0.50984993)
(0 0.008439901 0.50872971)
(0 0.0070835231 0.50784796)
(0 0.0058228936 0.50716079)
(0 0.0046389379 0.50663579)
(0 0.0035143733 0.50624926)
(0 0.0024333254 0.50598447)
(0 0.0013809538 0.50583034)
(0 0.00034309621 0.50578069)
(0 -0.00069407898 0.50583378)
(0 -0.0017444685 0.50599225)
(0 -0.002822302 0.50626323)
(0 -0.0039425648 0.5066589)
(0 -0.0051213439 0.50719736)
(0 -0.0063762131 0.50790402)
(0 -0.0077266603 0.50881357)
(0 -0.0091944571 0.50997293)
(0 -0.010803932 0.51144543)
(0 -0.012583296 0.51331739)
(0 -0.014563411 0.51570749)
(0 -0.016775614 0.5187762)
(0 -0.019269283 0.52273821)
(0 -0.022054064 0.52806106)
(0 -0.025388205 0.53683159)
(0 -0.030160766 0.55337326)
(0 -0.034460488 0.56265328)
(0 -0.029646259 0.48006247)
(0 -0.003377455 0.19718035)
(0 -9.825714e-06 0.16434004)
(0 0.025288113 0.45470746)
(0 0.036052889 0.57006114)
(0 0.03400461 0.57077993)
(0 0.028803881 0.5497324)
(0 0.025186235 0.53695409)
(0 0.022373231 0.52973441)
(0 0.019813268 0.5245692)
(0 0.017498374 0.52055339)
(0 0.015397356 0.51740551)
(0 0.013488227 0.5149252)
(0 0.011747429 0.51295945)
(0 0.010151417 0.51139641)
(0 0.0086792487 0.51015383)
(0 0.0073114454 0.50917043)
(0 0.0060300771 0.50840043)
(0 0.0048186639 0.50780974)
(0 0.0036619388 0.50737332)
(0 0.0025456276 0.50707338)
(0 0.0014562028 0.50689812)
(0 0.00038063599 0.5068409)
(0 -0.00069384474 0.50689986)
(0 -0.0017800659 0.5070778)
(0 -0.0028910782 0.50738235)
(0 -0.0040404844 0.50782648)
(0 -0.0052426687 0.50842939)
(0 -0.0065130474 0.50921792)
(0 -0.0078683364 0.51022852)
(0 -0.0093267692 0.51151015)
(0 -0.010908045 0.51312847)
(0 -0.012634326 0.51517228)
(0 -0.014529564 0.51776285)
(0 -0.016615115 0.52106104)
(0 -0.018926017 0.52528503)
(0 -0.02147675 0.53101881)
(0 -0.024552724 0.54069575)
(0 -0.028868447 0.5575513)
(0 -0.031725035 0.56079041)
(0 -0.024965916 0.46498322)
(0 -0.0015348064 0.18260216)
(0 -0.00079966336 0.15404629)
(0 0.02045709 0.43816312)
(0 0.032535535 0.56488293)
(0 0.032180693 0.57386078)
(0 0.027679998 0.55375641)
(0 0.024342741 0.54002616)
(0 0.021783161 0.53230988)
(0 0.019449231 0.52690839)
(0 0.017305117 0.5226946)
(0 0.015328523 0.51936365)
(0 0.013507859 0.51671969)
(0 0.011826632 0.51461017)
(0 0.010267528 0.51292241)
(0 0.0088146408 0.51157308)
(0 0.0074525303 0.5104998)
(0 0.0061665525 0.50965567)
(0 0.0049428725 0.5090056)
(0 0.003768372 0.50852366)
(0 0.0026305572 0.50819137)
(0 0.001517422 0.50799638)
(0 0.00041729489 0.50793177)
(0 -0.00068130643 0.50799556)
(0 -0.0017899058 0.50819068)
(0 -0.002920149 0.50852507)
(0 -0.0040840413 0.50901225)
(0 -0.005294075 0.50967215)
(0 -0.0065633672 0.51053251)
(0 -0.0079057902 0.51163086)
(0 -0.0093360888 0.51301734)
(0 -0.010869631 0.51475888)
(0 -0.012523057 0.51694548)
(0 -0.014314125 0.51969916)
(0 -0.016256015 0.52317942)
(0 -0.018372873 0.52761457)
(0 -0.02068903 0.5337255)
(0 -0.023502809 0.54418004)
(0 -0.027299134 0.56072663)
(0 -0.028812662 0.55753393)
(0 -0.020733577 0.45056284)
(0 -0.00031728815 0.17099807)
(0 -0.0011425285 0.14607435)
(0 0.01647615 0.42293475)
(0 0.029189183 0.55870692)
(0 0.030226674 0.57579398)
(0 0.026455807 0.55729434)
(0 0.023390413 0.54283746)
(0 0.021056036 0.53464897)
(0 0.018937275 0.52904889)
(0 0.016964623 0.52468327)
(0 0.015119205 0.52120832)
(0 0.013397371 0.51843224)
(0 0.01178823 0.51620433)
(0 0.010279602 0.51441205)
(0 0.0088598783 0.51297186)
(0 0.0075172302 0.51182099)
(0 0.0062400712 0.5109121)
(0 0.0050171202 0.51020958)
(0 0.0038374133 0.50968705)
(0 0.0026903059 0.50932557)
(0 0.0015654218 0.50911252)
(0 0.00045257729 0.50904075)
(0 -0.00065827809 0.50910823)
(0 -0.0017772215 0.50931792)
(0 -0.0029143612 0.50967796)
(0 -0.0040799921 0.51020216)
(0 -0.0052846395 0.51091086)
(0 -0.0065391079 0.51183227)
(0 -0.0078545022 0.51300442)
(0 -0.0092422752 0.51447796)
(0 -0.010713887 0.51632028)
(0 -0.012281142 0.51862168)
(0 -0.013956423 0.52150368)
(0 -0.015746356 0.52512373)
(0 -0.017667854 0.52972873)
(0 -0.019758678 0.53618581)
(0 -0.022310431 0.54726038)
(0 -0.025553883 0.56294932)
(0 -0.025892259 0.553258)
(0 -0.017020867 0.43707731)
(0 0.0004326649 0.16182661)
(0 -0.0012112946 0.13987689)
(0 0.013267002 0.40911278)
(0 0.02609155 0.55191958)
(0 0.028228408 0.57673421)
(0 0.025181444 0.56035134)
(0 0.022379858 0.54540625)
(0 0.02024222 0.53677392)
(0 0.018321788 0.53100052)
(0 0.016514811 0.52651997)
(0 0.014801334 0.52293468)
(0 0.013183224 0.52005458)
(0 0.011653803 0.51773155)
(0 0.010204977 0.5158538)
(0 0.0088286812 0.51433811)
(0 0.0075162154 0.51312186)
(0 0.0062587371 0.5121577)
(0 0.0050473389 0.5114099)
(0 0.0038731295 0.51085192)
(0 0.0027272969 0.51046466)
(0 0.0016011214 0.51023532)
(0 0.00048596147 0.51015668)
(0 -0.00062673538 0.51022661)
(0 -0.0017455321 0.51044811)
(0 -0.0028789456 0.51082936)
(0 -0.0040355312 0.51138427)
(0 -0.0052238591 0.5121333)
(0 -0.006452499 0.5131048)
(0 -0.0077299588 0.51433683)
(0 -0.009064682 0.51588005)
(0 -0.010464695 0.51780173)
(0 -0.011937697 0.52019181)
(0 -0.013491582 0.5231705)
(0 -0.015127954 0.52689367)
(0 -0.016859822 0.53163543)
(0 -0.018739788 0.53840637)
(0 -0.021032467 0.54992663)
(0 -0.023714949 0.56430767)
(0 -0.023073453 0.54829192)
(0 -0.013837157 0.42468631)
(0 0.00085282375 0.15463093)
(0 -0.0011243939 0.13502078)
(0 0.010718294 0.39669999)
(0 0.023268082 0.5448272)
(0 0.026242583 0.57684306)
(0 0.023888336 0.56294582)
(0 0.021344437 0.54774922)
(0 0.019379065 0.53870765)
(0 0.017637789 0.53277683)
(0 0.015986877 0.52820971)
(0 0.014402159 0.5245424)
(0 0.012888734 0.52158275)
(0 0.011442929 0.51918541)
(0 0.010059811 0.51723966)
(0 0.0087341601 0.51566289)
(0 0.0074599134 0.51439293)
(0 0.006230628 0.51338274)
(0 0.0050395446 0.51259676)
(0 0.0038797062 0.5120085)
(0 0.0027440568 0.51159889)
(0 0.0016254992 0.51135509)
(0 0.00051692541 0.51126985)
(0 -0.00058871345 0.51134099)
(0 -0.0016984609 0.51157147)
(0 -0.0028192532 0.51196944)
(0 -0.0039579396 0.51254873)
(0 -0.0051212113 0.51332971)
(0 -0.0063155413 0.51434054)
(0 -0.0075470653 0.51561904)
(0 -0.0088215461 0.51721547)
(0 -0.010144055 0.51919657)
(0 -0.011518891 0.52165153)
(0 -0.012950314 0.52469879)
(0 -0.014436316 0.52849404)
(0 -0.015988564 0.53334651)
(0 -0.017673539 0.54039601)
(0 -0.019711369 0.55218291)
(0 -0.021844107 0.56491128)
(0 -0.020417848 0.54291185)
(0 -0.011150916 0.41346342)
(0 0.0010527117 0.14902458)
(0 -0.00095957046 0.13116916)
(0 0.0087103414 0.38564322)
(0 0.020713076 0.53766311)
(0 0.024302605 0.57627278)
(0 0.022593771 0.56510357)
(0 0.020303994 0.54988038)
(0 0.018492592 0.54047153)
(0 0.016911796 0.534393)
(0 0.015405756 0.52976024)
(0 0.013944368 0.52603422)
(0 0.012533961 0.523016)
(0 0.011172928 0.52056262)
(0 0.0098587543 0.51856454)
(0 0.0085884593 0.51693988)
(0 0.0073581651 0.5156271)
(0 0.006163491 0.51457963)
(0 0.0049995839 0.51376226)
(0 0.0038612527 0.51314873)
(0 0.002743082 0.51272011)
(0 0.0016395211 0.51246365)
(0 0.00054493521 0.51237209)
(0 -0.00054625545 0.51244322)
(0 -0.0016396183 0.51267993)
(0 -0.0027405744 0.51309022)
(0 -0.0038543414 0.51368773)
(0 -0.0049858534 0.51449257)
(0 -0.0061396603 0.51553252)
(0 -0.0073197755 0.51684489)
(0 -0.0085296186 0.51847928)
(0 -0.0097717566 0.52050167)
(0 -0.011047698 0.5230002)
(0 -0.012358813 0.52609151)
(0 -0.013700685 0.52993326)
(0 -0.015085277 0.53487573)
(0 -0.016589966 0.54216449)
(0 -0.018377669 0.55404334)
(0 -0.019985673 0.5648745)
(0 -0.017953722 0.53733811)
(0 -0.0089083857 0.40341922)
(0 0.0011131233 0.14468385)
(0 -0.00076682226 0.12807041)
(0 0.0071292434 0.37585952)
(0 0.018404529 0.53059969)
(0 0.022425312 0.57515803)
(0 0.021305954 0.56685252)
(0 0.019269163 0.5518096)
(0 0.017600008 0.54208325)
(0 0.016163248 0.53586386)
(0 0.01479089 0.53118051)
(0 0.013446408 0.52741472)
(0 0.01213576 0.52435572)
(0 0.010858751 0.52186216)
(0 0.0096147383 0.51982564)
(0 0.0084024963 0.51816498)
(0 0.0072199501 0.51681932)
(0 0.0060644759 0.51574267)
(0 0.0049328925 0.51490026)
(0 0.0038215952 0.5142662)
(0 0.002726672 0.51382177)
(0 0.0016440125 0.51355435)
(0 0.00056938011 0.51345673)
(0 -0.00050143019 0.5135267)
(0 -0.0015725879 0.51376698)
(0 -0.0026480735 0.51418541)
(0 -0.0037315967 0.51479534)
(0 -0.0048264802 0.51561646)
(0 -0.005935542 0.51667602)
(0 -0.0070609247 0.51801066)
(0 -0.0082040236 0.51966917)
(0 -0.0093652948 0.52171661)
(0 -0.010543951 0.52423994)
(0 -0.011739051 0.5273542)
(0 -0.012944748 0.53122151)
(0 -0.014174056 0.53623662)
(0 -0.015510838 0.54372078)
(0 -0.017053481 0.55552737)
(0 -0.018170894 0.56430576)
(0 -0.015688683 0.53173955)
(0 -0.0070468522 0.39452256)
(0 0.0010899399 0.14134703)
(0 -0.00057717363 0.12554337)
(0 0.0058743583 0.36725451)
(0 0.01631375 0.52376142)
(0 0.020616851 0.57361392)
(0 0.020028125 0.5682201)
(0 0.018245104 0.55354241)
(0 0.016712374 0.54355572)
(0 0.015406257 0.53720238)
(0 0.014157311 0.53247946)
(0 0.012923105 0.52868935)
(0 0.011708088 0.52560469)
(0 0.010513085 0.52308469)
(0 0.0093389462 0.52102191)
(0 0.0081858559 0.51933585)
(0 0.0070532414 0.51796628)
(0 0.005939977 0.51686782)
(0 0.0048443397 0.51600623)
(0 0.0037641356 0.51535601)
(0 0.0026968119 0.51489874)
(0 0.0016395764 0.51462196)
(0 0.0005894857 0.51451854)
(0 -0.00045639156 0.51458623)
(0 -0.001500929 0.51482764)
(0 -0.0025467792 0.51525033)
(0 -0.0035962764 0.5158673)
(0 -0.0046512925 0.51669773)
(0 -0.0057131085 0.51776823)
(0 -0.006782236 0.51911467)
(0 -0.007858331 0.52078492)
(0 -0.0089400671 0.52284302)
(0 -0.010024741 0.52537473)
(0 -0.011109517 0.52849386)
(0 -0.012187845 0.53236942)
(0 -0.013273818 0.53744128)
(0 -0.014452599 0.5450726)
(0 -0.015755747 0.55665729)
(0 -0.016422138 0.56330275)
(0 -0.013619339 0.52624137)
(0 -0.005503867 0.38671719)
(0 0.0010191496 0.13880888)
(0 -0.00040814681 0.12346134)
(0 0.0048619237 0.35973299)
(0 0.014411661 0.51723577)
(0 0.018877738 0.57173698)
(0 0.018761802 0.56923232)
(0 0.01723446 0.55508089)
(0 0.015837068 0.54489728)
(0 0.014651448 0.53841914)
(0 0.013516972 0.53366532)
(0 0.012386612 0.52986375)
(0 0.011262665 0.52676647)
(0 0.010146792 0.52423199)
(0 0.0090411172 0.52215368)
(0 0.0079470045 0.5204516)
(0 0.006865164 0.51906613)
(0 0.0057957591 0.51795251)
(0 0.0047383385 0.51707704)
(0 0.0036919557 0.51641465)
(0 0.002655274 0.51594725)
(0 0.0016266918 0.51566259)
(0 0.00060444083 0.51555361)
(0 -0.00041324693 0.51561803)
(0 -0.0014280651 0.5158583)
(0 -0.0024414671 0.51628171)
(0 -0.003454552 0.51690083)
(0 -0.0044679058 0.51773429)
(0 -0.0054814641 0.51880797)
(0 -0.0064943296 0.52015688)
(0 -0.0075046697 0.52182792)
(0 -0.0085096428 0.52388404)
(0 -0.0095049185 0.52640979)
(0 -0.010486039 0.52951823)
(0 -0.011446223 0.53338738)
(0 -0.01240013 0.53850018)
(0 -0.01342886 0.54622685)
(0 -0.014498985 0.5574571)
(0 -0.014756695 0.56195091)
(0 -0.011738483 0.52093288)
(0 -0.0042239617 0.37993259)
(0 0.00092198808 0.13690999)
(0 -0.00026778204 0.12173844)
(0 0.0040261869 0.35320435)
(0 0.012672884 0.51108147)
(0 0.017207239 0.56960694)
(0 0.017509565 0.5699135)
(0 0.016239932 0.55642478)
(0 0.014980118 0.54611246)
(0 0.013907828 0.53952234)
(0 0.01288024 0.53474539)
(0 0.011847612 0.53094347)
(0 0.01080994 0.52784505)
(0 0.0097697115 0.52530667)
(0 0.0087302173 0.5232223)
(0 0.0076938723 0.5215125)
(0 0.0066625178 0.52011826)
(0 0.0056374407 0.51899542)
(0 0.0046193034 0.51811082)
(0 0.003608259 0.51743987)
(0 0.0026040502 0.5169648)
(0 0.0016061397 0.51667359)
(0 0.00061381462 0.51655927)
(0 -0.00037364688 0.51661954)
(0 -0.0013568802 0.51685666)
(0 -0.0023362706 0.51727762)
(0 -0.0033118266 0.51789454)
(0 -0.0042830122 0.51872543)
(0 -0.0052486016 0.51979543)
(0 -0.0062064962 0.52113863)
(0 -0.0071535982 0.52280087)
(0 -0.0080857751 0.52484399)
(0 -0.0089972982 0.52735129)
(0 -0.0098822602 0.53043558)
(0 -0.010733879 0.53428548)
(0 -0.011566535 0.53942256)
(0 -0.012452212 0.54719049)
(0 -0.013297387 0.557952)
(0 -0.013189932 0.56032362)
(0 -0.010039967 0.51587421)
(0 -0.0031633064 0.37409015)
(0 0.00080989498 0.13552462)
(0 -0.00015799939 0.1203182)
(0 0.0033190084 0.34758451)
(0 0.01107818 0.50533456)
(0 0.015606798 0.56728882)
(0 0.016277314 0.57028629)
(0 0.015266449 0.55757265)
(0 0.014148249 0.54720295)
(0 0.013184412 0.54051821)
(0 0.01225718 0.53572618)
(0 0.011316375 0.53193398)
(0 0.01035998 0.52884479)
(0 0.0093914103 0.52631198)
(0 0.008415092 0.52422996)
(0 0.0074344379 0.52251983)
(0 0.0064523144 0.52112314)
(0 0.0054710012 0.51999635)
(0 0.00449214 0.51910687)
(0 0.003516851 0.51843057)
(0 0.0025458307 0.51795004)
(0 0.0015794856 0.5176535)
(0 0.0006180416 0.51753407)
(0 -0.00033829271 0.5175894)
(0 -0.0012892151 0.51782159)
(0 -0.0022341717 0.51823732)
(0 -0.003172222 0.51884822)
(0 -0.0041018663 0.51967168)
(0 -0.0050208954 0.52073203)
(0 -0.0059262053 0.52206242)
(0 -0.0068136436 0.5237076)
(0 -0.0076779903 0.52572822)
(0 -0.0085123297 0.52820629)
(0 -0.0093094449 0.53125483)
(0 -0.010062606 0.53507388)
(0 -0.010784925 0.54021733)
(0 -0.011534905 0.54797153)
(0 -0.012165704 0.55816834)
(0 -0.011737063 0.55848347)
(0 -0.0085210618 0.51110234)
(0 -0.0022915311 0.36910651)
(0 0.00068910845 0.1345504)
(0 -7.7220461e-05 0.11916361)
(0 0.0027085109 0.34279536)
(0 0.0096156483 0.50001301)
(0 0.014082151 0.56483504)
(0 0.015075446 0.57037205)
(0 0.0143223 0.55852307)
(0 0.013349877 0.54816889)
(0 0.012490832 0.54141173)
(0 0.011657882 0.53661372)
(0 0.010802902 0.53284078)
(0 0.0099224774 0.52977036)
(0 0.0090210939 0.52725172)
(0 0.0081043184 0.5251796)
(0 0.0071765387 0.52347567)
(0 0.0062415644 0.52208215)
(0 0.0053025579 0.52095609)
(0 0.0043620242 0.5200655)
(0 0.003421933 0.51938672)
(0 0.0024838202 0.51890272)
(0 0.0015489249 0.51860194)
(0 0.00061830379 0.51847761)
(0 -0.00030701267 0.51852735)
(0 -0.0012258981 0.51875308)
(0 -0.0021369802 0.51916116)
(0 -0.0030385023 0.51976274)
(0 -0.0039281501 0.52057457)
(0 -0.0048028982 0.52162017)
(0 -0.0056588256 0.52293173)
(0 -0.0064909326 0.52455286)
(0 -0.0072931195 0.52654294)
(0 -0.0080575155 0.52898267)
(0 -0.0087757802 0.53198557)
(0 -0.0094412142 0.53576326)
(0 -0.01006474 0.54089406)
(0 -0.010687969 0.54858012)
(0 -0.011118391 0.55813398)
(0 -0.010412997 0.5564842)
(0 -0.0071824843 0.50663673)
(0 -0.0015900675 0.3648951)
(0 0.00056478908 0.1338994)
(0 -2.2049852e-05 0.11824871)
(0 0.0021769479 0.33876248)
(0 0.0082810077 0.49512038)
(0 0.01264383 0.56228754)
(0 0.013918338 0.57019152)
(0 0.013418378 0.559276)
(0 0.012594184 0.54901037)
(0 0.011836149 0.54220756)
(0 0.011091111 0.53741413)
(0 0.010315503 0.53366968)
(0 0.0095052838 0.53062691)
(0 0.008666116 0.52813025)
(0 0.0078046896 0.52607476)
(0 0.0069263397 0.52438287)
(0 0.0060357381 0.52299746)
(0 0.0051368303 0.52187627)
(0 0.0042328797 0.52098791)
(0 0.003326601 0.52030921)
(0 0.0024202681 0.5198235)
(0 0.0015158543 0.51951947)
(0 0.00061515043 0.51939046)
(0 -0.0002800874 0.51943405)
(0 -0.0011680086 0.51965199)
(0 -0.0020465294 0.52005033)
(0 -0.0029131933 0.52063976)
(0 -0.0037650027 0.52143639)
(0 -0.0045982666 0.52246295)
(0 -0.0054084202 0.52375064)
(0 -0.0061898195 0.52534193)
(0 -0.0069357068 0.52729486)
(0 -0.0076375257 0.5296888)
(0 -0.0082861008 0.53263799)
(0 -0.008874793 0.53636501)
(0 -0.0094116783 0.5414637)
(0 -0.0099193565 0.54902946)
(0 -0.010167531 0.55787896)
(0 -0.0092308207 0.55437298)
(0 -0.0060269503 0.50248419)
(0 -0.0010479935 0.36136604)
(0 0.0004432316 0.13349262)
(0 1.1835332e-05 0.11755182)
(0 0.0017179139 0.33541178)
(0 0.0070773276 0.49064897)
(0 0.011306398 0.55968047)
(0 0.012822306 0.56976626)
(0 0.012565602 0.55983454)
(0 0.011888448 0.54972907)
(0 0.011226227 0.54291113)
(0 0.010561816 0.53813414)
(0 0.0098584213 0.53442705)
(0 0.0091121057 0.53142003)
(0 0.0083297029 0.52895239)
(0 0.0075189452 0.52691956)
(0 0.0066860514 0.52524484)
(0 0.0058364625 0.52387191)
(0 0.0049748108 0.52275924)
(0 0.0041050244 0.52187605)
(0 0.0032304714 0.52119968)
(0 0.0023540767 0.52071383)
(0 0.0014784646 0.52040742)
(0 0.00060607826 0.52027391)
(0 -0.00026068078 0.52031085)
(0 -0.0011193198 0.52051985)
(0 -0.0019671293 0.52090663)
(0 -0.0028010445 0.52148145)
(0 -0.0036174877 0.52225982)
(0 -0.0044122213 0.5232637)
(0 -0.0051801771 0.52452332)
(0 -0.005915244 0.52608003)
(0 -0.0066102221 0.52799052)
(0 -0.007256156 0.53033281)
(0 -0.0078434146 0.53322208)
(0 -0.0083655926 0.5368907)
(0 -0.0088277162 0.54193855)
(0 -0.0092329407 0.54933622)
(0 -0.0093212772 0.55743619)
(0 -0.0082003563 0.55219288)
(0 -0.0050573983 0.49864262)
(0 -0.00065665879 0.35842466)
(0 0.00033141486 0.13325842)
(0 2.9119191e-05 0.11705062)
(0 0.0013330101 0.33266579)
(0 0.0060145355 0.48658239)
(0 0.010087458 0.55704351)
(0 0.011803495 0.56912109)
(0 0.011772351 0.56020697)
(0 0.011235734 0.5503299)
(0 0.010661926 0.54352946)
(0 0.010069774 0.53878142)
(0 0.0094307802 0.53511988)
(0 0.008741613 0.53215584)
(0 0.008010121 0.52972343)
(0 0.0072449221 0.52771853)
(0 0.0064530164 0.52606548)
(0 0.0056405137 0.52470887)
(0 0.0048126462 0.52360792)
(0 0.0039739272 0.52273249)
(0 0.0031283037 0.52206042)
(0 0.0022792821 0.52157579)
(0 0.0014300704 0.52126775)
(0 0.00058369911 0.52112987)
(0 -0.00025684687 0.5211597)
(0 -0.0010884942 0.52135867)
(0 -0.0019079683 0.52173224)
(0 -0.002711657 0.52229025)
(0 -0.0034954659 0.52304764)
(0 -0.0042546817 0.52402563)
(0 -0.0049838168 0.52525357)
(0 -0.0056764048 0.52677173)
(0 -0.0063249633 0.52863549)
(0 -0.0069203775 0.53092162)
(0 -0.0074529354 0.53374645)
(0 -0.0079167768 0.53735072)
(0 -0.0083142583 0.54233115)
(0 -0.0086306441 0.54951986)
(0 -0.0085849164 0.55684165)
(0 -0.0073281695 0.54998452)
(0 -0.0042751999 0.49510302)
(0 -0.0004038895 0.35597167)
(0 0.00023558859 0.13313223)
(0 3.4406827e-05 0.11671839)
(0 0.0010279307 0.33044024)
(0 0.0051083893 0.48289712)
(0 0.0090076343 0.55440557)
(0 0.010878068 0.56828712)
(0 0.01104513 0.5604088)
(0 0.010636393 0.55082185)
(0 0.010141433 0.54407125)
(0 0.009612519 0.53936437)
(0 0.0090298253 0.53575561)
(0 0.0083907849 0.53284077)
(0 0.0077039912 0.53044901)
(0 0.006978751 0.52847667)
(0 0.006222734 0.52684927)
(0 0.0054426357 0.52551236)
(0 0.0046442251 0.52442594)
(0 0.0038325457 0.52356055)
(0 0.0030120718 0.52289451)
(0 0.0021868404 0.52241226)
(0 0.0013605925 0.52210321)
(0 0.00053689666 0.52196102)
(0 -0.00028072589 0.52198322)
(0 -0.0010886644 0.52217112)
(0 -0.001883117 0.52252991)
(0 -0.0026599538 0.523069)
(0 -0.0034145853 0.52380283)
(0 -0.0041418356 0.52475194)
(0 -0.0048358067 0.52594484)
(0 -0.0054896893 0.52742082)
(0 -0.0060957598 0.52923406)
(0 -0.0066448473 0.5314603)
(0 -0.0071273833 0.53421729)
(0 -0.0075383643 0.53775286)
(0 -0.0078783968 0.5426526)
(0 -0.0081182699 0.54960103)
(0 -0.0079651816 0.55613302)
(0 -0.0066192124 0.54778522)
(0 -0.0036779353 0.49184839)
(0 -0.00027002688 0.35390598)
(0 0.00015928909 0.13305878)
(0 3.2247142e-05 0.11652169)
(0 0.00080815969 0.32864245)
(0 0.0043775773 0.47956193)
(0 0.0080913346 0.55179646)
(0 0.010065901 0.56730352)
(0 0.010394594 0.56046373)
(0 0.01009556 0.55121797)
(0 0.0096685363 0.54454631)