/*--------------------------------*- C++ -*----------------------------------*\
  =========                 |
  \\      /  F ield         | OpenFOAM: The Open Source CFD Toolbox
   \\    /   O peration     | Website:  https://openfoam.org
    \\  /    A nd           | Version:  10
     \\/     M anipulation  |
\*---------------------------------------------------------------------------*/
FoamFile
{
    format      ascii;
    class       surfaceScalarField;
    location    "0.3";
    object      phi;
}
// * * * * * * * * * * * * * * * * * * * * * * * * * * * * * * * * * * * * * //

dimensions      [1 0 -1 0 0 0 0];

internalField   nonuniform List<scalar> 
7860
(
3.9895991e-08
5.2881205e-07
1.2192737e-08
5.9641106e-07
7.4279156e-09
5.7347258e-07
5.4994337e-09
5.706362e-07
4.1150059e-09
5.7009211e-07
3.2011445e-09
5.6962152e-07
2.55914e-09
5.6934965e-07
2.0792993e-09
5.6918747e-07
1.709294e-09
5.6907762e-07
1.4166008e-09
5.690003e-07
1.1794245e-09
5.6894478e-07
9.8300223e-10
5.6890401e-07
8.1699068e-10
5.688736e-07
6.7389982e-10
5.6885067e-07
5.4815671e-10
5.6883332e-07
4.3550091e-10
5.6882023e-07
3.3257912e-10
5.6881049e-07
2.3666426e-10
5.6880349e-07
1.4545368e-10
5.6879878e-07
5.691665e-11
5.6879611e-07
-3.0829271e-11
5.6879531e-07
-1.1962608e-10
5.6879637e-07
-2.1137971e-10
5.6879932e-07
-3.0816734e-10
5.6880436e-07
-4.1236928e-10
5.6881177e-07
-5.2683219e-10
5.6882204e-07
-6.5508963e-10
5.6883584e-07
-8.0167503e-10
5.6885417e-07
-9.7258227e-10
5.6887849e-07
-1.1759723e-09
5.6891098e-07
-1.4233462e-09
5.6895497e-07
-1.731515e-09
5.6901577e-07
-2.1254565e-09
5.6910156e-07
-2.6450516e-09
5.6922722e-07
-3.3727139e-09
5.694353e-07
-4.4639915e-09
5.6979894e-07
-6.0092805e-09
5.7025298e-07
-9.5082513e-09
5.7220669e-07
-2.9576114e-08
5.8877563e-07
5.3913182e-07
5.9672531e-08
4.6913952e-07
3.6666002e-08
6.1941759e-07
2.2628177e-08
5.875104e-07
1.625358e-08
5.7701079e-07
1.2290505e-08
5.7405519e-07
9.6062344e-09
5.7230579e-07
7.6774284e-09
5.7127845e-07
6.2360512e-09
5.7062885e-07
5.1265068e-09
5.7018717e-07
4.2487231e-09
5.6987808e-07
3.5373657e-09
5.6965613e-07
2.9482662e-09
5.6949311e-07
2.4503798e-09
5.6937148e-07
2.0212316e-09
5.6927982e-07
1.6441076e-09
5.6921045e-07
1.3062309e-09
5.6915811e-07
9.9754473e-10
5.6911918e-07
7.0987137e-10
5.6909116e-07
4.3630562e-10
5.6907235e-07
1.707565e-10
5.6906166e-07
-9.2421699e-11
5.6905849e-07
-3.5875155e-10
5.690627e-07
-6.3394449e-10
5.6907452e-07
-9.2423221e-10
5.6909465e-07
-1.2367531e-09
5.691243e-07
-1.5800436e-09
5.6916533e-07
-1.9647002e-09
5.6922049e-07
-2.4043181e-09
5.6929378e-07
-2.9168799e-09
5.6939105e-07
-3.5268769e-09
5.6952098e-07
-4.2687275e-09
5.6969682e-07
-5.1927956e-09
5.6993984e-07
-6.3757049e-09
5.7028447e-07
-7.9361707e-09
5.7078769e-07
-1.0077414e-08
5.7157655e-07
-1.3205554e-08
5.7292708e-07
-1.8135355e-08
5.7518278e-07
-2.8177553e-08
5.8224889e-07
-4.5803382e-08
6.0640145e-07
4.9332844e-07
6.000886e-08
4.0913066e-07
5.0487307e-08
6.2893914e-07
3.3370699e-08
6.0462701e-07
2.4817696e-08
5.855638e-07
1.9323256e-08
5.7954963e-07
1.5331489e-08
5.7629756e-07
1.2360684e-08
5.7424926e-07
1.0101487e-08
5.7288804e-07
8.3405211e-09
5.7194813e-07
6.9346674e-09
5.7128394e-07
5.787847e-09
5.7080295e-07
4.8332957e-09
5.7044767e-07
4.0232496e-09
5.7018153e-07
3.3227239e-09
5.6998035e-07
2.7054558e-09
5.6982771e-07
2.1512138e-09
5.6971235e-07
1.6439733e-09
5.6962642e-07
1.1706361e-09
5.695645e-07
7.2009564e-10
5.6952289e-07
2.8252487e-10
5.6949923e-07
-1.5120177e-10
5.6949222e-07
-5.9001416e-10
5.6950151e-07
-1.0431398e-09
5.6952764e-07
-1.520624e-09
5.6957213e-07
-2.0339325e-09
5.696376e-07
-2.5967111e-09
5.6972811e-07
-3.2257973e-09
5.6984958e-07
-3.9426314e-09
5.7001062e-07
-4.7753063e-09
5.7022373e-07
-5.7616311e-09
5.705073e-07
-6.9537893e-09
5.7088898e-07
-8.4259778e-09
5.7141203e-07
-1.0287593e-08
5.7214608e-07
-1.2700504e-08
5.732006e-07
-1.5897866e-08
5.7477391e-07
-2.0241559e-08
5.7727077e-07
-2.6709741e-08
5.8165096e-07
-3.8949185e-08
5.9448833e-07
-4.8168073e-08
6.1562034e-07
4.4516037e-07
5.4879099e-08
3.5425156e-07
5.7452245e-08
6.26366e-07
4.0467597e-08
6.2161166e-07
3.0778787e-08
5.9525261e-07
2.4643054e-08
5.8568536e-07
1.9952266e-08
5.8098835e-07
1.6312869e-08
5.7788865e-07
1.3466409e-08
5.757345e-07
1.120077e-08
5.7421377e-07
9.3642503e-09
5.7312046e-07
7.8489651e-09
5.7231824e-07
6.5764274e-09
5.717202e-07
5.4887923e-09
5.7126917e-07
4.5427485e-09
5.7092639e-07
3.7052027e-09
5.7066526e-07
2.9502991e-09
5.7046725e-07
2.2573219e-09
5.703194e-07
1.6091771e-09
5.7021264e-07
9.9126135e-10
5.701408e-07
3.9058159e-10
5.7009991e-07
-2.0496784e-10
5.7008777e-07
-8.0724552e-10
5.7010379e-07
-1.4284841e-09
5.7014888e-07
-2.0819443e-09
5.7022559e-07
-2.7826663e-09
5.7033833e-07
-3.5483969e-09
5.7049384e-07
-4.4007971e-09
5.7070198e-07
-5.3670748e-09
5.709769e-07
-6.4822658e-09
5.7133892e-07
-7.7924934e-09
5.7181753e-07
-9.359536e-09
5.7245602e-07
-1.1267212e-08
5.7331971e-07
-1.3631784e-08
5.7451065e-07
-1.6614593e-08
5.7618341e-07
-2.0413406e-08
5.7857272e-07
-2.5294896e-08
5.8215226e-07
-3.2519054e-08
5.8887511e-07
-4.5102602e-08
6.0707188e-07
-4.6550442e-08
6.1706818e-07
3.9860992e-07
4.796583e-08
3.0628573e-07
6.0076637e-08
6.1425519e-07
4.5400239e-08
6.3628805e-07
3.487541e-08
6.0577743e-07
2.8399869e-08
5.921609e-07
2.3419575e-08
5.8596864e-07
1.9434188e-08
5.8187404e-07
1.622897e-08
5.7893972e-07
1.3619408e-08
5.7682333e-07
1.1466095e-08
5.7527377e-07
9.6639079e-09
5.7412043e-07
8.1328069e-09
5.732513e-07
6.8117708e-09
5.725902e-07
5.6537891e-09
5.7208437e-07
4.6220883e-09
5.7169696e-07
3.6873839e-09
5.7140196e-07
2.8258393e-09
5.7118094e-07
2.0175267e-09
5.7102095e-07
1.2452437e-09
5.7091308e-07
4.935669e-10
5.7085158e-07
-2.5194046e-10
5.7083328e-07
-1.0054386e-09
5.7085728e-07
-1.7815014e-09
5.7092494e-07
-2.5958393e-09
5.7103993e-07
-3.4661152e-09
5.712086e-07
-4.412928e-09
5.7144065e-07
-5.4610528e-09
5.717501e-07
-6.6410505e-09
5.7215689e-07
-7.9913943e-09
5.7268926e-07
-9.5613439e-09
5.7338748e-07
-1.1414721e-08
5.743094e-07
-1.3634332e-08
5.7553932e-07
-1.6328479e-08
5.772048e-07
-1.9640759e-08
5.7949569e-07
-2.3741429e-08
5.8267339e-07
-2.8933417e-08
5.8734425e-07
-3.679361e-08
5.9673531e-07
-4.8466089e-08
6.1874436e-07
-4.3195563e-08
6.1179766e-07
3.5541436e-07
4.0336142e-08
2.6594959e-07
5.8994277e-08
5.9559706e-07
4.8330272e-08
6.4695206e-07
3.7588215e-08
6.1651949e-07
3.0928972e-08
5.9882014e-07
2.5894018e-08
5.9100359e-07
2.1779944e-08
5.8598812e-07
1.8391901e-08
5.8232776e-07
1.5577233e-08
5.79638e-07
1.3213892e-08
5.7763711e-07
1.1205942e-08
5.7612838e-07
9.478091e-09
5.7497915e-07
7.9711999e-09
5.7409709e-07
6.6383668e-09
5.7341721e-07
5.4419667e-09
5.7289336e-07
4.3513846e-09
5.7249254e-07
3.3412348e-09
5.7219109e-07
2.3899621e-09
5.7197223e-07
1.4787233e-09
5.7182432e-07
5.9046704e-10
5.7173984e-07
-2.908568e-10
5.717146e-07
-1.1810143e-09
5.7174744e-07
-2.0961906e-09
5.7184012e-07
-3.0537176e-09
5.7199745e-07
-4.0728803e-09
5.7222776e-07
-5.1758629e-09
5.7254363e-07
-6.3889002e-09
5.7296314e-07
-7.7437127e-09
5.7351171e-07
-9.279304e-09
5.7422486e-07
-1.1044268e-08
5.7515244e-07
-1.3099824e-08
5.7636495e-07
-1.5523233e-08
5.7796273e-07
-1.8411893e-08
5.8009346e-07
-2.1889974e-08
5.8297377e-07
-2.6113257e-08
5.8689667e-07
-3.1491292e-08
5.9272229e-07
-3.965758e-08
6.049016e-07
-4.9175138e-08
6.2826192e-07
-3.8579953e-08
6.0120247e-07
3.1683441e-07
3.2862819e-08
2.3308677e-07
5.5250273e-08
5.732096e-07
4.9232517e-08
6.5296981e-07
3.9061719e-08
6.2669029e-07
3.24308e-08
6.0545106e-07
2.7518831e-08
5.9591556e-07
2.3438682e-08
5.9006826e-07
2.0002781e-08
5.8576367e-07
1.7094577e-08
5.825462e-07
1.4611849e-08
5.8011984e-07
1.247081e-08
5.7826941e-07
1.0604214e-08
5.7684575e-07
8.9578214e-09
5.7574349e-07
7.4874425e-09
5.7488758e-07
6.1567502e-09
5.7422405e-07
4.9355215e-09
5.7371377e-07
3.7981946e-09
5.7332842e-07
2.7226922e-09
5.7304773e-07
1.6894453e-09
5.7285757e-07
6.8056204e-10
5.7274872e-07
-3.2090422e-10
5.7271607e-07
-1.3316291e-09
5.7275817e-07
-2.3686837e-09
5.7287717e-07
-3.4502171e-09
5.7307899e-07
-4.5961983e-09
5.7337374e-07
-5.8292637e-09
5.737767e-07
-7.1757135e-09
5.7430959e-07
-8.6667135e-09
5.7500271e-07
-1.0339744e-08
5.7589789e-07
-1.2240377e-08
5.7705308e-07
-1.4424665e-08
5.7854924e-07
-1.6962031e-08
5.8050009e-07
-1.9937316e-08
5.8306874e-07
-2.3451291e-08
5.8648774e-07
-2.7645377e-08
5.9109076e-07
-3.3038064e-08
5.9811497e-07
-4.1014353e-08
6.1287788e-07
-4.769098e-08
6.3493854e-07
-3.337772e-08
5.8688921e-07
2.8345669e-07
2.6189141e-08
2.0689762e-07
5.013304e-08
5.492657e-07
4.849394e-08
6.5460891e-07
3.9491346e-08
6.3569288e-07
3.3077668e-08
6.1186474e-07
2.8412167e-08
6.0058106e-07
2.449295e-08
5.9398748e-07
2.1118159e-08
5.8913846e-07
1.8206914e-08
5.8545745e-07
1.567999e-08
5.8264676e-07
1.3468251e-08
5.8048115e-07
1.1514522e-08
5.7879948e-07
9.7712912e-09
5.7748672e-07
8.1987699e-09
5.764601e-07
6.7634303e-09
5.7565939e-07
5.4367308e-09
5.7504047e-07
4.194028e-09
5.7457112e-07
3.0136536e-09
5.742281e-07
1.8761163e-09
5.7399511e-07
7.6339935e-10
5.7386144e-07
-3.4167644e-10
5.7382114e-07
-1.4560483e-09
5.7387254e-07
-2.5970046e-09
5.7401813e-07
-3.7827873e-09
5.7426477e-07
-5.033235e-09
5.7462419e-07
-6.3704975e-09
5.7511396e-07
-7.8198485e-09
5.7575894e-07
-9.4106325e-09
5.7659349e-07
-1.1177373e-08
5.7766463e-07
-1.316104e-08
5.7903674e-07
-1.5410702e-08
5.807989e-07
-1.798564e-08
5.8307503e-07
-2.0955307e-08
5.8603841e-07
-2.4394886e-08
5.8992732e-07
-2.8439921e-08
5.9513579e-07
-3.3695761e-08
6.0337081e-07
-4.1067018e-08
6.2024914e-07
-4.4800942e-08
6.3867247e-07
-2.8206166e-08
5.7029443e-07
2.5525052e-07
2.0571071e-08
1.8632655e-07
4.4583615e-08
5.2525315e-07
4.6643419e-08
6.5254911e-07
3.9153599e-08
6.431827e-07
3.3084139e-08
6.179342e-07
2.8717849e-08
6.0494735e-07
2.5038271e-08
5.9766706e-07
2.1803786e-08
5.9237294e-07
1.895908e-08
5.8830215e-07
1.6448102e-08
5.8515774e-07
1.4217355e-08
5.827119e-07
1.2220662e-08
5.8079617e-07
1.0418244e-08
5.7928913e-07
8.7757478e-09
5.781026e-07
7.2634221e-09
5.7717172e-07
5.8553039e-09
5.7644859e-07
4.5284796e-09
5.7589795e-07
3.2624184e-09
5.7549416e-07
2.038366e-09
5.7521916e-07
8.3878713e-10
5.7506102e-07
-3.5315404e-10
5.7501308e-07
-1.5540906e-09
5.7507347e-07
-2.7809499e-09
5.7524499e-07
-4.051455e-09
5.7553528e-07
-5.384649e-09
5.7595739e-07
-6.8014613e-09
5.7653077e-07
-8.3253244e-09
5.772828e-07
-9.9828596e-09
5.7825102e-07
-1.1804643e-08
5.7948641e-07
-1.3826e-08
5.810581e-07
-1.6087918e-08
5.8306082e-07
-1.8638243e-08
5.8562536e-07
-2.1530079e-08
5.8893025e-07
-2.4817437e-08
5.9321468e-07
-2.8646565e-08
5.9896492e-07
-3.3664926e-08
6.0838917e-07
-4.0148889e-08
6.267331e-07
-4.1163085e-08
6.3968666e-07
-2.3418673e-08
5.5255002e-07
2.3183185e-07
1.6015671e-08
1.7031088e-07
3.9144429e-08
5.021244e-07
4.4119197e-08
6.4757434e-07
3.8290205e-08
6.490117e-07
3.2654352e-08
6.2357005e-07
2.859194e-08
6.0900976e-07
2.5183823e-08
6.0107518e-07
2.213604e-08
5.9542072e-07
1.9404702e-08
5.9103349e-07
1.6953753e-08
5.8760869e-07
1.474422e-08
5.8492143e-07
1.2740507e-08
5.8279988e-07
1.0910704e-08
5.8111894e-07
9.2262939e-09
5.7978701e-07
7.6618059e-09
5.787362e-07
6.1943962e-09
5.7791599e-07
4.803422e-09
5.7728892e-07
3.4700137e-09
5.7682757e-07
2.1766541e-09
5.7651252e-07
9.0676986e-10
5.763309e-07
-3.5566561e-10
5.7627552e-07
-1.6265186e-09
5.7634433e-07
-2.9218873e-09
5.7654036e-07
-4.258492e-09
5.7687188e-07
-5.6540748e-09
5.7735297e-07
-7.1278143e-09
5.7800451e-07
-8.7007524e-09
5.7885574e-07
-1.0396234e-08
5.7994651e-07
-1.224036e-08
5.8133054e-07
-1.4262412e-08
5.8308015e-07
-1.6495211e-08
5.8529362e-07
-1.8975506e-08
5.8810565e-07
-2.1741433e-08
5.9169617e-07
-2.4833464e-08
5.9630671e-07
-2.8420528e-08
6.0255199e-07
-3.312993e-08
6.1309857e-07
-3.8554892e-08
6.3215807e-07
-3.7219907e-08
6.3835168e-07
-1.9184649e-08
5.3451476e-07
2.126472e-07
1.2423982e-08
1.578869e-07
3.4114583e-08
4.8043379e-07
4.1250489e-08
6.4043843e-07
3.7079326e-08
6.5318286e-07
3.1942446e-08
6.2870693e-07
2.8169171e-08
6.1278304e-07
2.5033245e-08
6.042111e-07
2.2192171e-08
5.982618e-07
1.9600883e-08
5.9362478e-07
1.7238798e-08
5.8997077e-07
1.5079286e-08
5.8708094e-07
1.3096037e-08
5.8478313e-07
1.1264414e-08
5.8295056e-07
9.5615687e-09
5.8148986e-07
7.9663846e-09
5.8033139e-07
6.4593535e-09
5.7942303e-07
5.0223945e-09
5.7872588e-07
3.6386258e-09
5.7821134e-07
2.2921098e-09
5.7785903e-07
9.6758267e-10
5.7765543e-07
-3.4982334e-10
5.7759292e-07
-1.6748582e-09
5.7766936e-07
-3.0224401e-09
5.7788794e-07
-4.4079366e-09
5.7825738e-07
-5.847443e-09
5.7879247e-07
-7.3580557e-09
5.7951512e-07
-8.9581318e-09
5.8045582e-07
-1.0667522e-08
5.816559e-07
-1.2507777e-08
5.8317079e-07
-1.4502314e-08
5.8507469e-07
-1.6676444e-08
5.8746775e-07
-1.9057053e-08
5.9048626e-07
-2.1669629e-08
5.9430875e-07
-2.4548371e-08
5.9918545e-07
-2.7887886e-08
6.058915e-07
-3.2233468e-08
6.1744416e-07
-3.6527167e-08
6.3645176e-07
-3.327269e-08
6.350972e-07
-1.5565782e-08
5.1680786e-07
1.9708142e-07
9.6573851e-09
1.4822951e-07
2.9646389e-08
4.6044479e-07
3.828395e-08
6.3180087e-07
3.5659136e-08
6.5580767e-07
3.1059605e-08
6.3330647e-07
2.7553913e-08
6.1628873e-07
2.4673109e-08
6.0709191e-07
2.2040959e-08
6.0089395e-07
1.9601497e-08
5.9606424e-07
1.7344755e-08
5.9222752e-07
1.5254121e-08
5.8917158e-07
1.3311016e-08
5.8672624e-07
1.1497108e-08
5.8476447e-07
9.7946733e-09
5.8319229e-07
8.1867104e-09
5.8193935e-07
6.6570007e-09
5.8095273e-07
5.1901014e-09
5.8019278e-07
3.771271e-09
5.7963017e-07
2.3863477e-09
5.7924396e-07
1.0215988e-09
5.7902018e-07
-3.3645019e-10
5.7895097e-07
-1.7011944e-09
5.790341e-07
-3.0861377e-09
5.7927288e-07
-4.5050727e-09
5.7967631e-07
-5.9722509e-09
5.8025965e-07
-7.5025346e-09
5.8104541e-07
-9.1115208e-09
5.820648e-07
-1.0815616e-08
5.8335999e-07
-1.2632067e-08
5.8498724e-07
-1.4578953e-08
5.8702157e-07
-1.6675008e-08
5.895638e-07
-1.8938708e-08
5.9274996e-07
-2.1385557e-08
5.967556e-07
-2.4049693e-08
6.0184959e-07
-2.7147512e-08
6.0898932e-07
-3.1093707e-08
6.2139035e-07
-3.4269852e-08
6.3962791e-07
-2.9526586e-08
6.3035393e-07
-1.2557438e-08
4.9983871e-07
1.8452398e-07
7.5670581e-09
1.4066246e-07
2.5787513e-08
4.4222433e-07
3.5390444e-08
6.2219794e-07
3.4139494e-08
6.5705862e-07
3.0088826e-08
6.3735713e-07
2.6826162e-08
6.1955139e-07
2.4173103e-08
6.0974496e-07
2.1740185e-08
6.0332686e-07
1.9453827e-08
5.983506e-07
1.7309681e-08
5.9437166e-07
1.5298868e-08
5.9118239e-07
1.3409008e-08
5.886161e-07
1.1626988e-08
5.8654649e-07
9.9394961e-09
5.8487978e-07
8.3332168e-09
5.8354563e-07
6.7949984e-09
5.8249095e-07
5.3119535e-09
5.8167582e-07
3.871491e-09
5.8107063e-07
2.4612975e-09
5.8065415e-07
1.0692811e-09
5.8041219e-07
-3.1650971e-10
5.8033676e-07
-1.7079793e-09
5.8042557e-07
-3.1170878e-09
5.8068199e-07
-4.5559444e-09
5.8111517e-07
-6.0368866e-09
5.817406e-07
-7.5725353e-09
5.8258106e-07
-9.1758132e-09
5.8366808e-07
-1.0859911e-08
5.8504409e-07
-1.2638195e-08
5.8676553e-07
-1.4524092e-08
5.8890747e-07
-1.6530784e-08
5.915705e-07
-1.8669863e-08
5.9488904e-07
-2.0949832e-08
5.9903557e-07
-2.3409886e-08
6.0430964e-07
-2.6279782e-08
6.1185922e-07
-2.981172e-08
6.2492229e-07
-3.1944605e-08
6.4176079e-07
-2.6103954e-08
6.2451328e-07
-1.0112979e-08
4.8384773e-07
1.74411e-07
6.0124285e-09
1.3465003e-07
2.2516176e-08
4.2572059e-07
3.2671832e-08
6.1204228e-07
3.2600848e-08
6.5712961e-07
2.9090205e-08
6.4086778e-07
2.6046089e-08
6.2259551e-07
2.3588567e-08
6.1220249e-07
2.1337431e-08
6.05578e-07
1.919807e-08
6.0048996e-07
1.7167022e-08
5.9640271e-07
1.5240913e-08
5.931085e-07
1.3412114e-08
5.904449e-07
1.1671641e-08
5.8828696e-07
1.0009823e-08
5.865416e-07
8.4165168e-09
5.8513894e-07
6.8813093e-09
5.8402616e-07
5.3936782e-09
5.8316345e-07
3.9430906e-09
5.8252122e-07
2.5190559e-09
5.8207819e-07
1.1111404e-09
5.8182011e-07
-2.9104323e-10
5.8173895e-07
-1.6978606e-09
5.8183239e-07
-3.1196884e-09
5.8210382e-07
-4.5669374e-09
5.8256242e-07
-6.0500608e-09
5.8322372e-07
-7.5795351e-09
5.8411053e-07
-9.1658047e-09
5.8525435e-07
-1.0819176e-08
5.8669746e-07
-1.2549659e-08
5.8849601e-07
-1.4366791e-08
5.907246e-07
-1.6279257e-08
5.9348296e-07
-1.8293351e-08
5.9690313e-07
-2.0413657e-08
6.0115587e-07
-2.268798e-08
6.0658397e-07
-2.5348301e-08
6.1451954e-07
-2.8468114e-08
6.280421e-07
-2.9665632e-08
6.4295831e-07
-2.306007e-08
6.1790772e-07
-8.1639603e-09
4.6895162e-07
1.6624704e-07
4.8707934e-09
1.2977924e-07
1.9773831e-08
4.1081755e-07
3.0176389e-08
6.0163972e-07
3.1095548e-08
6.5621045e-07
2.8103245e-08
6.4386008e-07
2.5255995e-08
6.2544276e-07
2.2961633e-08
6.1449685e-07
2.0870754e-08
6.0766888e-07
1.8867506e-08
6.0249321e-07
1.694534e-08
5.9832488e-07
1.5104332e-08
5.9494951e-07
1.3340295e-08
5.9220893e-07
1.1647355e-08
5.899799e-07
1.0018723e-08
5.8817023e-07
8.4468826e-09
5.8671078e-07
6.9237803e-09
5.8554926e-07
5.4410051e-09
5.8464623e-07
3.9899208e-09
5.839723e-07
2.5617627e-09
5.8350634e-07
1.1477018e-09
5.8323417e-07
-2.6111486e-10
5.8314776e-07
-1.6735367e-09
5.8324481e-07
-3.0983882e-09
5.8352867e-07
-4.5444396e-09
5.8400847e-07
-6.020362e-09
5.8469964e-07
-7.5346575e-09
5.8562483e-07
-9.0955562e-09
5.8681525e-07
-1.0710873e-08
5.8831278e-07
-1.2387823e-08
5.9017296e-07
-1.4132835e-08
5.9246962e-07
-1.5951129e-08
5.9530126e-07
-1.7845228e-08
5.9879723e-07
-1.9818603e-08
6.0312925e-07
-2.1929412e-08
6.0869478e-07
-2.4399825e-08
6.1698995e-07
-2.7121653e-08
6.3076393e-07
-2.7505055e-08
6.4334171e-07
-2.0404311e-08
6.1080698e-07
-6.6347359e-09
4.5518205e-07
1.596123e-07
4.0397935e-09
1.2573944e-07
1.7488002e-08
3.9736934e-07
2.7918085e-08
5.9120964e-07
2.9654233e-08
6.544743e-07
2.7151159e-08
6.4636315e-07
2.4483079e-08
6.2811084e-07
2.2322453e-08
6.1665748e-07
2.0369235e-08
6.096221e-07
1.8488712e-08
6.0437373e-07
1.666827e-08
6.0014532e-07
1.490966e-08
5.9670812e-07
1.321103e-08
5.9390756e-07
1.156873e-08
5.916222e-07
9.9781556e-09
5.8976081e-07
8.4338869e-09
5.8825505e-07
6.9298396e-09
5.8705331e-07
5.4594285e-09
5.8611664e-07
4.015711e-09
5.8541602e-07
2.5915041e-09
5.8493055e-07
1.1794788e-09
5.8464619e-07
-2.2776596e-10
5.8455501e-07
-1.6376389e-09
5.8465469e-07
-3.0574974e-09
5.8494853e-07
-4.4945805e-09
5.8544555e-07
-5.9559296e-09
5.8616099e-07
-7.4482868e-09
5.8711718e-07
-8.9779681e-09
5.8834493e-07
-1.0550709e-08
5.8988552e-07
-1.2171489e-08
5.9179374e-07
-1.384436e-08
5.9414249e-07
-1.5572007e-08
5.970289e-07
-1.7354549e-08
6.0057978e-07
-1.9196657e-08
6.0497135e-07
-2.1166927e-08
6.1066504e-07
-2.3466365e-08
6.1928939e-07
-2.581211e-08
6.3310967e-07
-2.5502651e-08
6.4303226e-07
-1.811816e-08
6.0342249e-07
-5.4509356e-09
4.4251482e-07
1.5416137e-07
3.4367537e-09
1.2230269e-07
1.558488e-08
3.8522122e-07
2.589031e-08
5.8090421e-07
2.8292332e-08
6.5207228e-07
2.6245827e-08
6.4840966e-07
2.3743243e-08
6.3061342e-07
2.1691348e-08
6.1870937e-07
1.9854102e-08
6.1145934e-07
1.8082114e-08
6.0614572e-07
1.6354726e-08
6.0187271e-07
1.467388e-08
5.9838896e-07
1.3039178e-08
5.9554227e-07
1.1448472e-08
5.932129e-07
9.8987392e-09
5.9131054e-07
8.3861773e-09
5.8976761e-07
6.9062944e-09
5.8853319e-07
5.4540423e-09
5.8756889e-07
4.0239493e-09
5.8684611e-07
2.6102426e-09
5.8634426e-07
1.2069553e-09
5.8604948e-07
-1.9198006e-10
5.8595394e-07
-1.5926444e-09
5.8605535e-07
-3.0010489e-09
5.8635693e-07
-4.4230455e-09
5.8686755e-07
-5.8642272e-09
5.8760217e-07
-7.3298124e-09
5.8858277e-07
-8.8245113e-09
5.8983963e-07
-1.0352381e-08
5.9141339e-07
-1.1916678e-08
5.9335804e-07
-1.3519721e-08
5.9574553e-07
-1.5162452e-08
5.9867163e-07
-1.6843757e-08
6.0226108e-07
-1.8571252e-08
6.0669885e-07
-2.0422777e-08
6.1251657e-07
-2.2568436e-08
6.2143505e-07
-2.4564367e-08
6.3510561e-07
-2.3675274e-08
6.4214316e-07
-1.6167647e-08
5.9591486e-07
-4.5441491e-09
4.3089132e-07
1.4961722e-07
2.9970433e-09
1.1930565e-07
1.3996002e-08
3.7422227e-07
2.4075213e-08
5.70825e-07
2.701501e-08
6.4913248e-07
2.5391651e-08
6.5003302e-07
2.3044523e-08
6.3296055e-07
2.1081189e-08
6.206727e-07
1.9340243e-08
6.1320029e-07
1.7662902e-08
6.0782306e-07
1.6019393e-08
6.0351621e-07
1.4410651e-08
5.999977e-07
1.2837037e-08
5.9711588e-07
1.129735e-08
5.9475259e-07
9.7896571e-09
5.9281823e-07
8.3113581e-09
5.9124591e-07
6.8592141e-09
5.8998534e-07
5.4294379e-09
5.8899867e-07
4.017806e-09
5.8825775e-07
2.619772e-09
5.8774229e-07
1.2305753e-09
5.8743868e-07
-1.5465747e-10
5.8733917e-07
-1.540815e-09
5.8744151e-07
-2.9327054e-09
5.8774882e-07
-4.3349557e-09
5.882698e-07
-5.7519045e-09
5.8901912e-07
-7.1874845e-09
5.9001835e-07
-8.6450967e-09
5.9129724e-07
-1.0127486e-08
5.9289577e-07
-1.1636636e-08
5.9486719e-07
-1.3173666e-08
5.9728256e-07
-1.473843e-08
6.002364e-07
-1.6329551e-08
6.038522e-07
-1.7958783e-08
6.0832808e-07
-1.9711085e-08
6.1426887e-07
-2.1717928e-08
6.2344189e-07
-2.3391931e-08
6.3677961e-07
-2.2024113e-08
6.4077534e-07
-1.4511744e-08
5.8840249e-07
-3.8544783e-09
4.2023406e-07
1.4576274e-07
2.6718244e-09
1.1663384e-07
1.2661628e-08
3.6423247e-07
2.2450056e-08
5.6103658e-07
2.5820922e-08
6.4576162e-07
2.4588253e-08
6.5126569e-07
2.2389651e-08
6.3515915e-07
2.0499404e-08
6.2256295e-07
1.883765e-08
6.1486204e-07
1.7242031e-08
6.0941868e-07
1.5673385e-08
6.0508486e-07
1.4130693e-08
6.015404e-07
1.261455e-08
5.9863202e-07
1.1124284e-08
5.9624286e-07
9.6586684e-09
5.9428385e-07
8.2159611e-09
5.9268861e-07
6.7938823e-09
5.9140741e-07
5.3896557e-09
5.9040289e-07
4.0000933e-09
5.8964731e-07
2.6216928e-09
5.8912069e-07
1.2507383e-09
5.8880963e-07
-1.1659881e-10
5.8870651e-07
-1.4841611e-09
5.8880907e-07
-2.8557062e-09
5.8912037e-07
-4.2348045e-09
5.896489e-07
-5.6247334e-09
5.9040905e-07
-7.0283671e-09
5.9142198e-07
-8.4480681e-09
5.9271694e-07
-9.8855914e-09
5.943333e-07
-1.1342022e-08
5.9632362e-07
-1.2817713e-08
5.9875825e-07
-1.431195e-08
6.0173063e-07
-1.5823874e-08
6.0536413e-07
-1.7370042e-08
6.0987425e-07
-1.9039816e-08
6.1593864e-07
-2.092036e-08
6.2532243e-07
-2.229996e-08
6.3815921e-07
-2.0540486e-08
6.3901587e-07
-1.3107947e-08
5.8096995e-07
-3.3315172e-09
4.1045763e-07
1.4243122e-07
2.4253566e-09
1.1420849e-07
1.1531846e-08
3.5512599e-07
2.0991294e-08
5.5157714e-07
2.4705096e-08
6.4204782e-07
2.383248e-08
6.521383e-07
2.1777937e-08
6.372137e-07
1.9949544e-08
6.2439134e-07
1.8352619e-08
6.1645897e-07
1.6827131e-08
6.1094417e-07
1.5324893e-08
6.065871e-07
1.3842232e-08
6.0302306e-07
1.2379585e-08
6.0009467e-07
1.093651e-08
5.9768593e-07
9.5121937e-09
5.9570816e-07
8.1054808e-09
5.9409533e-07
6.7148028e-09
5.9279809e-07
5.3381759e-09
5.9177952e-07
3.9732535e-09
5.9101223e-07
2.6174042e-09
5.9047654e-07
1.2677989e-09
5.9015924e-07
-7.8496037e-11
5.9005281e-07
-1.4244245e-09
5.90155e-07
-2.7728465e-09
5.9046879e-07
-4.1264403e-09
5.9100249e-07
-5.4876051e-09
5.9177021e-07
-6.8583652e-09
5.9279274e-07
-8.2402821e-09
5.9409886e-07
-9.6343927e-09
5.9572741e-07
-1.1041189e-08
5.9773041e-07
-1.246059e-08
6.0017765e-07
-1.3891716e-08
6.0316176e-07
-1.5334819e-08
6.0680723e-07
-1.6811472e-08
6.113509e-07
-1.8412412e-08
6.1753958e-07
-2.0176758e-08
6.2708678e-07
-2.1287932e-08
6.3927038e-07
-1.9210368e-08
6.3693831e-07
-1.191611e-08
5.7367569e-07
-2.934261e-09
4.0147578e-07
1.3949696e-07
2.2322604e-09
1.1197623e-07
1.0566205e-08
3.4679206e-07
1.9676871e-08
5.4246648e-07
2.3660987e-08
6.380637e-07
2.3119873e-08
6.5267942e-07
2.1206702e-08
6.3912687e-07
1.9432529e-08
6.2616552e-07
1.7888742e-08
6.1800275e-07
1.6423268e-08
6.1240964e-07
1.4979768e-08
6.080306e-07
1.3551432e-08
6.0445139e-07
1.2138241e-08
6.0150786e-07
1.0739782e-08
5.9908439e-07
9.3554458e-09
5.970925e-07
7.9844517e-09
5.9546632e-07
6.6257423e-09
5.941568e-07
5.2779398e-09
5.9312732e-07
3.9393683e-09
5.923508e-07
2.6081085e-09
5.918078e-07
1.2820697e-09
5.9148528e-07
-4.0930024e-11
5.9137581e-07
-1.3630776e-09
5.9147715e-07
-2.6864821e-09
5.9179219e-07
-4.0130834e-09
5.9232909e-07
-5.3445704e-09
5.931017e-07
-6.6823007e-09
5.9413047e-07
-8.0272385e-09
5.954438e-07
-9.3799239e-09
5.9708009e-07
-1.0740493e-08
5.9909098e-07
-1.210868e-08
6.0154583e-07
-1.3483738e-08
6.0453682e-07
-1.4867458e-08
6.0819095e-07
-1.6286266e-08
6.1276971e-07
-1.7829178e-08
6.190825e-07
-1.9485246e-08
6.2874285e-07
-2.0351843e-08
6.4013698e-07
-1.8017529e-08
6.3460399e-07
-1.0900363e-08
5.6655853e-07
-2.6302552e-09
3.9320567e-07
1.368667e-07
2.075051e-09
1.0990119e-07
9.732598e-09
3.3913453e-07
1.8487258e-08
5.3371184e-07
2.2681753e-08
6.3386921e-07
2.2445643e-08
6.5291553e-07
2.06723e-08
6.4090021e-07
1.8947612e-08
6.278902e-07
1.7447706e-08
6.1950266e-07
1.6033601e-08
6.1382375e-07
1.4642042e-08
6.0942216e-07
1.3262786e-08
6.0583065e-07
1.189514e-08
6.0287551e-07
1.0538588e-08
6.0044094e-07
9.1925787e-09
5.9843851e-07
7.8565494e-09
5.9680235e-07
6.5297954e-09
5.9548356e-07
5.2113907e-09
5.9444573e-07
3.9001826e-09
5.9366201e-07
2.5948237e-09
5.9311316e-07
1.2938261e-09
5.9278627e-07
-4.3712088e-12
5.92674e-07
-1.3013345e-09
5.9277411e-07
-2.5985519e-09
5.9308941e-07
-3.8973668e-09
5.936279e-07
-5.1989056e-09
5.9440324e-07
-6.5040178e-09
5.9543558e-07
-7.8132371e-09
5.9675301e-07
-9.1267831e-09
5.9839364e-07
-1.0444613e-08
6.0040881e-07
-1.1766453e-08
6.0286767e-07
-1.3091904e-08
6.0586227e-07
-1.4424578e-08
6.0952362e-07
-1.5795308e-08
6.1414044e-07
-1.7288401e-08
6.2057559e-07
-1.8842251e-08
6.302967e-07
-1.9485812e-08
6.4078054e-07
-1.6945475e-08
6.3206365e-07
-1.0029649e-08
5.596427e-07
-2.3943864e-09
3.8557041e-07
1.3447232e-07
1.942058e-09
1.0795915e-07
9.0059076e-09
3.3207071e-07
1.7405748e-08
5.2531202e-07
2.1760966e-08
6.29514e-07
2.1805242e-08
6.5287125e-07
2.0170785e-08
6.4253466e-07
1.8493088e-08
6.295679e-07
1.7029923e-08
6.2096582e-07
1.5659912e-08
6.1519376e-07
1.4314368e-08
6.107677e-07
1.2979475e-08
6.0716554e-07
1.1653705e-08
6.0420128e-07
1.0336357e-08
6.0175829e-07
9.0268408e-09
5.9974802e-07
7.7247007e-09
5.9810449e-07
6.4294614e-09
5.9677879e-07
5.1405247e-09
5.9573466e-07
3.8571369e-09
5.949454e-07
2.5784004e-09
5.9439189e-07
1.3033101e-09
5.9406136e-07
3.0805676e-11
5.9394651e-07
-1.2401707e-09
5.9404508e-07
-2.5106132e-09
5.9435985e-07
-3.7813914e-09
5.9489868e-07
-5.0531968e-09
5.9567504e-07
-6.326502e-09
5.9670889e-07
-7.6015458e-09
5.9802806e-07
-8.8783611e-09
5.9967045e-07
-1.0156854e-08
6.016873e-07
-1.1436861e-08
6.0414768e-07
-1.2718485e-08
6.0714389e-07
-1.4007316e-08
6.1081245e-07
-1.5337933e-08
6.1547106e-07
-1.6787176e-08
6.2202483e-07
-1.8243373e-08
6.3175289e-07
-1.8683192e-08
6.4122036e-07
-1.5978632e-08
6.2935909e-07
-9.2778475e-09
5.5294192e-07
-2.2076823e-09
3.7850024e-07
1.3226464e-07
1.825741e-09
1.0613342e-07
8.3666502e-09
3.2552983e-07
1.641834e-08
5.1726035e-07
2.0892932e-08
6.2503942e-07
2.1194648e-08
6.5256954e-07
1.9698315e-08
6.44031e-07
1.8066766e-08
6.3119945e-07
1.663499e-08
6.223976e-07
1.530302e-08
6.1652573e-07
1.3998375e-08
6.1207235e-07
1.2703665e-08
6.0846025e-07
1.1416403e-08
6.0548854e-07
1.013565e-08
6.0303904e-07
8.8607238e-09
6.0102295e-07
7.5911946e-09
5.9937402e-07
6.3267258e-09
5.9804326e-07
5.0669477e-09
5.9699444e-07
3.8114037e-09
5.9620094e-07
2.5595426e-09
5.9564376e-07
1.3107389e-09
5.9531017e-07
6.4329138e-11
5.9519292e-07
-1.180344e-09
5.9528976e-07
-2.4238826e-09
5.9560339e-07
-3.6667894e-09
5.9614159e-07
-4.909429e-09
5.9691768e-07
-6.1520052e-09
5.9795146e-07
-7.394567e-09
5.9927062e-07
-8.6370601e-09
6.0091295e-07
-9.8794272e-09
6.0292967e-07
-1.1121691e-08
6.0538994e-07
-1.2364556e-08
6.0838676e-07
-1.3615651e-08
6.1206355e-07
-1.49125e-08
6.167679e-07
-1.6322013e-08
6.2343434e-07
-1.7683979e-08
6.3311486e-07
-1.793731e-08
6.4147369e-07
-1.5102977e-08
6.2652476e-07
-8.6234471e-09
5.4646239e-07
-2.0561448e-09
3.7193294e-07
1.3020849e-07
1.7213806e-09
1.0441206e-07
7.7997541e-09
3.194515e-07
1.5513421e-08
5.0954672e-07
2.0072791e-08
6.2048007e-07
2.0610472e-08
6.5203186e-07
1.925137e-08
6.453901e-07
1.7666283e-08
6.3278454e-07
1.6262012e-08
6.2380187e-07
1.4963092e-08
6.1782465e-07
1.3694956e-08
6.1334048e-07
1.2436758e-08
6.0971845e-07
1.1184953e-08
6.0674034e-07
9.9383351e-09
6.0428566e-07
8.6960987e-09
6.0226519e-07
7.4577883e-09
6.0061233e-07
6.2231385e-09
5.9927791e-07
4.9919313e-09
5.9822565e-07
3.7639247e-09
5.9742895e-07
2.5388277e-09
5.9686885e-07
1.316306e-09
5.9653269e-07
9.6004023e-11
5.9641322e-07
-1.1224245e-09
5.9650819e-07
-2.3392805e-09
5.9682025e-07
-3.5547894e-09
5.973571e-07
-4.7690775e-09
5.9813197e-07
-5.9821658e-09
5.9916455e-07
-7.1939939e-09
6.0048245e-07
-8.4044912e-09
6.0212344e-07
-9.6136922e-09
6.0413887e-07
-1.0821852e-08
6.065981e-07
-1.2030341e-08
6.0959525e-07
-1.3248802e-08
6.1328201e-07
-1.4516814e-08
6.1803592e-07
-1.5889242e-08
6.2480677e-07
-1.7159579e-08
6.343852e-07
-1.7241903e-08
6.4155601e-07
-1.4306278e-08
6.2358913e-07
-8.0490103e-09
5.4020512e-07
-1.9296747e-09
3.658136e-07
1.2827882e-07
1.6261074e-09
1.0278598e-07
7.2935243e-09
3.1378413e-07
1.4681381e-08
5.0215891e-07
1.9296465e-08
6.1586501e-07
2.0049951e-08
6.5127838e-07
1.8826852e-08
6.4661319e-07
1.7289296e-08
6.3432209e-07
1.5909825e-08
6.2518134e-07
1.4639865e-08
6.1909461e-07
1.3404483e-08
6.1457586e-07
1.2179586e-08
6.1094334e-07
1.0960501e-08
6.0795943e-07
9.745731e-09
6.0550043e-07
8.534336e-09
6.0347658e-07
7.3258025e-09
6.0182086e-07
6.1198878e-09
6.0048383e-07
4.9164671e-09
5.9942907e-07
3.7154468e-09
5.9862997e-07
2.5167259e-09
5.9806757e-07
1.3201878e-09
5.9772923e-07
1.2570931e-10
5.976077e-07
-1.06682e-09
5.9770072e-07
-2.2574757e-09
5.980109e-07
-3.4462804e-09
5.985459e-07
-4.6331937e-09
5.9931888e-07
-5.8181206e-09
6.0034948e-07
-7.000951e-09
6.0166528e-07
-8.1816461e-09
6.0330414e-07
-9.3603644e-09
6.0531759e-07
-1.0537617e-08
6.0777536e-07
-1.171548e-08
6.1077311e-07
-1.2905516e-08
6.1447204e-07
-1.4148429e-08
6.1927883e-07
-1.5485282e-08
6.2614363e-07
-1.6666052e-08
6.3556597e-07
-1.6591348e-08
6.4148131e-07
-1.3578088e-08
6.2057587e-07
-7.5405601e-09
5.3416759e-07
-1.82114e-09
3.6009418e-07
1.2645768e-07
1.5382132e-09
1.0124779e-07
6.8388108e-09
3.0848359e-07
1.3914232e-08
4.9508354e-07
1.8560557e-08
6.1121871e-07
1.9510883e-08
6.5032806e-07
1.8422104e-08
6.4770197e-07
1.6933592e-08
6.358106e-07
1.5577145e-08
6.2653779e-07
1.4332809e-08
6.2033894e-07
1.3126966e-08
6.157817e-07
1.1932567e-08
6.1213774e-07
1.0743756e-08