/*--------------------------------*- C++ -*----------------------------------*\
  =========                 |
  \\      /  F ield         | OpenFOAM: The Open Source CFD Toolbox
   \\    /   O peration     | Website:  https://openfoam.org
    \\  /    A nd           | Version:  10
     \\/     M anipulation  |
\*---------------------------------------------------------------------------*/
FoamFile
{
    format      ascii;
    class       surfaceScalarField;
    location    "0.3";
    object      phi_0;
}
// * * * * * * * * * * * * * * * * * * * * * * * * * * * * * * * * * * * * * //

dimensions      [1 0 -1 0 0 0 0];

internalField   nonuniform List<scalar> 
7860
(
3.9895991e-08
5.2881205e-07
1.2192737e-08
5.9641106e-07
7.427916e-09
5.7347258e-07
5.4994341e-09
5.706362e-07
4.1150065e-09
5.7009211e-07
3.2011452e-09
5.6962152e-07
2.5591408e-09
5.6934965e-07
2.0793002e-09
5.6918747e-07
1.7092951e-09
5.6907762e-07
1.4166021e-09
5.690003e-07
1.1794259e-09
5.6894478e-07
9.8300377e-10
5.6890401e-07
8.1699237e-10
5.688736e-07
6.7390167e-10
5.6885067e-07
5.4815868e-10
5.6883332e-07
4.3550308e-10
5.6882023e-07
3.3258145e-10
5.6881049e-07
2.3666674e-10
5.6880349e-07
1.4545632e-10
5.6879878e-07
5.6919419e-11
5.6879611e-07
-3.0826383e-11
5.6879531e-07
-1.1962304e-10
5.6879637e-07
-2.1137659e-10
5.6879932e-07
-3.0816409e-10
5.6880436e-07
-4.1236596e-10
5.6881177e-07
-5.2682883e-10
5.6882204e-07
-6.550862e-10
5.6883584e-07
-8.0167157e-10
5.6885417e-07
-9.725788e-10
5.6887849e-07
-1.1759688e-09
5.6891098e-07
-1.4233428e-09
5.6895497e-07
-1.7315117e-09
5.6901577e-07
-2.1254532e-09
5.6910156e-07
-2.6450485e-09
5.6922722e-07
-3.372711e-09
5.6943531e-07
-4.4639889e-09
5.6979894e-07
-6.0092783e-09
5.7025298e-07
-9.5082494e-09
5.7220669e-07
-2.9576111e-08
5.8877563e-07
5.3913182e-07
5.9672531e-08
4.6913952e-07
3.6666003e-08
6.1941759e-07
2.2628179e-08
5.875104e-07
1.6253582e-08
5.7701079e-07
1.2290507e-08
5.7405519e-07
9.6062366e-09
5.7230579e-07
7.677431e-09
5.7127845e-07
6.2360542e-09
5.7062885e-07
5.1265103e-09
5.7018717e-07
4.248727e-09
5.6987808e-07
3.53737e-09
5.6965613e-07
2.9482711e-09
5.6949311e-07
2.4503852e-09
5.6937148e-07
2.0212375e-09
5.6927982e-07
1.644114e-09
5.6921044e-07
1.3062377e-09
5.6915811e-07
9.975521e-10
5.6911918e-07
7.098792e-10
5.6909116e-07
4.3631392e-10
5.6907235e-07
1.7076523e-10
5.6906165e-07
-9.2412562e-11
5.6905849e-07
-3.5874203e-10
5.6906269e-07
-6.3393463e-10
5.6907452e-07
-9.2422203e-10
5.6909465e-07
-1.2367427e-09
5.6912429e-07
-1.580033e-09
5.6916533e-07
-1.9646895e-09
5.6922049e-07
-2.4043073e-09
5.6929378e-07
-2.916869e-09
5.6939105e-07
-3.5268662e-09
5.6952098e-07
-4.2687169e-09
5.6969682e-07
-5.1927853e-09
5.6993984e-07
-6.3756949e-09
5.7028447e-07
-7.9361612e-09
5.7078769e-07
-1.0077405e-08
5.7157655e-07
-1.3205546e-08
5.7292708e-07
-1.8135348e-08
5.7518278e-07
-2.8177546e-08
5.8224889e-07
-4.5803376e-08
6.0640145e-07
4.9332845e-07
6.0008861e-08
4.0913066e-07
5.0487309e-08
6.2893914e-07
3.3370701e-08
6.0462701e-07
2.4817699e-08
5.8556379e-07
1.9323259e-08
5.7954963e-07
1.5331493e-08
5.7629756e-07
1.2360689e-08
5.7424926e-07
1.0101492e-08
5.7288804e-07
8.3405269e-09
5.7194813e-07
6.9346739e-09
5.7128394e-07
5.7878543e-09
5.7080295e-07
4.8333039e-09
5.7044766e-07
4.0232586e-09
5.7018153e-07
3.3227338e-09
5.6998035e-07
2.7054665e-09
5.6982771e-07
2.1512253e-09
5.6971235e-07
1.6439857e-09
5.6962642e-07
1.1706493e-09
5.6956449e-07
7.2010967e-10
5.6952288e-07
2.8253965e-10
5.6949922e-07
-1.5118627e-10
5.6949222e-07
-5.89998e-10
5.6950151e-07
-1.043123e-09
5.6952764e-07
-1.5206067e-09
5.6957213e-07
-2.0339147e-09
5.696376e-07
-2.596693e-09
5.6972811e-07
-3.2257791e-09
5.6984958e-07
-3.942613e-09
5.7001062e-07
-4.7752879e-09
5.7022373e-07
-5.7616127e-09
5.705073e-07
-6.9537713e-09
5.7088898e-07
-8.4259602e-09
5.7141203e-07
-1.0287576e-08
5.7214608e-07
-1.2700488e-08
5.732006e-07
-1.589785e-08
5.7477391e-07
-2.0241545e-08
5.7727078e-07
-2.6709728e-08
5.8165096e-07
-3.8949173e-08
5.9448833e-07
-4.8168064e-08
6.1562035e-07
4.4516038e-07
5.4879101e-08
3.5425156e-07
5.7452247e-08
6.26366e-07
4.04676e-08
6.2161165e-07
3.0778791e-08
5.952526e-07
2.4643059e-08
5.8568536e-07
1.9952271e-08
5.8098834e-07
1.6312875e-08
5.7788865e-07
1.3466416e-08
5.757345e-07
1.1200778e-08
5.7421377e-07
9.3642595e-09
5.7312045e-07
7.8489754e-09
5.7231824e-07
6.576439e-09
5.717202e-07
5.488805e-09
5.7126916e-07
4.5427624e-09
5.7092639e-07
3.7052179e-09
5.7066526e-07
2.9503155e-09
5.7046725e-07
2.2573395e-09
5.703194e-07
1.6091959e-09
5.7021264e-07
9.9128135e-10
5.701408e-07
3.9060268e-10
5.700999e-07
-2.0494572e-10
5.7008777e-07
-8.0722245e-10
5.7010378e-07
-1.4284601e-09
5.7014888e-07
-2.0819195e-09
5.7022559e-07
-2.7826409e-09
5.7033832e-07
-3.548371e-09
5.7049384e-07
-4.4007708e-09
5.7070198e-07
-5.3670484e-09
5.709769e-07
-6.4822393e-09
5.7133892e-07
-7.7924671e-09
5.7181753e-07
-9.35951e-09
5.7245602e-07
-1.1267187e-08
5.7331971e-07
-1.3631759e-08
5.7451066e-07
-1.6614569e-08
5.7618341e-07
-2.0413384e-08
5.7857272e-07
-2.5294876e-08
5.8215227e-07
-3.2519034e-08
5.8887512e-07
-4.5102583e-08
6.0707188e-07
-4.655043e-08
6.1706819e-07
3.9860995e-07
4.7965831e-08
3.0628572e-07
6.007664e-08
6.1425519e-07
4.5400243e-08
6.3628805e-07
3.4875414e-08
6.0577743e-07
2.8399874e-08
5.921609e-07
2.3419581e-08
5.8596864e-07
1.9434195e-08
5.8187404e-07
1.6228979e-08
5.7893972e-07
1.3619418e-08
5.7682333e-07
1.1466107e-08
5.7527377e-07
9.6639212e-09
5.7412042e-07
8.1328218e-09
5.732513e-07
6.8117872e-09
5.725902e-07
5.6538072e-09
5.7208437e-07
4.6221081e-09
5.7169696e-07
3.6874053e-09
5.7140195e-07
2.8258623e-09
5.7118094e-07
2.0175514e-09
5.7102095e-07
1.2452699e-09
5.7091308e-07
4.9359453e-10
5.7085158e-07
-2.5191145e-10
5.7083327e-07
-1.0054082e-09
5.7085728e-07
-1.7814699e-09
5.7092494e-07
-2.5958068e-09
5.7103993e-07
-3.4660818e-09
5.712086e-07
-4.4128939e-09
5.7144065e-07
-5.4610182e-09
5.717501e-07
-6.6410155e-09
5.7215689e-07
-7.9913593e-09
5.7268926e-07
-9.561309e-09
5.7338748e-07
-1.1414686e-08
5.743094e-07
-1.3634299e-08
5.7553932e-07
-1.6328446e-08
5.772048e-07
-1.9640728e-08
5.7949569e-07
-2.3741399e-08
5.826734e-07
-2.8933389e-08
5.8734426e-07
-3.6793584e-08
5.9673531e-07
-4.8466064e-08
6.1874436e-07
-4.3195548e-08
6.1179768e-07
3.554144e-07
4.0336143e-08
2.6594958e-07
5.899428e-08
5.9559705e-07
4.8330276e-08
6.4695206e-07
3.758822e-08
6.1651949e-07
3.0928979e-08
5.9882014e-07
2.5894025e-08
5.9100359e-07
2.1779953e-08
5.8598811e-07
1.8391912e-08
5.8232776e-07
1.5577246e-08
5.7963799e-07
1.3213907e-08
5.776371e-07
1.1205958e-08
5.7612837e-07
9.4781092e-09
5.7497915e-07
7.9712202e-09
5.7409709e-07
6.6383891e-09
5.734172e-07
5.4419911e-09
5.7289335e-07
4.3514111e-09
5.7249253e-07
3.3412634e-09
5.7219109e-07
2.3899927e-09
5.7197222e-07
1.4787559e-09
5.7182432e-07
5.9050148e-10
5.7173983e-07
-2.9082057e-10
5.7171459e-07
-1.1809764e-09
5.7174744e-07
-2.0961512e-09
5.7184011e-07
-3.0536769e-09
5.7199745e-07
-4.0728384e-09
5.7222776e-07
-5.1758201e-09
5.7254363e-07
-6.3888567e-09
5.7296314e-07
-7.7436688e-09
5.735117e-07
-9.2792599e-09
5.7422485e-07
-1.1044225e-08
5.7515244e-07
-1.309978e-08
5.7636496e-07
-1.552319e-08
5.7796273e-07
-1.8411851e-08
5.8009346e-07
-2.1889934e-08
5.8297377e-07
-2.6113218e-08
5.8689668e-07
-3.1491256e-08
5.9272229e-07
-3.9657545e-08
6.049016e-07
-4.9175106e-08
6.2826192e-07
-3.8579936e-08
6.0120251e-07
3.1683447e-07
3.286282e-08
2.3308676e-07
5.5250276e-08
5.7320959e-07
4.9232522e-08
6.5296981e-07
3.9061725e-08
6.2669029e-07
3.2430807e-08
6.0545106e-07
2.751884e-08
5.9591556e-07
2.3438693e-08
5.9006826e-07
2.0002794e-08
5.8576366e-07
1.7094592e-08
5.825462e-07
1.4611865e-08
5.8011983e-07
1.2470829e-08
5.7826941e-07
1.0604236e-08
5.7684574e-07
8.9578455e-09
5.7574348e-07
7.4874691e-09
5.7488757e-07
6.1567794e-09
5.7422404e-07
4.9355533e-09
5.7371376e-07
3.7982289e-09
5.7332841e-07
2.722729e-09
5.7304772e-07
1.6894845e-09
5.7285756e-07
6.806036e-10
5.7274871e-07
-3.2086044e-10
5.7271606e-07
-1.3315833e-09
5.7275816e-07
-2.368636e-09
5.7287717e-07
-3.4501677e-09
5.7307898e-07
-4.5961475e-09
5.7337374e-07
-5.8292117e-09
5.7377669e-07
-7.1756606e-09
5.7430959e-07
-8.6666599e-09
5.750027e-07
-1.033969e-08
5.7589788e-07
-1.2240324e-08
5.7705308e-07
-1.4424612e-08
5.7854924e-07
-1.6961979e-08
5.805001e-07
-1.9937265e-08
5.8306875e-07
-2.3451241e-08
5.8648775e-07
-2.764533e-08
5.9109077e-07
-3.3038019e-08
5.9811498e-07
-4.1014308e-08
6.1287789e-07
-4.7690941e-08
6.3493855e-07
-3.3377701e-08
5.8688927e-07
2.8345677e-07
2.6189141e-08
2.0689762e-07
5.0133043e-08
5.4926569e-07
4.8493945e-08
6.5460891e-07
3.9491352e-08
6.3569288e-07
3.3077675e-08
6.1186473e-07
2.8412177e-08
6.0058106e-07
2.4492962e-08
5.9398747e-07
2.1118173e-08
5.8913845e-07
1.8206931e-08
5.8545744e-07
1.5680009e-08
5.8264675e-07
1.3468273e-08
5.8048114e-07
1.1514547e-08
5.7879947e-07
9.7713192e-09
5.774867e-07
8.1988008e-09
5.7646009e-07
6.7634643e-09
5.7565938e-07
5.4367679e-09
5.7504045e-07
4.1940682e-09
5.7457111e-07
3.0136968e-09
5.7422809e-07
1.8761625e-09
5.739951e-07
7.6344836e-10
5.7386143e-07
-3.4162476e-10
5.7382113e-07
-1.4559941e-09
5.7387253e-07
-2.5969481e-09
5.7401812e-07
-3.7827287e-09
5.7426476e-07
-5.0331746e-09
5.7462419e-07
-6.3704356e-09
5.7511395e-07
-7.8197854e-09
5.7575894e-07
-9.4105686e-09
5.7659349e-07
-1.1177308e-08
5.7766462e-07
-1.3160976e-08
5.7903674e-07
-1.5410638e-08
5.8079891e-07
-1.7985578e-08
5.8307504e-07
-2.0955245e-08
5.8603842e-07
-2.4394827e-08
5.8992733e-07
-2.8439864e-08
5.9513581e-07
-3.3695705e-08
6.0337082e-07
-4.1066963e-08
6.2024915e-07
-4.4800895e-08
6.3867249e-07
-2.8206144e-08
5.7029452e-07
2.5525062e-07
2.0571071e-08
1.8632654e-07
4.4583618e-08
5.2525314e-07
4.6643424e-08
6.525491e-07
3.9153605e-08
6.431827e-07
3.3084147e-08
6.1793419e-07
2.871786e-08
6.0494734e-07
2.5038284e-08
5.9766705e-07
2.1803802e-08
5.9237293e-07
1.8959098e-08
5.8830214e-07
1.6448123e-08
5.8515773e-07
1.421738e-08
5.8271188e-07
1.2220691e-08
5.8079616e-07
1.0418276e-08
5.7928912e-07
8.7757832e-09
5.7810259e-07
7.263461e-09
5.771717e-07
5.8553465e-09
5.7644857e-07
4.5285259e-09
5.7589793e-07
3.2624683e-09
5.7549415e-07
2.0384194e-09
5.7521914e-07
8.3884392e-10
5.75061e-07
-3.5309403e-10
5.7501307e-07
-1.5540276e-09
5.7507346e-07
-2.7808841e-09
5.7524498e-07
-4.0513866e-09
5.7553526e-07
-5.3845784e-09
5.7595738e-07
-6.8013889e-09
5.7653076e-07
-8.3252505e-09
5.772828e-07
-9.9827847e-09
5.7825102e-07
-1.1804567e-08
5.7948641e-07
-1.3825925e-08
5.810581e-07
-1.6087843e-08
5.8306082e-07
-1.8638169e-08
5.8562536e-07
-2.1530006e-08
5.8893025e-07
-2.4817366e-08
5.9321469e-07
-2.8646496e-08
5.9896494e-07
-3.3664859e-08
6.0838919e-07
-4.0148823e-08
6.2673311e-07
-4.1163032e-08
6.396867e-07
-2.341865e-08
5.5255013e-07
2.3183197e-07
1.6015672e-08
1.7031087e-07
3.9144431e-08
5.0212438e-07
4.4119202e-08
6.4757433e-07
3.8290211e-08
6.4901169e-07
3.265436e-08
6.2357004e-07
2.8591951e-08
6.0900975e-07
2.5183837e-08
6.0107516e-07
2.2136057e-08
5.9542071e-07
1.9404722e-08
5.9103348e-07
1.6953777e-08
5.8760867e-07
1.4744248e-08
5.8492141e-07
1.2740538e-08
5.8279987e-07
1.0910739e-08
5.8111892e-07
9.2263337e-09
5.7978699e-07
7.6618499e-09
5.7873618e-07
6.1944445e-09
5.7791597e-07
4.8034746e-09
5.772889e-07
3.4700705e-09
5.7682755e-07
2.1767151e-09
5.765125e-07
9.0683484e-10
5.7633088e-07
-3.5559683e-10
5.762755e-07
-1.6264462e-09
5.7634431e-07
-2.9218116e-09
5.7654034e-07
-4.2584132e-09
5.7687187e-07
-5.6539934e-09
5.7735296e-07
-7.1277306e-09
5.780045e-07
-8.7006669e-09
5.7885573e-07
-1.0396147e-08
5.799465e-07
-1.2240272e-08
5.8133053e-07
-1.4262324e-08
5.8308015e-07
-1.6495123e-08
5.8529362e-07
-1.897542e-08
5.8810566e-07
-2.1741348e-08
5.9169618e-07
-2.4833381e-08
5.9630673e-07
-2.8420448e-08
6.02552e-07
-3.312985e-08
6.1309859e-07
-3.8554815e-08
6.3215808e-07
-3.7219847e-08
6.3835173e-07
-1.9184624e-08
5.3451491e-07
2.1264735e-07
1.2423982e-08
1.5788689e-07
3.4114584e-08
4.8043378e-07
4.1250492e-08
6.4043842e-07
3.7079332e-08
6.5318285e-07
3.1942454e-08
6.2870692e-07
2.8169182e-08
6.1278302e-07
2.5033259e-08
6.0421109e-07
2.2192189e-08
5.9826178e-07
1.9600905e-08
5.9362476e-07
1.7238824e-08
5.8997075e-07
1.5079316e-08
5.8708092e-07
1.3096071e-08
5.8478311e-07
1.1264454e-08
5.8295053e-07
9.5616129e-09
5.8148983e-07
7.9664337e-09
5.8033136e-07
6.4594077e-09
5.79423e-07
5.0224536e-09
5.7872585e-07
3.6386898e-09
5.7821132e-07
2.2921787e-09
5.7785901e-07
9.6765623e-10
5.776554e-07
-3.4974532e-10
5.775929e-07
-1.6747759e-09
5.7766934e-07
-3.0223538e-09
5.7788792e-07
-4.4078468e-09
5.7825736e-07
-5.84735e-09
5.7879246e-07
-7.3579599e-09
5.7951511e-07
-8.9580339e-09
5.8045581e-07
-1.0667422e-08
5.8165589e-07
-1.2507676e-08
5.8317079e-07
-1.4502213e-08
5.8507469e-07
-1.6676343e-08
5.8746775e-07
-1.9056952e-08
5.9048627e-07
-2.1669531e-08
5.9430876e-07
-2.4548274e-08
5.9918547e-07
-2.7887792e-08
6.0589152e-07
-3.2233375e-08
6.1744417e-07
-3.6527077e-08
6.3645178e-07
-3.3272622e-08
6.3509727e-07
-1.5565755e-08
5.1680804e-07
1.9708159e-07
9.6573848e-09
1.4822951e-07
2.9646389e-08
4.6044477e-07
3.8283952e-08
6.3180086e-07
3.5659141e-08
6.5580766e-07
3.1059613e-08
6.3330645e-07
2.7553924e-08
6.1628871e-07
2.4673123e-08
6.0709189e-07
2.2040977e-08
6.0089392e-07
1.960152e-08
5.9606422e-07
1.7344782e-08
5.9222749e-07
1.5254153e-08
5.8917155e-07
1.3311053e-08
5.8672621e-07
1.1497151e-08
5.8476444e-07
9.7947219e-09
5.8319226e-07
8.1867647e-09
5.8193932e-07
6.6570607e-09
5.809527e-07
5.1901672e-09
5.8019275e-07
3.7713425e-09
5.7963014e-07
2.3864248e-09
5.7924393e-07
1.0216814e-09
5.7902015e-07
-3.3636239e-10
5.7895094e-07
-1.7011016e-09
5.7903408e-07
-3.0860403e-09
5.7927286e-07
-4.5049711e-09
5.7967629e-07
-5.9721454e-09
5.8025963e-07
-7.5024259e-09
5.8104539e-07
-9.1114094e-09
5.8206479e-07
-1.0815503e-08
5.8335998e-07
-1.2631953e-08
5.8498724e-07
-1.4578837e-08
5.8702157e-07
-1.6674892e-08
5.8956381e-07
-1.8938593e-08
5.9274997e-07
-2.1385443e-08
5.9675561e-07
-2.4049582e-08
6.0184961e-07
-2.7147403e-08
6.0898934e-07
-3.1093598e-08
6.2139037e-07
-3.426975e-08
6.3962793e-07
-2.9526511e-08
6.3035403e-07
-1.255741e-08
4.9983894e-07
1.8452418e-07
7.5670575e-09
1.4066245e-07
2.5787512e-08
4.4222432e-07
3.5390445e-08
6.2219792e-07
3.4139498e-08
6.5705861e-07
3.0088833e-08
6.3735712e-07
2.6826172e-08
6.1955137e-07
2.4173117e-08
6.0974494e-07
2.1740204e-08
6.0332684e-07
1.9453851e-08
5.9835057e-07
1.730971e-08
5.9437163e-07
1.5298902e-08
5.9118236e-07
1.3409049e-08
5.8861606e-07
1.1627035e-08
5.8654645e-07
9.9395492e-09
5.8487975e-07
8.3332764e-09
5.8354559e-07
6.7950646e-09
5.8249092e-07
5.3120262e-09
5.8167579e-07
3.8715703e-09
5.810706e-07
2.4613832e-09
5.8065411e-07
1.0693731e-09
5.8041216e-07
-3.1641158e-10
5.8033673e-07
-1.7078754e-09
5.8042554e-07
-3.1169785e-09
5.8068196e-07
-4.5558301e-09
5.8111514e-07
-6.0367679e-09
5.8174057e-07
-7.5724127e-09
5.8258104e-07
-9.1756873e-09
5.8366806e-07
-1.0859782e-08
5.8504408e-07
-1.2638064e-08
5.8676552e-07
-1.452396e-08
5.8890747e-07
-1.6530652e-08
5.915705e-07
-1.8669732e-08
5.9488905e-07
-2.0949703e-08
5.9903558e-07
-2.3409759e-08
6.0430966e-07
-2.6279656e-08
6.1185924e-07
-2.9811595e-08
6.249223e-07
-3.1944488e-08
6.4176082e-07
-2.6103871e-08
6.2451342e-07
-1.0112948e-08
4.8384802e-07
1.7441123e-07
6.0124275e-09
1.3465002e-07
2.2516173e-08
4.2572057e-07
3.267183e-08
6.1204226e-07
3.2600849e-08
6.5712959e-07
2.909021e-08
6.4086775e-07
2.6046098e-08
6.2259548e-07
2.358858e-08
6.1220246e-07
2.133745e-08
6.0557797e-07
1.9198094e-08
6.0048993e-07
1.7167052e-08
5.9640267e-07
1.524095e-08
5.9310846e-07
1.3412157e-08
5.9044486e-07
1.1671691e-08
5.8828692e-07
1.000988e-08
5.8654156e-07
8.4165817e-09
5.8513889e-07
6.8813817e-09
5.8402612e-07
5.3937581e-09
5.8316341e-07
3.9431781e-09
5.8252118e-07
2.5191507e-09
5.8207814e-07
1.1112425e-09
5.8182007e-07
-2.9093411e-10
5.8173891e-07
-1.6977449e-09
5.8183235e-07
-3.1195663e-09
5.8210378e-07
-4.5668095e-09
5.8256238e-07
-6.0499277e-09
5.8322369e-07
-7.5793975e-09
5.8411051e-07
-9.1656631e-09
5.8525433e-07
-1.0819031e-08
5.8669744e-07
-1.2549512e-08
5.88496e-07
-1.4366642e-08
5.907246e-07
-1.6279107e-08
5.9348296e-07
-1.8293203e-08
5.9690314e-07
-2.041351e-08
6.0115589e-07
-2.2687835e-08
6.0658399e-07
-2.5348157e-08
6.1451956e-07
-2.8467971e-08
6.2804212e-07
-2.96655e-08
6.4295835e-07
-2.3059978e-08
6.1790789e-07
-8.1639271e-09
4.6895197e-07
1.6624731e-07
4.8707917e-09
1.2977923e-07
1.9773826e-08
4.1081754e-07
3.0176385e-08
6.0163971e-07
3.1095547e-08
6.5621042e-07
2.8103248e-08
6.4386005e-07
2.5256003e-08
6.2544273e-07
2.2961645e-08
6.1449682e-07
2.0870772e-08
6.0766884e-07
1.886753e-08
6.0249317e-07
1.6945371e-08
5.9832483e-07
1.510437e-08
5.9494946e-07
1.3340341e-08
5.9220889e-07
1.1647409e-08
5.8997985e-07
1.0018785e-08
5.8817018e-07
8.4469529e-09
5.8671072e-07
6.9238592e-09
5.8554921e-07
5.4410926e-09
5.8464617e-07
3.9900168e-09
5.8397225e-07
2.5618672e-09
5.8350629e-07
1.1478147e-09
5.8323412e-07
-2.60994e-10
5.8314771e-07
-1.6734082e-09
5.8324477e-07
-3.0982525e-09
5.8352863e-07
-4.5442971e-09
5.8400843e-07
-6.0202135e-09
5.8469961e-07
-7.5345036e-09
5.856248e-07
-9.0953975e-09
5.8681522e-07
-1.071071e-08
5.8831276e-07
-1.2387657e-08
5.9017295e-07
-1.4132668e-08
5.9246961e-07
-1.595096e-08
5.9530126e-07
-1.784506e-08
5.9879724e-07
-1.9818437e-08
6.0312926e-07
-2.1929248e-08
6.086948e-07
-2.4399661e-08
6.1698997e-07
-2.7121489e-08
6.3076395e-07
-2.7504907e-08
6.4334177e-07
-2.040421e-08
6.108072e-07
-6.6347001e-09
4.5518246e-07
1.5961261e-07
4.0397913e-09
1.2573944e-07
1.7487995e-08
3.9736934e-07
2.7918078e-08
5.9120962e-07
2.9654228e-08
6.5447427e-07
2.7151159e-08
6.4636312e-07
2.4483084e-08
6.281108e-07
2.2322463e-08
6.1665744e-07
2.0369252e-08
6.0962205e-07
1.8488736e-08
6.0437368e-07
1.6668302e-08
6.0014527e-07
1.49097e-08
5.9670806e-07
1.3211078e-08
5.9390751e-07
1.1568787e-08
5.9162214e-07
9.978222e-09
5.8976074e-07
8.4339629e-09
5.8825498e-07
6.9299252e-09
5.8705325e-07
5.4595239e-09
5.8611658e-07
4.0158161e-09
5.8541596e-07
2.5916189e-09
5.8493049e-07
1.1796031e-09
5.8464613e-07
-2.2763252e-10
5.8455495e-07
-1.6374967e-09
5.8465463e-07
-3.0573469e-09
5.8494848e-07
-4.4944222e-09
5.854455e-07
-5.9557642e-09
5.8616095e-07
-7.4481152e-09
5.8711715e-07
-8.977791e-09
5.883449e-07
-1.0550527e-08
5.8988549e-07
-1.2171304e-08
5.9179372e-07
-1.3844172e-08
5.9414248e-07
-1.5571818e-08
5.970289e-07
-1.735436e-08
6.0057978e-07
-1.9196469e-08
6.0497137e-07
-2.116674e-08
6.1066507e-07
-2.3466178e-08
6.1928941e-07
-2.5811925e-08
6.3310969e-07
-2.5502485e-08
6.4303233e-07
-1.8118049e-08
6.0342276e-07
-5.4508967e-09
4.425153e-07
1.5416171e-07
3.4367508e-09
1.2230269e-07
1.5584871e-08
3.8522122e-07
2.5890299e-08
5.809042e-07
2.8292323e-08
6.5207225e-07
2.6245823e-08
6.4840962e-07
2.3743245e-08
6.3061338e-07
2.1691356e-08
6.1870932e-07
1.9854118e-08
6.1145929e-07
1.8082137e-08
6.0614566e-07
1.6354757e-08
6.0187265e-07
1.4673921e-08
5.983889e-07
1.3039228e-08
5.955422e-07
1.1448532e-08
5.9321284e-07
9.89881e-09
5.9131047e-07
8.3862589e-09
5.8976753e-07
6.906387e-09
5.8853312e-07
5.4541459e-09
5.8756882e-07
4.024064e-09
5.8684604e-07
2.6103683e-09
5.8634418e-07
1.2070917e-09
5.8604941e-07
-1.9183319e-10
5.8595387e-07
-1.5924875e-09
5.8605529e-07
-3.0008825e-09
5.8635687e-07
-4.4228702e-09
5.8686749e-07
-5.8640437e-09
5.8760212e-07
-7.3296216e-09
5.8858272e-07
-8.8243141e-09
5.8983959e-07
-1.0352178e-08
5.9141336e-07
-1.1916471e-08
5.9335802e-07
-1.3519511e-08
5.9574552e-07
-1.516224e-08
5.9867163e-07
-1.6843544e-08
6.0226109e-07
-1.857104e-08
6.0669887e-07
-2.0422566e-08
6.125166e-07
-2.2568225e-08
6.2143507e-07
-2.4564158e-08
6.3510563e-07
-2.3675089e-08
6.4214326e-07
-1.6167525e-08
5.959152e-07
-4.5441069e-09
4.3089189e-07
1.496176e-07
2.9970397e-09
1.1930566e-07
1.3995991e-08
3.7422228e-07
2.4075198e-08
5.70825e-07
2.7014996e-08
6.4913245e-07
2.5391642e-08
6.5003298e-07
2.3044521e-08
6.329605e-07
2.1081194e-08
6.2067265e-07
1.9340256e-08
6.1320023e-07
1.7662923e-08
6.07823e-07
1.6019424e-08
6.0351614e-07
1.4410692e-08
5.9999763e-07
1.2837089e-08
5.971158e-07
1.1297413e-08
5.9475251e-07
9.7897323e-09
5.9281815e-07
8.3114454e-09
5.9124582e-07
6.8593138e-09
5.8998525e-07
5.4295501e-09
5.8899858e-07
4.0179306e-09
5.8825766e-07
2.6199091e-09
5.8774221e-07
1.2307245e-09
5.8743859e-07
-1.5449633e-10
5.8733909e-07
-1.5406424e-09
5.8744143e-07
-2.932522e-09
5.8774875e-07
-4.3347621e-09
5.8826973e-07
-5.7517015e-09
5.8901906e-07
-7.187273e-09
5.900183e-07
-8.6448777e-09
5.912972e-07
-1.0127261e-08
5.9289574e-07
-1.1636406e-08
5.9486716e-07
-1.3173431e-08
5.9728254e-07
-1.4738193e-08
6.0023639e-07
-1.6329313e-08
6.0385221e-07
-1.7958545e-08
6.083281e-07
-1.9710848e-08
6.142689e-07
-2.171769e-08
6.2344191e-07
-2.3391696e-08
6.3677963e-07
-2.2023908e-08
6.4077547e-07
-1.451161e-08
5.884029e-07
-3.8544325e-09
4.2023471e-07
1.4576317e-07
2.6718198e-09
1.1663385e-07
1.2661613e-08
3.6423249e-07
2.2450035e-08
5.6103658e-07
2.5820901e-08
6.4576159e-07
2.4588239e-08
6.5126564e-07
2.2389643e-08
6.351591e-07
2.0499405e-08
6.2256289e-07
1.8837659e-08
6.1486197e-07
1.7242051e-08
6.0941861e-07
1.5673415e-08
6.0508478e-07
1.4130734e-08
6.0154031e-07
1.2614604e-08
5.9863193e-07
1.1124351e-08
5.9624276e-07
9.6587476e-09
5.9428375e-07
8.216054e-09
5.9268851e-07
6.793989e-09
5.9140731e-07
5.3897765e-09
5.9040279e-07
4.0002282e-09
5.8964721e-07
2.6218417e-09
5.8912059e-07
1.250901e-09
5.8880954e-07
-1.164226e-10
5.8870642e-07
-1.4839719e-09
5.8880898e-07
-2.8555047e-09
5.8912028e-07
-4.2345914e-09
5.8964882e-07
-5.6245094e-09
5.9040898e-07
-7.0281333e-09
5.9142192e-07
-8.4478256e-09
5.9271689e-07
-9.8853414e-09
5.9433326e-07
-1.1341766e-08
5.9632358e-07
-1.2817452e-08
5.9875823e-07
-1.4311686e-08
6.0173063e-07
-1.5823608e-08
6.0536413e-07
-1.7369776e-08
6.0987427e-07
-1.9039549e-08
6.1593867e-07
-2.0920091e-08
6.2532245e-07
-2.2299696e-08
6.3815924e-07
-2.0540258e-08
6.3901603e-07
-1.31078e-08
5.8097044e-07
-3.3314673e-09
4.1045838e-07
1.424317e-07
2.425351e-09
1.142085e-07
1.1531828e-08
3.5512603e-07
2.0991267e-08
5.5157715e-07
2.4705068e-08
6.4204779e-07
2.3832459e-08
6.5213825e-07
2.1777923e-08
6.3721363e-07
1.9949539e-08
6.2439127e-07
1.8352624e-08
6.1645889e-07
1.6827147e-08
6.1094408e-07
1.532492e-08
6.0658701e-07
1.3842273e-08
6.0302296e-07
1.2379639e-08
6.0009457e-07
1.0936579e-08
5.9768582e-07
9.5122767e-09
5.9570805e-07
8.105579e-09
5.9409521e-07
6.7149166e-09
5.9279798e-07
5.3383054e-09
5.917794e-07
3.9733989e-09
5.9101211e-07
2.6175654e-09
5.9047643e-07
1.2679757e-09
5.9015912e-07
-7.8304034e-11
5.900527e-07
-1.4242178e-09
5.9015489e-07
-2.7726258e-09
5.9046869e-07
-4.1262063e-09
5.910024e-07
-5.4873588e-09
5.9177013e-07
-6.8581075e-09
5.9279267e-07
-8.2400144e-09
5.940988e-07
-9.6341161e-09
5.9572736e-07
-1.1040905e-08
5.9773037e-07
-1.24603e-08
6.0017762e-07
-1.3891422e-08
6.0316175e-07
-1.5334523e-08
6.0680723e-07
-1.6811175e-08
6.1135092e-07
-1.8412113e-08
6.1753961e-07
-2.0176457e-08
6.270868e-07
-2.1287638e-08
6.3927042e-07
-1.9210116e-08
6.3693851e-07
-1.1915949e-08
5.7367627e-07
-2.9342068e-09
4.0147663e-07
1.394975e-07
2.2322536e-09
1.1197626e-07
1.0566182e-08
3.4679211e-07
1.9676836e-08
5.4246651e-07
2.366095e-08
6.3806368e-07
2.3119842e-08
6.5267936e-07
2.1206681e-08
6.3912679e-07
1.9432517e-08
6.2616544e-07
1.7888741e-08
6.1800266e-07
1.6423279e-08
6.1240954e-07
1.4979792e-08
6.0803049e-07
1.3551471e-08
6.0445128e-07
1.2138294e-08
6.0150774e-07
1.0739852e-08
5.9908427e-07
9.355532e-09
5.9709237e-07
7.9845549e-09
5.9546619e-07
6.625863e-09
5.9415667e-07
5.2780782e-09
5.9312719e-07
3.9395244e-09
5.9235067e-07
2.6082824e-09
5.9180767e-07
1.2822612e-09
5.9148515e-07
-4.0721452e-11
5.9137568e-07
-1.3628524e-09
5.9147702e-07
-2.6862409e-09
5.9179208e-07
-4.0128272e-09
5.9232898e-07
-5.3443e-09
5.931016e-07
-6.6820174e-09
5.9413038e-07
-8.0269436e-09
5.9544372e-07
-9.3796188e-09
5.9708003e-07
-1.0740179e-08
5.9909093e-07
-1.2108359e-08
6.015458e-07
-1.3483412e-08
6.045368e-07
-1.4867128e-08
6.0819095e-07
-1.6285934e-08
6.1276973e-07
-1.7828844e-08
6.1908252e-07
-1.9484909e-08
6.2874286e-07
-2.0351516e-08
6.4013702e-07
-1.8017251e-08
6.3460425e-07
-1.0900187e-08
5.6655921e-07
-2.6301964e-09
3.9320664e-07
1.368673e-07
2.0750429e-09
1.0990123e-07
9.7325707e-09
3.3913461e-07
1.8487214e-08
5.3371188e-07
2.2681706e-08
6.3386919e-07
2.2445601e-08
6.5291546e-07
2.0672269e-08
6.4090012e-07
1.8947592e-08
6.2789011e-07
1.7447698e-08
6.1950256e-07
1.6033606e-08
6.1382364e-07
1.4642063e-08
6.0942204e-07
1.3262822e-08
6.0583052e-07
1.1895192e-08
6.0287537e-07
1.0538659e-08
6.004408e-07
9.1926676e-09
5.9843836e-07
7.8566573e-09
5.968022e-07
6.5299227e-09
5.954834e-07
5.2115378e-09
5.9444557e-07
3.9003497e-09
5.9366186e-07
2.5950106e-09
5.9311301e-07
1.2940328e-09
5.9278612e-07
-4.1451219e-12
5.9267386e-07
-1.3010897e-09
5.9277397e-07
-2.5982891e-09
5.9308928e-07
-3.8970869e-09
5.9362778e-07
-5.1986096e-09
5.9440313e-07
-6.503707e-09
5.9543548e-07
-7.8129129e-09
5.9675293e-07
-9.126447e-09
5.9839357e-07
-1.0444267e-08
6.0040875e-07
-1.1766098e-08
6.0286763e-07
-1.3091543e-08
6.0586225e-07
-1.4424213e-08
6.0952362e-07
-1.5794939e-08
6.1414045e-07
-1.7288028e-08
6.2057561e-07
-1.8841874e-08
6.3029671e-07
-1.9485448e-08
6.407806e-07
-1.6945169e-08
6.3206397e-07
-1.0029457e-08
5.596435e-07
-2.3943225e-09
3.8557151e-07
1.3447298e-07
1.9420485e-09
1.0795919e-07
9.0058749e-09
3.3207081e-07
1.7405695e-08
5.2531208e-07
2.1760906e-08
6.2951399e-07
2.1805188e-08
6.5287118e-07
2.0170742e-08
6.4253457e-07
1.8493058e-08
6.295678e-07
1.7029907e-08
6.2096571e-07
1.565991e-08
6.1519363e-07
1.4314383e-08
6.1076756e-07
1.2979507e-08
6.0716539e-07
1.1653756e-08
6.0420112e-07
1.0336427e-08
6.0175813e-07
9.0269317e-09
5.9974786e-07
7.7248129e-09
5.9810432e-07
6.4295954e-09
5.9677862e-07
5.1406808e-09
5.9573449e-07
3.8573152e-09
5.9494522e-07
2.578601e-09
5.9439172e-07
1.3035329e-09
5.9406119e-07
3.1050062e-11
5.9394634e-07
-1.2399052e-09
5.9404492e-07
-2.5103273e-09
5.943597e-07
-3.7810862e-09
5.9489854e-07
-5.0528732e-09
5.9567491e-07
-6.3261616e-09
5.9670877e-07
-7.60119e-09
5.9802796e-07
-8.8779915e-09
5.9967037e-07
-1.0156473e-08
6.0168723e-07
-1.143647e-08
6.0414763e-07
-1.2718086e-08
6.0714386e-07
-1.400691e-08
6.1081244e-07
-1.5337523e-08
6.1547106e-07
-1.678676e-08
6.2202484e-07
-1.8242954e-08
6.317529e-07
-1.8682788e-08
6.4122043e-07
-1.5978295e-08
6.2935948e-07
-9.277638e-09
5.5294284e-07
-2.2076131e-09
3.7850148e-07
1.3226536e-07
1.82573e-09
1.0613348e-07
8.3666116e-09
3.2552996e-07
1.6418276e-08
5.1726044e-07
2.0892859e-08
6.2503942e-07
2.119458e-08
6.5256946e-07
1.9698259e-08
6.4403089e-07
1.8066724e-08
6.3119933e-07
1.6634964e-08
6.2239747e-07
1.530301e-08
6.1652559e-07
1.3998383e-08
6.1207219e-07
1.2703692e-08
6.0846008e-07
1.1416451e-08
6.0548836e-07
1.0135719e-08
6.0303886e-07
8.8608163e-09
6.0102276e-07
7.5913108e-09
5.9937382e-07
6.3268662e-09
5.9804306e-07
5.0671127e-09
5.9699424e-07
3.8115936e-09
5.9620074e-07
2.5597574e-09
5.9564356e-07
1.3109784e-09
5.9530997e-07
6.4593043e-11
5.9519273e-07
-1.1800563e-09
5.9528957e-07
-2.423572e-09
5.9560322e-07
-3.666457e-09
5.9614143e-07
-4.9090758e-09
5.9691753e-07
-6.1516328e-09
5.9795133e-07
-7.3941769e-09
5.992705e-07
-8.6366543e-09
6.0091284e-07
-9.8790075e-09
6.0292959e-07
-1.112126e-08
6.0538988e-07
-1.2364115e-08
6.0838672e-07
-1.3615203e-08
6.1206353e-07
-1.4912045e-08
6.1676791e-07
-1.6321551e-08
6.2343435e-07
-1.7683513e-08
6.3311486e-07
-1.7936863e-08
6.4147378e-07
-1.5102607e-08
6.2652522e-07
-8.6232188e-09
5.4646345e-07
-2.0560699e-09
3.7193433e-07
1.3020929e-07
1.7213679e-09
1.0441213e-07
7.7997088e-09
3.1945166e-07
1.5513345e-08
5.0954684e-07
2.0072701e-08
6.2048008e-07
2.0610387e-08
6.5203178e-07
1.9251299e-08
6.4538998e-07
1.7666227e-08
6.327844e-07
1.6261973e-08
6.2380172e-07
1.4963072e-08
6.1782449e-07
1.3694956e-08
6.1334031e-07
1.2436779e-08
6.0971826e-07
1.1184997e-08
6.0674015e-07
9.9384032e-09
6.0428545e-07
8.6961921e-09
6.0226497e-07
7.457908e-09
6.0061211e-07
6.2232852e-09
5.9927769e-07
4.9921055e-09
5.9822542e-07
3.7641266e-09
5.9742872e-07
2.5390575e-09
5.9686862e-07
1.3165634e-09
5.9653246e-07
9.6288622e-11
5.96413e-07
-1.1221132e-09
5.9650798e-07
-2.3389435e-09
5.9682005e-07
-3.5544277e-09
5.9735691e-07
-4.7686924e-09
5.981318e-07
-5.9817589e-09
5.9916439e-07
-7.1935669e-09
6.0048231e-07
-8.404046e-09
6.0212332e-07
-9.613231e-09
6.0413877e-07
-1.0821377e-08
6.0659803e-07
-1.2029855e-08
6.095952e-07
-1.3248306e-08
6.1328198e-07
-1.451631e-08
6.1803591e-07
-1.5888729e-08
6.2480677e-07
-1.7159061e-08
6.3438519e-07
-1.724141e-08
6.4155613e-07
-1.4305873e-08
6.2358968e-07
-8.0487617e-09
5.4020634e-07
-1.9295937e-09
3.6581516e-07
1.282797e-07
1.6260928e-09
1.0278606e-07
7.2934718e-09
3.1378433e-07
1.4681291e-08
5.0215907e-07
1.9296357e-08
6.1586504e-07
2.0049847e-08
6.5127829e-07
1.8826763e-08
6.4661306e-07
1.7289224e-08
6.3432194e-07
1.5909772e-08
6.2518117e-07
1.4639832e-08
6.1909443e-07
1.3404472e-08
6.1457567e-07
1.2179599e-08
6.1094313e-07
1.096054e-08
6.079592e-07
9.7457966e-09
6.055002e-07
8.5344298e-09
6.0347634e-07
7.3259255e-09
6.0182061e-07
6.1200407e-09
6.0048357e-07
4.9166506e-09
5.9942881e-07
3.7156612e-09
5.9862971e-07
2.5169713e-09
5.9806731e-07
1.3204639e-09
5.9772897e-07
1.2601593e-10
5.9760745e-07
-1.0664836e-09
5.9770047e-07
-2.2571104e-09
5.9801067e-07
-3.4458874e-09
5.9854569e-07
-4.6327743e-09
5.9931868e-07
-5.8176765e-09
6.0034929e-07
-7.000484e-09
6.0166511e-07
-8.1811584e-09
6.03304e-07
-9.3598582e-09
6.0531747e-07
-1.0537095e-08
6.0777526e-07
-1.1714944e-08
6.1077304e-07
-1.2904969e-08
6.1447201e-07
-1.4147872e-08
6.1927881e-07
-1.5484714e-08
6.2614361e-07
-1.6665478e-08
6.3556596e-07
-1.6590804e-08
6.4148146e-07
-1.3577644e-08
6.2057652e-07
-7.5402897e-09
5.3416898e-07
-1.8210525e-09
3.6009593e-07
1.2645865e-07
1.5381965e-09
1.012479e-07
6.8387502e-09
3.0848383e-07
1.3914127e-08
4.9508375e-07
1.8560428e-08
6.1121877e-07
1.9510757e-08
6.5032797e-07
1.8421994e-08
6.4770182e-07
1.6933502e-08
6.3581043e-07
1.5577075e-08
6.265376e-07
1.4332761e-08
6.2033874e-07
1.3126944e-08
6.1578148e-07
1.1932571e-08
6.1213751e-07
1.0743788e-08