/*--------------------------------*- C++ -*----------------------------------*\
  =========                 |
  \\      /  F ield         | OpenFOAM: The Open Source CFD Toolbox
   \\    /   O peration     | Website:  https://openfoam.org
    \\  /    A nd           | Version:  10
     \\/     M anipulation  |
\*---------------------------------------------------------------------------*/
FoamFile
{
    format      ascii;
    class       volScalarField;
    location    "0.3";
    object      T;
}
// * * * * * * * * * * * * * * * * * * * * * * * * * * * * * * * * * * * * * //

dimensions      [0 0 0 1 0 0 0];

internalField   nonuniform List<scalar> 
4000
(
303.10135
299.3429
299.99042
300.00082
299.99993
300
300
300
300
300
300
300
300
300
300
300
300
300
300
300
300
300
300
300
300
300
300
300
300
300
300
300
300
300
300
300
300
300
300
300
309.66347
298.49296
299.77921
300.00184
300.0008
299.99999
300
300
300
300
300
300
300
300
300
300
300
300
300
300
300
300
300
300
300
300
300
300
300
300
300
300
300
300
300
300
300
300
300
300
316.00432
298.68457
299.39219
299.9757
300.00406
300.00025
299.99999
300
300
300
300
300
300
300
300
300
300
300
300
300
300
300
300
300
300
300
300
300
300
300
300
300
300
300
300
300
300
300
300
300
321.74242
299.84596
298.98477
299.89491
300.00716
300.00139
300
299.99999
300
300
300
300
300
300
300
300
300
300
300
300
300
300
300
300
300
300
300
300
300
300
300
300
300
300
300
300
300
300
300
300
326.67132
301.7006
298.70996
299.75311
300.00323
300.00379
300.00017
299.99998
300
300
300
300
300
300
300
300
300
300
300
300
300
300
300
300
300
300
300
300
300
300
300
300
300
300
300
300
300
300
300
300
330.68537
303.94824
298.66324
299.56827
299.98427
300.00697
300.00072
299.99997
299.99999
300
300
300
300
300
300
300
300
300
300
300
300
300
300
300
300
300
300
300
300
300
300
300
300
300
300
300
300
300
300
300
333.7748
306.33115
298.87089
299.37364
299.94516
300.00939
300.00181
300
299.99998
300
300
300
300
300
300
300
300
300
300
300
300
300
300
300
300
300
300
300
300
300
300
300
300
300
300
300
300
300
300
300
336.02239
308.6648
299.30783
299.20375
299.88577
300.00891
300.00346
300.00014
299.99997
300
300
300
300
300
300
300
300
300
300
300
300
300
300
300
300
300
300
300
300
300
300
300
300
300
300
300
300
300
300
300
337.57467
310.83835
299.92433
299.08453
299.81046
300.00352
300.00542
300.00046
299.99996
299.99999
300
300
300
300
300
300
300
300
300
300
300
300
300
300
300
300
300
300
300
300
300
300
300
300
300
300
300
300
300
300
338.603
312.79906
300.66584
299.03047
299.72628
299.99192
300.00725
300.001
299.99996
299.99998
300
300
300
300
300
300
300
300
300
300
300
300
300
300
300
300
300
300
300
300
300
300
300
300
300
300
300
300
300
300
339.2701
314.53404
301.48375
299.04598
299.64095
299.97368
300.00841
300.00176
300.00001
299.99997
300
300
300
300
300
300
300
300
300
300
300
300
300
300
300
300
300
300
300
300
300
300
300
300
300
300
300
300
300
300
339.70928
316.05457
302.33968
299.12839
299.5615
299.94924
300.00835
300.00269
300.00012
299.99996
300
300
300
300
300
300
300
300
300
300
300
300
300
300
300
300
300
300
300
300
300
300
300
300
300
300
300
300
300
300
340.01717
317.38409
303.20602
299.27102
299.49354
299.91971
300.00662
300.00368
300.0003
299.99996
299.99999
300
300
300
300
300
300
300
300
300
300
300
300
300
300
300
300
300
300
300
300
300
300
300
300
300
300
300
300
300
340.25642
318.55011
304.06435
299.46547
299.441
299.88652
300.00294
300.00462
300.00057
299.99996
299.99999
300
300
300
300
300
300
300
300
300
300
300
300
300
300
300
300
300
300
300
300
300
300
300
300
300
300
300
300
300
340.46351
319.57947
304.90334
299.70321
299.40636
299.85129
299.99715
300.00536
300.0009
299.99998
299.99998
300
300
300
300
300
300
300
300
300
300
300
300
300
300
300
300
300
300
300
300
300
300
300
300
300
300
300
300
300
340.65717
320.49602
305.71663
299.9763
299.39087
299.81561
299.98928
300.00575
300.0013
300.00003
299.99998
300
300
300
300
300
300
300
300
300
300
300
300
300
300
300
300
300
300
300
300
300
300
300
300
300
300
300
300
300
340.84545
321.3198
306.50113
300.27782
299.39488
299.78094
299.97945
300.00568
300.00174
300.0001
299.99997
300
300
300
300
300
300
300
300
300
300
300
300
300
300
300
300
300
300
300
300
300
300
300
300
300
300
300
300
300
341.03068
322.06705
307.25583
300.60189
299.41813
299.74857
299.96791
300.00505
300.00218
300.00019
299.99997
299.99999
300
300
300
300
300
300
300
300
300
300
300
300
300
300
300
300
300
300
300
300
300
300
300
300
300
300
300
300
341.21251
322.7506
307.98088
300.94357
299.45995
299.7196
299.95494
300.00378
300.00259
300.00031
299.99998
299.99999
300
300
300
300
300
300
300
300
300
300
300
300
300
300
300
300
300
300
300
300
300
300
300
300
300
300
300
300
341.38971
323.38045
308.67709
301.29882
299.51939
299.69491
299.94088
300.00182
300.00293
300.00046
299.99999
299.99999
300
300
300
300
300
300
300
300
300
300
300
300
300
300
300
300
300
300
300
300
300
300
300
300
300
300
300
300
341.56099
323.96439
309.34557
301.66426
299.59538
299.67525
299.9261
299.99915
300.00316
300.00063
300.00001
299.99999
300
300
300
300
300
300
300
300
300
300
300
300
300
300
300
300
300
300
300
300
300
300
300
300
300
300
300
300
341.72538
324.50847
309.98752
302.03709
299.68677
299.66115
299.91096
299.99578
300.00326
300.00081
300.00004
299.99998
300
300
300
300
300
300
300
300
300
300
300
300
300
300
300
300
300
300
300
300
300
300
300
300
300
300
300
300
341.88229
325.01748
310.60418
302.415
299.79238
299.65306
299.89583
299.99174
300.00318
300.00099
300.00007
299.99998
300
300
300
300
300
300
300
300
300
300
300
300
300
300
300
300
300
300
300
300
300
300
300
300
300
300
300
300
342.03152
325.49525
311.19674
302.79606
299.91105
299.65124
299.88106
299.98708
300.0029
300.00117
300.00012
299.99999
300
300
300
300
300
300
300
300
300
300
300
300
300
300
300
300
300
300
300
300
300
300
300
300
300
300
300
300
342.17312
325.94492
311.76633
303.17863
300.04165
299.65591
299.86699
299.98186
300.0024
300.00133
300.00017
299.99999
299.99999
300
300
300
300
300
300
300
300
300
300
300
300
300
300
300
300
300
300
300
300
300
300
300
300
300
300
300
342.30735
326.36914
312.31403
303.56135
300.18308
299.66715
299.85392
299.97616
300.00166
300.00147
300.00024
300
299.99999
300
300
300
300
300
300
300
300
300
300
300
300
300
300
300
300
300
300
300
300
300
300
300
300
300
300
300
342.43459
326.77018
312.84089
303.94309
300.33432
299.68499
299.84214
299.97007
300.00067
300.00157
300.00031
300.00001
299.99999
300
300
300
300
300
300
300
300
300
300
300
300
300
300
300
300
300
300
300
300
300
300
300
300
300
300
300
342.55527
327.15001
313.34787
304.32288
300.49439
299.70939
299.83191
299.96368
299.99943
300.00162
300.00038
300.00002
299.99999
300
300
300
300
300
300
300
300
300
300
300
300
300
300
300
300
300
300
300
300
300
300
300
300
300
300
300
342.66985
327.5104
313.83594
304.69994
300.66236
299.74025
299.82345
299.95711
299.99793
300.00161
300.00045
300.00003
299.99999
300
300
300
300
300
300
300
300
300
300
300
300
300
300
300
300
300
300
300
300
300
300
300
300
300
300
300
342.7788
327.8529
314.30599
305.07358
300.83738
299.77746
299.81697
299.95045
299.99619
300.00154
300.00052
300.00005
299.99999
300
300
300
300
300
300
300
300
300
300
300
300
300
300
300
300
300
300
300
300
300
300
300
300
300
300
300
342.88253
328.17893
314.75889
305.44328
301.01864
299.82084
299.81264
299.94382
299.99421
300.00139
300.00059
300.00008
300
300
300
300
300
300
300
300
300
300
300
300
300
300
300
300
300
300
300
300
300
300
300
300
300
300
300
300
342.98146
328.48975
315.19547
305.80858
301.20541
299.87019
299.81062
299.93731
299.99202
300.00116
300.00065
300.0001
300
300
300
300
300
300
300
300
300
300
300
300
300
300
300
300
300
300
300
300
300
300
300
300
300
300
300
300
343.07596
328.78653
315.61655
306.16912
301.39699
299.92531
299.81103
299.93104
299.98963
300.00084
300.0007
300.00013
300
300
300
300
300
300
300
300
300
300
300
300
300
300
300
300
300
300
300
300
300
300
300
300
300
300
300
300
343.16636
329.07029
316.02287
306.52461
301.59277
299.98598
299.81396
299.92511
299.98706
300.00042
300.00073
300.00015
300.00001
300
300
300
300
300
300
300
300
300
300
300
300
300
300
300
300
300
300
300
300
300
300
300
300
300
300
300
343.25296
329.34199
316.41518
306.87483
301.79215
300.05194
299.81952
299.91962
299.98435
299.99992
300.00074
300.00018
300.00001
300
300
300
300
300
300
300
300
300
300
300
300
300
300
300
300
300
300
300
300
300
300
300
300
300
300
300
343.33604
329.60246
316.79416
307.21961
301.99459
300.12297
299.82774
299.91465
299.98152
299.99931
300.00074
300.00021
300.00002
300
300
300
300
300
300
300
300
300
300
300
300
300
300
300
300
300
300
300
300
300
300
300
300
300
300
300
343.41583
329.85248
317.16046
307.55883
302.19962
300.19881
299.8387
299.91031
299.97861
299.99861
300.0007
300.00024
300.00003
300
300
300
300
300
300
300
300
300
300
300
300
300
300
300
300
300
300
300
300
300
300
300
300
300
300
300
343.49255
330.09274
317.51472
307.89241
302.40677
300.27922
299.8524
299.90668
299.97565
299.99782
300.00064
300.00026
300.00004
300
300
300
300
300
300
300
300
300
300
300
300
300
300
300
300
300
300
300
300
300
300
300
300
300
300
300
343.56641
330.32388
317.85751
308.22028
302.61564
300.36394
299.86886
299.90384
299.97267
299.99693
300.00055
300.00028
300.00005
300
300
300
300
300
300
300
300
300
300
300
300
300
300
300
300
300
300
300
300
300
300
300
300
300
300
300
343.63757
330.54646
318.18939
308.54242
302.82585
300.45275
299.88809
299.90185
299.96972
299.99597
300.00043
300.0003
300.00006
300
300
300
300
300
300
300
300
300
300
300
300
300
300
300
300
300
300
300
300
300
300
300
300
300
300
300
343.7062
330.761
318.51087
308.85884
303.03706
300.54539
299.91008
299.9008
299.96683
299.99492
300.00027
300.00031
300.00007
300
300
300
300
300
300
300
300
300
300
300
300
300
300
300
300
300
300
300
300
300
300
300
300
300
300
300
343.77244
330.96798
318.82246
309.16956
303.24894
300.64163
299.9348
299.90073
299.96403
299.99379
300.00008
300.00032
300.00008
300.00001
300
300
300
300
300
300
300
300
300
300
300
300
300
300
300
300
300
300
300
300
300
300
300
300
300
300
343.83642
331.16782
319.12459
309.47459
303.46123
300.74124
299.96222
299.90171
299.96137
299.99261
299.99985
300.00032
300.00009
300.00001
300
300
300
300
300
300
300
300
300
300
300
300
300
300
300
300
300
300
300
300
300
300
300
300
300
300
343.89827
331.36091
319.41771
309.774
303.67364
300.84401
299.99232
299.90379
299.95889
299.99137
299.99958
300.00031
300.0001
300.00001
300
300
300
300
300
300
300
300
300
300
300
300
300
300
300
300
300
300
300
300
300
300
300
300
300
300
343.95809
331.54762
319.70222
310.06784
303.88596
300.94971
300.02503
299.907
299.95661
299.99009
299.99927
300.00028
300.00011
300.00002
300
300
300
300
300
300
300
300
300
300
300
300
300
300
300
300
300
300
300
300
300
300
300
300
300
300
344.01597
331.72826
319.97849
310.35617
304.09795
301.05815
300.06032
299.9114
299.95458
299.98877
299.99893
300.00025
300.00012
300.00002
300
300
300
300
300
300
300
300
300
300
300
300
300
300
300
300
300
300
300
300
300
300
300
300
300
300
344.07202
331.90315
320.24688
310.63907
304.30943
301.1691
300.09812
299.91701
299.95283
299.98744
299.99854
300.00021
300.00012
300.00002
300
300
300
300
300
300
300
300
300
300
300
300
300
300
300
300
300
300
300
300
300
300
300
300
300
300
344.12632
332.07254
320.5077
310.91661
304.5202
301.2824
300.13837
299.92386
299.95139
299.9861
299.99813
300.00015
300.00013
300.00003
300
300
300
300
300
300
300
300
300
300
300
300
300
300
300
300
300
300
300
300
300
300
300
300
300
300
344.17893
332.23671
320.76128
311.18887
304.73011
301.39784
300.18101
299.93198
299.9503
299.98477
299.99768
300.00008
300.00013
300.00003
300
300
300
300
300
300
300
300
300
300
300
300
300
300
300
300
300
300
300
300
300
300
300
300
300
300
344.22994
332.39587
321.0079
311.45594
304.93901
301.51524
300.22598
299.94139
299.94959
299.98346
299.9972
299.99999
300.00013
300.00004
300
300
300
300
300
300
300
300
300
300
300
300
300
300
300
300
300
300
300
300
300
300
300
300
300
300
344.2794
332.55025
321.24782
311.71789
305.14676
301.63444
300.27319
299.9521
299.9493
299.98219
299.99669
299.99989
300.00013
300.00004
300.00001
300
300
300
300
300
300
300
300
300
300
300
300
300
300
300
300
300
300
300
300
300
300
300
300
300
344.32737
332.70003
321.4813
311.9748
305.35324
301.75528
300.32259
299.96412
299.94944
299.98096
299.99615
299.99978
300.00012
300.00004
300.00001
300
300
300
300
300
300
300
300
300
300
300
300
300
300
300
300
300
300
300
300
300
300
300
300
300
344.37391
332.8454
321.70856
312.22677
305.55833
301.87758
300.37408
299.97745
299.95004
299.9798
299.99559
299.99965
300.00011
300.00005
300.00001
300
300
300
300
300
300
300
300
300
300
300
300
300
300
300
300
300
300
300
300
300
300
300
300
300
344.41906
332.98652
321.92983
312.47388
305.76192
302.0012
300.42761
299.99211
299.95114
299.97873
299.99502
299.9995
300.00009
300.00005
300.00001
300
300
300
300
300
300
300
300
300
300
300
300
300
300
300
300
300
300
300
300
300
300
300
300
300
344.46287
333.12355
322.14531
312.71619
305.96393
302.12599
300.48308
300.00809
299.95275
299.97774
299.99443
299.99934
300.00007
300.00005
300.00001
300
300
300
300
300
300
300
300
300
300
300
300
300
300
300
300
300
300
300
300
300
300
300
300
300
344.50538
333.25662
322.35518
312.95379
306.16426
302.25181
300.54043
300.02539
299.9549
299.97687
299.99383
299.99916
300.00005
300.00005
300.00001
300
300
300
300
300
300
300
300
300
300
300
300
300
300
300
300
300
300
300
300
300
300
300
300
300
344.54662
333.38586
322.55961
313.18675
306.36282
302.37852
300.59957
300.044
299.95761
299.97613
299.99323
299.99897
300.00002
300.00005
300.00001
300
300
300
300
300
300
300
300
300
300
300
300
300
300
300
300
300
300
300
300
300
300
300
300
300
344.58662
333.51137
322.75876
313.41515
306.55956
302.506
300.66042
300.06391
299.96089
299.97553
299.99263
299.99877
299.99998
300.00005
300.00002
300
300
300
300
300
300
300
300
300
300
300
300
300
300
300
300
300
300
300
300
300
300
300
300
300
344.62542
333.63327
322.95278
313.63904
306.75439
302.63412
300.7229
300.08511
299.96477
299.97508
299.99203
299.99855
299.99994
300.00005
300.00002
300
300
300
300
300
300
300
300
300
300
300
300
300
300
300
300
300
300
300
300
300
300
300
300
300
344.66302
333.75164
323.1418
313.8585
306.94725
302.76275
300.78694
300.10758
299.96925
299.9748
299.99145
299.99833
299.99989
300.00004
300.00002
300
300
300
300
300
300
300
300
300
300
300
300
300
300
300
300
300
300
300
300
300
300
300
300
300
344.69946
333.86657
323.32594
314.07357
307.13808
302.89178
300.85246
300.13131
299.97436
299.97471
299.99089
299.99809
299.99983
300.00004
300.00002
300
300
300
300
300
300
300
300
300
300
300
300
300
300
300
300
300
300
300
300
300
300
300
300
300
344.73475
333.97811
323.5053
314.28432
307.32681
303.0211
300.91936
300.15627
299.9801
299.97481
299.99035
299.99784
299.99977
300.00003
300.00002
300
300
300
300
300
300
300
300
300
300
300
300
300
300
300
300
300
300
300
300
300
300
300
300
300
344.7689
334.08634
323.68
314.49078
307.5134
303.1506
300.98758
300.18244
299.98648
299.97512
299.98984
299.99758
299.99971
300.00002
300.00002
300
300
300
300
300
300
300
300
300
300
300
300
300
300
300
300
300
300
300
300
300
300
300
300
300
344.80192
334.1913
323.8501
314.69302
307.69778
303.28017
301.05704
300.2098
299.99352
299.97566
299.98937
299.99732
299.99963
300.00001
300.00002
300.00001
300
300
300
300
300
300
300
300
300
300
300
300
300
300
300
300
300
300
300
300
300
300
300
300
344.83381
334.29302
324.01568
314.89105
307.87991
303.4097
301.12764
300.23832
300.00122
299.97643
299.98894
299.99705
299.99955
300
300.00002
300.00001
300
300
300
300
300
300
300
300
300
300
300
300
300
300
300
300
300
300
300
300
300
300
300
300
344.86457
334.39155
324.17681
315.08491
308.05973
303.5391
301.19933
300.26797
300.00958
299.97746
299.98856
299.99679
299.99947
299.99998
300.00002
300.00001
300
300
300
300
300
300
300
300
300
300
300
300
300
300
300
300
300
300
300
300
300
300
300
300
344.8942
334.48688
324.33353
315.27464
308.23719
303.66827
301.272
300.29872
300.0186
299.97873
299.98825
299.99652
299.99938
299.99996
300.00002
300.00001
300
300
300
300
300
300
300
300
300
300
300
300
300
300
300
300
300
300
300
300
300
300
300
300
344.9227
334.57904
324.48589
315.46024
308.41224
303.79711
301.3456
300.33055
300.0283
299.98028
299.98799
299.99625
299.99928
299.99994
300.00001
300.00001
300
300
300
300
300
300
300
300
300
300
300
300
300
300
300
300
300
300
300
300
300
300
300
300
344.95005
334.66802
324.63391
315.64173
308.58482
303.92553
301.42002
300.36341
300.03866
299.98211
299.9878
299.99599
299.99918
299.99992
300.00001
300.00001
300
300
300
300
300
300
300
300
300
300
300
300
300
300
300
300
300
300
300
300
300
300
300
300
344.97624
334.75382
324.7776
315.81911
308.75489
304.05343
301.49521
300.39727
300.04969
299.98422
299.9877
299.99573
299.99908
299.9999
300.00001
300.00001
300
300
300
300
300
300
300
300
300
300
300
300
300
300
300
300
300
300
300
300
300
300
300
300
345.00126
334.8364
324.91697
315.99238
308.92239
304.18071
301.57107
300.43209
300.06139
299.98663
299.98767
299.99548
299.99897
299.99987
300.00001
300.00001
300
300
300
300
300
300
300
300
300
300
300
300
300
300
300
300
300
300
300
300
300
300
300
300
345.0251
334.91574
325.05201
316.16153
309.08726
304.3073
301.64753
300.46784
300.07374
299.98934
299.98774
299.99525
299.99885
299.99984
300
300.00001
300
300
300
300
300
300
300
300
300
300
300
300
300
300
300
300
300
300
300
300
300
300
300
300
345.04773
334.99181
325.18271
316.32655
309.24945
304.43309
301.7245
300.50448
300.08675
299.99236
299.9879
299.99503
299.99874
299.99981
299.99999
300.00001
300
300
300
300
300
300
300
300
300
300
300
300
300
300
300
300
300
300
300
300
300
300
300
300
345.06913
335.06456
325.30903
316.4874
309.40889
304.558
301.80191
300.54195
300.1004
299.9957
299.98816
299.99483
299.99862
299.99977
299.99999
300.00001
300
300
300
300
300
300
300
300
300
300
300
300
300
300
300
300
300
300
300
300
300
300
300
300
345.0893
335.13394
325.43092
316.64404
309.56552
304.68194
301.87968
300.58023
300.11468
299.99935
299.98854
299.99465
299.9985
299.99973
299.99998
300.00001
300
300
300
300
300
300
300
300
300
300
300
300
300
300
300
300
300
300
300
300
300
300
300
300
345.10821
335.19991
325.54835
316.79645
309.71927
304.8048
301.95772
300.61926
300.12959
300.00333
299.98902
299.99449
299.99839
299.99969
299.99997
300
300
300
300
300
300
300
300
300
300
300
300
300
300
300
300
300
300
300
300
300
300
300
300
300
345.12585
335.26239
325.66124
316.94455
309.87007
304.92651
302.03596
300.65901
300.14511
300.00764
299.98963
299.99436
299.99827
299.99965
299.99996
300
300
300
300
300
300
300
300
300
300
300
300
300
300
300
300
300
300
300
300
300
300
300
300
300
345.14221
335.32136
325.76953
317.0883
310.01785
305.04697
302.11431
300.69941
300.16123
300.01228
299.99036
299.99426
299.99815
299.99961
299.99995
300
300
300
300
300
300
300
300
300
300
300
300
300
300
300
300
300
300
300
300
300
300
300
300
300
345.15728
335.37674
325.87313
317.22762
310.16252
305.16608
302.19269
300.74043
300.17793
300.01725
299.99121
299.99419
299.99804
299.99956
299.99994
300
300
300
300
300
300
300
300
300
300
300
300
300
300
300
300
300
300
300
300
300
300
300
300
300
345.17107
335.4285
325.97198
317.36243
310.30401
305.28375
302.27102
300.78202
300.19519
300.02256
299.99221
299.99415
299.99793
299.99951
299.99993
300
300
300
300
300
300
300
300
300
300
300
300
300
300
300
300
300
300
300
300
300
300
300
300
300
345.18358
335.47661
326.06598
317.49264
310.44221
305.39989
302.34921
300.82411
300.213
300.02819
299.99334
299.99415
299.99783
299.99947
299.99992
300
300
300
300
300
300
300
300
300
300
300
300
300
300
300
300
300
300
300
300
300
300
300
300
300
345.19482
335.52103
326.15506
317.61817
310.57705
305.5144
302.42718
300.86667
300.23134
300.03416
299.99461
299.9942
299.99773
299.99942
299.9999
299.99999
300
300
300
300
300
300
300
300
300
300
300
300
300
300
300
300
300
300
300
300
300
300
300
300
345.20482
335.56178
326.23913
317.73891
310.70842
305.62717
302.50484
300.90964
300.25018
300.04046
299.99602
299.99429
299.99764
299.99937
299.99989
299.99999
300
300
300
300
300
300
300
300
300
300
300
300
300
300
300
300
300
300
300
300
300
300
300
300
345.21361
335.59885
326.31813
317.85477
310.83623
305.73811
302.58211
300.95295
300.26951
300.04708
299.99759
299.99442
299.99755
299.99932
299.99987
299.99999
300
300
300
300
300
300
300
300
300
300
300
300
300
300
300
300
300
300
300
300
300
300
300
300
345.22124
335.63229
326.39199
317.96564
310.96036
305.84712
302.6589
300.99657
300.28929
300.05402
299.9993
299.99461
299.99748
299.99926
299.99985
299.99998
300
300
300
300
300
300
300
300
300
300
300
300
300
300
300
300
300
300
300
300
300
300
300
300
345.22775
335.66215
326.46068
318.07142
311.0807
305.95409
302.73513
301.04043
300.3095
300.06127
300.00117
299.99484
299.99742
299.99921
299.99983
299.99998
300
300
300
300
300
300
300
300
300
300
300
300
300
300
300
300
300
300
300
300
300
300
300
300
345.23321
335.68854
326.52417
318.17201
311.19716
306.05892
302.81071
301.08447
300.33013
300.06884
300.0032
299.99513
299.99737
299.99916
299.99981
299.99997
300
300
300
300
300
300
300
300
300
300
300
300
300
300
300
300
300
300
300
300
300
300
300
300
345.23769
335.71155
326.58247
318.26733
311.30962
306.16151
302.88554
301.12863
300.35113
300.07671
300.00537
299.99548
299.99733
299.99912
299.9998
299.99997
300
300
300
300
300
300
300
300
300
300
300
300
300
300
300
300
300
300
300
300
300
300
300
300
345.24127
335.73136
326.63562
318.3573
311.41797
306.26175
302.95955
301.17286
300.37248
300.08488
300.00771
299.99589
299.99731
299.99907
299.99978
299.99996
300
300
300
300
300
300
300
300
300
300
300
300
300
300
300
300
300
300
300
300
300
300
300
300
345.24405
335.74813
326.68369
318.44187
311.52211
306.35954
303.03265
301.21711
300.39416
300.09333
300.0102
299.99635
299.99731
299.99903
299.99976
299.99996
300
300
300
300
300
300
300
300
300
300
300
300
300
300
300
300
300
300
300
300
300
300
300
300
345.24611
335.76208
326.72681
318.52101
311.62196
306.45478
303.10476
301.2613
300.41613
300.10206
300.01285
299.99688
299.99732
299.99898
299.99973
299.99995
299.99999
300
300
300
300
300
300
300
300
300
300
300
300
300
300
300
300
300
300
300
300
300
300
300
345.24755
335.77345
326.76512
318.5947
311.71743
306.54738
303.17579
301.30539
300.43836
300.11105
300.01566
299.99748
299.99735
299.99894
299.99971
299.99994
299.99999
300
300
300
300
300
300
300
300
300
300
300
300
300
300
300
300
300
300
300
300
300
300
300
345.24848
335.78251
326.79885
318.663
311.80845
306.63726
303.24566
301.34931
300.46082
300.1203
300.01862
299.99814
299.9974
299.99891
299.99969
299.99994
299.99999
300
300
300
300
300
300
300
300
300
300
300
300
300
300
300
300
300
300
300
300
300
300
300
345.249
335.78953
326.82825
318.72596
311.89498
306.72432
303.3143
301.39302
300.48349
300.1298
300.02173
299.99886
299.99748
299.99888
299.99967
299.99993
299.99999
300
300
300
300
300
300
300
300
300
300
300
300
300
300
300
300
300
300
300
300
300
300
300
345.24921
335.79481
326.8536
318.7837
311.97699
306.8085
303.38163
301.43645
300.50632
300.13952
300.025
299.99966
299.99757
299.99885
299.99965
299.99992
299.99999
300
300
300
300
300
300
300
300
300
300
300
300
300
300
300
300
300
300
300
300
300
300
300
345.24921
335.79868
326.87529
318.83641
312.05453
306.88979
303.44764
301.47959
300.52932
300.14948
300.02842
300.00052
299.99769
299.99883
299.99963
299.99991
299.99999
300
300
300
300
300
300
300
300
300
300
300
300
300
300
300
300
300
300
300
300
300
300
300
345.24906
335.80138
326.8936
318.88416
312.12739
306.96784
303.51198
301.52218
300.55231
300.15959
300.03196
300.00145
299.99783
299.99882
299.99961
299.99991
299.99998
300
300
300
300
300
300
300
300
300
300
300
300
300
300
300
300
300
300
300
300
300
300
300
345.24897
335.80349
326.90932
318.92792
312.19694
307.04432
303.57619
301.56534
300.57598
300.17018
300.03576
300.00248
299.998
299.99881
299.99959
299.9999
299.99998
300
300
300
300
300
300
300
300
300
300
300
300
300
300
300
300
300
300
300
300
300
300
300
345.2486
335.80424
326.92122
318.9641
312.25606
307.11009
303.63178
301.6029
300.59669
300.17952
300.03914
300.00341
299.99816
299.9988
299.99957
299.99989
299.99998
300
300
300
300
300
300
300
300
300
300
300
300
300
300
300
300
300
300
300
300
300
300
300
345.25027
335.80815
326.93807
319.01554
312.34566
307.21482
303.72353
301.66672
300.63285
300.19629
300.04544
300.00525
299.99853
299.99882
299.99955
299.99988
299.99997
300
300
300
300
300
300
300
300
300
300
300
300
300
300
300
300
300
300
300
300
300
300
300
)
;

boundaryField
{
    wall
    {
        type            fixedValue;
        value           uniform 350;
    }
    sides
    {
        type            zeroGradient;
    }
    frontAndBack
    {
        type            empty;
    }
    inlet
    {
        type            fixedValue;
        value           uniform 300;
    }
    outlet
    {
        type            zeroGradient;
    }
}


// ************************************************************************* //
