/*--------------------------------*- C++ -*----------------------------------*\
  =========                 |
  \\      /  F ield         | OpenFOAM: The Open Source CFD Toolbox
   \\    /   O peration     | Website:  https://openfoam.org
    \\  /    A nd           | Version:  10
     \\/     M anipulation  |
\*---------------------------------------------------------------------------*/
FoamFile
{
    format      ascii;
    class       volVectorField;
    location    "0.3";
    object      U;
}
// * * * * * * * * * * * * * * * * * * * * * * * * * * * * * * * * * * * * * //

dimensions      [0 1 -1 0 0 0 0];

internalField   nonuniform List<vector> 
4000
(
(0 0.018637458 0.47773157)
(0 0.023510003 0.50886061)
(0 0.0081668553 0.50052522)
(0 0.005614613 0.50033634)
(0 0.0042546241 0.50025746)
(0 0.0032549359 0.50016898)
(0 0.002556077 0.50011969)
(0 0.0020545627 0.50009013)
(0 0.0016765541 0.50006981)
(0 0.0013822079 0.50005539)
(0 0.0011471516 0.50004499)
(0 0.00095504673 0.50003733)
(0 0.00079463901 0.5000316)
(0 0.00065795293 0.50002727)
(0 0.00053916023 0.50002399)
(0 0.00043388038 0.50002151)
(0 0.00033872612 0.50001967)
(0 0.00025099569 0.50001834)
(0 0.00016845651 0.50001745)
(0 8.9186814e-05 0.50001694)
(0 1.1453347e-05 0.50001679)
(0 -6.6395786e-05 0.50001699)
(0 -0.00014602263 0.50001755)
(0 -0.00022919163 0.5000185)
(0 -0.00031788013 0.50001991)
(0 -0.00041440906 0.50002185)
(0 -0.00052161481 0.50002447)
(0 -0.00064308837 0.50002793)
(0 -0.0007835233 0.50003252)
(0 -0.00094924554 0.50003863)
(0 -0.0011490644 0.50004688)
(0 -0.0013956381 0.50005824)
(0 -0.0017077126 0.50007414)
(0 -0.0021156367 0.50009709)
(0 -0.0026753239 0.50013481)
(0 -0.0034688824 0.50020237)
(0 -0.004561088 0.50027142)
(0 -0.0065852644 0.50043364)
(0 -0.017659695 0.50675409)
(0 -0.013590244 0.47975557)
(0 0.037432693 0.44796926)
(0 0.050955761 0.53232616)
(0 0.021969332 0.50804291)
(0 0.016135649 0.50357319)
(0 0.01241608 0.50242317)
(0 0.0095159396 0.50162301)
(0 0.0075205912 0.50115663)
(0 0.0060698451 0.50086595)
(0 0.0049645035 0.50066803)
(0 0.0041000344 0.50052903)
(0 0.0034074877 0.50042907)
(0 0.002839916 0.50035557)
(0 0.0023649461 0.50030068)
(0 0.0019594946 0.50025928)
(0 0.0016066016 0.50022793)
(0 0.0012934723 0.50020427)
(0 0.0010101825 0.50018667)
(0 0.00074879462 0.500174)
(0 0.0005027353 0.50016549)
(0 0.00026633558 0.50016065)
(0 3.4475522e-05 0.50015922)
(0 -0.00019772361 0.50016112)
(0 -0.00043517036 0.50016647)
(0 -0.00068307443 0.50017557)
(0 -0.00094726553 0.50018898)
(0 -0.0012345722 0.50020754)
(0 -0.0015533178 0.50023247)
(0 -0.0019140081 0.50026558)
(0 -0.0023303232 0.5003095)
(0 -0.0028206024 0.5003681)
(0 -0.0034102199 0.50044735)
(0 -0.0041355509 0.5005567)
(0 -0.0050496732 0.50071125)
(0 -0.0062324511 0.50093658)
(0 -0.0078327674 0.50129435)
(0 -0.010126407 0.50191048)
(0 -0.013107466 0.50282504)
(0 -0.017426839 0.50608113)
(0 -0.038759566 0.52526814)
(0 -0.02789492 0.45021613)
(0 0.039888297 0.40982052)
(0 0.061428185 0.54930816)
(0 0.031983815 0.52188198)
(0 0.024355556 0.51008058)
(0 0.019193676 0.5065886)
(0 0.014977194 0.50452812)
(0 0.01200674 0.50327145)
(0 0.0097719079 0.50245845)
(0 0.0080364574 0.50190114)
(0 0.0066647427 0.50150878)
(0 0.0055565437 0.50122557)
(0 0.0046423268 0.50101682)
(0 0.0038733546 0.50086068)
(0 0.003214232 0.50074277)
(0 0.0026386255 0.50065339)
(0 0.0021264828 0.50058588)
(0 0.0016621279 0.50053561)
(0 0.0012329417 0.50049941)
(0 0.0008284181 0.50047508)
(0 0.00043945917 0.50046126)
(0 5.7824603e-05 0.50045716)
(0 -0.00032434614 0.5004626)
(0 -0.00071496054 0.50047787)
(0 -0.0011223969 0.50050389)
(0 -0.0015559994 0.50054218)
(0 -0.0020266614 0.50059514)
(0 -0.0025475804 0.50066625)
(0 -0.0031352883 0.5007606)
(0 -0.0038111138 0.50088559)
(0 -0.0046032955 0.50105212)
(0 -0.0055501871 0.50127674)
(0 -0.0067057676 0.50158558)
(0 -0.0081472365 0.50202075)
(0 -0.0099786805 0.50265065)
(0 -0.012372914 0.50361498)
(0 -0.015717893 0.50519905)
(0 -0.019874198 0.50785375)
(0 -0.025187849 0.51641214)
(0 -0.047418264 0.53912713)
(0 -0.030854158 0.41487918)
(0 0.03479162 0.36173)
(0 0.063839012 0.55456334)
(0 0.039380524 0.53747141)
(0 0.030083485 0.51849267)
(0 0.024112687 0.51197737)
(0 0.019279645 0.50849954)
(0 0.015736178 0.50626437)
(0 0.012954128 0.50475558)
(0 0.010743532 0.50370458)
(0 0.0089676999 0.50295629)
(0 0.0075136011 0.50241126)
(0 0.0063015715 0.50200699)
(0 0.0052738074 0.50170321)
(0 0.0043870527 0.50147299)
(0 0.0036084919 0.50129799)
(0 0.0029127427 0.50116551)
(0 0.0022797003 0.50106672)
(0 0.0016930055 0.50099545)
(0 0.0011389193 0.50094753)
(0 0.00060546347 0.50092027)
(0 8.1738912e-05 0.50091219)
(0 -0.0004426736 0.50092288)
(0 -0.00097825362 0.50095297)
(0 -0.0015360697 0.50100417)
(0 -0.0021283993 0.50107947)
(0 -0.0027694466 0.50118346)
(0 -0.0034762489 0.50132284)
(0 -0.0042698821 0.5015073)
(0 -0.0051771242 0.50175083)
(0 -0.0062327527 0.50207392)
(0 -0.0074826339 0.50250703)
(0 -0.0089889979 0.50309716)
(0 -0.010839213 0.50391903)
(0 -0.013139836 0.50508901)
(0 -0.016026524 0.50680659)
(0 -0.019901841 0.50946714)
(0 -0.024733648 0.51427449)
(0 -0.031115544 0.52824678)
(0 -0.050321414 0.54407128)
(0 -0.028439011 0.37237887)
(0 0.02742431 0.31484313)
(0 0.062315019 0.55024062)
(0 0.044614747 0.55146772)
(0 0.033982197 0.52748823)
(0 0.027464188 0.51772255)
(0 0.022455241 0.51291997)
(0 0.018636799 0.50973161)
(0 0.015528058 0.50749283)
(0 0.013006037 0.50590016)
(0 0.01094191 0.50474715)
(0 0.0092242971 0.50389641)
(0 0.0077743466 0.50325947)
(0 0.006532073 0.50277741)
(0 0.0054510524 0.50241004)
(0 0.0044952373 0.50212954)
(0 0.0036361635 0.50191648)
(0 0.0028508881 0.50175715)
(0 0.0021204733 0.50164198)
(0 0.0014288264 0.50156442)
(0 0.00076178891 0.50152024)
(0 0.0001063979 0.50150711)
(0 -0.00054977571 0.50152439)
(0 -0.0012192292 0.50157306)
(0 -0.0019151071 0.50165582)
(0 -0.0026518858 0.50177735)
(0 -0.0034461433 0.5019448)
(0 -0.0043175046 0.50216858)
(0 -0.0052898531 0.50246356)
(0 -0.0063929378 0.50285102)
(0 -0.0076645326 0.50336158)
(0 -0.0091528993 0.50403989)
(0 -0.010920473 0.50495248)
(0 -0.013054088 0.50620218)
(0 -0.015657537 0.50794386)
(0 -0.018818674 0.51040389)
(0 -0.022899 0.51405429)
(0 -0.02817999 0.52114494)
(0 -0.035710127 0.53932615)
(0 -0.050478905 0.54155393)
(0 -0.024087025 0.33055537)
(0 0.019837969 0.27519757)
(0 0.057990214 0.53974648)
(0 0.047364181 0.56256485)
(0 0.036477915 0.53660471)
(0 0.029636365 0.52350729)
(0 0.024676308 0.5174035)
(0 0.020774351 0.51336327)
(0 0.017509796 0.51044484)
(0 0.014814144 0.50832456)
(0 0.012566468 0.50676222)
(0 0.010665242 0.50559323)
(0 0.0090384749 0.50470849)
(0 0.0076285503 0.50403305)
(0 0.0063896088 0.50351469)
(0 0.0052851926 0.50311672)
(0 0.0042858346 0.50281306)
(0 0.0033673078 0.50258521)
(0 0.0025092779 0.50242006)
(0 0.0016942228 0.5023086)
(0 0.00090655785 0.50224501)
(0 0.00013190834 0.50222605)
(0 -0.00064355685 0.50225083)
(0 -0.00143374 0.50232071)
(0 -0.0022531934 0.50243941)
(0 -0.00311781 0.50261339)
(0 -0.0040455744 0.50285242)
(0 -0.0050574597 0.50317065)
(0 -0.006178529 0.50358808)
(0 -0.0074393298 0.50413289)
(0 -0.0088777883 0.50484501)
(0 -0.010541168 0.50578145)
(0 -0.012487761 0.50702449)
(0 -0.01479778 0.50869731)
(0 -0.017573003 0.51098152)
(0 -0.020867409 0.51411949)
(0 -0.024977277 0.51872955)
(0 -0.03051204 0.52822935)
(0 -0.038633594 0.54872365)
(0 -0.048511452 0.53398228)
(0 -0.019067801 0.29393522)
(0 0.013083252 0.24255463)
(0 0.051799086 0.52520047)
(0 0.047709913 0.57024862)
(0 0.037757491 0.54552515)
(0 0.030850781 0.52928886)
(0 0.026073842 0.52180194)
(0 0.022238217 0.51699826)
(0 0.018953834 0.51347386)
(0 0.016193508 0.5108654)
(0 0.013849434 0.50891296)
(0 0.011835117 0.50743323)
(0 0.010087974 0.50630117)
(0 0.0085553842 0.50542903)
(0 0.0071946012 0.50475468)
(0 0.0059708275 0.50423375)
(0 0.0048552477 0.50383429)
(0 0.0038236771 0.50353335)
(0 0.0028554468 0.50331456)
(0 0.0019324723 0.50316654)
(0 0.0010384735 0.50308192)
(0 0.0001583103 0.50305659)
(0 -0.00072264155 0.50308942)
(0 -0.0016190773 0.50318212)
(0 -0.0025462988 0.50333941)
(0 -0.0035208681 0.50356945)
(0 -0.0045612866 0.50388451)
(0 -0.0056887898 0.50430219)
(0 -0.0069282888 0.50484712)
(0 -0.0083094861 0.50555356)
(0 -0.00986845 0.5064693)
(0 -0.011649373 0.50766148)
(0 -0.013704499 0.50922497)
(0 -0.016103335 0.51129774)
(0 -0.01894117 0.51407913)
(0 -0.022249371 0.51783796)
(0 -0.026268771 0.52346708)
(0 -0.031852451 0.53537468)
(0 -0.039763606 0.5558961)
(0 -0.044897071 0.52282012)
(0 -0.014091527 0.26264078)
(0 0.0077701933 0.21554074)
(0 0.04482614 0.5080098)
(0 0.046256101 0.57438098)
(0 0.03803592 0.55375159)
(0 0.031288426 0.53496085)
(0 0.026768807 0.52603068)
(0 0.02311706 0.5205389)
(0 0.01992102 0.51648878)
(0 0.017182137 0.51344225)
(0 0.014813197 0.51113131)
(0 0.012745771 0.50936024)
(0 0.010927811 0.50799177)
(0 0.0093134162 0.50692828)
(0 0.0078646214 0.50609985)
(0 0.0065496862 0.5054559)
(0 0.0053416576 0.50495955)
(0 0.0042174289 0.50458404)
(0 0.0031568734 0.50431012)
(0 0.0021420925 0.50412433)
(0 0.0011567663 0.50401788)
(0 0.00018558414 0.50398588)
(0 -0.00078630475 0.50402694)
(0 -0.0017738195 0.50414314)
(0 -0.0027924103 0.5043401)
(0 -0.003858644 0.50462747)
(0 -0.0049907798 0.50501977)
(0 -0.0062094322 0.50553761)
(0 -0.0075383357 0.50620958)
(0 -0.00900517 0.50707502)
(0 -0.010642727 0.50818809)
(0 -0.012490585 0.50962402)
(0 -0.014593873 0.51148788)
(0 -0.017008791 0.51392853)
(0 -0.019816993 0.51715472)
(0 -0.023034437 0.5214795)
(0 -0.02688369 0.52818188)
(0 -0.032355602 0.54221987)
(0 -0.03940814 0.56050105)
(0 -0.040331603 0.50907928)
(0 -0.0097089096 0.23585166)
(0 0.0040050346 0.19355592)
(0 0.0378999 0.48948677)
(0 0.043687817 0.57524022)
(0 0.037564785 0.5608455)
(0 0.031155012 0.54036163)
(0 0.026914874 0.53001194)
(0 0.023514684 0.52390248)
(0 0.020480717 0.51941339)
(0 0.017826954 0.51598871)
(0 0.015489436 0.51335993)
(0 0.013417837 0.5113252)
(0 0.011570808 0.50973868)
(0 0.0099101916 0.50849571)
(0 0.0084037555 0.50752063)
(0 0.0070236743 0.50675805)
(0 0.0057456807 0.50616727)
(0 0.0045484969 0.50571843)
(0 0.0034132084 0.5053899)
(0 0.0023227056 0.50516648)
(0 0.0012611777 0.50503816)
(0 0.00021365549 0.50499939)
(0 -0.00083444355 0.50504858)
(0 -0.0018977662 0.50518807)
(0 -0.0029913953 0.50542428)
(0 -0.0041313479 0.50576817)
(0 -0.0053350326 0.50623609)
(0 -0.0066217646 0.50685116)
(0 -0.0080133491 0.50764517)
(0 -0.0095346374 0.50866148)
(0 -0.011214224 0.50995917)
(0 -0.013085971 0.51161955)
(0 -0.015187394 0.51375528)
(0 -0.017561127 0.51652213)
(0 -0.020271313 0.52013114)
(0 -0.023325811 0.52496253)
(0 -0.026966677 0.53273924)
(0 -0.032208281 0.54839027)
(0 -0.038000258 0.56254199)
(0 -0.035418329 0.49378652)
(0 -0.0062012814 0.21324497)
(0 0.0015511802 0.17613291)
(0 0.031500053 0.47076116)
(0 0.040533251 0.57338582)
(0 0.036559968 0.56659899)
(0 0.030638242 0.54537908)
(0 0.026672437 0.53370527)
(0 0.023543716 0.52703309)
(0 0.020710839 0.52218939)
(0 0.018183144 0.51845235)
(0 0.015917165 0.51555229)
(0 0.013878479 0.51328705)
(0 0.012035652 0.511506)
(0 0.01035839 0.51010009)
(0 0.0088204385 0.50898984)
(0 0.0073982704 0.50811651)
(0 0.0060707752 0.50743656)
(0 0.0048189826 0.50691785)
(0 0.0036256568 0.50653689)
(0 0.0024749243 0.50627712)
(0 0.0013519113 0.50612757)
(0 0.00024240135 0.50608211)
(0 -0.00086751563 0.50613902)
(0 -0.0019918086 0.50630088)
(0 -0.0031447786 0.5065747)
(0 -0.0043414619 0.5069725)
(0 -0.005597964 0.5075121)
(0 -0.0069318263 0.50821853)
(0 -0.008362433 0.50912603)
(0 -0.009911349 0.51028088)
(0 -0.011602578 0.51174565)
(0 -0.013463841 0.5136057)
(0 -0.015525201 0.5159785)
(0 -0.017817283 0.51902259)
(0 -0.020387023 0.52294896)
(0 -0.023241658 0.5282346)
(0 -0.026661721 0.53703961)
(0 -0.031571757 0.55365855)
(0 -0.035910912 0.56230556)
(0 -0.030556814 0.47788308)
(0 -0.0035916472 0.19460102)
(0 7.6799857e-05 0.16252424)
(0 0.025870884 0.45259961)
(0 0.037160641 0.56943331)
(0 0.035192417 0.57098949)
(0 0.029878301 0.54996371)
(0 0.026174533 0.53711471)
(0 0.023306535 0.52991336)
(0 0.020687899 0.52478536)
(0 0.0183081 0.52079948)
(0 0.016138764 0.51767549)
(0 0.014158598 0.51521484)
(0 0.01234475 0.51326534)
(0 0.010674142 0.51171577)
(0 0.0091261655 0.51048442)
(0 0.0076815684 0.50951052)
(0 0.0063225478 0.5087487)
(0 0.005032671 0.5081652)
(0 0.0037966548 0.50773526)
(0 0.0026001573 0.5074413)
(0 0.0014295446 0.50727164)
(0 0.00027165801 0.50721974)
(0 -0.00088643466 0.50728376)
(0 -0.0020577175 0.50746644)
(0 -0.0032554037 0.50777529)
(0 -0.0044932428 0.50822307)
(0 -0.0057857392 0.50882868)
(0 -0.0071483835 0.50961853)
(0 -0.0085978983 0.5106285)
(0 -0.010152421 0.51190683)
(0 -0.011831434 0.51351825)
(0 -0.013656725 0.51555042)
(0 -0.015651506 0.51812308)
(0 -0.017836409 0.52139444)
(0 -0.020243805 0.52557892)
(0 -0.022887283 0.53128155)
(0 -0.026084945 0.54103047)
(0 -0.030576613 0.55793377)
(0 -0.033433396 0.56018692)
(0 -0.025998863 0.46205792)
(0 -0.0017657154 0.17946006)
(0 -0.00071790645 0.15190653)
(0 0.021108573 0.43543392)
(0 0.033820339 0.5639316)
(0 0.033605189 0.57408983)
(0 0.028975873 0.55409484)
(0 0.025520732 0.54026451)
(0 0.022886784 0.53255379)
(0 0.020478859 0.52719332)
(0 0.01825484 0.52301405)
(0 0.016195325 0.51970997)
(0 0.014289587 0.51708778)
(0 0.012521869 0.51499608)
(0 0.010875275 0.51332296)
(0 0.0093341773 0.51198579)
(0 0.0078832931 0.51092277)
(0 0.0065080274 0.51008754)
(0 0.0051945085 0.50944539)
(0 0.0039295135 0.50897075)
(0 0.0027003894 0.50864537)
(0 0.0014949282 0.50845709)
(0 0.00030122998 0.5083991)
(0 -0.0008924511 0.50846945)
(0 -0.0020979054 0.50867102)
(0 -0.0033270568 0.50901163)
(0 -0.0045921816 0.50950456)
(0 -0.0059060257 0.51016942)
(0 -0.0072819235 0.51103347)
(0 -0.008733908 0.51213357)
(0 -0.01027679 0.51351905)
(0 -0.011925882 0.51525573)
(0 -0.013697631 0.51743229)
(0 -0.01560919 0.52016887)
(0 -0.017673024 0.52362136)
(0 -0.019910593 0.52801548)
(0 -0.022348097 0.53410953)
(0 -0.0253273 0.54468083)
(0 -0.029338013 0.5612065)
(0 -0.030799265 0.55658123)
(0 -0.021898066 0.44674932)
(0 -0.00056514905 0.16723489)
(0 -0.0010700308 0.14358242)
(0 0.017203981 0.41947824)
(0 0.030667952 0.55733997)
(0 0.031916208 0.57602118)
(0 0.028005039 0.55776484)
(0 0.024784582 0.54318054)
(0 0.022350925 0.53497709)
(0 0.020139368 0.52941918)
(0 0.018069144 0.52509203)
(0 0.01612388 0.5216463)
(0 0.014300957 0.51889338)
(0 0.012590224 0.51668416)
(0 0.010979823 0.51490707)
(0 0.0094583174 0.5134794)
(0 0.0080139323 0.51233911)
(0 0.006635014 0.51143946)
(0 0.0053101285 0.51074535)
(0 0.0040280899 0.51023076)
(0 0.0027779768 0.50987709)
(0 0.0015490911 0.5096719)
(0 0.00033089945 0.50960821)
(0 -0.00088703911 0.50968403)
(0 -0.0021152017 0.50990228)
(0 -0.0033641164 0.510271)
(0 -0.0046445035 0.51080374)
(0 -0.0059673097 0.5115205)
(0 -0.007343741 0.51244898)
(0 -0.0087852653 0.51362646)
(0 -0.010303621 0.51510268)
(0 -0.011910447 0.51694379)
(0 -0.013617615 0.51923853)
(0 -0.015437124 0.5221061)
(0 -0.017374957 0.52569942)
(0 -0.019445707 0.53026565)
(0 -0.021693068 0.53673026)
(0 -0.024462027 0.54797056)
(0 -0.027957661 0.56352058)
(0 -0.028179101 0.5518502)
(0 -0.0183286 0.43222195)
(0 0.00016848441 0.15737949)
(0 -0.0011531342 0.13700052)
(0 0.014079622 0.4048129)
(0 0.027783536 0.55003272)
(0 0.030213528 0.57693099)
(0 0.02701822 0.56098017)
(0 0.024019082 0.54588676)
(0 0.021750846 0.53721024)
(0 0.019714626 0.53147605)
(0 0.017789356 0.52703668)
(0 0.015956541 0.52348191)
(0 0.014219187 0.52062525)
(0 0.012571319 0.51832076)
(0 0.011004999 0.51645785)
(0 0.0095121781 0.51495428)
(0 0.0080840498 0.51374829)
(0 0.006711546 0.51279322)
(0 0.0053854526 0.51205392)
(0 0.0040965059 0.51150431)
(0 0.0028354707 0.51112563)
(0 0.0015931596 0.51090535)
(0 0.00036043559 0.5108364)
(0 -0.00087179561 0.51091676)
(0 -0.0021126556 0.51114938)
(0 -0.0033712492 0.51154238)
(0 -0.0046567424 0.51210942)
(0 -0.0059783317 0.51287062)
(0 -0.0073452163 0.51385375)
(0 -0.0087665228 0.51509615)
(0 -0.010251268 0.51664744)
(0 -0.01180797 0.51857353)
(0 -0.01344476 0.52096262)
(0 -0.01516947 0.52393205)
(0 -0.016983259 0.5276323)
(0 -0.018897748 0.53234314)
(0 -0.020976774 0.53915788)
(0 -0.02354634 0.55089316)
(0 -0.026518038 0.56495853)
(0 -0.025684169 0.54631161)
(0 -0.015302118 0.41862377)
(0 0.00057331703 0.14943106)
(0 -0.0010855464 0.13172107)
(0 0.01162485 0.39142921)
(0 0.025194934 0.54230352)
(0 0.028555968 0.57697353)
(0 0.026048823 0.56376051)
(0 0.023259605 0.54840607)
(0 0.021125077 0.53928172)
(0 0.019240089 0.53338134)
(0 0.017446711 0.52885598)
(0 0.015720373 0.52521891)
(0 0.014067283 0.52228144)
(0 0.012484363 0.5199011)
(0 0.010966589 0.51796862)
(0 0.0095085282 0.51640255)
(0 0.0081037882 0.51514168)
(0 0.0067454907 0.51413977)
(0 0.0054263723 0.5133619)
(0 0.0041389175 0.51278211)
(0 0.0028754687 0.51238169)
(0 0.0016282887 0.51214814)
(0 0.0003896037 0.51207436)
(0 -0.0008483533 0.51215833)
(0 -0.0020933681 0.51240302)
(0 -0.0033531579 0.51281649)
(0 -0.0046353998 0.5134124)
(0 -0.0059476532 0.51421077)
(0 -0.0072972941 0.51523922)
(0 -0.0086913901 0.51653482)
(0 -0.010136638 0.51814675)
(0 -0.011639008 0.52014033)
(0 -0.013203706 0.52260279)
(0 -0.01483539 0.52564911)
(0 -0.016531982 0.52942917)
(0 -0.018305447 0.5342661)
(0 -0.020239868 0.54140901)
(0 -0.022621806 0.55345628)
(0 -0.025080223 0.56562481)
(0 -0.02337717 0.54023127)
(0 -0.012789007 0.40601662)
(0 0.0007584598 0.14299529)
(0 -0.00094370731 0.12739843)
(0 0.0097208955 0.37926109)
(0 0.022898699 0.53437277)
(0 0.026978732 0.57629385)
(0 0.025115601 0.56613308)
(0 0.022527399 0.55075915)
(0 0.020500297 0.54121922)
(0 0.018742217 0.53515469)
(0 0.017065708 0.53056094)
(0 0.015437448 0.52686264)
(0 0.013864619 0.52386326)
(0 0.012345989 0.52142349)
(0 0.010878606 0.51943556)
(0 0.0094589546 0.51781887)
(0 0.0080825319 0.51651296)
(0 0.0067442516 0.51547213)
(0 0.0054385117 0.51466187)
(0 0.0041593367 0.51405648)
(0 0.0029004997 0.51363745)
(0 0.0016556082 0.51339237)
(0 0.00041817377 0.51331419)
(0 -0.00081830965 0.51340089)
(0 -0.0020603586 0.51365541)
(0 -0.0033143844 0.51408572)
(0 -0.0045866859 0.51470534)
(0 -0.0058833412 0.51553408)
(0 -0.0072101218 0.51659923)
(0 -0.0085723446 0.51793739)
(0 -0.0099748015 0.51959711)
(0 -0.011421465 0.52164291)
(0 -0.012915356 0.52416086)
(0 -0.014458852 0.5272635)
(0 -0.016048106 0.53110292)
(0 -0.017697949 0.53605497)
(0 -0.019510549 0.54350122)
(0 -0.021716489 0.5556773)
(0 -0.023686246 0.56562941)
(0 -0.02128618 0.53382066)
(0 -0.010736763 0.39439997)
(0 0.00080422987 0.13773879)
(0 -0.00077510635 0.12377154)
(0 0.0082551055 0.36821157)
(0 0.020874567 0.52639991)
(0 0.025499725 0.57501977)
(0 0.024227364 0.56812748)
(0 0.02183363 0.55296299)
(0 0.019893675 0.54304742)
(0 0.018239795 0.53681585)
(0 0.016664817 0.53216405)
(0 0.015125151 0.52842039)
(0 0.013627003 0.5253742)
(0 0.012170182 0.52288851)
(0 0.010753129 0.52085704)
(0 0.0093736639 0.51920002)
(0 0.0080287013 0.51785772)
(0 0.0067145769 0.51678506)
(0 0.0054270637 0.51594802)
(0 0.0041615065 0.51532126)
(0 0.00291294 0.51488651)
(0 0.0016761844 0.51463153)
(0 0.00044592807 0.51454934)
(0 -0.00078317293 0.51463795)
(0 -0.002016465 0.51490021)
(0 -0.0032591666 0.51534399)
(0 -0.0045163374 0.5159826)
(0 -0.0057927527 0.51683553)
(0 -0.0070928133 0.51792964)
(0 -0.0084203925 0.51930098)
(0 -0.0097787724 0.52099738)
(0 -0.011170426 0.52308252)
(0 -0.012596818 0.52564119)
(0 -0.014058808 0.52878384)
(0 -0.015552077 0.53266828)
(0 -0.017096047 0.53773003)
(0 -0.018807077 0.54545098)
(0 -0.020847962 0.55757863)
(0 -0.022362685 0.56507721)
(0 -0.019416323 0.5272417)
(0 -0.009082625 0.38373329)
(0 0.00076713248 0.13338914)
(0 -0.00060772947 0.12065012)
(0 0.0071282906 0.35817177)
(0 0.019094528 0.51849705)
(0 0.024124828 0.57326025)
(0 0.023386589 0.56977304)
(0 0.021182773 0.55503052)
(0 0.019315317 0.54478678)
(0 0.017745544 0.53838318)
(0 0.016257483 0.53367793)
(0 0.014796753 0.52990027)
(0 0.013366972 0.52681899)
(0 0.011968383 0.52429824)
(0 0.010600304 0.52223304)
(0 0.0092614133 0.52054436)
(0 0.0079496536 0.5191731)
(0 0.0066624525 0.51807481)
(0 0.0053966914 0.51721596)
(0 0.00414882 0.5165716)
(0 0.0029149589 0.51612375)
(0 0.0016909953 0.51586034)
(0 0.00047266758 0.51577451)
(0 -0.00074432418 0.51586426)
(0 -0.0019642756 0.51613239)
(0 -0.0031913435 0.51658662)
(0 -0.004429501 0.51723999)
(0 -0.0056824079 0.51811164)
(0 -0.0069533242 0.51922799)
(0 -0.0082449679 0.52062446)
(0 -0.009559467 0.52234819)
(0 -0.010898221 0.52446204)
(0 -0.012261654 0.52704962)
(0 -0.013649728 0.53021984)
(0 -0.015058768 0.53414014)
(0 -0.016513772 0.5393098)
(0 -0.01814026 0.54727265)
(0 -0.020025963 0.55918468)
(0 -0.021124024 0.56406291)
(0 -0.017758369 0.52061503)
(0 -0.0077618831 0.37395364)
(0 0.0006855784 0.12973099)
(0 -0.00045649742 0.11789892)
(0 0.0062578686 0.34903215)
(0 0.017528452 0.51074065)
(0 0.022852164 0.57110661)
(0 0.02259193 0.57109777)
(0 0.020575021 0.55697114)
(0 0.018770283 0.54645342)
(0 0.017267595 0.53987282)
(0 0.015853159 0.53511446)
(0 0.014462104 0.53131046)
(0 0.013094221 0.52820298)
(0 0.011749736 0.52565566)
(0 0.010428449 0.52356465)
(0 0.0091295439 0.52185144)
(0 0.0078516685 0.5204575)
(0 0.0065930641 0.51933887)
(0 0.0053514834 0.51846251)
(0 0.00412428 0.51780385)
(0 0.0029084894 0.5173452)
(0 0.0017009169 0.51707467)
(0 0.00049821716 0.51698551)
(0 -0.00070299339 0.51707575)
(0 -0.0019060885 0.51734809)
(0 -0.0031143018 0.5178101)
(0 -0.0043306762 0.51847455)
(0 -0.0055579381 0.51936023)
(0 -0.0067984222 0.52049306)
(0 -0.0080539498 0.52190793)
(0 -0.009325801 0.52365132)
(0 -0.010614655 0.52578537)
(0 -0.011920298 0.52839265)
(0 -0.013242287 0.53158141)
(0 -0.014578498 0.53553256)
(0 -0.015959863 0.54081031)
(0 -0.017515442 0.54897834)
(0 -0.019254521 0.56052013)
(0 -0.019975731 0.56266922)
(0 -0.016295058 0.51402813)
(0 -0.0067133283 0.3649875)
(0 0.00058474516 0.12659779)
(0 -0.00032787554 0.11542368)
(0 0.0055781032 0.34068882)
(0 0.016147404 0.50318078)
(0 0.021675461 0.56863455)
(0 0.021840019 0.57212773)
(0 0.020007989 0.5587915)
(0 0.018260155 0.54805957)
(0 0.016810697 0.54129853)
(0 0.01545821 0.53648444)
(0 0.014128299 0.53265872)
(0 0.012816071 0.52953155)
(0 0.011521386 0.52696422)
(0 0.01024425 0.52485364)
(0 0.0089840837 0.52312169)
(0 0.0077399958 0.5217102)
(0 0.0065108107 0.52057567)
(0 0.0052949488 0.51968545)
(0 0.0040904876 0.51901532)
(0 0.0028952178 0.51854785)
(0 0.0017067192 0.51827135)
(0 0.00052242944 0.51817916)
(0 -0.00066024776 0.51826931)
(0 -0.0018438943 0.51854444)
(0 -0.0030309579 0.51901194)
(0 -0.0042237025 0.51968435)
(0 -0.005424091 0.52058008)
(0 -0.0066337274 0.52172464)
(0 -0.0078537591 0.5231524)
(0 -0.009084872 0.52490929)
(0 -0.010327303 0.52705689)
(0 -0.011580514 0.52967693)
(0 -0.01284403 0.53287804)
(0 -0.014117962 0.53685828)
(0 -0.015439028 0.54224493)
(0 -0.01693411 0.55057798)
(0 -0.018533754 0.56160869)
(0 -0.018917106 0.5609666)
(0 -0.015005565 0.50754242)
(0 -0.0058823614 0.35675819)
(0 0.00048037573 0.12386281)
(0 -0.00022319587 0.11315997)
(0 0.0050385123 0.33304678)
(0 0.01492529 0.49584829)
(0 0.02058648 0.56590648)
(0 0.021126722 0.57288682)
(0 0.019477955 0.56049606)
(0 0.017784268 0.54961402)
(0 0.016377194 0.54267169)
(0 0.015076671 0.53779735)
(0 0.013800269 0.53395218)
(0 0.012537901 0.53080994)
(0 0.0112888 0.5282275)
(0 0.010052967 0.52610219)
(0 0.0088298873 0.52435607)
(0 0.0076189413 0.52293123)
(0 0.0064193534 0.52178444)
(0 0.0052300427 0.5208834)
(0 0.0040496539 0.52020418)
(0 0.0028765893 0.51972958)
(0 0.001709069 0.51944808)
(0 0.00054518697 0.51935311)
(0 -0.00061698959 0.5194427)
(0 -0.001779376 0.51971942)
(0 -0.0029437653 0.52019051)
(0 -0.0041117817 0.52086826)
(0 -0.0052847787 0.52177078)
(0 -0.0064637981 0.52292319)
(0 -0.0076495001 0.52435944)
(0 -0.0088421797 0.52612505)
(0 -0.010041844 0.52828115)
(0 -0.011247859 0.5309089)
(0 -0.012459994 0.53411853)
(0 -0.013681069 0.53812844)
(0 -0.014953037 0.54362443)
(0 -0.016395182 0.55207946)
(0 -0.017861337 0.56247238)
(0 -0.017943641 0.55901404)
(0 -0.013868394 0.50119939)
(0 -0.0052223136 0.34919055)
(0 0.00038167532 0.12143123)
(0 -0.00014092973 0.11106439)
(0 0.004601441 0.32602138)
(0 0.013839435 0.48876045)
(0 0.019576554 0.56297391)
(0 0.020447922 0.57339681)
(0 0.018980714 0.5620877)
(0 0.017340639 0.55112275)
(0 0.015967796 0.54400147)
(0 0.014710875 0.5390614)
(0 0.013481286 0.53519721)
(0 0.012263552 0.53204299)
(0 0.011056057 0.52944905)
(0 0.009858659 0.52731266)
(0 0.0086707906 0.52555595)
(0 0.007491972 0.52412107)
(0 0.0063216852 0.52296498)
(0 0.0051592101 0.52205561)
(0 0.0040036266 0.52136926)
(0 0.002853822 0.52088895)
(0 0.0017085363 0.52060327)
(0 0.00056640309 0.52050574)
(0 -0.00057396168 0.52059439)
(0 -0.0017139232 0.52087172)
(0 -0.0028547403 0.52134483)
(0 -0.0039975228 0.5220258)
(0 -0.0051431489 0.52293248)
(0 -0.0062922413 0.52408967)
(0 -0.0074451239 0.52553099)
(0 -0.0086018585 0.52730167)
(0 -0.0097623743 0.52946256)
(0 -0.010926106 0.53209455)
(0 -0.01209327 0.53531073)
(0 -0.013269667 0.53935246)
(0 -0.014501648 0.54495711)
(0 -0.015896027 0.55348888)
(0 -0.017233608 0.56313118)
(0 -0.017048763 0.5568604)
(0 -0.012863107 0.49502572)
(0 -0.0046946399 0.34221385)
(0 0.00029347323 0.11923324)
(0 -7.8167716e-05 0.10910789)
(0 0.0042394744 0.31953849)
(0 0.012870558 0.48192511)
(0 0.018637473 0.5598795)
(0 0.01979992 0.57367763)
(0 0.018512107 0.56356829)
(0 0.016926631 0.55258945)
(0 0.015582165 0.54529504)
(0 0.014361956 0.54028349)
(0 0.013173393 0.5363994)
(0 0.011995667 0.5332351)
(0 0.010826127 0.53063223)
(0 0.0096643867 0.52848748)
(0 0.0085097667 0.5267229)
(0 0.0073618301 0.52528056)
(0 0.0062202109 0.52411751)
(0 0.0050844407 0.52320181)
(0 0.003953925 0.52250996)
(0 0.0028279281 0.52202509)
(0 0.0017056042 0.52173593)
(0 0.00058602236 0.52163604)
(0 -0.00053175726 0.52172345)
(0 -0.0016486548 0.52200061)
(0 -0.0027655005 0.52247449)
(0 -0.0038830005 0.523157)
(0 -0.0050016721 0.52406577)
(0 -0.006121836 0.52522536)
(0 -0.0072435994 0.52666916)
(0 -0.0083669075 0.52844223)
(0 -0.0094917164 0.53060528)
(0 -0.010617642 0.53323927)
(0 -0.011745497 0.53646147)
(0 -0.012884156 0.54053814)
(0 -0.014083324 0.54624912)
(0 -0.015433189 0.55481081)
(0 -0.016646333 0.56360296)
(0 -0.016225049 0.55454595)
(0 -0.011971222 0.48903727)
(0 -0.0042684061 0.33576335)
(0 0.00021775256 0.1172182)
(0 -3.1543427e-05 0.10727086)
(0 0.0039330459 0.31353393)
(0 0.012002473 0.47534374)
(0 0.017761897 0.55665884)
(0 0.019179604 0.57374761)
(0 0.018068317 0.56493912)
(0 0.016539376 0.55401612)
(0 0.015219335 0.54655791)
(0 0.014030235 0.5414694)
(0 0.012877743 0.53756356)
(0 0.011735981 0.53439018)
(0 0.010601102 0.53178014)
(0 0.0094724068 0.52962901)
(0 0.0083490727 0.52785858)
(0 0.0072306443 0.52641077)
(0 0.0061168294 0.52524259)
(0 0.0050073274 0.52432216)
(0 0.00390178 0.52362608)
(0 0.0027997384 0.5231376)
(0 0.0017006795 0.52284552)
(0 0.00060401765 0.52274345)
(0 -0.00049083513 0.5228294)
(0 -0.001584446 0.52310579)
(0 -0.0026773089 0.52357947)
(0 -0.0037698209 0.52426223)
(0 -0.0048622331 0.52517151)
(0 -0.0059546585 0.52633172)
(0 -0.0070470786 0.52777609)
(0 -0.0081394065 0.52954966)
(0 -0.009231691 0.53171313)
(0 -0.010323804 0.53434786)
(0 -0.01141726 0.53757661)
(0 -0.01252396 0.5416917)
(0 -0.01369578 0.54750482)
(0 -0.015002904 0.5560487)
(0 -0.016095217 0.56390374)
(0 -0.015465025 0.55210387)
(0 -0.011176555 0.48324217)
(0 -0.0039193781 0.32978091)
(0 0.00015471806 0.11534977)
(0 2.2251597e-06 0.10553967)
(0 0.0036683961 0.30795249)
(0 0.011221665 0.46901351)
(0 0.016943492 0.55334177)
(0 0.018584462 0.57362373)
(0 0.017646002 0.56620128)
(0 0.016176048 0.55540349)
(0 0.014878 0.54779416)
(0 0.013715503 0.5426239)
(0 0.012594862 0.53869383)
(0 0.011485557 0.53551169)
(0 0.010382401 0.53289562)
(0 0.0092843354 0.53073947)
(0 0.0081903844 0.52896469)
(0 0.0071000347 0.5275129)
(0 0.0060130139 0.52634098)
(0 0.0049291247 0.52541707)
(0 0.0038481746 0.52471778)
(0 0.0027699269 0.52422645)
(0 0.0016941043 0.52393192)
(0 0.00062038848 0.52382782)
(0 -0.0004515348 0.52391217)
(0 -0.0015219593 0.52418733)
(0 -0.0025911219 0.52466009)
(0 -0.0036591891 0.52534211)
(0 -0.004726223 0.52625074)
(0 -0.0057922025 0.52741026)
(0 -0.0068570511 0.52885389)
(0 -0.0079207076 0.53062668)
(0 -0.0089833513 0.53278949)
(0 -0.010045156 0.53542446)
(0 -0.011108414 0.53866104)
(0 -0.012187887 0.54281807)
(0 -0.013336364 0.54872708)
(0 -0.014601433 0.5572051)
(0 -0.01557622 0.56404781)
(0 -0.014761661 0.5495615)
(0 -0.010465242 0.47764312)
(0 -0.0036289512 0.32421506)
(0 0.00010353942 0.11360205)
(0 2.6057466e-05 0.10390437)
(0 0.0034359335 0.30274684)
(0 0.010516853 0.46292883)
(0 0.016176895 0.54995349)
(0 0.018012525 0.57332185)
(0 0.017242344 0.56735592)
(0 0.015834008 0.55675148)
(0 0.014556699 0.54900676)
(0 0.01341722 0.54375091)
(0 0.012324848 0.53979376)
(0 0.011244967 0.53660262)
(0 0.010170933 0.5339812)
(0 0.009101289 0.53182096)
(0 0.0080349119 0.53004288)
(0 0.0069712071 0.5285882)
(0 0.005909885 0.5274136)
(0 0.0048508042 0.52648715)
(0 0.0037938822 0.52578546)
(0 0.0027390342 0.52529188)
(0 0.0016861651 0.52499527)
(0 0.00063515836 0.5248893)
(0 -0.00041409279 0.52497195)
(0 -0.0014616755 0.52524556)
(0 -0.0025076358 0.52571686)
(0 -0.0035519739 0.52639745)
(0 -0.0045946245 0.5273046)
(0 -0.0056354886 0.52846255)
(0 -0.00667448 0.52990455)
(0 -0.0077116009 0.53167579)
(0 -0.0087471779 0.53383737)
(0 -0.0097817124 0.53647263)
(0 -0.010818331 0.53971884)
(0 -0.011874397 0.54392101)
(0 -0.013002327 0.54991767)
(0 -0.014225267 0.55828199)
(0 -0.015085724 0.56404805)
(0 -0.014108618 0.54694151)
(0 -0.0098255696 0.47223911)
(0 -0.0033830837 0.31902062)
(0 6.2857787e-05 0.11195655)
(0 4.2402379e-05 0.10235722)
(0 0.0032289792 0.29787641)
(0 0.0098785845 0.45708231)
(0 0.015457588 0.54651534)
(0 0.01746227 0.57285684)
(0 0.01685502 0.56840439)
(0 0.015510876 0.55805941)
(0 0.014253938 0.55019779)
(0 0.013134653 0.54485364)
(0 0.012067513 0.54086636)
(0 0.011014432 0.53766562)
(0 0.0099672224 0.53503916)