/*--------------------------------*- C++ -*----------------------------------*\
  =========                 |
  \\      /  F ield         | OpenFOAM: The Open Source CFD Toolbox
   \\    /   O peration     | Website:  https://openfoam.org
    \\  /    A nd           | Version:  10
     \\/     M anipulation  |
\*---------------------------------------------------------------------------*/
FoamFile
{
    format      ascii;
    class       volVectorField;
    location    "0.3";
    object      U_0;
}
// * * * * * * * * * * * * * * * * * * * * * * * * * * * * * * * * * * * * * //

dimensions      [0 1 -1 0 0 0 0];

internalField   nonuniform List<vector> 
4000
(
(0 0.018637458 0.47773157)
(0 0.023510003 0.50886061)
(0 0.0081668556 0.50052522)
(0 0.0056146134 0.50033634)
(0 0.0042546246 0.50025746)
(0 0.0032549365 0.50016898)
(0 0.0025560776 0.50011969)
(0 0.0020545635 0.50009013)
(0 0.001676555 0.50006981)
(0 0.0013822089 0.50005539)
(0 0.0011471528 0.50004499)
(0 0.00095504801 0.50003733)
(0 0.00079464043 0.5000316)
(0 0.00065795448 0.50002727)
(0 0.00053916191 0.50002399)
(0 0.0004338822 0.50002151)
(0 0.00033872811 0.50001967)
(0 0.0002509978 0.50001834)
(0 0.00016845875 0.50001745)
(0 8.9189195e-05 0.50001694)
(0 1.1455832e-05 0.50001679)
(0 -6.6393175e-05 0.50001699)
(0 -0.00014601993 0.50001755)
(0 -0.00022918882 0.5000185)
(0 -0.00031787725 0.50001991)
(0 -0.00041440613 0.50002185)
(0 -0.00052161183 0.50002447)
(0 -0.00064308535 0.50002793)
(0 -0.00078352026 0.50003252)
(0 -0.00094924249 0.50003863)
(0 -0.0011490614 0.50004688)
(0 -0.0013956351 0.50005824)
(0 -0.0017077098 0.50007414)
(0 -0.0021156339 0.50009709)
(0 -0.0026753212 0.50013481)
(0 -0.00346888 0.50020237)
(0 -0.0045610858 0.50027142)
(0 -0.0065852624 0.50043364)
(0 -0.017659693 0.50675409)
(0 -0.013590243 0.47975557)
(0 0.037432693 0.44796925)
(0 0.050955762 0.53232616)
(0 0.021969333 0.50804291)
(0 0.01613565 0.50357319)
(0 0.012416081 0.50242317)
(0 0.0095159414 0.50162301)
(0 0.0075205934 0.50115663)
(0 0.0060698476 0.50086595)
(0 0.0049645064 0.50066803)
(0 0.0041000376 0.50052903)
(0 0.0034074913 0.50042907)
(0 0.0028399201 0.50035557)
(0 0.0023649506 0.50030068)
(0 0.0019594995 0.50025928)
(0 0.0016066069 0.50022793)
(0 0.0012934781 0.50020427)
(0 0.0010101887 0.50018667)
(0 0.00074880131 0.500174)
(0 0.00050274239 0.50016549)
(0 0.00026634307 0.50016065)
(0 3.4483364e-05 0.50015922)
(0 -0.0001977154 0.50016112)
(0 -0.00043516184 0.50016647)
(0 -0.00068306561 0.50017557)
(0 -0.00094725647 0.50018898)
(0 -0.001234563 0.50020754)
(0 -0.0015533084 0.50023247)
(0 -0.0019139986 0.50026558)
(0 -0.0023303137 0.5003095)
(0 -0.0028205929 0.5003681)
(0 -0.0034102105 0.50044735)
(0 -0.0041355417 0.5005567)
(0 -0.0050496643 0.50071125)
(0 -0.0062324425 0.50093658)
(0 -0.0078327593 0.50129435)
(0 -0.010126399 0.50191048)
(0 -0.013107459 0.50282504)
(0 -0.017426833 0.50608113)
(0 -0.03875956 0.52526814)
(0 -0.027894917 0.45021613)
(0 0.039888297 0.40982052)
(0 0.061428187 0.54930816)
(0 0.031983817 0.52188198)
(0 0.024355558 0.51008058)
(0 0.019193678 0.5065886)
(0 0.014977197 0.50452812)
(0 0.012006743 0.50327145)
(0 0.0097719121 0.50245845)
(0 0.0080364621 0.50190114)
(0 0.0066647482 0.50150878)
(0 0.0055565498 0.50122557)
(0 0.0046423336 0.50101682)
(0 0.0038733621 0.50086068)
(0 0.0032142403 0.50074277)
(0 0.0026386346 0.50065339)
(0 0.0021264926 0.50058587)
(0 0.0016621384 0.50053561)
(0 0.001232953 0.5004994)
(0 0.00082843009 0.50047508)
(0 0.00043947184 0.50046126)
(0 5.7837916e-05 0.50045716)
(0 -0.00032433222 0.5004626)
(0 -0.00071494606 0.50047787)
(0 -0.001122382 0.50050389)
(0 -0.001555984 0.50054218)
(0 -0.0020266457 0.50059514)
(0 -0.0025475645 0.50066625)
(0 -0.0031352721 0.5007606)
(0 -0.0038110975 0.50088559)
(0 -0.0046032793 0.50105212)
(0 -0.005550171 0.50127674)
(0 -0.0067057519 0.50158558)
(0 -0.0081472212 0.50202075)
(0 -0.0099786658 0.50265065)
(0 -0.0123729 0.50361498)
(0 -0.01571788 0.50519905)
(0 -0.019874187 0.50785375)
(0 -0.025187838 0.51641214)
(0 -0.047418254 0.53912713)
(0 -0.030854154 0.41487919)
(0 0.03479162 0.36172999)
(0 0.063839014 0.55456334)
(0 0.039380527 0.53747141)
(0 0.030083487 0.51849267)
(0 0.02411269 0.51197737)
(0 0.019279649 0.50849954)
(0 0.015736183 0.50626437)
(0 0.012954134 0.50475558)
(0 0.010743539 0.50370457)
(0 0.0089677075 0.50295629)
(0 0.0075136097 0.50241126)
(0 0.0063015811 0.50200699)
(0 0.005273818 0.50170321)
(0 0.0043870644 0.50147299)
(0 0.0036085047 0.50129799)
(0 0.0029127566 0.50116551)
(0 0.0022797152 0.50106671)
(0 0.0016930215 0.50099545)
(0 0.0011389363 0.50094753)
(0 0.00060548153 0.50092027)
(0 8.1757919e-05 0.50091219)
(0 -0.00044265373 0.50092288)
(0 -0.00097823294 0.50095297)
(0 -0.0015360482 0.50100417)
(0 -0.0021283772 0.50107947)
(0 -0.0027694241 0.50118346)
(0 -0.003476226 0.50132284)
(0 -0.004269859 0.5015073)
(0 -0.0051771009 0.50175083)
(0 -0.0062327294 0.50207392)
(0 -0.0074826108 0.50250703)
(0 -0.0089889753 0.50309716)
(0 -0.010839191 0.50391903)
(0 -0.013139814 0.50508901)
(0 -0.016026503 0.50680659)
(0 -0.019901822 0.50946715)
(0 -0.024733631 0.51427449)
(0 -0.031115527 0.52824678)
(0 -0.0503214 0.54407128)
(0 -0.028439006 0.37237889)
(0 0.02742431 0.31484313)
(0 0.062315021 0.55024062)
(0 0.04461475 0.55146772)
(0 0.0339822 0.52748823)
(0 0.027464192 0.51772255)
(0 0.022455246 0.51291997)
(0 0.018636806 0.5097316)
(0 0.015528065 0.50749283)
(0 0.013006045 0.50590016)
(0 0.01094192 0.50474715)
(0 0.0092243082 0.50389641)
(0 0.007774359 0.50325946)
(0 0.0065320868 0.50277741)
(0 0.0054510676 0.50241004)
(0 0.004495254 0.50212954)
(0 0.0036361816 0.50191647)
(0 0.0028509077 0.50175715)
(0 0.0021204943 0.50164198)
(0 0.0014288488 0.50156442)
(0 0.00076181258 0.50152023)
(0 0.00010642281 0.5015071)
(0 -0.00054974962 0.50152438)
(0 -0.001219202 0.50157306)
(0 -0.0019150789 0.50165582)
(0 -0.0026518568 0.50177735)
(0 -0.0034461136 0.5019448)
(0 -0.0043174744 0.50216858)
(0 -0.0052898225 0.50246356)
(0 -0.006392907 0.50285102)
(0 -0.0076645018 0.50336158)
(0 -0.0091528687 0.50403989)
(0 -0.010920443 0.50495248)
(0 -0.013054059 0.50620218)
(0 -0.015657509 0.50794386)
(0 -0.018818647 0.51040389)
(0 -0.022898975 0.51405429)
(0 -0.028179966 0.52114494)
(0 -0.035710103 0.53932615)
(0 -0.050478886 0.54155394)
(0 -0.024087019 0.3305554)
(0 0.019837969 0.27519757)
(0 0.057990216 0.53974648)
(0 0.047364185 0.56256485)
(0 0.036477919 0.53660471)
(0 0.02963637 0.52350728)
(0 0.024676315 0.5174035)
(0 0.020774358 0.51336327)
(0 0.017509805 0.51044484)
(0 0.014814155 0.50832456)
(0 0.01256648 0.50676221)
(0 0.010665256 0.50559323)
(0 0.0090384901 0.50470848)
(0 0.0076285673 0.50403304)
(0 0.0063896275 0.50351469)
(0 0.0052852132 0.50311671)
(0 0.0042858569 0.50281306)
(0 0.003367332 0.5025852)
(0 0.0025093039 0.50242005)
(0 0.0016942506 0.5023086)
(0 0.00090658733 0.502245)
(0 0.00013193942 0.50222604)
(0 -0.00064352424 0.50225083)
(0 -0.001433706 0.50232071)
(0 -0.0022531581 0.50243941)
(0 -0.0031177736 0.50261338)
(0 -0.0040455372 0.50285242)
(0 -0.0050574217 0.50317065)
(0 -0.0061784906 0.50358808)
(0 -0.007439291 0.50413289)
(0 -0.0088777495 0.50484501)
(0 -0.01054113 0.50578145)
(0 -0.012487723 0.50702449)
(0 -0.014797742 0.50869731)
(0 -0.017572967 0.51098153)
(0 -0.020867375 0.5141195)
(0 -0.024977244 0.51872956)
(0 -0.030512009 0.52822936)
(0 -0.038633563 0.54872365)
(0 -0.048511429 0.5339823)
(0 -0.019067794 0.29393527)
(0 0.013083252 0.24255463)
(0 0.051799088 0.52520047)
(0 0.047709916 0.57024862)
(0 0.037757496 0.54552515)
(0 0.030850786 0.52928885)
(0 0.026073849 0.52180194)
(0 0.022238225 0.51699826)
(0 0.018953844 0.51347386)
(0 0.01619352 0.5108654)
(0 0.013849448 0.50891296)
(0 0.011835133 0.50743322)
(0 0.010087992 0.50630116)
(0 0.0085554043 0.50542902)
(0 0.0071946235 0.50475467)
(0 0.005970852 0.50423374)
(0 0.0048552745 0.50383429)
(0 0.0038237061 0.50353335)
(0 0.002855478 0.50331455)
(0 0.0019325057 0.50316654)
(0 0.001038509 0.50308191)
(0 0.00015834785 0.50305658)
(0 -0.00072260214 0.50308941)
(0 -0.0016190361 0.50318211)
(0 -0.002546256 0.50333941)
(0 -0.0035208239 0.50356945)
(0 -0.0045612413 0.50388451)
(0 -0.0056887436 0.50430218)
(0 -0.0069282419 0.50484711)
(0 -0.0083094388 0.50555356)
(0 -0.0098684026 0.5064693)
(0 -0.011649326 0.50766148)
(0 -0.013704453 0.50922498)
(0 -0.016103289 0.51129774)
(0 -0.018941126 0.51407913)
(0 -0.022249329 0.51783797)
(0 -0.026268731 0.52346709)
(0 -0.031852412 0.53537468)
(0 -0.039763566 0.55589611)
(0 -0.044897044 0.52282016)
(0 -0.01409152 0.26264084)
(0 0.0077701934 0.21554073)
(0 0.044826142 0.50800979)
(0 0.046256105 0.57438097)
(0 0.038035925 0.55375158)
(0 0.031288432 0.53496085)
(0 0.026768815 0.52603068)
(0 0.023117069 0.52053889)
(0 0.019921031 0.51648877)
(0 0.01718215 0.51344224)
(0 0.014813213 0.5111313)
(0 0.01274579 0.50936023)
(0 0.010927832 0.50799176)
(0 0.0093134394 0.50692827)
(0 0.0078646473 0.50609985)
(0 0.0065497148 0.50545589)
(0 0.0053416889 0.50495954)
(0 0.0042174629 0.50458403)
(0 0.0031569101 0.50431011)
(0 0.0021421318 0.50412432)
(0 0.0011568082 0.50401787)
(0 0.00018562842 0.50398587)
(0 -0.00078625816 0.50402694)
(0 -0.0017737708 0.50414313)
(0 -0.0027923597 0.50434009)
(0 -0.0038585916 0.50462747)
(0 -0.004990726 0.50501977)
(0 -0.0062093772 0.50553761)
(0 -0.0075382798 0.50620958)
(0 -0.0090051135 0.50707502)
(0 -0.010642671 0.50818809)
(0 -0.012490529 0.50962403)
(0 -0.014593817 0.51148788)
(0 -0.017008736 0.51392854)
(0 -0.019816939 0.51715473)
(0 -0.023034386 0.52147951)
(0 -0.026883641 0.52818189)
(0 -0.032355554 0.54221988)
(0 -0.039408092 0.56050107)
(0 -0.040331572 0.50907934)
(0 -0.0097089023 0.23585174)
(0 0.0040050346 0.19355592)
(0 0.037899901 0.48948676)
(0 0.04368782 0.57524021)
(0 0.03756479 0.5608455)
(0 0.031155018 0.54036162)
(0 0.026914882 0.53001193)
(0 0.023514694 0.52390247)
(0 0.020480729 0.51941338)
(0 0.017826969 0.5159887)
(0 0.015489453 0.51335992)
(0 0.013417857 0.51132519)
(0 0.011570831 0.50973867)
(0 0.009910218 0.5084957)
(0 0.008403785 0.50752062)
(0 0.0070237069 0.50675804)
(0 0.0057457166 0.50616726)
(0 0.004548536 0.50571842)
(0 0.0034132507 0.50538989)
(0 0.002322751 0.50516647)
(0 0.0012612262 0.50503815)
(0 0.00021370687 0.50499938)
(0 -0.0008343894 0.50504857)
(0 -0.0018977095 0.50518806)
(0 -0.0029913362 0.50542428)
(0 -0.0041312867 0.50576816)
(0 -0.0053349696 0.50623608)
(0 -0.0066217002 0.50685115)
(0 -0.0080132836 0.50764517)
(0 -0.0095345711 0.50866148)
(0 -0.011214158 0.50995917)
(0 -0.013085905 0.51161955)
(0 -0.015187328 0.51375529)
(0 -0.017561062 0.51652214)
(0 -0.02027125 0.52013115)
(0 -0.02332575 0.52496254)
(0 -0.026966618 0.53273925)
(0 -0.032208222 0.54839028)
(0 -0.038000201 0.56254201)
(0 -0.035418294 0.4937866)
(0 -0.0062012739 0.21324507)
(0 0.00155118 0.1761329)
(0 0.031500054 0.47076115)
(0 0.040533254 0.57338582)
(0 0.036559973 0.56659898)
(0 0.030638248 0.54537907)
(0 0.026672445 0.53370526)
(0 0.023543727 0.52703308)
(0 0.020710852 0.52218938)
(0 0.01818316 0.51845234)
(0 0.015917185 0.51555228)
(0 0.013878502 0.51328704)
(0 0.012035678 0.51150598)
(0 0.01035842 0.51010008)
(0 0.0088204716 0.50898982)
(0 0.0073983073 0.50811649)
(0 0.0060708158 0.50743655)
(0 0.0048190269 0.50691783)
(0 0.0036257049 0.50653688)
(0 0.0024749762 0.5062771)
(0 0.0013519667 0.50612755)
(0 0.0002424602 0.5060821)
(0 -0.00086745353 0.50613901)
(0 -0.0019917434 0.50630086)
(0 -0.0031447106 0.50657469)
(0 -0.0043413914 0.50697249)
(0 -0.0055978913 0.50751209)
(0 -0.0069317518 0.50821853)
(0 -0.0083623571 0.50912602)
(0 -0.0099112722 0.51028088)
(0 -0.011602501 0.51174565)
(0 -0.013463764 0.51360571)
(0 -0.015525125 0.5159785)
(0 -0.017817207 0.51902259)
(0 -0.020386949 0.52294897)
(0 -0.023241586 0.52823461)
(0 -0.026661651 0.53703963)
(0 -0.031571687 0.55365855)
(0 -0.035910847 0.56230559)
(0 -0.030556776 0.47788319)
(0 -0.0035916393 0.19460114)
(0 7.6799625e-05 0.16252423)
(0 0.025870885 0.45259959)
(0 0.037160643 0.5694333)
(0 0.035192422 0.57098948)
(0 0.029878308 0.54996369)
(0 0.026174542 0.5371147)
(0 0.023306546 0.52991335)
(0 0.020687913 0.52478535)
(0 0.018308118 0.52079947)
(0 0.016138785 0.51767548)
(0 0.014158623 0.51521482)
(0 0.012344778 0.51326532)
(0 0.010674175 0.51171575)
(0 0.0091262022 0.5104844)
(0 0.0076816094 0.5095105)
(0 0.0063225932 0.50874868)
(0 0.0050327208 0.50816518)
(0 0.003796709 0.50773524)
(0 0.0026002158 0.50744128)
(0 0.0014296073 0.50727162)
(0 0.00027172469 0.50721973)
(0 -0.00088636413 0.50728374)
(0 -0.0020576434 0.50746643)
(0 -0.0032553263 0.50777528)
(0 -0.0044931624 0.50822306)
(0 -0.0057856561 0.50882867)
(0 -0.0071482982 0.50961853)
(0 -0.0085978113 0.5106285)
(0 -0.010152333 0.51190683)
(0 -0.011831345 0.51351825)
(0 -0.013656636 0.51555042)
(0 -0.015651417 0.51812309)
(0 -0.017836322 0.52139445)
(0 -0.02024372 0.52557893)
(0 -0.0228872 0.53128156)
(0 -0.026084863 0.54103049)
(0 -0.030576531 0.55793378)
(0 -0.033433321 0.56018697)
(0 -0.025998822 0.46205807)
(0 -0.0017657071 0.1794602)
(0 -0.00071790678 0.15190652)
(0 0.021108573 0.4354339)
(0 0.033820341 0.56393159)
(0 0.033605193 0.57408982)
(0 0.028975879 0.55409483)
(0 0.02552074 0.5402645)
(0 0.022886795 0.53255377)
(0 0.020478873 0.52719331)
(0 0.018254858 0.52301403)
(0 0.016195347 0.51970995)
(0 0.014289613 0.51708776)
(0 0.012521899 0.51499605)
(0 0.010875311 0.51332293)
(0 0.0093342176 0.51198576)
(0 0.0078833383 0.51092275)
(0 0.0065080777 0.51008751)
(0 0.0051945639 0.50944537)
(0 0.0039295739 0.50897073)
(0 0.0027004547 0.50864535)
(0 0.0014949984 0.50845707)
(0 0.00030130492 0.50839908)
(0 -0.00089237166 0.50846943)
(0 -0.0020978217 0.508671)
(0 -0.0033269692 0.50901161)
(0 -0.0045920905 0.50950454)
(0 -0.0059059315 0.51016941)
(0 -0.0072818266 0.51103346)
(0 -0.008733809 0.51213356)
(0 -0.010276689 0.51351904)
(0 -0.01192578 0.51525573)
(0 -0.013697529 0.51743229)
(0 -0.015609088 0.52016887)
(0 -0.017672923 0.52362137)
(0 -0.019910494 0.52801549)
(0 -0.022348001 0.53410955)
(0 -0.025327205 0.54468084)
(0 -0.029337918 0.56120652)
(0 -0.030799181 0.55658131)
(0 -0.021898021 0.44674951)
(0 -0.00056514025 0.16723506)
(0 -0.0010700312 0.14358241)
(0 0.01720398 0.41947822)
(0 0.030667952 0.55733995)
(0 0.03191621 0.57602116)
(0 0.028005044 0.55776482)
(0 0.024784589 0.54318052)
(0 0.022350936 0.53497707)
(0 0.020139383 0.52941915)
(0 0.018069162 0.52509201)
(0 0.016123903 0.52164627)
(0 0.014300985 0.51889335)
(0 0.012590257 0.51668413)
(0 0.010979861 0.51490704)
(0 0.0094583612 0.51347937)
(0 0.0080139817 0.51233908)
(0 0.0066350693 0.51143943)
(0 0.0053101896 0.51074532)
(0 0.0040281568 0.51023073)
(0 0.0027780494 0.50987706)
(0 0.0015491693 0.50967187)
(0 0.00033098312 0.50960819)
(0 -0.00088695023 0.509684)
(0 -0.0021151079 0.50990226)
(0 -0.003364018 0.51027097)
(0 -0.004644401 0.51080372)
(0 -0.0059672034 0.51152049)
(0 -0.0073436316 0.51244896)
(0 -0.0087851534 0.51362646)
(0 -0.010303508 0.51510268)
(0 -0.011910331 0.51694379)
(0 -0.013617499 0.51923853)
(0 -0.015437008 0.52210611)
(0 -0.017374842 0.52569943)
(0 -0.019445595 0.53026567)
(0 -0.021692958 0.53673028)
(0 -0.024461917 0.54797057)
(0 -0.027957551 0.5635206)
(0 -0.028179007 0.5518503)
(0 -0.018328551 0.43222218)
(0 0.00016849373 0.15737969)
(0 -0.0011531346 0.13700052)
(0 0.01407962 0.40481289)
(0 0.027783534 0.5500327)
(0 0.030213528 0.57693097)
(0 0.027018223 0.56098015)
(0 0.024019088 0.54588674)
(0 0.021750856 0.53721022)
(0 0.01971464 0.53147602)
(0 0.017789375 0.52703666)
(0 0.015956565 0.52348188)
(0 0.014219217 0.52062521)
(0 0.012571354 0.51832073)
(0 0.01100504 0.51645782)
(0 0.0095122254 0.51495425)
(0 0.0080841035 0.51374825)
(0 0.0067116064 0.51279318)
(0 0.0053855196 0.51205389)
(0 0.0040965795 0.51150427)
(0 0.0028355508 0.5111256)
(0 0.0015932463 0.51090532)
(0 0.00036052852 0.51083637)
(0 -0.00087169667 0.51091673)
(0 -0.0021125509 0.51114936)
(0 -0.0033711392 0.51154236)
(0 -0.0046566276 0.5121094)
(0 -0.0059782125 0.5128706)
(0 -0.0073450934 0.51385374)
(0 -0.0087663967 0.51509614)
(0 -0.01025114 0.51664743)
(0 -0.01180784 0.51857353)
(0 -0.013444628 0.52096263)
(0 -0.015169339 0.52393205)
(0 -0.016983128 0.52763232)
(0 -0.01889762 0.53234316)
(0 -0.020976648 0.5391579)
(0 -0.023546213 0.55089318)
(0 -0.026517913 0.56495856)
(0 -0.025684064 0.54631174)
(0 -0.015302064 0.41862405)
(0 0.00057332686 0.14943128)
(0 -0.001085547 0.13172106)
(0 0.011624847 0.3914292)
(0 0.02519493 0.54230351)
(0 0.028555965 0.57697351)
(0 0.026048823 0.56376049)
(0 0.02325961 0.54840604)
(0 0.021125085 0.53928169)
(0 0.019240102 0.53338131)
(0 0.017446729 0.52885595)
(0 0.015720397 0.52521888)
(0 0.014067314 0.5222814)
(0 0.0124844 0.51990106)
(0 0.010966633 0.51796858)
(0 0.009508579 0.5164025)
(0 0.0081038463 0.51514164)
(0 0.0067455563 0.51413973)
(0 0.0054264455 0.51336186)
(0 0.0041389981 0.51278207)
(0 0.0028755569 0.51238165)
(0 0.0016283843 0.5121481)
(0 0.0003897065 0.51207432)
(0 -0.00084824357 0.5121583)
(0 -0.0020932518 0.51240299)
(0 -0.0033530354 0.51281646)
(0 -0.0046352717 0.51341238)
(0 -0.0059475201 0.51421074)
(0 -0.0072971566 0.5152392)
(0 -0.0086912488 0.51653481)
(0 -0.010136494 0.51814674)
(0 -0.011638862 0.52014032)
(0 -0.013203559 0.52260279)
(0 -0.014835242 0.52564911)
(0 -0.016531834 0.52942918)
(0 -0.018305301 0.53426612)
(0 -0.020239724 0.54140903)
(0 -0.022621661 0.55345629)
(0 -0.025080081 0.56562485)
(0 -0.023377054 0.54023144)
(0 -0.012788948 0.40601695)
(0 0.00075847013 0.14299554)
(0 -0.00094370791 0.12739843)
(0 0.0097208909 0.37926108)
(0 0.022898692 0.53437276)
(0 0.026978726 0.57629383)
(0 0.025115599 0.56613306)
(0 0.022527401 0.55075912)
(0 0.020500304 0.54121919)
(0 0.018742229 0.53515465)
(0 0.017065725 0.5305609)
(0 0.015437473 0.5268626)
(0 0.01386465 0.52386322)
(0 0.012346028 0.52142344)
(0 0.010878652 0.51943551)
(0 0.0094590088 0.51781882)
(0 0.0080825944 0.51651291)
(0 0.0067443226 0.51547208)
(0 0.0054385913 0.51466182)
(0 0.0041594249 0.51405643)
(0 0.0029005964 0.51363741)
(0 0.0016557133 0.51339232)
(0 0.00041828712 0.51331414)
(0 -0.00081818837 0.51340085)
(0 -0.0020602298 0.51365537)
(0 -0.0033142485 0.51408568)
(0 -0.0045865435 0.51470531)
(0 -0.0058831929 0.51553405)
(0 -0.0072099683 0.5165992)
(0 -0.0085721867 0.51793737)
(0 -0.00997464 0.51959709)
(0 -0.011421301 0.52164291)
(0 -0.01291519 0.52416086)
(0 -0.014458686 0.5272635)
(0 -0.01604794 0.53110294)
(0 -0.017697785 0.53605499)
(0 -0.019510385 0.54350124)
(0 -0.021716324 0.55567731)
(0 -0.023686085 0.56562946)
(0 -0.021286052 0.53382087)
(0 -0.010736699 0.39440036)
(0 0.00080424064 0.13773908)
(0 -0.00077510701 0.12377153)
(0 0.0082550993 0.36821157)
(0 0.020874557 0.5263999)
(0 0.025499715 0.57501974)
(0 0.024227358 0.56812745)
(0 0.021833629 0.55296296)
(0 0.019893679 0.54304738)
(0 0.018239805 0.53681581)
(0 0.016664833 0.53216401)
(0 0.015125175 0.52842034)
(0 0.013627034 0.52537414)
(0 0.012170222 0.52288845)
(0 0.010753178 0.52085698)
(0 0.0093737216 0.51919996)
(0 0.0080287682 0.51785766)
(0 0.0067146534 0.516785)
(0 0.0054271499 0.51594796)
(0 0.0041616024 0.5153212)
(0 0.0029130457 0.51488646)
(0 0.0016762997 0.51463147)
(0 0.00044605269 0.51454929)
(0 -0.00078303928 0.51463789)
(0 -0.0020163227 0.51490016)
(0 -0.0032590163 0.51534395)
(0 -0.0045161795 0.51598256)
(0 -0.0057925879 0.51683549)
(0 -0.0070926425 0.51792962)
(0 -0.0084202165 0.51930096)
(0 -0.0097785922 0.52099737)
(0 -0.011170242 0.52308251)
(0 -0.012596632 0.52564119)
(0 -0.014058621 0.52878384)
(0 -0.01555189 0.5326683)
(0 -0.017095861 0.53773006)
(0 -0.018806892 0.545451)
(0 -0.020847775 0.55757864)
(0 -0.022362504 0.56507728)
(0 -0.019416182 0.52724197)
(0 -0.0090825543 0.38373375)
(0 0.00076714365 0.13338946)
(0 -0.00060773019 0.12065012)
(0 0.0071282827 0.35817177)
(0 0.019094514 0.51849704)
(0 0.024124814 0.57326023)
(0 0.023386579 0.56977301)
(0 0.021182769 0.55503048)
(0 0.019315318 0.54478673)
(0 0.017745552 0.53838313)
(0 0.016257497 0.53367788)
(0 0.014796776 0.52990021)
(0 0.013367003 0.52681893)
(0 0.011968424 0.52429818)
(0 0.010600354 0.52223298)
(0 0.0092614742 0.52054429)
(0 0.007949725 0.51917303)
(0 0.0066625347 0.51807474)
(0 0.0053967845 0.51721589)
(0 0.0041489241 0.51657153)
(0 0.002915074 0.51612368)
(0 0.0016911212 0.51586027)
(0 0.00047280411 0.51577445)
(0 -0.00074417738 0.5158642)
(0 -0.001964119 0.51613233)
(0 -0.0031911775 0.51658657)
(0 -0.0044293265 0.51723994)
(0 -0.0056822255 0.5181116)
(0 -0.0069531347 0.51922795)
(0 -0.0082447723 0.52062443)
(0 -0.0095592663 0.52234817)
(0 -0.010898017 0.52446203)
(0 -0.012261446 0.52704962)
(0 -0.013649519 0.53021985)
(0 -0.015058559 0.53414016)
(0 -0.016513563 0.53930983)
(0 -0.018140051 0.54727267)
(0 -0.020025752 0.5591847)
(0 -0.021123822 0.56406301)
(0 -0.017758213 0.52061536)
(0 -0.0077618057 0.37395417)
(0 0.00068558993 0.12973135)
(0 -0.0004564982 0.11789893)
(0 0.0062578586 0.34903216)
(0 0.017528434 0.51074064)
(0 0.022852144 0.57110659)
(0 0.022591914 0.57109773)
(0 0.020575012 0.5569711)
(0 0.01877028 0.54645337)
(0 0.017267599 0.53987276)
(0 0.015853171 0.5351144)
(0 0.014462125 0.53131039)
(0 0.013094252 0.52820291)
(0 0.011749777 0.52565559)
(0 0.010428502 0.52356458)
(0 0.0091296077 0.52185136)
(0 0.0078517441 0.52045742)
(0 0.0065931518 0.51933879)
(0 0.0053515834 0.51846243)
(0 0.0041243924 0.51780377)
(0 0.0029086142 0.51734511)
(0 0.0017010539 0.51707459)
(0 0.00049836625 0.51698544)
(0 -0.00070283266 0.51707567)
(0 -0.0019059166 0.51734802)
(0 -0.0031141193 0.51781003)
(0 -0.0043304839 0.51847449)
(0 -0.0055577366 0.51936018)
(0 -0.0067982126 0.52049302)
(0 -0.008053733 0.5219079)
(0 -0.0093255782 0.52365129)
(0 -0.010614427 0.52578535)
(0 -0.011920066 0.52839264)
(0 -0.013242054 0.53158141)
(0 -0.014578264 0.53553258)
(0 -0.015959629 0.54081033)
(0 -0.017515207 0.54897836)
(0 -0.019254284 0.56052015)
(0 -0.019975506 0.56266935)
(0 -0.016294887 0.51402852)
(0 -0.0067132436 0.36498811)
(0 0.00058475704 0.12659819)
(0 -0.00032787639 0.11542369)
(0 0.0055780909 0.34068884)
(0 0.016147381 0.50318078)
(0 0.021675435 0.56863452)
(0 0.021839996 0.57212769)
(0 0.020007973 0.55879145)
(0 0.018260147 0.54805951)
(0 0.016810697 0.54129847)
(0 0.015458219 0.53648437)
(0 0.014128318 0.53265864)
(0 0.0128161 0.52953147)
(0 0.011521428 0.52696414)
(0 0.010244304 0.52485355)
(0 0.00898415 0.5231216)
(0 0.0077400754 0.52171011)
(0 0.0065109039 0.52057558)
(0 0.0052950557 0.51968536)
(0 0.0040906085 0.51901523)
(0 0.0028953527 0.51854776)
(0 0.0017068679 0.51827126)
(0 0.00052259165 0.51817907)
(0 -0.00066007238 0.51826922)
(0 -0.0018437062 0.51854436)
(0 -0.0030307579 0.51901187)
(0 -0.0042234911 0.51968428)
(0 -0.0054238692 0.52058002)
(0 -0.0066334962 0.52172459)
(0 -0.0078535195 0.52315236)
(0 -0.0090846253 0.52490926)
(0 -0.010327051 0.52705687)
(0 -0.011580257 0.52967692)
(0 -0.01284377 0.53287805)
(0 -0.014117701 0.5368583)
(0 -0.015438766 0.54224496)
(0 -0.016933846 0.550578)
(0 -0.018533487 0.56160872)
(0 -0.018916856 0.56096677)
(0 -0.015005377 0.50754288)
(0 -0.0058822688 0.35675889)
(0 0.00048038796 0.12386326)
(0 -0.00022319681 0.11315999)
(0 0.0050384975 0.33304682)
(0 0.014925262 0.49584829)
(0 0.020586446 0.56590645)
(0 0.021126692 0.57288677)
(0 0.019477931 0.560496)
(0 0.017784253 0.54961396)
(0 0.016377189 0.54267162)
(0 0.015076676 0.53779727)
(0 0.013800284 0.53395209)
(0 0.012537929 0.53080984)
(0 0.011288841 0.52822741)
(0 0.010053021 0.52610209)
(0 0.0088299557 0.52435597)
(0 0.0076190244 0.52293112)
(0 0.0064194518 0.52178433)
(0 0.0052301565 0.52088329)
(0 0.0040497834 0.52020407)
(0 0.0028767344 0.51972947)
(0 0.0017092296 0.51944798)
(0 0.0005453629 0.51935301)
(0 -0.00061679877 0.5194426)
(0 -0.0017791708 0.51971933)
(0 -0.0029435465 0.52019042)
(0 -0.00411155 0.52086818)
(0 -0.005284535 0.52177071)
(0 -0.0064635437 0.52292313)
(0 -0.0076492359 0.52435939)
(0 -0.0088419072 0.52612501)
(0 -0.010041565 0.52828112)
(0 -0.011247574 0.53090889)
(0 -0.012459705 0.53411853)
(0 -0.013680778 0.53812845)
(0 -0.014952745 0.54362445)
(0 -0.016394887 0.55207948)
(0 -0.017861039 0.56247242)
(0 -0.017943363 0.55901424)
(0 -0.013868188 0.50119995)
(0 -0.0052222123 0.34919135)
(0 0.00038168788 0.12143173)
(0 -0.00014093075 0.11106441)
(0 0.0046014233 0.32602143)
(0 0.0138394 0.48876047)
(0 0.019576511 0.56297388)
(0 0.020447882 0.57339676)
(0 0.018980682 0.56208763)
(0 0.017340617 0.55112267)
(0 0.015967783 0.54400139)
(0 0.014710874 0.53906131)
(0 0.013481297 0.53519711)
(0 0.012263577 0.53204288)
(0 0.011056096 0.52944894)
(0 0.0098587129 0.52731255)
(0 0.0086708605 0.52555583)
(0 0.0074920584 0.52412094)
(0 0.0063217886 0.52296485)
(0 0.0051593307 0.52205548)
(0 0.0040037648 0.52136914)
(0 0.0028539777 0.52088882)
(0 0.0017087095 0.52060315)
(0 0.00056659337 0.52050563)
(0 -0.00057375463 0.52059427)
(0 -0.0017136999 0.52087161)
(0 -0.0028545015 0.52134473)
(0 -0.0039972694 0.52202571)
(0 -0.0051428819 0.5229324)
(0 -0.0062919618 0.5240896)
(0 -0.0074448333 0.52553093)
(0 -0.0086015581 0.52730162)
(0 -0.0097620657 0.52946253)
(0 -0.010925791 0.53209453)
(0 -0.01209295 0.53531072)
(0 -0.013269344 0.53935248)
(0 -0.014501322 0.54495713)
(0 -0.015895696 0.55348889)
(0 -0.017233276 0.56313122)
(0 -0.017048456 0.55686065)
(0 -0.012862881 0.49502637)
(0 -0.0046945295 0.34221476)
(0 0.00029348615 0.11923379)
(0 -7.816881e-05 0.10910793)
(0 0.0042394535 0.31953856)
(0 0.012870516 0.48192515)
(0 0.01863742 0.55987948)
(0 0.019799869 0.57367757)
(0 0.018512065 0.56356821)
(0 0.016926599 0.55258937)
(0 0.015582144 0.54529495)
(0 0.014361947 0.54028339)
(0 0.013173398 0.53639928)
(0 0.011995687 0.53323498)
(0 0.010826163 0.5306321)
(0 0.0096644398 0.52848735)
(0 0.0085098375 0.52672276)
(0 0.0073619193 0.52528042)
(0 0.006220319 0.52411736)
(0 0.0050845681 0.52320167)
(0 0.003954072 0.52250981)
(0 0.0028280947 0.52202495)
(0 0.0017057903 0.52173579)
(0 0.00058622778 0.5216359)
(0 -0.00053153299 0.52172331)
(0 -0.0016484122 0.52200048)
(0 -0.0027652404 0.52247437)
(0 -0.0038827238 0.5231569)
(0 -0.0050013799 0.52406568)
(0 -0.0061215295 0.52522528)
(0 -0.0072432801 0.52666909)
(0 -0.0083665769 0.52844217)
(0 -0.0094913762 0.53060524)
(0 -0.010617294 0.53323925)
(0 -0.011745143 0.53646146)
(0 -0.012883798 0.54053815)
(0 -0.014082962 0.54624914)
(0 -0.015432821 0.55481082)
(0 -0.016645964 0.56360302)
(0 -0.01622471 0.55454626)
(0 -0.011970974 0.48903802)
(0 -0.0042682859 0.33576437)
(0 0.00021776587 0.11721881)
(0 -3.1544601e-05 0.1072709)
(0 0.0039330215 0.31353402)
(0 0.012002423 0.47534379)
(0 0.017761832 0.55665882)
(0 0.01917954 0.57374754)
(0 0.018068261 0.56493903)
(0 0.016539333 0.55401602)
(0 0.015219305 0.5465578)
(0 0.014030219 0.54146928)
(0 0.012877741 0.53756343)
(0 0.011735996 0.53439005)
(0 0.010601134 0.53178)
(0 0.0094724582 0.52962885)
(0 0.0083491438 0.52785843)
(0 0.0072307359 0.52641061)
(0 0.0061169421 0.52524242)
(0 0.0050074616 0.524322)
(0 0.003901936 0.52362592)
(0 0.0027999164 0.52313744)
(0 0.0017008794 0.52284536)
(0 0.00060423907 0.52274329)
(0 -0.00049059254 0.52282925)
(0 -0.0015841828 0.52310564)
(0 -0.002677026 0.52357934)
(0 -0.0037695192 0.5242621)
(0 -0.0048619139 0.5251714)
(0 -0.005954323 0.52633162)
(0 -0.0070467283 0.52777601)
(0 -0.0081390431 0.52954959)
(0 -0.0092313164 0.53171308)
(0 -0.01032342 0.53434783)
(0 -0.011416868 0.53757659)
(0 -0.012523563 0.54169171)
(0 -0.013695378 0.54750482)
(0 -0.015002494 0.5560487)
(0 -0.016094807 0.56390381)
(0 -0.015464652 0.55210424)
(0 -0.011176285 0.48324304)
(0 -0.0039192473 0.32978207)
(0 0.00015473177 0.11535044)
(0 2.2239019e-06 0.10553972)
(0 0.0036683678 0.30795261)
(0 0.011221606 0.46901359)
(0 0.016943414 0.55334176)
(0 0.018584382 0.57362366)
(0 0.017645933 0.56620118)
(0 0.016175992 0.55540338)
(0 0.014877958 0.54779404)
(0 0.013715477 0.54262377)
(0 0.012594852 0.53869369)
(0 0.011485566 0.53551153)
(0 0.010382429 0.53289545)
(0 0.0092843844 0.5307393)
(0 0.0081904552 0.52896451)
(0 0.0071001283 0.52751272)
(0 0.0060131308 0.52634079)
(0 0.0049292656 0.52541688)
(0 0.0038483399 0.52471759)
(0 0.0027701166 0.52422627)
(0 0.0016943185 0.52393174)
(0 0.00062062684 0.52382764)
(0 -0.00045127271 0.523912)
(0 -0.0015216741 0.52418717)
(0 -0.0025908145 0.52465993)
(0 -0.0036588605 0.52534196)
(0 -0.0047258745 0.52625061)
(0 -0.0057918355 0.52741015)
(0 -0.0068566672 0.52885379)
(0 -0.0079203087 0.5306266)
(0 -0.0089829392 0.53278943)
(0 -0.010044733 0.53542442)
(0 -0.011107982 0.53866102)
(0 -0.012187448 0.54281807)
(0 -0.013335918 0.54872708)
(0 -0.014600977 0.5572051)
(0 -0.015575766 0.5640479)
(0 -0.01476125 0.54956194)
(0 -0.010464947 0.47764412)
(0 -0.0036288092 0.32421636)
(0 0.00010355356 0.11360279)
(0 2.6056109e-05 0.10390444)
(0 0.0034359009 0.30274699)
(0 0.010516784 0.46292893)
(0 0.016176802 0.54995349)
(0 0.018012428 0.57332177)
(0 0.017242258 0.56735581)
(0 0.015833937 0.55675135)
(0 0.014556643 0.54900663)
(0 0.013417181 0.54375076)
(0 0.012324829 0.5397936)
(0 0.011244968 0.53660245)
(0 0.010170955 0.53398101)
(0 0.0091013345 0.53182077)
(0 0.0080349817 0.53004268)
(0 0.0069713021 0.52858799)
(0 0.0059100061 0.52741339)
(0 0.004850952 0.52648694)
(0 0.0037940571 0.52578524)
(0 0.0027392363 0.52529166)
(0 0.0016863945 0.52499507)
(0 0.00063541467 0.52488909)
(0 -0.00041380994 0.52497176)
(0 -0.0014613668 0.52524538)
(0 -0.0025073022 0.52571669)
(0 -0.0035516164 0.52639729)
(0 -0.0045942445 0.52730445)
(0 -0.0056350876 0.52846242)
(0 -0.0066740598 0.52990444)
(0 -0.0077111634 0.53167569)
(0 -0.0087467252 0.5338373)
(0 -0.0097812467 0.53647257)
(0 -0.010817854 0.53971881)
(0 -0.011873912 0.543921)
(0 -0.013001833 0.54991766)
(0 -0.014224762 0.55828199)
(0 -0.015085222 0.56404817)
(0 -0.014108167 0.54694203)
(0 -0.0098252471 0.47224026)
(0 -0.0033829297 0.31902207)
(0 6.2872395e-05 0.11195737)
(0 4.2400968e-05 0.10235731)
(0 0.0032289419 0.29787661)
(0 0.0098785038 0.45708245)
(0 0.015457478 0.54651536)
(0 0.017462154 0.57285676)
(0 0.016854915 0.56840426)
(0 0.015510787 0.55805927)
(0 0.014253867 0.55019764)
(0 0.013134601 0.54485348)
(0 0.012067482 0.54086618)
(0 0.011014423 0.53766542)
(0 0.0099672378 0.53503895)