/*--------------------------------*- C++ -*----------------------------------*\
  =========                 |
  \\      /  F ield         | OpenFOAM: The Open Source CFD Toolbox
   \\    /   O peration     | Website:  https://openfoam.org
    \\  /    A nd           | Version:  10
     \\/     M anipulation  |
\*---------------------------------------------------------------------------*/
FoamFile
{
    format      ascii;
    class       surfaceScalarField;
    location    "0.01";
    object      phi;
}
// * * * * * * * * * * * * * * * * * * * * * * * * * * * * * * * * * * * * * //

dimensions      [1 0 -1 0 0 0 0];

internalField   nonuniform List<scalar> 
7860
(
3.7037789e-08
5.3168697e-07
1.1367779e-08
5.9436195e-07
6.8713557e-09
5.7320479e-07
4.8535185e-09
5.7072558e-07
3.5706996e-09
5.6999051e-07
2.7767086e-09
5.6950166e-07
2.2287675e-09
5.692556e-07
1.8243003e-09
5.6911211e-07
1.5138808e-09
5.6901805e-07
1.2672055e-09
5.689543e-07
1.0651551e-09
5.6890967e-07
8.9527123e-10
5.688775e-07
7.4908366e-10
5.6885379e-07
6.2062979e-10
5.6883606e-07
5.0557707e-10
5.6882265e-07
4.0067705e-10
5.688125e-07
3.0341506e-10
5.6880486e-07
2.1178071e-10
5.6879923e-07
1.240869e-10
5.6879529e-07
3.881799e-11
5.6879286e-07
-4.5321346e-11
5.6879173e-07
-1.296391e-10
5.6879191e-07
-2.1547867e-10
5.6879343e-07
-3.043009e-10
5.6879642e-07
-3.977722e-10
5.6880107e-07
-4.9790375e-10
5.6880773e-07
-6.072252e-10
5.6881692e-07
-7.290568e-10
5.6882944e-07
-8.679261e-10
5.6884648e-07
-1.0302079e-09
5.6886989e-07
-1.2252528e-09
5.6890266e-07
-1.4674473e-09
5.6894982e-07
-1.7797161e-09
5.690199e-07
-2.2000574e-09
5.6912799e-07
-2.8057338e-09
5.6931333e-07
-3.7780637e-09
5.6968e-07
-5.3393857e-09
5.7026902e-07
-8.6647072e-09
5.7203304e-07
-2.7064452e-08
5.871075e-07
5.4164347e-07
5.4603569e-08
4.771547e-07
3.257608e-08
6.1627806e-07
1.9861941e-08
5.859112e-07
1.4020273e-08
5.7656898e-07
1.053647e-08
5.7347426e-07
8.2367592e-09
5.7180124e-07
6.6097476e-09
5.7088249e-07
5.4063993e-09
5.7031534e-07
4.4796982e-09
5.6994464e-07
3.740331e-09
5.6969355e-07
3.1326859e-09
5.695172e-07
2.6203187e-09
5.6938975e-07
2.1783674e-09
5.6929563e-07
1.7892847e-09
5.6922502e-07
1.4402767e-09
5.6917154e-07
1.1217142e-09
5.6913094e-07
8.261084e-10
5.6910035e-07
5.4742884e-10
5.6907779e-07
2.8063112e-10
5.6906197e-07
2.1293361e-11
5.6905208e-07
-2.3465462e-10
5.6904756e-07
-4.911263e-10
5.6904826e-07
-7.5216096e-10
5.6905435e-07
-1.0221303e-09
5.6906627e-07
-1.30604e-09
5.6908486e-07
-1.6098903e-09
5.6911146e-07
-1.9412013e-09
5.6914812e-07
-2.3098002e-09
5.6919792e-07
-2.7290202e-09
5.6926558e-07
-3.2175978e-09
5.6935836e-07
-3.8027656e-09
5.6948772e-07
-4.5264666e-09
5.6967341e-07
-5.455781e-09
5.699491e-07
-6.7022407e-09
5.7037433e-07
-8.4563717e-09
5.7106735e-07
-1.1109087e-08
5.723326e-07
-1.5536402e-08
5.7469622e-07
-2.4562011e-08
5.8105854e-07
-4.0853535e-08
6.0339891e-07
5.0078982e-07
5.0875664e-08
4.2694827e-07
4.2257456e-08
6.2480553e-07
2.8404188e-08
5.9969828e-07
2.1210631e-08
5.8375893e-07
1.6595594e-08
5.7808953e-07
1.3270841e-08
5.7512595e-07
1.0808689e-08
5.7334459e-07
8.9328978e-09
5.7219109e-07
7.4553532e-09
5.7142213e-07
6.2567816e-09
5.7089207e-07
5.2591712e-09
5.7051476e-07
4.4095014e-09
5.7023937e-07
3.6707026e-09
5.7003438e-07
3.0160849e-09
5.6987959e-07
2.4258575e-09
5.6976172e-07
1.8849082e-09
5.6967184e-07
1.3813375e-09
5.6960386e-07
9.0545694e-10
5.6955362e-07
4.490899e-10
5.6951828e-07
5.0247573e-12
5.6949609e-07
-4.333698e-10
5.694859e-07
-8.7256032e-10
5.694874e-07
-1.3191511e-09
5.6950089e-07
-1.7802645e-09
5.6952733e-07
-2.2639868e-09
5.6956853e-07
-2.7799203e-09
5.6962734e-07
-3.3399478e-09
5.6970809e-07
-3.9593737e-09
5.6981729e-07
-4.6585459e-09
5.699647e-07
-5.4655176e-09
5.7016528e-07
-6.4198294e-09
5.7044198e-07
-7.5804371e-09
5.7083396e-07
-9.0364519e-09
5.7140507e-07
-1.0928751e-08
5.7226658e-07
-1.3467435e-08
5.7360598e-07
-1.6967743e-08
5.7583286e-07
-2.2265011e-08
5.7999343e-07
-3.176011e-08
5.9055358e-07
-3.8652631e-08
6.1029137e-07
4.6213714e-07
4.0716396e-08
3.8855512e-07
4.3526955e-08
6.2227493e-07
3.2872054e-08
6.1014109e-07
2.6228545e-08
5.9036623e-07
2.1586571e-08
5.8273195e-07
1.791501e-08
5.7879795e-07
1.5016319e-08
5.7624333e-07
1.2695828e-08
5.7451161e-07
1.0799235e-08
5.7331876e-07
9.2179386e-09
5.724734e-07
7.8734316e-09
5.7185929e-07
6.7087097e-09
5.7140412e-07
5.6819395e-09
5.7106117e-07
4.7618272e-09
5.7079973e-07
3.9244554e-09
5.7059912e-07
3.1511071e-09
5.7044521e-07
2.4267455e-09
5.7032825e-07
1.7389227e-09
5.7024146e-07
1.076988e-09
5.7018024e-07
4.314884e-10
5.7014161e-07
-2.0638636e-10
5.701238e-07
-8.4518579e-10
5.7012622e-07
-1.4936313e-09
5.7014935e-07
-2.1610685e-09
5.7019479e-07
-2.8579854e-09
5.7026547e-07
-3.5966368e-09
5.7036601e-07
-4.3918869e-09
5.7050336e-07
-5.262413e-09
5.7068784e-07
-6.2322793e-09
5.7093458e-07
-7.3334055e-09
5.7126642e-07
-8.6085616e-09
5.7171715e-07
-1.0117179e-08
5.723426e-07
-1.1940309e-08
5.7322821e-07
-1.4191754e-08
5.7451804e-07
-1.7020819e-08
5.7643506e-07
-2.0562119e-08
5.7937417e-07
-2.5316781e-08
5.8474811e-07
-3.2236712e-08
5.9747353e-07
-3.0483379e-08
6.0853805e-07
4.3165374e-07
2.9131102e-08
3.6375148e-07
3.9398099e-08
6.1283118e-07
3.4124419e-08
6.1501254e-07
2.9178861e-08
5.9521624e-07
2.5212963e-08
5.8669767e-07
2.1793793e-08
5.822185e-07
1.8893404e-08
5.7914377e-07
1.6430361e-08
5.7697461e-07
1.4325489e-08
5.754236e-07
1.2508901e-08
5.7428996e-07
1.0921509e-08
5.7344665e-07
9.5158761e-09
5.7280972e-07
8.2543791e-09
5.7232264e-07
7.1071525e-09
5.7194692e-07
6.0503006e-09
5.7165593e-07
5.0644342e-09
5.7143104e-07
4.1335185e-09
5.7125913e-07
3.2439721e-09
5.7113098e-07
2.3839609e-09
5.7104021e-07
1.5428481e-09
5.7098269e-07
7.1064457e-10
5.7095597e-07
-1.223677e-10
5.709592e-07
-9.6606592e-10
5.7099301e-07
-1.8309271e-09
5.7105961e-07
-2.728508e-09
5.7116301e-07
-3.6720527e-09
5.7130952e-07
-4.6771675e-09
5.7150844e-07
-5.7627426e-09
5.7177337e-07
-6.9520118e-09
5.7212381e-07
-8.274005e-09
5.7258837e-07
-9.7649333e-09
5.7320804e-07
-1.1469581e-08
5.740472e-07
-1.3440578e-08
5.7519917e-07
-1.573555e-08
5.7681297e-07
-1.8418671e-08
5.7911814e-07
-2.1499258e-08
5.8245472e-07
-2.4975064e-08
5.8822387e-07
-2.7982591e-08
6.0048102e-07
-2.0326592e-08
6.0088201e-07
4.1132703e-07
1.8480617e-08
3.5073112e-07
3.1829558e-08
6.0067328e-07
3.2110764e-08
6.1421185e-07
2.9538387e-08
5.9764265e-07
2.6712932e-08
5.8952117e-07
2.3975134e-08
5.8495857e-07
2.1440909e-08
5.8167798e-07
1.9143001e-08
5.7927231e-07
1.7080338e-08
5.7748606e-07
1.5229842e-08
5.7614026e-07
1.35622e-08
5.751141e-07
1.2048536e-08
5.7432319e-07
1.0662585e-08
5.737084e-07
9.3814036e-09
5.7322791e-07
8.1852949e-09
5.7285185e-07
7.0573878e-09
5.7255876e-07
5.9831301e-09
5.723332e-07
4.9497884e-09
5.7216413e-07
3.945988e-09
5.7204382e-07
2.9613169e-09
5.7196717e-07
1.9859155e-09
5.7193118e-07
1.0101628e-09
5.7193476e-07
2.4328957e-11
5.7197866e-07
-9.8176799e-10
5.7206552e-07
-2.019114e-09
5.7220016e-07
-3.0998962e-09
5.7239011e-07
-4.2379117e-09
5.7264626e-07
-5.4489638e-09
5.7298423e-07
-6.7512114e-09
5.7342587e-07
-8.1652325e-09
5.740022e-07
-9.7137377e-09
5.7475635e-07
-1.141902e-08
5.7575229e-07
-1.3299139e-08
5.7707909e-07
-1.5354792e-08
5.7886843e-07
-1.7560963e-08
5.8132412e-07
-1.9825812e-08
5.8471938e-07
-2.1659257e-08
5.9005712e-07
-2.0918754e-08
5.9974032e-07
-1.101207e-08
5.9097514e-07
4.0031474e-07
1.088689e-08
3.4530359e-07
2.3490625e-08
5.8939535e-07
2.7466144e-08
6.0974998e-07
2.7160582e-08
5.9779345e-07
2.5676161e-08
5.9100167e-07
2.3848312e-08
5.8678887e-07
2.1918876e-08
5.8360736e-07
2.0019277e-08
5.811716e-07
1.8211938e-08
5.7929311e-07
1.6517297e-08
5.7783461e-07
1.4936866e-08
5.7669424e-07
1.3462952e-08
5.7579681e-07
1.2083848e-08
5.7508721e-07
1.0786645e-08
5.7452483e-07
9.558579e-09
5.7407963e-07
8.3876207e-09
5.7372943e-07
7.2626499e-09
5.7345788e-07
6.1734274e-09
5.7325307e-07
5.1104594e-09
5.7310651e-07
4.0648267e-09
5.7301252e-07
3.027974e-09
5.7296775e-07
1.9915225e-09
5.7297093e-07
9.4707011e-10
5.7302283e-07
-1.1400389e-10
5.7312631e-07
-1.2006955e-09
5.7328658e-07
-2.3225144e-09
5.7351165e-07
-3.4895415e-09
5.7381301e-07
-4.7122433e-09
5.7420666e-07
-6.0011952e-09
5.7471455e-07
-7.3659439e-09
5.7536667e-07
-8.8132808e-09
5.7620341e-07
-1.0342321e-08
5.7728106e-07
-1.193846e-08
5.7867495e-07
-1.3556406e-08
5.804861e-07
-1.5094148e-08
5.8286158e-07
-1.6368664e-08
5.8599361e-07
-1.668521e-08
5.9037339e-07
-1.3684749e-08
5.9673958e-07
-4.740794e-09
5.8203092e-07
3.9557374e-07
6.8464193e-09
3.4340941e-07
1.6711504e-08
5.8089454e-07
2.1894801e-08
6.0422993e-07
2.3071881e-08
5.9649089e-07
2.2757619e-08
5.9131109e-07
2.1821837e-08
5.8772656e-07
2.0562814e-08
5.8486635e-07
1.9164135e-08
5.8257001e-07
1.7727276e-08
5.8072971e-07
1.6305615e-08
5.7925602e-07
1.4925906e-08
5.780737e-07
1.3599238e-08
5.7712323e-07
1.2327883e-08
5.7635832e-07
1.1109287e-08
5.7574318e-07
9.9383656e-09
5.7525031e-07
8.8088189e-09
5.7485874e-07
7.7138647e-09
5.7455259e-07
6.6466211e-09
5.7432007e-07
5.6002834e-09
5.741526e-07
4.5681869e-09
5.7404438e-07
3.5437983e-09
5.739919e-07
2.520687e-09
5.739938e-07
1.4924856e-09
5.7405079e-07
4.5287052e-10
5.7416569e-07
-6.0440833e-10
5.7434362e-07
-1.6853983e-09
5.745924e-07
-2.7957485e-09
5.7492312e-07
-3.939884e-09
5.7535055e-07
-5.1205637e-09
5.7589499e-07
-6.336636e-09
5.7658251e-07
-7.5805714e-09
5.7744711e-07
-8.8326567e-09
5.785329e-07
-1.0053367e-08
5.7989542e-07
-1.1168576e-08
5.8160107e-07
-1.2038019e-08
5.8373078e-07
-1.2435392e-08
5.8639074e-07
-1.1759644e-08
5.8969739e-07
-8.2058095e-09
5.931855e-07
-1.6999479e-09
5.7552483e-07
3.9387366e-07
5.3706352e-09
3.4257257e-07
1.2355948e-08
5.7529624e-07
1.7024865e-08
5.993948e-07
1.8793475e-08
5.9463803e-07
1.9233764e-08
5.9086626e-07
1.8976055e-08
5.8798542e-07
1.8293657e-08
5.8554875e-07
1.7367279e-08
5.8349622e-07
1.630926e-08
5.8178757e-07
1.5189557e-08
5.8037556e-07
1.4050351e-08
5.7921275e-07
1.2915929e-08
5.782575e-07
1.1799371e-08
5.7747472e-07
1.0706742e-08
5.7683565e-07
9.639755e-09
5.7631714e-07
8.5974764e-09
5.7590086e-07
7.5773871e-09
5.7557253e-07
6.5760509e-09
5.7532125e-07
5.5895254e-09
5.7513897e-07
4.6136181e-09
5.7502013e-07
3.6440468e-09
5.7496131e-07
2.6765566e-09
5.7496114e-07
1.7070256e-09
5.7502017e-07
7.3159477e-10
5.7514096e-07
-2.5314144e-10
5.753282e-07
-1.2497976e-09
5.755889e-07
-2.2597187e-09
5.7593289e-07
-3.2824615e-09
5.7637314e-07
-4.3138127e-09
5.7692618e-07
-5.3444841e-09
5.7761302e-07
-6.3568811e-09
5.7845935e-07
-7.3198847e-09
5.7949575e-07
-8.1815375e-09
5.8075692e-07
-8.8591565e-09
5.8227853e-07
-9.2174106e-09
5.8408888e-07
-9.0481351e-09
5.8622131e-07
-7.9599878e-09
5.8860909e-07
-4.9067961e-09
5.9013215e-07
-7.2928092e-10
5.7134718e-07
3.9314429e-07
5.0803354e-09
3.4185475e-07
9.9949792e-09
5.7177931e-07
1.3549673e-08
5.9579587e-07
1.5322373e-08
5.9281376e-07
1.6103707e-08
5.9008127e-07
1.6253672e-08
5.8783601e-07
1.5975969e-08
5.8582644e-07
1.5415878e-08
5.8405621e-07
1.4675139e-08
5.825282e-07
1.3824341e-08
5.8122626e-07
1.2910675e-08
5.8012631e-07
1.1964971e-08
5.792031e-07
1.1006814e-08
5.7843278e-07
1.004813e-08
5.7779423e-07
9.0956869e-09
5.7726948e-07
8.1528151e-09
5.7684363e-07
7.2205778e-09
5.7650466e-07
6.2985681e-09
5.7624315e-07
5.3854537e-09
5.7605199e-07
4.4793583e-09
5.7592612e-07
3.5781402e-09
5.7586243e-07
2.6796189e-09
5.7585956e-07
1.7817877e-09
5.759179e-07
8.8305094e-10
5.760396e-07
-1.7482186e-11
5.7622863e-07
-9.1958471e-10
5.764909e-07
-1.8212491e-09
5.7683445e-07
-2.7178686e-09
5.7726966e-07
-3.6009999e-09
5.7780921e-07
-4.4564198e-09
5.7846834e-07
-5.2615128e-09
5.7926434e-07
-5.9814558e-09
5.8021559e-07
-6.5640355e-09
5.813394e-07
-6.9339807e-09
5.8264837e-07
-6.9843645e-09
5.8413917e-07
-6.5602621e-09
5.8579711e-07
-5.4492099e-09
5.8749793e-07
-3.1908734e-09
5.8787371e-07
-5.9404705e-10
5.6875026e-07
3.9255016e-07
5.0792891e-09
3.4111464e-07
8.7866843e-09
5.6946355e-07
1.1333274e-08
5.9326637e-07
1.286464e-08
5.912497e-07
1.371606e-08
5.8922703e-07
1.4058754e-08
5.8749354e-07
1.4022515e-08
5.8586265e-07
1.3710739e-08
5.8436789e-07
1.3204799e-08
5.8303405e-07
1.2566177e-08
5.8186479e-07
1.183957e-08
5.8085283e-07
1.105677e-08
5.7998581e-07
1.0239883e-08
5.7924957e-07
9.4039168e-09
5.786301e-07
8.5587713e-09
5.7811453e-07
7.7107196e-09
5.7769159e-07
6.8634961e-09
5.7735179e-07
6.01909e-09
5.7708747e-07
5.1783287e-09
5.7689265e-07
4.341314e-09
5.7676304e-07
3.5077656e-09
5.7669588e-07
2.6773126e-09
5.7668991e-07
1.8497698e-09
5.7674535e-07
1.0254365e-09
5.7686384e-07
2.0544968e-10
5.7704852e-07
-6.0777699e-10
5.7730404e-07
-1.4098757e-09
5.7763645e-07
-2.193844e-09
5.7805353e-07
-2.9488023e-09
5.7856408e-07
-3.6586293e-09
5.7917808e-07
-4.2999298e-09
5.7990555e-07
-4.8396878e-09
5.8075526e-07
-5.2326782e-09
5.817323e-07
-5.4185838e-09
5.8283419e-07
-5.321966e-09
5.8404246e-07
-4.8443027e-09
5.8531935e-07
-3.8825146e-09
5.8653606e-07
-2.2934985e-09
5.8628461e-07
-5.9422071e-10
5.670509e-07
3.9195585e-07
5.047448e-09
3.4041961e-07
8.0954393e-09
5.6779235e-07
9.9410678e-09
5.9146007e-07
1.1188274e-08
5.8997862e-07
1.1980174e-08
5.8843287e-07
1.2384986e-08
5.8708881e-07
1.2475091e-08
5.8577247e-07
1.2318585e-08
5.845243e-07
1.1975498e-08
5.8337704e-07
1.1494949e-08
5.8234523e-07
1.0915436e-08
5.8143224e-07
1.026629e-08
5.8063485e-07
9.5693319e-09
5.7994643e-07
8.8404779e-09
5.7935886e-07
8.0911252e-09
5.7886378e-07
7.3292819e-09
5.7845333e-07
6.5604652e-09
5.7812051e-07
5.7884038e-09
5.7785942e-07
5.0155868e-09
5.7766537e-07
4.2436999e-09
5.7753483e-07
3.4739861e-09
5.7746549e-07
2.7075625e-09
5.7745623e-07
1.9457232e-09
5.7750708e-07
1.190257e-09
5.776192e-07
4.4381282e-10
5.7779486e-07
-2.8966733e-10
5.7803741e-07
-1.0044946e-09
5.7835118e-07
-1.6923205e-09
5.7874126e-07
-2.3415375e-09
5.7921319e-07
-2.9361003e-09
5.7977254e-07
-3.4544397e-09
5.8042378e-07
-3.8682099e-09
5.8116893e-07
-4.141196e-09
5.8200518e-07
-4.2289398e-09
5.8292183e-07
-4.0815666e-09
5.8389498e-07
-3.6439544e-09
5.8488164e-07
-2.8699811e-09
5.8576198e-07
-1.7385322e-09
5.8515306e-07
-5.3600313e-10
5.6584828e-07
3.9141975e-07
4.9556918e-09
3.3982196e-07
7.6086172e-09
5.6650229e-07
9.0057399e-09
5.9010891e-07
1.000373e-08
5.8896065e-07
1.0692433e-08
5.8774222e-07
1.1092441e-08
5.8668881e-07
1.1239286e-08
5.8562554e-07
1.1175243e-08
5.8458823e-07
1.0942138e-08
5.8361003e-07
1.0577159e-08
5.827101e-07
1.0111581e-08
5.818977e-07
9.5707304e-09
5.8117559e-07
8.9745663e-09
5.8054248e-07
8.3385013e-09
5.7999481e-07
7.6742495e-09
5.7952792e-07
6.9906065e-09
5.7913686e-07
6.2941254e-09
5.7881688e-07
5.5896864e-09
5.7856375e-07
4.8809706e-09
5.7837397e-07
4.1708585e-09
5.7824483e-07
3.461774e-09
5.7817447e-07
2.7559946e-09
5.781619e-07
2.055951e-09
5.7820701e-07
1.3645332e-09
5.7831051e-07
6.8542484e-10
5.7847386e-07
2.3484251e-11
5.7869924e-07
-6.1479205e-10
5.7898934e-07
-1.2208012e-09
5.7934715e-07
-1.7831939e-09
5.7977547e-07
-2.2872443e-09
5.8027648e-07
-2.7142495e-09
5.8085068e-07
-3.0411167e-09
5.8149568e-07
-3.240363e-09
5.8220432e-07
-3.2810473e-09
5.829624e-07
-3.1318263e-09
5.8374565e-07
-2.7650259e-09
5.8451473e-07
-2.1620792e-09
5.8515893e-07
-1.331013e-09
5.8432188e-07
-4.3723939e-10
5.649544e-07
3.9098241e-07
4.8452383e-09
3.3933087e-07
7.2187735e-09
5.6548223e-07
8.3182495e-09
5.8905882e-07
9.1163268e-09
5.8814475e-07
9.6974773e-09
5.8715929e-07
1.0062646e-08
5.8632363e-07
1.0226778e-08
5.8546131e-07
1.0214819e-08
5.8460008e-07
1.0054721e-08
5.8377002e-07
9.7736034e-09
5.8299111e-07
9.3958846e-09
5.8227531e-07
8.9425085e-09
5.8162885e-07
8.4308668e-09
5.8105401e-07
7.8750726e-09
5.8055049e-07
7.2863948e-09
5.8011649e-07
6.6737387e-09
5.797494e-07
6.0441148e-09
5.7944639e-07
5.4030678e-09
5.7920469e-07
4.7550595e-09
5.7902187e-07
4.1038089e-09
5.7889597e-07
3.4525975e-09
5.7882556e-07
2.8045534e-09
5.7880983e-07
2.162925e-09
5.7884853e-07
1.5313586e-09
5.7894196e-07
9.1418871e-10
5.7909092e-07
3.1675615e-10
5.7929656e-07
-2.5425165e-10
5.7956024e-07
-7.9044259e-10
5.7988323e-07
-1.2813415e-09
5.8026626e-07
-1.7140549e-09
5.8070908e-07
-2.0730249e-09
5.8120954e-07
-2.3402081e-09
5.8176275e-07
-2.4954643e-09
5.8235946e-07
-2.5180232e-09
5.8298485e-07
-2.3891061e-09
5.8361662e-07
-2.0961807e-09
5.8422169e-07
-1.6337613e-09
5.846964e-07
-1.0105575e-09
5.8369857e-07
-3.3785222e-10
5.642816e-07
3.9064446e-07
4.745246e-09
3.389333e-07
6.9003173e-09
5.6467492e-07
7.7835329e-09
5.8822852e-07
8.4231067e-09
5.8748894e-07
8.9059315e-09
5.8667479e-07
9.2250347e-09
5.8600449e-07
9.3847562e-09
5.853015e-07
9.3990731e-09
5.8458565e-07
9.2861066e-09
5.8388287e-07
9.0651091e-09
5.8321199e-07
8.7546122e-09
5.8258569e-07
8.3714194e-09
5.8201193e-07
7.9301849e-09
5.8149513e-07
7.4433519e-09
5.8103721e-07
6.9212978e-09
5.8063843e-07
6.3725864e-09
5.80298e-07
5.8042621e-09
5.800146e-07
5.2221511e-09
5.7978668e-07
4.6311528e-09
5.7961275e-07
4.0355137e-09
5.7949149e-07
3.439084e-09
5.7942188e-07
2.8455627e-09
5.7940324e-07
2.2587346e-09
5.7943524e-07
1.6827074e-09
5.7951787e-07
1.1221511e-09
5.7965136e-07
5.8254492e-10
5.7983606e-07
7.0420749e-11
5.8007225e-07
-4.0637354e-10
5.8035992e-07
-8.3853784e-10
5.8069831e-07
-1.2151309e-09
5.8108556e-07
-1.5236194e-09
5.8151791e-07
-1.750216e-09
5.8198924e-07
-1.8805976e-09
5.8248973e-07
-1.9010713e-09
5.8300521e-07
-1.8011879e-09
5.8351663e-07
-1.5760163e-09
5.8399641e-07
-1.226064e-09
5.8434633e-07
-7.5771675e-10
5.8323011e-07
-2.5522175e-10
5.63779e-07
3.9038914e-07
4.6637339e-09
3.3861177e-07
6.6447179e-09
5.6403787e-07
7.3595696e-09
5.8757004e-07
7.8712706e-09
5.8696233e-07
8.267588e-09
5.8627689e-07
8.5381308e-09
5.857339e-07
8.6818839e-09
5.8515765e-07
8.7060792e-09
5.8456134e-07
8.6221349e-09
5.839667e-07
8.4434376e-09
5.8339058e-07
8.1837718e-09
5.8284525e-07
7.8563309e-09
5.8233926e-07
7.4731706e-09
5.8187818e-07
7.0449699e-09
5.814653e-07
6.5809965e-09
5.8110229e-07
6.0891976e-09
5.8078969e-07
5.5763598e-09
5.8052732e-07
5.0483045e-09
5.8031463e-07
4.5100952e-09
5.8015085e-07
3.9662472e-09
5.8003523e-07
3.420933e-09
5.7996708e-07
2.8781823e-09
5.7994588e-07
2.3420783e-09
5.7997124e-07
1.8169494e-09
5.8004289e-07
1.3075582e-09
5.8016064e-07
8.1928339e-10
5.8032422e-07
3.5828461e-10
5.8053314e-07
-6.8350142e-11
5.8078644e-07
-4.5253509e-10
5.8108239e-07
-7.852019e-10
5.8141811e-07
-1.0564607e-09
5.8178906e-07
-1.2559286e-09
5.8218859e-07
-1.3736072e-09
5.826073e-07
-1.4008808e-09
5.8303238e-07
-1.3322141e-09
5.8344785e-07
-1.1665737e-09
5.8383066e-07
-9.0746807e-10
5.8408712e-07
-5.6020129e-10
5.8288274e-07
-1.9059873e-10
5.6340929e-07
3.9019844e-07
4.598373e-09
3.3835154e-07
6.4414495e-09
5.6353576e-07
7.0217227e-09
5.8704905e-07
7.4286015e-09
5.8654161e-07
7.749647e-09
5.8595432e-07
7.9730185e-09
5.8551047e-07
8.0950459e-09
5.8503552e-07
8.1188652e-09
5.8453741e-07
8.0513963e-09
5.8403406e-07
7.9017652e-09
5.835401e-07
7.6800657e-09
5.8306684e-07
7.3964954e-09
5.8262272e-07
7.0608028e-09
5.8221376e-07
6.6819765e-09
5.8184401e-07
6.2681115e-09
5.8151604e-07
5.8263955e-09
5.8123129e-07
5.3631734e-09
5.8099043e-07
4.8840592e-09
5.8079363e-07
4.3940742e-09
5.8064072e-07
3.8977978e-09
5.8053139e-07
3.3995237e-09
5.8046525e-07
2.9034163e-09
5.8044188e-07
2.4136647e-09
5.8046088e-07
1.9346312e-09
5.8052181e-07
1.4709925e-09
5.8062417e-07
1.0278666e-09
5.8076724e-07
6.1091506e-10
5.8094998e-07
2.2641343e-10
5.8117083e-07
-1.1875157e-10
5.8142744e-07
-4.1715766e-10
5.8171641e-07
-6.6110425e-10
5.820329e-07
-8.4293416e-10
5.8237031e-07
-9.5584188e-10
5.827201e-07
-9.9420988e-10
5.8307063e-07
-9.5588931e-10
5.8340942e-07
-8.4195259e-10
5.8371661e-07
-6.5693877e-10
5.8390199e-07
-4.0598245e-10
5.8263167e-07
-1.3997801e-10
5.6314319e-07
3.9005836e-07
4.545132e-09
3.3814146e-07
6.2787442e-09
5.6314067e-07
6.7507862e-09
5.8663853e-07
7.0711293e-09
5.8620826e-07
7.3271359e-09
5.8569684e-07
7.5065667e-09
5.8533096e-07
7.6045597e-09
5.8493743e-07
7.6218188e-09
5.8452004e-07
7.5622849e-09
5.8409348e-07
7.4320403e-09
5.8367023e-07
7.2383744e-09
5.8326039e-07
6.9890739e-09
5.8287191e-07
6.691923e-09
5.825108e-07
6.3543813e-09
5.8218144e-07
5.9834053e-09
5.8188691e-07
5.5853736e-09
5.8162921e-07
5.1660876e-09
5.8140961e-07
4.7308223e-09
5.8122878e-07
4.2844091e-09
5.8108703e-07
3.8313374e-09
5.8098435e-07
3.3758671e-09
5.8092061e-07
2.9221442e-09
5.8089549e-07
2.4743161e-09
5.8090859e-07
2.0366407e-09
5.8095938e-07
1.6135864e-09
5.8104711e-07
1.209914e-09
5.811708e-07
8.3073223e-10
5.8132905e-07
4.8151555e-10
5.8151994e-07
1.6805809e-10
5.8174079e-07
-1.0363318e-10
5.8198799e-07
-3.2759108e-10
5.8225674e-07
-4.9819931e-10
5.8254081e-07
-6.1060136e-10
5.8283239e-07
-6.6245093e-10
5.8312237e-07
-6.5220079e-10
5.8339906e-07
-5.8279055e-10
5.8364709e-07
-4.5842781e-10
5.8377752e-07
-2.8439916e-10
5.8245754e-07
-9.9601161e-11
5.6295829e-07
3.8995866e-07
4.5010921e-09
3.3797295e-07
6.1468507e-09
5.6283141e-07
6.5314052e-09
5.8631722e-07
6.7800489e-09
5.8594727e-07
6.9801967e-09
5.8549526e-07
7.1197694e-09
5.8519131e-07
7.1935169e-09
5.8486358e-07
7.2007564e-09
5.8451269e-07
7.1434917e-09
5.8415064e-07
7.0256646e-09
5.8378795e-07
6.8524697e-09
5.8343348e-07
6.6297961e-09
5.8309447e-07
6.3638013e-09
5.8277668e-07
6.0606128e-09
5.8248452e-07
5.7261372e-09
5.8222127e-07
5.3659552e-09
5.8198928e-07
4.9852827e-09
5.8179017e-07
4.588979e-09
5.8162498e-07
4.1815876e-09
5.8149431e-07
3.767399e-09
5.8139843e-07
3.3505251e-09
5.8133737e-07
2.9349806e-09
5.8131092e-07
2.5247635e-09
5.813187e-07
2.1239314e-09
5.813601e-07
1.7366662e-09
5.8143427e-07
1.3673222e-09
5.8154003e-07
1.0204471e-09
5.8167582e-07
7.0076733e-10
5.8183951e-07
4.1312035e-10
5.8202832e-07
1.6232887e-10
5.8223867e-07
-4.7018903e-11
5.8246598e-07
-2.1091085e-10
5.827046e-07
-3.2626221e-10
5.8294763e-07
-3.9128535e-10
5.8318729e-07
-4.0642434e-10
5.8341409e-07
-3.744609e-10
5.8361502e-07
-2.9975107e-10
5.837027e-07
-1.8742797e-10
5.8234511e-07
-6.6889845e-11
5.6283765e-07
3.8989168e-07
4.4643542e-09
3.3783913e-07
6.0387275e-09
5.6259185e-07
6.3519941e-09
5.8606854e-07
6.5409934e-09
5.8574643e-07
6.6933356e-09
5.8534152e-07
6.7973628e-09
5.850872e-07
6.8478631e-09
5.8481298e-07
6.8434131e-09
5.8451703e-07
6.7847832e-09
5.8420916e-07
6.6744314e-09
5.8389819e-07
6.5160103e-09
5.8359179e-07
6.313939e-09
5.8329643e-07
6.0730558e-09
5.8301746e-07
5.7983569e-09
5.8275911e-07
5.4948133e-09
5.8252471e-07
5.1672555e-09
5.8231673e-07
4.8203126e-09
5.82137e-07
4.4583924e-09
5.8198679e-07
4.0856926e-09
5.818669e-07
3.7062325e-09
5.8177778e-07
3.323898e-09
5.8171959e-07
2.9424938e-09
5.8169222e-07
2.5657952e-09
5.8169529e-07
2.1975972e-09
5.8172819e-07
1.841752e-09
5.8179e-07
1.5021908e-09
5.8187948e-07
1.1829218e-09
5.8199497e-07
8.8799662e-10
5.8213432e-07
6.2143322e-10
5.8229478e-07
3.8709037e-10
5.8247291e-07
1.8848248e-10
5.8266448e-07
2.8518302e-11
5.8286445e-07
-9.0775797e-11
5.8306682e-07
-1.6866593e-10
5.8326507e-07
-2.06041e-10
5.8345135e-07
-2.0575251e-10
5.8361462e-07
-1.718913e-10
5.8366873e-07
-1.094451e-10
5.8228255e-07
-4.0248175e-11
5.6276835e-07
3.8985133e-07
4.4335549e-09
3.3773442e-07
5.9493347e-09
5.6240951e-07
6.2040095e-09
5.8587955e-07
6.3431713e-09
5.8559586e-07
6.4546518e-09
5.8522868e-07
6.527309e-09
5.8501445e-07
6.5561837e-09
5.84784e-07
6.5395045e-09
5.845336e-07
6.4772777e-09
5.8427127e-07
6.3709458e-09
5.8400441e-07
6.2230385e-09
5.8373958e-07
6.0368503e-09
5.8348251e-07
5.8161651e-09
5.8323803e-07
5.5650356e-09
5.8301013e-07
5.2876191e-09
5.8280201e-07
4.9880629e-09
5.8261618e-07
4.6704339e-09
5.8245452e-07
4.3386823e-09
5.8231843e-07
3.9966313e-09
5.8220884e-07
3.6479873e-09
5.8212632e-07
3.296361e-09
5.8207111e-07
2.9452967e-09
5.8204317e-07
2.5983018e-09
5.8204218e-07
2.2588735e-09
5.8206751e-07
1.9305156e-09
5.8211825e-07
1.6167426e-09
5.8219315e-07
1.3210615e-09
5.8229055e-07
1.0469295e-09
5.8240834e-07
7.9767656e-10
5.8254392e-07
5.7639146e-10
5.8269408e-07
3.8576636e-10
5.82855e-07
2.2789905e-10
5.8302221e-07
1.0402349e-10
5.8319058e-07
1.4385733e-11
5.833546e-07
-4.2260233e-11
5.8350789e-07
-6.8504259e-11
5.8364076e-07
-6.8223636e-11
5.8366834e-07
-4.6371183e-11
5.8226059e-07
-1.8427673e-11
5.6274031e-07
3.8983281e-07
4.407632e-09
3.3765423e-07
5.874928e-09
5.6227452e-07
6.081072e-09
5.8573996e-07
6.1784079e-09
5.8548744e-07
6.2549607e-09
5.8515078e-07
6.3001112e-09
5.8496921e-07
6.3092489e-09
5.8477476e-07
6.2804898e-09
5.8456225e-07
6.2133854e-09
5.8433827e-07
6.1086933e-09
5.8410899e-07
5.9681325e-09
5.8388004e-07
5.794145e-09
5.8365639e-07
5.5896802e-09
5.8344239e-07
5.3580145e-09
5.8324169e-07
5.1026089e-09
5.8305731e-07
4.8270025e-09
5.8289167e-07
4.5347403e-09
5.8274668e-07
4.2293278e-09
5.8262373e-07
3.9142077e-09
5.8252385e-07
3.5927541e-09
5.8244766e-07
3.2682764e-09
5.8239548e-07
2.9440309e-09
5.8236731e-07
2.6232332e-09
5.8236286e-07
2.3090675e-09
5.8238156e-07
2.0046894e-09
5.8242252e-07
1.7132162e-09
5.8248451e-07
1.4377005e-09
5.8256595e-07
1.1810843e-09
5.8266485e-07
9.461261e-10
5.8277877e-07
7.3530195e-10
5.829048e-07
5.5067566e-10
5.8303952e-07
3.9374868e-10
5.8317903e-07
2.6525991e-10
5.8331897e-07
1.6510208e-10
5.8345465e-07
9.1966381e-11
5.8358092e-07
4.3501662e-11
5.8368911e-07
1.6148934e-11
5.8369559e-07
5.0340372e-12
5.822716e-07
-8.5975291e-14
5.6274533e-07
3.8983262e-07
4.385732e-09
3.3759476e-07
5.8126397e-09
5.6217896e-07
5.9783194e-09
5.8564157e-07
6.040406e-09
5.8541456e-07
6.0870788e-09
5.8510278e-07
6.1082074e-09
5.8494799e-07
6.0995579e-09
5.8478331e-07
6.0592709e-09
5.8460243e-07
5.986645e-09
5.8441078e-07
5.8819841e-09
5.8421355e-07
5.7464274e-09
5.8401548e-07
5.5817742e-09
5.8382093e-07
5.3903186e-09
5.8363373e-07
5.1747039e-09
5.8345719e-07
4.9378024e-09
5.832941e-07
4.6826205e-09
5.8314675e-07
4.4122289e-09
5.8301696e-07
4.1297142e-09
5.8290614e-07
3.8381475e-09
5.8281531e-07
3.5405682e-09
5.8274513e-07
3.2399756e-09
5.8269596e-07
2.9393278e-09
5.8266785e-07
2.6415404e-09
5.8266054e-07
2.3494851e-09
5.8267351e-07
2.0659805e-09
5.8270592e-07
1.7937749e-09
5.8275661e-07
1.5355156e-09
5.828241e-07
1.2937021e-09
5.8290656e-07
1.0706217e-09
5.8300174e-07
8.6826437e-10
5.8310705e-07
6.8821871e-10
5.8321945e-07
5.3155666e-10
5.8333558e-07
3.9869427e-10
5.8345172e-07
2.8930392e-10
5.8356393e-07
2.0213933e-10
5.8366798e-07
1.350684e-10
5.8375608e-07
8.494175e-11
5.8374561e-07
4.7274447e-11
5.8230916e-07
1.5632143e-11
5.6277687e-07
3.8984816e-07
4.3671628e-09
3.3755288e-07
5.7602317e-09
5.6211644e-07
5.8919816e-09
5.8557771e-07
5.924245e-09
5.8537173e-07
5.9453225e-09
5.8508039e-07
5.9455223e-09
5.8494769e-07
5.9209797e-09
5.8480775e-07
5.8699342e-09
5.8465337e-07
5.7915625e-09
5.8448905e-07
5.6858749e-09
5.8431912e-07
5.5535992e-09
5.8414765e-07
5.3960531e-09
5.8397837e-07
5.2150183e-09
5.8381466e-07
5.0126252e-09
5.8365948e-07
4.7912527e-09
5.8351537e-07
4.5534458e-09
5.8338445e-07
4.3018515e-09
5.8326845e-07
4.0391698e-09
5.8316871e-07
3.7681195e-09
5.8308625e-07
3.4914146e-09
5.8302173e-07
3.2117482e-09
5.8297552e-07
2.9317819e-09
5.8294771e-07
2.6541362e-09
5.8293808e-07
2.3813796e-09
5.8294616e-07
2.1160133e-09
5.8297117e-07
1.8604488e-09
5.8301207e-07
1.6169754e-09
5.8306747e-07
1.3877161e-09
5.8313571e-07
1.1745709e-09
5.8321478e-07
9.7914555e-10
5.8330236e-07
8.0266986e-10
5.8339582e-07
6.4590787e-10
5.8349224e-07
5.0906147e-10
5.8358846e-07
3.9169577e-10
5.8368119e-07
2.9265129e-10
5.8376691e-07
2.1003141e-10
5.8383859e-07
1.4112496e-10
5.8381441e-07
8.2150666e-11
5.8236803e-07
2.9279408e-11
5.6282964e-07
3.8987734e-07
4.3513626e-09
3.3752596e-07
5.7159361e-09
5.6208174e-07
5.8190949e-09
5.8554294e-07
5.8260355e-09
5.8535442e-07
5.8251533e-09
5.8507997e-07
5.8071419e-09
5.849656e-07
5.7684805e-09
5.8484631e-07
5.7075451e-09
5.8471419e-07
5.6234726e-09
5.8457301e-07
5.5160898e-09
5.844264e-07
5.3858354e-09
5.842778e-07
5.2336675e-09
5.8413043e-07
5.060969e-09
5.8398725e-07
4.869456e-09
5.8385088e-07
4.6610962e-09
5.8372362e-07
4.4380389e-09
5.836074e-07
4.2025566e-09
5.8350382e-07
3.9569989e-09
5.8341416e-07
3.7037573e-09
5.8333938e-07
3.4452375e-09
5.8328014e-07
3.183839e-09
5.8323681e-07
2.9219377e-09
5.832095e-07
2.6618711e-09
5.8319804e-07
2.4059214e-09
5.83202e-07
2.1562961e-09
5.8322069e-07
1.9151029e-09
5.8325315e-07
1.684318e-09
5.8329815e-07
1.4657453e-09
5.8335417e-07
1.260967e-09
5.8341945e-07
1.0712859e-09
5.8349194e-07
8.9765981e-10
5.8356934e-07
7.4063398e-10
5.8364915e-07
6.0027238e-10
5.8372871e-07
4.7610275e-10
5.8380525e-07
3.6706669e-10
5.8387584e-07
2.7150843e-10
5.8393404e-07
1.8713427e-10
5.8389867e-07
1.108924e-10
5.8244417e-07
4.0823645e-11
5.6289961e-07
3.8991807e-07
4.3378748e-09
3.3751183e-07
5.6783432e-09
5.6207057e-07
5.7573039e-09
5.8553279e-07
5.7426718e-09
5.8535885e-07
5.7229167e-09
5.8509844e-07
5.6890664e-09
5.8499936e-07
5.6379115e-09
5.8489737e-07
5.5679794e-09
5.8478402e-07
5.4784172e-09
5.8466247e-07
5.3689435e-09
5.8453577e-07
5.239796e-09
5.8440684e-07
5.0916655e-09
5.8427845e-07
4.9256244e-09
5.8415318e-07
4.7430556e-09
5.8403334e-07
4.5455855e-09
5.8392098e-07
4.3350258e-09
5.8381785e-07
4.1133212e-09
5.8372542e-07
3.8825078e-09
5.8364487e-07
3.6446777e-09
5.8357711e-07
3.4019505e-09
5.8352276e-07
3.1564499e-09
5.8348221e-07
2.9102829e-09
5.8345556e-07
2.6655213e-09
5.8344269e-07
2.4241817e-09
5.8344323e-07
2.1882036e-09
5.8345656e-07
1.9594238e-09
5.8348182e-07
1.7395459e-09
5.8351792e-07
1.5301038e-09
5.8356351e-07
1.3324197e-09
5.8361703e-07
1.1475563e-09
5.8367669e-07
9.7626602e-10
5.8374052e-07
8.1893936e-10
5.8380637e-07
6.7555622e-10
5.8387199e-07
5.4564741e-10
5.8393505e-07
4.2826612e-10
5.8399312e-07
3.2198421e-10
5.8404022e-07
2.2487715e-10
5.8399567e-07
1.345182e-10
5.8253442e-07
5.0401153e-11
5.6298363e-07
3.8996838e-07
4.3263265e-09
3.3750864e-07
5.6463203e-09
5.6207939e-07
5.7047196e-09
5.8554356e-07
5.6716532e-09
5.8538184e-07
5.6356485e-09
5.8513317e-07
5.5880217e-09
5.8504688e-07
5.5258401e-09
5.8495945e-07
5.4477834e-09
5.8486197e-07
5.3530391e-09
5.847571e-07
5.2412677e-09
5.8464743e-07
5.1125693e-09
5.8453543e-07
4.9674365e-09
5.8442348e-07
4.8067005e-09
5.8431381e-07
4.631476e-09
5.8420846e-07
4.4431073e-09
5.8410924e-07
4.2431191e-09
5.8401773e-07
4.0331717e-09
5.8393526e-07
3.8150229e-09