/*--------------------------------*- C++ -*----------------------------------*\
  =========                 |
  \\      /  F ield         | OpenFOAM: The Open Source CFD Toolbox
   \\    /   O peration     | Website:  https://openfoam.org
    \\  /    A nd           | Version:  10
     \\/     M anipulation  |
\*---------------------------------------------------------------------------*/
FoamFile
{
    format      ascii;
    class       surfaceScalarField;
    location    "0.01";
    object      phi_0;
}
// * * * * * * * * * * * * * * * * * * * * * * * * * * * * * * * * * * * * * //

dimensions      [1 0 -1 0 0 0 0];

internalField   nonuniform List<scalar> 
7860
(
3.676451e-08
5.319531e-07
1.1279276e-08
5.9416917e-07
6.8071008e-09
5.7318152e-07
4.8071587e-09
5.7070792e-07
3.5434072e-09
5.6997154e-07
2.7610044e-09
5.6949018e-07
2.2199105e-09
5.6924885e-07
1.8197109e-09
5.6910795e-07
1.5117022e-09
5.6901574e-07
1.2661852e-09
5.6895324e-07
1.0644808e-09
5.6890942e-07
8.9441351e-10
5.6887778e-07
7.4769985e-10
5.6885442e-07
6.1850075e-10
5.688369e-07
5.0256524e-10
5.6882364e-07
3.9669857e-10
5.6881357e-07
2.9842164e-10
5.6880597e-07
2.0574924e-10
5.6880037e-07
1.1700955e-10
5.6879643e-07
3.0672621e-11
5.6879403e-07
-5.4519649e-11
5.6879289e-07
-1.3987411e-10
5.6879305e-07
-2.2672857e-10
5.6879455e-07
-3.1653513e-10
5.687975e-07
-4.1094204e-10
5.688021e-07
-5.1193536e-10
5.6880869e-07
-6.220033e-10
5.6881777e-07
-7.4440536e-10
5.6883011e-07
-8.8357834e-10
5.6884688e-07
-1.0457482e-09
5.6886989e-07
-1.2399901e-09
5.6890196e-07
-1.4803671e-09
5.6894811e-07
-1.7892661e-09
5.6901664e-07
-2.2039986e-09
5.6912248e-07
-2.7998972e-09
5.6930366e-07
-3.7541368e-09
5.6966202e-07
-5.2926304e-09
5.7024629e-07
-8.6030712e-09
5.7201827e-07
-2.6836302e-08
5.8694109e-07
5.4187172e-07
5.3808364e-08
4.7825029e-07
3.225318e-08
6.1558455e-07
1.975113e-08
5.8567366e-07
1.3956999e-08
5.765039e-07
1.0508466e-08
5.7342012e-07
8.2275039e-09
5.7177113e-07
6.6104771e-09
5.7086589e-07
5.4113716e-09
5.7030706e-07
4.4849814e-09
5.6994214e-07
3.7435537e-09
5.6969468e-07
3.1324426e-09
5.6952054e-07
2.6158062e-09
5.6939443e-07
2.1691621e-09
5.6930107e-07
1.7751946e-09
5.6923088e-07
1.4212465e-09
5.6917759e-07
1.0977643e-09
5.6913706e-07
7.9729582e-10
5.6910645e-07
5.1381995e-10
5.6908385e-07
2.4229139e-10
5.6906797e-07
-2.1707531e-11
5.6905804e-07
-2.8228717e-10
5.6905347e-07
-5.4337273e-10
5.6905414e-07
-8.0901915e-10
5.690602e-07
-1.0836072e-09
5.690721e-07
-1.3721487e-09
5.6909065e-07
-1.6806294e-09
5.6911718e-07
-2.0165272e-09
5.6915368e-07
-2.3895897e-09
5.6920318e-07
-2.8129976e-09
5.692703e-07
-3.305235e-09
5.6936213e-07
-3.8930025e-09
5.6948974e-07
-4.6176115e-09
5.6967272e-07
-5.5448877e-09
5.6994392e-07
-6.7847392e-09
5.7036234e-07
-8.5254094e-09
5.7104434e-07
-1.1150832e-08
5.7228745e-07
-1.5539353e-08
5.7463482e-07
-2.4393338e-08
5.8087226e-07
-4.0137459e-08
6.0268522e-07
5.0173427e-07
4.9280068e-08
4.2998517e-07
4.1462389e-08
6.2332202e-07
2.8283418e-08
5.9875766e-07
2.129394e-08
5.8348621e-07
1.6753633e-08
5.779609e-07
1.345964e-08
5.7506528e-07
1.1009722e-08
5.7331592e-07
9.1344752e-09
5.7218242e-07
7.6507868e-09
5.7142594e-07
6.4423596e-09
5.7090322e-07
5.4327934e-09
5.7053022e-07
4.5700333e-09
5.7025729e-07
3.817585e-09
5.7005363e-07
3.1490941e-09
5.6989948e-07
2.5449596e-09
5.6978183e-07
1.9901688e-09
5.6969195e-07
1.4728659e-09
5.6962386e-07
9.8337001e-10
5.6957345e-07
5.1349157e-10
5.6953795e-07
5.6001414e-11
5.6951563e-07
-3.957717e-10
5.6950535e-07
-8.4833485e-10
5.6950681e-07
-1.3083235e-09
5.6952029e-07
-1.7828889e-09
5.6954677e-07
-2.2801355e-09
5.69588e-07
-2.8096666e-09
5.6964682e-07
-3.38333e-09
5.6972744e-07
-4.0163495e-09
5.698363e-07
-4.7288755e-09
5.6998293e-07
-5.5486449e-09
5.70182e-07
-6.5145285e-09
5.7045573e-07
-7.6845245e-09
5.7084282e-07
-9.1457497e-09
5.7140525e-07
-1.1035502e-08
5.7225219e-07
-1.3559549e-08
5.7356849e-07
-1.7016555e-08
5.7574456e-07
-2.217846e-08
5.7979683e-07
-3.1136653e-08
5.8983055e-07
-3.7000689e-08
6.0854935e-07
4.6473368e-07
3.838626e-08
3.9464865e-07
4.1933151e-08
6.2009399e-07
3.25015e-08
6.0790867e-07
2.6362359e-08
5.8958103e-07
2.1908986e-08
5.824155e-07
1.8335714e-08
5.7863924e-07
1.5490072e-08
5.7616173e-07
1.3194516e-08
5.7447813e-07
1.1306593e-08
5.7331402e-07
9.7239354e-09
5.7248603e-07
8.3716306e-09
5.7188268e-07
7.1949005e-09
5.7143418e-07
6.1533073e-09
5.7109538e-07
5.2164594e-09
5.7083648e-07
4.3610383e-09
5.7063741e-07
3.5687333e-09
5.7048441e-07
2.8247886e-09
5.7036795e-07
2.1169574e-09
5.7028143e-07
1.4347341e-09
5.7022032e-07
7.6878595e-10
5.7018173e-07
1.1039166e-10
5.7016389e-07
-5.4890986e-10
5.7016626e-07
-1.2177497e-09
5.7018928e-07
-1.9053648e-09
5.7023453e-07
-2.6221064e-09
5.7030489e-07
-3.3800441e-09
5.704049e-07
-4.1937751e-09
5.7054132e-07
-5.0815861e-09
5.7072425e-07
-6.0669499e-09
5.7096843e-07
-7.1808865e-09
5.7129608e-07
-8.4647449e-09
5.7173973e-07
-9.9754861e-09
5.723537e-07
-1.179003e-08
5.7321993e-07
-1.4013868e-08
5.7447617e-07
-1.6783681e-08
5.7633844e-07
-2.0208226e-08
5.7916924e-07
-2.463534e-08
5.8422408e-07
-3.0635947e-08
5.958313e-07
-2.7887318e-08
6.0580086e-07
4.3684645e-07
2.6576173e-08
3.7314366e-07
3.6992681e-08
6.1046342e-07
3.307886e-08
6.11347e-07
2.887039e-08
5.9369177e-07
2.5245401e-08
5.8604191e-07
2.2040751e-08
5.8184539e-07
1.9280211e-08
5.7892236e-07
1.6909109e-08
5.7684925e-07
1.4865427e-08
5.7535773e-07
1.3089121e-08
5.7426236e-07
1.1527471e-08
5.7344435e-07
1.0137213e-08
5.7282446e-07
8.8835401e-09
5.7234907e-07
7.7385512e-09
5.7198149e-07
6.6797647e-09
5.7169622e-07
5.6888386e-09
5.7147536e-07
4.7505375e-09
5.7130628e-07
3.8519125e-09
5.7118008e-07
2.9816479e-09
5.7109061e-07
2.1295525e-09
5.7103385e-07
1.2860437e-09
5.7100742e-07
4.4179667e-10
5.7101053e-07
-4.1266725e-10
5.7104377e-07
-1.2873897e-09
5.7110927e-07
-2.1934109e-09
5.7121093e-07
-3.1433543e-09
5.7135486e-07
-4.1520364e-09
5.7155002e-07
-5.2372875e-09
5.7180953e-07
-6.4208913e-09
5.7215206e-07
-7.7298191e-09
5.7260503e-07
-9.197413e-09
5.7320734e-07
-1.086369e-08
5.7402e-07
-1.2774251e-08
5.7513051e-07
-1.4974506e-08
5.7667645e-07
-1.7507051e-08
5.7887101e-07
-2.0352199e-08
5.8201441e-07
-2.3355562e-08
5.8722746e-07
-2.5431489e-08
5.9790725e-07
-1.7493172e-08
5.9786257e-07
4.1935324e-07
1.645821e-08
3.6259467e-07
2.9093492e-08
5.9888758e-07
3.0238886e-08
6.0965797e-07
2.8363105e-08
5.9543748e-07
2.5966593e-08
5.884388e-07
2.3536977e-08
5.8427705e-07
2.1228843e-08
5.8123047e-07
1.9100911e-08
5.7897702e-07
1.7167947e-08
5.7729055e-07
1.5417755e-08
5.7601241e-07
1.3828778e-08
5.7503319e-07
1.2377574e-08
5.7427552e-07
1.1041795e-08
5.7368471e-07
9.801392e-09
5.7322175e-07
8.6388469e-09
5.7285862e-07
7.5389739e-09
5.7257509e-07
6.4885575e-09
5.7235656e-07
5.4759578e-09
5.7219254e-07
4.4907255e-09
5.7207571e-07
3.5232621e-09
5.7200117e-07
2.5644645e-09
5.7196608e-07
1.6054445e-09
5.7196941e-07
6.3722489e-10
5.7201185e-07
-3.4956813e-10
5.7209593e-07
-1.3650067e-09
5.7222624e-07
-2.4201836e-09
5.7240991e-07
-3.5275567e-09
5.7265726e-07
-4.7012125e-09
5.7298305e-07
-5.9570867e-09
5.734078e-07
-7.3127285e-09
5.7396054e-07
-8.7868143e-09
5.7468129e-07
-1.0395681e-08
5.7562873e-07
-1.214914e-08
5.7688384e-07
-1.4036323e-08
5.785635e-07
-1.6011235e-08
5.8084578e-07
-1.7958607e-08
5.8396164e-07
-1.9348763e-08
5.8861748e-07
-1.8115009e-08
5.9667336e-07
-8.8577343e-09
5.8860517e-07
4.1049538e-07
9.8375049e-09
3.5842194e-07
2.1109031e-08
5.8879518e-07
2.5138686e-08
6.0517783e-07
2.5243678e-08
5.9520951e-07
2.41453e-08
5.89536e-07
2.2634488e-08
5.857898e-07
2.0963721e-08
5.829012e-07
1.9276599e-08
5.8066395e-07
1.7644028e-08
5.7892293e-07
1.6094527e-08
5.7756173e-07
1.4636072e-08
5.7649147e-07
1.3265974e-08
5.7564544e-07
1.1976429e-08
5.7497408e-07
1.0757581e-08
5.7444043e-07
9.5990826e-09
5.7401695e-07
8.4908388e-09
5.7368316e-07
7.4233156e-09
5.7342391e-07
6.3876042e-09
5.7322808e-07
5.3753611e-09
5.7308778e-07
4.3786954e-09
5.7299767e-07
3.3900131e-09
5.729546e-07
2.4018711e-09
5.7295739e-07
1.4068216e-09
5.7300673e-07
3.9726606e-10
5.7310532e-07
-6.34659e-10
5.73258e-07
-1.6971516e-09
5.7347223e-07
-2.7987233e-09
5.7375867e-07
-3.9478969e-09
5.7413206e-07
-5.1528611e-09
5.746126e-07
-6.4200918e-09
5.752276e-07
-7.7524808e-09
5.7601352e-07
-9.1441667e-09
5.7702026e-07
-1.0574202e-08
5.7831371e-07
-1.1990754e-08
5.7997988e-07
-1.3282907e-08
5.8213777e-07
-1.4259664e-08
5.8493823e-07
-1.4307246e-08
5.8866489e-07
-1.138475e-08
5.9375069e-07
-3.6278681e-09
5.8084813e-07
4.0686744e-07
6.6723835e-09
3.5686851e-07
1.512519e-08
5.8159414e-07
1.9729475e-08
6.0029553e-07
2.0977734e-08
5.9386994e-07
2.0901217e-08
5.8961038e-07
2.0206099e-08
5.8648631e-07
1.9170981e-08
5.8393634e-07
1.7972905e-08
5.8186192e-07
1.6712443e-08
5.801833e-07
1.5445507e-08
5.7882858e-07
1.4201941e-08
5.7773494e-07
1.2995896e-08
5.768514e-07
1.1832403e-08
5.7613749e-07
1.071128e-08
5.7556146e-07
9.6294532e-09
5.7509869e-07
8.5823281e-09
5.747302e-07
7.5645776e-09
5.7444157e-07
6.5705818e-09
5.7422199e-07
5.5946546e-09
5.7406362e-07
4.6311501e-09
5.7396109e-07
3.674495e-09
5.7391117e-07
2.7191949e-09
5.739126e-07
1.7598317e-09
5.7396601e-07
7.9108077e-10
5.7407399e-07
-1.9222137e-10
5.7424121e-07
-1.1949101e-09
5.7447484e-07
-2.2212608e-09
5.7478493e-07
-3.2740158e-09
5.7518473e-07
-4.3541169e-09
5.7569262e-07
-5.4582094e-09
5.7633161e-07
-6.5762982e-09
5.7713152e-07
-7.6862735e-09
5.7813015e-07
-8.746512e-09
5.7937386e-07
-9.6830495e-09
5.8091634e-07
-1.0361773e-08
5.8281641e-07
-1.0569121e-08
5.8514549e-07
-9.8305797e-09
5.8792626e-07
-6.7291827e-09
5.906492e-07
-1.3753111e-09
5.7549419e-07
4.0549214e-07
5.6665344e-09
3.5597271e-07
1.1564166e-08
5.7699589e-07
1.5434454e-08
5.9629995e-07
1.7042191e-08
5.9220359e-07
1.7551522e-08
5.8909877e-07
1.7421902e-08
5.8661676e-07
1.6888564e-08
5.8446976e-07
1.6112935e-08
5.8263754e-07
1.5198928e-08
5.810973e-07
1.4213323e-08
5.7981418e-07
1.3197596e-08
5.7875066e-07
1.2176585e-08
5.7787241e-07
1.1164434e-08
5.7714963e-07
1.0168428e-08
5.7655746e-07
9.1915063e-09
5.7607561e-07
8.233889e-09
5.7568782e-07
7.2941228e-09
5.7538133e-07
6.369748e-09
5.7514637e-07
5.4577236e-09
5.7497564e-07
4.5547006e-09
5.7486411e-07
3.6572029e-09
5.7480866e-07
2.7617643e-09
5.7480804e-07
1.865054e-09
5.7486272e-07
9.6402581e-10
5.7497501e-07
5.6127306e-11
5.7514911e-07
-8.6034391e-10
5.7539131e-07
-1.7857438e-09
5.7571033e-07
-2.7187905e-09
5.7611777e-07
-3.6541137e-09
5.7662794e-07
-4.581585e-09
5.7725908e-07
-5.4830866e-09
5.7803302e-07
-6.3279605e-09
5.7897502e-07
-7.0665333e-09
5.8011243e-07
-7.6219207e-09
5.8147172e-07
-7.8740038e-09
5.8306849e-07
-7.6419771e-09
5.8491347e-07
-6.6392723e-09
5.8692355e-07
-4.1249495e-09
5.8813488e-07
-7.5805275e-10
5.721273e-07
4.0473412e-07
5.4900379e-09
3.5514307e-07
9.7204425e-09
5.7407984e-07
1.2574922e-08
5.934106e-07
1.4098478e-08
5.9064329e-07
1.4829652e-08
5.8836563e-07
1.5010718e-08
5.8643615e-07
1.480584e-08
5.8467472e-07
1.4338193e-08
5.8310521e-07
1.3697517e-08
5.81738e-07
1.2947633e-08
5.8056409e-07
1.2132263e-08
5.7956606e-07
1.1280675e-08
5.7872402e-07
1.0411947e-08
5.7801839e-07
9.5380786e-09
5.7743136e-07
8.6662181e-09
5.7694749e-07
7.8002255e-09
5.7655383e-07
6.941758e-09
5.7623983e-07
6.0910219e-09
5.7599713e-07
5.2472963e-09
5.7581939e-07
4.4093049e-09
5.7570213e-07
3.5754947e-09
5.756425e-07
2.744264e-09
5.7563929e-07
1.9141777e-09
5.7569283e-07
1.0842055e-09
5.7580501e-07
2.5401274e-10
5.7597933e-07
-5.7565357e-10
5.76221e-07
-1.4023277e-09
5.7653703e-07
-2.2210001e-09
5.7693647e-07
-3.0231516e-09
5.7743012e-07
-3.7948704e-09
5.7803083e-07
-4.5146257e-09
5.787528e-07
-5.1500779e-09
5.796105e-07
-5.6540032e-09
5.8061639e-07
-5.9597517e-09
5.817775e-07
-5.9768666e-09
5.8308563e-07
-5.5798219e-09
5.8451645e-07
-4.6188421e-09
5.859626e-07
-2.8016571e-09
5.8631772e-07
-6.7320029e-10
5.6999888e-07
4.0406096e-07
5.4475083e-09
3.5435179e-07
8.7470698e-09
5.7208629e-07
1.0794783e-08
5.9136644e-07
1.208349e-08
5.8932904e-07
1.2830747e-08
5.8761676e-07
1.3145427e-08
5.8612172e-07
1.3127262e-08
5.8469293e-07
1.2861241e-08
5.8337125e-07
1.2416844e-08
5.8218242e-07
1.1847831e-08
5.8113312e-07
1.1194192e-08
5.8021972e-07
1.0484939e-08
5.7943329e-07
9.7406234e-09
5.7876272e-07
8.9754763e-09
5.7819653e-07
8.1990991e-09
5.7772389e-07
7.4177598e-09
5.7733519e-07
6.6353628e-09
5.7702224e-07
5.8541702e-09
5.7677834e-07
5.0753385e-09
5.7659825e-07
4.2993278e-09
5.7647815e-07
3.5262271e-09
5.7641562e-07
2.7560326e-09
5.7640951e-07
1.9889133e-09
5.7645997e-07
1.2254935e-09
5.7656845e-07
4.6718859e-10
5.7673765e-07
-2.8338262e-10
5.7697159e-07
-1.0218256e-09
5.7727549e-07
-1.7412533e-09
5.7765592e-07
-2.4313434e-09
5.7812022e-07
-3.0770782e-09
5.7867658e-07
-3.6570534e-09
5.793328e-07
-4.1416178e-09
5.8009508e-07
-4.4912172e-09
5.8096601e-07
-4.6542325e-09
5.8194053e-07
-4.5684868e-09
5.829999e-07
-4.1579217e-09
5.841059e-07
-3.3501412e-09
5.8515484e-07
-2.0637524e-09
5.8503135e-07
-6.2101967e-10
5.6855618e-07
4.0343996e-07
5.3583934e-09
3.5365939e-07
8.1325254e-09
5.7060367e-07
9.6452156e-09
5.8986995e-07
1.0691307e-08
5.8826239e-07
1.1369332e-08
5.8693736e-07
1.1719909e-08
5.857713e-07
1.1797078e-08
5.8461579e-07
1.1656007e-08
5.8351233e-07
1.1346981e-08
5.8249145e-07
1.0912159e-08
5.8156795e-07
1.038529e-08
5.807466e-07
9.7925434e-09
5.8002605e-07
9.1536988e-09
5.7940157e-07
8.4834087e-09
5.7886682e-07
7.7923312e-09
5.7841497e-07
7.0880876e-09
5.7803944e-07
6.3760412e-09
5.777343e-07
5.6599176e-09
5.7749447e-07
4.9422974e-09
5.7731587e-07
4.2250143e-09
5.7719545e-07
3.5094868e-09
5.7713115e-07
2.797012e-09
5.7712199e-07
2.089047e-09
5.7716794e-07
1.3875027e-09
5.7727e-07
6.9507554e-10
5.7743009e-07
1.5634915e-11
5.7765104e-07
-6.4530391e-10
5.7793644e-07
-1.2799536e-09
5.7829058e-07
-1.8775828e-09
5.7871786e-07
-2.4235827e-09
5.7922259e-07
-2.8986704e-09
5.7980789e-07
-3.2779999e-09
5.8047442e-07
-3.5303162e-09
5.8121833e-07
-3.6183649e-09
5.8202859e-07
-3.5014512e-09
5.82883e-07
-3.1382392e-09
5.837427e-07
-2.4959792e-09
5.8451259e-07
-1.5637738e-09
5.8409916e-07
-5.2010156e-10
5.6751252e-07
4.0291988e-07
5.2371973e-09
3.5308762e-07
7.6705508e-09
5.6945081e-07
8.8344536e-09
5.887272e-07
9.6738191e-09
5.874049e-07
1.0258165e-08
5.8635178e-07
1.0596834e-08
5.8543276e-07
1.0715975e-08
5.8449667e-07
1.0649662e-08
5.8357865e-07
1.043262e-08
5.827085e-07
1.0096472e-08
5.819041e-07
9.6683256e-09
5.8117474e-07
9.170488e-09
5.8052389e-07
8.6207896e-09
5.7995128e-07
8.0331836e-09
5.7945443e-07
7.418412e-09
5.7902975e-07
6.7846473e-09
5.7867321e-07
6.1380659e-09
5.7838088e-07
5.4833402e-09
5.781492e-07
4.8240571e-09
5.7797516e-07
4.1630731e-09
5.7785643e-07
3.502826e-09
5.777914e-07
2.8456164e-09
5.777792e-07
2.1938807e-09
5.7781968e-07
1.5504691e-09
5.7791341e-07
9.1894693e-10
5.7806161e-07
3.0393563e-10
5.7826605e-07
-2.8851141e-10
5.7852889e-07
-8.5045458e-10
5.7885252e-07
-1.3715835e-09
5.7923899e-07
-1.8387101e-09
5.7968972e-07
-2.2353043e-09
5.8020449e-07
-2.541306e-09
5.8078043e-07
-2.7332427e-09
5.8141027e-07
-2.7854121e-09
5.8208076e-07
-2.6724018e-09
5.8276999e-07
-2.3736599e-09
5.8344396e-07
-1.8761857e-09
5.8401513e-07
-1.1838199e-09
5.834068e-07
-4.0689702e-10
5.6673561e-07
4.02513e-07
5.1199348e-09
3.5262648e-07
7.3001865e-09
5.6854466e-07
8.2200993e-09
5.8783248e-07
8.8923667e-09
5.8671612e-07
9.3831492e-09
5.8585984e-07
9.688368e-09
5.8512764e-07
9.8188466e-09
5.8436621e-07
9.7946701e-09
5.8360283e-07
9.6389854e-09
5.8286419e-07
9.3747566e-09
5.8216833e-07
9.0230174e-09
5.8152649e-07
8.6020763e-09
5.8094483e-07
8.1273335e-09
5.8042602e-07
7.6114353e-09
5.7997033e-07
7.0645928e-09
5.7957659e-07
6.4949648e-09
5.7924284e-07
5.9090462e-09
5.789668e-07
5.3120326e-09
5.7874621e-07
4.7081531e-09
5.7857904e-07
4.1009688e-09
5.7846362e-07
3.4936456e-09
5.7839873e-07
2.8892082e-09
5.7838364e-07
2.2907858e-09
5.7841811e-07
1.70186e-09
5.7850234e-07
1.1265225e-09
5.7863695e-07
5.6975196e-10
5.7882282e-07
3.7697277e-11
5.7906095e-07
-4.6196573e-10
5.7935219e-07
-9.1985243e-10
5.7969688e-07
-1.3245045e-09
5.8009438e-07
-1.6622701e-09
5.8054226e-07
-1.9175692e-09
5.8103573e-07
-2.0733185e-09
5.8156602e-07
-2.1122296e-09
5.8211968e-07
-2.0191534e-09
5.8267692e-07
-1.784784e-09
5.832096e-07
-1.4061654e-09
5.8363651e-07
-8.8758061e-10
5.8288822e-07
-3.084189e-10
5.6615646e-07
4.022046e-07
5.0221157e-09
3.5225632e-07
7.0037833e-09
5.6783339e-07
7.7389642e-09
5.8712644e-07
8.2763416e-09
5.8616353e-07
8.6817306e-09
5.8545335e-07
8.9452614e-09
5.8486419e-07
9.0697443e-09
5.8424174e-07
9.0664167e-09
5.8360616e-07
8.9502852e-09
5.8298032e-07
8.7376238e-09
5.82381e-07
8.4443457e-09
5.8181977e-07
8.0850746e-09
5.8130411e-07
7.672715e-09
5.8083838e-07
7.218342e-09
5.8042471e-07
6.7312859e-09
5.8006365e-07
6.2193206e-09
5.7975481e-07
5.6889012e-09
5.7949723e-07
5.1454159e-09
5.792897e-07
4.5934345e-09
5.7913103e-07
4.0369471e-09
5.7902011e-07
3.4795897e-09
5.7895609e-07
2.9248604e-09
5.7893837e-07
2.3763305e-09
5.7896664e-07
1.8378526e-09
5.7904082e-07
1.3137716e-09
5.7916104e-07
8.0913727e-10
5.7932746e-07
3.2990912e-10
5.7954018e-07
-1.1683613e-10
5.7979894e-07
-5.227684e-10
5.8010282e-07
-8.7823533e-10
5.8044985e-07
-1.1723044e-09
5.8083633e-07
-1.3930857e-09
5.8125651e-07
-1.528479e-09
5.8170142e-07
-1.5670074e-09
5.8215821e-07
-1.5004322e-09
5.8261035e-07
-1.3251154e-09
5.8303429e-07
-1.0426552e-09
5.8335406e-07
-6.572358e-10
5.8250281e-07
-2.3046984e-10
5.6572971e-07
4.0197415e-07
4.9440517e-09
3.5195898e-07
6.7691682e-09
5.6727605e-07
7.3583356e-09
5.8656983e-07
7.7853255e-09
5.8572237e-07
8.1150901e-09
5.8512252e-07
8.3351945e-09
5.8464416e-07
8.4442866e-09
5.8413266e-07
8.4481269e-09
5.8360232e-07
8.3561652e-09
5.8307229e-07
8.1797092e-09
5.8255746e-07
7.9305773e-09
5.820689e-07
7.620223e-09
5.8161447e-07
7.2592251e-09
5.8119939e-07
6.8570473e-09
5.8082689e-07
6.4219778e-09
5.8049873e-07
5.9611853e-09
5.8021561e-07
5.4808424e-09
5.7997757e-07
4.9862849e-09
5.7978426e-07
4.4821863e-09
5.7963513e-07
3.9727384e-09
5.7952956e-07
3.4618291e-09
5.79467e-07
2.9532179e-09
5.7944699e-07
2.4507074e-09
5.7946915e-07
1.9583116e-09
5.7953322e-07
1.4804182e-09
5.7963893e-07
1.0219446e-09
5.7978594e-07
5.8847453e-10
5.7997365e-07
1.8637214e-10
5.8020105e-07
-1.7716571e-10
5.8046636e-07
-4.9414656e-10
5.8076683e-07
-7.5597506e-10
5.8109817e-07
-9.5369873e-10
5.8145424e-07
-1.0788427e-09
5.8182657e-07
-1.1243604e-09
5.8220373e-07
-1.0857989e-09
5.8257179e-07
-9.6260726e-10
5.829111e-07
-7.5874288e-10
5.831502e-07
-4.7843924e-10
5.8222251e-07
-1.6985146e-10
5.6542114e-07
4.0180432e-07
4.8813321e-09
3.5172045e-07
6.583128e-09
5.6683989e-07
7.0553599e-09
5.8613283e-07
7.3911806e-09
5.8537319e-07
7.6548291e-09
5.8485784e-07
7.8329042e-09
5.8446614e-07
7.9219602e-09
5.8404362e-07
7.9244106e-09
5.8359988e-07
7.8459634e-09
5.8315074e-07
7.6943216e-09
5.827091e-07
7.4781334e-09
5.8228509e-07
7.2062395e-09
5.8188636e-07
6.8871769e-09
5.8151845e-07
6.5288887e-09
5.8118518e-07
6.1385885e-09
5.8088903e-07
5.7227316e-09
5.8063147e-07
5.2870582e-09
5.8041325e-07
4.8366815e-09
5.8023464e-07
4.376202e-09
5.8009561e-07
3.9098351e-09
5.7999593e-07
3.4415455e-09
5.799353e-07
2.9751821e-09
5.7991335e-07
2.5146116e-09
5.7992973e-07
2.0638469e-09
5.7998399e-07
1.6271675e-09
5.8007562e-07
1.2092264e-09
5.8020388e-07
8.1513318e-10
5.8036775e-07
4.5050377e-10
5.8056568e-07
1.2144797e-10
5.8079542e-07
-1.6550182e-10
5.8105379e-07
-4.0364772e-10
5.8133632e-07
-5.864275e-10
5.8163703e-07
-7.0809703e-10
5.8194825e-07
-7.639021e-10
5.8225954e-07
-7.523436e-10
5.8256024e-07
-6.7461516e-10
5.8283338e-07
-5.35223e-10
5.8301081e-07
-3.3868306e-10
5.8202598e-07
-1.2204504e-10
5.6520451e-07
4.0168229e-07
4.8300367e-09
3.5153017e-07
6.4338367e-09
5.6649992e-07
6.8119525e-09
5.8579198e-07
7.0722191e-09
5.8510022e-07
7.2786111e-09
5.8465044e-07
7.4176258e-09
5.8432718e-07
7.4848922e-09
5.8397636e-07
7.4808324e-09
5.8360394e-07
7.4086709e-09
5.832229e-07
7.2735362e-09
5.8284424e-07
7.0816723e-09
5.8247696e-07
6.8398267e-09
5.8212821e-07
6.5548087e-09
5.8180347e-07
6.2331995e-09
5.8150679e-07
5.8811835e-09
5.8124105e-07
5.504472e-09
5.8100818e-07
5.1082935e-09
5.8080943e-07
4.6974305e-09
5.8064551e-07
4.2762854e-09
5.8051676e-07
3.8489657e-09
5.8042325e-07
3.4193786e-09
5.8036489e-07
2.9913301e-09
5.8034141e-07
2.5686237e-09
5.8035244e-07
2.1551535e-09
5.8039747e-07
1.7549882e-09
5.8047579e-07
1.3724388e-09
5.8058644e-07
1.0121015e-09
5.8072809e-07
6.7886553e-10
5.8089892e-07
3.7786564e-10
5.8109643e-07
1.143763e-10
5.8131728e-07
-1.0639904e-10
5.815571e-07
-2.7961891e-10
5.8181025e-07
-4.0110089e-10
5.8206973e-07
-4.6928012e-10
5.8232773e-07
-4.8257607e-10
5.8257354e-07
-4.4409742e-10
5.827949e-07
-3.5764454e-10
5.8292436e-07
-2.2812995e-10
5.8189647e-07
-8.3820357e-11
5.6506022e-07
4.0159849e-07
4.7875889e-09
3.5137986e-07
6.3124738e-09
5.6623738e-07
6.6142925e-09
5.8552903e-07
6.8117689e-09
5.8489053e-07
6.9689123e-09
5.8449232e-07
7.0725446e-09
5.8422359e-07
7.1180195e-09
5.839309e-07
7.1046251e-09
5.8361734e-07
7.0339698e-09
5.8329356e-07
6.9093711e-09
5.8296884e-07
6.7352798e-09
5.8265105e-07
6.5167992e-09
5.8234669e-07
6.2593146e-09
5.8206096e-07
5.9682275e-09
5.8179788e-07
5.6487814e-09
5.815605e-07
5.3059627e-09
5.81351e-07
4.9444596e-09
5.8117094e-07
4.5686625e-09
5.8102131e-07
4.1826949e-09
5.8090273e-07
3.7904639e-09
5.8081549e-07
3.3957224e-09
5.8075963e-07
3.0021369e-09
5.8073499e-07
2.6133563e-09
5.8074122e-07
2.2330749e-09
5.8077775e-07
1.8650868e-09
5.8084378e-07
1.5133234e-09
5.809382e-07
1.1818675e-09
5.8105955e-07
8.7493509e-10
5.8120585e-07
5.9681048e-10
5.8137455e-07
3.5172948e-10
5.8156236e-07
1.4368481e-10
5.8176514e-07
-2.3877799e-11
5.8197782e-07
-1.4837388e-10
5.8219423e-07
-2.282155e-10
5.8240757e-07
-2.6407666e-10
5.8260941e-07
-2.5837829e-10
5.8278921e-07
-2.1532524e-10
5.8288131e-07
-1.3971686e-10
5.8182087e-07
-5.2788788e-11
5.649733e-07
4.0154571e-07
4.7522335e-09
3.5126287e-07
6.2128168e-09
5.6603793e-07
6.4522303e-09
5.8532975e-07
6.5973189e-09
5.8473363e-07
6.712247e-09
5.8437642e-07
6.7843362e-09
5.8415155e-07
6.8090095e-09
5.8390623e-07
6.784953e-09
5.836414e-07
6.7127454e-09
5.8336577e-07
6.5944485e-09
5.8308714e-07
6.4331928e-09
5.8281231e-07
6.2328104e-09
5.8254708e-07
5.9975342e-09
5.8229624e-07
5.7317674e-09
5.8206365e-07
5.4399199e-09
5.8185235e-07
5.1263021e-09
5.8166462e-07
4.7950665e-09
5.8150217e-07
4.4501854e-09
5.8136619e-07
4.0954568e-09
5.8125746e-07
3.7345278e-09
5.8117642e-07
3.3709312e-09
5.8112323e-07
3.0081283e-09
5.810978e-07
2.6495516e-09
5.810998e-07
2.2986449e-09
5.8112866e-07
1.9588932e-09
5.8118353e-07
1.6338386e-09
5.8126326e-07
1.3270747e-09
5.8136632e-07
1.042213e-09
5.8149072e-07
7.8281249e-10
5.8163396e-07
5.522654e-10
5.8179291e-07
3.5363368e-10
5.8196378e-07
1.8942845e-10
5.8214203e-07
6.1335371e-11
5.8232233e-07
-2.9998112e-11
5.8249891e-07
-8.5489088e-11
5.826649e-07
-1.0765317e-10
5.8281138e-07
-1.0039296e-10
5.8287406e-07
-6.8481444e-11
5.8178896e-07
-2.7450817e-11
5.6493228e-07
4.0151828e-07
4.7226422e-09
3.5117378e-07
6.1303465e-09
5.6589034e-07
6.3182915e-09
5.8518296e-07
6.4194852e-09
5.8462096e-07
6.4982692e-09
5.8429669e-07
6.5425111e-09
5.8410734e-07
6.5478755e-09
5.8390088e-07
6.5127712e-09
5.836765e-07
6.4371391e-09
5.834414e-07
6.3221809e-09
5.832021e-07
6.1700653e-09
5.8296443e-07
5.9836521e-09
5.8273349e-07
5.7662542e-09
5.8251364e-07
5.5214446e-09
5.8230846e-07
5.2529101e-09
5.8212088e-07
4.9643488e-09
5.8195319e-07
4.6594038e-09
5.8180712e-07
4.3416282e-09
5.8168397e-07
4.014473e-09
5.8158462e-07
3.6812919e-09
5.815096e-07
3.3453578e-09
5.8145917e-07
3.0098851e-09
5.8143328e-07
2.6780532e-09
5.8143164e-07
2.3530274e-09
5.8145369e-07
2.037971e-09
5.8149859e-07
1.7360454e-09
5.8156519e-07
1.4503926e-09
5.8165197e-07
1.1840937e-09
5.8175702e-07
9.4009979e-10
5.8187796e-07
7.2113013e-10
5.8201189e-07
5.2953455e-10
5.8215538e-07
3.6712517e-10
5.8230444e-07
2.3494191e-10
5.8245451e-07
1.3317122e-10
5.8260068e-07
6.0656347e-11
5.8273742e-07
1.5113406e-11
5.8285692e-07
-7.0867427e-12
5.8289626e-07
-1.0715413e-11
5.817926e-07
-6.5030927e-12
5.6492808e-07
4.0151179e-07
4.6977651e-09
3.5110816e-07
6.0616531e-09
5.6578573e-07
6.2068466e-09
5.8507976e-07
6.2711108e-09
5.8454547e-07
6.3189485e-09
5.8424791e-07
6.338756e-09
5.8408757e-07
6.3265149e-09
5.8391313e-07
6.2805514e-09
5.8372247e-07
6.200428e-09
5.8352153e-07
6.0867659e-09
5.8331577e-07
5.9410389e-09
5.8311016e-07
5.7653694e-09
5.8290917e-07
5.5623426e-09
5.8271667e-07
5.3348489e-09
5.8253596e-07
5.0859581e-09
5.8236978e-07
4.8188246e-09
5.8222032e-07
4.536621e-09
5.8208933e-07
4.2424962e-09
5.819781e-07
3.9395517e-09
5.8188757e-07
3.6308341e-09
5.8181832e-07
3.3193359e-09
5.8177067e-07
3.0080031e-09
5.8174461e-07
2.6997438e-09
5.817399e-07
2.3974343e-09
5.81756e-07
2.1039185e-09
5.8179211e-07
1.8219978e-09
5.8184711e-07
1.5544056e-09
5.8191957e-07
1.3037643e-09
5.8200767e-07
1.0725208e-09
5.821092e-07
8.6285819e-10
5.8222155e-07
6.7658288e-10
5.8234166e-07
5.1499352e-10
5.8246603e-07
3.7871682e-10
5.8259079e-07
2.6762024e-10
5.8271178e-07
1.8053589e-10
5.8282451e-07
1.1536728e-10
5.829221e-07
6.8866482e-11
5.8294277e-07
3.6523648e-11
5.8182494e-07
1.1307189e-11
5.6495331e-07
4.0152312e-07
4.6767635e-09
3.5106237e-07
6.0041084e-09
5.6571697e-07
6.1135734e-09
5.8501299e-07
6.1466471e-09
5.845014e-07
6.1679692e-09
5.8422565e-07
6.1664197e-09
5.8408915e-07
6.1383171e-09
5.8394124e-07
6.0820184e-09
5.8377877e-07
5.9968773e-09
5.8360667e-07
5.8831304e-09
5.8342952e-07
5.7417541e-09
5.8325154e-07
5.5743144e-09
5.8307661e-07
5.3828248e-09
5.8290816e-07
5.1696194e-09
5.8274917e-07
4.9372468e-09
5.8260215e-07
4.6883864e-09
5.8246918e-07
4.4257847e-09
5.8235193e-07
4.1522112e-09
5.8225167e-07
3.870429e-09
5.8216935e-07
3.5831776e-09
5.8210558e-07
3.293164e-09
5.8206068e-07
3.0030591e-09
5.8203472e-07
2.715495e-09
5.8202746e-07
2.4330613e-09
5.8203844e-07
2.1582952e-09
5.8206688e-07
1.8936646e-09
5.8211175e-07
1.6415391e-09
5.821717e-07
1.4041483e-09
5.8224506e-07
1.1835228e-09
5.8232983e-07
9.814205e-10
5.8242366e-07
7.9923556e-10
5.8252385e-07
6.3789727e-10
5.8262737e-07
4.9775617e-10
5.8273094e-07
3.7849621e-10
5.8283105e-07
2.7900742e-10
5.82924e-07
1.9738502e-10
5.8300372e-07
1.3082382e-10
5.8300933e-07
7.5414396e-11
5.8188036e-07
2.6731912e-11
5.65002e-07
4.0154987e-07
4.6589637e-09
3.510334e-07
5.9556586e-09
5.6567826e-07
6.0351052e-09
5.8497681e-07
6.0417395e-09
5.8448395e-07
6.0403149e-09
5.8422615e-07
6.0201409e-09
5.8410935e-07
5.9778639e-09
5.8398352e-07
5.9119336e-09
5.838447e-07
5.8216049e-09
5.83697e-07
5.7068655e-09
5.8354426e-07
5.5683382e-09
5.8339007e-07
5.4071721e-09
5.8323778e-07
5.2249333e-09
5.830904e-07
5.023505e-09
5.829506e-07
4.8049991e-09
5.8282066e-07
4.5716843e-09
5.827025e-07
4.325927e-09
5.8259769e-07
4.0701485e-09
5.8250746e-07
3.8067918e-09
5.8243271e-07
3.5383001e-09
5.8237407e-07
3.2671001e-09
5.8233189e-07
2.9955915e-09
5.8230623e-07
2.7261364e-09
5.8229692e-07
2.461048e-09
5.8230353e-07
2.2025757e-09
5.8232535e-07
1.9528839e-09
5.8236144e-07
1.7140217e-09
5.8241056e-07
1.4878838e-09
5.824712e-07
1.2761592e-09
5.8254156e-07
1.0802693e-09
5.8261955e-07
9.0129604e-10
5.8270282e-07
7.3990413e-10
5.8278877e-07
5.9626026e-10
5.8287459e-07
4.6996434e-10
5.8295735e-07
3.5998234e-10
5.8303398e-07
2.6462766e-10
5.8309908e-07
1.8151642e-10
5.8309244e-07
1.074433e-10
5.8195444e-07
3.9863863e-11
5.6506959e-07
4.0158975e-07
4.6438224e-09
3.5101874e-07
5.9146814e-09
5.6566489e-07
5.9687882e-09
5.8496645e-07
5.9529346e-09
5.8448914e-07
5.9319678e-09
5.842462e-07
5.8955719e-09
5.8414577e-07
5.8406982e-09
5.840384e-07
5.76592e-09
5.8391948e-07
5.6704621e-09
5.8379246e-07
5.5541571e-09
5.8366056e-07
5.4173794e-09
5.8352685e-07
5.260966e-09
5.8339419e-07
5.0861343e-09
5.8326523e-07
4.8944033e-09
5.8314233e-07
4.6875214e-09
5.8302754e-07
4.4674045e-09
5.8292262e-07
4.2360843e-09
5.8282901e-07
3.9956666e-09
5.8274787e-07
3.7482986e-09
5.8268008e-07
3.4961437e-09
5.8262623e-07
3.2413613e-09
5.8258667e-07
2.9860911e-09
5.825615e-07
2.7324374e-09
5.8255058e-07
2.4824538e-09
5.8255351e-07
2.2381239e-09
5.8256969e-07
2.0013389e-09
5.8259823e-07
1.773868e-09
5.8263803e-07
1.5573218e-09
5.8268775e-07
1.353109e-09
5.8274577e-07
1.1623851e-09
5.8281028e-07
9.8599546e-10
5.8287921e-07
8.244164e-10
5.8295035e-07
6.7769732e-10
5.8302131e-07
5.4541169e-10
5.8308963e-07
4.2661798e-10
5.8315278e-07
3.1984887e-10
5.8320585e-07
2.2309511e-10
5.831892e-07
1.3378207e-10
5.8204375e-07
5.0811285e-11
5.6515258e-07
4.0164057e-07
4.6308993e-09
3.510163e-07
5.8798829e-09
5.6567298e-07
5.9125089e-09
5.8497798e-07
5.8774685e-09
5.8451364e-07
5.8396848e-09
5.8428307e-07
5.7891663e-09
5.8419631e-07
5.72314e-09
5.8410443e-07
5.640314e-09
5.8400231e-07
5.5399261e-09
5.8389285e-07
5.4217176e-09
5.8377877e-07
5.2858898e-09
5.8366268e-07
5.1330474e-09
5.8354703e-07
4.9641363e-09
5.8343415e-07
4.7803819e-09
5.8332609e-07
4.5832307e-09
5.832247e-07
4.3742983e-09
5.8313155e-07
4.1553234e-09
5.8304799e-07
3.92813e-09
5.8297507e-07
3.6945955e-09
5.8291362e-07
3.4566242e-09
5.828642e-07
3.2161259e-09
5.8282717e-07
2.974996e-09
5.8280263e-07
2.7350981e-09
5.8279048e-07
2.498245e-09
5.8279037e-07
2.2661791e-09
5.8280175e-07
2.0405478e-09
5.8282386e-07
1.8228767e-09
5.8285571e-07
1.6145365e-09
5.8289609e-07
1.4167059e-09
5.8294361e-07
1.2303294e-09
5.8299666e-07
1.0560733e-09
5.8305347e-07
8.9428081e-10
5.8311214e-07
7.4493036e-10
5.8317066e-07
6.0760239e-10
5.8322697e-07
4.8145688e-10
5.8327893e-07
3.6523059e-10
5.8332208e-07
2.5723767e-10
5.832972e-07
1.5542367e-10
5.8214557e-07
5.9847093e-11
5.6524816e-07
4.0170043e-07
4.6198354e-09
3.5102432e-07
5.8502225e-09
5.6569929e-07
5.8645694e-09
5.8500812e-07
5.8131101e-09
5.8455467e-07
5.7608297e-09
5.8433444e-07
5.6980151e-09
5.8425915e-07
5.6221387e-09
5.8418032e-07
5.5320441e-09
5.840924e-07
5.4270067e-09
5.8399789e-07
5.3067194e-09
5.8389906e-07
5.1712651e-09
5.8379813e-07
5.0210758e-09
5.8369723e-07
4.856886e-09
5.8359834e-07
4.679685e-09
5.8350329e-07
4.4906693e-09
5.8341371e-07
4.2911993e-09
5.8333103e-07
4.0827594e-09
5.8325643e-07
3.8669242e-09
5.8319091e-07
3.645328e-09