/*--------------------------------*- C++ -*----------------------------------*\
  =========                 |
  \\      /  F ield         | OpenFOAM: The Open Source CFD Toolbox
   \\    /   O peration     | Website:  https://openfoam.org
    \\  /    A nd           | Version:  10
     \\/     M anipulation  |
\*---------------------------------------------------------------------------*/
FoamFile
{
    format      ascii;
    class       volScalarField;
    location    "0.01";
    object      TporMedia;
}
// * * * * * * * * * * * * * * * * * * * * * * * * * * * * * * * * * * * * * //

dimensions      [0 0 0 1 0 0 0];

internalField   nonuniform List<scalar> 
4000
(
-7.3079829e-09
3.5083926e-09
-1.1274732e-07
6.0416645e-07
4.672335e-07
4.8960536e-07
4.8466121e-07
4.8438349e-07
4.843425e-07
4.8415799e-07
4.8392576e-07
4.8376208e-07
4.8346695e-07
4.8333766e-07
4.8317568e-07
4.8298868e-07
4.8303621e-07
4.831782e-07
4.8306818e-07
4.8313689e-07
4.8339938e-07
4.8384672e-07
4.8400742e-07
4.8447309e-07
4.8486642e-07
4.8539966e-07
4.8600738e-07
4.8658242e-07
4.8720032e-07
4.879157e-07
4.8858417e-07
4.8924051e-07
4.8981826e-07
4.9010885e-07
4.9019017e-07
4.8984364e-07
4.8854732e-07
4.8688085e-07
4.8403884e-07
4.6966582e-07
-9.1742415e-10
2.1736368e-21
-1.3624768e-18
-3.2609247e-17
9.2567352e-16
3.4662439e-16
3.8730222e-16
3.9028658e-16
3.8991533e-16
3.8950934e-16
3.8915969e-16
3.8882309e-16
3.8845413e-16
3.8815232e-16
3.8798402e-16
3.8771621e-16
3.8775121e-16
3.8794034e-16
3.8806525e-16
3.8829557e-16
3.8879096e-16
3.8944032e-16
3.901368e-16
3.9084393e-16
3.9181772e-16
3.9283227e-16
3.9388661e-16
3.9508781e-16
3.961698e-16
3.9767525e-16
3.9898348e-16
4.0031592e-16
4.0142082e-16
4.0249481e-16
4.02873e-16
4.0260396e-16
4.0061451e-16
3.9624389e-16
3.9035957e-16
3.8938588e-16
-9.7733577e-11
-1.0064176e-22
-1.9235149e-30
-8.4490796e-28
-3.6918947e-25
7.9726166e-25
7.3226892e-25
7.5263797e-25
7.4482213e-25
7.3775051e-25
7.3096095e-25
7.2437214e-25
7.1832687e-25
7.1320298e-25
7.0737965e-25
7.026931e-25
6.9905141e-25
6.9519136e-25
6.9197546e-25
6.8978677e-25
6.8781132e-25
6.8667492e-25
6.8636208e-25
6.8649198e-25
6.8662476e-25
6.8780858e-25
6.8916108e-25
6.9192702e-25
6.9279397e-25
6.9596416e-25
6.9900265e-25
7.0165288e-25
7.0335342e-25
7.0478724e-25
7.0475584e-25
6.9995893e-25
6.8614644e-25
6.5141329e-25
5.9932375e-25
7.5592307e-25
-2.8152972e-11
9.3962412e-24
4.1395686e-36
-2.1801862e-39
7.7674015e-35
-1.7127274e-34
-1.4255278e-33
-2.448482e-33
-2.3911906e-33
-2.4219892e-33
-2.4688509e-33
-2.5138164e-33
-2.5668378e-33
-2.6204428e-33
-2.675308e-33
-2.7382354e-33
-2.7938739e-33
-2.8600632e-33
-2.9254657e-33
-2.9998974e-33
-3.0707685e-33
-3.1500691e-33
-3.2322136e-33
-3.3206659e-33
-3.3851135e-33
-3.4807376e-33
-3.573958e-33
-3.6640799e-33
-3.7441858e-33
-3.8525997e-33
-3.9468862e-33
-4.0594521e-33
-4.1400343e-33
-4.2383566e-33
-4.3308062e-33
-4.4049748e-33
-4.478098e-33
-4.3914947e-33
-6.2215398e-33
3.6930618e-33
-1.5114309e-11
1.7154519e-24
3.9850333e-37
3.8759351e-49
4.0951342e-44
1.1612448e-44
2.5688138e-42
-6.1803111e-42
-7.078827e-42
-7.2089921e-42
-7.2394133e-42
-7.2567467e-42
-7.3269389e-42
-7.368029e-42
-7.4169327e-42
-7.5004076e-42
-7.5598682e-42
-7.6320268e-42
-7.7059161e-42
-7.8075588e-42
-7.8944583e-42
-7.9972905e-42
-8.1161048e-42
-8.2509661e-42
-8.3065574e-42
-8.440556e-42
-8.5732488e-42
-8.6972467e-42
-8.7916354e-42
-8.9472657e-42
-9.0799179e-42
-9.2460147e-42
-9.3504718e-42
-9.5160335e-42
-9.7057368e-42
-9.9281024e-42
-1.0317201e-41
-1.0997481e-41
-1.5517627e-41
2.9613348e-42
-1.1978652e-11
9.3973132e-25
1.6902485e-37
1.0819645e-49
1.9517994e-54
-4.7713709e-55
1.2770442e-50
-2.7506123e-51
-3.3549632e-51
-3.4586924e-51
-3.4820479e-51
-3.498509e-51
-3.5409928e-51
-3.5680369e-51
-3.5983566e-51
-3.6450747e-51
-3.680735e-51
-3.7208499e-51
-3.7612091e-51
-3.814771e-51
-3.8593578e-51
-3.9128076e-51
-3.9726078e-51
-4.0395946e-51
-4.0679185e-51
-4.1323547e-51
-4.1960458e-51
-4.2556923e-51
-4.2989845e-51
-4.3714511e-51
-4.4311408e-51
-4.5084111e-51
-4.5546156e-51
-4.6313556e-51
-4.7204213e-51
-4.8286084e-51
-5.0297081e-51
-5.4247313e-51
-8.0138188e-51
1.2690501e-51
-1.1980605e-11
8.4434873e-25
1.622172e-37
9.7939444e-50
2.3329134e-60
1.81756e-65
2.1109127e-59
-8.310473e-61
-1.0667086e-60
-1.1158311e-60
-1.1284495e-60
-1.1388354e-60
-1.1571711e-60
-1.170184e-60
-1.1840814e-60
-1.2031644e-60
-1.2185049e-60
-1.2350373e-60
-1.2515805e-60
-1.2722955e-60
-1.2900465e-60
-1.3102065e-60
-1.332655e-60
-1.3570807e-60
-1.3683242e-60
-1.3916406e-60
-1.4140125e-60
-1.4351139e-60
-1.4502002e-60
-1.4746994e-60
-1.4944691e-60
-1.5194444e-60
-1.5331159e-60
-1.5560566e-60
-1.5819429e-60
-1.6115155e-60
-1.66814e-60
-1.7902039e-60
-2.8165661e-60
5.6536554e-61
-1.3207465e-11
9.0457088e-25
2.5098977e-37
1.8690172e-49
3.6094127e-60
-1.7677969e-70
5.9693486e-68
-2.9172094e-70
-3.9092169e-70
-4.1571302e-70
-4.2273614e-70
-4.2855155e-70
-4.372294e-70
-4.4389456e-70
-4.5071345e-70
-4.5947432e-70
-4.6671306e-70
-4.7431562e-70
-4.8189516e-70
-4.9106448e-70
-4.9894205e-70
-5.076356e-70
-5.1742501e-70
-5.2769395e-70
-5.3288596e-70
-5.4254162e-70
-5.519003e-70
-5.6048402e-70
-5.6648917e-70
-5.7621835e-70
-5.8361181e-70
-5.9269868e-70
-5.9695204e-70
-6.0419452e-70
-6.1163227e-70
-6.1872867e-70
-6.3376709e-70
-6.7408685e-70
-1.1568938e-69
3.8426816e-70
-1.4426449e-11
9.7185442e-25
5.4634333e-37
6.0587169e-49
1.248201e-59
-1.0181331e-69
2.7113258e-75
-1.6335009e-79
-2.2566994e-79
-2.4377991e-79
-2.4898094e-79
-2.5318097e-79
-2.5905186e-79
-2.6371799e-79
-2.6825198e-79
-2.7412186e-79
-2.7898052e-79
-2.8387429e-79
-2.8895703e-79
-2.9498361e-79
-2.9998651e-79
-3.0569381e-79
-3.1195775e-79
-3.1854625e-79
-3.2191848e-79
-3.281568e-79
-3.3408893e-79
-3.394178e-79
-3.4327177e-79
-3.4916212e-79
-3.5351312e-79
-3.5881422e-79
-3.608707e-79
-3.6427442e-79
-3.6742614e-79
-3.69472e-79
-3.7482586e-79
-3.9806332e-79
-7.6361239e-79
4.091493e-79
-1.499285e-11
1.0022777e-24
2.1168693e-36
3.8356555e-48
9.8016605e-59
-1.6414814e-68
-2.7144845e-76
-2.4476848e-85
-2.0508877e-88
-2.2360431e-88
-2.2829639e-88
-2.3194065e-88
-2.3721501e-88
-2.4139195e-88
-2.4536497e-88
-2.5057564e-88
-2.5488209e-88
-2.5940251e-88
-2.639881e-88
-2.6939854e-88
-2.7403951e-88
-2.7938128e-88
-2.8517248e-88
-2.9125087e-88
-2.9454814e-88
-3.0034603e-88
-3.0608033e-88
-3.1113023e-88
-3.1497839e-88
-3.2060368e-88
-3.2486976e-88
-3.3016359e-88
-3.3226833e-88
-3.3590216e-88
-3.389141e-88
-3.4080924e-88
-3.454589e-88
-3.7202238e-88
-7.9429898e-88
4.7495845e-88
-1.5073447e-11
1.0120691e-24
-5.5341561e-36
-1.581503e-47
-5.2397376e-58
2.1521768e-67
5.4899198e-76
5.5976008e-85
5.6650196e-94
-2.2679094e-97
-2.3085081e-97
-2.3370292e-97
-2.3847022e-97
-2.4220057e-97
-2.4572352e-97
-2.5063756e-97
-2.5455304e-97
-2.5874613e-97
-2.6303138e-97
-2.6828974e-97
-2.7274171e-97
-2.7795255e-97
-2.8384056e-97
-2.8991176e-97
-2.9338111e-97
-2.9913607e-97
-3.0510551e-97
-3.105044e-97
-3.1483399e-97
-3.2100554e-97
-3.2590094e-97
-3.3204176e-97
-3.3516332e-97
-3.3996468e-97
-3.4446065e-97
-3.4790652e-97
-3.5503454e-97
-3.906676e-97
-8.9707671e-97
4.9059741e-97
-1.5027633e-11
1.0198707e-24
-2.4230197e-36
-9.4829545e-48
-3.914979e-58
4.7667187e-67
6.5297116e-76
6.0044498e-85
5.4821091e-94
5.0004077e-103
-2.1016729e-106
-2.1233489e-106
-2.1628831e-106
-2.1939535e-106
-2.2223644e-106
-2.2653714e-106
-2.2988137e-106
-2.3353309e-106
-2.3727012e-106
-2.4195738e-106
-2.4597595e-106
-2.5052025e-106
-2.5610723e-106
-2.6154871e-106
-2.6488971e-106
-2.7039356e-106
-2.7593165e-106
-2.8112487e-106
-2.8541914e-106
-2.9148939e-106
-2.9655308e-106
-3.0281378e-106
-3.0642155e-106
-3.1173295e-106
-3.1703351e-106
-3.2145322e-106
-3.299331e-106
-3.6983221e-106
-9.0195686e-106
4.6902968e-106
-1.5008251e-11
1.028965e-24
-2.0914231e-36
-9.7851174e-48
-4.6847485e-58
3.0663433e-66
3.3090319e-75
2.8007941e-84
2.360837e-93
1.9893307e-102
1.6744002e-111
-1.785657e-115
-1.8175348e-115
-1.8423193e-115
-1.864857e-115
-1.900312e-115
-1.9286822e-115
-1.9586902e-115
-1.9897316e-115
-2.0301865e-115
-2.0639819e-115
-2.1026683e-115
-2.1504792e-115
-2.1975478e-115
-2.2268358e-115
-2.2750352e-115
-2.3236837e-115
-2.3696291e-115
-2.407732e-115
-2.4637938e-115
-2.5085899e-115
-2.5672742e-115
-2.6018219e-115
-2.6529408e-115
-2.7048144e-115
-2.7483463e-115
-2.8320852e-115
-3.224788e-115
-8.364617e-115
4.409099e-115
-1.5021658e-11
1.0370249e-24
-1.9620812e-36
-1.0282862e-47
-5.3997183e-58
-3.2812229e-66
-3.2709041e-75
-2.7081204e-84
-2.2351663e-93
-1.8451244e-102
-1.5225712e-111
-1.2556462e-120
-1.4983178e-124
-1.5182993e-124
-1.5363922e-124
-1.5656703e-124
-1.58965e-124
-1.6143506e-124
-1.6394431e-124
-1.6730681e-124
-1.7017574e-124
-1.7339861e-124
-1.7745954e-124
-1.8147282e-124
-1.8399205e-124
-1.881347e-124
-1.922034e-124
-1.9623024e-124
-1.9968497e-124
-2.0448482e-124
-2.084531e-124
-2.1361508e-124
-2.1680972e-124
-2.214423e-124
-2.2609292e-124
-2.3002764e-124
-2.3778044e-124
-2.7463517e-124
-7.6032015e-124
4.1641485e-124
-1.5043991e-11
1.0429763e-24
-1.8419216e-36
-1.0602463e-47
-5.932528e-58
-1.5887274e-66
-1.5445605e-75
-1.2855432e-84
-1.0668695e-93
-8.858524e-103
-7.3499875e-112
-6.0998726e-121
-5.0607491e-130
-1.2590755e-133
-1.2738701e-133
-1.2981351e-133
-1.318306e-133
-1.3389107e-133
-1.3596868e-133
-1.3882871e-133
-1.4123532e-133
-1.4401714e-133
-1.4739261e-133
-1.5089765e-133
-1.5299385e-133
-1.565951e-133
-1.6004912e-133
-1.6354868e-133
-1.6657093e-133
-1.7081588e-133
-1.7424571e-133
-1.7882244e-133
-1.8163247e-133
-1.8578438e-133
-1.898468e-133
-1.9349847e-133
-2.0046764e-133
-2.3484439e-133
-6.9428543e-133
3.9519118e-133
-1.5062982e-11
1.0472649e-24
-1.73577e-36
-1.0876771e-47
-6.398502e-58
-1.1873949e-66
-1.1388589e-75
-9.553635e-85
-7.996951e-94
-6.6947937e-103
-5.6039852e-112
-4.6881786e-121
-3.9204585e-130
-3.2789165e-139
-1.0656001e-142
-1.0859202e-142
-1.1027128e-142
-1.1194474e-142
-1.1375564e-142
-1.1614388e-142
-1.1821807e-142
-1.2061532e-142
-1.2348597e-142
-1.2651034e-142
-1.2829603e-142
-1.3143244e-142
-1.3440525e-142
-1.37414e-142
-1.4012408e-142
-1.4378619e-142
-1.4689425e-142
-1.5084466e-142
-1.5337868e-142
-1.5708998e-142
-1.6070227e-142
-1.6397336e-142
-1.7028113e-142
-2.0226027e-142
-6.3836521e-142
3.7572714e-142
-1.507708e-11
1.0505584e-24
-1.6559207e-36
-1.1177339e-47
-6.8563341e-58
-1.0205784e-66
-9.6674e-76
-8.1514356e-85
-6.8515681e-94
-5.7607173e-103
-4.8420009e-112
-4.0693563e-121
-3.4188487e-130
-2.8727773e-139
-2.415833e-148
-9.1238655e-152
-9.2641243e-152
-9.4107182e-152
-9.563705e-152
-9.7677068e-152
-9.9438809e-152
-1.0150461e-151
-1.0396295e-151
-1.06552e-151
-1.0817916e-151
-1.1081293e-151
-1.134434e-151
-1.1607164e-151
-1.1842126e-151
-1.2159653e-151
-1.2436817e-151
-1.278478e-151
-1.3009073e-151
-1.3343681e-151
-1.3655738e-151
-1.3958552e-151
-1.4521054e-151
-1.7490901e-151
-5.8877786e-151
3.574635e-151
-1.5087819e-11
1.0532299e-24
-1.5995604e-36
-1.1492805e-47
-7.300364e-58
-9.4450604e-67
-8.8461022e-76
-7.4719694e-85
-6.2974227e-94
-5.3088044e-103
-4.4759495e-112
-3.7726109e-121
-3.1794525e-130
-2.679902e-139
-2.2579928e-148
-1.9040854e-157
-7.8132565e-161
-7.9329255e-161
-8.0677279e-161
-8.2418755e-161
-8.3942368e-161
-8.5668281e-161
-8.7829953e-161
-9.0046442e-161
-9.1468736e-161
-9.3753001e-161
-9.6001968e-161
-9.8323787e-161
-1.0039167e-160
-1.0318288e-160
-1.0562633e-160
-1.0865187e-160
-1.1070589e-160
-1.1364701e-160
-1.163618e-160
-1.1908596e-160
-1.2413407e-160
-1.515817e-160
-5.4380667e-160
3.4066179e-160
-1.5096442e-11
1.0554342e-24
-1.5593193e-36
-1.1797506e-47
-7.7135116e-58
-9.086686e-67
-8.4403554e-76
-7.1465181e-85
-6.0378508e-94
-5.1028752e-103
-4.3121292e-112
-3.6431261e-121
-3.0784424e-130
-2.6016182e-139
-2.1989646e-148
-1.859116e-157
-1.5723282e-166
-6.707517e-170
-6.82419e-170
-6.9751944e-170
-7.1055303e-170
-7.2524711e-170
-7.4400491e-170
-7.6318013e-170
-7.7602485e-170
-7.9569057e-170
-8.1547359e-170
-8.3566278e-170
-8.536365e-170
-8.7802358e-170
-8.9954249e-170
-9.2613448e-170
-9.4443779e-170
-9.6998512e-170
-9.9387898e-170
-1.0182727e-169
-1.0632742e-169
-1.3161047e-169
-5.0358189e-169
3.253958e-169
-1.5103547e-11
1.0572546e-24
-1.5293872e-36
-1.207751e-47
-8.0868745e-58
-8.9266078e-67
-8.2531821e-76
-7.0092371e-85
-5.9368408e-94
-5.0324246e-103
-4.2660574e-112
-3.6160309e-121
-3.0652717e-130
-2.5990829e-139
-2.2045939e-148
-1.8705766e-157
-1.5873429e-166
-1.3478639e-175
-5.7930161e-179
-5.9230046e-179
-6.035717e-179
-6.162151e-179
-6.324515e-179
-6.4923249e-179
-6.6059304e-179
-6.7753827e-179
-6.9487797e-179
-7.1275797e-179
-7.2825897e-179
-7.4978229e-179
-7.6813742e-179
-7.917159e-179
-8.0799257e-179
-8.3062389e-179
-8.5152938e-179
-8.7281023e-179
-9.1324076e-179
-1.1460288e-178
-4.675017e-178
3.1164823e-178
-1.5109447e-11
1.0587601e-24
-1.5062895e-36
-1.2329211e-47
-8.4203575e-58
-8.8642064e-67
-8.1703269e-76
-6.9586613e-85
-5.9156387e-94
-5.0286778e-103
-4.2771143e-112
-3.6372487e-121
-3.0933252e-130
-2.631987e-139
-2.2403369e-148
-1.9064897e-157
-1.6234413e-166
-1.3829343e-175
-1.1789762e-184
-5.0502377e-188
-5.1473498e-188
-5.2577102e-188
-5.3966156e-188
-5.544976e-188
-5.6452595e-188
-5.7908036e-188
-5.9417896e-188
-6.0995868e-188
-6.2362898e-188
-6.4235777e-188
-6.5859415e-188
-6.7936728e-188
-6.9361474e-188
-7.136342e-188
-7.3186897e-188
-7.5048171e-188
-7.8704189e-188
-1.0008804e-187
-4.3549165e-187
2.9941047e-187
-1.5114361e-11
1.0600115e-24
-1.488045e-36
-1.2553438e-47
-8.7166981e-58
-8.8603077e-67
-8.153813e-76
-6.9684685e-85
-5.9434589e-94
-5.0728993e-103
-4.3294844e-112
-3.6963983e-121
-3.1568864e-130
-2.6973234e-139
-2.3056046e-148
-1.9705489e-157
-1.6852698e-166
-1.4415203e-175
-1.2332281e-184
-1.0561035e-193
-4.4080623e-197
-4.5040744e-197
-4.6241885e-197
-4.7530163e-197
-4.8430989e-197
-4.9702899e-197
-5.1028828e-197
-5.2406021e-197
-5.3603666e-197
-5.5276116e-197
-5.6697599e-197
-5.8504101e-197
-5.9772961e-197
-6.1530219e-197
-6.3115635e-197
-6.4784837e-197
-6.8085883e-197
-8.771499e-197
-4.0732534e-196
2.8875033e-196
-1.511847e-11
1.0610582e-24
-1.4734193e-36
-1.2751869e-47
-8.9786761e-58
-8.884839e-67
-8.175892e-76
-7.012698e-85
-6.0034435e-94
-5.1441634e-103
-4.4085714e-112
-3.7798896e-121
-3.240645e-130
-2.7802606e-139
-2.3852561e-148
-2.0477149e-157
-1.7585229e-166
-1.5106022e-175
-1.2980749e-184
-1.1156801e-193
-9.6014676e-203
-3.8738134e-206
-3.9804551e-206
-4.0936685e-206
-4.1740298e-206
-4.2851095e-206
-4.4017906e-206
-4.5254636e-206
-4.6296734e-206
-4.7751258e-206
-4.9009952e-206
-5.0596995e-206
-5.1703437e-206
-5.3267129e-206
-5.4681122e-206
-5.6158609e-206
-5.9107716e-206
-7.7170605e-206
-3.8241211e-205
2.7964952e-205
-1.5121921e-11
1.0619385e-24
-1.4615646e-36
-1.2926787e-47
-9.2104182e-58
-8.9356752e-67
-8.2316432e-76
-7.0939853e-85
-6.101114e-94
-5.2488936e-103
-4.5187659e-112
-3.890443e-121
-3.3520452e-130
-2.8876955e-139
-2.4894807e-148
-2.1462451e-157
-1.8516686e-166
-1.5977687e-175
-1.3789587e-184
-1.1911373e-193
-1.0292663e-202
-8.8980734e-212
-3.441699e-215
-3.5416707e-215
-3.6142193e-215
-3.7124078e-215
-3.8143287e-215
-3.9230971e-215
-4.0168541e-215
-4.1448181e-215
-4.2562087e-215
-4.3964585e-215
-4.4941092e-215
-4.6324219e-215
-4.7562878e-215
-4.8886322e-215
-5.1534274e-215
-6.8227637e-215
-3.6062295e-214
2.7216935e-214
-1.5124832e-11
1.0626822e-24
-1.4518614e-36
-1.3080501e-47
-9.4148717e-58
-8.9945069e-67
-8.3000207e-76
-7.1819756e-85
-6.2024898e-94
-5.3595941e-103
-4.6330024e-112
-4.0077929e-121
-3.4683125e-130
-3.0023918e-139
-2.6001897e-148
-2.2524564e-157
-1.9521833e-166
-1.6932112e-175
-1.4694704e-184
-1.2750604e-193
-1.1072404e-202
-9.6191532e-212
-8.3652883e-221
-3.0781844e-224
-3.1437734e-224
-3.2314672e-224
-3.3212032e-224
-3.4173541e-224
-3.5003805e-224
-3.614095e-224
-3.7138393e-224
-3.8378725e-224
-3.9260122e-224
-4.0470212e-224
-4.1581839e-224
-4.2737877e-224
-4.5141022e-224
-6.0555733e-224
-3.4174028e-223
2.6611483e-223
-1.5127298e-11
1.0633132e-24
-1.4438512e-36
-1.3215228e-47
-9.5946482e-58
-9.0665557e-67
-8.3899229e-76
-7.2921355e-85
-6.3291411e-94
-5.4962675e-103
-4.7752832e-112
-4.1524327e-121
-3.6108992e-130
-3.1408567e-139
-2.7338399e-148
-2.3816701e-157
-2.0745403e-166
-1.8082589e-175
-1.5765367e-184
-1.3752742e-193
-1.2001561e-202
-1.0482339e-211
-9.1567108e-221
-8.0050853e-230
-2.7493019e-233
-2.8264905e-233
-2.9062866e-233
-2.9927222e-233
-3.0667898e-233
-3.1669816e-233
-3.2563305e-233
-3.3663155e-233
-3.445111e-233
-3.5531167e-233
-3.6524278e-233
-3.7546016e-233
-3.9726582e-233
-5.4014505e-233
-3.2554089e-232
2.6157725e-232
-1.5129394e-11
1.0638504e-24
-1.4371897e-36
-1.3333185e-47
-9.7531059e-58
-9.1401777e-67
-8.4864476e-76
-7.4146463e-85
-6.467639e-94
-5.6456964e-103
-4.9303818e-112
-4.3094831e-121
-3.7670635e-130
-3.2956066e-139
-2.8835916e-148
-2.5248608e-157
-2.2114901e-166
-1.9382208e-175
-1.6993643e-184
-1.4900797e-193
-1.3074929e-202
-1.1479097e-211
-1.0083038e-220
-8.8607342e-230
-7.7928846e-239
-2.4866248e-242
-2.5586735e-242
-2.6351121e-242
-2.7012708e-242
-2.7918914e-242
-2.8706081e-242
-2.9682086e-242
-3.0401686e-242
-3.1370158e-242
-3.2244182e-242
-3.3170432e-242
-3.5161223e-242
-4.8454745e-242
-3.1192755e-241
2.5866741e-241
-1.513118e-11
1.0643092e-24
-1.4316111e-36
-1.3436315e-47
-9.8923353e-58
-9.217974e-67
-8.5961053e-76
-7.5484763e-85
-6.6178667e-94
-5.804773e-103
-5.0981703e-112
-4.4785217e-121
-3.9367643e-130
-3.4626484e-139
-3.0467872e-148
-2.6816052e-157
-2.3632182e-166
-2.0827173e-175
-1.836556e-184
-1.6202442e-193
-1.4299904e-202
-1.2635209e-211
-1.116338e-220
-9.8733114e-230
-8.7317765e-239
-7.7288047e-248
-2.2645591e-251
-2.3343689e-251
-2.3934774e-251
-2.4756068e-251
-2.545237e-251
-2.6336794e-251
-2.6979681e-251
-2.7847786e-251
-2.8629842e-251
-2.9471946e-251
-3.128304e-251
-4.3717262e-251
-3.0062619e-250
2.5737426e-250
-1.5132708e-11
1.0647023e-24
-1.4269177e-36
-1.3526674e-47
-1.0015687e-57
-9.3028742e-67
-8.7097751e-76
-7.6936744e-85
-6.7833678e-94
-5.9868155e-103
-5.2880236e-112
-4.6742323e-121
-4.133619e-130
-3.6580088e-139
-3.2399002e-148
-2.8698584e-157
-2.5435223e-166
-2.2551477e-175
-2.0005883e-184
-1.7761648e-193
-1.5774765e-202
-1.401289e-211
-1.2455435e-220
-1.1077303e-229
-9.8551016e-239
-8.7729924e-248
-7.8167975e-257
-2.0794508e-260
-2.1333661e-260
-2.2072857e-260
-2.2714519e-260
-2.35039e-260
-2.4089165e-260
-2.4876756e-260
-2.5582486e-260
-2.6337791e-260
-2.8003481e-260
-3.9666506e-260
-2.9168247e-259
2.5787471e-259
-1.5134017e-11
1.0650402e-24
-1.4229453e-36
-1.3605671e-47
-1.0124389e-57
-9.3898569e-67
-8.8353909e-76
-7.8524592e-85
-6.9672672e-94
-6.1879048e-103
-5.4992291e-112
-4.8912261e-121
-4.3518187e-130
-3.874654e-139
-3.4517012e-148
-3.0764232e-157
-2.7446178e-166
-2.4491912e-175
-2.1868878e-184
-1.9541005e-193
-1.7458317e-202
-1.5610348e-211
-1.3957014e-220
-1.2495655e-229
-1.1190352e-238
-1.0028554e-247
-8.9858184e-257
-8.0567019e-266
-1.9138909e-269
-1.981106e-269
-2.0387885e-269
-2.1107708e-269
-2.1640059e-269
-2.2348966e-269
-2.2993193e-269
-2.3682859e-269
-2.5231391e-269
-3.6214582e-269
-2.8486588e-268
2.6012636e-268
-1.5135142e-11
1.0653313e-24
-1.4195688e-36
-1.3674884e-47
-1.0220228e-57
-9.478924e-67
-8.9706662e-76
-8.0220772e-85
-7.1657757e-94
-6.405163e-103
-5.7310625e-112
-5.1295423e-121
-4.5935733e-130
-4.1168121e-139
-3.6921774e-148
-3.3127058e-157
-2.9744799e-166
-2.6717565e-175
-2.4016027e-184
-2.1597796e-193
-1.9436615e-202
-1.7496603e-211
-1.575876e-220
-1.4204893e-229
-1.2807118e-238
-1.1546687e-247
-1.0420154e-256
-9.4034759e-266
-8.4940108e-275
-1.7896526e-278
-1.8431539e-278
-1.9077381e-278
-1.9570868e-278
-2.0214964e-278
-2.0813879e-278
-2.1443752e-278
-2.2879871e-278
-3.3295317e-278
-2.8028494e-277
2.6433002e-277
-1.5136111e-11
1.0655828e-24
-1.4166883e-36
-1.3735534e-47
-1.0305584e-57
-9.565562e-67
-9.1099333e-76
-8.2053266e-85
-7.376389e-94
-6.6391863e-103
-5.9797885e-112
-5.3898541e-121
-4.8611089e-130
-4.3861146e-139
-3.9608827e-148
-3.5795724e-157
-3.2369875e-166
-2.9285918e-175
-2.6510723e-184
-2.4012267e-193
-2.1747099e-202
-1.9715627e-211
-1.7874904e-220
-1.6222538e-229
-1.4726812e-238
-1.3379436e-247
-1.2159937e-256
-1.1057122e-265
-1.0056142e-274
-9.1533123e-284
-1.6777772e-287
-1.7372813e-287
-1.7827126e-287
-1.84207e-287
-1.8968717e-287
-1.9545992e-287
-2.088818e-287
-3.0827383e-287
-2.778143e-286
2.7066648e-286
-1.5136947e-11
1.0658006e-24
-1.4142208e-36
-1.3788764e-47
-1.0381994e-57
-9.657852e-67
-9.2643215e-76
-8.3990796e-85
-7.6087407e-94
-6.8983854e-103
-6.2552464e-112
-5.6792317e-121
-5.1570989e-130
-4.6872483e-139
-4.263212e-148
-3.8817893e-157
-3.5365034e-166
-3.2234062e-175
-2.9386632e-184
-2.6805732e-193
-2.4469461e-202
-2.2352358e-211
-2.0421223e-220
-1.8666699e-229
-1.707415e-238
-1.5619507e-247
-1.4297964e-256
-1.3093417e-265
-1.1995461e-274
-1.0993793e-283
-1.007793e-292
-1.5931637e-296
-1.6350898e-296
-1.6903541e-296
-1.7416175e-296
-1.794658e-296
-1.9213845e-296
-2.8746601e-296
-2.7766891e-295
2.7946725e-295
-1.513767e-11
1.0659897e-24
-1.412101e-36
-1.3835613e-47
-1.0449911e-57
-9.7581264e-67
-9.4289017e-76
-8.6146484e-85
-7.8601614e-94
-7.1807132e-103
-6.5639135e-112
-6.0027073e-121
-5.4946236e-130
-5.0324189e-139
-4.611534e-148
-4.229397e-157
-3.8814572e-166
-3.5647465e-175
-3.2765172e-184
-3.0127785e-193
-2.7716383e-202
-2.5506984e-211
-2.3490763e-220
-2.1635775e-229
-1.9945796e-238
-1.838636e-247
-1.6960759e-256
-1.5653513e-265
-1.4452856e-274
-1.3351425e-283
-1.2337247e-292
-1.1406433e-301
-1.5123522e-305
-1.5631999e-305
-1.6114759e-305
-1.6604779e-305
-1.7808676e-305
-2.7019778e-305
-2.7985054e-304
2.9108427e-304
-1.5138295e-11
1.0661543e-24
-1.4102726e-36
-1.3876807e-47
-1.0510458e-57
-9.8521588e-67
-9.5907182e-76
-8.828258e-85
-8.1163835e-94
-7.4697438e-103
-6.8808773e-112
-6.3448177e-121
-5.8513228e-130
-5.401944e-139
-4.989962e-148
-4.6139947e-157
-4.2684269e-166
-3.9513406e-175
-3.6599728e-184
-3.3902246e-193
-3.1440265e-202
-2.9179419e-211
-2.7083593e-220
-2.5153363e-229
-2.3371006e-238
-2.1731445e-247
-2.0204434e-256
-1.8794633e-265
-1.7490868e-274
-1.6288251e-283
-1.516865e-292
-1.4132527e-301
-1.3168514e-310
2.2806446e-315
1.8356674e-314
2.0502312e-314
2.0227128e-314
-6.0828243e-314
-2.876846e-313
3.167383e-313
-1.5138838e-11
1.0662979e-24
-1.408693e-36
-1.3913219e-47
-1.0565538e-57
-9.9575821e-67
-9.7674951e-76
-9.06954e-85
-8.4057721e-94
-7.7988619e-103
-7.2439753e-112
-6.7334645e-121
-6.2635703e-130
-5.8317803e-139
-5.4315451e-148
-5.066042e-157
-4.725174e-166
-4.4113024e-175
-4.1197332e-184
-3.8504673e-193
-3.6009786e-202
-3.3678253e-211
-3.151893e-220
-2.9514266e-229
-2.7661857e-238
-2.5933413e-247
-2.4324221e-256
-2.2826705e-265
-2.1420505e-274
-2.011852e-283
-1.8893509e-292
-1.7754329e-301
-1.6686138e-310
2.1490293e-314
-1.4101966e-314
-5.5065765e-315
7.7320656e-315
-1.6959463e-314
9.3217773e-315
2.2949908e-314
-1.5139309e-11
1.0664236e-24
-1.4073218e-36
-1.3945466e-47
-1.0615081e-57
-1.0059651e-66
-9.9550572e-76
-9.3138038e-85
-8.7097703e-94
-8.1504044e-103
-7.634588e-112
-7.1583341e-121
-6.7140456e-130
-6.3055421e-139
-5.9250783e-148
-5.5687498e-157
-5.2398395e-166
-4.9333001e-175
-4.6475785e-184
-4.37999e-193
-4.1312925e-202
-3.9005672e-211
-3.6826309e-220
-3.4800007e-229
-3.2899365e-238
-3.1117072e-247
-2.9453442e-256
-2.7883327e-265
-2.6398698e-274
-2.4996937e-283
-2.3688718e-292
-2.2459253e-301
-2.1301939e-310
1.2571823e-314
-1.6942444e-314
9.7395784e-315
-1.2174316e-314
8.8240149e-315
-1.3735594e-314
-2.1403366e-314
-1.5139718e-11
1.0665339e-24
-1.4061309e-36
-1.397405e-47
-1.0659954e-57
-1.016648e-66
-1.015503e-75
-9.5910372e-85
-9.0454e-94
-8.5435782e-103
-8.0742402e-112
-7.6396446e-121
-7.2300733e-130
-6.8502233e-139
-6.4950604e-148
-6.164218e-157
-5.8542903e-166
-5.564163e-175
-5.289883e-184
-5.0351437e-193
-4.7932145e-202
-4.565955e-211
-4.3521286e-220
-4.1480005e-229
-3.9590456e-238
-3.7789236e-247
-3.6089143e-256
-3.4456541e-265
-3.2916219e-274
-3.146791e-283
-3.0101278e-292
-2.8800108e-301
-2.7552251e-310
-3.4327981e-316
-1.5503107e-314
-8.852254e-315
-8.0314341e-315
2.1595603e-314
-2.4985359e-314
-6.612913e-316
-1.5140075e-11
1.0666308e-24
-1.4050905e-36
-1.3999536e-47
-1.0702071e-57
-1.0278705e-66
-1.0359923e-75
-9.8759334e-85
-9.4032995e-94
-8.9620155e-103
-8.5467898e-112
-8.1608401e-121
-7.7980346e-130
-7.4549585e-139
-7.1356007e-148
-6.8329617e-157
-6.5465919e-166
-6.2798179e-175
-6.026089e-184
-5.7878774e-193
-5.5592849e-202
-5.3450113e-211
-5.1414383e-220
-4.9490388e-229
-4.7674503e-238
-4.5918981e-247
-4.4259715e-256
-4.2681762e-265
-4.1179624e-274
-3.9746517e-283
-3.8373231e-292
-3.7062063e-301
-3.5800373e-310
8.0582502e-318
1.8965273e-314
-1.6464012e-314
-6.917468e-315
-2.3730738e-315
-1.2070198e-314
2.6079994e-314
-1.5140384e-11
1.0667164e-24
-1.4041821e-36
-1.4022374e-47
-1.0739792e-57
-1.0395867e-66
-1.0586924e-75
-1.0189683e-84
-9.7978332e-94
-9.4284133e-103
-9.0802199e-112
-8.7475388e-121
-8.4422684e-130
-8.1543331e-139
-7.8841616e-148
-7.6250527e-157
-7.3811404e-166
-7.1478207e-175
-6.9278184e-184
-6.720752e-193
-6.5242893e-202
-6.337485e-211
-6.1590526e-220
-5.9858818e-229
-5.8223408e-238
-5.6680075e-247
-5.5164807e-256
-5.3724985e-265
-5.2351066e-274
-5.1017776e-283
-4.9742226e-292
-4.8505158e-301
-4.7329835e-310
-2.4087709e-314
-1.3732995e-314
1.3927291e-314
-1.2762685e-314
4.2643792e-315
2.4384175e-314
7.4935484e-315
-1.5140654e-11
1.0667922e-24
-1.4033856e-36
-1.4042716e-47
-1.0775134e-57
-1.0521027e-66
-1.0822109e-75
-1.0523161e-84
-1.0222284e-93
-9.9392805e-103
-9.6687028e-112
-9.4165797e-121
-9.1796692e-130
-8.9580665e-139
-8.7446647e-148
-8.5451399e-157
-8.3572027e-166
-8.1818011e-175
-8.0128864e-184
-7.851819e-193
-7.6965669e-202
-7.5511541e-211
-7.4139086e-220
-7.2799736e-229
-7.1521933e-238
-7.034418e-247
-6.9165774e-256
-6.8048231e-265
-6.7014304e-274
-6.5994264e-283
-6.5013737e-292
-6.4066126e-301
-6.3135584e-310
-2.2312697e-314
-2.3676692e-314
1.4378165e-314
4.4885331e-315
-3.0933727e-315
1.5963234e-314
-2.1386719e-314
-1.5140889e-11
1.0668595e-24
-1.4026855e-36
-1.4061193e-47
-1.0808411e-57
-1.0648925e-66
-1.1077152e-75
-1.0884024e-84
-1.0679925e-93
-1.049032e-102
-1.0315102e-111
-1.0154004e-120
-1.0001496e-129
-9.8620094e-139
-9.7339693e-148
-9.6107607e-157
-9.4968696e-166
-9.3902714e-175
-9.2930522e-184
-9.1990353e-193
-9.1155447e-202
-9.0367702e-211
-8.9640301e-220
-8.8968375e-229
-8.8338614e-238
-8.7757397e-247
-8.7225835e-256
-8.6746227e-265
-8.6295166e-274
-8.5899567e-283
-8.5513025e-292
-8.5167399e-301
-8.487084e-310
1.5791253e-314
1.1365609e-314
-1.5582839e-314
-2.3945457e-314
-2.0761756e-314
1.1568583e-314
1.5041583e-315
-1.5141094e-11
1.0669195e-24
-1.4020683e-36
-1.4077906e-47
-1.0839101e-57
-1.0775238e-66
-1.1335127e-75
-1.1254026e-84
-1.1168738e-93
-1.1090557e-102
-1.1024886e-111
-1.0974804e-120
-1.0929927e-129
-1.0894975e-138
-1.0871835e-147
-1.0857364e-156
-1.0847148e-165
-1.0842673e-174
-1.0850692e-183
-1.086446e-192
-1.0884894e-201
-1.0914034e-210
-1.0949027e-219
-1.0988357e-228
-1.1036526e-237
-1.1091774e-246
-1.1146582e-255
-1.1214665e-264
-1.1283157e-273
-1.1354151e-282
-1.1432343e-291
-1.1508801e-300
-1.1593836e-309
-1.7969393e-314
1.862959e-314
7.5908885e-315
-1.0543839e-314
-1.5046283e-314
1.7928158e-314
-1.85066e-314
-1.5141272e-11
1.0669733e-24
-1.4015235e-36
-1.4093095e-47
-1.086825e-57
-1.091369e-66
-1.1620624e-75
-1.1670141e-84
-1.1706671e-93
-1.1757098e-102
-1.1820279e-111
-1.1898007e-120
-1.1986408e-129
-1.2083854e-138
-1.2187597e-147
-1.230273e-156
-1.2429137e-165
-1.2572751e-174
-1.2726044e-183
-1.288692e-192
-1.3057457e-201
-1.3241936e-210
-1.3437114e-219
-1.3643826e-228
-1.3861173e-237
-1.4083042e-246
-1.4323918e-255
-1.4573714e-264
-1.4823509e-273
-1.5091356e-282
-1.5367415e-291
-1.5654417e-300
-1.595372e-309
2.4382975e-314
-5.9653275e-315
-2.1959777e-314
1.9389809e-314
-4.8018557e-315
2.0582838e-314
2.1776027e-315
-1.5141426e-11
1.0670216e-24
-1.4010387e-36
-1.4106931e-47
-1.0895801e-57
-1.1060084e-66
-1.1916655e-75
-1.2109575e-84
-1.2292811e-93
-1.2486355e-102
-1.2702562e-111
-1.2931755e-120
-1.3175533e-129
-1.343996e-138
-1.3718081e-147
-1.4022508e-156
-1.4340918e-165
-1.4679089e-174
-1.5036445e-183
-1.5415546e-192
-1.5810816e-201
-1.6220974e-210
-1.66553e-219
-1.7102222e-228
-1.7588597e-237
-1.8097326e-246
-1.8626922e-255
-1.9173741e-264
-1.974087e-273
-2.0339175e-282
-2.0959472e-291
-2.1610718e-300
-2.2294667e-309
1.1961181e-314
1.9576309e-314
2.1725597e-314
-1.0612724e-315
-1.978675e-314
-1.2678065e-314
-3.7452647e-315
-1.514156e-11
1.0670653e-24
-1.4006095e-36
-1.411979e-47
-1.0922644e-57
-1.1215106e-66
-1.2233253e-75
-1.2585101e-84
-1.2932073e-93
-1.3298748e-102
-1.3692143e-111
-1.4116974e-120
-1.4563378e-129
-1.5038051e-138
-1.5544466e-147
-1.6084467e-156
-1.6653011e-165
-1.7256343e-174
-1.789176e-183
-1.856795e-192
-1.9276686e-201
-2.0021939e-210
-2.0808237e-219
-2.1647062e-228
-2.2533879e-237
-2.346931e-246
-2.4454576e-255
-2.547573e-264
-2.6568446e-273
-2.7721206e-282
-2.893498e-291
-3.0205342e-300
-3.1545265e-309
1.9739571e-314
1.5868035e-314
2.3179631e-314
1.7565026e-314
-4.1693211e-316
2.1389561e-314
-2.113915e-314
-1.5141675e-11
1.0671052e-24
-1.4002266e-36
-1.4131687e-47
-1.0948228e-57
-1.1371413e-66
-1.2570898e-75
-1.3090758e-84
-1.3621713e-93
-1.4189202e-102
-1.4794891e-111
-1.5442621e-120
-1.6132205e-129
-1.6871282e-138
-1.7661493e-147
-1.8502821e-156
-1.9412568e-165
-2.0364458e-174
-2.138877e-183
-2.2477359e-192
-2.3646477e-201
-2.4883951e-210
-2.6200852e-219
-2.7602841e-228
-2.9096884e-237
-3.0683902e-246
-3.2372149e-255
-3.4186881e-264
-3.611178e-273
-3.8163765e-282
-4.0339198e-291
-4.2661327e-300
-4.512746e-309
-1.6746489e-314
2.1274243e-314
3.3391312e-315
7.284779e-315
1.7634795e-314
1.974507e-314
-1.5970598e-314
-1.5141774e-11
1.0671415e-24
-1.3998843e-36
-1.414285e-47
-1.0973475e-57
-1.1532766e-66
-1.2923705e-75
-1.3637388e-84
-1.436947e-93
-1.5166929e-102
-1.6026686e-111
-1.6946426e-120
-1.7939823e-129
-1.9005792e-138
-2.0160563e-147
-2.1393667e-156
-2.2728882e-165
-2.4164511e-174
-2.5709601e-183
-2.7381803e-192
-2.9181634e-201
-3.1145378e-210
-3.3224104e-219
-3.5470562e-228
-3.7882241e-237
-4.0492805e-246
-4.3299772e-255
-4.6328071e-264
-4.9579436e-273
-5.3084245e-282
-5.6839492e-291