/*--------------------------------*- C++ -*----------------------------------*\
  =========                 |
  \\      /  F ield         | OpenFOAM: The Open Source CFD Toolbox
   \\    /   O peration     | Website:  https://openfoam.org
    \\  /    A nd           | Version:  10
     \\/     M anipulation  |
\*---------------------------------------------------------------------------*/
FoamFile
{
    format      ascii;
    class       volScalarField;
    location    "0.01";
    object      TporMedia_0;
}
// * * * * * * * * * * * * * * * * * * * * * * * * * * * * * * * * * * * * * //

dimensions      [0 0 0 1 0 0 0];

internalField   nonuniform List<scalar> 
4000
(
-1.2784296e-08
2.340892e-09
-3.7427193e-08
-3.3096697e-07
-4.496111e-06
-3.4098837e-06
-3.542965e-06
-3.5523322e-06
-3.5501644e-06
-3.5599702e-06
-3.5680728e-06
-3.5925192e-06
-3.6007961e-06
-3.6075239e-06
-3.6097172e-06
-3.6279202e-06
-3.6175892e-06
-3.6139539e-06
-3.6024228e-06
-3.5926559e-06
-3.5722232e-06
-3.5473822e-06
-3.5267123e-06
-3.502383e-06
-3.4658138e-06
-3.4369807e-06
-3.4016296e-06
-3.3601308e-06
-3.3301618e-06
-3.2849941e-06
-3.2456702e-06
-3.2075768e-06
-3.1782921e-06
-3.1501781e-06
-3.1295136e-06
-3.1423833e-06
-3.1766218e-06
-3.2450087e-06
-3.316422e-06
-4.4370991e-06
-6.1965398e-10
1.1504029e-21
-3.5303711e-19
1.6681566e-17
8.8921296e-15
-3.10584e-14
4.1524556e-14
3.8455672e-14
3.91084e-14
4.0104531e-14
4.0783548e-14
4.1693482e-14
4.2662018e-14
4.3300414e-14
4.3724771e-14
4.433858e-14
4.4528396e-14
4.4658119e-14
4.4280278e-14
4.3960417e-14
4.3621203e-14
4.2961588e-14
4.2426066e-14
4.1309869e-14
4.0151473e-14
3.9101905e-14
3.7729231e-14
3.6688593e-14
3.5453322e-14
3.3915176e-14
3.2713003e-14
3.1551633e-14
3.0344532e-14
2.9423453e-14
2.8932679e-14
2.895107e-14
3.0124254e-14
3.4603989e-14
4.4351606e-14
3.2936956e-14
-6.4443153e-11
-7.5068694e-23
-3.4741311e-31
2.1752329e-28
-1.7607232e-24
1.8650589e-23
-3.4961652e-23
-3.2604102e-23
-3.3355646e-23
-3.4378895e-23
-3.5164693e-23
-3.6148662e-23
-3.7196629e-23
-3.7943874e-23
-3.8516942e-23
-3.9229481e-23
-3.9605153e-23
-3.9873908e-23
-3.9705814e-23
-3.9558819e-23
-3.9391545e-23
-3.8916093e-23
-3.8553868e-23
-3.7631905e-23
-3.6671871e-23
-3.5783166e-23
-3.4582933e-23
-3.3672396e-23
-3.2592006e-23
-3.1204282e-23
-3.0130605e-23
-2.9079191e-23
-2.801513e-23
-2.7191133e-23
-2.6793496e-23
-2.689159e-23
-2.8222299e-23
-3.3060297e-23
-4.4404484e-23
-3.1591222e-23
-2.1446597e-11
6.2846339e-24
2.0924248e-36
4.5854119e-40
1.3427927e-34
-2.5225826e-33
1.8666635e-32
1.9682627e-32
2.0001685e-32
2.0704938e-32
2.1284929e-32
2.1993016e-32
2.2747405e-32
2.331581e-32
2.3785265e-32
2.434272e-32
2.4701228e-32
2.4986336e-32
2.4992247e-32
2.5013063e-32
2.5007643e-32
2.4813611e-32
2.468256e-32
2.4188602e-32
2.3662369e-32
2.3174228e-32
2.2488916e-32
2.1967253e-32
2.1334224e-32
2.0501463e-32
1.9852705e-32
1.9226329e-32
1.8577312e-32
1.8090399e-32
1.7871619e-32
1.7973145e-32
1.888581e-32
2.2025609e-32
3.0096154e-32
3.3123037e-32
-1.2897685e-11
1.5333645e-24
3.0132274e-37
2.8854676e-49
-8.8574244e-45
1.5686621e-43
-1.9206166e-41
-1.0150986e-40
-7.4075682e-41
-7.4939028e-41
-7.7440893e-41
-8.0329781e-41
-8.3338517e-41
-8.5811991e-41
-8.7957557e-41
-9.0615774e-41
-9.2307698e-41
-9.410534e-41
-9.4950612e-41
-9.5904482e-41
-9.6873363e-41
-9.7128937e-41
-9.7552318e-41
-9.6784141e-41
-9.5888659e-41
-9.5288739e-41
-9.3639138e-41
-9.3082111e-41
-9.1768301e-41
-8.9986902e-41
-8.8818179e-41
-8.7328896e-41
-8.5910531e-41
-8.4936544e-41
-8.4653629e-41
-8.4792485e-41
-8.6272996e-41
-8.9297544e-41
-1.0261987e-40
7.2152865e-41
-1.1068549e-11
9.7619161e-25
1.6778091e-37
1.2052611e-49
2.1968983e-54
-7.1762429e-54
-6.9270626e-50
-5.9302151e-50
-4.7231896e-50
-4.8601773e-50
-5.0578358e-50
-5.2814754e-50
-5.513466e-50
-5.7124985e-50
-5.8846795e-50
-6.0928719e-50
-6.2379462e-50
-6.3862359e-50
-6.4678858e-50
-6.5564174e-50
-6.6457678e-50
-6.6810925e-50
-6.728455e-50
-6.6869201e-50
-6.6378395e-50
-6.6063257e-50
-6.4964065e-50
-6.4616367e-50
-6.371283e-50
-6.2444367e-50
-6.1595094e-50
-6.0435542e-50
-5.9344707e-50
-5.8509909e-50
-5.8160813e-50
-5.800318e-50
-5.8751596e-50
-6.0722826e-50
-7.6625081e-50
5.6142733e-50
-1.1546165e-11
9.149562e-25
1.8977931e-37
1.4419321e-49
1.150532e-59
3.4681203e-64
-1.6726207e-58
-2.8367821e-59
-2.4304652e-59
-2.5486684e-59
-2.674495e-59
-2.8138982e-59
-2.9574235e-59
-3.0842583e-59
-3.1968829e-59
-3.3279391e-59
-3.425298e-59
-3.5245812e-59
-3.5853315e-59
-3.6496266e-59
-3.7135928e-59
-3.7469368e-59
-3.7865991e-59
-3.7739765e-59
-3.7558817e-59
-3.7455005e-59
-3.6909435e-59
-3.6769696e-59
-3.6282786e-59
-3.5562734e-59
-3.5076786e-59
-3.4379026e-59
-3.3685768e-59
-3.3089508e-59
-3.2717771e-59
-3.2339067e-59
-3.2309714e-59
-3.2858817e-59
-4.6275517e-59
7.23387e-59
-1.2777332e-11
9.5376686e-25
3.2055202e-37
3.2801105e-49
1.4324072e-59
-9.6032635e-70
5.6659848e-67
-2.5573897e-68
-2.3967435e-68
-2.5840992e-68
-2.7405476e-68
-2.9113832e-68
-3.0849455e-68
-3.2422199e-68
-3.3838416e-68
-3.545126e-68
-3.6716287e-68
-3.7989098e-68
-3.8852216e-68
-3.9735151e-68
-4.0651683e-68
-4.1208839e-68
-4.1782478e-68
-4.1799041e-68
-4.1747763e-68
-4.1747151e-68
-4.1248361e-68
-4.1163112e-68
-4.0702195e-68
-3.9906232e-68
-3.9345594e-68
-3.8484475e-68
-3.7558144e-68
-3.6687318e-68
-3.595074e-68
-3.5006156e-68
-3.4171679e-68
-3.4109324e-68
-5.9674548e-68
-1.0517166e-66
-1.3709928e-11
9.8586764e-25
7.3518294e-37
1.1719574e-48
4.8140087e-59
-5.4036468e-69
-6.7136274e-76
-2.5947242e-76
-4.0218668e-76
-5.5195698e-76
-6.1173103e-76
-6.6426976e-76
-7.2428494e-76
-7.7715225e-76
-8.3677915e-76
-9.0276647e-76
-9.5828217e-76
-9.8752988e-76
-1.0560752e-75
-1.0994009e-75
-1.164185e-75
-1.2117359e-75
-1.2606001e-75
-1.3156209e-75
-1.3537317e-75
-1.4307357e-75
-1.4207521e-75
-1.4614156e-75
-1.5082242e-75
-1.5653723e-75
-1.5690084e-75
-1.5662939e-75
-1.5412406e-75
-1.4511386e-75
-1.3407004e-75
-1.1412185e-75
-9.2261142e-76
-1.1231695e-75
5.8683609e-76
2.4288284e-75
-1.4034554e-11
9.9772371e-25
2.6739427e-36
6.8004428e-48
3.2297095e-58
-6.6742399e-68
8.0584509e-77
6.417712e-85
1.4025889e-84
1.912178e-84
2.1403733e-84
2.3471969e-84
2.5826816e-84
2.7837939e-84
3.0225889e-84
3.2765975e-84
3.4870403e-84
3.61104e-84
3.879326e-84
4.0490389e-84
4.2846887e-84
4.4694978e-84
4.6453555e-84
4.8462297e-84
4.986217e-84
5.2601707e-84
5.2048882e-84
5.3310111e-84
5.4812556e-84
5.6450982e-84
5.6217922e-84
5.5678804e-84
5.4256858e-84
5.0566312e-84
4.6185095e-84
3.8855143e-84
3.0920303e-84
3.5482765e-84
-1.4754513e-84
-6.336015e-84
-1.4047089e-11
1.0049918e-24
-2.6423589e-35
-9.6639348e-47
-5.5925509e-57
2.0717752e-66
-3.7832962e-75
1.7055509e-83
-8.375238e-92
-8.7102434e-93
-9.9088358e-93
-1.1014267e-92
-1.2222395e-92
-1.3347277e-92
-1.4572102e-92
-1.5928116e-92
-1.7045477e-92
-1.7741029e-92
-1.9069993e-92
-1.9983969e-92
-2.1183102e-92
-2.2050939e-92
-2.2942347e-92
-2.3901283e-92
-2.4484355e-92
-2.5798909e-92
-2.5435711e-92
-2.5845145e-92
-2.6360728e-92
-2.6845129e-92
-2.6533105e-92
-2.5874269e-92
-2.4923089e-92
-2.2775483e-92
-2.0435522e-92
-1.6841032e-92
-1.3029737e-92
-1.3811365e-92
4.607956e-93
2.4471469e-92
-1.4017699e-11
1.0141486e-24
-5.8515596e-36
-2.6590886e-47
-1.8105147e-57
1.0398677e-66
-3.3352019e-75
3.6045054e-83
-3.9736811e-91
4.512235e-99
1.1210421e-100
1.2731149e-100
1.4330152e-100
1.5846169e-100
1.7359109e-100
1.9169677e-100
2.0597156e-100
2.1670523e-100
2.3235159e-100
2.4354788e-100
2.5830132e-100
2.6719892e-100
2.7746377e-100
2.8562879e-100
2.9022997e-100
3.037849e-100
2.9345888e-100
2.959569e-100
2.9355338e-100
2.952007e-100
2.8434945e-100
2.7194703e-100
2.5443124e-100
2.2597303e-100
1.9631201e-100
1.5602787e-100
1.1530221e-100
1.0604761e-100
-2.3322698e-101
-1.2063237e-100
-1.4019425e-11
1.023002e-24
-4.5168913e-36
-2.3289647e-47
-1.761821e-57
1.3397085e-66
-6.5461549e-75
1.9323904e-82
-5.6667563e-90
1.684583e-97
-5.1193632e-105
-4.0400579e-108
-4.5658387e-108
-5.0578821e-108
-5.7241795e-108
-6.2662962e-108
-6.6716237e-108
-7.0160647e-108
-7.5180059e-108
-7.9174152e-108
-8.2337001e-108
-8.2659014e-108
-8.4998066e-108
-8.5009342e-108
-8.4685232e-108
-8.6041244e-108
-8.0836068e-108
-7.918221e-108
-7.5893091e-108
-7.3409953e-108
-6.721672e-108
-6.2280127e-108
-5.5679754e-108
-4.7402399e-108
-3.8837202e-108
-2.9908439e-108
-2.0527337e-108
-1.48044e-108
1.6091848e-109
6.1331335e-109
-1.4039368e-11
1.0295907e-24
-3.8189912e-36
-2.1616283e-47
-1.7463691e-57
1.6229289e-66
-9.4400091e-75
3.2346798e-82
-1.1202379e-89
3.8643152e-97
-1.3509511e-104
4.7638962e-112
1.6225688e-115
1.8290995e-115
2.0820153e-115
2.3125493e-115
2.4702943e-115
2.5175265e-115
2.7115214e-115
2.7950649e-115
2.8555914e-115
2.8086978e-115
2.834566e-115
2.7826475e-115
2.6558493e-115
2.638204e-115
2.4374382e-115
2.2933798e-115
2.1409829e-115
1.9637991e-115
1.7771328e-115
1.5472695e-115
1.3292488e-115
1.099222e-115
8.5944584e-116
6.3673348e-116
4.1453097e-116
2.2794669e-116
-1.1521162e-117
-3.0729921e-117
-1.4059989e-11
1.0341149e-24
-3.3157415e-36
-2.0358757e-47
-1.7230745e-57
1.9173609e-66
-1.2028742e-74
3.2701312e-82
-9.1280927e-90
2.5752397e-97
-7.2343039e-105
2.0726954e-112
-5.9698062e-120
-5.2727142e-123
-6.0608878e-123
-6.7580918e-123
-7.1329681e-123
-7.2570401e-123
-7.8147403e-123
-7.9807847e-123
-8.0000802e-123
-7.7889255e-123
-7.6236103e-123
-7.3421727e-123
-6.9262054e-123
-6.7371457e-123
-6.108794e-123
-5.5902895e-123
-5.0380821e-123
-4.4671099e-123
-3.9195321e-123
-3.3540396e-123
-2.7612256e-123
-2.2316566e-123
-1.6929604e-123
-1.2190601e-123
-7.594246e-124
-3.2788626e-124
7.9956051e-126
1.5505787e-125
-1.4075874e-11
1.0374222e-24
-2.9777091e-36
-1.9631801e-47
-1.7246551e-57
2.2844541e-66
-1.5559738e-74
4.0083731e-82
-1.0539525e-89
2.7703968e-97
-7.2836704e-105
1.9562048e-112
-5.2960547e-120
1.4281886e-127
1.6239982e-130
1.8141708e-130
1.8923901e-130
1.9455593e-130
2.0785426e-130
2.1313628e-130
2.0712961e-130
2.0192844e-130
1.9325712e-130
1.8309067e-130
1.6911311e-130
1.6134108e-130
1.426551e-130
1.282427e-130
1.1379667e-130
9.7271742e-131
8.3256083e-131
6.9422855e-131
5.5917414e-131
4.3968324e-131
3.2539394e-131
2.264396e-131
1.3512213e-131
4.6480309e-132
-5.5554617e-134
-7.9947459e-134
-1.4087713e-11
1.0400525e-24
-2.7585559e-36
-1.93072e-47
-1.749782e-57
2.7279603e-66
-2.0445571e-74
5.5298367e-82
-1.5541282e-89
4.3124913e-97
-1.2065837e-104
3.3627279e-112
-9.3418607e-120
2.590426e-127
-7.2726908e-135
-5.0378035e-138
-5.2455548e-138
-5.396004e-138
-5.6874884e-138
-5.7617082e-138
-5.5461809e-138
-5.3539263e-138
-5.0667848e-138
-4.6586069e-138
-4.2375326e-138
-3.9427462e-138
-3.4443556e-138
-3.0042052e-138
-2.6246983e-138
-2.1740777e-138
-1.8439176e-138
-1.4913009e-138
-1.171049e-138
-8.9292435e-139
-6.4949911e-139
-4.4262846e-139
-2.5015764e-139
-6.8378086e-140
3.9591056e-142
4.2079011e-142
-1.4096972e-11
1.0422171e-24
-2.612606e-36
-1.9205485e-47
-1.7859336e-57
3.2220213e-66
-2.6582782e-74
7.8738746e-82
-2.364574e-89
7.0896713e-97
-2.1320141e-104
6.5030516e-112
-1.9449555e-119
5.8649278e-127
-1.7451388e-134
5.1828197e-142
1.5311896e-145
1.5802227e-145
1.6496502e-145
1.6598228e-145
1.5795785e-145
1.4861628e-145
1.4225895e-145
1.265233e-145
1.1179328e-145
1.0222229e-145
8.7138933e-146
7.5144427e-146
6.3788785e-146
5.1996755e-146
4.3039337e-146
3.3551527e-146
2.5997415e-146
1.9333167e-146
1.3688824e-146
9.1057411e-147
4.9742972e-147
1.0633654e-147
-2.8950683e-150
-2.2620421e-150
-1.4104497e-11
1.0440026e-24
-2.510007e-36
-1.9209704e-47
-1.8245938e-57
3.7488073e-66
-3.3832334e-74
1.0866769e-81
-3.6017012e-89
1.17324e-96
-3.8337578e-104
1.2508293e-111
-4.0647876e-119
1.3279775e-126
-4.2751292e-134
1.3470649e-141
-4.2786898e-149
-4.9248104e-153
-5.1387885e-153
-5.074383e-153
-4.7269297e-153
-4.45142e-153
-4.1574256e-153
-3.6251245e-153
-3.125437e-153
-2.8063247e-153
-2.358992e-153
-1.9893236e-153
-1.638144e-153
-1.3096456e-153
-1.0578186e-153
-8.1119524e-154
-6.1000061e-154
-4.4016519e-154
-3.0596841e-154
-2.0141133e-154
-1.052147e-154
-1.7215002e-155
2.169321e-158
1.2347438e-158
-1.4110702e-11
1.0454737e-24
-2.4342056e-36
-1.9261515e-47
-1.8614531e-57
4.2998941e-66
-4.1676671e-74
1.4619903e-81
-5.2795924e-89
1.8619548e-96
-6.5870009e-104
2.2850563e-111
-7.838204e-119
2.6846764e-126
-9.1205283e-134
3.132593e-141
-1.0709893e-148
3.5234046e-156
1.685588e-160
1.6316633e-160
1.5007268e-160
1.3867502e-160
1.2719821e-160
1.1082935e-160
9.2239869e-161
8.1379785e-161
6.6217444e-161
5.5396586e-161
4.4340459e-161
3.4079474e-161
2.7706627e-161
2.0595912e-161
1.5016586e-161
1.0682289e-161
7.3054803e-162
4.6691071e-162
2.3508782e-162
2.9404578e-163
-1.6690199e-166
-6.8794405e-167
-1.4115842e-11
1.0466907e-24
-2.3762598e-36
-1.9334103e-47
-1.8956634e-57
4.8549532e-66
-5.0620721e-74
1.9456146e-81
-7.8723394e-89
3.010959e-96
-1.1951234e-103
4.5128139e-111
-1.7230464e-118
6.3515047e-126
-2.3333912e-133
8.4869393e-141
-3.0633406e-148
1.0738722e-155
-3.7800525e-163
-5.560964e-168
-5.0626618e-168
-4.5204891e-168
-4.0810797e-168
-3.5314161e-168
-2.8965593e-168
-2.4883834e-168
-1.997336e-168
-1.6098091e-168
-1.2637539e-168
-9.7333223e-169
-7.5629783e-169
-5.5140398e-169
-3.9854397e-169
-2.726288e-169
-1.8501572e-169
-1.1588103e-169
-5.5433904e-170
-5.2805777e-171
1.3114244e-174
3.8941784e-175
-1.4120119e-11
1.0477039e-24
-2.3309566e-36
-1.94143e-47
-1.9263552e-57
5.4181154e-66
-6.0514624e-74
2.6197319e-81
-1.164619e-88
5.0214171e-96
-2.105129e-103
9.0068324e-111
-3.7432313e-118
1.5300532e-125
-6.1911581e-133
2.4364998e-140
-9.5262371e-148
3.615897e-155
-1.3499852e-162
4.937877e-170
1.8188683e-175
1.5860946e-175
1.4102923e-175
1.20971e-175
9.5491284e-176
8.006994e-176
6.2402307e-176
4.9746357e-176
3.8025315e-176
2.8608425e-176
2.188098e-176
1.5563604e-176
1.1003089e-176
7.4426252e-177
4.9448573e-177
3.0580138e-177
1.3994427e-177
9.9152536e-179
-1.0486634e-182
-2.2386604e-183
-1.4123695e-11
1.0485531e-24
-2.2949576e-36
-1.9495156e-47
-1.9539044e-57
5.9904357e-66
-7.097045e-74
3.3385141e-81
-1.6681346e-88
7.9734495e-96
-3.756806e-103
1.7335164e-110
-7.7655097e-118
3.385259e-125
-1.4850082e-132
6.2580188e-140
-2.5957972e-147
1.0575068e-154
-4.2291889e-162
1.6755439e-169
-6.4057533e-177
-5.7633278e-183
-5.2602542e-183
-4.3426332e-183
-3.3457718e-183
-2.7366441e-183
-2.089802e-183
-1.6306465e-183
-1.2354024e-183
-8.9379402e-184
-6.7351273e-184
-4.664611e-184
-3.2502112e-184
-2.1688549e-184
-1.4212267e-184
-8.6752402e-185
-3.7507577e-185
-1.9329601e-186
8.5626874e-191
1.305645e-191
-1.4126699e-11
1.0492683e-24
-2.2659671e-36
-1.9572994e-47
-1.9782356e-57
6.5486044e-66
-8.2410686e-74
4.6217144e-81
-2.6190848e-88
1.4139453e-95
-7.4329693e-103
3.740218e-110
-1.8768947e-117
9.0189749e-125
-4.233353e-132
1.960594e-139
-8.6346541e-147
3.8274644e-154
-1.6694261e-161
6.9242084e-169
-2.8233433e-176
1.1428655e-183
1.6089286e-190
1.6554325e-190
1.2635434e-190
9.9472723e-191
7.4929605e-191
5.7206311e-191
4.2731032e-191
2.9974951e-191
2.2119742e-191
1.4896201e-191
1.0189127e-191
6.7274954e-192
4.3392578e-192
2.6202778e-192
1.0665899e-192
3.9933783e-194
-7.1630695e-199
-7.7343055e-200
-1.4129236e-11
1.0498736e-24
-2.2423548e-36
-1.9645363e-47
-1.9997724e-57
7.0945896e-66
-9.4599006e-74
5.9276631e-81
-3.7946632e-88
2.3182296e-95
-1.3666569e-102
7.6931949e-110
-4.3307683e-117
2.3126876e-124
-1.2287675e-131
6.2792713e-139
-3.119813e-146
1.4933789e-153
-7.10883e-161
3.197749e-168
-1.417842e-175
6.1382458e-183
-2.6264991e-190
4.0326457e-198
-5.0464968e-198
-3.8579284e-198
-2.8918672e-198
-2.149385e-198
-1.5939693e-198
-1.0873037e-198
-7.7250942e-199
-5.1199482e-199
-3.4498803e-199
-2.231049e-199
-1.4257788e-199
-8.3313635e-200
-3.2572764e-200
-8.5527467e-202
6.0775447e-207
4.6496562e-208
-1.4131385e-11
1.0503878e-24
-2.2229325e-36
-1.9711718e-47
-2.0186136e-57
7.6288304e-66
-1.0745174e-73
8.0137844e-81
-6.0958326e-88
4.3803114e-95
-3.0693712e-102
2.0311594e-109
-1.2538234e-116
7.6162665e-124
-4.4511781e-131
2.5068121e-138
-1.3731457e-145
7.3400401e-153
-3.7571276e-160
1.8994214e-167
-9.2134798e-175
4.342695e-182
-1.9988037e-189
8.7822304e-197
-3.6054154e-204
1.6555916e-205
1.2025883e-205
8.5709572e-206
6.36235e-206
4.2291711e-206
2.9338066e-206
1.9028865e-206
1.2762418e-206
7.9157643e-207
5.0701942e-207
2.8778457e-207
1.0793425e-207
1.947308e-209
-5.2672105e-215
-2.8264393e-216
-1.4133213e-11
1.0508262e-24
-2.2068276e-36
-1.9771558e-47
-2.0350958e-57
8.1552622e-66
-1.2126935e-73
1.0652636e-80
-9.3316219e-88
7.7048273e-95
-6.2515583e-102
4.7262937e-109
-3.4555073e-116
2.3595384e-123
-1.5842334e-130
1.0121784e-137
-6.072566e-145
3.521563e-152
-1.9711421e-159
1.0638453e-166
-5.679153e-174
2.889207e-181
-1.4230443e-188
6.8051492e-196
-3.2118764e-203
1.4643907e-210
-5.3874258e-213
-3.7227919e-213
-2.7169598e-213
-1.7919072e-213
-1.1865186e-213
-7.6538867e-214
-5.0771906e-214
-3.0457198e-214
-1.909471e-214
-1.0678534e-214
-3.8028376e-215
-4.6197078e-217
4.6859601e-223
1.7436958e-224
-1.4134772e-11
1.0512012e-24
-2.1933787e-36
-1.9825362e-47
-2.0494359e-57
8.6665516e-66
-1.3552762e-73
1.4498884e-80
-1.5908403e-87
1.6227378e-94
-1.5585522e-101
1.3850797e-108
-1.1505924e-115
9.0745733e-123
-6.6394821e-130
4.7313277e-137
-3.1762913e-144
2.1123621e-151
-1.3231908e-158
8.0100426e-166
-4.6673468e-173
2.6293788e-180
-1.426267e-187
7.5893547e-195
-3.8865379e-202
1.9372297e-209
-9.5880781e-217
1.746314e-220
1.2570175e-220
8.0513998e-221
5.1704823e-221
3.2856832e-221
2.1480626e-221
1.2737072e-221
7.7985543e-222
4.3655691e-222
1.4356729e-222
1.1728204e-224
-4.2994106e-231
-1.087137e-232
-1.4136106e-11
1.051523e-24
-2.1820822e-36
-1.9873373e-47
-2.0621284e-57
9.1430717e-66
-1.5107014e-73
2.1523451e-80
-3.3604974e-87
4.2045886e-94
-4.5930256e-101
4.9843016e-108
-4.9541566e-115
4.5198821e-122
-3.8955845e-129
3.1518591e-136
-2.4936039e-143
1.8391828e-150
-1.3244494e-157
8.8552468e-165
-5.9389963e-172
3.8291616e-179
-2.3273952e-186
1.3849454e-193
-8.0106541e-201
4.3852703e-208
-2.3838926e-215
1.1957862e-222
-6.3088727e-228
-3.9688849e-228
-2.4933578e-228
-1.5293935e-228
-9.7853659e-229
-5.7784488e-229
-3.4330216e-229
-1.9224295e-229
-6.0034768e-230
-3.0649926e-232
4.222315e-239
6.8821176e-241
-1.4137251e-11
1.0518e-24
-2.1725386e-36
-1.9915956e-47
-2.0731241e-57
9.6335586e-66
-1.6664622e-73
3.0233971e-80
-5.8446768e-87
1.0123182e-93
-1.5188212e-100
2.037349e-107
-2.5839386e-114
2.8811263e-121
-3.0277201e-128
2.9362498e-135
-2.5815927e-142
2.2219746e-149
-1.8364079e-156
1.396318e-163
-1.0181803e-170
7.1044936e-178
-4.7489422e-185
3.0054426e-192
-1.9216743e-199
1.1607727e-206
-6.7260973e-214
3.825839e-221
-2.0723692e-228
3.1883642e-235
1.3075596e-235
7.8166695e-236
4.8803894e-236
2.8567084e-236
1.655684e-236
8.9676344e-237
2.6528556e-237
8.5119614e-240
-4.7135343e-247
-4.4011804e-249
-1.4138236e-11
1.0520392e-24
-2.1644397e-36
-1.9953738e-47
-2.0826823e-57
1.0098638e-65
-1.8311815e-73
5.6577768e-80
-2.1062614e-86
5.2732865e-93
-1.1849879e-99
2.0158752e-106
-2.9725741e-113
4.16959e-120
-5.5923564e-127
6.5648016e-134
-7.1901247e-141
7.0501538e-148
-6.716151e-155
5.8681034e-162
-4.8633364e-169
3.7886695e-176
-2.8490666e-183
2.024422e-190
-1.332493e-197
8.275634e-205
-5.0190557e-212
2.7771164e-219
-1.4030048e-226
6.3039797e-234
-2.1878657e-241
-4.5031648e-243
-2.6408194e-243
-1.5349196e-243
-8.8447252e-244
-4.5772928e-244
-1.2643798e-244
-2.4957799e-247
6.817973e-255
2.8573462e-257
-1.4139084e-11
1.0522461e-24
-2.1575372e-36
-1.9987191e-47
-2.091053e-57
1.0503172e-65
-2.014692e-73
2.1005481e-79
-1.9050632e-85
1.0567822e-91
-3.4265668e-98
8.190131e-105
-1.9025897e-111
3.5401865e-118
-5.6287296e-125
8.1273479e-132
-1.0845204e-138
1.3756353e-145
-1.5704222e-152
1.6773931e-159
-1.6774339e-166
1.5639731e-173
-1.3636206e-180
1.1256186e-187
-9.3610255e-195
7.1361444e-202
-5.2041323e-209
3.6211183e-216
-2.4185892e-223
1.6259356e-230
-1.0273863e-237
6.2846844e-245
1.5836599e-250
9.254018e-251
5.1905333e-251
2.6612463e-251
6.5418483e-252
7.6409858e-255
-1.3951157e-262
-1.8687916e-265
-1.4139818e-11
1.0524258e-24
-2.1516332e-36
-2.0016754e-47
-2.0983351e-57
1.0909784e-65
-2.1807509e-73
-2.7462607e-79
-2.8625608e-85
1.0575575e-90
-1.2209215e-96
6.3029225e-103
-2.3336595e-109
6.0943477e-116
-1.4314401e-122
2.8212264e-129
-4.7976972e-136
7.1962478e-143
-9.8456558e-150
1.2773968e-156
-1.4640339e-163
1.621949e-170
-1.6187306e-177
1.5404704e-184
-1.3579227e-191
1.1509011e-198
-9.5536021e-206
7.4135671e-213
-5.6998419e-220
4.2967602e-227
-3.1024236e-234
2.1656701e-241
-1.4603043e-248
9.729898e-256
-3.461293e-258
-1.674279e-258
-3.7782102e-259
-2.4464968e-262
3.7650634e-270
1.2400549e-273
-1.4140452e-11
1.0525821e-24
-2.1465651e-36
-2.0042869e-47
-2.1047508e-57
1.1290375e-65
-2.3572887e-73
-7.7169559e-80
-3.4392781e-86
-1.7907339e-92
-2.385469e-98
8.0440122e-104
-7.7133711e-110
4.2889811e-116
-1.2543211e-122
3.3540883e-129
-7.9078546e-136
1.4647969e-142
-2.6081002e-149
3.920525e-156
-5.5942811e-163
7.1969706e-170
-8.9701095e-177
9.7817083e-184
-9.9030348e-191
1.0427524e-197
-1.0034139e-204
9.5073526e-212
-8.0619019e-219
6.7787495e-226
-5.5240711e-233
4.3275901e-240
-3.3815894e-247
2.5647657e-254
-1.9002468e-261
1.2121154e-265
2.3766564e-266
8.4565042e-270
-1.2083125e-277
-8.3042413e-282
-1.4141003e-11
1.0527186e-24
-2.1422031e-36
-2.0066126e-47
-2.1103206e-57
1.1672342e-65
-2.5623462e-73
-5.952564e-80
-1.2846939e-86
-3.7573525e-93
-1.4372951e-99
-9.8440287e-106
-2.4148171e-111
-3.478437e-116
3.5725624e-122
-1.9896045e-128
7.8835456e-135
-2.2874553e-141
5.4089775e-148
-1.0996708e-154
1.8687023e-161
-3.2863412e-168
4.7789743e-175
-6.6812081e-182
8.7966743e-189
-1.009809e-195
1.1168122e-202
-1.1804039e-209
1.1747598e-216
-1.1141369e-223
1.0188429e-230
-9.2414684e-238
8.0456517e-245
-6.6288522e-252
5.5358124e-259
-4.3635296e-266
1.4165928e-273
-3.0726303e-277
4.3218159e-285
5.6099357e-290
-1.4141481e-11
1.0528381e-24
-2.1384309e-36
-2.0086688e-47
-2.1150892e-57
1.1998373e-65
-2.784714e-73
-4.4185576e-80
-7.3815705e-87
-1.5463895e-93
-4.0125559e-100
-1.3818031e-106
-5.5675986e-113
-4.5952742e-119
-7.3579245e-125
1.58763e-130
-1.3601312e-136
7.0720323e-143
-2.3974047e-149
6.6858154e-156
-1.593118e-162
3.2921087e-169
-6.5247277e-176
1.1287264e-182
-1.7421177e-189
2.4425476e-196
-3.2220161e-203
3.8247885e-210
-4.7270835e-217
5.2169582e-224
-5.563548e-231
5.8936778e-238
-5.8038125e-245
5.5615038e-252
-5.3461516e-259
5.0086359e-266
-4.0280013e-273
1.5510641e-280
-1.5965828e-288
1.0549843e-296
-1.4141897e-11
1.0529429e-24
-2.1351648e-36
-2.0104979e-47
-2.1194016e-57
1.2362879e-65
-2.9726014e-73
-4.0380932e-80
-5.0564996e-87
-7.650617e-94
-1.2683273e-100
-2.6279808e-107
-7.1601923e-114
-2.4411315e-120
-1.237482e-126
-9.7693033e-133
-1.2479576e-138
4.4957524e-144
-4.5699021e-150
2.2459106e-156
-1.0354688e-162
3.1935581e-169
-8.7029959e-176
1.9615455e-182
-3.8554965e-189
7.2758952e-196
-1.2548836e-202
2.0771693e-209
-3.187789e-216
4.2344006e-223
-5.6413858e-230
7.4821081e-237
-9.2830581e-244
1.0601869e-250
-1.2420079e-257
1.2785507e-264
-1.1842136e-271
4.8013548e-279
-5.0211893e-287
3.4602604e-295
-1.4142259e-11
1.0530353e-24
-2.1323252e-36
-2.012108e-47
-2.1232263e-57
1.2653166e-65
-3.1963418e-73
-3.4895632e-80
-3.584334e-87
-4.3722001e-94
-5.7725726e-101
-9.4246436e-108
-1.6791749e-114
-3.4717757e-121
-8.843863e-128
-3.618137e-134
-1.946267e-140
-1.8857057e-146
-5.045253e-152
1.2897323e-157
-1.9671827e-163
1.3140692e-169
-6.3683146e-176
2.0944027e-182
-5.9616228e-189
1.4989282e-195
-3.2317196e-202
6.1659739e-209
-1.1421459e-215
1.9129613e-222
-3.0239731e-229
4.6203328e-236
-6.7755366e-243
9.0765495e-250
-1.2776874e-256
1.5967853e-263
-1.7106514e-270
7.5491371e-278
-7.9688442e-286
5.5597142e-294
-1.4142575e-11
1.053117e-24
-2.1298561e-36
-2.0135616e-47
-2.1266101e-57
1.2992689e-65
-3.4242859e-73
-3.1373926e-80
-2.9811545e-87
-3.1260488e-94
-3.6597102e-101
-4.673784e-108
-6.6787311e-115
-1.1892417e-121
-2.3521066e-128
-5.4551478e-135
-1.8444101e-141
-7.4232232e-148
-4.5639e-154
-5.3654985e-160
-4.1250318e-165
2.4354765e-169
-2.0397145e-175
1.2563573e-181
-5.5333598e-188
1.870367e-194
-6.1217086e-201
1.9250071e-207
-4.4021923e-214
9.9971836e-221
-2.1319656e-227
4.1285639e-234
-7.3959404e-241
1.252349e-247
-1.9212885e-254
2.9303319e-261
-3.5535188e-268
1.6954843e-275
-1.8163351e-283
1.2832721e-291
-1.4142851e-11
1.0531894e-24
-2.1276955e-36
-2.0148688e-47
-2.1294723e-57
1.3221796e-65
-3.6825674e-73
-2.9226193e-80
-2.3966296e-87
-2.1246857e-94
-2.0764284e-101
-2.3032635e-108
-2.8428293e-115
-3.6853036e-122
-5.681889e-129
-1.1036046e-135
-2.351851e-142
-6.8742255e-149
-2.2925591e-155
-9.5344707e-162
-5.311399e-168
-4.8151055e-174
-1.2689785e-179
5.8166072e-185
-9.535911e-191
7.8613568e-197
-4.1474377e-203
1.6131118e-209
-6.6165247e-216
2.1983815e-222
-6.2124126e-229
1.3981483e-235
-3.4506488e-242
7.1465192e-249
-1.5326124e-255
2.7715249e-262
-4.3925917e-269
2.2072463e-276
-2.4053009e-284
1.7107788e-292
-1.4143092e-11
1.0532539e-24
-2.1258054e-36
-2.0160335e-47
-2.1320678e-57
1.3514272e-65
-3.8512892e-73
-2.8143564e-80
-1.9852562e-87
-1.6001284e-94
-1.4140218e-101
-1.3610501e-108
-1.4010203e-115
-1.6001638e-122
-2.1431921e-129
-3.2748769e-136
-5.4271403e-143
-1.0272336e-149
-2.1018871e-156
-5.7914597e-163
-1.7506602e-169
-7.4978529e-176
-5.4469062e-182
-4.9948463e-188
-7.9168222e-194
2.5691216e-199
-2.7751434e-205
2.7443563e-211
-1.805365e-217
8.8621764e-224
-3.8752684e-230
1.5458461e-236
-5.0432853e-243
1.6793137e-249
-5.1713828e-256
1.4708373e-262
-2.8856776e-269
1.5346588e-276
-1.6890659e-284
1.2135541e-292
-1.4143303e-11
1.0533115e-24
-2.1241456e-36
-2.0170904e-47
-2.1342857e-57
1.3740308e-65
-4.1274939e-73
-2.718134e-80
-1.8422587e-87
-1.2892719e-94
-1.0205987e-101
-8.3938562e-109
-8.0827143e-116
-8.2458561e-123
-8.8431995e-130
-1.1052448e-136
-1.5094246e-143
-2.3710505e-150
-4.0496012e-157
-8.038304e-164
-1.8584328e-170
-5.0438906e-177
-1.6405691e-183
-7.2655407e-190
-4.9396764e-196
-3.2597393e-202
-6.2875975e-208
-2.1734977e-213
6.3089373e-219
-3.0432713e-224
2.2428635e-230
-1.8739288e-236
9.2472041e-243
-5.5113831e-249
2.4167509e-255
-1.0605505e-261
2.6463295e-268
-1.5490441e-275
1.7315632e-283
-1.2541859e-291
-1.4143487e-11
1.0533634e-24
-2.1226834e-36
-2.0180564e-47
-2.1365033e-57
1.399427e-65
-4.4139836e-73
-2.7288704e-80
-1.6563599e-87
-1.1009413e-94
-8.0822727e-102
-5.983617e-109
-5.0427219e-116
-4.6873928e-123
-4.6251155e-130
-5.028946e-137
-6.1045946e-144
-7.9118671e-151
-1.1082247e-157
-1.8340072e-164
-3.1493719e-171
-6.3579133e-178
-1.5729254e-184
-4.6395375e-191
-1.7122928e-197
-6.6954579e-204
-3.0319539e-210
-1.7666921e-216
-1.8090644e-222
-5.3555503e-228
3.9941689e-233
-1.2613302e-238
8.4565454e-244
-1.0360702e-249
1.067494e-255
-8.4431809e-262
3.0600825e-268
-1.8582724e-275
2.0989322e-283
-1.53424e-291
-1.4143648e-11
1.0534102e-24
-2.1213964e-36
-2.0189381e-47
-2.138398e-57
1.4257745e-65
-4.7209909e-73
-2.6735944e-80
-1.5400814e-87
-9.1503293e-95
-6.0255956e-102
-4.1600979e-109
-3.1291902e-116
-2.5299791e-123
-2.2135506e-130
-2.1629055e-137
-2.2773206e-144
-2.5499327e-151
-2.9654912e-158
-3.9382145e-165
-6.0458191e-172
-1.0992952e-178
-1.8890193e-185
-4.2277328e-192
-9.6010497e-199
-2.7194489e-205
-9.0426399e-212
-3.1669163e-218
-1.5374286e-224
-9.011516e-231
-7.3721383e-237
-6.0081882e-243
-8.2563679e-249
-2.4374322e-254
-9.0008246e-260
3.160059e-265
-2.3070889e-271
1.5579323e-278
-1.794875e-286
1.3228099e-294
-1.4143789e-11
1.0534528e-24
-2.1202534e-36
-2.0197446e-47
-2.1400789e-57
1.4491485e-65
-4.9965256e-73
-2.7179826e-80
-1.4421185e-87
-8.1124503e-95
-4.9745681e-102
-3.2379061e-109
-2.2003331e-116
-1.660779e-123
-1.3238337e-130
-1.1174262e-137
-1.0536917e-144
-1.052636e-151
-1.1514863e-158
-1.3520548e-165
-1.6815911e-172
-2.275943e-179
-3.5150886e-186
-6.2096261e-193
-1.0938519e-199
-2.2319276e-206
-5.1541792e-213
-1.3441821e-219
-4.2030252e-226
-1.4019092e-232
-4.9960866e-239
-2.5078067e-245
-1.7130134e-251
-1.5013292e-257
-1.1915076e-263
-1.0506046e-269
2.6034744e-275
-1.8715805e-282
2.1627499e-290
-1.6057688e-298
-1.4143912e-11
1.0534917e-24
-2.1192383e-36
-2.0204876e-47
-2.1417062e-57
1.4744532e-65
-5.2951343e-73
-2.6369165e-80
-1.3013662e-87
-6.9200617e-95
-3.8643506e-102
-2.3394093e-109
-1.5217212e-116
-1.0388861e-123
-7.5096518e-131
-5.9575046e-138
-4.9881675e-145
-4.6056432e-152
-4.5299621e-159
-4.851781e-166
-5.5863518e-173
-6.7658776e-180
-8.9670758e-187
-1.3225104e-193
-2.1247769e-200
-4.0439205e-207
-7.4480019e-214
-1.503752e-220
-3.2070935e-227
-8.3206173e-234
-2.1108115e-240
-7.2717321e-247
-2.5577271e-253
-9.2908138e-260
-4.054265e-266
-2.3542291e-272
-4.4224626e-278
3.322735e-285
-3.8885898e-293
2.9103114e-301
-1.414402e-11
1.0535275e-24
-2.1183351e-36
-2.0211986e-47
-2.1432737e-57
1.4883544e-65
-5.6260778e-73
-2.7701808e-80
-1.3401856e-87
-6.7470678e-95
-3.5408403e-102
-2.0124023e-109
-1.2055113e-116
-7.6939408e-124
-5.13548e-131
-3.7272786e-138
-2.8676219e-145
-2.3617625e-152
-2.1429985e-159
-2.1476916e-166
-2.1477053e-173
-2.3700921e-180
-2.8060263e-187
-3.3655325e-194
-4.4633685e-201
-6.4962601e-208
-1.0691017e-214
-1.9458154e-221
-3.5296619e-228
-6.9084013e-235
-1.5828105e-241
-3.7518017e-248
-9.3290068e-255
-2.4641249e-261
-6.7786148e-268
-2.2143595e-274
-1.9662143e-280
1.6642144e-287
-1.9776494e-295
1.4917506e-303
-1.4144113e-11
1.0535607e-24
-2.1175258e-36
-2.0218603e-47
-2.1446655e-57
1.5132338e-65
-5.802452e-73
-2.5976106e-80
-1.1892745e-87
-5.7422306e-95
-2.9572547e-102
-1.5584382e-109
-8.8277344e-117
-5.2036711e-124
-3.3693925e-131
-2.2665059e-138
-1.6114983e-145
-1.2860906e-152
-1.0416206e-159
-8.941306e-167
-8.3404993e-174
-8.1326547e-181
-8.6856385e-188
-9.8320422e-195
-1.1991424e-201
-1.5200757e-208
-2.1464858e-215
-2.9508236e-222
-4.7836197e-229
-8.1202863e-236
-1.3901424e-242
-2.6621427e-249
-5.525096e-256
-1.2387338e-262
-3.0098436e-269
-8.1320558e-276
-3.1360992e-282
2.8814713e-289
-3.4693548e-297
2.6248944e-305
-1.4144193e-11
1.0535919e-24
-2.1167999e-36
-2.0224918e-47
-2.1459512e-57
1.5322135e-65
-6.2777293e-73
-2.7726586e-80
-1.2193239e-87
-5.7455743e-95
-2.7622918e-102
-1.3997569e-109
-7.7011757e-117
-4.3474376e-124
-2.6185435e-131
-1.6438831e-138
-1.0978712e-145
-7.8278461e-153
-5.8598043e-160
-4.7364986e-167
-4.0073354e-174