/*--------------------------------*- C++ -*----------------------------------*\
  =========                 |
  \\      /  F ield         | OpenFOAM: The Open Source CFD Toolbox
   \\    /   O peration     | Website:  https://openfoam.org
    \\  /    A nd           | Version:  10
     \\/     M anipulation  |
\*---------------------------------------------------------------------------*/
FoamFile
{
    format      ascii;
    class       volVectorField;
    location    "0.01";
    object      U;
}
// * * * * * * * * * * * * * * * * * * * * * * * * * * * * * * * * * * * * * //

dimensions      [0 1 -1 0 0 0 0];

internalField   nonuniform List<vector> 
4000
(
(0 0.018342366 0.47855784)
(0 0.022366719 0.50817152)
(0 0.0069646005 0.50051631)
(0 0.0050242303 0.50036593)
(0 0.0037375903 0.5002418)
(0 0.0028228723 0.50014894)
(0 0.0022187196 0.50010379)
(0 0.0017939293 0.50007712)
(0 0.0014760993 0.50005932)
(0 0.0012287299 0.50004716)
(0 0.0010298031 0.50003862)
(0 0.00086515236 0.50003244)
(0 0.00072538926 0.50002789)
(0 0.00060405701 0.50002449)
(0 0.00049655896 0.50002192)
(0 0.00039951609 0.50001997)
(0 0.00031036382 0.50001851)
(0 0.00022708738 0.50001743)
(0 0.00014803964 0.50001668)
(0 7.182193e-05 0.50001621)
(0 -2.8051902e-06 0.500016)
(0 -7.7022588e-05 0.50001604)
(0 -0.00015200658 0.50001633)
(0 -0.00022898952 0.5000169)
(0 -0.00030935851 0.5000178)
(0 -0.00039474948 0.50001908)
(0 -0.00048718176 0.50002084)
(0 -0.00058926476 0.50002325)
(0 -0.00070449755 0.50002653)
(0 -0.00083776222 0.50003103)
(0 -0.00099612181 0.50003733)
(0 -0.0011902369 0.50004634)
(0 -0.0014367843 0.50005964)
(0 -0.0017635591 0.50007983)
(0 -0.0022249387 0.50011406)
(0 -0.0029216472 0.50018356)
(0 -0.0039306114 0.50028496)
(0 -0.0054975146 0.50042706)
(0 -0.016533043 0.50616997)
(0 -0.013195851 0.48046112)
(0 0.035344821 0.45169204)
(0 0.046687707 0.5302396)
(0 0.018545864 0.50751645)
(0 0.014184128 0.50348674)
(0 0.010676437 0.50218216)
(0 0.0081340511 0.50139859)
(0 0.0064560539 0.50097981)
(0 0.0052424585 0.50072507)
(0 0.0043203578 0.50055794)
(0 0.0035961939 0.5004445)
(0 0.0030092549 0.5003648)
(0 0.0025202857 0.50030722)
(0 0.0021030654 0.50026472)
(0 0.0017393635 0.50023285)
(0 0.0014160822 0.50020874)
(0 0.001123512 0.50019045)
(0 0.00085422396 0.50017667)
(0 0.00060234483 0.50016652)
(0 0.00036302543 0.50015941)
(0 0.00013215416 0.50015498)
(0 -9.3941682e-05 0.50015295)
(0 -0.00031878537 0.50015327)
(0 -0.00054585244 0.50015601)
(0 -0.00077880103 0.50016137)
(0 -0.0010217197 0.50016974)
(0 -0.001279395 0.50018173)
(0 -0.0015576975 0.50019825)
(0 -0.0018641496 0.50022072)
(0 -0.0022087439 0.50025125)
(0 -0.0026052772 0.50029314)
(0 -0.0030734003 0.50035163)
(0 -0.0036425598 0.5004355)
(0 -0.0043584633 0.50055984)
(0 -0.0052924484 0.5007511)
(0 -0.0065739552 0.50106682)
(0 -0.0084956252 0.50165686)
(0 -0.011212493 0.50268164)
(0 -0.014459003 0.50567779)
(0 -0.034728127 0.52330742)
(0 -0.025720754 0.45370751)
(0 0.034873002 0.41886826)
(0 0.05265941 0.54601569)
(0 0.026002216 0.5197344)
(0 0.021113295 0.50936176)
(0 0.016400206 0.50579677)
(0 0.012879138 0.5038584)
(0 0.010446852 0.50274859)
(0 0.0085935738 0.50204889)
(0 0.0071467421 0.50158691)
(0 0.0059880674 0.50127101)
(0 0.005034079 0.50104754)
(0 0.0042296183 0.50088517)
(0 0.0035365953 0.50076475)
(0 0.0029278276 0.5006741)
(0 0.0023833932 0.50060524)
(0 0.0018882713 0.50055285)
(0 0.0014307969 0.50051329)
(0 0.0010016352 0.50048408)
(0 0.00059300461 0.50046357)
(0 0.00019824187 0.50045073)
(0 -0.00018865596 0.50044484)
(0 -0.00057343334 0.50044572)
(0 -0.00096175508 0.50045358)
(0 -0.0013595934 0.50046897)
(0 -0.0017735599 0.50049296)
(0 -0.0022113017 0.50052726)
(0 -0.0026821187 0.50057442)
(0 -0.0031976984 0.50063833)
(0 -0.0037733683 0.50072488)
(0 -0.0044297291 0.50084305)
(0 -0.0051954065 0.50100687)
(0 -0.0061117775 0.50124035)
(0 -0.0072411384 0.50158354)
(0 -0.0086737049 0.50210685)
(0 -0.010538447 0.50294136)
(0 -0.013190531 0.50439867)
(0 -0.016835848 0.5071086)
(0 -0.020162786 0.51463127)
(0 -0.039020643 0.53549643)
(0 -0.025544971 0.42406089)
(0 0.02611017 0.38096871)
(0 0.048785322 0.55006256)
(0 0.029886067 0.53157215)
(0 0.025684256 0.51613963)
(0 0.020787763 0.51022308)
(0 0.01709421 0.50712333)
(0 0.014327907 0.50521151)
(0 0.012077049 0.50395433)
(0 0.010252459 0.50310589)
(0 0.008745137 0.50251454)
(0 0.0074734048 0.50209006)
(0 0.0063804033 0.50177821)
(0 0.0054242446 0.50154486)
(0 0.0045737125 0.50136791)
(0 0.0038051477 0.5012327)
(0 0.0031002127 0.50112932)
(0 0.0024443395 0.50105096)
(0 0.0018256475 0.50099294)
(0 0.0012341028 0.50095207)
(0 0.00066099049 0.50092636)
(0 9.8382286e-05 0.50091453)
(0 -0.00046129751 0.50091621)
(0 -0.0010255384 0.50093174)
(0 -0.0016021993 0.50096221)
(0 -0.0021998969 0.50100964)
(0 -0.0028284458 0.50107724)
(0 -0.0034996056 0.50116983)
(0 -0.0042277466 0.50129468)
(0 -0.0050312997 0.50146252)
(0 -0.005934037 0.50168975)
(0 -0.0069677632 0.50200105)
(0 -0.0081753906 0.50243839)
(0 -0.0096172826 0.50306831)
(0 -0.011376642 0.50400594)
(0 -0.013524429 0.50544081)
(0 -0.016317842 0.507761)
(0 -0.020136941 0.5121142)
(0 -0.022768273 0.5230253)
(0 -0.035258616 0.53799891)
(0 -0.018690351 0.39267597)
(0 0.015688154 0.35070332)
(0 0.039766174 0.5448879)
(0 0.030461662 0.53872489)
(0 0.027956304 0.52164371)
(0 0.023711913 0.51432505)
(0 0.020474236 0.51046912)
(0 0.017775752 0.50791676)
(0 0.015432331 0.50616277)
(0 0.01344601 0.50493862)
(0 0.011740026 0.50406126)
(0 0.010256588 0.50341819)
(0 0.0089506707 0.50293805)
(0 0.0077856655 0.50257417)
(0 0.0067325292 0.50229544)
(0 0.0057681111 0.50208074)
(0 0.0048737317 0.50191553)
(0 0.0040340702 0.50178966)
(0 0.0032363008 0.50169609)
(0 0.0024693842 0.50162997)
(0 0.001723567 0.50158817)
(0 0.00098988307 0.50156883)
(0 0.0002597448 0.50157135)
(0 -0.00047535497 0.5015962)
(0 -0.0012242644 0.50164505)
(0 -0.0019965763 0.50172098)
(0 -0.0028030071 0.50182881)
(0 -0.0036560959 0.50197573)
(0 -0.0045706446 0.50217239)
(0 -0.0055649485 0.50243425)
(0 -0.0066613138 0.50278441)
(0 -0.0078880105 0.50325664)
(0 -0.009279542 0.50390599)
(0 -0.01087823 0.50481504)
(0 -0.012741953 0.50612088)
(0 -0.014883882 0.50803445)
(0 -0.017365976 0.5109087)
(0 -0.020716859 0.51610235)
(0 -0.022234005 0.52773371)
(0 -0.027089239 0.53273606)
(0 -0.010135477 0.368557)
(0 0.0075518498 0.33321905)
(0 0.028683338 0.53520735)
(0 0.027787833 0.54025679)
(0 0.027548238 0.5248213)
(0 0.024609432 0.51739915)
(0 0.022206747 0.5132941)
(0 0.019907372 0.51041017)
(0 0.017774147 0.50834205)
(0 0.015867721 0.50684054)
(0 0.014157034 0.50572955)
(0 0.012618742 0.50489491)
(0 0.011227482 0.50425938)
(0 0.0099588282 0.50377018)
(0 0.0087913064 0.50339082)
(0 0.0077063748 0.50309574)
(0 0.0066881442 0.50286691)
(0 0.0057229613 0.50269149)
(0 0.0047989684 0.50256043)
(0 0.0039056747 0.50246743)
(0 0.0030336043 0.50240835)
(0 0.0021739319 0.50238079)
(0 0.001318165 0.50238388)
(0 0.00045788263 0.50241825)
(0 -0.00041557597 0.50248606)
(0 -0.0013114402 0.50259127)
(0 -0.0022397595 0.50274006)
(0 -0.0032118837 0.50294152)
(0 -0.0042405873 0.5032088)
(0 -0.0053407824 0.50356062)
(0 -0.0065291614 0.50402406)
(0 -0.0078250518 0.50463755)
(0 -0.0092484602 0.50546)
(0 -0.010816469 0.50657542)
(0 -0.012549972 0.50811385)
(0 -0.014428237 0.51027324)
(0 -0.016321993 0.51332676)
(0 -0.018665854 0.51840806)
(0 -0.018909307 0.52836383)
(0 -0.01755213 0.52394239)
(0 -0.0034464185 0.35496022)
(0 0.0031976038 0.32521345)
(0 0.018711017 0.52485521)
(0 0.022937476 0.53761241)
(0 0.024624449 0.52574591)
(0 0.023228247 0.51923889)
(0 0.021793405 0.51530748)
(0 0.020110044 0.51240099)
(0 0.018406284 0.51022611)
(0 0.016775586 0.50858191)
(0 0.015236846 0.50732568)
(0 0.013799932 0.50635698)
(0 0.012460831 0.5056035)
(0 0.011210235 0.50501348)
(0 0.010037079 0.50454957)
(0 0.0089299893 0.50418472)
(0 0.0078780644 0.50389924)
(0 0.0068711668 0.50367883)
(0 0.0058999622 0.50351318)
(0 0.0049558324 0.50339504)
(0 0.0040307429 0.50331956)
(0 0.0031170679 0.5032839)
(0 0.0022074141 0.50328702)
(0 0.0012944585 0.50332961)
(0 0.00037077629 0.50341413)
(0 -0.00057133302 0.5035451)
(0 -0.0015399393 0.5037295)
(0 -0.0025436644 0.5039774)
(0 -0.0035914644 0.5043031)
(0 -0.004692767 0.50472638)
(0 -0.0058564201 0.50527487)
(0 -0.0070903062 0.50598649)
(0 -0.0083982136 0.50691567)
(0 -0.0097733508 0.50813661)
(0 -0.011196783 0.50975383)
(0 -0.012624208 0.51192509)
(0 -0.013826506 0.51484862)
(0 -0.014958121 0.51918184)
(0 -0.014164224 0.52624653)
(0 -0.0095473855 0.5151762)
(0 -1.8870247e-05 0.34905406)
(0 0.0019389175 0.3218967)
(0 0.011963207 0.51622686)
(0 0.017689247 0.53307157)
(0 0.020372731 0.52507407)
(0 0.020249257 0.51994403)
(0 0.019680706 0.51648208)
(0 0.018662245 0.51378826)
(0 0.017468244 0.51167803)
(0 0.016210825 0.51001851)
(0 0.014948217 0.5087101)
(0 0.013714797 0.50767428)
(0 0.012525116 0.50685087)
(0 0.011384058 0.50619444)
(0 0.010290984 0.5056707)
(0 0.0092422374 0.50525384)
(0 0.0082326611 0.50492446)
(0 0.007256434 0.50466812)
(0 0.0063075251 0.50447418)
(0 0.0053799173 0.50433501)
(0 0.0044677036 0.50424546)
(0 0.0035651018 0.50420247)
(0 0.0026664342 0.50420487)
(0 0.0017660949 0.50425332)
(0 0.00085852292 0.50435038)
(0 -6.1806432e-05 0.50450069)
(0 -0.0010003092 0.50471135)
(0 -0.0019621931 0.50499249)
(0 -0.0029519631 0.50535797)
(0 -0.0039730713 0.50582672)
(0 -0.0050264825 0.50642394)
(0 -0.0061092338 0.50718297)
(0 -0.0072108083 0.50814858)
(0 -0.0083068095 0.50937888)
(0 -0.0093487732 0.51094704)
(0 -0.010270638 0.51295381)
(0 -0.010846645 0.51552739)
(0 -0.010983859 0.51889176)
(0 -0.0096348569 0.52306794)
(0 -0.0045500585 0.50833525)
(0 0.00084289306 0.3468536)
(0 0.0021663197 0.32042375)
(0 0.0085391403 0.51017258)
(0 0.013422311 0.52852132)
(0 0.016239951 0.52358374)
(0 0.016858981 0.51980095)
(0 0.016904056 0.51695571)
(0 0.016439545 0.51461218)
(0 0.015705101 0.51268402)
(0 0.014816372 0.51110798)
(0 0.013849164 0.50982565)
(0 0.01285085 0.50878335)
(0 0.011848667 0.50793645)
(0 0.010858044 0.5072489)
(0 0.009886751 0.50669196)
(0 0.0089378033 0.50624307)
(0 0.0080113007 0.50588469)
(0 0.0071055792 0.50560335)
(0 0.0062179363 0.50538892)
(0 0.0053450806 0.50523398)
(0 0.0044834106 0.50513345)
(0 0.003629187 0.50508425)
(0 0.0027786477 0.50508516)
(0 0.0019280995 0.50513675)
(0 0.0010740164 0.50524142)
(0 0.00021317211 0.50540356)
(0 -0.00065713559 0.50562981)
(0 -0.001538896 0.50592951)
(0 -0.0024324219 0.506315)
(0 -0.0033360009 0.50680278)
(0 -0.0042443617 0.50741375)
(0 -0.0051464051 0.50817438)
(0 -0.0060219206 0.50911755)
(0 -0.0068369059 0.51028278)
(0 -0.007531518 0.51171369)
(0 -0.0080277183 0.51345549)
(0 -0.008155008 0.51556708)
(0 -0.0077240766 0.51802831)
(0 -0.0062688529 0.52003844)
(0 -0.0022312433 0.50375786)
(0 0.00056692935 0.34593189)
(0 0.0026456484 0.31958302)
(0 0.0072383561 0.50634066)
(0 0.010563543 0.52490294)
(0 0.013056717 0.52190541)
(0 0.013944229 0.51918402)
(0 0.014328972 0.51695174)
(0 0.014234009 0.51499969)
(0 0.013840759 0.51331418)
(0 0.013251969 0.51188355)
(0 0.012541223 0.51068229)
(0 0.011758532 0.50967994)
(0 0.010936803 0.5088475)
(0 0.010097324 0.50815918)
(0 0.0092533224 0.50759299)
(0 0.0084126005 0.50713073)
(0 0.007579323 0.50675768)
(0 0.0067552391 0.50646215)
(0 0.0059405177 0.50623512)
(0 0.0051343152 0.50606983)
(0 0.0043351671 0.50596157)
(0 0.0035412679 0.50590744)
(0 0.0027506844 0.50590621)
(0 0.0019615412 0.50595832)
(0 0.0011722107 0.50606586)
(0 0.00038153806 0.50623267)
(0 -0.00041080532 0.50646452)
(0 -0.001204148 0.50676934)
(0 -0.001995582 0.50715745)
(0 -0.0027796982 0.50764183)
(0 -0.0035471571 0.5082384)
(0 -0.0042823269 0.508966)
(0 -0.0049608107 0.50984583)
(0 -0.0055463263 0.51089998)
(0 -0.0059826123 0.51214808)
(0 -0.0061952914 0.51359668)
(0 -0.0060715581 0.51524897)
(0 -0.0054423416 0.5169992)
(0 -0.0041437407 0.5176862)
(0 -0.0014128344 0.50092446)
(0 0.00016289127 0.34535114)
(0 0.0029186256 0.31889354)
(0 0.0068257855 0.50391959)
(0 0.0088455219 0.52232784)
(0 0.010904021 0.5203967)
(0 0.011780495 0.51841447)
(0 0.01230046 0.51669512)
(0 0.01240836 0.51510657)
(0 0.012235411 0.51367444)
(0 0.011861457 0.5124151)
(0 0.011347838 0.51132531)
(0 0.010740355 0.51039271)
(0 0.010071826 0.50960151)
(0 0.0093652958 0.50893535)
(0 0.0086365837 0.50837896)
(0 0.00789628 0.5079188)
(0 0.0071512359 0.50754337)
(0 0.0064056666 0.50724316)
(0 0.0056619575 0.50701062)
(0 0.0049212528 0.50683997)
(0 0.0041838911 0.50672705)
(0 0.0034497386 0.50666926)
(0 0.0027184599 0.50666544)
(0 0.0019897612 0.50671587)
(0 0.0012636352 0.50682222)
(0 0.00054062929 0.50698764)
(0 -0.00017774916 0.50721679)
(0 -0.00088877519 0.50751588)
(0 -0.0015875168 0.50789298)
(0 -0.0022663987 0.50835736)
(0 -0.0029139857 0.50892006)
(0 -0.0035133186 0.50959282)
(0 -0.0040401872 0.51038704)
(0 -0.0044610912 0.51131144)
(0 -0.0047299628 0.51236886)
(0 -0.0047868969 0.51354633)
(0 -0.0045611832 0.51481558)
(0 -0.0039419883 0.51605917)
(0 -0.0028868917 0.51603151)
(0 -0.0011255348 0.49914997)
(0 -4.1266592e-05 0.34483839)
(0 0.0029969282 0.31822166)
(0 0.0066250841 0.50224198)
(0 0.0078181398 0.52052101)
(0 0.0094951425 0.51916146)
(0 0.010247159 0.51767179)
(0 0.01078518 0.51634443)
(0 0.010984525 0.5150621)
(0 0.010940923 0.51386307)
(0 0.010710073 0.51277481)
(0 0.010339085 0.51180702)
(0 0.0098663636 0.51095921)
(0 0.0093213195 0.51022531)
(0 0.0087260383 0.50959665)
(0 0.0080967729 0.50906376)
(0 0.007445258 0.50861744)
(0 0.0067798111 0.50824932)
(0 0.0061062151 0.50795221)
(0 0.0054284104 0.50772012)
(0 0.0047490352 0.50754836)
(0 0.0040698497 0.50743347)
(0 0.0033920786 0.50737323)
(0 0.0027167026 0.50736657)
(0 0.0020447247 0.50741359)
(0 0.0013774385 0.50751555)
(0 0.00071670893 0.50767481)
(0 6.533242e-05 0.50789489)
(0 -0.00057256966 0.50818031)
(0 -0.0011909375 0.50853673)
(0 -0.0017812758 0.50897029)
(0 -0.0023316593 0.50948765)
(0 -0.0028258555 0.51009486)
(0 -0.0032421757 0.51079604)
(0 -0.0035524414 0.51159133)
(0 -0.0037214345 0.51247358)
(0 -0.0037061848 0.5134226)
(0 -0.0034637801 0.51439983)
(0 -0.0029338031 0.5152956)
(0 -0.0021130438 0.51487989)
(0 -0.00093486596 0.49793892)
(0 -8.9512394e-05 0.34434922)
(0 0.0029927511 0.31760074)
(0 0.0064277044 0.50096378)
(0 0.0071453928 0.51919305)
(0 0.0085293906 0.51817242)
(0 0.0091342552 0.51701685)
(0 0.0096361194 0.51598156)
(0 0.0098639327 0.51494683)
(0 0.0098906261 0.51394928)
(0 0.0097517291 0.51301872)
(0 0.0094816721 0.51217102)
(0 0.0091108325 0.51141256)
(0 0.0086639351 0.51074377)
(0 0.0081606916 0.51016158)
(0 0.0076164515 0.50966114)
(0 0.0070429548 0.50923689)
(0 0.0064490591 0.5088833)
(0 0.0058413805 0.50859526)
(0 0.0052248384 0.50836835)
(0 0.0046031091 0.50819896)
(0 0.0039790047 0.50808437)
(0 0.0033547942 0.50802275)
(0 0.0027324859 0.50801316)
(0 0.0021140915 0.50805555)
(0 0.0015018891 0.50815074)
(0 0.00089869482 0.50830037)
(0 0.00030818259 0.50850683)
(0 -0.00026478605 0.50877317)
(0 -0.00081364194 0.50910284)
(0 -0.001329767 0.50949942)
(0 -0.0018018414 0.5099661)
(0 -0.0022153886 0.51050473)
(0 -0.0025520435 0.51111466)
(0 -0.0027895318 0.51179099)
(0 -0.0029020604 0.51252187)
(0 -0.0028609065 0.5132855)
(0 -0.0026412087 0.51404465)
(0 -0.0022143424 0.51469838)
(0 -0.0015870811 0.51404483)
(0 -0.00074695875 0.49704316)
(0 -8.1088949e-05 0.34391986)
(0 0.0029714656 0.31707708)
(0 0.0062250833 0.49995431)
(0 0.0066520757 0.51816959)
(0 0.0078176778 0.51737837)
(0 0.0082880643 0.51645819)
(0 0.0087340498 0.51564149)
(0 0.0089576056 0.51480418)
(0 0.0090182967 0.51397604)
(0 0.008936785 0.51318518)
(0 0.0087373449 0.5124494)
(0 0.0084430516 0.51177854)
(0 0.0080738453 0.511177)
(0 0.0076465216 0.51064555)
(0 0.0071748313 0.51018274)
(0 0.0066698208 0.50978589)
(0 0.0061402509 0.50945179)
(0 0.0055930204 0.50917718)
(0 0.0050335629 0.50895902)
(0 0.0044662034 0.50879473)
(0 0.0038944733 0.50868227)
(0 0.0033213915 0.50862021)
(0 0.0027497209 0.50860774)
(0 0.0021822102 0.5086447)
(0 0.0016218341 0.50873153)
(0 0.0010720386 0.50886919)
(0 0.00053701188 0.50905912)
(0 2.193532e-05 0.50930304)
(0 -0.00046660346 0.50960273)
(0 -0.00092040162 0.50995963)
(0 -0.0013292394 0.51037439)
(0 -0.0016807577 0.51084606)
(0 -0.0019600662 0.51137112)
(0 -0.0021501956 0.51194191)
(0 -0.00223294 0.51254531)
(0 -0.0021898772 0.51316042)
(0 -0.0020075098 0.51375535)
(0 -0.0016741109 0.51423605)
(0 -0.001197992 0.51341846)
(0 -0.00057389566 0.49636499)
(0 -6.4589807e-05 0.34357956)
(0 0.002952448 0.31665356)
(0 0.0060441617 0.49915641)
(0 0.006266296 0.51736333)
(0 0.0072660106 0.51673972)
(0 0.0076223377 0.51599054)
(0 0.0080086164 0.51533894)
(0 0.0082119218 0.51465819)
(0 0.0082846605 0.51397054)
(0 0.0082372479 0.51330062)
(0 0.0080863526 0.51266581)
(0 0.0078490179 0.51207725)
(0 0.00754086 0.5115415)
(0 0.0071757323 0.51106173)
(0 0.006765517 0.51063888)
(0 0.00632019 0.5102724)
(0 0.0058480117 0.50996092)
(0 0.0053557759 0.50970266)
(0 0.0048490761 0.50949579)
(0 0.004332568 0.50933861)
(0 0.0038102174 0.50922971)
(0 0.0032855328 0.509168)
(0 0.0027617841 0.50915284)
(0 0.0022422134 0.50918396)
(0 0.0017302416 0.50926149)
(0 0.0012296762 0.50938583)
(0 0.00074492883 0.50955763)
(0 0.00028121621 0.50977753)
(0 -0.00015518906 0.51004603)
(0 -0.00055680455 0.51036298)
(0 -0.00091470447 0.51072731)
(0 -0.0012186134 0.51113625)
(0 -0.0014568798 0.51158475)
(0 -0.0016168677 0.51206412)
(0 -0.001686083 0.51256147)
(0 -0.0016530644 0.5130584)
(0 -0.001511234 0.51352847)
(0 -0.001256905 0.51388305)
(0 -0.0008980295 0.51294602)
(0 -0.00043082862 0.49585653)
(0 -5.1269391e-05 0.34332289)
(0 0.0029372646 0.31631168)
(0 0.0058966256 0.49852719)
(0 0.0059596892 0.51672447)
(0 0.0068292103 0.51622669)
(0 0.0070899506 0.51560469)
(0 0.0074190135 0.51507927)
(0 0.0075949587 0.51452269)
(0 0.0076666539 0.51395061)
(0 0.0076376709 0.51338385)
(0 0.0075192343 0.51283819)
(0 0.0073236804 0.5123248)
(0 0.0070629808 0.51185112)
(0 0.0067483003 0.51142174)
(0 0.0063896455 0.51103909)
(0 0.0059957672 0.51070415)
(0 0.0055741985 0.51041689)
(0 0.0051313737 0.51017673)
(0 0.0046727901 0.50998278)
(0 0.0042031874 0.5098341)
(0 0.0037267329 0.50972978)
(0 0.0032472035 0.5096691)
(0 0.0027681641 0.50965152)
(0 0.0022931409 0.50967672)
(0 0.001825792 0.50974456)
(0 0.001370074 0.50985504)
(0 0.00093040706 0.51000815)
(0 0.00051182594 0.51020376)
(0 0.00012012752 0.51044135)
(0 -0.00023805364 0.51071976)
(0 -0.00055514208 0.51103677)
(0 -0.00082274461 0.51138861)
(0 -0.0010319042 0.51176952)
(0 -0.001173496 0.5121709)
(0 -0.0012389968 0.51258078)
(0 -0.0012215195 0.5129838)
(0 -0.0011186695 0.51335791)
(0 -0.00093045088 0.51361894)
(0 -0.0006640982 0.51259329)
(0 -0.00031885341 0.49548035)
(0 -4.0923657e-05 0.34313052)
(0 0.0029243397 0.31603463)
(0 0.0057795343 0.49803076)
(0 0.0057157363 0.5162182)
(0 0.0064806574 0.51581573)
(0 0.0066609854 0.51529013)
(0 0.0069375575 0.51486246)
(0 0.0070837008 0.51440483)
(0 0.0071467599 0.51392762)
(0 0.0071257906 0.51344808)
(0 0.0070282159 0.51298003)
(0 0.0068628154 0.51253396)
(0 0.0066386205 0.51211744)
(0 0.0063644794 0.51173568)
(0 0.006048664 0.51139203)
(0 0.0056986904 0.51108845)
(0 0.0053212644 0.51082587)
(0 0.0049223115 0.51060459)
(0 0.0045070592 0.51042446)
(0 0.0040801506 0.51028512)
(0 0.0036457729 0.51018612)
(0 0.0032077934 0.51012699)
(0 0.0027698976 0.51010732)
(0 0.0023357255 0.51012675)
(0 0.0019090055 0.51018498)
(0 0.0014936816 0.51028166)
(0 0.0010940333 0.51041634)
(0 0.00071477711 0.51058828)
(0 0.00036115086 0.51079633)
(0 3.8933205e-05 0.51103863)
(0 -0.00024556521 0.51131233)
(0 -0.00048561378 0.5116132)
(0 -0.00067435645 0.51193535)
(0 -0.00080540786 0.51227082)
(0 -0.00087295343 0.5126088)
(0 -0.0008731461 0.51293691)
(0 -0.00080591041 0.51323641)
(0 -0.00067302712 0.51342671)
(0 -0.00048093459 0.51233481)
(0 -0.0002318653 0.49520628)
(0 -3.2269806e-05 0.34298735)
(0 0.0029128263 0.31581056)
(0 0.0056856724 0.49763936)
(0 0.0055206317 0.51581816)
(0 0.0062005713 0.51548853)
(0 0.0063131336 0.51503706)
(0 0.0065426751 0.51468599)
(0 0.0066591262 0.5143077)
(0 0.006709445 0.51390843)
(0 0.0066897295 0.51350231)
(0 0.0066047929 0.51310124)
(0 0.0064607807 0.51271466)
(0 0.0062644183 0.51234984)
(0 0.0060226305 0.51201214)
(0 0.0057421633 0.51170535)
(0 0.0054293733 0.51143202)
(0 0.0050901247 0.51119373)
(0 0.0047297621 0.51099138)
(0 0.0043531375 0.51082537)
(0 0.0039646719 0.51069579)
(0 0.0035684391 0.51060253)
(0 0.0031682602 0.51054536)
(0 0.0027678054 0.51052396)
(0 0.0023706962 0.51053798)
(0 0.0019806043 0.51058698)
(0 0.0016013455 0.51067039)
(0 0.0012369601 0.51078743)
(0 0.00089177537 0.510937)
(0 0.00057044334 0.51111752)
(0 0.00027792914 0.51132672)
(0 1.9444223e-05 0.51156147)
(0 -0.0001996909 0.51181748)
(0 -0.00037423356 0.51208904)
(0 -0.00049994876 0.51236897)
(0 -0.00057268167 0.51264809)
(0 -0.00059071339 0.51291597)
(0 -0.00055516125 0.51315708)
(0 -0.00046847324 0.51329301)
(0 -0.00033647272 0.51215135)
(0 -0.00016325417 0.49501193)
(0 -2.4713564e-05 0.34288351)
(0 0.0029025958 0.31563019)
(0 0.0056090956 0.49733193)
(0 0.0053629916 0.51550389)
(0 0.0059734432 0.51523069)
(0 0.0060289151 0.51483693)
(0 0.0062169745 0.51454645)
(0 0.0063052651 0.51423212)
(0 0.0063409818 0.51389698)
(0 0.0063183034 0.51355257)
(0 0.0062402832 0.51320895)
(0 0.0061111488 0.51287447)
(0 0.0059358526 0.51255583)
(0 0.0057197633 0.51225824)
(0 0.0054683275 0.51198564)
(0 0.0051868609 0.51174086)
(0 0.0048804242 0.51152586)
(0 0.004553763 0.51134195)
(0 0.0042112983 0.51118991)
(0 0.0038571506 0.51107017)
(0 0.0034951872 0.51098287)
(0 0.0031290842 0.51092795)
(0 0.002762396 0.5109052)
(0 0.0023986273 0.51091428)
(0 0.0020413031 0.51095465)
(0 0.0016940322 0.51102561)
(0 0.0013605578 0.5111262)
(0 0.0010447896 0.51125507)
(0 0.00075080982 0.51141041)
(0 0.00048283983 0.51158979)
(0 0.00024515782 0.51179001)
(0 4.1936443e-05 0.5120069)
(0 -0.00012287296 0.51223522)
(0 -0.00024634637 0.5124685)
(0 -0.00032580385 0.51269935)
(0 -0.00036078794 0.51291853)
(0 -0.00035279956 0.51311367)
(0 -0.0003046442 0.51320735)
(0 -0.00022144276 0.51202808)
(0 -0.00010829704 0.4948806)
(0 -1.8148247e-05 0.34281155)
(0 0.0028936477 0.31548605)
(0 0.005545855 0.49709236)
(0 0.0052342444 0.51525925)
(0 0.0057875214 0.51503049)
(0 0.0057948676 0.51468222)
(0 0.0059467037 0.51444009)
(0 0.0060090763 0.51417762)
(0 0.0060297306 0.51389538)
(0 0.0060016113 0.51360278)
(0 0.0059266098 0.51330828)
(0 0.005807576 0.51301912)
(0 0.0056481207 0.51274135)
(0 0.0054523761 0.51247986)
(0 0.0052247087 0.5122385)
(0 0.0049695275 0.5120202)
(0 0.0046911565 0.51182712)
(0 0.0043937594 0.5116608)
(0 0.0040813074 0.51152228)
(0 0.0037575768 0.51141219)
(0 0.0034261702 0.51133088)
(0 0.003090551 0.51127843)
(0 0.0027540878 0.51125469)
(0 0.0024201009 0.51125934)
(0 0.0020919078 0.51129183)
(0 0.0017728624 0.51135138)
(0 0.0014663822 0.51143689)
(0 0.001175959 0.51154694)
(0 0.00090514482 0.51167961)
(0 0.00065750521 0.51183246)
(0 0.00043653562 0.51200237)
(0 0.00024550727 0.51218545)
(0 8.7357775e-05 0.51237698)
(0 -3.5813305e-05 0.51257129)
(0 -0.00012251619 0.51276223)
(0 -0.00017287367 0.51294206)
(0 -0.00018854469 0.5131005)
(0 -0.0001724474 0.51316114)
(0 -0.00012903453 0.5119533)
(0 -6.3931249e-05 0.49479945)
(0 -1.2584108e-05 0.34276541)
(0 0.002885894 0.31537219)
(0 0.0054932448 0.49690822)
(0 0.0051281382 0.51507158)
(0 0.0056340717 0.51487831)
(0 0.005600776 0.51456631)
(0 0.0057211639 0.51436311)
(0 0.0057601223 0.51414295)
(0 0.0057660811 0.51390449)
(0 0.005731201 0.51365542)
(0 0.0056566229 0.51340282)
(0 0.0055442188 0.51315291)
(0 0.0053965956 0.51291107)
(0 0.005216917 0.51268177)
(0 0.0050086662 0.51246865)
(0 0.0047754788 0.51227461)
(0 0.0045210224 0.51210185)
(0 0.0042489169 0.51195203)
(0 0.0039626893 0.51182633)
(0 0.0036657549 0.51172554)
(0 0.0033614189 0.51165013)
(0 0.0030528912 0.51160026)
(0 0.0027433096 0.51157588)
(0 0.002435767 0.51157667)
(0 0.0021333364 0.51160209)
(0 0.001839092 0.51165132)
(0 0.0015561188 0.51172326)
(0 0.001287508 0.51181643)
(0 0.0010363319 0.51192895)
(0 0.00080559179 0.51205843)
(0 0.00059813803 0.51220195)
(0 0.00041654127 0.51235596)
(0 0.00026297016 0.51251628)
(0 0.00013890641 0.51267804)
(0 4.5105115e-05 0.51283596)
(0 -1.8854116e-05 0.51298387)
(0 -5.4676544e-05 0.51311272)
(0 -6.5131476e-05 0.51314733)
(0 -5.4333807e-05 0.51191782)
(0 -2.7858855e-05 0.49475854)
(0 -7.7760927e-06 0.34274031)
(0 0.0028791968 0.31528376)
(0 0.0054492405 0.49676981)
(0 0.0050400432 0.51493097)
(0 0.005506539 0.51476633)
(0 0.0054388394 0.51448355)
(0 0.0055320127 0.51431195)
(0 0.0055500676 0.51412651)
(0 0.0055421558 0.51392441)
(0 0.0054999475 0.51371196)
(0 0.0054241139 0.51349506)
(0 0.0053158396 0.51327905)
(0 0.0051769871 0.51306864)
(0 0.0050099686 0.51286784)
(0 0.0048175536 0.51268004)
(0 0.004602728 0.51250798)
(0 0.004368586 0.51235384)
(0 0.0041182523 0.5122193)
(0 0.0038548316 0.51210562)
(0 0.0035813798 0.51201365)
(0 0.0033008925 0.51194393)
(0 0.0030163046 0.51189671)
(0 0.0027304987 0.51187199)
(0 0.0024463163 0.51186948)
(0 0.0021665682 0.51188866)
(0 0.0018940408 0.51192873)
(0 0.0016314941 0.51198859)
(0 0.0013816464 0.5120668)
(0 0.0011471442 0.51216156)
(0 0.00093050983 0.51227064)
(0 0.00073406793 0.51239134)
(0 0.00055984169 0.51252047)
(0 0.00040943741 0.51265437)
(0 0.00028386884 0.51278888)
(0 0.00018346358 0.51291954)
(0 0.00010763165 0.51304134)
(0 5.4738652e-05 0.51314625)
(0 2.2303871e-05 0.51316023)
(0 6.3240446e-06 0.51191442)
(0 1.8500508e-06 0.49474988)
(0 -3.4189896e-06 0.34273264)
(0 0.0028734173 0.31521678)
(0 0.0054122573 0.49666938)
(0 0.0049664464 0.51482948)
(0 0.0053999108 0.51468818)
(0 0.0053030111 0.51442914)
(0 0.0053726715 0.51428337)
(0 0.0053722093 0.51412657)
(0 0.0053514803 0.51395478)
(0 0.0053018558 0.51377318)
(0 0.0052237262 0.51358671)
(0 0.0051177982 0.51339991)
(0 0.0049853863 0.51321688)
(0 0.0048283237 0.5130412)
(0 0.0046488078 0.51287594)
(0 0.0044492849 0.51272365)
(0 0.0042323549 0.51258642)
(0 0.0040007003 0.5124659)
(0 0.0037570349 0.51236333)
(0 0.0035040691 0.51227962)
(0 0.0032444904 0.51221534)
(0 0.0029809533 0.51217079)
(0 0.0027160756 0.51214599)
(0 0.0024524386 0.51214072)
(0 0.0021925864 0.51215447)
(0 0.001939022 0.51218649)
(0 0.0016941966 0.51223572)
(0 0.0014604888 0.51230082)
(0 0.0012401721 0.51238008)
(0 0.0010353653 0.51247146)
(0 0.00084796795 0.51257251)
(0 0.00067957598 0.51268043)
(0 0.00053138648 0.51279201)
(0 0.00040407732 0.51290372)
(0 0.00029771789 0.5130118)
(0 0.00021164013 0.51311217)
(0 0.00014433148 0.51319761)
(0 9.3644408e-05 0.51319511)
(0 5.5758211e-05 0.51193707)
(0 2.6777355e-05 0.49476721)
(0 7.1863031e-07 0.34273964)
(0 0.0028684297 0.31516796)
(0 0.0053810357 0.4966007)
(0 0.0049046295 0.51476074)
(0 0.0053102935 0.51463859)
(0 0.0051885423 0.51439899)
(0 0.0052378994 0.51427448)
(0 0.0052211175 0.51414142)
(0 0.0051887125 0.51399498)
(0 0.0051318794 0.51383942)
(0 0.005050854 0.51367889)
(0 0.0049460145 0.51351725)
(0 0.0048182748 0.51335802)
(0 0.0046690243 0.51320438)
(0 0.0045000047 0.51305908)
(0 0.0043132166 0.51292446)
(0 0.0041108388 0.51280248)
(0 0.0038951646 0.5126947)
(0 0.003668552 0.51260234)
(0 0.0034333881 0.51252629)
(0 0.0031920642 0.51246714)
(0 0.0029469588 0.51242523)
(0 0.0027004272 0.51240059)
(0 0.0024547923 0.51239305)
(0 0.002212337 0.51240214)
(0 0.001975293 0.51242717)
(0 0.0017458246 0.51246715)
(0 0.0015260053 0.51252083)
(0 0.0013177848 0.51258665)
(0 0.0011229441 0.51266277)
(0 0.00094304015 0.512747)
(0 0.00077933739 0.51283688)
(0 0.00063273242 0.51292963)
(0 0.0005036683 0.51302227)
(0 0.00039206115 0.51311162)
(0 0.00029722849 0.51319432)
(0 0.00021779215 0.51326389)
(0 0.000151933 0.51324807)
(0 9.6173984e-05 0.51198038)
(0 4.7818117e-05 0.49480522)
(0 4.5568185e-06 0.34275973)
(0 0.002864123 0.31513455)
(0 0.0053545686 0.49655868)
(0 0.0048524584 0.51471952)
(0 0.0052346234 0.51461322)
(0 0.0050916644 0.51438964)
(0 0.005123487 0.51428273)
(0 0.0050923695 0.51416945)
(0 0.0050494313 0.51404428)
(0 0.0049857699 0.51391075)
(0 0.0049015487 0.51377235)
(0 0.0047969237 0.51363233)
(0 0.004672518 0.51349376)
(0 0.0045293814 0.5133594)
(0 0.004368894 0.51323171)
(0 0.0041926907 0.51311281)
(0 0.0040025939 0.51300449)
(0 0.0038005576 0.51290822)
(0 0.0035886213 0.51282516)
(0 0.0033688748 0.51275617)
(0 0.0031434311 0.51270183)
(0 0.0029144054 0.51266249)
(0 0.0026838996 0.51263822)
(0 0.0024539881 0.51262886)
(0 0.0022267046 0.512634)
(0 0.0020040266 0.51265302)
(0 0.0017878563 0.51268501)
(0 0.0015799958 0.51272883)
(0 0.0013821157 0.51278308)
(0 0.0011957153 0.51284611)
(0 0.0010220755 0.51291598)
(0 0.00086220412 0.51299056)
(0 0.00071677666 0.51306745)
(0 0.00058607468 0.51314412)
(0 0.00046992972 0.51321792)
(0 0.00036768454 0.51328605)
(0 0.00027810263 0.5133426)
(0 0.00019966831 0.51331596)
(0 0.00012928471 0.51204043)
(0 6.5388757e-05 0.49485988)
(0 7.9002252e-06 0.34279089)
(0 0.0028604009 0.31511429)
(0 0.0053320468 0.49653919)
(0 0.004808239 0.51470155)
(0 0.0051704638 0.51460845)
(0 0.0050093587 0.51439814)
(0 0.005026029 0.51430587)
(0 0.0049823441 0.51420914)
(0 0.0049299679 0.51410188)
(0 0.0048599495 0.51398703)
(0 0.0047724331 0.51386751)
(0 0.0046674274 0.5137461)
(0 0.004545345 0.51362543)
(0 0.0044069773 0.51350791)
(0 0.0042534178 0.5133957)
(0 0.0040860024 0.51329073)
(0 0.0039062532 0.5131946)
(0 0.0037158309 0.51310868)
(0 0.0035164928 0.51303404)
(0 0.0033100595 0.5129715)
(0 0.0030983872 0.51292164)
(0 0.0028833448 0.51288478)
(0 0.0026667957 0.51286103)
(0 0.0024505802 0.51285026)
(0 0.0022364991 0.51285211)
(0 0.0020262957 0.512866)
(0 0.0018216354 0.51289115)
(0 0.0016240809 0.51292651)
(0 0.0014350634 0.51297085)
(0 0.0012558473 0.5130227)
(0 0.0010874912 0.51308037)
(0 0.0009308039 0.51314199)
(0 0.00078629876 0.51320554)
(0 0.00065414846 0.51326885)
(0 0.00053414433 0.51332972)
(0 0.00042567727 0.5133858)
(0 0.00032765348 0.51343164)
(0 0.00023882967 0.51339615)
(0 0.00015644366 0.51211415)
(0 7.9904387e-05 0.49492814)
(0 1.0697143e-05 0.34283125)
(0 0.0028571805 0.31510526)
(0 0.0053128157 0.49653879)