/*--------------------------------*- C++ -*----------------------------------*\
  =========                 |
  \\      /  F ield         | OpenFOAM: The Open Source CFD Toolbox
   \\    /   O peration     | Website:  https://openfoam.org
    \\  /    A nd           | Version:  10
     \\/     M anipulation  |
\*---------------------------------------------------------------------------*/
FoamFile
{
    format      ascii;
    class       volVectorField;
    location    "0.01";
    object      U_0;
}
// * * * * * * * * * * * * * * * * * * * * * * * * * * * * * * * * * * * * * //

dimensions      [0 1 -1 0 0 0 0];

internalField   nonuniform List<vector> 
4000
(
(0 0.018193673 0.47860595)
(0 0.022204035 0.50813283)
(0 0.0069190409 0.50051238)
(0 0.0049765212 0.50035794)
(0 0.0037049207 0.50023672)
(0 0.002803306 0.50014593)
(0 0.0022075871 0.50010196)
(0 0.0017878405 0.50007597)
(0 0.0014729954 0.50005865)
(0 0.001227241 0.50004682)
(0 0.0010290075 0.5000385)
(0 0.00086444807 0.50003248)
(0 0.00072438565 0.50002803)
(0 0.00060250234 0.5000247)
(0 0.0004942933 0.50002218)
(0 0.00039643999 0.50002027)
(0 0.00030641781 0.50001883)
(0 0.00022223804 0.50001777)
(0 0.00014226344 0.50001703)
(0 6.5117411e-05 0.50001657)
(0 -1.0429995e-05 0.50001636)
(0 -8.5565119e-05 0.50001639)
(0 -0.00016145207 0.50001667)
(0 -0.00023931413 0.50001723)
(0 -0.00032052639 0.5000181)
(0 -0.00040670649 0.50001936)
(0 -0.00049984295 0.50002108)
(0 -0.00060250149 0.50002343)
(0 -0.00071810848 0.50002661)
(0 -0.00085144263 0.50003098)
(0 -0.0010093807 0.5000371)
(0 -0.001202319 0.50004583)
(0 -0.0014465657 0.50005872)
(0 -0.0017693068 0.50007831)
(0 -0.0022236444 0.50011151)
(0 -0.0029082994 0.50017891)
(0 -0.0039025429 0.5002768)
(0 -0.0054733164 0.50042509)
(0 -0.016405424 0.50613995)
(0 -0.013072879 0.48049981)
(0 0.0348093 0.45201641)
(0 0.046105064 0.52995648)
(0 0.018437423 0.50746473)
(0 0.01411522 0.50345705)
(0 0.010635011 0.50215184)
(0 0.0081180555 0.50137996)
(0 0.0064532453 0.50096852)
(0 0.0052453617 0.50071826)
(0 0.004325076 0.50055432)
(0 0.0036000585 0.50044297)
(0 0.0030106225 0.50036462)
(0 0.0025182125 0.50030789)
(0 0.0020970305 0.50026594)
(0 0.0017291069 0.50023441)
(0 0.0014015018 0.5002105)
(0 0.0011045966 0.50019233)
(0 0.00083100996 0.50017862)
(0 0.00057489098 0.50016849)
(0 0.00033138195 0.50016138)
(0 9.6383635e-05 0.50015697)
(0 -0.00013378754 0.50015492)
(0 -0.000362691 0.50015522)
(0 -0.00059380655 0.50015792)
(0 -0.00083080806 0.50016325)
(0 -0.0010777914 0.50017155)
(0 -0.0013395344 0.50018343)
(0 -0.001621889 0.50019979)
(0 -0.0019323237 0.50022199)
(0 -0.0022807377 0.50025211)
(0 -0.002680742 0.50029333)
(0 -0.0031516654 0.50035074)
(0 -0.0037224366 0.50043295)
(0 -0.0044379741 0.5005547)
(0 -0.0053686499 0.50074215)
(0 -0.0066412056 0.50105153)
(0 -0.0085423444 0.50162957)
(0 -0.01123373 0.50264859)
(0 -0.014480338 0.50563971)
(0 -0.034261997 0.52302323)
(0 -0.025233323 0.45401759)
(0 0.033741482 0.42011004)
(0 0.051298815 0.54514907)
(0 0.025769152 0.51939896)
(0 0.021157294 0.50927369)
(0 0.016507289 0.50573419)
(0 0.013036986 0.50382602)
(0 0.01062151 0.50273213)
(0 0.008771822 0.50204238)
(0 0.0073220525 0.50158703)
(0 0.0061560039 0.50127517)
(0 0.0051922075 0.50105408)
(0 0.004376617 0.50089308)
(0 0.0036717715 0.50077339)
(0 0.0030508673 0.50068308)
(0 0.0024942018 0.50061432)
(0 0.0019868741 0.5005619)
(0 0.0015172774 0.50052225)
(0 0.0010760976 0.50049293)
(0 0.00065554577 0.5004723)
(0 0.00024895011 0.50045938)
(0 -0.00014972211 0.50045342)
(0 -0.00054625385 0.50045428)
(0 -0.00094633334 0.50046213)
(0 -0.0013559669 0.50047753)
(0 -0.0017817906 0.50050155)
(0 -0.0022314499 0.50053584)
(0 -0.0027142477 0.50058292)
(0 -0.0032418028 0.50064663)
(0 -0.0038293641 0.50073272)
(0 -0.0044972645 0.50085)
(0 -0.0052738037 0.50101202)
(0 -0.0061996496 0.50124267)
(0 -0.007335684 0.50158096)
(0 -0.0087708126 0.50209658)
(0 -0.010630226 0.50291881)
(0 -0.013250511 0.50435057)
(0 -0.01685344 0.50703262)
(0 -0.020049587 0.51434225)
(0 -0.037760786 0.53451259)
(0 -0.02440245 0.42538698)
(0 0.024431398 0.38421065)
(0 0.046319189 0.54832554)
(0 0.029292604 0.53041362)
(0 0.025704499 0.51578444)
(0 0.020999993 0.51007014)
(0 0.017438673 0.50705366)
(0 0.014728937 0.50518089)
(0 0.012508666 0.50394765)
(0 0.010697519 0.5031136)
(0 0.0091923371 0.50253062)
(0 0.007915959 0.50211103)
(0 0.0068138799 0.50180195)
(0 0.0058456869 0.50157009)
(0 0.0049811247 0.50139385)
(0 0.0041971632 0.5012589)
(0 0.0034758877 0.50115551)
(0 0.0028030214 0.50107703)
(0 0.0021668867 0.50101883)
(0 0.001557599 0.50097779)
(0 0.00096655624 0.50095193)
(0 0.0003859157 0.50094001)
(0 -0.00019181881 0.50094166)
(0 -0.00077405935 0.5009572)
(0 -0.0013685808 0.50098771)
(0 -0.0019839002 0.5010352)
(0 -0.0026296855 0.50110282)
(0 -0.003317524 0.50119531)
(0 -0.0040614847 0.50131981)
(0 -0.004879624 0.50148683)
(0 -0.0057950172 0.50171247)
(0 -0.0068386245 0.50202056)
(0 -0.008051792 0.50245253)
(0 -0.0094917265 0.5030728)
(0 -0.011237449 0.50399361)
(0 -0.013355775 0.5054011)
(0 -0.016063684 0.50766232)
(0 -0.019748238 0.51185963)
(0 -0.022071447 0.52206288)
(0 -0.032809505 0.53598721)
(0 -0.016918311 0.3960283)
(0 0.014122134 0.35675274)
(0 0.036482599 0.54242634)
(0 0.029242301 0.53628083)
(0 0.027484178 0.52070523)
(0 0.023618125 0.51393649)
(0 0.020626184 0.51026786)
(0 0.01806642 0.50780956)
(0 0.015821315 0.50611372)
(0 0.01389973 0.50492439)
(0 0.012236368 0.50406845)
(0 0.010780795 0.50343893)
(0 0.0094921809 0.50296746)
(0 0.0083368406 0.50260918)
(0 0.0072877515 0.5023341)
(0 0.0063231931 0.50212177)
(0 0.0054255336 0.5019581)
(0 0.0045802424 0.50183321)
(0 0.0037751065 0.50174026)
(0 0.0029995847 0.5016745)
(0 0.0022443375 0.50163288)
(0 0.0015007655 0.50161359)
(0 0.00076062989 0.50161603)
(0 1.5761964e-05 0.50164068)
(0 -0.0007423197 0.50168916)
(0 -0.0015228019 0.50176448)
(0 -0.0023359125 0.50187136)
(0 -0.0031935914 0.5020168)
(0 -0.0041098391 0.50221115)
(0 -0.0051019098 0.50246939)
(0 -0.006190582 0.50281392)
(0 -0.0074021196 0.50327714)
(0 -0.0087679694 0.50391211)
(0 -0.010325244 0.50479744)
(0 -0.012122842 0.50606267)
(0 -0.014170543 0.50790924)
(0 -0.016482733 0.5106556)
(0 -0.01954205 0.51545946)
(0 -0.020721389 0.52583434)
(0 -0.023858568 0.52999828)
(0 -0.0084480961 0.37447374)
(0 0.006768483 0.34192015)
(0 0.025480081 0.53272269)
(0 0.025955035 0.53667005)
(0 0.026255049 0.52318037)
(0 0.023802152 0.5166382)
(0 0.021714806 0.51284299)
(0 0.019634554 0.51013156)
(0 0.017673766 0.50817303)
(0 0.015895746 0.50674067)
(0 0.014283871 0.50567506)
(0 0.012822802 0.50487098)
(0 0.011492516 0.50425651)
(0 0.010272602 0.5037821)
(0 0.0091444895 0.50341327)
(0 0.0080918037 0.50312579)
(0 0.0071003123 0.50290244)
(0 0.0061576619 0.50273098)
(0 0.0052530416 0.50260271)
(0 0.0043768347 0.5025116)
(0 0.0035203162 0.50245365)
(0 0.0026753402 0.50242656)
(0 0.0018340633 0.50242949)
(0 0.00098870458 0.50246304)
(0 0.00013127861 0.5025293)
(0 -0.0007466931 0.50263206)
(0 -0.0016543971 0.50277729)
(0 -0.0026021368 0.50297365)
(0 -0.0036013746 0.50323373)
(0 -0.0046653398 0.50357532)
(0 -0.0058084758 0.5040241)
(0 -0.0070470999 0.50461625)
(0 -0.0083970702 0.50540672)
(0 -0.0098697502 0.50647323)
(0 -0.011474732 0.50793353)
(0 -0.013187433 0.50996657)
(0 -0.014854773 0.5128059)
(0 -0.016805191 0.51730246)
(0 -0.016847844 0.5257471)
(0 -0.014550996 0.52136225)
(0 -0.0025348795 0.36315914)
(0 0.003259079 0.33564086)
(0 0.016452724 0.52318722)
(0 0.020875238 0.53359203)
(0 0.022715587 0.52360248)
(0 0.021743027 0.51808948)
(0 0.020603479 0.5145551)
(0 0.019166909 0.51189052)
(0 0.017670442 0.50987515)
(0 0.016207166 0.50833785)
(0 0.014807339 0.50715545)
(0 0.013486557 0.50623881)
(0 0.012245675 0.50552279)
(0 0.01107929 0.50496015)
(0 0.009979328 0.50451652)
(0 0.0089367724 0.50416681)
(0 0.0079426011 0.50389264)
(0 0.0069881988 0.50368063)
(0 0.0060654931 0.50352108)
(0 0.0051669417 0.50340714)
(0 0.0042854541 0.50333425)
(0 0.003414268 0.50329971)
(0 0.0025468156 0.50330255)
(0 0.0016765936 0.50334339)
(0 0.00079703307 0.50342457)
(0 -9.8629761e-05 0.50355034)
(0 -0.0010174068 0.50372728)
(0 -0.0019666701 0.50396482)
(0 -0.0029538663 0.50427629)
(0 -0.0039865446 0.5046801)
(0 -0.0050712222 0.50520175)
(0 -0.0062127392 0.50587594)
(0 -0.0074109724 0.50675168)
(0 -0.0086549275 0.50789509)
(0 -0.0099175228 0.50939663)
(0 -0.011149299 0.51138866)
(0 -0.012133605 0.51403169)
(0 -0.012916257 0.51774117)
(0 -0.012102186 0.52346081)
(0 -0.00753671 0.51354757)
(0 9.5060969e-05 0.35867165)
(0 0.0024442134 0.33306222)
(0 0.010908811 0.51577699)
(0 0.015900727 0.52936058)
(0 0.018410764 0.52276063)
(0 0.018521725 0.51851276)
(0 0.018155919 0.51547116)
(0 0.017345246 0.51305342)
(0 0.016339199 0.51113434)
(0 0.015246401 0.50961038)
(0 0.014128703 0.5083997)
(0 0.013022379 0.50743539)
(0 0.011944865 0.50666512)
(0 0.010903649 0.50604866)
(0 0.0099003333 0.50555524)
(0 0.0089331758 0.50516147)
(0 0.0079986385 0.50484968)
(0 0.0070922749 0.50460659)
(0 0.0062092355 0.50442238)
(0 0.0053445394 0.50429001)
(0 0.0044932087 0.5042047)
(0 0.0036503224 0.50416359)
(0 0.0028110284 0.50416559)
(0 0.0019705411 0.50421131)
(0 0.0011241464 0.50430311)
(0 0.00026722815 0.50444526)
(0 -0.000604633 0.50464433)
(0 -0.0014955104 0.50490959)
(0 -0.0024085906 0.50525365)
(0 -0.0033457829 0.50569375)
(0 -0.0043063184 0.50625247)
(0 -0.005285152 0.50695942)
(0 -0.0062694228 0.50785353)
(0 -0.0072331186 0.50898437)
(0 -0.0081262032 0.51041243)
(0 -0.0088794915 0.51221478)
(0 -0.0092999903 0.51448614)
(0 -0.0092416883 0.51731931)
(0 -0.0080091809 0.52058771)
(0 -0.0035979207 0.50785921)
(0 0.00057577469 0.35701546)
(0 0.0027149227 0.33173384)
(0 0.0083630706 0.51079832)
(0 0.012193504 0.52549471)
(0 0.014682988 0.52135925)
(0 0.015338216 0.51824381)
(0 0.015472373 0.51578304)
(0 0.015137761 0.51371062)
(0 0.014537455 0.51198186)
(0 0.013779094 0.51055467)
(0 0.012934502 0.50938398)
(0 0.012049308 0.50842624)
(0 0.011151018 0.50764398)
(0 0.010255857 0.50700621)
(0 0.0093726392 0.50648779)
(0 0.0085054785 0.50606875)
(0 0.0076555274 0.50573341)
(0 0.0068220982 0.50546964)
(0 0.006003383 0.50526825)
(0 0.0051969119 0.50512251)
(0 0.0043998453 0.50502776)
(0 0.0036091645 0.50498119)
(0 0.0028218036 0.50498167)
(0 0.0020347591 0.50502971)
(0 0.0012452052 0.50512748)
(0 0.00045064642 0.50527895)
(0 -0.00035085009 0.50549014)
(0 -0.0011605081 0.50576943)
(0 -0.0019776927 0.5061278)
(0 -0.0027997893 0.50657992)
(0 -0.0036207799 0.50714403)
(0 -0.0044288195 0.50784293)
(0 -0.0052034434 0.50870424)
(0 -0.0059115956 0.50976)
(0 -0.0064975119 0.51104409)
(0 -0.0068856696 0.51258595)
(0 -0.0069378188 0.51441896)
(0 -0.0064694648 0.51648617)
(0 -0.0052015838 0.51805276)
(0 -0.0019408237 0.50417354)
(0 0.00028896685 0.35615256)
(0 0.0030692296 0.33083277)
(0 0.0074538381 0.50766487)
(0 0.0098680088 0.52255922)
(0 0.012027387 0.51989443)
(0 0.012825655 0.51763432)
(0 0.013209194 0.51571647)
(0 0.013167694 0.51400386)
(0 0.012850184 0.51250639)
(0 0.012347938 0.51122308)
(0 0.011726561 0.51013681)
(0 0.011031891 0.50922452)
(0 0.010294916 0.50846284)
(0 0.0095361304 0.50783026)
(0 0.0087686484 0.50730803)
(0 0.0080005157 0.50688038)
(0 0.0072363201 0.50653439)
(0 0.0064783178 0.50625972)
(0 0.0057272143 0.50604833)
(0 0.0049827067 0.50589416)
(0 0.0042438636 0.50579297)
(0 0.0035094013 0.50574214)
(0 0.0027778988 0.50574055)
(0 0.0020479858 0.50578856)
(0 0.0013185342 0.50588805)
(0 0.00058888356 0.50604244)
(0 -0.00014081241 0.50625682)
(0 -0.00086946349 0.50653819)
(0 -0.0015937423 0.50689564)
(0 -0.0023079923 0.5073403)
(0 -0.0030029562 0.5078858)
(0 -0.0036634928 0.50854784)
(0 -0.0042666341 0.5093435)
(0 -0.0047788562 0.51028948)
(0 -0.0051504571 0.511399)
(0 -0.0053144482 0.51267146)
(0 -0.0051809581 0.51409602)
(0 -0.0046104418 0.51557633)
(0 -0.0035111867 0.51615409)
(0 -0.0013646011 0.50187834)
(0 6.0248627e-06 0.35550238)
(0 0.0032267276 0.3300753)
(0 0.0071128194 0.5056216)
(0 0.0084972243 0.5204886)
(0 0.010287129 0.5186186)
(0 0.011028517 0.51694708)
(0 0.011496422 0.51546725)
(0 0.011605756 0.51407641)
(0 0.011463985 0.51280955)
(0 0.011139316 0.51168586)
(0 0.01068464 0.51070632)
(0 0.010140599 0.50986293)
(0 0.0095369127 0.50914374)
(0 0.0088948394 0.50853561)
(0 0.0082292562 0.50802586)
(0 0.0075503305 0.50760299)
(0 0.006864812 0.50725711)
(0 0.006177008 0.50697993)
(0 0.0054895107 0.50676483)
(0 0.0048037363 0.50660668)
(0 0.00412033 0.5065018)
(0 0.0034394808 0.50644786)
(0 0.0027611794 0.50644382)
(0 0.0020854513 0.50648989)
(0 0.0014125915 0.50658755)
(0 0.00074341933 0.50673953)
(0 7.9656226e-05 0.5069499)
(0 -0.00057584232 0.50722404)
(0 -0.001218186 0.5075689)
(0 -0.001840049 0.50799225)
(0 -0.002430629 0.50850327)
(0 -0.0029742504 0.50911137)
(0 -0.0034489949 0.50982514)
(0 -0.0038249418 0.51065016)
(0 -0.0040624496 0.51158588)
(0 -0.0041103889 0.51261791)
(0 -0.0039122766 0.51371441)
(0 -0.0033846961 0.51478014)
(0 -0.0025047329 0.51482484)
(0 -0.0011004406 0.50039319)
(0 -0.00010198364 0.35494273)
(0 0.0032476767 0.32938238)
(0 0.0068761419 0.50414884)
(0 0.0076451902 0.51900644)
(0 0.0091273913 0.51758279)
(0 0.0097458355 0.51630842)
(0 0.010212785 0.51515904)
(0 0.010386605 0.51403461)
(0 0.010346629 0.51297488)
(0 0.010139347 0.51200613)
(0 0.0098046967 0.51113917)
(0 0.009376066 0.51037555)
(0 0.008879505 0.50971142)
(0 0.008334906 0.50914023)
(0 0.0077571354 0.5086544)
(0 0.0071570929 0.50824629)
(0 0.0065426331 0.50790887)
(0 0.0059193225 0.50763593)
(0 0.005291047 0.50742232)
(0 0.0046604938 0.50726394)
(0 0.0040295354 0.50715775)
(0 0.0033995439 0.50710179)
(0 0.0027716609 0.5070951)
(0 0.0021470448 0.50713774)
(0 0.0015271196 0.50723078)
(0 0.00091383492 0.50737626)
(0 0.00031000999 0.50757717)
(0 -0.00028037404 0.50783736)
(0 -0.00085157244 0.50816156)
(0 -0.0013956227 0.50855481)
(0 -0.0019015843 0.50902243)
(0 -0.0023548302 0.50956891)
(0 -0.0027360878 0.51019673)
(0 -0.003020768 0.51090465)
(0 -0.0031788998 0.51168443)
(0 -0.003174949 0.51251705)
(0 -0.0029744453 0.5133665)
(0 -0.0025340779 0.51414567)
(0 -0.0018531706 0.51388372)
(0 -0.00088295323 0.49934602)
(0 -0.00010824358 0.35445076)
(0 0.0032249449 0.32877804)
(0 0.0066464623 0.50300854)
(0 0.0070531376 0.51788887)
(0 0.0082993203 0.51675029)
(0 0.0087889654 0.51575194)
(0 0.009218089 0.51484995)
(0 0.0094095223 0.51394008)
(0 0.0094247901 0.51305771)
(0 0.0092933439 0.51222991)
(0 0.009044108 0.51147186)
(0 0.0087031841 0.51079041)
(0 0.0082922067 0.51018702)
(0 0.0078286821 0.50965984)
(0 0.0073264283 0.50920524)
(0 0.0067961519 0.5088188)
(0 0.0062460362 0.50849595)
(0 0.0056822774 0.5082324)
(0 0.0051095523 0.50802438)
(0 0.0045314153 0.50786881)
(0 0.0039506344 0.50776331)
(0 0.0033694807 0.50770627)
(0 0.0027899848 0.50769687)
(0 0.0022141768 0.50773504)
(0 0.0016443259 0.50782145)
(0 0.0010831875 0.50795747)
(0 0.00053429213 0.50814509)
(0 2.2170606e-06 0.50838681)
(0 -0.00050694602 0.50868546)
(0 -0.00098529074 0.5090438)
(0 -0.0014225844 0.50946416)
(0 -0.0018059812 0.50994752)
(0 -0.0021193096 0.51049249)
(0 -0.0023433827 0.5110938)
(0 -0.0024564122 0.51174006)
(0 -0.0024349053 0.51241142)
(0 -0.0022588693 0.51307538)
(0 -0.0019083708 0.51365188)
(0 -0.0013891641 0.51318882)
(0 -0.00068264907 0.4985638)
(0 -8.8255936e-05 0.3540439)
(0 0.0031990852 0.32828466)
(0 0.0064369872 0.50211166)
(0 0.0066047188 0.5170167)
(0 0.007671032 0.51607919)
(0 0.0080457098 0.51527923)
(0 0.0084240394 0.51456422)
(0 0.0086084444 0.51382575)
(0 0.00865006 0.51309219)
(0 0.008566124 0.51238857)
(0 0.008376912 0.51173113)
(0 0.0081021337 0.51112931)
(0 0.0077591165 0.5105877)
(0 0.0073626498 0.51010764)
(0 0.006924992 0.50968838)
(0 0.0064561041 0.50932795)
(0 0.005963974 0.50902384)
(0 0.0054549619 0.50877336)
(0 0.004934134 0.50857402)
(0 0.0044055694 0.5084236)
(0 0.0038726359 0.50832038)
(0 0.0033382393 0.50826311)
(0 0.0028050522 0.50825108)
(0 0.0022757318 0.50828412)
(0 0.0017531345 0.50836256)
(0 0.0012405357 0.50848718)
(0 0.00074186582 0.50865911)
(0 0.00026194359 0.5088797)
(0 -0.00019321914 0.50915029)
(0 -0.00061619709 0.50947183)
(0 -0.00099781657 0.50984448)
(0 -0.0013271952 0.5102669)
(0 -0.0015913505 0.51073545)
(0 -0.0017757087 0.51124272)
(0 -0.0018649842 0.51177673)
(0 -0.0018441084 0.51231878)
(0 -0.0017022996 0.51284169)
(0 -0.0014316962 0.51327128)
(0 -0.0010394583 0.51266551)
(0 -0.00051403892 0.49797653)
(0 -6.926804e-05 0.3537314)
(0 0.003178041 0.32789081)
(0 0.0062632273 0.50140891)
(0 0.0062530225 0.51632943)
(0 0.0071793029 0.51553969)
(0 0.0074559182 0.51488546)
(0 0.0077812735 0.51431291)
(0 0.0079462339 0.51371078)
(0 0.0079963389 0.51310065)
(0 0.0079404804 0.51250427)
(0 0.0077925127 0.51193718)
(0 0.007566955 0.51140964)
(0 0.0072773229 0.51092793)
(0 0.0069357506 0.51049532)
(0 0.006552764 0.51011304)
(0 0.0061372921 0.50978095)
(0 0.0056968018 0.5094981)
(0 0.0052374929 0.50926315)
(0 0.0047645177 0.5090746)
(0 0.0042822028 0.50893107)
(0 0.0037942642 0.50883135)
(0 0.0033040097 0.50877455)
(0 0.002814533 0.50876008)
(0 0.0023289 0.50878768)
(0 0.0018503319 0.50885742)
(0 0.0013823886 0.50896957)
(0 0.000929156 0.50912458)
(0 0.00049542622 0.50932287)
(0 8.6889633e-05 0.50956463)
(0 -0.00028973721 0.50984952)
(0 -0.00062651035 0.51017625)
(0 -0.0009143901 0.51054198)
(0 -0.0011432979 0.51094191)
(0 -0.0013023989 0.51136799)
(0 -0.0013812107 0.51180857)
(0 -0.0013703411 0.51224753)
(0 -0.0012647027 0.51266234)
(0 -0.0010621288 0.51298398)
(0 -0.00076973725 0.51227417)
(0 -0.00038103376 0.4975421)
(0 -5.4522703e-05 0.3534987)
(0 0.0031608638 0.32757483)
(0 0.0061253755 0.50085853)
(0 0.0059751975 0.51578748)
(0 0.0067897688 0.51510818)
(0 0.0069833274 0.51456304)
(0 0.0072580693 0.51410007)
(0 0.0073979746 0.51360649)
(0 0.0074457795 0.51309803)
(0 0.0074048012 0.51259303)
(0 0.0072843066 0.51210549)
(0 0.007094794 0.51164551)
(0 0.0068466018 0.51121997)
(0 0.0065494777 0.51083327)
(0 0.0062122499 0.51048786)
(0 0.0058427119 0.51018487)
(0 0.0054476327 0.50992452)
(0 0.0050328432 0.50970646)
(0 0.0046033649 0.50953006)
(0 0.0041635598 0.50939456)
(0 0.0037172878 0.50929925)
(0 0.0032680644 0.50924349)
(0 0.0028192159 0.50922684)
(0 0.002374032 0.50924899)
(0 0.0019359146 0.50930977)
(0 0.0015085235 0.50940909)
(0 0.0010959171 0.50954685)
(0 0.00070268188 0.50972279)
(0 0.00033405089 0.50993627)
(0 -4.0423776e-06 0.51018604)
(0 -0.00030489934 0.51046993)
(0 -0.00056115181 0.51078431)
(0 -0.00076504837 0.51112383)
(0 -0.00090885665 0.51148074)
(0 -0.00098532409 0.51184423)
(0 -0.00098882018 0.51220102)
(0 -0.00091774537 0.51253224)
(0 -0.00077260285 0.51277334)
(0 -0.00056001972 0.51198658)
(0 -0.0002781485 0.49722536)
(0 -4.2645086e-05 0.35332598)
(0 0.00314615 0.32732067)
(0 0.0060161469 0.50042705)
(0 0.0057547804 0.51536089)
(0 0.0064788914 0.51476514)
(0 0.0066020965 0.51430306)
(0 0.0068303931 0.51392544)
(0 0.0069434074 0.51351866)
(0 0.0069826643 0.51309381)
(0 0.0069477947 0.51266608)
(0 0.0068448571 0.5122477)
(0 0.0066813206 0.51184805)
(0 0.0064649765 0.51147404)
(0 0.0062035352 0.51113051)
(0 0.0059042758 0.51082064)
(0 0.0055738703 0.51054638)
(0 0.0052183196 0.51030875)
(0 0.0048429668 0.51010814)
(0 0.0044525591 0.50994457)
(0 0.0040513399 0.5098178)
(0 0.0036431565 0.50972748)
(0 0.0032315765 0.50967324)
(0 0.0028200067 0.50965472)
(0 0.0024118114 0.50967161)
(0 0.002010428 0.50972356)
(0 0.0016194774 0.50981022)
(0 0.0012428644 0.50993109)
(0 0.00088486333 0.51008542)
(0 0.00055018218 0.51027202)
(0 0.00024397687 0.51048908)
(0 -2.818276e-05 0.5107339)
(0 -0.00026041239 0.51100258)
(0 -0.00044676418 0.51128969)
(0 -0.00058188284 0.51158813)
(0 -0.00066074094 0.51188821)
(0 -0.00068027832 0.51217924)
(0 -0.00064070011 0.51244521)
(0 -0.00054386826 0.51262504)
(0 -0.00039581263 0.51178085)
(0 -0.00019787692 0.49699916)
(0 -3.2662162e-05 0.35319965)
(0 0.0031333143 0.32711719)
(0 0.0059281414 0.50008963)
(0 0.0055782444 0.51502681)
(0 0.0062285627 0.5144951)
(0 0.0062922755 0.51409715)
(0 0.0064789585 0.51378669)
(0 0.0065653783 0.51344971)
(0 0.0065927667 0.51309366)
(0 0.0065583396 0.51273104)
(0 0.0064659482 0.51237231)
(0 0.0063208229 0.5120259)
(0 0.0061287633 0.51169838)
(0 0.0058957988 0.51139464)
(0 0.0056278565 0.51111822)
(0 0.0053305675 0.51087152)
(0 0.0050091651 0.5106561)
(0 0.0046684516 0.51047288)
(0 0.0043128144 0.51032232)
(0 0.0039462735 0.51020457)
(0 0.00357255 0.5101196)
(0 0.0031951461 0.51006723)
(0 0.0028174312 0.51004719)
(0 0.0024427299 0.51005915)
(0 0.0020744067 0.51010268)
(0 0.0017159449 0.51017724)
(0 0.0013710147 0.51028205)
(0 0.0010435236 0.51041605)
(0 0.0007376417 0.5105777)
(0 0.00045778827 0.5107649)
(0 0.00020856458 0.51097471)
(0 -5.3802338e-06 0.51120321)
(0 -0.00017949762 0.51144524)
(0 -0.00031031021 0.51169436)
(0 -0.00039409158 0.51194252)
(0 -0.00042963859 0.51218047)
(0 -0.00041805196 0.51239531)
(0 -0.00036161732 0.51252776)
(0 -0.0002659787 0.51164044)
(0 -0.00013418675 0.49684386)
(0 -2.4115863e-05 0.35311062)
(0 0.0031221851 0.32695553)
(0 0.005856143 0.49982765)
(0 0.0054351941 0.51476758)
(0 0.0060249684 0.51428571)
(0 0.0060384438 0.51393789)
(0 0.0061884194 0.51368073)
(0 0.0062497221 0.51340019)
(0 0.0062637985 0.51310087)
(0 0.0062263006 0.512793)
(0 0.0061395887 0.51248544)
(0 0.0060072645 0.51218561)
(0 0.0058335997 0.51189954)
(0 0.0056232679 0.51163195)
(0 0.0053810517 0.51138645)
(0 0.0051116546 0.51116566)
(0 0.0048195844 0.51097145)
(0 0.0045090947 0.51080508)
(0 0.0041841709 0.51066732)
(0 0.0038485452 0.51055862)
(0 0.0035057348 0.51047915)
(0 0.0031590922 0.51042889)
(0 0.0028118639 0.51040767)
(0 0.002467251 0.51041516)
(0 0.0021284681 0.51045087)
(0 0.0017987964 0.51051413)
(0 0.0014816245 0.51060402)
(0 0.0011804737 0.51071928)
(0 0.00089899758 0.51085821)
(0 0.00064094857 0.51101855)
(0 0.00041010139 0.51119738)
(0 0.00021010639 0.5113909)
(0 4.4376536e-05 0.51159441)
(0 -8.4603318e-05 0.5118021)
(0 -0.00017454966 0.5120076)
(0 -0.00022520908 0.51220252)
(0 -0.00023791252 0.51237699)
(0 -0.00021529177 0.5124725)
(0 -0.00016231132 0.51155256)
(0 -8.3049284e-05 0.49674482)
(0 -1.6868605e-05 0.35305182)
(0 0.0031126183 0.32682852)
(0 0.0057966752 0.49962684)
(0 0.0053180747 0.51456932)
(0 0.005857864 0.51412686)
(0 0.0058288951 0.5138187)
(0 0.0059467979 0.51360422)
(0 0.0059850309 0.51336956)
(0 0.0059855129 0.51311712)
(0 0.0059428947 0.51285527)
(0 0.0058585495 0.51259147)
(0 0.0057349094 0.51233215)
(0 0.0055750911 0.51208273)
(0 0.0053826931 0.51184761)
(0 0.0051615499 0.5116303)
(0 0.0049155604 0.51143348)
(0 0.0046485721 0.51125916)
(0 0.0043643109 0.5111088)
(0 0.0040663481 0.51098337)
(0 0.0037580946 0.51088351)
(0 0.0034428154 0.51080955)
(0 0.0031236574 0.51076158)
(0 0.0028036852 0.5107395)
(0 0.0024859195 0.51074301)
(0 0.0021733746 0.5107716)
(0 0.0018690903 0.51082454)
(0 0.001576153 0.51090081)
(0 0.0012977015 0.51099908)
(0 0.0010369119 0.51111759)
(0 0.00079695258 0.51125411)
(0 0.00058090762 0.51140577)
(0 0.00039164473 0.51156909)
(0 0.00023169356 0.51173983)
(0 0.00010287878 0.51191293)
(0 6.4143091e-06 0.51208298)
(0 -5.7858509e-05 0.51224316)
(0 -9.14216e-05 0.51238518)
(0 -9.6959964e-05 0.51245177)
(0 -7.8840452e-05 0.51150712)
(0 -4.1726543e-05 0.49669066)
(0 -1.0802737e-05 0.3530175)
(0 0.0031044208 0.3267304)
(0 0.0057472345 0.49947611)
(0 0.0052213808 0.51442116)
(0 0.0057196491 0.51401023)
(0 0.0056547571 0.51373379)
(0 0.0057447882 0.51355379)
(0 0.0057621955 0.51335664)
(0 0.0057494816 0.51314307)
(0 0.0057006659 0.51291994)
(0 0.0056164819 0.51269349)
(0 0.0054985317 0.51246925)
(0 0.0053490672 0.51225202)
(0 0.0051708461 0.51204583)
(0 0.0049669286 0.51185396)
(0 0.0047405296 0.51167905)
(0 0.0044949107 0.51152313)
(0 0.0042333075 0.51138774)
(0 0.0039588866 0.51127398)
(0 0.0036747259 0.51118259)
(0 0.0033838132 0.51111403)
(0 0.0030890562 0.51106846)
(0 0.0027933009 0.51104583)
(0 0.0024993521 0.51104588)
(0 0.0022099944 0.5110681)
(0 0.0019280072 0.51111174)
(0 0.0016561712 0.51117578)
(0 0.001397262 0.51125886)
(0 0.0011540248 0.51135925)
(0 0.00092912751 0.5114748)
(0 0.00072508687 0.51160285)
(0 0.00054415985 0.51174021)
(0 0.00038822061 0.51188314)
(0 0.0002585527 0.51202732)
(0 0.00015576347 0.51216804)
(0 7.9455581e-05 0.51229994)
(0 2.8109315e-05 0.51241571)
(0 -7.6606285e-07 0.51245945)
(0 -1.1258462e-05 0.51149617)
(0 -7.9609833e-06 0.49667244)
(0 -5.5037017e-06 0.35300325)
(0 0.0030973963 0.32665655)
(0 0.0057058997 0.49936675)
(0 0.0051409914 0.51431449)
(0 0.0056045766 0.51392906)
(0 0.0055092127 0.51367824)
(0 0.0055750969 0.51352628)
(0 0.0055739125 0.51335999)
(0 0.0055487767 0.51317876)
(0 0.0054933191 0.51298823)
(0 0.0054078713 0.51279363)
(0 0.0052934514 0.5125997)
(0 0.0051516702 0.51241062)
(0 0.0049846328 0.51223001)
(0 0.0047947743 0.51206092)
(0 0.0045847362 0.51190584)
(0 0.0043572696 0.51176675)
(0 0.0041151654 0.5116452)
(0 0.0038612077 0.51154234)
(0 0.0035981461 0.51145897)
(0 0.0033286827 0.5113956)
(0 0.0030554701 0.51135248)
(0 0.0027811161 0.51132959)
(0 0.0025081917 0.51132669)
(0 0.0022392375 0.5113433)
(0 0.0019767685 0.5113787)
(0 0.0017232688 0.51143187)
(0 0.001481177 0.51150151)
(0 0.0012528577 0.51158598)
(0 0.0010405538 0.51168324)
(0 0.00084632074 0.51179088)
(0 0.00067193689 0.51190603)
(0 0.00051879781 0.51202541)
(0 0.00038777824 0.51214534)
(0 0.00027913209 0.51226183)
(0 0.00019231737 0.51237055)
(0 0.00012588079 0.51246506)
(0 7.7624169e-05 0.51249061)
(0 4.3672507e-05 0.51151332)
(0 2.014395e-05 0.49668305)
(0 -5.8281053e-07 0.35300571)
(0 0.0030913717 0.32660313)
(0 0.0056711649 0.49929181)
(0 0.0050737538 0.51424241)
(0 0.0055082215 0.51387778)
(0 0.0053869454 0.51364781)
(0 0.0054319426 0.51351884)
(0 0.0054142832 0.51337805)
(0 0.005377685 0.51322381)
(0 0.0053155447 0.51306079)
(0 0.0052279524 0.51289336)
(0 0.0051155205 0.51272555)
(0 0.0049793872 0.512561)
(0 0.0048211545 0.51240293)
(0 0.0046427569 0.51225411)
(0 0.0044463594 0.51211684)
(0 0.0042342741 0.51199301)
(0 0.0040088963 0.51188413)
(0 0.0037726571 0.51179133)
(0 0.0035279922 0.51171546)
(0 0.0032773221 0.51165704)
(0 0.0030230413 0.51161636)
(0 0.0027675134 0.51159345)
(0 0.0025130695 0.51158809)
(0 0.0022620052 0.51159984)
(0 0.002016576 0.51162801)
(0 0.001778986 0.51167164)
(0 0.0015513679 0.51172951)
(0 0.0013357531 0.51180008)
(0 0.0011340272 0.5118815)
(0 0.00094787206 0.51197158)
(0 0.0007786932 0.51206778)
(0 0.00062753456 0.51216727)
(0 0.00049498035 0.5122669)
(0 0.00038106925 0.51236331)
(0 0.00028519495 0.51245296)
(0 0.00020600821 0.51253017)
(0 0.00014162073 0.51254108)
(0 8.8489174e-05 0.51155292)
(0 4.3782745e-05 0.49671661)
(0 3.9776652e-06 0.35302286)
(0 0.0030861985 0.32656701)
(0 0.00564184 0.49924566)
(0 0.0050172181 0.51419933)
(0 0.0054271299 0.51385179)
(0 0.0052837626 0.51363893)
(0 0.0053107026 0.51352891)
(0 0.005278515 0.51340931)
(0 0.0052314813 0.51327768)
(0 0.0051628661 0.5131379)
(0 0.0050726252 0.51299364)
(0 0.0049610922 0.51284832)
(0 0.0048290598 0.5127051)
(0 0.0046777436 0.51256681)
(0 0.0045086791 0.51243593)
(0 0.0043236385 0.51231456)
(0 0.0041245599 0.51220448)
(0 0.0039134906 0.5121071)
(0 0.0036925421 0.51202354)
(0 0.0034638573 0.5119546)
(0 0.0032295871 0.51190086)
(0 0.0029918742 0.51186259)
(0 0.0027528416 0.51183985)
(0 0.0025145838 0.51183248)
(0 0.0022791579 0.51184007)
(0 0.0020485726 0.51186197)
(0 0.0018247725 0.51189731)
(0 0.0016096162 0.51194495)
(0 0.0014048462 0.51200349)
(0 0.0012120489 0.51207125)
(0 0.001032605 0.51214629)
(0 0.00086763066 0.51222639)
(0 0.00071791033 0.51230909)
(0 0.00058382574 0.51239172)
(0 0.00046528892 0.51247147)
(0 0.00036168542 0.51254539)
(0 0.00027178697 0.51260847)
(0 0.00019400025 0.51260751)
(0 0.00012516261 0.5116106)
(0 6.3550952e-05 0.49676852)
(0 7.9994074e-06 0.35305261)
(0 0.0030817499 0.32654555)
(0 0.0056169773 0.49922374)
(0 0.004969457 0.51418068)
(0 0.0053585756 0.51384728)
(0 0.0051963262 0.51364854)
(0 0.0052076538 0.51355423)
(0 0.0051626952 0.51345231)
(0 0.0051062486 0.51333968)
(0 0.0050315106 0.51321959)
(0 0.0049383732 0.51309511)
(0 0.0048269818 0.51296915)
(0 0.0046978772 0.51284444)
(0 0.0045519798 0.51272345)
(0 0.0043905079 0.51260839)
(0 0.0042149113 0.51250116)
(0 0.0040268117 0.51240338)
(0 0.0038279536 0.51231639)
(0 0.0036201625 0.51224122)
(0 0.0034053133 0.51217868)
(0 0.0031853047 0.51212929)
(0 0.0029620398 0.51209337)
(0 0.002737411 0.512071)
(0 0.0025132865 0.51206202)
(0 0.0022914966 0.51206609)
(0 0.0020738198 0.51208262)
(0 0.0018619641 0.5121108)
(0 0.0016575447 0.51214961)
(0 0.0014620552 0.51219779)
(0 0.0012768322 0.51225385)
(0 0.0011030139 0.51231606)
(0 0.00094149179 0.5123825)
(0 0.00079285942 0.51245105)
(0 0.00065735961 0.51251944)
(0 0.0005348356 0.51258533)
(0 0.000424699 0.51264627)
(0 0.00032585174 0.51269774)
(0 0.00023697055 0.51268711)
(0 0.00015523687 0.51168303)
(0 7.9917272e-05 0.49683532)
(0 1.1393994e-05 0.35309287)
(0 0.0030779183 0.32653661)
(0 0.0055958169 0.49922228)
(0 0.0049289383 0.5141827)
(0 0.0053003851 0.51386107)
(0 0.0051219557 0.51367406)
(0 0.0051197769 0.51359284)
(0 0.0050636137 0.51350572)
(0 0.0049987314 0.51340911)
(0 0.0049182981 0.51330573)
(0 0.0048221879 0.51319815)
(0 0.0047104214 0.51308885)
(0 0.0045833573 0.51298018)
(0 0.0044416906 0.51287429)
(0 0.0042863882 0.51277314)
(0 0.0041186358 0.51267843)
(0 0.0039397889 0.51259163)
(0 0.0037513303 0.51251396)
(0 0.0035548326 0.51244639)
(0 0.0033519284 0.51238969)
(0 0.0031442843 0.51234436)
(0 0.0029335804 0.51231071)
(0 0.0027214927 0.51228883)
(0 0.0025096767 0.51227861)
(0 0.002299752 0.51227974)
(0 0.0020932852 0.5122917)
(0 0.0018917713 0.51231376)
(0 0.0016966107 0.51234501)
(0 0.0015090837 0.51238432)
(0 0.0013303186 0.51243039)
(0 0.0011612576 0.51248169)
(0 0.0010026182 0.51253657)
(0 0.00085485327 0.5125932)
(0 0.00071811258 0.51264968)
(0 0.00059220759 0.51270403)
(0 0.00047659533 0.51275421)
(0 0.00037030735 0.51279613)
(0 0.00027226154 0.51277755)
(0 0.00017992728 0.51176754)
(0 9.3392676e-05 0.49691432)
(0 1.4205298e-05 0.35314186)
(0 0.0030746128 0.32653836)
(0 0.0055777442 0.49923818)