/*--------------------------------*- C++ -*----------------------------------*\
  =========                 |
  \\      /  F ield         | OpenFOAM: The Open Source CFD Toolbox
   \\    /   O peration     | Website:  https://openfoam.org
    \\  /    A nd           | Version:  10
     \\/     M anipulation  |
\*---------------------------------------------------------------------------*/
FoamFile
{
    format      ascii;
    class       surfaceScalarField;
    location    "0.11";
    object      phi;
}
// * * * * * * * * * * * * * * * * * * * * * * * * * * * * * * * * * * * * * //

dimensions      [1 0 -1 0 0 0 0];

internalField   nonuniform List<scalar> 
7860
(
3.9890555e-08
5.2881748e-07
1.2188554e-08
5.9640978e-07
7.4235957e-09
5.7347269e-07
5.494501e-09
5.7063679e-07
4.1098924e-09
5.7009227e-07
3.196033e-09
5.696215e-07
2.5541354e-09
5.6934952e-07
2.074505e-09
5.6918724e-07
1.7048033e-09
5.690773e-07
1.412496e-09
5.6899989e-07
1.1757791e-09
5.689443e-07
9.7988222e-10
5.6890347e-07
8.1445444e-10
5.6887299e-07
6.7199853e-10
5.6885002e-07
5.4693441e-10
5.6883262e-07
4.3499471e-10
5.688195e-07
3.3281908e-10
5.6880973e-07
2.3767356e-10
5.688027e-07
1.4724842e-10
5.6879798e-07
5.9505583e-11
5.6879529e-07
-2.7444605e-11
5.687945e-07
-1.1545082e-10
5.6879556e-07
-2.0642732e-10
5.6879853e-07
-3.0245926e-10
5.6880358e-07
-4.0593538e-10
5.6881103e-07
-5.1971111e-10
5.6882133e-07
-6.4732946e-10
5.6883518e-07
-7.933341e-10
5.6885357e-07
-9.6372984e-10
5.6887796e-07
-1.1666899e-09
5.6891053e-07
-1.413729e-09
5.6895462e-07
-1.7216743e-09
5.6901553e-07
-2.1155248e-09
5.6910145e-07
-2.6351851e-09
5.6922727e-07
-3.3630826e-09
5.6943552e-07
-4.4548864e-09
5.6979944e-07
-6.0013891e-09
5.7025417e-07
-9.5011309e-09
5.7220744e-07
-2.9567417e-08
5.8877403e-07
5.391405e-07
5.96597e-08
4.6915786e-07
3.665081e-08
6.1941863e-07
2.2613525e-08
5.8750996e-07
1.6238051e-08
5.7701226e-07
1.2274518e-08
5.7405581e-07
9.5902417e-09
5.7230578e-07
7.6617829e-09
5.7127798e-07
6.2210734e-09
5.7062795e-07
5.1124789e-09
5.7018589e-07
4.235897e-09
5.6987648e-07
3.5259682e-09
5.6965422e-07
2.9385002e-09
5.6949094e-07
2.4424252e-09
5.6936907e-07
2.0152462e-09
5.692772e-07
1.6402272e-09
5.6920764e-07
1.30457e-09
5.6915515e-07
9.9819636e-10
5.691161e-07
7.1290716e-10
5.6908799e-07
4.4177574e-10
5.6906911e-07
1.7868922e-10
5.6905838e-07
-8.2020316e-11
5.6905521e-07
-3.4589837e-10
5.6905943e-07
-6.1867991e-10
5.6907131e-07
-9.0662124e-10
5.6909152e-07
-1.2168866e-09
5.6912129e-07
-1.5580397e-09
5.6916248e-07
-1.940706e-09
5.6921784e-07
-2.3785122e-09
5.6929137e-07
-2.8894746e-09
5.6938892e-07
-3.4981223e-09
5.6951918e-07
-4.2389156e-09
5.6969541e-07
-5.162267e-09
5.6993888e-07
-6.3448597e-09
5.7028404e-07
-7.9054904e-09
5.707879e-07
-1.0047462e-08
5.7157749e-07
-1.3177065e-08
5.7292905e-07
-1.8109226e-08
5.7518633e-07
-2.8152209e-08
5.8225042e-07
-4.5781763e-08
6.0640358e-07
4.9335873e-07
5.9989353e-08
4.0916872e-07
5.0459218e-08
6.2894876e-07
3.3343822e-08
6.0462532e-07
2.479026e-08
5.8556582e-07
1.9295141e-08
5.7955093e-07
1.530342e-08
5.762975e-07
1.2333268e-08
5.7424813e-07
1.0075259e-08
5.7288596e-07
8.3159569e-09
5.7194519e-07
6.9121965e-09
5.7128024e-07
5.7678567e-09
5.7079856e-07
4.8161327e-09
5.7044266e-07
4.0092216e-09
5.7017598e-07
3.3121011e-09
5.6997432e-07
2.698471e-09
5.6982127e-07
2.1480634e-09
5.6970556e-07
1.6448173e-09
5.6961935e-07
1.1755979e-09
5.6955721e-07
7.2926235e-10
5.6951544e-07
2.959464e-10
5.6949169e-07
-1.3351334e-10
5.6948467e-07
-5.6808555e-10
5.6949401e-07
-1.0170377e-09
5.6952026e-07
-1.490457e-09
5.6956494e-07
-1.9998531e-09
5.6963069e-07
-2.558918e-09
5.6972155e-07
-3.1845388e-09
5.6984346e-07
-3.8982086e-09
5.7000504e-07
-4.7280781e-09
5.7021879e-07
-5.7120196e-09
5.7050312e-07
-6.9022878e-09
5.7088568e-07
-8.3731595e-09
5.7140975e-07
-1.0234126e-08
5.72145e-07
-1.264718e-08
5.7320095e-07
-1.5845634e-08
5.7477594e-07
-2.0191612e-08
5.7727503e-07
-2.6662573e-08
5.8165729e-07
-3.8902353e-08
5.944902e-07
-4.8133311e-08
6.1563454e-07
4.4522542e-07
5.485391e-08
3.5431518e-07
5.7409495e-08
6.2639327e-07
4.0425745e-08
6.2160898e-07
3.0737575e-08
5.9525397e-07
2.4601185e-08
5.8568732e-07
1.9910553e-08
5.8098813e-07
1.6272205e-08
5.7788648e-07
1.3427545e-08
5.7573062e-07
1.1164382e-08
5.7420836e-07
9.3309503e-09
5.7311367e-07
7.8193079e-09
5.7231021e-07
6.5509102e-09
5.7171106e-07
5.467857e-09
5.7125903e-07
4.5267832e-09
5.7091539e-07
3.6945427e-09
5.7065351e-07
2.9452273e-09
5.7045488e-07
2.2580692e-09
5.7030651e-07
1.6159227e-09
5.7019935e-07
1.0041323e-09
5.7012723e-07
4.0965229e-10
5.7008617e-07
-1.7967681e-10
5.70074e-07
-7.7576874e-10
5.700901e-07
-1.390913e-09
5.701354e-07
-2.0384299e-09
5.7021246e-07
-2.7334219e-09
5.7032568e-07
-3.4937016e-09
5.7048183e-07
-4.3410004e-09
5.7069076e-07
-5.3026015e-09
5.7096664e-07
-6.413622e-09
5.7132981e-07
-7.7202742e-09
5.7180977e-07
-9.2844355e-09
5.7244984e-07
-1.1190035e-08
5.7331535e-07
-1.3553458e-08
5.7450843e-07
-1.6536208e-08
5.761837e-07
-2.0336307e-08
5.7857604e-07
-2.522056e-08
5.8215928e-07
-3.2446622e-08
5.8888335e-07
-4.5030412e-08
6.0707399e-07
-4.6502559e-08
6.1710669e-07
3.9872286e-07
4.7936015e-08
3.0637977e-07
6.0018266e-08
6.1431131e-07
4.5340209e-08
6.3628693e-07
3.4817893e-08
6.0577624e-07
2.8342217e-08
5.9216299e-07
2.3362302e-08
5.8596805e-07
1.9378461e-08
5.8187032e-07
1.6175775e-08
5.789333e-07
1.3569622e-08
5.7681451e-07
1.1420522e-08
5.7526277e-07
9.623275e-09
5.7410745e-07
8.0977689e-09
5.7323657e-07
6.78291e-09
5.7257389e-07
5.6316175e-09
5.7206668e-07
4.6070487e-09
5.7167808e-07
3.6798505e-09
5.7138207e-07
2.8261182e-09
5.7116024e-07
2.0258569e-09
5.7099961e-07
1.2617958e-09
5.7089129e-07
5.1844309e-10
5.7082953e-07
-2.1870802e-10
5.7081115e-07
-9.6388946e-10
5.7083528e-07
-1.7317494e-09
5.7090326e-07
-2.5380754e-09
5.7101879e-07
-3.4006116e-09
5.7118822e-07
-4.3400426e-09
5.7142126e-07
-5.381235e-09
5.7173195e-07
-6.5548472e-09
5.7214026e-07
-7.8994579e-09
5.7267442e-07
-9.4644406e-09
5.7337476e-07
-1.1313742e-08
5.7429914e-07
-1.3530309e-08
5.7553192e-07
-1.622259e-08
5.7720071e-07
-1.9534382e-08
5.7949549e-07
-2.3636279e-08
5.8267794e-07
-2.883081e-08
5.8735381e-07
-3.6690751e-08
5.9674329e-07
-4.8365419e-08
6.1874866e-07
-4.3135048e-08
6.1187632e-07
3.5558782e-07
4.0302306e-08
2.6607831e-07
5.8919862e-08
5.9569437e-07
4.8248943e-08
6.4695776e-07
3.7511302e-08
6.1651377e-07
3.0853096e-08
5.9882119e-07
2.5818927e-08
5.9100222e-07
2.1707012e-08
5.8598224e-07
1.832237e-08
5.8231795e-07
1.5512194e-08
5.7962469e-07
1.3154344e-08
5.7762062e-07
1.1152793e-08
5.7610901e-07
9.4321598e-09
5.749572e-07
7.9332152e-09
5.7407284e-07
6.6089698e-09
5.7339093e-07
5.4217129e-09
5.7286534e-07
4.3407441e-09
5.7246304e-07
3.3405939e-09
5.7216039e-07
2.3996231e-09
5.7194058e-07
1.4989046e-09
5.7179201e-07
6.2130229e-10
5.7170713e-07
-2.4932016e-10
5.7168177e-07
-1.1288175e-09
5.7171478e-07
-2.033466e-09
5.7180791e-07
-2.9806929e-09
5.7196601e-07
-3.9898834e-09
5.7219741e-07
-5.0833274e-09
5.725147e-07
-6.2873722e-09
5.72936e-07
-7.6338586e-09
5.7348674e-07
-9.161919e-09
5.7420249e-07
-1.0920287e-08
5.7513312e-07
-1.297033e-08
5.7634918e-07
-1.5389475e-08
5.7795107e-07
-1.8275295e-08
5.8008653e-07
-2.1752206e-08
5.8297241e-07
-2.5976329e-08
5.8690206e-07
-3.135578e-08
5.9273326e-07
-3.9519003e-08
6.0490652e-07
-4.904375e-08
6.2827341e-07
-3.8507375e-08
6.0133994e-07
3.1708044e-07
3.2825335e-08
2.3325409e-07
5.5159471e-08
5.7336128e-07
4.9126901e-08
6.5299034e-07
3.8961826e-08
6.2667867e-07
3.2333798e-08
6.0544919e-07
2.7423309e-08
5.9591271e-07
2.3346061e-08
5.9005949e-07
1.9914586e-08
5.8574942e-07
1.7012129e-08
5.8252714e-07
1.4536351e-08
5.800964e-07
1.2403359e-08
5.78242e-07
1.0545797e-08
5.7681476e-07
8.9093199e-09
5.7570931e-07
7.449633e-09
5.7485062e-07
6.1303057e-09
5.7418467e-07
4.921013e-09
5.7367234e-07
3.7960924e-09
5.7328531e-07
2.7333666e-09
5.7300331e-07
1.7131664e-09
5.7281221e-07
7.1749933e-10
5.727028e-07
-2.7068386e-10
5.7266995e-07
-1.268164e-09
5.7271226e-07
-2.2921205e-09
5.7283187e-07
-3.3608158e-09
5.7303471e-07
-4.4943377e-09
5.7333093e-07
-5.7154484e-09
5.7373581e-07
-7.0505819e-09
5.7427113e-07
-8.5310466e-09
5.7496721e-07
-1.0194476e-08
5.7586591e-07
-1.2086605e-08
5.7702525e-07
-1.4263661e-08
5.7852624e-07
-1.6795256e-08
5.8048266e-07
-1.9766437e-08
5.8305771e-07
-2.3278289e-08
5.8648426e-07
-2.7472407e-08
5.9109618e-07
-3.286437e-08
5.9812523e-07
-4.0834871e-08
6.1287702e-07
-4.7527099e-08
6.3496563e-07
-3.3293739e-08
5.8710658e-07
2.837867e-07
2.6148154e-08
2.0710734e-07
5.0025348e-08
5.4948569e-07
4.8361091e-08
6.546548e-07
3.9364425e-08
6.3567509e-07
3.2956104e-08
6.1185744e-07
2.8293193e-08
6.0057563e-07
2.4377788e-08
5.9397489e-07
2.1008626e-08
5.8911858e-07
1.8104582e-08
5.8543119e-07
1.5586275e-08
5.826147e-07
1.3384445e-08
5.8044383e-07
1.1441789e-08
5.7875742e-07
9.7106711e-09
5.7744043e-07
8.1511794e-09
5.7641011e-07
6.7296648e-09
5.7560618e-07
5.4174664e-09
5.7498453e-07
4.1898235e-09
5.7451295e-07
3.0249513e-09
5.7416818e-07
1.9032427e-09
5.7393392e-07
8.0656421e-10
5.7379948e-07
-2.8238197e-10
5.737589e-07
-1.3806544e-09
5.7381053e-07
-2.5056667e-09
5.7395688e-07
-3.6757916e-09
5.7420483e-07
-4.9110053e-09
5.7456614e-07
-6.2336032e-09
5.7505841e-07
-7.6690138e-09
5.7570654e-07
-9.2467471e-09
5.7654494e-07
-1.1001503e-08
5.7762067e-07
-1.2974441e-08
5.7899819e-07
-1.521483e-08
5.8076663e-07
-1.7782163e-08
5.8304999e-07
-2.0746142e-08
5.8602169e-07
-2.4182334e-08
5.8992045e-07
-2.8226025e-08
5.9513987e-07
-3.3478002e-08
6.033772e-07
-4.084154e-08
6.2024055e-07
-4.4602978e-08
6.3872707e-07
-2.811137e-08
5.7061498e-07
2.5567533e-07
2.0526503e-08
1.8658255e-07
4.4458289e-08
5.2555619e-07
4.6480344e-08
6.5263328e-07
3.8995181e-08
6.4315995e-07
3.2933986e-08
6.179185e-07
2.8571932e-08
6.0493768e-07
2.4897315e-08
5.9764952e-07
2.1669866e-08
5.9234603e-07
1.8834043e-08
5.8826701e-07
1.6333589e-08
5.8511516e-07
1.4114859e-08
5.8266256e-07
1.213153e-08
5.8074074e-07
1.0343681e-08
5.7922828e-07
8.7168144e-09
5.7803697e-07
7.2210405e-09
5.7710195e-07
5.8302596e-09
5.7637532e-07
4.5214236e-09
5.7582179e-07
3.2738695e-09
5.7541574e-07
2.0687111e-09
5.7513908e-07
8.8828135e-10
5.7497991e-07
-2.8438971e-10
5.7493157e-07
-1.4660722e-09
5.7499221e-07
-2.6738348e-09
5.7516464e-07
-3.9255485e-09
5.7545655e-07
-5.2404121e-09
5.7588101e-07
-6.6395201e-09
5.7645752e-07
-8.1464808e-09
5.772135e-07
-9.7881036e-09
5.7818656e-07
-1.1595166e-08
5.7942773e-07
-1.3603208e-08
5.8100623e-07
-1.5853442e-08
5.8301686e-07
-1.8393957e-08
5.8559051e-07
-2.1278163e-08
5.889059e-07
-2.4560485e-08
5.9320277e-07
-2.8386179e-08
5.9896557e-07
-3.339668e-08
6.083877e-07
-3.9872392e-08
6.2671627e-07
-4.0929479e-08
6.3978416e-07
-2.3313487e-08
5.5299898e-07
2.3236185e-07
1.5967226e-08
1.7061737e-07
3.9000402e-08
5.0252608e-07
4.3922745e-08
6.4771194e-07
3.8095424e-08
6.4898696e-07
3.2470969e-08
6.2354273e-07
2.8415062e-08
6.0899356e-07
2.5013379e-08
6.0105121e-07
2.1974281e-08
5.9538513e-07
1.9253772e-08
5.9098752e-07
1.6815528e-08
5.875534e-07
1.46204e-08
5.8485769e-07
1.2632628e-08
5.8272852e-07
1.0820139e-08
5.8104077e-07
9.1542532e-09
5.7970286e-07
7.6093409e-09
5.7864687e-07
6.1624048e-09
5.7782225e-07
4.7926511e-09
5.7719154e-07
3.4810622e-09
5.7672733e-07
2.2099741e-09
5.7641017e-07
9.6266678e-10
5.7622721e-07
-2.7703484e-10
5.7617127e-07
-1.5251488e-09
5.7624033e-07
-2.79793e-09
5.7643743e-07
-4.1122629e-09
5.7677088e-07
-5.4860624e-09
5.7725481e-07
-6.9386909e-09
5.7791015e-07
-8.4913872e-09
5.787662e-07
-1.0167706e-08
5.7986288e-07
-1.1993975e-08
5.81254e-07
-1.3999717e-08
5.8301197e-07
-1.6218006e-08
5.8523515e-07
-1.8685866e-08
5.8805837e-07
-2.1441809e-08
5.9166184e-07
-2.4526675e-08
5.9628764e-07
-2.8107375e-08
6.0254627e-07
-3.2804288e-08
6.1308462e-07
-3.8222289e-08
6.3213427e-07
-3.6948902e-08
6.3851077e-07
-1.906914e-08
5.3511922e-07
2.132927e-07
1.2371192e-08
1.5824861e-07
3.3950426e-08
4.8095085e-07
4.1017225e-08
6.4064677e-07
3.6842898e-08
6.5316102e-07
3.1720561e-08
6.2866475e-07
2.7956743e-08
6.1275733e-07
2.4829143e-08
6.0417882e-07
2.1998697e-08
5.9821558e-07
1.9420482e-08
5.9356574e-07
1.7073596e-08
5.8990029e-07
1.4931196e-08
5.8700009e-07
1.2966787e-08
5.8469293e-07
1.1155548e-08
5.8285201e-07
9.4744458e-09
5.8138396e-07
7.9021895e-09
5.8021912e-07
6.4190988e-09
5.7930534e-07
5.0069254e-09
5.7860372e-07
3.6486248e-09
5.7808563e-07
2.3280984e-09
5.7773069e-07
1.029922e-09
5.7752539e-07
-2.6093383e-10
5.7746213e-07
-1.5593842e-09
5.7753878e-07
-2.8805181e-09
5.7775856e-07
-4.239882e-09
5.7813024e-07
-5.6537601e-09
5.7866869e-07
-7.1394505e-09
5.7939584e-07
-8.7155267e-09
5.8034228e-07
-1.0402072e-08
5.8154943e-07
-1.2220888e-08
5.8307282e-07
-1.419566e-08
5.8498675e-07
-1.6351981e-08
5.8739147e-07
-1.8717052e-08
5.9042344e-07
-2.1316817e-08
5.942616e-07
-2.4185669e-08
5.9915649e-07
-2.7514944e-08
6.0587554e-07
-3.1843018e-08
6.1741269e-07
-3.6133112e-08
6.3642436e-07
-3.2962107e-08
6.3533977e-07
-1.5439609e-08
5.1759672e-07
1.978531e-07
9.5996765e-09
1.4865183e-07
2.9460331e-08
4.6109528e-07
3.8010071e-08
6.3209947e-07
3.5375317e-08
6.5579562e-07
3.079329e-08
6.3324634e-07
2.7300726e-08
6.162498e-07
2.4430665e-08
6.0704889e-07
2.1811436e-08
6.0083482e-07
1.9387637e-08
5.9598953e-07
1.7148943e-08
5.9213898e-07
1.5078487e-08
5.8907054e-07
1.3157481e-08
5.8661393e-07
1.1367385e-08
5.8464211e-07
9.6902747e-09
5.8306107e-07
8.1089523e-09
5.8180045e-07
6.6070108e-09
5.8080728e-07
5.1688252e-09
5.800419e-07
3.7794769e-09
5.7947497e-07
2.4246304e-09
5.7908554e-07
1.0903807e-09
5.7885964e-07
-2.3692021e-10
5.7878943e-07
-1.5708441e-09
5.788727e-07
-2.9250778e-09
5.7911279e-07
-4.3136057e-09
5.7951877e-07
-5.7508826e-09
5.8010596e-07
-7.2519889e-09
5.8089695e-07
-8.8327564e-09
5.8192304e-07
-1.0509846e-08
5.8322652e-07
-1.2300779e-08
5.8486375e-07
-1.4223927e-08
5.869099e-07
-1.6298342e-08
5.8946589e-07
-1.8542864e-08
5.9266796e-07
-2.0973516e-08
5.9669226e-07
-2.362431e-08
6.0180728e-07
-2.6706987e-08
6.0895822e-07
-3.0630471e-08
6.2133618e-07
-3.3808559e-08
6.3960245e-07
-2.9173726e-08
6.3070493e-07
-1.2419904e-08
5.008429e-07
1.8543319e-07
7.5038042e-09
1.4115149e-07
2.5577502e-08
4.4302791e-07
3.507177e-08
6.2260866e-07
3.3802046e-08
6.5706542e-07
2.9771474e-08
6.3727636e-07
2.652634e-08
6.1949477e-07
2.3887075e-08
6.0968816e-07
2.1469799e-08
6.032521e-07
1.9202088e-08
5.9825725e-07
1.7079243e-08
5.9426183e-07
1.5092076e-08
5.9105771e-07
1.3227973e-08
5.8847804e-07
1.1473593e-08
5.8639649e-07
9.8154011e-09
5.8471927e-07
8.2398689e-09
5.8337598e-07
6.7336395e-09
5.8231351e-07
5.2836289e-09
5.8149191e-07
3.8770567e-09
5.8088155e-07
2.5014245e-09
5.8046117e-07
1.1444582e-09
5.8021661e-07
-2.0597649e-10
5.8013987e-07
-1.5619701e-09
5.8022869e-07
-2.9356752e-09
5.804865e-07
-4.3394034e-09
5.809225e-07
-5.7857077e-09
5.8155227e-07
-7.2874406e-09
5.8239868e-07
-8.8577766e-09
5.8349338e-07
-1.051018e-08
5.8487892e-07
-1.2258315e-08
5.8661189e-07
-1.4115929e-08
5.8876751e-07
-1.6096549e-08
5.9144651e-07
-1.8212195e-08
5.9478361e-07
-2.0471928e-08
5.9895199e-07
-2.291431e-08
6.0424966e-07
-2.5763072e-08
6.1180698e-07
-2.9267096e-08
6.248402e-07
-3.1409739e-08
6.4174509e-07
-2.5705582e-08
6.2500078e-07
-9.9630982e-09
4.8510042e-07
1.7547009e-07
5.9429805e-09
1.3521269e-07
2.2279929e-08
4.2669877e-07
3.2303783e-08
6.125895e-07
3.2202999e-08
6.5716664e-07
2.8714505e-08
6.4076419e-07
2.5693049e-08
6.2251598e-07
2.3253112e-08
6.1212809e-07
2.1020852e-08
6.0548437e-07
1.8903575e-08
6.0037453e-07
1.6897534e-08
5.9626787e-07
1.4998991e-08
5.9295625e-07
1.3200052e-08
5.9027697e-07
1.1491485e-08
5.8810505e-07
9.8633768e-09
5.8634737e-07
8.3053523e-09
5.84934e-07
6.806779e-09
5.8381209e-07
5.3569253e-09
5.8294177e-07
3.9450585e-09
5.8229341e-07
2.5604944e-09
5.8184574e-07
1.1926095e-09
5.8158449e-07
-1.6917275e-10
5.8150165e-07
-1.5354104e-09
5.8159493e-07
-2.916679e-09
5.8186777e-07
-4.3235992e-09
5.8232942e-07
-5.7668485e-09
5.8299552e-07
-7.2571462e-09
5.8388898e-07
-8.805202e-09
5.8504144e-07
-1.0421613e-08
5.8649533e-07
-1.2116708e-08
5.8830698e-07
-1.390037e-08
5.9055117e-07
-1.5781663e-08
5.933278e-07
-1.776737e-08
5.9676932e-07
-1.986263e-08
6.0104725e-07
-2.2113926e-08
6.0650096e-07
-2.4745984e-08
6.1443904e-07
-2.7832832e-08
6.2792705e-07
-2.9050274e-08
6.4296254e-07
-2.2612449e-08
6.1856295e-07
-8.0005184e-09
4.7048849e-07
1.6746958e-07
4.7945089e-09
1.3042324e-07
1.9508867e-08
4.1199393e-07
2.9753976e-08
6.0235059e-07
3.0629965e-08
6.5629159e-07
2.766116e-08
6.4373223e-07
2.484241e-08
6.2533437e-07
2.2570273e-08
6.144002e-07
2.0502112e-08
6.0755255e-07
1.8524904e-08
6.0235174e-07
1.663196e-08
5.9816081e-07
1.4822941e-08
5.9476527e-07
1.309336e-08
5.9200656e-07
1.1437073e-08
5.8976134e-07
9.8470313e-09
5.8793742e-07
8.3154698e-09
5.8646556e-07
6.834103e-09
5.8529345e-07
5.3943e-09
5.8438157e-07
3.9872166e-09
5.837005e-07
2.603889e-09
5.8322906e-07
1.2352944e-09
5.8295308e-07
-1.2761282e-10
5.8286455e-07
-1.4938763e-09
5.829612e-07
-2.8725227e-09
5.8324641e-07
-4.272535e-09
5.8372943e-07
-5.7028134e-09
5.844258e-07
-7.1721099e-09
5.8535827e-07
-8.6889296e-09
5.8655826e-07
-1.0261392e-08
5.8806779e-07
-1.1897048e-08
5.8994264e-07
-1.3602694e-08
5.9225682e-07
-1.5383964e-08
5.9510907e-07
-1.7243933e-08
5.9862928e-07
-1.9186554e-08
6.0298987e-07
-2.1267802e-08
6.0858221e-07
-2.370165e-08
6.1687289e-07
-2.6385731e-08
6.3061113e-07
-2.6801664e-08
6.4337847e-07
-1.9903235e-08
6.1166452e-07
-6.4563558e-09
4.5704161e-07
1.6101322e-07
3.9560675e-09
1.2647335e-07
1.7191681e-08
3.9876985e-07
2.7435924e-08
5.9211436e-07
2.9112996e-08
6.5461615e-07
2.66339e-08
6.462105e-07
2.4000844e-08
6.2796693e-07
2.1868034e-08
6.1653295e-07
1.9942092e-08
6.0947851e-07
1.8092158e-08
6.0420168e-07
1.6305725e-08
5.9994725e-07
1.4584084e-08
5.9648691e-07
1.2925048e-08
5.9366559e-07
1.1324674e-08
5.9136171e-07
9.7780808e-09
5.8948401e-07
8.2795866e-09
5.8796406e-07
6.8228634e-09
5.8675018e-07
5.401099e-09
5.8580333e-07
4.0071379e-09
5.8509446e-07
2.6335963e-09
5.8460261e-07
1.2729512e-09
5.8431373e-07
-8.2389749e-11
5.842199e-07
-1.440027e-09
5.8431883e-07
-2.8075183e-09
5.8461391e-07
-4.1923133e-09
5.8511423e-07
-5.6016824e-09
5.8583516e-07
-7.0426193e-09
5.8679921e-07
-8.5217198e-09
5.8803736e-07
-1.0045032e-08
5.8959111e-07
-1.1617885e-08
5.9151549e-07
-1.3244715e-08
5.9388365e-07
-1.4928656e-08
5.9679301e-07
-1.6670433e-08
6.0037106e-07
-1.847504e-08
6.0479448e-07
-2.0407884e-08
6.1051505e-07
-2.2661246e-08
6.1912625e-07
-2.4964834e-08
6.3291472e-07
-2.4703047e-08
6.4311668e-07
-1.7558998e-08
6.0452048e-07
-5.2561391e-09
4.4473875e-07
1.5575708e-07
3.3450467e-09
1.2313588e-07
1.5254433e-08
3.8687438e-07
2.5342628e-08
5.8203631e-07
2.7666922e-08
6.5229441e-07
2.564383e-08
6.4823276e-07
2.3183441e-08
6.3042666e-07
2.1166009e-08
6.1855027e-07
1.9361428e-08
6.1128311e-07
1.7625257e-08
6.0593786e-07
1.5937302e-08
6.016352e-07
1.4299025e-08
5.9812519e-07
1.2709648e-08
5.9525497e-07
1.1166712e-08
5.9290465e-07
9.6669028e-09
5.9098382e-07
8.2061435e-09
5.8942482e-07
6.7796909e-09
5.8817663e-07
5.3822659e-09
5.8720076e-07
4.008184e-09
5.8646854e-07
2.6514738e-09
5.8595932e-07
1.3059795e-09
5.8565922e-07
-3.4550605e-11
5.8556043e-07
-1.3763831e-09
5.8566067e-07
-2.7257197e-09
5.8596324e-07
-4.0886154e-09
5.8647712e-07
-5.4708855e-09
5.8721743e-07
-6.8779952e-09
5.8820632e-07
-8.3149329e-09
5.8947429e-07
-9.7860702e-09
5.9106224e-07
-1.1295019e-08
5.9302444e-07
-1.2844494e-08
5.9543312e-07
-1.4435919e-08
5.9838444e-07
-1.6068822e-08
6.0200396e-07
-1.7750885e-08
6.0647654e-07
-1.9555635e-08
6.123198e-07
-2.1644467e-08
6.2121508e-07
-2.3594285e-08
6.3486453e-07
-2.2770669e-08
6.4229306e-07
-1.5545393e-08
5.972952e-07
-4.3314075e-09
4.3352476e-07
1.5142567e-07
2.8969043e-09
1.2024831e-07
1.3628548e-08
3.7615948e-07
2.3455856e-08
5.7222169e-07
2.6296293e-08
6.4945769e-07
2.4694556e-08
6.4983371e-07
2.2397401e-08
6.3272298e-07
2.0476332e-08
6.2047117e-07
1.8774397e-08
6.1298507e-07
1.7138873e-08
6.0757339e-07
1.5540934e-08
6.0323314e-07
1.3981041e-08
5.9968508e-07
1.2459135e-08
5.9677688e-07
1.0973681e-08
5.943901e-07
9.5224445e-09
5.9243505e-07
8.1025424e-09
5.9084472e-07
6.7104809e-09
5.8956869e-07
5.3422428e-09
5.88569e-07
3.9933963e-09
5.8781739e-07
2.6592044e-09
5.8729351e-07
1.3347285e-09
5.869837e-07
1.4924456e-11
5.8688023e-07
-1.3052685e-09
5.8698086e-07
-2.6308331e-09
5.8728881e-07
-3.9665844e-09
5.8781288e-07
-5.3170689e-09
5.8856792e-07
-6.6864534e-09
5.895757e-07
-8.0784069e-09
5.9086625e-07
-9.4959825e-09
5.9247982e-07
-1.0941515e-08
5.9446997e-07
-1.2416527e-08
5.9690813e-07
-1.3921379e-08
5.9988929e-07
-1.5455345e-08
6.0353793e-07
-1.702987e-08
6.0805106e-07
-1.8724415e-08
6.1401435e-07
-2.066241e-08
6.2315308e-07
-2.2286881e-08
6.3648901e-07
-2.1005151e-08
6.4101133e-07
-1.382106e-08
5.9011111e-07
-3.6222455e-09
4.2332595e-07
1.4780343e-07
2.5629021e-09
1.17697e-07
1.2254193e-08
3.6648832e-07
2.1752487e-08
5.627391e-07
2.4999137e-08
6.4621622e-07
2.3784885e-08
6.5104734e-07
2.1644589e-08
6.3486226e-07
1.980567e-08
6.2230982e-07
1.8190364e-08
6.1460038e-07
1.6643442e-08
6.0912033e-07
1.5127295e-08
6.0474929e-07
1.3640481e-08
6.011719e-07
1.2183136e-08
5.9823422e-07
1.0754235e-08
5.95819e-07
9.3522388e-09
5.9383705e-07
7.9751218e-09
5.9222184e-07
6.6203501e-09
5.9092346e-07
5.2849239e-09
5.8990442e-07
3.9654578e-09
5.8913685e-07
2.6582734e-09
5.8860069e-07
1.3594947e-09
5.8828248e-07
6.5142517e-11
5.8817458e-07
-1.2287742e-09
5.8827477e-07
-2.5261656e-09
5.885862e-07
-3.830766e-09
5.8911748e-07
-5.1460369e-09
5.8988319e-07
-6.4750644e-09
5.9090473e-07
-7.8204586e-09
5.9221164e-07
-9.1842651e-09
5.9384363e-07
-1.0567907e-08
5.9585361e-07
-1.1972136e-08
5.9831236e-07
-1.3396759e-08
6.0131391e-07
-1.4841537e-08
6.0498271e-07
-1.632222e-08
6.0953175e-07
-1.7921472e-08
6.156136e-07
-1.9719848e-08
6.2495145e-07
-2.1047115e-08
6.3781627e-07
-1.9397292e-08
6.3936151e-07
-1.2343288e-08
5.830571e-07
-3.0782541e-09
4.1406092e-07
1.4472517e-07
2.3073977e-09
1.1540399e-07
1.1081364e-08
3.5773854e-07
2.0208588e-08
5.5363111e-07
2.3769842e-08
6.4266197e-07
2.2910833e-08
6.5190599e-07
2.0923436e-08
6.3684843e-07
1.9156795e-08
6.2407609e-07
1.7614993e-08
6.1614218e-07
1.6146075e-08
6.1058927e-07
1.4704147e-08
6.0619123e-07
1.3285217e-08
6.0259083e-07
1.1889224e-08
5.9963021e-07
1.0515361e-08
5.9719287e-07
9.1624978e-09
5.9518991e-07
7.8291975e-09
5.9355514e-07
6.5136465e-09
5.9223901e-07
5.2136506e-09
5.9120442e-07
3.9266843e-09
5.9042382e-07
2.6499624e-09
5.8987742e-07
1.3805217e-09
5.8955192e-07
1.1530721e-10
5.894398e-07
-1.1487431e-09
5.8953883e-07
-2.4146077e-09
5.8985206e-07
-3.6850953e-09
5.9038796e-07
-4.9627547e-09
5.9116085e-07
-6.2497882e-09
5.9219177e-07
-7.5479726e-09
5.9350983e-07
-8.8586047e-09
5.9515426e-07
-1.0182488e-08
5.971775e-07
-1.1519921e-08
5.996498e-07
-1.2870546e-08
6.0266454e-07
-1.4235153e-08
6.0634731e-07
-1.563388e-08
6.1093047e-07
-1.7149607e-08
6.1712933e-07
-1.8817141e-08
6.2661899e-07
-1.9873864e-08
6.38873e-07
-1.7932577e-08
6.3742022e-07
-1.1071581e-08
5.7619611e-07
-2.6583901e-09
4.0564772e-07
1.4206678e-07
2.1050894e-09
1.1331675e-07
1.006951e-08
3.498032e-07
1.8801697e-08
5.4492234e-07
2.2601209e-08
6.3887168e-07
2.2067099e-08
6.5244016e-07
2.0230371e-08
6.3868373e-07
1.8529838e-08
6.2577612e-07
1.7051244e-08
6.1762074e-07
1.5651338e-08
6.119892e-07
1.4276936e-08
6.0756563e-07
1.2921079e-08
6.0394668e-07
1.1583229e-08
6.0096806e-07
1.0262593e-08
5.985135e-07
8.9582491e-09
5.9649426e-07
7.669146e-09
5.9484424e-07
6.3939973e-09
5.9351416e-07
5.1312368e-09
5.9246718e-07
3.8790365e-09
5.9167602e-07
2.6353551e-09
5.911211e-07
1.3980027e-09
5.9078927e-07
1.647151e-10
5.9067308e-07
-1.066772e-09
5.9077031e-07
-2.298641e-09
5.9108393e-07
-3.5329178e-09
5.9162224e-07
-4.7713936e-09
5.9239933e-07
-6.0155573e-09
5.9343593e-07
-7.2665409e-09
5.9476081e-07
-8.5250989e-09
5.9641282e-07
-9.7916346e-09
5.9844403e-07
-1.1066228e-08
6.0092439e-07
-1.234863e-08
6.0394694e-07
-1.3641021e-08
6.0763971e-07
-1.4967639e-08
6.1225709e-07
-1.6408589e-08
6.1857028e-07
-1.795185e-08
6.2816225e-07
-1.8762626e-08
6.3968377e-07
-1.659438e-08
6.3525198e-07
-9.9698512e-09
5.6957158e-07
-2.3301756e-09
3.9800805e-07
1.3973661e-07
1.9385359e-09
1.1140017e-07
9.1864116e-09
3.4259032e-07
1.7511866e-08
5.3662523e-07
2.1485731e-08
6.3490973e-07
2.1248054e-08
6.5267851e-07
1.9560856e-08
6.4036931e-07
1.7923273e-08
6.2741303e-07
1.6500188e-08
6.1904377e-07
1.5161914e-08
6.1332751e-07
1.3849323e-08
6.0887823e-07
1.2552269e-08
6.0524374e-07
1.126954e-08
6.0225079e-07
1.0000233e-08
5.9978281e-07
8.7434941e-09
5.97751e-07
7.4985124e-09
5.9608922e-07
6.2643796e-09
5.947483e-07
5.0400137e-09
5.9369155e-07
3.8241469e-09
5.9289189e-07
2.6153517e-09
5.9232989e-07
1.4120869e-09
5.9199254e-07
2.1275778e-10
5.9187241e-07
-9.8422259e-10
5.9196729e-07
-2.1803635e-09
5.9228007e-07
-3.3770346e-09
5.9281891e-07
-4.5754043e-09
5.935977e-07
-5.7763903e-09
5.9463692e-07
-6.980631e-09
5.9596505e-07
-8.1884953e-09
5.9762068e-07
-9.4001447e-09
5.9965568e-07
-1.0615594e-08
6.0213984e-07
-1.1834892e-08
6.0516624e-07
-1.3061809e-08
6.0886662e-07
-1.4324112e-08
6.135194e-07
-1.569631e-08
6.1994247e-07
-1.7119996e-08
6.2958593e-07
-1.7707166e-08
6.4027094e-07
-1.5365928e-08
6.3291074e-07
-9.0068763e-09
5.6321253e-07
-2.0684664e-09
3.9106964e-07
1.3766814e-07
1.7960671e-09
1.0963086e-07
8.4068096e-09
3.3602171e-07
1.6321948e-08
5.2874425e-07
2.0416305e-08
6.3083053e-07
2.0448317e-08
6.5264799e-07
1.8910075e-08
6.4190576e-07
1.7334633e-08
6.2898761e-07
1.5961654e-08
6.2041663e-07
1.4679154e-08
6.1461004e-07
1.3423637e-08
6.1013376e-07
1.2181727e-08
6.0648565e-07
1.0951399e-08
6.0348112e-07
9.7315691e-09
6.0100264e-07
8.5213705e-09
5.989612e-07
7.3201285e-09
5.9729046e-07
6.127204e-09
5.9594122e-07
4.9418865e-09
5.9487686e-07
3.7633565e-09
5.9407042e-07
2.5906899e-09
5.9350256e-07
1.4228866e-09
5.9316034e-07
2.5891458e-10
5.9303639e-07
-9.022418e-10
5.9312845e-07
-2.0615261e-09
5.9343936e-07
-3.2197613e-09
5.9397715e-07
-4.3776051e-09
5.9475554e-07
-5.535519e-09
5.9579483e-07
-6.693763e-09
5.971233e-07
-7.852434e-09
5.9877935e-07
-9.0115553e-09
6.008148e-07
-1.0171171e-08
6.0329945e-07
-1.1331737e-08
6.0632681e-07
-1.2498684e-08
6.1003357e-07
-1.370253e-08
6.1472324e-07
-1.5009665e-08
6.2124961e-07
-1.6316976e-08
6.3089324e-07
-1.6700681e-08
6.4065465e-07
-1.4231508e-08
6.3044157e-07
-8.1564251e-09
5.5713744e-07
-1.8542354e-09
3.8476745e-07
1.3581391e-07
1.6700962e-09
1.0799307e-07
7.7110474e-09
3.3003149e-07
1.5217483e-08
5.2127885e-07
1.9386575e-08
6.2668046e-07
1.9663069e-08
6.5237407e-07
1.8273361e-08
6.4329353e-07
1.6761019e-08
6.3049887e-07
1.5434713e-08
6.2174277e-07
1.420351e-08
6.1584127e-07
1.3001256e-08
6.1133603e-07
1.1811446e-08
6.0767546e-07
1.0631157e-08
6.0466141e-07
9.4590859e-09
6.0217471e-07
8.2943114e-09
6.0012597e-07
7.1362329e-09
5.9844854e-07
5.9844025e-09
5.9709305e-07
4.8383965e-09
5.9602287e-07
3.6977551e-09
5.9521106e-07
2.5619676e-09
5.9463835e-07
1.4304842e-09
5.9429182e-07
3.0274492e-10
5.9416413e-07
-8.2178561e-10
5.9425298e-07
-1.943576e-09
5.9456115e-07
-3.0629942e-09
5.9509657e-07
-4.1802772e-09
5.9587282e-07
-5.2955192e-09
5.9691007e-07
-6.4086865e-09
5.9823646e-07
-7.5196784e-09
5.9989034e-07
-8.6284404e-09
6.0192357e-07
-9.7350913e-09
6.0440611e-07
-1.0840545e-08
6.0743226e-07
-1.1951848e-08
6.1114487e-07
-1.3101364e-08
6.1587276e-07
-1.4345204e-08
6.2249345e-07
-1.5538216e-08
6.3208626e-07
-1.5736588e-08
6.4085302e-07
-1.3177147e-08
6.2788213e-07
-7.3969656e-09
5.5135726e-07
-1.6734224e-09
3.7904391e-07
1.3414048e-07
1.5558089e-09
1.0647589e-07
7.0838403e-09
3.245645e-07
1.4186393e-08
5.1422546e-07
1.8391044e-08
6.2249943e-07
1.8888184e-08
6.5188092e-07
1.7646447e-08
6.4453325e-07
1.6199437e-08
6.3194456e-07
1.4918025e-08
6.2302393e-07
1.3734872e-08
6.1702444e-07
1.2582912e-08
6.1248801e-07
1.1442745e-08
6.0881563e-07
1.0310499e-08
6.0579366e-07
9.184645e-09
6.0330057e-07
8.0641943e-09
6.0124642e-07
6.9485866e-09
5.9956415e-07
5.8375159e-09
5.9820412e-07
4.7307842e-09
5.971296e-07
3.6282243e-09
5.9631362e-07
2.5296674e-09
5.957369e-07
1.4349402e-09
5.9538655e-07
3.4387965e-10
5.9525519e-07
-7.4364476e-10
5.953405e-07
-1.8277017e-09
5.9564521e-07
-2.9082772e-09
5.9617714e-07
-3.9852586e-09
5.969498e-07
-5.0584379e-09
5.9798325e-07
-6.1275446e-09
5.9930557e-07
-7.1923246e-09
6.0095512e-07
-8.2526704e-09
6.0298391e-07
-9.3087837e-09
6.0546222e-07
-1.0362042e-08
6.0848552e-07
-1.1420965e-08
6.122038e-07
-1.251879e-08
6.1697058e-07
-1.3699604e-08
6.2367426e-07
-1.4779621e-08
6.3316627e-07
-1.4809037e-08
6.4088244e-07
-1.2190912e-08
6.25264e-07
-6.7111706e-09
5.4587752e-07
-1.5158905e-09
3.7384863e-07
1.3262459e-07
1.4501838e-09
1.0507152e-07
6.5132364e-09
3.1957482e-07
1.3218609e-08
5.0757886e-07
1.7425066e-08
6.1832204e-07
1.8120274e-08
6.5119146e-07
1.7025608e-08
6.4562588e-07
1.564704e-08
6.3332155e-07
1.4410111e-08
6.242605e-07
1.3272825e-08
6.1816174e-07
1.2168939e-08
6.1359192e-07
1.1076486e-08
6.0990809e-07
9.9906394e-09
6.068795e-07
8.90965e-09
6.0438156e-07
7.8324735e-09
6.023236e-07
6.7585794e-09
6.0063805e-07
5.6877753e-09
5.9927493e-07
4.6200494e-09
5.9819733e-07
3.5554782e-09
5.9737819e-07
2.4941803e-09
5.967982e-07
1.4363005e-09
5.9644443e-07
3.820124e-10
5.9630947e-07
-6.6847027e-10
5.9639099e-07
-1.7148761e-09
5.9669161e-07
-2.7568666e-09
5.9721913e-07
-3.7940321e-09
5.9798697e-07
-4.8259079e-09
5.9901513e-07
-5.8520211e-09
6.0033168e-07
-6.8719831e-09
6.0197509e-07
-7.8856315e-09
6.0399756e-07
-8.8932322e-09
6.0646982e-07
-9.8965931e-09
6.0948888e-07
-1.0905494e-08
6.132127e-07
-1.1953049e-08
6.1801814e-07
-1.3069999e-08
6.2479121e-07
-1.4037874e-08
6.3413415e-07
-1.3913224e-08
6.4075779e-07
-1.1262978e-08
6.2261376e-07
-6.0853468e-09
5.4069989e-07
-1.3745315e-09
3.6913781e-07
1.3125006e-07
1.3512891e-09
1.037741e-07
5.9897801e-09
3.1502434e-07
1.2305718e-08
5.0133303e-07
1.6484786e-08
6.1417848e-07
1.7356676e-08
6.5032752e-07
1.6407751e-08
6.4657286e-07
1.5101287e-08
6.3462614e-07
1.3909535e-08
6.2545178e-07
1.2816849e-08
6.1925443e-07
1.1759458e-08
6.1464934e-07
1.0713254e-08
6.109543e-07