/*--------------------------------*- C++ -*----------------------------------*\
  =========                 |
  \\      /  F ield         | OpenFOAM: The Open Source CFD Toolbox
   \\    /   O peration     | Website:  https://openfoam.org
    \\  /    A nd           | Version:  10
     \\/     M anipulation  |
\*---------------------------------------------------------------------------*/
FoamFile
{
    format      ascii;
    class       surfaceScalarField;
    location    "0.11";
    object      phi_0;
}
// * * * * * * * * * * * * * * * * * * * * * * * * * * * * * * * * * * * * * //

dimensions      [1 0 -1 0 0 0 0];

internalField   nonuniform List<scalar> 
7860
(
3.989029e-08
5.2881775e-07
1.2188351e-08
5.9640971e-07
7.4233861e-09
5.734727e-07
5.4942614e-09
5.7063682e-07
4.1096437e-09
5.7009228e-07
3.1957834e-09
5.696215e-07
2.5538893e-09
5.6934952e-07
2.0742669e-09
5.6918723e-07
1.7045769e-09
5.6907729e-07
1.4122847e-09
5.6899988e-07
1.1755859e-09
5.6894428e-07
9.7970964e-10
5.6890345e-07
8.1430474e-10
5.6887297e-07
6.7187368e-10
5.6884999e-07
5.4683614e-10
5.688326e-07
4.3492451e-10
5.6881947e-07
3.3277818e-10
5.688097e-07
2.3766294e-10
5.6880267e-07
1.4726887e-10
5.6879794e-07
5.9557719e-11
5.6879526e-07
-2.736048e-11
5.6879447e-07
-1.1533457e-10
5.6879552e-07
-2.0627906e-10
5.6879849e-07
-3.0227945e-10
5.6880355e-07
-4.0572462e-10
5.68811e-07
-5.1947046e-10
5.688213e-07
-6.4706028e-10
5.6883515e-07
-7.9303803e-10
5.6885354e-07
-9.6340915e-10
5.6887794e-07
-1.1663473e-09
5.6891051e-07
-1.4133678e-09
5.689546e-07
-1.7212985e-09
5.6901552e-07
-2.1151396e-09
5.6910144e-07
-2.6347967e-09
5.6922726e-07
-3.3626979e-09
5.6943552e-07
-4.4545178e-09
5.6979946e-07
-6.0010658e-09
5.7025421e-07
-9.5008351e-09
5.7220747e-07
-2.956705e-08
5.8877396e-07
5.3914086e-07
5.9659072e-08
4.6915876e-07
3.6650069e-08
6.1941868e-07
2.2612813e-08
5.8750994e-07
1.6237296e-08
5.7701234e-07
1.2273738e-08
5.7405584e-07
9.5894593e-09
5.7230578e-07
7.6610125e-09
5.7127796e-07
6.2203287e-09
5.7062791e-07
5.1117714e-09
5.7018584e-07
4.2352369e-09
5.6987641e-07
3.5253645e-09
5.6965415e-07
2.9379609e-09
5.6949085e-07
2.4419572e-09
5.6936898e-07
2.0148556e-09
5.692771e-07
1.6399193e-09
5.6920753e-07
1.3043492e-09
5.6915504e-07
9.9806664e-10
5.6911598e-07
7.1287156e-10
5.6908786e-07
4.4183668e-10
5.6906898e-07
1.7884853e-10
5.6905825e-07
-8.1761615e-11
5.6905508e-07
-3.4553983e-10
5.690593e-07
-6.1822192e-10
5.6907118e-07
-9.0606497e-10
5.6909139e-07
-1.2162341e-09
5.6912117e-07
-1.5572939e-09
5.6916236e-07
-1.939871e-09
5.6921772e-07
-2.3775933e-09
5.6929126e-07
-2.8884784e-09
5.6938882e-07
-3.4970571e-09
5.6951909e-07
-4.2377916e-09
5.6969533e-07
-5.1610966e-09
5.6993882e-07
-6.3436583e-09
5.70284e-07
-7.9042772e-09
5.7078788e-07
-1.004626e-08
5.7157751e-07
-1.3175906e-08
5.7292911e-07
-1.8108149e-08
5.7518646e-07
-2.8151149e-08
5.8225047e-07
-4.5780847e-08
6.0640366e-07
4.9336002e-07
5.9988397e-08
4.0917058e-07
5.0457845e-08
6.2894923e-07
3.3342512e-08
6.0462523e-07
2.4788924e-08
5.8556592e-07
1.9293771e-08
5.7955099e-07
1.5302047e-08
5.762975e-07
1.2331919e-08
5.7424809e-07
1.0073956e-08
5.7288588e-07
8.3147208e-09
5.7194508e-07
6.9110436e-09
5.7128009e-07
5.7668024e-09
5.7079839e-07
4.8151905e-09
5.7044246e-07
4.0084033e-09
5.7017576e-07
3.3114171e-09
5.6997408e-07
2.6979303e-09
5.6982102e-07
2.1476736e-09
5.6970529e-07
1.6445849e-09
5.6961907e-07
1.1755283e-09
5.6955692e-07
7.293597e-10
5.6951515e-07
2.9621385e-10
5.6949139e-07
-1.3307394e-10
5.6948437e-07
-5.6747341e-10
5.694937e-07
-1.0162534e-09
5.6951996e-07
-1.4895022e-09
5.6956464e-07
-1.9987311e-09
5.696304e-07
-2.5576337e-09
5.6972126e-07
-3.1830989e-09
5.6984319e-07
-3.8966219e-09
5.7000478e-07
-4.7263557e-09
5.7021856e-07
-5.7101753e-09
5.7050291e-07
-6.9003388e-09
5.708855e-07
-8.3711265e-09
5.7140961e-07
-1.0232034e-08
5.7214491e-07
-1.2645061e-08
5.7320091e-07
-1.5843527e-08
5.7477597e-07
-2.0189568e-08
5.7727515e-07
-2.6660615e-08
5.816575e-07
-3.8900378e-08
5.9449023e-07
-4.8131827e-08
6.156351e-07
4.4522819e-07
5.4852674e-08
3.543183e-07
5.7407404e-08
6.2639459e-07
4.0423704e-08
6.2160884e-07
3.0735569e-08
5.9525404e-07
2.4599146e-08
5.8568742e-07
1.9908516e-08
5.8098813e-07
1.6270209e-08
5.778864e-07
1.3425622e-08
5.7573047e-07
1.1162558e-08
5.7420814e-07
9.3292506e-09
5.731134e-07
7.817754e-09
5.7230989e-07
6.5495213e-09
5.717107e-07
5.46665e-09
5.7125863e-07
4.5257729e-09
5.7091496e-07
3.6937417e-09
5.7065305e-07
2.9446466e-09
5.7045439e-07
2.2577181e-09
5.70306e-07
1.6158088e-09
5.7019883e-07
1.0042617e-09
5.7012669e-07
4.1002944e-10
5.7008563e-07
-1.79049e-10
5.7007344e-07
-7.7488898e-10
5.7008954e-07
-1.3897817e-09
5.7013485e-07
-2.0370494e-09
5.7021191e-07
-2.7317964e-09
5.7032514e-07
-3.4918379e-09
5.704813e-07
-4.3389075e-09
5.7069026e-07
-5.3002915e-09
5.7096617e-07
-6.4111102e-09
5.7132937e-07
-7.7175799e-09
5.7180938e-07
-9.2815822e-09
5.724495e-07
-1.1187051e-08
5.7331508e-07
-1.355038e-08
5.7450823e-07
-1.6533077e-08
5.7618361e-07
-2.0333179e-08
5.7857607e-07
-2.5217498e-08
5.8215947e-07
-3.2443591e-08
5.888836e-07
-4.5027343e-08
6.0707398e-07
-4.6500498e-08
6.1710826e-07
3.9872769e-07
4.7934551e-08
3.0638438e-07
6.0015408e-08
6.1431405e-07
4.5337281e-08
6.3628685e-07
3.4815095e-08
6.0577617e-07
2.8339413e-08
5.921631e-07
2.3359511e-08
5.8596804e-07
1.9375734e-08
5.8187018e-07
1.6173153e-08
5.7893305e-07
1.3567139e-08
5.7681416e-07
1.1418211e-08
5.7526233e-07
9.6211634e-09
5.7410694e-07
8.0958816e-09
5.7323598e-07
6.781269e-09
5.7257325e-07
5.6302419e-09
5.7206599e-07
4.605955e-09
5.7167734e-07
3.6790531e-09
5.7138129e-07
2.8256292e-09
5.7115942e-07
2.0256862e-09
5.7099877e-07
1.2619515e-09
5.7089043e-07
5.1893119e-10
5.7082865e-07
-2.1788349e-10
5.7081026e-07
-9.6272655e-10
5.7083438e-07
-1.7302482e-09
5.7090237e-07
-2.5362385e-09
5.710179e-07
-3.3984441e-09
5.7118735e-07
-4.3375525e-09
5.7142041e-07
-5.3784335e-09
5.7173114e-07
-6.5517493e-09
5.7213948e-07
-7.8960827e-09
5.7267371e-07
-9.4608123e-09
5.7337411e-07
-1.130989e-08
5.7429858e-07
-1.352627e-08
5.7553146e-07
-1.6218407e-08
5.7720037e-07
-1.953011e-08
5.7949531e-07
-2.3631987e-08
5.8267795e-07
-2.8826554e-08
5.8735403e-07
-3.6686412e-08
5.9674346e-07
-4.8361103e-08
6.1874867e-07
-4.3132421e-08
6.1187958e-07
3.5559527e-07
4.0300644e-08
2.6608463e-07
5.8916216e-08
5.9569912e-07
4.8244974e-08
6.46958e-07
3.7507563e-08
6.1651346e-07
3.0849412e-08
5.9882124e-07
2.5815278e-08
5.9100217e-07
2.1703456e-08
5.85982e-07
1.8318958e-08
5.8231755e-07
1.5508969e-08
5.7962415e-07
1.3151345e-08
5.7761995e-07
1.1150055e-08
5.7610823e-07
9.4297127e-09
5.7495632e-07
7.9310861e-09
5.7407187e-07
6.6071824e-09
5.7338989e-07
5.4202876e-09
5.7286423e-07
4.3396986e-09
5.7246188e-07
3.339943e-09
5.7215918e-07
2.3993793e-09
5.7193933e-07
1.4990778e-09
5.7179073e-07
6.219004e-10
5.7170582e-07
-2.4829189e-10
5.7168045e-07
-1.1273561e-09
5.7171345e-07
-2.0315712e-09
5.7180659e-07
-2.9783671e-09
5.719647e-07
-3.9871321e-09
5.7219611e-07
-5.0801595e-09
5.7251344e-07
-6.2838007e-09
5.7293478e-07
-7.6299007e-09
5.7348558e-07
-9.1575973e-09
5.742014e-07
-1.091563e-08
5.7513214e-07
-1.2965372e-08
5.7634832e-07
-1.538426e-08
5.7795035e-07
-1.8269874e-08
5.8008599e-07
-2.1746643e-08
5.8297208e-07
-2.5970706e-08
5.8690201e-07
-3.135012e-08
5.9273345e-07
-3.9513112e-08
6.0490645e-07
-4.9038071e-08
6.2827363e-07
-3.8504198e-08
6.0134571e-07
3.1709107e-07
3.2823494e-08
2.3326231e-07
5.5155019e-08
5.733687e-07
4.9121746e-08
6.5299128e-07
3.8956973e-08
6.2667805e-07
3.2329097e-08
6.0544908e-07
2.7418679e-08
5.959126e-07
2.334156e-08
5.9005912e-07
1.9910277e-08
5.8574883e-07
1.7008064e-08
5.8252636e-07
1.4532575e-08
5.8009544e-07
1.2399913e-08
5.7824089e-07
1.0542718e-08
5.7681352e-07
8.9066392e-09
5.7570795e-07
7.4473787e-09
5.7484915e-07
6.1285022e-09
5.7418311e-07
4.919681e-09
5.736707e-07
3.7952498e-09
5.7328361e-07
2.7330281e-09
5.7300156e-07
1.7133444e-09
5.7281042e-07
7.1820328e-10
5.7270097e-07
-2.6944715e-10
5.726681e-07
-1.2663904e-09
5.7271039e-07
-2.2898088e-09
5.7283e-07
-3.3579678e-09
5.7303286e-07
-4.4909589e-09
5.733291e-07
-5.7115482e-09
5.7373403e-07
-7.0461741e-09
5.7426941e-07
-8.5261503e-09
5.7496556e-07
-1.0189116e-08
5.7586437e-07
-1.2080814e-08
5.7702384e-07
-1.4257478e-08
5.7852498e-07
-1.678873e-08
5.804816e-07
-1.9759626e-08
5.8305688e-07
-2.3271269e-08
5.8648372e-07
-2.7465262e-08
5.9109601e-07
-3.2857066e-08
5.9812525e-07
-4.0827182e-08
6.1287656e-07
-4.751996e-08
6.3496641e-07
-3.3290033e-08
5.8711578e-07
2.8380104e-07
2.6146145e-08
2.0711766e-07
5.0020067e-08
5.4949647e-07
4.8354605e-08
6.5465696e-07
3.9358262e-08
6.3567414e-07
3.295022e-08
6.1185705e-07
2.828744e-08
6.0057538e-07
2.437221e-08
5.9397435e-07
2.1003297e-08
5.8911774e-07
1.8099563e-08
5.8543009e-07
1.5581619e-08
5.8261338e-07
1.3380198e-08
5.8044231e-07
1.1437995e-08
5.7875572e-07
9.7073656e-09
5.7743858e-07
8.1483948e-09
5.7640812e-07
6.727429e-09
5.7560408e-07
5.4158034e-09
5.7498233e-07
4.188754e-09
5.7451066e-07
3.0244925e-09
5.7416582e-07
1.903409e-09
5.739315e-07
8.0736701e-10
5.7379701e-07
-2.8093403e-10
5.737564e-07
-1.3785557e-09
5.7380801e-07
-2.5029146e-09
5.7395436e-07
-3.6723871e-09
5.7420233e-07
-4.9069532e-09
5.7456367e-07
-6.2289125e-09
5.7505599e-07
-7.6636986e-09
5.7570419e-07
-9.2408274e-09
5.7654269e-07
-1.0995006e-08
5.7761855e-07
-1.29674e-08
5.7899623e-07
-1.5207289e-08
5.8076487e-07
-1.7774175e-08
5.8304848e-07
-2.0737774e-08
5.8602048e-07
-2.4173669e-08
5.8991962e-07
-2.8217143e-08
5.9513948e-07
-3.3468786e-08
6.033769e-07
-4.0831812e-08
6.2023959e-07
-4.459429e-08
6.3872889e-07
-2.8107156e-08
5.7062864e-07
2.5569388e-07
2.0524324e-08
1.8659514e-07
4.4452144e-08
5.2557105e-07
4.6472382e-08
6.5263728e-07
3.8987492e-08
6.4315871e-07
3.2926729e-08
6.1791767e-07
2.8564892e-08
6.0493722e-07
2.489051e-08
5.9764874e-07
2.1663379e-08
5.9234487e-07
1.8827944e-08
5.8826553e-07
1.6327937e-08
5.8511339e-07
1.4109709e-08
5.8266054e-07
1.2126929e-08
5.807385e-07
1.033967e-08
5.7922584e-07
8.7134293e-09
5.7803436e-07
7.2183128e-09
5.7709919e-07
5.8282162e-09
5.7637242e-07
4.5200879e-09
5.7581879e-07
3.2732611e-09
5.7541264e-07
2.0688467e-09
5.7513591e-07
8.8917443e-10
5.7497668e-07
-2.8272861e-10
5.7492831e-07
-1.4636355e-09
5.7498892e-07
-2.6706183e-09
5.7516135e-07
-3.9215515e-09
5.7545326e-07
-5.2356379e-09
5.7587776e-07
-6.6339766e-09
5.7645433e-07
-8.1401815e-09
5.772104e-07
-9.7810682e-09
5.7818358e-07
-1.1587422e-08
5.794249e-07
-1.3594791e-08
5.810036e-07
-1.5844398e-08
5.8301448e-07
-1.8384343e-08
5.8558843e-07
-2.1268051e-08
5.8890419e-07
-2.4549967e-08
5.9320153e-07
-2.8375312e-08
5.9896483e-07
-3.3385259e-08
6.0838684e-07
-3.9860382e-08
6.2671471e-07
-4.0919157e-08
6.3978766e-07
-2.3308779e-08
5.5301827e-07
2.323851e-07
1.5964866e-08
1.7063243e-07
3.8993345e-08
5.0254582e-07
4.3913155e-08
6.4771852e-07
3.8085976e-08
6.4898556e-07
3.2462121e-08
6.2354129e-07
2.8406551e-08
6.0899276e-07
2.500518e-08
6.0105012e-07
2.1966481e-08
5.9538357e-07
1.9246451e-08
5.9098556e-07
1.6808755e-08
5.8755109e-07
1.4614232e-08
5.8485506e-07
1.2627119e-08
5.8272561e-07
1.0815334e-08
5.8103763e-07
9.1501911e-09
5.796995e-07
7.6060564e-09
5.7864333e-07
6.1599275e-09
5.7781855e-07
4.7910066e-09
5.7718771e-07
3.4802726e-09
5.7672338e-07
2.2100582e-09
5.7640613e-07
9.6364025e-10
5.762231e-07
-2.7515924e-10
5.7616711e-07
-1.5223613e-09
5.7623612e-07
-2.794224e-09
5.7643321e-07
-4.1076354e-09
5.7676667e-07
-5.4805145e-09
5.7725064e-07
-6.9322285e-09
5.7790604e-07
-8.4840217e-09
5.7876219e-07
-1.0159456e-08
5.7985901e-07
-1.1984867e-08
5.8125031e-07
-1.3989786e-08
5.8300852e-07
-1.6207299e-08
5.8523199e-07
-1.8674443e-08
5.8805557e-07
-2.1429748e-08
5.9165949e-07
-2.4514072e-08
5.9628586e-07
-2.8094247e-08
6.02545e-07
-3.2790347e-08
6.1308294e-07
-3.8207754e-08
6.3213212e-07
-3.693685e-08
6.3851676e-07
-1.9063939e-08
5.3514536e-07
2.1332117e-07
1.2368633e-08
1.5826637e-07
3.394239e-08
4.8097628e-07
4.1005843e-08
6.4065679e-07
3.6831439e-08
6.5315968e-07
3.1709874e-08
6.2866252e-07
2.7946551e-08
6.1275604e-07
2.4819363e-08
6.0417732e-07
2.1989414e-08
5.9821353e-07
1.9411787e-08
5.9356319e-07
1.7065562e-08
5.8989731e-07
1.4923888e-08
5.8699673e-07
1.2960261e-08
5.8468924e-07
1.1149852e-08
5.8284803e-07
9.4696241e-09
5.8137973e-07
7.8982781e-09
5.8021467e-07
6.4161296e-09
5.793007e-07
5.0049261e-09
5.7859891e-07
3.6476195e-09
5.7808069e-07
2.3281079e-09
5.7772564e-07
1.0309643e-09
5.7752024e-07
-2.5884351e-10
5.7745691e-07
-1.5562334e-09
5.7753351e-07
-2.8762974e-09
5.7775327e-07
-4.2345853e-09
5.7812496e-07
-5.6473851e-09
5.7866344e-07
-7.1319998e-09
5.7939066e-07
-8.7070088e-09
5.803372e-07
-1.0392502e-08
5.815445e-07
-1.221029e-08
5.830681e-07
-1.4184068e-08
5.849823e-07
-1.633944e-08
5.8738737e-07
-1.8703624e-08
5.9041976e-07
-2.1302583e-08
5.9425845e-07
-2.4170723e-08
5.99154e-07
-2.7499246e-08
6.0587352e-07
-3.1826218e-08
6.1740992e-07
-3.6115794e-08
6.3642169e-07
-3.2948215e-08
6.3534918e-07
-1.54339e-08
5.1763104e-07
1.9788727e-07
9.5968964e-09
1.4867254e-07
2.9451235e-08
4.6112731e-07
3.7996716e-08
6.3211388e-07
3.5361575e-08
6.5579466e-07
3.0780489e-08
6.3324315e-07
2.7288616e-08
6.1624781e-07
2.4419097e-08
6.0704685e-07
2.1800482e-08
6.0083215e-07
1.9377396e-08
5.9598627e-07
1.7139496e-08
5.9213521e-07
1.5069903e-08
5.8906633e-07
1.3149818e-08
5.8660933e-07
1.1360696e-08
5.8463716e-07
9.6846039e-09
5.8305583e-07
8.1043382e-09
5.8179494e-07
6.6034869e-09
5.8080155e-07
5.1664208e-09
5.8003598e-07
3.7782177e-09
5.7946889e-07
2.4245392e-09
5.7907932e-07
1.0914777e-09
5.788533e-07
-2.3461706e-10
5.7878301e-07
-1.5673193e-09
5.7886622e-07
-2.9203183e-09
5.7910627e-07
-4.3076013e-09
5.7951224e-07
-5.7436267e-09
5.8009946e-07
-7.2434795e-09
5.8089051e-07
-8.8229969e-09
5.8191672e-07
-1.0498847e-08
5.8322035e-07
-1.2288559e-08
5.8485781e-07
-1.4210518e-08
5.8690426e-07
-1.6283785e-08
5.8946063e-07
-1.8527218e-08
5.9266319e-07
-2.0956865e-08
5.966881e-07
-2.3606737e-08
6.0180387e-07
-2.6688378e-08
6.0895516e-07
-3.061045e-08
6.2133199e-07
-3.3788184e-08
6.3959943e-07
-2.9157862e-08
6.3071886e-07
-1.2413658e-08
5.0088684e-07
1.8547361e-07
7.5007783e-09
1.4117543e-07
2.5567252e-08
4.4306752e-07
3.5056246e-08
6.2262854e-07
3.3785728e-08
6.5706526e-07
2.9756252e-08
6.3727204e-07
2.6512046e-08
6.1949184e-07
2.3873487e-08
6.0968542e-07
2.1456966e-08
6.0324868e-07
1.9190116e-08
5.9825312e-07
1.7068217e-08
5.9425711e-07
1.5082068e-08
5.9105248e-07
1.3219045e-08
5.8847235e-07
1.1465798e-08
5.863904e-07
9.8087848e-09
5.8471284e-07
8.2344704e-09
5.8336925e-07
6.729493e-09
5.8230653e-07
5.2807645e-09
5.8148471e-07
3.8755014e-09
5.8087415e-07
2.5012027e-09
5.8045362e-07
1.1455924e-09
5.8020891e-07
-2.0346547e-10
5.8013207e-07
-1.5580631e-09
5.8022081e-07
-2.9303549e-09
5.8047856e-07
-4.3326546e-09
5.8091454e-07
-5.777518e-09
5.8154433e-07
-7.2778017e-09
5.8239079e-07
-8.8466852e-09
5.834856e-07
-1.0497639e-08
5.8487131e-07
-1.2244338e-08
5.8660451e-07
-1.4100538e-08
5.8876046e-07
-1.6079782e-08
5.9143988e-07
-1.8194106e-08
5.9477751e-07
-2.0452598e-08
5.9894659e-07
-2.2893799e-08
6.0424507e-07
-2.5741181e-08
6.1180255e-07
-2.9243467e-08
6.2483427e-07
-3.1386008e-08
6.4174197e-07
-2.568759e-08
6.2502044e-07
-9.956272e-09
4.8515552e-07
1.7551734e-07
5.9396848e-09
1.3524018e-07
2.2268421e-08
4.2674703e-07
3.2285873e-08
6.1261604e-07
3.2183787e-08
6.571678e-07
2.8696525e-08
6.407586e-07
2.5676276e-08
6.2251183e-07
2.323725e-08
6.1212443e-07
2.1005915e-08
6.0548003e-07
1.8889669e-08
6.0036937e-07
1.688475e-08
5.9626203e-07
1.4987402e-08
5.9294982e-07
1.3189721e-08
5.9027003e-07
1.1482465e-08
5.8809766e-07
9.855712e-09
5.8633959e-07
8.299082e-09
5.8492588e-07
6.8019369e-09
5.8380368e-07
5.3535417e-09
5.829331e-07
3.9431609e-09
5.8228453e-07
2.5601084e-09
5.8183667e-07
1.1937598e-09
5.8157526e-07
-1.6646239e-10
5.8149229e-07
-1.5311167e-09
5.8158547e-07
-2.9107794e-09
5.8185823e-07
-4.3160724e-09
5.8231984e-07
-5.7576749e-09
5.8298593e-07
-7.2463092e-09
5.8387943e-07
-8.7926893e-09
5.8503198e-07
-1.0407419e-08
5.8648604e-07
-1.2100834e-08
5.8829793e-07
-1.388283e-08
5.9054245e-07
-1.5762483e-08
5.9331953e-07
-1.7746599e-08
5.9676163e-07
-1.984034e-08
6.0104033e-07
-2.2090139e-08
6.0649487e-07
-2.4720409e-08
6.1443282e-07
-2.7805179e-08
6.2791905e-07
-2.9022867e-08
6.4295966e-07
-2.2592153e-08
6.1858973e-07
-7.9930612e-09
4.7055643e-07
1.6752427e-07
4.7909218e-09
1.3045465e-07
1.949599e-08
4.1205203e-07
2.9733446e-08
6.0238513e-07
3.0607514e-08
6.5629473e-07
2.7640052e-08
6.4372526e-07
2.482283e-08
6.2532867e-07
2.2551855e-08
6.1439538e-07
2.0484824e-08
6.0754708e-07
1.8508846e-08
6.0234535e-07
1.6617225e-08
5.9815365e-07
1.4809603e-08
5.9475745e-07
1.3081479e-08
5.9199815e-07
1.14267e-08
5.8975244e-07
9.8382092e-09
5.8792808e-07
8.3082353e-09
5.8645586e-07
6.8284882e-09
5.8528342e-07
5.3903338e-09
5.8437126e-07
3.9849264e-09
5.8368994e-07
2.6033012e-09
5.8321829e-07
1.2364354e-09
5.8294213e-07
-1.2471588e-10
5.8285344e-07
-1.4891957e-09
5.8294995e-07
-2.8660298e-09
5.8323506e-07
-4.264201e-09
5.8371801e-07
-5.6926098e-09
5.8441434e-07
-7.1600098e-09
5.8534683e-07
-8.6749092e-09
5.8654688e-07
-1.0245432e-08
5.8805656e-07
-1.1879138e-08
5.8993163e-07
-1.3582833e-08
5.9224615e-07
-1.5362164e-08
5.9509886e-07
-1.722023e-08
5.9861969e-07
-1.9161006e-08
6.0298111e-07
-2.1240378e-08
6.0857424e-07
-2.3671958e-08
6.168644e-07
-2.6353617e-08
6.306007e-07
-2.6770236e-08
6.4337627e-07
-1.9880441e-08
6.1169993e-07
-6.4482089e-09
4.5712419e-07
1.6107607e-07
3.9521716e-09
1.2650906e-07
1.7177317e-08
3.9883909e-07
2.7412522e-08
5.9215838e-07
2.9086939e-08
6.5462203e-07
2.6609263e-08
6.4620207e-07
2.3978098e-08
6.2795931e-07
2.1846756e-08
6.1652666e-07
1.9922187e-08
6.0947166e-07
1.8073715e-08
6.0419383e-07
1.6288835e-08
5.9993853e-07
1.4568819e-08
5.9647746e-07
1.2911463e-08
5.9365551e-07
1.1312816e-08
5.9135109e-07
9.767988e-09
5.8947291e-07
8.2712918e-09
5.8795255e-07
6.816395e-09
5.8673832e-07
5.3964836e-09
5.8579117e-07
4.0044014e-09
5.8508202e-07
2.6327652e-09
5.8458993e-07
1.2740536e-09
5.8430084e-07
-7.9323693e-11
5.8420682e-07
-1.4349643e-09
5.8430559e-07
-2.8004235e-09
5.8460052e-07
-4.1831489e-09
5.8510073e-07
-5.590409e-09
5.858216e-07
-7.0291972e-09
5.8678562e-07
-8.5061108e-09
5.880238e-07
-1.0027201e-08
5.8957765e-07
-1.1597803e-08
5.9150224e-07
-1.3222362e-08
5.9387071e-07
-1.4904026e-08
5.9678053e-07
-1.6643542e-08
6.0035921e-07
-1.8445921e-08
6.0478349e-07
-2.0376436e-08
6.1050476e-07
-2.2626981e-08
6.1911494e-07
-2.4927793e-08
6.3290152e-07
-2.4667229e-08
6.4311571e-07
-1.7533492e-08
6.0456619e-07
-5.2472391e-09
4.4483794e-07
1.5582883e-07
3.3408312e-09
1.2317631e-07
1.523846e-08
3.869562e-07
2.5316086e-08
5.8209148e-07
2.7636863e-08
6.5230394e-07
2.5615231e-08
6.4822281e-07
2.3157138e-08
6.3041672e-07
2.1141538e-08
6.1854214e-07
1.9338621e-08
6.112746e-07
1.760418e-08
6.0592828e-07
1.5918042e-08
6.0162467e-07
1.4281646e-08
5.9811386e-07
1.2694199e-08
5.9524296e-07
1.1153232e-08
5.9289205e-07
9.6554229e-09
5.9097072e-07
8.1966894e-09
5.8941129e-07
6.7722857e-09
5.8816272e-07
5.3769319e-09
5.8718652e-07
4.0049445e-09
5.8645401e-07
2.6503544e-09
5.8594452e-07
1.3070094e-09
5.8564419e-07
-3.1337715e-11
5.8554516e-07
-1.3709493e-09
5.856452e-07
-2.7180216e-09
5.8594759e-07
-4.0786049e-09
5.8646132e-07
-5.4585104e-09
5.872015e-07
-6.8632006e-09
5.8819031e-07
-8.2976626e-09
5.8945826e-07
-9.7662688e-09
5.9104626e-07
-1.1272635e-08
5.930086e-07
-1.2819482e-08
5.9541755e-07
-1.4408249e-08
5.9836929e-07
-1.6038484e-08
6.0198945e-07
-1.7717873e-08
6.0646288e-07
-1.9519761e-08
6.1230665e-07
-2.1605148e-08
6.2120033e-07
-2.3551832e-08
6.348482e-07
-2.2730074e-08
6.4229395e-07
-1.551695e-08
5.9735307e-07
-4.3216878e-09
4.3364268e-07
1.5150714e-07
2.8923659e-09
1.2029396e-07
1.3610841e-08
3.7625548e-07
2.3425888e-08
5.7228984e-07
2.6261812e-08
6.4947194e-07
2.4661529e-08
6.4982227e-07
2.2367117e-08
6.3271025e-07
2.0448313e-08
6.2046076e-07
1.8748385e-08
6.1297455e-07
1.7114902e-08
6.0756178e-07
1.551908e-08
6.0322049e-07
1.3961357e-08
5.9967158e-07
1.2441659e-08
5.9676266e-07
1.0958441e-08
5.9437527e-07
9.5094595e-09
5.924197e-07
8.0918293e-09
5.9082892e-07
6.7020546e-09
5.895525e-07
5.3361194e-09
5.8855246e-07
3.9895947e-09
5.8780054e-07
2.6577484e-09
5.8727637e-07
1.3356476e-09
5.8696629e-07
1.825514e-11
5.8686256e-07
-1.2994816e-09
5.8696294e-07
-2.6225381e-09
5.8727065e-07
-3.9557215e-09
5.877945e-07
-5.303571e-09
5.8854935e-07
-6.6702473e-09
5.8955698e-07
-8.0594146e-09
5.9084743e-07
-9.4741239e-09
5.9246097e-07
-1.0916711e-08
5.9445119e-07
-1.2388701e-08
5.9688954e-07
-1.3890467e-08
5.9987106e-07
-1.5421303e-08
6.0352028e-07
-1.6992638e-08
6.0803421e-07
-1.8683699e-08
6.1399771e-07
-2.0617542e-08
6.2313417e-07
-2.2238516e-08
6.3646917e-07
-2.0959374e-08
6.4101481e-07
-1.3789439e-08
5.9018313e-07
-3.6116369e-09
4.2346488e-07
1.478955e-07
2.5580449e-09
1.1774837e-07
1.2234624e-08
3.6660027e-07
2.1718789e-08
5.6282228e-07
2.4959786e-08
6.4623641e-07
2.3746932e-08
6.5103446e-07
2.1609871e-08
6.3484624e-07
1.9773721e-08
6.2229664e-07
1.8160829e-08
6.1458745e-07
1.6616307e-08
6.0910632e-07
1.5102617e-08
6.0473419e-07
1.3618299e-08
6.011559e-07
1.2163469e-08
5.9821748e-07
1.0737096e-08
5.9580165e-07
9.337632e-09
5.9381916e-07
7.9630509e-09
5.922035e-07
6.610819e-09
5.9090473e-07
5.2779399e-09
5.8988534e-07
3.9610338e-09
5.8911744e-07
2.6564297e-09
5.8858097e-07
1.3602605e-09
5.8826246e-07
6.8557423e-11
5.8815426e-07
-1.22266e-09
5.8825415e-07
-2.5172902e-09
5.8856528e-07
-3.8190563e-09
5.8909627e-07
-5.1314084e-09
5.898617e-07
-6.4574225e-09
5.90883e-07
-7.7996998e-09
5.921897e-07
-9.1602793e-09
5.9382155e-07
-1.0540581e-08
5.9583149e-07
-1.1941354e-08
5.9829032e-07
-1.3362417e-08
6.0129212e-07
-1.4803543e-08
6.0496141e-07
-1.6280446e-08
6.0951112e-07
-1.7875495e-08
6.1559276e-07
-1.9668928e-08
6.2492761e-07
-2.0992327e-08
6.3779257e-07
-1.9345921e-08
6.3936841e-07
-1.2308243e-08
5.8314546e-07
-3.066685e-09
4.1422332e-07
1.4482882e-07
2.3022308e-09
1.1546167e-07
1.1059801e-08
3.5786842e-07
2.0170837e-08
5.537316e-07
2.3725147e-08
6.4268949e-07
2.2867426e-08
6.518918e-07
2.08838e-08
6.3682857e-07
1.9120513e-08
6.2405953e-07
1.7581603e-08
6.1612635e-07
1.6115499e-08
6.1057245e-07
1.4676413e-08
6.0617328e-07
1.3260341e-08
6.0257197e-07
1.1867206e-08
5.9961062e-07
1.0496188e-08
5.9717266e-07
9.1461563e-09
5.951692e-07
7.8156735e-09
5.9353398e-07
6.5029294e-09
5.9221747e-07
5.2057362e-09
5.9118253e-07
3.921577e-09
5.904016e-07
2.6476776e-09
5.8985487e-07
1.3810873e-09
5.8952905e-07
1.1876507e-10
5.8941658e-07
-1.1423364e-09
5.8951526e-07
-2.4051797e-09
5.8982812e-07
-3.6725578e-09
5.9036365e-07
-4.9470038e-09
5.9113615e-07
-6.2307045e-09
5.921667e-07
-7.525423e-09
5.9348442e-07
-8.8324437e-09
5.9512857e-07
-1.015256e-08
5.9715161e-07
-1.1486067e-08
5.9962382e-07
-1.2832608e-08
6.0263866e-07
-1.4192979e-08
6.0632178e-07
-1.5587251e-08
6.1090539e-07
-1.7097957e-08
6.1710346e-07
-1.8759672e-08
6.2658932e-07
-1.9812146e-08
6.3884505e-07
-1.7875192e-08
6.3743145e-07
-1.1032859e-08
5.7630312e-07
-2.6457825e-09
4.0583624e-07
1.4218303e-07
2.0996215e-09
1.1338132e-07
1.0045814e-08
3.4995321e-07
1.8759552e-08
5.4504266e-07
2.2550668e-08
6.3890812e-07
2.2017681e-08
6.5242485e-07
2.0185307e-08
6.3865944e-07
1.8488803e-08
6.257555e-07
1.7013657e-08
6.1760147e-07
1.5617041e-08
6.1196909e-07
1.4245918e-08
6.0754441e-07
1.2893323e-08
6.0392457e-07
1.1558703e-08
6.0094524e-07
1.0241259e-08
5.9849011e-07
8.9400672e-09
5.9647039e-07
7.6540799e-09
5.9481997e-07
6.3820179e-09
5.9348954e-07
5.122325e-09
5.9244222e-07
3.8731858e-09
5.9165074e-07
2.6325742e-09
5.9109548e-07
1.3983168e-09
5.907633e-07
1.6816794e-10
5.9064673e-07
-1.0601174e-09
5.9074354e-07
-2.2887011e-09
5.9105671e-07
-3.5195879e-09
5.9159453e-07
-4.7545479e-09
5.9237111e-07
-5.9950485e-09
5.934072e-07
-7.2422017e-09
5.9473157e-07
-8.4967427e-09
5.9638311e-07
-9.7590582e-09
5.9841392e-07
-1.1029215e-08
6.0089398e-07
-1.2306961e-08
6.0391641e-07
-1.3594469e-08
6.0760929e-07
-1.4915871e-08
6.1222679e-07
-1.6350875e-08
6.1853847e-07
-1.7887353e-08
6.281258e-07
-1.8693488e-08
6.3965118e-07
-1.6530572e-08
6.3526854e-07
-9.9271904e-09
5.6969974e-07
-2.3164441e-09
3.982255e-07
1.3986659e-07
1.9327693e-09
1.1147228e-07
9.160432e-09
3.427629e-07
1.7464961e-08
5.3676817e-07
2.1428817e-08
6.3495685e-07
2.1192041e-08
6.5266232e-07
1.9509832e-08
6.4033994e-07
1.7877051e-08
6.2738757e-07
1.6458061e-08
6.1902039e-07
1.5123622e-08
6.1330356e-07
1.3814799e-08
6.0885324e-07
1.2521456e-08
6.0521791e-07
1.1242365e-08
6.0222433e-07
9.9766227e-09
5.9975585e-07
8.7233772e-09
5.9772363e-07
7.4818247e-09
5.9606152e-07
6.2510689e-09
5.9472029e-07
5.0300425e-09
5.9366325e-07
3.8174951e-09
5.9286329e-07
2.6120189e-09
5.9230096e-07
1.4120945e-09
5.9196323e-07
2.1615032e-10
5.9184268e-07
-9.773757e-10
5.9193707e-07
-2.1699669e-09
5.922493e-07
-3.3629661e-09
5.9278753e-07
-4.5575138e-09
5.9356566e-07
-5.7544997e-09
5.9460419e-07
-6.9545341e-09
5.9593161e-07
-8.1579588e-09
5.9758653e-07
-9.3649094e-09
5.9962087e-07
-1.0575379e-08
6.0210445e-07
-1.1789401e-08
6.0513043e-07
-1.3010723e-08
6.0883061e-07
-1.4266961e-08
6.1348303e-07
-1.5632179e-08
6.1990368e-07
-1.7048031e-08
6.2954165e-07
-1.7630153e-08
6.402333e-07
-1.529531e-08
6.3293369e-07
-8.9600235e-09
5.6336446e-07
-2.0535185e-09
3.9131899e-07
1.3781307e-07
1.7899913e-09
1.0971121e-07
8.3783813e-09
3.3621955e-07
1.6269895e-08
5.289129e-07
2.0352467e-08
6.3089029e-07
2.0385107e-08
6.5263125e-07
1.8852547e-08
6.4187061e-07
1.7282786e-08
6.2895643e-07
1.5914649e-08
6.2038842e-07
1.4636604e-08
6.1458163e-07
1.3385403e-08
6.1010445e-07
1.2147697e-08
6.0645562e-07
1.0921452e-08
6.0345058e-07
9.7055856e-09
6.0097172e-07
8.4992397e-09
5.9892998e-07
7.301753e-09
5.9725901e-07
6.1125037e-09
5.9590954e-07
4.9308014e-09
5.9484495e-07
3.7558498e-09
5.9403824e-07
2.5867499e-09
5.9347006e-07
1.4225291e-09
5.9312745e-07
2.6218413e-10
5.9300302e-07
-8.9526993e-10
5.9309452e-07
-2.0507444e-09
5.9340477e-07
-3.2050289e-09
5.9394182e-07
-4.3587458e-09
5.9471938e-07
-5.5123206e-09
5.9575776e-07
-6.6659767e-09
5.9708527e-07
-7.8197737e-09
5.9874033e-07
-8.9736983e-09
6.007748e-07
-1.0127761e-08
6.0325851e-07
-1.1282389e-08
6.0628506e-07
-1.2442967e-08
6.0999119e-07
-1.3639812e-08
6.1467987e-07
-1.4938827e-08
6.212027e-07
-1.6237169e-08
6.3083999e-07
-1.6615399e-08
6.4061153e-07
-1.4153738e-08
6.3047203e-07
-8.1051428e-09
5.5731586e-07
-1.8379739e-09
3.8505182e-07
1.359751e-07
1.6636825e-09
1.080824e-07
7.6799842e-09
3.3025757e-07
1.515987e-08
5.214766e-07
1.9315246e-08
6.2675502e-07
1.959205e-08
6.5235715e-07
1.820878e-08
6.4325184e-07
1.6703114e-08
6.3046096e-07
1.5382504e-08
6.2170885e-07
1.4156462e-08
6.158077e-07
1.2959133e-08
6.113018e-07
1.1774067e-08
6.0764069e-07
1.0598339e-08
6.046263e-07
9.4306548e-09
6.021394e-07
8.270109e-09
6.0009053e-07
7.1161213e-09
5.98413e-07
5.9682682e-09
5.970574e-07
4.8261531e-09
5.9598707e-07
3.6893456e-09
5.9517505e-07
2.5573668e-09
5.9460204e-07
1.4297004e-09
5.9425512e-07
3.0582144e-10
5.941269e-07
-8.1476811e-10
5.9421511e-07
-1.9324981e-09
5.945225e-07
-3.0476951e-09
5.9505701e-07
-4.1605536e-09
5.9583223e-07
-5.2711224e-09
5.9686833e-07
-6.3793208e-09
5.9819346e-07
-7.4849998e-09
5.9984601e-07
-8.5880551e-09
6.0187785e-07
-9.6885574e-09
6.0435902e-07
-1.0787376e-08
6.0738388e-07
-1.189148e-08
6.1109529e-07
-1.3032975e-08
6.1582137e-07
-1.4267458e-08
6.2243718e-07
-1.5450289e-08
6.3202282e-07
-1.5642737e-08
6.4080398e-07
-1.3091953e-08
6.2792125e-07
-7.3410498e-09
5.5156496e-07
-1.6557523e-09
3.7936652e-07
1.3431935e-07
1.5490036e-09
1.0657505e-07
7.0499309e-09
3.248221e-07
1.4122789e-08
5.1445602e-07
1.831165e-08
6.2259114e-07
1.8808751e-08
6.5186424e-07
1.7574279e-08
6.4448417e-07
1.6135064e-08
6.3189879e-07
1.4860322e-08
6.2298332e-07
1.3683122e-08
6.1698493e-07
1.253676e-08
6.1244818e-07
1.1401921e-08
6.0877553e-07
1.0274747e-08
6.0575348e-07
9.153724e-09
6.0326042e-07
8.0378897e-09
6.0120636e-07
6.9267132e-09
5.9952417e-07
5.8199213e-09
5.9816419e-07
4.7173511e-09
5.9708964e-07
3.6188726e-09
5.9627353e-07
2.5243555e-09
5.9569656e-07
1.4336671e-09
5.953458e-07
3.4668626e-10
5.9521388e-07
-7.3667335e-10
5.9529847e-07
-1.8164342e-09
5.9560226e-07
-2.8925333e-09
5.9613311e-07
-3.9648063e-09
5.9690451e-07
-5.0329902e-09
5.9793651e-07
-6.0967562e-09
5.9925723e-07
-7.1557887e-09
6.0090504e-07
-8.2099155e-09
6.0293198e-07
-9.2592731e-09
6.0540837e-07
-1.0305172e-08
6.0842978e-07
-1.1356021e-08
6.1214614e-07
-1.2444734e-08
6.1691008e-07
-1.3614867e-08
6.2360732e-07
-1.4683426e-08
6.3309138e-07
-1.4706451e-08
6.4082701e-07
-1.2098127e-08
6.2531292e-07
-6.6504736e-09
5.4611731e-07
-1.4967335e-09
3.7421278e-07
1.3282261e-07
1.4429017e-09
1.0518146e-07
6.47624e-09
3.1986753e-07
1.3148573e-08
5.0784626e-07
1.7337047e-08
6.1843344e-07
1.8031849e-08
6.5117549e-07
1.6945357e-08
6.4556851e-07
1.5575833e-08
6.3326664e-07
1.4346668e-08
6.2421212e-07
1.3216221e-08
6.1811539e-07
1.2118669e-08
6.1354576e-07
1.1032171e-08
6.0986203e-07
9.9519341e-09
6.0683371e-07
8.8762358e-09
6.0433612e-07
7.8040696e-09
6.0227853e-07
6.7349462e-09
6.005933e-07
5.668716e-09
5.9923042e-07
4.6054117e-09
5.9815294e-07
3.5451553e-09
5.9733378e-07
2.488112e-09
5.967536e-07
1.4344746e-09
5.9639944e-07
3.8446592e-10
5.9626389e-07
-6.6164886e-10
5.9634459e-07
-1.7035445e-09
5.9664416e-07
-2.740825e-09
5.9717039e-07
-3.7730198e-09
5.979367e-07
-4.7995987e-09
5.9896309e-07
-5.8200178e-09
6.0027765e-07
-6.8338128e-09
6.0191884e-07
-7.8407395e-09
6.0393891e-07
-8.8409788e-09
6.0640861e-07
-9.8362457e-09
6.0942504e-07
-1.0836166e-08
6.1314606e-07
-1.1873463e-08
6.1794738e-07
-1.2978343e-08
6.247122e-07
-1.3933442e-08
6.3404648e-07
-1.3801916e-08
6.4069548e-07
-1.1162585e-08
6.2267359e-07
-6.0198004e-09
5.4097452e-07
-1.3538387e-09
3.6954682e-07
1.3146877e-07
1.3434051e-09
1.0389592e-07
5.9494258e-09
3.1535606e-07
1.2228814e-08
5.016416e-07
1.638762e-08
6.1431223e-07
1.7258744e-08
6.5031273e-07
1.6318988e-08
6.465062e-07
1.5022951e-08
6.3456071e-07
1.3840182e-08
6.2539439e-07
1.275531e-08
6.1920026e-07
1.1705049e-08
6.1459605e-07
1.0665465e-08
6.1090162e-07