/*--------------------------------*- C++ -*----------------------------------*\
  =========                 |
  \\      /  F ield         | OpenFOAM: The Open Source CFD Toolbox
   \\    /   O peration     | Website:  https://openfoam.org
    \\  /    A nd           | Version:  10
     \\/     M anipulation  |
\*---------------------------------------------------------------------------*/
FoamFile
{
    format      ascii;
    class       volScalarField;
    location    "0.11";
    object      T;
}
// * * * * * * * * * * * * * * * * * * * * * * * * * * * * * * * * * * * * * //

dimensions      [0 0 0 1 0 0 0];

internalField   nonuniform List<scalar> 
4000
(
303.10125
299.34299
299.99042
300.00082
299.99993
300
300
300
300
300
300
300
300
300
300
300
300
300
300
300
300
300
300
300
300
300
300
300
300
300
300
300
300
300
300
300
300
300
300
300
309.66286
298.49319
299.7793
300.00184
300.0008
299.99999
300
300
300
300
300
300
300
300
300
300
300
300
300
300
300
300
300
300
300
300
300
300
300
300
300
300
300
300
300
300
300
300
300
300
316.00275
298.68464
299.3925
299.97572
300.00405
300.00025
299.99999
300
300
300
300
300
300
300
300
300
300
300
300
300
300
300
300
300
300
300
300
300
300
300
300
300
300
300
300
300
300
300
300
300
321.73943
299.84532
298.98536
299.89504
300.00715
300.00138
300
299.99999
300
300
300
300
300
300
300
300
300
300
300
300
300
300
300
300
300
300
300
300
300
300
300
300
300
300
300
300
300
300
300
300
326.66649
301.69854
298.71072
299.75348
300.00323
300.00378
300.00017
299.99998
300
300
300
300
300
300
300
300
300
300
300
300
300
300
300
300
300
300
300
300
300
300
300
300
300
300
300
300
300
300
300
300
330.67836
303.94392
298.66385
299.56901
299.98434
300.00695
300.00071
299.99997
299.99999
300
300
300
300
300
300
300
300
300
300
300
300
300
300
300
300
300
300
300
300
300
300
300
300
300
300
300
300
300
300
300
333.76541
306.32367
298.87084
299.37485
299.94539
300.00935
300.0018
300
299.99998
300
300
300
300
300
300
300
300
300
300
300
300
300
300
300
300
300
300
300
300
300
300
300
300
300
300
300
300
300
300
300
336.01049
308.65322
299.30641
299.20542
299.88627
300.00888
300.00343
300.00014
299.99997
300
300
300
300
300
300
300
300
300
300
300
300
300
300
300
300
300
300
300
300
300
300
300
300
300
300
300
300
300
300
300
337.56017
310.82174
299.92068
299.08656
299.81139
300.00355
300.00538
300.00046
299.99996
299.99999
300
300
300
300
300
300
300
300
300
300
300
300
300
300
300
300
300
300
300
300
300
300
300
300
300
300
300
300
300
300
338.58572
312.77645
300.65898
299.0326
299.72777
299.99205
300.00719
300.00099
299.99996
299.99998
300
300
300
300
300
300
300
300
300
300
300
300
300
300
300
300
300
300
300
300
300
300
300
300
300
300
300
300
300
300
339.24968
314.50439
301.47254
299.04781
299.64313
299.97402
300.00834
300.00174
300.00001
299.99997
300
300
300
300
300
300
300
300
300
300
300
300
300
300
300
300
300
300
300
300
300
300
300
300
300
300
300
300
300
300
339.68515
316.01672
302.32284
299.12938
299.56447
299.9499
300.00828
300.00264
300.00012
299.99996
300
300
300
300
300
300
300
300
300
300
300
300
300
300
300
300
300
300
300
300
300
300
300
300
300
300
300
300
300
300
339.98852
317.3367
303.18211
299.27046
299.49731
299.92082
300.00659
300.00362
300.0003
299.99996
299.99999
300
300
300
300
300
300
300
300
300
300
300
300
300
300
300
300
300
300
300
300
300
300
300
300
300
300
300
300
300
340.22223
318.49163
304.03176
299.4625
299.44553
299.88824
300.00298
300.00453
300.00055
299.99996
299.99999
300
300
300
300
300
300
300
300
300
300
300
300
300
300
300
300
300
300
300
300
300
300
300
300
300
300
300
300
300
340.42254
319.50807
304.86021
299.69676
299.41152
299.85378
299.99734
300.00524
300.00088
299.99998
299.99998
300
300
300
300
300
300
300
300
300
300
300
300
300
300
300
300
300
300
300
300
300
300
300
300
300
300
300
300
300
340.60798
320.40955
305.66084
299.96513
299.39643
299.81902
299.9897
300.00562
300.00126
300.00003
299.99998
300
300
300
300
300
300
300
300
300
300
300
300
300
300
300
300
300
300
300
300
300
300
300
300
300
300
300
300
300
340.78634
321.21572
306.43028
300.26042
299.40049
299.78542
299.98021
300.00555
300.00167
300.00009
299.99997
300
300
300
300
300
300
300
300
300
300
300
300
300
300
300
300
300
300
300
300
300
300
300
300
300
300
300
300
300
340.95959
321.94236
307.16714
300.57651
299.42331
299.75425
299.96913
300.00494
300.00209
300.00018
299.99997
299.99999
300
300
300
300
300
300
300
300
300
300
300
300
300
300
300
300
300
300
300
300
300
300
300
300
300
300
300
300
341.12694
322.60176
307.87118
300.90817
299.46404
299.72658
299.95676
300.00372
300.00247
300.00029
299.99998
299.99999
300
300
300
300
300
300
300
300
300
300
300
300
300
300
300
300
300
300
300
300
300
300
300
300
300
300
300
300
341.28664
323.20327
308.54272
301.25102
299.52157
299.70325
299.94347
300.00186
300.00278
300.00043
299.99999
299.99999
300
300
300
300
300
300
300
300
300
300
300
300
300
300
300
300
300
300
300
300
300
300
300
300
300
300
300
300
341.43684
323.75388
309.18231
301.6013
299.59462
299.68495
299.92964
299.99935
300.00299
300.00058
300.00001
299.99999
300
300
300
300
300
300
300
300
300
300
300
300
300
300
300
300
300
300
300
300
300
300
300
300
300
300
300
300
341.57608
324.25873
309.79053
301.9558
299.68178
299.67214
299.91563
299.99623
300.00306
300.00074
300.00003
299.99999
300
300
300
300
300
300
300
300
300
300
300
300
300
300
300
300
300
300
300
300
300
300
300
300
300
300
300
300
341.70326
324.72151
310.36784
302.31173
299.78163
299.66518
299.90183
299.99252
300.00297
300.0009
300.00007
299.99999
300
300
300
300
300
300
300
300
300
300
300
300
300
300
300
300
300
300
300
300
300
300
300
300
300
300
300
300
341.81764
325.14479
310.91456
302.6666
299.89271
299.66423
299.88858
299.98831
300.0027
300.00105
300.00011
299.99999
300
300
300
300
300
300
300
300
300
300
300
300
300
300
300
300
300
300
300
300
300
300
300
300
300
300
300
300
341.91867
325.53027
311.43078
303.01817
300.01353
299.66937
299.8762
299.98368
300.00223
300.00119
300.00015
299.99999
300
300
300
300
300
300
300
300
300
300
300
300
300
300
300
300
300
300
300
300
300
300
300
300
300
300
300
300
342.0059
325.87891
311.9164
303.36438
300.14263
299.68054
299.865
299.97871
300.00156
300.00129
300.0002
300
299.99999
300
300
300
300
300
300
300
300
300
300
300
300
300
300
300
300
300
300
300
300
300
300
300
300
300
300
300
342.07897
326.19107
312.37104
303.70329
300.27856
299.69759
299.85523
299.97352
300.00069
300.00136
300.00026
300.00001
299.99999
300
300
300
300
300
300
300
300
300
300
300
300
300
300
300
300
300
300
300
300
300
300
300
300
300
300
300
342.13762
326.46661
312.79411
304.03304
300.41985
299.72028
299.84711
299.96822
299.99962
300.00139
300.00031
300.00002
299.99999
300
300
300
300
300
300
300
300
300
300
300
300
300
300
300
300
300
300
300
300
300
300
300
300
300
300
300
342.18176
326.705
313.18471
304.35183
300.56508
299.74831
299.84081
299.96291
299.99837
300.00136
300.00037
300.00003
300
300
300
300
300
300
300
300
300
300
300
300
300
300
300
300
300
300
300
300
300
300
300
300
300
300
300
300
342.21155
326.90546
313.54174
304.65786
300.71281
299.78128
299.83648
299.95772
299.99696
300.00128
300.00042
300.00004
300
300
300
300
300
300
300
300
300
300
300
300
300
300
300
300
300
300
300
300
300
300
300
300
300
300
300
300
342.22746
327.06717
313.86389
304.94934
300.8616
299.81875
299.83421
299.95276
299.99541
300.00113
300.00046
300.00006
300
300
300
300
300
300
300
300
300
300
300
300
300
300
300
300
300
300
300
300
300
300
300
300
300
300
300
300
342.23038
327.18959
314.14972
305.22451
301.01006
299.86022
299.83405
299.94812
299.99375
300.00093
300.00049
300.00007
300
300
300
300
300
300
300
300
300
300
300
300
300
300
300
300
300
300
300
300
300
300
300
300
300
300
300
300
342.22161
327.27272
314.39786
305.4816
301.15677
299.90513
299.83601
299.9439
299.99201
300.00066
300.00051
300.00009
300
300
300
300
300
300
300
300
300
300
300
300
300
300
300
300
300
300
300
300
300
300
300
300
300
300
300
300
342.20294
327.31755
314.60715
305.71896
301.30038
299.95291
299.84006
299.94019
299.99022
300.00034
300.00052
300.00011
300.00001
300
300
300
300
300
300
300
300
300
300
300
300
300
300
300
300
300
300
300
300
300
300
300
300
300
300
300
342.17655
327.32637
314.77696
305.93506
301.43958
300.00295
299.84613
299.93704
299.98843
299.99996
300.00051
300.00012
300.00001
300
300
300
300
300
300
300
300
300
300
300
300
300
300
300
300
300
300
300
300
300
300
300
300
300
300
300
342.14497
327.30303
314.90747
306.12868
301.57313
300.05461
299.85411
299.93453
299.98667
299.99954
300.00049
300.00014
300.00001
300
300
300
300
300
300
300
300
300
300
300
300
300
300
300
300
300
300
300
300
300
300
300
300
300
300
300
342.11084
327.25305
314.9999
306.29899
301.69994
300.10728
299.86387
299.93268
299.98497
299.99907
300.00045
300.00015
300.00002
300
300
300
300
300
300
300
300
300
300
300
300
300
300
300
300
300
300
300
300
300
300
300
300
300
300
300
342.07668
327.18347
315.05683
306.44568
301.81909
300.16035
299.87524
299.93153
299.98336
299.99858
300.00039
300.00016
300.00002
300
300
300
300
300
300
300
300
300
300
300
300
300
300
300
300
300
300
300
300
300
300
300
300
300
300
300
342.04467
327.10228
315.08217
306.56911
301.92988
300.21325
299.88803
299.93107
299.98186
299.99806
300.00032
300.00016
300.00003
300
300
300
300
300
300
300
300
300
300
300
300
300
300
300
300
300
300
300
300
300
300
300
300
300
300
300
342.01635
327.01765
315.08109
306.67034
302.03187
300.26545
299.90203
299.93128
299.9805
299.99752
300.00023
300.00016
300.00003
300
300
300
300
300
300
300
300
300
300
300
300
300
300
300
300
300
300
300
300
300
300
300
300
300
300
300
341.99254
326.93687
315.05977
306.75114
302.12491
300.31651
299.91702
299.93214
299.9793
299.99698
300.00013
300.00016
300.00004
300
300
300
300
300
300
300
300
300
300
300
300
300
300
300
300
300
300
300
300
300
300
300
300
300
300
300
341.97327
326.86547
315.02482
306.81388
302.20914
300.36606
299.93279
299.9336
299.97826
299.99645
300.00001
300.00016
300.00004
300
300
300
300
300
300
300
300
300
300
300
300
300
300
300
300
300
300
300
300
300
300
300
300
300
300
300
341.9579
326.80648
314.98282
306.86141
302.28493
300.41382
299.94913
299.93562
299.9774
299.99592
299.99988
300.00015
300.00004
300.00001
300
300
300
300
300
300
300
300
300
300
300
300
300
300
300
300
300
300
300
300
300
300
300
300
300
300
341.94536
326.76028
314.93962
306.89687
302.35288
300.45962
299.96589
299.93817
299.97671
299.99541
299.99975
300.00013
300.00004
300.00001
300
300
300
300
300
300
300
300
300
300
300
300
300
300
300
300
300
300
300
300
300
300
300
300
300
300
341.93437
326.72486
314.89977
306.92345
302.41376
300.50337
299.98294
299.94122
299.97623
299.99494
299.99961
300.00011
300.00005
300.00001
300
300
300
300
300
300
300
300
300
300
300
300
300
300
300
300
300
300
300
300
300
300
300
300
300
300
341.92373
326.69662
314.86606
306.94423
302.46845
300.54504
300.00018
299.94476
299.97597
299.9945
299.99946
300.00009
300.00005
300.00001
300
300
300
300
300
300
300
300
300
300
300
300
300
300
300
300
300
300
300
300
300
300
300
300
300
300
341.91248
326.6712
314.83921
306.96192
302.51801
300.58466
300.01751
299.94874
299.97591
299.99411
299.99931
300.00006
300.00004
300.00001
300
300
300
300
300
300
300
300
300
300
300
300
300
300
300
300
300
300
300
300
300
300
300
300
300
300
341.90007
326.64445
314.81778
306.97851
302.56353
300.62235
300.03475
299.95307
299.97604
299.99376
299.99917
300.00003
300.00004
300.00001
300
300
300
300
300
300
300
300
300
300
300
300
300
300
300
300
300
300
300
300
300
300
300
300
300
300
341.88632
326.61314
314.79851
306.99496
302.60609
300.65826
300.05171
299.95756
299.97628
299.99343
299.99902
300
300.00004
300.00001
300
300
300
300
300
300
300
300
300
300
300
300
300
300
300
300
300
300
300
300
300
300
300
300
300
300
341.8714
326.57533
314.77687
307.01086
302.64653
300.69258
300.06815
299.96198
299.97652
299.9931
299.99887
299.99997
300.00004
300.00001
300
300
300
300
300
300
300
300
300
300
300
300
300
300
300
300
300
300
300
300
300
300
300
300
300
300
341.85574
326.53056
314.74798
307.0243
302.68514
300.72554
300.08389
299.9661
299.97663
299.99273
299.99871
299.99994
300.00004
300.00001
300
300
300
300
300
300
300
300
300
300
300
300
300
300
300
300
300
300
300
300
300
300
300
300
300
300
341.8399
326.47967
314.70763
307.032
302.72138
300.75727
300.09888
299.96977
299.97653
299.99228
299.99854
299.99991
300.00004
300.00001
300
300
300
300
300
300
300
300
300
300
300
300
300
300
300
300
300
300
300
300
300
300
300
300
300
300
341.82447
326.42453
314.65328
307.02992
302.75374
300.78769
300.11327
299.97304
299.9762
299.99176
299.99835
299.99988
300.00004
300.00002
300
300
300
300
300
300
300
300
300
300
300
300
300
300
300
300
300
300
300
300
300
300
300
300
300
300
341.81
326.36759
314.58462
307.01412
302.77985
300.81641
300.12734
299.97618
299.97577
299.99117
299.99814
299.99985
300.00004
300.00002
300
300
300
300
300
300
300
300
300
300
300
300
300
300
300
300
300
300
300
300
300
300
300
300
300
300
341.79691
326.31151
314.50377
306.98185
302.79691
300.84264
300.14145
299.97965
299.97547
299.99061
299.99794
299.99981
300.00004
300.00002
300
300
300
300
300
300
300
300
300
300
300
300
300
300
300
300
300
300
300
300
300
300
300
300
300
300
341.78549
326.25877
314.41484
306.9324
302.80242
300.86527
300.15584
299.98403
299.97566
299.99019
299.99775
299.99978
300.00004
300.00002
300
300
300
300
300
300
300
300
300
300
300
300
300
300
300
300
300
300
300
300
300
300
300
300
300
300
341.77588
326.21134
314.32311
306.86751
302.79488
300.88311
300.1705
299.98976
299.97668
299.99006
299.99762
299.99975
300.00004
300.00002
300.00001
300
300
300
300
300
300
300
300
300
300
300
300
300
300
300
300
300
300
300
300
300
300
300
300
300
341.76808
326.17051
314.23405
306.79114
302.77433
300.89517
300.18508
299.99702
299.97876
299.99032
299.99757
299.99972
300.00004
300.00003
300.00001
300
300
300
300
300
300
300
300
300
300
300
300
300
300
300
300
300
300
300
300
300
300
300
300
300
341.76196
326.13685
314.15238
306.70875
302.74251
300.90099
300.19898
300.00564
299.98195
299.99105
299.99764
299.9997
300.00003
300.00002
300.00001
300
300
300
300
300
300
300
300
300
300
300
300
300
300
300
300
300
300
300
300
300
300
300
300
300
341.75735
326.11029
314.08145
306.62624
302.70252
300.90076
300.21148
300.0151
299.98605
299.99219
299.99782
299.99969
300.00002
300.00002
300.00001
300
300
300
300
300
300
300
300
300
300
300
300
300
300
300
300
300
300
300
300
300
300
300
300
300
341.75402
326.09023
314.02298
306.5489
302.65817
300.89533
300.22194
300.02464
299.99069
299.99366
299.9981
299.99971
300.00001
300.00002
300
300
300
300
300
300
300
300
300
300
300
300
300
300
300
300
300
300
300
300
300
300
300
300
300
300
341.75171
326.07574
313.97715
306.48065
302.61332
300.88602
300.22994
300.03354
299.99542
299.99527
299.99844
299.99973
300
300.00001
300
300
300
300
300
300
300
300
300
300
300
300
300
300
300
300
300
300
300
300
300
300
300
300
300
300
341.75019
326.06573
313.94291
306.42369
302.57118
300.87432
300.23536
300.04119
299.99981
299.99687
299.99881
299.99977
299.99999
300.00001
300
300
300
300
300
300
300
300
300
300
300
300
300
300
300
300
300
300
300
300
300
300
300
300
300
300
341.74925
326.05914
313.91848
306.37855
302.53398
300.86168
300.2384
300.04726
300.00357
299.99831
299.99917
299.99982
299.99999
300
300
300
300
300
300
300
300
300
300
300
300
300
300
300
300
300
300
300
300
300
300
300
300
300
300
300
341.74872
326.055
313.90176
306.34443
302.5029
300.8493
300.23947
300.05168
300.00654
299.99951
299.99949
299.99987
299.99999
300
300
300
300
300
300
300
300
300
300
300
300
300
300
300
300
300
300
300
300
300
300
300
300
300
300
300
341.74845
326.0525
313.89067
306.31968
302.47812
300.838
300.23913
300.05461
300.00872
300.00044
299.99975
299.99991
299.99999
300
300
300
300
300
300
300
300
300
300
300
300
300
300
300
300
300
300
300
300
300
300
300
300
300
300
300
341.74835
326.05105
313.88346
306.3023
302.45915
300.82828
300.23789
300.05634
300.0102
300.00111
299.99995
299.99995
299.99999
300
300
300
300
300
300
300
300
300
300
300
300
300
300
300
300
300
300
300
300
300
300
300
300
300
300
300
341.74834
326.05022
313.87873
306.29031
302.44508
300.82029
300.23623
300.0572
300.01114
300.00156
300.00009
299.99998
299.99999
300
300
300
300
300
300
300
300
300
300
300
300
300
300
300
300
300
300
300
300
300
300
300
300
300
300
300
341.74837
326.04972
313.87549
306.28201
302.43483
300.81396
300.23448
300.05752
300.01169
300.00186
300.00019
300
300
300
300
300
300
300
300
300
300
300
300
300
300
300
300
300
300
300
300
300
300
300
300
300
300
300
300
300
341.74842
326.04939
313.87312
306.2761
302.42738
300.80907
300.23287
300.05751
300.01199
300.00204
300.00026
300.00002
300
300
300
300
300
300
300
300
300
300
300
300
300
300
300
300
300
300
300
300
300
300
300
300
300
300
300
300
341.74848
326.04914
313.87124
306.27167
302.4219
300.80533
300.23149
300.05737
300.01213
300.00214
300.0003
300.00003
300
300
300
300
300
300
300
300
300
300
300
300
300
300
300
300
300
300
300
300
300
300
300
300
300
300
300
300
341.74853
326.04893
313.86964
306.26814
302.41773
300.80248
300.23036
300.05718
300.0122
300.00221
300.00033
300.00004
300
300
300
300
300
300
300
300
300
300
300
300
300
300
300
300
300
300
300
300
300
300
300
300
300
300
300
300
341.74858
326.04874
313.86825
306.2652
302.41443
300.80027
300.22947
300.05701
300.01223
300.00224
300.00035
300.00004
300
300
300
300
300
300
300
300
300
300
300
300
300
300
300
300
300
300
300
300
300
300
300
300
300
300
300
300
341.74863
326.04858
313.86702
306.26268
302.41173
300.79852
300.22877
300.05686
300.01225
300.00227
300.00036
300.00005
300
300
300
300
300
300
300
300
300
300
300
300
300
300
300
300
300
300
300
300
300
300
300
300
300
300
300
300
341.74868
326.04845
313.86594
306.26048
302.40945
300.7971
300.22821
300.05675
300.01226
300.00229
300.00037
300.00005
300.00001
300
300
300
300
300
300
300
300
300
300
300
300
300
300
300
300
300
300
300
300
300
300
300
300
300
300
300
341.74873
326.04835
313.86502
306.25857
302.4075
300.79591
300.22777
300.05666
300.01227
300.00231
300.00037
300.00005
300.00001
300
300
300
300
300
300
300
300
300
300
300
300
300
300
300
300
300
300
300
300
300
300
300
300
300
300
300
341.7488
326.04829
313.86423
306.25692
302.40583
300.79491
300.2274
300.0566
300.01228
300.00232
300.00038
300.00005
300.00001
300
300
300
300
300
300
300
300
300
300
300
300
300
300
300
300
300
300
300
300
300
300
300
300
300
300
300
341.74886
326.04827
313.86358
306.25552
302.40439
300.79405
300.22709
300.05654
300.01229
300.00233
300.00038
300.00005
300.00001
300
300
300
300
300
300
300
300
300
300
300
300
300
300
300
300
300
300
300
300
300
300
300
300
300
300
300
341.74894
326.04829
313.86305
306.25433
302.40317
300.79332
300.22683
300.0565
300.0123
300.00234
300.00039
300.00006
300.00001
300
300
300
300
300
300
300
300
300
300
300
300
300
300
300
300
300
300
300
300
300
300
300
300
300
300
300
341.74903
326.04836
313.86264
306.25333
302.40212
300.7927
300.22661
300.05646
300.01231
300.00235
300.00039
300.00006
300.00001
300
300
300
300
300
300
300
300
300
300
300
300
300
300
300
300
300
300
300
300
300
300
300
300
300
300
300
341.74913
326.04846
313.86233
306.2525
302.40124
300.79217
300.22642
300.05643
300.01232
300.00236
300.0004
300.00006
300.00001
300
300
300
300
300
300
300
300
300
300
300
300
300
300
300
300
300
300
300
300
300
300
300
300
300
300
300
341.74925
326.04862
313.86212
306.25182
302.4005
300.79172
300.22625
300.0564
300.01232
300.00236
300.0004
300.00006
300.00001
300
300
300
300
300
300
300
300
300
300
300
300
300
300
300
300
300
300
300
300
300
300
300
300
300
300
300
341.74938
326.04882
313.86201
306.25127
302.39987
300.79134
300.22612
300.05638
300.01233
300.00237
300.0004
300.00006
300.00001
300
300
300
300
300
300
300
300
300
300
300
300
300
300
300
300
300
300
300
300
300
300
300
300
300
300
300
341.74953
326.04908
313.86198
306.25084
302.39936
300.79102
300.226
300.05636
300.01233
300.00237
300.0004
300.00006
300.00001
300
300
300
300
300
300
300
300
300
300
300
300
300
300
300
300
300
300
300
300
300
300
300
300
300
300
300
341.7497
326.04938
313.86204
306.25052
302.39894
300.79076
300.2259
300.05634
300.01233
300.00238
300.0004
300.00006
300.00001
300
300
300
300
300
300
300
300
300
300
300
300
300
300
300
300
300
300
300
300
300
300
300
300
300
300
300
341.74989
326.04975
313.86219
306.25031
302.3986
300.79053
300.22582
300.05633
300.01234
300.00238
300.00041
300.00006
300.00001
300
300
300
300
300
300
300
300
300
300
300
300
300
300
300
300
300
300
300
300
300
300
300
300
300
300
300
341.75011
326.05017
313.86242
306.25019
302.39834
300.79035
300.22575
300.05632
300.01234
300.00238
300.00041
300.00006
300.00001
300
300
300
300
300
300
300
300
300
300
300
300
300
300
300
300
300
300
300
300
300
300
300
300
300
300
300
341.75035
326.05066
313.86274
306.25016
302.39815
300.79021
300.22569
300.05631
300.01234
300.00239
300.00041
300.00006
300.00001
300
300
300
300
300
300
300
300
300
300
300
300
300
300
300
300
300
300
300
300
300
300
300
300
300
300
300
341.75062
326.05123
313.86316
306.25022
302.39802
300.7901
300.22565
300.0563
300.01235
300.00239
300.00041
300.00006
300.00001
300
300
300
300
300
300
300
300
300
300
300
300
300
300
300
300
300
300
300
300
300
300
300
300
300
300
300
341.75092
326.05187
313.86367
306.25037
302.39795
300.79001
300.22561
300.05629
300.01235
300.00239
300.00041
300.00006
300.00001
300
300
300
300
300
300
300
300
300
300
300
300
300
300
300
300
300
300
300
300
300
300
300
300
300
300
300
341.75127
326.0526
313.86428
306.25061
302.39795
300.78996
300.22559
300.05629
300.01235
300.00239
300.00041
300.00006
300.00001
300
300
300
300
300
300
300
300
300
300
300
300
300
300
300
300
300
300
300
300
300
300
300
300
300
300
300
341.75165
326.05342
313.865
306.25094
302.398
300.78994
300.22557
300.05629
300.01235
300.00239
300.00041
300.00006
300.00001
300
300
300
300
300
300
300
300
300
300
300
300
300
300
300
300
300
300
300
300
300
300
300
300
300
300
300
341.75209
326.05436
313.86584
306.25136
302.39811
300.78993
300.22556
300.05629
300.01235
300.00239
300.00041
300.00006
300.00001
300
300
300
300
300
300
300
300
300
300
300
300
300
300
300
300
300
300
300
300
300
300
300
300
300
300
300
341.75259
326.05543
313.86682
306.25189
302.39827
300.78996
300.22556
300.05629
300.01235
300.0024
300.00041
300.00006
300.00001
300
300
300
300
300
300
300
300
300
300
300
300
300
300
300
300
300
300
300
300
300
300
300
300
300
300
300
341.75316
326.05664
313.86794
306.25252
302.3985
300.79001
300.22557
300.05629
300.01236
300.0024
300.00041
300.00006
300.00001
300
300
300
300
300
300
300
300
300
300
300
300
300
300
300
300
300
300
300
300
300
300
300
300
300
300
300
341.75383
326.05804
313.86924
306.25327
302.39879
300.79009
300.22558
300.05629
300.01236
300.0024
300.00041
300.00006
300.00001
300
300
300
300
300
300
300
300
300
300
300
300
300
300
300
300
300
300
300
300
300
300
300
300
300
300
300
341.75463
326.05966
313.87072
306.25415
302.39914
300.79019
300.22561
300.0563
300.01236
300.0024
300.00041
300.00006
300.00001
300
300
300
300
300
300
300
300
300
300
300
300
300
300
300
300
300
300
300
300
300
300
300
300
300
300
300
341.75565
326.06164
313.87252
306.25521
302.39958
300.79032
300.22564
300.0563
300.01236
300.0024
300.00041
300.00006
300.00001
300
300
300
300
300
300
300
300
300
300
300
300
300
300
300
300
300
300
300
300
300
300
300
300
300
300
300
341.7569
326.06368
313.87427
306.25623
302.4
300.79045
300.22567
300.05631
300.01236
300.0024
300.00041
300.00006
300.00001
300
300
300
300
300
300
300
300
300
300
300
300
300
300
300
300
300
300
300
300
300
300
300
300
300
300
300
341.75981
326.06874
313.87826
306.25849
302.40096
300.79076
300.22575
300.05633
300.01236
300.0024
300.00041
300.00006
300.00001
300
300
300
300
300
300
300
300
300
300
300
300
300
300
300
300
300
300
300
300
300
300
300
300
300
300
300
)
;

boundaryField
{
    wall
    {
        type            fixedValue;
        value           uniform 350;
    }
    sides
    {
        type            zeroGradient;
    }
    frontAndBack
    {
        type            empty;
    }
    inlet
    {
        type            fixedValue;
        value           uniform 300;
    }
    outlet
    {
        type            zeroGradient;
    }
}


// ************************************************************************* //
