/*--------------------------------*- C++ -*----------------------------------*\
  =========                 |
  \\      /  F ield         | OpenFOAM: The Open Source CFD Toolbox
   \\    /   O peration     | Website:  https://openfoam.org
    \\  /    A nd           | Version:  10
     \\/     M anipulation  |
\*---------------------------------------------------------------------------*/
FoamFile
{
    format      ascii;
    class       volVectorField;
    location    "0.11";
    object      U;
}
// * * * * * * * * * * * * * * * * * * * * * * * * * * * * * * * * * * * * * //

dimensions      [0 1 -1 0 0 0 0];

internalField   nonuniform List<vector> 
4000
(
(0 0.018635095 0.47773275)
(0 0.023505567 0.50885997)
(0 0.0081627598 0.50052538)
(0 0.0056105182 0.50033647)
(0 0.0042502322 0.50025749)
(0 0.003250445 0.50016898)
(0 0.0025516337 0.50011967)
(0 0.0020502622 0.50009009)
(0 0.0016724801 0.50006975)
(0 0.0013784369 0.50005532)
(0 0.001143752 0.50004491)
(0 0.0009520797 0.50003724)
(0 0.00079215901 0.50003149)
(0 0.00065600805 0.50002715)
(0 0.00053779225 0.50002386)
(0 0.00043312491 0.50002138)
(0 0.00033861269 0.50001953)
(0 0.00025154762 0.50001819)
(0 0.00016969105 0.5000173)
(0 9.1114828e-05 0.50001679)
(0 1.407977e-05 0.50001664)
(0 -6.3072745e-05 0.50001684)
(0 -0.00014201162 0.5000174)
(0 -0.00022450781 0.50001836)
(0 -0.00031254601 0.50001977)
(0 -0.00040845478 0.50002173)
(0 -0.00051507848 0.50002435)
(0 -0.00063601675 0.50002782)
(0 -0.00077597244 0.50003242)
(0 -0.00094128163 0.50003855)
(0 -0.001140765 0.50004682)
(0 -0.0013870938 0.5000582)
(0 -0.00169903 0.50007412)
(0 -0.0021069388 0.5000971)
(0 -0.0026667584 0.50013486)
(0 -0.0034606829 0.50020247)
(0 -0.0045535814 0.50027166)
(0 -0.0065781116 0.50043395)
(0 -0.017652441 0.50675309)
(0 -0.013586541 0.47975761)
(0 0.037426191 0.44797728)
(0 0.05094237 0.53232539)
(0 0.021955837 0.50804316)
(0 0.016122661 0.50357406)
(0 0.012402164 0.50242347)
(0 0.0095018151 0.50162301)
(0 0.0075066482 0.50115643)
(0 0.0060563538 0.50086556)
(0 0.0049517255 0.50066747)
(0 0.0040882054 0.50052833)
(0 0.0033968178 0.50042822)
(0 0.0028305938 0.5003546)
(0 0.0023571397 0.50029961)
(0 0.0019533523 0.50025812)
(0 0.0016022524 0.50022669)
(0 0.0012910263 0.50020296)
(0 0.0010097308 0.5001853)
(0 0.0007504098 0.50017259)
(0 0.00050647083 0.50016405)
(0 0.00027222572 0.5001592)
(0 4.2535737e-05 0.50015776)
(0 -0.00018749789 0.50015968)
(0 -0.00042280465 0.50016505)
(0 -0.00066861469 0.50017419)
(0 -0.00093078016 0.50018765)
(0 -0.0012161529 0.50020628)
(0 -0.001533081 0.5002313)
(0 -0.0018920966 0.50026451)
(0 -0.0023069086 0.50030856)
(0 -0.0027958873 0.50036731)
(0 -0.0033844419 0.50044673)
(0 -0.0041089869 0.50055628)
(0 -0.0050226495 0.50071107)
(0 -0.0062053495 0.5009367)
(0 -0.0078060101 0.50129479)
(0 -0.010100609 0.50191139)
(0 -0.0130838 0.50282689)
(0 -0.01740366 0.50608228)
(0 -0.038737393 0.52526694)
(0 -0.027884309 0.45023031)
(0 0.039878487 0.40984223)
(0 0.061405231 0.54931101)
(0 0.0319587 0.52188167)
(0 0.024332374 0.51008232)
(0 0.019169082 0.50658941)
(0 0.014952354 0.50452811)
(0 0.011982272 0.50327084)
(0 0.0097482512 0.50245728)
(0 0.0080140607 0.50189948)
(0 0.0066440057 0.50150668)
(0 0.0055378237 0.50122307)
(0 0.004625946 0.50101397)
(0 0.0038596005 0.50085752)
(0 0.0032033585 0.50073933)
(0 0.0026308537 0.50064971)
(0 0.0021220013 0.500582)
(0 0.0016610932 0.50053158)
(0 0.0012354784 0.50049524)
(0 0.00083461901 0.50047083)
(0 0.0004493842 0.50045696)
(0 7.1501304e-05 0.50045286)
(0 -0.00030692374 0.50045832)
(0 -0.00069383364 0.50047366)
(0 -0.0010976421 0.50049979)
(0 -0.0015277311 0.50053824)
(0 -0.0019950336 0.5005914)
(0 -0.002512789 0.50066277)
(0 -0.0030975741 0.50075743)
(0 -0.0037707663 0.50088279)
(0 -0.004560657 0.50104976)
(0 -0.0055056583 0.50127489)
(0 -0.0066598138 0.50158431)
(0 -0.0081004029 0.50202018)
(0 -0.0099316152 0.50265092)
(0 -0.012326297 0.50361621)
(0 -0.015672657 0.5052016)
(0 -0.019832365 0.50785808)
(0 -0.02514525 0.51641366)
(0 -0.047379663 0.53913161)
(0 -0.030837254 0.41491737)
(0 0.034779489 0.36177254)
(0 0.063805988 0.55457596)
(0 0.039341138 0.53747024)
(0 0.030048085 0.51849475)
(0 0.024075959 0.51197882)
(0 0.019242688 0.50849945)
(0 0.015699844 0.50626302)
(0 0.012919042 0.50475311)
(0 0.01071034 0.50370111)
(0 0.0089369658 0.50295193)
(0 0.0074858359 0.50240609)
(0 0.0062772373 0.5020011)
(0 0.0052533167 0.50169667)
(0 0.0043707701 0.50146589)
(0 0.0035967353 0.5012904)
(0 0.0029057837 0.50115752)
(0 0.0022777646 0.50105839)
(0 0.0016962735 0.50098687)
(0 0.0011475258 0.50093877)
(0 0.00061949678 0.5009114)
(0 0.00010124098 0.5009033)
(0 -0.00041770817 0.50091404)
(0 -0.00094788012 0.50094427)
(0 -0.0015003941 0.5009957)
(0 -0.0020875812 0.50107132)
(0 -0.0027237018 0.50117573)
(0 -0.003425853 0.50131563)
(0 -0.0042151743 0.50150071)
(0 -0.0051185123 0.501745)
(0 -0.0061707193 0.50206896)
(0 -0.0074177438 0.5025031)
(0 -0.0089219038 0.50309443)
(0 -0.010770671 0.5039177)
(0 -0.013070758 0.50508934)
(0 -0.015957857 0.50680889)
(0 -0.019834809 0.509472)
(0 -0.024670559 0.51428117)
(0 -0.031049048 0.52824825)
(0 -0.050264704 0.54409104)
(0 -0.028416721 0.37245375)
(0 0.027410798 0.31491234)
(0 0.062271908 0.55027104)
(0 0.044558664 0.55146662)
(0 0.033931873 0.52748942)
(0 0.0274135 0.51772451)
(0 0.022404453 0.51291966)
(0 0.018586947 0.50972913)
(0 0.015479995 0.50748848)
(0 0.012960609 0.50589413)
(0 0.01089985 0.5047396)
(0 0.0091862744 0.50388748)
(0 0.0077409691 0.50324931)
(0 0.0065038838 0.50276616)
(0 0.0054285321 0.50239783)
(0 0.0044788053 0.5021165)
(0 0.0036261788 0.50190274)
(0 0.0028476497 0.50174284)
(0 0.0021242208 0.50162723)
(0 0.0014397401 0.50154936)
(0 0.00077998848 0.50150499)
(0 0.0001319424 0.50149182)
(0 -0.00051688829 0.50150919)
(0 -0.001179066 0.50155809)
(0 -0.0018678014 0.50164123)
(0 -0.0025976406 0.5017633)
(0 -0.0033852344 0.50193145)
(0 -0.0042502859 0.5021561)
(0 -0.005216761 0.50245214)
(0 -0.0063144976 0.50284085)
(0 -0.0075813655 0.5033529)
(0 -0.0090657327 0.50403294)
(0 -0.010830145 0.50494754)
(0 -0.012961554 0.50619957)
(0 -0.015563962 0.507944)
(0 -0.018725298 0.51040736)
(0 -0.022807291 0.51406167)
(0 -0.028091557 0.52115263)
(0 -0.035615197 0.53932821)
(0 -0.050403016 0.54160158)
(0 -0.024060488 0.33067855)
(0 0.019823762 0.27529817)
(0 0.057937343 0.53980411)
(0 0.047289388 0.56256659)
(0 0.036409493 0.53660342)
(0 0.029569455 0.52350913)
(0 0.024609671 0.51740271)
(0 0.020709034 0.51335919)
(0 0.017446929 0.51043791)
(0 0.014754784 0.50831509)
(0 0.012511516 0.50675043)
(0 0.010615535 0.50557935)
(0 0.0089947721 0.50469273)
(0 0.0075915308 0.50401562)
(0 0.0063598744 0.5034958)
(0 0.0052632691 0.50309655)
(0 0.0042721725 0.50279183)
(0 0.0033622835 0.5025631)
(0 0.0025131939 0.50239728)
(0 0.0017073084 0.50228534)
(0 0.00092896755 0.50222146)
(0 0.00016372158 0.50220242)
(0 -0.00060233562 0.50222733)
(0 -0.0013831868 0.50229755)
(0 -0.0021934656 0.50241682)
(0 -0.0030491509 0.50259159)
(0 -0.0039683175 0.50283167)
(0 -0.004972034 0.50315121)
(0 -0.0060854658 0.50357023)
(0 -0.0073392693 0.50411694)
(0 -0.0087714875 0.50483129)
(0 -0.010429513 0.50577033)
(0 -0.012371773 0.50701639)
(0 -0.014678604 0.50869269)
(0 -0.017452041 0.510981)
(0 -0.020746238 0.51412397)
(0 -0.024857465 0.51873892)
(0 -0.030393456 0.52823569)
(0 -0.038506198 0.54872915)
(0 -0.048415934 0.53407296)
(0 -0.019038083 0.29411717)
(0 0.013068645 0.24269103)
(0 0.051736817 0.525296)
(0 0.047614675 0.57025798)
(0 0.037667508 0.54551995)
(0 0.030764887 0.52928938)
(0 0.025989006 0.52180022)
(0 0.022155185 0.51699198)
(0 0.018874045 0.51346353)
(0 0.016118244 0.51085147)
(0 0.013779773 0.50889575)
(0 0.01177207 0.50741304)
(0 0.010032458 0.50627831)
(0 0.0085082203 0.5054038)
(0 0.0071565173 0.50472736)
(0 0.0059424601 0.50420462)
(0 0.0048371434 0.50380364)
(0 0.0038162933 0.50350146)
(0 0.0028591528 0.50328168)
(0 0.00194755 0.50313297)
(0 0.001065116 0.50304793)
(0 0.00019662115 0.50302248)
(0 -0.00067264777 0.50305546)
(0 -0.0015574815 0.50314863)
(0 -0.0024732786 0.50330671)
(0 -0.003436703 0.50353785)
(0 -0.0044663635 0.50385437)
(0 -0.0055836091 0.50427388)
(0 -0.0068134723 0.50482104)
(0 -0.0081857852 0.50553014)
(0 -0.0097367535 0.50644901)
(0 -0.011510721 0.50764483)
(0 -0.013560095 0.50921253)
(0 -0.015954507 0.51129013)
(0 -0.018789553 0.51407722)
(0 -0.02209691 0.51784294)
(0 -0.026116841 0.52347699)
(0 -0.031698427 0.53537701)
(0 -0.039600263 0.55591082)
(0 -0.044781837 0.52297125)
(0 -0.01405935 0.26289157)
(0 0.0077551753 0.21571722)
(0 0.044754663 0.50815509)
(0 0.04613879 0.57440479)
(0 0.037920719 0.55374169)
(0 0.031180227 0.53495833)
(0 0.026663035 0.5260273)
(0 0.023013735 0.52052969)
(0 0.019821873 0.51647406)
(0 0.017088701 0.51342266)
(0 0.014726739 0.51110729)
(0 0.012667483 0.50933221)
(0 0.010858774 0.50796012)
(0 0.0092545977 0.50689341)
(0 0.0078168808 0.50606216)
(0 0.0065137753 0.50541575)
(0 0.0053182227 0.50491734)
(0 0.0042070125 0.50454013)
(0 0.0031599153 0.50426488)
(0 0.0021589308 0.50407813)
(0 0.0011876367 0.5039711)
(0 0.00023061839 0.5039389)
(0 -0.00072707744 0.50398016)
(0 -0.0017004803 0.50409695)
(0 -0.002705152 0.50429493)
(0 -0.003757777 0.50458377)
(0 -0.0048767389 0.504978)
(0 -0.0060827838 0.50549827)
(0 -0.0073997865 0.50617321)
(0 -0.0088555772 0.50704219)
(0 -0.010483107 0.50815942)
(0 -0.012322126 0.50960019)
(0 -0.014417955 0.51146963)
(0 -0.016826928 0.5139167)
(0 -0.019631062 0.51715046)
(0 -0.022846747 0.52148403)
(0 -0.026694959 0.52818998)
(0 -0.032160529 0.542216)
(0 -0.039205791 0.56053395)
(0 -0.040196719 0.50931041)
(0 -0.0096746143 0.23618112)
(0 0.0039894979 0.19377645)
(0 0.037819106 0.48969474)
(0 0.043546774 0.57528726)
(0 0.037420551 0.56083108)
(0 0.031020614 0.54035388)
(0 0.026784968 0.53000576)
(0 0.023388123 0.52388944)
(0 0.020359434 0.51939314)
(0 0.017712763 0.51596211)
(0 0.015383803 0.51332755)
(0 0.013322144 0.51128759)
(0 0.011486306 0.50969635)
(0 0.0098379995 0.50844918)
(0 0.0083448682 0.5074704)
(0 0.0069789629 0.50670462)
(0 0.0057158948 0.50611112)
(0 0.0045342674 0.50566005)
(0 0.0034150491 0.50532977)
(0 0.0023410148 0.50510508)
(0 0.0012962376 0.50497598)
(0 0.00026563067 0.50493691)
(0 -0.00076550417 0.50498631)
(0 -0.0018119384 0.50512655)
(0 -0.0028888808 0.50536404)
(0 -0.0040124817 0.50570978)
(0 -0.0052002902 0.50618016)
(0 -0.0064717711 0.50679833)
(0 -0.0078488889 0.50759614)
(0 -0.0093566666 0.50861699)
(0 -0.011023879 0.50992001)
(0 -0.012884583 0.51158659)
(0 -0.014976513 0.51372946)
(0 -0.017342458 0.51650452)
(0 -0.020046992 0.52012327)
(0 -0.023098438 0.52496513)
(0 -0.026735768 0.53274234)
(0 -0.031966343 0.54837902)
(0 -0.037756092 0.5626051)
(0 -0.035263791 0.49411904)
(0 -0.0061648918 0.21366241)
(0 0.0015350693 0.17640136)
(0 0.031409444 0.47104567)
(0 0.040366659 0.57346677)
(0 0.036382709 0.56658136)
(0 0.0304732 0.54536362)
(0 0.026514685 0.53369471)
(0 0.02339057 0.5270151)
(0 0.020564274 0.52216228)
(0 0.018045273 0.51841714)
(0 0.015789674 0.51550977)
(0 0.013762943 0.51323789)
(0 0.011933494 0.51145084)
(0 0.010270886 0.51003961)
(0 0.0087487233 0.50892465)
(0 0.0073433369 0.50804725)
(0 0.0060334793 0.50736386)
(0 0.0048000464 0.5068423)
(0 0.0036256714 0.5064591)
(0 0.0024943516 0.50619769)
(0 0.0013910845 0.50604711)
(0 0.00030152264 0.50600124)
(0 -0.00078837192 0.50605837)
(0 -0.0018927062 0.5062211)
(0 -0.003025921 0.50649649)
(0 -0.0042032004 0.50689656)
(0 -0.0054408061 0.50743919)
(0 -0.0067564464 0.50814947)
(0 -0.008169684 0.50906167)
(0 -0.009702276 0.51022215)
(0 -0.01137843 0.51169356)
(0 -0.013226082 0.51356132)
(0 -0.015275545 0.51594299)
(0 -0.017557629 0.51899733)
(0 -0.020119781 0.52293584)
(0 -0.022969571 0.52823309)
(0 -0.026382573 0.53703389)
(0 -0.031276972 0.55364018)
(0 -0.035622144 0.56241389)
(0 -0.030382289 0.47833999)
(0 -0.0035529817 0.19511537)
(0 6.017676e-05 0.16284483)
(0 0.025769541 0.45297549)
(0 0.036966415 0.56956072)
(0 0.034977901 0.57097129)
(0 0.029677635 0.54993789)
(0 0.025984661 0.53709762)
(0 0.02312301 0.52988896)
(0 0.020512515 0.5247498)
(0 0.018143268 0.52075383)
(0 0.015986404 0.51762078)
(0 0.014020487 0.51515189)
(0 0.012222485 0.51319497)
(0 0.010569161 0.51163878)
(0 0.009039742 0.51040161)
(0 0.00761482 0.50942266)
(0 0.0062764386 0.50865654)
(0 0.0050080165 0.5080695)
(0 0.0037941258 0.50763676)
(0 0.0026202827 0.50734073)
(0 0.0014727126 0.50716975)
(0 0.00033811381 0.50711728)
(0 -0.00079658495 0.50718151)
(0 -0.0019445183 0.50736519)
(0 -0.0031190512 0.50767588)
(0 -0.0043340948 0.50812637)
(0 -0.0056043245 0.50873563)
(0 -0.0069454142 0.50953011)
(0 -0.0083742832 0.51054577)
(0 -0.0099092826 0.51183093)
(0 -0.01157012 0.5134504)
(0 -0.013378821 0.51549193)
(0 -0.01535888 0.51807538)
(0 -0.017531158 0.52135926)
(0 -0.019928617 0.52555844)
(0 -0.02256482 0.53127295)
(0 -0.025750831 0.54101162)
(0 -0.030222771 0.55791027)
(0 -0.033097028 0.56035832)
(0 -0.0258035 0.46266379)
(0 -0.0017245477 0.18008038)
(0 -0.00073484372 0.15228401)
(0 0.020995212 0.43591712)
(0 0.033596065 0.56411993)
(0 0.033348862 0.57407512)
(0 0.028734071 0.55405604)
(0 0.025293862 0.54023817)
(0 0.022668597 0.53252115)
(0 0.0202707 0.52714747)
(0 0.018059384 0.52295584)
(0 0.016014745 0.51964071)
(0 0.014125864 0.51700852)
(0 0.012376778 0.51490779)
(0 0.010750412 0.51322662)
(0 0.0092309582 0.51188237)
(0 0.0078029593 0.5108132)
(0 0.0064516515 0.50997273)
(0 0.0051630005 0.50932625)
(0 0.0039236255 0.50884818)
(0 0.0027207201 0.50852024)
(0 0.001541925 0.50833029)
(0 0.00037518645 0.50827154)
(0 -0.00079139024 0.50834205)
(0 -0.0019697564 0.50854473)
(0 -0.0031719987 0.50888745)
(0 -0.0044105667 0.50938354)
(0 -0.0056983909 0.51005268)
(0 -0.007049004 0.51092219)
(0 -0.0084766533 0.51202903)
(0 -0.0099963821 0.51342261)
(0 -0.011623753 0.51516888)
(0 -0.013375474 0.51735658)
(0 -0.015269011 0.52010603)
(0 -0.017317116 0.52357357)
(0 -0.019541895 0.52798496)
(0 -0.021968908 0.53409)
(0 -0.024930831 0.5446443)
(0 -0.028918572 0.56118177)
(0 -0.030411906 0.55683629)
(0 -0.021680446 0.4475304)
(0 -0.00052138213 0.16797083)
(0 -0.0010869661 0.1440222)
(0 0.017077069 0.42008597)
(0 0.030410856 0.55760567)
(0 0.031613133 0.57601556)
(0 0.027716052 0.55771054)
(0 0.024515196 0.5431416)
(0 0.022093262 0.53493387)
(0 0.01989403 0.52936083)
(0 0.017839001 0.52501882)
(0 0.015911369 0.52155984)
(0 0.014108267 0.51879494)
(0 0.012419304 0.51657493)
(0 0.010832426 0.51478821)
(0 0.0093360005 0.51335205)
(0 0.0079180581 0.5122044)
(0 0.0065667623 0.51129848)
(0 0.0052705027 0.51059915)
(0 0.0040179244 0.51008041)
(0 0.0027979418 0.50972363)
(0 0.0015996968 0.50951638)
(0 0.00041249346 0.50945169)
(0 -0.00077426594 0.50952757)
(0 -0.0019712279 0.50974703)
(0 -0.0031890916 0.51011811)
(0 -0.0044387608 0.51065446)
(0 -0.0057313779 0.51137614)
(0 -0.0070783607 0.51231093)
(0 -0.008491407 0.51349624)
(0 -0.009982507 0.5149819)
(0 -0.011563571 0.5168342)
(0 -0.013246754 0.51914199)
(0 -0.015044404 0.52202467)
(0 -0.016962863 0.52563576)
(0 -0.019017359 0.5302217)
(0 -0.021250071 0.53669502)
(0 -0.023995146 0.54791175)
(0 -0.027465648 0.56350047)
(0 -0.027736858 0.55221222)
(0 -0.018086789 0.43320635)
(0 0.00021470983 0.15824145)
(0 -0.0011696834 0.13750871)
(0 0.013937484 0.40556382)
(0 0.027490486 0.55039435)
(0 0.02985834 0.57694171)
(0 0.026675444 0.56090814)
(0 0.023700994 0.54583127)
(0 0.021448317 0.53715355)
(0 0.019427225 0.53140261)
(0 0.017520038 0.52694566)
(0 0.015708011 0.5233752)
(0 0.013993841 0.5205044)
(0 0.012371275 0.51818718)
(0 0.010832163 0.51631291)
(0 0.0093682398 0.51479933)
(0 0.00797049 0.51358464)
(0 0.0066296476 0.51262216)
(0 0.0053363102 0.5118767)
(0 0.0040810349 0.51132214)
(0 0.0028544139 0.51093972)
(0 0.0016470932 0.51071692)
(0 0.00044976654 0.51064667)
(0 -0.00074682215 0.51072697)
(0 -0.0019519694 0.51096084)
(0 -0.0031749571 0.51135643)
(0 -0.0044251418 0.5119275)
(0 -0.0057119241 0.51269424)
(0 -0.0070447259 0.51368455)
(0 -0.008432917 0.51493588)
(0 -0.0098857826 0.51649798)
(0 -0.011412133 0.51843693)
(0 -0.013020403 0.52084106)
(0 -0.014718816 0.52382799)
(0 -0.016508961 0.52754891)
(0 -0.018402996 0.53228152)
(0 -0.020462134 0.53910116)
(0 -0.023000323 0.55080753)
(0 -0.025945962 0.56495093)
(0 -0.025182588 0.54680663)
(0 -0.015033749 0.41984172)
(0 0.00062162061 0.1504304)
(0 -0.0011013048 0.13230458)
(0 0.011465761 0.3923436)
(0 0.024862445 0.54278189)
(0 0.028142854 0.57700964)
(0 0.025645079 0.56366889)
(0 0.022885932 0.54832939)
(0 0.020771682 0.53920797)
(0 0.018905234 0.53328973)
(0 0.017133288 0.5287439)
(0 0.015431343 0.52508847)
(0 0.013805246 0.52213453)
(0 0.012251598 0.51973936)
(0 0.010765144 0.51779366)
(0 0.009340218 0.51621592)
(0 0.0079702027 0.51494493)
(0 0.0066480091 0.51393436)
(0 0.0053661754 0.51314928)
(0 0.0041169986 0.51256367)
(0 0.002892643 0.51215883)
(0 0.0016852004 0.51192222)
(0 0.0004867247 0.51184679)
(0 -0.00071071509 0.51193053)
(0 -0.0019150816 0.51217645)
(0 -0.0031342718 0.5125927)
(0 -0.0043761566 0.513193)
(0 -0.0056485045 0.51399751)
(0 -0.0069589214 0.51503397)
(0 -0.0083147283 0.5163396)
(0 -0.0097229036 0.51796374)
(0 -0.011189728 0.51997187)
(0 -0.012720731 0.52245142)
(0 -0.014321001 0.52551775)
(0 -0.015988968 0.52932145)
(0 -0.017736905 0.53418164)
(0 -0.019644981 0.54132405)
(0 -0.021987258 0.55333948)
(0 -0.024420024 0.5656397)
(0 -0.022811221 0.54088819)
(0 -0.012491373 0.40750066)
(0 0.00080829967 0.14414453)
(0 -0.00095827011 0.12806499)
(0 0.0095431537 0.38036106)
(0 0.02252295 0.53499112)
(0 0.026501415 0.57636636)
(0 0.024643106 0.56602052)
(0 0.022090537 0.55065606)
(0 0.020089389 0.54112407)
(0 0.018353981 0.53504125)
(0 0.016702786 0.53042407)
(0 0.015103033 0.52670453)
(0 0.013561503 0.52368616)
(0 0.012076599 0.52122932)
(0 0.010645117 0.51922617)
(0 0.0092632926 0.51759606)
(0 0.0079263836 0.51627849)
(0 0.0066290824 0.51522768)
(0 0.0053655802 0.51440908)
(0 0.0041297092 0.51379694)
(0 0.0029150611 0.51337272)
(0 0.0017150723 0.51312399)
(0 0.00052308207 0.51304373)
(0 -0.00066757746 0.51312995)
(0 -0.0018635974 0.51338562)
(0 -0.0030715672 0.51381882)
(0 -0.0042979785 0.51444316)
(0 -0.0055491186 0.51527857)
(0 -0.0068309919 0.51635251)
(0 -0.0081491742 0.51770175)
(0 -0.0095087475 0.51937504)
(0 -0.01091401 0.52143709)
(0 -0.012368321 0.52397419)
(0 -0.013874534 0.52709942)
(0 -0.015429369 0.53096544)
(0 -0.017047592 0.53594136)
(0 -0.018826044 0.54338019)
(0 -0.020983334 0.55552527)
(0 -0.022929268 0.56567897)
(0 -0.020650271 0.53467138)
(0 -0.010406905 0.39618529)
(0 0.00085500009 0.13905171)
(0 -0.0007880687 0.12452964)
(0 0.0080570904 0.36952133)
(0 0.020451417 0.52718413)
(0 0.024951454 0.57514183)
(0 0.023677704 0.56799326)
(0 0.021325235 0.55282763)
(0 0.019417928 0.54292568)
(0 0.017791687 0.53667627)
(0 0.016246525 0.53199812)
(0 0.014740049 0.52823014)
(0 0.013278061 0.52516227)
(0 0.011859953 0.52265714)
(0 0.010483895 0.52060835)
(0 0.0091474414 0.51893606)
(0 0.0078472572 0.51758047)
(0 0.0065794479 0.51649643)
(0 0.0053395747 0.51564985)
(0 0.0041227883 0.51501533)
(0 0.0029239432 0.51457456)
(0 0.001737692 0.51431526)
(0 0.00055855522 0.5142305)
(0 -0.00061896547 0.51431829)
(0 -0.0018003836 0.51458155)
(0 -0.0029910896 0.51502825)
(0 -0.0041963285 0.5156718)
(0 -0.0054210799 0.51653185)
(0 -0.0066699742 0.51763546)
(0 -0.0079471437 0.51901885)
(0 -0.0092561634 0.52073009)
(0 -0.01059984 0.5228331)
(0 -0.01197999 0.52541297)
(0 -0.01339799 0.52858079)
(0 -0.014850125 0.53249461)
(0 -0.016355212 0.53757975)
(0 -0.018022828 0.54528498)
(0 -0.020005446 0.55738767)
(0 -0.021499678 0.56517589)
(0 -0.01870433 0.52832136)
(0 -0.0087174198 0.38585798)
(0 0.00081823783 0.13488085)
(0 -0.00061867753 0.12150899)
(0 0.0069084977 0.35971777)
(0 0.018619532 0.51947594)
(0 0.02349837 0.57344738)
(0 0.022750696 0.56961723)
(0 0.020593739 0.55485641)
(0 0.018766698 0.54463229)
(0 0.017230486 0.53821235)
(0 0.015777461 0.533478)
(0 0.014355244 0.5296728)
(0 0.012967097 0.52656704)
(0 0.011612794 0.52402436)
(0 0.01029136 0.52193965)
(0 0.0090011978 0.52023376)
(0 0.0077399892 0.51884754)
(0 0.0065049274 0.51773641)
(0 0.0052926808 0.51686676)
(0 0.0040995075 0.51621357)
(0 0.0029213535 0.51575879)
(0 0.0017539474 0.51549034)
(0 0.00059286959 0.51540135)
(0 -0.00056632147 0.51548986)
(0 -0.001728075 0.51575874)
(0 -0.0028967073 0.51621579)
(0 -0.0040763628 0.51687422)
(0 -0.0052708935 0.51775332)
(0 -0.0064837787 0.51887971)
(0 -0.0077179882 0.52028907)
(0 -0.0089759379 0.52202879)
(0 -0.010259363 0.52416202)
(0 -0.011569043 0.52677273)
(0 -0.012905497 0.52997065)
(0 -0.014265647 0.53392275)
(0 -0.015673182 0.53911393)
(0 -0.017245412 0.54705168)
(0 -0.019062669 0.55895154)
(0 -0.020145158 0.56422757)
(0 -0.016963682 0.52196219)
(0 -0.0073581169 0.376459)
(0 0.00073648435 0.13141795)
(0 -0.00046499747 0.11886851)
(0 0.0060149217 0.35084334)
(0 0.016996875 0.51194613)
(0 0.022139795 0.57137686)
(0 0.021860057 0.57092135)
(0 0.01989546 0.55675125)
(0 0.018140026 0.54625901)
(0 0.016677905 0.53966478)
(0 0.015304549 0.53487491)
(0 0.01395805 0.53104004)
(0 0.012637952 0.52790515)
(0 0.011343965 0.52533337)
(0 0.01007558 0.52322059)
(0 0.0088316884 0.52148821)
(0 0.0076106764 0.52007757)
(0 0.0064105493 0.5189446)
(0 0.0052288503 0.51805614)
(0 0.0040627492 0.51738752)
(0 0.0029091181 0.51692098)
(0 0.0017646186 0.5166446)
(0 0.00062576464 0.51655163)
(0 -0.0005109514 0.5166401)
(0 -0.001649036 0.51691281)
(0 -0.002791861 0.51737743)
(0 -0.0039426192 0.51804688)
(0 -0.0051042092 0.51894016)
(0 -0.0062791662 0.52008342)
(0 -0.0074695463 0.52151183)
(0 -0.0086769032 0.52327216)
(0 -0.0099022422 0.52542689)
(0 -0.011145707 0.52805907)
(0 -0.012407433 0.53127785)
(0 -0.013685835 0.53526268)
(0 -0.015009663 0.54055844)
(0 -0.016498467 0.54869126)
(0 -0.018158405 0.56024205)
(0 -0.018870646 0.56291925)
(0 -0.01541062 0.515685)
(0 -0.0062677436 0.36791825)
(0 0.00063499943 0.12849779)
(0 -0.00033346788 0.11651463)
(0 0.0053107478 0.34279684)
(0 0.015554227 0.50464817)
(0 0.020868954 0.56900876)
(0 0.021001722 0.57193273)
(0 0.019227222 0.55851822)
(0 0.017538744 0.54781691)
(0 0.016138076 0.54104631)
(0 0.014833659 0.5361988)
(0 0.013555151 0.53233889)
(0 0.012297603 0.52918133)
(0 0.01106033 0.52658695)
(0 0.0098430011 0.52445234)
(0 0.0086447426 0.52269923)
(0 0.0074644001 0.52126931)
(0 0.0063005669 0.52011892)
(0 0.0051514639 0.51921528)
(0 0.004014999 0.51853403)
(0 0.0028888169 0.51805767)
(0 0.0017703755 0.51777444)
(0 0.00065699679 0.51767767)
(0 -0.00045401447 0.51776542)
(0 -0.001565344 0.5180404)
(0 -0.0026795477 0.51851013)
(0 -0.0037990088 0.5191873)
(0 -0.0049258331 0.52009057)
(0 -0.0060617952 0.5212457)
(0 -0.0072082496 0.52268739)
(0 -0.0083661297 0.52446191)
(0 -0.0095359779 0.52663121)
(0 -0.010717602 0.52927763)
(0 -0.01191111 0.53251077)
(0 -0.013117021 0.53652573)
(0 -0.014368848 0.54192504)
(0 -0.015782868 0.55021251)
(0 -0.017292198 0.56128349)
(0 -0.017674948 0.56132403)
(0 -0.014023939 0.50955511)
(0 -0.0053917184 0.36016272)
(0 0.00052965334 0.12599503)
(0 -0.00022540002 0.11438361)
(0 0.0047455938 0.33548621)
(0 0.014265213 0.49761657)
(0 0.019677084 0.5664085)
(0 0.020170845 0.5726765)
(0 0.018584499 0.56016126)
(0 0.016961422 0.54931356)
(0 0.015612722 0.54236719)
(0 0.014368335 0.53745825)
(0 0.013151084 0.53357567)
(0 0.011951111 0.53040004)
(0 0.010767092 0.527788)
(0 0.0095986724 0.52563642)
(0 0.0084450386 0.52386719)
(0 0.007305317 0.52242221)
(0 0.0061785124 0.52125807)
(0 0.0050633608 0.52034229)
(0 0.0039583595 0.51965078)
(0 0.0028617901 0.51916624)
(0 0.0017717806 0.51887706)
(0 0.00068634288 0.51877666)
(0 -0.00039652103 0.51886308)
(0 -0.0014787924 0.51913898)
(0 -0.002562332 0.51961171)
(0 -0.003648843 0.52029376)
(0 -0.0047397805 0.52120349)
(0 -0.0058363153 0.52236632)
(0 -0.0069392737 0.52381655)
(0 -0.0080491577 0.5256001)
(0 -0.0091662433 0.52777855)
(0 -0.010290219 0.53043377)
(0 -0.011421414 0.53367694)
(0 -0.012562837 0.53772152)
(0 -0.013752079 0.54322272)
(0 -0.015097029 0.55162213)
(0 -0.016461243 0.56209853)
(0 -0.016553142 0.55950364)
(0 -0.012781831 0.50361804)
(0 -0.0046834136 0.35312115)
(0 0.00042980305 0.12381623)
(0 -0.00013926341 0.11243273)
(0 0.0042818697 0.32882994)
(0 0.013106869 0.49087255)
(0 0.018554979 0.5636308)
(0 0.019362584 0.57317578)
(0 0.017962286 0.56168273)
(0 0.016405319 0.55075359)
(0 0.015101938 0.5436353)
(0 0.013910441 0.53866041)
(0 0.012748753 0.53475583)
(0 0.011602027 0.53156531)
(0 0.010468104 0.52893931)
(0 0.0093464706 0.52677452)
(0 0.0082362663 0.52499284)
(0 0.0071367722 0.52353618)
(0 0.0060472714 0.5223613)
(0 0.0049668867 0.5214359)
(0 0.003894581 0.52073611)
(0 0.002829156 0.52024478)
(0 0.0017692976 0.51995043)
(0 0.00071360154 0.51984651)
(0 -0.0003393386 0.51993109)
(0 -0.0013909057 0.52020674)
(0 -0.0024423745 0.52068068)
(0 -0.003494882 0.52136522)
(0 -0.004549354 0.52227845)
(0 -0.0056064861 0.52344554)
(0 -0.0066667122 0.52490048)
(0 -0.0077302431 0.52668895)
(0 -0.0087972229 0.52887231)
(0 -0.0098673678 0.53153232)
(0 -0.010941393 0.53478286)
(0 -0.012024962 0.53885781)
(0 -0.013158804 0.54445792)
(0 -0.014437942 0.55292503)
(0 -0.01566153 0.5627078)
(0 -0.015498358 0.55750979)
(0 -0.011663618 0.49790461)
(0 -0.0041043136 0.34672685)
(0 0.00034043475 0.12189302)
(0 -7.2173105e-05 0.11063365)
(0 0.00389218 0.32275727)
(0 0.012059618 0.48442817)
(0 0.017493868 0.56072177)
(0 0.018572521 0.57345197)
(0 0.017355634 0.56308399)
(0 0.015867051 0.55213926)
(0 0.0146048 0.5448564)
(0 0.013460675 0.53981102)
(0 0.01234988 0.53588396)
(0 0.011252751 0.53268064)
(0 0.010166154 0.53004341)
(0 0.0090893201 0.52786831)
(0 0.0080212917 0.52607705)
(0 0.0069614197 0.52461145)
(0 0.00590917 0.52342828)
(0 0.0048639537 0.52249535)
(0 0.0038251003 0.52178892)
(0 0.0027918341 0.52129196)
(0 0.0017633034 0.52099307)
(0 0.00073859353 0.52088575)
(0 -0.00028320271 0.52096804)
(0 -0.0013029637 0.52124245)
(0 -0.0023214727 0.52171609)
(0 -0.0033393981 0.52240111)
(0 -0.0043572358 0.5233154)
(0 -0.0053753075 0.52448391)
(0 -0.0063937568 0.52594046)
(0 -0.0074126004 0.52773059)
(0 -0.0084319329 0.52991562)
(0 -0.0094515884 0.53257749)
(0 -0.010472767 0.53583392)
(0 -0.011503768 0.53994057)
(0 -0.012587336 0.54563482)
(0 -0.01380196 0.55412459)
(0 -0.014888658 0.56312993)
(0 -0.014503032 0.55538561)
(0 -0.01065067 0.49243489)
(0 -0.0036234974 0.3409192)
(0 0.00026367956 0.12017621)
(0 -2.0813677e-05 0.10896748)
(0 0.0035569214 0.3172076)
(0 0.011106965 0.47828938)
(0 0.016485846 0.5577206)
(0 0.017796839 0.573525)
(0 0.016759972 0.56436585)
(0 0.015343047 0.55347101)
(0 0.014119796 0.54603441)
(0 0.013018979 0.54091456)
(0 0.011955352 0.5369638)
(0 0.010904839 0.53374899)
(0 0.0098632114 0.53110257)
(0 0.0088293951 0.52891939)
(0 0.0078023147 0.52712083)
(0 0.0067813428 0.52564848)
(0 0.0057660636 0.52445901)
(0 0.0047561046 0.52352026)
(0 0.0037510851 0.52280855)
(0 0.0027505732 0.52230693)
(0 0.0017541003 0.52200404)
(0 0.0007611616 0.52189339)
(0 -0.00022873045 0.52197301)
(0 -0.0012160297 0.52224536)
(0 -0.0022011079 0.52271744)
(0 -0.0031842444 0.52340126)
(0 -0.0041655845 0.52431459)
(0 -0.005145153 0.52548221)
(0 -0.0061228737 0.52693785)
(0 -0.0070986312 0.52872704)
(0 -0.0080725113 0.5309112)
(0 -0.0090445113 0.53357278)
(0 -0.010016365 0.53683443)
(0 -0.010998827 0.54097414)
(0 -0.012035437 0.54675574)
(0 -0.01318535 0.55522304)
(0 -0.014138397 0.56338167)
(0 -0.013559751 0.55316712)
(0 -0.0097267934 0.48722123)
(0 -0.0032167447 0.33564424)
(0 0.00019986282 0.11863099)
(0 1.8020966e-05 0.10742143)
(0 0.0032622311 0.31212952)
(0 0.010235074 0.47245809)
(0 0.015524015 0.55466093)
(0 0.017032364 0.57341354)
(0 0.016171269 0.5655289)
(0 0.014829846 0.55474791)
(0 0.013645148 0.54717166)
(0 0.012584838 0.54197436)
(0 0.011565516 0.53799827)
(0 0.010559253 0.53477275)
(0 0.0095606502 0.5321187)
(0 0.0085682988 0.5299292)
(0 0.007581015 0.52812516)
(0 0.0065981691 0.52664783)
(0 0.0056194251 0.5254537)
(0 0.0046445779 0.52451056)
(0 0.0036734793 0.52379471)
(0 0.0027059802 0.52328923)
(0 0.0017419305 0.52298278)
(0 0.00078117 0.52286888)
(0 -0.00017643513 0.52294552)
(0 -0.0011309809 0.5232151)
(0 -0.0020824927 0.52368457)
(0 -0.0030309244 0.5243658)
(0 -0.003976131 0.52527648)
(0 -0.0049178947 0.5264413)
(0 -0.0058559656 0.52789398)
(0 -0.0067901284 0.52968013)
(0 -0.0077204684 0.53186138)
(0 -0.0086471572 0.53452107)
(0 -0.0095724687 0.5377877)
(0 -0.010509307 0.54196145)
(0 -0.011500751 0.54782148)
(0 -0.012584691 0.55622179)
(0 -0.013407071 0.56347812)
(0 -0.012661806 0.55088449)
(0 -0.0088782999 0.48227042)
(0 -0.0028654991 0.33085453)
(0 0.00014822141 0.11723304)
(0 4.7144612e-05 0.10598655)
(0 0.0029983346 0.3074797)
(0 0.009432336 0.46693364)
(0 0.014602479 0.55157184)
(0 0.016276544 0.57313517)
(0 0.01558612 0.56657376)
(0 0.014324284 0.55596808)
(0 0.01317903 0.54826922)
(0 0.012157516 0.54299274)
(0 0.011180396 0.53898964)
(0 0.010216567 0.53575386)
(0 0.0092594264 0.5330934)
(0 0.0083072198 0.53089901)
(0 0.0073586805 0.52909099)
(0 0.0064131742 0.52761015)
(0 0.0054704266 0.52641274)
(0 0.0045303695 0.52546639)
(0 0.0035930473 0.52474736)
(0 0.0026585478 0.52423871)
(0 0.0017269895 0.52392909)
(0 0.00079850429 0.523812)
(0 -0.00012674112 0.5238854)
(0 -0.0010485384 0.52415164)
(0 -0.0019666183 0.52461759)
(0 -0.0028806579 0.52529507)
(0 -0.0037902659 0.52620169)
(0 -0.0046950181 0.52736211)
(0 -0.0055945148 0.5288101)
(0 -0.0064884514 0.53059145)
(0 -0.0073768966 0.53276811)
(0 -0.0082601805 0.53542462)
(0 -0.0091410906 0.53869617)
(0 -0.01003428 0.54290422)
(0 -0.010981127 0.54883169)
(0 -0.011997143 0.5571217)
(0 -0.012691796 0.56343296)
(0 -0.011803515 0.54856304)
(0 -0.0080938933 0.47758533)
(0 -0.0025558341 0.32650877)
(0 0.00010737728 0.11596543)
(0 6.8857309e-05 0.10465633)
(0 0.0027582764 0.30322181)
(0 0.0086889777 0.46171377)
(0 0.013716252 0.54847865)
(0 0.015527405 0.5727065)
(0 0.015001776 0.56750121)
(0 0.013823617 0.55712894)
(0 0.012719739 0.54932707)
(0 0.011736235 0.54397118)
(0 0.010799869 0.53993952)
(0 0.0098771371 0.53669377)
(0 0.0089602304 0.53402796)