/*--------------------------------*- C++ -*----------------------------------*\
  =========                 |
  \\      /  F ield         | OpenFOAM: The Open Source CFD Toolbox
   \\    /   O peration     | Website:  https://openfoam.org
    \\  /    A nd           | Version:  10
     \\/     M anipulation  |
\*---------------------------------------------------------------------------*/
FoamFile
{
    format      ascii;
    class       volVectorField;
    location    "0.11";
    object      U_0;
}
// * * * * * * * * * * * * * * * * * * * * * * * * * * * * * * * * * * * * * //

dimensions      [0 1 -1 0 0 0 0];

internalField   nonuniform List<vector> 
4000
(
(0 0.01863498 0.47773281)
(0 0.023505351 0.50885994)
(0 0.0081625608 0.50052539)
(0 0.0056103194 0.50033647)
(0 0.0042500187 0.5002575)
(0 0.0032502261 0.50016898)
(0 0.0025514159 0.50011967)
(0 0.0020500496 0.50009009)
(0 0.0016722762 0.50006975)
(0 0.0013782448 0.50005532)
(0 0.0011435745 0.50004491)
(0 0.00095191915 0.50003723)
(0 0.00079201757 0.50003149)
(0 0.00065588757 0.50002715)
(0 0.00053769436 0.50002386)
(0 0.00043305102 0.50002137)
(0 0.00033856399 0.50001952)
(0 0.00025152509 0.50001819)
(0 0.00016969547 0.50001729)
(0 9.1146811e-05 0.50001678)
(0 1.4139716e-05 0.50001663)
(0 -6.2984626e-05 0.50001683)
(0 -0.00014189535 0.5000174)
(0 -0.00022436364 0.50001836)
(0 -0.00031237438 0.50001977)
(0 -0.00040825645 0.50002172)
(0 -0.00051485451 0.50002434)
(0 -0.00063576845 0.50002782)
(0 -0.00077570154 0.50003242)
(0 -0.00094099031 0.50003855)
(0 -0.0011404559 0.50004682)
(0 -0.0013867702 0.50005819)
(0 -0.0016986958 0.50007412)
(0 -0.0021065989 0.5000971)
(0 -0.0026664188 0.50013486)
(0 -0.0034603534 0.50020247)
(0 -0.0045532758 0.50027167)
(0 -0.0065778164 0.50043396)
(0 -0.017652137 0.50675305)
(0 -0.013586385 0.4797577)
(0 0.037425872 0.44797767)
(0 0.050941715 0.53232535)
(0 0.021955179 0.50804318)
(0 0.016122029 0.5035741)
(0 0.012401487 0.50242348)
(0 0.0095011256 0.50162301)
(0 0.0075059641 0.50115642)
(0 0.0060556866 0.50086554)
(0 0.004951086 0.50066745)
(0 0.0040876032 0.5005283)
(0 0.0033962614 0.50042819)
(0 0.0028300906 0.50035456)
(0 0.0023566962 0.50029956)
(0 0.0019529743 0.50025807)
(0 0.0016019448 0.50022664)
(0 0.0012907935 0.50020291)
(0 0.0010095764 0.50018525)
(0 0.00075033685 0.50017253)
(0 0.00050648177 0.50016399)
(0 0.00027232241 0.50015914)
(0 4.2719427e-05 0.50015771)
(0 -0.00018722656 0.50015962)
(0 -0.00042244563 0.50016499)
(0 -0.00066816866 0.50017413)
(0 -0.00093024851 0.5001876)
(0 -0.0012155378 0.50020622)
(0 -0.0015323856 0.50023124)
(0 -0.001891325 0.50026447)
(0 -0.0023060659 0.50030851)
(0 -0.0027949802 0.50036727)
(0 -0.0033834783 0.50044669)
(0 -0.0041079769 0.50055626)
(0 -0.0050216051 0.50071106)
(0 -0.0062042859 0.50093669)
(0 -0.0078049441 0.50129479)
(0 -0.010099567 0.50191142)
(0 -0.013082831 0.50282696)
(0 -0.017402697 0.50608232)
(0 -0.038736458 0.52526688)
(0 -0.027883857 0.45023091)
(0 0.039878005 0.40984329)
(0 0.061404107 0.54931114)
(0 0.031957474 0.52188165)
(0 0.024331246 0.51008241)
(0 0.019167884 0.50658945)
(0 0.014951142 0.50452811)
(0 0.011981073 0.50327081)
(0 0.0097470828 0.50245724)
(0 0.0080129421 0.50189942)
(0 0.0066429531 0.50150659)
(0 0.0055368514 0.50122297)
(0 0.0046250665 0.50101386)
(0 0.003858825 0.50085739)
(0 0.0032026967 0.5007392)
(0 0.0026303141 0.50064957)
(0 0.0021215912 0.50058185)
(0 0.0016608188 0.50053142)
(0 0.001235345 0.50049508)
(0 0.00083463069 0.50047067)
(0 0.0004495442 0.50045679)
(0 7.1811835e-05 0.50045268)
(0 -0.00030646151 0.50045814)
(0 -0.00069321956 0.50047349)
(0 -0.0010968772 0.50049962)
(0 -0.0015268175 0.50053807)
(0 -0.0019939749 0.50059124)
(0 -0.0025115903 0.50066262)
(0 -0.0030962422 0.50075729)
(0 -0.0037693097 0.50088265)
(0 -0.0045590868 0.50104964)
(0 -0.0055039879 0.50127478)
(0 -0.0066580598 0.50158423)
(0 -0.0080985854 0.50202012)
(0 -0.0099297595 0.50265089)
(0 -0.012324431 0.50361622)
(0 -0.015670819 0.50520167)
(0 -0.019830641 0.50785823)
(0 -0.025143467 0.5164137)
(0 -0.047378023 0.53913178)
(0 -0.030836529 0.41491899)
(0 0.034778893 0.36177462)
(0 0.063804369 0.55457657)
(0 0.039339214 0.53747017)
(0 0.030046361 0.51849485)
(0 0.024074171 0.5119789)
(0 0.019240886 0.50849945)
(0 0.015698066 0.50626297)
(0 0.012917314 0.50475301)
(0 0.010708688 0.50370097)
(0 0.0089354129 0.50295176)
(0 0.0074844022 0.50240588)
(0 0.0062759407 0.50200087)
(0 0.0052521729 0.50169642)
(0 0.004369793 0.50146561)
(0 0.003595937 0.50129011)
(0 0.0029051745 0.5011572)
(0 0.0022773535 0.50105806)
(0 0.0016960679 0.50098653)
(0 0.0011475317 0.50093842)
(0 0.00061971882 0.50091105)
(0 0.0001016824 0.50090294)
(0 -0.00041704551 0.50091368)
(0 -0.00094699585 0.50094391)
(0 -0.0014992893 0.50099535)
(0 -0.0020862589 0.50107098)
(0 -0.0027221667 0.50117539)
(0 -0.0034241119 0.5013153)
(0 -0.0042132364 0.50150041)
(0 -0.0051163897 0.50174472)
(0 -0.0061684269 0.50206871)
(0 -0.0074153005 0.50250289)
(0 -0.0089193323 0.50309426)
(0 -0.010767999 0.50391758)
(0 -0.013068021 0.50508929)
(0 -0.015955093 0.50680891)
(0 -0.019832068 0.50947213)
(0 -0.024667941 0.51428139)
(0 -0.031046241 0.52824825)
(0 -0.050262275 0.54409183)
(0 -0.028415755 0.37245694)
(0 0.027410132 0.31491573)
(0 0.062269792 0.55027251)
(0 0.044555922 0.55146655)
(0 0.033929423 0.52748947)
(0 0.027411035 0.51772461)
(0 0.022401982 0.51291966)
(0 0.018584514 0.50972904)
(0 0.015477636 0.50748831)
(0 0.012958359 0.50589389)
(0 0.010897737 0.50473929)
(0 0.0091843253 0.50388713)
(0 0.0077392069 0.5032489)
(0 0.006502329 0.50276571)
(0 0.0054272027 0.50239735)
(0 0.004477717 0.50211599)
(0 0.0036253451 0.5019022)
(0 0.0028470822 0.50174228)
(0 0.0021239292 0.50162665)
(0 0.0014397322 0.50154876)
(0 0.00078027057 0.50150439)
(0 0.00013251887 0.5014912)
(0 -0.00051601478 0.50150857)
(0 -0.0011778946 0.50155747)
(0 -0.0018663333 0.50164062)
(0 -0.002595879 0.5017627)
(0 -0.0033831852 0.50193086)
(0 -0.0042479573 0.50215554)
(0 -0.0052141644 0.50245161)
(0 -0.006311648 0.50284036)
(0 -0.0075782817 0.50335245)
(0 -0.0090624382 0.50403255)
(0 -0.010826669 0.50494723)
(0 -0.01295793 0.50619935)
(0 -0.015560235 0.50794389)
(0 -0.018721517 0.51040738)
(0 -0.022803517 0.51406186)
(0 -0.02808786 0.52115283)
(0 -0.035611156 0.53932819)
(0 -0.05039974 0.54160354)
(0 -0.024059325 0.33068382)
(0 0.019823062 0.27530311)
(0 0.057934746 0.53980692)
(0 0.047285728 0.56256664)
(0 0.036406162 0.53660334)
(0 0.029566206 0.52350922)
(0 0.024606436 0.51740269)
(0 0.020705856 0.51335903)
(0 0.017443856 0.51043763)
(0 0.014751859 0.5083147)
(0 0.012508773 0.50674995)
(0 0.010613007 0.50557879)
(0 0.008992487 0.5046921)
(0 0.0075895143 0.50401493)
(0 0.0063581486 0.50349505)
(0 0.0052618533 0.50309576)
(0 0.0042710833 0.502791)
(0 0.0033615352 0.50256223)
(0 0.0025127984 0.50239638)
(0 0.0017072757 0.50228442)
(0 0.00092930542 0.50222052)
(0 0.00016443575 0.50220147)
(0 -0.0006012415 0.50222637)
(0 -0.0013817113 0.50229659)
(0 -0.0021916095 0.50241587)
(0 -0.0030469177 0.50259066)
(0 -0.0039657133 0.50283077)
(0 -0.0049690684 0.50315034)
(0 -0.006082152 0.50356941)
(0 -0.0073356245 0.50411617)
(0 -0.008767534 0.50483059)
(0 -0.010425279 0.50576972)
(0 -0.012367292 0.50701589)
(0 -0.014673916 0.50869232)
(0 -0.017447199 0.51098079)
(0 -0.020741303 0.51412396)
(0 -0.024852503 0.51873912)
(0 -0.03038846 0.52823576)
(0 -0.038500729 0.54872919)
(0 -0.048411776 0.53407673)
(0 -0.019036767 0.294125)
(0 0.013067927 0.24269773)
(0 0.051733757 0.52530066)
(0 0.047610012 0.57025839)
(0 0.037663128 0.54551967)
(0 0.030760721 0.5292894)
(0 0.025984896 0.52180016)
(0 0.022151158 0.51699172)
(0 0.018870159 0.5134631)
(0 0.016114552 0.5108509)
(0 0.013776317 0.50889505)
(0 0.011768887 0.50741222)
(0 0.010029583 0.50627739)
(0 0.0085056823 0.50540279)
(0 0.0071543427 0.50472628)
(0 0.0059406719 0.50420347)
(0 0.0048357613 0.50380243)
(0 0.0038153341 0.5035002)
(0 0.002858631 0.50328039)
(0 0.0019474774 0.50313164)
(0 0.0010655021 0.50304658)
(0 0.00019747319 0.5030211)
(0 -0.00067132495 0.50305408)
(0 -0.0015556855 0.50314725)
(0 -0.0024710096 0.50330534)
(0 -0.0034339643 0.5035365)
(0 -0.0044631613 0.50385305)
(0 -0.0055799536 0.50427261)
(0 -0.0068093778 0.50481983)
(0 -0.0081812708 0.50552901)
(0 -0.0097318441 0.50644797)
(0 -0.011505448 0.50764392)
(0 -0.013554496 0.50921177)
(0 -0.015948629 0.51128955)
(0 -0.018783455 0.51407686)
(0 -0.022090668 0.51784285)
(0 -0.02611051 0.52347712)
(0 -0.03169189 0.53537681)
(0 -0.039593197 0.55591117)
(0 -0.044776779 0.5229776)
(0 -0.014057909 0.26290242)
(0 0.0077544414 0.21572589)
(0 0.04475115 0.50816219)
(0 0.046133044 0.57440589)
(0 0.037915111 0.55374116)
(0 0.031174985 0.53495819)
(0 0.02665792 0.52602715)
(0 0.023008737 0.5205293)
(0 0.019817063 0.51647344)
(0 0.01708414 0.51342185)
(0 0.014722475 0.51110631)
(0 0.012663561 0.50933107)
(0 0.010855231 0.50795885)
(0 0.0092514697 0.50689202)
(0 0.0078141976 0.50606066)
(0 0.0065115631 0.50541417)
(0 0.0053165043 0.50491567)
(0 0.0042058075 0.5045384)
(0 0.0031592402 0.50426309)
(0 0.0021587996 0.5040763)
(0 0.0011880607 0.50396923)
(0 0.00023160639 0.50393701)
(0 -0.00072551911 0.50397826)
(0 -0.001698348 0.50409505)
(0 -0.0027024449 0.50429304)
(0 -0.0037544976 0.5045819)
(0 -0.0048728931 0.50497618)
(0 -0.0060783816 0.5054965)
(0 -0.0073948427 0.50617152)
(0 -0.0088501121 0.5070406)
(0 -0.010477147 0.50815796)
(0 -0.012315706 0.50959889)
(0 -0.014411116 0.51146852)
(0 -0.016819721 0.51391582)
(0 -0.019623553 0.51714988)
(0 -0.022839025 0.5214838)
(0 -0.02668705 0.52818989)
(0 -0.032152192 0.5422154)
(0 -0.039196973 0.56053496)
(0 -0.040190753 0.50932022)
(0 -0.0096730622 0.23619546)
(0 0.003988746 0.19378728)
(0 0.037815138 0.48970491)
(0 0.043539863 0.57528947)
(0 0.03741353 0.56083029)
(0 0.031014109 0.54035346)
(0 0.026778699 0.53000547)
(0 0.023382019 0.52388887)
(0 0.020353572 0.51939227)
(0 0.017707216 0.51596099)
(0 0.015378625 0.51332622)
(0 0.013317386 0.51128605)
(0 0.01148201 0.50969464)
(0 0.0098342055 0.50844731)
(0 0.0083416099 0.5074684)
(0 0.0069762697 0.5067025)
(0 0.0057137923 0.50610891)
(0 0.0045327775 0.50565775)
(0 0.0034141908 0.5053274)
(0 0.0023408039 0.50510264)
(0 0.0012966874 0.5049735)
(0 0.00026675166 0.5049344)
(0 -0.00076370396 0.50498379)
(0 -0.0018094537 0.50512402)
(0 -0.0028857094 0.50536152)
(0 -0.0040086245 0.50570729)
(0 -0.0051957522 0.50617772)
(0 -0.0064665613 0.50679596)
(0 -0.0078430219 0.50759387)
(0 -0.0093501627 0.50861484)
(0 -0.011016766 0.50991802)
(0 -0.012876896 0.51158479)
(0 -0.014968297 0.51372791)
(0 -0.017333767 0.51650327)
(0 -0.0200379 0.52012238)
(0 -0.023089041 0.52496467)
(0 -0.026726038 0.53274188)
(0 -0.031955937 0.54837792)
(0 -0.037745376 0.56260728)
(0 -0.035256905 0.49413326)
(0 -0.0061632318 0.21368068)
(0 0.0015343003 0.17641453)
(0 0.031405001 0.4710596)
(0 0.040358496 0.57347061)
(0 0.036374082 0.56658036)
(0 0.030465221 0.54536279)
(0 0.026507088 0.53369419)
(0 0.023383206 0.52701429)
(0 0.02055722 0.5221611)
(0 0.018038611 0.51841565)
(0 0.015783464 0.515508)
(0 0.013757242 0.51323587)
(0 0.011928351 0.51144861)
(0 0.010266343 0.51003718)
(0 0.0087448174 0.50892206)
(0 0.0073401006 0.50804451)
(0 0.0060309406 0.50736099)
(0 0.0047982295 0.50683932)
(0 0.0036245972 0.50645604)
(0 0.002494038 0.50619455)
(0 0.0013915465 0.50604391)
(0 0.00030277279 0.505998)
(0 -0.00078632363 0.50605511)
(0 -0.0018898526 0.50621783)
(0 -0.0030222577 0.50649322)
(0 -0.0041987264 0.50689333)
(0 -0.0054355243 0.50743601)
(0 -0.0067503643 0.50814637)
(0 -0.0081628144 0.50905868)
(0 -0.0096946383 0.51021932)
(0 -0.011370051 0.51169092)
(0 -0.013216998 0.51355892)
(0 -0.015265802 0.51594088)
(0 -0.017547283 0.51899558)
(0 -0.020108914 0.52293455)
(0 -0.022958282 0.52823225)
(0 -0.026370752 0.53703284)
(0 -0.031264216 0.55363854)
(0 -0.035609389 0.56241787)
(0 -0.030374458 0.47835967)
(0 -0.0035512089 0.19513799)
(0 5.9398192e-05 0.16286055)
(0 0.025764582 0.45299391)
(0 0.036956901 0.56956679)
(0 0.034967464 0.57097021)
(0 0.029667946 0.54993652)
(0 0.02597554 0.53709677)
(0 0.023114215 0.52988784)
(0 0.020504111 0.52474824)
(0 0.018135347 0.52075187)
(0 0.015979035 0.51761847)
(0 0.014013729 0.51514929)
(0 0.012216392 0.5131921)
(0 0.010563778 0.51163568)
(0 0.0090351103 0.51039831)
(0 0.0076109736 0.50941918)
(0 0.0062734075 0.5086529)
(0 0.0050058269 0.50806573)
(0 0.0037928003 0.50763288)
(0 0.0026198409 0.50733676)
(0 0.0014731716 0.50716571)
(0 0.00033948806 0.50711319)
(0 -0.00079428317 0.50717738)
(0 -0.0019412793 0.50736105)
(0 -0.003114868 0.50767174)
(0 -0.0043289636 0.50812226)
(0 -0.0055982453 0.50873158)
(0 -0.0069383915 0.50952615)
(0 -0.0083663272 0.51054194)
(0 -0.0099004101 0.51182727)
(0 -0.011560356 0.51344697)
(0 -0.0133682 0.51548878)
(0 -0.015347449 0.51807257)
(0 -0.017518974 0.52135689)
(0 -0.019915767 0.5255566)
(0 -0.022551394 0.53127156)
(0 -0.025736618 0.54100973)
(0 -0.030207375 0.55790812)
(0 -0.033082082 0.56036486)
(0 -0.025794681 0.46269005)
(0 -0.0017226563 0.18010779)
(0 -0.00073561687 0.1523025)
(0 0.020989681 0.43594083)
(0 0.033585086 0.56412895)
(0 0.033336399 0.57407413)
(0 0.028722413 0.55405397)
(0 0.025282991 0.54023683)
(0 0.022658179 0.53251961)
(0 0.020260772 0.52714542)
(0 0.018050048 0.52295331)
(0 0.016006074 0.51963778)
(0 0.014117923 0.51700522)
(0 0.012369623 0.51490418)
(0 0.010744092 0.51322273)
(0 0.0092255157 0.51187823)
(0 0.0077984303 0.51080886)
(0 0.0064480673 0.50996821)
(0 0.0051603885 0.50932157)
(0 0.0039220099 0.50884336)
(0 0.0027201219 0.50851531)
(0 0.0015423632 0.50832528)
(0 0.00037667769 0.50826646)
(0 -0.00078883117 0.50833692)
(0 -0.0019661169 0.50853958)
(0 -0.0031672684 0.5088823)
(0 -0.0044047381 0.50937842)
(0 -0.0056914598 0.51004761)
(0 -0.007040971 0.51091722)
(0 -0.008467524 0.5120242)
(0 -0.0099861693 0.51341797)
(0 -0.011612478 0.51516449)
(0 -0.013363168 0.51735251)
(0 -0.015255717 0.52010236)
(0 -0.017302894 0.5235704)
(0 -0.019526833 0.52798241)
(0 -0.021953073 0.53408783)
(0 -0.024913898 0.54464131)
(0 -0.028900232 0.56117922)
(0 -0.030394602 0.5568463)
(0 -0.02167057 0.44756446)
(0 -0.00051937309 0.16800347)
(0 -0.0010877118 0.1440437)
(0 0.017070897 0.42011581)
(0 0.030398281 0.55761844)
(0 0.031598408 0.57601491)
(0 0.02770214 0.55770763)
(0 0.024502324 0.54313959)
(0 0.022081007 0.5349318)
(0 0.019882388 0.52935818)
(0 0.017828075 0.5250156)
(0 0.015901242 0.52155614)
(0 0.014099005 0.51879083)
(0 0.012410967 0.51657044)
(0 0.010825064 0.51478339)
(0 0.0093296559 0.51334695)
(0 0.0079127683 0.51219906)
(0 0.0065625592 0.51129292)
(0 0.0052674145 0.51059342)
(0 0.004015976 0.51007452)
(0 0.0027971556 0.50971761)
(0 0.0016000934 0.50951025)
(0 0.00041409176 0.50944547)
(0 -0.00077144832 0.5095213)
(0 -0.0019671749 0.50974071)
(0 -0.0031837886 0.51011179)
(0 -0.0044321956 0.51064815)
(0 -0.0057235411 0.51136989)
(0 -0.007069247 0.51230477)
(0 -0.0084810159 0.51349023)
(0 -0.0099708452 0.5149761)
(0 -0.011550653 0.51682867)
(0 -0.013232606 0.51913681)
(0 -0.015029065 0.52201995)
(0 -0.016946389 0.52563161)
(0 -0.018999836 0.53021824)
(0 -0.021231529 0.5366918)
(0 -0.023975137 0.54790737)
(0 -0.027444039 0.5634977)
(0 -0.027717007 0.55222669)
(0 -0.018075766 0.43324953)
(0 0.00021682417 0.15827982)
(0 -0.0011703751 0.13753351)
(0 0.013930597 0.40560072)
(0 0.027476167 0.55041176)
(0 0.0298411 0.57694174)
(0 0.02665897 0.56090424)
(0 0.023685838 0.54582837)
(0 0.021433986 0.53715078)
(0 0.019413659 0.53139923)
(0 0.017507336 0.52694162)
(0 0.01569626 0.52337059)
(0 0.013983111 0.52049931)
(0 0.012361626 0.51818167)
(0 0.010823645 0.51630703)
(0 0.0093608955 0.51479313)
(0 0.0079643559 0.51357816)
(0 0.0066247555 0.51261543)
(0 0.0053326878 0.51186976)
(0 0.0040787075 0.51131502)
(0 0.0028534046 0.51093245)
(0 0.0016474241 0.51070952)
(0 0.00045145874 0.51063917)
(0 -0.00074374788 0.51071939)
(0 -0.0019474929 0.5109532)
(0 -0.0031690589 0.51134877)
(0 -0.0044178036 0.51191984)
(0 -0.0057031298 0.51268662)
(0 -0.0070344625 0.51367702)
(0 -0.0084211759 0.5149285)
(0 -0.0098725616 0.51649082)
(0 -0.011397438 0.51843006)
(0 -0.013004251 0.52083457)
(0 -0.014701238 0.523822)
(0 -0.016490008 0.52754356)
(0 -0.018382745 0.5322769)
(0 -0.020440558 0.53909657)
(0 -0.022976856 0.55080148)
(0 -0.025920743 0.5649482)
(0 -0.02515998 0.54682672)
(0 -0.015021471 0.41989541)
(0 0.00062381652 0.15047504)
(0 -0.0011019134 0.13233298)
(0 0.011458086 0.39238854)
(0 0.024846221 0.54280496)
(0 0.028122824 0.57701076)
(0 0.025625709 0.56366388)
(0 0.02286818 0.54832536)
(0 0.020755012 0.53920432)
(0 0.018889513 0.53328545)
(0 0.017118604 0.52873887)
(0 0.015417788 0.5250828)
(0 0.01379289 0.52212831)
(0 0.012240498 0.51973265)
(0 0.01075535 0.51778654)
(0 0.0093317706 0.51620844)
(0 0.0079631363 0.51493713)
(0 0.0066423536 0.5139263)
(0 0.0053619573 0.51314098)
(0 0.0041142424 0.51255517)
(0 0.002891372 0.51215015)
(0 0.0016854379 0.51191339)
(0 0.00048849399 0.51183783)
(0 -0.00070738981 0.51192147)
(0 -0.0019101756 0.51216731)
(0 -0.0031277596 0.51258351)
(0 -0.0043680128 0.5131838)
(0 -0.0056387045 0.51398833)
(0 -0.0069474425 0.51502487)
(0 -0.0083015511 0.51633064)
(0 -0.0097080144 0.51795498)
(0 -0.011173121 0.51996341)
(0 -0.012702409 0.52244336)
(0 -0.014300984 0.52551022)
(0 -0.015967298 0.52931463)
(0 -0.01771364 0.53417555)
(0 -0.019620019 0.54131769)
(0 -0.021959928 0.55333145)
(0 -0.02439083 0.56563736)
(0 -0.022785621 0.54091516)
(0 -0.012477716 0.4075664)
(0 0.00081054592 0.14419601)
(0 -0.0009587645 0.12809733)
(0 0.0095346196 0.38041516)
(0 0.022504642 0.53502099)
(0 0.0264783 0.57636907)
(0 0.02462048 0.5660143)
(0 0.022069847 0.5506506)
(0 0.020070091 0.5411193)
(0 0.018335857 0.53503587)
(0 0.016685903 0.53041787)
(0 0.015087481 0.52669761)
(0 0.013547352 0.52367862)
(0 0.012063904 0.52122124)
(0 0.010633922 0.51921763)
(0 0.0092536345 0.51758713)
(0 0.0079182932 0.51626921)
(0 0.006622586 0.5152181)
(0 0.0053607018 0.51439924)
(0 0.0041264714 0.51378687)
(0 0.0029134868 0.51336245)
(0 0.0017151853 0.51311355)
(0 0.00052490779 0.51303314)
(0 -0.00066401121 0.51311923)
(0 -0.0018582605 0.51337479)
(0 -0.0030644275 0.51380792)
(0 -0.0042890018 0.51443221)
(0 -0.0055382699 0.51526762)
(0 -0.0068182365 0.51634161)
(0 -0.0081344793 0.51769097)
(0 -0.0094920841 0.51936444)
(0 -0.010895356 0.52142678)
(0 -0.012347663 0.52396429)
(0 -0.013851875 0.52709007)
(0 -0.015404735 0.53095684)
(0 -0.01702101 0.53593344)
(0 -0.018797319 0.54337161)
(0 -0.020951714 0.55551495)
(0 -0.022895714 0.56567745)
(0 -0.020621422 0.53470665)
(0 -0.010391737 0.39626473)
(0 0.0008572629 0.13911067)
(0 -0.00078841531 0.12456629)
(0 0.0080476339 0.36958577)
(0 0.020430833 0.52722206)
(0 0.024924939 0.57514673)
(0 0.023651435 0.56798573)
(0 0.021301234 0.55282041)
(0 0.019395687 0.54291949)
(0 0.017770892 0.53666957)
(0 0.016227209 0.53199051)
(0 0.014722298 0.52822173)
(0 0.013261941 0.5251532)
(0 0.011845511 0.52264749)
(0 0.010471169 0.52059819)
(0 0.0091364619 0.51892547)
(0 0.0078380485 0.51756952)
(0 0.006572031 0.51648516)
(0 0.0053339692 0.5156383)
(0 0.0041190138 0.51500352)
(0 0.002922021 0.51456253)
(0 0.0017376459 0.51430304)
(0 0.00056041249 0.51421809)
(0 -0.00061517314 0.51430572)
(0 -0.0017946202 0.51456884)
(0 -0.0029833151 0.51501543)
(0 -0.0041864985 0.51565889)
(0 -0.005409147 0.5165189)
(0 -0.0066558891 0.51762251)
(0 -0.0079308567 0.51900598)
(0 -0.0092376266 0.52071738)
(0 -0.010579011 0.52282065)
(0 -0.011956831 0.5254009)
(0 -0.013372483 0.52856929)
(0 -0.014822274 0.53248388)
(0 -0.016324999 0.53756956)
(0 -0.017989945 0.54527367)
(0 -0.019969091 0.55737476)
(0 -0.02146136 0.5651757)
(0 -0.018671955 0.52836646)
(0 -0.008700598 0.38595292)
(0 0.00082048537 0.13494798)
(0 -0.00061883975 0.12155037)
(0 0.0068980639 0.35979386)
(0 0.018596465 0.51952332)
(0 0.023468117 0.57345518)
(0 0.022720369 0.56960834)
(0 0.020566023 0.55484707)
(0 0.018741173 0.54462435)
(0 0.017206734 0.53820406)
(0 0.015755466 0.53346875)
(0 0.014335082 0.52966268)
(0 0.012948826 0.52655619)
(0 0.01159645 0.52401289)
(0 0.010276972 0.52192765)
(0 0.0089887846 0.52022131)
(0 0.0077295671 0.5188347)
(0 0.0064965096 0.51772324)
(0 0.0052862804 0.51685329)
(0 0.0040951395 0.51619982)
(0 0.0029190363 0.51574481)
(0 0.0017537042 0.51547612)
(0 0.00059472922 0.51538693)
(0 -0.00056232348 0.51547524)
(0 -0.0017218962 0.51574393)
(0 -0.0028882986 0.51620083)
(0 -0.0040656681 0.51685911)
(0 -0.0052578508 0.51773811)
(0 -0.0064683211 0.51886445)
(0 -0.0077000454 0.52027383)
(0 -0.0089554389 0.52201366)
(0 -0.010236239 0.52414709)
(0 -0.011543229 0.52675815)
(0 -0.012876944 0.52995661)
(0 -0.014234328 0.53390946)
(0 -0.015639014 0.53910097)
(0 -0.017207962 0.54703704)
(0 -0.019021119 0.55893571)
(0 -0.020101659 0.56422931)
(0 -0.016927488 0.52201882)
(0 -0.0073394968 0.37657137)
(0 0.00073869061 0.13149399)
(0 -0.00046493601 0.11891504)
(0 0.0060034644 0.35093251)
(0 0.016971106 0.51200453)
(0 0.022105445 0.57138839)
(0 0.02182523 0.57091106)
(0 0.019863598 0.55673938)
(0 0.018110852 0.54624892)
(0 0.016650892 0.53965456)
(0 0.015279618 0.53486371)
(0 0.013935258 0.53102792)
(0 0.012617344 0.52789226)
(0 0.011325563 0.52531983)
(0 0.010059396 0.52320651)
(0 0.0088177303 0.52147366)
(0 0.007598947 0.52006262)
(0 0.0064010509 0.5189293)
(0 0.0052215874 0.51804053)
(0 0.0040577302 0.51737163)
(0 0.0029063571 0.51690483)
(0 0.0017641373 0.5166282)
(0 0.00062759275 0.51653498)
(0 -0.00050677437 0.51662321)
(0 -0.0016424607 0.51689569)
(0 -0.0027828282 0.51736009)
(0 -0.0039310593 0.51802934)
(0 -0.0050900432 0.51892244)
(0 -0.0062623066 0.52006558)
(0 -0.0074498985 0.52149392)
(0 -0.0086543679 0.52325427)
(0 -0.0098767184 0.52540913)
(0 -0.011117095 0.52804158)
(0 -0.012375646 0.53126085)
(0 -0.0136508 0.53524634)
(0 -0.014971218 0.54054213)
(0 -0.016456034 0.54867264)
(0 -0.018111193 0.56022298)
(0 -0.01882154 0.5629236)
(0 -0.0153703 0.51575499)
(0 -0.0062471777 0.36805013)
(0 0.00063714743 0.12858356)
(0 -0.00033314368 0.11656679)
(0 0.0052982275 0.34290065)
(0 0.015525522 0.5047193)
(0 0.020830125 0.56902495)
(0 0.020961924 0.57192105)
(0 0.019190752 0.55850336)
(0 0.017505532 0.5478042)
(0 0.016107484 0.54103378)
(0 0.014805527 0.53618532)
(0 0.013529507 0.53232445)
(0 0.012274472 0.52916609)
(0 0.011039714 0.52657106)
(0 0.0098248936 0.5244359)
(0 0.0086291317 0.52268232)
(0 0.0074512725 0.52125201)
(0 0.0062899111 0.52010128)
(0 0.0051432727 0.51919732)
(0 0.0040092718 0.51851579)
(0 0.0028855621 0.51803915)
(0 0.0017696121 0.51775564)
(0 0.00065875476 0.51765859)
(0 -0.00044969181 0.51774605)
(0 -0.0015583999 0.51802074)
(0 -0.0026699119 0.51849017)
(0 -0.0037865964 0.51916706)
(0 -0.0049105457 0.52007006)
(0 -0.0060435215 0.52122497)
(0 -0.0071868664 0.52266647)
(0 -0.0083415041 0.5244409)
(0 -0.0095079703 0.52661021)
(0 -0.010686069 0.52925679)
(0 -0.011875918 0.53249032)
(0 -0.01307804 0.53650579)
(0 -0.014325811 0.5419047)
(0 -0.015735041 0.55018918)
(0 -0.017238862 0.56126086)
(0 -0.017619808 0.56133177)
(0 -0.01397918 0.50964045)
(0 -0.0053690585 0.36031636)
(0 0.00053173889 0.12609141)
(0 -0.0002247794 0.1144419)
(0 0.0047319736 0.33560638)
(0 0.014233322 0.49770233)
(0 0.019633368 0.56643044)
(0 0.020125579 0.57266346)
(0 0.018542936 0.5601429)
(0 0.016923763 0.54929769)
(0 0.01557822 0.54235191)
(0 0.014336732 0.5374421)
(0 0.013122366 0.53355854)
(0 0.011925276 0.53038212)
(0 0.010744113 0.52776944)
(0 0.0095785186 0.52561733)
(0 0.0084276736 0.52384767)
(0 0.0072907067 0.52240231)
(0 0.0061666271 0.52123784)
(0 0.0050541788 0.52032175)
(0 0.003951869 0.51962995)
(0 0.0028579915 0.51914512)
(0 0.0017706885 0.51885565)
(0 0.00068798718 0.51875493)
(0 -0.00039209356 0.51884101)
(0 -0.0014715173 0.51911655)
(0 -0.0025521269 0.5195889)
(0 -0.0036356063 0.52027057)
(0 -0.0047233921 0.52117991)
(0 -0.0058166365 0.52234238)
(0 -0.0069161484 0.52379229)
(0 -0.0080224137 0.52557559)
(0 -0.0091356953 0.52775388)
(0 -0.010255672 0.5304091)
(0 -0.011382674 0.53365249)
(0 -0.012519702 0.53769735)
(0 -0.013704156 0.54319758)
(0 -0.015043413 0.55159328)
(0 -0.016401337 0.56207199)
(0 -0.016491553 0.55951562)
(0 -0.012732321 0.50372085)
(0 -0.004658512 0.35329895)
(0 0.00043183697 0.12392417)
(0 -0.00013832375 0.11249769)
(0 0.0042671097 0.32896834)
(0 0.013071525 0.49097502)
(0 0.018505946 0.56365969)
(0 0.019311327 0.57316145)
(0 0.01791512 0.56166033)
(0 0.016362788 0.55073393)
(0 0.01506319 0.54361674)
(0 0.013875099 0.53864114)
(0 0.012716748 0.53473562)
(0 0.011573315 0.53154433)
(0 0.010442625 0.52891773)
(0 0.0093241589 0.52675247)
(0 0.0082170564 0.52497039)
(0 0.0071206037 0.5235134)
(0 0.0060340925 0.52233823)
(0 0.0049566571 0.52141255)
(0 0.0038872749 0.52071248)
(0 0.0028247638 0.52022086)
(0 0.0017678284 0.51992618)
(0 0.00071508374 0.51982191)
(0 -0.00033485513 0.51990609)
(0 -0.0013833487 0.5201813)
(0 -0.0024316485 0.52065477)
(0 -0.0034808674 0.5213388)
(0 -0.0045319064 0.52225151)
(0 -0.0055854364 0.52341807)
(0 -0.0066418668 0.5248725)
(0 -0.0077013847 0.52666051)
(0 -0.008764113 0.52884351)
(0 -0.0098297495 0.5315033)
(0 -0.010899001 0.53475382)
(0 -0.011977504 0.53882869)
(0 -0.013105735 0.54442712)
(0 -0.014378179 0.55288977)
(0 -0.015594642 0.56267701)
(0 -0.015429932 0.5575269)
(0 -0.011609053 0.49802713)
(0 -0.0040770239 0.34693135)
(0 0.00034244172 0.12201354)
(0 -7.0907269e-05 0.11070587)
(0 0.00387623 0.32291596)
(0 0.012020535 0.48454964)
(0 0.017439062 0.56075894)
(0 0.01851473 0.57343646)
(0 0.017302341 0.56305695)
(0 0.015819213 0.55211511)
(0 0.014561468 0.54483396)
(0 0.013421336 0.53978813)
(0 0.012314383 0.53586021)
(0 0.011221004 0.5326562)
(0 0.010138051 0.53001845)
(0 0.0090647549 0.52784296)
(0 0.0080001607 0.52605138)
(0 0.0069436304 0.52458552)
(0 0.0058946435 0.52340211)
(0 0.0048526277 0.52246894)
(0 0.0038169316 0.52176226)
(0 0.0027868009 0.52126501)
(0 0.0017614072 0.52096578)
(0 0.00073986045 0.52085806)
(0 -0.00027872042 0.52093989)
(0 -0.001295186 0.52121377)
(0 -0.0023102906 0.52168683)
(0 -0.0033246723 0.5223712)
(0 -0.0043387958 0.5232848)
(0 -0.0053529508 0.52445258)
(0 -0.0063672478 0.52590839)
(0 -0.007381671 0.52769781)
(0 -0.0083962835 0.5298822)
(0 -0.0094108907 0.53254354)
(0 -0.010426671 0.53579964)
(0 -0.01145187 0.53990573)
(0 -0.012528915 0.54559741)
(0 -0.013735746 0.55408197)
(0 -0.014814432 0.56309452)
(0 -0.014427428 0.55540883)
(0 -0.010590773 0.49257948)
(0 -0.0035936766 0.3411531)
(0 0.00026569335 0.12031044)
(0 -1.9232358e-05 0.10904759)
(0 0.0035397125 0.31738881)
(0 0.011063836 0.47843232)
(0 0.01642479 0.55776753)
(0 0.017731956 0.57350844)
(0 0.016700021 0.56433351)
(0 0.015289469 0.55344155)
(0 0.014071555 0.54600739)
(0 0.012975399 0.54088747)
(0 0.011916184 0.53693599)
(0 0.010869924 0.53372062)
(0 0.009832387 0.53107382)
(0 0.0088025027 0.52889037)
(0 0.0077792064 0.52709161)
(0 0.0067618875 0.5256191)
(0 0.0057501498 0.52442947)
(0 0.0047436439 0.52349056)
(0 0.0037420138 0.52277863)
(0 0.0027448549 0.52227674)
(0 0.0017517269 0.52197349)
(0 0.00076215565 0.52186241)
(0 -0.00022431495 0.5219415)
(0 -0.0012081052 0.52221322)
(0 -0.0021895517 0.52268458)
(0 -0.0031688968 0.52336759)
(0 -0.004146247 0.52428002)
(0 -0.0051215866 0.52544668)
(0 -0.0060947973 0.52690131)
(0 -0.0070657202 0.52868948)
(0 -0.0080343976 0.53087264)
(0 -0.009000785 0.53353332)
(0 -0.009966577 0.5367942)
(0 -0.01094244 0.54093272)
(0 -0.011971531 0.54671067)
(0 -0.013112463 0.55517202)
(0 -0.014056565 0.56334125)
(0 -0.013476704 0.55319745)
(0 -0.0096613357 0.48739033)
(0 -0.0031842619 0.33591032)
(0 0.00020191725 0.11878013)
(0 1.9887428e-05 0.10751013)
(0 0.0032436667 0.31233568)
(0 0.010187573 0.47262518)
(0 0.015456219 0.5547192)
(0 0.016959832 0.57339608)
(0 0.016104139 0.56549051)
(0 0.01477011 0.55471222)
(0 0.013591694 0.54713928)
(0 0.012536805 0.5419424)
(0 0.011522529 0.53796586)
(0 0.010521068 0.53473997)
(0 0.0095270368 0.53208572)
(0 0.0085390349 0.52989613)
(0 0.007555899 0.52809206)
(0 0.0065770243 0.5266147)
(0 0.0056021023 0.52542054)
(0 0.0046309581 0.52447731)
(0 0.0036634751 0.52376131)
(0 0.0026995378 0.52325559)
(0 0.0017390307 0.52294878)
(0 0.00078182998 0.52283441)
(0 -0.00017216047 0.52291045)
(0 -0.001122997 0.52317929)
(0 -0.002070663 0.52364788)
(0 -0.0030150683 0.52432811)
(0 -0.0039560209 0.52523766)
(0 -0.0048932534 0.52640124)
(0 -0.0058264629 0.52785257)
(0 -0.0067553783 0.52963732)
(0 -0.0076800273 0.53181715)
(0 -0.008600524 0.53447546)
(0 -0.0095190809 0.53774076)
(0 -0.010448472 0.54191251)
(0 -0.011431328 0.54776761)
(0 -0.012505022 0.55616127)
(0 -0.013317484 0.5634323)
(0 -0.012571161 0.55092294)
(0 -0.0088071264 0.4824665)
(0 -0.0028302481 0.33115569)
(0 0.00015033673 0.11739837)
(0 4.924347e-05 0.10608465)
(0 0.0029782804 0.30771345)
(0 0.0093801203 0.46712774)
(0 0.014527448 0.55164314)
(0 0.016195822 0.57311697)
(0 0.015511319 0.56652851)
(0 0.014258008 0.55592512)
(0 0.013120102 0.54823058)
(0 0.012104865 0.54295518)
(0 0.01113349 0.53895199)
(0 0.010175059 0.53571612)
(0 0.0092229984 0.53305573)
(0 0.0082755771 0.53086149)
(0 0.0073315586 0.52905366)
(0 0.0063903437 0.52757298)
(0 0.005451695 0.52637568)
(0 0.0045155829 0.52542936)
(0 0.0035820915 0.52471027)
(0 0.0026513491 0.52420141)
(0 0.0017235158 0.52389144)
(0 0.000798766 0.52377385)
(0 -0.00012268935 0.52384657)
(0 -0.0010405957 0.52411195)
(0 -0.001954635 0.52457686)
(0 -0.0028644326 0.52525312)
(0 -0.0037695413 0.52615833)
(0 -0.0046694772 0.52731719)
(0 -0.0055637762 0.52876346)
(0 -0.006452064 0.53054295)
(0 -0.0073343357 0.53271767)
(0 -0.0082108449 0.53537222)
(0 -0.0090842906 0.53864174)
(0 -0.0099691477 0.54284678)
(0 -0.010906278 0.54876784)
(0 -0.011910728 0.55705053)
(0 -0.012594467 0.56338131)
(0 -0.011705264 0.5486106)
(0 -0.0080169548 0.47781086)
(0 -0.0025177505 0.32684792)
(0 0.00010954302 0.11614829)
(0 7.1109039e-05 0.10476476)
(0 0.0027365519 0.30348598)
(0 0.0086316969 0.46193791)
(0 0.013633511 0.54856475)
(0 0.015437999 0.5726877)
(0 0.01491887 0.56744821)
(0 0.01375048 0.55707756)
(0 0.012655139 0.54928115)
(0 0.011678862 0.54392721)
(0 0.010749006 0.53989596)
(0 0.0098323062 0.53665051)