/*--------------------------------*- C++ -*----------------------------------*\
  =========                 |
  \\      /  F ield         | OpenFOAM: The Open Source CFD Toolbox
   \\    /   O peration     | Website:  https://openfoam.org
    \\  /    A nd           | Version:  10
     \\/     M anipulation  |
\*---------------------------------------------------------------------------*/
FoamFile
{
    format      ascii;
    class       surfaceScalarField;
    location    "0.09";
    object      phi;
}
// * * * * * * * * * * * * * * * * * * * * * * * * * * * * * * * * * * * * * //

dimensions      [1 0 -1 0 0 0 0];

internalField   nonuniform List<scalar> 
7860
(
3.9884114e-08
5.2882394e-07
1.218364e-08
5.9640824e-07
7.4185566e-09
5.7347282e-07
5.4887626e-09
5.7063749e-07
4.103952e-09
5.7009248e-07
3.1900888e-09
5.6962151e-07
2.5482901e-09
5.6934942e-07
2.0688575e-09
5.6918704e-07
1.6994395e-09
5.6907702e-07
1.4074883e-09
5.6899954e-07
1.1711903e-09
5.6894388e-07
9.7576681e-10
5.68903e-07
8.1085976e-10
5.6887248e-07
6.6896563e-10
5.6884946e-07
5.444986e-10
5.6883203e-07
4.331862e-10
5.6881887e-07
3.3166344e-10
5.6880908e-07
2.3719201e-10
5.6880203e-07
1.4745821e-10
5.6879729e-07
6.0419906e-11
5.6879459e-07
-2.5816556e-11
5.6879379e-07
-1.1310355e-10
5.6879484e-07
-2.0336002e-10
5.6879781e-07
-2.9867596e-10
5.6880287e-07
-4.0144544e-10
5.6881032e-07
-5.1453019e-10
5.6882064e-07
-6.4148044e-10
5.6883451e-07
-7.868483e-10
5.6885293e-07
-9.566488e-10
5.6887737e-07
-1.1590672e-09
5.6890999e-07
-1.4056328e-09
5.6895415e-07
-1.7131908e-09
5.6901515e-07
-2.1067652e-09
5.6910117e-07
-2.6262883e-09
5.6922713e-07
-3.3542089e-09
5.6943554e-07
-4.4463258e-09
5.6979976e-07
-5.9938367e-09
5.7025518e-07
-9.4941745e-09
5.7220804e-07
-2.9558721e-08
5.8877229e-07
5.3914919e-07
5.9644423e-08
4.6917971e-07
3.6632857e-08
6.1941972e-07
2.2596338e-08
5.8750931e-07
1.6219908e-08
5.7701392e-07
1.2255876e-08
5.7405651e-07
9.5715822e-09
5.723058e-07
7.6434574e-09
5.7127755e-07
6.2033897e-09
5.7062711e-07
5.0956951e-09
5.7018471e-07
4.2202344e-09
5.69875e-07
3.5116193e-09
5.6965249e-07
2.9256321e-09
5.6948899e-07
2.4311827e-09
5.6936693e-07
2.0057547e-09
5.6927489e-07
1.6325949e-09
5.6920519e-07
1.2988893e-09
5.6915258e-07
9.9454566e-10
5.6911342e-07
7.1135181e-10
5.6908522e-07
4.4236889e-10
5.6906627e-07
1.8147222e-10
5.6905549e-07
-7.7018116e-11
5.6905228e-07
-3.3865977e-10
5.6905648e-07
-6.092009e-10
5.6906835e-07
-8.9491235e-10
5.6908858e-07
-1.2029748e-09
5.6911839e-07
-1.5419708e-09
5.6915964e-07
-1.9225482e-09
5.6921509e-07
-2.3583596e-09
5.6928874e-07
-2.8674525e-09
5.6938646e-07
-3.4743933e-09
5.6951693e-07
-4.2136875e-09
5.6969344e-07
-5.1358024e-09
5.6993726e-07
-6.3174925e-09
5.7028286e-07
-7.8776511e-09
5.7078729e-07
-1.0019684e-08
5.7157758e-07
-1.3150083e-08
5.7293016e-07
-1.808398e-08
5.7518908e-07
-2.8127178e-08
5.8225124e-07
-4.5759985e-08
6.064051e-07
4.9338921e-07
5.996602e-08
4.0921418e-07
5.0425868e-08
6.2895985e-07
3.3312181e-08
6.0462289e-07
2.4758134e-08
5.8556796e-07
1.9262314e-08
5.7955233e-07
1.5270652e-08
5.7629746e-07
1.2301168e-08
5.7424703e-07
1.0044332e-08
5.7288395e-07
8.2866356e-09
5.7194241e-07
6.8848539e-09
5.7127678e-07
5.7428177e-09
5.7079453e-07
4.7936793e-09
5.7043812e-07
3.9895984e-09
5.7017101e-07
3.2955194e-09
5.6996897e-07
2.6851131e-09
5.698156e-07
2.1380852e-09
5.696996e-07
1.6383513e-09
5.6961316e-07
1.1727551e-09
5.6955082e-07
7.3013353e-10
5.6950889e-07
3.0060295e-10
5.6948502e-07
-1.2501953e-10
5.694779e-07
-5.5572258e-10
5.6948718e-07
-1.0007953e-09
5.6951342e-07
-1.4703485e-09
5.6955813e-07
-1.975919e-09
5.6962396e-07
-2.5312305e-09
5.6971495e-07
-3.1532068e-09
5.6983706e-07
-3.863385e-09
5.6999892e-07
-4.6899678e-09
5.7021304e-07
-5.6708904e-09
5.7049786e-07
-6.8584838e-09
5.7088103e-07
-8.3271161e-09
5.7140589e-07
-1.0186392e-08
5.7214214e-07
-1.259846e-08
5.7319936e-07
-1.5796822e-08
5.7477594e-07
-2.0143901e-08
5.7727724e-07
-2.6616527e-08
5.816617e-07
-3.8855555e-08
5.9449026e-07
-4.8097908e-08
6.1564745e-07
4.452913e-07
5.4823643e-08
3.5439143e-07
5.7358514e-08
6.264252e-07
4.0376302e-08
6.216049e-07
3.0689228e-08
5.9525499e-07
2.4552259e-08
5.8568931e-07
1.9861871e-08
5.8098785e-07
1.6224654e-08
5.7788425e-07
1.3381831e-08
5.7572677e-07
1.1121105e-08
5.7420313e-07
9.2906367e-09
5.7310725e-07
7.7824146e-09
5.7230275e-07
6.517834e-09
5.7170271e-07
5.4389417e-09
5.712499e-07
4.5023262e-09
5.7090558e-07
3.6748e-09
5.7064312e-07
2.9304184e-09
5.7044399e-07
2.2483811e-09
5.7029519e-07
1.6115126e-09
5.7018768e-07
1.0051301e-09
5.7011527e-07
4.1616149e-10
5.7007399e-07
-1.6757876e-10
5.7006164e-07
-7.5803125e-10
5.7007764e-07
-1.3675146e-09
5.7012291e-07
-2.0093813e-09
5.702e-07
-2.6987707e-09
5.7031335e-07
-3.4535386e-09
5.7046972e-07
-4.2954674e-09
5.7067899e-07
-5.2519011e-09
5.7095536e-07
-6.3580293e-09
5.7131917e-07
-7.660152e-09
5.7179998e-07
-9.2202519e-09
5.7244113e-07
-1.1122385e-08
5.7330803e-07
-1.348309e-08
5.7450284e-07
-1.6464071e-08
5.7618034e-07
-2.026366e-08
5.7857553e-07
-2.5148878e-08
5.8216246e-07
-3.2375101e-08
5.8888793e-07
-4.4957371e-08
6.0707253e-07
-4.6453186e-08
6.1714327e-07
3.9883812e-07
4.7900061e-08
3.064928e-07
5.9948374e-08
6.1437759e-07
4.526905e-08
6.3628397e-07
3.47503e-08
6.0577362e-07
2.8274819e-08
5.9216479e-07
2.3295507e-08
5.8596717e-07
1.9313421e-08
5.8186634e-07
1.61134e-08
5.7892679e-07
1.3510679e-08
5.7680586e-07
1.1365686e-08
5.7525225e-07
9.5731323e-09
5.7409531e-07
8.0528287e-09
5.7322301e-07
6.7436133e-09
5.7255912e-07
5.5983451e-09
5.7205085e-07
4.5801284e-09
5.7166134e-07
3.6595639e-09
5.7136455e-07
2.8127059e-09
5.7114205e-07
2.0195224e-09
5.7098087e-07
1.2627091e-09
5.7087209e-07
5.2674203e-10
5.7080995e-07
-2.0291686e-10
5.707913e-07
-9.4053209e-10
5.7081525e-07
-1.7007867e-09
5.7088316e-07
-2.4995077e-09
5.7099872e-07
-3.3544842e-09
5.7116832e-07
-4.2864544e-09
5.7140169e-07
-5.3203484e-09
5.7171289e-07
-6.4869009e-09
5.7212191e-07
-7.8247825e-09
5.7265706e-07
-9.3834767e-09
5.7335867e-07
-1.1227063e-08
5.7428472e-07
-1.3438648e-08
5.7551961e-07
-1.6126867e-08
5.7719106e-07
-1.9435769e-08
5.7948924e-07
-2.3536362e-08
5.8267612e-07
-2.8730882e-08
5.8735698e-07
-3.6587975e-08
5.9674502e-07
-4.8262275e-08
6.1874683e-07
-4.3071843e-08
6.1195284e-07
3.5576627e-07
4.0261397e-08
2.6623346e-07
5.8830443e-08
5.9581001e-07
4.8152226e-08
6.4696197e-07
3.7420764e-08
6.1650482e-07
3.0764378e-08
5.9882115e-07
2.5731447e-08
5.9100011e-07
2.1622092e-08
5.859757e-07
1.8241142e-08
5.8230774e-07
1.5435591e-08
5.7961141e-07
1.3083183e-08
5.7760466e-07
1.1087784e-08
5.7609071e-07
9.3739204e-09
5.7493687e-07
7.8822783e-09
5.7405076e-07
6.5657953e-09
5.7336733e-07
5.3866964e-09
5.7284044e-07
4.314226e-09
5.7243702e-07
3.3228659e-09
5.7213341e-07
2.3909341e-09
5.719128e-07
1.4994651e-09
5.7176356e-07
6.3128681e-10
5.7167813e-07
-2.2977219e-10
5.7165236e-07
-1.0996027e-09
5.7168508e-07
-1.9945201e-09
5.7177808e-07
-2.9319956e-09
5.719362e-07
-3.9314659e-09
5.721678e-07
-5.0152824e-09
5.7248551e-07
-6.2098666e-09
5.7290747e-07
-7.5471491e-09
5.7345919e-07
-9.0663711e-09
5.7417628e-07
-1.0816397e-08
5.751087e-07
-1.2858752e-08
5.7632708e-07
-1.5271051e-08
5.7793191e-07
-1.8151087e-08
5.800711e-07
-2.1623594e-08
5.8296175e-07
-2.5845132e-08
5.8689766e-07
-3.1222489e-08
5.9273433e-07
-3.9378912e-08
6.0490144e-07
-4.890747e-08
6.2827539e-07
-3.8430586e-08
6.0147595e-07
3.1733569e-07
3.2779958e-08
2.3345625e-07
5.5050037e-08
5.7354247e-07
4.9000947e-08
6.5301108e-07
3.8844063e-08
6.2666129e-07
3.2220393e-08
6.0544475e-07
2.7312191e-08
5.9590832e-07
2.3238518e-08
5.9004937e-07
1.9811992e-08
5.8573427e-07
1.6915585e-08
5.8250781e-07
1.444681e-08
5.8007343e-07
1.2321648e-08
5.7821587e-07
1.0472633e-08
5.7678589e-07
8.8453202e-09
5.7567807e-07
7.3953289e-09
5.7481733e-07
6.0861542e-09
5.7414961e-07
4.8874077e-09
5.7363577e-07
3.7733722e-09
5.7324745e-07
2.7218235e-09
5.7296435e-07
1.7130511e-09
5.7277233e-07
7.2902468e-10
5.7266216e-07
-2.4734133e-10
5.7262873e-07
-1.232865e-09
5.7267061e-07
-2.2447659e-09
5.7278998e-07
-3.3013527e-09
5.7299279e-07
-4.4227683e-09
5.7328921e-07
-5.6318417e-09
5.7369458e-07
-6.9550888e-09
5.7423072e-07
-8.4239186e-09
5.7492802e-07
-1.0076088e-08
5.7582845e-07
-1.1957481e-08
5.7699009e-07
-1.4124504e-08
5.784941e-07
-1.6646985e-08
5.8045439e-07
-1.961023e-08
5.8303434e-07
-2.3115721e-08
5.8646724e-07
-2.7305352e-08
5.910873e-07
-3.2691866e-08
5.9812085e-07
-4.065138e-08
6.1286096e-07
-4.7355096e-08
6.3497911e-07
-3.3203772e-08
5.8732463e-07
2.8413192e-07
2.6098565e-08
2.0736119e-07
4.9895265e-08
5.4974967e-07
4.8202283e-08
6.5470456e-07
3.9214613e-08
6.3564837e-07
3.2814044e-08
6.1184514e-07
2.8155056e-08
6.0056732e-07
2.4244518e-08
5.9395992e-07
2.0881825e-08
5.8909696e-07
1.7985529e-08
5.8540411e-07
1.5476048e-08
5.8258291e-07
1.3283978e-08
5.8040794e-07
1.1351887e-08
5.7871798e-07
9.6320251e-09
5.7739793e-07
8.0843814e-09
5.7636497e-07
6.6752234e-09
5.7555877e-07
5.3758203e-09
5.7493517e-07
4.1613527e-09
5.7446192e-07
3.0099868e-09
5.7411572e-07
1.902074e-09
5.7388024e-07
8.1944371e-10
5.7374479e-07
-2.5523623e-10
5.7370341e-07
-1.3390595e-09
5.7375443e-07
-2.449478e-09
5.739004e-07
-3.6049095e-09
5.7414822e-07
-4.825385e-09
5.7450969e-07
-6.1332685e-09
5.7500246e-07
-7.5540746e-09
5.7565153e-07
-9.1174213e-09
5.7649137e-07
-1.0858143e-08
5.7756917e-07
-1.2817565e-08
5.7894952e-07
-1.5045154e-08
5.8072169e-07
-1.7600644e-08
5.8300988e-07
-2.0554047e-08
5.8598775e-07
-2.3981407e-08
5.898946e-07
-2.8017906e-08
5.9512379e-07
-3.3259739e-08
6.0336268e-07
-4.0608572e-08
6.2020979e-07
-4.4392857e-08
6.3876339e-07
-2.8008619e-08
5.7094039e-07
2.561233e-07
2.0472715e-08
1.8689281e-07
4.4306665e-08
5.2592131e-07
4.628503e-08
6.5272747e-07
3.8808013e-08
6.4312467e-07
3.2758647e-08
6.1789419e-07
2.8402905e-08
6.0492305e-07
2.4734819e-08
5.9762802e-07
2.1515673e-08
5.9231611e-07
1.8689611e-08
5.8823017e-07
1.6200113e-08
5.8507241e-07
1.3993362e-08
5.8261469e-07
1.2022891e-08
5.8068845e-07
1.0248647e-08
5.7917218e-07
8.636024e-09
5.7797759e-07
7.1550406e-09
5.7703976e-07
5.7795227e-09
5.7631069e-07
4.4863619e-09
5.7575508e-07
3.2548472e-09
5.7534723e-07
2.0660534e-09
5.7506904e-07
9.0228112e-10
5.7490856e-07
-2.5346884e-10
5.7485916e-07
-1.4179955e-09
5.7491896e-07
-2.6083999e-09
5.7509081e-07
-3.8425921e-09
5.7538241e-07
-5.1398215e-09
5.7580692e-07
-6.5212482e-09
5.7638389e-07
-8.0105668e-09
5.7714085e-07
-9.6346975e-09
5.781155e-07
-1.1424559e-08
5.7935903e-07
-1.3415871e-08
5.8094083e-07
-1.5650061e-08
5.8295588e-07
-1.8175482e-08
5.8553531e-07
-2.1045917e-08
5.8885818e-07
-2.4316316e-08
5.93165e-07
-2.8131102e-08
5.9893858e-07
-3.3125505e-08
6.0835709e-07
-3.9583879e-08
6.2666816e-07
-4.0678908e-08
6.3985842e-07
-2.3198243e-08
5.5345973e-07
2.3292505e-07
1.5909024e-08
1.7098908e-07
3.8825997e-08
5.0301194e-07
4.3687107e-08
6.478688e-07
3.7865144e-08
6.4894588e-07
3.2257048e-08
6.2350176e-07
2.8210731e-08
6.0896932e-07
2.4817738e-08
6.0102103e-07
2.178915e-08
5.9534471e-07
1.9080783e-08
5.9093854e-07
1.6655978e-08
5.8749722e-07
1.447538e-08
5.8479529e-07
1.2503067e-08
5.8266077e-07
1.070682e-08
5.8096843e-07
9.0578411e-09
5.7962657e-07
7.5304033e-09
5.7856719e-07
6.1014326e-09
5.7773966e-07
4.7500768e-09
5.7710644e-07
3.4572744e-09
5.7664004e-07
2.2053295e-09
5.7632098e-07
9.7749788e-10
5.761364e-07
-2.4241449e-10
5.7607907e-07
-1.470444e-09
5.7614699e-07
-2.7228665e-09
5.7634323e-07
-4.016595e-09
5.7667614e-07
-5.3695849e-09
5.7715991e-07
-6.8012563e-09
5.7781556e-07
-8.3329279e-09
5.7867252e-07
-9.9882634e-09
5.7977084e-07
-1.1793735e-08
5.811645e-07
-1.3779049e-08
5.8292614e-07
-1.5977511e-08
5.8515434e-07
-1.8426436e-08
5.8798423e-07
-2.1164779e-08
5.9159653e-07
-2.4233875e-08
5.962341e-07
-2.7798757e-08
6.0250346e-07
-3.247252e-08
6.1303085e-07
-3.7872084e-08
6.3206773e-07
-3.6655387e-08
6.3864173e-07
-1.8941391e-08
5.3574573e-07
2.1398366e-07
1.2308195e-08
1.586873e-07
3.3751596e-08
4.8157855e-07
4.0737135e-08
6.4088725e-07
3.6563282e-08
6.5311906e-07
3.146206e-08
6.2860222e-07
2.7712102e-08
6.1271916e-07
2.4595989e-08
6.0413717e-07
2.177871e-08
5.9816199e-07
1.9215446e-08
5.9350181e-07
1.6884886e-08
5.8982778e-07
1.4759944e-08
5.8692023e-07
1.2813941e-08
5.8460677e-07
1.1021899e-08
5.8276047e-07
9.3606593e-09
5.8128781e-07
7.8088299e-09
5.8011902e-07
6.3466561e-09
5.7920184e-07
4.9558364e-09
5.7849726e-07
3.6192913e-09
5.7797658e-07
2.3209015e-09
5.7761937e-07
1.0452324e-09
5.7741207e-07
-2.2274918e-10
5.7734705e-07
-1.4979602e-09
5.774222e-07
-2.7954939e-09
5.7764076e-07
-4.1309079e-09
5.7801155e-07
-5.5205105e-09
5.7854951e-07
-6.9816424e-09
5.792767e-07
-8.5329446e-09
5.8022382e-07
-1.01946e-08
5.8143249e-07
-1.1988549e-08
5.8295845e-07
-1.3938664e-08
5.8487626e-07
-1.6070776e-08
5.8728646e-07
-1.8412408e-08
5.9032586e-07
-2.0990015e-08
5.9417413e-07
-2.3838335e-08
5.9908242e-07
-2.7145517e-08
6.0581065e-07
-3.1442469e-08
6.173278e-07
-3.5714815e-08
6.3634008e-07
-3.2622766e-08
6.3554968e-07
-1.5298958e-08
5.1842192e-07
1.9868471e-07
9.5314215e-09
1.4916371e-07
2.9235054e-08
4.6188776e-07
3.768098e-08
6.3244735e-07
3.503963e-08
6.5576003e-07
3.0483504e-08
6.3315729e-07
2.7010141e-08
6.161923e-07
2.4155156e-08
6.0699218e-07
2.1552297e-08
6.0076487e-07
1.914675e-08
5.9590735e-07
1.6927735e-08
5.9204679e-07
1.4878089e-08
5.8896988e-07
1.297882e-08
5.8650604e-07
1.1211227e-08
5.8452806e-07
9.5572494e-09
5.8294179e-07
7.9995924e-09
5.8167668e-07
6.52178e-09
5.8067965e-07
5.1081445e-09
5.7991089e-07
3.7437461e-09
5.7934098e-07
2.414246e-09
5.7894888e-07
1.1057481e-09
5.7872056e-07
-1.9537777e-10
5.7864818e-07
-1.5026824e-09
5.7872951e-07
-2.8298326e-09
5.7896791e-07
-4.1907997e-09
5.7937252e-07
-5.6000384e-09
5.7995875e-07
-7.0726484e-09
5.8074931e-07
-8.6245076e-09
5.8177568e-07
-1.0272358e-08
5.8308034e-07
-1.2033848e-08
5.8471994e-07
-1.3927528e-08
5.8676994e-07
-1.5972689e-08
5.8933162e-07
-1.8188521e-08
5.925417e-07
-2.059162e-08
5.9657723e-07
-2.3216021e-08
6.0170682e-07
-2.6268808e-08
6.0886343e-07
-3.0152433e-08
6.2121143e-07
-3.3315363e-08
6.3950301e-07
-2.8785174e-08
6.3101949e-07
-1.2265614e-08
5.0190236e-07
1.8641909e-07
7.4298203e-09
1.4174355e-07
2.5323456e-08
4.4401035e-07
3.4688708e-08
6.2309068e-07
3.3403007e-08
6.5704589e-07
2.9402975e-08
6.3715598e-07
2.6183517e-08
6.1941137e-07
2.3563873e-08
6.0961183e-07
2.1166831e-08
6.0316193e-07
1.8921245e-08
5.9815294e-07
1.6821957e-08
5.9414608e-07
1.485943e-08
5.9093241e-07
1.3020826e-08
5.8834464e-07
1.1292631e-08
5.8625626e-07
9.6611808e-09
5.8457324e-07
8.1128529e-09
5.8322501e-07
6.6342339e-09
5.8215827e-07
5.2122136e-09
5.8133291e-07
3.8340108e-09
5.8071918e-07
2.4871472e-09
5.8029574e-07
1.1593845e-09
5.8004833e-07
-1.6136551e-10
5.7996893e-07
-1.4871414e-09
5.8005528e-07
-2.8300442e-09
5.8031082e-07
-4.2023392e-09
5.8074482e-07
-5.6165459e-09
5.8137296e-07
-7.0855033e-09
5.8221826e-07
-8.6224001e-09
5.8331258e-07
-1.0240753e-08
5.846987e-07
-1.1954328e-08
5.8643352e-07
-1.3777031e-08
5.8859264e-07
-1.5722624e-08
5.9127721e-07
-1.78035e-08
5.9462257e-07
-2.0029317e-08
5.9880305e-07
-2.2438148e-08
6.0411565e-07
-2.5247565e-08
6.1167285e-07
-2.8702339e-08
6.246662e-07
-3.0834346e-08
6.4163501e-07
-2.5263913e-08
6.2544906e-07
-9.7941332e-09
4.8643259e-07
1.7662496e-07
5.862846e-09
1.3589278e-07
2.1994548e-08
4.2789889e-07
3.186132e-08
6.1323567e-07
3.1732747e-08
6.5717549e-07
2.8279137e-08
6.4060796e-07
2.5291019e-08
6.2239889e-07
2.2876377e-08
6.1202646e-07
2.066901e-08
6.0536933e-07
1.857839e-08
6.0024357e-07
1.6600383e-08
5.9612409e-07
1.473084e-08
5.9280195e-07
1.2961629e-08
5.9011386e-07
1.1283341e-08
5.8793455e-07
9.6859395e-09
5.8617065e-07
8.1589697e-09
5.8475198e-07
6.6917612e-09
5.8362548e-07
5.27358e-09
5.8275109e-07
3.8937207e-09
5.8209904e-07
2.5415505e-09
5.8164791e-07
1.2065161e-09
5.8138336e-07
-1.2187638e-10
5.8129732e-07
-1.4540934e-09
5.813875e-07
-2.8006185e-09
5.8165734e-07
-4.171983e-09
5.8211618e-07
-5.578787e-09
5.8277976e-07
-7.0316916e-09
5.8367117e-07
-8.5413766e-09
5.8482226e-07
-1.0118449e-08
5.8627577e-07
-1.17733e-08
5.8808837e-07
-1.3515937e-08
5.9033528e-07
-1.5355637e-08
5.9311691e-07
-1.7299574e-08
5.9656651e-07
-1.9353446e-08
6.0085692e-07
-2.1562533e-08
6.0632474e-07
-2.4144006e-08
6.1425433e-07
-2.7171637e-08
6.2769383e-07
-2.8384909e-08
6.4284829e-07
-2.2113267e-08
6.1917742e-07
-7.8155956e-09
4.7213491e-07
1.6880937e-07
4.7079058e-09
1.3120026e-07
1.9189389e-08
4.134425e-07
2.9246215e-08
6.0319451e-07
3.008003e-08
6.5634394e-07
2.715004e-08
6.4353606e-07
2.4373523e-08
6.2517454e-07
2.2133661e-08
6.1426626e-07
2.0095999e-08
6.0740703e-07
1.8150742e-08
6.0218883e-07
1.6290979e-08
5.9798385e-07
1.4515912e-08
5.9457702e-07
1.2820797e-08
5.9180897e-07
1.119932e-08
5.8955602e-07
9.6443232e-09
5.8772564e-07
8.1479846e-09
5.8624832e-07
6.7020084e-09
5.8507146e-07
5.2977943e-09
5.8415531e-07
3.9265622e-09
5.8347028e-07
2.5794402e-09
5.8299503e-07
1.2475186e-09
5.8271529e-07
-7.8119406e-11
5.8262296e-07
-1.4063772e-09
5.8271576e-07
-2.7461384e-09
5.829971e-07
-4.1062429e-09
5.8347629e-07
-5.4954576e-09
5.8416898e-07
-6.9224182e-09
5.8509813e-07
-8.3955413e-09
5.8629539e-07
-9.9228969e-09
5.8780313e-07
-1.1512041e-08
5.8967752e-07
-1.3169841e-08
5.9199308e-07
-1.4902105e-08
5.9484918e-07
-1.6712292e-08
5.983767e-07
-1.8604798e-08
6.0274943e-07
-2.0633477e-08
6.0835342e-07
-2.3003602e-08
6.1662445e-07
-2.5617957e-08
6.3030819e-07
-2.6038087e-08
6.4326842e-07
-1.9341698e-08
6.1248103e-07
-6.2539868e-09
4.590472e-07
1.6255538e-07
3.8628295e-09
1.273574e-07
1.683518e-08
4.0050118e-07
2.6856502e-08
5.9319359e-07
2.847429e-08
6.5473014e-07
2.6037424e-08
6.4597087e-07
2.3456785e-08
6.2775398e-07
2.1364724e-08
6.1635818e-07
1.9475999e-08
6.092958e-07
1.7664185e-08
6.0400066e-07
1.5916832e-08
5.9973121e-07
1.4234743e-08
5.9625911e-07
1.2615458e-08
5.9342826e-07
1.1054886e-08
5.911166e-07
9.5480595e-09
5.8923247e-07
8.0892738e-09
5.8770711e-07
6.6722297e-09
5.864885e-07
5.2901892e-09
5.8553735e-07
3.9361085e-09
5.8482436e-07
2.6027456e-09
5.843284e-07
1.2827441e-09
5.8403529e-07
-3.1302608e-11
5.8393701e-07
-1.3467994e-09
5.8403126e-07
-2.6710952e-09
5.843214e-07
-4.0114321e-09
5.8481663e-07
-5.3748774e-09
5.8553242e-07
-6.768236e-09
5.8649149e-07
-8.1979388e-09
5.8772509e-07
-9.6699065e-09
5.892751e-07
-1.1189392e-08
5.91197e-07
-1.2760826e-08
5.9356452e-07
-1.4387453e-08
5.964758e-07
-1.6070345e-08
6.0005959e-07
-1.7814706e-08
6.0449379e-07
-1.9682731e-08
6.1022144e-07
-2.1857232e-08
6.1879895e-07
-2.4080028e-08
6.3253098e-07
-2.3832629e-08
6.4302102e-07
-1.6929866e-08
6.0557827e-07
-5.0346597e-09
4.47152e-07
1.5752072e-07
3.2451681e-09
1.2413845e-07
1.4857837e-08
3.8892689e-07
2.4684704e-08
5.8339287e-07
2.692973e-08
6.5249138e-07
2.4951698e-08
6.4794678e-07
2.2555262e-08
6.3014884e-07
2.0588739e-08
6.1832445e-07
1.8829395e-08
6.1105519e-07
1.713851e-08
6.0569157e-07
1.5496367e-08
6.0137335e-07
1.3903944e-08
5.9785153e-07
1.2360191e-08
5.9497201e-07
1.0862525e-08
5.9261426e-07
9.4075903e-09
5.9068741e-07
7.9913337e-09
5.8912336e-07
6.609094e-09
5.8787074e-07
5.2557225e-09
5.8689072e-07
3.9257054e-09
5.8615438e-07
2.6132747e-09
5.8564083e-07
1.3125048e-09
5.8533606e-07
1.7396676e-11
5.8523212e-07
-1.2780493e-09
5.853267e-07
-2.5797539e-09
5.8562311e-07
-3.8934856e-09
5.8613036e-07
-5.2247728e-09
5.8686371e-07
-6.5788018e-09
5.8784552e-07
-7.9603007e-09
5.8910659e-07
-9.373412e-09
5.9068821e-07
-1.0821566e-08
5.9264516e-07
-1.2307364e-08
5.9505031e-07
-1.3832247e-08
5.9800069e-07
-1.5395999e-08
6.0162334e-07
-1.7006148e-08
6.0610394e-07
-1.8731769e-08
6.1194707e-07
-2.072451e-08
6.2079169e-07
-2.2581882e-08
6.3438836e-07
-2.1784548e-08
6.4222368e-07
-1.4843114e-08
5.9863683e-07
-4.0889729e-09
4.3639786e-07
1.5343175e-07
2.7904664e-09
1.2138232e-07
1.318862e-08
3.7857632e-07
2.2712095e-08
5.7390249e-07
2.5450287e-08
6.4976239e-07
2.3895814e-08
6.4949923e-07
2.1675584e-08
6.3236705e-07
1.981748e-08
6.2018214e-07
1.8170297e-08
6.1270241e-07
1.6588355e-08
6.0727354e-07
1.5043879e-08
6.0291783e-07
1.3536899e-08
5.9935851e-07
1.2067098e-08
5.9644181e-07
1.0632869e-08
5.9404849e-07
9.2319922e-09
5.9208828e-07
7.8616766e-09
5.9049368e-07
6.5185789e-09
5.8921384e-07
5.1988835e-09
5.8821042e-07
3.8984017e-09
5.8745486e-07
2.6126738e-09
5.8692656e-07
1.3370669e-09
5.8661167e-07
6.6866411e-11
5.8650232e-07
-1.2026373e-09
5.8659621e-07
-2.4760623e-09
5.8689653e-07
-3.757845e-09
5.8741214e-07
-5.0521454e-09
5.8815801e-07
-6.3627437e-09
5.8915612e-07
-7.6929312e-09
5.9043678e-07
-9.0454052e-09
5.9204068e-07
-1.0422182e-08
5.9402193e-07
-1.1824528e-08
5.9645266e-07
-1.3252685e-08
5.9942885e-07
-1.4706028e-08
6.0307669e-07
-1.6195329e-08
6.0759325e-07
-1.7794235e-08
6.1354597e-07
-1.9616758e-08
6.2261422e-07
-2.1136487e-08
6.3590809e-07
-1.9894457e-08
6.4098166e-07
-1.3039866e-08
5.9178224e-07
-3.3568015e-09
4.2671479e-07
1.5007495e-07
2.4499104e-09
1.1897658e-07
1.1767453e-08
3.693179e-07
2.0915037e-08
5.6479643e-07
2.403341e-08
6.4665695e-07
2.2868017e-08
6.5066292e-07
2.0819156e-08
6.3441341e-07
1.9057365e-08
6.2194331e-07
1.7508029e-08
6.1425177e-07
1.6024254e-08
6.0875736e-07
1.4570217e-08
6.0437188e-07
1.3144172e-08
6.0078456e-07
1.1746041e-08
5.9783995e-07
1.0374797e-08
5.9541974e-07
9.0290033e-09
5.9343408e-07
7.7068136e-09
5.9181587e-07
6.405933e-09
5.9051472e-07
5.1236515e-09
5.894927e-07
3.8569141e-09
5.887216e-07
2.602407e-09
5.8818107e-07
1.3566474e-09
5.8785743e-07
1.16075e-10
5.8774289e-07
-1.1228591e-09
5.8783514e-07
-2.3636006e-09
5.8813728e-07
-3.6093997e-09
5.8865794e-07
-4.8632169e-09
5.8941183e-07
-6.1276249e-09
5.9042053e-07
-7.4047159e-09
5.9171387e-07
-8.6960241e-09
5.9333199e-07
-1.0002483e-08
5.9532839e-07
-1.1324404e-08
5.9777458e-07
-1.266129e-08
6.0076573e-07
-1.4012759e-08
6.0442816e-07
-1.5393198e-08
6.0897369e-07
-1.6878025e-08
6.150308e-07
-1.8539378e-08
6.2427557e-07
-1.974891e-08
6.3711762e-07
-1.815349e-08
6.3938624e-07
-1.147741e-08
5.8510616e-07
-2.7875259e-09
4.1802491e-07
1.4728743e-07
2.1875687e-09
1.1684446e-07
1.054399e-08
3.61035e-07
1.9269077e-08
5.561231e-07
2.2672993e-08
6.4327065e-07
2.1863904e-08
6.5147091e-07
1.9984118e-08
6.362902e-07
1.8311087e-08
6.2361547e-07
1.6848386e-08
6.1571446e-07
1.5453581e-08
6.1015221e-07
1.4083473e-08
6.0574199e-07
1.2733991e-08
6.0213404e-07
1.1404944e-08
5.9916899e-07
1.0095626e-08
5.9672906e-07
8.8051269e-09
5.9472458e-07
7.532303e-09
5.930887e-07
6.275691e-09
5.9177134e-07
5.033494e-09
5.907349e-07
3.8036206e-09
5.8995147e-07
2.5837509e-09
5.8940094e-07
1.3714145e-09
5.8906976e-07
1.6407545e-10
5.8895023e-07
-1.0407821e-09
5.8904e-07
-2.2455634e-09
5.8934206e-07
-3.4524743e-09
5.8986485e-07
-4.6634326e-09
5.9062279e-07
-5.8799812e-09
5.9163708e-07
-7.1032154e-09
5.9293711e-07
-8.333735e-09
5.9456251e-07
-9.5716439e-09
5.965663e-07
-1.0816571e-08
5.9901951e-07
-1.2067608e-08
6.0201677e-07
-1.3325048e-08
6.056856e-07
-1.4606799e-08
6.1025544e-07
-1.5987038e-08
6.1641104e-07
-1.7493889e-08
6.2578242e-07
-1.8419152e-08
6.3804288e-07
-1.6547918e-08
6.37515e-07
-1.0115513e-08
5.7867376e-07
-2.3399189e-09
4.1024932e-07
1.4494751e-07
1.9776509e-09
1.1493465e-07
9.4772269e-09
3.5362672e-07
1.7751285e-08
5.4791325e-07
2.1361515e-08
6.3968381e-07
2.0877998e-08
6.5195427e-07
1.9166859e-08
6.3799782e-07
1.7578944e-08
6.2520219e-07
1.6194685e-08
6.1709866e-07
1.4881377e-08
6.1146557e-07
1.3589619e-08
6.0703377e-07
1.2312712e-08
6.0341095e-07
1.1050134e-08
6.0043157e-07
9.8013402e-09
5.9797785e-07
8.5657797e-09
5.9596014e-07
7.3428415e-09
5.9431164e-07
6.1317272e-09
5.9298245e-07
4.9313962e-09
5.9193523e-07
3.7405755e-09
5.9114229e-07
2.5578037e-09
5.9058371e-07
1.3814951e-09
5.9024607e-07
2.1001505e-10
5.9012172e-07
-9.5824158e-10
5.9020826e-07
-2.1247647e-09
5.9050858e-07
-3.2908472e-09
5.9103094e-07
-4.4575051e-09
5.9178945e-07
-5.6254043e-09
5.9280498e-07
-6.7948078e-09
5.9410651e-07
-7.9655566e-09
5.9573326e-07
-9.1371058e-09
5.9773785e-07
-1.0308583e-08
6.0019099e-07
-1.1478873e-08
6.0318706e-07
-1.2649186e-08
6.0685591e-07
-1.3840468e-08
6.1144672e-07
-1.5122698e-08
6.1769327e-07
-1.6479668e-08
6.2713939e-07
-1.7144545e-08
6.3870776e-07
-1.506253e-08
6.3543299e-07
-8.9186556e-09
5.7252989e-07
-1.9814693e-09
4.0331213e-07
1.4296604e-07
1.8020833e-09
1.1321375e-07
8.5344126e-09
3.4700737e-07
1.6341389e-08
5.4018557e-07
2.0091452e-08
6.3596425e-07
1.9904863e-08
6.5214209e-07
1.8363177e-08
6.3953548e-07
1.6859914e-08
6.2670389e-07
1.5548662e-08
6.1840978e-07
1.4311077e-08
6.1270322e-07
1.3093076e-08
6.0825179e-07
1.1885267e-08
6.0461876e-07
1.0686669e-08
6.0163017e-07
9.49683e-09
5.9916769e-07
8.3154654e-09
5.9714151e-07
7.1423854e-09
5.9548472e-07
5.9773371e-09
5.941475e-07
4.8199153e-09
5.9309266e-07
3.6695453e-09
5.9229266e-07
2.5255081e-09
5.9172775e-07
1.3869883e-09
5.9138459e-07
2.5313993e-10
5.9125556e-07
-8.7684423e-10
5.9133824e-07
-2.0036531e-09
5.9163539e-07
-3.1277853e-09
5.9215507e-07
-4.249477e-09
5.9291114e-07
-5.3686443e-09
5.9392415e-07
-6.4848469e-09
5.9522272e-07
-7.5972948e-09
5.9684571e-07
-8.704912e-09
5.9884547e-07
-9.8064265e-09
6.012925e-07
-1.0900624e-08
6.0428126e-07
-1.1989699e-08
6.0794499e-07
-1.3096882e-08
6.125539e-07
-1.4285213e-08
6.188816e-07
-1.5495368e-08
6.2834955e-07
-1.5921599e-08
6.3913399e-07
-1.3682843e-08
6.3319423e-07
-7.856921e-09
5.6670396e-07
-1.6873935e-09
3.9714261e-07
1.4127864e-07
1.6484776e-09
1.1166069e-07
7.6897576e-09
3.4110512e-07
1.5022213e-08
5.3295064e-07
1.8856175e-08
6.3216944e-07
1.8939871e-08
6.5206154e-07
1.7569117e-08
6.4090173e-07
1.6152494e-08
6.2811851e-07
1.4911209e-08
6.1965083e-07
1.3745125e-08
6.1386937e-07
1.259723e-08
6.0939971e-07
1.1455566e-08
6.0576042e-07
1.0318659e-08
6.0276708e-07
9.1861388e-09
6.0030021e-07
8.0579566e-09
5.9826969e-07
6.9342839e-09
5.9660839e-07
5.8153345e-09
5.9526645e-07
4.7012492e-09
5.9420674e-07
3.5920575e-09
5.9340186e-07
2.4876844e-09
5.9283212e-07
1.3879858e-09
5.9248429e-07
2.9280405e-10
5.9235075e-07
-7.9797133e-10
5.9242902e-07
-1.8843311e-09
5.9272175e-07
-2.9660829e-09
5.9323682e-07
-4.0427878e-09
5.9398785e-07
-5.1137143e-09
5.9499507e-07
-6.1778169e-09
5.9628682e-07
-7.2337613e-09
5.9790166e-07
-8.2800072e-09
5.9989172e-07
-9.3149249e-09
6.0232742e-07
-1.0337231e-08
6.0530357e-07
-1.1350027e-08
6.0895779e-07
-1.2377891e-08
6.1358177e-07
-1.3474539e-08
6.1997825e-07
-1.453995e-08
6.2941496e-07
-1.4747326e-08
6.3934137e-07
-1.2396483e-08
6.3084339e-07
-6.9061146e-09
5.612136e-07
-1.439504e-09
3.91676e-07
1.3983914e-07
1.5084816e-09
1.1026265e-07
6.9231865e-09
3.3586029e-07
1.3779766e-08
5.2621347e-07
1.7650528e-08
6.2834829e-07
1.7979726e-08
6.5173801e-07
1.6781576e-08
6.42095e-07
1.5455345e-08
6.2944224e-07
1.4282953e-08
6.2082285e-07
1.3185477e-08
6.1496691e-07
1.210485e-08
6.1048037e-07
1.1026851e-08
6.0683843e-07
9.9495415e-09
6.0384439e-07
8.8726763e-09
6.0137708e-07
7.7964582e-09
5.9934591e-07
6.7214005e-09
5.9768345e-07
5.6481387e-09
5.9633971e-07
4.5772989e-09
5.9527758e-07
3.5094414e-09
5.9446972e-07
2.4450554e-09
5.9389651e-07
1.3845836e-09
5.9354477e-07
3.2846872e-10
5.9340686e-07
-7.2279235e-10
5.9348028e-07
-1.7685829e-09
5.9376754e-07
-2.8081095e-09
5.9427635e-07
-3.8403455e-09
5.9502009e-07
-4.8639939e-09
5.9601872e-07
-5.8774759e-09
5.973003e-07
-6.8789679e-09
5.9890315e-07
-7.8664948e-09
6.0087925e-07
-8.8380674e-09
6.03299e-07
-9.7923047e-09
6.0625781e-07
-1.0733032e-08
6.0989851e-07
-1.1685139e-08
6.1453388e-07
-1.2691061e-08
6.2098417e-07
-1.3613419e-08
6.3033732e-07
-1.3620153e-08
6.3934811e-07
-1.1194026e-08
6.2841727e-07
-6.0476372e-09
5.5606721e-07
-1.2247899e-09
3.8685315e-07
1.3861434e-07
1.3765124e-09
1.0901214e-07
6.2192808e-09
3.3122322e-07
1.2603199e-08
5.1997495e-07
1.6471233e-08
6.245424e-07
1.7022853e-08
6.5119535e-07
1.5998746e-08
6.4311394e-07
1.4767759e-08
6.306702e-07
1.3664683e-08
6.2192538e-07
1.2633972e-08
6.1599767e-07
1.1618406e-08
6.1149598e-07
1.0601945e-08
6.078549e-07
9.582283e-09
6.0486405e-07
8.5593729e-09
6.0239999e-07
7.5337196e-09
6.0037156e-07
6.5061901e-09
5.9871098e-07
5.4778243e-09
5.9736808e-07
4.4496936e-09
5.9630571e-07
3.4228355e-09
5.9549657e-07
2.3982388e-09
5.9492111e-07
1.3768612e-09
5.9456615e-07
3.5966979e-10
5.9442406e-07
-6.5231001e-10
5.9449226e-07
-1.6579334e-09
5.9477317e-07
-2.6558833e-09
5.952743e-07
-3.6446194e-09
5.9600882e-07
-4.6223447e-09
5.9699645e-07
-5.5870003e-09
5.9826496e-07
-6.5363056e-09
5.9985246e-07
-7.4678547e-09
6.018108e-07
-8.3792708e-09
6.0421041e-07
-9.2690106e-09
6.0714755e-07
-1.0141363e-08
6.1077087e-07
-1.1020473e-08
6.1541299e-07
-1.1936024e-08
6.2189973e-07
-1.2717264e-08
6.3111856e-07
-1.2540483e-08
6.3917133e-07
-1.0069448e-08
6.2594623e-07
-5.2682706e-09
5.5126603e-07
-1.0344005e-09
3.8261928e-07
1.3757994e-07
1.2488749e-09
1.0790489e-07
5.5664994e-09
3.2715193e-07
1.1484791e-08
5.1423249e-07
1.5317205e-08
6.2078696e-07
1.6069682e-08
6.5045594e-07
1.5220409e-08
6.4395792e-07
1.4089961e-08
6.3179703e-07
1.305762e-08
6.2295698e-07
1.2092561e-08
6.1696276e-07
1.1140258e-08
6.1244833e-07
1.0183416e-08
6.0881175e-07
9.2195007e-09
6.0582797e-07
8.2487649e-09
6.0337073e-07
7.2720884e-09
6.0134824e-07
6.2907261e-09
5.9969234e-07
5.3061234e-09
5.9835268e-07
4.3197749e-09
5.9729206e-07
3.3331551e-09
5.964832e-07
2.3477001e-09
5.9590656e-07
1.3648221e-09
5.9554903e-07
3.8594595e-10
5.9540293e-07
-5.8744336e-10
5.9546566e-07
-1.5537431e-09
5.9573947e-07
-2.5111808e-09
5.9623174e-07
-3.4577653e-09
5.9695541e-07
-4.3912542e-09
5.9792994e-07
-5.309148e-09
5.9918285e-07
-6.2087287e-09
6.0075204e-07
-7.0871495e-09
6.0268922e-07
-7.9416058e-09
6.0506487e-07
-8.7703073e-09
6.0797625e-07
-9.5777042e-09
6.1157827e-07
-1.0386199e-08
6.1622148e-07
-1.1211758e-08
6.2272529e-07
-1.1854668e-08
6.3176147e-07
-1.151098e-08
6.3882764e-07
-9.0202828e-09
6.2345554e-07
-4.559922e-09
5.4680568e-07
-8.6366258e-10
3.7892302e-07
1.3671628e-07
1.1232405e-09
1.0693827e-07
4.9567172e-09
3.2360952e-07
1.042001e-08
5.0898003e-07
1.4189844e-08
6.171114e-07
1.5122871e-08
6.4954105e-07
1.4448132e-08
6.4462745e-07
1.342331e-08
6.3281762e-07
1.2463597e-08
6.239157e-07
1.1563461e-08
6.178629e-07
1.0672793e-08
6.1333905e-07
9.7736844e-09