/*--------------------------------*- C++ -*----------------------------------*\
  =========                 |
  \\      /  F ield         | OpenFOAM: The Open Source CFD Toolbox
   \\    /   O peration     | Website:  https://openfoam.org
    \\  /    A nd           | Version:  10
     \\/     M anipulation  |
\*---------------------------------------------------------------------------*/
FoamFile
{
    format      ascii;
    class       surfaceScalarField;
    location    "0.09";
    object      phi_0;
}
// * * * * * * * * * * * * * * * * * * * * * * * * * * * * * * * * * * * * * //

dimensions      [1 0 -1 0 0 0 0];

internalField   nonuniform List<scalar> 
7860
(
3.9883495e-08
5.2882456e-07
1.2183172e-08
5.9640808e-07
7.418079e-09
5.7347283e-07
5.4882207e-09
5.7063756e-07
4.1033931e-09
5.7009249e-07
3.1895315e-09
5.696215e-07
2.5477437e-09
5.6934941e-07
2.0683308e-09
5.6918702e-07
1.69894e-09
5.6907699e-07
1.4070222e-09
5.6899951e-07
1.1707628e-09
5.6894384e-07
9.7538248e-10
5.6890296e-07
8.1052243e-10
5.6887243e-07
6.686785e-10
5.6884941e-07
5.4426444e-10
5.6883198e-07
4.3300739e-10
5.6881882e-07
3.3154205e-10
5.6880902e-07
2.3712976e-10
5.6880197e-07
1.4745653e-10
5.6879723e-07
6.0479978e-11
5.6879453e-07
-2.5693752e-11
5.6879373e-07
-1.1291735e-10
5.6879478e-07
-2.0311001e-10
5.6879774e-07
-2.9836204e-10
5.6880281e-07
-4.0106794e-10
5.6881026e-07
-5.1408987e-10
5.6882058e-07
-6.409786e-10
5.6883445e-07
-7.8628697e-10
5.6885287e-07
-9.5603094e-10
5.6887731e-07
-1.1583968e-09
5.6890994e-07
-1.4049152e-09
5.689541e-07
-1.7124332e-09
5.6901511e-07
-2.105977e-09
5.6910114e-07
-2.6254818e-09
5.6922711e-07
-3.3533986e-09
5.6943554e-07
-4.4455386e-09
5.6979978e-07
-5.9931379e-09
5.7025527e-07
-9.493526e-09
5.7220809e-07
-2.9557902e-08
5.8877212e-07
5.3915001e-07
5.9642956e-08
4.6918181e-07
3.6631143e-08
6.1941982e-07
2.2594708e-08
5.8750923e-07
1.6218195e-08
5.7701407e-07
1.2254124e-08
5.7405657e-07
9.569835e-09
5.7230579e-07
7.6417475e-09
5.712775e-07
6.2017443e-09
5.7062703e-07
5.0941366e-09
5.701846e-07
4.2187817e-09
5.6987486e-07
3.5102883e-09
5.6965233e-07
2.9244364e-09
5.6948881e-07
2.4301339e-09
5.6936673e-07
2.0048627e-09
5.6927468e-07
1.631868e-09
5.6920497e-07
1.2983347e-09
5.6915235e-07
9.9416953e-10
5.6911319e-07
7.1115942e-10
5.6908498e-07
4.4236466e-10
5.6906602e-07
1.8165983e-10
5.6905523e-07
-7.6635666e-11
5.6905202e-07
-3.3808026e-10
5.6905622e-07
-6.0842298e-10
5.6906809e-07
-8.9393554e-10
5.6908832e-07
-1.2017998e-09
5.6911813e-07
-1.5405997e-09
5.6915938e-07
-1.9209848e-09
5.6921483e-07
-2.3566099e-09
5.692885e-07
-2.8655251e-09
5.6938623e-07
-3.4723004e-09
5.6951672e-07
-4.2114454e-09
5.6969324e-07
-5.1334325e-09
5.6993709e-07
-6.3150232e-09
5.7028273e-07
-7.8751204e-09
5.7078721e-07
-1.0017141e-08
5.7157756e-07
-1.3147595e-08
5.7293024e-07
-1.8081636e-08
5.7518931e-07
-2.8124835e-08
5.8225129e-07
-4.5757931e-08
6.0640522e-07
4.9339208e-07
5.9963774e-08
4.0921855e-07
5.0422675e-08
6.2896089e-07
3.3309171e-08
6.0462263e-07
2.4755095e-08
5.8556814e-07
1.9259224e-08
5.7955244e-07
1.5267581e-08
5.7629744e-07
1.229817e-08
5.7424691e-07
1.0041454e-08
5.7288374e-07
8.2839133e-09
5.7194214e-07
6.8823189e-09
5.7127646e-07
5.7404969e-09
5.7079416e-07
4.7915953e-09
5.7043771e-07
3.9877706e-09
5.7017056e-07
3.2939642e-09
5.6996849e-07
2.6838444e-09
5.6981509e-07
2.1371151e-09
5.6969908e-07
1.63769e-09
5.6961261e-07
1.1724113e-09
5.6955026e-07
7.3011482e-10
5.6950832e-07
3.0091565e-10
5.6948443e-07
-1.2437019e-10
5.6947731e-07
-5.5473252e-10
5.6948658e-07
-9.9946176e-10
5.6951282e-07
-1.4686703e-09
5.6955753e-07
-1.9738967e-09
5.6962335e-07
-2.5288669e-09
5.6971435e-07
-3.1505076e-09
5.6983648e-07
-3.8603594e-09
5.6999835e-07
-4.6866297e-09
5.702125e-07
-5.6672593e-09
5.7049735e-07
-6.8545859e-09
5.7088057e-07
-8.3229868e-09
5.7140549e-07
-1.0182078e-08
5.7214182e-07
-1.2594022e-08
5.7319916e-07
-1.5792341e-08
5.7477588e-07
-2.0139489e-08
5.7727739e-07
-2.6612236e-08
5.8166206e-07
-3.8851158e-08
5.9449021e-07
-4.8094559e-08
6.1564862e-07
4.4529752e-07
5.4820722e-08
3.5439878e-07
5.7353616e-08
6.2642823e-07
4.0371584e-08
6.2160445e-07
3.0684643e-08
5.9525503e-07
2.4547642e-08
5.8568945e-07
1.9857299e-08
5.8098778e-07
1.6220206e-08
5.7788401e-07
1.3377569e-08
5.7572638e-07
1.1117082e-08
5.7420263e-07
9.2868949e-09
5.7310664e-07
7.7789918e-09
5.7230206e-07
6.5147617e-09
5.7170194e-07
5.4362468e-09
5.7124907e-07
4.5000312e-09
5.709047e-07
3.6729243e-09
5.706422e-07
2.9289786e-09
5.7044302e-07
2.2473913e-09
5.702942e-07
1.6109852e-09
5.7018666e-07
1.0050757e-09
5.7011423e-07
4.1658929e-10
5.7007292e-07
-1.666611e-10
5.7006056e-07
-7.5661743e-10
5.7007654e-07
-1.3655999e-09
5.701218e-07
-2.006963e-09
5.7019889e-07
-2.6958484e-09
5.7031224e-07
-3.4501151e-09
5.7046862e-07
-4.2915491e-09
5.7067791e-07
-5.2474994e-09
5.709543e-07
-6.3531618e-09
5.7131816e-07
-7.6548439e-09
5.7179903e-07
-9.2145383e-09
5.7244027e-07
-1.1116313e-08
5.7330727e-07
-1.3476721e-08
5.7450223e-07
-1.6457489e-08
5.7617992e-07
-2.0256978e-08
5.7857537e-07
-2.514223e-08
5.8216264e-07
-3.2368413e-08
5.8888824e-07
-4.4950481e-08
6.0707228e-07
-4.6448498e-08
6.1714664e-07
3.9884903e-07
4.7896581e-08
3.0650372e-07
5.9941637e-08
6.1438392e-07
4.5262235e-08
6.3628357e-07
3.474387e-08
6.0577327e-07
2.8268443e-08
5.9216487e-07
2.328922e-08
5.8596701e-07
1.9307326e-08
5.818659e-07
1.6107576e-08
5.7892613e-07
1.3505193e-08
5.7680501e-07
1.1360591e-08
5.7525125e-07
9.5684769e-09
5.7409418e-07
8.0486522e-09
5.7322177e-07
6.7399493e-09
5.7255778e-07
5.5952221e-09
5.7204943e-07
4.5775706e-09
5.7165985e-07
3.657592e-09
5.71363e-07
2.8113378e-09
5.7114045e-07
2.0187738e-09
5.7097923e-07
1.2625936e-09
5.7087041e-07
5.2727186e-10
5.7080824e-07
-2.0173123e-10
5.7078956e-07
-9.3868162e-10
5.7081349e-07
-1.6982641e-09
5.7088138e-07
-2.4963078e-09
5.7099694e-07
-3.3506048e-09
5.7116654e-07
-4.2818966e-09
5.7139991e-07
-5.315118e-09
5.7171113e-07
-6.4810097e-09
5.7212019e-07
-7.8182498e-09
5.726554e-07
-9.3763315e-09
5.7335711e-07
-1.1219347e-08
5.7428328e-07
-1.3430417e-08
5.7551834e-07
-1.6118196e-08
5.7719001e-07
-1.9426757e-08
5.7948849e-07
-2.3527151e-08
5.8267577e-07
-2.8721589e-08
5.8735708e-07
-3.6578329e-08
5.9674498e-07
-4.8252507e-08
6.1874646e-07
-4.3065816e-08
6.1195995e-07
3.5578321e-07
4.0257428e-08
2.6624847e-07
5.8821798e-08
5.958211e-07
4.8142936e-08
6.4696221e-07
3.7412129e-08
6.165038e-07
3.0755968e-08
5.9882101e-07
2.57232e-08
5.9099979e-07
2.1614124e-08
5.8597498e-07
1.8233552e-08
5.823067e-07
1.5428457e-08
5.7961011e-07
1.3076571e-08
5.7760313e-07
1.1081751e-08
5.76089e-07
9.3685115e-09
5.7493501e-07
7.8775337e-09
5.7404875e-07
6.5617482e-09
5.7336522e-07
5.3833753e-09
5.7283822e-07
4.311655e-09
5.7243472e-07
3.3210661e-09
5.7213104e-07
2.3899241e-09
5.7191037e-07
1.4992616e-09
5.7176107e-07
6.3190497e-10
5.716756e-07
-2.2831869e-10
5.7164979e-07
-1.0973016e-09
5.7168247e-07
-1.9913606e-09
5.7177544e-07
-2.9279692e-09
5.7193354e-07
-3.9265668e-09
5.7216513e-07
-5.0095087e-09
5.7248285e-07
-6.2032215e-09
5.7290485e-07
-7.5396423e-09
5.7345661e-07
-9.0580213e-09
5.7417378e-07
-1.0807234e-08
5.7510632e-07
-1.284882e-08
5.7632487e-07
-1.5260412e-08
5.7792993e-07
-1.8139825e-08
5.8006942e-07
-2.1611822e-08
5.8296048e-07
-2.5833011e-08
5.8689695e-07
-3.1210058e-08
5.9273412e-07
-3.9365716e-08
6.0490064e-07
-4.8894514e-08
6.2827525e-07
-3.8423233e-08
6.0148867e-07
3.1735998e-07
3.2775547e-08
2.3347584e-07
5.5039429e-08
5.7355991e-07
4.8988816e-08
6.5301284e-07
3.8832807e-08
6.2665937e-07
3.2209626e-08
6.0544411e-07
2.7301704e-08
5.9590772e-07
2.3228423e-08
5.9004826e-07
1.9802406e-08
5.8573272e-07
1.6906599e-08
5.8250591e-07
1.4438498e-08
5.8007123e-07
1.2314075e-08
5.7821342e-07
1.046585e-08
5.7678323e-07
8.8393722e-09
5.7567523e-07
7.3902527e-09
5.7481434e-07
6.0819811e-09
5.741465e-07
4.8841643e-09
5.7363254e-07
3.7710822e-09
5.7324413e-07
2.720508e-09
5.7296094e-07
1.7127295e-09
5.7276885e-07
7.2971513e-10
5.7265861e-07
-2.4562164e-10
5.7262512e-07
-1.2300999e-09
5.7266695e-07
-2.2409403e-09
5.7278628e-07
-3.2964532e-09
5.7298906e-07
-4.4167843e-09
5.7328547e-07
-5.6247659e-09
5.7369083e-07
-6.9469192e-09
5.74227e-07
-8.4146604e-09
5.7492436e-07
-1.0065756e-08
5.7582488e-07
-1.1946102e-08
5.7698667e-07
-1.4112122e-08
5.7849089e-07
-1.6633662e-08
5.8045147e-07
-1.9596055e-08
5.8303182e-07
-2.310082e-08
5.8646525e-07
-2.7289887e-08
5.9108602e-07
-3.2675732e-08
5.9811997e-07
-4.0634037e-08
6.1285894e-07
-4.7338681e-08
6.349799e-07
-3.3195122e-08
5.8734511e-07
2.8416486e-07
2.6093738e-08
2.0738584e-07
4.9882626e-08
5.4977516e-07
4.818695e-08
6.5470904e-07
3.9200265e-08
6.3564543e-07
3.280054e-08
6.1184365e-07
2.8142011e-08
6.0056626e-07
2.4232007e-08
5.9395828e-07
2.0869983e-08
5.8909475e-07
1.7974458e-08
5.8540144e-07
1.5465832e-08
5.8257986e-07
1.3274685e-08
5.8040457e-07
1.1343574e-08
5.7871434e-07
9.6247388e-09
5.7739407e-07
8.0781606e-09
5.7636092e-07
6.6701008e-09
5.7555456e-07
5.3718241e-09
5.7493082e-07
4.1585078e-09
5.7445744e-07
3.0083162e-09
5.7411114e-07
1.9015992e-09
5.7387557e-07
8.2018605e-10
5.7374003e-07
-2.5325588e-10
5.7369857e-07
-1.3358203e-09
5.7374952e-07
-2.4449595e-09
5.7389542e-07
-3.599092e-09
5.7414319e-07
-4.8182507e-09
5.7450462e-07
-6.1248026e-09
5.7499739e-07
-7.5442671e-09
5.7564646e-07
-9.1062692e-09
5.7648636e-07
-1.0845653e-08
5.7756426e-07
-1.2803758e-08
5.7894477e-07
-1.5030066e-08
5.807172e-07
-1.7584335e-08
5.8300574e-07
-2.0536607e-08
5.8598409e-07
-2.3962971e-08
5.8989161e-07
-2.7998604e-08
5.9512166e-07
-3.3239273e-08
6.0336064e-07
-4.0586481e-08
6.2020615e-07
-4.4372731e-08
6.3876615e-07
-2.7998699e-08
5.7097108e-07
2.5616616e-07
2.0467476e-08
1.8692298e-07
4.4291902e-08
5.2595668e-07
4.6266131e-08
6.5273617e-07
3.8790055e-08
6.4312075e-07
3.2741962e-08
6.1789141e-07
2.8386936e-08
6.0492128e-07
2.4719567e-08
5.9762566e-07
2.1501284e-08
5.9231303e-07
1.8676199e-08
5.8822652e-07
1.6187766e-08
5.8506829e-07
1.3982153e-08
5.8261018e-07
1.2012877e-08
5.8068362e-07
1.0239875e-08
5.7916707e-07
8.6285329e-09
5.7797226e-07
7.1488626e-09
5.7703423e-07
5.7746855e-09
5.76305e-07
4.4828906e-09
5.7574924e-07
3.2527654e-09
5.7534126e-07
2.0653847e-09
5.7506295e-07
9.0304937e-10
5.7490236e-07
-2.5123858e-10
5.7485285e-07
-1.4142771e-09
5.7491256e-07
-2.6031661e-09
5.7508431e-07
-3.8358154e-09
5.7537584e-07
-5.1314747e-09
5.7580028e-07
-6.511306e-09
5.7637722e-07
-7.9990076e-09
5.7713417e-07
-9.6215063e-09
5.7810886e-07
-1.1409731e-08
5.7935249e-07
-1.3399412e-08
5.8093446e-07
-1.5631998e-08
5.8294978e-07
-1.8155865e-08
5.8552961e-07
-2.1024829e-08
5.8885305e-07
-2.4293895e-08
5.9316068e-07
-2.810741e-08
5.9893517e-07
-3.3100019e-08
6.0835325e-07
-3.9556439e-08
6.2666257e-07
-4.0654826e-08
6.3986454e-07
-2.3187074e-08
5.5350332e-07
2.3297908e-07
1.5903358e-08
1.7102527e-07
3.8808984e-08
5.0305914e-07
4.3664261e-08
6.4788348e-07
3.7843013e-08
6.4894119e-07
3.2236672e-08
6.2349719e-07
2.8191422e-08
6.0896648e-07
2.4799384e-08
6.0101772e-07
2.1771894e-08
5.9534053e-07
1.9064748e-08
5.9093367e-07
1.6641255e-08
5.8749179e-07
1.4462041e-08
5.847894e-07
1.2491167e-08
5.8265449e-07
1.0696405e-08
5.8096184e-07
9.0489452e-09
5.7961972e-07
7.5230561e-09
5.7856012e-07
6.0956595e-09
5.7773239e-07
4.7459012e-09
5.77099e-07
3.4547197e-09
5.7663244e-07
2.20442e-09
5.7631325e-07
9.7826019e-10
5.7612852e-07
-2.3995118e-10
5.7607107e-07
-1.4662473e-09
5.7613885e-07
-2.7169014e-09
5.7633497e-07
-4.0088239e-09
5.7666776e-07
-5.3599686e-09
5.7715143e-07
-6.7897558e-09
5.7780701e-07
-8.3195062e-09
5.7866392e-07
-9.9728884e-09
5.7976224e-07
-1.1776383e-08
5.8115598e-07
-1.3759709e-08
5.8291778e-07
-1.5956191e-08
5.8514627e-07
-1.8403169e-08
5.8797659e-07
-2.1139637e-08
5.9158952e-07
-2.4206981e-08
5.9622802e-07
-2.7770061e-08
6.0249825e-07
-3.2441279e-08
6.1302447e-07
-3.783869e-08
6.3205998e-07
-3.6627089e-08
6.3865294e-07
-1.8928966e-08
5.358052e-07
2.1405012e-07
1.230207e-08
1.5873006e-07
3.373217e-08
4.816397e-07
4.0709928e-08
6.4090996e-07
3.653637e-08
6.5311404e-07
3.1437418e-08
6.2859533e-07
2.7688984e-08
6.1271479e-07
2.4574131e-08
6.041326e-07
2.1758233e-08
5.9815643e-07
1.9196481e-08
5.9349542e-07
1.6867522e-08
5.8982075e-07
1.4744247e-08
5.8691267e-07
1.279996e-08
5.8459878e-07
1.1009673e-08
5.8275212e-07
9.3502167e-09
5.8127918e-07
7.8001939e-09
5.8011014e-07
6.3398469e-09
5.7919274e-07
4.9508738e-09
5.7848797e-07
3.6161966e-09
5.7796712e-07
2.319699e-09
5.7760975e-07
1.0459508e-09
5.7740227e-07
-2.2007633e-10
5.7733709e-07
-1.4932938e-09
5.7741207e-07
-2.7887892e-09
5.7763046e-07
-4.1221153e-09
5.7800109e-07
-5.5095761e-09
5.7853889e-07
-6.9685096e-09
5.7926594e-07
-8.5175564e-09
5.8021296e-07
-1.0176901e-08
5.8142159e-07
-1.1968493e-08
5.8294757e-07
-1.3916213e-08
5.848655e-07
-1.604591e-08
5.8727596e-07
-1.8385134e-08
5.9031581e-07
-2.0960386e-08
5.9416478e-07
-2.3806438e-08
5.9907408e-07
-2.7111144e-08
6.0580296e-07
-3.1404693e-08
6.1731802e-07
-3.5674838e-08
6.3633013e-07
-3.2589957e-08
6.3556806e-07
-1.5285235e-08
5.1850048e-07
1.9876488e-07
9.5248041e-09
1.4921366e-07
2.9213013e-08
4.6196518e-07
3.7648959e-08
6.3248041e-07
3.5007276e-08
6.5575532e-07
3.0453955e-08
6.3314754e-07
2.6982688e-08
6.1618581e-07
2.4129353e-08
6.0698596e-07
2.152822e-08
6.0075758e-07
1.9124526e-08
5.9589912e-07
1.6907447e-08
5.9203783e-07
1.4859793e-08
5.8896033e-07
1.2962555e-08
5.8649602e-07
1.1197018e-08
5.8451766e-07
9.545114e-09
5.8293108e-07
7.9895442e-09
5.8166571e-07
6.513831e-09
5.8066846e-07
5.1023083e-09
5.798995e-07
3.7400401e-09
5.7932939e-07
2.4126929e-09
5.789371e-07
1.1063782e-09
5.7870859e-07
-1.9252645e-10
5.78636e-07
-1.4975632e-09
5.7871711e-07
-2.82239e-09
5.7895529e-07
-4.1809696e-09
5.7935967e-07
-5.587749e-09
5.7994567e-07
-7.0578215e-09
5.8073601e-07
-8.6070609e-09
5.817622e-07
-1.0252209e-08
5.8306673e-07
-1.2010914e-08
5.8470628e-07
-1.3901739e-08
5.8675633e-07
-1.5943988e-08
5.8931821e-07
-1.8156878e-08
5.925287e-07
-2.0557055e-08
5.9656495e-07
-2.3178558e-08
6.0169558e-07
-2.6228034e-08
6.0885244e-07
-3.0107301e-08
6.2119728e-07
-3.326814e-08
6.3949097e-07
-2.8747513e-08
6.3104743e-07
-1.2250517e-08
5.0200349e-07
1.8651437e-07
7.4226774e-09
1.4180136e-07
2.5298571e-08
4.4410658e-07
3.4651378e-08
6.2313674e-07
3.3364502e-08
6.5704236e-07
2.936781e-08
6.371428e-07
2.6151145e-08
6.1940207e-07
2.3533645e-08
6.0960347e-07
2.1138744e-08
6.0315251e-07
1.8895414e-08
5.9814245e-07
1.6798452e-08
5.9413479e-07
1.4838287e-08
5.9092049e-07
1.3002066e-08
5.8833224e-07
1.1276263e-08
5.8624346e-07
9.6472048e-09
5.8456014e-07
8.1012681e-09
5.8321165e-07
6.6250401e-09
5.8214468e-07
5.2054149e-09
5.8131912e-07
3.8296184e-09
5.8070519e-07
2.4851812e-09
5.8028153e-07
1.1598753e-09
5.800339e-07
-1.5837535e-10
5.7995425e-07
-1.481597e-09
5.8004033e-07
-2.8218776e-09
5.8029557e-07
-4.1914697e-09
5.8072926e-07
-5.6028803e-09
5.8135708e-07
-7.0689373e-09
5.8220207e-07
-8.6028202e-09
5.8329609e-07
-1.021804e-08
5.8468196e-07
-1.192836e-08
5.864166e-07
-1.3747692e-08
5.8857566e-07
-1.5689808e-08
5.9126033e-07
-1.7767126e-08
5.9460602e-07
-1.9989356e-08
5.9878718e-07
-2.2394523e-08
6.0410075e-07
-2.5199618e-08
6.1165753e-07
-2.8648993e-08
6.2464666e-07
-3.0779176e-08
6.4162115e-07
-2.5221009e-08
6.2548926e-07
-9.7775593e-09
4.8656004e-07
1.7673681e-07
5.8551543e-09
1.3595925e-07
2.1966566e-08
4.2801679e-07
3.1818137e-08
6.1329769e-07
3.1687323e-08
6.5717426e-07
2.8237582e-08
6.4059081e-07
2.5253086e-08
6.2238593e-07
2.2841205e-08
6.1201534e-07
2.063648e-08
6.0535726e-07
1.8548588e-08
6.0023035e-07
1.6573355e-08
5.9611002e-07
1.4706599e-08
5.9278725e-07
1.2940166e-08
5.9009867e-07
1.1264639e-08
5.8791899e-07
9.6699772e-09
5.861548e-07
8.1457255e-09
5.847359e-07
6.6812182e-09
5.8360919e-07
5.2657295e-09
5.8273461e-07
3.8885648e-09
5.8208235e-07
2.5391043e-09
5.81631e-07
1.2068097e-09
5.8136619e-07
-1.1879663e-10
5.8127986e-07
-1.4481637e-09
5.813697e-07
-2.7917571e-09
5.8163917e-07
-4.16009e-09
5.820976e-07
-5.5637443e-09
5.8276074e-07
-7.0133639e-09
5.8365169e-07
-8.5196132e-09
5.8480234e-07
-1.0093087e-08
5.8625543e-07
-1.1744167e-08
5.8806768e-07
-1.3482858e-08
5.9031435e-07
-1.5318443e-08
5.9309592e-07
-1.725812e-08
5.965457e-07
-1.9307628e-08
6.0083669e-07
-2.1512132e-08
6.0630525e-07
-2.4088083e-08
6.1423348e-07
-2.7109188e-08
6.2766776e-07
-2.8321055e-08
6.4283302e-07
-2.2064687e-08
6.1923289e-07
-7.7974131e-09
4.7229276e-07
1.689394e-07
4.6996556e-09
1.312763e-07
1.9158033e-08
4.1358525e-07
2.9196587e-08
6.0327582e-07
3.0026861e-08
6.5634639e-07
2.7101256e-08
6.4351441e-07
2.4329331e-08
6.2515694e-07
2.209299e-08
6.1425161e-07
2.0058574e-08
6.0739172e-07
1.8116597e-08
6.0217234e-07
1.6260125e-08
5.9796649e-07
1.4488322e-08
5.9455905e-07
1.2796426e-08
5.9179057e-07
1.1178117e-08
5.895373e-07
9.6262351e-09
5.8770668e-07
8.1329635e-09
5.8622917e-07
6.6900157e-09
5.8505214e-07
5.288804e-09
5.8413582e-07
3.9205643e-09
5.8345059e-07
2.5764427e-09
5.8297512e-07
1.2475497e-09
5.8269508e-07
-7.5009817e-11
5.8260242e-07
-1.4001161e-09
5.8269481e-07
-2.736629e-09
5.8297568e-07
-4.0933636e-09
5.8345433e-07
-5.4790619e-09
5.8414644e-07
-6.902335e-09
5.8507497e-07
-8.3715758e-09
5.8627158e-07
-9.8948333e-09
5.8777869e-07
-1.1479645e-08
5.896525e-07
-1.3132868e-08
5.9196758e-07
-1.4860306e-08
5.9482336e-07
-1.6665435e-08
5.9835083e-07
-1.8552678e-08
6.0272394e-07
-2.0575682e-08
6.0832826e-07
-2.2938886e-08
6.1659669e-07
-2.5545502e-08
6.3027438e-07
-2.5964783e-08
6.432523e-07
-1.9286965e-08
6.1255508e-07
-6.2340398e-09
4.5923984e-07
1.6270536e-07
3.8540259e-09
1.2744409e-07
1.6800153e-08
4.0067239e-07
2.6799786e-08
5.9329794e-07
2.8412493e-08
6.5473791e-07
2.5980512e-08
6.459442e-07
2.3405587e-08
6.2773059e-07
2.1317969e-08
6.1633908e-07
1.9433215e-08
6.0927652e-07
1.7625324e-08
6.0398024e-07
1.5881852e-08
5.9970997e-07
1.4203565e-08
5.9623734e-07
1.2587988e-08
5.9340615e-07
1.1031026e-08
5.9109427e-07
9.5277182e-09
5.8920999e-07
8.0723687e-09
5.8768452e-07
6.6586943e-09
5.8646582e-07
5.2799757e-09
5.8551454e-07
3.9291911e-09
5.8480138e-07
2.5991229e-09
5.8430519e-07
1.2824408e-09
5.8401177e-07
-2.8233716e-11
5.8391309e-07
-1.3402765e-09
5.8400685e-07
-2.661005e-09
5.8429641e-07
-3.997629e-09
5.8479096e-07
-5.3571831e-09
5.8550599e-07
-6.7464385e-09
5.8646422e-07
-8.1717926e-09
5.8769694e-07
-9.6391342e-09
5.8924603e-07
-1.1153686e-08
5.9116705e-07
-1.2719856e-08
5.9353375e-07
-1.4340872e-08
5.9644437e-07
-1.601781e-08
6.0002777e-07
-1.7755876e-08
6.04462e-07
-1.9616947e-08
6.1018933e-07
-2.1782915e-08
6.1876266e-07
-2.3996671e-08
6.3248814e-07
-2.3749097e-08
6.4300473e-07
-1.6868471e-08
6.0567445e-07
-5.0127646e-09
4.4738413e-07
1.576926e-07
3.2358206e-09
1.2423705e-07
1.4818818e-08
3.8913065e-07
2.4620206e-08
5.8352446e-07
2.6858365e-08
6.525064e-07
2.4885704e-08
6.479146e-07
2.2496271e-08
6.3011835e-07
2.0535299e-08
6.1829979e-07
1.8780788e-08
6.1103108e-07
1.7094571e-08
6.0566649e-07
1.5456981e-08
6.0134756e-07
1.3868962e-08
5.9782536e-07
1.2329453e-08
5.9494566e-07
1.0835876e-08
5.9258784e-07
9.3848876e-09
5.9066098e-07
7.9724534e-09
5.8909696e-07
6.593935e-09
5.8784434e-07
5.2442103e-09
5.8686427e-07
3.9177946e-09
5.861278e-07
2.6089514e-09
5.8561403e-07
1.3117884e-09
5.8530893e-07
2.0341462e-11
5.8520454e-07
-1.2713514e-09
5.8529854e-07
-2.5691726e-09
5.8559423e-07
-3.87885e-09
5.8610064e-07
-5.2058693e-09
5.8683301e-07
-6.5553729e-09
5.8781373e-07
-7.9320435e-09
5.8907361e-07
-9.3399783e-09
5.9065397e-07
-1.0782563e-08
5.9260963e-07
-1.2262358e-08
5.9501354e-07
-1.3780773e-08
5.9796279e-07
-1.533758e-08
6.0158458e-07
-1.6940261e-08
6.0606468e-07
-1.865745e-08
6.1190652e-07
-2.0639834e-08
6.2074504e-07
-2.2486766e-08
6.3433507e-07
-2.1690022e-08
6.4220799e-07
-1.4774525e-08
5.9875896e-07
-4.0649131e-09
4.3667452e-07
1.5362768e-07
2.7805641e-09
1.2149423e-07
1.3145253e-08
3.7881725e-07
2.2639065e-08
5.7406601e-07
2.5368366e-08
6.4978689e-07
2.3819747e-08
6.4946106e-07
2.1607987e-08
6.3232796e-07
1.9756749e-08
6.2015059e-07
1.811542e-08
6.1267245e-07
1.6539005e-08
6.0724293e-07
1.4999838e-08
6.0288673e-07
1.3497928e-08
5.9932727e-07
1.2032956e-08
5.9641063e-07
1.0603326e-08
5.9401747e-07
9.2068462e-09
5.9205746e-07
7.8407516e-09
5.9046305e-07
6.5017324e-09
5.8918336e-07
5.1860086e-09
5.8817999e-07
3.8894294e-09
5.8742438e-07
2.6075749e-09
5.8689589e-07
1.3358534e-09
5.8658065e-07
6.9593659e-11
5.864708e-07
-1.195869e-09
5.8656401e-07
-2.465105e-09
5.8686347e-07
-3.7425005e-09
5.8737803e-07
-5.0321624e-09
5.8812268e-07
-6.3378149e-09
5.8911938e-07
-7.6626902e-09
5.9039848e-07
-9.0094242e-09
5.920007e-07
-1.0379971e-08
5.9398018e-07
-1.1775534e-08
5.9640911e-07
-1.3196304e-08
5.9938356e-07
-1.4641615e-08
6.0302989e-07
-1.6122134e-08
6.075452e-07
-1.7710929e-08
6.1349531e-07
-1.9521057e-08
6.2255517e-07
-2.1028845e-08
6.3584286e-07
-1.9788227e-08
6.4096737e-07
-1.296355e-08
5.9193428e-07
-3.3303244e-09
4.270413e-07
1.5029736e-07
2.4393902e-09
1.1910335e-07
1.171934e-08
3.696012e-07
2.0832675e-08
5.6499711e-07
2.3939908e-08
6.4669341e-07
2.2780866e-08
6.5061828e-07
2.0742139e-08
6.3436404e-07
1.8988757e-08
6.2190332e-07
1.7446472e-08
6.1421476e-07
1.5969206e-08
6.0872024e-07
1.4521323e-08
6.0433462e-07
1.3101079e-08
6.0074752e-07
1.1708403e-08
5.9780331e-07
1.0342298e-08
5.9538358e-07
9.0013667e-09
5.933984e-07
7.6838026e-09
5.9178062e-07
6.3873563e-09
5.904798e-07
5.1093644e-09
5.8945799e-07
3.8468202e-09
5.8868692e-07
2.5964585e-09
5.8814625e-07
1.3548471e-09
5.8782227e-07
1.1847745e-10
5.8770717e-07
-1.1161453e-09
5.8779863e-07
-2.35241e-09
5.8809974e-07
-3.5935063e-09
5.8861913e-07
-4.8423297e-09
5.893715e-07
-6.1013836e-09
5.9037843e-07
-7.3726853e-09
5.9166979e-07
-8.6576892e-09
5.9328571e-07
-9.9572447e-09
5.9527974e-07
-1.1271575e-08
5.9772344e-07
-1.2600103e-08
6.0071209e-07
-1.394237e-08
6.0437216e-07
-1.531258e-08
6.0891542e-07
-1.6785422e-08
6.1496816e-07
-1.8432141e-08
6.2420189e-07
-1.9628129e-08
6.3703885e-07
-1.8034961e-08
6.393742e-07
-1.1392874e-08
5.8529219e-07
-2.7583537e-09
4.1840678e-07
1.4753901e-07
2.1762891e-09
1.1698777e-07
1.0490674e-08
3.6136646e-07
1.9176546e-08
5.5636672e-07
2.2566884e-08
6.4332182e-07
2.1764676e-08
6.5141929e-07
1.9896897e-08
6.3622863e-07
1.8234067e-08
6.2356522e-07
1.6779804e-08
6.1566902e-07
1.5392618e-08
6.1010748e-07
1.4029599e-08
6.0569765e-07
1.2686706e-08
6.0209041e-07
1.1363779e-08
5.9912624e-07
1.0060161e-08
5.966872e-07
8.7749955e-09
5.9468356e-07
7.5071991e-09
5.9304842e-07
6.2553676e-09
5.9173164e-07
5.0177634e-09
5.9069559e-07
3.7923549e-09
5.8991233e-07
2.5768813e-09
5.8936172e-07
1.3689322e-09
5.8903022e-07
1.6603288e-10
5.8891007e-07
-1.0342693e-09
5.8899893e-07
-2.2343127e-09
5.8929978e-07
-3.436232e-09
5.8982105e-07
-4.6418674e-09
5.9057714e-07
-5.8526778e-09
5.9158925e-07
-7.0696662e-09
5.9288678e-07
-8.2933315e-09
5.9450937e-07
-9.5236678e-09
5.9651007e-07
-1.0760187e-08
5.9895996e-07
-1.2001864e-08
6.0195376e-07
-1.324887e-08
6.0561916e-07
-1.4518827e-08
6.1018537e-07
-1.5885033e-08
6.1633436e-07
-1.7374839e-08
6.256917e-07
-1.8284866e-08
6.3794888e-07
-1.64167e-08
6.3750604e-07
-1.0022379e-08
5.7889787e-07
-2.3077835e-09
4.1069219e-07
1.4523123e-07
1.9653801e-09
1.1509635e-07
9.4181899e-09
3.5401272e-07
1.7647739e-08
5.4820609e-07
2.1241813e-08
6.3975267e-07
2.076577e-08
6.5189514e-07
1.9068734e-08
6.3792193e-07
1.7493069e-08
6.2513963e-07
1.6118833e-08
6.1704319e-07
1.4814387e-08
6.1141198e-07
1.3530733e-08
6.0698132e-07
1.2261256e-08
6.0335989e-07
1.1005488e-08
6.00382e-07
9.7629622e-09
5.9792972e-07
8.5332043e-09
5.9591332e-07
7.3156823e-09
5.9426594e-07
6.1096746e-09
5.9293764e-07
4.914215e-09
5.9189105e-07
3.728103e-09
5.9109844e-07
2.5499476e-09
5.9053988e-07
1.3782333e-09
5.9020193e-07
2.1139598e-10
5.9007691e-07
-9.5209658e-10
5.9016243e-07
-2.1136573e-09
5.9046134e-07
-3.2744971e-09
5.9098189e-07
-4.4355412e-09
5.9173818e-07
-5.5973564e-09
5.9275106e-07
-6.7600943e-09
5.9404951e-07
-7.9234722e-09
5.9567275e-07
-9.0868067e-09
5.9767341e-07
-1.0249074e-08
6.0012223e-07
-1.1408999e-08
6.0311369e-07
-1.256761e-08
6.0677778e-07
-1.3745452e-08
6.1136322e-07
-1.5011467e-08
6.1760038e-07
-1.6348855e-08
6.2702909e-07
-1.6996741e-08
6.3859676e-07
-1.4918541e-08
6.3542784e-07
-8.8167235e-09
5.7279606e-07
-1.9461664e-09
4.0382163e-07
1.4328506e-07
1.788502e-09
1.1339598e-07
8.4690908e-09
3.4745482e-07
1.6226032e-08
5.4053439e-07
1.9957293e-08
6.3605392e-07
1.9778863e-08
6.5207483e-07
1.82536e-08
6.3944291e-07
1.6764894e-08
6.2662668e-07
1.546545e-08
6.1834249e-07
1.4238091e-08
6.1263941e-07
1.302928e-08
6.0819015e-07
1.1829775e-08
6.045594e-07
1.063869e-08
6.0157309e-07
9.4556803e-09
5.9911274e-07
8.2805679e-09
5.9708843e-07
7.1132658e-09
5.9543324e-07
5.953618e-09
5.9409729e-07
4.8013103e-09
5.9304336e-07
3.6558545e-09
5.922439e-07
2.5166139e-09
5.9167912e-07
1.3828536e-09
5.9133569e-07
2.5380785e-10
5.9120596e-07
-8.7124846e-10
5.9128749e-07
-1.9929176e-09
5.9158301e-07
-3.111605e-09
5.9210058e-07
-4.2274438e-09
5.9285402e-07
-5.3402349e-09
5.9386385e-07
-6.4494074e-09
5.9515869e-07
-7.554023e-09
5.9677737e-07
-8.6528364e-09
5.9877222e-07
-9.7443856e-09
6.0121378e-07
-1.0827248e-08
6.0419655e-07
-1.1903362e-08
6.0785389e-07
-1.2995421e-08
6.1245528e-07
-1.4165286e-08
6.1877025e-07
-1.5353273e-08
6.2821708e-07
-1.5760745e-08
6.3900424e-07
-1.3526447e-08
6.3319354e-07
-7.7462919e-09
5.670159e-07
-1.6488694e-09
3.9772421e-07
1.4163619e-07
1.6331905e-09
1.1186591e-07
7.6175752e-09
3.4162145e-07
1.4894376e-08
5.3336256e-07
1.8706921e-08
6.3228313e-07
1.8799581e-08
6.5198545e-07
1.7447786e-08
6.4078993e-07
1.6048269e-08
6.2802408e-07
1.4820757e-08
6.1956975e-07
1.3666366e-08
6.1379387e-07
1.2528794e-08
6.0932775e-07
1.1396321e-08
6.0569187e-07
1.0267617e-08
6.0270179e-07
9.1424604e-09
6.0023789e-07
8.0209429e-09
5.9820995e-07
6.9033667e-09
5.9655082e-07
5.7900649e-09
5.952106e-07
4.681288e-09
5.9415214e-07
3.5771664e-09
5.9334802e-07
2.4777197e-09
5.9277857e-07
1.3828946e-09
5.9243052e-07
2.9262287e-10
5.9229623e-07
-7.9311525e-10
5.9237323e-07
-1.874215e-09
5.9266411e-07
-2.9503807e-09
5.9317675e-07
-4.0210583e-09
5.939247e-07
-5.085386e-09
5.9492818e-07
-6.1421686e-09
5.9621547e-07
-7.1898981e-09
5.978251e-07
-8.2268333e-09
5.9980916e-07
-9.2511131e-09
6.0223806e-07
-1.0261192e-08
6.0520663e-07
-1.1259829e-08
6.0885253e-07
-1.2270923e-08
6.1346637e-07
-1.3346873e-08
6.198462e-07
-1.4387587e-08
6.2925779e-07
-1.4574502e-08
6.3919115e-07
-1.2228636e-08
6.3084767e-07
-6.7873077e-09
5.6157458e-07
-1.3979066e-09
3.9233481e-07
1.4023828e-07
1.4910368e-09
1.1049369e-07
6.8436184e-09
3.3645324e-07
1.3639032e-08
5.2669576e-07
1.7485912e-08
6.284892e-07
1.7825017e-08
6.516523e-07
1.6648542e-08
6.4196121e-07
1.5342162e-08
6.2932783e-07
1.4185648e-08
6.2072588e-07
1.3101398e-08
6.1487818e-07
1.2032237e-08
6.1039695e-07
1.0964292e-08
6.0675982e-07
9.8958353e-09
6.0377025e-07
8.8268149e-09
6.0130692e-07
7.7576145e-09
5.9927916e-07
6.6889095e-09
5.9761953e-07
5.6214799e-09
5.9627803e-07
4.5560804e-09
5.9521754e-07
3.4933877e-09
5.9441072e-07
2.4339976e-09
5.9383796e-07
1.3784531e-09
5.9348607e-07
3.272946e-10
5.9334739e-07
-7.1888261e-10
5.934194e-07
-1.7593588e-09
5.9370459e-07
-2.7932283e-09
5.9421062e-07
-3.8193388e-09
5.9495081e-07
-4.8362493e-09
5.959451e-07
-5.8422133e-09
5.9722144e-07
-6.8352095e-09
5.988181e-07
-7.8130297e-09
6.0078698e-07
-8.7734115e-09
6.0319844e-07
-9.7146546e-09
6.0614788e-07
-1.0640151e-08
6.0977803e-07
-1.1573959e-08
6.1440018e-07
-1.2557089e-08
6.2082933e-07
-1.3452415e-08
6.3015312e-07
-1.3437169e-08
6.3917591e-07
-1.1016426e-08
6.2842693e-07
-5.9217368e-09
5.5647989e-07
-1.1804052e-09
3.8759348e-07
1.3905787e-07
1.3564381e-09
1.0927213e-07
6.1319568e-09
3.319006e-07
1.244957e-08
5.2053476e-07
1.6291531e-08
6.2471355e-07
1.685413e-08
6.5109911e-07
1.5854513e-08
6.4295533e-07
1.4646232e-08
6.3053291e-07
1.3561209e-08
6.2181034e-07
1.2545265e-08
6.1589418e-07
1.1542269e-08
6.1139999e-07
1.053666e-08
6.0776544e-07
9.5264201e-09
6.0478049e-07
8.5117511e-09
6.0232159e-07
7.4933828e-09
6.0029752e-07
6.4723787e-09
5.9864053e-07
5.4499492e-09
5.9730046e-07
4.4273145e-09
5.9624018e-07
3.4056431e-09
5.9543239e-07
2.3860415e-09
5.9485756e-07
1.3695767e-09
5.9450253e-07
3.5731984e-10
5.9435965e-07
-6.4959912e-10
5.9442632e-07
-1.6499264e-09
5.9470492e-07
-2.6422262e-09
5.9520292e-07
-3.6248239e-09
5.9593341e-07
-4.5957672e-09
5.9691604e-07
-5.5528134e-09
5.9817848e-07
-6.4934627e-09
5.9975875e-07
-7.4150457e-09
6.0170857e-07
-8.3148719e-09
6.0409827e-07
-9.1910213e-09
6.0702403e-07
-1.0047256e-08
6.1063426e-07
-1.0906747e-08
6.1525967e-07
-1.1797677e-08
6.2172026e-07
-1.2549917e-08
6.3090536e-07
-1.2349979e-08
6.3897597e-07
-9.884689e-09
6.2596164e-07
-5.1371439e-09
5.5173235e-07
-9.8799403e-10
3.8344433e-07
1.3806987e-07
1.2257464e-09
1.0819715e-07
5.4713641e-09
3.2792115e-07
1.1318901e-08
5.1487648e-07
1.5123444e-08
6.2099112e-07
1.5888036e-08
6.5034827e-07
1.5066031e-08
6.437717e-07
1.3961124e-08
6.3163401e-07
1.2948981e-08
6.228217e-07
1.2000159e-08
6.1684304e-07
1.1061426e-08
6.1233877e-07
1.0116116e-08
6.0871076e-07
9.1620691e-09
6.0573454e-07
8.1998506e-09
6.0328381e-07
7.2306123e-09
6.0126676e-07
6.2558416e-09
5.996153e-07
5.2771808e-09
5.9827912e-07
4.2962926e-09
5.9722107e-07
3.3147964e-09
5.9641389e-07
2.3342557e-09
5.9583811e-07
1.3561986e-09
5.9548059e-07
3.8215917e-10
5.9533369e-07
-5.8626902e-10
5.9539475e-07
-1.5473708e-09
5.9566602e-07
-2.4992507e-09
5.961548e-07
-3.4397778e-09
5.9687394e-07
-4.366546e-09
5.9784281e-07
-5.2768598e-09
5.990888e-07
-6.167763e-09
6.0064965e-07
-7.036119e-09
6.0257692e-07
-7.8787718e-09
6.0494092e-07
-8.6934989e-09
6.0783876e-07
-9.4841339e-09
6.114249e-07
-1.0271979e-08
6.1604752e-07
-1.1071487e-08
6.2251977e-07
-1.1683981e-08
6.3151785e-07
-1.1316493e-08
6.3860848e-07
-8.8319593e-09
6.2347711e-07
-4.4263137e-09
5.473267e-07
-8.1643292e-10
3.7983445e-07
1.3725344e-07
1.0967817e-09
1.0726611e-07
4.8542536e-09
3.2447698e-07
1.0243395e-08
5.0971385e-07
1.3984034e-08
6.1735093e-07
1.4930249e-08
6.4942112e-07
1.4285319e-08
6.4441108e-07
1.3288677e-08
6.3262621e-07
1.2351156e-08
6.2375819e-07
1.1468568e-08
6.1772563e-07
1.0592301e-08
6.1321509e-07