/*--------------------------------*- C++ -*----------------------------------*\
  =========                 |
  \\      /  F ield         | OpenFOAM: The Open Source CFD Toolbox
   \\    /   O peration     | Website:  https://openfoam.org
    \\  /    A nd           | Version:  10
     \\/     M anipulation  |
\*---------------------------------------------------------------------------*/
FoamFile
{
    format      ascii;
    class       volScalarField;
    location    "0.09";
    object      T_0;
}
// * * * * * * * * * * * * * * * * * * * * * * * * * * * * * * * * * * * * * //

dimensions      [0 0 0 1 0 0 0];

internalField   nonuniform List<scalar> 
4000
(
303.10113
299.3431
299.99042
300.00082
299.99993
300
300
300
300
300
300
300
300
300
300
300
300
300
300
300
300
300
300
300
300
300
300
300
300
300
300
300
300
300
300
300
300
300
300
300.00001
309.66206
298.49347
299.77941
300.00183
300.0008
299.99999
300
300
300
300
300
300
300
300
300
300
300
300
300
300
300
300
300
300
300
300
300
300
300
300
300
300
300
300
300
300
300
300
299.99999
300.00002
316.0007
298.6847
299.39289
299.97575
300.00404
300.00025
299.99999
300
300
300
300
300
300
300
300
300
300
300
300
300
300
300
300
300
300
300
300
300
300
300
300
300
300
300
300
300
300
299.99999
299.99999
300.00002
321.73549
299.84446
298.98611
299.8952
300.00713
300.00138
300
299.99999
300
300
300
300
300
300
300
300
300
300
300
300
300
300
300
300
300
300
300
300
300
300
300
300
300
300
300
299.99999
299.99999
299.99999
299.99999
300.00003
326.66003
301.6958
298.7117
299.75395
300.00322
300.00376
300.00017
299.99998
300
300
300
300
300
300
300
300
300
300
300
300
300
300
300
300
300
300
300
300
300
300
300
300
300
300
299.99999
299.99999
299.99999
299.99998
299.99999
300.00004
330.66889
303.93814
298.66464
299.56997
299.98441
300.00691
300.0007
299.99996
299.99999
300
300
300
300
300
300
300
300
300
300
300
300
300
300
300
300
300
300
300
300
300
300
300
300
299.99999
299.99999
299.99999
299.99999
299.99998
300
300.00004
333.75254
306.31358
298.87075
299.37643
299.94566
300.0093
300.00178
300
299.99998
299.99999
300
300
300
300
300
300
300
300
300
300
300
300
300
300
300
300
300
300
300
300
300
300
299.99999
299.99999
299.99999
299.99999
299.99998
299.99998
300
300.00004
335.99393
308.63751
299.30449
299.20763
299.88692
300.00884
300.00339
300.00013
299.99996
299.99999
299.99999
300
300
300
300
300
300
300
300
300
300
300
300
300
300
300
300
300
300
300
299.99999
299.99999
299.99999
299.99999
299.99999
299.99998
299.99998
299.99998
300
300.00004
337.53964
310.79901
299.91576
299.08925
299.8126
300.00356
300.00531
300.00044
299.99995
299.99998
299.99999
299.99999
300
300
300
300
300
300
300
300
300
300
300
300
300
300
300
300
300
299.99999
299.99999
299.99999
299.99999
299.99999
299.99999
299.99998
299.99998
299.99998
300.00001
300.00004
338.56076
312.74523
300.64966
299.03545
299.72975
299.99222
300.0071
300.00096
299.99996
299.99998
299.99999
299.99999
299.99999
299.99999
300
300
300
300
300
300
300
300
300
300
300
300
300
299.99999
299.99999
299.99999
299.99999
299.99999
299.99999
299.99999
299.99998
299.99998
299.99998
299.99998
300.00001
300.00004
339.21955
314.46305
301.45722
299.05029
299.64604
299.97445
300.00823
300.00169
300
299.99996
299.99999
299.99999
299.99999
299.99999
299.99999
299.99999
300
300
300
300
300
300
300
300
300
299.99999
299.99999
299.99999
299.99999
299.99999
299.99999
299.99999
299.99999
299.99999
299.99998
299.99998
299.99997
299.99998
300.00002
300.00004
339.64867
315.96339
302.2997
299.13075
299.56843
299.95076
300.00817
300.00258
300.0001
299.99995
299.99999
299.99999
299.99999
299.99999
299.99999
299.99999
299.99999
299.99999
299.99999
299.99999
299.99999
299.99999
299.99999
299.99999
299.99999
299.99999
299.99999
299.99999
299.99999
299.99999
299.99999
299.99999
299.99999
299.99998
299.99998
299.99998
299.99997
299.99999
300.00002
300.00003
339.94401
317.26918
303.14904
299.26977
299.50238
299.92228
300.00652
300.00352
300.00027
299.99995
299.99998
299.99999
299.99999
299.99999
299.99999
299.99999
299.99999
299.99999
299.99999
299.99999
299.99999
299.99999
299.99999
299.99999
299.99999
299.99999
299.99999
299.99999
299.99999
299.99999
299.99999
299.99999
299.99999
299.99998
299.99998
299.99998
299.99997
299.99999
300.00002
300.00003
340.16739
318.40725
303.98634
299.45856
299.45168
299.89051
300.00302
300.0044
300.00052
299.99995
299.99998
299.99999
299.99999
299.99999
299.99999
299.99999
299.99999
299.99999
299.99999
299.99999
299.99999
299.99999
299.99999
299.99999
299.99999
299.99999
299.99999
299.99999
299.99999
299.99999
299.99999
299.99999
299.99999
299.99998
299.99998
299.99997
299.99997
299.99999
300.00003
300.00003
340.35415
319.40354
304.79965
299.68809
299.41858
299.85708
299.99757
300.00508
300.00083
299.99997
299.99997
299.99999
299.99999
299.99999
299.99999
299.99999
299.99999
299.99999
299.99999
299.99999
299.99999
299.99999
299.99999
299.99999
299.99999
299.99999
299.99999
299.99999
299.99999
299.99999
299.99999
299.99999
299.99998
299.99998
299.99998
299.99997
299.99998
300
300.00003
300.00003
340.52151
320.28074
305.58188
299.94995
299.40412
299.82356
299.99023
300.00543
300.00119
300.00001
299.99996
299.99998
299.99999
299.99999
299.99999
299.99999
299.99999
299.99999
299.99999
299.99999
299.99999
299.99999
299.99999
299.99999
299.99999
299.99999
299.99999
299.99999
299.99999
299.99999
299.99999
299.99998
299.99998
299.99998
299.99998
299.99997
299.99998
300
300.00003
300.00003
340.67571
321.05736
306.32907
300.23663
299.40836
299.79142
299.98118
300.00535
300.00157
300.00007
299.99996
299.99998
299.99999
299.99999
299.99999
299.99999
299.99999
299.99999
299.99999
299.99999
299.99999
299.99999
299.99999
299.99999
299.99999
299.99999
299.99999
299.99999
299.99999
299.99999
299.99999
299.99998
299.99998
299.99998
299.99997
299.99997
299.99998
300
300.00003
300.00002
340.81743
321.74771
307.03911
300.54159
299.43073
299.7619
299.9707
300.00476
300.00195
300.00015
299.99996
299.99998
299.99999
299.99999
299.99999
299.99999
299.99999
299.99999
299.99999
299.99999
299.99999
299.99999
299.99999
299.99999
299.99999
299.99999
299.99999
299.99999
299.99999
299.99999
299.99998
299.99998
299.99998
299.99998
299.99997
299.99997
299.99998
300
300.00003
300.00002
340.94528
322.36229
307.71085
300.85915
299.47017
299.73602
299.95912
300.00361
300.0023
300.00025
299.99996
299.99998
299.99999
299.99999
299.99999
299.99999
299.99999
299.99999
299.99999
299.99999
299.99999
299.99999
299.99999
299.99999
299.99999
299.99999
299.99999
299.99999
299.99999
299.99998
299.99998
299.99998
299.99998
299.99998
299.99997
299.99997
299.99998
300.00001
300.00003
300.00002
341.05769
322.90839
308.34348
301.18438
299.52533
299.71459
299.94684
300.00187
300.00257
300.00037
299.99997
299.99997
299.99998
299.99999
299.99999
299.99999
299.99999
299.99999
299.99999
299.99999
299.99999
299.99999
299.99999
299.99999
299.99999
299.99999
299.99999
299.99999
299.99999
299.99998
299.99998
299.99998
299.99998
299.99998
299.99997
299.99997
299.99998
300.00001
300.00003
300.00002
341.15345
323.3908
308.93619
301.5129
299.59464
299.69821
299.93423
299.99957
300.00274
300.00051
299.99999
299.99997
299.99998
299.99999
299.99999
299.99999
299.99999
299.99999
299.99999
299.99999
299.99999
299.99999
299.99999
299.99999
299.99999
299.99999
299.99999
299.99999
299.99998
299.99998
299.99998
299.99998
299.99998
299.99998
299.99997
299.99997
299.99998
300.00001
300.00003
300.00002
341.23155
323.81227
309.4879
301.84075
299.6764
299.68728
299.92168
299.99674
300.00279
300.00064
300.00001
299.99997
299.99998
299.99998
299.99998
299.99999
299.99999
299.99999
299.99999
299.99999
299.99999
299.99999
299.99999
299.99999
299.99999
299.99999
299.99998
299.99998
299.99998
299.99998
299.99998
299.99998
299.99998
299.99997
299.99997
299.99997
299.99999
300.00001
300.00003
300.00003
341.29107
324.17403
309.99723
302.16428
299.76882
299.68203
299.90958
299.99345
300.00269
300.00077
300.00004
299.99997
299.99998
299.99998
299.99998
299.99998
299.99998
299.99999
299.99999
299.99999
299.99999
299.99999
299.99999
299.99999
299.99998
299.99998
299.99998
299.99998
299.99998
299.99998
299.99998
299.99998
299.99998
299.99997
299.99997
299.99997
299.99999
300.00001
300.00003
300.00003
341.33126
324.4762
310.46238
302.48001
299.87002
299.68249
299.89827
299.98979
300.00243
300.0009
300.00007
299.99997
299.99998
299.99998
299.99998
299.99998
299.99998
299.99998
299.99998
299.99998
299.99998
299.99998
299.99998
299.99998
299.99998
299.99998
299.99998
299.99998
299.99998
299.99998
299.99998
299.99998
299.99998
299.99997
299.99997
299.99997
299.99999
300.00001
300.00003
300.00004
341.35186
324.71827
310.88127
302.78462
299.97809
299.6886
299.88805
299.98584
300.002
300.001
300.00011
299.99997
299.99998
299.99998
299.99998
299.99998
299.99998
299.99998
299.99998
299.99998
299.99998
299.99998
299.99998
299.99998
299.99998
299.99998
299.99998
299.99998
299.99998
299.99998
299.99998
299.99998
299.99997
299.99997
299.99997
299.99997
299.99999
300.00001
300.00003
300.00005
341.35342
324.89964
311.25158
303.07493
300.09109
299.70011
299.87918
299.98172
300.00141
300.00107
300.00015
299.99998
299.99998
299.99998
299.99998
299.99998
299.99998
299.99998
299.99998
299.99998
299.99998
299.99998
299.99998
299.99998
299.99998
299.99998
299.99998
299.99998
299.99998
299.99998
299.99998
299.99998
299.99997
299.99997
299.99997
299.99997
299.99999
300.00001
300.00003
300.00005
341.33749
325.02035
311.57108
303.34787
300.20706
299.71667
299.87188
299.97754
300.00067
300.00111
300.00019
299.99998
299.99997
299.99998
299.99998
299.99998
299.99998
299.99998
299.99998
299.99998
299.99998
299.99998
299.99998
299.99998
299.99998
299.99998
299.99998
299.99998
299.99998
299.99998
299.99998
299.99997
299.99997
299.99997
299.99997
299.99997
299.99999
300.00001
300.00003
300.00005
341.30661
325.08174
311.8379
303.6006
300.32407
299.73785
299.86631
299.97342
299.99979
300.00111
300.00022
299.99999
299.99997
299.99998
299.99998
299.99998
299.99998
299.99998
299.99998
299.99998
299.99998
299.99998
299.99998
299.99998
299.99998
299.99998
299.99998
299.99998
299.99998
299.99998
299.99998
299.99997
299.99997
299.99997
299.99997
299.99997
299.99999
300.00002
300.00004
300.00006
341.26424
325.08716
312.05098
303.83063
300.44025
299.76308
299.86254
299.96946
299.99879
300.00107
300.00026
300
299.99997
299.99998
299.99998
299.99998
299.99998
299.99998
299.99998
299.99998
299.99998
299.99998
299.99998
299.99998
299.99998
299.99998
299.99998
299.99998
299.99998
299.99998
299.99997
299.99997
299.99997
299.99997
299.99997
299.99997
299.99999
300.00002
300.00004
300.00006
341.21448
325.04248
312.2105
304.03595
300.55384
299.79173
299.86062
299.96575
299.9977
300.00098
300.00029
300.00001
299.99997
299.99998
299.99998
299.99998
299.99998
299.99998
299.99998
299.99998
299.99998
299.99998
299.99998
299.99998
299.99998
299.99998
299.99998
299.99998
299.99998
299.99997
299.99997
299.99997
299.99997
299.99997
299.99997
299.99997
299.99999
300.00002
300.00004
300.00006
341.16172
324.95649
312.31831
304.21523
300.66326
299.82313
299.8605
299.96237
299.99654
300.00086
300.00032
300.00002
299.99997
299.99997
299.99998
299.99998
299.99998
299.99998
299.99998
299.99998
299.99998
299.99998
299.99998
299.99998
299.99998
299.99998
299.99998
299.99998
299.99997
299.99997
299.99997
299.99997
299.99997
299.99997
299.99997
299.99997
299.99999
300.00002
300.00004
300.00007
341.11017
324.84082
312.37823
304.36791
300.76713
299.85658
299.86208
299.95938
299.99535
300.00069
300.00033
300.00002
299.99997
299.99997
299.99997
299.99997
299.99997
299.99998
299.99998
299.99998
299.99998
299.99998
299.99998
299.99998
299.99997
299.99997
299.99997
299.99997
299.99997
299.99997
299.99997
299.99997
299.99997
299.99997
299.99997
299.99997
299.99999
300.00002
300.00004
300.00007
341.06331
324.70914
312.39624
304.49435
300.86441
299.89142
299.86528
299.95683
299.99416
300.00048
300.00034
300.00003
299.99997
299.99997
299.99997
299.99997
299.99997
299.99997
299.99997
299.99997
299.99997
299.99997
299.99997
299.99997
299.99997
299.99997
299.99997
299.99997
299.99997
299.99997
299.99997
299.99997
299.99997
299.99996
299.99996
299.99997
299.99999
300.00002
300.00005
300.00007
341.02343
324.57555
312.38031
304.59592
300.95438
299.92708
299.86999
299.95479
299.99298
300.00025
300.00033
300.00004
299.99997
299.99997
299.99997
299.99997
299.99997
299.99997
299.99997
299.99997
299.99997
299.99997
299.99997
299.99997
299.99997
299.99997
299.99997
299.99997
299.99997
299.99997
299.99997
299.99997
299.99996
299.99996
299.99996
299.99997
299.99999
300.00002
300.00005
300.00008
340.99139
324.4524
312.33993
304.67496
301.03667
299.96306
299.8761
299.95329
299.99186
299.99998
300.00032
300.00005
299.99998
299.99997
299.99997
299.99997
299.99997
299.99997
299.99997
299.99997
299.99997
299.99997
299.99997
299.99997
299.99997
299.99997
299.99997
299.99997
299.99997
299.99997
299.99997
299.99997
299.99996
299.99996
299.99996
299.99997
299.99999
300.00002
300.00005
300.00008
340.96664
324.34813
312.28517
304.73475
301.1113
299.99892
299.88346
299.95234
299.99082
299.9997
300.0003
300.00006
299.99998
299.99997
299.99997
299.99997
299.99997
299.99997
299.99997
299.99997
299.99997
299.99997
299.99997
299.99997
299.99997
299.99997
299.99997
299.99997
299.99997
299.99997
299.99997
299.99997
299.99996
299.99996
299.99996
299.99997
299.99999
300.00002
300.00005
300.00008
340.94758
324.26594
312.2254
304.77925
301.17858
300.03417
299.89181
299.9519
299.98986
299.9994
300.00026
300.00006
299.99998
299.99997
299.99997
299.99997
299.99997
299.99997
299.99997
299.99997
299.99997
299.99997
299.99997
299.99997
299.99997
299.99997
299.99997
299.99997
299.99997
299.99997
299.99997
299.99997
299.99996
299.99996
299.99996
299.99997
299.99999
300.00002
300.00005
300.00008
340.93206
324.20372
312.16788
304.81264
301.23913
300.0683
299.90075
299.95184
299.98898
299.9991
300.00022
300.00007
299.99998
299.99997
299.99997
299.99997
299.99997
299.99997
299.99997
299.99997
299.99997
299.99997
299.99997
299.99997
299.99997
299.99997
299.99997
299.99997
299.99997
299.99997
299.99997
299.99997
299.99996
299.99996
299.99997
299.99998
300
300.00002
300.00005
300.00009
340.91799
324.15542
312.11653
304.8387
301.29374
300.10076
299.90972
299.95192
299.98812
299.99878
300.00018
300.00007
299.99998
299.99997
299.99997
299.99997
299.99997
299.99997
299.99997
299.99997
299.99997
299.99997
299.99997
299.99997
299.99997
299.99997
299.99997
299.99997
299.99997
299.99996
299.99996
299.99996
299.99996
299.99996
299.99996
299.99998
299.99999
300.00002
300.00006
300.00009
340.90378
324.11328
312.07143
304.86001
301.34325
300.13114
299.91818
299.95189
299.98722
299.99846
300.00013
300.00006
299.99998
299.99996
299.99996
299.99996
299.99996
299.99996
299.99996
299.99996
299.99996
299.99996
299.99996
299.99996
299.99996
299.99996
299.99996
299.99996
299.99996
299.99996
299.99996
299.99996
299.99996
299.99996
299.99996
299.99997
299.99999
300.00002
300.00006
300.00009
340.88856
324.07019
312.02914
304.87739
301.38831
300.15932
299.92581
299.95155
299.98623
299.99811
300.00008
300.00006
299.99997
299.99995
299.99995
299.99995
299.99995
299.99995
299.99995
299.99995
299.99995
299.99995
299.99995
299.99995
299.99995
299.99995
299.99995
299.99995
299.99995
299.99995
299.99995
299.99995
299.99995
299.99995
299.99996
299.99997
299.99999
300.00001
300.00006
300.00009
340.87226
324.02151
311.98412
304.88965
301.4292
300.18561
299.9327
299.95091
299.98512
299.99775
300.00003
300.00006
299.99996
299.99993
299.99993
299.99993
299.99993
299.99993
299.99993
299.99993
299.99993
299.99993
299.99993
299.99993
299.99993
299.99993
299.99993
299.99993
299.99993
299.99993
299.99993
299.99993
299.99994
299.99994
299.99995
299.99996
299.99998
300.00001
300.00007
300.00009
340.85536
323.96575
311.93069
304.89401
301.4656
300.21063
299.93946
299.95025
299.98399
299.99737
299.99998
300.00005
299.99995
299.99992
299.99992
299.99992
299.99992
299.99992
299.99992
299.99992
299.99992
299.99992
299.99992
299.99992
299.99992
299.99992
299.99992
299.99992
299.99992
299.99992
299.99992
299.99992
299.99992
299.99993
299.99993
299.99995
299.99997
300.00001
300.00007
300.0001
340.83865
323.90439
311.86506
304.88707
301.49661
300.23515
299.94709
299.95013
299.983
299.997
299.99992
300.00005
299.99994
299.99991
299.99991
299.99991
299.99991
299.99991
299.99991
299.99991
299.99991
299.99991
299.99991
299.99991
299.99991
299.99991
299.99991
299.99991
299.99991
299.99991
299.99991
299.99991
299.99991
299.99991
299.99992
299.99994
299.99997
300.00002
300.00008
300.0001
340.823
323.84078
311.78663
304.86612
301.52096
300.25969
299.95669
299.95125
299.9824
299.99668
299.99987
300.00005
299.99994
299.99991
299.9999
299.9999
299.9999
299.9999
299.9999
299.99991
299.99991
299.99991
299.99991
299.99991
299.99991
299.99991
299.99991
299.99991
299.99991
299.9999
299.9999
299.9999
299.9999
299.99991
299.99991
299.99993
299.99996
300.00002
300.00008
300.0001
340.80908
323.779
311.69823
304.83028
301.53741
300.28429
299.969
299.95424
299.98245
299.99649
299.99981
300.00005
299.99995
299.99991
299.9999
299.99991
299.99991
299.99991
299.99991
299.99991
299.99991
299.99991
299.99991
299.99991
299.99991
299.99991
299.99991
299.99991
299.99991
299.99991
299.99991
299.9999
299.9999
299.9999
299.99991
299.99993
299.99997
300.00003
300.00009
300.0001
340.79735
323.72268
311.60525
304.78106
301.54524
300.30835
299.98409
299.95936
299.98332
299.99645
299.99976
300.00005
299.99996
299.99992
299.99991
299.99992
299.99992
299.99992
299.99992
299.99992
299.99992
299.99992
299.99992
299.99992
299.99992
299.99992
299.99992
299.99992
299.99992
299.99992
299.99991
299.99991
299.99991
299.99991
299.99992
299.99994
299.99998
300.00004
300.00009
300.0001
340.78794
323.67439
311.51416
304.72219
301.54458
300.33081
300.00127
299.96644
299.98503
299.99661
299.99972
300.00004
299.99997
299.99993
299.99993
299.99993
299.99993
299.99993
299.99994
299.99994
299.99994
299.99994
299.99994
299.99994
299.99994
299.99994
299.99994
299.99993
299.99993
299.99993
299.99993
299.99993
299.99992
299.99992
299.99993
299.99995
299.99999
300.00005
300.00009
300.0001
340.78076
323.63533
311.43092
304.65874
301.53648
300.35045
300.01921
299.97483
299.98741
299.99695
299.9997
300.00003
299.99998
299.99995
299.99995
299.99995
299.99995
299.99995
299.99995
299.99995
299.99995
299.99996
299.99996
299.99995
299.99995
299.99995
299.99995
299.99995
299.99995
299.99995
299.99995
299.99994
299.99994
299.99994
299.99995
299.99997
300.00001
300.00006
300.00009
300.0001
340.77556
323.60546
311.35971
304.59599
301.52276
300.3663
300.0364
299.98366
299.99017
299.99742
299.99971
300.00002
299.99999
299.99997
299.99997
299.99997
299.99997
299.99997
299.99997
299.99997
299.99997
299.99997
299.99997
299.99997
299.99997
299.99997
299.99997
299.99997
299.99997
299.99997
299.99997
299.99996
299.99996
299.99996
299.99997
299.99998
300.00002
300.00007
300.00009
300.0001
340.77196
323.5838
311.30251
304.5384
301.50558
300.37782
300.0515
299.99201
299.99297
299.99797
299.99973
300.00001
300
299.99999
299.99998
299.99998
299.99999
299.99999
299.99999
299.99999
299.99999
299.99999
299.99999
299.99999
299.99999
299.99999
299.99999
299.99999
299.99998
299.99998
299.99998
299.99998
299.99998
299.99998
299.99998
300
300.00003
300.00007
300.00009
300.0001
340.76958
323.56884
311.25917
304.48893
301.48711
300.3851
300.06367
299.99922
299.99553
299.99851
299.99978
300.00001
300.00001
300
300
300
300
300
300
300
300
300
300
300
300
300
300
300
300
300
300
299.99999
299.99999
299.99999
300
300.00001
300.00004
300.00007
300.00009
300.0001
340.76809
323.55894
311.22802
304.44888
301.46917
300.38871
300.07267
300.00493
299.99766
299.99899
299.99983
300
300.00001
300.00001
300.00001
300.00001
300.00001
300.00001
300.00001
300.00001
300.00001
300.00001
300.00001
300.00001
300.00001
300.00001
300.00001
300.00001
300.00001
300.00001
300
300
300
300
300.00001
300.00002
300.00005
300.00008
300.00009
300.0001
340.76717
323.55257
311.20655
304.41809
301.45302
300.38954
300.07872
300.0091
299.99929
299.99939
299.99987
300
300.00001
300.00001
300.00001
300.00001
300.00001
300.00001
300.00001
300.00001
300.00001
300.00001
300.00001
300.00001
300.00001
300.00001
300.00001
300.00001
300.00001
300.00001
300.00001
300.00001
300.00001
300.00001
300.00002
300.00003
300.00005
300.00008
300.00009
300.0001
340.76662
323.54849
311.19212
304.39538
301.43935
300.38857
300.08241
300.01193
300.00046
299.9997
299.99992
300
300.00001
300.00001
300.00001
300.00001
300.00001
300.00001
300.00001
300.00001
300.00001
300.00001
300.00001
300.00001
300.00001
300.00001
300.00001
300.00001
300.00001
300.00001
300.00001
300.00001
300.00001
300.00001
300.00002
300.00003
300.00005
300.00008
300.00009
300.0001
340.76627
323.54577
311.18242
304.37911
301.42835
300.38666
300.08438
300.01372
300.00125
299.99991
299.99995
300
300.00001
300.00001
300.00001
300.00001
300.00001
300.00001
300.00001
300.00001
300.00001
300.00001
300.00001
300.00001
300.00001
300.00001
300.00001
300.00001
300.00001
300.00001
300.00001
300.00001
300.00001
300.00002
300.00002
300.00003
300.00005
300.00008
300.00009
300.0001
340.76603
323.54383
311.17565
304.36754
301.41982
300.38446
300.08525
300.01476
300.00174
300.00006
299.99998
300.00001
300.00001
300.00001
300.00001
300.00001
300.00001
300.00001
300.00001
300.00001
300.00001
300.00001
300.00001
300.00001
300.00001
300.00001
300.00001
300.00001
300.00001
300.00001
300.00001
300.00001
300.00001
300.00002
300.00002
300.00003
300.00005
300.00007
300.00009
300.0001
340.76584
323.5423
311.1706
304.3592
301.41333
300.38236
300.08552
300.01535
300.00205
300.00016
300
300.00001
300.00001
300.00001
300.00001
300.00001
300.00001
300.00001
300.00001
300.00001
300.00001
300.00001
300.00001
300.00001
300.00001
300.00001
300.00001
300.00001
300.00001
300.00001
300.00001
300.00001
300.00001
300.00001
300.00002
300.00003
300.00005
300.00007
300.00009
300.0001
340.76568
323.541
311.16655
304.35295
301.40843
300.38058
300.0855
300.01566
300.00223
300.00022
300.00001
300.00001
300.00001
300.00001
300.00001
300.00001
300.00001
300.00001
300.00001
300.00001
300.00001
300.00001
300.00001
300.00001
300.00001
300.00001
300.00001
300.00001
300.00001
300.00001
300.00001
300.00001
300.00001
300.00001
300.00002
300.00003
300.00005
300.00007
300.00009
300.0001
340.76552
323.53984
311.1631
304.34803
301.40468
300.37914
300.08539
300.01584
300.00234
300.00026
300.00002
300.00001
300.00001
300.00001
300.00001
300.00001
300.00001
300.00001
300.00001
300.00001
300.00001
300.00001
300.00001
300.00001
300.00001
300.00001
300.00001
300.00001
300.00001
300.00001
300.00001
300.00001
300.00001
300.00001
300.00002
300.00003
300.00005
300.00007
300.00009
300.0001
340.76538
323.5388
311.16008
304.34396
301.40174
300.37801
300.08527
300.01595
300.00242
300.00029
300.00003
300.00001
300.00001
300.00001
300.00001
300.00001
300.00001
300.00001
300.00001
300.00001
300.00001
300.00001
300.00001
300.00001
300.00001
300.00001
300.00001
300.00001
300.00001
300.00001
300.00001
300.00001
300.00001
300.00001
300.00002
300.00003
300.00005
300.00007
300.00009
300.0001
340.76525
323.53785
311.15741
304.3405
301.39935
300.37713
300.08518
300.01603
300.00247
300.0003
300.00003
300.00001
300.00001
300.00001
300.00001
300.00001
300.00001
300.00001
300.00001
300.00001
300.00001
300.00001
300.00001
300.00001
300.00001
300.00001
300.00001
300.00001
300.00001
300.00001
300.00001
300.00001
300.00001
300.00001
300.00002
300.00003
300.00005
300.00007
300.00009
300.0001
340.76513
323.53701
311.15506
304.33751
301.39737
300.37644
300.08512
300.0161
300.00252
300.00032
300.00004
300.00001
300.00001
300.00001
300.00001
300.00001
300.00001
300.00001
300.00001
300.00001
300.00001
300.00001
300.00001
300.00001
300.00001
300.00001
300.00001
300.00001
300.00001
300.00001
300.00001
300.00001
300.00001
300.00001
300.00002
300.00003
300.00005
300.00007
300.00009
300.00009
340.76503
323.53627
311.15301
304.33492
301.39568
300.37587
300.08508
300.01616
300.00255
300.00033
300.00004
300.00001
300.00001
300.00001
300.00001
300.00001
300.00001
300.00001
300.00001
300.00001
300.00001
300.00001
300.00001
300.00001
300.00001
300.00001
300.00001
300.00001
300.00001
300.00001
300.00001
300.00001
300.00001
300.00001
300.00002
300.00003
300.00005
300.00007
300.00009
300.00009
340.76493
323.53562
311.15123
304.33268
301.39425
300.3754
300.08506
300.01621
300.00258
300.00034
300.00004
300.00001
300.00001
300.00001
300.00001
300.00001
300.00001
300.00001
300.00001
300.00001
300.00001
300.00001
300.00001
300.00001
300.00001
300.00001
300.00001
300.00001
300.00001
300.00001
300.00001
300.00001
300.00001
300.00001
300.00002
300.00003
300.00005
300.00007
300.00009
300.00009
340.76486
323.53506
311.14969
304.33075
301.39301
300.375
300.08504
300.01626
300.00261
300.00035
300.00004
300.00001
300.00001
300.00001
300.00001
300.00001
300.00001
300.00001
300.00001
300.00001
300.00001
300.00001
300.00001
300.00001
300.00001
300.00001
300.00001
300.00001
300.00001
300.00001
300.00001
300.00001
300.00001
300.00001
300.00002
300.00003
300.00005
300.00007
300.00009
300.00009
340.76479
323.53457
311.14837
304.32909
301.39195
300.37466
300.08502
300.0163
300.00263
300.00036
300.00005
300.00001
300.00001
300.00001
300.00001
300.00001
300.00001
300.00001
300.00001
300.00001
300.00001
300.00001
300.00001
300.00001
300.00001
300.00001
300.00001
300.00001
300.00001
300.00001
300.00001
300.00001
300.00001
300.00001
300.00002
300.00003
300.00005
300.00007
300.00009
300.00009
340.76474
323.53416
311.14723
304.32766
301.39104
300.37436
300.08501
300.01634
300.00265
300.00036
300.00005
300.00001
300.00001
300.00001
300.00001
300.00001
300.00001
300.00001
300.00001
300.00001
300.00001
300.00001
300.00001
300.00001
300.00001
300.00001
300.00001
300.00001
300.00001
300.00001
300.00001
300.00001
300.00001
300.00001
300.00002
300.00003
300.00005
300.00007
300.00009
300.00009
340.7647
323.53381
311.14625
304.32644
301.39026
300.37411
300.08499
300.01636
300.00267
300.00037
300.00005
300.00001
300.00001
300.00001
300.00001
300.00001
300.00001
300.00001
300.00001
300.00001
300.00001
300.00001
300.00001
300.00001
300.00001
300.00001
300.00001
300.00001
300.00001
300.00001
300.00001
300.00001
300.00001
300.00001
300.00001
300.00003
300.00005
300.00007
300.00009
300.00009
340.76467
323.53351
311.14541
304.32539
301.38959
300.37389
300.08498
300.01639
300.00268
300.00037
300.00005
300.00001
300.00001
300.00001
300.00001
300.00001
300.00001
300.00001
300.00001
300.00001
300.00001
300.00001
300.00001
300.00001
300.00001
300.00001
300.00001
300.00001
300.00001
300.00001
300.00001
300.00001
300.00001
300.00001
300.00001
300.00003
300.00005
300.00007
300.00009
300.00009
340.76466
323.53328
311.14469
304.32448
301.38902
300.3737
300.08497
300.01641
300.00269
300.00038
300.00005
300.00001
300.00001
300.00001
300.00001
300.00001
300.00001
300.00001
300.00001
300.00001
300.00001
300.00001
300.00001
300.00001
300.00001
300.00001
300.00001
300.00001
300.00001
300.00001
300.00001
300.00001
300.00001
300.00001
300.00001
300.00002
300.00004
300.00007
300.00009
300.00009
340.76466
323.53309
311.14408
304.32371
301.38852
300.37354
300.08496
300.01642
300.0027
300.00038
300.00005
300.00001
300.00001
300.00001
300.00001
300.00001
300.00001
300.00001
300.00001
300.00001
300.00001
300.00001
300.00001
300.00001
300.00001
300.00001
300.00001
300.00001
300.00001
300.00001
300.00001
300.00001
300.00001
300.00001
300.00001
300.00002
300.00004
300.00007
300.00009
300.00009
340.76467
323.53295
311.14357
304.32305
301.3881
300.3734
300.08495
300.01644
300.00271
300.00038
300.00005
300.00001
300.00001
300.00001
300.00001
300.00001
300.00001
300.00001
300.00001
300.00001
300.00001
300.00001
300.00001
300.00001
300.00001
300.00001
300.00001
300.00001
300.00001
300.00001
300.00001
300.00001
300.00001
300.00001
300.00001
300.00002
300.00004
300.00007
300.00009
300.00009
340.76469
323.53286
311.14315
304.32248
301.38773
300.37328
300.08494
300.01645
300.00272
300.00039
300.00005
300.00001
300.00001
300.00001
300.00001
300.00001
300.00001
300.00001
300.00001
300.00001
300.00001
300.00001
300.00001
300.00001
300.00001
300.00001
300.00001
300.00001
300.00001
300.00001
300.00001
300.00001
300.00001
300.00001
300.00001
300.00002
300.00004
300.00007
300.00009
300.00009
340.76473
323.53281
311.14281
304.322
301.38742
300.37318
300.08494
300.01646
300.00272
300.00039
300.00005
300.00001
300.00001
300.00001
300.00001
300.00001
300.00001
300.00001
300.00001
300.00001
300.00001
300.00001
300.00001
300.00001
300.00001
300.00001
300.00001
300.00001
300.00001
300.00001
300.00001
300.00001
300.00001
300.00001
300.00001
300.00002
300.00004
300.00007
300.00009
300.00009
340.76478
323.53281
311.14255
304.3216
301.38716
300.37309
300.08493
300.01647
300.00273
300.00039
300.00005
300.00001
300.00001
300.00001
300.00001
300.00001
300.00001
300.00001
300.00001
300.00001
300.00001
300.00001
300.00001
300.00001
300.00001
300.00001
300.00001
300.00001
300.00001
300.00001
300.00001
300.00001
300.00001
300.00001
300.00001
300.00002
300.00004
300.00007
300.00009
300.00009
340.76484
323.53285
311.14236
304.32128
301.38693
300.37302
300.08493
300.01648
300.00273
300.00039
300.00005
300.00001
300.00001
300.00001
300.00001
300.00001
300.00001
300.00001
300.00001
300.00001
300.00001
300.00001
300.00001
300.00001
300.00001
300.00001
300.00001
300.00001
300.00001
300.00001
300.00001
300.00001
300.00001
300.00001
300.00001
300.00002
300.00004
300.00007
300.00009
300.00009
340.76492
323.53294
311.14223
304.32101
301.38674
300.37296
300.08492
300.01648
300.00274
300.00039
300.00005
300.00001
300.00001
300.00001
300.00001
300.00001
300.00001
300.00001
300.00001
300.00001
300.00001
300.00001
300.00001
300.00001
300.00001
300.00001
300.00001
300.00001
300.00001
300.00001
300.00001
300.00001
300.00001
300.00001
300.00001
300.00002
300.00004
300.00007
300.00009
300.00009
340.76502
323.53307