/*--------------------------------*- C++ -*----------------------------------*\
  =========                 |
  \\      /  F ield         | OpenFOAM: The Open Source CFD Toolbox
   \\    /   O peration     | Website:  https://openfoam.org
    \\  /    A nd           | Version:  10
     \\/     M anipulation  |
\*---------------------------------------------------------------------------*/
FoamFile
{
    format      ascii;
    class       volScalarField;
    location    "0.09";
    object      TporMedia_0;
}
// * * * * * * * * * * * * * * * * * * * * * * * * * * * * * * * * * * * * * //

dimensions      [0 0 0 1 0 0 0];

internalField   nonuniform List<scalar> 
4000
(
-3.5774246e-06
1.8323854e-06
-0.0001397472
-0.00018691664
-0.00082389913
-0.00039421337
-0.0004040768
-0.00041141621
-0.00040004143
-0.00037101146
-0.0004433567
-0.00040700252
-0.00034746186
-0.00029889889
-0.00039420103
-0.00035139154
-0.00033336807
-0.00031674658
-0.0002638604
-0.00031813293
-0.00027785433
-0.00026512932
-0.00032426281
-0.00029412367
-0.00029524044
-0.00028512482
-0.00035679985
-0.00029964371
-0.00031696189
-0.00036099975
-0.00030555114
-0.00040061724
-0.0003812725
-0.00040264
-0.00040659713
-0.0004093732
-0.00054301195
-0.00044523402
-0.00061543824
-0.00063033966
-3.1659714e-07
1.7510682e-15
-4.2227672e-13
1.3034365e-11
1.4617883e-10
1.7308017e-10
2.2148337e-10
2.5276965e-10
1.6095185e-10
1.6428057e-10
1.9828333e-10
1.8709804e-10
1.5068752e-10
1.262171e-10
1.604281e-10
1.2283715e-10
1.5684981e-10
1.3016944e-10
1.4527097e-10
1.2989369e-10
1.3756147e-10
1.1477961e-10
1.2356018e-10
1.0276728e-10
1.0225137e-10
1.1796424e-10
1.3622925e-10
1.2388832e-10
1.1286006e-10
1.4914982e-10
1.786527e-10
1.6403744e-10
2.0687434e-10
1.8744396e-10
2.2361828e-10
2.6860865e-10
3.0186573e-10
2.5520799e-10
4.2666057e-10
4.2644617e-10
-1.2805531e-07
-5.0876808e-16
-3.5990922e-22
1.5209234e-19
-5.5779165e-18
-5.024475e-17
-1.1642269e-16
-1.1334294e-16
-6.9815195e-17
-7.1918958e-17
-8.7511959e-17
-8.1691619e-17
-6.3831819e-17
-8.7052895e-17
-7.7852631e-17
-4.7038764e-17
-5.6665965e-17
-5.3230458e-17
-6.7832596e-17
-5.0472392e-17
-6.2841986e-17
-4.3256475e-17
-4.9311116e-17
-3.5812691e-17
-4.57387e-17
-4.334504e-17
-5.6669619e-17
-4.4225247e-17
-5.0102036e-17
-5.4303816e-17
-6.4759624e-17
-7.0092722e-17
-1.2481492e-16
-9.6762294e-17
-9.0899279e-17
-1.4147745e-16
-2.0214181e-16
-2.0376049e-16
-3.6407497e-16
-2.2940284e-16
-6.874132e-08
2.7944873e-17
1.2309002e-26
3.0402665e-28
1.1718024e-25
3.0571872e-24
5.1724343e-23
5.1279856e-23
2.750152e-23
3.1554911e-23
2.7902707e-23
3.5437931e-23
2.2384758e-23
3.0518233e-23
3.4156275e-23
1.5185891e-23
2.0015606e-23
1.8385314e-23
2.4109285e-23
1.8160203e-23
2.1878088e-23
1.3962024e-23
1.7461728e-23
1.0485853e-23
1.6376018e-23
1.7380864e-23
2.0399229e-23
1.7618675e-23
2.2579619e-23
1.7379759e-23
2.3956218e-23
3.4233575e-23
4.9433201e-23
3.4537428e-23
3.8771707e-23
7.1963845e-23
8.0523591e-23
9.6109555e-23
1.4481849e-22
1.3556636e-22
-4.3207754e-08
5.4271888e-18
1.8270005e-27
1.5036817e-36
6.8886003e-32
-6.4992572e-32
-1.011632e-29
-2.0430741e-29
-9.6784048e-30
-1.3561449e-29
-1.159126e-29
-1.1443195e-29
-7.3078548e-30
-9.929278e-30
-9.4801237e-30
-5.1648309e-30
-5.6343229e-30
-5.6017661e-30
-7.5247133e-30
-5.9476728e-30
-7.3133253e-30
-4.9448999e-30
-5.6227205e-30
-3.5218983e-30
-6.2962776e-30
-5.0921159e-30
-8.9632e-30
-4.9211419e-30
-7.2938078e-30
-5.5093452e-30
-7.6357894e-30
-1.2696918e-29
-1.8014385e-29
-1.4057105e-29
-1.7088537e-29
-2.9354281e-29
-3.6069929e-29
-4.5314984e-29
-7.2915263e-29
-6.8879201e-29
-3.0043265e-08
1.8033782e-18
7.4076454e-28
2.5693251e-37
2.7388137e-40
7.0194674e-40
6.1921751e-37
1.2550088e-35
3.2061075e-36
4.0207173e-36
3.3149197e-36
4.0156361e-36
2.8773889e-36
3.0783601e-36
2.9657067e-36
1.5072181e-36
1.6544373e-36
1.784827e-36
2.2300106e-36
1.8456164e-36
2.1814165e-36
1.435619e-36
1.6776226e-36
1.0754499e-36
1.8064093e-36
1.2817653e-36
2.6552555e-36
1.7042429e-36
2.3324649e-36
1.8416121e-36
2.6432217e-36
3.7349526e-36
5.5958242e-36
4.7002252e-36
5.4501329e-36
1.0544316e-35
1.6223992e-35
1.7279529e-35
3.0603157e-35
2.6780859e-35
-2.2400829e-08
7.7921305e-19
-4.3209972e-27
-9.1180811e-37
-1.0630222e-45
-5.4696735e-48
-1.4198146e-44
-3.0485112e-42
-1.2631029e-42
-1.3553722e-42
-1.2064915e-42
-1.2661745e-42
-8.0296328e-43
-8.3136213e-43
-8.5510055e-43
-3.8890277e-43
-5.2166257e-43
-4.8942991e-43
-6.27208e-43
-5.3980165e-43
-5.9443506e-43
-3.6641342e-43
-4.2100724e-43
-3.1757821e-43
-4.5756499e-43
-3.5250154e-43
-8.500949e-43
-4.4541405e-43
-7.1158339e-43
-5.259409e-43
-7.2996791e-43
-1.3392292e-42
-1.9718046e-42
-1.2829528e-42
-1.6975486e-42
-3.2192021e-42
-7.1849665e-42
-6.5589467e-42
-1.6547995e-41
-9.1825306e-42
-1.7530065e-08
3.9547626e-19
-7.0248904e-29
-1.0567898e-38
-5.3927495e-48
1.1299594e-55
1.5702667e-52
3.4328984e-49
7.8560939e-49
4.4381395e-49
3.124473e-49
3.1462401e-49
2.0119601e-49
2.4557268e-49
2.0550703e-49
1.2170769e-49
1.3240113e-49
1.3399162e-49
1.59391e-49
1.5609129e-49
1.550975e-49
9.444649e-50
1.2052663e-49
9.3318131e-50
1.1371756e-49
9.1656219e-50
1.8971342e-49
1.333365e-49
1.9291651e-49
1.7573965e-49
1.9416887e-49
3.6932571e-49
4.8395162e-49
4.1689199e-49
4.8135118e-49
1.2400125e-48
2.3803848e-48
2.4065077e-48
5.8187618e-48
2.8529468e-48
-1.4147236e-08
2.2271334e-19
-1.5276563e-29
-1.8776648e-39
-5.1564686e-49
-5.8460685e-57
-9.9274477e-61
-1.499382e-56
-4.3309271e-55
-1.4793696e-55
-8.29369e-56
-7.5227631e-56
-5.9988088e-56
-5.9637121e-56
-5.0448872e-56
-3.1263869e-56
-3.3177227e-56
-2.9813925e-56
-3.3753538e-56
-3.1257892e-56
-3.4516841e-56
-2.0700965e-56
-3.3772544e-56
-2.4653928e-56
-2.6957917e-56
-2.7266867e-56
-4.8688762e-56
-3.4021026e-56
-4.8339822e-56
-4.5790468e-56
-6.1366052e-56
-1.0319301e-55
-1.2213501e-55
-1.2549256e-55
-1.4171251e-55
-3.4184455e-55
-6.9327198e-55
-9.2187951e-55
-1.7939596e-54
-7.4727761e-55
-1.1594177e-08
1.3389777e-19
-4.8460836e-30
-5.6009306e-40
-9.4658093e-50
-1.8066098e-58
7.9086929e-67
2.9481222e-64
1.6722917e-61
5.3293601e-62
2.1527144e-62
1.7915243e-62
1.4786499e-62
1.5538936e-62
1.2336571e-62
7.9387703e-63
7.3759827e-63
7.4637753e-63
7.7142101e-63
8.0504897e-63
7.6399569e-63
5.2104978e-63
7.6709467e-63
5.5909528e-63
5.8695974e-63
6.274358e-63
1.0775611e-62
7.8238544e-63
1.2174796e-62
1.2368811e-62
1.375064e-62
2.7549463e-62
3.0887754e-62
3.6005882e-62
3.8719635e-62
1.1433712e-61
2.2285238e-61
2.9716244e-61
5.9485598e-61
1.90757e-61
-9.5297508e-09
8.3595278e-20
-1.8419904e-30
-2.4239756e-40
-2.7797116e-50
-2.1048802e-59
7.5141256e-68
-3.0245277e-72
-2.7957493e-68
-2.210186e-68
-4.5834089e-69
-3.6991403e-69
-3.2879571e-69
-3.1740482e-69
-2.8506e-69
-1.7587632e-69
-1.7279665e-69
-1.6478297e-69
-1.5443836e-69
-1.6576179e-69
-1.499336e-69
-1.0364312e-69
-1.5389394e-69
-1.2758049e-69
-1.1758396e-69
-1.1533676e-69
-2.3850056e-69
-1.7233151e-69
-2.9892123e-69
-2.8361592e-69
-3.1247603e-69
-5.887886e-69
-8.1456973e-69
-1.0767217e-68
-8.5316419e-69
-3.2074612e-68
-7.3991859e-68
-9.4055975e-68
-1.7823216e-67
-3.9664461e-68
-7.7888745e-09
5.317094e-20
-7.7628611e-31
-1.7890706e-40
-1.5017014e-50
-5.8296346e-60
2.1685239e-68
-1.3292443e-76
1.824389e-75
1.1526923e-74
1.0933568e-75
7.8086768e-76
6.7221909e-76
6.8583815e-76
5.7082838e-76
3.425204e-76
3.2783769e-76
3.2400697e-76
2.9189346e-76
3.6663196e-76
2.7729e-76
2.1716605e-76
3.1498727e-76
2.5227978e-76
2.3982604e-76
2.438975e-76
4.7022213e-76
3.4096583e-76
5.5758668e-76
6.9695915e-76
7.1498e-76
1.2609841e-75
1.5659389e-75
2.2408468e-75
2.1506142e-75
9.6254699e-75
1.9128258e-74
2.7811306e-74
3.9906448e-74
8.4682118e-75
-6.2979811e-09
3.4022266e-20
-3.481105e-31
1.9309995e-40
1.2630614e-50
2.8849594e-60
-2.0308569e-68
8.2131997e-77
-5.7356829e-83
-9.9247697e-81
-2.6959135e-82
-1.7415565e-82
-1.2961544e-82
-1.2695441e-82
-1.0008258e-82
-6.2222342e-83
-6.3517377e-83
-6.5554806e-83
-5.015207e-83
-6.8480256e-83
-5.3541665e-83
-3.8213763e-83
-5.6368221e-83
-4.5879832e-83
-4.5281355e-83
-4.3298916e-83
-9.3337479e-83
-6.660443e-83
-1.0361529e-82
-1.3165389e-82
-1.6153121e-82
-2.6412897e-82
-3.4295826e-82
-4.915502e-82
-4.6816274e-82
-2.4456607e-81
-4.4790385e-81
-6.3743306e-81
-8.2539793e-81
-1.442197e-81
-5.0157289e-09
2.1680109e-20
-1.6174559e-31
1.3990743e-41
7.5332779e-52
1.1089247e-61
6.7464152e-70
-1.9728691e-78
3.1638659e-86
4.6175938e-87
6.9686246e-89
3.097378e-89
2.2095651e-89
2.1601696e-89
1.8575257e-89
1.1370383e-89
1.0565499e-89
1.1261254e-89
7.9465952e-90
1.1733274e-89
9.0655397e-90
6.1488042e-90
9.4697913e-90
7.6394877e-90
7.76118e-90
7.1885603e-90
1.5389365e-89
1.3061643e-89
1.7692663e-89
2.491665e-89
3.2707739e-89
4.5492518e-89
6.8091381e-89
9.0086125e-89
9.8296578e-89
5.6577029e-88
1.0289373e-87
1.1931273e-87
1.4939175e-87
2.036424e-88
-3.9164157e-09
1.3631416e-20
-7.6338381e-32
2.9648644e-42
1.3835763e-52
1.403019e-62
1.9442719e-71
-4.4812611e-80
4.1743081e-88
-1.078831e-93
-2.5208116e-95
-5.6210913e-96
-4.0418022e-96
-3.7782984e-96
-3.231739e-96
-1.9049127e-96
-1.730847e-96
-1.8158568e-96
-1.2473726e-96
-1.7840976e-96
-1.5430037e-96
-9.3882197e-97
-1.4703126e-96
-1.1505811e-96
-1.2326123e-96
-1.1566777e-96
-2.4284781e-96
-2.1542589e-96
-3.0191745e-96
-4.4178831e-96
-5.4078012e-96
-7.6638921e-96
-1.2096299e-95
-1.6798621e-95
-1.7559593e-95
-1.1231878e-94
-2.2236925e-94
-2.4606953e-94
-2.4838144e-94
-2.1196698e-95
-2.998318e-09
8.4223187e-21
-3.6180631e-32
7.9911531e-43
3.4063891e-53
2.505839e-63
1.5603624e-72
-3.1075346e-81
1.8619282e-89
-1.5930696e-96
1.0375918e-101
9.6877846e-103
6.5554647e-103
5.8727288e-103
5.1231957e-103
2.7702038e-103
2.7964533e-103
2.6452225e-103
1.8039584e-103
2.4343373e-103
2.1894058e-103
1.2975937e-103
2.1426901e-103
1.6472813e-103
1.9007658e-103
1.8931871e-103
3.9911957e-103
3.2790361e-103
4.7696207e-103
7.1955288e-103
8.3784314e-103
1.3173749e-102
1.8320623e-102
2.8461654e-102
3.0370993e-102
2.1287996e-101
4.0946008e-101
4.4199056e-101
3.8131445e-101
1.3693584e-102
-2.2724473e-09
5.1469725e-21
-1.7237148e-32
2.4213311e-43
1.0007908e-53
5.5702558e-64
1.9246597e-73
-3.7094491e-82
1.5171335e-90
-6.3158275e-98
2.7614819e-104
-1.8165326e-109
-9.7937898e-110
-8.566459e-110
-7.2812042e-110
-3.9058086e-110
-4.1307387e-110
-3.6424486e-110
-2.4739751e-110
-3.5907028e-110
-2.9558058e-110
-1.7770005e-110
-2.9616079e-110
-2.1448051e-110
-2.7911253e-110
-2.6076046e-110
-6.003824e-110
-5.0026016e-110
-6.7653214e-110
-1.0070485e-109
-1.3594279e-109
-2.028614e-109
-2.8766994e-109
-4.594035e-109
-5.4019796e-109
-3.8464074e-108
-7.0295455e-108
-6.5808857e-108
-4.5927854e-108
-6.0810875e-110
-1.7327778e-09
3.1567212e-21
-8.3406996e-33
7.9656614e-44
3.4492325e-54
1.5048374e-64
3.2282624e-74
-7.1400366e-83
2.1239315e-91
-4.8070086e-99
3.5910549e-105
-6.4206228e-112
1.4472747e-116
1.1161741e-116
9.737118e-117
5.4620438e-117
5.3818704e-117
5.0746268e-117
3.1216443e-117
4.5661938e-117
3.9950153e-117
2.1878891e-117
3.8861544e-117
2.7124118e-117
3.599218e-117
3.3173227e-117
7.8597632e-117
6.566177e-117
8.9453626e-117
1.2977169e-116
1.8414697e-116
2.770374e-116
4.1272775e-116
7.5254373e-116
9.010105e-116
6.2259469e-115
1.1331379e-114
9.2874671e-115
4.3583662e-115
2.3548054e-117
-1.3481846e-09
1.9713185e-21
-4.1452387e-33
2.8146982e-44
1.4408314e-54
5.0814359e-65
7.2812842e-75
-2.7983879e-83
6.392456e-92
-8.8214909e-100
2.9963393e-106
-6.3460564e-113
8.2499135e-120
-1.3407266e-123
-1.2509825e-123
-6.6776943e-124
-6.4073126e-124
-6.0292793e-124
-3.9275578e-124
-5.5607948e-124
-4.616786e-124
-2.6464017e-124
-4.5105375e-124
-3.534061e-124
-4.3670659e-124
-3.9999186e-124
-9.3076311e-124
-8.2815771e-124
-1.0939819e-123
-1.5843399e-123
-2.3936535e-123
-3.5448503e-123
-5.5263414e-123
-1.0343724e-122
-1.3278185e-122
-9.3889247e-122
-1.5217434e-121
-1.0848616e-121
-3.5314303e-122
-1.1888775e-124
-1.0775019e-09
1.2641074e-21
-2.1290212e-33
1.0613613e-44
8.2867043e-55
2.4285511e-65
2.4521872e-75
2.4352169e-83
-4.494249e-92
4.0236819e-100
-6.1871054e-107
1.2246479e-113
-1.5046749e-120
1.8598374e-127
1.501211e-130
7.9725665e-131
7.7736486e-131
7.1897194e-131
4.5804076e-131
6.0633385e-131
4.8606047e-131
2.8643015e-131
5.3642816e-131
4.0375226e-131
4.6891395e-131
4.6287811e-131
1.0932072e-130
9.2511434e-131
1.3388066e-130
1.8936291e-130
3.0427951e-130
4.3590998e-130
6.4732271e-130
1.3104366e-129
1.7744698e-129
1.2537956e-128
1.8145753e-128
1.1386284e-128
2.7548279e-129
2.7396747e-131
-8.8427404e-10
8.3403358e-22
-1.130714e-33
4.2397137e-45
2.0159825e-54
5.0368468e-65
3.7369328e-75
5.509778e-84
-8.6526549e-93
5.3464355e-101
-4.5494279e-108
9.5076093e-115
-1.0948025e-121
1.2444831e-128
-1.4203625e-135
-8.7425781e-138
-8.3558271e-138
-7.7378789e-138
-4.8973246e-138
-6.3124068e-138
-5.0809329e-138
-2.9050896e-138
-5.6497318e-138
-4.1802524e-138
-5.2449745e-138
-4.7109486e-138
-1.1372289e-137
-9.8614552e-138
-1.3530927e-137
-2.0337973e-137
-3.4988212e-137
-4.9845279e-137
-7.2599392e-137
-1.5532027e-136
-2.3042101e-136
-1.5430326e-135
-1.8810025e-135
-1.050469e-135
-2.4874642e-136
1.7098504e-138
-7.4215738e-10
5.6518297e-22
-6.1949389e-34
1.7805137e-45
-1.3185355e-55
-2.8786398e-66
-1.6240537e-76
-1.0691484e-85
1.5129126e-94
-6.7726715e-103
3.3122863e-110
-6.9262602e-117
8.6663647e-124
-9.025539e-131
9.4530432e-138
-7.2686622e-146
8.1410341e-145
7.5951263e-145
5.0123742e-145
6.2628498e-145
5.2132808e-145
2.8183628e-145
5.4621743e-145
4.3231841e-145
5.2401298e-145
4.5057106e-145
1.1166937e-144
9.7868335e-145
1.3596263e-144
2.1377526e-144
3.7141598e-144
5.1243937e-144
8.3982998e-144
1.6410028e-143
2.6456515e-143
1.6919618e-142
1.7412783e-142
8.9493179e-143
2.9429718e-143
5.2906422e-146
-6.3426828e-10
3.9244815e-22
-3.4933052e-34
7.8158722e-46
-2.2291412e-56
-4.3596539e-67
-1.9263623e-77
-7.2131056e-87
9.8004063e-96
-3.3348031e-104
9.6779784e-112
-1.9984052e-118
2.1751108e-125
-2.1049501e-132
1.9404027e-139
-1.8071594e-146
-7.2899203e-152
-6.9348617e-152
-4.5081724e-152
-5.5490965e-152
-4.7640482e-152
-2.5644016e-152
-5.167223e-152
-3.7685738e-152
-4.792158e-152
-4.0724744e-152
-1.0470273e-151
-9.2286252e-152
-1.2454066e-151
-2.0639132e-151
-3.6208602e-151
-5.3116497e-151
-8.0896608e-151
-1.714701e-150
-2.8491074e-150
-1.7291564e-149
-1.3756171e-149
-6.6840677e-150
-6.0442234e-150
1.334553e-153
-5.505101e-10
2.7898944e-22
-2.0269032e-34
3.5772336e-46
-5.6132667e-57
-1.0092712e-67
-3.5841767e-78
-8.589975e-88
1.2207968e-96
-3.2841411e-105
6.3749242e-113
-9.9336371e-120
1.0542337e-126
-8.9725945e-134
7.4671258e-141
-6.5630673e-148
5.8646755e-155
5.7351784e-159
3.7558968e-159
4.4871148e-159
3.9703374e-159
2.2108235e-159
4.4418757e-159
3.184535e-159
4.1130071e-159
3.4795332e-159
8.8054826e-159
7.912448e-159
1.1143248e-158
1.7661011e-158
3.3144824e-158
4.6943144e-158
7.4859453e-158
1.6587103e-157
2.8427909e-157
1.5039299e-156
1.0406545e-156
4.6111593e-157
2.8492652e-156
3.4495563e-161
-4.8493091e-10
2.0330211e-22
-1.2129324e-34
1.708986e-46
-1.6969426e-57
-2.884976e-68
-8.4258484e-79
-1.3902123e-88
2.3674939e-97
-5.2289338e-106
6.9366688e-114
-8.3073843e-121
8.483666e-128
-7.1211022e-135
5.8406544e-142
-4.6580802e-149
3.6721141e-156
-2.9052632e-163
-3.0428861e-166
-3.5075805e-166
-3.2169106e-166
-1.7869569e-166
-3.6330446e-166
-2.5093213e-166
-3.0760411e-166
-2.6949939e-166
-6.8887669e-166
-6.2118249e-166
-8.8811699e-166
-1.4700184e-165
-2.8462366e-165
-3.7379796e-165
-6.6226847e-165
-1.4634386e-164
-2.4481401e-164
-1.1686631e-163
-6.7927521e-164
-3.0562524e-164
3.7469948e-162
1.0933351e-168
-4.3381972e-10
1.5229284e-22
-7.5189225e-35
8.5564798e-47
-5.8142592e-58
-9.647193e-69
-2.3662167e-79
-2.8317538e-89
7.7638999e-98
-1.4630234e-106
1.3979091e-114
-1.2697655e-121
1.240878e-128
-1.0421321e-135
8.3647192e-143
-6.7936257e-150
5.2578182e-157
-3.9985008e-164
3.1722836e-171
2.6501543e-173
2.3803944e-173
1.3623825e-173
2.6693505e-173
1.8089201e-173
2.3631249e-173
2.0492504e-173
5.1011223e-173
4.5027754e-173
6.9472323e-173
1.1271594e-172
2.1549447e-172
2.9733865e-172
5.2245723e-172
1.116182e-171
1.9492294e-171
8.1644771e-171
4.0090417e-171
1.9542353e-171
3.210634e-168
1.4505682e-175
-3.9462973e-10
1.1768978e-22
-4.8546167e-35
4.5156118e-47
-2.2126575e-58
-3.7225607e-69
-7.8232066e-80
-7.0747631e-90
4.218219e-97
-7.0420276e-106
5.1156388e-114
-3.1321132e-121
3.1135007e-128
-2.490633e-135
1.8757164e-142
-1.3411455e-149
9.6465357e-157
-7.0119281e-164
4.9372742e-171
-3.5859968e-178
-1.7352753e-180
-9.7060576e-181
-1.8815396e-180
-1.3264662e-180
-1.7083941e-180
-1.4461612e-180
-3.6462281e-180
-3.2421209e-180
-5.0068225e-180
-8.4338552e-180
-1.5846061e-179
-2.2397957e-179
-4.0720924e-179
-9.004995e-179
-1.4351751e-178
-5.1596669e-178
-2.1007996e-178
-1.2337926e-178
1.344684e-174
5.4048331e-182
-3.6548492e-10
9.4153887e-23
-3.2828038e-35
2.527834e-47
-9.2881869e-59
-1.6671599e-69
-3.0648055e-80
-2.1709068e-90
-4.5881793e-99
7.0641331e-108
-4.0454078e-116
1.8204714e-123
-1.5856824e-130
1.1442665e-137
-7.7542526e-145
5.16242e-152
-3.4531833e-159
2.254415e-166
-1.4780547e-173
9.4935678e-181
5.0473637e-188
6.1698828e-188
1.1845539e-187
8.4975083e-188
1.1297285e-187
9.6673052e-188
2.4200253e-187
2.0979271e-187
3.3121457e-187
5.5315757e-187
1.0692219e-186
1.4886008e-186
2.9520965e-186
6.4496944e-186
1.0284561e-185
3.0983799e-185
1.0379095e-185
7.1794097e-186
3.6454531e-181
1.5665404e-188
-3.4497213e-10
7.8221253e-23
-2.336887e-35
1.5101902e-47
-4.2944936e-59
-8.8812976e-70
-1.4611375e-80
-8.3797077e-91
-7.5357831e-100
1.1242047e-108
-5.2612483e-117
1.6169362e-124
-1.140405e-131
6.8310382e-139
-3.8591192e-146
2.1282694e-153
-1.1505656e-160
6.2596779e-168
-3.4585283e-175
1.8770472e-182
-9.9556138e-190
-3.2325058e-195
-6.4425889e-195
-4.4564975e-195
-5.9714293e-195
-5.2318979e-195
-1.3263057e-194
-1.1894928e-194
-1.8318194e-194
-3.2096885e-194
-6.1410179e-194
-9.3151239e-194
-1.8479209e-193
-4.3277944e-193
-6.5513895e-193
-1.6966391e-192
-4.786893e-193
-4.0635761e-193
8.7394482e-188
3.7750135e-195
-3.3201706e-10
6.7657342e-23
-1.7588673e-35
9.6801871e-48
-2.1887816e-59
-5.9756823e-70
-9.0220321e-81
-4.3217608e-91
-2.2745137e-100
3.4862877e-109
-1.378759e-117
2.9915865e-125
-1.566483e-132
7.4640463e-140
-3.3983306e-147
1.5092633e-154
-6.7065718e-162
2.9292747e-169
-1.2625268e-176
5.5596416e-184
-2.3812038e-191
1.0281277e-198
2.7008744e-202
1.9358614e-202
2.6170739e-202
2.2678771e-202
5.7643652e-202
5.3126167e-202
8.2107093e-202
1.4455472e-201
2.9524506e-201
4.5452856e-201
9.5906979e-201
2.4594326e-200
3.6627497e-200
8.4894468e-200
1.9714776e-200
1.9815283e-200
2.0699206e-194
9.2834821e-202
-3.257509e-10
6.1034242e-23
-1.4043881e-35
6.6849735e-48
-1.2313596e-59
-6.1244078e-70
-8.7038317e-81
-3.5782742e-91
-1.2625109e-100
2.1490429e-109
-7.428516e-118
1.2161941e-125
-4.6965833e-133
1.8673793e-140
-6.9586097e-148
2.5834101e-155
-9.6304272e-163
3.5837155e-170
-1.3038041e-177
4.7108519e-185
-1.7040935e-192
6.0685361e-200
-2.2350831e-207
-7.0035405e-210
-9.3182744e-210
-8.3755563e-210
-2.110067e-209
-1.9407613e-209
-3.0306741e-209
-5.4553299e-209
-1.1319946e-208
-1.8243314e-208
-4.0554269e-208
-1.0554102e-207
-1.6654064e-207
-3.3873378e-207
-7.1876037e-208
-1.2941877e-207
6.7451746e-201
2.8617635e-208
-3.2533629e-10
5.7440216e-23
-1.1915917e-35
4.9849058e-48
-7.6506788e-60
7.7848271e-69
1.0638983e-79
3.8284464e-90
9.7644661e-100
-2.0686199e-108
6.4684016e-117
-8.4738214e-125
2.8918846e-132
-1.0544852e-139
3.6545903e-147
-1.3029471e-154
4.6295314e-162
-1.6301903e-169
5.7009017e-177
-2.0805953e-184
7.5114833e-192
-2.9320245e-199
-3.1820713e-206
-1.2534212e-211
6.1194661e-217
2.9396334e-217
7.3594232e-217
6.9152017e-217
1.06511e-216
1.8762969e-216
3.9300734e-216
6.3849426e-216
1.439887e-215
3.9242911e-215
6.0536921e-215
1.1230846e-214
2.2353023e-215
-8.2069915e-214
1.9015605e-206
6.8507364e-214
-3.2976408e-10
5.6270075e-23
-1.0732779e-35
4.0116039e-48
-5.2410809e-60
2.0454887e-70
2.7224996e-81
8.6629966e-92
1.6719666e-101
-5.4377701e-110
1.5869848e-118
-1.8412598e-126
6.9559773e-134
-3.0691382e-141
1.3612354e-148
-6.301762e-156
2.8624306e-163
-1.3310048e-170
6.3485104e-178
-3.0047712e-185
1.4288578e-192
-6.8031494e-200
3.1895207e-207
-1.4649219e-214
6.7864534e-222
-1.300572e-224
-3.2687971e-224
-2.984934e-224
-4.4239649e-224
-7.5478332e-224
-1.5317106e-223
-2.3822196e-223
-5.3869911e-223
-1.3535723e-222
-1.9648269e-222
-3.2794123e-222
-6.5512553e-223
1.41795e-220
-3.2605563e-213
-9.0171538e-221
-3.3765774e-10
5.7055245e-23
-1.0212769e-35
3.4689621e-48
-3.9379261e-60
7.5088529e-71
9.7675647e-82
2.7575856e-92
4.1530863e-102
-4.4017974e-110
1.2359991e-118
-1.3653034e-126
8.521182e-134
-9.0946872e-141
1.0009089e-147
-1.2818092e-154
1.6881406e-161
-2.2330374e-168
3.1734001e-175
-4.6871114e-182
6.2656166e-189
-8.8498164e-196
1.187038e-202
-1.5467651e-209
1.8534179e-216
-2.2025946e-223
2.2508197e-230
2.7632772e-231
3.5540868e-231
5.9123037e-231
1.0408048e-230
1.437127e-230
2.7399531e-230
6.0334022e-230
7.0824816e-230
9.7986459e-230
2.0436178e-230
-1.6465716e-227
3.2164081e-220
7.8665873e-228
-3.4719119e-10
5.9310165e-23
-1.0170358e-35
3.1948103e-48
-3.2133686e-60
3.9836307e-71
5.0792814e-82
1.2801675e-92
1.5505752e-102
9.2158383e-111
-2.5675817e-119
2.8674124e-127
-1.1010121e-133
-1.425721e-140
-1.7633526e-147
-2.193226e-154
-2.5880807e-161
-2.8085262e-168
-3.469113e-175
-4.1228163e-182
-5.2747723e-189
-6.8618336e-196
-9.2953489e-203
-1.3233127e-209
-1.9757531e-216
-3.2162413e-223
-6.3566787e-230
-1.3110141e-236
9.4708069e-238
2.119995e-237
1.0184395e-236
-9.247132e-237
-7.4482281e-237
-7.3252957e-237
-4.5688547e-237
-4.0505167e-237
-8.4257993e-238
1.6005928e-234
-2.7133484e-227
-6.0592616e-235
-3.5625831e-10
6.2404578e-23
-1.0453117e-35
3.0913296e-48
-2.8059803e-60
2.5272279e-71
3.2238016e-82
7.4160966e-93
7.5250758e-103
1.5859108e-111
-4.6101376e-120
5.1620046e-128
8.0821178e-135
4.6482546e-142
2.8019622e-149
1.8364443e-156
1.2529376e-163
8.9743357e-171
6.5569182e-178
5.0873981e-185
3.9903886e-192
3.0740125e-199
2.4530887e-206
2.2054982e-213
1.6298443e-220
1.8341232e-227
5.4047962e-235
5.6828084e-241
7.8365979e-245
1.7453374e-244
7.9222415e-244
-7.7730162e-244
-6.8855602e-244
-8.9117742e-244
-3.2070283e-243
4.7581533e-244
6.3398867e-245
-1.5260011e-241
3.029296e-234
7.3344627e-242
-3.6295785e-10
6.5524826e-23
-1.0899912e-35
3.0877906e-48
-2.572473e-60
1.7621759e-71
2.3906289e-82
5.2766084e-93
4.7660032e-103
5.904451e-112
-1.9524586e-120
1.998494e-128
-3.8760692e-135
-7.1600205e-142
-2.7740327e-148
6.0155523e-154
-3.1706888e-160
8.0414159e-167
-1.6225055e-173
2.5496035e-180
-3.5178113e-187
4.6916876e-194
-6.5083085e-201
9.970383e-208
-1.6866379e-214
3.2315689e-221
-8.8415708e-228
5.5886436e-234
1.3990131e-239
4.0966605e-246
1.2200363e-250
-8.1559618e-251
-5.3048228e-251
-5.8874459e-251
-2.5356939e-250
1.3135521e-250
-5.9058787e-252
5.8416226e-248
-1.8111305e-240
-5.1868968e-248
-3.6620895e-10
6.7811701e-23
-1.1327835e-35
3.121402e-48
-2.4228382e-60
1.2852268e-71
2.1199797e-82
4.8987617e-93
4.2941753e-103
3.816472e-112
-1.7169304e-120
1.4841911e-128
-3.2312974e-136
8.2633541e-144
-1.8833515e-151
3.8861148e-159
-7.0257183e-167
-1.8659641e-175
2.9454482e-181
-4.9486012e-188
6.8327781e-195
-9.2045888e-202
1.2684648e-208
-1.9614492e-215
3.41439e-222
-6.7166728e-229
1.8882986e-235
-1.2337789e-241
-3.3274577e-247
-1.0335806e-253
-4.17288e-258
3.8905691e-258
4.7075061e-258
4.3698329e-257
-4.8577618e-257
-9.7169332e-257
2.3461411e-259
3.8863986e-255
-2.0305836e-247
-7.4307228e-255
-3.6610634e-10
6.8671666e-23
-1.1560408e-35
3.1327296e-48
-2.2937193e-60
9.5584369e-72
2.6005716e-82
7.2301717e-93
6.9288713e-103
5.033359e-112
-5.3868384e-120
3.8282514e-128
-3.2881923e-136
2.8256287e-144
-2.3215146e-152
1.8383632e-160
-1.4160195e-168
1.064858e-176
-7.8797268e-185
5.8020927e-193
-4.2902346e-201
3.8091686e-209
-1.2185075e-216
1.5456534e-223
-2.7031673e-230
5.3970847e-237
-1.553755e-243
1.0410912e-249
2.9153077e-255
9.4299515e-262
4.3459419e-266
-4.6307684e-266
-6.9012847e-266
-8.7932084e-265
1.4461201e-264
2.7282825e-264
-3.7711368e-267
1.1809511e-262
-9.1056326e-255
-4.9398644e-262
-3.6374817e-10
6.8059852e-23
-1.1488056e-35
3.0742647e-48
-2.1418996e-60
7.1895241e-72
2.0421007e-81
8.6259558e-92
1.0628659e-101
6.9502869e-111
7.9711267e-119
-5.0449451e-127
2.5199459e-135
-1.2075143e-143
5.6624256e-152
-2.6125021e-160
1.1912402e-168
-5.3860097e-177
2.4183112e-185
-1.0812794e-193
4.8305381e-202
-2.1666923e-210
9.7542499e-219
-4.4272427e-227
2.0320857e-235
-9.6964319e-244
1.1953818e-251
-5.101757e-258
-1.4566787e-263
-4.8445163e-270
-2.388034e-274
2.7478076e-274
4.5922091e-274
6.9238593e-273
-1.3788747e-272
-2.7176371e-272
3.194846e-275
2.545016e-270
-2.4077333e-262
-2.3334542e-269
-3.6067623e-10
6.6474211e-23
-1.1116919e-35
2.9254677e-48
-1.9472885e-60
5.4754689e-72
-1.683341e-82
-1.8131405e-92
-3.5400581e-102
-2.1784004e-111
-7.0122795e-120
4.6065874e-128
-1.6844664e-136
5.8111227e-145
-1.9988222e-153
6.8743836e-162
-2.3578012e-170
8.0769249e-179
-2.7703584e-187
9.5248971e-196
-3.2764284e-204
1.131267e-212
-3.9189093e-221
1.3668775e-229
-4.79186e-238
1.6916285e-246
-6.0271151e-255
2.1755543e-263
-2.6300611e-272
1.817565e-278
9.1389065e-283
-1.0958905e-282
-1.9486013e-282
-3.2192602e-281
7.1590828e-281
1.5027443e-280
-1.855183e-283
4.7909601e-278
-4.4663037e-270
-9.563849e-277
-3.5830243e-10
6.4657326e-23
-1.0561741e-35
2.7018324e-48
-1.7157715e-60
4.2471638e-72
-7.0020439e-83
3.9516645e-92
1.338785e-101
7.3155026e-111
1.3266507e-119
-1.1479091e-127
3.7345314e-136
-1.1364355e-144
3.5167498e-153
-1.1016978e-161
3.4792406e-170
-1.1065398e-178
3.5451131e-187
-1.1415465e-195
3.6963123e-204
-1.202036e-212
3.9276586e-221
-1.2857032e-229
4.2145348e-238
-1.3801542e-246
4.5173368e-255
-1.4339712e-263
3.2326373e-272
2.0210197e-280
-5.1051949e-288
3.6412604e-291
6.6205174e-291
1.1359282e-289
-2.677101e-289
-6.0628651e-289
9.1109352e-292
1.0447605e-285
-6.5849476e-278
-4.0977398e-284
-3.5758031e-10
6.3267133e-23
-9.9860046e-36
2.4474202e-48
-1.4738014e-60
3.3862458e-72
-4.871891e-83
1.6455423e-92
4.4980237e-102
1.8509821e-111
2.362439e-120
-4.1626999e-128
1.4660456e-136
-4.8405959e-145
1.6639857e-153
-5.9083959e-162
2.143363e-170
-7.9214934e-179
2.9655025e-187
-1.1252205e-195
4.3048624e-204
-1.6573445e-212
6.3143449e-221
-6.0731383e-229
2.6869976e-235
-4.1390721e-242
3.376228e-249
-1.6142531e-256
5.0353428e-264
-1.1191294e-271
1.7727276e-279
-2.0559522e-287
1.7474386e-295
-3.7751077e-298
9.0503172e-298
2.2424977e-297
-5.4612259e-300
9.8723415e-293
-8.6540408e-286
-2.0665576e-291
-3.5892948e-10
6.2716848e-23
-9.5355064e-36
2.2135104e-48
-1.2538963e-60
2.8050552e-72
-5.3874326e-83
-5.0175148e-93
-5.5045652e-103
-1.4624803e-112
-1.4795745e-121
-6.5239552e-128
3.1598086e-136
-1.5123797e-144
7.937411e-153
-4.4819033e-161
2.6490404e-169
-1.63194e-177
1.0340561e-185
-6.3601282e-194
2.2284647e-201
6.096669e-208
2.1865425e-214
9.387609e-221
-6.9725922e-227
1.0866873e-233
-8.9496104e-241
4.3444159e-248
-1.3829632e-255
3.1498799e-263
-5.163734e-271
6.3134066e-279
-5.8057105e-287
4.2297927e-295
-2.8277203e-303
-9.8896746e-306
4.3603528e-308
-1.8191775e-301
-1.0835822e-293
-1.4208299e-298
-3.6230788e-10
6.317319e-23
-9.3046894e-36
2.0389273e-48
-1.0801353e-60
2.4324886e-72
-2.4849511e-82
-6.2034826e-93
-3.0974768e-103
-5.1188481e-113
-4.373337e-122
-1.1688267e-129
1.266861e-137
-2.0054627e-145
5.1838946e-153
-2.0935073e-160
1.2480979e-167
-1.3484887e-174
3.1621247e-181
-5.6163578e-187
-2.6967675e-193
-9.1628449e-200
-3.268944e-206
-1.4132879e-212
1.0610689e-218
-1.6960401e-225
1.4408275e-232
-7.2705386e-240
2.4387199e-247
-5.8623274e-255
1.0235031e-262
-1.3423174e-270
1.3367828e-278
-1.0461307e-286
7.2033658e-295
-6.0895882e-303
6.7668904e-310
-1.1844083e-309
-1.4503243e-301
-1.4771661e-305
-3.6733652e-10
6.461446e-23
-9.337409e-36
1.94394e-48
-9.629314e-61
2.2052638e-72
4.7335233e-83
5.9136156e-94
1.6807809e-104
1.8266005e-114
1.3461026e-123
3.7811495e-131
1.2932669e-138
1.2731628e-146
9.7283871e-155
6.8401537e-163
4.5617875e-171
2.941189e-179
1.8614699e-187
-2.3114479e-195
-1.6585386e-201
-5.6913493e-208
-2.0285839e-214
-8.8179278e-221
6.5871424e-227
-1.0477158e-233
8.9324249e-241
-4.4602878e-248
1.4817285e-255
-3.578273e-263
6.1638189e-271
-8.099103e-279
8.0199904e-287
-6.6225331e-295
4.1065231e-303
-6.395032e-311
-7.0534449e-314
-1.0574896e-313
-2.2316588e-309
-3.2367065e-312
-3.7343104e-10
6.688445e-23
-9.6409517e-36
1.9351537e-48
-9.0269747e-61
2.0671944e-72
2.0600307e-83
1.7009615e-94
3.3034593e-105
2.5922376e-115
1.6446337e-124
3.3448814e-131
2.5923222e-139
1.0391284e-147
3.69103e-156
1.272112e-164
4.3341492e-173
1.4604207e-181
4.8906571e-190
1.6312335e-198
5.4189564e-207
1.6143171e-215
-6.232309e-223
-2.974391e-229
2.2117363e-235
-3.4879574e-242
2.9599785e-249
-1.462354e-256
4.7897601e-264
-1.1418606e-271
1.9171903e-279
-2.4876147e-287
2.3914893e-295
-2.0471578e-303
1.1210871e-311
-3.6138464e-314
-7.0762137e-314
-1.8373883e-314
-1.0356952e-313
3.034889e-313
-3.7992767e-10
6.9730848e-23
-1.0196141e-35
2.012325e-48
-8.9590234e-61
1.978203e-72
1.4664482e-83
9.6222976e-95
1.4811375e-105
9.3063308e-116
5.097297e-125
-1.8038329e-132
-9.3858206e-141
-2.6752141e-149
-6.9537535e-158
-1.7944003e-166
-4.6271096e-175
-1.1941528e-183
-3.0830437e-192
-7.9621271e-201
-2.0608274e-209
-5.3444456e-218
-1.3896359e-226
-3.6256981e-235
-3.6943787e-244
-9.2251286e-251
7.5201141e-258
-3.6542369e-265
1.1729971e-272
-2.7312828e-280
4.4214459e-288
-5.5827003e-296
5.1191028e-304
-4.4004376e-312
4.035729e-314
1.6740016e-314
7.2731459e-314
1.1099958e-313
-2.2719101e-313
-2.7755838e-313
-3.8620063e-10
7.2842274e-23
-1.0959555e-35
2.171682e-48
-9.3888846e-61
1.9243241e-72
1.3768539e-83
8.3018121e-95
1.1490502e-105
6.4019896e-116
3.0965637e-125
-7.5376995e-133
-3.5456783e-141
-9.066991e-150
-2.1349929e-158
-5.0434481e-167
-1.202719e-175
-2.8873336e-184
-6.9684167e-193
-1.6895503e-201
-4.1064205e-210
-1.0035238e-218
-2.4549616e-227
-6.0081897e-236
-1.4693017e-244
-3.5830288e-253
-8.732253e-262
-2.1173628e-270
-5.0718911e-279
-1.2800577e-287
-1.9916905e-296
-1.7891124e-304
7.4388992e-313
4.1865166e-314
-5.3613873e-314
-5.7773632e-314
-7.6466805e-314
5.9263056e-315
9.5900275e-315
-2.2251257e-313
-3.9175752e-10