/*--------------------------------*- C++ -*----------------------------------*\
  =========                 |
  \\      /  F ield         | OpenFOAM: The Open Source CFD Toolbox
   \\    /   O peration     | Website:  https://openfoam.org
    \\  /    A nd           | Version:  10
     \\/     M anipulation  |
\*---------------------------------------------------------------------------*/
FoamFile
{
    format      ascii;
    class       volScalarField;
    location    "0.09";
    object      TporMedia;
}
// * * * * * * * * * * * * * * * * * * * * * * * * * * * * * * * * * * * * * //

dimensions      [0 0 0 1 0 0 0];

internalField   nonuniform List<scalar> 
4000
(
-3.7862549e-06
1.9365787e-06
-0.00016101391
-0.00020369621
-0.00080386155
-0.00044281408
-0.00052324445
-0.00061022946
-0.0004065067
-0.00054652484
-0.0004502124
-0.00042796417
-0.00032562006
-0.00039103166
-0.00038957155
-0.00039223666
-0.00033754171
-0.00061998127
-0.00031175988
-0.00038029167
-0.00037422159
-0.00043625839
-0.00030207257
-0.0003530683
-0.00042133549
-0.00030750068
-0.00050580821
-0.00041724141
-0.00035247095
-0.00051297467
-0.00035645762
-0.00044961198
-0.00053520336
-0.00057723784
-0.00053933155
-0.00052294028
-0.00068267618
-0.0005192961
-0.00093897384
-0.00068431202
-3.3506388e-07
1.958995e-15
-5.1239592e-13
1.6914928e-11
1.4452415e-10
5.6347142e-10
3.0316114e-10
4.8038508e-10
2.6275954e-10
2.9251571e-10
2.4575543e-10
2.0172958e-10
1.5837325e-10
1.9731089e-10
1.8062227e-10
2.1197031e-10
1.8073386e-10
3.2850951e-10
1.7028894e-10
1.6873453e-10
2.1635308e-10
1.7524226e-10
1.4241748e-10
2.0966087e-10
2.1863604e-10
1.9223901e-10
2.5814252e-10
2.0069409e-10
1.6062327e-10
2.771914e-10
2.0804098e-10
2.5091054e-10
3.2699726e-10
3.0858554e-10
3.2444254e-10
3.3847351e-10
3.9433484e-10
5.9343693e-10
8.3952312e-10
5.0986809e-10
-1.3561687e-07
-5.7154459e-16
-4.6162875e-22
2.0716158e-19
-5.9085383e-18
-1.869251e-16
-2.1064006e-16
-2.9487926e-16
-1.6025706e-16
-1.5526808e-16
-1.2358603e-16
-8.5562693e-17
-7.7834892e-17
-1.052002e-16
-1.2036637e-16
-1.0729446e-16
-8.0475676e-17
-1.6081107e-16
-8.4112055e-17
-8.7708254e-17
-1.0812859e-16
-8.3868419e-17
-5.8457955e-17
-7.1540884e-17
-1.0487351e-16
-8.2897246e-17
-1.0951663e-16
-1.1146186e-16
-8.5819988e-17
-1.1911973e-16
-1.2526761e-16
-1.2247878e-16
-2.2108011e-16
-1.5172787e-16
-3.8883399e-16
-1.7392043e-16
-3.270393e-16
-3.9384104e-16
-9.1431636e-16
-3.5931427e-16
-7.2861661e-08
3.1362679e-17
1.4624523e-26
4.3811285e-28
1.3072617e-25
1.2507683e-23
1.4269988e-22
1.2002883e-22
7.6392601e-23
7.0799487e-23
5.0411491e-23
3.8385061e-23
2.8930271e-23
4.8713911e-23
5.3046602e-23
4.1720324e-23
3.0632114e-23
5.4941712e-23
3.7145482e-23
3.364721e-23
3.9056265e-23
2.8745933e-23
1.9553193e-23
2.7191995e-23
3.4411405e-23
3.8625553e-23
5.3723817e-23
4.4182132e-23
3.0047281e-23
6.982343e-23
4.3309441e-23
9.0104082e-23
8.1188677e-23
7.0669347e-23
3.0663499e-22
8.1548919e-23
2.3030023e-22
2.159091e-22
5.6052411e-22
1.9276599e-22
-4.5829686e-08
6.1003528e-18
2.1762601e-27
1.9521546e-36
6.4445e-32
-2.8472208e-31
-2.632225e-29
-7.3253112e-29
-3.1736682e-29
-2.6963257e-29
-2.0112967e-29
-1.6510682e-29
-1.3486228e-29
-1.7759933e-29
-2.1577661e-29
-1.7354124e-29
-1.0742926e-29
-2.0346761e-29
-1.3850319e-29
-1.1615316e-29
-1.3493433e-29
-9.7007487e-30
-7.5901953e-30
-9.8829345e-30
-1.0566852e-29
-1.2563665e-29
-1.7883844e-29
-1.4627181e-29
-1.1702774e-29
-2.926698e-29
-1.8221318e-29
-3.0965124e-29
-4.0876017e-29
-3.4757101e-29
-1.2324302e-28
-4.0870456e-29
-1.1864086e-28
-1.2463428e-28
-3.8788407e-28
-1.1279785e-28
-3.1894379e-08
2.0300784e-18
8.8430438e-28
3.2488906e-37
2.7149119e-40
3.2559766e-39
1.6664183e-36
3.2406136e-35
1.4113938e-35
1.0663783e-35
7.7918232e-36
5.8391117e-36
5.4932897e-36
6.298081e-36
6.7050213e-36
5.7814081e-36
3.3397127e-36
8.0868115e-36
4.6510416e-36
4.118876e-36
3.859498e-36
2.7502003e-36
2.8269642e-36
3.4019597e-36
3.4483481e-36
3.8391368e-36
5.7038995e-36
5.8137623e-36
4.7826977e-36
1.1660275e-35
7.1056665e-36
1.3256762e-35
1.8641255e-35
1.2600063e-35
5.6541454e-35
1.8888915e-35
6.1916893e-35
7.1843029e-35
1.8213015e-34
6.1087868e-35
-2.3805177e-08
8.7865503e-19
-5.0894218e-27
-1.1377461e-36
-1.403198e-45
-2.6960526e-47
-4.0540022e-44
-1.3176373e-41
-5.5328205e-42
-4.5878343e-42
-2.601247e-42
-1.9313014e-42
-1.9390188e-42
-2.1039754e-42
-2.1572414e-42
-1.7651212e-42
-1.0135232e-42
-2.5698193e-42
-1.2355556e-42
-1.2671817e-42
-1.1508467e-42
-8.6628951e-43
-8.5082428e-43
-9.6104182e-43
-9.400981e-43
-1.0276779e-42
-1.8454343e-42
-1.7719464e-42
-1.4261836e-42
-3.8054291e-42
-2.0820189e-42
-5.4018808e-42
-6.5386287e-42
-5.3490412e-42
-2.5703103e-41
-8.1128156e-42
-2.8533672e-41
-3.7909901e-41
-8.1282391e-41
-2.870771e-41
-1.8652355e-08
4.4680398e-19
-8.4136347e-29
-1.3418766e-38
-7.2521081e-48
3.7518855e-55
4.6773572e-52
1.5909199e-48
3.6103825e-48
1.4182977e-48
7.8673407e-49
6.0538707e-49
5.5972719e-49
6.1740937e-49
5.593709e-49
5.4744875e-49
2.4967e-49
7.549325e-49
3.5391713e-49
4.2377737e-49
3.0604046e-49
2.8339451e-49
2.5377211e-49
2.4103187e-49
2.6203001e-49
2.4987231e-49
5.828246e-49
5.026134e-49
4.0414643e-49
1.1192979e-48
7.0547696e-49
1.7251711e-48
2.1448967e-48
2.0371268e-48
8.8161189e-48
2.574489e-48
1.3018834e-47
1.3579156e-47
2.7306711e-47
1.0703393e-47
-1.5075039e-08
2.521787e-19
-1.8351609e-29
-2.3931187e-39
-6.9625209e-49
-8.3401483e-57
-3.1346099e-60
-7.5037142e-56
-2.9457578e-54
-5.7568101e-55
-2.2152175e-55
-1.8428794e-55
-1.3938919e-55
-1.6776427e-55
-1.5406839e-55
-1.3875449e-55
-7.0117554e-56
-2.0885753e-55
-9.985e-56
-1.1090329e-55
-8.9255341e-56
-7.9487066e-56
-7.7345964e-56
-6.564663e-56
-6.2748165e-56
-6.9242367e-56
-1.6203774e-55
-1.1950185e-55
-1.0332226e-55
-3.9253044e-55
-2.3368427e-55
-4.9492452e-55
-6.132291e-55
-6.0411403e-55
-2.9715484e-54
-9.3786486e-55
-4.9222924e-54
-5.2325031e-54
-1.0868079e-53
-3.2384319e-54
-1.2375742e-08
1.5199339e-19
-5.8400418e-30
-7.1658974e-40
-1.2837571e-49
-2.589625e-58
1.2055112e-66
1.5543224e-63
1.141286e-60
2.5046885e-61
6.05892e-62
4.4781001e-62
4.4801575e-62
4.2266372e-62
4.1629928e-62
3.3349418e-62
1.7528286e-62
5.0669886e-62
2.2016773e-62
2.4364913e-62
2.3431581e-62
1.7657085e-62
1.8422972e-62
1.6682021e-62
1.714703e-62
1.6577847e-62
3.7281962e-62
3.3131396e-62
2.6804201e-62
9.9297521e-62
6.5580048e-62
1.554116e-61
1.6940632e-61
1.9562244e-61
8.6147697e-61
3.0568283e-61
1.9860627e-60
1.9838479e-60
4.2305803e-60
9.4467283e-61
-1.0192644e-08
9.5167348e-20
-2.2276332e-30
-3.1162166e-40
-3.7895341e-50
-3.0407043e-59
1.1488333e-67
-1.6944109e-71
-2.1010152e-67
-8.8470769e-68
-1.6891758e-68
-1.0809191e-68
-1.0559123e-68
-1.0326494e-68
-9.4731711e-69
-8.8418104e-69
-3.8522449e-69
-1.2213193e-68
-5.4189586e-69
-5.8804707e-69
-5.1123881e-69
-4.2930876e-69
-4.0220744e-69
-4.2001082e-69
-3.844937e-69
-3.6968962e-69
-9.8602007e-69
-8.086683e-69
-6.9954944e-69
-2.8441841e-68
-1.5580843e-68
-3.918761e-68
-4.4534367e-68
-5.753211e-68
-2.5580003e-67
-9.2033031e-68
-7.1665218e-67
-6.4444285e-67
-1.1936945e-66
-2.1347139e-67
-8.3503194e-09
6.0733111e-20
-9.4252566e-31
-2.3168226e-40
-2.063354e-50
-8.4863379e-60
3.3424789e-68
-2.1577778e-76
1.4644169e-74
6.5252462e-74
4.8174779e-75
2.2164716e-75
2.5176796e-75
2.2697333e-75
2.1475137e-75
1.9271706e-75
7.3908814e-76
2.6471476e-75
1.2029601e-75
1.2315855e-75
1.0790174e-75
9.6741495e-76
8.7493238e-76
9.1946743e-76
7.7969255e-76
8.2795517e-76
2.2900713e-75
1.8111543e-75
1.6640923e-75
5.9098086e-75
3.6665846e-75
8.5698835e-75
1.1160167e-74
1.5610243e-74
6.252252e-74
2.6807923e-74
2.1405803e-73
1.9836218e-73
3.2133989e-73
4.0913233e-74
-6.7717468e-09
3.901788e-20
-4.2464744e-31
2.4609288e-40
1.7088672e-50
4.1357348e-60
-3.0932108e-68
1.319826e-76
-4.7385504e-82
-4.9018891e-80
-1.4919552e-81
-5.2843051e-82
-5.2811893e-82
-4.5112387e-82
-4.2488669e-82
-4.1678796e-82
-1.6420384e-82
-5.3641195e-82
-2.4389557e-82
-2.4890983e-82
-2.1590596e-82
-1.7412994e-82
-1.6503819e-82
-1.795949e-82
-1.668748e-82
-1.6336888e-82
-4.6289416e-82
-3.7728878e-82
-3.2856323e-82
-1.2387813e-81
-7.6376221e-82
-1.7793983e-81
-2.8074328e-81
-3.7271108e-81
-1.6076184e-80
-8.0279865e-81
-5.2802259e-80
-5.0519077e-80
-7.1987668e-80
-7.9145334e-81
-5.415211e-09
2.4998285e-20
-1.9851534e-31
1.8177434e-41
1.0397411e-51
1.6223931e-61
1.0406453e-69
-3.2192385e-78
5.4408168e-86
2.5519954e-86
5.2170594e-88
1.0695107e-88
9.4089951e-89
8.4162693e-89
9.1403291e-89
8.3711458e-89
3.0690387e-89
9.8428884e-89
4.1195941e-89
4.7572155e-89
4.1959931e-89
2.9538093e-89
2.856166e-89
3.0523936e-89
2.9678145e-89
2.8716253e-89
8.9038706e-89
6.6902387e-89
6.6111966e-89
2.3353646e-88
1.4643052e-88
3.4832418e-88
6.3399125e-88
7.2537784e-88
3.9447968e-87
1.8336542e-87
1.5789536e-86
1.1312925e-86
1.5887111e-86
1.210476e-87
-4.2520758e-09
1.5832222e-20
-9.4446197e-32
3.8900364e-42
1.9298602e-52
2.0749636e-62
3.0373698e-71
-7.3974038e-80
7.3045255e-88
-6.0165864e-93
-2.1446214e-94
-2.041906e-95
-1.9891652e-95
-1.467878e-95
-1.6329574e-95
-1.3601716e-95
-5.6292537e-96
-1.7661918e-95
-7.3084266e-96
-8.4147928e-96
-7.2244245e-96
-4.6052499e-96
-4.9642985e-96
-5.3078274e-96
-4.7255593e-96
-4.7430497e-96
-1.5165692e-95
-1.20373e-95
-1.1540275e-95
-4.0293267e-95
-2.915725e-95
-7.1672828e-95
-1.2524973e-94
-1.4675255e-94
-8.4385378e-94
-3.9208471e-94
-3.4516451e-93
-2.3066653e-93
-3.0037522e-93
-1.3574524e-94
-3.2754586e-09
9.8637565e-21
-4.5175626e-32
1.0591564e-42
4.8044195e-53
3.7485071e-63
2.4683895e-72
-5.2061107e-81
3.2820439e-89
-3.0936576e-96
1.2332688e-100
3.7564345e-102
3.3960071e-102
2.4402872e-102
2.6750272e-102
2.3994129e-102
8.3380837e-103
2.89077e-102
1.2007889e-102
1.3533046e-102
1.1480851e-102
6.9283261e-103
8.1413254e-103
8.0676919e-103
7.9066621e-103
7.4652309e-103
2.3870456e-102
1.9909448e-102
1.8853362e-102
6.5090105e-102
5.1039134e-102
1.2854994e-101
2.3299507e-101
2.7382457e-101
1.7683227e-100
7.8929815e-101
7.1991925e-100
4.2024934e-100
4.8809183e-100
9.5427221e-102
-2.4942517e-09
6.072095e-21
-2.1703015e-32
3.2384518e-43
1.4262503e-53
8.4213918e-64
3.0773877e-73
-6.2713617e-82
2.7044334e-90
-1.1881212e-97
8.176398e-104
-6.8692844e-109
-5.5767894e-109
-3.6005162e-109
-4.0252705e-109
-3.7249774e-109
-1.3617764e-109
-4.1902692e-109
-1.7821986e-109
-1.9893584e-109
-1.8204407e-109
-1.0846982e-109
-1.1997378e-109
-1.1425323e-109
-1.2105595e-109
-1.100466e-109
-3.6361104e-109
-3.0179928e-109
-2.9193817e-109
-9.5340336e-109
-7.9215033e-109
-2.11489e-108
-3.5643714e-108
-4.890708e-108
-3.069985e-107
-1.4749781e-107
-1.2566364e-106
-7.4786108e-107
-6.0090962e-107
-4.5262484e-109
-1.9053042e-09
3.7413189e-21
-1.0563247e-32
1.0723588e-43
4.9583529e-54
2.295594e-64
5.2079013e-74
-1.2200367e-82
3.8295867e-91
-9.210662e-99
7.8592527e-105
-1.4227469e-111
9.0060554e-116
5.443958e-116
5.8200079e-116
4.9874026e-116
1.9541648e-116
5.7408515e-116
2.5081441e-116
2.5381676e-116
2.6472732e-116
1.4716608e-116
1.5866374e-116
1.6100796e-116
1.7555286e-116
1.5535093e-116
5.0292921e-116
4.1377907e-116
4.4935433e-116
1.3734414e-115
1.1458331e-115
3.0596414e-115
5.7101272e-115
8.1724326e-115
5.1534238e-114
2.3700504e-114
2.1247456e-113
1.0639122e-113
5.966261e-114
1.7650246e-116
-1.4806733e-09
2.3400023e-21
-5.2654861e-33
3.8030827e-44
2.0872633e-54
7.8140402e-65
1.1841467e-74
-4.8323155e-83
1.1628655e-91
-1.7011274e-99
8.1643786e-106
-1.7529543e-112
2.4535068e-119
-7.3693485e-123
-8.5140342e-123
-6.2007612e-123
-2.5536215e-123
-7.8336718e-123
-3.1331227e-123
-3.2683724e-123
-3.0940695e-123
-1.8643434e-123
-1.8617418e-123
-2.1275426e-123
-2.1891615e-123
-2.0529071e-123
-6.2111906e-123
-5.6222517e-123
-5.6341811e-123
-1.853956e-122
-1.5524632e-122
-4.5992086e-122
-8.2448655e-122
-1.1202906e-121
-7.9592599e-121
-3.5609548e-121
-3.1771774e-120
-1.2730043e-120
-5.343825e-121
-8.0089466e-124
-1.1796416e-09
1.4992176e-21
-2.7062671e-33
1.4360614e-44
1.2156036e-54
3.783076e-65
4.038728e-75
4.1050984e-83
-7.9791574e-92
7.4769076e-100
-1.2175414e-106
2.8051795e-113
-4.0648487e-120
4.7993103e-127
1.1118011e-129
8.0062852e-130
3.1841181e-130
9.2953618e-130
3.9775657e-130
3.9939105e-130
3.7491214e-130
2.1762782e-130
2.1632264e-130
2.7150257e-130
2.5855362e-130
2.5210396e-130
7.2671341e-130
7.5817045e-130
7.3441847e-130
2.462465e-129
2.0753251e-129
5.7794552e-129
1.1522355e-128
1.5994695e-128
1.1414045e-127
5.3388365e-128
3.9478813e-127
1.4747728e-127
4.1907384e-128
1.1663162e-130
-9.6413449e-10
9.867355e-22
-1.4360403e-33
5.7355836e-45
3.4930224e-54
9.2707808e-65
7.2688682e-75
1.1232325e-83
-1.8579349e-92
1.2068779e-100
-1.0510007e-107
2.2617334e-114
-3.0222341e-121
3.6104302e-128
-4.3462782e-135
-9.9975518e-137
-3.7411443e-137
-1.0581639e-136
-4.5228106e-137
-4.4564402e-137
-3.9274404e-137
-2.5442101e-137
-2.3922066e-137
-3.0263896e-137
-2.789793e-137
-2.737075e-137
-8.3593959e-137
-8.6381279e-137
-8.7246862e-137
-2.7277436e-136
-2.5493207e-136
-7.3738901e-136
-1.4957407e-135
-2.0737557e-135
-1.6216156e-134
-6.6477104e-135
-4.3161997e-134
-1.4396181e-134
-3.7718801e-135
9.4825903e-138
-8.056595e-10
6.6634768e-22
-7.8519541e-34
2.4055662e-45
-1.8271182e-55
-4.2388563e-66
-2.5260444e-76
-1.7438163e-85
2.5921734e-94
-1.2134942e-102
6.1973266e-110
-1.5017959e-116
1.8691224e-123
-2.0669487e-130
2.3189904e-137
7.7339623e-144
4.0013458e-144
1.0888809e-143
4.823997e-144
4.6688802e-144
3.9502606e-144
2.4603482e-144
2.4414702e-144
3.2125309e-144
3.0454207e-144
2.805261e-144
9.0078347e-144
9.0590912e-144
9.1651139e-144
2.8359703e-143
2.8913434e-143
8.2973166e-143
1.7253042e-142
2.332922e-142
1.9008147e-141
7.8722066e-142
4.1902894e-141
1.2905863e-141
4.22977e-142
3.2120911e-145
-6.8549026e-10
4.6069022e-22
-4.4136729e-34
1.0532787e-45
-3.1350858e-56
-6.5167379e-67
-3.0390421e-77
-1.1932202e-86
1.7011996e-95
-6.0450877e-104
1.8686214e-111
-3.7824256e-118
4.7082256e-125
-4.9769634e-132
5.0109049e-139
-5.071429e-146
-3.771824e-151
-1.056817e-150
-4.5674661e-151
-4.3868295e-151
-3.8377922e-151
-2.447601e-151
-2.3297687e-151
-3.0417708e-151
-2.959636e-151
-2.6773346e-151
-8.8686778e-151
-8.763705e-151
-9.1765971e-151
-2.7599143e-150
-2.8580929e-150
-8.6251068e-150
-1.8297786e-149
-2.6661652e-149
-2.2665579e-148
-8.2139312e-149
-3.7298003e-148
-1.0827977e-148
-7.5277432e-149
8.5891892e-153
-5.9222616e-10
3.2574606e-22
-2.5489995e-34
4.800423e-46
-7.9019832e-57
-1.5104366e-67
-5.6563215e-78
-1.4208091e-87
2.1165301e-96
-5.9471863e-105
1.2012204e-112
-2.1538049e-119
2.5081949e-126
-2.4125118e-133
2.2950721e-140
-2.0961591e-147
1.8843524e-154
1.0061057e-157
3.9838768e-158
3.9726211e-158
3.4263795e-158
2.1052139e-158
2.1009433e-158
2.6058814e-158
2.735728e-158
2.2931398e-158
8.1366434e-158
7.641782e-158
8.1686763e-158
2.5982457e-157
2.5811618e-157
8.7911441e-157
1.7943959e-156
2.7762774e-156
2.264872e-155
7.5081092e-156
2.9783002e-155
8.2011591e-156
5.7188319e-155
2.2319711e-160
-5.1908197e-10
2.3578987e-22
-1.5152766e-34
2.2784136e-46
-2.3783568e-57
-4.3006856e-68
-1.3234978e-78
-2.2874362e-88
4.0806689e-97
-9.3920529e-106
1.289424e-113
-1.6896652e-120
1.8151965e-127
-1.6323286e-134
1.3800194e-141
-1.1831433e-148
1.0191888e-155
-8.8070289e-163
-3.4727492e-165
-3.2074791e-165
-2.7514177e-165
-1.8208473e-165
-1.7515487e-165
-2.1896952e-165
-2.2407374e-165
-1.977278e-165
-6.6997858e-165
-6.3682636e-165
-6.7381677e-165
-2.2031446e-164
-2.2069147e-164
-8.0880778e-164
-1.5635454e-163
-2.6842717e-163
-2.2815381e-162
-6.1751999e-163
-2.1499082e-162
-5.8821785e-163
9.2251377e-161
9.052346e-168
-4.6183254e-10
1.7518153e-22
-9.3089419e-35
1.1300326e-46
-8.0768589e-58
-1.4269574e-68
-3.6851288e-79
-4.6143121e-89
1.3248285e-97
-2.5945428e-106
2.5917231e-114
-2.4339905e-121
2.6458273e-128
-2.2130384e-135
1.8787683e-142
-1.5351086e-149
1.2379373e-156
-9.637121e-164
7.9549614e-171
2.5247127e-172
2.0975322e-172
1.3996376e-172
1.366636e-172
1.6466469e-172
1.8305132e-172
1.5072516e-172
5.3014257e-172
4.8511042e-172
5.3597614e-172
1.7263561e-171
1.7840716e-171
6.7293176e-171
1.3013572e-170
2.2858975e-170
1.9051631e-169
4.6283281e-170
1.3492316e-169
4.043126e-170
4.5914053e-167
1.8474295e-174
-4.1759556e-10
1.3405538e-22
-5.9412639e-35
5.8883515e-47
-3.0332454e-58
-5.4429191e-69
-1.20296e-79
-1.1363235e-89
8.399349e-97
-1.4546509e-105
1.0922094e-113
-7.0984565e-121
7.5210736e-128
-5.9288603e-135
4.6051623e-142
-3.5019099e-149
2.6290712e-156
-1.9978687e-163
1.5544288e-170
-1.2215905e-177
-1.5526524e-179
-1.0426517e-179
-1.0067217e-179
-1.2659455e-179
-1.386945e-179
-1.1299437e-179
-3.8713508e-179
-3.6405545e-179
-4.2157202e-179
-1.3020769e-178
-1.3885003e-178
-5.2785154e-178
-1.0508675e-177
-1.7867273e-177
-1.5148164e-176
-3.0553122e-177
-7.5582233e-177
-2.6528391e-177
1.6757846e-173
6.7863017e-181
-3.8425208e-10
1.0604085e-22
-3.9615177e-35
3.2438772e-47
-1.2513331e-58
-2.400148e-69
-4.6291654e-80
-3.4134568e-90
-7.4054142e-99
1.1774303e-107
-6.935982e-116
3.2211911e-123
-3.2531646e-130
2.5363041e-137
-1.9053579e-144
1.3707759e-151
-9.8973061e-159
7.1388229e-166
-4.9492963e-173
3.665175e-180
8.2135478e-187
7.3892057e-187
6.9924248e-187
8.8991436e-187
9.5990593e-187
7.8332937e-187
2.7693021e-186
2.5809583e-186
3.0494494e-186
9.882478e-186
9.9527021e-186
3.8346609e-185
8.1344777e-185
1.4662919e-184
1.1161473e-183
1.8605925e-184
3.9608611e-184
1.6668332e-184
4.2225891e-180
1.8349829e-187
-3.6019915e-10
8.6990216e-23
-2.7742885e-35
1.9012238e-47
-5.6647481e-59
-1.2536495e-69
-2.1548838e-80
-1.2802524e-90
-1.1816857e-99
1.8107136e-108
-8.6879334e-117
2.9164237e-124
-2.4783832e-131
1.7085293e-138
-1.1090544e-145
6.9812141e-153
-4.3632547e-160
2.8060663e-167
-1.7149038e-174
1.06472e-181
-6.5328281e-189
-4.4949474e-194
-4.3361511e-194
-5.3200829e-194
-5.7577208e-194
-4.7967795e-194
-1.6840435e-193
-1.6317434e-193
-1.9865474e-193
-6.256378e-193
-6.7052598e-193
-2.5261265e-192
-5.7529587e-192
-1.0655772e-191
-7.8502277e-191
-1.0804124e-191
-1.9435895e-191
-1.0008312e-191
8.5218137e-187
3.9311756e-194
-3.4422104e-10
7.4212241e-23
-2.0500959e-35
1.1922979e-47
-2.8176167e-59
-8.2448585e-70
-1.2932488e-80
-6.3820214e-91
-3.4430299e-100
5.3782167e-109
-2.1770212e-117
5.1383248e-125
-3.2339956e-132
1.7929277e-139
-9.4732488e-147
4.7947766e-154
-2.4756597e-161
1.2243169e-168
-6.1448478e-176
3.0532073e-183
-1.5293737e-190
7.5827497e-198
2.1240942e-201
2.679653e-201
2.8531188e-201
2.4008346e-201
8.2752261e-201
8.4067962e-201
1.0174998e-200
3.3449428e-200
3.7007751e-200
1.4731159e-199
3.4362363e-199
6.7092426e-199
4.7327189e-198
5.7692195e-199
8.595538e-199
5.4666757e-199
1.6302651e-193
7.6154971e-201
-3.3536365e-10
6.5975897e-23
-1.604563e-35
8.0379844e-48
-1.5427331e-59
-8.3325869e-70
-1.2237358e-80
-5.1606551e-91
-1.8659861e-100
3.2056434e-109
-1.1334216e-117
1.9908459e-125
-8.8348727e-133
3.923035e-140
-1.6141371e-147
6.7159468e-155
-2.7415786e-162
1.0937361e-169
-4.4317884e-177
1.7753742e-184
-7.1189682e-192
2.7903179e-199
-1.1103158e-206
-1.074065e-208
-1.1288358e-208
-9.6027606e-209
-3.4511021e-208
-3.4882743e-208
-4.2048016e-208
-1.4095596e-207
-1.6383975e-207
-6.8347371e-207
-1.6974554e-206
-3.3760861e-206
-2.5288109e-205
-2.5899064e-206
-3.3968142e-206
-3.1068144e-206
3.4524981e-200
1.5450625e-207
-3.3277622e-10
6.1174023e-23
-1.3332257e-35
5.8428389e-48
-9.3098615e-60
4.839887e-69
6.8219232e-80
2.5171835e-90
6.5968342e-100
-1.3953456e-108
4.4399369e-117
-6.0391247e-125
2.1697424e-132
-8.1492833e-140
2.9846771e-147
-1.0571152e-154
3.734452e-162
-1.3461312e-169
4.7682141e-177
-1.7015795e-184
6.0328904e-192
-2.2052749e-199
7.809458e-207
-2.7439594e-214
4.0173689e-216
3.3757266e-216
1.2067782e-215
1.2683492e-215
1.4988316e-215
5.1732142e-215
6.0115677e-215
2.5993733e-214
6.6315086e-214
1.4081501e-213
1.0104077e-212
9.6405685e-214
1.1640499e-213
6.4726626e-214
1.5536494e-206
6.1279886e-214
-3.3551615e-10
5.9085497e-23
-1.1760344e-35
4.5817744e-48
-6.1880441e-60
2.3318103e-70
3.2149821e-81
1.053949e-91
2.1001043e-101
-6.7640327e-110
2.0051804e-118
-2.2964409e-126
7.5318963e-134
-2.8996314e-141
1.0977593e-148
-4.2359685e-156
1.6091568e-163
-6.2264743e-171
2.4295368e-178
-9.3166769e-186
3.7133886e-193
-2.3808145e-200
1.1030181e-206
-9.1647125e-213
5.497988e-219
-1.2969278e-223
-4.5134238e-223
-4.7641009e-223
-5.5042012e-223
-1.8384583e-222
-2.1083239e-222
-9.1949825e-222
-2.3661156e-221
-5.0375591e-221
-3.5000505e-220
-3.020632e-221
-3.5598468e-221
1.5571497e-220
-4.8820337e-213
-1.5068824e-220
-3.4234367e-10
5.9191424e-23
-1.097629e-35
3.8646531e-48
-4.5131708e-60
8.3471647e-71
1.136226e-81
3.3292396e-92
5.1983594e-102
-5.319021e-110
1.51197e-118
-1.572953e-126
6.4709933e-134
-3.6380966e-141
2.0316721e-148
-1.1983363e-155
7.4643518e-163
-4.6809599e-170
5.5348275e-177
4.0124119e-182
-1.4714589e-187
2.480894e-193
-2.7275327e-199
2.3571854e-205
-1.4260073e-211
5.5848965e-218
-1.5740919e-224
2.9163843e-230
2.8568564e-230
8.7125878e-230
9.7712206e-230
3.9575789e-229
9.4633437e-229
1.8899796e-228
1.1442107e-227
8.8874398e-229
1.0661706e-228
-3.0307111e-227
6.720523e-220
1.7654293e-227
-3.5158212e-10
6.1013888e-23
-1.0757876e-35
3.4815451e-48
-3.5834914e-60
4.3056175e-71
5.7965349e-82
1.5210973e-92
1.9053916e-102
1.1393312e-110
-3.2004938e-119
3.275148e-127
-2.56372e-134
1.835973e-140
-9.4594661e-147
8.1004143e-153
-7.1351106e-159
1.1558833e-164
-4.2724938e-170
-6.2795846e-175
2.3946636e-180
-3.9427936e-186
4.5566383e-192
-3.8425502e-198
2.422832e-204
-9.9112074e-211
2.794569e-217
-7.010391e-224
1.1990971e-230
-1.5094673e-236
-1.1315862e-236
-3.6319043e-236
-6.8931963e-236
-1.0493968e-235
-4.7840695e-235
-3.0116933e-236
-3.732836e-236
3.6688384e-234
-6.7851735e-227
-1.6730956e-234
-3.6117455e-10
6.3971767e-23
-1.0939722e-35
3.3111422e-48
-3.0592874e-60
2.6915601e-71
3.6091862e-82
8.5631692e-93
8.8564571e-103
1.8465466e-111
-5.331914e-120
5.5113526e-128
-1.6011885e-132
-1.2433904e-139
-9.5499875e-147
-7.7042328e-154
-5.8015157e-161
-4.4166832e-168
-3.5997178e-175
-7.9537784e-182
1.9516701e-187
-3.2328578e-193
3.656261e-199
-3.249327e-205
1.9017534e-211
-8.0160512e-218
2.0123917e-224
-5.480365e-231
7.5804056e-238
-1.8940836e-243
-1.7283292e-243
-6.817193e-243
-2.3407139e-242
5.2179869e-242
5.0020818e-242
1.6772684e-243
1.9088454e-243
-4.5606153e-241
7.6905146e-234
1.8787027e-241
-3.6905148e-10
6.7296685e-23
-1.1362182e-35
3.2726883e-48
-2.7615806e-60
1.8833376e-71
2.602726e-82
5.7559924e-93
5.1403425e-103
6.2258529e-112
-1.9751781e-120
2.0143206e-128
7.493985e-135
4.8735412e-142
3.3383492e-149
2.62671e-156
2.1817163e-163
1.9838019e-170
2.0475783e-177
2.1228496e-184
2.5864638e-191
3.0965047e-198
4.540996e-205
1.6272302e-212
2.610827e-218
-6.2987978e-225
1.502637e-231
-3.9198776e-238
3.4431699e-245
-1.6227667e-250
-1.3385407e-250
-5.0158339e-250
-1.6381533e-249
4.1288176e-249
7.7114827e-249
-6.0880882e-250
-1.6160262e-250
7.7937443e-248
-1.770737e-240
-4.770205e-248
-3.7373019e-10
7.0094615e-23
-1.1844604e-35
3.3000403e-48
-2.5840058e-60
1.3988443e-71
2.1779617e-82
4.7794537e-93
3.9460173e-103
3.3776848e-112
-1.3316734e-120
1.2290044e-128
-6.4746498e-136
8.0248506e-143
-7.0289499e-150
4.9763302e-157
-2.8822571e-164
1.4909199e-171
-7.2666172e-179
3.3500993e-186
-1.4865784e-193
6.6025545e-201
-2.9907344e-208
1.4025224e-215
-6.7704957e-223
3.4420761e-230
-2.1165539e-237
1.643424e-244
-1.6433767e-251
2.1526792e-257
3.9352939e-257
-2.6207688e-256
-2.2044527e-256
3.3309278e-256
5.9344761e-256
-1.486062e-256
1.1082909e-257
1.239478e-254
-4.6460264e-247
-1.52818e-254
-3.7481836e-10
7.1603507e-23
-1.2195715e-35
3.330862e-48
-2.4541045e-60
1.0654113e-71
2.2793567e-82
5.5154117e-93
4.6441882e-103
3.2018341e-112
-2.115944e-120
1.6789109e-128
-2.3857093e-136
3.7035258e-144
-5.3826836e-152
7.2935742e-160
-9.3860732e-168
1.1716162e-175
-1.4189247e-183
1.6906115e-191
-1.9737427e-199
2.2500305e-207
-2.3226352e-215
1.1062185e-223
6.9794326e-231
-5.286668e-238
3.5213885e-245
-2.8287246e-252
2.9423966e-259
-3.7022965e-265
-7.7592972e-265
6.5719185e-264
8.0471265e-264
-2.3665395e-263
-9.5755543e-263
1.3680537e-263
-3.0306369e-265
4.7604993e-262
-2.897194e-254
-1.3229954e-261
-3.7306066e-10
7.1525512e-23
-1.2264068e-35
3.3093754e-48
-2.3193666e-60
8.178856e-72
4.368554e-82
1.3840394e-92
1.3635082e-102
8.4451399e-112
-2.0143911e-117
1.3953304e-125
-9.5763208e-134
6.4511361e-142
-4.2212e-150
2.6651133e-158
-1.6507975e-166
1.0049876e-174
-6.0402908e-183
3.6086757e-191
-2.1479983e-199
1.2779558e-207
-7.6552388e-216
4.6196243e-224
-2.8384483e-232
1.7772141e-240
-1.1430851e-248
7.6031359e-257
-5.2955361e-265
6.623965e-273
6.2029195e-273
-5.846302e-272
-8.4927785e-272
3.2219894e-271
1.706176e-270
-2.420213e-271
3.6890816e-273
1.1856608e-269
-9.8704072e-262
-7.2048264e-269
-3.6989884e-10
7.0161648e-23
-1.1998813e-35
3.1991964e-48
-2.1467036e-60
6.3008233e-72
-3.782471e-82
-2.165038e-92
-3.0316334e-102
-1.8338163e-111
-9.2690333e-120
6.3371874e-128
-2.8139394e-136
1.1761861e-144
-4.8522495e-153
1.9843134e-161
-8.0268496e-170
3.2148197e-178
-1.2901843e-186
5.165941e-195
-2.0669608e-203
8.3026144e-212
-3.3444195e-220
1.3578683e-228
-5.5599038e-237
2.3022626e-245
-9.67673e-254
4.1365267e-262
-1.8099654e-270
8.1910101e-279
-2.9445651e-281
2.9567608e-280
4.7100826e-280
-2.0594263e-279
-1.2749815e-278
1.8909216e-279
-2.6702456e-281
2.4249652e-277
-2.244923e-269
-3.1862772e-276
-3.6686668e-10
6.8212259e-23
-1.1471408e-35
2.9970262e-48
-1.9270988e-60
4.8848679e-72
-9.5226314e-83
-3.2086606e-92
-8.2662764e-102
-4.953497e-111
-1.1550318e-119
9.3382767e-128
-3.2975266e-136
1.0745478e-144
-3.5177058e-153
1.1550418e-161
-3.7953132e-170
1.2499751e-178
-4.1277644e-187
1.3676851e-195
-4.5381129e-204
1.5118689e-212
-5.0595515e-221
1.7011584e-229
-5.737112e-238
1.9473294e-246
-6.6399039e-255
2.2773878e-263
-7.8991837e-272
2.7775987e-280
-8.907407e-289
-1.0888619e-288
-1.8235361e-288
8.5799333e-288
5.8121601e-287
-9.2198248e-288
1.4563361e-289
4.8438309e-285
-3.8693748e-277
-1.3666918e-283
-3.6514805e-10
6.6422357e-23
-1.0836542e-35
2.7349564e-48
-1.6767915e-60
3.838061e-72
-5.1822549e-83
8.8761794e-93
4.0185264e-102
2.1046907e-111
3.1285865e-120
-4.4638622e-128
1.5103002e-136
-4.6704962e-145
1.4734054e-153
-4.7363937e-162
1.5436565e-170
-5.0813821e-179
1.6911669e-187
-5.662097e-196
1.9053241e-204
-6.4586284e-213
2.1953328e-221
-7.4626969e-230
2.5304049e-238
-8.5946854e-247
2.9076641e-255
-9.7941495e-264
3.2783912e-272
-1.0902364e-280
3.6239772e-289
2.4031884e-297
6.0815943e-297
-2.9268437e-296
-2.071374e-295
3.5778935e-296
-7.3998835e-298
1.378954e-292
-5.564073e-285
-6.4292383e-291
-3.6540636e-10
6.5336271e-23
-1.0261734e-35
2.4654748e-48
-1.4282924e-60
3.0875879e-72
-4.1209271e-83
1.5935072e-92
3.6945162e-102
1.3502723e-111
1.4845873e-120
-6.387425e-127
2.5303554e-135
-9.2361156e-144
3.5490677e-152
-1.4204988e-160
5.8573975e-169
-2.4680182e-177
1.058443e-185
-4.6134152e-194
2.0345577e-202
-9.0394985e-211
4.0153067e-219
-1.7831128e-227
7.8478752e-236
-3.4176055e-244
1.4684078e-252
-6.1751329e-261
2.5334013e-269
-1.007517e-277
3.8801736e-286
-1.4609856e-294
5.6265177e-303
1.016605e-304
7.2267629e-304
-1.3826724e-304
4.6178871e-306
-3.7098231e-300
-7.2805506e-293
-3.6206095e-298
-3.678074e-10
6.5237049e-23
-9.873844e-36
2.23822e-48
-1.2139957e-60
2.5712972e-72
-5.1691052e-83
-3.1286073e-93
-2.6443873e-103
-5.8740133e-113
-5.1630158e-122
-9.6327858e-130
5.9604794e-138
-3.6856007e-146
2.6096273e-154
-2.0320331e-162
1.7179807e-170
-1.5278819e-178
1.4296728e-186
-1.3912755e-194
1.3951318e-202
-1.4127471e-210
1.4315486e-218
-1.4322634e-226
1.3999204e-234
-1.3091096e-242
1.1863912e-250
-9.4616357e-259
9.4456791e-267
1.3939382e-274
-1.0598562e-280
5.1023375e-288
-1.1448496e-295
1.6182963e-303
-2.1530221e-311
8.2738829e-313
2.4726349e-313
-1.1218038e-308
-9.5361006e-301
-2.7625775e-305
-3.7212469e-10
6.6189675e-23
-9.7439782e-36
2.0851182e-48
-1.0538223e-60
2.2320241e-72
-6.8505073e-82
-1.3623928e-92
-5.4804984e-103
-7.4645754e-113
-5.4341326e-122
-7.0556101e-130
1.5156765e-137
-1.8272173e-144
-9.8565653e-152
-3.1282991e-159
-7.7856082e-167
-1.6421822e-174
-3.1458656e-182
-5.6809286e-190
-9.7802725e-198
-1.6787317e-205
-2.8895042e-213
-5.0832943e-221
-9.4783548e-229
-1.9261863e-236
-4.4568439e-244
-1.2665679e-251
-4.9796349e-259
-3.9270504e-266
1.4970506e-272
-6.6590686e-280
1.4094354e-287
-1.8736246e-295
2.014584e-303
-2.9779496e-311
1.4642442e-313
-1.0582718e-313
-1.38286e-308
-3.6090117e-312
-3.7786588e-10
6.8101458e-23
-9.8979658e-36
2.0200592e-48
-9.5383491e-61
2.01734e-72
3.9119872e-83
4.2574006e-94
1.0280642e-104
9.3395986e-115
5.6850662e-124
8.7685415e-132
1.3632502e-139
9.0187353e-148
4.9400677e-156
2.5530917e-164
1.2702504e-172
6.099003e-181
2.7792568e-189
1.0477556e-197
3.2832351e-207
-7.7261602e-214
-1.7259939e-221
-3.2309817e-229
-6.111977e-237
-1.2406269e-244
-2.8564734e-252
-8.0407807e-260
-3.1339815e-267
-2.4351432e-274
9.152634e-281
-4.0029669e-288
8.3433733e-296
-1.1153711e-303
1.2006229e-311
-2.3484848e-313
-7.0825564e-314
-1.8373883e-314
-1.0376032e-313
3.0348376e-313
-3.8439583e-10
7.076603e-23
-1.0330443e-35
2.0460089e-48
-9.120156e-61
1.8848859e-72
1.9244505e-83
1.4705441e-94
2.543308e-105
1.7137489e-115
8.7753757e-125
2.7284346e-132
1.828238e-140
6.4723639e-149
2.0361606e-157
6.2464515e-166
1.905139e-174
5.7727621e-183
1.739529e-191
5.2363113e-200
1.5742979e-208
4.7373416e-217
1.4288265e-225
4.3175593e-234
1.3103517e-242
3.974518e-251
1.1397403e-259
1.0488071e-268
-9.6139584e-276
-8.1926569e-283
3.0157714e-289
-1.2753981e-296
2.5667441e-304
-3.4886094e-312
7.7634939e-314
1.6705816e-314
7.2731459e-314
1.1099958e-313
-2.2719101e-313
-2.7755838e-313
-3.9105361e-10
7.3896431e-23
-1.1011315e-35
2.1610123e-48
-9.2421346e-61
1.8096452e-72
1.4905172e-83
9.4996642e-95
1.3569641e-105
7.5526406e-116
3.3244826e-125
4.4903008e-132
2.3274597e-140
6.4082889e-149
1.6027028e-157
3.9813318e-166
9.9127926e-175
2.476979e-183
6.2099073e-192
1.5566754e-200
3.917264e-209
9.8730693e-218
2.4936754e-226
6.3061096e-235
1.5965183e-243
4.0433313e-252
1.0242836e-260
2.601582e-269
6.6218523e-278
1.6875877e-286
4.3232618e-295
1.0784031e-303
3.4165707e-312
-1.3040372e-315
-5.3614512e-314
-5.7773632e-314
-7.6466805e-314
5.9263056e-315
9.5900275e-315
-2.2251257e-313
-3.9725866e-10
7.7164199e-23
-1.1885349e-35
2.3597992e-48