/*--------------------------------*- C++ -*----------------------------------*\
  =========                 |
  \\      /  F ield         | OpenFOAM: The Open Source CFD Toolbox
   \\    /   O peration     | Website:  https://openfoam.org
    \\  /    A nd           | Version:  10
     \\/     M anipulation  |
\*---------------------------------------------------------------------------*/
FoamFile
{
    format      ascii;
    class       volVectorField;
    location    "0.09";
    object      U;
}
// * * * * * * * * * * * * * * * * * * * * * * * * * * * * * * * * * * * * * //

dimensions      [0 1 -1 0 0 0 0];

internalField   nonuniform List<vector> 
4000
(
(0 0.018632293 0.47773415)
(0 0.023500328 0.50885919)
(0 0.0081579622 0.50052556)
(0 0.0056057464 0.50033661)
(0 0.0042451255 0.50025753)
(0 0.0032452233 0.50016898)
(0 0.002546453 0.50011965)
(0 0.0020452155 0.50009006)
(0 0.0016676455 0.5000697)
(0 0.0013738834 0.50005526)
(0 0.001139539 0.50004483)
(0 0.00094825848 0.50003715)
(0 0.0007887744 0.5000314)
(0 0.00065309884 0.50002705)
(0 0.00053539201 0.50002375)
(0 0.00043126247 0.50002126)
(0 0.00033731257 0.50001941)
(0 0.00025083043 0.50001807)
(0 0.00016957365 0.50001717)
(0 9.1610637e-05 0.50001666)
(0 1.5198783e-05 0.50001651)
(0 -6.1324199e-05 0.50001671)
(0 -0.00013963099 0.50001727)
(0 -0.00022149646 0.50001823)
(0 -0.00030890987 0.50001964)
(0 -0.00040420493 0.5000216)
(0 -0.00051023194 0.50002422)
(0 -0.00063059744 0.5000277)
(0 -0.00077001248 0.50003232)
(0 -0.00093482286 0.50003845)
(0 -0.001133861 0.50004674)
(0 -0.0013798126 0.50005813)
(0 -0.0016914576 0.50007407)
(0 -0.0020991818 0.50009708)
(0 -0.0026589528 0.50013486)
(0 -0.0034530573 0.50020252)
(0 -0.004546465 0.50027186)
(0 -0.0065711904 0.50043423)
(0 -0.01764526 0.50675206)
(0 -0.01358283 0.47975964)
(0 0.03741843 0.4479868)
(0 0.05092647 0.53232436)
(0 0.021939945 0.50804339)
(0 0.016107464 0.50357503)
(0 0.012385927 0.50242379)
(0 0.0094853447 0.50162303)
(0 0.0074903546 0.50115624)
(0 0.0060404966 0.50086519)
(0 0.0049365488 0.50066694)
(0 0.0040739209 0.50052767)
(0 0.0033836067 0.50042745)
(0 0.0028186136 0.50035373)
(0 0.0023465272 0.50029865)
(0 0.0019442261 0.50025708)
(0 0.0015947149 0.50022559)
(0 0.0012851655 0.50020181)
(0 0.0010056217 0.5001841)
(0 0.00074811548 0.50017135)
(0 0.00050604331 0.50016278)
(0 0.00027370639 0.5001579)
(0 4.5955937e-05 0.50015646)
(0 -0.00018211777 0.50015836)
(0 -0.00041545521 0.50016372)
(0 -0.00065929856 0.50017288)
(0 -0.00091951359 0.50018636)
(0 -0.0012029677 0.50020501)
(0 -0.0015180268 0.50023007)
(0 -0.0018752443 0.50026334)
(0 -0.0022883539 0.50030746)
(0 -0.0027757562 0.50036631)
(0 -0.0033628959 0.50044586)
(0 -0.0040862315 0.50055557)
(0 -0.0049989467 0.50071056)
(0 -0.0061810292 0.50093644)
(0 -0.0077814586 0.50129483)
(0 -0.010076429 0.50191191)
(0 -0.013061175 0.50282836)
(0 -0.017381005 0.50608309)
(0 -0.038715227 0.52526542)
(0 -0.027873561 0.45024451)
(0 0.039866711 0.40986807)
(0 0.061377849 0.54931412)
(0 0.031928998 0.52188104)
(0 0.024305179 0.51008423)
(0 0.019140334 0.50659027)
(0 0.014923366 0.50452811)
(0 0.011953683 0.50327024)
(0 0.0097204744 0.50245615)
(0 0.0079875141 0.5018979)
(0 0.0066190441 0.50150471)
(0 0.0055147518 0.50122078)
(0 0.0046050294 0.50101139)
(0 0.0038410699 0.50085468)
(0 0.0031874138 0.50073627)
(0 0.0026176673 0.50064647)
(0 0.0021117214 0.5005786)
(0 0.0016538464 0.50052803)
(0 0.0012313715 0.50049159)
(0 0.00083374039 0.50046709)
(0 0.000451805 0.50045314)
(0 7.7275903e-05 0.50044898)
(0 -0.00029775832 0.50045441)
(0 -0.00068125863 0.50046976)
(0 -0.0010816583 0.5004959)
(0 -0.0015083617 0.5005344)
(0 -0.0019723274 0.50058764)
(0 -0.0024868247 0.50065912)
(0 -0.0030684655 0.50075395)
(0 -0.0037386691 0.50087952)
(0 -0.0045257774 0.50104677)
(0 -0.0054682627 0.50127226)
(0 -0.0066202402 0.50158214)
(0 -0.008059083 0.50201858)
(0 -0.0098891034 0.50265006)
(0 -0.012283209 0.50361625)
(0 -0.015629902 0.50520296)
(0 -0.019791992 0.50786129)
(0 -0.025103136 0.51641416)
(0 -0.047340647 0.53913523)
(0 -0.030819915 0.41495584)
(0 0.03476484 0.36182333)
(0 0.063766416 0.5545905)
(0 0.039294362 0.53746826)
(0 0.030006451 0.51849683)
(0 0.024032973 0.51198033)
(0 0.019199549 0.50849932)
(0 0.015657425 0.50626165)
(0 0.012877925 0.50475068)
(0 0.010671119 0.50369778)
(0 0.0089001353 0.50294782)
(0 0.0074518227 0.5024013)
(0 0.0062464155 0.50199572)
(0 0.0052260107 0.50169078)
(0 0.0043472607 0.50145956)
(0 0.0035772647 0.50128369)
(0 0.0028905603 0.50115048)
(0 0.0022669665 0.50105108)
(0 0.0016900516 0.50097932)
(0 0.001146006 0.50093103)
(0 0.00062278143 0.50090352)
(0 0.00010940965 0.5008953)
(0 -0.00040459878 0.50090599)
(0 -0.00092979794 0.50093619)
(0 -0.0014773336 0.50098765)
(0 -0.0020595671 0.50106336)
(0 -0.0026907937 0.50116792)
(0 -0.0033881516 0.50130805)
(0 -0.004172829 0.50149345)
(0 -0.0050717306 0.50173817)
(0 -0.0061197787 0.50206269)
(0 -0.007363006 0.50249755)
(0 -0.0088638285 0.50308979)
(0 -0.010709841 0.50391421)
(0 -0.013007941 0.50508732)
(0 -0.015893899 0.50680872)
(0 -0.019770891 0.50947438)
(0 -0.024609036 0.51428551)
(0 -0.030982488 0.52824747)
(0 -0.05020669 0.54410927)
(0 -0.02839351 0.37252976)
(0 0.02739439 0.31499525)
(0 0.062220029 0.55030658)
(0 0.044491786 0.55146422)
(0 0.033872534 0.52749006)
(0 0.027354118 0.51772638)
(0 0.022345181 0.51291918)
(0 0.018528825 0.50972652)
(0 0.015423814 0.5074841)
(0 0.01290714 0.50588824)
(0 0.010849716 0.5047324)
(0 0.0091400241 0.50387914)
(0 0.0076990831 0.50323998)
(0 0.0064667779 0.50275597)
(0 0.0053965658 0.5023869)
(0 0.0044522889 0.50210494)
(0 0.003605379 0.50189062)
(0 0.0028327952 0.50173026)
(0 0.0021155061 0.50161427)
(0 0.0014373289 0.50153607)
(0 0.00078401586 0.50149145)
(0 0.00014251573 0.50147808)
(0 -0.00049968908 0.50149533)
(0 -0.0011551906 0.50154419)
(0 -0.0018372317 0.50162737)
(0 -0.0025603953 0.50174956)
(0 -0.0033413752 0.50191795)
(0 -0.0041999254 0.50214297)
(0 -0.0051600727 0.50243953)
(0 -0.0062517284 0.50282895)
(0 -0.0075128501 0.50334191)
(0 -0.0089919129 0.50402313)
(0 -0.010751586 0.50493924)
(0 -0.012878964 0.50619316)
(0 -0.015478295 0.50794)
(0 -0.018637644 0.51040648)
(0 -0.022719049 0.51406468)
(0 -0.028004372 0.5211561)
(0 -0.035518975 0.53932612)
(0 -0.050324408 0.54164723)
(0 -0.024032382 0.3308046)
(0 0.019806453 0.27541901)
(0 0.057873484 0.53987203)
(0 0.047199866 0.56256681)
(0 0.036328607 0.53660047)
(0 0.029491011 0.52351046)
(0 0.02453194 0.51740149)
(0 0.020633014 0.51335472)
(0 0.01737367 0.51043078)
(0 0.014685228 0.50830569)
(0 0.012446409 0.50673907)
(0 0.010555545 0.50556628)
(0 0.0089404808 0.50467817)
(0 0.0075434413 0.50399978)
(0 0.0063184209 0.50347884)
(0 0.0052288259 0.50307864)
(0 0.0042450615 0.5027731)
(0 0.0033427813 0.50254367)
(0 0.0025015372 0.50237725)
(0 0.0017036985 0.50226483)
(0 0.00093357333 0.50220056)
(0 0.00017668076 0.50218122)
(0 -0.00058091558 0.50220593)
(0 -0.0013532314 0.50227606)
(0 -0.0021549363 0.50239536)
(0 -0.0030020508 0.5025703)
(0 -0.0039126988 0.50281071)
(0 -0.0049080079 0.50313076)
(0 -0.006013215 0.50355053)
(0 -0.0072590627 0.50409824)
(0 -0.0086836982 0.50481393)
(0 -0.010334643 0.5057547)
(0 -0.012270471 0.50700296)
(0 -0.014571674 0.50868203)
(0 -0.017340591 0.51097388)
(0 -0.020631624 0.51412151)
(0 -0.024741154 0.5187413)
(0 -0.030275257 0.52823509)
(0 -0.038375475 0.54872786)
(0 -0.048315739 0.53416173)
(0 -0.019006042 0.29430495)
(0 0.013050862 0.24285527)
(0 0.051661387 0.52540924)
(0 0.047500306 0.57026634)
(0 0.037560878 0.54551136)
(0 0.030664134 0.5292885)
(0 0.025890132 0.52179754)
(0 0.022058755 0.51698484)
(0 0.018781395 0.51345265)
(0 0.016030495 0.51083744)
(0 0.013697789 0.50887897)
(0 0.01169663 0.50739387)
(0 0.0099642412 0.50625707)
(0 0.0084478084 0.50538076)
(0 0.0071044125 0.50470278)
(0 0.0058990947 0.5041787)
(0 0.0048028891 0.50377658)
(0 0.0037914703 0.50347341)
(0 0.0028440373 0.50325281)
(0 0.0019423796 0.50310341)
(0 0.0010700938 0.50301781)
(0 0.00021191797 0.50299192)
(0 -0.00064689215 0.50302461)
(0 -0.0015211614 0.50311761)
(0 -0.0024263257 0.50327569)
(0 -0.0033790929 0.50350702)
(0 -0.0043981246 0.50382394)
(0 -0.0055048345 0.50424411)
(0 -0.0067243345 0.50479224)
(0 -0.0080865541 0.50550268)
(0 -0.0096278167 0.50642334)
(0 -0.011392613 0.5076215)
(0 -0.013433523 0.50919218)
(0 -0.015820344 0.51127354)
(0 -0.01864903 0.51406547)
(0 -0.021951663 0.51783752)
(0 -0.02596808 0.52347635)
(0 -0.03154326 0.53536855)
(0 -0.039430674 0.55591544)
(0 -0.044659442 0.52312158)
(0 -0.014024037 0.26315261)
(0 0.0077370122 0.21593011)
(0 0.04466791 0.50832815)
(0 0.045997519 0.57442924)
(0 0.037783911 0.55372608)
(0 0.031053275 0.53495284)
(0 0.026539913 0.52602204)
(0 0.022894051 0.52051888)
(0 0.019707215 0.51645821)
(0 0.016980383 0.51340263)
(0 0.014625735 0.51108362)
(0 0.01257468 0.50930537)
(0 0.010774934 0.50793054)
(0 0.0091803722 0.50686146)
(0 0.0077528309 0.50602816)
(0 0.0064603819 0.50537999)
(0 0.0052758995 0.50488006)
(0 0.0041761171 0.50450156)
(0 0.0031407585 0.5042252)
(0 0.0021517843 0.50403753)
(0 0.0011927379 0.50392973)
(0 0.00024817332 0.50389692)
(0 -0.00069689142 0.50393774)
(0 -0.0016575182 0.50405427)
(0 -0.0026493047 0.50425218)
(0 -0.0036889785 0.50454119)
(0 -0.0047949765 0.50493587)
(0 -0.005988112 0.50545692)
(0 -0.0072923442 0.50613304)
(0 -0.008735609 0.50700369)
(0 -0.010350986 0.50812317)
(0 -0.012178388 0.50956692)
(0 -0.014263334 0.51144017)
(0 -0.016662334 0.51389208)
(0 -0.019457828 0.51713215)
(0 -0.022666756 0.52147367)
(0 -0.026508664 0.52818275)
(0 -0.031962008 0.54219604)
(0 -0.038993348 0.56055282)
(0 -0.040051714 0.5095434)
(0 -0.0096363653 0.23652691)
(0 0.0039709594 0.19404281)
(0 0.037720963 0.48994349)
(0 0.043376534 0.57533813)
(0 0.037248955 0.5608081)
(0 0.030862918 0.54034072)
(0 0.026634001 0.52999628)
(0 0.023241976 0.52387368)
(0 0.020219826 0.51937086)
(0 0.017581213 0.51593444)
(0 0.015261395 0.51329525)
(0 0.013209854 0.51125125)
(0 0.011384966 0.50965653)
(0 0.0097483185 0.50840635)
(0 0.0082674515 0.50742498)
(0 0.0069143275 0.50665697)
(0 0.0056644855 0.50606156)
(0 0.0044964701 0.50560884)
(0 0.0033912029 0.50527715)
(0 0.0023314211 0.50505126)
(0 0.0013011672 0.50492115)
(0 0.00028532719 0.50488127)
(0 -0.00073082057 0.50493005)
(0 -0.0017620745 0.50506987)
(0 -0.0028236738 0.50530719)
(0 -0.0039318075 0.50565303)
(0 -0.0051040745 0.50612386)
(0 -0.0063600054 0.50674288)
(0 -0.0077216502 0.50754204)
(0 -0.0092141419 0.50856485)
(0 -0.010866393 0.50987057)
(0 -0.012712632 0.51154073)
(0 -0.01479082 0.51368828)
(0 -0.017143935 0.51646932)
(0 -0.019837052 0.52009597)
(0 -0.022879107 0.52494705)
(0 -0.026506123 0.53272384)
(0 -0.03171779 0.54834467)
(0 -0.03749705 0.5626499)
(0 -0.035095751 0.49445817)
(0 -0.0061237771 0.21410407)
(0 0.0015162583 0.17672582)
(0 0.031299417 0.47138724)
(0 0.040165219 0.57355672)
(0 0.036171513 0.56655195)
(0 0.030279585 0.54533923)
(0 0.026331722 0.53367867)
(0 0.023214349 0.52699272)
(0 0.020396434 0.5221318)
(0 0.017887537 0.51837993)
(0 0.015643225 0.51546682)
(0 0.013628832 0.51318997)
(0 0.011812603 0.51139864)
(0 0.01016396 0.50998372)
(0 0.0086563933 0.5088656)
(0 0.0072661402 0.50798548)
(0 0.0059718769 0.50729974)
(0 0.0047544408 0.50677616)
(0 0.0035964206 0.50639122)
(0 0.0024817812 0.50612831)
(0 0.0013954961 0.50597644)
(0 0.00032319902 0.50592951)
(0 -0.0007491621 0.50598579)
(0 -0.0018357117 0.50614789)
(0 -0.0029509109 0.50642293)
(0 -0.0041099732 0.50682297)
(0 -0.0053292023 0.50736597)
(0 -0.0066263658 0.50807709)
(0 -0.0080211075 0.50899074)
(0 -0.0095352952 0.5101534)
(0 -0.011193277 0.51162789)
(0 -0.01302317 0.51349982)
(0 -0.015055532 0.51588698)
(0 -0.017321389 0.51894848)
(0 -0.019868777 0.52289655)
(0 -0.022705782 0.52820353)
(0 -0.026103062 0.53699835)
(0 -0.030971488 0.55358973)
(0 -0.035312803 0.5624995)
(0 -0.030190504 0.47881091)
(0 -0.0035089049 0.19566371)
(0 4.1380886e-05 0.16323228)
(0 0.025646665 0.45342829)
(0 0.036731251 0.56970472)
(0 0.034722023 0.57093785)
(0 0.029442323 0.54989835)
(0 0.025764951 0.5370719)
(0 0.022912668 0.52985785)
(0 0.020312807 0.524709)
(0 0.01795609 0.5207048)
(0 0.01581303 0.51756483)
(0 0.013862013 0.51509)
(0 0.012079818 0.51312796)
(0 0.010443056 0.51156739)
(0 0.0089308341 0.51032646)
(0 0.0075236432 0.50934428)
(0 0.0062034513 0.50857538)
(0 0.0049536217 0.50798593)
(0 0.0037586887 0.5075511)
(0 0.0026041447 0.50725325)
(0 0.0014762027 0.50708067)
(0 0.0003615544 0.50702685)
(0 -0.00075287105 0.50708993)
(0 -0.001880211 0.50727271)
(0 -0.0030338357 0.50758279)
(0 -0.0042276707 0.50803303)
(0 -0.0054764194 0.50864247)
(0 -0.0067958022 0.50943768)
(0 -0.0082028102 0.51045477)
(0 -0.0097158983 0.51174221)
(0 -0.011354914 0.51336504)
(0 -0.013142064 0.51541121)
(0 -0.015101105 0.51800089)
(0 -0.01725315 0.5212931)
(0 -0.019631831 0.5255034)
(0 -0.022250907 0.53122704)
(0 -0.025414285 0.5409524)
(0 -0.029853214 0.55784349)
(0 -0.032733501 0.56050277)
(0 -0.025586773 0.46329431)
(0 -0.0016774026 0.1807464)
(0 -0.00075311894 0.15273984)
(0 0.02085813 0.43650102)
(0 0.033324278 0.56433531)
(0 0.033042862 0.57404163)
(0 0.028450692 0.55399719)
(0 0.025032017 0.54019877)
(0 0.022419617 0.53247856)
(0 0.020035124 0.52709377)
(0 0.017839207 0.52289232)
(0 0.015811312 0.51956905)
(0 0.013940287 0.5169299)
(0 0.01220995 0.51482322)
(0 0.010603067 0.51313698)
(0 0.0091037011 0.51178838)
(0 0.0076962948 0.5107155)
(0 0.0063660109 0.50987183)
(0 0.0050987676 0.50922257)
(0 0.0038811568 0.50874204)
(0 0.0027003622 0.50841193)
(0 0.0015440285 0.50822006)
(0 0.00040011343 0.50815959)
(0 -0.00074325771 0.5082286)
(0 -0.0018980182 0.50843003)
(0 -0.0030762383 0.50877178)
(0 -0.0042903608 0.50926727)
(0 -0.0055533228 0.50993627)
(0 -0.0068786841 0.51080625)
(0 -0.0082807454 0.51191433)
(0 -0.0097746402 0.51331014)
(0 -0.011376063 0.51505985)
(0 -0.013101894 0.51725251)
(0 -0.014969874 0.52000879)
(0 -0.016993051 0.52348574)
(0 -0.019194252 0.52790955)
(0 -0.021598645 0.53402157)
(0 -0.024529468 0.54455401)
(0 -0.028477492 0.56110007)
(0 -0.029989944 0.55706068)
(0 -0.021437021 0.44835058)
(0 -0.00047122795 0.16876614)
(0 -0.0011040079 0.14455239)
(0 0.016924167 0.4208225)
(0 0.030099139 0.55791223)
(0 0.031251133 0.57598771)
(0 0.027377646 0.55762819)
(0 0.024205165 0.54308359)
(0 0.021800628 0.53487633)
(0 0.019618216 0.52929115)
(0 0.017581972 0.52493767)
(0 0.01567451 0.52146928)
(0 0.013892661 0.51869645)
(0 0.012225786 0.51646969)
(0 0.010661666 0.51467724)
(0 0.0091885342 0.51323622)
(0 0.007794325 0.51208441)
(0 0.0064671368 0.51117489)
(0 0.0051953241 0.51047242)
(0 0.0039675212 0.50995088)
(0 0.0027726522 0.50959158)
(0 0.0015998849 0.50938203)
(0 0.00043855932 0.50931522)
(0 -0.00072187615 0.50938919)
(0 -0.0018920222 0.50960693)
(0 -0.0030825332 0.50997657)
(0 -0.0043042766 0.51051182)
(0 -0.0055683719 0.51123287)
(0 -0.0068862355 0.51216767)
(0 -0.0082695916 0.51335383)
(0 -0.0097304961 0.51484141)
(0 -0.011280972 0.51669701)
(0 -0.012933332 0.51900982)
(0 -0.014700201 0.52189972)
(0 -0.01658826 0.52552114)
(0 -0.018613449 0.53012023)
(0 -0.020816691 0.53659652)
(0 -0.023520627 0.54778239)
(0 -0.026945225 0.56340698)
(0 -0.027251745 0.55254062)
(0 -0.017814385 0.43424868)
(0 0.00026753994 0.15917847)
(0 -0.001184622 0.13811991)
(0 0.013767042 0.40647639)
(0 0.027135116 0.55081448)
(0 0.029433981 0.57692701)
(0 0.026274461 0.56079811)
(0 0.023336051 0.54574869)
(0 0.021106499 0.53707669)
(0 0.019106432 0.53131324)
(0 0.017222023 0.5268432)
(0 0.015434145 0.52326209)
(0 0.013745123 0.52038245)
(0 0.012148423 0.51805777)
(0 0.010635727 0.51617722)
(0 0.0091986399 0.51465833)
(0 0.0078280563 0.51343911)
(0 0.0065146607 0.51247271)
(0 0.0052490343 0.51172379)
(0 0.0040217465 0.51116612)
(0 0.0028234254 0.51078083)
(0 0.0016447721 0.51055533)
(0 0.00047654733 0.51048252)
(0 -0.00069042518 0.51056039)
(0 -0.0018653606 0.51079198)
(0 -0.0030574596 0.5111855)
(0 -0.0042760039 0.51175479)
(0 -0.005530332 0.5125202)
(0 -0.0068298251 0.51350981)
(0 -0.008183841 0.51476131)
(0 -0.0096016937 0.51632474)
(0 -0.011092275 0.51826652)
(0 -0.012664147 0.5206754)
(0 -0.014325802 0.52366961)
(0 -0.016079209 0.52740144)
(0 -0.017937122 0.5321471)
(0 -0.019958375 0.53896352)
(0 -0.022443829 0.5506306)
(0 -0.025337985 0.56485049)
(0 -0.024629095 0.54726608)
(0 -0.01472964 0.42114131)
(0 0.00067652962 0.15152256)
(0 -0.0011131591 0.13300413)
(0 0.011276071 0.39345775)
(0 0.024459288 0.54334077)
(0 0.027649268 0.57701754)
(0 0.025173367 0.56352712)
(0 0.022458676 0.54821525)
(0 0.020374628 0.5391064)
(0 0.018534362 0.53317619)
(0 0.016789895 0.52861583)
(0 0.015116705 0.52494861)
(0 0.013520208 0.52198504)
(0 0.011996686 0.51958184)
(0 0.010540721 0.51762944)
(0 0.0091465274 0.5160461)
(0 0.0078074133 0.51477033)
(0 0.0065162627 0.51375563)
(0 0.0052656244 0.51296686)
(0 0.0040478387 0.51237787)
(0 0.0028551397 0.51196982)
(0 0.0016797113 0.51173011)
(0 0.00051371342 0.51165162)
(0 -0.00065066331 0.51173233)
(0 -0.0018212562 0.51197526)
(0 -0.0030058351 0.51238864)
(0 -0.0042121476 0.51298629)
(0 -0.00544785 0.5137885)
(0 -0.0067204559 0.51482325)
(0 -0.0080372219 0.51612802)
(0 -0.0094051033 0.51775249)
(0 -0.010830414 0.51976255)
(0 -0.012318763 0.52224612)
(0 -0.013875487 0.52531935)
(0 -0.015499415 0.52913404)
(0 -0.017203161 0.53400594)
(0 -0.019063184 0.54113658)
(0 -0.02133959 0.55310596)
(0 -0.023715907 0.56553884)
(0 -0.02218361 0.54150873)
(0 -0.012152466 0.40909547)
(0 0.00086454079 0.14540649)
(0 -0.00096596317 0.12886102)
(0 0.0093326115 0.38170478)
(0 0.022067457 0.53571696)
(0 0.025931208 0.57640843)
(0 0.024091901 0.56584314)
(0 0.021592905 0.55050221)
(0 0.019630539 0.5409912)
(0 0.017927596 0.53489818)
(0 0.01630941 0.53026537)
(0 0.014743725 0.52653308)
(0 0.013236861 0.52350451)
(0 0.011786868 0.5210393)
(0 0.01039039 0.51902926)
(0 0.0090435624 0.51739344)
(0 0.0077415951 0.51607102)
(0 0.0064791858 0.515016)
(0 0.0052505728 0.5141936)
(0 0.0040496718 0.51357788)
(0 0.0028701874 0.51315017)
(0 0.0017056935 0.51289792)
(0 0.00054968292 0.51281406)
(0 -0.00060433924 0.51289655)
(0 -0.0017628854 0.51314839)
(0 -0.002932363 0.51357772)
(0 -0.0041190799 0.51419826)
(0 -0.0053291488 0.5150301)
(0 -0.0065684159 0.51610095)
(0 -0.0078423245 0.51744788)
(0 -0.0091558631 0.51912001)
(0 -0.010513293 0.52118255)
(0 -0.011917986 0.52372236)
(0 -0.013373001 0.5268535)
(0 -0.014875438 0.53072984)
(0 -0.016439987 0.53571449)
(0 -0.018158285 0.54313048)
(0 -0.020235044 0.55522569)
(0 -0.022120132 0.56558586)
(0 -0.019942351 0.53548603)
(0 -0.010029821 0.39811633)
(0 0.00091184094 0.14049951)
(0 -0.00079045699 0.12543119)
(0 0.0078242386 0.3711253)
(0 0.019938621 0.52810843)
(0 0.024296688 0.57523188)
(0 0.02303763 0.56777666)
(0 0.020748529 0.55262474)
(0 0.018890243 0.54275353)
(0 0.017304067 0.53649726)
(0 0.015798402 0.53180294)
(0 0.014332103 0.52802154)
(0 0.012910521 0.52494323)
(0 0.011532672 0.52242973)
(0 0.010196598 0.52037415)
(0 0.0088997811 0.51869631)
(0 0.0076388815 0.51733605)
(0 0.0064100537 0.51624793)
(0 0.0052089541 0.51539759)
(0 0.0040308679 0.51475941)
(0 0.0028708154 0.51431491)
(0 0.0017236422 0.5140517)
(0 0.00058407981 0.51396273)
(0 -0.00055313772 0.514046)
(0 -0.0016932817 0.51430442)
(0 -0.002841494 0.51474603)
(0 -0.004002764 0.51538434)
(0 -0.0051818207 0.51623919)
(0 -0.0063830546 0.51733789)
(0 -0.0076103788 0.51871699)
(0 -0.0088671829 0.52042501)
(0 -0.010156143 0.52252638)
(0 -0.01147899 0.52510689)
(0 -0.012837236 0.52827885)
(0 -0.014227477 0.53220127)
(0 -0.015667839 0.53729006)
(0 -0.017261116 0.54495882)
(0 -0.019147026 0.55701206)
(0 -0.020576497 0.56510027)
(0 -0.017909555 0.5293661)
(0 -0.0082985643 0.38816948)
(0 0.00087512955 0.13653208)
(0 -0.00061465989 0.12252624)
(0 0.006651997 0.36161573)
(0 0.018044029 0.52063371)
(0 0.022750557 0.57360157)
(0 0.02201178 0.56935807)
(0 0.019928684 0.55459386)
(0 0.018162721 0.54441137)
(0 0.016675691 0.5379898)
(0 0.015269754 0.53323959)
(0 0.013894706 0.52942077)
(0 0.012553438 0.52630475)
(0 0.011245339 0.52375412)
(0 0.0099693457 0.52166315)
(0 0.0087238369 0.51995223)
(0 0.0075065457 0.51856183)
(0 0.0063147744 0.517447)
(0 0.0051453484 0.51657383)
(0 0.0039947236 0.51591704)
(0 0.002859076 0.5154584)
(0 0.001734393 0.51518564)
(0 0.00061653421 0.51509182)
(0 -0.00049864194 0.51517491)
(0 -0.0016152686 0.51543777)
(0 -0.0027373339 0.51588826)
(0 -0.0038686439 0.51653968)
(0 -0.0050127089 0.51741153)
(0 -0.0061726698 0.51853068)
(0 -0.0073511695 0.51993318)
(0 -0.0085503219 0.52166688)
(0 -0.0097716076 0.52379553)
(0 -0.011015594 0.5264039)
(0 -0.01228282 0.52960315)
(0 -0.013570376 0.53356072)
(0 -0.014900444 0.53874792)
(0 -0.016381954 0.546633)
(0 -0.018084815 0.55848939)
(0 -0.019098994 0.56418063)
(0 -0.016075301 0.52327586)
(0 -0.0068937483 0.3791985)
(0 0.00079319752 0.13329193)
(0 -0.00045371802 0.12001285)
(0 0.0057334419 0.35307246)
(0 0.016352806 0.51337614)
(0 0.021289895 0.57161383)
(0 0.02101178 0.57061654)
(0 0.019132296 0.55641703)
(0 0.017451979 0.54597806)
(0 0.016049881 0.53938968)
(0 0.014732461 0.53458542)
(0 0.013441097 0.53073742)
(0 0.012175131 0.52759307)
(0 0.010933916 0.52501434)
(0 0.0097169081 0.52289633)
(0 0.0085230494 0.52115991)
(0 0.0073508531 0.51974597)
(0 0.0061985119 0.51861001)
(0 0.0050638041 0.51771853)
(0 0.0039441745 0.51704656)
(0 0.0028368018 0.51657613)
(0 0.0017386825 0.51629512)
(0 0.00064668824 0.51619665)
(0 -0.00044231025 0.51627869)
(0 -0.0015314195 0.51654402)
(0 -0.0026235938 0.51700032)
(0 -0.0037215914 0.51766065)
(0 -0.0048278634 0.51854415)
(0 -0.0059444892 0.51967727)
(0 -0.0070730687 0.52109552)
(0 -0.0082147092 0.52284621)
(0 -0.0093700046 0.52499243)
(0 -0.010538718 0.52761816)
(0 -0.011720843 0.53083417)
(0 -0.012914716 0.53481951)
(0 -0.014146565 0.54010061)
(0 -0.015526008 0.54816207)
(0 -0.01705238 0.55968225)
(0 -0.017692986 0.56291341)
(0 -0.014421915 0.51730907)
(0 -0.0057540285 0.37113652)
(0 0.00069167109 0.13061577)
(0 -0.00031454448 0.1177988)
(0 0.0050027936 0.34539802)
(0 0.014835253 0.5063931)
(0 0.019907408 0.56934956)
(0 0.020033119 0.57157941)
(0 0.018355851 0.55809881)
(0 0.016758676 0.54746276)
(0 0.015430807 0.54070809)
(0 0.014192584 0.53584926)
(0 0.012978232 0.53197762)
(0 0.011782889 0.52881219)
(0 0.010605584 0.5262126)
(0 0.0094460368 0.52407446)
(0 0.0083035239 0.52231888)
(0 0.0071771216 0.52088703)
(0 0.0060657098 0.51973476)
(0 0.0049678406 0.51882891)
(0 0.0038817897 0.5181448)
(0 0.0028055983 0.51766466)
(0 0.0017371465 0.51737653)
(0 0.00067420183 0.51727359)
(0 -0.00038546381 0.5173538)
(0 -0.0014440429 0.51761983)
(0 -0.0025035748 0.51807921)
(0 -0.0035658991 0.51874472)
(0 -0.0046325537 0.51963517)
(0 -0.0057047215 0.52077659)
(0 -0.0067831483 0.52220404)
(0 -0.0078681465 0.52396431)
(0 -0.0089596537 0.52612003)
(0 -0.010056885 0.52875456)
(0 -0.011159577 0.53197924)
(0 -0.01226781 0.53598747)
(0 -0.013411354 0.54135786)
(0 -0.014695138 0.54955291)
(0 -0.016050309 0.56061433)
(0 -0.016358179 0.56137274)
(0 -0.012928578 0.51153331)
(0 -0.0048248405 0.3639135)
(0 0.00058670743 0.12838041)
(0 -0.00019907987 0.1158217)
(0 0.0044092994 0.33850434)
(0 0.013464528 0.49972312)
(0 0.018593911 0.56687656)
(0 0.019070694 0.57227189)
(0 0.017594714 0.55964149)
(0 0.016081431 0.54887091)
(0 0.014820437 0.54195353)
(0 0.013654055 0.53703838)
(0 0.0125111 0.53314672)
(0 0.011382241 0.52996585)
(0 0.010266 0.52735127)
(0 0.0091621998 0.52519868)
(0 0.0080703098 0.52342926)
(0 0.0069898212 0.52198429)
(0 0.0059201504 0.52081986)
(0 0.0048604815 0.51990306)
(0 0.003809789 0.51920944)
(0 0.0027668539 0.51872143)
(0 0.0017303252 0.51842718)
(0 0.00069875735 0.51831993)
(0 -0.00032928292 0.5183976)
(0 -0.0013551821 0.51866279)
(0 -0.0023801763 0.51912283)
(0 -0.0034053049 0.51979026)
(0 -0.0044313209 0.52068356)
(0 -0.00545865 0.5218284)
(0 -0.0064873332 0.52325941)
(0 -0.0075170469 0.52502301)
(0 -0.0085472287 0.52718146)
(0 -0.0095767136 0.52981779)
(0 -0.010605153 0.53304488)
(0 -0.011634616 0.53707272)
(0 -0.012697555 0.5425267)
(0 -0.013889285 0.55081045)
(0 -0.015077461 0.56130763)
(0 -0.015091164 0.55962102)
(0 -0.011574408 0.50599575)
(0 -0.0040598134 0.35746066)
(0 0.00048775359 0.12649469)
(0 -0.00010645713 0.11404049)
(0 0.0039148004 0.33231414)
(0 0.012217274 0.49339133)
(0 0.01733998 0.56425168)
(0 0.018119721 0.57271702)
(0 0.016844111 0.56104564)
(0 0.015417861 0.55020483)
(0 0.014219394 0.54313199)
(0 0.013119379 0.53815856)
(0 0.012043287 0.5342492)
(0 0.010977401 0.53105736)
(0 0.0099196387 0.52843262)
(0 0.00886983 0.52627034)
(0 0.0078275788 0.52449156)
(0 0.0067926997 0.52303757)
(0 0.0057650407 0.52186456)
(0 0.0047443121 0.52093977)
(0 0.0037300808 0.52023896)
(0 0.0027217643 0.51974468)
(0 0.0017186793 0.51944519)
(0 0.00072006831 0.51933376)
(0 -0.00027480544 0.5194083)
(0 -0.001266622 0.51967128)
(0 -0.0022559158 0.52012987)
(0 -0.0032430315 0.52079637)
(0 -0.0042280467 0.52168898)
(0 -0.0052107422 0.52283301)
(0 -0.0061905687 0.52426276)
(0 -0.0071666765 0.52602436)
(0 -0.0081380971 0.52817985)
(0 -0.0091033801 0.53081217)
(0 -0.01006217 0.53403673)
(0 -0.011018537 0.53808164)
(0 -0.012006524 0.54361173)
(0 -0.013107626 0.55193796)
(0 -0.014132259 0.56178219)
(0 -0.013887383 0.55771022)
(0 -0.010340347 0.50072809)
(0 -0.0034210634 0.35171312)
(0 0.00039955618 0.12489234)
(0 -3.4402181e-05 0.11242887)
(0 0.0034911781 0.32676096)
(0 0.011073701 0.48741344)
(0 0.016136993 0.56152277)
(0 0.017176322 0.57293587)
(0 0.016099812 0.56231066)
(0 0.014765378 0.55146434)
(0 0.013627657 0.54424718)
(0 0.012590225 0.53921412)
(0 0.011577468 0.53528865)
(0 0.01057167 0.53208954)
(0 0.0095700986 0.52945877)
(0 0.0085725667 0.52729086)
(0 0.007578808 0.5255066)
(0 0.0065889175 0.52404712)
(0 0.0056031108 0.52286861)
(0 0.0046215496 0.52193842)
(0 0.0036443121 0.52123243)
(0 0.0026713674 0.52073329)
(0 0.0017026129 0.52042935)
(0 0.00073789204 0.52031389)
(0 -0.00022292367 0.52038477)
(0 -0.0011798977 0.52064436)
(0 -0.0021329531 0.52109968)
(0 -0.0030818311 0.5217628)
(0 -0.0040260255 0.52265163)
(0 -0.0049647608 0.52379122)
(0 -0.0058969801 0.52521557)
(0 -0.006821378 0.52697061)
(0 -0.007736624 0.52911824)
(0 -0.0086410205 0.5317416)
(0 -0.0095342117 0.53495956)
(0 -0.010422087 0.5390191)
(0 -0.01133905 0.54461561)
(0 -0.012349441 0.55293757)
(0 -0.013213643 0.56205618)
(0 -0.01274255 0.55568336)
(0 -0.0092102373 0.49575026)
(0 -0.0028788553 0.34661114)
(0 0.00032361267 0.12352578)
(0 1.9857281e-05 0.11097068)
(0 0.0031180351 0.32178851)
(0 0.010017423 0.48179851)
(0 0.014977767 0.55873024)
(0 0.01623792 0.57294776)
(0 0.015358628 0.56343531)
(0 0.014121781 0.55264735)
(0 0.0130451 0.54530095)
(0 0.012067898 0.54020811)
(0 0.011115821 0.53626789)
(0 0.010167769 0.53306479)
(0 0.0092203794 0.53043165)
(0 0.0082734696 0.52826172)
(0 0.0073269431 0.52647537)
(0 0.0063811704 0.52501349)
(0 0.0054367033 0.52383221)
(0 0.0044941077 0.5228989)
(0 0.0035539126 0.5221895)
(0 0.0026165714 0.52168676)
(0 0.0016824892 0.52137906)
(0 0.00075203463 0.52125969)
(0 -0.0001743904 0.52132648)
(0 -0.0010963124 0.52158169)
(0 -0.0020131222 0.52203216)
(0 -0.0029240363 0.52268977)
(0 -0.0038280394 0.52357219)
(0 -0.0047238688 0.52470418)
(0 -0.0056100179 0.52611954)
(0 -0.0064847653 0.52786403)
(0 -0.0073464263 0.52999953)
(0 -0.0081930534 0.53260959)
(0 -0.009024248 0.53581734)
(0 -0.0098473813 0.53988865)
(0 -0.010695942 0.54553958)
(0 -0.011614716 0.55381079)
(0 -0.012321727 0.56214622)
(0 -0.011653631 0.55357589)
(0 -0.0081713187 0.49107318)
(0 -0.0024110091 0.34210035)
(0 0.0002592929 0.12236099)
(0 5.9028703e-05 0.10965647)
(0 0.0027807856 0.31734947)
(0 0.0090352552 0.47655069)
(0 0.013856978 0.55590815)
(0 0.01530353 0.57277044)
(0 0.014618774 0.56441813)
(0 0.013485686 0.55375047)
(0 0.012471885 0.54629361)
(0 0.011553688 0.54114252)
(0 0.010660317 0.53718908)
(0 0.0097680878 0.53398508)
(0 0.008873079 0.53135302)
(0 0.0079751725 0.52918438)
(0 0.0070745135 0.52739902)
(0 0.0061717708 0.52593753)
(0 0.0052678276 0.5247559)
(0 0.0043636274 0.52382148)
(0 0.0034601079 0.52311026)
(0 0.0025581539 0.52260503)
(0 0.0016586175 0.52229421)
(0 0.00076232722 0.52217109)
(0 -0.00012985267 0.52223343)
(0 -0.001016982 0.5224834)
(0 -0.0018979886 0.52292769)
(0 -0.0027716313 0.52357797)
(0 -0.003636448 0.52445168)
(0 -0.0044907427 0.52557335)
(0 -0.0053325978 0.52697658)
(0 -0.0061598958 0.52870702)
(0 -0.0069705817 0.53082654)
(0 -0.0077624296 0.53341937)
(0 -0.0085349246 0.5366135)
(0 -0.0092964772 0.54069299)
(0 -0.010078418 0.54638408)
(0 -0.010904503 0.55455906)
(0 -0.011458191 0.56206768)
(0 -0.010619504 0.55141703)
(0 -0.0072144262 0.48670072)
(0 -0.0020021731 0.33813095)
(0 0.0002050783 0.12137338)
(0 8.5472653e-05 0.10848115)
(0 0.0024692378 0.31340405)
(0 0.0081170636 0.47167026)
(0 0.012771476 0.55308508)
(0 0.014374004 0.57242029)
(0 0.01388012 0.56525779)
(0 0.012856811 0.55476956)
(0 0.011908724 0.54722441)
(0 0.011049092 0.54201857)
(0 0.010212916 0.53805391)
(0 0.0093748418 0.53485217)
(0 0.0085305151 0.53222456)
(0 0.0076799727 0.53006036)
(0 0.0068236917 0.52827887)
(0 0.0059626819 0.52682032)
(0 0.0050981715 0.52564054)
(0 0.004231471 0.52470683)
(0 0.0033638976 0.52399521)
(0 0.0024967263 0.5234885)
(0 0.0016312059 0.52317514)
(0 0.00076856827 0.52304842)
(0 -8.9919816e-05 0.52310604)
(0 -0.00094291344 0.52335006)
(0 -0.0017889386 0.52378703)
(0 -0.002626355 0.52442842)
(0 -0.0034533065 0.52529146)
(0 -0.004267706 0.52640044)
(0 -0.0050672527 0.52778878)
(0 -0.005849441 0.52950201)
(0 -0.0066118182 0.53160207)
(0 -0.0073518381 0.53417398)
(0 -0.0080687814 0.53735111)
(0 -0.0087716004 0.54143428)
(0 -0.0094883296 0.54714928)
(0 -0.010221095 0.55518433)
(0 -0.01062645 0.56183526)
(0 -0.0096413353 0.54923092)
(0 -0.0063340923 0.48263115)
(0 -0.0016427088 0.33465647)
(0 0.00015972856 0.12054411)
(0 0.00010114225 0.10744223)
(0 0.0021766802 0.30991831)
(0 0.0072557547 0.46715415)
(0 0.011720582 0.55028476)
(0 0.013452247 0.57191255)
(0 0.013144368 0.56595352)
(0 0.012236155 0.55570031)
(0 0.011357042 0.54809192)
(0 0.010555962 0.54283699)
(0 0.0097756894 0.53886381)