/*--------------------------------*- C++ -*----------------------------------*\
  =========                 |
  \\      /  F ield         | OpenFOAM: The Open Source CFD Toolbox
   \\    /   O peration     | Website:  https://openfoam.org
    \\  /    A nd           | Version:  10
     \\/     M anipulation  |
\*---------------------------------------------------------------------------*/
FoamFile
{
    format      ascii;
    class       volVectorField;
    location    "0.09";
    object      U_0;
}
// * * * * * * * * * * * * * * * * * * * * * * * * * * * * * * * * * * * * * //

dimensions      [0 1 -1 0 0 0 0];

internalField   nonuniform List<vector> 
4000
(
(0 0.018632023 0.47773429)
(0 0.023499827 0.50885912)
(0 0.0081575063 0.50052558)
(0 0.005605295 0.50033662)
(0 0.0042446443 0.50025753)
(0 0.0032447329 0.50016898)
(0 0.002545968 0.50011965)
(0 0.0020447442 0.50009005)
(0 0.0016671949 0.5000697)
(0 0.0013734594 0.50005525)
(0 0.0011391466 0.50004482)
(0 0.00094790203 0.50003714)
(0 0.00078845752 0.50003139)
(0 0.00065282464 0.50002704)
(0 0.00053516314 0.50002374)
(0 0.00043108119 0.50002125)
(0 0.00033718082 0.5000194)
(0 0.00025074989 0.50001806)
(0 0.00016954572 0.50001716)
(0 9.1636457e-05 0.50001665)
(0 1.5279319e-05 0.5000165)
(0 -6.1188235e-05 0.5000167)
(0 -0.00013943915 0.50001726)
(0 -0.0002212485 0.50001822)
(0 -0.00030860592 0.50001963)
(0 -0.00040384545 0.50002159)
(0 -0.00050981786 0.50002421)
(0 -0.00063013024 0.50002769)
(0 -0.00076949435 0.5000323)
(0 -0.00093425689 0.50003844)
(0 -0.0011332513 0.50004673)
(0 -0.0013791646 0.50005812)
(0 -0.0016907787 0.50007407)
(0 -0.0020984811 0.50009707)
(0 -0.0026582426 0.50013486)
(0 -0.0034523586 0.50020253)
(0 -0.0045458087 0.50027188)
(0 -0.0065705475 0.50043425)
(0 -0.017644587 0.50675197)
(0 -0.01358248 0.47975983)
(0 0.037417683 0.44798771)
(0 0.050924947 0.53232426)
(0 0.021938433 0.50804341)
(0 0.016106026 0.50357512)
(0 0.012384397 0.50242382)
(0 0.0094837995 0.50162302)
(0 0.0074888318 0.50115622)
(0 0.0060390191 0.50086515)
(0 0.0049351383 0.50066689)
(0 0.0040725954 0.50052761)
(0 0.0033823815 0.50042738)
(0 0.0028175016 0.50035365)
(0 0.0023455395 0.50029856)
(0 0.001943372 0.50025699)
(0 0.0015940024 0.50022549)
(0 0.0012846015 0.50020171)
(0 0.001005212 0.500184)
(0 0.00074786508 0.50017124)
(0 0.00050595649 0.50016267)
(0 0.00027378668 0.50015779)
(0 4.6206283e-05 0.50015634)
(0 -0.00018169505 0.50015824)
(0 -0.00041485857 0.50016361)
(0 -0.00065852716 0.50017276)
(0 -0.0009185675 0.50018624)
(0 -0.001201848 0.50020489)
(0 -0.0015167362 0.50022996)
(0 -0.001873787 0.50026324)
(0 -0.0022867364 0.50030736)
(0 -0.0027739874 0.50036622)
(0 -0.0033609882 0.50044577)
(0 -0.0040842014 0.50055549)
(0 -0.0049968161 0.5007105)
(0 -0.0061788266 0.5009364)
(0 -0.0077792184 0.50129483)
(0 -0.010074207 0.50191194)
(0 -0.013059081 0.50282849)
(0 -0.017378893 0.50608316)
(0 -0.038713142 0.52526526)
(0 -0.027872545 0.45024584)
(0 0.039865574 0.40987054)
(0 0.061375219 0.54931441)
(0 0.031926164 0.52188096)
(0 0.024302601 0.51008439)
(0 0.019137621 0.50659034)
(0 0.014920643 0.5045281)
(0 0.011951009 0.50327017)
(0 0.0097178854 0.50245604)
(0 0.0079850467 0.50189775)
(0 0.0066167286 0.50150453)
(0 0.0055126135 0.50122056)
(0 0.0046030899 0.50101115)
(0 0.0038393477 0.50085442)
(0 0.0031859244 0.500736)
(0 0.002616424 0.50064618)
(0 0.0021107356 0.50057829)
(0 0.0016531278 0.50052772)
(0 0.0012309284 0.50049127)
(0 0.00083358002 0.50046676)
(0 0.00045193338 0.5004528)
(0 7.7698122e-05 0.50044864)
(0 -0.00029703815 0.50045407)
(0 -0.00068023751 0.50046941)
(0 -0.0010803344 0.50049555)
(0 -0.0015067347 0.50053405)
(0 -0.0019703987 0.50058729)
(0 -0.0024845979 0.50065879)
(0 -0.0030659471 0.50075362)
(0 -0.0037358692 0.50087921)
(0 -0.0045227103 0.50104648)
(0 -0.0054649482 0.50127199)
(0 -0.0066167051 0.50158192)
(0 -0.0080553628 0.50201841)
(0 -0.0098852461 0.50264995)
(0 -0.012279269 0.50361623)
(0 -0.015625962 0.50520306)
(0 -0.019788245 0.50786156)
(0 -0.025099194 0.51641417)
(0 -0.047336965 0.53913554)
(0 -0.03081827 0.41495946)
(0 0.034763421 0.36182822)
(0 0.063762602 0.55459187)
(0 0.039289881 0.53746804)
(0 0.030002492 0.51849699)
(0 0.024028906 0.51198044)
(0 0.019195488 0.50849928)
(0 0.015653449 0.5062615)
(0 0.012874086 0.50475043)
(0 0.010667468 0.50369745)
(0 0.0088967147 0.50294743)
(0 0.0074486673 0.50240085)
(0 0.0062435553 0.50199523)
(0 0.0052234712 0.50169025)
(0 0.0043450635 0.50145899)
(0 0.0035754282 0.5012831)
(0 0.0028891002 0.50114986)
(0 0.0022658962 0.50105043)
(0 0.0016893827 0.50097866)
(0 0.0011457486 0.50093036)
(0 0.00062294413 0.50090283)
(0 0.00010999991 0.5008946)
(0 -0.0004035748 0.50090528)
(0 -0.00092833535 0.50093548)
(0 -0.001475429 0.50098694)
(0 -0.0020572191 0.50106265)
(0 -0.0026880033 0.50116721)
(0 -0.0033849226 0.50130735)
(0 -0.004169169 0.50149278)
(0 -0.0050676521 0.50173752)
(0 -0.0061153002 0.50206208)
(0 -0.0073581536 0.502497)
(0 -0.0088586376 0.50308931)
(0 -0.010704358 0.50391383)
(0 -0.013002233 0.50508707)
(0 -0.015888039 0.50680863)
(0 -0.019764987 0.50947453)
(0 -0.024603308 0.51428585)
(0 -0.030976234 0.52824732)
(0 -0.050201196 0.54411093)
(0 -0.028391298 0.37253693)
(0 0.027392795 0.31500323)
(0 0.062215014 0.55030996)
(0 0.044485357 0.55146391)
(0 0.033866873 0.52749006)
(0 0.027348485 0.5177265)
(0 0.022339588 0.51291909)
(0 0.018523367 0.50972624)
(0 0.01541856 0.50748366)
(0 0.012902156 0.50588767)
(0 0.010845055 0.50473171)
(0 0.0091357299 0.50387837)
(0 0.0076951937 0.50323912)
(0 0.0064633255 0.50275505)
(0 0.0053935774 0.50238592)
(0 0.0044497875 0.50210391)
(0 0.0036033842 0.50188955)
(0 0.0028313239 0.50172916)
(0 0.0021145729 0.50161313)
(0 0.0014369467 0.50153491)
(0 0.00078419595 0.50149026)
(0 0.00014326804 0.50147688)
(0 -0.00049835591 0.50149412)
(0 -0.0011532693 0.50154296)
(0 -0.0018347168 0.50162613)
(0 -0.0025572833 0.50174833)
(0 -0.0033376655 0.50191673)
(0 -0.0041956208 0.50214176)
(0 -0.0051551807 0.50243835)
(0 -0.0062462622 0.50282781)
(0 -0.0075068305 0.50334084)
(0 -0.0089853704 0.50402215)
(0 -0.010744562 0.50493838)
(0 -0.012871515 0.50619246)
(0 -0.0154705 0.50793951)
(0 -0.018629598 0.51040627)
(0 -0.022710878 0.51406484)
(0 -0.027996229 0.5211563)
(0 -0.035509898 0.53932579)
(0 -0.050316934 0.54165145)
(0 -0.024029689 0.33081653)
(0 0.019804765 0.27543068)
(0 0.057867293 0.53987851)
(0 0.047191234 0.56256672)
(0 0.036320868 0.53660008)
(0 0.029483555 0.52351049)
(0 0.024524593 0.51740129)
(0 0.020625866 0.51335423)
(0 0.017366813 0.51043005)
(0 0.014678741 0.50830478)
(0 0.012440355 0.50673799)
(0 0.010549976 0.50556506)
(0 0.0089354421 0.50467684)
(0 0.0075389707 0.50399834)
(0 0.0063145501 0.50347732)
(0 0.0052255817 0.50307705)
(0 0.0042424669 0.50277144)
(0 0.0033408561 0.50254196)
(0 0.0025002986 0.5023755)
(0 0.0017031621 0.50226303)
(0 0.00093375288 0.50219873)
(0 0.00017758897 0.50217936)
(0 -0.00057926723 0.50220405)
(0 -0.0013508328 0.50227416)
(0 -0.0021517787 0.50239345)
(0 -0.0029981279 0.50256838)
(0 -0.0039080069 0.5028088)
(0 -0.0049025472 0.50312888)
(0 -0.0060069908 0.50354868)
(0 -0.0072520871 0.50409646)
(0 -0.0086759919 0.50481224)
(0 -0.010326238 0.50575314)
(0 -0.012261413 0.50700157)
(0 -0.014562023 0.50868087)
(0 -0.017330438 0.51097303)
(0 -0.020621084 0.51412107)
(0 -0.024730358 0.51874131)
(0 -0.030264181 0.52823481)
(0 -0.038363096 0.54872752)
(0 -0.048306174 0.53416999)
(0 -0.019002954 0.29432279)
(0 0.013049125 0.24287115)
(0 0.051654054 0.52542009)
(0 0.047489246 0.57026697)
(0 0.037550648 0.54551037)
(0 0.03065454 0.52928827)
(0 0.025880775 0.52179716)
(0 0.02204968 0.51698406)
(0 0.01877272 0.51345154)
(0 0.016022314 0.51083606)
(0 0.01369017 0.50887737)
(0 0.011689635 0.50739208)
(0 0.0099579202 0.50625512)
(0 0.0084422038 0.50537867)
(0 0.0070995595 0.50470057)
(0 0.0058950229 0.5041764)
(0 0.0047996238 0.50377419)
(0 0.0037890335 0.50347095)
(0 0.0028424483 0.50325029)
(0 0.0019416562 0.50310083)
(0 0.0010702525 0.50301518)
(0 0.00021297418 0.50298925)
(0 -0.00064492369 0.5030219)
(0 -0.0015182669 0.50311487)
(0 -0.0024224924 0.50327293)
(0 -0.0033743102 0.50350425)
(0 -0.0043923841 0.50382117)
(0 -0.005498132 0.50424137)
(0 -0.0067166708 0.50478954)
(0 -0.0080779374 0.50550007)
(0 -0.0096182646 0.50642084)
(0 -0.011382156 0.50761917)
(0 -0.013422207 0.50919008)
(0 -0.01580823 0.51127175)
(0 -0.018636215 0.51406409)
(0 -0.021938284 0.5178367)
(0 -0.02595424 0.52347596)
(0 -0.031528673 0.5353674)
(0 -0.039414554 0.55591553)
(0 -0.044647709 0.52313566)
(0 -0.014020613 0.26317748)
(0 0.0077352394 0.21595073)
(0 0.044659457 0.50834479)
(0 0.045983823 0.57443136)
(0 0.037770756 0.55372432)
(0 0.031041167 0.53495209)
(0 0.02652825 0.52602135)
(0 0.022882784 0.5205177)
(0 0.019696481 0.51645659)
(0 0.016970291 0.51340066)
(0 0.014616362 0.51108135)
(0 0.012566091 0.50930285)
(0 0.010767183 0.50792781)
(0 0.0091735058 0.50685855)
(0 0.0077468858 0.5060251)
(0 0.0064553891 0.50537681)
(0 0.0052718855 0.50487677)
(0 0.0041731049 0.50449817)
(0 0.003138769 0.50422174)
(0 0.0021508369 0.50403399)
(0 0.0011928513 0.50392612)
(0 0.00024936603 0.50389325)
(0 -0.00069460104 0.50393402)
(0 -0.0016541119 0.50405051)
(0 -0.0026447646 0.50424838)
(0 -0.003683288 0.50453737)
(0 -0.0047881209 0.50493205)
(0 -0.0059800799 0.50545311)
(0 -0.0072831294 0.50612929)
(0 -0.0087252124 0.50700002)
(0 -0.010339419 0.50811965)
(0 -0.012165674 0.50956359)
(0 -0.014249516 0.51143713)
(0 -0.016647471 0.51388942)
(0 -0.019442017 0.51713003)
(0 -0.022650153 0.52147224)
(0 -0.026491295 0.52818158)
(0 -0.03194329 0.54219364)
(0 -0.038973082 0.56055411)
(0 -0.040037759 0.50956532)
(0 -0.009632634 0.23655994)
(0 0.0039691563 0.19406865)
(0 0.037711383 0.48996748)
(0 0.043359989 0.57534272)
(0 0.037232418 0.56080551)
(0 0.030847856 0.54033914)
(0 0.026619691 0.5299951)
(0 0.023228216 0.52387195)
(0 0.020206763 0.51936857)
(0 0.01756897 0.51593171)
(0 0.015250054 0.51329214)
(0 0.013199485 0.51124784)
(0 0.011375625 0.50965285)
(0 0.009740051 0.50840245)
(0 0.0082602947 0.5074209)
(0 0.0069083121 0.50665274)
(0 0.0056596376 0.50605719)
(0 0.0044928125 0.50560435)
(0 0.0033887569 0.50527256)
(0 0.0023302071 0.50504657)
(0 0.001301206 0.50491638)
(0 0.00028664013 0.50487642)
(0 -0.00072821092 0.50492513)
(0 -0.0017581446 0.50506488)
(0 -0.0028183994 0.50530215)
(0 -0.0039251642 0.50564795)
(0 -0.005096039 0.50611875)
(0 -0.0063505565 0.50673778)
(0 -0.0077107711 0.50753698)
(0 -0.0092018229 0.50855988)
(0 -0.010852634 0.50986575)
(0 -0.012697447 0.51153615)
(0 -0.01477424 0.51368403)
(0 -0.017126013 0.51646554)
(0 -0.019817884 0.52009284)
(0 -0.022858854 0.52494471)
(0 -0.026484673 0.5327214)
(0 -0.031694291 0.54834066)
(0 -0.037472257 0.56265344)
(0 -0.035079517 0.49449019)
(0 -0.0061197454 0.21414637)
(0 0.0015144427 0.17675734)
(0 0.031288659 0.47142026)
(0 0.0401456 0.573565)
(0 0.036151119 0.56654859)
(0 0.030261068 0.54533643)
(0 0.026314369 0.53367675)
(0 0.02319776 0.52699027)
(0 0.020380742 0.52212866)
(0 0.017872879 0.51837624)
(0 0.015629686 0.51546268)
(0 0.013616481 0.51318545)
(0 0.011801496 0.51139381)
(0 0.010154141 0.50997863)
(0 0.0086478967 0.50886029)
(0 0.0072589936 0.50797999)
(0 0.0059661038 0.50729409)
(0 0.0047500623 0.50677037)
(0 0.0035934569 0.50638531)
(0 0.002480253 0.50612228)
(0 0.0013954257 0.50597031)
(0 0.00032461065 0.50592327)
(0 -0.00074624125 0.50597945)
(0 -0.0018312519 0.50614147)
(0 -0.0029448801 0.50641642)
(0 -0.0041023373 0.50681639)
(0 -0.0053199266 0.50735934)
(0 -0.0066154162 0.50807044)
(0 -0.0080084531 0.50898411)
(0 -0.0095209105 0.51014686)
(0 -0.011177146 0.5116215)
(0 -0.013005289 0.51349367)
(0 -0.015035918 0.5158812)
(0 -0.01730008 0.51894323)
(0 -0.019845863 0.52289207)
(0 -0.022681408 0.52819987)
(0 -0.026076916 0.53699403)
(0 -0.030942537 0.55358388)
(0 -0.035283106 0.56250669)
(0 -0.030171908 0.47885553)
(0 -0.0035045644 0.19571636)
(0 3.9591333e-05 0.16326995)
(0 0.02563464 0.45347219)
(0 0.036708301 0.56971813)
(0 0.03469727 0.5709339)
(0 0.029419792 0.54989391)
(0 0.025744106 0.53706891)
(0 0.022892875 0.52985444)
(0 0.020294156 0.52470477)
(0 0.017938728 0.52069992)
(0 0.015797041 0.51755942)
(0 0.013847466 0.51508415)
(0 0.012066761 0.51312175)
(0 0.010431528 0.51156088)
(0 0.0089208629 0.51031971)
(0 0.0075152511 0.50933732)
(0 0.0061966569 0.50856825)
(0 0.0049484422 0.50797864)
(0 0.0037551417 0.50754366)
(0 0.00260225 0.50724567)
(0 0.0014759833 0.50707297)
(0 0.00036303761 0.50701901)
(0 -0.00074965331 0.50708196)
(0 -0.0018752218 0.50726462)
(0 -0.0030270335 0.50757457)
(0 -0.0042190097 0.5080247)
(0 -0.0054658505 0.50863405)
(0 -0.006783275 0.50942921)
(0 -0.0081882748 0.51044628)
(0 -0.0096993084 0.51173377)
(0 -0.011336231 0.51335673)
(0 -0.013121262 0.51540315)
(0 -0.015078176 0.51799322)
(0 -0.017228109 0.52128602)
(0 -0.019604756 0.52549718)
(0 -0.022221897 0.53122153)
(0 -0.025382771 0.54094548)
(0 -0.029818122 0.55783569)
(0 -0.032698508 0.56051528)
(0 -0.025565689 0.46335423)
(0 -0.0016727443 0.18081052)
(0 -0.00075481896 0.15278418)
(0 0.020844707 0.43655777)
(0 0.033297705 0.56435555)
(0 0.033013209 0.57403744)
(0 0.02842353 0.55399066)
(0 0.025007171 0.54019427)
(0 0.022396203 0.53247389)
(0 0.020013155 0.52708819)
(0 0.017818829 0.52288597)
(0 0.015792607 0.51956209)
(0 0.013923314 0.51692245)
(0 0.012194748 0.51481537)
(0 0.010589664 0.5131288)
(0 0.0090921157 0.51177994)
(0 0.0076865394 0.51070684)
(0 0.0063580961 0.50986297)
(0 0.0050927039 0.50921353)
(0 0.0038769574 0.50873284)
(0 0.0026980446 0.50840258)
(0 0.0015436155 0.50821055)
(0 0.00040163495 0.50814991)
(0 -0.0007397645 0.50821876)
(0 -0.0018925083 0.50842002)
(0 -0.0030686591 0.5087616)
(0 -0.0042806522 0.50925693)
(0 -0.0055414184 0.50992578)
(0 -0.0068645127 0.51079564)
(0 -0.0082642333 0.51190365)
(0 -0.0097557144 0.51329944)
(0 -0.011354655 0.51504924)
(0 -0.013077945 0.51724212)
(0 -0.014943344 0.51999878)
(0 -0.016963925 0.52347636)
(0 -0.019162579 0.52790108)
(0 -0.021564442 0.53401355)
(0 -0.024491864 0.5445437)
(0 -0.028435542 0.56109035)
(0 -0.029949231 0.55708046)
(0 -0.021413269 0.44842874)
(0 -0.00046625849 0.16884289)
(0 -0.0011055307 0.14460399)
(0 0.016909196 0.42089426)
(0 0.03006861 0.55794122)
(0 0.031215999 0.57598376)
(0 0.027345181 0.55761909)
(0 0.024175749 0.54307705)
(0 0.021773136 0.53487003)
(0 0.019592541 0.52928389)
(0 0.017558246 0.52492953)
(0 0.015652807 0.52146046)
(0 0.013873025 0.5186871)
(0 0.01220824 0.51645991)
(0 0.010646221 0.51466712)
(0 0.0091751936 0.51322582)
(0 0.0077830876 0.51207378)
(0 0.0064580013 0.51116406)
(0 0.0051882916 0.51046141)
(0 0.0039625979 0.5099397)
(0 0.0027698514 0.50958022)
(0 0.0015992286 0.50937048)
(0 0.00044007926 0.50930348)
(0 -0.00071813725 0.50937723)
(0 -0.0018860103 0.50959475)
(0 -0.0030741828 0.50996415)
(0 -0.0042935111 0.51049917)
(0 -0.005555104 0.51121999)
(0 -0.0068703689 0.51215459)
(0 -0.0082510229 0.51334058)
(0 -0.0097091185 0.51482807)
(0 -0.011256679 0.51668368)
(0 -0.012906023 0.51899663)
(0 -0.014669791 0.52188688)
(0 -0.016554691 0.52550891)
(0 -0.018576724 0.53010892)
(0 -0.020776701 0.53658518)
(0 -0.023476169 0.54776781)
(0 -0.026895677 0.5633955)
(0 -0.027204846 0.55256992)
(0 -0.017787735 0.43434827)
(0 0.00027278888 0.1592691)
(0 -0.0011858604 0.13817939)
(0 0.013750363 0.40656551)
(0 0.027100255 0.5508544)
(0 0.029392734 0.57692397)
(0 0.026235965 0.56078595)
(0 0.023301436 0.54573947)
(0 0.021074428 0.53706828)
(0 0.019076638 0.53130389)
(0 0.017194602 0.52683288)
(0 0.015409152 0.52325105)
(0 0.013722582 0.52037084)
(0 0.012128331 0.51804573)
(0 0.010618072 0.51616484)
(0 0.0091834045 0.51464568)
(0 0.0078152199 0.51342624)
(0 0.0065042056 0.51245965)
(0 0.0052409484 0.51171055)
(0 0.0040160265 0.51115269)
(0 0.0028200783 0.51076722)
(0 0.0016438175 0.5105415)
(0 0.00047801847 0.51046846)
(0 -0.00068647998 0.51054606)
(0 -0.0018588775 0.51077736)
(0 -0.0030483586 0.51117056)
(0 -0.0042641889 0.51173953)
(0 -0.0055156915 0.51250461)
(0 -0.0068122327 0.5134939)
(0 -0.0081631577 0.51474511)
(0 -0.009577771 0.51630832)
(0 -0.011064959 0.51824998)
(0 -0.012633283 0.52065889)
(0 -0.014291248 0.52365335)
(0 -0.016040848 0.52738575)
(0 -0.017894885 0.53213219)
(0 -0.019911977 0.5389479)
(0 -0.022391726 0.55061079)
(0 -0.02528007 0.56483756)
(0 -0.024575502 0.54730743)
(0 -0.014699817 0.42126576)
(0 0.00068200391 0.15162843)
(0 -0.0011139907 0.13307218)
(0 0.011257525 0.39356681)
(0 0.024419674 0.5433941)
(0 0.027601228 0.57701625)
(0 0.025128057 0.5635114)
(0 0.022418175 0.54820259)
(0 0.020337439 0.53909529)
(0 0.018500012 0.53316427)
(0 0.016758418 0.52860288)
(0 0.015088128 0.52493492)
(0 0.01349452 0.52197079)
(0 0.011973851 0.51956718)
(0 0.010520696 0.51761447)
(0 0.0091292637 0.51603088)
(0 0.0077928661 0.51475492)
(0 0.0065043931 0.51374005)
(0 0.0052564031 0.51295112)
(0 0.0040412494 0.51236195)
(0 0.002851181 0.5119537)
(0 0.0016783987 0.51171375)
(0 0.00051508084 0.51163498)
(0 -0.00064656203 0.51171536)
(0 -0.0018143465 0.51195793)
(0 -0.002996021 0.51237089)
(0 -0.0041993112 0.5129681)
(0 -0.0054318515 0.51376985)
(0 -0.006701134 0.51480413)
(0 -0.0080143952 0.51610845)
(0 -0.009378573 0.51773252)
(0 -0.010799968 0.51974228)
(0 -0.01228418 0.5222257)
(0 -0.013836551 0.52529901)
(0 -0.015455932 0.52911415)
(0 -0.017154958 0.53398656)
(0 -0.019009744 0.54111553)
(0 -0.021279038 0.5530799)
(0 -0.023648842 0.56552489)
(0 -0.022122773 0.54156489)
(0 -0.012119159 0.4092485)
(0 0.00087017867 0.14552907)
(0 -0.00096625534 0.12893843)
(0 0.0093120468 0.38183663)
(0 0.022022621 0.53578647)
(0 0.025875639 0.5764099)
(0 0.024038939 0.56582336)
(0 0.021545778 0.55048521)
(0 0.019587657 0.54097667)
(0 0.017888239 0.53488311)
(0 0.016273513 0.53024928)
(0 0.014711271 0.52651624)
(0 0.013207793 0.52348716)
(0 0.011761103 0.5210216)
(0 0.010367843 0.51901131)
(0 0.0090241481 0.51737531)
(0 0.0077252356 0.51605276)
(0 0.0064658149 0.51499762)
(0 0.0052401396 0.51417508)
(0 0.0040421432 0.5135592)
(0 0.0028655508 0.51313128)
(0 0.0017039589 0.51287877)
(0 0.00055088374 0.51279458)
(0 -0.00060014387 0.51287667)
(0 -0.0017556096 0.51312806)
(0 -0.0029218936 0.51355686)
(0 -0.0041052745 0.51417681)
(0 -0.0053118357 0.51500802)
(0 -0.0065473938 0.51607821)
(0 -0.0078173628 0.51742448)
(0 -0.0091267037 0.51909598)
(0 -0.010479654 0.52115797)
(0 -0.011879565 0.52369737)
(0 -0.013329489 0.52682834)
(0 -0.014826543 0.53070489)
(0 -0.01638539 0.53568961)
(0 -0.01809718 0.54310269)
(0 -0.020165251 0.55519228)
(0 -0.022043133 0.56557143)
(0 -0.019873689 0.53556002)
(0 -0.0099926876 0.39830193)
(0 0.00091759549 0.14064043)
(0 -0.00079008213 0.12551889)
(0 0.0078015078 0.37128307)
(0 0.019888045 0.5281972)
(0 0.024232801 0.57523734)
(0 0.02297613 0.5677523)
(0 0.020693991 0.55260235)
(0 0.018841068 0.54273471)
(0 0.017259245 0.53647836)
(0 0.015757729 0.5317831)
(0 0.014295493 0.52800102)
(0 0.012877857 0.5249223)
(0 0.011503811 0.52240854)
(0 0.010171398 0.52035283)
(0 0.0088781119 0.51867491)
(0 0.0076206236 0.51731461)
(0 0.0063951072 0.51622643)
(0 0.005197241 0.51537601)
(0 0.0040223349 0.51473769)
(0 0.0028654359 0.51429299)
(0 0.0017214184 0.5140295)
(0 0.00058504351 0.51394016)
(0 -0.00054892261 0.51402296)
(0 -0.0016857179 0.51428081)
(0 -0.0028304495 0.51472176)
(0 -0.0039880699 0.51535931)
(0 -0.0051632701 0.51621332)
(0 -0.0063604012 0.51731112)
(0 -0.007583336 0.51868929)
(0 -0.0088354241 0.52039637)
(0 -0.010119304 0.52249686)
(0 -0.011436671 0.52507661)
(0 -0.012789018 0.52824805)
(0 -0.014172938 0.53217031)
(0 -0.01560647 0.53725846)
(0 -0.017191765 0.54492278)
(0 -0.019067244 0.5569701)
(0 -0.020488806 0.56508601)
(0 -0.017832471 0.52946117)
(0 -0.0082572367 0.38839195)
(0 0.0008809901 0.13669315)
(0 -0.00061352784 0.1226253)
(0 0.0066269412 0.36180289)
(0 0.017987142 0.52074516)
(0 0.022677513 0.57361243)
(0 0.021940811 0.5693286)
(0 0.019865919 0.5545649)
(0 0.01810664 0.54438722)
(0 0.016624953 0.53796624)
(0 0.015223967 0.53321528)
(0 0.013853691 0.52939593)
(0 0.012516993 0.52627967)
(0 0.011213244 0.52372896)
(0 0.0099413922 0.52163801)
(0 0.0086998337 0.51992717)
(0 0.0074863247 0.51853685)
(0 0.006298195 0.51742207)
(0 0.0051323003 0.5165489)
(0 0.003985129 0.51589202)
(0 0.0028528913 0.5154332)
(0 0.0017316102 0.51516014)
(0 0.00061718249 0.5150659)
(0 -0.00049449466 0.51514844)
(0 -0.0016075135 0.51541061)
(0 -0.0027258197 0.51586027)
(0 -0.0038531733 0.51651073)
(0 -0.0049930369 0.51738149)
(0 -0.0061485006 0.51849945)
(0 -0.0073221541 0.51990068)
(0 -0.0085160564 0.52163306)
(0 -0.0097316331 0.52376039)
(0 -0.010969397 0.52636754)
(0 -0.012229848 0.52956578)
(0 -0.013510049 0.53352264)
(0 -0.014832007 0.53870821)
(0 -0.016303854 0.546587)
(0 -0.01799438 0.55843761)
(0 -0.018999921 0.56416724)
(0 -0.015989216 0.52339544)
(0 -0.006847841 0.37946239)
(0 0.00079919748 0.13347515)
(0 -0.0004518137 0.12012455)
(0 0.0057058678 0.35329282)
(0 0.01628898 0.51351405)
(0 0.021206809 0.57163166)
(0 0.020930388 0.57058139)
(0 0.019060478 0.55638013)
(0 0.017388386 0.54594735)
(0 0.015992803 0.5393605)
(0 0.014681264 0.53455585)
(0 0.013395469 0.53070755)
(0 0.012134763 0.52756322)
(0 0.010898493 0.52498467)
(0 0.0096861359 0.52286692)
(0 0.0084966662 0.52113079)
(0 0.0073286319 0.5197171)
(0 0.0061802641 0.51858134)
(0 0.0050493816 0.51768996)
(0 0.0039334709 0.51701799)
(0 0.0028297533 0.5165474)
(0 0.0017352693 0.51626609)
(0 0.00064693478 0.51616715)
(0 -0.00043833271 0.51624855)
(0 -0.001523591 0.51651304)
(0 -0.0026117433 0.51696833)
(0 -0.0037054923 0.51762746)
(0 -0.0048072304 0.51850958)
(0 -0.0059189736 0.51964116)
(0 -0.0070422535 0.52105773)
(0 -0.0081781046 0.52280661)
(0 -0.0093270457 0.52495098)
(0 -0.010488761 0.52757489)
(0 -0.011663178 0.53078925)
(0 -0.012848572 0.53477311)
(0 -0.014070887 0.54005124)
(0 -0.015438787 0.54810423)
(0 -0.016950771 0.5596193)
(0 -0.017581971 0.56290163)
(0 -0.014326307 0.51745674)
(0 -0.0057031541 0.37144663)
(0 0.00069787179 0.13082343)
(0 -0.00031195073 0.11792458)
(0 0.0049724482 0.3456558)
(0 0.014763817 0.50656158)
(0 0.019813371 0.56937612)
(0 0.019940351 0.57153798)
(0 0.018274172 0.55805242)
(0 0.016687002 0.54742405)
(0 0.015367018 0.54067217)
(0 0.01413574 0.5358135)
(0 0.012927847 0.53194195)
(0 0.011738517 0.52877691)
(0 0.010566791 0.52617785)
(0 0.0094124303 0.52404029)
(0 0.0082747564 0.52228527)
(0 0.0071528972 0.52085391)
(0 0.0060457848 0.51970204)
(0 0.0049520237 0.51879643)
(0 0.0038699421 0.51811241)
(0 0.0027976332 0.51763217)
(0 0.0017330299 0.51734374)
(0 0.00067395222 0.51724028)
(0 -0.00038177312 0.51731975)
(0 -0.0014362815 0.5175848)
(0 -0.0024915523 0.51804295)
(0 -0.0035493594 0.51870699)
(0 -0.00461117 0.51959572)
(0 -0.00567809 0.52073519)
(0 -0.0067507797 0.52216046)
(0 -0.0078294589 0.52391835)
(0 -0.0089139654 0.52607155)
(0 -0.010003407 0.52870351)
(0 -0.01109742 0.5319257)
(0 -0.012195977 0.53593141)
(0 -0.013328433 0.54129709)
(0 -0.014598616 0.54948119)
(0 -0.015937226 0.56053875)
(0 -0.016234869 0.56136331)
(0 -0.012823061 0.51171268)
(0 -0.0047686418 0.36427475)
(0 0.00059315593 0.12861502)
(0 -0.00019597392 0.11596322)
(0 0.0043758507 0.33880417)
(0 0.013384781 0.49992658)
(0 0.018488025 0.56691371)
(0 0.01896565 0.57222348)
(0 0.017502439 0.55958384)
(0 0.016001184 0.54882254)
(0 0.014749652 0.54190957)
(0 0.013591419 0.53699541)
(0 0.012455902 0.53310439)
(0 0.011333866 0.52992442)
(0 0.010223873 0.52731084)
(0 0.009125807 0.52515925)
(0 0.0080392072 0.52339075)
(0 0.0069636344 0.52194658)
(0 0.0058985737 0.52078279)
(0 0.0048432758 0.51986642)
(0 0.0037967795 0.51917302)
(0 0.0027579286 0.51868497)
(0 0.001725434 0.51839043)
(0 0.0006979112 0.51828262)
(0 -0.00032600992 0.51835945)
(0 -0.0013476503 0.51862349)
(0 -0.0023681771 0.51908207)
(0 -0.0033885533 0.51974771)
(0 -0.0044094494 0.52063891)
(0 -0.0054311986 0.52178131)
(0 -0.0064537388 0.52320956)
(0 -0.0074766312 0.5249701)
(0 -0.0084991858 0.52712523)
(0 -0.0095200966 0.52975807)
(0 -0.010538875 0.53298162)
(0 -0.011557416 0.53700559)
(0 -0.012607614 0.54245266)
(0 -0.013783549 0.55072265)
(0 -0.01495291 0.5612179)
(0 -0.014955515 0.55961465)
(0 -0.011458825 0.50621041)
(0 -0.0039980302 0.35787807)
(0 0.00049443079 0.12675898)
(0 -0.00010308865 0.11419964)
(0 0.0038778309 0.33266101)
(0 0.012128525 0.49363442)
(0 0.017221422 0.56430134)
(0 0.018001623 0.57266085)
(0 0.016740637 0.56097475)
(0 0.015328683 0.55014491)
(0 0.014141465 0.54307851)
(0 0.01305094 0.53810722)
(0 0.011983344 0.53419928)
(0 0.010925136 0.53100902)
(0 0.0098743061 0.5283859)
(0 0.0088307809 0.52622515)
(0 0.0077942588 0.52444775)
(0 0.0067646474 0.52299493)
(0 0.0057418827 0.52182285)
(0 0.0047257575 0.52089873)
(0 0.0037159167 0.52019829)
(0 0.0027118514 0.51970407)
(0 0.0017129501 0.51940432)
(0 0.00071852499 0.5192923)
(0 -0.0002720895 0.51936588)
(0 -0.0012594997 0.51962753)
(0 -0.0022441619 0.5200844)
(0 -0.0032263345 0.52074878)
(0 -0.0042060003 0.52163884)
(0 -0.0051828322 0.52277989)
(0 -0.006156159 0.52420622)
(0 -0.0071249913 0.52596397)
(0 -0.0080882032 0.52811519)
(0 -0.0090441659 0.5307429)
(0 -0.0099923337 0.53396263)
(0 -0.010936527 0.53800197)
(0 -0.01191007 0.54352246)
(0 -0.01299311 0.55183182)
(0 -0.013996659 0.56167675)
(0 -0.013739779 0.55770753)
(0 -0.010214888 0.50098145)
(0 -0.0033536232 0.35219161)
(0 0.00040632274 0.12518918)
(0 -3.1068976e-05 0.11260789)
(0 0.003450197 0.32716024)
(0 0.010975325 0.48770099)
(0 0.0160051 0.56158685)
(0 0.017044615 0.57287103)
(0 0.015984762 0.56222436)
(0 0.01466712 0.55139074)
(0 0.013542632 0.54418256)
(0 0.012516151 0.53915318)
(0 0.011513009 0.53523017)
(0 0.010515763 0.53203351)
(0 0.0095218081 0.52940514)
(0 0.0085310901 0.52723943)
(0 0.00754347 0.52545711)
(0 0.0065591631 0.52399925)
(0 0.0055784948 0.52282204)
(0 0.0046017274 0.52189279)
(0 0.0036290312 0.52118736)
(0 0.0026604609 0.52068841)
(0 0.001695995 0.52038424)
(0 0.00073555536 0.52026814)
(0 -0.00022090786 0.52033795)
(0 -0.0011733768 0.52059602)
(0 -0.0021216881 0.52104935)
(0 -0.0030654875 0.52170996)
(0 -0.0040041618 0.52259577)
(0 -0.0049368132 0.52373177)
(0 -0.0058622438 0.52515196)
(0 -0.0067789835 0.52690223)
(0 -0.0076855129 0.5290445)
(0 -0.0085799156 0.53166196)
(0 -0.0094615896 0.53487351)
(0 -0.010336084 0.53892539)
(0 -0.011236919 0.54450912)
(0 -0.012227002 0.55281081)
(0 -0.013067929 0.5619335)
(0 -0.012583923 0.55568487)
(0 -0.0090755586 0.49604544)
(0 -0.0028059983 0.34715543)
(0 0.00033017502 0.12385801)
(0 2.2827253e-05 0.11117216)
(0 0.0030725167 0.32224587)
(0 0.0099089585 0.48213535)
(0 0.014832166 0.55881053)
(0 0.016092397 0.57287318)
(0 0.015231958 0.56333121)
(0 0.014014581 0.55255776)
(0 0.012953275 0.5452234)
(0 0.011988574 0.54013623)
(0 0.011047256 0.53619983)
(0 0.010108623 0.53300029)
(0 0.009169504 0.53037051)
(0 0.0082298952 0.52820358)
(0 0.0072898662 0.52641984)
(0 0.0063499386 0.52496014)
(0 0.0054107989 0.52378058)
(0 0.0044731322 0.52284853)
(0 0.003537575 0.52213992)
(0 0.0026046779 0.52163749)
(0 0.0016749364 0.52132962)
(0 0.00074880523 0.52120959)
(0 -0.00017322823 0.5212752)
(0 -0.0010906027 0.52152868)
(0 -0.0020026156 0.52197687)
(0 -0.0029083796 0.52263158)
(0 -0.0038067621 0.52351044)
(0 -0.0046963644 0.52463819)
(0 -0.0055755207 0.52604856)
(0 -0.006442321 0.52778727)
(0 -0.0072948592 0.52991617)
(0 -0.0081309283 0.53251883)
(0 -0.0089498231 0.53571835)
(0 -0.0097584754 0.5397795)
(0 -0.010589329 0.54541394)
(0 -0.011485687 0.55366125)
(0 -0.012167439 0.56200484)
(0 -0.011485588 0.553582)
(0 -0.0080286671 0.49141284)
(0 -0.0023334752 0.34271469)
(0 0.0002652467 0.12273126)
(0 6.1293903e-05 0.10988342)
(0 0.0027302482 0.31787078)
(0 0.0089165308 0.4769415)
(0 0.013697744 0.55600624)
(0 0.015144482 0.57268489)
(0 0.014480878 0.56429367)
(0 0.013370043 0.55364241)
(0 0.01237385 0.54620125)
(0 0.011469735 0.54105835)
(0 0.010588248 0.53711044)
(0 0.0097062531 0.53391137)
(0 0.0088201024 0.53128383)
(0 0.0079299103 0.52911915)
(0 0.0070360317 0.52733719)
(0 0.0061393208 0.5258785)
(0 0.0052408214 0.52469908)
(0 0.0043416166 0.52376628)
(0 0.003442766 0.52305611)
(0 0.0025452631 0.52255136)
(0 0.0016500588 0.52224043)
(0 0.00075807444 0.52211662)
(0 -0.00012973507 0.52217767)
(0 -0.0010123366 0.52242571)
(0 -0.0018885592 0.52286741)
(0 -0.0027570517 0.52351436)
(0 -0.003616226 0.52438397)
(0 -0.0044642386 0.52550069)
(0 -0.0052989964 0.52689803)
(0 -0.0061181711 0.52862157)
(0 -0.0069194559 0.53073313)
(0 -0.007700325 0.53331688)
(0 -0.0084598955 0.53650069)
(0 -0.0092060372 0.54056712)
(0 -0.0099688885 0.54623753)
(0 -0.010770723 0.5543848)
(0 -0.011297542 0.56190638)
(0 -0.010444455 0.55142806)
(0 -0.0070657991 0.48708691)
(0 -0.001921326 0.33881875)
(0 0.00021012697 0.12178388)
(0 8.6703974e-05 0.1087369)
(0 0.002413379 0.31399517)
(0 0.0079883859 0.47211935)
(0 0.012599343 0.55320225)
(0 0.014202384 0.57232241)
(0 0.013731939 0.56511037)
(0 0.012733643 0.55464051)
(0 0.011805387 0.54711532)
(0 0.010961373 0.54192076)
(0 0.010138125 0.53796374)
(0 0.0093109987 0.53476859)
(0 0.008476009 0.53214686)
(0 0.0076334865 0.52998774)
(0 0.0067841651 0.52821054)
(0 0.0059292765 0.5267555)
(0 0.0050702362 0.52557847)
(0 0.0042085141 0.5246468)
(0 0.0033455635 0.52393651)
(0 0.002482778 0.52343045)
(0 0.0016215124 0.52311707)
(0 0.00076309604 0.52298964)
(0 -9.110953e-05 0.52304586)
(0 -0.00093966342 0.52328775)
(0 -0.0017809895 0.5237218)
(0 -0.0026133337 0.52435944)
(0 -0.0034347079 0.52521779)
(0 -0.004242869 0.52632107)
(0 -0.0050353276 0.52770258)
(0 -0.0058093476 0.52940772)
(0 -0.0065621971 0.53149833)
(0 -0.0072909922 0.53405932)
(0 -0.0079945853 0.53722379)
(0 -0.0086812913 0.54129064)
(0 -0.0093778371 0.54698035)
(0 -0.010084932 0.55498382)
(0 -0.010462362 0.5616532)
(0 -0.0094625666 0.54924719)
(0 -0.0061823601 0.48306522)
(0 -0.001560599 0.33541992)
(0 0.00016375221 0.12099612)
(0 0.00010106261 0.10773029)
(0 0.0021155763 0.31058476)
(0 0.0071181408 0.46766516)
(0 0.011537188 0.55042191)
(0 0.013269854 0.57180094)
(0 0.012987508 0.56578063)
(0 0.012106867 0.55554781)
(0 0.011249671 0.54796428)
(0 0.010465613 0.54272431)