/*--------------------------------*- C++ -*----------------------------------*\
  =========                 |
  \\      /  F ield         | OpenFOAM: The Open Source CFD Toolbox
   \\    /   O peration     | Website:  https://openfoam.org
    \\  /    A nd           | Version:  10
     \\/     M anipulation  |
\*---------------------------------------------------------------------------*/
FoamFile
{
    format      ascii;
    class       surfaceScalarField;
    location    "0.07";
    object      phi;
}
// * * * * * * * * * * * * * * * * * * * * * * * * * * * * * * * * * * * * * //

dimensions      [1 0 -1 0 0 0 0];

internalField   nonuniform List<scalar> 
7860
(
3.9868102e-08
5.2884001e-07
1.2171699e-08
5.9640412e-07
7.4065221e-09
5.7347292e-07
5.4752113e-09
5.7063901e-07
4.0900935e-09
5.7009279e-07
3.1763847e-09
5.6962136e-07
2.5349559e-09
5.6934906e-07
2.0560924e-09
5.6918648e-07
1.6874063e-09
5.6907629e-07
1.3963149e-09
5.6899869e-07
1.16098e-09
5.6894292e-07
9.6660392e-10
5.6890196e-07
8.0281324e-10
5.6887137e-07
6.6209222e-10
5.6884829e-07
5.3884572e-10
5.6883081e-07
4.2879401e-10
5.6881762e-07
3.2856675e-10
5.6880779e-07
2.3542168e-10
5.6880071e-07
1.4704217e-10
5.6879594e-07
6.1383865e-11
5.6879322e-07
-2.3448756e-11
5.6879239e-07
-1.0930951e-10
5.6879342e-07
-1.9812012e-10
5.6879637e-07
-2.91974e-10
5.6880141e-07
-3.9327013e-10
5.6880886e-07
-5.0487724e-10
5.6881917e-07
-6.3035543e-10
5.6883304e-07
-7.742705e-10
5.6885149e-07
-9.4265598e-10
5.6887596e-07
-1.1437219e-09
5.6890865e-07
-1.38903e-09
5.6895289e-07
-1.6954691e-09
5.6901403e-07
-2.0881251e-09
5.6910026e-07
-2.6070046e-09
5.6922649e-07
-3.3346197e-09
5.6943525e-07
-4.4270939e-09
5.6980012e-07
-5.9766036e-09
5.7025718e-07
-9.4780058e-09
5.7220911e-07
-2.9538026e-08
5.8876777e-07
5.3916989e-07
5.9606291e-08
4.6923424e-07
3.6588752e-08
6.1942146e-07
2.2554841e-08
5.8750675e-07
1.6176685e-08
5.7701717e-07
1.2212026e-08
5.7405745e-07
9.5282098e-09
5.7230518e-07
7.6013157e-09
5.7127595e-07
6.1631005e-09
5.706247e-07
5.0577448e-09
5.7018165e-07
4.1850104e-09
5.6987142e-07
3.4794354e-09
5.696485e-07
2.8967429e-09
5.6948465e-07
2.4057955e-09
5.6936232e-07
1.9840397e-09
5.6927005e-07
1.6146936e-09
5.6920016e-07
1.2849219e-09
5.6914739e-07
9.8461661e-10
5.691081e-07
7.0555437e-10
5.6907977e-07
4.4078867e-10
5.6906071e-07
1.8418933e-10
5.6904982e-07
-6.992783e-11
5.6904651e-07
-3.2712497e-10
5.6905062e-07
-5.9315627e-10
5.690624e-07
-8.743016e-10
5.6908256e-07
-1.1777553e-09
5.6911231e-07
-1.5121203e-09
5.6915354e-07
-1.8880738e-09
5.69209e-07
-2.3193095e-09
5.6928272e-07
-2.8239313e-09
5.6938058e-07
-3.4265816e-09
5.695113e-07
-4.1618667e-09
5.6968818e-07
-5.080386e-09
5.6993255e-07
-6.2590749e-09
5.7027895e-07
-7.8170808e-09
5.707845e-07
-9.9580954e-09
5.7157626e-07
-1.3089144e-08
5.7293117e-07
-1.802594e-08
5.7519398e-07
-2.8068472e-08
5.8225164e-07
-4.5707945e-08
6.0640724e-07
4.9346195e-07
5.9907376e-08
4.0932817e-07
5.0343202e-08
6.2898557e-07
3.3235156e-08
6.0461452e-07
2.4681114e-08
5.855712e-07
1.9184682e-08
5.7955389e-07
1.5194144e-08
5.7629572e-07
1.2227073e-08
5.7424303e-07
9.9736602e-09
5.7287811e-07
8.2201819e-09
5.7193513e-07
6.8232568e-09
5.7126835e-07
5.6865923e-09
5.7078516e-07
4.7432405e-09
5.70428e-07
3.9452818e-09
5.7016027e-07
3.2575991e-09
5.6995773e-07
2.6538162e-09
5.6980395e-07
2.1136047e-09
5.696876e-07
1.6208558e-09
5.6960085e-07
1.1623969e-09
5.6953823e-07
7.2705518e-10
5.6949605e-07
3.0494084e-10
5.6947193e-07
-1.1313294e-10
5.6946458e-07
-5.3615887e-10
5.6947364e-07
-9.7343245e-10
5.6949968e-07
-1.435076e-09
5.695442e-07
-1.9326454e-09
5.6960988e-07
-2.4798951e-09
5.6970079e-07
-3.0937946e-09
5.698229e-07
-3.7959469e-09
5.6998488e-07
-4.6146468e-09
5.7019928e-07
-5.5879543e-09
5.7048461e-07
-6.768368e-09
5.708686e-07
-8.2304761e-09
5.7139466e-07
-1.0084174e-08
5.7213265e-07
-1.2492017e-08
5.7319234e-07
-1.5688035e-08
5.7477228e-07
-2.0035463e-08
5.772786e-07
-2.6509804e-08
5.8166832e-07
-3.8744762e-08
5.944866e-07
-4.8012611e-08
6.1567509e-07
4.4544934e-07
5.4746981e-08
3.5458365e-07
5.7231034e-08
6.265021e-07
4.0254933e-08
6.2159009e-07
3.0572575e-08
5.9525344e-07
2.4435962e-08
5.8569051e-07
1.9747738e-08
5.8098394e-07
1.6114562e-08
5.778762e-07
1.3277148e-08
5.7571552e-07
1.1022904e-08
5.7418937e-07
9.1997822e-09
5.7309147e-07
7.6996e-09
5.7228535e-07
6.4436123e-09
5.7168399e-07
5.3737566e-09
5.7123013e-07
4.4465369e-09
5.7088495e-07
3.628703e-09
5.7062178e-07
2.8942658e-09
5.7042204e-07
2.2223952e-09
5.7027272e-07
1.5958983e-09
5.7016473e-07
1.0000834e-09
5.7009186e-07
4.2187614e-10
5.7005014e-07
-1.5090815e-10
5.7003737e-07
-7.3020913e-10
5.7005295e-07
-1.3283472e-09
5.7009782e-07
-1.9586836e-09
5.7017454e-07
-2.6363771e-09
5.7028758e-07
-3.3793189e-09
5.7044373e-07
-4.2093479e-09
5.7065293e-07
-5.1538929e-09
5.7092942e-07
-6.248265e-09
5.7129366e-07
-7.5389316e-09
5.7177527e-07
-9.0881033e-09
5.7241777e-07
-1.0980137e-08
5.732867e-07
-1.3331957e-08
5.7448447e-07
-1.6305812e-08
5.761662e-07
-2.0100874e-08
5.7856734e-07
-2.4984837e-08
5.8216257e-07
-3.2207846e-08
5.8889133e-07
-4.4782694e-08
6.0706145e-07
-4.6333045e-08
6.1722545e-07
3.991163e-07
4.7808312e-08
3.0677932e-07
5.9772155e-08
6.1454017e-07
4.5092947e-08
6.3626858e-07
3.4586188e-08
6.0575986e-07
2.8113871e-08
5.9216283e-07
2.3138385e-08
5.8595944e-07
1.9162517e-08
5.8185207e-07
1.5970426e-08
5.7890762e-07
1.3376945e-08
5.7678285e-07
1.1242243e-08
5.7522617e-07
9.4608135e-09
5.7406678e-07
7.9522901e-09
5.7319252e-07
6.6553742e-09
5.7252705e-07
5.5228213e-09
5.7201751e-07
4.5176607e-09
5.7162694e-07
3.6104424e-09
5.7132926e-07
2.7771907e-09
5.7110597e-07
1.9978592e-09
5.7094406e-07
1.2551417e-09
5.7083458e-07
5.3352137e-10
5.7077176e-07
-1.8152855e-10
5.7075242e-07
-9.0426011e-10
5.7077568e-07
-1.649347e-09
5.708429e-07
-2.4326151e-09
5.7095781e-07
-3.2718658e-09
5.7112683e-07
-4.1878691e-09
5.7135973e-07
-5.2056141e-09
5.7167068e-07
-6.3559303e-09
5.7207974e-07
-7.6776294e-09
5.7261536e-07
-9.2203951e-09
5.7331804e-07
-1.1048583e-08
5.7424596e-07
-1.3245668e-08
5.7548378e-07
-1.5920756e-08
5.7715956e-07
-1.9218573e-08
5.7946402e-07
-2.331125e-08
5.8266002e-07
-2.8500561e-08
5.8735188e-07
-3.63454e-08
5.9673617e-07
-4.8013076e-08
6.1872913e-07
-4.2916381e-08
6.1212875e-07
3.5619992e-07
4.0156257e-08
2.6662889e-07
5.8603213e-08
5.9609728e-07
4.7911033e-08
6.4696017e-07
3.7199629e-08
6.1647058e-07
3.0551635e-08
5.9881077e-07
2.5525112e-08
5.9098598e-07
2.1424803e-08
5.8595239e-07
1.8054957e-08
5.8227746e-07
1.5262008e-08
5.795758e-07
1.2923384e-08
5.775648e-07
1.0942689e-08
5.7604747e-07
9.2442381e-09
5.7489097e-07
7.76856e-09
5.7400273e-07
6.4684729e-09
5.733176e-07
5.3061205e-09
5.727893e-07
4.2506962e-09
5.7238468e-07
3.2766572e-09
5.7208001e-07
2.3623173e-09
5.718584e-07
1.4887229e-09
5.7170818e-07
6.3872491e-10
5.7162176e-07
-2.0381824e-10
5.7159496e-07
-1.0547657e-09
5.7162663e-07
-1.9304037e-09
5.7171854e-07
-2.8481838e-09
5.7187559e-07
-3.8275375e-09
5.7210618e-07
-4.8908345e-09
5.7242303e-07
-6.0645461e-09
5.7284439e-07
-7.3806952e-09
5.7339589e-07
-8.8786717e-09
5.7411333e-07
-1.0607558e-08
5.7504693e-07
-1.2629189e-08
5.7626759e-07
-1.5021599e-08
5.7787619e-07
-1.7883127e-08
5.8002109e-07
-2.1339339e-08
5.8292023e-07
-2.5548028e-08
5.8686871e-07
-3.0913104e-08
5.9271695e-07
-3.9045262e-08
6.0486833e-07
-4.8574895e-08
6.2825876e-07
-3.8239599e-08
6.0179346e-07
3.1796032e-07
3.2662628e-08
2.3397426e-07
5.4769892e-08
5.7399714e-07
4.8684579e-08
6.5304551e-07
3.8554796e-08
6.2659923e-07
3.1947443e-08
6.0541792e-07
2.7049558e-08
5.958839e-07
2.2988536e-08
5.9001342e-07
1.9577051e-08
5.8568895e-07
1.6697327e-08
5.8245553e-07
1.4246473e-08
5.8001566e-07
1.214017e-08
5.7815378e-07
1.0310713e-08
5.7672043e-07
8.7034816e-09
5.7560996e-07
7.2739672e-09
5.7474711e-07
5.9855843e-09
5.7407768e-07
4.8079012e-09
5.7356237e-07
3.7151895e-09
5.7317272e-07
2.6852392e-09
5.7288835e-07
1.6983737e-09
5.7269504e-07
7.3661083e-10
5.7258352e-07
-2.1707788e-10
5.7254865e-07
-1.1794499e-09
5.72589e-07
-2.167666e-09
5.7270676e-07
-3.199985e-09
5.7290791e-07
-4.296516e-09
5.7320272e-07
-5.4800788e-09
5.736066e-07
-6.7772157e-09
5.7414153e-07
-8.2194108e-09
5.7483808e-07
-9.8445595e-09
5.7573848e-07
-1.1698766e-08
5.7690114e-07
-1.3838761e-08
5.7840758e-07
-1.6334822e-08
5.8037226e-07
-1.9272879e-08
5.8295914e-07
-2.2755437e-08
5.8640279e-07
-2.6925334e-08
5.9103861e-07
-3.2288814e-08
5.9808044e-07
-4.0210619e-08
6.1279014e-07
-4.6931256e-08
6.349794e-07
-3.2977527e-08
5.8783973e-07
2.8498279e-07
2.5969768e-08
2.0801498e-07
4.9559974e-08
5.5041807e-07
4.7800711e-08
6.5480614e-07
3.8844655e-08
6.3555367e-07
3.2471007e-08
6.117911e-07
2.7828087e-08
6.0052684e-07
2.3934793e-08
5.9390673e-07
2.0591972e-08
5.8903177e-07
1.7717278e-08
5.8533022e-07
1.5230607e-08
5.8250233e-07
1.3062212e-08
5.8032217e-07
1.1154403e-08
5.7862824e-07
9.4592418e-09
5.7730512e-07
7.9365918e-09
5.7626976e-07
6.5526492e-09
5.7546162e-07
5.2786578e-09
5.7483636e-07
4.0898104e-09
5.7436157e-07
2.9643158e-09
5.7401385e-07
1.8825913e-09
5.7377677e-07
8.2655017e-10
5.7363957e-07
-2.2104466e-10
5.7359625e-07
-1.2771862e-09
5.7364514e-07
-2.3592257e-09
5.737888e-07
-3.485488e-09
5.7403418e-07
-4.6759269e-09
5.7439316e-07
-5.9528545e-09
5.7488352e-07
-7.3417711e-09
5.7553044e-07
-8.8723326e-09
5.7636865e-07
-1.0579482e-08
5.7744563e-07
-1.2504745e-08
5.788264e-07
-1.4697904e-08
5.8060074e-07
-1.7219156e-08
5.8289351e-07
-2.0139218e-08
5.8587921e-07
-2.353534e-08
5.8979892e-07
-2.754272e-08
5.9504599e-07
-3.2746757e-08
6.0328447e-07
-4.0044544e-08
6.2008792e-07
-4.3870287e-08
6.3880514e-07
-2.7747405e-08
5.7171685e-07
2.5723539e-07
2.0332694e-08
1.8769571e-07
4.39134e-08
5.2685359e-07
4.5788065e-08
6.5293506e-07
3.8343521e-08
6.429962e-07
3.2334055e-08
6.1779969e-07
2.8002492e-08
6.0485838e-07
2.4357543e-08
5.9755172e-07
2.1164162e-08
5.9222516e-07
1.8365602e-08
5.8812878e-07
1.5904667e-08
5.8496326e-07
1.3727159e-08
5.8249968e-07
1.1786338e-08
5.8056906e-07
1.0041964e-08
5.790495e-07
8.4593171e-09
5.7785241e-07
7.0083678e-09
5.7691257e-07
5.6629463e-09
5.7618178e-07
4.3999927e-09
5.7562453e-07
3.1988785e-09
5.7521496e-07
2.0407894e-09
5.7493486e-07
9.0815687e-10
5.747722e-07
-2.1587282e-10
5.7472028e-07
-1.3479449e-09
5.7477722e-07
-2.5050046e-09
5.7494586e-07
-3.7048109e-09
5.7523398e-07
-4.9664757e-09
5.7565482e-07
-6.3110459e-09
5.762281e-07
-7.76214e-09
5.7698154e-07
-9.3466561e-09
5.7795316e-07
-1.1095566e-08
5.7919455e-07
-1.3044742e-08
5.8077558e-07
-1.5235892e-08
5.8279189e-07
-1.771782e-08
5.8537544e-07
-2.0545095e-08
5.8870648e-07
-2.3773964e-08
5.9302779e-07
-2.754715e-08
5.9881917e-07
-3.2484972e-08
6.082223e-07
-3.8880449e-08
6.264834e-07
-4.0050324e-08
6.3997502e-07
-2.2902189e-08
5.5456871e-07
2.343332e-07
1.575758e-08
1.7195517e-07
3.8371085e-08
5.0426259e-07
4.3084087e-08
6.4822897e-07
3.7291096e-08
6.4878702e-07
3.1737827e-08
6.2335153e-07
2.7726624e-08
6.0886946e-07
2.4364352e-08
6.0091404e-07
2.1368692e-08
5.9522083e-07
1.8694863e-08
5.9080261e-07
1.6305367e-08
5.8735276e-07
1.4160423e-08
5.8464463e-07
1.2223838e-08
5.8250564e-07
1.046322e-08
5.8081012e-07
8.8496881e-09
5.7946594e-07
7.3575051e-09
5.7840476e-07
5.9636474e-09
5.7757564e-07
4.647362e-09
5.7694081e-07
3.3897255e-09
5.764726e-07
2.1732102e-09
5.7615138e-07
9.8126423e-10
5.7596415e-07
-2.0209715e-10
5.7590364e-07
-1.3926893e-09
5.7596781e-07
-2.6065616e-09
5.7615973e-07
-3.8604009e-09
5.7648782e-07
-5.1719464e-09
5.7696637e-07
-6.5604217e-09
5.7761657e-07
-8.0469832e-09
5.784681e-07
-9.6551846e-09
5.7956137e-07
-1.1411463e-08
5.8095083e-07
-1.3345597e-08
5.8270971e-07
-1.5491098e-08
5.849374e-07
-1.7885691e-08
5.8777003e-07
-2.0569187e-08
5.9138998e-07
-2.3584095e-08
5.960427e-07
-2.7091234e-08
6.0232631e-07
-3.1685812e-08
6.1281688e-07
-3.7013058e-08
6.3181065e-07
-3.5913185e-08
6.3887515e-07
-1.8609934e-08
5.3726546e-07
2.1572327e-07
1.2144871e-08
1.5983205e-07
3.3230333e-08
4.8320735e-07
4.0016536e-08
6.4145426e-07
3.5863472e-08
6.5293812e-07
3.0833556e-08
6.2837932e-07
2.7132887e-08
6.1256982e-07
2.4057217e-08
6.0398978e-07
2.1281547e-08
5.9799652e-07
1.8761169e-08
5.9332299e-07
1.647379e-08
5.8964014e-07
1.439185e-08
5.8672657e-07
1.2488419e-08
5.8440908e-07
1.0738389e-08
5.8256015e-07
9.1185662e-09
5.8108577e-07
7.6076092e-09
5.7991572e-07
6.1858789e-09
5.7899737e-07
4.8352424e-09
5.7829145e-07
3.5388297e-09
5.7776901e-07
2.2807636e-09
5.7740944e-07
1.0458779e-09
5.7719903e-07
-1.8057266e-10
5.7713009e-07
-1.4132013e-09
5.7720044e-07
-2.6667873e-09
5.7741332e-07
-3.9565694e-09
5.7777761e-07
-5.2985396e-09
5.7830834e-07
-6.7097345e-09
5.7902777e-07
-8.2085184e-09
5.7996689e-07
-9.8148422e-09
5.8116769e-07
-1.1550487e-08
5.8268647e-07
-1.3439269e-08
5.8459849e-07
-1.5507106e-08
5.8700523e-07
-1.7781848e-08
5.9004478e-07
-2.0290837e-08
5.9389897e-07
-2.3069525e-08
5.9882138e-07
-2.6298641e-08
6.0555543e-07
-3.0490226e-08
6.1700846e-07
-3.4683682e-08
6.360041e-07
-3.1758493e-08
6.3594996e-07
-1.4930583e-08
5.2043755e-07
2.0079268e-07
9.3557335e-09
1.5050461e-07
2.8641694e-08
4.6396111e-07
3.6830126e-08
6.3328342e-07
3.4196602e-08
6.5557044e-07
2.9729526e-08
6.3284346e-07
2.6323251e-08
6.1597549e-07
2.3521072e-08
6.0679202e-07
2.0970326e-08
6.0054731e-07
1.8617511e-08
5.9567581e-07
1.6450805e-08
5.9180685e-07
1.4452531e-08
5.8872484e-07
1.2603498e-08
5.8625811e-07
1.0884939e-08
5.8427871e-07
9.2788435e-09
5.8269186e-07
7.768052e-09
5.8142651e-07
6.3362941e-09
5.8042913e-07
4.9681608e-09
5.7965958e-07
3.649013e-09
5.7908816e-07
2.3648448e-09
5.7869361e-07
1.1021206e-09
5.7846176e-07
-1.5240688e-10
5.7838462e-07
-1.4118862e-09
5.7845992e-07
-2.6895659e-09
5.78691e-07
-3.9989859e-09
5.7908703e-07
-5.3541618e-09
5.7966352e-07
-6.7697556e-09
5.8044336e-07
-8.261221e-09
5.8145835e-07
-9.8449091e-09
5.8275138e-07
-1.1538135e-08
5.843797e-07
-1.3359213e-08
5.8641957e-07
-1.5327341e-08
5.8897336e-07
-1.74619e-08
5.9217934e-07
-1.9780303e-08
5.9621737e-07
-2.2316397e-08
6.0135748e-07
-2.5266158e-08
6.0850519e-07
-2.9014834e-08
6.2075714e-07
-3.209514e-08
6.3908441e-07
-2.7789264e-08
6.3164408e-07
-1.1857877e-08
5.0450617e-07
1.8893481e-07
7.2414282e-09
1.4330145e-07
2.4651302e-08
4.4660283e-07
3.3693729e-08
6.2426644e-07
3.2398052e-08
6.5686637e-07
2.8505902e-08
6.367318e-07
2.5375324e-08
6.1910502e-07
2.2824031e-08
6.0934335e-07
2.049177e-08
6.0287962e-07
1.8310462e-08
5.9785713e-07
1.6273993e-08
5.9384331e-07
1.4372306e-08
5.9062653e-07
1.2592445e-08
5.8803797e-07
1.0920948e-08
5.8595021e-07
9.3443141e-09
5.842685e-07
7.849179e-09
5.8292164e-07
6.4224522e-09
5.8185586e-07
5.051398e-09
5.8103064e-07
3.7236477e-09
5.8041591e-07
2.4271663e-09
5.799901e-07
1.1501842e-09
5.7973874e-07
-1.1889269e-10
5.796537e-07
-1.3915855e-09
5.7973261e-07
-2.6794557e-09
5.7997887e-07
-3.994205e-09
5.8040178e-07
-5.3477679e-09
5.8101708e-07
-6.7523828e-09
5.8184798e-07
-8.2206322e-09
5.829266e-07
-9.7654376e-09
5.8429619e-07
-1.1400007e-08
5.8601427e-07
-1.3137763e-08
5.8815733e-07
-1.4992116e-08
5.9082772e-07
-1.6975438e-08
5.9416266e-07
-1.909797e-08
5.983399e-07
-2.1396163e-08
6.0365567e-07
-2.4072579e-08
6.1118161e-07
-2.7359534e-08
6.2404409e-07
-2.9407675e-08
6.4113255e-07
-2.4125679e-08
6.2636209e-07
-9.3436492e-09
4.8972414e-07
1.7959116e-07
5.6615446e-09
1.3769362e-07
2.1235976e-08
4.3109525e-07
3.0707015e-08
6.1483083e-07
3.0545933e-08
6.5703008e-07
2.7220128e-08
6.4005291e-07
2.4347041e-08
6.2197648e-07
2.202003e-08
6.1167032e-07
1.9892654e-08
6.0500707e-07
1.7879758e-08
5.9987004e-07
1.5976574e-08
5.957465e-07
1.4178484e-08
5.9242462e-07
1.2477374e-08
5.8973908e-07
1.0864055e-08
5.8756353e-07
9.328823e-09
5.8580373e-07
7.8616398e-09
5.8438883e-07
6.4523113e-09
5.8326519e-07
5.0906211e-09
5.8239233e-07
3.7664123e-09
5.8174012e-07
2.4696245e-09
5.8128688e-07
1.1902994e-09
5.8101807e-07
-8.1437393e-11
5.8092544e-07
-1.3554009e-09
5.8100658e-07
-2.6414003e-09
5.8126487e-07
-3.9492513e-09
5.8170963e-07
-5.2887996e-09
5.8235663e-07
-6.6699138e-09
5.8322909e-07
-8.102448e-09
5.8435914e-07
-9.596163e-09
5.857899e-07
-1.1160603e-08
5.8757871e-07
-1.2804969e-08
5.898017e-07
-1.4537837e-08
5.9256059e-07
-1.6366036e-08
5.9599086e-07
-1.8295373e-08
6.0026924e-07
-2.0367491e-08
6.0572779e-07
-2.278073e-08
6.1359485e-07
-2.5604428e-08
6.2686779e-07
-2.6734542e-08
6.4226267e-07
-2.082105e-08
6.2044859e-07
-7.3178384e-09
4.7622093e-07
1.7227332e-07
4.4932648e-09
1.3327625e-07
1.8335801e-08
4.1733957e-07
2.7916058e-08
6.0529864e-07
2.8690387e-08
6.5626188e-07
2.5909383e-08
6.4282841e-07
2.3278797e-08
6.246047e-07
2.1150132e-08
6.1379883e-07
1.9210593e-08
6.0694671e-07
1.7358593e-08
6.0172206e-07
1.558723e-08
5.9751786e-07
1.3895382e-08
5.9411647e-07
1.2278539e-08
5.9135593e-07
1.0730845e-08
5.8911122e-07
9.2457009e-09
5.8728888e-07
7.8159107e-09
5.8581862e-07
6.4338467e-09
5.8464726e-07
5.0916011e-09
5.8373458e-07
3.7811025e-09
5.8305062e-07
2.494201e-09
5.8257379e-07
1.222725e-09
5.8228955e-07
-4.1487698e-11
5.8218965e-07
-1.3065304e-09
5.8227162e-07
-2.5804734e-09
5.8253882e-07
-3.8712671e-09
5.8300042e-07
-5.1867336e-09
5.836721e-07
-6.5344961e-09
5.8457686e-07
-7.9218882e-09
5.8574653e-07
-9.3558313e-09
5.8722385e-07
-1.0842682e-08
5.8906556e-07
-1.2388087e-08
5.913471e-07
-1.3996697e-08
5.941692e-07
-1.5671156e-08
5.9766532e-07
-1.7415179e-08
6.0201327e-07
-1.927637e-08
6.0758898e-07
-2.1437701e-08
6.1575618e-07
-2.3808772e-08
6.2923886e-07
-2.41476e-08
6.426015e-07
-1.788321e-08
6.1418421e-07
-5.7030544e-09
4.6404077e-07
1.6657027e-07
3.633447e-09
1.2974668e-07
1.5876929e-08
4.0520923e-07
2.5332835e-08
5.9590677e-07
2.6860224e-08
6.5474554e-07
2.4595113e-08
6.4508738e-07
2.2196429e-08
6.2700011e-07
2.0243928e-08
6.1575097e-07
1.8474732e-08
6.0871602e-07
1.6773938e-08
6.0342289e-07
1.5130149e-08
5.9916166e-07
1.3544152e-08
5.9570247e-07
1.2014036e-08
5.9288604e-07
1.0536486e-08
5.9058877e-07
9.1073966e-09
5.8871797e-07
7.7219539e-09
5.8720406e-07
6.3747623e-09
5.8599445e-07
5.0599846e-09
5.8504936e-07
3.7714714e-09
5.8433914e-07
2.502872e-09
5.8384239e-07
1.2477287e-09
5.8354469e-07
-4.4231132e-13
5.8343782e-07
-1.2481449e-09
5.8351932e-07
-2.5016854e-09
5.8379236e-07
-3.7672487e-09
5.8426599e-07
-5.0507516e-09
5.849556e-07
-6.3577415e-09
5.8588385e-07
-7.6932742e-09
5.8708207e-07
-9.0617701e-09
5.8859234e-07
-1.0466859e-08
5.9047065e-07
-1.1911246e-08
5.9279149e-07
-1.3396439e-08
5.9565439e-07
-1.4922038e-08
5.9919092e-07
-1.6491396e-08
6.0358263e-07
-1.8157276e-08
6.0925487e-07
-2.0077298e-08
6.176762e-07
-2.201434e-08
6.3117591e-07
-2.1687754e-08
6.4227491e-07
-1.5293093e-08
6.0778954e-07
-4.4233603e-09
4.5317104e-07
1.6214691e-07
2.9978156e-09
1.2688366e-07
1.3784182e-08
3.9456993e-07
2.2949233e-08
5.8682595e-07
2.5069799e-08
6.5264264e-07
2.3288287e-08
6.4686238e-07
2.1115251e-08
6.2916882e-07
1.9321844e-08
6.1754373e-07
1.7706969e-08
6.1033101e-07
1.6147152e-08
6.0498275e-07
1.4625261e-08
6.0068355e-07
1.3142783e-08
5.9718495e-07
1.1699653e-08
5.9432917e-07
1.02945e-08
5.9199393e-07
8.9252065e-09
5.9008726e-07
7.5889435e-09
5.8854033e-07
6.2822344e-09
5.8730116e-07
5.0010736e-09
5.8633052e-07
3.7410515e-09
5.8559916e-07
2.497477e-09
5.8508596e-07
1.2654889e-09
5.8477668e-07
4.0161895e-11
5.8466315e-07
-1.1833787e-09
5.8474287e-07
-2.4098994e-09
5.8501888e-07
-3.6439092e-09
5.855e-07
-4.8895594e-09
5.8620125e-07
-6.150514e-09
5.871448e-07
-7.4298031e-09
5.8836136e-07
-8.7296728e-09
5.8989222e-07
-1.005144e-08
5.9179242e-07
-1.1395381e-08
5.9413543e-07
-1.2760488e-08
5.970195e-07
-1.4144208e-08
6.0057464e-07
-1.5550606e-08
6.0498903e-07
-1.7035658e-08
6.1073992e-07
-1.8723727e-08
6.1936427e-07
-2.0250191e-08
6.3270237e-07
-1.9375248e-08
6.4139997e-07
-1.3018015e-08
6.0143231e-07
-3.4096487e-09
4.4356267e-07
1.5873726e-07
2.5195965e-09
1.245296e-07
1.1987917e-08
3.8529116e-07
2.0746909e-08
5.7817652e-07
2.3324486e-08
6.5009144e-07
2.1993642e-08
6.4818672e-07
2.0043756e-08
6.3111316e-07
1.8397695e-08
6.1918875e-07
1.6923553e-08
6.1180525e-07
1.5494935e-08
6.0641144e-07
1.4088728e-08
6.0208977e-07
1.2706285e-08
5.9856739e-07
1.1348872e-08
5.9568659e-07
1.0016643e-08
5.9332616e-07
8.7090962e-09
5.9139481e-07
7.425058e-09
5.8982437e-07
6.1627002e-09
5.8856352e-07
4.9196246e-09
5.8757359e-07
3.6929785e-09
5.8682581e-07
2.4795791e-09
5.8629936e-07
1.2760381e-09
5.8598022e-07
7.8884787e-11
5.8586031e-07
-1.1153147e-09
5.8593707e-07
-2.3098352e-09
5.862134e-07
-3.507662e-09
5.8669783e-07
-4.7113526e-09
5.8740494e-07
-5.9228892e-09
5.8835634e-07
-7.1435227e-09
5.8958199e-07
-8.3736221e-09
5.9112232e-07
-9.6125431e-09
5.9303134e-07
-1.0858538e-08
5.9538143e-07
-1.210856e-08
5.9826952e-07
-1.335854e-08
6.0182462e-07
-1.4613729e-08
6.0624422e-07
-1.5930655e-08
6.1205685e-07
-1.7394958e-08
6.2082858e-07
-1.853693e-08
6.3384435e-07
-1.7217826e-08
6.4008087e-07
-1.1020944e-08
5.9523543e-07
-2.6030742e-09
4.3514481e-07
1.5613419e-07
2.1478453e-09
1.2257593e-07
1.0427814e-08
3.7725235e-07
1.870434e-08
5.7004095e-07
2.1625161e-08
6.4720816e-07
2.0712947e-08
6.4909296e-07
1.8986576e-08
6.3283266e-07
1.7480973e-08
6.2069281e-07
1.613674e-08
6.1314955e-07
1.4830484e-08
6.0771779e-07
1.3533714e-08
6.0338655e-07
1.2247166e-08
5.9985394e-07
1.0973138e-08
5.9696062e-07
9.713049e-09
5.9458625e-07
8.4677532e-09
5.9264011e-07
7.2374842e-09
5.9105464e-07
6.0218359e-09
5.8977917e-07
4.8198183e-09
5.8877561e-07
3.629961e-09
5.8801567e-07
2.450436e-09
5.8747889e-07
1.2791876e-09
5.8715147e-07
1.1406577e-10
5.8702543e-07
-1.0470385e-09
5.8709817e-07
-2.2060588e-09
5.8737242e-07
-3.3646038e-09
5.8785637e-07
-4.5238084e-09
5.8856415e-07
-5.684173e-09
5.8951671e-07
-6.8454007e-09
5.9074322e-07
-8.0062466e-09
5.9228316e-07
-9.1643973e-09
5.9418949e-07
-1.031639e-08
5.9653342e-07
-1.1457476e-08
5.9941061e-07
-1.2582487e-08
6.0294963e-07
-1.3697793e-08
6.0735952e-07
-1.4857508e-08
6.1321656e-07
-1.6105544e-08
6.2207662e-07
-1.689046e-08
6.3462926e-07
-1.5217411e-08
6.3840782e-07
-9.2670536e-09
5.8928508e-07
-1.9568474e-09
4.278346e-07
1.5417734e-07
1.8453782e-09
1.2095077e-07
9.054669e-09
3.7034485e-07
1.6801818e-08
5.6247294e-07
1.9972023e-08
6.4408952e-07
1.9447839e-08
6.496124e-07
1.7947082e-08
6.3432516e-07
1.6579016e-08
6.2205872e-07
1.5356508e-08
6.1437205e-07
1.416485e-08
6.0890955e-07
1.2971448e-08
6.0457997e-07
1.1776271e-08
6.0104911e-07
1.0582519e-08
5.9815437e-07
9.3927583e-09
5.9577601e-07
8.2090329e-09
5.9382383e-07
7.0328038e-09
5.9223087e-07
5.8649052e-09
5.9094707e-07
4.7055824e-09
5.8993494e-07
3.5545865e-09
5.8916666e-07
2.4112953e-09
5.8862218e-07
1.2748462e-09
5.8828792e-07
1.4427569e-10
5.88156e-07
-9.8133767e-10
5.8822379e-07
-2.1027271e-09
5.8849381e-07
-3.2202811e-09
5.8897393e-07
-4.3338838e-09
5.8967775e-07
-5.4427467e-09
5.9062557e-07
-6.5452406e-09
5.9184571e-07
-7.6387411e-09
5.9337666e-07
-8.7195086e-09
5.9527026e-07
-9.7826012e-09
5.9759652e-07
-1.0821802e-08
6.0044981e-07
-1.1831062e-08
6.0395889e-07
-1.2817399e-08
6.0834586e-07
-1.3829556e-08
6.1422872e-07
-1.4868969e-08
6.2311603e-07
-1.5325181e-08
6.3508548e-07
-1.3375208e-08
6.3645785e-07
-7.7280611e-09
5.8363793e-07
-1.436534e-09
4.2154307e-07
1.5274081e-07
1.5865477e-09
1.196079e-07
7.8309512e-09
3.6447098e-07
1.5024739e-08
5.5550369e-07
1.8367715e-08
6.4081535e-07
1.8202377e-08
6.4977512e-07
1.6929806e-08
6.3558813e-07
1.5699119e-08
6.2328654e-07
1.4592289e-08
6.1547876e-07
1.3508379e-08
6.0999358e-07
1.2412435e-08
6.0567595e-07
1.1303806e-08
6.0215775e-07
1.0186601e-08
5.9927158e-07
9.0645097e-09
5.968981e-07
7.9406753e-09
5.9494767e-07
6.817658e-09
5.9335389e-07
5.697387e-09
5.9206734e-07
4.5811945e-09
5.9105113e-07
3.469908e-09
5.9027795e-07
2.363972e-09
5.8972812e-07
1.2635818e-09
5.8938831e-07
1.6882832e-10
5.8925076e-07
-9.2015759e-10
5.8931277e-07
-2.0030501e-09
5.8957671e-07
-3.0791701e-09
5.9005005e-07
-4.1473187e-09
5.907459e-07
-5.2056041e-09
5.9168386e-07
-6.2512669e-09
5.9289138e-07
-7.2805187e-09
5.9440592e-07
-8.2884086e-09
5.9627815e-07
-9.2687134e-09
5.9857682e-07
-1.0213923e-08
6.0139502e-07
-1.1117195e-08
6.0486217e-07
-1.1985464e-08
6.0921413e-07
-1.2859404e-08
6.1510266e-07
-1.3699097e-08
6.2395572e-07
-1.3856006e-08
6.3524239e-07
-1.1694696e-08
6.3429654e-07
-6.3843446e-09
5.7832758e-07
-1.0187772e-09
4.1617751e-07
1.5172203e-07
1.3551248e-09
1.1851711e-07
6.7306974e-09
3.5954085e-07
1.3365452e-08
5.4914592e-07
1.6819419e-08
6.3745087e-07
1.6984852e-08
6.496103e-07
1.5942199e-08
6.3661996e-07
1.4850048e-08
6.2437503e-07
1.3854144e-08
6.1647439e-07
1.2871607e-08
6.1097625e-07
1.1867166e-08
6.0668042e-07
1.0839914e-08
6.03185e-07
9.794963e-09
6.0031653e-07
8.7371461e-09
5.9795592e-07
7.6706618e-09
5.9601415e-07
6.5990725e-09
5.9442548e-07
5.5252828e-09
5.9314113e-07
4.4515831e-09
5.9212483e-07
3.3797478e-09
5.9134979e-07
2.31116e-09
5.9079671e-07
1.2469484e-09
5.9045253e-07
1.8813226e-10
5.9030957e-07
-8.6423178e-10
5.9036514e-07
-1.908894e-09
5.9062137e-07
-2.9442525e-09
5.9108541e-07
-3.9681842e-09
5.9176984e-07
-4.9778701e-09
5.9269355e-07
-5.9696143e-09
5.9388312e-07
-6.9386704e-09
5.9537497e-07
-7.8790881e-09
5.9721857e-07
-8.7835627e-09
5.994813e-07
-9.6434668e-09
6.0225493e-07
-1.0451215e-08
6.0566992e-07
-1.1212851e-08
6.0997577e-07
-1.1958714e-08
6.1584853e-07
-1.2610021e-08
6.2460703e-07
-1.2498541e-08
6.3513091e-07
-1.0182193e-08
6.319802e-07
-5.2246245e-09
5.7337001e-07
-6.8955758e-10
4.1164244e-07
1.5103248e-07
1.1423224e-09
1.1765623e-07
5.7388601e-09
3.5546796e-07
1.182377e-08
5.4339658e-07
1.5339468e-08
6.3404875e-07
1.5808066e-08
6.4914674e-07
1.4994782e-08
6.3742141e-07
1.4041948e-08
6.2532335e-07
1.3152392e-08
6.1736347e-07
1.226471e-08
6.1186405e-07
1.1345447e-08
6.0759974e-07
1.0393927e-08
6.0413653e-07
9.4163703e-09
6.0129408e-07
8.4187763e-09
5.9895351e-07
7.4063569e-09
5.9702657e-07
6.3835927e-09
5.9544824e-07
5.3542574e-09
5.9417047e-07
4.3214852e-09
5.9315761e-07
3.2878816e-09
5.9238339e-07
2.2556545e-09
5.9182894e-07
1.2267531e-09
5.9148143e-07
2.0301266e-10
5.9133332e-07
-8.1369949e-10
5.9138185e-07
-1.8213312e-09
5.9162901e-07
-2.8174882e-09
5.9208157e-07
-3.7992684e-09
5.9275162e-07
-4.7630873e-09
5.9365737e-07
-5.7044945e-09
5.9482453e-07
-6.6179894e-09
5.9628847e-07
-7.496843e-09
5.9809743e-07
-8.3329044e-09
6.0031736e-07
-9.116664e-09
6.0303869e-07
-9.8399045e-09
6.0639316e-07
-1.0507096e-08
6.1064296e-07
-1.1136605e-08
6.1647804e-07
-1.1614226e-08
6.2508465e-07
-1.1267444e-08
6.3478413e-07
-8.8454611e-09
6.2955821e-07
-4.2438892e-09
5.6876844e-07
-4.4004873e-10
4.078386e-07
1.5059243e-07
9.4495759e-10
1.1700524e-07
4.8501112e-09
3.5216413e-07
1.0406327e-08
5.3823893e-07
1.3944293e-08
6.3065148e-07
1.4687559e-08
6.4841408e-07
1.4099054e-08
6.3799718e-07
1.3284131e-08
6.2613279e-07
1.2495327e-08
6.1815154e-07
1.1695207e-08
6.1266429e-07
1.0854127e-08
6.0844087e-07
9.9721139e-09
6.0501855e-07
9.0565366e-09
6.0220966e-07
8.1145325e-09
5.9989552e-07
7.1522626e-09
5.9798885e-07
6.1750354e-09
5.9642547e-07
5.1873923e-09
5.9515811e-07
4.1932077e-09
5.9415179e-07
3.1958168e-09
5.9338078e-07
2.1981527e-09
5.928266e-07
1.2028886e-09
5.9247669e-07
2.1257949e-10
5.9232363e-07
-7.7019417e-10
5.9236463e-07
-1.7426793e-09
5.9260149e-07
-2.7017987e-09
5.9304069e-07
-3.6439916e-09
5.9369381e-07
-4.5650454e-09
5.9457842e-07
-5.459915e-09
5.957194e-07
-6.3225339e-09
5.9715109e-07
-7.1456179e-09
5.9892051e-07
-7.9204412e-09
6.0109219e-07
-8.6369306e-09
6.0375518e-07
-9.2864728e-09
6.070427e-07
-9.8716108e-09
6.112281e-07
-1.0398006e-08
6.1700443e-07
-1.0720312e-08
6.2540696e-07
-1.017415e-08
6.3423797e-07
-7.6914235e-09
6.2707549e-07
-3.4400321e-09
5.6451705e-07
-2.6324711e-10
4.0466182e-07
1.5032918e-07
7.6402904e-10
1.1654218e-07
4.0672148e-09
3.4953426e-07
9.1253576e-09
5.3364404e-07
1.2652418e-08
6.2729443e-07
1.3638572e-08
6.4744504e-07
1.3264124e-08
6.383581e-07
1.2581869e-08
6.2680848e-07
1.1886335e-08
6.1884603e-07
1.1165368e-08
6.1338535e-07
1.0394714e-08
6.092116e-07
9.5754141e-09
6.0583786e-07
8.7159051e-09
6.0306917e-07
7.8243547e-09
6.0078707e-07
6.9077714e-09
5.9890543e-07
5.9721913e-09
5.9736105e-07
5.022827e-09
5.9610748e-07
4.0642026e-09
5.9511042e-07
3.1002962e-09
5.9434469e-07
2.134685e-09
5.9379221e-07
1.1706869e-09
5.9344069e-07
2.1150045e-10
5.9328281e-07
-7.3965677e-10
5.9331579e-07
-1.6794076e-09
5.9354124e-07
-2.6040713e-09
5.9396535e-07
-3.5095145e-09
5.9459926e-07
-4.3909928e-09
5.954599e-07
-5.2429815e-09
5.9657139e-07
-6.0589931e-09
5.979671e-07
-6.8313772e-09
5.996929e-07
-7.5510956e-09
6.0181191e-07
-8.2078718e-09
6.0441196e-07
-8.7930559e-09
6.0762789e-07
-9.3073602e-09
6.1174241e-07
-9.7442512e-09
6.1744133e-07
-9.9326265e-09
6.2559534e-07
-9.2259287e-09
6.3353127e-07
-6.7243276e-09
6.2457389e-07
-2.8100162e-09
5.6060274e-07
-1.5226584e-10
4.0200407e-07
1.5017692e-07
6.0397664e-10
1.1624028e-07
3.3989757e-09
3.4747241e-07
7.9975822e-09
5.2957157e-07
1.1483189e-08
6.2400923e-07
1.2674266e-08
6.4627838e-07
1.2495021e-08
6.3852316e-07
1.193537e-08
6.2736042e-07
1.1323577e-08
6.1945641e-07
1.067243e-08
6.1403656e-07
9.9639017e-09
6.099202e-07
9.2001026e-09
6.0660167e-07
8.3903265e-09
6.0387895e-07
7.5435978e-09
6.016338e-07
6.6676494e-09
5.9978138e-07
5.7691485e-09
5.9825955e-07
4.8538977e-09
5.9702273e-07
3.9269995e-09
5.9603732e-07
2.99301e-09
5.9527868e-07
2.0560879e-09
5.9472914e-07
1.1201367e-09
5.9437665e-07
1.8894175e-10
5.9421401e-07
-7.3369575e-10
5.9423842e-07
-1.6438246e-09
5.9445137e-07
-2.5372068e-09
5.9485874e-07
-3.4091799e-09
5.9547123e-07
-4.2545098e-09
5.9630523e-07
-5.0672393e-09
5.9738412e-07
-5.8405236e-09
5.9874039e-07
-6.5664451e-09
6.0041882e-07
-7.2358236e-09
6.0248129e-07
-7.8384704e-09
6.0501461e-07
-8.3660834e-09
6.081555e-07
-8.8180727e-09
6.121944e-07
-9.1776543e-09
6.1780091e-07
-9.2547098e-09
6.256724e-07
-8.4277147e-09
6.3270428e-07
-5.9450708e-09
6.2209125e-07
-2.345941e-09
5.5700361e-07
-9.7997649e-11
3.9975613e-07
1.5007893e-07
4.7186144e-10
1.1606628e-07
2.8572977e-09
3.4586125e-07
7.0431708e-09
5.2596891e-07
1.0457726e-08
6.2082521e-07
1.1808042e-08
6.4496066e-07
1.1796228e-08
6.3852066e-07
1.1344423e-08
6.2780351e-07
1.0805461e-08
6.199936e-07
1.0214533e-08
6.146275e-07
9.5596792e-09
6.1057514e-07
8.8438788e-09