/*--------------------------------*- C++ -*----------------------------------*\
  =========                 |
  \\      /  F ield         | OpenFOAM: The Open Source CFD Toolbox
   \\    /   O peration     | Website:  https://openfoam.org
    \\  /    A nd           | Version:  10
     \\/     M anipulation  |
\*---------------------------------------------------------------------------*/
FoamFile
{
    format      ascii;
    class       surfaceScalarField;
    location    "0.07";
    object      phi_0;
}
// * * * * * * * * * * * * * * * * * * * * * * * * * * * * * * * * * * * * * //

dimensions      [1 0 -1 0 0 0 0];

internalField   nonuniform List<scalar> 
7860
(
3.9866467e-08
5.2884165e-07
1.2170492e-08
5.9640369e-07
7.4053183e-09
5.7347292e-07
5.4738658e-09
5.7063916e-07
4.0887288e-09
5.7009281e-07
3.1750462e-09
5.6962133e-07
2.5336635e-09
5.6934901e-07
2.0548637e-09
5.6918642e-07
1.6862552e-09
5.6907621e-07
1.3952512e-09
5.689986e-07
1.1600114e-09
5.6894283e-07
9.6573608e-10
5.6890186e-07
8.0205052e-10
5.6887126e-07
6.6143791e-10
5.6884818e-07
5.3830247e-10
5.688307e-07
4.2836401e-10
5.688175e-07
3.2825196e-10
5.6880768e-07
2.3522407e-10
5.6880059e-07
1.4696369e-10
5.6879582e-07
6.1426638e-11
5.687931e-07
-2.3282378e-11
5.6879227e-07
-1.09017e-10
5.6879329e-07
-1.9769874e-10
5.6879624e-07
-2.9142094e-10
5.6880128e-07
-3.9258268e-10
5.6880872e-07
-5.0405286e-10
5.6881903e-07
-6.2939222e-10
5.6883291e-07
-7.7316746e-10
5.6885135e-07
-9.4141355e-10
5.6887582e-07
-1.1423427e-09
5.6890851e-07
-1.3875196e-09
5.6895276e-07
-1.6938373e-09
5.6901391e-07
-2.0863881e-09
5.6910015e-07
-2.6051862e-09
5.6922641e-07
-3.3327508e-09
5.694352e-07
-4.4252388e-09
5.6980014e-07
-5.9749252e-09
5.7025736e-07
-9.4764133e-09
5.7220919e-07
-2.9535962e-08
5.887673e-07
5.3917196e-07
5.9602383e-08
4.6923983e-07
3.6584274e-08
6.1942158e-07
2.2550675e-08
5.8750644e-07
1.6172386e-08
5.7701745e-07
1.2207704e-08
5.7405749e-07
9.5239718e-09
5.7230506e-07
7.597232e-09
5.7127576e-07
6.159226e-09
5.7062442e-07
5.0541197e-09
5.7018132e-07
4.1816646e-09
5.6987106e-07
3.4763913e-09
5.696481e-07
2.8940172e-09
5.6948423e-07
2.4034005e-09
5.6936188e-07
1.9819848e-09
5.692696e-07
1.6129862e-09
5.691997e-07
1.283568e-09
5.6914692e-07
9.8362187e-10
5.6910762e-07
7.0492434e-10
5.6907929e-07
4.4052922e-10
5.6906022e-07
1.8430709e-10
5.6904932e-07
-6.9425595e-11
5.69046e-07
-3.2623008e-10
5.690501e-07
-5.918599e-10
5.6906187e-07
-8.7259435e-10
5.6908202e-07
-1.1756279e-09
5.6911176e-07
-1.509564e-09
5.6915297e-07
-1.8850813e-09
5.6920843e-07
-2.3158764e-09
5.6928214e-07
-2.8200575e-09
5.6938e-07
-3.4222735e-09
5.6951073e-07
-4.1571399e-09
5.6968763e-07
-5.0752691e-09
5.6993204e-07
-6.2536149e-09
5.702785e-07
-7.8113509e-09
5.7078415e-07
-9.9521998e-09
5.7157604e-07
-1.3083243e-08
5.7293118e-07
-1.8020258e-08
5.7519438e-07
-2.8062658e-08
5.8225159e-07
-4.5702735e-08
6.0640738e-07
4.9346922e-07
5.9901336e-08
4.0933989e-07
5.0334765e-08
6.2898808e-07
3.3227387e-08
6.0461352e-07
2.4673426e-08
5.8557139e-07
1.917701e-08
5.7955392e-07
1.5186654e-08
5.7629542e-07
1.2219884e-08
5.7424253e-07
9.9668599e-09
5.7287745e-07
8.2138342e-09
5.7193435e-07
6.8174092e-09
5.7126748e-07
5.68128e-09
5.7078423e-07
4.738489e-09
5.7042702e-07
3.9411096e-09
5.7015926e-07
3.2540199e-09
5.6995669e-07
2.6508406e-09
5.6980288e-07
2.1112414e-09
5.6968652e-07
1.619113e-09
5.6959975e-07
1.1612832e-09
5.6953712e-07
7.265799e-10
5.6949492e-07
3.0511507e-10
5.6947079e-07
-1.1229649e-10
5.6946341e-07
-5.3464568e-10
5.6947245e-07
-9.7122629e-10
5.6949845e-07
-1.4321593e-09
5.6954295e-07
-1.9290003e-09
5.696086e-07
-2.4755038e-09
5.6969948e-07
-3.0886418e-09
5.6982156e-07
-3.7900212e-09
5.6998352e-07
-4.6079434e-09
5.7019793e-07
-5.5804792e-09
5.7048326e-07
-6.7601423e-09
5.708673e-07
-8.221542e-09
5.7139344e-07
-1.0074604e-08
5.7213156e-07
-1.2481924e-08
5.7319147e-07
-1.567759e-08
5.7477171e-07
-2.0024924e-08
5.7727852e-07
-2.6499307e-08
5.8166876e-07
-3.8733726e-08
5.9448601e-07
-4.8004026e-08
6.1567768e-07
4.454652e-07
5.4739042e-08
3.5460349e-07
5.7217952e-08
6.265098e-07
4.024263e-08
6.2158827e-07
3.056089e-08
5.9525301e-07
2.4424438e-08
5.8569038e-07
1.9736546e-08
5.8098332e-07
1.6103871e-08
5.778752e-07
1.3267073e-08
5.7571425e-07
1.1013529e-08
5.7418789e-07
9.1911674e-09
5.7308984e-07
7.6917896e-09
5.7228361e-07
6.436637e-09
5.7168218e-07
5.3676378e-09
5.7122826e-07
4.4412896e-09
5.7088304e-07
3.6243385e-09
5.7061984e-07
2.8907933e-09
5.7042007e-07
2.2198239e-09
5.7027072e-07
1.5942384e-09
5.7016271e-07
9.9934744e-10
5.7008981e-07
4.2207941e-10
5.7004805e-07
-1.4974713e-10
5.7003524e-07
-7.2806844e-10
5.7005077e-07
-1.3252017e-09
5.7009559e-07
-1.9545053e-09
5.7017226e-07
-2.6311365e-09
5.7028523e-07
-3.372986e-09
5.7044133e-07
-4.2018943e-09
5.7065047e-07
-5.145295e-09
5.7092692e-07
-6.2385074e-09
5.7129114e-07
-7.5280125e-09
5.7177277e-07
-9.0760409e-09
5.7241532e-07
-1.0966978e-08
5.7328438e-07
-1.3317787e-08
5.7448237e-07
-1.6290774e-08
5.7616446e-07
-2.0085198e-08
5.7856614e-07
-2.4968832e-08
5.8216215e-07
-3.219131e-08
5.8889124e-07
-4.4765189e-08
6.0705989e-07
-4.6320878e-08
6.1723337e-07
3.9914432e-07
4.7798762e-08
3.06809e-07
5.9753972e-08
6.1455664e-07
4.5075005e-08
6.3626647e-07
3.4569688e-08
6.0575797e-07
2.8097882e-08
5.9216219e-07
2.3122951e-08
5.8595826e-07
1.9147852e-08
5.818503e-07
1.5956668e-08
5.7890543e-07
1.3364189e-08
5.7678037e-07
1.1230557e-08
5.7522348e-07
9.450245e-09
5.7406393e-07
7.9428692e-09
5.7318956e-07
6.6471204e-09
5.7252401e-07
5.5157466e-09
5.7201442e-07
4.5117735e-09
5.7162381e-07
3.6057496e-09
5.7132609e-07
2.7737001e-09
5.7110277e-07
1.9955812e-09
5.7094083e-07
1.2540909e-09
5.708313e-07
5.337169e-10
5.7076843e-07
-1.8006194e-10
5.7074902e-07
-9.0149197e-10
5.707722e-07
-1.6452413e-09
5.7083934e-07
-2.4271309e-09
5.7095415e-07
-3.2649581e-09
5.7112306e-07
-4.1794907e-09
5.7135586e-07
-5.195718e-09
5.716667e-07
-6.3444736e-09
5.7207568e-07
-7.6645775e-09
5.7261124e-07
-9.2057283e-09
5.7331392e-07
-1.1032305e-08
5.742419e-07
-1.3227816e-08
5.7547989e-07
-1.5901415e-08
5.7715597e-07
-1.9197897e-08
5.7946094e-07
-2.3289511e-08
5.8265775e-07
-2.8478001e-08
5.8735064e-07
-3.632129e-08
5.9673453e-07
-4.7987953e-08
6.1872656e-07
-4.2900533e-08
6.1214595e-07
3.5624379e-07
4.0145258e-08
2.6667001e-07
5.8579644e-08
5.9612662e-07
4.7886336e-08
6.4695914e-07
3.7177312e-08
6.1646626e-07
3.0530447e-08
5.9880899e-07
2.5504815e-08
5.9098392e-07
2.1405622e-08
5.859495e-07
1.8037049e-08
5.8227401e-07
1.5245474e-08
5.7957195e-07
1.2908289e-08
5.7756066e-07
1.0929076e-08
5.7604314e-07
9.2321296e-09
5.748865e-07
7.757967e-09
5.7399817e-07
6.4593991e-09
5.7331299e-07
5.2985664e-09
5.7278464e-07
4.2446627e-09
5.7238e-07
3.2721476e-09
5.7207529e-07
2.3593402e-09
5.7185363e-07
1.4872932e-09
5.7170335e-07
6.3886551e-10
5.7161686e-07
-2.020761e-10
5.7158996e-07
-1.0513819e-09
5.7162151e-07
-1.9253292e-09
5.7171329e-07
-2.8413611e-09
5.7187018e-07
-3.8189022e-09
5.721006e-07
-4.8803164e-09
5.7241728e-07
-6.0520724e-09
5.7283846e-07
-7.3661947e-09
5.733898e-07
-8.8620799e-09
5.7410713e-07
-1.0588825e-08
5.7504067e-07
-1.2608288e-08
5.7626137e-07
-1.4998542e-08
5.7787015e-07
-1.7857976e-08
5.8001541e-07
-2.1312244e-08
5.8291521e-07
-2.5519267e-08
5.8686478e-07
-3.0882686e-08
5.9271406e-07
-3.9011932e-08
6.0486377e-07
-4.8541169e-08
6.282558e-07
-3.8219998e-08
6.0182478e-07
3.1802379e-07
3.26503e-08
2.3402832e-07
5.4740688e-08
5.7404388e-07
4.8652031e-08
6.5304782e-07
3.8525496e-08
6.2659157e-07
3.1920197e-08
6.0541407e-07
2.7023695e-08
5.9588045e-07
2.2964231e-08
5.9000897e-07
1.9554478e-08
5.8568376e-07
1.667658e-08
5.8244985e-07
1.4227605e-08
5.8000964e-07
1.2123206e-08
5.7814754e-07
1.0295661e-08
5.7671405e-07
8.6903355e-09
5.756035e-07
7.2627152e-09
5.7474061e-07
5.9762133e-09
5.7407115e-07
4.8004008e-09
5.7355581e-07
3.7095552e-09
5.7316614e-07
2.6814748e-09
5.7288171e-07
1.696493e-09
5.7268834e-07
7.3663933e-10
5.7257671e-07
-2.1510211e-10
5.7254171e-07
-1.1754757e-09
5.7258188e-07
-2.161629e-09
5.7269944e-07
-3.1918078e-09
5.7290036e-07
-4.2861092e-09
5.7319491e-07
-5.4673428e-09
5.7359851e-07
-6.7620437e-09
5.7413316e-07
-8.2016927e-09
5.7482945e-07
-9.8241881e-09
5.7572963e-07
-1.1675645e-08
5.7689213e-07
-1.3812816e-08
5.7839854e-07
-1.6306017e-08
5.8036335e-07
-1.9241233e-08
5.8295063e-07
-2.2721073e-08
5.8639505e-07
-2.6888477e-08
5.9103218e-07
-3.2249056e-08
5.9807464e-07
-4.0166382e-08
6.127811e-07
-4.6888034e-08
6.3497745e-07
-3.2954151e-08
5.878909e-07
2.8506964e-07
2.5956189e-08
2.0808347e-07
4.9524858e-08
5.504872e-07
4.7759216e-08
6.5481493e-07
3.8807055e-08
6.35542e-07
3.2436701e-08
6.1178393e-07
2.779587e-08
6.0052131e-07
2.3904698e-08
5.9390017e-07
2.0564173e-08
5.8902429e-07
1.7691852e-08
5.8532217e-07
1.520758e-08
5.8249391e-07
1.3041581e-08
5.8031354e-07
1.1136147e-08
5.7861948e-07
9.4433268e-09
5.7729632e-07
7.9229822e-09
5.7626095e-07
6.541311e-09
5.7545282e-07
5.2695638e-09
5.7482756e-07
4.0829434e-09
5.7435276e-07
2.9596716e-09
5.7400499e-07
1.8801805e-09
5.7376783e-07
8.2639996e-10
5.7363049e-07
-2.1888938e-10
5.73587e-07
-1.2726621e-09
5.7363566e-07
-2.3522504e-09
5.7377903e-07
-3.4759603e-09
5.7402407e-07
-4.6637272e-09
5.7438267e-07
-5.9378464e-09
5.7487263e-07
-7.323804e-09
5.7551912e-07
-8.8512456e-09
5.763569e-07
-1.055511e-08
5.7743349e-07
-1.2476928e-08
5.7881394e-07
-1.4666498e-08
5.8058811e-07
-1.7184051e-08
5.828809e-07
-2.0100363e-08
5.8586694e-07
-2.3492802e-08
5.8978749e-07
-2.7496577e-08
5.9503595e-07
-3.2696016e-08
6.0327408e-07
-3.99877e-08
6.2007279e-07
-4.3816712e-08
6.3880646e-07
-2.7720235e-08
5.7179442e-07
2.5734941e-07
2.03179e-08
1.8778012e-07
4.3872032e-08
5.2695056e-07
4.5736506e-08
6.5295431e-07
3.8296172e-08
6.4298018e-07
3.2291533e-08
6.1778763e-07
2.7963042e-08
6.0484978e-07
2.4320939e-08
5.9754231e-07
2.1130543e-08
5.9221469e-07
1.8335013e-08
5.881177e-07
1.5877089e-08
5.8495184e-07
1.3702543e-08
5.8248809e-07
1.1764619e-08
5.8055741e-07
1.002307e-08
5.7903787e-07
8.4431769e-09
5.7784085e-07
6.9949181e-09
5.7690108e-07
5.6521359e-09
5.7617034e-07
4.3917864e-09
5.7561311e-07
3.1932604e-09
5.7520352e-07
2.0377641e-09
5.7492332e-07
9.0775187e-10
5.7476051e-07
-2.1360586e-10
5.7470836e-07
-1.3429293e-09
5.7476498e-07
-2.4971375e-09
5.7493324e-07
-3.6939632e-09
5.752209e-07
-4.9524918e-09
5.756412e-07
-6.2937447e-09
5.7621388e-07
-7.7413165e-09
5.7696669e-07
-9.3220854e-09
5.7793767e-07
-1.1067009e-08
5.7917842e-07
-1.3011952e-08
5.8075889e-07
-1.519863e-08
5.8277479e-07
-1.7675872e-08
5.8535815e-07
-2.0498309e-08
5.8868938e-07
-2.3722306e-08
5.9301149e-07
-2.7490425e-08
5.9880408e-07
-3.2421486e-08
6.0820514e-07
-3.8809302e-08
6.264606e-07
-3.998556e-08
6.3998272e-07
-2.2871189e-08
5.5468005e-07
2.3447822e-07
1.5741572e-08
1.720571e-07
3.8323038e-08
5.0439339e-07
4.3021294e-08
6.4826348e-07
3.7232431e-08
6.487667e-07
3.1685783e-08
6.2333275e-07
2.7678969e-08
6.0885646e-07
2.4320469e-08
6.0090087e-07
2.1328631e-08
5.9520654e-07
1.8658616e-08
5.9078772e-07
1.6272847e-08
5.8733761e-07
1.4131514e-08
5.8462942e-07
1.2198412e-08
5.8249051e-07
1.0441152e-08
5.8079513e-07
8.8308583e-09
5.7945114e-07
7.3418108e-09
5.7839013e-07
5.9510057e-09
5.7756115e-07
4.6377139e-09
5.769264e-07
3.3830384e-09
5.7645819e-07
2.1694802e-09
5.7613688e-07
9.8051748e-10
5.7594947e-07
-1.9980266e-10
5.7588868e-07
-1.3872625e-09
5.7595244e-07
-2.597877e-09
5.7614386e-07
-3.8482974e-09
5.7647132e-07
-5.1562265e-09
5.7694913e-07
-6.5408511e-09
5.7759851e-07
-8.0232918e-09
5.7844913e-07
-9.6270684e-09
5.7954144e-07
-1.1378589e-08
5.8092994e-07
-1.330761e-08
5.8268791e-07
-1.5447635e-08
5.8491481e-07
-1.7836398e-08
5.8774691e-07
-2.0513768e-08
5.9136675e-07
-2.3522353e-08
5.9602008e-07
-2.7022553e-08
6.0230428e-07
-3.160775e-08
6.1279034e-07
-3.6925927e-08
6.3177878e-07
-3.5836367e-08
6.3889316e-07
-1.8574994e-08
5.3741868e-07
2.1590323e-07
1.2127631e-08
1.5995325e-07
3.3175065e-08
4.8337864e-07
3.9941244e-08
6.4150968e-07
3.5791807e-08
6.5291402e-07
3.0770543e-08
6.2835173e-07
2.7075964e-08
6.1255071e-07
2.4005246e-08
6.0397165e-07
2.1234414e-08
5.9797739e-07
1.8718776e-08
5.9330336e-07
1.6435953e-08
5.8962043e-07
1.4358361e-08
5.8670701e-07
1.2459067e-08
5.8438981e-07
1.0712974e-08
5.8254123e-07
9.0969083e-09
5.8106721e-07
7.589554e-09
5.7989748e-07
6.1713029e-09
5.789794e-07
4.8240559e-09
5.7827365e-07
3.5309788e-09
5.7775127e-07
2.2762323e-09
5.7739163e-07
1.0446892e-09
5.7718102e-07
-1.7835498e-10
5.7711172e-07
-1.4074712e-09
5.7718156e-07
-2.6573943e-09
5.7739378e-07
-3.9433169e-09
5.7775724e-07
-5.2811822e-09
5.78287e-07
-6.687977e-09
5.7900531e-07
-8.1820138e-09
5.7994317e-07
-9.7831926e-09
5.8114262e-07
-1.1513246e-08
5.8265999e-07
-1.3395945e-08
5.8457061e-07
-1.5457178e-08
5.8697605e-07
-1.7724783e-08
5.9001452e-07
-2.0226144e-08
5.9386811e-07
-2.2996755e-08
5.9879069e-07
-2.6216597e-08
6.0552412e-07
-3.039574e-08
6.1696949e-07
-3.4578892e-08
6.3596193e-07
-3.166868e-08
6.3598295e-07
-1.4891489e-08
5.2064149e-07
2.0101174e-07
9.3372437e-09
1.5064718e-07
2.8578534e-08
4.6418041e-07
3.674095e-08
6.3336622e-07
3.4110143e-08
6.5554351e-07
2.9653974e-08
6.3280474e-07
2.6255925e-08
6.159481e-07
2.3460187e-08
6.0676746e-07
2.0915502e-08
6.0052212e-07
1.8568512e-08
5.9565035e-07
1.6407314e-08
5.9178163e-07
1.4414217e-08
5.8870011e-07
1.257004e-08
5.8623398e-07
1.0856042e-08
5.8425523e-07
9.25425e-09
5.82669e-07
7.7475438e-09
5.8140419e-07
6.3196975e-09
5.8040725e-07
4.9553484e-09
5.79638e-07
3.6399046e-09
5.7906671e-07
2.3594087e-09
5.7867213e-07
1.1003746e-09
5.7844005e-07
-1.5039414e-10
5.7836249e-07
-1.4059934e-09
5.7843716e-07
-2.679616e-09
5.786674e-07
-3.9847432e-09
5.7906237e-07
-5.3353284e-09
5.7963759e-07
-6.7459671e-09
5.8041595e-07
-8.2320431e-09
5.8142925e-07
-9.8098346e-09
5.8272042e-07
-1.1496582e-08
5.8434674e-07
-1.3310529e-08
5.8638456e-07
-1.5270807e-08
5.8893633e-07
-1.7396756e-08
5.9214047e-07
-1.9705804e-08
5.9617716e-07
-2.223173e-08
6.0131662e-07
-2.5169372e-08
6.0846176e-07
-2.8902118e-08
6.2070223e-07
-3.1971032e-08
6.3903085e-07
-2.7685416e-08
6.3169733e-07
-1.181431e-08
5.0477038e-07
1.8919743e-07
7.2216748e-09
1.434681e-07
2.4579454e-08
4.4687874e-07
3.3589156e-08
6.2438398e-07
3.229491e-08
6.56838e-07
2.8416149e-08
6.366794e-07
2.5296415e-08
6.1906672e-07
2.275342e-08
6.0931049e-07
2.0428683e-08
6.0284692e-07
1.8254458e-08
5.9782458e-07
1.6224581e-08
5.938115e-07
1.4328989e-08
5.9059571e-07
1.2554763e-08
5.8800821e-07
1.0888489e-08
5.859215e-07
9.3167244e-09
5.8424077e-07
7.8261632e-09
5.8289475e-07
6.4037766e-09
5.8182964e-07
5.0368899e-09
5.8100489e-07
3.7131956e-09
5.8039041e-07
2.4207192e-09
5.7996461e-07
1.1477525e-09
5.7971302e-07
-1.1723655e-10
5.7962748e-07
-1.3857051e-09
5.7970563e-07
-2.6691464e-09
5.7995085e-07
-3.9791898e-09
5.8037242e-07
-5.3276918e-09
5.8098609e-07
-6.7268061e-09
5.8181506e-07
-8.1890233e-09
5.8289147e-07
-9.7271656e-09
5.8425856e-07
-1.1354335e-08
5.8597391e-07
-1.3083846e-08
5.8811407e-07
-1.4929002e-08
5.9078148e-07
-1.6902087e-08
5.9411355e-07
-1.9013308e-08
5.9828838e-07
-2.1298876e-08
6.0360219e-07
-2.3959799e-08
6.1112269e-07
-2.7226914e-08
6.2396935e-07
-2.9262653e-08
6.4106659e-07
-2.4006664e-08
6.2644135e-07
-9.2951504e-09
4.9005887e-07
1.7990228e-07
5.6404644e-09
1.3788796e-07
2.1154506e-08
4.314377e-07
3.0585405e-08
6.1499138e-07
3.0424154e-08
6.5700204e-07
2.7114478e-08
6.3998403e-07
2.4255389e-08
6.2192407e-07
2.1938955e-08
6.1162689e-07
1.9820836e-08
6.0496512e-07
1.7816467e-08
5.9982897e-07
1.5921085e-08
5.9570689e-07
1.4130094e-08
5.923867e-07
1.2435448e-08
5.8970286e-07
1.082804e-08
5.8752891e-07
9.2982491e-09
5.8577056e-07
7.8361213e-09
5.8435688e-07
6.4315442e-09
5.8323422e-07
5.074381e-09
5.8236205e-07
3.7545511e-09
5.8171024e-07
2.4620688e-09
5.8125709e-07
1.1870499e-09
5.8098804e-07
-8.030535e-11
5.8089484e-07
-1.3497374e-09
5.8097506e-07
-2.6309724e-09
5.8123208e-07
-3.9337392e-09
5.8167518e-07
-5.2677887e-09
5.8232014e-07
-6.6428844e-09
5.8319016e-07
-8.0687635e-09
5.8431735e-07
-9.5550569e-09
5.8574485e-07
-1.1111166e-08
5.8753002e-07
-1.2746136e-08
5.8974904e-07
-1.4468382e-08
5.9250373e-07
-1.6284587e-08
5.9592976e-07
-1.8200441e-08
6.0020424e-07
-2.0257108e-08
6.0565885e-07
-2.2650947e-08
6.1351652e-07
-2.545049e-08
6.2676889e-07
-2.6567174e-08
6.4218327e-07
-2.0685674e-08
6.2055985e-07
-7.2637462e-09
4.7663694e-07
1.7263854e-07
4.4706241e-09
1.3350275e-07
1.8243639e-08
4.1775996e-07
2.7775673e-08
6.0551141e-07
2.854802e-08
6.5623625e-07
2.5786194e-08
6.4273994e-07
2.3173334e-08
6.245344e-07
2.1057996e-08
6.1374206e-07
1.9129743e-08
6.0689347e-07
1.72879e-08
6.0167083e-07
1.5525668e-08
5.9746912e-07
1.3841993e-08
5.9407037e-07
1.2232479e-08
5.9131237e-07
1.069139e-08
5.8907e-07
9.2122487e-09
5.872497e-07
7.7879712e-09
5.8578116e-07
6.411037e-09
5.8461115e-07
5.0736384e-09
5.8369945e-07
3.7677981e-09
5.8301608e-07
2.4854561e-09
5.8253943e-07
1.2185281e-09
5.8225497e-07
-4.1057329e-11
5.8215443e-07
-1.301314e-09
5.8223532e-07
-2.5702081e-09
5.8250098e-07
-3.8555908e-09
5.8296057e-07
-5.1651712e-09
5.8362972e-07
-6.5064457e-09
5.8453143e-07
-7.8866036e-09
5.8569751e-07
-9.3124022e-09
5.8717065e-07
-1.0790011e-08
5.8900763e-07
-1.2324868e-08
5.912839e-07
-1.3921395e-08
5.9410026e-07
-1.5582011e-08
5.9759038e-07
-1.7310193e-08
6.0193242e-07
-1.9152767e-08
6.0750143e-07
-2.12903e-08
6.1565406e-07
-2.363253e-08
6.2911113e-07
-2.3956783e-08
6.4250753e-07
-1.7730337e-08
6.143334e-07
-5.6424942e-09
4.645491e-07
1.6699604e-07
3.6087165e-09
1.3001036e-07
1.5772887e-08
4.0572035e-07
2.5171934e-08
5.9618188e-07
2.6695439e-08
6.5472457e-07
2.4452911e-08
6.4497584e-07
2.2076277e-08
6.2690753e-07
2.0140345e-08
6.1567761e-07
1.8384766e-08
6.0864917e-07
1.6695933e-08
6.033597e-07
1.5062703e-08
5.9910235e-07
1.3486e-08
5.9564708e-07
1.1964084e-08
5.9283429e-07
1.0493818e-08
5.9054027e-07
9.0712577e-09
5.8867226e-07
7.69174e-09
5.8716068e-07
6.3500046e-09
5.8595289e-07
5.0403375e-09
5.8500912e-07
3.7567024e-09
5.8429972e-07
2.4928545e-09
5.8380328e-07
1.2424363e-09
5.8350539e-07
-9.4028828e-13
5.833978e-07
-1.2436539e-09
5.8347804e-07
-2.4919259e-09
5.8374925e-07
-3.751819e-09
5.8422046e-07
-5.0291179e-09
5.8490702e-07
-6.3292204e-09
5.8583154e-07
-7.6570093e-09
5.870253e-07
-9.0167038e-09
5.8853035e-07
-1.0411699e-08
5.9040263e-07
-1.1844427e-08
5.9271663e-07
-1.3316088e-08
5.9557192e-07
-1.4825959e-08
5.9910025e-07
-1.6376992e-08
6.0348345e-07
-1.8020809e-08
6.0914525e-07
-1.9912249e-08
6.175455e-07
-2.1815488e-08
6.3101437e-07
-2.1473002e-08
6.4216504e-07
-1.5121912e-08
6.0798231e-07
-4.3553897e-09
4.5378258e-07
1.6264065e-07
2.9701347e-09
1.2718979e-07
1.3667028e-08
3.9518564e-07
2.2766264e-08
5.8717426e-07
2.4881085e-08
6.5262871e-07
2.3125918e-08
6.4672396e-07
2.0979817e-08
6.29049e-07
1.9206699e-08
6.1745004e-07
1.7608053e-08
6.1024794e-07
1.6062144e-08
6.0490567e-07
1.4552298e-08
6.0061221e-07
1.3080241e-08
5.9711913e-07
1.1646156e-08
5.9426838e-07
1.0248915e-08
5.9193751e-07
8.8866161e-09
5.9003456e-07
7.5566206e-09
5.8849068e-07
6.2556201e-09
5.8725389e-07
4.9797571e-09
5.8628498e-07
3.7247558e-09
5.8555472e-07
2.4860475e-09
5.8504199e-07
1.2588877e-09
5.8473255e-07
3.8465228e-11
5.8461823e-07
-1.179987e-09
5.8469649e-07
-2.4011076e-09
5.8497037e-07
-3.6292743e-09
5.8544863e-07
-4.8684914e-09
5.8614624e-07
-6.1222516e-09
5.870853e-07
-7.3933839e-09
5.8829643e-07
-8.6838951e-09
5.8982086e-07
-9.9948156e-09
5.9171355e-07
-1.132608e-08
5.940479e-07
-1.2676283e-08
5.9692212e-07
-1.4042425e-08
6.0046639e-07
-1.542797e-08
6.04869e-07
-1.6887344e-08
6.1060462e-07
-1.8541833e-08
6.1919999e-07
-2.0029446e-08
6.3250198e-07
-1.9137115e-08
6.4127271e-07
-1.2828456e-08
6.0167365e-07
-3.3335808e-09
4.4428771e-07
1.5930707e-07
2.4878769e-09
1.2488371e-07
1.1856531e-08
3.8602605e-07
2.0540813e-08
5.786093e-07
2.3110959e-08
6.5008687e-07
2.1810505e-08
6.4801734e-07
1.9892894e-08
6.3096067e-07
1.8271252e-08
6.1907058e-07
1.6816183e-08
6.1170312e-07
1.5403504e-08
6.0631842e-07
1.401083e-08
6.0200489e-07
1.2639887e-08
5.9849008e-07
1.129229e-08
5.9561597e-07
9.9685111e-09
5.9326129e-07
8.6683267e-09
5.9133475e-07
7.3907987e-09
5.897682e-07
6.1343011e-09
5.8851039e-07
4.8966103e-09
5.8752267e-07
3.6750276e-09
5.8677631e-07
2.4665091e-09
5.8625051e-07
1.2677961e-09
5.8593126e-07
7.5543475e-11
5.8581048e-07
-1.1135566e-09
5.8588559e-07
-2.3026461e-09
5.8615946e-07
-3.4945647e-09
5.8664055e-07
-4.6917063e-09
5.8734338e-07
-5.8958626e-09
5.8828946e-07
-7.1080571e-09
5.8950863e-07
-8.3283829e-09
5.9104119e-07
-9.5558583e-09
5.9294103e-07
-1.0788322e-08
5.9528036e-07
-1.2022229e-08
5.9815603e-07
-1.3252925e-08
6.0169709e-07
-1.4484812e-08
6.0610089e-07
-1.5772447e-08
6.1189226e-07
-1.7198212e-08
6.2062576e-07
-1.8296483e-08
6.3360025e-07
-1.6958432e-08
6.3993466e-07
-1.081418e-08
5.955294e-07
-2.5189194e-09
4.3599245e-07
1.5678816e-07
2.1109935e-09
1.229839e-07
1.0281452e-08
3.7812115e-07
1.8474992e-08
5.7056932e-07
2.1387013e-08
6.4721515e-07
2.0509383e-08
6.4888844e-07
1.8820909e-08
6.326418e-07
1.7344151e-08
6.205457e-07
1.6021979e-08
6.1302536e-07
1.4733694e-08
6.0760679e-07
1.3451868e-08
6.0328673e-07
1.2177785e-08
5.9976416e-07
1.0914209e-08
5.9687955e-07
9.6629716e-09
5.9451253e-07
8.4252676e-09
5.9257245e-07
7.2016151e-09
5.9099186e-07
5.9918444e-09
5.8972016e-07
4.7951661e-09
5.8871935e-07
3.6102833e-09
5.8796119e-07
2.4355225e-09
5.8742527e-07
1.2689709e-09
5.8709782e-07
1.086163e-10
5.8697084e-07
-1.0475145e-09
5.8704172e-07
-2.2012102e-09
5.8731316e-07
-3.3539241e-09
5.8779327e-07
-4.5066144e-09
5.8849607e-07
-5.6595749e-09
5.8944242e-07
-6.8122599e-09
5.9066131e-07
-7.9631184e-09
5.9219205e-07
-9.1094534e-09
5.9408736e-07
-1.024732e-08
5.9641823e-07
-1.1371372e-08
5.9928009e-07
-1.2475699e-08
6.0280142e-07
-1.3565539e-08
6.0719073e-07
-1.4692618e-08
6.1301934e-07
-1.5897546e-08
6.2183069e-07
-1.6634471e-08
6.3433718e-07
-1.4941007e-08
6.382412e-07
-9.0460797e-09
5.8963448e-07
-1.8658071e-09
4.2881218e-07
1.5492235e-07
1.8025936e-09
1.2141872e-07
8.8933807e-09
3.7136165e-07
1.6550585e-08
5.6310714e-07
1.9711126e-08
6.4410993e-07
1.922573e-08
6.4936859e-07
1.7768554e-08
6.3409019e-07
1.6433878e-08
6.2187811e-07
1.5236421e-08
6.1422281e-07
1.4064646e-08
6.0877868e-07
1.2887415e-08
6.0446398e-07
1.1705469e-08
6.0094611e-07
1.0522609e-08
5.9806241e-07
9.3419091e-09
5.9569323e-07
8.1658217e-09
5.9374854e-07
6.9961381e-09
5.9216154e-07
5.8339616e-09
5.9088234e-07
4.6797616e-09
5.8987356e-07
3.5334807e-09
5.8910747e-07
2.3946661e-09
5.8856409e-07
1.2626103e-09
5.8822987e-07
1.3649872e-10
5.8809695e-07
-9.844436e-10
5.8816267e-07
-2.1007962e-09
5.8842951e-07
-3.2127828e-09
5.8890525e-07
-4.3201018e-09
5.8960339e-07
-5.421748e-09
5.9054407e-07
-6.5158301e-09
5.917554e-07
-7.5993976e-09
5.9327562e-07
-8.6682952e-09
5.9515626e-07
-9.717046e-09
5.9746698e-07
-1.0738749e-08
6.0030179e-07
-1.1726456e-08
6.0378912e-07
-1.2685758e-08
6.0815003e-07
-1.3662598e-08
6.1399618e-07
-1.4655189e-08
6.2282328e-07
-1.5060097e-08
6.3474209e-07
-1.3088576e-08
6.3626968e-07
-7.4982665e-09
5.8404417e-07
-1.3413927e-09
4.226553e-07
1.5358096e-07
1.5376394e-09
1.2014166e-07
7.656132e-09
3.6564802e-07
1.4755042e-08
5.562522e-07
1.8088232e-08
6.4085047e-07
1.7965765e-08
6.4948809e-07
1.6742249e-08
6.3530353e-07
1.5549332e-08
6.2306802e-07
1.4470309e-08
6.153017e-07
1.3407886e-08
6.0984123e-07
1.2329025e-08
6.0554287e-07
1.1234096e-08
6.0204104e-07
1.0127956e-08
5.9916855e-07
9.0148911e-09
5.968063e-07
7.8985156e-09
5.9486492e-07
6.7817586e-09
5.932783e-07
5.6668457e-09
5.9199725e-07
4.555353e-09
5.9098505e-07
3.4483155e-09
5.9021451e-07
2.3463604e-09
5.8966605e-07
1.2498509e-09
5.8932638e-07
1.590369e-10
5.8918776e-07
-9.2579293e-10
5.892475e-07
-2.004151e-09
5.8950787e-07
-3.0751859e-09
5.8997629e-07
-4.137507e-09
5.9066572e-07
-5.189002e-09
5.9159556e-07
-6.2266465e-09
5.9279304e-07
-7.2463217e-09
5.9429529e-07
-8.2426525e-09
5.9615259e-07
-9.2088577e-09
5.9843319e-07
-1.0136691e-08
6.0122963e-07
-1.1018295e-08
6.0467073e-07
-1.1858899e-08
6.0899064e-07
-1.2695996e-08
6.1483328e-07
-1.3486578e-08
6.2361386e-07
-1.3590349e-08
6.3484586e-07
-1.1407051e-08
6.3408639e-07
-6.1537063e-09
5.7879083e-07
-9.2406547e-10
4.1742566e-07
1.5265689e-07
1.3007519e-09
1.1912136e-07
6.5456258e-09
3.6088705e-07
1.3083133e-08
5.5001468e-07
1.6528061e-08
6.3750125e-07
1.6740122e-08
6.4927647e-07
1.5751362e-08
6.3628085e-07
1.4700739e-08
6.2411482e-07
1.3734798e-08
6.1626736e-07
1.2774799e-08
6.1080136e-07
1.1787874e-08
6.0652983e-07
1.0774396e-08
6.0305452e-07
9.7403535e-09
6.0020259e-07
8.6912477e-09
5.978554e-07
7.6317904e-09
5.9592438e-07
6.5659406e-09
5.9434415e-07
5.4969181e-09
5.9306628e-07
4.4272722e-09
5.920547e-07
3.3589981e-09
5.9128279e-07
2.2936746e-09
5.9073137e-07
1.2326108e-09
5.9038745e-07
1.7699726e-10
5.9024338e-07
-8.7194003e-10
5.9029644e-07
-1.9127799e-09
5.9054871e-07
-2.9437399e-09
5.9100725e-07
-3.9625014e-09
5.9168448e-07
-4.9660251e-09
5.9259909e-07
-5.9503562e-09
5.9377737e-07
-6.9104312e-09
5.9525537e-07
-7.8398944e-09
5.9708206e-07
-8.7309046e-09
5.993242e-07
-9.5741066e-09
6.0207283e-07
-1.0360863e-08
6.0545749e-07
-1.1095329e-08
6.0972511e-07
-1.1804371e-08
6.1554232e-07
-1.2406273e-08
6.2421576e-07
-1.2241918e-08
6.3468151e-07
-9.9043801e-09
6.3174885e-07
-5.003142e-09
5.7388959e-07
-6.0090564e-10
4.1302343e-07
1.5205599e-07
1.0840736e-09
1.1833352e-07
5.5490467e-09
3.5698722e-07
1.1537102e-08
5.443884e-07
1.504509e-08
6.3411431e-07
1.5563153e-08
6.4876344e-07
1.4807251e-08
6.3702421e-07
1.3898442e-08
6.2501888e-07
1.3039964e-08
6.1712534e-07
1.2175059e-08
6.1166639e-07
1.1273134e-08
6.0743181e-07
1.0334999e-08
6.0399266e-07
9.367833e-09
6.0116976e-07
8.3783376e-09
5.988449e-07
7.3722547e-09
5.9693046e-07
6.3544722e-09
5.9536194e-07
5.3290879e-09
5.9409166e-07
4.2995053e-09
5.9308428e-07
3.2685626e-09
5.9231373e-07
2.2386764e-09
5.9176126e-07
1.2119904e-09
5.9141414e-07
1.9052623e-10
5.9126484e-07
-8.2366509e-10
5.9131063e-07
-1.8283461e-09
5.915534e-07
-2.8209307e-09
5.9199984e-07
-3.7983135e-09
5.9266186e-07
-4.7566882e-09
5.9355746e-07
-5.6913544e-09
5.9471204e-07
-6.5965167e-09
5.9616053e-07
-7.4650817e-09
5.9795063e-07
-8.288426e-09
6.0014754e-07
-9.0563932e-09
6.028408e-07
-9.7597852e-09
6.0616088e-07
-1.040119e-08
6.1036651e-07
-1.0995443e-08
6.1613658e-07
-1.142571e-08
6.2464603e-07
-1.102912e-08
6.3428492e-07
-8.5888031e-09
6.2930853e-07
-4.0425306e-09
5.6934332e-07
-3.6299399e-10
4.0934389e-07
1.51693e-07
8.853099e-10
1.1775511e-07
4.6633861e-09
3.5385329e-07
1.0125795e-08
5.3935319e-07
1.3656953e-08
6.3073235e-07
1.4450321e-08
6.4798072e-07
1.3920249e-08
6.3754068e-07
1.3149888e-08
6.2578345e-07
1.23919e-08
6.1788256e-07
1.1613861e-08
6.1244455e-07
1.0789298e-08
6.0825643e-07
9.919823e-09
6.0486214e-07
9.0137683e-09
6.0207582e-07
8.0789598e-09
5.9977971e-07
7.1220767e-09
5.9788735e-07
6.1488304e-09
5.9633518e-07
5.164089e-09
5.950764e-07
4.1720044e-09
5.9407637e-07
3.1761564e-09
5.9330958e-07
2.1797025e-09
5.9275771e-07
1.1855273e-09
5.9240831e-07
1.9639091e-10
5.9225398e-07
-7.8492302e-10
5.9229194e-07
-1.7554562e-09
5.9252393e-07
-2.7119198e-09
5.929563e-07
-3.6505328e-09
5.9360048e-07
-4.566848e-09
5.9447378e-07
-5.4555675e-09
5.9560076e-07
-6.3103441e-09
5.9701531e-07
-7.1235689e-09
5.9876385e-07
-7.8861244e-09
6.009101e-07
-8.5874207e-09
6.0354209e-07
-9.218041e-09
6.067915e-07
-9.7788984e-09
6.1092737e-07
-1.0272538e-08
6.1663022e-07
-1.0551772e-08
6.2492527e-07
-9.9622038e-09
6.3369535e-07
-7.4667929e-09
6.2681313e-07
-3.2693523e-09
5.6514588e-07
-2.0214459e-10
4.0627669e-07
1.5149086e-07
7.063689e-10
1.1736037e-07
3.8935666e-09
3.5138114e-07
8.8635824e-09
5.3487625e-07
1.2382742e-08
6.2739235e-07
1.341556e-08
6.4696501e-07
1.3096875e-08
6.3784478e-07
1.2457281e-08
6.264161e-07
1.179092e-08
6.1854782e-07
1.1090549e-08
6.1314503e-07
1.0335085e-08
6.0901197e-07
9.5271001e-09
6.0567014e-07
8.6759219e-09
6.02927e-07
7.7903536e-09
6.0066528e-07
6.8778944e-09
5.9879981e-07
5.9449748e-09
5.9726811e-07
4.9971384e-09
5.9602424e-07
4.0391982e-09
5.9503431e-07
3.0753942e-09
5.9427338e-07
2.1095466e-09
5.9372356e-07
1.1452055e-09
5.9337265e-07
1.8579743e-10
5.9321339e-07
-7.6523203e-10
5.9324298e-07
-1.7042731e-09
5.9346297e-07
-2.6274037e-09
5.9387943e-07
-3.5302378e-09
5.9450331e-07
-4.4077635e-09
5.9535131e-07
-5.2541735e-09
5.9644717e-07
-6.0626804e-09
5.9782382e-07
-6.8253129e-09
5.9952649e-07
-7.5326874e-09
6.0161748e-07
-8.1741254e-09
6.0418353e-07
-8.740393e-09
6.0735777e-07
-9.2310602e-09
6.1141804e-07
-9.6375611e-09
6.1703672e-07
-9.7886197e-09
6.2507633e-07
-9.0479897e-09
6.3295472e-07
-6.5418206e-09
6.2430696e-07
-2.6785587e-09
5.6128262e-07
-1.0986247e-10
4.0370799e-07
1.51381e-07
5.5264242e-10
1.1711812e-07
3.2500001e-09
3.494545e-07
7.7695484e-09
5.3091231e-07
1.1243139e-08
6.2412848e-07
1.2471808e-08
6.4576081e-07
1.234105e-08
6.3796029e-07
1.1819752e-08
6.2692932e-07
1.1234552e-08
6.1913158e-07
1.060213e-08
6.1377752e-07
9.9071869e-09
6.09707e-07
9.1531705e-09
6.0642417e-07
8.3501539e-09
6.0373001e-07
7.5077427e-09
6.0150769e-07
6.6341446e-09
5.9967341e-07
5.7364274e-09
5.9816582e-07
4.8207433e-09
5.9693993e-07
3.8925062e-09
5.9596255e-07
2.9565577e-09
5.9520933e-07
2.017323e-09
5.946628e-07
1.0789614e-09
5.9431102e-07
1.4551029e-10
5.9414684e-07
-7.7897405e-10
5.9416746e-07
-1.6902764e-09
5.9437428e-07
-2.5838798e-09
5.9477304e-07
-3.4548224e-09
5.9537426e-07
-4.2975478e-09
5.9619403e-07
-5.1057509e-09
5.9725538e-07
-5.8722173e-09
5.9859029e-07
-6.5886431e-09
6.0024291e-07
-7.2454578e-09
6.0227429e-07
-7.8320839e-09
6.0477016e-07
-8.3397807e-09
6.0786547e-07
-8.7674107e-09
6.1184567e-07
-9.0978595e-09
6.1736717e-07
-9.143468e-09
6.2512194e-07
-8.2932537e-09
6.3210451e-07
-5.8140764e-09
6.2182778e-07
-2.2585765e-09
5.5772712e-07
-7.4552933e-11
4.0152397e-07
1.5130644e-07
4.3171365e-10
1.1699058e-07
2.7448603e-09
3.4794619e-07
6.8661782e-09
5.2740169e-07
1.0262901e-08
6.2097134e-07
1.1636585e-08
6.4442012e-07
1.1661806e-08
6.379201e-07
1.1242354e-08
6.2733989e-07
1.0727142e-08
6.1964502e-07
1.0153074e-08
6.1435161e-07
9.5100165e-09
6.1035014e-07
8.8020255e-09
6.0713218e-07
8.0396923e-09