/*--------------------------------*- C++ -*----------------------------------*\
  =========                 |
  \\      /  F ield         | OpenFOAM: The Open Source CFD Toolbox
   \\    /   O peration     | Website:  https://openfoam.org
    \\  /    A nd           | Version:  10
     \\/     M anipulation  |
\*---------------------------------------------------------------------------*/
FoamFile
{
    format      ascii;
    class       volVectorField;
    location    "0.07";
    object      U;
}
// * * * * * * * * * * * * * * * * * * * * * * * * * * * * * * * * * * * * * //

dimensions      [0 1 -1 0 0 0 0];

internalField   nonuniform List<vector> 
4000
(
(0 0.018625308 0.47773759)
(0 0.023487434 0.50885721)
(0 0.0081464 0.50052597)
(0 0.0055944145 0.50033692)
(0 0.0042331428 0.50025758)
(0 0.0032331117 0.50016896)
(0 0.0025345684 0.50011959)
(0 0.002033751 0.50008996)
(0 0.0016567534 0.50006957)
(0 0.00136369 0.5000551)
(0 0.001130146 0.50004466)
(0 0.00093974846 0.50003696)
(0 0.00078121469 0.50003119)
(0 0.00064654486 0.50002683)
(0 0.00052988973 0.50002353)
(0 0.00042685052 0.50002103)
(0 0.00033402408 0.50001917)
(0 0.0002486944 0.50001782)
(0 0.00016861601 0.50001692)
(0 9.1855031e-05 0.5000164)
(0 1.6667188e-05 0.50001625)
(0 -5.86116e-05 0.50001644)
(0 -0.00013565605 0.500017)
(0 -0.00021624338 0.50001796)
(0 -0.00030236676 0.50001937)
(0 -0.00039636517 0.50002133)
(0 -0.00050109643 0.50002395)
(0 -0.00062017747 0.50002744)
(0 -0.00075833359 0.50003206)
(0 -0.00092192957 0.50003821)
(0 -0.001119823 0.50004651)
(0 -0.0013647332 0.50005793)
(0 -0.0016754852 0.50007391)
(0 -0.0020825178 0.50009696)
(0 -0.0026418777 0.50013481)
(0 -0.0034360831 0.50020258)
(0 -0.0045303598 0.50027226)
(0 -0.0065552459 0.50043482)
(0 -0.017628347 0.50674956)
(0 -0.013573978 0.47976443)
(0 0.037398951 0.44801035)
(0 0.050887023 0.5323214)
(0 0.021901242 0.50804358)
(0 0.016071046 0.50357706)
(0 0.012347491 0.50242425)
(0 0.009446832 0.50162276)
(0 0.0074526883 0.50115556)
(0 0.0060042058 0.50086413)
(0 0.0049021086 0.50066559)
(0 0.0040417169 0.50052609)
(0 0.0033539451 0.50042568)
(0 0.0027917424 0.50035181)
(0 0.0023226482 0.5002966)
(0 0.0019235042 0.50025493)
(0 0.0015772864 0.50022335)
(0 0.0012711449 0.5001995)
(0 0.00099510706 0.50018173)
(0 0.0007411933 0.50016892)
(0 0.000502792 0.5001603)
(0 0.00027419856 0.50015537)
(0 5.0260159e-05 0.50015388)
(0 -0.00017393672 0.50015574)
(0 -0.00040333716 0.50016107)
(0 -0.00064318947 0.50017019)
(0 -0.00089936943 0.50018365)
(0 -0.0011787591 0.50020229)
(0 -0.0014897461 0.50022736)
(0 -0.0018429143 0.50026067)
(0 -0.0022520402 0.50030485)
(0 -0.0027355816 0.50036382)
(0 -0.00331906 0.50044353)
(0 -0.0040390354 0.50055349)
(0 -0.0049488323 0.50070884)
(0 -0.0061286142 0.50093523)
(0 -0.0077275249 0.50129427)
(0 -0.010022314 0.50191241)
(0 -0.013009646 0.50283113)
(0 -0.017328395 0.50608437)
(0 -0.038662642 0.52526115)
(0 -0.027847732 0.45027815)
(0 0.03983691 0.40993235)
(0 0.061309385 0.54932073)
(0 0.031855999 0.52187828)
(0 0.024239555 0.51008781)
(0 0.019071885 0.50659134)
(0 0.014855251 0.50452719)
(0 0.011887328 0.50326805)
(0 0.0096566993 0.5024529)
(0 0.0079271218 0.5018938)
(0 0.0065626661 0.50149994)
(0 0.0054628877 0.50121546)
(0 0.004558084 0.50100563)
(0 0.0037993703 0.50084857)
(0 0.0031512253 0.50072987)
(0 0.0025872084 0.50063982)
(0 0.002087175 0.50057174)
(0 0.00163537 0.500521)
(0 0.0012191052 0.50048439)
(0 0.00082781309 0.50045974)
(0 0.00045233868 0.50044565)
(0 8.4388612e-05 0.50044137)
(0 -0.00028395167 0.50044667)
(0 -0.00066064743 0.5004619)
(0 -0.0010541392 0.50048794)
(0 -0.0014738444 0.50052636)
(0 -0.0019307431 0.50057956)
(0 -0.0024381373 0.50065106)
(0 -0.0030126873 0.50074596)
(0 -0.0036758807 0.50087171)
(0 -0.0044561536 0.50103927)
(0 -0.0053921045 0.50126524)
(0 -0.006538014 0.50157583)
(0 -0.0079714861 0.50201329)
(0 -0.0097971513 0.50264621)
(0 -0.012188115 0.50361432)
(0 -0.015533652 0.50520402)
(0 -0.019699392 0.50786675)
(0 -0.025004423 0.51641329)
(0 -0.047247289 0.53914197)
(0 -0.030777844 0.41504754)
(0 0.034727405 0.36195049)
(0 0.063666651 0.55462463)
(0 0.039178342 0.53746062)
(0 0.029905246 0.51849953)
(0 0.02393004 0.51198176)
(0 0.019097726 0.50849702)
(0 0.015558628 0.50625671)
(0 0.012783285 0.50474363)
(0 0.010581755 0.50368905)
(0 0.0088168914 0.50293775)
(0 0.0073753701 0.50239016)
(0 0.0061772966 0.50198371)
(0 0.0051646587 0.50167807)
(0 0.0042940244 0.50144627)
(0 0.0035324288 0.50126992)
(0 0.0028543631 0.5011363)
(0 0.0022396142 0.50103654)
(0 0.00167173 0.50096447)
(0 0.0011368902 0.50091588)
(0 0.00062304184 0.50088808)
(0 0.00011921657 0.50087959)
(0 -0.00038507349 0.50089001)
(0 -0.00090038219 0.50091997)
(0 -0.0014378592 0.5009712)
(0 -0.0020098776 0.50104673)
(0 -0.0026307559 0.50115116)
(0 -0.0033176712 0.50129127)
(0 -0.0040918727 0.5014768)
(0 -0.0049803539 0.50172182)
(0 -0.0060181623 0.50204691)
(0 -0.0072515022 0.50248269)
(0 -0.0087430105 0.5030763)
(0 -0.010580584 0.50390271)
(0 -0.012871597 0.50507865)
(0 -0.015752073 0.50680393)
(0 -0.019626112 0.50947536)
(0 -0.024466812 0.51429119)
(0 -0.030824903 0.52824098)
(0 -0.050066523 0.54414914)
(0 -0.028336504 0.37271217)
(0 0.027352008 0.31520399)
(0 0.062088157 0.55039231)
(0 0.04432447 0.55145311)
(0 0.033727238 0.52748705)
(0 0.027211178 0.51772682)
(0 0.022204728 0.51291437)
(0 0.018393092 0.50971719)
(0 0.015294311 0.50747129)
(0 0.012785267 0.50587269)
(0 0.010736484 0.50471466)
(0 0.0090362425 0.50385964)
(0 0.0076054007 0.50321906)
(0 0.0063837043 0.50273392)
(0 0.0053245056 0.50236392)
(0 0.0043915696 0.50208119)
(0 0.0035562738 0.50186623)
(0 0.0027955424 0.50170529)
(0 0.0020903255 0.50158877)
(0 0.0014244339 0.50151008)
(0 0.00078362241 0.50146498)
(0 0.00015484862 0.50145114)
(0 -0.00047439326 0.50146792)
(0 -0.001116685 0.50151632)
(0 -0.001785264 0.50159907)
(0 -0.0024947169 0.5017209)
(0 -0.0032617557 0.50188901)
(0 -0.0041061726 0.50211391)
(0 -0.00505206 0.50241057)
(0 -0.0061294304 0.50280039)
(0 -0.0073763885 0.50331418)
(0 -0.008841618 0.50399681)
(0 -0.010588056 0.50491508)
(0 -0.012703145 0.50617216)
(0 -0.01529176 0.50792355)
(0 -0.018442376 0.5103965)
(0 -0.022517946 0.51406343)
(0 -0.027801166 0.52115588)
(0 -0.035288842 0.53931242)
(0 -0.05013252 0.54175077)
(0 -0.023962366 0.33110928)
(0 0.019761291 0.27572499)
(0 0.057709851 0.54003835)
(0 0.046974066 0.56255893)
(0 0.036129139 0.53658524)
(0 0.029301277 0.52350677)
(0 0.024347134 0.51739238)
(0 0.020455134 0.51333881)
(0 0.017204697 0.51040974)
(0 0.0145268 0.50828068)
(0 0.012299645 0.50671086)
(0 0.010421348 0.50553553)
(0 0.0088195624 0.50464539)
(0 0.0074363452 0.50396538)
(0 0.0062255704 0.50344314)
(0 0.0051505581 0.50304185)
(0 0.0041816566 0.50273539)
(0 0.0032944874 0.50250515)
(0 0.0024685905 0.50233798)
(0 0.0016863398 0.50222483)
(0 0.00093205943 0.50215983)
(0 0.00019129228 0.50213976)
(0 -0.00054986915 0.50216372)
(0 -0.0013054131 0.5022331)
(0 -0.0020899865 0.50235167)
(0 -0.0029195975 0.50252595)
(0 -0.0038123742 0.50276581)
(0 -0.0047894718 0.50308552)
(0 -0.0058761874 0.50350525)
(0 -0.0071033663 0.50405336)
(0 -0.0085093121 0.50477007)
(0 -0.010141779 0.50571269)
(0 -0.01205965 0.50696391)
(0 -0.014343782 0.50864738)
(0 -0.017097274 0.51094569)
(0 -0.020375224 0.5141028)
(0 -0.024474527 0.51873317)
(0 -0.029997521 0.5282194)
(0 -0.038059724 0.5487101)
(0 -0.048068566 0.53436706)
(0 -0.018924958 0.29476221)
(0 0.013004139 0.24327332)
(0 0.051466635 0.5256897)
(0 0.047209607 0.57027452)
(0 0.037296123 0.54547726)
(0 0.030419355 0.52927535)
(0 0.025654406 0.5217814)
(0 0.02183283 0.51695956)
(0 0.018567749 0.5134203)
(0 0.015830969 0.51079972)
(0 0.013513543 0.50883698)
(0 0.011528608 0.5073485)
(0 0.0098131541 0.50620904)
(0 0.0083141798 0.50533063)
(0 0.0069886354 0.50465096)
(0 0.0058014728 0.5041255)
(0 0.0047236729 0.5037222)
(0 0.0037308879 0.50341798)
(0 0.0028023193 0.50319639)
(0 0.0019197789 0.50304599)
(0 0.0010669005 0.50295937)
(0 0.00022846882 0.50293242)
(0 -0.00061020628 0.50296399)
(0 -0.0014638963 0.50305584)
(0 -0.0023479879 0.50321276)
(0 -0.0032791505 0.50344298)
(0 -0.0042760247 0.50375892)
(0 -0.0053600294 0.50417834)
(0 -0.006556318 0.50472611)
(0 -0.0078949102 0.50543676)
(0 -0.0094122801 0.50635843)
(0 -0.011153159 0.50755873)
(0 -0.013170466 0.50913304)
(0 -0.015534361 0.51122)
(0 -0.01834168 0.51402038)
(0 -0.021625589 0.517805)
(0 -0.025625255 0.52345357)
(0 -0.03117584 0.53532572)
(0 -0.039017161 0.55590363)
(0 -0.044354292 0.52347419)
(0 -0.013933192 0.26379299)
(0 0.0076892323 0.21647468)
(0 0.044442374 0.5087608)
(0 0.045635827 0.57447262)
(0 0.037442034 0.55366768)
(0 0.030743575 0.53492261)
(0 0.026245724 0.52599481)
(0 0.022613475 0.52048063)
(0 0.019443095 0.51641072)
(0 0.016734731 0.51334828)
(0 0.014399682 0.5110239)
(0 0.012369126 0.50924146)
(0 0.010590515 0.50786337)
(0 0.0090175214 0.50679176)
(0 0.0076118482 0.50595646)
(0 0.0063414828 0.50530666)
(0 0.0051792587 0.50480534)
(0 0.0041019055 0.50442556)
(0 0.0030891724 0.50414797)
(0 0.0021230693 0.50395903)
(0 0.0011872066 0.50384988)
(0 0.00026621764 0.50381561)
(0 -0.0006547911 0.50385484)
(0 -0.001590792 0.50396969)
(0 -0.0025572959 0.50416584)
(0 -0.0035709539 0.5044531)
(0 -0.0046501436 0.50484614)
(0 -0.0058156461 0.50536579)
(0 -0.0070914275 0.50604095)
(0 -0.0085054841 0.50691132)
(0 -0.010091022 0.50803152)
(0 -0.01188818 0.50947739)
(0 -0.013942832 0.51135467)
(0 -0.016311839 0.51381315)
(0 -0.019078641 0.51706364)
(0 -0.022261634 0.52142027)
(0 -0.026077379 0.52813411)
(0 -0.031488603 0.54211396)
(0 -0.03847073 0.56056469)
(0 -0.039686412 0.51009603)
(0 -0.0095363632 0.23738149)
(0 0.0039225461 0.19472724)
(0 0.037464288 0.49057056)
(0 0.0429377 0.57544205)
(0 0.036817547 0.56072212)
(0 0.030476764 0.54028368)
(0 0.026272679 0.52995216)
(0 0.022899404 0.52381791)
(0 0.019898846 0.51930353)
(0 0.017283955 0.51585874)
(0 0.014988867 0.51321315)
(0 0.012962812 0.51116426)
(0 0.011163872 0.50956581)
(0 0.0095534241 0.50831279)
(0 0.0080988856 0.50732922)
(0 0.0067721494 0.50655944)
(0 0.0055487374 0.50596251)
(0 0.0044072196 0.50550837)
(0 0.003328577 0.50517524)
(0 0.0022956336 0.5049478)
(0 0.0012925395 0.50481598)
(0 0.00030430253 0.50477416)
(0 -0.0006836646 0.50482077)
(0 -0.0016860231 0.50495821)
(0 -0.0027178753 0.50519299)
(0 -0.0037952817 0.50553619)
(0 -0.0049357283 0.50600442)
(0 -0.0061586586 0.50662105)
(0 -0.0074860755 0.50741828)
(0 -0.0089431215 0.50843991)
(0 -0.010558788 0.50974561)
(0 -0.012367489 0.51141743)
(0 -0.014407529 0.51356894)
(0 -0.016722222 0.51635715)
(0 -0.019377766 0.51999594)
(0 -0.022384728 0.52486329)
(0 -0.025972561 0.53263456)
(0 -0.031121389 0.54821204)
(0 -0.036854559 0.56271098)
(0 -0.034668142 0.49527026)
(0 -0.0060146472 0.21520356)
(0 0.0014680694 0.17756276)
(0 0.031010259 0.47225493)
(0 0.039642653 0.57375268)
(0 0.03563758 0.56643787)
(0 0.029803874 0.5452437)
(0 0.025893365 0.53360972)
(0 0.02280167 0.52691361)
(0 0.020011651 0.52203893)
(0 0.017532789 0.51827721)
(0 0.015319281 0.51535687)
(0 0.013336166 0.51307464)
(0 0.011551375 0.51127934)
(0 0.0099341327 0.5098615)
(0 0.0084578262 0.50874119)
(0 0.0070986531 0.50785934)
(0 0.0058353107 0.5071721)
(0 0.0046487049 0.50664705)
(0 0.0035215307 0.50626054)
(0 0.0024378894 0.50599583)
(0 0.0013829146 0.50584185)
(0 0.00034241692 0.50579243)
(0 -0.00069746383 0.50584583)
(0 -0.0017506541 0.50600469)
(0 -0.0028314144 0.50627614)
(0 -0.0039547618 0.50667236)
(0 -0.0051368156 0.50721144)
(0 -0.0063951817 0.50791876)
(0 -0.0077493794 0.50882899)
(0 -0.0092212082 0.50998903)
(0 -0.010835021 0.51146216)
(0 -0.012619042 0.51333462)
(0 -0.014604132 0.515725)
(0 -0.016821622 0.51879365)
(0 -0.019320792 0.522755)
(0 -0.022111149 0.52807696)
(0 -0.025452048 0.53685021)
(0 -0.030234674 0.55339705)
(0 -0.034539852 0.56264297)
(0 -0.029697796 0.47994811)
(0 -0.0033902886 0.19703853)
(0 -5.0323757e-06 0.16423482)
(0 0.025322585 0.45458702)
(0 0.036117562 0.57003043)
(0 0.034071812 0.5707983)
(0 0.028862487 0.54975097)
(0 0.025238376 0.53696761)
(0 0.022421 0.52974793)
(0 0.019856782 0.52458367)
(0 0.017537644 0.52056835)
(0 0.015432538 0.51742064)
(0 0.013519496 0.51494031)
(0 0.011774974 0.51297442)
(0 0.010175419 0.51141118)
(0 0.0086998778 0.51016838)
(0 0.0073288487 0.50918477)
(0 0.0060443771 0.5084146)
(0 0.0048299545 0.50782381)
(0 0.0036702832 0.50738737)
(0 0.0025510565 0.5070875)
(0 0.0014587132 0.50691241)
(0 0.00038018974 0.50685547)
(0 -0.00069732217 0.50691483)
(0 -0.0017866871 0.50709328)
(0 -0.0029009958 0.50739846)
(0 -0.0040538924 0.50784333)
(0 -0.0052598048 0.50844709)
(0 -0.0065341942 0.50923655)
(0 -0.0078938219 0.51024814)
(0 -0.009356966 0.51153079)
(0 -0.010943368 0.5131501)
(0 -0.012675224 0.5151948)
(0 -0.014576504 0.51778603)
(0 -0.016668578 0.52108449)
(0 -0.018986391 0.52530808)
(0 -0.021544368 0.53104174)
(0 -0.024629587 0.54072387)
(0 -0.028958309 0.55758364)
(0 -0.031819222 0.56076915)
(0 -0.025025004 0.46482833)
(0 -0.001548873 0.18242791)
(0 -0.00079544015 0.15392199)
(0 0.020495739 0.43800594)
(0 0.032611009 0.56483491)
(0 0.032261651 0.57388262)
(0 0.027750781 0.55378314)
(0 0.024404751 0.54004571)
(0 0.021839337 0.53232832)
(0 0.019500016 0.5269276)
(0 0.017350644 0.52271417)
(0 0.015369068 0.51938317)
(0 0.013543712 0.51673896)
(0 0.011858085 0.51462907)
(0 0.010294852 0.51294089)
(0 0.0088380802 0.51159116)
(0 0.0074722948 0.51051751)
(0 0.0061828143 0.50967309)
(0 0.0049557641 0.50902282)
(0 0.0037779844 0.50854081)
(0 0.0026369394 0.50820856)
(0 0.00152058 0.50801376)
(0 0.00041719076 0.50794949)
(0 -0.00068475609 0.50801379)
(0 -0.0017968319 0.50820956)
(0 -0.0029307325 0.50854477)
(0 -0.0040985163 0.50903293)
(0 -0.0053127322 0.50969396)
(0 -0.0065865574 0.5105556)
(0 -0.0079339274 0.51165533)
(0 -0.0093696522 0.51304327)
(0 -0.010909165 0.5147863)
(0 -0.01256917 0.51697432)
(0 -0.014367469 0.51972923)
(0 -0.016317284 0.52321028)
(0 -0.018442695 0.52764556)
(0 -0.020768128 0.53375772)
(0 -0.023594175 0.54422054)
(0 -0.027406643 0.56076854)
(0 -0.028922863 0.55749732)
(0 -0.02080084 0.45035934)
(0 -0.00033265478 0.17078764)
(0 -0.0011392246 0.14592932)
(0 0.016519431 0.42273416)
(0 0.029276577 0.55863641)
(0 0.030323058 0.57581875)
(0 0.026540447 0.55733131)
(0 0.023463524 0.54286504)
(0 0.021121458 0.53467378)
(0 0.018995921 0.52907401)
(0 0.017016824 0.52470846)
(0 0.015165398 0.52123312)
(0 0.013437997 0.51845644)
(0 0.011823715 0.51622782)
(0 0.010310331 0.51443483)
(0 0.0088861869 0.51299396)
(0 0.0075394045 0.5118425)
(0 0.0062583434 0.51093314)
(0 0.0050316684 0.5102303)
(0 0.003848362 0.5097076)
(0 0.002697726 0.50934614)
(0 0.0015693307 0.50913329)
(0 0.00045293884 0.50906193)
(0 -0.0006615556 0.50913002)
(0 -0.0017842876 0.50934054)
(0 -0.0029254267 0.50970162)
(0 -0.0040953341 0.51022708)
(0 -0.0053046061 0.51093727)
(0 -0.006564125 0.51186038)
(0 -0.0078850801 0.51303441)
(0 -0.0092790143 0.51450999)
(0 -0.010757483 0.51635445)
(0 -0.01233239 0.51865799)
(0 -0.014016203 0.521542)
(0 -0.015815624 0.52516363)
(0 -0.01774756 0.52976965)
(0 -0.019850087 0.53623004)
(0 -0.022417673 0.54731652)
(0 -0.025680616 0.56300171)
(0 -0.026019682 0.55320115)
(0 -0.017097079 0.43681649)
(0 0.00041590424 0.16157588)
(0 -0.0012092615 0.13970895)
(0 0.013315478 0.40886141)
(0 0.026192153 0.55182077)
(0 0.028341975 0.57676111)
(0 0.025281663 0.56040089)
(0 0.022465321 0.54544433)
(0 0.020317682 0.53680687)
(0 0.018388802 0.53103295)
(0 0.016574004 0.52655197)
(0 0.014853358 0.52296577)
(0 0.013228714 0.52008455)
(0 0.011693353 0.51776034)
(0 0.010239111 0.51588146)
(0 0.0088578473 0.51436474)
(0 0.0075407892 0.51314761)
(0 0.0062790207 0.51218274)
(0 0.0050635634 0.51143445)
(0 0.0038854577 0.51087619)
(0 0.0027358254 0.51048889)
(0 0.0016058817 0.51025977)
(0 0.00048691994 0.51018159)
(0 -0.00062967745 0.51025226)
(0 -0.0017525423 0.51047477)
(0 -0.0028902658 0.51085733)
(0 -0.0040514828 0.51141384)
(0 -0.0052448507 0.51216479)
(0 -0.0064790369 0.51313849)
(0 -0.0077626577 0.51437302)
(0 -0.0091042766 0.515919)
(0 -0.010512051 0.51784365)
(0 -0.011993826 0.52023682)
(0 -0.013557629 0.52321857)
(0 -0.015205196 0.52694441)
(0 -0.016949626 0.53168861)
(0 -0.018844134 0.53846582)
(0 -0.021156726 0.55000201)
(0 -0.023862272 0.5643714)
(0 -0.023219279 0.5482096)
(0 -0.013923237 0.42435889)
(0 0.0008344628 0.15433528)
(0 -0.001123841 0.13482685)
(0 0.010772681 0.39638966)
(0 0.023383343 0.54469367)
(0 0.026375138 0.57687115)
(0 0.024005824 0.56301056)
(0 0.021443443 0.54780073)
(0 0.019465252 0.5387509)
(0 0.017713535 0.53281821)
(0 0.016053227 0.52824988)
(0 0.014460049 0.5245809)
(0 0.012939043 0.52161941)
(0 0.011486456 0.51922026)
(0 0.010097245 0.51727282)
(0 0.0087660815 0.51569454)
(0 0.007486801 0.51442332)
(0 0.0062528632 0.51341213)
(0 0.005057418 0.51262543)
(0 0.0038934235 0.51203675)
(0 0.0027537432 0.51162703)
(0 0.0016312021 0.51138344)
(0 0.00051861497 0.51129873)
(0 -0.00059114137 0.51137075)
(0 -0.0017051909 0.51160247)
(0 -0.0028305583 0.51200204)
(0 -0.0039741857 0.51258332)
(0 -0.005142869 0.5133667)
(0 -0.0063431996 0.51438034)
(0 -0.0075814486 0.51566208)
(0 -0.0088635327 0.51726215)
(0 -0.010194697 0.51924726)
(0 -0.011579439 0.52170651)
(0 -0.01302222 0.52475819)
(0 -0.01452123 0.52855764)
(0 -0.016088379 0.53341459)
(0 -0.017791124 0.54047434)
(0 -0.0198534 0.55228151)
(0 -0.022013011 0.56498728)
(0 -0.020583114 0.54279875)
(0 -0.011247885 0.41305971)
(0 0.0010324443 0.14867864)
(0 -0.00096039168 0.13094513)
(0 0.0087715638 0.38526491)
(0 0.02084453 0.53748795)
(0 0.024455896 0.57630104)
(0 0.022730079 0.56518648)
(0 0.020417582 0.54994879)
(0 0.018590012 0.54052768)
(0 0.016996443 0.53444525)
(0 0.015479241 0.52981008)
(0 0.014007988 0.52608134)
(0 0.012588893 0.52306031)
(0 0.011220215 0.52060428)
(0 0.0098992773 0.5186038)
(0 0.0086229491 0.51697705)
(0 0.0073872153 0.51566253)
(0 0.0061875698 0.51461368)
(0 0.0050190464 0.51379532)
(0 0.0038763505 0.51318119)
(0 0.0027539712 0.51275236)
(0 0.0016462679 0.51249609)
(0 0.00054751003 0.51240513)
(0 -0.00054795793 0.5124773)
(0 -0.0016457953 0.51271548)
(0 -0.0027515335 0.5131277)
(0 -0.0038704909 0.51372766)
(0 -0.0050077242 0.51453546)
(0 -0.0061679242 0.51557893)
(0 -0.0073552678 0.51689539)
(0 -0.0085733656 0.51853447)
(0 -0.0098250065 0.52056213)
(0 -0.01111196 0.52306645)
(0 -0.012435874 0.5261639)
(0 -0.013792628 0.53001184)
(0 -0.015194624 0.53496162)
(0 -0.016720638 0.54226576)
(0 -0.018537649 0.55416941)
(0 -0.020176521 0.56496382)
(0 -0.018139061 0.53718904)
(0 -0.009017234 0.40292941)
(0 0.0010907684 0.14428139)
(0 -0.00076854042 0.1278113)
(0 0.0071984368 0.37540344)
(0 0.018553635 0.53037564)
(0 0.022600856 0.57518549)
(0 0.02146234 0.56695696)
(0 0.01939811 0.55189892)
(0 0.017708921 0.54215531)
(0 0.016256733 0.53592914)
(0 0.014871278 0.53124168)
(0 0.013515445 0.52747175)
(0 0.012194978 0.52440869)
(0 0.010909475 0.5219114)
(0 0.0096580629 0.51987158)
(0 0.0084393174 0.5182081)
(0 0.0072509847 0.51686012)
(0 0.006090284 0.51578164)
(0 0.0049538961 0.51493792)
(0 0.0038380931 0.51430303)
(0 0.0027388516 0.51385826)
(0 0.001651958 0.51359101)
(0 0.00057307123 0.51349406)
(0 -0.00050210555 0.51356522)
(0 -0.0015778447 0.51380724)
(0 -0.0026582438 0.51422798)
(0 -0.0037471295 0.51484085)
(0 -0.0048479644 0.51566557)
(0 -0.0059637283 0.51672944)
(0 -0.0070967559 0.51806918)
(0 -0.0082486721 0.5197336)
(0 -0.0094202065 0.52178779)
(0 -0.010610903 0.52431871)
(0 -0.011820189 0.52744125)
(0 -0.013042627 0.53131731)
(0 -0.014291929 0.53634346)
(0 -0.015653804 0.54384933)
(0 -0.017230749 0.55568535)
(0 -0.018383069 0.56440965)
(0 -0.015893921 0.53154972)
(0 -0.007168279 0.39393714)
(0 0.0010657997 0.14088098)
(0 -0.000579078 0.12524351)
(0 0.0059527917 0.36671023)
(0 0.016481627 0.52348108)
(0 0.020815646 0.57363981)
(0 0.020205312 0.5683498)
(0 0.018389753 0.55365713)
(0 0.016832686 0.54364712)
(0 0.015508205 0.5372831)
(0 0.014244105 0.53255373)
(0 0.012997035 0.52875762)
(0 0.011771094 0.5256673)
(0 0.010566802 0.52314223)
(0 0.0093847047 0.52107507)
(0 0.0082247241 0.5193853)
(0 0.0070860636 0.51801272)
(0 0.0059674062 0.5169119)
(0 0.0048668646 0.51604861)
(0 0.003782102 0.5153973)
(0 0.0027104382 0.51493954)
(0 0.0016489645 0.51466289)
(0 0.00059462519 0.5145602)
(0 -0.00045561895 0.51462926)
(0 -0.0015047545 0.51487268)
(0 -0.0025555563 0.51529809)
(0 -0.0036104914 0.51591854)
(0 -0.0046715862 0.51675327)
(0 -0.005740303 0.51782898)
(0 -0.0068173719 0.51918164)
(0 -0.0079027162 0.52085919)
(0 -0.0089953349 0.52292577)
(0 -0.010092931 0.52546718)
(0 -0.011193138 0.52859715)
(0 -0.012289955 0.53248465)
(0 -0.013398473 0.5375723)
(0 -0.014606151 0.54523287)
(0 -0.015948464 0.55685161)
(0 -0.016653605 0.56342254)
(0 -0.013842975 0.52600669)
(0 -0.0056378626 0.38602743)
(0 0.00099428255 0.13827183)
(0 -0.00040953256 0.12311454)
(0 0.0049507781 0.35908973)
(0 0.01459873 0.51689202)
(0 0.019099849 0.57176081)
(0 0.018959596 0.5693913)
(0 0.017394411 0.55522586)
(0 0.015968067 0.54501176)
(0 0.014760946 0.53851785)
(0 0.013609212 0.53375449)
(0 0.012464521 0.52994454)
(0 0.011328635 0.52683963)
(0 0.010202792 0.52429847)
(0 0.0090887189 0.52221447)
(0 0.0079874513 0.52050765)
(0 0.0068994263 0.51911837)
(0 0.0058245806 0.51800178)
(0 0.0047622731 0.51712416)
(0 0.003711395 0.51646038)
(0 0.0026704668 0.51599232)
(0 0.0016377578 0.51570773)
(0 0.00061137787 0.51559955)
(0 -0.00041056021 0.51566552)
(0 -0.0014298724 0.51590811)
(0 -0.0024481418 0.51633467)
(0 -0.0034666121 0.51695786)
(0 -0.0044860355 0.51779637)
(0 -0.0055065444 0.51887623)
(0 -0.0065274817 0.52023259)
(0 -0.0075473145 0.52191247)
(0 -0.0085635748 0.52397902)
(0 -0.0095724084 0.52651689)
(0 -0.010569938 0.52963917)
(0 -0.011550086 0.53352413)
(0 -0.012528845 0.5386585)
(0 -0.013590046 0.54642311)
(0 -0.01470373 0.55769184)
(0 -0.015003545 0.56208796)
(0 -0.011977161 0.52065025)
(0 -0.0043691498 0.37913105)
(0 0.00089820552 0.13629507)
(0 -0.0002681309 0.12133815)
(0 0.0041261236 0.35245134)
(0 0.012878432 0.5106679)
(0 0.017451251 0.56962865)
(0 0.017726314 0.57010591)
(0 0.016413533 0.55660506)
(0 0.01512002 0.54625395)
(0 0.014023023 0.5396417)
(0 0.012976142 0.53485123)
(0 0.011927861 0.53103798)
(0 0.01087741 0.52792955)
(0 0.0098267073 0.52538257)
(0 0.008778547 0.523291)
(0 0.0077349471 0.52157529)
(0 0.0066974274 0.52017633)
(0 0.0056670152 0.51904983)
(0 0.0046441592 0.51816258)
(0 0.0036288323 0.5174899)
(0 0.0026206207 0.51701397)
(0 0.001618846 0.51672277)
(0 0.0006226633 0.51660932)
(0 -0.0003687777 0.51667131)
(0 -0.0013562431 0.51691107)
(0 -0.0023402563 0.51733564)
(0 -0.0033209779 0.51795724)
(0 -0.0042980458 0.518794)
(0 -0.0052704416 0.51987121)
(0 -0.0062363201 0.52122316)
(0 -0.0071929042 0.52289591)
(0 -0.0081364704 0.52495158)
(0 -0.0090618223 0.52747369)
(0 -0.0099637331 0.53057524)
(0 -0.010836294 0.53444547)
(0 -0.011695553 0.53961094)
(0 -0.01261665 0.54742651)
(0 -0.013508897 0.55823061)
(0 -0.013446075 0.56047915)
(0 -0.010288092 0.51554178)
(0 -0.0033161152 0.37317142)
(0 0.00078943058 0.13482682)
(0 -0.00015702405 0.11985785)
(0 0.0034295549 0.34671165)
(0 0.011299905 0.50484605)
(0 0.01586927 0.56730893)
(0 0.016509347 0.57051632)
(0 0.015450259 0.55779327)
(0 0.014293742 0.54737541)
(0 0.013302157 0.5406608)
(0 0.01235385 0.53585027)
(0 0.011396358 0.53204318)
(0 0.010426617 0.52894118)
(0 0.0094473151 0.52639759)
(0 0.008462286 0.52430666)
(0 0.0074744813 0.5225893)
(0 0.0064864038 0.52118688)
(0 0.0055000457 0.52005568)
(0 0.0045168155 0.51916299)
(0 0.0035376381 0.51848459)
(0 0.0025630405 0.51800299)
(0 0.0015932771 0.51770637)
(0 0.00062843169 0.51758786)
(0 -0.00033142506 0.5176451)
(0 -0.0012861301 0.51788026)
(0 -0.0022352747 0.51830008)
(0 -0.0031780763 0.5189163)
(0 -0.0041132135 0.51974646)
(0 -0.0050386868 0.5208151)
(0 -0.0059516482 0.52215559)
(0 -0.0068482701 0.52381303)
(0 -0.0077237542 0.52584841)
(0 -0.0085717417 0.52834416)
(0 -0.0093857621 0.53141366)
(0 -0.010160105 0.53525816)
(0 -0.010909861 0.54043774)
(0 -0.011697083 0.54825009)
(0 -0.012377095 0.55849323)
(0 -0.011994368 0.55865831)
(0 -0.0087707967 0.51071956)
(0 -0.002445765 0.36806792)
(0 0.00067399875 0.13376807)
(0 -7.4825008e-05 0.11863734)
(0 0.0028274566 0.34179417)
(0 0.0098492781 0.49944626)
(0 0.014357297 0.56485477)
(0 0.015316868 0.57064378)
(0 0.014510991 0.55878878)
(0 0.013496179 0.54837599)
(0 0.012606882 0.54157977)
(0 0.011751595 0.53675729)
(0 0.010879352 0.5329653)
(0 0.0099853957 0.52987892)
(0 0.009073336 0.52734706)
(0 0.0081480694 0.52526415)
(0 0.0072134747 0.52355157)
(0 0.0062729696 0.52215121)
(0 0.0053294104 0.52101991)
(0 0.0043850544 0.52012551)
(0 0.0034416637 0.51944422)
(0 0.0025005937 0.5189589)
(0 0.0015629202 0.51865795)
(0 0.00062954654 0.51853459)
(0 -0.00029864508 0.51858644)
(0 -0.001220677 0.51881547)
(0 -0.0021353302 0.51922813)
(0 -0.0030410114 0.51983569)
(0 -0.0039355865 0.52065508)
(0 -0.0048162374 0.52171006)
(0 -0.0056792904 0.52303311)
(0 -0.0065200555 0.52466824)
(0 -0.0073328371 0.52667533)
(0 -0.008110301 0.52913564)
(0 -0.0088448517 0.53216333)
(0 -0.0095308913 0.5359719)
(0 -0.010181531 0.54114722)
(0 -0.010842247 0.54890249)
(0 -0.011322114 0.55850602)
(0 -0.010662103 0.55667838)
(0 -0.0074242819 0.50620402)
(0 -0.001737331 0.36373738)
(0 0.00055619557 0.13303551)
(0 -1.830318e-05 0.11765221)
(0 0.0023000021 0.33762731)
(0 0.0085200376 0.49447411)
(0 0.012923684 0.56230879)
(0 0.014161572 0.57050864)
(0 0.01360557 0.55959082)
(0 0.012736099 0.54925499)
(0 0.011946325 0.54240257)
(0 0.011178498 0.5375778)
(0 0.010385669 0.53380966)
(0 0.0095621926 0.5307475)
(0 0.0087127566 0.52823502)
(0 0.0078433402 0.52616677)
(0 0.0069587501 0.52446469)
(0 0.0060632558 0.52307129)
(0 0.0051604887 0.52194398)
(0 0.0042534565 0.52105116)
(0 0.0033446566 0.52036949)
(0 0.0024361713 0.51988219)
(0 0.0015297986 0.51957789)
(0 0.00062716296 0.51944988)
(0 -0.00027014062 0.51949578)
(0 -0.0011604233 0.51971739)
(0 -0.0020417655 0.52012083)
(0 -0.0029118831 0.52071694)
(0 -0.0037679635 0.52152202)
(0 -0.0046065204 0.52255907)
(0 -0.0054232238 0.52385962)
(0 -0.0062127116 0.52546665)
(0 -0.0069685858 0.52743876)
(0 -0.0076827607 0.52985606)
(0 -0.0083467201 0.53283377)
(0 -0.0089548939 0.5365971)
(0 -0.0095175721 0.54174888)
(0 -0.010061259 0.54939494)
(0 -0.010356723 0.55829688)
(0 -0.0094623154 0.55458515)
(0 -0.0062503487 0.50200245)
(0 -0.0011789139 0.36009414)
(0 0.00044101056 0.13255527)
(0 1.6687494e-05 0.11688333)
(0 0.0018387871 0.33414119)
(0 0.0073128174 0.48992385)
(0 0.011581297 0.55970514)
(0 0.013059271 0.57013132)
(0 0.012745532 0.56020095)
(0 0.012022198 0.55001273)
(0 0.011328193 0.54313353)
(0 0.010641522 0.53831772)
(0 0.0099216108 0.53458205)
(0 0.0091627759 0.53155212)
(0 0.0083708543 0.52906599)
(0 0.0075528806 0.52701835)
(0 0.0067145579 0.52533187)
(0 0.0058609325 0.52394973)
(0 0.0049963234 0.52283002)
(0 0.0041243978 0.52194168)
(0 0.0032482973 0.52126186)
(0 0.0023707428 0.52077412)
(0 0.0014941689 0.52046733)
(0 0.00062083641 0.52033489)
(0 -0.00024703091 0.52037437)
(0 -0.0011071199 0.52058743)
(0 -0.0019569026 0.52097989)
(0 -0.0027935036 0.52156215)
(0 -0.0036135439 0.52234993)
(0 -0.0044129984 0.52336546)
(0 -0.0051870314 0.52463937)
(0 -0.0059297918 0.52621354)
(0 -0.0066343881 0.52814532)
(0 -0.0072922495 0.53051359)
(0 -0.0078942554 0.5334348)
(0 -0.0084348994 0.53714476)
(0 -0.0089211779 0.54225378)
(0 -0.0093596131 0.54974195)
(0 -0.0094904829 0.55789593)
(0 -0.008405564 0.55241945)
(0 -0.0052518055 0.49811286)
(0 -0.00076272294 0.35704882)
(0 0.00033431896 0.13226016)
(0 3.4651158e-05 0.11631178)
(0 0.0014439816 0.33126407)
(0 0.0062348852 0.48578082)
(0 0.010346302 0.55707224)
(0 0.012026496 0.56953397)
(0 0.011941157 0.56062485)
(0 0.011360165 0.55065211)
(0 0.010756093 0.54377837)
(0 0.010143073 0.53898391)
(0 0.0094887897 0.53528893)
(0 0.0087882047 0.5322985)
(0 0.0080482386 0.52984496)
(0 0.0072768704 0.5278232)
(0 0.0064806191 0.52615679)
(0 0.0056652145 0.52478971)
(0 0.0048355757 0.52368074)
(0 0.0039959472 0.52279943)
(0 0.0031500367 0.52212341)
(0 0.0023011305 0.5216366)
(0 0.001452229 0.52132808)
(0 0.00060616152 0.52119136)
(0 -0.00023428582 0.521224)
(0 -0.0010662422 0.5214275)
(0 -0.0018866398 0.52180742)
(0 -0.0026920831 0.52237373)
(0 -0.003478706 0.52314161)
(0 -0.0042420361 0.52413257)
(0 -0.0049768422 0.52537636)
(0 -0.0056769285 0.52691381)
(0 -0.0063351008 0.528801)
(0 -0.0069425701 0.53111566)
(0 -0.0074899934 0.53397558)
(0 -0.0079721421 0.5376256)
(0 -0.0083927906 0.54267405)
(0 -0.0087391981 0.54996122)
(0 -0.0087290607 0.55733607)
(0 -0.0074988823 0.55021918)
(0 -0.0044306737 0.49452668)
(0 -0.00047966629 0.35450758)
(0 0.00024180937 0.13208881)
(0 3.9991193e-05 0.11591511)
(0 0.0011209099 0.3289188)
(0 0.0052993892 0.48202344)
(0 0.0092373117 0.55443616)
(0 0.01107901 0.56874322)
(0 0.011199774 0.56087428)
(0 0.010751442 0.55117992)
(0 0.01022897 0.54434472)
(0 0.0096810168 0.53958422)
(0 0.009084499 0.53593741)
(0 0.0084353857 0.53299283)
(0 0.0077414624 0.53057732)
(0 0.007011466 0.52858603)
(0 0.0062526135 0.52694359)
(0 0.005471221 0.52559488)
(0 0.0046727316 0.52449942)
(0 0.003861901 0.52362739)
(0 0.0030429431 0.52295687)
(0 0.0022196538 0.52247214)
(0 0.0013955464 0.52216251)
(0 0.00057396721 0.52202161)
(0 -0.00024178361 0.52204696)
(0 -0.0010483231 0.52223995)
(0 -0.0018420859 0.52260585)
(0 -0.0026191958 0.52315428)
(0 -0.0033753361 0.52389988)
(0 -0.004105625 0.52486351)
(0 -0.0048044812 0.5260741)
(0 -0.0054654296 0.52757149)
(0 -0.0060810843 0.52941059)
(0 -0.0066426272 0.5316681)
(0 -0.0071408202 0.53446335)
(0 -0.0075710419 0.53804859)
(0 -0.0079345385 0.54302142)
(0 -0.0082019323 0.55007256)
(0 -0.0080766546 0.55665263)
(0 -0.0067465084 0.54802)
(0 -0.0037863104 0.49122919)
(0 -0.00031472845 0.35237407)
(0 0.00016725654 0.1319871)
(0 3.6918501e-05 0.11566466)
(0 0.00087609221 0.32702053)
(0 0.0045235693 0.47862373)
(0 0.0082756154 0.55182354)
(0 0.010233247 0.56779276)
(0 0.010528319 0.56096869)
(0 0.010196869 0.55160728)
(0 0.0097456277 0.54484185)
(0 0.0092537598 0.54012713)