/*--------------------------------*- C++ -*----------------------------------*\
  =========                 |
  \\      /  F ield         | OpenFOAM: The Open Source CFD Toolbox
   \\    /   O peration     | Website:  https://openfoam.org
    \\  /    A nd           | Version:  10
     \\/     M anipulation  |
\*---------------------------------------------------------------------------*/
FoamFile
{
    format      ascii;
    class       volVectorField;
    location    "0.07";
    object      U_0;
}
// * * * * * * * * * * * * * * * * * * * * * * * * * * * * * * * * * * * * * //

dimensions      [0 1 -1 0 0 0 0];

internalField   nonuniform List<vector> 
4000
(
(0 0.018624593 0.47773794)
(0 0.023486123 0.50885701)
(0 0.0081452369 0.50052601)
(0 0.0055932851 0.50033695)
(0 0.0042319582 0.50025758)
(0 0.0032319238 0.50016895)
(0 0.0025334118 0.50011958)
(0 0.0020326434 0.50008994)
(0 0.0016557078 0.50006955)
(0 0.0013627168 0.50005508)
(0 0.001129253 0.50004464)
(0 0.00093894143 0.50003694)
(0 0.00078049811 0.50003117)
(0 0.00064592209 0.50002681)
(0 0.00052936343 0.50002351)
(0 0.00042642283 0.50002101)
(0 0.00033369684 0.50001915)
(0 0.00024846935 0.5000178)
(0 0.00016849489 0.5000169)
(0 9.1839644e-05 0.50001638)
(0 1.6759508e-05 0.50001623)
(0 -5.8409444e-05 0.50001642)
(0 -0.00013534174 0.50001698)
(0 -0.0002158145 0.50001794)
(0 -0.00030182089 0.50001935)
(0 -0.00039570003 0.5000213)
(0 -0.0005003101 0.50002393)
(0 -0.00061926873 0.50002741)
(0 -0.00075730223 0.50003203)
(0 -0.00092077699 0.50003818)
(0 -0.0011185529 0.50004648)
(0 -0.0013633525 0.5000579)
(0 -0.0016740051 0.50007389)
(0 -0.0020809553 0.50009695)
(0 -0.0026402581 0.5001348)
(0 -0.0034344552 0.50020258)
(0 -0.0045287991 0.5002723)
(0 -0.0065536837 0.50043488)
(0 -0.017626669 0.5067493)
(0 -0.013573094 0.47976491)
(0 0.037396949 0.44801275)
(0 0.050882995 0.53232107)
(0 0.021897334 0.50804357)
(0 0.016067408 0.50357724)
(0 0.012343685 0.50242427)
(0 0.009443052 0.50162271)
(0 0.0074490233 0.50115547)
(0 0.0060007027 0.50086401)
(0 0.0048988081 0.50066545)
(0 0.0040386497 0.50052592)
(0 0.0033511341 0.5004255)
(0 0.0027892045 0.50035162)
(0 0.002320396 0.5002964)
(0 0.0019215472 0.50025473)
(0 0.0015756318 0.50022315)
(0 0.0012697985 0.50019929)
(0 0.00099407403 0.50018152)
(0 0.00074047847 0.5001687)
(0 0.00050240038 0.50016008)
(0 0.0002741356 0.50015515)
(0 5.0531955e-05 0.50015365)
(0 -0.00017332337 0.50015551)
(0 -0.00040237475 0.50016083)
(0 -0.00064186997 0.50016995)
(0 -0.00089768456 0.5001834)
(0 -0.0011767008 0.50020204)
(0 -0.0014873073 0.50022711)
(0 -0.0018400898 0.50026041)
(0 -0.0022488276 0.5003046)
(0 -0.0027319835 0.50036357)
(0 -0.0033150857 0.50044329)
(0 -0.0040347039 0.50055327)
(0 -0.0049441766 0.50070865)
(0 -0.0061236854 0.50093507)
(0 -0.0077223919 0.50129418)
(0 -0.010017104 0.50191242)
(0 -0.013004631 0.50283137)
(0 -0.017323214 0.50608446)
(0 -0.038657399 0.52526069)
(0 -0.027845139 0.45028151)
(0 0.039833829 0.40993893)
(0 0.061302358 0.54932133)
(0 0.031848588 0.52187791)
(0 0.024232975 0.5100881)
(0 0.019065086 0.50659138)
(0 0.014848552 0.50452703)
(0 0.011880863 0.50326777)
(0 0.0096505384 0.50245253)
(0 0.0079213331 0.50189337)
(0 0.0065572988 0.50149946)
(0 0.0054579773 0.50121494)
(0 0.0045536566 0.50100508)
(0 0.003795445 0.50084799)
(0 0.0031478161 0.50072928)
(0 0.0025843255 0.50063921)
(0 0.0020848268 0.50057112)
(0 0.0016335637 0.50052037)
(0 0.0012178481 0.50048375)
(0 0.00082711304 0.50045909)
(0 0.00045220458 0.50044499)
(0 8.483086e-05 0.5004407)
(0 -0.00028292109 0.50044599)
(0 -0.00065901495 0.5004612)
(0 -0.0010518899 0.50048723)
(0 -0.0014709625 0.50052563)
(0 -0.0019272128 0.50057881)
(0 -0.0024339437 0.5006503)
(0 -0.0030078183 0.50074519)
(0 -0.0036703287 0.50087094)
(0 -0.0044499185 0.50103851)
(0 -0.0053851973 0.5012645)
(0 -0.0065304611 0.50157514)
(0 -0.0079633368 0.50201269)
(0 -0.0097884875 0.50264573)
(0 -0.01217904 0.50361402)
(0 -0.015524353 0.50520401)
(0 -0.019690341 0.50786717)
(0 -0.024994648 0.51641308)
(0 -0.047237931 0.53914254)
(0 -0.030773594 0.41505672)
(0 0.034723507 0.36196356)
(0 0.063656357 0.55462799)
(0 0.039166498 0.53745965)
(0 0.029895055 0.51849964)
(0 0.023919786 0.51198174)
(0 0.019087689 0.50849665)
(0 0.015548989 0.5062561)
(0 0.012774137 0.50474283)
(0 0.010573191 0.50368812)
(0 0.0088089738 0.50293672)
(0 0.0073681431 0.50238905)
(0 0.0061707922 0.50198254)
(0 0.0051588995 0.50167686)
(0 0.0042890256 0.50144504)
(0 0.0035282017 0.50126866)
(0 0.0028509163 0.50113503)
(0 0.0022369556 0.50103525)
(0 0.0016698681 0.50096316)
(0 0.0011358347 0.50091455)
(0 0.00062280478 0.50088673)
(0 0.00011981281 0.50087821)
(0 -0.00038362614 0.5008886)
(0 -0.00089806297 0.50091853)
(0 -0.0014346446 0.50096973)
(0 -0.0020057422 0.50104521)
(0 -0.0026256731 0.50114961)
(0 -0.003311615 0.50128969)
(0 -0.0040848196 0.50147519)
(0 -0.004972286 0.50172021)
(0 -0.0060090709 0.50204531)
(0 -0.0072413932 0.50248113)
(0 -0.0087319099 0.50307484)
(0 -0.010568547 0.5039014)
(0 -0.012858728 0.50507758)
(0 -0.015738506 0.50680321)
(0 -0.019612077 0.50947519)
(0 -0.02445285 0.51429149)
(0 -0.030809205 0.52824006)
(0 -0.050052389 0.54415292)
(0 -0.028330701 0.37273049)
(0 0.02734756 0.31522553)
(0 0.062074475 0.55040089)
(0 0.044307295 0.55145162)
(0 0.033712542 0.52748642)
(0 0.027196895 0.51772657)
(0 0.022190855 0.51291362)
(0 0.018379833 0.50971602)
(0 0.01528179 0.50746983)
(0 0.012773595 0.50587102)
(0 0.010725728 0.50471282)
(0 0.009026452 0.50385769)
(0 0.0075966085 0.50321703)
(0 0.0063759315 0.50273183)
(0 0.0053177653 0.50236179)
(0 0.0043858702 0.50207903)
(0 0.0035516214 0.50186404)
(0 0.0027919433 0.50170308)
(0 0.0020877873 0.50158653)
(0 0.0014229674 0.50150781)
(0 0.00078324236 0.50146267)
(0 0.00015557419 0.50144878)
(0 -0.00047253783 0.50146551)
(0 -0.0011136704 0.50151385)
(0 -0.0017810562 0.50159654)
(0 -0.0024892778 0.50171829)
(0 -0.0032550444 0.50188634)
(0 -0.0040981471 0.50211117)
(0 -0.0050426801 0.50240778)
(0 -0.0061186607 0.50279757)
(0 -0.0073642037 0.50331137)
(0 -0.0088280094 0.50399406)
(0 -0.010573039 0.50491246)
(0 -0.012686767 0.50616977)
(0 -0.015274132 0.50792153)
(0 -0.018423654 0.51039506)
(0 -0.022498385 0.51406281)
(0 -0.027781125 0.52115536)
(0 -0.035265782 0.53931052)
(0 -0.050113053 0.5417608)
(0 -0.023955175 0.33114002)
(0 0.019756515 0.27575667)
(0 0.057692781 0.54005517)
(0 0.046950764 0.56255753)
(0 0.036108871 0.53658313)
(0 0.029282262 0.5235059)
(0 0.024328845 0.51739102)
(0 0.020437743 0.51333684)
(0 0.017188362 0.51040734)
(0 0.014511642 0.50827798)
(0 0.012285729 0.50670794)
(0 0.010408721 0.50553245)
(0 0.0088082514 0.50464221)
(0 0.0074263639 0.50396212)
(0 0.0062169243 0.50343983)
(0 0.0051432483 0.50303851)
(0 0.004175683 0.50273201)
(0 0.0032898514 0.50250174)
(0 0.0024652971 0.50233453)
(0 0.001684399 0.50222134)
(0 0.00093148758 0.50215628)
(0 0.00019211303 0.50213614)
(0 -0.00054762439 0.50216002)
(0 -0.0013017051 0.5022293)
(0 -0.0020847681 0.50234776)
(0 -0.002912815 0.50252192)
(0 -0.0038039677 0.50276167)
(0 -0.0047793779 0.50308127)
(0 -0.0058643419 0.50350089)
(0 -0.0070897079 0.50404894)
(0 -0.0084937885 0.50476562)
(0 -0.010124355 0.50570829)
(0 -0.012040316 0.50695967)
(0 -0.01432256 0.50864345)
(0 -0.017074263 0.51094226)
(0 -0.020350596 0.51410021)
(0 -0.024448518 0.51873156)
(0 -0.029970008 0.52821699)
(0 -0.038027905 0.54870743)
(0 -0.048043332 0.53438721)
(0 -0.018916549 0.29480855)
(0 0.012999168 0.24331676)
(0 0.051446212 0.52571828)
(0 0.047179454 0.57027447)
(0 0.037269102 0.54547288)
(0 0.030394754 0.52927323)
(0 0.02563104 0.52177907)
(0 0.021810729 0.51695643)
(0 0.018547107 0.5134166)
(0 0.015811909 0.51079563)
(0 0.013496118 0.50883262)
(0 0.011512852 0.50734395)
(0 0.0097990792 0.50620436)
(0 0.0083017851 0.50532587)
(0 0.0069779121 0.50464616)
(0 0.0057924089 0.50412067)
(0 0.0047162575 0.50371734)
(0 0.0037251138 0.50341309)
(0 0.0027981857 0.50319145)
(0 0.0019172933 0.503041)
(0 0.0010660799 0.5029543)
(0 0.00022934103 0.50292724)
(0 -0.00060760212 0.50295869)
(0 -0.0014595093 0.5030504)
(0 -0.0023417556 0.50320715)
(0 -0.0032709993 0.50343719)
(0 -0.0042658711 0.50375293)
(0 -0.0053477817 0.50417216)
(0 -0.0065418799 0.50471976)
(0 -0.0078781844 0.50543026)
(0 -0.0093931748 0.50635186)
(0 -0.011131597 0.50755216)
(0 -0.013146396 0.50912663)
(0 -0.015507762 0.51121392)
(0 -0.018312614 0.51401494)
(0 -0.021594231 0.51780063)
(0 -0.025591731 0.52345005)
(0 -0.031139295 0.53532008)
(0 -0.038975267 0.55590104)
(0 -0.044322944 0.52350908)
(0 -0.013923675 0.26385818)
(0 0.0076841351 0.21653146)
(0 0.044418609 0.50880516)
(0 0.04559813 0.57447581)
(0 0.037406997 0.55366032)
(0 0.030712371 0.53491834)
(0 0.026216531 0.52599102)
(0 0.02258603 0.52047591)
(0 0.019417609 0.51640528)
(0 0.016711322 0.51334237)
(0 0.014378377 0.51101768)
(0 0.012349934 0.50923503)
(0 0.010573424 0.50785683)
(0 0.0090025055 0.50678515)
(0 0.0075988754 0.50594982)
(0 0.0063305213 0.5053)
(0 0.0051702808 0.50479867)
(0 0.0040948909 0.50441887)
(0 0.0030841112 0.50414124)
(0 0.002119964 0.50395223)
(0 0.0011860735 0.50384298)
(0 0.00026708808 0.50380857)
(0 -0.00065186957 0.50384763)
(0 -0.0015857553 0.50396226)
(0 -0.0025500633 0.50415818)
(0 -0.003561428 0.50444516)
(0 -0.0046382114 0.5048379)
(0 -0.0058011805 0.50535725)
(0 -0.0070742905 0.50603212)
(0 -0.0084855308 0.50690223)
(0 -0.010068107 0.50802225)
(0 -0.011862166 0.50946803)
(0 -0.013913605 0.5113454)
(0 -0.016279311 0.51380422)
(0 -0.019042814 0.51705543)
(0 -0.022222658 0.52141329)
(0 -0.026035129 0.52812739)
(0 -0.03144135 0.54210366)
(0 -0.03841752 0.56056379)
(0 -0.039648653 0.51015106)
(0 -0.009525777 0.23746887)
(0 0.0039173918 0.19479883)
(0 0.037437125 0.49063521)
(0 0.042891756 0.57545102)
(0 0.036773167 0.56071128)
(0 0.030437776 0.54027613)
(0 0.026236805 0.52994619)
(0 0.022865923 0.52381103)
(0 0.019867941 0.51929579)
(0 0.017255725 0.51585048)
(0 0.014963299 0.51320457)
(0 0.012939876 0.51115549)
(0 0.011143515 0.50955696)
(0 0.0095355839 0.50830392)
(0 0.0080834973 0.50732036)
(0 0.0067591526 0.50655061)
(0 0.0055380808 0.5059537)
(0 0.0043988646 0.50549956)
(0 0.0033225007 0.5051664)
(0 0.0022918304 0.50493888)
(0 0.0012910232 0.50480693)
(0 0.00030510777 0.50476493)
(0 -0.0006804816 0.50481131)
(0 -0.0016803835 0.50494846)
(0 -0.0027096773 0.50518289)
(0 -0.0037843997 0.5055257)
(0 -0.0049220141 0.5059935)
(0 -0.0061419417 0.50660968)
(0 -0.0074661658 0.50740644)
(0 -0.0089198129 0.50842764)
(0 -0.010531864 0.50973298)
(0 -0.012336733 0.51140456)
(0 -0.01437274 0.51355602)
(0 -0.016683216 0.51634448)
(0 -0.019334456 0.51998403)
(0 -0.022337189 0.52485258)
(0 -0.025920238 0.53262295)
(0 -0.031061687 0.54819566)
(0 -0.036788849 0.56271413)
(0 -0.034623675 0.49535157)
(0 -0.0060029728 0.21531649)
(0 0.0014629855 0.17765055)
(0 0.030979545 0.47234486)
(0 0.039587709 0.57377063)
(0 0.035582465 0.56642326)
(0 0.029755764 0.54523145)
(0 0.025849849 0.53360061)
(0 0.022761404 0.52690387)
(0 0.01997472 0.52202823)
(0 0.017499252 0.51826597)
(0 0.015289066 0.51534535)
(0 0.013309183 0.513063)
(0 0.011527513 0.5112677)
(0 0.0099132777 0.50984992)
(0 0.0084398688 0.50872971)
(0 0.0070834945 0.50784796)
(0 0.0058228681 0.50716079)
(0 0.0046389152 0.50663579)
(0 0.0035143531 0.50624926)
(0 0.0024333074 0.50598447)
(0 0.0013809376 0.50583034)
(0 0.00034308167 0.50578069)
(0 -0.00069409212 0.50583379)
(0 -0.0017444804 0.50599225)
(0 -0.0028223129 0.50626323)
(0 -0.0039425748 0.5066589)
(0 -0.0051213532 0.50719737)
(0 -0.0063762217 0.50790403)
(0 -0.0077266683 0.50881358)
(0 -0.0091944647 0.50997294)
(0 -0.01080394 0.51144544)
(0 -0.012583302 0.5133174)
(0 -0.014563417 0.5157075)
(0 -0.016775619 0.51877621)
(0 -0.019269288 0.52273822)
(0 -0.022054066 0.52806107)
(0 -0.025388206 0.5368316)
(0 -0.030160764 0.55337327)
(0 -0.034460487 0.56265329)
(0 -0.029646262 0.48006249)
(0 -0.0033774607 0.19718038)
(0 -9.8375969e-06 0.16434024)
(0 0.025288053 0.45470769)
(0 0.036052774 0.57006121)
(0 0.034004492 0.57077993)
(0 0.02880378 0.54973239)
(0 0.025186148 0.53695409)
(0 0.022373153 0.52973441)
(0 0.0198132 0.5245692)
(0 0.017498314 0.52055338)
(0 0.015397303 0.5174055)
(0 0.01348818 0.51492519)
(0 0.011747388 0.51295944)
(0 0.010151381 0.51139641)
(0 0.0086792178 0.51015383)
(0 0.0073114185 0.50917043)
(0 0.0060300537 0.50840043)
(0 0.0048186435 0.50780973)
(0 0.0036619211 0.50737332)
(0 0.0025456121 0.50707338)
(0 0.0014561892 0.50689812)
(0 0.00038062406 0.5068409)
(0 -0.00069385534 0.50689986)
(0 -0.0017800754 0.50707781)
(0 -0.0028910869 0.50738235)
(0 -0.0040404923 0.50782648)
(0 -0.005242676 0.5084294)
(0 -0.0065130544 0.50921793)
(0 -0.007868343 0.51022853)
(0 -0.0093267754 0.51151016)
(0 -0.010908051 0.51312848)
(0 -0.012634332 0.5151723)
(0 -0.014529569 0.51776287)
(0 -0.01661512 0.52106106)
(0 -0.018926021 0.52528505)
(0 -0.021476753 0.53101883)
(0 -0.024552725 0.54069577)
(0 -0.028868446 0.55755131)
(0 -0.031725036 0.56079042)
(0 -0.024965922 0.46498324)
(0 -0.0015348116 0.18260219)
(0 -0.00079968068 0.15404653)
(0 0.02045702 0.43816342)
(0 0.032535406 0.56488303)
(0 0.032180557 0.57386077)
(0 0.027679884 0.55375639)
(0 0.024342645 0.54002615)
(0 0.021783078 0.53230987)
(0 0.01944916 0.52690838)
(0 0.017305055 0.52269459)
(0 0.01532847 0.51936364)
(0 0.013507814 0.51671968)
(0 0.011826594 0.51461016)
(0 0.010267495 0.5129224)
(0 0.0088146138 0.51157307)
(0 0.0074525077 0.51049979)
(0 0.0061665336 0.50965567)
(0 0.0049428568 0.50900559)
(0 0.0037683591 0.50852366)
(0 0.0026305465 0.50819136)
(0 0.0015174132 0.50799638)
(0 0.00041728757 0.50793177)
(0 -0.00068131258 0.50799557)
(0 -0.001789911 0.50819069)
(0 -0.0029201536 0.50852508)
(0 -0.0040840455 0.50901226)
(0 -0.0052940789 0.50967216)
(0 -0.006563371 0.51053252)
(0 -0.0079057939 0.51163087)
(0 -0.0093360927 0.51301735)
(0 -0.010869635 0.51475889)
(0 -0.012523061 0.51694549)
(0 -0.014314129 0.51969918)
(0 -0.016256019 0.52317944)
(0 -0.018372876 0.52761459)
(0 -0.020689033 0.53372552)
(0 -0.023502811 0.54418005)
(0 -0.027299135 0.56072664)
(0 -0.028812666 0.55753395)
(0 -0.020733585 0.45056286)
(0 -0.00031729264 0.1709981)
(0 -0.0011425554 0.14607465)
(0 0.016476066 0.42293511)
(0 0.029189038 0.55870705)
(0 0.030226521 0.57579396)
(0 0.026455678 0.5572943)
(0 0.023390308 0.54283743)
(0 0.021055948 0.53464895)
(0 0.0189372 0.52904887)
(0 0.016964561 0.52468324)
(0 0.015119153 0.5212083)
(0 0.013397328 0.51843223)
(0 0.011788195 0.51620431)
(0 0.010279574 0.51441204)
(0 0.0088598559 0.51297185)
(0 0.0075172125 0.51182098)
(0 0.0062400575 0.51091209)
(0 0.0050171098 0.51020958)
(0 0.0038374058 0.50968704)
(0 0.0026903007 0.50932557)
(0 0.0015654182 0.50911252)
(0 0.00045257515 0.50904075)
(0 -0.00065827926 0.50910823)
(0 -0.001777222 0.50931792)
(0 -0.0029143613 0.50967797)
(0 -0.0040799921 0.51020217)
(0 -0.0052846394 0.51091087)
(0 -0.0065391081 0.51183229)
(0 -0.0078545028 0.51300443)
(0 -0.0092422761 0.51447798)
(0 -0.010713889 0.5163203)
(0 -0.012281144 0.5186217)
(0 -0.013956425 0.5215037)
(0 -0.015746358 0.52512375)
(0 -0.017667857 0.52972875)
(0 -0.019758681 0.53618583)
(0 -0.022310434 0.5472604)
(0 -0.025553886 0.56294933)
(0 -0.025892266 0.55325801)
(0 -0.017020876 0.43707733)
(0 0.00043266099 0.16182663)
(0 -0.0012113399 0.13987725)
(0 0.013266899 0.40911321)
(0 0.026091387 0.55191974)
(0 0.028228236 0.57673418)
(0 0.025181301 0.56035128)
(0 0.022379745 0.54540621)
(0 0.020242127 0.53677388)
(0 0.018321711 0.53100049)
(0 0.016514749 0.52651994)
(0 0.014801283 0.52293465)
(0 0.013183184 0.52005455)
(0 0.011653771 0.51773152)
(0 0.010204953 0.51585378)
(0 0.008828663 0.51433809)
(0 0.0075162024 0.51312185)
(0 0.0062587283 0.51215769)
(0 0.0050473336 0.5114099)
(0 0.003873127 0.51085192)
(0 0.0027272967 0.51046466)
(0 0.0016011229 0.51023532)
(0 0.0004859642 0.51015668)
(0 -0.00062673183 0.51022662)
(0 -0.001745528 0.51044811)
(0 -0.0028789414 0.51082936)
(0 -0.0040355271 0.51138428)
(0 -0.0052238553 0.51213332)
(0 -0.0064524957 0.51310481)
(0 -0.0077299562 0.51433685)
(0 -0.0090646802 0.51588007)
(0 -0.010464694 0.51780175)
(0 -0.011937697 0.52019183)
(0 -0.013491583 0.52317052)
(0 -0.015127956 0.52689369)
(0 -0.016859825 0.53163545)
(0 -0.018739791 0.53840639)
(0 -0.02103247 0.54992665)
(0 -0.023714954 0.56430768)
(0 -0.023073462 0.54829193)
(0 -0.013837168 0.42468632)
(0 0.00085282046 0.15463094)
(0 -0.0011244678 0.13502118)
(0 0.010718165 0.3967005)
(0 0.023267901 0.54482739)
(0 0.026242393 0.57684301)
(0 0.023888179 0.56294573)
(0 0.021344315 0.54774915)
(0 0.019378967 0.53870759)
(0 0.01763771 0.53277678)
(0 0.015986814 0.52820967)
(0 0.01440211 0.52454236)
(0 0.012888696 0.52158272)
(0 0.0114429 0.51918538)
(0 0.01005979 0.51723964)
(0 0.0087341457 0.51566287)
(0 0.0074599044 0.51439292)
(0 0.0062306235 0.51338273)
(0 0.0050395437 0.51259675)
(0 0.0038797083 0.5120085)
(0 0.0027440611 0.51159888)
(0 0.0016255052 0.51135509)
(0 0.00051693248 0.51126985)
(0 -0.00058870565 0.511341)
(0 -0.0016984528 0.51157148)
(0 -0.002819245 0.51196945)
(0 -0.0039579318 0.51254874)
(0 -0.0051212041 0.51332972)
(0 -0.0063155349 0.51434055)
(0 -0.0075470598 0.51561906)
(0 -0.0088215417 0.51721549)
(0 -0.010144052 0.5191966)
(0 -0.011518889 0.52165155)
(0 -0.012950314 0.52469881)
(0 -0.014436316 0.52849407)
(0 -0.015988566 0.53334654)
(0 -0.017673542 0.54039604)
(0 -0.019711373 0.55218294)
(0 -0.021844114 0.5649113)
(0 -0.020417859 0.54291187)
(0 -0.011150927 0.41346343)
(0 0.0010527092 0.14902458)
(0 -0.00095967645 0.1311696)
(0 0.0087101841 0.3856438)
(0 0.020712878 0.53766333)
(0 0.024302398 0.57627272)
(0 0.022593602 0.56510344)
(0 0.020303865 0.54988028)
(0 0.018492491 0.54047146)
(0 0.016911716 0.53439293)
(0 0.015405694 0.52976018)
(0 0.01394432 0.52603417)
(0 0.012533925 0.52301595)
(0 0.011172901 0.52056258)
(0 0.0098587365 0.51856451)
(0 0.0085884485 0.51693986)
(0 0.00735816 0.51562708)
(0 0.0061634904 0.51457961)
(0 0.004999587 0.51376224)
(0 0.0038612588 0.51314872)
(0 0.0027430903 0.51272011)
(0 0.0016395309 0.51246365)
(0 0.00054494612 0.51237209)
(0 -0.00054624391 0.51244323)
(0 -0.0016396066 0.51267994)
(0 -0.0027405628 0.51309023)
(0 -0.0038543304 0.51368775)
(0 -0.0049858431 0.51449259)
(0 -0.0061396511 0.51553254)
(0 -0.0073197675 0.51684491)
(0 -0.0085296119 0.5184793)
(0 -0.0097717515 0.52050169)
(0 -0.011047694 0.52300022)
(0 -0.012358811 0.52609153)
(0 -0.013700685 0.52993329)
(0 -0.015085279 0.53487576)
(0 -0.016589969 0.54216452)
(0 -0.018377675 0.55404336)
(0 -0.019985682 0.56487452)
(0 -0.017953735 0.53733813)
(0 -0.0089083981 0.40341922)
(0 0.0011131221 0.14468385)
(0 -0.00076695363 0.12807091)
(0 0.0071290567 0.37586018)
(0 0.01840432 0.53059995)
(0 0.022425096 0.57515794)
(0 0.021305778 0.56685235)
(0 0.01926903 0.55180947)
(0 0.017599906 0.54208315)
(0 0.016163169 0.53586378)
(0 0.014790829 0.53118044)
(0 0.013446362 0.52741466)
(0 0.012135726 0.52435567)
(0 0.010858728 0.52186211)
(0 0.0096147237 0.5198256)
(0 0.0084024887 0.51816495)
(0 0.0072199483 0.5168193)
(0 0.0060644788 0.51574265)
(0 0.0049328991 0.51490025)
(0 0.0038216046 0.51426619)
(0 0.0027266837 0.51382177)
(0 0.0016440257 0.51355435)
(0 0.00056939431 0.51345673)
(0 -0.00050141547 0.5135267)
(0 -0.0015725731 0.51376699)
(0 -0.0026480591 0.51418542)
(0 -0.0037315829 0.51479536)
(0 -0.0048264674 0.51561648)
(0 -0.0059355304 0.51667604)
(0 -0.0070609146 0.51801068)
(0 -0.0082040151 0.5196692)
(0 -0.0093652882 0.52171663)
(0 -0.010543946 0.52423997)
(0 -0.011739048 0.52735423)
(0 -0.012944748 0.53122154)
(0 -0.014174058 0.53623665)
(0 -0.015510842 0.54372081)
(0 -0.017053488 0.5555274)
(0 -0.018170905 0.56430578)
(0 -0.015688698 0.53173956)
(0 -0.007046865 0.39452255)
(0 0.0010899399 0.14134702)
(0 -0.0005773168 0.12554392)
(0 0.005874146 0.36725524)
(0 0.016313537 0.5237617)
(0 0.020616635 0.57361381)
(0 0.02002795 0.56821989)
(0 0.018244972 0.55354224)
(0 0.016712274 0.54355559)
(0 0.01540618 0.53720228)
(0 0.014157252 0.53247938)
(0 0.012923061 0.52868928)
(0 0.011708058 0.52560463)
(0 0.010513064 0.52308463)
(0 0.0093389345 0.52102187)
(0 0.0081858513 0.51933582)
(0 0.0070532425 0.51796625)
(0 0.0059399828 0.5168678)
(0 0.0048443491 0.51600622)
(0 0.0037641478 0.515356)
(0 0.0026968263 0.51489873)
(0 0.0016395922 0.51462196)
(0 0.00058950246 0.51451854)
(0 -0.0004563744 0.51458624)
(0 -0.0015009119 0.51482765)
(0 -0.0025467625 0.51525034)
(0 -0.0035962605 0.51586731)
(0 -0.0046512777 0.51669775)
(0 -0.0057130951 0.51776825)
(0 -0.0067822242 0.5191147)
(0 -0.0078583211 0.52078495)
(0 -0.0089400593 0.52284305)
(0 -0.010024735 0.52537476)
(0 -0.011109514 0.5284939)
(0 -0.012187845 0.53236946)
(0 -0.01327382 0.53744132)
(0 -0.014452604 0.54507263)
(0 -0.015755755 0.55665733)
(0 -0.016422151 0.56330278)
(0 -0.013619357 0.52624137)
(0 -0.0055038801 0.38671717)
(0 0.0010191505 0.13880886)
(0 -0.00040828801 0.12346195)
(0 0.0048616944 0.35973378)
(0 0.014411456 0.51723607)
(0 0.018877536 0.57173684)
(0 0.018761637 0.56923207)
(0 0.017234336 0.55508068)
(0 0.015836974 0.54489713)
(0 0.014651377 0.53841902)
(0 0.013516919 0.53366522)
(0 0.012386573 0.52986366)
(0 0.011262638 0.52676639)
(0 0.010146775 0.52423193)
(0 0.0090411085 0.52215363)
(0 0.0079470026 0.52045156)
(0 0.0068651677 0.5190661)
(0 0.0057957672 0.51795249)
(0 0.0047383501 0.51707702)
(0 0.00369197 0.51641464)
(0 0.0026552903 0.51594724)
(0 0.0016267094 0.51566259)
(0 0.00060445925 0.51555361)
(0 -0.00041322823 0.51561804)
(0 -0.0014280465 0.51585831)
(0 -0.002441449 0.51628173)
(0 -0.0034545348 0.51690085)
(0 -0.0044678898 0.51773431)
(0 -0.0054814496 0.51880799)
(0 -0.0064943168 0.52015691)
(0 -0.0075046589 0.52182795)
(0 -0.0085096344 0.52388408)
(0 -0.0095049125 0.52640982)
(0 -0.010486036 0.52951826)
(0 -0.011446222 0.53338742)
(0 -0.012400132 0.53850022)
(0 -0.013428865 0.54622689)
(0 -0.014498994 0.55745714)
(0 -0.01475671 0.56195094)
(0 -0.011738502 0.52093288)
(0 -0.0042239748 0.37993256)
(0 0.00092198942 0.13690997)
(0 -0.00026791099 0.12173911)
(0 0.0040259541 0.35320519)
(0 0.012672701 0.51108178)
(0 0.017207066 0.56960678)
(0 0.017509421 0.56991321)
(0 0.016239822 0.55642454)
(0 0.014980035 0.54611228)
(0 0.013907765 0.53952219)
(0 0.012880193 0.53474527)
(0 0.011847578 0.53094337)
(0 0.010809917 0.52784497)
(0 0.0097696983 0.5253066)
(0 0.0087302117 0.52322224)
(0 0.007693873 0.52151246)
(0 0.0066625236 0.52011823)
(0 0.0056374506 0.51899539)
(0 0.0046193165 0.5181108)
(0 0.0036082744 0.51743986)
(0 0.0026040674 0.51696479)
(0 0.001606158 0.51667359)
(0 0.00061383362 0.51655928)
(0 -0.00037362771 0.51661955)
(0 -0.0013568611 0.51685667)
(0 -0.0023362522 0.51727764)
(0 -0.0033118091 0.51789456)
(0 -0.0042829958 0.51872546)
(0 -0.0052485868 0.51979546)
(0 -0.0062064831 0.52113866)
(0 -0.0071535872 0.5228009)
(0 -0.0080857664 0.52484403)
(0 -0.0089972922 0.52735133)
(0 -0.0098822572 0.53043563)
(0 -0.010733879 0.53428552)
(0 -0.011566538 0.53942261)
(0 -0.01245222 0.54719054)
(0 -0.013297399 0.55795204)
(0 -0.01318995 0.56032365)
(0 -0.010039988 0.51587421)
(0 -0.0031633195 0.37409011)
(0 0.00080989616 0.13552459)
(0 -0.0001581089 0.12031891)
(0 0.0033187892 0.34758539)
(0 0.011078034 0.50533488)
(0 0.015606671 0.56728865)
(0 0.016277205 0.57028598)
(0 0.01526636 0.55757238)
(0 0.014148181 0.54720275)
(0 0.01318436 0.54051806)
(0 0.012257142 0.53572605)
(0 0.011316349 0.53193387)
(0 0.010359963 0.52884469)
(0 0.0093914012 0.5263119)
(0 0.0084150896 0.5242299)
(0 0.0074344408 0.52251978)
(0 0.0064523217 0.5211231)
(0 0.0054710118 0.51999632)
(0 0.0044921531 0.51910685)
(0 0.0035168661 0.51843056)
(0 0.0025458472 0.51795004)
(0 0.0015795029 0.5176535)
(0 0.00061805948 0.51753407)
(0 -0.00033827474 0.51758941)
(0 -0.0012891973 0.51782161)
(0 -0.0022341545 0.51823734)
(0 -0.0031722057 0.51884825)
(0 -0.0041018511 0.51967171)
(0 -0.0050208815 0.52073206)
(0 -0.0059261931 0.52206245)
(0 -0.0068136333 0.52370764)
(0 -0.0076779822 0.52572826)
(0 -0.0085123244 0.52820634)
(0 -0.0093094427 0.53125487)
(0 -0.010062607 0.53507392)
(0 -0.010784931 0.54021738)
(0 -0.011534914 0.54797158)
(0 -0.012165719 0.55816839)
(0 -0.011737084 0.55848351)
(0 -0.0085210839 0.51110234)
(0 -0.0022915443 0.36910645)
(0 0.00068910921 0.13455037)
(0 -7.7304284e-05 0.11916435)
(0 0.0027083227 0.34279625)
(0 0.009615553 0.50001332)
(0 0.014082084 0.56483487)
(0 0.015075379 0.57037173)
(0 0.014322238 0.55852279)
(0 0.013349828 0.54816868)
(0 0.012490795 0.54141157)
(0 0.011657855 0.53661358)
(0 0.010802883 0.53284066)
(0 0.0099224657 0.52977027)
(0 0.0090210881 0.52725164)
(0 0.0081043173 0.52517953)
(0 0.0071765414 0.52347562)
(0 0.00624157 0.52208211)
(0 0.0053025658 0.52095606)
(0 0.0043620338 0.52006548)
(0 0.0034219439 0.51938671)
(0 0.0024838321 0.51890272)
(0 0.0015489374 0.51860194)
(0 0.00061831669 0.51847762)
(0 -0.00030699966 0.51852736)
(0 -0.0012258851 0.5187531)
(0 -0.0021369675 0.51916118)
(0 -0.0030384902 0.51976276)
(0 -0.0039281388 0.5205746)
(0 -0.0048028878 0.52162021)
(0 -0.0056588165 0.52293176)
(0 -0.0064909249 0.5245529)
(0 -0.0072931138 0.52654298)
(0 -0.0080575123 0.52898272)
(0 -0.00877578 0.53198562)
(0 -0.0094412176 0.53576331)
(0 -0.010064748 0.54089412)
(0 -0.010687981 0.54858017)
(0 -0.011118409 0.55813404)
(0 -0.010413021 0.55648424)
(0 -0.0071825085 0.50663672)
(0 -0.0015900807 0.36489504)
(0 0.00056478944 0.13389936)
(0 -2.210237e-05 0.11824942)
(0 0.0021768034 0.33876333)
(0 0.0082809664 0.49512069)
(0 0.012643831 0.56228739)
(0 0.013918319 0.57019121)
(0 0.013418347 0.55927572)
(0 0.012594156 0.54901015)
(0 0.011836126 0.54220739)
(0 0.011091092 0.53741398)
(0 0.010315489 0.53366956)
(0 0.0095052722 0.5306268)
(0 0.0086661068 0.52813016)
(0 0.0078046822 0.5260747)
(0 0.0069263337 0.52438282)
(0 0.0060357332 0.52299742)
(0 0.0051368262 0.52187624)
(0 0.0042328763 0.52098789)
(0 0.0033265982 0.5203092)
(0 0.0024202659 0.5198235)
(0 0.0015158527 0.51951948)
(0 0.00061514952 0.51939047)
(0 -0.00028008769 0.51943406)
(0 -0.0011680083 0.51965201)
(0 -0.0020465287 0.52005035)
(0 -0.0029131923 0.52063978)
(0 -0.0037650014 0.52143642)
(0 -0.0045982653 0.52246299)
(0 -0.0054084192 0.52375068)
(0 -0.0061898191 0.52534198)
(0 -0.0069357075 0.52729491)
(0 -0.0076375279 0.52968885)
(0 -0.0082861052 0.53263805)
(0 -0.0088748005 0.53636507)
(0 -0.0094116896 0.54146376)
(0 -0.0099193728 0.54902953)
(0 -0.010167553 0.55787902)
(0 -0.0092308489 0.55437302)
(0 -0.0060269769 0.50248417)
(0 -0.0010480066 0.36136596)
(0 0.00044323177 0.13349258)
(0 1.181728e-05 0.11755247)
(0 0.0017178179 0.33541254)
(0 0.0070773309 0.49064927)
(0 0.01130646 0.55968035)
(0 0.012822328 0.56976597)
(0 0.012565596 0.55983427)
(0 0.011888435 0.54972885)
(0 0.011226209 0.54291096)
(0 0.010561795 0.538134)
(0 0.0098583972 0.53442693)
(0 0.0091120786 0.53141993)
(0 0.0083296733 0.52895231)
(0 0.0075189133 0.52691949)
(0 0.0066860178 0.52524478)
(0 0.0058364276 0.52387187)
(0 0.0049747751 0.52275921)
(0 0.0041049886 0.52187603)
(0 0.0032304359 0.52119967)
(0 0.0023540421 0.52071382)
(0 0.0014784312 0.52040743)
(0 0.00060604647 0.52027392)
(0 -0.00026071062 0.52031086)
(0 -0.0011193475 0.52051986)
(0 -0.0019671547 0.52090665)
(0 -0.0028010676 0.52148148)
(0 -0.0036175085 0.52225985)
(0 -0.0044122401 0.52326373)
(0 -0.0051801943 0.52452336)
(0 -0.00591526 0.52608008)
(0 -0.0066102372 0.52799057)
(0 -0.0072561704 0.53033286)
(0 -0.0078434289 0.53322214)
(0 -0.0083656079 0.53689076)
(0 -0.0088277339 0.54193862)
(0 -0.0092329628 0.54933629)
(0 -0.0093213053 0.55743626)
(0 -0.0082003891 0.55219292)
(0 -0.0050574272 0.49864259)
(0 -0.00065667135 0.35842456)
(0 0.00033141502 0.13325837)
(0 2.9133499e-05 0.11705118)
(0 0.0013329581 0.33266641)
(0 0.0060145581 0.48658267)
(0 0.010087556 0.55704344)
(0 0.011803538 0.56912085)
(0 0.011772354 0.56020672)
(0 0.011235717 0.55032969)
(0 0.010661892 0.54352929)
(0 0.010069725 0.53878128)
(0 0.0094307182 0.53511977)
(0 0.0087415399 0.53215574)
(0 0.0080100389 0.52972335)
(0 0.0072448329 0.52771846)
(0 0.0064529219 0.52606543)
(0 0.0056404158 0.52470883)
(0 0.0048125465 0.52360789)
(0 0.0039738271 0.52273247)
(0 0.0031282045 0.52206041)
(0 0.0022791851 0.52157578)
(0 0.0014299765 0.52126775)
(0 0.00058360915 0.52112988)
(0 -0.00025693211 0.52115971)
(0 -0.0010885742 0.52135868)
(0 -0.0019080427 0.52173226)
(0 -0.0027117254 0.52229028)
(0 -0.0034955284 0.52304767)
(0 -0.0042547384 0.52402566)
(0 -0.0049838683 0.5252536)
(0 -0.0056764517 0.52677177)
(0 -0.0063250058 0.52863553)
(0 -0.0069204151 0.53092167)
(0 -0.0074529686 0.53374651)
(0 -0.0079168067 0.53735078)
(0 -0.0083142869 0.54233122)
(0 -0.0086306745 0.54951994)
(0 -0.0085849515 0.55684172)
(0 -0.0073282074 0.54998455)
(0 -0.0042752311 0.49510297)
(0 -0.00040390108 0.35597155)
(0 0.00023558874 0.13313218)
(0 3.444376e-05 0.11671885)
(0 0.0010279108 0.33044068)
(0 0.0051083949 0.48289739)
(0 0.0090077228 0.55440556)
(0 0.010878095 0.56828693)
(0 0.011045108 0.56040859)
(0 0.010636336 0.55082167)
(0 0.010141343 0.54407111)
(0 0.0096124 0.53936426)
(0 0.009029681 0.53575552)
(0 0.00839062 0.53284069)
(0 0.0077038103 0.53044894)
(0 0.0069785582 0.52847662)
(0 0.0062225331 0.52684923)
(0 0.00544243 0.52551232)
(0 0.0046440177 0.52442592)
(0 0.0038323391 0.52356053)
(0 0.0030118682 0.52289449)
(0 0.0021866419 0.52241225)
(0 0.0013604008 0.52210321)
(0 0.00053671305 0.52196102)
(0 -0.00028090021 0.52198323)
(0 -0.0010888285 0.52217113)
(0 -0.0018832701 0.52252992)
(0 -0.0026600954 0.52306902)
(0 -0.0034147152 0.52380285)
(0 -0.004141954 0.52475197)
(0 -0.004835914 0.52594488)
(0 -0.0054897862 0.52742086)
(0 -0.0060958461 0.5292341)
(0 -0.0066449225 0.53146035)
(0 -0.0071274473 0.53421734)
(0 -0.0075384183 0.53775292)
(0 -0.007878443 0.54265267)
(0 -0.0081183129 0.5496011)
(0 -0.0079652262 0.55613309)
(0 -0.0066192566 0.54778525)
(0 -0.0036779687 0.49184833)
(0 -0.00027003711 0.35390585)
(0 0.00015928888 0.13305873)
(0 3.2290113e-05 0.11652207)
(0 0.0008081538 0.32864273)
(0 0.0043775293 0.47956218)
(0 0.0080913571 0.55179651)
(0 0.010065861 0.5673034)
(0 0.010394497 0.56046356)
(0 0.010095412 0.55121784)
(0 0.0096683384 0.54454621)