/*--------------------------------*- C++ -*----------------------------------*\
  =========                 |
  \\      /  F ield         | OpenFOAM: The Open Source CFD Toolbox
   \\    /   O peration     | Website:  https://openfoam.org
    \\  /    A nd           | Version:  10
     \\/     M anipulation  |
\*---------------------------------------------------------------------------*/
FoamFile
{
    format      ascii;
    class       surfaceScalarField;
    location    "0.3";
    object      phi;
}
// * * * * * * * * * * * * * * * * * * * * * * * * * * * * * * * * * * * * * //

dimensions      [1 0 -1 0 0 0 0];

internalField   nonuniform List<scalar> 
7860
(
3.9896005e-08
5.2881204e-07
1.2192738e-08
5.9641108e-07
7.4279161e-09
5.7347258e-07
5.4994343e-09
5.706362e-07
4.1150067e-09
5.7009211e-07
3.2011456e-09
5.6962152e-07
2.5591414e-09
5.6934965e-07
2.079301e-09
5.6918747e-07
1.709296e-09
5.6907762e-07
1.4166031e-09
5.690003e-07
1.1794269e-09
5.6894478e-07
9.8300484e-10
5.6890401e-07
8.1699345e-10
5.688736e-07
6.7390276e-10
5.6885067e-07
5.4815974e-10
5.6883332e-07
4.3550407e-10
5.6882023e-07
3.3258233e-10
5.6881049e-07
2.3666755e-10
5.6880349e-07
1.4545702e-10
5.6879878e-07
5.6919993e-11
5.6879611e-07
-3.0825941e-11
5.6879531e-07
-1.1962276e-10
5.6879637e-07
-2.113765e-10
5.6879932e-07
-3.0816414e-10
5.6880436e-07
-4.1236616e-10
5.6881177e-07
-5.2682916e-10
5.6882204e-07
-6.5508671e-10
5.6883584e-07
-8.0167224e-10
5.6885417e-07
-9.7257962e-10
5.6887849e-07
-1.1759698e-09
5.6891098e-07
-1.4233439e-09
5.6895497e-07
-1.7315129e-09
5.6901578e-07
-2.1254546e-09
5.6910156e-07
-2.64505e-09
5.6922722e-07
-3.3727127e-09
5.6943531e-07
-4.4639909e-09
5.6979894e-07
-6.0092806e-09
5.7025298e-07
-9.5082534e-09
5.7220669e-07
-2.9576129e-08
5.8877564e-07
5.391318e-07
5.9672548e-08
4.6913949e-07
3.6666009e-08
6.1941762e-07
2.2628179e-08
5.8751041e-07
1.6253581e-08
5.7701079e-07
1.2290505e-08
5.7405519e-07
9.6062349e-09
5.7230579e-07
7.6774292e-09
5.7127845e-07
6.2360524e-09
5.7062885e-07
5.1265084e-09
5.7018717e-07
4.2487249e-09
5.6987808e-07
3.5373678e-09
5.6965613e-07
2.9482686e-09
5.6949311e-07
2.4503824e-09
5.6937148e-07
2.0212344e-09
5.6927982e-07
1.6441106e-09
5.6921045e-07
1.306234e-09
5.6915811e-07
9.9754797e-10
5.6911918e-07
7.098747e-10
5.6909116e-07
4.3630901e-10
5.6907235e-07
1.7075997e-10
5.6906165e-07
-9.2418195e-11
5.6905849e-07
-3.5874802e-10
5.690627e-07
-6.3394102e-10
5.6907452e-07
-9.242287e-10
5.6909465e-07
-1.2367496e-09
5.691243e-07
-1.5800402e-09
5.6916533e-07
-1.9646968e-09
5.6922049e-07
-2.4043149e-09
5.6929378e-07
-2.9168767e-09
5.6939106e-07
-3.5268739e-09
5.6952098e-07
-4.2687246e-09
5.6969682e-07
-5.192793e-09
5.6993984e-07
-6.3757026e-09
5.7028447e-07
-7.9361688e-09
5.7078769e-07
-1.0077412e-08
5.7157655e-07
-1.3205554e-08
5.7292708e-07
-1.8135358e-08
5.7518278e-07
-2.8177563e-08
5.822489e-07
-4.5803403e-08
6.0640148e-07
4.933284e-07
6.0008873e-08
4.0913061e-07
5.0487321e-08
6.2893917e-07
3.3370704e-08
6.0462702e-07
2.4817698e-08
5.855638e-07
1.9323257e-08
5.7954963e-07
1.533149e-08
5.7629756e-07
1.2360686e-08
5.7424926e-07
1.0101488e-08
5.7288804e-07
8.3405234e-09
5.7194813e-07
6.9346701e-09
5.7128394e-07
5.7878501e-09
5.7080295e-07
4.8332992e-09
5.7044766e-07
4.0232533e-09
5.7018153e-07
3.322728e-09
5.6998035e-07
2.7054601e-09
5.6982771e-07
2.1512182e-09
5.6971235e-07
1.643978e-09
5.6962642e-07
1.1706409e-09
5.695645e-07
7.2010061e-10
5.6952289e-07
2.8252992e-10
5.6949923e-07
-1.5119665e-10
5.6949222e-07
-5.9000902e-10
5.6950151e-07
-1.0431347e-09
5.6952764e-07
-1.5206189e-09
5.6957213e-07
-2.0339274e-09
5.696376e-07
-2.5967061e-09
5.6972811e-07
-3.2257924e-09
5.6984958e-07
-3.9426266e-09
5.7001062e-07
-4.7753017e-09
5.7022373e-07
-5.7616266e-09
5.705073e-07
-6.9537851e-09
5.7088898e-07
-8.425974e-09
5.7141203e-07
-1.028759e-08
5.7214608e-07
-1.2700502e-08
5.732006e-07
-1.5897864e-08
5.7477391e-07
-2.024156e-08
5.7727078e-07
-2.6709746e-08
5.8165097e-07
-3.8949201e-08
5.9448835e-07
-4.8168092e-08
6.1562037e-07
4.4516031e-07
5.4879107e-08
3.5425151e-07
5.7452263e-08
6.2636601e-07
4.0467606e-08
6.2161168e-07
3.0778791e-08
5.9525261e-07
2.4643057e-08
5.8568536e-07
1.9952268e-08
5.8098835e-07
1.6312871e-08
5.7788865e-07
1.3466411e-08
5.757345e-07
1.1200773e-08
5.7421377e-07
9.3642537e-09
5.7312046e-07
7.848969e-09
5.7231824e-07
6.5764317e-09
5.717202e-07
5.4887969e-09
5.7126916e-07
4.5427534e-09
5.7092639e-07
3.7052079e-09
5.7066526e-07
2.9503046e-09
5.7046725e-07
2.2573275e-09
5.703194e-07
1.609183e-09
5.7021264e-07
9.9126733e-10
5.701408e-07
3.9058769e-10
5.700999e-07
-2.0496168e-10
5.7008777e-07
-8.0723933e-10
5.7010379e-07
-1.4284779e-09
5.7014888e-07
-2.0819381e-09
5.7022559e-07
-2.7826602e-09
5.7033833e-07
-3.5483908e-09
5.7049384e-07
-4.4007911e-09
5.7070198e-07
-5.367069e-09
5.709769e-07
-6.4822601e-09
5.7133892e-07
-7.792488e-09
5.7181753e-07
-9.359531e-09
5.7245602e-07
-1.1267208e-08
5.7331971e-07
-1.363178e-08
5.7451066e-07
-1.6614591e-08
5.7618341e-07
-2.0413405e-08
5.7857273e-07
-2.5294899e-08
5.8215227e-07
-3.2519062e-08
5.8887513e-07
-4.5102621e-08
6.0707191e-07
-4.6550456e-08
6.1706821e-07
3.9860985e-07
4.7965833e-08
3.0628567e-07
6.0076656e-08
6.1425519e-07
4.5400252e-08
6.3628809e-07
3.4875417e-08
6.0577745e-07
2.8399874e-08
5.9216091e-07
2.3419579e-08
5.8596864e-07
1.9434191e-08
5.8187404e-07
1.6228974e-08
5.7893972e-07
1.3619412e-08
5.7682333e-07
1.14661e-08
5.7527377e-07
9.6639126e-09
5.7412042e-07
8.132812e-09
5.732513e-07
6.8117763e-09
5.725902e-07
5.6537949e-09
5.7208437e-07
4.6220944e-09
5.7169696e-07
3.6873903e-09
5.7140196e-07
2.8258459e-09
5.7118094e-07
2.0175336e-09
5.7102095e-07
1.2452507e-09
5.7091308e-07
4.9357397e-10
5.7085158e-07
-2.5193334e-10
5.7083328e-07
-1.0054314e-09
5.7085728e-07
-1.7814942e-09
5.7092494e-07
-2.5958321e-09
5.7103993e-07
-3.4661081e-09
5.712086e-07
-4.4129209e-09
5.7144065e-07
-5.4610459e-09
5.717501e-07
-6.6410437e-09
5.7215689e-07
-7.9913879e-09
5.7268926e-07
-9.5613378e-09
5.7338748e-07
-1.1414715e-08
5.743094e-07
-1.3634327e-08
5.7553932e-07
-1.6328475e-08
5.772048e-07
-1.9640757e-08
5.7949569e-07
-2.3741429e-08
5.826734e-07
-2.893342e-08
5.8734426e-07
-3.6793621e-08
5.9673533e-07
-4.8466108e-08
6.187444e-07
-4.3195571e-08
6.1179767e-07
3.5541428e-07
4.0336143e-08
2.6594953e-07
5.8994296e-08
5.9559703e-07
4.8330289e-08
6.4695209e-07
3.7588225e-08
6.1651951e-07
3.092898e-08
5.9882015e-07
2.5894024e-08
5.910036e-07
2.177995e-08
5.8598811e-07
1.8391907e-08
5.8232776e-07
1.5577239e-08
5.79638e-07
1.3213898e-08
5.7763711e-07
1.1205948e-08
5.7612837e-07
9.4780972e-09
5.7497915e-07
7.9712065e-09
5.7409709e-07
6.6383736e-09
5.734172e-07
5.4419739e-09
5.7289336e-07
4.351392e-09
5.7249254e-07
3.3412425e-09
5.7219109e-07
2.38997e-09
5.7197222e-07
1.4787313e-09
5.7182432e-07
5.9047513e-10
5.7173984e-07
-2.9084861e-10
5.717146e-07
-1.1810061e-09
5.7174744e-07
-2.0961824e-09
5.7184012e-07
-3.0537094e-09
5.7199745e-07
-4.0728722e-09
5.7222776e-07
-5.1758549e-09
5.7254363e-07
-6.3888924e-09
5.7296314e-07
-7.7437052e-09
5.7351171e-07
-9.2792968e-09
5.7422486e-07
-1.1044262e-08
5.7515245e-07
-1.3099818e-08
5.7636496e-07
-1.5523228e-08
5.7796273e-07
-1.8411889e-08
5.8009346e-07
-2.1889972e-08
5.8297378e-07
-2.6113257e-08
5.8689668e-07
-3.1491297e-08
5.927223e-07
-3.9657591e-08
6.0490162e-07
-4.9175155e-08
6.2826196e-07
-3.8579955e-08
6.0120247e-07
3.1683433e-07
3.2862819e-08
2.3308671e-07
5.5250291e-08
5.7320956e-07
4.9232538e-08
6.5296985e-07
3.9061733e-08
6.2669032e-07
3.243081e-08
6.0545107e-07
2.751884e-08
5.9591557e-07
2.343869e-08
5.9006826e-07
2.0002788e-08
5.8576366e-07
1.7094584e-08
5.825462e-07
1.4611856e-08
5.8011984e-07
1.2470818e-08
5.7826941e-07
1.0604222e-08
5.7684575e-07
8.9578292e-09
5.7574348e-07
7.4874506e-09
5.7488758e-07
6.1567586e-09
5.7422405e-07
4.9355301e-09
5.7371377e-07
3.7982034e-09
5.7332842e-07
2.7227012e-09
5.7304773e-07
1.6894544e-09
5.7285757e-07
6.8057121e-10
5.7274872e-07
-3.2089494e-10
5.7271606e-07
-1.3316199e-09
5.7275816e-07
-2.3686745e-09
5.7287717e-07
-3.4502079e-09
5.7307899e-07
-4.5961893e-09
5.7337375e-07
-5.8292548e-09
5.737767e-07
-7.1757049e-09
5.7430959e-07
-8.6667051e-09
5.7500271e-07
-1.0339736e-08
5.7589789e-07
-1.224037e-08
5.7705308e-07
-1.4424659e-08
5.7854924e-07
-1.6962026e-08
5.805001e-07
-1.9937312e-08
5.8306875e-07
-2.3451289e-08
5.8648775e-07
-2.7645378e-08
5.9109077e-07
-3.3038069e-08
5.9811499e-07
-4.1014365e-08
6.1287792e-07
-4.7690993e-08
6.3493859e-07
-3.3377718e-08
5.8688919e-07
2.8345661e-07
2.618914e-08
2.0689757e-07
5.0133056e-08
5.4926564e-07
4.8493963e-08
6.5460894e-07
3.9491364e-08
6.3569292e-07
3.3077681e-08
6.1186476e-07
2.8412178e-08
6.0058107e-07
2.449296e-08
5.9398748e-07
2.1118168e-08
5.8913846e-07
1.8206923e-08
5.8545745e-07
1.5679998e-08
5.8264676e-07
1.346826e-08
5.8048115e-07
1.1514532e-08
5.7879948e-07
9.7713005e-09
5.7748671e-07
8.1987794e-09
5.764601e-07
6.76344e-09
5.7565939e-07
5.4367406e-09
5.7504047e-07
4.1940381e-09
5.7457112e-07
3.0136637e-09
5.742281e-07
1.8761266e-09
5.7399511e-07
7.6340969e-10
5.7386144e-07
-3.4166604e-10
5.7382114e-07
-1.456038e-09
5.7387254e-07
-2.5969943e-09
5.7401813e-07
-3.7827771e-09
5.7426477e-07
-5.033225e-09
5.7462419e-07
-6.3704878e-09
5.7511396e-07
-7.819839e-09
5.7575894e-07
-9.4106234e-09
5.7659349e-07
-1.1177364e-08
5.7766463e-07
-1.3161032e-08
5.7903675e-07
-1.5410695e-08
5.8079891e-07
-1.7985635e-08
5.8307504e-07
-2.0955303e-08
5.8603842e-07
-2.4394884e-08
5.8992733e-07
-2.8439922e-08
5.9513581e-07
-3.3695766e-08
6.0337084e-07
-4.1067029e-08
6.2024918e-07
-4.480095e-08
6.3867251e-07
-2.820616e-08
5.702944e-07
2.5525045e-07
2.0571071e-08
1.863265e-07
4.4583631e-08
5.2525308e-07
4.6643444e-08
6.5254912e-07
3.915362e-08
6.4318274e-07
3.3084155e-08
6.1793422e-07
2.8717863e-08
6.0494736e-07
2.5038284e-08
5.9766706e-07
2.1803798e-08
5.9237294e-07
1.8959091e-08
5.8830215e-07
1.6448113e-08
5.8515774e-07
1.4217366e-08
5.827119e-07
1.2220673e-08
5.8079617e-07
1.0418255e-08
5.7928913e-07
8.7757588e-09
5.781026e-07
7.2634332e-09
5.7717171e-07
5.8553151e-09
5.7644858e-07
4.5284909e-09
5.7589794e-07
3.2624298e-09
5.7549416e-07
2.0383775e-09
5.7521916e-07
8.387987e-10
5.7506102e-07
-3.5314248e-10
5.7501308e-07
-1.5540791e-09
5.7507347e-07
-2.7809386e-09
5.7524499e-07
-4.0514438e-09
5.7553528e-07
-5.384638e-09
5.7595739e-07
-6.8014506e-09
5.7653077e-07
-8.3253141e-09
5.772828e-07
-9.9828499e-09
5.7825103e-07
-1.1804634e-08
5.7948641e-07
-1.3825992e-08
5.810581e-07
-1.6087911e-08
5.8306083e-07
-1.8638238e-08
5.8562536e-07
-2.1530075e-08
5.8893025e-07
-2.4817435e-08
5.9321469e-07
-2.8646566e-08
5.9896494e-07
-3.3664931e-08
6.083892e-07
-4.0148898e-08
6.2673315e-07
-4.116309e-08
6.396867e-07
-2.3418666e-08
5.5254998e-07
2.3183178e-07
1.6015673e-08
1.7031082e-07
3.9144444e-08
5.0212431e-07
4.4119224e-08
6.4757434e-07
3.8290229e-08
6.4901174e-07
3.2654371e-08
6.2357008e-07
2.8591957e-08
6.0900978e-07
2.5183838e-08
6.0107518e-07
2.2136054e-08
5.9542072e-07
1.9404715e-08
5.9103349e-07
1.6953766e-08
5.8760869e-07
1.4744233e-08
5.8492143e-07
1.2740519e-08
5.8279988e-07
1.0910716e-08
5.8111893e-07
9.2263065e-09
5.7978701e-07
7.6618185e-09
5.787362e-07
6.1944089e-09
5.7791599e-07
4.8034347e-09
5.7728892e-07
3.4700265e-09
5.7682757e-07
2.176667e-09
5.7651252e-07
9.067827e-10
5.763309e-07
-3.5565284e-10
5.7627552e-07
-1.6265059e-09
5.7634433e-07
-2.9218748e-09
5.7654036e-07
-4.2584797e-09
5.7687188e-07
-5.6540629e-09
5.7735297e-07
-7.1278027e-09
5.7800451e-07
-8.7007414e-09
5.7885574e-07
-1.0396223e-08
5.7994651e-07
-1.224035e-08
5.8133054e-07
-1.4262403e-08
5.8308016e-07
-1.6495203e-08
5.8529363e-07
-1.89755e-08
5.8810566e-07
-2.1741429e-08
5.9169618e-07
-2.4833462e-08
5.9630673e-07
-2.8420529e-08
6.0255201e-07
-3.3129935e-08
6.1309861e-07
-3.85549e-08
6.3215811e-07
-3.7219909e-08
6.3835171e-07
-1.9184641e-08
5.3451471e-07
2.1264714e-07
1.2423985e-08
1.5788684e-07
3.4114597e-08
4.804337e-07
4.1250516e-08
6.4043842e-07
3.7079354e-08
6.531829e-07
3.1942468e-08
6.2870696e-07
2.816919e-08
6.1278305e-07
2.5033262e-08
6.0421111e-07
2.2192188e-08
5.982618e-07
1.9600899e-08
5.9362478e-07
1.7238813e-08
5.8997077e-07
1.5079301e-08
5.8708094e-07
1.3096051e-08
5.8478313e-07
1.1264429e-08
5.8295056e-07
9.561583e-09
5.8148985e-07
7.9663989e-09
5.8033139e-07
6.4593679e-09
5.7942302e-07
5.0224088e-09
5.7872588e-07
3.6386401e-09
5.7821134e-07
2.2921241e-09
5.7785903e-07
9.6759686e-10
5.7765543e-07
-3.4980929e-10
5.7759292e-07
-1.6748443e-09
5.7766936e-07
-3.0224264e-09
5.7788794e-07
-4.4079233e-09
5.7825738e-07
-5.8474301e-09
5.7879248e-07
-7.3580432e-09
5.7951513e-07
-8.95812e-09
5.8045582e-07
-1.0667511e-08
5.816559e-07
-1.2507767e-08
5.831708e-07
-1.4502305e-08
5.850747e-07
-1.6676436e-08
5.8746776e-07
-1.9057046e-08
5.9048627e-07
-2.1669625e-08
5.9430876e-07
-2.4548368e-08
5.9918547e-07
-2.7887887e-08
6.0589152e-07
-3.2233473e-08
6.1744419e-07
-3.6527173e-08
6.3645181e-07
-3.3272689e-08
6.3509722e-07
-1.5565774e-08
5.168078e-07
1.9708137e-07
9.657389e-09
1.4822945e-07
2.9646403e-08
4.6044468e-07
3.8283978e-08
6.3180085e-07
3.5659166e-08
6.5580771e-07
3.105963e-08
6.333065e-07
2.7553935e-08
6.1628875e-07
2.4673129e-08
6.0709191e-07
2.2040978e-08
6.0089395e-07
1.9601515e-08
5.9606424e-07
1.7344772e-08
5.9222752e-07
1.5254138e-08
5.8917158e-07
1.3311032e-08
5.8672624e-07
1.1497124e-08
5.8476446e-07
9.7946895e-09
5.8319229e-07
8.1867265e-09
5.8193935e-07
6.6570167e-09
5.8095273e-07
5.1901174e-09
5.8019278e-07
3.7712869e-09
5.7963017e-07
2.3863635e-09
5.7924396e-07
1.0216144e-09
5.7902018e-07
-3.364347e-10
5.7895097e-07
-1.7011792e-09
5.7903411e-07
-3.0861228e-09
5.7927288e-07
-4.5050582e-09
5.7967631e-07
-5.9722368e-09
5.8025965e-07
-7.5025212e-09
5.8104541e-07
-9.1115081e-09
5.8206481e-07
-1.0815604e-08
5.8335999e-07
-1.2632057e-08
5.8498725e-07
-1.4578943e-08
5.8702158e-07
-1.6675e-08
5.8956381e-07
-1.8938701e-08
5.9274997e-07
-2.1385552e-08
5.9675561e-07
-2.4049691e-08
6.0184961e-07
-2.7147513e-08
6.0898935e-07
-3.1093711e-08
6.2139039e-07
-3.4269857e-08
6.3962796e-07
-2.9526583e-08
6.3035395e-07
-1.2557431e-08
4.9983864e-07
1.8452394e-07
7.567063e-09
1.4066239e-07
2.5787527e-08
4.4222422e-07
3.5390472e-08
6.221979e-07
3.4139526e-08
6.5705866e-07
3.0088854e-08
6.3735717e-07
2.6826186e-08
6.1955141e-07
2.4173126e-08
6.0974497e-07
2.1740206e-08
6.0332687e-07
1.9453848e-08
5.983506e-07
1.7309701e-08
5.9437166e-07
1.5298887e-08
5.9118239e-07
1.3409027e-08
5.886161e-07
1.1627007e-08
5.8654648e-07
9.9395143e-09
5.8487978e-07
8.3332349e-09
5.8354563e-07
6.7950164e-09
5.8249095e-07
5.3119713e-09
5.8167582e-07
3.8715087e-09
5.8107063e-07
2.461315e-09
5.8065415e-07
1.0692984e-09
5.8041219e-07
-3.1649264e-10
5.8033676e-07
-1.7079625e-09
5.8042557e-07
-3.1170714e-09
5.8068199e-07
-4.5559285e-09
5.8111517e-07
-6.0368713e-09
5.817406e-07
-7.5725207e-09
5.8258106e-07
-9.1757994e-09
5.8366808e-07
-1.0859898e-08
5.8504409e-07
-1.2638183e-08
5.8676553e-07
-1.4524081e-08
5.8890748e-07
-1.6530775e-08
5.9157051e-07
-1.8669856e-08
5.9488905e-07
-2.0949827e-08
5.9903558e-07
-2.3409883e-08
6.0430966e-07
-2.6279782e-08
6.1185925e-07
-2.9811724e-08
6.2492233e-07
-3.1944608e-08
6.4176084e-07
-2.6103949e-08
6.2451329e-07
-1.0112972e-08
4.8384767e-07
1.7441096e-07
6.0124342e-09
1.3464995e-07
2.251619e-08
4.2572046e-07
3.267186e-08
6.1204223e-07
3.2600881e-08
6.5712964e-07
2.9090235e-08
6.4086782e-07
2.6046116e-08
6.2259553e-07
2.3588592e-08
6.122025e-07
2.1337455e-08
6.0557801e-07
1.9198093e-08
6.0048996e-07
1.7167044e-08
5.9640271e-07
1.5240934e-08
5.931085e-07
1.3412135e-08
5.904449e-07
1.1671661e-08
5.8828696e-07
1.0009843e-08
5.865416e-07
8.4165369e-09
5.8513893e-07
6.8813293e-09
5.8402616e-07
5.3936979e-09
5.8316345e-07
3.9431102e-09
5.8252122e-07
2.5190752e-09
5.8207818e-07
1.1111594e-09
5.8182011e-07
-2.9102446e-10
5.8173895e-07
-1.6978422e-09
5.8183239e-07
-3.1196705e-09
5.8210382e-07
-4.56692e-09
5.8256242e-07
-6.0500441e-09
5.8322372e-07
-7.5795193e-09
5.8411053e-07
-9.1657898e-09
5.8525436e-07
-1.0819162e-08
5.8669747e-07
-1.2549646e-08
5.8849602e-07
-1.436678e-08
5.9072461e-07
-1.6279247e-08
5.9348297e-07
-1.8293343e-08
5.9690315e-07
-2.0413651e-08
6.0115589e-07
-2.2687977e-08
6.0658399e-07
-2.5348301e-08
6.1451957e-07
-2.8468117e-08
6.2804215e-07
-2.9665633e-08
6.4295836e-07
-2.3060064e-08
6.1790772e-07
-8.1639541e-09
4.6895156e-07
1.6624701e-07
4.8707997e-09
1.2977915e-07
1.9773845e-08
4.1081742e-07
3.0176418e-08
6.0163966e-07
3.1095583e-08
6.5621047e-07
2.8103278e-08
6.4386012e-07
2.5256024e-08
6.2544279e-07
2.296166e-08
6.1449686e-07
2.087078e-08
6.0766889e-07
1.8867531e-08
6.0249321e-07
1.6945364e-08
5.9832488e-07
1.5104356e-08
5.9494951e-07
1.3340318e-08
5.9220893e-07
1.1647378e-08
5.899799e-07
1.0018746e-08
5.8817023e-07
8.4469048e-09
5.8671078e-07
6.9238024e-09
5.8554926e-07
5.4410269e-09
5.8464623e-07
3.9899423e-09
5.839723e-07
2.5617839e-09
5.8350634e-07
1.1477227e-09
5.8323417e-07
-2.6109433e-10
5.8314776e-07
-1.6735166e-09
5.8324481e-07
-3.0983687e-09
5.8352867e-07
-4.5444207e-09
5.8400847e-07
-6.0203439e-09
5.8469964e-07
-7.5346403e-09
5.8562483e-07
-9.09554e-09
5.8681525e-07
-1.0710858e-08
5.8831278e-07
-1.2387809e-08
5.9017297e-07
-1.4132823e-08
5.9246963e-07
-1.5951118e-08
5.9530127e-07
-1.7845219e-08
5.9879725e-07
-1.9818597e-08
6.0312927e-07
-2.1929409e-08
6.086948e-07
-2.4399825e-08
6.1698998e-07
-2.7121654e-08
6.3076398e-07
-2.7505055e-08
6.4334176e-07
-2.0404305e-08
6.1080697e-07
-6.6347305e-09
4.5518198e-07
1.5961228e-07
4.0398005e-09
1.2573936e-07
1.7488017e-08
3.973692e-07
2.7918114e-08
5.9120956e-07
2.9654269e-08
6.5447432e-07
2.7151193e-08
6.463632e-07
2.4483111e-08
6.2811087e-07
2.2322482e-08
6.1665749e-07
2.0369263e-08
6.096221e-07
1.8488739e-08
6.0437374e-07
1.6668297e-08
6.0014532e-07
1.4909686e-08
5.9670812e-07
1.3211055e-08
5.9390756e-07
1.1568755e-08
5.916222e-07
9.9781802e-09
5.8976081e-07
8.4339112e-09
5.8825504e-07
6.9298636e-09
5.8705331e-07
5.4594522e-09
5.8611664e-07
4.0157343e-09
5.8541602e-07
2.5915271e-09
5.8493055e-07
1.1795014e-09
5.8464619e-07
-2.2774378e-10
5.8455501e-07
-1.6376173e-09
5.8465469e-07
-3.0574764e-09
5.8494853e-07
-4.4945602e-09
5.8544555e-07
-5.9559101e-09
5.8616099e-07
-7.4482684e-09
5.8711719e-07
-8.9779508e-09
5.8834494e-07
-1.0550693e-08
5.8988552e-07
-1.2171474e-08
5.9179375e-07
-1.3844347e-08
5.941425e-07
-1.5571996e-08
5.9702892e-07
-1.735454e-08
6.0057979e-07
-1.919665e-08
6.0497138e-07
-2.1166922e-08
6.1066507e-07
-2.3466364e-08
6.1928943e-07
-2.5812111e-08
6.3310973e-07
-2.5502649e-08
6.430323e-07
-1.8118153e-08
6.0342247e-07
-5.4509308e-09
4.4251476e-07
1.5416135e-07
3.436761e-09
1.223026e-07
1.5584895e-08
3.8522107e-07
2.5890338e-08
5.8090412e-07
2.8292368e-08
6.5207229e-07
2.6245863e-08
6.484097e-07
2.3743276e-08
6.3061346e-07
2.1691379e-08
6.1870939e-07
1.9854132e-08
6.1145935e-07
1.8082143e-08
6.0614573e-07
1.6354754e-08
6.0187271e-07
1.4673908e-08
5.9838896e-07
1.3039205e-08
5.9554227e-07
1.1448498e-08
5.932129e-07
9.8987654e-09
5.9131054e-07
8.3862032e-09
5.8976761e-07
6.90632e-09
5.8853319e-07
5.4540675e-09
5.8756889e-07
4.0239741e-09
5.8684611e-07
2.6102671e-09
5.8634426e-07
1.2069793e-09
5.8604948e-07
-1.9195654e-10
5.8595394e-07
-1.5926214e-09
5.8605535e-07
-3.0010267e-09
5.8635693e-07
-4.4230241e-09
5.8686755e-07
-5.8642067e-09
5.8760218e-07
-7.3297929e-09
5.8858277e-07
-8.824493e-09
5.8983964e-07
-1.0352364e-08
5.914134e-07
-1.1916663e-08
5.9335805e-07
-1.3519707e-08
5.9574554e-07
-1.516244e-08
5.9867165e-07
-1.6843746e-08
6.022611e-07
-1.8571244e-08
6.0669887e-07
-2.0422772e-08
6.125166e-07
-2.2568434e-08
6.2143509e-07
-2.4564366e-08
6.3510566e-07
-2.367527e-08
6.421432e-07
-1.616764e-08
5.9591484e-07
-4.5441447e-09
4.3089126e-07
1.496172e-07
2.997051e-09
1.1930555e-07
1.3996018e-08
3.7422211e-07
2.4075241e-08
5.708249e-07
2.7015047e-08
6.4913248e-07
2.5391688e-08
6.5003306e-07
2.3044558e-08
6.3296059e-07
2.1081221e-08
6.2067273e-07
1.9340275e-08
6.132003e-07
1.7662932e-08
6.0782307e-07
1.6019422e-08
6.0351622e-07
1.441068e-08
5.9999771e-07
1.2837066e-08
5.9711588e-07
1.1297378e-08
5.9475259e-07
9.7896846e-09
5.9281823e-07
8.3113852e-09
5.9124591e-07
6.8592408e-09
5.8998534e-07
5.4294642e-09
5.8899867e-07
4.0178318e-09
5.8825775e-07
2.6197974e-09
5.8774229e-07
1.2306002e-09
5.8743868e-07
-1.5463311e-10
5.8733918e-07
-1.5407913e-09
5.8744151e-07
-2.9326824e-09
5.8774883e-07
-4.3349335e-09
5.882698e-07
-5.7518833e-09
5.8901913e-07
-7.1874643e-09
5.9001835e-07
-8.6450777e-09
5.9129725e-07
-1.0127469e-08
5.9289579e-07
-1.163662e-08
5.948672e-07
-1.3173651e-08
5.9728257e-07
-1.4738417e-08
6.0023642e-07
-1.632954e-08
6.0385222e-07
-1.7958775e-08
6.0832811e-07
-1.9711079e-08
6.1426891e-07
-2.1717926e-08
6.2344193e-07
-2.339193e-08
6.3677966e-07
-2.2024109e-08
6.4077538e-07
-1.4511736e-08
5.8840247e-07
-3.8544742e-09
4.20234e-07
1.4576273e-07
2.6718323e-09
1.1663372e-07
1.2661643e-08
3.6423231e-07
2.2450083e-08
5.6103646e-07
2.5820958e-08
6.4576161e-07
2.4588291e-08
6.5126573e-07
2.2389686e-08
6.3515919e-07
2.0499438e-08
6.2256297e-07
1.8837682e-08
6.1486205e-07
1.7242063e-08
6.0941869e-07
1.5673416e-08
6.0508486e-07
1.4130723e-08
6.015404e-07
1.2614579e-08
5.9863202e-07
1.1124313e-08
5.9624286e-07
9.6586966e-09
5.9428385e-07
8.2159889e-09
5.9268861e-07
6.7939096e-09
5.9140741e-07
5.3896826e-09
5.9040289e-07
4.0001197e-09
5.8964731e-07
2.6217186e-09
5.8912069e-07
1.2507636e-09
5.8880963e-07
-1.1657404e-10
5.8870651e-07
-1.484137e-09
5.8880907e-07
-2.8556829e-09
5.8912037e-07
-4.2347821e-09
5.896489e-07
-5.6247118e-09
5.9040906e-07
-7.0283466e-09
5.9142199e-07
-8.4480488e-09
5.9271695e-07
-9.8855735e-09
5.9433331e-07
-1.1342006e-08
5.9632363e-07
-1.2817698e-08
5.9875827e-07
-1.4311937e-08
6.0173065e-07
-1.5823863e-08
6.0536415e-07
-1.7370034e-08
6.0987428e-07
-1.903981e-08
6.1593868e-07
-2.0920356e-08
6.2532248e-07
-2.2299957e-08
6.3815926e-07
-2.054048e-08
6.390159e-07
-1.3107939e-08
5.8096993e-07
-3.3315133e-09
4.1045758e-07
1.4243122e-07
2.4253648e-09
1.1420837e-07
1.1531862e-08
3.5512582e-07
2.0991321e-08
5.5157701e-07
2.4705132e-08
6.420478e-07
2.3832519e-08
6.5213834e-07
2.1777973e-08
6.3721374e-07
1.9949578e-08
6.2439137e-07
1.8352652e-08
6.1645898e-07
1.6827163e-08
6.1094418e-07
1.5324924e-08
6.065871e-07
1.3842263e-08
6.0302306e-07
1.2379615e-08
6.0009467e-07
1.0936539e-08
5.9768593e-07
9.5122222e-09
5.9570816e-07
8.1055088e-09
5.9409533e-07
6.7148303e-09
5.9279809e-07
5.3382029e-09
5.9177952e-07
3.97328e-09
5.9101223e-07
2.6174302e-09
5.9047654e-07
1.2678243e-09
5.9015924e-07
-7.8471236e-11
5.9005281e-07
-1.4244004e-09
5.90155e-07
-2.7728232e-09
5.9046879e-07
-4.1264179e-09
5.910025e-07
-5.4875836e-09
5.9177022e-07
-6.8583447e-09
5.9279275e-07
-8.2402628e-09
5.9409887e-07
-9.6343747e-09
5.9572742e-07
-1.1041172e-08
5.9773043e-07
-1.2460575e-08
6.0017767e-07
-1.3891703e-08
6.0316178e-07
-1.5334808e-08
6.0680725e-07
-1.6811463e-08
6.1135093e-07
-1.8412405e-08
6.1753962e-07
-2.0176754e-08
6.2708683e-07
-2.1287928e-08
6.3927044e-07
-1.9210361e-08
6.3693834e-07
-1.1916102e-08
5.7367567e-07
-2.9342571e-09
4.0147573e-07
1.3949696e-07
2.2322687e-09
1.1197611e-07
1.0566221e-08
3.4679189e-07
1.9676897e-08
5.4246635e-07
2.3661022e-08
6.3806368e-07
2.3119911e-08
6.5267945e-07
2.1206739e-08
6.3912691e-07
1.9432563e-08
6.2616554e-07
1.7888775e-08
6.1800277e-07
1.64233e-08
6.1240965e-07
1.4979799e-08
6.080306e-07
1.3551462e-08
6.044514e-07
1.213827e-08
6.0150786e-07
1.0739812e-08
5.9908439e-07
9.3554745e-09
5.970925e-07
7.9844798e-09
5.9546632e-07
6.6257699e-09
5.941568e-07
5.2779668e-09
5.9312732e-07
3.9393948e-09
5.923508e-07
2.6081344e-09
5.918078e-07
1.282095e-09
5.9148528e-07
-4.0905356e-11
5.9137581e-07
-1.3630537e-09
5.9147715e-07
-2.6864588e-09
5.917922e-07
-4.0130611e-09
5.923291e-07
-5.3445489e-09
5.9310171e-07
-6.6822803e-09
5.9413048e-07
-8.0272192e-09
5.9544381e-07
-9.3799059e-09
5.9708011e-07
-1.0740476e-08
5.99091e-07
-1.2108665e-08
6.0154586e-07
-1.3483724e-08
6.0453684e-07
-1.4867446e-08
6.0819098e-07
-1.6286256e-08
6.1276974e-07
-1.7829171e-08
6.1908254e-07
-1.9485241e-08
6.287429e-07
-2.0351838e-08
6.4013703e-07
-1.8017521e-08
6.3460402e-07
-1.0900354e-08
5.665585e-07
-2.6302512e-09
3.9320563e-07
1.3686671e-07
2.0750595e-09
1.0990106e-07
9.7326143e-09
3.3913435e-07
1.8487283e-08
5.337117e-07
2.2681788e-08
6.3386918e-07
2.2445681e-08
6.5291556e-07
2.0672337e-08
6.4090025e-07
1.8947647e-08
6.2789023e-07
1.744774e-08
6.1950267e-07
1.6033633e-08
6.1382376e-07
1.4642074e-08
6.0942216e-07
1.3262817e-08
6.0583065e-07
1.189517e-08
6.0287551e-07
1.0538618e-08
6.0044094e-07
9.1926075e-09
5.9843851e-07
7.8565777e-09
5.9680235e-07
6.529823e-09
5.9548356e-07
5.2114177e-09
5.9444573e-07
3.9002091e-09
5.9366201e-07
2.5948496e-09
5.9311316e-07
1.2938515e-09
5.9278628e-07
-4.3465861e-12
5.9267401e-07
-1.3013105e-09
5.9277411e-07
-2.5985287e-09
5.9308942e-07
-3.8973445e-09
5.9362791e-07
-5.1988842e-09
5.9440325e-07
-6.5039973e-09
5.9543559e-07
-7.8132178e-09
5.9675303e-07
-9.126765e-09
5.9839366e-07
-1.0444596e-08
6.0040883e-07
-1.1766437e-08
6.028677e-07
-1.309189e-08
6.0586229e-07
-1.4424566e-08
6.0952365e-07
-1.5795297e-08
6.1414047e-07
-1.7288393e-08
6.2057563e-07
-1.8842245e-08
6.3029675e-07
-1.9485806e-08
6.4078059e-07
-1.6945466e-08
6.3206368e-07
-1.002964e-08
5.5964267e-07
-2.3943822e-09
3.8557037e-07
1.3447232e-07
1.9420667e-09
1.07959e-07
9.0059242e-09
3.3207052e-07
1.7405773e-08
5.2531187e-07
2.1761e-08
6.2951396e-07
2.180528e-08
6.5287128e-07
2.0170822e-08
6.4253471e-07
1.8493124e-08
6.2956793e-07
1.7029957e-08
6.2096584e-07
1.5659945e-08
6.1519377e-07
1.43144e-08
6.1076771e-07
1.2979506e-08
6.0716555e-07
1.1653735e-08
6.0420128e-07
1.0336386e-08
6.0175829e-07
9.0268699e-09
5.9974803e-07
7.7247292e-09
5.9810449e-07
6.4294893e-09
5.967788e-07
5.1405521e-09
5.9573467e-07
3.8571636e-09
5.949454e-07
2.5784265e-09
5.943919e-07
1.3033357e-09
5.9406137e-07
3.0830561e-11
5.9394651e-07
-1.2401465e-09
5.9404509e-07
-2.5105898e-09
5.9435986e-07
-3.7813689e-09
5.9489869e-07
-5.0531751e-09
5.9567505e-07
-6.3264813e-09
5.967089e-07
-7.6015262e-09
5.9802807e-07
-8.8783426e-09
5.9967047e-07
-1.0156837e-08
6.0168732e-07
-1.1436846e-08
6.041477e-07
-1.2718471e-08
6.0714392e-07
-1.4007303e-08
6.1081248e-07
-1.5337922e-08
6.1547109e-07
-1.6787167e-08
6.2202488e-07
-1.8243366e-08
6.3175295e-07
-1.8683185e-08
6.4122041e-07
-1.5978621e-08
6.2935912e-07
-9.2778373e-09
5.5294189e-07
-2.2076778e-09
3.7850021e-07
1.3226465e-07
1.8257499e-09
1.0613327e-07
8.3666673e-09
3.2552963e-07
1.6418365e-08
5.172602e-07
2.0892967e-08
6.2503937e-07
2.1194686e-08
6.5256956e-07
1.9698352e-08
6.4403104e-07
1.8066802e-08
6.3119948e-07
1.6635025e-08
6.2239762e-07
1.5303054e-08
6.1652574e-07
1.3998407e-08
6.1207235e-07
1.2703697e-08
6.0846026e-07
1.1416434e-08
6.0548854e-07
1.013568e-08
6.0303905e-07
8.8607535e-09
6.0102295e-07
7.5912238e-09
5.9937402e-07
6.3267543e-09
5.9804327e-07
5.0669756e-09
5.9699444e-07
3.811431e-09
5.9620094e-07
2.5595693e-09
5.9564376e-07
1.310765e-09
5.9531017e-07
6.4354572e-11
5.9519292e-07
-1.1803193e-09
5.9528976e-07
-2.4238587e-09
5.956034e-07
-3.6667663e-09
5.961416e-07
-4.9094068e-09
5.9691769e-07
-6.151984e-09
5.9795148e-07
-7.3945468e-09
5.9927064e-07
-8.6370411e-09
6.0091297e-07
-9.8794094e-09
6.0292969e-07
-1.1121675e-08
6.0538997e-07
-1.2364541e-08
6.0838679e-07
-1.3615637e-08
6.1206358e-07
-1.4912488e-08
6.1676794e-07
-1.6322003e-08
6.2343439e-07
-1.7683971e-08
6.3311492e-07
-1.7937301e-08
6.4147374e-07
-1.5102965e-08
6.2652478e-07
-8.6234362e-09
5.4646236e-07
-2.0561401e-09
3.7193292e-07
1.3020851e-07
1.7213897e-09
1.044119e-07
7.7997717e-09
3.1945129e-07
1.5513447e-08
5.0954656e-07
2.0072825e-08
6.2048001e-07
2.0610511e-08
6.5203188e-07
1.9251409e-08
6.4539014e-07
1.7666319e-08
6.3278457e-07
1.6262047e-08
6.2380189e-07
1.4963126e-08
6.1782466e-07
1.369499e-08
6.1334049e-07
1.243679e-08
6.0971846e-07
1.1184985e-08
6.0674035e-07
9.9383662e-09
6.0428566e-07
8.6961292e-09
6.0226519e-07
7.4578182e-09
6.0061233e-07
6.2231678e-09
5.9927792e-07
4.99196e-09
5.9822565e-07
3.7639527e-09
5.9742895e-07
2.5388552e-09
5.9686886e-07
1.3163329e-09
5.9653269e-07
9.6030156e-11
5.9641323e-07
-1.122399e-09
5.9650819e-07
-2.3392558e-09
5.9682026e-07
-3.5547655e-09
5.9735711e-07
-4.7690545e-09
5.9813198e-07
-5.9821437e-09
5.9916457e-07
-7.1939728e-09
6.0048246e-07
-8.4044713e-09
6.0212346e-07
-9.6136735e-09
6.0413889e-07
-1.0821834e-08
6.0659813e-07
-1.2030325e-08
6.0959528e-07
-1.3248787e-08
6.1328204e-07
-1.4516801e-08
6.1803596e-07
-1.5889231e-08
6.2480682e-07
-1.7159569e-08
6.3438525e-07
-1.7241893e-08
6.4155607e-07
-1.4306265e-08
6.2358915e-07
-8.0489987e-09
5.4020509e-07
-1.9296695e-09
3.6581359e-07
1.2827884e-07
1.6261167e-09
1.0278581e-07
7.2935426e-09
3.1378391e-07
1.4681407e-08
5.0215873e-07
1.9296499e-08
6.1586494e-07
2.004999e-08
6.5127839e-07
1.8826891e-08
6.4661324e-07
1.7289333e-08
6.3432213e-07
1.5909861e-08
6.2518136e-07
1.46399e-08
6.1909462e-07
1.3404517e-08
6.1457587e-07
1.2179619e-08
6.1094335e-07
1.0960534e-08
6.0795943e-07
9.745763e-09
6.0550044e-07
8.5343674e-09
6.0347659e-07
7.3258333e-09
6.0182087e-07
6.1199179e-09
6.0048383e-07
4.9164966e-09
5.9942907e-07
3.7154757e-09
5.9862997e-07
2.5167542e-09
5.9806758e-07
1.3202153e-09
5.9772923e-07
1.257362e-10
5.976077e-07
-1.0667938e-09
5.9770072e-07
-2.2574503e-09
5.9801091e-07
-3.4462557e-09
5.9854591e-07
-4.6331699e-09
5.993189e-07
-5.8180977e-09
6.0034949e-07
-7.0009291e-09
6.016653e-07
-8.1816253e-09
6.0330416e-07
-9.3603447e-09
6.0531761e-07
-1.0537599e-08
6.0777538e-07
-1.1715463e-08
6.1077314e-07
-1.29055e-08
6.1447208e-07
-1.4148415e-08
6.1927887e-07
-1.548527e-08
6.2614368e-07
-1.666604e-08
6.3556602e-07
-1.6591336e-08
6.4148136e-07
-1.3578073e-08
6.2057589e-07
-7.5405476e-09
5.3416757e-07
-1.8211343e-09
3.6009417e-07
1.264577e-07
1.5382228e-09
1.0124761e-07
6.8388298e-09
3.0848336e-07
1.3914258e-08
4.9508336e-07
1.8560591e-08
6.1121863e-07
1.9510923e-08
6.5032807e-07
1.8422144e-08
6.4770202e-07
1.6933631e-08
6.3581064e-07
1.5577182e-08
6.2653781e-07
1.4332845e-08
6.2033896e-07
1.3127001e-08
6.1578172e-07
1.1932602e-08
6.1213775e-07
1.074379e-08
6.0914825e-07