/*--------------------------------*- C++ -*----------------------------------*\
  =========                 |
  \\      /  F ield         | OpenFOAM: The Open Source CFD Toolbox
   \\    /   O peration     | Website:  https://openfoam.org
    \\  /    A nd           | Version:  10
     \\/     M anipulation  |
\*---------------------------------------------------------------------------*/
FoamFile
{
    format      ascii;
    class       surfaceScalarField;
    location    "0.3";
    object      phi_0;
}
// * * * * * * * * * * * * * * * * * * * * * * * * * * * * * * * * * * * * * //

dimensions      [1 0 -1 0 0 0 0];

internalField   nonuniform List<scalar> 
7860
(
3.9896006e-08
5.2881203e-07
1.2192739e-08
5.9641108e-07
7.4279166e-09
5.7347258e-07
5.4994348e-09
5.706362e-07
4.1150074e-09
5.7009211e-07
3.2011464e-09
5.6962152e-07
2.5591423e-09
5.6934965e-07
2.079302e-09
5.6918747e-07
1.7092972e-09
5.6907762e-07
1.4166044e-09
5.690003e-07
1.1794284e-09
5.6894478e-07
9.8300647e-10
5.6890401e-07
8.1699525e-10
5.688736e-07
6.7390469e-10
5.6885067e-07
5.4816184e-10
5.6883332e-07
4.3550631e-10
5.6882023e-07
3.3258474e-10
5.6881049e-07
2.3667011e-10
5.6880349e-07
1.4545973e-10
5.6879878e-07
5.6922868e-11
5.6879611e-07
-3.0822933e-11
5.6879531e-07
-1.1961963e-10
5.6879637e-07
-2.1137321e-10
5.6879932e-07
-3.0816077e-10
5.6880436e-07
-4.1236275e-10
5.6881177e-07
-5.2682569e-10
5.6882204e-07
-6.550832e-10
5.6883584e-07
-8.0166872e-10
5.6885417e-07
-9.7257609e-10
5.6887849e-07
-1.1759663e-09
5.6891098e-07
-1.4233404e-09
5.6895497e-07
-1.7315095e-09
5.6901578e-07
-2.1254514e-09
5.6910156e-07
-2.6450469e-09
5.6922722e-07
-3.3727098e-09
5.6943531e-07
-4.4639882e-09
5.6979894e-07
-6.0092784e-09
5.7025298e-07
-9.5082515e-09
5.7220669e-07
-2.9576127e-08
5.8877564e-07
5.3913181e-07
5.9672549e-08
4.6913949e-07
3.666601e-08
6.1941762e-07
2.262818e-08
5.8751041e-07
1.6253582e-08
5.7701079e-07
1.2290507e-08
5.7405519e-07
9.6062372e-09
5.7230579e-07
7.6774319e-09
5.7127845e-07
6.2360555e-09
5.7062884e-07
5.1265119e-09
5.7018716e-07
4.2487289e-09
5.6987808e-07
3.5373722e-09
5.6965613e-07
2.9482735e-09
5.6949311e-07
2.4503878e-09
5.6937148e-07
2.0212404e-09
5.6927982e-07
1.644117e-09
5.6921044e-07
1.3062409e-09
5.6915811e-07
9.9755538e-10
5.6911918e-07
7.0988259e-10
5.6909116e-07
4.3631738e-10
5.6907235e-07
1.7076877e-10
5.6906165e-07
-9.2408963e-11
5.6905849e-07
-3.587384e-10
5.6906269e-07
-6.33931e-10
5.6907452e-07
-9.2421844e-10
5.6909465e-07
-1.2367392e-09
5.6912429e-07
-1.5800295e-09
5.6916533e-07
-1.964686e-09
5.6922049e-07
-2.404304e-09
5.6929378e-07
-2.9168658e-09
5.6939105e-07
-3.5268631e-09
5.6952098e-07
-4.2687139e-09
5.6969682e-07
-5.1927827e-09
5.6993984e-07
-6.3756926e-09
5.7028447e-07
-7.9361593e-09
5.7078769e-07
-1.0077403e-08
5.7157655e-07
-1.3205546e-08
5.7292708e-07
-1.8135351e-08
5.7518278e-07
-2.8177556e-08
5.822489e-07
-4.5803397e-08
6.0640148e-07
4.9332841e-07
6.0008874e-08
4.0913061e-07
5.0487323e-08
6.2893917e-07
3.3370706e-08
6.0462702e-07
2.48177e-08
5.855638e-07
1.932326e-08
5.7954963e-07
1.5331494e-08
5.7629756e-07
1.236069e-08
5.7424926e-07
1.0101494e-08
5.7288804e-07
8.3405293e-09
5.7194813e-07
6.9346768e-09
5.7128393e-07
5.7878575e-09
5.7080295e-07
4.8333074e-09
5.7044766e-07
4.0232625e-09
5.7018153e-07
3.3227379e-09
5.6998034e-07
2.7054709e-09
5.6982771e-07
2.15123e-09
5.6971235e-07
1.6439906e-09
5.6962642e-07
1.1706543e-09
5.6956449e-07
7.2011474e-10
5.6952288e-07
2.8254482e-10
5.6949922e-07
-1.5118102e-10
5.6949222e-07
-5.8999271e-10
5.6950151e-07
-1.0431177e-09
5.6952764e-07
-1.5206014e-09
5.6957213e-07
-2.0339095e-09
5.696376e-07
-2.5966879e-09
5.6972811e-07
-3.225774e-09
5.6984958e-07
-3.9426081e-09
5.7001062e-07
-4.7752831e-09
5.7022373e-07
-5.7616081e-09
5.705073e-07
-6.953767e-09
5.7088898e-07
-8.4259563e-09
5.7141203e-07
-1.0287573e-08
5.7214608e-07
-1.2700485e-08
5.732006e-07
-1.5897849e-08
5.7477391e-07
-2.0241546e-08
5.7727078e-07
-2.6709733e-08
5.8165097e-07
-3.8949189e-08
5.9448835e-07
-4.8168083e-08
6.1562037e-07
4.4516033e-07
5.4879108e-08
3.542515e-07
5.7452265e-08
6.2636601e-07
4.0467609e-08
6.2161168e-07
3.0778795e-08
5.9525261e-07
2.4643061e-08
5.8568536e-07
1.9952273e-08
5.8098834e-07
1.6312878e-08
5.7788865e-07
1.3466418e-08
5.757345e-07
1.1200782e-08
5.7421377e-07
9.3642631e-09
5.7312045e-07
7.8489794e-09
5.7231823e-07
6.5764433e-09
5.717202e-07
5.4888098e-09
5.7126916e-07
4.5427675e-09
5.7092639e-07
3.7052232e-09
5.7066526e-07
2.9503211e-09
5.7046725e-07
2.2573453e-09
5.7031939e-07
1.6092019e-09
5.7021264e-07
9.9128746e-10
5.701408e-07
3.9060892e-10
5.700999e-07
-2.049394e-10
5.7008777e-07
-8.0721609e-10
5.7010378e-07
-1.4284537e-09
5.7014888e-07
-2.0819132e-09
5.7022559e-07
-2.7826346e-09
5.7033832e-07
-3.5483648e-09
5.7049384e-07
-4.4007647e-09
5.7070198e-07
-5.3670424e-09
5.709769e-07
-6.4822335e-09
5.7133892e-07
-7.7924616e-09
5.7181753e-07
-9.3595049e-09
5.7245602e-07
-1.1267182e-08
5.7331971e-07
-1.3631756e-08
5.7451066e-07
-1.6614567e-08
5.7618341e-07
-2.0413383e-08
5.7857273e-07
-2.5294878e-08
5.8215227e-07
-3.2519042e-08
5.8887513e-07
-4.5102602e-08
6.0707191e-07
-4.6550444e-08
6.1706822e-07
3.9860988e-07
4.7965834e-08
3.0628567e-07
6.0076659e-08
6.1425518e-07
4.5400256e-08
6.3628808e-07
3.4875422e-08
6.0577745e-07
2.8399879e-08
5.921609e-07
2.3419585e-08
5.8596864e-07
1.9434199e-08
5.8187404e-07
1.6228983e-08
5.7893972e-07
1.3619422e-08
5.7682333e-07
1.1466112e-08
5.7527376e-07
9.6639261e-09
5.7412042e-07
8.132827e-09
5.732513e-07
6.8117929e-09
5.725902e-07
5.6538131e-09
5.7208437e-07
4.6221143e-09
5.7169695e-07
3.6874119e-09
5.7140195e-07
2.825869e-09
5.7118094e-07
2.0175583e-09
5.7102095e-07
1.245277e-09
5.7091308e-07
4.9360176e-10
5.7085158e-07
-2.5190413e-10
5.7083327e-07
-1.0054009e-09
5.7085728e-07
-1.7814625e-09
5.7092494e-07
-2.5957995e-09
5.7103993e-07
-3.4660745e-09
5.712086e-07
-4.4128866e-09
5.7144065e-07
-5.4610111e-09
5.717501e-07
-6.6410086e-09
5.7215689e-07
-7.9913527e-09
5.7268926e-07
-9.5613028e-09
5.7338748e-07
-1.141468e-08
5.743094e-07
-1.3634294e-08
5.7553932e-07
-1.6328442e-08
5.7720481e-07
-1.9640725e-08
5.794957e-07
-2.3741399e-08
5.826734e-07
-2.8933392e-08
5.8734427e-07
-3.6793594e-08
5.9673533e-07
-4.8466083e-08
6.187444e-07
-4.3195556e-08
6.1179769e-07
3.5541433e-07
4.0336144e-08
2.6594952e-07
5.8994299e-08
5.9559703e-07
4.8330294e-08
6.4695209e-07
3.758823e-08
6.1651951e-07
3.0928986e-08
5.9882015e-07
2.5894032e-08
5.9100359e-07
2.1779959e-08
5.8598811e-07
1.8391918e-08
5.8232776e-07
1.5577251e-08
5.7963799e-07
1.3213913e-08
5.776371e-07
1.1205964e-08
5.7612837e-07
9.4781156e-09
5.7497915e-07
7.971227e-09
5.7409708e-07
6.6383961e-09
5.734172e-07
5.4419985e-09
5.7289335e-07
4.3514187e-09
5.7249253e-07
3.3412713e-09
5.7219108e-07
2.3900007e-09
5.7197222e-07
1.478764e-09
5.7182432e-07
5.9050976e-10
5.7173983e-07
-2.9081217e-10
5.7171459e-07
-1.180968e-09
5.7174743e-07
-2.0961428e-09
5.7184011e-07
-3.0536685e-09
5.7199745e-07
-4.0728301e-09
5.7222776e-07
-5.1758119e-09
5.7254363e-07
-6.3888487e-09
5.7296314e-07
-7.743661e-09
5.7351171e-07
-9.2792525e-09
5.7422486e-07
-1.1044218e-08
5.7515245e-07
-1.3099774e-08
5.7636496e-07
-1.5523185e-08
5.7796273e-07
-1.8411847e-08
5.8009347e-07
-2.1889932e-08
5.8297378e-07
-2.6113219e-08
5.8689669e-07
-3.1491261e-08
5.9272231e-07
-3.9657556e-08
6.0490163e-07
-4.9175123e-08
6.2826197e-07
-3.8579938e-08
6.012025e-07
3.1683439e-07
3.286282e-08
2.330867e-07
5.5250294e-08
5.7320955e-07
4.9232543e-08
6.5296984e-07
3.9061739e-08
6.2669031e-07
3.2430818e-08
6.0545107e-07
2.7518849e-08
5.9591556e-07
2.3438701e-08
5.9006826e-07
2.0002801e-08
5.8576366e-07
1.7094599e-08
5.8254619e-07
1.4611873e-08
5.8011983e-07
1.2470837e-08
5.782694e-07
1.0604243e-08
5.7684574e-07
8.9578535e-09
5.7574347e-07
7.4874774e-09
5.7488757e-07
6.1567879e-09
5.7422404e-07
4.935562e-09
5.7371376e-07
3.7982379e-09
5.7332841e-07
2.7227382e-09
5.7304772e-07
1.6894938e-09
5.7285756e-07
6.8061299e-10
5.7274871e-07
-3.2085094e-10
5.7271606e-07
-1.3315738e-09
5.7275816e-07
-2.3686265e-09
5.7287717e-07
-3.4501583e-09
5.7307898e-07
-4.5961382e-09
5.7337374e-07
-5.8292025e-09
5.7377669e-07
-7.1756517e-09
5.7430959e-07
-8.6666514e-09
5.7500271e-07
-1.0339682e-08
5.7589789e-07
-1.2240316e-08
5.7705308e-07
-1.4424605e-08
5.7854925e-07
-1.6961973e-08
5.805001e-07
-1.9937261e-08
5.8306876e-07
-2.3451239e-08
5.8648776e-07
-2.7645331e-08
5.9109078e-07
-3.3038024e-08
5.98115e-07
-4.101432e-08
6.1287793e-07
-4.7690954e-08
6.349386e-07
-3.3377698e-08
5.8688925e-07
2.8345669e-07
2.6189141e-08
2.0689756e-07
5.0133059e-08
5.4926563e-07
4.8493968e-08
6.5460893e-07
3.949137e-08
6.3569291e-07
3.3077689e-08
6.1186475e-07
2.8412188e-08
6.0058106e-07
2.4492972e-08
5.9398747e-07
2.1118183e-08
5.8913845e-07
1.820694e-08
5.8545744e-07
1.5680018e-08
5.8264675e-07
1.3468282e-08
5.8048114e-07
1.1514557e-08
5.7879946e-07
9.7713287e-09
5.774867e-07
8.1988105e-09
5.7646009e-07
6.7634742e-09
5.7565938e-07
5.436778e-09
5.7504045e-07
4.1940784e-09
5.7457111e-07
3.0137072e-09
5.7422809e-07
1.876173e-09
5.7399509e-07
7.6345892e-10
5.7386143e-07
-3.4161413e-10
5.7382113e-07
-1.4559835e-09
5.7387253e-07
-2.5969375e-09
5.7401812e-07
-3.7827183e-09
5.7426476e-07
-5.0331643e-09
5.7462419e-07
-6.3704256e-09
5.7511395e-07
-7.8197757e-09
5.7575894e-07
-9.4105594e-09
5.7659349e-07
-1.11773e-08
5.7766463e-07
-1.3160968e-08
5.7903675e-07
-1.5410631e-08
5.8079891e-07
-1.7985572e-08
5.8307504e-07
-2.0955241e-08
5.8603842e-07
-2.4394825e-08
5.8992734e-07
-2.8439865e-08
5.9513582e-07
-3.3695711e-08
6.0337085e-07
-4.1066974e-08
6.2024919e-07
-4.4800904e-08
6.3867253e-07
-2.8206139e-08
5.7029448e-07
2.5525055e-07
2.0571072e-08
1.8632649e-07
4.4583634e-08
5.2525307e-07
4.6643449e-08
6.5254911e-07
3.9153627e-08
6.4318274e-07
3.3084163e-08
6.1793421e-07
2.8717874e-08
6.0494735e-07
2.5038297e-08
5.9766705e-07
2.1803814e-08
5.9237293e-07
1.895911e-08
5.8830214e-07
1.6448134e-08
5.8515773e-07
1.4217391e-08
5.8271188e-07
1.2220702e-08
5.8079615e-07
1.0418287e-08
5.7928912e-07
8.7757944e-09
5.7810258e-07
7.2634724e-09
5.771717e-07
5.855358e-09
5.7644857e-07
4.5285374e-09
5.7589793e-07
3.26248e-09
5.7549415e-07
2.0384311e-09
5.7521914e-07
8.3885573e-10
5.75061e-07
-3.530822e-10
5.7501307e-07
-1.5540158e-09
5.7507346e-07
-2.7808724e-09
5.7524498e-07
-4.0513752e-09
5.7553527e-07
-5.3845672e-09
5.7595738e-07
-6.8013779e-09
5.7653077e-07
-8.32524e-09
5.772828e-07
-9.9827747e-09
5.7825102e-07
-1.1804558e-08
5.7948641e-07
-1.3825916e-08
5.8105811e-07
-1.6087836e-08
5.8306083e-07
-1.8638163e-08
5.8562537e-07
-2.1530002e-08
5.8893026e-07
-2.4817364e-08
5.932147e-07
-2.8646497e-08
5.9896495e-07
-3.3664864e-08
6.0838921e-07
-4.0148833e-08
6.2673316e-07
-4.1163037e-08
6.3968673e-07
-2.3418643e-08
5.5255009e-07
2.3183191e-07
1.6015673e-08
1.7031081e-07
3.9144446e-08
5.021243e-07
4.4119228e-08
6.4757433e-07
3.8290236e-08
6.4901173e-07
3.265438e-08
6.2357007e-07
2.8591968e-08
6.0900976e-07
2.5183852e-08
6.0107517e-07
2.2136071e-08
5.9542071e-07
1.9404735e-08
5.9103348e-07
1.695379e-08
5.8760867e-07
1.4744261e-08
5.8492141e-07
1.2740551e-08
5.8279986e-07
1.0910752e-08
5.8111891e-07
9.2263465e-09
5.7978699e-07
7.6618628e-09
5.7873618e-07
6.1944575e-09
5.7791597e-07
4.8034876e-09
5.772889e-07
3.4700836e-09
5.7682755e-07
2.1767282e-09
5.765125e-07
9.0684797e-10
5.7633088e-07
-3.5558377e-10
5.762755e-07
-1.6264333e-09
5.7634431e-07
-2.9217988e-09
5.7654034e-07
-4.2584007e-09
5.7687187e-07
-5.6539812e-09
5.7735296e-07
-7.1277188e-09
5.780045e-07
-8.7006557e-09
5.7885574e-07
-1.0396136e-08
5.799465e-07
-1.2240263e-08
5.8133054e-07
-1.4262315e-08
5.8308016e-07
-1.6495115e-08
5.8529363e-07
-1.8975413e-08
5.8810567e-07
-2.1741343e-08
5.9169619e-07
-2.4833379e-08
5.9630674e-07
-2.8420449e-08
6.0255202e-07
-3.3129855e-08
6.1309862e-07
-3.8554823e-08
6.3215812e-07
-3.7219849e-08
6.3835176e-07
-1.9184616e-08
5.3451486e-07
2.1264729e-07
1.2423985e-08
1.5788683e-07
3.4114598e-08
4.8043368e-07
4.125052e-08
6.4043841e-07
3.707936e-08
6.5318289e-07
3.1942476e-08
6.2870695e-07
2.8169201e-08
6.1278304e-07
2.5033277e-08
6.0421109e-07
2.2192206e-08
5.9826178e-07
1.9600921e-08
5.9362476e-07
1.7238839e-08
5.8997075e-07
1.5079331e-08
5.8708092e-07
1.3096086e-08
5.8478311e-07
1.1264468e-08
5.8295053e-07
9.5616275e-09
5.8148983e-07
7.9664483e-09
5.8033136e-07
6.4594223e-09
5.79423e-07
5.0224682e-09
5.7872585e-07
3.6387044e-09
5.7821131e-07
2.2921933e-09
5.7785901e-07
9.6767074e-10
5.776554e-07
-3.4973092e-10
5.775929e-07
-1.6747616e-09
5.7766934e-07
-3.0223398e-09
5.7788792e-07
-4.4078331e-09
5.7825736e-07
-5.8473367e-09
5.7879246e-07
-7.3579472e-09
5.7951511e-07
-8.9580217e-09
5.8045581e-07
-1.0667411e-08
5.8165589e-07
-1.2507666e-08
5.8317079e-07
-1.4502204e-08
5.850747e-07
-1.6676335e-08
5.8746776e-07
-1.9056946e-08
5.9048628e-07
-2.1669526e-08
5.9430877e-07
-2.4548272e-08
5.9918549e-07
-2.7887793e-08
6.0589154e-07
-3.2233379e-08
6.1744421e-07
-3.6527084e-08
6.3645183e-07
-3.3272621e-08
6.350973e-07
-1.5565747e-08
5.1680798e-07
1.9708154e-07
9.6573888e-09
1.4822944e-07
2.9646404e-08
4.6044467e-07
3.8283981e-08
6.3180083e-07
3.5659171e-08
6.558077e-07
3.1059638e-08
6.3330648e-07
2.7553946e-08
6.1628873e-07
2.4673144e-08
6.0709189e-07
2.2040996e-08
6.0089393e-07
1.9601538e-08
5.9606422e-07
1.73448e-08
5.9222749e-07
1.525417e-08
5.8917155e-07
1.331107e-08
5.8672621e-07
1.1497168e-08
5.8476443e-07
9.7947385e-09
5.8319226e-07
8.1867812e-09
5.8193932e-07
6.6570771e-09
5.809527e-07
5.1901836e-09
5.8019275e-07
3.7713588e-09
5.7963014e-07
2.386441e-09
5.7924393e-07
1.0216974e-09
5.7902015e-07
-3.3634648e-10
5.7895094e-07
-1.701086e-09
5.7903408e-07
-3.086025e-09
5.7927286e-07
-4.5049562e-09
5.7967629e-07
-5.972131e-09
5.8025964e-07
-7.5024121e-09
5.8104539e-07
-9.1113963e-09
5.8206479e-07
-1.0815491e-08
5.8335999e-07
-1.2631941e-08
5.8498724e-07
-1.4578827e-08
5.8702158e-07
-1.6674884e-08
5.8956382e-07
-1.8938586e-08
5.9274998e-07
-2.1385438e-08
5.9675562e-07
-2.404958e-08
6.0184963e-07
-2.7147404e-08
6.0898937e-07
-3.1093603e-08
6.2139041e-07
-3.4269754e-08
6.3962798e-07
-2.9526508e-08
6.3035405e-07
-1.2557402e-08
4.9983888e-07
1.8452414e-07
7.5670624e-09
1.4066238e-07
2.5787526e-08
4.422242e-07
3.5390473e-08
6.2219788e-07
3.413953e-08
6.5705864e-07
3.0088861e-08
6.3735715e-07
2.6826196e-08
6.1955139e-07
2.417314e-08
6.0974495e-07
2.1740225e-08
6.0332684e-07
1.9453872e-08
5.9835057e-07
1.730973e-08
5.9437163e-07
1.5298922e-08
5.9118236e-07
1.3409068e-08
5.8861606e-07
1.1627054e-08
5.8654645e-07
9.9395677e-09
5.8487974e-07
8.3332949e-09
5.8354559e-07
6.7950829e-09
5.8249091e-07
5.3120445e-09
5.8167578e-07
3.8715885e-09
5.8107059e-07
2.4614012e-09
5.8065411e-07
1.0693909e-09
5.8041216e-07
-3.1639403e-10
5.8033673e-07
-1.7078581e-09
5.8042554e-07
-3.1169617e-09
5.8068196e-07
-4.5558138e-09
5.8111514e-07
-6.0367522e-09
5.8174057e-07
-7.5723977e-09
5.8258104e-07
-9.1756731e-09
5.8366807e-07
-1.0859769e-08
5.8504408e-07
-1.2638052e-08
5.8676553e-07
-1.452395e-08
5.8890748e-07
-1.6530643e-08
5.9157051e-07
-1.8669725e-08
5.9488906e-07
-2.0949698e-08
5.990356e-07
-2.3409756e-08
6.0430968e-07
-2.6279657e-08
6.1185927e-07
-2.9811599e-08
6.2492235e-07
-3.1944491e-08
6.4176087e-07
-2.6103866e-08
6.2451342e-07
-1.0112941e-08
4.8384795e-07
1.744112e-07
6.0124332e-09
1.3464994e-07
2.2516188e-08
4.2572045e-07
3.2671859e-08
6.1204221e-07
3.2600883e-08
6.5712962e-07
2.909024e-08
6.408678e-07
2.6046125e-08
6.2259551e-07
2.3588605e-08
6.1220247e-07
2.1337474e-08
6.0557797e-07
1.9198117e-08
6.0048993e-07
1.7167074e-08
5.9640267e-07
1.5240971e-08
5.9310846e-07
1.3412179e-08
5.9044485e-07
1.1671712e-08
5.8828691e-07
1.0009901e-08
5.8654155e-07
8.4166023e-09
5.8513889e-07
6.8814022e-09
5.8402611e-07
5.3937784e-09
5.8316341e-07
3.9431981e-09
5.8252117e-07
2.5191706e-09
5.8207814e-07
1.1112621e-09
5.8182007e-07
-2.9091481e-10
5.8173891e-07
-1.697726e-09
5.8183235e-07
-3.1195479e-09
5.8210378e-07
-4.5667917e-09
5.8256239e-07
-6.0499106e-09
5.8322369e-07
-7.5793812e-09
5.8411051e-07
-9.1656477e-09
5.8525434e-07
-1.0819017e-08
5.8669745e-07
-1.2549499e-08
5.8849601e-07
-1.4366631e-08
5.9072461e-07
-1.6279098e-08
5.9348298e-07
-1.8293195e-08
5.9690316e-07
-2.0413504e-08
6.0115591e-07
-2.2687832e-08
6.0658401e-07
-2.5348157e-08
6.1451959e-07
-2.8467973e-08
6.2804216e-07
-2.9665502e-08
6.429584e-07
-2.3059972e-08
6.1790789e-07
-8.1639209e-09
4.689519e-07
1.6624728e-07
4.8707982e-09
1.2977915e-07
1.9773841e-08
4.1081741e-07
3.0176414e-08
6.0163964e-07
3.1095582e-08
6.5621045e-07
2.8103281e-08
6.438601e-07
2.5256032e-08
6.2544276e-07
2.2961672e-08
6.1449683e-07
2.0870798e-08
6.0766885e-07
1.8867555e-08
6.0249317e-07
1.6945395e-08
5.9832483e-07
1.5104394e-08
5.9494946e-07
1.3340364e-08
5.9220888e-07
1.1647432e-08
5.8997985e-07
1.0018808e-08
5.8817018e-07
8.4469756e-09
5.8671072e-07
6.9238817e-09
5.8554921e-07
5.4411148e-09
5.8464617e-07
3.9900388e-09
5.8397225e-07
2.5618889e-09
5.8350629e-07
1.147836e-09
5.8323412e-07
-2.60973e-10
5.8314771e-07
-1.6733876e-09
5.8324477e-07
-3.0982325e-09
5.8352863e-07
-4.5442778e-09
5.8400843e-07
-6.0201949e-09
5.8469961e-07
-7.534486e-09
5.856248e-07
-9.095381e-09
5.8681523e-07
-1.0710695e-08
5.8831276e-07
-1.2387643e-08
5.9017296e-07
-1.4132655e-08
5.9246962e-07
-1.595095e-08
5.9530127e-07
-1.7845051e-08
5.9879726e-07
-1.981843e-08
6.0312928e-07
-2.1929244e-08
6.0869483e-07
-2.439966e-08
6.1699001e-07
-2.7121491e-08
6.3076399e-07
-2.7504907e-08
6.4334182e-07
-2.0404203e-08
6.1080719e-07
-6.6346946e-09
4.5518239e-07
1.5961258e-07
4.0397983e-09
1.2573935e-07
1.748801e-08
3.973692e-07
2.7918107e-08
5.9120954e-07
2.9654264e-08
6.5447429e-07
2.7151193e-08
6.4636317e-07
2.4483116e-08
6.2811083e-07
2.2322493e-08
6.1665745e-07
2.036928e-08
6.0962206e-07
1.8488763e-08
6.0437369e-07
1.6668328e-08
6.0014527e-07
1.4909725e-08
5.9670806e-07
1.3211103e-08
5.9390751e-07
1.1568812e-08
5.9162214e-07
9.9782468e-09
5.8976074e-07
8.4339874e-09
5.8825498e-07
6.9299495e-09
5.8705325e-07
5.4595479e-09
5.8611658e-07
4.0158397e-09
5.8541596e-07
2.5916422e-09
5.8493049e-07
1.179626e-09
5.8464613e-07
-2.2761007e-10
5.8455495e-07
-1.6374748e-09
5.8465463e-07
-3.0573256e-09
5.8494848e-07
-4.4944017e-09
5.8544551e-07
-5.9557445e-09
5.8616095e-07
-7.4480964e-09
5.8711715e-07
-8.9777734e-09
5.8834491e-07
-1.0550511e-08
5.898855e-07
-1.2171289e-08
5.9179373e-07
-1.3844159e-08
5.9414249e-07
-1.5571807e-08
5.9702892e-07
-1.7354351e-08
6.005798e-07
-1.9196462e-08
6.049714e-07
-2.1166736e-08
6.106651e-07
-2.3466177e-08
6.1928945e-07
-2.5811926e-08
6.3310974e-07
-2.5502483e-08
6.4303237e-07
-1.8118041e-08
6.0342275e-07
-5.4508919e-09
4.4251524e-07
1.5416169e-07
3.4367582e-09
1.223026e-07
1.5584886e-08
3.8522107e-07
2.5890327e-08
5.8090411e-07
2.8292359e-08
6.5207226e-07
2.6245859e-08
6.4840967e-07
2.3743277e-08
6.3061341e-07
2.1691387e-08
6.1870934e-07
1.9854147e-08
6.114593e-07
1.8082166e-08
6.0614567e-07
1.6354785e-08
6.0187265e-07
1.4673948e-08
5.983889e-07
1.3039255e-08
5.955422e-07
1.1448558e-08
5.9321283e-07
9.8988362e-09
5.9131047e-07
8.3862848e-09
5.8976753e-07
6.9064126e-09
5.8853312e-07
5.4541711e-09
5.8756882e-07
4.0240888e-09
5.8684604e-07
2.6103927e-09
5.8634418e-07
1.2071157e-09
5.8604941e-07
-1.9180968e-10
5.8595388e-07
-1.5924646e-09
5.8605529e-07
-3.0008602e-09
5.8635687e-07
-4.4228487e-09
5.868675e-07
-5.8640232e-09
5.8760213e-07
-7.3296021e-09
5.8858273e-07
-8.8242958e-09
5.898396e-07
-1.0352161e-08
5.9141337e-07
-1.1916456e-08
5.9335803e-07
-1.3519497e-08
5.9574553e-07
-1.5162228e-08
5.9867165e-07
-1.6843534e-08
6.0226111e-07
-1.8571032e-08
6.0669889e-07
-2.0422561e-08
6.1251663e-07
-2.2568222e-08
6.2143511e-07
-2.4564158e-08
6.3510568e-07
-2.3675086e-08
6.421433e-07
-1.6167517e-08
5.9591518e-07
-4.5441024e-09
4.3089183e-07
1.4961759e-07
2.9970474e-09
1.1930555e-07
1.3996006e-08
3.7422212e-07
2.4075225e-08
5.7082489e-07
2.7015032e-08
6.4913245e-07
2.5391679e-08
6.5003302e-07
2.3044555e-08
6.3296054e-07
2.1081226e-08
6.2067267e-07
1.9340287e-08
6.1320024e-07
1.7662953e-08
6.07823e-07
1.6019453e-08
6.0351615e-07
1.4410721e-08
5.9999763e-07
1.2837117e-08
5.971158e-07
1.1297441e-08
5.9475251e-07
9.7897594e-09
5.9281815e-07
8.3114722e-09
5.9124582e-07
6.8593401e-09
5.8998525e-07
5.429576e-09
5.8899858e-07
4.0179561e-09
5.8825766e-07
2.6199341e-09
5.8774221e-07
1.2307491e-09
5.874386e-07
-1.5447232e-10
5.873391e-07
-1.540619e-09
5.8744143e-07
-2.9324993e-09
5.8774875e-07
-4.3347402e-09
5.8826974e-07
-5.7516806e-09
5.8901907e-07
-7.1872531e-09
5.900183e-07
-8.644859e-09
5.9129721e-07
-1.0127244e-08
5.9289575e-07
-1.163639e-08
5.9486717e-07
-1.3173417e-08
5.9728256e-07
-1.473818e-08
6.0023641e-07
-1.6329303e-08
6.0385223e-07
-1.7958537e-08
6.0832813e-07
-1.9710842e-08
6.1426893e-07
-2.1717687e-08
6.2344196e-07
-2.3391695e-08
6.3677969e-07
-2.2023904e-08
6.4077551e-07
-1.4511602e-08
5.8840288e-07
-3.8544283e-09
4.2023465e-07
1.4576316e-07
2.6718277e-09
1.1663373e-07
1.2661628e-08
3.6423233e-07
2.2450061e-08
5.6103646e-07
2.5820937e-08
6.4576158e-07
2.4588276e-08
6.5126568e-07
2.2389678e-08
6.3515913e-07
2.0499438e-08
6.2256291e-07
1.8837691e-08
6.1486198e-07
1.7242081e-08
6.0941861e-07
1.5673445e-08
6.0508478e-07
1.4130763e-08
6.0154031e-07
1.2614632e-08
5.9863193e-07
1.1124379e-08
5.9624276e-07
9.6587752e-09
5.9428375e-07
8.2160811e-09
5.9268851e-07
6.7940157e-09
5.9140731e-07
5.3898027e-09
5.9040279e-07
4.0002539e-09
5.8964721e-07
2.6218669e-09
5.8912059e-07
1.2509257e-09
5.8880954e-07
-1.1639851e-10
5.8870642e-07
-1.4839484e-09
5.8880898e-07
-2.855482e-09
5.8912029e-07
-4.2345694e-09
5.8964882e-07
-5.6244884e-09
5.9040899e-07
-7.0281134e-09
5.9142193e-07
-8.4478068e-09
5.927169e-07
-9.885324e-09
5.9433327e-07
-1.134175e-08
5.963236e-07
-1.2817437e-08
5.9875825e-07
-1.4311673e-08
6.0173065e-07
-1.5823598e-08
6.0536416e-07
-1.7369768e-08
6.098743e-07
-1.9039543e-08
6.1593871e-07
-2.0920088e-08
6.253225e-07
-2.2299694e-08
6.3815929e-07
-2.0540253e-08
6.3901607e-07
-1.3107792e-08
5.8097042e-07
-3.3314634e-09
4.1045833e-07
1.424317e-07
2.4253592e-09
1.1420838e-07
1.1531843e-08
3.5512586e-07
2.0991292e-08
5.5157702e-07
2.4705103e-08
6.4204777e-07
2.3832496e-08
6.5213829e-07
2.1777959e-08
6.3721367e-07
1.9949573e-08
6.243913e-07
1.8352656e-08
6.164589e-07
1.6827178e-08
6.1094409e-07
1.532495e-08
6.0658701e-07
1.3842302e-08
6.0302296e-07
1.2379668e-08
6.0009457e-07
1.0936607e-08
5.9768582e-07
9.5123044e-09
5.9570805e-07
8.1056062e-09
5.9409521e-07
6.7149433e-09
5.9279798e-07
5.3383316e-09
5.917794e-07
3.9734246e-09
5.9101212e-07
2.6175906e-09
5.9047643e-07
1.2680002e-09
5.9015913e-07
-7.8280058e-11
5.900527e-07
-1.4241944e-09
5.901549e-07
-2.7726032e-09
5.904687e-07
-4.1261846e-09
5.910024e-07
-5.4873379e-09
5.9177014e-07
-6.8580877e-09
5.9279268e-07
-8.2399957e-09
5.9409881e-07
-9.6340987e-09
5.9572737e-07
-1.1040889e-08
5.9773039e-07
-1.2460285e-08
6.0017764e-07
-1.3891409e-08
6.0316177e-07
-1.5334512e-08
6.0680726e-07
-1.6811166e-08
6.1135095e-07
-1.8412106e-08
6.1753965e-07
-2.0176453e-08
6.2708685e-07
-2.1287634e-08
6.3927047e-07
-1.9210109e-08
6.3693854e-07
-1.1915941e-08
5.7367625e-07
-2.9342028e-09
4.0147659e-07
1.3949749e-07
2.232262e-09
1.1197613e-07
1.0566198e-08
3.4679194e-07
1.9676861e-08
5.4246637e-07
2.3660984e-08
6.3806365e-07
2.3119879e-08
6.5267939e-07
2.1206716e-08
6.3912683e-07
1.9432551e-08
6.2616546e-07
1.7888774e-08
6.1800268e-07
1.642331e-08
6.1240955e-07
1.4979823e-08
6.080305e-07
1.35515e-08
6.0445128e-07
1.2138323e-08
6.0150774e-07
1.073988e-08
5.9908427e-07
9.3555598e-09
5.9709237e-07
7.9845822e-09
5.9546619e-07
6.6258897e-09
5.9415667e-07
5.2781044e-09
5.9312719e-07
3.9395501e-09
5.9235067e-07
2.6083075e-09
5.9180767e-07
1.2822857e-09
5.9148515e-07
-4.0697571e-11
5.9137568e-07
-1.3628292e-09
5.9147703e-07
-2.6862185e-09
5.9179209e-07
-4.0128055e-09
5.9232899e-07
-5.3442793e-09
5.9310161e-07
-6.6819977e-09
5.941304e-07
-8.0269249e-09
5.9544373e-07
-9.3796014e-09
5.9708005e-07
-1.0740163e-08
5.9909095e-07
-1.2108344e-08
6.0154582e-07
-1.3483399e-08
6.0453683e-07
-1.4867117e-08
6.0819098e-07
-1.6285925e-08
6.1276976e-07
-1.7828837e-08
6.1908256e-07
-1.9484904e-08
6.2874291e-07
-2.0351511e-08
6.4013708e-07
-1.8017244e-08
6.3460428e-07
-1.0900178e-08
5.6655918e-07
-2.6301923e-09
3.932066e-07
1.368673e-07
2.0750514e-09
1.0990109e-07
9.7325867e-09
3.3913442e-07
1.8487239e-08
5.3371174e-07
2.268174e-08
6.3386916e-07
2.2445639e-08
6.5291549e-07
2.0672305e-08
6.4090017e-07
1.8947627e-08
6.2789014e-07
1.7447731e-08
6.1950257e-07
1.6033638e-08
6.1382365e-07
1.4642093e-08
6.0942204e-07
1.3262852e-08
6.0583052e-07
1.1895222e-08
6.0287537e-07
1.0538687e-08
6.004408e-07
9.1926956e-09
5.9843836e-07
7.8566848e-09
5.968022e-07
6.5299496e-09
5.954834e-07
5.2115642e-09
5.9444557e-07
3.9003755e-09
5.9366186e-07
2.5950359e-09
5.9311301e-07
1.2940575e-09
5.9278613e-07
-4.1211078e-12
5.9267386e-07
-1.3010664e-09
5.9277397e-07
-2.5982665e-09
5.9308929e-07
-3.8970651e-09
5.9362779e-07
-5.1985888e-09
5.9440314e-07
-6.5036871e-09
5.9543549e-07
-7.8128941e-09
5.9675294e-07
-9.1264294e-09
5.9839358e-07
-1.0444251e-08
6.0040877e-07
-1.1766083e-08
6.0286766e-07
-1.309153e-08
6.0586227e-07
-1.4424201e-08
6.0952365e-07
-1.5794929e-08
6.1414049e-07
-1.728802e-08
6.2057565e-07
-1.8841869e-08
6.3029676e-07
-1.9485442e-08
6.4078065e-07
-1.694516e-08
6.3206399e-07
-1.0029448e-08
5.5964347e-07
-2.3943183e-09
3.8557147e-07
1.3447298e-07
1.9420572e-09
1.0795905e-07
9.0058913e-09
3.3207062e-07
1.7405719e-08
5.2531193e-07
2.176094e-08
6.2951395e-07
2.1805225e-08
6.5287121e-07
2.0170779e-08
6.4253461e-07
1.8493093e-08
6.2956783e-07
1.702994e-08
6.2096573e-07
1.5659942e-08
6.1519364e-07
1.4314414e-08
6.1076757e-07
1.2979537e-08
6.071654e-07
1.1653785e-08
6.0420113e-07
1.0336456e-08
6.0175813e-07
9.0269603e-09
5.9974786e-07
7.7248409e-09
5.9810432e-07
6.4296228e-09
5.9677862e-07
5.1407076e-09
5.9573449e-07
3.8573415e-09
5.9494522e-07
2.5786267e-09
5.9439172e-07
1.303558e-09
5.940612e-07
3.1074488e-11
5.9394635e-07
-1.2398814e-09
5.9404493e-07
-2.5103043e-09
5.9435971e-07
-3.781064e-09
5.9489855e-07
-5.052852e-09
5.9567492e-07
-6.3261413e-09
5.9670878e-07
-7.6011707e-09
5.9802797e-07
-8.8779734e-09
5.9967038e-07
-1.0156456e-08
6.0168725e-07
-1.1436454e-08
6.0414765e-07
-1.2718072e-08
6.0714389e-07
-1.4006898e-08
6.1081247e-07
-1.5337513e-08
6.154711e-07
-1.6786752e-08
6.2202489e-07
-1.8242947e-08
6.3175296e-07
-1.8682781e-08
6.4122049e-07
-1.5978285e-08
6.293595e-07
-9.2776279e-09
5.5294281e-07
-2.2076086e-09
3.7850145e-07
1.3226537e-07
1.8257388e-09
1.0613332e-07
8.3666284e-09
3.2552976e-07
1.6418301e-08
5.1726029e-07
2.0892892e-08
6.2503937e-07
2.1194617e-08
6.5256949e-07
1.9698296e-08
6.4403093e-07
1.8066759e-08
6.3119936e-07
1.6634998e-08
6.2239749e-07
1.5303043e-08
6.165256e-07
1.3998415e-08
6.120722e-07
1.2703723e-08
6.0846009e-07
1.1416481e-08
6.0548837e-07
1.0135749e-08
6.0303886e-07
8.8608456e-09
6.0102276e-07
7.5913395e-09
5.9937382e-07
6.3268943e-09
5.9804307e-07
5.0671403e-09
5.9699424e-07
3.8116206e-09
5.9620074e-07
2.5597838e-09
5.9564356e-07
1.3110042e-09
5.9530997e-07
6.4618184e-11
5.9519273e-07
-1.1800319e-09
5.9528958e-07
-2.4235484e-09
5.9560322e-07
-3.6664341e-09
5.9614144e-07
-4.9090539e-09
5.9691754e-07
-6.1516118e-09
5.9795134e-07
-7.394157e-09
5.9927052e-07
-8.6366354e-09
6.0091286e-07
-9.8789899e-09
6.0292961e-07
-1.1121243e-08
6.0538991e-07
-1.23641e-08
6.0838675e-07
-1.3615189e-08
6.1206356e-07
-1.4912034e-08
6.1676795e-07
-1.6321542e-08
6.234344e-07
-1.7683504e-08
6.3311492e-07
-1.7936854e-08
6.4147384e-07
-1.5102596e-08
6.2652524e-07
-8.6232079e-09
5.4646342e-07
-2.0560651e-09
3.7193431e-07
1.3020931e-07
1.7213769e-09
1.0441197e-07
7.7997263e-09
3.1945145e-07
1.551337e-08
5.0954668e-07
2.0072734e-08
6.2048002e-07
2.0610425e-08
6.520318e-07
1.9251336e-08
6.4539002e-07
1.7666263e-08
6.3278443e-07
1.6262008e-08
6.2380174e-07
1.4963105e-08
6.178245e-07
1.3694988e-08
6.1334032e-07
1.2436811e-08
6.0971827e-07
1.1185029e-08
6.0674015e-07
9.938434e-09
6.0428546e-07
8.6962223e-09
6.0226497e-07
7.4579377e-09
6.0061211e-07
6.2233142e-09
5.9927769e-07
4.9921339e-09
5.9822542e-07
3.7641544e-09
5.9742872e-07
2.5390847e-09
5.9686863e-07
1.31659e-09
5.9653247e-07
9.6314527e-11
5.9641301e-07
-1.122088e-09
5.9650798e-07
-2.338919e-09
5.9682006e-07
-3.554404e-09
5.9735692e-07
-4.7686696e-09
5.9813181e-07
-5.981737e-09
5.9916441e-07
-7.193546e-09
6.0048232e-07
-8.4040263e-09
6.0212334e-07
-9.6132124e-09
6.0413879e-07
-1.082136e-08
6.0659805e-07
-1.2029839e-08
6.0959523e-07
-1.3248292e-08
6.1328202e-07
-1.4516298e-08
6.1803595e-07
-1.5888718e-08
6.2480682e-07
-1.7159051e-08
6.3438525e-07
-1.7241399e-08
6.4155618e-07
-1.430586e-08
6.235897e-07
-8.0487501e-09
5.4020631e-07
-1.9295884e-09
3.6581515e-07
1.2827972e-07
1.6261021e-09
1.0278589e-07
7.2934899e-09
3.1378412e-07
1.4681316e-08
5.021589e-07
1.929639e-08
6.1586497e-07
2.0049885e-08
6.5127831e-07
1.8826801e-08
6.466131e-07
1.7289261e-08
6.3432197e-07
1.5909807e-08
6.251812e-07
1.4639867e-08
6.1909444e-07
1.3404506e-08
6.1457568e-07
1.2179632e-08
6.1094314e-07
1.0960572e-08
6.0795921e-07
9.7458283e-09
6.055002e-07
8.5344607e-09
6.0347634e-07
7.3259558e-09
6.0182061e-07
6.1200705e-09
6.0048358e-07
4.9166797e-09
5.9942881e-07
3.7156897e-09
5.9862971e-07
2.5169992e-09
5.9806732e-07
1.3204912e-09
5.9772898e-07
1.2604251e-10
5.9760746e-07
-1.0664577e-09
5.9770048e-07
-2.2570853e-09
5.9801068e-07
-3.445863e-09
5.985457e-07
-4.6327507e-09
5.993187e-07
-5.8176538e-09
6.0034931e-07
-7.0004623e-09
6.0166513e-07
-8.1811377e-09
6.0330402e-07
-9.3598387e-09
6.053175e-07
-1.0537077e-08
6.0777529e-07
-1.1714927e-08
6.1077308e-07
-1.2904954e-08
6.1447204e-07
-1.4147858e-08
6.1927886e-07
-1.5484702e-08
6.2614366e-07
-1.6665467e-08
6.3556602e-07
-1.6590791e-08
6.4148151e-07
-1.357763e-08
6.2057654e-07
-7.5402771e-09
5.3416896e-07
-1.8210468e-09
3.6009592e-07
1.2645867e-07
1.5382061e-09
1.0124772e-07
6.838769e-09
3.0848362e-07
1.3914153e-08
4.9508358e-07
1.8560462e-08
6.1121869e-07
1.9510796e-08
6.5032798e-07
1.8422033e-08
6.4770186e-07
1.693354e-08
6.3581046e-07
1.5577111e-08
6.2653762e-07
1.4332797e-08
6.2033876e-07
1.3126978e-08
6.157815e-07
1.1932605e-08
6.1213751e-07