/*--------------------------------*- C++ -*----------------------------------*\
  =========                 |
  \\      /  F ield         | OpenFOAM: The Open Source CFD Toolbox
   \\    /   O peration     | Website:  https://openfoam.org
    \\  /    A nd           | Version:  10
     \\/     M anipulation  |
\*---------------------------------------------------------------------------*/
FoamFile
{
    format      ascii;
    class       volScalarField;
    location    "0.3";
    object      TporMedia;
}
// * * * * * * * * * * * * * * * * * * * * * * * * * * * * * * * * * * * * * //

dimensions      [0 0 0 1 0 0 0];

internalField   nonuniform List<scalar> 
4000
(
0.00041622174
0.000280721
0.00022206591
0.00021207872
0.00021127449
0.00022479259
0.0002317421
0.00027865629
0.0002199148
0.00025184658
0.00021222235
0.00021697281
0.00022827071
0.00024307952
0.00023138819
0.00023176741
0.00026289602
0.00020216505
0.00021452104
0.00022949455
0.00021316888
0.00022633365
0.00024001332
0.00021265271
0.00023094977
0.00021611058
0.00022361445
0.000232974
0.00023295172
0.00024788653
0.0002224922
0.00022208533
0.00022495425
0.00022903602
0.00021177837
0.00025798579
0.00022584312
0.00023735578
0.00023364888
0.00022628901
0.00019927304
2.2399574e-10
8.2915566e-11
7.0756246e-11
9.4408276e-11
9.2357958e-11
9.9707241e-11
1.3778654e-10
7.3005805e-11
1.0040878e-10
8.1667754e-11
9.2737202e-11
8.9663147e-11
1.0846965e-10
7.6717797e-11
9.5464734e-11
1.0746185e-10
1.1508485e-10
8.5926928e-11
1.0227744e-10
7.3724025e-11
9.9580311e-11
8.6100045e-11
1.0882099e-10
9.7955561e-11
9.2110539e-11
9.1759363e-11
1.0686946e-10
8.2993557e-11
9.8663478e-11
8.7099945e-11
7.4107255e-11
9.1508851e-11
1.0071975e-10
8.7621254e-11
1.1156858e-10
8.941382e-11
9.2662483e-11
8.3607532e-11
8.4595242e-11
0.00012272279
3.8457519e-11
6.2762079e-17
3.6134354e-17
3.3230666e-17
3.5886781e-17
4.0591662e-17
6.1526985e-17
2.7404368e-17
3.2941552e-17
2.3787612e-17
3.4145272e-17
3.2059315e-17
4.1421471e-17
2.7597387e-17
3.5751456e-17
3.5064041e-17
4.5189506e-17
3.2162491e-17
3.6820951e-17
3.7344464e-17
3.8027039e-17
2.8462734e-17
4.0028596e-17
4.0071152e-17
3.3339565e-17
4.7216309e-17
4.0877335e-17
2.7529372e-17
3.6302105e-17
3.8758632e-17
2.7366758e-17
3.5303222e-17
3.1461237e-17
3.4009238e-17
4.4350191e-17
3.4263694e-17
3.8618964e-17
2.9460473e-17
2.7983067e-17
9.8754843e-05
2.3739013e-11
2.3077101e-17
2.3728692e-23
1.2099883e-23
1.3272768e-23
1.7207953e-23
2.2024091e-23
8.9111681e-24
1.1335837e-23
8.9871608e-24
1.2265716e-23
1.1770043e-23
1.5380921e-23
8.9011328e-24
1.4286346e-23
1.2957738e-23
1.9612578e-23
1.3162609e-23
1.389039e-23
1.3725673e-23
1.37096e-23
8.8382404e-24
1.5741996e-23
1.4505124e-23
1.2975409e-23
1.9635084e-23
1.5513982e-23
1.1462967e-23
1.3407162e-23
1.6774633e-23
1.1169156e-23
1.3250357e-23
1.2521053e-23
1.3685512e-23
1.6431131e-23
1.1705389e-23
1.1981089e-23
1.1765644e-23
9.3392691e-24
8.0430837e-05
1.3684898e-11
1.5562148e-17
8.3534953e-24
1.0897527e-29
5.5340294e-30
7.1641875e-30
8.436087e-30
3.0551948e-30
4.1017315e-30
3.10203e-30
4.9925336e-30
3.7791137e-30
6.3923176e-30
3.2793213e-30
6.236551e-30
5.8845815e-30
6.6554978e-30
4.7876175e-30
5.6240531e-30
5.2292297e-30
5.0109922e-30
3.3178633e-30
5.6592438e-30
5.8270628e-30
6.0375855e-30
6.1484855e-30
6.5417785e-30
4.3168581e-30
4.9141575e-30
6.2551666e-30
4.3057107e-30
4.8321378e-30
4.0232708e-30
4.8064888e-30
6.6136148e-30
3.9733468e-30
4.4113939e-30
4.0503141e-30
3.5892257e-30
7.1248874e-05
8.0039146e-12
3.9238589e-18
3.5611681e-24
1.5449287e-30
2.758572e-36
2.3830072e-36
2.8294268e-36
1.4244161e-36
1.7472387e-36
1.2518063e-36
1.5812744e-36
1.5929232e-36
2.1590167e-36
1.0796031e-36
2.3218212e-36
2.0139102e-36
2.5192827e-36
1.5888059e-36
2.2096779e-36
2.0798376e-36
1.8051822e-36
1.1483881e-36
2.2547008e-36
2.8838063e-36
2.3002288e-36
2.1902607e-36
2.2593028e-36
1.4557951e-36
2.1954991e-36
2.4752358e-36
1.6121092e-36
1.8696429e-36
1.3352163e-36
1.7106037e-36
2.3434264e-36
1.6552379e-36
1.4799832e-36
1.5956119e-36
1.2052657e-36
6.4407665e-05
5.5558033e-12
1.7416793e-18
1.8283526e-24
9.0007237e-31
3.4545931e-37
8.7350244e-43
1.1866648e-42
4.5168021e-43
5.8951789e-43
5.406106e-43
5.6536195e-43
5.7446715e-43
7.6356937e-43
4.1138791e-43
7.9937937e-43
7.9609286e-43
1.0573448e-42
5.0619413e-43
7.6210927e-43
7.6132947e-43
7.0930996e-43
4.3003291e-43
7.6852296e-43
1.0385977e-42
7.9184223e-43
7.3551936e-43
1.1348768e-42
5.0020733e-43
8.4746227e-43
1.0234886e-42
6.2579674e-43
7.3929501e-43
6.3901411e-43
6.0786998e-43
9.2816247e-43
6.9332214e-43
5.8686237e-43
4.9170779e-43
4.0639077e-43
6.8775227e-05
4.6514184e-12
1.0181915e-18
1.180735e-24
5.8318339e-31
2.7676959e-37
7.4834292e-44
4.3141093e-49
1.6584727e-49
2.6477901e-49
2.1431169e-49
1.7526114e-49
2.2800985e-49
2.7811062e-49
1.4041262e-49
3.2705306e-49
3.0877986e-49
3.4123047e-49
2.1959722e-49
2.6435862e-49
2.9808661e-49
2.9763588e-49
1.6533298e-49
2.945624e-49
4.1382043e-49
3.3803165e-49
2.2892093e-49
3.9151405e-49
2.1399908e-49
3.8397642e-49
4.2043509e-49
2.2261584e-49
2.895221e-49
2.3111363e-49
2.2828276e-49
3.1845265e-49
2.9025867e-49
2.2266618e-49
1.6723259e-49
1.36506e-49
8.1603961e-05
5.0290217e-12
7.5006017e-19
2.0904707e-24
1.4629806e-30
6.6072253e-37
2.2464004e-43
8.8163381e-50
8.0020506e-56
8.4680401e-56
8.0041065e-56
5.9739732e-56
9.0859809e-56
9.7367496e-56
5.549044e-56
1.3073953e-55
1.0521082e-55
1.5117817e-55
7.7270559e-56
1.0032995e-55
1.2745767e-55
9.4042115e-56
5.9204068e-56
1.1303967e-55
1.6955181e-55
1.2016799e-55
7.5863289e-56
1.4208741e-55
9.7896994e-56
1.3386644e-55
1.3506122e-55
7.5664997e-56
1.0149622e-55
8.05058e-56
8.7537387e-56
1.2762578e-55
1.1379084e-55
9.6573964e-56
6.8230375e-56
4.7524041e-56
0.00010222614
5.9490091e-12
6.6376046e-19
5.5993924e-25
4.5493321e-31
1.7901893e-37
6.12842e-44
2.0525022e-50
6.8053837e-57
3.580089e-62
3.0896388e-62
2.7770174e-62
3.519606e-62
4.0088927e-62
2.3364803e-62
5.6794741e-62
4.2761969e-62
5.2248392e-62
2.9158158e-62
-2.3965609e-62
8.7695482e-62
2.4296115e-62
2.8731611e-62
4.5905699e-62
6.1541413e-62
5.2028278e-62
3.251076e-62
5.1691063e-62
4.5622433e-62
5.322329e-62
4.932291e-62
2.8845595e-62
4.1664742e-62
3.1005873e-62
3.4696208e-62
4.21858e-62
4.5454639e-62
4.5293314e-62
2.1448101e-62
1.7422519e-62
0.00017206185
1.0804728e-11
1.0292533e-18
1.517665e-24
-2.5297923e-27
-1.2717459e-33
-4.8769123e-40
-1.9264611e-46
-6.3045339e-53
-2.1305103e-59
-8.0046446e-66
1.5344792e-68
1.3292025e-68
1.6495391e-68
1.8809293e-68
3.1246248e-68
1.418914e-68
1.9536282e-68
1.5303796e-68
-7.8822091e-68
7.7244409e-68
-5.6966137e-70
1.8544951e-68
1.9928824e-68
2.4419865e-68
2.3130766e-68
1.1118016e-68
2.0501522e-68
2.7589858e-68
2.1873301e-68
2.0990639e-68
1.3898988e-68
1.4421397e-68
1.5169392e-68
2.1391511e-68
1.6105829e-68
-8.2352153e-69
1.8102466e-68
8.9057393e-69
6.855476e-69
0.0013683989
1.0723192e-10
9.8036629e-18
3.9069318e-24
4.8763787e-30
2.2015229e-36
7.5618037e-43
3.3143341e-49
1.1728898e-55
4.2986345e-62
1.7587467e-68
2.1371166e-74
9.6019658e-75
8.9325941e-75
1.4474552e-74
2.9132505e-74
6.9491689e-75
7.5485446e-75
1.1328151e-74
-9.9586875e-74
6.2475588e-74
-1.4045952e-74
2.0902668e-74
9.1438544e-75
2.1933171e-73
8.5584668e-75
9.4148941e-75
9.1772033e-75
1.5800537e-74
1.3797107e-74
9.32209e-75
6.116382e-75
7.0057133e-75
6.5807511e-75
1.9504307e-74
6.6045309e-75
-1.9440673e-74
1.2364587e-74
4.9465033e-75
2.0940863e-75
-0.00026400875
-3.026113e-11
-2.9236966e-18
-9.9385705e-25
-2.7657703e-30
-1.4003779e-36
-5.9952387e-43
-2.1208526e-49
-6.5747641e-56
-2.9552371e-62
-9.4983484e-69
-3.6209065e-75
1.7056804e-80
7.8340137e-81
1.3721431e-80
2.9578614e-80
8.0325689e-81
4.0131464e-81
1.2013466e-80
-1.2766282e-79
8.5977509e-80
-2.201072e-80
2.133875e-80
5.9729329e-81
3.6657805e-79
4.3380235e-81
1.1474275e-80
3.5263913e-81
1.2462391e-80
1.3132682e-80
7.7708103e-81
2.8363858e-81
5.3142263e-81
5.5106637e-81
1.7647135e-80
3.833903e-81
-3.3176049e-80
9.0505891e-81
3.1191484e-81
7.9767445e-82
-7.8577495e-05
-1.0329536e-10
-1.4154923e-17
-3.7531095e-24
-4.6288747e-30
-2.4215534e-36
-8.8735008e-43
-2.8829509e-49
-1.1251732e-55
-3.9667223e-62
-1.4543851e-68
-4.9472393e-75
-2.1541561e-81
6.3474182e-87
1.7415937e-86
4.7308454e-86
1.2849679e-86
3.8188724e-87
1.5225121e-86
-2.2230913e-85
1.0871777e-85
-3.3903386e-86
2.8709128e-86
4.9382756e-87
3.4788369e-85
2.4005642e-87
1.139334e-86
1.7970682e-87
1.2360784e-86
1.1452013e-86
9.9315599e-87
1.850336e-87
5.1849864e-87
8.0027244e-87
1.3626804e-86
2.7680281e-87
-3.5616942e-86
7.3979932e-87
4.7966715e-87
2.4663417e-88
-4.676265e-05
4.9958051e-12
1.9135573e-18
5.8338342e-25
5.6138028e-31
3.259109e-37
1.1816173e-43
5.0150025e-50
1.8948467e-56
7.9771926e-63
2.5422525e-69
9.38162e-76
3.0217865e-82
6.8331719e-89
6.2502723e-92
4.6520591e-92
1.6521116e-92
2.7049826e-93
2.4896011e-92
-2.5952677e-91
1.1203339e-91
-1.1168714e-91
3.4985569e-92
2.8191946e-93
3.9464779e-91
1.3332861e-93
1.3190563e-92
2.6347901e-93
1.7203309e-92
1.2442593e-92
1.1761799e-92
1.4412396e-93
3.8840838e-93
9.2469825e-93
1.3504442e-92
1.6302064e-93
-3.8189144e-92
5.9302396e-93
4.7958523e-93
7.8362587e-95
-3.0944519e-05
1.3822243e-12
-2.3261501e-19
-9.45019e-26
-4.7022185e-32
-2.4721788e-38
-9.2436852e-45
-2.971016e-51
-1.098893e-57
-4.3627528e-64
-1.5004121e-70
-5.5132305e-77
-1.6435312e-83
-5.3775795e-90
-1.6834142e-96
4.8646525e-98
2.0801982e-98
3.6702376e-99
3.4960386e-98
-2.368061e-97
1.1529314e-97
-1.8936704e-97
2.7943947e-98
4.2928062e-99
7.13855e-97
9.8252861e-100
1.5586523e-98
2.4354097e-99
2.1985213e-98
1.5684067e-98
2.0354775e-98
1.2415457e-99
4.036419e-99
1.3631399e-98
1.2811943e-98
1.8044734e-99
-4.3290675e-98
6.7496209e-99
7.5364416e-99
2.7086688e-101
-2.2034711e-05
5.6024479e-13
-3.1635048e-20
1.0593003e-23
3.0204584e-30
1.4551389e-36
5.2110482e-43
1.7980028e-49
5.823981e-56
1.9802762e-62
6.3983303e-69
2.381706e-75
8.1407123e-82
3.0915597e-88
1.294349e-94
3.9523617e-101
2.9814879e-104
4.9799926e-105
1.0601791e-103
-2.2720761e-103
1.8033786e-103
-2.3794824e-103
3.7311743e-104
1.0253206e-104
9.10731e-103
1.7758021e-105
2.2400627e-104
2.6462736e-105
2.5636772e-104
1.2724126e-104
3.0989507e-104
9.2167535e-106
3.5226726e-105
3.1746718e-104
1.2969345e-104
1.5403894e-105
-6.3043508e-104
6.5591827e-105
1.159311e-104
8.6773734e-108
-1.6227476e-05
2.6026586e-13
-7.6695536e-21
1.2981519e-27
3.4611085e-34
1.0458121e-40
4.4861171e-47
1.7014648e-53
5.7885643e-60
1.7090753e-66
6.3423437e-73
2.3957141e-79
8.2910247e-86
2.3295559e-92
6.9526681e-99
2.5769013e-105
5.1878801e-110
7.9735465e-111
1.5129999e-109
-3.9602469e-109
4.8102862e-109
-2.9583848e-109
4.4083306e-110
1.2164124e-110
1.1775387e-108
1.905014e-111
2.7327373e-110
3.0560989e-111
2.5149769e-110
1.9935474e-110
3.2540593e-110
9.4837446e-112
2.8592204e-111
4.3990539e-110
1.9502596e-110
1.2177926e-111
-8.3686372e-110
6.9113252e-111
1.383115e-110
3.1051371e-114
-1.2213177e-05
1.3785224e-13
-2.4556788e-21
1.8338715e-28
4.1279894e-35
1.0422411e-41
4.6614881e-48
1.842024e-54
6.2799578e-61
2.080454e-67
8.3691973e-74
2.4922741e-80
8.0414861e-87
2.6116899e-93
9.8370089e-100
3.1328927e-106
1.1137244e-112
9.5425268e-117
3.1154344e-115
-4.9708181e-115
6.856191e-115
-2.9678584e-115
6.2414085e-116
1.3860942e-116
2.7688946e-114
3.68986e-117
3.5402393e-116
4.1983293e-117
2.3230607e-116
2.3331321e-116
3.0027181e-116
1.1298639e-117
2.5315667e-117
5.2468675e-116
3.7097048e-116
1.6532549e-117
-8.2984247e-116
6.426278e-117
1.6756029e-116
1.2857979e-120
-9.4738557e-06
7.7784953e-14
-9.2536401e-22
3.8051719e-29
9.9210069e-36
1.7806388e-42
5.7279535e-49
1.9126487e-55
6.7656879e-62
2.8623464e-68
8.9217711e-75
2.8713759e-81
9.1822495e-88
2.8982267e-94
9.9410283e-101
3.849336e-107
1.3881422e-113
4.7682458e-120
5.5025059e-121
-7.40654e-121
5.5348948e-121
-8.0299631e-121
4.6320822e-122
2.7868675e-122
3.9278871e-120
4.3741582e-123
4.9243706e-122
5.3395354e-123
4.2670488e-122
3.2041023e-122
3.0172235e-122
1.138394e-123
3.2330341e-123
5.9844609e-122
4.498674e-122
1.5709983e-123
-9.1321824e-122
1.1573223e-122
1.8416692e-122
5.599522e-127
-7.4937144e-06
4.589541e-14
-3.8255862e-22
9.4108863e-30
4.9550439e-36
7.1678234e-43
1.7850105e-49
6.2037292e-56
2.1242311e-62
8.463361e-69
3.119374e-75
1.1463247e-81
3.6457616e-88
1.4204579e-94
5.4160465e-101
2.4178341e-107
1.0063747e-113
3.5895234e-120
1.6648147e-126
-1.1499361e-126
5.3508329e-127
-7.4520341e-127
5.5851144e-128
4.3663668e-128
5.5105071e-126
5.3731424e-129
6.4524669e-128
3.7904062e-129
6.227204e-128
3.2358569e-128
2.4153264e-128
7.6103213e-130
3.4364359e-129
6.0399604e-128
4.6770276e-128
1.4286115e-129
-1.0244001e-127
8.6166536e-129
2.7411134e-128
1.9020726e-133
-6.002051e-06
2.839465e-14
-1.7221333e-22
2.7493997e-30
-2.3009982e-36
-2.493458e-43
-4.8539056e-50
-1.3665366e-56
-4.3158845e-63
-1.4933698e-69
-5.5452789e-76
-1.816044e-82
-6.4542008e-89
-2.2403882e-95
-7.3012292e-102
-2.1791583e-108
-7.8186131e-115
-2.3782982e-121
-7.8511297e-128
-1.4007787e-132
1.2166476e-132
-6.8939667e-133
7.6766195e-134
4.5838034e-134
1.2464014e-131
6.5142825e-135
7.2042443e-134
5.0930381e-135
6.9790164e-134
2.5535063e-134
2.2869879e-134
6.3805915e-136
3.0849629e-135
6.4069125e-134
3.9116348e-134
1.5279882e-135
-1.6594079e-133
1.1860379e-134
3.0593544e-134
7.6941495e-140
-4.8465761e-06
1.8045305e-14
-8.2743647e-23
9.0583821e-31
-1.2734856e-37
-1.1664287e-44
-1.7795745e-51
-6.0006138e-58
-1.7193934e-64
-5.5240508e-71
-2.0181689e-77
-6.569307e-84
-2.1924152e-90
-8.0094664e-97
-2.3648372e-103
-7.2853971e-110
-2.683715e-116
-8.8794887e-123
-3.3685773e-129
-1.4177701e-135
4.0730772e-138
-7.0107578e-139
1.0956256e-139
4.9591736e-140
1.7034104e-137
8.602871e-141
8.2319004e-140
3.7868599e-141
5.7330389e-140
1.983e-140
1.8467455e-140
6.5471636e-142
5.5787707e-141
7.3694199e-140
8.8937945e-140
1.5678644e-141
-2.1478591e-139
1.5702421e-140
4.559484e-140
4.5594314e-146
-3.9792888e-06
1.1787255e-14
-4.131122e-23
3.2055722e-31
-2.1256264e-38
-1.5862759e-45
-1.9536499e-52
-6.1711281e-59
-2.2082421e-65
-6.6194063e-72
-2.1023678e-78
-6.773864e-85
-2.5341705e-91
-9.5765401e-98
-3.0732593e-104
-1.2226686e-110
-4.3516287e-117
-1.652935e-123
-6.6566185e-130
-3.6217257e-136
-3.0465728e-142
-1.2007964e-144
1.0489381e-145
8.0788096e-146
3.2536615e-143
7.8596257e-147
8.0041678e-146
4.0944337e-147
5.4665923e-146
1.7222942e-146
3.1456431e-146
5.5442864e-148
5.4952386e-147
7.6837726e-146
1.2302374e-145
1.6817217e-147
-3.3260131e-145
1.2743225e-146
4.6655644e-146
4.3705877e-152
-3.2844237e-06
7.8666678e-15
-2.1648119e-23
1.2367065e-31
-4.4161933e-39
-2.8708444e-46
-2.6912996e-53
-6.5057264e-60
-2.2234411e-66
-8.1491569e-73
-2.8478657e-79
-1.1914763e-85
-3.8805837e-92
-1.1728305e-98
-4.4732484e-105
-1.5524792e-111
-5.2528049e-118
-1.8851511e-124
-5.5949149e-131
-2.1117294e-137
-6.3527594e-144
-4.3597148e-150
1.4220743e-151
1.3366339e-151
3.605265e-149
7.1038146e-153
7.9070843e-152
4.8266378e-153
4.5888507e-152
1.7915695e-152
3.1250969e-152
8.6957018e-154
6.4704828e-153
6.8049184e-152
1.0692719e-151
2.6651892e-153
-4.3198393e-151
1.8435654e-152
6.3466965e-152
4.0187478e-158
-2.7273565e-06
5.3294527e-15
-1.162097e-23
4.9765065e-32
-1.0933892e-39
-6.6557145e-47
-4.9071567e-54
-9.1190653e-61
-2.9934687e-67
-9.9457756e-74
-2.9773088e-80
-1.1743637e-86
-3.7492622e-93
-1.2032334e-99
-4.8520818e-106
-1.3803716e-112
-4.2657282e-119
-1.6839177e-125
-5.2450891e-132
-2.3409054e-138
-1.380584e-144
-1.1455464e-150
-9.1790867e-157
1.9912691e-157
4.9029627e-155
8.3089501e-159
8.6150526e-158
6.2300362e-159
3.8128589e-158
1.7439909e-158
2.1884026e-158
6.8704826e-160
7.1143309e-159
7.0960406e-158
1.3902461e-157
3.4582512e-159
-8.5911355e-157
2.8042246e-158
1.0059786e-157
5.0332245e-164
-2.2907723e-06
3.6901328e-15
-6.4778465e-24
2.1294965e-32
-3.038327e-40
-1.7941787e-47
-1.0823712e-54
-1.9087987e-61
-6.1283051e-68
-2.033985e-74
-5.2006366e-81
-1.7540475e-87
-5.1495617e-94
-1.9566174e-100
-6.7277005e-107
-2.2800577e-113
-7.9452796e-120
-2.4351245e-126
-9.777553e-133
-3.8404153e-139
-1.5012661e-145
-8.8999653e-152
-5.1083166e-158
2.1571561e-163
7.0508206e-161
8.961006e-165
7.375954e-164
5.6997366e-165
5.9017102e-164
1.3379912e-164
1.7488407e-164
6.3818147e-166
1.1701326e-164
6.0002111e-164
2.0391207e-163
3.1914528e-165
5.0854746e-162
2.7837925e-164
9.7571816e-164
5.5375319e-170
-1.9296096e-06
2.5843339e-15
-3.6899888e-24
9.4603998e-33
-9.3387619e-41
-6.1615854e-48
-2.9216908e-55
-3.7962062e-62
-1.1279374e-68
-4.0183805e-75
-1.3704167e-81
-5.4919812e-88
-1.7722887e-94
-6.2333876e-101
-2.07432e-107
-5.8375393e-114
-2.0408666e-120
-6.9532627e-127
-2.4332682e-133
-1.0215378e-139
-4.0388258e-146
-2.4044311e-152
-1.9089462e-158
-1.9771865e-164
5.8336713e-167
1.1621031e-170
1.2809515e-169
4.9876564e-171
6.5844348e-170
1.22839e-170
2.2286774e-170
8.0187302e-172
1.5277572e-170
6.1386708e-170
3.3310804e-169
5.3985657e-171
5.3073697e-168
2.8245144e-170
1.0691365e-169
4.7257565e-176
-1.6357061e-06
1.8314837e-15
-2.1449057e-24
4.3370871e-33
-3.0595367e-41
-2.7117922e-48
-1.056411e-55
-1.0359072e-62
-2.9220993e-69
-9.0405803e-76
-3.4200432e-82
-1.2730243e-88
-4.20025e-95
-1.2729606e-101
-3.5721041e-108
-1.1921281e-114
-3.8474224e-121
-1.4008078e-127
-4.9861967e-134
-3.0703031e-140
-2.4676358e-146
-4.0841941e-152
-3.3095386e-158
-2.7508815e-164
-2.2595046e-170
1.6164537e-177
1.5396153e-175
4.3388983e-177
5.4996394e-176
1.3725357e-176
3.438153e-176
1.1707398e-177
1.3193705e-176
5.644011e-176
3.5399893e-175
6.805801e-177
5.7231661e-174
2.7251359e-176
1.2887883e-175
8.0016871e-182
-1.3941167e-06
1.3146143e-15
-1.2745663e-24
2.0629492e-33
-1.0681551e-41
-2.2256396e-48
-7.4210159e-56
-5.9908607e-63
-1.4697206e-69
-6.2173852e-76
-1.7703604e-82
-5.8826597e-89
-2.1954636e-95
-7.5888099e-102
-2.2467386e-108
-7.1504439e-115
-2.1982868e-121
-8.1315671e-128
-3.0338337e-134
-8.3450245e-141
-1.8594496e-147
2.1986406e-154
1.4186607e-159
1.6522636e-165
7.0254746e-171
1.3165046e-176
1.8238844e-181
3.0669005e-183
6.6037346e-182
2.1275395e-182
4.5099057e-182
1.1478326e-183
1.1424052e-182
5.7374786e-182
3.4481557e-181
2.7915043e-182
5.3591541e-180
-6.0022607e-182
2.9028639e-181
1.2389159e-187
-1.1920878e-06
9.5052686e-16
-7.6784227e-25
1.0031558e-33
-3.9024561e-42
7.4394509e-49
2.1310139e-56
1.3080674e-63
2.7772838e-70
9.9179346e-77
3.4005084e-83
1.3208373e-89
4.7648615e-96
1.3609458e-102
5.276098e-109
2.1117513e-115
6.1856788e-122
2.5150127e-128
7.6613027e-135
2.5839039e-141
8.8693478e-148
3.784035e-154
1.1111817e-160
4.5652245e-167
2.3963981e-173
1.7557687e-179
1.1810002e-185
3.2992605e-189
7.540846e-188
2.3738255e-188
3.4485318e-188
1.2389085e-189
1.0505922e-188
6.2805495e-188
3.8169281e-187
2.91466e-188
6.2295504e-186
-2.1277593e-187
6.2402929e-187
2.8039749e-193
-1.0232457e-06
6.9425349e-16
-4.706858e-25
5.012181e-34
-1.4928684e-42
7.3140571e-50
1.8209626e-57
9.1567309e-65
1.7217879e-71
6.0767847e-78
1.8499731e-84
7.2175702e-91
2.5542237e-97
7.3482371e-104
2.820225e-110
8.6065011e-117
3.4189129e-123
9.4789745e-130
2.6888676e-136
9.3183475e-143
2.6441717e-149
9.4909605e-156
3.3173531e-162
1.7735017e-168
1.6228937e-174
1.8174594e-180
1.3529062e-186
1.0336116e-192
1.0695011e-193
1.8199327e-194
2.8376117e-194
4.062516e-195
9.9889449e-195
1.1717869e-193
6.3461703e-193
3.3115988e-194
1.4122641e-191
-2.218459e-193
6.1499781e-193
3.3150412e-199
-8.8088786e-07
5.1022258e-16
-2.9166667e-25
2.5543724e-34
-5.9055138e-43
1.4144571e-50
3.1529948e-58
1.2767193e-65
1.8008721e-72
5.0540839e-79
1.6185715e-85
4.7930855e-92
1.3957991e-98
4.2438988e-105
1.6403071e-111
6.407161e-118
2.1924419e-124
7.7692159e-131
2.7616774e-137
9.0292624e-144
2.9576173e-150
1.2973952e-156
6.1169511e-163
3.0832711e-169
2.3103534e-175
1.6695085e-181
1.8026637e-187
1.584164e-193
2.2211157e-199
1.3753323e-200
1.9374954e-200
3.4517449e-201
8.8501697e-201
1.144252e-199
4.6172939e-199
6.007452e-200
2.0488146e-197
-3.038906e-199
7.0009089e-199
3.5196657e-205
-7.6223916e-07
3.7876956e-16
-1.8367326e-25
1.3323002e-34
-2.4242175e-43
3.4079383e-51
7.0647309e-59
2.3568235e-66
2.9950569e-73
9.406593e-80
2.9412549e-86
1.0495321e-92
3.0624137e-99
1.0006129e-105
2.888669e-112
1.0646384e-118
3.5001024e-125
1.3303512e-131
4.9661874e-138
1.5778282e-144
5.3172713e-151
1.9644978e-157
9.0473873e-164
7.9175229e-170
1.1672895e-175
1.3820836e-181
1.5017349e-187
2.2027731e-193
3.06243e-199
3.5220193e-205
1.6110795e-206
3.0352714e-207
6.1487398e-207
3.7607585e-205
3.4377672e-205
5.0334798e-206
7.7007982e-203
-7.7572616e-205
4.2504923e-204
1.6218687e-210
-6.6109961e-07
2.8303312e-16
-1.1694978e-25
7.0769743e-35
-1.0244086e-43
9.377379e-52
1.8292203e-59
5.0051079e-67
4.5831577e-74
1.3089064e-80
4.8935731e-87
1.4130034e-93
4.5568384e-100
1.3762738e-106
4.381033e-113
1.5960647e-119
5.7789187e-126
5.4254863e-132
4.7555437e-138
3.194065e-144
3.2209908e-150
4.5105019e-156
7.2233651e-162
5.5284728e-168
1.0770492e-173
1.7215839e-179
1.5798533e-185
1.3468856e-191
1.8945891e-197
1.7205787e-203
1.6611106e-209
5.012113e-213
4.6478796e-213
3.2305056e-211
5.7223005e-211
5.37823e-212
1.260452e-208
-1.6637602e-210
4.8772923e-210
2.2662777e-216
-5.7521399e-07
2.1286137e-16
-7.5262892e-26
3.8199043e-35
-4.4503598e-44
2.8089907e-52
5.4652086e-60
1.2519663e-67
9.0369272e-75
2.8254901e-81
9.9879911e-88
3.4774917e-94
1.1378943e-100
4.9077671e-107
1.7532802e-113
6.9564969e-120
2.3890832e-126
6.7611949e-133
2.3631458e-139
1.0674903e-145
7.9679283e-152
1.1870634e-157
2.1518133e-163
6.2167363e-169
1.4098745e-174
1.7081219e-180
1.3795039e-186
1.3609662e-192
1.598132e-198
4.0543628e-204
8.5399288e-210
5.9438294e-216
7.8716059e-219
2.2717654e-217
7.54315e-217
5.9008277e-218
1.3178168e-214
-1.8542216e-216
1.5040045e-215
8.0400021e-222
-5.0176282e-07
1.6100196e-16
-4.8934757e-26
2.0953917e-35
-1.9827484e-44
8.9835157e-53
1.8158617e-60
3.5669701e-68
2.1347522e-75
4.7030814e-82
1.9664691e-88
6.1334716e-95
2.0554782e-101
7.1160867e-108
2.5779733e-114
7.2462859e-121
3.0116019e-127
1.1817724e-133
5.4870518e-140
4.1099522e-146
5.238432e-152
1.0332621e-157
2.526672e-163
6.4008916e-169
1.461753e-174
1.7615298e-180
2.228107e-186
3.1506629e-192
4.2673856e-198
4.9691108e-204
4.709554e-210
9.9707389e-216
2.0589987e-221
2.1318344e-223
-1.3576541e-221
8.6307148e-224
1.0132817e-220
-3.3572245e-222
-5.3692915e-221
-2.2920184e-227
-4.387117e-07
1.224781e-16
-3.2119246e-26
1.1665403e-35
-9.0428516e-45
3.0287344e-53
6.8429453e-61
1.1433761e-68
5.564837e-76
1.3015344e-82
4.7188652e-89
1.4398042e-95
4.8747474e-102
1.5025584e-108
5.7855098e-115
2.0197255e-121
7.1482817e-128
2.9690325e-134
1.2847797e-140
8.8531171e-147
7.3452358e-153
1.5323996e-158
1.6605783e-164
3.2319303e-170
5.8141512e-176
1.0489652e-181
1.9510082e-187
3.6721986e-193
4.2238907e-199
5.813775e-205
1.8253269e-210
1.8814563e-216
2.1081328e-222
4.1011697e-228
-1.7316993e-227
1.1392581e-229
3.3778558e-226
-3.3447489e-228
-9.5045995e-227
-4.5289327e-233
-3.8459399e-07
9.3658852e-17
-2.1267636e-26
6.5803104e-36
-4.205596e-45
1.0653744e-53
3.0350131e-61
4.4081646e-69
1.6513279e-76
3.0642881e-83
1.6109675e-89
6.8139781e-96
2.4998153e-102
7.9063889e-109
2.5714807e-115
8.8218139e-122
2.9595426e-128
5.987642e-135
-1.5230046e-140
-4.2559676e-146
-7.4755957e-152
-1.3494444e-157
-3.9877346e-163
-1.0326684e-168
-3.6005996e-174
-6.9438428e-180
-1.616863e-185
-2.1537827e-191
2.1664368e-196
4.1239945e-202
6.1607188e-208
7.9259663e-214
7.6785892e-220
4.7963165e-225
1.4950662e-230
4.6930164e-235
5.3468148e-232
-6.6647966e-234
-1.8965791e-231
-9.502079e-238
-3.3794091e-07
7.2007313e-17
-1.4205299e-26
3.7615285e-36
-1.9980762e-45
3.8965296e-54
2.0318354e-61
2.6152839e-69
8.2606717e-77
1.1972977e-83
5.9421554e-90
2.2493007e-96
8.7000444e-103
3.5954465e-109
1.3144871e-115
4.6174833e-122
1.5291035e-128
4.846203e-136
-4.0299759e-141
-8.9814358e-147
-3.1051861e-152
-4.1983457e-158
-5.9131386e-164
-1.8196592e-169
-4.733417e-175
-1.1321268e-180
-1.646037e-186
-2.0255198e-192
-1.9637599e-198
-2.2136812e-204
-8.7589568e-210
-9.2035782e-216
-1.5032691e-221
-1.6807473e-227
-2.0205989e-233
-2.7055468e-239
6.0637468e-238
-1.1375389e-239
6.7690306e-237
4.5400978e-243
-2.9749139e-07
5.560121e-17
-9.5578791e-27
2.1753257e-36
-9.6579448e-46
1.4734808e-54
-4.2485731e-61
-4.8958588e-69
-1.2636323e-76
-1.4188296e-83
-6.6835414e-90
-3.3122802e-96
-1.2330451e-102
-4.046561e-109
-1.2182578e-115
-4.3820597e-122
-1.4951267e-128
-4.8455102e-135
-2.3202875e-141
-2.2228186e-147
-3.2115896e-153
-1.090839e-158
-1.5681054e-164
-5.4944977e-170
-6.5581648e-176
-1.1301666e-181
-2.9315278e-187
-4.0182044e-193
-4.051595e-199
-2.6165974e-204
-7.8221677e-210
-1.1906856e-215
-1.5247321e-221
-1.5999129e-227
-2.1250656e-233
-3.3391466e-239
2.5296597e-243
-2.876282e-245
-4.4892847e-242
-4.4694448e-249
-2.6242844e-07
4.3107995e-17
-6.4770491e-27
1.2720152e-36
-4.7492183e-46
5.738243e-55
-1.6598837e-62
-1.7383113e-70
-3.7911711e-78
-3.5058338e-85
-1.2692592e-91
-6.3139824e-98
-2.150372e-104
-6.4327171e-111
-2.9957205e-117
-1.0964357e-123
-5.4092903e-130
-2.4198682e-136
-2.7334667e-142
-6.1834074e-148
-1.9692371e-153
-9.0836136e-159
-4.340512e-164
-1.3185962e-169
-3.5813138e-175
-1.3290598e-180
-2.1786772e-186
-5.6091516e-192
-9.4670246e-198
-1.4513704e-203
-2.0297733e-208
-3.5748078e-214
-4.8831322e-220
-5.6547618e-226
-1.1458026e-231
-3.6239881e-237
-5.3130992e-243
2.8825088e-248
-3.9778193e-246
-2.5403872e-252
-2.319441e-07
3.3568091e-17
-4.420421e-27
7.5170486e-37
-2.3727951e-46
2.2994302e-55
-2.9892022e-63
-2.8975804e-71
-5.228357e-79
-3.7511687e-86
-1.5366214e-92
-6.2246505e-99
-2.0885433e-105
-9.4141698e-112
-2.9492285e-118
-1.0643265e-124
-4.2800205e-131
-1.2078888e-137
-2.5006265e-142
5.0504875e-148
1.297671e-153
2.9866411e-159
1.0373071e-164
1.3878343e-170
-1.4706489e-175
-9.2453314e-181
-1.7510102e-186
-2.4349433e-192
-3.6889562e-198
-5.5398333e-204
-1.2902778e-209
-1.9918687e-215
-3.3370747e-221
-3.9230997e-226
-6.4744832e-232
-2.8501853e-236
-7.6632196e-242
-1.386864e-247
1.5967723e-251
5.2031185e-258
-2.0534992e-07
2.6237641e-17
-3.0354788e-27
4.4850642e-37
-1.2027382e-46
9.4405785e-56
-7.2054136e-64
-6.532329e-72
-1.0039027e-79
-5.7511655e-87
-1.8417247e-93
-1.3327061e-99
-5.7631095e-106
-1.8156957e-112
-6.7450337e-119
-2.6148749e-125
-7.1491279e-132
1.4575208e-137
3.7387915e-143
1.6187155e-148
2.3307604e-154
5.88451e-160
1.8287476e-165
4.7201896e-171
7.8065099e-177
1.8654392e-182
5.5753828e-188
7.0233633e-193
2.7043396e-198
3.2009478e-204
7.8135066e-210
9.766747e-216
1.0752918e-221
2.8295064e-226
1.0140651e-231
3.9343277e-237
2.4089274e-242
2.6784523e-248
8.7889501e-254
1.8910687e-259
-1.8213983e-07
2.0582839e-17
-2.0971534e-27
2.7007443e-37
-6.1824846e-47
3.9663956e-56
-1.971133e-64
-1.7121789e-72
-2.2326832e-80
-1.0432419e-87
-2.8654386e-94
-1.3475547e-100
-6.3882312e-107
-2.9204911e-113
-1.0834137e-119
-4.7712439e-126
-2.0511047e-132
-7.598343e-139
-2.491516e-145
-5.5061535e-151
-9.5556176e-157
-1.2273169e-162
-1.9537509e-168
-3.9640059e-174
-1.9466898e-179
-3.7826379e-185
-1.6654626e-190
-3.3720828e-196
-7.9415495e-202
-9.2054418e-208
-2.4277104e-213
-4.7475078e-219
-5.558227e-225
1.9755079e-229
5.3754413e-235
5.4863786e-241
6.7718199e-247
-3.2332628e-251
-1.4630709e-256
-6.148718e-262
-1.6173428e-07
1.6195433e-17
-1.4564105e-27
1.6396575e-37
-3.2178751e-47
1.7005906e-56
-5.8784605e-65
-5.0646118e-73
-5.7195466e-81
-2.1441335e-88
-4.7185407e-95
-3.6134372e-101
-1.7805899e-107
-6.7984308e-114
-2.0018758e-120
-1.0237187e-126
-4.1826896e-133
-1.9128645e-139
-3.9195413e-144
-4.8509269e-150
-9.8079503e-156
-1.6872407e-160
-5.855127e-166
2.2461538e-171
7.3649675e-177
1.8567461e-182
2.5030808e-188
-1.9033282e-193
-3.849154e-199
-1.4495129e-204
-2.4803e-210
-3.2408445e-216
-6.1850615e-222
-1.4242392e-227
2.2258115e-233
7.8826314e-239
2.0195428e-244
1.2239194e-249
2.4613671e-255
2.0762841e-261
-1.4387608e-07
1.2787065e-17
-1.0170805e-27
1.0038273e-37
-1.6956389e-47
7.4364874e-57
-1.8633292e-65
-1.6306187e-73
-1.5995305e-81
-4.9134823e-89
-1.016958e-95
-4.9115523e-102
-2.0808027e-108
-1.041713e-114
-3.7498353e-121
-1.2328417e-127
-1.8441832e-134
8.0032879e-140
1.3291814e-145
2.1225707e-151
5.2650542e-157
9.4269619e-163
2.6449094e-168
8.3669179e-174
1.2213325e-179
7.3782489e-185
1.5923538e-190
2.1744057e-196
1.9648316e-201
3.5260986e-207
8.3256047e-213
2.0514168e-218
-5.3035543e-224
-2.5067678e-229
-4.7170999e-235
-4.8400912e-241
3.1262261e-246
1.3904894e-251
-5.780423e-257
1.0197297e-260
-1.2816679e-07
1.0127494e-17
-7.138943e-28
6.1930052e-38
-9.0382042e-48
3.3094673e-57
-6.2180613e-66
-5.8598917e-74
-5.1023264e-82
-1.2878872e-89
-1.7581876e-96
-8.2373861e-103
-3.9833606e-109
-1.6251893e-115
-8.2950503e-122
-3.8117039e-128
-1.3347104e-134
-5.5922176e-141
-2.2362207e-147
-7.3118222e-154
-1.0219426e-160
2.710803e-166
8.6873766e-172
1.5382067e-177
2.1593592e-182
8.053387e-188
2.2816618e-193
6.2578356e-199
1.1997439e-204
1.7689933e-210
3.8343029e-216
4.9322178e-222
7.6098952e-228
-3.0109958e-233
-3.0690475e-238
-4.1266384e-244
-5.6182625e-250
-1.2996089e-255
-3.525062e-261
9.456846e-267
-1.1431299e-07
8.0434788e-18
-5.0344157e-28
3.8481603e-38
-4.8697332e-48
1.4983256e-57
-2.1548425e-66
-2.3493609e-74
-1.8127201e-82
-3.8096064e-90
-3.8213345e-97
-2.2304549e-103
-1.0210773e-109
-4.0097777e-116
-1.730132e-122
-6.6197996e-129
-2.4865134e-135
-1.4164687e-141
4.7244672e-147
1.2902931e-152
1.9491064e-158
4.3924286e-164
3.8772702e-170
1.0271391e-175
2.8558026e-181
1.8949275e-186
2.0777631e-191
5.1140284e-197
6.2086912e-203
1.1578256e-208
2.929414e-214
3.1758353e-219
8.1104241e-225
3.6131679e-230
5.5256987e-236
1.3395627e-241
2.7450596e-247
5.2885558e-253
-4.6158796e-257
-6.0348426e-263
-1.0209093e-07
6.4058057e-18
-3.5662488e-28
2.4074081e-38
-2.650023e-48
6.8882616e-58
-7.7310693e-67
-1.1127995e-74
-7.7184413e-83
-1.3658469e-90
-1.2190712e-97
-4.765754e-104
-2.1335599e-110
-8.9711087e-117
-2.9435482e-123
-1.0314714e-129
-4.0323648e-136
-1.6975735e-142
-4.6888996e-148
-1.6297814e-153
-3.033765e-158
1.6376035e-163
6.5651069e-169
1.1873233e-174
-1.278168e-180
-2.006008e-186
6.8254868e-192
1.7917902e-197
3.6753691e-203
1.3771565e-208
2.5877916e-214
3.5651145e-220
5.6539196e-226
-9.4896671e-231
-2.8599483e-236
-5.402597e-242
-5.8687059e-248
-8.916594e-254