/*--------------------------------*- C++ -*----------------------------------*\
  =========                 |
  \\      /  F ield         | OpenFOAM: The Open Source CFD Toolbox
   \\    /   O peration     | Website:  https://openfoam.org
    \\  /    A nd           | Version:  10
     \\/     M anipulation  |
\*---------------------------------------------------------------------------*/
FoamFile
{
    format      ascii;
    class       volScalarField;
    location    "0.3";
    object      TporMedia_0;
}
// * * * * * * * * * * * * * * * * * * * * * * * * * * * * * * * * * * * * * //

dimensions      [0 0 0 1 0 0 0];

internalField   nonuniform List<scalar> 
4000
(
0.00040219061
0.00024233793
0.0002593801
0.00021449331
0.00022826755
0.00025564791
0.00023235345
0.00026221775
0.00022162859
0.00022868733
0.00023347737
0.00021889705
0.00020076005
0.00021597608
0.00023301441
0.00023839387
0.00021306011
0.00023743427
0.00020930432
0.00019094623
0.00026185885
0.00021845122
0.00021528896
0.00023986758
0.00019825786
0.00023352405
0.0002114295
0.00025119009
0.00021497159
0.00024005743
0.00023743325
0.00020515568
0.00025179293
0.00019884966
0.00024120167
0.00022607097
0.00026643324
0.00022553428
0.0002226214
0.00021829009
0.00017258123
1.9624287e-10
1.3609429e-10
8.1689899e-11
8.3510457e-11
8.1808355e-11
1.0054337e-10
1.0923641e-10
8.1513829e-11
9.9642527e-11
8.0270057e-11
9.2905166e-11
7.9783136e-11
9.1984613e-11
1.0661125e-10
9.1488012e-11
7.4038178e-11
9.0626817e-11
9.2738961e-11
7.4947834e-11
9.1624586e-11
8.4051044e-11
8.0828643e-11
9.5053732e-11
9.5725398e-11
8.8754044e-11
1.1526053e-10
1.1708256e-10
7.9946237e-11
8.6308083e-11
9.2852081e-11
1.0608923e-10
9.7783603e-11
7.1812544e-11
1.1501938e-10
9.5920687e-11
9.8767638e-11
8.2328176e-11
9.7621251e-11
9.50909e-11
0.00012084431
5.6476506e-11
1.1636367e-16
2.7463253e-17
3.4645168e-17
3.5041406e-17
3.0941085e-17
4.2869712e-17
3.4181726e-17
3.2929227e-17
4.053106e-17
3.4748808e-17
2.7141333e-17
3.2829325e-17
3.830563e-17
3.9215226e-17
3.5921311e-17
3.6992108e-17
4.1981888e-17
2.3402523e-17
3.2058996e-17
2.9408486e-17
3.1916554e-17
3.0798791e-17
3.1235958e-17
2.9882474e-17
3.9148959e-17
4.4419313e-17
2.8596085e-17
2.8724002e-17
3.0665286e-17
3.9813768e-17
3.7286376e-17
2.9493716e-17
4.5103771e-17
3.3838912e-17
3.8617684e-17
3.1505289e-17
3.6786074e-17
3.2679826e-17
9.7683407e-05
2.5434071e-11
1.2856822e-17
1.7876121e-23
1.1459399e-23
1.2200973e-23
1.1330249e-23
1.7346193e-23
1.2588373e-23
1.3372128e-23
1.6873009e-23
1.1756937e-23
1.0809129e-23
1.0376175e-23
1.4723701e-23
1.5131841e-23
1.2068626e-23
1.257849e-23
1.6432111e-23
1.0693429e-23
1.0316869e-23
1.1573894e-23
1.227045e-23
1.335809e-23
1.0980493e-23
1.139187e-23
1.1733426e-23
1.7828042e-23
1.1156224e-23
9.140117e-24
1.0506352e-23
1.3249714e-23
1.5257788e-23
9.362097e-24
1.6626876e-23
1.4516066e-23
1.6168224e-23
1.1002013e-23
1.2204459e-23
1.2586731e-23
7.9213382e-05
1.359066e-11
9.8326913e-18
4.1547412e-24
5.1633624e-30
4.0578722e-30
3.601545e-30
5.1325763e-30
4.3341104e-30
4.2411985e-30
5.9331115e-30
3.7294699e-30
4.0930499e-30
4.2439201e-30
5.4050555e-30
5.9887691e-30
4.4092983e-30
4.5515086e-30
5.9890546e-30
4.9218951e-30
3.2697936e-30
4.6910546e-30
4.4661881e-30
4.5584776e-30
3.7908416e-30
3.4115771e-30
4.9128912e-30
5.8014634e-30
3.8735947e-30
3.637617e-30
4.2149379e-30
5.5985039e-30
6.1918276e-30
3.2880924e-30
5.5914825e-30
4.9568838e-30
7.0179357e-30
3.2813992e-30
4.260593e-30
5.3898443e-30
7.2545834e-05
7.7137639e-12
4.1121052e-18
3.1998172e-24
1.2532923e-30
2.4713141e-36
1.246183e-36
2.0782458e-36
1.6994911e-36
1.6845784e-36
2.1002521e-36
1.6116998e-36
1.6882323e-36
1.6401751e-36
1.7293865e-36
2.2775957e-36
1.4584721e-36
1.940243e-36
2.248385e-36
1.8858168e-36
1.1359087e-36
2.0114882e-36
1.4593329e-36
1.6934459e-36
1.7494275e-36
1.0811291e-36
1.7350849e-36
2.3682723e-36
1.5154843e-36
1.4622794e-36
1.2477704e-36
1.8983682e-36
2.1232497e-36
1.0631084e-36
1.9857426e-36
1.9655719e-36
2.2645197e-36
1.0721358e-36
1.7237882e-36
2.3791745e-36
6.7984743e-05
5.8178624e-12
2.4060071e-18
1.993241e-24
8.339061e-31
2.8217586e-37
4.8525072e-43
6.8456656e-43
5.4630299e-43
6.4481759e-43
7.8542373e-43
8.4485401e-43
6.2372136e-43
6.4231433e-43
1.0565282e-42
6.2996695e-43
4.5038784e-43
6.7911866e-43
8.0776852e-43
7.4590926e-43
4.3860805e-43
7.6226434e-43
6.2855671e-43
5.4780288e-43
5.6793476e-43
4.1134542e-43
6.1875306e-43
9.4566355e-43
6.8127719e-43
5.2382248e-43
4.8927686e-43
7.5352717e-43
7.8715363e-43
3.8035005e-43
6.6637808e-43
7.5562045e-43
9.1320438e-43
4.0672523e-43
7.1664257e-43
7.626553e-43
7.3776407e-05
5.3531186e-12
1.1993346e-18
4.338651e-24
2.2489232e-30
8.3023987e-37
2.5252681e-43
2.543595e-49
2.1122092e-49
2.0164499e-49
2.3889845e-49
4.0316983e-49
2.247396e-49
3.1381507e-49
4.2562318e-49
2.0212458e-49
1.7949166e-49
2.6213211e-49
2.6530066e-49
2.637941e-49
1.6182913e-49
2.8257122e-49
2.3086399e-49
2.2447019e-49
2.2243565e-49
1.4636114e-49
2.1353342e-49
3.2798439e-49
2.3452679e-49
1.8484215e-49
1.4412771e-49
2.6306062e-49
2.5815328e-49
1.574094e-49
2.3657929e-49
3.0093022e-49
4.1055556e-49
1.4281722e-49
2.853761e-49
2.887563e-49
8.8294034e-05
5.5283707e-12
8.6825816e-19
1.7905187e-24
1.5261612e-30
4.890688e-37
2.1019884e-43
6.9718114e-50
1.278316e-55
7.0171651e-56
9.7909901e-56
1.4236404e-55
8.2202769e-56
1.1785078e-55
1.424451e-55
7.7025415e-56
6.5822217e-56
1.0965255e-55
1.0881868e-55
9.5573096e-56
5.5932843e-56
9.9850143e-56
9.8248988e-56
7.2970753e-56
9.3379149e-56
5.3341187e-56
7.8645868e-56
1.0934491e-55
9.0820771e-56
5.9635736e-56
6.3847168e-56
1.2519966e-55
1.025538e-55
6.8453711e-56
9.548179e-56
1.1893327e-55
1.3915837e-55
5.3718403e-56
1.0548526e-55
1.0069164e-55
0.00011496964
7.4038036e-12
9.4420463e-19
8.1816194e-25
7.607927e-31
2.6216786e-37
7.7520132e-44
2.2678311e-50
7.5325477e-57
2.8002222e-62
3.4883351e-62
6.8927454e-62
2.6914194e-62
4.5694276e-62
4.2561781e-62
2.9913037e-62
2.8982606e-62
4.4981751e-62
4.1043939e-62
3.263456e-62
2.4905311e-62
4.8184415e-62
4.1549137e-62
2.3273106e-62
6.0912943e-62
3.393583e-62
3.3870658e-62
3.9205093e-62
3.3875955e-62
2.1820879e-62
2.4381631e-62
6.7689075e-62
4.2970018e-62
2.9328216e-62
3.4520064e-62
3.663693e-62
6.9190521e-62
1.8490034e-62
4.3556516e-62
4.0697475e-62
0.00019860694
1.4037434e-11
1.5238376e-18
1.3480313e-24
1.7207606e-30
7.0693481e-37
2.2263839e-43
7.2032448e-50
2.414467e-56
7.2278673e-63
1.6265985e-68
4.0031947e-68
9.6703821e-69
1.878547e-68
1.3380878e-68
1.1495653e-68
1.502567e-68
1.4329962e-68
1.7965425e-68
1.539458e-68
9.8457063e-69
2.4998793e-68
2.4438522e-68
9.5707245e-69
6.1690505e-68
3.9086656e-68
1.8517879e-68
1.5813152e-68
1.3343004e-68
7.9503396e-69
8.2156002e-69
5.6773349e-68
1.9844658e-68
1.835741e-68
1.2655013e-68
1.4161265e-68
2.9224621e-68
8.4873331e-69
1.7760253e-68
1.4097791e-68
-0.00059883952
-5.3647023e-11
-5.5334165e-18
-2.5336918e-24
-4.5239873e-30
-2.2145694e-36
-8.9417029e-43
-3.0964563e-49
-1.1347715e-55
-3.5578205e-62
-1.2321973e-68
2.8612158e-74
6.1326999e-75
1.5240174e-74
4.6870163e-75
5.9457479e-75
6.5333901e-75
5.2451215e-75
1.0900491e-74
8.8460895e-75
6.6937478e-75
1.1709327e-74
1.7602908e-74
4.111274e-75
5.1533556e-74
8.8527783e-74
1.3621144e-74
2.5634533e-74
5.524781e-75
3.3190043e-75
3.7658077e-75
5.5792632e-74
1.019585e-74
1.7583475e-74
7.4629009e-75
1.0077212e-74
1.442632e-74
4.8940112e-75
7.9477142e-75
4.2987542e-75
-0.00015210126
-2.7087988e-11
-3.1961614e-18
-1.0831086e-24
-1.4870455e-30
-6.9184853e-37
-2.468295e-43
-7.8662567e-50
-2.5153537e-56
-8.3354673e-63
-2.8898137e-69
-1.0071258e-75
7.9348791e-81
1.8882589e-80
1.9361379e-81
4.2314582e-81
4.1921527e-81
2.0718583e-81
8.8178459e-81
5.1348752e-81
4.6344899e-81
1.1521566e-80
1.5653287e-80
2.4320127e-81
3.8904793e-80
1.2687867e-79
1.1785395e-80
4.0420935e-80
2.6207165e-81
1.4254737e-81
2.0880752e-81
5.6984401e-80
7.7776368e-81
1.4509084e-80
1.7030745e-79
7.7809165e-81
9.4549908e-81
5.6103258e-81
3.0518819e-81
1.2946168e-81
-6.8660829e-05
3.1652988e-11
5.7368526e-18
1.801772e-24
1.3400661e-30
6.3745022e-37
2.0157063e-43
6.370073e-50
1.8923212e-56
6.0843212e-63
1.8587277e-69
8.2466724e-76
2.7518775e-82
1.6885823e-86
9.4723807e-88
3.8059362e-87
2.882068e-87
1.2714526e-87
7.9965078e-87
5.5914612e-87
5.6081968e-87
8.0633025e-87
1.6981333e-86
2.2450265e-87
5.8010372e-86
1.9258755e-85
1.4310325e-86
4.9635179e-86
1.5397541e-87
6.2464022e-88
1.4404356e-87
4.4505353e-86
1.0880689e-86
1.038223e-86
1.8533891e-85
7.1972437e-87
6.5743413e-87
4.9133761e-87
1.200726e-87
3.8407659e-88
-4.1178311e-05
3.0605092e-12
-4.8009929e-18
-1.3185784e-24
-7.2242993e-31
-4.4818194e-37
-1.8833066e-43
-5.9432069e-50
-2.0280667e-56
-7.6144924e-63
-2.4886225e-69
-8.1398045e-76
-2.9959142e-82
-1.0101046e-88
3.6156171e-93
3.3408641e-93
3.9533634e-93
1.5616277e-93
1.0129746e-92
7.0413964e-93
5.8190999e-93
1.0533216e-92
1.6911409e-92
2.0725433e-93
2.7930596e-91
2.6341171e-91
1.563938e-92
5.0695145e-92
1.767045e-93
5.171988e-94
1.0133592e-93
5.1514358e-92
1.691551e-92
1.040224e-92
2.1183913e-91
4.5973141e-92
8.3959173e-93
4.5041605e-93
5.6918436e-94
1.4211978e-94
-2.7706423e-05
1.002723e-12
-1.0901587e-19
-7.1955015e-26
-2.4814203e-32
-1.2995056e-38
-4.6882768e-45
-1.6446306e-51
-5.7024603e-58
-2.0548869e-64
-6.2503926e-71
-2.2931017e-77
-7.4972369e-84
-2.96204e-90
-9.4159106e-97
5.8303517e-99
3.4656393e-99
1.6872156e-99
1.6882882e-98
1.1172567e-98
5.0457247e-99
1.5439728e-98
2.1223025e-98
3.1608315e-99
4.0746998e-97
3.9853108e-97
3.145142e-98
7.5013289e-98
1.8329787e-99
4.5541679e-100
8.8953954e-100
5.1844365e-98
2.564618e-98
1.5115672e-98
6.0486559e-97
6.7461574e-98
8.9067559e-99
4.7020631e-99
3.5060054e-100
4.4126215e-101
-2.0109977e-05
4.3610644e-13
-1.9402795e-20
1.7431602e-26
4.2332088e-33
1.4087358e-39
5.4285058e-46
1.7969499e-52
5.6228701e-59
2.0213192e-65
7.4353011e-72
2.8066637e-78
9.4825602e-85
3.6349971e-91
1.2718447e-97
7.7175091e-104
2.7281473e-105
2.8444739e-105
1.9879541e-104
2.1328712e-104
4.3574854e-105
1.6934483e-104
1.8729245e-104
5.0639858e-105
3.7220013e-103
4.8121175e-103
3.5234741e-104
1.1722215e-103
2.311809e-105
3.9227698e-106
1.1124394e-105
4.1217862e-103
2.4304982e-104
2.1643863e-104
8.3820025e-103
5.9966557e-104
8.6753811e-105
8.1190264e-105
4.6418453e-106
1.4347358e-107
-1.4856877e-05
2.1358735e-13
-5.2248708e-21
7.9746545e-28
2.097218e-34
6.550514e-41
2.0461942e-47
7.1460359e-54
2.3788961e-60
7.7167141e-67
2.6030488e-73
8.2978036e-80
2.430083e-86
1.0227528e-92
3.3401906e-99
1.5434378e-105
2.8595154e-111
2.8235261e-111
3.1341826e-110
2.5189573e-110
4.6735562e-111
2.1464323e-110
1.8601441e-110
7.8846256e-111
3.314106e-109
4.1406687e-109
3.2781403e-110
2.1482174e-109
4.2369258e-111
3.5292951e-112
2.1554519e-111
4.9188357e-109
9.2172123e-110
2.7175378e-110
1.0119108e-108
4.435689e-110
1.0162101e-110
6.2908521e-111
4.0974541e-112
5.243175e-114
-1.1278849e-05
1.139945e-13
-1.7805675e-21
1.1587352e-28
2.828207e-35
5.7439136e-42
2.1069952e-48
8.2043037e-55
2.7611576e-61
7.914765e-68
2.3847287e-74
9.4111946e-81
3.3681029e-87
1.1521639e-93
4.3268438e-100
1.4900163e-106
5.949577e-113
2.7782966e-117
4.0130784e-116
2.399823e-116
5.357076e-117
3.9240264e-116
2.0589384e-116
9.5700333e-117
2.8379126e-115
1.1616436e-114
3.5498982e-116
7.045622e-115
8.3351641e-117
4.4166188e-118
4.201725e-117
4.6332927e-115
1.131296e-115
3.2264134e-116
9.4516306e-115
3.3066583e-116
1.3545093e-116
6.161274e-117
5.7595464e-118
2.1573394e-120
-8.8643865e-06
6.6183134e-14
-7.0299789e-22
2.4970992e-29
6.1798411e-36
9.9605612e-43
2.6439362e-49
1.0068067e-55
3.770758e-62
1.2801259e-68
5.4026914e-75
1.9004495e-81
6.3849615e-88
1.9809661e-94
6.1863399e-101
2.0763458e-107
6.6074627e-114
2.7381859e-120
4.2958972e-122
3.9102515e-122
4.7061863e-123
4.7026131e-122
2.9769108e-122
4.1311585e-122
4.210636e-121
1.7416522e-120
3.823892e-122
7.1913238e-121
2.6355386e-122
4.509935e-124
4.7988401e-123
5.242302e-121
1.1465826e-121
3.5511261e-122
1.0641167e-120
3.0551305e-122
1.5083389e-122
7.3268146e-123
7.0162543e-124
7.21063e-127
-7.0212175e-06
3.9849701e-14
-3.0260437e-22
6.6122128e-30
2.9095023e-36
3.8174939e-43
8.4794384e-50
2.5823167e-56
7.623274e-63
3.0109795e-69
1.0443419e-75
3.8048144e-82
1.1825979e-88
4.7128524e-95
1.8733633e-101
6.5817227e-108
2.523784e-114
8.9586794e-121
3.1288703e-127
6.2217429e-128
5.2584879e-129
4.833767e-128
2.517428e-128
5.2691561e-128
7.3182997e-127
2.6157004e-126
6.4195923e-128
6.9869773e-127
4.7214475e-128
6.466023e-130
4.3830912e-129
6.1772109e-127
1.1584855e-127
4.8900555e-128
1.2480499e-126
5.0110788e-128
2.0610287e-128
7.6775277e-129
9.2593223e-130
2.7262821e-133
-5.5963417e-06
2.4644217e-14
-1.379665e-22
1.9884428e-30
-1.3045917e-36
-1.2906798e-43
-2.4950444e-50
-8.4522704e-57
-2.5942137e-63
-1.0351682e-69
-4.076088e-76
-1.3574427e-82
-4.4411822e-89
-1.3957751e-95
-5.1351184e-102
-1.7592012e-108
-5.4710248e-115
-1.5960384e-121
-5.4380709e-128
3.7191788e-134
5.3466917e-135
4.0751764e-134
2.0130104e-134
5.5661305e-134
1.8014854e-132
2.2332205e-132
6.9288438e-134
1.4539138e-132
6.5720382e-134
6.3446379e-136
3.3076715e-135
8.0160889e-133
1.7134037e-133
5.8278963e-134
1.0799774e-132
1.2737319e-133
1.9290091e-134
9.573938e-135
1.0204105e-135
1.0971543e-139
-4.5804064e-06
1.5894823e-14
-6.7272323e-23
6.7530229e-31
-8.5646848e-38
-7.1315e-45
-9.5373338e-52
-2.9889553e-58
-9.6646123e-65
-2.9921315e-71
-1.2020049e-77
-3.4991799e-84
-1.2087169e-90
-3.6789985e-97
-1.1200102e-103
-3.6314529e-110
-1.1938562e-116
-3.7565788e-123
-1.2561025e-129
-5.1972036e-136
5.5717017e-141
6.8878326e-140
2.4593819e-140
1.0762993e-139
2.7238074e-138
1.9537199e-138
5.6437082e-140
1.7759232e-138
6.8961737e-140
7.5284925e-142
3.9033776e-141
1.2042397e-138
2.3268986e-139
7.5080259e-140
8.3832872e-139
1.6140912e-139
2.213104e-140
9.5725496e-141
2.0353598e-141
3.6844976e-146
-3.7529016e-06
1.0437068e-14
-3.4068675e-23
2.4384101e-31
-1.3788947e-38
-9.1832559e-46
-1.0279203e-52
-2.6730851e-59
-8.7709889e-66
-3.0163998e-72
-9.5270115e-79
-3.2670969e-85
-1.0968055e-91
-3.9790689e-98
-1.3633494e-104
-5.4220397e-111
-1.7039746e-117
-7.1349844e-124
-2.0753803e-130
-1.0234045e-136
-5.0280257e-143
1.1693679e-145
2.0894745e-146
1.5356042e-145
2.4996382e-144
1.3873806e-144
7.0107706e-146
2.1816231e-144
7.4814931e-146
9.9061212e-148
1.0735948e-146
1.3414413e-144
2.0124036e-145
8.7160717e-146
1.1034642e-144
2.3134728e-145
2.7434664e-146
1.9622566e-146
3.695654e-147
1.3518243e-152
-3.1117818e-06
7.0197951e-15
-1.803276e-23
9.569533e-32
-3.1422606e-39
-1.8322587e-46
-1.5986351e-53
-3.4548117e-60
-1.3628174e-66
-5.0190864e-73
-1.8256173e-79
-5.8986165e-86
-1.7711911e-92
-6.667216e-99
-2.5028471e-105
-9.0539733e-112
-3.1269075e-118
-8.8939395e-125
-2.8646238e-131
-1.2127815e-137
-4.3238449e-144
-1.3465918e-150
1.584485e-152
1.9640408e-151
2.0926598e-150
1.3686994e-150
7.3717104e-152
1.8592512e-150
7.290529e-152
1.0590632e-153
2.3654452e-152
1.9204716e-150
3.5519149e-151
8.2634698e-152
9.6835206e-151
2.802956e-151
3.1130095e-152
1.6814693e-152
7.3762887e-153
7.2195204e-159
-2.5945344e-06
4.7824462e-15
-9.8050821e-24
3.934804e-32
-7.9035402e-40
-4.4506622e-47
-3.073481e-54
-5.4077659e-61
-1.8348881e-67
-6.2383323e-74
-1.9215416e-80
-6.789554e-87
-2.5787159e-93
-9.6458789e-100
-2.8978106e-106
-9.0277478e-113
-2.7409599e-119
-8.8900347e-126
-2.6479522e-132
-9.2309393e-139
-3.7456152e-145
-1.629564e-151
-6.4787827e-158
2.1004847e-157
2.5421436e-156
1.9886357e-156
8.8711661e-158
1.1391573e-156
7.0943881e-158
7.4695344e-160
2.1832552e-158
1.8457839e-156
6.532266e-157
8.3489757e-158
1.0750205e-156
3.7434565e-157
4.9179411e-158
1.6179404e-158
2.1521757e-158
1.2328687e-164
-2.1750883e-06
3.3163522e-15
-5.4807698e-24
1.6906606e-32
-2.260908e-40
-1.2626175e-47
-6.8367422e-55
-1.0094695e-61
-3.8297815e-68
-1.1403996e-74
-3.3612033e-81
-1.1795999e-87
-4.1779406e-94
-1.3969191e-100
-5.998346e-107
-1.8341821e-113
-5.5268133e-120
-1.9986633e-126
-6.8734292e-133
-2.0597997e-139
-8.5301172e-146
-4.4427037e-152
-2.0629493e-158
2.0527052e-163
2.9856131e-162
2.757375e-162
8.9939662e-164
9.0731134e-163
1.1353565e-163
8.7724456e-166
1.9718056e-164
1.5097602e-162
6.9298464e-163
9.560568e-164
1.0675514e-162
3.8999417e-163
4.4608664e-164
1.9958707e-164
2.1723666e-164
1.2291251e-170
-1.8364354e-06
2.3280997e-15
-3.1352559e-24
7.5469045e-33
-7.0175246e-41
-4.5012733e-48
-2.0017355e-55
-2.2636015e-62
-7.096338e-69
-2.8749404e-75
-8.8383101e-82
-3.2613047e-88
-1.0929097e-94
-4.8967824e-101
-1.5109327e-107
-4.7797688e-114
-1.7138921e-120
-6.0014735e-127
-2.2330647e-133
-7.0077854e-140
-2.7874576e-146
-1.0518006e-152
-5.0004587e-159
-3.0935472e-165
2.4137568e-168
2.9408247e-168
6.7851775e-170
8.7821483e-169
1.3223056e-169
1.3187411e-171
2.2103993e-170
1.1879357e-168
7.0203298e-169
1.0125099e-169
8.2408716e-169
4.1270132e-169
4.6898539e-170
2.2030436e-170
2.6910227e-170
1.6904142e-176
-1.5583411e-06
1.6565122e-15
-1.8356849e-24
3.5041324e-33
-2.3244448e-41
-1.9399939e-48
-7.1666778e-56
-6.5739689e-63
-1.7647715e-69
-7.0384345e-76
-2.6228214e-82
-8.1564527e-89
-2.7001661e-95
-8.6967697e-102
-2.8857591e-108
-1.0321898e-114
-3.4295902e-121
-1.3949186e-127
-1.2148685e-133
-1.3522743e-139
-1.4601127e-145
-1.0328444e-151
-6.4300573e-158
-5.7851694e-164
-5.8681602e-170
2.2846442e-174
7.8923324e-176
9.0535191e-175
1.2507812e-175
1.1298143e-177
1.8496123e-176
1.1155375e-174
5.5113599e-175
1.2345337e-175
1.0679441e-174
3.6421942e-175
8.9622786e-176
2.4629832e-176
5.4681538e-176
2.5064108e-182
-1.3286015e-06
1.1898173e-15
-1.0936413e-24
1.6716081e-33
-8.1843188e-42
-1.7572202e-48
-5.5683875e-56
-4.0832953e-63
-8.7914988e-70
-2.8831175e-76
-9.4306226e-83
-2.9475777e-89
-7.9469702e-96
-2.6056166e-102
-1.0013667e-108
-3.8134067e-115
-1.1550975e-121
-4.3680058e-128
-1.5105391e-134
-4.9288835e-141
-1.3709028e-147
-2.5254494e-154
1.9489948e-160
2.7399171e-166
2.3538012e-172
3.0572487e-178
1.2287376e-181
9.3456533e-181
1.4673697e-181
1.523899e-183
1.3775783e-182
1.1170312e-180
3.8261536e-181
1.6286732e-181
1.0231834e-180
3.1424808e-181
9.6179313e-182
5.3942958e-182
9.0252131e-182
4.2756063e-188
-1.1361271e-06
8.6234749e-16
-6.61528e-25
8.1913614e-34
-3.0132538e-42
5.952176e-49
1.6322038e-56
9.6180322e-64
1.8543909e-70
6.1967388e-77
2.4103141e-83
8.7534058e-90
2.6309498e-96
1.0529384e-102
3.3161526e-109
1.1543774e-115
3.5960514e-122
1.2475229e-128
3.6686067e-135
1.5906223e-141
7.7524491e-148
4.0550545e-154
2.5449495e-160
1.8957287e-166
3.1342422e-172
4.3424053e-178
4.5551548e-184
6.462706e-187
1.9703036e-187
1.5736769e-189
1.414428e-188
1.3020267e-186
2.7921086e-187
1.6975558e-187
1.1217314e-186
4.5786621e-187
9.8643755e-188
1.2009972e-187
9.5710618e-188
4.8802005e-194
-9.7699882e-07
6.3142734e-16
-4.0680909e-25
4.1123904e-34
-1.1599653e-42
5.2712958e-50
1.26265e-57
6.0072723e-65
1.0707006e-71
3.7062727e-78
1.1624847e-84
3.226976e-91
9.5955349e-98
3.1220296e-104
1.1693314e-110
4.6658689e-117
1.4139868e-123
5.0691722e-130
1.5188659e-136
4.5570416e-143
1.9158379e-149
1.1059507e-155
6.5315458e-162
4.8536527e-168
3.9878515e-174
4.3113653e-180
8.9061538e-186
7.5231299e-192
1.8743183e-193
2.1666323e-195
1.3037549e-194
1.3853121e-192
2.6173986e-193
4.7606486e-193
2.1672349e-192
3.7716262e-193
9.3825025e-194
1.9765383e-193
2.9586504e-193
1.3880714e-199
-8.4261834e-07
4.6561743e-16
-2.5336144e-25
2.1078301e-34
-4.615515e-43
1.0320175e-50
2.1889413e-58
8.3590313e-66
1.1854752e-72
4.9342498e-79
2.0627791e-85
6.5732026e-92
1.9495157e-98
6.7453443e-105
1.9474539e-111
6.8724664e-118
2.4190284e-124
8.610944e-131
2.997363e-137
1.0246789e-143
3.9252327e-150
3.2310034e-156
2.3281496e-162
1.5839604e-168
2.6030078e-174
2.2962347e-180
2.5730303e-186
3.3921068e-192
3.9305567e-198
1.6877225e-201
1.4994334e-200
1.3449668e-198
2.3602402e-199
7.043636e-199
1.7661071e-198
3.1804824e-199
1.082174e-199
3.7485783e-199
1.2878528e-198
5.1860561e-205
-7.2912639e-07
3.4594753e-16
-1.5984615e-25
1.1033606e-34
-1.9065969e-43
2.5792569e-51
5.0791809e-59
1.5971128e-66
1.7456491e-73
5.5032783e-80
2.4234574e-86
8.2423343e-93
3.2720721e-99
1.2181419e-105
3.960879e-112
1.375833e-118
4.4976845e-125
1.4089519e-131
6.3524414e-138
1.9243995e-144
6.7996874e-151
3.1317988e-157
1.4792063e-163
9.8415363e-170
8.6779998e-176
1.3737207e-181
1.3664182e-187
1.7923772e-193
3.6835327e-199
4.8072876e-205
1.227975e-206
1.2804399e-204
2.2791059e-205
9.0789628e-205
1.3761571e-204
2.7473947e-205
1.451074e-205
6.128097e-205
1.9710243e-204
9.8322079e-211
-6.3273197e-07
2.5882143e-16
-1.0201307e-25
5.8779104e-35
-8.0988284e-44
7.0843284e-52
1.3280016e-59
3.4125064e-67
2.9669559e-74
1.073384e-80
4.5603085e-87
1.3075326e-93
4.9364289e-100
1.5672323e-106
5.6869817e-113
1.6782038e-119
5.3240544e-126
2.0509265e-132
7.2314901e-139
2.9707891e-145
1.0503908e-151
4.780609e-158
3.0173371e-164
2.6523305e-170
4.0996426e-176
6.0363801e-182
6.3508217e-188
1.1588161e-193
2.3164818e-199
2.4733695e-205
2.2355889e-211
1.1471445e-210
1.8368668e-211
1.1762893e-210
1.2837013e-210
3.1745382e-211
2.142862e-211
1.7769966e-210
3.5827461e-210
1.4957433e-216
-5.510408e-07
1.9495598e-16
-6.581516e-26
3.1848887e-35
-3.5333573e-44
2.1260118e-52
3.9349757e-60
8.5336216e-68
6.256052e-75
1.8699593e-81
6.3222328e-88
1.8831038e-94
6.1452238e-101
2.438999e-107
7.7764011e-114
2.9723046e-120
9.29058e-127
2.6709682e-133
3.8110091e-140
-7.5815786e-146
-2.638874e-151
-2.7679358e-157
-2.8329151e-163
-4.5639248e-169
-6.9511423e-175
-6.6536095e-181
-9.0567554e-187
-1.8872441e-192
-2.4927819e-198
-3.5605981e-204
-3.6396374e-210
-3.1534758e-216
3.070739e-217
1.0697308e-216
1.3856663e-216
3.8198977e-217
2.068459e-217
2.0633279e-216
1.9181283e-215
9.4664541e-222
-4.8073847e-07
1.4761953e-16
-4.2868546e-26
1.7515596e-35
-1.5792293e-44
6.8231546e-53
1.3121043e-60
2.4528662e-68
1.3528972e-75
3.0570106e-82
1.4931806e-88
5.128541e-95
1.6639616e-101
5.9425918e-108
1.9754827e-114
8.319613e-121
3.5722025e-127
2.6147503e-133
3.9632889e-139
5.1074825e-145
4.0520477e-151
4.2537774e-157
5.1578871e-163
8.1155032e-169
1.0906872e-174
9.3171213e-181
1.4634629e-186
1.5866007e-192
6.3638157e-197
1.798147e-202
4.6726526e-208
5.7836605e-214
1.4075375e-218
1.3360363e-222
1.6939492e-222
3.5107179e-223
4.2723305e-223
9.1562558e-222
3.4257172e-221
3.1659534e-227
-4.2063578e-07
1.1244177e-16
-2.8193227e-26
9.7771357e-36
-7.2280777e-45
2.3051566e-53
4.976723e-61
7.8998542e-69
3.5819349e-76
7.389472e-83
3.5201516e-89
1.4016408e-95
4.3495237e-102
1.6175132e-108
6.1651829e-115
2.4285968e-121
8.9397482e-128
4.5781798e-134
4.8721287e-140
5.2092425e-146
4.055781e-152
7.1578345e-158
1.0275873e-163
1.6547943e-169
3.1847966e-175
6.6974173e-181
1.2660229e-186
2.1630332e-192
3.0315566e-198
2.8880516e-204
3.1412466e-210
3.7466396e-216
5.2957747e-222
2.4537295e-227
1.722545e-228
5.9178399e-229
1.9522729e-228
1.6925228e-227
-1.3520963e-225
-7.3469353e-232
-3.6896555e-07
8.6085119e-17
-1.8701542e-26
5.5296866e-36
-3.3752993e-45
8.1502713e-54
2.2443189e-61
3.1473865e-69
1.1524399e-76
1.9207171e-83
8.5827202e-90
2.9459727e-96
1.0586426e-102
4.1904727e-109
1.4803028e-115
4.6040106e-122
-3.9504915e-129
-4.4184801e-134
-3.1389196e-139
-2.1326838e-144
-5.5384207e-150
-8.3549981e-156
-1.2328216e-161
-5.5109247e-167
-1.096816e-172
-1.726579e-177
-3.4677811e-183
-7.6470641e-189
-1.5519943e-194
-2.4833999e-200
-3.1116803e-206
-4.9632661e-212
-1.7968051e-217
-2.8564682e-223
-3.9103506e-229
5.1183453e-236
3.8729789e-234
2.9245759e-233
4.6468076e-231
2.6106722e-237
-3.2429562e-07
6.624854e-17
-1.2512523e-26
3.1691468e-36
-1.6084036e-45
2.9927022e-54
1.5082103e-61
1.8512528e-69
5.6154111e-77
7.6594348e-84
2.5373427e-90
1.2056494e-96
3.9352116e-103
1.6000503e-109
6.0360824e-116
2.3020738e-122
7.1445391e-129
2.5843486e-136
-1.8056037e-141
-2.2517602e-147
-5.490129e-153
-3.087233e-158
-6.2712005e-164
-7.6254336e-170
-1.2084302e-175
-1.9013935e-181
-2.2442024e-187
-3.0107934e-191
2.5228658e-197
9.2771492e-203
-4.0104652e-208
3.5003545e-215
5.7490202e-220
1.1867253e-225
1.7086561e-231
2.9791714e-235
3.9711376e-239
-1.2414632e-237
-6.1100283e-236
-3.749242e-242
-2.8556953e-07
5.1185862e-17
-8.4303125e-27
1.8362191e-36
-7.7956779e-46
1.1355836e-54
-3.3856405e-61
-3.7409254e-69
-9.2745777e-77
-1.0235916e-83
-4.8931882e-90
-2.3336779e-96
-8.3008892e-103
-3.0550709e-109
-1.0958246e-115
-4.0470345e-122
-1.4878958e-128
-6.5899925e-135
-3.3920088e-141
-1.1248309e-146
-3.8834071e-152
4.9644107e-157
1.0295233e-162
2.2727672e-166
-1.7822613e-171
-5.2337718e-177
-3.6865924e-182
-3.3655502e-186
2.8495438e-191
6.0174813e-197
6.1690143e-203
1.331862e-208
5.7551409e-214
6.2386522e-220
6.7385768e-226
7.5033964e-231
1.414088e-236
2.7039411e-241
7.7218186e-241
4.6035281e-247
-2.5200955e-07
3.9725406e-17
-5.7215142e-27
1.0759382e-36
-3.844479e-46
4.4420476e-55
-1.2152975e-62
-1.2171245e-70
-2.5158333e-78
-2.1881244e-85
-9.5243897e-92
-4.4301377e-98
-2.089008e-104
-7.197615e-111
-3.6917097e-117
-1.4438854e-123
-5.6776615e-130
-1.6578229e-136
2.7602469e-143
1.6216185e-148
-9.5594155e-153
-1.7631553e-158
-1.0070477e-163
-2.5998219e-169
-4.3860542e-175
-1.4148277e-180
-2.9378465e-185
-5.6521284e-191
-8.1363849e-197
-8.0883787e-203
-4.8002562e-209
-1.1313259e-214
2.940393e-219
7.3021397e-225
2.3287772e-229
3.7679103e-235
6.1571415e-241
1.4823891e-246
-1.9326005e-246
1.8549942e-251
-2.2279116e-07
3.0949777e-17
-3.9088423e-27
6.3700459e-37
-1.9252416e-46
1.7863492e-55
-2.2340394e-63
-2.0694783e-71
-3.5643793e-79
-2.5283807e-86
-9.7029943e-93
-3.5352593e-99
-1.4444956e-105
-4.8595103e-112
-2.3679764e-118
-1.1705231e-124
-3.5191271e-131
-1.1530504e-137
1.0394574e-143
2.7153572e-149
4.916288e-155
7.6112597e-161
1.3118361e-166
7.3986172e-172
1.0622842e-177
1.5379794e-183
3.1122597e-189
3.4328542e-194
5.8240912e-200
7.6446124e-206
2.6312591e-211
8.3670244e-217
1.7973645e-222
3.3906207e-228
1.9946457e-233
4.3312533e-239
1.3105306e-244
1.3690705e-250
-1.655269e-249
-5.1614936e-256
-1.9733273e-07
2.4208116e-17
-2.6874053e-27
3.8071468e-37
-9.7839514e-47
7.354003e-56
-5.3602619e-64
-4.6540162e-72
-6.8428083e-80
-3.8480507e-87
-1.265753e-93
-8.5831128e-100
-3.3238295e-106
-1.7195211e-112
-7.0979247e-119
-2.397433e-125
-9.3554954e-132
-3.6523593e-138
-3.2152392e-144
-4.1594946e-150
-6.7836426e-156
-1.3079805e-161
-2.374698e-167
-1.1996965e-172
-3.2756089e-178
-1.1881861e-183
-1.4028453e-189
-2.0184533e-195
1.0505511e-199
1.2327786e-204
-1.4614181e-209
-3.8977865e-215
-1.1315927e-219
-1.5615188e-225
-3.0783306e-231
-1.5509746e-236
-2.1836821e-242
-3.0377815e-248
-5.2035367e-254
-1.5256214e-259
-1.7504793e-07
1.8998387e-17
-1.8582112e-27
2.29572e-37
-5.0391957e-47
3.0970772e-56
-1.4754403e-64
-1.2364021e-72
-1.553616e-80
-7.0652055e-88
-2.1049866e-94
-1.1916793e-100
-5.4481508e-107
-2.1267095e-113
-7.9591352e-120
-2.9679518e-126
-9.8550025e-133
-3.8205259e-139
-1.6560077e-145
-2.1146243e-151
-9.2189388e-157
-3.2652649e-161
-6.514797e-167
-5.7319693e-172
-1.0343306e-177
-2.4977206e-183
-4.6205711e-189
-9.0588206e-195
-1.541868e-200
-3.550456e-206
-4.2000744e-212
-7.24935e-218
-1.2488235e-223
-1.685392e-229
-3.2234123e-235
-1.3994119e-240
-3.0276648e-246
-4.5189709e-252
-1.2172198e-257
6.3010669e-263
-1.5549616e-07
1.4960534e-17
-1.2920314e-27
1.3961588e-37
-2.6283123e-47
1.3317809e-56
-4.4114737e-65
-3.6472626e-73
-3.9587573e-81
-1.4479818e-88
-3.0843618e-95
-1.6146209e-101
-6.405788e-108
-2.8454881e-114
-1.3744326e-120
-5.7682594e-127
-2.0300137e-133
-6.699938e-140
2.0842646e-146
1.3182723e-151
6.2754141e-157
1.2076784e-162
2.5288273e-168
4.0079013e-173
1.9011738e-178
3.153186e-184
5.1420893e-189
7.6608676e-195
1.2092798e-200
2.0095757e-206
4.4209771e-212
6.8189056e-218
2.2540533e-223
5.0571962e-229
-2.0016932e-234
-5.6181724e-240
-1.0060115e-245
-1.4363295e-251
-7.2802449e-257
-8.92042e-263
-1.3835312e-07
1.1818565e-17
-9.0312809e-28
8.5586017e-38
-1.3875897e-47
5.8373137e-57
-1.4033618e-65
-1.1813463e-73
-1.1215684e-81
-3.2712343e-89
-5.0988847e-96
-2.6400779e-102
-1.2055442e-108
-3.6614582e-115
-1.5264465e-121
-5.6528689e-128
-2.246119e-134
-9.2430607e-141
-3.6830969e-147
-8.4289743e-153
-2.3089546e-158
-4.0638728e-164
-1.459467e-169
-2.6029882e-175
-3.8004589e-181
-8.7097243e-187
-2.3272991e-192
-4.0370297e-198
-1.6740118e-203
-6.7274182e-209
-2.5468288e-214
-2.3505322e-220
-3.541466e-226
-8.6236462e-232
-1.1133679e-237
-4.5461852e-243
-1.0076199e-248
-4.8813105e-253
-9.6218829e-259
-1.1301833e-263
-1.2326256e-07
9.36445e-18
-6.3437376e-28
5.286621e-38
-7.4090027e-48
2.6041693e-57
-4.6907551e-66
-4.2377451e-74
-3.515736e-82
-8.5725655e-90
-1.1538344e-96
-5.8915131e-103
-2.3961497e-109
-9.0874248e-116
-3.669677e-122
-1.3599175e-128
-4.253559e-135
-1.9657934e-141
-1.7621151e-147
-2.737892e-153
-4.5096805e-159
-6.0599328e-165
-5.0017142e-170
-6.6352635e-175
-6.3234419e-181
2.8422268e-186
1.4497575e-191
2.8984762e-197
1.6800367e-202
1.7425648e-207
8.2796505e-213
2.9632805e-218
3.4717366e-224
8.0363079e-230
1.8245517e-235
3.9517099e-241
8.7659423e-247
1.3482398e-252
1.3423844e-258
1.8789374e-264
-1.0997705e-07
7.4413895e-18
-4.4773858e-28
3.2888495e-38
-3.9976712e-48
1.1812744e-57
-1.6300152e-66
-1.6879379e-74
-1.2526023e-82
-2.552453e-90
-2.6449956e-97
-1.7437756e-103
-1.4413726e-109
-5.9286669e-116
-2.6850126e-122
-1.0088368e-128
-3.7335538e-135
-1.3385399e-141
-6.4345052e-148
-2.509606e-153
-7.2248424e-159
-6.0566509e-164
-1.0267906e-169
-3.0021156e-175
-1.1261421e-180
-3.7863363e-186
-1.2244663e-191
3.9706727e-197
-5.9234576e-202
-1.0438407e-207
2.4522285e-212
4.6728685e-218
7.8984961e-222
7.6752864e-228
1.0193974e-233
2.1191131e-239
4.6953138e-245
7.6431786e-251
2.0219676e-256
2.1873567e-262
-9.8228935e-08
5.9289495e-18
-3.1741195e-28
2.0598556e-38
-2.178967e-48
5.4415845e-58
-5.8666824e-67
-8.1350198e-75
-5.4201012e-83
-9.1775115e-91
-7.6002615e-98
-3.6984905e-104
-2.1557754e-110
-8.5775052e-117
-2.9871259e-123
-1.1659276e-129
-4.6429179e-136
4.7018316e-143
5.5898542e-148
3.3756957e-153
6.6477423e-159
1.6785053e-164
3.2680329e-170
6.3366649e-176
8.089043e-182
1.8060745e-187
5.4717934e-192
1.1901743e-197
-1.9741538e-202
-1.3018861e-207
-2.3110702e-213
-6.5735338e-219
-8.4074408e-225
-1.0611885e-230
-1.4231082e-236
1.5881757e-241
1.745911e-246
4.5674936e-252
7.4363113e-258
4.2100984e-264