/*--------------------------------*- C++ -*----------------------------------*\
  =========                 |
  \\      /  F ield         | OpenFOAM: The Open Source CFD Toolbox
   \\    /   O peration     | Website:  https://openfoam.org
    \\  /    A nd           | Version:  10
     \\/     M anipulation  |
\*---------------------------------------------------------------------------*/
FoamFile
{
    format      ascii;
    class       volVectorField;
    location    "0.3";
    object      U;
}
// * * * * * * * * * * * * * * * * * * * * * * * * * * * * * * * * * * * * * //

dimensions      [0 1 -1 0 0 0 0];

internalField   nonuniform List<vector> 
4000
(
(0 0.018637466 0.47773157)
(0 0.02351001 0.50886061)
(0 0.0081668553 0.50052521)
(0 0.0056146135 0.50033634)
(0 0.0042546248 0.50025746)
(0 0.0032549368 0.50016898)
(0 0.0025560781 0.50011969)
(0 0.0020545641 0.50009013)
(0 0.0016765557 0.50006981)
(0 0.0013822097 0.50005539)
(0 0.0011471537 0.50004499)
(0 0.00095504893 0.50003733)
(0 0.0007946414 0.5000316)
(0 0.00065795543 0.50002727)
(0 0.00053916285 0.50002399)
(0 0.00043388309 0.50002151)
(0 0.00033872894 0.50001967)
(0 0.00025099855 0.50001834)
(0 0.00016845941 0.50001745)
(0 8.9189748e-05 0.50001694)
(0 1.1456276e-05 0.50001679)
(0 -6.6392862e-05 0.50001699)
(0 -0.00014601975 0.50001755)
(0 -0.00022918882 0.5000185)
(0 -0.00031787735 0.50001991)
(0 -0.00041440636 0.50002185)
(0 -0.00052161219 0.50002447)
(0 -0.00064308587 0.50002793)
(0 -0.00078352092 0.50003252)
(0 -0.00094924326 0.50003863)
(0 -0.0011490623 0.50004688)
(0 -0.0013956361 0.50005824)
(0 -0.0017077109 0.50007414)
(0 -0.0021156352 0.50009709)
(0 -0.0026753226 0.50013481)
(0 -0.0034688816 0.50020237)
(0 -0.0045610877 0.50027142)
(0 -0.0065852647 0.50043363)
(0 -0.017659703 0.50675409)
(0 -0.013590252 0.47975557)
(0 0.037432706 0.44796925)
(0 0.050955774 0.53232616)
(0 0.021969333 0.5080429)
(0 0.016135649 0.50357319)
(0 0.01241608 0.50242317)
(0 0.0095159399 0.50162301)
(0 0.0075205918 0.50115663)
(0 0.0060698459 0.50086594)
(0 0.0049645047 0.50066803)
(0 0.0041000359 0.50052903)
(0 0.0034074894 0.50042907)
(0 0.002839918 0.50035557)
(0 0.0023649483 0.50030068)
(0 0.0019594969 0.50025928)
(0 0.0016066041 0.50022793)
(0 0.001293475 0.50020427)
(0 0.0010101852 0.50018667)
(0 0.00074879752 0.500174)
(0 0.00050273826 0.50016549)
(0 0.00026633859 0.50016065)
(0 3.4478566e-05 0.50015922)
(0 -0.00019772052 0.50016112)
(0 -0.00043516727 0.50016647)
(0 -0.00068307137 0.50017557)
(0 -0.00094726246 0.50018898)
(0 -0.0012345692 0.50020754)
(0 -0.0015533149 0.50023247)
(0 -0.0019140052 0.50026558)
(0 -0.0023303204 0.5003095)
(0 -0.0028205996 0.5003681)
(0 -0.0034102172 0.50044735)
(0 -0.0041355485 0.5005567)
(0 -0.0050496711 0.50071125)
(0 -0.0062324492 0.50093658)
(0 -0.007832766 0.50129435)
(0 -0.010126406 0.50191048)
(0 -0.013107467 0.50282503)
(0 -0.017426842 0.50608113)
(0 -0.038759582 0.52526814)
(0 -0.027894936 0.45021613)
(0 0.039888309 0.40982051)
(0 0.061428201 0.54930816)
(0 0.03198382 0.52188198)
(0 0.024355558 0.51008057)
(0 0.019193677 0.5065886)
(0 0.014977195 0.50452812)
(0 0.012006741 0.50327145)
(0 0.0097719093 0.50245845)
(0 0.0080364592 0.50190114)
(0 0.0066647449 0.50150878)
(0 0.0055565463 0.50122557)
(0 0.0046423297 0.50101682)
(0 0.0038733578 0.50086068)
(0 0.0032142354 0.50074277)
(0 0.0026386292 0.50065339)
(0 0.0021264867 0.50058588)
(0 0.0016621319 0.50053561)
(0 0.0012329459 0.50049941)
(0 0.00082842241 0.50047508)
(0 0.00043946359 0.50046126)
(0 5.7829054e-05 0.50045716)
(0 -0.00032434163 0.5004626)
(0 -0.00071495603 0.50047787)
(0 -0.0011223924 0.50050389)
(0 -0.0015559949 0.50054218)
(0 -0.002026657 0.50059514)
(0 -0.0025475761 0.50066625)
(0 -0.003135284 0.5007606)
(0 -0.0038111096 0.50088558)
(0 -0.0046032915 0.50105212)
(0 -0.0055501832 0.50127674)
(0 -0.006705764 0.50158558)
(0 -0.0081472333 0.50202075)
(0 -0.0099786779 0.50265065)
(0 -0.012372913 0.50361498)
(0 -0.015717893 0.50519905)
(0 -0.0198742 0.50785375)
(0 -0.025187855 0.51641214)
(0 -0.047418284 0.53912714)
(0 -0.030854174 0.41487918)
(0 0.034791627 0.36172998)
(0 0.063839028 0.55456333)
(0 0.039380533 0.5374714)
(0 0.030083489 0.51849266)
(0 0.024112689 0.51197736)
(0 0.019279647 0.50849954)
(0 0.01573618 0.50626436)
(0 0.01295413 0.50475557)
(0 0.010743535 0.50370457)
(0 0.0089677027 0.50295629)
(0 0.0075136043 0.50241126)
(0 0.0063015751 0.50200699)
(0 0.0052738113 0.50170321)
(0 0.0043870568 0.50147299)
(0 0.0036084963 0.50129799)
(0 0.0029127474 0.50116551)
(0 0.0022797051 0.50106672)
(0 0.0016930105 0.50099545)
(0 0.0011389245 0.50094753)
(0 0.00060546878 0.50092027)
(0 8.1744304e-05 0.50091219)
(0 -0.00044266818 0.50092288)
(0 -0.00097824818 0.50095297)
(0 -0.0015360642 0.50100417)
(0 -0.0021283938 0.50107947)
(0 -0.0027694412 0.50118346)
(0 -0.0034762436 0.50132284)
(0 -0.0042698769 0.5015073)
(0 -0.0051771191 0.50175083)
(0 -0.0062327478 0.50207391)
(0 -0.0074826293 0.50250703)
(0 -0.0089889937 0.50309716)
(0 -0.010839209 0.50391903)
(0 -0.013139833 0.50508901)
(0 -0.016026522 0.50680658)
(0 -0.019901841 0.50946714)
(0 -0.024733651 0.51427449)
(0 -0.031115553 0.52824678)
(0 -0.050321434 0.54407128)
(0 -0.028439023 0.37237885)
(0 0.027424312 0.3148431)
(0 0.062315033 0.55024061)
(0 0.044614759 0.55146771)
(0 0.033982203 0.52748822)
(0 0.027464192 0.51772254)
(0 0.022455244 0.51291996)
(0 0.018636802 0.5097316)
(0 0.015528061 0.50749283)
(0 0.01300604 0.50590016)
(0 0.010941913 0.50474715)
(0 0.0092243011 0.50389641)
(0 0.0077743509 0.50325946)
(0 0.0065320777 0.50277741)
(0 0.0054510574 0.50241004)
(0 0.0044952426 0.50212954)
(0 0.003636169 0.50191647)
(0 0.0028508938 0.50175715)
(0 0.0021204792 0.50164198)
(0 0.0014288325 0.50156442)
(0 0.0007617951 0.50152023)
(0 0.00010640414 0.5015071)
(0 -0.00054976941 0.50152438)
(0 -0.0012192228 0.50157306)
(0 -0.0019151008 0.50165582)
(0 -0.0026518795 0.50177735)
(0 -0.003446137 0.5019448)
(0 -0.0043174985 0.50216858)
(0 -0.005289847 0.50246356)
(0 -0.006392932 0.50285102)
(0 -0.007664527 0.50336157)
(0 -0.009152894 0.50403988)
(0 -0.010920468 0.50495248)
(0 -0.013054084 0.50620217)
(0 -0.015657534 0.50794386)
(0 -0.018818672 0.51040388)
(0 -0.022899001 0.51405428)
(0 -0.028179994 0.52114494)
(0 -0.035710138 0.53932615)
(0 -0.050478923 0.54155393)
(0 -0.024087031 0.33055535)
(0 0.019837967 0.27519754)
(0 0.057990226 0.53974646)
(0 0.047364196 0.56256484)
(0 0.036477924 0.53660469)
(0 0.029636371 0.52350727)
(0 0.024676313 0.51740349)
(0 0.020774355 0.51336326)
(0 0.0175098 0.51044483)
(0 0.014814149 0.50832455)
(0 0.012566473 0.50676221)
(0 0.010665247 0.50559323)
(0 0.0090384802 0.50470848)
(0 0.0076285559 0.50403304)
(0 0.0063896147 0.50351469)
(0 0.0052851988 0.50311671)
(0 0.004285841 0.50281306)
(0 0.0033673145 0.5025852)
(0 0.0025092847 0.50242005)
(0 0.0016942298 0.5023086)
(0 0.00090656495 0.50224501)
(0 0.00013191549 0.50222605)
(0 -0.00064354961 0.50225083)
(0 -0.0014337328 0.50232071)
(0 -0.0022531861 0.50243941)
(0 -0.0031178028 0.50261339)
(0 -0.0040455674 0.50285242)
(0 -0.0050574527 0.50317065)
(0 -0.0061785222 0.50358808)
(0 -0.0074393233 0.50413288)
(0 -0.0088777821 0.504845)
(0 -0.010541163 0.50578144)
(0 -0.012487756 0.50702449)
(0 -0.014797775 0.5086973)
(0 -0.017573 0.51098152)
(0 -0.020867408 0.51411949)
(0 -0.024977277 0.51872955)
(0 -0.030512045 0.52822935)
(0 -0.038633606 0.54872365)
(0 -0.048511465 0.53398228)
(0 -0.019067802 0.2939352)
(0 0.013083248 0.24255459)
(0 0.051799096 0.52520044)
(0 0.047709929 0.5702486)
(0 0.037757503 0.54552514)
(0 0.030850789 0.52928884)
(0 0.026073849 0.52180192)
(0 0.022238223 0.51699825)
(0 0.01895384 0.51347385)
(0 0.016193514 0.51086539)
(0 0.01384944 0.50891296)
(0 0.011835123 0.50743322)
(0 0.01008798 0.50630116)
(0 0.0085553909 0.50542902)
(0 0.0071946081 0.50475468)
(0 0.0059708347 0.50423374)
(0 0.0048552552 0.50383429)
(0 0.0038236847 0.50353335)
(0 0.0028554546 0.50331455)
(0 0.0019324802 0.50316654)
(0 0.0010384815 0.50308191)
(0 0.00015831841 0.50305659)
(0 -0.00072263339 0.50308941)
(0 -0.0016190692 0.50318211)
(0 -0.0025462907 0.50333941)
(0 -0.00352086 0.50356945)
(0 -0.0045612787 0.50388451)
(0 -0.0056887821 0.50430218)
(0 -0.0069282813 0.50484711)
(0 -0.0083094789 0.50555355)
(0 -0.0098684432 0.50646929)
(0 -0.011649367 0.50766148)
(0 -0.013704494 0.50922497)
(0 -0.01610333 0.51129773)
(0 -0.018941167 0.51407912)
(0 -0.02224937 0.51783796)
(0 -0.026268772 0.52346708)
(0 -0.031852456 0.53537467)
(0 -0.039763616 0.55589611)
(0 -0.04489708 0.52282011)
(0 -0.014091524 0.26264075)
(0 0.0077701893 0.21554069)
(0 0.044826148 0.50800976)
(0 0.046256119 0.57438096)
(0 0.038035935 0.55375157)
(0 0.031288437 0.53496083)
(0 0.026768816 0.52603067)
(0 0.023117068 0.52053888)
(0 0.019921028 0.51648876)
(0 0.017182145 0.51344223)
(0 0.014813205 0.51113129)
(0 0.012745779 0.50936023)
(0 0.010927819 0.50799176)
(0 0.0093134241 0.50692827)
(0 0.0078646296 0.50609985)
(0 0.0065496946 0.50545589)
(0 0.0053416661 0.50495955)
(0 0.0042174376 0.50458404)
(0 0.0031568822 0.50431012)
(0 0.0021421015 0.50412433)
(0 0.0011567754 0.50401788)
(0 0.00018559325 0.50398587)
(0 -0.00078629562 0.50402694)
(0 -0.0017738104 0.50414314)
(0 -0.0027924013 0.50434009)
(0 -0.003858635 0.50462747)
(0 -0.0049907711 0.50501977)
(0 -0.0062094237 0.50553761)
(0 -0.0075383275 0.50620958)
(0 -0.0090051621 0.50707502)
(0 -0.01064272 0.50818808)
(0 -0.012490579 0.50962402)
(0 -0.014593867 0.51148787)
(0 -0.017008786 0.51392853)
(0 -0.019816989 0.51715471)
(0 -0.023034436 0.52147949)
(0 -0.026883691 0.52818187)
(0 -0.032355607 0.54221987)
(0 -0.039408149 0.56050106)
(0 -0.040331608 0.50907927)
(0 -0.0097089048 0.23585163)
(0 0.0040050316 0.19355587)
(0 0.037899906 0.48948672)
(0 0.043687836 0.57524019)
(0 0.037564803 0.56084548)
(0 0.031155026 0.54036161)
(0 0.026914886 0.53001192)
(0 0.023514695 0.52390246)
(0 0.020480727 0.51941337)
(0 0.017826964 0.5159887)
(0 0.015489445 0.51335991)
(0 0.013417846 0.51132519)
(0 0.011570817 0.50973867)
(0 0.009910201 0.50849571)
(0 0.008403765 0.50752062)
(0 0.0070236839 0.50675805)
(0 0.0057456905 0.50616727)
(0 0.0045485068 0.50571843)
(0 0.0034132184 0.5053899)
(0 0.0023227157 0.50516647)
(0 0.0012611878 0.50503816)
(0 0.00021366565 0.50499938)
(0 -0.00083443339 0.50504857)
(0 -0.0018977562 0.50518807)
(0 -0.0029913853 0.50542428)
(0 -0.0041313381 0.50576816)
(0 -0.005335023 0.50623609)
(0 -0.0066217553 0.50685115)
(0 -0.0080133402 0.50764517)
(0 -0.009534629 0.50866148)
(0 -0.011214216 0.50995916)
(0 -0.013085964 0.51161954)
(0 -0.015187388 0.51375528)
(0 -0.017561122 0.51652213)
(0 -0.020271309 0.52013113)
(0 -0.02332581 0.52496253)
(0 -0.026966678 0.53273923)
(0 -0.032208285 0.54839027)
(0 -0.038000265 0.56254199)
(0 -0.03541833 0.4937865)
(0 -0.0062012756 0.21324494)
(0 0.0015511786 0.17613285)
(0 0.031500059 0.4707611)
(0 0.04053327 0.57338579)
(0 0.036559988 0.56659897)
(0 0.030638258 0.54537905)
(0 0.026672451 0.53370525)
(0 0.023543729 0.52703307)
(0 0.020710851 0.52218938)
(0 0.018183155 0.51845234)
(0 0.015917177 0.51555228)
(0 0.01387849 0.51328704)
(0 0.012035663 0.51150598)
(0 0.010358401 0.51010008)
(0 0.0088204494 0.50898983)
(0 0.0073982814 0.5081165)
(0 0.0060707863 0.50743656)
(0 0.0048189937 0.50691784)
(0 0.003625668 0.50653689)
(0 0.0024749356 0.50627711)
(0 0.0013519226 0.50612756)
(0 0.00024241261 0.50608211)
(0 -0.00086750444 0.50613902)
(0 -0.0019917975 0.50630087)
(0 -0.0031447677 0.5065747)
(0 -0.0043414512 0.5069725)
(0 -0.0055979535 0.5075121)
(0 -0.0069318163 0.50821853)
(0 -0.0083624235 0.50912602)
(0 -0.00991134 0.51028087)
(0 -0.01160257 0.51174565)
(0 -0.013463834 0.5136057)
(0 -0.015525195 0.51597849)
(0 -0.017817278 0.51902258)
(0 -0.020387019 0.52294896)
(0 -0.023241656 0.52823459)
(0 -0.026661721 0.53703961)
(0 -0.031571761 0.55365854)
(0 -0.035910917 0.56230556)
(0 -0.030556812 0.47788306)
(0 -0.0035916413 0.19460099)
(0 7.6799921e-05 0.16252419)
(0 0.025870891 0.45259954)
(0 0.037160661 0.56943328)
(0 0.03519244 0.57098947)
(0 0.02987832 0.54996368)
(0 0.02617455 0.53711469)
(0 0.02330655 0.52991334)
(0 0.020687913 0.52478534)
(0 0.018308114 0.52079947)
(0 0.016138777 0.51767548)
(0 0.014158611 0.51521483)
(0 0.012344762 0.51326533)
(0 0.010674155 0.51171576)
(0 0.009126178 0.51048441)
(0 0.0076815809 0.50951052)
(0 0.0063225604 0.50874869)
(0 0.0050326835 0.50816519)
(0 0.0037966674 0.50773525)
(0 0.0026001699 0.50744129)
(0 0.0014295571 0.50727163)
(0 0.00027167041 0.50721974)
(0 -0.00088642234 0.50728376)
(0 -0.0020577054 0.50746644)
(0 -0.0032553918 0.50777528)
(0 -0.0044932312 0.50822306)
(0 -0.005785728 0.50882868)
(0 -0.0071483726 0.50961853)
(0 -0.0085978881 0.5106285)
(0 -0.010152412 0.51190683)
(0 -0.011831426 0.51351825)
(0 -0.013656717 0.51555041)
(0 -0.015651499 0.51812307)
(0 -0.017836404 0.52139443)
(0 -0.020243802 0.52557891)
(0 -0.022887281 0.53128154)
(0 -0.026084945 0.54103047)
(0 -0.030576617 0.55793376)
(0 -0.033433399 0.56018691)
(0 -0.02599886 0.4620579)
(0 -0.00176571 0.17946003)
(0 -0.00071790494 0.15190646)
(0 0.02110858 0.43543384)
(0 0.03382036 0.56393156)
(0 0.033605214 0.57408981)
(0 0.028975895 0.55409482)
(0 0.025520751 0.54026449)
(0 0.022886801 0.53255377)
(0 0.020478875 0.5271933)
(0 0.018254855 0.52301403)
(0 0.01619534 0.51970995)
(0 0.014289602 0.51708777)
(0 0.012521883 0.51499606)
(0 0.01087529 0.51332295)
(0 0.0093341914 0.51198578)
(0 0.0078833072 0.51092276)
(0 0.0065080414 0.51008753)
(0 0.0051945225 0.50944538)
(0 0.0039295274 0.50897075)
(0 0.0027004033 0.50864536)
(0 0.001494942 0.50845709)
(0 0.00030124367 0.50839909)
(0 -0.00089243757 0.50846944)
(0 -0.0020978921 0.50867101)
(0 -0.0033270437 0.50901162)
(0 -0.004592169 0.50950455)
(0 -0.0059060135 0.51016941)
(0 -0.0072819118 0.51103346)
(0 -0.008733897 0.51213356)
(0 -0.01027678 0.51351904)
(0 -0.011925872 0.51525573)
(0 -0.013697623 0.51743228)
(0 -0.015609183 0.52016886)
(0 -0.017673018 0.52362135)
(0 -0.019910589 0.52801547)
(0 -0.022348095 0.53410952)
(0 -0.025327301 0.54468082)
(0 -0.029338016 0.5612065)
(0 -0.030799266 0.55658123)
(0 -0.021898061 0.4467493)
(0 -0.00056514455 0.16723487)
(0 -0.0010700281 0.14358236)
(0 0.017203988 0.41947816)
(0 0.030667973 0.55733992)
(0 0.031916235 0.57602116)
(0 0.028005063 0.55776482)
(0 0.024784603 0.54318051)
(0 0.022350944 0.53497706)
(0 0.020139387 0.52941916)
(0 0.018069161 0.52509201)
(0 0.016123897 0.52164628)
(0 0.014300973 0.51889336)
(0 0.01259024 0.51668414)
(0 0.010979839 0.51490705)
(0 0.0094583333 0.51347938)
(0 0.008013948 0.5123391)
(0 0.0066350297 0.51143945)
(0 0.0053101441 0.51074534)
(0 0.0040281054 0.51023075)
(0 0.0027779922 0.50987708)
(0 0.0015491064 0.5096719)
(0 0.00033091456 0.50960821)
(0 -0.00088702424 0.50968402)
(0 -0.0021151871 0.50990227)
(0 -0.0033641022 0.51027099)
(0 -0.0046444897 0.51080374)
(0 -0.0059672964 0.5115205)
(0 -0.0073437284 0.51244897)
(0 -0.0087852535 0.51362646)
(0 -0.01030361 0.51510267)
(0 -0.011910437 0.51694378)
(0 -0.013617606 0.51923852)
(0 -0.015437116 0.52210609)
(0 -0.017374951 0.52569941)
(0 -0.019445703 0.53026565)
(0 -0.021693066 0.53673025)
(0 -0.024462027 0.54797055)
(0 -0.027957663 0.56352058)
(0 -0.028179101 0.5518502)
(0 -0.018328594 0.43222193)
(0 0.00016848799 0.15737948)
(0 -0.0011531306 0.13700045)
(0 0.01407963 0.40481282)
(0 0.027783557 0.55003267)
(0 0.030213555 0.57693097)
(0 0.027018246 0.56098015)
(0 0.024019105 0.54588674)
(0 0.021750867 0.53721022)
(0 0.019714647 0.53147602)
(0 0.017789375 0.52703666)
(0 0.01595656 0.52348189)
(0 0.014219206 0.52062523)
(0 0.012571337 0.51832074)
(0 0.011005017 0.51645784)
(0 0.0095121959 0.51495427)
(0 0.0080840674 0.51374827)
(0 0.0067115635 0.51279321)
(0 0.0053854699 0.51205391)
(0 0.0040965231 0.5115043)
(0 0.0028354877 0.51112562)
(0 0.0015931765 0.51090534)
(0 0.00036045223 0.51083639)
(0 -0.00087177924 0.51091675)
(0 -0.0021126396 0.51114938)
(0 -0.0033712336 0.51154237)
(0 -0.0046567274 0.51210942)
(0 -0.0059783172 0.51287061)
(0 -0.0073452026 0.51385374)
(0 -0.0087665099 0.51509615)
(0 -0.010251256 0.51664743)
(0 -0.011807959 0.51857352)
(0 -0.01344475 0.52096262)
(0 -0.015169462 0.52393204)
(0 -0.016983252 0.52763229)
(0 -0.018897743 0.53234313)
(0 -0.020976771 0.53915787)
(0 -0.02354634 0.55089316)
(0 -0.026518039 0.56495853)
(0 -0.025684168 0.5463116)
(0 -0.015302112 0.41862375)
(0 0.00057331977 0.14943105)
(0 -0.0010855423 0.13172099)
(0 0.011624859 0.39142912)
(0 0.025194955 0.54230347)
(0 0.028555996 0.57697351)
(0 0.026048851 0.56376049)
(0 0.02325963 0.54840605)
(0 0.0211251 0.5392817)
(0 0.019240111 0.53338132)
(0 0.017446732 0.52885596)
(0 0.015720394 0.52521889)
(0 0.014067304 0.52228142)
(0 0.012484383 0.51990108)
(0 0.010966609 0.51796861)
(0 0.0095085479 0.51640253)
(0 0.0081038077 0.51514167)
(0 0.00674551 0.51413976)
(0 0.0054263915 0.51336189)
(0 0.0041389364 0.5127821)
(0 0.0028754874 0.51238168)
(0 0.0016283072 0.51214813)
(0 0.00038962191 0.51207435)
(0 -0.0008483354 0.51215833)
(0 -0.0020933506 0.51240301)
(0 -0.0033531409 0.51281649)
(0 -0.0046353835 0.5134124)
(0 -0.0059476376 0.51421076)
(0 -0.0072972793 0.51523921)
(0 -0.0086913761 0.51653481)
(0 -0.010136625 0.51814674)
(0 -0.011638996 0.52014032)
(0 -0.013203696 0.52260278)
(0 -0.014835381 0.5256491)
(0 -0.016531974 0.52942916)
(0 -0.018305442 0.53426609)
(0 -0.020239865 0.541409)
(0 -0.022621805 0.55345627)
(0 -0.025080223 0.56562481)
(0 -0.023377167 0.54023127)
(0 -0.012789 0.4060166)
(0 0.00075846182 0.14299528)
(0 -0.00094370277 0.12739835)
(0 0.0097209051 0.37926098)
(0 0.022898719 0.53437271)
(0 0.026978761 0.57629382)
(0 0.02511563 0.56613306)
(0 0.022527426 0.55075913)
(0 0.020500322 0.5412192)
(0 0.018742241 0.53515466)
(0 0.017065731 0.53056092)
(0 0.015437471 0.52686262)
(0 0.013864641 0.52386324)
(0 0.012346011 0.52142347)
(0 0.010878627 0.51943554)
(0 0.009458976 0.51781886)
(0 0.0080825531 0.51651295)
(0 0.0067442727 0.51547211)
(0 0.0054385326 0.51466186)
(0 0.0041593573 0.51405647)
(0 0.00290052 0.51363744)
(0 0.0016556282 0.51339236)
(0 0.00041819348 0.51331418)
(0 -0.00081829035 0.51340089)
(0 -0.0020603398 0.5136554)
(0 -0.0033143661 0.51408571)
(0 -0.0045866684 0.51470534)
(0 -0.0058833244 0.51553407)
(0 -0.0072101059 0.51659922)
(0 -0.0085723297 0.51793738)
(0 -0.0099747877 0.5195971)
(0 -0.011421452 0.52164291)
(0 -0.012915345 0.52416085)
(0 -0.014458843 0.52726349)
(0 -0.016048098 0.53110291)
(0 -0.017697943 0.53605496)
(0 -0.019510545 0.54350121)
(0 -0.021716487 0.55567729)
(0 -0.023686245 0.56562941)
(0 -0.021286177 0.53382065)
(0 -0.010736757 0.39439996)
(0 0.00080423138 0.13773879)
(0 -0.00077510158 0.12377144)
(0 0.0082551157 0.36821146)
(0 0.020874587 0.52639984)
(0 0.025499754 0.57501974)
(0 0.024227394 0.56812746)
(0 0.021833658 0.55296297)
(0 0.019893701 0.5430474)
(0 0.018239821 0.53681583)
(0 0.016664841 0.53216403)
(0 0.015125176 0.52842037)
(0 0.013627027 0.52537418)
(0 0.012170206 0.52288849)
(0 0.010753153 0.52085702)
(0 0.0093736869 0.5192)
(0 0.008028724 0.5178577)
(0 0.0067145994 0.51678504)
(0 0.0054270859 0.515948)
(0 0.0041615284 0.51532125)
(0 0.0029129616 0.5148865)
(0 0.0016762057 0.51463152)
(0 0.00044594897 0.51454933)
(0 -0.00078315249 0.51463794)
(0 -0.0020164451 0.5149002)
(0 -0.0032591473 0.51534399)
(0 -0.0045163188 0.5159826)
(0 -0.0057927349 0.51683552)
(0 -0.0070927964 0.51792964)
(0 -0.0084203767 0.51930098)
(0 -0.0097787578 0.52099738)
(0 -0.011170413 0.52308251)
(0 -0.012596806 0.52564119)
(0 -0.014058797 0.52878383)
(0 -0.015552068 0.53266828)
(0 -0.01709604 0.53773003)
(0 -0.018807073 0.54545097)
(0 -0.02084796 0.55757863)
(0 -0.022362683 0.56507721)
(0 -0.019416319 0.5272417)
(0 -0.0090826187 0.38373328)
(0 0.00076713367 0.13338915)
(0 -0.00060772464 0.12065002)
(0 0.0071283014 0.35817165)
(0 0.019094547 0.51849697)
(0 0.024124857 0.57326022)
(0 0.02338662 0.56977303)
(0 0.021182803 0.5550305)
(0 0.019315345 0.54478675)
(0 0.017745571 0.53838316)
(0 0.016257509 0.53367791)
(0 0.014796779 0.52990025)
(0 0.013366997 0.52681897)
(0 0.011968408 0.52429822)
(0 0.010600328 0.52223303)
(0 0.0092614374 0.52054434)
(0 0.0079496773 0.51917309)
(0 0.006662476 0.5180748)
(0 0.0053967146 0.51721595)
(0 0.0041488428 0.51657159)
(0 0.0029149814 0.51612374)
(0 0.0016910174 0.51586033)
(0 0.00047268925 0.5157745)
(0 -0.000744303 0.51586425)
(0 -0.001964255 0.51613238)
(0 -0.0031913235 0.51658661)
(0 -0.0044294818 0.51723998)
(0 -0.0056823896 0.51811164)
(0 -0.0069533067 0.51922798)
(0 -0.0082449515 0.52062445)
(0 -0.0095594518 0.52234818)
(0 -0.010898208 0.52446203)
(0 -0.012261641 0.52704961)
(0 -0.013649717 0.53021984)
(0 -0.015058759 0.53414013)
(0 -0.016513765 0.5393098)
(0 -0.018140254 0.54727265)
(0 -0.02002596 0.55918468)
(0 -0.021124021 0.56406291)
(0 -0.017758364 0.52061503)
(0 -0.0077618769 0.37395363)
(0 0.00068557938 0.129731)
(0 -0.00045649256 0.11789881)
(0 0.00625788 0.34903203)
(0 0.017528471 0.51074057)
(0 0.022852192 0.57110658)
(0 0.022591962 0.57109775)
(0 0.020575052 0.55697112)
(0 0.018770312 0.5464534)
(0 0.017267622 0.5398728)
(0 0.015853186 0.53511444)
(0 0.01446213 0.53131043)
(0 0.013094247 0.52820295)
(0 0.011749761 0.52565564)
(0 0.010428474 0.52356464)
(0 0.0091295686 0.52185143)
(0 0.0078516929 0.52045748)
(0 0.0065930881 0.51933885)
(0 0.0053515071 0.51846249)
(0 0.0041243032 0.51780383)
(0 0.0029085122 0.51734518)
(0 0.0017009393 0.51707466)
(0 0.00049823919 0.5169855)
(0 -0.00070297189 0.51707574)
(0 -0.0019060676 0.51734808)
(0 -0.0031142815 0.51781009)
(0 -0.0043306568 0.51847454)
(0 -0.0055579194 0.51936022)
(0 -0.0067984045 0.52049306)
(0 -0.0080539331 0.52190793)
(0 -0.0093257855 0.52365131)
(0 -0.010614641 0.52578536)
(0 -0.011920285 0.52839264)
(0 -0.013242276 0.5315814)
(0 -0.014578488 0.53553255)
(0 -0.015959855 0.5408103)
(0 -0.017515437 0.54897834)
(0 -0.019254518 0.56052012)
(0 -0.019975728 0.56266922)
(0 -0.016295052 0.51402812)
(0 -0.0067133223 0.3649875)
(0 0.00058474604 0.1265978)
(0 -0.00032787072 0.11542357)
(0 0.0055781151 0.34068869)
(0 0.016147423 0.50318069)
(0 0.02167549 0.56863451)
(0 0.021840051 0.57212771)
(0 0.02000802 0.55879148)
(0 0.018260185 0.54805954)
(0 0.016810725 0.5412985)
(0 0.015458238 0.53648441)
(0 0.014128326 0.53265869)
(0 0.012816097 0.52953153)
(0 0.011521412 0.5269642)
(0 0.010244275 0.52485362)
(0 0.0089841087 0.52312167)
(0 0.0077400205 0.52171019)
(0 0.0065108349 0.52057566)
(0 0.0052949726 0.51968544)
(0 0.004090511 0.51901531)
(0 0.0028952408 0.51854784)
(0 0.0017067418 0.51827134)
(0 0.0005224515 0.51817915)
(0 -0.00066022624 0.5182693)
(0 -0.0018438734 0.51854443)
(0 -0.0030309377 0.51901193)
(0 -0.004223683 0.51968434)
(0 -0.0054240724 0.52058007)
(0 -0.0066337097 0.52172463)
(0 -0.0078537424 0.52315239)
(0 -0.0090848564 0.52490929)
(0 -0.010327289 0.52705689)
(0 -0.011580501 0.52967692)
(0 -0.012844019 0.53287804)
(0 -0.014117952 0.53685828)
(0 -0.01543902 0.54224493)
(0 -0.016934103 0.55057798)
(0 -0.018533749 0.56160869)
(0 -0.018917102 0.56096661)
(0 -0.015005559 0.50754242)
(0 -0.0058823554 0.35675818)
(0 0.00048037662 0.12386282)
(0 -0.00022319111 0.11315985)
(0 0.0050385248 0.33304664)
(0 0.014925309 0.49584819)
(0 0.020586508 0.56590644)
(0 0.021126754 0.5728868)
(0 0.019477986 0.56049604)
(0 0.017784298 0.549614)
(0 0.016377223 0.54267167)
(0 0.015076699 0.53779733)
(0 0.013800296 0.53395216)
(0 0.012537928 0.53080991)
(0 0.011288826 0.52822748)
(0 0.010052993 0.52610217)
(0 0.0088299124 0.52435605)
(0 0.0076189659 0.52293121)
(0 0.0064193777 0.52178443)
(0 0.0052300665 0.52088339)
(0 0.0040496773 0.52020416)
(0 0.0028766123 0.51972957)
(0 0.0017090914 0.51944807)
(0 0.00054520891 0.5193531)
(0 -0.00061696816 0.51944269)
(0 -0.0017793552 0.51971941)
(0 -0.0029437452 0.5201905)
(0 -0.0041117623 0.52086825)
(0 -0.0052847601 0.52177077)
(0 -0.0064637805 0.52292318)
(0 -0.0076494834 0.52435943)
(0 -0.0088421641 0.52612504)
(0 -0.01004183 0.52828114)
(0 -0.011247846 0.53090889)
(0 -0.012459982 0.53411853)
(0 -0.013681058 0.53812843)
(0 -0.014953029 0.54362443)
(0 -0.016395176 0.55207946)
(0 -0.017861332 0.56247239)
(0 -0.017943635 0.55901404)
(0 -0.013868387 0.5011994)
(0 -0.0052223074 0.34919055)
(0 0.00038167633 0.12143125)
(0 -0.00014092504 0.11106426)
(0 0.004601454 0.32602123)
(0 0.013839453 0.48876035)
(0 0.019576582 0.56297386)
(0 0.020447954 0.57339679)
(0 0.018980745 0.56208768)
(0 0.01734067 0.55112273)
(0 0.015967825 0.54400144)
(0 0.014710903 0.53906138)
(0 0.013481313 0.53519719)
(0 0.012263579 0.53204296)
(0 0.011056084 0.52944903)
(0 0.0098586846 0.52731264)
(0 0.0086708159 0.52555594)
(0 0.0074919968 0.52412105)
(0 0.0063217095 0.52296496)
(0 0.005159234 0.52205559)
(0 0.00400365 0.52136925)
(0 0.0028538449 0.52088894)
(0 0.0017085588 0.52060326)
(0 0.00056642504 0.52050573)
(0 -0.00057394029 0.52059438)
(0 -0.0017139024 0.52087171)
(0 -0.0028547202 0.52134482)
(0 -0.0039975034 0.5220258)
(0 -0.0051431303 0.52293248)
(0 -0.0062922236 0.52408967)
(0 -0.0074451072 0.52553099)
(0 -0.0086018428 0.52730166)
(0 -0.0097623597 0.52946255)
(0 -0.010926092 0.53209454)
(0 -0.012093258 0.53531072)
(0 -0.013269656 0.53935246)
(0 -0.014501639 0.54495711)
(0 -0.015896019 0.55348888)
(0 -0.017233602 0.56313118)
(0 -0.017048756 0.5568604)
(0 -0.012863099 0.49502573)
(0 -0.0046946335 0.34221386)
(0 0.00029347435 0.11923326)
(0 -7.8163058e-05 0.10910775)
(0 0.0042394879 0.31953833)
(0 0.012870577 0.48192501)
(0 0.0186375 0.55987945)
(0 0.019799952 0.57367761)
(0 0.018512139 0.56356827)
(0 0.016926661 0.55258943)
(0 0.015582194 0.54529502)
(0 0.014361984 0.54028347)
(0 0.013173421 0.53639937)
(0 0.011995694 0.53323507)
(0 0.010826153 0.53063221)
(0 0.0096644127 0.52848746)
(0 0.0085097922 0.52672288)
(0 0.0073618552 0.52528054)
(0 0.0062202355 0.52411749)
(0 0.0050844648 0.5232018)
(0 0.0039539486 0.52250994)
(0 0.0028279512 0.52202508)
(0 0.0017056268 0.52173591)
(0 0.00058604452 0.52163602)
(0 -0.00053173565 0.52172343)
(0 -0.0016486338 0.5220006)
(0 -0.0027654801 0.52247448)
(0 -0.0038829809 0.52315699)
(0 -0.0050016532 0.52406577)
(0 -0.0061218181 0.52522536)
(0 -0.0072435823 0.52666916)
(0 -0.0083668915 0.52844222)
(0 -0.0094917015 0.53060528)
(0 -0.010617628 0.53323927)
(0 -0.011745484 0.53646147)
(0 -0.012884145 0.54053813)
(0 -0.014083315 0.54624912)
(0 -0.015433181 0.55481081)
(0 -0.016646326 0.56360297)
(0 -0.016225041 0.55454596)
(0 -0.011971213 0.48903728)
(0 -0.0042683994 0.33576336)
(0 0.00021775385 0.11721822)
(0 -3.1538796e-05 0.10727071)
(0 0.0039330598 0.31353376)
(0 0.012002492 0.47534363)
(0 0.017761923 0.55665879)
(0 0.019179636 0.57374759)
(0 0.018068349 0.5649391)
(0 0.016539407 0.55401609)
(0 0.015219365 0.54655788)
(0 0.014030264 0.54146938)
(0 0.012877771 0.53756353)
(0 0.011736009 0.53439016)
(0 0.010601129 0.53178012)
(0 0.0094724333 0.52962898)
(0 0.0083490988 0.52785856)
(0 0.0072306699 0.52641075)
(0 0.0061168545 0.52524257)
(0 0.005007352 0.52432214)
(0 0.0039018042 0.52362607)
(0 0.0027997621 0.52313759)
(0 0.0017007027 0.52284551)
(0 0.00060404028 0.52274344)
(0 -0.00049081306 0.52282939)
(0 -0.0015844246 0.52310578)
(0 -0.0026772881 0.52357946)
(0 -0.0037698008 0.52426222)
(0 -0.0048622138 0.5251715)
(0 -0.00595464 0.52633171)
(0 -0.007047061 0.52777609)
(0 -0.0081393899 0.52954965)
(0 -0.0092316755 0.53171312)
(0 -0.01032379 0.53434786)
(0 -0.011417246 0.5375766)
(0 -0.012523948 0.5416917)
(0 -0.01369577 0.54750481)
(0 -0.015002895 0.5560487)
(0 -0.016095209 0.56390374)
(0 -0.015465016 0.55210387)
(0 -0.011176545 0.48324218)
(0 -0.0039193709 0.32978093)
(0 0.00015471956 0.1153498)
(0 2.2297624e-06 0.10553951)
(0 0.0036684106 0.30795231)
(0 0.011221685 0.46901339)
(0 0.016943519 0.55334171)
(0 0.018584494 0.57362371)
(0 0.017646035 0.56620126)
(0 0.01617608 0.55540347)
(0 0.01487803 0.54779413)
(0 0.013715533 0.54262387)
(0 0.012594891 0.53869381)
(0 0.011485585 0.53551166)
(0 0.010382429 0.53289559)
(0 0.0092843626 0.53073945)
(0 0.0081904112 0.52896467)
(0 0.007100061 0.52751288)
(0 0.0060130396 0.52634096)
(0 0.00492915 0.52541705)
(0 0.0038481994 0.52471777)
(0 0.0027699511 0.52422644)
(0 0.0016941281 0.52393191)
(0 0.00062041175 0.52382781)
(0 -0.00045151209 0.52391216)
(0 -0.0015219372 0.52418732)
(0 -0.0025911005 0.52466008)
(0 -0.0036591683 0.5253421)
(0 -0.004726203 0.52625073)
(0 -0.0057921833 0.52741026)
(0 -0.0068570328 0.52885389)
(0 -0.0079206903 0.53062667)
(0 -0.0089833349 0.53278948)
(0 -0.01004514 0.53542445)
(0 -0.0111084 0.53866104)
(0 -0.012187875 0.54281807)
(0 -0.013336353 0.54872708)
(0 -0.014601423 0.5572051)
(0 -0.015576211 0.56404782)
(0 -0.01476165 0.54956151)
(0 -0.010465231 0.47764314)
(0 -0.0036289436 0.32421508)
(0 0.00010354118 0.11360208)
(0 2.6062083e-05 0.1039042)
(0 0.0034359486 0.30274666)
(0 0.010516874 0.4629287)
(0 0.016176922 0.54995343)
(0 0.018012557 0.57332183)
(0 0.017242377 0.5673559)
(0 0.01583404 0.55675146)
(0 0.01455673 0.54900674)
(0 0.01341725 0.54375089)
(0 0.012324878 0.53979374)
(0 0.011244996 0.5366026)
(0 0.010170961 0.53398117)
(0 0.009101317 0.53182094)
(0 0.0080349394 0.53004286)
(0 0.0069712341 0.52858818)
(0 0.0059099114 0.52741359)
(0 0.0048508302 0.52648713)
(0 0.0037939077 0.52578544)
(0 0.0027390591 0.52529186)
(0 0.0016861896 0.52499526)
(0 0.0006351823 0.52488928)
(0 -0.00041406941 0.52497194)
(0 -0.0014616527 0.52524555)
(0 -0.0025076137 0.52571685)
(0 -0.0035519524 0.52639744)
(0 -0.0045946038 0.52730459)
(0 -0.0056354686 0.52846255)
(0 -0.0066744609 0.52990455)
(0 -0.0077115826 0.53167578)
(0 -0.0087471606 0.53383737)
(0 -0.0097816962 0.53647262)
(0 -0.010818316 0.53971884)
(0 -0.011874383 0.54392101)
(0 -0.013002315 0.54991767)
(0 -0.014225255 0.558282)
(0 -0.015085714 0.56404806)
(0 -0.014108606 0.54694152)
(0 -0.0098255576 0.47223913)
(0 -0.0033830754 0.31902064)
(0 6.2859746e-05 0.11195659)
(0 4.2407051e-05 0.10235705)
(0 0.0032289949 0.29787622)
(0 0.0098786054 0.45708218)
(0 0.015457615 0.54651528)
(0 0.017462302 0.57285681)
(0 0.016855054 0.56840437)
(0 0.015510909 0.55805939)
(0 0.01425397 0.55019777)
(0 0.013134684 0.54485362)
(0 0.012067544 0.54086634)
(0 0.011014462 0.53766559)
(0 0.0099672515 0.53503913)