/*--------------------------------*- C++ -*----------------------------------*\
  =========                 |
  \\      /  F ield         | OpenFOAM: The Open Source CFD Toolbox
   \\    /   O peration     | Website:  https://openfoam.org
    \\  /    A nd           | Version:  10
     \\/     M anipulation  |
\*---------------------------------------------------------------------------*/
FoamFile
{
    format      ascii;
    class       volVectorField;
    location    "0.3";
    object      U_0;
}
// * * * * * * * * * * * * * * * * * * * * * * * * * * * * * * * * * * * * * //

dimensions      [0 1 -1 0 0 0 0];

internalField   nonuniform List<vector> 
4000
(
(0 0.018637466 0.47773157)
(0 0.02351001 0.50886061)
(0 0.0081668557 0.50052521)
(0 0.0056146139 0.50033634)
(0 0.0042546253 0.50025746)
(0 0.0032549374 0.50016898)
(0 0.0025560788 0.50011969)
(0 0.002054565 0.50009013)
(0 0.0016765567 0.50006981)
(0 0.0013822108 0.50005539)
(0 0.0011471549 0.50004499)
(0 0.0009550503 0.50003733)
(0 0.00079464289 0.5000316)
(0 0.00065795707 0.50002727)
(0 0.00053916463 0.50002399)
(0 0.000433885 0.50002151)
(0 0.00033873098 0.50001967)
(0 0.00025100074 0.50001834)
(0 0.00016846173 0.50001745)
(0 8.9192211e-05 0.50001694)
(0 1.1458863e-05 0.50001679)
(0 -6.6390162e-05 0.50001699)
(0 -0.00014601693 0.50001755)
(0 -0.00022918589 0.5000185)
(0 -0.00031787437 0.50001991)
(0 -0.00041440334 0.50002185)
(0 -0.00052160913 0.50002447)
(0 -0.00064308277 0.50002793)
(0 -0.00078351783 0.50003252)
(0 -0.00094924017 0.50003863)
(0 -0.0011490593 0.50004688)
(0 -0.0013956331 0.50005824)
(0 -0.001707708 0.50007414)
(0 -0.0021156324 0.50009709)
(0 -0.00267532 0.50013481)
(0 -0.0034688792 0.50020237)
(0 -0.0045610855 0.50027142)
(0 -0.0065852627 0.50043363)
(0 -0.017659701 0.50675409)
(0 -0.013590251 0.47975557)
(0 0.037432707 0.44796925)
(0 0.050955775 0.53232616)
(0 0.021969334 0.5080429)
(0 0.01613565 0.50357319)
(0 0.012416082 0.50242317)
(0 0.0095159418 0.50162301)
(0 0.007520594 0.50115663)
(0 0.0060698485 0.50086594)
(0 0.0049645076 0.50066803)
(0 0.0041000392 0.50052903)
(0 0.0034074931 0.50042907)
(0 0.0028399221 0.50035557)
(0 0.0023649529 0.50030068)
(0 0.0019595019 0.50025928)
(0 0.0016066095 0.50022793)
(0 0.0012934808 0.50020427)
(0 0.0010101915 0.50018667)
(0 0.00074880424 0.500174)
(0 0.00050274541 0.50016549)
(0 0.00026634614 0.50016065)
(0 3.4486497e-05 0.50015922)
(0 -0.00019771222 0.50016112)
(0 -0.00043515863 0.50016647)
(0 -0.00068306246 0.50017557)
(0 -0.00094725333 0.50018898)
(0 -0.0012345599 0.50020754)
(0 -0.0015533054 0.50023247)
(0 -0.0019139957 0.50026558)
(0 -0.0023303108 0.5003095)
(0 -0.0028205901 0.5003681)
(0 -0.0034102078 0.50044735)
(0 -0.0041355392 0.5005567)
(0 -0.0050496621 0.50071125)
(0 -0.0062324406 0.50093658)
(0 -0.0078327579 0.50129435)
(0 -0.010126399 0.50191048)
(0 -0.01310746 0.50282503)
(0 -0.017426835 0.50608113)
(0 -0.038759576 0.52526814)
(0 -0.027894933 0.45021613)
(0 0.039888309 0.40982051)
(0 0.061428202 0.54930816)
(0 0.031983821 0.52188198)
(0 0.02435556 0.51008057)
(0 0.019193679 0.5065886)
(0 0.014977198 0.50452812)
(0 0.012006744 0.50327145)
(0 0.0097719135 0.50245845)
(0 0.008036464 0.50190114)
(0 0.0066647504 0.50150878)
(0 0.0055565525 0.50122557)
(0 0.0046423366 0.50101682)
(0 0.0038733654 0.50086068)
(0 0.0032142438 0.50074277)
(0 0.0026386383 0.50065339)
(0 0.0021264966 0.50058587)
(0 0.0016621426 0.50053561)
(0 0.0012329573 0.5004994)
(0 0.0008284345 0.50047508)
(0 0.00043947636 0.50046126)
(0 5.7842486e-05 0.50045716)
(0 -0.00032432758 0.5004626)
(0 -0.0007149414 0.50047787)
(0 -0.0011223773 0.50050389)
(0 -0.0015559794 0.50054218)
(0 -0.0020266411 0.50059514)
(0 -0.00254756 0.50066625)
(0 -0.0031352677 0.5007606)
(0 -0.0038110933 0.50088558)
(0 -0.0046032752 0.50105212)
(0 -0.0055501671 0.50127674)
(0 -0.0067057482 0.50158558)
(0 -0.0081472179 0.50202075)
(0 -0.0099786631 0.50265065)
(0 -0.012372899 0.50361498)
(0 -0.01571788 0.50519905)
(0 -0.019874189 0.50785375)
(0 -0.025187844 0.51641214)
(0 -0.047418274 0.53912714)
(0 -0.03085417 0.41487919)
(0 0.034791627 0.36172997)
(0 0.06383903 0.55456333)
(0 0.039380535 0.5374714)
(0 0.030083491 0.51849266)
(0 0.024112692 0.51197736)
(0 0.019279651 0.50849953)
(0 0.015736185 0.50626436)
(0 0.012954136 0.50475557)
(0 0.010743541 0.50370457)
(0 0.0089677104 0.50295629)
(0 0.0075136129 0.50241126)
(0 0.0063015848 0.50200699)
(0 0.005273822 0.50170321)
(0 0.0043870687 0.50147299)
(0 0.0036085092 0.50129799)
(0 0.0029127614 0.50116551)
(0 0.0022797202 0.50106671)
(0 0.0016930267 0.50099545)
(0 0.0011389416 0.50094753)
(0 0.00060548697 0.50092027)
(0 8.1763449e-05 0.50091219)
(0 -0.00044264816 0.50092288)
(0 -0.00097822734 0.50095297)
(0 -0.0015360427 0.50100417)
(0 -0.0021283717 0.50107947)
(0 -0.0027694185 0.50118346)
(0 -0.0034762205 0.50132284)
(0 -0.0042698536 0.5015073)
(0 -0.0051770957 0.50175083)
(0 -0.0062327244 0.50207391)
(0 -0.0074826061 0.50250703)
(0 -0.0089889709 0.50309716)
(0 -0.010839187 0.50391903)
(0 -0.013139811 0.50508901)
(0 -0.016026501 0.50680659)
(0 -0.019901822 0.50946714)
(0 -0.024733634 0.51427449)
(0 -0.031115536 0.52824678)
(0 -0.05032142 0.54407129)
(0 -0.028439017 0.37237887)
(0 0.027424312 0.3148431)
(0 0.062315035 0.5502406)
(0 0.044614762 0.55146771)
(0 0.033982207 0.52748822)
(0 0.027464196 0.51772253)
(0 0.022455249 0.51291996)
(0 0.018636809 0.50973159)
(0 0.015528069 0.50749282)
(0 0.013006049 0.50590016)
(0 0.010941923 0.50474715)
(0 0.0092243122 0.50389641)
(0 0.0077743634 0.50325946)
(0 0.0065320916 0.50277741)
(0 0.0054510727 0.50241003)
(0 0.0044952594 0.50212954)
(0 0.0036361872 0.50191647)
(0 0.0028509135 0.50175714)
(0 0.0021205003 0.50164198)
(0 0.0014288549 0.50156442)
(0 0.0007618189 0.50152023)
(0 0.00010642921 0.5015071)
(0 -0.00054974314 0.50152438)
(0 -0.0012191955 0.50157305)
(0 -0.0019150724 0.50165582)
(0 -0.0026518504 0.50177735)
(0 -0.0034461072 0.5019448)
(0 -0.0043174681 0.50216858)
(0 -0.0052898163 0.50246356)
(0 -0.006392901 0.50285102)
(0 -0.0076644961 0.50336157)
(0 -0.0091528634 0.50403989)
(0 -0.010920438 0.50495248)
(0 -0.013054055 0.50620218)
(0 -0.015657506 0.50794386)
(0 -0.018818645 0.51040389)
(0 -0.022898975 0.51405429)
(0 -0.02817997 0.52114494)
(0 -0.035710114 0.53932615)
(0 -0.050478904 0.54155394)
(0 -0.024087025 0.33055538)
(0 0.019837967 0.27519753)
(0 0.057990228 0.53974645)
(0 0.0473642 0.56256484)
(0 0.036477928 0.53660469)
(0 0.029636376 0.52350727)
(0 0.02467632 0.51740349)
(0 0.020774363 0.51336325)
(0 0.017509809 0.51044483)
(0 0.014814159 0.50832455)
(0 0.012566485 0.50676221)
(0 0.010665261 0.50559322)
(0 0.0090384955 0.50470848)
(0 0.007628573 0.50403304)
(0 0.0063896336 0.50351469)
(0 0.0052852195 0.50311671)
(0 0.0042858635 0.50281306)
(0 0.0033673388 0.5025852)
(0 0.0025093109 0.50242005)
(0 0.0016942577 0.5023086)
(0 0.00090659459 0.502245)
(0 0.00013194675 0.50222604)
(0 -0.00064351683 0.50225082)
(0 -0.0014336986 0.5023207)
(0 -0.0022531507 0.50243941)
(0 -0.0031177663 0.50261338)
(0 -0.0040455299 0.50285242)
(0 -0.0050574145 0.50317065)
(0 -0.0061784836 0.50358808)
(0 -0.0074392843 0.50413288)
(0 -0.0088777432 0.504845)
(0 -0.010541124 0.50578144)
(0 -0.012487718 0.50702449)
(0 -0.014797738 0.50869731)
(0 -0.017572964 0.51098152)
(0 -0.020867373 0.51411949)
(0 -0.024977245 0.51872955)
(0 -0.030512014 0.52822935)
(0 -0.038633574 0.54872366)
(0 -0.048511442 0.5339823)
(0 -0.019067795 0.29393524)
(0 0.013083248 0.24255458)
(0 0.051799098 0.52520043)
(0 0.047709933 0.5702486)
(0 0.037757508 0.54552513)
(0 0.030850795 0.52928883)
(0 0.026073856 0.52180192)
(0 0.022238232 0.51699824)
(0 0.01895385 0.51347385)
(0 0.016193526 0.51086539)
(0 0.013849454 0.50891295)
(0 0.011835139 0.50743321)
(0 0.010087998 0.50630115)
(0 0.0085554112 0.50542902)
(0 0.0071946306 0.50475467)
(0 0.0059708594 0.50423373)
(0 0.0048552821 0.50383428)
(0 0.0038237139 0.50353334)
(0 0.002855486 0.50331455)
(0 0.0019325138 0.50316653)
(0 0.0010385172 0.50308191)
(0 0.00015835614 0.50305658)
(0 -0.00072259378 0.50308941)
(0 -0.0016190278 0.50318211)
(0 -0.0025462477 0.50333941)
(0 -0.0035208157 0.50356944)
(0 -0.0045612332 0.5038845)
(0 -0.0056887356 0.50430218)
(0 -0.0069282342 0.50484711)
(0 -0.0083094315 0.50555355)
(0 -0.0098683957 0.50646929)
(0 -0.01164932 0.50766148)
(0 -0.013704447 0.50922497)
(0 -0.016103285 0.51129774)
(0 -0.018941123 0.51407913)
(0 -0.022249327 0.51783796)
(0 -0.026268732 0.52346709)
(0 -0.031852417 0.53537468)
(0 -0.039763577 0.55589611)
(0 -0.044897053 0.52282015)
(0 -0.014091517 0.26264081)
(0 0.0077701894 0.21554069)
(0 0.04482615 0.50800975)
(0 0.046256123 0.57438095)
(0 0.03803594 0.55375156)
(0 0.031288443 0.53496083)
(0 0.026768824 0.52603066)
(0 0.023117078 0.52053887)
(0 0.019921039 0.51648876)
(0 0.017182158 0.51344223)
(0 0.01481322 0.51113129)
(0 0.012745797 0.50936022)
(0 0.01092784 0.50799175)
(0 0.0093134476 0.50692826)
(0 0.0078646556 0.50609984)
(0 0.0065497233 0.50545588)
(0 0.0053416976 0.50495954)
(0 0.0042174718 0.50458403)
(0 0.0031569191 0.50431011)
(0 0.002142141 0.50412432)
(0 0.0011568174 0.50401787)
(0 0.00018563775 0.50398587)
(0 -0.00078624882 0.50402693)
(0 -0.0017737615 0.50414313)
(0 -0.0027923504 0.50434009)
(0 -0.0038585825 0.50462746)
(0 -0.004990717 0.50501976)
(0 -0.0062093685 0.5055376)
(0 -0.0075382714 0.50620958)
(0 -0.0090051055 0.50707502)
(0 -0.010642663 0.50818808)
(0 -0.012490522 0.50962402)
(0 -0.014593812 0.51148787)
(0 -0.017008731 0.51392853)
(0 -0.019816936 0.51715472)
(0 -0.023034384 0.5214795)
(0 -0.026883642 0.52818188)
(0 -0.032355559 0.54221988)
(0 -0.039408101 0.56050107)
(0 -0.040331577 0.50907933)
(0 -0.0097088975 0.23585171)
(0 0.0040050316 0.19355587)
(0 0.037899908 0.48948671)
(0 0.043687839 0.57524018)
(0 0.037564809 0.56084548)
(0 0.031155032 0.5403616)
(0 0.026914894 0.53001191)
(0 0.023514705 0.52390245)
(0 0.020480739 0.51941336)
(0 0.017826979 0.51598869)
(0 0.015489463 0.5133599)
(0 0.013417866 0.51132518)
(0 0.011570841 0.50973866)
(0 0.0099102276 0.50849569)
(0 0.0084037947 0.50752061)
(0 0.0070237168 0.50675804)
(0 0.0057457266 0.50616726)
(0 0.0045485461 0.50571841)
(0 0.0034132609 0.50538988)
(0 0.0023227613 0.50516646)
(0 0.0012612365 0.50503815)
(0 0.00021371726 0.50499937)
(0 -0.00083437903 0.50504856)
(0 -0.0018976992 0.50518806)
(0 -0.002991326 0.50542427)
(0 -0.0041312767 0.50576816)
(0 -0.0053349598 0.50623608)
(0 -0.0066216907 0.50685115)
(0 -0.0080132745 0.50764516)
(0 -0.0095345625 0.50866148)
(0 -0.01121415 0.50995916)
(0 -0.013085898 0.51161954)
(0 -0.015187322 0.51375528)
(0 -0.017561057 0.51652213)
(0 -0.020271246 0.52013114)
(0 -0.023325749 0.52496254)
(0 -0.026966619 0.53273924)
(0 -0.032208227 0.54839027)
(0 -0.038000209 0.56254201)
(0 -0.035418296 0.49378658)
(0 -0.006201268 0.21324504)
(0 0.0015511786 0.17613284)
(0 0.03150006 0.47076109)
(0 0.040533274 0.57338579)
(0 0.036559993 0.56659896)
(0 0.030638265 0.54537904)
(0 0.026672459 0.53370524)
(0 0.02354374 0.52703306)
(0 0.020710864 0.52218936)
(0 0.018183172 0.51845232)
(0 0.015917196 0.51555226)
(0 0.013878513 0.51328702)
(0 0.012035689 0.51150597)
(0 0.010358431 0.51010007)
(0 0.0088204827 0.50898981)
(0 0.0073983185 0.50811648)
(0 0.0060708271 0.50743654)
(0 0.0048190383 0.50691783)
(0 0.0036257164 0.50653687)
(0 0.0024749877 0.5062771)
(0 0.0013519782 0.50612755)
(0 0.0002424717 0.50608209)
(0 -0.00086744208 0.50613901)
(0 -0.0019917321 0.50630086)
(0 -0.0031446994 0.50657469)
(0 -0.0043413805 0.50697249)
(0 -0.0055978806 0.50751209)
(0 -0.0069317416 0.50821852)
(0 -0.0083623474 0.50912602)
(0 -0.009911263 0.51028087)
(0 -0.011602493 0.51174565)
(0 -0.013463757 0.5136057)
(0 -0.015525118 0.51597849)
(0 -0.017817202 0.51902259)
(0 -0.020386945 0.52294897)
(0 -0.023241585 0.52823461)
(0 -0.026661652 0.53703962)
(0 -0.031571691 0.55365855)
(0 -0.035910852 0.56230559)
(0 -0.030556774 0.47788317)
(0 -0.0035916334 0.19460111)
(0 7.6799759e-05 0.16252418)
(0 0.025870891 0.45259953)
(0 0.037160664 0.56943327)
(0 0.035192444 0.57098946)
(0 0.029878327 0.54996367)
(0 0.026174558 0.53711467)
(0 0.023306561 0.52991333)
(0 0.020687927 0.52478533)
(0 0.018308131 0.52079945)
(0 0.016138798 0.51767546)
(0 0.014158636 0.51521481)
(0 0.012344791 0.51326531)
(0 0.010674188 0.51171574)
(0 0.009126215 0.51048439)
(0 0.0076816221 0.5095105)
(0 0.006322606 0.50874867)
(0 0.0050327336 0.50816517)
(0 0.0037967218 0.50773524)
(0 0.0026002286 0.50744127)
(0 0.0014296201 0.50727161)
(0 0.00027173739 0.50721972)
(0 -0.00088635151 0.50728374)
(0 -0.0020576309 0.50746642)
(0 -0.003255314 0.50777527)
(0 -0.0044931505 0.50822305)
(0 -0.0057856446 0.50882867)
(0 -0.0071482871 0.50961852)
(0 -0.0085978008 0.51062849)
(0 -0.010152323 0.51190682)
(0 -0.011831336 0.51351825)
(0 -0.013656628 0.51555041)
(0 -0.01565141 0.51812308)
(0 -0.017836316 0.52139444)
(0 -0.020243716 0.52557892)
(0 -0.022887198 0.53128156)
(0 -0.026084863 0.54103048)
(0 -0.030576535 0.55793378)
(0 -0.033433325 0.56018697)
(0 -0.025998818 0.46205805)
(0 -0.0017657017 0.17946018)
(0 -0.00071790519 0.15190646)
(0 0.02110858 0.43543383)
(0 0.033820361 0.56393155)
(0 0.033605217 0.5740898)
(0 0.028975901 0.5540948)
(0 0.025520759 0.54026447)
(0 0.022886812 0.53255375)
(0 0.02047889 0.52719329)
(0 0.018254874 0.52301401)
(0 0.016195362 0.51970993)
(0 0.014289628 0.51708774)
(0 0.012521914 0.51499604)
(0 0.010875325 0.51332292)
(0 0.009334232 0.51198575)
(0 0.0078833527 0.51092274)
(0 0.006508092 0.5100875)
(0 0.0051945782 0.50944536)
(0 0.0039295882 0.50897072)
(0 0.002700469 0.50864534)
(0 0.0014950126 0.50845706)
(0 0.00030131899 0.50839907)
(0 -0.00089235777 0.50846942)
(0 -0.002097808 0.50867099)
(0 -0.0033269558 0.5090116)
(0 -0.0045920775 0.50950454)
(0 -0.005905919 0.5101694)
(0 -0.0072818146 0.51103345)
(0 -0.0087337977 0.51213356)
(0 -0.010276679 0.51351904)
(0 -0.011925771 0.51525573)
(0 -0.013697521 0.51743229)
(0 -0.015609081 0.52016887)
(0 -0.017672917 0.52362137)
(0 -0.01991049 0.52801549)
(0 -0.022347999 0.53410954)
(0 -0.025327205 0.54468084)
(0 -0.029337921 0.56120652)
(0 -0.030799182 0.5565813)
(0 -0.021898016 0.44674949)
(0 -0.00056513574 0.16723504)
(0 -0.0010700284 0.14358235)
(0 0.017203987 0.41947814)
(0 0.030667973 0.55733991)
(0 0.031916237 0.57602114)
(0 0.028005068 0.5577648)
(0 0.02478461 0.54318049)
(0 0.022350955 0.53497704)
(0 0.020139401 0.52941913)
(0 0.01806918 0.52509199)
(0 0.01612392 0.52164625)
(0 0.014301002 0.51889334)
(0 0.012590273 0.51668412)
(0 0.010979877 0.51490703)
(0 0.0094583774 0.51347936)
(0 0.0080139979 0.51233907)
(0 0.0066350854 0.51143942)
(0 0.0053102056 0.51074531)
(0 0.0040281727 0.51023072)
(0 0.0027780653 0.50987705)
(0 0.001549185 0.50967187)
(0 0.00033099865 0.50960818)
(0 -0.00088693493 0.50968399)
(0 -0.0021150929 0.50990225)
(0 -0.0033640034 0.51027097)
(0 -0.0046443868 0.51080372)
(0 -0.0059671898 0.51152048)
(0 -0.0073436186 0.51244896)
(0 -0.0087851412 0.51362645)
(0 -0.010303496 0.51510267)
(0 -0.011910321 0.51694378)
(0 -0.01361749 0.51923853)
(0 -0.015437 0.5221061)
(0 -0.017374836 0.52569943)
(0 -0.01944559 0.53026566)
(0 -0.021692955 0.53673027)
(0 -0.024461917 0.54797056)
(0 -0.027957553 0.5635206)
(0 -0.028179007 0.5518503)
(0 -0.018328545 0.43222216)
(0 0.00016849732 0.15737967)
(0 -0.001153131 0.13700045)
(0 0.014079628 0.4048128)
(0 0.027783555 0.55003265)
(0 0.030213555 0.57693095)
(0 0.027018249 0.56098013)
(0 0.024019111 0.54588672)
(0 0.021750877 0.53721019)
(0 0.019714661 0.531476)
(0 0.017789394 0.52703664)
(0 0.015956584 0.52348186)
(0 0.014219235 0.5206252)
(0 0.012571373 0.51832071)
(0 0.011005058 0.5164578)
(0 0.0095122436 0.51495423)
(0 0.0080841216 0.51374824)
(0 0.0067116243 0.51279317)
(0 0.0053855373 0.51205388)
(0 0.0040965972 0.51150426)
(0 0.0028355684 0.51112559)
(0 0.0015932636 0.51090531)
(0 0.00036054562 0.51083636)
(0 -0.00087167984 0.51091672)
(0 -0.0021125345 0.51114935)
(0 -0.0033711232 0.51154235)
(0 -0.0046566122 0.5121094)
(0 -0.0059781977 0.51287059)
(0 -0.0073450793 0.51385373)
(0 -0.0087663835 0.51509613)
(0 -0.010251128 0.51664742)
(0 -0.011807828 0.51857352)
(0 -0.013444619 0.52096262)
(0 -0.01516933 0.52393205)
(0 -0.016983121 0.52763231)
(0 -0.018897615 0.53234315)
(0 -0.020976645 0.53915789)
(0 -0.023546213 0.55089317)
(0 -0.026517914 0.56495856)
(0 -0.025684063 0.54631174)
(0 -0.015302058 0.41862403)
(0 0.00057332963 0.14943127)
(0 -0.0010855427 0.13172098)
(0 0.011624856 0.3914291)
(0 0.02519495 0.54230345)
(0 0.028555994 0.57697349)
(0 0.026048851 0.56376047)
(0 0.023259635 0.54840602)
(0 0.021125109 0.53928167)
(0 0.019240124 0.53338129)
(0 0.017446751 0.52885593)
(0 0.015720418 0.52521886)
(0 0.014067334 0.52228139)
(0 0.01248442 0.51990104)
(0 0.010966653 0.51796857)
(0 0.009508599 0.51640249)
(0 0.0081038662 0.51514162)
(0 0.006745576 0.51413972)
(0 0.005426465 0.51336185)
(0 0.0041390175 0.51278206)
(0 0.002875576 0.51238164)
(0 0.0016284032 0.51214809)
(0 0.00038972513 0.51207431)
(0 -0.00084822529 0.51215829)
(0 -0.0020932339 0.51240298)
(0 -0.0033530181 0.51281646)
(0 -0.004635255 0.51341237)
(0 -0.0059475041 0.51421074)
(0 -0.0072971413 0.5152392)
(0 -0.0086912345 0.5165348)
(0 -0.010136481 0.51814673)
(0 -0.01163885 0.52014032)
(0 -0.013203548 0.52260278)
(0 -0.014835233 0.52564911)
(0 -0.016531827 0.52942917)
(0 -0.018305296 0.53426611)
(0 -0.020239721 0.54140902)
(0 -0.02262166 0.55345628)
(0 -0.025080081 0.56562485)
(0 -0.023377051 0.54023144)
(0 -0.012788941 0.40601693)
(0 0.00075847217 0.14299553)
(0 -0.00094370328 0.12739834)
(0 0.0097209004 0.37926097)
(0 0.022898712 0.5343727)
(0 0.026978755 0.5762938)
(0 0.025115628 0.56613304)
(0 0.022527428 0.5507591)
(0 0.020500329 0.54121917)
(0 0.018742253 0.53515463)
(0 0.017065749 0.53056088)
(0 0.015437495 0.52686258)
(0 0.013864672 0.5238632)
(0 0.01234605 0.52142343)
(0 0.010878674 0.5194355)
(0 0.0094590305 0.51781881)
(0 0.0080826159 0.51651289)
(0 0.0067443439 0.51547206)
(0 0.0054386124 0.5146618)
(0 0.0041594457 0.51405642)
(0 0.002900617 0.5136374)
(0 0.0016557336 0.51339231)
(0 0.00041830708 0.51331414)
(0 -0.00081816885 0.51340084)
(0 -0.0020602107 0.51365536)
(0 -0.00331423 0.51408568)
(0 -0.0045865257 0.5147053)
(0 -0.0058831758 0.51553404)
(0 -0.0072099521 0.5165992)
(0 -0.0085721715 0.51793736)
(0 -0.009974626 0.51959709)
(0 -0.011421288 0.5216429)
(0 -0.012915179 0.52416085)
(0 -0.014458676 0.5272635)
(0 -0.016047932 0.53110293)
(0 -0.017697778 0.53605499)
(0 -0.019510381 0.54350123)
(0 -0.021716322 0.55567731)
(0 -0.023686084 0.56562946)
(0 -0.021286048 0.53382087)
(0 -0.010736692 0.39440035)
(0 0.00080424218 0.13773907)
(0 -0.00077510215 0.12377144)
(0 0.0082551095 0.36821146)
(0 0.020874577 0.52639983)
(0 0.025499744 0.57501971)
(0 0.024227388 0.56812743)
(0 0.021833657 0.55296294)
(0 0.019893705 0.54304736)
(0 0.018239831 0.53681579)
(0 0.016664858 0.53216399)
(0 0.015125199 0.52842032)
(0 0.013627058 0.52537412)
(0 0.012170245 0.52288844)
(0 0.010753201 0.52085697)
(0 0.0093737445 0.51919994)
(0 0.0080287909 0.51785764)
(0 0.0067146759 0.51678498)
(0 0.0054271721 0.51594794)
(0 0.0041616243 0.51532119)
(0 0.0029130673 0.51488644)
(0 0.001676321 0.51463146)
(0 0.00044607357 0.51454928)
(0 -0.00078301887 0.51463788)
(0 -0.0020163028 0.51490015)
(0 -0.003258997 0.51534394)
(0 -0.0045161609 0.51598256)
(0 -0.0057925702 0.51683549)
(0 -0.0070926256 0.51792961)
(0 -0.0084202007 0.51930095)
(0 -0.0097785775 0.52099736)
(0 -0.011170229 0.5230825)
(0 -0.01259662 0.52564119)
(0 -0.01405861 0.52878384)
(0 -0.015551882 0.53266829)
(0 -0.017095855 0.53773005)
(0 -0.018806888 0.54545099)
(0 -0.020847773 0.55757864)
(0 -0.022362503 0.56507728)
(0 -0.019416177 0.52724196)
(0 -0.009082548 0.38373374)
(0 0.00076714487 0.13338947)
(0 -0.00060772527 0.12065002)
(0 0.0071282934 0.35817165)
(0 0.019094534 0.51849696)
(0 0.024124842 0.5732602)
(0 0.02338661 0.56977299)
(0 0.021182798 0.55503046)
(0 0.019315345 0.54478671)
(0 0.017745578 0.53838311)
(0 0.016257523 0.53367785)
(0 0.014796801 0.52990019)
(0 0.013367028 0.52681891)
(0 0.011968449 0.52429816)
(0 0.010600379 0.52223296)
(0 0.0092614979 0.52054427)
(0 0.0079497484 0.51917302)
(0 0.0066625578 0.51807473)
(0 0.0053968074 0.51721588)
(0 0.0041489466 0.51657152)
(0 0.0029150961 0.51612367)
(0 0.001691143 0.51586026)
(0 0.00047282546 0.51577444)
(0 -0.00074415649 0.51586419)
(0 -0.0019640987 0.51613232)
(0 -0.0031911579 0.51658656)
(0 -0.0044293076 0.51723993)
(0 -0.0056822074 0.5181116)
(0 -0.0069531175 0.51922795)
(0 -0.0082447561 0.52062443)
(0 -0.0095592514 0.52234816)
(0 -0.010898003 0.52446202)
(0 -0.012261434 0.52704961)
(0 -0.013649508 0.53021984)
(0 -0.01505855 0.53414015)
(0 -0.016513556 0.53930982)
(0 -0.018140046 0.54727267)
(0 -0.020025749 0.5591847)
(0 -0.021123819 0.56406301)
(0 -0.017758208 0.52061535)
(0 -0.0077617995 0.37395417)
(0 0.00068559096 0.12973136)
(0 -0.00045649327 0.11789882)
(0 0.00625787 0.34903204)
(0 0.017528453 0.51074056)
(0 0.022852172 0.57110655)
(0 0.022591945 0.57109772)
(0 0.020575042 0.55697108)
(0 0.018770308 0.54645335)
(0 0.017267626 0.53987274)
(0 0.015853197 0.53511438)
(0 0.014462151 0.53131037)
(0 0.013094278 0.52820288)
(0 0.011749802 0.52565557)
(0 0.010428526 0.52356456)
(0 0.0091296318 0.52185135)
(0 0.0078517679 0.5204574)
(0 0.0065931753 0.51933877)
(0 0.0053516065 0.51846241)
(0 0.0041244151 0.51780375)
(0 0.0029086365 0.5173451)
(0 0.0017010759 0.51707458)
(0 0.00049838769 0.51698543)
(0 -0.00070281172 0.51707566)
(0 -0.0019058963 0.51734801)
(0 -0.0031140996 0.51781003)
(0 -0.0043304649 0.51847449)
(0 -0.0055577185 0.51936017)
(0 -0.0067981953 0.52049302)
(0 -0.0080537168 0.52190789)
(0 -0.0093255631 0.52365129)
(0 -0.010614413 0.52578534)
(0 -0.011920054 0.52839264)
(0 -0.013242043 0.53158141)
(0 -0.014578255 0.53553257)
(0 -0.015959622 0.54081033)
(0 -0.017515202 0.54897836)
(0 -0.01925428 0.56052015)
(0 -0.019975503 0.56266935)
(0 -0.016294881 0.51402852)
(0 -0.0067132375 0.36498811)
(0 0.00058475798 0.1265982)
(0 -0.00032787151 0.11542358)
(0 0.0055781027 0.34068871)
(0 0.0161474 0.50318069)
(0 0.021675463 0.56863448)
(0 0.021840027 0.57212767)
(0 0.020008003 0.55879143)
(0 0.018260176 0.54805949)
(0 0.016810725 0.54129844)
(0 0.015458246 0.53648434)
(0 0.014128344 0.53265862)
(0 0.012816126 0.52953145)
(0 0.011521453 0.52696412)
(0 0.010244328 0.52485353)
(0 0.0089841743 0.52312158)
(0 0.0077400993 0.52171009)
(0 0.0065109273 0.52057556)
(0 0.0052950788 0.51968534)
(0 0.0040906312 0.51901521)
(0 0.002895375 0.51854775)
(0 0.0017068897 0.51827125)
(0 0.000522613 0.51817906)
(0 -0.00066005155 0.51826921)
(0 -0.0018436859 0.51854435)
(0 -0.0030307382 0.51901186)
(0 -0.0042234722 0.51968427)
(0 -0.0054238512 0.52058001)
(0 -0.0066334791 0.52172458)
(0 -0.0078535034 0.52315235)
(0 -0.0090846102 0.52490926)
(0 -0.010327037 0.52705687)
(0 -0.011580245 0.52967692)
(0 -0.012843759 0.53287804)
(0 -0.014117692 0.53685829)
(0 -0.015438758 0.54224495)
(0 -0.01693384 0.55057799)
(0 -0.018533483 0.56160872)
(0 -0.018916852 0.56096677)
(0 -0.015005371 0.50754288)
(0 -0.0058822627 0.35675889)
(0 0.0004803889 0.12386327)
(0 -0.00022319197 0.11315987)
(0 0.0050385099 0.33304667)
(0 0.01492528 0.4958482)
(0 0.020586473 0.56590641)
(0 0.021126723 0.57288675)
(0 0.019477962 0.56049598)
(0 0.017784282 0.54961393)
(0 0.016377216 0.54267159)
(0 0.015076703 0.53779725)
(0 0.013800311 0.53395207)
(0 0.012537955 0.53080982)
(0 0.011288866 0.52822739)
(0 0.010053046 0.52610207)
(0 0.00882998 0.52435595)
(0 0.0076190483 0.5229311)
(0 0.0064194753 0.52178432)
(0 0.0052301796 0.52088328)
(0 0.0040498061 0.52020405)
(0 0.0028767567 0.51972946)
(0 0.0017092514 0.51944796)
(0 0.00054538416 0.519353)
(0 -0.00061677801 0.51944259)
(0 -0.0017791507 0.51971932)
(0 -0.002943527 0.52019041)
(0 -0.0041115312 0.52086817)
(0 -0.005284517 0.5217707)
(0 -0.0064635266 0.52292312)
(0 -0.0076492198 0.52435938)
(0 -0.0088418922 0.526125)
(0 -0.010041551 0.52828112)
(0 -0.011247561 0.53090888)
(0 -0.012459694 0.53411853)
(0 -0.013680768 0.53812845)
(0 -0.014952737 0.54362445)
(0 -0.01639488 0.55207947)
(0 -0.017861034 0.56247242)
(0 -0.017943358 0.55901425)
(0 -0.01386818 0.50119995)
(0 -0.0052222061 0.34919135)
(0 0.00038168894 0.12143174)
(0 -0.00014092599 0.11106428)
(0 0.0046014362 0.32602128)
(0 0.013839418 0.48876037)
(0 0.019576538 0.56297384)
(0 0.020447913 0.57339674)
(0 0.018980712 0.56208761)
(0 0.017340646 0.55112265)
(0 0.015967811 0.54400136)
(0 0.014710901 0.53906128)
(0 0.013481324 0.53519709)
(0 0.012263603 0.53204286)
(0 0.011056122 0.52944892)
(0 0.009858738 0.52731253)
(0 0.0086708851 0.52555582)
(0 0.0074920825 0.52412093)
(0 0.0063218123 0.52296483)
(0 0.005159354 0.52205546)
(0 0.0040037876 0.52136912)
(0 0.002854 0.52088881)
(0 0.0017087314 0.52060314)
(0 0.00056661477 0.52050561)
(0 -0.00057373377 0.52059426)
(0 -0.0017136797 0.5208716)
(0 -0.0028544819 0.52134472)
(0 -0.0039972505 0.5220257)
(0 -0.0051428638 0.52293239)
(0 -0.0062919446 0.5240896)
(0 -0.007444817 0.52553093)
(0 -0.0086015428 0.52730162)
(0 -0.0097620516 0.52946252)
(0 -0.010925778 0.53209452)
(0 -0.012092939 0.53531072)
(0 -0.013269334 0.53935247)
(0 -0.014501313 0.54495712)
(0 -0.015895689 0.55348889)
(0 -0.017233271 0.56313122)
(0 -0.01704845 0.55686065)
(0 -0.012862873 0.49502637)
(0 -0.004694523 0.34221476)
(0 0.00029348732 0.11923381)
(0 -7.8164105e-05 0.10910779)
(0 0.0042394669 0.3195384)
(0 0.012870535 0.48192504)
(0 0.018637446 0.55987943)
(0 0.0197999 0.57367755)
(0 0.018512096 0.56356819)
(0 0.016926628 0.55258934)
(0 0.015582173 0.54529492)
(0 0.014361975 0.54028336)
(0 0.013173426 0.53639926)
(0 0.011995714 0.53323495)
(0 0.010826189 0.53063208)
(0 0.0096644653 0.52848733)
(0 0.0085098625 0.52672274)
(0 0.0073619439 0.5252804)
(0 0.0062203431 0.52411735)
(0 0.0050845918 0.52320165)
(0 0.0039540952 0.5225098)
(0 0.0028281174 0.52202493)
(0 0.0017058126 0.52173577)
(0 0.00058624954 0.52163589)
(0 -0.00053151178 0.5217233)
(0 -0.0016483916 0.52200047)
(0 -0.0027652204 0.52247436)
(0 -0.0038827045 0.52315689)
(0 -0.0050013614 0.52406567)
(0 -0.0061215119 0.52522527)
(0 -0.0072432634 0.52666909)
(0 -0.0083665612 0.52844217)
(0 -0.0094913616 0.53060524)
(0 -0.010617281 0.53323925)
(0 -0.011745131 0.53646146)
(0 -0.012883787 0.54053814)
(0 -0.014082953 0.54624913)
(0 -0.015432813 0.55481082)
(0 -0.016645957 0.56360302)
(0 -0.016224702 0.55454626)
(0 -0.011970965 0.48903803)
(0 -0.0042682791 0.33576438)
(0 0.0002177672 0.11721883)
(0 -3.1539924e-05 0.10727076)
(0 0.0039330354 0.31353386)
(0 0.012002442 0.47534368)
(0 0.017761858 0.55665877)
(0 0.01917957 0.57374752)
(0 0.018068293 0.56493901)
(0 0.016539363 0.554016)
(0 0.015219334 0.54655778)
(0 0.014030247 0.54146926)
(0 0.012877769 0.5375634)
(0 0.011736023 0.53439002)
(0 0.010601161 0.53177998)
(0 0.0094724844 0.52962883)
(0 0.0083491696 0.52785841)
(0 0.0072307612 0.52641059)
(0 0.0061169669 0.5252424)
(0 0.0050074859 0.52432198)
(0 0.0039019599 0.5236259)
(0 0.0027999398 0.52313743)
(0 0.0017009022 0.52284535)
(0 0.00060426144 0.52274328)
(0 -0.00049057074 0.52282924)
(0 -0.0015841616 0.52310563)
(0 -0.0026770054 0.52357933)
(0 -0.0037694993 0.52426209)
(0 -0.0048618948 0.52517139)
(0 -0.0059543047 0.52633161)
(0 -0.0070467109 0.52777601)
(0 -0.0081390267 0.52954958)
(0 -0.009231301 0.53171307)
(0 -0.010323406 0.53434783)
(0 -0.011416855 0.53757659)
(0 -0.012523552 0.54169171)
(0 -0.013695368 0.54750482)
(0 -0.015002486 0.5560487)
(0 -0.016094799 0.56390382)
(0 -0.015464643 0.55210424)
(0 -0.011176275 0.48324305)
(0 -0.00391924 0.32978208)
(0 0.00015473332 0.11535047)
(0 2.2285483e-06 0.10553957)
(0 0.0036683822 0.30795244)
(0 0.011221626 0.46901347)
(0 0.01694344 0.55334171)
(0 0.018584413 0.57362363)
(0 0.017645965 0.56620116)
(0 0.016176023 0.55540336)
(0 0.014877988 0.54779401)
(0 0.013715506 0.54262374)
(0 0.012594881 0.53869366)
(0 0.011485594 0.53551151)
(0 0.010382457 0.53289543)
(0 0.0092844113 0.53073927)
(0 0.0081904817 0.52896449)
(0 0.0071001543 0.5275127)
(0 0.0060131564 0.52634078)
(0 0.0049292907 0.52541686)
(0 0.0038483645 0.52471758)
(0 0.0027701407 0.52422625)
(0 0.0016943421 0.52393172)
(0 0.0006206499 0.52382763)
(0 -0.00045125021 0.52391199)
(0 -0.0015216522 0.52418715)
(0 -0.0025907933 0.52465992)
(0 -0.0036588399 0.52534195)
(0 -0.0047258547 0.5262506)
(0 -0.0057918165 0.52741014)
(0 -0.0068566491 0.52885379)
(0 -0.0079202915 0.53062659)
(0 -0.008982923 0.53278942)
(0 -0.010044717 0.53542441)
(0 -0.011107968 0.53866102)
(0 -0.012187436 0.54281807)
(0 -0.013335907 0.54872708)
(0 -0.014600968 0.5572051)
(0 -0.015575756 0.56404791)
(0 -0.01476124 0.54956195)
(0 -0.010464936 0.47764413)
(0 -0.0036288015 0.32421638)
(0 0.00010355537 0.11360282)
(0 2.6060792e-05 0.10390427)
(0 0.0034359159 0.30274681)
(0 0.010516804 0.46292881)
(0 0.016176828 0.54995343)
(0 0.018012459 0.57332175)
(0 0.01724229 0.56735579)
(0 0.015833968 0.55675133)
(0 0.014556674 0.5490066)
(0 0.013417211 0.54375074)
(0 0.012324858 0.53979357)
(0 0.011244996 0.53660242)
(0 0.010170983 0.53398099)
(0 0.0091013622 0.53182075)
(0 0.0080350088 0.53004266)
(0 0.0069713288 0.52858797)
(0 0.0059100322 0.52741337)
(0 0.0048509777 0.52648692)
(0 0.0037940822 0.52578523)
(0 0.0027392609 0.52529165)
(0 0.0016864186 0.52499505)
(0 0.00063543832 0.52488908)
(0 -0.00041378685 0.52497174)
(0 -0.0014613443 0.52524536)
(0 -0.0025072803 0.52571668)
(0 -0.0035515952 0.52639728)
(0 -0.004594224 0.52730444)
(0 -0.0056350679 0.52846241)
(0 -0.0066740409 0.52990443)
(0 -0.0077111454 0.53167569)
(0 -0.0087467081 0.53383729)
(0 -0.0097812307 0.53647257)
(0 -0.010817839 0.53971881)
(0 -0.011873898 0.543921)
(0 -0.01300182 0.54991766)
(0 -0.01422475 0.55828199)
(0 -0.015085211 0.56404818)
(0 -0.014108155 0.54694204)
(0 -0.0098252352 0.47224027)
(0 -0.0033829213 0.31902209)
(0 6.2874395e-05 0.1119574)
(0 4.2405696e-05 0.10235713)
(0 0.0032289575 0.29787642)
(0 0.0098785245 0.45708232)
(0 0.015457504 0.5465153)
(0 0.017462185 0.57285673)
(0 0.016854948 0.56840424)
(0 0.01551082 0.55805925)
(0 0.014253899 0.55019761)
(0 0.013134632 0.54485345)
(0 0.012067512 0.54086616)
(0 0.011014453 0.5376654)
(0 0.0099672665 0.53503892)