/*--------------------------------*- C++ -*----------------------------------*\
  =========                 |
  \\      /  F ield         | OpenFOAM: The Open Source CFD Toolbox
   \\    /   O peration     | Website:  https://openfoam.org
    \\  /    A nd           | Version:  10
     \\/     M anipulation  |
\*---------------------------------------------------------------------------*/
FoamFile
{
    format      ascii;
    class       surfaceScalarField;
    location    "0.23";
    object      phi;
}
// * * * * * * * * * * * * * * * * * * * * * * * * * * * * * * * * * * * * * //

dimensions      [1 0 -1 0 0 0 0];

internalField   nonuniform List<scalar> 
7860
(
3.989598e-08
5.2881205e-07
1.2192722e-08
5.9641106e-07
7.427903e-09
5.7347257e-07
5.4994246e-09
5.7063619e-07
4.115004e-09
5.700921e-07
3.2011524e-09
5.696215e-07
2.5591598e-09
5.6934963e-07
2.0793328e-09
5.6918745e-07
1.7093431e-09
5.690776e-07
1.4166672e-09
5.6900028e-07
1.1795095e-09
5.6894475e-07
9.831072e-10
5.6890399e-07
8.1711668e-10
5.6887357e-07
6.740478e-10
5.6885064e-07
5.4832728e-10
5.6883329e-07
4.3569459e-10
5.688202e-07
3.3279605e-10
5.6881046e-07
2.3690443e-10
5.6880346e-07
1.4571677e-10
5.6879875e-07
5.7202102e-11
5.6879608e-07
-3.0522326e-11
5.6879529e-07
-1.1929864e-10
5.6879634e-07
-2.1103319e-10
5.687993e-07
-3.0780334e-10
5.6880433e-07
-4.1198974e-10
5.6881175e-07
-5.2643927e-10
5.6882202e-07
-6.5468579e-10
5.6883582e-07
-8.0126306e-10
5.6885415e-07
-9.7216516e-10
5.6887848e-07
-1.1755535e-09
5.6891097e-07
-1.4229292e-09
5.6895497e-07
-1.731104e-09
5.6901577e-07
-2.125056e-09
5.6910156e-07
-2.6446668e-09
5.6922723e-07
-3.3723501e-09
5.6943532e-07
-4.4636578e-09
5.6979896e-07
-6.0089992e-09
5.7025302e-07
-9.5080066e-09
5.7220672e-07
-2.9575838e-08
5.8877559e-07
5.3913209e-07
5.9672486e-08
4.6913957e-07
3.6665945e-08
6.194176e-07
2.2628132e-08
5.8751038e-07
1.625355e-08
5.7701077e-07
1.2290497e-08
5.7405515e-07
9.6062562e-09
5.7230575e-07
7.6774865e-09
5.712784e-07
6.2361516e-09
5.7062878e-07
5.1266552e-09
5.701871e-07
4.2489243e-09
5.6987801e-07
3.5376243e-09
5.6965605e-07
2.9485862e-09
5.6949303e-07
2.4507645e-09
5.6937139e-07
2.0216838e-09
5.6927972e-07
1.6446294e-09
5.6921035e-07
1.3068236e-09
5.6915801e-07
9.9820902e-10
5.6911908e-07
7.1060713e-10
5.6909106e-07
4.3711196e-10
5.6907225e-07
1.7163174e-10
5.6906156e-07
-9.1480105e-11
5.690584e-07
-3.5774689e-10
5.690626e-07
-6.3288091e-10
5.6907443e-07
-9.2311477e-10
5.6909457e-07
-1.2355876e-09
5.6912422e-07
-1.5788368e-09
5.6916527e-07
-1.9634596e-09
5.6922044e-07
-2.4030522e-09
5.6929374e-07
-2.9155979e-09
5.6939103e-07
-3.5255892e-09
5.6952096e-07
-4.2674452e-09
5.6969682e-07
-5.1915312e-09
5.6993986e-07
-6.374472e-09
5.702845e-07
-7.9349851e-09
5.7078774e-07
-1.0076293e-08
5.7157663e-07
-1.3204521e-08
5.7292719e-07
-1.8134437e-08
5.7518294e-07
-2.8176697e-08
5.8224898e-07
-4.5802684e-08
6.0640157e-07
4.933294e-07
6.0008771e-08
4.091308e-07
5.048719e-08
6.2893918e-07
3.3370604e-08
6.0462696e-07
2.4817628e-08
5.8556374e-07
1.9323226e-08
5.7954955e-07
1.533151e-08
5.7629746e-07
1.2360766e-08
5.7424914e-07
1.0101641e-08
5.7288791e-07
8.340757e-09
5.7194798e-07
6.9349935e-09
5.7128377e-07
5.7882713e-09
5.7080277e-07
4.833825e-09
5.7044747e-07
4.0238898e-09
5.7018133e-07
3.3234798e-09
5.6998013e-07
2.706331e-09
5.6982749e-07
2.1522107e-09
5.6971213e-07
1.6450933e-09
5.696262e-07
1.1718789e-09
5.6956427e-07
7.2145987e-10
5.6952266e-07
2.8400769e-10
5.6949901e-07
-1.4960454e-10
5.6949201e-07
-5.8830816e-10
5.6950131e-07
-1.0413321e-09
5.6952745e-07
-1.518723e-09
5.6957196e-07
-2.0319481e-09
5.6963745e-07
-2.5946548e-09
5.6972797e-07
-3.223682e-09
5.6984947e-07
-3.9404714e-09
5.7001053e-07
-4.7731173e-09
5.7022367e-07
-5.7594305e-09
5.7050728e-07
-6.9515963e-09
5.7088899e-07
-8.4238131e-09
5.7141208e-07
-1.028548e-08
5.7214617e-07
-1.2698468e-08
5.7320073e-07
-1.5895936e-08
5.7477409e-07
-2.0239773e-08
5.7727103e-07
-2.6708109e-08
5.8165127e-07
-3.8947627e-08
5.944885e-07
-4.8166954e-08
6.156209e-07
4.4516245e-07
5.4878963e-08
3.5425184e-07
5.7452041e-08
6.263661e-07
4.0467425e-08
6.2161158e-07
3.077866e-08
5.9525251e-07
2.4642982e-08
5.8568523e-07
1.9952265e-08
5.8098818e-07
1.6312956e-08
5.7788845e-07
1.3466599e-08
5.7573426e-07
1.1201078e-08
5.742135e-07
9.3646881e-09
5.7312016e-07
7.8495445e-09
5.7231791e-07
6.5771584e-09
5.7171986e-07
5.4896835e-09
5.712688e-07
4.5438069e-09
5.7092601e-07
3.7064338e-09
5.7066487e-07
2.9517066e-09
5.7046685e-07
2.2589076e-09
5.7031899e-07
1.610941e-09
5.7021224e-07
9.9320156e-10
5.701404e-07
3.9269415e-10
5.7009952e-07
-2.0268883e-10
5.7008739e-07
-8.0480803e-10
5.7010343e-07
-1.425898e-09
5.7014854e-07
-2.0792219e-09
5.7022528e-07
-2.7798216e-09
5.7033805e-07
-3.5454462e-09
5.704936e-07
-4.3977587e-09
5.7070178e-07
-5.3639693e-09
5.7097674e-07
-6.4791156e-09
5.7133882e-07
-7.7893233e-09
5.7181748e-07
-9.3563729e-09
5.7245604e-07
-1.1264086e-08
5.7331979e-07
-1.3628726e-08
5.7451081e-07
-1.6611639e-08
5.7618364e-07
-2.0410598e-08
5.7857305e-07
-2.5292278e-08
5.8215271e-07
-3.2516591e-08
5.8887558e-07
-4.5100239e-08
6.0707214e-07
-4.6548916e-08
6.1706958e-07
3.9861353e-07
4.7965647e-08
3.062862e-07
6.007632e-08
6.1425543e-07
4.5399953e-08
6.3628794e-07
3.4875193e-08
6.0577727e-07
2.8399725e-08
5.921607e-07
2.3419526e-08
5.8596838e-07
1.9434255e-08
5.8187372e-07
1.6229174e-08
5.7893935e-07
1.3619767e-08
5.7682291e-07
1.1466627e-08
5.752733e-07
9.6646277e-09
5.7411991e-07
8.1337284e-09
5.7325076e-07
6.8129056e-09
5.7258962e-07
5.6551469e-09
5.7208377e-07
4.6236765e-09
5.7169634e-07
3.6892076e-09
5.7140132e-07
2.827901e-09
5.711803e-07
2.0198269e-09
5.7102031e-07
1.2477799e-09
5.7091245e-07
4.9633408e-10
5.7085096e-07
-2.4894987e-10
5.7083268e-07
-1.0022349e-09
5.7085671e-07
-1.7780976e-09
5.7092441e-07
-2.5922514e-09
5.7103944e-07
-3.4623616e-09
5.7120816e-07
-4.40903e-09
5.7144027e-07
-5.4570344e-09
5.7174978e-07
-6.6369386e-09
5.7215665e-07
-7.9872185e-09
5.726891e-07
-9.5571363e-09
5.733874e-07
-1.1410516e-08
5.7430942e-07
-1.363017e-08
5.7553944e-07
-1.6324398e-08
5.7720504e-07
-1.9636806e-08
5.7949605e-07
-2.3737657e-08
5.826739e-07
-2.8929862e-08
5.8734491e-07
-3.6790177e-08
5.967359e-07
-4.8462849e-08
6.1874482e-07
-4.3193661e-08
6.1180039e-07
3.5541987e-07
4.0335912e-08
2.659503e-07
5.8993824e-08
5.9559753e-07
4.832983e-08
6.4695194e-07
3.7587869e-08
6.1651923e-07
3.0928724e-08
5.9881984e-07
2.5893888e-08
5.9100321e-07
2.1779961e-08
5.8598765e-07
1.839209e-08
5.8232722e-07
1.5577619e-08
5.7963738e-07
1.3214496e-08
5.7763642e-07
1.1206784e-08
5.7612763e-07
9.4791891e-09
5.7497835e-07
7.972569e-09
5.7409624e-07
6.6400193e-09
5.7341632e-07
5.4439123e-09
5.7289244e-07
4.35363e-09
5.724916e-07
3.3437838e-09
5.7219015e-07
2.3928151e-09
5.7197128e-07
1.4818778e-09
5.7182339e-07
5.9391695e-10
5.7173892e-07
-2.8712075e-10
5.7171371e-07
-1.1770049e-09
5.717466e-07
-2.091924e-09
5.7183933e-07
-3.0492135e-09
5.7199672e-07
-4.0681618e-09
5.7222711e-07
-5.1709565e-09
5.7254306e-07
-6.3838359e-09
5.7296266e-07
-7.738524e-09
5.7351134e-07
-9.2740275e-09
5.742246e-07
-1.1038944e-08
5.7515232e-07
-1.3094495e-08
5.7636497e-07
-1.5517947e-08
5.7796289e-07
-1.8406699e-08
5.8009379e-07
-2.1884928e-08
5.8297428e-07
-2.610842e-08
5.868974e-07
-3.1486677e-08
5.9272317e-07
-3.9653038e-08
6.0490226e-07
-4.9170983e-08
6.2826276e-07
-3.857771e-08
6.0120712e-07
3.1684216e-07
3.2862541e-08
2.3308777e-07
5.524966e-08
5.7321042e-07
4.9231872e-08
6.5296973e-07
3.9061196e-08
6.266899e-07
3.2430404e-08
6.0545063e-07
2.7518581e-08
5.9591504e-07
2.3438611e-08
5.9006762e-07
2.0002921e-08
5.8576291e-07
1.7094957e-08
5.8254534e-07
1.4612497e-08
5.8011888e-07
1.2471752e-08
5.7826837e-07
1.0605471e-08
5.7684463e-07
8.9594119e-09
5.757423e-07
7.4893824e-09
5.7488635e-07
6.1590518e-09
5.7422278e-07
4.9381934e-09
5.7371246e-07
3.8012417e-09
5.733271e-07
2.7261156e-09
5.7304641e-07
1.6932421e-09
5.7285626e-07
6.8472532e-10
5.7274744e-07
-3.1638546e-10
5.7271482e-07
-1.3267702e-09
5.7275698e-07
-2.3635039e-09
5.7287606e-07
-3.44474e-09
5.7307796e-07
-4.5904518e-09
5.7337282e-07
-5.8232799e-09
5.7377589e-07
-7.1695285e-09
5.7430891e-07
-8.6603676e-09
5.7500217e-07
-1.0333282e-08
5.7589752e-07
-1.2233846e-08
5.7705288e-07
-1.4418118e-08
5.7854924e-07
-1.6955523e-08
5.805003e-07
-1.9930906e-08
5.8306917e-07
-2.3445045e-08
5.8648842e-07
-2.7639362e-08
5.9109171e-07
-3.3032249e-08
5.9811606e-07
-4.1008577e-08
6.1287859e-07
-4.7685887e-08
6.3494007e-07
-3.337517e-08
5.868964e-07
2.8346699e-07
2.6188811e-08
2.0689897e-07
5.0132242e-08
5.4926701e-07
4.849304e-08
6.5460893e-07
3.9490588e-08
6.3569235e-07
3.3077073e-08
6.1186415e-07
2.8411749e-08
6.0058036e-07
2.4492746e-08
5.9398662e-07
2.1118208e-08
5.8913744e-07
1.8207252e-08
5.854563e-07
1.568065e-08
5.8264548e-07
1.3469265e-08
5.8047976e-07
1.1515915e-08
5.7879798e-07
9.7730868e-09
5.7748513e-07
8.2009872e-09
5.7645845e-07
6.7660845e-09
5.7565768e-07
5.4398327e-09
5.7503871e-07
4.197584e-09
5.7456935e-07
3.0176654e-09
5.7422632e-07
1.8805811e-09
5.7399334e-07
7.6830928e-10
5.7385971e-07
-3.3633412e-10
5.7381947e-07
-1.4502913e-09
5.7387094e-07
-2.5908555e-09
5.7401662e-07
-3.7762739e-09
5.7426338e-07
-5.0263901e-09
5.7462293e-07
-6.3633588e-09
5.7511286e-07
-7.8124586e-09
5.7575801e-07
-9.403039e-09
5.7659275e-07
-1.1169628e-08
5.776641e-07
-1.31532e-08
5.7903645e-07
-1.5402828e-08
5.8079887e-07
-1.7977798e-08
5.8307527e-07
-2.0947565e-08
5.8603894e-07
-2.4387322e-08
5.8992818e-07
-2.8432598e-08
5.9513699e-07
-3.3688594e-08
6.0337205e-07
-4.105989e-08
6.2024988e-07
-4.4794897e-08
6.3867508e-07
-2.8203339e-08
5.7030484e-07
2.5526365e-07
2.0570685e-08
1.863283e-07
4.4582607e-08
5.2525511e-07
4.6642205e-08
6.5254934e-07
3.9152538e-08
6.4318201e-07
3.3083284e-08
6.179334e-07
2.8717207e-08
6.0494644e-07
2.5037881e-08
5.9766595e-07
2.1803695e-08
5.9237163e-07
1.8959331e-08
5.8830066e-07
1.6448735e-08
5.8515608e-07
1.4218407e-08
5.8271008e-07
1.2222164e-08
5.8079422e-07
1.0420224e-08
5.7928707e-07
8.7782292e-09
5.7810044e-07
7.2664231e-09
5.7716948e-07
5.8588379e-09
5.764463e-07
4.5325548e-09
5.7589563e-07
3.2670374e-09
5.7549184e-07
2.0435259e-09
5.7521686e-07
8.4447948e-10
5.7505876e-07
-3.4694364e-10
5.7501089e-07
-1.5473824e-09
5.7507138e-07
-2.77377e-09
5.7524301e-07
-4.0438352e-09
5.7553344e-07
-5.3766274e-09
5.7595573e-07
-6.7930815e-09
5.7652931e-07
-8.3166359e-09
5.7728156e-07
-9.9739175e-09
5.7825004e-07
-1.1795508e-08
5.7948569e-07
-1.3816738e-08
5.8105768e-07
-1.6078598e-08
5.8306073e-07
-1.8628941e-08
5.8562561e-07
-2.1520875e-08
5.8893087e-07
-2.4808419e-08
5.9321572e-07
-2.8637784e-08
5.9896635e-07
-3.3656243e-08
6.0839051e-07
-4.0140299e-08
6.2673394e-07
-4.1156074e-08
6.3969085e-07
-2.341559e-08
5.5256436e-07
2.3184806e-07
1.6015222e-08
1.703131e-07
3.9143179e-08
5.0212719e-07
4.4117607e-08
6.4757492e-07
3.8288764e-08
6.4901085e-07
3.2653165e-08
6.23569e-07
2.8591008e-08
6.0900859e-07
2.5183185e-08
6.0107377e-07
2.2135751e-08
5.9541906e-07
1.9404814e-08
5.910316e-07
1.6954313e-08
5.8760658e-07
1.474527e-08
5.8491913e-07
1.2742085e-08
5.8279741e-07
1.0912843e-08
5.8111631e-07
9.2290222e-09
5.7978426e-07
7.6651452e-09
5.7873336e-07
6.1983628e-09
5.7791308e-07
4.8080259e-09
5.7728597e-07
3.4752589e-09
5.7682461e-07
2.1825379e-09
5.7650958e-07
9.1328307e-10
5.7632801e-07
-3.4853896e-10
5.7627271e-07
-1.6188013e-09
5.7634164e-07
-2.9136088e-09
5.7653782e-07
-4.2496887e-09
5.7686952e-07
-5.64479e-09
5.7735083e-07
-7.118098e-09
5.7800262e-07
-8.6906612e-09
5.7885413e-07
-1.038583e-08
5.799452e-07
-1.2229714e-08
5.8132958e-07
-1.4251598e-08
5.8307957e-07
-1.648431e-08
5.8529344e-07
-1.8964604e-08
5.881059e-07
-2.1730622e-08
5.9169689e-07
-2.4822842e-08
5.9630794e-07
-2.8410123e-08
6.0255363e-07
-3.3119558e-08
6.1309995e-07
-3.854473e-08
6.3215911e-07
-3.7211909e-08
6.3835803e-07
-1.9181317e-08
5.3453376e-07
2.1266675e-07
1.242346e-08
1.5788967e-07
3.4113056e-08
4.8043764e-07
4.1248452e-08
6.4043954e-07
3.7077415e-08
6.5318189e-07
3.194084e-08
6.2870557e-07
2.8167871e-08
6.1278156e-07
2.5032287e-08
6.0420935e-07
2.2191618e-08
5.9825973e-07
1.9600795e-08
5.9362242e-07
1.723923e-08
5.8996814e-07
1.5080288e-08
5.8707807e-07
1.3097652e-08
5.8478004e-07
1.1266683e-08
5.8294728e-07
9.5645227e-09
5.8148642e-07
7.9700504e-09
5.8032783e-07
6.4637509e-09
5.7941938e-07
5.0275358e-09
5.7872218e-07
3.6445163e-09
5.7820763e-07
2.2987475e-09
5.7785535e-07
9.7495762e-10
5.776518e-07
-3.4172857e-10
5.775894e-07
-1.6660688e-09
5.7766598e-07
-3.0129892e-09
5.7788474e-07
-4.3978653e-09
5.782544e-07
-5.8368001e-09
5.7878976e-07
-7.3468976e-09
5.7951271e-07
-8.9465227e-09
5.8045375e-07
-1.0655533e-08
5.8165421e-07
-1.2495488e-08
5.8316953e-07
-1.4489809e-08
5.8507389e-07
-1.6663814e-08
5.8746744e-07
-1.9044395e-08
5.9048648e-07
-2.165705e-08
5.9430954e-07
-2.4535974e-08
5.9918686e-07
-2.7875668e-08
6.0589333e-07
-3.2221223e-08
6.174455e-07
-3.6515319e-08
6.3645321e-07
-3.3263668e-08
6.3510638e-07
-1.5562193e-08
5.1683229e-07
1.9710455e-07
9.656779e-09
1.4823292e-07
2.9644548e-08
4.6044992e-07
3.8281389e-08
6.3180273e-07
3.5656654e-08
6.5580662e-07
3.1057482e-08
6.3330473e-07
2.7552155e-08
6.1628689e-07
2.4671748e-08
6.0708976e-07
2.2040065e-08
6.0089141e-07
1.9601138e-08
5.9606135e-07
1.7344995e-08
5.9222429e-07
1.5255018e-08
5.8916805e-07
1.3312622e-08
5.8672244e-07
1.1499469e-08
5.8476043e-07
9.7978269e-09
5.8318806e-07
8.1906876e-09
5.8193497e-07
6.6618247e-09
5.8094824e-07
5.1957875e-09
5.8018822e-07
3.7778261e-09
5.7962559e-07
2.3937704e-09
5.792394e-07
1.0298789e-09
5.7901569e-07
-3.2733147e-10
5.7894661e-07
-1.691265e-09
5.7902991e-07
-3.0754344e-09
5.7926891e-07
-4.4936412e-09
5.7967261e-07
-5.9601457e-09
5.8025627e-07
-7.4898193e-09
5.8104239e-07
-9.0982673e-09
5.820622e-07
-1.0801905e-08
5.8335785e-07
-1.2617987e-08
5.8498561e-07
-1.4564598e-08
5.870205e-07
-1.6660483e-08
5.8956333e-07
-1.8924122e-08
5.9275012e-07
-2.1371029e-08
5.9675645e-07
-2.4035331e-08
6.0185117e-07
-2.7133274e-08
6.0899127e-07
-3.1079391e-08
6.2139162e-07
-3.4256192e-08
6.3963001e-07
-2.9516488e-08
6.3036668e-07
-1.2553572e-08
4.9986937e-07
1.8455098e-07
7.5663548e-09
1.406666e-07
2.5785312e-08
4.4223104e-07
3.5387275e-08
6.2220081e-07
3.4136328e-08
6.5705757e-07
3.0086072e-08
6.3735498e-07
2.6823843e-08
6.1954912e-07
2.4171244e-08
6.0974236e-07
2.173886e-08
6.033238e-07
1.9453117e-08
5.9834709e-07
1.7309658e-08
5.9436775e-07
1.5299598e-08
5.9117811e-07
1.3410553e-08
5.8861149e-07
1.1629399e-08
5.8654159e-07
9.9428181e-09
5.8487465e-07
8.337486e-09
5.835403e-07
6.8002422e-09
5.8248549e-07
5.3181902e-09
5.8167027e-07
3.8787298e-09
5.8106505e-07
2.4695377e-09
5.8064859e-07
1.0785124e-09
5.8040672e-07
-3.0630745e-10
5.8033143e-07
-1.6968365e-09
5.8042044e-07
-3.105045e-09
5.8067712e-07
-4.5430522e-09
5.8111061e-07
-6.0232057e-09
5.8173642e-07
-7.5581364e-09
5.8257732e-07
-9.1607765e-09
5.8366484e-07
-1.0844326e-08
5.850414e-07
-1.2622161e-08
5.8676345e-07
-1.4507716e-08
5.8890606e-07
-1.6514181e-08
5.9156979e-07
-1.8653157e-08
5.948891e-07
-2.0933156e-08
5.9903645e-07
-2.3393345e-08
6.0431136e-07
-2.6263293e-08
6.1186122e-07
-2.9795121e-08
6.2492344e-07
-3.1928991e-08
6.4176388e-07
-2.609271e-08
6.2453039e-07
-1.0108806e-08
4.8388547e-07
1.7444218e-07
6.0116137e-09
1.3465504e-07
2.2513568e-08
4.2572917e-07
3.2667961e-08
6.1204647e-07
3.2596871e-08
6.5712866e-07
2.908669e-08
6.4086516e-07
2.604309e-08
6.2259271e-07
2.35861e-08
6.1219935e-07
2.1335575e-08
6.0557432e-07
1.9196914e-08
6.0048575e-07
1.7166652e-08
5.9639801e-07
1.5241404e-08
5.9310335e-07
1.3413535e-08
5.9043935e-07
1.1674052e-08
5.8828107e-07
1.0013276e-08
5.8653542e-07
8.4210538e-09
5.8513253e-07
6.8869624e-09
5.8401958e-07
5.4004694e-09
5.8315676e-07
3.9510314e-09
5.8251449e-07
2.5281469e-09
5.8207148e-07
1.1213713e-09
5.8181349e-07
-2.7969388e-10
5.8173249e-07
-1.6854258e-09
5.8182617e-07
-3.1062124e-09
5.820979e-07
-4.5524758e-09
5.8255688e-07
-6.0346807e-09
5.8321862e-07
-7.5633148e-09
5.8410595e-07
-9.1488331e-09
5.8525036e-07
-1.0801553e-08
5.8669412e-07
-1.2531495e-08
5.8849339e-07
-1.4348204e-08
5.9072277e-07
-1.6260376e-08
5.9348196e-07
-1.8274314e-08
5.9690304e-07
-2.039461e-08
6.0115675e-07
-2.2669021e-08
6.0658577e-07
-2.5329308e-08
6.1452151e-07
-2.8449001e-08
6.2804314e-07
-2.9647906e-08
6.4296278e-07
-2.3047595e-08
6.1793008e-07
-8.1594431e-09
4.6899732e-07
1.6628273e-07
4.8698516e-09
1.2978524e-07
1.9770762e-08
4.1082837e-07
3.0171714e-08
6.0164559e-07
3.1090621e-08
6.5620977e-07
2.8098822e-08
6.4385695e-07
2.525218e-08
6.2543935e-07
2.2958434e-08
6.1449309e-07
2.0868251e-08
6.0766451e-07
1.88658e-08
6.024882e-07
1.6944527e-08
5.9831928e-07
1.5104499e-08
5.9494338e-07
1.3341521e-08
5.9220233e-07
1.1649708e-08
5.8997288e-07
1.0022264e-08
5.8816287e-07
8.4516581e-09
5.8670313e-07
6.9298287e-09
5.8554141e-07
5.4483524e-09
5.8463824e-07
3.9985812e-09
5.8396426e-07
2.5717386e-09
5.8349832e-07
1.158983e-09
5.8322625e-07
-2.48551e-10
5.8314003e-07
-1.6597256e-09
5.8323735e-07
-3.083378e-09
5.8352155e-07
-4.5282911e-09
5.8400179e-07
-6.0031488e-09
5.8469348e-07
-7.5164658e-09
5.8561927e-07
-9.0764843e-09
5.8681038e-07
-1.0691031e-08
5.8830867e-07
-1.2367333e-08
5.9016969e-07
-1.4111829e-08
5.9246726e-07
-1.5929748e-08
5.9529988e-07
-1.7823626e-08
5.9879691e-07
-1.979694e-08
6.0313006e-07
-2.1907772e-08
6.086966e-07
-2.4378049e-08
6.1699178e-07
-2.7099776e-08
6.3076486e-07
-2.7485041e-08
6.4334805e-07
-2.0390506e-08
6.1083555e-07
-6.6298329e-09
4.5523664e-07
1.596529e-07
4.0387082e-09
1.2574659e-07
1.7484414e-08
3.973828e-07
2.7912493e-08
5.912176e-07
2.9648201e-08
6.5447408e-07
2.7145661e-08
6.4635948e-07
2.4478293e-08
6.2810671e-07
2.231838e-08
6.16653e-07
2.0365954e-08
6.0961693e-07
1.8486335e-08
6.0436782e-07
1.6666907e-08
6.0013871e-07
1.4909408e-08
5.9670088e-07
1.3211979e-08
5.9389976e-07
1.1570959e-08
5.916139e-07
9.9817315e-09
5.8975209e-07
8.4388655e-09
5.88246e-07
6.9362645e-09
5.8704401e-07
5.4673305e-09
5.8610717e-07
4.0251075e-09
5.8540648e-07
2.6023993e-09
5.8492103e-07
1.1918631e-09
5.8463678e-07
-2.1391628e-10
5.8454581e-07
-1.6223617e-09
5.8464579e-07
-3.0408446e-09
5.8494004e-07
-4.4766183e-09
5.8543756e-07
-5.9367385e-09
5.861536e-07
-7.4279613e-09
5.8711049e-07
-8.9566162e-09
5.8833903e-07
-1.0528452e-08
5.898805e-07
-1.2148461e-08
5.917897e-07
-1.3820706e-08
5.9413951e-07
-1.5547884e-08
5.9702706e-07
-1.7330127e-08
6.0057916e-07
-1.9172106e-08
6.0497204e-07
-2.1142312e-08
6.106668e-07
-2.3441502e-08
6.1929097e-07
-2.5787197e-08
6.3311056e-07
-2.5480153e-08
6.43041e-07
-1.8102911e-08
6.0345831e-07
-5.4456019e-09
4.4257933e-07
1.542073e-07
3.4355074e-09
1.2231116e-07
1.5580711e-08
3.8523775e-07
2.5883679e-08
5.8091476e-07
2.8285023e-08
6.5207277e-07
2.623907e-08
6.4840542e-07
2.373731e-08
6.3060846e-07
2.1686241e-08
6.1870407e-07
1.9849896e-08
6.1145328e-07
1.8078932e-08
6.0613878e-07
1.6352689e-08
6.0186495e-07
1.4673102e-08
5.9838047e-07
1.3039758e-08
5.9553311e-07
1.1450499e-08
5.9320316e-07
9.9022907e-09
5.913003e-07
8.3913169e-09
5.8975697e-07
6.9130722e-09
5.8852225e-07
5.4624941e-09
5.8755775e-07
4.0340966e-09
5.8683488e-07
2.6220918e-09
5.8633303e-07
1.2204974e-09
5.8603838e-07
-1.7676944e-10
5.8594307e-07
-1.5758054e-09
5.8604483e-07
-2.9826375e-09
5.8634687e-07
-4.4031334e-09
5.8685806e-07
-5.842902e-09
5.8759337e-07
-7.3071771e-09
5.8857477e-07
-8.8006841e-09
5.8983254e-07
-1.0327495e-08
5.9140731e-07
-1.189088e-08
5.9335309e-07
-1.349317e-08
5.957418e-07
-1.5135321e-08
5.9866921e-07
-1.6816233e-08
6.0226007e-07
-1.8543514e-08
6.0669932e-07
-2.0394867e-08
6.1251816e-07
-2.2540154e-08
6.2143626e-07
-2.4536121e-08
6.3510653e-07
-2.3650077e-08
6.4215496e-07
-1.6150831e-08
5.9595906e-07
-4.5383382e-09
4.3096684e-07
1.4966896e-07
2.9956182e-09
1.1931563e-07
1.3991184e-08
3.7424238e-07
2.406741e-08
5.7083868e-07
2.7006237e-08
6.4913399e-07
2.5383427e-08
6.5002822e-07
2.3037248e-08
6.3295463e-07
2.1074868e-08
6.2066645e-07
1.9334946e-08
6.131932e-07
1.7658761e-08
6.0781497e-07
1.6016546e-08
6.0350717e-07
1.4409223e-08
5.9998779e-07
1.2837142e-08
5.9710519e-07
1.1299088e-08
5.9474122e-07
9.7931153e-09
5.9280627e-07
8.316609e-09
5.9123348e-07
6.8663152e-09
5.8997255e-07
5.4384311e-09
5.8898564e-07
4.0287169e-09
5.8824459e-07
2.6326097e-09
5.8772914e-07
1.245332e-09
5.8742566e-07
-1.3800682e-10
5.8732641e-07
-1.5223128e-09
5.8742913e-07
-2.9124115e-09
5.8773697e-07
-4.3129475e-09
5.8825859e-07
-5.7282769e-09
5.890087e-07
-7.1623494e-09
5.9000884e-07
-8.618583e-09
5.9128877e-07
-1.0099739e-08
5.9288847e-07
-1.1607816e-08
5.9486116e-07
-1.3143947e-08
5.9727793e-07
-1.4708002e-08
6.0023327e-07
-1.6298618e-08
6.0385068e-07
-1.792753e-08
6.0832823e-07
-1.9679527e-08
6.1427015e-07
-2.1685866e-08
6.234426e-07
-2.3360032e-08
6.3678069e-07
-2.1995983e-08
6.4079091e-07
-1.4493223e-08
5.884563e-07
-3.8481433e-09
4.2032176e-07
1.4582082e-07
2.6702017e-09
1.1664554e-07
1.2656087e-08
3.6425672e-07
2.2440937e-08
5.6105402e-07
2.5810478e-08
6.4576451e-07
2.4578332e-08
6.5126036e-07
2.238081e-08
6.3515214e-07
2.0491666e-08
6.2255559e-07
1.8831075e-08
6.1485379e-07
1.7236761e-08
6.0940928e-07
1.5669573e-08
6.0507436e-07
1.4128478e-08
6.0152888e-07
1.2614061e-08
5.986196e-07
1.1125634e-08
5.9622964e-07
9.661954e-09
5.9426995e-07
8.2212656e-09
5.9267416e-07
6.8012712e-09
5.9139254e-07
5.3991774e-09
5.9038773e-07
4.0117785e-09
5.8963199e-07
2.6355535e-09
5.8910536e-07
1.2667683e-09
5.8879444e-07
-9.8424959e-11
5.886916e-07
-1.4638878e-09
5.887946e-07
-2.8333975e-09
5.8910648e-07
-4.2105434e-09
5.8963574e-07
-5.5986221e-09
5.9039678e-07
-7.0005272e-09
5.9141074e-07
-8.4186394e-09
5.9270688e-07
-9.8547318e-09
5.9432456e-07
-1.1309906e-08
5.9631634e-07
-1.2784531e-08
5.9875255e-07
-1.427791e-08
6.0172664e-07
-1.5789196e-08
6.0536197e-07
-1.7334915e-08
6.0987395e-07
-1.9004223e-08
6.1593946e-07
-2.0884125e-08
6.253225e-07
-2.2264059e-08
6.3816063e-07
-2.0509167e-08
6.3903602e-07
-1.3087578e-08
5.8103471e-07
-3.324611e-09
4.1055879e-07
1.424962e-07
2.4235173e-09
1.1422215e-07
1.1525504e-08
3.55155e-07
2.0980702e-08
5.5159905e-07
2.4692757e-08
6.4205254e-07
2.3820607e-08
6.5213251e-07
2.1767284e-08
6.3720545e-07
1.9940161e-08
6.2438271e-07
1.8344558e-08
6.1644939e-07
1.682054e-08
6.109333e-07
1.5319941e-08
6.0657495e-07
1.3839077e-08
6.0300975e-07
1.2378368e-08
6.0008031e-07
1.0937358e-08
5.9767065e-07
9.5152167e-09
5.9569209e-07
8.110772e-09
5.9407861e-07
6.722437e-09
5.9278088e-07
5.3482087e-09
5.9176196e-07
3.9857209e-09
5.9099448e-07
2.6323221e-09
5.9045876e-07
1.2851627e-09
5.901416e-07
-5.8711592e-11
5.9003548e-07
-1.402266e-09
5.9013815e-07
-2.7483818e-09
5.9045259e-07
-4.0997582e-09
5.9098712e-07
-5.4588157e-09
5.9175584e-07
-6.8275995e-09
5.9277953e-07
-8.2076916e-09
5.9408698e-07
-9.6001485e-09
5.9571702e-07
-1.1005481e-08
5.9772167e-07
-1.2423625e-08
6.001707e-07
-1.3853719e-08
6.0315674e-07
-1.5296029e-08
6.0680428e-07
-1.6772076e-08
6.1135e-07
-1.8372364e-08
6.1753975e-07
-2.0135925e-08
6.2708606e-07
-2.1247654e-08
6.3927235e-07
-1.9175583e-08
6.3696395e-07
-1.1893735e-08
5.7375286e-07
-2.9267354e-09
4.0159179e-07
1.3956947e-07
2.2301845e-09
1.1199211e-07
1.0558976e-08
3.4682653e-07
1.9664636e-08
5.4249367e-07
2.3646508e-08
6.3807079e-07
2.3105767e-08
6.5267325e-07
2.1193962e-08
6.3911724e-07
1.9421246e-08
6.2615542e-07
1.7878961e-08
6.1799168e-07
1.6415142e-08
6.1239712e-07
1.4973483e-08
6.0801661e-07
1.3547163e-08
6.0443607e-07
1.2136145e-08
6.0149133e-07
1.0740002e-08
5.990668e-07
9.3581042e-09
5.9707399e-07
7.9896534e-09
5.9544706e-07
6.6335719e-09
5.9413696e-07
5.2884609e-09
5.9310707e-07
3.952623e-09
5.9233032e-07
2.624117e-09
5.9178727e-07
1.3008297e-09
5.9146489e-07
-1.9443046e-11
5.9135575e-07
-1.3389131e-09
5.9145762e-07
-2.6597111e-09
5.9177339e-07
-3.9838007e-09
5.9231121e-07
-5.3128939e-09
5.9308493e-07
-6.6483716e-09
5.9411501e-07
-7.9912201e-09
5.9542982e-07
-9.3420012e-09
5.970678e-07
-1.0700871e-08
5.9908054e-07
-1.2067584e-08
6.0153741e-07
-1.3441412e-08
6.0453057e-07
-1.4824156e-08
6.0818702e-07
-1.6242171e-08
6.1276801e-07
-1.7784216e-08
6.1908179e-07
-1.9439353e-08
6.287412e-07
-2.0306782e-08
6.4013978e-07
-1.7978981e-08
6.3463614e-07
-1.0875813e-08
5.666497e-07
-2.6220619e-09
3.9333804e-07
1.3694741e-07
2.0727177e-09
1.0991957e-07
9.7243923e-09
3.3917522e-07
1.8473197e-08
5.3374521e-07
2.2664867e-08
6.3387927e-07
2.2428995e-08
6.5290913e-07
2.0657166e-08
6.4088904e-07
1.8934149e-08
6.2787843e-07
1.7435947e-08
6.1948988e-07
1.6023704e-08
6.1380936e-07
1.463421e-08
6.0940611e-07
1.3257211e-08
6.0581306e-07
1.1891998e-08
6.0285654e-07
1.0538038e-08
6.0042076e-07
9.1947574e-09
5.9841727e-07
7.8615744e-09
5.9678024e-07
6.5377618e-09
5.9546077e-07
5.2223711e-09
5.9442246e-07
3.9142261e-09
5.9363846e-07
2.6119552e-09
5.9308954e-07
1.3140458e-09
5.927628e-07
1.8911599e-11
5.9265089e-07
-1.2750368e-09
5.9275157e-07
-2.5693151e-09
5.9306767e-07
-3.8652918e-09
5.9360718e-07
-5.1641186e-09
5.9438376e-07
-6.46667e-09
5.9541756e-07
-7.7735044e-09
5.9673666e-07
-9.0848648e-09
5.9837916e-07
-1.0400731e-08
6.003964e-07
-1.1720849e-08
6.0285753e-07
-1.3044843e-08
6.0585456e-07
-1.437633e-08
6.0951851e-07
-1.5746046e-08
6.1413773e-07
-1.7238026e-08
6.2057377e-07
-1.87908e-08
6.3029397e-07
-1.9435529e-08
6.4078451e-07
-1.6902842e-08
6.3210346e-07
-1.0002746e-08
5.597496e-07
-2.3854766e-09
3.8572077e-07
1.3456193e-07
1.9394456e-09
1.0798032e-07
8.9966274e-09
3.3211848e-07
1.7389664e-08
5.2535258e-07
2.1741383e-08
6.2952774e-07
2.1785713e-08
6.5286483e-07
2.0152918e-08
6.4252182e-07
1.8477129e-08
6.295542e-07
1.7015899e-08
6.2095111e-07
1.564798e-08
6.1517728e-07
1.4304748e-08
6.1074934e-07
1.2972381e-08
6.0714543e-07
1.1649331e-08
6.0417959e-07
1.0334878e-08
6.0173521e-07
9.0284103e-09
5.9972374e-07
7.7294496e-09
5.980792e-07
6.4374968e-09
5.9675272e-07
5.1519289e-09
5.9570803e-07
3.8719665e-09
5.9491842e-07
2.5966858e-09
5.9436482e-07
1.3250552e-09
5.9403443e-07
5.5986978e-11
5.9391995e-07
-1.2116048e-09
5.9401916e-07
-2.4787413e-09
5.9433481e-07
-3.74632e-09
5.9487476e-07
-5.0150602e-09
5.956525e-07
-6.2854622e-09
5.9668796e-07
-7.5577911e-09
5.9800899e-07
-8.8321058e-09
5.9965347e-07
-1.0108337e-08
6.0167264e-07
-1.1386344e-08
6.0413553e-07
-1.2666251e-08
6.0713447e-07
-1.395365e-08
6.1080591e-07
-1.5282997e-08
6.1546707e-07
-1.6730848e-08
6.2202162e-07
-1.8185828e-08
6.3174895e-07
-1.8627218e-08
6.412259e-07
-1.5931571e-08
6.2940781e-07
-9.2484006e-09
5.5306643e-07
-2.1980061e-09
3.7867038e-07
1.3236392e-07
1.8228263e-09
1.0615773e-07
8.356191e-09
3.2558562e-07
1.6400019e-08
5.1730923e-07
2.0870337e-08
6.2505767e-07
2.1171867e-08
6.5256333e-07
1.9677342e-08
6.4401632e-07
1.8047962e-08
6.3118357e-07
1.6618381e-08
6.2238069e-07
1.5288763e-08
6.165069e-07
1.3986703e-08
6.120514e-07
1.2694814e-08
6.0843732e-07
1.1410589e-08
6.0546382e-07
1.0133065e-08
6.0301273e-07
8.8615386e-09
6.0099527e-07
7.5955551e-09
5.9934519e-07
6.3347517e-09
5.9801353e-07
5.078732e-09
5.9696405e-07
3.8270115e-09
5.9617014e-07
2.5790106e-09
5.9561282e-07
1.3340745e-09
5.9527936e-07
9.1510359e-11
5.9516252e-07
-1.1493693e-09
5.9526004e-07
-2.3891967e-09
5.9557463e-07
-3.6285048e-09
5.9611407e-07
-4.8676883e-09
5.9689168e-07
-6.1069809e-09
5.9792725e-07
-7.3464606e-09
5.9924847e-07
-8.5861013e-09
6.0089312e-07
-9.8258719e-09
6.0291241e-07
-1.1065821e-08
6.0537548e-07
-1.2306675e-08
6.0837532e-07
-1.3556056e-08
6.1205529e-07
-1.4851338e-08
6.1676236e-07
-1.6259147e-08
6.2342943e-07
-1.7619758e-08
6.3310956e-07
-1.7875138e-08
6.4148128e-07
-1.5051118e-08
6.2658379e-07
-8.5912546e-09
5.4660656e-07
-2.045651e-09
3.7212477e-07
1.3031827e-07
1.7181393e-09
1.0443986e-07
7.7880038e-09
3.1951635e-07
1.5492633e-08
5.0960518e-07
2.0046843e-08
6.2050376e-07
2.0584034e-08
6.520262e-07
1.922688e-08
6.4537344e-07
1.764425e-08
6.3276618e-07
1.6242466e-08
6.2378247e-07
1.4946186e-08
6.1780318e-07
1.368094e-08
6.1331665e-07
1.2425888e-08
6.0969237e-07
1.1177468e-08
6.0671224e-07
9.9344468e-09
6.0425575e-07
8.695996e-09
6.0223372e-07
7.4616332e-09
6.0057955e-07
6.2310646e-09
5.9924409e-07
5.0040433e-09
5.9819107e-07
3.7802969e-09
5.9739389e-07
2.5595039e-09
5.9683361e-07
1.341298e-09
5.9649757e-07
1.2529155e-10
5.9637852e-07
-1.088894e-09
5.9647422e-07
-2.3015924e-09
5.9678733e-07
-3.513062e-09
5.9732554e-07
-4.7234617e-09
5.9810208e-07
-5.932845e-09
5.9913663e-07
-7.141183e-09
6.0045681e-07
-8.3484356e-09
6.0210037e-07
-9.5546659e-09
6.0411864e-07
-1.0760156e-08
6.0658097e-07
-1.1966302e-08
6.0958147e-07
-1.3182726e-08
6.1327171e-07
-1.4448829e-08
6.1802846e-07
-1.5819205e-08
6.2479981e-07
-1.7088059e-08
6.3437842e-07
-1.7172991e-08
6.4156621e-07
-1.4249227e-08
6.2366002e-07
-8.0138577e-09
5.403712e-07
-1.9183096e-09
3.6602923e-07
1.2839996e-07
1.6225136e-09
1.0281765e-07
7.2803632e-09
3.1385919e-07
1.4657878e-08
5.0222834e-07
1.9266795e-08
6.1589522e-07
2.0019414e-08
6.5127366e-07
1.8798392e-08
6.4659444e-07
1.7263609e-08
6.3430094e-07
1.5886952e-08
6.2515912e-07
1.4619953e-08
6.1907018e-07
1.3387798e-08
6.145488e-07
1.2166407e-08
6.1091376e-07
1.0951089e-08
6.0792756e-07
9.74032e-09
6.0546652e-07
8.5331339e-09
6.034409e-07
7.3289886e-09
6.0178369e-07
6.1276108e-09
6.0044547e-07
4.9288443e-09
5.9938983e-07
3.7325628e-09
5.9859017e-07
2.5386321e-09
5.9802754e-07
1.3469011e-09
5.976893e-07
1.5721225e-10
5.9756821e-07
-1.0305803e-09
5.9766202e-07
-2.2165876e-09
5.9797334e-07
-3.4008675e-09
5.9850982e-07
-4.5834154e-09
5.9928463e-07
-5.7641712e-09
6.0031739e-07
-6.943059e-09
6.0163569e-07
-8.120073e-09
6.0327738e-07
-9.2954026e-09
6.0529397e-07
-1.0469589e-08
6.0775516e-07
-1.1644731e-08
6.1075661e-07
-1.2832361e-08
6.1445934e-07
-1.4072976e-08
6.1926907e-07
-1.5407394e-08
6.2613422e-07
-1.6586563e-08
6.3555759e-07
-1.6515114e-08
6.4149477e-07
-1.3515422e-08
6.2066033e-07
-7.5022198e-09
5.3435799e-07
-1.8088478e-09
3.6033585e-07
1.2659111e-07
1.5342395e-09
1.0128377e-07
6.8241109e-09
3.0857011e-07
1.3887747e-08
4.951655e-07
1.8526766e-08
6.1125665e-07
1.9475767e-08
6.5032477e-07
1.8389177e-08
6.4768101e-07
1.6903783e-08
6.3578631e-07
1.5550516e-08
6.2651238e-07
1.43095e-08
6.203112e-07
1.3107256e-08
6.1575105e-07
1.1916759e-08
6.1210426e-07
1.0732135e-08