/*--------------------------------*- C++ -*----------------------------------*\
  =========                 |
  \\      /  F ield         | OpenFOAM: The Open Source CFD Toolbox
   \\    /   O peration     | Website:  https://openfoam.org
    \\  /    A nd           | Version:  10
     \\/     M anipulation  |
\*---------------------------------------------------------------------------*/
FoamFile
{
    format      ascii;
    class       surfaceScalarField;
    location    "0.23";
    object      phi_0;
}
// * * * * * * * * * * * * * * * * * * * * * * * * * * * * * * * * * * * * * //

dimensions      [1 0 -1 0 0 0 0];

internalField   nonuniform List<scalar> 
7860
(
3.9895978e-08
5.2881206e-07
1.2192721e-08
5.9641106e-07
7.4279026e-09
5.7347256e-07
5.4994244e-09
5.7063619e-07
4.1150043e-09
5.700921e-07
3.2011532e-09
5.696215e-07
2.5591612e-09
5.6934963e-07
2.0793348e-09
5.6918745e-07
1.7093459e-09
5.690776e-07
1.4166707e-09
5.6900027e-07
1.1795138e-09
5.6894475e-07
9.8311228e-10
5.6890399e-07
8.1712264e-10
5.6887357e-07
6.740546e-10
5.6885064e-07
5.4833496e-10
5.6883329e-07
4.3570316e-10
5.688202e-07
3.3280554e-10
5.6881046e-07
2.369148e-10
5.6880345e-07
1.4572804e-10
5.6879875e-07
5.7214188e-11
5.6879608e-07
-3.0509407e-11
5.6879528e-07
-1.1928499e-10
5.6879634e-07
-2.1101882e-10
5.687993e-07
-3.0778834e-10
5.6880433e-07
-4.1197419e-10
5.6881175e-07
-5.2642328e-10
5.6882202e-07
-6.5466944e-10
5.6883582e-07
-8.0124646e-10
5.6885415e-07
-9.7214849e-10
5.6887848e-07
-1.1755368e-09
5.6891097e-07
-1.4229127e-09
5.6895497e-07
-1.7310878e-09
5.6901577e-07
-2.1250403e-09
5.6910156e-07
-2.6446518e-09
5.6922723e-07
-3.372336e-09
5.6943532e-07
-4.463645e-09
5.6979896e-07
-6.0089884e-09
5.7025302e-07
-9.5079973e-09
5.7220672e-07
-2.9575827e-08
5.8877559e-07
5.391321e-07
5.967248e-08
4.6913958e-07
3.6665939e-08
6.194176e-07
2.2628127e-08
5.8751038e-07
1.6253545e-08
5.7701077e-07
1.2290492e-08
5.7405515e-07
9.6062525e-09
5.7230574e-07
7.6774839e-09
5.712784e-07
6.2361505e-09
5.7062878e-07
5.1266557e-09
5.7018709e-07
4.2489268e-09
5.69878e-07
3.5376288e-09
5.6965605e-07
2.948593e-09
5.6949302e-07
2.4507737e-09
5.6937139e-07
2.0216956e-09
5.6927972e-07
1.6446437e-09
5.6921034e-07
1.3068406e-09
5.69158e-07
9.9822884e-10
5.6911907e-07
7.1062972e-10
5.6909105e-07
4.3713731e-10
5.6907224e-07
1.7165981e-10
5.6906155e-07
-9.1449383e-11
5.6905839e-07
-3.5771364e-10
5.690626e-07
-6.3284526e-10
5.6907443e-07
-9.2307689e-10
5.6909456e-07
-1.2355478e-09
5.6912422e-07
-1.5787951e-09
5.6916526e-07
-1.9634164e-09
5.6922044e-07
-2.4030079e-09
5.6929374e-07
-2.9155528e-09
5.6939103e-07
-3.5255436e-09
5.6952096e-07
-4.2673996e-09
5.6969682e-07
-5.191486e-09
5.6993986e-07
-6.3744278e-09
5.702845e-07
-7.9349424e-09
5.7078775e-07
-1.0076252e-08
5.7157663e-07
-1.3204484e-08
5.7292719e-07
-1.8134403e-08
5.7518294e-07
-2.8176665e-08
5.8224898e-07
-4.5802658e-08
6.0640158e-07
4.9332944e-07
6.0008762e-08
4.0913082e-07
5.0487177e-08
6.2893918e-07
3.3370593e-08
6.0462696e-07
2.4817617e-08
5.8556374e-07
1.9323215e-08
5.7954955e-07
1.5331501e-08
5.7629746e-07
1.2360759e-08
5.7424914e-07
1.0101636e-08
5.728879e-07
8.340755e-09
5.7194797e-07
6.9349947e-09
5.7128376e-07
5.7882759e-09
5.7080276e-07
4.8338335e-09
5.7044746e-07
4.0239023e-09
5.7018132e-07
3.3234967e-09
5.6998013e-07
2.7063524e-09
5.6982749e-07
2.1522368e-09
5.6971212e-07
1.6451241e-09
5.6962619e-07
1.1719144e-09
5.6956426e-07
7.2150022e-10
5.6952266e-07
2.8405277e-10
5.69499e-07
-1.4955487e-10
5.69492e-07
-5.8825403e-10
5.695013e-07
-1.0412737e-09
5.6952745e-07
-1.5186607e-09
5.6957195e-07
-2.0318823e-09
5.6963744e-07
-2.5945859e-09
5.6972797e-07
-3.2236103e-09
5.6984946e-07
-3.9403975e-09
5.7001053e-07
-4.7730418e-09
5.7022367e-07
-5.759354e-09
5.7050727e-07
-6.9515195e-09
5.7088899e-07
-8.4237369e-09
5.7141208e-07
-1.0285405e-08
5.7214617e-07
-1.2698395e-08
5.7320074e-07
-1.5895867e-08
5.747741e-07
-2.0239708e-08
5.7727104e-07
-2.670805e-08
5.8165128e-07
-3.894757e-08
5.944885e-07
-4.8166912e-08
6.1562092e-07
4.4516253e-07
5.4878951e-08
3.5425187e-07
5.745202e-08
6.2636612e-07
4.0467405e-08
6.2161157e-07
3.0778642e-08
5.9525251e-07
2.4642965e-08
5.8568523e-07
1.995225e-08
5.8098817e-07
1.6312944e-08
5.7788844e-07
1.346659e-08
5.7573426e-07
1.1201073e-08
5.7421349e-07
9.3646875e-09
5.7312015e-07
7.8495488e-09
5.723179e-07
6.5771682e-09
5.7171984e-07
5.4896991e-09
5.7126879e-07
4.5438289e-09
5.70926e-07
3.7064622e-09
5.7066485e-07
2.9517418e-09
5.7046684e-07
2.2589497e-09
5.7031898e-07
1.6109901e-09
5.7021222e-07
9.9325759e-10
5.7014039e-07
3.9275711e-10
5.700995e-07
-2.0261912e-10
5.7008738e-07
-8.0473183e-10
5.7010341e-07
-1.4258157e-09
5.7014853e-07
-2.0791337e-09
5.7022527e-07
-2.7797282e-09
5.7033804e-07
-3.5453481e-09
5.7049359e-07
-4.3976565e-09
5.7070177e-07
-5.3638638e-09
5.7097674e-07
-6.4790075e-09
5.7133881e-07
-7.7892137e-09
5.7181748e-07
-9.3562628e-09
5.7245604e-07
-1.1263976e-08
5.7331979e-07
-1.3628618e-08
5.7451081e-07
-1.6611534e-08
5.7618365e-07
-2.0410498e-08
5.7857306e-07
-2.5292184e-08
5.8215272e-07
-3.2516502e-08
5.888756e-07
-4.5100152e-08
6.0707215e-07
-4.654886e-08
6.1706963e-07
3.9861367e-07
4.7965633e-08
3.0628624e-07
6.0076292e-08
6.1425546e-07
4.5399924e-08
6.3628794e-07
3.4875167e-08
6.0577726e-07
2.8399701e-08
5.9216069e-07
2.3419504e-08
5.8596837e-07
1.9434236e-08
5.8187371e-07
1.6229159e-08
5.7893933e-07
1.3619758e-08
5.7682289e-07
1.1466624e-08
5.7527328e-07
9.6646312e-09
5.741199e-07
8.1337392e-09
5.7325074e-07
6.8129243e-09
5.725896e-07
5.6551739e-09
5.7208375e-07
4.6237122e-09
5.7169631e-07
3.6892523e-09
5.714013e-07
2.827955e-09
5.7118028e-07
2.0198902e-09
5.7102029e-07
1.2478525e-09
5.7091243e-07
4.9641601e-10
5.7085094e-07
-2.4885887e-10
5.7083265e-07
-1.0021351e-09
5.7085669e-07
-1.7779896e-09
5.7092439e-07
-2.5921356e-09
5.7103941e-07
-3.4622386e-09
5.7120814e-07
-4.4089006e-09
5.7144025e-07
-5.4568995e-09
5.7174977e-07
-6.636799e-09
5.7215664e-07
-7.9870753e-09
5.7268909e-07
-9.5569908e-09
5.733874e-07
-1.141037e-08
5.7430942e-07
-1.3630023e-08
5.7553944e-07
-1.6324254e-08
5.7720504e-07
-1.9636665e-08
5.7949606e-07
-2.3737522e-08
5.8267392e-07
-2.8929734e-08
5.8734493e-07
-3.6790052e-08
5.9673592e-07
-4.8462731e-08
6.1874483e-07
-4.3193592e-08
6.1180049e-07
3.5542008e-07
4.0335896e-08
2.6595036e-07
5.8993786e-08
5.9559758e-07
4.832979e-08
6.4695194e-07
3.7587832e-08
6.1651922e-07
3.092869e-08
5.9881984e-07
2.5893857e-08
5.910032e-07
2.1779934e-08
5.8598763e-07
1.8392069e-08
5.823272e-07
1.5577604e-08
5.7963736e-07
1.3214489e-08
5.776364e-07
1.1206786e-08
5.761276e-07
9.4792e-09
5.7497832e-07
7.97259e-09
5.7409621e-07
6.6400508e-09
5.7341629e-07
5.443955e-09
5.7289241e-07
4.3536842e-09
5.7249157e-07
3.3438498e-09
5.7219011e-07
2.3928931e-09
5.7197124e-07
1.4819677e-09
5.7182335e-07
5.9401875e-10
5.7173889e-07
-2.8700736e-10
5.7171368e-07
-1.1768803e-09
5.7174656e-07
-2.0917887e-09
5.7183929e-07
-3.0490681e-09
5.7199669e-07
-4.0680072e-09
5.7222708e-07
-5.1707935e-09
5.7254303e-07
-6.3836657e-09
5.7296264e-07
-7.7383476e-09
5.7351132e-07
-9.2738464e-09
5.7422459e-07
-1.103876e-08
5.7515231e-07
-1.309431e-08
5.7636496e-07
-1.5517761e-08
5.7796289e-07
-1.8406515e-08
5.800938e-07
-2.1884748e-08
5.829743e-07
-2.6108246e-08
5.8689742e-07
-3.1486511e-08
5.927232e-07
-3.9652873e-08
6.0490228e-07
-4.9170831e-08
6.2826279e-07
-3.8577628e-08
6.0120729e-07
3.1684245e-07
3.2862522e-08
2.3308785e-07
5.5249613e-08
5.732105e-07
4.9231818e-08
6.5296973e-07
3.9061146e-08
6.2668989e-07
3.2430359e-08
6.0545062e-07
2.7518539e-08
5.9591502e-07
2.3438574e-08
5.900676e-07
2.0002891e-08
5.8576288e-07
1.7094936e-08
5.8254531e-07
1.4612485e-08
5.8011885e-07
1.247175e-08
5.7826833e-07
1.0605481e-08
5.7684459e-07
8.9594343e-09
5.7574226e-07
7.489418e-09
5.748863e-07
6.1591011e-09
5.7422273e-07
4.938257e-09
5.7371241e-07
3.8013199e-09
5.7332705e-07
2.7262086e-09
5.7304635e-07
1.69335e-09
5.7285621e-07
6.8484786e-10
5.7274739e-07
-3.1624847e-10
5.7271477e-07
-1.3266192e-09
5.7275693e-07
-2.3633396e-09
5.7287601e-07
-3.4445632e-09
5.7307792e-07
-4.5902634e-09
5.7337278e-07
-5.8230809e-09
5.7377585e-07
-7.1693203e-09
5.7430888e-07
-8.6601516e-09
5.7500215e-07
-1.033306e-08
5.758975e-07
-1.223362e-08
5.7705287e-07
-1.4417889e-08
5.7854923e-07
-1.6955293e-08
5.805003e-07
-1.9930678e-08
5.8306918e-07
-2.3444822e-08
5.8648844e-07
-2.7639146e-08
5.9109174e-07
-3.3032039e-08
5.9811609e-07
-4.1008366e-08
6.1287861e-07
-4.7685701e-08
6.3494012e-07
-3.3375077e-08
5.8689666e-07
2.8346737e-07
2.618879e-08
2.0689907e-07
5.0132185e-08
5.4926712e-07
4.8492969e-08
6.5460895e-07
3.9490523e-08
6.3569233e-07
3.3077013e-08
6.1186413e-07
2.8411694e-08
6.0058034e-07
2.4492698e-08
5.9398659e-07
2.1118168e-08
5.8913741e-07
1.8207222e-08
5.8545626e-07
1.5680632e-08
5.8264544e-07
1.3469259e-08
5.8047971e-07
1.1515923e-08
5.7879793e-07
9.7731097e-09
5.7748507e-07
8.201026e-09
5.7645839e-07
6.7661399e-09
5.7565761e-07
5.4399054e-09
5.7503865e-07
4.1976744e-09
5.7456928e-07
3.0177738e-09
5.7422626e-07
1.8807075e-09
5.7399328e-07
7.6845351e-10
5.7385964e-07
-3.361723e-10
5.738194e-07
-1.4501124e-09
5.7387087e-07
-2.5906604e-09
5.7401656e-07
-3.7760634e-09
5.7426332e-07
-5.0261653e-09
5.7462288e-07
-6.3631211e-09
5.7511281e-07
-7.8122095e-09
5.7575797e-07
-9.4027801e-09
5.7659272e-07
-1.1169361e-08
5.7766408e-07
-1.3152928e-08
5.7903644e-07
-1.5402552e-08
5.8079886e-07
-1.7977521e-08
5.8307527e-07
-2.0947289e-08
5.8603895e-07
-2.438705e-08
5.899282e-07
-2.8432333e-08
5.9513703e-07
-3.3688334e-08
6.0337209e-07
-4.1059629e-08
6.202499e-07
-4.4794675e-08
6.3867517e-07
-2.8203235e-08
5.7030522e-07
2.5526414e-07
2.0570661e-08
1.8632843e-07
4.4582537e-08
5.2525527e-07
4.6642116e-08
6.5254938e-07
3.9152454e-08
6.4318199e-07
3.3083208e-08
6.1793338e-07
2.8717136e-08
6.0494641e-07
2.5037818e-08
5.9766591e-07
2.1803643e-08
5.9237159e-07
1.895929e-08
5.8830061e-07
1.6448708e-08
5.8515602e-07
1.4218395e-08
5.8271002e-07
1.2222169e-08
5.8079415e-07
1.0420246e-08
5.7928699e-07
8.7782702e-09
5.7810036e-07
7.266484e-09
5.771694e-07
5.8589194e-09
5.7644621e-07
4.5326574e-09
5.7589554e-07
3.2671614e-09
5.7549175e-07
2.0436715e-09
5.7521677e-07
8.4464644e-10
5.7505867e-07
-3.4675567e-10
5.750108e-07
-1.5471739e-09
5.7507129e-07
-2.7735419e-09
5.7524293e-07
-4.0435887e-09
5.7553337e-07
-5.3763636e-09
5.7595566e-07
-6.7928019e-09
5.7652925e-07
-8.3163424e-09
5.7728151e-07
-9.9736119e-09
5.7824999e-07
-1.1795192e-08
5.7948566e-07
-1.3816415e-08
5.8105766e-07
-1.607827e-08
5.8306071e-07
-1.8628611e-08
5.8562561e-07
-2.1520546e-08
5.8893088e-07
-2.4808095e-08
5.9321575e-07
-2.8637466e-08
5.989664e-07
-3.3655927e-08
6.0839055e-07
-4.0139983e-08
6.2673396e-07
-4.1155816e-08
6.39691e-07
-2.3415477e-08
5.5256488e-07
2.3184866e-07
1.6015195e-08
1.7031326e-07
3.9143097e-08
5.021274e-07
4.4117497e-08
6.4757499e-07
3.8288657e-08
6.4901083e-07
3.2653067e-08
6.2356896e-07
2.8590918e-08
6.0900856e-07
2.5183105e-08
6.0107373e-07
2.2135683e-08
5.9541901e-07
1.9404759e-08
5.9103153e-07
1.6954275e-08
5.8760651e-07
1.4745249e-08
5.8491905e-07
1.2742084e-08
5.8279732e-07
1.0912863e-08
5.8111622e-07
9.2290642e-09
5.7978416e-07
7.6652107e-09
5.7873325e-07
6.1984525e-09
5.7791297e-07
4.8081406e-09
5.7728585e-07
3.4753988e-09
5.7682449e-07
2.1827033e-09
5.7650946e-07
9.1347375e-10
5.763279e-07
-3.4832338e-10
5.762726e-07
-1.6185614e-09
5.7634153e-07
-2.9133456e-09
5.7653771e-07
-4.2494035e-09
5.7686942e-07
-5.6444842e-09
5.7735074e-07
-7.1177732e-09
5.7800253e-07
-8.6903195e-09
5.7885406e-07
-1.0385474e-08
5.7994514e-07
-1.2229346e-08
5.8132953e-07
-1.4251221e-08
5.8307953e-07
-1.6483926e-08
5.8529342e-07
-1.8964217e-08
5.881059e-07
-2.1730235e-08
5.916969e-07
-2.4822459e-08
5.9630797e-07
-2.8409745e-08
6.0255368e-07
-3.3119178e-08
6.1309999e-07
-3.8544356e-08
6.3215914e-07
-3.7211613e-08
6.3835826e-07
-1.9181194e-08
5.3453446e-07
2.1266747e-07
1.2423429e-08
1.5788986e-07
3.4112961e-08
4.8043792e-07
4.1248317e-08
6.4043965e-07
3.7077281e-08
6.5318186e-07
3.1940718e-08
6.2870552e-07
2.8167759e-08
6.1278152e-07
2.5032186e-08
6.042093e-07
2.2191531e-08
5.9825966e-07
1.9600724e-08
5.9362234e-07
1.7239177e-08
5.8996805e-07
1.5080256e-08
5.8707797e-07
1.3097643e-08
5.8477993e-07
1.1266698e-08
5.8294716e-07
9.5645643e-09
5.8148629e-07
7.9701195e-09
5.803277e-07
6.4638483e-09
5.7941924e-07
5.0276624e-09
5.7872204e-07
3.6446725e-09
5.7820748e-07
2.2989334e-09
5.778552e-07
9.7517317e-10
5.7765166e-07
-3.4148379e-10
5.7758926e-07
-1.6657955e-09
5.7766584e-07
-3.0126885e-09
5.7788461e-07
-4.3975385e-09
5.7825427e-07
-5.8364488e-09
5.7878965e-07
-7.3465239e-09
5.7951261e-07
-8.9461288e-09
5.8045366e-07
-1.0655121e-08
5.8165414e-07
-1.2495061e-08
5.8316947e-07
-1.4489371e-08
5.8507384e-07
-1.6663368e-08
5.8746742e-07
-1.9043944e-08
5.9048648e-07
-2.1656598e-08
5.9430956e-07
-2.4535525e-08
5.991869e-07
-2.7875223e-08
6.0589338e-07
-3.2220773e-08
6.1744554e-07
-3.6514882e-08
6.3645325e-07
-3.3263333e-08
6.3510671e-07
-1.5562059e-08
5.1683319e-07
1.9710541e-07
9.656744e-09
1.4823315e-07
2.9644436e-08
4.6045029e-07
3.8281227e-08
6.3180289e-07
3.5656489e-08
6.558066e-07
3.1057331e-08
6.3330467e-07
2.7552017e-08
6.1628683e-07
2.4671623e-08
6.0708969e-07
2.2039955e-08
6.0089133e-07
1.9601047e-08
5.9606125e-07
1.7344926e-08
5.9222417e-07
1.5254973e-08
5.8916792e-07
1.3312603e-08
5.867223e-07
1.1499478e-08
5.8476028e-07
9.7978667e-09
5.8318791e-07
8.1907591e-09
5.819348e-07
6.6619291e-09
5.8094807e-07
5.1959257e-09
5.8018804e-07
3.7779987e-09
5.7962541e-07
2.3939775e-09
5.7923922e-07
1.0301206e-09
5.7901551e-07
-3.2705585e-10
5.7894643e-07
-1.6909561e-09
5.7902974e-07
-3.0750935e-09
5.7926874e-07
-4.4932697e-09
5.7967245e-07
-5.9597455e-09
5.8025612e-07
-7.4893925e-09
5.8104226e-07
-9.0978166e-09
5.8206208e-07
-1.0801433e-08
5.8335775e-07
-1.2617497e-08
5.8498553e-07
-1.4564094e-08
5.8702044e-07
-1.6659968e-08
5.8956329e-07
-1.89236e-08
5.9275011e-07
-2.1370505e-08
5.9675646e-07
-2.403481e-08
6.0185121e-07
-2.7132754e-08
6.0899132e-07
-3.1078864e-08
6.2139165e-07
-3.4255686e-08
6.3963007e-07
-2.9516112e-08
6.3036713e-07
-1.2553428e-08
4.998705e-07
1.8455198e-07
7.5663152e-09
1.4066687e-07
2.5785183e-08
4.4223149e-07
3.5387082e-08
6.2220103e-07
3.4136126e-08
6.5705755e-07
3.0085886e-08
6.3735491e-07
2.6823673e-08
6.1954904e-07
2.4171089e-08
6.0974228e-07
2.1738724e-08
6.033237e-07
1.9453002e-08
5.9834697e-07
1.7309568e-08
5.9436761e-07
1.5299536e-08
5.9117795e-07
1.3410521e-08
5.8861132e-07
1.16294e-08
5.8654141e-07
9.9428541e-09
5.8487445e-07
8.3375585e-09
5.835401e-07
6.8003527e-09
5.8248528e-07
5.3183397e-09
5.8167005e-07
3.8789189e-09
5.8106483e-07
2.4697667e-09
5.8064837e-07
1.0787813e-09
5.804065e-07
-3.0599919e-10
5.8033121e-07
-1.6964897e-09
5.8042023e-07
-3.104661e-09
5.8067691e-07
-4.5426325e-09
5.8111042e-07
-6.0227525e-09
5.8173624e-07
-7.5576521e-09
5.8257716e-07
-9.1602639e-09
5.836647e-07
-1.0843788e-08
5.8504128e-07
-1.2621602e-08
5.8676335e-07
-1.450714e-08
5.8890598e-07
-1.6513591e-08
5.9156974e-07
-1.8652558e-08
5.9488907e-07
-2.0932554e-08
5.9903646e-07
-2.3392742e-08
6.0431139e-07
-2.6262689e-08
6.1186127e-07
-2.9794508e-08
6.2492346e-07
-3.192841e-08
6.4176397e-07
-2.609229e-08
6.2453101e-07
-1.010865e-08
4.8388686e-07
1.7444333e-07
6.0115688e-09
1.3465535e-07
2.2513419e-08
4.2572974e-07
3.2667733e-08
6.1204678e-07
3.2596628e-08
6.5712866e-07
2.9086463e-08
6.4086506e-07
2.6042883e-08
6.2259262e-07
2.3585911e-08
6.1219925e-07
2.1335407e-08
6.055742e-07
1.9196772e-08
6.004856e-07
1.7166537e-08
5.9639784e-07
1.5241321e-08
5.9310317e-07
1.3413487e-08
5.9043915e-07
1.1674042e-08
5.8828085e-07
1.0013306e-08
5.8653519e-07
8.4211258e-09
5.8513228e-07
6.887078e-09
5.8401932e-07
5.4006296e-09
5.831565e-07
3.9512371e-09
5.8251422e-07
2.5283986e-09
5.8207121e-07
1.1216688e-09
5.8181323e-07
-2.793511e-10
5.8173223e-07
-1.6850386e-09
5.8182592e-07
-3.1057821e-09
5.8209766e-07
-4.5520043e-09
5.8255664e-07
-6.0341702e-09
5.8321841e-07
-7.562768e-09
5.8410575e-07
-9.1482532e-09
5.8525018e-07
-1.0800944e-08
5.8669397e-07
-1.2530859e-08
5.8849326e-07
-1.4347548e-08
5.9072267e-07
-1.6259703e-08
5.934819e-07
-1.8273629e-08
5.96903e-07
-2.039392e-08
6.0115675e-07
-2.2668329e-08
6.065858e-07
-2.5328609e-08
6.1452155e-07
-2.8448293e-08
6.2804315e-07
-2.9647245e-08
6.4296292e-07
-2.3047127e-08
6.179309e-07
-8.1592737e-09
4.6899901e-07
1.6628406e-07
4.8698006e-09
1.2978561e-07
1.9770592e-08
4.1082906e-07
3.0171446e-08
6.01646e-07
3.1090329e-08
6.5620979e-07
2.8098548e-08
6.4385684e-07
2.5251929e-08
6.2543924e-07
2.2958205e-08
6.1449297e-07
2.0868046e-08
6.0766436e-07
1.8865624e-08
6.0248803e-07
1.6944384e-08
5.9831908e-07
1.5104393e-08
5.9494316e-07
1.3341454e-08
5.9220209e-07
1.1649685e-08
5.8997262e-07
1.0022285e-08
5.8816259e-07
8.4517277e-09
5.8670284e-07
6.929948e-09
5.855411e-07
5.4485228e-09
5.8463793e-07
3.9988037e-09
5.8396394e-07
2.5720135e-09
5.83498e-07
1.1593104e-09
5.8322593e-07
-2.4817164e-10
5.8313971e-07
-1.6592952e-09
5.8323704e-07
-3.0828981e-09
5.8352126e-07
-4.5277637e-09
5.8400151e-07
-6.0025764e-09
5.8469322e-07
-7.5158512e-09
5.8561903e-07
-9.075831e-09
5.8681016e-07
-1.0690343e-08
5.8830848e-07
-1.2366614e-08
5.9016953e-07
-1.4111085e-08
5.9246714e-07
-1.5928984e-08
5.9529979e-07
-1.7822847e-08
5.9879686e-07
-1.9796153e-08
6.0313005e-07
-2.1906979e-08
6.0869663e-07
-2.4377246e-08
6.1699182e-07
-2.7098962e-08
6.3076487e-07
-2.7484292e-08
6.4334825e-07
-2.0389987e-08
6.1083659e-07
-6.6296486e-09
4.5523867e-07
1.5965441e-07
4.0386505e-09
1.2574702e-07
1.748422e-08
3.9738363e-07
2.7912181e-08
5.9121814e-07
2.9647853e-08
6.5447414e-07
2.7145333e-08
6.4635935e-07
2.4477992e-08
6.2810657e-07
2.2318105e-08
6.1665286e-07
2.0365707e-08
6.0961676e-07
1.8486121e-08
6.0436761e-07
1.666673e-08
6.0013847e-07
1.4909273e-08
5.9670061e-07
1.3211889e-08
5.9389947e-07
1.1570918e-08
5.9161359e-07
9.9817423e-09
5.8975176e-07
8.4389308e-09
5.8824565e-07
6.9363863e-09
5.8704365e-07
5.4675104e-09
5.861068e-07
4.0253466e-09
5.8540611e-07
2.6026982e-09
5.8492065e-07
1.1922218e-09
5.8463641e-07
-2.1349824e-10
5.8454543e-07
-1.6218853e-09
5.8464543e-07
-3.0403115e-09
5.8493969e-07
-4.4760307e-09
5.8543723e-07
-5.9360989e-09
5.8615329e-07
-7.427273e-09
5.871102e-07
-8.9558831e-09
5.8833877e-07
-1.0527678e-08
5.8988027e-07
-1.2147652e-08
5.9178951e-07
-1.3819866e-08
5.9413935e-07
-1.554702e-08
5.9702695e-07
-1.7329244e-08
6.0057909e-07
-1.9171211e-08
6.0497202e-07
-2.1141408e-08
6.1066683e-07
-2.3440582e-08
6.1929099e-07
-2.5786268e-08
6.3311055e-07
-2.5479309e-08
6.4304129e-07
-1.8102337e-08
6.0345962e-07
-5.4454009e-09
4.4258174e-07
1.5420901e-07
3.4354423e-09
1.2231166e-07
1.558049e-08
3.8523875e-07
2.5883318e-08
5.8091543e-07
2.8284613e-08
6.5207288e-07
2.6238678e-08
6.4840527e-07
2.3736951e-08
6.3060829e-07
2.1685912e-08
6.187039e-07
1.98496e-08
6.1145307e-07
1.8078673e-08
6.0613854e-07
1.6352473e-08
6.0186467e-07
1.4672933e-08
5.9838015e-07
1.303964e-08
5.9553276e-07
1.1450437e-08
5.9320279e-07
9.9022874e-09
5.9129991e-07
8.3913753e-09
5.8975656e-07
6.9131947e-09
5.8852183e-07
5.4626826e-09
5.8755732e-07
4.0343522e-09
5.8683444e-07
2.6224153e-09
5.8633259e-07
1.2208889e-09
5.8603793e-07
-1.7631041e-10
5.8594263e-07
-1.5752799e-09
5.860444e-07
-2.9820473e-09
5.8634645e-07
-4.4024808e-09
5.8685766e-07
-5.8421899e-09
5.87593e-07
-7.3064089e-09
5.8857442e-07
-8.7998641e-09
5.8983223e-07
-1.0326628e-08
5.9140704e-07
-1.1889971e-08
5.9335285e-07
-1.3492225e-08
5.957416e-07
-1.5134347e-08
5.9866907e-07
-1.6815235e-08
6.0225998e-07
-1.8542501e-08
6.0669929e-07
-2.0393839e-08
6.1251816e-07
-2.2539104e-08
6.2143626e-07
-2.4535065e-08
6.3510651e-07
-2.3649129e-08
6.4215536e-07
-1.6150195e-08
5.9596068e-07
-4.5381188e-09
4.3096966e-07
1.4967089e-07
2.9955449e-09
1.1931621e-07
1.3990932e-08
3.7424356e-07
2.4066994e-08
5.7083953e-07
2.7005757e-08
6.4913416e-07
2.5382963e-08
6.5002806e-07
2.3036821e-08
6.3295442e-07
2.1074477e-08
6.2066624e-07
1.9334593e-08
6.1319296e-07
1.7658451e-08
6.0781468e-07
1.6016284e-08
6.0350684e-07
1.4409015e-08
5.9998742e-07
1.2836992e-08
5.9710479e-07
1.1299001e-08
5.9474079e-07
9.7930944e-09
5.9280582e-07
8.316658e-09
5.91233e-07
6.8664367e-09
5.8997205e-07
5.4386271e-09
5.8898513e-07
4.0289889e-09
5.8824407e-07
2.6329585e-09
5.8772862e-07
1.2457578e-09
5.8742513e-07
-1.3750443e-10
5.873259e-07
-1.5217349e-09
5.8742863e-07
-2.91176e-09
5.8773648e-07
-4.3122249e-09
5.8825813e-07
-5.7274862e-09
5.8900826e-07
-7.1614945e-09
5.9000843e-07
-8.6176683e-09
5.912884e-07
-1.009877e-08
5.9288814e-07
-1.1606798e-08
5.9486088e-07
-1.3142887e-08
5.9727769e-07
-1.4706906e-08
6.0023309e-07
-1.6297494e-08
6.0385057e-07
-1.7926385e-08
6.0832818e-07
-1.9678361e-08
6.1427014e-07
-2.1684673e-08
6.2344257e-07
-2.3358836e-08
6.3678067e-07
-2.1994921e-08
6.4079144e-07
-1.4492522e-08
5.8845828e-07
-3.8479035e-09
4.2032504e-07
1.4582298e-07
2.6701195e-09
1.166462e-07
1.2655802e-08
3.6425812e-07
2.2440459e-08
5.6105507e-07
2.5809919e-08
6.4576477e-07
2.4577786e-08
6.5126018e-07
2.2380307e-08
6.3515189e-07
2.0491205e-08
6.2255534e-07
1.8830657e-08
6.148535e-07
1.7236392e-08
6.0940895e-07
1.5669258e-08
6.0507397e-07
1.4128224e-08
6.0152846e-07
1.2613873e-08
5.9861914e-07
1.1125516e-08
5.9622914e-07
9.6619117e-09
5.9426942e-07
8.221302e-09
5.9267361e-07
6.8013893e-09
5.9139196e-07
5.3993796e-09
5.9038713e-07
4.0120663e-09
5.8963139e-07
2.6359281e-09
5.8910475e-07
1.2672299e-09
5.8879383e-07
-9.7876737e-11
5.88691e-07
-1.4632542e-09
5.8879401e-07
-2.8326803e-09
5.891059e-07
-4.2097453e-09
5.8963519e-07
-5.5977465e-09
5.9039626e-07
-6.9995781e-09
5.9141026e-07
-8.4176218e-09
5.9270644e-07
-9.8536512e-09
5.9432417e-07
-1.1308769e-08
5.9631599e-07
-1.2783344e-08
5.9875227e-07
-1.427668e-08
6.0172642e-07
-1.5787933e-08
6.0536182e-07
-1.7333624e-08
6.0987387e-07
-1.9002905e-08
6.1593942e-07
-2.0882772e-08
6.2532243e-07
-2.2262709e-08
6.3816061e-07
-2.0507982e-08
6.3903671e-07
-1.3086805e-08
5.8103711e-07
-3.3243492e-09
4.1056258e-07
1.4249863e-07
2.4234254e-09
1.1422291e-07
1.1525183e-08
3.5515664e-07
2.0980156e-08
5.5160034e-07
2.4692109e-08
6.4205291e-07
2.3819968e-08
6.5213232e-07
2.1766693e-08
6.3720514e-07
1.9939619e-08
6.243824e-07
1.8344066e-08
6.1644906e-07
1.6820103e-08
6.1093291e-07
1.5319566e-08
6.0657451e-07
1.383877e-08
6.0300925e-07
1.2378136e-08
6.0007977e-07
1.0937205e-08
5.9767007e-07
9.5151486e-09
5.9569148e-07
8.1107925e-09
5.9407796e-07
6.7225494e-09
5.9278021e-07
5.3484155e-09
5.9176127e-07
3.9860242e-09
5.9099378e-07
2.632723e-09
5.9045806e-07
1.2856617e-09
5.9014089e-07
-5.8114989e-11
5.9003478e-07
-1.4015729e-09
5.9013746e-07
-2.7475942e-09
5.9045193e-07
-4.0988789e-09
5.9098648e-07
-5.4578483e-09
5.9175523e-07
-6.8265485e-09
5.9277896e-07
-8.2065622e-09
5.9408646e-07
-9.5989466e-09
5.9571655e-07
-1.1004213e-08
5.9772126e-07
-1.2422299e-08
6.0017035e-07
-1.3852344e-08
6.0315647e-07
-1.5294613e-08
6.0680409e-07
-1.6770625e-08
6.1134988e-07
-1.8370877e-08
6.1753967e-07
-2.0134397e-08
6.2708595e-07
-2.1246136e-08
6.3927235e-07
-1.9174264e-08
6.3696484e-07
-1.1892883e-08
5.7375573e-07
-2.9264498e-09
4.0159615e-07
1.3957218e-07
2.2300822e-09
1.1199298e-07
1.0558615e-08
3.4682844e-07
1.9664016e-08
5.4249523e-07
2.364576e-08
6.3807129e-07
2.3105022e-08
6.5267306e-07
2.1193271e-08
6.3911688e-07
1.9420613e-08
6.2615506e-07
1.7878385e-08
6.1799129e-07
1.6414629e-08
6.1239667e-07
1.4973039e-08
6.080161e-07
1.3546796e-08
6.0443549e-07
1.2135862e-08
6.0149071e-07
1.0739808e-08
5.9906613e-07
9.3580054e-09
5.9707328e-07
7.9896539e-09
5.9544631e-07
6.6336754e-09
5.9413618e-07
5.2886705e-09
5.9310627e-07
3.952941e-09
5.9232951e-07
2.6245447e-09
5.9178645e-07
1.3013676e-09
5.9146407e-07
-1.879534e-11
5.9135494e-07
-1.3381568e-09
5.9145682e-07
-2.6588481e-09
5.9177262e-07
-3.9828341e-09
5.9231046e-07
-5.3118275e-09
5.9308422e-07
-6.6472101e-09
5.9411434e-07
-7.9899692e-09
5.9542921e-07
-9.3406673e-09
5.9706725e-07
-1.0699462e-08
5.9908006e-07
-1.2066106e-08
6.01537e-07
-1.3439876e-08
6.0453024e-07
-1.4822571e-08
6.0818678e-07
-1.6240543e-08
6.1276785e-07
-1.7782543e-08
6.1908167e-07
-1.9437632e-08
6.2874104e-07
-2.0305079e-08
6.401398e-07
-1.7977516e-08
6.3463728e-07
-1.0874877e-08
5.6665309e-07
-2.6217506e-09
3.9334302e-07
1.3695043e-07
2.0726041e-09
1.0992056e-07
9.7239878e-09
3.3917744e-07
1.8472494e-08
5.3374708e-07
2.2664008e-08
6.3387993e-07
2.2428131e-08
6.5290894e-07
2.0656362e-08
6.4088862e-07
1.8933411e-08
6.27878e-07
1.7435275e-08
6.1948942e-07
1.6023103e-08
6.1380884e-07
1.4633687e-08
6.0940551e-07
1.3256775e-08
6.0581241e-07
1.1891656e-08
6.0285583e-07
1.0537797e-08
6.0041999e-07
9.1946223e-09
5.9841646e-07
7.8615505e-09
5.9677939e-07
6.5378534e-09
5.9545988e-07
5.2225815e-09
5.9442154e-07
3.9145578e-09
5.9363753e-07
2.6124098e-09
5.930886e-07
1.314624e-09
5.9276186e-07
1.9613073e-11
5.9264995e-07
-1.2742132e-09
5.9275065e-07
-2.5683714e-09
5.9306678e-07
-3.8642313e-09
5.9360632e-07
-5.1629454e-09
5.9438294e-07
-6.465389e-09
5.9541679e-07
-7.7721217e-09
5.9673595e-07
-9.0833873e-09
5.9837852e-07
-1.0399166e-08
6.0039583e-07
-1.1719206e-08
6.0285704e-07
-1.3043132e-08
6.0585416e-07
-1.437456e-08
6.0951821e-07
-1.5744224e-08
6.1413751e-07
-1.7236147e-08
6.2057359e-07
-1.8788866e-08
6.3029376e-07
-1.9433625e-08
6.4078456e-07
-1.6901218e-08
6.3210487e-07
-1.0001718e-08
5.5975359e-07
-2.3851377e-09
3.8572644e-07
1.345653e-07
1.9393198e-09
1.0798145e-07
8.9961753e-09
3.3212104e-07
1.738887e-08
5.2535481e-07
2.1740401e-08
6.295286e-07
2.1784716e-08
6.5286465e-07
2.0151987e-08
6.4252133e-07
1.8476274e-08
6.295537e-07
1.7015119e-08
6.2095057e-07
1.5647281e-08
6.1517668e-07
1.4304137e-08
6.1074866e-07
1.2971867e-08
6.0714468e-07
1.1648922e-08
6.0417877e-07
1.0334581e-08
6.0173433e-07
9.0282329e-09
5.997228e-07
7.7293965e-09
5.9807822e-07
6.4375728e-09
5.967517e-07
5.1521376e-09
5.9570698e-07
3.8723108e-09
5.9491736e-07
2.5971675e-09
5.9436374e-07
1.3256752e-09
5.9403335e-07
5.6745045e-11
5.9391888e-07
-1.2107097e-09
5.9401811e-07
-2.4777116e-09
5.9433378e-07
-3.7451589e-09
5.9487377e-07
-5.0137719e-09
5.9565155e-07
-6.284052e-09
5.9668707e-07
-7.5562657e-09
5.9800816e-07
-8.8304723e-09
5.9965272e-07
-1.0106604e-08
6.0167197e-07
-1.138452e-08
6.0413495e-07
-1.2664348e-08
6.0713399e-07
-1.3951677e-08
6.1080554e-07
-1.528096e-08
6.154668e-07
-1.6728742e-08
6.2202138e-07
-1.8183659e-08
6.3174868e-07
-1.8625094e-08
6.4122599e-07
-1.5929774e-08
6.2940955e-07
-9.2472734e-09
5.5307109e-07
-2.1976378e-09
3.7867681e-07
1.3236766e-07
1.8226875e-09
1.06159e-07
8.355687e-09
3.2558858e-07
1.6399125e-08
5.1731188e-07
2.0869219e-08
6.2505877e-07
2.1170722e-08
6.5256319e-07
1.9676268e-08
6.4401575e-07
1.8046975e-08
6.3118298e-07
1.661748e-08
6.2238007e-07
1.5287952e-08
6.1650621e-07
1.3985992e-08
6.1205062e-07
1.2694212e-08
6.0843646e-07
1.1410104e-08
6.0546288e-07
1.0132706e-08
6.0301172e-07
8.8613121e-09
6.009942e-07
7.5954673e-09
5.9934407e-07
6.3348078e-09
5.9801236e-07
5.0789362e-09
5.9696285e-07
3.8273669e-09
5.9616893e-07
2.5795193e-09
5.9561159e-07
1.3347377e-09
5.9527813e-07
9.2327833e-11
5.9516129e-07
-1.1483986e-09
5.9525883e-07
-2.3880751e-09
5.9557345e-07
-3.6272357e-09
5.9611293e-07
-4.8662761e-09
5.9689059e-07
-6.1054314e-09
5.9792622e-07
-7.3447806e-09
5.9924751e-07
-8.5842986e-09
6.0089224e-07
-9.8239555e-09
6.0291162e-07
-1.10638e-08
6.053748e-07
-1.2304562e-08
6.0837475e-07
-1.3553861e-08
6.1205484e-07
-1.4849066e-08
6.16762e-07
-1.6256792e-08
6.234291e-07
-1.7617334e-08
6.3310922e-07
-1.7872774e-08
6.4148143e-07
-1.5049135e-08
6.2658591e-07
-8.5900204e-09
5.4661197e-07
-2.0452512e-09
3.7213204e-07
1.3032241e-07
1.7179865e-09
1.044413e-07
7.7874434e-09
3.1951974e-07
1.549163e-08
5.0960829e-07
2.0045574e-08
6.2050514e-07
2.0582722e-08
6.520261e-07
1.9225644e-08
6.4537281e-07
1.7643113e-08
6.3276549e-07
1.6241428e-08
6.2378175e-07
1.4945249e-08
6.1780239e-07
1.3680115e-08
6.1331575e-07
1.2425186e-08
6.0969139e-07
1.1176897e-08
6.0671117e-07
9.9340158e-09
6.042546e-07
8.6957129e-09
6.022325e-07
7.4615045e-09
6.0057828e-07
6.2310961e-09
5.9924277e-07
5.0042397e-09
5.9818971e-07
3.7806617e-09
5.973925e-07
2.5600394e-09
5.9683221e-07
1.3420055e-09
5.9649616e-07
1.2617124e-10
5.9637713e-07
-1.0878432e-09
5.9647285e-07
-2.3003729e-09
5.9678598e-07
-3.5116772e-09
5.9732423e-07
-4.7219165e-09
5.9810083e-07
-5.9311452e-09
5.9913545e-07
-7.1393359e-09
6.004557e-07
-8.3464495e-09
6.0209935e-07
-9.5525502e-09
6.0411772e-07
-1.0757922e-08
6.0658017e-07
-1.196396e-08
6.0958079e-07
-1.3180287e-08
6.1327116e-07
-1.4446299e-08
6.1802802e-07
-1.5816577e-08
6.2479938e-07
-1.7085354e-08
6.34378e-07
-1.7170366e-08
6.4156644e-07
-1.4247041e-08
6.2366259e-07
-8.0125082e-09
5.4037744e-07
-1.9178764e-09
3.6603741e-07
1.2840453e-07
1.6223459e-09
1.0281927e-07
7.2797415e-09
3.1386306e-07
1.4656755e-08
5.0223198e-07
1.926536e-08
6.1589692e-07
2.0017918e-08
6.5127363e-07
1.8796975e-08
6.4659372e-07
1.7262305e-08
6.3430013e-07
1.588576e-08
6.2515829e-07
1.4618877e-08
6.1906927e-07
1.3386846e-08
6.1454778e-07
1.2165592e-08
6.1091264e-07
1.0950421e-08
6.0792634e-07
9.7398075e-09
6.0546522e-07
8.5327858e-09
6.0343952e-07
7.3288122e-09
6.0178225e-07
6.1276125e-09
6.0044397e-07
4.9290291e-09
5.9938829e-07
3.7329348e-09
5.985886e-07
2.5391939e-09
5.9802595e-07
1.3476543e-09
5.976877e-07
1.5815703e-10
5.9756662e-07
-1.029445e-09
5.9766045e-07
-2.2152639e-09
5.979718e-07
-3.3993592e-09
5.9850833e-07
-4.5817273e-09
5.992832e-07
-5.7623096e-09
6.0031603e-07
-6.9410316e-09
6.0163442e-07
-8.1178884e-09
6.0327621e-07
-9.293071e-09
6.0529291e-07
-1.0467121e-08
6.0775422e-07
-1.164214e-08
6.1075581e-07
-1.2829658e-08
6.1445868e-07
-1.4070164e-08
6.1926852e-07
-1.5404466e-08
6.2613368e-07
-1.6583552e-08
6.3555708e-07
-1.6512205e-08
6.414951e-07
-1.3513018e-08
6.206634e-07
-7.5007463e-09
5.3436517e-07
-1.808379e-09
3.6034504e-07
1.2659615e-07
1.5340558e-09
1.0128559e-07
6.8234228e-09
3.0857452e-07
1.3886493e-08
4.9516974e-07
1.8525149e-08
6.1125874e-07
1.9474066e-08
6.5032483e-07
1.838756e-08
6.476802e-07
1.6902292e-08
6.3578537e-07
1.5549153e-08
6.2651142e-07
1.4308267e-08
6.2031015e-07
1.3106163e-08
6.1574989e-07
1.1915818e-08
6.1210298e-07