/*--------------------------------*- C++ -*----------------------------------*\
  =========                 |
  \\      /  F ield         | OpenFOAM: The Open Source CFD Toolbox
   \\    /   O peration     | Website:  https://openfoam.org
    \\  /    A nd           | Version:  10
     \\/     M anipulation  |
\*---------------------------------------------------------------------------*/
FoamFile
{
    format      ascii;
    class       volScalarField;
    location    "0.23";
    object      TporMedia_0;
}
// * * * * * * * * * * * * * * * * * * * * * * * * * * * * * * * * * * * * * //

dimensions      [0 0 0 1 0 0 0];

internalField   nonuniform List<scalar> 
4000
(
0.00042332486
0.00012348134
0.00016175658
0.00016712598
0.00015220499
0.00015146296
0.00013784583
0.00015910269
0.00014677484
0.00016067753
0.00014539298
0.00016809584
0.00016552103
0.00015873565
0.00015456519
0.00015798994
0.0001500958
0.00014351705
0.0001579092
0.00016178919
0.00015430095
0.0001464574
0.00014617465
0.00014752528
0.00015457514
0.00015993414
0.00014787697
0.00015499463
0.00014698698
0.00016263387
0.00015262282
0.00014992699
0.00016418706
0.00015308876
0.00014974189
0.0001469652
0.00015452557
0.00014402136
0.0001633309
0.00015286649
-0.00012688251
-5.0811243e-13
3.3996848e-11
4.7605177e-11
3.9412058e-11
4.363819e-11
3.6722646e-11
4.5787271e-11
4.1463852e-11
4.7579488e-11
4.3170484e-11
4.4511306e-11
4.5499906e-11
4.1590407e-11
3.9232796e-11
4.429597e-11
3.9202134e-11
3.376346e-11
3.6530285e-11
5.1670895e-11
4.0421125e-11
4.2075326e-11
3.9307633e-11
4.2194112e-11
3.8772581e-11
4.0242802e-11
4.7590302e-11
4.0442391e-11
4.2219472e-11
4.1083992e-11
3.7187345e-11
4.9955827e-11
5.216738e-11
4.0964512e-11
4.4772226e-11
3.7658306e-11
4.0476083e-11
3.8940708e-11
4.5616292e-11
4.1715016e-11
-3.771868e-05
-7.8810731e-12
3.1516704e-18
1.3746898e-17
9.4787216e-18
1.077376e-17
9.316032e-18
1.283477e-17
1.0408816e-17
1.2615573e-17
1.0921022e-17
1.3142101e-17
1.2341187e-17
9.7381817e-18
1.0280044e-17
1.2391522e-17
1.0480051e-17
8.6278079e-18
1.124846e-17
1.2652273e-17
1.1518722e-17
1.0660364e-17
1.1751144e-17
9.8528097e-18
1.0321902e-17
1.1484833e-17
1.2158214e-17
1.0740826e-17
1.2034143e-17
1.0112703e-17
8.8097712e-18
1.2195433e-17
1.2903761e-17
1.0183066e-17
1.1469221e-17
9.3019413e-18
9.0879514e-18
9.2860549e-18
1.3622986e-17
1.0376858e-17
-1.794597e-05
2.9053363e-12
2.1652351e-19
2.2903587e-24
2.5786589e-24
2.8341943e-24
2.3240815e-24
3.1820557e-24
2.5709929e-24
3.2673311e-24
3.4839161e-24
3.5609153e-24
3.0366928e-24
2.3701547e-24
2.3375644e-24
3.3890445e-24
2.5557974e-24
2.0538917e-24
2.8657175e-24
3.1892522e-24
2.6128792e-24
3.0084405e-24
2.8744926e-24
2.7819096e-24
2.417461e-24
2.6510157e-24
3.2034367e-24
2.7824501e-24
3.02172e-24
2.4534837e-24
2.2583464e-24
3.5529748e-24
3.3772072e-24
2.9007449e-24
2.9489274e-24
2.307337e-24
2.2978866e-24
2.2477027e-24
3.6094859e-24
2.5880649e-24
-1.0766735e-05
3.5562279e-13
2.197298e-20
2.3261492e-27
6.207754e-31
7.4111063e-31
5.8508701e-31
9.2236496e-31
6.7586804e-31
8.0954537e-31
8.5558296e-31
9.1884841e-31
9.2585415e-31
6.7673081e-31
5.6088894e-31
9.6098008e-31
6.744611e-31
5.7514152e-31
6.7874282e-31
8.3377402e-31
6.4340223e-31
6.6890438e-31
7.4949978e-31
9.9725157e-31
6.6123073e-31
6.1795682e-31
7.8595217e-31
6.8062222e-31
7.8017439e-31
6.1638492e-31
6.5761897e-31
8.6911372e-31
9.7625022e-31
8.3168736e-31
7.6980479e-31
5.8785252e-31
6.0982114e-31
5.5842925e-31
8.7691487e-31
7.3660403e-31
-7.2679382e-06
1.0718643e-13
7.5966853e-21
4.642882e-28
9.6150899e-35
2.8497827e-37
1.3907439e-37
2.7417418e-37
1.6657837e-37
2.0088668e-37
2.4210236e-37
2.1849006e-37
2.363284e-37
1.6356559e-37
1.4475083e-37
2.4379105e-37
1.7557426e-37
1.2493308e-37
1.8238017e-37
2.2006617e-37
1.7298763e-37
1.5282889e-37
1.8285502e-37
2.6973042e-37
1.8708158e-37
1.6388289e-37
2.0912745e-37
1.7882583e-37
1.9510117e-37
1.6074641e-37
1.7376105e-37
1.9555012e-37
2.4768041e-37
1.9743008e-37
2.1797178e-37
1.3238459e-37
1.5291375e-37
1.3687307e-37
2.2207218e-37
1.8194557e-37
-5.3731703e-06
4.4045284e-14
1.3182167e-20
5.3798147e-28
7.090314e-35
2.1880349e-41
3.5665729e-44
7.2864255e-44
3.9599841e-44
5.5557963e-44
5.5085106e-44
5.9170314e-44
5.9473396e-44
4.3829754e-44
3.5328706e-44
6.3111401e-44
4.4905385e-44
3.1765787e-44
5.0759156e-44
4.8977913e-44
4.3459054e-44
4.8845815e-44
4.6835394e-44
7.8099185e-44
5.2295397e-44
4.4050028e-44
5.3649961e-44
4.4954518e-44
4.8862943e-44
4.005752e-44
3.9057718e-44
5.1771598e-44
6.7347895e-44
5.4913408e-44
4.9778481e-44
3.6051407e-44
4.2830426e-44
4.0012286e-44
5.9075059e-44
4.9373774e-44
-4.2116578e-06
2.2153309e-14
-1.0544344e-21
-3.2141212e-29
-2.4228404e-36
-8.0897017e-43
-1.8496802e-49
2.0350238e-50
9.5998944e-51
1.4949636e-50
1.4616581e-50
1.778717e-50
1.3824469e-50
1.1196476e-50
8.2868899e-51
1.4337276e-50
1.1482557e-50
8.6611842e-51
1.2357469e-50
1.3387999e-50
1.1789772e-50
1.1273786e-50
1.1853358e-50
1.9834188e-50
1.2160273e-50
1.1459563e-50
1.465603e-50
1.2901605e-50
1.3180574e-50
1.0427848e-50
1.0803532e-50
1.2496464e-50
1.6242388e-50
1.5670823e-50
1.1211123e-50
9.8834757e-51
1.2238337e-50
1.0058643e-50
1.4240073e-50
1.2000278e-50
-3.4125283e-06
1.2371893e-14
-2.009092e-22
-4.9835233e-30
-2.4750605e-37
-5.4122202e-44
-1.8274778e-50
5.1949455e-58
2.6106525e-57
4.4227413e-57
3.3184329e-57
4.3160767e-57
3.3395493e-57
3.2434899e-57
2.2408175e-57
3.5284426e-57
2.9001865e-57
2.3189291e-57
3.0095618e-57
3.5117392e-57
2.904273e-57
2.6543812e-57
3.0702843e-57
5.0081502e-57
3.0653956e-57
2.6917916e-57
3.781097e-57
3.4317085e-57
3.1539306e-57
2.4454178e-57
2.6921602e-57
3.3883543e-57
4.1299996e-57
4.2902071e-57
2.7764203e-57
2.639066e-57
3.1749627e-57
2.3586652e-57
3.9445566e-57
3.0759718e-57
-2.8461853e-06
7.5385575e-15
-6.2448908e-23
-1.4746309e-30
-4.8676551e-38
-7.2045783e-45
-2.440115e-51
-6.5158143e-58
5.3617781e-64
1.2429858e-63
8.3448201e-64
1.0386404e-63
8.8364046e-64
8.2387873e-64
5.4428983e-64
9.1989818e-64
7.1105863e-64
5.8011162e-64
8.1941845e-64
7.6321452e-64
7.8488696e-64
6.5461822e-64
8.2926228e-64
1.1893082e-63
7.0864751e-64
7.1978605e-64
1.058816e-63
8.7903007e-64
8.3452341e-64
6.2019866e-64
8.8531468e-64
7.430206e-64
1.1034344e-63
1.0003567e-63
7.0792382e-64
5.8115495e-64
8.8088627e-64
6.320457e-64
9.693756e-64
7.9877876e-64
-2.3767096e-06
4.7750966e-15
-2.3627282e-23
-6.2744731e-31
-1.4140564e-38
-1.3732604e-45
-4.9494671e-52
-1.759846e-58
-4.7486948e-65
2.7991485e-70
2.0231279e-70
3.0720443e-70
2.2684498e-70
1.8642756e-70
1.5304474e-70
2.3955561e-70
1.6401395e-70
1.7051517e-70
1.9011245e-70
2.1915892e-70
1.9765754e-70
1.8560337e-70
2.0585676e-70
3.0868589e-70
1.891884e-70
1.8888084e-70
2.5661891e-70
2.1905054e-70
2.525202e-70
1.5238137e-70
2.082861e-70
2.0969643e-70
3.0852152e-70
2.7996407e-70
1.8816729e-70
1.4282953e-70
2.1716072e-70
1.8540568e-70
2.7550682e-70
2.2810104e-70
-2.0056721e-06
3.140574e-15
-1.0181913e-23
-4.5975339e-31
-7.8304644e-39
-5.0753389e-46
-1.905206e-52
-6.354829e-59
-1.6191776e-65
-3.8441357e-72
5.331824e-77
6.7712459e-77
6.1127267e-77
4.8072722e-77
4.1093053e-77
7.7280164e-77
4.6395729e-77
5.0026842e-77
5.1448035e-77
5.5728608e-77
5.1920504e-77
3.9563437e-77
6.6136655e-77
7.2189546e-77
4.6789423e-77
4.444096e-77
6.5969977e-77
5.202644e-77
6.8402928e-77
3.8221373e-77
5.3958586e-77
5.3022842e-77
7.4981794e-77
7.8971127e-77
4.7976927e-77
3.7744943e-77
6.0374505e-77
5.0619545e-77
6.9481283e-77
5.208101e-77
-1.6798303e-06
2.0915586e-15
-4.7232123e-24
6.0821268e-31
8.1406841e-39
3.3357709e-46
8.8743584e-53
2.741317e-59
6.4821394e-66
1.6619511e-72
4.3325885e-79
1.5616159e-83
1.5658114e-83
1.2541585e-83
1.0981208e-83
1.7912557e-83
1.3271969e-83
1.2950486e-83
1.1579732e-83
1.4639009e-83
1.2932802e-83
1.0445463e-83
1.5797636e-83
1.6812666e-83
1.1453196e-83
1.1177782e-83
1.5100354e-83
1.4103572e-83
1.7922267e-83
9.9841824e-84
1.2156034e-83
1.2814375e-83
2.0173917e-83
1.7569738e-83
1.3254962e-83
9.7326056e-84
1.7328701e-83
1.1662752e-83
1.8321834e-83
1.4234197e-83
-1.4038643e-06
1.4121619e-15
-2.3170153e-24
4.2377397e-32
4.7258831e-40
1.278153e-47
2.5729321e-54
8.5406913e-61
2.333848e-67
6.6017994e-74
1.7807257e-80
4.5150007e-87
4.3717095e-90
3.0340273e-90
3.0293115e-90
4.4140232e-90
3.2663368e-90
3.4901384e-90
3.2597313e-90
4.48484e-90
3.31039e-90
2.8409191e-90
3.5714235e-90
4.6252292e-90
2.8701622e-90
2.4345081e-90
4.2593553e-90
3.9215385e-90
5.0399878e-90
2.8964153e-90
3.6465371e-90
3.4258493e-90
4.6171544e-90
4.7058922e-90
3.6133204e-90
2.3395056e-90
4.9751061e-90
2.7690493e-90
4.0188426e-90
3.8310346e-90
-1.1735801e-06
9.6403921e-16
-1.1858435e-24
9.5378466e-33
9.167188e-41
1.7704485e-48
2.2436962e-55
1.2554218e-61
3.924679e-68
9.8084517e-75
2.4944557e-81
5.4071347e-88
1.5150281e-94
7.8322247e-97
9.2285092e-97
1.2023105e-96
7.9910809e-97
8.2697951e-97
7.4018441e-97
1.190065e-96
9.9241896e-97
7.7201576e-97
8.9164894e-97
1.0561072e-96
7.7161796e-97
6.1370578e-97
1.123306e-96
9.8022983e-97
1.3493879e-96
7.8993364e-97
9.5419668e-97
1.0430032e-96
1.2817632e-96
1.2744361e-96
1.0046689e-96
5.9695859e-97
1.2547713e-96
7.4086542e-97
1.3017354e-96
8.8703047e-97
-9.8136066e-07
6.6483014e-16
-6.2823208e-25
2.8587663e-33
2.5406336e-41
3.5915701e-49
2.8260473e-56
2.0952276e-62
6.0740479e-69
1.5837403e-75
4.213824e-82
1.0899818e-88
2.9858479e-95
9.1446741e-102
2.5624383e-103
2.968476e-103
1.9594889e-103
2.2110094e-103
2.2061021e-103
3.1527165e-103
2.7439779e-103
1.9687619e-103
2.4258347e-103
2.8017485e-103
1.8706582e-103
1.6222491e-103
3.0617398e-103
2.5180639e-103
3.3971737e-103
2.0777905e-103
2.622145e-103
2.4922816e-103
3.353829e-103
3.0274078e-103
2.5038283e-103
1.5032644e-103
3.5421047e-103
1.7796159e-103
3.0706895e-103
2.4113141e-103
-8.2286092e-07
4.6261885e-16
-3.4258179e-25
9.8760664e-34
8.5748699e-42
9.2847923e-50
4.8757891e-57
4.325941e-63
1.9966928e-69
5.3422017e-76
1.4395047e-82
3.9082633e-89
1.0913848e-95
2.4801729e-102
7.0644687e-109
7.101542e-110
5.2276868e-110
6.3612425e-110
6.3185287e-110
8.9822655e-110
6.9398317e-110
5.2836689e-110
6.2769498e-110
7.0332955e-110
4.8895103e-110
4.0891912e-110
7.2114256e-110
7.2142603e-110
7.9463269e-110
6.0248904e-110
6.4170745e-110
6.2771346e-110
8.9776362e-110
7.8377744e-110
7.9438997e-110
4.0017437e-110
8.4718767e-110
4.5735856e-110
6.9382411e-110
5.7207587e-110
-6.9267211e-07
3.253488e-16
-1.9164802e-25
3.7459756e-34
3.5209093e-42
2.9805016e-50
1.0475486e-57
6.6476694e-64
3.2348806e-70
9.0080296e-77
2.4576281e-83
6.4653327e-90
1.8087705e-96
4.3054879e-103
1.103143e-109
4.6365311e-116
1.2737378e-116
1.5971943e-116
1.7011574e-116
2.5538058e-116
1.8937465e-116
1.3133383e-116
1.8054629e-116
1.6975246e-116
1.3239984e-116
1.0819136e-116
1.782829e-116
2.1805182e-116
1.8870207e-116
1.7967999e-116
1.4616715e-116
1.6015376e-116
2.3828866e-116
2.1864641e-116
1.8187057e-116
9.558687e-117
1.9974117e-116
1.2957635e-116
1.5365831e-116
1.3839129e-116
-5.8531095e-07
2.3095456e-16
-1.0966037e-25
1.5216325e-34
1.8099759e-42
1.2428175e-50
3.0182201e-58
9.4319084e-65
4.8334781e-71
1.3008074e-77
3.2870991e-84
8.1481179e-91
2.0756772e-97
5.6204491e-104
1.2679478e-110
3.1715325e-117
3.5577245e-123
4.300778e-123
4.516497e-123
6.5235864e-123
4.4334218e-123
3.6465053e-123
4.5311232e-123
4.1767184e-123
3.3507026e-123
2.8470633e-123
4.6694454e-123
5.0843799e-123
4.684001e-123
4.9895694e-123
3.4950725e-123
4.6807621e-123
6.2223848e-123
5.1968538e-123
4.7228737e-123
2.3430926e-123
5.4100139e-123
3.7128357e-123
3.9167582e-123
3.5209405e-123
-4.9721808e-07
1.6553622e-16
-6.4033682e-26
6.5278072e-35
1.4837625e-42
8.4296888e-51
1.4692532e-58
3.3627857e-65
4.3737996e-71
1.2970015e-77
3.3218279e-84
7.6645749e-91
1.948915e-97
4.92318e-104
1.1510666e-110
2.9282257e-117
8.9288104e-124
1.3405447e-129
1.0422359e-129
1.4988311e-129
1.0895419e-129
1.047949e-129
1.2032555e-129
1.0575947e-129
8.9207842e-130
8.3425581e-130
1.1065498e-129
1.5381944e-129
1.2451513e-129
1.2877e-129
9.5288603e-130
1.3353999e-129
1.4366271e-129
1.5145677e-129
1.1167619e-129
7.7399653e-130
1.3517621e-129
1.0566772e-129
9.7244908e-130
8.2067045e-130
-4.2431936e-07
1.1976523e-16
-3.8085098e-26
2.9292339e-35
-1.4866224e-42
-7.2176698e-51
-9.2006012e-59
-1.0490586e-65
-2.145711e-71
-7.5820102e-78
-2.0741003e-84
-5.9136488e-91
-1.5835095e-97
-4.0332504e-104
-1.1566925e-110
-3.0385842e-117
-7.4958519e-124
-1.8856749e-130
2.3797358e-136
3.9971545e-136
2.573446e-136
2.733508e-136
3.1931831e-136
3.3242973e-136
2.5433952e-136
2.0712259e-136
2.7769136e-136
3.9776873e-136
3.1220037e-136
3.3556705e-136
2.5173193e-136
3.1011633e-136
3.4234067e-136
4.3604784e-136
3.2216925e-136
1.9390829e-136
3.5160945e-136
2.5244768e-136
2.3932091e-136
1.9456418e-136
-3.6357562e-07
8.7347514e-17
-2.302748e-26
1.3627231e-35
-1.2122082e-43
-5.1605482e-52
-4.9848421e-60
-3.5295117e-67
1.2896058e-72
5.0037399e-79
1.3040276e-85
3.0223902e-92
6.827583e-99
1.7876958e-105
4.7054139e-112
1.1818029e-118
2.9422101e-125
7.4152278e-132
1.7090792e-138
9.7585957e-143
6.8699197e-143
5.6406009e-143
8.7884705e-143
8.7911133e-143
5.9767823e-143
5.0854392e-143
7.0381256e-143
9.0055346e-143
7.266384e-143
8.2278521e-143
6.6992359e-143
7.5729244e-143
9.0300205e-143
1.1837927e-142
8.2179487e-143
4.8159612e-143
9.2709887e-143
5.7809687e-143
5.9564912e-143
4.5872235e-143
-3.1265095e-07
6.4177674e-17
-1.4121551e-26
6.5457338e-36
-2.7270205e-44
-1.0480604e-52
-7.8812687e-61
-3.7614963e-68
1.8085214e-73
8.0406543e-80
1.9218146e-86
5.1794953e-93
1.2992521e-99
3.0592102e-106
8.5574243e-113
2.1164813e-119
5.2565297e-126
1.2544189e-132
3.6654432e-139
8.5017555e-146
1.6772914e-149
1.5998292e-149
2.1811072e-149
2.1586693e-149
1.3032418e-149
1.3265434e-149
1.8561907e-149
2.0201748e-149
1.957598e-149
2.0041661e-149
1.8163003e-149
2.1234972e-149
2.4877316e-149
3.2277259e-149
2.1567242e-149
1.1058121e-149
2.5180824e-149
1.3731812e-149
1.4133941e-149
1.1027051e-149
-2.6980259e-07
4.7486597e-17
-8.7783949e-27
3.2303914e-36
-7.8690512e-45
-2.8054493e-53
-1.675173e-61
-5.4276452e-69
1.6273218e-74
1.0238219e-80
2.7886862e-87
7.0923539e-94
1.7074948e-100
3.8361577e-107
9.8666037e-114
2.0303161e-120
4.9573082e-127
1.0196457e-133
2.5971231e-140
6.9611069e-147
1.6486537e-153
4.2306412e-156
4.909664e-156
5.6680982e-156
3.0734694e-156
3.4311742e-156
4.6066458e-156
5.4578991e-156
4.597926e-156
4.6920923e-156
4.4438675e-156
5.296826e-156
5.823518e-156
8.0925908e-156
5.6743373e-156
2.5392342e-156
5.9803749e-156
3.6546706e-156
4.3338944e-156
2.5287019e-156
-2.3345224e-07
3.5343487e-17
-5.5186038e-27
1.6334735e-36
-2.5786985e-45
-8.8947943e-54
-4.3010209e-62
-9.6496898e-70
-1.1316852e-75
-1.1387095e-81
-3.402324e-88
-8.9327053e-95
-2.0590408e-101
-4.9331132e-108
-1.2662058e-114
-3.2491578e-121
-9.2459125e-128
-2.2782215e-134
-5.7756242e-141
-1.3945327e-147
-4.0020094e-154
-9.1543203e-161
1.2574402e-162
1.5460187e-162
7.6873986e-163
8.5345283e-163
1.0834752e-162
1.6405195e-162
1.1107316e-162
1.2531503e-162
1.0177937e-162
1.1372348e-162
1.363081e-162
2.1375462e-162
1.513067e-162
6.4964896e-163
1.5708846e-162
1.0474024e-162
1.0298439e-162
6.6926494e-163
-2.0257333e-07
2.647051e-17
-3.5097646e-27
8.4423334e-37
-9.2123788e-46
-3.1942649e-54
-1.2717362e-62
-2.062611e-70
-1.0436118e-76
-2.9242689e-82
-8.6613917e-89
-2.1072239e-95
-5.0532734e-102
-1.2707949e-108
-2.7129539e-115
-7.01046e-122
-1.7549441e-128
-4.6929726e-135
-9.3552952e-142
-2.7390624e-148
-6.8622198e-155
-1.6080403e-161
-3.4043459e-168
3.7737719e-169
1.7771417e-169
2.0190404e-169
2.5154702e-169
3.8009403e-169
2.3497795e-169
3.014111e-169
2.3188875e-169
2.5745925e-169
3.0398588e-169
4.9840419e-169
3.6282778e-169
1.3604222e-169
3.0816337e-169
2.3004797e-169
2.4858821e-169
1.6520992e-169
-1.7617299e-07
1.9921323e-17
-2.2531763e-27
4.4451916e-37
-3.4991102e-46
-1.3097931e-54
-4.3752509e-63
-5.2507159e-71
-1.0840625e-77
9.7008605e-84
3.6487073e-90
8.4920945e-97
2.2765198e-103
5.6946549e-110
1.3300439e-116
2.8843789e-123
7.344614e-130
1.7588045e-136
4.3913123e-143
9.5688758e-150
2.358224e-156
5.484733e-163
1.2920834e-169
1.3703168e-175
4.2278565e-176
5.7283183e-176
6.2926104e-176
9.9063602e-176
6.1971684e-176
7.7607585e-176
7.0348267e-176
8.2959713e-176
9.5776959e-176
1.4625426e-175
9.9125277e-176
4.3188843e-176
1.0693758e-175
7.4259659e-176
5.6805447e-176
4.949882e-176
-1.5358597e-07
1.5074379e-17
-1.4604809e-27
2.3826079e-37
-1.3949989e-46
-6.2152249e-55
-1.7736301e-63
-1.6101639e-71
-1.7335968e-78
1.1299529e-84
4.5198476e-91
1.1650429e-97
3.0275284e-104
7.39203e-111
1.5832515e-117
4.0974582e-124
1.1224337e-130
3.0373828e-137
7.4798545e-144
1.8235824e-150
4.1237331e-157
9.5876951e-164
2.7449842e-170
6.5459194e-177
1.2676409e-182
1.2472624e-182
1.4966835e-182
2.0836863e-182
1.2957904e-182
1.2420257e-182
1.5407158e-182
1.5009027e-182
1.6004711e-182
2.689984e-182
2.226832e-182
7.9178212e-183
1.7414972e-182
7.9949425e-183
1.4028918e-182
1.5832441e-182
-1.3414029e-07
1.1455488e-17
-9.5463786e-28
1.297166e-37
-5.7857597e-47
-3.8057544e-55
-9.4404662e-64
-6.6248706e-72
-4.4442743e-79
2.1800313e-85
1.0366181e-91
2.5875363e-98
6.2870325e-105
1.5831315e-111
3.7631726e-118
1.0601319e-124
2.6715087e-131
6.3440195e-138
1.3427451e-144
3.070826e-151
6.9509668e-158
1.7236272e-164
3.9998889e-171
9.6496376e-178
2.3505105e-184
3.8998518e-189
4.3760174e-189
5.42548e-189
4.4874585e-189
6.7957523e-189
4.6971948e-189
5.9318017e-189
6.1155808e-189
1.370264e-188
6.4025162e-189
2.5894192e-189
7.8808275e-189
4.894463e-189
3.9882943e-189
4.6455197e-189
-1.1739885e-07
8.744844e-18
-6.289769e-28
7.1662222e-38
-2.4819726e-47
-5.7252076e-55
-1.2547265e-63
-6.9687737e-72
-3.0120166e-79
1.4845452e-85
1.2765024e-91
4.0629924e-98
9.0343019e-105
2.1755011e-111
5.0211901e-118
1.2066385e-124
2.9468516e-131
7.0006255e-138
1.7086078e-144
4.2730372e-151
9.9541267e-158
2.3165054e-164
5.8649756e-171
1.5312185e-177
3.3962189e-184
7.9058107e-191
8.6234441e-196
8.4661076e-196
3.0562877e-196
4.6563271e-196
8.1460213e-196
3.4432103e-196
2.3172287e-196
9.9979768e-196
1.2153676e-195
3.0205709e-196
2.6389094e-196
1.2233387e-196
8.315419e-196
1.8227508e-195
-1.0291666e-07
6.7016359e-18
-4.1745089e-28
4.0118617e-38
-1.0960174e-47
9.8268007e-56
1.9352636e-64
8.6447861e-73
2.493288e-80
-9.1283368e-87
-1.4005889e-92
-3.5083216e-99
-8.6287211e-106
-2.0510134e-112
-4.9550243e-119
-1.227299e-125
-3.3570353e-132
-8.0391045e-139
-2.0186164e-145
-5.682593e-152
-1.3338219e-158
-3.3493956e-165
-8.0125285e-172
-1.9940495e-178
-4.9149769e-185
-1.224035e-191
-3.1263524e-198
3.6388246e-202
4.4485964e-202
5.4251352e-202
3.4639926e-202
6.8332233e-202
5.8740823e-202
1.0920914e-201
5.2145078e-202
1.7726306e-202
8.8677214e-202
7.9328895e-202
2.3641279e-202
6.368763e-202
-9.0370805e-08
5.1553728e-18
-2.789871e-28
2.2738397e-38
-4.9661529e-48
1.5532072e-56
2.8033683e-65
1.0254197e-73
2.0822673e-81
-1.0647011e-87
2.5748468e-93
8.3875139e-100
2.1357309e-106
5.1591232e-113
1.5077083e-119
3.5747377e-126
9.6975811e-133
2.3772541e-139
6.9644097e-146
1.686157e-152
4.3533221e-159
1.0408071e-165
2.679591e-172
7.3409411e-179
1.6036725e-185
4.2970472e-192
9.8335606e-199
2.4709585e-205
-3.6071159e-209
-8.1927406e-210
1.2214695e-209
-7.912399e-209
-1.0271975e-208
-9.5481524e-209
4.514016e-209
-8.5963692e-210
-7.8586917e-209
9.608035e-211
6.7001297e-209
2.766264e-208
-7.9470156e-08
3.9794768e-18
-1.876339e-28
1.3033665e-38
-2.3013572e-48
3.8836301e-57
6.5419858e-66
1.9768115e-74
2.9511686e-82
-2.7932589e-88
7.3814028e-94
2.1638553e-100
5.702634e-107
1.4115226e-113
3.2508494e-120
1.0319382e-126
2.778853e-133
7.2859413e-140
1.8711525e-146
4.1114674e-153
1.1367775e-159
2.6911523e-166
7.8190247e-173
1.8412712e-179
4.8631966e-186
1.0957704e-192
2.7893803e-199
6.8510917e-206
1.742335e-212
5.2274987e-215
3.7968341e-215
7.5778462e-215
8.4418204e-215
1.0750556e-214
4.3342691e-215
1.4248577e-215
8.5044384e-215
8.1585555e-215
2.4575996e-215
1.1336443e-214
-6.9989341e-08
3.081974e-18
-1.2695432e-28
7.5506677e-39
-1.0888385e-48
1.1541754e-57
1.8602862e-66
4.7235943e-75
5.2245543e-83
2.4991371e-89
-1.0020291e-95
-3.5800382e-102
-9.1311943e-109
-2.0913742e-115
-5.6221789e-122
-1.2622649e-128
-3.1247887e-135
-9.7116405e-142
-2.1941068e-148
-5.8202707e-155
-1.2490742e-161
-3.0754936e-168
-8.1779377e-175
-1.9418708e-181
-4.809361e-188
-1.1598467e-194
-2.9657056e-201
-7.5285727e-208
-1.8235216e-214
-6.1980021e-221
-5.8898374e-222
-3.0359017e-221
-2.8812939e-221
-3.2456341e-221
-1.9991389e-222
-2.7236593e-222
-1.6207018e-221
-9.4581215e-222
7.3210883e-222
9.0308095e-221
-6.1709383e-08
2.3938691e-18
-8.636792e-29
4.4168115e-39
-5.2473873e-49
3.7870867e-58
5.9949784e-67
1.2965654e-75
1.1025685e-83
1.9100117e-90
-8.1511363e-97
-3.9621533e-103
-8.4875073e-110
-2.4103612e-116
-5.6622301e-123
-1.6360726e-129
-4.5906599e-136
-1.0722688e-142
-2.7516484e-149
-6.9885994e-156
-1.8840643e-162
-4.4435396e-169
-1.2687452e-175
-3.7887118e-182
-9.4783174e-189
-2.4306653e-195
-7.4336293e-202
-1.7744657e-208
-5.0750614e-215
-1.2610284e-221
8.5253394e-229
2.1983866e-227
1.633488e-227
2.6960255e-227
4.9824288e-228
1.6379099e-228
1.0812728e-227
6.367537e-228
2.7467313e-228
3.1002012e-227
-5.4478247e-08
1.8646975e-18
-5.9065567e-29
2.6074583e-39
-2.5722696e-49
1.3308919e-58
2.147461e-67
3.9983251e-76
2.640448e-84
2.3720915e-91
-7.470349e-98
-5.343292e-104
-1.5674131e-110
-3.9725131e-117
-1.2098233e-123
-2.8982192e-130
-7.1596142e-137
-1.5806274e-143
-3.9115161e-150
-9.7470168e-157
-2.3011618e-163
-5.7948513e-170
-1.5633078e-176
-3.7234729e-183
-8.6141556e-190
-2.3775624e-196
-6.1242753e-203
-1.6701252e-209
-4.2152678e-216
-1.0736345e-222
-2.9195795e-229
-7.4447121e-234
-4.9807371e-234
-8.4803036e-234
-1.2675701e-234
-6.3025651e-235
-2.5004168e-234
-1.1334931e-234
7.9884122e-235
1.106306e-233
-4.8142916e-08
1.4560728e-18
-4.0583451e-29
1.5521601e-39
-1.2802859e-49
4.9163781e-59
8.4844025e-68
1.3767783e-76
7.2453384e-85
3.8932948e-92
-1.0289851e-98
-7.0624462e-105
-1.8490117e-111
-4.9532659e-118
-1.1118398e-124
-2.6449482e-131
-6.0864414e-138
-1.321731e-144
-3.930649e-151
-1.0325805e-157
-2.5032568e-164
-7.0486273e-171
-1.8086289e-177
-4.7136031e-184
-1.3060699e-190
-3.1811804e-197
-8.6563127e-204
-2.2772656e-210
-5.9218274e-217
-1.4830269e-223
-3.7690352e-230
-1.0155788e-236
2.2296587e-240
5.5356171e-240
1.0550009e-240
2.9063088e-241
1.6594839e-240
5.2476228e-241
2.4839966e-241
3.9502068e-240
-4.2588184e-08
1.1398e-18
-2.801153e-29
9.313381e-40
-6.4647568e-50
1.8924996e-59
3.7636335e-68
5.3905729e-77
2.2812891e-85
8.1869448e-93
-1.9512653e-99
-2.0686261e-105
-6.8157746e-112
-1.7131428e-118
-4.3763709e-125
-1.1690245e-131
-2.7597351e-138
-7.9313428e-145
-2.0971896e-151
-5.8200239e-158
-1.449544e-164
-3.7539966e-171
-9.2000924e-178
-2.1422348e-184
-4.6871366e-191
-1.2634924e-197
-3.0056596e-204
-8.2019229e-211
-1.8253169e-217
-4.9212103e-224
-1.2370928e-230
-3.4641738e-237
-7.9669192e-244
-9.6890632e-247
-2.7553401e-247
-1.3392428e-247
-3.3163151e-247
-1.0610815e-247
9.1114499e-248
1.0198547e-246
-3.7706803e-08
8.9411122e-19
-1.9413008e-29
5.6286834e-40
-3.3071115e-50
7.5330973e-60
1.974888e-68
2.5237919e-77
8.7409215e-86
2.1612595e-93
-5.1723986e-100
1.2317713e-105
3.8151978e-112
9.1938597e-119
2.3112371e-125
5.7863838e-132
1.509964e-138
3.5187442e-145
7.8186005e-152
1.9579872e-158
4.7512993e-165
1.2488165e-171
3.3302471e-178
8.1448725e-185
2.0777005e-191
5.3969354e-198
1.4145551e-204
3.5940982e-211
9.3254264e-218
2.7103422e-224
6.0292909e-231
1.572367e-237
4.0939064e-244
1.2354037e-250
1.3533818e-253
4.1537445e-254
2.6824256e-253
3.1153882e-254
2.817023e-254
2.0415004e-253
-3.3412356e-08
7.0281173e-19
-1.3505705e-29
3.4252301e-40
-1.7125344e-50
3.0854328e-60
1.5129217e-68
1.7486884e-77
5.0026415e-86
8.86061e-94
-2.9550043e-100
2.8342302e-106
7.9693686e-113
1.9365937e-119
4.9654472e-126
1.1864363e-132
3.1673366e-139
7.0914518e-146
1.7359495e-152
4.4523821e-159
1.0401682e-165
2.7540646e-172
6.592483e-179
1.6983518e-185
4.0947185e-192
1.0748549e-198
2.7404832e-205
6.5077899e-212
2.0277297e-218
4.9895903e-225
1.368115e-231
3.5263385e-238
8.7265848e-245
2.3207816e-251
5.9311595e-258
-1.9955133e-260
-6.7807523e-260
-1.0182603e-260
8.4417507e-261
3.6538153e-260
-2.9627239e-08
5.5340825e-19
-9.4286408e-30
2.0973783e-40
-8.9670756e-51
1.2958662e-60
-3.2574937e-68
-3.4499319e-77
-8.2762919e-86
-1.0818318e-93
7.830061e-100
-6.4151609e-106
-2.2865498e-112
-5.2161855e-119
-1.4873384e-125
-3.6281897e-132
-8.2369747e-139
-1.7991612e-145
-4.7670276e-152
-1.1382582e-158
-2.5189859e-165
-5.5611406e-172
-1.4535284e-178
-3.7020185e-185
-9.8582817e-192
-2.5794888e-198
-7.4075514e-205
-1.7868488e-211
-4.3608589e-218
-1.0462615e-224
-2.5946954e-231
-6.21558e-238
-1.678737e-244
-4.7248796e-251
-1.0985529e-257
-2.7391108e-264
3.6759243e-266
4.2198292e-267
5.6790581e-267
5.8046735e-267
-2.6287892e-08
4.3649035e-19
-6.6038054e-30
1.2918755e-40
-4.7445138e-51
5.563991e-61
-1.5359817e-69
-1.5100064e-78
-3.0629186e-87
-3.0519485e-95
-2.8564254e-101
1.2989992e-107
3.8941298e-114
1.1104647e-120
2.7888793e-127
6.2426711e-134
1.437352e-140
3.7655036e-147
9.513039e-154
2.4221031e-160
5.7216241e-167
1.4803263e-173
2.9977706e-180
8.0667545e-187
1.9512578e-193
4.6214953e-200
1.1107521e-206
2.6537178e-213
7.5574799e-220
1.8555732e-226
5.001576e-233
1.4680071e-239
3.6441397e-246
7.9891898e-253
2.1333773e-259
5.3056231e-266
7.6811362e-273
-1.3889834e-273
1.0718861e-272
7.7304386e-274
-2.333795e-08
3.4478e-19
-4.6390972e-30
8.0006523e-41
-2.5346896e-51
2.4368574e-61
-3.1304407e-70
-2.9065226e-79
-5.0415768e-88
-3.8994004e-96
-8.7244861e-103
2.9500045e-109
1.384253e-115
3.8170145e-122
9.2508663e-129
2.4285441e-135
6.2335127e-142
1.5713196e-148
3.8007185e-155
9.7014242e-162
2.246234e-168
4.9648894e-175
1.3494407e-181
3.5052514e-188
8.1783571e-195
2.0048507e-201
5.2112212e-208
1.2910471e-214
2.8638044e-221
7.2753391e-228
1.8501789e-234
4.4859745e-241
1.1272791e-247
2.8787149e-254
6.3993777e-261
1.6561509e-267
4.2384077e-274
9.0688348e-280
1.2218642e-278
1.0397615e-280
-2.0728448e-08
2.7267371e-19
-3.2674915e-30
4.9793645e-41
-1.3661298e-51
1.086346e-61
-8.3260953e-71
-7.4191164e-80
-1.1117438e-88
-6.7508334e-97
-6.864829e-104
1.7829814e-110
1.3672894e-116
3.5008768e-123
8.2010135e-130
1.8727787e-136
4.1393227e-143
1.0235409e-149
2.4280033e-156
5.7778133e-163
1.5352167e-169
3.7529872e-176
1.0809329e-182
2.476368e-189
6.5262461e-196
1.4114518e-202
3.6223791e-209
9.3132667e-216
2.2677618e-222
5.8313327e-229
1.4329484e-235
3.0518878e-242
7.2984433e-249
1.916848e-255
5.0464132e-262
1.4250241e-268
4.1161333e-275
1.0254215e-281
1.0431769e-284
1.2012534e-287
-1.8419024e-08
2.1590584e-19
-2.3071803e-30
3.1135905e-41
-7.4249477e-52
4.9223748e-62
-2.5141759e-71
-2.1972103e-80
-2.8727427e-89
-1.4099756e-97
-8.1141902e-105
1.9182092e-111
1.2400152e-117
3.8910846e-124
8.716015e-131
1.9779423e-137
4.8482982e-144
1.0993645e-150
2.7288638e-157
6.0976422e-164
1.7276666e-170
4.0829965e-177
9.5170837e-184
2.3269046e-190
5.1611842e-197
1.4753673e-203
3.5871981e-210
9.836257e-217
2.478874e-223
5.5931942e-230
1.3160921e-236
3.1931321e-243
8.0232244e-250
2.1171645e-256
5.7783528e-263
1.5237749e-269
4.1266207e-276
1.02969e-282
1.7662089e-289
1.3296812e-294
-1.6373835e-08
1.7113425e-19
-1.6327843e-30
1.9553648e-41
-4.0668744e-52
2.2636328e-62
-8.2069552e-72
-7.2127895e-81
-8.3056766e-90
-3.3049459e-98
-1.2548793e-105
3.0354241e-112
3.9968471e-118
1.2270445e-124
2.8393296e-131
7.2101008e-138
1.5431426e-144
3.7614623e-151
9.4254557e-158
2.213797e-164
6.0350375e-171
1.4232443e-177
3.530401e-184
7.928192e-191
2.31239e-197
5.6101344e-204
1.3581809e-210
3.2777803e-217
9.0159824e-224
2.4601455e-230
6.6297277e-237
1.5673741e-243
3.6074571e-250
8.6769143e-257
2.3294761e-263
5.9742996e-270
1.4931569e-276
4.4679206e-283
7.2771147e-290
7.8567517e-297
-1.4561682e-08
1.3577761e-19
-1.1579345e-30
1.2329525e-41
-2.2438193e-52
1.0553537e-62
-2.8317957e-72
-2.5858894e-81
-2.6491426e-90
-8.6971328e-99
-2.3055456e-106
5.2688438e-113
-4.5422734e-118
-1.2358411e-124
-3.6560679e-131
-8.3445318e-138
-2.150841e-144
-5.4925898e-151
-1.4414482e-157
-3.9975711e-164
-9.5052868e-171
-2.5479431e-177
-6.3513231e-184
-1.6804521e-190
-4.2846095e-197
-1.0764778e-203
-2.6647464e-210
-6.337524e-217
-1.9379249e-223
-4.3226017e-230
-1.0966185e-236
-2.9161082e-243
-6.9787798e-250
-1.7965395e-256
-5.2309855e-263
-1.4491183e-269
-3.5492631e-276
-9.4323639e-283
-1.6371104e-289
-1.5459762e-296
-1.2955712e-08
1.0782282e-19
-8.2276611e-31
7.8038597e-42
-1.2464618e-52
4.9826095e-63
-1.0194799e-72
-1.0137141e-81
-9.3210756e-91
-2.5405332e-99
-4.8605472e-107
1.3727576e-113
-1.6289287e-119
-4.9973362e-126
-1.2073834e-132
-2.8866625e-139
-7.2996695e-146
-1.9889455e-152
-5.0687583e-159
-1.1588243e-165
-2.6499447e-172
-6.0546155e-179
-1.5217417e-185
-3.771769e-192
-9.7001856e-199
-2.4325437e-205
-7.0129905e-212
-2.0772024e-218
-5.1863446e-225
-1.1978204e-231
-3.1366217e-238
-7.5401941e-245
-1.9177363e-251
-4.7295065e-258
-1.275247e-264
-3.4936305e-271
-1.1385825e-277
-2.8457833e-284
-4.0648182e-291
-3.9430194e-298
-1.1532951e-08
8.5705161e-20
-5.8571664e-31
4.9573233e-42
-6.9694251e-53
2.3805788e-63
-3.7988877e-73
-4.4046433e-82
-3.6717988e-91
-8.4446935e-100
-1.1997655e-107
6.7508721e-114
-5.2301126e-120
-1.7428768e-126
-5.0256377e-133
-1.4182176e-139
-2.9324845e-146
-7.0597663e-153
-1.7308388e-159
-5.2222452e-166
-1.3371925e-172
-3.6026089e-179
-8.1972955e-186
-2.1995309e-192
-5.3344952e-199
-1.4125142e-205
-4.257088e-212
-1.0540122e-218
-3.0267531e-225
-1.0017807e-231
-2.5696823e-238
-6.2978871e-245
-1.6192008e-251
-4.8474906e-258
-1.2963025e-264
-4.2356316e-271
-1.23144e-277
-2.7262548e-284
-3.9850322e-291
-3.5102559e-298
-1.0272436e-08
6.8189645e-20
-4.1771657e-31
3.1599149e-42
-3.920928e-53
1.1500786e-63
-1.4574363e-73
-2.2381363e-82
-1.7081181e-91
-3.3365589e-100
-3.6243789e-108
-2.4314236e-113
1.147699e-119
4.8533e-126
1.2151305e-132
3.0178975e-139
8.5920277e-146
1.86612e-152
4.7465229e-159
1.0813967e-165
2.8593394e-172
7.0311064e-179
1.7349774e-185
4.7012494e-192
1.3447653e-198
3.9263183e-205
9.9797973e-212
2.6356688e-218
6.7224234e-225
2.0744707e-231
4.6320725e-238
1.1747855e-244
3.1396482e-251
9.6153557e-258
2.3388159e-264
7.3535106e-271
2.5511642e-277
6.2476089e-284