/*--------------------------------*- C++ -*----------------------------------*\
  =========                 |
  \\      /  F ield         | OpenFOAM: The Open Source CFD Toolbox
   \\    /   O peration     | Website:  https://openfoam.org
    \\  /    A nd           | Version:  10
     \\/     M anipulation  |
\*---------------------------------------------------------------------------*/
FoamFile
{
    format      ascii;
    class       volScalarField;
    location    "0.23";
    object      TporMedia;
}
// * * * * * * * * * * * * * * * * * * * * * * * * * * * * * * * * * * * * * //

dimensions      [0 0 0 1 0 0 0];

internalField   nonuniform List<scalar> 
4000
(
0.00027067624
0.00012144704
0.00014763719
0.00012707194
0.00012456982
0.00012696565
0.00012210347
0.00013029799
0.00012848314
0.00014062174
0.00012840062
0.00013006576
0.00013625669
0.00012466019
0.00013177069
0.00014087753
0.00013723723
0.00013091912
0.00012807163
0.00012859128
0.00013096793
0.00012684623
0.00014395585
0.00013467725
0.00012377241
0.00013300465
0.00012367259
0.00013099052
0.00012719704
0.00013442905
0.00012783274
0.00013227435
0.00013880648
0.00013409621
0.00012633347
0.00013875819
0.00014133656
0.00013437524
0.00012339044
0.00013729187
-0.0001741466
-7.4996757e-12
2.8147788e-11
2.8105936e-11
3.1666839e-11
3.3593061e-11
2.9899261e-11
3.1086133e-11
3.3680517e-11
3.3013155e-11
3.0581662e-11
3.3047164e-11
3.1527924e-11
2.9863546e-11
2.9846614e-11
3.1023789e-11
3.1424332e-11
3.2720236e-11
3.5857656e-11
3.8452508e-11
3.2123239e-11
2.8826536e-11
3.7152306e-11
3.0450984e-11
3.3252508e-11
2.8462516e-11
3.0793304e-11
3.3676976e-11
3.2824743e-11
3.1210234e-11
3.1929341e-11
3.058715e-11
3.3257225e-11
3.5987727e-11
3.2158054e-11
3.0762246e-11
3.4678925e-11
3.6303433e-11
2.9124492e-11
3.5318972e-11
-4.2365016e-05
-7.756209e-12
2.3496849e-18
6.1035211e-18
6.8708859e-18
7.5499274e-18
6.7279615e-18
6.8356835e-18
8.3589749e-18
8.4213961e-18
7.3061797e-18
7.4742522e-18
7.610965e-18
6.4301082e-18
6.9549673e-18
6.9365494e-18
7.6164487e-18
7.6711182e-18
8.2321546e-18
7.9541857e-18
7.0805127e-18
6.5493613e-18
7.7754332e-18
6.9234956e-18
7.8060973e-18
6.40011e-18
6.7946824e-18
8.0500918e-18
7.7759232e-18
7.1534101e-18
8.1543907e-18
7.0774409e-18
7.8340271e-18
8.0984051e-18
7.6811425e-18
6.7703151e-18
9.0128946e-18
9.0701993e-18
7.0749379e-18
7.7867089e-18
-1.9834519e-05
4.0283544e-12
3.1225304e-19
9.8015429e-25
1.6682079e-24
1.7863328e-24
1.6461537e-24
1.8714591e-24
1.8824164e-24
1.7686217e-24
1.826701e-24
1.7349628e-24
1.7762576e-24
1.7070388e-24
1.7846639e-24
1.5446122e-24
1.5429776e-24
1.9244451e-24
1.776249e-24
1.8811446e-24
1.7003242e-24
1.4667589e-24
1.7314824e-24
1.7777282e-24
1.7894678e-24
1.5812237e-24
1.6957586e-24
1.9108581e-24
1.7416428e-24
1.6104008e-24
2.0150356e-24
1.6121575e-24
1.7885604e-24
1.9903888e-24
1.5846879e-24
1.5352332e-24
2.0544144e-24
2.1701378e-24
1.5257017e-24
1.9005402e-24
-1.1714475e-05
4.2573263e-13
2.5107439e-20
2.6605163e-27
3.6136135e-31
4.2744349e-31
4.0067407e-31
4.917482e-31
4.3012827e-31
3.7104627e-31
3.9591938e-31
4.6006093e-31
3.8752607e-31
3.7798426e-31
3.8216903e-31
3.7238572e-31
3.9643555e-31
5.1945771e-31
4.9817748e-31
4.1132078e-31
4.067798e-31
3.744644e-31
3.8773506e-31
4.1354084e-31
4.3897146e-31
3.7503815e-31
3.7820493e-31
4.3611453e-31
4.0141714e-31
3.6944481e-31
4.5548446e-31
3.1292234e-31
4.882914e-31
4.6108296e-31
3.9957041e-31
3.9617993e-31
4.7530027e-31
4.7960446e-31
3.6480473e-31
4.3815462e-31
-7.8168889e-06
1.2405904e-13
8.8722953e-21
5.4488286e-28
1.0497359e-34
1.0776314e-37
9.3797644e-38
1.1671871e-37
1.1164714e-37
8.6466502e-38
9.9483435e-38
1.0631678e-37
9.6521888e-38
9.6657768e-38
9.9261422e-38
9.2872111e-38
9.3966358e-38
1.1703905e-37
1.1038358e-37
9.9392255e-38
8.8995863e-38
7.6601637e-38
9.6111353e-38
9.7270988e-38
9.1540004e-38
8.5300401e-38
8.4676065e-38
9.6920333e-38
9.6067447e-38
8.4802357e-38
1.0863391e-37
7.7387988e-38
1.114883e-37
1.1965208e-37
9.3252692e-38
1.0855522e-37
1.2838926e-37
9.7221482e-38
8.3386709e-38
1.0281406e-37
-5.7530803e-06
5.0764569e-14
1.4974376e-20
6.2253144e-28
7.9559051e-35
2.3745042e-41
2.2396496e-44
2.6334557e-44
2.4463698e-44
2.1463678e-44
2.5913869e-44
2.659207e-44
2.3494149e-44
2.2892827e-44
2.2434293e-44
2.2030163e-44
2.4042964e-44
2.9107103e-44
2.472934e-44
2.4316129e-44
1.9022706e-44
1.7248102e-44
2.1027784e-44
2.4580016e-44
2.3933324e-44
1.981261e-44
2.0016442e-44
2.276967e-44
2.243043e-44
2.2029567e-44
2.5733696e-44
1.830772e-44
2.4399806e-44
2.7259303e-44
2.2959035e-44
2.5689599e-44
3.2982666e-44
2.1294795e-44
2.0244777e-44
2.5576831e-44
-4.4778913e-06
2.4994839e-14
-1.3401499e-21
-4.1678768e-29
-3.3380866e-36
-8.9452804e-43
-2.1655247e-49
5.5799013e-51
6.3313535e-51
4.6098843e-51
5.2604497e-51
5.8634816e-51
5.0767088e-51
4.946233e-51
5.1461966e-51
4.8600235e-51
6.4545935e-51
6.827598e-51
5.7316607e-51
6.3226206e-51
4.4674546e-51
3.7516098e-51
4.8489287e-51
5.3332945e-51
5.3600557e-51
4.777826e-51
4.6184663e-51
5.1208683e-51
5.4892471e-51
4.5862978e-51
5.5051486e-51
4.1285775e-51
5.8108059e-51
6.8375078e-51
5.9211277e-51
6.2246956e-51
7.1150441e-51
5.3314288e-51
4.5559423e-51
6.4006462e-51
-3.6131172e-06
1.3921451e-14
-2.442812e-22
-6.3674967e-30
-3.240391e-37
-7.2189809e-44
-2.1600432e-50
-4.0547532e-57
1.3852674e-57
1.238775e-57
1.1268325e-57
1.5521697e-57
1.0960435e-57
1.0301249e-57
1.2702224e-57
1.0457373e-57
1.5714312e-57
1.5305401e-57
1.5403086e-57
1.3579872e-57
1.0634355e-57
8.3432606e-58
1.1467454e-57
1.2704199e-57
1.3155251e-57
1.1928901e-57
1.0338566e-57
1.2566169e-57
1.1944301e-57
1.2668627e-57
1.2413255e-57
9.2590924e-58
1.2956669e-57
1.6578458e-57
1.4085559e-57
1.5837977e-57
1.6752874e-57
1.2507696e-57
1.2360793e-57
1.6826697e-57
-2.9936322e-06
8.3994877e-15
-7.3930122e-23
-1.7878992e-30
-6.0184238e-38
-8.5344584e-45
-2.3082788e-51
-6.2283093e-58
1.5435294e-64
2.8417858e-64
2.6094809e-64
3.6367526e-64
2.8447757e-64
2.2927153e-64
3.0703029e-64
2.4736876e-64
3.7680254e-64
3.7474244e-64
3.5088935e-64
2.8903e-64
2.3621419e-64
1.8953231e-64
2.3339019e-64
3.4181913e-64
2.8754088e-64
2.6952539e-64
2.0730174e-64
3.0226971e-64
2.5890146e-64
2.7368271e-64
2.514597e-64
2.6111594e-64
2.7291868e-64
4.0331315e-64
3.7433611e-64
3.7350425e-64
4.3303539e-64
2.7761836e-64
3.3025959e-64
3.5658621e-64
-2.5135253e-06
5.3243039e-15
-2.7844981e-23
-7.788023e-31
-1.8534239e-38
-1.8400014e-45
-7.0311708e-52
-2.0902481e-58
-4.4742192e-65
5.3669066e-71
5.8058347e-71
1.0349076e-70
6.5710493e-71
4.8577579e-71
6.7957082e-71
5.0365827e-71
9.3495175e-71
8.8800996e-71
8.4790117e-71
6.5774884e-71
5.892386e-71
4.712329e-71
5.9644479e-71
7.7360088e-71
5.7880644e-71
6.0329714e-71
5.3223509e-71
7.2466335e-71
5.7385018e-71
6.3411643e-71
5.7455406e-71
5.6082126e-71
5.7752402e-71
1.0194454e-70
9.1996132e-71
9.24901e-71
1.0616664e-70
6.3483598e-71
7.8801224e-71
7.3789316e-71
-2.1086733e-06
3.481033e-15
-1.1908948e-23
-5.614397e-31
-1.0006528e-38
-6.1466728e-46
-1.5784327e-52
-3.8384168e-59
-8.9538502e-66
-2.0536873e-72
1.1966823e-77
2.7595339e-77
1.3644467e-77
1.084764e-77
1.6501671e-77
1.1584396e-77
2.1286837e-77
1.9779359e-77
2.2379454e-77
1.6309432e-77
1.2508044e-77
1.0773671e-77
1.3603453e-77
1.8303194e-77
1.5504944e-77
1.3438587e-77
1.3361872e-77
1.7707572e-77
1.4084997e-77
1.5673947e-77
1.3175347e-77
1.3206973e-77
1.4693997e-77
2.2261879e-77
2.1868928e-77
1.9851467e-77
2.5843712e-77
1.4091654e-77
1.844299e-77
1.9078183e-77
-1.7656108e-06
2.3153394e-15
-5.5047243e-24
8.8309893e-31
1.2298883e-38
5.091907e-46
1.6592811e-52
5.2338876e-59
1.1453221e-65
2.5597422e-72
5.7455311e-79
6.2815371e-84
3.0259079e-84
2.7233856e-84
3.8756418e-84
2.6509053e-84
5.1513319e-84
4.8041783e-84
5.4498693e-84
3.601505e-84
2.932411e-84
2.7092977e-84
3.3904118e-84
4.3493262e-84
3.3608585e-84
3.0870688e-84
3.358037e-84
3.9717642e-84
2.9228409e-84
3.5962112e-84
2.9507499e-84
2.8703723e-84
3.2987511e-84
5.5511801e-84
6.0168647e-84
4.3518323e-84
6.3064492e-84
3.9897845e-84
4.8885515e-84
4.4270084e-84
-1.476087e-06
1.5612458e-15
-2.6936164e-24
5.2539168e-32
6.0486975e-40
1.7312742e-47
3.0914867e-54
1.0653132e-60
2.4999862e-67
5.4981321e-74
1.2537842e-80
3.0472815e-87
7.2038319e-91
6.3190569e-91
8.6772698e-91
6.0063827e-91
1.1911264e-90
1.0320955e-90
1.1368957e-90
8.769922e-91
6.7396723e-91
5.9451208e-91
8.6467258e-91
1.0380511e-90
7.1775911e-91
7.3541911e-91
6.5548409e-91
9.9963748e-91
6.6665028e-91
8.1875392e-91
6.3859689e-91
5.7993766e-91
7.6733867e-91
1.2249918e-90
1.3185551e-90
1.022582e-90
1.362582e-90
1.0551462e-90
1.2176369e-90
8.6354236e-91
-1.2297069e-06
1.0605514e-15
-1.3717566e-24
1.1669981e-32
1.1737326e-40
2.3502293e-48
3.0487814e-55
1.1003738e-61
2.8035646e-68
6.3684357e-75
1.5784056e-81
3.5299404e-88
8.0908926e-95
1.4841263e-97
2.0671374e-97
1.3105765e-97
3.204633e-97
2.626603e-97
2.6218118e-97
2.5201127e-97
1.7299213e-97
1.4455093e-97
2.0376447e-97
2.8295905e-97
1.6397708e-97
1.8783283e-97
1.8521294e-97
2.4957047e-97
1.7261189e-97
2.0398408e-97
1.5432638e-97
1.4061322e-97
2.0643448e-97
2.9056671e-97
3.336412e-97
2.7951471e-97
3.4331417e-97
2.6328452e-97
2.7907412e-97
1.944151e-97
-1.0286197e-06
7.3102847e-16
-7.2582055e-25
3.4843925e-33
3.2147122e-41
4.7320782e-49
3.9741297e-56
1.6081227e-62
4.2617297e-69
1.0171094e-75
2.0737414e-82
4.6155103e-89
9.4756499e-96
2.1373349e-102
4.8990871e-104
2.7626682e-104
6.9959686e-104
6.2193114e-104
5.8466315e-104
4.8409285e-104
3.6355934e-104
2.6768798e-104
4.1979949e-104
5.7671734e-104
3.6483023e-104
4.0526669e-104
3.3988237e-104
5.8226636e-104
3.5998208e-104
4.1502873e-104
3.5133993e-104
2.8693833e-104
4.4008412e-104
5.6483713e-104
7.2686372e-104
5.2205467e-104
9.1212101e-104
5.521142e-104
5.8960233e-104
4.39726e-104
-8.614387e-07
5.0766257e-16
-3.9423868e-25
1.1971293e-33
1.0910479e-41
1.2276725e-49
6.480525e-57
3.1538875e-63
9.8776029e-70
2.4254761e-76
6.6489793e-83
1.4964435e-89
3.5916582e-96
7.5870688e-103
1.5827402e-109
7.6093671e-111
1.6746002e-110
1.5496458e-110
1.5971112e-110
1.3192562e-110
9.8876469e-111
9.074881e-111
1.0158034e-110
1.564145e-110
1.14867e-110
9.6215777e-111
1.3417481e-110
1.8061728e-110
9.5107716e-111
1.1278315e-110
9.8800444e-111
9.0974579e-111
1.3204134e-110
1.6084797e-110
2.1871723e-110
2.5015823e-110
2.1001201e-110
1.8366651e-110
1.7934942e-110
1.1692114e-110
-7.2450015e-07
3.564804e-16
-2.2012777e-25
4.5158544e-34
4.4133751e-42
3.9024932e-50
1.4048696e-57
6.0192242e-64
2.0514451e-70
4.8724599e-77
1.0586365e-83
2.4016583e-90
5.2062707e-97
1.1960191e-103
2.4357415e-110
7.1683006e-117
3.8675196e-117
3.4110235e-117
2.9795491e-117
1.7243991e-117
1.3316396e-117
5.092638e-118
1.9520819e-117
2.3220707e-117
9.9496739e-118
1.4850239e-117
1.4523397e-117
2.9980244e-117
1.7882626e-117
1.8376633e-117
1.579009e-117
1.2396688e-117
2.1368195e-117
1.5798682e-117
3.0617986e-117
1.6691296e-118
3.9129947e-117
2.0480861e-117
2.3768131e-117
2.6009081e-117
-6.1223445e-07
2.5287913e-16
-1.2577025e-25
1.8313626e-34
2.2620584e-42
1.6113181e-50
4.0833463e-58
1.0599169e-64
4.5935368e-71
1.1480124e-77
2.6271474e-84
6.0768269e-91
1.5374499e-97
3.6102311e-104
8.876902e-111
1.9419298e-117
1.5181347e-123
1.099477e-123
1.1220507e-123
7.5914986e-124
8.9539413e-124
8.9688327e-124
6.3269709e-124
1.1986366e-123
1.4420465e-123
8.2494287e-124
1.1320815e-123
1.1155021e-123
4.8134413e-124
7.1632148e-124
5.9342204e-124
6.8084431e-124
9.0749375e-124
1.3245138e-123
1.734256e-123
2.8939021e-123
1.426283e-123
1.1588875e-123
1.6205993e-123
5.4033822e-124
-5.2012532e-07
1.811944e-16
-7.3375056e-26
7.8383596e-35
1.8612949e-42
1.1070002e-50
1.9888432e-58
3.6585506e-65
2.7195723e-71
7.0415982e-78
1.6420467e-84
3.8025298e-91
8.4389966e-98
2.1410304e-104
4.8666288e-111
1.1827117e-117
2.3101832e-124
2.0526231e-130
1.1066404e-130
3.5052905e-132
-3.1837739e-131
-1.6302606e-130
4.9458967e-131
-1.1438391e-131
-8.2995667e-131
-1.693097e-131
-2.6840539e-130
7.344479e-131
6.5391368e-131
1.9893891e-131
3.9690492e-131
-1.4595013e-131
1.4775633e-131
-2.0728656e-130
-2.0607139e-130
-5.763317e-130
8.0648152e-131
-8.7394576e-131
-4.3436558e-130
1.1524553e-130
-4.4347374e-07
1.3091021e-16
-4.3564041e-26
3.5051877e-35
-1.9263257e-42
-9.762078e-51
-1.2916632e-58
-1.5924806e-65
-2.1982463e-71
-5.7096291e-78
-1.234331e-84
-2.8322e-91
-6.326382e-98
-1.161642e-104
-2.3488482e-111
-5.319916e-118
-1.291333e-124
-3.2064036e-131
8.114424e-137
9.3768154e-137
1.0065362e-136
2.0221664e-136
4.7762448e-137
1.7942054e-136
2.261299e-136
6.3561546e-137
1.808968e-136
1.3917846e-136
4.9938518e-137
8.2949075e-137
7.1257796e-137
7.326874e-137
1.3971351e-136
1.9696786e-136
2.6116729e-136
5.3506708e-136
1.7395552e-136
1.6890611e-136
3.2258644e-136
2.615853e-137
-3.7990452e-07
9.539193e-17
-2.6294944e-26
1.6284429e-35
-1.523326e-43
-6.7860033e-52
-6.8612075e-60
-4.9752381e-67
-6.7326443e-73
-2.2246161e-79
-5.0282086e-86
-1.2120754e-92
-2.959888e-99
-6.2459481e-106
-1.5773133e-112
-3.8019447e-119
-8.6772674e-126
-1.9160494e-132
-4.5210043e-139
-1.3143388e-143
-2.8413471e-143
-9.2810051e-143
-7.1306321e-144
-3.1147824e-143
-8.4848214e-143
-1.5145345e-143
-9.4912755e-143
-2.9324834e-143
-3.9323338e-144
-1.783235e-143
-1.3449748e-143
-4.3845531e-143
-2.7388526e-143
-7.5179157e-143
-7.884524e-143
-3.3252402e-142
-3.3077151e-143
-1.2911823e-142
-1.2082542e-142
5.9335723e-144
-3.265747e-07
7.0031659e-17
-1.6109598e-26
7.8068605e-36
-3.4113679e-44
-1.3670568e-52
-1.0701818e-60
-5.1622888e-68
1.3669374e-73
5.2636029e-80
1.156349e-86
2.4371829e-93
5.1858904e-100
1.1503764e-106
2.6827932e-113
5.313222e-120
1.3422906e-126
2.8478604e-133
6.4873386e-140
1.547842e-146
1.4112442e-149
5.8310981e-149
8.0817997e-150
3.1440844e-149
4.2848772e-149
1.1085506e-149
7.8584665e-149
3.1059649e-149
6.7854779e-150
8.7020504e-150
1.182242e-149
2.4366977e-149
3.3311076e-149
3.5756828e-149
5.9486502e-149
1.1647245e-148
2.631696e-149
5.3142562e-149
9.8846629e-149
1.3761808e-150
-2.8165701e-07
5.1774378e-17
-9.9998996e-27
3.8484405e-36
-9.807573e-45
-3.6536198e-53
-2.2708366e-61
-7.5412528e-69
2.9559246e-73
1.6482377e-79
4.3796866e-86
8.9003857e-93
2.1054868e-99
4.6170128e-106
9.9730522e-113
2.0894004e-119
4.4218874e-126
9.8897256e-133
2.1681303e-139
5.2369571e-146
1.2169257e-152
-2.5460761e-155
-2.8366455e-156
-1.6875269e-155
-1.817387e-155
-7.5877424e-156
-4.3138161e-155
-1.3025982e-155
-1.5627648e-156
-5.0494485e-156
-1.0172113e-155
-9.0286713e-156
-2.0274922e-155
-1.7527511e-155
-2.7847068e-155
-6.4568141e-155
-1.7457464e-155
-3.2074232e-155
-4.686319e-155
3.1152242e-157
-2.4364089e-07
3.851185e-17
-6.2805427e-27
1.9423588e-36
-3.2102094e-45
-1.1533574e-53
-5.817194e-62
-1.3289932e-69
-1.388972e-75
-8.9700653e-82
-2.0992936e-88
-5.1973515e-95
-9.9970444e-102
-2.3989316e-108
-4.5486832e-115
-1.1052703e-121
-2.670255e-128
-5.4401015e-135
-1.3031256e-141
-2.6320684e-148
-5.537991e-155
8.9609768e-162
3.2239495e-162
1.3257968e-161
7.7923019e-162
3.3091156e-162
2.3209858e-161
6.7793757e-162
1.1489611e-162
1.9126828e-162
4.6417223e-162
7.0373939e-162
9.7050892e-162
5.9785841e-162
2.9517203e-161
2.842107e-161
1.2317751e-161
1.7307814e-161
3.2067975e-161
9.5253399e-164
-2.1135208e-07
2.8822715e-17
-3.9897997e-27
1.0022783e-36
-1.1438663e-45
-4.1395371e-54
-1.7177862e-62
-2.8687372e-70
-9.7172671e-77
-8.2470089e-83
-1.9615412e-89
-4.1213533e-96
-9.8417734e-103
-2.4565175e-109
-5.4122185e-116
-1.200043e-122
-2.8747836e-129
-6.3336893e-136
-1.6105955e-142
-3.3598499e-149
-8.2209006e-156
-1.8109498e-162
-1.2093598e-168
-5.817088e-168
-3.2103147e-168
-1.6362562e-168
-1.5064632e-167
-2.3842009e-168
-6.2436307e-169
-1.6437665e-168
-2.1925767e-168
-4.0732484e-168
-5.6584766e-168
-3.7993377e-168
-1.1230483e-167
-2.3041295e-167
-6.1732773e-168
-9.4031019e-168
-1.3329582e-167
2.209418e-170
-1.8378225e-07
2.1686279e-17
-2.5599714e-27
5.2727675e-37
-4.3365653e-46
-1.6887722e-54
-5.900431e-63
-7.2747784e-71
-1.3882303e-77
2.4515255e-82
7.1003131e-89
1.5948472e-95
3.2364867e-102
6.9919222e-109
1.3511587e-115
3.4022512e-122
7.3696631e-129
1.4906391e-135
3.498476e-142
7.6184576e-149
1.5351894e-155
3.6240545e-162
8.2077372e-169
4.1705683e-174
3.1179238e-174
7.7630346e-175
8.311105e-174
1.3230848e-174
4.5786464e-175
7.878252e-175
1.8095523e-174
2.6169801e-174
2.7131073e-174
1.9369677e-174
9.0373414e-174
1.5269102e-173
4.4505958e-174
7.1330429e-174
5.5184145e-174
5.273718e-177
-1.6018164e-07
1.6399377e-17
-1.6578472e-27
2.8222781e-37
-1.7252653e-46
-8.0074336e-55
-2.3867307e-63
-2.2442488e-71
-2.6105713e-78
9.777166e-84
3.5322453e-90
8.7631015e-97
1.8641367e-103
3.5947855e-110
7.7451218e-117
1.6540207e-123
3.8491521e-130
8.0517573e-137
1.7078343e-143
3.7256664e-150
7.4659221e-157
1.5433878e-163
3.69813e-170
8.5990751e-177
-1.6409117e-180
-4.0970704e-181
-3.7721711e-180
-8.7963721e-181
-3.5657139e-181
-4.6264224e-181
-5.1220787e-181
-1.3718501e-180
-1.9039711e-180
-1.0237763e-180
-5.3345922e-180
-1.0978424e-179
-2.1347453e-180
-3.5665642e-180
-1.8754132e-180
1.449905e-183
-1.3989858e-07
1.2458686e-17
-1.0828999e-27
1.5352069e-37
-7.1459383e-47
-4.8791197e-55
-1.2611848e-63
-9.2142601e-72
-6.1076096e-79
7.6828861e-85
2.395947e-91
5.4969064e-98
1.2459173e-104
3.0165107e-111
6.3721569e-118
1.49078e-124
2.9832365e-131
5.8767735e-138
1.6835197e-144
3.3192419e-151
6.8235048e-158
1.5053031e-164
3.0744793e-171
6.2945953e-178
1.3398594e-184
1.8971608e-187
1.8077248e-186
5.4550185e-187
1.1247549e-187
3.4585656e-187
4.0232372e-187
7.5020399e-187
8.3902738e-187
5.8471161e-187
4.0404281e-186
5.4649708e-186
8.4854555e-187
2.1638176e-186
1.2701826e-186
3.8416253e-190
-1.2240458e-07
9.5066085e-18
-7.1301117e-28
8.4724158e-38
-3.0617081e-47
-7.2579967e-55
-1.6587707e-63
-9.6057046e-72
-4.1379043e-79
2.8869598e-85
1.2798736e-91
3.1235277e-98
6.507122e-105
1.2536844e-111
2.7127833e-118
5.5424205e-125
1.2490478e-131
2.82087e-138
5.6634047e-145
1.2846254e-151
2.6032012e-158
5.3123755e-165
1.0676374e-171
2.2799727e-178
5.5821026e-185
1.3779765e-191
-8.1673724e-193
-2.6782267e-193
-8.0789151e-194
-1.2896214e-193
-3.7232279e-193
-3.8460212e-193
-6.464579e-193
-4.7995767e-193
-1.7760739e-192
-3.1790701e-192
-5.5720278e-193
-1.4108302e-192
-3.5221902e-193
9.6893918e-197
-1.0729898e-07
7.2830338e-18
-4.7294429e-28
4.7391013e-38
-1.3502075e-47
1.2771806e-55
2.6245116e-64
1.2200092e-72
3.6211759e-80
-2.1575871e-86
-1.4653072e-92
-3.2218871e-99
-6.5711764e-106
-1.3704626e-112
-3.0479903e-119
-6.0609127e-126
-1.4134987e-132
-3.0956423e-139
-6.7918273e-146
-1.5421506e-152
-3.2927045e-159
-7.2840286e-166
-1.5887406e-172
-3.476131e-179
-7.9525534e-186
-1.8602578e-192
1.8141979e-199
1.1522189e-199
4.6104899e-200
9.0383424e-200
1.7295652e-199
2.8297416e-199
3.0780017e-199
2.2990081e-199
7.143949e-199
2.9770369e-198
2.2120672e-199
5.1093714e-199
1.5466062e-199
3.4282868e-203
-9.4207954e-08
5.6011079e-18
-3.1591834e-28
2.6838097e-38
-6.1102565e-48
1.9990655e-56
3.7537209e-65
1.4247415e-73
2.9902922e-81
-2.4684253e-87
-4.1818727e-93
-9.6176056e-100
-2.1774975e-106
-4.8204953e-113
-1.0954972e-119
-2.928528e-126
-6.4234934e-133
-1.3925423e-139
-2.9781066e-146
-6.2356335e-153
-1.3619651e-159
-2.8880707e-166
-6.9016052e-173
-1.5636196e-179
-3.6211621e-186
-7.6373372e-193
-1.7837781e-199
-1.1619638e-205
-3.9463575e-206
-3.4325452e-206
-8.0475116e-206
-1.3447006e-205
-1.9360917e-205
-1.0574127e-205
-4.58044e-205
-1.7661769e-204
-1.7233926e-205
-3.5055575e-205
-5.7469157e-206
1.1712089e-209
-8.2845131e-08
4.3229987e-18
-2.1239584e-28
1.5375519e-38
-2.8299686e-48
4.9746279e-57
8.724275e-66
2.7455945e-74
4.237137e-82
4.7441908e-88
-8.4281716e-93
-2.5993144e-99
-5.2470147e-106
-1.3135351e-112
-3.120956e-119
-6.743909e-126
-1.332841e-132
-3.2420913e-139
-7.4648464e-146
-1.7347277e-152
-3.7618295e-159
-8.862491e-166
-2.3544776e-172
-5.5130298e-179
-1.2907918e-185
-2.7135299e-192
-6.6748162e-199
-1.5097126e-205
-2.2693345e-212
2.5958009e-212
4.8101412e-212
1.088035e-211
1.306265e-211
6.9168384e-212
2.4278276e-211
1.157916e-210
8.8365705e-212
1.1463194e-211
1.2017245e-212
3.9828725e-216
-7.295273e-08
3.3470507e-18
-1.436357e-28
8.9003682e-39
-1.3372926e-48
1.4772364e-57
2.4761662e-66
6.5453407e-75
7.4790948e-83
3.2879762e-89
-2.1028275e-95
-6.8707409e-102
-1.6364917e-108
-3.2859874e-115
-7.5018545e-122
-1.6553567e-128
-3.6952296e-135
-7.5979458e-142
-1.7232716e-148
-3.8691486e-155
-9.1886823e-162
-2.0365579e-168
-3.9275032e-175
-9.2807293e-182
-2.087811e-188
-4.6200484e-195
-9.2937168e-202
-2.0739006e-208
-4.9062715e-215
-1.1447458e-218
-2.6848473e-218
-8.0361456e-218
-8.7934408e-218
-3.3102429e-218
-1.0621423e-217
-4.3817392e-217
-4.3196904e-218
-4.6045128e-218
-5.3256218e-219
1.6719242e-222
-6.4323564e-08
2.599561e-18
-9.7690974e-29
5.2036226e-39
-6.4393051e-49
4.8431114e-58
7.9842206e-67
1.7959386e-75
1.5717841e-83
2.4568969e-90
-1.3596797e-96
-5.0230695e-103
-1.1334796e-109
-2.3254511e-116
-4.9028994e-123
-1.1163642e-129
-2.5388528e-136
-5.4734015e-143
-1.0579273e-149
-2.1510812e-156
-4.9263627e-163
-1.118356e-169
-2.443739e-176
-6.1752666e-183
-1.4073055e-189
-3.0714322e-196
-6.3458238e-203
-1.5313581e-209
-3.5916809e-216
-9.0935207e-223
1.1868985e-224
4.0023395e-224
2.9242282e-224
2.0644085e-224
8.3821303e-224
3.8337421e-223
2.2167312e-224
2.5089504e-224
9.8218481e-226
7.3661833e-229
-5.6784352e-08
2.0246086e-18
-6.6787307e-29
3.0702609e-39
-3.1539838e-49
1.700058e-58
2.8536697e-67
5.5235837e-76
3.8024632e-84
3.3778511e-91
-1.2542499e-97
-4.591938e-104
-9.5704314e-111
-2.3800389e-117
-5.3467631e-124
-1.1415867e-130
-2.8122183e-137
-6.3521276e-144
-1.6277887e-150
-3.5649958e-157
-8.3369662e-164
-2.1199828e-170
-4.767982e-177
-1.1438681e-183
-2.841158e-190
-5.9659326e-197
-1.2301179e-203
-2.6931667e-210
-5.4376308e-217
-1.3946342e-223
-4.0013406e-230
-1.919229e-230
-2.2922478e-230
-1.0774175e-230
-5.4964547e-230
-1.7653247e-229
-1.3292644e-230
-8.7694186e-231
-3.3829774e-232
2.4601806e-235
-5.0184379e-08
1.5810142e-18
-4.5883544e-29
1.8269998e-39
-1.5689735e-49
6.2735003e-59
1.1266748e-67
1.9009453e-76
1.0382263e-84
5.8334135e-92
-1.879443e-98
-9.0184163e-105
-2.3754779e-111
-5.3064777e-118
-1.1351663e-124
-2.5523364e-131
-4.950862e-138
-1.0814684e-144
-2.4864716e-151
-6.1904697e-158
-1.5093429e-164
-3.3645217e-171
-7.1811858e-178
-1.6886322e-184
-4.4461733e-191
-1.0044065e-197
-2.1623152e-204
-4.7388503e-211
-1.3476289e-217
-2.9924946e-224
-7.4421257e-231
9.8648872e-237
9.202742e-237
5.4245391e-237
5.2423706e-236
1.0085077e-235
7.667026e-237
4.3590497e-237
9.5726401e-239
7.4485121e-242
-4.4395861e-08
1.237556e-18
-3.1663293e-29
1.0958096e-39
-7.9175539e-50
2.4127581e-59
4.9966391e-68
7.4398588e-77
3.2815671e-85
1.1743555e-92
-3.4083076e-99
-2.3969792e-105
-5.8659667e-112
-1.2418812e-118
-2.9507702e-125
-6.0693458e-132
-1.5455111e-138
-3.1943112e-145
-7.9197065e-152
-1.7497238e-158
-3.512847e-165
-7.8576818e-172
-1.697626e-178
-3.7217066e-185
-8.3273119e-192
-1.9103653e-198
-4.4166719e-205
-1.087737e-211
-2.4302297e-218
-5.0947254e-225
-1.1150233e-231
-2.6841485e-238
-1.2247528e-242
-3.1979393e-243
-1.2627344e-242
-3.164396e-242
-3.7202548e-243
-1.1438808e-243
-6.4287782e-245
1.8057823e-248
-3.9313333e-08
9.7093894e-19
-2.194447e-29
6.6217375e-40
-4.0487428e-50
9.5965898e-60
2.6173876e-68
3.4776503e-77
1.2496389e-85
3.1382816e-93
-1.0085523e-99
-1.9938723e-105
-5.716328e-112
-1.2369797e-118
-2.408739e-125
-5.8608534e-132
-1.1667772e-138
-2.9241084e-145
-6.8898653e-152
-1.4498257e-158
-2.8899564e-165
-6.5058993e-172
-1.4732814e-178
-3.5548037e-185
-7.5332769e-192
-1.8866893e-198
-4.0712783e-205
-9.2926106e-212
-2.0483688e-218
-5.2192124e-225
-1.2747434e-231
-2.9759465e-238
-6.2930611e-245
1.4246685e-249
9.9504608e-249
1.6570069e-248
1.5020257e-249
7.8709629e-250
2.8414984e-251
3.9449394e-255
-3.4839036e-08
7.6324624e-19
-1.5265832e-29
4.0284979e-40
-2.0955293e-50
3.9277262e-60
1.999837e-68
2.403599e-77
7.1474417e-86
1.2917825e-93
-6.057494e-100
2.6930794e-105
7.1714229e-112
1.5093026e-118
3.3560753e-125
6.9759338e-132
1.5516497e-138
3.7219432e-145
8.1573023e-152
1.7156066e-158
3.9601801e-165
8.8749214e-172
1.7945802e-178
3.8603075e-185
8.5908572e-192
2.1878991e-198
4.8823876e-205
1.2324982e-211
2.9750086e-218
6.5035584e-225
1.3137531e-231
2.8824041e-238
6.801716e-245
1.5092478e-251
-5.5456077e-255
-1.140695e-254
-6.5011181e-256
-2.9084931e-256
-3.9566684e-257
6.9419506e-262
-3.0897127e-08
6.011061e-19
-1.0658164e-29
2.4665464e-40
-1.0969151e-50
1.6487621e-60
-4.3904864e-68
-4.8352463e-77
-1.2038994e-85
-1.6392309e-93
2.7740748e-99
-5.2790643e-105
-1.4547973e-111
-3.1149826e-118
-6.8581669e-125
-1.5336461e-131
-3.6603795e-138
-7.5189792e-145
-1.6123676e-151
-3.6761535e-158
-7.7626674e-165
-1.5858995e-171
-3.6434087e-178
-8.25482e-185
-1.9960398e-191
-4.5188298e-198
-1.005316e-204
-2.3392503e-211
-5.2897562e-218
-1.1027093e-224
-2.4601661e-231
-5.9608755e-238
-1.2681506e-244
-2.8138208e-251
-6.1203007e-258
4.32295e-261
2.8129023e-262
1.2260855e-262
9.639264e-263
1.1546589e-268
-2.7420168e-08
4.7421653e-19
-7.4661358e-30
1.5192636e-40
-5.8026843e-51
7.076139e-61
-2.030592e-69
-2.0767949e-78
-4.3807256e-87
-4.5098938e-95
-4.092871e-101
2.7906445e-107
7.5053784e-114
1.6631207e-120
3.7265552e-127
7.3167838e-134
1.6810357e-140
4.0257923e-147
9.2770445e-154
1.9077392e-160
4.5080046e-167
8.8844556e-174
1.7992249e-180
3.9623696e-187
8.497762e-194
1.7773953e-200
3.7284326e-207
8.2450078e-214
1.8460882e-220
4.1529892e-227
8.6723725e-234
1.7224836e-240
4.0179556e-247
1.0200841e-253
2.2855819e-260
4.5383963e-267
-1.5054555e-268
-9.5617179e-269
2.8414561e-268
5.3704533e-275
-2.4347149e-08
3.7465967e-19
-5.2455785e-30
9.4086288e-41
-3.099334e-51
3.0977052e-61
-4.1360668e-70
-3.9902757e-79
-7.1863205e-88
-5.7526252e-96
-1.186918e-102
5.1056886e-109
2.0727039e-115
4.3880031e-122
9.1749543e-129
1.8318725e-135
4.1163314e-142
8.6262201e-149
1.8887304e-155
4.5658563e-162
1.0201893e-168
2.2828407e-175
4.769805e-182
1.0922266e-188
2.3800614e-195
5.2132487e-202
1.1072539e-208
2.3999013e-215
5.4449621e-222
1.0642401e-228
2.7480157e-235
5.369768e-242
1.5368481e-248
1.2487276e-255
1.4174485e-261
-3.7562794e-268
3.1614096e-274
5.3772749e-275
1.9519851e-274
3.0127431e-281
-2.1630146e-08
2.9641216e-19
-3.6958332e-30
5.85681e-41
-1.6704749e-51
1.3807495e-61
-1.0999836e-70
-1.0186627e-79
-1.5863954e-88
-9.9817395e-97
-9.7298556e-104
4.155971e-110
1.5653513e-116
3.3354694e-123
7.6185473e-130
1.6193457e-136
3.5073942e-143
7.0659036e-150
1.5962751e-156
3.3676216e-163
7.9249679e-170
1.7185847e-176
3.704759e-183
8.4435104e-190
2.160675e-196
4.7349132e-203
1.0602196e-209
2.3729241e-216
5.9932658e-223
1.2162894e-229
2.6626454e-236
5.6587107e-243
1.3691809e-249
2.8232295e-256
7.4256553e-263
5.9390353e-270
7.7198905e-276
-2.8427251e-281
9.2163335e-281
1.4160652e-287
-1.9224696e-08
2.3478224e-19
-2.6104592e-30
3.662904e-41
-9.079131e-52
6.254605e-62
-3.3192291e-71
-3.0139816e-80
-4.0892559e-89
-2.0682034e-97
-1.1722417e-104
3.7195708e-111
2.060603e-117
4.9234101e-124
1.1552352e-130
2.3303991e-137
4.8467446e-144
1.0630042e-150
2.3704457e-157
5.4163814e-164
1.0242053e-170
1.9863546e-177
4.9334704e-184
1.0863941e-190
2.1597409e-197
4.880133e-204
1.0175399e-210
2.3188616e-217
5.448224e-224
1.1372582e-230
2.7202499e-237
5.9307597e-244
1.297808e-250
2.517908e-257
7.2607218e-264
7.1208986e-271
5.0564991e-277
-9.0125213e-284
3.1523965e-287
5.5046128e-294
-1.7094232e-08
1.861685e-19
-1.8481081e-30
2.3009657e-41
-4.9734083e-52
2.8760525e-62
-1.0829331e-71
-9.8867182e-81
-1.1826143e-89
-4.8785546e-98
-1.8416009e-105
5.3514274e-112
4.4772352e-118
1.0324403e-124
2.2082382e-131
5.2261101e-138
9.9751873e-145
2.1709533e-151
4.6001561e-158
1.021941e-164
2.2321389e-171
5.5835029e-178
1.2186639e-184
2.5705105e-191
5.884963e-198
1.1644939e-204
3.0651392e-211
7.6356291e-218
1.6414066e-224
3.8131689e-231
8.4726204e-238
1.9434813e-244
4.4112196e-251
9.0766705e-258
2.5447455e-264
4.699802e-271
1.9595299e-277
1.2474948e-284
1.6379936e-290
-9.9827255e-296
-1.5206328e-08
1.477695e-19
-1.3112034e-30
1.451347e-41
-2.7443918e-52
1.3407714e-62
-3.7354245e-72
-3.5425251e-81
-3.765954e-90
-1.2786205e-98
-3.3868097e-106
1.0517092e-112
4.3467617e-118
1.2400303e-124
2.5723447e-131
6.2595805e-138
1.2960552e-144
2.8867779e-151
6.0096459e-158
1.2653625e-164
2.758732e-171
6.4372501e-178
1.4789993e-184
3.1622474e-191
7.0922689e-198
1.5367054e-204
3.9108331e-211
8.1844738e-218
1.7306155e-224
3.8077015e-231
8.3601574e-238
1.821394e-244
4.3366889e-251
1.0760573e-257
2.6583498e-264
7.1555649e-271
1.8337315e-277
3.6500578e-284
6.2650628e-291
1.0435118e-297
-1.3532896e-08
1.1740061e-19
-9.3212055e-31
9.1896758e-42
-1.5248653e-52
6.3304101e-63
-1.344611e-72
-1.3876069e-81
-1.3249677e-90
-3.7523668e-99
-7.302103e-107
2.799449e-113
-6.5702747e-119
-1.6596226e-125
-3.4871497e-132
-7.9534366e-139
-1.7992209e-145
-4.2861713e-152
-9.9652959e-159
-2.1709562e-165
-4.1584763e-172
-9.2521477e-179
-2.0038566e-185
-4.333749e-192
-9.6072766e-199
-2.2490875e-205
-5.3185554e-212
-1.112116e-218
-2.5120369e-225
-5.7724069e-232
-1.3606478e-238
-2.922292e-245
-6.9905047e-252
-1.4401921e-258
-3.3489298e-265
-8.0252887e-272
-1.924406e-278
-4.3763767e-285
-3.5899645e-292
2.9126131e-299
-1.2049271e-08
9.3357614e-20
-6.6387745e-31
5.8398934e-42
-8.5279909e-53
3.0245769e-63
-5.0092535e-73
-6.0316996e-82
-5.2180331e-91
-1.2417189e-99
-1.8049092e-107
9.1587137e-114
-2.088769e-119
-6.4125989e-126
-1.4771475e-132
-3.3032875e-139
-7.0107624e-146
-1.5596156e-152
-3.5049079e-159
-7.3259219e-166
-1.6824529e-172
-3.8899763e-179
-8.1839096e-186
-1.801912e-192
-4.4451891e-199
-9.6213928e-206
-2.1698593e-212
-5.1600938e-219
-1.3659437e-225
-3.000511e-232
-6.8829839e-239
-1.6673822e-245
-4.1427514e-252
-1.1004631e-258
-2.6672469e-265
-6.9943102e-272
-1.8515168e-278
-4.0670239e-285
-5.1860247e-292
-4.1499924e-299
-1.0734714e-08
7.431115e-20
-4.737031e-31
3.7241456e-42
-4.7991765e-53
1.4613254e-63
-1.9217256e-73
-3.0658561e-82
-2.4268154e-91
-4.9146386e-100
-5.4985103e-108
-4.6449839e-114
1.3326759e-119
4.3460765e-126
9.5328925e-133
2.2590474e-139
5.015044e-146
1.1151983e-152
2.191718e-159
4.7163635e-166
1.0716149e-172
2.4976203e-179
5.6398707e-186
1.3274628e-192
2.9798421e-199
7.5876097e-206
1.6681917e-212
4.033996e-219
1.0048579e-225
2.303538e-232