/*--------------------------------*- C++ -*----------------------------------*\
  =========                 |
  \\      /  F ield         | OpenFOAM: The Open Source CFD Toolbox
   \\    /   O peration     | Website:  https://openfoam.org
    \\  /    A nd           | Version:  10
     \\/     M anipulation  |
\*---------------------------------------------------------------------------*/
FoamFile
{
    format      ascii;
    class       volVectorField;
    location    "0.23";
    object      U;
}
// * * * * * * * * * * * * * * * * * * * * * * * * * * * * * * * * * * * * * //

dimensions      [0 1 -1 0 0 0 0];

internalField   nonuniform List<vector> 
4000
(
(0 0.018637454 0.47773157)
(0 0.023509991 0.50886061)
(0 0.008166841 0.50052521)
(0 0.0056146035 0.50033634)
(0 0.0042546197 0.50025746)
(0 0.0032549389 0.50016898)
(0 0.0025560894 0.50011969)
(0 0.0020545864 0.50009013)
(0 0.0016765907 0.50006981)
(0 0.0013822589 0.50005539)
(0 0.0011472184 0.50004499)
(0 0.00095513042 0.50003733)
(0 0.00079474072 0.5000316)
(0 0.00065807349 0.50002727)
(0 0.00053930039 0.50002399)
(0 0.00043404057 0.50002151)
(0 0.00033890667 0.50001966)
(0 0.00025119664 0.50001833)
(0 0.00016867771 0.50001744)
(0 8.9427894e-05 0.50001693)
(0 1.1713694e-05 0.50001678)
(0 -6.6116989e-05 0.50001698)
(0 -0.00014572651 0.50001754)
(0 -0.00022887946 0.5000185)
(0 -0.00031755348 0.50001991)
(0 -0.00041406973 0.50002185)
(0 -0.00052126483 0.50002446)
(0 -0.00064273003 0.50002793)
(0 -0.00078315916 0.50003252)
(0 -0.00094887836 0.50003863)
(0 -0.0011486973 0.50004688)
(0 -0.0013952744 0.50005824)
(0 -0.0017073562 0.50007414)
(0 -0.0021152916 0.50009709)
(0 -0.0026749949 0.50013482)
(0 -0.0034685769 0.50020238)
(0 -0.0045608163 0.50027143)
(0 -0.0065850134 0.50043365)
(0 -0.017659456 0.50675406)
(0 -0.013590129 0.47975564)
(0 0.037432674 0.44796929)
(0 0.050955713 0.53232616)
(0 0.021969283 0.50804289)
(0 0.016135616 0.50357318)
(0 0.012416062 0.50242316)
(0 0.0095159449 0.50162299)
(0 0.0075206258 0.50115661)
(0 0.0060699143 0.50086592)
(0 0.0049646124 0.500668)
(0 0.0041001877 0.500529)
(0 0.0034076894 0.50042903)
(0 0.00284017 0.50035553)
(0 0.0023652557 0.50030064)
(0 0.0019598623 0.50025924)
(0 0.0016070296 0.50022789)
(0 0.0012939621 0.50020423)
(0 0.001010735 0.50018663)
(0 0.00074941016 0.50017395)
(0 0.00050341335 0.50016545)
(0 0.00026707499 0.50016061)
(0 3.5274457e-05 0.50015918)
(0 -0.00019686765 0.50016109)
(0 -0.00043426072 0.50016644)
(0 -0.00068211516 0.50017554)
(0 -0.00094626134 0.50018896)
(0 -0.0012335287 0.50020751)
(0 -0.0015522412 0.50023245)
(0 -0.0019129054 0.50026557)
(0 -0.0023292022 0.50030949)
(0 -0.0028194717 0.5003681)
(0 -0.003409089 0.50044735)
(0 -0.0041344301 0.50055671)
(0 -0.005048574 0.50071126)
(0 -0.0062313863 0.50093661)
(0 -0.0078317504 0.50129439)
(0 -0.010125457 0.50191053)
(0 -0.01310662 0.50282512)
(0 -0.017426038 0.50608119)
(0 -0.038758838 0.52526812)
(0 -0.027894586 0.4502166)
(0 0.039888256 0.40982062)
(0 0.061428087 0.54930816)
(0 0.031983713 0.52188195)
(0 0.024355485 0.51008055)
(0 0.019193631 0.50658856)
(0 0.014977188 0.50452807)
(0 0.012006783 0.50327139)
(0 0.0097720104 0.50245838)
(0 0.0080366275 0.50190106)
(0 0.0066649886 0.50150868)
(0 0.0055568726 0.50122547)
(0 0.0046427451 0.50101672)
(0 0.003873868 0.50086057)
(0 0.0032148451 0.50074265)
(0 0.0026393421 0.50065327)
(0 0.0021273056 0.50058575)
(0 0.0016630584 0.50053549)
(0 0.0012339805 0.50049928)
(0 0.00082956447 0.50047496)
(0 0.00044071123 0.50046114)
(0 5.917927e-05 0.50045705)
(0 -0.00032289312 0.50046249)
(0 -0.00071341479 0.50047777)
(0 -0.0011207653 0.50050379)
(0 -0.0015542899 0.5005421)
(0 -0.0020248834 0.50059506)
(0 -0.0025457447 0.50066619)
(0 -0.0031334066 0.50076056)
(0 -0.0038091995 0.50088556)
(0 -0.0046013632 0.50105211)
(0 -0.0055482528 0.50127675)
(0 -0.0067038486 0.50158561)
(0 -0.0081453521 0.5020208)
(0 -0.0099768525 0.50265073)
(0 -0.012371164 0.50361509)
(0 -0.015716249 0.5051992)
(0 -0.019872725 0.50785395)
(0 -0.025186402 0.51641224)
(0 -0.047417007 0.53912733)
(0 -0.030853626 0.41488045)
(0 0.034791554 0.36173019)
(0 0.063838847 0.55456336)
(0 0.039380342 0.53747135)
(0 0.030083355 0.5184926)
(0 0.024112595 0.51197728)
(0 0.019279609 0.50849943)
(0 0.015736213 0.50626423)
(0 0.012954248 0.50475542)
(0 0.010743749 0.5037044)
(0 0.0089680257 0.5029561)
(0 0.0075140464 0.50241105)
(0 0.006302146 0.50200677)
(0 0.0052745192 0.50170298)
(0 0.0043879087 0.50147275)
(0 0.0036094976 0.50129774)
(0 0.0029139022 0.50116526)
(0 0.0022810159 0.50106646)
(0 0.0016944781 0.5009952)
(0 0.0011405481 0.50094728)
(0 0.00060724586 0.50092002)
(0 8.3670561e-05 0.50091195)
(0 -0.00044059876 0.50092265)
(0 -0.00097604347 0.50095276)
(0 -0.0015337339 0.50100398)
(0 -0.0021259495 0.5010793)
(0 -0.0027668961 0.50118331)
(0 -0.003473613 0.50132272)
(0 -0.0042671777 0.50150721)
(0 -0.0051743703 0.50175077)
(0 -0.00622997 0.50207389)
(0 -0.0074798451 0.50250704)
(0 -0.0089862277 0.50309722)
(0 -0.010836488 0.50391914)
(0 -0.013137187 0.50508917)
(0 -0.016023981 0.50680681)
(0 -0.019899441 0.50946744)
(0 -0.024731462 0.51427483)
(0 -0.031113327 0.52824694)
(0 -0.050319591 0.54407202)
(0 -0.028438316 0.37238132)
(0 0.027424221 0.31484348)
(0 0.062314774 0.55024072)
(0 0.044614454 0.55146761)
(0 0.033981978 0.52748811)
(0 0.027464025 0.5177224)
(0 0.022455152 0.51291978)
(0 0.018636803 0.50973138)
(0 0.015528174 0.50749257)
(0 0.013006281 0.50589987)
(0 0.010942299 0.50474683)
(0 0.0092248447 0.50389606)
(0 0.0077750659 0.50325909)
(0 0.0065329752 0.50277701)
(0 0.0054521467 0.50240962)
(0 0.0044965313 0.50212912)
(0 0.0036376627 0.50191604)
(0 0.0028525959 0.50175671)
(0 0.002122391 0.50164154)
(0 0.0014309531 0.50156398)
(0 0.00076412139 0.50151981)
(0 0.00010893055 0.50150669)
(0 -0.00054705064 0.50152399)
(0 -0.001216322 0.50157269)
(0 -0.0019120305 0.50165548)
(0 -0.0026486549 0.50177705)
(0 -0.0034427756 0.50194454)
(0 -0.0043140201 0.50216837)
(0 -0.005286274 0.5024634)
(0 -0.006389289 0.50285091)
(0 -0.0076608411 0.50336153)
(0 -0.0091491948 0.50403991)
(0 -0.010916788 0.50495257)
(0 -0.013050456 0.50620235)
(0 -0.015653998 0.50794412)
(0 -0.018815266 0.51040425)
(0 -0.022895768 0.51405476)
(0 -0.02817698 0.5211454)
(0 -0.035707021 0.53932642)
(0 -0.050476502 0.54155561)
(0 -0.024086211 0.33055935)
(0 0.01983786 0.27519811)
(0 0.057989879 0.53974672)
(0 0.047363744 0.56256472)
(0 0.036477568 0.53660451)
(0 0.029636099 0.52350706)
(0 0.024676136 0.51740322)
(0 0.020774295 0.51336292)
(0 0.017509881 0.51044444)
(0 0.014814392 0.50832411)
(0 0.012566899 0.50676172)
(0 0.010665874 0.50559269)
(0 0.0090393248 0.50470791)
(0 0.0076296324 0.50403244)
(0 0.0063909351 0.50351406)
(0 0.0052867729 0.50311606)
(0 0.004287676 0.50281239)
(0 0.003369415 0.50258453)
(0 0.0025116528 0.50241938)
(0 0.0016968645 0.50230793)
(0 0.00090946258 0.50224435)
(0 0.00013506925 0.50222541)
(0 -0.00064014927 0.50225023)
(0 -0.0014300986 0.50232014)
(0 -0.0022493338 0.50243889)
(0 -0.0031137511 0.50261292)
(0 -0.0040413381 0.50285202)
(0 -0.0050530707 0.50317032)
(0 -0.0061740152 0.50358782)
(0 -0.007434722 0.50413271)
(0 -0.0088731203 0.50484492)
(0 -0.010536477 0.50578146)
(0 -0.012483085 0.50702462)
(0 -0.014793162 0.50869755)
(0 -0.01756849 0.5109819)
(0 -0.020863052 0.51412002)
(0 -0.024973121 0.51873022)
(0 -0.030508076 0.5282299)
(0 -0.038629502 0.54872414)
(0 -0.048508477 0.53398539)
(0 -0.019066908 0.29394104)
(0 0.013083126 0.24255542)
(0 0.051798649 0.52520093)
(0 0.047709296 0.57024847)
(0 0.037756972 0.54552485)
(0 0.030850374 0.52928853)
(0 0.026073551 0.52180154)
(0 0.022238068 0.51699777)
(0 0.018953857 0.51347329)
(0 0.016193731 0.51086476)
(0 0.013849881 0.50891225)
(0 0.011835812 0.50743245)
(0 0.010088936 0.50630034)
(0 0.0085566326 0.50542815)
(0 0.0071961505 0.50475377)
(0 0.0059726901 0.5042328)
(0 0.0048574328 0.50383333)
(0 0.0038261906 0.50353238)
(0 0.0028582913 0.50331358)
(0 0.0019356472 0.50316557)
(0 0.0010419745 0.50308097)
(0 0.00016212934 0.50305567)
(0 -0.00071851581 0.50308854)
(0 -0.0016146601 0.5031813)
(0 -0.0025416091 0.50333866)
(0 -0.0035159285 0.50356877)
(0 -0.0045561234 0.50388392)
(0 -0.005683433 0.50430169)
(0 -0.006922772 0.50484673)
(0 -0.0083038465 0.50555329)
(0 -0.0098627282 0.50646916)
(0 -0.011643613 0.50766149)
(0 -0.013698749 0.50922514)
(0 -0.016097643 0.51129807)
(0 -0.018935593 0.51407964)
(0 -0.02224397 0.51783869)
(0 -0.026263586 0.52346794)
(0 -0.031847395 0.53537526)
(0 -0.039758454 0.55589704)
(0 -0.044893546 0.52282519)
(0 -0.014090582 0.2626487)
(0 0.0077700511 0.21554183)
(0 0.044825591 0.5080106)
(0 0.046255267 0.57438087)
(0 0.038035175 0.55375117)
(0 0.03128783 0.53496039)
(0 0.026768354 0.52603013)
(0 0.023116777 0.52053823)
(0 0.019920943 0.516488)
(0 0.0171823 0.51344137)
(0 0.01481363 0.51113033)
(0 0.012746502 0.50935918)
(0 0.010928864 0.50799063)
(0 0.0093148137 0.50692708)
(0 0.0078663821 0.5060986)
(0 0.0065518252 0.5054546)
(0 0.0053441863 0.50495823)
(0 0.0042203549 0.5045827)
(0 0.0031602003 0.50430878)
(0 0.0021458199 0.504123)
(0 0.0011608894 0.50401658)
(0 0.0001900939 0.50398462)
(0 -0.00078142157 0.50402574)
(0 -0.0017685807 0.50414201)
(0 -0.002786838 0.50433905)
(0 -0.0038527648 0.50462653)
(0 -0.0049846248 0.50501894)
(0 -0.0062030366 0.50553692)
(0 -0.0075317392 0.50620904)
(0 -0.0089984164 0.50707464)
(0 -0.010635865 0.50818788)
(0 -0.012483665 0.50962401)
(0 -0.014586951 0.51148807)
(0 -0.017001923 0.51392895)
(0 -0.019810246 0.51715538)
(0 -0.023027886 0.52148043)
(0 -0.026877352 0.52818289)
(0 -0.032349311 0.54222048)
(0 -0.039401872 0.56050275)
(0 -0.040327551 0.50908688)
(0 -0.0097079258 0.23586194)
(0 0.0040048765 0.19355738)
(0 0.037899224 0.48948802)
(0 0.043686725 0.57524021)
(0 0.037563754 0.56084495)
(0 0.03115417 0.54036101)
(0 0.026914209 0.53001122)
(0 0.023514219 0.52390161)
(0 0.020480495 0.51941236)
(0 0.017827016 0.51598755)
(0 0.015489817 0.51335864)
(0 0.01341857 0.51132381)
(0 0.011571925 0.50973718)
(0 0.0099117173 0.50849413)
(0 0.0084057126 0.50751897)
(0 0.0070260812 0.50675634)
(0 0.0057485514 0.50616552)
(0 0.0045518408 0.50571665)
(0 0.0034170304 0.50538812)
(0 0.0023270056 0.50516471)
(0 0.0012659507 0.50503643)
(0 0.00021889128 0.50499771)
(0 -0.00082875994 0.50504697)
(0 -0.0018916552 0.50518656)
(0 -0.0029848824 0.50542289)
(0 -0.0041244638 0.5057669)
(0 -0.0053278132 0.50623498)
(0 -0.0066142509 0.50685022)
(0 -0.008005587 0.50764442)
(0 -0.0095266778 0.50866095)
(0 -0.011206122 0.50995886)
(0 -0.013077787 0.51161949)
(0 -0.015179192 0.5137555)
(0 -0.017552972 0.51652263)
(0 -0.020263282 0.52013196)
(0 -0.023317989 0.52496367)
(0 -0.026959044 0.53274036)
(0 -0.032200613 0.54839091)
(0 -0.037992826 0.56254483)
(0 -0.03541377 0.49379726)
(0 -0.0062002583 0.21325785)
(0 0.0015510062 0.17613478)
(0 0.031499236 0.47076303)
(0 0.040531858 0.57338601)
(0 0.036558583 0.5665983)
(0 0.030637085 0.54537826)
(0 0.026671499 0.53370434)
(0 0.023543013 0.52703198)
(0 0.02071042 0.52218808)
(0 0.018183056 0.51845087)
(0 0.015917451 0.51555064)
(0 0.013879178 0.51328525)
(0 0.0120368 0.51150407)
(0 0.010360018 0.51009805)
(0 0.0088225732 0.5089877)
(0 0.0074009339 0.5081143)
(0 0.0060739842 0.5074343)
(0 0.0048227488 0.50691555)
(0 0.0036299863 0.50653459)
(0 0.0024798178 0.50627484)
(0 0.0013573636 0.50612533)
(0 0.00024840121 0.50607994)
(0 -0.00086098497 0.50613694)
(0 -0.0019847702 0.50629891)
(0 -0.0031372615 0.50657288)
(0 -0.004333501 0.50697085)
(0 -0.0055896003 0.50751064)
(0 -0.0069231067 0.5082173)
(0 -0.0083534101 0.50912503)
(0 -0.009902081 0.51028015)
(0 -0.011593129 0.51174522)
(0 -0.013454278 0.51360558)
(0 -0.015515599 0.51597871)
(0 -0.017807716 0.51902317)
(0 -0.020377579 0.52294995)
(0 -0.023232428 0.52823594)
(0 -0.026652634 0.53704079)
(0 -0.03156257 0.5536593)
(0 -0.03590227 0.56231003)
(0 -0.030551754 0.4778976)
(0 -0.0035905757 0.19461671)
(0 7.661038e-05 0.16252661)
(0 0.025869904 0.45260226)
(0 0.037158899 0.56943381)
(0 0.035190603 0.57098867)
(0 0.029876751 0.54996264)
(0 0.026173253 0.53711354)
(0 0.023305529 0.52991196)
(0 0.020687221 0.52478372)
(0 0.018307806 0.52079762)
(0 0.016138904 0.51767342)
(0 0.014159218 0.51521258)
(0 0.012345891 0.51326291)
(0 0.010675842 0.51171319)
(0 0.0091284552 0.51048173)
(0 0.0076844738 0.50950773)
(0 0.0063260892 0.50874584)
(0 0.0050368624 0.5081623)
(0 0.0038015041 0.50773235)
(0 0.002605666 0.50743841)
(0 0.0014357074 0.5072688)
(0 0.00027846272 0.50721698)
(0 -0.00087900644 0.50728112)
(0 -0.0020496916 0.50746394)
(0 -0.0032468127 0.50777297)
(0 -0.0044841261 0.50822095)
(0 -0.0057761431 0.50882681)
(0 -0.007138361 0.50961693)
(0 -0.0085875092 0.5106272)
(0 -0.010141732 0.51190587)
(0 -0.011820516 0.51351765)
(0 -0.013645655 0.5155502)
(0 -0.015640368 0.51812329)
(0 -0.01782529 0.52139509)
(0 -0.020232804 0.52558006)
(0 -0.02287649 0.53128307)
(0 -0.026074229 0.54103165)
(0 -0.030565762 0.55793477)
(0 -0.033423492 0.56019357)
(0 -0.025993293 0.46207688)
(0 -0.0017645835 0.17947878)
(0 -0.00071811049 0.15190947)
(0 0.021107404 0.43543757)
(0 0.033818194 0.56393257)
(0 0.033602862 0.57408889)
(0 0.028973838 0.55409349)
(0 0.025519026 0.54026305)
(0 0.022885399 0.53255206)
(0 0.020477851 0.5271913)
(0 0.018254275 0.52301174)
(0 0.01619526 0.5197074)
(0 0.014290076 0.51708498)
(0 0.012522959 0.51499306)
(0 0.010877011 0.51331976)
(0 0.0093365943 0.51198244)
(0 0.0078864222 0.51091931)
(0 0.0065118924 0.51008399)
(0 0.0051991265 0.50944179)
(0 0.0039348942 0.50896713)
(0 0.0027065352 0.50864177)
(0 0.0015018342 0.50845355)
(0 0.0003088832 0.50839566)
(0 -0.0008840709 0.50846615)
(0 -0.0020888267 0.50866789)
(0 -0.003317316 0.50900871)
(0 -0.0045818227 0.5095019)
(0 -0.0058951006 0.51016705)
(0 -0.0072704918 0.51103143)
(0 -0.0087220367 0.51213191)
(0 -0.010264553 0.51351779)
(0 -0.011913361 0.51525492)
(0 -0.013684913 0.51743195)
(0 -0.015596368 0.52016903)
(0 -0.017660197 0.52362208)
(0 -0.019897873 0.52801678)
(0 -0.022335566 0.53411118)
(0 -0.025314764 0.54468195)
(0 -0.029325345 0.56120795)
(0 -0.030788035 0.55659068)
(0 -0.021891953 0.4467734)
(0 -0.00056394709 0.16725689)
(0 -0.0010702479 0.14358604)
(0 0.017202595 0.41948311)
(0 0.030665343 0.55734159)
(0 0.031913274 0.57602018)
(0 0.028002414 0.55776316)
(0 0.024782355 0.54317872)
(0 0.022349074 0.53497499)
(0 0.02013795 0.52941671)
(0 0.018068232 0.52508922)
(0 0.016123542 0.52164316)
(0 0.014301254 0.51888996)
(0 0.012591212 0.51668048)
(0 0.010981552 0.51490316)
(0 0.0094608292 0.5134753)
(0 0.0080172626 0.51233487)
(0 0.0066391911 0.51143511)
(0 0.0053151725 0.51074093)
(0 0.0040340129 0.51022632)
(0 0.0027847825 0.50987267)
(0 0.0015567748 0.50966755)
(0 0.0003394476 0.50960398)
(0 -0.00087764849 0.50967995)
(0 -0.0021049999 0.50989842)
(0 -0.0033531435 0.51026739)
(0 -0.0046328083 0.51080044)
(0 -0.00595495 0.51151756)
(0 -0.0073307833 0.51244643)
(0 -0.0087717844 0.51362436)
(0 -0.0102897 0.51510106)
(0 -0.011896176 0.5169427)
(0 -0.013603092 0.51923802)
(0 -0.015422454 0.5221062)
(0 -0.017360251 0.52570018)
(0 -0.019431089 0.53026709)
(0 -0.021678603 0.53673199)
(0 -0.024447461 0.54797159)
(0 -0.027943014 0.56352274)
(0 -0.028166465 0.55186313)
(0 -0.018321899 0.43225187)
(0 0.00016976051 0.15740501)
(0 -0.0011533625 0.13700492)
(0 0.014077986 0.40481927)
(0 0.027780397 0.55003522)
(0 0.030209883 0.57692999)
(0 0.027014887 0.56097812)
(0 0.024016225 0.54588454)
(0 0.021748429 0.5372077)
(0 0.019712705 0.53147308)
(0 0.017788013 0.52703329)
(0 0.015955853 0.52347813)
(0 0.014219225 0.52062111)
(0 0.012572146 0.51831631)
(0 0.011006672 0.51645313)
(0 0.0095147462 0.51494933)
(0 0.0080875545 0.51374315)
(0 0.00671602 0.51278795)
(0 0.0053909196 0.51204857)
(0 0.0041029809 0.51149893)
(0 0.0028429589 0.51112027)
(0 0.001601657 0.51090007)
(0 0.00036992786 0.51083125)
(0 -0.00086133203 0.51091179)
(0 -0.0021012548 0.51114467)
(0 -0.003358955 0.51153797)
(0 -0.0046436088 0.51210538)
(0 -0.0059644225 0.51286699)
(0 -0.0073306051 0.51385059)
(0 -0.0087512928 0.51509352)
(0 -0.010235512 0.51664539)
(0 -0.011791788 0.51857211)
(0 -0.01342826 0.52096188)
(0 -0.01515277 0.52393203)
(0 -0.016966483 0.52763307)
(0 -0.01888103 0.53234467)
(0 -0.020960155 0.53915961)
(0 -0.023529517 0.55089409)
(0 -0.026501236 0.56496172)
(0 -0.02567003 0.54632876)
(0 -0.015294768 0.41866029)
(0 0.00057466553 0.14946039)
(0 -0.0010857843 0.13172636)
(0 0.011622929 0.39143736)
(0 0.025191193 0.54230717)
(0 0.028551498 0.57697262)
(0 0.02604465 0.56375804)
(0 0.023255992 0.54840337)
(0 0.021121981 0.53927868)
(0 0.019237559 0.5333778)
(0 0.017444838 0.52885193)
(0 0.015719246 0.5252144)
(0 0.014066982 0.5222765)
(0 0.01248496 0.51989578)
(0 0.010968149 0.51796297)
(0 0.0095111077 0.51639662)
(0 0.0081074347 0.51513553)
(0 0.0067502422 0.51413345)
(0 0.0054322568 0.51335548)
(0 0.0041459527 0.51277564)
(0 0.002883662 0.51237525)
(0 0.0016376368 0.51214178)
(0 0.000400092 0.51206816)
(0 -0.00083675006 0.51215235)
(0 -0.0020806868 0.51239732)
(0 -0.0033394463 0.51281115)
(0 -0.0046207172 0.51340748)
(0 -0.0059320697 0.51420634)
(0 -0.0072808909 0.51523535)
(0 -0.008674259 0.51653157)
(0 -0.010118881 0.51814418)
(0 -0.011620737 0.52013849)
(0 -0.013185041 0.52260175)
(0 -0.01481646 0.52564892)
(0 -0.016512927 0.5294299)
(0 -0.018286407 0.53426768)
(0 -0.020220853 0.54141067)
(0 -0.022602482 0.55345709)
(0 -0.025061075 0.56562941)
(0 -0.023361414 0.54025345)
(0 -0.012780937 0.40606054)
(0 0.00075987513 0.14302874)
(0 -0.00094395333 0.12740476)
(0 0.0097186516 0.37927135)
(0 0.022894274 0.53437788)
(0 0.026973312 0.57629315)
(0 0.025110441 0.56613015)
(0 0.022522886 0.55075588)
(0 0.020496392 0.5412156)
(0 0.018738959 0.53515049)
(0 0.017063196 0.53055614)
(0 0.015435782 0.52685729)
(0 0.013863889 0.5238574)
(0 0.012346278 0.52141718)
(0 0.010879987 0.51942885)
(0 0.0094614931 0.51781183)
(0 0.0080862818 0.51650565)
(0 0.0067492568 0.51546462)
(0 0.0054448047 0.51465423)
(0 0.0041669388 0.51404879)
(0 0.0029094205 0.51362978)
(0 0.0016658454 0.51338479)
(0 0.00042971263 0.51330678)
(0 -0.00080549594 0.51339374)
(0 -0.0020463096 0.51364858)
(0 -0.0032991521 0.51407931)
(0 -0.0045703348 0.51469942)
(0 -0.0058659481 0.51552872)
(0 -0.0071917759 0.51659452)
(0 -0.0085531468 0.5179334)
(0 -0.0099548641 0.51959391)
(0 -0.011400911 0.52164058)
(0 -0.012894318 0.52415946)
(0 -0.014437473 0.52726308)
(0 -0.016026541 0.53110358)
(0 -0.017676341 0.53605654)
(0 -0.01948887 0.54350271)
(0 -0.021694398 0.55567804)
(0 -0.02366454 0.56563587)
(0 -0.021268678 0.53384873)
(0 -0.010727894 0.39445214)
(0 0.00080570515 0.13777674)
(0 -0.00077535948 0.12377906)
(0 0.0082524996 0.36822433)
(0 0.02086937 0.52640684)
(0 0.025493217 0.57501944)
(0 0.024221053 0.56812406)
(0 0.021828057 0.55295907)
(0 0.019888814 0.54304313)
(0 0.018235675 0.53681092)
(0 0.016661541 0.53215841)
(0 0.015122832 0.52841409)
(0 0.013625743 0.5253673)
(0 0.012170074 0.52288107)
(0 0.010754258 0.52084914)
(0 0.0093761013 0.51919172)
(0 0.0080325097 0.5178491)
(0 0.0067198066 0.5167762)
(0 0.0054337525 0.515939)
(0 0.0041696797 0.51531216)
(0 0.0029226099 0.51487743)
(0 0.00168735 0.51462255)
(0 0.00045857457 0.51454056)
(0 -0.00076907372 0.51462945)
(0 -0.0020009554 0.51489209)
(0 -0.0032423027 0.51533635)
(0 -0.0044981892 0.51597552)
(0 -0.005773404 0.5168291)
(0 -0.0070723614 0.51792396)
(0 -0.008398948 0.51929614)
(0 -0.0097564585 0.52099345)
(0 -0.011147378 0.52307958)
(0 -0.01257318 0.52563933)
(0 -0.014034739 0.52878312)
(0 -0.015527748 0.53266879)
(0 -0.017071598 0.5377315)
(0 -0.018782441 0.5454522)
(0 -0.020822817 0.55757936)
(0 -0.022338194 0.56508606)
(0 -0.019396926 0.52727663)
(0 -0.0090728738 0.38379464)
(0 0.00076866118 0.13343198)
(0 -0.00060798909 0.12065902)
(0 0.0071252819 0.35818745)
(0 0.019088461 0.51850622)
(0 0.024117081 0.57326051)
(0 0.023378946 0.56976913)
(0 0.021175959 0.55502583)
(0 0.019309335 0.54478172)
(0 0.017740409 0.5383774)
(0 0.016253302 0.53367133)
(0 0.014793652 0.5298929)
(0 0.013365067 0.52681092)
(0 0.011967779 0.52428954)
(0 0.010601094 0.52222379)
(0 0.0092636804 0.52053463)
(0 0.0079534682 0.519163)
(0 0.0066678718 0.51806442)
(0 0.0054037593 0.51720538)
(0 0.0041575661 0.51656092)
(0 0.0029253986 0.51611308)
(0 0.0017031294 0.51584978)
(0 0.00048648139 0.51576417)
(0 -0.00072886006 0.51585424)
(0 -0.0019472062 0.5161228)
(0 -0.0031727291 0.51657756)
(0 -0.0044094174 0.51723158)
(0 -0.005660946 0.51810398)
(0 -0.0069305899 0.51922118)
(0 -0.0082210818 0.52061861)
(0 -0.0095345637 0.52234339)
(0 -0.010872449 0.52445838)
(0 -0.01223517 0.52704719)
(0 -0.013622708 0.53021874)
(0 -0.015031397 0.53414041)
(0 -0.016486184 0.53931106)
(0 -0.018112343 0.54727349)
(0 -0.019997452 0.55918549)
(0 -0.021096499 0.56407474)
(0 -0.017736913 0.52065785)
(0 -0.0077511622 0.37402517)
(0 0.00068715515 0.12977916)
(0 -0.00045676317 0.11790939)
(0 0.0062544148 0.34905123)
(0 0.017521411 0.51075254)
(0 0.022843013 0.57110769)
(0 0.022582753 0.57109335)
(0 0.020566763 0.55696559)
(0 0.018762994 0.54644747)
(0 0.017261274 0.53986608)
(0 0.015847917 0.53510678)
(0 0.014458078 0.53130188)
(0 0.013091543 0.52819358)
(0 0.011748521 0.52564553)
(0 0.010428804 0.52355388)
(0 0.0091315619 0.52184012)
(0 0.0078554288 0.52044572)
(0 0.0065986319 0.51932675)
(0 0.0053589089 0.51845016)
(0 0.0041335979 0.51779138)
(0 0.0029197187 0.51733272)
(0 0.0017140603 0.51706231)
(0 0.00051326061 0.5169734)
(0 -0.00068608047 0.51706399)
(0 -0.0018873538 0.51733682)
(0 -0.0030938098 0.51779943)
(0 -0.0043085085 0.51846462)
(0 -0.005534193 0.51935115)
(0 -0.0067732147 0.52048496)
(0 -0.0080274111 0.52190091)
(0 -0.0092980773 0.5236455)
(0 -0.010585907 0.52578085)
(0 -0.0118907 0.52838953)
(0 -0.013212029 0.5315798)
(0 -0.014547779 0.5355325)
(0 -0.015928807 0.54081124)
(0 -0.017483895 0.54897867)
(0 -0.019222307 0.56052114)
(0 -0.019944903 0.56268471)
(0 -0.016271364 0.51407997)
(0 -0.0067015482 0.36507028)
(0 0.00058636581 0.12665176)
(0 -0.00032814738 0.11543594)
(0 0.0055741602 0.34071182)
(0 0.016139274 0.50319593)
(0 0.021664728 0.56863676)
(0 0.021829087 0.57212283)
(0 0.019998061 0.55878495)
(0 0.01825135 0.54805259)
(0 0.016803 0.5412907)
(0 0.01545173 0.53647554)
(0 0.014123188 0.53264878)
(0 0.012812474 0.52952066)
(0 0.011519435 0.52695248)
(0 0.010244062 0.52484115)
(0 0.0089857632 0.52310856)
(0 0.0077436328 0.52169655)
(0 0.0065164787 0.52056162)
(0 0.0053027054 0.51967112)
(0 0.0041003731 0.51900084)
(0 0.0029072552 0.51853335)
(0 0.0017209136 0.51825697)
(0 0.00053876749 0.51816504)
(0 -0.00064179743 0.51825559)
(0 -0.0018233819 0.51853126)
(0 -0.0030084524 0.51899945)
(0 -0.0041992913 0.51967268)
(0 -0.0053978801 0.52056938)
(0 -0.0066058412 0.52171504)
(0 -0.0078243394 0.52314403)
(0 -0.0090540778 0.52490228)
(0 -0.010295309 0.52705136)
(0 -0.01154751 0.52967299)
(0 -0.012810222 0.53287582)
(0 -0.014083563 0.53685776)
(0 -0.015404145 0.54224538)
(0 -0.016898549 0.55057768)
(0 -0.018497473 0.56161008)
(0 -0.018882681 0.5609865)
(0 -0.014979438 0.5076045)
(0 -0.0058694315 0.35685338)
(0 0.00048203803 0.12392312)
(0 -0.00022347381 0.11317426)
(0 0.0050340343 0.33307429)
(0 0.014915947 0.49586733)
(0 0.020573968 0.56591018)
(0 0.021113793 0.57288147)
(0 0.019466106 0.56048839)
(0 0.017773714 0.54960587)
(0 0.016367908 0.54266263)
(0 0.015068758 0.53778708)
(0 0.013793894 0.53394071)
(0 0.012533225 0.53079738)
(0 0.011285969 0.52821396)
(0 0.010052114 0.52608778)
(0 0.0088311278 0.52434092)
(0 0.0076223762 0.52291546)
(0 0.006425066 0.5217682)
(0 0.0052380982 0.52086683)
(0 0.0040600991 0.52018743)
(0 0.0028894515 0.5197128)
(0 0.0017243563 0.51943142)
(0 0.00056288719 0.51933674)
(0 -0.0005969085 0.51942676)
(0 -0.0017569669 0.51970409)
(0 -0.0029191012 0.52017594)
(0 -0.0040849561 0.52085462)
(0 -0.0052559055 0.52175822)
(0 -0.0064330115 0.52291187)
(0 -0.0076169531 0.52434951)
(0 -0.0088080444 0.52611665)
(0 -0.01000631 0.52827442)
(0 -0.01121113 0.53090397)
(0 -0.012422295 0.53411553)
(0 -0.013642625 0.53812731)
(0 -0.014913935 0.54362421)
(0 -0.016355194 0.55207841)
(0 -0.017820596 0.56247438)
(0 -0.017905303 0.55903919)
(0 -0.013839623 0.50127306)
(0 -0.0052081424 0.34929943)
(0 0.00038337874 0.12149844)
(0 -0.00014121375 0.11108097)
(0 0.0045963799 0.32605406)
(0 0.013828745 0.48878408)
(0 0.019562053 0.56297952)
(0 0.02043273 0.57339109)
(0 0.018966667 0.56207879)
(0 0.017328077 0.55111324)
(0 0.015956683 0.54399101)
(0 0.01470131 0.53904959)
(0 0.013473448 0.53518403)
(0 0.012257618 0.53202855)
(0 0.011052189 0.52943349)
(0 0.009857004 0.5272961)
(0 0.0086714789 0.52553853)
(0 0.0074951158 0.52410294)
(0 0.0063273781 0.52294629)
(0 0.0051675261 0.52203653)
(0 0.0040146192 0.52134997)
(0 0.0028675238 0.52086961)
(0 0.0017249586 0.52058406)
(0 0.00058553579 0.52048683)
(0 -0.00055215154 0.52057596)
(0 -0.0016894912 0.52085396)
(0 -0.0028277631 0.52132792)
(0 -0.0039681002 0.52200993)
(0 -0.005111403 0.52291782)
(0 -0.006258316 0.5240764)
(0 -0.0074091843 0.52551927)
(0 -0.0085640898 0.52729167)
(0 -0.009722981 0.52945443)
(0 -0.01088531 0.53208844)
(0 -0.012051314 0.53530678)
(0 -0.013226784 0.53935055)
(0 -0.014457899 0.54495602)
(0 -0.015851162 0.55348694)
(0 -0.017187983 0.56313403)
(0 -0.017006173 0.55689175)
(0 -0.012831467 0.49511243)
(0 -0.0046791347 0.34233781)
(0 0.00029521846 0.11930796)
(0 -7.8457633e-05 0.10912705)
(0 0.0042337795 0.31957708)
(0 0.012858377 0.48195413)
(0 0.018620752 0.55988753)
(0 0.019782174 0.57367164)
(0 0.018495556 0.56355799)
(0 0.016911771 0.5525784)
(0 0.015568961 0.54528299)
(0 0.014350498 0.54026994)
(0 0.01316387 0.5363843)
(0 0.011988275 0.53321857)
(0 0.010821045 0.53061441)
(0 0.009661778 0.52846852)
(0 0.0085097756 0.52670295)
(0 0.007364582 0.52525979)
(0 0.0062258105 0.52409609)
(0 0.0050929714 0.52317994)
(0 0.003965448 0.52248782)
(0 0.0028424818 0.52200288)
(0 0.0017232036 0.52171384)
(0 0.0006066595 0.52161427)
(0 -0.00050811564 0.52170221)
(0 -0.0016220664 0.52198011)
(0 -0.002736046 0.52245493)
(0 -0.0038507861 0.52313859)
(0 -0.0049668281 0.52404871)
(0 -0.0060845165 0.52520985)
(0 -0.0072039816 0.52665539)
(0 -0.0083251908 0.52843038)
(0 -0.0094481209 0.53059553)
(0 -0.010572407 0.53323178)
(0 -0.011698883 0.53645638)
(0 -0.012836404 0.54053522)
(0 -0.014034466 0.54624694)
(0 -0.015382961 0.55480787)
(0 -0.016595366 0.56360701)
(0 -0.01617784 0.55458456)
(0 -0.01193647 0.4891386)
(0 -0.0042514714 0.33590387)
(0 0.00021954113 0.11730107)
(0 -3.1838683e-05 0.10729291)
(0 0.0039266635 0.31357922)
(0 0.011988645 0.47537903)
(0 0.017742706 0.55666986)
(0 0.019158986 0.57374149)
(0 0.018048925 0.5649273)
(0 0.016521899 0.55400331)
(0 0.015203749 0.54654406)
(0 0.014016616 0.5414539)
(0 0.01286629 0.53754631)
(0 0.01172691 0.53437131)
(0 0.01059461 0.53175979)
(0 0.0094686748 0.52960735)
(0 0.0083482603 0.5278358)
(0 0.0072328906 0.52638705)
(0 0.0061222515 0.52521812)
(0 0.0050160189 0.52429716)
(0 0.0039138107 0.52360076)
(0 0.0028151531 0.52311218)
(0 0.0017194975 0.52282022)
(0 0.0006262331 0.52271849)
(0 -0.00046525498 0.52280502)
(0 -0.0015555607 0.52308221)
(0 -0.0026452033 0.52355693)
(0 -0.0037346075 0.52424096)
(0 -0.0048240505 0.52515174)
(0 -0.0059136713 0.52631366)
(0 -0.0070034765 0.52775997)
(0 -0.0080934032 0.52953567)
(0 -0.009183523 0.53170148)
(0 -0.010273729 0.53433873)
(0 -0.011365555 0.53757014)
(0 -0.012470872 0.54168755)
(0 -0.013641308 0.54750128)
(0 -0.014946789 0.55604462)
(0 -0.016038417 0.56390936)
(0 -0.015412805 0.5521509)
(0 -0.011138432 0.48335985)
(0 -0.0039009151 0.32993963)
(0 0.00015655191 0.1154415)
(0 1.9255623e-06 0.10556494)
(0 0.0036612693 0.30800539)
(0 0.011206024 0.46905606)
(0 0.016921562 0.55335646)
(0 0.018560627 0.57361768)
(0 0.0176234 0.56618781)
(0 0.016155601 0.55538869)
(0 0.014859706 0.54777827)
(0 0.013699426 0.54260622)
(0 0.012581209 0.53867418)
(0 0.011474563 0.53549019)
(0 0.010374283 0.53287245)
(0 0.0092792917 0.53071482)
(0 0.0081885919 0.52893875)
(0 0.0071016477 0.52748589)
(0 0.0060181626 0.52631312)
(0 0.0049379141 0.52538858)
(0 0.0038606836 0.52468892)
(0 0.0027862074 0.52419745)
(0 0.0017141808 0.52390303)
(0 0.00064425779 0.52379929)
(0 -0.00042390477 0.52388427)
(0 -0.0014906296 0.5241603)
(0 -0.0025561816 0.5246342)
(0 -0.0036207566 0.52531762)
(0 -0.0046844455 0.5262279)
(0 -0.0057472552 0.52738933)
(0 -0.0068091366 0.5288351)
(0 -0.0078700545 0.53061026)
(0 -0.0089302127 0.53277566)
(0 -0.0099898084 0.53541342)
(0 -0.011051152 0.53865293)
(0 -0.012128957 0.5428124)
(0 -0.013275733 0.5487219)
(0 -0.014538864 0.55719977)
(0 -0.015513058 0.56405546)
(0 -0.014704007 0.54961825)
(0 -0.010423471 0.47777903)
(0 -0.0036088572 0.32439374)
(0 0.00010542062 0.11370337)
(0 2.5754915e-05 0.10393324)
(0 0.003428002 0.30280832)
(0 0.010499219 0.46297973)
(0 0.016151934 0.54997261)
(0 0.017985098 0.57331611)
(0 0.017216126 0.56734066)
(0 0.015810202 0.55673441)
(0 0.01453534 0.54898856)
(0 0.013398358 0.54373077)
(0 0.012308697 0.53977143)
(0 0.011231779 0.53657821)
(0 0.010160947 0.53395489)
(0 0.0090947244 0.53179298)
(0 0.0080319627 0.53001343)
(0 0.0069720436 0.52855753)
(0 0.0059146517 0.52738196)
(0 0.0048596184 0.52645479)
(0 0.0038068328 0.52575264)
(0 0.0027561811 0.52525888)
(0 0.0017075383 0.52496238)
(0 0.00066075807 0.52485679)
(0 -0.00038429754 0.52494011)
(0 -0.0014277471 0.52521468)
(0 -0.002469667 0.52568722)
(0 -0.0035100893 0.52636934)
(0 -0.0045489796 0.52727831)
(0 -0.0055862695 0.52843836)
(0 -0.0066219025 0.52988272)
(0 -0.0076559086 0.53165658)
(0 -0.0086886412 0.53382103)
(0 -0.0097206276 0.53645937)
(0 -0.010755009 0.53970879)
(0 -0.01180908 0.5439135)
(0 -0.012934948 0.54991052)
(0 -0.014155636 0.55827531)
(0 -0.015015634 0.56405827)
(0 -0.014045079 0.5470094)
(0 -0.0097798559 0.4723953)
(0 -0.0033612507 0.31922116)
(0 6.4788097e-05 0.11206826)
(0 4.2098923e-05 0.10239008)
(0 0.0032201789 0.29794756)
(0 0.0098587645 0.4571428)
(0 0.015429281 0.54653976)
(0 0.017430843 0.57285171)
(0 0.016824743 0.56838721)
(0 0.015483282 0.55803979)
(0 0.01422912 0.55017698)
(0 0.013112646 0.54483075)
(0 0.012048534 0.54084104)
(0 0.010998753 0.53763796)