/*--------------------------------*- C++ -*----------------------------------*\
  =========                 |
  \\      /  F ield         | OpenFOAM: The Open Source CFD Toolbox
   \\    /   O peration     | Website:  https://openfoam.org
    \\  /    A nd           | Version:  10
     \\/     M anipulation  |
\*---------------------------------------------------------------------------*/
FoamFile
{
    format      ascii;
    class       volVectorField;
    location    "0.23";
    object      U_0;
}
// * * * * * * * * * * * * * * * * * * * * * * * * * * * * * * * * * * * * * //

dimensions      [0 1 -1 0 0 0 0];

internalField   nonuniform List<vector> 
4000
(
(0 0.018637454 0.47773157)
(0 0.023509989 0.50886061)
(0 0.0081668404 0.50052521)
(0 0.0056146033 0.50033634)
(0 0.0042546198 0.50025746)
(0 0.0032549394 0.50016898)
(0 0.0025560904 0.50011969)
(0 0.0020545879 0.50009013)
(0 0.0016765928 0.50006981)
(0 0.0013822616 0.50005539)
(0 0.0011472218 0.50004499)
(0 0.00095513454 0.50003733)
(0 0.00079474558 0.5000316)
(0 0.00065807911 0.50002727)
(0 0.00053930676 0.50002399)
(0 0.00043404771 0.50002151)
(0 0.00033891461 0.50001966)
(0 0.00025120537 0.50001833)
(0 0.00016868723 0.50001744)
(0 8.9438158e-05 0.50001693)
(0 1.1724685e-05 0.50001678)
(0 -6.6105312e-05 0.50001698)
(0 -0.0001457142 0.50001754)
(0 -0.00022886656 0.5000185)
(0 -0.00031754005 0.50001991)
(0 -0.00041405587 0.50002185)
(0 -0.00052125062 0.50002446)
(0 -0.00064271555 0.50002793)
(0 -0.00078314454 0.50003252)
(0 -0.00094886371 0.50003863)
(0 -0.0011486828 0.50004688)
(0 -0.0013952601 0.50005824)
(0 -0.0017073422 0.50007414)
(0 -0.0021152782 0.50009709)
(0 -0.0026749821 0.50013482)
(0 -0.0034685652 0.50020238)
(0 -0.0045608059 0.50027143)
(0 -0.0065850038 0.50043365)
(0 -0.017659447 0.50675406)
(0 -0.013590124 0.47975564)
(0 0.037432671 0.44796929)
(0 0.050955707 0.53232615)
(0 0.021969278 0.50804289)
(0 0.016135611 0.50357318)
(0 0.012416058 0.50242316)
(0 0.0095159412 0.50162299)
(0 0.007520623 0.50115661)
(0 0.0060699127 0.50086592)
(0 0.0049646122 0.500668)
(0 0.0041001889 0.500529)
(0 0.0034076925 0.50042903)
(0 0.002840175 0.50035553)
(0 0.0023652627 0.50030064)
(0 0.0019598715 0.50025924)
(0 0.001607041 0.50022789)
(0 0.0012939759 0.50020423)
(0 0.0010107512 0.50018663)
(0 0.0007494288 0.50017395)
(0 0.00050343443 0.50016544)
(0 0.00026709847 0.50016061)
(0 3.5300314e-05 0.50015918)
(0 -0.00019683951 0.50016109)
(0 -0.00043423041 0.50016643)
(0 -0.00068208281 0.50017554)
(0 -0.00094622714 0.50018895)
(0 -0.0012334928 0.50020751)
(0 -0.0015522039 0.50023245)
(0 -0.0019128669 0.50026557)
(0 -0.0023291629 0.50030949)
(0 -0.0028194318 0.5003681)
(0 -0.0034090488 0.50044735)
(0 -0.0041343901 0.50055671)
(0 -0.0050485347 0.50071127)
(0 -0.006231348 0.50093661)
(0 -0.0078317137 0.50129439)
(0 -0.010125422 0.50191053)
(0 -0.01310659 0.50282512)
(0 -0.017426009 0.50608119)
(0 -0.03875881 0.52526812)
(0 -0.027894573 0.45021662)
(0 0.039888251 0.40982063)
(0 0.061428076 0.54930816)
(0 0.031983702 0.52188195)
(0 0.024355476 0.51008055)
(0 0.019193621 0.50658856)
(0 0.014977179 0.50452807)
(0 0.012006776 0.50327138)
(0 0.0097720052 0.50245837)
(0 0.0080366245 0.50190105)
(0 0.0066649882 0.50150868)
(0 0.0055568751 0.50122547)
(0 0.0046427509 0.50101671)
(0 0.0038738772 0.50086056)
(0 0.003214858 0.50074265)
(0 0.0026393589 0.50065326)
(0 0.0021273264 0.50058575)
(0 0.0016630834 0.50053548)
(0 0.0012340096 0.50049928)
(0 0.00082959783 0.50047496)
(0 0.00044074879 0.50046113)
(0 5.9220944e-05 0.50045704)
(0 -0.00032284747 0.50046248)
(0 -0.0007133653 0.50047777)
(0 -0.0011207122 0.50050379)
(0 -0.0015542335 0.50054209)
(0 -0.0020248241 0.50059506)
(0 -0.0025456828 0.50066619)
(0 -0.0031333425 0.50076055)
(0 -0.0038091338 0.50088556)
(0 -0.0046012963 0.50105211)
(0 -0.0055481853 0.50127675)
(0 -0.0067037813 0.50158561)
(0 -0.0081452856 0.5020208)
(0 -0.0099767876 0.50265074)
(0 -0.012371102 0.5036151)
(0 -0.01571619 0.5051992)
(0 -0.019872672 0.50785396)
(0 -0.02518635 0.51641224)
(0 -0.047416961 0.53912733)
(0 -0.030853606 0.41488049)
(0 0.034791548 0.36173021)
(0 0.063838831 0.55456337)
(0 0.039380324 0.53747134)
(0 0.030083339 0.5184926)
(0 0.02411258 0.51197728)
(0 0.019279595 0.50849943)
(0 0.015736201 0.50626423)
(0 0.012954238 0.50475542)
(0 0.010743743 0.5037044)
(0 0.008968023 0.50295609)
(0 0.007514048 0.50241105)
(0 0.0063021522 0.50200676)
(0 0.0052745303 0.50170297)
(0 0.0043879252 0.50147274)
(0 0.0036095197 0.50129773)
(0 0.0029139301 0.50116525)
(0 0.0022810499 0.50106645)
(0 0.0016945182 0.50099519)
(0 0.0011405943 0.50094727)
(0 0.0006072982 0.50092001)
(0 8.3728916e-05 0.50091194)
(0 -0.00044053459 0.50092264)
(0 -0.0009759737 0.50095275)
(0 -0.0015336589 0.50100397)
(0 -0.0021258696 0.50107929)
(0 -0.0027668118 0.5011833)
(0 -0.0034735248 0.50132271)
(0 -0.0042670863 0.5015072)
(0 -0.0051742763 0.50175077)
(0 -0.0062298741 0.50207389)
(0 -0.0074797483 0.50250704)
(0 -0.0089861309 0.50309722)
(0 -0.010836392 0.50391914)
(0 -0.013137093 0.50508917)
(0 -0.01602389 0.50680681)
(0 -0.019899355 0.50946745)
(0 -0.024731383 0.51427484)
(0 -0.031113247 0.52824694)
(0 -0.050319524 0.54407204)
(0 -0.02843829 0.37238141)
(0 0.027424215 0.31484351)
(0 0.062314753 0.55024073)
(0 0.044614427 0.55146761)
(0 0.033981954 0.5274881)
(0 0.027464003 0.5177224)
(0 0.022455131 0.51291978)
(0 0.018636785 0.50973137)
(0 0.015528159 0.50749256)
(0 0.01300627 0.50589986)
(0 0.010942293 0.50474682)
(0 0.0092248447 0.50389605)
(0 0.0077750721 0.50325908)
(0 0.006532988 0.502777)
(0 0.0054521667 0.50240961)
(0 0.0044965588 0.5021291)
(0 0.003637698 0.50191602)
(0 0.0028526393 0.50175669)
(0 0.0021224426 0.50164153)
(0 0.0014310129 0.50156397)
(0 0.00076418938 0.50151979)
(0 0.0001090066 0.50150668)
(0 -0.00054696672 0.50152398)
(0 -0.0012162306 0.50157268)
(0 -0.001911932 0.50165547)
(0 -0.0026485498 0.50177704)
(0 -0.0034426645 0.50194453)
(0 -0.0043139037 0.50216836)
(0 -0.0052861531 0.50246339)
(0 -0.0063891645 0.5028509)
(0 -0.0076607141 0.50336152)
(0 -0.0091490662 0.5040399)
(0 -0.010916659 0.50495257)
(0 -0.013050328 0.50620235)
(0 -0.015653872 0.50794413)
(0 -0.018815144 0.51040426)
(0 -0.022895652 0.51405478)
(0 -0.028176871 0.52114542)
(0 -0.035706908 0.53932642)
(0 -0.050476414 0.54155567)
(0 -0.024086181 0.3305595)
(0 0.019837853 0.27519816)
(0 0.057989852 0.53974675)
(0 0.047363707 0.56256471)
(0 0.036477535 0.5366045)
(0 0.029636068 0.52350705)
(0 0.024676107 0.51740321)
(0 0.02077427 0.51336291)
(0 0.01750986 0.51044443)
(0 0.014814377 0.5083241)
(0 0.012566889 0.5067617)
(0 0.010665872 0.50559267)
(0 0.0090393302 0.50470789)
(0 0.0076296462 0.50403242)
(0 0.0063909581 0.50351403)
(0 0.0052868054 0.50311603)
(0 0.0042877185 0.50281237)
(0 0.0033694679 0.5025845)
(0 0.0025117161 0.50241935)
(0 0.0016969383 0.50230791)
(0 0.0009095469 0.50224432)
(0 0.00013516391 0.50222539)
(0 -0.00064004455 0.5022502)
(0 -0.0014299843 0.50232012)
(0 -0.0022492103 0.50243887)
(0 -0.0031136191 0.5026129)
(0 -0.0040411983 0.502852)
(0 -0.005052924 0.5031703)
(0 -0.0061738627 0.50358781)
(0 -0.0074345647 0.5041327)
(0 -0.0088729594 0.50484492)
(0 -0.010536314 0.50578146)
(0 -0.012482922 0.50702462)
(0 -0.014792999 0.50869756)
(0 -0.01756833 0.51098191)
(0 -0.020862896 0.51412004)
(0 -0.024972971 0.51873025)
(0 -0.030507932 0.52822992)
(0 -0.038629353 0.54872416)
(0 -0.048508368 0.53398551)
(0 -0.019066875 0.29394125)
(0 0.013083118 0.24255548)
(0 0.051798616 0.52520098)
(0 0.047709246 0.57024848)
(0 0.037756927 0.54552485)
(0 0.030850333 0.52928852)
(0 0.026073512 0.52180153)
(0 0.022238034 0.51699776)
(0 0.018953828 0.51347328)
(0 0.016193708 0.51086474)
(0 0.013849866 0.50891223)
(0 0.011835805 0.50743243)
(0 0.01008894 0.50630031)
(0 0.0085566467 0.50542812)
(0 0.0071961759 0.50475373)
(0 0.0059727273 0.50423277)
(0 0.0048574823 0.50383329)
(0 0.0038262528 0.50353234)
(0 0.0028583666 0.50331354)
(0 0.0019357355 0.50316554)
(0 0.0010420758 0.50308093)
(0 0.0001622435 0.50305564)
(0 -0.00071838914 0.50308851)
(0 -0.0016145214 0.50318126)
(0 -0.002541459 0.50333863)
(0 -0.0035157677 0.50356874)
(0 -0.0045559529 0.50388389)
(0 -0.0056832538 0.50430167)
(0 -0.0069225853 0.50484671)
(0 -0.0083036536 0.50555328)
(0 -0.0098625306 0.50646915)
(0 -0.011643412 0.50766149)
(0 -0.013698547 0.50922514)
(0 -0.016097441 0.51129807)
(0 -0.018935394 0.51407965)
(0 -0.022243777 0.51783871)
(0 -0.026263399 0.52346797)
(0 -0.031847211 0.53537528)
(0 -0.039758265 0.55589707)
(0 -0.044893416 0.52282537)
(0 -0.014090547 0.26264899)
(0 0.0077700433 0.21554192)
(0 0.044825552 0.50801067)
(0 0.046255204 0.57438088)
(0 0.038035115 0.55375116)
(0 0.031287776 0.53496038)
(0 0.026768304 0.52603012)
(0 0.023116732 0.52053821)
(0 0.019920904 0.51648798)
(0 0.017182269 0.51344134)
(0 0.014813608 0.5111303)
(0 0.012746491 0.50935914)
(0 0.010928865 0.50799059)
(0 0.009314827 0.50692703)
(0 0.007866409 0.50609855)
(0 0.0065518665 0.50545455)
(0 0.0053442425 0.50495818)
(0 0.0042204266 0.50458265)
(0 0.0031602877 0.50430873)
(0 0.0021459231 0.50412295)
(0 0.0011610084 0.50401653)
(0 0.00019022852 0.50398457)
(0 -0.00078127169 0.50402569)
(0 -0.0017684161 0.50414196)
(0 -0.0027866595 0.50433901)
(0 -0.0038525732 0.50462649)
(0 -0.0049844212 0.50501891)
(0 -0.0062028223 0.50553688)
(0 -0.0075315155 0.50620901)
(0 -0.0089981848 0.50707462)
(0 -0.010635627 0.50818787)
(0 -0.012483423 0.509624)
(0 -0.014586707 0.51148807)
(0 -0.01700168 0.51392896)
(0 -0.019810005 0.5171554)
(0 -0.023027651 0.52148046)
(0 -0.026877122 0.52818293)
(0 -0.032349082 0.54222049)
(0 -0.039401642 0.5605028)
(0 -0.040327402 0.50908716)
(0 -0.0097078895 0.23586232)
(0 0.0040048681 0.19355749)
(0 0.03789918 0.48948813)
(0 0.043686648 0.57524023)
(0 0.037563676 0.56084493)
(0 0.0311541 0.54036099)
(0 0.026914145 0.5300112)
(0 0.02351416 0.52390158)
(0 0.020480444 0.51941233)
(0 0.017826974 0.51598751)
(0 0.015489786 0.5133586)
(0 0.013418553 0.51132376)
(0 0.011571921 0.50973713)
(0 0.0099117285 0.50849407)
(0 0.0084057401 0.50751891)
(0 0.0070261258 0.50675627)
(0 0.0057486138 0.50616545)
(0 0.0045519217 0.50571659)
(0 0.00341713 0.50538805)
(0 0.0023271241 0.50516464)
(0 0.0012660881 0.50503636)
(0 0.0002190474 0.50499764)
(0 -0.00082858554 0.50504691)
(0 -0.0018914631 0.5051865)
(0 -0.0029846735 0.50542283)
(0 -0.0041242391 0.50576685)
(0 -0.005327574 0.50623493)
(0 -0.0066139986 0.50685017)
(0 -0.0080053232 0.50764439)
(0 -0.0095264043 0.50866092)
(0 -0.011205841 0.50995884)
(0 -0.013077501 0.51161948)
(0 -0.015178902 0.5137555)
(0 -0.017552682 0.51652265)
(0 -0.020262994 0.52013198)
(0 -0.023317707 0.52496371)
(0 -0.026958767 0.5327404)
(0 -0.032200332 0.54839093)
(0 -0.037992552 0.56254493)
(0 -0.035413601 0.49379765)
(0 -0.0062002204 0.21325833)
(0 0.0015509971 0.17613492)
(0 0.031499184 0.47076318)
(0 0.040531764 0.57338605)
(0 0.036558484 0.56659828)
(0 0.030636996 0.54537823)
(0 0.026671418 0.53370432)
(0 0.023542938 0.52703195)
(0 0.020710354 0.52218804)
(0 0.018183001 0.51845082)
(0 0.01591741 0.51555059)
(0 0.013879152 0.51328519)
(0 0.01203679 0.511504)
(0 0.010360026 0.51009797)
(0 0.0088226001 0.50898762)
(0 0.0074009809 0.50811421)
(0 0.0060740523 0.50743421)
(0 0.0048228385 0.50691547)
(0 0.0036300982 0.50653451)
(0 0.0024799521 0.50627475)
(0 0.0013575202 0.50612524)
(0 0.0002485799 0.50607985)
(0 -0.0008607846 0.50613686)
(0 -0.0019845489 0.50629883)
(0 -0.0031370201 0.50657281)
(0 -0.0043332408 0.50697078)
(0 -0.0055893226 0.50751058)
(0 -0.0069228133 0.50821724)
(0 -0.0083531028 0.50912499)
(0 -0.0099017618 0.51028012)
(0 -0.0115928 0.51174519)
(0 -0.013453943 0.51360557)
(0 -0.015515259 0.51597871)
(0 -0.017807375 0.51902318)
(0 -0.020377239 0.52294997)
(0 -0.023232094 0.52823598)
(0 -0.026652303 0.53704083)
(0 -0.031562233 0.55365932)
(0 -0.035901951 0.56231019)
(0 -0.030551567 0.47789813)
(0 -0.0035905359 0.19461729)
(0 7.6600501e-05 0.16252678)
(0 0.025869844 0.45260247)
(0 0.037158786 0.56943388)
(0 0.03519048 0.57098864)
(0 0.029876639 0.54996261)
(0 0.026173151 0.5371135)
(0 0.023305435 0.52991192)
(0 0.020687137 0.52478367)
(0 0.018307736 0.52079755)
(0 0.016138849 0.51767335)
(0 0.014159181 0.5152125)
(0 0.012345873 0.51326282)
(0 0.010675845 0.5117131)
(0 0.0091284801 0.51048163)
(0 0.0076845223 0.50950763)
(0 0.0063261622 0.50874573)
(0 0.0050369608 0.50816219)
(0 0.0038016284 0.50773224)
(0 0.0026058163 0.50743829)
(0 0.0014358839 0.50726868)
(0 0.0002786652 0.50721687)
(0 -0.00087877853 0.50728101)
(0 -0.002049439 0.50746384)
(0 -0.0032465365 0.50777287)
(0 -0.0044838277 0.50822086)
(0 -0.005775824 0.50882673)
(0 -0.0071380231 0.50961686)
(0 -0.0085871545 0.51062714)
(0 -0.010141363 0.51190582)
(0 -0.011820135 0.51351761)
(0 -0.013645265 0.51555018)
(0 -0.015639973 0.51812328)
(0 -0.017824892 0.52139511)
(0 -0.020232408 0.52558009)
(0 -0.022876098 0.53128311)
(0 -0.026073837 0.54103168)
(0 -0.030565362 0.5579348)
(0 -0.033423125 0.56019381)
(0 -0.025993085 0.46207758)
(0 -0.0017645413 0.17947947)
(0 -0.00071812109 0.15190968)
(0 0.021107336 0.43543783)
(0 0.03381806 0.56393267)
(0 0.033602711 0.57408887)
(0 0.028973698 0.55409345)
(0 0.0255189 0.540263)
(0 0.022885282 0.53255201)
(0 0.020477747 0.52719123)
(0 0.018254186 0.52301166)
(0 0.016195189 0.51970731)
(0 0.014290025 0.51708488)
(0 0.012522931 0.51499295)
(0 0.010877006 0.51331964)
(0 0.0093366157 0.51198232)
(0 0.0078864709 0.51091918)
(0 0.0065119695 0.51008385)
(0 0.005199233 0.50944165)
(0 0.0039350307 0.50896699)
(0 0.0027067021 0.50864163)
(0 0.0015020315 0.50845341)
(0 0.00030911071 0.50839552)
(0 -0.00088381376 0.50846601)
(0 -0.0020885408 0.50866776)
(0 -0.0033170024 0.50900859)
(0 -0.0045814831 0.50950179)
(0 -0.0058947366 0.51016695)
(0 -0.0072701054 0.51103134)
(0 -0.0087216305 0.51213183)
(0 -0.01026413 0.51351772)
(0 -0.011912923 0.51525487)
(0 -0.013684464 0.51743192)
(0 -0.015595912 0.52016902)
(0 -0.017659736 0.52362209)
(0 -0.019897413 0.52801681)
(0 -0.02233511 0.53411123)
(0 -0.025314304 0.54468198)
(0 -0.029324877 0.561208)
(0 -0.030787618 0.55659102)
(0 -0.021891725 0.44677429)
(0 -0.00056390208 0.1672577)
(0 -0.0010702591 0.14358628)
(0 0.017202516 0.41948345)
(0 0.030665187 0.55734174)
(0 0.031913091 0.57602016)
(0 0.028002242 0.55776311)
(0 0.024782199 0.54317867)
(0 0.022348931 0.53497492)
(0 0.020137821 0.52941663)
(0 0.018068121 0.52508912)
(0 0.016123451 0.52164305)
(0 0.014301187 0.51888983)
(0 0.012591171 0.51668034)
(0 0.010981538 0.51490302)
(0 0.0094608451 0.51347515)
(0 0.00801731 0.51233471)
(0 0.0066392713 0.51143495)
(0 0.0053152866 0.51074076)
(0 0.0040341616 0.51022615)
(0 0.0027849663 0.50987249)
(0 0.0015569937 0.50966738)
(0 0.00033970145 0.50960381)
(0 -0.00087736031 0.50967979)
(0 -0.0021046784 0.50989826)
(0 -0.0033527898 0.51026724)
(0 -0.0046324242 0.5108003)
(0 -0.0059545373 0.51151743)
(0 -0.0073303444 0.51244631)
(0 -0.008771322 0.51362426)
(0 -0.010289217 0.51510098)
(0 -0.011895676 0.51694264)
(0 -0.013602579 0.51923798)
(0 -0.01542193 0.52210618)
(0 -0.017359722 0.52570018)
(0 -0.019430559 0.53026712)
(0 -0.021678074 0.53673203)
(0 -0.024446925 0.54797161)
(0 -0.027942471 0.5635228)
(0 -0.028165994 0.5518636)
(0 -0.018321648 0.43225297)
(0 0.00016980839 0.15740595)
(0 -0.0011533742 0.1370052)
(0 0.014077895 0.40481969)
(0 0.027780215 0.55003542)
(0 0.030209664 0.57692997)
(0 0.027014678 0.56097805)
(0 0.024016035 0.54588448)
(0 0.021748254 0.53720763)
(0 0.019712547 0.53147298)
(0 0.017787875 0.52703318)
(0 0.015955739 0.523478)
(0 0.014219138 0.52062096)
(0 0.012572088 0.51831615)
(0 0.011006646 0.51645296)
(0 0.0095147547 0.51494914)
(0 0.008087599 0.51374296)
(0 0.0067161021 0.51278775)
(0 0.0053910406 0.51204836)
(0 0.0041031416 0.51149871)
(0 0.0028431599 0.51112006)
(0 0.0016018984 0.51089986)
(0 0.00037020946 0.51083104)
(0 -0.00086101087 0.51091159)
(0 -0.0021008951 0.51114448)
(0 -0.0033585582 0.51153779)
(0 -0.0046431766 0.5121052)
(0 -0.0059639571 0.51286683)
(0 -0.0073301091 0.51385045)
(0 -0.0087507691 0.5150934)
(0 -0.010234964 0.51664528)
(0 -0.011791219 0.51857203)
(0 -0.013427675 0.52096183)
(0 -0.015152172 0.523932)
(0 -0.016965878 0.52763307)
(0 -0.018880422 0.53234471)
(0 -0.020959546 0.53915966)
(0 -0.023528897 0.5508941)
(0 -0.026500612 0.56496182)
(0 -0.025669502 0.54632938)
(0 -0.015294492 0.41866164)
(0 0.00057471618 0.14946147)
(0 -0.0010857964 0.13172669)
(0 0.011622825 0.39143789)
(0 0.025190981 0.54230744)
(0 0.028551238 0.57697262)
(0 0.026044398 0.56375795)
(0 0.023255762 0.54840328)
(0 0.02112177 0.53927859)
(0 0.019237367 0.53337768)
(0 0.01744467 0.52885179)
(0 0.015719105 0.52521424)
(0 0.014066871 0.52227632)
(0 0.012484883 0.51989558)
(0 0.010968108 0.51796276)
(0 0.0095111063 0.51639639)
(0 0.0081074745 0.51513529)
(0 0.006750325 0.51413321)
(0 0.0054323839 0.51335523)
(0 0.0041461253 0.51277539)
(0 0.0028838806 0.512375)
(0 0.0016379016 0.51214153)
(0 0.00040040283 0.51206791)
(0 -0.00083639385 0.51215211)
(0 -0.0020802863 0.51239709)
(0 -0.0033390031 0.51281093)
(0 -0.0046202331 0.51340728)
(0 -0.0059315472 0.51420615)
(0 -0.0072803328 0.51523518)
(0 -0.0086736685 0.51653142)
(0 -0.010118262 0.51814405)
(0 -0.011620093 0.5201384)
(0 -0.013184377 0.52260168)
(0 -0.014815781 0.52564888)
(0 -0.016512237 0.5294299)
(0 -0.018285713 0.53426771)
(0 -0.020220154 0.54141071)
(0 -0.022601767 0.5534571)
(0 -0.02506036 0.56562956)
(0 -0.023360823 0.54025425)
(0 -0.012780633 0.40606216)
(0 0.00075992829 0.14302999)
(0 -0.00094396571 0.12740515)
(0 0.0097185324 0.379272)
(0 0.02289403 0.53437824)
(0 0.026973005 0.57629317)
(0 0.025110139 0.56613005)
(0 0.02252261 0.55075577)
(0 0.020496139 0.54121549)
(0 0.018738728 0.53515035)
(0 0.017062992 0.53055598)
(0 0.015435609 0.5268571)
(0 0.01386375 0.52385719)
(0 0.012346178 0.52141695)
(0 0.010879929 0.5194286)
(0 0.0094614793 0.51781156)
(0 0.0080863148 0.51650537)
(0 0.0067493386 0.51546433)
(0 0.005444937 0.51465393)
(0 0.0041671228 0.51404848)
(0 0.0029096569 0.51362947)
(0 0.0016661345 0.51338448)
(0 0.00043005425 0.51330648)
(0 -0.00080510247 0.51339345)
(0 -0.0020458655 0.5136483)
(0 -0.0032986589 0.51407904)
(0 -0.0045697947 0.51469917)
(0 -0.0058653637 0.51552849)
(0 -0.0071911502 0.51659431)
(0 -0.0085524834 0.51793322)
(0 -0.0099541671 0.51959376)
(0 -0.011400185 0.52164046)
(0 -0.012893567 0.52415937)
(0 -0.014436704 0.52726303)
(0 -0.016025758 0.53110357)
(0 -0.017675551 0.53605656)
(0 -0.019488071 0.54350274)
(0 -0.021693577 0.55567804)
(0 -0.023663728 0.56563609)
(0 -0.021268019 0.53384976)
(0 -0.010727559 0.39445408)
(0 0.00080576054 0.13777815)
(0 -0.00077537205 0.12377951)
(0 0.0082523636 0.36822512)
(0 0.020869089 0.5264073)
(0 0.025492857 0.5750195)
(0 0.024220694 0.56812394)
(0 0.021827728 0.55295893)
(0 0.019888512 0.54304299)
(0 0.018235399 0.53681075)
(0 0.016661295 0.53215821)
(0 0.015122622 0.52841386)
(0 0.013625572 0.52536705)
(0 0.012169947 0.5228808)
(0 0.010754178 0.52084884)
(0 0.0093760719 0.5191914)
(0 0.0080325335 0.51784877)
(0 0.0067198857 0.51677585)
(0 0.0054338889 0.51593864)
(0 0.0041698747 0.51531181)
(0 0.0029228644 0.51487707)
(0 0.0016876644 0.51462219)
(0 0.00045894863 0.51454021)
(0 -0.00076864062 0.5146291)
(0 -0.0020004645 0.51489175)
(0 -0.0032417558 0.51533603)
(0 -0.0044975885 0.51597522)
(0 -0.0057727524 0.51682882)
(0 -0.0070716623 0.51792371)
(0 -0.0083982053 0.51929591)
(0 -0.0097556765 0.52099326)
(0 -0.011146561 0.52307943)
(0 -0.012572335 0.52563922)
(0 -0.014033871 0.52878305)
(0 -0.015526863 0.53266877)
(0 -0.017070701 0.53773152)
(0 -0.01878153 0.54545221)
(0 -0.02082188 0.55757935)
(0 -0.022337275 0.56508635)
(0 -0.019396194 0.52727791)
(0 -0.0090725044 0.38379692)
(0 0.00076871849 0.13343357)
(0 -0.00060800178 0.12065954)
(0 0.0071251274 0.35818839)
(0 0.01908814 0.51850681)
(0 0.024116662 0.5732606)
(0 0.023378521 0.56976899)
(0 0.021175569 0.55502567)
(0 0.019308977 0.54478155)
(0 0.017740081 0.5383772)
(0 0.016253009 0.5336711)
(0 0.0147934 0.52989263)
(0 0.013364859 0.52681063)
(0 0.01196762 0.52428921)
(0 0.010600988 0.52222344)
(0 0.0092636321 0.52053426)
(0 0.0079534799 0.51916261)
(0 0.0066679463 0.51806402)
(0 0.0054038985 0.51720496)
(0 0.0041577716 0.5165605)
(0 0.0029256714 0.51611266)
(0 0.0017034699 0.51584936)
(0 0.0004868896 0.51576375)
(0 -0.00072838488 0.51585383)
(0 -0.0019466653 0.5161224)
(0 -0.0031721244 0.51657719)
(0 -0.0044087514 0.51723122)
(0 -0.0056602217 0.51810365)
(0 -0.006929811 0.51922088)
(0 -0.0082202525 0.52061834)
(0 -0.0095336888 0.52234316)
(0 -0.010871533 0.52445819)
(0 -0.012234221 0.52704705)
(0 -0.01362173 0.53021865)
(0 -0.015030398 0.53414038)
(0 -0.016485169 0.53931106)
(0 -0.018111308 0.54727347)
(0 -0.019996386 0.55918547)
(0 -0.021095463 0.56407514)
(0 -0.017736101 0.52065943)
(0 -0.0077507551 0.37402784)
(0 0.00068721416 0.12978095)
(0 -0.00045677593 0.11790999)
(0 0.0062542401 0.34905234)
(0 0.017521045 0.51075328)
(0 0.022842528 0.57110784)
(0 0.022582255 0.5710932)
(0 0.020566302 0.55696539)
(0 0.018762571 0.54644727)
(0 0.017260887 0.53986585)
(0 0.015847569 0.53510651)
(0 0.014457776 0.53130157)
(0 0.013091292 0.52819323)
(0 0.011748326 0.52564515)
(0 0.010428669 0.52355347)
(0 0.0091314909 0.52183968)
(0 0.0078554255 0.52044527)
(0 0.0065986993 0.51932628)
(0 0.0053590493 0.51844968)
(0 0.0041338131 0.51779089)
(0 0.0029200098 0.51733223)
(0 0.0017144279 0.51706182)
(0 0.00051370471 0.51697291)
(0 -0.00068556059 0.51706351)
(0 -0.0018867595 0.51733636)
(0 -0.003093143 0.51779899)
(0 -0.004307772 0.5184642)
(0 -0.0055333899 0.51935076)
(0 -0.0067723491 0.5204846)
(0 -0.0080264875 0.5219006)
(0 -0.0092971009 0.52364522)
(0 -0.010584884 0.52578062)
(0 -0.011889635 0.52838936)
(0 -0.013210931 0.53157969)
(0 -0.014546655 0.53553244)
(0 -0.015927662 0.54081121)
(0 -0.017482722 0.54897863)
(0 -0.0192211 0.56052112)
(0 -0.019943739 0.56268524)
(0 -0.016270465 0.51408188)
(0 -0.0067010999 0.36507337)
(0 0.00058642631 0.12665378)
(0 -0.00032816018 0.11543664)
(0 0.0055739635 0.34071314)
(0 0.016138858 0.50319685)
(0 0.021664168 0.56863697)
(0 0.021828506 0.57212266)
(0 0.019997519 0.55878472)
(0 0.018250854 0.54805235)
(0 0.016802545 0.54129043)
(0 0.015451321 0.53647522)
(0 0.01412283 0.53264842)
(0 0.012812173 0.52952026)
(0 0.011519197 0.52695204)
(0 0.010243891 0.52484068)
(0 0.0089856653 0.52310805)
(0 0.007743611 0.52169602)
(0 0.0065165364 0.52056107)
(0 0.0053028452 0.51967055)
(0 0.004100597 0.51900026)
(0 0.0029075646 0.51853278)
(0 0.0017213092 0.5182564)
(0 0.00053924928 0.51816447)
(0 -0.00064123013 0.51825503)
(0 -0.0018227305 0.51853072)
(0 -0.0030077189 0.51899893)
(0 -0.0041984786 0.51967219)
(0 -0.0053969918 0.52056892)
(0 -0.0066048814 0.52171462)
(0 -0.0078233132 0.52314365)
(0 -0.0090529907 0.52490195)
(0 -0.010294168 0.52705109)
(0 -0.01154632 0.52967277)
(0 -0.012808992 0.53287566)
(0 -0.014082301 0.53685767)
(0 -0.015402855 0.54224533)
(0 -0.016897224 0.55057761)
(0 -0.01849611 0.56161007)
(0 -0.018881379 0.56098719)
(0 -0.014978444 0.5076068)
(0 -0.0058689386 0.35685695)
(0 0.00048209987 0.12392538)
(0 -0.00022348662 0.11317505)
(0 0.0050338137 0.33307584)
(0 0.014915477 0.49586845)
(0 0.020573327 0.56591048)
(0 0.021113118 0.5728813)
(0 0.019465473 0.56048811)
(0 0.017773133 0.54960558)
(0 0.016367376 0.54266231)
(0 0.015068277 0.53778672)
(0 0.013793471 0.5339403)
(0 0.012532868 0.53079691)
(0 0.011285682 0.52821345)
(0 0.010051903 0.52608723)
(0 0.0088309981 0.52434034)
(0 0.0076223321 0.52291485)
(0 0.006425111 0.52176757)
(0 0.0052382354 0.52086618)
(0 0.0040603307 0.52018677)
(0 0.0028897791 0.51971213)
(0 0.0017247807 0.51943076)
(0 0.00056340852 0.51933608)
(0 -0.00059629093 0.51942612)
(0 -0.0017562544 0.51970346)
(0 -0.0029182962 0.52017534)
(0 -0.0040840615 0.52085404)
(0 -0.0052549251 0.52175768)
(0 -0.0064319497 0.52291138)
(0 -0.0076158154 0.52434907)
(0 -0.0088068366 0.52611626)
(0 -0.010005039 0.52827409)
(0 -0.011209804 0.53090371)
(0 -0.012420921 0.53411534)
(0 -0.013641212 0.53812719)
(0 -0.014912486 0.54362413)
(0 -0.0163537 0.5520783)
(0 -0.017819062 0.56247438)
(0 -0.017903849 0.55904007)
(0 -0.013838527 0.50127579)
(0 -0.0052076013 0.34930353)
(0 0.00038344189 0.12150096)
(0 -0.00014122658 0.11108188)
(0 0.0045961334 0.32605587)
(0 0.013828214 0.48878544)
(0 0.019561321 0.56297993)
(0 0.020431949 0.57339092)
(0 0.018965931 0.56207846)
(0 0.017327401 0.5511129)
(0 0.015956063 0.54399064)
(0 0.014700749 0.53904916)
(0 0.013472952 0.53518355)
(0 0.012257195 0.53202801)
(0 0.011051846 0.5294329)
(0 0.0098567463 0.52729547)
(0 0.0086713122 0.52553786)
(0 0.0074950449 0.52410223)
(0 0.0063274071 0.52294557)
(0 0.0051676582 0.52203579)
(0 0.0040148571 0.52134921)
(0 0.0028678692 0.52086884)
(0 0.0017254126 0.52058329)
(0 0.0005860985 0.52048607)
(0 -0.00055148074 0.52057521)
(0 -0.0016887138 0.52085323)
(0 -0.0028268814 0.52132722)
(0 -0.0039671173 0.52200926)
(0 -0.0051103229 0.52291719)
(0 -0.0062571437 0.52407582)
(0 -0.0074079254 0.52551875)
(0 -0.0085627507 0.52729121)
(0 -0.0097215691 0.52945404)
(0 -0.010883833 0.53208812)
(0 -0.012049781 0.53530654)
(0 -0.013225204 0.53935039)
(0 -0.014456274 0.54495589)
(0 -0.015849481 0.55348678)
(0 -0.017186261 0.56313406)
(0 -0.017004554 0.55689286)
(0 -0.012830258 0.49511565)
(0 -0.0046785417 0.34234247)
(0 0.00029528288 0.11931076)
(0 -7.847042e-05 0.10912808)
(0 0.0042335052 0.31957917)
(0 0.01285778 0.48195576)
(0 0.018619919 0.55988808)
(0 0.019781276 0.57367147)
(0 0.018494703 0.56355761)
(0 0.016910987 0.552578)
(0 0.015568242 0.54528256)
(0 0.014349846 0.54026945)
(0 0.013163292 0.53638374)
(0 0.011987779 0.53321795)
(0 0.010820638 0.53061373)
(0 0.0096614667 0.52846779)
(0 0.0085095661 0.52670218)
(0 0.0073644796 0.52525898)
(0 0.0062258196 0.52409526)
(0 0.0050930958 0.52317908)
(0 0.0039656906 0.52248694)
(0 0.0028428446 0.52200199)
(0 0.0017236878 0.52171295)
(0 0.00060726545 0.5216134)
(0 -0.00050738856 0.52170135)
(0 -0.0016212197 0.52197927)
(0 -0.0027350821 0.52245412)
(0 -0.0038497083 0.52313782)
(0 -0.0049656406 0.52404799)
(0 -0.0060832245 0.52520918)
(0 -0.0072025913 0.52665478)
(0 -0.0083237089 0.52842983)
(0 -0.0094465553 0.53059506)
(0 -0.010570767 0.53323139)
(0 -0.011697176 0.53645608)
(0 -0.012834641 0.54053501)
(0 -0.014032647 0.54624676)
(0 -0.015381076 0.55480766)
(0 -0.016593438 0.56360707)
(0 -0.016176042 0.55458594)
(0 -0.01193514 0.48914238)
(0 -0.0042508229 0.33590917)
(0 0.00021960682 0.11730419)
(0 -3.1851391e-05 0.10729408)
(0 0.0039263593 0.31358165)
(0 0.011987975 0.47538097)
(0 0.017741762 0.55667057)
(0 0.019157957 0.57374133)
(0 0.018047941 0.56492686)
(0 0.016520994 0.55400283)
(0 0.015202918 0.54654355)
(0 0.014015861 0.54145334)
(0 0.012865619 0.53754567)
(0 0.011726331 0.5343706)
(0 0.010594131 0.53175902)
(0 0.0094683022 0.52960652)
(0 0.0083480014 0.52783492)
(0 0.0072327512 0.52638613)
(0 0.0061222365 0.52521717)
(0 0.0050161325 0.52429618)
(0 0.0039140561 0.52359976)
(0 0.0028155326 0.52311117)
(0 0.0017200126 0.52281921)
(0 0.00062688412 0.52271749)
(0 -0.00046446853 0.52280403)
(0 -0.0015546403 0.52308125)
(0 -0.0026441515 0.523556)
(0 -0.0037334277 0.52424007)
(0 -0.0048227472 0.5251509)
(0 -0.0059122499 0.52631288)
(0 -0.0070019436 0.52775926)
(0 -0.0080917662 0.52953504)
(0 -0.0091817901 0.53170093)
(0 -0.01027191 0.53433827)
(0 -0.011363659 0.53756978)
(0 -0.012468908 0.54168728)
(0 -0.013639276 0.54750103)
(0 -0.014944678 0.55604435)
(0 -0.016036264 0.56390946)
(0 -0.015410812 0.55215259)
(0 -0.01113697 0.48336426)
(0 -0.0039002073 0.32994563)
(0 0.00015661893 0.11544495)
(0 1.9129999e-06 0.10556626)
(0 0.003660933 0.30800818)
(0 0.011205274 0.46905836)
(0 0.016920496 0.55335736)
(0 0.018559453 0.57361753)
(0 0.017622269 0.5661873)
(0 0.016154559 0.55538813)
(0 0.01485875 0.54777768)
(0 0.013698556 0.54260556)
(0 0.012580433 0.53867345)
(0 0.011473889 0.53548938)
(0 0.010373721 0.53287157)
(0 0.0092788494 0.53071387)
(0 0.0081882764 0.52893775)
(0 0.0071014653 0.52748484)
(0 0.0060181188 0.52631203)
(0 0.0049380134 0.52538746)
(0 0.0038609296 0.52468778)
(0 0.0027866028 0.5241963)
(0 0.0017147271 0.52390187)
(0 0.00064495568 0.52379815)
(0 -0.00042305576 0.52388314)
(0 -0.0014896309 0.5241592)
(0 -0.0025550358 0.52463313)
(0 -0.0036194674 0.52531659)
(0 -0.0046830175 0.52622693)
(0 -0.0057456943 0.52738842)
(0 -0.0068074496 0.52883427)
(0 -0.0078682492 0.53060952)
(0 -0.0089282979 0.53277501)
(0 -0.009987794 0.53541288)
(0 -0.011049049 0.53865249)
(0 -0.012126773 0.54281206)
(0 -0.013273467 0.54872157)
(0 -0.014536507 0.55719944)
(0 -0.01551066 0.56405562)
(0 -0.014701803 0.54962029)
(0 -0.010421867 0.47778414)
(0 -0.0036080861 0.32440051)
(0 0.00010548897 0.11370719)
(0 2.5742561e-05 0.10393473)
(0 0.0034276312 0.30281153)
(0 0.010498381 0.46298244)
(0 0.016150734 0.54997373)
(0 0.017983762 0.573316)
(0 0.017214832 0.56734008)
(0 0.015809007 0.55673377)
(0 0.014534243 0.54898789)
(0 0.013397359 0.54373003)
(0 0.012307803 0.53977059)
(0 0.011231 0.53657729)
(0 0.010160293 0.53395389)
(0 0.0090942034 0.5317919)
(0 0.0080315827 0.5300123)
(0 0.0069718116 0.52855634)
(0 0.0059145737 0.52738073)
(0 0.0048596994 0.52645352)
(0 0.0038070768 0.52575135)
(0 0.0027565911 0.52525757)
(0 0.0017081162 0.52496107)
(0 0.00066150459 0.52485548)
(0 -0.00038338273 0.52493882)
(0 -0.0014266655 0.52521341)
(0 -0.0024684211 0.525686)
(0 -0.003508683 0.52636817)
(0 -0.0045474177 0.52727719)
(0 -0.0055845581 0.52843732)
(0 -0.0066200488 0.52988177)
(0 -0.0076539209 0.53165571)
(0 -0.008686529 0.53382027)
(0 -0.0097184011 0.53645873)
(0 -0.010752679 0.53970826)
(0 -0.011806655 0.54391306)
(0 -0.012932426 0.5499101)
(0 -0.014153008 0.5582749)
(0 -0.015012969 0.56405851)
(0 -0.014042646 0.54701186)
(0 -0.009778098 0.47240118)
(0 -0.0033604124 0.31922877)
(0 6.4857811e-05 0.11207247)
(0 4.2086891e-05 0.10239175)
(0 0.0032197712 0.29795123)
(0 0.0098578322 0.45714597)
(0 0.015427933 0.54654116)
(0 0.017429329 0.57285164)
(0 0.016823267 0.56838655)
(0 0.015481916 0.55803905)
(0 0.014227867 0.55017621)
(0 0.013111503 0.5448299)
(0 0.012047508 0.54084009)
(0 0.010997856 0.53763691)