/*--------------------------------*- C++ -*----------------------------------*\
  =========                 |
  \\      /  F ield         | OpenFOAM: The Open Source CFD Toolbox
   \\    /   O peration     | Website:  https://openfoam.org
    \\  /    A nd           | Version:  10
     \\/     M anipulation  |
\*---------------------------------------------------------------------------*/
FoamFile
{
    format      ascii;
    class       surfaceScalarField;
    location    "0.03";
    object      phi;
}
// * * * * * * * * * * * * * * * * * * * * * * * * * * * * * * * * * * * * * //

dimensions      [1 0 -1 0 0 0 0];

internalField   nonuniform List<scalar> 
7860
(
3.9624153e-08
5.2908517e-07
1.2007346e-08
5.9632338e-07
7.2548979e-09
5.7346027e-07
5.3161397e-09
5.7064652e-07
3.939109e-09
5.7008475e-07
3.0379706e-09
5.6960884e-07
2.4095529e-09
5.693361e-07
1.9437241e-09
5.691735e-07
1.5876949e-09
5.6906369e-07
1.3085497e-09
5.689868e-07
1.0843261e-09
5.6893187e-07
9.002145e-10
5.6889175e-07
7.458866e-10
5.6886196e-07
6.1390856e-10
5.6883961e-07
4.9879029e-10
5.6882274e-07
3.9637071e-10
5.6881004e-07
3.0340582e-10
5.6880058e-07
2.1728449e-10
5.6879374e-07
1.3582443e-10
5.6878908e-07
5.711858e-11
5.6878632e-07
-2.0588692e-11
5.6878532e-07
-9.901136e-11
5.6878604e-07
-1.7992415e-10
5.6878853e-07
-2.6527278e-10
5.6879297e-07
-3.5730758e-10
5.6879965e-07
-4.5875034e-10
5.6880906e-07
-5.7302146e-10
5.6882189e-07
-7.045634e-10
5.6883917e-07
-8.5931829e-10
5.6886238e-07
-1.04546e-09
5.6889378e-07
-1.2746034e-09
5.6893678e-07
-1.5638521e-09
5.689969e-07
-1.9387981e-09
5.690826e-07
-2.4401986e-09
5.6920907e-07
-3.1515035e-09
5.6941899e-07
-4.2333158e-09
5.6978951e-07
-5.790375e-09
5.7026478e-07
-9.2892982e-09
5.7220668e-07
-2.9272208e-08
5.8869071e-07
5.3943576e-07
5.9005749e-08
4.7008982e-07
3.5953522e-08
6.1937166e-07
2.2014486e-08
5.8739802e-07
1.5658126e-08
5.7700292e-07
1.1727104e-08
5.7401579e-07
9.0856066e-09
5.7225034e-07
7.2025859e-09
5.7121913e-07
5.8078827e-09
5.7056821e-07
4.7440895e-09
5.7012749e-07
3.9101256e-09
5.6982076e-07
3.2402747e-09
5.6960172e-07
2.6902907e-09
5.6944174e-07
2.2292396e-09
5.6932302e-07
1.8348818e-09
5.6923397e-07
1.4908132e-09
5.6916682e-07
1.1846114e-09
5.6911625e-07
9.0660023e-10
5.690786e-07
6.4899879e-10
5.6905135e-07
4.0530966e-10
5.6903277e-07
1.6985819e-10
5.6902178e-07
-6.257742e-11
5.6901776e-07
-2.9708814e-10
5.6902055e-07
-5.3894628e-10
5.6903039e-07
-7.9393957e-10
5.6904796e-07
-1.0687631e-09
5.6907448e-07
-1.3715211e-09
5.6911183e-07
-1.7124085e-09
5.6916279e-07
-2.1046807e-09
5.6923145e-07
-2.5660936e-09
5.693238e-07
-3.1211075e-09
5.694488e-07
-3.8044217e-09
5.696201e-07
-4.6671765e-09
5.6985966e-07
-5.7876786e-09
5.7020311e-07
-7.287682e-09
5.7070908e-07
-9.3744903e-09
5.715058e-07
-1.2463752e-08
5.7287878e-07
-1.7382416e-08
5.7518345e-07
-2.7357344e-08
5.8218161e-07
-4.5019867e-08
6.0635323e-07
4.9441589e-07
5.8942962e-08
4.1117458e-07
4.9101364e-08
6.2921091e-07
3.2200556e-08
6.0429385e-07
2.3737984e-08
5.8546518e-07
1.8314726e-08
5.7943913e-07
1.4407879e-08
5.761572e-07
1.1525176e-08
5.7410183e-07
9.3531739e-09
5.7274021e-07
7.6758525e-09
5.7180481e-07
6.3488865e-09
5.7114774e-07
5.2758557e-09
5.7067476e-07
4.3900863e-09
5.7032751e-07
3.6441932e-09
5.7006891e-07
3.0037477e-09
5.6987442e-07
2.4431416e-09
5.6972743e-07
1.9428525e-09
5.6961654e-07
1.4875939e-09
5.6953386e-07
1.0650209e-09
5.6947392e-07
6.6479114e-10
5.6943301e-07
2.7785099e-10
5.6940872e-07
-1.041403e-10
5.6939976e-07
-4.8931405e-10
5.6940573e-07
-8.8608173e-10
5.6942717e-07
-1.3036566e-09
5.6946554e-07
-1.7526617e-09
5.6952349e-07
-2.2459034e-09
5.6960507e-07
-2.7994099e-09
5.697163e-07
-3.4338893e-09
5.6986593e-07
-4.1768575e-09
5.7006678e-07
-5.0658322e-09
5.7033778e-07
-6.1531869e-09
5.7070746e-07
-7.5140555e-09
5.7122053e-07
-9.2600858e-09
5.7194915e-07
-1.155767e-08
5.7300667e-07
-1.464696e-08
5.7459509e-07
-1.890438e-08
5.771362e-07
-2.5297081e-08
5.8157616e-07
-3.7353116e-08
5.9423765e-07
-4.6838429e-08
6.1583855e-07
4.4757747e-07
5.3432662e-08
3.5779593e-07
5.5240846e-08
6.2741174e-07
3.8571617e-08
6.2095292e-07
2.9117229e-08
5.9491775e-07
2.3119793e-08
5.8543673e-07
1.8571663e-08
5.8070537e-07
1.5076325e-08
5.7759718e-07
1.2368012e-08
5.7544853e-07
1.0231732e-08
5.739411e-07
8.5150382e-09
5.7286444e-07
7.1101544e-09
5.7207965e-07
5.9391851e-09
5.7149849e-07
4.9452006e-09
5.710629e-07
4.0859768e-09
5.7073365e-07
3.3295873e-09
5.7048382e-07
2.651376e-09
5.7029476e-07
2.0318346e-09
5.7015341e-07
1.4550751e-09
5.7005069e-07
9.0769751e-10
5.6998039e-07
3.7791625e-10
5.6993851e-07
-1.4515482e-10
5.6992284e-07
-6.7213219e-10
5.6993272e-07
-1.2139739e-09
5.6996901e-07
-1.7826276e-09
5.700342e-07
-2.3917815e-09
5.7013265e-07
-3.0578012e-09
5.702711e-07
-3.8009638e-09
5.7045947e-07
-4.6471415e-09
5.7071211e-07
-5.6301716e-09
5.7104981e-07
-6.7952727e-09
5.7150288e-07
-8.2038701e-09
5.7211607e-07
-9.9403135e-09
5.7295698e-07
-1.2122838e-08
5.7413168e-07
-1.4917759e-08
5.7580159e-07
-1.8533295e-08
5.7821064e-07
-2.3249165e-08
5.8185208e-07
-3.0257425e-08
5.8858442e-07
-4.2508402e-08
6.0648863e-07
-4.461034e-08
6.1794049e-07
4.0296713e-07
4.6181331e-08
3.1170693e-07
5.6924606e-08
6.1670522e-07
4.2575519e-08
6.3528805e-07
3.2506838e-08
6.0498109e-07
2.6283984e-08
5.9165958e-07
2.1525832e-08
5.8546365e-07
1.7756845e-08
5.8136618e-07
1.47531e-08
5.7845228e-07
1.2327684e-08
5.7636652e-07
1.0341642e-08
5.7485048e-07
8.6909844e-09
5.7373031e-07
7.297237e-09
5.7289224e-07
6.1011915e-09
5.7225896e-07
5.0577304e-09
5.7177712e-07
4.1319739e-09
5.7140959e-07
3.2964975e-09
5.7113024e-07
2.5292771e-09
5.7092064e-07
1.8121537e-09
5.7076782e-07
1.1296618e-09
5.7066289e-07
4.6810339e-10
5.7060008e-07
-1.8522439e-10
5.7057617e-07
-8.4271466e-10
5.7059021e-07
-1.5171187e-09
5.7064342e-07
-2.2222483e-09
5.7073934e-07
-2.9737775e-09
5.7088419e-07
-3.7902214e-09
5.7108755e-07
-4.6941888e-09
5.7136344e-07
-5.7140302e-09
5.7173196e-07
-6.8860431e-09
5.7222183e-07
-8.2574928e-09
5.7287434e-07
-9.8906685e-09
5.7374925e-07
-1.1867696e-08
5.7493401e-07
-1.429752e-08
5.765615e-07
-1.7327793e-08
5.7883187e-07
-2.1141116e-08
5.8202396e-07
-2.6037016e-08
5.8674798e-07
-3.3446546e-08
5.9599396e-07
-4.4655944e-08
6.1769803e-07
-4.0593882e-08
6.1387844e-07
3.6237325e-07
3.8219363e-08
2.736304e-07
5.4804479e-08
6.0020524e-07
4.4370968e-08
6.4570895e-07
3.4367134e-08
6.1497344e-07
2.8138896e-08
5.9788693e-07
2.3435266e-08
5.9016752e-07
1.9628987e-08
5.8517249e-07
1.6519951e-08
5.8156132e-07
1.3954334e-08
5.7893214e-07
1.1812573e-08
5.7699225e-07
1.0001697e-08
5.7554119e-07
8.4495718e-09
5.7444437e-07
7.1002285e-09
5.736083e-07
5.9098112e-09
5.7296754e-07
4.8435808e-09
5.7247582e-07
3.8736448e-09
5.7210018e-07
2.9771917e-09
5.718171e-07
2.1351205e-09
5.716099e-07
1.3309596e-09
5.7146705e-07
5.4998714e-10
5.7138105e-07
-2.2151808e-10
5.7134768e-07
-9.9694878e-10
5.7136565e-07
-1.7900281e-09
5.7143651e-07
-2.6154951e-09
5.7156481e-07
-3.4898716e-09
5.7175857e-07
-4.432376e-09
5.7203006e-07
-5.4660554e-09
5.7239713e-07
-6.6192235e-09
5.7288513e-07
-7.9272983e-09
5.7352991e-07
-9.4352044e-09
5.7438225e-07
-1.1200642e-08
5.7551469e-07
-1.3297906e-08
5.7703128e-07
-1.582245e-08
5.7908605e-07
-1.8900143e-08
5.8190957e-07
-2.2696513e-08
5.8582034e-07
-2.7581035e-08
5.9163251e-07
-3.4972823e-08
6.0338575e-07
-4.3945768e-08
6.2667098e-07
-3.5256427e-08
6.051891e-07
3.2711683e-07
3.0396205e-08
2.4346483e-07
4.9918591e-08
5.8084184e-07
4.3937701e-08
6.5168586e-07
3.4825558e-08
6.2406494e-07
2.8879546e-08
6.0382984e-07
2.4447046e-08
5.9460039e-07
2.0788128e-08
5.8883152e-07
1.7724696e-08
5.8462476e-07
1.514141e-08
5.8151543e-07
1.2941581e-08
5.7919208e-07
1.1047273e-08
5.7743551e-07
9.3967728e-09
5.7609488e-07
7.9409375e-09
5.7506415e-07
6.6401986e-09
5.7426828e-07
5.4624203e-09
5.7365361e-07
4.3811959e-09
5.7318141e-07
3.3744703e-09
5.7282383e-07
2.4234354e-09
5.7256094e-07
1.5116283e-09
5.7237887e-07
6.2417195e-10
5.7226852e-07
-2.5288195e-10
5.7222474e-07
-1.1331552e-09
5.7224593e-07
-2.0305344e-09
5.7233389e-07
-2.9597783e-09
5.7249406e-07
-3.9371821e-09
5.7273598e-07
-4.9813494e-09
5.7307423e-07
-6.1141141e-09
5.735299e-07
-7.3616801e-09
5.7413271e-07
-8.7560343e-09
5.7492427e-07
-1.0336713e-08
5.7596293e-07
-1.2153298e-08
5.7733128e-07
-1.4268595e-08
5.7914658e-07
-1.6761324e-08
5.8157879e-07
-1.9729924e-08
5.8487817e-07
-2.331479e-08
5.8940521e-07
-2.7936932e-08
5.9625466e-07
-3.4741507e-08
6.1019033e-07
-4.0845079e-08
6.3277456e-07
-2.926168e-08
5.9360571e-07
2.9785516e-07
2.3327364e-08
2.2056743e-07
4.3547953e-08
5.6089867e-07
4.1674255e-08
6.5357409e-07
3.4064192e-08
6.3164257e-07
2.8667104e-08
6.092199e-07
2.4676211e-08
5.9859167e-07
2.1315999e-08
5.9219197e-07
1.8423249e-08
5.8751753e-07
1.5923173e-08
5.8401551e-07
1.3746471e-08
5.8136879e-07
1.1834018e-08
5.7934796e-07
1.0137474e-08
5.7779143e-07
8.6170097e-09
5.7658462e-07
7.2395022e-09
5.756458e-07
5.9772517e-09
5.7491586e-07
4.8068575e-09
5.7435181e-07
3.7082754e-09
5.7392242e-07
2.6640335e-09
5.7360518e-07
1.6585593e-09
5.7338435e-07
6.7759508e-10
5.7324949e-07
-2.9232113e-10
5.7319466e-07
-1.2643435e-09
5.7321796e-07
-2.2517976e-09
5.7332135e-07
-3.2686609e-09
5.7351093e-07
-4.3300787e-09
5.737974e-07
-5.4529394e-09
5.741971e-07
-6.6565325e-09
5.7473349e-07
-7.963331e-09
5.7543951e-07
-9.3999322e-09
5.7636088e-07
-1.0998146e-08
5.7756115e-07
-1.2796511e-08
5.7912965e-07
-1.4842436e-08
5.8119252e-07
-1.7192955e-08
5.8392931e-07
-1.991399e-08
5.8759922e-07
-2.3117449e-08
5.9260867e-07
-2.7238665e-08
6.0037588e-07
-3.2987435e-08
6.1593911e-07
-3.6156551e-08
6.3594368e-07
-2.3175237e-08
5.806244e-07
2.7467992e-07
1.7251175e-08
2.0409086e-07
3.6664521e-08
5.4195725e-07
3.8155972e-08
6.5213522e-07
3.2379752e-08
6.3737507e-07
2.7724766e-08
6.1386241e-07
2.427652e-08
6.0204003e-07
2.1316319e-08
5.9515256e-07
1.8685239e-08
5.9014865e-07
1.6343729e-08
5.8635702e-07
1.4251951e-08
5.8346058e-07
1.237197e-08
5.8122795e-07
1.0670746e-08
5.7949266e-07
9.1194291e-09
5.7813594e-07
7.6928104e-09
5.7707242e-07
6.3688792e-09
5.762398e-07
5.1283063e-09
5.7559239e-07
3.953969e-09
5.7509676e-07
2.8305111e-09
5.7472865e-07
1.743931e-09
5.7447093e-07
6.8119871e-10
5.7431222e-07
-3.7009256e-10
5.7424596e-07
-1.4220733e-09
5.7426994e-07
-2.4869345e-09
5.7438622e-07
-3.5772516e-09
5.7460125e-07
-4.7063199e-09
5.7492648e-07
-5.8885006e-09
5.7537929e-07
-7.1395785e-09
5.7598458e-07
-8.4771378e-09
5.7677708e-07
-9.9209714e-09
5.7780472e-07
-1.1493436e-08
5.7913362e-07
-1.3219846e-08
5.8085607e-07
-1.5129268e-08
5.8310194e-07
-1.7253528e-08
5.8605358e-07
-1.9625589e-08
5.8997128e-07
-2.2331904e-08
5.95315e-07
-2.5771393e-08
6.0381537e-07
-3.014965e-08
6.2031737e-07
-3.0620826e-08
6.3641487e-07
-1.7329144e-08
5.6733272e-07
2.5735079e-07
1.2190469e-08
1.9306445e-07
2.9903192e-08
5.2500585e-07
3.3943106e-08
6.4822243e-07
3.0122356e-08
6.4114736e-07
2.6341762e-08
6.1762429e-07
2.3479682e-08
6.049013e-07
2.0964733e-08
5.9766795e-07
1.8642229e-08
5.9247121e-07
1.6501279e-08
5.8849798e-07
1.4530778e-08
5.8543108e-07
1.2714203e-08
5.8304453e-07
1.1034292e-08
5.8117257e-07
9.4738226e-09
5.7969641e-07
8.0161798e-09
5.7853007e-07
6.645672e-09
5.7761031e-07
5.3476181e-09
5.7689045e-07
4.1083389e-09
5.7633604e-07
2.9150654e-09
5.7592193e-07
1.7557934e-09
5.7563021e-07
6.1911583e-10
5.7544891e-07
-5.0594835e-10
5.7537103e-07
-1.6301436e-09
5.7539414e-07
-2.7641593e-09
5.7552024e-07
-3.9187869e-09
5.7575589e-07
-5.1050622e-09
5.7611276e-07
-6.3343695e-09
5.766086e-07
-7.6184883e-09
5.772687e-07
-8.969549e-09
5.7812814e-07
-1.0399885e-08
5.7923506e-07
-1.1921672e-08
5.8065542e-07
-1.3546238e-08
5.8248064e-07
-1.528347e-08
5.8483918e-07
-1.7139131e-08
5.8790925e-07
-1.9114632e-08
5.9194679e-07
-2.1270652e-08
5.9747102e-07
-2.3909462e-08
6.0645419e-07
-2.6733477e-08
6.2314139e-07
-2.4864464e-08
6.3454586e-07
-1.1974458e-08
5.5444272e-07
2.4537633e-07
8.1185696e-09
1.8638484e-07
2.3703261e-08
5.1055022e-07
2.9573511e-08
6.4260065e-07
2.7694483e-08
6.4298327e-07
2.4870018e-08
6.204231e-07
2.2598531e-08
6.0717008e-07
2.0526108e-08
5.9974068e-07
1.8515789e-08
5.9448162e-07
1.658232e-08
5.9043146e-07
1.4741446e-08
5.8727196e-07
1.2996858e-08
5.8478912e-07
1.1346295e-08
5.8282314e-07
9.7837688e-09
5.8125895e-07
8.3010969e-09
5.8001275e-07
6.888894e-09
5.7902252e-07
5.5372078e-09
5.7824214e-07
4.2359359e-09
5.7763732e-07
2.9750552e-09
5.7718281e-07
1.7447308e-09
5.7686054e-07
5.3535185e-10
5.7665829e-07
-6.6247135e-10
5.7656886e-07
-1.8579399e-09
5.7658962e-07
-3.0600947e-09
5.767224e-07
-4.2778176e-09
5.7697362e-07
-5.5197882e-09
5.7735473e-07
-6.7943611e-09
5.7788318e-07
-8.1093264e-09
5.7858367e-07
-9.4714829e-09
5.794903e-07
-1.0885975e-08
5.8064956e-07
-1.23553e-08
5.8212475e-07
-1.387764e-08
5.8400299e-07
-1.5444915e-08
5.8640646e-07
-1.7038473e-08
5.8950281e-07
-1.8629868e-08
5.9353819e-07
-2.0247694e-08
5.9908886e-07
-2.204185e-08
6.0824835e-07
-2.3249899e-08
6.2434944e-07
-1.9433178e-08
6.3072914e-07
-7.3889871e-09
5.4239854e-07
2.3798736e-07
5.0130759e-09
1.8289563e-07
1.8357348e-08
4.9872268e-07
2.5528698e-08
6.3583228e-07
2.5507107e-08
6.42972e-07
2.3673968e-08
6.2222065e-07
2.1967048e-08
6.0887104e-07
2.0297315e-08
6.0141044e-07
1.8569173e-08
5.962099e-07
1.6822603e-08
5.9217805e-07
1.509735e-08
5.8899722e-07
1.3415289e-08
5.8647119e-07
1.1787521e-08
5.8445091e-07
1.0218082e-08
5.8282839e-07
8.7063892e-09
5.8152445e-07
7.2488218e-09
5.8048009e-07
5.8398308e-09
5.7965114e-07
4.4727102e-09
5.7900445e-07
3.1400977e-09
5.7851543e-07
1.8343009e-09
5.7816634e-07
5.475105e-10
5.7794509e-07
-7.2805902e-10
5.7784443e-07
-2.0000618e-09
5.7786163e-07
-3.275913e-09
5.7799826e-07
-4.5626571e-09
5.7826037e-07
-5.8667702e-09
5.7865885e-07
-7.193849e-09
5.7921026e-07
-8.5481409e-09
5.7993797e-07
-9.931818e-09
5.8087399e-07
-1.1343896e-08
5.8206164e-07
-1.2778729e-08
5.8355959e-07
-1.422354e-08
5.854478e-07
-1.5655165e-08
5.8783809e-07
-1.7034755e-08
5.9088241e-07
-1.8307525e-08
5.9481097e-07
-1.9459521e-08
6.0024086e-07
-2.0447478e-08
6.0923632e-07
-2.0098395e-08
6.2400037e-07
-1.4725467e-08
6.2535622e-07
-3.8325322e-09
5.3150561e-07
2.3415483e-07
2.8313201e-09
1.8152359e-07
1.4003724e-08
4.8938718e-07
2.2120774e-08
6.2826642e-07
2.383059e-08
6.4123174e-07
2.2986575e-08
6.2301224e-07
2.179806e-08
6.1004852e-07
2.0469816e-08
6.0273843e-07
1.8977214e-08
5.9770278e-07
1.7385116e-08
5.937702e-07
1.5752974e-08
5.9062937e-07
1.4117974e-08
5.881062e-07
1.2502317e-08
5.8606658e-07
1.0918358e-08
5.8441236e-07
9.3718954e-09
5.8307091e-07
7.8642332e-09
5.8198776e-07
6.3936785e-09
5.811217e-07
4.9565761e-09
5.8044156e-07
3.5480174e-09
5.79924e-07
2.1623358e-09
5.7955203e-07
7.9345814e-10
5.7931397e-07
-5.6484113e-10
5.7920274e-07
-1.9187213e-09
5.7921551e-07
-3.2740561e-09
5.793536e-07
-4.6362032e-09
5.7962252e-07
-6.009686e-09
5.8003234e-07
-7.397758e-09
5.8059834e-07
-8.8017629e-09
5.8134198e-07
-1.0220218e-08
5.8229245e-07
-1.1647448e-08
5.8348888e-07
-1.3071711e-08
5.8498386e-07
-1.4472199e-08
5.868483e-07
-1.5814649e-08
5.8918055e-07
-1.7046006e-08
5.9211377e-07
-1.8091064e-08
5.9585603e-07
-1.8881267e-08
6.0103107e-07
-1.9161846e-08
6.095169e-07
-1.7432911e-08
6.2227144e-07
-1.0908286e-08
6.1883161e-07
-1.436184e-09
5.2203352e-07
2.3271866e-07
1.4760268e-09
1.8138086e-07
1.0642956e-08
4.8223085e-07
1.9401505e-08
6.2015611e-07
2.2646373e-08
6.3794098e-07
2.275586e-08
6.2282506e-07
2.2037432e-08
6.1074888e-07
2.0992484e-08
6.0378296e-07
1.9694759e-08
5.9900107e-07
1.8232691e-08
5.9523237e-07
1.6680212e-08
5.9218186e-07
1.5086293e-08
5.8970012e-07
1.3481677e-08
5.876712e-07
1.1885231e-08
5.8600881e-07
1.0307847e-08
5.846483e-07
8.7548974e-09
5.8354072e-07
7.227986e-09
5.8264862e-07
5.726166e-09
5.8194338e-07
4.2467899e-09
5.8140338e-07
2.7861224e-09
5.810127e-07
1.3397904e-09
5.8076031e-07
-9.687707e-11
5.8063941e-07
-1.52855e-09
5.8064719e-07
-2.9595982e-09
5.8078465e-07
-4.3937867e-09
5.8105671e-07
-5.8338763e-09
5.8147244e-07
-7.2811142e-09
5.8204558e-07
-8.7344915e-09
5.8279537e-07
-1.0189732e-08
5.837477e-07
-1.163778e-08
5.8493693e-07
-1.3062697e-08
5.8640878e-07
-1.4438458e-08
5.8822407e-07
-1.5723723e-08
5.9046582e-07
-1.6856933e-08
5.9324699e-07
-1.774891e-08
5.9674802e-07
-1.8268234e-08
6.015504e-07
-1.7961775e-08
6.0921045e-07
-1.5144611e-08
6.1945428e-07
-7.9390787e-09
6.1162608e-07
-8.1792731e-11
5.1417624e-07
2.3263687e-07
7.9022392e-10
1.8180616e-07
8.1816595e-09
4.768521e-07
1.7186114e-08
6.118245e-07
2.1647209e-08
6.3340377e-07
2.2629348e-08
6.2173651e-07
2.2345837e-08
6.1100642e-07
2.1553139e-08
6.0457514e-07
2.043559e-08
6.0011955e-07
1.9103142e-08
5.9656499e-07
1.7639372e-08
5.9364563e-07
1.6101494e-08
5.91238e-07
1.4526499e-08
5.892462e-07
1.2938226e-08
5.8759709e-07
1.1351633e-08
5.862349e-07
9.775496e-09
5.8511686e-07
8.2143178e-09
5.842098e-07
6.6696435e-09
5.8348806e-07
5.140999e-09
5.8293203e-07
3.6265786e-09
5.8252713e-07
2.1237607e-09
5.8226313e-07
6.2951128e-10
5.8213367e-07
-8.5926165e-10
5.8213597e-07
-2.345352e-09
5.8227075e-07
-3.8308956e-09
5.8254226e-07
-5.3169246e-09
5.8295847e-07
-6.8028114e-09
5.8353148e-07
-8.2854801e-09
5.8427804e-07
-9.7583606e-09
5.8522058e-07
-1.120984e-08
5.8638842e-07
-1.2621049e-08
5.8782e-07
-1.3962684e-08
5.8956571e-07
-1.5189375e-08
5.9169252e-07
-1.6234749e-08
5.9429237e-07
-1.7000575e-08
5.9751385e-07
-1.7295987e-08
6.0184582e-07
-1.6520101e-08
6.0843457e-07
-1.299743e-08
6.1593162e-07
-5.6816928e-09
6.0431035e-07
5.3364882e-10
5.0796091e-07
2.3317053e-07
5.9384592e-10
1.8234999e-07
6.4728449e-09
4.7286019e-07
1.5198186e-08
6.0373955e-07
2.0419689e-08
6.2807766e-07
2.2129398e-08
6.1989863e-07
2.2257691e-08
6.108457e-07
2.1721011e-08
6.0511114e-07
2.0800574e-08
6.0104125e-07
1.9624719e-08
5.9774108e-07
1.8283059e-08
5.9498729e-07
1.6838108e-08
5.9268295e-07
1.5331415e-08
5.907529e-07
1.3790764e-08
5.8913774e-07
1.2234529e-08
5.8779114e-07
1.0674518e-08
5.8667688e-07
9.1179431e-09
5.8576638e-07
7.568778e-09
5.8503723e-07
6.0287508e-09
5.8447206e-07
4.498074e-09
5.8405781e-07
2.976006e-09
5.8378521e-07
1.4613026e-09
5.8364838e-07
-4.7384388e-11
5.8364466e-07
-1.5511149e-09
5.8377448e-07
-3.0502563e-09
5.8404141e-07
-4.5440031e-09
5.8445222e-07
-6.0297926e-09
5.8501727e-07
-7.5025086e-09
5.8575076e-07
-8.9534194e-09
5.866715e-07
-1.0368666e-08
5.8780367e-07
-1.1727023e-08
5.8917836e-07
-1.2996831e-08
5.9083552e-07
-1.4130503e-08
5.928262e-07
-1.5058724e-08
5.9522059e-07
-1.5677586e-08
5.9813272e-07
-1.5756105e-08
6.0192434e-07
-1.4629198e-08
6.0730767e-07
-1.0827618e-08
6.1213005e-07
-4.0204367e-09
5.9750318e-07
5.8793338e-10
5.0335255e-07
2.3375847e-07
6.9170445e-10
1.8275997e-07
5.3388501e-09
4.6992875e-07
1.3240822e-08
5.964267e-07
1.8689115e-08
6.2251688e-07
2.0914048e-08
6.1754022e-07
2.1424557e-08
6.1030016e-07
2.1166194e-08
6.0536853e-07
2.047791e-08
6.0173093e-07
1.9500776e-08
5.9871849e-07
1.8327598e-08
5.9616048e-07
1.7023871e-08
5.9398668e-07
1.5634503e-08
5.9214227e-07
1.4190543e-08
5.9058171e-07
1.2713407e-08
5.8926828e-07
1.121775e-08
5.8817254e-07
9.7134185e-09
5.8727072e-07
8.206834e-09
5.8654382e-07
6.7019968e-09
5.859769e-07
5.2012477e-09
5.8555857e-07
3.7058628e-09
5.852806e-07
2.2165413e-09
5.851377e-07
7.3384125e-10
5.8512737e-07
-7.4140225e-10
5.8524973e-07
-2.2076276e-09
5.8550764e-07
-3.6620608e-09
5.8590666e-07
-5.1000864e-09
5.864553e-07
-6.5144749e-09
5.8716516e-07
-7.8943138e-09
5.8805134e-07
-9.223566e-09
5.8913293e-07
-1.0478896e-08
5.904337e-07
-1.1626726e-08
5.9198336e-07
-1.2618365e-08
5.9381784e-07
-1.338315e-08
5.9598539e-07
-1.3814998e-08
5.9856457e-07
-1.3672662e-08
6.0178202e-07
-1.232006e-08
6.0595508e-07
-8.628453e-09
6.0843845e-07
-2.8112424e-09
5.9168598e-07
4.2157032e-10
5.0011974e-07
2.3418005e-07
8.910676e-10
1.829626e-07
4.5993268e-09
4.6778842e-07
1.1284275e-08
5.9029417e-07
1.646128e-08
6.1724844e-07
1.8948838e-08
6.149327e-07
1.9784003e-08
6.0943211e-07
1.9814965e-08
6.0533629e-07
1.9386962e-08
6.0216019e-07
1.8644607e-08
5.9946111e-07
1.7680641e-08
5.9712445e-07
1.6561339e-08
5.9510598e-07
1.5333739e-08
5.9336988e-07
1.4031432e-08
5.9188402e-07
1.2678469e-08
5.9062125e-07
1.1292116e-08
5.895589e-07
9.8847378e-09
5.886781e-07
8.4651497e-09
5.8796342e-07
7.0396243e-09
5.8740243e-07
5.6126647e-09
5.8698553e-07
4.1876201e-09
5.8670565e-07
2.7672012e-09
5.8655813e-07
1.3539444e-09
5.8654063e-07
-4.9349345e-11
5.8665303e-07
-1.4391361e-09
5.8689743e-07
-2.8106263e-09
5.8727816e-07
-4.1571507e-09
5.8780183e-07
-5.4693991e-09
5.8847741e-07
-6.73438e-09
5.8931633e-07
-7.9340704e-09
5.9033262e-07
-9.0434156e-09
5.9154305e-07
-1.0027575e-08
5.9296752e-07
-1.0837951e-08
5.9462822e-07
-1.140508e-08
5.9655252e-07
-1.1625784e-08
5.9878528e-07
-1.1278273e-08
6.0143451e-07
-9.8296937e-09
6.045065e-07
-6.532781e-09
6.0514154e-07
-1.9485911e-09
5.8710179e-07
2.174238e-10
4.9795373e-07
2.3439748e-07
1.0733871e-09
1.8298745e-07
4.1095587e-09
4.6622609e-07
9.4377318e-09
5.8550778e-07
1.398681e-08
6.1265148e-07
1.649175e-08
6.1233455e-07
1.7559099e-08
6.0833767e-07
1.7856018e-08
6.0503792e-07
1.7688234e-08
6.0232893e-07
1.7192353e-08
5.9995722e-07
1.6456741e-08
5.9786007e-07
1.5545887e-08
5.9601683e-07
1.4507262e-08
5.9440851e-07
1.3375887e-08
5.930154e-07
1.2177736e-08
5.9181941e-07
1.0932202e-08
5.9080444e-07
9.6538277e-09
5.8995648e-07
8.3535866e-09
5.8926366e-07
7.0398563e-09
5.8871617e-07
5.7191794e-09
5.8830621e-07
4.3968854e-09
5.8802795e-07
3.0776174e-09
5.878774e-07
1.765813e-09
5.8785244e-07
4.6615583e-10
5.879527e-07
-8.1593713e-10
5.8817953e-07
-2.0738098e-09
5.8853604e-07
-3.2989323e-09
5.8902696e-07
-4.4801869e-09
5.8965867e-07
-5.602893e-09
5.9043904e-07
-6.6475838e-09
5.9137732e-07
-7.5882906e-09
5.9248376e-07
-8.3901294e-09
5.9376937e-07
-9.0063196e-09
5.9524442e-07
-9.3720825e-09
5.9691829e-07
-9.3935692e-09
5.9880677e-07
-8.8891408e-09
6.0093009e-07
-7.4664417e-09
6.0308381e-07
-4.7158358e-09
6.0239094e-07
-1.3494587e-09
5.8373542e-07
6.6999061e-11
4.9653728e-07
2.3446449e-07
1.1892163e-09
1.8290327e-07
3.7708667e-09
4.6507342e-07
7.8473523e-09
5.8198078e-07
1.1602427e-08
6.0889955e-07
1.3932737e-08
6.0994175e-07
1.5118615e-08
6.0713191e-07
1.5621195e-08
6.0453391e-07
1.5679338e-08
6.0227139e-07
1.5410948e-08
6.0022578e-07
1.4895274e-08
5.9837576e-07
1.4192123e-08
5.9671999e-07
1.3347239e-08
5.952534e-07
1.2395553e-08
5.9396709e-07
1.1363873e-08
5.928511e-07
1.0272917e-08
5.918954e-07
9.1388068e-09
5.910906e-07
7.9742126e-09
5.9042826e-07
6.78925e-09
5.8990114e-07
5.592202e-09
5.8950327e-07
4.3901193e-09
5.8923003e-07
3.1893411e-09
5.8907818e-07
1.9959711e-09
5.8904582e-07
8.163297e-10
5.8913234e-07
-3.4257384e-10
5.8933844e-07
-1.4725368e-09
5.8966601e-07
-2.563586e-09
5.9011802e-07
-3.6033058e-09
5.906984e-07
-4.5759912e-09
5.9141173e-07
-5.4616031e-09
5.9226294e-07
-6.2344171e-09
5.9325658e-07
-6.8611337e-09
5.9439609e-07
-7.298849e-09
5.9568214e-07
-7.4909032e-09
5.9711035e-07
-7.3585685e-09
5.9867445e-07
-6.7684022e-09
6.0033993e-07
-5.4676735e-09
6.0178309e-07
-3.2925625e-09
6.0021584e-07
-9.4604805e-10
5.8138892e-07
-2.9849015e-11
4.9562109e-07
2.3443465e-07
1.2376769e-09
1.8277521e-07
3.524174e-09
4.6420091e-07
6.6029468e-09
5.794638e-07
9.56956e-09
6.0598052e-07
1.1611207e-08
6.0786457e-07
1.2806136e-08
6.0592377e-07
1.3433366e-08
6.0390544e-07
1.3658711e-08
6.0204637e-07
1.357477e-08
6.0030982e-07
1.3247884e-08
5.9870265e-07
1.2730518e-08
5.9723736e-07
1.2064519e-08
5.959194e-07
1.1283054e-08
5.9474856e-07
1.0412481e-08
5.9372167e-07
9.4738438e-09
5.9283404e-07
8.4840552e-09
5.9208039e-07
7.4568514e-09
5.9145547e-07
6.4035686e-09
5.9095443e-07
5.3337904e-09
5.9057305e-07
4.2559019e-09
5.9030793e-07
3.1775784e-09
5.9015651e-07
2.1062376e-09
5.9011716e-07
1.0494723e-09
5.9018911e-07
1.5487371e-11
5.9037243e-07
-9.8642657e-10
5.9066793e-07
-1.9453844e-09
5.9107698e-07
-2.8483212e-09
5.9160134e-07
-3.6793068e-09
5.9224272e-07
-4.4187264e-09
5.9300236e-07
-5.0423282e-09
5.9388019e-07
-5.5199665e-09
5.9487373e-07
-5.8144323e-09
5.9597661e-07
-5.8794437e-09
5.9717537e-07
-5.6545215e-09
5.9844953e-07
-5.0515127e-09
5.9973693e-07
-3.9303647e-09
6.0066195e-07
-2.2736417e-09
5.9855912e-07
-6.7311715e-10
5.797884e-07
-5.456049e-11
4.9500254e-07
2.3438009e-07
1.2411733e-09
1.8264536e-07
3.3369587e-09
4.6351592e-07
5.705446e-09
5.7766475e-07
7.9977959e-09
6.0376652e-07
9.7124518e-09
6.0613382e-07
1.0833049e-08
6.0479503e-07
1.1505587e-08
6.0323192e-07
1.1832349e-08
6.0171974e-07
1.1879389e-08
6.0026284e-07
1.1698385e-08
5.9888367e-07
1.1332747e-08
5.97603e-07
1.0818767e-08
5.9643339e-07
1.0186423e-08
5.9538091e-07
9.460417e-09
5.9444769e-07
8.6611235e-09
5.9363334e-07
7.8054264e-09
5.9293609e-07
6.9074437e-09
5.9235346e-07
5.9791532e-09
5.9188272e-07
5.030937e-09
5.9152127e-07
4.0720641e-09
5.9126681e-07
3.111127e-09
5.9111746e-07
2.1564483e-09
5.9107185e-07
1.2164756e-09
5.9112909e-07
3.0016788e-10
5.9128874e-07
-5.8258761e-10
5.9155069e-07
-1.4205504e-09
5.9191495e-07
-2.2006516e-09
5.9238145e-07
-2.9074876e-09
5.9294957e-07
-3.5227489e-09
5.9361763e-07
-4.0246468e-09
5.9438209e-07
-4.3872757e-09
5.9523637e-07
-4.5801674e-09
5.9616951e-07
-4.5679992e-09
5.9716321e-07
-4.3083535e-09
5.9818989e-07
-3.74917e-09
5.9917775e-07
-2.826826e-09
5.9973961e-07
-1.5910929e-09
5.9732339e-07
-4.8798061e-10
5.7868529e-07
-4.4096357e-11
4.9455866e-07
2.34336e-07
1.2243383e-09
1.8253211e-07
3.1908001e-09
4.6295868e-07
5.0898902e-09
5.7633588e-07
6.8610528e-09
6.0209082e-07
8.2649194e-09
6.0472578e-07
9.2629942e-09
6.0379214e-07
9.9195812e-09
6.0257461e-07
1.0290136e-08
6.0134923e-07
1.0417344e-08
6.0013567e-07
1.0338684e-08
5.9896234e-07
1.008807e-08
5.9785362e-07
9.6954378e-09
5.9682602e-07
9.1866673e-09
5.9588969e-07
8.5839198e-09
5.9505044e-07
7.906098e-09
5.9431117e-07
7.1693479e-09
5.9367285e-07
6.3875487e-09
5.9313526e-07
5.5727738e-09
5.926975e-07
4.7357172e-09
5.9235833e-07
3.886088e-09
5.9211644e-07
3.0329786e-09
5.9197057e-07
2.185213e-09
5.9191962e-07
1.3516857e-09
5.9196262e-07
5.416901e-10
5.9209874e-07
-2.3474033e-10
5.9232712e-07
-9.664954e-10
5.9264671e-07
-1.6410367e-09
5.9305599e-07
-2.2440615e-09
5.935526e-07
-2.7591687e-09
5.9413274e-07
-3.1676064e-09
5.9479053e-07
-3.4481334e-09
5.955169e-07
-3.5771225e-09
5.9629851e-07
-3.5293173e-09
5.9711541e-07
-3.2776502e-09
5.9793823e-07
-2.7952881e-09
5.9869539e-07
-2.0624601e-09
5.9900679e-07
-1.1463706e-09
5.9640731e-07
-3.5945835e-10
5.7789839e-07
-2.4242138e-11
4.9422345e-07
2.3431177e-07
1.203714e-09
1.8243847e-07
3.0739432e-09
4.6249449e-07
4.6691408e-09
5.7530699e-07
6.0611731e-09
6.008016e-07
7.1985185e-09
6.035906e-07
8.057479e-09
6.029303e-07
8.6605939e-09
6.0197096e-07
9.0333213e-09
6.009765e-07
9.2004194e-09
5.9996859e-07
9.1872422e-09
5.9897552e-07
9.0189175e-09
5.9802195e-07
8.7190657e-09
5.9712588e-07
8.3091574e-09
5.962996e-07
7.808346e-09
5.9555126e-07
7.2335492e-09
5.9488597e-07
6.5996665e-09
5.9430674e-07
5.9198573e-09
5.9381508e-07
5.2058434e-09
5.9341152e-07
4.4682161e-09
5.9309597e-07
3.7167367e-09
5.9286792e-07
2.9606295e-09
5.9272668e-07
2.2088627e-09
5.9267139e-07
1.4704246e-09
5.9270107e-07
7.5458741e-10
5.9281459e-07
7.1168639e-11
5.9301055e-07
-5.6922031e-10
5.932871e-07
-1.1549403e-09
5.9364172e-07
-1.6731361e-09
5.940708e-07
-2.1095991e-09
5.9456921e-07
-2.4487552e-09
5.951297e-07
-2.6738613e-09
5.9574201e-07
-2.7674597e-09
5.9639211e-07
-2.7125781e-09
5.9706053e-07
-2.4936519e-09
5.9771931e-07
-2.0995067e-09
5.9830125e-07
-1.5311524e-09
5.9843844e-07
-8.4920982e-10
5.9572537e-07
-2.6554884e-10
5.7731473e-07
-7.1795819e-12
4.9396509e-07
2.3430459e-07
1.1865254e-09
1.8236095e-07
2.9783176e-09
4.6210423e-07
4.3679934e-09
5.7447816e-07
5.4894953e-09
5.9978504e-07
6.4113218e-09
6.0267396e-07
7.1358306e-09
6.0220395e-07
7.6687019e-09
6.014377e-07
8.0185546e-09
6.0062664e-07
8.1978991e-09
5.9978926e-07
8.2227342e-09
5.9895069e-07
8.1108213e-09
5.9813387e-07
7.8801201e-09
5.9735659e-07
7.5478728e-09
5.9663185e-07
7.130142e-09
5.9596899e-07
6.6416381e-09
5.9537448e-07
6.0957243e-09
5.9485266e-07
5.5045234e-09
5.9440628e-07
4.8790841e-09
5.9403697e-07
4.2295787e-09
5.9374548e-07
3.5655146e-09
5.9353199e-07
2.8959506e-09
5.9339625e-07
2.229712e-09
5.9333763e-07
1.5756003e-09
5.9335518e-07
9.4259374e-10
5.934476e-07
3.4003405e-10
5.9361311e-07
-2.2220785e-10
5.9384935e-07
-7.3359658e-10
5.9415311e-07
-1.1828604e-09
5.9452007e-07
-1.5579981e-09
5.9494435e-07
-1.8464232e-09
5.9541813e-07
-2.0353385e-09
5.9593093e-07
-2.1123575e-09
5.9646913e-07
-2.0667402e-09
5.9701492e-07
-1.8906611e-09
5.9754323e-07
-1.5815817e-09
5.9799218e-07
-1.1479433e-09
5.9800481e-07
-6.3664199e-10
5.9521408e-07
-1.9295845e-10
5.7687105e-07
4.7806249e-12
4.9376736e-07
2.3430938e-07
1.1739067e-09
1.822952e-07
2.8985161e-09
4.6177643e-07
4.1366747e-09
5.7379583e-07
5.0613362e-09
5.9896548e-07
5.8131757e-09
6.0192872e-07
6.418329e-09
6.0159751e-07
6.8781449e-09
6.0097758e-07
7.1930026e-09
6.0031177e-07
7.3678445e-09
5.9961442e-07
7.4120268e-09
5.9890651e-07
7.3375942e-09
5.9820831e-07
7.157804e-09
5.9753638e-07
6.8861595e-09
5.969035e-07
6.5358243e-09
5.9631933e-07
6.1193095e-09
5.95791e-07
5.6483385e-09
5.9532363e-07
5.1338314e-09
5.949208e-07
4.5859637e-09
5.9458484e-07
4.0142723e-09
5.9431717e-07
3.4277889e-09
5.9411848e-07
2.8351868e-09
5.9398886e-07
2.2449333e-09
5.9392789e-07
1.6654385e-09
5.9393468e-07
1.1051954e-09
5.9400785e-07
5.729037e-10
5.9414541e-07
7.7563616e-11
5.9434469e-07
-3.7146532e-10
5.9460215e-07
-7.6447473e-10
5.9491308e-07
-1.0915069e-09
5.9527139e-07
-1.342582e-09
5.9566921e-07
-1.508132e-09
5.9609649e-07
-1.5796495e-09
5.9654066e-07
-1.5507521e-09
5.9698603e-07
-1.4183531e-09
5.9741084e-07
-1.184097e-09
5.9775793e-07
-8.5762012e-10
5.9767834e-07
-4.7317099e-10
5.9482964e-07
-1.3508727e-10
5.7653298e-07
1.0442673e-11
4.9362183e-07
2.3431983e-07
1.1645822e-09
1.8223816e-07
2.8311103e-09
4.6150254e-07
3.9484088e-09
5.7323051e-07
4.7235466e-09
5.9829527e-07
5.3412582e-09
6.0131842e-07
5.8448513e-09
6.0109295e-07
6.236159e-09
6.0058602e-07
6.5121447e-09
6.0003578e-07
6.673479e-09
5.9945309e-07
6.7251058e-09
5.9885489e-07
6.6748872e-09
5.9825853e-07
6.5323859e-09
5.9767889e-07
6.307984e-09