/*--------------------------------*- C++ -*----------------------------------*\
  =========                 |
  \\      /  F ield         | OpenFOAM: The Open Source CFD Toolbox
   \\    /   O peration     | Website:  https://openfoam.org
    \\  /    A nd           | Version:  10
     \\/     M anipulation  |
\*---------------------------------------------------------------------------*/
FoamFile
{
    format      ascii;
    class       surfaceScalarField;
    location    "0.03";
    object      phi_0;
}
// * * * * * * * * * * * * * * * * * * * * * * * * * * * * * * * * * * * * * //

dimensions      [1 0 -1 0 0 0 0];

internalField   nonuniform List<scalar> 
7860
(
3.9595725e-08
5.2911393e-07
1.1989985e-08
5.9631208e-07
7.2398917e-09
5.7345791e-07
5.3013368e-09
5.7064632e-07
3.9259009e-09
5.7008316e-07
3.0267236e-09
5.6960688e-07
2.4000314e-09
5.6933438e-07
1.9357345e-09
5.6917197e-07
1.5810553e-09
5.6906234e-07
1.3030667e-09
5.6898564e-07
1.0798167e-09
5.689309e-07
8.9651569e-10
5.6889094e-07
7.4285702e-10
5.6886129e-07
6.1142853e-10
5.6883906e-07
4.9676141e-10
5.688223e-07
3.9471466e-10
5.6880967e-07
3.0206338e-10
5.6880027e-07
2.1621438e-10
5.6879347e-07
1.3500263e-10
5.6878883e-07
5.6537841e-11
5.6878608e-07
-2.0919029e-11
5.6878508e-07
-9.906511e-11
5.6878577e-07
-1.7965764e-10
5.6878821e-07
-2.6462384e-10
5.6879259e-07
-3.5619458e-10
5.6879919e-07
-4.5707065e-10
5.688085e-07
-5.7065008e-10
5.6882121e-07
-7.0135186e-10
5.6883833e-07
-8.5509436e-10
5.6886138e-07
-1.0400288e-09
5.6889257e-07
-1.2677513e-09
5.6893537e-07
-1.555358e-09
5.6899526e-07
-1.9284605e-09
5.6908076e-07
-2.4278367e-09
5.6920705e-07
-3.1369486e-09
5.694168e-07
-4.2169375e-09
5.6978769e-07
-5.7736767e-09
5.7026446e-07
-9.271433e-09
5.7220551e-07
-2.9244383e-08
5.8868075e-07
5.3946358e-07
5.8932424e-08
4.7019415e-07
3.5883437e-08
6.1935618e-07
2.1961407e-08
5.8737843e-07
1.5609311e-08
5.7699846e-07
1.1684351e-08
5.7400814e-07
9.0493518e-09
5.7224189e-07
7.1721695e-09
5.7121157e-07
5.7826682e-09
5.7056148e-07
4.7233721e-09
5.7012164e-07
3.8932046e-09
5.6981582e-07
3.2265111e-09
5.695976e-07
2.6791209e-09
5.6943834e-07
2.2201787e-09
5.6932024e-07
1.8275226e-09
5.6923172e-07
1.4848226e-09
5.69165e-07
1.1797252e-09
5.6911478e-07
9.0261877e-10
5.6907739e-07
6.4578271e-10
5.6905031e-07
4.0277676e-10
5.6903184e-07
1.6798166e-10
5.6902089e-07
-6.3769624e-11
5.6901683e-07
-2.9751255e-10
5.6901951e-07
-5.3846197e-10
5.6902917e-07
-7.9234468e-10
5.6904648e-07
-1.0657905e-09
5.6907264e-07
-1.3668333e-09
5.6910955e-07
-1.7055919e-09
5.6915997e-07
-2.095241e-09
5.6922799e-07
-2.5534526e-09
5.6931959e-07
-3.1046061e-09
5.6944373e-07
-3.7833297e-09
5.696141e-07
-4.6407181e-09
5.6985265e-07
-5.7551041e-09
5.7019515e-07
-7.2483836e-09
5.7070033e-07
-9.3280109e-09
5.7149643e-07
-1.2410672e-08
5.7287036e-07
-1.7325387e-08
5.7517918e-07
-2.728786e-08
5.8216799e-07
-4.4944649e-08
6.0633754e-07
4.9451894e-07
5.8825917e-08
4.1139999e-07
4.8963763e-08
6.2921499e-07
3.2097237e-08
6.0423931e-07
2.3649067e-08
5.854463e-07
1.8238273e-08
5.7941902e-07
1.4343711e-08
5.7613646e-07
1.1472069e-08
5.7408321e-07
9.3097363e-09
5.7272382e-07
7.640612e-09
5.7179077e-07
6.3204596e-09
5.7113597e-07
5.2530091e-09
5.7066505e-07
4.3717473e-09
5.7031961e-07
3.62945e-09
5.7006255e-07
2.991842e-09
5.6986934e-07
2.4334577e-09
5.6972339e-07
1.9349049e-09
5.6961333e-07
1.4810165e-09
5.6953128e-07
1.0595582e-09
5.6947178e-07
6.6029123e-10
5.6943112e-07
2.7426132e-10
5.6940692e-07
-1.067743e-10
5.6939787e-07
-4.9084765e-10
5.6940359e-07
-8.8626709e-10
5.6942459e-07
-1.3021359e-09
5.6946235e-07
-1.7489579e-09
5.6951947e-07
-2.239409e-09
5.6960001e-07
-2.7893743e-09
5.6970994e-07
-3.4194061e-09
5.6985802e-07
-4.1568543e-09
5.7005705e-07
-5.0390675e-09
5.7032595e-07
-6.1182609e-09
5.706933e-07
-7.46944e-09
5.7120384e-07
-9.2042116e-09
5.7192993e-07
-1.1489141e-08
5.7298527e-07
-1.4564732e-08
5.7457203e-07
-1.880855e-08
5.7711418e-07
-2.5188216e-08
5.8155886e-07
-3.7215539e-08
5.9419532e-07
-4.671005e-08
6.1583206e-07
4.4780889e-07
5.327579e-08
3.5818563e-07
5.5019666e-08
6.2748118e-07
3.8400372e-08
6.2084726e-07
2.8980672e-08
5.9486399e-07
2.3005462e-08
5.8539441e-07
1.8477303e-08
5.8066467e-07
1.4999718e-08
5.775608e-07
1.2306472e-08
5.7541707e-07
1.0182676e-08
5.7391457e-07
8.4761573e-09
5.728425e-07
7.0794387e-09
5.7206178e-07
5.9149187e-09
5.7148413e-07
4.9259472e-09
5.7105152e-07
4.0705568e-09
5.7072473e-07
3.317052e-09
5.704769e-07
2.6409832e-09
5.7028941e-07
2.0230277e-09
5.7014924e-07
1.4474659e-09
5.7004734e-07
9.0105387e-10
5.6997753e-07
3.7215407e-10
5.6993583e-07
-1.4997458e-10
5.6992001e-07
-6.7580171e-10
5.6992943e-07
-1.2161318e-09
5.6996493e-07
-1.7827475e-09
5.7002897e-07
-2.3891555e-09
5.7012589e-07
-3.0515188e-09
5.7026238e-07
-3.7898876e-09
5.7044832e-07
-4.6298801e-09
5.7069802e-07
-5.6050528e-09
5.7103223e-07
-6.7603228e-09
5.7148123e-07
-8.1568094e-09
5.7208979e-07
-9.8785731e-09
5.7292561e-07
-1.2043623e-08
5.7409499e-07
-1.481827e-08
5.7575992e-07
-1.8411288e-08
5.7816505e-07
-2.3103084e-08
5.8180598e-07
-3.0079642e-08
5.8853542e-07
-4.2281007e-08
6.0639669e-07
-4.4423366e-08
6.1797442e-07
4.0338553e-07
4.5986643e-08
3.1230415e-07
5.6603402e-08
6.1690698e-07
4.2315853e-08
6.3511938e-07
3.2313335e-08
6.0486052e-07
2.6128468e-08
5.9157925e-07
2.1401002e-08
5.8539226e-07
1.7658297e-08
5.8130352e-07
1.4676188e-08
5.7839918e-07
1.2268234e-08
5.7632253e-07
1.0296062e-08
5.7481468e-07
8.656235e-09
5.7370161e-07
7.2707819e-09
5.7286959e-07
6.0809491e-09
5.7224136e-07
5.0420184e-09
5.7176367e-07
4.119457e-09
5.7139947e-07
3.286142e-09
5.7112273e-07
2.5203136e-09
5.7091508e-07
1.8040476e-09
5.7076362e-07
1.122092e-09
5.706595e-07
4.6094846e-10
5.7059698e-07
-1.9189157e-10
5.7057286e-07
-8.4862473e-10
5.7058617e-07
-1.5217956e-09
5.7063811e-07
-2.2249913e-09
5.7073217e-07
-2.9736342e-09
5.7087454e-07
-3.7859528e-09
5.710747e-07
-4.6842252e-09
5.713466e-07
-5.6964198e-09
5.7171022e-07
-6.8583949e-09
5.7219421e-07
-8.2169178e-09
5.7283976e-07
-9.8337331e-09
5.7370661e-07
-1.1790394e-08
5.7488227e-07
-1.4195282e-08
5.7649988e-07
-1.7195645e-08
5.7876029e-07
-2.0974391e-08
5.819438e-07
-2.5830242e-08
5.8666184e-07
-3.3178458e-08
5.9588364e-07
-4.4313571e-08
6.1753181e-07
-4.033806e-08
6.1399892e-07
3.6304748e-07
3.7977571e-08
2.7449013e-07
5.4364414e-08
6.0061732e-07
4.400178e-08
6.4546744e-07
3.410447e-08
6.1474472e-07
2.7938095e-08
5.9774459e-07
2.3279974e-08
5.9005066e-07
1.9510923e-08
5.8507261e-07
1.6431661e-08
5.8147845e-07
1.3889365e-08
5.7886484e-07
1.1765559e-08
5.7693849e-07
9.968234e-09
5.7549894e-07
8.4260839e-09
5.7441175e-07
7.0838483e-09
5.735836e-07
5.8982661e-09
5.7294926e-07
4.8350967e-09
5.7246264e-07
3.8668674e-09
5.7209097e-07
2.9711231e-09
5.7181083e-07
2.1290714e-09
5.7160567e-07
1.3245148e-09
5.7146406e-07
5.4298359e-10
5.7137851e-07
-2.2900043e-10
5.7134485e-07
-1.0045847e-09
5.7136176e-07
-1.7972327e-09
5.7143076e-07
-2.6213976e-09
5.7155634e-07
-3.4932742e-09
5.7174642e-07
-4.4316987e-09
5.7201313e-07
-5.4592633e-09
5.7237417e-07
-6.6037373e-09
5.728547e-07
-7.8998856e-09
5.7349036e-07
-9.3918529e-09
5.7433173e-07
-1.1136428e-08
5.7545119e-07
-1.320686e-08
5.7695271e-07
-1.5697456e-08
5.7899048e-07
-1.8733009e-08
5.8179585e-07
-2.2478383e-08
5.8568918e-07
-2.7299229e-08
5.9148269e-07
-3.4590716e-08
6.0317513e-07
-4.3462239e-08
6.2640334e-07
-3.4915589e-08
6.0545227e-07
3.2813189e-07
3.0094268e-08
2.4467415e-07
4.9341946e-08
5.8155078e-07
4.3438557e-08
6.5136389e-07
3.4477342e-08
6.2368219e-07
2.8625151e-08
6.0359338e-07
2.4257381e-08
5.9441887e-07
2.0649097e-08
5.8868102e-07
1.7625011e-08
5.8450254e-07
1.5071548e-08
5.814183e-07
1.2893886e-08
5.7911616e-07
1.1015667e-08
5.7737717e-07
9.3764624e-09
5.7605096e-07
7.928181e-09
5.7503189e-07
6.6320971e-09
5.7424535e-07
5.4567561e-09
5.7363799e-07
4.3763045e-09
5.7317142e-07
3.3691417e-09
5.72818e-07
2.4168417e-09
5.7255798e-07
1.5032719e-09
5.7237763e-07
6.1385341e-10
5.7226794e-07
-2.6507769e-10
5.7222378e-07
-1.1468571e-09
5.7224354e-07
-2.0450671e-09
5.7232898e-07
-2.974125e-09
5.7248541e-07
-3.9499277e-09
5.7272223e-07
-4.990599e-09
5.7305381e-07
-6.1173829e-09
5.7350096e-07
-7.3557496e-09
5.7409308e-07
-8.7367672e-09
5.7487139e-07
-1.0298819e-08
5.7589379e-07
-1.2090052e-08
5.7724243e-07
-1.4171512e-08
5.7903418e-07
-1.6619789e-08
5.8143877e-07
-1.953111e-08
5.8470718e-07
-2.3043256e-08
5.8920133e-07
-2.7568726e-08
5.9600817e-07
-3.4226619e-08
6.0983303e-07
-4.0198605e-08
6.3237533e-07
-2.8812646e-08
5.9406632e-07
2.9931925e-07
2.2951611e-08
2.2225925e-07
4.2828632e-08
5.6199641e-07
4.1034915e-08
6.5317036e-07
3.3619157e-08
6.3106131e-07
2.8353634e-08
6.088515e-07
2.4449659e-08
5.9832334e-07
2.1154191e-08
5.9197674e-07
1.8309923e-08
5.8734683e-07
1.5845147e-08
5.8388308e-07
1.3693547e-08
5.8126776e-07
1.1798381e-08
5.7927234e-07
1.0113171e-08
5.7773617e-07
8.5995309e-09
5.7654554e-07
7.2254489e-09
5.7561943e-07
5.9640874e-09
5.7489936e-07
4.7927193e-09
5.743428e-07
3.6918349e-09
5.7391889e-07
2.6443961e-09
5.7360542e-07
1.6351952e-09
5.7338684e-07
6.5029531e-10
5.7325284e-07
-3.2346261e-10
5.7319755e-07
-1.2989296e-09
5.7321901e-07
-2.2891066e-09
5.7331916e-07
-3.3075999e-09
5.7350391e-07
-4.3691104e-09
5.7378374e-07
-5.4899744e-09
5.7417468e-07
-6.6887786e-09
5.7469977e-07
-7.9870857e-09
5.7539139e-07
-9.410304e-09
5.7629461e-07
-1.0988677e-08
5.7747217e-07
-1.2758679e-08
5.7901244e-07
-1.476503e-08
5.8104054e-07
-1.7061225e-08
5.8373497e-07
-1.9709055e-08
5.8735501e-07
-2.2814541e-08
5.9230683e-07
-2.6797569e-08
5.999912e-07
-3.2345701e-08
6.1538117e-07
-3.5343956e-08
6.3537359e-07
-2.2586784e-08
5.8130915e-07
2.7673247e-07
1.6796123e-08
2.064071e-07
3.5823737e-08
5.4352835e-07
3.7399759e-08
6.5165401e-07
3.1861352e-08
6.3655253e-07
2.7378042e-08
6.13322e-07
2.4038191e-08
6.0166334e-07
2.115353e-08
5.9486177e-07
1.8575696e-08
5.8992469e-07
1.6270552e-08
5.8618823e-07
1.4202698e-08
5.8333562e-07
1.2337504e-08
5.8113754e-07
1.0644394e-08
5.7942929e-07
9.0963198e-09
5.7809362e-07
7.6694023e-09
5.7704636e-07
6.3426155e-09
5.7622615e-07
5.0973663e-09
5.7558805e-07
3.9170917e-09
5.7509917e-07
2.7868718e-09
5.7473565e-07
1.6930576e-09
5.7448066e-07
6.2291965e-10
5.7432299e-07
-4.3567161e-10
5.7425614e-07
-1.4945708e-09
5.7427792e-07
-2.5656706e-09
5.7439026e-07
-3.6611971e-09
5.7459944e-07
-4.7940144e-09
5.7491657e-07
-5.9779277e-09
5.753586e-07
-7.2279852e-09
5.7594983e-07
-8.5607759e-09
5.7672419e-07
-9.994731e-09
5.7772857e-07
-1.1550329e-08
5.7902777e-07
-1.3250262e-08
5.8071238e-07
-1.5119989e-08
5.8291027e-07
-1.718624e-08
5.8580122e-07
-1.947516e-08
5.8964394e-07
-2.2062672e-08
5.9489434e-07
-2.5321502e-08
6.0325004e-07
-2.943626e-08
6.1949593e-07
-2.9680713e-08
6.3561805e-07
-1.6594189e-08
5.6822263e-07
2.6013829e-07
1.167287e-08
1.9608807e-07
2.8996105e-08
5.2710843e-07
3.3148048e-08
6.4765425e-07
2.9620366e-08
6.4003023e-07
2.6051324e-08
6.1687165e-07
2.3313342e-08
6.044003e-07
2.0876386e-08
5.9729909e-07
1.8603195e-08
5.9219794e-07
1.6491801e-08
5.8829963e-07
1.453713e-08
5.852903e-07
1.2726829e-08
5.8294785e-07
1.1046568e-08
5.8110956e-07
9.4811493e-09
5.7965904e-07
8.0153739e-09
5.7851214e-07
6.6345447e-09
5.7760699e-07
5.3246856e-09
5.7689792e-07
4.0726236e-09
5.7635123e-07
2.8659614e-09
5.7594232e-07
1.6929772e-09
5.7565365e-07
5.4249136e-10
5.7547348e-07
-5.9627814e-10
5.7539492e-07
-1.7338812e-09
5.7541553e-07
-2.880793e-09
5.7553718e-07
-4.0475458e-09
5.757662e-07
-5.2448393e-09
5.7611387e-07
-6.4836007e-09
5.7659736e-07
-7.7749705e-09
5.7724121e-07
-9.1301688e-09
5.7807939e-07
-1.0560214e-08
5.7915862e-07
-1.2075374e-08
5.8054294e-07
-1.3684145e-08
5.8232115e-07
-1.5392284e-08
5.8461841e-07
-1.7199407e-08
5.8760835e-07
-1.9097437e-08
5.9154198e-07
-2.1130817e-08
5.9692773e-07
-2.3559667e-08
6.0567889e-07
-2.6051044e-08
6.2198732e-07
-2.3880233e-08
6.3344725e-07
-1.1144796e-08
5.554872e-07
2.489935e-07
7.5862839e-09
1.9009976e-07
2.2805202e-08
5.1320458e-07
2.8859234e-08
6.4189157e-07
2.7352636e-08
6.4149113e-07
2.4778803e-08
6.1941709e-07
2.2637719e-08
6.0653797e-07
2.0634541e-08
5.993025e-07
1.8659654e-08
5.9417292e-07
1.6740741e-08
5.9021856e-07
1.4900826e-08
5.8713022e-07
1.3148322e-08
5.8470035e-07
1.1484079e-08
5.8277381e-07
9.9041224e-09
5.81239e-07
8.4016036e-09
5.8001466e-07
6.9680143e-09
5.7904058e-07
5.5939833e-09
5.7827195e-07
4.2697934e-09
5.7767543e-07
2.9856775e-09
5.7722644e-07
1.7319725e-09
5.7690736e-07
4.9918786e-10
5.7670627e-07
-7.2197751e-10
5.7661609e-07
-1.9406454e-09
5.766342e-07
-3.165766e-09
5.7676231e-07
-4.4061013e-09
5.7700654e-07
-5.6701558e-09
5.7737793e-07
-6.9660161e-09
5.7789323e-07
-8.3010581e-09
5.7857625e-07
-9.6814368e-09
5.7945978e-07
-1.1111288e-08
5.8058848e-07
-1.2591543e-08
5.820232e-07
-1.4117885e-08
5.838475e-07
-1.5678297e-08
5.8617883e-07
-1.7248083e-08
5.8917815e-07
-1.8787852e-08
5.9308175e-07
-2.0303581e-08
5.9844347e-07
-2.1883195e-08
6.0725851e-07
-2.2696547e-08
6.2280068e-07
-1.8497985e-08
6.2924869e-07
-6.5743612e-09
5.4356359e-07
2.4241915e-07
4.5349342e-09
1.8719531e-07
1.7537288e-08
5.0191137e-07
2.499697e-08
6.348794e-07
2.5442247e-08
6.4100156e-07
2.3897257e-08
6.2091892e-07
2.231905e-08
6.081088e-07
2.070192e-08
6.0091969e-07
1.8990392e-08
5.9588465e-07
1.7240595e-08
5.9196839e-07
1.5499934e-08
5.8887089e-07
1.379504e-08
5.8640525e-07
1.2139939e-08
5.8442891e-07
1.0540454e-08
5.8283849e-07
8.9971138e-09
5.8155801e-07
7.5069819e-09
5.8053072e-07
6.0649283e-09
5.7971401e-07
4.6644971e-09
5.7907587e-07
3.2984663e-09
5.7859248e-07
1.9592146e-09
5.7824662e-07
6.3895949e-10
5.7802653e-07
-6.7008894e-10
5.7792515e-07
-1.9756037e-09
5.7793972e-07
-3.2850193e-09
5.7807173e-07
-4.6053906e-09
5.7832692e-07
-5.9431779e-09
5.7871572e-07
-7.3039149e-09
5.7925397e-07
-8.6916979e-09
5.7996404e-07
-1.0108401e-08
5.8087649e-07
-1.1552487e-08
5.8203257e-07
-1.3017329e-08
5.8348805e-07
-1.4488423e-08
5.853186e-07
-1.593954e-08
5.8762996e-07
-1.7327004e-08
5.9056562e-07
-1.8585521e-08
5.9434027e-07
-1.9672313e-08
5.9953027e-07
-2.0465023e-08
6.0805123e-07
-1.9692449e-08
6.2202811e-07
-1.3893647e-08
6.234499e-07
-3.1552529e-09
5.328252e-07
2.392639e-07
2.4717231e-09
1.8624748e-07
1.3305621e-08
4.9306274e-07
2.1784219e-08
6.2697263e-07
2.4027223e-08
6.3870073e-07
2.3500991e-08
6.2137882e-07
2.2438768e-08
6.0915786e-07
2.1149409e-08
6.0220907e-07
1.9660747e-08
5.9737373e-07
1.8055143e-08
5.9357406e-07
1.639913e-08
5.905269e-07
1.4734175e-08
5.8807022e-07
1.3084977e-08
5.8607812e-07
1.1465369e-08
5.8445811e-07
9.8820272e-09
5.8314136e-07
8.3367781e-09
5.8207598e-07
6.8282395e-09
5.8122256e-07
5.3529338e-09
5.8055118e-07
3.9060464e-09
5.8003937e-07
2.4819507e-09
5.7967072e-07
1.0745776e-09
5.7943391e-07
-3.2232127e-10
5.7932205e-07
-1.7149466e-09
5.7933235e-07
-3.109223e-09
5.7946601e-07
-4.5105662e-09
5.7972827e-07
-5.9235548e-09
5.8012872e-07
-7.3514898e-09
5.8068192e-07
-8.7957281e-09
5.8140829e-07
-1.0254737e-08
5.823355e-07
-1.1722657e-08
5.835005e-07
-1.3187293e-08
5.8495269e-07
-1.4626916e-08
5.8675823e-07
-1.6005275e-08
5.8900832e-07
-1.7266009e-08
5.9182636e-07
-1.8325243e-08
5.9539952e-07
-1.9081947e-08
6.0028698e-07
-1.9198667e-08
6.0816796e-07
-1.7081197e-08
6.1991065e-07
-1.0180659e-08
6.1654937e-07
-9.9125919e-10
5.2363581e-07
2.3827265e-07
1.2710395e-09
1.863557e-07
1.0084895e-08
4.8632967e-07
1.9160255e-08
6.1852487e-07
2.2916869e-08
6.3485596e-07
2.3351174e-08
6.2084921e-07
2.2763994e-08
6.0972483e-07
2.1760437e-08
6.0321275e-07
2.0471922e-08
5.98663e-07
1.9003644e-08
5.9504245e-07
1.7435513e-08
5.9209504e-07
1.5820068e-08
5.8968566e-07
1.4190157e-08
5.8770803e-07
1.2565927e-08
5.8608235e-07
1.0959061e-08
5.8474823e-07
9.3754397e-09
5.836596e-07
7.817006e-09
5.82781e-07
6.2830461e-09
5.8208515e-07
4.7710771e-09
5.8155135e-07
3.2774837e-09
5.8116432e-07
1.7979804e-09
5.8091342e-07
3.2796099e-10
5.8079208e-07
-1.1371979e-09
5.8079752e-07
-2.6018326e-09
5.8093065e-07
-4.0696858e-09
5.8119613e-07
-5.5434985e-09
5.8160253e-07
-7.0245055e-09
5.8216293e-07
-8.5116752e-09
5.8289546e-07
-1.0000687e-08
5.8382452e-07
-1.148238e-08
5.849822e-07
-1.294055e-08
5.8641087e-07
-1.4348652e-08
5.8816634e-07
-1.5664108e-08
5.9032378e-07
-1.6822963e-08
5.9298522e-07
-1.7729548e-08
5.9630611e-07
-1.822248e-08
6.0077992e-07
-1.7784438e-08
6.0772992e-07
-1.469095e-08
6.1681717e-07
-7.2815679e-09
6.0913999e-07
1.9941092e-10
5.1615484e-07
2.3847207e-07
7.4181664e-10
1.868769e-07
7.7638595e-09
4.8131539e-07
1.6882373e-08
6.1002152e-07
2.1710912e-08
6.2990552e-07
2.2984489e-08
6.1945465e-07
2.2844968e-08
6.0983754e-07
2.2118075e-08
6.0393985e-07
2.1037276e-08
5.9974491e-07
1.9726572e-08
5.9635332e-07
1.82744e-08
5.9354721e-07
1.6740896e-08
5.9121917e-07
1.5164974e-08
5.8928396e-07
1.3571799e-08
5.8767553e-07
1.1977249e-08
5.8634279e-07
1.0390782e-08
5.8524608e-07
8.8174284e-09
5.8435436e-07
7.2591583e-09
5.8364342e-07
5.715851e-09
5.8309466e-07
4.1860049e-09
5.8269417e-07
2.6672675e-09
5.8243216e-07
1.1568503e-09
5.823025e-07
-3.4810776e-10
5.8230248e-07
-1.8501797e-09
5.8243273e-07
-3.3512811e-09
5.8269723e-07
-4.8522213e-09
5.8310348e-07
-6.3521373e-09
5.8366285e-07
-7.8476999e-09
5.8439103e-07
-9.3320508e-09
5.8530888e-07
-1.0793238e-08
5.8644339e-07
-1.2211928e-08
5.8782956e-07
-1.3558187e-08
5.8951261e-07
-1.4785647e-08
5.9155125e-07
-1.5825766e-08
5.9402534e-07
-1.6575865e-08
5.9705621e-07
-1.6826224e-08
6.0103028e-07
-1.595267e-08
6.0685638e-07
-1.2330947e-08
6.1319545e-07
-5.106587e-09
6.0191564e-07
5.9724868e-10
5.1045102e-07
2.3906933e-07
6.7461354e-10
1.8739968e-07
6.1831569e-09
4.7764842e-07
1.4714626e-08
6.0205842e-07
2.0056518e-08
6.2442507e-07
2.1975363e-08
6.1740314e-07
2.2257208e-08
6.0952509e-07
2.182368e-08
6.0437346e-07
2.098169e-08
6.0058822e-07
1.9868793e-08
5.9746643e-07
1.8578274e-08
5.9483773e-07
1.7174994e-08
5.9262245e-07
1.570239e-08
5.9075657e-07
1.4189747e-08
5.8918818e-07
1.2656622e-08
5.8787592e-07
1.1115789e-08
5.8678692e-07
9.5752647e-09
5.8589489e-07
8.0397121e-09
5.8517898e-07
6.5114605e-09
5.8462292e-07
4.9912606e-09
5.8421438e-07
3.478865e-09
5.8394457e-07
1.9734959e-09
5.8380787e-07
4.7425916e-10
5.8380173e-07
-1.019456e-09
5.8392645e-07
-2.5075559e-09
5.8418534e-07
-3.9887524e-09
5.8458468e-07
-5.4599605e-09
5.8513407e-07
-6.9154982e-09
5.8584658e-07
-8.3459983e-09
5.8673938e-07
-9.7368923e-09
5.8783429e-07
-1.1066138e-08
5.8915882e-07
-1.2301132e-08
5.9074761e-07
-1.3393317e-08
5.9264344e-07
-1.4271546e-08
5.9490358e-07
-1.4829868e-08
5.9761454e-07
-1.4836033e-08
6.0103646e-07
-1.3652997e-08
6.0567335e-07
-9.9473479e-09
6.0948981e-07
-3.527311e-09
5.9549561e-07
5.493588e-10
5.0637436e-07
2.396187e-07
8.3989446e-10
1.8773415e-07
5.1545889e-09
4.7500304e-07
1.2568812e-08
5.9517126e-07
1.7858689e-08
6.1901008e-07
2.0172471e-08
6.1496408e-07
2.0827318e-08
6.0884003e-07
2.0702588e-08
6.0449796e-07
2.013128e-08
6.0116081e-07
1.9256695e-08
5.9834124e-07
1.8173486e-08
5.9592094e-07
1.6948665e-08
5.9384727e-07
1.5628801e-08
5.9207644e-07
1.4246486e-08
5.905705e-07
1.2824492e-08
5.8929792e-07
1.1378659e-08
5.8823275e-07
9.9198733e-09
5.8735368e-07
8.4554655e-09
5.8664339e-07
6.9902502e-09
5.8608814e-07
5.527308e-09
5.8567733e-07
4.0686016e-09
5.8540328e-07
2.6154846e-09
5.85261e-07
1.1691556e-09
5.8524806e-07
-2.6891089e-10
5.8536453e-07
-1.6964927e-09
5.8561293e-07
-3.1101288e-09
5.8599832e-07
-4.5044552e-09
5.865284e-07
-5.8714391e-09
5.8721357e-07
-7.1992855e-09
5.8806723e-07
-8.471004e-09
5.8910602e-07
-9.6622676e-09
5.9035009e-07
-1.07385e-08
5.9182384e-07
-1.165036e-08
5.9355531e-07
-1.2326579e-08
5.9557981e-07
-1.2662414e-08
5.9795039e-07
-1.243347e-08
6.0080752e-07
-1.1075367e-08
6.0431525e-07
-7.6403997e-09
6.0605485e-07
-2.4128025e-09
5.9026802e-07
3.4571724e-10
5.0361584e-07
2.3996443e-07
1.0536928e-09
1.8785529e-07
4.4983671e-09
4.7310257e-07
1.0519599e-08
5.8966181e-07
1.5310303e-08
6.141352e-07
1.7756218e-08
6.1241601e-07
1.8699507e-08
6.0787071e-07
1.8869792e-08
6.0432709e-07
1.8577444e-08
6.014542e-07
1.7961107e-08
5.9895777e-07
1.7112529e-08
5.9676952e-07
1.6098106e-08
5.948617e-07
1.4965802e-08
5.9320875e-07
1.3750396e-08
5.9178591e-07
1.2477175e-08
5.9057115e-07
1.1164582e-08
5.8954535e-07
9.8260651e-09
5.886922e-07
8.4714287e-09
5.8799804e-07
7.1078492e-09
5.8745172e-07
5.740664e-09
5.8704452e-07
4.3740049e-09
5.8676994e-07
3.0113311e-09
5.8662368e-07
1.6559115e-09
5.8660349e-07
3.1127711e-10
5.8670917e-07
-1.018284e-09
5.8694249e-07
-2.32721e-09
5.8730726e-07
-3.6080204e-09
5.8780921e-07
-4.8505522e-09
5.884561e-07
-6.0409268e-09
5.8925762e-07
-7.1602334e-09
5.9022533e-07
-8.1826419e-09
5.913725e-07
-9.0727905e-09
5.92714e-07
-9.7823273e-09
5.9426485e-07
-1.0243349e-08
5.9604083e-07
-1.035823e-08
5.9806527e-07
-9.9349558e-09
6.0038425e-07
-8.5353848e-09
6.0291569e-07
-5.5891322e-09
6.0310861e-07
-1.6535478e-09
5.8633245e-07
1.4812033e-10
5.0181418e-07
2.4011255e-07
1.2198656e-09
1.8781829e-07
4.073913e-09
4.7172486e-07
8.7166015e-09
5.8553851e-07
1.2755493e-08
6.1006597e-07
1.510947e-08
6.0998988e-07
1.6227587e-08
6.0673273e-07
1.6639829e-08
6.0391402e-07
1.6599642e-08
6.014951e-07
1.6230261e-08
5.9932731e-07
1.5615627e-08
5.9738416e-07
1.4818427e-08
5.956589e-07
1.3885797e-08
5.9414139e-07
1.2853155e-08
5.9281856e-07
1.174722e-08
5.9167709e-07
1.0588253e-08
5.9070432e-07
9.3916933e-09
5.8988877e-07
8.1693835e-09
5.8922035e-07
6.9305326e-09
5.8869058e-07
5.6824721e-09
5.8829258e-07
4.4312838e-09
5.8802114e-07
3.1823356e-09
5.8787263e-07
1.9407721e-09
5.8784506e-07
7.1197642e-10
5.8793797e-07
-4.9793708e-10
5.8815241e-07
-1.6816127e-09
5.8849094e-07
-2.8298164e-09
5.8895742e-07
-3.9307425e-09
5.8955704e-07
-4.9690777e-09
5.9029596e-07
-5.9248535e-09
5.9118111e-07
-6.7719139e-09
5.9221957e-07
-7.4757849e-09
5.9341788e-07
-7.9912649e-09
5.9478034e-07
-8.2575799e-09
5.9630716e-07
-8.1903306e-09
5.9799803e-07
-7.6426373e-09
5.9983656e-07
-6.3164644e-09
6.0158952e-07
-3.938661e-09
6.0073081e-07
-1.1533798e-09
5.8354717e-07
9.3131569e-12
5.006515e-07
2.4012187e-07
1.310301e-09
1.8769797e-07
3.785457e-09
4.7069935e-07
7.2746296e-09
5.8258481e-07
1.0505434e-08
6.068553e-07
1.2617497e-08
6.0783385e-07
1.3791794e-08
6.0554477e-07
1.4365338e-08
6.0333961e-07
1.4521349e-08
6.013395e-07
1.4359791e-08
5.9948897e-07
1.3952479e-08
5.9779148e-07
1.335543e-08
5.9625595e-07
1.2612582e-08
5.9488424e-07
1.1758211e-08
5.9367293e-07
1.0819123e-08
5.9261618e-07
9.816371e-09
5.9170708e-07
8.7665837e-09
5.9093856e-07
7.6830162e-09
5.9030392e-07
6.5763987e-09
5.897972e-07
5.4556318e-09
5.8941336e-07
4.3283759e-09
5.891484e-07
3.201566e-09
5.8899945e-07
2.0818863e-09
5.8896474e-07
9.7622237e-10
5.8904364e-07
-1.078753e-10
5.8923652e-07
-1.161689e-09
5.8954476e-07
-2.1747875e-09
5.8997053e-07
-3.1343806e-09
5.9051664e-07
-4.0245521e-09
5.9118613e-07
-4.8253317e-09
5.919819e-07
-5.511569e-09
5.9290581e-07
-6.0514276e-09
5.9395774e-07
-6.4049223e-09
5.9513384e-07
-6.5212508e-09
5.9642349e-07
-6.3334206e-09
5.9781021e-07
-5.7404894e-09
5.9924364e-07
-4.5665555e-09
6.004156e-07
-2.7306717e-09
5.9889493e-07
-8.2661885e-10
5.8164313e-07
-5.8674835e-11
4.9988356e-07
2.4006321e-07
1.3381326e-09
1.875535e-07
3.575467e-09
4.6990492e-07
6.2169843e-09
5.8049115e-07
8.7235042e-09
6.0440607e-07
1.052531e-08
6.0600947e-07
1.1657787e-08
6.0440362e-07
1.2307141e-08
6.0268947e-07
1.2591037e-08
6.010558e-07
1.258325e-08
5.9949682e-07
1.2341003e-08
5.9803374e-07
1.1911507e-08
5.9668545e-07
1.1333547e-08
5.9546221e-07
1.0638632e-08
5.9436785e-07
9.8523277e-09
5.9340249e-07
8.9953989e-09
5.9256402e-07
8.0847891e-09
5.9184918e-07
7.1344466e-09
5.9125427e-07
6.1560227e-09
5.9077563e-07
5.1594715e-09
5.9040991e-07
4.153574e-09
5.901543e-07
3.1464071e-09
5.9000662e-07
2.14578e-09
5.8996537e-07
1.1596551e-09
5.9002977e-07
1.965654e-10
5.9019961e-07
-7.3393283e-10
5.9047526e-07
-1.6207919e-09
5.9085739e-07
-2.4509384e-09
5.9134679e-07
-3.2086851e-09
5.9194389e-07
-3.8750555e-09
5.9264827e-07
-4.4270627e-09
5.9345783e-07
-4.8368542e-09
5.9436754e-07
-5.0710477e-09
5.9536804e-07
-5.0899822e-09
5.9644243e-07
-4.8450372e-09
5.9756527e-07
-4.2739432e-09
5.9867255e-07
-3.2891748e-09
5.9943083e-07
-1.9091337e-09
5.975149e-07
-6.0694727e-10
5.8034095e-07
-6.41e-11
4.9934072e-07
2.3999911e-07
1.3302423e-09
1.8741772e-07
3.4126086e-09
4.6926402e-07
5.4861368e-09
5.7896981e-07
7.4164276e-09
6.0255509e-07
8.904863e-09
6.0451213e-07
9.9325427e-09
6.0337067e-07
1.0587163e-08
6.0203423e-07
1.0935465e-08
6.0070757e-07
1.1026892e-08
5.9940543e-07
1.0903919e-08
5.9815672e-07
1.0604104e-08
5.9698527e-07
1.0159949e-08
5.9590637e-07
9.5990655e-09
5.9492874e-07
8.9447274e-09
5.9405683e-07
8.2164929e-09
5.9329226e-07
7.430829e-09
5.9263485e-07
6.6016946e-09
5.9208341e-07
5.741072e-09
5.9163626e-07
4.8594485e-09
5.9129154e-07
3.9662547e-09
5.910475e-07
3.0702692e-09
5.9090261e-07
2.179999e-09
5.9085565e-07
1.3040502e-09
5.9090572e-07
4.514872e-10
5.9105218e-07
-3.6778516e-10
5.9129454e-07
-1.142645e-09
5.9163226e-07
-1.8603413e-09
5.9206449e-07
-2.5060895e-09
5.9258964e-07
-3.062645e-09
5.9320483e-07
-3.5099376e-09
5.9390512e-07
-3.8247729e-09
5.9468238e-07
-3.9807863e-09
5.9552406e-07
-3.9489716e-09
5.9641062e-07
-3.6971352e-09
5.9731344e-07
-3.1912659e-09
5.9816669e-07
-2.3978863e-09
5.9863746e-07
-1.3714782e-09
5.964885e-07
-4.5414241e-10
5.7942362e-07
-4.674453e-11
4.9893333e-07
2.3995238e-07
1.3094889e-09
1.8730198e-07
3.2805237e-09
4.687321e-07
4.9889061e-09
5.778115e-07
6.4939558e-09
6.0113972e-07
7.7042358e-09
6.0330048e-07
8.5991973e-09
6.024725e-07
9.2126062e-09
6.0142035e-07
9.577068e-09
6.0034313e-07
9.7225136e-09
5.9926e-07
9.6783881e-09
5.9820085e-07
9.4730073e-09
5.9719066e-07
9.1323826e-09
5.96247e-07
8.6797126e-09
5.9538142e-07
8.1353567e-09
5.946012e-07
7.5170335e-09
5.9391059e-07
6.8401332e-09
5.9331175e-07
6.118074e-09
5.9280548e-07
5.3626666e-09
5.9239167e-07
4.5844727e-09
5.9206974e-07
3.7931481e-09
5.9183883e-07
2.9977714e-09
5.9169799e-07
2.2071587e-09
5.9164627e-07
1.4301712e-09
5.9168272e-07
6.7601134e-10
5.9180635e-07
-4.5478032e-11
5.9201603e-07
-7.2352571e-10
5.9231031e-07
-1.3461482e-09
5.9268712e-07
-1.8999035e-09
5.931434e-07
-2.3696834e-09
5.9367462e-07
-2.7386226e-09
5.9427407e-07
-2.9881978e-09
5.9493196e-07
-3.0985973e-09
5.9563446e-07
-3.0498673e-09
5.963619e-07
-2.8226591e-09
5.9708624e-07
-2.4012633e-09
5.977453e-07
-1.7799122e-09
5.9801612e-07
-1.0153535e-09
5.9572394e-07
-3.4174931e-10
5.7875002e-07
-2.6189266e-11
4.9861778e-07
2.3992619e-07
1.2887079e-09
1.8720589e-07
3.1705421e-09
4.6828522e-07
4.6382441e-09
5.7688885e-07
5.8394816e-09
6.0003176e-07
6.8205873e-09
6.0232169e-07
7.5806555e-09
6.0171034e-07
8.1293853e-09
6.0087126e-07
8.4793418e-09
5.9999318e-07
8.6465983e-09
5.9909276e-07
8.6502582e-09
5.981972e-07
8.5106779e-09
5.9733025e-07
8.2478828e-09
5.965098e-07
7.8807018e-09
5.957486e-07
7.426377e-09
5.9505553e-07
6.900465e-09
5.944365e-07
6.3169076e-09
5.9389531e-07
5.6881993e-09
5.9343419e-07
5.0256035e-09
5.9305427e-07
4.3393948e-09
5.9275596e-07
3.6391081e-09
5.9253912e-07
2.9337895e-09
5.9240332e-07
2.2322419e-09
5.9234782e-07
1.543266e-09
5.923717e-07
8.758899e-10
5.9247373e-07
2.3959013e-10
5.9265234e-07
-3.5550794e-10
5.9290542e-07
-8.9845492e-10
5.9323007e-07
-1.3773619e-09
5.9362231e-07
-1.7793585e-09
5.9407662e-07
-2.0906891e-09
5.9458541e-07
-2.2970425e-09
5.9513832e-07
-2.3841436e-09
5.9572157e-07
-2.3390347e-09
5.963168e-07
-2.1513379e-09
5.9689854e-07
-1.8159149e-09
5.9740988e-07
-1.3383405e-09
5.9753855e-07
-7.6483479e-10
5.9515045e-07
-2.5437533e-10
5.7823957e-07
-1.0428336e-11
4.9837384e-07
2.3991577e-07
1.2722433e-09
1.8712525e-07
3.0777959e-09
4.6790972e-07
4.3734078e-09
5.7613316e-07
5.3555373e-09
5.9914365e-07
6.1544755e-09
6.015268e-07
6.7916075e-09
6.0107172e-07
7.2687397e-09
6.0039385e-07
7.5881117e-09
5.9967381e-07
7.756924e-09
5.9892395e-07
7.7867533e-09
5.9816738e-07
7.6916438e-09
5.9742536e-07
7.4865427e-09
5.967149e-07
7.1863265e-09
5.9604882e-07
6.8052373e-09
5.9543662e-07
6.3566069e-09
5.9488514e-07
5.8527637e-09
5.9439916e-07
5.3050576e-09
5.939819e-07
4.7239579e-09
5.9363538e-07
4.1191948e-09
5.9336072e-07
3.4999246e-09
5.931584e-07
2.8749067e-09
5.9302834e-07
2.2526835e-09
5.9297005e-07
1.641757e-09
5.9298263e-07
1.0507554e-09
5.9306474e-07
4.8858471e-10
5.9321452e-07
-3.5448216e-11
5.9342945e-07
-5.1154644e-10
5.9370617e-07
-9.2940413e-10
5.9404018e-07
-1.2782751e-09
5.944255e-07
-1.5471776e-09
5.9485431e-07
-1.7253188e-09
5.9531647e-07
-1.8027524e-09
5.9579901e-07
-1.7715288e-09
5.9628558e-07
-1.6269575e-09
5.9675398e-07
-1.3693243e-09
5.9715226e-07
-1.0072519e-09
5.9717648e-07
-5.7493844e-10
5.9471814e-07
-1.8398514e-10
5.7784862e-07
2.9170034e-13
4.9818957e-07
2.3991607e-07
1.2599368e-09
1.8705617e-07
2.9992686e-09
4.6759583e-07
4.1603747e-09
5.7550788e-07
4.9781944e-09
5.9841989e-07
5.6333016e-09
6.0087667e-07
6.1644351e-09
6.0053943e-07
6.5724208e-09
5.9998564e-07
6.8548946e-09
5.9939133e-07
7.0138653e-09
5.9876499e-07
7.0557978e-09
5.9812545e-07
6.9900347e-09
5.9749113e-07
6.8274696e-09
5.9687747e-07
6.5796245e-09
5.9629668e-07
6.2580502e-09
5.957582e-07
5.8739679e-09
5.9526923e-07
5.4380814e-09
5.9483505e-07
4.9605068e-09
5.9445948e-07
4.4507823e-09
5.9414511e-07
3.9179303e-09
5.9389358e-07
3.3705522e-09
5.9370578e-07
2.8169411e-09
5.9358196e-07
2.265202e-09
5.9352179e-07
1.7233723e-09
5.9352446e-07
1.1995313e-09
5.9358858e-07
7.0189358e-10
5.9371216e-07
2.3887105e-10
5.9389248e-07
-1.8090357e-10
5.9412595e-07
-5.4862007e-10
5.944079e-07
-8.5542425e-10
5.9473231e-07
-1.0926682e-09
5.9509156e-07
-1.2523411e-09
5.9547615e-07
-1.32769e-09
5.9587437e-07
-1.3141389e-09
5.9627203e-07
-1.2103116e-09
5.9665016e-07
-1.0189125e-09
5.9696086e-07
-7.483137e-10
5.9690589e-07
-4.2337238e-10
5.943932e-07
-1.2675866e-10
5.7755201e-07
6.835934e-12
4.9805598e-07
2.3992291e-07
1.2503565e-09
1.8699613e-07
2.932799e-09
4.6733495e-07
3.9830021e-09
5.7499056e-07
4.6718366e-09
5.9782525e-07
5.2120794e-09
6.0034207e-07
5.6539003e-09
6.0009669e-07
5.9992078e-09
5.9964013e-07
6.2439608e-09
5.9914657e-07
6.3873708e-09
5.9862159e-07
6.4326121e-09
5.9808021e-07
6.3856823e-09
5.9753806e-07
6.2543744e-09
5.9700879e-07
6.0474878e-09