/*--------------------------------*- C++ -*----------------------------------*\
  =========                 |
  \\      /  F ield         | OpenFOAM: The Open Source CFD Toolbox
   \\    /   O peration     | Website:  https://openfoam.org
    \\  /    A nd           | Version:  10
     \\/     M anipulation  |
\*---------------------------------------------------------------------------*/
FoamFile
{
    format      ascii;
    class       volVectorField;
    location    "0.03";
    object      U;
}
// * * * * * * * * * * * * * * * * * * * * * * * * * * * * * * * * * * * * * //

dimensions      [0 1 -1 0 0 0 0];

internalField   nonuniform List<vector> 
4000
(
(0 0.018518356 0.47778772)
(0 0.023299484 0.50882432)
(0 0.0079931238 0.50052959)
(0 0.0054565711 0.50033878)
(0 0.0040976315 0.50025612)
(0 0.0031057721 0.50016683)
(0 0.0024183337 0.50011736)
(0 0.0019290348 0.50008768)
(0 0.0015633383 0.50006734)
(0 0.0012810886 0.50005298)
(0 0.0010576909 0.50004267)
(0 0.00087670608 0.5000351)
(0 0.00072686307 0.50002947)
(0 0.00060021695 0.50002523)
(0 0.00049099996 0.50002203)
(0 0.00039491104 0.50001961)
(0 0.00030865442 0.50001781)
(0 0.00022962718 0.50001651)
(0 0.00015570069 0.50001562)
(0 8.5060486e-05 0.5000151)
(0 1.6082687e-05 0.50001491)
(0 -5.2771535e-05 0.50001505)
(0 -0.00012304961 0.50001553)
(0 -0.0001964015 0.50001637)
(0 -0.00027468971 0.50001765)
(0 -0.00036012352 0.50001945)
(0 -0.00045543539 0.5000219)
(0 -0.00056412777 0.50002518)
(0 -0.0006908333 0.50002958)
(0 -0.00084186294 0.50003552)
(0 -0.0010260862 0.50004361)
(0 -0.0012563486 0.50005486)
(0 -0.0015517787 0.50007077)
(0 -0.0019433125 0.5000939)
(0 -0.0024879731 0.50013196)
(0 -0.0032713219 0.50020065)
(0 -0.0043624453 0.50027404)
(0 -0.0063754609 0.50043934)
(0 -0.017419997 0.50671431)
(0 -0.013459762 0.47982397)
(0 0.037082193 0.44836403)
(0 0.050286498 0.53224209)
(0 0.02137202 0.50801802)
(0 0.015617498 0.503579)
(0 0.011904861 0.50240681)
(0 0.0090374993 0.50159932)
(0 0.0070826236 0.50113116)
(0 0.0056729059 0.50083973)
(0 0.0046082752 0.50064205)
(0 0.0037832581 0.50050395)
(0 0.0031282598 0.50040515)
(0 0.0025961329 0.50033289)
(0 0.0021545361 0.5002792)
(0 0.001780546 0.50023889)
(0 0.0014574463 0.50020847)
(0 0.0011727369 0.50018554)
(0 0.00091681809 0.50016847)
(0 0.00068209525 0.50015611)
(0 0.00046234899 0.50014769)
(0 0.0002522729 0.50014271)
(0 4.7115114e-05 0.5001409)
(0 -0.00015762541 0.50014218)
(0 -0.00036647342 0.50014666)
(0 -0.00058425138 0.50015466)
(0 -0.00081639769 0.50016671)
(0 -0.0010693545 0.50018367)
(0 -0.0013510757 0.5002068)
(0 -0.0016717366 0.50023793)
(0 -0.0020447615 0.50027975)
(0 -0.0024883643 0.50033628)
(0 -0.0030280055 0.50041363)
(0 -0.0037005073 0.50052159)
(0 -0.0045600474 0.5006758)
(0 -0.0056882845 0.5009025)
(0 -0.0072362972 0.50126378)
(0 -0.0094884229 0.5018902)
(0 -0.012461043 0.50283335)
(0 -0.016719992 0.50606906)
(0 -0.037990737 0.52516982)
(0 -0.027496508 0.45070805)
(0 0.039324292 0.41093277)
(0 0.060219865 0.54932023)
(0 0.030819428 0.5217375)
(0 0.023403138 0.51005547)
(0 0.018270308 0.50653131)
(0 0.014124156 0.50445175)
(0 0.011233541 0.50319072)
(0 0.0090760575 0.50237672)
(0 0.0074158736 0.50182125)
(0 0.0061157916 0.50143238)
(0 0.0050747505 0.50115329)
(0 0.0042231714 0.50094876)
(0 0.003512566 0.50079662)
(0 0.0029079633 0.50068228)
(0 0.002383571 0.50059593)
(0 0.0019199423 0.50053082)
(0 0.0015020406 0.5004823)
(0 0.001117904 0.50044714)
(0 0.00075769419 0.50042316)
(0 0.00041298889 0.50040895)
(0 7.6230737e-05 0.50040374)
(0 -0.00025974328 0.5004073)
(0 -0.0006021299 0.50041994)
(0 -0.00095858411 0.50044255)
(0 -0.0013377118 0.50047666)
(0 -0.0017496637 0.50052467)
(0 -0.0022069062 0.50059013)
(0 -0.0027252826 0.50067823)
(0 -0.0033255297 0.50079654)
(0 -0.0040354799 0.5009563)
(0 -0.0048933869 0.50117458)
(0 -0.0059536291 0.50147835)
(0 -0.0072948875 0.50191123)
(0 -0.0090241581 0.50254375)
(0 -0.011316184 0.50351736)
(0 -0.014571459 0.50512889)
(0 -0.018694612 0.50783723)
(0 -0.023827046 0.51629592)
(0 -0.046006817 0.53911589)
(0 -0.030175559 0.41625396)
(0 0.034054816 0.36400099)
(0 0.062015907 0.55494777)
(0 0.037462725 0.53710409)
(0 0.028586099 0.5183506)
(0 0.022707791 0.51183512)
(0 0.017998355 0.50832631)
(0 0.014587067 0.50608456)
(0 0.011928817 0.5045771)
(0 0.0098361133 0.50353277)
(0 0.008170061 0.50279382)
(0 0.0068171286 0.50225894)
(0 0.0056981505 0.5018647)
(0 0.0047560343 0.50157021)
(0 0.0039484171 0.50134819)
(0 0.0032434883 0.50118007)
(0 0.0026169146 0.50105305)
(0 0.0020496531 0.50095822)
(0 0.0015264066 0.50088939)
(0 0.0010344951 0.50084235)
(0 0.00056299887 0.50081439)
(0 0.00010208216 0.50080401)
(0 -0.00035759209 0.50081077)
(0 -0.00082539677 0.50083527)
(0 -0.0013112651 0.50087918)
(0 -0.0018263016 0.50094549)
(0 -0.0023835052 0.50103877)
(0 -0.0029986897 0.50116581)
(0 -0.00369172 0.50133646)
(0 -0.0044882346 0.50156505)
(0 -0.005422054 0.50187264)
(0 -0.006538425 0.50229072)
(0 -0.0078994388 0.50286785)
(0 -0.0095935979 0.50368155)
(0 -0.011731231 0.50485262)
(0 -0.014448784 0.50658547)
(0 -0.018163978 0.50929403)
(0 -0.022896089 0.51414815)
(0 -0.028878871 0.52790241)
(0 -0.048132555 0.54442978)
(0 -0.027481854 0.37518487)
(0 0.026552279 0.31867075)
(0 0.059827785 0.5513991)
(0 0.041755858 0.55081055)
(0 0.031793151 0.5270787)
(0 0.025498563 0.51742147)
(0 0.020689158 0.51259083)
(0 0.017070274 0.50939675)
(0 0.014144373 0.50716752)
(0 0.011792364 0.50559218)
(0 0.0098828314 0.50445951)
(0 0.0083051089 0.50362953)
(0 0.0069818505 0.50301238)
(0 0.0058545697 0.50254829)
(0 0.0048784835 0.50219653)
(0 0.0040192288 0.50192904)
(0 0.003249999 0.50172625)
(0 0.0025494671 0.5015744)
(0 0.001900269 0.50146389)
(0 0.0012878502 0.50138816)
(0 0.000699571 0.50134296)
(0 0.00012398253 0.50132592)
(0 -0.0004498078 0.50133636)
(0 -0.0010327209 0.50137518)
(0 -0.0016362703 0.501445)
(0 -0.0022732245 0.50155043)
(0 -0.0029583693 0.50169859)
(0 -0.0037094547 0.50189993)
(0 -0.0045484248 0.50216951)
(0 -0.0055030688 0.50252902)
(0 -0.0066092885 0.50300993)
(0 -0.0079137541 0.50365838)
(0 -0.0094776152 0.50454328)
(0 -0.011387396 0.50577157)
(0 -0.013750727 0.50750546)
(0 -0.016655178 0.50998231)
(0 -0.020476239 0.51369065)
(0 -0.025522634 0.52074712)
(0 -0.032350299 0.53862514)
(0 -0.047386926 0.54270177)
(0 -0.022856225 0.33535987)
(0 0.018850333 0.28094288)
(0 0.054802185 0.54219702)
(0 0.043388065 0.5616197)
(0 0.033423914 0.53571398)
(0 0.027023279 0.52292709)
(0 0.02237113 0.51683812)
(0 0.018753827 0.5128025)
(0 0.015746144 0.50991168)
(0 0.01328324 0.50782848)
(0 0.01124213 0.50630515)
(0 0.0095243171 0.50517401)
(0 0.0080608536 0.50432424)
(0 0.0067968474 0.50367986)
(0 0.0056891888 0.50318814)
(0 0.0047040479 0.50281215)
(0 0.0038144236 0.50252578)
(0 0.002998414 0.50231052)
(0 0.0022378898 0.50215333)
(0 0.0015174433 0.50204521)
(0 0.00082354887 0.50198034)
(0 0.00014386861 0.50195545)
(0 -0.00053336874 0.50196956)
(0 -0.001219945 0.5020239)
(0 -0.0019282001 0.50212202)
(0 -0.0026716789 0.50227019)
(0 -0.0034658507 0.50247806)
(0 -0.0043289824 0.50275967)
(0 -0.0052832306 0.50313513)
(0 -0.006356039 0.503633)
(0 -0.0075820972 0.50429414)
(0 -0.0090055222 0.50517738)
(0 -0.010681463 0.50636807)
(0 -0.012687076 0.50799459)
(0 -0.015126454 0.5102491)
(0 -0.018052866 0.5133931)
(0 -0.02176854 0.51803589)
(0 -0.026845204 0.52731254)
(0 -0.033903591 0.54756753)
(0 -0.044397624 0.53646835)
(0 -0.017558572 0.30132647)
(0 0.011964499 0.25058832)
(0 0.047864411 0.52956713)
(0 0.042445758 0.56908951)
(0 0.033650051 0.54389172)
(0 0.027492999 0.52824882)
(0 0.023176111 0.52089009)
(0 0.01973231 0.51612239)
(0 0.016795798 0.51265844)
(0 0.014342464 0.51011989)
(0 0.01226447 0.50823599)
(0 0.010481794 0.50682003)
(0 0.0089371059 0.50574526)
(0 0.0075823178 0.50492301)
(0 0.0063789849 0.50429086)
(0 0.0052961934 0.50380446)
(0 0.0043086346 0.50343202)
(0 0.0033953299 0.50315077)
(0 0.0025385761 0.50294453)
(0 0.0017230767 0.50280208)
(0 0.00093522819 0.50271608)
(0 0.00016251652 0.50268239)
(0 -0.00060703635 0.50269974)
(0 -0.0013853939 0.50276963)
(0 -0.0021849852 0.50289648)
(0 -0.0030192819 0.50308805)
(0 -0.0039034105 0.50335624)
(0 -0.0048548806 0.5037183)
(0 -0.0058944674 0.50419868)
(0 -0.0070472653 0.50483173)
(0 -0.0083442202 0.50566596)
(0 -0.0098240943 0.50677028)
(0 -0.011533256 0.5082429)
(0 -0.013534048 0.51022771)
(0 -0.015920336 0.512938)
(0 -0.018721628 0.51666766)
(0 -0.022166858 0.52223757)
(0 -0.026972 0.53361663)
(0 -0.033427408 0.5542357)
(0 -0.039638279 0.52731345)
(0 -0.0122612 0.27326647)
(0 0.006458363 0.22629126)
(0 0.040083331 0.51500703)
(0 0.039539575 0.57314157)
(0 0.03268583 0.55108406)
(0 0.027073971 0.53321292)
(0 0.02321996 0.52462419)
(0 0.020093836 0.51923748)
(0 0.017353817 0.51530158)
(0 0.015007319 0.51237569)
(0 0.012970824 0.51017747)
(0 0.011186956 0.50850771)
(0 0.0096120036 0.50722799)
(0 0.0082071204 0.5062404)
(0 0.0069406865 0.50547534)
(0 0.0057864333 0.50488274)
(0 0.0047221936 0.50442636)
(0 0.0037291158 0.50407997)
(0 0.0027909138 0.50382477)
(0 0.0018932318 0.50364764)
(0 0.0010231009 0.50353994)
(0 0.00016847176 0.50349675)
(0 -0.00068223345 0.50351654)
(0 -0.0015405465 0.50360098)
(0 -0.0024183296 0.50375519)
(0 -0.003328239 0.50398816)
(0 -0.0042841859 0.50431359)
(0 -0.0053018697 0.50475128)
(0 -0.0063994083 0.50532905)
(0 -0.007598005 0.50608568)
(0 -0.0089228979 0.50707532)
(0 -0.01040512 0.50837428)
(0 -0.012080091 0.51009046)
(0 -0.013991276 0.51237874)
(0 -0.016212708 0.51546516)
(0 -0.018753039 0.51968436)
(0 -0.021792542 0.52613549)
(0 -0.026075158 0.53924371)
(0 -0.031261104 0.55833567)
(0 -0.033802988 0.51635133)
(0 -0.0074401521 0.25047353)
(0 0.0024298245 0.20759866)
(0 0.032284553 0.49988826)
(0 0.03539184 0.57410057)
(0 0.030819717 0.55684138)
(0 0.02597772 0.53759321)
(0 0.022665129 0.5279202)
(0 0.019951718 0.52204298)
(0 0.017494962 0.51775096)
(0 0.015326078 0.51452095)
(0 0.01339028 0.5120677)
(0 0.011654139 0.51018619)
(0 0.010088762 0.50873091)
(0 0.0086662987 0.50759829)
(0 0.0073633678 0.50671417)
(0 0.0061594922 0.50602464)
(0 0.0050366576 0.50549036)
(0 0.0039790011 0.50508262)
(0 0.0029723848 0.50478069)
(0 0.0020040253 0.50456998)
(0 0.0010621446 0.50444083)
(0 0.00013566695 0.5043877)
(0 -0.00078610143 0.50440878)
(0 -0.0017137711 0.50450587)
(0 -0.0026581228 0.50468454)
(0 -0.0036304269 0.50495462)
(0 -0.0046427268 0.5053311)
(0 -0.0057081425 0.50583547)
(0 -0.0068412147 0.50649778)
(0 -0.0080581749 0.50735966)
(0 -0.00937718 0.50847872)
(0 -0.010819665 0.50993565)
(0 -0.012408423 0.51184417)
(0 -0.014166181 0.51436495)
(0 -0.016140997 0.5177285)
(0 -0.018319701 0.52231533)
(0 -0.020856326 0.5295183)
(0 -0.024433031 0.54378368)
(0 -0.02793142 0.55990016)
(0 -0.027520478 0.50464271)
(0 -0.0033405715 0.23276919)
(0 -0.00027923295 0.19422243)
(0 0.024969061 0.48534642)
(0 0.030636892 0.57255796)
(0 0.028381345 0.560963)
(0 0.024469571 0.54122719)
(0 0.021743004 0.53069836)
(0 0.019482259 0.52446556)
(0 0.017350493 0.51994115)
(0 0.015397566 0.51650135)
(0 0.013596677 0.5138616)
(0 0.011937593 0.51181793)
(0 0.010406424 0.51022282)
(0 0.0089870469 0.5089708)
(0 0.0076648727 0.50798583)
(0 0.0064257534 0.50721218)
(0 0.0052563641 0.50660886)
(0 0.0041443099 0.50614574)
(0 0.0030780313 0.50580089)
(0 0.0020467065 0.5055588)
(0 0.0010401053 0.5054091)
(0 4.845777e-05 0.50534579)
(0 -0.00093773075 0.50536683)
(0 -0.0019278318 0.50547401)
(0 -0.0029312219 0.50567313)
(0 -0.0039574424 0.50597445)
(0 -0.0050162978 0.50639359)
(0 -0.0061179182 0.50695284)
(0 -0.0072727975 0.50768322)
(0 -0.0084916949 0.50862744)
(0 -0.0097851367 0.50984421)
(0 -0.011164116 0.51141523)
(0 -0.01263819 0.51345538)
(0 -0.014209462 0.51612495)
(0 -0.015898788 0.51965256)
(0 -0.017669233 0.52446937)
(0 -0.019647885 0.53222431)
(0 -0.022396808 0.54699022)
(0 -0.024004309 0.55921315)
(0 -0.02126777 0.49303865)
(0 -0.00011063302 0.22003311)
(0 -0.0018539687 0.18546287)
(0 0.018430995 0.47209653)
(0 0.025827063 0.56912966)
(0 0.025743504 0.56343549)
(0 0.022871211 0.54403689)
(0 0.020752357 0.53293668)
(0 0.018936991 0.52648274)
(0 0.017130824 0.52184712)
(0 0.015399052 0.51829373)
(0 0.013740102 0.51553855)
(0 0.012165598 0.51338489)
(0 0.010675869 0.51168821)
(0 0.0092661838 0.51034476)
(0 0.0079304559 0.50927922)
(0 0.0066607933 0.50843604)
(0 0.0054486092 0.50777402)
(0 0.0042850709 0.50726269)
(0 0.0031613267 0.5068797)
(0 0.0020686617 0.5066091)
(0 0.00099854516 0.50644017)
(0 -5.7339106e-05 0.50636662)
(0 -0.001107145 0.50638623)
(0 -0.0021588729 0.50650069)
(0 -0.0032203755 0.50671576)
(0 -0.0042993667 0.50704172)
(0 -0.0054033456 0.50749418)
(0 -0.0065394365 0.50809536)
(0 -0.0077141323 0.50887596)
(0 -0.008932885 0.50987801)
(0 -0.01019899 0.51115895)
(0 -0.011513431 0.51279812)
(0 -0.012873322 0.51490693)
(0 -0.0142617 0.51763901)
(0 -0.015674276 0.52121648)
(0 -0.017051964 0.52612336)
(0 -0.018468533 0.53417883)
(0 -0.020331767 0.5487685)
(0 -0.020040142 0.5566352)
(0 -0.01542525 0.48203721)
(0 0.0020923815 0.21175302)
(0 -0.0024661537 0.18033321)
(0 0.012849118 0.46049445)
(0 0.021417731 0.56430358)
(0 0.023276025 0.56431299)
(0 0.021517463 0.54599301)
(0 0.020004995 0.53465422)
(0 0.01859125 0.52811789)
(0 0.017080213 0.52348385)
(0 0.015548322 0.5199067)
(0 0.014016619 0.51710311)
(0 0.012516749 0.51488924)
(0 0.011061645 0.51312801)
(0 0.0096568148 0.51172055)
(0 0.0083037343 0.51059467)
(0 0.0070001989 0.50969673)
(0 0.0057420044 0.50898671)
(0 0.0045236649 0.50843474)
(0 0.003338928 0.50801873)
(0 0.002181142 0.50772282)
(0 0.0010434711 0.50753625)
(0 -8.0938667e-05 0.50745263)
(0 -0.0011988867 0.50746958)
(0 -0.002317011 0.50758861)
(0 -0.0034416775 0.50781526)
(0 -0.004578865 0.50815943)
(0 -0.0057339443 0.50863618)
(0 -0.0069113417 0.50926684)
(0 -0.0081140307 0.51008071)
(0 -0.0093428851 0.51111761)
(0 -0.010595152 0.51243164)
(0 -0.011863325 0.51409689)
(0 -0.013134199 0.5162172)
(0 -0.014374869 0.51893422)
(0 -0.015559454 0.52245888)
(0 -0.016614982 0.52732145)
(0 -0.017521951 0.53538757)
(0 -0.018500331 0.54912566)
(0 -0.016486134 0.55251151)
(0 -0.010301869 0.47190288)
(0 0.0031844472 0.20706696)
(0 -0.0023312971 0.1778188)
(0 0.00833645 0.45069021)
(0 0.017686913 0.55841285)
(0 0.021223244 0.56366099)
(0 0.020626223 0.5470891)
(0 0.019696216 0.53589111)
(0 0.018620845 0.52942237)
(0 0.017358627 0.52489131)
(0 0.015992755 0.52136875)
(0 0.014564903 0.51857561)
(0 0.013123564 0.51634557)
(0 0.011692 0.51455293)
(0 0.010284298 0.51310646)
(0 0.0089081829 0.511939)
(0 0.0075662847 0.51100031)
(0 0.006258196 0.51025263)
(0 0.0049813982 0.50966748)
(0 0.0037320093 0.50922367)
(0 0.0025053069 0.50890582)
(0 0.0012960782 0.50870343)
(0 9.8885855e-05 0.50861014)
(0 -0.0010917484 0.50862351)
(0 -0.0022811574 0.50874481)
(0 -0.0034743158 0.50897916)
(0 -0.0046756352 0.50933583)
(0 -0.0058886359 0.50982891)
(0 -0.0071154921 0.51047822)
(0 -0.0083563441 0.51131084)
(0 -0.0096084773 0.51236326)
(0 -0.01086464 0.51368468)
(0 -0.012110934 0.51534185)
(0 -0.013326659 0.51742782)
(0 -0.014467774 0.52006856)
(0 -0.01549028 0.52345844)
(0 -0.016319023 0.52815224)
(0 -0.016809184 0.53591901)
(0 -0.016946494 0.54816124)
(0 -0.013541343 0.54717876)
(0 -0.0061186864 0.4628581)
(0 0.0032756362 0.20494771)
(0 -0.0017300895 0.17700293)
(0 0.0049668151 0.44270527)
(0 0.014683581 0.55170818)
(0 0.019595623 0.5615772)
(0 0.020159115 0.54733747)
(0 0.019772982 0.53669344)
(0 0.018978722 0.53045438)
(0 0.017923245 0.52611328)
(0 0.016695478 0.52270954)
(0 0.015355965 0.51997585)
(0 0.013965316 0.51776673)
(0 0.012554673 0.51597116)
(0 0.011144875 0.51450765)
(0 0.0097485284 0.51331553)
(0 0.0083722131 0.51234909)
(0 0.0070187133 0.51157359)
(0 0.0056880996 0.5109626)
(0 0.0043786406 0.51049626)
(0 0.0030874268 0.51016002)
(0 0.0018108186 0.50994384)
(0 0.00054478338 0.50984159)
(0 -0.00071483688 0.50985077)
(0 -0.0019720799 0.5099724)
(0 -0.0032305815 0.5102111)
(0 -0.0044933 0.51057531)
(0 -0.0057621226 0.51107785)
(0 -0.0070373441 0.5117367)
(0 -0.0083168761 0.51257616)
(0 -0.009595301 0.51362868)
(0 -0.010862261 0.51493764)
(0 -0.012099515 0.51656117)
(0 -0.013281379 0.51857937)
(0 -0.014358176 0.52110069)
(0 -0.015270387 0.52429743)
(0 -0.015947995 0.52871084)
(0 -0.01611844 0.53587666)
(0 -0.015495298 0.54607995)
(0 -0.011132817 0.54101631)
(0 -0.0030091694 0.45516692)
(0 0.0026586037 0.20442931)
(0 -0.00096429312 0.17712366)
(0 0.0027521939 0.43643892)
(0 0.012277267 0.54448531)
(0 0.018180544 0.55825399)
(0 0.01980733 0.54678099)
(0 0.019921086 0.53709965)
(0 0.019379417 0.5312564)
(0 0.018511125 0.52717657)
(0 0.017415421 0.52394196)
(0 0.016169438 0.52130742)
(0 0.014840675 0.51915016)
(0 0.013466145 0.51737619)
(0 0.01207181 0.51591517)
(0 0.010674043 0.51471399)
(0 0.0092826857 0.51373214)
(0 0.0079032612 0.51293849)
(0 0.0065381764 0.51230907)
(0 0.00518773 0.51182567)
(0 0.0038507948 0.51147483)
(0 0.0025253321 0.51124715)
(0 0.0012087799 0.51113683)
(0 -0.00010162271 0.51114139)
(0 -0.0014085369 0.51126159)
(0 -0.0027142137 0.51150148)
(0 -0.0040201439 0.51186857)
(0 -0.0053266445 0.51237426)
(0 -0.0066322999 0.51303443)
(0 -0.0079331249 0.51387036)
(0 -0.0092215368 0.51491013)
(0 -0.010484927 0.5161908)
(0 -0.01170222 0.51776133)
(0 -0.012844203 0.51968779)
(0 -0.013860048 0.52206034)
(0 -0.014677156 0.52502462)
(0 -0.015228659 0.52906128)
(0 -0.015149148 0.53536938)
(0 -0.013896225 0.54318924)
(0 -0.0090470306 0.53448674)
(0 -0.0010116408 0.44896261)
(0 0.001742363 0.20472091)
(0 -0.00028288849 0.17760736)
(0 0.0015811177 0.43168734)
(0 0.010284268 0.53717579)
(0 0.016685086 0.55402475)
(0 0.019151561 0.54551432)
(0 0.019715428 0.53713456)
(0 0.019430254 0.53183979)
(0 0.018757925 0.52807899)
(0 0.01781433 0.52505297)
(0 0.01668972 0.52255027)
(0 0.015454207 0.52047171)
(0 0.014149372 0.51874153)
(0 0.012805066 0.51730137)
(0 0.01144074 0.51610625)
(0 0.01006909 0.51512135)
(0 0.0086981396 0.51431945)
(0 0.0073325371 0.51367936)
(0 0.005974605 0.51318475)
(0 0.0046250564 0.51282343)
(0 0.0032835532 0.51258679)
(0 0.0019491331 0.51246942)
(0 0.00062057361 0.51246894)
(0 -0.00070326253 0.51258583)
(0 -0.002023108 0.51282355)
(0 -0.0033388695 0.51318861)
(0 -0.0046492159 0.51369089)
(0 -0.0059509957 0.51434404)
(0 -0.0072383856 0.51516621)
(0 -0.0085018242 0.51618097)
(0 -0.0097267336 0.51741888)
(0 -0.010890061 0.51891965)
(0 -0.011959599 0.52073507)
(0 -0.012885688 0.52293647)
(0 -0.013586533 0.52563959)
(0 -0.01399057 0.52922362)
(0 -0.013698338 0.53450126)
(0 -0.012006185 0.53986588)
(0 -0.0071453147 0.52813891)
(0 3.5075503e-05 0.44422484)
(0 0.00093847998 0.2052639)
(0 0.00018553708 0.17808558)
(0 0.0012030405 0.42819899)
(0 0.0085770957 0.53030849)
(0 0.014918217 0.54934357)
(0 0.017898448 0.54369819)
(0 0.018845079 0.53681922)
(0 0.018832914 0.53218859)
(0 0.018381837 0.52879321)
(0 0.017625428 0.52600822)
(0 0.016662052 0.52366569)
(0 0.015561747 0.52169061)
(0 0.014369684 0.52002556)
(0 0.013118676 0.51862446)
(0 0.011830874 0.51745079)
(0 0.010521604 0.51647563)
(0 0.0092012843 0.51567595)
(0 0.0078767943 0.51503349)
(0 0.0065525227 0.51453399)
(0 0.0052311078 0.51416669)
(0 0.0039140235 0.51392384)
(0 0.0026020393 0.51380055)
(0 0.0012956117 0.51379451)
(0 -4.7272348e-06 0.51390597)
(0 -0.0012980486 0.51413776)
(0 -0.0025825463 0.51449533)
(0 -0.0038551255 0.51498698)
(0 -0.0051108068 0.51562408)
(0 -0.0063418798 0.51642154)
(0 -0.00753684 0.51739839)
(0 -0.0086791599 0.51857871)
(0 -0.0097442712 0.51999304)
(0 -0.010697391 0.52167936)
(0 -0.01149048 0.52368963)
(0 -0.012038365 0.52610814)
(0 -0.012259335 0.52919246)
(0 -0.011777955 0.53337931)
(0 -0.0098667752 0.53648982)
(0 -0.0053992014 0.52249814)
(0 0.00039485021 0.4408347)
(0 0.00039477407 0.20572497)
(0 0.0004378871 0.17838812)
(0 0.0012983057 0.42570671)
(0 0.0071163716 0.52435418)
(0 0.012894256 0.54469387)
(0 0.016031945 0.54154755)
(0 0.017265189 0.53619095)
(0 0.017525617 0.53228278)
(0 0.017314714 0.52928633)
(0 0.016775311 0.5267689)
(0 0.016007578 0.52461149)
(0 0.015079745 0.52276311)
(0 0.014039277 0.52118398)
(0 0.012921015 0.51984013)
(0 0.011749414 0.51870355)
(0 0.010542155 0.51775135)
(0 0.0093119104 0.51696479)
(0 0.0080677243 0.51632871)
(0 0.0068160339 0.51583106)
(0 0.0055614219 0.51546256)
(0 0.004307216 0.5152165)
(0 0.003055975 0.51508847)
(0 0.001809899 0.51507634)
(0 0.00057125176 0.51518011)
(0 -0.00065731295 0.51540195)
(0 -0.0018722364 0.51574623)
(0 -0.003068633 0.5162196)
(0 -0.0042397009 0.5168311)
(0 -0.0053758913 0.51759239)
(0 -0.0064639001 0.51851798)
(0 -0.0074854206 0.5196256)
(0 -0.0084148336 0.52093692)
(0 -0.0092158235 0.52247706)
(0 -0.0098418901 0.52427883)
(0 -0.01021109 0.52639552)
(0 -0.010233873 0.52896833)
(0 -0.0095984282 0.53211779)
(0 -0.0076762018 0.53336863)
(0 -0.0038716514 0.51790192)
(0 0.00035931664 0.43853904)
(0 0.0001007156 0.20600183)
(0 0.00053262696 0.17849362)
(0 0.0015730303 0.42394634)
(0 0.0059210785 0.51957521)
(0 0.01080327 0.54047349)
(0 0.013792298 0.53929259)
(0 0.015190422 0.53531742)
(0 0.015687189 0.53212532)
(0 0.015709404 0.52954316)
(0 0.015393913 0.52731146)
(0 0.014835932 0.52535903)
(0 0.014100057 0.52365758)
(0 0.013234058 0.52218338)
(0 0.012273583 0.52091394)
(0 0.011244676 0.51982956)
(0 0.010166855 0.51891328)
(0 0.0090547026 0.51815068)
(0 0.0079191828 0.51752977)
(0 0.006768611 0.51704077)
(0 0.0056093918 0.51667603)
(0 0.0044466163 0.51642984)
(0 0.0032845604 0.51629843)
(0 0.0021271037 0.5162798)
(0 0.0009781694 0.51637374)
(0 -0.0001579383 0.51658177)
(0 -0.0012760208 0.51690714)
(0 -0.0023695454 0.51735484)
(0 -0.0034300883 0.51793158)
(0 -0.0044465396 0.51864582)
(0 -0.0054042028 0.51950769)
(0 -0.0062835544 0.52052892)
(0 -0.0070586677 0.52172283)
(0 -0.0076934562 0.52310319)
(0 -0.0081435962 0.52468532)
(0 -0.0083360725 0.52649442)
(0 -0.0081823489 0.52857912)
(0 -0.0074502335 0.53083051)
(0 -0.0056781681 0.53069294)
(0 -0.0026460771 0.51443716)
(0 0.00018152305 0.43703458)
(0 -9.4501651e-06 0.20611769)
(0 0.00054012245 0.17845531)
(0 0.0018307105 0.42268976)
(0 0.0050117888 0.51598131)
(0 0.0088876928 0.53691726)
(0 0.011525758 0.53713161)
(0 0.012961504 0.53429321)
(0 0.013625023 0.53175492)
(0 0.013842193 0.52957963)
(0 0.013728759 0.52763944)
(0 0.013369068 0.52590375)
(0 0.012821744 0.52436382)
(0 0.012132397 0.52300964)
(0 0.011335945 0.5218291)
(0 0.010458928 0.52081012)
(0 0.0095218819 0.51994138)
(0 0.0085407027 0.51921267)
(0 0.0075278202 0.51861512)
(0 0.0064930711 0.51814124)
(0 0.0054443958 0.51778501)
(0 0.0043884089 0.51754181)
(0 0.0033308888 0.51740849)
(0 0.0022771946 0.51738324)
(0 0.0012326977 0.51746565)
(0 0.00020313303 0.5176566)
(0 -0.00080492789 0.51795827)
(0 -0.0017836234 0.51837401)
(0 -0.0027233005 0.51890831)
(0 -0.0036117951 0.51956656)
(0 -0.0044336758 0.52035485)
(0 -0.0051691115 0.52127948)
(0 -0.0057928992 0.52234645)
(0 -0.006271205 0.52355998)
(0 -0.0065634373 0.52492122)
(0 -0.0066091283 0.52643261)
(0 -0.0063307736 0.52808083)
(0 -0.0055724863 0.52961612)
(0 -0.0040467786 0.52853392)
(0 -0.0017592086 0.51198412)
(0 2.4914584e-05 0.43606063)
(0 -1.2834404e-05 0.20612564)
(0 0.00051642442 0.17834257)
(0 0.0019892709 0.42176302)
(0 0.0043722693 0.51339202)
(0 0.0073206579 0.53408606)
(0 0.0095210193 0.53519821)
(0 0.010887261 0.5332204)
(0 0.011633665 0.53123828)
(0 0.011986536 0.52944008)
(0 0.012031416 0.52778268)
(0 0.011837951 0.5262651)
(0 0.01145643 0.52489345)
(0 0.010927983 0.52366862)
(0 0.010285191 0.52258713)
(0 0.0095538047 0.52164353)
(0 0.0087543843 0.52083157)
(0 0.0079033723 0.52014493)
(0 0.0070140498 0.51957768)
(0 0.006097279 0.51912454)
(0 0.005162122 0.51878108)
(0 0.0042163599 0.51854377)
(0 0.0032669499 0.51841008)
(0 0.0023204229 0.51837843)
(0 0.001383287 0.51844823)
(0 0.00046237851 0.51861978)
(0 -0.00043472506 0.51889424)
(0 -0.0012992667 0.51927348)
(0 -0.002120873 0.51975992)
(0 -0.0028869556 0.52035622)
(0 -0.0035821149 0.5210649)
(0 -0.004187228 0.5218877)
(0 -0.0046789136 0.52282462)
(0 -0.0050272738 0.52387258)
(0 -0.0051972158 0.52502267)
(0 -0.0051420497 0.52626145)
(0 -0.0048017044 0.52754133)
(0 -0.0040821752 0.52854333)
(0 -0.0028351121 0.52686903)
(0 -0.001172834 0.51031078)
(0 -5.8441404e-05 0.43542119)
(0 1.270262e-05 0.20608417)
(0 0.00049302912 0.1782095)
(0 0.0020492147 0.42104657)
(0 0.0039485625 0.51154715)
(0 0.0061542969 0.53191121)
(0 0.0079224794 0.53355336)
(0 0.0091493823 0.5321858)
(0 0.0099026202 0.53065019)
(0 0.010327765 0.52918308)
(0 0.010478823 0.52778678)
(0 0.010409567 0.52647825)
(0 0.01016042 0.5252733)
(0 0.0097664222 0.52418055)
(0 0.0092565018 0.52320312)
(0 0.0086544458 0.5223409)
(0 0.0079798802 0.5215919)
(0 0.0072490045 0.52095318)
(0 0.0064752963 0.52042146)
(0 0.0056700951 0.51999347)
(0 0.0048431148 0.51966626)
(0 0.0040028901 0.51943734)
(0 0.003157179 0.51930479)
(0 0.0023133249 0.51926726)
(0 0.0014786145 0.51932404)
(0 0.00066060783 0.51947492)
(0 -0.00013250961 0.51972017)
(0 -0.00089154686 0.52006035)
(0 -0.0016059329 0.5204961)
(0 -0.0022632667 0.52102778)
(0 -0.0028488849 0.52165501)
(0 -0.003345232 0.52237593)
(0 -0.0037316301 0.52318618)
(0 -0.003983083 0.52407758)
(0 -0.0040711447 0.52503533)
(0 -0.0039621434 0.52603692)
(0 -0.0036147189 0.52702047)
(0 -0.0029789859 0.52764462)
(0 -0.0019969716 0.525621)
(0 -0.00080859238 0.50917132)
(0 -7.8964894e-05 0.43497489)
(0 3.1845477e-05 0.20603923)
(0 0.00048038739 0.17808578)
(0 0.002046395 0.42046685)
(0 0.0036716527 0.51020244)
(0 0.0053404435 0.5302612)
(0 0.0067353292 0.53219907)
(0 0.0077927987 0.53124657)
(0 0.008498722 0.53005463)
(0 0.0089428169 0.52886542)
(0 0.009152065 0.52769991)
(0 0.0091655811 0.52658328)
(0 0.0090136874 0.52553629)
(0 0.0087247149 0.52457234)
(0 0.0083231596 0.52369901)
(0 0.0078300264 0.52292015)
(0 0.0072632626 0.52223709)
(0 0.0066381595 0.52164967)
(0 0.0059678085 0.5211568)
(0 0.005263517 0.52075697)
(0 0.0045352006 0.52044856)
(0 0.0037917418 0.52023)
(0 0.003041325 0.52009994)
(0 0.0022917472 0.52005728)
(0 0.0015507229 0.52010121)
(0 0.00082617073 0.52023114)
(0 0.00012650864 0.52044658)
(0 -0.00053904872 0.52074703)
(0 -0.0011601833 0.52113169)
(0 -0.0017251694 0.52159912)
(0 -0.0022205987 0.52214674)
(0 -0.0026310281 0.52277015)
(0 -0.0029389646 0.52346214)
(0 -0.0031245099 0.52421161)
(0 -0.0031660226 0.52500112)
(0 -0.0030408321 0.52580474)
(0 -0.0027236981 0.52655802)
(0 -0.0021927182 0.5269215)
(0 -0.0014378451 0.52469622)
(0 -0.00058468251 0.50837223)
(0 -6.492859e-05 0.43464203)
(0 3.8620965e-05 0.20600984)
(0 0.00047745195 0.17798123)
(0 0.002017215 0.41998354)
(0 0.0034810793 0.50917803)
(0 0.0047847394 0.52899854)
(0 0.0058826716 0.53110219)
(0 0.0067712615 0.53042875)
(0 0.0074005932 0.52949493)
(0 0.0078271263 0.52853145)
(0 0.0080578729 0.52756309)
(0 0.0081200071 0.52661653)
(0 0.0080347033 0.52571394)
(0 0.0078238495 0.52487093)
(0 0.007507334 0.52409774)
(0 0.0071030008 0.52340079)
(0 0.0066266737 0.52278383)
(0 0.0060922784 0.52224876)
(0 0.0055120819 0.52179627)
(0 0.0048969517 0.52142627)
(0 0.0042566266 0.52113825)
(0 0.0035999858 0.52093145)
(0 0.0029353099 0.52080501)
(0 0.002270532 0.52075809)
(0 0.0016134848 0.52078982)
(0 0.0009721343 0.5208993)
(0 0.00035481465 0.52108551)
(0 -0.00022955271 0.52134711)
(0 -0.00077123563 0.52168223)
(0 -0.0012595018 0.52208813)
(0 -0.0016824875 0.52256073)
(0 -0.0020270692 0.52309405)
(0 -0.0022789993 0.52367934)
(0 -0.0024230785 0.52430426)
(0 -0.0024437727 0.52495113)
(0 -0.0023268811 0.52559426)
(0 -0.0020590052 0.5261722)
(0 -0.0016339384 0.52635598)
(0 -0.0010612468 0.52401004)
(0 -0.0004377495 0.5077878)
(0 -4.038258e-05 0.43438544)
(0 3.6430252e-05 0.20599717)
(0 0.00047978462 0.17789499)
(0 0.0019842311 0.41957601)
(0 0.0033365492 0.50836278)
(0 0.004394616 0.5280114)
(0 0.0052662974 0.53021682)
(0 0.0060039104 0.52973475)
(0 0.0065473295 0.52899354)
(0 0.0069362139 0.52820995)
(0 0.0071644901 0.52740606)
(0 0.0072506004 0.52660641)
(0 0.0072082201 0.52583224)
(0 0.0070536445 0.52509958)
(0 0.0068024595 0.52441979)
(0 0.0064693573 0.52380079)
(0 0.0060678842 0.52324785)
(0 0.0056103626 0.52276434)
(0 0.0051079624 0.52235224)
(0 0.0045708268 0.52201257)
(0 0.0040082365 0.52174569)
(0 0.003428793 0.52155149)
(0 0.0028406082 0.52142956)
(0 0.0022514945 0.52137927)
(0 0.0016691537 0.52139976)
(0 0.001101356 0.52148993)
(0 0.00055611397 0.52164835)
(0 4.1837085e-05 0.52187311)
(0 -0.00043253277 0.52216162)
(0 -0.00085741452 0.52251029)
(0 -0.0012225722 0.52291416)
(0 -0.0015171397 0.52336644)
(0 -0.0017298549 0.52385787)
(0 -0.0018494842 0.52437607)
(0 -0.0018654349 0.52490449)
(0 -0.0017695125 0.52541965)
(0 -0.0015559615 0.52586484)
(0 -0.001226175 0.52592202)
(0 -0.00079441893 0.52349699)
(0 -0.00032961012 0.50734596)
(0 -1.8098047e-05 0.43418755)
(0 3.0165347e-05 0.20599712)
(0 0.00048370768 0.17782282)
(0 0.0019563576 0.41923273)
(0 0.0032172066 0.50769564)
(0 0.0041031697 0.52722152)
(0 0.004804064 0.52949888)
(0 0.0054145433 0.52915368)
(0 0.005875015 0.52855742)
(0 0.0062183575 0.52791619)
(0 0.0064307386 0.52724769)
(0 0.0065248022 0.52657282)
(0 0.0065085421 0.52591069)
(0 0.0063937571 0.52527657)
(0 0.0061923182 0.52468195)
(0 0.0059160371 0.52413533)
(0 0.0055762502 0.52364283)
(0 0.0051836215 0.52320873)
(0 0.0047480976 0.52283588)
(0 0.0042789308 0.5225261)
(0 0.0037847577 0.5222804)
(0 0.003273708 0.5220992)
(0 0.0027535294 0.52198244)
(0 0.0022317215 0.52192966)
(0 0.0017156697 0.52194006)
(0 0.0012127732 0.52201242)
(0 0.00073056325 0.52214508)
(0 0.00027680241 0.52233577)
(0 -0.00014044962 0.52258145)
(0 -0.00051279798 0.52287808)
(0 -0.00083156791 0.52322032)
(0 -0.0010879244 0.52360114)
(0 -0.0012731541 0.52401144)
(0 -0.0013791563 0.52443959)
(0 -0.001399027 0.52487081)
(0 -0.0013285306 0.52528453)
(0 -0.001166318 0.52562861)
(0 -0.00091674335 0.52559342)
(0 -0.00059291522 0.523111)
(0 -0.00024258474 0.5070079)
(0 -1.3045303e-06 0.43403867)
(0 2.3959234e-05 0.20600449)
(0 0.00048733685 0.17776094)
(0 0.0019346052 0.41894528)
(0 0.0031147805 0.50714367)
(0 0.0038714105 0.5265785)
(0 0.0044413067 0.52891246)
(0 0.0049475085 0.52866979)
(0 0.0053336097 0.52818454)