/*--------------------------------*- C++ -*----------------------------------*\
  =========                 |
  \\      /  F ield         | OpenFOAM: The Open Source CFD Toolbox
   \\    /   O peration     | Website:  https://openfoam.org
    \\  /    A nd           | Version:  10
     \\/     M anipulation  |
\*---------------------------------------------------------------------------*/
FoamFile
{
    format      ascii;
    class       volVectorField;
    location    "0.03";
    object      U_0;
}
// * * * * * * * * * * * * * * * * * * * * * * * * * * * * * * * * * * * * * //

dimensions      [0 1 -1 0 0 0 0];

internalField   nonuniform List<vector> 
4000
(
(0 0.018505662 0.47779292)
(0 0.023278428 0.50882022)
(0 0.0079776139 0.50053012)
(0 0.0054433433 0.50033869)
(0 0.0040853929 0.50025583)
(0 0.0030950089 0.50016651)
(0 0.0024091504 0.50011707)
(0 0.001921297 0.50008742)
(0 0.0015568723 0.50006711)
(0 0.0012757265 0.50005278)
(0 0.0010532689 0.50004249)
(0 0.00087307244 0.50003496)
(0 0.00072388383 0.50002935)
(0 0.00059777718 0.50002513)
(0 0.00048900351 0.50002194)
(0 0.00039328 0.50001954)
(0 0.00030732809 0.50001775)
(0 0.0002285612 0.50001645)
(0 0.00015486625 0.50001557)
(0 8.444374e-05 0.50001505)
(0 1.5684469e-05 0.50001486)
(0 -5.2935482e-05 0.50001499)
(0 -0.00012294839 0.50001546)
(0 -0.00019598841 0.5000163)
(0 -0.00027390131 0.50001757)
(0 -0.00035887856 0.50001934)
(0 -0.00045363351 0.50002177)
(0 -0.00056164855 0.50002503)
(0 -0.00068753562 0.5000294)
(0 -0.00083758548 0.5000353)
(0 -0.00102065 0.50004336)
(0 -0.0012495645 0.50005457)
(0 -0.0015434601 0.50007045)
(0 -0.001933285 0.50009355)
(0 -0.0024761232 0.50013159)
(0 -0.0032577999 0.50020031)
(0 -0.0043478419 0.50027392)
(0 -0.0063591304 0.50043983)
(0 -0.017399139 0.50671044)
(0 -0.01344754 0.47982975)
(0 0.037039899 0.44840564)
(0 0.050214866 0.53222909)
(0 0.021319282 0.50801269)
(0 0.015573729 0.50357748)
(0 0.011864628 0.50240349)
(0 0.0090026065 0.50159568)
(0 0.0070533486 0.50112793)
(0 0.005648532 0.50083685)
(0 0.0045881527 0.50063953)
(0 0.003766777 0.50050181)
(0 0.0031148306 0.50040335)
(0 0.0025852245 0.50033139)
(0 0.0021456872 0.50027797)
(0 0.0017733648 0.50023788)
(0 0.0014516076 0.50020765)
(0 0.0011679786 0.50018487)
(0 0.00091293685 0.50016791)
(0 0.00067894231 0.50015563)
(0 0.00045982722 0.50014725)
(0 0.0002503345 0.50014228)
(0 4.5760539e-05 0.50014046)
(0 -0.00015834736 0.50014169)
(0 -0.00036646425 0.50014609)
(0 -0.00058336082 0.50015397)
(0 -0.00081442007 0.50016587)
(0 -0.0010660245 0.50018264)
(0 -0.0013460636 0.50020554)
(0 -0.0016646436 0.50023639)
(0 -0.0020351161 0.50027789)
(0 -0.0024756216 0.50033405)
(0 -0.0030115513 0.50041101)
(0 -0.0036796762 0.50051854)
(0 -0.0045341705 0.50067235)
(0 -0.005656715 0.50089871)
(0 -0.0071984255 0.50125971)
(0 -0.0094445591 0.50188653)
(0 -0.012413276 0.50283176)
(0 -0.016665513 0.50606521)
(0 -0.03791976 0.52515623)
(0 -0.027454808 0.45075361)
(0 0.039260676 0.41105473)
(0 0.060091033 0.54930836)
(0 0.030711063 0.52171144)
(0 0.023323195 0.51004803)
(0 0.018197403 0.5065206)
(0 0.014061947 0.50444028)
(0 0.011182249 0.50318048)
(0 0.009033861 0.50236766)
(0 0.0073814963 0.50181344)
(0 0.0060880045 0.50142579)
(0 0.0050523908 0.50114782)
(0 0.004205221 0.50094427)
(0 0.0034981534 0.50079297)
(0 0.0028963558 0.50067935)
(0 0.0023741663 0.50059357)
(0 0.001912258 0.50052892)
(0 0.0014957041 0.50048075)
(0 0.0011126432 0.50044583)
(0 0.00075333084 0.50042199)
(0 0.00040943362 0.50040782)
(0 7.3480474e-05 0.50040256)
(0 -0.00026160544 0.50040598)
(0 -0.00060293214 0.50041838)
(0 -0.00095806146 0.50044063)
(0 -0.0013354988 0.50047428)
(0 -0.0017452855 0.50052171)
(0 -0.0021997676 0.50058645)
(0 -0.0027146568 0.50067369)
(0 -0.0033105476 0.50079099)
(0 -0.0040151237 0.5009496)
(0 -0.0048664893 0.5011666)
(0 -0.0059188867 0.501469)
(0 -0.0072509442 0.50190055)
(0 -0.0089696932 0.50253193)
(0 -0.011249592 0.50350462)
(0 -0.014492694 0.50511712)
(0 -0.018607894 0.50782997)
(0 -0.023717227 0.51627468)
(0 -0.045875356 0.53909978)
(0 -0.03010785 0.41638503)
(0 0.033977015 0.36424917)
(0 0.061825162 0.55496024)
(0 0.037276353 0.53704219)
(0 0.028460772 0.51832521)
(0 0.022597083 0.51181014)
(0 0.017906306 0.5083011)
(0 0.014512568 0.50606199)
(0 0.01186854 0.5045574)
(0 0.0097879059 0.50351601)
(0 0.0081317903 0.50277985)
(0 0.006786869 0.50224746)
(0 0.0056742635 0.50185539)
(0 0.0047371385 0.50156276)
(0 0.0039333664 0.50134228)
(0 0.0032313515 0.50117541)
(0 0.0026069525 0.50104938)
(0 0.0020412981 0.5009553)
(0 0.0015192463 0.50088699)
(0 0.0010282584 0.50084025)
(0 0.00055754793 0.5008124)
(0 9.7407022e-05 0.50080192)
(0 -0.00036137422 0.50080838)
(0 -0.00082803725 0.50083237)
(0 -0.0013123762 0.50087555)
(0 -0.0018253439 0.50094087)
(0 -0.0023797715 0.50103291)
(0 -0.0029912841 0.50115842)
(0 -0.0036795354 0.50132722)
(0 -0.0044699275 0.50155362)
(0 -0.0053960241 0.50185869)
(0 -0.006502799 0.50227391)
(0 -0.0078520569 0.50284795)
(0 -0.0095320897 0.50365849)
(0 -0.011653257 0.50482671)
(0 -0.014351263 0.50655734)
(0 -0.018045149 0.50926664)
(0 -0.022761474 0.51412379)
(0 -0.028690735 0.52784703)
(0 -0.047929047 0.54443117)
(0 -0.027389777 0.37545323)
(0 0.026456498 0.31908548)
(0 0.059565397 0.55147619)
(0 0.041471106 0.55070055)
(0 0.031608819 0.52701329)
(0 0.025345789 0.51737155)
(0 0.020566283 0.51254407)
(0 0.016973207 0.50935529)
(0 0.014068011 0.50713195)
(0 0.011733139 0.50556239)
(0 0.0098373032 0.50443502)
(0 0.008270334 0.5036097)
(0 0.0069553902 0.50299655)
(0 0.0058344056 0.50253583)
(0 0.0048629701 0.50218685)
(0 0.0040070486 0.50192161)
(0 0.0032401187 0.50172058)
(0 0.0025411007 0.50157005)
(0 0.0018928482 0.50146047)
(0 0.0012810023 0.50138529)
(0 0.00069310339 0.50134028)
(0 0.00011787438 0.50132309)
(0 -0.00045540748 0.50133302)
(0 -0.0010374871 0.50137095)
(0 -0.0016396899 0.5014395)
(0 -0.0022745769 0.50154322)
(0 -0.0029566985 0.5016892)
(0 -0.0037035351 0.50188782)
(0 -0.0045367186 0.50215409)
(0 -0.0054836763 0.50250965)
(0 -0.006579898 0.50298593)
(0 -0.0078715955 0.50362908)
(0 -0.0094193924 0.5045081)
(0 -0.011309284 0.50573014)
(0 -0.013648755 0.50745797)
(0 -0.016524318 0.50992986)
(0 -0.020311578 0.51363634)
(0 -0.025326526 0.52068428)
(0 -0.032059697 0.53851612)
(0 -0.04709467 0.54275561)
(0 -0.022733273 0.33581973)
(0 0.018729976 0.28156763)
(0 0.054453335 0.54239286)
(0 0.042984561 0.56144966)
(0 0.033163655 0.53557746)
(0 0.026823442 0.52283575)
(0 0.022216096 0.51675894)
(0 0.018635385 0.51273377)
(0 0.015656732 0.50985394)
(0 0.013217045 0.50778101)
(0 0.011193896 0.50626679)
(0 0.0094897427 0.50514349)
(0 0.0080364679 0.50430035)
(0 0.0067798411 0.50366148)
(0 0.0056773216 0.50317426)
(0 0.0046955588 0.50280187)
(0 0.003807952 0.50251831)
(0 0.0029929371 0.50230515)
(0 0.0022326745 0.50214942)
(0 0.0015120097 0.50204218)
(0 0.00081764609 0.50197763)
(0 0.00013746098 0.50195251)
(0 -0.00054010503 0.50196585)
(0 -0.0012266139 0.50201883)
(0 -0.0019341684 0.50211498)
(0 -0.0026760469 0.5022605)
(0 -0.0034674099 0.50246494)
(0 -0.00432616 0.50274226)
(0 -0.0052740182 0.50311242)
(0 -0.0063379034 0.5036039)
(0 -0.0075518772 0.50425744)
(0 -0.0089593233 0.50513179)
(0 -0.010614501 0.50631235)
(0 -0.012593519 0.50792769)
(0 -0.014999797 0.51017066)
(0 -0.017885122 0.51330426)
(0 -0.021550557 0.51793796)
(0 -0.026570023 0.52718052)
(0 -0.033485387 0.54738175)
(0 -0.043995704 0.53662075)
(0 -0.017396019 0.30204234)
(0 0.01180548 0.25147637)
(0 0.047414107 0.52994131)
(0 0.041903337 0.56884668)
(0 0.033295638 0.54364668)
(0 0.027236976 0.52809208)
(0 0.022983887 0.52076354)
(0 0.019590457 0.5160156)
(0 0.016692946 0.51257064)
(0 0.014269723 0.51004919)
(0 0.012214231 0.50818)
(0 0.01044806 0.50677641)
(0 0.0089151705 0.50571192)
(0 0.0075684723 0.50489808)
(0 0.0063703469 0.50427271)
(0 0.0052905449 0.50379166)
(0 0.0043042924 0.50342336)
(0 0.0033910485 0.50314519)
(0 0.0025334725 0.50294109)
(0 0.0017165772 0.50279992)
(0 0.00092703122 0.5027144)
(0 0.00015257319 0.50268041)
(0 -0.00061852803 0.50269668)
(0 -0.0013979795 0.50276466)
(0 -0.0021979305 0.5028887)
(0 -0.0030315322 0.50307646)
(0 -0.0039135304 0.50333969)
(0 -0.0048609709 0.50369545)
(0 -0.0058940552 0.50416799)
(0 -0.0070371594 0.50479142)
(0 -0.008320324 0.50561398)
(0 -0.0097812009 0.50670436)
(0 -0.011464745 0.50816062)
(0 -0.013431476 0.51012668)
(0 -0.015773648 0.51281657)
(0 -0.018518033 0.51652586)
(0 -0.021891224 0.52207156)
(0 -0.026604005 0.53337755)
(0 -0.032860741 0.55394856)
(0 -0.039105531 0.52761666)
(0 -0.012035604 0.27432391)
(0 0.0062412234 0.22753014)
(0 0.039522697 0.51561865)
(0 0.038847051 0.57281439)
(0 0.032227515 0.55069126)
(0 0.026755071 0.53296019)
(0 0.022987573 0.5244315)
(0 0.01992717 0.51907977)
(0 0.017235939 0.51517476)
(0 0.014925712 0.51227586)
(0 0.012915182 0.51010018)
(0 0.011149478 0.50844894)
(0 0.0095867644 0.50718427)
(0 0.0081895909 0.50620876)
(0 0.0069274526 0.5054533)
(0 0.0057749336 0.5048682)
(0 0.0047105287 0.50441755)
(0 0.0037159083 0.50407538)
(0 0.0027752044 0.5038231)
(0 0.0018744067 0.50364772)
(0 0.0010008417 0.50354068)
(0 0.00014273037 0.50349713)
(0 -0.00071124446 0.50351549)
(0 -0.0015723422 0.5035974)
(0 -0.0024521246 0.50374785)
(0 -0.0033628962 0.50397567)
(0 -0.0043181382 0.50429436)
(0 -0.0053330084 0.50472338)
(0 -0.0064249302 0.50529021)
(0 -0.0076142026 0.50603318)
(0 -0.0089248652 0.50700593)
(0 -0.010386406 0.50828421)
(0 -0.012032186 0.50997536)
(0 -0.013902805 0.51223385)
(0 -0.016069411 0.51528623)
(0 -0.018535311 0.51946807)
(0 -0.021475898 0.52586814)
(0 -0.025624874 0.53885413)
(0 -0.030545658 0.55792046)
(0 -0.033125627 0.51685227)
(0 -0.0071139056 0.25199105)
(0 0.0021553644 0.2093196)
(0 0.031614985 0.50078545)
(0 0.03456659 0.57367762)
(0 0.030280672 0.5562633)
(0 0.025617528 0.53721053)
(0 0.022416029 0.52764123)
(0 0.019781404 0.52182219)
(0 0.017379363 0.51757787)
(0 0.015248969 0.51438815)
(0 0.013338793 0.51196753)
(0 0.01161903 0.51011216)
(0 0.01006327 0.50867762)
(0 0.0086454584 0.50756135)
(0 0.0073435734 0.50668998)
(0 0.0061381267 0.50601028)
(0 0.0050118417 0.50548342)
(0 0.0039494127 0.50508109)
(0 0.0029371291 0.50478287)
(0 0.001962547 0.50457438)
(0 0.0010141685 0.50444608)
(0 8.1167852e-05 0.50439249)
(0 -0.00084691331 0.5044118)
(0 -0.0017804363 0.50450571)
(0 -0.0027299041 0.50467966)
(0 -0.0037062523 0.50494323)
(0 -0.0047211003 0.50531108)
(0 -0.0057870141 0.50580425)
(0 -0.0069177929 0.50645223)
(0 -0.0081286644 0.50729589)
(0 -0.0094363864 0.50839195)
(0 -0.010860488 0.50982001)
(0 -0.012421139 0.51169251)
(0 -0.014137047 0.51416872)
(0 -0.01605205 0.51747877)
(0 -0.018144177 0.52200194)
(0 -0.020556029 0.52911062)
(0 -0.023958604 0.54319354)
(0 -0.027111247 0.55931871)
(0 -0.026702554 0.50535403)
(0 -0.0029099382 0.23488541)
(0 -0.00056616612 0.19654985)
(0 0.02420329 0.48655268)
(0 0.029742787 0.57201749)
(0 0.027840191 0.56015849)
(0 0.02414713 0.54068033)
(0 0.021555067 0.53031607)
(0 0.019378543 0.52417493)
(0 0.017299519 0.51972067)
(0 0.015379979 0.51633754)
(0 0.013597841 0.5137422)
(0 0.011947695 0.51173311)
(0 0.010418599 0.51016478)
(0 0.008996512 0.50893343)
(0 0.0076683262 0.50796428)
(0 0.0064209096 0.50720264)
(0 0.0052416613 0.50660825)
(0 0.0041187023 0.50615158)
(0 0.0030408471 0.50581111)
(0 0.0019975531 0.5055716)
(0 0.00097880656 0.50542288)
(0 -2.4978533e-05 0.50535901)
(0 -0.0010231317 0.50537796)
(0 -0.0020248481 0.50548142)
(0 -0.003039303 0.50567498)
(0 -0.0040757845 0.5059686)
(0 -0.0051437595 0.50637745)
(0 -0.0062528925 0.50692322)
(0 -0.0074130191 0.50763609)
(0 -0.0086339626 0.5085577)
(0 -0.0099248745 0.50974533)
(0 -0.011294741 0.51127883)
(0 -0.012750304 0.51327081)
(0 -0.014288827 0.51587855)
(0 -0.015925935 0.51932817)
(0 -0.017613522 0.52404523)
(0 -0.019454185 0.53164154)
(0 -0.02199741 0.54614071)
(0 -0.023173625 0.55840528)
(0 -0.020336651 0.49391925)
(0 0.00034954109 0.22285956)
(0 -0.002074246 0.18845057)
(0 0.017595551 0.47361313)
(0 0.024965039 0.56842074)
(0 0.025319354 0.56234443)
(0 0.022714333 0.54329196)
(0 0.020748979 0.53244168)
(0 0.019011932 0.52612526)
(0 0.0172473 0.5215876)
(0 0.015535863 0.51810915)
(0 0.013882274 0.51541067)
(0 0.01230387 0.51329989)
(0 0.010804086 0.51163557)
(0 0.0093803497 0.51031653)
(0 0.0080279931 0.50926934)
(0 0.0067400416 0.50843982)
(0 0.0055085251 0.50778783)
(0 0.0043250169 0.50728364)
(0 0.0031809348 0.50690542)
(0 0.0020677434 0.50663761)
(0 0.00097703447 0.5064697)
(0 -9.9420528e-05 0.50639552)
(0 -0.0011697068 0.50641283)
(0 -0.0022417541 0.50652322)
(0 -0.0033233281 0.50673221)
(0 -0.0044220195 0.50704973)
(0 -0.0055451427 0.50749082)
(0 -0.0066995379 0.50807694)
(0 -0.0078912536 0.50883775)
(0 -0.0091250592 0.50981384)
(0 -0.010403179 0.51106068)
(0 -0.011724853 0.51265491)
(0 -0.01308476 0.51470441)
(0 -0.014461121 0.51735786)
(0 -0.015843935 0.52083123)
(0 -0.017163742 0.52559519)
(0 -0.018451035 0.53340364)
(0 -0.020089638 0.54759634)
(0 -0.019304229 0.55552223)
(0 -0.014430465 0.48302329)
(0 0.0024537769 0.21532092)
(0 -0.0025483392 0.18394263)
(0 0.01199469 0.46232263)
(0 0.020679596 0.5633379)
(0 0.0230621 0.56284799)
(0 0.021630973 0.54501514)
(0 0.02028471 0.53404596)
(0 0.018934605 0.52770649)
(0 0.017448884 0.52320165)
(0 0.015920962 0.51971776)
(0 0.014379516 0.51698237)
(0 0.012862034 0.51481859)
(0 0.011384343 0.5130942)
(0 0.0099539603 0.51171394)
(0 0.0085735576 0.51060811)
(0 0.007241666 0.50972485)
(0 0.0059545429 0.50902543)
(0 0.004706978 0.5084809)
(0 0.0034928794 0.50806981)
(0 0.0023056809 0.50777673)
(0 0.0011385858 0.50759117)
(0 -1.525459e-05 0.50750688)
(0 -0.001162651 0.50752148)
(0 -0.002310263 0.50763638)
(0 -0.0034644726 0.50785685)
(0 -0.0046312607 0.50819239)
(0 -0.00581597 0.50865745)
(0 -0.0070229454 0.5092725)
(0 -0.0082549786 0.51006559)
(0 -0.0095126011 0.51107486)
(0 -0.010792465 0.51235196)
(0 -0.01208586 0.51396752)
(0 -0.013377926 0.51602056)
(0 -0.014632034 0.51864598)
(0 -0.015816374 0.52204371)
(0 -0.016851535 0.5267176)
(0 -0.017657109 0.53442667)
(0 -0.018403728 0.54758142)
(0 -0.015893004 0.55102447)
(0 -0.0093148251 0.47297493)
(0 0.0033424047 0.21129892)
(0 -0.0022535233 0.18193462)
(0 0.0075491196 0.45284889)
(0 0.017102279 0.55709577)
(0 0.021207503 0.56172993)
(0 0.020992755 0.54584403)
(0 0.020236217 0.53517329)
(0 0.019211571 0.52897321)
(0 0.017963209 0.52460298)
(0 0.016591038 0.52119023)
(0 0.015145349 0.51847514)
(0 0.013679659 0.51630097)
(0 0.01221971 0.51454855)
(0 0.010781323 0.51313122)
(0 0.0093731599 0.51198487)
(0 0.0079984233 0.51106143)
(0 0.0066570514 0.51032462)
(0 0.005346724 0.50974702)
(0 0.0040636705 0.50930816)
(0 0.0028032208 0.50899315)
(0 0.0015601793 0.50879178)
(0 0.00032909651 0.50869787)
(0 -0.00089553363 0.50870899)
(0 -0.0021190874 0.5088263)
(0 -0.0033465897 0.50905467)
(0 -0.0045825037 0.50940296)
(0 -0.0058303981 0.50988462)
(0 -0.007092482 0.51051856)
(0 -0.0083688907 0.51133055)
(0 -0.0096568179 0.51235517)
(0 -0.010948823 0.51363893)
(0 -0.012230346 0.51524452)
(0 -0.013479738 0.51725912)
(0 -0.014650981 0.51980059)
(0 -0.015693832 0.52304712)
(0 -0.016530987 0.52750795)
(0 -0.016951225 0.53479716)
(0 -0.016863363 0.54623986)
(0 -0.013045508 0.54530995)
(0 -0.0052306883 0.46409711)
(0 0.0032087651 0.20967189)
(0 -0.0015317611 0.18146622)
(0 0.0043551226 0.44522478)
(0 0.01420683 0.55001301)
(0 0.019636272 0.55913869)
(0 0.020595813 0.5458021)
(0 0.020386793 0.53586574)
(0 0.019645066 0.52997457)
(0 0.018607471 0.5258238)
(0 0.017378868 0.52254417)
(0 0.016028668 0.51989701)
(0 0.014621094 0.51774873)
(0 0.01318945 0.51599635)
(0 0.011756084 0.51456374)
(0 0.010334405 0.51339383)
(0 0.00893154 0.51244331)
(0 0.0075506264 0.5116791)
(0 0.0061919736 0.51107593)
(0 0.004854019 0.51061472)
(0 0.0035339729 0.51028145)
(0 0.0022282852 0.51006641)
(0 0.0009329872 0.50996366)
(0 -0.00035603123 0.50997073)
(0 -0.0016427716 0.51008856)
(0 -0.0029308501 0.5103215)
(0 -0.0042232048 0.51067761)
(0 -0.0055217108 0.51116906)
(0 -0.0068266539 0.51181291)
(0 -0.0081359237 0.51263212)
(0 -0.009444031 0.51365717)
(0 -0.010740537 0.51492857)
(0 -0.012006824 0.51650009)
(0 -0.013216451 0.51844516)
(0 -0.014319326 0.5208631)
(0 -0.015249461 0.52390563)
(0 -0.015936164 0.52804605)
(0 -0.016054674 0.53462392)
(0 -0.015234889 0.54384622)
(0 -0.010622919 0.5388633)
(0 -0.0023300798 0.45670504)
(0 0.0024190219 0.20946784)
(0 -0.00072278601 0.18176833)
(0 0.0023992978 0.4393417)
(0 0.011829921 0.54252418)
(0 0.018071074 0.55537318)
(0 0.020034399 0.54496199)
(0 0.020323335 0.53615311)
(0 0.019855468 0.53073375)
(0 0.019028713 0.52687092)
(0 0.017956696 0.52377356)
(0 0.016724675 0.52123394)
(0 0.015402399 0.51914305)
(0 0.014028986 0.51741604)
(0 0.01263184 0.5159886)
(0 0.011228228 0.51481157)
(0 0.0098286879 0.5138471)
(0 0.0084392552 0.51306584)
(0 0.0070627468 0.51244507)
(0 0.0056997978 0.51196742)
(0 0.0043495653 0.51162)
(0 0.0030102598 0.51139378)
(0 0.0016795429 0.51128314)
(0 0.00035486059 0.51128568)
(0 -0.00096624721 0.51140206)
(0 -0.0022858478 0.5116361)
(0 -0.0036052312 0.51199489)
(0 -0.0049245153 0.51248923)
(0 -0.0062420789 0.51313403)
(0 -0.0075537019 0.51394925)
(0 -0.0088515171 0.51496094)
(0 -0.010122606 0.51620318)
(0 -0.011345473 0.51772042)
(0 -0.012489844 0.51957157)
(0 -0.013505205 0.52183666)
(0 -0.014313184 0.52463779)
(0 -0.01484475 0.52836915)
(0 -0.014713522 0.53401493)
(0 -0.013326322 0.54077984)
(0 -0.0084525126 0.53226826)
(0 -0.0005896246 0.45090732)
(0 0.0014772381 0.20989746)
(0 -7.0258689e-05 0.18229233)
(0 0.0014975388 0.43497859)
(0 0.0098165166 0.53520006)
(0 0.016270807 0.55088547)
(0 0.018938655 0.54346373)
(0 0.019662458 0.53605703)
(0 0.019481937 0.53124393)
(0 0.018887097 0.5277236)
(0 0.018004079 0.52484836)
(0 0.016929255 0.52245033)
(0 0.015734028 0.5204455)
(0 0.014462103 0.51876795)
(0 0.013144801 0.51736579)
(0 0.011802697 0.51619831)
(0 0.010449434 0.51523356)
(0 0.0090937972 0.51444625)
(0 0.0077410854 0.5138165)
(0 0.0063941816 0.51332891)
(0 0.0050542953 0.51297192)
(0 0.0037215378 0.51273731)
(0 0.0023953659 0.51261989)
(0 0.0010749573 0.51261733)
(0 -0.00024042575 0.51273006)
(0 -0.0015511281 0.51296129)
(0 -0.0028566359 0.51331709)
(0 -0.0041551801 0.51380672)
(0 -0.0054431414 0.51444286)
(0 -0.0067141672 0.51524226)
(0 -0.0079581055 0.51622642)
(0 -0.0091596946 0.51742281)
(0 -0.010295254 0.5188665)
(0 -0.011331186 0.52060195)
(0 -0.012218089 0.52268937)
(0 -0.012870671 0.52521986)
(0 -0.013213739 0.52847923)
(0 -0.012862628 0.53307754)
(0 -0.011124328 0.53745853)
(0 -0.006469801 0.52614133)
(0 0.00021455971 0.44664891)
(0 0.00073399927 0.21044384)
(0 0.0003378151 0.1827219)
(0 0.0013267287 0.43185754)
(0 0.0080966338 0.52861946)
(0 0.014182664 0.54620061)
(0 0.017187022 0.54151217)
(0 0.018256913 0.53560887)
(0 0.018370586 0.5314855)
(0 0.018029227 0.52834885)
(0 0.01736856 0.52572842)
(0 0.016489727 0.5235018)
(0 0.015463229 0.52160983)
(0 0.014336055 0.52000515)
(0 0.01314238 0.51864839)
(0 0.011905629 0.51750753)
(0 0.010642253 0.51655671)
(0 0.0093636384 0.51577496)
(0 0.0080775157 0.51514547)
(0 0.0067890266 0.51465498)
(0 0.0055014874 0.5142934)
(0 0.0042169942 0.51405345)
(0 0.0029369022 0.51393044)
(0 0.0016622313 0.51392219)
(0 0.00039407868 0.51402885)
(0 -0.00086606848 0.51425299)
(0 -0.0021158084 0.51459962)
(0 -0.0033514165 0.51507634)
(0 -0.0045672425 0.51569351)
(0 -0.005754828 0.51646458)
(0 -0.0069018713 0.51740642)
(0 -0.0079909262 0.51853995)
(0 -0.0089967049 0.51989099)
(0 -0.0098831969 0.5214903)
(0 -0.010602442 0.52337824)
(0 -0.011069309 0.52561531)
(0 -0.011199986 0.52837364)
(0 -0.010661395 0.5319274)
(0 -0.0087978597 0.53425193)
(0 -0.0047140359 0.52096215)
(0 0.00039666696 0.44372179)
(0 0.00027358732 0.21084541)
(0 0.0005325643 0.18294437)
(0 0.0015307783 0.4296771)
(0 0.0066750409 0.52318344)
(0 0.011959926 0.54179159)
(0 0.014952593 0.53934522)
(0 0.016250972 0.53486806)
(0 0.016633253 0.53145409)
(0 0.01654521 0.52872524)
(0 0.016121176 0.52638385)
(0 0.015459809 0.52435326)
(0 0.014628604 0.52259805)
(0 0.013675908 0.52108808)
(0 0.012637466 0.51979606)
(0 0.011538849 0.51869858)
(0 0.010398818 0.51777589)
(0 0.0092310379 0.51701146)
(0 0.0080454641 0.51639166)
(0 0.0068493628 0.51590554)
(0 0.0056480773 0.51554458)
(0 0.0044456418 0.51530253)
(0 0.0032452852 0.51517529)
(0 0.002049853 0.51516081)
(0 0.00086225248 0.51525901)
(0 -0.0003142218 0.51547179)
(0 -0.0014753466 0.51580303)
(0 -0.0026155383 0.51625866)
(0 -0.0037272692 0.51684665)
(0 -0.0048002133 0.51757711)
(0 -0.005820293 0.51846239)
(0 -0.0067683816 0.51951704)
(0 -0.0076183643 0.52075809)
(0 -0.0083335083 0.52220398)
(0 -0.0088677738 0.52387642)
(0 -0.0091430098 0.52580769)
(0 -0.0090722913 0.52807274)
(0 -0.008399281 0.53068581)
(0 -0.0066032091 0.53141548)
(0 -0.0032700104 0.51694434)
(0 0.00027208469 0.44180187)
(0 5.2795062e-05 0.21105472)
(0 0.00058927056 0.18297767)
(0 0.0018249849 0.42815257)
(0 0.0055758058 0.51901363)
(0 0.009855647 0.53797673)
(0 0.012579911 0.53718539)
(0 0.013974839 0.53392538)
(0 0.014562394 0.53117975)
(0 0.014695645 0.52886074)
(0 0.014493291 0.52681037)
(0 0.014044772 0.52499246)
(0 0.013412202 0.52339253)
(0 0.012642755 0.52199549)
(0 0.011772136 0.52078512)
(0 0.010826987 0.51974613)
(0 0.0098275614 0.51886469)
(0 0.0087892316 0.51812863)
(0 0.0077237456 0.51752756)
(0 0.006640168 0.51705286)
(0 0.0055456154 0.51669765)
(0 0.0044458543 0.5164568)
(0 0.003345808 0.51632682)
(0 0.0022499836 0.51630582)
(0 0.0011629203 0.51639351)
(0 8.9535782e-05 0.51659114)
(0 -0.00096435889 0.51690146)
(0 -0.0019916089 0.51732871)
(0 -0.0029831775 0.5178785)
(0 -0.0039273556 0.51855776)
(0 -0.0048089397 0.5193745)
(0 -0.0056080165 0.52033745)
(0 -0.0062987123 0.52145568)
(0 -0.0068457278 0.52273712)
(0 -0.007206266 0.52418775)
(0 -0.0073139944 0.52581608)
(0 -0.007088554 0.52762792)
(0 -0.0063526852 0.52946554)
(0 -0.0047556733 0.5290726)
(0 -0.0021929737 0.51404269)
(0 8.3297382e-05 0.44056553)
(0 -7.8964858e-06 0.21111359)
(0 0.0005809688 0.1828909)
(0 0.0020506328 0.42705531)
(0 0.0047908775 0.515984)
(0 0.008082846 0.53488482)
(0 0.010402698 0.53519845)
(0 0.011773611 0.53288746)
(0 0.012480924 0.53072548)
(0 0.012777918 0.52879473)
(0 0.012756711 0.52703234)
(0 0.012492735 0.52543312)
(0 0.012040245 0.52399916)
(0 0.01144265 0.52272754)
(0 0.010733883 0.52161156)
(0 0.009940305 0.5206431)
(0 0.0090826388 0.51981378)
(0 0.0081771783 0.51911553)
(0 0.0072368482 0.51854108)
(0 0.0062720203 0.51808409)
(0 0.0052911807 0.51773936)
(0 0.0043014854 0.51750284)
(0 0.003309243 0.51737168)
(0 0.0023203309 0.51734422)
(0 0.0013406226 0.51741997)
(0 0.00037634489 0.51759954)
(0 -0.00056546718 0.51788462)
(0 -0.0014765177 0.51827785)
(0 -0.0023467743 0.51878265)
(0 -0.0031637945 0.51940298)
(0 -0.0039120572 0.52014298)
(0 -0.004571943 0.52100635)
(0 -0.0051190105 0.52199548)
(0 -0.0055213756 0.52310997)
(0 -0.0057412804 0.52434415)
(0 -0.005726384 0.52568895)
(0 -0.005411052 0.5271094)
(0 -0.0046849798 0.5283538)
(0 -0.0033496901 0.52723566)
(0 -0.0014642564 0.51204713)
(0 -4.7001588e-05 0.43976249)
(0 4.2079931e-06 0.21108466)
(0 0.00055684671 0.1827529)
(0 0.0021643795 0.42622496)
(0 0.004267238 0.51383461)
(0 0.0067329898 0.53248716)
(0 0.0086200326 0.5334755)
(0 0.0098797753 0.53185257)
(0 0.010622833 0.53016919)
(0 0.011016925 0.52858592)
(0 0.011123598 0.52709401)
(0 0.011002258 0.52570824)
(0 0.010697441 0.52444204)
(0 0.010246816 0.52330148)
(0 0.0096810192 0.52228732)
(0 0.0090248324 0.52139738)
(0 0.0082983951 0.52062796)
(0 0.0075180774 0.51997467)
(0 0.0066972884 0.51943304)
(0 0.0058471351 0.51899889)
(0 0.0049769893 0.5186686)
(0 0.0040949748 0.51843917)
(0 0.003208402 0.51830841)
(0 0.0023241552 0.51827488)
(0 0.0014490779 0.51833792)
(0 0.00059032006 0.51849761)
(0 -0.00024427345 0.51875467)
(0 -0.0010457514 0.51911029)
(0 -0.0018036447 0.51956596)
(0 -0.0025054449 0.52012309)
(0 -0.0031360999 0.52078257)
(0 -0.0036772705 0.52154403)
(0 -0.0041069779 0.52240479)
(0 -0.004398057 0.52335846)
(0 -0.0045192137 0.524392)
(0 -0.0044318908 0.52548551)
(0 -0.004088588 0.5265852)
(0 -0.0034282489 0.52740111)
(0 -0.0023604563 0.52584469)
(0 -0.0010048609 0.5106951)
(0 -9.9787349e-05 0.43921426)
(0 2.5862933e-05 0.21102725)
(0 0.00053926382 0.18260967)
(0 0.0021895082 0.42556205)
(0 0.0039276435 0.51229041)
(0 0.0057785899 0.53066524)
(0 0.0072746231 0.5320401)
(0 0.0083774492 0.53089172)
(0 0.0090918211 0.5295825)
(0 0.0095235092 0.52829537)
(0 0.0097060116 0.52704588)
(0 0.0096833264 0.52585892)
(0 0.0094896506 0.52475424)
(0 0.0091559334 0.52374374)
(0 0.0087085194 0.52283346)
(0 0.0081696184 0.52202576)
(0 0.0075579229 0.52132067)
(0 0.0068891293 0.52071685)
(0 0.0061764861 0.52021229)
(0 0.005431282 0.51980471)
(0 0.0046632904 0.51949186)
(0 0.0038811715 0.51927179)
(0 0.0030928421 0.51914286)
(0 0.0023058145 0.5191039)
(0 0.0015275308 0.51915414)
(0 0.00076567399 0.51929319)
(0 2.8494599e-05 0.51952095)
(0 -0.00067485316 0.51983741)
(0 -0.0013339687 0.52024244)
(0 -0.001936839 0.52073542)
(0 -0.0024694985 0.5213147)
(0 -0.0029155771 0.52197691)
(0 -0.0032562055 0.52271591)
(0 -0.0034694049 0.52352159)
(0 -0.0035308378 0.52437723)
(0 -0.0034139347 0.52525801)
(0 -0.0030881784 0.52610508)
(0 -0.0025246997 0.5266221)
(0 -0.0016957804 0.52480916)
(0 -0.00072265163 0.50975902)
(0 -9.8650467e-05 0.43881046)
(0 3.7530958e-05 0.21097805)
(0 0.000532444 0.18248246)
(0 0.0021676338 0.42501225)
(0 0.0036992038 0.51113444)
(0 0.0051262703 0.52927699)
(0 0.0063031515 0.53087068)
(0 0.0072387864 0.53004281)
(0 0.0078860684 0.52901736)
(0 0.0083122073 0.52797341)
(0 0.008528839 0.5269332)
(0 0.0085669954 0.52592441)
(0 0.0084511913 0.52496918)
(0 0.008205671 0.52408246)
(0 0.0078521178 0.52327358)
(0 0.0074096337 0.52254801)
(0 0.0068949003 0.52190856)
(0 0.0063223914 0.52135627)
(0 0.0057046874 0.5208911)
(0 0.0050527957 0.52051234)
(0 0.0043764709 0.52021899)
(0 0.0036845237 0.52000991)
(0 0.0029851166 0.51988406)
(0 0.0022860447 0.51984047)
(0 0.0015950108 0.51987832)
(0 0.00091988653 0.51999688)
(0 0.00026897764 0.52019537)
(0 -0.00034872334 0.52047287)
(0 -0.0009232744 0.52082799)
(0 -0.0014435487 0.52125857)
(0 -0.0018970485 0.52176117)
(0 -0.0022697017 0.52233046)
(0 -0.0025459467 0.52295826)
(0 -0.0027087592 0.52363263)
(0 -0.0027402985 0.52433588)
(0 -0.002623452 0.5250425)
(0 -0.0023409604 0.52569558)
(0 -0.0018826881 0.52600601)
(0 -0.0012500618 0.52403989)
(0 -0.00054122372 0.50908281)
(0 -7.3706678e-05 0.43849863)
(0 3.8666039e-05 0.21094702)
(0 0.00053298117 0.1823759)
(0 0.0021312506 0.42454872)
(0 0.0035305166 0.51022671)
(0 0.0046732905 0.52819905)
(0 0.005604023 0.52992513)
(0 0.0063846741 0.52931611)
(0 0.0069492005 0.52850331)
(0 0.0073442934 0.52765443)
(0 0.007566607 0.52679009)
(0 0.0076374079 0.52593646)
(0 0.0075730508 0.52511534)
(0 0.0073917973 0.52434268)
(0 0.0071108458 0.52362944)
(0 0.0067460836 0.52298298)
(0 0.006311931 0.52240798)
(0 0.0058213224 0.52190719)
(0 0.0052858329 0.52148205)
(0 0.0047158523 0.52113312)
(0 0.0041207914 0.52086035)
(0 0.0035093007 0.52066337)
(0 0.0028894913 0.52054157)
(0 0.0022691532 0.52049422)
(0 0.0016559712 0.52052049)
(0 0.0010577296 0.52061939)
(0 0.0004825151 0.52078968)
(0 -6.1101481e-05 0.52102973)
(0 -0.00056389327 0.52133728)
(0 -0.0010158365 0.52170912)
(0 -0.0014060544 0.5221407)
(0 -0.0017227936 0.52262556)
(0 -0.0019536275 0.52315464)
(0 -0.0020858219 0.52371557)
(0 -0.0021069619 0.52429139)
(0 -0.0020067991 0.52485833)
(0 -0.0017770664 0.52536397)
(0 -0.0014171928 0.52552945)
(0 -0.00093828562 0.52346469)
(0 -0.00041148257 0.50857474)
(0 -4.5448826e-05 0.43825576)
(0 3.375816e-05 0.21093205)
(0 0.00053655198 0.18228717)
(0 0.0020968598 0.42415769)
(0 0.0033935787 0.50948898)
(0 0.0043404884 0.52734195)
(0 0.0050850387 0.52915883)
(0 0.0057326073 0.52870477)
(0 0.0062137825 0.52805198)
(0 0.0065662889 0.52735796)
(0 0.0067775354 0.52663904)
(0 0.006862114 0.52591792)
(0 0.0068300556 0.52521457)
(0 0.0066947087 0.52454453)
(0 0.0064693141 0.52391922)
(0 0.0061667479 0.52334691)
(0 0.0057991725 0.52283335)
(0 0.0053778691 0.52238245)
(0 0.0049132295 0.52199669)
(0 0.004414816 0.52167753)
(0 0.0038914712 0.5214257)
(0 0.0033514574 0.52124138)
(0 0.0028026087 0.52112438)
(0 0.002252489 0.52107415)
(0 0.0017085512 0.52108989)
(0 0.0011782879 0.52117045)
(0 0.00066937401 0.52131429)
(0 0.00018979082 0.52151931)
(0 -0.00025208277 0.52178271)
(0 -0.0006474028 0.52210065)
(0 -0.00098689288 0.52246799)
(0 -0.0012609346 0.52287782)
(0 -0.0014598383 0.52332101)
(0 -0.0015743248 0.52378566)
(0 -0.0015961343 0.52425643)
(0 -0.0015196503 0.52471233)
(0 -0.0013420283 0.52510565)
(0 -0.0010667944 0.52516618)
(0 -0.00070598033 0.52303141)
(0 -0.00030877365 0.50818533)
(0 -2.2474726e-05 0.43806981)
(0 2.6970202e-05 0.21092845)
(0 0.00054043689 0.182212)
(0 0.0020691343 0.42382988)
(0 0.0032767204 0.50888)
(0 0.0040795587 0.52664716)
(0 0.004681921 0.52853371)
(0 0.0052193512 0.5281945)
(0 0.0056241836 0.52766388)
(0 0.0059314028 0.52709276)
(0 0.0061231696 0.52649319)
(0 0.0062098999 0.52588395)
(0 0.0061970261 0.52528254)
(0 0.0060941041 0.52470329)
(0 0.0059110942 0.52415732)
(0 0.0056582365 0.52365309)
(0 0.0053456022 0.52319687)
(0 0.0049828527 0.52279318)
(0 0.0045791441 0.52244518)
(0 0.0041431056 0.52215498)
(0 0.0036828765 0.52192383)
(0 0.003206179 0.52175236)
(0 0.0027204118 0.52164066)
(0 0.0022327549 0.5215884)
(0 0.0017502769 0.5215948)
(0 0.0012800381 0.52165865)
(0 0.00082918133 0.52177823)
(0 0.00040500493 0.5219512)
(0 1.4998978e-05 0.52217444)
(0 -0.00033315046 0.52244386)
(0 -0.00063163979 0.52275411)
(0 -0.00087270172 0.52309833)
(0 -0.0010488975 0.5234678)
(0 -0.0011535894 0.52385163)
(0 -0.0011814963 0.52423638)
(0 -0.0011299344 0.52460402)
(0 -0.00099900512 0.52491087)
(0 -0.00079348907 0.52489275)
(0 -0.00052366641 0.52270456)
(0 -0.00022358179 0.50788748)
(0 -5.7157578e-06 0.43793222)
(0 2.0861861e-05 0.21093223)
(0 0.00054358994 0.18214715)
(0 0.0020472947 0.4235569)
(0 0.0031761933 0.50837593)
(0 0.0038657159 0.52607766)
(0 0.0043566837 0.52802056)
(0 0.004803892 0.52776977)