/*--------------------------------*- C++ -*----------------------------------*\
  =========                 |
  \\      /  F ield         | OpenFOAM: The Open Source CFD Toolbox
   \\    /   O peration     | Website:  https://openfoam.org
    \\  /    A nd           | Version:  10
     \\/     M anipulation  |
\*---------------------------------------------------------------------------*/
FoamFile
{
    format      ascii;
    class       surfaceScalarField;
    location    "0.25";
    object      phi;
}
// * * * * * * * * * * * * * * * * * * * * * * * * * * * * * * * * * * * * * //

dimensions      [1 0 -1 0 0 0 0];

internalField   nonuniform List<scalar> 
7860
(
3.9896004e-08
5.2881203e-07
1.2192739e-08
5.9641107e-07
7.4279198e-09
5.7347257e-07
5.4994418e-09
5.7063619e-07
4.1150192e-09
5.700921e-07
3.2011641e-09
5.6962151e-07
2.5591669e-09
5.6934963e-07
2.0793343e-09
5.6918746e-07
1.709338e-09
5.6907761e-07
1.4166545e-09
5.6900029e-07
1.1794886e-09
5.6894476e-07
9.8307724e-10
5.68904e-07
8.170771e-10
5.6887358e-07
6.7399805e-10
5.6885066e-07
5.4826698e-10
5.688333e-07
4.3562342e-10
5.6882021e-07
3.3271384e-10
5.6881048e-07
2.3681109e-10
5.6880347e-07
1.4561235e-10
5.6879876e-07
5.7086832e-11
5.6879609e-07
-3.0648117e-11
5.687953e-07
-1.1943454e-10
5.6879635e-07
-2.1117862e-10
5.6879931e-07
-3.0795757e-10
5.6880434e-07
-4.1215193e-10
5.6881176e-07
-5.2660844e-10
5.6882203e-07
-6.5486087e-10
5.6883582e-07
-8.0144275e-10
5.6885416e-07
-9.723481e-10
5.6887849e-07
-1.1757381e-09
5.6891098e-07
-1.4231139e-09
5.6895497e-07
-1.7312868e-09
5.6901577e-07
-2.1252348e-09
5.6910156e-07
-2.6448393e-09
5.6922723e-07
-3.3725137e-09
5.6943531e-07
-4.4638086e-09
5.6979895e-07
-6.0091269e-09
5.70253e-07
-9.5081188e-09
5.7220671e-07
-2.9575971e-08
5.8877561e-07
5.3913196e-07
5.9672543e-08
4.6913949e-07
3.666601e-08
6.194176e-07
2.2628189e-08
5.8751039e-07
1.6253603e-08
5.7701077e-07
1.2290543e-08
5.7405516e-07
9.6062919e-09
5.7230576e-07
7.6775078e-09
5.7127842e-07
6.2361554e-09
5.7062881e-07
5.1266383e-09
5.7018712e-07
4.2488841e-09
5.6987804e-07
3.5375584e-09
5.6965609e-07
2.9484924e-09
5.6949306e-07
2.4506409e-09
5.6937143e-07
2.0215289e-09
5.6927977e-07
1.6444418e-09
5.6921039e-07
1.3066025e-09
5.6915805e-07
9.9795395e-10
5.6911913e-07
7.1031779e-10
5.690911e-07
4.367886e-10
5.6907229e-07
1.7127491e-10
5.690616e-07
-9.1869372e-11
5.6905844e-07
-3.5816722e-10
5.6906265e-07
-6.3333055e-10
5.6907447e-07
-9.2359153e-10
5.6909461e-07
-1.2360889e-09
5.6912426e-07
-1.5793595e-09
5.691653e-07
-1.9640004e-09
5.6922047e-07
-2.4036073e-09
5.6929376e-07
-2.916163e-09
5.6939104e-07
-3.5261595e-09
5.6952097e-07
-4.2680155e-09
5.6969682e-07
-5.1920958e-09
5.6993985e-07
-6.3750246e-09
5.7028449e-07
-7.9355184e-09
5.7078772e-07
-1.0076799e-08
5.7157659e-07
-1.3204989e-08
5.7292714e-07
-1.8134855e-08
5.7518287e-07
-2.8177091e-08
5.8224894e-07
-4.5803012e-08
6.0640153e-07
4.9332895e-07
6.0008861e-08
4.0913063e-07
5.0487314e-08
6.2893915e-07
3.3370714e-08
6.0462699e-07
2.4817729e-08
5.8556376e-07
1.9323314e-08
5.7954958e-07
1.5331579e-08
5.762975e-07
1.2360812e-08
5.7424919e-07
1.0101656e-08
5.7288796e-07
8.340737e-09
5.7194804e-07
6.9349337e-09
5.7128384e-07
5.7881674e-09
5.7080285e-07
4.8336733e-09
5.7044756e-07
4.023687e-09
5.7018142e-07
3.3232232e-09
5.6998023e-07
2.7060184e-09
5.698276e-07
2.1518406e-09
5.6971223e-07
1.6446646e-09
5.696263e-07
1.1713913e-09
5.6956438e-07
7.2091369e-10
5.6952277e-07
2.8340393e-10
5.6949911e-07
-1.5026429e-10
5.6949211e-07
-5.8902153e-10
5.695014e-07
-1.0420961e-09
5.6952755e-07
-1.5195339e-09
5.6957204e-07
-2.0328016e-09
5.6963753e-07
-2.5955457e-09
5.6972804e-07
-3.2246045e-09
5.6984952e-07
-3.9414189e-09
5.7001058e-07
-4.7740827e-09
5.7022371e-07
-5.7604056e-09
5.705073e-07
-6.9525724e-09
5.7088899e-07
-8.4247805e-09
5.7141206e-07
-1.0286428e-08
5.7214613e-07
-1.2699385e-08
5.7320068e-07
-1.5896808e-08
5.7477402e-07
-2.0240583e-08
5.7727092e-07
-2.6708853e-08
5.8165113e-07
-3.8948344e-08
5.9448843e-07
-4.8167474e-08
6.1562066e-07
4.4516147e-07
5.4879083e-08
3.5425155e-07
5.7452238e-08
6.2636599e-07
4.0467605e-08
6.2161162e-07
3.0778822e-08
5.9525254e-07
2.4643125e-08
5.8568527e-07
1.9952382e-08
5.8098824e-07
1.6313038e-08
5.7788853e-07
1.3466637e-08
5.7573436e-07
1.1201065e-08
5.7421361e-07
9.3646178e-09
5.7312029e-07
7.8494104e-09
5.7231806e-07
6.5769551e-09
5.7172001e-07
5.4894063e-09
5.7126897e-07
4.5434518e-09
5.7092619e-07
3.7059976e-09
5.7066505e-07
2.9511869e-09
5.7046704e-07
2.258303e-09
5.7031919e-07
1.6102509e-09
5.7021243e-07
9.9242633e-10
5.7014059e-07
3.918352e-10
5.700997e-07
-2.0362929e-10
5.7008757e-07
-8.0582667e-10
5.701036e-07
-1.4269906e-09
5.7014871e-07
-2.0803831e-09
5.7022544e-07
-2.7810453e-09
5.7033819e-07
-3.5467249e-09
5.7049372e-07
-4.3990842e-09
5.7070188e-07
-5.3653322e-09
5.7097683e-07
-6.4805056e-09
5.7133888e-07
-7.7907291e-09
5.7181752e-07
-9.357782e-09
5.7245604e-07
-1.1265484e-08
5.7331976e-07
-1.3630099e-08
5.7451075e-07
-1.6612971e-08
5.7618355e-07
-2.0411869e-08
5.7857291e-07
-2.5293468e-08
5.8215252e-07
-3.2517716e-08
5.8887538e-07
-4.5101326e-08
6.0707204e-07
-4.654962e-08
6.1706895e-07
3.9861185e-07
4.7965795e-08
3.0628575e-07
6.0076602e-08
6.1425519e-07
4.5400227e-08
6.3628799e-07
3.4875435e-08
6.0577733e-07
2.839994e-08
5.9216077e-07
2.3419705e-08
5.8596847e-07
1.9434387e-08
5.8187385e-07
1.6229248e-08
5.789395e-07
1.3619774e-08
5.7682309e-07
1.1466558e-08
5.7527351e-07
9.6644733e-09
5.7412014e-07
8.1334817e-09
5.73251e-07
6.8125604e-09
5.7258989e-07
5.6546976e-09
5.7208405e-07
4.6231188e-09
5.7169663e-07
3.6885384e-09
5.7140162e-07
2.8271182e-09
5.7118061e-07
2.0189296e-09
5.7102062e-07
1.2467686e-09
5.7091275e-07
4.9521048e-10
5.7085126e-07
-2.5018293e-10
5.7083297e-07
-1.0035731e-09
5.7085699e-07
-1.7795355e-09
5.7092467e-07
-2.593782e-09
5.7103968e-07
-3.4639767e-09
5.7120838e-07
-4.41072e-09
5.7144046e-07
-5.4587885e-09
5.7174995e-07
-6.6387445e-09
5.7215678e-07
-7.9890627e-09
5.726892e-07
-9.5590039e-09
5.7338746e-07
-1.1412391e-08
5.7430943e-07
-1.3632034e-08
5.7553941e-07
-1.6326233e-08
5.7720495e-07
-1.9638591e-08
5.794959e-07
-2.3739366e-08
5.8267369e-07
-2.8931479e-08
5.8734463e-07
-3.6791747e-08
5.9673565e-07
-4.8464339e-08
6.1874463e-07
-4.3194536e-08
6.1179915e-07
3.5541732e-07
4.0336087e-08
2.6594967e-07
5.8994199e-08
5.9559708e-07
4.8330222e-08
6.4695197e-07
3.7588213e-08
6.1651934e-07
3.092903e-08
5.9881995e-07
2.5894149e-08
5.9100336e-07
2.1780162e-08
5.8598783e-07
1.8392218e-08
5.8232745e-07
1.5577661e-08
5.7963765e-07
1.3214441e-08
5.7763673e-07
1.1206621e-08
5.7612796e-07
9.4789087e-09
5.7497872e-07
7.9721631e-09
5.7409663e-07
6.6394809e-09
5.7341673e-07
5.4432359e-09
5.7289287e-07
4.3528114e-09
5.7249205e-07
3.3428202e-09
5.721906e-07
2.3917055e-09
5.7197173e-07
1.4806223e-09
5.7182384e-07
5.9251774e-10
5.7173937e-07
-2.8866017e-10
5.7171415e-07
-1.1786793e-09
5.7174701e-07
-2.0937265e-09
5.7183972e-07
-3.0511355e-09
5.7199709e-07
-4.0701931e-09
5.7222744e-07
-5.1730851e-09
5.7254335e-07
-6.3860484e-09
5.7296291e-07
-7.7408049e-09
5.7351154e-07
-9.2763602e-09
5.7422475e-07
-1.104131e-08
5.7515241e-07
-1.3096875e-08
5.7636499e-07
-1.5520317e-08
5.7796285e-07
-1.8409038e-08
5.8009367e-07
-2.1887209e-08
5.8297408e-07
-2.6110615e-08
5.8689709e-07
-3.1488781e-08
5.9272279e-07
-3.9655118e-08
6.0490199e-07
-4.9172893e-08
6.2826241e-07
-3.857874e-08
6.01205e-07
3.1683858e-07
3.2862743e-08
2.3308693e-07
5.5250138e-08
5.7320969e-07
4.9232407e-08
6.529697e-07
3.9061671e-08
6.2669008e-07
3.2430826e-08
6.0545079e-07
2.7518946e-08
5.9591524e-07
2.3438902e-08
5.9006788e-07
2.0003122e-08
5.8576323e-07
1.7095053e-08
5.8254571e-07
1.4612473e-08
5.8011931e-07
1.2471595e-08
5.7826884e-07
1.0605169e-08
5.7684514e-07
8.9589548e-09
5.7574285e-07
7.4887616e-09
5.7488692e-07
6.1582604e-09
5.7422337e-07
4.9372261e-09
5.7371308e-07
3.8000951e-09
5.7332773e-07
2.724788e-09
5.7304704e-07
1.6917338e-09
5.7285689e-07
6.8303858e-10
5.7274806e-07
-3.1824643e-10
5.7271543e-07
-1.3287992e-09
5.7275756e-07
-2.3656926e-09
5.7287661e-07
-3.4470783e-09
5.7307848e-07
-4.5929273e-09
5.7337329e-07
-5.8258781e-09
5.7377631e-07
-7.1722331e-09
5.7430927e-07
-8.6631602e-09
5.7500247e-07
-1.0336142e-08
5.7589773e-07
-1.2236752e-08
5.7705302e-07
-1.4421045e-08
5.7854929e-07
-1.6958446e-08
5.8050025e-07
-1.9933797e-08
5.8306902e-07
-2.3447873e-08
5.8648815e-07
-2.7642097e-08
5.9109132e-07
-3.3034904e-08
5.981156e-07
-4.1011225e-08
6.1287831e-07
-4.768823e-08
6.3493941e-07
-3.3376341e-08
5.8689311e-07
2.8346223e-07
2.6189041e-08
2.068979e-07
5.0132834e-08
5.492659e-07
4.8493745e-08
6.5460879e-07
3.9491227e-08
6.3569259e-07
3.3077639e-08
6.1186438e-07
2.8412245e-08
6.0058063e-07
2.4493153e-08
5.9398697e-07
2.1118506e-08
5.8913787e-07
1.8207423e-08
5.854568e-07
1.5680676e-08
5.8264605e-07
1.346913e-08
5.8048039e-07
1.1515606e-08
5.7879867e-07
9.77259e-09
5.7748586e-07
8.2002925e-09
5.7645922e-07
6.7651834e-09
5.7565848e-07
5.4387187e-09
5.7503954e-07
4.1962527e-09
5.7457019e-07
3.0161147e-09
5.7422718e-07
1.8788111e-09
5.739942e-07
7.6632238e-10
5.7386055e-07
-3.3853302e-10
5.7382029e-07
-1.452695e-09
5.7387173e-07
-2.5934544e-09
5.7401737e-07
-3.7790559e-09
5.7426408e-07
-5.0293407e-09
5.7462357e-07
-6.3664612e-09
5.7511343e-07
-7.8156934e-09
5.757585e-07
-9.4063844e-09
5.7659316e-07
-1.117306e-08
5.7766441e-07
-1.3156693e-08
5.7903665e-07
-1.5406354e-08
5.8079895e-07
-1.7981325e-08
5.8307522e-07
-2.0951062e-08
5.8603876e-07
-2.4390753e-08
5.8992784e-07
-2.8435933e-08
5.951365e-07
-3.3691871e-08
6.0337154e-07
-4.1063162e-08
6.202496e-07
-4.4797679e-08
6.3867393e-07
-2.8204638e-08
5.7030007e-07
2.552576e-07
2.0570946e-08
1.8632696e-07
4.4583324e-08
5.2525353e-07
4.6643111e-08
6.5254901e-07
3.915338e-08
6.4318232e-07
3.308403e-08
6.1793373e-07
2.8717865e-08
6.0494679e-07
2.5038434e-08
5.976664e-07
2.1804119e-08
5.9237219e-07
1.8959603e-08
5.8830131e-07
1.6448835e-08
5.8515682e-07
1.4218316e-08
5.8271091e-07
1.2221865e-08
5.8079512e-07
1.0419702e-08
5.7928803e-07
8.7774715e-09
5.7810145e-07
7.2654195e-09
5.7717053e-07
5.8575805e-09
5.7644738e-07
4.5310382e-09
5.7589673e-07
3.2652588e-09
5.7549296e-07
2.0414853e-09
5.7521797e-07
8.421794e-10
5.7505985e-07
-3.4949785e-10
5.7501196e-07
-1.5501824e-09
5.7507241e-07
-2.7768048e-09
5.7524399e-07
-4.0470911e-09
5.7553436e-07
-5.3800873e-09
5.7595657e-07
-6.796726e-09
5.7653006e-07
-8.3204427e-09
5.7728222e-07
-9.9778614e-09
5.7825058e-07
-1.1799561e-08
5.7948611e-07
-1.382087e-08
5.8105796e-07
-1.6082777e-08
5.8306085e-07
-1.8633131e-08
5.8562558e-07
-2.1525039e-08
5.8893066e-07
-2.4812516e-08
5.9321532e-07
-2.8641789e-08
5.9896577e-07
-3.366022e-08
6.0838997e-07
-4.0144248e-08
6.2673363e-07
-4.1159305e-08
6.3968899e-07
-2.3417009e-08
5.5255777e-07
2.3184059e-07
1.6015518e-08
1.7031145e-07
3.9144037e-08
5.0212503e-07
4.4118745e-08
6.475743e-07
3.828985e-08
6.4901122e-07
3.265413e-08
6.2356945e-07
2.8591865e-08
6.0900906e-07
2.5183919e-08
6.0107435e-07
2.2136333e-08
5.9541977e-07
1.9405218e-08
5.9103243e-07
1.6954515e-08
5.8760752e-07
1.4745247e-08
5.8492017e-07
1.2741817e-08
5.8279855e-07
1.0912313e-08
5.8111753e-07
9.2282149e-09
5.7978555e-07
7.6640483e-09
5.787347e-07
6.1969669e-09
5.7791446e-07
4.8063244e-09
5.7728738e-07
3.4732483e-09
5.7682603e-07
2.1802178e-09
5.76511e-07
9.10656e-10
5.7632942e-07
-3.5146698e-10
5.7627409e-07
-1.622021e-09
5.7634296e-07
-2.9171078e-09
5.7653908e-07
-4.2534512e-09
5.7687071e-07
-5.6487969e-09
5.7735191e-07
-7.1223268e-09
5.7800359e-07
-8.6950864e-09
5.7885498e-07
-1.0390423e-08
5.7994591e-07
-1.2234443e-08
5.8133013e-07
-1.4256429e-08
5.8307995e-07
-1.6489204e-08
5.8529363e-07
-1.8969522e-08
5.8810589e-07
-2.1735521e-08
5.9169666e-07
-2.4827675e-08
5.9630747e-07
-2.8414877e-08
6.0255297e-07
-3.3124316e-08
6.1309941e-07
-3.8549409e-08
6.3215872e-07
-3.72156e-08
6.3835518e-07
-1.9182854e-08
5.3452502e-07
2.1265773e-07
1.2423796e-08
1.5788766e-07
3.4114073e-08
4.8043477e-07
4.1249859e-08
6.4043852e-07
3.7078795e-08
6.5318228e-07
3.1942074e-08
6.2870617e-07
2.8168971e-08
6.1278216e-07
2.5033242e-08
6.0421008e-07
2.2192396e-08
5.9826062e-07
1.9601365e-08
5.9362346e-07
1.7239564e-08
5.8996932e-07
1.508036e-08
5.8707938e-07
1.309744e-08
5.8478147e-07
1.1266165e-08
5.829488e-07
9.5636813e-09
5.8148803e-07
7.9688713e-09
5.8032951e-07
6.4622227e-09
5.7942111e-07
5.0256505e-09
5.7872395e-07
3.6422696e-09
5.7820941e-07
2.2961384e-09
5.7785713e-07
9.719889e-10
5.7765357e-07
-3.450505e-10
5.7759112e-07
-1.6697337e-09
5.7766765e-07
-3.0169833e-09
5.7788633e-07
-4.4021707e-09
5.7825589e-07
-5.8413952e-09
5.7879114e-07
-7.3517573e-09
5.7951396e-07
-8.9516181e-09
5.8045484e-07
-1.0660831e-08
5.8165512e-07
-1.2500953e-08
5.8317025e-07
-1.4495402e-08
5.8507439e-07
-1.6669493e-08
5.8746772e-07
-1.9050114e-08
5.9048651e-07
-2.1662759e-08
5.9430931e-07
-2.4541624e-08
5.9918634e-07
-2.788126e-08
6.0589261e-07
-3.2226851e-08
6.17445e-07
-3.6520784e-08
6.3645265e-07
-3.3267838e-08
6.3510223e-07
-1.5563851e-08
5.1682104e-07
1.9709388e-07
9.6571612e-09
1.4823052e-07
2.9645743e-08
4.6044621e-07
3.8283105e-08
6.3180117e-07
3.5658381e-08
6.55807e-07
3.1059038e-08
6.3330551e-07
2.7553547e-08
6.1628765e-07
2.467297e-08
6.0709065e-07
2.2041081e-08
6.0089251e-07
1.9601914e-08
5.9606263e-07
1.7345498e-08
5.9222574e-07
1.5255219e-08
5.8916966e-07
1.3312493e-08
5.8672419e-07
1.1498986e-08
5.8476231e-07
9.7969694e-09
5.8319005e-07
8.1894388e-09
5.8193704e-07
6.6601713e-09
5.8095038e-07
5.1937201e-09
5.801904e-07
3.7753391e-09
5.7962779e-07
2.3908624e-09
5.7924161e-07
1.0265526e-09
5.7901788e-07
-3.3106932e-10
5.7894875e-07
-1.6954032e-09
5.7903198e-07
-3.0799575e-09
5.7927088e-07
-4.4985294e-09
5.7967446e-07
-5.965375e-09
5.8025798e-07
-7.4953614e-09
5.8104394e-07
-9.1040897e-09
5.8206357e-07
-1.0807971e-08
5.8335901e-07
-1.2624256e-08
5.8498653e-07
-1.4571027e-08
5.8702117e-07
-1.6667022e-08
5.8956372e-07
-1.8930722e-08
5.9275021e-07
-2.1377633e-08
5.9675622e-07
-2.4041888e-08
6.018506e-07
-2.7139802e-08
6.0899052e-07
-3.1085982e-08
6.2139118e-07
-3.4262504e-08
6.3962918e-07
-2.9521165e-08
6.3036089e-07
-1.2555363e-08
4.9985524e-07
1.8453852e-07
7.5667906e-09
1.4066374e-07
2.5786708e-08
4.4222632e-07
3.5389342e-08
6.2219855e-07
3.4138463e-08
6.5705788e-07
3.0088011e-08
6.3735596e-07
2.6825582e-08
6.1955008e-07
2.4172783e-08
6.0974345e-07
2.1740164e-08
6.0332512e-07
1.9454143e-08
5.9834865e-07
1.731037e-08
5.9436951e-07
1.5299962e-08
5.9118006e-07
1.3410537e-08
5.8861362e-07
1.1628977e-08
5.8654387e-07
9.9419646e-09
5.8487706e-07
8.3361819e-09
5.8354282e-07
6.798472e-09
5.8248809e-07
5.3159428e-09
5.8167293e-07
3.8759983e-09
5.8106774e-07
2.4663201e-09
5.8065128e-07
1.0748111e-09
5.8040938e-07
-3.1048521e-10
5.8033404e-07
-1.7014787e-09
5.8042297e-07
-3.1101345e-09
5.8067954e-07
-4.5485672e-09
5.811129e-07
-6.0291197e-09
5.8173854e-07
-7.5644177e-09
5.8257924e-07
-9.167389e-09
5.8366654e-07
-1.0851229e-08
5.8504285e-07
-1.2629309e-08
5.8676461e-07
-1.451506e-08
5.8890692e-07
-1.6521667e-08
5.9157032e-07
-1.8660728e-08
5.9488927e-07
-2.0940749e-08
5.9903624e-07
-2.3400909e-08
6.0431076e-07
-2.6270867e-08
6.1186048e-07
-2.9802777e-08
6.2492309e-07
-3.1936219e-08
6.4176262e-07
-2.6097927e-08
6.245226e-07
-1.0110743e-08
4.8386805e-07
1.7442778e-07
6.0121107e-09
1.3465165e-07
2.2515189e-08
4.2572328e-07
3.2670427e-08
6.1204334e-07
3.2599479e-08
6.5712883e-07
2.9089082e-08
6.4086635e-07
2.6045242e-08
6.2259392e-07
2.3588016e-08
6.1220068e-07
2.133722e-08
6.0557592e-07
1.9198242e-08
6.0048762e-07
1.7167619e-08
5.9640014e-07
1.5241972e-08
5.9310571e-07
1.3413668e-08
5.9044192e-07
1.1673719e-08
5.8828382e-07
1.001245e-08
5.8653833e-07
8.4197111e-09
5.8513556e-07
6.8850855e-09
5.8402271e-07
5.398045e-09
5.8315997e-07
3.9480515e-09
5.8251773e-07
2.5246084e-09
5.8207473e-07
1.1172765e-09
5.8181672e-07
-2.8433752e-10
5.8173566e-07
-1.6906052e-09
5.8182924e-07
-3.111909e-09
5.8210084e-07
-4.5586657e-09
5.8255965e-07
-6.0413345e-09
5.8322121e-07
-7.5703977e-09
5.841083e-07
-9.156305e-09
5.8525244e-07
-1.0809369e-08
5.8669591e-07
-1.2539603e-08
5.8849485e-07
-1.4356551e-08
5.9072386e-07
-1.6268902e-08
5.9348267e-07
-1.8282954e-08
5.9690333e-07
-2.0403296e-08
6.0115658e-07
-2.2677707e-08
6.0658517e-07
-2.5338047e-08
6.1452082e-07
-2.8457833e-08
6.2804287e-07
-2.9656127e-08
6.4296091e-07
-2.3053394e-08
6.1791987e-07
-8.1615439e-09
4.689762e-07
1.6626623e-07
4.8704179e-09
1.2978126e-07
1.9772635e-08
4.1082111e-07
3.0174631e-08
6.0164137e-07
3.1093774e-08
6.5620969e-07
2.8101745e-08
6.4385838e-07
2.5254815e-08
6.2544085e-07
2.2960792e-08
6.144947e-07
2.0870298e-08
6.0766642e-07
1.8867484e-08
6.0249044e-07
1.69458e-08
5.9832182e-07
1.5105317e-08
5.9494619e-07
1.3341843e-08
5.922054e-07
1.1649498e-08
5.8997617e-07
1.0021491e-08
5.8816634e-07
8.4502961e-09
5.8670676e-07
6.9278569e-09
5.8554515e-07
5.4457554e-09
5.8464207e-07
3.9953493e-09
5.8396814e-07
2.5678678e-09
5.8350221e-07
1.1544751e-09
5.8323011e-07
-2.5368815e-10
5.8314382e-07
-1.665478e-09
5.8324103e-07
-3.0897257e-09
5.8352509e-07
-4.535208e-09
5.8400514e-07
-6.0106027e-09
5.846966e-07
-7.5244183e-09
5.8562212e-07
-9.0848912e-09
5.8681292e-07
-1.0699842e-08
5.8831086e-07
-1.2376493e-08
5.901715e-07
-1.4121277e-08
5.9246865e-07
-1.5939418e-08
5.9530081e-07
-1.7833446e-08
5.9879735e-07
-1.9806836e-08
6.0312997e-07
-2.1917703e-08
6.0869603e-07
-2.4388087e-08
6.169912e-07
-2.7109903e-08
6.3076469e-07
-2.749434e-08
6.4334535e-07
-2.0396936e-08
6.1082246e-07
-6.6321173e-09
4.5521138e-07
1.5963411e-07
4.0393523e-09
1.2574193e-07
1.7486569e-08
3.9737395e-07
2.7915918e-08
5.9121207e-07
2.9651979e-08
6.5447364e-07
2.7149202e-08
6.4636115e-07
2.4481494e-08
6.2810855e-07
2.2321256e-08
6.1665494e-07
2.0368473e-08
6.096192e-07
1.8488441e-08
6.0437047e-07
1.6668544e-08
6.0014172e-07
1.4910527e-08
5.9670421e-07
1.3212534e-08
5.9390339e-07
1.1570909e-08
5.9161779e-07
9.9810421e-09
5.897562e-07
8.4375066e-09
5.8825029e-07
6.9342122e-09
5.8704845e-07
5.4645669e-09
5.8611172e-07
4.021621e-09
5.8541108e-07
2.5981848e-09
5.8492564e-07
1.1869219e-09
5.8464137e-07
-2.1957617e-10
5.8455032e-07
-1.6287255e-09
5.8465018e-07
-3.0478907e-09
5.8494426e-07
-4.4843185e-09
5.8544156e-07
-5.9450574e-09
5.8615734e-07
-7.4368571e-09
5.8711392e-07
-8.9660404e-09
5.883421e-07
-1.053835e-08
5.8988317e-07
-1.2158771e-08
5.9179192e-07
-1.3831361e-08
5.9414124e-07
-1.5558812e-08
5.9702826e-07
-1.7341248e-08
6.0057979e-07
-1.918334e-08
6.0497206e-07
-2.1153628e-08
6.1066632e-07
-2.3452984e-08
6.1929056e-07
-2.5798751e-08
6.3311046e-07
-2.5490626e-08
6.4303722e-07
-1.8110027e-08
6.0344186e-07
-5.448091e-09
4.4254945e-07
1.5418602e-07
3.4362381e-09
1.2230573e-07
1.5583179e-08
3.8522709e-07
2.5887672e-08
5.8090763e-07
2.8289514e-08
6.5207181e-07
2.6243324e-08
6.4840733e-07
2.3741169e-08
6.306107e-07
2.1689718e-08
6.1870639e-07
1.9852964e-08
6.1145595e-07
1.808153e-08
6.061419e-07
1.6354756e-08
6.0186849e-07
1.467458e-08
5.9838439e-07
1.3040597e-08
5.9553737e-07
1.1450653e-08
5.9320773e-07
9.9017196e-09
5.9130514e-07
8.3899871e-09
5.8976202e-07
6.9109564e-09
5.8852748e-07
5.4595718e-09
5.875631e-07
4.030354e-09
5.868403e-07
2.6175225e-09
5.8633848e-07
1.215102e-09
5.8604379e-07
-1.8298278e-10
5.859484e-07
-1.5828211e-09
5.8605002e-07
-2.9904325e-09
5.8635187e-07
-4.4116772e-09
5.8686281e-07
-5.8521563e-09
5.8759782e-07
-7.3170962e-09
5.8857886e-07
-8.8112151e-09
5.8983622e-07
-1.0338577e-08
5.9141053e-07
-1.1902447e-08
5.9335579e-07
-1.3505148e-08
5.9574394e-07
-1.5147631e-08
5.9867075e-07
-1.6828787e-08
6.0226095e-07
-1.8556228e-08
6.066995e-07
-2.040772e-08
6.1251781e-07
-2.2553238e-08
6.2143607e-07
-2.4549245e-08
6.3510646e-07
-2.3661827e-08
6.421498e-07
-1.6158692e-08
5.9593873e-07
-4.5410539e-09
4.3093181e-07
1.4964497e-07
2.9964442e-09
1.1930933e-07
1.3993999e-08
3.7422962e-07
2.4072039e-08
5.7082966e-07
2.7011537e-08
6.4913234e-07
2.5388503e-08
6.5003036e-07
2.3041866e-08
6.3295733e-07
2.1079041e-08
6.2066921e-07
1.933865e-08
6.1319634e-07
1.7661931e-08
6.0781862e-07
1.6019114e-08
6.0351131e-07
1.4411126e-08
5.9999237e-07
1.2838322e-08
5.9711018e-07
1.1299494e-08
5.9474656e-07
9.7927019e-09
5.9281193e-07
8.3153383e-09
5.9123939e-07
6.8641562e-09
5.8997866e-07
5.4353601e-09
5.889919e-07
4.0247181e-09
5.8825094e-07
2.6276749e-09
5.8773552e-07
1.2394611e-09
5.87432e-07
-1.4480581e-10
5.8733267e-07
-1.5300235e-09
5.8743524e-07
-2.9210095e-09
5.8774285e-07
-4.3223997e-09
5.882642e-07
-5.738542e-09
5.8901396e-07
-7.173378e-09
5.9001369e-07
-8.6303173e-09
5.9129316e-07
-1.0112113e-08
5.9289233e-07
-1.1620757e-08
5.9486443e-07
-1.3157375e-08
5.9728056e-07
-1.4721829e-08
6.002352e-07
-1.631275e-08
6.0385187e-07
-1.7941879e-08
6.0832863e-07
-1.9694085e-08
6.1427002e-07
-2.1700725e-08
6.2344271e-07
-2.3374879e-08
6.3678062e-07
-2.2009124e-08
6.4078405e-07
-1.4501896e-08
5.884315e-07
-3.8511077e-09
4.2028102e-07
1.4579386e-07
2.6711323e-09
1.1663825e-07
1.2659286e-08
3.6424157e-07
2.2446274e-08
5.6104276e-07
2.5816691e-08
6.4576195e-07
2.4584348e-08
6.512627e-07
2.2386304e-08
6.3515537e-07
2.049664e-08
6.2255887e-07
1.8835511e-08
6.1485747e-07
1.7240594e-08
6.0941354e-07
1.5672724e-08
6.0507918e-07
1.4130879e-08
6.0153422e-07
1.2615646e-08
5.9862541e-07
1.1126346e-08
5.9623586e-07
9.6617428e-09
5.9427653e-07
8.2200881e-09
5.9268104e-07
6.7990924e-09
5.9139966e-07
5.3959704e-09
5.9039502e-07
4.0075246e-09
5.8963939e-07
2.6302429e-09
5.891128e-07
1.2603999e-09
5.8880185e-07
-1.0584331e-10
5.8869891e-07
-1.4723393e-09
5.8880173e-07
-2.8428559e-09
5.8911337e-07
-4.2209735e-09
5.8964232e-07
-5.6099795e-09
5.9040297e-07
-7.0127582e-09
5.9141647e-07
-8.4316816e-09
5.9271208e-07
-9.8685139e-09
5.9432916e-07
-1.1324349e-08
5.9632027e-07
-1.2799547e-08
5.9875575e-07
-1.4293403e-08
6.0172906e-07
-1.5805064e-08
6.0536353e-07
-1.7351069e-08
6.0987464e-07
-1.9020669e-08
6.1593962e-07
-2.0900945e-08
6.2532299e-07
-2.2280797e-08
6.3816047e-07
-2.0523822e-08
6.3902707e-07
-1.3097132e-08
5.8100481e-07
-3.3278465e-09
4.1051173e-07
1.4246601e-07
2.4245616e-09
1.1421375e-07
1.1529127e-08
3.5513713e-07
2.0986827e-08
5.5158516e-07
2.4699997e-08
6.4204882e-07
2.3827695e-08
6.5213501e-07
2.1773782e-08
6.3720928e-07
1.9946054e-08
6.243866e-07
1.8349836e-08
6.1645369e-07
1.6825134e-08
6.1093824e-07
1.5323766e-08
6.0658054e-07
1.3842056e-08
6.0301593e-07
1.2380429e-08
6.0008703e-07
1.0938438e-08
5.9767785e-07
9.5152579e-09
5.9569971e-07
8.1097268e-09
5.9408657e-07
6.7202658e-09
5.9278912e-07
5.3448807e-09
5.917704e-07
3.981215e-09
5.9100305e-07
2.6266261e-09
5.9046739e-07
1.2782745e-09
5.901502e-07
-6.6784567e-11
5.9004397e-07
-1.4115063e-09
5.9014645e-07
-2.7587619e-09
5.9046062e-07
-4.1112405e-09
5.9099479e-07
-5.4713525e-09
5.9176308e-07
-6.8411331e-09
5.9278625e-07
-8.2221546e-09
5.940931e-07
-9.6154636e-09
5.9572247e-07
-1.1021562e-08
5.9772637e-07
-1.2440377e-08
6.0017457e-07
-1.3871039e-08
6.0315972e-07
-1.5313805e-08
6.0680629e-07
-1.6790221e-08
6.1135105e-07
-1.8390898e-08
6.1754029e-07
-2.0154911e-08
6.27087e-07
-2.1266463e-08
6.3927202e-07
-1.9191886e-08
6.3695249e-07
-1.1904245e-08
5.7371717e-07
-2.9302647e-09
4.0153775e-07
1.3953575e-07
2.2313522e-09
1.1198247e-07
1.0563065e-08
3.4680557e-07
1.9671633e-08
5.4247673e-07
2.3654899e-08
6.3806561e-07
2.3114069e-08
6.5267584e-07
2.1201605e-08
6.3912173e-07
1.942819e-08
6.2616001e-07
1.7885201e-08
6.1799668e-07
1.6420608e-08
6.1240283e-07
1.4978084e-08
6.0802307e-07
1.3550811e-08
6.044432e-07
1.2138762e-08
6.0149908e-07
1.0741517e-08
5.990751e-07
9.3584542e-09
5.9708277e-07
7.9887844e-09
5.9545624e-07
6.6314394e-09
5.9414646e-07
5.2850303e-09
5.9311681e-07
3.9478698e-09
5.9234021e-07
2.6180269e-09
5.9179723e-07
1.2933991e-09
5.9147483e-07
-2.820756e-11
5.9136558e-07
-1.3489932e-09
5.9146724e-07
-2.6710779e-09
5.9178271e-07
-3.9964144e-09
5.9232013e-07
-5.3267036e-09
5.9309337e-07
-6.6633153e-09
5.9412286e-07
-8.0072252e-09
5.9543701e-07
-9.3589846e-09
5.9707423e-07
-1.071874e-08
5.9908612e-07
-1.2086235e-08
6.0154206e-07
-1.3460733e-08
6.0453422e-07
-1.4844029e-08
6.0818959e-07
-1.626251e-08
6.1276953e-07
-1.7805057e-08
6.1908284e-07
-1.9460725e-08
6.2874267e-07
-2.0327858e-08
6.4013915e-07
-1.7997075e-08
6.3462171e-07
-1.0887361e-08
5.6660746e-07
-2.6259079e-09
3.932763e-07
1.3690984e-07
2.0740187e-09
1.0990854e-07
9.7289921e-09
3.3915078e-07
1.8481158e-08
5.3372473e-07
2.2674545e-08
6.3387229e-07
2.2438669e-08
6.5291172e-07
2.0666112e-08
6.4089428e-07
1.8942288e-08
6.2788383e-07
1.7443282e-08
6.1949568e-07
1.6030164e-08
6.1381595e-07
1.4639697e-08
6.0941354e-07
1.3261629e-08
6.0582127e-07
1.189526e-08
6.0286545e-07
1.0540065e-08
6.0043029e-07
9.1954791e-09
5.9842736e-07
7.8609311e-09
5.9679079e-07
6.5357039e-09
5.9547169e-07
5.2188595e-09
5.9443366e-07
3.9092327e-09
5.9364984e-07
2.6054632e-09
5.93101e-07
1.3060499e-09
5.9277424e-07
9.4181915e-12
5.9266221e-07
-1.2860098e-09
5.9276267e-07
-2.5817375e-09
5.9307844e-07
-3.8791214e-09
5.9361751e-07
-5.1793011e-09
5.9439355e-07
-6.4831392e-09
5.954267e-07
-7.7911823e-09
5.9674505e-07
-9.103662e-09
5.9838671e-07
-1.0420547e-08
6.0040301e-07
-1.1741574e-08
6.0286309e-07
-1.3066355e-08
6.05859e-07
-1.4398504e-08
6.0952174e-07
-1.5768802e-08
6.1413983e-07
-1.7261409e-08
6.2057545e-07
-1.8814796e-08
6.3029606e-07
-1.9459082e-08
6.4078344e-07
-1.6922882e-08
6.3208551e-07
-1.0015416e-08
5.5969999e-07
-2.3896622e-09
3.8565055e-07
1.3452018e-07
1.9408903e-09
1.0796775e-07
9.0017866e-09
3.320901e-07
1.7398688e-08
5.2532802e-07
2.1752493e-08
6.2951858e-07
2.1796932e-08
6.5286729e-07
2.016334e-08
6.4252786e-07
1.8486625e-08
6.2956054e-07
1.7024476e-08
6.2095783e-07
1.5655571e-08
6.1518486e-07
1.4311246e-08
6.1075786e-07
1.297768e-08
6.0715484e-07
1.1653335e-08
6.041898e-07
1.03375e-08
6.0174613e-07
9.029574e-09
5.9973528e-07
7.7290879e-09
5.9809128e-07
6.4355542e-09
5.9676522e-07
5.1483615e-09
5.9572085e-07
3.8667424e-09
5.9493146e-07
2.5897853e-09
5.9437796e-07
1.316471e-09
5.9404755e-07
4.5724471e-11
5.9393295e-07
-1.2235271e-09
5.9403192e-07
-2.4922922e-09
5.943472e-07
-3.7614552e-09
5.9488668e-07
-5.0317221e-09
5.9566381e-07
-6.3035802e-09
5.9669856e-07
-7.577282e-09
5.9801876e-07
-8.8528737e-09
5.996623e-07
-1.0130274e-08
6.0168041e-07
-1.1409331e-08
6.0414215e-07
-1.2690159e-08
6.0713982e-07
-1.3978347e-08
6.1080993e-07
-1.5308408e-08
6.1546989e-07
-1.6757031e-08
6.2202407e-07
-1.8212703e-08
6.3175173e-07
-1.8653473e-08
6.4122421e-07
-1.5953721e-08
6.2938576e-07
-9.2622852e-09
5.5300855e-07
-2.202555e-09
3.7859081e-07
1.3231762e-07
1.8244259e-09
1.0614344e-07
8.3619615e-09
3.2555281e-07
1.6410213e-08
5.1728001e-07
2.0883038e-08
6.2504587e-07
2.118482e-08
6.5256552e-07
1.968943e-08
6.4402324e-07
1.8058994e-08
6.3119097e-07
1.6628364e-08
6.2238846e-07
1.5297632e-08
6.1651559e-07
1.3994347e-08
6.1206115e-07
1.2701117e-08
6.0844807e-07
1.1415444e-08
6.0547547e-07
1.0136377e-08
6.030252e-07
8.8632226e-09
6.0100844e-07
7.5955373e-09
5.9935896e-07
6.3329706e-09
5.9802779e-07
5.0751383e-09
5.9697868e-07
3.8215692e-09
5.9618503e-07
2.5716967e-09
5.9562783e-07
1.3248796e-09
5.9529437e-07
8.0438605e-11
5.951774e-07
-1.1622995e-09
5.9527466e-07
-2.403953e-09
5.9558885e-07
-3.6450407e-09
5.9612776e-07
-4.8859429e-09
5.9690471e-07
-6.1268794e-09
5.979395e-07
-7.3679142e-09
5.9925979e-07
-8.6090077e-09
6.0090339e-07
-9.8501161e-09
6.0292151e-07
-1.1091275e-08
6.0538331e-07
-1.23332e-08
6.0838175e-07
-1.3583516e-08
6.1206024e-07
-1.4879665e-08
6.1676604e-07
-1.6288407e-08
6.2343281e-07
-1.764979e-08
6.3311311e-07
-1.7904338e-08
6.4147876e-07
-1.5075557e-08
6.2655698e-07
-8.6064498e-09
5.4653945e-07
-2.0505872e-09
3.7203495e-07
1.3026704e-07
1.7199054e-09
1.0442367e-07
7.7944409e-09
3.1947857e-07
1.5504112e-08
5.0957062e-07
2.0061305e-08
6.2048883e-07
2.0598924e-08
6.5202793e-07
1.9240843e-08
6.4538131e-07
1.7657012e-08
6.3277479e-07
1.6254034e-08
6.2379144e-07
1.4956499e-08
6.1781312e-07
1.3689879e-08
6.1332777e-07
1.2433329e-08
6.0970462e-07
1.1183293e-08
6.0672551e-07
9.9385516e-09
6.0426994e-07
8.698287e-09
6.022487e-07
7.462029e-09
6.0059522e-07
6.2294971e-09
5.9926032e-07
5.0004575e-09
5.9820772e-07
3.7746522e-09
5.9741083e-07
2.5517735e-09
5.9685071e-07
1.3314701e-09
5.9651467e-07
1.1336912e-10
5.963955e-07
-1.102893e-09
5.9649092e-07
-2.3176347e-09
5.968036e-07
-3.531099e-09
5.9734123e-07
-4.7434295e-09
5.9811705e-07
-5.9546643e-09
5.9915073e-07
-7.1647596e-09
6.0046989e-07
-8.3736605e-09
6.0211229e-07
-9.5814164e-09
6.0412927e-07
-1.0788296e-08
6.0659018e-07
-1.1995683e-08
6.0958914e-07
-1.3213207e-08
6.1327777e-07
-1.4480353e-08
6.1803319e-07
-1.5851842e-08
6.248043e-07
-1.7121545e-08
6.3438282e-07
-1.7205395e-08
6.4156261e-07
-1.4276142e-08
6.2362773e-07
-8.0304658e-09
5.4029377e-07
-1.9236583e-09
3.6592814e-07
1.2834338e-07
1.6244585e-09
1.0279936e-07
7.2875258e-09
3.1381585e-07
1.4670764e-08
5.0218771e-07
1.9283203e-08
6.1587657e-07
2.0036463e-08
6.5127471e-07
1.8814459e-08
6.466033e-07
1.7278317e-08
6.3431092e-07
1.5900303e-08
6.2516945e-07
1.4631891e-08
6.1908154e-07
1.3398198e-08
6.1456146e-07
1.2175134e-08
6.1092768e-07
1.0958016e-08
6.0794262e-07
9.7453318e-09
6.0548262e-07
8.5361281e-09
6.0345791e-07
7.3298758e-09
6.0180147e-07
6.1263156e-09
6.0046388e-07
4.9253057e-09
5.9940873e-07
3.726735e-09
5.986094e-07
2.5304846e-09
5.9804696e-07
1.3364191e-09
5.9770874e-07
1.44397e-10
5.9758752e-07
-1.0457114e-09
5.9768103e-07
-2.2340004e-09
5.9799188e-07
-3.4205117e-09
5.9852774e-07
-4.6052239e-09
5.9930176e-07
-5.7880604e-09
6.0033357e-07
-6.9689292e-09
6.0165075e-07
-8.1478087e-09
6.0329117e-07
-9.3248733e-09
6.0530633e-07
-1.050065e-08
6.0776596e-07
-1.1677225e-08
6.1076571e-07
-1.2866144e-08
6.1446669e-07
-1.4108001e-08
6.1927504e-07
-1.544373e-08
6.2614003e-07
-1.6623823e-08
6.3556291e-07
-1.6551e-08
6.4148978e-07
-1.3545017e-08
6.2062174e-07
-7.5203491e-09
5.342691e-07
-1.814635e-09
3.6022243e-07
1.2652874e-07
1.5363762e-09
1.0126317e-07
6.8320617e-09
3.0852056e-07
1.3902172e-08
4.95118e-07
1.8545318e-08
6.1123365e-07
1.9495216e-08
6.5032487e-07
1.8407598e-08
6.4769091e-07
1.6920674e-08
6.3579783e-07
1.5565866e-08
6.2652425e-07
1.432326e-08
6.2032414e-07
1.3119297e-08
6.1576542e-07
1.1926935e-08