/*--------------------------------*- C++ -*----------------------------------*\
  =========                 |
  \\      /  F ield         | OpenFOAM: The Open Source CFD Toolbox
   \\    /   O peration     | Website:  https://openfoam.org
    \\  /    A nd           | Version:  10
     \\/     M anipulation  |
\*---------------------------------------------------------------------------*/
FoamFile
{
    format      ascii;
    class       surfaceScalarField;
    location    "0.25";
    object      phi_0;
}
// * * * * * * * * * * * * * * * * * * * * * * * * * * * * * * * * * * * * * //

dimensions      [1 0 -1 0 0 0 0];

internalField   nonuniform List<scalar> 
7860
(
3.9896003e-08
5.2881203e-07
1.2192739e-08
5.9641107e-07
7.4279193e-09
5.7347257e-07
5.4994413e-09
5.7063619e-07
4.1150188e-09
5.700921e-07
3.2011639e-09
5.6962151e-07
2.5591669e-09
5.6934963e-07
2.0793346e-09
5.6918746e-07
1.7093387e-09
5.6907761e-07
1.4166556e-09
5.6900028e-07
1.17949e-09
5.6894476e-07
9.8307914e-10
5.68904e-07
8.1707948e-10
5.6887358e-07
6.7400093e-10
5.6885066e-07
5.4827036e-10
5.688333e-07
4.3562734e-10
5.6882021e-07
3.3271829e-10
5.6881048e-07
2.3681606e-10
5.6880347e-07
1.456179e-10
5.6879876e-07
5.7092899e-11
5.6879609e-07
-3.0641536e-11
5.687953e-07
-1.1942747e-10
5.6879635e-07
-2.1117112e-10
5.6879931e-07
-3.0794963e-10
5.6880434e-07
-4.1214363e-10
5.6881176e-07
-5.2659981e-10
5.6882203e-07
-6.5485196e-10
5.6883582e-07
-8.0143363e-10
5.6885416e-07
-9.7233886e-10
5.6887849e-07
-1.1757288e-09
5.6891098e-07
-1.4231046e-09
5.6895497e-07
-1.7312776e-09
5.6901577e-07
-2.1252259e-09
5.6910156e-07
-2.6448306e-09
5.6922723e-07
-3.3725055e-09
5.6943531e-07
-4.463801e-09
5.6979895e-07
-6.0091205e-09
5.70253e-07
-9.5081132e-09
5.7220671e-07
-2.9575964e-08
5.8877561e-07
5.3913196e-07
5.9672541e-08
4.6913949e-07
3.6666007e-08
6.194176e-07
2.2628187e-08
5.8751039e-07
1.6253602e-08
5.7701077e-07
1.2290542e-08
5.7405516e-07
9.6062913e-09
5.7230576e-07
7.6775079e-09
5.7127842e-07
6.2361564e-09
5.7062881e-07
5.1266404e-09
5.7018712e-07
4.2488874e-09
5.6987804e-07
3.537563e-09
5.6965608e-07
2.9484984e-09
5.6949306e-07
2.4506483e-09
5.6937143e-07
2.0215379e-09
5.6927977e-07
1.6444524e-09
5.6921039e-07
1.3066147e-09
5.6915805e-07
9.9796776e-10
5.6911912e-07
7.1033328e-10
5.690911e-07
4.3680576e-10
5.6907229e-07
1.7129371e-10
5.690616e-07
-9.1849013e-11
5.6905844e-07
-3.581454e-10
5.6906265e-07
-6.3330734e-10
5.6907447e-07
-9.2356703e-10
5.690946e-07
-1.2360632e-09
5.6912426e-07
-1.5793329e-09
5.691653e-07
-1.9639729e-09
5.6922046e-07
-2.4035792e-09
5.6929376e-07
-2.9161344e-09
5.6939104e-07
-3.5261307e-09
5.6952097e-07
-4.2679868e-09
5.6969682e-07
-5.1920675e-09
5.6993985e-07
-6.3749969e-09
5.7028449e-07
-7.9354916e-09
5.7078772e-07
-1.0076773e-08
5.7157659e-07
-1.3204966e-08
5.7292714e-07
-1.8134834e-08
5.7518287e-07
-2.8177071e-08
5.8224894e-07
-4.5802996e-08
6.0640153e-07
4.9332897e-07
6.0008857e-08
4.0913064e-07
5.048731e-08
6.2893915e-07
3.337071e-08
6.0462699e-07
2.4817726e-08
5.8556376e-07
1.9323312e-08
5.7954957e-07
1.5331578e-08
5.7629749e-07
1.2360812e-08
5.7424918e-07
1.0101658e-08
5.7288796e-07
8.3407403e-09
5.7194804e-07
6.934939e-09
5.7128384e-07
5.7881749e-09
5.7080285e-07
4.8336831e-09
5.7044755e-07
4.0236994e-09
5.7018141e-07
3.3232382e-09
5.6998023e-07
2.7060362e-09
5.6982759e-07
2.1518612e-09
5.6971223e-07
1.644688e-09
5.696263e-07
1.1714175e-09
5.6956437e-07
7.2094285e-10
5.6952276e-07
2.8343584e-10
5.6949911e-07
-1.5022966e-10
5.6949211e-07
-5.8898438e-10
5.695014e-07
-1.0420565e-09
5.6952754e-07
-1.5194921e-09
5.6957204e-07
-2.0327578e-09
5.6963752e-07
-2.5955002e-09
5.6972804e-07
-3.2245575e-09
5.6984952e-07
-3.9413707e-09
5.7001058e-07
-4.7740338e-09
5.702237e-07
-5.7603563e-09
5.7050729e-07
-6.9525232e-09
5.7088899e-07
-8.4247318e-09
5.7141206e-07
-1.028638e-08
5.7214614e-07
-1.2699339e-08
5.7320068e-07
-1.5896764e-08
5.7477402e-07
-2.0240543e-08
5.7727092e-07
-2.6708816e-08
5.8165114e-07
-3.8948309e-08
5.9448844e-07
-4.8167448e-08
6.1562067e-07
4.4516152e-07
5.4879079e-08
3.5425156e-07
5.7452231e-08
6.26366e-07
4.0467599e-08
6.2161162e-07
3.0778816e-08
5.9525254e-07
2.4643121e-08
5.8568527e-07
1.9952379e-08
5.8098824e-07
1.6313037e-08
5.7788853e-07
1.3466638e-08
5.7573436e-07
1.1201069e-08
5.7421361e-07
9.3646248e-09
5.7312028e-07
7.8494205e-09
5.7231805e-07
6.5769687e-09
5.7172001e-07
5.4894235e-09
5.7126896e-07
4.5434729e-09
5.7092618e-07
3.7060226e-09
5.7066504e-07
2.951216e-09
5.7046703e-07
2.2583362e-09
5.7031918e-07
1.6102883e-09
5.7021242e-07
9.9246784e-10
5.7014058e-07
3.9188076e-10
5.7009969e-07
-2.0357981e-10
5.7008757e-07
-8.057735e-10
5.7010359e-07
-1.4269339e-09
5.701487e-07
-2.0803232e-09
5.7022543e-07
-2.7809824e-09
5.7033818e-07
-3.5466595e-09
5.7049371e-07
-4.3990166e-09
5.7070188e-07
-5.3652629e-09
5.7097682e-07
-6.4804352e-09
5.7133888e-07
-7.790658e-09
5.7181752e-07
-9.3577109e-09
5.7245604e-07
-1.1265414e-08
5.7331977e-07
-1.363003e-08
5.7451075e-07
-1.6612904e-08
5.7618355e-07
-2.0411805e-08
5.7857292e-07
-2.5293408e-08
5.8215252e-07
-3.251766e-08
5.8887539e-07
-4.5101272e-08
6.0707205e-07
-4.6549585e-08
6.1706899e-07
3.9861194e-07
4.7965789e-08
3.0628577e-07
6.0076591e-08
6.142552e-07
4.5400217e-08
6.3628799e-07
3.4875426e-08
6.0577733e-07
2.8399934e-08
5.9216076e-07
2.3419701e-08
5.8596847e-07
1.9434385e-08
5.8187384e-07
1.6229249e-08
5.7893949e-07
1.3619779e-08
5.7682308e-07
1.1466566e-08
5.752735e-07
9.6644857e-09
5.7412013e-07
8.1334987e-09
5.7325099e-07
6.8125822e-09
5.7258988e-07
5.6547245e-09
5.7208403e-07
4.6231511e-09
5.7169661e-07
3.6885761e-09
5.7140161e-07
2.8271614e-09
5.7118059e-07
2.0189784e-09
5.710206e-07
1.2468229e-09
5.7091274e-07
4.9527014e-10
5.7085125e-07
-2.5011797e-10
5.7083295e-07
-1.0035032e-09
5.7085698e-07
-1.7794608e-09
5.7092466e-07
-2.5937029e-09
5.7103967e-07
-3.4638936e-09
5.7120837e-07
-4.4106334e-09
5.7144045e-07
-5.458699e-09
5.7174994e-07
-6.6386527e-09
5.7215678e-07
-7.9889692e-09
5.7268919e-07
-9.5589095e-09
5.7338746e-07
-1.1412297e-08
5.7430943e-07
-1.363194e-08
5.7553941e-07
-1.6326141e-08
5.7720495e-07
-1.9638501e-08
5.7949591e-07
-2.3739281e-08
5.826737e-07
-2.8931399e-08
5.8734464e-07
-3.6791669e-08
5.9673566e-07
-4.8464265e-08
6.1874464e-07
-4.3194492e-08
6.1179921e-07
3.5541744e-07
4.033608e-08
2.6594969e-07
5.8994185e-08
5.9559709e-07
4.8330208e-08
6.4695197e-07
3.7588201e-08
6.1651934e-07
3.092902e-08
5.9881994e-07
2.5894141e-08
5.9100335e-07
2.1780158e-08
5.8598782e-07
1.8392218e-08
5.8232743e-07
1.5577665e-08
5.7963763e-07
1.321445e-08
5.7763671e-07
1.1206635e-08
5.7612795e-07
9.4789287e-09
5.749787e-07
7.9721893e-09
5.7409662e-07
6.6395135e-09
5.7341671e-07
5.4432753e-09
5.7289285e-07
4.3528577e-09
5.7249202e-07
3.3428736e-09
5.7219057e-07
2.3917659e-09
5.7197171e-07
1.4806899e-09
5.7182382e-07
5.9259215e-10
5.7173934e-07
-2.8857901e-10
5.7171412e-07
-1.1785917e-09
5.7174699e-07
-2.0936328e-09
5.718397e-07
-3.0510362e-09
5.7199707e-07
-4.0700886e-09
5.7222742e-07
-5.1729761e-09
5.7254334e-07
-6.3859355e-09
5.729629e-07
-7.740689e-09
5.7351153e-07
-9.276242e-09
5.7422474e-07
-1.1041191e-08
5.7515241e-07
-1.3096755e-08
5.7636499e-07
-1.5520198e-08
5.7796285e-07
-1.8408921e-08
5.8009368e-07
-2.1887095e-08
5.8297409e-07
-2.6110505e-08
5.8689711e-07
-3.1488676e-08
5.9272281e-07
-3.9655014e-08
6.04902e-07
-4.9172798e-08
6.2826243e-07
-3.8578689e-08
6.012051e-07
3.1683875e-07
3.2862735e-08
2.3308696e-07
5.525012e-08
5.7320971e-07
4.9232387e-08
6.529697e-07
3.9061654e-08
6.2669007e-07
3.2430812e-08
6.0545078e-07
2.7518935e-08
5.9591522e-07
2.3438895e-08
5.9006786e-07
2.0003119e-08
5.8576321e-07
1.7095056e-08
5.825457e-07
1.4612482e-08
5.8011928e-07
1.247161e-08
5.7826882e-07
1.0605191e-08
5.7684512e-07
8.958985e-09
5.7574282e-07
7.4887999e-09
5.748869e-07
6.158307e-09
5.7422334e-07
4.9372813e-09
5.7371305e-07
3.800159e-09
5.733277e-07
2.7248607e-09
5.7304701e-07
1.6918152e-09
5.7285686e-07
6.8312854e-10
5.7274803e-07
-3.1814811e-10
5.727154e-07
-1.3286928e-09
5.7275754e-07
-2.3655787e-09
5.7287659e-07
-3.4469573e-09
5.7307845e-07
-4.5927999e-09
5.7337327e-07
-5.825745e-09
5.7377629e-07
-7.1720951e-09
5.7430925e-07
-8.6630182e-09
5.7500245e-07
-1.0335997e-08
5.7589772e-07
-1.2236605e-08
5.7705301e-07
-1.4420897e-08
5.7854929e-07
-1.6958299e-08
5.8050025e-07
-1.9933652e-08
5.8306903e-07
-2.3447732e-08
5.8648817e-07
-2.764196e-08
5.9109134e-07
-3.3034771e-08
5.9811562e-07
-4.1011093e-08
6.1287832e-07
-4.7688113e-08
6.3493945e-07
-3.3376283e-08
5.8689327e-07
2.8346247e-07
2.6189032e-08
2.0689794e-07
5.0132811e-08
5.4926594e-07
4.8493718e-08
6.5460879e-07
3.9491204e-08
6.3569258e-07
3.3077619e-08
6.1186437e-07
2.8412229e-08
6.0058061e-07
2.4493142e-08
5.9398695e-07
2.1118501e-08
5.8913785e-07
1.8207424e-08
5.8545677e-07
1.5680685e-08
5.8264602e-07
1.3469146e-08
5.8048036e-07
1.1515631e-08
5.7879863e-07
9.7726241e-09
5.7748583e-07
8.2003364e-09
5.7645918e-07
6.7652373e-09
5.7565844e-07
5.438783e-09
5.750395e-07
4.1963276e-09
5.7457015e-07
3.0162002e-09
5.7422714e-07
1.8789072e-09
5.7399415e-07
7.664289e-10
5.7386051e-07
-3.3841636e-10
5.7382025e-07
-1.4525686e-09
5.7387169e-07
-2.5933187e-09
5.7401734e-07
-3.7789116e-09
5.7426404e-07
-5.0291885e-09
5.7462354e-07
-6.3663019e-09
5.751134e-07
-7.815528e-09
5.7575848e-07
-9.4062141e-09
5.7659314e-07
-1.1172886e-08
5.7766439e-07
-1.3156517e-08
5.7903664e-07
-1.5406176e-08
5.8079895e-07
-1.7981148e-08
5.8307522e-07
-2.0950887e-08
5.8603877e-07
-2.4390581e-08
5.8992786e-07
-2.8435766e-08
5.9513652e-07
-3.3691708e-08
6.0337156e-07
-4.1063e-08
6.2024961e-07
-4.4797541e-08
6.3867399e-07
-2.8204573e-08
5.703003e-07
2.552579e-07
2.0570935e-08
1.8632701e-07
4.4583296e-08
5.2525359e-07
4.6643076e-08
6.5254902e-07
3.9153348e-08
6.4318231e-07
3.3084003e-08
6.1793371e-07
2.8717843e-08
6.0494677e-07
2.5038418e-08
5.9766638e-07
2.180411e-08
5.9237216e-07
1.8959602e-08
5.8830128e-07
1.6448842e-08
5.8515678e-07
1.4218332e-08
5.8271087e-07
1.2221892e-08
5.8079507e-07
1.041974e-08
5.7928798e-07
8.7775208e-09
5.781014e-07
7.2654809e-09
5.7717048e-07
5.8576543e-09
5.7644733e-07
4.5311245e-09
5.7589668e-07
3.2653578e-09
5.754929e-07
2.0415969e-09
5.7521791e-07
8.4230345e-10
5.750598e-07
-3.4936164e-10
5.7501191e-07
-1.5500345e-09
5.7507236e-07
-2.7766458e-09
5.7524395e-07
-4.0469216e-09
5.7553432e-07
-5.3799084e-09
5.7595653e-07
-6.7965385e-09
5.7653003e-07
-8.3202477e-09
5.7728219e-07
-9.9776602e-09
5.7825055e-07
-1.1799355e-08
5.7948609e-07
-1.3820661e-08
5.8105795e-07
-1.6082566e-08
5.8306085e-07
-1.8632921e-08
5.8562558e-07
-2.152483e-08
5.8893068e-07
-2.4812311e-08
5.9321534e-07
-2.8641589e-08
5.989658e-07
-3.3660022e-08
6.0839e-07
-4.0144052e-08
6.2673364e-07
-4.1159145e-08
6.3968908e-07
-2.3416939e-08
5.525581e-07
2.3184096e-07
1.6015506e-08
1.7031151e-07
3.9144003e-08
5.0212511e-07
4.4118701e-08
6.4757432e-07
3.8289809e-08
6.490112e-07
3.2654095e-08
6.2356942e-07
2.8591836e-08
6.0900903e-07
2.5183896e-08
6.0107432e-07
2.2136318e-08
5.9541974e-07
1.9405212e-08
5.9103239e-07
1.6954519e-08
5.8760748e-07
1.4745262e-08
5.8492012e-07
1.2741845e-08
5.8279849e-07
1.0912354e-08
5.8111747e-07
9.2282692e-09
5.7978549e-07
7.6641168e-09
5.7873464e-07
6.1970499e-09
5.779144e-07
4.8064224e-09
5.7728731e-07
3.4733611e-09
5.7682596e-07
2.1803455e-09
5.7651093e-07
9.1079846e-10
5.7632935e-07
-3.5131015e-10
5.7627402e-07
-1.6218503e-09
5.763429e-07
-2.9169238e-09
5.7653902e-07
-4.2532549e-09
5.7687065e-07
-5.6485891e-09
5.7735186e-07
-7.1221088e-09
5.7800355e-07
-8.6948595e-09
5.7885494e-07
-1.0390189e-08
5.7994588e-07
-1.2234203e-08
5.813301e-07
-1.4256184e-08
5.8307993e-07
-1.6488957e-08
5.8529362e-07
-1.8969275e-08
5.881059e-07
-2.1735275e-08
5.9169668e-07
-2.4827434e-08
5.963075e-07
-2.841464e-08
6.0255301e-07
-3.312408e-08
6.1309944e-07
-3.8549177e-08
6.3215874e-07
-3.7215417e-08
6.3835532e-07
-1.9182778e-08
5.3452546e-07
2.1265818e-07
1.2423782e-08
1.5788774e-07
3.4114032e-08
4.8043488e-07
4.1249804e-08
6.4043856e-07
3.7078742e-08
6.5318226e-07
3.1942028e-08
6.2870614e-07
2.8168932e-08
6.1278213e-07
2.503321e-08
6.0421004e-07
2.2192374e-08
5.9826057e-07
1.9601354e-08
5.9362341e-07
1.7239565e-08
5.8996926e-07
1.5080374e-08
5.8707931e-07
1.3097467e-08
5.847814e-07
1.1266207e-08
5.8294873e-07
9.5637399e-09
5.8148795e-07
7.9689464e-09
5.8032943e-07
6.4623148e-09
5.7942103e-07
5.02576e-09
5.7872386e-07
3.6423965e-09
5.7820933e-07
2.2962827e-09
5.7785704e-07
9.7215044e-10
5.7765348e-07
-3.4487208e-10
5.7759104e-07
-1.669539e-09
5.7766757e-07
-3.016773e-09
5.7788625e-07
-4.4019457e-09
5.7825582e-07
-5.8411568e-09
5.7879107e-07
-7.3515066e-09
5.795139e-07
-8.9513566e-09
5.8045479e-07
-1.0660561e-08
5.8165508e-07
-1.2500675e-08
5.8317022e-07
-1.4495119e-08
5.8507437e-07
-1.6669206e-08
5.8746771e-07
-1.9049826e-08
5.9048652e-07
-2.1662473e-08
5.9430932e-07
-2.4541342e-08
5.9918637e-07
-2.7880982e-08
6.0589265e-07
-3.2226571e-08
6.1744503e-07
-3.6520513e-08
6.3645268e-07
-3.3267632e-08
6.3510244e-07
-1.5563769e-08
5.168216e-07
1.9709441e-07
9.6571451e-09
1.4823061e-07
2.9645694e-08
4.6044635e-07
3.8283036e-08
6.3180123e-07
3.5658313e-08
6.5580698e-07
3.1058978e-08
6.3330547e-07
2.7553497e-08
6.1628761e-07
2.4672928e-08
6.0709061e-07
2.204105e-08
6.0089245e-07
1.9601895e-08
5.9606256e-07
1.7345493e-08
5.9222567e-07
1.5255229e-08
5.8916958e-07
1.3312519e-08
5.8672411e-07
1.1499029e-08
5.8476222e-07
9.7970312e-09
5.8318995e-07
8.1895198e-09
5.8193694e-07
6.6602719e-09
5.8095028e-07
5.1938408e-09
5.8019029e-07
3.7754801e-09
5.7962769e-07
2.3910236e-09
5.792415e-07
1.0267338e-09
5.7901777e-07
-3.3086843e-10
5.7894864e-07
-1.6951832e-09
5.7903188e-07
-3.0797193e-09
5.7927079e-07
-4.4982741e-09
5.7967438e-07
-5.9651037e-09
5.802579e-07
-7.4950756e-09
5.8104387e-07
-9.1037911e-09
5.820635e-07
-1.0807661e-08
5.8335895e-07
-1.2623938e-08
5.8498649e-07
-1.4570701e-08
5.8702114e-07
-1.6666693e-08
5.895637e-07
-1.893039e-08
5.9275021e-07
-2.1377302e-08
5.9675623e-07
-2.4041561e-08
6.0185063e-07
-2.7139477e-08
6.0899056e-07
-3.1085655e-08
6.213912e-07
-3.4262192e-08
6.3962922e-07
-2.9520934e-08
6.3036118e-07
-1.2555274e-08
4.9985594e-07
1.8453914e-07
7.5667721e-09
1.4066386e-07
2.578665e-08
4.4222651e-07
3.5389258e-08
6.2219864e-07
3.4138377e-08
6.5705786e-07
3.0087936e-08
6.3735591e-07
2.6825517e-08
6.1955003e-07
2.4172728e-08
6.0974339e-07
2.1740121e-08
6.0332506e-07
1.9454114e-08
5.9834857e-07
1.7310357e-08
5.9436942e-07
1.5299967e-08
5.9117997e-07
1.341056e-08
5.8861351e-07
1.162902e-08
5.8654376e-07
9.9420285e-09
5.8487694e-07
8.3362678e-09
5.835427e-07
6.7985806e-09
5.8248796e-07
5.3160745e-09
5.816728e-07
3.8761534e-09
5.8106761e-07
2.4664985e-09
5.8065115e-07
1.0750127e-09
5.8040926e-07
-3.1026082e-10
5.8033392e-07
-1.7012322e-09
5.8042285e-07
-3.1098669e-09
5.8067942e-07
-4.5482795e-09
5.8111279e-07
-6.0288133e-09
5.8173844e-07
-7.5640942e-09
5.8257915e-07
-9.1670503e-09
5.8366646e-07
-1.0850877e-08
5.8504278e-07
-1.2628946e-08
5.8676456e-07
-1.4514689e-08
5.8890688e-07
-1.652129e-08
5.915703e-07
-1.8660348e-08
5.9488927e-07
-2.0940369e-08
5.9903626e-07
-2.3400532e-08
6.0431079e-07
-2.627049e-08
6.1186052e-07
-2.9802398e-08
6.2492311e-07
-3.1935861e-08
6.4176268e-07
-2.609767e-08
6.2452299e-07
-1.0110647e-08
4.8386891e-07
1.7442849e-07
6.0120895e-09
1.3465179e-07
2.2515121e-08
4.2572352e-07
3.2670325e-08
6.1204346e-07
3.2599373e-08
6.5712882e-07
2.9088987e-08
6.4086629e-07
2.6045158e-08
6.2259386e-07
2.3587945e-08
6.1220061e-07
2.1337162e-08
6.0557584e-07
1.9198201e-08
6.0048753e-07
1.7167596e-08
5.9640003e-07
1.5241968e-08
5.9310559e-07
1.3413686e-08
5.9044179e-07
1.167376e-08
5.8828369e-07
1.0012515e-08
5.8653819e-07
8.4198012e-09
5.8513541e-07
6.8852016e-09
5.8402256e-07
5.3981876e-09
5.8315981e-07
3.9482209e-09
5.8251757e-07
2.5248046e-09
5.8207457e-07
1.1174994e-09
5.8181656e-07
-2.8408837e-10
5.817355e-07
-1.6903305e-09
5.8182909e-07
-3.1116098e-09
5.821007e-07
-4.5583433e-09
5.8255952e-07
-6.0409904e-09
5.8322108e-07
-7.5700335e-09
5.8410819e-07
-9.1559229e-09
5.8525235e-07
-1.0808971e-08
5.8669583e-07
-1.2539192e-08
5.8849478e-07
-1.435613e-08
5.9072382e-07
-1.6268473e-08
5.9348265e-07
-1.8282521e-08
5.9690332e-07
-2.0402863e-08
6.011566e-07
-2.2677274e-08
6.065852e-07
-2.5337613e-08
6.1452086e-07
-2.8457396e-08
6.2804289e-07
-2.9655721e-08
6.4296101e-07
-2.3053108e-08
6.1792038e-07
-8.1614405e-09
4.6897725e-07
1.6626705e-07
4.8703935e-09
1.2978142e-07
1.9772556e-08
4.108214e-07
3.0174509e-08
6.0164154e-07
3.1093644e-08
6.5620969e-07
2.8101626e-08
6.438583e-07
2.5254711e-08
6.2544077e-07
2.2960702e-08
6.1449462e-07
2.0870223e-08
6.0766632e-07
1.8867428e-08
6.0249032e-07
1.6945765e-08
5.9832169e-07
1.5105304e-08
5.9494605e-07
1.3341854e-08
5.9220524e-07
1.1649536e-08
5.89976e-07
1.0021555e-08
5.8816617e-07
8.4503895e-09
5.8670658e-07
6.9279799e-09
5.8554497e-07
5.4459087e-09
5.8464188e-07
3.9955333e-09
5.8396795e-07
2.5680825e-09
5.8350202e-07
1.1547204e-09
5.8322992e-07
-2.5341279e-10
5.8314364e-07
-1.6651733e-09
5.8324085e-07
-3.0893928e-09
5.8352492e-07
-4.5348482e-09
5.8400498e-07
-6.0102177e-09
5.8469645e-07
-7.5240101e-09
5.8562199e-07
-9.0844619e-09
5.868128e-07
-1.0699394e-08
5.8831076e-07
-1.2376029e-08
5.9017142e-07
-1.41208e-08
5.9246859e-07
-1.5938932e-08
5.9530078e-07
-1.7832955e-08
5.9879734e-07
-1.9806343e-08
6.0312998e-07
-2.1917209e-08
6.0869607e-07
-2.438759e-08
6.1699124e-07
-2.7109403e-08
6.3076471e-07
-2.7493882e-08
6.4334549e-07
-2.039662e-08
6.1082311e-07
-6.6320051e-09
4.5521263e-07
1.5963504e-07
4.0393244e-09
1.2574213e-07
1.7486477e-08
3.9737431e-07
2.7915773e-08
5.9121228e-07
2.9651821e-08
6.5447365e-07
2.7149056e-08
6.4636107e-07
2.4481365e-08
6.2810846e-07
2.2321143e-08
6.1665484e-07
2.0368378e-08
6.0961908e-07
1.8488367e-08
6.0437033e-07
1.6668493e-08
6.0014157e-07
1.4910502e-08
5.9670405e-07
1.3212537e-08
5.9390321e-07
1.1570941e-08
5.916176e-07
9.9811055e-09
5.89756e-07
8.4376026e-09
5.8825008e-07
6.9343418e-09
5.8704823e-07
5.4647309e-09
5.861115e-07
4.0218199e-09
5.8541086e-07
2.5984187e-09
5.8492542e-07
1.1871907e-09
5.8464115e-07
-2.1927298e-10
5.845501e-07
-1.6283887e-09
5.8464997e-07
-3.0475216e-09
5.8494406e-07
-4.4839184e-09
5.8544138e-07
-5.9446283e-09
5.8615716e-07
-7.436401e-09
5.8711376e-07
-8.9655598e-09
5.8834196e-07
-1.0537847e-08
5.8988305e-07
-1.215825e-08
5.9179182e-07
-1.3830825e-08
5.9414116e-07
-1.5558264e-08
5.9702822e-07
-1.7340692e-08
6.0057977e-07
-1.9182781e-08
6.0497207e-07
-2.1153066e-08
6.1066635e-07
-2.3452416e-08
6.1929059e-07
-2.5798181e-08
6.3311047e-07
-2.549011e-08
6.4303742e-07
-1.8109678e-08
6.0344268e-07
-5.4479688e-09
4.4255092e-07
1.5418707e-07
3.4362063e-09
1.2230596e-07
1.5583073e-08
3.8522752e-07
2.5887502e-08
5.8090791e-07
2.8289324e-08
6.5207184e-07
2.6243147e-08
6.4840724e-07
2.3741011e-08
6.3061059e-07
2.1689579e-08
6.1870627e-07
1.9852845e-08
6.1145582e-07
1.8081435e-08
6.0614175e-07
1.6354687e-08
6.0186831e-07
1.467454e-08
5.9838419e-07
1.3040588e-08
5.9553716e-07
1.1450678e-08
5.9320751e-07
9.9017801e-09
5.913049e-07
8.3900845e-09
5.8976178e-07
6.9110919e-09
5.8852722e-07
5.4597463e-09
5.8756284e-07
4.0305681e-09
5.8684004e-07
2.6177764e-09
5.8633821e-07
1.2153956e-09
5.8604353e-07
-1.8265002e-10
5.8594815e-07
-1.5824501e-09
5.8604977e-07
-2.9900245e-09
5.8635163e-07
-4.4112337e-09
5.8686258e-07
-5.8516794e-09
5.8759761e-07
-7.3165882e-09
5.8857867e-07
-8.8106787e-09
5.8983605e-07
-1.0338016e-08
5.9141038e-07
-1.1901864e-08
5.9335567e-07
-1.3504546e-08
5.9574385e-07
-1.5147014e-08
5.9867068e-07
-1.682816e-08
6.0226092e-07
-1.8555596e-08
6.0669951e-07
-2.0407082e-08
6.1251784e-07
-2.2552591e-08
6.214361e-07
-2.4548598e-08
6.3510648e-07
-2.3661249e-08
6.4215007e-07
-1.6158306e-08
5.9593974e-07
-4.5409206e-09
4.3093354e-07
1.4964615e-07
2.9964081e-09
1.193096e-07
1.3993877e-08
3.7423015e-07
2.407184e-08
5.7083002e-07
2.7011311e-08
6.4913239e-07
2.5388289e-08
6.5003026e-07
2.3041674e-08
6.329572e-07
2.1078871e-08
6.2066907e-07
1.9338503e-08
6.1319618e-07
1.7661812e-08
6.0781844e-07
1.6019024e-08
6.035111e-07
1.4411069e-08
5.9999215e-07
1.28383e-08
5.9710993e-07
1.129951e-08
5.947463e-07
9.7927578e-09
5.9281165e-07
8.3154359e-09
5.912391e-07
6.8642969e-09
5.8997836e-07
5.4355449e-09
5.8899159e-07
4.0249476e-09
5.8825064e-07
2.6279496e-09
5.8773521e-07
1.2397807e-09
5.874317e-07
-1.4444175e-10
5.8733237e-07
-1.5296159e-09
5.8743494e-07
-2.9205597e-09
5.8774257e-07
-4.3219095e-09
5.8826393e-07
-5.7380135e-09
5.8901371e-07
-7.1728137e-09
5.9001347e-07
-8.6297202e-09
5.9129296e-07
-1.0111487e-08
5.9289215e-07
-1.1620105e-08
5.9486429e-07
-1.3156701e-08
5.9728044e-07
-1.4721137e-08
6.0023512e-07
-1.6312045e-08
6.0385182e-07
-1.7941166e-08
6.0832863e-07
-1.9693363e-08
6.1427004e-07
-2.1699991e-08
6.2344272e-07
-2.3374148e-08
6.3678063e-07
-2.2008478e-08
6.407844e-07
-1.4501471e-08
5.8843273e-07
-3.8509624e-09
4.2028303e-07
1.4579519e-07
2.6710913e-09
1.1663856e-07
1.2659146e-08
3.642422e-07
2.2446043e-08
5.6104322e-07
2.5816424e-08
6.4576204e-07
2.4584092e-08
6.5126258e-07
2.2386074e-08
6.3515521e-07
2.0496435e-08
6.2255871e-07
1.8835333e-08
6.1485728e-07
1.7240445e-08
6.0941332e-07
1.5672609e-08
6.0507894e-07
1.4130801e-08
6.0153396e-07
1.2615608e-08
5.9862512e-07
1.112635e-08
5.9623556e-07
9.6617922e-09
5.9427621e-07
8.2201845e-09
5.9268071e-07
6.7992373e-09
5.9139931e-07
5.3961651e-09
5.9039466e-07
4.0077698e-09
5.8963903e-07
2.630539e-09
5.8911244e-07
1.2607468e-09
5.8880149e-07
-1.054461e-10
5.8869856e-07
-1.4718927e-09
5.8880139e-07
-2.8423614e-09
5.8911304e-07
-4.220433e-09
5.8964201e-07
-5.6093952e-09
5.9040268e-07
-7.012133e-09
5.914162e-07
-8.4310186e-09
5.9271184e-07
-9.8678167e-09
5.9432895e-07
-1.1323621e-08
5.9632009e-07
-1.2798793e-08
5.9875561e-07
-1.4292628e-08
6.0172895e-07
-1.5804274e-08
6.0536347e-07
-1.7350267e-08
6.0987462e-07
-1.9019856e-08
6.1593963e-07
-2.0900115e-08
6.2532298e-07
-2.2279974e-08
6.3816049e-07
-2.0523103e-08
6.3902753e-07
-1.3096664e-08
5.8100629e-07
-3.3276879e-09
4.1051405e-07
1.424675e-07
2.4245153e-09
1.1421411e-07
1.1528967e-08
3.5513789e-07
2.0986559e-08
5.5158574e-07
2.4699684e-08
6.4204896e-07
2.3827391e-08
6.5213488e-07
2.1773506e-08
6.3720909e-07
1.9945808e-08
6.243864e-07
1.834962e-08
6.1645347e-07
1.6824952e-08
6.1093799e-07
1.5323622e-08
6.0658027e-07
1.3841953e-08
6.0301562e-07
1.2380372e-08
6.000867e-07
1.0938428e-08
5.976775e-07
9.5152986e-09
5.9569934e-07
8.1098203e-09
5.9408619e-07
6.7204139e-09
5.9278872e-07
5.3450848e-09
5.9176999e-07
3.9814758e-09
5.9100264e-07
2.6269443e-09
5.9046697e-07
1.27865e-09
5.9014979e-07
-6.6352276e-11
5.9004356e-07
-1.4110182e-09
5.9014606e-07
-2.7582195e-09
5.9046024e-07
-4.1106459e-09
5.9099443e-07
-5.4707081e-09
5.9176274e-07
-6.8404419e-09
5.9278594e-07
-8.2214199e-09
5.9409282e-07
-9.6146895e-09
5.9572222e-07
-1.1020753e-08
5.9772615e-07
-1.2439537e-08
6.001744e-07
-1.3870174e-08
6.0315959e-07
-1.5312921e-08
6.0680622e-07
-1.6789321e-08
6.1135102e-07
-1.8389982e-08
6.1754029e-07
-2.0153975e-08
6.2708698e-07
-2.1265539e-08
6.3927206e-07
-1.9191087e-08
6.3695307e-07
-1.1903731e-08
5.7371894e-07
-2.9300918e-09
4.0154041e-07
1.3953741e-07
2.2313002e-09
1.1198288e-07
1.0562884e-08
3.4680646e-07
1.9671326e-08
5.4247744e-07
2.3654534e-08
6.3806581e-07
2.311371e-08
6.526757e-07
2.1201278e-08
6.3912151e-07
1.9427897e-08
6.2615978e-07
1.7884943e-08
6.1799643e-07
1.6420388e-08
6.1240255e-07
1.4977906e-08
6.0802275e-07
1.355068e-08
6.0444285e-07
1.2138682e-08
6.014987e-07
1.074149e-08
5.9907469e-07
9.3584837e-09
5.9708234e-07
7.9888731e-09
5.954558e-07
6.6315893e-09
5.94146e-07
5.285243e-09
5.9311634e-07
3.9481463e-09
5.9233974e-07
2.6183679e-09
5.9179675e-07
1.2938044e-09
5.9147435e-07
-2.7738226e-11
5.9136511e-07
-1.3484609e-09
5.9146678e-07
-2.6704843e-09
5.9178227e-07
-3.9957617e-09
5.9231971e-07
-5.3259943e-09
5.9309297e-07
-6.6625527e-09
5.941225e-07
-8.006413e-09
5.9543668e-07
-9.3581269e-09
5.9707393e-07
-1.0717841e-08
5.9908587e-07
-1.2085301e-08
6.0154186e-07
-1.3459769e-08
6.0453406e-07
-1.4843041e-08
6.0818949e-07
-1.6261502e-08
6.1276948e-07
-1.7804028e-08
6.1908281e-07
-1.9459673e-08
6.2874262e-07
-2.0326823e-08
6.4013921e-07
-1.7996189e-08
6.3462244e-07
-1.0886796e-08
5.6660954e-07
-2.6257195e-09
3.9327933e-07
1.3691169e-07
2.0739605e-09
1.0990901e-07
9.7287878e-09
3.3915182e-07
1.8480807e-08
5.3372559e-07
2.2674121e-08
6.3387257e-07
2.2438248e-08
6.5291158e-07
2.0665726e-08
6.4089402e-07
1.8941941e-08
6.2788356e-07
1.7442975e-08
6.1949539e-07
1.60299e-08
6.1381562e-07
1.463948e-08
6.0941317e-07
1.3261465e-08
6.0582087e-07
1.1895152e-08
6.0286501e-07
1.0540017e-08
6.0042983e-07
9.1954944e-09
5.9842687e-07
7.8610127e-09
5.9679028e-07
6.535854e-09
5.9547116e-07
5.21908e-09
5.9443311e-07
3.9095247e-09
5.9364929e-07
2.6058274e-09
5.9310045e-07
1.3064865e-09
5.9277369e-07
9.9265937e-12
5.9266167e-07
-1.2854307e-09
5.9276214e-07
-2.5810892e-09
5.9307792e-07
-3.8784062e-09
5.9361703e-07
-5.1785219e-09
5.9439309e-07
-6.4822993e-09
5.9542627e-07
-7.7902859e-09
5.9674467e-07
-9.1027136e-09
5.9838636e-07
-1.0419552e-08
6.0040271e-07
-1.1740537e-08
6.0286284e-07
-1.3065283e-08
6.058588e-07
-1.4397403e-08
6.0952161e-07
-1.5767675e-08
6.1413975e-07
-1.7260255e-08
6.2057539e-07
-1.8813615e-08
6.3029598e-07
-1.9457927e-08
6.4078352e-07
-1.6921902e-08
6.3208642e-07
-1.0014797e-08
5.5970244e-07
-2.3894573e-09
3.8565399e-07
1.3452223e-07
1.9408254e-09
1.0796829e-07
9.0015565e-09
3.3209132e-07
1.7398288e-08
5.2532906e-07
2.1752003e-08
6.2951895e-07
2.1796441e-08
6.5286715e-07
2.0162887e-08
6.4252757e-07
1.8486217e-08
6.2956023e-07
1.7024113e-08
6.209575e-07
1.5655256e-08
6.1518448e-07
1.4310984e-08
6.1075744e-07
1.2977476e-08
6.0715437e-07
1.1653195e-08
6.041893e-07
1.0337427e-08
6.0174559e-07
9.029572e-09
5.9973472e-07
7.7291599e-09
5.9809069e-07
6.4357029e-09
5.9676462e-07
5.1485888e-09
5.9572023e-07
3.8670497e-09
5.9493083e-07
2.5901735e-09
5.9437733e-07
1.3169401e-09
5.9404692e-07
4.6274136e-11
5.9393233e-07
-1.222898e-09
5.9403131e-07
-2.4915854e-09
5.9434661e-07
-3.760673e-09
5.9488611e-07
-5.0308676e-09
5.9566328e-07
-6.3026569e-09
5.9669806e-07
-7.5762943e-09
5.980183e-07
-8.8518266e-09
5.9966189e-07
-1.0129173e-08
6.0168005e-07
-1.1408182e-08
6.0414185e-07
-1.2688968e-08
6.0713959e-07
-1.3977121e-08
6.1080976e-07
-1.5307151e-08
6.1546978e-07
-1.675574e-08
6.2202398e-07
-1.8211382e-08
6.3175162e-07
-1.8652186e-08
6.4122432e-07
-1.5952638e-08
6.2938687e-07
-9.2616073e-09
5.5301141e-07
-2.2023324e-09
3.7859472e-07
1.323199e-07
1.8243538e-09
1.0614406e-07
8.361703e-09
3.2555423e-07
1.6409759e-08
5.1728125e-07
2.0882476e-08
6.2504636e-07
2.1184249e-08
6.5256539e-07
1.9688902e-08
6.440229e-07
1.8058516e-08
6.311906e-07
1.6627938e-08
6.2238807e-07
1.529726e-08
6.1651516e-07
1.3994034e-08
6.1206066e-07
1.2700869e-08
6.0844754e-07
1.1415267e-08
6.054749e-07
1.0136275e-08
6.0302459e-07
8.8631997e-09
6.010078e-07
7.595597e-09
5.9935829e-07
6.3331157e-09
5.980271e-07
5.0753712e-09
5.9697797e-07
3.8218914e-09
5.9618431e-07
2.5721091e-09
5.9562711e-07
1.3253826e-09
5.9529365e-07
8.1031734e-11
5.9517668e-07
-1.1616174e-09
5.9527396e-07
-2.4031837e-09
5.9558818e-07
-3.6441866e-09
5.9612712e-07
-4.8850073e-09
5.969041e-07
-6.1258661e-09
5.9793892e-07
-7.3668279e-09
5.9925926e-07
-8.6078536e-09
6.0090292e-07
-9.8489e-09
6.029211e-07
-1.1090003e-08
6.0538295e-07
-1.233188e-08
6.0838147e-07
-1.3582154e-08
6.1206003e-07
-1.4878265e-08
6.167659e-07
-1.6286965e-08
6.2343268e-07
-1.7648316e-08
6.3311297e-07
-1.7902908e-08
6.4147891e-07
-1.5074363e-08
6.2655832e-07
-8.6057083e-09
5.4654275e-07
-2.0503457e-09
3.7203936e-07
1.3026955e-07
1.7198254e-09
1.0442437e-07
7.7941514e-09
3.1948021e-07
1.5503598e-08
5.095721e-07
2.0060661e-08
6.2048945e-07
2.0598265e-08
6.5202782e-07
1.9240229e-08
6.4538093e-07
1.7656455e-08
6.3277437e-07
1.6253535e-08
6.2379099e-07
1.4956061e-08
6.1781263e-07
1.3689508e-08
6.1332722e-07
1.2433031e-08
6.0970401e-07
1.1183074e-08
6.0672486e-07
9.9384159e-09
6.0426924e-07
8.6982393e-09
6.0224797e-07
7.4620733e-09
6.0059446e-07
6.2296364e-09
5.9925953e-07
5.0006946e-09
5.9820691e-07
3.7749887e-09
5.9741002e-07
2.5522107e-09
5.9684989e-07
1.3320083e-09
5.9651385e-07
1.1400797e-10
5.9639468e-07
-1.1021546e-09
5.9649012e-07
-2.3167986e-09
5.9680282e-07
-3.5301678e-09
5.9734048e-07
-4.7424066e-09
5.9811634e-07
-5.9535539e-09
5.9915007e-07
-7.1635665e-09
6.0046928e-07
-8.3723904e-09
6.0211174e-07
-9.5800755e-09
6.0412878e-07
-1.0786891e-08
6.0658977e-07
-1.1994222e-08
6.095888e-07
-1.3211696e-08
6.1327751e-07
-1.4478796e-08
6.18033e-07
-1.5850235e-08
6.2480412e-07
-1.7119902e-08
6.3438264e-07
-1.720381e-08
6.4156282e-07
-1.4274828e-08
6.2362934e-07
-8.0296558e-09
5.4029758e-07
-1.9233967e-09
3.659331e-07
1.2834616e-07
1.6243702e-09
1.0280017e-07
7.2872026e-09
3.1381774e-07
1.4670185e-08
5.0218947e-07
1.9282469e-08
6.1587736e-07
2.0035705e-08
6.5127463e-07
1.8813748e-08
6.4660287e-07
1.7277672e-08
6.3431043e-07
1.5899722e-08
6.2516894e-07
1.4631379e-08
6.1908098e-07
1.3397761e-08
6.1456084e-07
1.2174779e-08
6.10927e-07
1.0957748e-08
6.0794189e-07
9.7451569e-09
6.0548183e-07
8.5360512e-09
6.0345708e-07
7.329901e-09
6.0180061e-07
6.1264466e-09
6.0046299e-07
4.9255453e-09
5.9940781e-07
3.7270853e-09
5.9860848e-07
2.5309468e-09
5.9804602e-07
1.3369938e-09
5.9770781e-07
1.4508394e-10
5.9758659e-07
-1.0449133e-09
5.9768012e-07
-2.2330931e-09
5.97991e-07
-3.419498e-09
5.9852689e-07
-4.6041072e-09
5.9930095e-07
-5.7868453e-09
6.0033281e-07
-6.9676208e-09
6.0165005e-07
-8.1464129e-09
6.0329053e-07
-9.3233968e-09
6.0530577e-07
-1.04991e-08
6.0776547e-07
-1.1675609e-08
6.1076531e-07
-1.2864471e-08
6.1446637e-07
-1.4106273e-08
6.192748e-07
-1.5441943e-08
6.2613979e-07
-1.6621995e-08
6.3556269e-07
-1.6549245e-08
6.4149007e-07
-1.3543573e-08
6.2062367e-07
-7.5194652e-09
5.3427347e-07
-1.814352e-09
3.6022798e-07
1.2653181e-07
1.5362788e-09
1.0126408e-07
6.8317017e-09
3.0852273e-07
1.3901522e-08
4.9512006e-07
1.8544486e-08
6.1123463e-07
1.9494348e-08
6.5032482e-07
1.840678e-08
6.4769042e-07
1.6919928e-08
6.3579727e-07
1.5565194e-08
6.2652367e-07
1.4322665e-08
6.203235e-07
1.3118786e-08
6.1576471e-07
1.1926515e-08
6.1211927e-07