/*--------------------------------*- C++ -*----------------------------------*\
  =========                 |
  \\      /  F ield         | OpenFOAM: The Open Source CFD Toolbox
   \\    /   O peration     | Website:  https://openfoam.org
    \\  /    A nd           | Version:  10
     \\/     M anipulation  |
\*---------------------------------------------------------------------------*/
FoamFile
{
    format      ascii;
    class       volScalarField;
    location    "0.25";
    object      TporMedia_0;
}
// * * * * * * * * * * * * * * * * * * * * * * * * * * * * * * * * * * * * * //

dimensions      [0 0 0 1 0 0 0];

internalField   nonuniform List<scalar> 
4000
(
0.00027428265
0.00014362231
0.00015257145
0.00014874549
0.00014684253
0.00014785472
0.00014561604
0.00014741586
0.00012639634
0.00015311742
0.00013322862
0.00014008051
0.00014000613
0.00012968735
0.00014800767
0.00013444412
0.00013675279
0.00013563143
0.00013642266
0.00015316233
0.00014895758
0.00013403235
0.00015085145
0.00013899315
0.00014323538
0.0001452259
0.00014261245
0.00013518419
0.00014675419
0.00013529056
0.00014202903
0.00014267814
0.00013856772
0.00013736686
0.00013759917
0.00015410792
0.00013412618
0.0001481199
0.00014326356
0.00014007552
0.00046615905
1.1787123e-10
3.4317617e-11
3.5482421e-11
3.766737e-11
3.8304359e-11
3.5306028e-11
3.1952204e-11
3.1891543e-11
4.115106e-11
3.5667552e-11
3.2567224e-11
3.3511208e-11
3.1062975e-11
3.4983985e-11
3.7952419e-11
4.0018191e-11
3.2980167e-11
4.0489028e-11
3.5930803e-11
3.6346261e-11
3.2027624e-11
4.1783863e-11
3.7255472e-11
3.6678177e-11
3.7522555e-11
3.5708807e-11
3.100116e-11
4.4433012e-11
3.4733123e-11
3.2888124e-11
3.7061222e-11
3.8223234e-11
3.3263386e-11
3.216734e-11
3.7571946e-11
3.427462e-11
3.6174297e-11
3.8895785e-11
3.34299e-11
-0.00022949799
-4.9329083e-11
-2.5899176e-18
8.4166323e-18
8.8589886e-18
1.0441649e-17
8.6315788e-18
8.33118e-18
8.0645596e-18
8.5874954e-18
9.3772949e-18
7.3810536e-18
7.6977687e-18
7.5356523e-18
8.2706034e-18
9.7883506e-18
9.5869296e-18
6.8710124e-18
1.1172837e-17
8.9757711e-18
9.4218934e-18
7.2165792e-18
1.1564425e-17
8.4829301e-18
8.9005781e-18
9.3217417e-18
8.1737479e-18
7.2448628e-18
1.1255247e-17
8.4030388e-18
8.3813434e-18
8.7280219e-18
9.4340949e-18
7.7201058e-18
7.7450956e-18
9.5676063e-18
7.6651218e-18
8.1054011e-18
9.3356244e-18
8.1818252e-18
-7.3040532e-05
-9.4984844e-11
-1.3138615e-17
-8.605056e-25
2.4394976e-24
2.6010591e-24
2.1458268e-24
2.0221567e-24
2.0112278e-24
2.2167939e-24
2.1708672e-24
1.7972208e-24
1.7860691e-24
1.7587235e-24
1.8577244e-24
2.1553952e-24
2.4893709e-24
1.3819265e-24
2.8685366e-24
2.0764181e-24
2.419756e-24
1.759193e-24
2.9359898e-24
1.9764162e-24
1.9629463e-24
1.6526573e-24
1.8837782e-24
1.5724465e-24
2.6811365e-24
1.8281553e-24
1.7937168e-24
2.2466596e-24
2.3427085e-24
1.8793067e-24
2.191854e-24
2.2208896e-24
1.6398473e-24
2.1283758e-24
2.3084113e-24
1.9737952e-24
-3.5788899e-05
4.9772819e-12
5.7701457e-19
1.012014e-25
6.1418293e-31
6.4260167e-31
4.8862132e-31
4.5115537e-31
4.0233999e-31
4.9328014e-31
5.6757562e-31
4.578919e-31
4.4615449e-31
4.4818098e-31
4.542484e-31
4.0414198e-31
6.4784401e-31
3.7302034e-31
7.4982354e-31
4.6774651e-31
5.5067946e-31
3.8293486e-31
7.0188938e-31
4.4517597e-31
4.6204789e-31
3.7712117e-30
4.426459e-31
3.9986035e-31
6.70273e-31
4.8911851e-31
4.6447802e-31
4.8906428e-31
6.3394036e-31
4.0574043e-31
5.8678981e-31
4.6992681e-31
3.6765113e-31
9.7709776e-31
5.9691995e-31
4.3359454e-31
-2.2513105e-05
1.0881776e-12
1.3324674e-19
1.4952577e-26
3.2037513e-33
1.783697e-37
1.2599178e-37
1.0014171e-37
9.2846146e-38
9.4433957e-38
1.2499249e-37
1.0313757e-37
1.1486343e-37
1.042138e-37
1.1627001e-37
4.6772361e-37
1.3736982e-37
8.322961e-38
1.5393147e-37
1.0505065e-37
1.3009209e-37
9.3089496e-38
1.8410998e-37
9.6152015e-38
8.6448209e-38
-2.8634299e-36
9.80491e-38
9.3219028e-38
1.6001711e-37
1.022986e-37
1.5318711e-37
1.1216949e-37
1.49273e-37
8.9131747e-38
1.5647688e-37
1.0412662e-37
9.2166717e-38
-7.0834046e-37
1.9432377e-37
9.5396908e-38
-1.5349095e-05
3.7563274e-13
9.9438739e-20
8.5844625e-27
1.6002255e-33
3.4269083e-40
2.96445e-44
2.7445937e-44
6.6385336e-44
2.261205e-44
2.4193876e-44
2.5509935e-44
2.8615147e-44
2.9068503e-44
2.4699669e-44
-2.5040449e-43
3.7552665e-44
2.443993e-44
6.8929301e-44
2.5666999e-44
3.8101338e-44
-3.321903e-44
2.0572603e-44
4.6240955e-44
6.0375339e-44
-8.5135584e-41
1.4125882e-45
2.2206564e-44
4.700882e-44
2.3540232e-44
-3.14221e-44
3.2466611e-44
4.0047753e-44
2.1985505e-44
2.8748165e-44
2.8565237e-44
-3.9701943e-44
1.8051109e-42
1.2434514e-44
2.3150708e-44
-1.1490873e-05
1.6981405e-13
-3.5565987e-20
-2.363717e-27
-3.2884401e-34
-7.7689069e-41
-1.8074782e-47
3.030469e-53
-5.9737269e-50
3.3193364e-51
2.0713449e-50
-1.0625206e-53
3.1282785e-51
-7.394049e-52
5.5600144e-51
2.7900363e-48
-4.2142455e-51
-4.8668286e-51
-7.3740596e-50
2.9543673e-51
-1.6133586e-50
1.501815e-49
4.2721516e-50
-3.9662231e-50
-1.0906853e-49
1.0668741e-46
2.0328281e-50
-1.5961392e-51
-3.0742956e-51
5.1892031e-51
1.5968752e-49
6.6491323e-52
5.626699e-51
4.4112535e-51
1.9517733e-50
-2.2884192e-52
5.7478914e-50
-8.5839349e-48
1.5592859e-49
6.0446113e-51
-8.8671416e-06
8.639936e-14
-4.3102992e-21
-2.4946645e-28
-2.4461434e-35
-5.8089146e-42
-1.3654024e-48
-2.8504791e-55
2.0155002e-55
1.7869105e-56
-2.068089e-56
8.2505201e-57
-1.3808499e-56
1.4160726e-56
1.6254655e-57
-4.0114447e-54
1.539502e-56
1.004962e-56
1.1049717e-55
4.409972e-57
5.0075965e-56
-2.6904496e-55
-1.2781168e-55
1.7503921e-55
2.2625796e-55
-2.1576062e-52
-9.0122952e-56
-9.6291543e-56
2.3498212e-56
2.5001553e-57
-5.2642115e-55
1.1119099e-56
1.1250881e-56
2.7791513e-57
-1.4696974e-56
8.3977724e-57
-3.8152542e-55
2.7509846e-53
-1.5335237e-55
1.6353288e-57
-7.0367121e-06
4.8303025e-14
-1.1102178e-21
-5.9715175e-29
-4.2951946e-36
-8.8430281e-43
-2.4142392e-49
-5.9028342e-56
-5.224793e-61
-1.6409744e-62
1.3233504e-61
-1.041292e-62
1.8325182e-62
-1.4403178e-62
4.2531554e-65
8.1985019e-60
-3.0679846e-62
-1.0994508e-62
-2.3174567e-61
-5.0127858e-63
-2.3252457e-61
7.4111226e-61
1.8005158e-61
-2.70401e-61
-4.0469071e-61
6.0442436e-58
1.6701279e-61
1.3926475e-61
-3.5617034e-62
-6.3982009e-64
1.1714251e-60
-1.2165065e-62
-9.5439711e-63
-2.0427282e-63
2.811495e-62
-7.1417612e-63
3.7967643e-61
-3.643544e-59
1.9485484e-61
4.1660239e-64
-5.7174703e-06
2.893964e-14
-3.7618248e-22
-2.2240104e-29
-1.1485945e-36
-1.8671061e-43
-4.6891374e-50
-1.1963475e-56
-2.5553127e-63
1.1979901e-68
-2.0312723e-67
1.1066629e-68
-1.7643461e-68
3.0476392e-68
1.2602802e-69
-1.6764631e-65
1.1712368e-67
1.6915412e-68
2.9190728e-67
4.0775663e-68
1.9058392e-67
-2.886854e-66
-2.2723173e-67
1.0333068e-64
3.9624595e-67
-6.7741834e-64
-1.9140989e-67
-2.6918919e-67
6.0253795e-68
6.9431064e-70
-8.2581138e-66
3.7091531e-68
6.270772e-68
2.1905684e-69
-1.0851467e-66
1.9628282e-68
-9.9663608e-67
4.9425739e-65
-1.2403266e-67
1.0645397e-70
-4.679445e-06
1.7904382e-14
-1.4660163e-22
-1.2972078e-29
-5.1369979e-37
-5.9193716e-44
-1.6995271e-50
-4.665991e-57
-1.2601459e-63
-3.1016422e-70
4.062882e-73
-1.4606367e-74
6.7022068e-74
-3.5253646e-74
-9.280708e-76
1.9045369e-71
1.8049317e-72
-1.2568746e-74
-3.4944362e-73
-9.9305242e-74
-4.5884743e-73
2.2997756e-72
2.7653217e-73
-6.346255e-71
-9.702927e-73
5.8501826e-70
4.5617322e-73
3.4040391e-73
-1.2425406e-73
-2.4165171e-75
1.0611889e-71
-3.769944e-74
-8.0710234e-74
-1.3775155e-74
1.7265705e-72
-2.8840692e-74
1.037629e-72
-5.8118418e-71
1.2096492e-73
2.9533968e-77
-3.8133003e-06
1.1277835e-14
-6.2006868e-23
5.5235784e-29
1.7084613e-36
1.478682e-43
4.1782157e-50
1.3087147e-56
3.3090146e-63
7.869435e-70
2.1702818e-76
1.2661571e-80
-4.8225847e-80
3.1045695e-80
1.1206002e-81
-2.1698255e-77
-1.4371104e-78
3.6356254e-80
3.3197883e-79
1.4143137e-79
7.7400335e-79
-1.5549348e-78
-5.6680013e-79
1.1953668e-76
6.4658008e-79
-7.6457556e-76
-3.5852533e-79
-1.3446586e-78
7.6768221e-80
1.6702781e-80
-9.0665735e-78
4.0242479e-80
6.2192382e-80
5.6865013e-81
-2.1599564e-78
3.8358714e-80
-5.666825e-79
7.8331453e-77
-9.5828991e-80
7.9214075e-84
-3.1272208e-06
7.2920887e-15
-2.8350745e-23
1.3611691e-30
3.4712494e-38
2.0530316e-45
5.2054877e-52
1.6048719e-58
4.9708276e-65
1.2045317e-71
3.1021698e-78
7.196443e-85
6.4115039e-86
-4.179806e-86
-9.7636236e-88
3.6209207e-83
1.2907916e-84
-3.1015699e-86
-1.3506738e-85
-1.8287776e-85
-5.4235868e-85
1.8205207e-84
5.2332824e-85
-1.5006865e-82
-9.3629716e-85
3.9981447e-81
3.1485747e-85
1.1711743e-84
-8.270548e-86
-1.0292634e-86
7.2338097e-84
-7.815599e-86
-1.002022e-85
-9.0502774e-87
3.0387265e-84
-3.9032908e-86
8.5380647e-85
-7.6442218e-83
9.6741541e-86
1.9188131e-90
-2.5617183e-06
4.7826853e-15
-1.3642564e-23
2.6877862e-31
5.8129389e-39
2.4610173e-46
4.3678408e-53
1.5260891e-59
3.8618212e-66
1.0577939e-72
2.6775091e-79
7.88851e-86
-7.2542996e-93
9.358597e-92
3.4141064e-93
-3.9315564e-89
-3.4312495e-90
1.4646537e-92
4.0536723e-91
1.4366215e-91
5.2988953e-91
-2.4663029e-90
-4.2866605e-91
1.1060344e-88
4.364446e-91
-2.6301288e-87
-4.9820527e-91
-7.6823726e-91
1.6528435e-91
1.0362925e-92
-8.2666116e-90
5.0762685e-92
6.0167445e-92
1.1871169e-92
-8.3886932e-90
1.0775062e-91
-8.8769212e-91
4.8027128e-89
-1.0084659e-91
5.4634797e-97
-2.1066695e-06
3.1776725e-15
-6.8130551e-24
7.254127e-32
1.4250134e-39
4.4601361e-47
6.2835392e-54
1.9471863e-60
5.1228595e-67
1.4340742e-73
3.8301792e-80
1.070705e-86
2.9028419e-93
-5.2453441e-98
-1.7730357e-99
2.4671401e-95
2.6931205e-96
-1.256133e-98
-1.9982681e-97
-1.6037712e-97
-9.4163024e-97
4.8190967e-96
2.8014447e-97
-1.2971635e-94
-8.8521561e-97
6.0187697e-93
4.3292076e-97
1.0135247e-96
-1.2858319e-97
-2.4162066e-98
1.2118394e-95
-4.0777638e-98
-1.0494338e-97
-9.3589098e-99
7.5511595e-96
-1.1998758e-97
1.5818997e-96
-6.009774e-95
1.2131226e-97
1.5674742e-103
-1.7451793e-06
2.1476881e-15
-3.5421652e-24
2.3323635e-32
4.4850402e-40
1.0673688e-47
1.0957597e-54
3.9826382e-61
1.2246908e-67
3.4109602e-74
8.4234884e-81
2.116762e-87
5.303371e-94
1.3762391e-100
1.7954156e-105
-3.6020616e-101
-1.4788923e-102
1.8648231e-104
2.1462107e-103
3.0412233e-103
4.9296576e-103
-4.8513534e-102
-2.8155839e-103
1.3143348e-100
1.184131e-102
-5.0817198e-99
-5.5586473e-103
-6.6403904e-103
6.0984006e-104
2.5747744e-104
-1.2454582e-101
6.8858715e-104
4.8804096e-104
6.870571e-105
-1.0137791e-101
1.6879708e-103
-1.1597754e-102
7.0514343e-101
-8.4148357e-104
2.6612249e-110
-1.4530449e-06
1.4713048e-15
-1.8985575e-24
8.2618297e-33
1.6625879e-40
3.0495696e-48
2.073797e-55
6.4253205e-62
2.2695847e-68
6.1612213e-75
1.7321089e-81
5.050825e-88
1.4360457e-94
3.2743868e-101
8.5079691e-108
2.0313683e-107
1.530503e-108
-9.5963578e-111
-3.7011083e-109
-2.2273625e-109
-4.0829026e-109
4.2977811e-108
2.0300871e-109
-1.8989043e-106
-7.3913272e-109
6.0729961e-105
4.4429981e-109
7.9293454e-109
-7.9483005e-110
-1.7307651e-110
6.3973826e-108
-4.2738687e-110
-8.0445848e-110
-4.2844394e-111
1.3354589e-107
-1.9184993e-109
1.1337378e-108
-9.4156879e-107
4.3693653e-109
1.0072457e-115
-1.2169135e-06
1.0209911e-15
-1.0466118e-24
3.1794888e-33
7.8842214e-41
1.1596364e-48
5.8556132e-56
1.6201259e-62
6.0677774e-69
1.6008852e-75
3.9974346e-82
1.075646e-88
3.2542835e-95
8.387984e-102
2.3700622e-108
-2.813862e-113
-1.9145914e-114
7.891834e-117
1.9875368e-115
3.6801245e-115
3.7915177e-115
-6.1846689e-114
-2.5332589e-115
1.401087e-112
5.5673311e-115
-5.1754294e-111
-4.3232997e-115
-7.8444159e-115
7.5079476e-116
2.2237309e-116
-5.6332722e-114
4.882029e-116
5.4077433e-116
3.7074087e-117
-6.4535432e-114
2.7138604e-115
-1.217461e-114
8.3951534e-113
-2.0977656e-115
-2.4203699e-122
-1.0233556e-06
7.1600586e-16
-5.899855e-25
1.2995001e-33
5.8349656e-41
7.1240813e-49
2.5773137e-56
6.8384817e-63
2.8528885e-69
8.6250447e-76
2.4356569e-82
5.5031645e-89
1.5998647e-95
4.1461047e-102
1.1470212e-108
2.9431916e-115
1.3457698e-120
-6.0770773e-123
-1.3486581e-121
-6.1248362e-121
-2.8996251e-121
1.4549145e-119
1.8459291e-121
-8.7027967e-119
-3.710302e-121
4.4217609e-117
7.4626104e-121
1.0116352e-120
-7.5833623e-122
-2.7865994e-122
7.7389494e-120
-9.7491483e-122
-5.7399205e-122
-3.1839622e-123
8.3838804e-120
-2.355205e-121
1.3362612e-120
-5.4169104e-119
2.7576211e-121
5.1935505e-128
-8.6633413e-07
5.0821518e-16
-3.4053377e-25
5.5725817e-34
-7.1443463e-41
-7.3916191e-49
-1.9824953e-56
-3.5360191e-63
-1.5784477e-69
-4.6572612e-76
-1.2728243e-82
-3.5935156e-89
-1.0033893e-95
-2.7958885e-102
-6.7474903e-109
-1.5378721e-115
-4.5741351e-122
-5.4936561e-129
1.4377406e-127
5.3413614e-127
6.0809389e-127
-1.7984599e-125
-1.482071e-127
9.7977528e-125
6.1750616e-127
-3.473007e-123
-7.1981054e-127
-5.0584941e-127
1.651597e-127
1.9941661e-128
-1.3432642e-125
6.915385e-128
7.2174368e-128
3.2192933e-129
-1.6467311e-125
2.4836735e-127
-1.4623578e-126
4.5112115e-125
-2.7522311e-127
-4.8153736e-134
-7.3700227e-07
3.646356e-16
-2.0033117e-25
2.4973203e-34
-4.8550797e-42
-4.3546793e-50
-8.8356752e-58
-1.1241267e-64
-4.4449036e-71
-1.5136914e-77
-4.1261556e-84
-9.7987438e-91
-2.7305906e-97
-7.1280142e-104
-2.0617552e-110
-5.6791872e-117
-1.4445078e-123
-3.6348186e-130
-9.9427063e-134
-3.8797669e-133
-6.6128101e-133
1.4528473e-131
7.2376634e-134
-6.3262407e-131
-5.0752294e-133
2.2964857e-129
6.4762475e-133
7.3196476e-133
-6.1670738e-134
-1.5481525e-134
8.529926e-132
-5.7263386e-134
-9.497611e-134
-1.0672314e-134
2.3941401e-131
-1.6141524e-133
6.9712945e-133
-2.9419296e-131
5.9192055e-133
1.2333601e-139
-6.2977972e-07
2.6395634e-16
-1.1992948e-25
1.1578418e-34
-1.0308123e-42
-8.2292912e-51
-1.2892176e-58
-1.0736781e-65
-8.0784369e-72
-2.5161281e-78
-7.11044e-85
-1.9422008e-91
-5.3056024e-98
-1.341117e-104
-3.6032995e-111
-8.773449e-118
-2.3667317e-124
-5.8561899e-131
-1.7568337e-137
4.2926485e-139
3.0879589e-139
-1.0682717e-137
-1.2985038e-139
5.028469e-137
5.8834783e-139
-3.4432039e-135
-2.5076203e-139
-1.5217928e-138
2.1547674e-139
3.3765489e-140
-1.1726075e-137
4.4975796e-140
8.3024799e-140
8.3090008e-141
-1.1480569e-137
3.2448033e-139
-1.7299943e-138
3.2953056e-137
-7.2102076e-139
-1.2513019e-145
-5.3980224e-07
1.9252904e-16
-7.285208e-26
5.5314154e-35
-2.8200021e-43
-2.0868985e-51
-2.5663369e-59
-1.5071904e-66
-8.8338052e-73
-3.1355908e-79
-9.2680113e-86
-2.3210875e-92
-5.2822692e-99
-1.5021887e-105
-3.5637823e-112
-1.1096062e-118
-3.2460672e-125
-8.7862516e-132
-2.1644296e-138
-1.5208263e-144
-1.8146771e-145
8.1915931e-144
8.4530108e-146
-2.7341932e-143
-4.4629848e-145
2.7537823e-141
2.949651e-145
1.2218738e-144
-1.7387775e-145
-2.0285079e-146
8.047189e-144
-3.8308826e-146
-7.6608527e-146
-9.0248841e-147
4.4476427e-143
-1.7094729e-145
1.4785741e-144
-3.8357971e-143
6.5172485e-145
9.785343e-152
-4.6484128e-07
1.4161189e-16
-4.489626e-26
2.7176036e-35
-8.8797924e-44
-6.255157e-52
-6.2195692e-60
-2.638407e-67
-1.2958389e-73
-5.7183237e-80
-1.3804868e-86
-3.9724385e-93
-1.0394385e-99
-3.1200781e-106
-8.0604429e-113
-2.3038886e-119
-5.8827985e-126
-1.5907378e-132
-4.6282503e-139
-1.3296818e-145
1.49451e-151
-5.9338168e-150
-1.1692737e-151
1.9034473e-149
3.0205162e-151
-3.4788431e-147
-1.4482233e-151
-2.3932489e-150
1.3441965e-151
5.9378489e-152
-5.1444591e-150
2.7783412e-152
3.1477527e-151
6.6737139e-153
-3.8777654e-149
5.0964095e-151
-2.704904e-150
7.8447941e-149
-6.0240086e-151
-1.1835746e-157
-4.0121885e-07
1.0482026e-16
-2.8015769e-26
1.3673752e-35
-3.0556054e-44
-2.1649089e-52
-1.7569039e-60
-5.5950494e-68
-1.7971907e-74
-8.3726717e-81
-2.3844001e-87
-5.9435444e-94
-1.3943954e-100
-4.3991768e-107
-1.1400713e-113
-2.9311154e-120
-7.8684597e-127
-2.225848e-133
-5.9025264e-140
-1.5723781e-146
-4.3634094e-153
5.5927753e-156
1.158683e-157
-1.0256045e-155
-2.1273097e-157
2.546163e-153
1.5387714e-157
1.52352e-156
-1.3709146e-157
-2.6839694e-158
2.4296863e-155
-1.896305e-158
-4.3369687e-157
-4.3240233e-159
1.8661107e-155
-4.3386292e-157
2.2523473e-156
-3.8401481e-155
6.6950952e-157
1.1938646e-163
-3.4742905e-07
7.8108175e-17
-1.7691665e-26
7.0305511e-36
-1.1223556e-44
-8.3951988e-53
-5.7121891e-61
-1.3313099e-68
-3.0985077e-75
-1.4379267e-81
-4.5422509e-88
-1.115177e-94
-3.1973513e-101
-9.4422388e-108
-2.4791526e-114
-7.831124e-121
-1.9298635e-127
-4.8628087e-134
-1.1979193e-140
-2.8941619e-147
-8.2854755e-154
-2.4436964e-160
-1.5974459e-163
1.4675776e-161
5.126092e-163
-2.430906e-159
-9.3949001e-164
-2.7000145e-162
1.5224608e-163
2.1021151e-164
-1.7371019e-161
1.5130583e-164
6.4846161e-163
2.9310788e-165
-2.6512203e-161
3.2188201e-163
-2.1624806e-162
4.9711701e-161
-4.7294324e-163
-8.9014532e-170
-3.0158975e-07
5.852341e-17
-1.1285067e-26
3.6828651e-36
-4.3426151e-45
-3.8817428e-53
-2.239106e-61
-3.9839562e-69
-6.3331732e-76
-4.7919772e-82
-1.9386641e-88
-4.9468561e-95
-1.2902646e-101
-3.3895133e-108
-9.9081516e-115
-2.7292971e-121
-7.7651003e-128
-2.5008504e-134
-6.2391637e-141
-1.6848273e-147
-4.4275848e-154
-1.1298797e-160
-2.805204e-167
-8.5486264e-168
-9.2729379e-169
1.7268791e-165
8.2416071e-170
4.3285242e-168
-2.6708002e-169
-1.4036777e-170
3.5318193e-167
-1.484022e-170
-7.193541e-169
-7.3976296e-171
1.2865773e-167
-4.0631482e-169
2.7497654e-168
-5.1961143e-167
1.3077644e-168
2.9218254e-175
-2.6253579e-07
4.4106885e-17
-7.2719331e-27
1.9648795e-36
-1.7510729e-45
-2.2710198e-53
-1.1314553e-61
-1.5981476e-69
-1.6549287e-76
-1.6998728e-82
-6.2086071e-89
-1.785433e-95
-4.582266e-102
-1.1253044e-108
-2.9350505e-115
-7.5503325e-122
-1.9937291e-128
-5.0462614e-135
-1.6651575e-141
-4.2712608e-148
-1.0232162e-154
-3.0024682e-161
-7.1819044e-168
1.0132519e-173
4.9418392e-175
-1.5145208e-171
-6.7288819e-176
-1.8094427e-174
2.2148385e-175
1.4361404e-176
-3.4137597e-173
1.3683525e-176
1.0732444e-174
5.6161827e-177
-1.1649279e-173
2.8050033e-175
-3.0977047e-174
2.4138168e-173
-1.0938e-174
-1.7509574e-181
-2.2893372e-07
3.3396709e-17
-4.7279077e-27
1.0646631e-36
-7.3177602e-46
-3.1948161e-53
-1.3960191e-61
-1.5327551e-69
-1.1348234e-76
-3.6020444e-82
-1.3518937e-88
-4.5026609e-95
-1.1306362e-101
-2.8209945e-108
-7.6548372e-115
-1.9088657e-121
-5.0071192e-128
-1.4211285e-134
-3.3449633e-141
-9.6225001e-148
-2.5647538e-154
-6.1115242e-161
-1.6820748e-167
-3.8591111e-174
-1.3758958e-180
1.3620404e-177
8.574602e-182
2.2701583e-180
-1.6473463e-181
-1.295316e-182
3.8695339e-179
-6.956315e-183
-3.0783521e-180
-3.5272329e-183
1.9502753e-179
-3.6574479e-181
3.2502121e-180
-2.2879132e-179
8.6656626e-181
1.903262e-187
-2.0015776e-07
2.5414259e-17
-3.1000151e-27
5.8559342e-37
-3.1564683e-46
5.691025e-54
2.2187231e-62
1.9669026e-70
1.0466274e-77
1.2878139e-83
5.3798209e-90
1.4071822e-96
4.0095474e-103
1.1985761e-109
2.8518175e-116
7.5836207e-123
2.1567847e-129
6.3508043e-136
1.5530426e-142
4.3268488e-149
1.0269864e-155
2.8217674e-162
6.9478939e-169
2.0708546e-175
5.2445623e-182
-1.159047e-183
-4.9373574e-188
-1.511668e-186
2.6802065e-187
8.172769e-189
-2.9702672e-185
6.0157495e-189
1.2634111e-186
2.0424273e-189
-1.4521137e-185
1.9055103e-187
-3.162765e-186
1.8681036e-185
-8.6738806e-187
-1.6609805e-193
-1.7530029e-07
1.9426553e-17
-2.0488828e-27
3.2651835e-37
-1.3989328e-46
8.6649899e-55
3.0813371e-63
2.2170682e-71
8.3130061e-79
1.0590414e-84
5.2239468e-91
1.2251862e-97
3.1684377e-104
7.5414467e-111
1.713314e-117
4.7832491e-124
1.3438487e-130
3.6936525e-137
9.0541118e-144
2.1983383e-150
5.5349167e-157
1.6279207e-163
4.0988548e-170
1.0362519e-176
2.7378242e-183
1.6198293e-189
3.5295502e-194
3.0726494e-192
-1.297249e-193
-5.925795e-195
1.8986826e-191
-3.8405095e-195
-1.2382745e-192
-3.278579e-195
1.0526772e-191
-3.8569116e-193
2.2169681e-192
-2.6792917e-191
5.4537294e-193
1.1431177e-199
-1.5381659e-07
1.4908093e-17
-1.3639155e-27
1.8435373e-37
-6.350691e-47
2.1017183e-55
6.9381232e-64
4.1103317e-72
1.1445382e-79
6.5971976e-86
5.5300798e-92
1.5858174e-98
3.7841948e-105
9.8235338e-112
2.3159881e-118
5.5463773e-125
1.3285135e-131
3.8084715e-138
8.9166538e-145
2.4028452e-151
6.2098101e-158
1.6073422e-164
3.7164217e-171
9.5313238e-178
2.4076045e-184
8.4291454e-191
2.5897324e-198
-2.5107067e-198
2.0755566e-199
5.331064e-201
-1.5282514e-197
4.2401444e-201
1.6446746e-198
1.9833254e-201
-1.037456e-197
5.9962525e-199
-1.7689441e-198
7.8775567e-197
-1.4125668e-199
-5.0614662e-207
-1.3521135e-07
1.1487539e-17
-9.1437323e-28
1.0532815e-37
-2.9484482e-47
6.0846502e-56
1.9108319e-64
9.4879906e-73
2.0016774e-80
6.6579361e-87
8.9645751e-93
2.602249e-99
6.7406111e-106
1.4422055e-112
3.9806006e-119
8.2067432e-126
2.0049636e-132
5.3717907e-139
1.4420677e-145
3.7021608e-152
9.3547427e-159
2.2706145e-165
5.7646322e-172
1.4117269e-178
3.616518e-185
1.1840353e-191
1.8645602e-198
5.8323938e-204
-8.7616783e-206
-5.6075094e-207
6.0483427e-203
-3.5561819e-207
-1.0443353e-204
-1.6187319e-207
7.2948154e-204
-5.1869178e-205
1.0745967e-204
-1.317676e-202
1.3686529e-205
4.6042061e-212
-1.1906405e-07
8.8854379e-18
-6.1707173e-28
6.0844619e-38
-1.3965821e-47
1.9532995e-56
6.0035511e-65
2.5236403e-73
4.0651924e-81
8.2648211e-88
1.3551058e-93
4.8922325e-100
1.3226656e-106
3.5633987e-113
9.2388039e-120
2.033691e-126
4.7154305e-133
1.1331206e-139
2.8694944e-146
7.3367161e-153
1.868509e-159
4.192123e-166
1.0595914e-172
2.8761368e-179
9.5155504e-186
6.9017896e-193
1.4544648e-198
-1.1764175e-204
1.717913e-210
5.832678e-213
-4.7546176e-209
5.7849912e-213
2.3098501e-210
1.8109146e-213
-7.4786269e-210
3.9892811e-211
-1.0497553e-210
2.0533577e-208
-6.1301181e-212
-5.8427473e-219
-1.0500801e-07
6.8970306e-18
-4.1900059e-28
3.5513759e-38
-6.7369551e-48
6.7129568e-57
2.0950673e-65
7.5335934e-74
9.5461597e-82
1.2841023e-88
5.3442239e-94
1.6197766e-100
4.7047242e-107
9.9722017e-114
2.3845495e-120
5.9918832e-127
1.5706713e-133
4.0436546e-140
1.0268716e-146
2.7031925e-153
7.2216769e-160
1.9083289e-166
5.2457701e-173
1.4196921e-179
3.2548103e-186
9.1179623e-193
3.380545e-199
1.4673183e-206
5.8928525e-212
-1.2618034e-217
7.8774702e-215
-8.0353337e-219
-1.19311e-216
-1.3896749e-219
5.954649e-216
-5.4364834e-217
1.9337894e-216
-3.0043999e-215
2.6703008e-218
8.0626281e-225
-9.2752196e-08
5.3710626e-18
-2.8613848e-28
2.0926698e-38
-3.304605e-48
2.4327702e-57
8.0690733e-66
2.5140579e-74
2.5129015e-82
2.2654905e-89
7.5923091e-94
2.4362033e-100
6.464118e-107
1.6103905e-113
3.419787e-120
8.836433e-127
2.063209e-133
5.3164007e-140
1.2296532e-146
3.0922364e-153
7.3237048e-160
1.9850192e-166
4.7832379e-173
1.1777814e-179
3.1939028e-186
7.3202549e-193
1.9696053e-199
3.5819469e-206
1.8001394e-212
-1.5310916e-219
-5.2973152e-221
1.0262306e-224
1.2127346e-222
2.1263623e-225
-9.232377e-222
3.2712164e-223
-1.5879642e-222
7.0922915e-221
-7.454831e-225
4.025718e-232
-8.2029196e-08
4.1955351e-18
-1.9645907e-28
1.2442522e-38
-1.6464131e-48
9.197043e-58
3.5079672e-66
9.6105012e-75
7.7388493e-83
4.6192981e-90
-9.4933302e-96
-4.8281657e-102
-1.1359006e-108
-3.6120933e-115
-8.5271265e-122
-2.1706023e-128
-5.8511239e-135
-1.4231392e-141
-3.4290992e-148
-9.0748157e-155
-2.3297455e-161
-6.2458462e-168
-1.5884636e-174
-3.865592e-181
-9.406887e-188
-2.513628e-194
-5.0667014e-201
-4.1097973e-207
1.3037189e-213
-2.1654103e-219
2.4801646e-225
-7.4914523e-231
-1.4376941e-228
-2.4532505e-231
6.0732039e-228
-3.3486956e-229
8.5407015e-229
-2.1439761e-227
3.1178478e-231
1.2093555e-237
-7.2646898e-08
3.2871021e-18
-1.3558597e-28
7.4613563e-39
-8.3228332e-49
3.6007645e-58
1.8086513e-66
4.412672e-75
2.9031584e-83
1.2459951e-90
3.6658425e-96
2.1690501e-102
5.9086606e-109
1.4833533e-115
4.3066428e-122
9.0546318e-129
2.0823843e-135
5.6905658e-142
1.4574294e-148
4.1625346e-155
1.0429512e-161
2.2035289e-168
5.6611465e-175
1.5844064e-181
3.8776302e-188
9.5223424e-195
3.6894057e-201
-7.0259593e-208
1.8127174e-213
-1.1265592e-219
6.7610212e-226
-3.8147297e-232
3.9318668e-234
2.4147087e-237
-7.829963e-234
4.7929163e-235
-9.7229894e-235
1.2420382e-233
-2.3552926e-237
-3.7986705e-244
-6.4416048e-08
2.5824406e-18
-9.4029581e-29
4.5101889e-39
-4.2638715e-49
1.4528019e-58
1.3681221e-66
3.0065515e-75
1.631796e-83
5.2182432e-91
2.213995e-96
1.4950045e-102
3.6679512e-109
9.0335463e-116
2.1973433e-122
4.8957331e-129
1.3739588e-135
3.2188717e-142
8.1913796e-149
2.1271117e-155
5.6084498e-162
1.4877522e-168
3.8217036e-175
9.3396223e-182
2.3603986e-188
6.3330626e-195
1.4143129e-201
5.4489754e-208
-2.6234702e-215
1.4241006e-220
-1.0099171e-226
1.1841359e-232
-1.5667469e-238
-2.0932287e-243
6.0049252e-240
-4.5745801e-241
8.3916017e-241
-7.0876217e-240
1.6216755e-243
2.793403e-250
-5.7176819e-08
2.0337779e-18
-6.5495809e-29
2.7464864e-39
-2.2119801e-49
6.0188307e-59
-2.6300634e-66
-5.272458e-75
-2.3859608e-83
-5.7126256e-91
-4.275715e-97
-3.2613751e-103
-8.8917734e-110
-2.2421712e-116
-5.7441427e-123
-1.3361019e-129
-3.0868711e-136
-7.9358739e-143
-2.0354077e-149
-5.1079778e-156
-1.1619024e-162
-3.0494491e-169
-8.4057012e-176
-2.1484023e-182
-5.1120086e-189
-1.1049717e-195
-2.7282574e-202
-5.7876355e-209
-4.0338618e-215
6.1602753e-222
-1.3683152e-227
1.507774e-233
-1.2849862e-239
1.5536577e-245
-8.808907e-246
4.0289277e-247
-8.1316367e-247
5.1717557e-246
-3.6139651e-249
-6.3269921e-256
-5.0808533e-08
1.6057094e-18
-4.5819704e-29
1.6843807e-39
-1.1610136e-49
2.553531e-59
-1.3039697e-67
-2.4179901e-76
-9.2282778e-85
-1.6789329e-92
-7.530702e-99
-3.8692003e-104
-1.2320082e-110
-2.9494701e-117
-8.3117897e-124
-2.1776144e-130
-6.5394036e-137
-1.6193219e-143
-3.8752668e-150
-9.5330557e-157
-2.5504279e-163
-7.8361711e-170
-1.8040746e-176
-5.172637e-183
-1.353849e-189
-3.676451e-196
-8.2765262e-203
-2.1773304e-209
-5.5957315e-216
-1.0889576e-222
-3.6444585e-229
2.2131026e-236
-2.2500612e-241
1.5108778e-247
1.1155409e-251
-2.1809697e-253
6.0657527e-253
-9.1696269e-252
7.1048665e-255
5.0811704e-261
-4.5188932e-08
1.2704558e-18
-3.2180749e-29
1.0398504e-39
-6.160641e-50
1.1064694e-59
-2.6293358e-68
-4.5855805e-77
-1.4920099e-85
-2.1171425e-93
-4.3002855e-100
-5.4893726e-106
-1.9265247e-112
-4.8018235e-119
-1.3254417e-125
-3.1873797e-132
-7.8147522e-139
-1.9527124e-145
-4.505219e-152
-1.2404743e-158
-3.4044491e-165
-8.9216519e-172
-2.5226976e-178
-6.4683619e-185
-1.5989712e-191
-3.9354973e-198
-1.0623891e-204
-2.7734413e-211
-4.5065928e-218
-5.2336954e-224
3.3784082e-230
-5.4376052e-236
4.4821603e-242
-7.7571333e-248
8.1242034e-254
2.1143233e-259
-8.816947e-259
4.2174094e-258
4.0802049e-259
8.3347446e-266
-4.0227178e-08
1.0072947e-18
-2.2685756e-29
6.4591133e-40
-3.3025242e-50
4.8867692e-60
-6.9234149e-69
-1.1553271e-77
-3.2394818e-86
-3.6470641e-94
-5.0497209e-101
3.9571959e-106
1.2957091e-112
3.2914928e-119
7.914961e-126
1.8832045e-132
5.2753186e-139
1.3577205e-145
3.5237973e-152
8.8086116e-159
2.6697439e-165
6.4350862e-172
1.6085728e-178
4.2581519e-185
1.0340001e-191
2.8332753e-198
8.2259217e-205
2.0384955e-211
5.1238067e-218
1.3013394e-224
4.7077457e-231
2.177797e-238
1.3099465e-243
-9.6304546e-250
1.1261434e-255
-1.6710488e-261
4.9922439e-265
-1.8122107e-264
8.4578484e-265
1.6082116e-271
-3.5837636e-08
8.0011127e-19
-1.6046999e-29
4.0354515e-40
-1.78748e-50
2.196638e-60
-2.0681557e-69
-3.3733943e-78
-8.2103087e-87
-7.4189376e-95
-6.6628622e-102
1.0145688e-107
3.6609977e-114
9.5045051e-121
2.3265092e-127
6.4780049e-134
1.7077735e-140
4.1313482e-147
1.0460371e-153
2.6768772e-160
6.3497782e-167
2.0246525e-173
5.8815526e-180
1.3860276e-186
3.6863319e-193
8.2539205e-200
2.2632369e-206
5.5181795e-213
1.8590737e-219
6.7539367e-227
2.65485e-232
-3.771799e-238
3.425698e-244
-4.0503859e-250
5.6057579e-256
-4.8734692e-262
3.8680015e-268
2.1276732e-270
8.9507898e-271
1.6306687e-277
-3.195027e-08
6.3665287e-19
-1.1387751e-29
2.5350065e-40
-9.7616483e-51
1.0034245e-60
-6.682843e-70
-1.0932299e-78
-2.3365546e-87
-1.7025447e-95
-1.1070907e-102
2.1989934e-108
1.1406129e-114
3.1240796e-121
7.5720262e-128
2.1144715e-134
5.6975407e-141
1.4150372e-147
3.6396474e-154
9.1479134e-161
2.3496977e-167
6.2236902e-174
1.6142047e-180
4.010224e-187
1.0932863e-193
2.8330336e-200
6.9116142e-207
1.8625325e-213
4.5899161e-220
8.2804504e-227
6.9981463e-233
-2.3035165e-239
6.7958463e-245
-3.8863235e-251
2.8188846e-257
-4.2879923e-263
2.4986275e-269
-3.0347195e-275
5.3228381e-277
1.0423553e-283
-2.85025e-08
5.0738192e-19
-8.1051e-30
1.600549e-40
-5.3759739e-51
4.6527679e-61
-2.285569e-70
-3.8698864e-79
-7.3135838e-88
-4.4031745e-96
-1.9666052e-103
3.6426993e-109
1.564354e-115
4.5559527e-122
1.2494715e-128
3.3828176e-135
8.7907133e-142
1.9434904e-148
5.2111979e-155
1.2238661e-161
3.0664953e-168
8.2269046e-175
2.495134e-181
5.9281931e-188
1.5846074e-194
4.7898715e-201
1.2013422e-207
2.9508675e-214
9.8298193e-221
1.4632126e-227
1.3722532e-233
-2.9422e-240
4.6025026e-246
-5.2085865e-252
2.9332971e-258
-6.9917932e-264
4.5856426e-270
-4.1581069e-276
5.6519753e-282
1.834295e-287
-2.5442032e-08
4.0494695e-19
-5.7846848e-30
1.0153718e-40
-2.9842642e-51
2.1872978e-61
-8.1635703e-71
-1.5032106e-79
-2.5405909e-88
-1.2672921e-96
-4.2243577e-104
-1.6861314e-109
-1.5955232e-115
-4.8577722e-122
-1.1420217e-128
-2.9643898e-135
-7.0270121e-142
-1.9040359e-148
-4.775543e-155
-1.1341173e-161
-2.8862137e-168
-7.5042828e-175
-1.9784088e-181
-5.1892526e-188
-1.292726e-194
-3.2964865e-201
-9.2940984e-208
-2.365412e-214
-6.5897959e-221
-1.6919644e-227
-4.3968141e-234
-1.6909054e-240
-5.2159606e-248
-7.0310433e-253
6.8554844e-259
-5.8076612e-265
8.2639488e-271
-2.6922212e-277
7.1039835e-283
4.0083832e-289
-2.2722913e-08
3.2362477e-19
-4.1391827e-30
6.4704753e-41
-1.6690077e-51
1.0416361e-61
-3.0214219e-71
-6.4904258e-80
-9.8960397e-89
-4.134446e-97
-1.0402644e-104
-1.3429606e-110
-9.4169713e-117
-2.7129752e-123
-7.2265952e-130
-1.9438824e-136
-4.7872021e-143
-1.2523483e-149
-3.2937918e-156
-8.9507374e-163
-2.2031627e-169
-5.8026393e-176
-1.9422392e-182
-4.7619509e-189
-1.2753746e-195
-2.9895945e-202
-1.0553465e-208
-2.6472105e-215
-5.0246272e-222
-2.740755e-228
4.0331476e-235
-4.9641231e-241
3.7975952e-247
-4.9999556e-253
2.5655576e-259
-2.5022745e-265
2.5479769e-271
-1.8985961e-277
1.0554889e-283
6.0137924e-290
-2.0304862e-08
2.5894653e-19
-2.9687683e-30
4.1404779e-41
-9.3995763e-52
5.0201087e-62
-1.1522477e-71
-3.2979351e-80
-4.5877605e-89
-1.6266981e-97
-3.1296592e-105
-1.2919951e-111
-1.2197448e-117
-3.5680616e-124
-8.4033036e-131
-2.0921409e-137
-5.8414216e-144
-1.5724737e-150
-3.7337204e-157
-9.9461079e-164
-2.6502645e-170