/*--------------------------------*- C++ -*----------------------------------*\
  =========                 |
  \\      /  F ield         | OpenFOAM: The Open Source CFD Toolbox
   \\    /   O peration     | Website:  https://openfoam.org
    \\  /    A nd           | Version:  10
     \\/     M anipulation  |
\*---------------------------------------------------------------------------*/
FoamFile
{
    format      ascii;
    class       volScalarField;
    location    "0.25";
    object      TporMedia;
}
// * * * * * * * * * * * * * * * * * * * * * * * * * * * * * * * * * * * * * //

dimensions      [0 0 0 1 0 0 0];

internalField   nonuniform List<scalar> 
4000
(
0.00028629237
0.00016481707
0.00014289969
0.00015759825
0.00014083477
0.00014052176
0.00014663507
0.00015875126
0.00014335422
0.00014083341
0.00015148539
0.00014147906
0.00014142304
0.00014168896
0.0001410795
0.00015301462
0.00014423815
0.0001298655
0.0001542465
0.00014956109
0.00013749925
0.00015111044
0.00014292928
0.00014783918
0.00014747597
0.00013632599
0.00014614491
0.00013351984
0.00014100773
0.00014991128
0.00014604902
0.00014671653
0.00015063411
0.00013670326
0.00013738505
0.00014322988
0.00015427467
0.00013291283
0.00013507154
0.00014256061
0.00043941002
1.1508343e-10
3.3677074e-11
3.7354018e-11
3.9957753e-11
4.0230823e-11
4.2611153e-11
4.0277754e-11
3.2199572e-11
3.7347453e-11
3.9498797e-11
3.2772775e-11
3.6247381e-11
3.7490277e-11
3.112056e-11
3.8065658e-11
3.6224478e-11
3.2009608e-11
4.38776e-11
3.7592244e-11
3.4386355e-11
3.564196e-11
4.5169842e-11
3.3906244e-11
3.7570286e-11
3.5887702e-11
3.9484279e-11
3.3817885e-11
3.6569521e-11
4.1663379e-11
3.6527307e-11
3.7804185e-11
4.0485348e-11
3.2182644e-11
3.3126927e-11
3.9596782e-11
3.6715479e-11
3.5692484e-11
3.4671466e-11
3.6400569e-11
-0.00035786628
-8.0804366e-11
-8.4021158e-18
8.9911932e-18
8.2208618e-18
1.0922843e-17
9.8908668e-18
1.2539805e-17
7.984876e-18
9.4919483e-18
1.0067067e-17
8.4162997e-18
9.4094219e-18
9.2780677e-18
7.8743889e-18
1.1499969e-17
8.1489081e-18
8.2566009e-18
1.0594134e-17
8.440444e-18
9.1299013e-18
8.2057873e-18
1.1066008e-17
8.8297515e-18
8.8656447e-18
8.4972172e-18
8.3654157e-18
8.0064442e-18
1.0102124e-17
1.1129449e-17
8.40666e-18
9.5658001e-18
1.08073e-17
7.4926175e-18
8.0253333e-18
9.272915e-18
8.8746479e-18
7.6182352e-18
8.2540158e-18
8.1734193e-18
-7.9265129e-05
-7.0260869e-11
-1.0675522e-17
-3.8527836e-25
2.0428566e-24
2.5193904e-24
2.4504023e-24
2.6427382e-24
1.7412393e-24
2.0738329e-24
2.3005044e-24
1.9229346e-24
2.2383469e-24
2.1632993e-24
1.8633403e-24
2.5820081e-24
1.9090238e-24
1.7383069e-24
2.7127786e-24
2.1507395e-24
2.1292484e-24
1.820111e-24
2.6241084e-24
2.1735817e-24
2.1202616e-24
2.1060552e-24
1.8548813e-24
1.9273052e-24
2.562882e-24
2.6829773e-24
2.2399105e-24
2.4265253e-24
2.9496761e-24
1.7889169e-24
1.9459339e-24
2.2968911e-24
2.2422927e-24
1.8129512e-24
1.9753371e-24
2.1042759e-24
-3.8450289e-05
5.84687e-12
7.5075047e-19
1.2338083e-25
5.2011549e-31
6.7873259e-31
4.9762939e-31
6.0823359e-31
4.6448268e-31
5.0913761e-31
5.8370313e-31
5.8339631e-31
5.3194505e-31
4.9912755e-31
4.9928425e-31
5.6608609e-31
4.5872683e-31
4.9434044e-31
7.3235532e-31
6.1311521e-31
5.1441502e-31
4.2795025e-31
6.0185807e-31
6.0415356e-31
4.64232e-31
5.100987e-31
4.6526647e-31
4.6392561e-31
5.7244307e-31
6.5540496e-31
5.3326362e-31
5.6139829e-31
6.8277348e-31
4.2680872e-31
5.432894e-31
5.77295e-31
5.6955315e-31
4.3780979e-31
5.4163234e-31
5.0304255e-31
-2.3834473e-05
1.2448791e-12
1.5856114e-19
2.0930106e-26
4.9949101e-33
1.4764604e-37
1.1211676e-37
1.4771644e-37
1.0518371e-37
1.1623448e-37
1.1814145e-37
6.015812e-38
1.1940662e-37
1.6562249e-37
1.9116563e-38
1.4264517e-37
1.0617662e-37
1.1356766e-37
-1.7018434e-38
-1.0256681e-37
1.3710133e-37
1.0307851e-37
1.5672851e-37
1.5747959e-37
1.1298768e-37
5.9546668e-38
-9.869981e-38
1.0699999e-37
8.8752909e-38
1.6368828e-37
1.2632095e-37
1.3255847e-37
1.467998e-37
1.0134129e-37
1.289407e-37
1.3682716e-37
1.6870555e-37
1.0628376e-37
1.2449929e-37
1.1509836e-37
-1.6409365e-05
4.2665783e-13
1.1561504e-19
1.0452068e-26
2.0475221e-33
4.8980241e-40
1.9005573e-44
4.4152048e-44
2.8836065e-44
7.5338054e-44
4.940991e-44
8.6330332e-44
3.4552348e-44
-5.5897664e-44
2.938195e-43
2.967444e-44
4.6884456e-44
6.9304378e-44
2.5966839e-43
6.284512e-43
1.7572081e-44
5.303418e-44
3.5494237e-44
4.1484918e-44
2.578437e-44
5.8193285e-44
1.9405898e-42
2.4936018e-44
1.6473581e-43
2.3243603e-44
-1.099353e-43
3.2261011e-44
4.2221164e-44
1.4483678e-43
4.2972925e-44
3.0543863e-44
4.7490774e-44
-5.8883663e-43
3.6503808e-44
2.8728926e-44
-1.2277068e-05
1.9320075e-13
-4.6188706e-20
-3.3587344e-27
-4.9076085e-34
-1.1901593e-40
-2.5309975e-47
-7.6329982e-50
-7.4920884e-50
-7.4228385e-50
3.3465279e-48
-6.0565449e-50
-6.4642432e-51
8.5628598e-49
-5.4153817e-49
6.287477e-50
-2.6078704e-50
-3.8068149e-49
-7.2114931e-49
-6.3189714e-49
2.8601093e-50
-1.7599429e-50
-1.0186389e-51
-1.3503707e-49
4.5849007e-51
-8.8448787e-50
-5.5671079e-48
5.2130657e-51
-2.0517046e-49
-1.2864287e-49
2.8727797e-49
5.6530115e-51
-3.4784657e-50
-2.2210574e-49
-3.6665667e-48
1.88649e-50
4.9295124e-51
-8.7714973e-48
-8.0457004e-52
7.3736063e-51
-9.4988537e-06
9.8734377e-14
-5.2021818e-21
-3.1127937e-28
-3.1912283e-35
-6.9017583e-42
-1.563889e-48
-2.6408666e-55
1.1770991e-55
1.7805938e-55
-2.8209882e-54
1.6708119e-55
5.597493e-56
-8.8263342e-55
1.1442794e-54
-6.393944e-56
6.6895147e-56
6.0684173e-55
1.8348167e-54
3.327901e-54
-5.6273337e-56
3.1191073e-56
4.4135913e-56
1.7384951e-55
6.4184897e-57
2.0304249e-55
1.009719e-53
2.6999407e-56
-1.7796977e-54
1.2189679e-55
-6.1471762e-55
6.7981532e-57
1.3079835e-55
7.6022663e-55
7.1046148e-54
-4.7125883e-56
8.2140996e-57
2.4853353e-53
3.3021186e-56
2.0774803e-57
-7.4828965e-06
5.4663888e-14
-1.3161563e-21
-7.5251075e-29
-5.5904834e-36
-9.55477e-43
-2.4271904e-49
-5.7483692e-56
-2.6443307e-61
-2.087313e-61
9.7907262e-60
-2.4290927e-61
-1.2911358e-61
2.5418995e-60
-4.4205143e-60
1.0941231e-61
-9.5285946e-62
-1.8393437e-60
-2.2030216e-60
-3.5073384e-60
7.3016992e-61
-5.0828689e-62
-1.2961923e-61
-2.3246316e-61
-1.0557159e-62
-2.7238913e-60
-3.6769502e-59
-8.1691556e-62
2.2158789e-60
-1.9387942e-61
1.7336559e-60
-1.9828237e-61
-1.1738179e-61
-8.1328675e-61
-1.2068391e-59
5.1944799e-62
-1.4242198e-62
-2.3920985e-58
-5.2128887e-62
5.6923535e-64
-6.0615964e-06
3.2442403e-14
-4.50331e-22
-2.7590056e-29
-1.4797663e-36
-2.3937697e-43
-6.8301986e-50
-1.5782083e-56
-3.8714005e-63
2.0431224e-67
-9.1031845e-66
5.506068e-67
1.7350479e-67
-6.2325816e-66
1.0837962e-65
-2.4806692e-67
2.6769008e-67
1.6574933e-66
3.5058734e-66
2.2230942e-65
-7.9369829e-67
9.5602971e-68
1.3933381e-67
3.6250033e-67
2.8175014e-68
2.384831e-66
5.5565052e-65
1.4125402e-67
-2.085409e-66
5.6260232e-67
-5.1839411e-66
2.1112895e-67
-9.170346e-66
2.6104892e-66
1.2389869e-65
-6.1169167e-68
1.935779e-68
2.0161655e-64
5.5807886e-68
1.577448e-70
-4.9289556e-06
2.0005071e-14
-1.7401645e-22
-1.7182083e-29
-7.105024e-37
-8.7674942e-44
-2.1503364e-50
-5.5448938e-57
-1.3032884e-63
-3.4831521e-70
2.7771211e-70
-3.1679247e-73
-3.4865574e-73
6.0042753e-72
-1.3972209e-71
6.1326435e-73
-1.9016096e-73
-1.2122023e-71
-3.6961998e-72
-3.3706315e-71
7.8988341e-73
-1.378265e-73
-1.1310469e-73
-3.0477474e-73
-6.8771941e-74
-5.7280037e-72
-5.5250875e-71
-2.7205415e-73
4.6776882e-72
-4.401638e-73
7.6747567e-72
-2.2218767e-73
1.4229121e-71
-5.1021586e-72
-9.5350853e-72
2.322124e-73
-1.6363313e-74
-5.879419e-70
-8.432355e-74
4.0321535e-77
-4.0230409e-06
1.2614533e-14
-7.3758175e-23
4.4430534e-28
1.441165e-35
1.2627961e-42
3.4161765e-49
1.0603344e-55
2.5280586e-62
6.1685323e-69
1.6894123e-75
7.0535695e-79
3.3618264e-79
-4.2825132e-78
1.469146e-77
-7.991847e-79
2.2968924e-79
8.945645e-78
4.9614415e-78
1.227381e-76
-1.1820558e-78
8.7121318e-80
1.6885608e-79
4.232094e-79
7.0801916e-80
4.6400467e-78
1.3359336e-76
2.9997778e-79
-6.6804614e-78
4.9235857e-78
-1.5365896e-77
3.2006069e-79
-1.8229264e-77
8.212706e-78
5.5866206e-77
-1.8902797e-79
1.9858442e-80
3.0650047e-75
3.8100162e-80
1.0076193e-83
-3.2953385e-06
8.1391197e-15
-3.3568119e-23
1.7498076e-30
4.699415e-38
2.927222e-45
6.9742144e-52
2.0150377e-58
4.8613387e-65
1.294648e-71
3.4059766e-78
2.6029977e-86
-4.7313315e-85
3.2130924e-84
-9.3055044e-84
6.815678e-85
-8.5091281e-85
-2.1809875e-83
-3.9167866e-84
-1.9356051e-82
2.9010597e-84
-8.5505754e-86
-2.1200736e-85
-5.1014628e-85
-8.7885523e-86
-6.1252606e-84
-6.9108719e-83
-7.1920576e-85
8.1884199e-84
-2.3383652e-84
1.057022e-83
-5.0615527e-85
2.4939613e-83
-9.1170567e-84
-4.8937049e-83
1.3733901e-85
-4.05591e-86
-3.5100073e-81
-1.6250278e-85
2.8160171e-90
-2.6991551e-06
5.3130078e-15
-1.6028618e-23
3.3374839e-31
7.788229e-39
3.4895644e-46
6.4621176e-53
2.1343924e-59
5.7518687e-66
1.4681496e-72
3.9563488e-79
9.9862336e-86
1.1328291e-90
-1.6039657e-90
8.8278341e-90
-4.2204224e-91
7.9952047e-91
3.0647711e-89
2.5304983e-90
1.7944469e-88
-3.6201793e-90
1.5933188e-91
4.1055227e-91
4.5989877e-91
1.5482596e-91
6.269803e-90
1.7631282e-88
5.2207527e-91
-5.7925756e-90
4.8613316e-90
-4.637229e-89
4.2382256e-91
-1.0600403e-88
6.38492e-90
8.9677581e-89
-2.1831687e-91
3.294057e-92
3.7265533e-87
1.2152883e-91
8.2843726e-97
-2.2187092e-06
3.5259127e-15
-7.9979249e-24
9.0663939e-32
1.8757608e-39
6.0758052e-47
8.5681334e-54
3.0586301e-60
9.4719577e-67
2.5826565e-73
7.5460956e-80
2.0873181e-86
5.6746314e-93
1.6528701e-96
-5.2390505e-96
1.4188711e-96
-5.4717513e-97
-3.9895926e-95
-5.612519e-96
-3.1460288e-94
2.8194941e-96
-1.7770957e-97
-5.7599585e-97
-3.590189e-97
-2.7918e-97
-5.1542653e-96
-1.8945361e-94
-2.8578078e-97
7.7972571e-96
-2.2051127e-96
5.737103e-95
-6.1122947e-97
2.9408027e-95
-7.8941851e-96
-5.3736334e-95
4.2850709e-97
-3.4649667e-98
-5.3557001e-93
-1.5408899e-97
1.6263363e-103
-1.8343006e-06
2.3761617e-15
-4.1331123e-24
2.8675151e-32
5.7109022e-40
1.4266853e-47
1.4728142e-54
5.4470866e-61
1.7597436e-67
4.3731958e-74
1.2702427e-80
3.4185674e-87
8.3494274e-94
2.185699e-100
3.9533889e-102
-1.186591e-102
9.8071188e-103
7.8290141e-101
2.9612294e-102
1.3382729e-100
-2.7114194e-102
1.3677441e-103
3.2904851e-103
1.4366089e-102
2.0788145e-103
4.5692914e-102
3.3518182e-100
3.8024944e-103
-8.5911705e-102
2.0874231e-102
-7.4437461e-101
5.7649434e-103
-6.709356e-101
1.4129164e-101
1.1443425e-100
-6.3577898e-103
3.6638013e-104
4.4978752e-99
1.5223739e-103
1.3472451e-109
-1.5249907e-06
1.6234696e-15
-2.2070193e-24
1.0156055e-32
2.1522667e-40
4.1865637e-48
3.0939035e-55
1.0774913e-61
3.6488066e-68
1.0028038e-74
2.7818602e-81
6.8398383e-88
1.686574e-94
4.355161e-101
7.6341498e-108
1.0398328e-108
-1.3179873e-108
-3.9274749e-107
-5.2041575e-108
-2.3732517e-106
2.058521e-108
-2.7208452e-109
-4.8826208e-109
-2.0587537e-108
-2.0968238e-109
-3.9363435e-108
-3.0507799e-106
-8.1488805e-109
4.2413302e-108
-1.7242689e-108
4.6386335e-107
-6.2860657e-109
4.1349349e-107
-3.9739738e-107
-1.4281266e-106
2.9114294e-109
-4.526529e-110
-4.8160802e-105
-6.6166783e-109
-2.1413884e-115
-1.2753049e-06
1.1239256e-15
-1.2117428e-24
3.8849194e-33
1.0002039e-40
1.5580873e-48
8.0562259e-56
2.8199053e-62
1.1296992e-68
2.7157795e-75
8.0352484e-82
2.4812822e-88
6.7200959e-95
1.5074493e-101
3.4341524e-108
-2.3110744e-115
8.2072128e-115
4.2482211e-113
4.5064188e-114
1.284161e-112
-1.1681914e-114
2.768748e-115
5.8220572e-115
1.3504669e-114
1.4665333e-115
3.9768313e-114
2.3562396e-112
1.0192941e-114
-6.2611034e-114
1.3617756e-114
-5.0217238e-113
4.6295839e-115
-4.5125014e-113
2.7289093e-113
1.9802078e-112
-2.5186099e-115
1.3692468e-116
3.6309533e-110
8.1908107e-115
2.0270598e-121
-1.0722853e-06
7.8743913e-16
-6.8208926e-25
1.5788839e-33
7.5159275e-41
9.6593747e-49
3.6114385e-56
8.1568989e-63
3.2483072e-69
9.7747753e-76
2.6347688e-82
6.0983308e-89
1.5941308e-95
4.06887e-102
1.0256253e-108
2.7110657e-115
-1.0127915e-120
-3.0922107e-119
-6.4498895e-120
-1.559636e-118
9.1454906e-121
-2.1885327e-121
-4.8928216e-121
-1.1773591e-120
-1.4434601e-121
-1.9319415e-120
-2.7620892e-118
-7.9281593e-121
7.784014e-120
-1.615202e-120
4.9073639e-119
-5.0976623e-121
1.0569021e-118
-3.3971726e-119
-1.7206552e-118
1.0487467e-119
2.6750247e-123
-5.2340864e-116
-6.5860535e-121
-1.6734774e-127
-9.0655615e-07
5.5765602e-16
-3.9209547e-25
6.7504531e-34
-9.9766008e-41
-1.0874964e-48
-3.0528754e-56
-5.8585326e-63
-2.0913118e-69
-6.3576201e-76
-1.7855763e-82
-5.3101285e-89
-1.4897892e-95
-3.7155391e-102
-1.2372043e-108
-3.6829773e-115
-9.7616579e-122
3.8198928e-125
5.183829e-126
1.0543059e-124
-6.4027268e-127
1.3000352e-127
3.21228e-127
1.9217968e-126
1.2945621e-127
1.9611645e-126
8.4374356e-124
5.944364e-127
-9.1125003e-126
4.2895624e-126
-6.0302292e-125
4.7179135e-127
-9.9077653e-125
8.6616787e-125
1.5429393e-124
-1.866508e-125
-8.4984795e-129
5.8112762e-122
5.0096122e-127
2.091248e-133
-7.7136814e-07
3.9990268e-16
-2.305227e-25
3.0136891e-34
-6.2197347e-42
-5.8552567e-50
-1.2350138e-57
-1.5571013e-64
-1.0887528e-70
-3.1019054e-77
-7.444522e-84
-1.8314874e-90
-4.8024982e-97
-1.3630216e-103
-3.8101745e-110
-1.1408609e-116
-3.2503198e-123
-9.1943573e-130
-6.0089093e-132
-1.148762e-130
8.20033e-133
-2.068916e-133
-5.1898017e-133
-1.1647379e-132
-1.4849216e-133
-1.7821408e-132
-4.8691735e-130
-8.8839343e-133
1.7166679e-131
-3.017325e-132
6.8129564e-131
-5.5063693e-133
1.520296e-130
-3.9466304e-131
-1.2366444e-130
9.9385814e-132
3.7387878e-134
-7.0069079e-128
-4.7947363e-133
-4.3298811e-139
-6.5856683e-07
2.8899117e-16
-1.3760954e-25
1.3931477e-34
-1.2983329e-42
-1.0929838e-50
-1.7842065e-58
-1.5772452e-65
-9.8331751e-72
-3.0760771e-78
-8.4040145e-85
-2.2329738e-91
-5.2138269e-98
-1.3573228e-104
-3.3150294e-111
-8.7166753e-118
-2.3686503e-124
-6.3642968e-131
-1.169081e-137
5.5229985e-137
-6.5420548e-139
1.1511789e-139
1.9669986e-139
1.1518581e-138
7.6650392e-140
3.3094261e-138
5.1044041e-136
5.09271e-139
-1.1878737e-137
3.1854775e-138
-6.4854344e-137
3.8552577e-139
-1.1056533e-136
1.0736119e-136
1.4343432e-136
-1.0735459e-137
-4.1609033e-140
9.7795165e-134
3.3523776e-139
5.8873756e-145
-5.6439972e-07
2.1061743e-16
-8.3462333e-26
6.6434573e-35
-3.5517594e-43
-2.7519381e-51
-3.5536386e-59
-2.2050646e-66
-1.3019523e-72
-4.5222961e-79
-1.2687558e-85
-3.1782957e-92
-8.4477053e-99
-1.9915822e-105
-5.9756317e-112
-1.7558904e-118
-4.8176821e-125
-1.3002314e-131
-3.3304591e-138
-7.2875772e-143
1.1285262e-144
-1.2717011e-145
-3.9651649e-145
-9.8907899e-145
-8.5518273e-146
-5.5129917e-144
-9.0796271e-142
-4.2999573e-145
2.3340151e-143
-2.50958e-144
6.9501272e-143
-4.1021304e-145
2.5917895e-142
-1.1431544e-142
-9.2680642e-143
1.2027459e-143
7.5021371e-146
-2.8413114e-139
-9.3847645e-146
-7.5538075e-151
-4.8549469e-07
1.5467573e-16
-5.1330802e-26
3.2548238e-35
-1.1132468e-43
-8.1914361e-52
-8.5167176e-60
-3.8945563e-67
-1.9125829e-73
-1.0153077e-79
-2.4497489e-86
-6.2435163e-93
-1.4032569e-99
-4.699344e-106
-1.1432174e-112
-2.5547275e-119
-7.9552893e-126
-1.9018258e-132
-5.1331119e-139
-1.3072048e-145
-7.2886125e-151
1.5944492e-151
2.3464096e-151
1.0145171e-150
1.4261281e-151
3.5469434e-150
7.4331553e-148
3.7006189e-151
-1.3617833e-149
5.2347269e-150
-7.6955452e-149
2.3519368e-151
-2.471247e-148
1.2188154e-148
1.3041528e-148
-1.1241251e-149
-3.415364e-151
5.3062184e-145
-4.2244042e-151
7.4428632e-157
-4.1893217e-07
1.1438948e-16
-3.1977505e-26
1.6336838e-35
-3.8193547e-44
-2.8260099e-52
-2.4121732e-60
-8.0354431e-68
-2.8446487e-74
-1.2129438e-80
-3.1762438e-87
-8.786767e-94
-2.5964711e-100
-6.2822413e-107
-1.6007913e-113
-4.8016799e-120
-1.3890157e-126
-3.9624977e-133
-1.0927103e-139
-3.0450665e-146
-8.1878016e-153
-1.6287562e-157
-3.4742652e-157
-9.8621599e-157
-1.2969376e-157
-7.3864124e-156
-7.0377182e-154
-2.0618088e-157
1.3636321e-155
-4.2800025e-156
6.3862357e-155
-4.4923413e-157
2.1499814e-154
-8.3463855e-155
-9.4761811e-155
1.4563669e-155
1.3115174e-156
-5.5421815e-151
5.7130234e-157
1.2294634e-161
-3.6266709e-07
8.5175985e-17
-2.0168313e-26
8.381778e-36
-1.401157e-44
-1.1025213e-52
-7.8342081e-61
-1.9549088e-68
-5.2186357e-75
-2.7205225e-81
-1.032167e-87
-2.3795666e-94
-6.6449937e-101
-1.8940574e-107
-4.4692221e-114
-1.2571123e-120
-3.3842388e-127
-7.8000848e-134
-2.3501815e-140
-6.4238634e-147
-1.7967879e-153
-5.2868186e-160
2.9815874e-163
5.6067532e-163
1.6179591e-163
5.426295e-162
8.9294411e-160
2.5915043e-163
-1.6609115e-161
5.9542172e-162
-3.3849012e-161
4.4781328e-163
-2.2156285e-160
7.7893066e-161
8.5168224e-161
-1.5932469e-161
-5.6436989e-163
1.0859722e-156
-1.5281466e-162
-1.2304707e-167
-3.1468608e-07
6.3762613e-17
-1.2847285e-26
4.3836264e-36
-5.4030068e-45
-5.0158249e-53
-3.0212452e-61
-5.669215e-69
-9.1917149e-76
-6.0364926e-82
-2.0735068e-88
-6.0916761e-95
-1.8076286e-101
-4.3735473e-108
-1.2969578e-114
-3.3820217e-121
-1.0019671e-127
-3.4137186e-134
-8.4760015e-141
-2.5732442e-147
-7.0172318e-154
-1.8129646e-160
-4.085085e-167
-5.8198199e-169
-1.0237845e-169
-1.3961719e-167
-8.2813283e-166
-1.4059938e-169
1.5676038e-167
-6.7298461e-168
4.0559041e-167
-3.4159013e-169
2.72451e-166
-7.1519714e-167
-7.7356052e-167
8.1961553e-168
-5.2980587e-168
1.2628992e-161
-3.5108988e-168
1.4024762e-173
-2.738569e-07
4.8022241e-17
-8.2697214e-27
2.3342078e-36
-2.1750342e-45
-2.9697231e-53
-1.5401709e-61
-2.2407982e-69
-2.4069911e-76
-2.7038027e-82
-8.6903069e-89
-2.6177609e-95
-5.9463145e-102
-1.668335e-108
-3.9266147e-115
-1.2286212e-121
-3.3625292e-128
-8.8847458e-135
-2.4184606e-141
-6.5962435e-148
-1.8079764e-154
-5.3370121e-161
-1.6205785e-167
-4.3993237e-174
1.3858556e-175
2.1595937e-173
7.8884525e-172
1.2847186e-175
-1.5158385e-173
4.920225e-174
-2.4582251e-172
1.8909436e-175
-3.4877411e-172
7.8592446e-173
6.1517627e-173
-7.0296885e-174
1.9888465e-173
-1.3741328e-167
2.0784444e-173
-8.4347195e-181
-2.387984e-07
3.6347059e-17
-5.3712642e-27
1.2632418e-36
-9.0714545e-46
-4.1399374e-53
-1.8921837e-61
-2.1782751e-69
-1.6748451e-76
-1.8909079e-82
-8.3232493e-89
-2.1506785e-95
-5.3734408e-102
-1.4230488e-108
-3.5103465e-115
-9.6095218e-122
-2.9289157e-128
-8.6038644e-135
-2.3721416e-141
-6.4846448e-148
-1.7908583e-154
-4.6940629e-161
-1.2564835e-167
-3.3654724e-174
-1.090576e-180
-1.1321522e-179
-9.7082e-178
-1.9553203e-181
1.8556427e-179
-6.7472809e-180
2.1425385e-178
-3.4647057e-181
2.6233924e-178
-8.7403284e-179
-4.8813182e-179
1.2067521e-179
-1.6209133e-179
1.4495411e-173
-3.0997594e-179
3.3325041e-186
-2.0863985e-07
2.7631929e-17
-3.51715e-27
6.9359572e-37
-3.904381e-46
7.4151133e-54
3.0255261e-62
2.7944138e-70
1.5188256e-77
2.0349424e-83
7.8895784e-90
2.2727664e-96
5.769507e-103
1.4408414e-109
3.4015417e-116
8.8917655e-123
2.2273944e-129
6.1240583e-136
1.6275611e-142
4.4217405e-149
1.0997239e-155
2.9536962e-162
7.2205693e-169
1.8154595e-175
5.8284953e-182
1.4254546e-185
5.8151333e-184
7.148104e-188
-1.903783e-185
5.3102477e-186
-1.4185778e-184
2.0950147e-187
-2.0872263e-184
1.0668109e-184
5.7520134e-185
-8.7803986e-186
2.6220733e-186
-7.3407285e-180
3.2894114e-185
-5.0411615e-192
-1.8270614e-07
2.1110769e-17
-2.3227063e-27
3.8627294e-37
-1.7272843e-46
1.113752e-54
4.1314807e-63
3.0962123e-71
1.2216298e-78
1.3460597e-84
6.329959e-91
1.8075203e-97
4.7182925e-104
1.2036624e-110
3.0467365e-117
8.327354e-124
2.0814038e-130
6.0579209e-137
1.5526664e-143
3.6178542e-150
9.6310592e-157
2.7377496e-163
6.5918936e-170
1.7407725e-176
4.0504508e-183
1.5473415e-189
-6.1501408e-190
-9.2420135e-194
1.08742e-191
-5.3333949e-192
1.8079109e-190
-3.3628844e-193
3.1214191e-190
-6.9044783e-191
-8.975553e-191
7.5122122e-192
-6.4845538e-191
9.571256e-186
-2.9945595e-191
5.0689103e-198
-1.6031726e-07
1.6198692e-17
-1.5454318e-27
2.1787752e-37
-7.8347865e-47
2.7013721e-55
9.3121935e-64
5.7564492e-72
1.6756212e-79
8.666306e-86
4.5724636e-92
1.478138e-98
3.3609168e-105
8.9924164e-112
2.1532987e-118
4.8969322e-125
1.267956e-131
2.9343352e-138
9.380517e-145
2.4291355e-151
6.6339241e-158
1.6872247e-164
4.990275e-171
1.3919233e-177
2.1507929e-184
3.5755108e-190
7.0414794e-196
6.1200172e-200
-2.2554802e-197
8.7203082e-198
-1.3249315e-196
3.2172909e-199
-3.0615481e-196
6.9054342e-197
5.8232699e-197
-1.059262e-197
7.1849108e-199
-7.6124318e-192
2.2078501e-197
-3.2792071e-203
-1.4087797e-07
1.2473849e-17
-1.0350926e-27
1.2432074e-37
-3.6294947e-47
7.8145224e-56
2.5555717e-64
1.3205695e-72
2.8990371e-80
1.0124051e-86
1.1298114e-92
3.4755249e-99
9.9662859e-106
2.5134342e-112
6.2508606e-119
1.5116982e-125
4.353183e-132
1.0979581e-138
2.411693e-145
6.8683147e-152
1.9391463e-158
4.8360751e-165
1.3345539e-171
3.5723492e-178
7.8056754e-185
4.0319723e-191
-8.8363162e-198
1.2496553e-203
2.1811987e-203
-3.5335242e-204
1.2160256e-202
-4.9768524e-205
4.8942281e-202
-7.2701112e-203
-5.3401889e-203
1.8700381e-203
-1.6948722e-203
1.2008221e-197
-1.893767e-203
4.7052016e-210
-1.240394e-07
9.6440589e-18
-6.9795248e-28
7.1737121e-38
-1.7168109e-47
2.5022331e-56
8.0204467e-65
3.5135386e-73
5.9073859e-81
1.2978023e-87
2.3742517e-93
7.0302147e-100
1.647348e-106
4.2718172e-113
9.9119678e-120
2.6506498e-126
6.2329689e-133
1.896839e-139
4.4921695e-146
1.323781e-152
3.5130829e-159
8.1325372e-166
2.1447884e-172
5.1511587e-179
1.3074586e-185
1.9904521e-192
1.8593051e-198
-3.2190223e-205
-3.0676233e-209
3.9483571e-210
-1.6619353e-208
6.5048408e-211
-6.0076931e-208
7.4331366e-209
6.3311384e-209
-2.1894437e-209
4.132411e-209
-2.2662159e-203
1.473346e-209
-4.7138577e-216
-1.0937613e-07
7.4827596e-18
-4.7360139e-28
4.182969e-38
-8.2702315e-48
8.5942887e-57
2.789718e-65
1.0461061e-73
1.3831938e-81
1.7904451e-88
4.5479958e-94
1.4068228e-100
3.514797e-107
9.2755171e-114
2.1814137e-120
6.0781851e-127
1.4218324e-133
3.7960065e-140
9.3074134e-147
2.6305392e-153
6.8912353e-160
1.7681579e-166
4.7820592e-173
1.1297035e-179
3.0693189e-186
8.0263013e-193
4.4044974e-199
-4.9995025e-206
2.1285956e-211
-6.0685953e-216
2.6273493e-214
-7.1310427e-217
8.2789776e-214
-6.6504348e-215
-7.0501382e-215
2.6576014e-215
-1.3422876e-215
8.4514239e-210
-1.4708143e-215
2.1483231e-221
-9.6591515e-08
5.8248188e-18
-3.2320147e-28
2.4623754e-38
-4.0515249e-48
3.1092839e-57
1.0742132e-65
3.4926697e-74
3.6389959e-82
3.3907319e-89
1.2265745e-94
4.7616834e-101
1.1749336e-107
2.9873258e-114
7.6202207e-121
2.0642929e-127
4.3782277e-134
1.1182264e-140
2.7296095e-147
7.5579652e-154
1.9150165e-160
4.5508652e-167
1.014452e-173
2.3604573e-180
8.2331797e-187
-4.7082486e-194
1.5658275e-199
-1.0207187e-205
1.095959e-211
-7.1428175e-218
-1.4166951e-220
6.3009597e-223
-6.3706104e-220
4.2555854e-221
7.9246503e-221
-3.1100667e-221
2.6461891e-222
-5.0954519e-216
1.2794842e-221
4.1223352e-230
-8.5420304e-08
4.5490214e-18
-2.2180024e-28
1.4629884e-38
-2.0164087e-48
1.173478e-57
4.6567603e-66
1.3303885e-74
1.1125292e-82
6.8891438e-90
1.435242e-94
6.1940065e-101
1.4364469e-107
4.3291104e-114
1.0797126e-120
2.4732013e-127
6.3474435e-134
1.7084781e-140
4.161684e-147
9.5973397e-154
2.6319341e-160
6.068118e-167
1.5450462e-173
3.7653602e-180
9.6695924e-187
2.6689203e-193
7.8122547e-200
1.8475144e-206
7.5807857e-213
-1.8018841e-219
5.8948144e-225
-1.1641622e-228
1.787519e-225
-3.6131981e-227
-9.306151e-227
3.2704043e-227
-8.9527619e-228
1.1159399e-221
-4.8849672e-228
4.6193541e-234
-7.5649735e-08
3.5632588e-18
-1.5301236e-28
8.767027e-39
-1.01827e-48
4.5875353e-58
2.401797e-66
6.1034654e-75
4.1927359e-83
1.875352e-90
4.7427485e-96
2.2487576e-102
5.9612483e-109
1.3167833e-115
3.4599321e-122
8.8354061e-129
2.1058403e-135
4.8587192e-142
1.2350186e-148
3.0173856e-155
6.9070094e-162
1.9515927e-168
4.9927307e-175
1.1856939e-181
3.339747e-188
7.960314e-195
2.864752e-201
-2.3885075e-207
1.9007844e-213
-5.9762223e-219
5.6569703e-225
-1.1402883e-230
-9.8281256e-232
8.3401437e-233
3.0950458e-232
-2.2103196e-233
6.0340109e-234
-5.2507248e-228
8.4622636e-234
-7.4984841e-242
-6.7067482e-08
2.7986211e-18
-1.0605944e-28
5.2952726e-39
-5.2113036e-49
1.848487e-58
1.8145696e-66
4.1484452e-75
2.3474518e-83
7.7591041e-91
7.9606916e-97
4.4092527e-103
1.1120535e-109
2.8388312e-116
7.2302986e-123
1.7674418e-129
4.745514e-136
1.1123548e-142
3.1705105e-149
8.204842e-156
2.3017807e-162
4.9549269e-169
1.0750714e-175
2.7517219e-182
6.2333452e-189
2.2192181e-195
1.437129e-202
4.8982222e-208
-3.8578244e-214
4.4937121e-220
-4.2922938e-226
6.3797365e-232
6.4271891e-238
-1.4918638e-238
-3.0368292e-238
3.2396519e-239
-5.578186e-240
3.3751188e-234
-1.0282296e-239
-5.0057782e-247
-5.9532388e-08
2.2038981e-18
-7.3853956e-29
3.2228319e-39
-2.7012124e-49
7.6509711e-59
-3.4563234e-66
-7.2205778e-75
-3.4027308e-83
-8.427636e-91
-7.2904163e-97
-5.5231837e-103
-1.7867706e-109
-4.2678129e-116
-1.0233122e-122
-2.4791904e-129
-5.8621276e-136
-1.4324115e-142
-3.1899925e-149
-7.585292e-156
-1.6073193e-162
-4.0924621e-169
-1.109461e-175
-2.7994926e-182
-6.8867623e-189
-1.7653253e-195
-4.7155211e-202
-9.151138e-209
-5.4071092e-215
8.4033295e-222
-2.0978185e-227
1.4251276e-233
-1.5790778e-239
2.3033624e-244
4.0460652e-244
-3.7862528e-245
7.4680088e-247
-1.9787606e-240
1.8002924e-245
2.9325276e-252
-5.2900477e-08
1.7398062e-18
-5.1653078e-29
1.9755101e-39
-1.416703e-49
3.2425855e-59
-1.7258484e-67
-3.3288135e-76
-1.3226864e-84
-2.5127941e-92
-1.2522741e-98
-1.5225701e-104
-4.1805282e-111
-1.1067968e-117
-3.1988197e-124
-8.7029823e-131
-2.254446e-137
-5.1804494e-144
-1.2310619e-150
-3.0187726e-157
-6.9492962e-164
-1.7260886e-170
-4.2522904e-177
-1.1643965e-183
-3.0998068e-190
-7.9797098e-197
-1.9600987e-203
-4.6029753e-210
-1.6976698e-216
1.8702396e-223
-5.3171058e-229
3.288678e-235
-3.4917598e-241
3.8397466e-247
-3.66092e-250
5.7343857e-251
-1.4641849e-252
1.2142016e-246
-1.3518185e-251
-1.5609356e-258
-4.7051914e-08
1.3765111e-18
-3.6269613e-29
1.2189886e-39
-7.5120109e-50
1.4033412e-59
-3.4716144e-68
-6.2980631e-77
-2.1288728e-85
-3.1287155e-93
-7.4995954e-100
-1.1890754e-105
-3.6673907e-112
-1.046189e-118
-2.313278e-125
-5.804407e-132
-1.4522703e-138
-3.671482e-145
-9.6717412e-152
-2.3462149e-158
-6.5705217e-165
-1.6154137e-171
-4.0497115e-178
-9.6227512e-185
-1.9388859e-191
-4.9880714e-198
-4.0484194e-205
-1.0358417e-210
6.9941897e-217
-1.3360063e-222
8.7864551e-229
-7.8310881e-235
9.1541037e-241
-7.8116488e-247
1.1076644e-252
-4.423067e-257
1.9835235e-259
-8.9160769e-253
-6.9553094e-257
-1.7367282e-263
-4.1887684e-08
1.0913438e-18
-2.556376e-29
7.5691683e-40
-4.0245434e-50
6.1930898e-60
-9.1209916e-69
-1.583102e-77
-4.610729e-86
-5.3660444e-94
-8.298135e-101
-3.5197667e-106
-1.2773203e-112
-2.8942912e-119
-7.5011733e-126
-1.8429851e-132
-4.8469594e-139
-1.2659582e-145
-2.9528396e-152
-7.3371263e-159
-1.9765517e-165
-5.0944955e-172
-1.1485641e-178
-3.1204016e-185
-8.473691e-192
-2.1397842e-198
-5.7209281e-205
-1.6227738e-211
-3.5573276e-218
-1.8293834e-224
3.9157454e-231
-1.1480097e-236
6.6265061e-243
-9.9349302e-249
1.675781e-254
-1.5105682e-260
-8.3984555e-265
6.1084144e-259
-1.0946039e-262
-1.8573919e-269
-3.7318858e-08
8.6689157e-19
-1.8080212e-29
4.7273453e-40
-2.1769261e-50
2.7813555e-60
-2.7224023e-69
-4.6151375e-78
-1.1666438e-86
-1.0911806e-94
-1.0620627e-101
2.8239034e-107
1.3799708e-113
3.3726979e-120
1.0485878e-126
2.9572746e-133
7.6344111e-140
2.0179983e-146
5.1125362e-153
1.3503628e-159
3.3621906e-166
8.3491063e-173
2.1928151e-179
6.3927197e-186
1.9196545e-192
4.6698421e-199
1.1177928e-205
2.8651602e-212
6.8580942e-219
1.632827e-225
5.6038701e-232
8.2819292e-239
1.2705259e-244
-9.5423396e-251
2.0301283e-256
-2.1986805e-262
1.4945363e-268
-5.2144573e-264
-9.1124595e-269
7.3336022e-276
-3.3273942e-08
6.8983737e-19
-1.2829708e-29
2.9688577e-40
-1.1883235e-50
1.2696262e-60
-8.7904765e-70
-1.4941555e-78
-3.315625e-87
-2.5165579e-95
-1.6546751e-102
3.9548689e-107
1.8342991e-113
4.8192497e-120
1.162329e-126
2.9386924e-133
7.026268e-140
1.6460873e-146
4.3299115e-153
1.2069921e-159
2.8646035e-166
9.0803173e-173
2.4169027e-179
6.2409106e-186
1.624031e-192
4.3752883e-199
1.0236395e-205
2.9779546e-212
8.4021923e-219
2.3089044e-225
7.2409778e-232
1.2673087e-238
1.1540249e-244
-3.5415066e-251
4.248654e-257
-4.6475042e-263
6.2521711e-269
7.6397471e-270
-4.4001613e-275
5.2776804e-281
-2.9687152e-08
5.4983428e-19
-9.131477e-30
1.8741092e-40
-6.5415374e-51
5.8825319e-61
-3.0019871e-70
-5.288684e-79
-1.0382983e-87
-6.4940697e-96
-3.0096319e-103
4.1337656e-109
2.4063059e-115
7.5531619e-122
1.9588173e-128
5.0230558e-135
1.3867757e-141
4.4566884e-148
1.0866495e-154
2.93139e-161
6.7858854e-168
1.7618295e-174
4.3617557e-181
1.1946e-187
2.9890957e-194
7.5550943e-201
2.0409659e-207
4.8937642e-214
1.5523422e-220
3.3383056e-227
1.8125178e-233
-4.8854905e-240
8.1176786e-246
-6.6468918e-252
1.1436864e-257
-8.8289763e-264
8.455617e-270
4.5202161e-275
1.958283e-281
9.2557305e-287
-2.6502546e-08
4.3889079e-19
-6.517537e-30
1.1887727e-40
-3.6300562e-51
2.7640412e-61
-1.071704e-70
-2.0527522e-79
-3.6084898e-88
-1.8725141e-96
-6.4147747e-104
8.753147e-109
5.8394601e-115
1.7301563e-121
4.209583e-128
1.0092653e-134
2.557444e-141
6.216476e-148
1.6061813e-154
4.1500756e-161
1.2148769e-167
3.4918673e-174
1.0867071e-180
2.9972255e-187
7.9217386e-194
2.0781089e-200
5.056105e-207
1.3691391e-213
4.2494995e-220
1.1558018e-226
3.8113784e-233
2.6942185e-240
6.3645209e-246
-5.9550973e-252
8.7267236e-258
-5.2056343e-264
1.0554139e-269
-2.8236586e-276
3.6652426e-282
4.198435e-288
-2.3673432e-08
3.5081079e-19
-4.6639833e-30
7.5747992e-41
-2.0295466e-51
1.3155518e-61
-3.9638599e-71
-8.8627847e-80
-1.4043932e-88
-6.1098071e-97
-1.5772681e-104
-1.860291e-110
-1.8483294e-116
-5.1519303e-123
-1.3838869e-129
-3.5210162e-136
-8.1686805e-143
-2.5457957e-149
-6.6031072e-156
-1.7382405e-162
-3.9720166e-169
-1.154569e-175
-3.0278236e-182
-8.2287255e-189
-2.1010211e-195
-5.5045086e-202
-1.5649579e-208
-4.4478234e-215
-1.0489856e-221
-3.007932e-228
-1.5864635e-235
-5.5323086e-241
1.0045272e-246
-4.6735651e-253
3.9329281e-259
-4.3073274e-265
3.9878147e-271
-3.9091608e-277
7.0868922e-283
2.615733e-289
-2.1157494e-08
2.8076426e-19
-3.3457249e-30
4.8472238e-41
-1.1427596e-51
6.3376274e-62
-1.5101771e-71
-4.5037109e-80
-6.5058845e-89
-2.3989275e-97
-4.7538955e-105
-2.4736256e-111
-3.7700788e-117
-1.1155028e-123
-2.9996695e-130
-7.9936365e-137
-1.8785374e-143
-4.7112673e-150
-1.2042285e-156
-3.3256955e-163
-9.1332517e-170
-2.7252589e-176