/*--------------------------------*- C++ -*----------------------------------*\
  =========                 |
  \\      /  F ield         | OpenFOAM: The Open Source CFD Toolbox
   \\    /   O peration     | Website:  https://openfoam.org
    \\  /    A nd           | Version:  10
     \\/     M anipulation  |
\*---------------------------------------------------------------------------*/
FoamFile
{
    format      ascii;
    class       volVectorField;
    location    "0.25";
    object      U;
}
// * * * * * * * * * * * * * * * * * * * * * * * * * * * * * * * * * * * * * //

dimensions      [0 1 -1 0 0 0 0];

internalField   nonuniform List<vector> 
4000
(
(0 0.018637465 0.47773157)
(0 0.02351001 0.50886061)
(0 0.0081668575 0.50052521)
(0 0.0056146185 0.50033634)
(0 0.0042546337 0.50025746)
(0 0.0032549506 0.50016898)
(0 0.0025560975 0.50011969)
(0 0.0020545901 0.50009013)
(0 0.0016765889 0.50006981)
(0 0.0013822509 0.50005539)
(0 0.0011472035 0.50004499)
(0 0.00095510796 0.50003733)
(0 0.00079471006 0.5000316)
(0 0.00065803415 0.50002727)
(0 0.00053925194 0.50002399)
(0 0.00043398274 0.50002151)
(0 0.00033883922 0.50001966)
(0 0.00025111946 0.50001834)
(0 0.00016859078 0.50001744)
(0 8.9331343e-05 0.50001694)
(0 1.160775e-05 0.50001679)
(0 -6.6232003e-05 0.50001699)
(0 -0.0001458501 0.50001755)
(0 -0.00022901113 0.5000185)
(0 -0.00031769248 0.50001991)
(0 -0.00041421528 0.50002185)
(0 -0.00052141604 0.50002446)
(0 -0.00064288586 0.50002793)
(0 -0.00078331842 0.50003252)
(0 -0.00094903981 0.50003863)
(0 -0.0011488595 0.50004688)
(0 -0.0013954358 0.50005824)
(0 -0.001707515 0.50007414)
(0 -0.002115446 0.50009709)
(0 -0.0026751426 0.50013481)
(0 -0.0034687146 0.50020238)
(0 -0.0045609392 0.50027143)
(0 -0.0065851275 0.50043364)
(0 -0.017659568 0.50675407)
(0 -0.013590185 0.47975561)
(0 0.037432703 0.44796926)
(0 0.050955771 0.53232616)
(0 0.021969338 0.5080429)
(0 0.016135663 0.50357318)
(0 0.012416107 0.50242316)
(0 0.0095159816 0.50162299)
(0 0.0075206512 0.50115661)
(0 0.0060699256 0.50086593)
(0 0.0049646069 0.50066801)
(0 0.0041001628 0.50052902)
(0 0.003407643 0.50042905)
(0 0.0028401 0.50035555)
(0 0.0023651603 0.50030066)
(0 0.00195974 0.50025926)
(0 0.0016068791 0.50022791)
(0 0.0012937826 0.50020425)
(0 0.0010105258 0.50018665)
(0 0.00074917081 0.50017397)
(0 0.00050314394 0.50016547)
(0 0.00026677592 0.50016063)
(0 3.4946369e-05 0.5001592)
(0 -0.00019722372 0.50016111)
(0 -0.00043464334 0.50016645)
(0 -0.00068252263 0.50017556)
(0 -0.00094669157 0.50018897)
(0 -0.0012339791 0.50020752)
(0 -0.0015527091 0.50023246)
(0 -0.0019133876 0.50026557)
(0 -0.0023296951 0.50030949)
(0 -0.0028199713 0.5003681)
(0 -0.0034095909 0.50044735)
(0 -0.0041349296 0.5005567)
(0 -0.0050490658 0.50071126)
(0 -0.0062318644 0.5009366)
(0 -0.0078322086 0.50129437)
(0 -0.010125886 0.50191051)
(0 -0.013107004 0.50282508)
(0 -0.017426403 0.50608116)
(0 -0.038759177 0.52526813)
(0 -0.027894745 0.45021639)
(0 0.039888301 0.40982052)
(0 0.06142819 0.54930815)
(0 0.03198382 0.52188196)
(0 0.024355575 0.51008055)
(0 0.019193715 0.50658857)
(0 0.014977258 0.50452809)
(0 0.012006835 0.50327141)
(0 0.0097720378 0.50245841)
(0 0.0080366262 0.50190109)
(0 0.0066649542 0.50150873)
(0 0.0055568012 0.50122551)
(0 0.0046426332 0.50101677)
(0 0.0038737125 0.50086062)
(0 0.0032146435 0.50074271)
(0 0.0026390922 0.50065332)
(0 0.0021270056 0.50058581)
(0 0.0016627074 0.50053555)
(0 0.0012335777 0.50049934)
(0 0.00082910994 0.50047502)
(0 0.00044020556 0.50046119)
(0 5.8623563e-05 0.50045711)
(0 -0.00032349715 0.50046254)
(0 -0.00071406473 0.50047782)
(0 -0.0011214582 0.50050384)
(0 -0.0015550222 0.50054214)
(0 -0.002025651 0.5005951)
(0 -0.0025465427 0.50066622)
(0 -0.0031342297 0.50076058)
(0 -0.0038100415 0.50088557)
(0 -0.0046022175 0.50105212)
(0 -0.0055491118 0.50127675)
(0 -0.0067047046 0.5015856)
(0 -0.0081461959 0.50202078)
(0 -0.0099776741 0.5026507)
(0 -0.012371954 0.50361505)
(0 -0.015716994 0.50519913)
(0 -0.019873395 0.50785386)
(0 -0.025187064 0.51641219)
(0 -0.04741759 0.53912724)
(0 -0.030853877 0.41487987)
(0 0.034791613 0.36173)
(0 0.063839002 0.55456331)
(0 0.039380519 0.53747137)
(0 0.030083501 0.51849261)
(0 0.024112731 0.51197731)
(0 0.019279725 0.50849947)
(0 0.015736302 0.50626428)
(0 0.012954302 0.50475549)
(0 0.010743761 0.50370448)
(0 0.0089679902 0.50295618)
(0 0.0075139575 0.50241114)
(0 0.0063019986 0.50200687)
(0 0.0052743087 0.50170308)
(0 0.0043876313 0.50147286)
(0 0.0036091502 0.50129786)
(0 0.0029134823 0.50116538)
(0 0.0022805218 0.50106658)
(0 0.001693909 0.50099532)
(0 0.0011399038 0.5009474)
(0 0.00060652719 0.50092014)
(0 8.2879107e-05 0.50091207)
(0 -0.00044146062 0.50092276)
(0 -0.00097697236 0.50095286)
(0 -0.0015347257 0.50100407)
(0 -0.002126999 0.50107939)
(0 -0.0027679975 0.50118339)
(0 -0.0034747593 0.50132278)
(0 -0.0042683612 0.50150726)
(0 -0.0051755823 0.50175081)
(0 -0.006231201 0.50207391)
(0 -0.0074810847 0.50250704)
(0 -0.0089874644 0.5030972)
(0 -0.010837709 0.50391909)
(0 -0.013138379 0.5050891)
(0 -0.016025129 0.50680671)
(0 -0.019900529 0.50946731)
(0 -0.024732457 0.51427468)
(0 -0.031114342 0.52824687)
(0 -0.050320433 0.54407168)
(0 -0.02843864 0.37238019)
(0 0.02742429 0.31484316)
(0 0.062314985 0.55024059)
(0 0.044614719 0.55146765)
(0 0.033982199 0.52748814)
(0 0.027464227 0.51772244)
(0 0.022455327 0.51291985)
(0 0.018636942 0.50973147)
(0 0.015528267 0.50749268)
(0 0.013006319 0.5059)
(0 0.010942273 0.50474697)
(0 0.0092247477 0.50389622)
(0 0.0077748908 0.50325926)
(0 0.006532716 0.5027772)
(0 0.0054517983 0.50240982)
(0 0.0044960893 0.50212932)
(0 0.0036371238 0.50191625)
(0 0.0028519579 0.50175692)
(0 0.0021216525 0.50164175)
(0 0.0014301139 0.50156419)
(0 0.0007631825 0.50152002)
(0 0.00010789395 0.5015069)
(0 -0.00054818185 0.50152419)
(0 -0.0012175435 0.50157287)
(0 -0.0019133368 0.50165565)
(0 -0.0026500393 0.5017772)
(0 -0.0034442303 0.50194468)
(0 -0.0043155362 0.50216848)
(0 -0.0052878413 0.50246349)
(0 -0.0063908961 0.50285097)
(0 -0.0076624757 0.50336157)
(0 -0.0091508431 0.50403991)
(0 -0.010918435 0.50495254)
(0 -0.013052086 0.50620228)
(0 -0.015655593 0.50794401)
(0 -0.018816807 0.51040409)
(0 -0.022897235 0.51405455)
(0 -0.028178352 0.5211452)
(0 -0.035708445 0.5393263)
(0 -0.05047761 0.54155485)
(0 -0.024086587 0.33055752)
(0 0.019837936 0.27519763)
(0 0.057990148 0.53974646)
(0 0.047364114 0.56256475)
(0 0.036477888 0.53660457)
(0 0.029636386 0.52350713)
(0 0.024676388 0.51740332)
(0 0.020774501 0.51336306)
(0 0.017510029 0.51044461)
(0 0.01481447 0.5083243)
(0 0.012566895 0.50676194)
(0 0.01066578 0.50559293)
(0 0.0090391316 0.50470817)
(0 0.0076293321 0.50403272)
(0 0.0063905212 0.50351435)
(0 0.0052862397 0.50311637)
(0 0.0042870194 0.50281271)
(0 0.0033686319 0.50258485)
(0 0.0025107415 0.5024197)
(0 0.0016958246 0.50230826)
(0 0.00090829507 0.50224467)
(0 0.00013377665 0.50222572)
(0 -0.00064156319 0.50225052)
(0 -0.0014316285 0.50232042)
(0 -0.0022509728 0.50243915)
(0 -0.003115491 0.50261316)
(0 -0.0040431692 0.50285223)
(0 -0.0050549817 0.5031705)
(0 -0.0061759935 0.50358796)
(0 -0.0074367535 0.50413281)
(0 -0.0088751895 0.50484498)
(0 -0.010538567 0.50578148)
(0 -0.012485178 0.50702458)
(0 -0.014795237 0.50869746)
(0 -0.017570526 0.51098174)
(0 -0.020865026 0.5141198)
(0 -0.02497501 0.51872993)
(0 -0.030509886 0.52822966)
(0 -0.03863138 0.54872393)
(0 -0.048509847 0.53398398)
(0 -0.019067319 0.29393837)
(0 0.013083208 0.24255475)
(0 0.05179898 0.52520049)
(0 0.047709788 0.57024849)
(0 0.037757417 0.54552497)
(0 0.030850767 0.52928864)
(0 0.0260739 0.52180168)
(0 0.02223836 0.51699796)
(0 0.018954077 0.51347353)
(0 0.016193864 0.51086504)
(0 0.013849915 0.50891257)
(0 0.011835734 0.5074328)
(0 0.010088736 0.50630071)
(0 0.0085563005 0.50542856)
(0 0.0071956781 0.50475419)
(0 0.0059720704 0.50423324)
(0 0.0048566605 0.50383378)
(0 0.0038252617 0.50353284)
(0 0.0028572038 0.50331405)
(0 0.0019344003 0.50316604)
(0 0.0010405693 0.50308143)
(0 0.0001605688 0.50305612)
(0 -0.00072022722 0.50308897)
(0 -0.0016165161 0.5031817)
(0 -0.0025436013 0.50333904)
(0 -0.0035180471 0.50356911)
(0 -0.0045583568 0.50388422)
(0 -0.0056857675 0.50430195)
(0 -0.0069251924 0.50484694)
(0 -0.0083063358 0.50555345)
(0 -0.0098652676 0.50646926)
(0 -0.011646182 0.50766152)
(0 -0.013701326 0.50922509)
(0 -0.016100205 0.51129794)
(0 -0.018938113 0.51407943)
(0 -0.022246421 0.51783838)
(0 -0.026265948 0.52346757)
(0 -0.031849707 0.53537501)
(0 -0.03976082 0.55589663)
(0 -0.044895169 0.52282287)
(0 -0.014091016 0.26264506)
(0 0.0077701405 0.21554094)
(0 0.044825988 0.50800989)
(0 0.0462559 0.57438083)
(0 0.038035774 0.55375133)
(0 0.031288357 0.53496055)
(0 0.026768824 0.52603034)
(0 0.023117179 0.52053849)
(0 0.019921258 0.51648832)
(0 0.01718251 0.51344174)
(0 0.01481372 0.51113076)
(0 0.012746457 0.50935966)
(0 0.010928671 0.50799115)
(0 0.0093144615 0.50692763)
(0 0.0078658602 0.50609918)
(0 0.0065511251 0.50545521)
(0 0.0053433015 0.50495885)
(0 0.0042192806 0.50458334)
(0 0.0031589336 0.50430942)
(0 0.0021443598 0.50412365)
(0 0.0011592372 0.50401721)
(0 0.00018825269 0.50398523)
(0 -0.00078344649 0.50402633)
(0 -0.0017707819 0.50414257)
(0 -0.002789206 0.50433958)
(0 -0.0038552879 0.50462701)
(0 -0.0049872891 0.50501937)
(0 -0.0062058264 0.50553728)
(0 -0.0075346363 0.50620934)
(0 -0.0090014008 0.50707486)
(0 -0.010638914 0.50818802)
(0 -0.012486756 0.50962406)
(0 -0.014590058 0.51148802)
(0 -0.017005019 0.5139288)
(0 -0.0198133 0.51715512)
(0 -0.023030863 0.52148004)
(0 -0.026880243 0.52818246)
(0 -0.032352193 0.54222023)
(0 -0.039404754 0.560502)
(0 -0.040329418 0.5090834)
(0 -0.0097083783 0.23585721)
(0 0.0040049734 0.19355624)
(0 0.037899693 0.48948697)
(0 0.043687519 0.57524006)
(0 0.037564541 0.56084517)
(0 0.031154863 0.54036124)
(0 0.026914828 0.53001149)
(0 0.023514757 0.52390196)
(0 0.02048093 0.51941279)
(0 0.017827326 0.51598805)
(0 0.015489985 0.51335921)
(0 0.013418578 0.51132444)
(0 0.011571756 0.50973787)
(0 0.0099113589 0.50849486)
(0 0.0084051523 0.50751974)
(0 0.0070253087 0.50675715)
(0 0.0057475588 0.50616635)
(0 0.0045506222 0.5057175)
(0 0.0034155822 0.50538897)
(0 0.0023253264 0.50516556)
(0 0.0012640417 0.50503727)
(0 0.00021675601 0.50499853)
(0 -0.00083111556 0.50504776)
(0 -0.0018942227 0.50518731)
(0 -0.0029876508 0.50542359)
(0 -0.0041274196 0.50576755)
(0 -0.0053309405 0.50623555)
(0 -0.0066175313 0.50685071)
(0 -0.0080089995 0.50764483)
(0 -0.0095301992 0.50866126)
(0 -0.011209727 0.50995907)
(0 -0.013081448 0.51161958)
(0 -0.015182878 0.51375546)
(0 -0.017556654 0.51652246)
(0 -0.020266923 0.52013164)
(0 -0.02332155 0.5249632)
(0 -0.026962532 0.53273989)
(0 -0.032204131 0.54839066)
(0 -0.037996248 0.56254356)
(0 -0.035415873 0.49379234)
(0 -0.0062007296 0.21325193)
(0 0.0015511113 0.17613336)
(0 0.031499784 0.47076154)
(0 0.040532835 0.57338569)
(0 0.036559594 0.56659857)
(0 0.030637984 0.54537858)
(0 0.026672301 0.53370469)
(0 0.023543719 0.52703243)
(0 0.020711004 0.52218864)
(0 0.018183494 0.51845151)
(0 0.015917722 0.51555138)
(0 0.013879261 0.51328607)
(0 0.012036676 0.51150495)
(0 0.010359671 0.51009899)
(0 0.008821988 0.5089887)
(0 0.007400099 0.50811534)
(0 0.00607289 0.50743537)
(0 0.0048213882 0.50691665)
(0 0.0036283549 0.5065357)
(0 0.0024779138 0.50627594)
(0 0.0013551879 0.50612641)
(0 0.00024595771 0.506081)
(0 -0.00086368971 0.50613797)
(0 -0.0019877266 0.50629989)
(0 -0.0031404571 0.5065738)
(0 -0.0043369206 0.50697169)
(0 -0.0055932255 0.50751139)
(0 -0.0069269166 0.50821795)
(0 -0.0083573807 0.50912557)
(0 -0.0099061857 0.51028057)
(0 -0.011597338 0.5117455)
(0 -0.013458561 0.51360572)
(0 -0.015519921 0.51597869)
(0 -0.017812042 0.51902297)
(0 -0.020381867 0.52294956)
(0 -0.023236636 0.52823539)
(0 -0.026656794 0.53704031)
(0 -0.031566792 0.55365901)
(0 -0.035906255 0.56230802)
(0 -0.030554091 0.47789093)
(0 -0.0035910706 0.19460949)
(0 7.672387e-05 0.16252487)
(0 0.025870542 0.45260023)
(0 0.037160082 0.56943324)
(0 0.035191879 0.57098898)
(0 0.029877899 0.54996308)
(0 0.026174277 0.53711399)
(0 0.023306438 0.52991253)
(0 0.020687989 0.52478442)
(0 0.018308405 0.52079843)
(0 0.016139308 0.51767434)
(0 0.014159402 0.5152136)
(0 0.012345834 0.51326403)
(0 0.010675525 0.51171439)
(0 0.0091278608 0.51048299)
(0 0.0076835882 0.50950905)
(0 0.006324901 0.50874719)
(0 0.0050353631 0.50816368)
(0 0.0037996882 0.50773375)
(0 0.0026035312 0.5074398)
(0 0.0014332544 0.50727018)
(0 0.00027569571 0.50721833)
(0 -0.00088208033 0.50728242)
(0 -0.0020530617 0.50746518)
(0 -0.0032504651 0.50777413)
(0 -0.0044880435 0.50822203)
(0 -0.005780305 0.50882777)
(0 -0.0071427436 0.50961777)
(0 -0.0085920853 0.51062791)
(0 -0.010146471 0.51190642)
(0 -0.011825386 0.51351803)
(0 -0.013650619 0.5155504)
(0 -0.015645388 0.51812329)
(0 -0.017830325 0.52139489)
(0 -0.020237808 0.52557962)
(0 -0.02288142 0.53128245)
(0 -0.026079143 0.54103118)
(0 -0.030570759 0.55793438)
(0 -0.033428067 0.56019056)
(0 -0.02599587 0.46206817)
(0 -0.0017651077 0.17947016)
(0 -0.00071798882 0.15190736)
(0 0.021108147 0.43543486)
(0 0.03381961 0.56393165)
(0 0.033604446 0.57408923)
(0 0.028975285 0.55409406)
(0 0.025520318 0.54026363)
(0 0.022886553 0.53255277)
(0 0.020478843 0.52719216)
(0 0.01825507 0.52301275)
(0 0.016195829 0.51970855)
(0 0.014290391 0.51708625)
(0 0.012522996 0.51499445)
(0 0.010876746 0.51332125)
(0 0.0093360087 0.51198401)
(0 0.0078854994 0.51092094)
(0 0.0065106189 0.51008567)
(0 0.0051974924 0.50944351)
(0 0.0039328928 0.50896887)
(0 0.0027041635 0.50864351)
(0 0.0014990926 0.50845528)
(0 0.00030577598 0.50839734)
(0 -0.00088753595 0.50846777)
(0 -0.0020926378 0.50866944)
(0 -0.0033214577 0.50901017)
(0 -0.0045862758 0.50950325)
(0 -0.005899842 0.51016827)
(0 -0.0072754947 0.5110325)
(0 -0.0087272709 0.5121328)
(0 -0.010269985 0.5135185)
(0 -0.011918952 0.51525542)
(0 -0.013690624 0.51743223)
(0 -0.015602155 0.52016908)
(0 -0.017666014 0.52362187)
(0 -0.019903668 0.52801629)
(0 -0.022341299 0.53411052)
(0 -0.025320523 0.54468153)
(0 -0.029331189 0.56120737)
(0 -0.030793231 0.5565864)
(0 -0.021894788 0.44676233)
(0 -0.00056450505 0.16724675)
(0 -0.0010701188 0.14358351)
(0 0.017203456 0.41947961)
(0 0.030667023 0.5573402)
(0 0.031915216 0.5760205)
(0 0.028004216 0.55776388)
(0 0.024783966 0.54317946)
(0 0.022350521 0.53497585)
(0 0.020139209 0.52941777)
(0 0.018069265 0.52509045)
(0 0.016124314 0.52164457)
(0 0.014301734 0.51889151)
(0 0.012591372 0.51668217)
(0 0.010981364 0.51490498)
(0 0.0094602726 0.51347722)
(0 0.0080163178 0.51233687)
(0 0.0066378425 0.51143718)
(0 0.0053134082 0.51074304)
(0 0.0040318251 0.51022845)
(0 0.0027821672 0.50987481)
(0 0.0015537322 0.50966967)
(0 0.00033598201 0.50960605)
(0 -0.00088152873 0.50968196)
(0 -0.002109282 0.50990034)
(0 -0.0033578102 0.5102692)
(0 -0.0046378385 0.51080211)
(0 -0.0059603181 0.51151907)
(0 -0.0073364594 0.51244776)
(0 -0.0087777348 0.51362549)
(0 -0.010295887 0.51510197)
(0 -0.011902557 0.51694336)
(0 -0.013609623 0.51923841)
(0 -0.015429085 0.52210631)
(0 -0.017366931 0.52569998)
(0 -0.019437759 0.53026657)
(0 -0.021685232 0.53673132)
(0 -0.024454165 0.54797124)
(0 -0.027949783 0.56352186)
(0 -0.028172323 0.55185725)
(0 -0.018325012 0.43223809)
(0 0.00016916708 0.15739324)
(0 -0.0011532272 0.13700191)
(0 0.014078984 0.40481482)
(0 0.027782374 0.55003323)
(0 0.030212236 0.57693025)
(0 0.027017107 0.56097901)
(0 0.024018213 0.54588547)
(0 0.021750222 0.53720876)
(0 0.01971428 0.53147436)
(0 0.017789329 0.52703479)
(0 0.01595687 0.52347983)
(0 0.014219907 0.520623)
(0 0.012572461 0.51831837)
(0 0.01100659 0.51645533)
(0 0.0095142417 0.51495166)
(0 0.0080866052 0.51374558)
(0 0.0067146079 0.51279045)
(0 0.005389031 0.51205113)
(0 0.0041006063 0.51150152)
(0 0.0028400934 0.51112286)
(0 0.0015983003 0.51090264)
(0 0.00036608429 0.51083377)
(0 -0.00086565351 0.51091424)
(0 -0.0021060403 0.51114701)
(0 -0.0033641859 0.51154018)
(0 -0.0046492616 0.51210743)
(0 -0.005970469 0.51286885)
(0 -0.0073370124 0.51385224)
(0 -0.0087580232 0.51509493)
(0 -0.010242523 0.51664653)
(0 -0.011799034 0.51857296)
(0 -0.013435691 0.52096241)
(0 -0.015160331 0.52393222)
(0 -0.016974116 0.5276329)
(0 -0.018888672 0.53234414)
(0 -0.020967785 0.53915897)
(0 -0.023537274 0.55089381)
(0 -0.026509016 0.56496038)
(0 -0.025676598 0.54632093)
(0 -0.01529819 0.41864344)
(0 0.00057403766 0.14944684)
(0 -0.001085644 0.1317228)
(0 0.011624083 0.3914318)
(0 0.025193503 0.54230443)
(0 0.02855432 0.57697276)
(0 0.026047357 0.56375912)
(0 0.023258425 0.54840451)
(0 0.02112418 0.53927996)
(0 0.019239507 0.53337933)
(0 0.01744649 0.52885373)
(0 0.015720556 0.52521643)
(0 0.01406791 0.52227876)
(0 0.012485468 0.51989824)
(0 0.010968205 0.51796561)
(0 0.0095106815 0.5163994)
(0 0.008106501 0.51513844)
(0 0.0067487804 0.51413646)
(0 0.005430251 0.51335856)
(0 0.0041433918 0.51277876)
(0 0.0028805399 0.51237837)
(0 0.0016339525 0.51214487)
(0 0.00039584976 0.5120712)
(0 -0.00084154069 0.5121553)
(0 -0.0020860108 0.51240015)
(0 -0.0033452836 0.51281383)
(0 -0.0046270419 0.51340997)
(0 -0.0059388511 0.51420861)
(0 -0.0072880925 0.51523737)
(0 -0.0086818392 0.5165333)
(0 -0.010126794 0.5181456)
(0 -0.01162893 0.52013957)
(0 -0.01319346 0.52260246)
(0 -0.014825044 0.52564923)
(0 -0.016521611 0.52942978)
(0 -0.018295125 0.53426716)
(0 -0.020229599 0.5414101)
(0 -0.022611409 0.5534569)
(0 -0.025069957 0.56562745)
(0 -0.023368747 0.54024331)
(0 -0.012784701 0.40604025)
(0 0.00075921576 0.14301328)
(0 -0.00094380905 0.12740059)
(0 0.0097199803 0.3792645)
(0 0.022896958 0.5343742)
(0 0.026976666 0.57629309)
(0 0.025113712 0.56613144)
(0 0.02252584 0.55075729)
(0 0.020499065 0.54121714)
(0 0.018741342 0.53515232)
(0 0.017065241 0.53055828)
(0 0.015437438 0.52685971)
(0 0.01386511 0.52386009)
(0 0.012347023 0.5214201)
(0 0.010880217 0.51943199)
(0 0.0094611752 0.51781514)
(0 0.0080853871 0.51650911)
(0 0.0067477615 0.5154682)
(0 0.0054426907 0.51465789)
(0 0.004164193 0.51405249)
(0 0.0029060355 0.5136335)
(0 0.0016618195 0.51338848)
(0 0.00042504999 0.51331041)
(0 -0.0008107854 0.51339727)
(0 -0.0020522099 0.51365197)
(0 -0.0033056413 0.51408252)
(0 -0.004577385 0.51470242)
(0 -0.0058735254 0.51553146)
(0 -0.0071998404 0.51659697)
(0 -0.008561653 0.51793552)
(0 -0.0099637609 0.51959567)
(0 -0.011410142 0.52164194)
(0 -0.012903822 0.52416038)
(0 -0.014447184 0.52726355)
(0 -0.016036385 0.53110354)
(0 -0.017686252 0.53605607)
(0 -0.019498859 0.54350226)
(0 -0.021704622 0.55567792)
(0 -0.023674628 0.56563308)
(0 -0.021276838 0.53383587)
(0 -0.010732039 0.39442801)
(0 0.00080501784 0.13775918)
(0 -0.00077521207 0.12377418)
(0 0.0082540231 0.36821598)
(0 0.020872473 0.52640201)
(0 0.025497174 0.57501908)
(0 0.024224973 0.56812557)
(0 0.021831615 0.55296079)
(0 0.019892039 0.54304498)
(0 0.018238564 0.53681308)
(0 0.016664045 0.53216093)
(0 0.015124895 0.52841695)
(0 0.013627312 0.52537047)
(0 0.012171103 0.52288453)
(0 0.010754703 0.52085284)
(0 0.0093759257 0.51919563)
(0 0.0080316806 0.51785318)
(0 0.0067182969 0.51678042)
(0 0.0054315413 0.51594332)
(0 0.0041667519 0.51531655)
(0 0.0029189566 0.51488183)
(0 0.0016829686 0.51462692)
(0 0.00045346889 0.51454486)
(0 -0.00077489334 0.51463364)
(0 -0.0020074719 0.51489612)
(0 -0.0032494926 0.51534017)
(0 -0.0045060221 0.5159791)
(0 -0.0057818431 0.51683238)
(0 -0.0070813633 0.51792691)
(0 -0.0084084629 0.5192987)
(0 -0.0097664304 0.5209956)
(0 -0.011157744 0.52308127)
(0 -0.012583875 0.52564052)
(0 -0.014045689 0.52878377)
(0 -0.015538873 0.53266887)
(0 -0.017082831 0.53773112)
(0 -0.018793812 0.54545192)
(0 -0.020834475 0.55757929)
(0 -0.022349597 0.5650822)
(0 -0.019405987 0.52726059)
(0 -0.0090774388 0.38376622)
(0 0.00076794936 0.13341214)
(0 -0.00060783925 0.12065334)
(0 0.0071270206 0.35817737)
(0 0.019092032 0.51850001)
(0 0.024121718 0.57325973)
(0 0.023383608 0.56977085)
(0 0.021180217 0.55502792)
(0 0.019313198 0.54478392)
(0 0.017743884 0.53837994)
(0 0.016256339 0.53367429)
(0 0.014796189 0.52989626)
(0 0.013367045 0.52681464)
(0 0.011969146 0.52429358)
(0 0.010601801 0.52222813)
(0 0.0092636859 0.52053922)
(0 0.0079527351 0.5191678)
(0 0.0066663699 0.51806938)
(0 0.0054014643 0.51721046)
(0 0.0041544608 0.51656607)
(0 0.0029214722 0.51611825)
(0 0.0016983783 0.51585492)
(0 0.0004809091 0.51576923)
(0 -0.00073524293 0.51585918)
(0 -0.0019543817 0.51612756)
(0 -0.0031806718 0.51658209)
(0 -0.0044180948 0.51723582)
(0 -0.0056703182 0.51810789)
(0 -0.0069406097 0.51922471)
(0 -0.0082316949 0.5206217)
(0 -0.009545709 0.522346)
(0 -0.010884059 0.52446046)
(0 -0.012247172 0.5270487)
(0 -0.01363502 0.53021963)
(0 -0.015043933 0.53414066)
(0 -0.01649888 0.53931084)
(0 -0.01812525 0.54727344)
(0 -0.020010694 0.55918544)
(0 -0.021109337 0.56406954)
(0 -0.017746953 0.52063815)
(0 -0.0077561891 0.37399198)
(0 0.00068642163 0.12975682)
(0 -0.00045661133 0.11790281)
(0 0.0062563897 0.34903917)
(0 0.017525502 0.51074469)
(0 0.022848412 0.57110635)
(0 0.022588261 0.57109528)
(0 0.020571825 0.55696809)
(0 0.018767591 0.54645009)
(0 0.017265423 0.53986906)
(0 0.015851569 0.53511024)
(0 0.014461165 0.5313058)
(0 0.013093998 0.52819792)
(0 0.011750286 0.52565025)
(0 0.010429826 0.52355894)
(0 0.009131792 0.52184547)
(0 0.0078548267 0.52045132)
(0 0.0065971631 0.51933254)
(0 0.0053565461 0.51845609)
(0 0.0041303211 0.51779739)
(0 0.0029155153 0.51733877)
(0 0.0017089254 0.51706833)
(0 0.00050719728 0.51697933)
(0 -0.00069306144 0.51706978)
(0 -0.0018952335 0.51734241)
(0 -0.0031025613 0.51780476)
(0 -0.0043180968 0.51846962)
(0 -0.005544575 0.51935577)
(0 -0.0067843393 0.52048915)
(0 -0.0080392193 0.52190461)
(0 -0.0093105028 0.52364864)
(0 -0.010598876 0.52578339)
(0 -0.011904133 0.52839142)
(0 -0.013225838 0.53158099)
(0 -0.014561871 0.53553296)
(0 -0.015943123 0.54081123)
(0 -0.017498505 0.54897892)
(0 -0.019237295 0.56052105)
(0 -0.019959306 0.56267785)
(0 -0.016282471 0.51405606)
(0 -0.0067070797 0.36503182)
(0 0.00058561283 0.12662671)
(0 -0.00032799379 0.11542834)
(0 0.005576393 0.3406975)
(0 0.016143943 0.50318614)
(0 0.02167098 0.56863466)
(0 0.021835553 0.57212494)
(0 0.020004044 0.55878793)
(0 0.01825679 0.54805569)
(0 0.016807923 0.54129419)
(0 0.015456089 0.53647956)
(0 0.014126908 0.53265334)
(0 0.012815482 0.52952571)
(0 0.011521665 0.52695796)
(0 0.010245455 0.52484703)
(0 0.0089862671 0.52311477)
(0 0.0077432008 0.52170305)
(0 0.0065150723 0.52056834)
(0 0.0053002935 0.519678)
(0 0.0040969329 0.51900783)
(0 0.0029027719 0.51854038)
(0 0.0017153809 0.51826398)
(0 0.00053218788 0.51817196)
(0 -0.0006494132 0.51826235)
(0 -0.001832014 0.51853779)
(0 -0.0030180723 0.51900569)
(0 -0.0042098614 0.51967855)
(0 -0.0054093542 0.52057482)
(0 -0.006618164 0.52171999)
(0 -0.0078374475 0.52314842)
(0 -0.0090678992 0.52490605)
(0 -0.010309764 0.52705445)
(0 -0.011562511 0.52967534)
(0 -0.012825674 0.53287736)
(0 -0.014099367 0.53685851)
(0 -0.01542025 0.54224566)
(0 -0.016915045 0.5505783)
(0 -0.01851438 0.56160989)
(0 -0.018898791 0.56097763)
(0 -0.014991704 0.50757582)
(0 -0.0058755108 0.35680909)
(0 0.00048126694 0.1238951)
(0 -0.00022331868 0.11316551)
(0 0.0050365473 0.33305739)
(0 0.014921257 0.49585526)
(0 0.020581172 0.56590714)
(0 0.021121341 0.57288373)
(0 0.019473139 0.56049191)
(0 0.017780117 0.54960953)
(0 0.016373714 0.54266669)
(0 0.015073924 0.53779175)
(0 0.013798339 0.53394599)
(0 0.01253687 0.53080321)
(0 0.01128874 0.5282203)
(0 0.010053945 0.52609456)
(0 0.0088319602 0.5243481)
(0 0.0076221585 0.52292297)
(0 0.006423755 0.52177597)
(0 0.005235659 0.5208748)
(0 0.0040565056 0.52019551)
(0 0.0028846867 0.51972094)
(0 0.0017184121 0.51943954)
(0 0.00055576522 0.51934475)
(0 -0.0006051975 0.51943461)
(0 -0.0017664023 0.51971168)
(0 -0.0029296528 0.52018321)
(0 -0.004096584 0.52086148)
(0 -0.0052685601 0.5217646)
(0 -0.0064466334 0.52291769)
(0 -0.007631474 0.5243547)
(0 -0.0088233865 0.52612114)
(0 -0.010022387 0.52827814)
(0 -0.011227848 0.53090686)
(0 -0.012439551 0.53411752)
(0 -0.013660314 0.53812842)
(0 -0.014932015 0.54362488)
(0 -0.016373772 0.55207945)
(0 -0.017839612 0.56247398)
(0 -0.017923272 0.55902792)
(0 -0.013853151 0.50123897)
(0 -0.0052148131 0.3492487)
(0 0.0003825901 0.12146718)
(0 -0.00014105724 0.11107094)
(0 0.0045991965 0.32603424)
(0 0.013834762 0.48876935)
(0 0.019570315 0.56297529)
(0 0.020441494 0.57339346)
(0 0.018974893 0.56208291)
(0 0.017335577 0.55111755)
(0 0.015963494 0.54399573)
(0 0.014707396 0.53905497)
(0 0.013478722 0.53519011)
(0 0.012261992 0.53203527)
(0 0.011055584 0.52944079)
(0 0.0098593448 0.52730391)
(0 0.008672701 0.52554679)
(0 0.007495162 0.52411158)
(0 0.0063262002 0.52295524)
(0 0.0051650849 0.5220457)
(0 0.0040108852 0.52135928)
(0 0.0028624771 0.52087899)
(0 0.0017185895 0.52059342)
(0 0.00057784461 0.52049609)
(0 -0.00056115408 0.52058503)
(0 -0.0016997837 0.52086275)
(0 -0.0028393139 0.52133635)
(0 -0.0039808669 0.5220179)
(0 -0.0051253326 0.52292526)
(0 -0.0062733452 0.52408321)
(0 -0.0074252394 0.52552538)
(0 -0.0085810873 0.52729699)
(0 -0.0097408282 0.52945889)
(0 -0.010903905 0.53209196)
(0 -0.012070545 0.5353093)
(0 -0.013246543 0.53935211)
(0 -0.014478157 0.54495719)
(0 -0.015872036 0.55348849)
(0 -0.01720931 0.56313332)
(0 -0.017026164 0.55687764)
(0 -0.012846365 0.49507224)
(0 -0.004686441 0.34227997)
(0 0.00029441226 0.11927317)
(0 -7.8299985e-05 0.10911559)
(0 0.0042369244 0.31955394)
(0 0.012865175 0.48193632)
(0 0.018630187 0.55988184)
(0 0.019792303 0.57367405)
(0 0.018505131 0.56356277)
(0 0.016920515 0.55258345)
(0 0.015576914 0.54528846)
(0 0.014357628 0.54027615)
(0 0.013170087 0.53639128)
(0 0.011993483 0.53322628)
(0 0.010825155 0.53062278)
(0 0.0096647089 0.52847747)
(0 0.0085114555 0.52671242)
(0 0.0073649476 0.52526969)
(0 0.0062248081 0.52410635)
(0 0.0050905573 0.52319046)
(0 0.0039615888 0.52249851)
(0 0.0028371547 0.52201365)
(0 0.0017163967 0.5217246)
(0 0.00059837185 0.52162492)
(0 -0.00051787357 0.52171266)
(0 -0.0016332727 0.52199025)
(0 -0.0027486675 0.52246467)
(0 -0.003864778 0.52314783)
(0 -0.004982134 0.52405735)
(0 -0.0061010688 0.5252178)
(0 -0.0072217015 0.52666255)
(0 -0.0083439887 0.52843666)
(0 -0.0094678971 0.53060085)
(0 -0.010593053 0.53323605)
(0 -0.011720277 0.53645953)
(0 -0.012858436 0.54053735)
(0 -0.014057121 0.54624872)
(0 -0.015406364 0.55480999)
(0 -0.016619224 0.56360584)
(0 -0.01620003 0.55456712)
(0 -0.011952854 0.48909156)
(0 -0.0042594588 0.33583822)
(0 0.00021871694 0.11726245)
(0 -3.1680322e-05 0.10727986)
(0 0.0039301626 0.31355236)
(0 0.011996301 0.47535766)
(0 0.01775344 0.55666239)
(0 0.01917064 0.57374384)
(0 0.018060019 0.56493281)
(0 0.016532052 0.55400921)
(0 0.015212991 0.54655038)
(0 0.014024927 0.54146103)
(0 0.012873576 0.53755431)
(0 0.011733065 0.53438013)
(0 0.010599537 0.53176937)
(0 0.0094722845 0.52961759)
(0 0.0083504736 0.52784663)
(0 0.0072336376 0.52639837)
(0 0.0061214726 0.52522985)
(0 0.0050136653 0.52430919)
(0 0.0039098448 0.52361299)
(0 0.0028095489 0.52312451)
(0 0.0017122407 0.52283254)
(0 0.00061732133 0.5227307)
(0 -0.00047581182 0.52281701)
(0 -0.0015677402 0.52309387)
(0 -0.002658971 0.52356815)
(0 -0.0037499161 0.52425162)
(0 -0.0048408404 0.52516174)
(0 -0.0059318704 0.52632289)
(0 -0.0070230008 0.52776833)
(0 -0.0081141571 0.52954306)
(0 -0.0092053997 0.53170779)
(0 -0.010296611 0.53434388)
(0 -0.011389316 0.53757405)
(0 -0.012495397 0.54169037)
(0 -0.013666598 0.5475038)
(0 -0.014972969 0.55604738)
(0 -0.01606504 0.56390756)
(0 -0.015437382 0.55212957)
(0 -0.011156426 0.48330513)
(0 -0.0039096303 0.32986538)
(0 0.00015570921 0.11539871)
(0 2.0839466e-06 0.10555012)
(0 0.0036651501 0.30797433)
(0 0.01121462 0.46903062)
(0 0.01693373 0.55334684)
(0 0.01857398 0.57361986)
(0 0.017636201 0.56619411)
(0 0.016167341 0.55539556)
(0 0.014870404 0.54778557)
(0 0.013709069 0.54261438)
(0 0.012589701 0.53868332)
(0 0.01148179 0.53550026)
(0 0.010380138 0.53288337)
(0 0.0092836784 0.53072649)
(0 0.0081914224 0.52895109)
(0 0.007102845 0.52749879)
(0 0.0060176608 0.52632648)
(0 0.004935659 0.52540229)
(0 0.003856633 0.52470286)
(0 0.0027803318 0.52421151)
(0 0.0017064631 0.5239171)
(0 0.00063469402 0.52381325)
(0 -0.00043530549 0.52389798)
(0 -0.0015038447 0.52417366)
(0 -0.002571175 0.52464707)
(0 -0.0036374791 0.52532988)
(0 -0.004702834 0.52623943)
(0 -0.0057672334 0.52740001)
(0 -0.006830615 0.52884481)
(0 -0.0078929313 0.53061889)
(0 -0.0089543738 0.5327831)
(0 -0.010015128 0.53541958)
(0 -0.011077496 0.53865773)
(0 -0.012156213 0.54281606)
(0 -0.013303917 0.54872532)
(0 -0.014568091 0.55720325)
(0 -0.0155427 0.56405282)
(0 -0.014731174 0.54959243)
(0 -0.010443209 0.47771574)
(0 -0.003618349 0.32431005)
(0 0.00010455881 0.11365607)
(0 2.5912475e-05 0.10391647)
(0 0.0034322935 0.30277257)
(0 0.010508845 0.46294964)
(0 0.016165681 0.54996043)
(0 0.018000337 0.57331799)
(0 0.017230839 0.56734781)
(0 0.015823727 0.55674239)
(0 0.014547675 0.54899697)
(0 0.013409498 0.5437401)
(0 0.012318547 0.53978185)
(0 0.011240216 0.53658967)
(0 0.010167855 0.53396731)
(0 0.0090999963 0.53180625)
(0 0.0080355029 0.53002745)
(0 0.0069737677 0.52857219)
(0 0.0059144871 0.52739714)
(0 0.0048575049 0.52647036)
(0 0.0038027235 0.52576849)
(0 0.0027500423 0.52527488)
(0 0.0016993501 0.52497839)
(0 0.00065051445 0.52487268)
(0 -0.00039658844 0.52495575)
(0 -0.0014420626 0.52522992)
(0 -0.0024859701 0.52570194)
(0 -0.0035283283 0.5263834)
(0 -0.0045690883 0.52729156)
(0 -0.0056081673 0.52845068)
(0 -0.0066454945 0.52989398)
(0 -0.0076810867 0.53166664)
(0 -0.0087152843 0.53382978)
(0 -0.0097486016 0.5364667)
(0 -0.010784172 0.53971463)
(0 -0.011839322 0.54391815)
(0 -0.012966303 0.549915)
(0 -0.014188198 0.55827957)
(0 -0.015048565 0.56405456)
(0 -0.014075052 0.54697843)
(0 -0.0098014769 0.47232245)
(0 -0.00337157 0.31912711)
(0 6.3906763e-05 0.11201607)
(0 4.2254456e-05 0.10237116)
(0 0.0032249118 0.29790654)
(0 0.0098695152 0.45710741)
(0 0.015444763 0.54652456)
(0 0.017448173 0.57285311)
(0 0.016841591 0.56839527)
(0 0.015498808 0.55804902)
(0 0.01424329 0.55018665)
(0 0.013125466 0.5448414)
(0 0.012059908 0.54085288)
(0 0.011008551 0.53765097)
(0 0.0099632001 0.53502345)