/*--------------------------------*- C++ -*----------------------------------*\
  =========                 |
  \\      /  F ield         | OpenFOAM: The Open Source CFD Toolbox
   \\    /   O peration     | Website:  https://openfoam.org
    \\  /    A nd           | Version:  10
     \\/     M anipulation  |
\*---------------------------------------------------------------------------*/
FoamFile
{
    format      ascii;
    class       volVectorField;
    location    "0.25";
    object      U_0;
}
// * * * * * * * * * * * * * * * * * * * * * * * * * * * * * * * * * * * * * //

dimensions      [0 1 -1 0 0 0 0];

internalField   nonuniform List<vector> 
4000
(
(0 0.018637464 0.47773157)
(0 0.023510009 0.50886061)
(0 0.008166857 0.50052521)
(0 0.005614618 0.50033634)
(0 0.0042546334 0.50025746)
(0 0.0032549503 0.50016898)
(0 0.0025560975 0.50011969)
(0 0.0020545903 0.50009013)
(0 0.0016765894 0.50006981)
(0 0.0013822517 0.50005539)
(0 0.0011472046 0.50004499)
(0 0.00095510945 0.50003733)
(0 0.00079471195 0.5000316)
(0 0.00065803647 0.50002727)
(0 0.00053925469 0.50002399)
(0 0.00043398594 0.50002151)
(0 0.0003388429 0.50001966)
(0 0.00025112359 0.50001834)
(0 0.00016859539 0.50001744)
(0 8.9336452e-05 0.50001694)
(0 1.1613304e-05 0.50001679)
(0 -6.6226001e-05 0.50001699)
(0 -0.0001458437 0.50001755)
(0 -0.00022900434 0.5000185)
(0 -0.00031768535 0.50001991)
(0 -0.00041420785 0.50002185)
(0 -0.00052140833 0.50002446)
(0 -0.00064287794 0.50002793)
(0 -0.00078331036 0.50003252)
(0 -0.00094903164 0.50003863)
(0 -0.0011488513 0.50004688)
(0 -0.0013954277 0.50005824)
(0 -0.0017075071 0.50007414)
(0 -0.0021154382 0.50009709)
(0 -0.0026751352 0.50013481)
(0 -0.0034687077 0.50020238)
(0 -0.0045609331 0.50027143)
(0 -0.0065851218 0.50043364)
(0 -0.017659563 0.50675407)
(0 -0.013590182 0.47975561)
(0 0.037432702 0.44796926)
(0 0.050955769 0.53232616)
(0 0.021969336 0.5080429)
(0 0.016135662 0.50357318)
(0 0.012416105 0.50242316)
(0 0.0095159808 0.50162299)
(0 0.007520651 0.50115661)
(0 0.0060699261 0.50086593)
(0 0.0049646083 0.50066801)
(0 0.0041001652 0.50052902)
(0 0.0034076465 0.50042905)
(0 0.0028401047 0.50035554)
(0 0.0023651661 0.50030065)
(0 0.0019597472 0.50025926)
(0 0.0016068877 0.50022791)
(0 0.0012937926 0.50020425)
(0 0.0010105372 0.50018665)
(0 0.00074918369 0.50017397)
(0 0.00050315831 0.50016546)
(0 0.00026679173 0.50016063)
(0 3.4963596e-05 0.5001592)
(0 -0.00019720518 0.5001611)
(0 -0.00043462353 0.50016645)
(0 -0.00068250164 0.50017556)
(0 -0.0009466695 0.50018897)
(0 -0.0012339561 0.50020752)
(0 -0.0015526853 0.50023246)
(0 -0.0019133631 0.50026557)
(0 -0.0023296701 0.50030949)
(0 -0.002819946 0.5003681)
(0 -0.0034095656 0.50044735)
(0 -0.0041349045 0.5005567)
(0 -0.0050490411 0.50071126)
(0 -0.0062318404 0.5009366)
(0 -0.0078321857 0.50129437)
(0 -0.010125865 0.50191051)
(0 -0.013106985 0.50282508)
(0 -0.017426385 0.50608116)
(0 -0.03875916 0.52526813)
(0 -0.027894738 0.4502164)
(0 0.0398883 0.40982053)
(0 0.061428186 0.54930815)
(0 0.031983816 0.52188196)
(0 0.024355572 0.51008055)
(0 0.019193713 0.50658857)
(0 0.014977257 0.50452809)
(0 0.012006834 0.50327141)
(0 0.0097720384 0.50245841)
(0 0.0080366282 0.50190109)
(0 0.0066649579 0.50150872)
(0 0.0055568068 0.50122551)
(0 0.0046426409 0.50101676)
(0 0.0038737223 0.50086062)
(0 0.0032146556 0.5007427)
(0 0.0026391066 0.50065332)
(0 0.0021270225 0.50058581)
(0 0.0016627267 0.50053554)
(0 0.0012335995 0.50049934)
(0 0.0008291343 0.50047502)
(0 0.00044023241 0.50046119)
(0 5.8652826e-05 0.5004571)
(0 -0.00032346557 0.50046254)
(0 -0.00071403097 0.50047782)
(0 -0.0011214224 0.50050384)
(0 -0.0015549846 0.50054214)
(0 -0.0020256117 0.5005951)
(0 -0.002546502 0.50066622)
(0 -0.0031341878 0.50076058)
(0 -0.0038099988 0.50088557)
(0 -0.0046021743 0.50105212)
(0 -0.0055490685 0.50127675)
(0 -0.0067046614 0.5015856)
(0 -0.0081461535 0.50202078)
(0 -0.0099776328 0.5026507)
(0 -0.012371914 0.50361505)
(0 -0.015716956 0.50519914)
(0 -0.019873361 0.50785386)
(0 -0.025187031 0.5164122)
(0 -0.047417561 0.53912725)
(0 -0.030853864 0.41487989)
(0 0.034791611 0.36173001)
(0 0.063838996 0.55456331)
(0 0.039380513 0.53747137)
(0 0.030083496 0.51849261)
(0 0.024112727 0.51197731)
(0 0.019279722 0.50849947)
(0 0.0157363 0.50626428)
(0 0.012954302 0.50475548)
(0 0.010743764 0.50370447)
(0 0.008967995 0.50295618)
(0 0.007513965 0.50241114)
(0 0.006302009 0.50200687)
(0 0.0052743222 0.50170308)
(0 0.0043876481 0.50147286)
(0 0.0036091705 0.50129785)
(0 0.002913506 0.50116537)
(0 0.0022805492 0.50106658)
(0 0.00169394 0.50099531)
(0 0.0011399385 0.5009474)
(0 0.00060656548 0.50092014)
(0 8.2920893e-05 0.50091206)
(0 -0.00044141545 0.50092276)
(0 -0.00097692402 0.50095286)
(0 -0.0015346744 0.50100407)
(0 -0.0021269449 0.50107938)
(0 -0.002767941 0.50118338)
(0 -0.0034747007 0.50132278)
(0 -0.004268301 0.50150725)
(0 -0.0051755208 0.50175081)
(0 -0.0062311387 0.50207391)
(0 -0.0074810221 0.50250704)
(0 -0.0089874021 0.5030972)
(0 -0.010837648 0.5039191)
(0 -0.013138319 0.5050891)
(0 -0.016025072 0.50680672)
(0 -0.019900474 0.50946731)
(0 -0.024732408 0.51427469)
(0 -0.031114292 0.52824687)
(0 -0.050320392 0.5440717)
(0 -0.028438624 0.37238025)
(0 0.027424288 0.31484317)
(0 0.062314977 0.5502406)
(0 0.044614709 0.55146765)
(0 0.033982192 0.52748814)
(0 0.027464221 0.51772244)
(0 0.022455322 0.51291985)
(0 0.018636939 0.50973146)
(0 0.015528266 0.50749267)
(0 0.013006321 0.50589999)
(0 0.010942278 0.50474696)
(0 0.0092247567 0.50389621)
(0 0.0077749037 0.50325925)
(0 0.006532733 0.50277719)
(0 0.0054518197 0.50240981)
(0 0.0044961153 0.50212931)
(0 0.0036371545 0.50191624)
(0 0.0028519934 0.50175691)
(0 0.0021216929 0.50164174)
(0 0.0014301592 0.50156418)
(0 0.00076323261 0.50152001)
(0 0.00010794876 0.50150689)
(0 -0.00054812249 0.50152418)
(0 -0.0012174799 0.50157286)
(0 -0.0019132691 0.50165564)
(0 -0.002649968 0.50177719)
(0 -0.0034441557 0.50194467)
(0 -0.0043154587 0.50216847)
(0 -0.0052877615 0.50246349)
(0 -0.0063908146 0.50285097)
(0 -0.0076623929 0.50336156)
(0 -0.0091507599 0.50403991)
(0 -0.010918352 0.50495255)
(0 -0.013052004 0.50620228)
(0 -0.015655513 0.50794402)
(0 -0.01881673 0.5104041)
(0 -0.022897162 0.51405456)
(0 -0.028178284 0.52114521)
(0 -0.035708374 0.53932631)
(0 -0.050477555 0.54155489)
(0 -0.024086569 0.33055762)
(0 0.019837933 0.27519765)
(0 0.057990138 0.53974647)
(0 0.0473641 0.56256475)
(0 0.036477876 0.53660457)
(0 0.029636376 0.52350712)
(0 0.024676381 0.51740331)
(0 0.020774496 0.51336305)
(0 0.017510026 0.5104446)
(0 0.014814471 0.50832429)
(0 0.012566901 0.50676193)
(0 0.01066579 0.50559292)
(0 0.0090391465 0.50470816)
(0 0.0076293523 0.5040327)
(0 0.0063905469 0.50351434)
(0 0.0052862714 0.50311635)
(0 0.004287057 0.50281269)
(0 0.0033686757 0.50258483)
(0 0.0025107915 0.50241969)
(0 0.0016958809 0.50230824)
(0 0.00090835748 0.50224465)
(0 0.00013384508 0.50222571)
(0 -0.00064148894 0.50225051)
(0 -0.0014315487 0.50232041)
(0 -0.0022508879 0.50243914)
(0 -0.0031154013 0.50261315)
(0 -0.0040430752 0.50285222)
(0 -0.005054884 0.50317049)
(0 -0.0061758928 0.50358796)
(0 -0.0074366504 0.50413281)
(0 -0.0088750848 0.50484498)
(0 -0.010538461 0.50578148)
(0 -0.012485072 0.50702458)
(0 -0.014795133 0.50869747)
(0 -0.017570424 0.51098175)
(0 -0.020864927 0.51411981)
(0 -0.024974916 0.51872994)
(0 -0.030509796 0.52822967)
(0 -0.038631286 0.54872394)
(0 -0.048509779 0.53398405)
(0 -0.019067298 0.2939385)
(0 0.013083205 0.24255477)
(0 0.051798968 0.5252005)
(0 0.047709769 0.57024849)
(0 0.0377574 0.54552496)
(0 0.030850753 0.52928863)
(0 0.026073888 0.52180167)
(0 0.022238352 0.51699795)
(0 0.018954073 0.51347352)
(0 0.016193864 0.51086502)
(0 0.01384992 0.50891255)
(0 0.011835744 0.50743278)
(0 0.010088753 0.5063007)
(0 0.0085563237 0.50542854)
(0 0.0071957082 0.50475417)
(0 0.0059721077 0.50423322)
(0 0.0048567052 0.50383376)
(0 0.0038253141 0.50353282)
(0 0.0028572638 0.50331402)
(0 0.0019344681 0.50316602)
(0 0.0010406447 0.50308141)
(0 0.00016065163 0.5030561)
(0 -0.00072013718 0.50308895)
(0 -0.0016164191 0.50318168)
(0 -0.002543498 0.50333902)
(0 -0.0035179378 0.5035691)
(0 -0.0045582421 0.50388421)
(0 -0.0056856481 0.50430194)
(0 -0.0069250691 0.50484693)
(0 -0.0083062094 0.50555344)
(0 -0.0098651391 0.50646925)
(0 -0.011646053 0.50766152)
(0 -0.013701196 0.5092251)
(0 -0.016100076 0.51129795)
(0 -0.018937987 0.51407944)
(0 -0.022246298 0.5178384)
(0 -0.02626583 0.52346759)
(0 -0.031849592 0.53537502)
(0 -0.039760702 0.55589665)
(0 -0.044895089 0.52282299)
(0 -0.014090995 0.26264524)
(0 0.0077701367 0.21554098)
(0 0.044825972 0.50800991)
(0 0.046255876 0.57438083)
(0 0.038035751 0.55375132)
(0 0.031288338 0.53496054)
(0 0.026768808 0.52603032)
(0 0.023117167 0.52053848)
(0 0.01992125 0.51648831)
(0 0.017182508 0.51344173)
(0 0.014813723 0.51113074)
(0 0.012746468 0.50935963)
(0 0.010928689 0.50799112)
(0 0.0093144873 0.5069276)
(0 0.0078658944 0.50609916)
(0 0.0065511681 0.50545518)
(0 0.0053433535 0.50495882)
(0 0.0042193418 0.50458331)
(0 0.0031590041 0.50430939)
(0 0.0021444397 0.50412361)
(0 0.0011593263 0.50401718)
(0 0.00018835085 0.5039852)
(0 -0.00078333956 0.50402631)
(0 -0.0017706666 0.50414254)
(0 -0.0027890828 0.50433955)
(0 -0.0038551574 0.50462698)
(0 -0.0049871521 0.50501935)
(0 -0.0062056835 0.50553726)
(0 -0.0075344885 0.50620932)
(0 -0.0090012491 0.50707485)
(0 -0.01063876 0.50818802)
(0 -0.0124866 0.50962406)
(0 -0.014589901 0.51148803)
(0 -0.017004864 0.51392881)
(0 -0.019813147 0.51715513)
(0 -0.023030715 0.52148006)
(0 -0.026880099 0.52818248)
(0 -0.03235205 0.54222024)
(0 -0.039404611 0.56050203)
(0 -0.040329326 0.50908358)
(0 -0.0097083559 0.23585745)
(0 0.0040049692 0.19355628)
(0 0.037899674 0.48948701)
(0 0.043687489 0.57524006)
(0 0.037564511 0.56084516)
(0 0.031154838 0.54036123)
(0 0.026914806 0.53001147)
(0 0.02351474 0.52390194)
(0 0.020480918 0.51941277)
(0 0.017827321 0.51598803)
(0 0.015489987 0.51335918)
(0 0.013418588 0.5113244)
(0 0.011571775 0.50973784)
(0 0.0099113871 0.50849482)
(0 0.0084051904 0.5075197)
(0 0.0070253573 0.50675711)
(0 0.0057476181 0.50616631)
(0 0.0045506925 0.50571746)
(0 0.0034156636 0.50538893)
(0 0.002325419 0.50516552)
(0 0.0012641453 0.50503723)
(0 0.00021687049 0.50499849)
(0 -0.00083099058 0.50504772)
(0 -0.0018940876 0.50518728)
(0 -0.0029875062 0.50542356)
(0 -0.0041272663 0.50576752)
(0 -0.0053307792 0.50623552)
(0 -0.0066173629 0.50685069)
(0 -0.0080088251 0.50764481)
(0 -0.0095300199 0.50866124)
(0 -0.011209545 0.50995906)
(0 -0.013081263 0.51161958)
(0 -0.015182692 0.51375546)
(0 -0.017556469 0.51652247)
(0 -0.020266741 0.52013165)
(0 -0.023321372 0.52496322)
(0 -0.026962358 0.53273991)
(0 -0.032203956 0.54839067)
(0 -0.037996078 0.56254362)
(0 -0.035415768 0.49379258)
(0 -0.0062007063 0.21325222)
(0 0.0015511066 0.17613341)
(0 0.031499761 0.47076159)
(0 0.040532796 0.5733857)
(0 0.036559555 0.56659856)
(0 0.03063795 0.54537856)
(0 0.026672272 0.53370468)
(0 0.023543695 0.5270324)
(0 0.020710987 0.52218861)
(0 0.018183485 0.51845148)
(0 0.015917721 0.51555134)
(0 0.013879269 0.51328602)
(0 0.012036695 0.5115049)
(0 0.010359701 0.51009895)
(0 0.0088220297 0.50898865)
(0 0.0074001529 0.50811528)
(0 0.0060729566 0.50743532)
(0 0.0048214677 0.50691659)
(0 0.0036284475 0.50653565)
(0 0.0024780196 0.50627589)
(0 0.0013553067 0.50612636)
(0 0.00024608936 0.50608095)
(0 -0.00086354562 0.50613792)
(0 -0.0019875705 0.50629984)
(0 -0.0031402897 0.50657375)
(0 -0.0043367427 0.50697165)
(0 -0.0055930381 0.50751136)
(0 -0.0069267207 0.50821792)
(0 -0.0083571775 0.50912555)
(0 -0.0099059766 0.51028055)
(0 -0.011597125 0.51174549)
(0 -0.013458345 0.51360571)
(0 -0.015519703 0.51597869)
(0 -0.017811824 0.51902299)
(0 -0.020381653 0.52294959)
(0 -0.023236426 0.52823542)
(0 -0.026656586 0.53704034)
(0 -0.031566583 0.55365902)
(0 -0.035906058 0.56230812)
(0 -0.030553976 0.47789126)
(0 -0.0035910462 0.19460985)
(0 7.6718821e-05 0.16252494)
(0 0.025870516 0.4526003)
(0 0.037160035 0.56943326)
(0 0.035191829 0.57098897)
(0 0.029877855 0.54996305)
(0 0.02617424 0.53711397)
(0 0.023306407 0.5299125)
(0 0.020687966 0.52478438)
(0 0.01830839 0.52079839)
(0 0.016139302 0.5176743)
(0 0.014159408 0.51521355)
(0 0.012345852 0.51326397)
(0 0.010675556 0.51171433)
(0 0.0091279052 0.51048293)
(0 0.0076836469 0.50950898)
(0 0.0063249744 0.50874713)
(0 0.0050354517 0.50816361)
(0 0.0037997921 0.50773368)
(0 0.0026036504 0.50743974)
(0 0.0014333889 0.50727011)
(0 0.00027584525 0.50721827)
(0 -0.00088191618 0.50728236)
(0 -0.0020528835 0.50746512)
(0 -0.0032502735 0.50777408)
(0 -0.0044878396 0.50822198)
(0 -0.0057800897 0.50882773)
(0 -0.0071425181 0.50961774)
(0 -0.008591851 0.51062788)
(0 -0.01014623 0.51190639)
(0 -0.011825139 0.51351801)
(0 -0.013650368 0.5155504)
(0 -0.015645135 0.51812329)
(0 -0.017830072 0.5213949)
(0 -0.020237557 0.52557965)
(0 -0.022881174 0.53128248)
(0 -0.026078898 0.54103121)
(0 -0.030570511 0.5579344)
(0 -0.03342784 0.56019071)
(0 -0.025995743 0.4620686)
(0 -0.0017650819 0.17947059)
(0 -0.00071799422 0.15190744)
(0 0.021108116 0.43543497)
(0 0.033819553 0.56393168)
(0 0.033604384 0.57408921)
(0 0.028975228 0.55409403)
(0 0.025520269 0.5402636)
(0 0.022886512 0.53255273)
(0 0.020478811 0.52719212)
(0 0.018255048 0.5230127)
(0 0.016195818 0.51970849)
(0 0.014290393 0.51708619)
(0 0.012523011 0.51499438)
(0 0.010876776 0.51332117)
(0 0.0093360549 0.51198393)
(0 0.007885562 0.51092086)
(0 0.0065106987 0.51008559)
(0 0.0051975896 0.50944343)
(0 0.0039330078 0.50896879)
(0 0.0027042963 0.50864343)
(0 0.0014992431 0.50845519)
(0 0.00030594406 0.50839726)
(0 -0.0008873508 0.5084677)
(0 -0.0020924363 0.50866937)
(0 -0.0033212405 0.5090101)
(0 -0.004586044 0.50950318)
(0 -0.0058995968 0.51016821)
(0 -0.0072752375 0.51103245)
(0 -0.0087270031 0.51213276)
(0 -0.010269708 0.51351847)
(0 -0.011918669 0.5152554)
(0 -0.013690336 0.51743222)
(0 -0.015601864 0.52016908)
(0 -0.017665722 0.52362188)
(0 -0.019903378 0.52801632)
(0 -0.022341013 0.53411056)
(0 -0.025320237 0.54468156)
(0 -0.029330899 0.56120741)
(0 -0.030792975 0.55658661)
(0 -0.021894648 0.44676288)
(0 -0.00056447758 0.16724725)
(0 -0.0010701245 0.14358361)
(0 0.01720342 0.41947975)
(0 0.030666954 0.55734025)
(0 0.031915138 0.57602048)
(0 0.028004145 0.55776384)
(0 0.024783904 0.54317942)
(0 0.022350468 0.53497581)
(0 0.020139165 0.52941771)
(0 0.018069233 0.52509039)
(0 0.016124295 0.5216445)
(0 0.01430173 0.51889144)
(0 0.012591383 0.51668209)
(0 0.010981393 0.51490489)
(0 0.0094603194 0.51347713)
(0 0.0080163836 0.51233677)
(0 0.0066379279 0.51143708)
(0 0.0053135138 0.51074294)
(0 0.0040319511 0.51022835)
(0 0.0027823139 0.5098747)
(0 0.0015538993 0.50966957)
(0 0.0003361694 0.50960595)
(0 -0.00088132157 0.50968186)
(0 -0.0021090557 0.50990025)
(0 -0.0033575658 0.51026911)
(0 -0.004637577 0.51080203)
(0 -0.0059600409 0.511519)
(0 -0.0073361679 0.5124477)
(0 -0.0087774307 0.51362544)
(0 -0.010295572 0.51510193)
(0 -0.011902234 0.51694334)
(0 -0.013609294 0.5192384)
(0 -0.015428752 0.52210631)
(0 -0.017366596 0.52569999)
(0 -0.019437426 0.5302666)
(0 -0.021684902 0.53673136)
(0 -0.024453832 0.54797126)
(0 -0.027949448 0.5635219)
(0 -0.028172034 0.55185754)
(0 -0.018324859 0.43223877)
(0 0.00016919625 0.15739382)
(0 -0.0011532332 0.13700203)
(0 0.014078942 0.404815)
(0 0.027782292 0.55003331)
(0 0.030212139 0.57693023)
(0 0.027017017 0.56097897)
(0 0.024018135 0.54588542)
(0 0.021750154 0.5372087)
(0 0.019714224 0.53147429)
(0 0.017789285 0.52703472)
(0 0.015956841 0.52347974)
(0 0.014219895 0.5206229)
(0 0.012572467 0.51831826)
(0 0.011006616 0.51645522)
(0 0.009514288 0.51495154)
(0 0.0080866731 0.51374546)
(0 0.0067146983 0.51279033)
(0 0.0053891446 0.51205101)
(0 0.0041007434 0.51150139)
(0 0.0028402542 0.51112274)
(0 0.0015984846 0.51090252)
(0 0.00036629195 0.51083365)
(0 -0.00086542307 0.51091412)
(0 -0.0021057878 0.5111469)
(0 -0.0033639124 0.51154008)
(0 -0.0046489683 0.51210733)
(0 -0.0059701572 0.51286876)
(0 -0.0073366839 0.51385217)
(0 -0.0087576799 0.51509487)
(0 -0.010242167 0.51664648)
(0 -0.011798667 0.51857292)
(0 -0.013435316 0.52096239)
(0 -0.015159951 0.52393222)
(0 -0.016973734 0.52763291)
(0 -0.018888291 0.53234417)
(0 -0.020967406 0.53915901)
(0 -0.02353689 0.55089383)
(0 -0.026508631 0.56496046)
(0 -0.025676274 0.54632132)
(0 -0.015298022 0.41864428)
(0 0.00057406854 0.14944751)
(0 -0.0010856502 0.13172295)
(0 0.011624033 0.39143202)
(0 0.025193406 0.54230453)
(0 0.028554203 0.57697275)
(0 0.026047247 0.56375907)
(0 0.023258328 0.54840445)
(0 0.021124094 0.53927989)
(0 0.019239434 0.53337925)
(0 0.017446432 0.52885364)
(0 0.015720515 0.52521633)
(0 0.014067888 0.52227865)
(0 0.012485467 0.51989812)
(0 0.010968226 0.51796548)
(0 0.0095107261 0.51639927)
(0 0.0081065704 0.5151383)
(0 0.0067488754 0.51413632)
(0 0.0054303724 0.51335841)
(0 0.00414354 0.51277861)
(0 0.0028807152 0.51237822)
(0 0.0016341548 0.51214473)
(0 0.00039607876 0.51207105)
(0 -0.00084128552 0.51215516)
(0 -0.0020857303 0.51240002)
(0 -0.0033449788 0.5128137)
(0 -0.0046267142 0.51340986)
(0 -0.0059385019 0.5142085)
(0 -0.0072877238 0.51523727)
(0 -0.0086814532 0.51653322)
(0 -0.010126393 0.51814553)
(0 -0.011628517 0.52013953)
(0 -0.013193037 0.52260243)
(0 -0.014824614 0.52564922)
(0 -0.016521177 0.52942979)
(0 -0.018294691 0.53426719)
(0 -0.020229165 0.54141014)
(0 -0.022610967 0.55345692)
(0 -0.025069519 0.56562755)
(0 -0.023368386 0.54024381)
(0 -0.012784516 0.40604125)
(0 0.00075924819 0.14301404)
(0 -0.00094381547 0.12740076)
(0 0.0097199229 0.37926478)
(0 0.022896844 0.53437434)
(0 0.026976525 0.57629308)
(0 0.025113576 0.56613138)
(0 0.022525719 0.55075722)
(0 0.020498959 0.54121706)
(0 0.018741251 0.53515222)
(0 0.017065166 0.53055817)
(0 0.015437383 0.52685959)
(0 0.013865077 0.52385996)
(0 0.012347013 0.52141996)
(0 0.010880232 0.51943183)
(0 0.0094612169 0.51781498)
(0 0.0080854569 0.51650894)
(0 0.0067478605 0.51546802)
(0 0.0054428196 0.51465771)
(0 0.0041643525 0.51405231)
(0 0.0029062258 0.51363332)
(0 0.0016620406 0.5133883)
(0 0.00042530159 0.51331024)
(0 -0.00081050388 0.5133971)
(0 -0.0020518993 0.51365181)
(0 -0.0033053028 0.51408237)
(0 -0.00457702 0.51470227)
(0 -0.0058731357 0.51553134)
(0 -0.0071994281 0.51659685)
(0 -0.0085612203 0.51793542)
(0 -0.0099633104 0.51959559)
(0 -0.011409676 0.52164188)
(0 -0.012903344 0.52416034)
(0 -0.014446698 0.52726353)
(0 -0.016035894 0.53110355)
(0 -0.017685759 0.5360561)
(0 -0.019498363 0.54350229)
(0 -0.021704116 0.55567794)
(0 -0.023674131 0.56563323)
(0 -0.021276437 0.53383651)
(0 -0.010731836 0.3944292)
(0 0.00080505167 0.13776005)
(0 -0.00077521866 0.12377439)
(0 0.0082539568 0.36821632)
(0 0.02087234 0.5264022)
(0 0.025497006 0.57501909)
(0 0.024224808 0.56812549)
(0 0.021831468 0.5529607)
(0 0.019891908 0.54304488)
(0 0.01823845 0.53681297)
(0 0.016663951 0.53216081)
(0 0.015124822 0.52841681)
(0 0.013627264 0.52537031)
(0 0.012171082 0.52288436)
(0 0.01075471 0.52085265)
(0 0.009375963 0.51919544)
(0 0.0080317497 0.51785298)
(0 0.0067183991 0.51678022)
(0 0.0054316774 0.51594311)
(0 0.0041669227 0.51531633)
(0 0.0029191623 0.51488162)
(0 0.0016832093 0.51462671)
(0 0.00045374437 0.51454466)
(0 -0.00077458373 0.51463344)
(0 -0.0020071291 0.51489593)
(0 -0.0032491179 0.51533999)
(0 -0.004505617 0.51597893)
(0 -0.0057814097 0.51683223)
(0 -0.0070809036 0.51792677)
(0 -0.0084079795 0.51929859)
(0 -0.0097659261 0.5209955)
(0 -0.011157222 0.5230812)
(0 -0.012583339 0.52564047)
(0 -0.014045141 0.52878375)
(0 -0.015538318 0.53266888)
(0 -0.017082273 0.53773115)
(0 -0.018793249 0.54545194)
(0 -0.020833899 0.5575793)
(0 -0.022349035 0.5650824)
(0 -0.019405542 0.52726139)
(0 -0.0090772151 0.38376762)
(0 0.00076798442 0.13341312)
(0 -0.000607846 0.12065358)
(0 0.0071269445 0.35817778)
(0 0.019091878 0.51850026)
(0 0.024121519 0.57325975)
(0 0.02338341 0.56977076)
(0 0.021180039 0.55502781)
(0 0.019313039 0.5447838)
(0 0.017743744 0.53837981)
(0 0.016256222 0.53367414)
(0 0.014796096 0.52989609)
(0 0.01336698 0.52681446)
(0 0.01196911 0.52429339)
(0 0.010601798 0.52222792)
(0 0.0092637171 0.520539)
(0 0.0079528023 0.51916756)
(0 0.0066664744 0.51806914)
(0 0.0054016072 0.51721021)
(0 0.0041546428 0.51656582)
(0 0.0029216939 0.51611801)
(0 0.0016986396 0.51585468)
(0 0.00048120979 0.51576899)
(0 -0.00073490347 0.51585894)
(0 -0.0019540044 0.51612733)
(0 -0.0031802582 0.51658188)
(0 -0.0044176465 0.51723562)
(0 -0.0056698373 0.51810771)
(0 -0.0069400985 0.51922454)
(0 -0.0082311562 0.52062156)
(0 -0.0095451459 0.52234588)
(0 -0.010883474 0.52446037)
(0 -0.01224657 0.52704864)
(0 -0.013634405 0.5302196)
(0 -0.015043309 0.53414066)
(0 -0.01649825 0.53931086)
(0 -0.018124612 0.54727346)
(0 -0.020010041 0.55918545)
(0 -0.021108706 0.5640698)
(0 -0.017746461 0.52063912)
(0 -0.007755943 0.37399362)
(0 0.00068645779 0.12975792)
(0 -0.00045661822 0.11790309)
(0 0.0062563028 0.34903967)
(0 0.017525324 0.51074501)
(0 0.022848179 0.57110639)
(0 0.022588025 0.57109518)
(0 0.020571611 0.55696796)
(0 0.018767399 0.54644995)
(0 0.017265254 0.53986891)
(0 0.015851424 0.53511007)
(0 0.014461048 0.5313056)
(0 0.013093912 0.52819771)
(0 0.011750234 0.52565002)
(0 0.01042981 0.52355869)
(0 0.0091318153 0.52184521)
(0 0.0078548904 0.52045105)
(0 0.0065972689 0.51933226)
(0 0.0053566952 0.5184558)
(0 0.0041305144 0.5177971)
(0 0.0029157532 0.51733848)
(0 0.0017092082 0.51706804)
(0 0.00050752457 0.51697905)
(0 -0.00069269027 0.51706951)
(0 -0.0018948195 0.51734214)
(0 -0.0031021059 0.51780451)
(0 -0.0043176018 0.51846939)
(0 -0.0055440426 0.51935556)
(0 -0.0067837722 0.52048895)
(0 -0.0080386205 0.52190444)
(0 -0.0093098757 0.5236485)
(0 -0.010598225 0.52578328)
(0 -0.01190346 0.52839135)
(0 -0.013225149 0.53158095)
(0 -0.01456117 0.53553295)
(0 -0.015942413 0.54081124)
(0 -0.017497783 0.54897892)
(0 -0.019236557 0.56052107)
(0 -0.019958599 0.5626782)
(0 -0.016281926 0.51405725)
(0 -0.006706809 0.36503371)
(0 0.00058565 0.12662794)
(0 -0.00032800084 0.11542866)
(0 0.0055762942 0.3406981)
(0 0.016143739 0.50318654)
(0 0.021670708 0.56863473)
(0 0.021835274 0.57212483)
(0 0.020003789 0.55878778)
(0 0.018256561 0.54805553)
(0 0.016807719 0.54129401)
(0 0.015455913 0.53647936)
(0 0.014126763 0.53265311)
(0 0.012815372 0.52952546)
(0 0.011521594 0.52695769)
(0 0.010245425 0.52484674)
(0 0.0089862802 0.52311447)
(0 0.0077432594 0.52170273)
(0 0.0065151781 0.52056801)
(0 0.005300448 0.51967767)
(0 0.0040971371 0.51900749)
(0 0.0029030264 0.51854004)
(0 0.0017156859 0.51826364)
(0 0.00053254316 0.51817163)
(0 -0.00064900833 0.51826202)
(0 -0.0018315607 0.51853748)
(0 -0.003017572 0.51900539)
(0 -0.0042093161 0.51967828)
(0 -0.0054087663 0.52057457)
(0 -0.0066175365 0.52171976)
(0 -0.0078367834 0.52314822)
(0 -0.0090672022 0.52490588)
(0 -0.010309038 0.52705431)
(0 -0.011561761 0.52967524)
(0 -0.012824904 0.5328773)
(0 -0.014098582 0.53685849)
(0 -0.015419452 0.54224566)
(0 -0.01691423 0.55057828)
(0 -0.018513548 0.56160991)
(0 -0.018898001 0.56097808)
(0 -0.014991104 0.50757724)
(0 -0.0058752136 0.35681127)
(0 0.00048130505 0.12389648)
(0 -0.00022332587 0.11316589)
(0 0.0050364356 0.33305811)
(0 0.014921023 0.49585576)
(0 0.020580857 0.56590725)
(0 0.021121013 0.57288361)
(0 0.019472837 0.56049173)
(0 0.017779845 0.54960934)
(0 0.016373471 0.54266649)
(0 0.015073713 0.53779152)
(0 0.013798163 0.53394572)
(0 0.012536733 0.53080292)
(0 0.011288646 0.52821999)
(0 0.010053897 0.52609423)
(0 0.0088319606 0.52434775)
(0 0.0076222099 0.5229226)
(0 0.0064238595 0.5217756)
(0 0.0052358181 0.52087441)
(0 0.0040567205 0.52019512)
(0 0.0028849581 0.51972055)
(0 0.0017187402 0.51943915)
(0 0.0005561499 0.51934437)
(0 -0.00060475693 0.51943423)
(0 -0.001765907 0.51971132)
(0 -0.0029291044 0.52018287)
(0 -0.0040959846 0.52086115)
(0 -0.0052679123 0.5217643)
(0 -0.0064459402 0.52291743)
(0 -0.0076307389 0.52435446)
(0 -0.0088226135 0.52612094)
(0 -0.01002158 0.52827798)
(0 -0.011227013 0.53090674)
(0 -0.012438692 0.53411744)
(0 -0.013659436 0.53812838)
(0 -0.014931121 0.54362487)
(0 -0.016372856 0.55207942)
(0 -0.017838677 0.56247402)
(0 -0.017922392 0.55902849)
(0 -0.013852489 0.50124066)
(0 -0.0052144871 0.3492512)
(0 0.00038262913 0.12146872)
(0 -0.00014106454 0.11107137)
(0 0.0045990708 0.32603508)
(0 0.013834496 0.48876997)
(0 0.019569951 0.56297545)
(0 0.020441112 0.57339333)
(0 0.018974536 0.5620827)
(0 0.017335255 0.55111733)
(0 0.015963206 0.54399549)
(0 0.014707144 0.5390547)
(0 0.013478509 0.53518981)
(0 0.012261824 0.53203494)
(0 0.011055463 0.52944043)
(0 0.0098592753 0.52730353)
(0 0.0086726859 0.52554639)
(0 0.0074952041 0.52411116)
(0 0.0063263017 0.5229548)
(0 0.0051652475 0.52204526)
(0 0.0040111103 0.52135883)
(0 0.0028627656 0.52087853)
(0 0.0017189416 0.52059297)
(0 0.0005782602 0.52049565)
(0 -0.00056067566 0.5205846)
(0 -0.0016992437 0.52086234)
(0 -0.002838714 0.52133595)
(0 -0.0039802093 0.52201753)
(0 -0.0051246201 0.52292491)
(0 -0.006272581 0.5240829)
(0 -0.0074244273 0.5255251)
(0 -0.0085802316 0.52729675)
(0 -0.0097399335 0.5294587)
(0 -0.010902976 0.53209181)
(0 -0.012069588 0.5353092)
(0 -0.013245563 0.53935206)
(0 -0.014477156 0.54495715)
(0 -0.015871008 0.55348843)
(0 -0.017208263 0.56313338)
(0 -0.017025186 0.55687835)
(0 -0.012845637 0.49507422)
(0 -0.0046860841 0.34228281)
(0 0.00029445224 0.11927488)
(0 -7.830739e-05 0.10911608)
(0 0.0042367834 0.31955493)
(0 0.012864872 0.48193707)
(0 0.01862977 0.55988206)
(0 0.019791858 0.57367392)
(0 0.018504713 0.56356254)
(0 0.016920137 0.5525832)
(0 0.015576574 0.54528819)
(0 0.014357328 0.54027584)
(0 0.013169832 0.53639094)
(0 0.011993277 0.5332259)
(0 0.010825003 0.53062237)
(0 0.0096646144 0.52847704)
(0 0.0085114219 0.52671196)
(0 0.0073649778 0.52526921)
(0 0.0062249047 0.52410585)
(0 0.0050907222 0.52318995)
(0 0.0039618236 0.52249799)
(0 0.0028374603 0.52201313)
(0 0.0017167736 0.52172408)
(0 0.00059881985 0.52162441)
(0 -0.00051735506 0.52171216)
(0 -0.001632685 0.52198977)
(0 -0.0027480123 0.52246421)
(0 -0.0038640577 0.5231474)
(0 -0.0049813516 0.52405695)
(0 -0.0061002278 0.52521743)
(0 -0.0072208059 0.52666222)
(0 -0.0083430431 0.52843637)
(0 -0.0094669065 0.53060061)
(0 -0.010592022 0.53323587)
(0 -0.011719214 0.5364594)
(0 -0.012857345 0.54053728)
(0 -0.014056002 0.54624866)
(0 -0.015405212 0.55480991)
(0 -0.016618053 0.56360592)
(0 -0.016198944 0.55456799)
(0 -0.011952054 0.48909388)
(0 -0.0042590688 0.33584144)
(0 0.0002187579 0.11726435)
(0 -3.1687822e-05 0.10728042)
(0 0.0039300051 0.31355352)
(0 0.011995959 0.47535857)
(0 0.017752963 0.55666269)
(0 0.019170125 0.57374371)
(0 0.018059532 0.56493254)
(0 0.01653161 0.55400892)
(0 0.015212593 0.54655007)
(0 0.014024574 0.54146067)
(0 0.012873273 0.53755392)
(0 0.011732817 0.5343797)
(0 0.010599349 0.5317689)
(0 0.009472161 0.52961709)
(0 0.0083504179 0.5278461)
(0 0.0072336531 0.52639782)
(0 0.0061215621 0.52522928)
(0 0.0050138311 0.52430861)
(0 0.0039100885 0.5236124)
(0 0.0028098717 0.52312392)
(0 0.0017126431 0.52283195)
(0 0.00061780334 0.52273012)
(0 -0.0004752509 0.52281644)
(0 -0.0015671017 0.52309331)
(0 -0.0026582567 0.52356762)
(0 -0.0037491286 0.52425112)
(0 -0.0048399828 0.52516127)
(0 -0.0059309464 0.52632246)
(0 -0.0070220148 0.52776795)
(0 -0.0081131139 0.52954272)
(0 -0.0092043047 0.53170751)
(0 -0.01029547 0.53434365)
(0 -0.011388135 0.53757388)
(0 -0.012494183 0.54169026)
(0 -0.01366535 0.54750371)
(0 -0.014971681 0.55604728)
(0 -0.016063735 0.56390767)
(0 -0.015436181 0.55213064)
(0 -0.011155548 0.48330782)
(0 -0.003909205 0.32986902)
(0 0.00015575116 0.11540082)
(0 2.0763531e-06 0.10555077)
(0 0.0036649748 0.30797567)
(0 0.011214235 0.46903171)
(0 0.016933187 0.55334723)
(0 0.018573387 0.57361974)
(0 0.017635636 0.5661938)
(0 0.016166827 0.55539522)
(0 0.01486994 0.5477852)
(0 0.013708656 0.54261397)
(0 0.012589344 0.53868287)
(0 0.011481494 0.53549977)
(0 0.01037991 0.53288283)
(0 0.0092835213 0.53072592)
(0 0.0081913409 0.52895049)
(0 0.0071028427 0.52749816)
(0 0.0060177408 0.52632583)
(0 0.004935824 0.52540163)
(0 0.0038568849 0.52470219)
(0 0.0027806718 0.52421084)
(0 0.0017068919 0.52391642)
(0 0.00063521159 0.52381258)
(0 -0.00043469971 0.52389733)
(0 -0.001503152 0.52417302)
(0 -0.0025703975 0.52464646)
(0 -0.0036366193 0.5253293)
(0 -0.0047018952 0.52623889)
(0 -0.0057662196 0.52739951)
(0 -0.0068295309 0.52884437)
(0 -0.0078917821 0.5306185)
(0 -0.0089531653 0.53278277)
(0 -0.010013867 0.53541931)
(0 -0.011076189 0.53865753)
(0 -0.012154864 0.54281591)
(0 -0.013302527 0.54872518)
(0 -0.014566654 0.55720311)
(0 -0.015541248 0.56405299)
(0 -0.014729846 0.54959372)
(0 -0.010442246 0.47771885)
(0 -0.0036178859 0.32431415)
(0 0.00010460181 0.1136584)
(0 2.5904849e-05 0.1039172)
(0 0.003432099 0.30277412)
(0 0.010508411 0.46295093)
(0 0.016165065 0.54996093)
(0 0.017999657 0.57331787)
(0 0.017230186 0.56734746)
(0 0.015823131 0.55674199)
(0 0.014547136 0.54899656)
(0 0.013409017 0.54373964)
(0 0.012318128 0.53978133)
(0 0.011239866 0.53658911)
(0 0.01016758 0.5339667)
(0 0.0090998005 0.5318056)
(0 0.0080353912 0.53002677)
(0 0.0069737441 0.52857148)
(0 0.005914555 0.5273964)
(0 0.0048576673 0.52646961)
(0 0.0038029824 0.52576773)
(0 0.0027503993 0.52527411)
(0 0.0016998059 0.52497762)
(0 0.00065106925 0.52487192)
(0 -0.00039593528 0.524955)
(0 -0.0014413124 0.5252292)
(0 -0.0024851249 0.52570124)
(0 -0.003527391 0.52638273)
(0 -0.0045680623 0.52729094)
(0 -0.0056070567 0.52845011)
(0 -0.0066443044 0.52989346)
(0 -0.0076798226 0.53166618)
(0 -0.0087139523 0.53382938)
(0 -0.0097472086 0.53646638)
(0 -0.010782725 0.53971438)
(0 -0.011837827 0.54391796)
(0 -0.012964758 0.54991482)
(0 -0.014186599 0.5582794)
(0 -0.015046952 0.56405478)
(0 -0.014073588 0.54697997)
(0 -0.009800423 0.47232604)
(0 -0.0033710667 0.31913172)
(0 6.3950857e-05 0.11201864)
(0 4.2246819e-05 0.10237199)
(0 0.0032246966 0.29790833)
(0 0.0098690294 0.45710894)
(0 0.015444067 0.5465252)
(0 0.017447397 0.57285301)
(0 0.01684084 0.56839487)
(0 0.01549812 0.55804856)
(0 0.014242667 0.55018618)
(0 0.013124909 0.54484087)
(0 0.012059421 0.5408523)
(0 0.01100814 0.53765033)
(0 0.0099628718 0.53502276)