/*--------------------------------*- C++ -*----------------------------------*\
  =========                 |
  \\      /  F ield         | OpenFOAM: The Open Source CFD Toolbox
   \\    /   O peration     | Website:  https://openfoam.org
    \\  /    A nd           | Version:  10
     \\/     M anipulation  |
\*---------------------------------------------------------------------------*/
FoamFile
{
    format      ascii;
    class       surfaceScalarField;
    location    "0.24";
    object      phi;
}
// * * * * * * * * * * * * * * * * * * * * * * * * * * * * * * * * * * * * * //

dimensions      [1 0 -1 0 0 0 0];

internalField   nonuniform List<scalar> 
7860
(
3.9895995e-08
5.2881204e-07
1.2192733e-08
5.9641106e-07
7.4279137e-09
5.7347257e-07
5.4994356e-09
5.7063619e-07
4.115014e-09
5.700921e-07
3.2011606e-09
5.6962151e-07
2.5591654e-09
5.6934963e-07
2.0793353e-09
5.6918745e-07
1.709342e-09
5.690776e-07
1.4166618e-09
5.6900028e-07
1.1794995e-09
5.6894476e-07
9.8309217e-10
5.6890399e-07
8.1709626e-10
5.6887358e-07
6.7402162e-10
5.6885065e-07
5.4829517e-10
5.688333e-07
4.3565635e-10
5.6882021e-07
3.3275159e-10
5.6881047e-07
2.3685368e-10
5.6880346e-07
1.4565976e-10
5.6879876e-07
5.7138961e-11
5.6879608e-07
-3.0591407e-11
5.6879529e-07
-1.1937345e-10
5.6879634e-07
-2.111134e-10
5.687993e-07
-3.0788857e-10
5.6880434e-07
-4.1207949e-10
5.6881176e-07
-5.26533e-10
5.6882202e-07
-6.5478289e-10
5.6883582e-07
-8.0136282e-10
5.6885416e-07
-9.7226682e-10
5.6887848e-07
-1.1756561e-09
5.6891097e-07
-1.423032e-09
5.6895497e-07
-1.7312058e-09
5.6901577e-07
-2.1251557e-09
5.6910156e-07
-2.644763e-09
5.6922723e-07
-3.3724414e-09
5.6943531e-07
-4.463742e-09
5.6979896e-07
-6.0090704e-09
5.7025301e-07
-9.5080693e-09
5.7220671e-07
-2.9575912e-08
5.887756e-07
5.3913202e-07
5.9672521e-08
4.6913952e-07
3.6665985e-08
6.194176e-07
2.2628168e-08
5.8751038e-07
1.6253584e-08
5.7701077e-07
1.2290527e-08
5.7405516e-07
9.6062808e-09
5.7230575e-07
7.6775031e-09
5.7127841e-07
6.2361586e-09
5.706288e-07
5.1266506e-09
5.7018711e-07
4.2489068e-09
5.6987802e-07
3.5375923e-09
5.6965607e-07
2.9485386e-09
5.6949305e-07
2.4507002e-09
5.6937141e-07
2.021602e-09
5.6927975e-07
1.6445291e-09
5.6921037e-07
1.3067045e-09
5.6915803e-07
9.9807071e-10
5.6911911e-07
7.1044948e-10
5.6909108e-07
4.3693508e-10
5.6907227e-07
1.7143597e-10
5.6906158e-07
-9.1694197e-11
5.6905842e-07
-3.5797859e-10
5.6906263e-07
-6.3312926e-10
5.6907445e-07
-9.233785e-10
5.6909459e-07
-1.2358653e-09
5.6912424e-07
-1.5791267e-09
5.6916528e-07
-1.9637599e-09
5.6922045e-07
-2.4033607e-09
5.6929376e-07
-2.9159122e-09
5.6939103e-07
-3.5259067e-09
5.6952097e-07
-4.2677629e-09
5.6969682e-07
-5.1918459e-09
5.6993986e-07
-6.3747802e-09
5.7028449e-07
-7.9352826e-09
5.7078773e-07
-1.0076575e-08
5.7157661e-07
-1.3204782e-08
5.7292716e-07
-1.813467e-08
5.751829e-07
-2.8176917e-08
5.8224896e-07
-4.5802867e-08
6.0640155e-07
4.9332915e-07
6.0008826e-08
4.0913069e-07
5.0487267e-08
6.2893916e-07
3.3370673e-08
6.0462698e-07
2.4817692e-08
5.8556375e-07
1.9323283e-08
5.7954956e-07
1.5331557e-08
5.7629748e-07
1.23608e-08
5.7424917e-07
1.0101658e-08
5.7288794e-07
8.3407546e-09
5.7194801e-07
6.934969e-09
5.7128381e-07
5.7882221e-09
5.7080282e-07
4.833749e-09
5.7044752e-07
4.0237851e-09
5.7018138e-07
3.3233449e-09
5.6998019e-07
2.7061647e-09
5.6982755e-07
2.152012e-09
5.6971218e-07
1.6448615e-09
5.6962626e-07
1.1716139e-09
5.6956433e-07
7.2116177e-10
5.6952272e-07
2.8367705e-10
5.6949907e-07
-1.4996684e-10
5.6949207e-07
-5.8870086e-10
5.6950136e-07
-1.0417535e-09
5.6952751e-07
-1.5191711e-09
5.6957201e-07
-2.0324205e-09
5.6963749e-07
-2.5951486e-09
5.6972801e-07
-3.2241938e-09
5.698495e-07
-3.9409976e-09
5.7001056e-07
-4.773654e-09
5.7022369e-07
-5.7599731e-09
5.7050729e-07
-6.9521398e-09
5.7088899e-07
-8.4243522e-09
5.7141207e-07
-1.0286008e-08
5.7214615e-07
-1.2698979e-08
5.732007e-07
-1.5896422e-08
5.7477405e-07
-2.0240225e-08
5.7727097e-07
-2.6708524e-08
5.816512e-07
-3.8948028e-08
5.9448846e-07
-4.8167244e-08
6.1562077e-07
4.451619e-07
5.4879037e-08
3.5425166e-07
5.7452163e-08
6.2636603e-07
4.0467538e-08
6.216116e-07
3.0778762e-08
5.9525253e-07
2.4643074e-08
5.8568525e-07
1.9952343e-08
5.8098821e-07
1.6313015e-08
5.7788849e-07
1.3466634e-08
5.7573432e-07
1.1201085e-08
5.7421356e-07
9.3646629e-09
5.7312023e-07
7.8494836e-09
5.72318e-07
6.5770588e-09
5.7171994e-07
5.4895425e-09
5.7126889e-07
4.5436222e-09
5.7092611e-07
3.7062035e-09
5.7066497e-07
2.9514293e-09
5.7046696e-07
2.2585824e-09
5.703191e-07
1.6105676e-09
5.7021235e-07
9.9278004e-10
5.7014051e-07
3.9222529e-10
5.7009962e-07
-2.0320384e-10
5.700875e-07
-8.0536738e-10
5.7010353e-07
-1.4264994e-09
5.7014864e-07
-2.0798623e-09
5.7022537e-07
-2.7804976e-09
5.7033813e-07
-3.5461538e-09
5.7049367e-07
-4.3984931e-09
5.7070184e-07
-5.3647253e-09
5.7097679e-07
-6.4798875e-09
5.7133885e-07
-7.7901048e-09
5.718175e-07
-9.3571569e-09
5.7245604e-07
-1.1264864e-08
5.7331978e-07
-1.3629491e-08
5.7451078e-07
-1.6612381e-08
5.7618359e-07
-2.0411307e-08
5.7857298e-07
-2.5292942e-08
5.821526e-07
-3.2517219e-08
5.8887547e-07
-4.5100846e-08
6.0707209e-07
-4.654931e-08
6.1706923e-07
3.9861259e-07
4.7965738e-08
3.0628592e-07
6.0076495e-08
6.1425528e-07
4.5400124e-08
6.3628797e-07
3.4875346e-08
6.057773e-07
2.8399864e-08
5.9216073e-07
2.3419645e-08
5.8596843e-07
1.9434349e-08
5.8187379e-07
1.6229236e-08
5.7893943e-07
1.3619792e-08
5.7682301e-07
1.1466609e-08
5.7527341e-07
9.6645627e-09
5.7412004e-07
8.1336119e-09
5.732509e-07
6.8127339e-09
5.7258977e-07
5.6549167e-09
5.7208393e-07
4.6233854e-09
5.716965e-07
3.6888537e-09
5.7140149e-07
2.8274831e-09
5.7118047e-07
2.0193444e-09
5.7102048e-07
1.2472329e-09
5.7091262e-07
4.9572357e-10
5.7085113e-07
-2.4962243e-10
5.7083284e-07
-1.0029671e-09
5.7085687e-07
-1.7788866e-09
5.7092456e-07
-2.5930931e-09
5.7103958e-07
-3.4632517e-09
5.7120829e-07
-4.409963e-09
5.7144038e-07
-5.4580044e-09
5.7174988e-07
-6.6379387e-09
5.7215673e-07
-7.988241e-09
5.7268916e-07
-9.5581731e-09
5.7338744e-07
-1.1411558e-08
5.7430943e-07
-1.3631207e-08
5.7553942e-07
-1.632542e-08
5.7720499e-07
-1.96378e-08
5.7949597e-07
-2.373861e-08
5.8267378e-07
-2.8930765e-08
5.8734475e-07
-3.6791054e-08
5.9673576e-07
-4.8463681e-08
6.1874471e-07
-4.319415e-08
6.117997e-07
3.5541844e-07
4.0336019e-08
2.6594991e-07
5.8994056e-08
5.9559725e-07
4.8330075e-08
6.4695195e-07
3.7588086e-08
6.1651929e-07
3.0928921e-08
5.988199e-07
2.5894061e-08
5.9100329e-07
2.1780102e-08
5.8598775e-07
1.8392191e-08
5.8232734e-07
1.5577672e-08
5.7963753e-07
1.3214496e-08
5.7763659e-07
1.1206723e-08
5.7612781e-07
9.479063e-09
5.7497856e-07
7.9723727e-09
5.7409646e-07
6.6397486e-09
5.7341655e-07
5.4435641e-09
5.7289269e-07
4.3532017e-09
5.7249185e-07
3.3432738e-09
5.721904e-07
2.3922226e-09
5.7197154e-07
1.4812028e-09
5.7182364e-07
5.9316055e-10
5.7173917e-07
-2.8795671e-10
5.7171396e-07
-1.1779176e-09
5.7174683e-07
-2.0929096e-09
5.7183955e-07
-3.0502674e-09
5.7199693e-07
-4.0692782e-09
5.722273e-07
-5.1721288e-09
5.7254323e-07
-6.3850568e-09
5.7296281e-07
-7.7397847e-09
5.7351145e-07
-9.2753188e-09
5.7422469e-07
-1.1040256e-08
5.7515237e-07
-1.3095816e-08
5.7636499e-07
-1.5519264e-08
5.7796287e-07
-1.8408e-08
5.8009373e-07
-2.1886198e-08
5.8297417e-07
-2.6109643e-08
5.8689723e-07
-3.1487851e-08
5.9272296e-07
-3.9654199e-08
6.0490211e-07
-4.917205e-08
6.2826257e-07
-3.8578285e-08
6.0120593e-07
3.1684016e-07
3.2862664e-08
2.3308725e-07
5.5249955e-08
5.7320996e-07
4.9232205e-08
6.529697e-07
3.9061495e-08
6.2669e-07
3.2430675e-08
6.0545072e-07
2.7518822e-08
5.9591514e-07
2.3438812e-08
5.9006776e-07
2.0003072e-08
5.8576308e-07
1.7095051e-08
5.8254555e-07
1.4612525e-08
5.8011912e-07
1.2471705e-08
5.7826863e-07
1.0605343e-08
5.7684492e-07
8.9591976e-09
5.7574261e-07
7.4890764e-09
5.7488667e-07
6.1586499e-09
5.7422311e-07
4.9376924e-09
5.7371281e-07
3.8006396e-09
5.7332745e-07
2.7254112e-09
5.7304676e-07
1.6924355e-09
5.7285662e-07
6.8381755e-10
5.7274779e-07
-3.1739216e-10
5.7271517e-07
-1.3278724e-09
5.7275731e-07
-2.3646973e-09
5.7287637e-07
-3.4460189e-09
5.7307825e-07
-4.5918094e-09
5.7337309e-07
-5.8247081e-09
5.7377613e-07
-7.1710184e-09
5.7430912e-07
-8.6619088e-09
5.7500234e-07
-1.0334863e-08
5.7589764e-07
-1.2235455e-08
5.7705297e-07
-1.4419741e-08
5.7854927e-07
-1.6957146e-08
5.8050028e-07
-1.9932513e-08
5.8306909e-07
-2.3446619e-08
5.8648828e-07
-2.7640886e-08
5.910915e-07
-3.303373e-08
5.9811581e-07
-4.1010055e-08
6.1287843e-07
-4.7687196e-08
6.3493971e-07
-3.3375825e-08
5.8689456e-07
2.8346433e-07
2.6188951e-08
2.0689831e-07
5.0132606e-08
5.4926632e-07
4.8493477e-08
6.5460883e-07
3.9490989e-08
6.3569249e-07
3.3077434e-08
6.1186427e-07
2.8412072e-08
6.005805e-07
2.4493022e-08
5.9398681e-07
2.1118425e-08
5.8913768e-07
1.8207399e-08
5.8545657e-07
1.5680717e-08
5.826458e-07
1.3469242e-08
5.8048011e-07
1.1515795e-08
5.7879836e-07
9.7728615e-09
5.7748554e-07
8.2006509e-09
5.7645888e-07
6.7656321e-09
5.7565813e-07
5.4392605e-09
5.7503918e-07
4.1968892e-09
5.7456982e-07
3.0168466e-09
5.7422681e-07
1.8796381e-09
5.7399383e-07
7.6724327e-10
5.7386019e-07
-3.3752058e-10
5.7381993e-07
-1.4515944e-09
5.7387138e-07
-2.59227e-09
5.7401705e-07
-3.7777932e-09
5.7426378e-07
-5.0280061e-09
5.746233e-07
-6.3650623e-09
5.7511318e-07
-7.8142389e-09
5.7575829e-07
-9.4048839e-09
5.7659299e-07
-1.1171524e-08
5.7766428e-07
-1.3155133e-08
5.7903657e-07
-1.5404782e-08
5.8079892e-07
-1.7979756e-08
5.8307525e-07
-2.0949509e-08
5.8603885e-07
-2.4389231e-08
5.89928e-07
-2.8434456e-08
5.9513672e-07
-3.3690422e-08
6.0337177e-07
-4.1061717e-08
6.2024973e-07
-4.4796452e-08
6.3867444e-07
-2.8204065e-08
5.7030217e-07
2.5526027e-07
2.0570842e-08
1.8632748e-07
4.4583045e-08
5.2525413e-07
4.6642764e-08
6.5254912e-07
3.9153063e-08
6.4318219e-07
3.3083755e-08
6.1793358e-07
2.8717631e-08
6.0494663e-07
2.5038249e-08
5.9766619e-07
2.1803993e-08
5.9237193e-07
1.8959545e-08
5.8830102e-07
1.6448854e-08
5.8515649e-07
1.4218419e-08
5.8271054e-07
1.222206e-08
5.8079472e-07
1.0419996e-08
5.7928761e-07
8.7778683e-09
5.7810101e-07
7.2659239e-09
5.7717007e-07
5.8581958e-09
5.7644691e-07
4.5317664e-09
5.7589625e-07
3.2661009e-09
5.7549247e-07
2.042441e-09
5.7521749e-07
8.4324738e-10
5.7505938e-07
-3.4832018e-10
5.750115e-07
-1.5488989e-09
5.7507196e-07
-2.7754205e-09
5.7524357e-07
-4.0456123e-09
5.7553397e-07
-5.3785216e-09
5.7595621e-07
-6.7950821e-09
5.7652974e-07
-8.3187306e-09
5.7728194e-07
-9.9760922e-09
5.7825035e-07
-1.1797747e-08
5.7948594e-07
-1.3819025e-08
5.8105785e-07
-1.6080915e-08
5.8306081e-07
-1.8631268e-08
5.856256e-07
-2.152319e-08
5.8893077e-07
-2.48107e-08
5.9321551e-07
-2.8640016e-08
5.9896604e-07
-3.3658463e-08
6.0839022e-07
-4.0142505e-08
6.2673377e-07
-4.1157881e-08
6.3968982e-07
-2.3416384e-08
5.5256068e-07
2.3184388e-07
1.60154e-08
1.703121e-07
3.91437e-08
5.0212585e-07
4.4118305e-08
6.4757452e-07
3.8289435e-08
6.4901105e-07
3.2653769e-08
6.2356924e-07
2.8591554e-08
6.0900884e-07
2.5183664e-08
6.0107408e-07
2.2136148e-08
5.9541945e-07
1.9405112e-08
5.9103206e-07
1.6954499e-08
5.876071e-07
1.4745331e-08
5.8491971e-07
1.2742009e-08
5.8279804e-07
1.091262e-08
5.8111699e-07
9.2286437e-09
5.7978498e-07
7.6646038e-09
5.7873411e-07
6.1976529e-09
5.7791386e-07
4.8071435e-09
5.7728676e-07
3.4742017e-09
5.7682541e-07
2.1813054e-09
5.7651038e-07
9.1187642e-10
5.7632881e-07
-3.501167e-10
5.7627349e-07
-1.6205451e-09
5.7634239e-07
-2.915512e-09
5.7653854e-07
-4.2517427e-09
5.768702e-07
-5.6469843e-09
5.7735145e-07
-7.1204201e-09
5.7800318e-07
-8.693097e-09
5.7885462e-07
-1.0388364e-08
5.7994562e-07
-1.2232328e-08
5.813299e-07
-1.4254273e-08
5.830798e-07
-1.6487024e-08
5.8529356e-07
-1.8967336e-08
5.8810591e-07
-2.1733347e-08
5.9169678e-07
-2.4825534e-08
5.9630769e-07
-2.8412775e-08
6.0255328e-07
-3.3122215e-08
6.1309966e-07
-3.8547346e-08
6.321589e-07
-3.7213975e-08
6.3835644e-07
-1.9182178e-08
5.3452888e-07
2.1266171e-07
1.2423661e-08
1.5788845e-07
3.4113671e-08
4.8043587e-07
4.1249309e-08
6.4043889e-07
3.7078262e-08
6.531821e-07
3.1941605e-08
6.287059e-07
2.8168563e-08
6.1278188e-07
2.50329e-08
6.0420974e-07
2.2192135e-08
5.9826022e-07
1.9601197e-08
5.9362299e-07
1.72395e-08
5.899688e-07
1.5080412e-08
5.870788e-07
1.3097617e-08
5.8478084e-07
1.1266477e-08
5.8294813e-07
9.5641349e-09
5.8148733e-07
7.9694726e-09
5.8032878e-07
6.4629763e-09
5.7942036e-07
5.0265595e-09
5.7872318e-07
3.6433357e-09
5.7820864e-07
2.2973616e-09
5.7785636e-07
9.7336768e-10
5.776528e-07
-3.4351922e-10
5.7759038e-07
-1.6680548e-09
5.7766693e-07
-3.0151629e-09
5.7788565e-07
-4.4002171e-09
5.7825525e-07
-5.839318e-09
5.7879055e-07
-7.3495678e-09
5.7951343e-07
-8.9493292e-09
5.8045438e-07
-1.0658458e-08
5.8165474e-07
-1.249851e-08
5.8316995e-07
-1.4492908e-08
5.8507419e-07
-1.6666965e-08
5.8746762e-07
-1.9047573e-08
5.9048652e-07
-2.1660227e-08
5.9430943e-07
-2.4539123e-08
5.9918659e-07
-2.7878789e-08
6.0589294e-07
-3.2224368e-08
6.1744524e-07
-3.6518377e-08
6.3645291e-07
-3.3266004e-08
6.3510407e-07
-1.5563122e-08
5.16826e-07
1.9709858e-07
9.6570066e-09
1.4823147e-07
2.9645266e-08
4.6044764e-07
3.8282428e-08
6.3180175e-07
3.5657707e-08
6.5580682e-07
3.1058439e-08
6.3330516e-07
2.7553022e-08
6.162873e-07
2.4672521e-08
6.0709024e-07
2.2040725e-08
6.0089201e-07
1.9601666e-08
5.9606205e-07
1.7345371e-08
5.9222509e-07
1.5255225e-08
5.8916894e-07
1.3312644e-08
5.8672342e-07
1.1499292e-08
5.8476149e-07
9.79744e-09
5.8318918e-07
8.1900804e-09
5.8193614e-07
6.6609894e-09
5.8094945e-07
5.1947184e-09
5.8018945e-07
3.7765197e-09
5.7962683e-07
2.3922256e-09
5.7924065e-07
1.0280968e-09
5.7901693e-07
-3.2934748e-10
5.7894782e-07
-1.6935088e-09
5.7903109e-07
-3.0778978e-09
5.7927003e-07
-4.4963133e-09
5.7967367e-07
-5.9630133e-09
5.8025725e-07
-7.4928668e-09
5.8104328e-07
-9.1014767e-09
5.8206299e-07
-1.0805256e-08
5.8335852e-07
-1.2621457e-08
5.8498615e-07
-1.4568163e-08
5.870209e-07
-1.6664115e-08
5.8956357e-07
-1.8927793e-08
5.927502e-07
-2.1374707e-08
5.9675635e-07
-2.4038989e-08
6.0185087e-07
-2.713692e-08
6.0899087e-07
-3.1083077e-08
6.2139139e-07
-3.4259726e-08
6.3962956e-07
-2.9519109e-08
6.3036345e-07
-1.2554576e-08
4.9986147e-07
1.8454401e-07
7.5666137e-09
1.4066488e-07
2.5786148e-08
4.4222816e-07
3.5388519e-08
6.221994e-07
3.4137621e-08
6.5705772e-07
3.0087256e-08
6.3735552e-07
2.6824915e-08
6.1954964e-07
2.4172207e-08
6.0974295e-07
2.1739693e-08
6.0332453e-07
1.9453796e-08
5.9834795e-07
1.7310162e-08
5.9436873e-07
1.5299908e-08
5.911792e-07
1.3410649e-08
5.8861268e-07
1.1629268e-08
5.8654287e-07
9.942444e-09
5.84876e-07
8.3368581e-09
5.8354172e-07
6.7993515e-09
5.8248695e-07
5.3170299e-09
5.8167177e-07
3.8772957e-09
5.8106657e-07
2.4678283e-09
5.8065012e-07
1.0765286e-09
5.8040823e-07
-3.0856189e-10
5.8033291e-07
-1.6993552e-09
5.8042188e-07
-3.1078187e-09
5.806785e-07
-4.546069e-09
5.8111192e-07
-6.026451e-09
5.8173763e-07
-7.5615927e-09
5.8257842e-07
-9.1644239e-09
5.8366582e-07
-1.0848142e-08
5.8504224e-07
-1.262612e-08
5.8676413e-07
-1.4511791e-08
5.8890657e-07
-1.6518341e-08
5.9157012e-07
-1.8657371e-08
5.9488923e-07
-2.0937388e-08
5.9903636e-07
-2.3397567e-08
6.0431105e-07
-2.6267526e-08
6.1186083e-07
-2.9799406e-08
6.2492327e-07
-3.1933041e-08
6.417632e-07
-2.6095636e-08
6.2452605e-07
-1.0109892e-08
4.8387572e-07
1.7443411e-07
6.0119083e-09
1.34653e-07
2.2514534e-08
4.2572559e-07
3.2669439e-08
6.1204454e-07
3.2598442e-08
6.5712872e-07
2.908814e-08
6.4086582e-07
2.6044406e-08
6.2259337e-07
2.3587286e-08
6.1220007e-07
2.1336611e-08
6.055752e-07
1.9197774e-08
6.0048679e-07
1.7167311e-08
5.9639919e-07
1.524184e-08
5.9310467e-07
1.3413727e-08
5.9044079e-07
1.1673982e-08
5.8828261e-07
1.0012929e-08
5.8653705e-07
8.4204155e-09
5.8513423e-07
6.8860227e-09
5.8402135e-07
5.3992204e-09
5.8315857e-07
3.9494682e-09
5.8251632e-07
2.5262674e-09
5.8207332e-07
1.1191763e-09
5.8181532e-07
-2.8220064e-10
5.8173429e-07
-1.6882373e-09
5.8182792e-07
-3.1093186e-09
5.8209958e-07
-4.5558638e-09
5.8255846e-07
-6.0383342e-09
5.832201e-07
-7.5672146e-09
5.841073e-07
-9.1529571e-09
5.8525156e-07
-1.0805876e-08
5.8669516e-07
-1.2535988e-08
5.8849424e-07
-1.4352838e-08
5.9072342e-07
-1.6265117e-08
5.934824e-07
-1.8279126e-08
5.9690324e-07
-2.0399455e-08
6.0115669e-07
-2.2673872e-08
6.0658547e-07
-2.5334195e-08
6.1452116e-07
-2.8453947e-08
6.2804302e-07
-2.9652515e-08
6.4296176e-07
-2.3050849e-08
6.1792438e-07
-8.1606223e-09
4.6898549e-07
1.6627349e-07
4.8701863e-09
1.2978285e-07
1.9771875e-08
4.1082398e-07
3.0173455e-08
6.01643e-07
3.1092512e-08
6.5620967e-07
2.8100584e-08
6.4385774e-07
2.5253781e-08
6.2544017e-07
2.2959881e-08
6.1449397e-07
2.0869526e-08
6.0766556e-07
1.8866873e-08
6.0248944e-07
1.6945371e-08
5.9832069e-07
1.5105088e-08
5.9494495e-07
1.3341832e-08
5.9220405e-07
1.164972e-08
5.8997472e-07
1.0021959e-08
5.8816482e-07
8.4510212e-09
5.8670517e-07
6.9288476e-09
5.8554352e-07
5.4470182e-09
5.846404e-07
3.9968879e-09
5.8396645e-07
2.5696834e-09
5.8350052e-07
1.1565666e-09
5.8322844e-07
-2.5132477e-10
5.8314218e-07
-1.6628493e-09
5.8323944e-07
-3.0868408e-09
5.8352357e-07
-4.5320788e-09
5.840037e-07
-6.0072437e-09
5.8469527e-07
-7.5208468e-09
5.8562091e-07
-9.0811269e-09
5.8681184e-07
-1.0695907e-08
5.8830994e-07
-1.2372412e-08
5.9017075e-07
-1.4117077e-08
5.9246808e-07
-1.5935128e-08
5.9530045e-07
-1.7829098e-08
5.9879721e-07
-1.9802463e-08
6.0313006e-07
-2.1913321e-08
6.0869633e-07
-2.4383666e-08
6.169915e-07
-2.710545e-08
6.3076481e-07
-2.7490257e-08
6.4334657e-07
-2.0394116e-08
6.1082824e-07
-6.6311158e-09
4.5522249e-07
1.5964238e-07
4.039088e-09
1.2574381e-07
1.7485691e-08
3.9737746e-07
2.7914529e-08
5.9121423e-07
2.9650457e-08
6.5447375e-07
2.7147786e-08
6.4636041e-07
2.4480227e-08
6.2810773e-07
2.2320133e-08
6.1665406e-07
2.0367509e-08
6.0961818e-07
1.848766e-08
6.0436929e-07
1.6667969e-08
6.0014038e-07
1.4910181e-08
5.9670274e-07
1.3212435e-08
5.9390179e-07
1.1571074e-08
5.9161608e-07
9.981487e-09
5.897544e-07
8.4382437e-09
5.8824841e-07
6.9352513e-09
5.8704651e-07
5.4659153e-09
5.8610974e-07
4.0232835e-09
5.8540908e-07
2.600163e-09
5.8492364e-07
1.1892147e-09
5.8463938e-07
-2.1697267e-10
5.8454837e-07
-1.6258183e-09
5.8464829e-07
-3.0446898e-09
5.8494244e-07
-4.4808367e-09
5.8543985e-07
-5.9413108e-09
5.8615574e-07
-7.4328643e-09
5.8711246e-07
-8.9618231e-09
5.883408e-07
-1.0533932e-08
5.8988205e-07
-1.2154181e-08
5.91791e-07
-1.3826628e-08
5.9414053e-07
-1.5553967e-08
5.9702779e-07
-1.7336327e-08
6.0057957e-07
-1.9178379e-08
6.0497211e-07
-2.1148639e-08
6.1066659e-07
-2.344793e-08
6.1929079e-07
-2.5793674e-08
6.3311055e-07
-2.5486031e-08
6.4303893e-07
-1.8106909e-08
6.0344912e-07
-5.4470002e-09
4.4256259e-07
1.5419538e-07
3.4359373e-09
1.2230792e-07
1.5582169e-08
3.8523134e-07
2.5886046e-08
5.8091043e-07
2.8287695e-08
6.5207212e-07
2.6241613e-08
6.4840648e-07
2.373963e-08
6.3060971e-07
2.1688347e-08
6.1870535e-07
1.9851775e-08
6.1145475e-07
1.8080548e-08
6.0614051e-07
1.6354008e-08
6.0186692e-07
1.4674091e-08
5.9838266e-07
1.3040388e-08
5.955355e-07
1.1450744e-08
5.9320573e-07
9.9021272e-09
5.9130302e-07
8.3907256e-09
5.8975982e-07
6.9120373e-09
5.885252e-07
5.4610034e-09
5.8756077e-07
4.0321419e-09
5.8683794e-07
2.619669e-09
5.8633611e-07
1.2176063e-09
5.8604145e-07
-1.8012488e-10
5.859461e-07
-1.5796169e-09
5.8604778e-07
-2.9868928e-09
5.8634972e-07
-4.4078158e-09
5.8686077e-07
-5.8479905e-09
5.8759592e-07
-7.3126465e-09
5.8857712e-07
-8.8065051e-09
5.8983466e-07
-1.0333634e-08
5.9140918e-07
-1.18973e-08
5.9335466e-07
-1.349983e-08
5.9574306e-07
-1.5142177e-08
5.9867014e-07
-1.6823235e-08
6.0226063e-07
-1.8550616e-08
6.0669949e-07
-2.0402056e-08
6.1251803e-07
-2.2547483e-08
6.2143622e-07
-2.4543482e-08
6.3510655e-07
-2.3656675e-08
6.4215212e-07
-1.6155249e-08
5.9594769e-07
-4.5398642e-09
4.309472e-07
1.4965551e-07
2.9961031e-09
1.1931188e-07
1.3992843e-08
3.7423473e-07
2.4070146e-08
5.7083323e-07
2.700938e-08
6.4913292e-07
2.5386449e-08
6.5002941e-07
2.3040012e-08
6.3295614e-07
2.1077382e-08
6.2066797e-07
1.9337199e-08
6.1319494e-07
1.7660716e-08
6.07817e-07
1.6018163e-08
6.0350948e-07
1.4410467e-08
5.9999035e-07
1.283798e-08
5.9710798e-07
1.129949e-08
5.9474422e-07
9.793056e-09
5.9280945e-07
8.3160662e-09
5.9123681e-07
6.8652709e-09
5.8997599e-07
5.4368715e-09
5.8898917e-07
4.0266324e-09
5.8824818e-07
2.6299953e-09
5.8773275e-07
1.2421869e-09
5.8742926e-07
-1.4167865e-10
5.8732996e-07
-1.5265028e-09
5.874326e-07
-2.9171065e-09
5.8774032e-07
-4.3181296e-09
5.8826179e-07
-5.7339234e-09
5.8901171e-07
-7.1684331e-09
5.9001163e-07
-8.6250719e-09
5.912913e-07
-1.0106597e-08
5.928907e-07
-1.1615002e-08
5.9486307e-07
-1.3151417e-08
5.9727948e-07
-1.4715707e-08
6.0023443e-07
-1.6306504e-08
6.0385142e-07
-1.7935549e-08
6.0832853e-07
-1.9687674e-08
6.1427015e-07
-2.1694193e-08
6.2344274e-07
-2.3368363e-08
6.3678072e-07
-2.2003365e-08
6.4078712e-07
-1.4498099e-08
5.8844243e-07
-3.8498095e-09
4.2029891e-07
1.458057e-07
2.6707469e-09
1.1664121e-07
1.2657967e-08
3.6424767e-07
2.2444084e-08
5.6104725e-07
2.5814153e-08
6.4576289e-07
2.4581903e-08
6.5126165e-07
2.2384086e-08
6.3515394e-07
2.0494649e-08
6.2255741e-07
1.8833758e-08
6.1485583e-07
1.7239106e-08
6.0941165e-07
1.5671536e-08
6.0507705e-07
1.413002e-08
6.0153187e-07
1.2615144e-08
5.9862286e-07
1.1126225e-08
5.9623314e-07
9.6620248e-09
5.9427365e-07
8.2207914e-09
5.9267804e-07
6.8002316e-09
5.9139655e-07
5.3975568e-09
5.9039185e-07
4.0095657e-09
5.8963617e-07
2.6327424e-09
5.8910957e-07
1.2633576e-09
5.8879864e-07
-1.024314e-10
5.8869575e-07
-1.4684813e-09
5.8879865e-07
-2.8385639e-09
5.891104e-07
-4.2162636e-09
5.8963949e-07
-5.6048719e-09
5.9040032e-07
-7.0072769e-09
5.9141403e-07
-8.4258547e-09
5.9270988e-07
-9.8623731e-09
5.9432722e-07
-1.131793e-08
5.9631863e-07
-1.2792888e-08
5.9875443e-07
-1.4286546e-08
6.0172808e-07
-1.5798055e-08
6.0536293e-07
-1.7343947e-08
6.0987442e-07
-1.9013431e-08
6.1593964e-07
-2.0893555e-08
6.2532286e-07
-2.2273456e-08
6.3816062e-07
-2.0517403e-08
6.3903107e-07
-1.3092952e-08
5.8101797e-07
-3.3264299e-09
4.1053239e-07
1.4247927e-07
2.424128e-09
1.1421717e-07
1.1527629e-08
3.5514435e-07
2.0984305e-08
5.5159073e-07
2.4697029e-08
6.4205023e-07
2.3824802e-08
6.5213388e-07
2.1771145e-08
6.3720759e-07
1.9943681e-08
6.2438487e-07
1.8347733e-08
6.1645178e-07
1.6823332e-08
6.1093605e-07
1.5322302e-08
6.0657808e-07
1.3840962e-08
6.0301321e-07
1.2379736e-08
6.0008408e-07
1.0938174e-08
5.976747e-07
9.515447e-09
5.9569638e-07
8.1103894e-09
5.940831e-07
6.7214185e-09
5.9278553e-07
5.3465365e-09
5.9176673e-07
3.9833824e-09
5.9099933e-07
2.6293098e-09
5.9046365e-07
1.2814748e-09
5.9014648e-07
-6.3071646e-11
5.900403e-07
-1.4072892e-09
5.9014287e-07
-2.7540533e-09
5.9045717e-07
-4.1060577e-09
5.909915e-07
-5.4657171e-09
5.9175998e-07
-6.835071e-09
5.9278338e-07
-8.2156962e-09
5.940905e-07
-9.6086433e-09
5.9572017e-07
-1.1014418e-08
5.977244e-07
-1.2432952e-08
6.0017297e-07
-1.3863378e-08
6.0315851e-07
-1.5305958e-08
6.0680551e-07
-1.6782225e-08
6.1135069e-07
-1.8382746e-08
6.1754016e-07
-2.0146575e-08
6.2708669e-07
-2.1258219e-08
6.3927226e-07
-1.918475e-08
6.369576e-07
-1.1899649e-08
5.7373287e-07
-2.9287199e-09
4.0156146e-07
1.3955055e-07
2.2308662e-09
1.1198641e-07
1.056137e-08
3.4681407e-07
1.9668743e-08
5.4248355e-07
2.3651447e-08
6.3806761e-07
2.3110667e-08
6.5267466e-07
2.1198489e-08
6.3911976e-07
1.9425379e-08
6.2615797e-07
1.7882698e-08
6.1799446e-07
1.6418445e-08
6.124003e-07
1.49763e-08
6.0802022e-07
1.3549444e-08
6.0444006e-07
1.2137846e-08
6.0149568e-07
1.0741081e-08
5.9907146e-07
9.3585267e-09
5.9707893e-07
7.989388e-09
5.9545224e-07
6.6325929e-09
5.9414232e-07
5.2867483e-09
5.9311257e-07
3.9501624e-09
5.9233591e-07
2.6208996e-09
5.9179291e-07
1.2968527e-09
5.9147052e-07
-2.4176666e-11
5.9136133e-07
-1.3443938e-09
5.9146309e-07
-2.6659235e-09
5.917787e-07
-3.9907233e-09
5.923163e-07
-5.3204989e-09
5.9308975e-07
-6.6566248e-09
5.9411951e-07
-8.0000816e-09
5.9543396e-07
-9.3514251e-09
5.9707151e-07
-1.0710806e-08
5.9908378e-07
-1.2077972e-08
6.0154013e-07
-1.3452191e-08
6.0453273e-07
-1.483526e-08
6.0818858e-07
-1.6253552e-08
6.1276898e-07
-1.7795895e-08
6.190825e-07
-1.9451346e-08
6.2874214e-07
-2.0318624e-08
6.4013954e-07
-1.7989159e-08
6.3462814e-07
-1.0882313e-08
5.6662603e-07
-2.6242249e-09
3.9330337e-07
1.3692633e-07
2.0734759e-09
1.0991305e-07
9.7270808e-09
3.3916072e-07
1.8477861e-08
5.3373301e-07
2.2670551e-08
6.3387502e-07
2.2434691e-08
6.5291052e-07
2.066245e-08
6.4089198e-07
1.8938976e-08
6.2788144e-07
1.7440322e-08
6.1949311e-07
1.6027588e-08
6.1381304e-07
1.4637546e-08
6.0941026e-07
1.3259946e-08
6.0581766e-07
1.1894081e-08
6.0286155e-07
1.0539425e-08
6.0042612e-07
9.1954086e-09
5.9842295e-07
7.8614551e-09
5.9678619e-07
6.5368436e-09
5.9546693e-07
5.2206315e-09
5.9442878e-07
3.9116484e-09
5.936449e-07
2.6085292e-09
5.9309603e-07
1.3097678e-09
5.9276928e-07
1.3784374e-11
5.9265731e-07
-1.2810041e-09
5.9275788e-07
-2.5761062e-09
5.930738e-07
-3.872884e-09
5.9361307e-07
-5.1724824e-09
5.9438935e-07
-6.475769e-09
5.954228e-07
-7.7832957e-09
5.9674148e-07
-9.095299e-09
5.9838351e-07
-1.0411753e-08
6.0040023e-07
-1.1732397e-08
6.0286078e-07
-1.3056849e-08
6.0585718e-07
-1.4388725e-08
6.0952046e-07
-1.5758785e-08
6.1413904e-07
-1.7251134e-08
6.2057485e-07
-1.8804271e-08
6.3029528e-07
-1.9448768e-08
6.4078404e-07
-1.6914119e-08
6.3209349e-07
-1.0009879e-08
5.5972179e-07
-2.387831e-09
3.8568132e-07
1.345385e-07
1.9402862e-09
1.0797291e-07
8.999638e-09
3.3210168e-07
1.7394942e-08
5.2533799e-07
2.1747895e-08
6.2952221e-07
2.1792305e-08
6.5286613e-07
2.0159059e-08
6.4252521e-07
1.8482745e-08
6.2955775e-07
1.7020997e-08
6.2095486e-07
1.5652523e-08
6.1518151e-07
1.4308675e-08
6.1075411e-07
1.2975633e-08
6.0715071e-07
1.1651853e-08
6.0418532e-07
1.0336621e-08
6.0174135e-07
9.0293308e-09
5.9973024e-07
7.7295092e-09
5.9808601e-07
6.4366636e-09
5.9675978e-07
5.1501774e-09
5.9571527e-07
3.8692781e-09
5.949258e-07
2.5930488e-09
5.9437226e-07
1.3204645e-09
5.9404187e-07
5.0444717e-11
5.9392733e-07
-1.2180891e-09
5.9402641e-07
-2.4861511e-09
5.9434186e-07
-3.7546314e-09
5.9488155e-07
-5.0242419e-09
5.9565896e-07
-6.2954754e-09
5.9669403e-07
-7.5685902e-09
5.980146e-07
-8.8436378e-09
5.9965856e-07
-1.0120542e-08
6.0167714e-07
-1.1399156e-08
6.0413939e-07
-1.2679599e-08
6.0713762e-07
-1.3967459e-08
6.1080832e-07
-1.5297227e-08
6.1546881e-07
-1.6745531e-08
6.2202315e-07
-1.820092e-08
6.3175067e-07
-1.8641981e-08
6.412251e-07
-1.5944039e-08
6.2939554e-07
-9.2562197e-09
5.5303397e-07
-2.2005651e-09
3.7862567e-07
1.3233793e-07
1.8237557e-09
1.0614932e-07
8.3595531e-09
3.2556624e-07
1.6405971e-08
5.1729191e-07
2.0877768e-08
6.2505058e-07
2.1179462e-08
6.5256446e-07
1.9684448e-08
6.4402021e-07
1.8054468e-08
6.3118772e-07
1.6624295e-08
6.2238503e-07
1.5294049e-08
6.1651176e-07
1.3991299e-08
6.1205686e-07
1.2698654e-08
6.0844335e-07
1.1413613e-08
6.0547037e-07
1.0135219e-08
6.0301974e-07
8.8627739e-09
6.0100269e-07
7.5958298e-09
5.9935295e-07
6.3340306e-09
5.9802158e-07
5.0769867e-09
5.9697231e-07
3.8242209e-09
5.9617856e-07
2.575161e-09
5.9562132e-07
1.3291597e-09
5.9528787e-07
8.5531715e-11
5.9517096e-07
-1.1564024e-09
5.9526834e-07
-2.3972672e-09
5.9558272e-07
-3.6375876e-09
5.9612188e-07
-4.8777504e-09
5.9689912e-07
-6.1179814e-09
5.9793426e-07
-7.3583507e-09
5.9925497e-07
-8.5988246e-09
6.0089904e-07
-9.8393649e-09
6.0291768e-07
-1.1080012e-08
6.0538004e-07
-1.2321489e-08
6.083791e-07
-1.3571415e-08
6.1205824e-07
-1.4867206e-08
6.167646e-07
-1.627556e-08
6.2343151e-07
-1.7636629e-08
6.3311173e-07
-1.7891562e-08
6.4148003e-07
-1.5064878e-08
6.2656886e-07
-8.5998137e-09
5.465689e-07
-2.0484281e-09
3.7207428e-07
1.302895e-07
1.7191639e-09
1.0443034e-07
7.7917489e-09
3.1949407e-07
1.5499324e-08
5.0958474e-07
2.0055289e-08
6.2049483e-07
2.0592748e-08
6.5202704e-07
1.923507e-08
6.4537787e-07
1.7651757e-08
6.3277102e-07
1.6249298e-08
6.2378748e-07
1.495231e-08
6.1780875e-07
1.368629e-08
6.1332288e-07
1.2430394e-08
6.0969925e-07
1.1181062e-08
6.067197e-07
9.9370706e-09
6.0426374e-07
8.6975963e-09
6.0224216e-07
7.4621637e-09
6.0058839e-07
6.2304863e-09
5.9925325e-07
5.0023247e-09
5.9820048e-07
3.7774143e-09
5.9740347e-07
2.5554413e-09
5.9684329e-07
1.336048e-09
5.9650726e-07
1.1885469e-10
5.9638815e-07
-1.0965087e-09
5.9648371e-07
-2.3103675e-09
5.9679658e-07
-3.5229713e-09
5.9733448e-07
-4.7344707e-09
5.9811062e-07
-5.9449103e-09
5.991447e-07
-7.154253e-09
6.0046431e-07
-8.3624504e-09
6.0210723e-07
-9.5695577e-09
6.0412479e-07
-1.077585e-08
6.0658633e-07
-1.1982715e-08
6.0958596e-07
-1.319978e-08
6.1327531e-07
-1.4466493e-08
6.1803131e-07
-1.5837519e-08
6.2480253e-07
-1.7106876e-08
6.3438109e-07
-1.7191223e-08
6.4156438e-07
-1.4264385e-08
6.2364202e-07
-8.0232145e-09
5.4032773e-07
-1.921319e-09
3.6597239e-07
1.2836818e-07
1.6236404e-09
1.0280692e-07
7.2845247e-09
3.1383368e-07
1.4665379e-08
5.0220436e-07
1.9276363e-08
6.158841e-07
2.0029374e-08
6.5127409e-07
1.8807797e-08
6.4659943e-07
1.7272242e-08
6.3430656e-07
1.5894816e-08
6.2516491e-07
1.462702e-08
6.1907654e-07
1.3393997e-08
6.145559e-07
1.2171663e-08
6.1092158e-07
1.0955329e-08
6.0793603e-07
9.7434796e-09
6.0547559e-07
8.5351549e-09
6.0345048e-07
7.3298202e-09
6.0179372e-07
6.12721e-09
6.0045586e-07
4.9271761e-09
5.9940051e-07
3.7296007e-09
5.9860105e-07
2.5343579e-09
5.9803853e-07
1.3413057e-09
5.9770031e-07
1.5029512e-10
5.9757916e-07
-1.0388106e-09
5.9767281e-07
-2.2261131e-09
5.9798389e-07
-3.4116614e-09
5.9852003e-07
-4.5954413e-09
5.992944e-07
-5.7773837e-09
6.0032664e-07
-6.9574035e-09
6.0164433e-07
-8.1354861e-09
6.0328532e-07
-9.3118123e-09
6.0530111e-07
-1.0486915e-08
6.0776143e-07
-1.1662887e-08
6.1076194e-07
-1.2851267e-08
6.1446369e-07
-1.4092606e-08
6.1927265e-07
-1.5427788e-08
6.2613771e-07
-1.6607505e-08
6.3556081e-07
-1.653531e-08
6.4149218e-07
-1.3532093e-08
6.206388e-07
-7.5124352e-09
5.3430807e-07
-1.812104e-09
3.6027206e-07
1.2655608e-07
1.5354758e-09
1.012717e-07
6.8287243e-09
3.0854099e-07
1.3896132e-08
4.9513752e-07
1.8537568e-08
6.1124299e-07
1.948711e-08
6.5032463e-07
1.8399941e-08
6.4768658e-07
1.6913676e-08
6.357928e-07
1.5559535e-08
6.2651904e-07
1.4317621e-08
6.2031846e-07
1.3114407e-08
6.1575912e-07
1.1922858e-08
6.1211313e-07