/*--------------------------------*- C++ -*----------------------------------*\
  =========                 |
  \\      /  F ield         | OpenFOAM: The Open Source CFD Toolbox
   \\    /   O peration     | Website:  https://openfoam.org
    \\  /    A nd           | Version:  10
     \\/     M anipulation  |
\*---------------------------------------------------------------------------*/
FoamFile
{
    format      ascii;
    class       surfaceScalarField;
    location    "0.24";
    object      phi_0;
}
// * * * * * * * * * * * * * * * * * * * * * * * * * * * * * * * * * * * * * //

dimensions      [1 0 -1 0 0 0 0];

internalField   nonuniform List<scalar> 
7860
(
3.9895993e-08
5.2881204e-07
1.2192732e-08
5.9641106e-07
7.4279126e-09
5.7347257e-07
5.4994345e-09
5.7063619e-07
4.115013e-09
5.700921e-07
3.2011597e-09
5.6962151e-07
2.5591648e-09
5.6934963e-07
2.0793351e-09
5.6918745e-07
1.7093421e-09
5.690776e-07
1.4166625e-09
5.6900028e-07
1.1795007e-09
5.6894475e-07
9.8309387e-10
5.6890399e-07
8.1709855e-10
5.6887358e-07
6.7402458e-10
5.6885065e-07
5.4829878e-10
5.688333e-07
4.3566064e-10
5.6882021e-07
3.3275656e-10
5.6881047e-07
2.3685937e-10
5.6880346e-07
1.4566617e-10
5.6879876e-07
5.7146073e-11
5.6879608e-07
-3.0583618e-11
5.6879529e-07
-1.1936505e-10
5.6879634e-07
-2.1110441e-10
5.687993e-07
-3.0787902e-10
5.6880434e-07
-4.1206943e-10
5.6881176e-07
-5.2652252e-10
5.6882202e-07
-6.5477201e-10
5.6883582e-07
-8.0135166e-10
5.6885415e-07
-9.7225546e-10
5.6887848e-07
-1.1756447e-09
5.6891097e-07
-1.4230205e-09
5.6895497e-07
-1.7311944e-09
5.6901577e-07
-2.1251445e-09
5.6910156e-07
-2.6447522e-09
5.6922723e-07
-3.3724312e-09
5.6943532e-07
-4.4637326e-09
5.6979896e-07
-6.0090625e-09
5.7025301e-07
-9.5080622e-09
5.7220671e-07
-2.9575904e-08
5.887756e-07
5.3913202e-07
5.9672517e-08
4.6913952e-07
3.6665981e-08
6.194176e-07
2.2628164e-08
5.8751038e-07
1.625358e-08
5.7701077e-07
1.2290524e-08
5.7405516e-07
9.6062781e-09
5.7230575e-07
7.6775013e-09
5.7127841e-07
6.2361578e-09
5.7062879e-07
5.1266511e-09
5.7018711e-07
4.2489087e-09
5.6987802e-07
3.5375959e-09
5.6965607e-07
2.9485439e-09
5.6949304e-07
2.4507074e-09
5.6937141e-07
2.021611e-09
5.6927975e-07
1.6445403e-09
5.6921037e-07
1.3067177e-09
5.6915803e-07
9.9808609e-10
5.691191e-07
7.1046705e-10
5.6909108e-07
4.3695481e-10
5.6907227e-07
1.714578e-10
5.6906158e-07
-9.1670332e-11
5.6905842e-07
-3.5795274e-10
5.6906263e-07
-6.3310157e-10
5.6907445e-07
-9.2334911e-10
5.6909459e-07
-1.2358344e-09
5.6912424e-07
-1.5790944e-09
5.6916528e-07
-1.9637264e-09
5.6922045e-07
-2.4033263e-09
5.6929375e-07
-2.9158771e-09
5.6939103e-07
-3.5258713e-09
5.6952097e-07
-4.2677275e-09
5.6969682e-07
-5.1918108e-09
5.6993986e-07
-6.3747458e-09
5.7028449e-07
-7.9352494e-09
5.7078773e-07
-1.0076544e-08
5.7157661e-07
-1.3204753e-08
5.7292717e-07
-1.8134644e-08
5.751829e-07
-2.8176892e-08
5.8224896e-07
-4.5802847e-08
6.0640155e-07
4.9332918e-07
6.0008821e-08
4.091307e-07
5.0487259e-08
6.2893916e-07
3.3370666e-08
6.0462698e-07
2.4817685e-08
5.8556375e-07
1.9323277e-08
5.7954956e-07
1.5331552e-08
5.7629748e-07
1.2360797e-08
5.7424916e-07
1.0101657e-08
5.7288793e-07
8.3407552e-09
5.7194801e-07
6.934972e-09
5.7128381e-07
5.7882279e-09
5.7080281e-07
4.8337578e-09
5.7044751e-07
4.0237971e-09
5.7018137e-07
3.3233603e-09
5.6998018e-07
2.7061835e-09
5.6982755e-07
2.1520344e-09
5.6971218e-07
1.6448877e-09
5.6962625e-07
1.1716438e-09
5.6956432e-07
7.2119538e-10
5.6952272e-07
2.8371427e-10
5.6949906e-07
-1.4992611e-10
5.6949206e-07
-5.8865673e-10
5.6950136e-07
-1.0417062e-09
5.695275e-07
-1.5191208e-09
5.69572e-07
-2.0323675e-09
5.6963749e-07
-2.5950932e-09
5.6972801e-07
-3.2241365e-09
5.698495e-07
-3.9409387e-09
5.7001056e-07
-4.7735939e-09
5.7022369e-07
-5.7599123e-09
5.7050729e-07
-6.9520789e-09
5.7088899e-07
-8.4242918e-09
5.7141207e-07
-1.0285949e-08
5.7214615e-07
-1.2698922e-08
5.732007e-07
-1.5896368e-08
5.7477406e-07
-2.0240174e-08
5.7727097e-07
-2.6708478e-08
5.816512e-07
-3.8947983e-08
5.9448846e-07
-4.8167212e-08
6.1562078e-07
4.4516197e-07
5.487903e-08
3.5425168e-07
5.7452151e-08
6.2636604e-07
4.0467526e-08
6.216116e-07
3.0778752e-08
5.9525252e-07
2.4643065e-08
5.8568525e-07
1.9952336e-08
5.8098821e-07
1.631301e-08
5.7788849e-07
1.3466631e-08
5.7573431e-07
1.1201085e-08
5.7421356e-07
9.3646671e-09
5.7312022e-07
7.8494918e-09
5.7231799e-07
6.5770714e-09
5.7171993e-07
5.4895597e-09
5.7126888e-07
4.5436442e-09
5.709261e-07
3.7062306e-09
5.7066496e-07
2.9514616e-09
5.7046695e-07
2.2586201e-09
5.7031909e-07
1.6106107e-09
5.7021233e-07
9.9282855e-10
5.701405e-07
3.9227904e-10
5.7009961e-07
-2.0314499e-10
5.7008748e-07
-8.053036e-10
5.7010351e-07
-1.426431e-09
5.7014863e-07
-2.0797896e-09
5.7022536e-07
-2.780421e-09
5.7033812e-07
-3.5460736e-09
5.7049366e-07
-4.3984101e-09
5.7070183e-07
-5.3646399e-09
5.7097679e-07
-6.4798004e-09
5.7133885e-07
-7.7900166e-09
5.718175e-07
-9.3570686e-09
5.7245604e-07
-1.1264777e-08
5.7331978e-07
-1.3629405e-08
5.7451078e-07
-1.6612298e-08
5.761836e-07
-2.0411227e-08
5.7857298e-07
-2.5292867e-08
5.8215261e-07
-3.2517149e-08
5.8887548e-07
-4.5100778e-08
6.0707209e-07
-4.6549265e-08
6.1706927e-07
3.986127e-07
4.7965729e-08
3.0628595e-07
6.0076477e-08
6.1425529e-07
4.5400107e-08
6.3628797e-07
3.4875331e-08
6.057773e-07
2.8399851e-08
5.9216073e-07
2.3419635e-08
5.8596842e-07
1.9434341e-08
5.8187378e-07
1.6229232e-08
5.7893942e-07
1.3619792e-08
5.76823e-07
1.1466614e-08
5.752734e-07
9.664573e-09
5.7412003e-07
8.1336279e-09
5.7325088e-07
6.8127561e-09
5.7258976e-07
5.6549455e-09
5.7208391e-07
4.6234211e-09
5.7169648e-07
3.6888963e-09
5.7140147e-07
2.8275329e-09
5.7118045e-07
2.0194014e-09
5.7102047e-07
1.2472971e-09
5.709126e-07
4.9579473e-10
5.7085111e-07
-2.4954439e-10
5.7083282e-07
-1.0028825e-09
5.7085685e-07
-1.7787957e-09
5.7092454e-07
-2.5929965e-09
5.7103956e-07
-3.4631497e-09
5.7120827e-07
-4.4098564e-09
5.7144037e-07
-5.4578938e-09
5.7174987e-07
-6.6378248e-09
5.7215672e-07
-7.9881248e-09
5.7268915e-07
-9.5580555e-09
5.7338743e-07
-1.141144e-08
5.7430943e-07
-1.3631089e-08
5.7553943e-07
-1.6325305e-08
5.7720499e-07
-1.9637688e-08
5.7949598e-07
-2.3738502e-08
5.826738e-07
-2.8930663e-08
5.8734477e-07
-3.6790955e-08
5.9673578e-07
-4.8463588e-08
6.1874473e-07
-4.3194095e-08
6.1179978e-07
3.554186e-07
4.0336008e-08
2.6594995e-07
5.8994033e-08
5.9559727e-07
4.8330051e-08
6.4695195e-07
3.7588065e-08
6.1651928e-07
3.0928903e-08
5.9881989e-07
2.5894045e-08
5.9100328e-07
2.178009e-08
5.8598774e-07
1.8392184e-08
5.8232733e-07
1.5577671e-08
5.7963751e-07
1.32145e-08
5.7763657e-07
1.1206735e-08
5.7612779e-07
9.4790818e-09
5.7497853e-07
7.9723993e-09
5.7409644e-07
6.6397836e-09
5.7341652e-07
5.4436078e-09
5.7289266e-07
4.3532543e-09
5.7249182e-07
3.3433355e-09
5.7219037e-07
2.3922935e-09
5.7197151e-07
1.4812828e-09
5.7182361e-07
5.9324958e-10
5.7173914e-07
-2.8785888e-10
5.7171393e-07
-1.1778113e-09
5.7174681e-07
-2.0927954e-09
5.7183952e-07
-3.0501457e-09
5.7199691e-07
-4.0691497e-09
5.7222728e-07
-5.1719943e-09
5.7254321e-07
-6.3849169e-09
5.7296279e-07
-7.7396407e-09
5.7351144e-07
-9.2751716e-09
5.7422468e-07
-1.1040107e-08
5.7515237e-07
-1.3095666e-08
5.7636499e-07
-1.5519115e-08
5.7796287e-07
-1.8407853e-08
5.8009373e-07
-2.1886055e-08
5.8297418e-07
-2.6109505e-08
5.8689725e-07
-3.1487718e-08
5.9272299e-07
-3.9654068e-08
6.0490213e-07
-4.917193e-08
6.2826259e-07
-3.8578221e-08
6.0120607e-07
3.1684038e-07
3.2862651e-08
2.3308731e-07
5.5249925e-08
5.7321001e-07
4.9232172e-08
6.529697e-07
3.9061466e-08
6.2668999e-07
3.2430649e-08
6.0545071e-07
2.7518799e-08
5.9591513e-07
2.3438794e-08
5.9006774e-07
2.0003061e-08
5.8576306e-07
1.7095046e-08
5.8254552e-07
1.4612527e-08
5.8011909e-07
1.2471716e-08
5.782686e-07
1.0605363e-08
5.7684489e-07
8.9592275e-09
5.7574257e-07
7.4891166e-09
5.7488663e-07
6.1587008e-09
5.7422307e-07
4.9377544e-09
5.7371277e-07
3.8007128e-09
5.7332741e-07
2.7254958e-09
5.7304672e-07
1.6925314e-09
5.7285658e-07
6.8392463e-10
5.7274775e-07
-3.1727417e-10
5.7271513e-07
-1.3277439e-09
5.7275727e-07
-2.3645588e-09
5.7287634e-07
-3.4458711e-09
5.7307822e-07
-4.591653e-09
5.7337306e-07
-5.8245441e-09
5.737761e-07
-7.1708477e-09
5.743091e-07
-8.6617327e-09
5.7500233e-07
-1.0334683e-08
5.7589763e-07
-1.2235272e-08
5.7705296e-07
-1.4419556e-08
5.7854927e-07
-1.6956962e-08
5.8050028e-07
-1.9932331e-08
5.830691e-07
-2.3446441e-08
5.8648829e-07
-2.7640714e-08
5.9109152e-07
-3.3033563e-08
5.9811583e-07
-4.1009889e-08
6.1287845e-07
-4.7687049e-08
6.3493975e-07
-3.3375751e-08
5.8689477e-07
2.8346463e-07
2.6188936e-08
2.0689838e-07
5.0132569e-08
5.4926638e-07
4.8493433e-08
6.5460884e-07
3.9490949e-08
6.3569247e-07
3.3077399e-08
6.1186426e-07
2.8412042e-08
6.0058049e-07
2.4492997e-08
5.9398679e-07
2.1118407e-08
5.8913765e-07
1.8207389e-08
5.8545654e-07
1.5680716e-08
5.8264576e-07
1.3469251e-08
5.8048007e-07
1.1515815e-08
5.7879832e-07
9.7728935e-09
5.774855e-07
8.2006954e-09
5.7645883e-07
6.7656895e-09
5.7565808e-07
5.4393312e-09
5.7503913e-07
4.1969736e-09
5.7456977e-07
3.0169447e-09
5.7422675e-07
1.87975e-09
5.7399377e-07
7.6736879e-10
5.7386013e-07
-3.3738175e-10
5.7381988e-07
-1.4514427e-09
5.7387134e-07
-2.5921061e-09
5.74017e-07
-3.7776178e-09
5.7426373e-07
-5.0278202e-09
5.7462326e-07
-6.3648669e-09
5.7511315e-07
-7.8140352e-09
5.7575826e-07
-9.4046733e-09
5.7659296e-07
-1.1171308e-08
5.7766426e-07
-1.3154914e-08
5.7903656e-07
-1.5404561e-08
5.8079892e-07
-1.7979534e-08
5.8307525e-07
-2.0949289e-08
5.8603886e-07
-2.4389016e-08
5.8992802e-07
-2.8434246e-08
5.9513675e-07
-3.3690216e-08
6.033718e-07
-4.1061512e-08
6.2024975e-07
-4.4796277e-08
6.3867451e-07
-2.8203984e-08
5.7030247e-07
2.5526065e-07
2.0570826e-08
1.8632757e-07
4.4583e-08
5.2525423e-07
4.6642707e-08
6.5254914e-07
3.915301e-08
6.4318217e-07
3.3083709e-08
6.1793356e-07
2.871759e-08
6.0494661e-07
2.5038214e-08
5.9766616e-07
2.1803967e-08
5.923719e-07
1.8959528e-08
5.8830098e-07
1.6448848e-08
5.8515644e-07
1.4218425e-08
5.8271049e-07
1.222208e-08
5.8079467e-07
1.0420029e-08
5.7928755e-07
8.7779163e-09
5.7810094e-07
7.2659873e-09
5.7717001e-07
5.8582752e-09
5.7644684e-07
4.531862e-09
5.7589618e-07
3.2662129e-09
5.754924e-07
2.0425695e-09
5.7521742e-07
8.4339213e-10
5.7505931e-07
-3.4815949e-10
5.7501143e-07
-1.5487228e-09
5.750719e-07
-2.7752297e-09
5.7524351e-07
-4.0454075e-09
5.7553391e-07
-5.3783041e-09
5.7595616e-07
-6.794853e-09
5.765297e-07
-8.3184913e-09
5.772819e-07
-9.9758444e-09
5.7825032e-07
-1.1797492e-08
5.7948591e-07
-1.3818765e-08
5.8105783e-07
-1.6080652e-08
5.830608e-07
-1.8631004e-08
5.856256e-07
-2.1522928e-08
5.8893078e-07
-2.4810443e-08
5.9321553e-07
-2.8639765e-08
5.9896607e-07
-3.3658213e-08
6.0839025e-07
-4.0142257e-08
6.2673379e-07
-4.1157678e-08
6.3968993e-07
-2.3416295e-08
5.5256109e-07
2.3184435e-07
1.6015381e-08
1.703122e-07
3.9143647e-08
5.0212598e-07
4.4118233e-08
6.4757456e-07
3.8289367e-08
6.4901103e-07
3.2653709e-08
6.2356922e-07
2.85915e-08
6.0900881e-07
2.5183618e-08
6.0107404e-07
2.2136111e-08
5.9541941e-07
1.9405087e-08
5.91032e-07
1.6954486e-08
5.8760704e-07
1.4745332e-08
5.8491964e-07
1.2742026e-08
5.8279797e-07
1.0912654e-08
5.8111692e-07
9.2286945e-09
5.797849e-07
7.6646728e-09
5.7873403e-07
6.1977406e-09
5.7791377e-07
4.8072504e-09
5.7728667e-07
3.4743279e-09
5.7682532e-07
2.1814511e-09
5.7651029e-07
9.1204139e-10
5.7632872e-07
-3.499328e-10
5.7627341e-07
-1.6203429e-09
5.7634231e-07
-2.9152923e-09
5.7653846e-07
-4.2515065e-09
5.7687012e-07
-5.6467326e-09
5.7735138e-07
-7.1201545e-09
5.7800312e-07
-8.6928192e-09
5.7885457e-07
-1.0388076e-08
5.7994557e-07
-1.2232031e-08
5.8132987e-07
-1.425397e-08
5.8307977e-07
-1.6486717e-08
5.8529355e-07
-1.8967027e-08
5.8810591e-07
-2.1733039e-08
5.9169679e-07
-2.4825231e-08
5.9630772e-07
-2.8412476e-08
6.0255332e-07
-3.3121916e-08
6.1309969e-07
-3.8547053e-08
6.3215893e-07
-3.7213743e-08
6.3835662e-07
-1.9182081e-08
5.3452943e-07
2.1266227e-07
1.242364e-08
1.5788858e-07
3.4113607e-08
4.8043605e-07
4.1249221e-08
6.4043896e-07
3.7078175e-08
6.5318207e-07
3.1941528e-08
6.2870586e-07
2.8168494e-08
6.1278185e-07
2.503284e-08
6.042097e-07
2.2192086e-08
5.9826016e-07
1.9601161e-08
5.9362293e-07
1.7239479e-08
5.8996872e-07
1.5080408e-08
5.8707872e-07
1.309763e-08
5.8478075e-07
1.1266509e-08
5.8294804e-07
9.5641877e-09
5.8148723e-07
7.9695466e-09
5.8032867e-07
6.4630722e-09
5.7942025e-07
5.0266779e-09
5.7872307e-07
3.6434767e-09
5.7820852e-07
2.2975253e-09
5.7785624e-07
9.7355402e-10
5.7765269e-07
-3.433107e-10
5.7759027e-07
-1.6678247e-09
5.7766682e-07
-3.0149122e-09
5.7788555e-07
-4.3999468e-09
5.7825516e-07
-5.8390296e-09
5.7879047e-07
-7.3492628e-09
5.7951335e-07
-8.9490094e-09
5.8045431e-07
-1.0658125e-08
5.8165469e-07
-1.2498167e-08
5.8316991e-07
-1.4492557e-08
5.8507416e-07
-1.6666609e-08
5.874676e-07
-1.9047214e-08
5.9048652e-07
-2.1659869e-08
5.9430945e-07
-2.4538769e-08
5.9918662e-07
-2.7878438e-08
6.0589299e-07
-3.2224014e-08
6.1744527e-07
-3.6518034e-08
6.3645295e-07
-3.3265742e-08
6.3510433e-07
-1.5563018e-08
5.1682671e-07
1.9709925e-07
9.6569826e-09
1.4823162e-07
2.9645191e-08
4.6044788e-07
3.828232e-08
6.3180185e-07
3.5657598e-08
6.5580679e-07
3.1058341e-08
6.3330511e-07
2.7552934e-08
6.1628725e-07
2.4672445e-08
6.0709019e-07
2.2040661e-08
6.0089194e-07
1.9601617e-08
5.9606197e-07
1.7345339e-08
5.92225e-07
1.5255212e-08
5.8916884e-07
1.3312652e-08
5.8672331e-07
1.1499323e-08
5.8476137e-07
9.7974939e-09
5.8318905e-07
8.1901589e-09
5.8193601e-07
6.6610932e-09
5.8094931e-07
5.1948482e-09
5.8018931e-07
3.7766759e-09
5.796267e-07
2.3924081e-09
5.7924051e-07
1.0283056e-09
5.7901679e-07
-3.291128e-10
5.7894769e-07
-1.6932491e-09
5.7903096e-07
-3.0776138e-09
5.7926991e-07
-4.4960064e-09
5.7967355e-07
-5.962685e-09
5.8025714e-07
-7.4925188e-09
5.8104318e-07
-9.1011111e-09
5.820629e-07
-1.0804875e-08
5.8335845e-07
-1.2621063e-08
5.849861e-07
-1.4567759e-08
5.8702086e-07
-1.6663704e-08
5.8956355e-07
-1.8927378e-08
5.9275019e-07
-2.1374293e-08
5.9675636e-07
-2.4038577e-08
6.0185091e-07
-2.713651e-08
6.0899092e-07
-3.1082663e-08
6.2139142e-07
-3.425933e-08
6.3962961e-07
-2.9518816e-08
6.3036382e-07
-1.2554464e-08
4.9986235e-07
1.8454479e-07
7.5665863e-09
1.4066506e-07
2.578606e-08
4.4222845e-07
3.538839e-08
6.2219954e-07
3.4137487e-08
6.570577e-07
3.0087134e-08
6.3735546e-07
2.6824806e-08
6.1954958e-07
2.417211e-08
6.0974288e-07
2.1739611e-08
6.0332444e-07
1.9453731e-08
5.9834785e-07
1.7310117e-08
5.9436862e-07
1.5299885e-08
5.9117907e-07
1.3410651e-08
5.8861254e-07
1.1629294e-08
5.8654272e-07
9.9424977e-09
5.8487585e-07
8.3369401e-09
5.8354156e-07
6.7994627e-09
5.8248679e-07
5.3171711e-09
5.816716e-07
3.8774673e-09
5.810664e-07
2.4680304e-09
5.8064995e-07
1.0767611e-09
5.8040806e-07
-3.0829947e-10
5.8033275e-07
-1.6990636e-09
5.8042172e-07
-3.1074991e-09
5.8067835e-07
-4.5457227e-09
5.8111178e-07
-6.0260796e-09
5.817375e-07
-7.5611983e-09
5.825783e-07
-9.1640087e-09
5.8366571e-07
-1.0847708e-08
5.8504215e-07
-1.2625671e-08
5.8676406e-07
-1.451133e-08
5.8890652e-07
-1.6517871e-08
5.9157009e-07
-1.8656895e-08
5.9488922e-07
-2.0936911e-08
5.9903638e-07
-2.3397092e-08
6.0431109e-07
-2.6267051e-08
6.1186088e-07
-2.9798925e-08
6.2492329e-07
-3.1932587e-08
6.4176328e-07
-2.6095309e-08
6.2452654e-07
-1.0109771e-08
4.8387682e-07
1.7443502e-07
6.011877e-09
1.3465321e-07
2.2514433e-08
4.2572596e-07
3.2669284e-08
6.1204473e-07
3.2598279e-08
6.571287e-07
2.908799e-08
6.4086575e-07
2.6044271e-08
6.225933e-07
2.3587166e-08
6.1219999e-07
2.1336508e-08
6.055751e-07
1.9197691e-08
6.0048667e-07
1.716725e-08
5.9639906e-07
1.5241804e-08
5.9310452e-07
1.3413719e-08
5.9044063e-07
1.1674003e-08
5.8828244e-07
1.0012981e-08
5.8653687e-07
8.4205e-09
5.8513404e-07
6.8861408e-09
5.8402115e-07
5.3993729e-09
5.8315837e-07
3.9496555e-09
5.8251612e-07
2.5264897e-09
5.8207311e-07
1.1194336e-09
5.8181512e-07
-2.8190887e-10
5.8173409e-07
-1.6879119e-09
5.8182773e-07
-3.1089608e-09
5.8209939e-07
-4.555475e-09
5.8255829e-07
-6.0379163e-09
5.8321994e-07
-7.5667698e-09
5.8410716e-07
-9.1524878e-09
5.8525143e-07
-1.0805385e-08
5.8669505e-07
-1.2535479e-08
5.8849415e-07
-1.4352314e-08
5.9072335e-07
-1.6264581e-08
5.9348236e-07
-1.8278583e-08
5.9690322e-07
-2.0398909e-08
6.011567e-07
-2.2673327e-08
6.0658551e-07
-2.5333646e-08
6.145212e-07
-2.8453392e-08
6.2804304e-07
-2.9651999e-08
6.4296188e-07
-2.3050485e-08
6.1792502e-07
-8.1604905e-09
4.6898682e-07
1.6627453e-07
4.8701508e-09
1.297831e-07
1.9771757e-08
4.1082443e-07
3.0173272e-08
6.0164327e-07
3.1092314e-08
6.5620967e-07
2.8100401e-08
6.4385765e-07
2.5253616e-08
6.2544008e-07
2.2959734e-08
6.1449387e-07
2.0869398e-08
6.0766544e-07
1.8866768e-08
6.024893e-07
1.6945291e-08
5.9832053e-07
1.5105037e-08
5.9494477e-07
1.3341812e-08
5.9220385e-07
1.1649734e-08
5.8997452e-07
1.0022007e-08
5.881646e-07
8.451107e-09
5.8670494e-07
6.9289718e-09
5.8554328e-07
5.4471815e-09
5.8464016e-07
3.9970911e-09
5.8396621e-07
2.5699268e-09
5.8350028e-07
1.1568499e-09
5.8322819e-07
-2.5100192e-10
5.8314194e-07
-1.6624878e-09
5.8323921e-07
-3.086442e-09
5.8352335e-07
-4.5316443e-09
5.8400349e-07
-6.0067755e-09
5.8469507e-07
-7.5203473e-09
5.8562073e-07
-9.0805988e-09
5.8681168e-07
-1.0695354e-08
5.883098e-07
-1.2371837e-08
5.9017064e-07
-1.4116484e-08
5.92468e-07
-1.5934521e-08
5.9530039e-07
-1.7828482e-08
5.9879718e-07
-1.9801841e-08
6.0313006e-07
-2.1912698e-08
6.0869636e-07
-2.4383036e-08
6.1699154e-07
-2.7104814e-08
6.3076482e-07
-2.7489674e-08
6.4334674e-07
-2.0393713e-08
6.1082906e-07
-6.6309724e-09
4.5522408e-07
1.5964356e-07
4.0390476e-09
1.257441e-07
1.7485555e-08
3.9737802e-07
2.7914315e-08
5.9121458e-07
2.965022e-08
6.5447378e-07
2.7147564e-08
6.463603e-07
2.4480026e-08
6.2810761e-07
2.2319953e-08
6.1665394e-07
2.0367351e-08
6.0961804e-07
1.8487528e-08
6.0436912e-07
1.6667867e-08
6.0014019e-07
1.4910111e-08
5.9670253e-07
1.32124e-08
5.9390156e-07
1.1571078e-08
5.9161584e-07
9.9815306e-09
5.8975415e-07
8.4383294e-09
5.8824815e-07
6.9353805e-09
5.8704623e-07
5.4660892e-09
5.8610945e-07
4.0235027e-09
5.8540879e-07
2.600428e-09
5.8492335e-07
1.1895253e-09
5.846391e-07
-2.1661695e-10
5.8454808e-07
-1.6254184e-09
5.8464801e-07
-3.0442471e-09
5.8494218e-07
-4.480353e-09
5.854396e-07
-5.9407882e-09
5.8615551e-07
-7.4323055e-09
5.8711225e-07
-8.9612312e-09
5.8834061e-07
-1.0533311e-08
5.8988188e-07
-1.2153533e-08
5.9179086e-07
-1.3825959e-08
5.9414042e-07
-1.5553281e-08
5.9702772e-07
-1.7335629e-08
6.0057953e-07
-1.9177673e-08
6.0497211e-07
-2.1147929e-08
6.1066662e-07
-2.3447209e-08
6.1929082e-07
-2.5792949e-08
6.3311056e-07
-2.5485374e-08
6.4303917e-07
-1.8106462e-08
6.0345015e-07
-5.4468439e-09
4.4256446e-07
1.5419671e-07
3.4358914e-09
1.2230826e-07
1.5582014e-08
3.8523201e-07
2.5885796e-08
5.8091088e-07
2.8287414e-08
6.5207218e-07
2.6241346e-08
6.4840636e-07
2.3739388e-08
6.3060957e-07
2.1688129e-08
6.187052e-07
1.9851582e-08
6.1145459e-07
1.8080386e-08
6.0614032e-07
1.6353879e-08
6.018667e-07
1.4673999e-08
5.9838241e-07
1.3040336e-08
5.9553523e-07
1.1450734e-08
5.9320544e-07
9.9021635e-09
5.9130272e-07
8.3908095e-09
5.897595e-07
6.9121705e-09
5.8852487e-07
5.4611873e-09
5.8756044e-07
4.0323773e-09
5.868376e-07
2.6199563e-09
5.8633577e-07
1.2179454e-09
5.8604111e-07
-1.7973439e-10
5.8594576e-07
-1.5791761e-09
5.8604745e-07
-2.986403e-09
5.863494e-07
-4.407279e-09
5.8686047e-07
-5.8474091e-09
5.8759564e-07
-7.3120234e-09
5.8857686e-07
-8.8058437e-09
5.8983443e-07
-1.0332938e-08
5.9140898e-07
-1.1896574e-08
5.9335449e-07
-1.3499078e-08
5.9574293e-07
-1.5141404e-08
5.9867004e-07
-1.6822447e-08
6.0226057e-07
-1.8549818e-08
6.0669948e-07
-2.040125e-08
6.1251805e-07
-2.2546661e-08
6.2143623e-07
-2.4542658e-08
6.3510655e-07
-2.3655937e-08
6.4215245e-07
-1.6154755e-08
5.9594897e-07
-4.5396937e-09
4.309494e-07
1.4965702e-07
2.9960513e-09
1.1931228e-07
1.3992666e-08
3.7423553e-07
2.4069856e-08
5.708338e-07
2.7009048e-08
6.4913302e-07
2.5386131e-08
6.5002927e-07
2.3039722e-08
6.3295597e-07
2.1077121e-08
6.206678e-07
1.9336966e-08
6.1319474e-07
1.7660517e-08
6.0781677e-07
1.6018003e-08
6.0350922e-07
1.4410348e-08
5.9999006e-07
1.2837906e-08
5.9710767e-07
1.1299465e-08
5.9474388e-07
9.7930823e-09
5.928091e-07
8.3161464e-09
5.9123643e-07
6.8654069e-09
5.8997561e-07
5.4370647e-09
5.8898878e-07
4.0268839e-09
5.8824778e-07
2.6303055e-09
5.8773235e-07
1.2425559e-09
5.8742886e-07
-1.4125142e-10
5.8732957e-07
-1.5260183e-09
5.8743222e-07
-2.9165663e-09
5.8773995e-07
-4.3175358e-09
5.8826144e-07
-5.7332786e-09
5.8901138e-07
-7.1677404e-09
5.9001132e-07
-8.624335e-09
5.9129102e-07
-1.010582e-08
5.9289046e-07
-1.161419e-08
5.9486286e-07
-1.3150574e-08
5.9727931e-07
-1.4714838e-08
6.0023431e-07
-1.6305617e-08
6.0385135e-07
-1.7934648e-08
6.0832851e-07
-1.968676e-08
6.1427016e-07
-2.169326e-08
6.2344273e-07
-2.3367431e-08
6.3678073e-07
-2.2002541e-08
6.4078755e-07
-1.4497555e-08
5.8844398e-07
-3.8496234e-09
4.2030147e-07
1.4580739e-07
2.6706886e-09
1.1664167e-07
1.2657767e-08
3.6424862e-07
2.2443749e-08
5.6104795e-07
2.5813763e-08
6.4576305e-07
2.4581526e-08
6.512615e-07
2.2383742e-08
6.3515374e-07
2.0494337e-08
6.225572e-07
1.8833479e-08
6.148556e-07
1.7238866e-08
6.0941138e-07
1.5671338e-08
6.0507674e-07
1.4129869e-08
6.0153153e-07
1.2615044e-08
5.9862249e-07
1.112618e-08
5.9623275e-07
9.6620386e-09
5.9427324e-07
8.2208658e-09
5.9267761e-07
6.8003689e-09
5.9139611e-07
5.3977586e-09
5.9039139e-07
4.0098332e-09
5.8963571e-07
2.6330763e-09
5.8910911e-07
1.2637579e-09
5.8879818e-07
-1.0196523e-10
5.8869529e-07
-1.4679503e-09
5.8879821e-07
-2.8379697e-09
5.8910997e-07
-4.2156084e-09
5.8963908e-07
-5.6041585e-09
5.9039993e-07
-7.0065087e-09
5.9141367e-07
-8.4250356e-09
5.9270955e-07
-9.8615076e-09
5.9432693e-07
-1.1317023e-08
5.9631838e-07
-1.2791945e-08
5.9875423e-07
-1.4285573e-08
6.0172793e-07
-1.5797059e-08
6.0536283e-07
-1.7342932e-08
6.0987438e-07
-1.9012399e-08
6.1593963e-07
-2.08925e-08
6.2532283e-07
-2.2272405e-08
6.3816063e-07
-2.0516484e-08
6.3903163e-07
-1.3092352e-08
5.8101985e-07
-3.3262269e-09
4.1053534e-07
1.4248117e-07
2.4240625e-09
1.142177e-07
1.1527402e-08
3.5514547e-07
2.0983921e-08
5.515916e-07
2.4696575e-08
6.4205046e-07
2.3824357e-08
6.5213372e-07
2.1770738e-08
6.3720735e-07
1.9943311e-08
6.2438462e-07
1.8347402e-08
6.1645151e-07
1.6823044e-08
6.1093574e-07
1.5322062e-08
6.0657772e-07
1.3840775e-08
6.0301282e-07
1.2379608e-08
6.0008366e-07
1.0938106e-08
5.9767425e-07
9.5154449e-09
5.956959e-07
8.1104555e-09
5.940826e-07
6.7215553e-09
5.9278501e-07
5.3467459e-09
5.917662e-07
3.9836658e-09
5.9099879e-07
2.6296679e-09
5.9046311e-07
1.2819077e-09
5.9014594e-07
-6.2564377e-11
5.9003977e-07
-1.4067086e-09
5.9014235e-07
-2.7534012e-09
5.9045666e-07
-4.1053364e-09
5.9099102e-07
-5.4649296e-09
5.9175952e-07
-6.8342211e-09
5.9278296e-07
-8.2147878e-09
5.9409012e-07
-9.6076816e-09
5.9571983e-07
-1.1013408e-08
5.9772411e-07
-1.24319e-08
6.0017272e-07
-1.3862291e-08
6.0315832e-07
-1.5304842e-08
6.0680539e-07
-1.6781086e-08
6.1135063e-07
-1.8381582e-08
6.1754012e-07
-2.0145383e-08
6.2708663e-07
-2.1257038e-08
6.3927229e-07
-1.9183727e-08
6.3695832e-07
-1.1898989e-08
5.7373511e-07
-2.9284984e-09
4.0156485e-07
1.3955267e-07
2.2307929e-09
1.1198701e-07
1.0561114e-08
3.4681538e-07
1.9668304e-08
5.4248461e-07
2.365092e-08
6.3806793e-07
2.3110147e-08
6.5267449e-07
2.119801e-08
6.3911947e-07
1.9424943e-08
6.2615769e-07
1.7882307e-08
6.1799414e-07
1.6418103e-08
6.1239994e-07
1.4976011e-08
6.0801982e-07
1.3549215e-08
6.0443962e-07
1.2137682e-08
6.0149519e-07
1.0740987e-08
5.9907094e-07
9.3585052e-09
5.9707838e-07
7.9894431e-09
5.9545166e-07
6.6327273e-09
5.9414172e-07
5.2869642e-09
5.9311196e-07
3.9504613e-09
5.9233529e-07
2.6212825e-09
5.9179228e-07
1.2973197e-09
5.914699e-07
-2.3625938e-11
5.9136071e-07
-1.3437605e-09
5.9146248e-07
-2.6652094e-09
5.9177811e-07
-3.9899309e-09
5.9231574e-07
-5.3196314e-09
5.9308922e-07
-6.6556863e-09
5.9411902e-07
-7.9990765e-09
5.9543351e-07
-9.3503586e-09
5.9707111e-07
-1.0709684e-08
5.9908343e-07
-1.2076801e-08
6.0153984e-07
-1.3450978e-08
6.045325e-07
-1.4834012e-08
6.0818842e-07
-1.6252275e-08
6.1276889e-07
-1.7794586e-08
6.1908243e-07
-1.9450005e-08
6.2874205e-07
-2.0317301e-08
6.4013958e-07
-1.7988023e-08
6.3462904e-07
-1.0881588e-08
5.6662868e-07
-2.6239835e-09
3.9330725e-07
1.3692868e-07
2.0733943e-09
1.0991374e-07
9.7267923e-09
3.3916226e-07
1.8477362e-08
5.3373429e-07
2.2669944e-08
6.3387546e-07
2.2434085e-08
6.5291036e-07
2.0661889e-08
6.4089165e-07
1.8938466e-08
6.278811e-07
1.7439862e-08
6.1949274e-07
1.6027183e-08
6.1381262e-07
1.4637202e-08
6.094098e-07
1.3259669e-08
6.0581715e-07
1.1893877e-08
6.0286099e-07
1.0539298e-08
6.0042552e-07
9.1953638e-09
5.9842232e-07
7.8614961e-09
5.9678553e-07
6.5369734e-09
5.9546625e-07
5.2208524e-09
5.9442808e-07
3.9119624e-09
5.9364418e-07
2.6089373e-09
5.9309531e-07
1.3102704e-09
5.9276856e-07
1.4380913e-11
5.926566e-07
-1.2803146e-09
5.9275718e-07
-2.5753258e-09
5.9307312e-07
-3.8720154e-09
5.9361243e-07
-5.1715287e-09
5.9438874e-07
-6.4747346e-09
5.9542222e-07
-7.7821855e-09
5.9674096e-07
-9.0941185e-09
5.9838304e-07
-1.0410508e-08
6.0039982e-07
-1.1731095e-08
6.0286043e-07
-1.3055499e-08
6.058569e-07
-1.4387333e-08
6.0952025e-07
-1.5757356e-08
6.1413891e-07
-1.7249666e-08
6.2057474e-07
-1.8802764e-08
6.3029515e-07
-1.944729e-08
6.4078411e-07
-1.6912861e-08
6.3209461e-07
-1.0009084e-08
5.597249e-07
-2.3875683e-09
3.8568573e-07
1.3454112e-07
1.9401956e-09
1.079737e-07
8.9993144e-09
3.3210346e-07
1.7394376e-08
5.2533953e-07
2.1747198e-08
6.2952278e-07
2.1791601e-08
6.5286597e-07
2.0158405e-08
6.4252483e-07
1.8482149e-08
6.2955735e-07
1.7020459e-08
6.2095443e-07
1.5652047e-08
6.1518104e-07
1.4308268e-08
6.1075357e-07
1.2975301e-08
6.0715012e-07
1.1651603e-08
6.0418468e-07
1.0336457e-08
6.0174067e-07
9.0292584e-09
5.9972952e-07
7.7295325e-09
5.9808525e-07
6.4367861e-09
5.9675899e-07
5.150402e-09
5.9571447e-07
3.8696067e-09
5.9492498e-07
2.5934826e-09
5.9437143e-07
1.321004e-09
5.9404104e-07
5.1089619e-11
5.9392652e-07
-1.21734e-09
5.9402561e-07
-2.4852998e-09
5.9434108e-07
-3.7536807e-09
5.9488081e-07
-5.0231953e-09
5.9565825e-07
-6.2943375e-09
5.9669336e-07
-7.5673661e-09
5.9801399e-07
-8.8423336e-09
5.9965801e-07
-1.0119165e-08
6.0167665e-07
-1.1397713e-08
6.0413898e-07
-1.2678098e-08
6.0713729e-07
-1.3965909e-08
6.1080807e-07
-1.5295632e-08
6.1546863e-07
-1.6743887e-08
6.22023e-07
-1.8199233e-08
6.3175049e-07
-1.8640333e-08
6.4122521e-07
-1.5942649e-08
6.2939693e-07
-9.2553484e-09
5.530376e-07
-2.2002796e-09
3.7863066e-07
1.3234084e-07
1.8236553e-09
1.0615021e-07
8.3591912e-09
3.255683e-07
1.6405332e-08
5.1729374e-07
2.0876971e-08
6.2505132e-07
2.1178649e-08
6.5256432e-07
1.968369e-08
6.4401978e-07
1.8053776e-08
6.3118725e-07
1.6623669e-08
6.2238454e-07
1.5293493e-08
6.1651121e-07
1.399082e-08
6.1205625e-07
1.2698259e-08
6.0844268e-07
1.1413308e-08
6.0546963e-07
1.0135011e-08
6.0301896e-07
8.8626689e-09
6.0100186e-07
7.5958316e-09
5.9935209e-07
6.334143e-09
5.9802068e-07
5.0772129e-09
5.969714e-07
3.8245632e-09
5.9617763e-07
2.5756208e-09
5.9562038e-07
1.3297376e-09
5.9528693e-07
8.6227493e-11
5.9517003e-07
-1.15559e-09
5.9526743e-07
-2.3963402e-09
5.9558183e-07
-3.6365489e-09
5.9612102e-07
-4.8766037e-09
5.9689831e-07
-6.1167315e-09
5.9793349e-07
-7.3570033e-09
5.9925426e-07
-8.597386e-09
6.0089839e-07
-9.8378424e-09
6.0291711e-07
-1.1078414e-08
6.0537955e-07
-1.2319823e-08
6.083787e-07
-1.3569691e-08
6.1205793e-07
-1.4865427e-08
6.1676437e-07
-1.6273724e-08
6.2343129e-07
-1.7634744e-08
6.3311151e-07
-1.788973e-08
6.4148019e-07
-1.5063344e-08
6.2657054e-07
-8.5988601e-09
5.4657312e-07
-2.0481183e-09
3.7207992e-07
1.3029272e-07
1.7190531e-09
1.0443136e-07
7.7913451e-09
3.1949644e-07
1.5498604e-08
5.095869e-07
2.0054382e-08
6.2049576e-07
2.0591814e-08
6.5202693e-07
1.9234194e-08
6.4537738e-07
1.7650957e-08
6.3277048e-07
1.6248573e-08
6.2378692e-07
1.4951664e-08
6.1780812e-07
1.3685729e-08
6.1332218e-07
1.2429927e-08
6.0969848e-07
1.1180697e-08
6.0671886e-07
9.9368137e-09
6.0426285e-07
8.6974533e-09
6.0224122e-07
7.4621396e-09
6.005874e-07
6.2305855e-09
5.9925223e-07
5.0025506e-09
5.9819943e-07
3.7777695e-09
5.9740241e-07
2.5559275e-09
5.9684222e-07
1.3366658e-09
5.9650619e-07
1.19604e-10
5.9638709e-07
-1.095629e-09
5.9648266e-07
-2.3093595e-09
5.9679556e-07
-3.5218382e-09
5.9733349e-07
-4.7332163e-09
5.9810968e-07
-5.9435398e-09
5.9914382e-07
-7.1527722e-09
6.0046349e-07
-8.3608662e-09
6.0210649e-07
-9.5678777e-09
6.0412412e-07
-1.0774083e-08
6.0658575e-07
-1.198087e-08
6.0958548e-07
-1.3197866e-08
6.1327493e-07
-1.4464514e-08
6.1803102e-07
-1.583547e-08
6.2480225e-07
-1.7104774e-08
6.3438082e-07
-1.7189189e-08
6.4156461e-07
-1.4262696e-08
6.2364405e-07
-8.0221722e-09
5.4033259e-07
-1.9209833e-09
3.6597873e-07
1.2837173e-07
1.6235183e-09
1.0280807e-07
7.2840754e-09
3.1383639e-07
1.466457e-08
5.0220691e-07
1.9275334e-08
6.1588527e-07
2.0028304e-08
6.5127402e-07
1.8806789e-08
6.4659887e-07
1.7271319e-08
6.3430593e-07
1.5893979e-08
6.2516426e-07
1.4626271e-08
6.1907583e-07
1.3393345e-08
6.1455511e-07
1.2171116e-08
6.1092071e-07
1.0954895e-08
6.0793509e-07
9.7431657e-09
6.0547457e-07
8.5349677e-09
6.0344942e-07
7.3297653e-09
6.017926e-07
6.1272922e-09
6.0045471e-07
4.9273992e-09
5.9939932e-07
3.7299675e-09
5.9859984e-07
2.5348704e-09
5.9803731e-07
1.3419647e-09
5.9769909e-07
1.5110064e-10
5.9757795e-07
-1.0378597e-09
5.9767162e-07
-2.225019e-09
5.9798272e-07
-3.4104272e-09
5.985189e-07
-4.5940713e-09
5.9929333e-07
-5.775883e-09
6.0032563e-07
-6.9557786e-09
6.0164339e-07
-8.1337441e-09
6.0328445e-07
-9.3099615e-09
6.0530034e-07
-1.0484965e-08
6.0776076e-07
-1.1660846e-08
6.1076137e-07
-1.2849146e-08
6.1446323e-07
-1.4090407e-08
6.1927228e-07
-1.5425507e-08
6.2613735e-07
-1.6605166e-08
6.3556047e-07
-1.6533057e-08
6.414925e-07
-1.3530235e-08
6.2064123e-07
-7.5112974e-09
5.3431365e-07
-1.8117407e-09
3.6027917e-07
1.2655999e-07
1.5353417e-09
1.0127299e-07
6.8282256e-09
3.085441e-07
1.3895227e-08
4.9514049e-07
1.8536404e-08
6.1124443e-07
1.948589e-08
6.5032462e-07
1.8398785e-08
6.4768596e-07
1.6912616e-08
6.3579208e-07
1.5558573e-08
6.265183e-07
1.4316758e-08
6.2031764e-07
1.3113652e-08
6.1575821e-07