/*--------------------------------*- C++ -*----------------------------------*\
  =========                 |
  \\      /  F ield         | OpenFOAM: The Open Source CFD Toolbox
   \\    /   O peration     | Website:  https://openfoam.org
    \\  /    A nd           | Version:  10
     \\/     M anipulation  |
\*---------------------------------------------------------------------------*/
FoamFile
{
    format      ascii;
    class       volScalarField;
    location    "0.24";
    object      TporMedia_0;
}
// * * * * * * * * * * * * * * * * * * * * * * * * * * * * * * * * * * * * * //

dimensions      [0 0 0 1 0 0 0];

internalField   nonuniform List<scalar> 
4000
(
0.00028820079
0.00013342867
0.0001347752
0.00013018324
0.00013675125
0.00013308069
0.0001298986
0.00012748283
0.00013521569
0.00012426991
0.00013311162
0.00012678317
0.00012706423
0.00013887897
0.00014115376
0.00012933779
0.00012722248
0.00012989259
0.00012937173
0.00014471513
0.00014085398
0.0001395832
0.00012437445
0.00013556295
0.00013499282
0.00012902347
0.0001383527
0.000132167
0.00013289689
0.00012575836
0.00014060208
0.00014936333
0.00013928596
0.00013323723
0.00013478894
0.00012849335
0.00013697591
0.00013448199
0.00013281296
0.00012970053
-0.001184922
-1.6708688e-10
2.4033257e-11
3.4116682e-11
3.0013887e-11
2.7177449e-11
3.2176169e-11
2.8440306e-11
3.2743435e-11
3.086139e-11
3.098478e-11
3.2442878e-11
2.9972443e-11
3.2042096e-11
3.137362e-11
2.9774105e-11
2.9409887e-11
2.9115811e-11
2.971605e-11
3.2674408e-11
3.0332087e-11
3.0605718e-11
2.9766427e-11
3.3464494e-11
3.22642e-11
2.9803983e-11
2.8756007e-11
3.327575e-11
2.9884309e-11
2.8497543e-11
3.6000509e-11
3.6638382e-11
2.9906523e-11
3.321259e-11
3.2518662e-11
3.1259007e-11
3.4316849e-11
3.2219982e-11
3.348865e-11
3.0168541e-11
-9.1591413e-05
-1.8688446e-11
7.1813107e-19
6.7652357e-18
6.233268e-18
6.3511558e-18
6.6348771e-18
6.5514425e-18
7.7195454e-18
6.8203217e-18
7.2111273e-18
7.4251393e-18
6.2739175e-18
7.5810035e-18
7.122767e-18
6.8648177e-18
6.2586917e-18
6.1089741e-18
7.1127204e-18
7.6362716e-18
6.4238276e-18
6.8681182e-18
6.7633368e-18
7.8875735e-18
7.3386866e-18
6.8381943e-18
6.1981805e-18
6.4116074e-18
6.3486908e-18
6.6009754e-18
8.9025929e-18
8.4904814e-18
6.3542002e-18
6.9511127e-18
7.0506382e-18
7.8754852e-18
8.2062387e-18
7.3921676e-18
7.2385852e-18
6.8071242e-18
-3.6478211e-05
3.7179716e-11
3.7680129e-18
1.9872176e-24
1.583429e-24
1.4068471e-24
1.518165e-24
1.4736788e-24
1.8600497e-24
1.7775772e-24
1.4593236e-24
1.8238359e-24
1.440027e-24
1.6901739e-24
1.4314232e-24
1.5103628e-24
1.2963748e-24
1.3404743e-24
1.4636507e-24
1.6896572e-24
1.4496579e-24
1.5523423e-24
1.392575e-24
1.8593703e-24
1.7502051e-24
1.3612752e-24
1.356092e-24
1.4639973e-24
1.3550299e-24
1.3836336e-24
2.1546831e-24
2.0216006e-24
1.6369047e-24
1.7469212e-24
1.4103783e-24
1.8905348e-24
1.9028653e-24
1.7174833e-24
1.7796348e-24
1.5965699e-24
-2.009209e-05
1.3577288e-12
1.1761984e-19
1.5298499e-26
3.5553268e-31
3.6670561e-31
3.4469851e-31
3.5095312e-31
4.1610766e-31
3.8664383e-31
3.4630875e-31
4.5207322e-31
3.8246859e-31
3.9862241e-31
3.3962672e-31
3.4089382e-31
3.4042019e-31
2.8479122e-31
3.4959481e-31
3.8861777e-31
3.2398734e-31
3.380257e-31
3.1577781e-31
4.6602541e-31
3.6827278e-31
3.0867982e-31
3.2739351e-31
3.2733674e-31
3.3299608e-31
3.1751091e-31
5.1607008e-31
4.8208558e-31
3.7340906e-31
4.0078129e-31
3.0119371e-31
4.2035835e-31
4.1116519e-31
3.9614889e-31
3.6877971e-31
3.8065084e-31
-1.2892665e-05
3.4495411e-13
3.3997186e-20
3.1434344e-27
6.9066268e-34
9.5281024e-38
8.7669773e-38
8.3302227e-38
1.0053776e-37
8.3286251e-38
8.8269154e-38
1.0438824e-37
1.0642597e-37
1.0411153e-37
8.0408553e-38
8.8381321e-38
7.393126e-38
6.8570249e-38
8.2164197e-38
9.3424318e-38
7.9700627e-38
8.5802849e-38
7.3187202e-38
1.1113284e-37
8.1693755e-38
7.8500081e-38
7.4104199e-38
7.1578657e-38
8.5376994e-38
6.6438886e-38
1.3345371e-37
1.1454551e-37
8.3791309e-38
9.3309887e-38
7.9759782e-38
9.7703616e-38
1.0278344e-37
1.0191799e-37
8.3160728e-38
9.4965701e-38
-9.0847251e-06
1.2900021e-13
4.1853761e-20
2.6194961e-27
4.0462616e-34
1.1297757e-40
2.2552247e-44
2.2251338e-44
2.487348e-44
1.8853729e-44
2.1077526e-44
2.295956e-44
2.7036356e-44
2.6943303e-44
1.8502214e-44
2.0984524e-44
1.9663622e-44
1.6086014e-44
1.8953335e-44
2.0511632e-44
1.9772919e-44
1.8030869e-44
1.9770773e-44
2.5258216e-44
1.9763646e-44
2.073888e-44
1.6535566e-44
1.5356429e-44
1.9588494e-44
1.6087623e-44
3.2034869e-44
2.4530645e-44
1.9818286e-44
2.2851108e-44
1.9047286e-44
2.3159198e-44
2.3510719e-44
2.4061133e-44
2.2060501e-44
2.2642568e-44
-6.8993739e-06
6.0737892e-14
-5.6563295e-21
-2.6658022e-28
-3.0139475e-35
-8.9787752e-42
-2.1751629e-48
4.9429443e-51
6.3429066e-51
4.7477835e-51
4.9603941e-51
5.2434312e-51
6.9634818e-51
7.3442739e-51
4.4536044e-51
4.9203183e-51
5.3538662e-51
3.59038e-51
4.3786272e-51
4.4033782e-51
4.9724137e-51
4.4712971e-51
5.2958845e-51
6.2197684e-51
6.0328748e-51
5.6135469e-51
4.2101207e-51
4.0012075e-51
4.4980964e-51
3.6147956e-51
7.8390159e-51
6.2626843e-51
5.0319223e-51
6.1609484e-51
5.0136249e-51
6.0494562e-51
6.3919992e-51
7.0124694e-51
4.865684e-51
6.2751938e-51
-5.4302802e-06
3.1978695e-14
-8.7967684e-22
-3.3414016e-29
-2.3876724e-36
-5.0962452e-43
-1.6433767e-49
-4.3475216e-56
1.6090607e-57
1.2103132e-57
1.2813919e-57
1.3898345e-57
1.8903971e-57
1.7452542e-57
1.0659838e-57
1.2071325e-57
1.4506369e-57
8.8642724e-58
1.0671836e-57
1.1943251e-57
1.2154817e-57
1.0577999e-57
1.3989319e-57
1.6175394e-57
1.3271672e-57
1.5663312e-57
1.1325621e-57
1.0906352e-57
1.256208e-57
9.8248275e-58
2.2388321e-57
1.5830841e-57
1.342574e-57
1.4935409e-57
1.1335306e-57
1.6847372e-57
2.0523482e-57
1.776438e-57
1.1489066e-57
1.557149e-57
-4.4214752e-06
1.8645271e-14
-2.4961592e-22
-9.0399893e-30
-4.4173139e-37
-8.2261948e-44
-2.1159933e-50
-5.8778783e-57
-9.8407985e-64
3.0253145e-64
2.5915582e-64
3.2398142e-64
4.4170267e-64
5.2072804e-64
2.4243623e-64
2.9246096e-64
3.6186473e-64
2.0293581e-64
2.1241969e-64
2.5491862e-64
2.9938237e-64
2.4383004e-64
3.5136866e-64
2.9389164e-64
3.3152304e-64
3.2043519e-64
2.6407939e-64
2.7054264e-64
2.776816e-64
1.7085873e-64
4.5145172e-64
3.3739057e-64
2.4748425e-64
3.8253979e-64
3.7811842e-64
3.7519967e-64
2.6358253e-64
3.8815414e-64
2.5987941e-64
4.2788426e-64
-3.6578059e-06
1.1478023e-14
-8.9681649e-23
-3.4929871e-30
-1.20321e-37
-1.5313529e-44
-5.0244135e-51
-1.3254145e-57
-3.2367963e-64
-4.4438001e-73
8.499078e-71
8.8332429e-71
1.2234478e-70
1.4124335e-70
6.7483989e-71
7.1102508e-71
1.0261929e-70
5.2067237e-71
1.0365455e-70
7.5137426e-71
7.394721e-71
6.6337566e-71
9.1619549e-71
1.2171307e-70
9.2292801e-71
9.8211744e-71
8.1228367e-71
8.6193728e-71
8.3309946e-71
8.4640173e-71
1.5714845e-70
1.2823558e-70
1.2482975e-70
1.0736893e-70
4.5495367e-71
1.1089115e-70
1.9384675e-70
1.0703974e-70
9.4569562e-71
1.0809932e-70
-3.0308344e-06
7.3106588e-15
-3.6906866e-23
-2.3303153e-30
-5.9227277e-38
-4.9087542e-45
-1.4406182e-51
-3.9841393e-58
-9.2444567e-65
-2.6879316e-71
2.3797761e-78
7.1954425e-78
3.1141263e-77
2.4776452e-77
1.2923722e-77
1.5270915e-77
1.9089191e-77
1.2050028e-77
-5.8938454e-78
1.2138562e-77
2.6086456e-77
1.3006315e-77
1.3610092e-77
-1.1332789e-78
1.6243107e-77
1.2524047e-77
8.7825033e-78
1.6964271e-77
6.3496611e-78
-8.4746567e-78
1.37832e-77
-6.1144751e-78
-1.4305595e-77
1.2536471e-77
3.9003758e-77
1.1809401e-77
-3.7150665e-77
1.6957575e-77
8.2305651e-78
2.7598957e-77
-2.5101957e-06
4.7578753e-15
-1.6483769e-23
5.0937951e-30
1.0275761e-37
5.934951e-45
1.6046939e-51
5.5382722e-58
1.3574071e-64
4.2510312e-71
8.8255893e-78
1.593641e-83
8.4763581e-84
1.4744011e-83
4.7356101e-84
5.1402848e-84
7.0822021e-84
4.1904962e-84
1.4739209e-83
8.6444938e-84
1.2665529e-84
8.6646161e-84
9.5549193e-84
2.5193934e-83
1.1376626e-83
1.2927105e-83
1.1302563e-83
8.6393612e-84
1.5433882e-83
2.2457546e-83
1.7160421e-83
1.6981219e-83
2.3105654e-83
1.4403043e-83
-7.5040433e-84
2.1513544e-83
4.9049907e-83
8.950379e-84
1.0587314e-83
7.1482096e-84
-2.0765612e-06
3.1438862e-15
-7.8131242e-24
2.2565467e-31
3.7156642e-39
1.4645619e-46
3.4402477e-53
1.1241229e-59
3.1060089e-66
7.5944563e-73
2.0308293e-79
5.063992e-86
1.6407956e-90
-4.4957921e-90
1.2040925e-91
2.5442579e-91
-7.2115047e-91
-2.9884365e-92
-4.7154944e-90
-1.3192246e-90
3.0377622e-90
-6.0375434e-91
-7.6870368e-91
-1.0327502e-89
-1.8803869e-90
-1.9656501e-90
-5.9908257e-90
-9.7817973e-91
-4.2299443e-90
-1.2243921e-89
-6.4771393e-90
-1.0187171e-89
-9.0503747e-90
-6.2492475e-90
1.4158418e-89
-6.2423488e-90
-2.1398256e-89
-1.9333384e-90
-2.6362526e-90
1.9070309e-90
-1.7226273e-06
2.1079845e-15
-3.8961355e-24
4.8154389e-32
6.8495074e-40
1.9545409e-47
3.0569535e-54
1.2149238e-60
3.271781e-67
7.9706929e-74
1.8228969e-80
4.4342464e-87
1.1430133e-93
4.1591936e-96
8.1192806e-97
5.3391194e-97
1.7128823e-96
9.3257648e-97
4.8837246e-96
1.3757151e-96
-1.7808056e-96
1.3734231e-96
2.2733991e-96
5.9913592e-96
2.2168776e-96
4.363211e-96
5.4579275e-96
1.3862984e-96
5.1716251e-96
9.6949056e-96
6.5562041e-96
1.2847752e-95
5.5057349e-96
3.3362665e-96
-9.2758354e-96
7.0790614e-96
4.0032037e-95
2.0801982e-96
3.6676349e-96
5.2754883e-97
-1.4300564e-06
1.4304829e-15
-2.0107516e-24
1.3801416e-32
1.8036525e-40
3.7578775e-48
4.235636e-55
2.0172035e-61
5.5772151e-68
1.4209525e-74
3.0354463e-81
8.4606543e-88
2.1950514e-94
5.0508267e-101
-2.62744e-103
-3.1643536e-103
-1.3869379e-102
-3.6613158e-103
-2.8245997e-102
-1.1210377e-102
1.271261e-102
-7.333452e-103
-8.9645458e-103
-4.4677135e-102
-9.1591319e-103
-1.4201516e-102
-2.6143865e-102
-1.061815e-102
-3.5118014e-102
-2.9030538e-102
-2.4784834e-102
-7.1655489e-102
-4.508031e-102
-2.0179527e-102
7.1166278e-102
-4.3385412e-102
-3.0928246e-101
-3.3332556e-102
-1.3753665e-102
1.2967864e-103
-1.1924087e-06
9.8304105e-16
-1.0742236e-24
4.6199527e-33
5.8910615e-41
9.3364007e-49
6.595776e-56
2.834928e-62
1.1327422e-68
2.5526471e-75
5.9113565e-82
1.5584526e-88
3.6700417e-95
9.5769769e-102
2.3154982e-108
2.522136e-109
3.4934762e-109
4.3729601e-109
1.0703607e-108
7.5699316e-109
-5.3833374e-109
6.4267358e-109
9.743854e-109
3.2461145e-108
7.8894846e-109
1.0588489e-108
1.4127073e-108
8.8207129e-109
3.1651336e-108
2.4852771e-108
2.1591449e-108
6.0006446e-108
2.4453032e-108
1.6748932e-108
-3.7318211e-108
4.2838384e-108
2.1757123e-107
2.042585e-108
2.0070416e-108
2.9117769e-110
-9.9909751e-07
6.8353608e-16
-5.9008825e-25
1.6987942e-33
2.3199359e-41
2.8584638e-49
1.379645e-56
5.534118e-63
1.5752198e-69
4.3180216e-76
1.043599e-82
2.9146115e-89
6.6275377e-96
1.9068227e-102
4.1498924e-109
-2.1342988e-116
-4.1180205e-115
-2.573143e-115
-5.0496645e-115
-3.5035676e-115
5.4606554e-115
-3.1391709e-115
-6.3549968e-115
-1.3492268e-114
-4.1752159e-115
-3.5173363e-115
-1.0369995e-114
-5.0591589e-115
-1.5989138e-114
-1.4531871e-114
-1.5750692e-114
-3.1525085e-114
-2.1224054e-114
-1.4053147e-114
4.3343905e-114
-2.5527146e-114
-1.097027e-113
-1.8480641e-114
-1.591947e-114
6.8040381e-117
-8.4001523e-07
4.8004192e-16
-3.3201398e-25
6.7516672e-34
1.1483072e-41
1.1474899e-49
3.9501227e-57
1.3650627e-63
5.3966408e-70
1.3298113e-76
3.4106592e-83
8.2256708e-90
2.1388848e-96
4.8376061e-103
1.3769977e-109
3.1480011e-116
2.0805401e-121
1.1943767e-121
3.7036334e-121
2.7480199e-121
-1.9712931e-121
2.046847e-121
2.5183318e-121
1.7904404e-120
3.8815954e-121
1.2225524e-121
1.0084753e-120
3.0114299e-121
5.2871866e-121
1.5405365e-120
8.4872086e-121
2.4124619e-120
1.1702333e-120
1.2346648e-120
-2.0880446e-120
1.3476483e-120
7.2562008e-120
1.374085e-120
8.6880236e-121
1.6524493e-123
-7.1089187e-07
3.4116232e-16
-1.9116826e-25
2.836094e-34
9.1802171e-42
7.5536771e-50
1.8907087e-57
4.5253417e-64
2.322719e-70
6.6227416e-77
1.6796944e-83
4.4944388e-90
1.1267451e-96
2.777459e-103
7.1598164e-110
1.7448623e-116
4.3671545e-123
-8.1103997e-128
-1.7216011e-127
-1.1708477e-127
1.6046726e-127
-1.772185e-127
-1.0628247e-127
-1.4607851e-126
-1.7334664e-127
-1.3052828e-127
-6.9240455e-127
-3.2410912e-127
-6.2888152e-127
-7.1481476e-127
-6.9440546e-127
-1.4449569e-126
-6.0497213e-127
-5.2040693e-127
1.6955299e-126
-9.2442964e-127
-5.9213425e-126
-1.2243988e-126
-5.7759376e-127
3.6598215e-130
-6.0422635e-07
2.4464575e-16
-1.121459e-25
1.2477329e-34
-1.052262e-41
-7.3791139e-50
-1.3474971e-57
-1.8717667e-64
-8.9071539e-71
-2.7923601e-77
-6.5822861e-84
-1.8139141e-90
-4.9900491e-97
-1.2354873e-103
-3.0528212e-110
-8.8867372e-117
-2.3319197e-123
-5.3925189e-130
1.4407712e-133
1.0677024e-133
-7.4656948e-134
5.6089294e-134
8.8699315e-134
7.204408e-133
1.5932002e-133
6.4925857e-134
4.9709606e-133
1.3626002e-133
2.8673367e-133
6.5462624e-133
3.8728501e-133
6.9698753e-133
2.787073e-133
3.5979265e-133
-1.236902e-132
9.411895e-133
4.695322e-132
9.1104242e-133
7.8824307e-133
7.8436452e-137
-5.1633339e-07
1.7718813e-16
-6.7028088e-26
5.717802e-35
-7.4349437e-43
-4.5488843e-51
-6.2718636e-59
-5.7569586e-66
-6.0362168e-72
-1.8680783e-78
-4.1387358e-85
-1.0441582e-91
-2.6539242e-98
-6.6034844e-105
-1.6603709e-111
-3.8374894e-118
-9.4292615e-125
-2.1019084e-131
-5.9446404e-138
-7.6257678e-140
6.1042261e-140
-4.3074203e-140
-4.2102352e-140
-3.9951231e-139
-8.3398536e-140
-3.3445158e-140
-2.7709693e-139
-8.1762205e-140
-1.4796765e-139
-4.8533631e-139
-2.675938e-139
-9.4828351e-139
-2.4940248e-139
-1.9424733e-139
1.0282626e-138
-3.4894726e-139
-5.0595394e-138
-3.8056762e-139
-3.381461e-139
1.9417703e-143
-4.4259113e-07
1.2931822e-16
-4.0675303e-26
2.7032974e-35
-1.6294748e-43
-8.9658281e-52
-9.6276553e-60
-5.9810797e-67
-5.7014203e-73
-2.1491718e-79
-5.3518007e-86
-1.4311155e-92
-3.5305679e-99
-9.670186e-106
-2.4598762e-112
-6.1918012e-119
-1.4273286e-125
-3.571417e-132
-8.0418437e-139
-1.9482365e-145
-6.6055693e-146
2.8539039e-146
1.5283382e-146
2.3109633e-145
6.3118429e-146
2.2235395e-146
1.1299772e-145
6.5014319e-146
1.9121434e-145
3.5344493e-145
1.0322995e-145
3.3870906e-145
1.5842508e-145
1.7955207e-145
-4.3553768e-145
3.0202418e-145
3.2176701e-144
4.0914725e-145
2.6999506e-145
4.8389715e-150
-3.8093619e-07
9.5120505e-17
-2.5042259e-26
1.3169984e-35
-4.6052493e-44
-2.3515647e-52
-2.0021141e-60
-8.5635299e-68
-7.9820019e-74
-3.0484372e-80
-7.3242941e-87
-1.6987266e-93
-3.6989245e-100
-9.41402e-107
-2.3949153e-113
-6.6873738e-120
-1.8257425e-126
-4.6446133e-133
-1.1139515e-139
-3.053825e-146
2.6105707e-152
-1.462036e-152
-1.739877e-152
-2.6443662e-151
-3.569271e-152
-1.1248522e-152
-8.2347514e-152
-1.0033636e-151
-5.7515528e-152
-2.1741466e-151
-6.3392164e-152
-1.7828362e-151
-8.6230547e-152
-8.5829044e-152
4.13424e-151
-3.1888242e-151
-2.1937402e-150
-2.7380517e-151
-2.4957662e-151
1.0862711e-156
-3.2876345e-07
7.0400384e-17
-1.560412e-26
6.5732766e-36
-1.4851522e-44
-7.2910023e-53
-4.9998548e-61
-1.5443459e-68
-6.9056409e-75
-3.8946812e-81
-9.7958007e-88
-2.2546028e-94
-5.238158e-101
-1.2096128e-107
-2.8398878e-114
-7.2237145e-121
-1.7009578e-127
-3.8457024e-134
-9.3565187e-141
-2.1539888e-147
-5.6936138e-154
1.7079273e-158
6.1155931e-159
1.8573546e-157
2.9876007e-158
1.3145792e-158
5.3768051e-158
4.2646723e-158
6.4147887e-158
1.8400995e-157
6.3736401e-158
1.3388023e-157
7.3513497e-158
5.9817236e-158
-2.4975762e-157
1.45297e-157
1.5791202e-156
2.335298e-157
1.8561139e-157
3.2559943e-163
-2.8465493e-07
5.2456107e-17
-9.8401375e-27
3.3574297e-36
-5.2220433e-45
-2.5678985e-53
-1.4498784e-61
-3.2943313e-69
-1.1551229e-75
-7.2787882e-82
-2.0548773e-88
-5.1875675e-95
-1.0837163e-101
-3.011252e-108
-7.2477042e-115
-1.771939e-121
-4.0917837e-128
-9.9693277e-135
-2.6054633e-141
-6.7476886e-148
-1.5821591e-154
-3.5114138e-161
-5.0891083e-165
-6.0122451e-164
-1.4921826e-164
-5.7072209e-165
-2.9539786e-164
-3.3647764e-164
-3.1508838e-164
-8.998411e-164
-3.0543931e-164
-1.376449e-163
-5.1277665e-164
-3.7698279e-164
3.3376591e-163
-7.5303023e-164
-1.0947842e-162
-2.620431e-163
-1.6768684e-163
2.6135081e-170
-2.4713472e-07
3.9313122e-17
-6.2724721e-27
1.7494315e-36
-1.9518732e-45
-1.0288275e-53
-4.8719714e-62
-8.1032956e-70
-1.7573722e-76
-1.8796885e-82
-5.871607e-89
-1.5428704e-95
-3.6716325e-102
-7.7327545e-109
-1.7522201e-115
-4.5061662e-122
-1.0882039e-128
-2.7450071e-135
-6.7691261e-142
-1.7301381e-148
-4.9001235e-155
-1.3694632e-161
-3.3760064e-168
6.9760324e-170
1.005599e-170
2.5178177e-171
2.2667893e-170
1.9073848e-170
3.5886686e-170
6.374507e-170
2.5692911e-170
1.0962688e-169
2.7423877e-170
3.7336842e-170
-1.8493921e-169
6.3513752e-170
7.5859091e-169
1.298717e-169
7.4732542e-170
3.7756697e-176
-2.1504622e-07
2.9623579e-17
-4.0379564e-27
9.2855135e-37
-7.6782068e-46
-4.8178539e-54
-1.9376809e-62
-2.4636096e-70
-3.3110807e-77
-2.4374827e-82
-6.4339534e-89
-1.4813724e-95
-3.7088838e-102
-8.7997154e-109
-1.8862354e-115
-4.945114e-122
-1.2144173e-128
-3.0606463e-135
-7.0087053e-142
-1.8326943e-148
-4.3268422e-155
-1.0492937e-161
-2.603883e-168
-6.3252026e-175
-8.5910299e-177
-2.0770294e-177
-1.1826433e-176
-1.337629e-176
-1.8103607e-176
-2.9874867e-176
-1.3209901e-176
-6.2842045e-176
-2.4474382e-176
-1.9443644e-176
1.0957026e-175
-4.7703387e-176
-3.9278243e-175
-6.5406418e-176
-6.7364737e-176
-1.388528e-182
-1.8755506e-07
2.242828e-17
-2.6226692e-27
5.0096838e-37
-3.1472206e-46
-2.8896983e-54
-1.0102284e-62
-9.9446998e-71
-8.4563247e-78
6.7915993e-83
2.2074939e-89
4.9602325e-96
1.4315289e-102
3.4191025e-109
8.4508989e-116
2.2107273e-122
4.9361397e-129
1.196121e-135
2.5314058e-142
6.4308436e-149
1.5917492e-155
3.8536433e-162
8.6034369e-169
2.0489616e-175
4.7694744e-182
1.2562882e-183
7.2036589e-183
7.7701425e-183
8.4030216e-183
2.5028428e-182
1.3922009e-182
7.2673213e-182
3.1106969e-182
2.443104e-182
-7.3599681e-182
3.2615745e-182
2.8046104e-181
1.1471382e-181
3.3426925e-182
8.079886e-189
-1.6390305e-07
1.7062741e-17
-1.7181219e-27
2.7444361e-37
-1.3350378e-46
-4.2070607e-54
-1.2968471e-62
-1.0107242e-70
-5.575444e-78
1.4475357e-83
6.3993366e-90
1.5692182e-96
3.5889118e-103
7.9192785e-110
1.8548837e-116
4.1843629e-123
1.0013785e-129
2.4134363e-136
5.3042819e-143
1.2377089e-149
2.71999e-156
6.8800798e-163
1.605736e-169
3.7680622e-176
8.1374591e-183
1.1623377e-189
-4.9340271e-189
-1.3462649e-188
-4.0089867e-189
-1.9548274e-188
-4.888848e-189
-8.2105885e-188
-1.0576833e-188
-9.6510715e-189
5.6224904e-188
-1.4844464e-188
-1.5347886e-187
-4.7170631e-187
-1.3802421e-188
-3.638746e-195
-1.4353328e-07
1.3036785e-17
-1.134272e-27
1.5245507e-37
-5.8342738e-47
7.3714098e-55
2.0336445e-63
1.2728942e-71
4.9505209e-79
-1.2848777e-84
-5.7708023e-91
-1.5180238e-97
-3.1113607e-104
-7.1831355e-111
-1.6938999e-117
-4.1990164e-124
-9.0696824e-131
-1.9894646e-137
-4.8641573e-144
-1.2156742e-150
-2.6685326e-157
-6.3567441e-164
-1.5483911e-170
-3.8625588e-177
-9.0582742e-184
-2.1353566e-190
3.4446933e-195
5.7254426e-195
2.2777461e-195
1.2236309e-194
5.8230347e-195
3.4222655e-194
1.1559922e-194
8.6027253e-195
-5.7622337e-194
8.5082674e-195
9.4440101e-194
3.3250219e-193
1.0689188e-194
2.8960682e-201
-1.2588329e-07
9.9996889e-18
-7.5422228e-28
8.5774831e-38
-2.6171546e-47
1.1471846e-55
2.8930295e-64
1.4732134e-72
4.0148813e-80
3.7018649e-86
2.2426875e-92
6.9312447e-99
1.4692382e-105
3.4374538e-112
9.0463423e-119
2.152888e-125
5.4296062e-132
1.3691081e-138
3.6007423e-145
8.4976353e-152
2.3855613e-158
6.0625589e-165
1.4235837e-171
3.2287895e-178
8.3146981e-185
1.8855013e-191
4.2171878e-198
-5.0262645e-201
-3.1868662e-201
-8.2282646e-201
-2.3854345e-201
-4.4637559e-200
-5.1783068e-201
-7.4888683e-201
3.2799399e-200
-8.0634432e-201
-7.0643916e-200
-1.4312803e-199
-2.4769628e-201
-1.3383685e-208
-1.1062213e-07
7.7010869e-18
-5.0506942e-28
4.8842416e-38
-1.20196e-47
2.8304974e-56
6.6536229e-65
2.8074083e-73
5.7434326e-81
6.2260394e-87
1.1533356e-92
3.297806e-99
8.0445556e-106
1.9773207e-112
4.4525799e-119
1.0519702e-125
2.8604856e-132
6.9303392e-139
1.6110233e-145
4.0945263e-152
1.0676695e-158
2.4462033e-165
6.1339115e-172
1.5656743e-178
3.3199981e-185
7.3955052e-192
1.7174497e-198
4.2812043e-205
2.2269351e-207
1.1560636e-206
2.1516986e-207
3.5608525e-206
3.1104774e-207
6.4452702e-207
-3.1375197e-206
7.4342049e-207
3.9543923e-206
1.346296e-205
1.5911409e-207
6.1352671e-214
-9.7366904e-08
5.9529852e-18
-3.4047453e-28
2.8132919e-38
-5.6402947e-48
8.3254821e-57
1.8691785e-65
6.5995634e-74
1.0020755e-81
3.1541979e-88
1.5954816e-93
4.6297017e-100
9.3183778e-107
2.0713604e-113
4.8205077e-120
1.1607294e-126
2.7020126e-133
6.8102946e-140
1.697152e-146
4.5102525e-153
9.3196576e-160
2.1956169e-166
4.7521049e-173
1.1157747e-179
2.8020598e-186
6.4331908e-193
1.3964384e-199
3.6351807e-206
5.7724283e-213
-1.3306148e-212
-1.9106178e-213
-1.8722668e-212
-1.9381063e-213
-5.4044114e-213
1.1886913e-212
-6.4393726e-213
-1.2261002e-212
-5.079892e-212
-2.9279627e-214
1.0996648e-220
-8.5815139e-08
4.6167449e-18
-2.3086095e-28
1.636828e-38
-2.6977942e-48
2.7042148e-57
5.9522843e-66
1.7836269e-74
2.0926219e-82
3.6970508e-89
-8.6653055e-95
-2.5398749e-101
-5.2914843e-108
-1.1892019e-114
-2.8781325e-121
-7.0149765e-128
-1.7506326e-134
-3.6028068e-141
-9.0053268e-148
-2.3561401e-154
-5.7547571e-161
-1.5083138e-167
-3.7761313e-174
-8.0279624e-181
-2.0167247e-187
-4.910565e-194
-1.1254216e-200
-2.8883053e-207
-6.6375401e-214
2.1330496e-218
1.4169889e-219
1.6721571e-218
8.6509834e-220
5.667453e-219
-1.2998593e-218
3.3153966e-219
1.5766511e-218
2.7145681e-218
2.0996629e-220
1.276275e-226
-7.5742162e-08
3.591466e-18
-1.5741994e-28
9.6165932e-39
-1.3131629e-48
9.4051033e-58
2.1049139e-66
5.4295966e-75
4.9476297e-83
5.3483329e-90
-6.528818e-96
-2.4650038e-102
-6.3544725e-109
-1.3609933e-115
-3.433229e-122
-7.5862574e-129
-1.883651e-135
-4.6724398e-142
-1.152986e-148
-2.6806883e-155
-6.5712197e-162
-1.4078701e-168
-3.4361934e-175
-8.6867304e-182
-2.2799694e-188
-5.1436026e-195
-1.4162329e-201
-3.5265117e-208
-8.203361e-215
-1.8550738e-221
-1.490062e-225
-1.085846e-224
-5.2113938e-226
-2.5951063e-225
9.1878076e-225
-2.521008e-225
-1.2539072e-224
-1.4312301e-224
-6.1106494e-227
2.1701136e-233
-6.6940661e-08
2.8025629e-18
-1.07924e-28
5.7012995e-39
-6.4970583e-49
3.4477614e-58
8.2387893e-67
1.8505565e-75
1.3397859e-83
9.6010976e-91
-8.9058253e-97
-4.5172134e-103
-1.0540128e-109
-2.5172831e-116
-5.4194825e-123
-1.2268659e-129
-2.925075e-136
-5.9361044e-143
-1.3805675e-149
-3.2459253e-156
-7.8730916e-163
-2.3085736e-169
-5.8316508e-176
-1.3863776e-182
-3.2816555e-189
-7.9534033e-196
-1.7463547e-202
-4.8652453e-209
-1.1783919e-215
-3.0499984e-222
-6.4132229e-229
7.8914977e-231
2.9307026e-232
2.4434246e-231
-5.0553681e-231
2.4142595e-231
1.5853291e-230
7.0849928e-231
2.1580949e-233
1.5915532e-239
-5.9233318e-08
2.1928815e-18
-7.4358084e-29
3.4086839e-39
-3.2622834e-49
1.3168017e-58
3.620351e-67
7.1615629e-76
4.1613515e-84
1.9641343e-91
-1.2887938e-97
-6.138862e-104
-1.5287037e-110
-3.3472124e-117
-8.7088218e-124
-1.9294922e-130
-4.6549758e-137
-9.8928248e-144
-2.072776e-150
-4.7048534e-157
-1.2000118e-163
-3.077325e-170
-6.9957583e-177
-1.4312919e-183
-3.4023295e-190
-7.7871298e-197
-2.155258e-203
-5.3361958e-210
-1.1876762e-216
-3.303582e-223
-6.3284217e-230
-2.3093212e-236
-2.0162506e-238
-1.1112737e-237
4.7136245e-237
-1.3466421e-237
-1.0562393e-236
-4.5845003e-237
-7.9196605e-240
1.7609612e-246
-5.2467304e-08
1.7201266e-18
-5.1466153e-29
2.0541083e-39
-1.6607975e-49
5.204607e-59
1.8882074e-67
3.3280784e-76
1.5836013e-84
5.164896e-92
-3.1092939e-98
-1.9500686e-104
-4.7862639e-111
-1.0753336e-117
-2.4917018e-124
-5.2563224e-131
-1.1869712e-137
-2.8827796e-144
-7.40727e-151
-2.0033295e-157
-5.3026024e-164
-1.2086205e-170
-3.2417506e-177
-8.2264803e-184
-2.0468302e-190
-4.8970197e-197
-1.2182014e-203
-3.3262817e-210
-8.393273e-217
-2.0365744e-223
-3.9991873e-230
-1.2992526e-236
-2.7593401e-244
7.0764973e-244
-3.7750249e-243
7.8561953e-244
3.4763038e-243
1.8157504e-243
3.325926e-246
1.5600365e-252
-4.6526476e-08
1.3527043e-18
-3.5781463e-29
1.2471301e-39
-8.5647175e-50
2.1189768e-59
1.4454217e-67
2.2985569e-76
9.0298978e-85
2.1542911e-92
-1.5987868e-98
-2.1686648e-104
-6.3034691e-111
-1.4181327e-117
-3.1579159e-124
-7.1122221e-131
-1.7274894e-137
-4.6473946e-144
-1.0498426e-150
-2.3645821e-157
-6.0570983e-164
-1.3983154e-170
-3.5302398e-177
-9.8422138e-184
-2.289601e-190
-5.6673805e-197
-1.517491e-203
-3.6236293e-210
-9.1617736e-217
-2.4331973e-223
-5.4723047e-230
-1.3656373e-236
-3.8842888e-243
-8.5699817e-250
1.8287416e-249
-5.957133e-250
-2.2872295e-249
-9.8648086e-250
-2.6747047e-252
-7.3168854e-259
-4.1291592e-08
1.0659599e-18
-2.4973797e-29
7.6233934e-40
-4.4688487e-50
8.8494004e-60
-2.8368922e-67
-4.1250503e-76
-1.3569275e-84
-2.3903079e-92
-4.6922916e-98
-1.3122092e-103
-3.4528872e-110
-8.3106718e-117
-2.1137182e-123
-4.8467455e-130
-1.146582e-136
-2.6049953e-143
-6.3561955e-150
-1.4886479e-156
-3.7982315e-163
-9.3186558e-170
-2.2203502e-176
-5.6246613e-183
-1.2887244e-189
-3.0615538e-196
-6.7885111e-203
-1.6202978e-209
-3.8462647e-216
-1.0062431e-222
-2.7535555e-229
-7.4679404e-236
-1.6450265e-242
-3.9043293e-249
-2.0942955e-255
7.3670041e-256
1.6199447e-255
4.3436542e-256
7.3934166e-258
-2.3569882e-264
-3.6676583e-08
8.4168198e-19
-1.749626e-29
4.6901858e-40
-2.3576597e-50
3.7811142e-60
-1.4148666e-68
-1.9078594e-77
-5.2970633e-86
-7.0943542e-94
-3.6901687e-100
1.3204345e-105
4.8901105e-112
1.3445274e-118
3.1322838e-125
6.9671665e-132
1.6430457e-138
3.9724688e-145
1.0797205e-151
2.6870393e-158
6.5856117e-165
1.5055589e-171
3.5346264e-178
8.2058144e-185
2.056006e-191
4.9700366e-198
1.21066e-204
2.9343372e-211
7.302093e-218
1.7778479e-224
4.2972074e-231
1.1705118e-237
2.2453554e-244
6.4251574e-251
1.0826831e-257
-2.587751e-262
-8.1513568e-262
-4.6430144e-262
6.0359868e-263
6.8617027e-270
-3.260217e-08
6.6582092e-19
-1.2300299e-29
2.9030044e-40
-1.2567014e-50
1.6494964e-60
-2.8775647e-69
-3.6572138e-78
-8.6659162e-87
-9.0885124e-95
-2.0590937e-101
2.0797285e-107
6.7760779e-114
1.5715609e-120
3.7869119e-127
1.0992751e-133
2.404571e-140
5.7387403e-147
1.397901e-153
3.2045019e-160
6.7889718e-167
1.8365772e-173
4.8584204e-180
1.2317119e-186
3.0475707e-193
7.5334394e-200
2.0595773e-206
4.8853922e-213
1.2999539e-219
3.4868425e-226
8.3121345e-233
1.924786e-239
5.3300047e-246
6.3946337e-253
6.6614614e-259
-3.0302532e-265
4.5365043e-268
3.1248644e-268
5.9579642e-269
7.7849007e-276
-2.9000288e-08
5.2760268e-19
-8.6752934e-30
1.8069654e-40
-6.7633649e-51
7.3283698e-61
-7.6211056e-70
-9.275569e-79
-1.8958934e-87
-1.5717147e-95
-1.9748257e-102
1.6974337e-108
5.9965828e-115
1.388335e-121
3.2365835e-128
7.5220819e-135
1.7132601e-141
3.700458e-148
8.7032975e-155
2.3366309e-161
5.787861e-168
1.624601e-174
3.4333816e-181
8.5141124e-188
2.3216508e-194
5.1143394e-201
1.2858719e-207
3.3442135e-214
8.2672018e-221
1.9075187e-227
4.9343032e-234
1.0469995e-240
3.2873313e-247
1.6845473e-254
6.4018046e-260
-4.1678852e-266
3.6654342e-272
-1.8538139e-274
3.5560717e-275
4.7343107e-282
-2.5813123e-08
4.187303e-19
-6.1369497e-30
1.130691e-40
-3.6728777e-51
3.311683e-61
-2.2925725e-70
-2.7329099e-79
-4.8667494e-88
-3.2137481e-96
-2.3359392e-103
1.4500118e-109
7.3598331e-116
1.7395543e-122
4.1355578e-129
8.8027053e-136
2.2834538e-142
5.5020158e-149
1.2146797e-155
3.2172175e-162
7.5477431e-169
1.8790823e-175
4.4119332e-182
1.0619795e-188
2.6622245e-195
6.034892e-202
1.5069999e-208
3.564664e-215
7.8152547e-222
1.8006144e-228
4.3799519e-235
1.0208356e-241
3.2744353e-248
4.8418242e-255
3.203661e-261
-2.4555577e-268
9.597529e-274
-1.851657e-281
2.2082838e-281
2.9501358e-288
-2.2986996e-08
3.3275814e-19
-4.3529195e-30
7.1093271e-41
-2.0111725e-51
1.5199129e-61
-7.4556283e-71
-8.9233557e-80
-1.3965214e-88
-7.5009006e-97
-3.5403617e-104
1.5839066e-110
1.1860161e-116
2.9281057e-123
7.6143793e-130
1.969352e-136
4.3931153e-143
1.09342e-149
2.3536797e-156
5.7428207e-163
1.3679651e-169
3.1552153e-176
7.8803931e-183
1.7704593e-189
4.4660189e-196
1.1028076e-202
2.5347089e-209
5.6786571e-216
1.3733994e-222
3.4695571e-229
8.5975188e-236
1.9862961e-242
5.3462692e-249
9.9821064e-256
5.5136845e-262
-4.1726969e-269
8.5176557e-275
-2.5355738e-281
3.3315679e-287
-1.6782953e-293
-2.0481206e-08
2.6477523e-19
-3.0953311e-30
4.4905027e-41
-1.1099576e-51
7.0757672e-62
-2.5650998e-71
-3.1882382e-80
-4.4230016e-89
-1.9573066e-97
-6.7378386e-105
4.1898987e-111
3.273068e-117
8.4273202e-124
1.7225416e-130
4.4615763e-137
1.1162292e-143
2.472281e-150
5.9428101e-157
1.7135783e-163
4.1143028e-170
9.3167677e-177
2.0019482e-183
5.4864166e-190
1.2291158e-196
2.8150209e-203
7.660622e-210
1.8515877e-216
4.4909331e-223
1.0349291e-229
2.4906689e-236
5.4760818e-243
1.6074548e-249
3.2822289e-256
1.4567781e-262
-2.6441359e-272
1.4931145e-275
-4.3558801e-282
2.6934259e-288
1.6489118e-294
-1.8256489e-08
2.10912e-19
-2.2060748e-30
2.8482653e-41
-6.1703864e-52
3.3377797e-62
-9.2124606e-72
-1.245143e-80
-1.5493856e-89
-5.7121829e-98
-1.4262661e-105
1.1706843e-111
1.4759354e-117
3.8406111e-124
7.8492475e-131
1.9184013e-137
4.4845588e-144
1.0148001e-150
2.2817797e-157
4.7383405e-164
1.2012119e-170
3.0322749e-177
6.6823685e-184
1.6716474e-190
3.8561788e-197
9.6324497e-204
2.4901239e-210
6.7107652e-217
1.6001189e-223
3.9675255e-230
9.5953267e-237
2.3560451e-243
7.1177745e-250
1.4492953e-256
5.0655521e-263
1.9086208e-270
9.9875815e-276
-3.6983467e-282
3.8242268e-288
1.983934e-294
-1.6281353e-08
1.6819177e-19
-1.5757507e-30
1.8138968e-41
-3.4541857e-52
1.5938823e-62
-3.4254619e-72
-5.405907e-81
-6.0877197e-90
-1.8815646e-98
-3.5102154e-106
-1.9525625e-110
-6.8530674e-116
-1.9848929e-122
-5.3339143e-129
-1.1283258e-135
-2.564072e-142
-5.7343455e-149
-1.3337074e-155
-2.8775057e-162
-6.665682e-169
-1.7833305e-175
-4.3311284e-182
-1.008588e-188
-2.5381238e-195
-5.9556205e-202
-1.5317731e-208
-3.4859167e-215
-8.1031599e-222
-1.8558795e-228
-4.1117407e-235
-8.5324488e-242
-2.0073233e-248
-5.5267644e-255
-1.4277781e-261
-3.327418e-268
-7.8779778e-275
-1.9680985e-281
-1.5794409e-288
2.700234e-295
-1.4526226e-08
1.3425113e-19
-1.1277293e-30
1.1594402e-41
-1.9461579e-52
7.6990681e-63
-1.3115462e-72
-2.7526345e-81
-2.8332826e-90
-7.4308602e-99
-1.0648943e-106
-2.6182492e-112
6.5743001e-118
1.9282539e-124
4.5213454e-131
1.058005e-137
2.3052189e-144
6.198765e-151
1.545593e-157
3.7371997e-164
9.0352899e-171
2.1260953e-177
5.3086972e-184