/*--------------------------------*- C++ -*----------------------------------*\
  =========                 |
  \\      /  F ield         | OpenFOAM: The Open Source CFD Toolbox
   \\    /   O peration     | Website:  https://openfoam.org
    \\  /    A nd           | Version:  10
     \\/     M anipulation  |
\*---------------------------------------------------------------------------*/
FoamFile
{
    format      ascii;
    class       volScalarField;
    location    "0.24";
    object      TporMedia;
}
// * * * * * * * * * * * * * * * * * * * * * * * * * * * * * * * * * * * * * //

dimensions      [0 0 0 1 0 0 0];

internalField   nonuniform List<scalar> 
4000
(
0.00028153183
0.0001405343
0.00014070089
0.00013909065
0.00013986342
0.00014435101
0.00013799844
0.00013719131
0.00013058195
0.00013468992
0.00013154307
0.00012729738
0.00013454288
0.00013485871
0.00013983268
0.00013976537
0.00012599599
0.00013592043
0.00012437642
0.00013821093
0.00012874858
0.00014137366
0.00012503392
0.00012848957
0.00012830529
0.00013269637
0.00012454174
0.00013308104
0.00013984009
0.00014587295
0.0001312052
0.00013513276
0.00012944636
0.00012679338
0.00015073801
0.00012708957
0.00014585472
0.00013182275
0.00014273127
0.000133597
-0.023161201
-3.5311923e-09
2.8369905e-11
3.5121681e-11
3.1069485e-11
3.0336487e-11
3.3962074e-11
3.2052831e-11
3.5613912e-11
3.1254838e-11
3.0923864e-11
3.4006567e-11
3.9207016e-11
2.8136749e-11
3.6951448e-11
3.0999121e-11
3.0397215e-11
3.4310038e-11
2.931266e-11
2.9290265e-11
3.2435242e-11
3.3438499e-11
3.1310722e-11
2.8036244e-11
3.2674867e-11
3.5076924e-11
2.8841078e-11
3.3225638e-11
3.6102555e-11
3.4728073e-11
3.0934751e-11
3.5387201e-11
3.2568881e-11
3.327431e-11
4.0431774e-11
3.1876369e-11
3.6975333e-11
2.8162748e-11
3.1331698e-11
3.0656629e-11
-9.5435862e-05
-1.8363331e-11
1.486552e-18
6.975301e-18
7.4198114e-18
7.4994381e-18
7.6336454e-18
7.3048604e-18
7.8768774e-18
7.4967224e-18
6.9345687e-18
7.0921783e-18
9.6074611e-18
5.8442227e-18
9.0579554e-18
7.38176e-18
7.06112e-18
7.7674252e-18
6.7053906e-18
6.9530455e-18
7.1440416e-18
6.9457054e-18
7.5054099e-18
6.2109016e-18
7.2377379e-18
7.9135095e-18
6.2749937e-18
7.3053069e-18
7.9548386e-18
7.6086887e-18
6.8300362e-18
8.0607738e-18
7.5802909e-18
7.3621254e-18
9.5037247e-18
8.1109297e-18
7.1254262e-18
5.6336805e-18
7.5367487e-18
6.5627869e-18
-3.894675e-05
6.1727652e-11
6.3358612e-18
2.236689e-24
1.781031e-24
1.6677762e-24
1.7174835e-24
1.4529825e-24
1.8156714e-24
1.732649e-24
1.4924611e-24
1.731076e-24
2.485033e-24
1.3458535e-24
1.950588e-24
1.570151e-24
1.5720076e-24
1.7007008e-24
1.5029882e-24
1.4492233e-24
1.6256995e-24
1.5514872e-24
1.5589893e-24
1.3542321e-24
2.0229933e-24
1.7957319e-24
1.4371122e-24
1.6816494e-24
1.5935772e-24
1.5438786e-24
1.445497e-24
1.840271e-24
1.5969732e-24
1.779144e-24
2.0034505e-24
1.9317325e-24
1.6007886e-24
1.3789468e-24
1.6632021e-24
1.3565575e-24
-2.1545968e-05
1.5733371e-12
1.4350466e-19
1.8592192e-26
4.1248901e-31
3.5650209e-31
3.4922003e-31
3.1251619e-31
3.7011349e-31
3.7447072e-31
3.1399699e-31
4.1425537e-31
6.4180913e-31
3.1300085e-31
4.383344e-31
3.3237783e-31
3.8246513e-31
4.445037e-31
3.917524e-31
3.2604725e-31
4.0710189e-31
3.3753862e-31
4.2055534e-31
2.8828918e-31
4.9176363e-31
3.8561966e-31
3.1295408e-31
4.2770051e-31
3.7149027e-31
3.7244332e-31
3.2016335e-31
4.1836217e-31
3.4458005e-31
4.0705973e-31
5.3431658e-31
4.6769568e-31
3.6726068e-31
3.4044475e-31
3.5038544e-31
2.9642566e-31
-1.3723346e-05
3.9632803e-13
3.90299e-20
3.5659004e-27
8.1062985e-34
8.5349109e-38
9.2221826e-38
6.8414805e-38
8.5915776e-38
8.052311e-38
8.0881632e-38
1.0244442e-37
1.3352666e-37
7.6634662e-38
9.6491462e-38
7.8791853e-38
8.6922687e-38
1.147296e-37
8.4010774e-38
9.1013643e-38
9.6882023e-38
8.6087967e-38
9.5908358e-38
7.0175957e-38
1.1119274e-37
1.0159329e-37
7.6027166e-38
1.1381712e-37
8.4595923e-38
8.9178615e-38
7.235942e-38
8.9391641e-38
9.0668999e-38
9.0495677e-38
1.2614815e-37
1.0337573e-37
9.1600146e-38
7.0588242e-38
8.2516411e-38
7.7897258e-38
-9.7111807e-06
1.4791423e-13
4.2182912e-20
2.7730888e-27
4.2188869e-34
9.6912512e-41
2.133654e-44
1.5799976e-44
2.0867533e-44
1.7957379e-44
2.0342876e-44
2.4036055e-44
3.3821348e-44
1.6791168e-44
2.4076694e-44
1.8104575e-44
2.2119231e-44
3.0824273e-44
1.8669486e-44
2.0994065e-44
2.2887101e-44
2.045862e-44
2.5308808e-44
1.7436905e-44
2.5367761e-44
2.5386807e-44
1.8930868e-44
2.6805773e-44
2.6473754e-44
1.9746041e-44
1.6215132e-44
1.9508362e-44
2.3241489e-44
2.1111956e-44
3.2048477e-44
2.8469784e-44
2.5785584e-44
1.6918006e-44
2.1872846e-44
1.7812732e-44
-7.2915835e-06
6.8376812e-14
-6.5182232e-21
-3.089918e-28
-3.509512e-35
-1.0125623e-41
-2.7033997e-48
4.2750595e-51
4.5699514e-51
4.1560078e-51
5.060416e-51
6.4187232e-51
8.4147396e-51
4.0280913e-51
6.1666416e-51
4.3455476e-51
4.9255591e-51
7.9528657e-51
3.9435253e-51
5.4646383e-51
5.8007558e-51
4.5564518e-51
5.4446153e-51
4.2218483e-51
6.3385936e-51
5.9614018e-51
4.5473527e-51
6.6877987e-51
6.076266e-51
4.5834287e-51
4.2643937e-51
5.224041e-51
5.6423397e-51
5.1574732e-51
8.1498139e-51
5.7500954e-51
5.908235e-51
4.5923052e-51
5.2253028e-51
4.8884474e-51
-5.7682969e-06
3.614883e-14
-1.0702196e-21
-4.2660658e-29
-3.2633748e-36
-7.0442497e-43
-2.0487194e-49
-4.825752e-56
1.2363452e-57
1.05803e-57
1.1995934e-57
1.7306011e-57
2.4223205e-57
1.0539788e-57
1.4245184e-57
1.2041261e-57
1.4173522e-57
2.2927956e-57
1.2743115e-57
1.3432052e-57
1.3940786e-57
1.3255028e-57
1.3880246e-57
1.2056777e-57
1.9772779e-57
1.5525132e-57
1.3366967e-57
1.6372163e-57
1.7411369e-57
1.8877179e-57
1.1700723e-57
1.3690142e-57
1.6895676e-57
1.3688794e-57
2.18362e-57
2.870439e-57
1.4338294e-57
1.4582948e-57
1.2674796e-57
1.0997362e-57
-4.6812774e-06
2.0907189e-14
-2.9874283e-22
-1.1381415e-29
-5.7112908e-37
-1.0511473e-43
-2.8899536e-50
-5.9651894e-57
-1.1473928e-63
2.5113961e-64
3.3854764e-64
3.8667695e-64
6.2563941e-64
2.2793024e-64
3.3615419e-64
2.4898924e-64
3.2437828e-64
5.3834745e-64
1.7449218e-64
3.1427691e-64
3.2772664e-64
3.0031179e-64
2.4663631e-64
1.7326003e-64
3.3931464e-64
3.5736654e-64
1.2340966e-64
4.0723588e-64
4.3348409e-64
1.9102569e-64
1.8155688e-64
2.5249138e-64
3.4005134e-64
3.3394654e-64
4.593664e-64
-2.8143995e-64
3.2672228e-64
3.0037227e-64
2.6759077e-64
2.8346804e-64
-3.8670592e-06
1.2869688e-14
-1.0735204e-22
-4.4694254e-30
-1.6152575e-37
-2.120314e-44
-6.7917468e-51
-2.14529e-57
-5.3417736e-64
-2.7876357e-71
7.880979e-71
9.857365e-71
1.8234106e-70
8.5276129e-71
1.0793789e-70
1.2972821e-70
9.239448e-71
2.0209922e-70
8.430285e-71
9.9500531e-71
8.9825551e-71
1.0188654e-70
1.0546215e-70
2.1938271e-70
1.6453294e-70
1.0703408e-70
2.4063453e-70
1.2191928e-70
1.3529926e-70
2.1653894e-70
1.4104796e-70
8.5986422e-71
1.3746304e-70
1.2303184e-70
1.7569488e-70
6.2181965e-70
1.6476959e-70
1.5144301e-70
1.0169901e-70
7.7593922e-71
-3.1921055e-06
8.1461403e-15
-4.3471718e-23
-2.8875841e-30
-7.8717225e-38
-6.7717635e-45
-1.9848952e-51
-5.020904e-58
-1.4263944e-64
-3.5252273e-71
6.7254786e-78
2.0140489e-77
2.545973e-77
7.8208685e-78
1.7961536e-77
-4.0280041e-78
1.4328088e-77
2.6330042e-77
-4.1057594e-78
1.2509435e-77
1.6936422e-77
8.9544757e-78
-1.4758054e-77
-6.4854403e-77
-1.3900183e-77
1.9674043e-77
-7.6023511e-77
1.8577425e-77
1.8103726e-77
-9.9136164e-77
-2.5757677e-77
6.1390332e-78
-1.6048074e-77
9.4752009e-78
-2.5200647e-77
-3.475552e-76
-2.2728752e-78
-3.9066335e-78
8.0333531e-78
2.4994051e-77
-2.6403453e-06
5.2759276e-15
-1.9319394e-23
5.9688271e-30
1.2569319e-37
7.3252201e-45
1.9933814e-51
7.3566735e-58
1.8878072e-64
4.2411652e-71
1.0667889e-77
1.4006474e-83
2.3172249e-83
2.0750638e-83
8.4916695e-84
1.955198e-83
9.0198532e-84
2.4168688e-83
2.1437579e-83
1.4260965e-83
8.3784455e-84
2.3842476e-83
3.1292694e-83
6.534044e-83
3.8122814e-83
7.8011997e-84
8.7957342e-83
1.4610828e-83
1.123153e-83
4.1586642e-83
4.2924473e-83
1.3542647e-83
3.9577438e-83
2.223951e-83
4.8253085e-83
1.6010997e-82
3.0604785e-83
2.0719419e-83
1.2878699e-83
6.1943707e-84
-2.1844648e-06
3.4845999e-15
-9.1466845e-24
2.7782716e-31
4.8050603e-39
1.9664279e-46
4.0989383e-53
1.2556458e-59
3.0821373e-66
7.5736331e-73
1.9925554e-79
4.5687299e-86
-5.6099776e-90
-1.1440146e-89
-3.0835908e-91
-1.1069177e-89
-9.3677178e-91
-4.2868097e-90
-8.2540095e-90
-5.2746522e-90
-4.513659e-91
-8.6669622e-90
-3.0671305e-89
-6.4580785e-89
-1.7687016e-89
-2.1733793e-91
-8.0240922e-89
-3.4714661e-90
-1.9617797e-90
-2.0516431e-89
-2.6942395e-89
-4.0520575e-90
-2.9574889e-89
-1.1584741e-89
-1.5748972e-89
-1.3732783e-88
-1.7809904e-89
-1.1002262e-89
-3.1537291e-90
1.5446268e-90
-1.8071266e-06
2.3281853e-15
-4.5284142e-24
5.9088878e-32
8.8730312e-40
2.6516493e-47
4.3323362e-54
1.3870527e-60
3.2566904e-67
9.4251329e-74
2.1563056e-80
5.6472374e-87
1.4467883e-93
5.8499134e-96
2.2337531e-96
9.3508635e-96
1.2295058e-96
3.7115263e-96
4.7047675e-96
4.1452388e-96
1.18969e-96
7.2065517e-96
1.0634099e-95
2.4630462e-95
2.9513698e-95
1.0550177e-96
5.6485632e-95
3.4392848e-96
3.1034842e-96
2.4494495e-95
1.8370775e-95
5.1765262e-96
2.4349577e-95
8.1902352e-96
1.681931e-95
1.0270958e-94
1.7267078e-95
1.1901543e-95
5.2928703e-96
3.9627938e-97
-1.5009946e-06
1.5778181e-15
-2.33537e-24
1.6911696e-32
2.3276472e-40
5.0782915e-48
5.3444071e-55
2.7872959e-61
8.8891608e-68
2.389448e-74
6.4430157e-81
1.6249178e-87
5.2328316e-94
1.3259364e-100
-9.0150401e-103
-6.942806e-102
-7.2594198e-103
-1.8260404e-102
-4.0823655e-102
-4.4073409e-102
-2.7714035e-103
-4.5468815e-102
-1.3043307e-101
-2.6000431e-101
-1.4462398e-101
-5.6153083e-103
-5.8055213e-101
-1.6996776e-102
-1.9703433e-102
-1.8743906e-101
-1.9178588e-101
-2.4502429e-102
-2.3180519e-101
-4.5950229e-102
-6.8255799e-102
-4.3442658e-101
-1.1667505e-101
-1.0740691e-101
-2.3162343e-102
1.0698141e-103
-1.2495252e-06
1.0815486e-15
-1.2424135e-24
5.6084672e-33
7.5061792e-41
1.2587955e-48
9.4111668e-56
4.5185433e-62
1.4965871e-68
3.5940942e-75
8.9571958e-82
2.2908802e-88
5.4070875e-95
1.4475598e-101
5.0964297e-108
4.4397384e-108
2.9744836e-109
1.5958787e-108
3.9313979e-108
2.9936576e-108
2.4938458e-109
2.4077679e-108
7.4850229e-108
2.5511094e-107
9.6269303e-108
6.3688201e-109
3.6430991e-107
1.2916691e-108
1.1353583e-108
1.057265e-107
2.0206826e-107
9.7023481e-109
3.228206e-107
5.7545589e-108
8.2295511e-108
1.7613025e-107
9.2527138e-108
1.1027995e-107
1.7368729e-108
2.3850277e-110
-1.0457727e-06
7.5049266e-16
-6.8054275e-25
2.0633116e-33
2.9305931e-41
3.8017109e-49
1.9412767e-56
7.4897503e-63
2.6762947e-69
7.9809415e-76
1.9400411e-82
5.2087083e-89
1.4741818e-95
4.0434676e-102
9.5205681e-109
-4.408525e-114
-3.4385008e-115
-7.3001654e-115
-3.7660181e-114
-1.4586675e-114
-1.6560561e-115
-2.7216572e-114
-3.3229559e-114
-1.2242035e-113
-4.8956323e-114
-4.36673e-115
-3.6241502e-113
-1.0593861e-114
-1.0032134e-114
-7.7322972e-114
-1.4669739e-113
-8.0239209e-115
-7.8796286e-114
-2.6300951e-114
-6.4830752e-114
-2.1098424e-113
-5.3584897e-114
-7.3343037e-114
-1.6490434e-114
6.5481324e-117
-8.7931986e-07
5.2668246e-16
-3.8219375e-25
8.1623337e-34
1.468857e-41
1.5383151e-49
5.5866537e-57
1.7933396e-63
8.5166507e-70
2.1387762e-76
5.1076861e-83
1.2716847e-89
2.9953977e-96
8.1319301e-103
2.0070596e-109
4.9006248e-116
1.6168638e-121
6.4294591e-121
8.0739806e-121
1.279445e-120
1.3615607e-121
9.3642584e-121
2.7708172e-120
1.2568517e-119
5.8284969e-120
3.0568903e-121
2.0162119e-119
1.1184725e-120
9.3533794e-121
4.4348972e-120
9.5247328e-120
4.8068999e-121
9.7494117e-120
1.6822523e-120
4.37286e-120
1.3282546e-119
3.33051e-120
6.7329787e-120
7.4993417e-121
1.6457121e-123
-7.4404544e-07
3.7403178e-16
-2.1973584e-25
3.4244995e-34
1.1576546e-41
9.9816791e-50
2.5706131e-57
5.690881e-64
2.8119098e-70
7.437854e-77
2.3094479e-83
5.7427344e-90
1.585433e-96
3.6813235e-103
9.3486216e-110
2.1502169e-116
5.2990394e-123
-4.4463442e-127
-1.0302994e-126
-9.6741443e-127
-6.9986995e-128
-9.398622e-127
-2.3703066e-126
-5.9414982e-126
-3.1010121e-126
-2.4336439e-127
-1.2637192e-125
-6.6829131e-127
-5.0136181e-127
-3.1280749e-126
-4.9096506e-126
-2.475414e-127
-4.5052505e-126
-1.6181041e-126
-3.9352608e-126
-1.6300525e-125
-1.859497e-126
-5.9937157e-126
-7.2232889e-127
3.8050532e-130
-6.322065e-07
2.67885e-16
-1.2868243e-25
1.5011361e-34
-1.2819038e-41
-9.405412e-50
-1.8022548e-57
-2.6092442e-64
-2.592391e-70
-7.0332754e-77
-1.8394792e-83
-4.502559e-90
-1.0030308e-96
-2.7363886e-103
-6.8259224e-110
-1.7189912e-116
-4.6374947e-123
-1.1793628e-129
4.2094714e-133
6.1952261e-133
6.829575e-134
4.7827863e-133
1.1667072e-132
4.9972326e-132
1.4799521e-132
1.3364004e-133
9.4513845e-132
3.650666e-133
4.1106392e-133
1.8459744e-132
3.2181902e-132
2.0980057e-133
3.2558286e-132
8.4561669e-133
3.2897861e-132
2.2839405e-131
1.0055513e-132
4.8680014e-132
9.0818424e-133
8.0274683e-137
-5.3962813e-07
1.9373952e-16
-7.6755462e-26
6.8546484e-35
-9.4940673e-43
-6.0977471e-51
-8.8763206e-59
-8.555433e-66
-4.9312258e-72
-1.6332752e-78
-3.7721522e-85
-9.6664322e-92
-2.494178e-98
-5.6312275e-105
-1.309059e-111
-3.1537542e-118
-7.8369341e-125
-2.0881571e-131
-5.3136613e-138
-4.0495597e-139
-4.883864e-140
-6.5462163e-139
-7.4853049e-139
-4.0873e-138
-9.2533394e-139
-1.5546209e-139
-1.0381048e-137
-3.093991e-139
-8.4926881e-140
-9.9240209e-139
-3.0202081e-138
-1.2282617e-139
-2.4982442e-138
-3.2999686e-139
-1.8111189e-138
-1.7108591e-137
-6.3319394e-139
-2.7350232e-138
-4.054438e-139
2.190404e-143
-4.6229334e-07
1.4123453e-16
-4.6481605e-26
3.2330673e-35
-2.0392099e-43
-1.17906e-51
-1.319597e-59
-8.8387358e-67
-1.0549325e-72
-3.4937794e-79
-7.9417833e-86
-1.914339e-92
-4.9883627e-99
-1.193894e-105
-2.9214663e-112
-7.6825981e-119
-2.2133729e-125
-5.8442809e-132
-1.5879008e-138
-1.4918331e-145
2.3587654e-146
4.4867053e-145
3.131152e-145
2.9505518e-144
5.7555796e-145
1.1138092e-145
7.6240495e-144
1.0123589e-145
1.0575687e-145
7.5579285e-145
1.2405647e-144
4.9221075e-146
1.1943926e-144
2.904301e-145
1.3388579e-144
1.2813574e-143
4.9118141e-145
2.7594995e-144
2.8515836e-145
5.6444723e-150
-3.9785706e-07
1.0381548e-16
-2.8579635e-26
1.5726914e-35
-5.7529758e-44
-3.0750972e-52
-2.7389764e-60
-1.2322572e-67
-8.557142e-74
-4.448238e-80
-1.172309e-86
-2.8554899e-93
-6.7007486e-100
-1.7153988e-106
-4.4396972e-113
-1.1520541e-119
-2.9570919e-126
-7.7100086e-133
-1.7771687e-139
-3.7441476e-146
-2.6323935e-152
-3.2759898e-151
-2.2877291e-151
-1.0101343e-150
-3.5383072e-151
-5.0291146e-152
-7.0245864e-150
-9.1739212e-152
-5.2990607e-152
-5.8344661e-151
-1.1053923e-150
-6.3308917e-152
-6.8103662e-151
-2.1433152e-151
-6.5983969e-151
-5.9890213e-150
-2.7780564e-151
-2.9281919e-150
-2.2448363e-151
1.1118773e-156
-3.4331046e-07
7.6805587e-17
-1.7792465e-26
7.8384131e-36
-1.8517753e-44
-9.489585e-53
-6.7981078e-61
-2.1862159e-68
-1.473814e-74
-6.9588043e-81
-1.9468041e-87
-4.3725407e-94
-1.1134402e-100
-3.3235808e-107
-7.6856435e-114
-2.1317813e-120
-6.4929512e-127
-1.6594198e-133
-3.8400088e-140
-1.0093381e-146
-2.3204175e-153
3.4160119e-157
1.0920057e-157
9.9941415e-157
2.2021801e-157
3.0496042e-158
5.2864503e-156
4.3050765e-158
4.6360152e-158
5.0483385e-157
4.6624289e-157
5.2663932e-158
5.5337777e-157
1.6113345e-157
5.1623347e-157
5.3022098e-156
2.8524317e-157
1.6622852e-156
4.3399021e-157
5.8282297e-163
-2.9706219e-07
5.7159994e-17
-1.120341e-26
3.9959779e-36
-6.4890117e-45
-3.343127e-53
-1.9803038e-61
-4.6062497e-69
-1.7672874e-75
-1.0245017e-81
-2.9017567e-88
-6.5316496e-95
-1.5307042e-101
-3.8228672e-108
-8.7111376e-115
-2.2048732e-121
-5.4230498e-128
-1.4481913e-134
-3.4083211e-141
-8.7722331e-148
-2.0129302e-154
-4.7964036e-161
-8.7806131e-164
-5.7528645e-163
-2.1841144e-163
-1.9953949e-164
-2.0577379e-162
-2.4470368e-164
-1.8018931e-164
-4.139447e-163
-4.0678386e-163
-2.9331018e-164
-4.7612459e-163
-8.8623378e-164
-3.0886525e-163
-2.3339883e-162
-1.3055809e-163
-1.6244849e-162
-1.601055e-163
-2.5876318e-171
-2.5782682e-07
4.281661e-17
-7.1345733e-27
2.0787747e-36
-2.4257627e-45
-1.33836e-53
-6.6270497e-62
-1.1505839e-69
-2.4777508e-76
-3.3218725e-82
-8.3041821e-89
-2.1374345e-95
-5.8443757e-102
-1.4276456e-108
-3.6963791e-115
-8.6785438e-122
-2.1268571e-128
-5.1674123e-135
-1.1664991e-141
-3.2436408e-148
-7.7182174e-155
-1.9665505e-161
-4.6622854e-168
3.428044e-169
8.809404e-170
1.5859036e-170
1.1689639e-168
3.0673094e-170
1.2347512e-170
2.0047849e-169
2.5049375e-169
3.9394886e-170
5.1242529e-169
7.7084604e-170
2.8183496e-169
3.6657229e-168
9.5649295e-170
1.0600505e-168
1.1067308e-169
1.0315228e-175
-2.2430861e-07
3.2242553e-17
-4.5880285e-27
1.1018239e-36
-9.5208851e-46
-6.2187921e-54
-2.6343524e-62
-3.5157037e-70
-4.7189313e-77
-9.5182246e-83
-3.2145281e-89
-7.675449e-96
-1.6627523e-102
-4.8354195e-109
-1.1266841e-115
-3.3148917e-122
-7.6713537e-129
-1.9882299e-135
-4.5525452e-142
-1.0905372e-148
-2.6216818e-155
-6.6662609e-162
-1.6531449e-168
-6.7631061e-175
-5.7145944e-176
-1.0496287e-176
-7.2132295e-175
-1.1416423e-176
-8.9207313e-177
-1.4457007e-175
-1.6409122e-175
-2.4259897e-176
-2.4380647e-175
-7.1675051e-176
-2.0835225e-175
-2.3830791e-174
-1.2644671e-175
-6.0093146e-175
-8.666847e-176
-3.4713201e-182
-1.9556968e-07
2.4396839e-17
-2.9768011e-27
5.9356695e-37
-3.8951961e-46
-3.7444769e-54
-1.3658552e-62
-1.4042023e-70
-1.22826e-77
-2.5227823e-83
-1.0063653e-89
-2.4332538e-96
-6.0745463e-103
-1.5357772e-109
-3.3843871e-116
-8.3144134e-123
-1.8304876e-129
-4.7230402e-136
-1.1205672e-142
-2.6327844e-149
-6.2865889e-156
-1.6592007e-162
-4.1532986e-169
-1.1963559e-175
5.8715984e-183
4.8886021e-183
8.3842359e-181
1.2365278e-182
7.3722936e-183
1.0378666e-181
1.4240012e-181
1.1145269e-182
1.5033119e-181
2.5336123e-182
2.7549968e-181
1.5575276e-180
7.2382624e-182
6.5384443e-181
3.8486352e-182
2.4688541e-188
-1.7087524e-07
1.8549888e-17
-1.9484847e-27
3.2481539e-37
-1.6492173e-46
-5.5912209e-54
-1.8024304e-62
-1.468002e-70
-8.4172287e-78
1.5966418e-82
5.6114023e-89
1.3168547e-95
3.0935713e-102
6.4946303e-109
1.4338968e-115
3.4058506e-122
7.0043075e-129
1.8335879e-135
4.3448199e-142
1.1312595e-148
2.684909e-155
6.869128e-162
1.4965283e-168
3.2618065e-175
8.2581227e-182
1.9875196e-188
-2.7010661e-187
-9.7273124e-189
-3.1891531e-189
-9.1382043e-188
-6.5516589e-188
-1.0375774e-188
-1.9288701e-187
-3.1510702e-188
-2.1028761e-187
-8.4460027e-187
-5.7830784e-188
-3.3352734e-187
-2.3420372e-188
-1.0889482e-194
-1.4961235e-07
1.4167499e-17
-1.2855085e-27
1.8024848e-37
-7.1967343e-47
9.5233734e-55
2.7484078e-63
1.7948922e-71
7.2067691e-79
-1.6298952e-84
-9.4801983e-91
-2.2484447e-97
-5.7132483e-104
-1.3992741e-110
-3.5808636e-117
-7.6233729e-124
-1.8148982e-130
-4.6036458e-137
-1.2108655e-143
-2.820736e-150
-6.6948192e-157
-1.5399574e-163
-3.6482858e-170
-8.1749411e-177
-1.9553207e-183
-4.7396263e-190
2.5644912e-193
1.4709246e-194
1.887192e-195
9.1815471e-194
4.4701369e-194
9.3063325e-195
6.5385856e-194
2.3457238e-194
1.0537004e-193
1.0816611e-192
4.8736397e-194
3.6735275e-193
7.4732492e-195
3.8656769e-201
-1.3119677e-07
1.0862711e-17
-8.5420368e-28
1.0129788e-37
-3.2232181e-47
1.4761433e-55
3.8863534e-64
2.0638789e-72
5.9023592e-80
2.7701399e-85
1.5373752e-91
3.6405928e-98
8.0245044e-105
1.8182342e-111
4.0553716e-118
1.0491062e-124
2.5573354e-131
6.7815915e-138
1.8181281e-144
4.6394273e-151
1.1232094e-157
2.6522855e-164
6.4693464e-171
1.6950924e-177
3.7259929e-184
9.8250184e-191
2.2969901e-197
-7.81877e-201
-9.9406162e-202
-9.0980749e-200
-3.867099e-200
-4.7781426e-201
-7.7065758e-200
-1.5872257e-200
-1.0430852e-199
-1.0311641e-198
-3.6473346e-200
-4.0435815e-199
-3.9863757e-201
-1.9588847e-207
-1.1528246e-07
8.3639419e-18
-5.7175664e-28
5.7639469e-38
-1.4789736e-47
3.62994e-56
8.8987696e-65
3.914979e-73
8.2806034e-81
1.1240726e-86
8.5037922e-93
2.4619812e-99
6.1141986e-106
1.296939e-112
3.2182313e-119
7.7949365e-126
1.6653994e-132
3.5959124e-139
7.5326045e-146
1.860029e-152
4.1498616e-159
1.0427881e-165
2.932277e-172
7.5631552e-179
1.8338573e-185
3.8681407e-192
8.8481724e-199
2.1448716e-205
7.4567177e-208
4.0884152e-206
3.4170778e-206
2.4610511e-207
4.7202124e-206
1.6226723e-206
7.1527167e-206
1.3388874e-204
3.0447981e-206
1.6233376e-205
1.4545036e-207
6.1497713e-214
-1.0144376e-07
6.4623017e-18
-3.8512748e-28
3.3163636e-38
-6.930453e-48
1.065381e-56
2.4885068e-65
9.1817267e-74
1.4585367e-81
5.129332e-88
-1.4417844e-93
-4.7747978e-100
-1.196106e-106
-2.7251068e-113
-6.3170534e-120
-1.4351827e-126
-3.6632638e-133
-8.2906826e-140
-2.0841069e-146
-4.9261638e-153
-1.2535891e-159
-3.0500476e-166
-7.4511193e-173
-1.6823102e-179
-3.7908401e-186
-8.7788186e-193
-2.0076707e-199
-5.0505241e-206
-1.4602116e-212
-1.9600399e-212
-2.3678191e-212
-2.3321126e-213
-4.7694169e-212
-2.157814e-212
-7.8391443e-212
-1.0014549e-210
-1.6606754e-212
-9.6885047e-212
-7.764735e-214
-4.1980914e-220
-8.9408048e-08
5.0102772e-18
-2.6101011e-28
1.9281743e-38
-3.3111856e-48
3.4587706e-57
7.9306284e-66
2.4871126e-74
3.0222094e-82
5.4925838e-89
1.4908263e-94
4.9754564e-101
1.2183313e-107
2.6299872e-114
6.3259973e-121
1.4445188e-127
3.0474931e-134
6.6789895e-141
1.6394673e-147
4.1283997e-154
9.6728406e-161
2.4376541e-167
6.083965e-174
1.3055336e-180
3.2362966e-187
7.4132359e-194
1.8719798e-200
4.0461431e-207
1.0430451e-213
2.0904398e-218
5.2041907e-218
8.7229666e-220
2.7586734e-218
1.5331982e-218
6.9748111e-218
8.4851638e-217
1.3868065e-218
3.4671165e-218
1.4890357e-220
-6.4308429e-228
-7.8912293e-08
3.8973084e-18
-1.7791457e-28
1.1320091e-38
-1.6103408e-48
1.2023357e-57
2.8011633e-66
7.5287891e-75
7.1927566e-83
7.9484281e-90
-1.0172897e-95
-3.2296661e-102
-7.779296e-109
-1.756638e-115
-4.0522164e-122
-1.1331778e-128
-2.6233873e-135
-5.8535994e-142
-1.3283161e-148
-3.3718682e-155
-8.4120452e-162
-1.9113279e-168
-5.0784527e-175
-1.2421903e-181
-2.9079951e-188
-7.3009368e-195
-1.8156729e-201
-4.8337362e-208
-1.2920367e-214
-3.115638e-221
-2.502232e-224
-2.6948436e-225
-1.7941548e-224
-1.247326e-224
-3.605278e-224
-4.8008793e-223
-8.2465834e-225
-2.6936191e-224
-5.7844616e-227
-5.4645976e-233
-6.9734899e-08
3.0403942e-18
-1.2191878e-28
6.7068628e-39
-7.9590375e-49
4.4002804e-58
1.094498e-66
2.5594081e-75
1.925314e-83
1.345722e-90
-1.3102919e-96
-4.9169102e-103
-1.2281943e-109
-2.8152664e-116
-5.9288943e-123
-1.288417e-129
-2.873191e-136
-7.0922901e-143
-1.9696779e-149
-4.3220725e-156
-1.1056621e-162
-2.4986994e-169
-5.649946e-176
-1.1772156e-182
-2.6859776e-189
-6.4307197e-196
-1.6340931e-202
-3.8595659e-209
-8.1620189e-216
-2.423367e-222
-7.417247e-230
1.7432227e-231
1.5041694e-230
9.1099614e-231
4.0046895e-230
3.3557164e-229
7.4802921e-231
7.4068876e-231
2.6375986e-233
-3.5617799e-241
-6.1703525e-08
2.3786546e-18
-8.3970985e-29
4.007577e-39
-3.9934119e-49
1.6785131e-58
4.8042427e-67
9.8971519e-76
6.0017896e-84
2.8481904e-91
-1.558976e-97
-7.0646802e-104
-2.0327474e-110
-5.0683878e-117
-1.2891581e-123
-2.7595567e-130
-6.7737212e-137
-1.7300297e-143
-4.1041236e-150
-9.8887811e-157
-2.4093725e-163
-6.0576515e-170
-1.4098759e-176
-3.6763353e-183
-9.3472064e-190
-2.504001e-196
-6.4907283e-203
-1.550254e-209
-3.4251333e-216
-8.1805816e-223
-2.0133026e-229
-5.7549199e-236
-1.7717471e-236
-4.5513028e-237
-4.7683213e-236
-3.8533681e-235
-2.3005244e-237
-7.9298855e-237
-7.8343049e-240
-5.7030116e-246
-5.4660001e-08
1.8657998e-18
-5.8107607e-29
2.4138487e-39
-2.031374e-49
6.626144e-59
2.5031298e-67
4.5966618e-76
2.2783434e-84
7.6761914e-92
-6.6052707e-98
-4.9427629e-104
-1.1521098e-110
-2.7657814e-117
-7.7308843e-124
-1.7322035e-130
-4.515046e-137
-1.1202264e-143
-2.6940758e-150
-6.7228056e-157
-1.4950162e-163
-3.2603317e-170
-7.6488919e-177
-2.1604269e-183
-5.4202505e-190
-1.3426913e-196
-3.4598097e-203
-9.0721618e-210
-2.12116e-216
-5.1644437e-223
-1.2460158e-229
-3.1365836e-236
3.4649621e-243
4.8431741e-243
2.0347248e-242
2.8049773e-241
1.4386511e-243
2.5256046e-243
3.0046847e-246
1.0570739e-252
-4.8470174e-08
1.4671104e-18
-4.0387452e-29
1.464856e-39
-1.0468701e-49
2.695401e-59
1.9098248e-67
3.1636713e-76
1.294791e-84
3.1713047e-92
-3.6246665e-98
-3.3762796e-104
-9.7682375e-111
-2.2270864e-117
-5.183809e-124
-1.1029909e-130
-2.5862988e-137
-6.2593563e-144
-1.705656e-150
-3.6157212e-157
-8.5971497e-164
-2.5032397e-170
-6.4498526e-177
-1.6798492e-183
-4.153735e-190
-1.0384349e-196
-2.8181964e-203
-7.088653e-210
-1.8735679e-216
-4.2876791e-223
-1.0374373e-229
-2.5286819e-236
-8.1895702e-243
-3.1763795e-249
-2.19147e-248
-2.4286856e-247
-1.246175e-249
-1.6090418e-249
-1.9805046e-252
-1.4308576e-258
-4.3016544e-08
1.1560129e-18
-2.8182456e-29
8.9504237e-40
-5.4585595e-50
1.1245294e-59
-3.787885e-67
-5.7346661e-76
-1.9595343e-84
-3.6122993e-92
-8.5261579e-98
-1.7309766e-103
-5.3024037e-110
-1.2083282e-116
-2.6524003e-123
-5.9282266e-130
-1.3813909e-136
-3.4437892e-143
-8.9671358e-150
-2.4486822e-156
-6.024388e-163
-1.4818191e-169
-3.6430367e-176
-8.982075e-183
-2.1222737e-189
-5.0663543e-196
-1.3609234e-202
-3.0725747e-209
-8.1350516e-216
-1.8699341e-222
-4.45492e-229
-9.8722899e-236
-2.6080925e-242
-6.3366048e-249
5.6855249e-255
2.9353309e-253
6.7778495e-256
8.3356153e-256
1.450958e-258
-2.6516118e-264
-3.821509e-08
9.1292201e-19
-1.9744082e-29
5.5054972e-40
-2.8785484e-50
4.8025413e-60
-1.8632669e-68
-2.6144459e-77
-7.5567239e-86
-1.0515915e-93
-5.2657036e-100
6.7568472e-105
2.1854393e-111
5.8225373e-118
1.2356417e-124
3.3066575e-131
8.5892782e-138
2.070057e-144
5.3873651e-151
1.3678735e-157
3.1070289e-164
8.641974e-171
2.2487902e-177
5.4054673e-184
1.2112392e-190
2.6143887e-197
5.9665692e-204
1.5419489e-210
3.8614081e-217
8.3866043e-224
2.0697155e-230
5.4847131e-237
1.3260173e-243
3.2767259e-250
8.8545094e-257
-2.3378308e-259
-4.3456971e-262
-6.3060212e-262
6.3189467e-264
-4.0519537e-270
-3.3972557e-08
7.2222937e-19
-1.3879787e-29
3.406734e-40
-1.5336518e-50
2.0928545e-60
-3.7928803e-69
-5.0126875e-78
-1.2349293e-86
-1.339303e-94
-2.6901476e-101
2.5701277e-107
8.7206117e-114
2.0366815e-120
4.870275e-127
1.1211053e-133
3.0840405e-140
6.6980645e-147
1.4904589e-153
3.1181e-160
7.8669596e-167
1.9350853e-173
5.1325519e-180
1.2118688e-186
3.0444328e-193
8.0368645e-200
1.8739567e-206
5.0390774e-213
1.264077e-219
3.1018102e-226
8.4629315e-233
1.3121711e-239
9.0959518e-246
-1.2298092e-252
2.424144e-258
-8.7992347e-265
2.1999918e-268
3.6311212e-268
1.0667474e-269
-2.5103484e-276
-3.0223659e-08
5.7237835e-19
-9.7895273e-30
2.1202418e-40
-8.2509567e-51
9.2935707e-61
-1.00444e-69
-1.2717844e-78
-2.7053572e-87
-2.324047e-95
-2.6241503e-102
1.5704757e-108
5.1318148e-115
1.2234539e-121
2.5310619e-128
5.8670607e-135
1.4582105e-141
3.4903915e-148
8.5177556e-155
1.9637044e-161
4.8229305e-168
1.2284837e-174
2.7536916e-181
6.8902697e-188
1.4512048e-194
3.4819227e-201
8.661273e-208
2.2694174e-214
6.3614319e-221
1.2939521e-227
3.8812035e-234
9.4571498e-241
3.0849764e-247
5.4754758e-254
2.6766397e-260
-3.2294848e-267
5.9700458e-273
-2.7472168e-274
7.8484679e-276
-8.4733401e-283
-2.6905413e-08
4.5434421e-19
-6.9258404e-30
1.3266129e-40
-4.4791731e-51
4.1975422e-61
-3.0189877e-70
-3.7411668e-79
-6.9204293e-88
-4.7661636e-96
-3.5674169e-103
2.2222774e-109
1.122745e-115
2.5145475e-122
5.7916126e-129
1.4162336e-135
3.3430074e-142
8.5338202e-149
1.9175456e-155
4.2394587e-162
1.1055491e-168
2.5182028e-175
7.0437554e-182
1.6867406e-188
4.1197956e-195
1.0151058e-201
2.5224191e-208
6.5739043e-215
1.6075235e-221
3.9803483e-228
1.0471627e-234
2.2161749e-241
6.7528051e-248
8.4483224e-256
1.2811197e-260
-4.3728389e-267
3.8980973e-273
-2.3756791e-279
4.5923003e-282
-1.5392013e-289
-2.3963914e-08
3.6113921e-19
-4.9131371e-30
8.3409052e-41
-2.4521209e-51
1.9255427e-61
-9.8141017e-71
-1.221002e-79
-1.9864514e-88
-1.1109477e-96
-5.6100037e-104
3.7030143e-110
2.6682443e-116
6.7427208e-123
1.5245968e-129
3.2595971e-136
7.7907446e-143
1.8371109e-149
4.6467674e-156
1.2347828e-162
3.0070333e-169
8.0186643e-176
1.8188976e-182
5.9461443e-189
1.3321889e-195
3.4554745e-202
8.1657262e-209
2.0709789e-215
4.7946289e-222
1.2810487e-228
3.0299105e-235
6.7946159e-242
2.4977303e-248
1.4480093e-255
3.8475923e-261
-1.4162952e-267
1.1982337e-273
-6.7034734e-280
4.4985503e-286
4.8370868e-292
-2.1355938e-08
2.8743929e-19
-3.4944838e-30
5.2688768e-41
-1.3531642e-51
8.9612614e-62
-3.3744475e-71
-4.356786e-80
-6.2828833e-89
-2.8856272e-97
-1.0409272e-104
6.539382e-111
3.5232607e-117
9.8878672e-124
2.4607128e-130
5.8210476e-137
1.3378781e-143
3.0381671e-150
6.7718591e-157
1.4839151e-163
3.3274335e-170
8.1731994e-177
1.9609655e-183
4.3324208e-190
1.0901588e-196
2.3182363e-203
5.9123645e-210
1.4323088e-216
3.6150139e-223
7.3781079e-230
2.0653421e-236
1.7935755e-243
3.0495226e-249
-2.3451367e-255
1.9210251e-261
-1.5820691e-267
5.2767958e-274
-2.7999327e-280
1.6040403e-286
7.7222185e-293
-1.904043e-08
2.2904105e-19
-2.4912743e-30
3.3425021e-41
-7.5223581e-52
4.2260502e-62
-1.2109767e-71
-1.7003719e-80
-2.1982055e-89
-8.3936202e-98
-2.1628641e-105
1.9007614e-111
1.9494767e-117
5.8953387e-124
1.1909366e-130
2.6930139e-137
6.3440402e-144
1.504091e-150
3.7768492e-157
9.3390366e-164
2.2710178e-170
5.4182623e-177
1.3162182e-183
3.1532115e-190
7.4882683e-197
2.0254131e-203
5.718297e-210
1.4436728e-216
3.5432576e-223
8.3460577e-230
2.09316e-236
4.6681425e-243
1.3398558e-249
3.7818231e-257
2.5307447e-262
-1.5402532e-268
1.633979e-274
-9.1715538e-281
8.716622e-287
7.8530252e-293
-1.6983762e-08
1.8270363e-19
-1.7799676e-30
2.1289861e-41
-4.210843e-52
2.0176186e-62
-4.5012098e-72
-7.3841388e-81
-8.6323289e-90
-2.7722084e-98
-5.4242764e-106
1.3390574e-111
1.2913923e-117
3.8888083e-124
8.7794034e-131
1.8437864e-137
4.7669802e-144
1.2447763e-150
2.9462656e-157
6.7974002e-164
1.8675334e-170
4.8576399e-177
1.1944217e-183
2.7854625e-190
7.2885937e-197
1.5239271e-203
3.7292401e-210
1.0044815e-216
2.4770902e-223
5.4132831e-230
1.2518457e-236
2.8906863e-243
7.62225e-250
1.0542416e-256
1.2006052e-262
-1.8581777e-269
3.5424637e-275
-2.4886966e-281
1.6741939e-287
6.0523697e-294
-1.5156391e-08
1.4589155e-19
-1.2743677e-30
1.3611992e-41
-2.3726477e-52
9.7444026e-63
-1.7227031e-72
-3.75738e-81
-4.0130509e-90
-1.0936894e-98
-1.6330715e-106
-1.3664574e-112
8.1304388e-118
2.5010105e-124
6.2011575e-131
1.7422031e-137
3.7142604e-144
8.8093039e-151
2.139228e-157
5.1319184e-164
1.183848e-170
2.4123376e-177
6.0062541e-184