/*--------------------------------*- C++ -*----------------------------------*\
  =========                 |
  \\      /  F ield         | OpenFOAM: The Open Source CFD Toolbox
   \\    /   O peration     | Website:  https://openfoam.org
    \\  /    A nd           | Version:  10
     \\/     M anipulation  |
\*---------------------------------------------------------------------------*/
FoamFile
{
    format      ascii;
    class       volVectorField;
    location    "0.24";
    object      U;
}
// * * * * * * * * * * * * * * * * * * * * * * * * * * * * * * * * * * * * * //

dimensions      [0 1 -1 0 0 0 0];

internalField   nonuniform List<vector> 
4000
(
(0 0.018637461 0.47773157)
(0 0.023510003 0.50886061)
(0 0.0081668514 0.50052521)
(0 0.0056146131 0.50033634)
(0 0.0042546288 0.50025746)
(0 0.0032549468 0.50016898)
(0 0.0025560954 0.50011969)
(0 0.0020545899 0.50009013)
(0 0.0016765912 0.50006981)
(0 0.0013822559 0.50005539)
(0 0.0011472116 0.50004499)
(0 0.00095511937 0.50003733)
(0 0.00079472509 0.5000316)
(0 0.00065805297 0.50002727)
(0 0.00053927472 0.50002399)
(0 0.00043400962 0.50002151)
(0 0.0003388703 0.50001966)
(0 0.00025115479 0.50001833)
(0 0.00016863033 0.50001744)
(0 8.9375089e-05 0.50001694)
(0 1.1655585e-05 0.50001679)
(0 -6.6180231e-05 0.50001699)
(0 -0.00014579462 0.50001755)
(0 -0.00022895214 0.5000185)
(0 -0.00031763035 0.50001991)
(0 -0.00041415034 0.50002185)
(0 -0.00052134865 0.50002446)
(0 -0.00064281649 0.50002793)
(0 -0.00078324763 0.50003252)
(0 -0.0009489681 0.50003863)
(0 -0.0011487876 0.50004688)
(0 -0.0013953643 0.50005824)
(0 -0.0017074447 0.50007414)
(0 -0.0021153777 0.50009709)
(0 -0.0026750773 0.50013481)
(0 -0.0034686538 0.50020238)
(0 -0.0045608849 0.50027143)
(0 -0.0065850771 0.50043364)
(0 -0.017659519 0.50675407)
(0 -0.01359016 0.47975562)
(0 0.037432692 0.44796927)
(0 0.050955749 0.53232616)
(0 0.021969317 0.5080429)
(0 0.016135646 0.50357318)
(0 0.012416091 0.50242316)
(0 0.0095159694 0.50162299)
(0 0.0075206441 0.50115661)
(0 0.0060699248 0.50086593)
(0 0.0049646136 0.500668)
(0 0.0041001781 0.50052901)
(0 0.0034076678 0.50042904)
(0 0.0028401352 0.50035554)
(0 0.0023652066 0.50030065)
(0 0.0019597981 0.50025925)
(0 0.0016069496 0.5002279)
(0 0.0012938657 0.50020424)
(0 0.0010106219 0.50018664)
(0 0.00074928004 0.50017397)
(0 0.00050326626 0.50016546)
(0 0.00026691115 0.50016062)
(0 3.5094216e-05 0.5001592)
(0 -0.00019706372 0.5001611)
(0 -0.00043447186 0.50016645)
(0 -0.0006823404 0.50017555)
(0 -0.0009464995 0.50018896)
(0 -0.0012337784 0.50020752)
(0 -0.0015525009 0.50023246)
(0 -0.0019131732 0.50026557)
(0 -0.0023294763 0.50030949)
(0 -0.0028197497 0.5003681)
(0 -0.0034093685 0.50044735)
(0 -0.0041347084 0.5005567)
(0 -0.0050488482 0.50071126)
(0 -0.006231653 0.50093661)
(0 -0.0078320061 0.50129438)
(0 -0.010125697 0.50191052)
(0 -0.013106835 0.5028251)
(0 -0.017426242 0.50608117)
(0 -0.038759027 0.52526812)
(0 -0.027894675 0.45021648)
(0 0.039888284 0.40982056)
(0 0.061428151 0.54930815)
(0 0.03198378 0.52188196)
(0 0.024355542 0.51008055)
(0 0.019193685 0.50658857)
(0 0.014977234 0.50452808)
(0 0.012006819 0.5032714)
(0 0.0097720333 0.50245839)
(0 0.0080366345 0.50190108)
(0 0.0066649771 0.50150871)
(0 0.0055568405 0.50122549)
(0 0.0046426903 0.50101674)
(0 0.0038737888 0.5008606)
(0 0.00321474 0.50074268)
(0 0.0026392099 0.5006533)
(0 0.0021271452 0.50058578)
(0 0.0016628692 0.50053552)
(0 0.0012337621 0.50049931)
(0 0.0008293169 0.50047499)
(0 0.00044043475 0.50046117)
(0 5.8874486e-05 0.50045708)
(0 -0.00032322524 0.50046252)
(0 -0.00071377294 0.5004778)
(0 -0.0011211479 0.50050382)
(0 -0.0015546949 0.50054212)
(0 -0.0020253086 0.50059508)
(0 -0.0025461872 0.50066621)
(0 -0.0031338635 0.50076057)
(0 -0.0038096674 0.50088557)
(0 -0.0046018383 0.50105211)
(0 -0.005548731 0.50127675)
(0 -0.0067043254 0.5015856)
(0 -0.0081458225 0.50202079)
(0 -0.0099773107 0.50265072)
(0 -0.012371605 0.50361507)
(0 -0.015716665 0.50519916)
(0 -0.019873099 0.5078539)
(0 -0.025186772 0.51641221)
(0 -0.047417333 0.53912728)
(0 -0.030853766 0.41488012)
(0 0.03479159 0.36173007)
(0 0.063838943 0.55456333)
(0 0.039380452 0.53747136)
(0 0.030083447 0.51849261)
(0 0.024112682 0.5119773)
(0 0.019279686 0.50849945)
(0 0.015736275 0.50626426)
(0 0.01295429 0.50475546)
(0 0.010743768 0.50370444)
(0 0.0089680182 0.50295615)
(0 0.0075140092 0.5024111)
(0 0.006302076 0.50200683)
(0 0.0052744139 0.50170304)
(0 0.0043877659 0.50147281)
(0 0.0036093154 0.5012978)
(0 0.0029136792 0.50116532)
(0 0.0022807511 0.50106653)
(0 0.001694171 0.50099527)
(0 0.0011401985 0.50094735)
(0 0.0006068543 0.50092009)
(0 8.3237796e-05 0.50091201)
(0 -0.00044107138 0.50092271)
(0 -0.00097655416 0.50095282)
(0 -0.0015342804 0.50100403)
(0 -0.0021265288 0.50107935)
(0 -0.0027675051 0.50118335)
(0 -0.0034742477 0.50132276)
(0 -0.0042678339 0.50150724)
(0 -0.005175043 0.50175079)
(0 -0.006230654 0.5020739)
(0 -0.0074805345 0.50250704)
(0 -0.0089869161 0.50309721)
(0 -0.010837168 0.50391911)
(0 -0.013137851 0.50508913)
(0 -0.016024621 0.50680675)
(0 -0.019900048 0.50946736)
(0 -0.024732018 0.51427474)
(0 -0.031113894 0.5282469)
(0 -0.050320062 0.54407183)
(0 -0.028438497 0.37238069)
(0 0.027424264 0.31484328)
(0 0.062314904 0.55024064)
(0 0.044614619 0.55146763)
(0 0.033982117 0.52748813)
(0 0.027464154 0.51772242)
(0 0.022455266 0.51291982)
(0 0.018636898 0.50973143)
(0 0.015528243 0.50749263)
(0 0.01300632 0.50589994)
(0 0.010942303 0.50474691)
(0 0.0092248092 0.50389615)
(0 0.0077749868 0.50325919)
(0 0.006532849 0.50277712)
(0 0.0054519705 0.50240973)
(0 0.0044963026 0.50212923)
(0 0.0036373795 0.50191616)
(0 0.0028522568 0.50175683)
(0 0.0021219952 0.50164166)
(0 0.0014305005 0.5015641)
(0 0.00076361235 0.50151993)
(0 0.00010836618 0.50150681)
(0 -0.00054766866 0.5015241)
(0 -0.0012169913 0.50157279)
(0 -0.0019127481 0.50165558)
(0 -0.0026494171 0.50177714)
(0 -0.0034435781 0.50194462)
(0 -0.0043148578 0.50216843)
(0 -0.0052871413 0.50246345)
(0 -0.0063901796 0.50285095)
(0 -0.007661748 0.50336155)
(0 -0.0091501103 0.50403991)
(0 -0.010917703 0.50495256)
(0 -0.013051363 0.50620231)
(0 -0.015654886 0.50794406)
(0 -0.018816125 0.51040416)
(0 -0.022896586 0.51405465)
(0 -0.028177746 0.52114529)
(0 -0.035707816 0.53932635)
(0 -0.050477121 0.54155519)
(0 -0.024086421 0.33055833)
(0 0.019837906 0.27519782)
(0 0.057990045 0.53974656)
(0 0.047363974 0.56256473)
(0 0.036477769 0.53660454)
(0 0.029636282 0.52350709)
(0 0.024676301 0.51740327)
(0 0.020774435 0.513363)
(0 0.017509989 0.51044453)
(0 0.014814462 0.50832422)
(0 0.012566923 0.50676184)
(0 0.010665849 0.50559283)
(0 0.0090392438 0.50470806)
(0 0.0076294915 0.5040326)
(0 0.0063907305 0.50351422)
(0 0.0052865014 0.50311623)
(0 0.004287335 0.50281257)
(0 0.0033690028 0.50258471)
(0 0.0025111682 0.50241956)
(0 0.0016963072 0.50230812)
(0 0.00090883309 0.50224453)
(0 0.00013436884 0.50222559)
(0 -0.00064091856 0.50225039)
(0 -0.0014309339 0.5023203)
(0 -0.0022502313 0.50243904)
(0 -0.0031147063 0.50261306)
(0 -0.0040423456 0.50285214)
(0 -0.0050541242 0.50317042)
(0 -0.0061751078 0.5035879)
(0 -0.0074358458 0.50413277)
(0 -0.0088742666 0.50484496)
(0 -0.010537636 0.50578147)
(0 -0.012484247 0.5070246)
(0 -0.014794316 0.50869751)
(0 -0.017569624 0.51098182)
(0 -0.020864152 0.5141199)
(0 -0.024974175 0.51873006)
(0 -0.030509086 0.52822977)
(0 -0.038630551 0.54872403)
(0 -0.048509243 0.5339846)
(0 -0.019067137 0.29393955)
(0 0.013083175 0.24255501)
(0 0.051798853 0.52520066)
(0 0.047709601 0.57024848)
(0 0.03775725 0.54552492)
(0 0.030850624 0.52928858)
(0 0.026073777 0.52180161)
(0 0.022238265 0.51699787)
(0 0.018954014 0.51347342)
(0 0.016193841 0.51086491)
(0 0.013849936 0.50891243)
(0 0.011835804 0.50743265)
(0 0.010088861 0.50630055)
(0 0.0085564833 0.50542838)
(0 0.0071959227 0.504754)
(0 0.0059723795 0.50423305)
(0 0.0048570364 0.50383359)
(0 0.0038257059 0.50353264)
(0 0.0028577171 0.50331384)
(0 0.0019349829 0.50316584)
(0 0.0010412205 0.50308123)
(0 0.00016128724 0.50305593)
(0 -0.00071944366 0.50308879)
(0 -0.0016156703 0.50318153)
(0 -0.0025426971 0.50333887)
(0 -0.0035170888 0.50356897)
(0 -0.0045573497 0.50388409)
(0 -0.0056847177 0.50430184)
(0 -0.0069241066 0.50484685)
(0 -0.0083052215 0.50555338)
(0 -0.0098641333 0.50646922)
(0 -0.011645037 0.50766151)
(0 -0.013700179 0.50922512)
(0 -0.016099066 0.511298)
(0 -0.018936995 0.51407953)
(0 -0.022245335 0.51783852)
(0 -0.026264903 0.52346774)
(0 -0.031848685 0.53537512)
(0 -0.039759775 0.55589681)
(0 -0.044894453 0.5228239)
(0 -0.014090825 0.26264666)
(0 0.0077701036 0.21554129)
(0 0.044825834 0.50801015)
(0 0.046255658 0.57438084)
(0 0.038035548 0.55375126)
(0 0.031288163 0.53496048)
(0 0.026768657 0.52603024)
(0 0.023117044 0.52053837)
(0 0.019921163 0.51648818)
(0 0.017182462 0.51344158)
(0 0.014813725 0.51113057)
(0 0.012746523 0.50935945)
(0 0.010928802 0.50799092)
(0 0.009314663 0.50692739)
(0 0.0078661363 0.50609893)
(0 0.0065514794 0.50545494)
(0 0.0053437365 0.50495858)
(0 0.0042197983 0.50458306)
(0 0.003159535 0.50430914)
(0 0.0021450453 0.50412337)
(0 0.0011600059 0.50401694)
(0 0.00018910312 0.50398497)
(0 -0.00078251682 0.50402608)
(0 -0.0017697765 0.50414233)
(0 -0.0027881291 0.50433935)
(0 -0.0038541447 0.5046268)
(0 -0.004986086 0.50501919)
(0 -0.0062045703 0.50553713)
(0 -0.0075333353 0.50620921)
(0 -0.0090000638 0.50707477)
(0 -0.010637551 0.50818797)
(0 -0.012485377 0.50962404)
(0 -0.014588674 0.51148805)
(0 -0.017003643 0.51392887)
(0 -0.019811945 0.51715524)
(0 -0.023029544 0.52148021)
(0 -0.026878964 0.52818266)
(0 -0.03235092 0.54222034)
(0 -0.039403482 0.56050233)
(0 -0.040328595 0.50908494)
(0 -0.0097081792 0.2358593)
(0 0.0040049329 0.19355668)
(0 0.037899509 0.48948737)
(0 0.043687213 0.5752401)
(0 0.037564242 0.56084507)
(0 0.031154605 0.54036113)
(0 0.026914604 0.53001136)
(0 0.023514571 0.5239018)
(0 0.020480791 0.5194126)
(0 0.017827243 0.51598783)
(0 0.015489965 0.51335896)
(0 0.01341863 0.51132416)
(0 0.011571886 0.50973757)
(0 0.0099115726 0.50849454)
(0 0.0084054548 0.5075194)
(0 0.0070257042 0.50675679)
(0 0.0057480505 0.50616599)
(0 0.0045512125 0.50571713)
(0 0.0034162724 0.5053886)
(0 0.0023261169 0.50516519)
(0 0.0012649317 0.50503691)
(0 0.00021774384 0.50499817)
(0 -0.00083003275 0.50504742)
(0 -0.0018930488 0.50518699)
(0 -0.0029863908 0.50542329)
(0 -0.0041260796 0.50576727)
(0 -0.0053295277 0.50623531)
(0 -0.0066160539 0.5068505)
(0 -0.0080074668 0.50764466)
(0 -0.0095286214 0.50866113)
(0 -0.011208116 0.50995899)
(0 -0.013079815 0.51161955)
(0 -0.015181237 0.51375548)
(0 -0.017555018 0.51652255)
(0 -0.020265308 0.52013179)
(0 -0.023319973 0.52496342)
(0 -0.02696099 0.5327401)
(0 -0.032202578 0.54839077)
(0 -0.037994739 0.56254413)
(0 -0.035414946 0.49379451)
(0 -0.0062005225 0.21325454)
(0 0.0015510673 0.17613391)
(0 0.031499566 0.4707621)
(0 0.040532455 0.5733858)
(0 0.036559205 0.56659845)
(0 0.030637644 0.54537843)
(0 0.026672005 0.53370453)
(0 0.023543467 0.52703222)
(0 0.020710808 0.52218839)
(0 0.018183364 0.51845122)
(0 0.015917667 0.51555105)
(0 0.013879289 0.51328571)
(0 0.012036796 0.51150456)
(0 0.010359889 0.51009858)
(0 0.0088223105 0.50898826)
(0 0.0074005308 0.50811488)
(0 0.0060734351 0.50743491)
(0 0.0048220494 0.50691617)
(0 0.003629134 0.50653522)
(0 0.0024788112 0.50627546)
(0 0.0013562029 0.50612594)
(0 0.0002470885 0.50608054)
(0 -0.0008624463 0.50613753)
(0 -0.001986375 0.50629947)
(0 -0.0031390029 0.50657341)
(0 -0.0043353708 0.50697133)
(0 -0.0055915883 0.50751107)
(0 -0.0069252014 0.50821767)
(0 -0.0083555981 0.50912535)
(0 -0.0099043475 0.5102804)
(0 -0.011595458 0.51174539)
(0 -0.013456652 0.51360567)
(0 -0.015517997 0.51597871)
(0 -0.017810121 0.51902307)
(0 -0.020379966 0.52294974)
(0 -0.023234774 0.52823564)
(0 -0.026654955 0.53704053)
(0 -0.03156493 0.55365915)
(0 -0.0359045 0.56230891)
(0 -0.030553063 0.47789387)
(0 -0.0035908533 0.19461268)
(0 7.6676429e-05 0.16252555)
(0 0.025870287 0.452601)
(0 0.037159617 0.56943344)
(0 0.035191383 0.57098884)
(0 0.029877459 0.54996288)
(0 0.026173892 0.53711378)
(0 0.023306106 0.52991227)
(0 0.020687721 0.5247841)
(0 0.018308213 0.52079807)
(0 0.016139203 0.51767393)
(0 0.014159395 0.51521315)
(0 0.012345933 0.51326353)
(0 0.010675738 0.51171386)
(0 0.009128196 0.51048243)
(0 0.0076840509 0.50950847)
(0 0.0063254958 0.5087466)
(0 0.0050360935 0.50816308)
(0 0.0038005563 0.50773314)
(0 0.0026045377 0.5074392)
(0 0.0014343987 0.50726958)
(0 0.00027697576 0.50721775)
(0 -0.00088066796 0.50728186)
(0 -0.0020515219 0.50746465)
(0 -0.0032488042 0.50777363)
(0 -0.0044862695 0.50822157)
(0 -0.0057784269 0.50882737)
(0 -0.0071407721 0.50961742)
(0 -0.0085900325 0.51062761)
(0 -0.01014435 0.51190619)
(0 -0.011823212 0.51351788)
(0 -0.013648408 0.51555033)
(0 -0.015643156 0.51812331)
(0 -0.01782809 0.52139499)
(0 -0.020235591 0.52557983)
(0 -0.022879239 0.53128274)
(0 -0.026076973 0.5410314)
(0 -0.030568556 0.55793456)
(0 -0.033426053 0.5601919)
(0 -0.025994737 0.46207201)
(0 -0.0017648777 0.17947396)
(0 -0.00071803956 0.15190819)
(0 0.021107848 0.4354359)
(0 0.033819049 0.56393198)
(0 0.033603824 0.57408907)
(0 0.028974723 0.5540938)
(0 0.025519825 0.54026336)
(0 0.022886123 0.53255245)
(0 0.020478486 0.52719177)
(0 0.018254801 0.5230123)
(0 0.016195661 0.51970804)
(0 0.014290335 0.51708569)
(0 0.012523063 0.51499384)
(0 0.010876946 0.51332059)
(0 0.0093363489 0.51198332)
(0 0.0078859871 0.51092023)
(0 0.0065112597 0.51008494)
(0 0.0051982903 0.50944276)
(0 0.0039338504 0.50896812)
(0 0.0027052818 0.50864276)
(0 0.0015003711 0.50845453)
(0 0.00030721256 0.50839662)
(0 -0.000885945 0.50846707)
(0 -0.002090898 0.50866877)
(0 -0.003319576 0.50900955)
(0 -0.0045842609 0.50950267)
(0 -0.0058977043 0.51016775)
(0 -0.0072732462 0.51103205)
(0 -0.008724925 0.51213243)
(0 -0.010267556 0.51351821)
(0 -0.011916458 0.51525522)
(0 -0.013688082 0.51743213)
(0 -0.015599585 0.52016908)
(0 -0.017663435 0.52362198)
(0 -0.019901103 0.52801653)
(0 -0.022338766 0.53411083)
(0 -0.025317982 0.54468173)
(0 -0.029328615 0.56120764)
(0 -0.030790946 0.5565883)
(0 -0.021893543 0.44676721)
(0 -0.00056426028 0.16725122)
(0 -0.0010701726 0.14358451)
(0 0.017203108 0.41948097)
(0 0.030666353 0.55734072)
(0 0.031914447 0.57602034)
(0 0.028003509 0.55776356)
(0 0.024783343 0.54317912)
(0 0.022349972 0.53497546)
(0 0.020138745 0.52941729)
(0 0.018068902 0.5250899)
(0 0.016124067 0.52164394)
(0 0.014301616 0.51889082)
(0 0.012591394 0.51668143)
(0 0.010981539 0.51490418)
(0 0.0094606094 0.51347638)
(0 0.0080168243 0.51233599)
(0 0.0066385252 0.51143628)
(0 0.005314272 0.51074212)
(0 0.004032873 0.51022753)
(0 0.0027834007 0.50987388)
(0 0.0015551508 0.50966875)
(0 0.00033758347 0.50960516)
(0 -0.00087974836 0.50968109)
(0 -0.0021073286 0.50989951)
(0 -0.0033556917 0.51026842)
(0 -0.0046355645 0.5108014)
(0 -0.0059579 0.51151843)
(0 -0.0073339105 0.5124472)
(0 -0.0087750702 0.51362502)
(0 -0.010293124 0.5151016)
(0 -0.011899713 0.5169431)
(0 -0.013606719 0.51923826)
(0 -0.015426142 0.52210628)
(0 -0.017363972 0.52570009)
(0 -0.019434809 0.53026682)
(0 -0.021682305 0.53673164)
(0 -0.02445121 0.54797141)
(0 -0.027946805 0.56352226)
(0 -0.028169749 0.55185985)
(0 -0.018323646 0.43224416)
(0 0.00016942735 0.15739842)
(0 -0.0011532836 0.1370031)
(0 0.014078579 0.40481655)
(0 0.02778158 0.55003398)
(0 0.030211297 0.57693011)
(0 0.027016228 0.56097861)
(0 0.024017435 0.54588505)
(0 0.021749531 0.53720828)
(0 0.019713688 0.53147378)
(0 0.017788852 0.52703412)
(0 0.015956526 0.52347907)
(0 0.01421971 0.52062216)
(0 0.012572426 0.51831746)
(0 0.011006729 0.51645436)
(0 0.0095145658 0.51495064)
(0 0.0080871236 0.51374452)
(0 0.0067153282 0.51278936)
(0 0.0053899588 0.51205002)
(0 0.0041017454 0.51150039)
(0 0.0028414456 0.51112174)
(0 0.0015998652 0.51090153)
(0 0.00036785983 0.51083268)
(0 -0.0008636717 0.51091319)
(0 -0.0021038586 0.51114601)
(0 -0.0033618129 0.51153923)
(0 -0.004646708 0.51210655)
(0 -0.0059677473 0.51286806)
(0 -0.0073341374 0.51385155)
(0 -0.0087550117 0.51509434)
(0 -0.010239394 0.51664606)
(0 -0.011795807 0.51857261)
(0 -0.013432389 0.52096221)
(0 -0.015156978 0.52393217)
(0 -0.016970737 0.527633)
(0 -0.018885295 0.5323444)
(0 -0.020964419 0.53915928)
(0 -0.023533858 0.55089396)
(0 -0.026505595 0.564961)
(0 -0.025673715 0.54632439)
(0 -0.01529669 0.41865086)
(0 0.00057431304 0.1494528)
(0 -0.0010857025 0.13172422)
(0 0.011623612 0.39143398)
(0 0.025192569 0.54230548)
(0 0.028553186 0.57697266)
(0 0.026046278 0.56375864)
(0 0.023257464 0.54840399)
(0 0.021123323 0.53927938)
(0 0.019238762 0.53337864)
(0 0.017445877 0.52885293)
(0 0.015720094 0.52521553)
(0 0.014067617 0.52227776)
(0 0.01248536 0.51989715)
(0 0.010968295 0.51796445)
(0 0.0095109822 0.51639818)
(0 0.0081070235 0.51513717)
(0 0.0067495332 0.51413515)
(0 0.0054312406 0.51335722)
(0 0.0041446227 0.5127774)
(0 0.0028820144 0.51237702)
(0 0.0016356706 0.51214353)
(0 0.00039780921 0.51206988)
(0 -0.00083934453 0.51215403)
(0 -0.0020835848 0.51239894)
(0 -0.003342637 0.51281268)
(0 -0.0046241865 0.51340891)
(0 -0.0059358005 0.51420764)
(0 -0.0072848632 0.51523651)
(0 -0.0086784497 0.51653258)
(0 -0.010123265 0.51814501)
(0 -0.011625284 0.52013914)
(0 -0.013189722 0.52260219)
(0 -0.01482124 0.52564913)
(0 -0.016517769 0.52942987)
(0 -0.018291276 0.53426743)
(0 -0.020225744 0.54141039)
(0 -0.022607481 0.55345702)
(0 -0.025066055 0.56562834)
(0 -0.02336553 0.54024779)
(0 -0.012783052 0.40604918)
(0 0.00075950499 0.14302008)
(0 -0.00094386939 0.12740226)
(0 0.0097194359 0.37926721)
(0 0.022895868 0.53437562)
(0 0.026975311 0.57629306)
(0 0.025112399 0.56613086)
(0 0.022524664 0.55075666)
(0 0.020498013 0.54121645)
(0 0.01874042 0.5351515)
(0 0.017064468 0.53055733)
(0 0.015436838 0.52685864)
(0 0.013864701 0.5238589)
(0 0.012346823 0.52141882)
(0 0.010880243 0.51943061)
(0 0.0094614405 0.51781369)
(0 0.0080859043 0.5165076)
(0 0.0067485405 0.51546664)
(0 0.005443739 0.5146563)
(0 0.004165516 0.51405088)
(0 0.0029076359 0.51363188)
(0 0.0016636977 0.51338688)
(0 0.0004272036 0.51330884)
(0 -0.00080836112 0.51339575)
(0 -0.0020495224 0.51365051)
(0 -0.0033027006 0.51408114)
(0 -0.0045742037 0.51470114)
(0 -0.0058701188 0.5155303)
(0 -0.0071962263 0.51659593)
(0 -0.0085578517 0.51793463)
(0 -0.0099597952 0.51959494)
(0 -0.011406037 0.52164139)
(0 -0.012899604 0.52416002)
(0 -0.014442883 0.52726339)
(0 -0.016032033 0.5311036)
(0 -0.017681879 0.53605632)
(0 -0.019494459 0.5435025)
(0 -0.021700126 0.55567801)
(0 -0.023670199 0.56563435)
(0 -0.021273261 0.53384155)
(0 -0.010730224 0.39443862)
(0 0.00080531946 0.1377669)
(0 -0.00077527395 0.12377615)
(0 0.0082533967 0.3682193)
(0 0.020871206 0.5264039)
(0 0.025495567 0.57501917)
(0 0.024223391 0.56812489)
(0 0.021830189 0.55296002)
(0 0.019890759 0.54304415)
(0 0.018237434 0.53681211)
(0 0.016663085 0.53215981)
(0 0.015124129 0.52841568)
(0 0.013626764 0.52536907)
(0 0.012170792 0.52288301)
(0 0.010754648 0.52085121)
(0 0.0093761416 0.51919392)
(0 0.0080321817 0.5178514)
(0 0.0067190946 0.51677858)
(0 0.0054326444 0.51594144)
(0 0.0041681665 0.51531464)
(0 0.002920686 0.51487993)
(0 0.0016850136 0.51462503)
(0 0.00045582729 0.514543)
(0 -0.00077222652 0.51463183)
(0 -0.0020045047 0.51489439)
(0 -0.0032462357 0.51533853)
(0 -0.0045024893 0.51597757)
(0 -0.005778051 0.51683099)
(0 -0.0070773314 0.51792566)
(0 -0.0084042133 0.51929762)
(0 -0.0097619881 0.52099471)
(0 -0.011153137 0.52308058)
(0 -0.012579132 0.52564005)
(0 -0.014040842 0.52878354)
(0 -0.015533958 0.53266889)
(0 -0.017077877 0.53773134)
(0 -0.018788806 0.54545209)
(0 -0.020829351 0.55757937)
(0 -0.022344594 0.56508394)
(0 -0.019402017 0.52726767)
(0 -0.0090754405 0.38377871)
(0 0.00076826187 0.13342086)
(0 -0.00060790238 0.12065563)
(0 0.0071263034 0.35818139)
(0 0.019090569 0.51850245)
(0 0.024119827 0.57325997)
(0 0.023381716 0.56977007)
(0 0.021178501 0.55502699)
(0 0.019311654 0.54478293)
(0 0.017742512 0.5383788)
(0 0.016255161 0.53367297)
(0 0.014795231 0.52989477)
(0 0.013366332 0.526813)
(0 0.011968701 0.5242918)
(0 0.010601645 0.52222623)
(0 0.0092638362 0.52053721)
(0 0.0079532077 0.5191657)
(0 0.0066671775 0.51806722)
(0 0.0054026171 0.51720825)
(0 0.0041559657 0.51656384)
(0 0.0029233336 0.51611601)
(0 0.0017005971 0.5158527)
(0 0.0004834833 0.51576704)
(0 -0.00073231846 0.51585705)
(0 -0.0019511154 0.51612551)
(0 -0.0031770754 0.51658015)
(0 -0.004414183 0.51723401)
(0 -0.005666109 0.51810623)
(0 -0.0069361241 0.51922321)
(0 -0.0082269574 0.5206204)
(0 -0.0095407467 0.52234491)
(0 -0.010878901 0.52445961)
(0 -0.012241852 0.5270481)
(0 -0.013629573 0.5302193)
(0 -0.015038398 0.53414061)
(0 -0.016493284 0.539311)
(0 -0.018119571 0.54727352)
(0 -0.020004878 0.55918552)
(0 -0.021103708 0.56407187)
(0 -0.017742557 0.52064683)
(0 -0.0077539896 0.37400656)
(0 0.00068674384 0.12976664)
(0 -0.00045667558 0.11790547)
(0 0.0062555727 0.349044)
(0 0.017523819 0.5107478)
(0 0.022846202 0.57110681)
(0 0.022586016 0.57109441)
(0 0.020569774 0.55696698)
(0 0.018765742 0.54644891)
(0 0.017263772 0.53986773)
(0 0.015850136 0.5351087)
(0 0.014459981 0.53130407)
(0 0.013093091 0.52819601)
(0 0.011749682 0.52564818)
(0 0.010429547 0.52355672)
(0 0.0091318586 0.52184313)
(0 0.0078552563 0.52044887)
(0 0.0065979703 0.51933002)
(0 0.0053577423 0.51845351)
(0 0.0041319146 0.51779478)
(0 0.002917511 0.51733615)
(0 0.0017113249 0.51706573)
(0 0.00050999869 0.51697677)
(0 -0.00068986342 0.51706728)
(0 -0.0018916478 0.51734)
(0 -0.0030986002 0.51780247)
(0 -0.0043137763 0.51846748)
(0 -0.0055399145 0.5193538)
(0 -0.0067793618 0.52048737)
(0 -0.008033951 0.52190305)
(0 -0.0093049735 0.52364733)
(0 -0.010593119 0.52578234)
(0 -0.011898182 0.52839067)
(0 -0.013219733 0.53158054)
(0 -0.014555652 0.53553283)
(0 -0.015936817 0.5408113)
(0 -0.017492081 0.54897888)
(0 -0.019230716 0.56052116)
(0 -0.019952994 0.56268092)
(0 -0.01627761 0.51406659)
(0 -0.0067046604 0.3650487)
(0 0.0005859438 0.12663771)
(0 -0.00032805908 0.11543143)
(0 0.0055754669 0.34070327)
(0 0.016142017 0.50319004)
(0 0.021668411 0.56863543)
(0 0.021832908 0.57212398)
(0 0.020001608 0.55878661)
(0 0.01825459 0.54805431)
(0 0.01680595 0.54129263)
(0 0.015454364 0.53647778)
(0 0.014125464 0.53265132)
(0 0.01281435 0.52952349)
(0 0.011520873 0.52695556)
(0 0.010245029 0.52484445)
(0 0.0089862294 0.52311205)
(0 0.0077435712 0.52170021)
(0 0.0065158672 0.52056541)
(0 0.0053015258 0.51967501)
(0 0.0040986121 0.51900479)
(0 0.002904904 0.51853733)
(0 0.001717968 0.51826094)
(0 0.00053522824 0.51816897)
(0 -0.00064592486 0.51825943)
(0 -0.0018280871 0.51853498)
(0 -0.0030137198 0.51900301)
(0 -0.0042051006 0.51967604)
(0 -0.0054042059 0.5205725)
(0 -0.0066126531 0.52171789)
(0 -0.0078316023 0.52314657)
(0 -0.0090617518 0.52490447)
(0 -0.01030335 0.52705317)
(0 -0.011555869 0.52967439)
(0 -0.012818846 0.53287677)
(0 -0.014092397 0.53685826)
(0 -0.015413159 0.54224562)
(0 -0.016907795 0.55057811)
(0 -0.018506963 0.56161005)
(0 -0.018891735 0.56098159)
(0 -0.014986339 0.50758844)
(0 -0.0058728529 0.35682853)
(0 0.00048160614 0.1239074)
(0 -0.00022338492 0.11316908)
(0 0.0050355025 0.33306423)
(0 0.01491906 0.4958601)
(0 0.020578203 0.56590828)
(0 0.021118242 0.5728827)
(0 0.019470264 0.56049036)
(0 0.017777515 0.5496079)
(0 0.016371373 0.54266488)
(0 0.015071864 0.53778968)
(0 0.013796595 0.53394366)
(0 0.012535477 0.53080064)
(0 0.011287729 0.52821752)
(0 0.010053344 0.52609159)
(0 0.0088317951 0.52434496)
(0 0.0076224513 0.52291969)
(0 0.0064245239 0.52177259)
(0 0.0052369188 0.52087133)
(0 0.004058267 0.520192)
(0 0.0028869567 0.51971741)
(0 0.0017211935 0.51943603)
(0 0.00055905671 0.51934129)
(0 -0.0006014013 0.51943122)
(0 -0.0017621111 0.51970841)
(0 -0.0029248807 0.52018009)
(0 -0.0040913491 0.52085854)
(0 -0.0052628848 0.52176188)
(0 -0.0064405444 0.52291522)
(0 -0.007625002 0.52435251)
(0 -0.0088165661 0.52611926)
(0 -0.010015256 0.5282766)
(0 -0.01122045 0.53090568)
(0 -0.01243193 0.53411674)
(0 -0.013652516 0.53812803)
(0 -0.01492406 0.54362468)
(0 -0.016365612 0.55207909)
(0 -0.017831274 0.56247425)
(0 -0.017915406 0.55903294)
(0 -0.013847237 0.50125396)
(0 -0.0052118976 0.34927095)
(0 0.00038293732 0.1214809)
(0 -0.00014112444 0.11107504)
(0 0.0045980228 0.32604228)
(0 0.013832266 0.48877528)
(0 0.0195669 0.56297692)
(0 0.020437884 0.57339238)
(0 0.018971517 0.56208109)
(0 0.017332515 0.55111564)
(0 0.015960733 0.54399363)
(0 0.014704953 0.53905259)
(0 0.013476634 0.53518743)
(0 0.012260298 0.53203232)
(0 0.011054318 0.52943759)
(0 0.0098585387 0.52730049)
(0 0.0086723828 0.52554318)
(0 0.0074953564 0.52410781)
(0 0.0063269276 0.52295134)
(0 0.0051663619 0.52204171)
(0 0.0040127241 0.52135524)
(0 0.002864886 0.52087492)
(0 0.001721572 0.52058936)
(0 0.00058139985 0.52049209)
(0 -0.00055703155 0.52058112)
(0 -0.001695104 0.52085897)
(0 -0.0028340917 0.52133273)
(0 -0.0039751216 0.52201449)
(0 -0.0051190882 0.52292208)
(0 -0.0062666302 0.52408031)
(0 -0.0074180869 0.5255228)
(0 -0.0085735345 0.52729476)
(0 -0.0097329164 0.52945704)
(0 -0.01089568 0.53209053)
(0 -0.012062055 0.5353083)
(0 -0.013237837 0.53935154)
(0 -0.014469248 0.54495679)
(0 -0.015862872 0.55348792)
(0 -0.017199964 0.56313374)
(0 -0.017017417 0.55688392)
(0 -0.012839854 0.4950899)
(0 -0.0046832485 0.34230532)
(0 0.00029476757 0.11928843)
(0 -7.8368009e-05 0.10912029)
(0 0.004235611 0.31956336)
(0 0.012862348 0.48194352)
(0 0.018626276 0.55988406)
(0 0.019788118 0.57367294)
(0 0.018501189 0.56356067)
(0 0.016916932 0.55258122)
(0 0.015573674 0.54528604)
(0 0.014354748 0.54027341)
(0 0.013167607 0.53638821)
(0 0.011991443 0.53322289)
(0 0.010823595 0.53061911)
(0 0.0096636635 0.52847355)
(0 0.0085109556 0.52670828)
(0 0.0073650204 0.52526537)
(0 0.0062254765 0.52410188)
(0 0.0050918399 0.52318588)
(0 0.0039634995 0.52249386)
(0 0.002839703 0.52200898)
(0 0.0017195869 0.52171994)
(0 0.00060220375 0.52162032)
(0 -0.00051340539 0.52170815)
(0 -0.0016281787 0.52198588)
(0 -0.0027429631 0.52246049)
(0 -0.0038584837 0.52314387)
(0 -0.0049752753 0.52405366)
(0 -0.0060936763 0.52521442)
(0 -0.0072138106 0.52665952)
(0 -0.0083356394 0.52843402)
(0 -0.009459134 0.53059863)
(0 -0.010583924 0.5332343)
(0 -0.011710837 0.53645827)
(0 -0.012848733 0.54053655)
(0 -0.014047161 0.54624806)
(0 -0.015396094 0.55480919)
(0 -0.016608773 0.56360647)
(0 -0.016190325 0.55457486)
(0 -0.011945696 0.48911222)
(0 -0.0042559695 0.33586698)
(0 0.00021908062 0.11727939)
(0 -3.1749005e-05 0.10728522)
(0 0.0039286983 0.31356333)
(0 0.01199311 0.47536633)
(0 0.01774898 0.55666533)
(0 0.019165812 0.57374274)
(0 0.018055437 0.56493039)
(0 0.016527876 0.55400661)
(0 0.01520921 0.54654758)
(0 0.014021553 0.54145788)
(0 0.012870649 0.53755079)
(0 0.011730632 0.53437626)
(0 0.01059764 0.53176517)
(0 0.0094709622 0.52961311)
(0 0.0083497599 0.5278419)
(0 0.0072335628 0.52639343)
(0 0.0061220621 0.52522474)
(0 0.0050149399 0.52430396)
(0 0.0039118204 0.52360768)
(0 0.0028122361 0.52311916)
(0 0.0017156451 0.52282721)
(0 0.0006214431 0.52272542)
(0 -0.00047097785 0.52281183)
(0 -0.0015622048 0.52308885)
(0 -0.0026527503 0.52356333)
(0 -0.0037430317 0.52424705)
(0 -0.0048333194 0.52515746)
(0 -0.0059237454 0.52631896)
(0 -0.0070143096 0.52776479)
(0 -0.0081049426 0.52953995)
(0 -0.0091957095 0.53170516)
(0 -0.010286498 0.53434176)
(0 -0.011378835 0.53757247)
(0 -0.0124846 0.54168928)
(0 -0.013655485 0.54750284)
(0 -0.014961485 0.55604632)
(0 -0.016053383 0.56390849)
(0 -0.015426638 0.55213903)
(0 -0.011148568 0.48332915)
(0 -0.0039058239 0.3298979)
(0 0.00015608151 0.11541748)
(0 2.0148362e-06 0.10555623)
(0 0.003663523 0.30798705)
(0 0.01121103 0.46904098)
(0 0.016928663 0.55335067)
(0 0.018568433 0.57361882)
(0 0.017630899 0.56619135)
(0 0.016162496 0.55539254)
(0 0.014866011 0.54778235)
(0 0.013705136 0.54261078)
(0 0.01258627 0.53867931)
(0 0.01147891 0.53549585)
(0 0.010377857 0.53287859)
(0 0.0092820374 0.53072139)
(0 0.0081904596 0.5289457)
(0 0.0071025937 0.52749316)
(0 0.0060181492 0.52632066)
(0 0.0049369103 0.52539633)
(0 0.0038586651 0.5246968)
(0 0.0027831568 0.52420541)
(0 0.0017100877 0.523911)
(0 0.00063911916 0.52380721)
(0 -0.00043008477 0.52389206)
(0 -0.0014978393 0.5241679)
(0 -0.0025644019 0.52464153)
(0 -0.0036299608 0.52532462)
(0 -0.0046945993 0.5262345)
(0 -0.0057583168 0.52739546)
(0 -0.006821057 0.52884069)
(0 -0.0078827775 0.53061525)
(0 -0.0089436753 0.53277999)
(0 -0.010003941 0.53541704)
(0 -0.01106588 0.53865579)
(0 -0.012144218 0.54281462)
(0 -0.013291536 0.54872399)
(0 -0.014555276 0.55720189)
(0 -0.015529726 0.56405414)
(0 -0.014719301 0.54960387)
(0 -0.010434592 0.47774351)
(0 -0.003614204 0.32434669)
(0 0.00010494007 0.11367681)
(0 2.5843318e-05 0.10392339)
(0 0.0034304908 0.30278725)
(0 0.010504816 0.46296193)
(0 0.016159944 0.54996531)
(0 0.017993992 0.57331705)
(0 0.017224729 0.56734468)
(0 0.015818128 0.55673889)
(0 0.014542591 0.54899327)
(0 0.013404934 0.543736)
(0 0.012314545 0.53977727)
(0 0.011236831 0.53658465)
(0 0.010165137 0.53396187)
(0 0.0090979907 0.53180045)
(0 0.0080342518 0.53002133)
(0 0.0069733078 0.5285658)
(0 0.0059148495 0.52739053)
(0 0.0048587155 0.52646359)
(0 0.0038048021 0.52576161)
(0 0.0027530029 0.52526794)
(0 0.0017032006 0.52497145)
(0 0.00065525658 0.5248658)
(0 -0.00039095927 0.52494899)
(0 -0.0014355574 0.52522335)
(0 -0.0024786063 0.52569561)
(0 -0.0035201299 0.52637737)
(0 -0.0045600854 0.52728589)
(0 -0.0055983965 0.52844543)
(0 -0.0066349987 0.5298892)
(0 -0.0076699146 0.5316624)
(0 -0.0087034901 0.53382611)
(0 -0.0097362453 0.53646367)
(0 -0.010771317 0.53971225)
(0 -0.011826017 0.5439163)
(0 -0.012952534 0.54991323)
(0 -0.014173925 0.55827789)
(0 -0.015034156 0.56405636)
(0 -0.014061957 0.54699213)
(0 -0.0097920401 0.4723544)
(0 -0.0033670641 0.31916827)
(0 6.4297244e-05 0.11203895)
(0 4.2185708e-05 0.10237898)
(0 0.0032229201 0.29792343)
(0 0.0098650079 0.45712191)
(0 0.015438289 0.54653069)
(0 0.017440942 0.57285236)
(0 0.016834577 0.56839174)
(0 0.015492363 0.55804498)
(0 0.014237432 0.5501824)
(0 0.013120194 0.54483672)
(0 0.012055266 0.54084769)
(0 0.011004595 0.53764527)
(0 0.0099599865 0.53501729)