/*--------------------------------*- C++ -*----------------------------------*\
  =========                 |
  \\      /  F ield         | OpenFOAM: The Open Source CFD Toolbox
   \\    /   O peration     | Website:  https://openfoam.org
    \\  /    A nd           | Version:  10
     \\/     M anipulation  |
\*---------------------------------------------------------------------------*/
FoamFile
{
    format      ascii;
    class       volVectorField;
    location    "0.24";
    object      U_0;
}
// * * * * * * * * * * * * * * * * * * * * * * * * * * * * * * * * * * * * * //

dimensions      [0 1 -1 0 0 0 0];

internalField   nonuniform List<vector> 
4000
(
(0 0.01863746 0.47773157)
(0 0.023510001 0.50886061)
(0 0.0081668503 0.50052521)
(0 0.0056146121 0.50033634)
(0 0.0042546279 0.50025746)
(0 0.003254946 0.50016898)
(0 0.0025560948 0.50011969)
(0 0.0020545896 0.50009013)
(0 0.0016765912 0.50006981)
(0 0.0013822563 0.50005539)
(0 0.0011472124 0.50004499)
(0 0.00095512064 0.50003733)
(0 0.00079472685 0.5000316)
(0 0.00065805529 0.50002727)
(0 0.0005392776 0.50002399)
(0 0.00043401309 0.50002151)
(0 0.00033887438 0.50001966)
(0 0.00025115947 0.50001833)
(0 0.00016863566 0.50001744)
(0 8.9381038e-05 0.50001694)
(0 1.1662126e-05 0.50001679)
(0 -6.6173106e-05 0.50001698)
(0 -0.00014578697 0.50001755)
(0 -0.00022894401 0.5000185)
(0 -0.00031762173 0.50001991)
(0 -0.00041414131 0.50002185)
(0 -0.00052133926 0.50002446)
(0 -0.00064280682 0.50002793)
(0 -0.00078323774 0.50003252)
(0 -0.00094895808 0.50003863)
(0 -0.0011487775 0.50004688)
(0 -0.0013953542 0.50005824)
(0 -0.0017074348 0.50007414)
(0 -0.002115368 0.50009709)
(0 -0.0026750681 0.50013481)
(0 -0.0034686452 0.50020238)
(0 -0.0045608772 0.50027143)
(0 -0.00658507 0.50043364)
(0 -0.017659512 0.50675406)
(0 -0.013590157 0.47975562)
(0 0.03743269 0.44796927)
(0 0.050955745 0.53232616)
(0 0.021969313 0.5080429)
(0 0.016135643 0.50357318)
(0 0.012416088 0.50242316)
(0 0.0095159668 0.50162299)
(0 0.0075206421 0.50115661)
(0 0.0060699237 0.50086593)
(0 0.0049646135 0.500668)
(0 0.0041001791 0.50052901)
(0 0.0034076702 0.50042904)
(0 0.0028401391 0.50035554)
(0 0.002365212 0.50030065)
(0 0.0019598052 0.50025925)
(0 0.0016069584 0.5002279)
(0 0.0012938765 0.50020424)
(0 0.0010106344 0.50018664)
(0 0.00074929452 0.50017396)
(0 0.00050328266 0.50016546)
(0 0.00026692942 0.50016062)
(0 3.5114316e-05 0.50015919)
(0 -0.00019704186 0.5001611)
(0 -0.00043444832 0.50016644)
(0 -0.00068231529 0.50017555)
(0 -0.00094647296 0.50018896)
(0 -0.0012337505 0.50020752)
(0 -0.0015524719 0.50023246)
(0 -0.0019131434 0.50026557)
(0 -0.0023294457 0.50030949)
(0 -0.0028197187 0.5003681)
(0 -0.0034093373 0.50044735)
(0 -0.0041346774 0.5005567)
(0 -0.0050488176 0.50071126)
(0 -0.0062316232 0.50093661)
(0 -0.0078319775 0.50129438)
(0 -0.01012567 0.50191052)
(0 -0.013106811 0.5028251)
(0 -0.017426219 0.50608117)
(0 -0.038759006 0.52526812)
(0 -0.027894665 0.4502165)
(0 0.039888281 0.40982056)
(0 0.061428144 0.54930815)
(0 0.031983773 0.52188196)
(0 0.024355536 0.51008055)
(0 0.019193679 0.50658857)
(0 0.01497723 0.50452808)
(0 0.012006816 0.5032714)
(0 0.0097720311 0.50245839)
(0 0.008036634 0.50190108)
(0 0.0066649787 0.5015087)
(0 0.0055568444 0.50122549)
(0 0.0046426967 0.50101674)
(0 0.0038737979 0.50086059)
(0 0.003214752 0.50074268)
(0 0.0026392249 0.5006533)
(0 0.0021271634 0.50058578)
(0 0.0016628906 0.50053552)
(0 0.0012337868 0.50049931)
(0 0.00082934481 0.50047499)
(0 0.0004404659 0.50046117)
(0 5.8908778e-05 0.50045708)
(0 -0.00032318791 0.50046251)
(0 -0.00071373271 0.5004778)
(0 -0.0011211049 0.50050382)
(0 -0.0015546494 0.50054212)
(0 -0.0020252609 0.50059508)
(0 -0.0025461376 0.50066621)
(0 -0.0031338123 0.50076057)
(0 -0.003809615 0.50088557)
(0 -0.0046017851 0.50105211)
(0 -0.0055486774 0.50127675)
(0 -0.006704272 0.5015856)
(0 -0.0081457698 0.50202079)
(0 -0.0099772594 0.50265072)
(0 -0.012371555 0.50361507)
(0 -0.015716618 0.50519917)
(0 -0.019873057 0.50785391)
(0 -0.02518673 0.51641222)
(0 -0.047417296 0.53912729)
(0 -0.03085375 0.41488016)
(0 0.034791587 0.36173008)
(0 0.063838933 0.55456333)
(0 0.039380441 0.53747136)
(0 0.030083438 0.51849261)
(0 0.024112673 0.5119773)
(0 0.019279678 0.50849945)
(0 0.015736269 0.50626426)
(0 0.012954286 0.50475545)
(0 0.010743767 0.50370444)
(0 0.0089680203 0.50295614)
(0 0.0075140146 0.5024111)
(0 0.0063020851 0.50200682)
(0 0.0052744269 0.50170303)
(0 0.004387783 0.50147281)
(0 0.003609337 0.5012978)
(0 0.0029137053 0.50116532)
(0 0.0022807819 0.50106652)
(0 0.0016942066 0.50099526)
(0 0.0011402388 0.50094734)
(0 0.00060689926 0.50092008)
(0 8.328733e-05 0.50091201)
(0 -0.00044101744 0.50092271)
(0 -0.00097649598 0.50095281)
(0 -0.0015342182 0.50100403)
(0 -0.002126463 0.50107934)
(0 -0.002767436 0.50118335)
(0 -0.0034741758 0.50132275)
(0 -0.0042677597 0.50150723)
(0 -0.005174967 0.50175079)
(0 -0.0062305768 0.5020739)
(0 -0.0074804568 0.50250704)
(0 -0.0089868386 0.50309721)
(0 -0.010837092 0.50391912)
(0 -0.013137776 0.50508913)
(0 -0.016024549 0.50680676)
(0 -0.01989998 0.50946737)
(0 -0.024731955 0.51427475)
(0 -0.031113831 0.5282469)
(0 -0.050320009 0.54407185)
(0 -0.028438477 0.37238076)
(0 0.027424259 0.3148433)
(0 0.062314891 0.55024065)
(0 0.044614603 0.55146763)
(0 0.033982103 0.52748812)
(0 0.027464142 0.51772242)
(0 0.022455256 0.51291981)
(0 0.01863689 0.50973142)
(0 0.015528238 0.50749262)
(0 0.013006318 0.50589993)
(0 0.010942305 0.5047469)
(0 0.0092248158 0.50389614)
(0 0.0077749983 0.50325917)
(0 0.0065328658 0.50277711)
(0 0.0054519929 0.50240972)
(0 0.0044963309 0.50212922)
(0 0.0036374138 0.50191614)
(0 0.0028522974 0.50175681)
(0 0.0021220422 0.50164165)
(0 0.0014305537 0.50156409)
(0 0.00076367187 0.50151991)
(0 0.0001084318 0.5015068)
(0 -0.0005475971 0.50152409)
(0 -0.0012169141 0.50157278)
(0 -0.0019126656 0.50165557)
(0 -0.0026493297 0.50177713)
(0 -0.0034434863 0.50194461)
(0 -0.0043147622 0.50216842)
(0 -0.0052870425 0.50246345)
(0 -0.0063900783 0.50285094)
(0 -0.007661645 0.50336155)
(0 -0.0091500065 0.50403991)
(0 -0.0109176 0.50495256)
(0 -0.01305126 0.50620232)
(0 -0.015654786 0.50794407)
(0 -0.018816028 0.51040417)
(0 -0.022896494 0.51405466)
(0 -0.028177659 0.5211453)
(0 -0.035707727 0.53932636)
(0 -0.050477051 0.54155523)
(0 -0.024086397 0.33055845)
(0 0.019837901 0.27519785)
(0 0.057990028 0.53974657)
(0 0.047363951 0.56256473)
(0 0.036477749 0.53660454)
(0 0.029636264 0.52350709)
(0 0.024676285 0.51740326)
(0 0.020774423 0.51336299)
(0 0.017509981 0.51044452)
(0 0.014814458 0.50832421)
(0 0.012566925 0.50676183)
(0 0.010665855 0.50559281)
(0 0.0090392569 0.50470804)
(0 0.0076295113 0.50403258)
(0 0.0063907575 0.5035142)
(0 0.0052865359 0.50311621)
(0 0.0042873773 0.50281255)
(0 0.003369053 0.50258469)
(0 0.0025112264 0.50241954)
(0 0.0016963736 0.50230809)
(0 0.00090890743 0.50224451)
(0 0.00013445102 0.50222557)
(0 -0.00064082878 0.50225038)
(0 -0.0014308369 0.50232028)
(0 -0.0022501275 0.50243902)
(0 -0.0031145961 0.50261304)
(0 -0.0040422297 0.50285212)
(0 -0.0050540034 0.50317041)
(0 -0.0061749828 0.50358789)
(0 -0.0074357175 0.50413276)
(0 -0.008874136 0.50484496)
(0 -0.010537504 0.50578147)
(0 -0.012484116 0.5070246)
(0 -0.014794185 0.50869751)
(0 -0.017569495 0.51098182)
(0 -0.020864027 0.51411991)
(0 -0.024974056 0.51873008)
(0 -0.030508972 0.52822978)
(0 -0.038630433 0.54872404)
(0 -0.048509157 0.53398469)
(0 -0.019067112 0.29393971)
(0 0.01308317 0.24255505)
(0 0.051798832 0.52520068)
(0 0.047709571 0.57024848)
(0 0.037757223 0.54552491)
(0 0.0308506 0.52928858)
(0 0.026073756 0.5218016)
(0 0.022238247 0.51699786)
(0 0.018954001 0.51347341)
(0 0.016193833 0.51086489)
(0 0.013849935 0.50891241)
(0 0.01183581 0.50743262)
(0 0.010088874 0.50630052)
(0 0.0085565052 0.50542835)
(0 0.0071959534 0.50475398)
(0 0.0059724195 0.50423302)
(0 0.004857086 0.50383356)
(0 0.0038257653 0.50353261)
(0 0.0028577865 0.50331381)
(0 0.0019350622 0.50316581)
(0 0.0010413098 0.5030812)
(0 0.00016138623 0.5030559)
(0 -0.00071933521 0.50308876)
(0 -0.0016155528 0.5031815)
(0 -0.0025425711 0.50333885)
(0 -0.0035169549 0.50356895)
(0 -0.0045572087 0.50388407)
(0 -0.0056845703 0.50430183)
(0 -0.0069239539 0.50484684)
(0 -0.0083050646 0.50555337)
(0 -0.0098639732 0.50646921)
(0 -0.011644875 0.50766151)
(0 -0.013700016 0.50922512)
(0 -0.016098905 0.51129801)
(0 -0.018936836 0.51407954)
(0 -0.022245181 0.51783854)
(0 -0.026264754 0.52346776)
(0 -0.03184854 0.53537514)
(0 -0.039759627 0.55589684)
(0 -0.044894351 0.52282404)
(0 -0.014090798 0.26264689)
(0 0.0077700979 0.21554134)
(0 0.044825809 0.5080102)
(0 0.046255619 0.57438084)
(0 0.038035511 0.55375125)
(0 0.031288131 0.53496047)
(0 0.026768628 0.52603023)
(0 0.023117019 0.52053836)
(0 0.019921143 0.51648816)
(0 0.017182449 0.51344155)
(0 0.01481372 0.51113054)
(0 0.012746526 0.50935942)
(0 0.010928815 0.50799089)
(0 0.0093146858 0.50692735)
(0 0.0078661698 0.50609889)
(0 0.0065515241 0.5054549)
(0 0.0053437928 0.50495854)
(0 0.0042198665 0.50458302)
(0 0.0031596153 0.5043091)
(0 0.0021451377 0.50412333)
(0 0.0011601103 0.5040169)
(0 0.0001892194 0.50398493)
(0 -0.00078238903 0.50402604)
(0 -0.0017696376 0.50414229)
(0 -0.0027879798 0.50433932)
(0 -0.0038539857 0.50462677)
(0 -0.0049859181 0.50501916)
(0 -0.0062043946 0.5055371)
(0 -0.0075331529 0.50620919)
(0 -0.0089998759 0.50707476)
(0 -0.010637359 0.50818796)
(0 -0.012485183 0.50962404)
(0 -0.014588479 0.51148805)
(0 -0.017003448 0.51392888)
(0 -0.019811753 0.51715526)
(0 -0.023029357 0.52148024)
(0 -0.026878782 0.52818268)
(0 -0.032350739 0.54222036)
(0 -0.039403301 0.56050238)
(0 -0.040328478 0.50908516)
(0 -0.0097081508 0.2358596)
(0 0.0040049268 0.19355675)
(0 0.03789948 0.48948743)
(0 0.043687164 0.57524011)
(0 0.037564193 0.56084506)
(0 0.031154562 0.54036112)
(0 0.026914565 0.53001134)
(0 0.023514537 0.52390177)
(0 0.020480764 0.51941257)
(0 0.017827224 0.5159878)
(0 0.015489955 0.51335892)
(0 0.01341863 0.51132412)
(0 0.011571897 0.50973752)
(0 0.0099115955 0.50849449)
(0 0.0084054903 0.50751936)
(0 0.007025753 0.50675674)
(0 0.0057481132 0.50616593)
(0 0.0045512893 0.50571708)
(0 0.0034163636 0.50538855)
(0 0.0023262226 0.50516514)
(0 0.0012650519 0.50503686)
(0 0.00021787818 0.50499812)
(0 -0.00082988457 0.50504737)
(0 -0.0018928873 0.50518694)
(0 -0.0029862167 0.50542324)
(0 -0.0041258938 0.50576723)
(0 -0.0053293311 0.50623527)
(0 -0.0066158477 0.50685047)
(0 -0.0080072523 0.50764463)
(0 -0.0095284001 0.50866111)
(0 -0.011207889 0.50995897)
(0 -0.013079585 0.51161954)
(0 -0.015181005 0.51375549)
(0 -0.017554786 0.51652256)
(0 -0.020265079 0.52013181)
(0 -0.023319749 0.52496345)
(0 -0.026960771 0.53274013)
(0 -0.032202357 0.54839079)
(0 -0.037994524 0.56254421)
(0 -0.035414814 0.49379482)
(0 -0.0062004929 0.21325491)
(0 0.0015510606 0.176134)
(0 0.031499532 0.47076219)
(0 0.040532393 0.57338582)
(0 0.036559142 0.56659843)
(0 0.030637588 0.54537841)
(0 0.026671955 0.53370451)
(0 0.023543423 0.52703219)
(0 0.020710772 0.52218835)
(0 0.018183337 0.51845118)
(0 0.01591765 0.515551)
(0 0.013879284 0.51328565)
(0 0.012036804 0.5115045)
(0 0.010359911 0.51009852)
(0 0.0088223473 0.5089882)
(0 0.0074005833 0.50811481)
(0 0.0060735039 0.50743484)
(0 0.0048221349 0.5069161)
(0 0.0036292364 0.50653515)
(0 0.0024789308 0.50627539)
(0 0.0013563396 0.50612587)
(0 0.00024724196 0.50608048)
(0 -0.00086227645 0.50613746)
(0 -0.0019861893 0.50629941)
(0 -0.0031388023 0.50657335)
(0 -0.0043351561 0.50697128)
(0 -0.0055913607 0.50751103)
(0 -0.0069249621 0.50821763)
(0 -0.0083553488 0.50912531)
(0 -0.0099040898 0.51028037)
(0 -0.011595193 0.51174537)
(0 -0.013456383 0.51360566)
(0 -0.015517726 0.51597872)
(0 -0.017809849 0.51902308)
(0 -0.020379697 0.52294977)
(0 -0.023234509 0.52823568)
(0 -0.026654694 0.53704056)
(0 -0.031564664 0.55365917)
(0 -0.03590425 0.56230904)
(0 -0.030552916 0.47789429)
(0 -0.0035908223 0.19461313)
(0 7.6669239e-05 0.16252566)
(0 0.025870247 0.45260113)
(0 0.037159543 0.56943348)
(0 0.035191303 0.57098882)
(0 0.029877387 0.54996285)
(0 0.026173828 0.53711375)
(0 0.023306049 0.52991224)
(0 0.020687673 0.52478406)
(0 0.018308176 0.52079801)
(0 0.016139178 0.51767387)
(0 0.014159383 0.51521308)
(0 0.012345937 0.51326346)
(0 0.010675758 0.51171379)
(0 0.0091282333 0.51048235)
(0 0.0076841065 0.50950839)
(0 0.0063255704 0.50874652)
(0 0.0050361876 0.50816299)
(0 0.0038006703 0.50773305)
(0 0.0026046717 0.50743911)
(0 0.0014345527 0.50726949)
(0 0.00027714944 0.50721767)
(0 -0.00088047501 0.50728178)
(0 -0.0020513104 0.50746457)
(0 -0.003248575 0.50777356)
(0 -0.0044860236 0.5082215)
(0 -0.0057781657 0.5088273)
(0 -0.007140497 0.50961737)
(0 -0.0085897453 0.51062757)
(0 -0.010144053 0.51190616)
(0 -0.011822906 0.51351786)
(0 -0.013648096 0.51555032)
(0 -0.015642841 0.51812331)
(0 -0.017827774 0.52139501)
(0 -0.020235277 0.52557986)
(0 -0.02287893 0.53128277)
(0 -0.026076665 0.54103143)
(0 -0.030568242 0.55793459)
(0 -0.033425766 0.56019209)
(0 -0.025994576 0.46207256)
(0 -0.0017648448 0.1794745)
(0 -0.00071804724 0.15190833)
(0 0.021107802 0.43543607)
(0 0.03381896 0.56393204)
(0 0.033603725 0.57408905)
(0 0.028974632 0.55409377)
(0 0.025519744 0.54026332)
(0 0.02288605 0.5325524)
(0 0.020478424 0.52719172)
(0 0.018254751 0.52301223)
(0 0.016195625 0.51970796)
(0 0.014290315 0.51708561)
(0 0.012523061 0.51499375)
(0 0.010876962 0.5133205)
(0 0.0093363857 0.51198322)
(0 0.007886045 0.51092012)
(0 0.0065113397 0.51008483)
(0 0.0051983929 0.50944265)
(0 0.003933976 0.50896801)
(0 0.0027054307 0.50864265)
(0 0.0015005432 0.50845442)
(0 0.00030740766 0.50839651)
(0 -0.00088572745 0.50846697)
(0 -0.0020906587 0.50866868)
(0 -0.0033193159 0.50900946)
(0 -0.0045839814 0.50950259)
(0 -0.0058974067 0.51016768)
(0 -0.0072729321 0.51103198)
(0 -0.0087245964 0.51213237)
(0 -0.010267215 0.51351816)
(0 -0.011916107 0.51525519)
(0 -0.013687724 0.51743211)
(0 -0.015599221 0.52016908)
(0 -0.01766307 0.52362199)
(0 -0.019900739 0.52801656)
(0 -0.022338406 0.53411087)
(0 -0.025317621 0.54468176)
(0 -0.029328248 0.56120768)
(0 -0.03079062 0.55658857)
(0 -0.021893365 0.44676791)
(0 -0.00056422526 0.16725185)
(0 -0.0010701807 0.14358467)
(0 0.017203054 0.41948118)
(0 0.030666247 0.55734081)
(0 0.031914325 0.57602032)
(0 0.028003396 0.55776351)
(0 0.024783242 0.54317908)
(0 0.022349881 0.5349754)
(0 0.020138666 0.52941722)
(0 0.018068837 0.52508982)
(0 0.016124018 0.52164386)
(0 0.014301586 0.51889073)
(0 0.012591384 0.51668132)
(0 0.010981551 0.51490407)
(0 0.0094606444 0.51347626)
(0 0.0080168838 0.51233587)
(0 0.00663861 0.51143615)
(0 0.0053143828 0.51074199)
(0 0.0040330104 0.51022739)
(0 0.0027835649 0.50987374)
(0 0.0015553419 0.50966862)
(0 0.00033780114 0.50960503)
(0 -0.00087950465 0.50968097)
(0 -0.0021070597 0.50989939)
(0 -0.0033553986 0.51026831)
(0 -0.0046352486 0.51080129)
(0 -0.0059575629 0.51151833)
(0 -0.0073335541 0.51244711)
(0 -0.0087746966 0.51362495)
(0 -0.010292735 0.51510154)
(0 -0.011899313 0.51694306)
(0 -0.013606309 0.51923824)
(0 -0.015425726 0.52210628)
(0 -0.017363552 0.5257001)
(0 -0.019434391 0.53026685)
(0 -0.021681889 0.53673168)
(0 -0.024450789 0.54797144)
(0 -0.02794638 0.56352232)
(0 -0.028169382 0.55186022)
(0 -0.018323451 0.43224502)
(0 0.00016946459 0.15739916)
(0 -0.0011532921 0.13700329)
(0 0.014078516 0.40481683)
(0 0.027781456 0.55003411)
(0 0.030211149 0.57693009)
(0 0.027016089 0.56097855)
(0 0.02401731 0.54588499)
(0 0.021749419 0.53720821)
(0 0.019713589 0.5314737)
(0 0.017788769 0.52703403)
(0 0.015956462 0.52347897)
(0 0.014219668 0.52062205)
(0 0.012572406 0.51831733)
(0 0.011006734 0.51645423)
(0 0.0095145977 0.51495049)
(0 0.0080871834 0.51374437)
(0 0.006715417 0.5127892)
(0 0.0053900776 0.51204986)
(0 0.0041018946 0.51150023)
(0 0.0028416257 0.51112158)
(0 0.0016000762 0.51090137)
(0 0.00036810135 0.51083253)
(0 -0.00086340019 0.51091303)
(0 -0.002103558 0.51114586)
(0 -0.0033614844 0.5115391)
(0 -0.0046463529 0.51210642)
(0 -0.0059673676 0.51286794)
(0 -0.007333735 0.51385144)
(0 -0.008754589 0.51509425)
(0 -0.010238954 0.51664598)
(0 -0.011795352 0.51857256)
(0 -0.013431922 0.52096218)
(0 -0.015156503 0.52393216)
(0 -0.016970258 0.52763301)
(0 -0.018884815 0.53234444)
(0 -0.02096394 0.53915932)
(0 -0.023533371 0.55089398)
(0 -0.026505107 0.56496108)
(0 -0.025673302 0.54632488)
(0 -0.015296475 0.41865192)
(0 0.00057435244 0.14945365)
(0 -0.0010857114 0.13172445)
(0 0.011623539 0.39143433)
(0 0.025192424 0.54230565)
(0 0.028553009 0.57697265)
(0 0.026046108 0.56375857)
(0 0.023257311 0.54840392)
(0 0.021123185 0.5392793)
(0 0.01923864 0.53337854)
(0 0.017445774 0.52885281)
(0 0.015720012 0.5252154)
(0 0.014067559 0.52227762)
(0 0.012485328 0.519897)
(0 0.010968291 0.51796429)
(0 0.0095110093 0.51639801)
(0 0.0081070824 0.51513698)
(0 0.0067496252 0.51413496)
(0 0.0054313668 0.51335703)
(0 0.0041447837 0.51277721)
(0 0.0028822107 0.51237682)
(0 0.0016359022 0.51214334)
(0 0.00039807582 0.51206969)
(0 -0.00083904347 0.51215384)
(0 -0.0020832503 0.51239876)
(0 -0.0033422703 0.51281251)
(0 -0.0046237892 0.51340875)
(0 -0.0059353746 0.5142075)
(0 -0.0072844109 0.51523639)
(0 -0.0086779736 0.51653247)
(0 -0.010122768 0.51814492)
(0 -0.01162477 0.52013907)
(0 -0.013189193 0.52260214)
(0 -0.014820701 0.52564911)
(0 -0.016517224 0.52942988)
(0 -0.018290728 0.53426746)
(0 -0.020225195 0.54141042)
(0 -0.02260692 0.55345703)
(0 -0.025065497 0.56562846)
(0 -0.02336507 0.54024842)
(0 -0.012782815 0.40605045)
(0 0.00075954638 0.14302105)
(0 -0.00094387851 0.12740252)
(0 0.0097193526 0.37926763)
(0 0.022895699 0.53437585)
(0 0.026975101 0.57629306)
(0 0.025112194 0.56613078)
(0 0.022524479 0.55075657)
(0 0.020497846 0.54121635)
(0 0.01874027 0.53515138)
(0 0.01706434 0.53055719)
(0 0.015436734 0.52685849)
(0 0.013864625 0.52385873)
(0 0.012346776 0.52141863)
(0 0.010880229 0.51943042)
(0 0.0094614608 0.51781348)
(0 0.0080859608 0.51650738)
(0 0.0067486347 0.51546641)
(0 0.0054438721 0.51465607)
(0 0.0041656887 0.51405065)
(0 0.0029078488 0.51363165)
(0 0.0016639507 0.51338665)
(0 0.00042749665 0.51330862)
(0 -0.00080802873 0.51339552)
(0 -0.0020491516 0.5136503)
(0 -0.0033022929 0.51408094)
(0 -0.0045737608 0.51470095)
(0 -0.0058696428 0.51553013)
(0 -0.0071957198 0.51659578)
(0 -0.0085573175 0.5179345)
(0 -0.0099592365 0.51959483)
(0 -0.011405457 0.5216413)
(0 -0.012899007 0.52415996)
(0 -0.014442273 0.52726336)
(0 -0.016031415 0.5311036)
(0 -0.017681256 0.53605635)
(0 -0.019493832 0.54350253)
(0 -0.021699484 0.55567802)
(0 -0.023669566 0.56563452)
(0 -0.021272748 0.53384235)
(0 -0.010729964 0.39444014)
(0 0.00080536261 0.137768)
(0 -0.00077528328 0.12377645)
(0 0.0082533011 0.36821982)
(0 0.020871012 0.5264042)
(0 0.025495319 0.57501919)
(0 0.024223145 0.5681248)
(0 0.021829966 0.55295991)
(0 0.019890557 0.54304403)
(0 0.018237252 0.53681197)
(0 0.016662928 0.53215965)
(0 0.015124 0.5284155)
(0 0.013626666 0.52536887)
(0 0.012170728 0.52288279)
(0 0.01075462 0.52085098)
(0 0.009376153 0.51919367)
(0 0.0080322341 0.51785114)
(0 0.0067191898 0.51677831)
(0 0.0054327836 0.51594117)
(0 0.0041683506 0.51531437)
(0 0.0029209157 0.51487965)
(0 0.001685289 0.51462475)
(0 0.00045614819 0.51454273)
(0 -0.00077186082 0.51463157)
(0 -0.0020040952 0.51489413)
(0 -0.003245784 0.51533829)
(0 -0.0045019972 0.51597735)
(0 -0.0057775209 0.51683078)
(0 -0.007076766 0.51792548)
(0 -0.0084036157 0.51929746)
(0 -0.0097613618 0.52099457)
(0 -0.011152486 0.52308048)
(0 -0.01257846 0.52563997)
(0 -0.014040155 0.5287835)
(0 -0.015533259 0.53266888)
(0 -0.017077172 0.53773137)
(0 -0.018788092 0.54545211)
(0 -0.02082862 0.55757937)
(0 -0.022343878 0.56508418)
(0 -0.019401448 0.52726867)
(0 -0.009075154 0.38378049)
(0 0.00076830655 0.1334221)
(0 -0.00060791187 0.12065599)
(0 0.0071261943 0.35818202)
(0 0.019090345 0.51850284)
(0 0.024119536 0.57326002)
(0 0.023381424 0.56976997)
(0 0.021178234 0.55502686)
(0 0.019311412 0.54478279)
(0 0.017742294 0.53837864)
(0 0.01625497 0.53367279)
(0 0.014795072 0.52989456)
(0 0.013366208 0.52681277)
(0 0.011968615 0.52429155)
(0 0.010601601 0.52222595)
(0 0.0092638362 0.52053693)
(0 0.0079532541 0.5191654)
(0 0.0066672722 0.51806691)
(0 0.0054027616 0.51720793)
(0 0.0041561611 0.51656351)
(0 0.0029235805 0.51611569)
(0 0.0017008958 0.51585237)
(0 0.00048383351 0.51576673)
(0 -0.00073191738 0.51585674)
(0 -0.0019506646 0.51612521)
(0 -0.0031765763 0.51657986)
(0 -0.0044136379 0.51723374)
(0 -0.0056655203 0.51810598)
(0 -0.0069354948 0.51922299)
(0 -0.0082262909 0.5206202)
(0 -0.0095400468 0.52234475)
(0 -0.010878172 0.52445948)
(0 -0.012241099 0.527048)
(0 -0.0136288 0.53021924)
(0 -0.015037611 0.5341406)
(0 -0.016492487 0.53931101)
(0 -0.018118761 0.54727352)
(0 -0.020004047 0.55918552)
(0 -0.021102902 0.5640722)
(0 -0.017741927 0.52064807)
(0 -0.0077536741 0.37400864)
(0 0.00068678988 0.12976804)
(0 -0.0004566852 0.11790589)
(0 0.0062554488 0.34904476)
(0 0.017523563 0.51074829)
(0 0.022845863 0.5711069)
(0 0.022585671 0.57109429)
(0 0.020569457 0.55696682)
(0 0.018765454 0.54644875)
(0 0.017263512 0.53986754)
(0 0.015849908 0.53510849)
(0 0.014459788 0.53130382)
(0 0.013092938 0.52819573)
(0 0.011749572 0.52564788)
(0 0.010429483 0.5235564)
(0 0.0091318446 0.52184279)
(0 0.0078552945 0.52044852)
(0 0.0065980629 0.51932965)
(0 0.0053578911 0.51845314)
(0 0.0041321207 0.5177944)
(0 0.0029177753 0.51733577)
(0 0.0017116477 0.51706535)
(0 0.00051037975 0.5169764)
(0 -0.00068942476 0.51706692)
(0 -0.0018911527 0.51733965)
(0 -0.0030980504 0.51780214)
(0 -0.004313174 0.51846717)
(0 -0.0055392624 0.51935351)
(0 -0.0067786631 0.52048711)
(0 -0.0080332095 0.52190282)
(0 -0.0093041932 0.52364713)
(0 -0.010592304 0.52578219)
(0 -0.011897338 0.52839055)
(0 -0.013218866 0.53158047)
(0 -0.014554768 0.5355328)
(0 -0.015935918 0.5408113)
(0 -0.017491164 0.54897887)
(0 -0.019229775 0.56052116)
(0 -0.01995209 0.56268135)
(0 -0.016276913 0.51406809)
(0 -0.0067043132 0.36505112)
(0 0.00058599106 0.12663928)
(0 -0.00032806881 0.11543191)
(0 0.0055753268 0.34070416)
(0 0.016141724 0.50319066)
(0 0.021668019 0.56863556)
(0 0.021832502 0.57212385)
(0 0.020001233 0.55878643)
(0 0.018254249 0.54805411)
(0 0.016805642 0.54129241)
(0 0.015454091 0.53647752)
(0 0.014125231 0.53265104)
(0 0.012814161 0.52952317)
(0 0.011520734 0.52695521)
(0 0.010244942 0.52484408)
(0 0.0089861982 0.52311166)
(0 0.0077435988 0.5216998)
(0 0.0065159559 0.52056499)
(0 0.0053016777 0.51967457)
(0 0.0040988285 0.51900435)
(0 0.0029051859 0.51853689)
(0 0.0017183157 0.5182605)
(0 0.00053564172 0.51816854)
(0 -0.00064544634 0.51825901)
(0 -0.0018275448 0.51853457)
(0 -0.0030131155 0.51900262)
(0 -0.0042044366 0.51967567)
(0 -0.0054034853 0.52057216)
(0 -0.0066118792 0.52171758)
(0 -0.0078307791 0.52314629)
(0 -0.0090608839 0.52490424)
(0 -0.010302443 0.52705298)
(0 -0.011554927 0.52967424)
(0 -0.012817876 0.53287667)
(0 -0.014091405 0.53685822)
(0 -0.015412148 0.5422456)
(0 -0.01690676 0.55057807)
(0 -0.018505902 0.56161007)
(0 -0.018890724 0.56098215)
(0 -0.014985569 0.50759024)
(0 -0.0058724713 0.35683131)
(0 0.00048165454 0.12390916)
(0 -0.00022339475 0.11316963)
(0 0.0050353448 0.33306529)
(0 0.014918727 0.49586085)
(0 0.020577751 0.56590847)
(0 0.021117769 0.57288256)
(0 0.019469823 0.56049014)
(0 0.017777113 0.54960767)
(0 0.016371009 0.54266463)
(0 0.01507154 0.53778939)
(0 0.013796317 0.53394333)
(0 0.012535248 0.53080028)
(0 0.011287556 0.52821712)
(0 0.01005323 0.52609117)
(0 0.0088317433 0.52434451)
(0 0.0076224654 0.52291922)
(0 0.0064246066 0.5217721)
(0 0.0052370723 0.52087083)
(0 0.0040584931 0.52019149)
(0 0.0028872562 0.5197169)
(0 0.0017215671 0.51943552)
(0 0.00055950427 0.51934079)
(0 -0.00060088048 0.51943073)
(0 -0.0017615184 0.51970794)
(0 -0.0029242178 0.52017963)
(0 -0.0040906187 0.52085811)
(0 -0.00526209 0.52176148)
(0 -0.0064396889 0.52291486)
(0 -0.0076240901 0.52435218)
(0 -0.0088156027 0.52611898)
(0 -0.010014247 0.52827637)
(0 -0.0112194 0.5309055)
(0 -0.012430846 0.53411662)
(0 -0.013651406 0.53812796)
(0 -0.014922924 0.54362464)
(0 -0.016364446 0.55207903)
(0 -0.017830081 0.56247427)
(0 -0.017914279 0.55903365)
(0 -0.013846388 0.5012561)
(0 -0.0052114789 0.34927414)
(0 0.00038298684 0.12148286)
(0 -0.00014113435 0.11107567)
(0 0.0045978461 0.32604353)
(0 0.013831889 0.48877621)
(0 0.019566382 0.56297718)
(0 0.020437334 0.57339223)
(0 0.018971002 0.56208083)
(0 0.017332045 0.55111537)
(0 0.015960306 0.54399333)
(0 0.014704571 0.53905225)
(0 0.013476303 0.53518705)
(0 0.012260024 0.53203189)
(0 0.011054105 0.52943713)
(0 0.0098583922 0.5273)
(0 0.0086723066 0.52554267)
(0 0.0074953539 0.52410726)
(0 0.006327002 0.52295078)
(0 0.0051665156 0.52204114)
(0 0.004012959 0.52135465)
(0 0.0028652033 0.52087433)
(0 0.0017219724 0.52058878)
(0 0.0005818832 0.5204915)
(0 -0.00055646589 0.52058055)
(0 -0.0016944574 0.52085842)
(0 -0.0028333662 0.5213322)
(0 -0.0039743197 0.52201399)
(0 -0.0051182133 0.52292161)
(0 -0.0062656863 0.52407989)
(0 -0.0074170786 0.52552242)
(0 -0.0085724671 0.52729443)
(0 -0.0097317958 0.52945676)
(0 -0.010894512 0.5320903)
(0 -0.012060848 0.53530815)
(0 -0.013236596 0.53935144)
(0 -0.014467976 0.54495671)
(0 -0.015861562 0.55348782)
(0 -0.017198625 0.56313378)
(0 -0.017016163 0.5568848)
(0 -0.012838919 0.49509242)
(0 -0.00468279 0.34230895)
(0 0.00029481821 0.11929062)
(0 -7.8378007e-05 0.10912101)
(0 0.0042354137 0.31956481)
(0 0.012861922 0.48194464)
(0 0.018625685 0.55988441)
(0 0.019787483 0.57367278)
(0 0.018500588 0.56356037)
(0 0.016916383 0.5525809)
(0 0.015573176 0.5452857)
(0 0.014354301 0.54027302)
(0 0.013167217 0.53638777)
(0 0.011991117 0.53322241)
(0 0.010823337 0.53061858)
(0 0.00966348 0.52847299)
(0 0.0085108506 0.52670769)
(0 0.0073649979 0.52526475)
(0 0.0062255399 0.52410124)
(0 0.005091992 0.52318522)
(0 0.0039637423 0.52249319)
(0 0.0028400379 0.5220083)
(0 0.0017200148 0.52171926)
(0 0.00060272459 0.52161965)
(0 -0.00051279224 0.52170749)
(0 -0.0016274747 0.52198524)
(0 -0.0027421702 0.52245987)
(0 -0.0038576048 0.52314329)
(0 -0.004974314 0.52405312)
(0 -0.0060926367 0.52521392)
(0 -0.0072126978 0.52665907)
(0 -0.0083344589 0.52843362)
(0 -0.0094578921 0.5305983)
(0 -0.010582628 0.53323403)
(0 -0.011709493 0.53645808)
(0 -0.012847349 0.54053641)
(0 -0.014045739 0.54624795)
(0 -0.015394625 0.55480905)
(0 -0.016607276 0.56360655)
(0 -0.016188933 0.55457596)
(0 -0.011944668 0.48911517)
(0 -0.0042554683 0.33587111)
(0 0.00021913239 0.11728182)
(0 -3.1759062e-05 0.10728604)
(0 0.0039284788 0.31356501)
(0 0.01199263 0.47536767)
(0 0.017748307 0.5566658)
(0 0.019165081 0.57374259)
(0 0.018054741 0.56493005)
(0 0.016527239 0.55400624)
(0 0.015208631 0.54654719)
(0 0.014021031 0.54145744)
(0 0.012870193 0.53755029)
(0 0.011730246 0.5343757)
(0 0.010597331 0.53176457)
(0 0.0094707361 0.52961247)
(0 0.0083496216 0.52784122)
(0 0.0072335164 0.52639272)
(0 0.0061221116 0.525224)
(0 0.0050150883 0.5243032)
(0 0.00391207 0.52360691)
(0 0.0028125886 0.52311839)
(0 0.0017161013 0.52282643)
(0 0.0006220032 0.52272465)
(0 -0.00047031448 0.52281108)
(0 -0.0015614396 0.52308811)
(0 -0.0026518853 0.52356262)
(0 -0.00374207 0.52424638)
(0 -0.0048322648 0.52515683)
(0 -0.0059226023 0.52631838)
(0 -0.0070130834 0.52776427)
(0 -0.0081036393 0.52953949)
(0 -0.0091943357 0.53170476)
(0 -0.010285061 0.53434144)
(0 -0.011377343 0.53757223)
(0 -0.01248306 0.5416891)
(0 -0.013653897 0.54750268)
(0 -0.014959842 0.55604615)
(0 -0.016051712 0.5639086)
(0 -0.015425095 0.55214037)
(0 -0.011147439 0.48333259)
(0 -0.0039052769 0.32990256)
(0 0.00015613444 0.11542016)
(0 2.0047912e-06 0.10555716)
(0 0.0036632795 0.30798899)
(0 0.011210491 0.46904257)
(0 0.0169279 0.55335127)
(0 0.018567596 0.57361868)
(0 0.017630096 0.56619095)
(0 0.01616176 0.55539211)
(0 0.01486534 0.54778189)
(0 0.013704531 0.54261027)
(0 0.012585737 0.53867873)
(0 0.011478457 0.53549521)
(0 0.01037749 0.5328779)
(0 0.0092817626 0.53072065)
(0 0.0081902826 0.52894493)
(0 0.0071025192 0.52749235)
(0 0.0060181814 0.52631982)
(0 0.0049370526 0.52539547)
(0 0.0038589201 0.52469593)
(0 0.0027835264 0.52420453)
(0 0.001710573 0.52391012)
(0 0.00063972029 0.52380633)
(0 -0.00042936832 0.5238912)
(0 -0.0014970089 0.52416706)
(0 -0.0025634598 0.52464072)
(0 -0.0036289103 0.52532385)
(0 -0.0046934442 0.52623377)
(0 -0.005757062 0.52739479)
(0 -0.006819708 0.52884009)
(0 -0.0078813408 0.53061471)
(0 -0.0089421581 0.53277952)
(0 -0.010002351 0.53541665)
(0 -0.011064226 0.53865549)
(0 -0.012142507 0.54281439)
(0 -0.013289767 0.54872377)
(0 -0.014553441 0.55720167)
(0 -0.015527866 0.56405431)
(0 -0.014717596 0.54960549)
(0 -0.010433353 0.47774748)
(0 -0.0036136083 0.32435194)
(0 0.00010499419 0.11367978)
(0 2.5833315e-05 0.10392444)
(0 0.0034302215 0.30278949)
(0 0.010504213 0.46296382)
(0 0.016159082 0.54996607)
(0 0.017993036 0.57331694)
(0 0.017223806 0.56734423)
(0 0.01581728 0.55673839)
(0 0.014541817 0.54899274)
(0 0.013404236 0.54373541)
(0 0.012313928 0.53977662)
(0 0.011236302 0.53658393)
(0 0.010164704 0.53396109)
(0 0.0090976604 0.53179961)
(0 0.0080340303 0.53002045)
(0 0.0069732003 0.52856488)
(0 0.0059148606 0.52738958)
(0 0.0048588489 0.52646261)
(0 0.0038050608 0.52576061)
(0 0.0027533892 0.52526693)
(0 0.0017037155 0.52497045)
(0 0.00065590054 0.5248648)
(0 -0.0003901868 0.52494801)
(0 -0.0014346579 0.52522239)
(0 -0.002477582 0.52569468)
(0 -0.003518984 0.52637648)
(0 -0.0045588221 0.52728506)
(0 -0.005597021 0.52844465)
(0 -0.0066335169 0.5298885)
(0 -0.0076683333 0.53166176)
(0 -0.008701817 0.53382557)
(0 -0.0097344886 0.53646321)
(0 -0.010769485 0.53971189)
(0 -0.011824118 0.54391601)
(0 -0.012950565 0.54991295)
(0 -0.014171881 0.55827762)
(0 -0.015032089 0.5640566)
(0 -0.014060076 0.54699408)
(0 -0.0097906832 0.47235897)
(0 -0.0033664165 0.31917417)
(0 6.43526e-05 0.11204222)
(0 4.2175811e-05 0.10238017)
(0 0.0032226231 0.297926)
(0 0.0098643336 0.45712413)
(0 0.015437318 0.54653165)
(0 0.017439855 0.57285227)
(0 0.016833521 0.56839124)
(0 0.01549139 0.5580444)
(0 0.014236543 0.5501818)
(0 0.01311939 0.54483605)
(0 0.012054552 0.54084694)
(0 0.011003981 0.53764445)
(0 0.0099594791 0.5350164)