/*--------------------------------*- C++ -*----------------------------------*\
  =========                 |
  \\      /  F ield         | OpenFOAM: The Open Source CFD Toolbox
   \\    /   O peration     | Website:  https://openfoam.org
    \\  /    A nd           | Version:  10
     \\/     M anipulation  |
\*---------------------------------------------------------------------------*/
FoamFile
{
    format      ascii;
    class       surfaceScalarField;
    location    "0.29";
    object      phi;
}
// * * * * * * * * * * * * * * * * * * * * * * * * * * * * * * * * * * * * * //

dimensions      [1 0 -1 0 0 0 0];

internalField   nonuniform List<scalar> 
7860
(
3.9896008e-08
5.2881203e-07
1.2192741e-08
5.9641108e-07
7.4279191e-09
5.7347258e-07
5.4994382e-09
5.7063619e-07
4.1150115e-09
5.7009211e-07
3.2011514e-09
5.6962152e-07
2.5591483e-09
5.6934964e-07
2.079309e-09
5.6918747e-07
1.7093052e-09
5.6907762e-07
1.4166135e-09
5.690003e-07
1.1794387e-09
5.6894477e-07
9.8301801e-10
5.6890401e-07
8.1700804e-10
5.688736e-07
6.7391876e-10
5.6885067e-07
5.4817718e-10
5.6883332e-07
4.3552297e-10
5.6882023e-07
3.3260266e-10
5.6881049e-07
2.3668922e-10
5.6880348e-07
1.4548003e-10
5.6879878e-07
5.6944299e-11
5.687961e-07
-3.0800432e-11
5.6879531e-07
-1.1959616e-10
5.6879636e-07
-2.1134882e-10
5.6879932e-07
-3.0813561e-10
5.6880436e-07
-4.1233685e-10
5.6881177e-07
-5.2679924e-10
5.6882204e-07
-6.5505636e-10
5.6883583e-07
-8.0164167e-10
5.6885417e-07
-9.7254901e-10
5.6887849e-07
-1.1759394e-09
5.6891098e-07
-1.4233138e-09
5.6895497e-07
-1.7314836e-09
5.6901577e-07
-2.1254263e-09
5.6910156e-07
-2.6450229e-09
5.6922722e-07
-3.3726872e-09
5.6943531e-07
-4.4639677e-09
5.6979894e-07
-6.0092611e-09
5.7025298e-07
-9.5082364e-09
5.7220669e-07
-2.957611e-08
5.8877564e-07
5.3913182e-07
5.9672554e-08
4.6913948e-07
3.6666017e-08
6.1941761e-07
2.2628188e-08
5.875104e-07
1.6253593e-08
5.7701079e-07
1.229052e-08
5.7405518e-07
9.6062527e-09
5.7230579e-07
7.6774502e-09
5.7127845e-07
6.2360769e-09
5.7062884e-07
5.1265366e-09
5.7018716e-07
4.248757e-09
5.6987808e-07
3.537404e-09
5.6965613e-07
2.948309e-09
5.6949311e-07
2.4504271e-09
5.6937148e-07
2.0212836e-09
5.6927981e-07
1.6441641e-09
5.6921044e-07
1.306292e-09
5.691581e-07
9.976103e-10
5.6911917e-07
7.0994127e-10
5.6909115e-07
4.3637977e-10
5.6907234e-07
1.7083466e-10
5.6906165e-07
-9.2339792e-11
5.6905849e-07
-3.5866616e-10
5.6906269e-07
-6.3385598e-10
5.6907451e-07
-9.2414096e-10
5.6909464e-07
-1.2366596e-09
5.6912429e-07
-1.5799483e-09
5.6916532e-07
-1.9646035e-09
5.6922049e-07
-2.4042209e-09
5.6929378e-07
-2.9167826e-09
5.6939105e-07
-3.5267803e-09
5.6952098e-07
-4.2686322e-09
5.6969682e-07
-5.1927028e-09
5.6993985e-07
-6.3756153e-09
5.7028447e-07
-7.9360855e-09
5.7078769e-07
-1.0077334e-08
5.7157655e-07
-1.3205483e-08
5.7292709e-07
-1.8135294e-08
5.7518279e-07
-2.8177503e-08
5.822489e-07
-4.5803354e-08
6.0640149e-07
4.9332847e-07
6.0008881e-08
4.091306e-07
5.0487334e-08
6.2893916e-07
3.337072e-08
6.0462702e-07
2.4817717e-08
5.8556379e-07
1.9323281e-08
5.7954962e-07
1.533152e-08
5.7629755e-07
1.236072e-08
5.7424925e-07
1.0101529e-08
5.7288803e-07
8.3405705e-09
5.7194812e-07
6.9347238e-09
5.7128392e-07
5.7879107e-09
5.7080294e-07
4.8333669e-09
5.7044765e-07
4.0233285e-09
5.7018152e-07
3.3228106e-09
5.6998033e-07
2.7055503e-09
5.698277e-07
2.1513161e-09
5.6971233e-07
1.6440833e-09
5.6962641e-07
1.1707535e-09
5.6956448e-07
7.2022034e-10
5.6952287e-07
2.8265645e-10
5.6949921e-07
-1.5106371e-10
5.6949221e-07
-5.8987011e-10
5.695015e-07
-1.0429903e-09
5.6952763e-07
-1.5204698e-09
5.6957212e-07
-2.0337742e-09
5.696376e-07
-2.5965497e-09
5.697281e-07
-3.2256337e-09
5.6984957e-07
-3.9424665e-09
5.7001062e-07
-4.7751412e-09
5.7022373e-07
-5.761467e-09
5.705073e-07
-6.9536276e-09
5.7088898e-07
-8.4258199e-09
5.7141204e-07
-1.0287441e-08
5.7214609e-07
-1.2700359e-08
5.7320061e-07
-1.589773e-08
5.7477393e-07
-2.0241436e-08
5.772708e-07
-2.6709633e-08
5.8165099e-07
-3.8949093e-08
5.9448836e-07
-4.8168015e-08
6.1562041e-07
4.4516045e-07
5.4879116e-08
3.5425148e-07
5.7452281e-08
6.2636599e-07
4.0467628e-08
6.2161167e-07
3.0778818e-08
5.952526e-07
2.464309e-08
5.8568535e-07
1.9952309e-08
5.8098833e-07
1.631292e-08
5.7788863e-07
1.3466468e-08
5.7573448e-07
1.1200839e-08
5.7421375e-07
9.3643288e-09
5.7312043e-07
7.849054e-09
5.7231821e-07
6.576527e-09
5.7172018e-07
5.4889028e-09
5.7126914e-07
4.5428702e-09
5.7092636e-07
3.7053356e-09
5.7066523e-07
2.9504432e-09
5.7046723e-07
2.257477e-09
5.7031937e-07
1.609343e-09
5.7021262e-07
9.914377e-10
5.7014078e-07
3.9076796e-10
5.7009988e-07
-2.0477208e-10
5.7008775e-07
-8.0704104e-10
5.7010376e-07
-1.4282716e-09
5.7014886e-07
-2.0817249e-09
5.7022557e-07
-2.782441e-09
5.7033831e-07
-3.5481668e-09
5.7049383e-07
-4.4005635e-09
5.7070197e-07
-5.3668393e-09
5.7097689e-07
-6.4820298e-09
5.7133892e-07
-7.7922587e-09
5.7181753e-07
-9.3593044e-09
5.7245603e-07
-1.1266986e-08
5.7331972e-07
-1.3631565e-08
5.7451067e-07
-1.6614384e-08
5.7618343e-07
-2.041321e-08
5.7857275e-07
-2.5294718e-08
5.821523e-07
-3.2518893e-08
5.8887516e-07
-4.5102459e-08
6.0707193e-07
-4.6550352e-08
6.170683e-07
3.986101e-07
4.7965842e-08
3.0628564e-07
6.0076678e-08
6.1425516e-07
4.5400279e-08
6.3628807e-07
3.487545e-08
6.0577743e-07
2.8399915e-08
5.9216088e-07
2.3419629e-08
5.8596861e-07
1.9434252e-08
5.8187401e-07
1.6229046e-08
5.7893969e-07
1.3619496e-08
5.768233e-07
1.1466196e-08
5.7527373e-07
9.6640219e-09
5.7412039e-07
8.1329349e-09
5.7325126e-07
6.8119132e-09
5.7259016e-07
5.6539462e-09
5.7208433e-07
4.6222603e-09
5.7169692e-07
3.6875708e-09
5.7140192e-07
2.8260407e-09
5.711809e-07
2.0177426e-09
5.7102091e-07
1.2454735e-09
5.7091305e-07
4.9381008e-10
5.7085155e-07
-2.5168473e-10
5.7083324e-07
-1.0051711e-09
5.7085725e-07
-1.7812232e-09
5.7092491e-07
-2.5955517e-09
5.710399e-07
-3.4658195e-09
5.7120858e-07
-4.4126258e-09
5.7144063e-07
-5.4607457e-09
5.7175009e-07
-6.6407405e-09
5.7215689e-07
-7.9910834e-09
5.7268926e-07
-9.5610343e-09
5.7338748e-07
-1.1414415e-08
5.7430941e-07
-1.3634033e-08
5.7553934e-07
-1.6328189e-08
5.7720483e-07
-1.9640481e-08
5.7949572e-07
-2.3741168e-08
5.8267344e-07
-2.8933176e-08
5.8734431e-07
-3.6793386e-08
5.9673537e-07
-4.8465887e-08
6.1874443e-07
-4.3195442e-08
6.1179785e-07
3.5541466e-07
4.0336151e-08
2.6594949e-07
5.8994319e-08
5.9559699e-07
4.833032e-08
6.4695207e-07
3.7588263e-08
6.1651949e-07
3.0929028e-08
5.9882012e-07
2.5894083e-08
5.9100356e-07
2.1780022e-08
5.8598807e-07
1.8391993e-08
5.8232772e-07
1.557734e-08
5.7963795e-07
1.3214015e-08
5.7763706e-07
1.1206081e-08
5.7612832e-07
9.4782477e-09
5.749791e-07
7.9713748e-09
5.7409703e-07
6.6385601e-09
5.7341715e-07
5.4421787e-09
5.728933e-07
4.3516153e-09
5.7249248e-07
3.3414842e-09
5.7219103e-07
2.3902297e-09
5.7197217e-07
1.4790086e-09
5.7182427e-07
5.9076938e-10
5.7173978e-07
-2.905383e-10
5.7171455e-07
-1.1806808e-09
5.7174739e-07
-2.0958434e-09
5.7184008e-07
-3.0533582e-09
5.7199742e-07
-4.0725104e-09
5.7222773e-07
-5.1754843e-09
5.7254361e-07
-6.3885152e-09
5.7296312e-07
-7.7433236e-09
5.7351169e-07
-9.2789133e-09
5.7422485e-07
-1.1043879e-08
5.7515245e-07
-1.3099438e-08
5.7636497e-07
-1.5522855e-08
5.7796275e-07
-1.8411526e-08
5.800935e-07
-2.1889622e-08
5.8297382e-07
-2.6112924e-08
5.8689674e-07
-3.1490981e-08
5.9272237e-07
-3.9657283e-08
6.0490167e-07
-4.9174873e-08
6.2826202e-07
-3.8579804e-08
6.0120279e-07
3.1683486e-07
3.2862826e-08
2.3308666e-07
5.5250313e-08
5.732095e-07
4.9232571e-08
6.5296981e-07
3.9061775e-08
6.2669028e-07
3.2430864e-08
6.0545103e-07
2.7518907e-08
5.9591551e-07
2.3438773e-08
5.9006821e-07
2.0002888e-08
5.857636e-07
1.7094701e-08
5.8254614e-07
1.4611992e-08
5.8011977e-07
1.2470974e-08
5.7826934e-07
1.0604399e-08
5.7684567e-07
8.9580289e-09
5.757434e-07
7.4876725e-09
5.748875e-07
6.1570031e-09
5.7422397e-07
4.9357974e-09
5.7371369e-07
3.7984934e-09
5.7332834e-07
2.7230134e-09
5.7304765e-07
1.6897884e-09
5.7285749e-07
6.8092623e-10
5.7274865e-07
-3.2051999e-10
5.7271599e-07
-1.3312263e-09
5.727581e-07
-2.3682637e-09
5.7287711e-07
-3.4497818e-09
5.7307893e-07
-4.5957498e-09
5.733737e-07
-5.8288042e-09
5.7377666e-07
-7.1752456e-09
5.7430956e-07
-8.66624e-09
5.7500269e-07
-1.0339268e-08
5.7589788e-07
-1.2239902e-08
5.7705308e-07
-1.4424194e-08
5.7854926e-07
-1.6961568e-08
5.8050013e-07
-1.9936865e-08
5.8306879e-07
-2.3450857e-08
5.8648781e-07
-2.7644965e-08
5.9109085e-07
-3.3037673e-08
5.9811507e-07
-4.1013974e-08
6.1287797e-07
-4.769065e-08
6.349387e-07
-3.3377547e-08
5.8688968e-07
2.8345731e-07
2.6189145e-08
2.0689751e-07
5.0133075e-08
5.4926557e-07
4.8493997e-08
6.5460889e-07
3.9491408e-08
6.3569287e-07
3.3077738e-08
6.118647e-07
2.8412251e-08
6.00581e-07
2.4493052e-08
5.9398741e-07
2.111828e-08
5.8913837e-07
1.8207056e-08
5.8545736e-07
1.5680154e-08
5.8264667e-07
1.346844e-08
5.8048105e-07
1.1514737e-08
5.7879937e-07
9.7715316e-09
5.7748661e-07
8.1990372e-09
5.7646e-07
6.7637251e-09
5.7565928e-07
5.4370532e-09
5.7504036e-07
4.1943779e-09
5.7457101e-07
3.0140305e-09
5.7422799e-07
1.8765197e-09
5.73995e-07
7.6382831e-10
5.7386134e-07
-3.4122321e-10
5.7382105e-07
-1.4555723e-09
5.7387245e-07
-2.5965077e-09
5.7401805e-07
-3.7822716e-09
5.742647e-07
-5.0327029e-09
5.7462413e-07
-6.3699517e-09
5.7511391e-07
-7.819292e-09
5.757589e-07
-9.4100686e-09
5.7659346e-07
-1.1176805e-08
5.7766462e-07
-1.3160472e-08
5.7903675e-07
-1.5410139e-08
5.8079893e-07
-1.7985086e-08
5.8307507e-07
-2.0954766e-08
5.8603847e-07
-2.4394364e-08
5.8992741e-07
-2.8439422e-08
5.9513591e-07
-3.369528e-08
6.0337093e-07
-4.1066549e-08
6.2024924e-07
-4.4800546e-08
6.3867269e-07
-2.8205973e-08
5.7029511e-07
2.5525134e-07
2.0571074e-08
1.8632644e-07
4.4583645e-08
5.25253e-07
4.6643475e-08
6.5254906e-07
3.9153664e-08
6.4318268e-07
3.3084214e-08
6.1793415e-07
2.871794e-08
6.0494727e-07
2.5038382e-08
5.9766697e-07
2.180392e-08
5.9237284e-07
1.8959238e-08
5.8830204e-07
1.6448286e-08
5.8515762e-07
1.4217568e-08
5.8271177e-07
1.2220905e-08
5.8079604e-07
1.0418517e-08
5.79289e-07
8.7760529e-09
5.7810246e-07
7.2637595e-09
5.7717157e-07
5.855674e-09
5.7644844e-07
4.5288823e-09
5.758978e-07
3.2628533e-09
5.7549402e-07
2.0388324e-09
5.7521902e-07
8.3928398e-10
5.7506089e-07
-3.5262813e-10
5.7501296e-07
-1.5535374e-09
5.7507336e-07
-2.7803715e-09
5.7524488e-07
-4.0508538e-09
5.7553518e-07
-5.3840278e-09
5.759573e-07
-6.8008233e-09
5.765307e-07
-8.3246731e-09
5.7728275e-07
-9.9821987e-09
5.7825099e-07
-1.1803977e-08
5.7948639e-07
-1.3825333e-08
5.8105811e-07
-1.6087255e-08
5.8306085e-07
-1.8637589e-08
5.8562541e-07
-2.1529438e-08
5.8893032e-07
-2.4816817e-08
5.9321479e-07
-2.8645968e-08
5.9896506e-07
-3.3664345e-08
6.0838931e-07
-4.0148323e-08
6.2673322e-07
-4.1162623e-08
6.3968699e-07
-2.3418462e-08
5.5255095e-07
2.3183287e-07
1.6015673e-08
1.7031077e-07
3.9144452e-08
5.0212422e-07
4.4119248e-08
6.4757426e-07
3.829027e-08
6.4901166e-07
3.2654429e-08
6.2356999e-07
2.8592036e-08
6.0900967e-07
2.5183941e-08
6.0107506e-07
2.2136183e-08
5.9542059e-07
1.9404874e-08
5.9103335e-07
1.6953956e-08
5.8760854e-07
1.4744456e-08
5.8492127e-07
1.2740777e-08
5.8279972e-07
1.091101e-08
5.8111876e-07
9.2266371e-09
5.7978683e-07
7.6621869e-09
5.7873602e-07
6.1948154e-09
5.7791581e-07
4.8038794e-09
5.7728874e-07
3.4705089e-09
5.7682739e-07
2.1771865e-09
5.7651235e-07
9.073381e-10
5.7633073e-07
-3.55063e-10
5.7627536e-07
-1.6258836e-09
5.7634418e-07
-2.9212223e-09
5.7654022e-07
-4.2577997e-09
5.7687176e-07
-5.6533585e-09
5.7735286e-07
-7.1270775e-09
5.7800442e-07
-8.6999992e-09
5.7885567e-07
-1.0395468e-08
5.7994646e-07
-1.2239587e-08
5.8133051e-07
-1.4261637e-08
5.8308015e-07
-1.6494439e-08
5.8529365e-07
-1.8974743e-08
5.8810571e-07
-2.1740684e-08
5.9169626e-07
-2.4832737e-08
5.9630684e-07
-2.8419825e-08
6.0255214e-07
-3.3129238e-08
6.1309872e-07
-3.8554223e-08
6.321582e-07
-3.7219379e-08
6.3835215e-07
-1.9184422e-08
5.3451599e-07
2.1264845e-07
1.2423982e-08
1.5788678e-07
3.4114597e-08
4.8043361e-07
4.1250531e-08
6.4043833e-07
3.7079387e-08
6.531828e-07
3.1942521e-08
6.2870685e-07
2.8169267e-08
6.1278292e-07
2.5033367e-08
6.0421096e-07
2.2192323e-08
5.9826164e-07
1.9601067e-08
5.9362461e-07
1.7239018e-08
5.8997059e-07
1.5079544e-08
5.8708074e-07
1.3096334e-08
5.8478293e-07
1.1264753e-08
5.8295034e-07
9.5619502e-09
5.8148964e-07
7.9668098e-09
5.8033116e-07
6.4598232e-09
5.794228e-07
5.0229085e-09
5.7872565e-07
3.6391839e-09
5.7821112e-07
2.2927112e-09
5.7785882e-07
9.6822601e-10
5.7765522e-07
-3.4913973e-10
5.7759272e-07
-1.6741364e-09
5.7766917e-07
-3.0216829e-09
5.7788777e-07
-4.4071472e-09
5.7825722e-07
-5.8466248e-09
5.7879234e-07
-7.3572128e-09
5.7951501e-07
-8.9572688e-09
5.8045573e-07
-1.0666643e-08
5.8165583e-07
-1.2506889e-08
5.8317076e-07
-1.4501422e-08
5.8507469e-07
-1.6675554e-08
5.8746778e-07
-1.9056171e-08
5.9048633e-07
-2.1668762e-08
5.9430886e-07
-2.4547526e-08
5.991856e-07
-2.7887063e-08
6.0589168e-07
-3.2232654e-08
6.1744431e-07
-3.6526387e-08
6.3645194e-07
-3.3272094e-08
6.3509786e-07
-1.5565539e-08
5.1680943e-07
1.9708291e-07
9.657383e-09
1.482294e-07
2.9646393e-08
4.604446e-07
3.8283979e-08
6.3180074e-07
3.5659188e-08
6.558076e-07
3.1059675e-08
6.3330637e-07
2.7554007e-08
6.1628859e-07
2.4673232e-08
6.0709174e-07
2.2041116e-08
6.0089375e-07
1.9601691e-08
5.9606403e-07
1.7344989e-08
5.9222729e-07
1.5254398e-08
5.8917133e-07
1.3311339e-08
5.8672599e-07
1.1497479e-08
5.847642e-07
9.7950932e-09
5.8319202e-07
8.1871807e-09
5.8193908e-07
6.6575221e-09
5.8095246e-07
5.1906741e-09
5.801925e-07
3.7718946e-09
5.796299e-07
2.3870214e-09
5.7924369e-07
1.0223213e-09
5.7901992e-07
-3.3568079e-10
5.7895073e-07
-1.7003805e-09
5.7903387e-07
-3.0852823e-09
5.7927267e-07
-4.5041793e-09
5.7967612e-07
-5.9713234e-09
5.8025948e-07
-7.5015777e-09
5.8104526e-07
-9.1105395e-09
5.8206469e-07
-1.0814616e-08
5.8335991e-07
-1.2631054e-08
5.849872e-07
-1.4577933e-08
5.8702157e-07
-1.6673988e-08
5.8956384e-07
-1.8937696e-08
5.9275004e-07
-2.138456e-08
5.9675572e-07
-2.4048719e-08
6.0184976e-07
-2.7146557e-08
6.0898952e-07
-3.1092759e-08
6.2139051e-07
-3.4268955e-08
6.3962813e-07
-2.9525921e-08
6.3035482e-07
-1.2557179e-08
4.9984069e-07
1.8452573e-07
7.5670532e-09
1.4066235e-07
2.5787504e-08
4.4222415e-07
3.5390456e-08
6.2219779e-07
3.4139532e-08
6.5705852e-07
3.0088886e-08
6.3735701e-07
2.6826249e-08
6.1955123e-07
2.4173224e-08
6.0974476e-07
2.1740343e-08
6.0332663e-07
1.9454028e-08
5.9835035e-07
1.7309927e-08
5.9437139e-07
1.5299163e-08
5.911821e-07
1.3409356e-08
5.8861579e-07
1.162739e-08
5.8654617e-07
9.9399543e-09
5.8487946e-07
8.3337327e-09
5.835453e-07
6.7955729e-09
5.8249062e-07
5.3125868e-09
5.8167549e-07
3.8721829e-09
5.810703e-07
2.4620472e-09
5.8065383e-07
1.0700871e-09
5.8041188e-07
-3.1564939e-10
5.8033646e-07
-1.7070673e-09
5.8042529e-07
-3.1161275e-09
5.8068173e-07
-4.5549395e-09
5.8111493e-07
-6.0358417e-09
5.8174039e-07
-7.5714554e-09
5.8258088e-07
-9.1747039e-09
5.8366794e-07
-1.0858778e-08
5.8504398e-07
-1.2637046e-08
5.8676546e-07
-1.4522933e-08
5.8890745e-07
-1.6529624e-08
5.9157053e-07
-1.8668709e-08
5.9488912e-07
-2.0948693e-08
5.990357e-07
-2.3408768e-08
6.0430984e-07
-2.6278681e-08
6.1185943e-07
-2.9810624e-08
6.2492246e-07
-3.1943582e-08
6.4176109e-07
-2.6103216e-08
6.2451446e-07
-1.0112701e-08
4.8385018e-07
1.7441303e-07
6.0124201e-09
1.3464993e-07
2.2516152e-08
4.2572042e-07
3.2671821e-08
6.1204212e-07
3.2600865e-08
6.5712948e-07
2.909025e-08
6.4086763e-07
2.6046165e-08
6.2259531e-07
2.358868e-08
6.1220225e-07
2.1337587e-08
6.0557773e-07
1.9198274e-08
6.0048966e-07
1.7167278e-08
5.9640238e-07
1.5241224e-08
5.9310815e-07
1.3412484e-08
5.9044453e-07
1.1672073e-08
5.8828658e-07
1.0010319e-08
5.8654121e-07
8.4170787e-09
5.8513854e-07
6.8819381e-09
5.8402576e-07
5.3943742e-09
5.8316305e-07
3.9438537e-09
5.8252082e-07
2.5198853e-09
5.8207779e-07
1.1120345e-09
5.8181973e-07
-2.9008657e-10
5.8173858e-07
-1.6968443e-09
5.8183205e-07
-3.118616e-09
5.821035e-07
-4.5658132e-09
5.8256213e-07
-6.0488897e-09
5.8322346e-07
-7.5783227e-09
5.8411031e-07
-9.1645572e-09
5.8525417e-07
-1.08179e-08
5.8669733e-07
-1.2548362e-08
5.8849592e-07
-1.4365481e-08
5.9072457e-07
-1.6277943e-08
5.9348299e-07
-1.8292042e-08
5.9690322e-07
-2.0412361e-08
6.0115602e-07
-2.2686705e-08
6.0658418e-07
-2.5347037e-08
6.1451976e-07
-2.8466856e-08
6.2804228e-07
-2.9664474e-08
6.4295871e-07
-2.3059253e-08
6.1790923e-07
-8.1636618e-09
4.6895459e-07
1.6624937e-07
4.8707806e-09
1.2977916e-07
1.977379e-08
4.1081742e-07
3.0176352e-08
6.0163956e-07
3.1095538e-08
6.5621029e-07
2.8103268e-08
6.438599e-07
2.5256054e-08
6.2544252e-07
2.2961733e-08
6.1449657e-07
2.0870903e-08
6.0766856e-07
1.8867708e-08
6.0249285e-07
1.6945601e-08
5.9832449e-07
1.5104656e-08
5.949491e-07
1.3340686e-08
5.922085e-07
1.1647816e-08
5.8997945e-07
1.0019257e-08
5.8816977e-07
8.4474907e-09
5.867103e-07
6.9244644e-09
5.8554878e-07
5.4417659e-09
5.8464575e-07
3.990758e-09
5.8397183e-07
2.5626756e-09
5.8350588e-07
1.1486888e-09
5.8323372e-07
-2.600561e-10
5.8314733e-07
-1.6724093e-09
5.832444e-07
-3.0971961e-09
5.8352829e-07
-4.5431874e-09
5.8400812e-07
-6.0190551e-09
5.8469933e-07
-7.5333022e-09
5.8562456e-07
-9.0941591e-09
5.8681503e-07
-1.0709442e-08
5.8831261e-07
-1.2386366e-08
5.9017285e-07
-1.4131361e-08
5.9246957e-07
-1.5949647e-08
5.9530127e-07
-1.7843748e-08
5.9879732e-07
-1.9817136e-08
6.0312941e-07
-2.1927962e-08
6.0869501e-07
-2.4398382e-08
6.1699018e-07
-2.7120218e-08
6.3076411e-07
-2.7503751e-08
6.4334224e-07
-2.0403411e-08
6.1080889e-07
-6.6344142e-09
4.5518559e-07
1.5961495e-07
4.0397755e-09
1.2573939e-07
1.7487941e-08
3.9736926e-07
2.7918015e-08
5.9120949e-07
2.9654188e-08
6.5447412e-07
2.7151152e-08
6.4636293e-07
2.4483114e-08
6.2811056e-07
2.2322534e-08
6.1665715e-07
2.0369371e-08
6.0962172e-07
1.8488908e-08
6.0437332e-07
1.6668532e-08
6.0014487e-07
1.4909993e-08
5.9670764e-07
1.3211438e-08
5.9390706e-07
1.1569217e-08
5.9162167e-07
9.9787252e-09
5.8976026e-07
8.434541e-09
5.8825449e-07
6.9305798e-09
5.8705275e-07
5.4602557e-09
5.8611607e-07
4.0166251e-09
5.8541546e-07
2.5925044e-09
5.8493e-07
1.1805636e-09
5.8464566e-07
-2.2659917e-10
5.8455449e-07
-1.6363935e-09
5.846542e-07
-3.0561775e-09
5.8494807e-07
-4.4931912e-09
5.8544513e-07
-5.9544768e-09
5.8616061e-07
-7.4467774e-09
5.8711686e-07
-8.9764095e-09
5.8834466e-07
-1.054911e-08
5.8988531e-07
-1.2169858e-08
5.917936e-07
-1.3842707e-08
5.9414242e-07
-1.5570341e-08
5.9702891e-07
-1.7352883e-08
6.0057986e-07
-1.9195e-08
6.0497153e-07
-2.1165284e-08
6.1066529e-07
-2.3464724e-08
6.1928962e-07
-2.5810482e-08
6.3310987e-07
-2.550119e-08
6.4303295e-07
-1.811717e-08
6.0342487e-07
-5.4505878e-09
4.4251901e-07
1.5416437e-07
3.4367295e-09
1.2230266e-07
1.5584796e-08
3.852212e-07
2.58902e-08
5.809041e-07
2.8292244e-08
6.5207207e-07
2.6245781e-08
6.4840939e-07
2.3743245e-08
6.306131e-07
2.1691403e-08
6.1870899e-07
1.9854218e-08
6.114589e-07
1.8082298e-08
6.0614524e-07
1.6354983e-08
6.0187218e-07
1.4674218e-08
5.983884e-07
1.30396e-08
5.9554167e-07
1.1448983e-08
5.9321229e-07
9.8993431e-09
5.913099e-07
8.3868766e-09
5.8976695e-07
6.9070911e-09
5.8853253e-07
5.4549373e-09
5.8756823e-07
4.0249429e-09
5.8684545e-07
2.611334e-09
5.8634361e-07
1.2081428e-09
5.8604885e-07
-1.9069914e-10
5.8595333e-07
-1.5912735e-09
5.8605477e-07
-2.9995927e-09
5.8635639e-07
-4.4215095e-09
5.8686705e-07
-5.8626179e-09
5.8760172e-07
-7.328137e-09
5.8858238e-07
-8.8227781e-09
5.898393e-07
-1.0350599e-08
5.9141313e-07
-1.1914858e-08
5.9335786e-07
-1.3517872e-08
5.9574543e-07
-1.5160586e-08
5.9867162e-07
-1.6841886e-08
6.0226116e-07
-1.8569388e-08
6.0669903e-07
-2.0420921e-08
6.1251682e-07
-2.2566576e-08
6.2143528e-07
-2.4562528e-08
6.3510582e-07
-2.3673644e-08
6.4214406e-07
-1.6166561e-08
5.9591779e-07
-4.5437721e-09
4.3089622e-07
1.4962059e-07
2.9970119e-09
1.1930566e-07
1.3995891e-08
3.7422233e-07
2.4075057e-08
5.7082494e-07
2.701487e-08
6.4913226e-07
2.5391557e-08
6.500327e-07
2.3044484e-08
6.3296017e-07
2.108121e-08
6.2067226e-07
1.9340332e-08
6.1319978e-07
1.7663066e-08
6.078225e-07
1.601964e-08
6.0351561e-07
1.4410988e-08
5.9999705e-07
1.2837469e-08
5.9711519e-07
1.1297882e-08
5.9475187e-07
9.7902932e-09
5.9281749e-07
8.3121016e-09
5.9124515e-07
6.8600672e-09
5.8998456e-07
5.4304021e-09
5.8899789e-07
4.0188815e-09
5.8825697e-07
2.6209583e-09
5.8774153e-07
1.2318705e-09
5.8743793e-07
-1.5325603e-10
5.8733846e-07
-1.5393111e-09
5.8744083e-07
-2.931104e-09
5.8774818e-07
-4.3332628e-09
5.8826921e-07
-5.750127e-09
5.8901859e-07
-7.1856304e-09
5.9001788e-07
-8.643175e-09
5.9129685e-07
-1.0125507e-08
5.9289546e-07
-1.163461e-08
5.9486696e-07
-1.3171604e-08
5.9728242e-07
-1.4736345e-08
6.0023636e-07
-1.6327457e-08
6.0385227e-07
-1.7956691e-08
6.0832826e-07
-1.9708995e-08
6.1426913e-07
-2.1715828e-08
6.2344211e-07
-2.3389861e-08
6.3677986e-07
-2.20223e-08
6.407765e-07
-1.4510552e-08
5.8840604e-07
-3.8540691e-09
4.2023973e-07
1.4576653e-07
2.6717846e-09
1.1663388e-07
1.2661486e-08
3.6423265e-07
2.2449846e-08
5.6103659e-07
2.5820718e-08
6.457614e-07
2.45881e-08
6.5126532e-07
2.238956e-08
6.3515871e-07
2.0499381e-08
6.2256244e-07
1.8837703e-08
6.1486146e-07
1.7242169e-08
6.0941804e-07
1.5673615e-08
6.0508416e-07
1.4131023e-08
6.0153965e-07
1.2614987e-08
5.9863123e-07
1.1124833e-08
5.9624203e-07
9.6593338e-09
5.9428299e-07
8.2167472e-09
5.9268773e-07
6.7947917e-09
5.9140652e-07
5.3906901e-09
5.9040199e-07
4.0012533e-09
5.8964641e-07
2.6229778e-09
5.891198e-07
1.2521465e-09
5.8880877e-07
-1.1507014e-10
5.8870567e-07
-1.482516e-09
5.8880827e-07
-2.85395e-09
5.8911962e-07
-4.2329436e-09
5.896482e-07
-5.6227753e-09
5.9040842e-07
-7.0263205e-09
5.9142142e-07
-8.4459428e-09
5.9271647e-07
-9.8833981e-09
5.9433292e-07
-1.1339773e-08
5.9632333e-07
-1.281542e-08
5.9875807e-07
-1.4309627e-08
6.0173057e-07
-1.5821535e-08
6.0536418e-07
-1.73677e-08
6.0987443e-07
-1.9037468e-08
6.159389e-07
-2.0917995e-08
6.2532264e-07
-2.2297638e-08
6.381595e-07
-2.0538474e-08
6.3901734e-07
-1.3106642e-08
5.8097421e-07
-3.3310728e-09
4.1046416e-07
1.4243545e-07
2.4253075e-09
1.1420859e-07
1.153167e-08
3.5512631e-07
2.0991023e-08
5.5157726e-07
2.4704818e-08
6.4204761e-07
2.3832255e-08
6.5213788e-07
2.1777783e-08
6.3721318e-07
1.9949467e-08
6.2439076e-07
1.8352626e-08
6.164583e-07
1.6827232e-08
6.1094343e-07
1.5325097e-08
6.065863e-07
1.3842549e-08
6.0302219e-07
1.238002e-08
6.0009376e-07
1.0937071e-08
5.9768498e-07
9.5128853e-09
5.9570717e-07
8.1063076e-09
5.9409431e-07
6.7157681e-09
5.9279706e-07
5.3392816e-09
5.9177848e-07
3.9745006e-09
5.9101119e-07
2.6187921e-09
5.9047551e-07
1.2693259e-09
5.9015823e-07
-7.6832988e-11
5.9005183e-07
-1.4226294e-09
5.9015407e-07
-2.7709251e-09
5.9046791e-07
-4.1243995e-09
5.9100167e-07
-5.485453e-09
5.9176947e-07
-6.8561111e-09
5.9279208e-07
-8.2379368e-09
5.9409829e-07
-9.6319677e-09
5.9572695e-07
-1.1038697e-08
5.9773006e-07
-1.2458045e-08
6.0017742e-07
-1.3889133e-08
6.0316166e-07
-1.5332213e-08
6.0680726e-07
-1.6808855e-08
6.1135107e-07
-1.840978e-08
6.1753982e-07
-2.0174103e-08
6.2708696e-07
-2.1285337e-08
6.3927073e-07
-1.9208141e-08
6.3694014e-07
-1.1914682e-08
5.7368075e-07
-2.9337783e-09
4.0148326e-07
1.3950167e-07
2.2322007e-09
1.119764e-07
1.056599e-08
3.4679254e-07
1.9676529e-08
5.4246674e-07
2.3660622e-08
6.3806352e-07
2.3119562e-08
6.5267894e-07
2.1206472e-08
6.3912627e-07
1.9432384e-08
6.2616484e-07
1.7888692e-08
6.1800199e-07
1.6423323e-08
6.124088e-07
1.4979938e-08
6.0802968e-07
1.3551727e-08
6.044504e-07
1.2138668e-08
6.0150682e-07
1.074035e-08
5.9908329e-07
9.3561601e-09
5.9709136e-07
7.9853172e-09
5.9546515e-07
6.6267629e-09
5.9415561e-07
5.279118e-09
5.9312612e-07
3.9407051e-09
5.923496e-07
2.6096037e-09
5.9180661e-07
1.2837217e-09
5.9148411e-07
-3.9124942e-11
5.9137468e-07
-1.3611229e-09
5.9147606e-07
-2.6843842e-09
5.9179117e-07
-4.0108498e-09
5.9232814e-07
-5.3422095e-09
5.9310083e-07
-6.679823e-09
5.941297e-07
-8.0246553e-09
5.9544313e-07
-9.3772478e-09
5.9707954e-07
-1.0737738e-08
5.9909055e-07
-1.2105861e-08
6.0154554e-07
-1.3480871e-08
6.0453667e-07
-1.4864559e-08
6.0819095e-07
-1.6283346e-08
6.1276986e-07
-1.7826234e-08
6.1908271e-07
-1.9482272e-08
6.28743e-07
-2.034895e-08
6.4013741e-07
-1.801507e-08
6.3460626e-07
-1.0898801e-08
5.6656448e-07
-2.6297311e-09
3.9321419e-07
1.3687194e-07
2.0749795e-09
1.0990144e-07
9.7323394e-09
3.3913522e-07
1.8486836e-08
5.3371227e-07
2.2681288e-08
6.3386908e-07
2.2445231e-08
6.52915e-07
2.0671978e-08
6.4089952e-07
1.8947388e-08
6.2788943e-07
1.7447587e-08
6.1950179e-07
1.6033599e-08
6.1382279e-07
1.4642169e-08
6.0942111e-07
1.3263051e-08
6.0582952e-07
1.1895553e-08
6.0287431e-07
1.0539158e-08
6.0043969e-07
9.1933115e-09
5.9843721e-07
7.8574513e-09
5.9680101e-07
6.5308706e-09
5.9548219e-07
5.2126423e-09
5.9444435e-07
3.901612e-09
5.9366063e-07
2.5964308e-09
5.9311179e-07
1.2956098e-09
5.9278493e-07
-2.4137107e-12
5.926727e-07
-1.2992096e-09
5.9277286e-07
-2.5962654e-09
5.9308823e-07
-3.8949262e-09
5.936268e-07
-5.1963203e-09
5.9440223e-07
-6.5012987e-09
5.9543467e-07
-7.8103965e-09
5.9675222e-07
-9.1238347e-09
5.9839298e-07
-1.0441572e-08
6.0040829e-07
-1.1763335e-08
6.028673e-07
-1.3088727e-08
6.0586206e-07
-1.4421359e-08
6.0952358e-07
-1.5792058e-08
6.1414055e-07
-1.7285113e-08
6.2057576e-07
-1.8838928e-08
6.3029681e-07
-1.9482594e-08
6.4078108e-07
-1.6942764e-08
6.3206643e-07
-1.0027943e-08
5.5964966e-07
-2.3938178e-09
3.8558007e-07
1.3447812e-07
1.9419735e-09
1.0795949e-07
9.0056002e-09
3.3207163e-07
1.7405237e-08
5.2531267e-07
2.1760386e-08
6.2951395e-07
2.1804712e-08
6.5287068e-07
2.0170355e-08
6.4253388e-07
1.8492768e-08
6.2956702e-07
1.7029722e-08
6.2096484e-07
1.565984e-08
6.1519267e-07
1.4314439e-08
6.1076651e-07
1.29797e-08
6.0716426e-07
1.1654095e-08
6.0419992e-07
1.0336921e-08
6.0175686e-07
9.0275874e-09
5.9974654e-07
7.7256359e-09
5.9810296e-07
6.4305903e-09
5.9677724e-07
5.1418507e-09
5.9573309e-07
3.8586618e-09
5.9494382e-07
2.5801243e-09
5.9439033e-07
1.3052316e-09
5.9405983e-07
3.2921139e-11
5.9394501e-07
-1.2378654e-09
5.9404365e-07
-2.5081252e-09
5.9435849e-07
-3.7787289e-09
5.948974e-07
-5.0503699e-09
5.9567387e-07
-6.3235225e-09
5.9670783e-07
-7.598427e-09
5.9802713e-07
-8.8751177e-09
5.9966967e-07
-1.0153503e-08
6.0168667e-07
-1.1433419e-08
6.0414722e-07
-1.271497e-08
6.0714361e-07
-1.4003747e-08
6.1081236e-07
-1.533432e-08
6.1547113e-07
-1.6783512e-08
6.2202495e-07
-1.8239669e-08
6.3175297e-07
-1.8679622e-08
6.4122103e-07
-1.5975649e-08
6.2936246e-07
-9.2759858e-09
5.5295e-07
-2.2070661e-09
3.7851115e-07
1.3227106e-07
1.8256422e-09
1.0613387e-07
8.3662884e-09
3.2553104e-07
1.6417728e-08
5.1726128e-07
2.0892221e-08
6.2503948e-07
2.1193983e-08
6.5256892e-07
1.9697759e-08
6.440301e-07
1.8066334e-08
6.3119844e-07
1.663469e-08
6.2239648e-07
1.5302865e-08
6.1652449e-07
1.3998378e-08
6.12071e-07
1.270384e-08
6.084588e-07
1.1416761e-08
6.05487e-07
1.0136202e-08
6.0303742e-07
8.8614787e-09
6.0102127e-07
7.5921597e-09
5.9937228e-07
6.3279067e-09
5.9804149e-07
5.0683485e-09
5.9699265e-07
3.8130267e-09
5.9619914e-07
2.5613882e-09
5.9564197e-07
1.3128056e-09
5.9530841e-07
6.6613975e-11
5.9519121e-07
-1.1778465e-09
5.9528811e-07
-2.4211792e-09
5.9560182e-07
-3.663889e-09
5.9614011e-07
-4.9063424e-09
5.9691632e-07
-6.1487449e-09
5.9795023e-07
-7.3911473e-09
5.9926953e-07
-8.6334971e-09
6.0091202e-07
-9.8757382e-09
6.0292891e-07
-1.1117895e-08
6.0538937e-07
-1.2360673e-08
6.0838639e-07
-1.36117e-08
6.1206338e-07
-1.490849e-08
6.1676792e-07
-1.6317936e-08
6.234344e-07
-1.7679858e-08
6.3311489e-07
-1.7933356e-08
6.4147453e-07
-1.50997e-08
6.265288e-07
-8.6214175e-09
5.4647171e-07
-2.0554778e-09
3.7194521e-07
1.3021558e-07
1.721266e-09
1.0441263e-07
7.7993319e-09
3.1945303e-07
1.5512696e-08
5.0954797e-07
2.007193e-08
6.2048027e-07
2.060965e-08
6.520312e-07
1.9250668e-08
6.4538908e-07
1.766572e-08
6.3278339e-07
1.6261597e-08
6.238006e-07
1.4962838e-08
6.1782325e-07
1.3694878e-08
6.1333896e-07
1.243687e-08
6.0971681e-07
1.118527e-08
6.067386e-07
9.9388665e-09
6.0428382e-07
8.6968555e-09
6.0226328e-07
7.4587789e-09
6.0061036e-07
6.2243693e-09
5.992759e-07
4.9934071e-09
5.9822361e-07
3.7656482e-09
5.974269e-07
2.5407998e-09
5.9686682e-07
1.3185253e-09
5.9653068e-07
9.8467489e-11
5.9641126e-07
-1.1197225e-09
5.965063e-07
-2.3363471e-09
5.9681844e-07
-3.5516341e-09
5.973554e-07
-4.7657118e-09
5.981304e-07
-5.978603e-09
5.9916312e-07
-7.1902494e-09
6.0048118e-07
-8.4005822e-09
6.0212235e-07
-9.6096374e-09
6.0413797e-07
-1.0817672e-08
6.0659741e-07
-1.2026057e-08
6.0959477e-07
-1.3244434e-08
6.1328176e-07
-1.451237e-08
6.1803585e-07
-1.5884714e-08
6.2480674e-07
-1.7155002e-08
6.3438518e-07
-1.7237534e-08
6.4155706e-07
-1.4302683e-08
6.2359395e-07
-8.0467999e-09
5.4021583e-07
-1.9289533e-09
3.6582736e-07
1.2828663e-07
1.6259756e-09
1.0278669e-07
7.2930353e-09
3.1378605e-07
1.468053e-08
5.0216054e-07
1.9295437e-08
6.158654e-07
2.0048949e-08
6.512777e-07
1.8825981e-08
6.4661205e-07
1.7288581e-08
6.3432079e-07
1.5909275e-08
6.2517991e-07
1.4639494e-08
6.1909303e-07
1.3404307e-08
6.1457414e-07
1.2179622e-08
6.1094149e-07
1.0960763e-08
6.0795746e-07
9.7462318e-09
6.0549836e-07
8.535087e-09
6.0347442e-07
7.3268133e-09
6.0181863e-07
6.1211657e-09
6.0048155e-07
4.9180175e-09
5.9942676e-07
3.717273e-09
5.9862765e-07
2.5188292e-09
5.9806526e-07
1.3225668e-09
5.9772695e-07
1.2836121e-10
5.9760547e-07
-1.0639011e-09
5.9769856e-07
-2.2542972e-09
5.9800884e-07
-3.4428525e-09
5.9854396e-07
-4.6295284e-09
5.9931707e-07
-5.8142323e-09
6.0034782e-07
-6.9968561e-09
6.016638e-07
-8.177363e-09
6.0330286e-07
-9.3559132e-09
6.0531652e-07
-1.053302e-08
6.0777452e-07
-1.1710759e-08
6.1077251e-07
-1.2900692e-08
6.1447169e-07
-1.414351e-08
6.1927867e-07
-1.548026e-08
6.2614349e-07
-1.6660979e-08
6.355659e-07
-1.6586527e-08
6.414826e-07
-1.357415e-08
6.2058157e-07
-7.5381549e-09
5.3417984e-07
-1.8203609e-09
3.6010956e-07
1.2646627e-07
1.5380626e-09
1.0124867e-07
6.8382478e-09
3.0848595e-07
1.391324e-08
4.9508563e-07
1.8559339e-08
6.1121935e-07
1.9509677e-08
6.5032737e-07
1.8421037e-08
6.4770068e-07
1.6932701e-08
6.3580912e-07
1.5576438e-08
6.2653617e-07
1.4332301e-08
6.2033717e-07
1.3126675e-08
6.1577977e-07
1.1932511e-08
6.1213566e-07
1.074395e-08