/*--------------------------------*- C++ -*----------------------------------*\
  =========                 |
  \\      /  F ield         | OpenFOAM: The Open Source CFD Toolbox
   \\    /   O peration     | Website:  https://openfoam.org
    \\  /    A nd           | Version:  10
     \\/     M anipulation  |
\*---------------------------------------------------------------------------*/
FoamFile
{
    format      ascii;
    class       surfaceScalarField;
    location    "0.29";
    object      phi_0;
}
// * * * * * * * * * * * * * * * * * * * * * * * * * * * * * * * * * * * * * //

dimensions      [1 0 -1 0 0 0 0];

internalField   nonuniform List<scalar> 
7860
(
3.9896008e-08
5.2881203e-07
1.2192741e-08
5.9641108e-07
7.4279194e-09
5.7347257e-07
5.4994387e-09
5.7063619e-07
4.1150121e-09
5.7009211e-07
3.2011521e-09
5.6962152e-07
2.5591491e-09
5.6934964e-07
2.07931e-09
5.6918747e-07
1.7093063e-09
5.6907762e-07
1.4166148e-09
5.690003e-07
1.1794402e-09
5.6894477e-07
9.8301967e-10
5.6890401e-07
8.1700988e-10
5.688736e-07
6.739208e-10
5.6885067e-07
5.4817943e-10
5.6883332e-07
4.355254e-10
5.6882023e-07
3.326053e-10
5.6881049e-07
2.366921e-10
5.6880348e-07
1.4548308e-10
5.6879878e-07
5.6947542e-11
5.687961e-07
-3.0797002e-11
5.6879531e-07
-1.1959255e-10
5.6879636e-07
-2.1134509e-10
5.6879932e-07
-3.0813174e-10
5.6880436e-07
-4.1233292e-10
5.6881177e-07
-5.2679519e-10
5.6882204e-07
-6.5505222e-10
5.6883583e-07
-8.0163744e-10
5.6885417e-07
-9.7254478e-10
5.6887849e-07
-1.1759352e-09
5.6891098e-07
-1.4233097e-09
5.6895497e-07
-1.7314795e-09
5.6901577e-07
-2.1254223e-09
5.6910156e-07
-2.6450192e-09
5.6922722e-07
-3.3726837e-09
5.6943531e-07
-4.4639644e-09
5.6979894e-07
-6.0092584e-09
5.7025298e-07
-9.508234e-09
5.7220669e-07
-2.9576107e-08
5.8877564e-07
5.3913183e-07
5.9672554e-08
4.6913948e-07
3.6666018e-08
6.1941761e-07
2.2628189e-08
5.875104e-07
1.6253594e-08
5.7701079e-07
1.2290521e-08
5.7405518e-07
9.6062548e-09
5.7230579e-07
7.6774528e-09
5.7127845e-07
6.2360799e-09
5.7062884e-07
5.1265401e-09
5.7018716e-07
4.2487611e-09
5.6987808e-07
3.5374086e-09
5.6965613e-07
2.9483142e-09
5.6949311e-07
2.4504329e-09
5.6937148e-07
2.0212899e-09
5.6927981e-07
1.6441711e-09
5.6921044e-07
1.3062996e-09
5.691581e-07
9.9761855e-10
5.6911917e-07
7.0995019e-10
5.6909115e-07
4.3638926e-10
5.6907234e-07
1.7084472e-10
5.6906165e-07
-9.232916e-11
5.6905849e-07
-3.5865507e-10
5.6906269e-07
-6.3384443e-10
5.6907451e-07
-9.2412901e-10
5.6909464e-07
-1.2366473e-09
5.6912429e-07
-1.5799357e-09
5.6916532e-07
-1.9645907e-09
5.6922049e-07
-2.4042079e-09
5.6929378e-07
-2.9167696e-09
5.6939105e-07
-3.5267674e-09
5.6952098e-07
-4.2686195e-09
5.6969682e-07
-5.1926903e-09
5.6993985e-07
-6.3756032e-09
5.7028447e-07
-7.9360739e-09
5.7078769e-07
-1.0077323e-08
5.7157656e-07
-1.3205473e-08
5.7292709e-07
-1.8135285e-08
5.7518279e-07
-2.8177495e-08
5.822489e-07
-4.5803347e-08
6.0640149e-07
4.9332848e-07
6.0008882e-08
4.0913059e-07
5.0487336e-08
6.2893916e-07
3.3370721e-08
6.0462702e-07
2.481772e-08
5.8556379e-07
1.9323284e-08
5.7954962e-07
1.5331523e-08
5.7629755e-07
1.2360725e-08
5.7424924e-07
1.0101534e-08
5.7288803e-07
8.3405763e-09
5.7194812e-07
6.9347305e-09
5.7128392e-07
5.7879184e-09
5.7080294e-07
4.8333756e-09
5.7044765e-07
4.0233382e-09
5.7018151e-07
3.3228214e-09
5.6998033e-07
2.7055621e-09
5.698277e-07
2.151329e-09
5.6971233e-07
1.6440973e-09
5.696264e-07
1.1707686e-09
5.6956448e-07
7.2023641e-10
5.6952287e-07
2.8267353e-10
5.6949921e-07
-1.5104571e-10
5.694922e-07
-5.8985125e-10
5.6950149e-07
-1.0429707e-09
5.6952763e-07
-1.5204494e-09
5.6957212e-07
-2.0337533e-09
5.6963759e-07
-2.5965283e-09
5.697281e-07
-3.2256119e-09
5.6984957e-07
-3.9424445e-09
5.7001062e-07
-4.7751191e-09
5.7022373e-07
-5.7614449e-09
5.705073e-07
-6.9536058e-09
5.7088898e-07
-8.4257985e-09
5.7141204e-07
-1.028742e-08
5.7214609e-07
-1.2700339e-08
5.7320061e-07
-1.5897711e-08
5.7477393e-07
-2.0241419e-08
5.772708e-07
-2.6709618e-08
5.8165099e-07
-3.8949078e-08
5.9448836e-07
-4.8168004e-08
6.1562041e-07
4.4516048e-07
5.4879117e-08
3.5425148e-07
5.7452283e-08
6.2636599e-07
4.046763e-08
6.2161167e-07
3.0778821e-08
5.952526e-07
2.4643094e-08
5.8568534e-07
1.9952313e-08
5.8098833e-07
1.6312925e-08
5.7788863e-07
1.3466475e-08
5.7573448e-07
1.1200847e-08
5.7421374e-07
9.3643383e-09
5.7312043e-07
7.8490648e-09
5.7231821e-07
6.5765393e-09
5.7172017e-07
5.4889166e-09
5.7126914e-07
4.5428854e-09
5.7092636e-07
3.7053523e-09
5.7066523e-07
2.9504615e-09
5.7046722e-07
2.2574968e-09
5.7031937e-07
1.6093644e-09
5.7021261e-07
9.9146061e-10
5.7014077e-07
3.9079228e-10
5.7009988e-07
-2.0474639e-10
5.7008774e-07
-8.070141e-10
5.7010376e-07
-1.4282436e-09
5.7014886e-07
-2.0816958e-09
5.7022557e-07
-2.782411e-09
5.7033831e-07
-3.5481361e-09
5.7049382e-07
-4.4005322e-09
5.7070197e-07
-5.3668076e-09
5.7097689e-07
-6.481998e-09
5.7133892e-07
-7.7922269e-09
5.7181753e-07
-9.359273e-09
5.7245603e-07
-1.1266955e-08
5.7331972e-07
-1.3631535e-08
5.7451067e-07
-1.6614355e-08
5.7618343e-07
-2.0413183e-08
5.7857275e-07
-2.5294693e-08
5.8215231e-07
-3.2518869e-08
5.8887517e-07
-4.5102436e-08
6.0707193e-07
-4.6550337e-08
6.1706831e-07
3.9861014e-07
4.7965843e-08
3.0628563e-07
6.007668e-08
6.1425515e-07
4.5400282e-08
6.3628807e-07
3.4875454e-08
6.0577743e-07
2.8399919e-08
5.9216088e-07
2.3419635e-08
5.8596861e-07
1.9434259e-08
5.8187401e-07
1.6229054e-08
5.7893968e-07
1.3619506e-08
5.7682329e-07
1.1466208e-08
5.7527373e-07
9.6640358e-09
5.7412038e-07
8.1329507e-09
5.7325126e-07
6.811931e-09
5.7259016e-07
5.653966e-09
5.7208433e-07
4.6222821e-09
5.7169691e-07
3.6875946e-09
5.7140191e-07
2.8260666e-09
5.711809e-07
2.0177706e-09
5.7102091e-07
1.2455035e-09
5.7091304e-07
4.938419e-10
5.7085154e-07
-2.5165103e-10
5.7083324e-07
-1.0051357e-09
5.7085725e-07
-1.7811863e-09
5.7092491e-07
-2.5955134e-09
5.710399e-07
-3.46578e-09
5.7120858e-07
-4.4125852e-09
5.7144063e-07
-5.4607044e-09
5.7175009e-07
-6.6406986e-09
5.7215688e-07
-7.9910413e-09
5.7268926e-07
-9.5609922e-09
5.7338748e-07
-1.1414373e-08
5.7430941e-07
-1.3633992e-08
5.7553934e-07
-1.6328149e-08
5.7720483e-07
-1.9640443e-08
5.7949573e-07
-2.3741132e-08
5.8267344e-07
-2.8933142e-08
5.8734432e-07
-3.6793353e-08
5.9673538e-07
-4.8465856e-08
6.1874443e-07
-4.3195424e-08
6.1179788e-07
3.5541471e-07
4.0336152e-08
2.6594948e-07
5.8994321e-08
5.9559699e-07
4.8330324e-08
6.4695206e-07
3.7588267e-08
6.1651948e-07
3.0929033e-08
5.9882011e-07
2.589409e-08
5.9100355e-07
2.1780031e-08
5.8598807e-07
1.8392003e-08
5.8232771e-07
1.5577352e-08
5.7963794e-07
1.3214029e-08
5.7763705e-07
1.1206098e-08
5.7612831e-07
9.478267e-09
5.7497909e-07
7.9713966e-09
5.7409703e-07
6.6385844e-09
5.7341714e-07
5.4422057e-09
5.7289329e-07
4.3516449e-09
5.7249247e-07
3.3415164e-09
5.7219102e-07
2.3902645e-09
5.7197216e-07
1.4790459e-09
5.7182426e-07
5.9080911e-10
5.7173978e-07
-2.9049626e-10
5.7171454e-07
-1.1806366e-09
5.7174739e-07
-2.0957971e-09
5.7184007e-07
-3.0533101e-09
5.7199741e-07
-4.0724608e-09
5.7222773e-07
-5.1754334e-09
5.725436e-07
-6.3884633e-09
5.7296312e-07
-7.7432709e-09
5.7351169e-07
-9.2788603e-09
5.7422485e-07
-1.1043826e-08
5.7515245e-07
-1.3099386e-08
5.7636497e-07
-1.5522803e-08
5.7796276e-07
-1.8411475e-08
5.800935e-07
-2.1889573e-08
5.8297382e-07
-2.6112877e-08
5.8689675e-07
-3.1490937e-08
5.9272238e-07
-3.9657239e-08
6.0490168e-07
-4.9174834e-08
6.2826203e-07
-3.8579783e-08
6.0120283e-07
3.1683493e-07
3.2862826e-08
2.3308665e-07
5.5250314e-08
5.732095e-07
4.9232574e-08
6.529698e-07
3.9061779e-08
6.2669028e-07
3.243087e-08
6.0545102e-07
2.7518915e-08
5.9591551e-07
2.3438782e-08
5.900682e-07
2.00029e-08
5.8576359e-07
1.7094716e-08
5.8254613e-07
1.4612009e-08
5.8011976e-07
1.2470994e-08
5.7826933e-07
1.0604422e-08
5.7684566e-07
8.9580548e-09
5.7574339e-07
7.4877015e-09
5.7488749e-07
6.1570353e-09
5.7422396e-07
4.9358328e-09
5.7371367e-07
3.798532e-09
5.7332833e-07
2.7230553e-09
5.7304764e-07
1.6898334e-09
5.7285748e-07
6.8097417e-10
5.7274864e-07
-3.2046918e-10
5.7271598e-07
-1.3311727e-09
5.7275809e-07
-2.3682076e-09
5.728771e-07
-3.4497235e-09
5.7307893e-07
-4.5956895e-09
5.7337369e-07
-5.8287422e-09
5.7377665e-07
-7.1751823e-09
5.7430956e-07
-8.6661757e-09
5.7500268e-07
-1.0339203e-08
5.7589788e-07
-1.2239837e-08
5.7705308e-07
-1.442413e-08
5.7854926e-07
-1.6961505e-08
5.8050013e-07
-1.9936803e-08
5.830688e-07
-2.3450797e-08
5.8648782e-07
-2.7644908e-08
5.9109086e-07
-3.3037618e-08
5.9811509e-07
-4.1013919e-08
6.1287798e-07
-4.7690602e-08
6.3493871e-07
-3.3377524e-08
5.8688975e-07
2.8345741e-07
2.6189146e-08
2.0689751e-07
5.0133076e-08
5.4926557e-07
4.8493999e-08
6.5460888e-07
3.9491412e-08
6.3569287e-07
3.3077744e-08
6.1186469e-07
2.841226e-08
6.0058099e-07
2.4493062e-08
5.939874e-07
2.1118293e-08
5.8913836e-07
1.8207072e-08
5.8545735e-07
1.5680173e-08
5.8264666e-07
1.3468462e-08
5.8048104e-07
1.1514763e-08
5.7879936e-07
9.7715615e-09
5.7748659e-07
8.1990709e-09
5.7645998e-07
6.7637626e-09
5.7565927e-07
5.4370945e-09
5.7504034e-07
4.1944232e-09
5.74571e-07
3.0140797e-09
5.7422798e-07
1.8765727e-09
5.7399499e-07
7.6388487e-10
5.7386132e-07
-3.4116311e-10
5.7382103e-07
-1.4555089e-09
5.7387244e-07
-2.5964412e-09
5.7401804e-07
-3.7822023e-09
5.7426469e-07
-5.0326312e-09
5.7462412e-07
-6.3698779e-09
5.751139e-07
-7.8192165e-09
5.7575889e-07
-9.4099919e-09
5.7659346e-07
-1.1176728e-08
5.7766461e-07
-1.3160395e-08
5.7903675e-07
-1.5410061e-08
5.8079893e-07
-1.7985009e-08
5.8307508e-07
-2.0954691e-08
5.8603848e-07
-2.4394291e-08
5.8992742e-07
-2.8439352e-08
5.9513592e-07
-3.3695212e-08
6.0337095e-07
-4.1066481e-08
6.2024925e-07
-4.4800489e-08
6.3867272e-07
-2.8205946e-08
5.7029521e-07
2.5525146e-07
2.0571074e-08
1.8632643e-07
4.4583646e-08
5.2525299e-07
4.6643476e-08
6.5254905e-07
3.9153667e-08
6.4318267e-07
3.3084219e-08
6.1793414e-07
2.8717949e-08
6.0494726e-07
2.5038393e-08
5.9766695e-07
2.1803934e-08
5.9237282e-07
1.8959255e-08
5.8830203e-07
1.6448307e-08
5.851576e-07
1.4217593e-08
5.8271175e-07
1.2220934e-08
5.8079602e-07
1.0418551e-08
5.7928898e-07
8.7760913e-09
5.7810244e-07
7.2638025e-09
5.7717155e-07
5.8557216e-09
5.7644842e-07
4.5289345e-09
5.7589778e-07
3.2629101e-09
5.75494e-07
2.0388937e-09
5.75219e-07
8.3934965e-10
5.7506087e-07
-3.5255828e-10
5.7501294e-07
-1.5534635e-09
5.7507334e-07
-2.780294e-09
5.7524487e-07
-4.0507729e-09
5.7553517e-07
-5.3839439e-09
5.7595729e-07
-6.8007368e-09
5.7653069e-07
-8.3245845e-09
5.7728274e-07
-9.9821086e-09
5.7825098e-07
-1.1803886e-08
5.7948639e-07
-1.3825242e-08
5.8105811e-07
-1.6087163e-08
5.8306085e-07
-1.8637498e-08
5.8562541e-07
-2.152935e-08
5.8893033e-07
-2.4816731e-08
5.932148e-07
-2.8645885e-08
5.9896507e-07
-3.3664263e-08
6.0838932e-07
-4.0148242e-08
6.2673323e-07
-4.1162558e-08
6.3968703e-07
-2.3418434e-08
5.5255108e-07
2.3183303e-07
1.6015673e-08
1.7031076e-07
3.9144451e-08
5.0212421e-07
4.4119249e-08
6.4757425e-07
3.8290272e-08
6.4901165e-07
3.2654434e-08
6.2356998e-07
2.8592044e-08
6.0900965e-07
2.5183952e-08
6.0107504e-07
2.2136198e-08
5.9542058e-07
1.9404893e-08
5.9103333e-07
1.6953979e-08
5.8760852e-07
1.4744483e-08
5.8492125e-07
1.274081e-08
5.8279969e-07
1.0911048e-08
5.8111874e-07
9.2266802e-09
5.7978681e-07
7.6622353e-09
5.78736e-07
6.1948693e-09
5.7791579e-07
4.8039387e-09
5.7728871e-07
3.4705737e-09
5.7682737e-07
2.1772565e-09
5.7651232e-07
9.0741333e-10
5.7633071e-07
-3.5498284e-10
5.7627534e-07
-1.6257987e-09
5.7634416e-07
-2.921133e-09
5.765402e-07
-4.2577064e-09
5.7687174e-07
-5.6532616e-09
5.7735285e-07
-7.1269775e-09
5.7800441e-07
-8.6998966e-09
5.7885566e-07
-1.0395364e-08
5.7994645e-07
-1.2239481e-08
5.8133051e-07
-1.426153e-08
5.8308015e-07
-1.6494332e-08
5.8529365e-07
-1.8974637e-08
5.8810572e-07
-2.1740581e-08
5.9169627e-07
-2.4832636e-08
5.9630685e-07
-2.8419726e-08
6.0255216e-07
-3.3129141e-08
6.1309874e-07
-3.8554127e-08
6.3215822e-07
-3.7219305e-08
6.3835221e-07
-1.9184391e-08
5.3451617e-07
2.1264863e-07
1.2423981e-08
1.5788678e-07
3.4114595e-08
4.804336e-07
4.125053e-08
6.4043832e-07
3.7079388e-08
6.5318279e-07
3.1942526e-08
6.2870684e-07
2.8169275e-08
6.127829e-07
2.5033378e-08
6.0421094e-07
2.2192338e-08
5.9826162e-07
1.9601087e-08
5.9362458e-07
1.7239043e-08
5.8997056e-07
1.5079574e-08
5.8708072e-07
1.309637e-08
5.847829e-07
1.1264795e-08
5.8295031e-07
9.561998e-09
5.814896e-07
7.9668638e-09
5.8033113e-07
6.4598835e-09
5.7942277e-07
5.0229752e-09
5.7872562e-07
3.6392569e-09
5.7821109e-07
2.2927904e-09
5.7785879e-07
9.6831126e-10
5.7765519e-07
-3.4904865e-10
5.775927e-07
-1.6740398e-09
5.7766915e-07
-3.0215811e-09
5.7788774e-07
-4.4070406e-09
5.782572e-07
-5.8465139e-09
5.7879232e-07
-7.3570982e-09
5.7951499e-07
-8.9571511e-09
5.8045571e-07
-1.0666523e-08
5.8165582e-07
-1.2506767e-08
5.8317075e-07
-1.4501299e-08
5.8507469e-07
-1.6675431e-08
5.8746778e-07
-1.9056048e-08
5.9048634e-07
-2.1668642e-08
5.9430887e-07
-2.4547408e-08
5.9918562e-07
-2.7886948e-08
6.058917e-07
-3.2232539e-08
6.1744433e-07
-3.6526277e-08
6.3645195e-07
-3.3272011e-08
6.3509794e-07
-1.5565506e-08
5.1680966e-07
1.9708313e-07
9.6573815e-09
1.482294e-07
2.9646389e-08
4.6044459e-07
3.8283975e-08
6.3180073e-07
3.5659187e-08
6.5580758e-07
3.1059678e-08
6.3330635e-07
2.7554013e-08
6.1628857e-07
2.4673243e-08
6.0709171e-07
2.2041131e-08
6.0089373e-07
1.9601711e-08
5.96064e-07
1.7345015e-08
5.9222726e-07
1.525443e-08
5.891713e-07
1.3311377e-08
5.8672595e-07
1.1497524e-08
5.8476417e-07
9.7951456e-09
5.8319198e-07
8.1872403e-09
5.8193904e-07
6.657589e-09
5.8095242e-07
5.1907483e-09
5.8019246e-07
3.7719761e-09
5.7962986e-07
2.3871102e-09
5.7924365e-07
1.0224171e-09
5.7901988e-07
-3.3557817e-10
5.7895069e-07
-1.7002714e-09
5.7903384e-07
-3.0851671e-09
5.7927264e-07
-4.5040585e-09
5.7967609e-07
-5.9711975e-09
5.8025946e-07
-7.5014474e-09
5.8104524e-07
-9.1104053e-09
5.8206467e-07
-1.0814479e-08
5.833599e-07
-1.2630915e-08
5.8498719e-07
-1.4577792e-08
5.8702156e-07
-1.6673847e-08
5.8956384e-07
-1.8937556e-08
5.9275004e-07
-2.1384421e-08
5.9675573e-07
-2.4048583e-08
6.0184978e-07
-2.7146423e-08
6.0898954e-07
-3.1092625e-08
6.2139053e-07
-3.4268828e-08
6.3962816e-07
-2.9525828e-08
6.3035494e-07
-1.2557143e-08
4.9984098e-07
1.8452598e-07
7.5670511e-09
1.4066235e-07
2.5787498e-08
4.4222415e-07
3.5390449e-08
6.2219778e-07
3.4139528e-08
6.570585e-07
3.0088887e-08
6.3735699e-07
2.6826253e-08
6.195512e-07
2.4173233e-08
6.0974473e-07
2.1740358e-08
6.033266e-07
1.9454048e-08
5.9835031e-07
1.7309954e-08
5.9437135e-07
1.5299197e-08
5.9118206e-07
1.3409397e-08
5.8861575e-07
1.1627439e-08
5.8654612e-07
9.9400113e-09
5.8487941e-07
8.333798e-09
5.8354525e-07
6.7956465e-09
5.8249057e-07
5.3126689e-09
5.8167544e-07
3.8722734e-09
5.8107025e-07
2.462146e-09
5.8065378e-07
1.070194e-09
5.8041183e-07
-3.1553455e-10
5.8033642e-07
-1.706945e-09
5.8042525e-07
-3.115998e-09
5.8068169e-07
-4.5548035e-09
5.811149e-07
-6.0356998e-09
5.8174035e-07
-7.5713082e-09
5.8258085e-07
-9.1745522e-09
5.8366792e-07
-1.0858623e-08
5.8504397e-07
-1.2636888e-08
5.8676545e-07
-1.4522773e-08
5.8890745e-07
-1.6529463e-08
5.9157053e-07
-1.8668549e-08
5.9488913e-07
-2.0948535e-08
5.9903572e-07
-2.3408612e-08
6.0430986e-07
-2.6278526e-08
6.1185946e-07
-2.981047e-08
6.2492247e-07
-3.1943437e-08
6.4176112e-07
-2.6103112e-08
6.2451462e-07
-1.0112663e-08
4.8385053e-07
1.7441332e-07
6.0124173e-09
1.3464994e-07
2.2516144e-08
4.2572043e-07
3.2671811e-08
6.1204212e-07
3.2600857e-08
6.5712946e-07
2.9090247e-08
6.408676e-07
2.6046167e-08
6.2259528e-07
2.3588687e-08
6.1220221e-07
2.13376e-08
6.0557769e-07
1.9198294e-08
6.0048962e-07
1.7167305e-08
5.9640234e-07
1.5241259e-08
5.931081e-07
1.3412528e-08
5.9044448e-07
1.1672125e-08
5.8828653e-07
1.0010381e-08
5.8654115e-07
8.4171496e-09
5.8513848e-07
6.8820186e-09
5.840257e-07
5.3944644e-09
5.8316299e-07
3.9439536e-09
5.8252076e-07
2.5199946e-09
5.8207774e-07
1.1121532e-09
5.8181967e-07
-2.8995879e-10
5.8173853e-07
-1.6967079e-09
5.81832e-07
-3.1184713e-09
5.8210345e-07
-4.5656608e-09
5.8256208e-07
-6.0487304e-09
5.8322342e-07
-7.5781572e-09
5.8411028e-07
-9.1643863e-09
5.8525414e-07
-1.0817725e-08
5.866973e-07
-1.2548184e-08
5.8849591e-07
-1.43653e-08
5.9072456e-07
-1.627776e-08
5.9348299e-07
-1.829186e-08
5.9690323e-07
-2.0412181e-08
6.0115604e-07
-2.2686526e-08
6.065842e-07
-2.534686e-08
6.1451979e-07
-2.8466679e-08
6.2804229e-07
-2.9664311e-08
6.4295876e-07
-2.3059139e-08
6.1790945e-07
-8.1636206e-09
4.6895501e-07
1.662497e-07
4.870777e-09
1.2977916e-07
1.9773779e-08
4.1081743e-07
3.0176337e-08
6.0163956e-07
3.1095526e-08
6.5621027e-07
2.8103261e-08
6.4385986e-07
2.5256052e-08
6.2544249e-07
2.2961737e-08
6.1449653e-07
2.0870914e-08
6.0766851e-07
1.8867727e-08
6.024928e-07
1.6945628e-08
5.9832444e-07
1.5104692e-08
5.9494904e-07
1.3340731e-08
5.9220844e-07
1.1647871e-08
5.8997939e-07
1.0019323e-08
5.881697e-07
8.4475672e-09
5.8671024e-07
6.9245519e-09
5.8554872e-07
5.4418643e-09
5.8464568e-07
3.9908675e-09
5.8397176e-07
2.562796e-09
5.8350581e-07
1.1488199e-09
5.8323365e-07
-2.5991459e-10
5.8314727e-07
-1.6722578e-09
5.8324434e-07
-3.0970351e-09
5.8352823e-07
-4.5430175e-09
5.8400807e-07
-6.0188772e-09
5.8469928e-07
-7.5331169e-09
5.8562452e-07
-9.0939676e-09
5.8681499e-07
-1.0709245e-08
5.8831258e-07
-1.2386165e-08
5.9017283e-07
-1.4131157e-08
5.9246956e-07
-1.5949441e-08
5.9530127e-07
-1.7843542e-08
5.9879733e-07
-1.9816931e-08
6.0312943e-07
-2.1927759e-08
6.0869503e-07
-2.439818e-08
6.1699021e-07
-2.7120016e-08
6.3076413e-07
-2.7503568e-08
6.4334231e-07
-2.0403286e-08
6.1080916e-07
-6.6343696e-09
4.551861e-07
1.5961533e-07
4.039771e-09
1.257394e-07
1.7487927e-08
3.9736928e-07
2.7917995e-08
5.912095e-07
2.965417e-08
6.5447409e-07
2.7151139e-08
6.4636289e-07
2.4483107e-08
6.2811052e-07
2.2322535e-08
6.166571e-07
2.0369379e-08
6.0962167e-07
1.8488925e-08
6.0437326e-07
1.6668558e-08
6.001448e-07
1.4910029e-08
5.9670757e-07
1.3211485e-08
5.9390699e-07
1.1569276e-08
5.916216e-07
9.9787952e-09
5.8976018e-07
8.4346231e-09
5.8825441e-07
6.9306743e-09
5.8705267e-07
5.4603627e-09
5.8611599e-07
4.0167446e-09
5.8541538e-07
2.5926363e-09
5.8492992e-07
1.1807077e-09
5.8464558e-07
-2.2644307e-10
5.8455442e-07
-1.6362259e-09
5.8465412e-07
-3.0559991e-09
5.84948e-07
-4.4930026e-09
5.8544507e-07
-5.9542788e-09
5.8616056e-07
-7.4465709e-09
5.8711681e-07
-8.9761956e-09
5.8834462e-07
-1.0548889e-08
5.8988528e-07
-1.2169632e-08
5.9179357e-07
-1.3842478e-08
5.941424e-07
-1.557011e-08
5.970289e-07
-1.7352651e-08
6.0057987e-07
-1.9194769e-08
6.0497155e-07
-2.1165054e-08
6.1066532e-07
-2.3464493e-08
6.1928965e-07
-2.5810253e-08
6.3310989e-07
-2.5500985e-08
6.4303304e-07
-1.8117032e-08
6.0342521e-07
-5.4505394e-09
4.425196e-07
1.5416479e-07
3.4367239e-09
1.2230268e-07
1.5584778e-08
3.8522124e-07
2.5890174e-08
5.8090411e-07
2.8292219e-08
6.5207205e-07
2.6245763e-08
6.4840935e-07
2.3743233e-08
6.3061305e-07
2.1691399e-08
6.1870893e-07
1.9854223e-08
6.1145884e-07
1.8082312e-08
6.0614517e-07
1.6355008e-08
6.0187211e-07
1.4674254e-08
5.9838832e-07
1.3039648e-08
5.9554159e-07
1.1449044e-08
5.932122e-07
9.899417e-09
5.9130981e-07
8.3869643e-09
5.8976686e-07
6.9071927e-09
5.8853244e-07
5.4550531e-09
5.8756813e-07
4.0250728e-09
5.8684536e-07
2.6114781e-09
5.8634351e-07
1.2083007e-09
5.8604876e-07
-1.9052758e-10
5.8595324e-07
-1.5910889e-09
5.8605469e-07
-2.9993956e-09
5.8635631e-07
-4.4213007e-09
5.8686697e-07
-5.8623982e-09
5.8760166e-07
-7.3279075e-09
5.8858232e-07
-8.82254e-09
5.8983925e-07
-1.0350353e-08
5.9141309e-07
-1.1914606e-08
5.9335783e-07
-1.3517615e-08
5.9574541e-07
-1.5160327e-08
5.9867161e-07
-1.6841625e-08
6.0226117e-07
-1.8569127e-08
6.0669905e-07
-2.0420661e-08
6.1251685e-07
-2.2566315e-08
6.214353e-07
-2.4562269e-08
6.3510584e-07
-2.3673414e-08
6.4214418e-07
-1.6166408e-08
5.959182e-07
-4.5437195e-09
4.3089691e-07
1.4962107e-07
2.9970052e-09
1.1930568e-07
1.399587e-08
3.7422239e-07
2.4075025e-08
5.7082496e-07
2.7014837e-08
6.4913224e-07
2.539153e-08
6.5003266e-07
2.3044466e-08
6.3296011e-07
2.10812e-08
6.206722e-07
1.9340332e-08
6.1319971e-07
1.7663077e-08
6.0782242e-07
1.6019662e-08
6.0351552e-07
1.4411023e-08
5.9999696e-07
1.2837518e-08
5.971151e-07
1.1297945e-08
5.9475177e-07
9.7903708e-09
5.9281738e-07
8.3121946e-09
5.9124504e-07
6.860176e-09
5.8998445e-07
5.4305268e-09
5.8899778e-07
4.0190223e-09
5.8825686e-07
2.621115e-09
5.8774142e-07
1.232043e-09
5.8743783e-07
-1.5306814e-10
5.8733835e-07
-1.5391083e-09
5.8744073e-07
-2.930887e-09
5.8774809e-07
-4.3330323e-09
5.8826912e-07
-5.749884e-09
5.8901851e-07
-7.1853761e-09
5.9001781e-07
-8.6429105e-09
5.9129679e-07
-1.0125234e-08
5.9289541e-07
-1.163433e-08
5.9486692e-07
-1.3171318e-08
5.972824e-07
-1.4736055e-08
6.0023635e-07
-1.6327164e-08
6.0385228e-07
-1.7956398e-08
6.0832828e-07
-1.9708702e-08
6.1426916e-07
-2.1715533e-08
6.2344213e-07
-2.338957e-08
6.3677988e-07
-2.2022044e-08
6.4077666e-07
-1.4510385e-08
5.8840655e-07
-3.8540119e-09
4.2024054e-07
1.4576706e-07
2.6717767e-09
1.1663392e-07
1.266146e-08
3.6423272e-07
2.2449806e-08
5.6103663e-07
2.5820675e-08
6.4576137e-07
2.4588064e-08
6.5126527e-07
2.2389533e-08
6.3515864e-07
2.0499364e-08
6.2256237e-07
1.8837696e-08
6.1486138e-07
1.7242174e-08
6.0941795e-07
1.5673634e-08
6.0508406e-07
1.4131056e-08
6.0153954e-07
1.2615035e-08
5.9863112e-07
1.1124897e-08
5.9624191e-07
9.6594146e-09
5.9428287e-07
8.2168453e-09
5.9268761e-07
6.7949075e-09
5.9140639e-07
5.390824e-09
5.9040186e-07
4.0014053e-09
5.8964628e-07
2.6231477e-09
5.8911968e-07
1.2523343e-09
5.8880864e-07
-1.1486491e-10
5.8870555e-07
-1.4822939e-09
5.8880815e-07
-2.8537117e-09
5.8911951e-07
-4.2326899e-09
5.896481e-07
-5.6225072e-09
5.9040833e-07
-7.0260394e-09
5.9142134e-07
-8.4456499e-09
5.927164e-07
-9.883095e-09
5.9433286e-07
-1.1339461e-08
5.9632329e-07
-1.2815101e-08
5.9875804e-07
-1.4309303e-08
6.0173055e-07
-1.5821209e-08
6.0536418e-07
-1.7367372e-08
6.0987444e-07
-1.9037138e-08
6.1593892e-07
-2.0917662e-08
6.2532266e-07
-2.2297311e-08
6.3815953e-07
-2.0538191e-08
6.3901754e-07
-1.3106458e-08
5.8097481e-07
-3.3310106e-09
4.1046509e-07
1.4243605e-07
2.425298e-09
1.1420863e-07
1.1531639e-08
3.551264e-07
2.0990973e-08
5.5157731e-07
2.4704764e-08
6.4204759e-07
2.3832208e-08
6.5213782e-07
2.1777746e-08
6.372131e-07
1.9949441e-08
6.2439067e-07
1.8352612e-08
6.1645821e-07
1.6827232e-08
6.1094333e-07
1.5325111e-08
6.0658618e-07
1.3842579e-08
6.0302207e-07
1.2380067e-08
6.0009363e-07
1.0937136e-08
5.9768484e-07
9.512969e-09
5.9570703e-07
8.1064106e-09
5.9409416e-07
6.715891e-09
5.9279691e-07
5.3394247e-09
5.9177833e-07
3.974664e-09
5.9101104e-07
2.6189759e-09
5.9047537e-07
1.2695298e-09
5.9015809e-07
-7.6609444e-11
5.9005169e-07
-1.4223866e-09
5.9015393e-07
-2.7706639e-09
5.9046778e-07
-4.1241208e-09
5.9100155e-07
-5.485158e-09
5.9176936e-07
-6.855801e-09
5.9279198e-07
-8.2376131e-09
5.9409821e-07
-9.6316321e-09
5.9572688e-07
-1.1038351e-08
5.9773001e-07
-1.2457691e-08
6.0017738e-07
-1.3888772e-08
6.0316164e-07
-1.5331849e-08
6.0680726e-07
-1.6808488e-08
6.1135108e-07
-1.840941e-08
6.1753984e-07
-2.0173729e-08
6.2708697e-07
-2.1284972e-08
6.3927077e-07
-1.9207828e-08
6.3694039e-07
-1.1914481e-08
5.7368147e-07
-2.9337106e-09
4.0148432e-07
1.3950234e-07
2.2321897e-09
1.1197646e-07
1.0565953e-08
3.4679267e-07
1.9676468e-08
5.4246682e-07
2.3660554e-08
6.3806351e-07
2.3119501e-08
6.5267887e-07
2.1206422e-08
6.3912618e-07
1.9432348e-08
6.2616474e-07
1.7888669e-08
6.1800188e-07
1.6423315e-08
6.1240868e-07
1.4979946e-08
6.0802955e-07
1.3551753e-08
6.0445027e-07
1.2138713e-08
6.0150667e-07
1.0740415e-08
5.9908314e-07
9.356246e-09
5.970912e-07
7.9854248e-09
5.9546499e-07
6.6268928e-09
5.9415544e-07
5.2792705e-09
5.9312595e-07
3.9408804e-09
5.9234943e-07
2.6098019e-09
5.9180644e-07
1.2839425e-09
5.9148395e-07
-3.8882035e-11
5.9137452e-07
-1.3608581e-09
5.9147591e-07
-2.6840986e-09
5.9179102e-07
-4.0105443e-09
5.92328e-07
-5.3418855e-09
5.931007e-07
-6.6794817e-09
5.9412958e-07
-8.0242983e-09
5.9544302e-07
-9.376877e-09
5.9707945e-07
-1.0737355e-08
5.9909048e-07
-1.2105468e-08
6.0154549e-07
-1.348047e-08
6.0453664e-07
-1.4864153e-08
6.0819094e-07
-1.6282937e-08
6.1276987e-07
-1.7825821e-08
6.1908273e-07
-1.9481854e-08
6.2874301e-07
-2.0348542e-08
6.4013746e-07
-1.8014724e-08
6.3460657e-07
-1.0898581e-08
5.6656532e-07
-2.6296576e-09
3.932154e-07
1.3687268e-07
2.0749666e-09
1.0990151e-07
9.7322954e-09
3.3913538e-07
1.8486764e-08
5.3371238e-07
2.2681205e-08
6.3386908e-07
2.2445155e-08
6.5291493e-07
2.0671915e-08
6.4089942e-07
1.8947338e-08
6.2788932e-07
1.7447553e-08
6.1950167e-07
1.6033581e-08
6.1382265e-07
1.4642169e-08
6.0942096e-07
1.3263071e-08
6.0582936e-07
1.1895594e-08
6.0287414e-07
1.0539222e-08
6.0043951e-07
9.1933989e-09
5.9843702e-07
7.857563e-09
5.9680082e-07
6.5310072e-09
5.95482e-07
5.2128043e-09
5.9444416e-07
3.9017996e-09
5.9366044e-07
2.596644e-09
5.931116e-07
1.2958486e-09
5.9278474e-07
-2.1496357e-12
5.9267252e-07
-1.2989213e-09
5.9277268e-07
-2.5959538e-09
5.9308806e-07
-3.8945921e-09
5.9362664e-07
-5.195965e-09
5.9440208e-07
-6.5009237e-09
5.9543454e-07
-7.8100036e-09
5.967521e-07
-9.1234258e-09
5.9839288e-07
-1.0441149e-08
6.0040821e-07
-1.17629e-08
6.0286724e-07
-1.3088283e-08
6.0586202e-07
-1.4420909e-08
6.0952357e-07
-1.5791602e-08
6.1414056e-07
-1.7284651e-08
6.2057578e-07
-1.883846e-08
6.3029682e-07
-1.948214e-08
6.4078114e-07
-1.6942382e-08
6.3206682e-07
-1.0027703e-08
5.5965064e-07
-2.393738e-09
3.8558143e-07
1.3447894e-07
1.9419587e-09
1.0795957e-07
9.0055488e-09
3.3207183e-07
1.7405151e-08
5.2531282e-07
2.1760286e-08
6.2951397e-07
2.1804618e-08
6.5287059e-07
2.0170275e-08
6.4253376e-07
1.8492704e-08
6.2956689e-07
1.7029674e-08
6.209647e-07
1.5659811e-08
6.1519252e-07
1.431443e-08
6.1076634e-07
1.2979714e-08
6.0716408e-07
1.1654132e-08
6.0419973e-07
1.0336983e-08
6.0175666e-07
9.0276756e-09
5.9974633e-07
7.7257512e-09
5.9810275e-07
6.4307333e-09
5.9677702e-07
5.1420221e-09
5.9573287e-07
3.8588619e-09
5.949436e-07
2.580353e-09
5.9439011e-07
1.3054888e-09
5.9405961e-07
3.3206416e-11
5.939448e-07
-1.2375526e-09
5.9404344e-07
-2.5077858e-09
5.9435829e-07
-3.778364e-09
5.9489722e-07
-5.0499811e-09
5.9567369e-07
-6.3231113e-09
5.9670767e-07
-7.5979952e-09
5.9802699e-07
-8.8746674e-09
5.9966955e-07
-1.0153036e-08
6.0168657e-07
-1.1432938e-08
6.0414714e-07
-1.2714478e-08
6.0714356e-07
-1.4003247e-08
6.1081233e-07
-1.5333813e-08
6.1547113e-07
-1.6782997e-08
6.2202496e-07
-1.8239147e-08
6.3175297e-07
-1.8679118e-08
6.4122111e-07
-1.5975228e-08
6.2936293e-07
-9.2757237e-09
5.5295114e-07
-2.2069796e-09
3.7851269e-07
1.3227196e-07
1.8256252e-09
1.0613397e-07
8.3662288e-09
3.2553128e-07
1.6417627e-08
5.1726147e-07
2.0892101e-08
6.2503951e-07
2.1193867e-08
6.5256883e-07
1.9697659e-08
6.4402997e-07
1.8066252e-08
6.311983e-07
1.6634628e-08
6.2239632e-07
1.5302823e-08
6.1652432e-07
1.3998359e-08
6.1207081e-07
1.2703845e-08
6.0845859e-07
1.1416793e-08
6.0548678e-07
1.0136261e-08
6.0303719e-07
8.8615668e-09
6.0102103e-07
7.5922779e-09
5.9937203e-07
6.3280559e-09
5.9804124e-07
5.0685293e-09
5.9699239e-07
3.8132395e-09
5.9619889e-07
2.5616331e-09
5.9564171e-07
1.3130823e-09
5.9530816e-07
6.6922341e-11
5.9519096e-07
-1.1775074e-09
5.9528787e-07
-2.4208101e-09
5.9560159e-07
-3.6634912e-09
5.961399e-07
-4.9059175e-09
5.9691612e-07
-6.1482946e-09
5.9795005e-07
-7.3906736e-09
5.9926937e-07
-8.633002e-09
6.0091188e-07
-9.8752244e-09
6.029288e-07
-1.1117365e-08
6.0538928e-07
-1.236013e-08
6.0838632e-07
-1.3611146e-08
6.1206335e-07
-1.4907927e-08
6.1676791e-07
-1.6317363e-08
6.2343439e-07
-1.7679277e-08
6.3311488e-07
-1.7932798e-08
6.4147463e-07
-1.5099238e-08
6.2652937e-07
-8.6211316e-09
5.4647303e-07
-2.0553841e-09
3.7194694e-07
1.3021658e-07
1.7212467e-09
1.0441276e-07
7.7992633e-09
3.1945333e-07
1.5512578e-08
5.0954822e-07
2.0071788e-08
6.2048033e-07
2.0609511e-08
6.5203111e-07
1.9250546e-08
6.4538893e-07
1.7665618e-08
6.3278322e-07
1.6261516e-08
6.2380043e-07
1.496278e-08
6.1782306e-07
1.3694845e-08
6.1333874e-07
1.2436865e-08
6.0971657e-07
1.1185293e-08
6.0673835e-07
9.9389211e-09
6.0428356e-07
8.6969424e-09
6.02263e-07
7.4588994e-09
6.0061008e-07
6.2245243e-09
5.9927561e-07
4.9935973e-09
5.9822332e-07
3.765874e-09
5.9742661e-07
2.5410615e-09
5.9686653e-07
1.3188226e-09
5.9653039e-07
9.8800134e-11
5.9641098e-07
-1.1193554e-09
5.9650602e-07
-2.3359463e-09
5.9681818e-07
-3.5512011e-09
5.9735515e-07
-4.7652481e-09
5.9813017e-07
-5.9781106e-09
5.9916291e-07
-7.1897303e-09
6.0048099e-07
-8.4000387e-09
6.0212218e-07
-9.6090722e-09
6.0413783e-07
-1.0817088e-08
6.065973e-07
-1.2025457e-08
6.0959469e-07
-1.3243821e-08
6.1328171e-07
-1.4511746e-08
6.1803583e-07
-1.5884076e-08
6.2480672e-07
-1.7154357e-08
6.3438516e-07
-1.7236917e-08
6.4155719e-07
-1.4302176e-08
6.2359462e-07
-8.0464883e-09
5.4021734e-07
-1.928852e-09
3.658293e-07
1.2828773e-07
1.6259537e-09
1.0278684e-07
7.2929566e-09
3.1378641e-07
1.4680393e-08
5.0216085e-07
1.9295269e-08
6.158655e-07
2.0048783e-08
6.5127761e-07
1.8825833e-08
6.4661188e-07
1.7288455e-08
6.343206e-07
1.5909173e-08
6.2517971e-07
1.4639418e-08
6.1909281e-07
1.3404259e-08
6.145739e-07
1.2179604e-08
6.1094123e-07
1.0960778e-08
6.0795718e-07
9.7462806e-09
6.0549806e-07
8.5351717e-09
6.0347411e-07
7.3269352e-09
6.0181831e-07
6.121326e-09
6.0048122e-07
4.918217e-09
5.9942643e-07
3.7175122e-09
5.9862731e-07
2.5191083e-09
5.9806493e-07
1.3228857e-09
5.9772662e-07
1.2871949e-10
5.9760515e-07
-1.0635041e-09
5.9769825e-07
-2.2538626e-09
5.9800854e-07
-3.4423817e-09
5.9854367e-07
-4.6290231e-09
5.9931681e-07
-5.8136944e-09
6.0034758e-07
-6.996288e-09
6.0166358e-07
-8.1767671e-09
6.0330266e-07
-9.3552924e-09
6.0531636e-07
-1.0532377e-08
6.0777438e-07
-1.1710098e-08
6.1077241e-07
-1.2900016e-08
6.1447163e-07
-1.4142819e-08
6.1927863e-07
-1.5479553e-08
6.2614346e-07
-1.6660264e-08
6.3556587e-07
-1.6585846e-08
6.4148277e-07
-1.3573594e-08
6.2058237e-07
-7.5378158e-09
5.3418157e-07
-1.8202513e-09
3.6011174e-07
1.2646747e-07
1.5380379e-09
1.0124885e-07
6.838158e-09
3.0848638e-07
1.3913082e-08
4.9508602e-07
1.8559143e-08
6.1121948e-07
1.950948e-08
6.5032728e-07
1.842086e-08
6.477005e-07
1.6932549e-08
6.3580891e-07
1.5576312e-08
6.2653594e-07
1.4332204e-08
6.2033692e-07
1.3126609e-08
6.1577949e-07