/*--------------------------------*- C++ -*----------------------------------*\
  =========                 |
  \\      /  F ield         | OpenFOAM: The Open Source CFD Toolbox
   \\    /   O peration     | Website:  https://openfoam.org
    \\  /    A nd           | Version:  10
     \\/     M anipulation  |
\*---------------------------------------------------------------------------*/
FoamFile
{
    format      ascii;
    class       volScalarField;
    location    "0.29";
    object      TporMedia_0;
}
// * * * * * * * * * * * * * * * * * * * * * * * * * * * * * * * * * * * * * //

dimensions      [0 0 0 1 0 0 0];

internalField   nonuniform List<scalar> 
4000
(
0.00034654423
0.00021741626
0.00019107043
0.00018891941
0.00021196811
0.00019836473
0.00019793347
0.00019141454
0.00020542996
0.00019123808
0.00018593575
0.00019483491
0.00019574764
0.0002011867
0.00017000791
0.00021690572
0.00016698379
0.00022565505
0.00019584115
0.0002227163
0.00019521711
0.0001962382
0.00020006887
0.00019132505
0.00020060418
0.00019577912
0.00019685433
0.00017762899
0.00020195447
0.00021010536
0.00018579757
0.00020646765
0.00019783417
0.00020474369
0.00019728208
0.00019608597
0.00020555382
0.00018872355
0.00019973185
0.00019933119
0.00018179968
1.6817934e-10
6.6376016e-11
7.3096326e-11
8.4460052e-11
8.5988224e-11
6.0132495e-11
5.3325157e-11
7.3930971e-11
6.4592819e-11
6.3693575e-11
5.8160071e-11
6.9698197e-11
9.4287031e-11
5.8837875e-11
8.2113484e-11
5.8277176e-11
7.1136666e-11
8.5144014e-11
7.4774451e-11
7.0057501e-11
5.8401572e-11
8.0520539e-11
5.9024171e-11
7.4510266e-11
6.4385272e-11
5.849804e-11
6.0587546e-11
6.8535822e-11
8.5757049e-11
5.9928557e-11
5.980218e-11
8.2044175e-11
7.2450635e-11
7.0554721e-11
7.4397963e-11
6.2258756e-11
6.1395237e-11
7.2854181e-11
6.7130924e-11
0.00013218493
3.8186546e-11
3.2149756e-17
3.4653343e-17
2.5378646e-17
2.7054102e-17
2.0895399e-17
2.2117823e-17
2.3187132e-17
2.1473937e-17
2.1683722e-17
1.8065781e-17
2.0995418e-17
2.9682217e-17
1.8223849e-17
3.0216953e-17
1.7148944e-17
2.195296e-17
3.0520491e-17
2.2380801e-17
2.3287627e-17
1.6281546e-17
2.3697895e-17
1.7169369e-17
2.410899e-17
2.0641616e-17
2.1816988e-17
1.9203872e-17
2.6647523e-17
2.5531285e-17
2.1295658e-17
1.8186327e-17
3.1257071e-17
2.1780048e-17
2.3851817e-17
2.5001241e-17
2.2718919e-17
2.1500375e-17
2.0782405e-17
2.3337945e-17
0.0001182469
3.0113346e-11
1.5695238e-17
1.506034e-23
8.0729419e-24
9.1399781e-24
6.8594377e-24
6.8242539e-24
9.056324e-24
6.9327899e-24
7.9449963e-24
6.1531331e-24
7.1961863e-24
9.1752057e-24
5.7242736e-24
1.0239697e-23
6.5675268e-24
6.9408409e-24
1.0208677e-23
6.9702986e-24
8.68439e-24
5.0119406e-24
8.329619e-24
5.3425189e-24
8.3567253e-24
5.6687012e-24
7.0055593e-24
5.5623225e-24
9.9632491e-24
7.9005659e-24
6.7049868e-24
5.3985383e-24
1.0968273e-23
8.6556977e-24
7.0953176e-24
9.9214945e-24
7.6224976e-24
7.2956719e-24
6.7922306e-24
8.524633e-24
0.0001013806
2.0703803e-11
9.2393939e-18
4.4399475e-24
4.8040745e-30
3.1186767e-30
1.9688078e-30
2.4768811e-30
2.7950584e-30
2.754769e-30
2.258646e-30
2.6282983e-30
1.9937718e-30
3.9624363e-30
1.8726608e-30
2.9239925e-30
2.3322173e-30
2.027608e-30
3.8858355e-30
2.1894185e-30
2.2808657e-30
1.7280122e-30
2.9097566e-30
1.7529443e-30
2.7373038e-30
2.0881775e-30
2.2500233e-30
1.7883509e-30
2.7034309e-30
2.6280736e-30
2.6363303e-30
1.5973775e-30
3.2202882e-30
3.2122701e-30
2.5293448e-30
2.5562874e-30
2.9818031e-30
2.7345035e-30
2.35519e-30
2.6828673e-30
9.5507437e-05
1.4089329e-11
5.7805804e-18
2.2096393e-24
6.3983904e-31
1.2421793e-36
6.0665776e-37
8.0465419e-37
8.8104685e-37
7.6813821e-37
8.9915292e-37
7.32027e-37
5.9824812e-37
1.0766895e-36
5.7179074e-37
1.0218055e-36
8.146075e-37
7.2675372e-37
1.4703013e-36
6.4125842e-37
8.7384215e-37
6.7733309e-37
1.0738781e-36
6.2107905e-37
8.5384709e-37
7.0057704e-37
6.8024037e-37
5.579694e-37
9.0084681e-37
9.4391883e-37
6.9653643e-37
5.2936582e-37
1.071404e-36
9.487218e-37
7.8104666e-37
8.3681947e-37
9.3730863e-37
8.024409e-37
7.9774866e-37
9.5976747e-37
0.00011775382
1.4597267e-11
4.4428211e-18
2.5002772e-24
7.3447696e-31
2.6360652e-37
2.7367636e-43
2.4888379e-43
2.4814414e-43
2.7407713e-43
2.5726734e-43
2.3895777e-43
1.8361431e-43
4.0318935e-43
1.7534143e-43
4.1858339e-43
3.0105312e-43
2.5729442e-43
5.4663496e-43
2.1487024e-43
2.6002593e-43
2.4058975e-43
3.0288025e-43
2.2402365e-43
2.7615657e-43
1.9109763e-43
2.1633128e-43
1.6916594e-43
2.9239084e-43
2.988057e-43
2.4535623e-43
1.9783929e-43
3.2714933e-43
2.7636615e-43
2.6551575e-43
3.0046041e-43
3.0814829e-43
2.7144936e-43
2.8872121e-43
3.0765922e-43
0.00016789908
2.0811279e-11
4.6106644e-18
2.7700815e-24
9.9074225e-31
3.2096608e-37
1.0625426e-43
1.0678777e-49
8.2778849e-50
1.0242655e-49
7.9190713e-50
7.2725596e-50
6.5899109e-50
1.2296209e-49
6.0046866e-50
1.2018793e-49
1.0267436e-49
8.2205116e-50
1.9280764e-49
7.4917086e-50
9.0193323e-50
8.1136301e-50
9.4477521e-50
1.0145647e-49
-9.1795562e-47
6.78316e-50
6.3933231e-50
4.8812089e-50
1.0452409e-49
8.7943663e-50
7.2241877e-50
6.2396846e-50
9.1865659e-50
1.1273686e-49
8.8412035e-50
1.2648517e-49
1.0256797e-49
1.034185e-49
1.01064e-49
9.6759301e-50
0.00037823509
5.9909423e-11
1.3116012e-17
5.9749771e-24
3.347859e-30
1.1038717e-36
3.2110154e-43
9.6273856e-50
5.5677935e-56
2.9314885e-56
-4.1058212e-56
3.5014659e-56
2.4116622e-56
3.9526278e-56
1.6994679e-56
3.5987871e-56
3.4982709e-56
2.9182765e-56
6.2009034e-56
3.7108385e-56
3.0962177e-56
2.4780235e-56
3.4391703e-56
4.9391902e-56
-9.2080941e-53
2.0981052e-56
1.9325891e-56
1.6351339e-56
4.1184398e-56
2.9964252e-56
2.8266108e-56
2.2392446e-56
3.3611317e-56
7.6562275e-56
2.5147627e-56
7.4803505e-56
4.165116e-56
3.4255051e-56
4.5465497e-56
2.961713e-56
-0.00037726404
-1.7160445e-10
-4.0796724e-17
-1.5994757e-23
-6.4956266e-30
-2.457985e-36
-8.4087073e-43
-2.696252e-49
-1.0002746e-55
-1.9802737e-62
-1.2275492e-61
1.7346358e-62
1.263659e-62
1.933376e-62
7.1588532e-63
1.153579e-62
1.507978e-62
1.7224375e-62
1.8514906e-62
2.8641833e-62
1.071331e-62
7.4980838e-63
1.287386e-62
3.8329004e-62
-1.6052324e-58
1.0243937e-62
6.858152e-63
5.8334662e-63
9.2734852e-62
1.33704e-62
9.6984054e-63
3.2668144e-62
1.1603575e-62
8.8804534e-62
9.2282279e-63
5.7568745e-62
1.4138294e-62
1.1586872e-62
2.3420054e-62
9.3084657e-63
-9.7199991e-05
3.7308416e-11
1.3063898e-17
5.4890329e-24
2.545609e-30
8.0113389e-37
2.3094118e-43
7.2559566e-50
2.1569356e-56
7.2479233e-63
-2.5767482e-67
1.0837436e-68
1.43049e-68
2.3964753e-68
4.4014777e-69
4.7686322e-69
9.1970518e-69
1.1166246e-68
5.9626923e-69
1.9332277e-68
4.3272364e-69
2.5772271e-69
1.0304365e-68
5.3497312e-68
-4.2558112e-64
5.3462465e-69
3.1441355e-69
2.7810891e-69
1.4315458e-67
1.5213315e-68
4.6728736e-69
2.8925971e-68
7.0772973e-69
7.4129865e-68
3.1192932e-69
4.964008e-68
5.1392607e-69
6.685322e-69
2.1396612e-68
3.5159025e-69
-5.4434475e-05
4.9705888e-12
-8.1351426e-18
-2.5978852e-24
-1.0680063e-30
-3.51108e-37
-1.2290856e-43
-3.5638966e-50
-1.2127861e-56
-3.589644e-63
-1.1962679e-69
1.1574044e-74
1.3362674e-74
2.6305553e-74
5.6525676e-75
3.6738176e-75
9.1759337e-75
1.9375412e-74
2.2332384e-75
2.3273592e-74
5.2668579e-75
1.0210612e-75
2.197735e-74
7.6921746e-74
-5.0691446e-70
4.1577754e-75
2.2929084e-75
3.1309818e-75
2.7005175e-73
1.4348593e-74
4.1494046e-75
1.6541824e-74
7.3739051e-75
6.8298873e-74
1.1847468e-75
1.1200382e-73
1.9547623e-75
5.2350452e-75
1.8063005e-74
9.3167292e-76
-3.6253479e-05
1.6240548e-12
-2.3339882e-19
-8.2670068e-26
-2.4670804e-32
-7.6406336e-39
-2.4323282e-45
-7.9402609e-52
-2.1124393e-58
-6.1880036e-65
-2.0171131e-71
-5.85367e-78
2.5874033e-80
3.6415193e-80
1.3813829e-79
4.1543419e-81
7.0570132e-81
2.2847203e-80
1.2838068e-81
3.4125809e-80
7.9560236e-81
7.22605e-82
3.4543726e-80
7.7455684e-80
-5.2185726e-76
4.5519852e-81
1.9931404e-81
5.2887143e-81
2.7433109e-79
1.2749265e-80
8.7718937e-81
1.3704321e-80
8.3410625e-81
9.4861789e-80
9.6947612e-82
1.840294e-79
1.3056383e-81
5.8137476e-81
1.723996e-80
2.7437179e-82
-2.4666646e-05
6.6538515e-13
-4.2040208e-20
-2.1419589e-26
-4.8557886e-33
-1.3639821e-39
-4.5948757e-46
-1.4633273e-52
-4.5618816e-59
-1.6742626e-65
-5.7048344e-72
-2.0339157e-78
-5.9457384e-85
4.6290055e-86
2.2976788e-85
5.2291616e-87
1.0081418e-86
6.7945067e-86
1.247427e-87
3.1604728e-86
1.1725343e-86
6.6195311e-88
5.4344039e-86
1.6451241e-85
-5.7629422e-82
3.5541837e-87
2.8075288e-87
1.3793066e-86
2.5217067e-85
1.5768934e-86
1.0259484e-86
2.6408279e-86
6.6808501e-87
1.4617829e-85
1.1573102e-87
4.0700917e-85
9.915525e-88
1.1860685e-85
1.8642556e-86
7.3528416e-89
-1.8049845e-05
3.195746e-13
-1.0882561e-20
7.5084327e-27
1.2433222e-33
3.1254429e-40
1.0770086e-46
2.9721293e-53
1.0673748e-59
3.439016e-66
9.7175914e-73
2.9141009e-79
9.4601863e-86
9.7661961e-92
4.2434689e-91
4.8952358e-93
1.0356305e-92
1.5762292e-91
1.3695632e-93
2.8959786e-92
1.7777988e-92
6.146961e-94
4.305779e-92
2.0242988e-91
-7.444143e-88
3.4138784e-93
2.9095156e-93
1.2235106e-92
2.4226371e-91
1.3577749e-92
1.3980608e-92
4.135991e-92
2.068928e-92
2.8378052e-91
2.1863867e-93
5.9558461e-91
1.6174122e-93
1.6436046e-91
3.1918622e-92
2.1970389e-95
-1.3820713e-05
1.7091549e-13
-3.5901425e-21
5.5920114e-28
8.7743864e-35
1.7948604e-41
5.5841973e-48
1.8702075e-54
6.111335e-61
1.9354762e-67
6.0069286e-74
1.8731646e-80
5.9035958e-87
1.9447799e-93
1.3954323e-96
3.8969876e-98
8.8922428e-99
2.6184824e-97
1.6975314e-99
3.5535565e-98
1.8913205e-98
7.7723385e-100
7.9610731e-98
1.8258508e-97
-1.2283526e-93
2.9467644e-99
5.7598386e-99
1.4769371e-98
2.2424484e-97
1.2582366e-98
1.7821872e-98
5.0840128e-98
3.5607276e-98
2.7997302e-97
2.0099628e-99
6.5983887e-97
2.5472525e-99
1.6621685e-97
3.885018e-98
6.561155e-102
-1.0532305e-05
9.5539386e-14
-1.3357607e-21
9.7627304e-29
1.2341942e-35
1.9465269e-42
6.0723603e-49
2.1091534e-55
6.1540121e-62
2.0728051e-68
6.0392798e-75
1.9379905e-81
5.2844026e-88
1.3881073e-94
5.0753105e-101
1.46359e-103
1.1899891e-104
3.0829518e-103
1.7299292e-105
5.3591064e-104
5.8444018e-104
4.2085181e-105
1.2241239e-103
2.2003616e-103
-2.8435038e-99
5.1095518e-106
1.4203455e-104
1.5161968e-104
2.5877086e-103
1.5744291e-104
2.1870019e-104
1.2768736e-103
5.0631761e-104
2.9138301e-103
1.6154458e-105
6.2450332e-103
3.4028551e-105
1.675158e-103
5.7541222e-104
1.7148268e-108
-8.3014127e-06
5.6324018e-14
-5.5208375e-22
2.172041e-29
2.7914271e-36
3.4730442e-43
8.6537789e-50
2.5069458e-56
8.4641254e-63
2.4617904e-69
7.6023598e-76
2.2454933e-82
8.4212315e-89
2.457675e-95
7.0206747e-102
2.7645104e-108
1.206435e-110
5.7668907e-109
1.2367088e-110
4.7478626e-110
9.4946171e-110
4.8356161e-111
1.5469482e-109
3.4721696e-109
-3.1966555e-105
-3.3850053e-111
1.2442341e-110
4.2475089e-110
2.3821465e-109
3.0972408e-110
1.9649612e-110
1.369114e-109
8.0523384e-110
5.6283314e-109
2.0483316e-111
8.0526946e-109
4.135581e-111
1.788413e-109
7.8953716e-110
6.4281308e-115
-6.5365511e-06
3.4110413e-14
-2.4308223e-22
5.7417264e-30
7.3579747e-37
7.1313027e-44
1.6095698e-50
4.8322467e-57
1.6551725e-63
4.7696232e-70
1.3480591e-76
4.2575849e-83
1.2369747e-89
4.2440025e-96
1.4348882e-102
4.4568168e-109
1.8503023e-115
7.5321863e-115
2.3023675e-116
4.138045e-116
1.23833e-115
3.7925488e-117
1.3883296e-115
4.4888223e-115
-7.4960061e-111
-1.1809856e-116
1.1568297e-116
7.5085251e-116
2.4372803e-115
6.5870622e-116
2.2736899e-116
9.315895e-115
8.1885526e-116
9.871345e-115
2.7232324e-117
8.7347172e-115
2.9447976e-117
7.6501102e-115
2.9864897e-115
2.9498259e-121
-5.2979155e-06
2.1622236e-14
-1.1416992e-22
1.7794099e-30
3.1034543e-37
2.5022828e-44
4.7705034e-51
1.6767918e-57
4.8939129e-64
1.7915092e-70
5.509616e-77
1.6568513e-83
4.5556873e-90
1.3320864e-96
4.1421572e-103
1.2636071e-109
3.5954742e-116
1.6140133e-120
3.5121837e-121
1.191444e-121
1.8230002e-121
4.9902197e-123
2.1486492e-121
3.6292243e-121
-7.9904608e-117
-1.8395048e-122
7.1778268e-122
1.3739402e-121
3.7461727e-121
1.0191708e-121
2.4892396e-122
1.7284227e-120
1.2463354e-121
1.112686e-120
-8.8054716e-122
2.4562249e-120
2.3524014e-123
9.4328363e-121
8.3781465e-121
3.7653241e-127
-4.312444e-06
1.3972055e-14
-5.6126012e-23
5.9971479e-31
4.9172874e-37
3.1327152e-44
4.1158094e-51
1.3578737e-57
4.5240381e-64
1.286937e-70
4.2264192e-77
1.3456971e-83
3.599412e-90
1.2516684e-96
3.400991e-103
8.8537464e-110
2.7019713e-116
7.8145504e-123
8.3699024e-127
2.4245643e-127
2.7497601e-127
5.5875315e-129
2.6076576e-127
6.1732359e-127
-8.8393567e-123
-2.3927751e-128
1.0345259e-127
2.865318e-127
2.8022099e-127
1.618897e-127
2.0451881e-128
3.7037586e-126
1.4776287e-127
9.9644949e-127
-1.3965541e-127
1.6076435e-125
3.2595732e-129
1.5173045e-126
1.2210272e-126
9.68578e-133
-3.5231797e-06
9.1756547e-15
-2.8556082e-23
2.1514954e-31
-3.8653666e-38
-2.0619833e-45
-2.0934994e-52
-5.2517062e-59
-1.5245335e-65
-4.6568562e-72
-1.3782014e-78
-3.9319035e-85
-1.1062674e-91
-3.1198166e-98
-9.3525953e-105
-2.858648e-111
-8.843368e-118
-2.6169705e-124
-3.8575843e-131
6.8494398e-133
2.5067648e-133
5.1239583e-135
3.2450571e-133
1.7578936e-132
-1.193142e-128
-3.1385917e-134
1.3535525e-133
2.9602255e-133
3.3578426e-133
3.0369968e-133
2.0185383e-134
4.0325815e-132
1.4761931e-133
1.0248182e-132
-1.3614481e-133
3.3869262e-131
3.4409801e-135
2.2388637e-132
-5.5883853e-131
-1.8978e-137
-2.9304824e-06
6.2020715e-15
-1.5205419e-23
8.4064978e-32
-5.0815356e-39
-2.3106891e-46
-1.8777675e-53
-4.4570505e-60
-1.584644e-66
-5.3713149e-73
-1.496803e-79
-5.3212303e-86
-1.4689146e-92
-4.6116512e-99
-1.3813092e-105
-4.3811686e-112
-1.2972817e-118
-4.2001311e-125
-1.3347134e-131
-4.6565746e-138
2.8833756e-139
6.9817931e-141
3.5603543e-139
2.3772776e-138
-9.4774741e-135
-5.4308026e-140
2.1226001e-139
5.5242223e-139
4.3012883e-139
4.048265e-139
2.1598243e-140
3.8790353e-138
1.7031856e-139
8.7864044e-139
-1.0268081e-139
5.6150763e-137
3.8438394e-141
3.1669948e-138
-1.0634173e-136
-3.9240829e-143
-2.4400378e-06
4.2321705e-15
-8.2841349e-24
3.4213476e-32
-1.0535356e-39
-4.1958788e-47
-2.6953059e-54
-4.78335e-61
-1.9390368e-67
-6.54867e-74
-2.0741056e-80
-6.4480104e-87
-1.7450843e-93
-5.3459494e-100
-1.7050876e-106
-4.8990829e-113
-1.5166799e-119
-4.782351e-126
-1.5149941e-132
-5.3582157e-139
2.0762279e-145
1.2558897e-146
3.4373314e-145
3.3278576e-144
-1.1492884e-140
-1.0744578e-145
2.9286734e-145
5.2320865e-145
4.8112729e-145
3.9437172e-145
2.4012454e-146
3.7911271e-144
1.9754686e-145
1.2179934e-144
-9.1192156e-146
6.7677777e-143
6.0109692e-147
5.1582895e-144
-1.4589776e-142
-6.72086e-149
-2.0467841e-06
2.9310736e-15
-4.6225315e-24
1.4551279e-32
-2.6600391e-40
-9.8328481e-48
-5.0678798e-55
-8.4934945e-62
-2.1470215e-68
-6.394153e-75
-1.8501698e-81
-5.0208068e-88
-1.5828583e-94
-5.4875554e-101
-1.7844379e-107
-5.6420739e-114
-1.5054095e-120
-4.6799116e-127
-1.8680099e-133
-2.5713287e-139
-2.3794286e-145
-8.1749366e-151
1.6616499e-150
4.6202826e-150
-1.1437411e-146
-1.5448088e-151
5.991333e-151
8.3459408e-151
9.955391e-151
5.3613783e-151
3.1864214e-152
3.8722575e-150
2.7938785e-151
1.1252979e-150
-1.1489415e-151
7.8412206e-149
7.3268001e-153
3.9841235e-149
-3.2763399e-148
-1.3314304e-154
-1.7266012e-06
2.0587467e-15
-2.643785e-24
6.4603376e-33
-7.6181948e-41
-2.6744055e-48
-1.1283537e-55
-1.3573014e-62
-4.7717238e-69
-1.7285068e-75
-5.3261949e-82
-1.4579892e-88
-4.4513462e-95
-1.2668553e-101
-4.1291055e-108
-1.3248683e-114
-4.465121e-121
-1.5063507e-127
-6.1002387e-134
-3.3713735e-140
-2.899805e-146
-4.1619021e-152
1.4896125e-156
5.2602034e-156
-1.1110348e-152
-1.5089865e-157
9.4853666e-157
1.0188298e-156
1.754252e-156
5.4755772e-157
3.5620964e-158
7.8200525e-156
2.8413383e-157
1.5644122e-156
-1.1831673e-157
9.163419e-155
6.2869342e-159
1.3781969e-154
-4.4202809e-154
-1.833776e-160
-1.4635843e-06
1.4616067e-15
-1.5416697e-24
2.9590449e-33
-2.3914558e-41
-8.4583008e-49
-2.8318451e-56
-2.7147787e-63
-7.4153452e-70
-2.558344e-76
-7.317774e-83
-2.0374255e-89
-6.3184149e-96
-1.8351283e-102
-5.6297469e-109
-1.5209002e-115
-4.4305263e-122
-2.665287e-128
-2.6496122e-134
-2.9475069e-140
-3.0168592e-146
-4.1503996e-152
-1.4439396e-157
6.1868903e-162
-1.5537483e-158
-1.6086647e-163
1.1745142e-162
1.0666226e-162
2.8728731e-162
5.4075232e-163
3.3221647e-164
1.0578344e-161
2.4929431e-163
1.8066912e-162
-1.5470764e-163
9.8496564e-161
6.946545e-165
1.7528106e-160
-9.3588118e-160
-3.7414257e-166
-1.2452608e-06
1.0467117e-15
-9.1344627e-25
1.398231e-33
-8.0467171e-42
-3.255002e-49
-9.0317466e-57
-7.3105891e-64
-2.2188769e-70
-7.5702305e-77
-2.0691457e-83
-6.3979844e-90
-1.9070134e-96
-5.3607119e-103
-1.6627959e-109
-4.9555019e-116
-1.4519875e-122
-6.4164635e-129
-5.3624424e-135
-5.0143703e-141
-5.8679942e-147
-5.5743142e-153
-1.5784553e-158
-1.7255135e-164
-1.682615e-164
-2.740302e-169
1.0996896e-168
1.5270812e-168
3.7123852e-168
6.9999679e-169
2.5262944e-170
1.3145598e-167
3.2841875e-169
2.2761401e-168
-2.0248487e-169
4.0279339e-166
6.2093054e-171
2.0810483e-166
-1.2789211e-165
-6.1860572e-172
-1.065225e-06
7.5793791e-16
-5.5149044e-25
6.7891944e-34
-2.8532729e-42
-1.5983686e-49
-3.7519662e-57
-2.3304447e-64
-4.8793995e-71
-1.6887118e-77
-6.1700248e-84
-1.9389688e-90
-5.3477177e-97
-1.6924504e-103
-5.3977244e-110
-1.9133464e-116
-8.9796978e-123
-5.7679331e-129
-1.5686715e-134
-2.5146135e-140
-5.7035938e-146
-6.8747179e-152
-6.5896942e-158
-1.4309675e-163
-3.2205199e-169
-8.5825537e-175
1.1196e-174
1.7998347e-174
3.3262159e-174
7.2850332e-175
2.3487313e-176
1.4308183e-173
2.9096216e-175
7.2377686e-174
-1.9950686e-175
6.5229511e-172
5.803087e-177
4.0271618e-172
-2.7112744e-171
-9.9095905e-178
-9.1424329e-07
5.5317604e-16
-3.3723436e-25
3.3699389e-34
-1.0596208e-42
-1.566785e-49
-3.132113e-57
-1.512444e-64
-2.857007e-71
-1.1803632e-77
-3.7602937e-84
-1.158563e-90
-4.0649623e-97
-1.3802103e-103
-4.7862756e-110
-8.9295513e-117
-2.1209478e-124
4.5947903e-129
1.5015368e-134
3.7749272e-140
5.5812312e-146
8.2970467e-152
3.6923801e-157
4.8475942e-163
5.3696765e-169
4.9446199e-175
1.360371e-180
1.6007034e-180
2.6266892e-180
6.9406348e-181
3.7426479e-182
2.1070586e-179
5.3540985e-181
1.3645057e-179
-2.9188182e-181
8.2321187e-178
2.0245077e-182
2.4362569e-177
-5.0693101e-177
-1.7356601e-183
-7.882845e-07
4.0752493e-16
-2.0946351e-25
1.7142964e-34
-4.1057482e-43
4.1764129e-50
7.3671734e-58
2.8144742e-65
4.437106e-72
1.6690996e-78
5.7316581e-85
1.6114613e-91
4.5183029e-98
1.3716918e-104
3.8692975e-111
1.1593576e-117
2.9363628e-124
-3.7837544e-130
-1.1007737e-135
-1.8715391e-141
-4.4553568e-147
-1.2197696e-152
-1.4700592e-158
-1.8055129e-164
3.0497532e-169
1.0972661e-174
6.4238795e-180
9.4293427e-186
3.5279947e-186
7.5909817e-187
5.3583309e-188
2.754408e-185
5.2737667e-187
1.566279e-185
-4.8525815e-187
1.2061153e-183
3.0224174e-188
5.5129785e-183
-1.7015623e-182
-6.5929625e-189
-6.8165571e-07
3.022824e-16
-1.3163316e-25
8.8872784e-35
-1.6514322e-43
4.7738892e-51
7.4866647e-59
2.3460174e-66
3.0458708e-73
1.4335784e-79
5.4255073e-86
1.7676647e-92
5.0848894e-99
1.8256282e-105
5.4818857e-112
2.8131107e-118
3.9295901e-124
5.6961583e-130
8.2816996e-136
1.3655762e-141
2.8022447e-147
1.0422335e-152
1.5810658e-158
3.3468687e-164
4.9281977e-170
3.5141586e-175
5.5541487e-181
2.4292643e-186
1.2240123e-191
1.5734165e-192
5.6845872e-194
5.3231908e-191
1.7775343e-192
1.2874194e-191
-1.0752059e-192
1.9043622e-189
-2.2136565e-191
7.3962159e-188
-2.6003909e-188
-1.2414545e-194
-5.9105504e-07
2.2589168e-16
-8.3777357e-26
4.6976602e-35
-6.8609183e-44
9.9595919e-52
1.4289397e-59
3.6772036e-67
3.7036619e-74
1.4259493e-80
5.4305111e-87
1.6866461e-93
5.7738168e-100
1.7695984e-106
6.306758e-113
2.0876926e-119
-3.6902258e-126
-4.4884167e-131
-9.2879759e-137
-1.7032684e-142
2.8957507e-147
4.9425338e-153
6.6972485e-159
1.1504053e-164
2.6448832e-170
7.435758e-175
9.3926688e-181
1.3366447e-186
3.6219274e-192
1.007256e-197
9.8959638e-200
7.388008e-197
2.0664064e-198
1.7521846e-197
-1.3835498e-198
5.1953516e-195
-3.1207648e-197
6.764447e-194
-2.0288817e-193
-8.0018236e-200
-5.1392604e-07
1.6972326e-16
-5.3837071e-26
2.5243685e-35
-2.9330391e-44
2.5886757e-52
3.4259973e-60
7.2835862e-68
5.7401196e-75
1.8743674e-81
6.9072367e-88
2.1896809e-94
6.9284319e-101
2.6004492e-107
9.150132e-114
1.6389654e-120
-2.563893e-126
4.2065572e-131
-5.5718985e-136
-1.3914815e-141
1.2473557e-146
2.384749e-151
8.569125e-157
1.6874578e-162
4.5450188e-168
9.2719257e-174
2.8347172e-179
-1.2430275e-184
-5.1941174e-190
-8.5062505e-196
-1.5262135e-201
2.8101709e-202
5.6525977e-204
4.230813e-203
-3.9043576e-204
1.2928019e-200
-1.6806757e-202
2.3989829e-199
-5.3930538e-199
-1.6196692e-205
-4.4809261e-07
1.2831972e-16
-3.495932e-26
1.3785937e-35
-1.2877348e-44
7.4923646e-53
9.5286862e-61
1.6997264e-68
1.0694037e-75
3.5362921e-82
1.7300504e-88
5.7493163e-95
2.2741839e-101
7.363293e-108
2.2503246e-114
8.0996231e-121
2.4019383e-127
1.0964917e-134
-2.3963237e-139
-5.7731943e-145
-1.5107615e-150
-2.9131867e-155
-5.1413886e-160
-1.232106e-165
-2.412796e-171
1.0911665e-176
9.0751211e-182
1.2543199e-187
3.5419747e-193
6.1132554e-199
2.1698399e-203
1.206343e-207
1.2652432e-209
7.6884898e-209
-6.8884379e-210
2.7345835e-206
-4.1121817e-208
7.1998555e-205
-8.6648819e-204
-2.0912007e-210
-3.9164252e-07
9.7541967e-17
-2.2912282e-26
7.6432989e-36
-5.7965214e-45
2.3533862e-53
2.9866108e-61
4.4309311e-69
2.2020931e-76
5.7549093e-83
1.9408177e-89
8.2828211e-96
2.544065e-102
8.3236277e-109
3.2072888e-115
9.6142417e-122
3.6740402e-128
1.4451867e-134
1.1248898e-140
2.4050805e-146
1.2660344e-151
-4.9877067e-156
1.8966665e-161
5.4137489e-167
3.7354659e-172
-1.6538665e-177
-1.1613211e-182
-1.90663e-188
-3.4779772e-194
-1.5510286e-199
-3.6990579e-205
-3.0383495e-210
1.2245768e-215
2.0401773e-214
-1.0339369e-215
7.9593273e-212
-9.9579465e-214
1.0032234e-210
-6.0151317e-209
-2.4657102e-215
-3.4324123e-07
7.4562569e-17
-1.5156716e-26
4.2967413e-36
-2.6684825e-45
7.8511453e-54
1.0420415e-61
1.3157832e-69
5.1706086e-77
1.0121113e-83
7.1935563e-90
2.8209328e-96
9.8504397e-103
3.412428e-109
1.1513733e-115
3.9468221e-122
1.3352421e-128
4.0359728e-135
-3.6312024e-142
7.2326779e-147
2.7258551e-152
4.0267898e-155
1.4163956e-160
2.9198395e-166
7.0174294e-172
3.819901e-177
7.566189e-183
3.409726e-187
5.0984877e-193
2.4325952e-198
-6.1263767e-204
1.8028903e-208
5.2911215e-214
1.4289726e-219
-3.0939729e-221
3.7180186e-217
5.4375965e-219
4.0447515e-216
-2.6330397e-214
-8.5760022e-221
-3.0127164e-07
5.7226e-17
-1.0101359e-26
2.4457169e-36
-1.2527373e-45
2.7471063e-54
4.0890996e-62
4.4782044e-70
1.4250272e-77
2.7403307e-84
1.8275261e-90
6.9654953e-97
2.646457e-103
7.875549e-110
2.4689627e-116
8.1346233e-123
3.9799877e-129
2.5397536e-134
6.2358383e-139
1.8107613e-144
3.926529e-150
8.0284287e-155
3.3786022e-160
-2.1800944e-163
7.9881356e-168
2.8417774e-172
6.869378e-178
1.2297259e-182
3.4899043e-188
6.4068181e-193
6.5631268e-199
9.4386989e-205
1.4036387e-210
2.8075664e-216
6.8549869e-222
6.0297749e-223
1.5923782e-224
9.4099732e-222
-2.0915922e-219
-1.245275e-225
-2.6511461e-07
4.4147978e-17
-6.7861093e-27
1.409013e-36
-5.999658e-46
1.0033077e-54
1.9289688e-62
1.8473307e-70
4.7742186e-78
6.4256435e-85
3.5028461e-91
1.3864057e-97
3.9760453e-104
1.5458817e-110
6.6648715e-117
2.3106598e-123
4.4080549e-130
-2.3164142e-136
-4.4874916e-141
-1.354712e-146
-6.3041334e-152
3.8177826e-156
-1.7114863e-161
-8.9867416e-167
3.5832635e-172
1.6165742e-177
8.3841206e-183
-2.4012411e-187
-3.0993554e-193
3.0251792e-199
2.8632325e-204
8.8682951e-210
1.7316345e-214
3.4240251e-220
6.2577049e-226
8.5308974e-229
3.866238e-230
-1.2484837e-225
5.9656693e-225
2.4154308e-231
-2.3362382e-07
3.4175923e-17
-4.5880506e-27
8.2025619e-37
-2.9211304e-46
3.7898044e-55
1.3659836e-62
1.1622965e-70
2.4315527e-78
2.5304655e-85
1.0637954e-91
5.0239874e-98
1.8742395e-104
6.044862e-111
2.4844266e-117
9.1957693e-124
9.0650697e-131
-3.4260544e-135
-5.0227155e-141
-3.2914192e-146
-8.9886986e-152
-5.5756163e-157
-1.5968148e-162
-2.7871184e-168
-1.0084244e-173
-3.2879241e-179
-5.3168343e-185
-1.6986951e-190
-4.3759401e-196
-7.1532066e-202
2.0440774e-207
2.8390477e-212
3.0631993e-217
4.4841747e-222
3.7107347e-227
3.0622709e-232
6.9273986e-236
-6.560397e-231
-2.390642e-230
-9.1373527e-237
-2.0639123e-07
2.6581236e-17
-3.1250075e-27
4.829515e-37
-1.4462493e-46
1.4778479e-55
-2.5142215e-62
-1.9313248e-70
-3.3461586e-78
-2.7966056e-85
-1.3960104e-91
-5.459629e-98
-1.76772e-104
-5.529493e-111
-1.8752501e-117
-6.9954162e-124
-2.2027992e-130
-7.9523381e-137
-5.8957398e-143
-4.7618821e-149
-1.183438e-154
-3.348942e-160
9.5221536e-166
1.6456194e-171
2.5219149e-176
-5.0199284e-180
-1.2938712e-185
-5.5424611e-191
-9.1547554e-197
-1.6016228e-202
-6.4299642e-208
3.4223623e-213
8.4655441e-219
1.8338909e-224
5.7447939e-230
-5.2624121e-235
-2.8600968e-240
1.0989022e-236
5.6083935e-236
2.0650122e-242
-1.8253686e-07
2.0738917e-17
-2.1403841e-27
2.868283e-37
-7.2654352e-47
5.923394e-56
-1.1342678e-63
-7.9389998e-72
-1.1417249e-79
-7.19708e-87
-3.263193e-93
-1.5906466e-99
-6.2136217e-106
-2.2085399e-112
-8.187165e-119
-2.6201751e-125
-8.6944109e-132
-2.9171103e-138
-1.2396354e-144
4.0382726e-150
1.6665836e-155
1.0740263e-160
2.2278298e-166
5.6312105e-172
1.4303402e-177
2.1111557e-182
5.3884455e-187
1.4309208e-192
3.2823944e-198
1.9597485e-203
5.4282294e-209
2.1887794e-214
4.9556439e-220
1.163199e-224
-2.422096e-228
-4.1490904e-234
-7.443075e-240
3.3063674e-242
-8.4651912e-242
-3.4638197e-248
-1.6171094e-07
1.6239664e-17
-1.4748784e-27
1.7196243e-37
-3.7019376e-47
2.4339343e-56
-2.141652e-64
-1.3893484e-72
-1.6910784e-80
-8.6046934e-88
-2.8101947e-94
-1.2238609e-100
-4.4900906e-107
-1.9448004e-113
-6.1037673e-120
-2.690699e-126
-8.6547227e-133
-2.7738302e-139
-3.0180937e-145
7.2766182e-151
1.2570612e-156
2.2351921e-161
1.1755524e-166
4.0982063e-172
1.8056336e-176
-1.1129098e-181
-2.5383844e-187
-1.4083921e-192
-6.4443316e-198
-8.2674747e-204
-1.6200188e-209
-1.3903796e-214
-3.8247829e-220
-9.5040954e-226
-3.9497149e-231
-2.1130213e-236
-6.3606653e-242
-1.0179867e-247
2.2348662e-247
1.0655987e-253
-1.4354218e-07
1.2763865e-17
-1.0223007e-27
1.0402914e-37
-1.9121588e-47
1.0238853e-56
-5.2848204e-65
-3.2442643e-73
-3.3514719e-81
-1.3527927e-88
-3.0489985e-95
-2.9047205e-101
-1.0007107e-107
-3.4183093e-114
-1.3510066e-120
-5.2415686e-127
-2.6389503e-133
-6.9506712e-139
-1.380885e-143
-5.0339454e-149
5.1012397e-153
3.4735132e-158
8.4753258e-164
8.951193e-169
4.5371736e-174
6.468946e-180
-4.0267743e-185
-8.0663724e-191
-8.6705586e-197
-1.6611269e-202
-2.4441435e-208
-7.5800896e-213
-5.2558341e-218
-9.0571916e-224
1.1909922e-228
3.222255e-234
-1.6465119e-239
-3.7232956e-245
-9.0533755e-251
3.2680056e-257
-1.2757015e-07
1.0061307e-17
-7.1217444e-28
6.342069e-38
-9.9962681e-48
4.3957088e-57
-1.487622e-65
-8.8065055e-74
-7.7885957e-82
-2.4477117e-89
-4.8854409e-96
-2.6106825e-102
-1.2314569e-108
-3.7464675e-115
-1.4129182e-121
-5.1438505e-128
-1.9675321e-134
-7.1743246e-141
1.7852666e-147
6.2556833e-153
1.5356596e-157
7.1246581e-162
2.1156477e-167
1.4906442e-172
-7.4015417e-178
3.1789216e-183
-1.11882e-188
-3.5308148e-194
-6.8998106e-200
2.3025333e-204
3.1647187e-210
1.5682509e-214
-6.759617e-219
-1.4856704e-223
-8.0748217e-229
4.2075119e-234
1.1764606e-239
7.8065548e-245
1.2169573e-249
4.2284374e-254
-1.1352659e-07
7.9548126e-18
-4.9860611e-28
3.896347e-38
-5.28705e-48
1.9241498e-57
-4.5614139e-66
-2.6823707e-74
-2.0653725e-82
-5.4466875e-90
-8.7957847e-97
-3.8770345e-103
-1.6379455e-109
-5.7801162e-116
-2.0708071e-122
-6.1345677e-129
-2.3562143e-135
-9.5804467e-142
-1.2845095e-147
9.7047219e-153
1.4697667e-157
2.7166202e-163
2.1334172e-168
-3.5821916e-174
6.3513402e-179
-4.416959e-184
-1.2042017e-189
-1.2537107e-194
-3.1194352e-200
7.9423808e-205
1.3571267e-209
4.5757968e-215
8.1362977e-221
1.7891837e-226
3.1719729e-232
1.6401153e-237
5.9867677e-243
3.0333519e-248
1.6516779e-253
5.2088349e-259
-1.0115161e-07
6.306718e-18
-3.507005e-28
2.4110369e-38
-2.8271236e-48
8.5739539e-58
-1.4813064e-66
-8.9430709e-75
-6.0401328e-83
-1.2945238e-90
-1.6805213e-97
-8.6030411e-104
-3.9212822e-110
-1.3855944e-116
-5.6048072e-123
-1.8669915e-129
-7.5188977e-136
-1.6808685e-142
6.0804608e-149
-5.6601039e-153
3.7823184e-158
1.3195982e-163
4.5363223e-169
-5.3318712e-175
-1.2554324e-180
-1.9553692e-186
-4.26552e-192
-1.0987351e-197
-1.4709711e-202
-2.6199418e-208
-8.1930473e-214
-2.7003168e-219
1.0547407e-224
3.1097099e-230
6.6219413e-236
-3.0488221e-241
-4.230958e-247
-1.1516458e-252
-2.0263708e-258
-1.3844398e-264
-9.0260536e-08
5.0144343e-18
-2.4782929e-28
1.5025343e-38
-1.5278834e-48
3.8861614e-58
-5.0468046e-67
-3.2729535e-75
-1.9535932e-83
-3.4093825e-91
-3.6346332e-98
-1.5896727e-104
-6.3913514e-111
-2.0886505e-117
-6.9710788e-124
-2.7307337e-130
-8.9065438e-137
-3.3261343e-143
-1.5380982e-149
-2.9397318e-155
2.0152692e-160
8.2375238e-166
5.0361767e-171
1.8302686e-176
1.1044387e-181
4.1405675e-185
-1.7462128e-190
-2.0357723e-195
-2.7288398e-201
2.0835762e-205
1.2899241e-210
1.845174e-216
1.4785629e-221
5.0847669e-227
1.1310097e-232
2.5124394e-238
-7.2268262e-243
-1.3846136e-248
-2.263856e-254
-2.3198771e-260
-8.0627185e-08
3.9970119e-18
-1.7587771e-28
9.424842e-39
-8.3386333e-49
1.7885318e-58
-1.7870526e-67
-1.3385019e-75
-7.1405729e-84
-1.0374266e-91
-7.8245516e-99
-3.4092074e-105
-1.6576529e-111
-7.1831591e-118
-2.1921178e-124
-7.7752584e-131
-2.7542498e-137
-8.970165e-144
5.5422104e-150
-2.198263e-153
-1.4718403e-158
-8.5868475e-164
-2.9309385e-169
-1.9383808e-174
-1.4473204e-179
-4.2096264e-185
-1.0330881e-190
-5.261664e-196
5.2687079e-201
2.5740652e-206
1.1749669e-211
4.3858959e-217
1.0752492e-222
2.1739589e-228
5.0751426e-234
8.6623052e-240
1.1308132e-245
-2.688602e-251
-1.7299156e-256
-3.9681837e-262
-7.2098137e-08
3.1936788e-18
-1.2531493e-28
5.948662e-39
-4.5931612e-49
8.3541434e-59
-6.5419133e-68
-6.5215204e-76
-3.1428565e-84
-3.8376275e-92
-2.3019028e-99
-1.2072291e-105
-4.9711001e-112
-1.6919297e-118
-6.7433796e-125
-2.2314002e-131
-5.1897629e-138
-1.1626195e-143
-4.2601392e-149
-7.8164556e-155
-3.411797e-160
-5.3178964e-166
-2.2281327e-171
-8.167482e-176
-6.2974324e-181
3.6150842e-186
-1.1786328e-191
-1.1640034e-196
-5.782356e-202
-1.2253889e-207
-7.6296648e-212
-6.0942428e-217
-2.2419867e-222
-2.580178e-227
2.9517877e-232
2.5646655e-237