/*--------------------------------*- C++ -*----------------------------------*\
  =========                 |
  \\      /  F ield         | OpenFOAM: The Open Source CFD Toolbox
   \\    /   O peration     | Website:  https://openfoam.org
    \\  /    A nd           | Version:  10
     \\/     M anipulation  |
\*---------------------------------------------------------------------------*/
FoamFile
{
    format      ascii;
    class       volScalarField;
    location    "0.29";
    object      TporMedia;
}
// * * * * * * * * * * * * * * * * * * * * * * * * * * * * * * * * * * * * * //

dimensions      [0 0 0 1 0 0 0];

internalField   nonuniform List<scalar> 
4000
(
0.00036820873
0.00021387978
0.00018805352
0.00021981187
0.00019761781
0.00020047683
0.00020057588
0.00019528952
0.00019644869
0.00018547213
0.00019636858
0.0001993765
0.00020650404
0.0001798821
0.00020541319
0.00017496037
0.00018444993
0.00020120224
0.00023598159
0.00019955472
0.00020823943
0.00020499112
0.00021523225
0.00016959345
0.00017813202
0.00019294444
0.0002200793
0.00018955731
0.00023344033
0.00017475609
0.00020312024
0.00021867835
0.00019712175
0.00022390693
0.00018646019
0.00020178978
0.00019306137
0.00019482058
0.00017347202
0.00019645477
0.00017136621
1.2271951e-10
6.6954523e-11
7.5475306e-11
1.0732721e-10
8.3087974e-11
7.9071858e-11
5.9436452e-11
5.7422327e-11
6.195192e-11
7.4035464e-11
6.4698067e-11
6.6608592e-11
5.7327393e-11
6.3623355e-11
5.8151402e-11
5.1720139e-11
5.9372844e-11
9.5281738e-11
6.0320135e-11
6.7133696e-11
6.9710274e-11
6.9145292e-11
6.0973066e-11
5.5102723e-11
7.1082462e-11
7.2957841e-11
6.9784553e-11
8.5547135e-11
8.2965653e-11
6.2276459e-11
7.1477294e-11
7.792402e-11
6.9878304e-11
5.8650162e-11
6.6818876e-11
6.327622e-11
6.6098093e-11
5.556484e-11
7.0841325e-11
0.00013293336
4.0571252e-11
3.4452442e-17
2.2597107e-17
4.0015235e-17
2.9775258e-17
2.6263445e-17
1.9378532e-17
1.9682412e-17
1.9569234e-17
2.2961012e-17
1.9247895e-17
1.9811028e-17
1.7199201e-17
2.1558848e-17
2.0438224e-17
1.7436492e-17
2.1447267e-17
3.0363525e-17
1.8118503e-17
2.2162346e-17
2.3097393e-17
2.3233385e-17
1.991939e-17
1.7897846e-17
2.1091377e-17
2.0437377e-17
2.0810158e-17
3.0600424e-17
2.9191581e-17
2.7972185e-17
2.2578293e-17
2.905711e-17
2.0836218e-17
2.5298342e-17
2.1708378e-17
2.1588179e-17
2.0550997e-17
1.6541252e-17
2.3238583e-17
0.00011247293
2.6638646e-11
1.0759845e-17
1.6332669e-23
1.3209845e-23
9.3469163e-24
8.0472218e-24
5.3144037e-24
6.3808372e-24
6.937048e-24
8.648118e-24
7.0313567e-24
6.6663715e-24
5.4140377e-24
6.8871378e-24
7.9345033e-24
5.9466718e-24
7.3816573e-24
9.6822687e-24
6.8064946e-24
7.1649961e-24
8.4595827e-24
7.5409645e-24
6.5597068e-24
6.4008086e-24
6.8265429e-24
7.0030915e-24
6.6348752e-24
8.7347968e-24
9.1088997e-24
7.5372883e-24
7.4721691e-24
1.0643552e-23
6.2717021e-24
7.7516919e-24
7.0789556e-24
7.7599507e-24
6.3277902e-24
6.067894e-24
7.4317534e-24
9.6343411e-05
1.6324039e-11
8.5014343e-18
3.4704271e-24
4.997704e-30
4.0681393e-30
2.8200905e-30
1.7952133e-30
2.5070458e-30
2.3251023e-30
2.3935784e-30
2.5984336e-30
1.9239992e-30
1.7065411e-30
2.5131439e-30
2.3085536e-30
2.1497733e-30
2.6674051e-30
3.4636921e-30
1.9898343e-30
2.607532e-30
2.6343429e-30
2.4397426e-30
2.2471542e-30
1.905712e-30
2.595708e-30
2.2189565e-30
2.308918e-30
2.4968799e-30
2.5660219e-30
2.7648708e-30
2.2958308e-30
3.4505934e-30
2.6018636e-30
3.0736295e-30
2.1885495e-30
2.5512028e-30
2.0819444e-30
2.3496252e-30
2.5602506e-30
9.072032e-05
1.2126406e-11
5.1330979e-18
2.2055531e-24
7.7597792e-31
1.8226402e-36
9.5041882e-37
6.0884799e-37
7.2478896e-37
8.5693849e-37
8.173845e-37
9.1397643e-37
5.9313729e-37
1.6327686e-36
7.9507244e-37
8.0283419e-37
8.153724e-37
1.1132004e-36
9.2602243e-37
8.2720643e-37
8.7586447e-37
7.3293549e-37
8.4014131e-37
7.5016736e-37
6.8369583e-37
8.4525199e-37
6.8057099e-37
6.964992e-37
7.7981574e-37
8.7374141e-37
9.6407777e-37
7.0696668e-37
1.3261575e-36
7.8305924e-37
8.7305114e-37
7.5182433e-37
7.33612e-37
7.7681357e-37
7.4801102e-37
7.5047446e-37
0.00010494753
1.166844e-11
3.7734065e-18
3.1802118e-24
1.167389e-30
3.8476469e-37
3.676813e-43
1.9810012e-43
2.2153475e-43
2.6894074e-43
2.8128076e-43
3.3995371e-43
2.0067255e-43
1.5874352e-42
2.569789e-43
2.8992341e-43
2.5633286e-43
3.547104e-43
2.6941555e-43
4.3672298e-43
3.2819512e-43
2.1536498e-43
2.7638289e-43
2.2800548e-43
2.4038266e-43
3.1551849e-43
2.2334659e-43
2.7781143e-43
2.6808487e-43
2.9226296e-43
3.7992968e-43
2.5732554e-43
4.1837141e-43
3.0216583e-43
2.9790191e-43
2.4708067e-43
2.4952289e-43
2.7278718e-43
2.4591787e-43
2.5806499e-43
0.00014443236
1.5620961e-11
3.980573e-18
3.14657e-24
1.2835505e-30
3.8136716e-37
1.1793593e-43
1.123723e-49
6.0220751e-50
7.4268199e-50
1.1788657e-49
1.0568037e-49
8.1226379e-50
3.1271931e-48
1.5024462e-49
8.5696758e-50
8.9702635e-50
1.858398e-49
8.3295823e-50
4.3575319e-49
1.3106599e-49
8.8256118e-50
1.0664723e-49
7.5689306e-50
8.1776734e-50
1.0011335e-49
7.2005562e-50
1.0244318e-49
1.1343761e-49
1.3074855e-49
1.2628418e-49
8.9419212e-50
1.3726605e-49
1.1131953e-49
1.0110549e-49
8.1105902e-50
8.5313172e-50
1.1437119e-49
1.0443238e-49
8.3260869e-50
0.00031629588
4.278865e-11
9.3597666e-18
4.2206928e-24
2.0820606e-30
6.617575e-37
3.1423548e-43
1.5049247e-49
1.3988923e-55
3.0208177e-56
3.9749197e-56
3.8629288e-56
2.6350936e-56
4.0137247e-54
1.2467284e-55
3.035964e-56
4.2895194e-56
1.3760328e-55
3.4535003e-56
4.8182445e-55
5.7224788e-56
2.992865e-56
3.5000339e-56
2.6540304e-56
2.9338223e-56
3.098832e-56
2.5275264e-56
3.4932874e-56
5.6515604e-56
4.2633502e-56
3.93485e-56
3.5540613e-56
4.4792142e-56
4.1438496e-56
3.7955121e-56
3.4896022e-56
2.8671694e-56
5.2006306e-56
3.2247625e-56
2.7426068e-56
-0.00047101115
-9.2833254e-11
-1.9512825e-17
-8.5446497e-24
-4.8611619e-30
-1.540775e-36
-4.8694654e-43
-1.6268157e-49
-4.3203794e-56
4.2444571e-63
1.5608739e-62
1.7518351e-62
9.4538556e-63
1.8069116e-59
2.0114122e-61
4.076578e-62
1.5605253e-61
1.364784e-61
1.8353973e-62
6.7648601e-61
1.7233545e-61
1.1257471e-62
1.2560436e-62
1.0810172e-62
8.8339331e-63
1.0857896e-62
7.9885357e-63
1.3787914e-62
2.7257029e-62
1.9198854e-62
1.3132695e-62
1.7440769e-62
1.4269443e-62
1.3741375e-62
2.2819451e-62
1.6840264e-62
-5.0624729e-63
3.2937953e-62
1.5076315e-62
9.1122051e-63
-0.00011386935
2.383557e-10
6.6541806e-17
2.3510838e-23
1.1837149e-29
3.8900431e-36
1.3766121e-42
3.5822781e-49
1.0603444e-55
3.5286821e-62
1.581952e-68
1.2040954e-68
7.1800223e-69
2.1476082e-65
2.4564329e-67
7.966688e-68
2.1787512e-67
2.9806378e-67
1.0965696e-68
6.8417247e-67
2.3606397e-67
6.5829846e-69
4.8436318e-69
6.3394837e-69
3.8005824e-69
4.7537055e-69
4.6028991e-69
7.2039706e-69
1.9955564e-68
1.4890929e-68
5.5523217e-69
1.115402e-68
6.2602149e-69
9.5376516e-69
2.3802926e-68
1.7655676e-68
-1.4085772e-68
2.4995742e-68
8.2098142e-69
2.4549526e-69
-6.203775e-05
8.03328e-12
6.2295505e-18
1.9501788e-24
8.3331299e-31
2.7374575e-37
8.3900105e-44
2.5495822e-50
9.1630632e-57
2.7525478e-63
8.8853056e-70
1.6704023e-74
7.0077428e-75
2.2192556e-71
1.0179403e-72
9.0266052e-74
2.4752188e-73
2.1577799e-73
3.4436084e-74
1.7902208e-72
2.2788021e-73
5.1844927e-75
4.2331162e-75
9.9365075e-75
2.5567251e-75
3.9846699e-75
4.3880164e-75
1.0127234e-74
1.7111402e-74
1.8030986e-74
2.3086454e-75
1.3150906e-74
3.2257568e-75
9.2134761e-75
2.3171283e-74
1.960836e-74
-1.890739e-74
2.1793738e-74
8.027507e-75
7.09005e-76
-3.8637612e-05
2.1589944e-12
-4.8220274e-19
-1.4766457e-25
-4.0360602e-32
-1.3367372e-38
-5.8734751e-45
-1.7216199e-51
-5.3644368e-58
-1.4915475e-64
-4.3237111e-71
-1.512067e-77
9.016676e-81
2.2833785e-77
2.8756844e-78
8.3887751e-80
3.0391261e-79
3.55299e-79
3.9502011e-80
3.9742402e-78
2.3409068e-78
5.7493232e-81
1.9104494e-80
1.2855764e-80
1.8902335e-81
3.8719864e-81
1.926648e-80
1.1298875e-80
2.4939147e-80
3.1498725e-80
1.3299366e-81
1.6680203e-80
1.8622388e-81
1.4209278e-80
2.7918693e-80
2.3458633e-80
-2.0042017e-80
2.0961093e-80
1.5061576e-80
2.3190063e-82
-2.666808e-05
8.3479533e-13
-6.5987097e-20
-2.8732951e-26
-7.4092376e-33
-2.3433898e-39
-7.4703116e-46
-2.2047383e-52
-7.9068359e-59
-2.6325744e-65
-8.5907139e-72
-2.5045583e-78
-8.2545544e-85
3.8109186e-83
6.1407504e-84
6.794878e-86
4.0328617e-85
2.2568505e-84
4.3443866e-86
1.2338584e-83
4.9223124e-84
6.1871453e-87
2.4842227e-86
1.8780527e-86
4.5226803e-87
5.6543716e-87
5.7294594e-86
1.5896898e-86
3.1949254e-86
3.9596999e-86
1.6513404e-87
2.3894231e-86
2.6349254e-87
1.3517082e-86
2.6775394e-86
3.5110716e-86
-9.9662701e-86
1.7869358e-86
1.7362372e-86
7.4585052e-89
-1.9881247e-05
3.9387881e-13
-1.6184815e-20
3.7846367e-26
7.0406684e-33
2.2484099e-39
6.6239667e-46
1.993551e-52
5.9083636e-59
1.9567925e-65
6.140392e-72
2.0290553e-78
6.2797033e-85
5.8411121e-89
7.3689374e-90
1.1742624e-91
6.1441758e-91
7.9861487e-90
5.9180369e-92
2.06989e-89
1.876503e-89
7.5036153e-93
3.5705271e-92
2.6143853e-92
5.0332189e-93
4.4083904e-93
9.1092412e-92
1.6775836e-92
3.5609582e-92
4.2731047e-92
1.6639087e-93
3.2600313e-92
6.2865909e-93
1.3693564e-92
4.8390964e-92
4.4988732e-92
-1.4219011e-91
2.2225621e-92
1.633537e-92
2.0993764e-95
-1.4924857e-05
2.0403137e-13
-4.92192e-21
1.0664953e-27
1.824672e-34
3.9525442e-41
1.258647e-47
4.0753964e-54
1.2942493e-60
3.7350243e-67
1.1929927e-73
3.7627967e-80
1.2005301e-86
3.8888372e-93
6.2270099e-96
1.6582569e-97
1.3937202e-96
1.9883207e-94
6.746617e-98
5.8043651e-95
2.3050232e-95
8.7583641e-99
4.0890596e-98
3.106457e-98
3.167393e-99
4.8148619e-99
1.3132654e-97
1.296033e-98
4.4018367e-98
4.7188482e-98
1.6280828e-99
7.7538615e-98
8.5477428e-99
1.4761303e-98
6.7094551e-98
7.3879382e-98
-1.5102803e-97
1.9955085e-98
3.4963611e-98
6.6703768e-102
-1.1378338e-05
1.1213823e-13
-1.7428342e-21
1.464754e-28
2.0707356e-35
3.7149123e-42
9.6519251e-49
2.749669e-55
8.8251462e-62
2.6970514e-68
8.307899e-75
2.4429388e-81
7.9371645e-88
2.8071354e-94
8.4664766e-101
2.3868489e-103
2.5299122e-102
4.7342327e-100
1.0766166e-103
4.1011408e-101
8.9650037e-101
8.6664386e-105
6.2180315e-104
3.2037979e-104
3.9477888e-105
4.7597976e-105
1.0775967e-103
1.371546e-104
3.5088761e-104
5.2414283e-104
3.2609007e-105
7.4880583e-104
8.1188942e-105
1.5316757e-104
1.1193742e-103
9.223776e-104
-1.4928985e-103
2.7441327e-104
1.275294e-103
1.9593268e-108
-8.8495373e-06
6.5231055e-14
-7.0237306e-22
2.9989327e-29
4.4128146e-36
5.8660856e-43
1.6738631e-49
5.7747978e-56
1.7235331e-62
5.2410316e-69
1.7313288e-75
5.4672024e-82
1.703118e-88
4.8359297e-95
1.7874967e-101
5.9740552e-108
3.4020049e-108
4.9758365e-106
1.4038189e-109
3.5610866e-107
9.2103077e-107
9.9724871e-111
8.4158343e-110
3.736691e-110
4.9194635e-111
3.8649572e-111
7.8115885e-110
1.3825622e-110
3.7363451e-110
1.1139843e-109
5.087102e-111
8.0374197e-110
3.5280661e-110
8.0361042e-110
1.6752071e-109
9.1033213e-110
-1.8400949e-109
2.7644752e-110
3.4365301e-109
8.8193479e-115
-6.981163e-06
3.9157619e-14
-3.0135974e-22
7.9326251e-30
1.1053127e-36
1.1590608e-43
2.5311595e-50
8.1156162e-57
2.772079e-63
8.0726453e-70
2.1419582e-76
5.9345878e-83
1.7634141e-89
5.9174018e-96
1.8190148e-102
7.0185736e-109
5.2103744e-114
6.955879e-112
1.4679912e-115
5.1005385e-113
1.5088879e-112
1.7638494e-116
1.003834e-115
4.0170271e-116
5.569829e-117
5.4178695e-117
8.3801768e-116
1.3824281e-116
3.9562176e-116
1.8045742e-115
8.8502429e-117
7.390045e-116
4.4358348e-116
1.5805672e-115
1.3804585e-115
7.7603276e-116
-3.8400395e-115
1.2606168e-115
6.6820682e-115
4.4323025e-121
-5.6097228e-06
2.4514048e-14
-1.3991043e-22
2.3771893e-30
4.4376251e-37
3.7870814e-44
6.821676e-51
2.277437e-57
5.8829599e-64
1.8184851e-70
5.7771177e-77
1.7840693e-83
5.7879208e-90
1.5032588e-96
3.7433749e-103
7.2753637e-111
-8.918565e-116
8.0083945e-118
2.6607672e-121
7.3775657e-119
2.1931376e-118
2.6216304e-122
1.3283464e-121
4.3055329e-122
6.7998919e-123
6.6528613e-123
1.3791455e-121
1.3242436e-122
6.0380588e-122
2.103832e-121
7.0647151e-123
7.9669957e-122
4.951098e-122
2.0626285e-121
1.5810646e-121
8.1546905e-122
-5.4932652e-121
1.9592629e-121
1.0337715e-120
5.1358444e-127
-4.5684372e-06
1.5781786e-14
-6.804576e-23
7.8445539e-31
4.4440589e-37
3.0641926e-44
4.5155972e-51
1.3740978e-57
5.5555094e-64
1.544842e-70
4.7841535e-77
1.4145251e-83
4.2568146e-90
1.2265326e-96
3.4801569e-103
1.2060559e-109
6.0365181e-116
5.2340001e-122
4.4360873e-127
7.2193995e-125
1.912397e-124
2.7759093e-128
1.092341e-127
5.2820456e-128
5.6152656e-129
7.7634567e-129
1.6825242e-127
1.496249e-128
6.0299835e-128
2.1301369e-127
3.6567108e-128
7.4088015e-128
5.7466437e-128
2.246071e-127
1.9693213e-127
7.9680032e-128
-7.0452285e-127
3.6096234e-127
2.6199475e-126
9.0253859e-133
-3.744533e-06
1.0358753e-14
-3.4451226e-23
2.8218402e-31
-5.7983855e-38
-3.2304134e-45
-3.7036997e-52
-9.6719328e-59
-3.2651486e-65
-9.2653217e-72
-2.8796293e-78
-7.5912706e-85
-2.3156732e-91
-8.760739e-98
-2.5145606e-104
-9.1615352e-111
-3.4430157e-117
-1.374928e-123
-6.9417979e-130
7.1352574e-131
1.3811447e-130
3.7568714e-134
3.3287948e-133
5.4445075e-134
1.6444005e-134
7.2257245e-135
1.7260975e-133
3.1852625e-134
9.5127065e-134
3.8158957e-133
6.2902113e-134
8.6988457e-134
7.397543e-134
2.3521717e-133
2.1261309e-133
7.0235619e-134
-5.5935216e-133
3.4783351e-133
1.1105596e-131
3.820792e-138
-3.0856007e-06
6.9202694e-15
-1.8063991e-23
1.0684372e-31
-7.0204059e-39
-3.3229283e-46
-2.8233059e-53
-7.3829686e-60
-2.4355785e-66
-6.788622e-73
-2.2632398e-79
-7.1661613e-86
-2.2519715e-92
-6.6779159e-99
-2.0710602e-105
-6.9501543e-112
-2.5023638e-118
-1.0730508e-124
-6.1594108e-131
-9.7252343e-138
2.1601528e-136
4.9031496e-140
5.0707015e-139
5.1437045e-140
1.7452079e-140
9.731233e-141
1.7854534e-139
4.0424619e-140
1.6350369e-139
4.1119286e-139
7.9412836e-140
1.1042239e-139
1.2725448e-139
3.9153331e-139
2.2080348e-139
5.6670902e-140
-4.8799582e-139
5.1179303e-139
2.2909213e-137
8.8892489e-144
-2.5724447e-06
4.7182234e-15
-9.7954031e-24
4.3043142e-32
-1.4346784e-39
-6.0465276e-47
-4.3718932e-54
-9.0003058e-61
-3.227097e-67
-9.7779464e-74
-2.8731889e-80
-8.2552222e-87
-2.3781764e-93
-7.1283234e-100
-2.4354596e-106
-6.5104926e-113
-2.4342169e-119
-8.4701532e-126
-3.7490435e-132
-2.5118394e-138
4.0019757e-142
9.1125697e-146
5.2448105e-145
5.4477215e-146
1.6002406e-146
1.0830813e-146
1.7081504e-145
4.1303289e-146
1.8752508e-145
4.8346251e-145
7.5269377e-146
1.3252997e-145
2.1257217e-145
3.8506153e-145
1.804115e-145
1.0182223e-145
-7.1259124e-145
9.7261187e-145
3.3658739e-143
1.1608758e-149
-2.1528633e-06
3.2553685e-15
-5.4401129e-24
1.823627e-32
-3.5901948e-40
-1.3653837e-47
-7.5516677e-55
-1.2548245e-61
-3.7648135e-68
-1.3505852e-74
-4.1155007e-81
-1.2979384e-87
-3.9868006e-94
-1.2785199e-100
-3.6428489e-107
-1.1464713e-113
-3.4779966e-120
-1.0569832e-126
-3.5118205e-133
-1.1618292e-139
-5.1184113e-146
3.1075643e-152
4.8578469e-151
7.6095103e-152
1.4417492e-152
1.1766392e-152
2.0605066e-151
1.4418192e-151
2.1871976e-151
4.7591748e-151
8.3941203e-152
1.4141332e-151
2.4066652e-151
7.4824112e-151
3.1837489e-151
1.2642853e-151
-6.4189388e-151
-4.1917405e-150
1.7229548e-148
4.7197312e-155
-1.8121002e-06
2.2779153e-15
-3.0949294e-24
8.0168545e-33
-1.0160096e-40
-3.7195214e-48
-1.6283344e-55
-2.0372597e-62
-6.6220646e-69
-2.1055738e-75
-6.6928159e-82
-2.3974966e-88
-6.2203527e-95
-1.9436051e-101
-5.2266031e-108
-2.9269775e-115
7.1156705e-121
1.9696595e-126
3.1500967e-132
4.2436189e-138
3.1892223e-144
2.6604167e-150
2.8267576e-156
9.3362499e-158
1.3306281e-158
1.8189466e-158
3.4915414e-157
1.6169355e-157
2.0812783e-157
3.9394173e-157
1.7081461e-157
1.5360413e-157
5.5625163e-157
9.821832e-157
4.9389252e-157
8.5556797e-158
-6.9933333e-157
-1.2827899e-155
5.1718009e-154
1.7337518e-160
-1.5349837e-06
1.6126364e-15
-1.7952017e-24
3.6491971e-33
-3.1252782e-41
-1.1852614e-48
-4.2914409e-56
-4.1612089e-63
-1.189565e-69
-4.5723983e-76
-1.3001923e-82
-3.6598127e-89
-1.0843098e-95
-3.5004377e-102
-9.7757171e-109
-2.8265557e-115
-7.6267162e-122
-2.48672e-128
-9.6918116e-135
-8.1238401e-141
-1.6794124e-146
-3.0008653e-152
-6.3658921e-158
9.8441544e-165
1.2893039e-164
2.5461967e-164
3.7038535e-163
1.3210265e-163
1.6951121e-163
5.1039395e-163
3.5923772e-163
1.3823423e-163
6.4189889e-163
9.3813369e-163
2.8885743e-162
8.2476444e-164
-1.1237283e-162
-2.0405558e-161
9.5458483e-160
3.9004098e-166
-1.3055662e-06
1.1535516e-15
-1.0614327e-24
1.7134774e-33
-1.0414718e-41
-4.5348775e-49
-1.3200254e-56
-1.1174598e-63
-2.9088101e-70
-9.1644377e-77
-2.5262715e-83
-8.8444916e-90
-2.2977664e-96
-6.3529098e-103
-1.943239e-109
-5.7075529e-116
-1.8524581e-122
-5.4028956e-129
-2.2272821e-135
-1.5427337e-141
-1.1332565e-147
-8.9361417e-154
-9.0325609e-160
-1.0939807e-165
1.2639648e-170
2.4361823e-170
3.9127181e-169
1.6053763e-169
1.6044853e-169
7.3013314e-169
6.0445913e-169
1.4947859e-169
6.8364795e-169
1.0289583e-168
6.1309464e-168
8.2701305e-170
-2.7558426e-168
-2.3769923e-167
1.6527039e-165
5.3369905e-172
-1.1159986e-06
8.3400914e-16
-6.3824975e-25
8.2786028e-34
-3.6681594e-42
-2.0708432e-49
-5.2212878e-57
-3.4268156e-64
-9.3942875e-71
-3.2583556e-77
-1.165944e-83
-3.330497e-90
-1.0226812e-96
-3.0961321e-103
-9.905196e-110
-2.9631265e-116
-1.7456161e-122
-1.5201728e-128
-2.526705e-134
-3.0119119e-140
-3.5392855e-146
-6.2223691e-152
-1.7386683e-157
-3.8061201e-163
-6.2897374e-169
-1.5544388e-174
4.0108604e-175
2.8456929e-175
1.7380095e-175
9.6400042e-175
6.437202e-175
1.6783366e-175
8.903888e-175
8.509882e-175
5.913965e-174
9.6967938e-176
-7.1357329e-174
-2.9459131e-173
4.2261298e-171
2.4986049e-177
-9.5766316e-07
6.0791735e-16
-3.8964348e-25
4.0964188e-34
-1.3583713e-42
-1.9538839e-49
-4.1086679e-57
-2.1443347e-64
-4.078984e-71
-1.8905873e-77
-6.3079406e-84
-1.8981601e-90
-6.0885629e-97
-1.9097438e-103
-6.2172239e-110
-2.0221022e-116
-5.8749213e-123
-1.0499144e-129
5.2862805e-137
1.6424029e-141
2.2275057e-147
7.9250967e-153
-7.4626983e-158
-1.0684541e-163
-3.2806712e-169
-3.8670371e-175
-3.470889e-180
3.1633769e-181
2.0565271e-181
8.0264272e-181
6.8859976e-181
1.5008044e-181
1.4473811e-180
9.8861857e-181
6.2893221e-180
1.5635672e-181
-7.3015083e-180
1.3935973e-177
-2.7042574e-176
-6.7661324e-183
-8.2434387e-07
4.4671381e-16
-2.4112247e-25
2.0752426e-34
-5.2326844e-43
5.5363818e-50
1.0272169e-57
4.1859119e-65
7.2409531e-72
2.7763854e-78
9.4846544e-85
3.2599689e-91
1.0353519e-97
2.9715688e-104
1.1584265e-110
3.0453776e-117
8.1818205e-124
-2.8205884e-131
-8.5344088e-136
-1.0855474e-141
-3.1094116e-147
-5.8629101e-153
-7.5027221e-159
-4.527159e-164
-5.6094761e-170
-1.3278776e-175
-1.5168336e-181
2.0405839e-187
3.305049e-187
6.5740047e-187
9.171317e-187
1.4635825e-187
1.9535302e-186
1.1085545e-186
6.8137495e-186
2.5637583e-187
-9.6140985e-186
1.3343104e-182
-5.6828293e-182
-1.5710889e-188
-7.1236236e-07
3.3090213e-16
-1.5113083e-25
1.0713624e-34
-2.0959489e-43
6.3742039e-51
1.0520891e-58
3.51354e-66
4.8867289e-73
1.9209823e-79
7.3175148e-86
2.2844658e-92
8.4523132e-99
2.7955071e-105
7.7575967e-112
3.0800644e-118
1.3076419e-124
1.3525244e-130
4.7476754e-135
7.7459403e-141
1.2569278e-146
1.8486688e-152
2.2198185e-158
8.0341141e-164
4.326103e-168
3.516958e-173
1.0474875e-178
1.1262932e-184
1.1348486e-190
2.0362665e-192
1.0882251e-192
1.7029375e-193
2.4009414e-192
1.0921041e-192
6.8077881e-192
6.4057348e-193
-1.7932628e-191
1.05071e-188
-3.3237255e-187
-1.1515561e-193
-6.1749781e-07
2.468794e-16
-9.5917085e-26
5.6429843e-35
-8.6643652e-44
1.3369507e-51
2.0002412e-59
5.2898548e-67
5.4757458e-74
1.7541698e-80
5.2957592e-87
1.8042224e-93
5.7583272e-100
2.1101144e-106
7.4963373e-113
2.714257e-119
1.3453617e-125
9.8898906e-132
3.0939696e-137
7.3605089e-143
1.4857339e-148
3.2288428e-154
1.0603484e-159
1.4357257e-165
3.7592679e-171
9.0032196e-177
1.5458452e-182
3.0037432e-188
5.4694692e-194
8.9402481e-198
1.5930981e-198
2.4181795e-199
2.8792588e-198
1.288327e-198
1.3370182e-197
7.4571398e-199
-3.3001481e-197
1.6506921e-194
-4.5117165e-193
-2.4495378e-199
-5.36541e-07
1.8525447e-16
-6.1525469e-26
3.0237554e-35
-3.687132e-44
3.4088808e-52
4.770328e-60
1.0657199e-67
9.1263766e-75
2.7782979e-81
1.1716707e-87
4.175683e-94
1.5555195e-100
5.8494124e-107
1.6295248e-113
3.642023e-120
-9.8434084e-126
-2.330754e-131
-4.3950061e-137
-5.5016749e-143
-1.1311589e-148
-1.4306154e-154
-2.1666544e-160
-3.8576829e-166
-1.8087132e-171
-4.974165e-177
-6.3162991e-183
-1.3540884e-188
-2.1256378e-194
4.3268537e-199
3.8282291e-204
4.3501256e-205
1.5872059e-203
2.2718564e-204
1.681877e-203
9.1916501e-205
-1.8677441e-202
2.793456e-200
1.052166e-198
-1.2458994e-206
-4.6759178e-07
1.3986174e-16
-3.9862013e-26
1.646782e-35
-1.6134528e-44
9.8547658e-53
1.307733e-60
2.4349263e-68
1.6029134e-75
4.7652139e-82
1.9138132e-88
7.1705867e-95
2.3814908e-101
8.2810752e-108
3.0938867e-114
1.0686849e-120
3.7410068e-127
1.2921885e-133
2.7387456e-140
-3.7207445e-146
1.3074005e-151
2.212653e-156
4.7496869e-162
2.4248513e-167
4.7381168e-173
9.341001e-179
5.018023e-184
1.0171212e-189
1.2340403e-194
3.2497812e-200
2.0725203e-205
1.4057337e-210
2.3245781e-209
2.6559067e-210
2.1066634e-209
2.2602188e-210
-8.3816602e-208
4.5170948e-206
1.3024643e-203
4.5863834e-210
-4.0864105e-07
1.0627102e-16
-2.6101755e-26
9.1106772e-36
-7.2376799e-45
3.079e-53
4.0927446e-61
6.3628206e-69
3.250407e-76
8.9334262e-83
3.6556853e-89
1.2356911e-95
3.6282531e-102
1.2085603e-108
4.2664443e-115
1.7310093e-121
5.6966753e-128
1.3541521e-134
-1.1712632e-140
3.923008e-146
1.1693409e-150
6.5522319e-156
1.1142819e-161
2.8381565e-167
7.5090756e-173
1.2329917e-178
2.4298133e-184
3.1204922e-190
4.0425442e-196
6.9814438e-202
1.2070402e-207
3.2041725e-213
4.307731e-215
1.2494031e-215
4.2495092e-215
7.6499181e-216
1.6588318e-213
8.0982636e-212
2.2727203e-209
1.3507015e-215
-3.5775451e-07
8.1094724e-17
-1.7223615e-26
5.1066901e-36
-3.3194659e-45
1.0242016e-53
1.4241939e-61
1.8928807e-69
7.8179198e-77
1.8469544e-83
1.1191934e-89
3.439444e-96
1.1338045e-102
4.1147717e-109
1.4935488e-115
5.4403927e-122
3.2782299e-128
4.4873405e-134
1.5188272e-138
3.7350258e-144
1.7189683e-149
1.4723065e-154
1.2389525e-159
1.926993e-165
3.6847961e-171
8.6228395e-177
1.4098438e-182
-3.5986433e-188
-7.8179049e-194
-1.2083761e-198
-3.9824899e-204
-9.9742714e-210
-1.3281936e-215
1.3719283e-222
9.0021042e-221
2.2833677e-221
2.0509544e-219
1.6733821e-217
-8.3379377e-215
-1.3278971e-220
-3.1403425e-07
6.2221673e-17
-1.1467057e-26
2.9016516e-36
-1.5552278e-45
3.5736831e-54
5.5759185e-62
6.3586083e-70
2.1217924e-77
3.5383542e-84
1.363164e-90
5.5443357e-97
2.3279754e-103
8.6317422e-110
3.0237396e-116
9.9569811e-123
3.2974741e-129
-2.4761934e-136
-2.3713623e-141
-5.9206767e-147
3.4446318e-152
-3.2155762e-157
-1.7809165e-162
-2.6906211e-167
-6.7000253e-173
-1.1645904e-178
2.4026057e-184
1.0225279e-189
-2.3176498e-195
-5.7682836e-201
-3.9845026e-206
-8.8896478e-212
-1.406175e-217
-7.7027668e-223
4.482533e-226
2.8473871e-227
3.0105651e-225
1.5529877e-222
4.45976e-219
1.4352322e-225
-2.7613447e-07
4.7942669e-17
-7.6905384e-27
1.6674439e-36
-7.4213178e-46
1.2984655e-54
2.6372506e-62
2.6480061e-70
7.181192e-78
1.0642593e-84
5.4002643e-91
1.6954542e-97
6.461239e-104
2.7759736e-110
9.6243934e-117
3.4154328e-123
6.462226e-130
-8.5173125e-136
-3.1196307e-141
-5.3039404e-147
4.4734641e-153
2.9387156e-158
9.5822662e-164
6.5201231e-168
1.2839337e-173
2.6089677e-179
-9.6673831e-185
-1.7263889e-190
2.4227974e-195
1.7251252e-200
3.1162243e-206
7.6023336e-212
6.5370275e-217
1.5968565e-222
6.029916e-228
8.3357955e-233
3.4562945e-231
-3.3584253e-226
9.7715873e-225
6.6021775e-231
-2.4341493e-07
3.7115453e-17
-5.1973325e-27
9.6993215e-37
-3.6071762e-46
4.8935677e-55
1.8252581e-62
1.6236869e-70
3.5478138e-78
3.8992863e-85
2.2550789e-91
9.8454174e-98
3.9817944e-104
1.3579571e-110
4.5540905e-117
1.5633602e-123
3.2902795e-130
-3.4268791e-136
-3.1798843e-141
9.0172646e-146
5.673488e-151
-9.5712692e-156
-3.6150143e-161
-5.5266061e-167
-1.8480479e-172
-5.9401031e-178
-1.3443544e-183
-2.4619196e-189
-3.3810351e-195
-2.8009319e-201
-4.1770816e-207
-1.409073e-212
-4.0242928e-218
-1.8008351e-223
-4.1315847e-229
1.002262e-234
5.3017738e-237
-1.1750679e-231
4.6200522e-230
9.828413e-237
-2.1488554e-07
2.8829075e-17
-3.5334751e-27
5.6963502e-37
-1.7810077e-46
1.9003092e-55
-3.1423241e-62
-2.512036e-70
-4.5426995e-78
-3.9037944e-85
-2.1836293e-91
-1.0071183e-97
-3.8393436e-104
-1.4682437e-110
-4.0057786e-117
-1.2264247e-123
-4.3384728e-130
-1.394729e-136
-5.1971262e-143
-2.40297e-148
-1.2804456e-153
-3.2047666e-159
-6.345552e-164
-5.1724788e-169
-9.108832e-175
2.3387468e-180
1.0085176e-185
3.0225825e-191
5.7474546e-197
1.4889548e-202
5.9433629e-208
2.5147824e-213
3.6910605e-219
1.5529053e-221
3.9919864e-227
1.2915082e-232
1.3834327e-238
3.867551e-237
7.114567e-235
4.1593154e-241
-1.8999533e-07
2.2483172e-17
-2.4180748e-27
3.3787842e-37
-8.9290083e-47
7.602221e-56
-1.5257611e-63
-1.117642e-71
-1.6757633e-79
-1.1253538e-86
-4.3457814e-93
-2.1319634e-99
-8.748019e-106
-3.2526974e-112
-1.1703961e-118
-3.9106816e-125
-1.2782823e-131
-3.9636813e-138
-1.6300316e-144
4.0366882e-150
-4.4743133e-155
5.1829798e-161
1.4500571e-166
1.648985e-171
1.3589192e-176
1.7619811e-182
1.6879754e-188
-1.9439846e-194
-9.2769667e-200
-2.2764659e-205
1.7910078e-210
3.0418565e-215
-8.1696795e-221
-1.1775451e-225
-2.018929e-230
-3.1877855e-236
-9.1824851e-242
2.2788281e-242
-9.5459988e-241
-5.3633338e-248
-1.6833377e-07
1.7598738e-17
-1.6649157e-27
2.0232693e-37
-4.542067e-47
3.1159199e-56
-2.850865e-64
-1.9319353e-72
-2.4661342e-80
-1.2978021e-87
-3.587251e-94
-1.7715112e-100
-7.6236384e-107
-2.8659034e-113
-1.0199659e-119
-3.7075376e-126
-1.0640644e-132
-2.9079727e-137
7.166544e-142
-2.5509372e-146
-6.7813386e-152
-3.426928e-157
1.5213819e-162
2.6757103e-168
-4.668083e-173
-1.3495254e-177
-6.7636671e-183
-3.2158174e-188
-5.7542538e-194
-1.1922338e-199
-2.0906064e-205
-4.019702e-211
-2.5623389e-216
3.2572781e-221
1.8787625e-226
3.5676241e-232
9.9832991e-237
1.993701e-242
-8.1827018e-246
-5.3876669e-252
-1.4934378e-07
1.3822459e-17
-1.1527765e-27
1.2219996e-37
-2.3409759e-47
1.306816e-56
-7.0620479e-65
-4.5278105e-73
-4.8984665e-81
-2.0808136e-88
-6.221559e-95
-4.3366379e-101
-1.7943706e-107
-6.9139284e-114
-2.2579391e-120
-9.7737832e-127
-3.1311827e-133
-9.2645514e-140
-3.3667843e-146
-1.3641305e-151
1.1517091e-156
-3.6662495e-162
-3.9828828e-168
3.348254e-174
-4.4728113e-178
-8.4429566e-183
-2.7959772e-187
-1.3299081e-192
3.5188632e-198
-5.4626847e-203
-7.2395498e-208
-2.4781662e-213
1.0120893e-218
-2.5639771e-224
-7.7256988e-230
-1.2012931e-235
-3.6203618e-241
-6.6790266e-247
4.6041322e-251
1.6129667e-257
-1.3269159e-07
1.0889016e-17
-8.0233908e-28
7.4408041e-38
-1.2217478e-47
5.5997033e-57
-1.9778173e-65
-1.2281428e-73
-1.133934e-81
-3.7753394e-89
-7.9281872e-96
-3.7518653e-102
-1.4941538e-108
-4.6973919e-115
-1.7452057e-121
-5.0780172e-128
-1.7097045e-134
-8.1966219e-141
-4.2927757e-147
-2.2231291e-152
-5.060659e-158
1.3698842e-163
9.1031946e-169
-3.0877845e-174
-1.0714612e-179
-8.3148087e-185
-2.4293638e-190
-6.4386004e-195
2.0572789e-200
3.7376221e-206
1.0655639e-211
1.3461557e-217
1.1748642e-222
4.2702401e-228
1.112561e-233
1.7555826e-239
6.9003758e-245
1.6690472e-250
4.8398911e-256
4.9347891e-262
-1.1806397e-07
8.6059734e-18
-5.6132117e-28
4.5663332e-38
-6.4524892e-48
2.4457373e-57
-6.0397884e-66
-3.6987982e-74
-2.9674464e-82
-7.9598538e-90
-1.51959e-96
-8.1223285e-103
-3.6720112e-109
-1.3549718e-115
-4.7489527e-122
-1.6327116e-128
-6.44281e-135
-2.2270572e-141
-6.5677787e-148
3.4083733e-154
1.2811461e-159
4.6126968e-165
-1.2188102e-169
-6.0172778e-175
-5.240735e-180
-1.050492e-185
-5.1087285e-191
-9.5561217e-197
-7.4842144e-202
-3.6611471e-205
-2.1438834e-209
1.024759e-214
5.0225344e-220
5.4569615e-226
-4.0174201e-231
-9.8012325e-237
-1.7530141e-242
-2.4084135e-248
-2.5384004e-253
-8.9189574e-259
-1.0519386e-07
6.8207701e-18
-3.9456231e-28
2.8226638e-38
-3.4453633e-48
1.0879052e-57
-1.9580934e-66
-1.2319709e-74
-8.6770933e-83
-1.914422e-90
-2.5264775e-97
-1.3087955e-103
-6.0848973e-110
-2.3352597e-116
-7.5879082e-123
-2.8942701e-129
-1.1362473e-135
-4.1221687e-142
-1.4723371e-148
1.6568165e-155
9.6684405e-161
5.6454336e-166
-1.7214428e-171
-3.7429896e-177
8.1715729e-183
2.3432195e-188
3.7782508e-194
-8.6814268e-200
4.0024517e-205
8.3172756e-211
-5.8651268e-215
5.7403886e-220
1.9859762e-225
7.2211316e-231
4.3671171e-237
-1.155162e-242
-1.4557121e-247
4.6939622e-253
9.7761719e-259
7.6757183e-265
-9.3842901e-08
5.4207225e-18
-2.786213e-28
1.7572619e-38
-1.8593525e-48
4.9226676e-58
-6.6673024e-67
-4.5086045e-75
-2.8020899e-83
-5.0764212e-91
-5.2243348e-98
-3.0498694e-104
-1.6497949e-110
-6.867676e-117
-3.4500292e-123
-1.1375628e-129
-3.4342039e-136
-1.5860343e-142
-2.5448265e-148
1.3260608e-153
-1.1570053e-158
-3.3290205e-164
-1.9261177e-169
3.8986025e-175
1.5597501e-180
1.0608746e-185
2.8940485e-191
5.6908274e-197
1.0315464e-202
2.2619021e-208
1.3129863e-213
4.1112245e-219
-1.4430917e-224
-7.2625759e-230
-1.4438521e-235
-6.9839873e-240
-2.5338799e-245
-4.6523485e-251
-1.1516545e-256
-2.8583189e-262
-8.3812752e-08
4.3193813e-18
-1.9759957e-28
1.1011891e-38
-1.0133101e-48
2.261725e-58
-2.3520549e-67
-1.8478452e-75
-1.028703e-83
-1.5612168e-91
-1.2709526e-98
-5.5724339e-105
-2.7495601e-111
-1.2192457e-117
-4.2833012e-124
-1.4588341e-130
-4.6662381e-137
-1.9043704e-143
-8.9083354e-150
-8.4485104e-156
6.0615421e-162
1.7138791e-167
1.3297069e-172
4.3486251e-178
-6.3234265e-183
-1.7147374e-188
3.4086384e-194
9.8688287e-200
-2.1357509e-205
-3.5947734e-211
9.2798984e-217
2.7580942e-222
5.8758575e-228
1.1938604e-233
3.0893754e-239
8.2219906e-245
-7.5734229e-250
-2.2748034e-255
-7.7879854e-261
-6.8325996e-267
-7.4944388e-08
3.4503535e-18
-1.4072377e-28
6.9444579e-39
-5.5755595e-49
1.0546951e-58
-8.5904406e-68
-8.9490656e-76
-4.4919219e-84
-5.7324011e-92
-3.6344011e-99
-1.321325e-105
-7.5095358e-112
-2.4271971e-118
-9.1108623e-125
-2.8347083e-131
-1.0144602e-137
-4.7378161e-144
2.2721305e-149
-3.2734808e-154
4.3147833e-159
5.5817263e-165
7.4767629e-171
2.1813628e-176
3.1612942e-182
1.3849687e-187
1.7474205e-193
3.7961183e-199
1.0445251e-204
1.3929274e-209
1.8869866e-214
7.8369096e-220
1.6151421e-225
2.1734261e-230
6.1378919e-236
7.018041e-242
2.5903711e-247
4.207174e-253
1.2283266e-258