/*--------------------------------*- C++ -*----------------------------------*\
  =========                 |
  \\      /  F ield         | OpenFOAM: The Open Source CFD Toolbox
   \\    /   O peration     | Website:  https://openfoam.org
    \\  /    A nd           | Version:  10
     \\/     M anipulation  |
\*---------------------------------------------------------------------------*/
FoamFile
{
    format      ascii;
    class       volVectorField;
    location    "0.29";
    object      U;
}
// * * * * * * * * * * * * * * * * * * * * * * * * * * * * * * * * * * * * * //

dimensions      [0 1 -1 0 0 0 0];

internalField   nonuniform List<vector> 
4000
(
(0 0.018637467 0.47773156)
(0 0.023510012 0.50886061)
(0 0.0081668579 0.50052521)
(0 0.0056146165 0.50033634)
(0 0.0042546286 0.50025746)
(0 0.0032549415 0.50016898)
(0 0.0025560837 0.50011969)
(0 0.0020545707 0.50009013)
(0 0.0016765633 0.50006981)
(0 0.0013822184 0.50005539)
(0 0.0011471635 0.50004499)
(0 0.00095505993 0.50003733)
(0 0.00079465358 0.5000316)
(0 0.00065796889 0.50002727)
(0 0.00053917755 0.50002399)
(0 0.00043389909 0.50002151)
(0 0.00033874617 0.50001967)
(0 0.00025101701 0.50001834)
(0 0.00016847906 0.50001744)
(0 8.9210555e-05 0.50001694)
(0 1.1478167e-05 0.50001679)
(0 -6.6369959e-05 0.50001699)
(0 -0.00014599591 0.50001755)
(0 -0.00022916411 0.5000185)
(0 -0.00031785193 0.50001991)
(0 -0.00041438035 0.50002185)
(0 -0.00052158573 0.50002446)
(0 -0.0006430591 0.50002793)
(0 -0.00078349404 0.50003252)
(0 -0.00094921646 0.50003863)
(0 -0.0011490358 0.50004688)
(0 -0.0013956101 0.50005824)
(0 -0.0017076855 0.50007414)
(0 -0.0021156108 0.50009709)
(0 -0.0026752996 0.50013481)
(0 -0.0034688603 0.50020237)
(0 -0.0045610688 0.50027142)
(0 -0.0065852473 0.50043364)
(0 -0.017659686 0.50675409)
(0 -0.013590244 0.47975558)
(0 0.037432709 0.44796925)
(0 0.050955781 0.53232616)
(0 0.021969341 0.5080429)
(0 0.016135658 0.50357319)
(0 0.012416092 0.50242317)
(0 0.0095159542 0.501623)
(0 0.0075206088 0.50115663)
(0 0.006069866 0.50086594)
(0 0.0049645279 0.50066802)
(0 0.0041000624 0.50052903)
(0 0.0034075194 0.50042906)
(0 0.0028399517 0.50035556)
(0 0.0023649858 0.50030067)
(0 0.0019595382 0.50025928)
(0 0.0016066492 0.50022793)
(0 0.001293524 0.50020427)
(0 0.0010102381 0.50018667)
(0 0.00074885419 0.50017399)
(0 0.00050279864 0.50016549)
(0 0.00026640255 0.50016065)
(0 3.4545889e-05 0.50015922)
(0 -0.00019765004 0.50016112)
(0 -0.00043509387 0.50016647)
(0 -0.00068299538 0.50017557)
(0 -0.00094718425 0.50018898)
(0 -0.0012344891 0.50020754)
(0 -0.0015532334 0.50023247)
(0 -0.0019139228 0.50026558)
(0 -0.0023302376 0.5003095)
(0 -0.002820517 0.5003681)
(0 -0.0034101355 0.50044735)
(0 -0.0041354681 0.5005567)
(0 -0.0050495929 0.50071125)
(0 -0.0062323741 0.50093659)
(0 -0.0078326948 0.50129435)
(0 -0.01012634 0.50191048)
(0 -0.013107408 0.50282504)
(0 -0.017426786 0.50608113)
(0 -0.038759531 0.52526814)
(0 -0.027894912 0.45021616)
(0 0.039888313 0.4098205)
(0 0.061428211 0.54930816)
(0 0.031983833 0.52188197)
(0 0.024355573 0.51008057)
(0 0.019193696 0.50658859)
(0 0.014977218 0.50452811)
(0 0.012006769 0.50327144)
(0 0.0097719425 0.50245844)
(0 0.0080364977 0.50190113)
(0 0.0066647891 0.50150877)
(0 0.0055565965 0.50122556)
(0 0.0046423861 0.50101682)
(0 0.0038734206 0.50086067)
(0 0.0032143048 0.50074276)
(0 0.0026387052 0.50065338)
(0 0.0021265694 0.50058587)
(0 0.0016622212 0.50053561)
(0 0.0012330417 0.5004994)
(0 0.00082852458 0.50047508)
(0 0.00043957189 0.50046125)
(0 5.7943181e-05 0.50045716)
(0 -0.00032422206 0.50046259)
(0 -0.00071483143 0.50047787)
(0 -0.0011222634 0.50050388)
(0 -0.0015558619 0.50054218)
(0 -0.0020265208 0.50059513)
(0 -0.0025474374 0.50066625)
(0 -0.0031351437 0.5007606)
(0 -0.0038109685 0.50088558)
(0 -0.0046031506 0.50105212)
(0 -0.0055500437 0.50127674)
(0 -0.0067056268 0.50158558)
(0 -0.0081470997 0.50202075)
(0 -0.0099785493 0.50265066)
(0 -0.01237279 0.50361499)
(0 -0.015717779 0.50519906)
(0 -0.019874098 0.50785376)
(0 -0.025187756 0.51641215)
(0 -0.047418197 0.53912715)
(0 -0.030854137 0.41487926)
(0 0.034791631 0.36172996)
(0 0.063839041 0.55456332)
(0 0.039380551 0.5374714)
(0 0.030083509 0.51849265)
(0 0.024112715 0.51197736)
(0 0.019279679 0.50849953)
(0 0.015736219 0.50626435)
(0 0.012954176 0.50475556)
(0 0.010743588 0.50370456)
(0 0.0089677645 0.50295627)
(0 0.0075136746 0.50241124)
(0 0.0063016543 0.50200698)
(0 0.0052738997 0.50170319)
(0 0.0043871547 0.50147297)
(0 0.0036086038 0.50129797)
(0 0.0029128645 0.50116549)
(0 0.0022798318 0.5010667)
(0 0.0016931466 0.50099544)
(0 0.0011390698 0.50094752)
(0 0.00060562301 0.50092026)
(0 8.1906999e-05 0.50091217)
(0 -0.00044249755 0.50092287)
(0 -0.00097807023 0.50095296)
(0 -0.0015358797 0.50100416)
(0 -0.0021282036 0.50107947)
(0 -0.0027692462 0.50118345)
(0 -0.0034760449 0.50132284)
(0 -0.0042696757 0.5015073)
(0 -0.0051769167 0.50175083)
(0 -0.0062325455 0.50207392)
(0 -0.0074824285 0.50250703)
(0 -0.0089887962 0.50309717)
(0 -0.010839016 0.50391904)
(0 -0.013139647 0.50508902)
(0 -0.016026345 0.5068066)
(0 -0.019901675 0.50946716)
(0 -0.024733501 0.51427451)
(0 -0.031115402 0.52824679)
(0 -0.050321309 0.54407133)
(0 -0.028438975 0.37237902)
(0 0.027424315 0.31484308)
(0 0.062315047 0.55024059)
(0 0.044614782 0.5514677)
(0 0.033982229 0.5274882)
(0 0.027464225 0.51772252)
(0 0.022455284 0.51291994)
(0 0.018636851 0.50973158)
(0 0.015528119 0.50749281)
(0 0.013006108 0.50590014)
(0 0.010941992 0.50474712)
(0 0.0092243913 0.50389638)
(0 0.0077744529 0.50325944)
(0 0.0065321919 0.50277738)
(0 0.0054511841 0.50241001)
(0 0.004495382 0.50212952)
(0 0.0036363213 0.50191645)
(0 0.0028510588 0.50175712)
(0 0.0021206568 0.50164196)
(0 0.0014290224 0.50156439)
(0 0.00076199696 0.50152021)
(0 0.00010661734 0.50150708)
(0 -0.00054954553 0.50152436)
(0 -0.0012189891 0.50157304)
(0 -0.0019148582 0.5016558)
(0 -0.0026516291 0.50177733)
(0 -0.0034458802 0.50194479)
(0 -0.0043172365 0.50216857)
(0 -0.0052895815 0.50246356)
(0 -0.0063926645 0.50285101)
(0 -0.0076642593 0.50336158)
(0 -0.0091526282 0.50403989)
(0 -0.010920206 0.50495249)
(0 -0.013053828 0.50620219)
(0 -0.015657287 0.50794388)
(0 -0.018818436 0.51040391)
(0 -0.022898778 0.51405432)
(0 -0.028179788 0.52114497)
(0 -0.035709927 0.53932617)
(0 -0.050478759 0.54155404)
(0 -0.024086976 0.33055562)
(0 0.019837969 0.2751975)
(0 0.05799024 0.53974643)
(0 0.047364221 0.56256482)
(0 0.036477954 0.53660467)
(0 0.029636408 0.52350725)
(0 0.024676361 0.51740346)
(0 0.020774413 0.51336323)
(0 0.01750987 0.5104448)
(0 0.014814231 0.50832452)
(0 0.012566568 0.50676217)
(0 0.010665357 0.50559319)
(0 0.0090386048 0.50470845)
(0 0.007628696 0.504033)
(0 0.0063897706 0.50351465)
(0 0.0052853708 0.50311667)
(0 0.0042860292 0.50281302)
(0 0.0033675189 0.50258516)
(0 0.0025095052 0.50242001)
(0 0.001694466 0.50230856)
(0 0.00090681634 0.50224497)
(0 0.00013218143 0.50222601)
(0 -0.00064326999 0.50225079)
(0 -0.0014334405 0.50232068)
(0 -0.0022528824 0.50243938)
(0 -0.003117489 0.50261336)
(0 -0.004045245 0.5028524)
(0 -0.0050571236 0.50317064)
(0 -0.0061781882 0.50358807)
(0 -0.0074389865 0.50413288)
(0 -0.0088774447 0.50484501)
(0 -0.010540827 0.50578145)
(0 -0.012487425 0.5070245)
(0 -0.014797451 0.50869733)
(0 -0.017572686 0.51098155)
(0 -0.020867107 0.51411953)
(0 -0.024976992 0.5187296)
(0 -0.030511775 0.52822939)
(0 -0.038633329 0.54872369)
(0 -0.048511265 0.53398249)
(0 -0.019067742 0.29393559)
(0 0.013083249 0.24255455)
(0 0.051799109 0.5252004)
(0 0.047709955 0.57024858)
(0 0.037757536 0.54552511)
(0 0.030850831 0.5292888)
(0 0.026073902 0.52180189)
(0 0.022238289 0.5169982)
(0 0.01895392 0.51347381)
(0 0.016193609 0.51086535)
(0 0.013849551 0.5089129)
(0 0.011835252 0.50743317)
(0 0.010088127 0.5063011)
(0 0.0085555568 0.50542897)
(0 0.0071947934 0.50475462)
(0 0.0059710397 0.50423368)
(0 0.0048554802 0.50383423)
(0 0.0038239297 0.50353329)
(0 0.0028557194 0.50331449)
(0 0.0019327644 0.50316648)
(0 0.0010387846 0.50308186)
(0 0.00015863954 0.50305654)
(0 -0.00072229529 0.50308937)
(0 -0.0016187153 0.50318207)
(0 -0.0025459224 0.50333937)
(0 -0.0035204791 0.50356941)
(0 -0.0045608869 0.50388448)
(0 -0.0056883816 0.50430216)
(0 -0.0069278743 0.5048471)
(0 -0.008309068 0.50555355)
(0 -0.0098680311 0.5064693)
(0 -0.011648956 0.50766149)
(0 -0.013704088 0.50922499)
(0 -0.016102932 0.51129777)
(0 -0.01894078 0.51407917)
(0 -0.022248998 0.51783802)
(0 -0.026268418 0.52346714)
(0 -0.031852113 0.53537472)
(0 -0.039763269 0.55589617)
(0 -0.044896844 0.52282046)
(0 -0.014091462 0.26264128)
(0 0.0077701893 0.21554064)
(0 0.044826159 0.50800971)
(0 0.046256144 0.57438092)
(0 0.038035969 0.55375153)
(0 0.031288481 0.53496079)
(0 0.026768873 0.52603061)
(0 0.02311714 0.52053882)
(0 0.019921117 0.5164887)
(0 0.017182251 0.51344217)
(0 0.014813331 0.51113122)
(0 0.012745926 0.50936016)
(0 0.010927988 0.50799168)
(0 0.0093136157 0.50692819)
(0 0.0078648444 0.50609977)
(0 0.0065499332 0.50545581)
(0 0.0053419288 0.50495947)
(0 0.0042177244 0.50458396)
(0 0.0031571929 0.50431004)
(0 0.0021424357 0.50412425)
(0 0.0011571324 0.5040178)
(0 0.00018597221 0.5039858)
(0 -0.00078589595 0.50402688)
(0 -0.0017733914 0.50414308)
(0 -0.0027919647 0.50434004)
(0 -0.0038581828 0.50462742)
(0 -0.0049903054 0.50501973)
(0 -0.006208947 0.50553758)
(0 -0.0075378425 0.50620956)
(0 -0.0090046717 0.50707501)
(0 -0.010642228 0.50818809)
(0 -0.012490087 0.50962404)
(0 -0.014593381 0.5114879)
(0 -0.017008307 0.51392857)
(0 -0.019816523 0.51715477)
(0 -0.023033987 0.52147957)
(0 -0.02688326 0.52818195)
(0 -0.032355182 0.54221992)
(0 -0.039407729 0.56050118)
(0 -0.040331338 0.50907979)
(0 -0.0097088403 0.23585232)
(0 0.0040050305 0.19355582)
(0 0.037899913 0.48948665)
(0 0.043687857 0.57524014)
(0 0.037564836 0.56084544)
(0 0.03115507 0.54036155)
(0 0.026914945 0.53001185)
(0 0.023514771 0.52390239)
(0 0.020480823 0.51941329)
(0 0.017827081 0.51598861)
(0 0.015489585 0.51335982)
(0 0.01341801 0.5113251)
(0 0.011571008 0.50973857)
(0 0.009910418 0.5084956)
(0 0.0084040095 0.50752052)
(0 0.0070239566 0.50675794)
(0 0.0057459917 0.50616716)
(0 0.0045488366 0.50571832)
(0 0.0034135767 0.50538979)
(0 0.002323102 0.50516637)
(0 0.0012616014 0.50503806)
(0 0.0002141054 0.50499929)
(0 -0.00083396879 0.50504848)
(0 -0.0018972683 0.50518799)
(0 -0.0029908761 0.50542421)
(0 -0.0041308099 0.5057681)
(0 -0.0053344783 0.50623603)
(0 -0.006621197 0.50685111)
(0 -0.0080127714 0.50764514)
(0 -0.009534053 0.50866146)
(0 -0.011213637 0.50995917)
(0 -0.013085385 0.51161956)
(0 -0.015186813 0.51375531)
(0 -0.017560556 0.51652218)
(0 -0.020270757 0.52013121)
(0 -0.023325276 0.52496262)
(0 -0.026966161 0.53273932)
(0 -0.03220777 0.54839032)
(0 -0.037999769 0.56254219)
(0 -0.035418028 0.49378723)
(0 -0.0062012089 0.21324581)
(0 0.0015511766 0.1761328)
(0 0.031500061 0.47076103)
(0 0.040533285 0.57338573)
(0 0.036560017 0.56659891)
(0 0.030638301 0.54537898)
(0 0.02667251 0.53370516)
(0 0.023543808 0.52703298)
(0 0.020710952 0.52218927)
(0 0.018183281 0.51845223)
(0 0.015917329 0.51555216)
(0 0.013878671 0.51328692)
(0 0.012035874 0.51150586)
(0 0.010358643 0.51009995)
(0 0.0088207236 0.50898969)
(0 0.0073985886 0.50811636)
(0 0.0060711269 0.50743642)
(0 0.0048193679 0.5069177)
(0 0.0036260756 0.50653675)
(0 0.0024753762 0.50627698)
(0 0.0013523954 0.50612743)
(0 0.00024291639 0.50608199)
(0 -0.00086697116 0.50613891)
(0 -0.0019912366 0.50630077)
(0 -0.0031441813 0.50657461)
(0 -0.004340842 0.50697241)
(0 -0.0055973244 0.50751203)
(0 -0.0069311703 0.50821848)
(0 -0.0083617644 0.50912599)
(0 -0.0099106717 0.51028086)
(0 -0.011601897 0.51174565)
(0 -0.01346316 0.51360572)
(0 -0.015524525 0.51597853)
(0 -0.017816617 0.51902264)
(0 -0.020386372 0.52294905)
(0 -0.023241029 0.52823471)
(0 -0.026661109 0.53703971)
(0 -0.031571147 0.55365861)
(0 -0.035910343 0.56230587)
(0 -0.030556479 0.47788404)
(0 -0.0035915718 0.19460204)
(0 7.6797111e-05 0.16252413)
(0 0.025870887 0.45259946)
(0 0.037160667 0.5694332)
(0 0.035192461 0.5709894)
(0 0.029878358 0.5499636)
(0 0.026174606 0.53711458)
(0 0.023306629 0.52991323)
(0 0.020688017 0.52478522)
(0 0.018308247 0.52079933)
(0 0.016138941 0.51767533)
(0 0.014158807 0.51521467)
(0 0.012344993 0.51326517)
(0 0.010674421 0.51171559)
(0 0.0091264817 0.51048424)
(0 0.0076819228 0.50951034)
(0 0.0063229411 0.50874851)
(0 0.0050331034 0.50816501)
(0 0.0037971262 0.50773508)
(0 0.0026006672 0.50744112)
(0 0.0014300921 0.50727147)
(0 0.00027224171 0.50721958)
(0 -0.00088581637 0.50728361)
(0 -0.0020570668 0.5074663)
(0 -0.0032547231 0.50777516)
(0 -0.0044925353 0.50822296)
(0 -0.0057850081 0.50882859)
(0 -0.0071476325 0.50961846)
(0 -0.0085971317 0.51062845)
(0 -0.010151644 0.5119068)
(0 -0.01183065 0.51351824)
(0 -0.013655939 0.51555043)
(0 -0.015650725 0.51812312)
(0 -0.017835638 0.52139451)
(0 -0.020243051 0.52557902)
(0 -0.022886551 0.53128167)
(0 -0.026084226 0.54103057)
(0 -0.030575895 0.55793386)
(0 -0.033432745 0.56018738)
(0 -0.025998494 0.46205918)
(0 -0.0017656368 0.17946128)
(0 -0.00071790847 0.15190641)
(0 0.021108569 0.43543376)
(0 0.033820354 0.56393147)
(0 0.033605223 0.57408972)
(0 0.028975924 0.55409471)
(0 0.025520801 0.54026436)
(0 0.022886877 0.53255362)
(0 0.02047898 0.52719315)
(0 0.018254993 0.52301386)
(0 0.016195512 0.51970977)
(0 0.014289811 0.51708758)
(0 0.012522132 0.51499586)
(0 0.01087558 0.51332274)
(0 0.0093345243 0.51198556)
(0 0.0078836841 0.51092255)
(0 0.0065084631 0.51008731)
(0 0.0051949894 0.50944517)
(0 0.0039300394 0.50897053)
(0 0.0027009599 0.50864515)
(0 0.0014955423 0.50845688)
(0 0.00030188623 0.5083989)
(0 -0.00089175452 0.50846926)
(0 -0.0020971708 0.50867084)
(0 -0.0033262872 0.50901147)
(0 -0.0045913802 0.50950442)
(0 -0.0059051963 0.5101693)
(0 -0.0072810702 0.51103337)
(0 -0.0087330356 0.5121335)
(0 -0.010275903 0.513519)
(0 -0.011924986 0.51525572)
(0 -0.013696733 0.51743231)
(0 -0.015608295 0.52016891)
(0 -0.017672138 0.52362144)
(0 -0.019909724 0.5280156)
(0 -0.022347251 0.53410967)
(0 -0.025326463 0.54468093)
(0 -0.029337177 0.56120663)
(0 -0.030798528 0.55658188)
(0 -0.021897662 0.44675091)
(0 -0.00056506701 0.16723634)
(0 -0.0010700323 0.14358232)
(0 0.017203969 0.41947808)
(0 0.030667952 0.55733983)
(0 0.031916228 0.57602105)
(0 0.028005079 0.55776469)
(0 0.024784644 0.54318036)
(0 0.022351014 0.53497689)
(0 0.020139489 0.52941897)
(0 0.0180693 0.52509181)
(0 0.016124075 0.52164606)
(0 0.014301194 0.51889313)
(0 0.012590506 0.5166839)
(0 0.010980151 0.5149068)
(0 0.0094586949 0.51347913)
(0 0.0080143601 0.51233884)
(0 0.0066354931 0.51143919)
(0 0.0053106594 0.51074507)
(0 0.0040286726 0.51023049)
(0 0.0027786108 0.50987682)
(0 0.0015497753 0.50967165)
(0 0.00033163243 0.50960797)
(0 -0.0008862594 0.50968379)
(0 -0.0021143779 0.50990207)
(0 -0.0033632516 0.5102708)
(0 -0.0046436014 0.51080357)
(0 -0.0059663744 0.51152036)
(0 -0.0073427773 0.51244886)
(0 -0.0087842784 0.51362637)
(0 -0.010302617 0.51510262)
(0 -0.01190943 0.51694377)
(0 -0.013616594 0.51923854)
(0 -0.015436104 0.52210615)
(0 -0.017373946 0.52569951)
(0 -0.019444714 0.53026579)
(0 -0.021692095 0.53673041)
(0 -0.024461059 0.54797066)
(0 -0.027956697 0.56352076)
(0 -0.028178274 0.55185108)
(0 -0.018328159 0.43222392)
(0 0.00016857021 0.15738117)
(0 -0.0011531354 0.13700042)
(0 0.014079601 0.40481276)
(0 0.027783518 0.55003257)
(0 0.030213528 0.57693084)
(0 0.027018244 0.56098)
(0 0.024019132 0.54588656)
(0 0.021750926 0.53721001)
(0 0.019714743 0.5314758)
(0 0.017789512 0.52703642)
(0 0.015956741 0.52348163)
(0 0.014219435 0.52062495)
(0 0.012571618 0.51832045)
(0 0.011005351 0.51645754)
(0 0.0095125856 0.51495396)
(0 0.0080845145 0.51374796)
(0 0.0067120692 0.51279289)
(0 0.0053860349 0.51205359)
(0 0.0040971474 0.51150398)
(0 0.0028361709 0.51112531)
(0 0.0015939177 0.51090504)
(0 0.00036124972 0.51083611)
(0 -0.00087092761 0.51091648)
(0 -0.0021117365 0.51114912)
(0 -0.0033702825 0.51154214)
(0 -0.0046557322 0.51210921)
(0 -0.0059772825 0.51287044)
(0 -0.0073441334 0.5138536)
(0 -0.0087654119 0.51509604)
(0 -0.010250136 0.51664736)
(0 -0.011806822 0.51857349)
(0 -0.013443604 0.52096263)
(0 -0.015168314 0.5239321)
(0 -0.016982111 0.52763241)
(0 -0.018896616 0.53234329)
(0 -0.020975661 0.53915804)
(0 -0.023545226 0.55089327)
(0 -0.026516936 0.56495879)
(0 -0.025683246 0.54631277)
(0 -0.015301637 0.41862618)
(0 0.00057340662 0.14943299)
(0 -0.0010855476 0.13172098)
(0 0.011624819 0.39142908)
(0 0.025194894 0.54230337)
(0 0.028555943 0.57697335)
(0 0.026048825 0.56376031)
(0 0.023259638 0.54840583)
(0 0.021125144 0.53928146)
(0 0.019240196 0.53338105)
(0 0.017446863 0.52885567)
(0 0.015720575 0.52521858)
(0 0.014067539 0.52228109)
(0 0.012484676 0.51990074)
(0 0.010966962 0.51796825)
(0 0.0095089645 0.51640216)
(0 0.0081042895 0.51514129)
(0 0.0067460584 0.51413938)
(0 0.0054270074 0.51336151)
(0 0.0041396199 0.51278172)
(0 0.0028762383 0.51238131)
(0 0.0016291243 0.51214776)
(0 0.00039050357 0.512074)
(0 -0.00084739151 0.512158)
(0 -0.0020923475 0.51240271)
(0 -0.0033520822 0.51281621)
(0 -0.0046342735 0.51341215)
(0 -0.0059464814 0.51421054)
(0 -0.0072960825 0.51523904)
(0 -0.008690145 0.51653468)
(0 -0.010135367 0.51814665)
(0 -0.011637717 0.52014028)
(0 -0.013202404 0.52260279)
(0 -0.014834085 0.52564916)
(0 -0.016530683 0.52942928)
(0 -0.018304163 0.53426627)
(0 -0.0202386 0.54140918)
(0 -0.022620531 0.55345639)
(0 -0.025078972 0.56562516)
(0 -0.023376145 0.54023277)
(0 -0.012788481 0.40601951)
(0 0.00075855301 0.14299749)
(0 -0.00094370871 0.12739836)
(0 0.0097208523 0.37926099)
(0 0.022898633 0.53437263)
(0 0.026978675 0.57629365)
(0 0.025115575 0.56613285)
(0 0.022527408 0.55075888)
(0 0.020500345 0.54121892)
(0 0.01874231 0.53515435)
(0 0.017065851 0.53056058)
(0 0.015437648 0.52686226)
(0 0.013864879 0.52386285)
(0 0.012346314 0.52142306)
(0 0.010878998 0.51943512)
(0 0.0094594184 0.51781842)
(0 0.0080830692 0.5165125)
(0 0.0067448641 0.51547166)
(0 0.0054392006 0.5146614)
(0 0.0041601022 0.51405602)
(0 0.0029013415 0.513637)
(0 0.0016565252 0.51339193)
(0 0.00041916417 0.51331377)
(0 -0.00081724842 0.51340049)
(0 -0.0020592298 0.51365503)
(0 -0.0033131922 0.51408538)
(0 -0.0045854352 0.51470504)
(0 -0.0058820374 0.51553381)
(0 -0.0072087713 0.516599)
(0 -0.0085709543 0.51793721)
(0 -0.009973379 0.51959698)
(0 -0.011420018 0.52164285)
(0 -0.012913894 0.52416085)
(0 -0.014457385 0.52726355)
(0 -0.016046642 0.53110305)
(0 -0.017696498 0.53605515)
(0 -0.019509109 0.54350139)
(0 -0.021715037 0.55567742)
(0 -0.023684832 0.5656299)
(0 -0.021285046 0.53382254)
(0 -0.010736188 0.39440339)
(0 0.00080432648 0.13774129)
(0 -0.00077510811 0.12377148)
(0 0.0082550481 0.36821152)
(0 0.020874471 0.52639978)
(0 0.02549963 0.57501955)
(0 0.024227301 0.56812721)
(0 0.021833608 0.55296268)
(0 0.019893697 0.54304707)
(0 0.018239868 0.53681547)
(0 0.016664946 0.53216363)
(0 0.015125343 0.52841994)
(0 0.013627263 0.52537372)
(0 0.012170515 0.52288801)
(0 0.010753539 0.52085652)
(0 0.0093741532 0.51919949)
(0 0.0080292735 0.51785717)
(0 0.006715234 0.51678451)
(0 0.0054278071 0.51594747)
(0 0.0041623367 0.51532071)
(0 0.0029138567 0.51488598)
(0 0.0016771867 0.514631)
(0 0.00044701383 0.51454884)
(0 -0.00078200634 0.51463747)
(0 -0.0020152212 0.51489976)
(0 -0.00325785 0.51534358)
(0 -0.0045149531 0.51598223)
(0 -0.0057913069 0.5168352)
(0 -0.0070913128 0.51792937)
(0 -0.008418845 0.51930077)
(0 -0.0097771863 0.52099723)
(0 -0.01116881 0.52308243)
(0 -0.012595182 0.52564117)
(0 -0.014057162 0.52878389)
(0 -0.015550432 0.53266841)
(0 -0.017094412 0.53773022)
(0 -0.018805447 0.54545115)
(0 -0.020846316 0.55757876)
(0 -0.022361096 0.56507786)
(0 -0.019415071 0.52724403)
(0 -0.0090819954 0.38373731)
(0 0.00076723231 0.13339196)
(0 -0.00060773178 0.1206501)
(0 0.007128217 0.35817178)
(0 0.019094396 0.51849695)
(0 0.024124687 0.57326002)
(0 0.023386481 0.56977273)
(0 0.021182712 0.55503016)
(0 0.019315306 0.54478637)
(0 0.017745589 0.53838274)
(0 0.016257591 0.53367744)
(0 0.014796932 0.52989975)
(0 0.013367227 0.52681844)
(0 0.01196872 0.52429766)
(0 0.010600726 0.52223244)
(0 0.0092619256 0.52054374)
(0 0.0079502592 0.51917247)
(0 0.0066631538 0.51807417)
(0 0.00539749 0.51721532)
(0 0.0041497166 0.51657096)
(0 0.0029159534 0.51612313)
(0 0.0016920866 0.51585973)
(0 0.00047385372 0.51577392)
(0 -0.00074304608 0.5158637)
(0 -0.0019629093 0.51613186)
(0 -0.0031898938 0.51658613)
(0 -0.0044279737 0.51723955)
(0 -0.0056808096 0.51811126)
(0 -0.0069516621 0.51922766)
(0 -0.0082432505 0.5206242)
(0 -0.0095577034 0.52234799)
(0 -0.010896422 0.52446192)
(0 -0.012259828 0.52704958)
(0 -0.013647887 0.53021989)
(0 -0.015056925 0.53414027)
(0 -0.016511934 0.53930999)
(0 -0.01813842 0.54727281)
(0 -0.020024104 0.55918484)
(0 -0.021122244 0.56406377)
(0 -0.017756989 0.52061788)
(0 -0.007761194 0.37395831)
(0 0.00068568129 0.12973415)
(0 -0.00045650033 0.11789893)
(0 0.0062577765 0.34903224)
(0 0.017528279 0.5107406)
(0 0.022851968 0.57110638)
(0 0.022591767 0.57109742)
(0 0.020574911 0.55697073)
(0 0.01877023 0.54645296)
(0 0.017267605 0.53987231)
(0 0.01585324 0.53511391)
(0 0.014462263 0.53130986)
(0 0.013094465 0.52820234)
(0 0.011750071 0.525655)
(0 0.010428881 0.52356396)
(0 0.0091300764 0.52185073)
(0 0.0078523057 0.52045676)
(0 0.0065938088 0.51933813)
(0 0.0053523376 0.51846176)
(0 0.0041252446 0.5178031)
(0 0.0029095643 0.51734446)
(0 0.0017021013 0.51707395)
(0 0.00049950897 0.51698482)
(0 -0.00070159724 0.51707509)
(0 -0.0019045921 0.51734747)
(0 -0.0031127101 0.51780952)
(0 -0.0043289956 0.51847403)
(0 -0.0055561755 0.51935977)
(0 -0.0067965858 0.52049267)
(0 -0.0080520487 0.52190761)
(0 -0.009323845 0.52365108)
(0 -0.010612655 0.52578521)
(0 -0.011918265 0.52839258)
(0 -0.013240234 0.53158144)
(0 -0.014576437 0.53553269)
(0 -0.015957802 0.5408105)
(0 -0.017513371 0.54897849)
(0 -0.019252428 0.56052031)
(0 -0.019973746 0.56267034)
(0 -0.016293541 0.51403156)
(0 -0.0067125743 0.36499289)
(0 0.00058485102 0.12660132)
(0 -0.00032787917 0.11542375)
(0 0.0055779901 0.34068902)
(0 0.016147184 0.50318079)
(0 0.021675202 0.56863431)
(0 0.021839789 0.57212733)
(0 0.020007819 0.55879103)
(0 0.018260051 0.54805904)
(0 0.016810663 0.54129795)
(0 0.015458255 0.5364838)
(0 0.014128431 0.53265803)
(0 0.012816297 0.52953082)
(0 0.011521715 0.52696345)
(0 0.010244686 0.52485284)
(0 0.0089846328 0.52312086)
(0 0.0077406623 0.52170936)
(0 0.0065115978 0.52057482)
(0 0.0052958587 0.51968459)
(0 0.0040915217 0.51901446)
(0 0.0028963763 0.518547)
(0 0.001708001 0.51827052)
(0 0.00052383254 0.51817836)
(0 -0.00065872653 0.51826854)
(0 -0.0018422591 0.51854371)
(0 -0.0030292145 0.51901127)
(0 -0.0042218573 0.51968373)
(0 -0.0054221518 0.52057953)
(0 -0.006631703 0.52172417)
(0 -0.0078516592 0.52315201)
(0 -0.0090827074 0.524909)
(0 -0.010325086 0.52705669)
(0 -0.011578256 0.52967683)
(0 -0.012841745 0.53287806)
(0 -0.014115663 0.5368584)
(0 -0.015436722 0.54224511)
(0 -0.016931784 0.55057811)
(0 -0.018531405 0.56160892)
(0 -0.018914897 0.56096802)
(0 -0.015003898 0.50754652)
(0 -0.0058815369 0.35676437)
(0 0.00048048459 0.12386675)
(0 -0.00022320026 0.11316009)
(0 0.0050383758 0.33304711)
(0 0.014925018 0.4958484)
(0 0.020586146 0.56590625)
(0 0.021126414 0.57288637)
(0 0.019477713 0.56049552)
(0 0.0177841 0.54961343)
(0 0.016377106 0.54267103)
(0 0.01507667 0.53779663)
(0 0.013800365 0.5339514)
(0 0.012538103 0.5308091)
(0 0.011289116 0.52822662)
(0 0.010053403 0.52610127)
(0 0.0088304494 0.52435512)
(0 0.0076196345 0.52293025)
(0 0.0064201817 0.52178345)
(0 0.0052310087 0.52088241)
(0 0.0040507593 0.52020318)
(0 0.0028778344 0.5197286)
(0 0.0017104529 0.51944712)
(0 0.00054670745 0.51935218)
(0 -0.00061533565 0.5194418)
(0 -0.0017775931 0.51971857)
(0 -0.0029418594 0.52018972)
(0 -0.0041097598 0.52086754)
(0 -0.0052826492 0.52177013)
(0 -0.0064615705 0.52292263)
(0 -0.0076471849 0.52435898)
(0 -0.0088397888 0.52612469)
(0 -0.01003939 0.5282809)
(0 -0.011245355 0.53090877)
(0 -0.012457455 0.53411852)
(0 -0.013678509 0.53812854)
(0 -0.014950462 0.54362459)
(0 -0.016392576 0.55207956)
(0 -0.017858709 0.56247268)
(0 -0.017941189 0.55901581)
(0 -0.013866564 0.50120424)
(0 -0.0052214128 0.3491976)
(0 0.00038178729 0.12143561)
(0 -0.00014093492 0.11106458)
(0 0.0046012783 0.32602186)
(0 0.013839103 0.48876068)
(0 0.019576136 0.5629737)
(0 0.020447523 0.57339632)
(0 0.018980387 0.56208709)
(0 0.017340397 0.55112207)
(0 0.015967641 0.54400072)
(0 0.014710818 0.53906058)
(0 0.013481337 0.53519632)
(0 0.012263722 0.53204204)
(0 0.011056353 0.52944805)
(0 0.0098590887 0.52731161)
(0 0.0086713614 0.52555487)
(0 0.0074926893 0.52411995)
(0 0.0063225534 0.52296384)
(0 0.0051602324 0.52205446)
(0 0.0040048049 0.52136812)
(0 0.002855157 0.52088782)
(0 0.0017100274 0.52060216)
(0 0.00056804733 0.52050467)
(0 -0.00057216707 0.52059335)
(0 -0.0017119824 0.52087074)
(0 -0.0028526603 0.52134392)
(0 -0.0039953111 0.52202497)
(0 -0.0051408144 0.52293173)
(0 -0.0062897943 0.52408902)
(0 -0.0074425758 0.52553044)
(0 -0.0085992218 0.52730123)
(0 -0.0097596628 0.52946225)
(0 -0.010923334 0.53209436)
(0 -0.012090454 0.53531068)
(0 -0.013266821 0.53935255)
(0 -0.014498776 0.54495724)
(0 -0.015893113 0.55348895)
(0 -0.017230676 0.56313155)
(0 -0.017046049 0.55686258)
(0 -0.012861102 0.4950314)
(0 -0.0046936573 0.34222186)
(0 0.00029358849 0.1192381)
(0 -7.8173687e-05 0.10910816)
(0 0.0042392826 0.31953916)
(0 0.012870159 0.4819255)
(0 0.018636959 0.55987934)
(0 0.019799415 0.57367709)
(0 0.01851168 0.56356759)
(0 0.016926299 0.55258868)
(0 0.015581932 0.5452942)
(0 0.014361832 0.54028256)
(0 0.013173389 0.53639839)
(0 0.011995794 0.53323402)
(0 0.010826395 0.53063109)
(0 0.0096648042 0.52848629)
(0 0.0085103412 0.52672166)
(0 0.007362568 0.52527929)
(0 0.0062211172 0.52411621)
(0 0.0050855191 0.52320051)
(0 0.0039551778 0.52250865)
(0 0.0028293563 0.52202379)
(0 0.0017072075 0.52173465)
(0 0.00058779752 0.5216348)
(0 -0.00052981297 0.52172225)
(0 -0.0016465456 0.52199948)
(0 -0.0027632342 0.52247343)
(0 -0.0038805849 0.52315603)
(0 -0.0049991167 0.52406489)
(0 -0.0061191519 0.52522459)
(0 -0.0072407989 0.52666851)
(0 -0.0083640043 0.5284417)
(0 -0.0094887252 0.5306049)
(0 -0.010614579 0.53323903)
(0 -0.011742378 0.53646138)
(0 -0.012880998 0.54053819)
(0 -0.014080128 0.54624921)
(0 -0.015429938 0.55481085)
(0 -0.016643068 0.56360344)
(0 -0.01622205 0.55454862)
(0 -0.011969026 0.48904389)
(0 -0.0042673359 0.3357724)
(0 0.00021787131 0.11722358)
(0 -3.1550143e-05 0.10727123)
(0 0.003932822 0.31353483)
(0 0.012001999 0.47534432)
(0 0.017761273 0.55665874)
(0 0.019178976 0.57374702)
(0 0.018067773 0.56493833)
(0 0.016538939 0.55401524)
(0 0.01521901 0.54655695)
(0 0.014030031 0.54146835)
(0 0.012877672 0.53756241)
(0 0.011736056 0.53438896)
(0 0.010601333 0.53177885)
(0 0.0094728046 0.52962765)
(0 0.0083496453 0.52785717)
(0 0.0072313988 0.52640932)
(0 0.0061177716 0.52524111)
(0 0.0050084615 0.52432067)
(0 0.0039031089 0.52362459)
(0 0.0028012631 0.52313612)
(0 0.0017024003 0.52284407)
(0 0.00060593106 0.52274203)
(0 -0.00048873186 0.52282804)
(0 -0.0015821574 0.52310449)
(0 -0.0026748434 0.52357825)
(0 -0.0037671864 0.5242611)
(0 -0.00485944 0.52517049)
(0 -0.0059517186 0.52633081)
(0 -0.0070440051 0.52777532)
(0 -0.0081362142 0.52954903)
(0 -0.0092283958 0.53171265)
(0 -0.010320423 0.53434755)
(0 -0.011413811 0.53757647)
(0 -0.01252046 0.54169171)
(0 -0.013692228 0.54750486)
(0 -0.014999284 0.5560487)
(0 -0.016091589 0.56390435)
(0 -0.015461718 0.55210709)
(0 -0.011174153 0.48324983)
(0 -0.003918214 0.32979111)
(0 0.00015484051 0.11535571)
(0 2.2177252e-06 0.10554015)
(0 0.0036681369 0.30795366)
(0 0.011221108 0.46901433)
(0 0.016942745 0.55334176)
(0 0.018583694 0.5736231)
(0 0.017645323 0.56620039)
(0 0.016175489 0.55540251)
(0 0.014877567 0.54779308)
(0 0.013715205 0.54262271)
(0 0.012594712 0.53869254)
(0 0.011485569 0.5355103)
(0 0.010382586 0.53289415)
(0 0.0092847052 0.53073793)
(0 0.0081909484 0.52896309)
(0 0.007100801 0.52751126)
(0 0.0060139889 0.5263393)
(0 0.0049303135 0.52541537)
(0 0.0038495806 0.52471608)
(0 0.0027715511 0.52422476)
(0 0.0016959477 0.52393026)
(0 0.00062244761 0.5238262)
(0 -0.00044926298 0.52391061)
(0 -0.0015194796 0.52418584)
(0 -0.0025884433 0.52465868)
(0 -0.0036563196 0.5253408)
(0 -0.004723174 0.52624955)
(0 -0.0057889865 0.52740921)
(0 -0.0068536825 0.52885298)
(0 -0.0079172021 0.53062593)
(0 -0.0089797261 0.53278891)
(0 -0.010041429 0.53542406)
(0 -0.011104605 0.53866083)
(0 -0.012184013 0.54281802)
(0 -0.013332422 0.54872705)
(0 -0.014597408 0.55720505)
(0 -0.015572198 0.56404859)
(0 -0.01475802 0.54956536)
(0 -0.010462618 0.47765194)
(0 -0.003627687 0.32422651)
(0 0.0001036659 0.1136086)
(0 2.6049359e-05 0.10390498)
(0 0.0034356354 0.30274832)
(0 0.010516202 0.46292992)
(0 0.016176009 0.5499536)
(0 0.018011598 0.57332119)
(0 0.017241509 0.56735492)
(0 0.015833307 0.55675036)
(0 0.014556139 0.54900554)
(0 0.01341681 0.54374957)
(0 0.012324603 0.53979231)
(0 0.011244901 0.53660106)
(0 0.01017106 0.53397954)
(0 0.0091016211 0.53181922)
(0 0.0080354596 0.53004107)
(0 0.0069719795 0.52858634)
(0 0.0059108894 0.5274117)
(0 0.0048520463 0.52648522)
(0 0.003795366 0.52578353)
(0 0.0027407611 0.52528995)
(0 0.0016881363 0.52499338)
(0 0.00063737072 0.52488745)
(0 -0.00041164257 0.52497016)
(0 -0.0014589927 0.52524385)
(0 -0.0025047295 0.52571525)
(0 -0.0035488526 0.52639595)
(0 -0.0045913004 0.52730323)
(0 -0.0056319752 0.52846133)
(0 -0.0066707926 0.52990349)
(0 -0.0077077564 0.5316749)
(0 -0.0087431947 0.53383667)
(0 -0.0097776104 0.53647213)
(0 -0.01081413 0.53971855)
(0 -0.011870114 0.54392088)
(0 -0.012997958 0.54991756)
(0 -0.0142208 0.55828191)
(0 -0.015081274 0.56404903)
(0 -0.014104617 0.5469461)
(0 -0.0098227051 0.47224921)
(0 -0.0033817125 0.31903343)
(0 6.298847e-05 0.11196376)
(0 4.2393696e-05 0.10235798)
(0 0.0032286386 0.29787826)
(0 0.0098778296 0.45708374)
(0 0.015456547 0.54651561)
(0 0.017461162 0.57285615)
(0 0.016854006 0.56840327)
(0 0.015510012 0.55805814)
(0 0.014253232 0.55019642)
(0 0.013134114 0.54485214)
(0 0.012067158 0.54086473)
(0 0.011014275 0.53766386)