/*--------------------------------*- C++ -*----------------------------------*\
  =========                 |
  \\      /  F ield         | OpenFOAM: The Open Source CFD Toolbox
   \\    /   O peration     | Website:  https://openfoam.org
    \\  /    A nd           | Version:  10
     \\/     M anipulation  |
\*---------------------------------------------------------------------------*/
FoamFile
{
    format      ascii;
    class       volVectorField;
    location    "0.29";
    object      U_0;
}
// * * * * * * * * * * * * * * * * * * * * * * * * * * * * * * * * * * * * * //

dimensions      [0 1 -1 0 0 0 0];

internalField   nonuniform List<vector> 
4000
(
(0 0.018637467 0.47773156)
(0 0.023510013 0.50886061)
(0 0.0081668582 0.50052521)
(0 0.0056146169 0.50033634)
(0 0.0042546291 0.50025746)
(0 0.0032549421 0.50016898)
(0 0.0025560843 0.50011969)
(0 0.0020545714 0.50009013)
(0 0.0016765642 0.50006981)
(0 0.0013822194 0.50005539)
(0 0.0011471647 0.50004499)
(0 0.0009550613 0.50003733)
(0 0.00079465513 0.5000316)
(0 0.00065797061 0.50002727)
(0 0.00053917944 0.50002399)
(0 0.00043390115 0.50002151)
(0 0.0003387484 0.50001967)
(0 0.00025101944 0.50001834)
(0 0.00016848166 0.50001744)
(0 8.9213319e-05 0.50001694)
(0 1.14811e-05 0.50001679)
(0 -6.6366875e-05 0.50001699)
(0 -0.00014599268 0.50001755)
(0 -0.00022916077 0.5000185)
(0 -0.0003178485 0.50001991)
(0 -0.00041437684 0.50002185)
(0 -0.00052158213 0.50002446)
(0 -0.00064305542 0.50002793)
(0 -0.00078349033 0.50003252)
(0 -0.00094921274 0.50003863)
(0 -0.0011490321 0.50004688)
(0 -0.0013956065 0.50005824)
(0 -0.001707682 0.50007414)
(0 -0.0021156074 0.50009709)
(0 -0.0026752964 0.50013481)
(0 -0.0034688573 0.50020237)
(0 -0.0045610662 0.50027142)
(0 -0.0065852449 0.50043364)
(0 -0.017659683 0.50675409)
(0 -0.013590243 0.47975558)
(0 0.037432709 0.44796925)
(0 0.050955781 0.53232616)
(0 0.021969342 0.5080429)
(0 0.016135659 0.50357319)
(0 0.012416093 0.50242317)
(0 0.0095159559 0.501623)
(0 0.0075206109 0.50115663)
(0 0.0060698684 0.50086594)
(0 0.0049645308 0.50066802)
(0 0.0041000657 0.50052903)
(0 0.0034075232 0.50042906)
(0 0.002839956 0.50035556)
(0 0.0023649906 0.50030067)
(0 0.0019595436 0.50025928)
(0 0.0016066551 0.50022793)
(0 0.0012935304 0.50020427)
(0 0.0010102451 0.50018667)
(0 0.00074886175 0.50017399)
(0 0.00050280675 0.50016548)
(0 0.00026641115 0.50016065)
(0 3.4554993e-05 0.50015922)
(0 -0.00019764049 0.50016112)
(0 -0.00043508391 0.50016647)
(0 -0.00068298504 0.50017557)
(0 -0.00094717359 0.50018898)
(0 -0.0012344782 0.50020754)
(0 -0.0015532222 0.50023247)
(0 -0.0019139115 0.50026558)
(0 -0.0023302262 0.5003095)
(0 -0.0028205056 0.5003681)
(0 -0.0034101241 0.50044735)
(0 -0.004135457 0.5005567)
(0 -0.0050495821 0.50071125)
(0 -0.0062323637 0.50093659)
(0 -0.0078326849 0.50129435)
(0 -0.010126331 0.50191048)
(0 -0.0131074 0.50282504)
(0 -0.017426779 0.50608114)
(0 -0.038759524 0.52526814)
(0 -0.027894908 0.45021616)
(0 0.039888313 0.4098205)
(0 0.061428212 0.54930816)
(0 0.031983834 0.52188197)
(0 0.024355574 0.51008057)
(0 0.019193698 0.50658859)
(0 0.014977221 0.50452811)
(0 0.012006772 0.50327144)
(0 0.0097719466 0.50245844)
(0 0.0080365025 0.50190113)
(0 0.0066647947 0.50150877)
(0 0.0055566028 0.50122556)
(0 0.0046423933 0.50101681)
(0 0.0038734287 0.50086067)
(0 0.0032143138 0.50074276)
(0 0.0026387152 0.50065338)
(0 0.0021265802 0.50058587)
(0 0.0016622331 0.5005356)
(0 0.0012330545 0.5004994)
(0 0.00082853828 0.50047507)
(0 0.00043958648 0.50046125)
(0 5.7958614e-05 0.50045716)
(0 -0.00032420586 0.50046259)
(0 -0.00071481449 0.50047787)
(0 -0.0011222458 0.50050388)
(0 -0.0015558438 0.50054218)
(0 -0.0020265022 0.50059513)
(0 -0.0025474184 0.50066625)
(0 -0.0031351244 0.5007606)
(0 -0.0038109491 0.50088558)
(0 -0.0046031311 0.50105212)
(0 -0.0055500243 0.50127674)
(0 -0.0067056078 0.50158558)
(0 -0.0081470812 0.50202075)
(0 -0.0099785314 0.50265066)
(0 -0.012372773 0.50361499)
(0 -0.015717763 0.50519906)
(0 -0.019874084 0.50785376)
(0 -0.025187742 0.51641215)
(0 -0.047418185 0.53912715)
(0 -0.030854132 0.41487927)
(0 0.034791631 0.36172996)
(0 0.063839042 0.55456332)
(0 0.039380553 0.5374714)
(0 0.030083512 0.51849265)
(0 0.024112718 0.51197735)
(0 0.019279683 0.50849952)
(0 0.015736223 0.50626435)
(0 0.012954182 0.50475556)
(0 0.010743595 0.50370456)
(0 0.0089677722 0.50295627)
(0 0.0075136835 0.50241124)
(0 0.0063016644 0.50200697)
(0 0.0052739111 0.50170319)
(0 0.0043871674 0.50147297)
(0 0.0036086178 0.50129797)
(0 0.0029128799 0.50116549)
(0 0.0022798486 0.5010667)
(0 0.0016931648 0.50099543)
(0 0.0011390893 0.50094752)
(0 0.00060564378 0.50092025)
(0 8.1928988e-05 0.50091217)
(0 -0.0004424744 0.50092286)
(0 -0.00097804603 0.50095295)
(0 -0.0015358546 0.50100416)
(0 -0.0021281776 0.50107946)
(0 -0.0027692195 0.50118345)
(0 -0.0034760177 0.50132284)
(0 -0.004269648 0.5015073)
(0 -0.0051768887 0.50175083)
(0 -0.0062325175 0.50207392)
(0 -0.0074824007 0.50250703)
(0 -0.0089887687 0.50309717)
(0 -0.01083899 0.50391904)
(0 -0.013139621 0.50508902)
(0 -0.01602632 0.5068066)
(0 -0.019901651 0.50946716)
(0 -0.02473348 0.51427451)
(0 -0.03111538 0.52824679)
(0 -0.050321292 0.54407134)
(0 -0.028438969 0.37237904)
(0 0.027424316 0.31484307)
(0 0.062315048 0.55024059)
(0 0.044614784 0.5514677)
(0 0.033982232 0.5274882)
(0 0.027464228 0.51772252)
(0 0.022455289 0.51291994)
(0 0.018636857 0.50973158)
(0 0.015528126 0.5074928)
(0 0.013006117 0.50590013)
(0 0.010942002 0.50474712)
(0 0.0092244027 0.50389638)
(0 0.0077744659 0.50325943)
(0 0.0065322067 0.50277738)
(0 0.0054512006 0.50241001)
(0 0.0044954003 0.50212951)
(0 0.0036363413 0.50191644)
(0 0.0028510807 0.50175712)
(0 0.0021206805 0.50164195)
(0 0.0014290479 0.50156439)
(0 0.00076202414 0.50152021)
(0 0.00010664617 0.50150708)
(0 -0.00054951515 0.50152436)
(0 -0.0012189573 0.50157303)
(0 -0.001914825 0.5016558)
(0 -0.0026515949 0.50177733)
(0 -0.0034458449 0.50194479)
(0 -0.0043172004 0.50216857)
(0 -0.0052895449 0.50246356)
(0 -0.0063926275 0.50285101)
(0 -0.0076642223 0.50336158)
(0 -0.0091525913 0.50403989)
(0 -0.01092017 0.50495249)
(0 -0.013053792 0.50620219)
(0 -0.015657253 0.50794388)
(0 -0.018818403 0.51040392)
(0 -0.022898747 0.51405432)
(0 -0.028179759 0.52114498)
(0 -0.035709897 0.53932618)
(0 -0.050478736 0.54155406)
(0 -0.024086969 0.33055566)
(0 0.019837969 0.2751975)
(0 0.057990241 0.53974642)
(0 0.047364224 0.56256482)
(0 0.036477957 0.53660467)
(0 0.029636412 0.52350724)
(0 0.024676366 0.51740346)
(0 0.02077442 0.51336322)
(0 0.017509878 0.51044479)
(0 0.014814241 0.50832452)
(0 0.01256658 0.50676217)
(0 0.010665371 0.50559318)
(0 0.0090386207 0.50470844)
(0 0.0076287141 0.504033)
(0 0.0063897909 0.50351464)
(0 0.0052853933 0.50311666)
(0 0.004286054 0.50281301)
(0 0.003367546 0.50258516)
(0 0.0025095346 0.50242001)
(0 0.0016944977 0.50230856)
(0 0.00090685022 0.50224496)
(0 0.00013221741 0.50222601)
(0 -0.00064323206 0.50225079)
(0 -0.0014334007 0.50232067)
(0 -0.0022528409 0.50243938)
(0 -0.003117446 0.50261336)
(0 -0.0040452008 0.5028524)
(0 -0.0050570783 0.50317064)
(0 -0.0061781422 0.50358807)
(0 -0.0074389399 0.50413288)
(0 -0.008877398 0.50484501)
(0 -0.01054078 0.50578145)
(0 -0.012487379 0.50702451)
(0 -0.014797406 0.50869733)
(0 -0.017572642 0.51098155)
(0 -0.020867065 0.51411953)
(0 -0.024976952 0.5187296)
(0 -0.030511737 0.5282294)
(0 -0.03863329 0.5487237)
(0 -0.048511236 0.53398252)
(0 -0.019067734 0.29393565)
(0 0.013083249 0.24255454)
(0 0.05179911 0.52520039)
(0 0.047709958 0.57024857)
(0 0.037757539 0.54552511)
(0 0.030850835 0.5292888)
(0 0.026073907 0.52180188)
(0 0.022238296 0.5169982)
(0 0.018953929 0.5134738)
(0 0.016193621 0.51086534)
(0 0.013849565 0.5089129)
(0 0.011835268 0.50743316)
(0 0.010088146 0.5063011)
(0 0.0085555782 0.50542896)
(0 0.0071948175 0.50475461)
(0 0.0059710666 0.50423367)
(0 0.0048555099 0.50383422)
(0 0.0038239623 0.50353328)
(0 0.0028557547 0.50331449)
(0 0.0019328026 0.50316647)
(0 0.0010388254 0.50308185)
(0 0.00015868298 0.50305653)
(0 -0.00072224938 0.50308936)
(0 -0.001618667 0.50318206)
(0 -0.0025458721 0.50333937)
(0 -0.0035204269 0.50356941)
(0 -0.0045608331 0.50388448)
(0 -0.0056883264 0.50430216)
(0 -0.0069278182 0.5048471)
(0 -0.0083090112 0.50555355)
(0 -0.009867974 0.5064693)
(0 -0.011648899 0.50766149)
(0 -0.013704031 0.509225)
(0 -0.016102877 0.51129777)
(0 -0.018940726 0.51407917)
(0 -0.022248946 0.51783802)
(0 -0.026268368 0.52346715)
(0 -0.031852065 0.53537473)
(0 -0.03976322 0.55589618)
(0 -0.044896811 0.52282051)
(0 -0.014091453 0.26264136)
(0 0.0077701891 0.21554064)
(0 0.044826159 0.5080097)
(0 0.046256146 0.57438092)
(0 0.038035972 0.55375153)
(0 0.031288485 0.53496078)
(0 0.026768879 0.52603061)
(0 0.023117149 0.52053882)
(0 0.019921127 0.51648869)
(0 0.017182264 0.51344216)
(0 0.014813347 0.51113122)
(0 0.012745945 0.50936015)
(0 0.010928009 0.50799167)
(0 0.0093136403 0.50692818)
(0 0.0078648724 0.50609976)
(0 0.0065499645 0.5054558)
(0 0.0053419635 0.50495945)
(0 0.0042177626 0.50458395)
(0 0.0031572345 0.50431003)
(0 0.0021424806 0.50412424)
(0 0.0011571806 0.50401779)
(0 0.00018602352 0.50398579)
(0 -0.00078584161 0.50402687)
(0 -0.0017733343 0.50414307)
(0 -0.002791905 0.50434003)
(0 -0.0038581208 0.50462741)
(0 -0.0049902413 0.50501972)
(0 -0.0062088813 0.50553757)
(0 -0.0075377755 0.50620956)
(0 -0.0090046039 0.50707501)
(0 -0.010642159 0.50818809)
(0 -0.012490019 0.50962404)
(0 -0.014593313 0.5114879)
(0 -0.017008241 0.51392857)
(0 -0.019816458 0.51715478)
(0 -0.023033924 0.52147958)
(0 -0.0268832 0.52818196)
(0 -0.032355123 0.54221993)
(0 -0.03940767 0.5605012)
(0 -0.0403313 0.50907986)
(0 -0.0097088313 0.23585242)
(0 0.0040050301 0.19355581)
(0 0.037899913 0.48948665)
(0 0.043687858 0.57524014)
(0 0.037564838 0.56084543)
(0 0.031155074 0.54036154)
(0 0.026914951 0.53001184)
(0 0.02351478 0.52390238)
(0 0.020480834 0.51941328)
(0 0.017827095 0.5159886)
(0 0.015489603 0.51335981)
(0 0.013418031 0.51132508)
(0 0.011571032 0.50973856)
(0 0.0099104459 0.50849559)
(0 0.0084040413 0.5075205)
(0 0.0070239923 0.50675793)
(0 0.0057460315 0.50616714)
(0 0.0045488805 0.5057183)
(0 0.0034136246 0.50538977)
(0 0.0023231539 0.50516636)
(0 0.0012616572 0.50503805)
(0 0.00021416501 0.50499928)
(0 -0.00083390557 0.50504847)
(0 -0.0018972017 0.50518798)
(0 -0.0029908064 0.5054242)
(0 -0.0041307374 0.50576809)
(0 -0.0053344034 0.50623603)
(0 -0.00662112 0.50685111)
(0 -0.0080126927 0.50764513)
(0 -0.0095339732 0.50866146)
(0 -0.011213557 0.50995917)
(0 -0.013085305 0.51161956)
(0 -0.015186733 0.51375532)
(0 -0.017560477 0.51652219)
(0 -0.02027068 0.52013122)
(0 -0.023325201 0.52496263)
(0 -0.026966089 0.53273933)
(0 -0.032207698 0.54839033)
(0 -0.0379997 0.56254222)
(0 -0.035417986 0.49378733)
(0 -0.0062011995 0.21324593)
(0 0.0015511761 0.17613279)
(0 0.031500061 0.47076102)
(0 0.040533285 0.57338573)
(0 0.036560018 0.5665989)
(0 0.030638304 0.54537897)
(0 0.026672515 0.53370515)
(0 0.023543816 0.52703297)
(0 0.020710964 0.52218926)
(0 0.018183296 0.51845221)
(0 0.015917348 0.51555215)
(0 0.013878694 0.5132869)
(0 0.012035901 0.51150584)
(0 0.010358674 0.51009993)
(0 0.0088207591 0.50898967)
(0 0.0073986288 0.50811634)
(0 0.0060711719 0.5074364)
(0 0.0048194177 0.50691768)
(0 0.0036261302 0.50653673)
(0 0.0024754355 0.50627696)
(0 0.0013524593 0.50612742)
(0 0.00024298474 0.50608197)
(0 -0.00086689855 0.50613889)
(0 -0.0019911599 0.50630075)
(0 -0.003144101 0.50657459)
(0 -0.0043407583 0.5069724)
(0 -0.0055972377 0.50751202)
(0 -0.0069310812 0.50821847)
(0 -0.0083616732 0.50912598)
(0 -0.009910579 0.51028085)
(0 -0.011601803 0.51174565)
(0 -0.013463066 0.51360572)
(0 -0.015524431 0.51597854)
(0 -0.017816524 0.51902265)
(0 -0.020386282 0.52294906)
(0 -0.023240941 0.52823472)
(0 -0.026661023 0.53703972)
(0 -0.031571061 0.55365862)
(0 -0.035910263 0.56230591)
(0 -0.030556432 0.47788417)
(0 -0.003591562 0.19460219)
(0 7.6796485e-05 0.16252413)
(0 0.025870885 0.45259945)
(0 0.037160666 0.56943319)
(0 0.035192461 0.57098939)
(0 0.02987836 0.54996358)
(0 0.026174611 0.53711457)
(0 0.023306637 0.52991321)
(0 0.020688029 0.5247852)
(0 0.018308262 0.52079931)
(0 0.01613896 0.51767531)
(0 0.014158831 0.51521465)
(0 0.012345022 0.51326515)
(0 0.010674455 0.51171557)
(0 0.009126521 0.51048422)
(0 0.0076819675 0.50951032)
(0 0.0063229914 0.50874849)
(0 0.0050331593 0.50816499)
(0 0.0037971876 0.50773506)
(0 0.0026007342 0.5074411)
(0 0.0014301644 0.50727145)
(0 0.00027231927 0.50721956)
(0 -0.00088573379 0.50728359)
(0 -0.0020569795 0.50746628)
(0 -0.0032546314 0.50777515)
(0 -0.0044924396 0.50822294)
(0 -0.0057849089 0.50882858)
(0 -0.0071475302 0.50961845)
(0 -0.0085970269 0.51062844)
(0 -0.010151537 0.51190679)
(0 -0.011830542 0.51351824)
(0 -0.013655831 0.51555043)
(0 -0.015650617 0.51812313)
(0 -0.017835531 0.52139452)
(0 -0.020242946 0.52557903)
(0 -0.022886449 0.53128169)
(0 -0.026084125 0.54103059)
(0 -0.030575794 0.55793387)
(0 -0.033432653 0.56018744)
(0 -0.025998443 0.46205935)
(0 -0.0017656265 0.17946146)
(0 -0.0007179092 0.15190641)
(0 0.021108566 0.43543376)
(0 0.033820351 0.56393146)
(0 0.033605221 0.5740897)
(0 0.028975925 0.5540947)
(0 0.025520805 0.54026434)
(0 0.022886884 0.5325536)
(0 0.020478991 0.52719313)
(0 0.018255008 0.52301384)
(0 0.016195532 0.51970975)
(0 0.014289837 0.51708755)
(0 0.012522163 0.51499584)
(0 0.010875617 0.51332271)
(0 0.0093345673 0.51198554)
(0 0.0078837334 0.51092252)
(0 0.0065085188 0.51008728)
(0 0.0051950515 0.50944514)
(0 0.003930108 0.5089705)
(0 0.0027010348 0.50864512)
(0 0.0014956235 0.50845686)
(0 0.00030197352 0.50839887)
(0 -0.00089166138 0.50846924)
(0 -0.0020970722 0.50867082)
(0 -0.0033261833 0.50901145)
(0 -0.0045912717 0.5095044)
(0 -0.0059050835 0.51016928)
(0 -0.0072809538 0.51103336)
(0 -0.0087329162 0.51213349)
(0 -0.010275781 0.513519)
(0 -0.011924863 0.51525572)
(0 -0.013696609 0.51743231)
(0 -0.015608171 0.52016892)
(0 -0.017672015 0.52362146)
(0 -0.019909603 0.52801561)
(0 -0.022347133 0.53410969)
(0 -0.025326346 0.54468095)
(0 -0.029337059 0.56120664)
(0 -0.030798424 0.55658197)
(0 -0.021897606 0.44675114)
(0 -0.0005650561 0.16723654)
(0 -0.0010700331 0.14358232)
(0 0.017203965 0.41947808)
(0 0.030667946 0.55733982)
(0 0.031916224 0.57602103)
(0 0.028005078 0.55776467)
(0 0.024784646 0.54318034)
(0 0.02235102 0.53497687)
(0 0.020139499 0.52941894)
(0 0.018069315 0.52509178)
(0 0.016124096 0.52164603)
(0 0.014301221 0.5188931)
(0 0.012590539 0.51668387)
(0 0.010980191 0.51490677)
(0 0.0094587415 0.51347909)
(0 0.0080144138 0.5123388)
(0 0.0066355542 0.51143915)
(0 0.0053107279 0.51074503)
(0 0.0040287485 0.51023045)
(0 0.002778694 0.50987679)
(0 0.0015498658 0.50967161)
(0 0.00033173 0.50960794)
(0 -0.00088615506 0.50968376)
(0 -0.0021142671 0.50990204)
(0 -0.0033631348 0.51027077)
(0 -0.0046434791 0.51080355)
(0 -0.0059662471 0.51152034)
(0 -0.0073426457 0.51244884)
(0 -0.0087841432 0.51362636)
(0 -0.010302479 0.51510261)
(0 -0.01190929 0.51694376)
(0 -0.013616453 0.51923855)
(0 -0.015435963 0.52210616)
(0 -0.017373806 0.52569953)
(0 -0.019444575 0.53026581)
(0 -0.021691959 0.53673043)
(0 -0.024460923 0.54797068)
(0 -0.027956561 0.56352079)
(0 -0.028178157 0.55185121)
(0 -0.018328098 0.4322242)
(0 0.00016858179 0.15738141)
(0 -0.0011531363 0.13700043)
(0 0.014079596 0.40481276)
(0 0.027783509 0.55003256)
(0 0.03021352 0.57693082)
(0 0.027018239 0.56097998)
(0 0.024019131 0.54588654)
(0 0.02175093 0.53720999)
(0 0.019714751 0.53147577)
(0 0.017789527 0.52703639)
(0 0.015956762 0.52348159)
(0 0.014219463 0.52062491)
(0 0.012571652 0.51832041)
(0 0.011005393 0.51645749)
(0 0.0095126356 0.51495391)
(0 0.0080845727 0.51374791)
(0 0.0067121357 0.51279284)
(0 0.0053861099 0.51205355)
(0 0.004097231 0.51150394)
(0 0.0028362629 0.51112527)
(0 0.001594018 0.510905)
(0 0.00036135813 0.51083606)
(0 -0.00087081135 0.51091644)
(0 -0.0021116128 0.51114909)
(0 -0.0033701518 0.51154211)
(0 -0.0046555951 0.51210918)
(0 -0.0059771396 0.51287041)
(0 -0.0073439853 0.51385358)
(0 -0.0087652595 0.51509602)
(0 -0.01024998 0.51664735)
(0 -0.011806664 0.51857349)
(0 -0.013443444 0.52096263)
(0 -0.015168154 0.52393211)
(0 -0.016981951 0.52763242)
(0 -0.018896459 0.53234331)
(0 -0.020975505 0.53915806)
(0 -0.023545069 0.55089328)
(0 -0.026516781 0.56495882)
(0 -0.025683117 0.54631293)
(0 -0.01530157 0.41862652)
(0 0.00057341887 0.14943326)
(0 -0.0010855486 0.13172098)
(0 0.011624812 0.39142909)
(0 0.025194882 0.54230336)
(0 0.028555931 0.57697334)
(0 0.026048816 0.56376028)
(0 0.023259634 0.54840581)
(0 0.021125145 0.53928142)
(0 0.019240203 0.53338102)
(0 0.017446876 0.52885563)
(0 0.015720595 0.52521854)
(0 0.014067567 0.52228105)
(0 0.012484712 0.51990069)
(0 0.010967007 0.5179682)
(0 0.0095090178 0.51640211)
(0 0.0081043521 0.51514123)
(0 0.0067461305 0.51413932)
(0 0.0054270891 0.51336146)
(0 0.0041397114 0.51278166)
(0 0.0028763393 0.51238126)
(0 0.0016292349 0.51214771)
(0 0.00039062348 0.51207395)
(0 -0.0008472626 0.51215795)
(0 -0.00209221 0.51240266)
(0 -0.0033519366 0.51281617)
(0 -0.0046341205 0.51341211)
(0 -0.0059463216 0.51421051)
(0 -0.0072959167 0.51523901)
(0 -0.008689974 0.51653466)
(0 -0.010135192 0.51814664)
(0 -0.011637539 0.52014027)
(0 -0.013202224 0.52260279)
(0 -0.014833904 0.52564917)
(0 -0.016530502 0.5294293)
(0 -0.018303984 0.53426629)
(0 -0.020238422 0.5414092)
(0 -0.022620352 0.5534564)
(0 -0.025078795 0.56562521)
(0 -0.023376001 0.54023298)
(0 -0.012788407 0.40601991)
(0 0.00075856586 0.1429978)
(0 -0.0009437098 0.12739837)
(0 0.0097208429 0.379261)
(0 0.022898617 0.53437262)
(0 0.026978658 0.57629363)
(0 0.025115561 0.56613282)
(0 0.0225274 0.55075885)
(0 0.020500342 0.54121888)
(0 0.018742314 0.53515431)
(0 0.017065862 0.53056053)
(0 0.015437667 0.52686221)
(0 0.013864906 0.5238628)
(0 0.01234635 0.52142301)
(0 0.010879045 0.51943506)
(0 0.0094594747 0.51781835)
(0 0.008083136 0.51651243)
(0 0.0067449417 0.5154716)
(0 0.0054392891 0.51466134)
(0 0.0041602017 0.51405595)
(0 0.002901452 0.51363694)
(0 0.0016566466 0.51339186)
(0 0.00041929623 0.51331371)
(0 -0.00081710603 0.51340044)
(0 -0.0020590776 0.51365498)
(0 -0.0033130307 0.51408533)
(0 -0.004585265 0.51470499)
(0 -0.0058818593 0.51553377)
(0 -0.0072085862 0.51659897)
(0 -0.0085707632 0.51793718)
(0 -0.0099731829 0.51959696)
(0 -0.011419818 0.52164284)
(0 -0.012913692 0.52416085)
(0 -0.01445718 0.52726356)
(0 -0.016046438 0.53110306)
(0 -0.017696296 0.53605517)
(0 -0.019508907 0.54350141)
(0 -0.021714833 0.55567743)
(0 -0.023684633 0.56562996)
(0 -0.021284887 0.5338228)
(0 -0.010736107 0.39440388)
(0 0.00080433987 0.13774164)
(0 -0.00077510929 0.1237715)
(0 0.0082550364 0.36821154)
(0 0.02087445 0.52639978)
(0 0.025499606 0.57501953)
(0 0.024227281 0.56812717)
(0 0.021833594 0.55296264)
(0 0.01989369 0.54304703)
(0 0.018239868 0.53681542)
(0 0.016664954 0.53216358)
(0 0.01512536 0.52841988)
(0 0.013627289 0.52537366)
(0 0.012170551 0.52288794)
(0 0.010753586 0.52085645)
(0 0.0093742124 0.51919941)
(0 0.0080293445 0.5178571)
(0 0.0067153172 0.51678443)
(0 0.0054279026 0.51594739)
(0 0.0041624447 0.51532064)
(0 0.0029139772 0.5148859)
(0 0.0016773194 0.51463093)
(0 0.00044715876 0.51454877)
(0 -0.00078184966 0.5146374)
(0 -0.0020150532 0.5148997)
(0 -0.0032576713 0.51534352)
(0 -0.0045147645 0.51598218)
(0 -0.0057911092 0.51683516)
(0 -0.007091107 0.51792933)
(0 -0.0084186321 0.51930073)
(0 -0.0097769674 0.5209972)
(0 -0.011168586 0.52308241)
(0 -0.012594955 0.52564117)
(0 -0.014056933 0.52878389)
(0 -0.015550203 0.53266843)
(0 -0.017094183 0.53773025)
(0 -0.018805219 0.54545117)
(0 -0.020846084 0.55757878)
(0 -0.022360872 0.56507795)
(0 -0.019414895 0.52724436)
(0 -0.0090819073 0.38373787)
(0 0.00076724623 0.13339235)
(0 -0.00060773305 0.12065012)
(0 0.0071282028 0.35817181)
(0 0.019094369 0.51849696)
(0 0.024124656 0.57326)
(0 0.023386454 0.5697727)
(0 0.021182692 0.55503011)
(0 0.019315293 0.54478632)
(0 0.017745585 0.53838268)
(0 0.016257596 0.53367738)
(0 0.014796946 0.52989968)
(0 0.013367252 0.52681837)
(0 0.011968756 0.52429758)
(0 0.010600775 0.52223236)
(0 0.0092619873 0.52054365)
(0 0.0079503341 0.51917238)
(0 0.0066632424 0.51807408)
(0 0.0053975926 0.51721523)
(0 0.0041498333 0.51657087)
(0 0.0029160842 0.51612304)
(0 0.0016922314 0.51585964)
(0 0.00047401222 0.51577384)
(0 -0.00074287422 0.51586362)
(0 -0.0019627246 0.51613179)
(0 -0.0031896969 0.51658606)
(0 -0.0044277654 0.51723949)
(0 -0.0056805907 0.5181112)
(0 -0.0069514338 0.51922761)
(0 -0.0082430138 0.52062416)
(0 -0.0095574597 0.52234797)
(0 -0.010896172 0.5244619)
(0 -0.012259574 0.52704957)
(0 -0.013647631 0.53021989)
(0 -0.015056667 0.53414029)
(0 -0.016511677 0.53931002)
(0 -0.018138162 0.54727283)
(0 -0.020023842 0.55918485)
(0 -0.021121994 0.56406389)
(0 -0.017756795 0.52061828)
(0 -0.0077610975 0.37395897)
(0 0.00068569567 0.12973459)
(0 -0.00045650167 0.11789896)
(0 0.0062577594 0.3490323)
(0 0.017528247 0.51074062)
(0 0.022851929 0.57110635)
(0 0.022591731 0.57109738)
(0 0.020574883 0.55697068)
(0 0.01877021 0.5464529)
(0 0.017267594 0.53987224)
(0 0.015853239 0.53511383)
(0 0.014462273 0.53130978)
(0 0.013094488 0.52820225)
(0 0.011750106 0.5256549)
(0 0.01042893 0.52356386)
(0 0.00913014 0.52185063)
(0 0.0078523843 0.52045666)
(0 0.0065939028 0.51933802)
(0 0.0053524473 0.51846166)
(0 0.0041253702 0.517803)
(0 0.0029097059 0.51734436)
(0 0.0017022586 0.51707385)
(0 0.00049968183 0.51698473)
(0 -0.00070140924 0.51707499)
(0 -0.0019043894 0.51734738)
(0 -0.0031124936 0.51780944)
(0 -0.0043287659 0.51847395)
(0 -0.0055559338 0.5193597)
(0 -0.0067963332 0.52049261)
(0 -0.0080517863 0.52190756)
(0 -0.0093235744 0.52365104)
(0 -0.010612377 0.52578519)
(0 -0.011917982 0.52839257)
(0 -0.013239948 0.53158144)
(0 -0.014576149 0.5355327)
(0 -0.015957514 0.54081052)
(0 -0.01751308 0.5489785)
(0 -0.019252134 0.56052033)
(0 -0.019973466 0.56267049)
(0 -0.016293327 0.51403204)
(0 -0.0067124685 0.36499365)
(0 0.00058486583 0.12660181)
(0 -0.00032788062 0.11542378)
(0 0.0055779698 0.34068909)
(0 0.016147145 0.50318083)
(0 0.021675153 0.56863429)
(0 0.021839743 0.57212728)
(0 0.020007782 0.55879097)
(0 0.018260023 0.54805898)
(0 0.016810645 0.54129787)
(0 0.015458248 0.53648372)
(0 0.014128436 0.53265794)
(0 0.012816316 0.52953072)
(0 0.011521748 0.52696335)
(0 0.010244735 0.52485273)
(0 0.008984698 0.52312075)
(0 0.0077407443 0.52170924)
(0 0.006511697 0.5205747)
(0 0.0052959757 0.51968447)
(0 0.0040916565 0.51901434)
(0 0.002896529 0.51854688)
(0 0.0017081715 0.5182704)
(0 0.00052402055 0.51817824)
(0 -0.00065852139 0.51826843)
(0 -0.0018420374 0.51854361)
(0 -0.0030289769 0.51901117)
(0 -0.0042216048 0.51968364)
(0 -0.0054218855 0.52057945)
(0 -0.006631424 0.5217241)
(0 -0.007851369 0.52315195)
(0 -0.0090824075 0.52490895)
(0 -0.010324778 0.52705666)
(0 -0.011577942 0.52967682)
(0 -0.012841426 0.53287806)
(0 -0.014115342 0.53685842)
(0 -0.015436399 0.54224514)
(0 -0.016931457 0.55057812)
(0 -0.018531075 0.56160895)
(0 -0.018914586 0.56096821)
(0 -0.015003663 0.50754709)
(0 -0.0058814211 0.35676524)
(0 0.00048049981 0.1238673)
(0 -0.00022320179 0.11316014)
(0 0.0050383518 0.3330472)
(0 0.01492497 0.49584845)
(0 0.020586086 0.56590623)
(0 0.021126356 0.57288632)
(0 0.019477664 0.56049545)
(0 0.017784062 0.54961335)
(0 0.016377079 0.54267094)
(0 0.015076656 0.53779653)
(0 0.013800365 0.53395129)
(0 0.012538118 0.53080899)
(0 0.011289146 0.5282265)
(0 0.010053451 0.52610114)
(0 0.0088305155 0.52435499)
(0 0.0076197195 0.52293012)
(0 0.006420286 0.52178332)
(0 0.0052311328 0.52088227)
(0 0.0040509034 0.52020304)
(0 0.0028779987 0.51972846)
(0 0.0017106371 0.51944698)
(0 0.00054691142 0.51935205)
(0 -0.00061511233 0.51944167)
(0 -0.0017773509 0.51971845)
(0 -0.0029415993 0.52018961)
(0 -0.0041094828 0.52086743)
(0 -0.0052823564 0.52177004)
(0 -0.0064612632 0.52292255)
(0 -0.0076468646 0.52435891)
(0 -0.0088394571 0.52612463)
(0 -0.010039049 0.52828086)
(0 -0.011245006 0.53090874)
(0 -0.0124571 0.53411852)
(0 -0.01367815 0.53812856)
(0 -0.0149501 0.54362461)
(0 -0.01639221 0.55207957)
(0 -0.017858339 0.56247272)
(0 -0.017940844 0.55901605)
(0 -0.013866307 0.50120492)
(0 -0.0052212863 0.3491986)
(0 0.00038180294 0.12143623)
(0 -0.00014093655 0.11106464)
(0 0.0046012503 0.32602198)
(0 0.013839046 0.48876075)
(0 0.019576064 0.56297369)
(0 0.02044745 0.57339626)
(0 0.018980325 0.56208701)
(0 0.017340347 0.55112198)
(0 0.015967604 0.54400062)
(0 0.014710795 0.53906047)
(0 0.01348133 0.5351962)
(0 0.012263731 0.5320419)
(0 0.01105638 0.52944791)
(0 0.009859135 0.52731147)
(0 0.0086714278 0.52555472)
(0 0.0074927766 0.5241198)
(0 0.0063226624 0.52296368)
(0 0.0051603635 0.5220543)
(0 0.0040049585 0.52136796)
(0 0.0028553332 0.52088766)
(0 0.0017102262 0.52060201)
(0 0.00056826804 0.52050451)
(0 -0.00057192454 0.52059321)
(0 -0.0017117185 0.5208706)
(0 -0.0028523762 0.52134379)
(0 -0.0039950078 0.52202484)
(0 -0.0051404931 0.52293162)
(0 -0.0062894563 0.52408892)
(0 -0.0074422228 0.52553036)
(0 -0.0085988556 0.52730117)
(0 -0.0097592854 0.5294622)
(0 -0.010922947 0.53209433)
(0 -0.01209006 0.53531067)
(0 -0.013266423 0.53935256)
(0 -0.014498373 0.54495726)
(0 -0.015892703 0.55348896)
(0 -0.017230262 0.5631316)
(0 -0.017045666 0.55686288)
(0 -0.012860819 0.4950322)
(0 -0.0046935192 0.34222299)
(0 0.00029360457 0.11923878)
(0 -7.8175402e-05 0.10910824)
(0 0.0042392503 0.31953932)
(0 0.012870093 0.4819256)
(0 0.018636871 0.55987934)
(0 0.019799326 0.57367702)
(0 0.018511603 0.5635675)
(0 0.016926235 0.55258858)
(0 0.015581883 0.54529408)
(0 0.014361798 0.54028243)
(0 0.013173373 0.53639825)
(0 0.011995796 0.53323387)
(0 0.010826417 0.53063093)
(0 0.0096648475 0.52848612)
(0 0.008510407 0.52672149)
(0 0.0073626572 0.52527911)
(0 0.0062212306 0.52411603)
(0 0.0050856573 0.52320032)
(0 0.0039553411 0.52250846)
(0 0.0028295448 0.52202361)
(0 0.0017074214 0.52173447)
(0 0.00058803594 0.52163462)
(0 -0.00052955005 0.52172208)
(0 -0.0016462585 0.52199931)
(0 -0.0027629244 0.52247328)
(0 -0.0038802533 0.52315589)
(0 -0.0049987646 0.52406477)
(0 -0.0061187809 0.52522448)
(0 -0.0072404107 0.52666841)
(0 -0.0083636007 0.52844162)
(0 -0.0094883085 0.53060484)
(0 -0.010614151 0.53323899)
(0 -0.011741942 0.53646137)
(0 -0.012880555 0.54053819)
(0 -0.014079679 0.54624922)
(0 -0.015429481 0.55481085)
(0 -0.016642608 0.56360351)
(0 -0.016221627 0.55454899)
(0 -0.011968716 0.48904482)
(0 -0.0042671853 0.33577368)
(0 0.00021788783 0.11722433)
(0 -3.1551965e-05 0.10727132)
(0 0.0039327848 0.31353502)
(0 0.012001922 0.47534445)
(0 0.017761169 0.55665875)
(0 0.019178869 0.57374695)
(0 0.018067677 0.56493822)
(0 0.016538859 0.55401513)
(0 0.015218946 0.54655682)
(0 0.014029985 0.5414682)
(0 0.012877645 0.53756226)
(0 0.01173605 0.53438879)
(0 0.010601349 0.53177867)
(0 0.009472844 0.52962746)
(0 0.0083497097 0.52785698)
(0 0.0072314893 0.52640912)
(0 0.006117889 0.5252409)
(0 0.0050086064 0.52432046)
(0 0.0039032819 0.52362437)
(0 0.0028014642 0.52313591)
(0 0.0017026299 0.52284386)
(0 0.00060618824 0.52274183)
(0 -0.00048844722 0.52282784)
(0 -0.0015818456 0.5231043)
(0 -0.0026745061 0.52357807)
(0 -0.0037668244 0.52426093)
(0 -0.0048590548 0.52517034)
(0 -0.0059513119 0.52633068)
(0 -0.0070435787 0.52777521)
(0 -0.0081357702 0.52954893)
(0 -0.0092279364 0.53171258)
(0 -0.010319951 0.5343475)
(0 -0.011413328 0.53757644)
(0 -0.012519969 0.5416917)
(0 -0.013691729 0.54750486)
(0 -0.014998774 0.55604869)
(0 -0.016091078 0.56390443)
(0 -0.015461252 0.55210754)
(0 -0.011173815 0.4832509)
(0 -0.0039180501 0.32979255)
(0 0.00015485754 0.11535655)
(0 2.215802e-06 0.10554026)
(0 0.0036680943 0.30795389)
(0 0.011221017 0.46901449)
(0 0.016942623 0.55334179)
(0 0.018583566 0.57362302)
(0 0.017645207 0.56620027)
(0 0.01617539 0.55540237)
(0 0.014877486 0.54779293)
(0 0.013715143 0.54262255)
(0 0.012594672 0.53869236)
(0 0.011485551 0.53551011)
(0 0.010382594 0.53289394)
(0 0.0092847393 0.53073771)
(0 0.0081910103 0.52896287)
(0 0.0071008919 0.52751102)
(0 0.0060141099 0.52633907)
(0 0.0049304651 0.52541513)
(0 0.0038497634 0.52471584)
(0 0.0027717653 0.52422452)
(0 0.0016961936 0.52393002)
(0 0.00062272459 0.52382597)
(0 -0.00044895524 0.52391038)
(0 -0.0015191417 0.52418562)
(0 -0.0025880766 0.52465847)
(0 -0.003655925 0.52534061)
(0 -0.0047227532 0.52624938)
(0 -0.0057885414 0.52740905)
(0 -0.0068532148 0.52885285)
(0 -0.0079167142 0.53062582)
(0 -0.0089792203 0.53278882)
(0 -0.010040908 0.535424)
(0 -0.011104072 0.5386608)
(0 -0.012183469 0.54281801)
(0 -0.013331868 0.54872704)
(0 -0.014596841 0.55720504)
(0 -0.015571631 0.56404869)
(0 -0.014757506 0.5495659)
(0 -0.010462248 0.47765318)
(0 -0.0036275089 0.32422813)
(0 0.00010368345 0.11360952)
(0 2.6047345e-05 0.10390511)
(0 0.003435587 0.30274861)
(0 0.010516098 0.46293014)
(0 0.016175866 0.54995364)
(0 0.018011446 0.57332111)
(0 0.017241369 0.56735478)
(0 0.015833187 0.55675021)
(0 0.014556039 0.54900537)
(0 0.013416732 0.54374939)
(0 0.012324548 0.5397921)
(0 0.011244872 0.53660084)
(0 0.010171058 0.53397931)
(0 0.0091016486 0.53181898)
(0 0.008035518 0.53004082)
(0 0.0069720701 0.52858608)
(0 0.0059110133 0.52741143)
(0 0.0048522044 0.52648495)
(0 0.0037955588 0.52578325)
(0 0.0027409889 0.52528968)
(0 0.0016883992 0.52499311)
(0 0.00063766851 0.52488718)
(0 -0.00041131037 0.52496991)
(0 -0.0014586269 0.52524361)
(0 -0.0025043312 0.52571502)
(0 -0.0035484231 0.52639573)
(0 -0.0045908414 0.52730303)
(0 -0.0056314884 0.52846115)
(0 -0.0066702803 0.52990333)
(0 -0.0077072209 0.53167477)
(0 -0.0087426387 0.53383657)
(0 -0.0097770366 0.53647205)
(0 -0.010813542 0.5397185)
(0 -0.011869513 0.54392085)
(0 -0.012997343 0.54991754)
(0 -0.014220171 0.55828189)
(0 -0.015080646 0.56404916)
(0 -0.014104052 0.54694675)
(0 -0.0098223007 0.47225063)
(0 -0.0033815194 0.31903524)
(0 6.3006583e-05 0.11196477)
(0 4.2391607e-05 0.10235814)
(0 0.0032285838 0.2978786)
(0 0.0098777097 0.45708401)
(0 0.015456381 0.54651568)
(0 0.017460983 0.57285606)
(0 0.01685384 0.56840312)
(0 0.015509867 0.55805797)
(0 0.01425311 0.55019623)
(0 0.013134016 0.54485193)
(0 0.012067085 0.5408645)
(0 0.011014231 0.53766361)
(0 0.0099672656 0.53503703)