# Region type :   patch outlet
# Faces  :        2025
# Area   :        1.0240000000e-03
# Time            	areaAverage(rhoU)
0                 
