/*--------------------------------*- C++ -*----------------------------------*\
  =========                 |
  \\      /  F ield         | OpenFOAM: The Open Source CFD Toolbox
   \\    /   O peration     | Website:  https://openfoam.org
    \\  /    A nd           | Version:  10
     \\/     M anipulation  |
\*---------------------------------------------------------------------------*/
FoamFile
{
    format      ascii;
    class       surfaceScalarField;
    location    "0.11";
    object      phi;
}
// * * * * * * * * * * * * * * * * * * * * * * * * * * * * * * * * * * * * * //

dimensions      [1 0 -1 0 0 0 0];

internalField   nonuniform List<scalar> 
7860
(
3.989057e-08
5.2881746e-07
1.2188556e-08
5.9640979e-07
7.4235968e-09
5.7347269e-07
5.4945023e-09
5.7063679e-07
4.1098941e-09
5.7009227e-07
3.1960352e-09
5.696215e-07
2.554138e-09
5.6934952e-07
2.0745079e-09
5.6918724e-07
1.7048066e-09
5.690773e-07
1.4124994e-09
5.6899989e-07
1.1757828e-09
5.689443e-07
9.7988603e-10
5.6890347e-07
8.1445838e-10
5.6887299e-07
6.7200257e-10
5.6885002e-07
5.4693851e-10
5.6883262e-07
4.3499883e-10
5.688195e-07
3.3282322e-10
5.6880973e-07
2.3767767e-10
5.688027e-07
1.472525e-10
5.6879798e-07
5.9509628e-11
5.6879529e-07
-2.7440606e-11
5.687945e-07
-1.1544687e-10
5.6879556e-07
-2.0642346e-10
5.6879853e-07
-3.0245548e-10
5.6880358e-07
-4.0593168e-10
5.6881103e-07
-5.1970753e-10
5.6882133e-07
-6.4732602e-10
5.6883518e-07
-7.9333076e-10
5.6885357e-07
-9.6372664e-10
5.6887796e-07
-1.1666869e-09
5.6891053e-07
-1.4137261e-09
5.6895462e-07
-1.7216716e-09
5.6901553e-07
-2.1155224e-09
5.6910145e-07
-2.635183e-09
5.6922727e-07
-3.3630809e-09
5.6943552e-07
-4.4548853e-09
5.6979945e-07
-6.0013889e-09
5.7025417e-07
-9.5011328e-09
5.7220744e-07
-2.9567433e-08
5.8877404e-07
5.3914048e-07
5.9659715e-08
4.6915783e-07
3.6650816e-08
6.1941866e-07
2.2613526e-08
5.8750997e-07
1.6238051e-08
5.7701226e-07
1.2274517e-08
5.7405581e-07
9.5902421e-09
5.7230577e-07
7.661784e-09
5.7127798e-07
6.2210752e-09
5.7062795e-07
5.1124812e-09
5.7018589e-07
4.2358998e-09
5.6987648e-07
3.5259715e-09
5.6965422e-07
2.9385039e-09
5.6949094e-07
2.4424292e-09
5.6936907e-07
2.0152503e-09
5.692772e-07
1.6402315e-09
5.6920764e-07
1.3045744e-09
5.6915515e-07
9.9820083e-10
5.691161e-07
7.1291166e-10
5.6908799e-07
4.4178027e-10
5.6906911e-07
1.7869374e-10
5.6905838e-07
-8.2015858e-11
5.6905521e-07
-3.4589393e-10
5.6905943e-07
-6.1867554e-10
5.6907131e-07
-9.0661695e-10
5.6909152e-07
-1.2168824e-09
5.6912129e-07
-1.5580356e-09
5.6916248e-07
-1.9407021e-09
5.6921784e-07
-2.3785084e-09
5.6929137e-07
-2.889471e-09
5.6938892e-07
-3.4981189e-09
5.6951918e-07
-4.2389124e-09
5.6969541e-07
-5.162264e-09
5.6993888e-07
-6.3448571e-09
5.7028404e-07
-7.9054884e-09
5.707879e-07
-1.0047461e-08
5.7157749e-07
-1.3177065e-08
5.7292905e-07
-1.8109229e-08
5.7518633e-07
-2.8152219e-08
5.8225043e-07
-4.5781785e-08
6.0640361e-07
4.933587e-07
5.9989363e-08
4.0916867e-07
5.0459228e-08
6.2894878e-07
3.3343823e-08
6.0462533e-07
2.4790259e-08
5.8556582e-07
1.9295141e-08
5.7955092e-07
1.530342e-08
5.762975e-07
1.233327e-08
5.7424813e-07
1.0075261e-08
5.7288596e-07
8.3159606e-09
5.7194519e-07
6.9122009e-09
5.7128024e-07
5.7678618e-09
5.7079856e-07
4.8161383e-09
5.7044266e-07
4.0092277e-09
5.7017598e-07
3.3121075e-09
5.6997432e-07
2.6984777e-09
5.6982127e-07
2.1480702e-09
5.6970556e-07
1.6448242e-09
5.6961935e-07
1.1756049e-09
5.6955721e-07
7.2926931e-10
5.6951544e-07
2.9595336e-10
5.6949169e-07
-1.3350648e-10
5.6948467e-07
-5.6807874e-10
5.6949401e-07
-1.0170311e-09
5.6952026e-07
-1.4904505e-09
5.6956494e-07
-1.9998467e-09
5.6963069e-07
-2.5589118e-09
5.6972155e-07
-3.1845328e-09
5.6984346e-07
-3.8982029e-09
5.7000504e-07
-4.7280726e-09
5.7021879e-07
-5.7120144e-09
5.7050312e-07
-6.9022831e-09
5.7088568e-07
-8.3731553e-09
5.7140976e-07
-1.0234122e-08
5.7214501e-07
-1.2647178e-08
5.7320095e-07
-1.5845633e-08
5.7477595e-07
-2.0191614e-08
5.7727503e-07
-2.6662579e-08
5.816573e-07
-3.8902369e-08
5.9449022e-07
-4.8133331e-08
6.1563457e-07
4.4522536e-07
5.4853911e-08
3.5431514e-07
5.7409506e-08
6.2639328e-07
4.0425748e-08
6.21609e-07
3.0737576e-08
5.9525398e-07
2.4601186e-08
5.8568732e-07
1.9910555e-08
5.8098813e-07
1.6272208e-08
5.7788648e-07
1.3427549e-08
5.7573061e-07
1.1164387e-08
5.7420836e-07
9.3309566e-09
5.7311367e-07
7.819315e-09
5.7231021e-07
6.5509179e-09
5.7171106e-07
5.4678653e-09
5.7125903e-07
4.526792e-09
5.7091539e-07
3.6945517e-09
5.7065351e-07
2.9452365e-09
5.7045488e-07
2.2580784e-09
5.7030651e-07
1.615932e-09
5.7019935e-07
1.0041416e-09
5.7012723e-07
4.0966152e-10
5.7008617e-07
-1.796677e-10
5.70074e-07
-7.7575979e-10
5.700901e-07
-1.3909042e-09
5.701354e-07
-2.0384213e-09
5.7021246e-07
-2.7334135e-09
5.7032568e-07
-3.4936936e-09
5.7048183e-07
-4.3409926e-09
5.7069076e-07
-5.3025941e-09
5.7096664e-07
-6.413615e-09
5.7132982e-07
-7.7202678e-09
5.7180977e-07
-9.2844296e-09
5.7244984e-07
-1.119003e-08
5.7331536e-07
-1.3553454e-08
5.7450843e-07
-1.6536205e-08
5.7618371e-07
-2.0336306e-08
5.7857605e-07
-2.5220563e-08
5.8215929e-07
-3.2446631e-08
5.8888337e-07
-4.5030432e-08
6.0707402e-07
-4.6502574e-08
6.1710671e-07
3.9872279e-07
4.7936009e-08
3.0637973e-07
6.0018273e-08
6.1431131e-07
4.5340213e-08
6.3628695e-07
3.4817894e-08
6.0577624e-07
2.8342218e-08
5.9216299e-07
2.3362304e-08
5.8596804e-07
1.9378464e-08
5.8187032e-07
1.6175779e-08
5.789333e-07
1.3569628e-08
5.7681451e-07
1.1420529e-08
5.7526277e-07
9.6232826e-09
5.7410745e-07
8.0977772e-09
5.7323656e-07
6.7829189e-09
5.7257389e-07
5.6316269e-09
5.7206668e-07
4.6070583e-09
5.7167808e-07
3.6798602e-09
5.7138207e-07
2.8261281e-09
5.7116024e-07
2.0258668e-09
5.7099961e-07
1.2618057e-09
5.7089129e-07
5.1845291e-10
5.7082953e-07
-2.1869833e-10
5.7081115e-07
-9.6387995e-10
5.7083528e-07
-1.73174e-09
5.7090326e-07
-2.5380663e-09
5.7101879e-07
-3.4006028e-09
5.7118822e-07
-4.3400341e-09
5.7142126e-07
-5.3812268e-09
5.7173196e-07
-6.5548395e-09
5.7214026e-07
-7.8994507e-09
5.7267443e-07
-9.464434e-09
5.7337476e-07
-1.1313736e-08
5.7429914e-07
-1.3530304e-08
5.7553192e-07
-1.6222586e-08
5.7720071e-07
-1.953438e-08
5.794955e-07
-2.3636279e-08
5.8267795e-07
-2.8830815e-08
5.8735382e-07
-3.6690763e-08
5.9674332e-07
-4.8365441e-08
6.187487e-07
-4.3135058e-08
6.1187633e-07
3.5558773e-07
4.0302295e-08
2.6607828e-07
5.8919862e-08
5.9569436e-07
4.8248943e-08
6.4695778e-07
3.7511301e-08
6.1651378e-07
3.0853094e-08
5.9882119e-07
2.5818926e-08
5.9100221e-07
2.1707012e-08
5.8598223e-07
1.8322371e-08
5.8231794e-07
1.5512196e-08
5.7962468e-07
1.3154347e-08
5.7762061e-07
1.1152797e-08
5.76109e-07
9.4321641e-09
5.749572e-07
7.9332199e-09
5.7407284e-07
6.608975e-09
5.7339093e-07
5.4217183e-09
5.7286534e-07
4.3407498e-09
5.7246304e-07
3.3405997e-09
5.7216039e-07
2.399629e-09
5.7194058e-07
1.4989105e-09
5.7179201e-07
6.2130822e-10
5.7170713e-07
-2.4931427e-10
5.7168177e-07
-1.1288116e-09
5.7171478e-07
-2.0334602e-09
5.7180791e-07
-2.9806873e-09
5.7196601e-07
-3.9898779e-09
5.7219741e-07
-5.083322e-09
5.725147e-07
-6.2873671e-09
5.72936e-07
-7.6338537e-09
5.7348674e-07
-9.1619146e-09
5.7420249e-07
-1.0920283e-08
5.7513313e-07
-1.2970327e-08
5.7634919e-07
-1.5389473e-08
5.7795107e-07
-1.8275293e-08
5.8008653e-07
-2.1752207e-08
5.8297241e-07
-2.5976332e-08
5.8690207e-07
-3.1355788e-08
5.9273328e-07
-3.9519019e-08
6.0490655e-07
-4.9043771e-08
6.2827345e-07
-3.850738e-08
6.0133994e-07
3.1708035e-07
3.282532e-08
2.3325408e-07
5.5159461e-08
5.7336127e-07
4.9126895e-08
6.5299035e-07
3.896182e-08
6.2667868e-07
3.2333791e-08
6.0544919e-07
2.7423302e-08
5.9591271e-07
2.3346054e-08
5.9005948e-07
1.991458e-08
5.8574941e-07
1.7012123e-08
5.8252714e-07
1.4536346e-08
5.8009639e-07
1.2403354e-08
5.7824199e-07
1.0545792e-08
5.7681476e-07
8.9093152e-09
5.7570931e-07
7.4496286e-09
5.7485061e-07
6.1303016e-09
5.7418466e-07
4.9210091e-09
5.7367233e-07
3.7960887e-09
5.7328531e-07
2.7333631e-09
5.7300331e-07
1.7131631e-09
5.7281221e-07
7.1749629e-10
5.727028e-07
-2.7068671e-10
5.7266995e-07
-1.2681667e-09
5.7271226e-07
-2.292123e-09
5.7283187e-07
-3.360818e-09
5.7303471e-07
-4.4943398e-09
5.7333093e-07
-5.7154503e-09
5.7373582e-07
-7.0505836e-09
5.7427113e-07
-8.5310483e-09
5.7496721e-07
-1.0194478e-08
5.7586592e-07
-1.2086607e-08
5.7702526e-07
-1.4263664e-08
5.7852624e-07
-1.6795259e-08
5.8048266e-07
-1.9766441e-08
5.8305772e-07
-2.3278294e-08
5.8648427e-07
-2.7472414e-08
5.9109619e-07
-3.2864382e-08
5.9812525e-07
-4.083489e-08
6.1287705e-07
-4.7527119e-08
6.3496568e-07
-3.329374e-08
5.8710656e-07
2.8378661e-07
2.6148138e-08
2.0710735e-07
5.002533e-08
5.4948569e-07
4.8361077e-08
6.5465482e-07
3.9364412e-08
6.356751e-07
3.2956089e-08
6.1185744e-07
2.8293177e-08
6.0057562e-07
2.4377772e-08
5.9397489e-07
2.1008609e-08
5.8911858e-07
1.8104565e-08
5.8543118e-07
1.5586258e-08
5.826147e-07
1.3384427e-08
5.8044382e-07
1.1441771e-08
5.7875741e-07
9.7106535e-09
5.7744043e-07
8.151162e-09
5.7641011e-07
6.7296476e-09
5.7560618e-07
5.4174495e-09
5.7498453e-07
4.189807e-09
5.7451295e-07
3.0249352e-09
5.7416818e-07
1.9032271e-09
5.7393392e-07
8.0654902e-10
5.7379948e-07
-2.8239665e-10
5.737589e-07
-1.3806685e-09
5.7381053e-07
-2.5056802e-09
5.7395688e-07
-3.6758046e-09
5.7420483e-07
-4.9110177e-09
5.7456615e-07
-6.233615e-09
5.7505841e-07
-7.669025e-09
5.7570654e-07
-9.2467577e-09
5.7654494e-07
-1.1001513e-08
5.7762067e-07
-1.2974451e-08
5.7899819e-07
-1.5214839e-08
5.8076663e-07
-1.7782172e-08
5.8305e-07
-2.0746152e-08
5.860217e-07
-2.4182345e-08
5.8992046e-07
-2.8226038e-08
5.9513989e-07
-3.3478019e-08
6.0337723e-07
-4.0841563e-08
6.202406e-07
-4.4602996e-08
6.3872712e-07
-2.8111368e-08
5.7061493e-07
2.5567525e-07
2.0526487e-08
1.8658258e-07
4.4458264e-08
5.2555619e-07
4.6480322e-08
6.5263329e-07
3.899516e-08
6.4315996e-07
3.2933963e-08
6.179185e-07
2.8571907e-08
6.0493768e-07
2.4897289e-08
5.9764951e-07
2.1669839e-08
5.9234603e-07
1.8834015e-08
5.8826701e-07
1.6333559e-08
5.8511515e-07
1.4114829e-08
5.8266256e-07
1.21315e-08
5.8074074e-07
1.0343651e-08
5.7922828e-07
8.7167843e-09
5.7803697e-07
7.2210106e-09
5.7710195e-07
5.83023e-09
5.7637531e-07
4.5213945e-09
5.7582179e-07
3.2738409e-09
5.7541574e-07
2.0686832e-09
5.7513908e-07
8.8825419e-10
5.749799e-07
-2.8441608e-10
5.7493157e-07
-1.4660976e-09
5.7499221e-07
-2.6738594e-09
5.7516464e-07
-3.9255721e-09
5.7545655e-07
-5.2404348e-09
5.7588101e-07
-6.6395417e-09
5.7645752e-07
-8.1465014e-09
5.772135e-07
-9.7881231e-09
5.7818656e-07
-1.1595184e-08
5.7942773e-07
-1.3603226e-08
5.8100623e-07
-1.5853459e-08
5.8301687e-07
-1.8393974e-08
5.8559051e-07
-2.127818e-08
5.889059e-07
-2.4560501e-08
5.9320278e-07
-2.8386197e-08
5.9896558e-07
-3.3396701e-08
6.0838773e-07
-3.9872416e-08
6.2671631e-07
-4.0929495e-08
6.397842e-07
-2.3313483e-08
5.5299892e-07
2.3236176e-07
1.5967211e-08
1.7061741e-07
3.9000374e-08
5.025261e-07
4.3922718e-08
6.4771195e-07
3.8095397e-08
6.4898697e-07
3.2470941e-08
6.2354274e-07
2.8415032e-08
6.0899357e-07
2.5013346e-08
6.0105121e-07
2.1974247e-08
5.9538513e-07
1.9253735e-08
5.9098752e-07
1.681549e-08
5.875534e-07
1.4620361e-08
5.8485768e-07
1.2632589e-08
5.8272851e-07
1.08201e-08
5.8104077e-07
9.154214e-09
5.7970286e-07
7.6093019e-09
5.7864686e-07
6.1623661e-09
5.7782225e-07
4.7926129e-09
5.7719154e-07
3.4810246e-09
5.7672732e-07
2.2099374e-09
5.7641017e-07
9.6263089e-10
5.7622721e-07
-2.7706972e-10
5.7617127e-07
-1.5251826e-09
5.7624032e-07
-2.7979627e-09
5.7643742e-07
-4.1122944e-09
5.7677088e-07
-5.4860926e-09
5.7725481e-07
-6.93872e-09
5.7791015e-07
-8.4914149e-09
5.787662e-07
-1.0167732e-08
5.7986288e-07
-1.1994001e-08
5.81254e-07
-1.3999741e-08
5.8301197e-07
-1.6218029e-08
5.8523515e-07
-1.8685888e-08
5.8805837e-07
-2.1441831e-08
5.9166184e-07
-2.4526696e-08
5.9628765e-07
-2.8107397e-08
6.0254628e-07
-3.2804312e-08
6.1308465e-07
-3.8222315e-08
6.3213432e-07
-3.6948915e-08
6.385108e-07
-1.9069136e-08
5.3511914e-07
2.1329263e-07
1.2371177e-08
1.5824866e-07
3.3950398e-08
4.8095088e-07
4.1017197e-08
6.4064678e-07
3.684287e-08
6.5316102e-07
3.1720531e-08
6.2866475e-07
2.7956711e-08
6.1275734e-07
2.4829108e-08
6.0417882e-07
2.199866e-08
5.9821558e-07
1.9420444e-08
5.9356573e-07
1.7073556e-08
5.8990029e-07
1.4931155e-08
5.8700009e-07
1.2966745e-08
5.8469292e-07
1.1155506e-08
5.8285201e-07
9.4744036e-09
5.8138396e-07
7.9021474e-09
5.8021912e-07
6.4190569e-09
5.7930534e-07
5.006884e-09
5.7860371e-07
3.6485839e-09
5.7808562e-07
2.3280583e-09
5.7773069e-07
1.0298828e-09
5.7752539e-07
-2.6097206e-10
5.7746213e-07
-1.5594214e-09
5.7753877e-07
-2.8805542e-09
5.7775856e-07
-4.2399169e-09
5.7813024e-07
-5.6537937e-09
5.7866868e-07
-7.1394829e-09
5.7939584e-07
-8.7155578e-09
5.8034227e-07
-1.0402102e-08
5.8154942e-07
-1.2220917e-08
5.8307282e-07
-1.4195687e-08
5.8498675e-07
-1.6352007e-08
5.8739147e-07
-1.8717077e-08
5.9042344e-07
-2.1316841e-08
5.9426161e-07
-2.4185693e-08
5.991565e-07
-2.7514969e-08
6.0587556e-07
-3.1843044e-08
6.1741272e-07
-3.6133137e-08
6.3642441e-07
-3.2962118e-08
6.3533978e-07
-1.5439604e-08
5.1759662e-07
1.9785302e-07
9.5996633e-09
1.4865189e-07
2.9460306e-08
4.6109532e-07
3.8010046e-08
6.3209948e-07
3.5375292e-08
6.5579563e-07
3.0793264e-08
6.3324635e-07
2.7300698e-08
6.1624981e-07
2.4430634e-08
6.070489e-07
2.1811404e-08
6.0083482e-07
1.9387603e-08
5.9598954e-07
1.7148908e-08
5.9213898e-07
1.5078451e-08
5.8907054e-07
1.3157443e-08
5.8661393e-07
1.1367347e-08
5.8464211e-07
9.6902363e-09
5.8306107e-07
8.1089138e-09
5.8180044e-07
6.6069723e-09
5.8080728e-07
5.168787e-09
5.800419e-07
3.7794391e-09
5.7947497e-07
2.4245931e-09
5.7908554e-07
1.090344e-09
5.7885964e-07
-2.369561e-10
5.7878943e-07
-1.5708792e-09
5.788727e-07
-2.9251121e-09
5.7911279e-07
-4.313639e-09
5.7951877e-07
-5.7509149e-09
5.8010596e-07
-7.2520202e-09
5.8089694e-07
-8.8327867e-09
5.8192304e-07
-1.0509875e-08
5.8322651e-07
-1.2300807e-08
5.8486375e-07
-1.4223955e-08
5.8690989e-07
-1.6298368e-08
5.8946589e-07
-1.8542889e-08
5.9266796e-07
-2.0973541e-08
5.9669226e-07
-2.3624334e-08
6.0180729e-07
-2.6707012e-08
6.0895824e-07
-3.0630498e-08
6.2133621e-07
-3.3808583e-08
6.3960249e-07
-2.9173734e-08
6.3070493e-07
-1.24199e-08
5.0084279e-07
1.8543312e-07
7.5037928e-09
1.4115156e-07
2.5577482e-08
4.4302796e-07
3.5071753e-08
6.2260867e-07
3.380203e-08
6.5706543e-07
2.9771456e-08
6.3727637e-07
2.652632e-08
6.1949478e-07
2.3887054e-08
6.0968817e-07
2.1469776e-08
6.0325211e-07
1.9202064e-08
5.9825725e-07
1.7079217e-08
5.9426183e-07
1.5092049e-08
5.9105771e-07
1.3227945e-08
5.8847804e-07
1.1473565e-08
5.8639649e-07
9.8153723e-09
5.8471926e-07
8.2398397e-09
5.8337598e-07
6.7336101e-09
5.8231351e-07
5.2835994e-09
5.8149191e-07
3.8770272e-09
5.8088154e-07
2.5013952e-09
5.8046117e-07
1.1444292e-09
5.802166e-07
-2.0600518e-10
5.8013986e-07
-1.5619984e-09
5.8022869e-07
-2.9357031e-09
5.8048649e-07
-4.3394308e-09
5.809225e-07
-5.7857345e-09
5.8155226e-07
-7.287467e-09
5.8239867e-07
-8.8578024e-09
5.8349338e-07
-1.0510205e-08
5.8487892e-07
-1.2258339e-08
5.8661188e-07
-1.4115953e-08
5.8876751e-07
-1.6096573e-08
5.9144651e-07
-1.8212219e-08
5.9478361e-07
-2.0471952e-08
5.9895199e-07
-2.2914333e-08
6.0424967e-07
-2.5763097e-08
6.11807e-07
-2.9267122e-08
6.2484024e-07
-3.140976e-08
6.4174513e-07
-2.5705588e-08
6.2500076e-07
-9.9630944e-09
4.851003e-07
1.7547003e-07
5.9429716e-09
1.3521277e-07
2.2279917e-08
4.2669882e-07
3.2303777e-08
6.125895e-07
3.2202996e-08
6.5716664e-07
2.87145e-08
6.407642e-07
2.5693043e-08
6.2251599e-07
2.3253105e-08
6.121281e-07
2.1020843e-08
6.0548438e-07
1.8903565e-08
6.0037453e-07
1.6897522e-08
5.9626787e-07
1.4998978e-08
5.9295625e-07
1.3200039e-08
5.9027698e-07
1.149147e-08
5.8810505e-07
9.8633612e-09
5.8634737e-07
8.305336e-09
5.84934e-07
6.806762e-09
5.8381209e-07
5.3569078e-09
5.8294176e-07
3.9450407e-09
5.8229341e-07
2.5604762e-09
5.8184573e-07
1.1925911e-09
5.8158449e-07
-1.6919141e-10
5.8150164e-07
-1.5354292e-09
5.8159493e-07
-2.9166979e-09
5.8186776e-07
-4.3236182e-09
5.8232942e-07
-5.7668675e-09
5.8299551e-07
-7.2571653e-09
5.8388897e-07
-8.8052211e-09
5.8504143e-07
-1.0421632e-08
5.8649533e-07
-1.2116727e-08
5.8830698e-07
-1.3900389e-08
5.9055117e-07
-1.5781682e-08
5.933278e-07
-1.7767391e-08
5.9676932e-07
-1.986265e-08
6.0104725e-07
-2.2113947e-08
6.0650097e-07
-2.4746007e-08
6.1443906e-07
-2.7832855e-08
6.2792708e-07
-2.9050292e-08
6.4296257e-07
-2.2612453e-08
6.1856292e-07
-8.0005155e-09
4.7048836e-07
1.6746952e-07
4.794503e-09
1.3042333e-07
1.9508864e-08
4.1199397e-07
2.9753984e-08
6.0235058e-07
3.0629977e-08
6.5629159e-07
2.7661171e-08
6.4373224e-07
2.4842419e-08
6.2533438e-07
2.257028e-08
6.1440021e-07
2.0502118e-08
6.0755256e-07
1.8524909e-08
6.0235174e-07
1.6631964e-08
5.9816082e-07
1.4822943e-08
5.9476528e-07
1.3093361e-08
5.9200656e-07
1.1437073e-08
5.8976134e-07
9.8470298e-09
5.8793742e-07
8.3154671e-09
5.8646557e-07
6.8340993e-09
5.8529345e-07
5.3942952e-09
5.8438157e-07
3.9872109e-09
5.837005e-07
2.6038825e-09
5.8322906e-07
1.235287e-09
5.8295308e-07
-1.276209e-10
5.8286455e-07
-1.4938851e-09
5.8296119e-07
-2.8725322e-09
5.8324641e-07
-4.2725451e-09
5.8372943e-07
-5.7028242e-09
5.8442579e-07
-7.1721213e-09
5.8535827e-07
-8.6889416e-09
5.8655825e-07
-1.0261404e-08
5.8806779e-07
-1.1897061e-08
5.8994264e-07
-1.3602708e-08
5.9225682e-07
-1.5383979e-08
5.9510907e-07
-1.7243949e-08
5.9862929e-07
-1.9186571e-08
6.0298988e-07
-2.1267821e-08
6.0858222e-07
-2.370167e-08
6.1687291e-07
-2.6385753e-08
6.3061117e-07
-2.6801679e-08
6.433785e-07
-1.9903238e-08
6.1166448e-07
-6.4563539e-09
4.5704148e-07
1.6101316e-07
3.956065e-09
1.2647345e-07
1.7191687e-08
3.9876988e-07
2.7435946e-08
5.9211433e-07
2.9113024e-08
6.5461614e-07
2.6633927e-08
6.4621052e-07
2.4000869e-08
6.2796694e-07
2.1868057e-08
6.1653296e-07
1.9942114e-08
6.0947852e-07
1.8092179e-08
6.0420169e-07
1.6305743e-08
5.9994725e-07
1.4584101e-08
5.9648692e-07
1.2925062e-08
5.936656e-07
1.1324687e-08
5.9136172e-07
9.7780921e-09
5.8948401e-07
8.2795963e-09
5.8796406e-07
6.8228715e-09
5.8675018e-07
5.4011055e-09
5.8580334e-07
4.007143e-09
5.8509446e-07
2.6336001e-09
5.8460261e-07
1.2729536e-09
5.8431373e-07
-8.2388561e-11
5.842199e-07
-1.4400271e-09
5.8431883e-07
-2.8075195e-09
5.846139e-07
-4.1923157e-09
5.8511423e-07
-5.6016859e-09
5.8583516e-07
-7.0426239e-09
5.8679921e-07
-8.5217256e-09
5.8803736e-07
-1.0045039e-08
5.895911e-07
-1.1617893e-08
5.9151549e-07
-1.3244725e-08
5.9388365e-07
-1.4928667e-08
5.9679302e-07
-1.6670445e-08
6.0037107e-07
-1.8475054e-08
6.0479449e-07
-2.04079e-08
6.1051506e-07
-2.2661265e-08
6.1912628e-07
-2.4964853e-08
6.3291475e-07
-2.470306e-08
6.431167e-07
-1.7559e-08
6.0452042e-07
-5.2561384e-09
4.4473861e-07
1.5575702e-07
3.345048e-09
1.2313597e-07
1.5254447e-08
3.868744e-07
2.5342663e-08
5.8203626e-07
2.7666966e-08
6.5229439e-07
2.5643873e-08
6.4823277e-07
2.3183481e-08
6.3042668e-07
2.1166047e-08
6.1855029e-07
1.9361464e-08
6.1128312e-07
1.7625291e-08
6.0593787e-07
1.5937333e-08
6.0163521e-07
1.4299054e-08
5.981252e-07
1.2709674e-08
5.9525498e-07
1.1166736e-08
5.9290466e-07
9.6669246e-09
5.9098382e-07
8.206163e-09
5.8942482e-07
6.7797083e-09
5.8817663e-07
5.3822812e-09
5.8720076e-07
4.0081974e-09
5.8646854e-07
2.6514854e-09
5.8595932e-07
1.3059893e-09
5.8565923e-07
-3.4542469e-11
5.8556043e-07
-1.3763766e-09
5.8566067e-07
-2.7257148e-09
5.8596324e-07
-4.088612e-09
5.8647712e-07
-5.4708836e-09
5.8721743e-07
-6.8779948e-09
5.8820632e-07
-8.314934e-09
5.8947429e-07
-9.7860729e-09
5.9106224e-07
-1.1295023e-08
5.9302444e-07
-1.28445e-08
5.9543312e-07
-1.4435927e-08
5.9838444e-07
-1.6068832e-08
6.0200397e-07
-1.7750896e-08
6.0647655e-07
-1.9555649e-08
6.1231982e-07
-2.1644484e-08
6.2121511e-07
-2.3594302e-08
6.3486457e-07
-2.2770681e-08
6.4229308e-07
-1.5545395e-08
5.9729513e-07
-4.3314078e-09
4.3352463e-07
1.5142562e-07
2.8969094e-09
1.202484e-07
1.3628571e-08
3.7615948e-07
2.3455903e-08
5.7222161e-07
2.6296352e-08
6.4945766e-07
2.4694614e-08
6.4983373e-07
2.2397455e-08
6.3272301e-07
2.0476383e-08
6.2047118e-07
1.8774445e-08
6.1298508e-07
1.7138918e-08
6.0757341e-07
1.5540976e-08
6.0323316e-07
1.3981079e-08
5.9968509e-07
1.245917e-08
5.9677689e-07
1.0973714e-08
5.9439011e-07
9.522474e-09
5.9243506e-07
8.102569e-09
5.9084473e-07
6.7105049e-09
5.895687e-07
5.3422643e-09
5.88569e-07
3.9934153e-09
5.8781739e-07
2.6592212e-09
5.8729351e-07
1.3347432e-09
5.869837e-07
1.4937122e-11
5.8688023e-07
-1.3052577e-09
5.8698086e-07
-2.6308242e-09
5.8728881e-07
-3.9665773e-09
5.8781288e-07
-5.3170636e-09
5.8856792e-07
-6.6864498e-09
5.8957571e-07
-8.078405e-09
5.9086625e-07
-9.4959825e-09
5.9247982e-07
-1.0941517e-08
5.9446998e-07
-1.2416531e-08
5.9690814e-07
-1.3921385e-08
5.998893e-07
-1.5455353e-08
6.0353794e-07
-1.7029879e-08
6.0805108e-07
-1.8724427e-08
6.1401437e-07
-2.0662425e-08
6.2315311e-07
-2.2286897e-08
6.3648905e-07
-2.1005162e-08
6.4101135e-07
-1.3821063e-08
5.9011103e-07
-3.6222466e-09
4.2332581e-07
1.4780337e-07
2.5629111e-09
1.1769707e-07
1.2254224e-08
3.6648829e-07
2.1752546e-08
5.6273899e-07
2.499921e-08
6.4621618e-07
2.3784958e-08
6.5104736e-07
2.1644657e-08
6.3486229e-07
1.9805733e-08
6.2230984e-07
1.8190422e-08
6.146004e-07
1.6643496e-08
6.0912035e-07
1.5127345e-08
6.0474931e-07
1.3640527e-08
6.0117191e-07
1.2183178e-08
5.9823424e-07
1.0754274e-08
5.9581902e-07
9.3522737e-09
5.9383706e-07
7.9751533e-09
5.9222185e-07
6.6203784e-09
5.9092347e-07
5.2849492e-09
5.8990443e-07
3.9654804e-09
5.8913686e-07
2.6582934e-09
5.886007e-07
1.3595122e-09
5.8828249e-07
6.5157732e-11
5.8817459e-07
-1.2287611e-09
5.8827478e-07
-2.5261546e-09
5.885862e-07
-3.830757e-09
5.8911748e-07
-5.1460298e-09
5.8988319e-07
-6.4750592e-09
5.9090474e-07
-7.8204553e-09
5.9221165e-07
-9.1842636e-09
5.9384363e-07
-1.0567908e-08
5.9585362e-07
-1.1972138e-08
5.9831237e-07
-1.3396763e-08
6.0131392e-07
-1.4841543e-08
6.0498272e-07
-1.6322229e-08
6.0953176e-07
-1.7921484e-08
6.1561362e-07
-1.9719862e-08
6.2495149e-07
-2.104713e-08
6.3781631e-07
-1.9397303e-08
6.3936152e-07
-1.2343291e-08
5.8305702e-07
-3.0782561e-09
4.1406078e-07
1.4472512e-07
2.3074106e-09
1.1540406e-07
1.1081403e-08
3.5773849e-07
2.0208657e-08
5.5363097e-07
2.3769929e-08
6.4266191e-07
2.2910919e-08
6.5190601e-07
2.0923516e-08
6.3684847e-07
1.9156868e-08
6.2407612e-07
1.7615061e-08
6.161422e-07
1.6146137e-08
6.105893e-07
1.4704204e-08
6.0619125e-07
1.3285269e-08
6.0259085e-07
1.1889272e-08
5.9963023e-07
1.0515404e-08
5.9719289e-07
9.1625364e-09
5.9518993e-07
7.8292321e-09
5.9355515e-07
6.5136775e-09
5.9223903e-07
5.2136782e-09
5.9120443e-07
3.9267088e-09
5.9042383e-07
2.6499841e-09
5.8987743e-07
1.3805406e-09
5.8955193e-07
1.1532358e-10
5.8943981e-07
-1.1487291e-09
5.8953883e-07
-2.4145959e-09
5.8985207e-07
-3.6850855e-09
5.9038797e-07
-4.9627469e-09
5.9116086e-07
-6.2497824e-09
5.9219177e-07
-7.5479687e-09
5.9350983e-07
-8.8586028e-09
5.9515426e-07
-1.0182488e-08
5.9717751e-07
-1.1519923e-08
5.996498e-07
-1.287055e-08
6.0266455e-07
-1.4235159e-08
6.0634733e-07
-1.5633888e-08
6.1093049e-07
-1.7149619e-08
6.1712935e-07
-1.8817155e-08
6.2661902e-07
-1.9873879e-08
6.3887304e-07
-1.7932587e-08
6.3742023e-07
-1.1071585e-08
5.7619602e-07
-2.6583927e-09
4.0564758e-07
1.4206672e-07
2.1051066e-09
1.1331681e-07
1.0069557e-08
3.4980312e-07
1.8801778e-08
5.4492216e-07
2.2601309e-08
6.388716e-07
2.2067199e-08
6.5244018e-07
2.0230462e-08
6.3868378e-07
1.852992e-08
6.2577615e-07
1.7051319e-08
6.1762077e-07
1.5651407e-08
6.1198923e-07
1.4276999e-08
6.0756566e-07
1.2921135e-08
6.0394671e-07
1.158328e-08
6.0096809e-07
1.0262639e-08
5.9851353e-07
8.9582902e-09
5.9649428e-07
7.6691826e-09
5.9484426e-07
6.3940297e-09
5.9351418e-07
5.1312655e-09
5.924672e-07
3.8790618e-09
5.9167604e-07
2.6353772e-09
5.9112111e-07
1.3980219e-09
5.9078929e-07
1.6473167e-10
5.906731e-07
-1.0667578e-09
5.9077032e-07
-2.2986292e-09
5.9108394e-07
-3.5329081e-09
5.9162225e-07
-4.771386e-09
5.9239933e-07
-6.0155516e-09
5.9343594e-07
-7.2665372e-09
5.9476082e-07
-8.525097e-09
5.9641282e-07
-9.7916347e-09
5.9844404e-07
-1.106623e-08
6.009244e-07
-1.2348634e-08
6.0394696e-07
-1.3641027e-08
6.0763972e-07
-1.4967647e-08
6.1225711e-07
-1.6408601e-08
6.1857031e-07
-1.7951864e-08
6.2816229e-07
-1.876264e-08
6.3968381e-07
-1.659439e-08
6.3525198e-07
-9.9698555e-09
5.6957149e-07
-2.3301788e-09
3.9800791e-07
1.3973655e-07
1.9385576e-09
1.1140021e-07
9.1864674e-09
3.4259021e-07
1.7511958e-08
5.3662501e-07
2.1485843e-08
6.3490963e-07
2.1248165e-08
6.5267853e-07
1.9560957e-08
6.4036937e-07
1.7923364e-08
6.2741307e-07
1.650027e-08
6.1904381e-07
1.5161989e-08
6.1332754e-07
1.384939e-08
6.0887827e-07
1.255233e-08
6.0524377e-07
1.1269594e-08
6.0225083e-07
1.0000281e-08
5.9978284e-07
8.7435367e-09
5.9775103e-07
7.49855e-09
5.9608925e-07
6.2644127e-09
5.9474832e-07
5.0400428e-09
5.9369157e-07
3.8241723e-09
5.9289191e-07
2.6153737e-09
5.9232991e-07
1.4121058e-09
5.9199255e-07
2.1277393e-10
5.9187243e-07
-9.8420891e-10
5.9196731e-07
-2.1803521e-09
5.9228009e-07
-3.3770255e-09
5.9281892e-07
-4.5753972e-09
5.9359771e-07
-5.7763852e-09
5.9463693e-07
-6.9806277e-09
5.9596506e-07
-8.1884939e-09
5.9762069e-07
-9.4001452e-09
5.996557e-07
-1.0615596e-08
6.0213985e-07
-1.1834896e-08
6.0516626e-07
-1.3061816e-08
6.0886664e-07
-1.432412e-08
6.1351942e-07
-1.5696321e-08
6.1994251e-07
-1.7120009e-08
6.2958598e-07
-1.770718e-08
6.4027098e-07
-1.5365937e-08
6.3291074e-07
-9.0068811e-09
5.6321243e-07
-2.06847e-09
3.910695e-07
1.3766808e-07
1.7960938e-09
1.0963089e-07
8.406875e-09
3.3602156e-07
1.6322052e-08
5.28744e-07
2.041643e-08
6.308304e-07
2.0448441e-08
6.5264801e-07
1.8910187e-08
6.4190582e-07
1.7334733e-08
6.2898767e-07
1.5961743e-08
6.2041669e-07
1.4679234e-08
6.1461008e-07
1.3423708e-08
6.1013381e-07
1.218179e-08
6.0648569e-07
1.0951455e-08
6.0348116e-07
9.7316185e-09
6.0100268e-07
8.521414e-09
5.9896123e-07
7.3201667e-09
5.972905e-07
6.1272374e-09
5.9594125e-07
4.9419156e-09
5.9487689e-07
3.7633816e-09
5.9407044e-07
2.5907115e-09
5.9350258e-07
1.422905e-09
5.9316036e-07
2.5893015e-10
5.930364e-07
-9.0222882e-10
5.9312847e-07
-2.0615154e-09
5.9343937e-07
-3.2197529e-09
5.9397716e-07
-4.3775987e-09
5.9475555e-07
-5.5355144e-09
5.9579484e-07
-6.6937604e-09
5.9712331e-07
-7.8524331e-09
5.9877936e-07
-9.0115563e-09
6.0081482e-07
-1.0171174e-08
6.0329947e-07
-1.1331742e-08
6.0632682e-07
-1.2498691e-08
6.1003359e-07
-1.3702539e-08
6.1472327e-07
-1.5009676e-08
6.2124964e-07
-1.6316989e-08
6.3089329e-07
-1.6700695e-08
6.4065469e-07
-1.4231517e-08
6.3044156e-07
-8.1564303e-09
5.5713734e-07
-1.8542393e-09
3.8476731e-07
1.3581384e-07
1.6701286e-09
1.0799308e-07
7.7111232e-09
3.300313e-07
1.52176e-08
5.2127856e-07
1.9386713e-08
6.2668031e-07
1.9663205e-08
6.523741e-07
1.8273484e-08
6.4329361e-07
1.6761126e-08
6.3049895e-07
1.5434807e-08
6.2174283e-07
1.4203594e-08
6.1584133e-07
1.300133e-08
6.1133609e-07
1.1811512e-08
6.0767551e-07
1.0631215e-08
6.0466146e-07
9.4591366e-09
6.0217476e-07
8.2943559e-09
6.0012601e-07
7.1362716e-09
5.9844858e-07
5.9844362e-09
5.9709309e-07
4.8384256e-09
5.960229e-07
3.6977801e-09
5.9521109e-07
2.561989e-09
5.9463837e-07
1.4305023e-09
5.9429185e-07
3.0276006e-10
5.9416415e-07
-8.217731e-10
5.94253e-07
-1.943566e-09
5.9456117e-07
-3.0629863e-09
5.9509658e-07
-4.1802714e-09
5.9587284e-07
-5.2955153e-09
5.9691009e-07
-6.4086843e-09
5.9823648e-07
-7.519678e-09
5.9989036e-07
-8.6284417e-09
6.0192358e-07
-9.7350943e-09
6.0440612e-07
-1.084055e-08
6.0743228e-07
-1.1951855e-08
6.111449e-07
-1.3101373e-08
6.1587279e-07
-1.4345216e-08
6.2249349e-07
-1.5538229e-08
6.320863e-07
-1.57366e-08
6.4085306e-07
-1.3177156e-08
6.2788212e-07
-7.396971e-09
5.5135716e-07
-1.6734263e-09
3.7904376e-07
1.3414041e-07
1.5558477e-09
1.0647588e-07
7.0839275e-09
3.2456428e-07
1.4186522e-08
5.1422512e-07
1.8391196e-08
6.2249926e-07
1.8888332e-08
6.5188094e-07
1.7646579e-08
6.4453335e-07
1.6199552e-08
6.3194466e-07
1.4918126e-08
6.2302401e-07
1.373496e-08
6.1702452e-07
1.258299e-08
6.1248808e-07
1.1442813e-08
6.0881569e-07
1.0310559e-08
6.0579371e-07
9.1846974e-09
6.0330062e-07
8.06424e-09
6.0124647e-07
6.9486264e-09
5.995642e-07
5.8375503e-09
5.9820416e-07
4.7308139e-09
5.9712964e-07
3.6282497e-09
5.9631365e-07
2.529689e-09
5.9573693e-07
1.4349585e-09
5.9538658e-07
3.4389488e-10
5.9525521e-07
-7.4363225e-10
5.9534053e-07
-1.8276917e-09
5.9564523e-07
-2.9082694e-09
5.9617716e-07
-3.9852528e-09
5.9694982e-07
-5.0584341e-09
5.9798327e-07
-6.1275426e-09
5.9930559e-07
-7.1923243e-09
6.0095514e-07
-8.2526718e-09
6.0298393e-07
-9.3087868e-09
6.0546224e-07
-1.0362047e-08
6.0848554e-07
-1.1420972e-08
6.1220382e-07
-1.2518799e-08
6.1697061e-07
-1.3699615e-08
6.236743e-07
-1.4779633e-08
6.3316632e-07
-1.4809048e-08
6.4088248e-07
-1.2190919e-08
6.2526399e-07
-6.7111762e-09
5.4587742e-07
-1.5158944e-09
3.7384848e-07
1.3262452e-07
1.4502298e-09
1.0507148e-07
6.5133357e-09
3.1957456e-07
1.3218751e-08
5.0757848e-07
1.7425231e-08
6.1832185e-07
1.8120434e-08
6.5119149e-07
1.702575e-08
6.45626e-07
1.5647162e-08
6.3332166e-07
1.4410217e-08
6.242606e-07
1.3272918e-08
6.1816183e-07
1.216902e-08
6.13592e-07
1.1076557e-08
6.0990816e-07
9.990702e-09
6.0687957e-07
8.9097047e-09
6.0438162e-07
7.8325212e-09
6.0232365e-07
6.7586209e-09
6.006381e-07
5.6878112e-09
5.9927497e-07
4.6200805e-09
5.9819737e-07
3.5555049e-09
5.9737823e-07
2.494203e-09
5.9679824e-07
1.4363196e-09
5.9644446e-07
3.8202844e-10
5.963095e-07
-6.6845705e-10
5.9639101e-07
-1.7148655e-09
5.9669164e-07
-2.7568582e-09
5.9721915e-07
-3.7940258e-09
5.9798699e-07
-4.8259036e-09
5.9901515e-07
-5.8520186e-09
6.003317e-07
-6.8719824e-09
6.0197511e-07
-7.8856325e-09
6.0399758e-07
-8.893235e-09
6.0646984e-07
-9.8965976e-09
6.094889e-07
-1.0905501e-08
6.1321273e-07
-1.1953057e-08
6.1801817e-07
-1.3070009e-08
6.2479126e-07
-1.4037886e-08
6.341342e-07
-1.3913234e-08
6.4075783e-07
-1.1262986e-08
6.2261374e-07
-6.0853523e-09
5.4069978e-07
-1.3745352e-09
3.6913767e-07
1.3124998e-07
1.3513431e-09
1.0377403e-07
5.9898922e-09
3.1502404e-07
1.2305874e-08
5.0133262e-07
1.6484963e-08
6.1417826e-07
1.7356847e-08
6.5032756e-07
1.6407901e-08
6.46573e-07
1.5101416e-08
6.3462627e-07
1.3909647e-08
6.254519e-07
1.2816946e-08
6.1925453e-07
1.1759544e-08
6.1464943e-07
1.0713329e-08
6.1095438e-07
9.6725445e-09
6.0792035e-07