/*--------------------------------*- C++ -*----------------------------------*\
  =========                 |
  \\      /  F ield         | OpenFOAM: The Open Source CFD Toolbox
   \\    /   O peration     | Website:  https://openfoam.org
    \\  /    A nd           | Version:  10
     \\/     M anipulation  |
\*---------------------------------------------------------------------------*/
FoamFile
{
    format      ascii;
    class       surfaceScalarField;
    location    "0.11";
    object      phi_0;
}
// * * * * * * * * * * * * * * * * * * * * * * * * * * * * * * * * * * * * * //

dimensions      [1 0 -1 0 0 0 0];

internalField   nonuniform List<scalar> 
7860
(
3.9890304e-08
5.2881773e-07
1.2188353e-08
5.9640973e-07
7.4233871e-09
5.734727e-07
5.4942628e-09
5.7063682e-07
4.1096454e-09
5.7009228e-07
3.1957856e-09
5.696215e-07
2.5538919e-09
5.6934952e-07
2.0742698e-09
5.6918723e-07
1.7045802e-09
5.6907729e-07
1.4122882e-09
5.6899988e-07
1.1755896e-09
5.6894428e-07
9.7971346e-10
5.6890345e-07
8.1430871e-10
5.6887297e-07
6.7187775e-10
5.6884999e-07
5.468403e-10
5.688326e-07
4.3492872e-10
5.6881947e-07
3.3278241e-10
5.688097e-07
2.3766715e-10
5.6880267e-07
1.4727308e-10
5.6879794e-07
5.9561844e-11
5.6879526e-07
-2.735642e-11
5.6879447e-07
-1.1533057e-10
5.6879552e-07
-2.0627518e-10
5.6879849e-07
-3.0227562e-10
5.6880355e-07
-4.0572091e-10
5.68811e-07
-5.1946683e-10
5.688213e-07
-6.4705674e-10
5.6883515e-07
-7.9303466e-10
5.6885354e-07
-9.6340589e-10
5.6887794e-07
-1.1663442e-09
5.6891051e-07
-1.4133648e-09
5.689546e-07
-1.7212958e-09
5.6901552e-07
-2.1151372e-09
5.6910144e-07
-2.6347945e-09
5.6922726e-07
-3.3626962e-09
5.6943552e-07
-4.4545167e-09
5.6979946e-07
-6.0010656e-09
5.7025421e-07
-9.500837e-09
5.7220747e-07
-2.9567066e-08
5.8877397e-07
5.3914085e-07
5.9659087e-08
4.6915873e-07
3.6650075e-08
6.1941871e-07
2.2612813e-08
5.8750995e-07
1.6237295e-08
5.7701234e-07
1.2273738e-08
5.7405584e-07
9.5894599e-09
5.7230578e-07
7.6610139e-09
5.7127796e-07
6.2203307e-09
5.7062791e-07
5.111774e-09
5.7018584e-07
4.23524e-09
5.6987641e-07
3.5253681e-09
5.6965415e-07
2.9379648e-09
5.6949085e-07
2.4419614e-09
5.6936898e-07
2.01486e-09
5.6927709e-07
1.6399239e-09
5.6920753e-07
1.304354e-09
5.6915504e-07
9.9807146e-10
5.6911598e-07
7.1287638e-10
5.6908786e-07
4.4184153e-10
5.6906898e-07
1.7885332e-10
5.6905825e-07
-8.1756893e-11
5.6905508e-07
-3.4553518e-10
5.690593e-07
-6.1821734e-10
5.6907118e-07
-9.060605e-10
5.6909139e-07
-1.2162297e-09
5.6912117e-07
-1.5572896e-09
5.6916236e-07
-1.9398668e-09
5.6921772e-07
-2.3775892e-09
5.6929126e-07
-2.8884745e-09
5.6938882e-07
-3.4970535e-09
5.6951909e-07
-4.2377882e-09
5.6969533e-07
-5.1610935e-09
5.6993882e-07
-6.3436557e-09
5.70284e-07
-7.9042751e-09
5.7078788e-07
-1.0046259e-08
5.7157751e-07
-1.3175906e-08
5.7292911e-07
-1.8108152e-08
5.7518646e-07
-2.8151159e-08
5.8225048e-07
-4.5780868e-08
6.0640368e-07
4.9335998e-07
5.9988407e-08
4.0917054e-07
5.0457855e-08
6.2894925e-07
3.3342514e-08
6.0462524e-07
2.4788924e-08
5.8556592e-07
1.9293771e-08
5.7955099e-07
1.5302048e-08
5.762975e-07
1.2331922e-08
5.7424809e-07
1.007396e-08
5.7288588e-07
8.3147253e-09
5.7194508e-07
6.9110489e-09
5.7128009e-07
5.7668083e-09
5.7079839e-07
4.8151969e-09
5.7044246e-07
4.0084102e-09
5.7017576e-07
3.3114243e-09
5.6997408e-07
2.6979377e-09
5.6982102e-07
2.1476812e-09
5.6970529e-07
1.6445927e-09
5.6961907e-07
1.1755361e-09
5.6955692e-07
7.2936746e-10
5.6951515e-07
2.962215e-10
5.6949139e-07
-1.3306638e-10
5.6948437e-07
-5.6746596e-10
5.694937e-07
-1.0162461e-09
5.6951996e-07
-1.4894951e-09
5.6956464e-07
-1.9987242e-09
5.696304e-07
-2.557627e-09
5.6972126e-07
-3.1830924e-09
5.6984319e-07
-3.8966157e-09
5.7000479e-07
-4.7263498e-09
5.7021856e-07
-5.7101697e-09
5.7050291e-07
-6.9003337e-09
5.708855e-07
-8.3711219e-09
5.7140961e-07
-1.023203e-08
5.7214491e-07
-1.2645059e-08
5.7320091e-07
-1.5843526e-08
5.7477597e-07
-2.018957e-08
5.7727515e-07
-2.6660621e-08
5.8165751e-07
-3.8900395e-08
5.9449025e-07
-4.8131847e-08
6.1563513e-07
4.4522813e-07
5.4852674e-08
3.5431826e-07
5.7407413e-08
6.2639461e-07
4.0423707e-08
6.2160886e-07
3.073557e-08
5.9525404e-07
2.4599147e-08
5.8568742e-07
1.9908518e-08
5.8098813e-07
1.6270212e-08
5.778864e-07
1.3425626e-08
5.7573046e-07
1.1162564e-08
5.7420814e-07
9.3292572e-09
5.731134e-07
7.8177614e-09
5.7230989e-07
6.5495294e-09
5.717107e-07
5.4666586e-09
5.7125863e-07
4.5257818e-09
5.7091496e-07
3.6937509e-09
5.7065305e-07
2.9446561e-09
5.7045439e-07
2.2577276e-09
5.70306e-07
1.6158184e-09
5.7019883e-07
1.0042712e-09
5.701267e-07
4.100389e-10
5.7008563e-07
-1.7903969e-10
5.7007344e-07
-7.7487982e-10
5.7008954e-07
-1.3897728e-09
5.7013485e-07
-2.0370407e-09
5.7021191e-07
-2.731788e-09
5.7032514e-07
-3.4918297e-09
5.7048131e-07
-4.3388997e-09
5.7069026e-07
-5.300284e-09
5.7096617e-07
-6.4111031e-09
5.7132938e-07
-7.7175733e-09
5.7180938e-07
-9.2815762e-09
5.724495e-07
-1.1187046e-08
5.7331508e-07
-1.3550375e-08
5.7450824e-07
-1.6533075e-08
5.7618361e-07
-2.0333178e-08
5.7857608e-07
-2.5217501e-08
5.8215948e-07
-3.2443601e-08
5.8888361e-07
-4.5027364e-08
6.0707401e-07
-4.6500513e-08
6.1710828e-07
3.9872762e-07
4.7934543e-08
3.0638435e-07
6.0015412e-08
6.1431405e-07
4.5337283e-08
6.3628687e-07
3.4815095e-08
6.0577617e-07
2.8339413e-08
5.921631e-07
2.3359512e-08
5.8596803e-07
1.9375736e-08
5.8187017e-07
1.6173155e-08
5.7893304e-07
1.3567143e-08
5.7681415e-07
1.1418215e-08
5.7526232e-07
9.6211689e-09
5.7410693e-07
8.0958877e-09
5.7323598e-07
6.7812757e-09
5.7257325e-07
5.630249e-09
5.7206598e-07
4.6059624e-09
5.7167734e-07
3.6790607e-09
5.7138129e-07
2.8256369e-09
5.7115942e-07
2.025694e-09
5.7099877e-07
1.2619593e-09
5.7089043e-07
5.1893894e-10
5.7082865e-07
-2.178758e-10
5.7081026e-07
-9.6271897e-10
5.7083438e-07
-1.7302408e-09
5.7090237e-07
-2.5362313e-09
5.710179e-07
-3.398437e-09
5.7118735e-07
-4.3375457e-09
5.7142041e-07
-5.3784269e-09
5.7173114e-07
-6.551743e-09
5.7213949e-07
-7.8960768e-09
5.7267371e-07
-9.4608069e-09
5.7337411e-07
-1.1309885e-08
5.7429858e-07
-1.3526266e-08
5.7553146e-07
-1.6218405e-08
5.7720038e-07
-1.9530109e-08
5.7949532e-07
-2.3631988e-08
5.8267796e-07
-2.8826559e-08
5.8735405e-07
-3.6686426e-08
5.9674348e-07
-4.8361126e-08
6.1874871e-07
-4.3132432e-08
6.1187959e-07
3.5559519e-07
4.0300632e-08
2.6608461e-07
5.8916212e-08
5.9569912e-07
4.8244971e-08
6.4695802e-07
3.7507558e-08
6.1651347e-07
3.0849407e-08
5.9882124e-07
2.5815273e-08
5.9100217e-07
2.1703452e-08
5.8598199e-07
1.8318954e-08
5.8231754e-07
1.5508966e-08
5.7962414e-07
1.3151343e-08
5.7761995e-07
1.1150053e-08
5.7610822e-07
9.4297113e-09
5.7495632e-07
7.9310852e-09
5.7407187e-07
6.6071818e-09
5.7338989e-07
5.4202873e-09
5.7286423e-07
4.3396985e-09
5.7246188e-07
3.3399432e-09
5.7215918e-07
2.3993796e-09
5.7193933e-07
1.4990783e-09
5.7179073e-07
6.2190102e-10
5.7170583e-07
-2.4829115e-10
5.7168045e-07
-1.1273553e-09
5.7171345e-07
-2.0315703e-09
5.7180659e-07
-2.9783661e-09
5.719647e-07
-3.987131e-09
5.7219611e-07
-5.0801584e-09
5.7251344e-07
-6.2837996e-09
5.7293478e-07
-7.6298996e-09
5.7348559e-07
-9.1575963e-09
5.7420141e-07
-1.0915629e-08
5.7513214e-07
-1.2965372e-08
5.7634832e-07
-1.538426e-08
5.7795035e-07
-1.8269875e-08
5.8008599e-07
-2.1746646e-08
5.8297209e-07
-2.5970711e-08
5.8690202e-07
-3.1350129e-08
5.9273346e-07
-3.9513129e-08
6.0490648e-07
-4.9038094e-08
6.2827368e-07
-3.8504204e-08
6.013457e-07
3.1709098e-07
3.2823479e-08
2.3326231e-07
5.5155005e-08
5.733687e-07
4.9121735e-08
6.5299129e-07
3.8956962e-08
6.2667806e-07
3.2329084e-08
6.0544909e-07
2.7418665e-08
5.9591259e-07
2.3341546e-08
5.9005912e-07
1.9910263e-08
5.8574882e-07
1.700805e-08
5.8252635e-07
1.4532561e-08
5.8009544e-07
1.2399899e-08
5.7824088e-07
1.0542704e-08
5.7681351e-07
8.9066259e-09
5.7570795e-07
7.4473657e-09
5.7484915e-07
6.1284894e-09
5.7418311e-07
4.9196686e-09
5.736707e-07
3.7952377e-09
5.7328361e-07
2.7330164e-09
5.7300156e-07
1.7133331e-09
5.7281041e-07
7.1819236e-10
5.7270097e-07
-2.6945763e-10
5.726681e-07
-1.2664005e-09
5.7271039e-07
-2.2898184e-09
5.7283e-07
-3.3579769e-09
5.7303286e-07
-4.4909675e-09
5.7332911e-07
-5.7115563e-09
5.7373403e-07
-7.0461818e-09
5.7426941e-07
-8.5261576e-09
5.7496556e-07
-1.0189123e-08
5.7586437e-07
-1.208082e-08
5.7702384e-07
-1.4257485e-08
5.7852499e-07
-1.6788736e-08
5.804816e-07
-1.9759634e-08
5.8305689e-07
-2.3271277e-08
5.8648373e-07
-2.7465273e-08
5.9109602e-07
-3.285708e-08
5.9812527e-07
-4.0827203e-08
6.128766e-07
-4.7519982e-08
6.3496646e-07
-3.3290035e-08
5.8711575e-07
2.8380095e-07
2.6146128e-08
2.0711767e-07
5.0020045e-08
5.4949647e-07
4.8354586e-08
6.5465697e-07
3.9358242e-08
6.3567415e-07
3.2950199e-08
6.1185705e-07
2.8287416e-08
6.0057538e-07
2.4372186e-08
5.9397435e-07
2.1003271e-08
5.8911774e-07
1.8099537e-08
5.8543009e-07
1.5581592e-08
5.8261338e-07
1.3380172e-08
5.8044231e-07
1.1437968e-08
5.7875572e-07
9.7073388e-09
5.7743858e-07
8.1483682e-09
5.7640812e-07
6.7274026e-09
5.7560407e-07
5.4157774e-09
5.7498233e-07
4.1887284e-09
5.7451066e-07
3.0244675e-09
5.7416582e-07
1.9033847e-09
5.739315e-07
8.0734338e-10
5.7379701e-07
-2.809569e-10
5.737564e-07
-1.3785778e-09
5.7380801e-07
-2.5029358e-09
5.7395436e-07
-3.6724074e-09
5.7420233e-07
-4.9069726e-09
5.7456367e-07
-6.228931e-09
5.7505599e-07
-7.6637162e-09
5.7570419e-07
-9.240844e-09
5.7654269e-07
-1.0995021e-08
5.7761855e-07
-1.2967415e-08
5.7899623e-07
-1.5207303e-08
5.8076487e-07
-1.7774189e-08
5.8304849e-07
-2.0737788e-08
5.8602049e-07
-2.4173684e-08
5.8991963e-07
-2.8217159e-08
5.9513949e-07
-3.3468805e-08
6.0337692e-07
-4.0831836e-08
6.2023963e-07
-4.459431e-08
6.3872893e-07
-2.8107155e-08
5.706286e-07
2.5569379e-07
2.0524307e-08
1.8659517e-07
4.4452116e-08
5.2557106e-07
4.6472356e-08
6.526373e-07
3.8987466e-08
6.4315872e-07
3.2926701e-08
6.1791767e-07
2.8564861e-08
6.0493722e-07
2.4890477e-08
5.9764874e-07
2.1663344e-08
5.9234487e-07
1.8827908e-08
5.8826553e-07
1.6327901e-08
5.8511339e-07
1.4109671e-08
5.8266054e-07
1.2126891e-08
5.807385e-07
1.0339632e-08
5.7922584e-07
8.7133915e-09
5.7803436e-07
7.2182753e-09
5.7709919e-07
5.8281792e-09
5.7637242e-07
4.5200514e-09
5.7581879e-07
3.2732253e-09
5.7541264e-07
2.0688117e-09
5.7513591e-07
8.8914037e-10
5.7497668e-07
-2.8276167e-10
5.749283e-07
-1.4636675e-09
5.7498892e-07
-2.6706492e-09
5.7516134e-07
-3.9215811e-09
5.7545326e-07
-5.2356663e-09
5.7587776e-07
-6.6340037e-09
5.7645433e-07
-8.1402074e-09
5.772104e-07
-9.7810928e-09
5.7818358e-07
-1.1587445e-08
5.794249e-07
-1.3594813e-08
5.810036e-07
-1.5844419e-08
5.8301448e-07
-1.8384363e-08
5.8558843e-07
-2.126807e-08
5.8890419e-07
-2.4549987e-08
5.9320154e-07
-2.8375332e-08
5.9896484e-07
-3.3385283e-08
6.0838687e-07
-3.9860409e-08
6.2671476e-07
-4.0919174e-08
6.397877e-07
-2.3308775e-08
5.530182e-07
2.3238502e-07
1.596485e-08
1.7063248e-07
3.8993315e-08
5.0254584e-07
4.3913125e-08
6.4771854e-07
3.8085946e-08
6.4898557e-07
3.2462089e-08
6.235413e-07
2.8406517e-08
6.0899277e-07
2.5005143e-08
6.0105012e-07
2.1966443e-08
5.9538357e-07
1.9246411e-08
5.9098556e-07
1.6808713e-08
5.8755109e-07
1.461419e-08
5.8485506e-07
1.2627076e-08
5.8272561e-07
1.0815291e-08
5.8103762e-07
9.1501478e-09
5.796995e-07
7.6060133e-09
5.7864332e-07
6.1598847e-09
5.7781855e-07
4.7909644e-09
5.7718771e-07
3.4802311e-09
5.7672338e-07
2.2100176e-09
5.7640613e-07
9.6360059e-10
5.762231e-07
-2.7519782e-10
5.761671e-07
-1.5223988e-09
5.7623612e-07
-2.7942602e-09
5.7643321e-07
-4.1076703e-09
5.7676667e-07
-5.480548e-09
5.7725063e-07
-6.9322607e-09
5.7790604e-07
-8.4840525e-09
5.7876219e-07
-1.0159485e-08
5.7985901e-07
-1.1984895e-08
5.8125031e-07
-1.3989813e-08
5.8300852e-07
-1.6207325e-08
5.8523199e-07
-1.8674467e-08
5.8805557e-07
-2.1429772e-08
5.916595e-07
-2.4514095e-08
5.9628587e-07
-2.809427e-08
6.0254501e-07
-3.2790373e-08
6.1308297e-07
-3.8207781e-08
6.3213216e-07
-3.6936864e-08
6.3851678e-07
-1.9063935e-08
5.3514527e-07
2.1332108e-07
1.2368618e-08
1.5826643e-07
3.3942361e-08
4.8097632e-07
4.1005815e-08
6.4065681e-07
3.683141e-08
6.5315969e-07
3.1709844e-08
6.2866253e-07
2.7946518e-08
6.1275604e-07
2.4819328e-08
6.0417733e-07
2.1989377e-08
5.9821353e-07
1.9411748e-08
5.9356319e-07
1.7065522e-08
5.8989731e-07
1.4923847e-08
5.8699673e-07
1.2960219e-08
5.8468924e-07
1.114981e-08
5.8284803e-07
9.469582e-09
5.8137973e-07
7.8982361e-09
5.8021467e-07
6.4160878e-09
5.793007e-07
5.0048848e-09
5.7859891e-07
3.6475787e-09
5.7808068e-07
2.3280678e-09
5.7772564e-07
1.0309251e-09
5.7752024e-07
-2.5888183e-10
5.7745691e-07
-1.5562708e-09
5.7753351e-07
-2.8763337e-09
5.7775327e-07
-4.2346204e-09
5.7812496e-07
-5.647419e-09
5.7866343e-07
-7.1320325e-09
5.7939065e-07
-8.7070402e-09
5.803372e-07
-1.0392532e-08
5.815445e-07
-1.2210319e-08
5.830681e-07
-1.4184096e-08
5.849823e-07
-1.6339467e-08
5.8738736e-07
-1.870365e-08
5.9041976e-07
-2.1302608e-08
5.9425846e-07
-2.4170748e-08
5.9915401e-07
-2.7499271e-08
6.0587354e-07
-3.1826245e-08
6.1740995e-07
-3.611582e-08
6.3642174e-07
-3.2948226e-08
6.3534919e-07
-1.5433895e-08
5.1763094e-07
1.9788719e-07
9.5968826e-09
1.4867261e-07
2.9451211e-08
4.6112735e-07
3.7996693e-08
6.321139e-07
3.5361553e-08
6.5579467e-07
3.0780465e-08
6.3324316e-07
2.7288591e-08
6.1624782e-07
2.4419069e-08
6.0704686e-07
2.1800453e-08
6.0083215e-07
1.9377366e-08
5.9598627e-07
1.7139465e-08
5.9213521e-07
1.506987e-08
5.8906633e-07
1.3149784e-08
5.8660933e-07
1.1360662e-08
5.8463716e-07
9.6845694e-09
5.8305582e-07
8.1043037e-09
5.8179494e-07
6.6034523e-09
5.8080155e-07
5.1663864e-09
5.8003598e-07
3.7781836e-09
5.7946889e-07
2.4245055e-09
5.7907931e-07
1.0914444e-09
5.788533e-07
-2.3464975e-10
5.78783e-07
-1.5673513e-09
5.7886621e-07
-2.9203496e-09
5.7910627e-07
-4.3076318e-09
5.7951224e-07
-5.7436564e-09
5.8009946e-07
-7.2435084e-09
5.8089051e-07
-8.823025e-09
5.8191671e-07
-1.0498874e-08
5.8322035e-07
-1.2288586e-08
5.8485781e-07
-1.4210544e-08
5.8690425e-07
-1.628381e-08
5.8946063e-07
-1.8527243e-08
5.9266319e-07
-2.0956889e-08
5.966881e-07
-2.3606761e-08
6.0180388e-07
-2.6688403e-08
6.0895518e-07
-3.0610477e-08
6.2133202e-07
-3.3788207e-08
6.3959947e-07
-2.915787e-08
6.3071885e-07
-1.2413653e-08
5.0088672e-07
1.8547354e-07
7.5007665e-09
1.4117552e-07
2.5567235e-08
4.4306757e-07
3.5056233e-08
6.2262854e-07
3.3785716e-08
6.5706527e-07
2.9756239e-08
6.3727206e-07
2.6512032e-08
6.1949185e-07
2.3873472e-08
6.0968542e-07
2.145695e-08
6.0324868e-07
1.9190098e-08
5.9825313e-07
1.7068198e-08
5.9425711e-07
1.5082048e-08
5.9105248e-07
1.3219024e-08
5.8847235e-07
1.1465777e-08
5.863904e-07
9.8087627e-09
5.8471284e-07
8.2344478e-09
5.8336925e-07
6.7294701e-09
5.8230653e-07
5.2807414e-09
5.8148471e-07
3.8754781e-09
5.8087415e-07
2.5011794e-09
5.8045361e-07
1.1455691e-09
5.8020891e-07
-2.034887e-10
5.8013206e-07
-1.5580862e-09
5.8022081e-07
-2.9303778e-09
5.8047856e-07
-4.3326773e-09
5.8091454e-07
-5.7775404e-09
5.8154432e-07
-7.2778239e-09
5.8239079e-07
-8.8467072e-09
5.834856e-07
-1.0497661e-08
5.848713e-07
-1.2244359e-08
5.8660451e-07
-1.410056e-08
5.8876045e-07
-1.6079803e-08
5.9143987e-07
-1.8194127e-08
5.9477751e-07
-2.045262e-08
5.989466e-07
-2.2893821e-08
6.0424508e-07
-2.5741205e-08
6.1180256e-07
-2.9243492e-08
6.2483431e-07
-3.1386029e-08
6.4174201e-07
-2.5687596e-08
6.2502042e-07
-9.9562685e-09
4.8515539e-07
1.7551727e-07
5.9396758e-09
1.3524028e-07
2.2268412e-08
4.2674708e-07
3.2285872e-08
6.1261604e-07
3.2183789e-08
6.5716781e-07
2.8696526e-08
6.4075862e-07
2.5676276e-08
6.2251184e-07
2.323725e-08
6.1212444e-07
2.1005914e-08
6.0548003e-07
1.8889667e-08
6.0036938e-07
1.6884746e-08
5.9626203e-07
1.4987397e-08
5.9294983e-07
1.3189716e-08
5.9027003e-07
1.1482458e-08
5.8809766e-07
9.8557041e-09
5.8633959e-07
8.2990732e-09
5.8492588e-07
6.8019274e-09
5.8380367e-07
5.3535315e-09
5.829331e-07
3.94315e-09
5.8228453e-07
2.5600969e-09
5.8183667e-07
1.1937478e-09
5.8157526e-07
-1.6647485e-10
5.8149228e-07
-1.5311295e-09
5.8158546e-07
-2.9107927e-09
5.8185822e-07
-4.316086e-09
5.8231983e-07
-5.7576889e-09
5.8298592e-07
-7.2463236e-09
5.8387942e-07
-8.7927041e-09
5.8503198e-07
-1.0407434e-08
5.8648603e-07
-1.210085e-08
5.8829793e-07
-1.3882846e-08
5.9054245e-07
-1.57625e-08
5.9331953e-07
-1.7746616e-08
5.9676163e-07
-1.9840358e-08
6.0104034e-07
-2.2090159e-08
6.0649488e-07
-2.472043e-08
6.1443284e-07
-2.7805202e-08
6.2791908e-07
-2.9022885e-08
6.4295969e-07
-2.2592157e-08
6.1858969e-07
-7.9930587e-09
4.705563e-07
1.6752421e-07
4.7909161e-09
1.3045475e-07
1.9495989e-08
4.1205207e-07
2.9733459e-08
6.0238512e-07
3.0607532e-08
6.5629472e-07
2.764007e-08
6.4372527e-07
2.4822846e-08
6.2532868e-07
2.2551871e-08
6.1439539e-07
2.0484838e-08
6.0754708e-07
1.8508859e-08
6.0234536e-07
1.6617237e-08
5.9815366e-07
1.4809613e-08
5.9475745e-07
1.3081488e-08
5.9199816e-07
1.1426707e-08
5.8975244e-07
9.8382149e-09
5.8792808e-07
8.3082396e-09
5.8645586e-07
6.8284913e-09
5.8528342e-07
5.3903357e-09
5.8437126e-07
3.9849271e-09
5.8368994e-07
2.6033008e-09
5.8321829e-07
1.236434e-09
5.8294213e-07
-1.2471836e-10
5.8285344e-07
-1.4891991e-09
5.8294994e-07
-2.8660341e-09
5.8323506e-07
-4.2642062e-09
5.8371801e-07
-5.692616e-09
5.8441433e-07
-7.1600169e-09
5.8534683e-07
-8.6749173e-09
5.8654688e-07
-1.0245441e-08
5.8805656e-07
-1.1879148e-08
5.8993163e-07
-1.3582844e-08
5.9224615e-07
-1.5362177e-08
5.9509886e-07
-1.7220243e-08
5.986197e-07
-1.9161021e-08
6.0298112e-07
-2.1240394e-08
6.0857425e-07
-2.3671977e-08
6.1686442e-07
-2.6353637e-08
6.3060074e-07
-2.6770251e-08
6.433763e-07
-1.9880444e-08
6.1169988e-07
-6.4482075e-09
4.5712406e-07
1.61076e-07
3.9521696e-09
1.2650916e-07
1.7177325e-08
3.9883912e-07
2.7412548e-08
5.9215834e-07
2.9086973e-08
6.5462202e-07
2.6609297e-08
6.4620208e-07
2.3978129e-08
6.2795933e-07
2.1846786e-08
6.1652667e-07
1.9922215e-08
6.0947167e-07
1.8073742e-08
6.0419384e-07
1.628886e-08
5.9993854e-07
1.4568842e-08
5.9647747e-07
1.2911484e-08
5.9365552e-07
1.1312835e-08
5.9135109e-07
9.7680051e-09
5.8947291e-07
8.2713069e-09
5.8795256e-07
6.8164084e-09
5.8673832e-07
5.3964952e-09
5.8579117e-07
4.0044114e-09
5.8508202e-07
2.6327737e-09
5.8458993e-07
1.2740605e-09
5.8430084e-07
-7.9318267e-11
5.8420682e-07
-1.4349603e-09
5.8430559e-07
-2.8004209e-09
5.8460052e-07
-4.1831476e-09
5.8510073e-07
-5.590409e-09
5.858216e-07
-7.0291986e-09
5.8678562e-07
-8.5061135e-09
5.8802379e-07
-1.0027205e-08
5.8957765e-07
-1.1597808e-08
5.9150224e-07
-1.3222369e-08
5.9387071e-07
-1.4904034e-08
5.9678053e-07
-1.6643552e-08
6.0035922e-07
-1.8445933e-08
6.047835e-07
-2.0376451e-08
6.1050477e-07
-2.2626998e-08
6.1911497e-07
-2.4927811e-08
6.3290155e-07
-2.4667243e-08
6.4311573e-07
-1.7533495e-08
6.0456614e-07
-5.2472388e-09
4.448378e-07
1.5582876e-07
3.3408331e-09
1.2317641e-07
1.5238476e-08
3.8695621e-07
2.5316125e-08
5.8209141e-07
2.7636913e-08
6.5230392e-07
2.561528e-08
6.4822283e-07
2.3157184e-08
6.3041673e-07
2.1141582e-08
6.1854216e-07
1.9338662e-08
6.1127461e-07
1.7604219e-08
6.0592829e-07
1.5918078e-08
6.0162468e-07
1.428168e-08
5.9811387e-07
1.269423e-08
5.9524297e-07
1.115326e-08
5.9289206e-07
9.6554486e-09
5.9097073e-07
8.1967126e-09
5.8941129e-07
6.7723066e-09
5.8816273e-07
5.3769506e-09
5.8718653e-07
4.004961e-09
5.8645401e-07
2.650369e-09
5.8594452e-07
1.307022e-09
5.8564419e-07
-3.1326948e-11
5.8554517e-07
-1.3709402e-09
5.856452e-07
-2.7180143e-09
5.8594759e-07
-4.0785992e-09
5.8646132e-07
-5.4585064e-09
5.872015e-07
-6.8631982e-09
5.8819031e-07
-8.2976618e-09
5.8945826e-07
-9.7662697e-09
5.9104626e-07
-1.1272637e-08
5.930086e-07
-1.2819487e-08
5.9541756e-07
-1.4408255e-08
5.983693e-07
-1.6038492e-08
6.0198945e-07
-1.7717883e-08
6.0646289e-07
-1.9519774e-08
6.1230666e-07
-2.1605164e-08
6.2120036e-07
-2.3551849e-08
6.3484824e-07
-2.2730086e-08
6.4229397e-07
-1.5516953e-08
5.97353e-07
-4.3216884e-09
4.3364254e-07
1.5150708e-07
2.8923718e-09
1.2029405e-07
1.3610866e-08
3.7625548e-07
2.3425939e-08
5.7228975e-07
2.6261876e-08
6.494719e-07
2.4661592e-08
6.4982229e-07
2.2367176e-08
6.3271028e-07
2.0448368e-08
6.2046078e-07
1.8748437e-08
6.1297456e-07
1.7114951e-08
6.0756179e-07
1.5519125e-08
6.0322051e-07
1.3961399e-08
5.9967159e-07
1.2441697e-08
5.9676267e-07
1.0958476e-08
5.9437528e-07
9.5094914e-09
5.9241971e-07
8.0918581e-09
5.9082893e-07
6.7020806e-09
5.8955251e-07
5.3361427e-09
5.8855247e-07
3.9896155e-09
5.8780054e-07
2.6577667e-09
5.8727637e-07
1.3356637e-09
5.8696629e-07
1.8269085e-11
5.8686256e-07
-1.2994697e-09
5.8696294e-07
-2.6225282e-09
5.8727065e-07
-3.9557134e-09
5.877945e-07
-5.3035647e-09
5.8854935e-07
-6.6702428e-09
5.8955699e-07
-8.0594119e-09
5.9084743e-07
-9.4741231e-09
5.9246097e-07
-1.0916712e-08
5.9445119e-07
-1.2388704e-08
5.9688955e-07
-1.3890472e-08
5.9987106e-07
-1.542131e-08
6.0352029e-07
-1.6992648e-08
6.0803423e-07
-1.8683711e-08
6.1399773e-07
-2.0617557e-08
6.231342e-07
-2.2238532e-08
6.3646921e-07
-2.0959386e-08
6.4101483e-07
-1.3789443e-08
5.9018306e-07
-3.6116385e-09
4.2346474e-07
1.4789544e-07
2.5580549e-09
1.1774846e-07
1.2234657e-08
3.6660024e-07
2.1718851e-08
5.6282215e-07
2.4959864e-08
6.4623636e-07
2.3747009e-08
6.5103448e-07
2.1609942e-08
6.3484627e-07
1.9773787e-08
6.2229666e-07
1.816089e-08
6.1458747e-07
1.6616364e-08
6.0910634e-07
1.5102669e-08
6.0473421e-07
1.3618347e-08
6.0115592e-07
1.2163513e-08
5.982175e-07
1.0737136e-08
5.9580166e-07
9.3376681e-09
5.9381918e-07
7.9630834e-09
5.9220351e-07
6.6108482e-09
5.9090474e-07
5.277966e-09
5.8988535e-07
3.961057e-09
5.8911745e-07
2.6564501e-09
5.8858098e-07
1.3602784e-09
5.8826246e-07
6.8572923e-11
5.8815427e-07
-1.2226467e-09
5.8825416e-07
-2.517279e-09
5.8856529e-07
-3.8190471e-09
5.8909627e-07
-5.1314011e-09
5.8986171e-07
-6.4574171e-09
5.90883e-07
-7.7996964e-09
5.9218971e-07
-9.1602777e-09
5.9382155e-07
-1.0540581e-08
5.958315e-07
-1.1941357e-08
5.9829033e-07
-1.3362421e-08
6.0129213e-07
-1.480355e-08
6.0496142e-07
-1.6280454e-08
6.0951113e-07
-1.7875507e-08
6.1559278e-07
-1.9668943e-08
6.2492764e-07
-2.0992342e-08
6.3779261e-07
-1.9345931e-08
6.3936842e-07
-1.2308247e-08
5.8314538e-07
-3.0666874e-09
4.1422318e-07
1.4482875e-07
2.302245e-09
1.1546175e-07
1.1059842e-08
3.5786837e-07
2.0170911e-08
5.5373144e-07
2.3725238e-08
6.4268942e-07
2.2867516e-08
6.5189182e-07
2.0883883e-08
6.3682861e-07
1.9120589e-08
6.2405956e-07
1.7581672e-08
6.1612638e-07
1.6115563e-08
6.1057247e-07
1.4676472e-08
6.061733e-07
1.3260395e-08
6.0257199e-07
1.1867254e-08
5.9961064e-07
1.0496232e-08
5.9717268e-07
9.1461952e-09
5.9516922e-07
7.8157084e-09
5.93534e-07
6.5029605e-09
5.9221749e-07
5.2057637e-09
5.9118255e-07
3.9216013e-09
5.9040161e-07
2.647699e-09
5.8985488e-07
1.3811059e-09
5.8952906e-07
1.1878111e-10
5.8941659e-07
-1.1423227e-09
5.8951526e-07
-2.4051682e-09
5.8982813e-07
-3.6725484e-09
5.9036365e-07
-4.9469964e-09
5.9113616e-07
-6.2306991e-09
5.9216671e-07
-7.5254194e-09
5.9348443e-07
-8.8324421e-09
5.9512857e-07
-1.0152561e-08
5.9715162e-07
-1.1486069e-08
5.9962383e-07
-1.2832612e-08
6.0263867e-07
-1.4192986e-08
6.0632179e-07
-1.558726e-08
6.1090541e-07
-1.7097969e-08
6.1710349e-07
-1.8759687e-08
6.2658936e-07
-1.9812162e-08
6.3884509e-07
-1.7875203e-08
6.3743146e-07
-1.1032863e-08
5.7630304e-07
-2.6457856e-09
4.058361e-07
1.4218297e-07
2.0996403e-09
1.1338139e-07
1.0045864e-08
3.4995312e-07
1.8759636e-08
5.4504246e-07
2.2550772e-08
6.3890803e-07
2.2017784e-08
6.5242487e-07
2.0185401e-08
6.3865949e-07
1.8488888e-08
6.2575554e-07
1.7013734e-08
6.176015e-07
1.5617111e-08
6.1196912e-07
1.4245981e-08
6.0754444e-07
1.289338e-08
6.039246e-07
1.1558754e-08
6.0094527e-07
1.0241305e-08
5.9849013e-07
8.940108e-09
5.9647041e-07
7.6541161e-09
5.9481999e-07
6.3820499e-09
5.9348956e-07
5.1223531e-09
5.9244224e-07
3.8732105e-09
5.9165076e-07
2.6325956e-09
5.910955e-07
1.3983353e-09
5.9076332e-07
1.6818378e-10
5.9064674e-07
-1.0601039e-09
5.9074355e-07
-2.28869e-09
5.9105672e-07
-3.5195789e-09
5.9159454e-07
-4.7545409e-09
5.9237112e-07
-5.9950435e-09
5.9340721e-07
-7.2421986e-09
5.9473158e-07
-8.4967415e-09
5.9638312e-07
-9.7590589e-09
5.9841393e-07
-1.1029218e-08
6.0089399e-07
-1.2306966e-08
6.0391642e-07
-1.3594476e-08
6.076093e-07
-1.491588e-08
6.1222681e-07
-1.6350886e-08
6.185385e-07
-1.7887368e-08
6.2812584e-07
-1.8693502e-08
6.3965122e-07
-1.6530582e-08
6.3526854e-07
-9.9271954e-09
5.6969965e-07
-2.3164479e-09
3.9822535e-07
1.3986652e-07
1.932793e-09
1.1147234e-07
9.1604912e-09
3.4276278e-07
1.7465058e-08
5.3676794e-07
2.1428933e-08
6.3495674e-07
2.1192156e-08
6.5266234e-07
1.9509937e-08
6.4034e-07
1.7877144e-08
6.2738762e-07
1.6458145e-08
6.1902044e-07
1.5123698e-08
6.133036e-07
1.3814867e-08
6.0885328e-07
1.2521516e-08
6.0521795e-07
1.1242419e-08
6.0222437e-07
9.9766704e-09
5.9975588e-07
8.7234193e-09
5.9772367e-07
7.4818617e-09
5.9606155e-07
6.2511014e-09
5.9472032e-07
5.0300708e-09
5.9366327e-07
3.8175197e-09
5.9286331e-07
2.6120401e-09
5.9230098e-07
1.4121126e-09
5.9196325e-07
2.1616564e-10
5.9184269e-07
-9.773629e-10
5.9193708e-07
-2.1699565e-09
5.9224931e-07
-3.3629578e-09
5.9278754e-07
-4.5575075e-09
5.9356567e-07
-5.7544953e-09
5.946042e-07
-6.9545316e-09
5.9593162e-07
-8.1579581e-09
5.9758655e-07
-9.3649106e-09
5.9962089e-07
-1.0575382e-08
6.0210446e-07
-1.1789406e-08
6.0513045e-07
-1.301073e-08
6.0883063e-07
-1.426697e-08
6.1348305e-07
-1.5632191e-08
6.1990372e-07
-1.7048046e-08
6.295417e-07
-1.7630167e-08
6.4023335e-07
-1.529532e-08
6.3293369e-07
-8.960029e-09
5.6336436e-07
-2.0535227e-09
3.9131885e-07
1.37813e-07
1.7900206e-09
1.0971125e-07
8.3784509e-09
3.362194e-07
1.6270003e-08
5.2891263e-07
2.0352596e-08
6.3089015e-07
2.0385235e-08
6.5263127e-07
1.8852662e-08
6.4187068e-07
1.7282888e-08
6.2895649e-07
1.5914739e-08
6.2038847e-07
1.4636684e-08
6.1458168e-07
1.3385474e-08
6.101045e-07
1.214776e-08
6.0645566e-07
1.0921508e-08
6.0345062e-07
9.7056347e-09
6.0097176e-07
8.4992828e-09
5.9893002e-07
7.3017907e-09
5.9725904e-07
6.1125364e-09
5.9590957e-07
4.9308298e-09
5.9484498e-07
3.7558742e-09
5.9403826e-07
2.5867708e-09
5.9347008e-07
1.4225468e-09
5.9312747e-07
2.6219894e-10
5.9300304e-07
-8.9525769e-10
5.9309454e-07
-2.0507346e-09
5.9340479e-07
-3.2050212e-09
5.9394183e-07
-4.3587401e-09
5.9471939e-07
-5.5123169e-09
5.9575777e-07
-6.6659748e-09
5.9708528e-07
-7.8197735e-09
5.9874034e-07
-8.9736999e-09
6.0077481e-07
-1.0127764e-08
6.0325853e-07
-1.1282394e-08
6.0628508e-07
-1.2442975e-08
6.0999121e-07
-1.3639821e-08
6.146799e-07
-1.4938839e-08
6.2120273e-07
-1.6237184e-08
6.3084004e-07
-1.6615413e-08
6.4061158e-07
-1.4153747e-08
6.3047203e-07
-8.1051486e-09
5.5731576e-07
-1.8379783e-09
3.8505168e-07
1.3597502e-07
1.663718e-09
1.0808241e-07
7.680065e-09
3.3025738e-07
1.5159992e-08
5.2147629e-07
1.9315389e-08
6.2675486e-07
1.959219e-08
6.5235718e-07
1.8208905e-08
6.4325192e-07
1.6703223e-08
6.3046104e-07
1.53826e-08
6.2170892e-07
1.4156547e-08
6.1580777e-07
1.2959208e-08
6.1130186e-07
1.1774133e-08
6.0764074e-07
1.0598397e-08
6.0462635e-07
9.4307056e-09
6.0213945e-07
8.2701534e-09
6.0009057e-07
7.1161599e-09
5.9841304e-07
5.9683017e-09
5.9705743e-07
4.8261819e-09
5.959871e-07
3.6893703e-09
5.9517508e-07
2.5573878e-09
5.9460207e-07
1.4297181e-09
5.9425514e-07
3.0583617e-10
5.9412692e-07
-8.1475606e-10
5.9421513e-07
-1.9324885e-09
5.9452252e-07
-3.0476878e-09
5.9505703e-07
-4.1605482e-09
5.9583225e-07
-5.271119e-09
5.9686834e-07
-6.3793192e-09
5.9819348e-07
-7.4849999e-09
5.9984603e-07
-8.588057e-09
6.0187787e-07
-9.688561e-09
6.0435903e-07
-1.0787381e-08
6.073839e-07
-1.1891487e-08
6.1109532e-07
-1.3032984e-08
6.158214e-07
-1.426747e-08
6.2243722e-07
-1.5450302e-08
6.3202287e-07
-1.564275e-08
6.4080402e-07
-1.3091962e-08
6.2792124e-07
-7.3410559e-09
5.5156486e-07
-1.6557568e-09
3.7936638e-07
1.3431926e-07
1.5490461e-09
1.0657504e-07
7.0500238e-09
3.2482187e-07
1.4122925e-08
5.1445567e-07
1.8311807e-08
6.2259097e-07
1.8808903e-08
6.5186427e-07
1.7574414e-08
6.4448428e-07
1.6135182e-08
6.3189889e-07
1.4860424e-08
6.2298341e-07
1.3683212e-08
6.16985e-07
1.2536839e-08
6.1244825e-07
1.1401991e-08
6.0877559e-07
1.0274808e-08
6.0575354e-07
9.153777e-09
6.0326048e-07
8.037936e-09
6.0120641e-07
6.9267535e-09
5.9952422e-07
5.8199561e-09
5.9816423e-07
4.7173812e-09
5.9708968e-07
3.6188983e-09
5.9627356e-07
2.5243774e-09
5.9569659e-07
1.4336855e-09
5.9534583e-07
3.467016e-10
5.9521391e-07
-7.366608e-10
5.9529849e-07
-1.8164242e-09
5.9560229e-07
-2.8925255e-09
5.9613313e-07
-3.9648006e-09
5.9690453e-07
-5.0329865e-09
5.9793653e-07
-6.0967544e-09
5.9925725e-07
-7.1557886e-09
6.0090506e-07
-8.2099172e-09
6.02932e-07
-9.2592765e-09
6.0540839e-07
-1.0305177e-08
6.084298e-07
-1.1356028e-08
6.1214617e-07
-1.2444744e-08
6.1691011e-07
-1.3614878e-08
6.2360736e-07
-1.4683439e-08
6.3309143e-07
-1.4706463e-08
6.4082705e-07
-1.2098135e-08
6.2531291e-07
-6.6504798e-09
5.461172e-07
-1.4967379e-09
3.7421264e-07
1.3282252e-07
1.4429519e-09
1.0518142e-07
6.4763457e-09
3.1986726e-07
1.3148722e-08
5.0784586e-07
1.7337217e-08
6.1843324e-07
1.8032013e-08
6.5117553e-07
1.6945502e-08
6.4556864e-07
1.5575958e-08
6.3326676e-07
1.4346777e-08
6.2421222e-07
1.3216316e-08
6.1811548e-07
1.2118752e-08
6.1354584e-07
1.1032244e-08
6.0986211e-07
9.9519981e-09
6.0683378e-07
8.8762918e-09
6.0433619e-07
7.8041185e-09
6.0227859e-07
6.7349888e-09
6.0059335e-07
5.6687529e-09
5.9923047e-07
4.6054437e-09
5.9815299e-07
3.5451828e-09
5.9733382e-07
2.4881355e-09
5.9675363e-07
1.4344944e-09
5.9639947e-07
3.8448257e-10
5.9626392e-07
-6.6163513e-10
5.9634461e-07
-1.7035334e-09
5.9664418e-07
-2.7408163e-09
5.9717042e-07
-3.7730133e-09
5.9793672e-07
-4.7995941e-09
5.9896311e-07
-5.8200152e-09
6.0027767e-07
-6.833812e-09
6.0191886e-07
-7.8407405e-09
6.0393893e-07
-8.8409815e-09
6.0640864e-07
-9.8362501e-09
6.0942507e-07
-1.0836172e-08
6.1314609e-07
-1.1873472e-08
6.1794741e-07
-1.2978353e-08
6.2471224e-07
-1.3933454e-08
6.3404654e-07
-1.3801927e-08
6.4069552e-07
-1.1162593e-08
6.2267358e-07
-6.0198065e-09
5.4097442e-07
-1.3538429e-09
3.6954667e-07
1.3146868e-07
1.3434638e-09
1.0389585e-07
5.9495448e-09
3.1535575e-07
1.2228976e-08
5.0164117e-07
1.6387802e-08
6.1431202e-07
1.7258919e-08
6.5031278e-07
1.6319142e-08
6.4650635e-07
1.5023083e-08
6.3456085e-07
1.3840297e-08
6.2539451e-07
1.275541e-08
6.1920037e-07
1.1705136e-08
6.1459615e-07
1.0665542e-08
6.1090171e-07