/*--------------------------------*- C++ -*----------------------------------*\
  =========                 |
  \\      /  F ield         | OpenFOAM: The Open Source CFD Toolbox
   \\    /   O peration     | Website:  https://openfoam.org
    \\  /    A nd           | Version:  10
     \\/     M anipulation  |
\*---------------------------------------------------------------------------*/
FoamFile
{
    format      ascii;
    class       volScalarField;
    location    "0.11";
    object      T;
}
// * * * * * * * * * * * * * * * * * * * * * * * * * * * * * * * * * * * * * //

dimensions      [0 0 0 1 0 0 0];

internalField   nonuniform List<scalar> 
4000
(
303.10126
299.34299
299.99042
300.00082
299.99993
300
300
300
300
300
300
300
300
300
300
300
300
300
300
300
300
300
300
300
300
300
300
300
300
300
300
300
300
300
300
300
300
300
300
300.00001
309.66287
298.49318
299.77929
300.00184
300.0008
299.99999
300
300
300
300
300
300
300
300
300
300
300
300
300
300
300
300
300
300
300
300
300
300
300
300
300
300
300
300
300
300
300
300
299.99999
300.00002
316.00277
298.68462
299.39249
299.97572
300.00405
300.00025
299.99999
300
300
300
300
300
300
300
300
300
300
300
300
300
300
300
300
300
300
300
300
300
300
300
300
300
300
300
300
300
300
299.99999
299.99999
300.00002
321.73946
299.8453
298.98534
299.89503
300.00715
300.00138
300
299.99999
300
300
300
300
300
300
300
300
300
300
300
300
300
300
300
300
300
300
300
300
300
300
300
300
300
300
300
300
299.99999
299.99999
299.99999
300.00003
326.66652
301.69853
298.7107
299.75347
300.00322
300.00377
300.00017
299.99998
300
300
300
300
300
300
300
300
300
300
300
300
300
300
300
300
300
300
300
300
300
300
300
300
300
300
299.99999
299.99999
299.99999
299.99998
299.99999
300.00004
330.67839
303.94392
298.66383
299.56899
299.98432
300.00694
300.00071
299.99996
299.99999
300
300
300
300
300
300
300
300
300
300
300
300
300
300
300
300
300
300
300
300
300
300
300
300
299.99999
299.99999
299.99999
299.99999
299.99998
300
300.00004
333.76543
306.32367
298.87081
299.37483
299.94537
300.00934
300.00179
300
299.99998
299.99999
300
300
300
300
300
300
300
300
300
300
300
300
300
300
300
300
300
300
300
300
300
300
299.99999
299.99999
299.99999
299.99999
299.99998
299.99998
300
300.00004
336.01051
308.65323
299.30638
299.20539
299.88625
300.00887
300.00342
300.00014
299.99996
299.99999
300
300
300
300
300
300
300
300
300
300
300
300
300
300
300
300
300
300
300
300
300
299.99999
299.99999
299.99999
299.99999
299.99999
299.99998
299.99998
300.00001
300.00004
337.56018
310.82175
299.92066
299.08653
299.81137
300.00353
300.00537
300.00045
299.99995
299.99999
299.99999
300
300
300
300
300
300
300
300
300
300
300
300
300
300
300
300
300
300
300
299.99999
299.99999
299.99999
299.99999
299.99999
299.99998
299.99998
299.99998
300.00001
300.00004
338.58573
312.77646
300.65896
299.03257
299.72775
299.99204
300.00718
300.00098
299.99996
299.99998
299.99999
299.99999
300
300
300
300
300
300
300
300
300
300
300
300
300
300
300
300
299.99999
299.99999
299.99999
299.99999
299.99999
299.99999
299.99999
299.99998
299.99998
299.99998
300.00001
300.00004
339.24969
314.5044
301.47252
299.04778
299.64311
299.974
300.00832
300.00172
300
299.99996
299.99999
299.99999
299.99999
299.99999
300
300
300
300
300
300
300
300
300
300
300
300
300
299.99999
299.99999
299.99999
299.99999
299.99999
299.99999
299.99999
299.99998
299.99998
299.99998
299.99999
300.00002
300.00004
339.68516
316.01673
302.32283
299.12935
299.56444
299.94988
300.00826
300.00263
300.00011
299.99995
299.99999
299.99999
299.99999
299.99999
299.99999
300
300
300
300
300
300
300
300
300
300
300
299.99999
299.99999
299.99999
299.99999
299.99999
299.99999
299.99999
299.99999
299.99998
299.99998
299.99997
299.99999
300.00002
300.00004
339.98853
317.33672
303.1821
299.27043
299.49728
299.9208
300.00657
300.0036
300.00028
299.99995
299.99998
299.99999
299.99999
299.99999
299.99999
299.99999
299.99999
299.99999
300
300
300
300
300
299.99999
299.99999
299.99999
299.99999
299.99999
299.99999
299.99999
299.99999
299.99999
299.99999
299.99998
299.99998
299.99998
299.99998
299.99999
300.00002
300.00003
340.22224
318.49165
304.03175
299.46247
299.4455
299.88822
300.00296
300.00451
300.00054
299.99995
299.99998
299.99999
299.99999
299.99999
299.99999
299.99999
299.99999
299.99999
299.99999
299.99999
299.99999
299.99999
299.99999
299.99999
299.99999
299.99999
299.99999
299.99999
299.99999
299.99999
299.99999
299.99999
299.99999
299.99998
299.99998
299.99997
299.99998
299.99999
300.00003
300.00003
340.42255
319.5081
304.86021
299.69674
299.41149
299.85375
299.99732
300.00522
300.00086
299.99997
299.99997
299.99999
299.99999
299.99999
299.99999
299.99999
299.99999
299.99999
299.99999
299.99999
299.99999
299.99999
299.99999
299.99999
299.99999
299.99999
299.99999
299.99999
299.99999
299.99999
299.99999
299.99999
299.99999
299.99998
299.99998
299.99997
299.99998
300
300.00003
300.00003
340.60799
320.40958
305.66085
299.9651
299.3964
299.81899
299.98968
300.0056
300.00124
300.00001
299.99996
299.99999
299.99999
299.99999
299.99999
299.99999
299.99999
299.99999
299.99999
299.99999
299.99999
299.99999
299.99999
299.99999
299.99999
299.99999
299.99999
299.99999
299.99999
299.99999
299.99999
299.99999
299.99998
299.99998
299.99998
299.99997
299.99998
300
300.00003
300.00003
340.78635
321.21575
306.43029
300.2604
299.40046
299.78539
299.98019
300.00553
300.00166
300.00008
299.99996
299.99998
299.99999
299.99999
299.99999
299.99999
299.99999
299.99999
299.99999
299.99999
299.99999
299.99999
299.99999
299.99999
299.99999
299.99999
299.99999
299.99999
299.99999
299.99999
299.99999
299.99999
299.99998
299.99998
299.99998
299.99997
299.99998
300
300.00003
300.00003
340.9596
321.94239
307.16715
300.57649
299.42328
299.75422
299.9691
300.00492
300.00207
300.00016
299.99996
299.99998
299.99999
299.99999
299.99999
299.99999
299.99999
299.99999
299.99999
299.99999
299.99999
299.99999
299.99999
299.99999
299.99999
299.99999
299.99999
299.99999
299.99999
299.99999
299.99999
299.99998
299.99998
299.99998
299.99998
299.99997
299.99998
300.00001
300.00003
300.00003
341.12695
322.60179
307.8712
300.90816
299.46401
299.72655
299.95674
300.00369
300.00245
300.00028
299.99996
299.99998
299.99999
299.99999
299.99999
299.99999
299.99999
299.99999
299.99999
299.99999
299.99999
299.99999
299.99999
299.99999
299.99999
299.99999
299.99999
299.99999
299.99999
299.99999
299.99999
299.99998
299.99998
299.99998
299.99997
299.99997
299.99998
300.00001
300.00003
300.00003
341.28664
323.2033
308.54274
301.25101
299.52154
299.70322
299.94345
300.00183
300.00276
300.00041
299.99997
299.99998
299.99999
299.99999
299.99999
299.99999
299.99999
299.99999
299.99999
299.99999
299.99999
299.99999
299.99999
299.99999
299.99999
299.99999
299.99999
299.99999
299.99999
299.99999
299.99998
299.99998
299.99998
299.99998
299.99997
299.99997
299.99998
300.00001
300.00003
300.00003
341.43684
323.75391
309.18234
301.60129
299.59459
299.68491
299.92961
299.99933
300.00297
300.00056
299.99999
299.99997
299.99998
299.99999
299.99999
299.99999
299.99999
299.99999
299.99999
299.99999
299.99999
299.99999
299.99999
299.99999
299.99999
299.99999
299.99999
299.99999
299.99999
299.99999
299.99998
299.99998
299.99998
299.99998
299.99997
299.99997
299.99999
300.00001
300.00003
300.00002
341.57607
324.25876
309.79056
301.9558
299.68175
299.67211
299.9156
299.9962
300.00304
300.00072
300.00002
299.99997
299.99998
299.99999
299.99999
299.99999
299.99999
299.99999
299.99999
299.99999
299.99999
299.99999
299.99999
299.99999
299.99999
299.99999
299.99999
299.99999
299.99999
299.99998
299.99998
299.99998
299.99998
299.99998
299.99997
299.99997
299.99999
300.00001
300.00003
300.00002
341.70324
324.72153
310.36787
302.31173
299.78161
299.66514
299.9018
299.9925
300.00295
300.00088
300.00005
299.99997
299.99998
299.99999
299.99999
299.99999
299.99999
299.99999
299.99999
299.99999
299.99999
299.99999
299.99999
299.99999
299.99999
299.99999
299.99999
299.99999
299.99999
299.99998
299.99998
299.99998
299.99998
299.99998
299.99997
299.99997
299.99999
300.00002
300.00003
300.00002
341.81761
325.14481
310.91459
302.6666
299.89268
299.6642
299.88855
299.98829
300.00268
300.00103
300.00009
299.99997
299.99998
299.99998
299.99999
299.99999
299.99999
299.99999
299.99999
299.99999
299.99999
299.99999
299.99999
299.99999
299.99999
299.99999
299.99999
299.99999
299.99998
299.99998
299.99998
299.99998
299.99998
299.99997
299.99997
299.99998
299.99999
300.00002
300.00003
300.00003
341.91862
325.53028
311.43082
303.01818
300.0135
299.66933
299.87617
299.98365
300.00221
300.00117
300.00013
299.99997
299.99998
299.99998
299.99999
299.99999
299.99999
299.99999
299.99999
299.99999
299.99999
299.99999
299.99999
299.99999
299.99999
299.99999
299.99999
299.99998
299.99998
299.99998
299.99998
299.99998
299.99998
299.99997
299.99997
299.99998
299.99999
300.00002
300.00003
300.00003
342.00584
325.8789
311.91643
303.36439
300.14261
299.6805
299.86497
299.97868
300.00154
300.00127
300.00018
299.99998
299.99998
299.99998
299.99998
299.99999
299.99999
299.99999
299.99999
299.99999
299.99999
299.99999
299.99999
299.99999
299.99999
299.99999
299.99998
299.99998
299.99998
299.99998
299.99998
299.99998
299.99998
299.99997
299.99997
299.99998
299.99999
300.00002
300.00003
300.00003
342.07888
326.19105
312.37108
303.7033
300.27853
299.69755
299.8552
299.97349
300.00067
300.00134
300.00024
299.99999
299.99998
299.99998
299.99998
299.99998
299.99998
299.99999
299.99999
299.99999
299.99999
299.99999
299.99999
299.99999
299.99998
299.99998
299.99998
299.99998
299.99998
299.99998
299.99998
299.99998
299.99998
299.99997
299.99997
299.99998
300
300.00002
300.00003
300.00004
342.13751
326.46656
312.79413
304.03306
300.41983
299.72025
299.84707
299.96819
299.9996
300.00136
300.00029
300
299.99998
299.99998
299.99998
299.99998
299.99998
299.99998
299.99998
299.99998
299.99998
299.99998
299.99998
299.99998
299.99998
299.99998
299.99998
299.99998
299.99998
299.99998
299.99998
299.99998
299.99997
299.99997
299.99997
299.99998
300
300.00002
300.00003
300.00004
342.18161
326.70491
313.18473
304.35184
300.56506
299.74828
299.84078
299.96288
299.99835
300.00134
300.00035
300.00001
299.99998
299.99998
299.99998
299.99998
299.99998
299.99998
299.99998
299.99998
299.99998
299.99998
299.99998
299.99998
299.99998
299.99998
299.99998
299.99998
299.99998
299.99998
299.99998
299.99998
299.99997
299.99997
299.99997
299.99998
300
300.00002
300.00003
300.00005
342.21136
326.90532
313.54174
304.65787
300.71279
299.78125
299.83645
299.95769
299.99693
300.00125
300.00039
300.00002
299.99998
299.99998
299.99998
299.99998
299.99998
299.99998
299.99998
299.99998
299.99998
299.99998
299.99998
299.99998
299.99998
299.99998
299.99998
299.99998
299.99998
299.99998
299.99998
299.99998
299.99997
299.99997
299.99997
299.99998
300
300.00002
300.00003
300.00005
342.22723
327.06696
313.86386
304.94936
300.86159
299.81872
299.83417
299.95273
299.99538
300.00111
300.00044
300.00004
299.99998
299.99998
299.99998
299.99998
299.99998
299.99998
299.99998
299.99998
299.99998
299.99998
299.99998
299.99998
299.99998
299.99998
299.99998
299.99998
299.99998
299.99998
299.99998
299.99998
299.99997
299.99997
299.99997
299.99998
300
300.00002
300.00004
300.00005
342.2301
327.18928
314.14966
305.22452
301.01005
299.86018
299.83401
299.94809
299.99372
300.0009
300.00047
300.00005
299.99998
299.99998
299.99998
299.99998
299.99998
299.99998
299.99998
299.99998
299.99998
299.99998
299.99998
299.99998
299.99998
299.99998
299.99998
299.99998
299.99998
299.99998
299.99998
299.99997
299.99997
299.99997
299.99997
299.99998
300
300.00002
300.00004
300.00005
342.22129
327.27231
314.39775
305.4816
301.15676
299.9051
299.83597
299.94387
299.99198
300.00064
300.00049
300.00007
299.99998
299.99998
299.99998
299.99998
299.99998
299.99998
299.99998
299.99998
299.99998
299.99998
299.99998
299.99998
299.99998
299.99998
299.99998
299.99998
299.99998
299.99998
299.99998
299.99997
299.99997
299.99997
299.99997
299.99998
300
300.00002
300.00004
300.00006
342.20257
327.317
314.60697
305.71894
301.30037
299.95288
299.84002
299.94015
299.99019
300.00031
300.0005
300.00008
299.99998
299.99998
299.99998
299.99998
299.99998
299.99998
299.99998
299.99998
299.99998
299.99998
299.99998
299.99998
299.99998
299.99998
299.99998
299.99998
299.99998
299.99998
299.99997
299.99997
299.99997
299.99997
299.99997
299.99998
300
300.00002
300.00004
300.00006
342.17614
327.32567
314.7767
305.93502
301.43956
300.00292
299.84609
299.93701
299.9884
299.99993
300.00049
300.0001
299.99999
299.99998
299.99998
299.99998
299.99998
299.99998
299.99998
299.99998
299.99998
299.99998
299.99998
299.99998
299.99998
299.99998
299.99998
299.99998
299.99998
299.99998
299.99997
299.99997
299.99997
299.99997
299.99997
299.99998
300
300.00002
300.00004
300.00006
342.14453
327.30218
314.9071
306.12861
301.57311
300.05458
299.85407
299.9345
299.98664
299.99951
300.00046
300.00011
299.99999
299.99998
299.99998
299.99998
299.99998
299.99998
299.99998
299.99998
299.99998
299.99998
299.99998
299.99998
299.99998
299.99998
299.99998
299.99998
299.99998
299.99997
299.99997
299.99997
299.99997
299.99997
299.99997
299.99998
300
300.00003
300.00004
300.00006
342.11038
327.25207
314.99942
306.29887
301.69991
300.10725
299.86383
299.93265
299.98494
299.99904
300.00042
300.00012
299.99999
299.99998
299.99998
299.99998
299.99998
299.99998
299.99998
299.99998
299.99998
299.99998
299.99998
299.99998
299.99998
299.99998
299.99998
299.99998
299.99997
299.99997
299.99997
299.99997
299.99997
299.99997
299.99997
299.99998
300
300.00003
300.00005
300.00007
342.07623
327.18238
315.05622
306.44551
301.81905
300.16032
299.8752
299.93149
299.98332
299.99855
300.00036
300.00013
300
299.99997
299.99997
299.99998
299.99998
299.99998
299.99998
299.99998
299.99998
299.99998
299.99998
299.99998
299.99998
299.99998
299.99998
299.99997
299.99997
299.99997
299.99997
299.99997
299.99997
299.99997
299.99997
299.99998
300
300.00003
300.00005
300.00007
342.04422
327.10112
315.08142
306.56888
301.92983
300.21321
299.88799
299.93103
299.98183
299.99802
300.00029
300.00013
300
299.99997
299.99997
299.99997
299.99998
299.99998
299.99998
299.99998
299.99998
299.99998
299.99998
299.99998
299.99998
299.99998
299.99997
299.99997
299.99997
299.99997
299.99997
299.99997
299.99997
299.99997
299.99997
299.99998
300
300.00003
300.00005
300.00007
342.01592
327.01646
315.08023
306.67005
302.0318
300.26541
299.90199
299.93124
299.98047
299.99749
300.0002
300.00014
300
299.99997
299.99997
299.99997
299.99997
299.99997
299.99997
299.99997
299.99997
299.99997
299.99997
299.99997
299.99997
299.99997
299.99997
299.99997
299.99997
299.99997
299.99997
299.99997
299.99997
299.99997
299.99997
299.99998
300
300.00003
300.00005
300.00007
341.99213
326.9357
315.05879
306.75077
302.12482
300.31647
299.91699
299.9321
299.97927
299.99695
300.00009
300.00013
300.00001
299.99997
299.99997
299.99997
299.99997
299.99997
299.99997
299.99997
299.99997
299.99997
299.99997
299.99997
299.99997
299.99997
299.99997
299.99997
299.99997
299.99997
299.99997
299.99997
299.99997
299.99996
299.99997
299.99998
300
300.00003
300.00005
300.00008
341.97287
326.86433
315.02376
306.81344
302.20901
300.36601
299.93275
299.93356
299.97822
299.99641
299.99998
300.00012
300.00001
299.99997
299.99997
299.99997
299.99997
299.99997
299.99997
299.99997
299.99997
299.99997
299.99997
299.99997
299.99997
299.99997
299.99997
299.99997
299.99997
299.99997
299.99997
299.99997
299.99996
299.99996
299.99997
299.99998
300
300.00003
300.00005
300.00008
341.95752
326.80539
314.98169
306.86089
302.28477
300.41377
299.94909
299.93558
299.97736
299.99588
299.99985
300.00011
300.00001
299.99997
299.99997
299.99997
299.99997
299.99997
299.99997
299.99997
299.99997
299.99997
299.99997
299.99997
299.99997
299.99997
299.99997
299.99997
299.99997
299.99997
299.99997
299.99996
299.99996
299.99996
299.99997
299.99998
300
300.00003
300.00006
300.00008
341.945
326.75922
314.93845
306.89627
302.35269
300.45956
299.96584
299.93813
299.97668
299.99538
299.99971
300.0001
300.00001
299.99997
299.99997
299.99997
299.99997
299.99997
299.99997
299.99997
299.99997
299.99997
299.99997
299.99997
299.99997
299.99997
299.99997
299.99997
299.99997
299.99997
299.99997
299.99996
299.99996
299.99996
299.99997
299.99998
300
300.00003
300.00006
300.00008
341.93402
326.72384
314.89857
306.92278
302.41353
300.50329
299.98289
299.94118
299.97619
299.9949
299.99957
300.00008
300.00001
299.99997
299.99997
299.99997
299.99997
299.99997
299.99997
299.99997
299.99997
299.99997
299.99997
299.99997
299.99997
299.99997
299.99997
299.99997
299.99997
299.99997
299.99996
299.99996
299.99996
299.99996
299.99997
299.99998
300
300.00003
300.00006
300.00008
341.92339
326.69562
314.86485
306.9435
302.46818
300.54494
300.00013
299.94472
299.97593
299.99446
299.99943
300.00005
300.00001
299.99998
299.99997
299.99997
299.99997
299.99997
299.99997
299.99997
299.99997
299.99997
299.99997
299.99997
299.99997
299.99997
299.99997
299.99997
299.99997
299.99997
299.99996
299.99996
299.99996
299.99996
299.99997
299.99998
300.00001
300.00003
300.00006
300.00009
341.91215
326.67023
314.83798
306.96113
302.51769
300.58456
300.01746
299.9487
299.97587
299.99407
299.99928
300.00003
300.00001
299.99998
299.99997
299.99997
299.99997
299.99997
299.99997
299.99997
299.99997
299.99997
299.99997
299.99997
299.99997
299.99997
299.99997
299.99997
299.99997
299.99997
299.99996
299.99996
299.99996
299.99996
299.99997
299.99998
300.00001
300.00003
300.00006
300.00009
341.89975
326.64351
314.81656
306.97767
302.56317
300.62223
300.0347
299.95303
299.976
299.99372
299.99913
300
300.00001
299.99998
299.99997
299.99997
299.99997
299.99997
299.99997
299.99997
299.99997
299.99997
299.99997
299.99997
299.99997
299.99997
299.99997
299.99997
299.99997
299.99997
299.99996
299.99996
299.99996
299.99996
299.99997
299.99998
300.00001
300.00003
300.00006
300.00009
341.88601
326.61222
314.7973
306.99407
302.60569
300.65811
300.05165
299.95752
299.97624
299.99339
299.99898
299.99997
300.00001
299.99998
299.99997
299.99997
299.99997
299.99997
299.99997
299.99997
299.99997
299.99997
299.99997
299.99997
299.99997
299.99997
299.99997
299.99997
299.99997
299.99996
299.99996
299.99996
299.99996
299.99996
299.99997
299.99998
300.00001
300.00003
300.00007
300.00009
341.87109
326.57445
314.77567
307.00993
302.64608
300.69241
300.06808
299.96194
299.97647
299.99306
299.99883
299.99993
300
299.99997
299.99996
299.99996
299.99996
299.99996
299.99996
299.99996
299.99996
299.99996
299.99996
299.99996
299.99996
299.99996
299.99996
299.99996
299.99996
299.99996
299.99996
299.99996
299.99996
299.99996
299.99997
299.99998
300
300.00003
300.00007
300.00009
341.85543
326.52971
314.74681
307.02334
302.68463
300.72534
300.0838
299.96605
299.97659
299.99268
299.99867
299.99989
299.99999
299.99997
299.99996
299.99995
299.99995
299.99995
299.99995
299.99995
299.99995
299.99995
299.99995
299.99995
299.99995
299.99995
299.99995
299.99995
299.99995
299.99995
299.99995
299.99995
299.99995
299.99996
299.99997
299.99998
300
300.00003
300.00007
300.00009
341.83959
326.47885
314.70651
307.03103
302.72083
300.75703
300.09878
299.96971
299.97648
299.99223
299.99848
299.99985
299.99998
299.99996
299.99995
299.99994
299.99994
299.99994
299.99994
299.99994
299.99994
299.99994
299.99994
299.99994
299.99994
299.99994
299.99994
299.99994
299.99994
299.99994
299.99995
299.99995
299.99995
299.99995
299.99996
299.99997
300
300.00003
300.00007
300.00009
341.82417
326.42373
314.65222
307.02895
302.75316
300.78742
300.11314
299.97296
299.97614
299.99169
299.99828
299.99981
299.99997
299.99995
299.99993
299.99993
299.99993
299.99993
299.99993
299.99993
299.99993
299.99993
299.99993
299.99993
299.99993
299.99993
299.99993
299.99993
299.99993
299.99993
299.99993
299.99994
299.99994
299.99994
299.99995
299.99997
299.99999
300.00003
300.00008
300.00009
341.80969
326.36681
314.58363
307.01318
302.77925
300.81611
300.12719
299.97608
299.97569
299.99109
299.99807
299.99977
299.99996
299.99994
299.99992
299.99992
299.99992
299.99992
299.99992
299.99992
299.99992
299.99992
299.99992
299.99992
299.99992
299.99992
299.99992
299.99992
299.99992
299.99992
299.99992
299.99992
299.99993
299.99993
299.99994
299.99996
299.99999
300.00003
300.00008
300.00009
341.7966
326.31075
314.50286
306.98097
302.79631
300.84232
300.14128
299.97955
299.97538
299.99052
299.99785
299.99972
299.99995
299.99993
299.99991
299.99991
299.99991
299.99991
299.99991
299.99991
299.99991
299.99991
299.99991
299.99991
299.99991
299.99991
299.99991
299.99991
299.99991
299.99991
299.99991
299.99991
299.99992
299.99992
299.99993
299.99995
299.99998
300.00004
300.00008
300.00009
341.78518
326.25802
314.414
306.9316
302.80184
300.86494
300.15566
299.98391
299.97556
299.99009
299.99765
299.99968
299.99995
299.99993
299.99991
299.9999
299.99991
299.99991
299.99991
299.99991
299.99991
299.99991
299.99991
299.99991
299.99991
299.99991
299.99991
299.99991
299.99991
299.99991
299.99991
299.99991
299.99991
299.99991
299.99992
299.99995
299.99999
300.00004
300.00009
300.0001
341.77557
326.21059
314.32233
306.86679
302.79434
300.88279
300.17031
299.98963
299.97657
299.98996
299.99752
299.99965
299.99994
299.99993
299.99991
299.99991
299.99991
299.99991
299.99991
299.99991
299.99991
299.99991
299.99991
299.99991
299.99991
299.99991
299.99991
299.99991
299.99991
299.99991
299.9999
299.9999
299.9999
299.99991
299.99992
299.99995
299.99999
300.00005
300.00009
300.0001
341.76776
326.16975
314.23331
306.79051
302.77385
300.89487
300.1849
299.9969
299.97866
299.99022
299.99747
299.99962
299.99994
299.99993
299.99992
299.99991
299.99991
299.99991
299.99991
299.99992
299.99992
299.99992
299.99992
299.99992
299.99992
299.99992
299.99991
299.99991
299.99991
299.99991
299.99991
299.99991
299.99991
299.99991
299.99992
299.99995
300
300.00006
300.00009
300.0001
341.76165
326.1361
314.15167
306.70821
302.7421
300.90072
300.19881
300.00553
299.98185
299.99095
299.99755
299.99961
299.99995
299.99994
299.99993
299.99992
299.99992
299.99993
299.99993
299.99993
299.99993
299.99993
299.99993
299.99993
299.99993
299.99993
299.99993
299.99993
299.99992
299.99992
299.99992
299.99992
299.99992
299.99992
299.99993
299.99996
300.00001
300.00006
300.00009
300.0001
341.75704
326.10954
314.08075
306.62576
302.70217
300.90053
300.21134
300.01499
299.98596
299.99212
299.99774
299.99962
299.99995
299.99995
299.99994
299.99994
299.99994
299.99994
299.99994
299.99994
299.99994
299.99994
299.99994
299.99994
299.99994
299.99994
299.99994
299.99994
299.99994
299.99994
299.99993
299.99993
299.99993
299.99993
299.99995
299.99998
300.00002
300.00007
300.00009
300.0001
341.75371
326.08947
314.02228
306.54847
302.65789
300.89515
300.22182
300.02456
299.99062
299.99359
299.99804
299.99965
299.99996
299.99997
299.99996
299.99995
299.99996
299.99996
299.99996
299.99996
299.99996
299.99996
299.99996
299.99996
299.99996
299.99996
299.99996
299.99996
299.99995
299.99995
299.99995
299.99995
299.99995
299.99995
299.99996
299.99999
300.00003
300.00007
300.00009
300.00009
341.7514
326.07498
313.97644
306.48024
302.61308
300.88587
300.22984
300.03348
299.99537
299.99523
299.9984
299.99969
299.99996
299.99998
299.99997
299.99997
299.99997
299.99997
299.99997
299.99997
299.99997
299.99997
299.99997
299.99997
299.99997
299.99997
299.99997
299.99997
299.99997
299.99997
299.99997
299.99996
299.99996
299.99997
299.99998
300
300.00004
300.00008
300.00009
300.00009
341.74989
326.06498
313.9422
306.42328
302.57097
300.87421
300.23529
300.04115
299.99978
299.99684
299.99879
299.99975
299.99997
299.99999
299.99999
299.99998
299.99998
299.99999
299.99999
299.99999
299.99999
299.99999
299.99999
299.99999
299.99999
299.99999
299.99999
299.99998
299.99998
299.99998
299.99998
299.99998
299.99998
299.99998
299.99999
300.00002
300.00005
300.00008
300.00009
300.00009
341.74895
326.05838
313.91776
306.37814
302.53379
300.86159
300.23835
300.04723
300.00355
299.99829
299.99916
299.99981
299.99998
300
300
299.99999
299.99999
300
300
300
300
300
300
300
300
300
300
299.99999
299.99999
299.99999
299.99999
299.99999
299.99999
299.99999
300
300.00002
300.00005
300.00008
300.00009
300.00009
341.74842
326.05424
313.90102
306.34401
302.50271
300.84922
300.23945
300.05167
300.00653
299.9995
299.99949
299.99986
299.99999
300
300
300
300
300
300
300
300
300
300
300
300
300
300
300
300
300
300
300
300
300
300.00001
300.00003
300.00006
300.00008
300.00009
300.00009
341.74815
326.05175
313.88993
306.31925
302.47794
300.83794
300.23911
300.0546
300.00872
300.00044
299.99975
299.99991
299.99999
300.00001
300.00001
300.00001
300.00001
300.00001
300.00001
300.00001
300.00001
300.00001
300.00001
300.00001
300.00001
300.00001
300.00001
300.00001
300.00001
300.00001
300.00001
300.00001
300.00001
300.00001
300.00002
300.00003
300.00006
300.00008
300.00009
300.00009
341.74805
326.0503
313.88272
306.30186
302.45897
300.82822
300.23788
300.05634
300.01021
300.00111
299.99996
299.99996
300
300.00001
300.00001
300.00001
300.00001
300.00001
300.00001
300.00001
300.00001
300.00001
300.00001
300.00001
300.00001
300.00001
300.00001
300.00001
300.00001
300.00001
300.00001
300.00001
300.00001
300.00001
300.00002
300.00003
300.00006
300.00008
300.00009
300.00009
341.74804
326.04946
313.87798
306.28986
302.44489
300.82023
300.23622
300.05721
300.01115
300.00157
300.0001
299.99999
300
300.00001
300.00001
300.00001
300.00001
300.00001
300.00001
300.00001
300.00001
300.00001
300.00001
300.00001
300.00001
300.00001
300.00001
300.00001
300.00001
300.00001
300.00001
300.00001
300.00001
300.00001
300.00002
300.00004
300.00006
300.00008
300.00009
300.00009
341.74807
326.04896
313.87475
306.28156
302.43463
300.8139
300.23447
300.05752
300.0117
300.00186
300.0002
300.00001
300
300.00001
300.00001
300.00001
300.00001
300.00001
300.00001
300.00001
300.00001
300.00001
300.00001
300.00001
300.00001
300.00001
300.00001
300.00001
300.00001
300.00001
300.00001
300.00001
300.00001
300.00001
300.00002
300.00003
300.00006
300.00008
300.00009
300.00009
341.74812
326.04863
313.87237
306.27564
302.42719
300.809
300.23286
300.05752
300.012
300.00204
300.00027
300.00003
300.00001
300.00001
300.00001
300.00001
300.00001
300.00001
300.00001
300.00001
300.00001
300.00001
300.00001
300.00001
300.00001
300.00001
300.00001
300.00001
300.00001
300.00001
300.00001
300.00001
300.00001
300.00001
300.00002
300.00003
300.00006
300.00008
300.00009
300.00009
341.74817
326.04838
313.87049
306.27121
302.4217
300.80527
300.23147
300.05737
300.01214
300.00215
300.00031
300.00004
300.00001
300.00001
300.00001
300.00001
300.00001
300.00001
300.00001
300.00001
300.00001
300.00001
300.00001
300.00001
300.00001
300.00001
300.00001
300.00001
300.00001
300.00001
300.00001
300.00001
300.00001
300.00001
300.00002
300.00003
300.00005
300.00008
300.00009
300.00009
341.74823
326.04817
313.86889
306.26768
302.41753
300.80242
300.23035
300.05719
300.01221
300.00221
300.00033
300.00004
300.00001
300.00001
300.00001
300.00001
300.00001
300.00001
300.00001
300.00001
300.00001
300.00001
300.00001
300.00001
300.00001
300.00001
300.00001
300.00001
300.00001
300.00001
300.00001
300.00001
300.00001
300.00001
300.00002
300.00003
300.00005
300.00008
300.00009
300.00009
341.74828
326.04799
313.8675
306.26474
302.41423
300.80021
300.22946
300.05701
300.01224
300.00225
300.00035
300.00005
300.00001
300.00001
300.00001
300.00001
300.00001
300.00001
300.00001
300.00001
300.00001
300.00001
300.00001
300.00001
300.00001
300.00001
300.00001
300.00001
300.00001
300.00001
300.00001
300.00001
300.00001
300.00001
300.00002
300.00003
300.00005
300.00008
300.00009
300.00009
341.74833
326.04782
313.86627
306.26221
302.41153
300.79845
300.22876
300.05686
300.01225
300.00228
300.00036
300.00005
300.00001
300.00001
300.00001
300.00001
300.00001
300.00001
300.00001
300.00001
300.00001
300.00001
300.00001
300.00001
300.00001
300.00001
300.00001
300.00001
300.00001
300.00001
300.00001
300.00001
300.00001
300.00001
300.00002
300.00003
300.00005
300.00008
300.00009
300.00009
341.74838
326.04769
313.86519
306.26001
302.40925
300.79703
300.2282
300.05675
300.01226
300.0023
300.00037
300.00006
300.00001
300.00001
300.00001
300.00001
300.00001
300.00001
300.00001
300.00001
300.00001
300.00001
300.00001
300.00001
300.00001
300.00001
300.00001
300.00001
300.00001
300.00001
300.00001
300.00001
300.00001
300.00001
300.00002
300.00003
300.00005
300.00008
300.00009
300.00009
341.74843
326.04759
313.86426
306.2581
302.4073
300.79584
300.22775
300.05667
300.01227
300.00231
300.00038
300.00006
300.00001
300.00001
300.00001
300.00001
300.00001
300.00001
300.00001
300.00001
300.00001
300.00001
300.00001
300.00001
300.00001
300.00001
300.00001
300.00001
300.00001
300.00001
300.00001
300.00001
300.00001
300.00001
300.00002
300.00003
300.00005
300.00008
300.00009
300.00009
341.74849
326.04753
313.86348
306.25646
302.40562
300.79484
300.22738
300.0566
300.01228
300.00233
300.00039
300.00006
300.00001
300.00001
300.00001
300.00001
300.00001
300.00001
300.00001
300.00001
300.00001
300.00001
300.00001
300.00001
300.00001
300.00001
300.00001
300.00001
300.00001
300.00001
300.00001
300.00001
300.00001
300.00001
300.00002
300.00003
300.00005
300.00008
300.00009
300.00009
341.74856
326.04751
313.86283
306.25505
302.40419
300.79398
300.22707
300.05654
300.0123
300.00234
300.00039
300.00006
300.00001
300.00001
300.00001
300.00001
300.00001
300.00001
300.00001
300.00001
300.00001
300.00001
300.00001
300.00001
300.00001
300.00001
300.00001
300.00001
300.00001
300.00001
300.00001
300.00001
300.00001
300.00001
300.00002
300.00003
300.00005
300.00008
300.00009
300.00009
341.74864
326.04753
313.8623
306.25386
302.40296
300.79325
300.22681
300.0565
300.01231
300.00235
300.00039
300.00006
300.00001
300.00001
300.00001
300.00001
300.00001
300.00001
300.00001
300.00001
300.00001
300.00001
300.00001
300.00001
300.00001
300.00001
300.00001
300.00001
300.00001
300.00001
300.00001
300.00001
300.00001
300.00001
300.00002
300.00003
300.00005