/*--------------------------------*- C++ -*----------------------------------*\
  =========                 |
  \\      /  F ield         | OpenFOAM: The Open Source CFD Toolbox
   \\    /   O peration     | Website:  https://openfoam.org
    \\  /    A nd           | Version:  10
     \\/     M anipulation  |
\*---------------------------------------------------------------------------*/
FoamFile
{
    format      ascii;
    class       volScalarField;
    location    "0.11";
    object      T_0;
}
// * * * * * * * * * * * * * * * * * * * * * * * * * * * * * * * * * * * * * //

dimensions      [0 0 0 1 0 0 0];

internalField   nonuniform List<scalar> 
4000
(
303.10125
299.34299
299.99042
300.00082
299.99993
300
300
300
300
300
300
300
300
300
300
300
300
300
300
300
300
300
300
300
300
300
300
300
300
300
300
300
300
300
300
300
300
300
300
300.00001
309.66284
298.49319
299.7793
300.00184
300.0008
299.99999
300
300
300
300
300
300
300
300
300
300
300
300
300
300
300
300
300
300
300
300
300
300
300
300
300
300
300
300
300
300
300
300
299.99999
300.00002
316.0027
298.68462
299.3925
299.97572
300.00405
300.00025
299.99999
300
300
300
300
300
300
300
300
300
300
300
300
300
300
300
300
300
300
300
300
300
300
300
300
300
300
300
300
300
300
299.99999
299.99999
300.00002
321.73931
299.84527
298.98537
299.89504
300.00715
300.00138
300
299.99999
300
300
300
300
300
300
300
300
300
300
300
300
300
300
300
300
300
300
300
300
300
300
300
300
300
300
300
300
299.99999
299.99999
299.99999
300.00003
326.66628
301.69843
298.71074
299.75349
300.00322
300.00377
300.00017
299.99998
300
300
300
300
300
300
300
300
300
300
300
300
300
300
300
300
300
300
300
300
300
300
300
300
300
300
299.99999
299.99999
299.99999
299.99998
299.99999
300.00004
330.67804
303.9437
298.66386
299.56903
299.98433
300.00694
300.00071
299.99996
299.99999
300
300
300
300
300
300
300
300
300
300
300
300
300
300
300
300
300
300
300
300
300
300
300
300
299.99999
299.99999
299.99999
299.99999
299.99998
300
300.00004
333.76496
306.32329
298.87081
299.37489
299.94538
300.00934
300.00179
300
299.99998
299.99999
300
300
300
300
300
300
300
300
300
300
300
300
300
300
300
300
300
300
300
300
300
300
299.99999
299.99999
299.99999
299.99999
299.99998
299.99998
300
300.00004
336.00991
308.65265
299.30631
299.20548
299.88628
300.00887
300.00342
300.00014
299.99996
299.99999
300
300
300
300
300
300
300
300
300
300
300
300
300
300
300
300
300
300
300
300
300
299.99999
299.99999
299.99999
299.99999
299.99999
299.99998
299.99998
300.00001
300.00004
337.55945
310.82092
299.92048
299.08663
299.81141
300.00353
300.00536
300.00045
299.99995
299.99999
299.99999
300
300
300
300
300
300
300
300
300
300
300
300
300
300
300
300
300
300
300
299.99999
299.99999
299.99999
299.99999
299.99999
299.99998
299.99998
299.99998
300.00001
300.00004
338.58485
312.77533
300.65862
299.03267
299.72782
299.99204
300.00718
300.00098
299.99996
299.99998
299.99999
299.99999
300
300
300
300
300
300
300
300
300
300
300
300
300
300
300
300
299.99999
299.99999
299.99999
299.99999
299.99999
299.99999
299.99999
299.99998
299.99998
299.99998
300.00001
300.00004
339.24864
314.50291
301.47196
299.04787
299.64322
299.97401
300.00832
300.00172
300
299.99996
299.99999
299.99999
299.99999
299.99999
300
300
300
300
300
300
300
300
300
300
300
300
300
299.99999
299.99999
299.99999
299.99999
299.99999
299.99999
299.99999
299.99998
299.99998
299.99998
299.99999
300.00002
300.00004
339.6839
316.01482
302.32199
299.1294
299.56459
299.94992
300.00826
300.00263
300.00011
299.99995
299.99999
299.99999
299.99999
299.99999
299.99999
300
300
300
300
300
300
300
300
300
300
299.99999
299.99999
299.99999
299.99999
299.99999
299.99999
299.99999
299.99999
299.99999
299.99998
299.99998
299.99997
299.99999
300.00002
300.00004
339.98702
317.33432
303.1809
299.2704
299.49746
299.92085
300.00657
300.0036
300.00028
299.99995
299.99998
299.99999
299.99999
299.99999
299.99999
299.99999
299.99999
299.99999
300
300
300
300
300
299.99999
299.99999
299.99999
299.99999
299.99999
299.99999
299.99999
299.99999
299.99999
299.99999
299.99998
299.99998
299.99998
299.99998
299.99999
300.00002
300.00003
340.22041
318.48867
304.03011
299.46233
299.44573
299.8883
300.00297
300.00451
300.00054
299.99995
299.99998
299.99999
299.99999
299.99999
299.99999
299.99999
299.99999
299.99999
299.99999
299.99999
299.99999
299.99999
299.99999
299.99999
299.99999
299.99999
299.99999
299.99999
299.99999
299.99999
299.99999
299.99999
299.99999
299.99998
299.99998
299.99997
299.99998
299.99999
300.00003
300.00003
340.42033
319.50443
304.85804
299.69642
299.41175
299.85388
299.99733
300.00522
300.00086
299.99997
299.99997
299.99999
299.99999
299.99999
299.99999
299.99999
299.99999
299.99999
299.99999
299.99999
299.99999
299.99999
299.99999
299.99999
299.99999
299.99999
299.99999
299.99999
299.99999
299.99999
299.99999
299.99999
299.99999
299.99998
299.99998
299.99997
299.99998
300
300.00003
300.00003
340.60527
320.40511
305.65803
299.96455
299.39668
299.81916
299.9897
300.0056
300.00124
300.00001
299.99996
299.99999
299.99999
299.99999
299.99999
299.99999
299.99999
299.99999
299.99999
299.99999
299.99999
299.99999
299.99999
299.99999
299.99999
299.99999
299.99999
299.99999
299.99999
299.99999
299.99999
299.99999
299.99998
299.99998
299.99998
299.99997
299.99998
300
300.00003
300.00003
340.78302
321.21033
306.4267
300.25954
299.40074
299.78561
299.98023
300.00552
300.00165
300.00008
299.99996
299.99998
299.99999
299.99999
299.99999
299.99999
299.99999
299.99999
299.99999
299.99999
299.99999
299.99999
299.99999
299.99999
299.99999
299.99999
299.99999
299.99999
299.99999
299.99999
299.99999
299.99999
299.99998
299.99998
299.99998
299.99997
299.99998
300
300.00003
300.00003
340.95547
321.93584
307.16264
300.57523
299.42354
299.7545
299.96916
300.00491
300.00207
300.00016
299.99996
299.99998
299.99999
299.99999
299.99999
299.99999
299.99999
299.99999
299.99999
299.99999
299.99999
299.99999
299.99999
299.99999
299.99999
299.99999
299.99999
299.99999
299.99999
299.99999
299.99999
299.99998
299.99998
299.99998
299.99998
299.99997
299.99998
300.00001
300.00003
300.00003
341.12182
322.59387
307.86558
300.90639
299.46422
299.72689
299.95683
300.00369
300.00244
300.00028
299.99996
299.99998
299.99999
299.99999
299.99999
299.99999
299.99999
299.99999
299.99999
299.99999
299.99999
299.99999
299.99999
299.99999
299.99999
299.99999
299.99999
299.99999
299.99999
299.99999
299.99999
299.99998
299.99998
299.99998
299.99997
299.99997
299.99998
300.00001
300.00003
300.00003
341.28024
323.19374
308.53583
301.24861
299.52166
299.70364
299.94357
300.00184
300.00275
300.00041
299.99997
299.99997
299.99999
299.99999
299.99999
299.99999
299.99999
299.99999
299.99999
299.99999
299.99999
299.99999
299.99999
299.99999
299.99999
299.99999
299.99999
299.99999
299.99999
299.99999
299.99998
299.99998
299.99998
299.99998
299.99997
299.99997
299.99998
300.00001
300.00003
300.00002
341.4289
323.74237
309.17389
301.59813
299.59457
299.6854
299.92978
299.99934
300.00296
300.00056
299.99999
299.99997
299.99998
299.99999
299.99999
299.99999
299.99999
299.99999
299.99999
299.99999
299.99999
299.99999
299.99999
299.99999
299.99999
299.99999
299.99999
299.99999
299.99999
299.99999
299.99998
299.99998
299.99998
299.99998
299.99997
299.99997
299.99999
300.00001
300.00003
300.00002
341.56628
324.24481
309.78028
301.9517
299.68153
299.67266
299.91583
299.99622
300.00303
300.00072
300.00002
299.99997
299.99998
299.99999
299.99999
299.99999
299.99999
299.99999
299.99999
299.99999
299.99999
299.99999
299.99999
299.99999
299.99999
299.99999
299.99999
299.99999
299.99999
299.99998
299.99998
299.99998
299.99998
299.99998
299.99997
299.99997
299.99999
300.00001
300.00003
300.00002
341.69131
324.70467
310.35544
302.30651
299.7811
299.66575
299.90209
299.99254
300.00294
300.00088
300.00005
299.99997
299.99998
299.99999
299.99999
299.99999
299.99999
299.99999
299.99999
299.99999
299.99999
299.99999
299.99999
299.99999
299.99999
299.99999
299.99999
299.99999
299.99998
299.99998
299.99998
299.99998
299.99998
299.99998
299.99997
299.99997
299.99999
300.00002
300.00003
300.00002
341.8032
325.12444
310.89959
302.66003
299.89181
299.66485
299.88891
299.98835
300.00267
300.00103
300.00009
299.99997
299.99998
299.99998
299.99999
299.99999
299.99999
299.99999
299.99999
299.99999
299.99999
299.99999
299.99999
299.99999
299.99999
299.99999
299.99999
299.99999
299.99998
299.99998
299.99998
299.99998
299.99998
299.99997
299.99997
299.99997
299.99999
300.00002
300.00003
300.00003
341.9014
325.50568
311.41277
303.00999
300.01216
299.67002
299.87662
299.98374
300.0022
300.00116
300.00013
299.99997
299.99998
299.99998
299.99999
299.99999
299.99999
299.99999
299.99999
299.99999
299.99999
299.99999
299.99999
299.99999
299.99999
299.99999
299.99999
299.99998
299.99998
299.99998
299.99998
299.99998
299.99998
299.99997
299.99997
299.99998
299.99999
300.00002
300.00003
300.00003
341.98542
325.84926
311.89478
303.35429
300.14066
299.68119
299.86551
299.9788
300.00153
300.00126
300.00018
299.99998
299.99998
299.99998
299.99998
299.99998
299.99999
299.99999
299.99999
299.99999
299.99999
299.99999
299.99999
299.99999
299.99999
299.99998
299.99998
299.99998
299.99998
299.99998
299.99998
299.99998
299.99998
299.99997
299.99997
299.99998
299.99999
300.00002
300.00003
300.00003
342.05489
326.15541
312.34516
303.69094
300.27584
299.69821
299.85583
299.97365
300.00067
300.00133
300.00024
299.99999
299.99998
299.99998
299.99998
299.99998
299.99998
299.99998
299.99999
299.99999
299.99999
299.99999
299.99999
299.99999
299.99998
299.99998
299.99998
299.99998
299.99998
299.99998
299.99998
299.99998
299.99998
299.99997
299.99997
299.99998
300
300.00002
300.00003
300.00004
342.10958
326.42385
312.76317
304.01802
300.41622
299.72084
299.84781
299.9684
299.99961
300.00135
300.00029
300
299.99998
299.99998
299.99998
299.99998
299.99998
299.99998
299.99998
299.99998
299.99998
299.99998
299.99998
299.99998
299.99998
299.99998
299.99998
299.99998
299.99998
299.99998
299.99998
299.99998
299.99997
299.99997
299.99997
299.99998
300
300.00002
300.00003
300.00004
342.14943
326.65397
313.14783
304.33367
300.56034
299.74875
299.84161
299.96315
299.99836
300.00132
300.00034
300.00001
299.99998
299.99998
299.99998
299.99998
299.99998
299.99998
299.99998
299.99998
299.99998
299.99998
299.99998
299.99998
299.99998
299.99998
299.99998
299.99998
299.99998
299.99998
299.99998
299.99998
299.99997
299.99997
299.99997
299.99998
300
300.00002
300.00003
300.00005
342.17471
326.84492
313.49792
304.63604
300.70674
299.78154
299.83738
299.95802
299.99696
300.00124
300.00039
300.00002
299.99998
299.99998
299.99998
299.99998
299.99998
299.99998
299.99998
299.99998
299.99998
299.99998
299.99998
299.99998
299.99998
299.99998
299.99998
299.99998
299.99998
299.99998
299.99998
299.99998
299.99997
299.99997
299.99997
299.99998
300
300.00002
300.00003
300.00005
342.18603
326.99594
313.81203
304.92328
300.85396
299.81875
299.83521
299.95313
299.99543
300.0011
300.00043
300.00004
299.99998
299.99998
299.99998
299.99998
299.99998
299.99998
299.99998
299.99998
299.99998
299.99998
299.99998
299.99998
299.99998
299.99998
299.99998
299.99998
299.99998
299.99998
299.99998
299.99998
299.99997
299.99997
299.99997
299.99998
300
300.00002
300.00004
300.00005
342.18445
327.1066
314.08869
305.19357
301.00056
299.85988
299.83513
299.94857
299.99379
300.00089
300.00046
300.00005
299.99998
299.99998
299.99998
299.99998
299.99998
299.99998
299.99998
299.99998
299.99998
299.99998
299.99998
299.99998
299.99998
299.99998
299.99998
299.99998
299.99998
299.99998
299.99998
299.99997
299.99997
299.99997
299.99997
299.99998
300
300.00002
300.00004
300.00005
342.17147
327.17722
314.32652
305.44511
301.14514
299.90436
299.83716
299.94443
299.99208
300.00063
300.00048
300.00007
299.99998
299.99998
299.99998
299.99998
299.99998
299.99998
299.99998
299.99998
299.99998
299.99998
299.99998
299.99998
299.99998
299.99998
299.99998
299.99998
299.99998
299.99998
299.99998
299.99997
299.99997
299.99997
299.99997
299.99998
300
300.00002
300.00004
300.00006
342.14909
327.20923
314.52451
305.67625
301.28631
299.9516
299.84126
299.9408
299.99032
300.00031
300.00049
300.00008
299.99998
299.99998
299.99998
299.99998
299.99998
299.99998
299.99998
299.99998
299.99998
299.99998
299.99998
299.99998
299.99998
299.99998
299.99998
299.99998
299.99998
299.99998
299.99997
299.99997
299.99997
299.99997
299.99997
299.99998
300
300.00002
300.00004
300.00006
342.11972
327.2055
314.68223
305.88551
301.42275
300.00098
299.84735
299.93775
299.98857
299.99994
300.00048
300.0001
299.99999
299.99998
299.99998
299.99998
299.99998
299.99998
299.99998
299.99998
299.99998
299.99998
299.99998
299.99998
299.99998
299.99998
299.99998
299.99998
299.99998
299.99998
299.99997
299.99997
299.99997
299.99997
299.99997
299.99998
300
300.00002
300.00004
300.00006
342.08601
327.17062
314.80023
306.07174
301.55325
300.05186
299.85533
299.93532
299.98684
299.99952
300.00046
300.00011
299.99999
299.99998
299.99998
299.99998
299.99998
299.99998
299.99998
299.99998
299.99998
299.99998
299.99998
299.99998
299.99998
299.99998
299.99998
299.99998
299.99998
299.99997
299.99997
299.99997
299.99997
299.99997
299.99997
299.99998
300
300.00003
300.00005
300.00006
342.05067
327.11086
314.88024
306.23429
301.67676
300.10363
299.86504
299.93356
299.98518
299.99906
300.00041
300.00012
299.99999
299.99997
299.99998
299.99998
299.99998
299.99998
299.99998
299.99998
299.99998
299.99998
299.99998
299.99998
299.99998
299.99998
299.99998
299.99998
299.99997
299.99997
299.99997
299.99997
299.99997
299.99997
299.99997
299.99998
300
300.00003
300.00005
300.00007
342.01622
327.0339
314.92538
306.37307
301.7924
300.15568
299.87631
299.93248
299.98361
299.99857
300.00036
300.00013
300
299.99997
299.99997
299.99998
299.99998
299.99998
299.99998
299.99998
299.99998
299.99998
299.99998
299.99998
299.99998
299.99998
299.99998
299.99997
299.99997
299.99997
299.99997
299.99997
299.99997
299.99997
299.99997
299.99998
300
300.00003
300.00005
300.00007
341.98468
326.94817
314.94014
306.48868
301.89955
300.20745
299.88895
299.93208
299.98215
299.99806
300.00028
300.00013
300
299.99997
299.99997
299.99997
299.99997
299.99998
299.99998
299.99998
299.99998
299.99998
299.99998
299.99998
299.99998
299.99997
299.99997
299.99997
299.99997
299.99997
299.99997
299.99997
299.99997
299.99997
299.99997
299.99998
300
300.00003
300.00005
300.00007
341.95737
326.86189
314.93024
306.58249
301.99787
300.25843
299.90275
299.93233
299.98083
299.99754
300.00019
300.00013
300
299.99997
299.99997
299.99997
299.99997
299.99997
299.99997
299.99997
299.99997
299.99997
299.99997
299.99997
299.99997
299.99997
299.99997
299.99997
299.99997
299.99997
299.99997
299.99997
299.99997
299.99997
299.99997
299.99998
300
300.00003
300.00005
300.00007
341.93481
326.78204
314.90222
306.6565
302.08729
300.30819
299.91748
299.93321
299.97967
299.99701
300.00009
300.00013
300
299.99997
299.99997
299.99997
299.99997
299.99997
299.99997
299.99997
299.99997
299.99997
299.99997
299.99997
299.99997
299.99997
299.99997
299.99997
299.99997
299.99997
299.99997
299.99997
299.99997
299.99996
299.99997
299.99998
300
300.00003
300.00005
300.00008
341.91676
326.71339
314.86292
306.71332
302.16804
300.35639
299.93293
299.93467
299.97866
299.99649
299.99998
300.00012
300.00001
299.99997
299.99997
299.99997
299.99997
299.99997
299.99997
299.99997
299.99997
299.99997
299.99997
299.99997
299.99997
299.99997
299.99997
299.99997
299.99997
299.99997
299.99997
299.99997
299.99996
299.99996
299.99997
299.99998
300
300.00003
300.00005
300.00008
341.90236
326.65802
314.81886
306.75598
302.24057
300.4028
299.94892
299.93668
299.97783
299.99598
299.99985
300.00011
300.00001
299.99997
299.99997
299.99997
299.99997
299.99997
299.99997
299.99997
299.99997
299.99997
299.99997
299.99997
299.99997
299.99997
299.99997
299.99997
299.99997
299.99997
299.99997
299.99996
299.99996
299.99996
299.99997
299.99998
300
300.00003
300.00006
300.00008
341.89036
326.6153
314.77559
306.78769
302.30553
300.44725
299.96531
299.93921
299.97719
299.99549
299.99972
300.00009
300.00001
299.99997
299.99997
299.99997
299.99997
299.99997
299.99997
299.99997
299.99997
299.99997
299.99997
299.99997
299.99997
299.99997
299.99997
299.99997
299.99997
299.99997
299.99996
299.99996
299.99996
299.99996
299.99997
299.99998
300
300.00003
300.00006
300.00008
341.87946
326.5824
314.73711
306.81171
302.36376
300.48967
299.98199
299.94225
299.97675
299.99503
299.99958
300.00007
300.00001
299.99997
299.99997
299.99997
299.99997
299.99997
299.99997
299.99997
299.99997
299.99997
299.99997
299.99997
299.99997
299.99997
299.99997
299.99997
299.99997
299.99997
299.99996
299.99996
299.99996
299.99996
299.99997
299.99998
300
300.00003
300.00006
300.00008
341.86851
326.55512
314.70543
306.83105
302.41622
300.53008
299.99886
299.94578
299.97652
299.99462
299.99944
300.00005
300.00001
299.99998
299.99997
299.99997
299.99997
299.99997
299.99997
299.99997
299.99997
299.99997
299.99997
299.99997
299.99997
299.99997
299.99997
299.99997
299.99997
299.99997
299.99996
299.99996
299.99996
299.99996
299.99997
299.99998
300
300.00003
300.00006
300.00009
341.85667
326.52895
314.68033
306.84821
302.46402
300.56851
300.01576
299.94971
299.97649
299.99424
299.9993
300.00003
300.00001
299.99998
299.99997
299.99997
299.99997
299.99997
299.99997
299.99997
299.99997
299.99997
299.99997
299.99997
299.99997
299.99997
299.99997
299.99997
299.99997
299.99997
299.99996
299.99996
299.99996
299.99996
299.99997
299.99998
300.00001
300.00003
300.00006
300.00009
341.84354
326.49991
314.65947
306.8648
302.50827
300.60509
300.03249
299.95389
299.9766
299.99389
299.99916
300
300.00001
299.99998
299.99997
299.99997
299.99997
299.99997
299.99997
299.99997
299.99997
299.99997
299.99997
299.99997
299.99997
299.99997
299.99997
299.99997
299.99997
299.99997
299.99996
299.99996
299.99996
299.99996
299.99997
299.99998
300
300.00003
300.00007
300.00009
341.82911
326.46522
314.63881
306.88116
302.54997
300.63997
300.04879
299.95809
299.97676
299.99355
299.99901
299.99997
300
299.99997
299.99997
299.99996
299.99996
299.99996
299.99996
299.99996
299.99996
299.99996
299.99996
299.99996
299.99996
299.99996
299.99996
299.99996
299.99996
299.99996
299.99996
299.99996
299.99996
299.99996
299.99997
299.99998
300
300.00003
300.00007
300.00009
341.81368
326.42357
314.61342
306.89612
302.58971
300.67335
300.06444
299.96208
299.97683
299.99319
299.99886
299.99993
300
299.99997
299.99996
299.99996
299.99996
299.99996
299.99996
299.99996
299.99996
299.99996
299.99996
299.99996
299.99996
299.99996
299.99996
299.99996
299.99996
299.99996
299.99996
299.99996
299.99996
299.99996
299.99997
299.99998
300
300.00003
300.00007
300.00009
341.79777
326.37513
314.57852
306.90698
302.62736
300.7054
300.07932
299.96565
299.97672
299.99275
299.99869
299.9999
299.99999
299.99996
299.99995
299.99995
299.99995
299.99995
299.99995
299.99995
299.99995
299.99995
299.99995
299.99995
299.99995
299.99995
299.99995
299.99995
299.99995
299.99995
299.99995
299.99995
299.99995
299.99995
299.99996
299.99998
300
300.00003
300.00007
300.00009
341.78198
326.32133
314.53054
306.90991
302.66184
300.73617
300.09349
299.96876
299.97637
299.99224
299.9985
299.99986
299.99998
299.99995
299.99994
299.99994
299.99994
299.99994
299.99994
299.99994
299.99993
299.99994
299.99994
299.99994
299.99994
299.99994
299.99994
299.99994
299.99994
299.99994
299.99994
299.99994
299.99994
299.99995
299.99995
299.99997
299.99999
300.00003
300.00008
300.00009
341.76691
326.26446
314.46801
306.90077
302.69115
300.76544
300.10722
299.97162
299.97585
299.99166
299.9983
299.99982
299.99997
299.99994
299.99993
299.99992
299.99992
299.99992
299.99992
299.99992
299.99992
299.99992
299.99992
299.99992
299.99992
299.99992
299.99992
299.99992
299.99992
299.99993
299.99993
299.99993
299.99993
299.99994
299.99994
299.99996
299.99999
300.00003
300.00008
300.00009
341.75304
326.20721
314.39194
306.87614
302.71262
300.79265
300.12091
299.97465
299.97538
299.99106
299.99809
299.99978
299.99996
299.99993
299.99992
299.99991
299.99991
299.99991
299.99991
299.99991
299.99991
299.99991
299.99991
299.99991
299.99991
299.99991
299.99991
299.99991
299.99991
299.99991
299.99992
299.99992
299.99992
299.99992
299.99993
299.99995
299.99998
300.00003
300.00008
300.00009
341.74076
326.15224
314.30565
306.83433
302.72359
300.81685
300.13489
299.9784
299.97527
299.99057
299.99789
299.99974
299.99995
299.99993
299.99991
299.99991
299.99991
299.99991
299.99991
299.99991
299.99991
299.99991
299.99991
299.99991
299.99991
299.99991
299.99991
299.99991
299.99991
299.99991
299.99991
299.99991
299.99991
299.99991
299.99993
299.99995
299.99998
300.00004
300.00008
300.0001
341.73026
326.10185
314.21411
306.77606
302.7221
300.83692
300.14933
299.98342
299.97589
299.9903
299.99773
299.9997
299.99995
299.99993
299.99991
299.9999
299.9999
299.99991
299.99991
299.99991
299.99991
299.99991
299.99991
299.99991
299.99991
299.99991
299.99991
299.99991
299.99991
299.99991
299.9999
299.9999
299.9999
299.99991
299.99992
299.99995
299.99999
300.00005
300.00009
300.0001
341.72162
326.0577
314.12293
306.70444
302.70757
300.8518
300.16404
299.99003
299.9775
299.9904
299.99766
299.99968
299.99995
299.99993
299.99991
299.99991
299.99991
299.99991
299.99991
299.99991
299.99991
299.99991
299.99991
299.99991
299.99991
299.99991
299.99991
299.99991
299.99991
299.99991
299.99991
299.99991
299.99991
299.99991
299.99992
299.99995
300
300.00005
300.00009
300.0001
341.71475
326.02068
314.03734
306.62447
302.68106
300.86078
300.1785
299.99816
299.98024
299.99094
299.99768
299.99966
299.99995
299.99994
299.99992
299.99992
299.99992
299.99992
299.99992
299.99992
299.99992
299.99992
299.99992
299.99992
299.99992
299.99992
299.99992
299.99992
299.99992
299.99992
299.99992
299.99991
299.99991
299.99992
299.99993
299.99996
300.00001
300.00006
300.00009
300.0001
341.70951
325.99099
313.96139
306.54202
302.64517
300.86378
300.19199
300.00741
299.98399
299.99191
299.99782
299.99966
299.99996
299.99995
299.99994
299.99993
299.99993
299.99994
299.99994
299.99994
299.99994
299.99994
299.99994
299.99994
299.99994
299.99994
299.99994
299.99994
299.99993
299.99993
299.99993
299.99993
299.99993
299.99993
299.99994
299.99997
300.00002
300.00007
300.00009
300.0001
341.70566
325.96821
313.89752
306.46275
302.60346
300.86134
300.20377
300.01709
299.98843
299.99324
299.99806
299.99968
299.99996
299.99996
299.99995
299.99995
299.99995
299.99995
299.99995
299.99995
299.99995
299.99995
299.99995
299.99995
299.99995
299.99995
299.99995
299.99995
299.99995
299.99995
299.99995
299.99994
299.99994
299.99994
299.99996
299.99998
300.00003
300.00007
300.00009
300.0001
341.70295
325.95149
313.84653
306.3912
302.55979
300.85453
300.21326
300.02639
299.99312
299.99477
299.99838
299.99971
299.99997
299.99998
299.99997
299.99997
299.99997
299.99997
299.99997
299.99997
299.99997
299.99997
299.99997
299.99997
299.99997
299.99997
299.99997
299.99997
299.99997
299.99996
299.99996
299.99996
299.99996
299.99996
299.99997
300
300.00004
300.00008
300.00009
300.00009
341.70114
325.93978
313.80779
306.33024
302.51761
300.84474
300.22019
300.03465
299.99761
299.99634
299.99873
299.99976
299.99997
299.99999
299.99998
299.99998
299.99998
299.99998
299.99998
299.99998
299.99998
299.99998
299.99998
299.99998
299.99998
299.99998
299.99998
299.99998
299.99998
299.99998
299.99998
299.99998
299.99997
299.99998
299.99999
300.00001
300.00005
300.00008
300.00009
300.00009
341.69999
325.93193
313.77971
306.28103
302.47951
300.83338
300.22459
300.0414
300.00157
299.9978
299.99909
299.99981
299.99998
300
299.99999
299.99999
299.99999
299.99999
299.99999
299.99999
299.99999
299.99999
299.99999
299.99999
299.99999
299.99999
299.99999
299.99999
299.99999
299.99999
299.99999
299.99999
299.99999
299.99999
300
300.00002
300.00005
300.00008
300.00009
300.00009
341.69932
325.92692
313.76023
306.24321
302.44702
300.82172
300.22679
300.04649
300.00477
299.99905
299.99941
299.99986
299.99999
300
300
300
300
300
300
300
300
300
300
300
300
300
300
300
300
300
300
300
300
300
300.00001
300.00003
300.00005
300.00008
300.00009
300.00009
341.69896
325.92386
313.74718
306.21539
302.42068
300.81072
300.22729
300.04999
300.00719
300.00003
299.99968
299.99991
299.99999
300.00001
300.00001
300.00001
300.00001
300.00001
300.00001
300.00001
300.00001
300.00001
300.00001
300.00001
300.00001
300.00001
300.00001
300.00001
300.00001
300.00001
300
300
300
300.00001
300.00002
300.00003
300.00006
300.00008
300.00009
300.00009
341.6988
325.92205
313.73865
306.19565
302.40022
300.80099
300.22663
300.05218
300.00887
300.00076
299.99989
299.99995
300
300.00001
300.00001
300.00001
300.00001
300.00001
300.00001
300.00001
300.00001
300.00001
300.00001
300.00001
300.00001
300.00001
300.00001
300.00001
300.00001
300.00001
300.00001
300.00001
300.00001
300.00001
300.00002
300.00003
300.00006
300.00008
300.00009
300.00009
341.69876
325.92099
313.73308
306.18196
302.38486
300.79282
300.22532
300.05337
300.00997
300.00126
300.00004
299.99998
300
300.00001
300.00001
300.00001
300.00001
300.00001
300.00001
300.00001
300.00001
300.00001
300.00001
300.00001
300.00001
300.00001
300.00001
300.00001
300.00001
300.00001
300.00001
300.00001
300.00001
300.00001
300.00002
300.00003
300.00006
300.00008
300.00009
300.00009
341.69877
325.92036
313.72932
306.17251
302.37361
300.78625
300.22376
300.05389
300.01063
300.00159
300.00015
300
300
300.00001
300.00001
300.00001
300.00001
300.00001
300.00001
300.00001
300.00001
300.00001
300.00001
300.00001
300.00001
300.00001
300.00001
300.00001
300.00001
300.00001
300.00001
300.00001
300.00001
300.00001
300.00002
300.00003
300.00006
300.00008
300.00009
300.00009
341.69881
325.91994
313.72662
306.16584
302.36543
300.78111
300.22223
300.05402
300.01099
300.0018
300.00022
300.00002
300.00001
300.00001
300.00001
300.00001
300.00001
300.00001
300.00001
300.00001
300.00001
300.00001
300.00001
300.00001
300.00001
300.00001
300.00001
300.00001
300.00001
300.00001
300.00001
300.00001
300.00001
300.00001
300.00002
300.00003
300.00005
300.00008
300.00009
300.00009
341.69885
325.91963
313.72451
306.16093
302.35944
300.77717
300.22088
300.05395
300.01118
300.00192
300.00026
300.00003
300.00001
300.00001
300.00001
300.00001
300.00001
300.00001
300.00001
300.00001
300.00001
300.00001
300.00001
300.00001
300.00001
300.00001
300.00001
300.00001
300.00001
300.00001
300.00001
300.00001
300.00001
300.00001
300.00002
300.00003
300.00005
300.00008
300.00009
300.00009
341.6989
325.91937
313.72275
306.15709
302.35493
300.77416
300.21975
300.0538
300.01128
300.00199
300.00029
300.00004
300.00001
300.00001
300.00001
300.00001
300.00001
300.00001
300.00001
300.00001
300.00001
300.00001
300.00001
300.00001
300.00001
300.00001
300.00001
300.00001
300.00001
300.00001
300.00001
300.00001
300.00001
300.00001
300.00002
300.00003
300.00005
300.00008
300.00009
300.00009
341.69894
325.91913
313.72122
306.15392
302.3514
300.77183
300.21884
300.05364
300.01132
300.00204
300.00031
300.00004
300.00001
300.00001
300.00001
300.00001
300.00001
300.00001
300.00001
300.00001
300.00001
300.00001
300.00001
300.00001
300.00001
300.00001
300.00001
300.00001
300.00001
300.00001
300.00001
300.00001
300.00001
300.00001
300.00002
300.00003
300.00005
300.00008
300.00009
300.00009
341.69898
325.91893
313.71987
306.15121
302.34854
300.77
300.21813
300.05351
300.01134
300.00207
300.00032
300.00005
300.00001
300.00001
300.00001
300.00001
300.00001
300.00001
300.00001
300.00001
300.00001
300.00001
300.00001
300.00001
300.00001
300.00001
300.00001
300.00001
300.00001
300.00001
300.00001
300.00001
300.00001
300.00001
300.00002
300.00003
300.00005
300.00008
300.00009
300.00009
341.69902
325.91875
313.71868
306.14886
302.34614
300.76853
300.21757
300.0534
300.01136
300.00209
300.00033
300.00005
300.00001
300.00001
300.00001
300.00001
300.00001
300.00001
300.00001
300.00001
300.00001
300.00001
300.00001
300.00001
300.00001
300.00001
300.00001
300.00001
300.00001
300.00001
300.00001
300.00001
300.00001
300.00001
300.00002
300.00003
300.00005
300.00008
300.00009
300.00009
341.69906
325.91861
313.71765
306.14682
302.3441
300.76731
300.21712
300.05332
300.01137
300.0021
300.00034
300.00005
300.00001
300.00001
300.00001
300.00001
300.00001
300.00001
300.00001
300.00001
300.00001
300.00001
300.00001
300.00001
300.00001
300.00001
300.00001
300.00001
300.00001
300.00001
300.00001
300.00001
300.00001
300.00001
300.00002
300.00003
300.00005
300.00008
300.00009
300.00009
341.69911
325.91851
313.71677
306.14505
302.34234
300.76628
300.21675
300.05326
300.01139
300.00212
300.00034
300.00005
300.00001
300.00001
300.00001
300.00001
300.00001
300.00001
300.00001
300.00001
300.00001
300.00001
300.00001
300.00001
300.00001
300.00001
300.00001
300.00001
300.00001
300.00001
300.00001
300.00001
300.00001
300.00001
300.00002
300.00003
300.00005
300.00008
300.00009
300.00009
341.69917
325.91844
313.71603
306.14354
302.34084
300.7654
300.21645
300.05321
300.0114
300.00213
300.00035
300.00005
300.00001
300.00001
300.00001
300.00001
300.00001
300.00001
300.00001
300.00001
300.00001
300.00001
300.00001
300.00001
300.00001
300.00001
300.00001
300.00001
300.00001
300.00001
300.00001
300.00001
300.00001
300.00001
300.00002
300.00003
300.00005
300.00008
300.00009
300.00009
341.69924
325.91842
313.71542
306.14225
302.33955
300.76466
300.21619
300.05317
300.01141
300.00214
300.00035
300.00005
300.00001
300.00001
300.00001
300.00001
300.00001
300.00001
300.00001
300.00001
300.00001
300.00001
300.00001
300.00001
300.00001
300.00001
300.00001
300.00001
300.00001
300.00001
300.00001
300.00001
300.00001
300.00001
300.00002
300.00003
300.00005
300.00008
300.00009
300.00009
341.69931
325.91845
313.71493
306.14116
302.33845
300.76402
300.21597
300.05314
300.01142
300.00215
300.00036
300.00006
300.00001
300.00001
300.00001
300.00001
300.00001
300.00001
300.00001
300.00001
300.00001
300.00001
300.00001
300.00001
300.00001
300.00001
300.00001
300.00001
300.00001
300.00001
300.00001
300.00001