/*--------------------------------*- C++ -*----------------------------------*\
  =========                 |
  \\      /  F ield         | OpenFOAM: The Open Source CFD Toolbox
   \\    /   O peration     | Website:  https://openfoam.org
    \\  /    A nd           | Version:  10
     \\/     M anipulation  |
\*---------------------------------------------------------------------------*/
FoamFile
{
    format      ascii;
    class       volScalarField;
    location    "0.11";
    object      TporMedia;
}
// * * * * * * * * * * * * * * * * * * * * * * * * * * * * * * * * * * * * * //

dimensions      [0 0 0 1 0 0 0];

internalField   nonuniform List<scalar> 
4000
(
-8.9843759e-06
4.4755257e-06
0.0013695816
0.00056991258
0.00034507572
0.00036276494
0.00041712364
0.0005125105
0.00039604331
0.000559187
0.00039795309
0.00048184513
0.00044690082
0.00050671999
0.00060332477
0.00059387509
0.00052932216
0.00055358646
0.00054518198
0.00045395994
0.0007758398
0.0010259077
0.00052158524
0.00042343986
0.00048526131
0.00063800903
0.00048064082
0.00040838113
0.00051251063
0.00055163343
0.0004825322
0.00050072201
0.0004598645
0.00047307944
0.00055531693
0.00037559775
0.00034009197
0.00042408886
0.00036398428
0.0003821813
-7.8507784e-07
1.0531111e-14
9.9699888e-12
-1.6161887e-10
-8.02344e-10
2.545949e-10
2.2635231e-10
3.4694008e-10
6.6630403e-10
4.8874468e-10
4.0324765e-10
3.6718181e-10
4.1165943e-10
3.9216141e-10
7.3687711e-10
6.1705244e-10
5.0935858e-10
9.5512743e-10
7.5583315e-10
5.3645333e-10
1.3204898e-09
1.0164467e-09
5.1331671e-10
3.4694657e-10
6.3281328e-10
8.79536e-10
5.9366483e-10
5.1614651e-10
3.9657636e-10
4.5233302e-10
4.7858057e-10
5.9790832e-10
3.9030312e-10
4.286326e-10
4.1619678e-10
2.1546935e-10
2.8207913e-10
2.8473799e-10
2.2385312e-10
2.4890122e-10
-3.1977614e-07
-3.2195462e-15
2.0838781e-20
-4.3318113e-18
9.0830552e-17
9.1806469e-16
1.6795237e-16
2.5068778e-16
4.7659587e-16
5.0162775e-16
2.7996557e-16
2.7501326e-16
7.3569039e-16
6.1488386e-16
6.0849384e-16
5.9242174e-16
4.8084013e-16
1.6409808e-15
1.1399123e-15
4.7772682e-16
1.149227e-15
1.9014035e-15
4.5699134e-16
4.902338e-16
8.2707355e-16
8.62362e-16
6.2658407e-16
5.3460476e-16
5.0429629e-16
3.8398889e-16
3.785536e-16
3.843271e-16
2.4720564e-16
4.5215672e-16
2.3860393e-16
1.8913644e-16
2.158639e-16
1.302698e-16
1.4092035e-16
2.5028201e-16
-1.7312572e-07
1.7538914e-16
1.9171157e-25
-2.1076474e-26
-5.3159616e-24
-2.0365972e-22
1.3393007e-22
2.1841791e-22
9.9647943e-22
4.4557675e-22
3.3474395e-22
2.858146e-22
7.1986487e-22
9.1123043e-22
5.6923418e-22
7.6371439e-22
6.072233e-22
1.5512392e-21
1.8571137e-21
4.6382841e-22
1.8805714e-21
1.3986854e-21
5.7478382e-22
4.0622204e-22
6.7813695e-22
9.1435873e-22
2.917974e-21
8.3041877e-22
4.7070535e-22
2.5694357e-22
3.6105434e-22
2.7068872e-22
2.0512016e-22
3.5875293e-22
1.9866972e-22
1.4528994e-22
1.9245967e-22
1.0136851e-22
1.4406415e-22
1.5247593e-22
-1.0991313e-07
3.4710938e-17
2.9255583e-26
1.4249348e-35
-1.9808356e-30
1.2314452e-29
5.2331057e-28
1.9141991e-28
8.4257394e-28
5.4616663e-28
2.3913867e-28
4.2099359e-28
7.3371763e-28
9.9900347e-28
5.7788011e-28
8.0214645e-28
9.5993396e-28
1.8120688e-27
3.6223263e-27
1.7851159e-27
1.7848064e-27
1.7148595e-27
5.5504106e-28
4.2423714e-28
8.4570306e-28
1.1383813e-27
2.4380863e-27
1.0924559e-27
5.5661004e-28
3.8115119e-28
3.9003764e-28
3.5328759e-28
1.6334044e-28
2.7404754e-28
1.3699495e-28
1.5147211e-28
1.5805771e-28
1.025103e-28
8.5317194e-29
1.0398289e-28
-7.7316377e-08
1.1771156e-17
1.2229483e-26
1.0573697e-35
-1.9134922e-38
-3.4526487e-37
-1.172972e-34
1.5809843e-34
1.0216747e-33
7.3296382e-34
1.7536372e-34
4.8033046e-34
5.6316132e-34
1.5691889e-33
1.1993288e-33
1.2468356e-33
4.5956212e-33
2.7349217e-33
5.4166483e-33
3.8602401e-33
1.8519716e-33
3.8575727e-33
5.4326139e-34
4.0102859e-34
1.5183862e-33
9.9073613e-34
4.4115418e-33
1.5546918e-33
5.7090575e-34
4.4447686e-34
3.3023973e-34
3.906629e-34
1.4508905e-34
2.8095595e-34
1.1714397e-34
1.1869642e-34
1.7492688e-34
8.9966073e-35
5.1763206e-35
8.9323088e-35
-5.8435244e-08
5.2002059e-18
-6.4210855e-26
-3.4035272e-35
-9.8214112e-44
6.8906487e-45
7.7525567e-42
2.5521612e-40
6.5423474e-40
9.0876168e-40
2.1415206e-40
4.2437288e-40
7.1833167e-40
1.8732856e-39
1.4180255e-39
1.0625125e-39
4.8354135e-39
2.3020624e-38
-2.0604667e-37
9.3696177e-39
1.9354884e-39
1.0421467e-38
6.2708188e-40
6.7819471e-40
1.81091e-39
-1.6334833e-38
6.5276311e-39
1.398734e-39
6.8976135e-40
3.8409597e-40
6.2840048e-40
6.975766e-40
3.8495799e-40
2.7467306e-40
9.7443447e-41
1.079031e-40
1.3662727e-40
6.9646027e-41
5.6218781e-41
1.2166098e-40
-4.6467278e-08
2.7060894e-18
-1.2168527e-27
-4.6342686e-37
-5.8979474e-46
-1.7009305e-52
-2.2130356e-49
-2.3621628e-46
7.8517841e-46
5.172147e-46
2.3651843e-46
1.1019243e-45
2.0965264e-45
1.9458286e-45
3.1468869e-45
2.4062994e-45
1.851072e-44
2.8507187e-44
-2.6373311e-43
1.4831026e-44
2.1153077e-45
2.6251616e-44
7.5159774e-46
1.811731e-45
3.111932e-45
-1.9945378e-44
1.3193611e-44
2.113679e-45
8.1677495e-46
1.0978181e-45
6.328411e-46
8.0457535e-46
3.9709872e-46
1.2956853e-45
6.2403417e-47
9.9085943e-47
1.3174194e-46
8.1596137e-47
6.3682564e-47
1.5226412e-46
-3.8203275e-08
1.5674654e-18
-2.7499522e-28
-8.6271284e-38
-5.9536241e-47
-1.5633738e-54
3.598569e-57
3.0959855e-53
4.7851862e-52
6.5954604e-52
1.1917315e-51
2.17322e-51
3.2773726e-51
1.1771018e-50
2.9039113e-50
4.6285738e-51
4.297934e-50
6.8226118e-50
-2.9859486e-49
3.5770323e-50
5.556618e-51
2.024655e-49
5.8551516e-51
3.9941947e-51
-9.3639422e-51
-1.8121547e-50
2.3290216e-50
2.4827277e-51
1.1970664e-51
1.4578849e-51
5.5272429e-52
1.7138205e-51
4.4690329e-52
1.8298735e-51
6.3512908e-53
7.3458103e-53
1.5694013e-52
8.1813566e-53
5.5418079e-53
1.1419521e-51
-3.1983607e-08
9.7260311e-19
-9.0796731e-29
-2.7060189e-38
-1.1567888e-47
-5.4507791e-56
5.5995782e-64
-1.6383023e-60
3.1346839e-58
9.382356e-58
1.2758442e-57
2.3627769e-57
1.2806896e-56
2.566407e-56
-9.0509031e-56
1.020565e-56
6.4452094e-56
-1.8814468e-55
-1.4135632e-54
3.5538506e-54
7.0823949e-57
5.0872376e-55
8.5105344e-57
8.5473409e-57
-1.5568205e-56
-3.443267e-56
6.2961151e-56
1.4198835e-56
3.4328071e-57
2.8338546e-57
8.0518468e-58
7.7802009e-57
2.132961e-57
2.0298538e-57
4.6484817e-59
7.5909273e-59
4.7475126e-58
6.9827558e-59
8.3445726e-59
2.6223444e-57
-2.6931856e-08
6.2901018e-19
-3.6039957e-29
-1.2415336e-38
-3.6241025e-48
-6.8499395e-57
6.1812258e-65
4.4130649e-68
-7.2490465e-64
6.2520284e-64
9.5792599e-63
5.7718131e-63
8.3505915e-62
6.7620815e-62
2.5396703e-61
1.3405208e-62
4.6122025e-60
-2.2160749e-60
8.4134007e-59
1.4572737e-58
-2.8215417e-62
-1.5655608e-60
9.8934176e-63
1.6143486e-62
-3.9586147e-62
-5.0502673e-61
2.4645677e-61
-5.2227032e-62
1.4380426e-62
4.3543112e-63
6.4088861e-63
-1.2404825e-61
2.1996168e-62
1.6159005e-62
1.2081995e-64
8.4075765e-65
3.791076e-64
1.4200313e-64
1.7736869e-64
-1.6055546e-62
-2.2621697e-08
4.16139e-19
-1.5926322e-29
-1.0001374e-38
-2.1516364e-48
-2.0976895e-57
1.9911612e-65
-3.0945066e-73
1.6093432e-70
3.8632397e-70
2.1593637e-68
1.5752314e-68
1.3650241e-67
-1.1992626e-67
5.0466749e-66
-2.6415485e-68
1.007726e-64
2.5292168e-64
7.1500078e-63
6.0273524e-64
-5.1750721e-68
4.6108608e-66
-3.0587202e-68
-1.6804218e-67
-9.7289558e-68
-1.7054608e-65
-8.4715766e-67
-4.7229652e-67
2.4557226e-67
1.0576815e-67
-2.3511841e-68
-4.6477494e-67
2.076556e-68
3.792118e-68
2.3600094e-70
2.4963387e-70
6.2557993e-70
1.5580402e-70
-3.4856633e-68
2.0064494e-68
-1.8882946e-08
2.7854407e-19
-7.5338184e-30
9.1322323e-39
1.5422255e-48
8.8909135e-58
-1.6525788e-65
1.6768334e-73
-1.3818706e-77
2.067419e-76
3.8874313e-74
-2.7741926e-74
-5.9649113e-73
2.7546246e-73
-3.3286893e-71
-8.8003362e-74
-3.9881891e-70
-4.0194773e-70
1.9090288e-67
-3.1023494e-69
3.2662066e-73
1.4795836e-71
5.8106217e-74
7.3276242e-73
3.2904836e-73
4.6082093e-71
1.1863681e-72
1.8412216e-72
2.6580854e-72
-1.985455e-73
2.6087102e-73
-1.7920677e-72
-1.3507983e-72
3.0848735e-72
8.1271849e-76
9.8534887e-76
9.4367776e-76
6.1620663e-76
7.3851134e-74
-1.4699334e-74
-1.5656992e-08
1.8758718e-19
-3.7316775e-30
8.0912656e-40
1.133801e-49
4.2314008e-59
6.0053192e-67
-4.3691623e-75
1.8217014e-82
2.5227058e-82
-2.511744e-78
-1.3343639e-78
2.1804481e-78
-4.6177026e-79
3.9242985e-77
1.0382207e-79
1.6587589e-75
5.3000064e-76
-3.3268798e-73
4.6670829e-75
-6.488371e-79
-1.9455008e-77
-6.8870342e-80
-6.849192e-79
-1.0577051e-78
-4.4336322e-77
-1.9154424e-78
-3.8948453e-78
-4.0176788e-78
6.02193e-79
-3.671351e-79
8.6254748e-78
1.0146306e-77
-1.9084415e-77
-6.8905635e-81
4.6436227e-81
5.1273339e-80
-9.6548494e-82
-1.7351811e-79
1.4494996e-80
-1.2908847e-08
1.2677456e-19
-1.910551e-30
1.8992642e-40
2.3280604e-50
6.0120617e-60
2.0396729e-68
-1.16606e-76
2.7692857e-84
-3.1678874e-87
-6.39531e-84
1.1753087e-84
5.6404788e-82
4.2430373e-85
-1.1033248e-82
-1.3964083e-85
-2.3840573e-81
-4.1423828e-82
1.8943879e-79
-3.3894563e-81
6.7575224e-85
2.6759745e-83
6.6575697e-86
2.8484676e-84
8.2386487e-85
7.585931e-83
2.1247826e-84
1.4871225e-83
3.3512949e-84
-5.9120539e-85
6.9141101e-85
-1.816391e-83
-1.9726903e-83
-3.8736922e-82
-1.2042633e-85
-8.6870496e-87
-1.5398915e-85
-3.8706094e-87
1.7195201e-85
-6.5745709e-87
-1.0589773e-08
8.5804315e-20
-1.0019589e-30
5.7296139e-41
6.4907415e-51
1.2211766e-60
1.8773017e-69
-9.3065581e-78
1.3728603e-85
-3.6053817e-92
-6.2806429e-90
-1.163906e-90
-8.47267e-88
-4.0806218e-91
7.1995005e-89
1.0516796e-91
1.9101952e-87
3.0944282e-88
-1.7760732e-85
2.7438755e-87
-4.4258147e-91
-1.9374194e-89
-5.6930168e-92
-2.7144101e-90
-8.4293158e-91
-4.7631352e-89
-1.7504586e-90
-1.2428153e-89
-1.8446666e-90
6.2408451e-91
-7.5175328e-91
2.2211607e-89
2.7744107e-89
4.6781099e-88
2.6976783e-91
3.5636818e-92
1.5138701e-91
5.1384126e-93
-1.2607194e-91
2.2205515e-93
-8.6389025e-09
5.8009391e-20
-5.3418448e-31
1.9600476e-41
2.1878099e-51
3.1274336e-61
2.6747828e-70
-1.2869886e-78
1.2769551e-86
-1.4316282e-93
-5.3325988e-96
1.8374297e-96
5.7178781e-94
4.1382785e-97
-5.1004154e-95
-6.3318688e-98
-1.4238113e-93
-1.6798654e-94
1.0203411e-91
-2.1607177e-93
3.0103647e-97
1.2537266e-95
4.0535869e-98
3.0846348e-96
1.3128391e-96
3.0501896e-95
1.2194686e-96
7.9528845e-96
1.798534e-96
-7.5807698e-97
4.3191452e-97
-1.482743e-95
-2.7954762e-95
-4.7919696e-94
-5.6206386e-97
-4.6480623e-98
-2.6627649e-97
-4.4605445e-99
4.9891427e-98
-5.7738614e-100
-7.0028013e-09
3.9076489e-20
-2.8774386e-31
7.2356706e-42
8.6773943e-52
9.766822e-62
5.1940534e-71
-2.8978969e-79
2.0697359e-87
-1.2387086e-94
-1.4935287e-100
-4.0352942e-102
-3.3000391e-100
-2.8953403e-103
2.9354415e-101
4.4205876e-104
1.1704611e-99
1.0868726e-100
-4.8703745e-98
1.0319567e-99
-1.4457354e-103
-6.1488878e-102
-1.8578147e-104
-1.9320431e-102
-6.570221e-103
-1.9221612e-101
-5.9785269e-103
-4.622292e-102
-1.1317756e-102
3.4753477e-103
-2.9227743e-103
1.2285148e-101
2.3073635e-101
6.3734647e-100
6.4716522e-103
3.2167571e-104
4.5623079e-103
3.5449106e-105
-1.9907856e-104
8.2964675e-107
-5.6456161e-09
2.6212024e-20
-1.5607087e-31
2.812743e-42
4.1860878e-52
3.8270699e-62
1.3603199e-71
-1.3943016e-79
7.6239167e-88
-2.5574183e-95
2.1145562e-100
-4.7858306e-106
1.7961787e-106
1.6237634e-109
-1.7506454e-107
-2.0456954e-110
-4.884079e-106
-8.6073048e-107
2.1368357e-104
-4.5790609e-106
5.6798885e-110
3.4623038e-108
1.0268948e-110
8.6450161e-109
2.9228232e-109
8.2499843e-108
2.490399e-109
2.2003498e-108
5.6724651e-109
-1.5384202e-109
1.81281e-109
-7.4465267e-108
-1.3869047e-107
-5.5919391e-106
-7.8780379e-109
-2.3639538e-110
-5.1919402e-109
-1.7441155e-111
6.4357285e-111
-7.8593391e-114
-4.542141e-09
1.7548316e-20
-8.5239621e-32
1.137491e-42
2.9770534e-52
2.2740199e-62
5.6920838e-72
1.0290418e-79
-4.5152306e-88
9.5365771e-96
-8.4162563e-102
2.3182365e-107
-1.0697454e-112
-9.0287289e-116
8.4155177e-114
7.9127578e-117
3.2295582e-112
3.7645916e-113
-7.3502092e-111
1.6958036e-112
-2.4429307e-116
-2.0666794e-114
-4.9319054e-117
-3.6356942e-115
-1.4281206e-115
-3.3386794e-114
-1.2017789e-115
-8.5799545e-115
-2.5653152e-115
6.786056e-116
-8.9199783e-116
3.2247418e-114
7.2667737e-114
3.4128219e-112
1.2134741e-114
1.7922425e-116
3.1929113e-115
7.7562983e-118
-1.6629754e-117
5.707413e-121
-3.6646953e-09
1.1774321e-20
-4.6987435e-32
4.7598765e-43
-7.0340389e-52
-4.6086043e-62
-8.4632458e-72
-2.8032892e-80
1.0389758e-88
-1.4765614e-96
4.13114e-103
-5.6768967e-109
2.7722441e-115
-5.9429694e-122
-3.1167122e-120
-2.5805495e-123
-1.1533612e-118
-1.4644683e-119
2.7298177e-117
-5.5510847e-119
8.3152823e-123
7.5323202e-121
1.718873e-123
1.4650001e-121
6.281807e-122
1.2362218e-120
5.2063729e-122
4.0027854e-121
1.0699673e-121
-2.9974859e-122
3.3291256e-122
-1.3704096e-120
-3.3679042e-120
-1.6416193e-118
-8.2666032e-121
-1.1850625e-122
-1.8185369e-121
-3.5073317e-124
3.1027176e-124
-4.1251426e-128
-2.9779811e-09
7.9508054e-21
-2.6211858e-32
2.0555356e-43
-2.8810281e-53
-1.6611568e-63
-2.3133584e-73
-3.4774534e-82
1.150431e-90
-1.1646755e-98
1.5825016e-105
1.1191577e-110
-5.4946379e-117
2.7218174e-123
1.0993403e-126
9.3609139e-130
4.3977177e-125
4.8906152e-126
-8.5913066e-124
1.9864278e-125
-3.437506e-129
-2.1660057e-127
-5.9542658e-130
-5.9355131e-128
-2.0379275e-128
-4.2251548e-127
-1.6131869e-128
-1.3551186e-127
-3.8843328e-128
1.3023439e-128
-1.3941805e-128
5.3372467e-127
1.3156097e-126
7.6452001e-125
3.1703484e-127
5.1381083e-129
5.8528824e-128
1.0983612e-130
-4.953521e-131
5.0161266e-135
-2.4430113e-09
5.4173026e-21
-1.481769e-32
9.138369e-44
-5.7250676e-54
-2.9811765e-64
-3.237711e-74
-2.7642191e-83
8.7134166e-92
-6.552559e-100
4.5941843e-107
-1.5492092e-112
6.0758088e-119
-1.9205459e-125
5.68349e-132
-3.1909459e-136
-1.3695115e-131
-1.6245833e-132
2.3623626e-130
-6.9625961e-132
1.034375e-135
6.7530612e-134
1.599434e-136
1.8587216e-134
6.5363195e-135
1.2772798e-133
5.8987817e-135
3.5258173e-134
1.3928801e-134
-3.412941e-135
4.6422904e-135
-1.8491208e-133
-4.7408716e-133
-3.0358307e-131
-1.4769688e-133
-1.8708763e-135
-1.9047457e-134
-2.8921624e-137
8.4188635e-138
4.9873745e-141
-2.0240132e-09
3.7275799e-21
-8.4877491e-33
4.1700471e-44
-1.5098238e-54
-7.2984826e-65
-6.3324904e-75
-3.438341e-84
1.1283805e-92
-6.5816787e-101
2.8738541e-108
-4.2994729e-113
1.7933517e-119
-6.1042095e-126
1.8698861e-132
-5.99867e-139
3.6831392e-138
4.3398399e-139
-6.8472791e-137
1.7075185e-138
-2.4638387e-142
-1.9398747e-140
-4.2709286e-143
-6.5489121e-141
-1.8697658e-141
-3.0287128e-140
-1.7023699e-141
-9.5576824e-141
-4.0483205e-141
9.6513747e-142
-1.2696583e-141
5.2226314e-140
1.9899818e-139
1.0733831e-137
6.5444186e-140
6.7027711e-142
4.498641e-141
6.2054419e-144
-1.8974945e-144
4.1522226e-148
-1.6923569e-09
2.5900145e-21
-4.922551e-33
1.9473629e-44
-4.5685932e-55
-2.1145284e-65
-1.4975794e-75
-5.5391221e-85
2.1771321e-93
-1.0174535e-101
2.8781392e-109
-1.3847508e-115
5.3734232e-122
-1.80501e-128
4.4477567e-135
-1.0959831e-141
-8.2828594e-145
-1.0842433e-145
1.9531791e-143
-3.99787e-145
5.4629999e-149
4.6097783e-147
1.0315912e-149
1.6597277e-147
4.9652329e-148
7.0841922e-147
4.2720731e-148
2.429134e-147
1.2095307e-147
-2.6147208e-148
3.3555939e-148
-1.3432032e-146
-6.0708708e-146
-3.587143e-144
-2.0159755e-146
-2.1315604e-148
-9.7144038e-148
-1.244327e-150
8.3786764e-151
2.0570617e-155
-1.4271215e-09
1.8171212e-21
-2.8889681e-33
9.2857135e-45
-1.5083745e-55
-6.9365149e-66
-4.089186e-76
-1.0829098e-85
7.1103695e-94
-2.7713179e-102
5.4628573e-110
-1.6367733e-116
5.3761349e-123
-1.3898413e-129
3.4324957e-136
-7.7390219e-143
1.6919315e-149
2.2688343e-152
-4.1038489e-150
8.9716398e-152
-1.1840307e-155
-9.4251023e-154
-2.1781228e-156
-3.0875575e-154
-1.0044436e-154
-1.4893046e-153
-8.5275201e-155
-5.9970299e-154
-2.630113e-154
5.8093616e-155
-7.9819999e-155
3.7286746e-153
1.6263387e-152
1.0811341e-150
5.7094126e-153
4.4591638e-155
1.7400556e-154
2.4139861e-157
-2.321418e-155
-1.0580064e-163
-1.2135711e-09
1.2880658e-21
-1.7163677e-33
4.5169282e-45
-5.3092614e-56
-2.5454516e-66
-1.2718577e-76
-2.5033992e-86
-1.7263372e-93
5.7874237e-102
-8.3212132e-110
1.4053954e-116
-5.1517139e-123
1.1537707e-129
-2.4345577e-136
4.8776527e-143
-1.0478388e-149
2.1081846e-156
8.3877979e-157
-1.8186211e-158
2.1990691e-162
1.8710807e-160
4.5448647e-163
5.7511394e-161
2.2956255e-161
2.9020663e-160
1.9619108e-161
1.2430607e-160
5.7429552e-161
-1.118845e-161
1.623369e-161
-7.9006334e-160
-3.54223e-159
-2.8358681e-157
-1.4378074e-159
-9.0946864e-162
-3.0815257e-161
-4.0001805e-164
-1.2394278e-161
-4.7012424e-169
-1.041225e-09
9.2386504e-22
-1.033805e-33
2.2426201e-45
-1.9692248e-56
-1.0552118e-66
-4.5462252e-77
-6.8572928e-87
-2.6319662e-95
7.8816484e-104
-8.5190388e-112
8.8223133e-119
-2.8782653e-125
5.598524e-132
-1.0466849e-138
1.8910954e-145
-3.5148982e-152
6.492595e-159
-1.5882448e-163
3.0993918e-165
-4.3176127e-169
-3.2095631e-167
-7.7237782e-170
-1.0426017e-167
-4.1498507e-168
-4.9441865e-167
-3.4044303e-168
-2.1054915e-167
-1.1064134e-167
2.1200211e-168
-3.0721991e-168
1.5664871e-166
6.9477171e-166
6.5307026e-164
2.8723674e-166
1.6428422e-168
4.2338755e-168
6.3254794e-171
-3.6794189e-168
-1.6316986e-175
-9.0229817e-10
6.7199188e-22
-6.3286651e-34
1.1385621e-45
-7.6541103e-57
-5.155134e-67
-1.9471669e-77
-2.3095202e-87
-3.8477641e-96
1.0704689e-104
-9.0877507e-113
6.3649554e-120
-1.7500538e-126
3.3617918e-133
-5.7031566e-140
1.0053461e-146
-1.7660138e-153
3.0525874e-160
-5.8155994e-167
-5.1337036e-172
6.6184469e-176
5.7788601e-174
1.3003934e-176
1.7167659e-174
7.4250734e-175
7.909575e-174
6.1798751e-175
3.6542433e-174
1.718828e-174
-3.6109147e-175
5.9562358e-175
-2.770451e-173
-1.3771416e-172
-1.3343326e-170
-5.0676137e-173
-2.6513566e-175
-5.179107e-175
-9.973717e-178
-6.7585234e-175
-3.5522125e-182
-7.9075874e-10
4.9706896e-22
-3.9508379e-34
5.9285692e-46
-3.1122888e-57
-3.4292798e-67
-1.1544259e-77
-1.1011985e-87
-1.0514985e-96
2.8541755e-105
-1.9500004e-113
9.441973e-121
-2.1486159e-127
3.9807961e-134
-7.0068746e-141
1.109261e-147
-1.8754819e-154
2.63675e-161
-3.6819366e-168
5.400082e-175
-8.7138793e-182
-9.0046091e-181
-2.024751e-183
-2.5240102e-181
-1.2140124e-181
-1.1036775e-180
-9.6321713e-182
-6.2390381e-181
-2.9812722e-181
5.6380901e-182
-9.2368707e-182
4.4484566e-180
2.4003e-179
2.3289095e-177
8.527999e-180
3.6279484e-182
5.809586e-182
1.6771343e-184
-1.0932919e-181
-6.354574e-189
-7.0181471e-10
3.7509568e-22
-2.5253946e-34
3.1788217e-46
-1.3249941e-57
-1.349906e-66
-4.1188453e-77
-3.2246075e-87
-1.9979647e-96
5.6048214e-105
-3.1958614e-113
1.1055816e-120
-2.2932564e-127
4.0106937e-134
-6.2780784e-141
9.1053737e-148
-1.361242e-154
2.0353593e-161
-2.8642231e-168
3.9855274e-175
-5.4874263e-182
1.3655343e-187
2.8865577e-190
3.5072408e-188
1.7321568e-188
1.6750176e-187
1.4503791e-188
8.3516828e-188
4.3761036e-188
-8.1035539e-189
1.3649484e-188
-6.4707435e-187
-3.6664717e-186
-4.0239193e-184
-1.2495498e-186
-4.2568091e-189
-6.1710317e-189
-2.4456391e-191
-1.4842603e-188
-9.1264612e-196
-6.3163184e-10
2.8973653e-22
-1.6604197e-34
1.7635508e-46
-5.9219733e-58
6.0354158e-68
1.6986592e-78
1.1122891e-88
4.8182793e-98
-1.5310077e-106
7.4453138e-115
-1.9562071e-122
2.8335605e-129
-4.5269613e-136
6.3235579e-143
-8.3334603e-150
1.0902394e-156
-1.4286735e-163
1.9555991e-170
-2.7131134e-177
3.5192836e-184
-4.5908056e-191
-3.0489891e-197
-4.4537279e-195
-2.1289568e-195
-2.3217018e-194
-1.883757e-195
-1.1383843e-194
-5.4951856e-195
1.1619765e-195
-1.8796231e-195
8.9606633e-194
5.2254259e-193
6.0087748e-191
1.5890046e-193
4.4969163e-196
5.8629407e-196
3.6413618e-198
-1.7462856e-195
-1.1346695e-202
-5.771624e-10
2.2986295e-22
-1.1284377e-34
1.0177905e-46
-2.7899138e-58
1.1780701e-68
3.1166832e-79
1.7373456e-89
5.5423362e-99
-2.3267933e-107
9.9713534e-116
-2.0126353e-123
2.3293136e-130
-3.259587e-137
3.9342157e-144
-4.9588283e-151
5.889178e-158
-6.9871394e-165
8.2017025e-172
-9.2317948e-179
1.1030619e-185
-1.3831108e-192
1.6953492e-199
5.1260679e-202
2.73881e-202
2.6768948e-201
2.2792692e-202
1.3657568e-201
6.7502086e-202
-1.4656645e-202
2.3894768e-202
-1.0929874e-200
-7.4181609e-200
-7.9509292e-198
-1.9978459e-200
-4.1299393e-203
-4.9113948e-203
-5.3013212e-205
-2.0575845e-202
-1.3325298e-209
-5.3599966e-10
1.8789974e-22
-7.9662203e-35
6.1455394e-47
-1.3922417e-58
3.3974926e-69
8.6253547e-80
4.1627714e-90
1.0168746e-99
-8.4294236e-108
3.2711837e-116
-5.278606e-124
4.8717764e-131
-7.0544e-138
8.8211857e-145
-9.9886131e-152
1.0516621e-158
-1.1095917e-165
1.1962226e-172
-1.3022202e-179
1.424242e-186
-1.6725126e-193
1.8202439e-200
-2.0417653e-207
-2.9751144e-209
-2.9504963e-208
-2.4178309e-209
-1.4249698e-208
-7.2728313e-209
1.7050588e-209
-2.674332e-209
1.3185119e-207
9.1813723e-207
9.7544789e-205
2.0496647e-207
3.4751636e-210
3.7814541e-210
7.4938027e-212
-2.4962514e-209
-1.6164221e-216
-5.0625594e-10
1.5870534e-22
-5.8691907e-35
3.9045623e-47
-7.3987717e-59
1.1936873e-69
2.9755256e-80
1.2632214e-90
2.4378707e-100
5.4484709e-108
-1.9757861e-116
2.5884976e-124
-1.8420039e-131
2.2838631e-138
-2.6196428e-145
2.7370748e-152
-2.6300197e-159
2.8482843e-166
-2.9334369e-173
2.9330372e-180
-3.0449951e-187
3.1610349e-194
-3.098012e-201
3.004368e-208
-2.7478894e-215
2.9911035e-215
2.3990016e-216
1.4580891e-215
8.1249451e-216
-1.7742831e-216
2.9098298e-216
-1.4585931e-214
-1.0331105e-213
-1.0671768e-211
-1.8626917e-214
-2.6598237e-217
-2.6928584e-217
-9.553148e-219
-2.6696148e-216
-1.8222921e-223
-4.864303e-10
1.3880343e-22
-4.5312191e-35
2.6240685e-47
-4.209226e-59
4.8455058e-70
1.2174458e-80
4.6169728e-91
7.2241248e-101
2.7701077e-109
-9.7188126e-118
1.0726242e-125
-6.2461739e-133
7.3182806e-140
-8.1501334e-147
8.0922704e-154
-8.4095469e-161
8.0984277e-168
-7.6099803e-175
7.6892919e-182
-7.3247402e-189
7.1473202e-196
-6.8997648e-203
6.7197148e-210
-6.8264688e-217
-3.0024785e-222
-2.375825e-223
-1.4505057e-222
-8.1421413e-223
1.6954228e-223
-2.9567913e-223
1.5259163e-221
1.107118e-220
1.1179272e-218
1.6854992e-221
1.9172426e-224
1.8795355e-224
1.2841787e-225
-2.8763825e-223
-1.971355e-230
-4.7526789e-10
1.2585175e-22
-3.6765089e-35
1.873244e-47
-2.5750085e-59
2.2260818e-70
5.8177287e-81
2.001245e-91
2.5991176e-101
4.8941467e-110
-1.7277842e-118
1.6476798e-126
-7.6916506e-134
8.4651043e-141
-8.5831185e-148
8.3558272e-155
-8.0085617e-162
7.4424756e-169
-6.8913929e-176
6.6201467e-183
-5.6371348e-190
5.3115027e-197
-4.724303e-204
4.0319247e-211
-3.7454496e-218
3.3177904e-225
2.26619e-230
1.3902555e-229
7.8776727e-230
-1.6539149e-230
2.8139277e-230
-1.5439157e-228
-1.1223539e-227
-1.0403928e-225
-1.3625449e-228
-1.2985482e-231
-1.1990134e-231
-1.7856552e-232
-3.2372354e-230
-2.2445681e-237
-4.7160146e-10
1.1826699e-22
-3.1388882e-35
1.4239436e-47
-1.698737e-59
1.1456039e-70
3.2449633e-81
1.0291641e-91
1.134654e-101
1.330899e-110
-4.9654366e-119
4.208261e-127
-1.6136715e-134
1.4101512e-141
-1.2395078e-148
1.0257474e-155
-8.7330726e-163
6.8764751e-170
-5.678445e-177
4.5739237e-184
-3.6304184e-191
2.8462636e-198
-2.2373637e-205
1.7321702e-212
-1.3477267e-219
1.1237853e-226
-9.1215452e-234
-1.1474642e-236
-6.6913571e-237
1.4139285e-237
-2.5766646e-237
1.4267391e-235
1.0892437e-234
9.4545836e-233
1.0612793e-235
8.4460747e-239
7.0662363e-239
2.040097e-239
-3.9021394e-237
-2.6418784e-244
-4.7417147e-10
1.1494599e-22
-2.8169482e-35
1.1525313e-47
-1.2089345e-59
6.5554676e-71
2.135848e-81
6.3633459e-92
6.091753e-102
4.9919626e-111
-2.114148e-119
1.6246467e-127
-4.9820006e-135
3.4944039e-142
-2.4878515e-149
1.7633824e-156
-1.1670047e-163
7.8379383e-171
-4.9710981e-178
3.2032877e-185
-2.0986825e-192
1.3253434e-199
-8.5301333e-207
5.567609e-214
-3.5584362e-221
2.3938053e-228
-1.610293e-235
1.19521e-242
4.6614182e-244
-1.0524941e-244
2.0034831e-244
-1.1075061e-242
-9.3388444e-242
-8.0897386e-240
-7.7930002e-243
-5.0010064e-246
-4.253498e-246
-2.1317315e-246
-6.8098578e-244
-4.082791e-251
-4.8145765e-10
1.1504215e-22
-2.6472488e-35
9.9018823e-48
-9.2546127e-60
4.1383959e-71
1.7093369e-81
4.8860559e-92
4.15578e-102
2.5574908e-111
-1.3740411e-119
9.7961259e-128
-2.3993732e-135
1.2610115e-142
-7.0562264e-150
3.8406339e-157
-2.0386406e-164
1.0844407e-171
-5.8072862e-179
3.0838548e-186
-1.6013263e-193
8.1529343e-201
-4.3434831e-208
2.3020654e-215
-1.202033e-222
6.3756338e-230
-3.5889397e-237
1.9683536e-244
-3.8104775e-251
6.1602066e-252
-1.2110934e-251
7.1158068e-250
6.4625184e-249
5.7124189e-247
4.9850495e-250
2.8093461e-253
2.2270848e-253
1.9578442e-253
-1.5883214e-250
-8.4091288e-258
-4.9157174e-10
1.1776968e-22
-2.5876425e-35
8.9718434e-48
-7.5711493e-60
2.8538978e-71
1.8102831e-81
5.0777368e-92
3.9191269e-102
1.9026225e-111
-1.6279461e-119
1.1034707e-127
-2.2250582e-135
9.3386486e-143
-4.3859974e-150
1.9937166e-157
-8.7890574e-165
3.8238639e-172
-1.689774e-179
7.4025732e-187
-3.2686571e-194
1.418452e-201
-6.2624337e-209
2.7742529e-216
-1.2524682e-223
5.6406898e-231
-2.466845e-238
1.138087e-245
-5.2381958e-253
-2.675871e-259
5.9119793e-259
-3.6721663e-257
-3.5438354e-256
-3.3049974e-254
-2.7194227e-257
-1.3275072e-260
-1.0233304e-260
-1.5875079e-260
-4.465433e-257
-2.1945362e-264
-5.0231041e-10
1.2224055e-22
-2.6063624e-35
8.4919266e-48
-6.5537171e-60
2.1237122e-71
3.8382723e-81
1.0781137e-91
7.6742473e-102
3.0396817e-111
-1.0425063e-118
6.999537e-127
-1.2645237e-134
4.712569e-142
-1.9480824e-149
8.1723717e-157
-3.463889e-164
1.4605461e-171
-6.2025617e-179
2.5919168e-186
-1.1120432e-193
4.7702578e-201
-1.9813124e-208
8.2991362e-216
-3.5322814e-223
1.4869059e-230
-6.3074932e-238
2.6224558e-245
-1.0910628e-252
4.5824273e-260
-2.7302432e-266
1.6163725e-264
1.6100513e-263
1.5109018e-261
1.1962817e-264
5.354994e-268
4.3664194e-268
1.2686939e-267
-1.0997723e-263
-5.3473958e-271
-5.1144256e-10
1.2737661e-22
-2.6749314e-35
8.2987186e-48
-5.9284045e-60
1.6812991e-71
-2.8143062e-81
-8.0200072e-92
-5.3039047e-102
-1.746781e-111
-2.1339143e-119
1.4854678e-127
-2.5120673e-135
9.6509249e-143
-4.5955867e-150
2.245255e-157
-1.1075972e-164
5.6318444e-172
-2.8595353e-179
1.4631298e-186
-7.4707715e-194
3.8856661e-201
-2.0009901e-208
1.0324954e-215
-5.0492374e-223
2.5513384e-230
-5.3346694e-238
-5.3648005e-244
2.469996e-250
-6.141685e-257
1.0647512e-263
-1.3481156e-270
-6.818127e-271
-6.1740719e-269
-4.5599727e-272
-1.9244798e-275
-1.7823198e-275
-1.2134393e-274
-1.8979935e-270
-9.5967146e-278
-5.1719089e-10
1.3196481e-22
-2.7645325e-35
8.2696244e-48
-5.5302423e-60
1.3952394e-71
-7.7362212e-82
-2.2408488e-92
-1.3740695e-102
-3.7977186e-112
-1.7691955e-120
1.3486709e-128
-2.3979414e-136
1.2231707e-143
-9.6641621e-151
8.1246133e-158
-7.5766294e-165
7.074315e-172
-7.5037607e-179
8.3532181e-186
-9.1679225e-193
8.8869659e-200
-6.8161748e-207
-2.6717806e-213
1.4450487e-219
-1.4591257e-225
-1.4221246e-230
1.249074e-236
-5.4642521e-243
1.4134803e-249
-2.3901736e-256
2.9854504e-263
-2.4167757e-270
2.8598065e-276
1.7459864e-279
6.8452565e-283
7.944727e-283
1.3323852e-281
-2.2130093e-277
-1.266245e-284
-5.1869465e-10
1.3488815e-22
-2.8461465e-35
8.3055815e-48
-5.2550857e-60
1.1970467e-71
-3.9813266e-82
-1.1641639e-92
-6.5787382e-103
-1.536828e-112
-4.1616801e-121
3.731389e-129
-7.6868011e-137
9.8542375e-144
1.6828981e-149
9.1663511e-156
4.1059292e-162
1.5405434e-168
4.6655758e-175
1.7638851e-181
7.849998e-188
2.4419778e-194
1.1710021e-200
5.2388182e-207
3.4768338e-213
4.0564316e-219
1.6655566e-223
-1.659611e-229
7.8404632e-236
-2.1756124e-242
3.9830821e-249
-5.454161e-256
4.835856e-263
-3.1153061e-270
1.4429376e-277
-6.2335513e-285
-4.4794713e-290
-1.6231402e-288
-1.9931969e-284
-1.2884228e-291
-5.161947e-10
1.3545384e-22
-2.8940247e-35
8.3266963e-48
-5.0369065e-60
1.0497113e-71
-2.4946447e-82
-7.3476078e-93
-3.8328176e-103
-7.686791e-113
-1.4209596e-121
1.6347939e-129
-4.0831551e-137
-1.7732705e-143
-1.5834317e-150
-1.3075729e-157
-1.1238934e-164
-9.5068417e-172
-8.5831824e-179
-7.7360639e-186
-7.2058887e-193
-6.4660955e-200
-5.1740991e-207
9.074849e-216
3.4168583e-220
4.6104246e-226
1.6783784e-230
-1.6737545e-236
6.7052353e-243
-1.9229401e-249
2.8432999e-256
-5.5841176e-263
-2.6896508e-270
1.7074268e-276
-1.9650153e-283
1.5187411e-290
2.2956562e-297
1.4236171e-295
-1.5634511e-291
-1.1616896e-298
-5.1082204e-10
1.3362177e-22
-2.8904087e-35
8.2723921e-48
-4.8347383e-60
9.3276136e-72
-1.6974668e-82
-5.1623234e-93
-2.544226e-103
-4.5351606e-113
-6.3824898e-122
1.0667162e-129
-2.8185519e-137
-1.1058106e-143
-1.0340013e-150
-1.0588081e-157
-1.1979006e-164
-1.4872623e-171
-2.1122128e-178
-3.3739352e-185
-5.875126e-192
-1.0518977e-198
-1.8293715e-205
-3.3106156e-212
-5.2733676e-219
-7.6924695e-226
-1.0655572e-232
-1.3418513e-239
-1.3670303e-246
-1.2841069e-253
-1.1312146e-260
-9.2400872e-268
-7.8531157e-275
-8.6636113e-282
-3.5752529e-288
7.8214658e-295
-6.7668232e-302
-7.3567663e-303
-9.9908838e-299
-8.771856e-306
-5.0413583e-10
1.2996919e-22
-2.8289003e-35
8.1004919e-48
-4.6216272e-60
8.3420805e-72
-1.1871318e-82
-4.0373624e-93
-1.9901385e-103
-3.3524065e-113
-3.9495556e-122
1.1482255e-129
-2.4337814e-137
1.5920381e-144
-1.5938581e-151
1.3713459e-158
-9.3147015e-166
5.3584189e-173
-2.93548e-180
1.4509288e-187
-7.0102154e-195
3.4112822e-202
-1.6505954e-209
8.4506767e-217
-4.5440164e-224
2.7060729e-231
-1.7287985e-238
1.5935771e-245
-1.6213545e-252
3.6848384e-259
6.9440635e-263
1.287855e-269
1.2797058e-276
1.1611796e-283
1.3830491e-290
-5.3476276e-297
2.6192502e-304
2.3099341e-310
-5.2472302e-306
-2.4973336e-313
-4.9766144e-10
1.2541503e-22
-2.7151849e-35
7.7861072e-48
-4.375332e-60
7.4595423e-72
-8.3212776e-83
-3.8247035e-93
-2.0936425e-103
-3.6723051e-113
-4.0156343e-122
3.9224266e-129
-5.6312036e-137
1.0232952e-144
-1.8555519e-152
3.1777178e-160
-5.1088741e-168
7.7847508e-176
-1.1577311e-183
1.6730455e-191
-2.3738282e-199
3.3832737e-207
-4.8373115e-215
6.9146427e-223
-9.6433867e-231
1.0848575e-238
1.0667315e-246
-3.052115e-253
3.879009e-260
-9.3486215e-267
-2.006423e-270
-4.4812107e-277
-6.167623e-284
-1.105955e-290
-7.5440102e-298
3.7882878e-304
-1.4697879e-311
1.91673e-313
-1.9377063e-313
-2.2251262e-313
-4.9260124e-10
1.208921e-22
-2.565338e-35
7.3252583e-48
-4.0749043e-60
6.6160326e-72
-5.82103e-83
-6.5318646e-93
-4.7982902e-103
-1.0212189e-112
-1.1707818e-121
-7.9035752e-129
7.7429584e-137
-6.7811426e-145
5.6775208e-153
-4.5516932e-161
3.5350333e-169