/*--------------------------------*- C++ -*----------------------------------*\
  =========                 |
  \\      /  F ield         | OpenFOAM: The Open Source CFD Toolbox
   \\    /   O peration     | Website:  https://openfoam.org
    \\  /    A nd           | Version:  10
     \\/     M anipulation  |
\*---------------------------------------------------------------------------*/
FoamFile
{
    format      ascii;
    class       volScalarField;
    location    "0.11";
    object      TporMedia_0;
}
// * * * * * * * * * * * * * * * * * * * * * * * * * * * * * * * * * * * * * //

dimensions      [0 0 0 1 0 0 0];

internalField   nonuniform List<scalar> 
4000
(
-8.5423037e-06
4.2622661e-06
0.0021808731
0.0015131184
0.00038957129
0.00049023417
0.00042678929
0.00048034565
0.00042297393
0.00044560101
0.00056409776
0.00057229382
0.0008637371
0.00048843533
0.00039216931
0.00061705275
0.00059804152
0.00055838927
0.00047949189
0.0005540843
0.00045029005
0.0003966439
0.00071161968
0.00061263519
0.0007172922
0.00062358733
0.00049505955
0.00047208062
0.00075188933
0.00052287524
0.00043783703
0.00050019796
0.0003463799
0.00047772215
0.00037511828
0.00040713648
0.00042965669
0.00051364179
0.0004151968
0.00048058328
-7.4625841e-07
9.5307244e-15
1.5052064e-11
-3.9770477e-10
-7.7435236e-09
3.7581435e-10
4.5925001e-10
7.0147096e-10
5.2183593e-10
5.0330611e-10
5.1883508e-10
8.7299546e-10
1.6437677e-09
-1.3255519e-08
4.1066186e-10
1.0672169e-09
5.9601829e-10
4.1917669e-10
1.3541335e-09
1.169294e-09
6.4088045e-10
8.708397e-10
1.2353394e-09
7.2210006e-10
5.5924804e-10
4.9271629e-10
5.8975633e-10
3.8683913e-10
5.5979096e-10
7.4120777e-10
2.6970242e-10
6.3633034e-10
2.8466396e-10
4.397259e-10
6.4868551e-10
4.7539832e-10
3.297907e-10
5.6021222e-10
2.7718962e-10
3.8673942e-10
-3.0379852e-07
-2.9062169e-15
2.9927553e-20
-1.0296174e-17
8.6887967e-16
6.8791878e-16
2.4636526e-16
7.8870729e-16
5.2469857e-16
4.7296002e-16
7.9742125e-16
9.1318645e-16
1.8523614e-15
-1.2249831e-14
3.3663642e-16
1.4058049e-15
6.0180979e-16
5.4411295e-16
2.6613476e-15
1.2584637e-15
6.1139706e-16
1.0323244e-15
1.4659642e-15
6.6662785e-16
8.952701e-16
3.7844555e-16
1.1916203e-15
5.3454563e-16
4.6452407e-16
6.0271619e-16
3.6653591e-16
6.9743288e-16
3.2211964e-16
3.7912846e-16
8.7894239e-16
5.2971859e-16
2.7088213e-16
4.9480613e-16
1.5682021e-16
3.0935908e-16
-1.6446799e-07
1.5824393e-16
1.6442819e-25
-4.7634664e-26
-4.7559144e-23
-1.3143458e-22
2.6038562e-22
6.8361323e-22
5.4374485e-22
5.1269552e-22
8.4366108e-22
1.2229553e-21
2.1363166e-21
-1.7325539e-20
3.9921086e-22
1.0931751e-21
1.2819587e-21
1.2859803e-21
2.7586312e-21
1.6835721e-20
2.9063973e-21
9.8657814e-22
2.3653166e-21
9.6469939e-22
5.9575673e-22
4.5090681e-22
9.8081915e-22
4.5550975e-22
3.4726617e-22
5.7818356e-22
4.4324275e-22
9.5827849e-22
2.5275072e-22
2.6236709e-22
8.8929425e-22
1.0325e-21
2.1713343e-22
4.2928721e-22
1.3295344e-22
2.3650673e-22
-1.0436199e-07
3.1319396e-17
2.5083747e-26
-3.7396868e-35
-1.5774673e-29
7.223094e-30
-8.2252323e-28
6.7768762e-28
5.4552768e-28
3.7722019e-28
1.3199736e-27
1.6385933e-27
2.7368865e-27
-2.2648514e-26
5.3157462e-28
3.4592602e-27
1.0394216e-27
1.4991447e-27
8.3219601e-27
-1.4945109e-23
3.1965435e-27
9.0943993e-28
4.6751993e-27
1.1845818e-27
9.5460375e-28
1.2003086e-27
1.1706771e-27
1.598047e-27
4.7929157e-28
8.5996853e-28
3.9359213e-28
1.0949419e-27
4.5437864e-28
2.5027293e-28
1.0908614e-27
1.0533564e-27
3.6200107e-28
4.5993459e-28
1.0272114e-28
1.8781478e-28
-7.3382778e-08
1.0610245e-17
1.0464867e-26
8.5965806e-36
-1.4466745e-37
-1.8927455e-37
1.4985934e-34
5.2655119e-34
8.8285226e-34
3.6735704e-34
1.4367417e-33
3.7362013e-33
3.509073e-33
-3.5930248e-32
2.0410698e-33
6.1015908e-33
7.0539611e-34
1.5135952e-32
8.3258326e-33
-1.470703e-29
6.9951245e-33
2.0568627e-33
7.3303501e-33
4.0969861e-33
1.9580588e-33
2.0435137e-33
1.002573e-33
3.1668047e-33
5.606651e-34
1.1507572e-33
1.1308881e-33
1.3584102e-33
4.1884811e-34
2.8546182e-34
1.043021e-33
1.3786391e-33
3.6103028e-34
4.5562536e-34
7.9750707e-35
1.7282337e-34
-5.5434176e-08
4.6832232e-18
-5.4987097e-26
-2.7689582e-35
-7.6282151e-44
3.5924121e-45
-9.0169697e-42
5.5666453e-40
6.8725702e-40
4.9166652e-40
3.1775538e-39
4.9977554e-39
5.0285398e-39
-6.6342606e-38
2.1591562e-39
5.6897306e-39
3.6088067e-39
2.4734731e-38
1.3210549e-38
-2.5223747e-35
1.6948228e-38
4.8177275e-39
1.2695086e-38
6.328572e-39
2.1539444e-39
4.395085e-39
2.418013e-39
1.0255437e-38
4.3022665e-40
1.2147313e-39
1.9503788e-39
1.9279016e-39
1.0378785e-39
7.1951441e-40
3.1573049e-39
3.0575858e-39
2.6417784e-40
4.3351422e-40
1.2971987e-40
1.3490616e-40
-4.4051441e-08
2.4346461e-18
-1.0398902e-27
-3.7609839e-37
-4.5509484e-46
-8.0317259e-53
2.4216201e-49
-2.7331748e-46
7.2261213e-46
9.0102115e-46
9.4160034e-45
8.3403478e-45
6.1007951e-45
-1.686716e-43
2.5274096e-45
2.2677397e-44
7.0312475e-45
3.414585e-44
4.5591865e-44
-5.4100762e-41
5.3612749e-44
6.5025749e-45
1.3700659e-44
1.0206358e-44
1.101334e-44
8.3389344e-45
3.6811557e-45
2.8066423e-44
1.7494488e-45
1.7002659e-45
2.7815101e-45
2.1417755e-45
6.8625145e-46
9.4396371e-46
8.3006547e-45
2.0234903e-45
2.6441021e-46
7.1122101e-46
1.1265282e-46
1.5661463e-46
-3.6188132e-08
1.4085673e-18
-2.346332e-28
-6.9899532e-38
-4.583366e-47
-1.1620819e-54
-3.7020097e-57
3.3317068e-53
4.0496743e-52
1.1980232e-51
1.6653065e-50
1.918234e-50
1.816808e-50
-3.52738e-49
-5.0059256e-51
3.8936533e-50
1.0568011e-50
1.325991e-49
5.5450037e-50
-1.8582121e-46
8.9757621e-50
1.8776239e-50
1.8233085e-50
1.1726714e-50
4.5063743e-50
1.4029655e-50
7.9387558e-51
7.2990287e-50
1.0696968e-50
6.0406084e-51
4.0714141e-51
3.1480911e-51
1.1155326e-51
-4.8787203e-51
1.2336282e-50
1.344326e-50
3.4166672e-52
1.1241934e-51
1.8917246e-52
-3.6003096e-52
-3.0270332e-08
8.729035e-19
-7.7337359e-29
-2.1871774e-38
-8.8799279e-48
-3.9746743e-56
4.5323003e-64
-1.6653878e-60
3.4056964e-58
1.54448e-57
2.6728061e-56
2.3839324e-56
1.0792511e-53
-6.1439616e-54
-6.9608685e-56
6.8314319e-56
3.0600958e-56
2.4602664e-55
1.9198831e-55
1.6048482e-51
1.8735236e-55
3.3913008e-56
8.0978398e-56
1.879232e-56
1.454918e-55
8.8651166e-56
4.0855487e-56
2.5088677e-55
7.112763e-56
1.5638767e-56
8.1213844e-57
3.7543448e-57
2.1449579e-57
-5.4913668e-57
1.7850905e-56
1.5783623e-56
3.7289703e-58
1.4011546e-57
2.879668e-58
-9.0263669e-58
-2.5463285e-08
5.6368802e-19
-3.0642394e-29
-1.0013892e-38
-2.7762429e-48
-4.9840722e-57
4.2758375e-65
4.2165842e-68
-4.0043228e-64
1.4839543e-63
1.7419461e-61
-1.1334933e-60
-3.4221091e-59
-7.6416028e-60
-3.0992415e-61
3.9352105e-61
2.88633e-61
1.5896227e-60
7.5431591e-61
8.3307567e-57
2.3726031e-60
-6.5354886e-62
4.3122513e-60
2.2165833e-61
-3.4388301e-60
2.8620756e-60
1.83876e-61
-1.1625168e-60
2.616223e-61
9.3216912e-61
-9.7931e-62
8.6231641e-63
7.1108964e-63
-3.5211878e-62
3.7524897e-62
4.3819125e-62
9.3969154e-64
6.5067095e-63
2.9335914e-63
8.8161312e-64
-2.1365799e-08
3.7234974e-19
-1.3516225e-29
-8.0436347e-39
-1.6430098e-48
-1.5225512e-57
1.370042e-65
-2.0077612e-73
9.7303528e-71
1.1018682e-69
-1.5861641e-64
7.6022377e-66
-3.3693091e-64
-4.6033144e-65
-8.8666006e-67
-4.935381e-67
2.7631864e-66
-6.6871276e-66
-1.033321e-66
-1.0640006e-62
-4.9778719e-66
1.6190225e-66
-1.0322375e-65
2.7327308e-66
5.5021951e-66
-6.3240354e-66
-2.9028219e-66
1.8030972e-66
1.9330275e-66
-2.1438812e-65
-1.0427591e-66
2.8359584e-68
3.039549e-68
-1.3672531e-67
4.5286134e-67
1.9072223e-67
2.2302175e-69
4.9798877e-69
8.8853635e-68
-2.0431289e-69
-1.7813855e-08
2.4881084e-19
-6.380242e-30
7.3775291e-39
1.182375e-48
6.474033e-58
-1.1321017e-65
1.0807902e-73
-7.3432344e-78
3.3576059e-76
-6.8562463e-70
-3.3327017e-71
5.6506863e-70
2.0328393e-70
2.1796047e-72
-2.2014778e-72
-4.6194732e-72
3.552683e-71
1.2113663e-72
1.3935556e-68
2.3721916e-71
-3.0177872e-72
1.5212626e-71
-3.2905449e-72
-1.1748682e-71
7.1216449e-72
5.231625e-72
-2.5714981e-72
-3.5692325e-72
-7.69675e-71
2.0732549e-72
-5.8611461e-74
9.8252866e-74
-2.6113359e-72
-2.5059775e-72
7.0878251e-73
4.2111822e-75
-1.3409802e-74
-4.3597473e-73
1.5036702e-75
-1.4751195e-08
1.6724417e-19
-3.1531238e-30
6.4941521e-40
8.6329808e-50
3.0600074e-59
4.151193e-67
-2.8637935e-75
1.1071189e-82
-2.3476255e-80
-2.342072e-74
4.6280712e-77
-1.1442411e-75
-3.6065553e-76
-2.1768262e-78
2.8655933e-78
4.4216841e-78
-4.2282417e-77
-2.7951814e-78
-2.8560143e-74
-1.8466341e-77
1.9100456e-78
-1.1799351e-77
4.1740104e-78
1.3976184e-77
-1.2195156e-77
-6.2150812e-78
2.4772351e-78
5.3066637e-78
2.1598209e-76
-2.0484943e-78
6.0683762e-80
-2.1851088e-79
-2.2816434e-77
3.5951527e-78
8.6683435e-77
3.7839054e-80
-6.698821e-80
5.5819385e-79
-9.7783378e-82
-1.2143042e-08
1.1277559e-19
-1.6101076e-30
1.5192009e-40
1.7659675e-50
4.330112e-60
1.3967696e-68
-7.6184037e-77
1.6982453e-84
1.5033532e-85
-6.4621789e-80
-6.8502384e-83
1.1963344e-81
5.0967417e-82
2.538717e-84
-2.0962263e-84
-4.5249519e-84
2.1438072e-83
2.8155759e-84
2.2835088e-80
1.2714892e-83
-1.6125586e-84
1.0216916e-83
-5.3136862e-84
-1.1140687e-83
1.2782386e-83
8.4777825e-84
-1.7701069e-84
-3.2202823e-84
-4.0161097e-82
3.2263087e-84
-9.1839539e-86
2.4697165e-85
2.779281e-83
-5.9077999e-84
-1.8411532e-82
-6.7198137e-86
1.8602243e-85
-4.2794428e-85
3.7828579e-88
-9.9404167e-09
7.611125e-20
-8.4165157e-31
4.5663496e-41
4.9030143e-51
8.7558728e-61
1.2794498e-69
-6.0012543e-78
8.3371088e-86
1.2227612e-92
-1.2335329e-85
7.2136416e-89
-9.9593961e-88
-3.8016372e-88
-1.9541654e-90
2.0390649e-90
3.0399122e-90
-1.6119171e-89
-1.3062758e-90
-1.3102196e-86
-7.5081953e-90
9.3121777e-91
-5.5062976e-90
6.3939908e-90
1.2001187e-89
-8.3983099e-90
-4.2824833e-90
1.1407045e-90
3.110944e-90
3.864153e-88
-4.0174276e-90
1.1772454e-91
-4.313499e-91
-2.6251344e-89
1.1608066e-89
5.3958632e-88
2.0004316e-91
-2.2562299e-91
2.5197271e-91
-1.0354281e-94
-8.0865285e-09
5.1266701e-20
-4.4687336e-31
1.5550038e-41
1.6440619e-51
2.2304841e-61
1.8134872e-70
-8.2748641e-79
7.8099759e-87
-8.5921717e-94
-1.8765097e-91
-6.7793755e-95
6.7854767e-94
1.758427e-94
1.2901129e-96
-9.3206619e-97
-2.3227848e-96
9.8587831e-96
7.9516406e-97
9.3829207e-93
4.2794749e-96
-5.8286494e-97
3.7039822e-96
-3.5772254e-96
-6.3271513e-96
5.137542e-96
2.8356721e-96
-1.1888691e-96
-2.1758597e-96
-2.3863007e-94
2.0455197e-96
-7.300145e-98
3.6555661e-97
2.2443533e-95
-7.9220942e-96
-1.2988892e-93
-1.6877337e-97
1.9079963e-97
-1.4934313e-97
2.1595839e-101
-6.5329658e-09
3.4380183e-20
-2.3952572e-31
5.7103004e-42
6.4804977e-52
6.9211944e-62
3.4983207e-71
-1.8543917e-79
1.2678493e-87
-6.8229036e-95
-2.7366803e-97
5.2246769e-101
-3.4824576e-100
-8.8606151e-101
-7.2137262e-103
3.9960207e-103
1.3382931e-102
-5.0905153e-102
-4.4416616e-103
-5.0066158e-99
-1.7654132e-102
2.7439598e-103
-1.5722072e-102
1.5826822e-102
4.0542189e-102
-2.5247944e-102
-1.2363146e-102
6.5173747e-103
1.2702815e-102
1.2014444e-100
-1.0163533e-102
4.5433477e-104
-2.0205944e-103
-1.6681268e-101
7.9505201e-102
9.3851086e-100
1.8403084e-103
-2.6390712e-103
5.3133051e-104
-2.7134218e-108
-5.2489364e-09
2.2952453e-20
-1.2923063e-31
2.2073499e-42
3.1029267e-52
2.691153e-62
9.0897056e-72
-8.8159546e-80
4.5669258e-88
-1.4597213e-95
-2.1576799e-101
-5.1770792e-107
1.7094851e-106
4.0510713e-107
3.4809741e-109
-1.9960103e-109
-5.8289302e-109
2.640198e-108
2.3196871e-109
2.0955872e-105
6.2152388e-109
-1.1399119e-109
6.3347975e-109
-6.6791853e-109
-1.9972796e-108
1.2318147e-108
5.0120026e-109
-4.153795e-109
-7.3400775e-109
-4.8844619e-107
5.6984056e-109
-2.3610333e-110
1.3807379e-109
8.1950246e-108
-6.2871856e-108
-9.629635e-106
-8.7837681e-110
1.456025e-109
-1.4504392e-110
2.3556111e-115
-4.211352e-09
1.5299428e-20
-7.0229072e-32
8.8793406e-43
2.1823117e-52
1.5808701e-62
3.7604918e-72
6.5239623e-80
-2.7248354e-88
5.4485399e-96
-6.0929765e-102
2.6032221e-107
-1.2096535e-112
-2.0751106e-113
-1.247054e-115
8.6772012e-116
1.7933741e-115
-1.1069252e-114
-1.0488041e-115
-6.7931472e-112
-2.2849426e-115
4.8183215e-116
-2.1496978e-115
2.1063804e-115
6.851242e-115
-4.5184144e-115
-1.8898646e-115
1.4544196e-115
2.4470173e-115
2.0401709e-113
-2.3065995e-115
1.3243856e-116
-7.9511681e-116
-5.2290322e-114
3.407655e-114
8.3917988e-112
4.7973784e-116
-7.4157461e-116
3.1479558e-117
-1.6239085e-122
-3.3921779e-09
1.0230426e-20
-3.8551934e-32
3.6988494e-43
-5.6124826e-52
-3.4864703e-62
-6.0831902e-72
-1.9233455e-80
6.7707729e-89
-9.1743578e-97
2.3240195e-103
-3.2913313e-109
1.4630083e-115
7.2968789e-120
5.9484201e-122
-3.4510869e-122
-7.3514826e-122
4.37456e-121
3.6760619e-122
2.526524e-118
6.8585476e-122
-1.683042e-122
6.2856648e-122
-6.0693119e-122
-2.2726313e-121
1.4832757e-121
5.8725003e-122
-5.3701479e-122
-7.9670586e-122
-6.7434625e-120
9.9731523e-122
-6.6181125e-123
3.2415542e-122
1.9219929e-120
-2.0837422e-120
-3.4976184e-118
-2.6659531e-122
2.3363112e-122
-5.801646e-124
1.2217717e-129
-2.7550336e-09
6.8920706e-21
-2.1436635e-32
1.5915405e-43
-2.135707e-53
-1.1670627e-63
-1.5443846e-73
-2.2095474e-82
6.9560665e-91
-6.6943231e-99
8.2872323e-106
-1.5692729e-111
5.9213591e-118
-2.2265429e-124
-1.8306844e-128
1.1156747e-128
2.1833224e-128
-1.318973e-127
-1.1179002e-128
-8.1391778e-125
-2.0905544e-128
4.473947e-129
-1.9635073e-128
1.8887712e-128
8.3875306e-128
-4.8147355e-128
-2.0282287e-128
1.9544888e-128
2.2996944e-128
2.2837233e-126
-3.045878e-128
2.1111269e-129
-1.341535e-128
-1.0784681e-126
8.0285073e-127
1.3312183e-124
9.7976488e-129
-6.5318064e-129
8.6650616e-131
-1.7913234e-136
-2.2608891e-09
4.6893161e-21
-1.208901e-32
7.0554218e-44
-4.2143736e-54
-2.0790171e-64
-2.1452665e-74
-1.746184e-83
5.2361708e-92
-3.7545404e-100
2.4959825e-107
-4.4013178e-113
1.9318345e-119
-6.2954205e-126
1.5354532e-132
-3.2425894e-135
-5.4799724e-135
3.6766716e-134
2.8097687e-135
2.7044334e-131
6.1337013e-135
-1.4189472e-135
6.0356043e-135
-4.9806318e-135
-2.2025585e-134
1.2517138e-134
5.6901051e-135
-5.5220245e-135
-6.5369906e-135
-6.6307265e-133
8.1611907e-135
-7.4293829e-136
4.9383282e-135
3.3309134e-133
-2.7173528e-133
-4.5270186e-131
-2.6531696e-135
1.6861992e-135
-1.3961431e-137
-6.9483584e-143
-1.874834e-09
3.2244195e-21
-6.9123235e-33
3.2121776e-44
-1.1071969e-54
-5.0676091e-65
-4.1780294e-75
-2.1621886e-84
6.7667546e-93
-3.7700974e-101
1.5469184e-108
-1.0907502e-114
3.7399394e-121
-1.4008753e-127
3.9994743e-134
-7.9815739e-141
1.3655018e-141
-9.3629136e-141
-6.993289e-142
-6.5351822e-138
-1.5373778e-141
3.5440796e-142
-1.778537e-141
1.1606098e-141
5.3388854e-141
-2.8100364e-141
-1.3548382e-141
1.2574724e-141
1.8123743e-141
1.644721e-139
-2.4717481e-141
2.4225739e-142
-1.7093629e-141
-1.1779145e-139
1.0386356e-139
1.4540667e-137
6.6178154e-142
-3.0006061e-142
2.9822012e-144
-4.8833059e-150
-1.5696661e-09
2.2402053e-21
-4.0038762e-33
1.497358e-44
-3.3413524e-55
-1.4631129e-65
-9.8475765e-76
-3.4733378e-85
1.2999404e-93
-5.814849e-102
1.5815069e-109
-9.3790625e-116
3.3877133e-122
-7.6190287e-129
1.6199856e-135
-3.4591947e-142
-2.1659018e-148
2.1801629e-147
1.5523207e-148
1.4505514e-144
3.2936417e-148
-8.1352335e-149
3.6222049e-148
-2.6208871e-148
-1.0947935e-147
6.0904542e-148
2.8018924e-148
-2.5600714e-148
-4.0141459e-148
-4.7102532e-146
5.9431651e-148
-6.1675851e-149
4.2870618e-148
3.615173e-146
-2.5180474e-146
-4.1354213e-144
-1.2443015e-148
5.7483821e-149
-1.2633436e-150
-2.7116687e-157
-1.3258449e-09
1.5725477e-21
-2.3483515e-33
7.1313787e-45
-1.1012321e-55
-4.7859668e-66
-2.6815196e-76
-6.771702e-86
4.2173033e-94
-1.5695418e-102
2.939147e-110
-8.3020125e-117
3.3587082e-123
-8.2722509e-130
1.6874968e-136
-3.7508418e-143
7.844675e-150
-4.7366224e-154
-3.1686828e-155
-3.0154322e-151
-6.5941329e-155
1.6081746e-155
-7.6522186e-155
5.2125848e-155
2.1045698e-154
-1.1574899e-154
-5.4847198e-155
5.126843e-155
8.6110975e-155
1.0117394e-152
-1.434865e-154
1.2934982e-155
-9.7859997e-155
-8.8451629e-153
7.5957136e-153
9.1061179e-151
2.1524676e-155
-9.798666e-156
1.8647472e-156
6.0534158e-164
-1.1297609e-09
1.116152e-21
-1.3954648e-33
3.4676705e-45
-3.8732101e-56
-1.7520052e-66
-8.3217593e-77
-1.5627607e-86
-1.1541316e-93
3.7019456e-102
-5.0720879e-110
8.0812821e-117
-2.7125428e-123
5.5334158e-130
-1.228243e-136
2.4593594e-143
-4.9408866e-150
8.5294049e-157
5.748529e-162
5.4518547e-158
1.2123187e-161
-3.0391209e-162
1.3139143e-161
-9.2181866e-162
-3.9517609e-161
1.9411533e-161
1.0360814e-161
-1.0988424e-161
-1.6581751e-161
-2.0096824e-159
2.8255363e-161
-2.6248518e-162
2.0549318e-161
1.9917152e-159
-1.8693702e-159
-1.6307622e-157
-3.1615125e-162
1.5343212e-162
7.105889e-163
2.9067099e-170
-9.7176251e-10
8.0234736e-22
-8.4159501e-34
1.7229633e-45
-1.4373223e-56
-7.2456906e-67
-2.9680652e-77
-4.2733779e-87
-1.5767613e-95
4.5276213e-104
-4.7278344e-112
4.815138e-119
-1.4885051e-125
2.8951621e-132
-5.8827338e-139
1.0740442e-145
-1.8791945e-152
3.1605841e-159
-5.2392778e-166
-9.0231321e-165
-2.0461032e-168
5.1094974e-169
-2.3399297e-168
1.3876262e-168
7.1958721e-168
-3.4936697e-168
-1.7197876e-168
1.891893e-168
3.1419533e-168
3.3479924e-166
-5.27579e-168
5.1262611e-169
-4.0344103e-168
-4.0202086e-166
3.7398564e-166
2.4184355e-164
4.3935355e-169
-2.4420393e-169
2.1687692e-169
9.3540997e-177
-8.4467789e-10
5.8554893e-22
-5.1655669e-34
8.7666441e-46
-5.5984259e-57
-3.5269026e-67
-1.2669515e-77
-1.435511e-87
-2.295588e-96
6.1323009e-105
-4.9952434e-113
3.3463389e-120
-9.6862943e-127
1.8904262e-133
-2.8659292e-140
4.8414729e-147
-7.8438216e-154
1.2118309e-160
-1.8367029e-167
1.4083516e-171
3.3447195e-175
-8.0451624e-176
3.583927e-175
-2.1264383e-175
-1.1211671e-174
5.2045173e-175
2.5357339e-175
-2.8078626e-175
-5.2805244e-175
-5.3284481e-173
8.8538839e-175
-9.2091269e-176
6.9021453e-175
7.6678911e-173
-6.2053278e-173
-3.5185612e-171
-5.0775682e-176
3.7094449e-176
3.5937495e-176
1.9373162e-183
-7.4294446e-10
4.3511369e-22
-3.2384379e-34
4.5831057e-46
-2.2856905e-57
-2.3170907e-67
-7.4216004e-78
-6.7691009e-88
-6.2080469e-97
1.615784e-105
-1.0655018e-113
4.8148238e-121
-1.2043608e-127
2.109791e-134
-3.1720713e-141
4.6403974e-148
-7.5285826e-155
1.1593496e-161
-1.715405e-168
2.3996126e-175
-8.4693955e-182
1.0944452e-182
-4.7642782e-182
3.1739667e-182
1.515907e-181
-8.0014516e-182
-3.4731099e-182
4.1143637e-182
7.6392538e-182
8.3241467e-180
-1.3616963e-181
1.5702478e-182
-1.0758353e-181
-1.3244025e-179
8.9649784e-180
4.3869586e-178
5.1071861e-183
-5.5266963e-183
5.6131093e-183
3.216818e-190
-6.6214479e-10
3.302972e-22
-2.0826489e-34
2.4724162e-46
-9.7931556e-58
-6.8303269e-67
-1.9840203e-77
-1.4870052e-87
-8.863451e-97
2.3974077e-105
-1.3144007e-113
4.4117624e-121
-7.5336685e-128
1.1626097e-134
-1.7013806e-141
2.3130198e-148
-3.0904701e-155
3.9110694e-162
-5.2106987e-169
6.5702435e-176
-8.6417697e-183
-3.0746466e-190
6.3006805e-189
-3.7512943e-189
-1.9694626e-188
1.1183151e-188
4.7103269e-189
-5.730472e-189
-9.7665658e-189
-1.1634874e-186
1.9618678e-188
-2.2452394e-189
1.6978192e-188
1.9610725e-186
-1.2682219e-186
-4.7485296e-185
-5.0207422e-190
8.0923087e-190
8.1437109e-190
4.8230936e-197
-5.9875923e-10
2.5701396e-22
-1.3804578e-34
1.3833074e-46
-4.4165592e-58
4.5024033e-68
1.2073437e-78
7.5788186e-89
3.1626217e-98
-9.6935432e-107
4.5592716e-115
-1.1336015e-122
1.6335591e-129
-2.5092976e-136
3.3133963e-143
-3.829592e-150
4.744942e-157
-5.7566074e-164
7.0795241e-171
-9.1478441e-178
1.0520496e-184
-1.2400734e-191
-7.3383811e-196
4.3777063e-196
2.3673842e-195
-1.3815563e-195
-5.7663046e-196
6.9152646e-196
1.2029103e-195
1.4845235e-193
-2.5895334e-195
2.9466111e-196
-2.3126293e-195
-2.6926049e-193
1.6454903e-193
4.7481451e-192
4.3716045e-197
-1.0860384e-196
1.0233986e-196
6.4473029e-204
-5.4999965e-10
2.0569393e-22
-9.4781251e-35
8.0719233e-47
-2.105503e-58
8.6845905e-69
2.1911494e-79
1.1727932e-89
3.6090368e-99
-1.4624617e-107
6.0730323e-116
-1.1891314e-123
1.2991035e-130
-1.8377921e-137
2.2261855e-144
-2.4877142e-151
2.8648585e-158
-3.1592522e-165
3.6501968e-172
-4.0941537e-179
4.3999815e-186
-4.8412833e-193
5.2250687e-200
-4.8048285e-203
-2.5400168e-202
1.5788857e-202
6.628248e-203
-7.8303802e-203
-1.3273174e-202
-1.6826503e-200
2.92293e-202
-3.470697e-203
2.8146717e-202
3.2365032e-200
-1.8405476e-200
-4.2579034e-199
-3.4309356e-204
1.4425708e-203
1.3418071e-203
8.238898e-211
-5.1367505e-10
1.6984339e-22
-6.7741751e-35
4.9410629e-47
-1.0664387e-58
2.52664e-69
6.1230918e-80
2.8416994e-90
6.7049641e-100
-5.4281786e-108
2.0465081e-116
-3.1797464e-124
2.7378335e-131
-3.3887278e-138
3.740094e-145
-4.0001163e-152
4.178894e-159
-4.3363819e-166
4.6118198e-173
-4.8250241e-180
4.9782867e-187
-5.21436e-194
5.5727282e-201
-5.6804393e-208
2.6898922e-209
-1.6345463e-209
-6.6192003e-210
8.0657975e-210
1.4163388e-209
1.8483461e-207
-3.2609163e-209
3.6760986e-210
-3.1488789e-209
-3.7102409e-207
1.735959e-207
3.5047265e-206
2.5979285e-211
-2.001806e-210
1.4709346e-210
9.7451567e-218
-4.880686e-10
1.4507175e-22
-5.0629737e-35
3.190871e-47
-5.7697889e-59
9.0213148e-70
2.1481357e-80
8.7835809e-91
1.6391052e-100
3.5228489e-108
-1.2418182e-116
1.5801449e-124
-1.0643087e-131
1.3162771e-138
-1.4511969e-145
1.4941171e-152
-1.5076882e-159
1.5737415e-166
-1.6581262e-173
1.6468117e-180
-1.6287131e-187
1.6370909e-194
-1.6534695e-201
1.5141039e-208
-1.7310248e-215
1.674968e-216
6.3029987e-217
-7.925747e-217
-1.3578637e-216
-1.9384287e-214
3.3767751e-216
-3.8694482e-217
3.5308168e-216
4.0395005e-214
-1.6375093e-214
-2.5300642e-213
-1.7990005e-218
2.5293779e-217
1.5857814e-217
1.0858526e-224
-4.7180077e-10
1.2842201e-22
-3.971928e-35
2.1848284e-47
-3.3514048e-59
3.7392952e-70
8.9790923e-81
3.2850275e-91
4.9800045e-101
1.8405646e-109
-6.3001823e-118
6.8152253e-126
-3.7746277e-133
4.2924368e-140
-4.6323018e-147
4.3410202e-154
-4.2628318e-161
4.0600958e-168
-4.0793291e-175
3.9293619e-182
-3.6158386e-189
3.3255099e-196
-3.0902518e-203
2.8263727e-210
-2.6863146e-217
-1.3128506e-223
-5.6420248e-224
7.9718946e-224
1.3166449e-223
1.8171665e-221
-3.396309e-223
3.6802978e-224
-3.6562641e-223
-4.2860196e-221
1.3788791e-221
1.7156603e-220
1.1397701e-225
-3.1984704e-224
1.7636998e-224
1.1978705e-231
-4.6368594e-10
1.179086e-22
-3.278687e-35
1.5920412e-47
-2.0983329e-59
1.7601453e-70
4.399609e-81
1.4635141e-91
1.8465964e-101
3.384566e-110
-1.1734256e-118
1.1032738e-126
-4.9293174e-134
4.8560176e-141
-4.2875966e-148
3.8660489e-155
-3.3610972e-162
2.965019e-169
-2.4946782e-176
2.0500866e-183
-1.7294102e-190
1.4223344e-197
-1.1780382e-204
1.0350986e-211
-9.0228623e-219
7.79611e-226
4.865617e-231
-6.8498729e-231
-1.1424583e-230
-1.7120977e-228
3.2460871e-230
-3.3635917e-231
3.5656714e-230
4.1722176e-228
-1.1184588e-228
-1.0763598e-227
-6.6231906e-233
3.9183098e-231
2.0994652e-231
1.3836823e-238
-4.6256012e-10
1.1218483e-22
-2.8491552e-35
1.2366105e-47
-1.4189957e-59
9.3009416e-71
2.5244235e-81
7.7717829e-92
8.3587052e-102
9.5805285e-111
-3.532429e-119
2.9318237e-127
-1.0581603e-134
8.6823906e-142
-7.0838612e-149
5.2733724e-156
-3.8332523e-163
2.7321752e-170
-1.9333029e-177
1.3547783e-184
-9.4687957e-192
6.806478e-199
-4.8450476e-206
3.4305576e-213
-2.4089991e-220
1.7938271e-227
-1.3032865e-234
5.129764e-238
8.8805682e-238
1.3623584e-235
-2.5237985e-237
2.988761e-238
-3.1751414e-237
-3.6374946e-235
8.7209947e-236
6.596266e-235
4.0601414e-240
-4.2909983e-238
3.2332018e-238
1.9988124e-245
-4.6710183e-10
1.1029239e-22
-2.6012098e-35
1.0227234e-47
-1.0355894e-59
5.4687658e-71
1.7145057e-81
4.9847154e-92
4.6806621e-102
3.7660311e-111
-1.5862453e-119
1.1994163e-127
-3.4214243e-135
2.0753972e-142
-1.2789082e-149
7.7650368e-157
-4.5616171e-164
2.5752779e-171
-1.4856225e-178
8.5021469e-186
-4.7804595e-193
2.7366047e-200
-1.5150705e-207
8.5023106e-215
-4.8324331e-222
2.7550072e-229
-1.5901965e-236
8.8954019e-244
-5.5526981e-245
-8.620265e-243
1.6816297e-244
-2.1419756e-245
2.3542992e-244
2.8775571e-242
-6.1880591e-243
-3.7989546e-242
-2.1082098e-247
3.8506746e-245
6.0849203e-245
3.3542484e-252
-4.7567213e-10
1.1145118e-22
-2.4827924e-35
8.9661381e-48
-8.120831e-60
3.5444585e-71
1.4188393e-81
3.9825486e-92
3.3404769e-102
2.0254694e-111
-1.0962508e-119
7.6788832e-128
-1.7406054e-135
8.05892e-143
-3.8717673e-150
1.8087567e-157
-8.2725918e-165
3.7997286e-172
-1.7598976e-179
8.2107092e-187
-3.7925874e-194
1.7504777e-201
-8.2727651e-209
3.8345687e-216
-1.7575626e-223
8.2349875e-231
-3.9575241e-238
1.9088747e-245
1.7784313e-252
4.3776147e-250
-8.9825559e-252
1.1898993e-252
-1.4159221e-251
-1.7936024e-249
3.4703508e-250
1.8778073e-249
1.0036543e-254
-3.0992621e-252
1.4760874e-251
7.5907644e-259
-4.8625336e-10
1.1487469e-22
-2.4580617e-35
8.2677347e-48
-6.7875749e-60
2.5036884e-71
1.552142e-81
4.2964712e-92
3.2810598e-102
1.5709424e-111
-1.3883914e-119
9.3921885e-128
-1.8076882e-135
7.0212522e-143
-2.9614158e-150
1.2414872e-157
-5.2963571e-165
2.1839068e-172
-9.0648154e-180
3.7100145e-187
-1.5372263e-194
6.5484142e-202
-2.7309066e-209
1.1289289e-216
-4.6817913e-224
1.9683054e-231
-8.1818444e-239
3.3918164e-246
-1.4247285e-253
-1.8840464e-257
3.9579205e-259
-5.4162432e-260
6.7785182e-259
9.0767044e-257
-1.6328835e-257
-8.062752e-257
-4.2953525e-262
2.3817376e-259
5.0417826e-258
2.3569062e-265
-4.9658811e-10
1.1962839e-22
-2.4982493e-35
7.9337359e-48
-5.9791739e-60
1.9015969e-71
3.3216007e-81
9.2118227e-92
6.4781214e-102
2.5202442e-111
-1.2467984e-118
8.4063825e-127
-1.5018785e-134
5.6007546e-142
-2.4295964e-149
1.0640363e-156
-4.5508701e-164
2.0550566e-171
-9.2209567e-179
4.1615275e-186
-1.9007995e-193
8.7780011e-201
-3.9630398e-208
1.8048278e-215
-8.0067914e-223
3.5342444e-230
-1.5505132e-237
6.8148886e-245
-2.8990344e-252
1.1254986e-259
-1.5337153e-266
2.2677865e-267
-2.8290469e-266
-3.8395947e-264
6.4226169e-265
2.9581137e-264
1.6732418e-269
-1.9896042e-266
1.5501935e-264
7.0510608e-272
-5.0455893e-10
1.2458692e-22
-2.5759475e-35
7.8255434e-48
-5.478628e-60
1.5300019e-71
-2.7530413e-81
-7.6932763e-92
-4.9915114e-102
-1.6033267e-111
-1.7020625e-119
1.2025534e-127
-2.1528847e-135
9.7494451e-143
-5.8397143e-150
3.6952265e-157
-2.4675221e-164
1.65441e-171
-1.1246742e-178
7.8848653e-186
-5.4625092e-193
3.7968643e-200
-2.3053654e-207
9.1006841e-216
4.1153148e-221
-1.0045855e-227
2.541139e-234
-4.0584004e-241
6.1214444e-248
-6.9100731e-255
6.2631286e-262
-4.8966726e-269
1.2621558e-273
1.5671442e-271
-2.3715029e-272
-1.0211437e-271
-6.9296642e-277
1.9168614e-273
2.3928686e-271
1.2126508e-278
-5.0870327e-10
1.2855625e-22
-2.6628977e-35
7.8354183e-48
-5.1531015e-60
1.2847894e-71
-7.5519233e-82
-2.1166716e-92
-1.2606337e-102
-3.3747631e-112
-1.4668901e-120
1.1485666e-128
-2.3068672e-136
1.9104696e-143
-4.3606955e-150
1.6702083e-156
-5.4094907e-163
2.1241157e-169
-1.1187651e-175
5.3215063e-182
-3.2101601e-188
1.2654883e-194
-6.0940138e-201
2.605169e-207
-7.9974949e-214
1.7014571e-220
-4.1490182e-227
7.2415741e-234
-1.0904902e-240
1.2919334e-247
-1.2390555e-254
1.016797e-261
-6.793331e-269
3.4857775e-276
1.0013807e-279
3.9647183e-279
3.4427582e-284
-2.3947012e-280
2.6643036e-278
1.5158759e-285
-5.0860238e-10
1.3056061e-22
-2.7315184e-35
7.875275e-48
-4.9184151e-60
1.1111112e-71
-3.9148474e-82
-1.0941445e-92
-5.9702842e-103
-1.3503681e-112
-3.5074326e-121
3.2653472e-129
-7.8860031e-137
2.7682215e-142
3.154591e-149
3.2772981e-156
3.2714698e-163
3.4554885e-170
3.7672351e-177
4.0065279e-184
4.4086988e-191
4.8363239e-198
5.5264756e-205
6.9702176e-212
8.7946975e-219
1.1057388e-225
1.5206967e-232
2.6588203e-239
5.0880837e-246
1.2414783e-252
5.3794192e-259
-1.8752124e-264
6.3251974e-271
-8.0340024e-278
5.5883152e-285
-2.234019e-286
-2.2624628e-291
2.5018153e-287
2.3973329e-285
1.5129632e-292
-5.049065e-10
1.3015953e-22
-2.7591601e-35
7.8747447e-48
-4.7213311e-60
9.7903067e-72
-2.4319799e-82
-6.8574375e-93
-3.4787753e-103
-6.8396238e-113
-1.2495195e-121
1.4870065e-129
-4.1350906e-137
-7.8839644e-144
-6.0303834e-151
-4.5038594e-158
-3.6508956e-165
-3.1671224e-172
-2.9494684e-179
-2.833822e-186
-3.0483487e-193
-3.2279721e-200
-3.5405575e-207
-3.9199105e-214
-4.1344237e-221
-4.0564975e-228
-3.8734971e-235
-3.592557e-242
-3.8848041e-249
-4.8231801e-256
-5.7994112e-263
-6.2949944e-270
-5.5358359e-277
-1.0773988e-283
3.5481364e-290
3.0719038e-293
1.9945251e-298
-1.563753e-294
1.6984035e-292
1.2401652e-299
-4.9899014e-10
1.2758527e-22
-2.7326618e-35
7.7813316e-48
-4.5276799e-60
8.7158431e-72
-1.610576e-82
-4.8310394e-93
-2.3800404e-103
-4.284581e-113
-6.1493925e-122
1.0223391e-129
-2.5043679e-137
4.2646731e-144
4.4936188e-150
-3.5293683e-156
1.0256254e-162
-1.9566081e-169
3.1427897e-176
-4.3955468e-183
5.1429225e-190
-5.8536181e-197
6.7073743e-204
-9.0525678e-211
1.2863009e-217
-2.1585908e-224
5.406077e-231
-3.0897115e-237
-9.2640408e-243
-2.532656e-249
-3.8140272e-256
-4.1410974e-263
-3.2638139e-270
-2.681942e-277
-3.6270324e-284
2.2010533e-290
-1.4475197e-297
5.7970358e-302
9.9827504e-300
9.1030429e-307
-4.9244935e-10
1.2359282e-22
-2.6508175e-35
7.5595369e-48
-4.3120024e-60
7.7824242e-72
-1.0839674e-82
-3.9300168e-93
-2.0457982e-103
-3.6629315e-113
-4.58937e-122
1.2491241e-129
-2.0647313e-137
5.4492268e-145
-1.5262746e-152
3.9164357e-160
-9.1729763e-168
2.0591854e-175
-5.0478606e-183
1.9321224e-190
-1.4150785e-197
1.4580026e-204
-1.654534e-211
2.2116774e-218
-3.1937707e-225
5.5738001e-232
-1.4414294e-238
8.6049135e-245
2.8071683e-250
8.4298317e-257
1.5268165e-263
2.3614105e-270
3.3698365e-277
1.8823979e-284
-4.4964425e-291
-2.1691186e-297
1.1317969e-304
-1.4494636e-309
4.6454955e-307
4.173466e-313
-4.8669504e-10
1.1913454e-22
-2.5241465e-35
7.1925482e-48
-4.0511794e-60
6.9146276e-72
-7.3191905e-83
-4.3679181e-93
-2.7845777e-103
-5.6292751e-113
-6.8991477e-122
5.8124114e-129
-6.3189316e-137
6.8096514e-145
-7.1381039e-153
7.1718244e-161
-6.8711177e-169
6.3631757e-177
-5.7943391e-185
5.1790796e-193
-4.6425922e-201
4.1253964e-209
-3.6893604e-217
3.1537052e-225
3.731991e-235
-5.329486e-240
1.4971215e-246
-9.1691997e-253
-3.1709845e-258
-1.0192423e-264
-2.0462893e-271
-3.8250654e-278
-7.1926271e-285
-4.2531052e-292
2.1310755e-298
5.539348e-305
-3.1635123e-312
-4.1910062e-313
5.032438e-314
-2.2251258e-313
-4.8274467e-10
1.1506451e-22
-2.3721524e-35
6.6893437e-48
-3.726223e-60
6.0558056e-72
-4.9802839e-83
-6.1394314e-92
-6.4355422e-102
-1.8145243e-111
-2.47516e-120
-1.2767376e-127
1.0144158e-135
-6.4174394e-144
3.8229885e-152
-2.2069381e-160