/*--------------------------------*- C++ -*----------------------------------*\
  =========                 |
  \\      /  F ield         | OpenFOAM: The Open Source CFD Toolbox
   \\    /   O peration     | Website:  https://openfoam.org
    \\  /    A nd           | Version:  10
     \\/     M anipulation  |
\*---------------------------------------------------------------------------*/
FoamFile
{
    format      ascii;
    class       volVectorField;
    location    "0.11";
    object      U;
}
// * * * * * * * * * * * * * * * * * * * * * * * * * * * * * * * * * * * * * //

dimensions      [0 1 -1 0 0 0 0];

internalField   nonuniform List<vector> 
4000
(
(0 0.018635103 0.47773275)
(0 0.023505574 0.50885997)
(0 0.0081627601 0.50052538)
(0 0.0056105192 0.50033647)
(0 0.0042502336 0.50025749)
(0 0.0032504467 0.50016898)
(0 0.0025516358 0.50011967)
(0 0.0020502646 0.50009009)
(0 0.0016724828 0.50006975)
(0 0.0013784398 0.50005532)
(0 0.0011437552 0.50004491)
(0 0.00095208299 0.50003724)
(0 0.00079216242 0.50003149)
(0 0.00065601155 0.50002715)
(0 0.00053779583 0.50002386)
(0 0.00043312852 0.50002138)
(0 0.00033861633 0.50001953)
(0 0.00025155126 0.50001819)
(0 0.00016969464 0.5000173)
(0 9.1118405e-05 0.50001679)
(0 1.4083313e-05 0.50001664)
(0 -6.3069259e-05 0.50001684)
(0 -0.00014200819 0.5000174)
(0 -0.00022450444 0.50001836)
(0 -0.00031254273 0.50001977)
(0 -0.00040845159 0.50002173)
(0 -0.00051507539 0.50002435)
(0 -0.00063601378 0.50002782)
(0 -0.00077596958 0.50003242)
(0 -0.0009412789 0.50003855)
(0 -0.0011407624 0.50004682)
(0 -0.0013870914 0.5000582)
(0 -0.0016990278 0.50007412)
(0 -0.0021069368 0.5000971)
(0 -0.0026667567 0.50013486)
(0 -0.0034606817 0.50020247)
(0 -0.0045535807 0.50027166)
(0 -0.0065781116 0.50043395)
(0 -0.017652449 0.50675309)
(0 -0.013586549 0.47975761)
(0 0.037426203 0.44797728)
(0 0.050942381 0.53232539)
(0 0.021955836 0.50804316)
(0 0.01612266 0.50357405)
(0 0.012402164 0.50242347)
(0 0.0095018151 0.50162301)
(0 0.0075066488 0.50115643)
(0 0.0060563551 0.50086556)
(0 0.0049517274 0.50066747)
(0 0.0040882077 0.50052833)
(0 0.0033968205 0.50042822)
(0 0.0028305968 0.5003546)
(0 0.002357143 0.50029961)
(0 0.0019533558 0.50025812)
(0 0.0016022561 0.50022669)
(0 0.0012910301 0.50020296)
(0 0.0010097347 0.5001853)
(0 0.00075041375 0.50017259)
(0 0.0005064748 0.50016405)
(0 0.00027222969 0.5001592)
(0 4.2539699e-05 0.50015776)
(0 -0.00018749398 0.50015968)
(0 -0.00042280076 0.50016505)
(0 -0.00066861089 0.50017419)
(0 -0.00093077642 0.50018765)
(0 -0.0012161493 0.50020628)
(0 -0.0015330775 0.5002313)
(0 -0.0018920932 0.50026451)
(0 -0.0023069053 0.50030856)
(0 -0.0027958842 0.50036731)
(0 -0.0033844389 0.50044673)
(0 -0.0041089842 0.50055628)
(0 -0.005022647 0.50071107)
(0 -0.0062053475 0.5009367)
(0 -0.0078060086 0.50129479)
(0 -0.010100609 0.50191139)
(0 -0.013083801 0.50282689)
(0 -0.017403663 0.50608228)
(0 -0.03873741 0.52526694)
(0 -0.027884324 0.45023031)
(0 0.039878497 0.40984223)
(0 0.061405243 0.549311)
(0 0.031958701 0.52188166)
(0 0.024332374 0.51008232)
(0 0.019169081 0.5065894)
(0 0.014952354 0.50452811)
(0 0.011982273 0.50327083)
(0 0.0097482532 0.50245728)
(0 0.0080140636 0.50189948)
(0 0.0066440093 0.50150667)
(0 0.005537828 0.50122307)
(0 0.0046259507 0.50101397)
(0 0.0038596057 0.50085752)
(0 0.0032033641 0.50073933)
(0 0.0026308595 0.50064971)
(0 0.0021220072 0.500582)
(0 0.0016610992 0.50053158)
(0 0.0012354846 0.50049524)
(0 0.00083462516 0.50047083)
(0 0.0004493903 0.50045696)
(0 7.1507392e-05 0.50045286)
(0 -0.00030691773 0.50045832)
(0 -0.00069382771 0.50047366)
(0 -0.0010976363 0.50049979)
(0 -0.0015277254 0.50053824)
(0 -0.001995028 0.5005914)
(0 -0.0025127837 0.50066277)
(0 -0.003097569 0.50075743)
(0 -0.0037707613 0.50088279)
(0 -0.0045606523 0.50104976)
(0 -0.0055056539 0.50127488)
(0 -0.0066598098 0.50158431)
(0 -0.0081003995 0.50202018)
(0 -0.0099316125 0.50265091)
(0 -0.012326296 0.50361621)
(0 -0.015672657 0.50520159)
(0 -0.019832367 0.50785808)
(0 -0.025145257 0.51641366)
(0 -0.047379684 0.53913162)
(0 -0.03083727 0.41491737)
(0 0.034779493 0.36177253)
(0 0.063805997 0.55457595)
(0 0.039341141 0.53747022)
(0 0.030048085 0.51849473)
(0 0.024075959 0.51197881)
(0 0.019242689 0.50849944)
(0 0.015699846 0.50626301)
(0 0.012919045 0.5047531)
(0 0.010710344 0.50370111)
(0 0.0089369709 0.50295193)
(0 0.0074858418 0.50240609)
(0 0.0062772439 0.5020011)
(0 0.0052533238 0.50169667)
(0 0.0043707776 0.50146589)
(0 0.0035967431 0.5012904)
(0 0.0029057917 0.50115752)
(0 0.0022777727 0.50105839)
(0 0.0016962817 0.50098687)
(0 0.001147534 0.50093877)
(0 0.00061950492 0.5009114)
(0 0.00010124904 0.50090329)
(0 -0.00041770021 0.50091404)
(0 -0.00094787232 0.50094427)
(0 -0.0015003864 0.5009957)
(0 -0.0020875737 0.50107132)
(0 -0.0027236946 0.50117573)
(0 -0.0034258461 0.50131563)
(0 -0.0042151676 0.50150071)
(0 -0.005118506 0.501745)
(0 -0.0061707133 0.50206896)
(0 -0.0074177383 0.5025031)
(0 -0.0089218989 0.50309443)
(0 -0.010770667 0.5039177)
(0 -0.013070755 0.50508934)
(0 -0.015957856 0.50680888)
(0 -0.019834809 0.509472)
(0 -0.024670563 0.51428117)
(0 -0.031049059 0.52824826)
(0 -0.050264725 0.54409104)
(0 -0.028416734 0.37245374)
(0 0.027410795 0.31491233)
(0 0.062271911 0.55027102)
(0 0.044558665 0.5514666)
(0 0.033931873 0.5274894)
(0 0.0274135 0.51772449)
(0 0.022404454 0.51291964)
(0 0.018586949 0.50972912)
(0 0.015479998 0.50748847)
(0 0.012960613 0.50589412)
(0 0.010899855 0.50473959)
(0 0.0091862807 0.50388748)
(0 0.0077409761 0.5032493)
(0 0.0065038914 0.50276616)
(0 0.0054285401 0.50239782)
(0 0.0044788137 0.5021165)
(0 0.0036261873 0.50190274)
(0 0.0028476584 0.50174284)
(0 0.0021242295 0.50162723)
(0 0.0014397488 0.50154936)
(0 0.00077999716 0.50150499)
(0 0.00013195099 0.50149182)
(0 -0.00051687984 0.50150919)
(0 -0.0011790577 0.50155809)
(0 -0.0018677934 0.50164123)
(0 -0.0025976327 0.5017633)
(0 -0.0033852268 0.50193145)
(0 -0.0042502785 0.5021561)
(0 -0.0052167539 0.50245214)
(0 -0.006314491 0.50284085)
(0 -0.0075813594 0.50335289)
(0 -0.0090657271 0.50403294)
(0 -0.01083014 0.50494754)
(0 -0.01296155 0.50619957)
(0 -0.015563959 0.507944)
(0 -0.018725297 0.51040736)
(0 -0.022807292 0.51406167)
(0 -0.028091563 0.52115262)
(0 -0.035615211 0.53932822)
(0 -0.050403036 0.54160158)
(0 -0.024060495 0.33067852)
(0 0.019823755 0.27529817)
(0 0.057937338 0.5398041)
(0 0.047289385 0.56256656)
(0 0.03640949 0.53660339)
(0 0.029569453 0.52350911)
(0 0.024609669 0.5174027)
(0 0.020709033 0.51335917)
(0 0.01744693 0.5104379)
(0 0.014754786 0.50831507)
(0 0.012511518 0.50675042)
(0 0.010615538 0.50557934)
(0 0.0089947755 0.50469272)
(0 0.0075915348 0.50401562)
(0 0.0063598788 0.5034958)
(0 0.0052632738 0.50309655)
(0 0.0042721774 0.50279183)
(0 0.0033622885 0.5025631)
(0 0.002513199 0.50239727)
(0 0.0017073135 0.50228534)
(0 0.00092897278 0.50222146)
(0 0.00016372679 0.50220242)
(0 -0.00060233046 0.50222733)
(0 -0.0013831818 0.50229755)
(0 -0.0021934606 0.50241682)
(0 -0.003049146 0.50259159)
(0 -0.0039683127 0.50283167)
(0 -0.0049720294 0.50315121)
(0 -0.0060854614 0.50357023)
(0 -0.0073392651 0.50411694)
(0 -0.0087714836 0.50483129)
(0 -0.01042951 0.50577033)
(0 -0.012371771 0.50701639)
(0 -0.014678602 0.50869269)
(0 -0.01745204 0.510981)
(0 -0.020746239 0.51412396)
(0 -0.024857469 0.51873892)
(0 -0.030393464 0.52823569)
(0 -0.038506214 0.54872915)
(0 -0.048415952 0.53407295)
(0 -0.019038086 0.29411714)
(0 0.013068635 0.24269103)
(0 0.051736805 0.52529599)
(0 0.047614665 0.57025795)
(0 0.0376675 0.54551992)
(0 0.03076488 0.52928936)
(0 0.025988999 0.5218002)
(0 0.022155178 0.51699196)
(0 0.018874038 0.51346351)
(0 0.016118238 0.51085145)
(0 0.013779767 0.50889574)
(0 0.011772065 0.50741303)
(0 0.010032453 0.5062783)
(0 0.008508216 0.50540379)
(0 0.0071565132 0.50472736)
(0 0.0059424563 0.50420462)
(0 0.0048371399 0.50380364)
(0 0.0038162899 0.50350145)
(0 0.0028591496 0.50328168)
(0 0.001947547 0.50313297)
(0 0.0010651133 0.50304793)
(0 0.00019661855 0.50302247)
(0 -0.00067265019 0.50305546)
(0 -0.0015574838 0.50314863)
(0 -0.0024732807 0.5033067)
(0 -0.0034367049 0.50353785)
(0 -0.0044663652 0.50385437)
(0 -0.0055836107 0.50427388)
(0 -0.0068134738 0.50482104)
(0 -0.0081857866 0.50553014)
(0 -0.009736755 0.506449)
(0 -0.011510723 0.50764483)
(0 -0.013560096 0.50921253)
(0 -0.015954509 0.51129013)
(0 -0.018789556 0.51407722)
(0 -0.022096915 0.51784293)
(0 -0.026116848 0.52347699)
(0 -0.031698438 0.53537701)
(0 -0.039600281 0.55591083)
(0 -0.044781851 0.52297124)
(0 -0.014059349 0.26289153)
(0 0.0077551663 0.21571723)
(0 0.044754645 0.50815509)
(0 0.046138772 0.57440476)
(0 0.037920704 0.55374165)
(0 0.031180213 0.5349583)
(0 0.02666302 0.52602727)
(0 0.02301372 0.52052966)
(0 0.019821858 0.51647404)
(0 0.017088686 0.51342265)
(0 0.014726723 0.51110728)
(0 0.012667468 0.5093322)
(0 0.010858758 0.50796011)
(0 0.0092545821 0.50689341)
(0 0.0078168653 0.50606215)
(0 0.0065137601 0.50541575)
(0 0.0053182077 0.50491733)
(0 0.0042069978 0.50454012)
(0 0.0031599009 0.50426487)
(0 0.0021589168 0.50407813)
(0 0.0011876231 0.5039711)
(0 0.00023060524 0.50393889)
(0 -0.00072709008 0.50398015)
(0 -0.0017004924 0.50409695)
(0 -0.0027051636 0.50429492)
(0 -0.0037577881 0.50458376)
(0 -0.0048767495 0.504978)
(0 -0.0060827938 0.50549827)
(0 -0.007399796 0.50617321)
(0 -0.0088555862 0.50704219)
(0 -0.010483116 0.50815941)
(0 -0.012322135 0.50960019)
(0 -0.014417963 0.51146962)
(0 -0.016826936 0.51391669)
(0 -0.01963107 0.51715046)
(0 -0.022846756 0.52148402)
(0 -0.02669497 0.52818997)
(0 -0.032160543 0.542216)
(0 -0.039205811 0.56053395)
(0 -0.040196731 0.50931039)
(0 -0.0096746098 0.23618108)
(0 0.0039894899 0.19377647)
(0 0.037819085 0.48969474)
(0 0.043546749 0.57528723)
(0 0.037420529 0.56083104)
(0 0.031020593 0.54035384)
(0 0.026784946 0.53000573)
(0 0.0233881 0.52388942)
(0 0.02035941 0.51939312)
(0 0.017712737 0.51596209)
(0 0.015383777 0.51332754)
(0 0.013322118 0.51128758)
(0 0.011486279 0.50969634)
(0 0.0098379728 0.50844917)
(0 0.0083448416 0.50747039)
(0 0.0069789364 0.50670461)
(0 0.0057158686 0.50611112)
(0 0.0045342415 0.50566004)
(0 0.0034150237 0.50532976)
(0 0.0023409899 0.50510507)
(0 0.0012962134 0.50497597)
(0 0.00026560713 0.5049369)
(0 -0.00076552696 0.50498631)
(0 -0.0018119604 0.50512654)
(0 -0.0028889019 0.50536404)
(0 -0.0040125019 0.50570977)
(0 -0.0052003096 0.50618016)
(0 -0.0064717895 0.50679833)
(0 -0.0078489065 0.50759614)
(0 -0.0093566832 0.50861698)
(0 -0.011023895 0.50992)
(0 -0.012884598 0.51158658)
(0 -0.014976528 0.51372945)
(0 -0.017342472 0.51650451)
(0 -0.020047006 0.52012326)
(0 -0.023098452 0.52496512)
(0 -0.026735783 0.53274234)
(0 -0.031966361 0.54837902)
(0 -0.037756112 0.5626051)
(0 -0.0352638 0.49411901)
(0 -0.0061648856 0.21366237)
(0 0.0015350622 0.1764014)
(0 0.031409422 0.47104569)
(0 0.040366629 0.57346675)
(0 0.036382682 0.56658131)
(0 0.030473174 0.54536358)
(0 0.026514657 0.53369468)
(0 0.023390541 0.52701507)
(0 0.020564244 0.52216225)
(0 0.018045241 0.51841712)
(0 0.015789641 0.51550975)
(0 0.013762909 0.51323787)
(0 0.01193346 0.51145083)
(0 0.010270852 0.5100396)
(0 0.0087486887 0.50892464)
(0 0.0073433024 0.50804725)
(0 0.006033445 0.50736385)
(0 0.0048000125 0.50684229)
(0 0.003625638 0.5064591)
(0 0.0024943189 0.50619768)
(0 0.0013910525 0.5060471)
(0 0.0003014915 0.50600123)
(0 -0.0007884021 0.50605837)
(0 -0.0018927355 0.50622109)
(0 -0.0030259493 0.50649648)
(0 -0.0042032275 0.50689655)
(0 -0.0054408321 0.50743918)
(0 -0.0067564713 0.50814946)
(0 -0.0081697077 0.50906166)
(0 -0.0097022985 0.51022215)
(0 -0.011378451 0.51169355)
(0 -0.013226102 0.51356131)
(0 -0.015275564 0.51594298)
(0 -0.017557647 0.51899731)
(0 -0.020119799 0.52293583)
(0 -0.022969589 0.52823308)
(0 -0.026382591 0.53703388)
(0 -0.031276993 0.55364018)
(0 -0.035622163 0.56241389)
(0 -0.030382294 0.47833995)
(0 -0.0035529752 0.19511532)
(0 6.0169953e-05 0.16284488)
(0 0.025769519 0.45297553)
(0 0.036966385 0.56956069)
(0 0.034977873 0.57097124)
(0 0.029677608 0.54993785)
(0 0.025984633 0.53709759)
(0 0.02312298 0.52988894)
(0 0.020512482 0.52474978)
(0 0.018143234 0.52075381)
(0 0.015986369 0.51762076)
(0 0.014020451 0.51515188)
(0 0.012222449 0.51319496)
(0 0.010569124 0.51163877)
(0 0.0090397048 0.5104016)
(0 0.0076147828 0.50942265)
(0 0.0062764015 0.50865653)
(0 0.0050079797 0.50806949)
(0 0.0037940895 0.50763675)
(0 0.002620247 0.50734072)
(0 0.0014726777 0.50716974)
(0 0.00033807974 0.50711728)
(0 -0.00079661811 0.5071815)
(0 -0.0019445505 0.50736518)
(0 -0.0031190824 0.50767587)
(0 -0.0043341249 0.50812636)
(0 -0.0056043534 0.50873562)
(0 -0.006945442 0.5095301)
(0 -0.0083743098 0.51054576)
(0 -0.0099093079 0.51183092)
(0 -0.011570144 0.51345039)
(0 -0.013378844 0.51549192)
(0 -0.015358903 0.51807537)
(0 -0.017531179 0.52135925)
(0 -0.019928637 0.52555842)
(0 -0.02256484 0.53127294)
(0 -0.025750851 0.54101161)
(0 -0.030222793 0.55791027)
(0 -0.033097046 0.56035831)
(0 -0.025803502 0.46266374)
(0 -0.0017245419 0.18008034)
(0 -0.00073485031 0.15228407)
(0 0.020995193 0.43591718)
(0 0.033596039 0.56411991)
(0 0.033348838 0.57407507)
(0 0.028734047 0.55405599)
(0 0.025293836 0.54023814)
(0 0.02266857 0.53252112)
(0 0.020270671 0.52714745)
(0 0.018059354 0.52295582)
(0 0.016014714 0.5196407)
(0 0.014125832 0.51700851)
(0 0.012376745 0.51490778)
(0 0.010750378 0.51322661)
(0 0.0092309243 0.51188235)
(0 0.0078029253 0.51081319)
(0 0.0064516175 0.50997272)
(0 0.0051629667 0.50932624)
(0 0.003923592 0.50884817)
(0 0.002720687 0.50852023)
(0 0.0015418925 0.50833029)
(0 0.00037515456 0.50827153)
(0 -0.00079142144 0.50834204)
(0 -0.0019697869 0.50854472)
(0 -0.0031720283 0.50888744)
(0 -0.0044105955 0.50938353)
(0 -0.0056984187 0.51005267)
(0 -0.007049031 0.51092218)
(0 -0.0084766792 0.51202902)
(0 -0.009996407 0.5134226)
(0 -0.011623777 0.51516887)
(0 -0.013375497 0.51735657)
(0 -0.015269033 0.52010601)
(0 -0.017317138 0.52357355)
(0 -0.019541916 0.52798494)
(0 -0.021968928 0.53408998)
(0 -0.024930852 0.54464429)
(0 -0.028918594 0.56118176)
(0 -0.030411922 0.55683627)
(0 -0.021680447 0.44753034)
(0 -0.00052137752 0.16797079)
(0 -0.0010869722 0.14402227)
(0 0.017077054 0.42008604)
(0 0.030410837 0.55760566)
(0 0.031613116 0.57601551)
(0 0.027716035 0.5577105)
(0 0.024515178 0.54314157)
(0 0.022093243 0.53493384)
(0 0.019894009 0.52936081)
(0 0.017838979 0.5250188)
(0 0.015911347 0.52155982)
(0 0.014108243 0.51879493)
(0 0.01241928 0.51657491)
(0 0.010832401 0.51478819)
(0 0.0093359751 0.51335204)
(0 0.0079180324 0.51220439)
(0 0.0065667364 0.51129846)
(0 0.0052704767 0.51059914)
(0 0.0040178984 0.5100804)
(0 0.002797916 0.50972362)
(0 0.0015996712 0.50951637)
(0 0.00041246808 0.50945167)
(0 -0.00077429102 0.50952756)
(0 -0.0019712526 0.50974702)
(0 -0.0031891158 0.5101181)
(0 -0.0044387846 0.51065445)
(0 -0.0057314011 0.51137613)
(0 -0.0070783835 0.51231092)
(0 -0.0084914292 0.51349623)
(0 -0.0099825287 0.51498189)
(0 -0.011563592 0.51683418)
(0 -0.013246775 0.51914197)
(0 -0.015044424 0.52202465)
(0 -0.016962883 0.52563574)
(0 -0.019017378 0.53022168)
(0 -0.021250091 0.536695)
(0 -0.023995166 0.54791173)
(0 -0.027465668 0.56350046)
(0 -0.027736872 0.55221219)
(0 -0.018086788 0.43320629)
(0 0.00021471306 0.15824141)
(0 -0.0011696885 0.1375088)
(0 0.013937473 0.4055639)
(0 0.027490476 0.55039435)
(0 0.029858334 0.57694166)
(0 0.026675438 0.56090809)
(0 0.023700987 0.54583123)
(0 0.021448309 0.53715352)
(0 0.019427217 0.53140259)
(0 0.017520029 0.52694564)
(0 0.015708001 0.52337518)
(0 0.013993829 0.52050438)
(0 0.012371263 0.51818717)
(0 0.01083215 0.5163129)
(0 0.0093682262 0.51479932)
(0 0.0079704758 0.51358463)
(0 0.0066296328 0.51262215)
(0 0.0053362949 0.51187668)
(0 0.0040810193 0.51132212)
(0 0.002854398 0.51093971)
(0 0.001647077 0.51071691)
(0 0.00044975022 0.51064666)
(0 -0.0007468386 0.51072696)
(0 -0.001951986 0.51096083)
(0 -0.0031749737 0.51135642)
(0 -0.0044251584 0.51192749)
(0 -0.0057119407 0.51269422)
(0 -0.0070447426 0.51368453)
(0 -0.0084329337 0.51493586)
(0 -0.0098857992 0.51649797)
(0 -0.01141215 0.51843692)
(0 -0.01302042 0.52084105)
(0 -0.014718832 0.52382798)
(0 -0.016508978 0.52754889)
(0 -0.018403013 0.5322815)
(0 -0.020462152 0.53910115)
(0 -0.023000342 0.55080752)
(0 -0.025945981 0.56495092)
(0 -0.0251826 0.54680659)
(0 -0.015033747 0.41984165)
(0 0.00062162254 0.15043036)
(0 -0.0011013084 0.13230468)
(0 0.011465755 0.39234367)
(0 0.024862446 0.54278188)
(0 0.028142861 0.57700959)
(0 0.025645087 0.56366884)
(0 0.022885939 0.54832936)
(0 0.020771688 0.53920794)
(0 0.018905239 0.53328971)
(0 0.017133292 0.52874388)
(0 0.015431346 0.52508845)
(0 0.013805248 0.52213451)
(0 0.012251599 0.51973934)
(0 0.010765144 0.51779364)
(0 0.0093402169 0.51621591)
(0 0.0079702006 0.51494491)
(0 0.0066480061 0.51393435)
(0 0.0053661715 0.51314927)
(0 0.0041169939 0.51256366)
(0 0.0028926375 0.51215882)
(0 0.0016851942 0.51192221)
(0 0.00048671791 0.51184678)
(0 -0.00071072248 0.51193051)
(0 -0.0019150896 0.51217643)
(0 -0.0031342803 0.51259268)
(0 -0.0043761656 0.51319299)
(0 -0.0056485141 0.5139975)
(0 -0.0069589316 0.51503396)
(0 -0.0083147389 0.51633959)
(0 -0.0097229148 0.51796372)
(0 -0.01118974 0.51997185)
(0 -0.012720744 0.5224514)
(0 -0.014321014 0.52551773)
(0 -0.015988982 0.52932143)
(0 -0.01773692 0.53418161)
(0 -0.019644997 0.54132403)
(0 -0.021987275 0.55333946)
(0 -0.024420041 0.56563969)
(0 -0.022811231 0.54088815)
(0 -0.012491371 0.40750058)
(0 0.00080830052 0.14414449)
(0 -0.00095827211 0.12806509)
(0 0.0095431538 0.38036113)
(0 0.022522962 0.53499111)
(0 0.026501436 0.57636631)
(0 0.024643128 0.56602047)
(0 0.022090558 0.55065602)
(0 0.020089409 0.54112404)
(0 0.018354 0.53504122)
(0 0.016702803 0.53042405)
(0 0.015103049 0.52670452)
(0 0.013561518 0.52368615)
(0 0.012076612 0.5212293)
(0 0.010645129 0.51922615)
(0 0.009263303 0.51759605)
(0 0.0079263926 0.51627847)
(0 0.00662909 0.51522767)
(0 0.0053655865 0.51440906)
(0 0.0041297142 0.51379692)
(0 0.002915065 0.5133727)
(0 0.0017150749 0.51312397)
(0 0.00052308363 0.51304372)
(0 -0.00066757695 0.51312993)
(0 -0.0018635979 0.5133856)
(0 -0.0030715687 0.5138188)
(0 -0.004297981 0.51444314)
(0 -0.005549122 0.51527855)
(0 -0.0068309963 0.5163525)
(0 -0.0081491795 0.51770174)
(0 -0.0095087538 0.51937502)
(0 -0.010914017 0.52143707)
(0 -0.01236833 0.52397417)
(0 -0.013874544 0.5270994)
(0 -0.01542938 0.53096541)
(0 -0.017047604 0.53594134)
(0 -0.018826057 0.54338017)
(0 -0.020983349 0.55552525)
(0 -0.022929283 0.56567895)
(0 -0.020650279 0.53467133)
(0 -0.010406904 0.39618521)
(0 0.00085500007 0.13905167)
(0 -0.00078806896 0.12452973)
(0 0.0080570964 0.36952139)
(0 0.02045144 0.52718411)
(0 0.024951489 0.57514178)
(0 0.023677742 0.56799321)
(0 0.021325269 0.55282759)
(0 0.019417961 0.54292565)
(0 0.017791718 0.53667624)
(0 0.016246555 0.5319981)
(0 0.014740077 0.52823012)
(0 0.013278087 0.52516226)
(0 0.011859977 0.52265713)
(0 0.010483917 0.52060833)
(0 0.0091474612 0.51893604)
(0 0.0078472751 0.51758046)
(0 0.0065794639 0.51649642)
(0 0.0053395889 0.51564984)
(0 0.0041228008 0.51501532)
(0 0.0029239541 0.51457455)
(0 0.0017377013 0.51431525)
(0 0.00055856305 0.51423049)
(0 -0.00061895901 0.51431828)
(0 -0.0018003785 0.51458154)
(0 -0.0029910859 0.51502824)
(0 -0.004196326 0.51567179)
(0 -0.0054210787 0.51653184)
(0 -0.0066699743 0.51763544)
(0 -0.0079471451 0.51901883)
(0 -0.0092561661 0.52073007)
(0 -0.010599844 0.52283308)
(0 -0.011979995 0.52541295)
(0 -0.013397996 0.52858077)
(0 -0.014850133 0.53249459)
(0 -0.016355222 0.53757972)
(0 -0.018022839 0.54528496)
(0 -0.02000546 0.55738766)
(0 -0.021499691 0.56517587)
(0 -0.018704337 0.52832131)
(0 -0.0087174195 0.3858579)
(0 0.00081823716 0.13488082)
(0 -0.00061867604 0.12150908)
(0 0.0069085098 0.35971781)
(0 0.018619564 0.5194759)
(0 0.023498419 0.57344732)
(0 0.022750747 0.56961719)
(0 0.020593786 0.55485638)
(0 0.018766743 0.54463226)
(0 0.017230528 0.53821233)
(0 0.015777501 0.53347798)
(0 0.014355282 0.52967278)
(0 0.012967132 0.52656702)
(0 0.011612826 0.52402435)
(0 0.01029139 0.52193964)
(0 0.0090012246 0.52023375)
(0 0.0077400136 0.51884753)
(0 0.0065049494 0.5177364)
(0 0.0052927006 0.51686675)
(0 0.0040995252 0.51621356)
(0 0.0029213692 0.51575878)
(0 0.0017539612 0.51549033)
(0 0.00059288157 0.51540134)
(0 -0.00056631115 0.51548985)
(0 -0.0017280664 0.51575873)
(0 -0.0028967002 0.51621578)
(0 -0.0040763573 0.5168742)
(0 -0.0052708894 0.5177533)
(0 -0.0064837761 0.51887969)
(0 -0.0077179871 0.52028905)
(0 -0.0089759383 0.52202878)
(0 -0.010259365 0.524162)
(0 -0.011569047 0.52677271)
(0 -0.012905502 0.52997063)
(0 -0.014265654 0.53392273)
(0 -0.01567319 0.53911391)
(0 -0.017245423 0.54705166)
(0 -0.019062682 0.55895152)
(0 -0.020145171 0.56422755)
(0 -0.016963689 0.52196213)
(0 -0.0073581174 0.37645892)
(0 0.00073648322 0.13141791)
(0 -0.00046499422 0.11886859)
(0 0.0060149399 0.35084336)
(0 0.016996917 0.51194608)
(0 0.022139856 0.5713768)
(0 0.021860121 0.5709213)
(0 0.01989552 0.55675122)
(0 0.018140082 0.54625898)
(0 0.016677957 0.53966476)
(0 0.015304598 0.53487489)
(0 0.013958096 0.53104003)
(0 0.012637994 0.52790514)
(0 0.011344004 0.52533336)
(0 0.010075615 0.52322058)
(0 0.0088317203 0.5214882)
(0 0.0076107054 0.52007756)
(0 0.0064105753 0.51894459)
(0 0.0052288737 0.51805613)
(0 0.0040627701 0.51738751)
(0 0.0029091367 0.51692097)
(0 0.0017646351 0.51664459)
(0 0.00062577901 0.51655162)
(0 -0.00051093897 0.51664009)
(0 -0.0016490254 0.5169128)
(0 -0.0027918521 0.51737741)
(0 -0.003942612 0.51804687)
(0 -0.0051042036 0.51894014)
(0 -0.0062791622 0.52008341)
(0 -0.0074695439 0.52151181)
(0 -0.0086769024 0.52327215)
(0 -0.009902243 0.52542688)
(0 -0.011145709 0.52805905)
(0 -0.012407437 0.53127783)
(0 -0.01368584 0.53526266)
(0 -0.015009671 0.54055842)
(0 -0.016498477 0.54869125)
(0 -0.018158417 0.56024203)
(0 -0.018870658 0.56291922)
(0 -0.015410626 0.51568494)
(0 -0.0062677451 0.36791817)
(0 0.00063499796 0.12849775)
(0 -0.00033346273 0.11651471)
(0 0.0053107723 0.34279684)
(0 0.015554278 0.50464809)
(0 0.020869027 0.56900869)
(0 0.021001798 0.57193269)
(0 0.019227293 0.55851819)
(0 0.017538809 0.54781688)
(0 0.016138137 0.54104629)
(0 0.014833715 0.53619878)
(0 0.013555203 0.53233888)
(0 0.012297651 0.52918132)
(0 0.011060373 0.52658694)
(0 0.0098430403 0.52445233)
(0 0.0086447779 0.52269922)
(0 0.007464432 0.5212693)
(0 0.0063005955 0.52011892)
(0 0.0051514895 0.51921527)
(0 0.0040150217 0.51853402)
(0 0.002888837 0.51805766)
(0 0.0017703932 0.51777443)
(0 0.00065701225 0.51767766)
(0 -0.0004540011 0.51776541)
(0 -0.0015653326 0.51804039)
(0 -0.0026795382 0.51851011)
(0 -0.003799001 0.51918728)
(0 -0.004925827 0.52009055)
(0 -0.0060617907 0.52124569)
(0 -0.0072082467 0.52268737)
(0 -0.0083661285 0.52446189)
(0 -0.0095359783 0.5266312)
(0 -0.010717604 0.52927761)
(0 -0.011911114 0.53251075)
(0 -0.013117027 0.53652572)
(0 -0.014368855 0.54192502)
(0 -0.015782878 0.55021249)
(0 -0.01729221 0.56128348)
(0 -0.017674959 0.561324)
(0 -0.014023945 0.50955505)
(0 -0.0053917207 0.36016264)
(0 0.00052965157 0.12599499)
(0 -0.00022539274 0.11438367)
(0 0.0047456248 0.33548618)
(0 0.014265273 0.49761646)
(0 0.019677168 0.56640842)
(0 0.020170933 0.57267646)
(0 0.018584581 0.56016123)
(0 0.016961497 0.54931354)
(0 0.01561279 0.54236717)
(0 0.014368397 0.53745824)
(0 0.013151141 0.53357566)
(0 0.011951163 0.53040003)
(0 0.010767138 0.527788)
(0 0.0095987144 0.52563642)
(0 0.0084450764 0.52386719)
(0 0.0073053508 0.52242221)
(0 0.0061785424 0.52125807)
(0 0.0050633875 0.52034228)
(0 0.0039583831 0.51965077)
(0 0.0028618108 0.51916623)
(0 0.0017717987 0.51887706)
(0 0.00068635854 0.51877665)
(0 -0.00039650755 0.51886307)
(0 -0.0014787809 0.51913897)
(0 -0.0025623225 0.5196117)
(0 -0.0036488352 0.52029375)
(0 -0.0047397745 0.52120348)
(0 -0.005836311 0.52236631)
(0 -0.0069392709 0.52381654)
(0 -0.0080491565 0.52560009)
(0 -0.0091662438 0.52777853)
(0 -0.010290221 0.53043375)
(0 -0.011421418 0.53367692)
(0 -0.012562842 0.5377215)
(0 -0.013752087 0.5432227)
(0 -0.015097039 0.55162211)
(0 -0.016461255 0.56209852)
(0 -0.016553153 0.55950362)
(0 -0.012781838 0.50361798)
(0 -0.0046834165 0.35312106)
(0 0.00042980101 0.12381619)
(0 -0.00013925374 0.11243278)
(0 0.0042819078 0.32882988)
(0 0.013106938 0.49087241)
(0 0.018555074 0.56363071)
(0 0.019362684 0.57317574)
(0 0.017962378 0.56168271)
(0 0.016405402 0.55075357)
(0 0.015102014 0.54363529)
(0 0.013910509 0.5386604)
(0 0.012748815 0.53475583)
(0 0.011602082 0.53156531)
(0 0.010468154 0.52893931)
(0 0.0093465147 0.52677452)
(0 0.0082363056 0.52499284)
(0 0.0071368071 0.52353618)
(0 0.0060473022 0.5223613)
(0 0.0049669138 0.5214359)
(0 0.0038946047 0.5207361)
(0 0.0028291766 0.52024477)
(0 0.0017693155 0.51995042)
(0 0.00071361692 0.51984651)
(0 -0.00033932553 0.51993108)
(0 -0.0013908947 0.52020673)
(0 -0.0024423654 0.52068067)
(0 -0.0034948747 0.5213652)
(0 -0.0045493485 0.52227844)
(0 -0.0056064821 0.52344552)
(0 -0.0066667098 0.52490046)
(0 -0.0077302423 0.52668893)
(0 -0.0087972237 0.5288723)
(0 -0.0098673701 0.5315323)
(0 -0.010941397 0.53478284)
(0 -0.012024968 0.53885779)
(0 -0.013158812 0.5444579)
(0 -0.014437952 0.55292501)
(0 -0.015661542 0.56270779)
(0 -0.015498369 0.55750976)
(0 -0.011663625 0.49790455)
(0 -0.0041043172 0.34672676)
(0 0.00034043246 0.12189297)
(0 -7.2160783e-05 0.11063368)
(0 0.0038922259 0.32275717)
(0 0.012059698 0.48442801)
(0 0.017493975 0.56072167)
(0 0.018572633 0.57345194)
(0 0.017355737 0.56308398)
(0 0.015867142 0.55213925)
(0 0.014604881 0.5448564)
(0 0.013460748 0.53981102)
(0 0.012349945 0.53588396)
(0 0.01125281 0.53268064)
(0 0.010166205 0.53004342)
(0 0.0090893659 0.52786832)
(0 0.008021332 0.52607706)
(0 0.0069614552 0.52461145)
(0 0.0059092011 0.52342828)
(0 0.0048639809 0.52249535)
(0 0.0038251239 0.52178892)
(0 0.0027918544 0.52129196)
(0 0.0017633209 0.52099306)
(0 0.00073860844 0.52088574)
(0 -0.0002831902 0.52096803)
(0 -0.0013029533 0.52124244)
(0 -0.0023214643 0.52171609)
(0 -0.0033393915 0.5224011)
(0 -0.0043572308 0.52331539)
(0 -0.0053753042 0.5244839)
(0 -0.006393755 0.52594044)
(0 -0.0074126 0.52773057)
(0 -0.0084319341 0.5299156)
(0 -0.009451591 0.53257747)
(0 -0.010472771 0.53583391)
(0 -0.011503774 0.53994055)
(0 -0.012587344 0.54563481)
(0 -0.01380197 0.55412458)
(0 -0.01488867 0.56312992)
(0 -0.014503043 0.55538558)
(0 -0.010650676 0.49243483)
(0 -0.0036235014 0.34091911)
(0 0.00026367719 0.12017616)
(0 -2.0798411e-05 0.10896748)
(0 0.0035569759 0.31720746)
(0 0.011107056 0.47828919)
(0 0.016485964 0.55772049)
(0 0.017796962 0.57352497)
(0 0.016760084 0.56436585)
(0 0.015343146 0.55347101)
(0 0.014119884 0.54603441)
(0 0.013019056 0.54091457)
(0 0.011955421 0.5369638)
(0 0.0109049 0.533749)
(0 0.009863265 0.53110258)
(0 0.0088294422 0.5289194)
(0 0.007802356 0.52712084)
(0 0.006781379 0.52564848)
(0 0.005766095 0.52445901)
(0 0.0047561319 0.52352026)
(0 0.0037511086 0.52280855)
(0 0.0027505934 0.52230693)
(0 0.0017541175 0.52200403)
(0 0.00076117612 0.52189339)
(0 -0.00022871834 0.52197301)
(0 -0.0012160198 0.52224535)
(0 -0.0022011 0.52271743)
(0 -0.0031842383 0.52340125)
(0 -0.0041655801 0.52431458)
(0 -0.0051451501 0.5254822)
(0 -0.0061228723 0.52693784)
(0 -0.0070986313 0.52872703)
(0 -0.0080725127 0.53091118)
(0 -0.0090445143 0.53357277)
(0 -0.010016369 0.53683442)
(0 -0.010998833 0.54097413)
(0 -0.012035445 0.54675573)
(0 -0.01318536 0.55522303)
(0 -0.014138408 0.56338166)
(0 -0.013559761 0.5531671)
(0 -0.0097267995 0.48722116)
(0 -0.0032167491 0.33564414)
(0 0.00019986044 0.11863094)
(0 1.8039568e-05 0.10742141)
(0 0.0032622953 0.31212934)
(0 0.010235176 0.47245786)
(0 0.015524146 0.5546608)
(0 0.017032498 0.57341351)
(0 0.016171391 0.56552892)
(0 0.014829952 0.55474793)
(0 0.013645241 0.54717168)
(0 0.012584919 0.54197438)
(0 0.011565588 0.53799829)
(0 0.010559316 0.53477277)
(0 0.0095607058 0.53211872)
(0 0.0085683475 0.52992921)
(0 0.0075810576 0.52812517)
(0 0.0065982062 0.52664784)
(0 0.0056194573 0.52545371)
(0 0.0046446058 0.52451056)
(0 0.0036735032 0.52379471)
(0 0.0027060007 0.52328923)
(0 0.0017419479 0.52298278)
(0 0.00078118464 0.52286888)
(0 -0.000176423 0.52294552)
(0 -0.001130971 0.5232151)
(0 -0.0020824848 0.52368456)
(0 -0.0030309184 0.52436579)
(0 -0.0039761266 0.52527647)
(0 -0.0049178919 0.52644129)
(0 -0.0058559643 0.52789396)
(0 -0.0067901286 0.52968011)
(0 -0.0077204699 0.53186137)
(0 -0.0086471601 0.53452105)
(0 -0.0095724731 0.53778769)
(0 -0.010509313 0.54196144)
(0 -0.011500759 0.54782147)
(0 -0.012584701 0.55622178)
(0 -0.013407082 0.56347811)
(0 -0.012661815 0.55088447)
(0 -0.0088783058 0.48227036)
(0 -0.0028655036 0.33085443)
(0 0.00014821917 0.11723298)
(0 4.7166973e-05 0.1059865)
(0 0.0029984094 0.30747947)
(0 0.0094324503 0.46693337)
(0 0.014602622 0.5515717)
(0 0.01627669 0.57313515)
(0 0.015586252 0.56657379)
(0 0.014324397 0.55596811)
(0 0.013179128 0.54826925)
(0 0.012157603 0.54299276)
(0 0.011180471 0.53898966)
(0 0.010216634 0.53575388)
(0 0.0092594846 0.53309342)
(0 0.0083072707 0.53089903)
(0 0.0073587249 0.52909101)
(0 0.0064132129 0.52761017)
(0 0.0054704602 0.52641275)
(0 0.0045303986 0.52546639)
(0 0.0035930724 0.52474737)
(0 0.0026585692 0.52423872)
(0 0.0017270078 0.52392909)
(0 0.00079851968 0.523812)
(0 -0.00012672831 0.5238854)
(0 -0.0010485279 0.52415163)
(0 -0.0019666099 0.52461758)
(0 -0.0028806514 0.52529506)
(0 -0.0037902611 0.52620168)
(0 -0.0046950149 0.5273621)
(0 -0.0055945131 0.52881009)
(0 -0.0064884511 0.53059144)
(0 -0.0073768978 0.5327681)
(0 -0.0082601831 0.5354246)
(0 -0.0091410947 0.53869615)
(0 -0.010034285 0.5429042)
(0 -0.010981134 0.54883167)
(0 -0.011997152 0.55712169)
(0 -0.012691806 0.56343295)
(0 -0.011803523 0.54856301)
(0 -0.0080938989 0.47758527)
(0 -0.0025558388 0.32650868)
(0 0.00010737535 0.11596537)
(0 6.8883836e-05 0.10465625)
(0 0.0027583627 0.30322152)
(0 0.0086891039 0.46171345)
(0 0.013716406 0.54847849)
(0 0.015527561 0.57270649)
(0 0.015001916 0.56750126)
(0 0.013823737 0.55712899)
(0 0.012719843 0.54932712)
(0 0.011736326 0.54397121)
(0 0.010799948 0.53993955)
(0 0.0098772067 0.5366938)
(0 0.0089602915 0.53402799)