/*--------------------------------*- C++ -*----------------------------------*\
  =========                 |
  \\      /  F ield         | OpenFOAM: The Open Source CFD Toolbox
   \\    /   O peration     | Website:  https://openfoam.org
    \\  /    A nd           | Version:  10
     \\/     M anipulation  |
\*---------------------------------------------------------------------------*/
FoamFile
{
    format      ascii;
    class       volVectorField;
    location    "0.11";
    object      U_0;
}
// * * * * * * * * * * * * * * * * * * * * * * * * * * * * * * * * * * * * * //

dimensions      [0 1 -1 0 0 0 0];

internalField   nonuniform List<vector> 
4000
(
(0 0.018634988 0.47773281)
(0 0.023505358 0.50885994)
(0 0.0081625611 0.50052538)
(0 0.0056103204 0.50033647)
(0 0.0042500201 0.5002575)
(0 0.0032502278 0.50016898)
(0 0.002551418 0.50011967)
(0 0.002050052 0.50009009)
(0 0.0016722789 0.50006975)
(0 0.0013782478 0.50005532)
(0 0.0011435777 0.50004491)
(0 0.00095192243 0.50003723)
(0 0.000792021 0.50003149)
(0 0.00065589109 0.50002715)
(0 0.00053769799 0.50002386)
(0 0.00043305469 0.50002137)
(0 0.00033856771 0.50001952)
(0 0.00025152881 0.50001819)
(0 0.00016969915 0.50001729)
(0 9.1150465e-05 0.50001678)
(0 1.414333e-05 0.50001663)
(0 -6.2981083e-05 0.50001683)
(0 -0.00014189189 0.5000174)
(0 -0.00022436023 0.50001836)
(0 -0.00031237108 0.50001977)
(0 -0.00040825322 0.50002172)
(0 -0.00051485135 0.50002434)
(0 -0.00063576541 0.50002782)
(0 -0.00077569863 0.50003242)
(0 -0.00094098751 0.50003855)
(0 -0.0011404533 0.50004682)
(0 -0.0013867677 0.50005819)
(0 -0.0016986936 0.50007412)
(0 -0.0021065969 0.5000971)
(0 -0.0026664171 0.50013486)
(0 -0.0034603522 0.50020247)
(0 -0.0045532751 0.50027167)
(0 -0.0065778164 0.50043396)
(0 -0.017652145 0.50675305)
(0 -0.013586393 0.4797577)
(0 0.037425884 0.44797767)
(0 0.050941727 0.53232535)
(0 0.021955179 0.50804317)
(0 0.016122028 0.5035741)
(0 0.012401487 0.50242348)
(0 0.0095011258 0.50162301)
(0 0.0075059649 0.50115642)
(0 0.0060556881 0.50086554)
(0 0.0049510881 0.50066745)
(0 0.0040876058 0.5005283)
(0 0.0033962643 0.50042819)
(0 0.0028300939 0.50035456)
(0 0.0023566998 0.50029956)
(0 0.0019529781 0.50025807)
(0 0.0016019488 0.50022664)
(0 0.0012907976 0.50020291)
(0 0.0010095806 0.50018525)
(0 0.0007503411 0.50017253)
(0 0.00050648602 0.50016399)
(0 0.00027232663 0.50015914)
(0 4.2723622e-05 0.50015771)
(0 -0.00018722243 0.50015962)
(0 -0.00042244156 0.50016499)
(0 -0.00066816469 0.50017413)
(0 -0.00093024461 0.5001876)
(0 -0.001215534 0.50020622)
(0 -0.0015323819 0.50023124)
(0 -0.0018913214 0.50026447)
(0 -0.0023060624 0.50030851)
(0 -0.0027949769 0.50036727)
(0 -0.0033834753 0.50044669)
(0 -0.0041079741 0.50055626)
(0 -0.0050216026 0.50071106)
(0 -0.0062042837 0.50093669)
(0 -0.0078049426 0.50129479)
(0 -0.010099566 0.50191142)
(0 -0.013082832 0.50282696)
(0 -0.0174027 0.50608232)
(0 -0.038736475 0.52526688)
(0 -0.027883873 0.45023091)
(0 0.039878015 0.40984329)
(0 0.061404119 0.54931114)
(0 0.031957475 0.52188164)
(0 0.024331246 0.5100824)
(0 0.019167884 0.50658944)
(0 0.014951142 0.50452811)
(0 0.011981074 0.50327081)
(0 0.0097470853 0.50245723)
(0 0.0080129456 0.50189941)
(0 0.0066429574 0.50150659)
(0 0.0055368563 0.50122297)
(0 0.0046250719 0.50101386)
(0 0.0038588309 0.50085739)
(0 0.0032027029 0.5007392)
(0 0.0026303205 0.50064957)
(0 0.0021215978 0.50058185)
(0 0.0016608256 0.50053142)
(0 0.0012353518 0.50049508)
(0 0.00083463753 0.50047066)
(0 0.00044955095 0.50045679)
(0 7.1818537e-05 0.50045268)
(0 -0.0003064549 0.50045814)
(0 -0.00069321309 0.50047349)
(0 -0.0010968709 0.50049962)
(0 -0.0015268113 0.50053807)
(0 -0.0019939689 0.50059124)
(0 -0.0025115845 0.50066262)
(0 -0.0030962366 0.50075729)
(0 -0.0037693044 0.50088265)
(0 -0.0045590817 0.50104964)
(0 -0.0055039832 0.50127478)
(0 -0.0066580555 0.50158423)
(0 -0.0080985817 0.50202012)
(0 -0.0099297565 0.50265089)
(0 -0.012324429 0.50361622)
(0 -0.015670818 0.50520167)
(0 -0.019830643 0.50785823)
(0 -0.025143473 0.5164137)
(0 -0.047378044 0.53913178)
(0 -0.030836545 0.41491898)
(0 0.034778896 0.36177461)
(0 0.063804377 0.55457656)
(0 0.039339216 0.53747016)
(0 0.030046361 0.51849483)
(0 0.024074171 0.51197889)
(0 0.019240887 0.50849944)
(0 0.015698068 0.50626296)
(0 0.012917317 0.50475301)
(0 0.010708692 0.50370097)
(0 0.0089354183 0.50295175)
(0 0.0074844083 0.50240588)
(0 0.0062759475 0.50200086)
(0 0.0052521802 0.50169641)
(0 0.0043698008 0.50146561)
(0 0.003595945 0.5012901)
(0 0.0029051828 0.5011572)
(0 0.0022773619 0.50105806)
(0 0.0016960763 0.50098653)
(0 0.0011475401 0.50093842)
(0 0.00061972718 0.50091105)
(0 0.00010169064 0.50090294)
(0 -0.0004170374 0.50091368)
(0 -0.00094698788 0.50094391)
(0 -0.0014992816 0.50099535)
(0 -0.0020862513 0.50107098)
(0 -0.0027221594 0.50117539)
(0 -0.0034241048 0.5013153)
(0 -0.0042132297 0.50150041)
(0 -0.0051163832 0.50174472)
(0 -0.0061684209 0.50206871)
(0 -0.0074152949 0.50250288)
(0 -0.0089193273 0.50309426)
(0 -0.010767995 0.50391758)
(0 -0.013068018 0.50508928)
(0 -0.015955091 0.50680891)
(0 -0.019832069 0.50947213)
(0 -0.024667945 0.51428139)
(0 -0.031046252 0.52824825)
(0 -0.050262297 0.54409184)
(0 -0.028415768 0.37245693)
(0 0.027410129 0.31491573)
(0 0.062269793 0.5502725)
(0 0.044555921 0.55146653)
(0 0.033929422 0.52748945)
(0 0.027411034 0.51772459)
(0 0.022401981 0.51291964)
(0 0.018584515 0.50972903)
(0 0.015477637 0.5074883)
(0 0.012958361 0.50589388)
(0 0.010897741 0.50473929)
(0 0.0091843298 0.50388712)
(0 0.007739212 0.5032489)
(0 0.0065023346 0.50276571)
(0 0.0054272088 0.50239734)
(0 0.0044777234 0.50211599)
(0 0.0036253517 0.50190219)
(0 0.0028470889 0.50174228)
(0 0.002123936 0.50162665)
(0 0.0014397391 0.50154876)
(0 0.00078027743 0.50150438)
(0 0.00013252568 0.5014912)
(0 -0.00051600807 0.50150857)
(0 -0.001177888 0.50155747)
(0 -0.0018663269 0.50164062)
(0 -0.0025958727 0.50176269)
(0 -0.0033831791 0.50193086)
(0 -0.0042479514 0.50215554)
(0 -0.0052141587 0.50245161)
(0 -0.0063116426 0.50284036)
(0 -0.0075782767 0.50335245)
(0 -0.0090624337 0.50403255)
(0 -0.010826665 0.50494723)
(0 -0.012957927 0.50619934)
(0 -0.015560233 0.50794389)
(0 -0.018721517 0.51040738)
(0 -0.022803519 0.51406185)
(0 -0.028087866 0.52115283)
(0 -0.03561117 0.53932819)
(0 -0.050399761 0.54160354)
(0 -0.024059333 0.3306838)
(0 0.019823054 0.27530311)
(0 0.057934739 0.5398069)
(0 0.047285722 0.56256662)
(0 0.036406157 0.53660331)
(0 0.029566201 0.5235092)
(0 0.02460643 0.51740268)
(0 0.020705852 0.51335901)
(0 0.017443852 0.51043762)
(0 0.014751855 0.50831469)
(0 0.012508771 0.50674994)
(0 0.010613005 0.50557879)
(0 0.0089924855 0.50469209)
(0 0.0075895132 0.50401492)
(0 0.0063581479 0.50349505)
(0 0.0052618528 0.50309576)
(0 0.004271083 0.50279099)
(0 0.0033615352 0.50256223)
(0 0.0025127986 0.50239637)
(0 0.001707276 0.50228442)
(0 0.0009293059 0.50222052)
(0 0.00016443635 0.50220147)
(0 -0.00060124083 0.50222637)
(0 -0.0013817106 0.50229659)
(0 -0.0021916087 0.50241587)
(0 -0.0030469167 0.50259066)
(0 -0.0039657124 0.50283076)
(0 -0.0049690674 0.50315034)
(0 -0.006082151 0.5035694)
(0 -0.0073356235 0.50411617)
(0 -0.0087675331 0.50483059)
(0 -0.010425278 0.50576972)
(0 -0.012367292 0.50701589)
(0 -0.014673916 0.50869231)
(0 -0.0174472 0.51098078)
(0 -0.020741306 0.51412396)
(0 -0.024852508 0.51873912)
(0 -0.030388469 0.52823576)
(0 -0.038500747 0.5487292)
(0 -0.048411795 0.53407673)
(0 -0.01903677 0.29412497)
(0 0.013067917 0.24269774)
(0 0.051733742 0.52530065)
(0 0.047609997 0.57025836)
(0 0.037663116 0.54551964)
(0 0.030760709 0.52928938)
(0 0.025984883 0.52180014)
(0 0.022151145 0.5169917)
(0 0.018870147 0.51346309)
(0 0.01611454 0.51085088)
(0 0.013776304 0.50889504)
(0 0.011768875 0.50741222)
(0 0.010029571 0.50627739)
(0 0.0085056704 0.50540279)
(0 0.0071543311 0.50472627)
(0 0.0059406605 0.50420347)
(0 0.0048357501 0.50380243)
(0 0.0038153233 0.50350019)
(0 0.0028586205 0.50328038)
(0 0.0019474672 0.50313164)
(0 0.0010654924 0.50304658)
(0 0.00019746376 0.5030211)
(0 -0.00067133398 0.50305408)
(0 -0.0015556942 0.50314725)
(0 -0.0024710179 0.50330533)
(0 -0.003433972 0.5035365)
(0 -0.0044631687 0.50385305)
(0 -0.0055799605 0.50427261)
(0 -0.0068093843 0.50481983)
(0 -0.008181277 0.50552901)
(0 -0.00973185 0.50644797)
(0 -0.011505454 0.50764392)
(0 -0.013554502 0.50921176)
(0 -0.015948635 0.51128954)
(0 -0.018783461 0.51407685)
(0 -0.022090675 0.51784285)
(0 -0.026110519 0.52347711)
(0 -0.031691903 0.53537681)
(0 -0.039593216 0.55591118)
(0 -0.044776795 0.52297759)
(0 -0.014057907 0.26290238)
(0 0.0077544322 0.2157259)
(0 0.04475113 0.50816219)
(0 0.046133021 0.57440586)
(0 0.037915091 0.55374112)
(0 0.031174965 0.53495816)
(0 0.026657899 0.52602713)
(0 0.023008715 0.52052927)
(0 0.01981704 0.51647342)
(0 0.017084117 0.51342184)
(0 0.014722451 0.5111063)
(0 0.012663537 0.50933106)
(0 0.010855208 0.50795884)
(0 0.0092514459 0.50689201)
(0 0.0078141739 0.50606066)
(0 0.0065115397 0.50541416)
(0 0.0053164812 0.50491567)
(0 0.0042057848 0.50453839)
(0 0.003159218 0.50426309)
(0 0.0021587779 0.5040763)
(0 0.0011880396 0.50396923)
(0 0.00023158593 0.503937)
(0 -0.00072553886 0.50397825)
(0 -0.001698367 0.50409505)
(0 -0.0027024632 0.50429303)
(0 -0.0037545151 0.5045819)
(0 -0.0048729097 0.50497617)
(0 -0.0060783974 0.5054965)
(0 -0.0073948577 0.50617152)
(0 -0.0088501262 0.5070406)
(0 -0.01047716 0.50815795)
(0 -0.012315718 0.50959889)
(0 -0.014411128 0.51146851)
(0 -0.016819732 0.51391581)
(0 -0.019623564 0.51714987)
(0 -0.022839037 0.5214838)
(0 -0.026687063 0.52818989)
(0 -0.032152209 0.5422154)
(0 -0.039196993 0.56053497)
(0 -0.040190765 0.5093202)
(0 -0.0096730576 0.23619542)
(0 0.0039887375 0.19378731)
(0 0.037815115 0.48970492)
(0 0.043539834 0.57528944)
(0 0.037413504 0.56083024)
(0 0.031014083 0.54035343)
(0 0.026778671 0.53000545)
(0 0.02338199 0.52388885)
(0 0.020353542 0.51939225)
(0 0.017707184 0.51596098)
(0 0.015378593 0.5133262)
(0 0.013317353 0.51128604)
(0 0.011481977 0.50969463)
(0 0.0098341721 0.50844731)
(0 0.0083415765 0.50746839)
(0 0.0069762365 0.5067025)
(0 0.0057137594 0.5061089)
(0 0.0045327451 0.50565774)
(0 0.0034141589 0.50532739)
(0 0.0023407727 0.50510264)
(0 0.001296657 0.5049735)
(0 0.00026672213 0.5049344)
(0 -0.00076373255 0.50498378)
(0 -0.0018094814 0.50512401)
(0 -0.002885736 0.50536152)
(0 -0.00400865 0.50570729)
(0 -0.0051957766 0.50617772)
(0 -0.0064665846 0.50679596)
(0 -0.007843044 0.50759386)
(0 -0.0093501835 0.50861483)
(0 -0.011016785 0.50991801)
(0 -0.012876914 0.51158478)
(0 -0.014968315 0.5137279)
(0 -0.017333784 0.51650326)
(0 -0.020037916 0.52012237)
(0 -0.023089057 0.52496465)
(0 -0.026726055 0.53274187)
(0 -0.031955957 0.54837792)
(0 -0.037745398 0.56260728)
(0 -0.035256914 0.49413323)
(0 -0.0061632256 0.21368063)
(0 0.0015342923 0.17641458)
(0 0.031404978 0.47105963)
(0 0.040358464 0.57347058)
(0 0.036374052 0.56658032)
(0 0.030465192 0.54536275)
(0 0.026507058 0.53369416)
(0 0.023383174 0.52701427)
(0 0.020557186 0.52216108)
(0 0.018038575 0.51841563)
(0 0.015783428 0.51550798)
(0 0.013757205 0.51323585)
(0 0.011928313 0.51144859)
(0 0.010266305 0.51003717)
(0 0.0087447792 0.50892205)
(0 0.0073400625 0.5080445)
(0 0.0060309027 0.50736098)
(0 0.0047981921 0.50683931)
(0 0.0036245603 0.50645603)
(0 0.0024940018 0.50619454)
(0 0.0013915112 0.5060439)
(0 0.00030273836 0.50599799)
(0 -0.00078635704 0.5060551)
(0 -0.001889885 0.50621782)
(0 -0.003022289 0.50649322)
(0 -0.0041987564 0.50689332)
(0 -0.0054355531 0.50743601)
(0 -0.0067503919 0.50814636)
(0 -0.0081628407 0.50905867)
(0 -0.0096946633 0.51021931)
(0 -0.011370075 0.51169091)
(0 -0.01321702 0.51355891)
(0 -0.015265824 0.51594087)
(0 -0.017547304 0.51899556)
(0 -0.020108934 0.52293453)
(0 -0.022958301 0.52823223)
(0 -0.026370771 0.53703283)
(0 -0.031264238 0.55363854)
(0 -0.035609409 0.56241786)
(0 -0.030374464 0.47835962)
(0 -0.0035512024 0.19513794)
(0 5.9390328e-05 0.16286061)
(0 0.02576456 0.45299396)
(0 0.036956871 0.56956677)
(0 0.034967436 0.57097016)
(0 0.029667918 0.54993648)
(0 0.025975511 0.53709674)
(0 0.023114184 0.52988782)
(0 0.020504078 0.52474822)
(0 0.018135313 0.52075185)
(0 0.015979 0.51761846)
(0 0.014013693 0.51514927)
(0 0.012216356 0.51319209)
(0 0.010563741 0.51163567)
(0 0.0090350732 0.5103983)
(0 0.0076109364 0.50941917)
(0 0.0062733706 0.5086529)
(0 0.0050057902 0.50806572)
(0 0.003792764 0.50763287)
(0 0.0026198053 0.50733675)
(0 0.0014731367 0.5071657)
(0 0.00033945394 0.50711318)
(0 -0.00079431644 0.50717737)
(0 -0.0019413116 0.50736104)
(0 -0.0031148994 0.50767173)
(0 -0.0043289939 0.50812225)
(0 -0.0055982745 0.50873157)
(0 -0.0069384196 0.50952614)
(0 -0.0083663542 0.51054193)
(0 -0.0099004359 0.51182726)
(0 -0.011560381 0.51344696)
(0 -0.013368224 0.51548876)
(0 -0.015347472 0.51807256)
(0 -0.017518996 0.52135687)
(0 -0.019915788 0.52555658)
(0 -0.022551415 0.53127154)
(0 -0.025736639 0.54100972)
(0 -0.030207398 0.55790812)
(0 -0.033082101 0.56036485)
(0 -0.025794683 0.46269)
(0 -0.0017226506 0.18010774)
(0 -0.0007356244 0.15230257)
(0 0.020989662 0.43594089)
(0 0.033585061 0.56412894)
(0 0.033336376 0.57407408)
(0 0.02872239 0.55405392)
(0 0.025282968 0.5402368)
(0 0.022658155 0.53251959)
(0 0.020260747 0.5271454)
(0 0.018050021 0.52295329)
(0 0.016006046 0.51963776)
(0 0.014117894 0.51700521)
(0 0.012369594 0.51490417)
(0 0.010744062 0.51322272)
(0 0.0092254854 0.51187822)
(0 0.0077983998 0.51080885)
(0 0.0064480368 0.5099682)
(0 0.0051603581 0.50932156)
(0 0.0039219797 0.50884335)
(0 0.0027200921 0.5085153)
(0 0.0015423337 0.50832527)
(0 0.0003766487 0.50826645)
(0 -0.00078885959 0.50833691)
(0 -0.0019661447 0.50853957)
(0 -0.0031672955 0.50888229)
(0 -0.0044047645 0.50937841)
(0 -0.0056914856 0.5100476)
(0 -0.0070409959 0.51091721)
(0 -0.0084675482 0.51202419)
(0 -0.0099861927 0.51341796)
(0 -0.011612501 0.51516447)
(0 -0.01336319 0.5173525)
(0 -0.015255739 0.52010234)
(0 -0.017302915 0.52357038)
(0 -0.019526853 0.52798239)
(0 -0.021953093 0.53408782)
(0 -0.024913919 0.5446413)
(0 -0.028900254 0.56117921)
(0 -0.030394618 0.55684627)
(0 -0.021670571 0.4475644)
(0 -0.00051936873 0.16800343)
(0 -0.0010877186 0.14404378)
(0 0.017070882 0.42011588)
(0 0.030398265 0.55761843)
(0 0.031598395 0.57601487)
(0 0.027702127 0.55770758)
(0 0.024502311 0.54313956)
(0 0.022080992 0.53493178)
(0 0.019882373 0.52935816)
(0 0.017828059 0.52501558)
(0 0.015901225 0.52155612)
(0 0.014098988 0.51879081)
(0 0.012410949 0.51657042)
(0 0.010825045 0.51478338)
(0 0.0093296365 0.51334694)
(0 0.0079127485 0.51219904)
(0 0.0065625391 0.51129291)
(0 0.0052673942 0.51059341)
(0 0.0040159555 0.51007451)
(0 0.0027971351 0.5097176)
(0 0.0016000729 0.50951024)
(0 0.00041407128 0.50944546)
(0 -0.00077146868 0.50952129)
(0 -0.0019671951 0.5097407)
(0 -0.0031838086 0.51011177)
(0 -0.0044322154 0.51064814)
(0 -0.0057235606 0.51136987)
(0 -0.0070692663 0.51230476)
(0 -0.008481035 0.51349022)
(0 -0.009970864 0.51497608)
(0 -0.011550672 0.51682865)
(0 -0.013232624 0.51913679)
(0 -0.015029083 0.52201993)
(0 -0.016946407 0.52563159)
(0 -0.018999854 0.53021822)
(0 -0.021231548 0.53669178)
(0 -0.023975157 0.54790736)
(0 -0.027444059 0.56349768)
(0 -0.027717021 0.55222666)
(0 -0.018075765 0.43324946)
(0 0.00021682713 0.15827978)
(0 -0.0011703806 0.1375336)
(0 0.013930587 0.40560079)
(0 0.027476161 0.55041176)
(0 0.029841099 0.57694169)
(0 0.02665897 0.5609042)
(0 0.023685837 0.54582834)
(0 0.021433985 0.53715075)
(0 0.019413657 0.5313992)
(0 0.017507333 0.5269416)
(0 0.015696256 0.52337058)
(0 0.013983107 0.5204993)
(0 0.012361621 0.51818165)
(0 0.010823639 0.51630702)
(0 0.0093608887 0.51479312)
(0 0.0079643485 0.51357815)
(0 0.0066247473 0.51261542)
(0 0.005332679 0.51186975)
(0 0.0040786981 0.51131501)
(0 0.0028533947 0.51093244)
(0 0.0016474137 0.51070951)
(0 0.00045144799 0.51063915)
(0 -0.00074375899 0.51071938)
(0 -0.0019475043 0.51095319)
(0 -0.0031690706 0.51134875)
(0 -0.0044178157 0.51191983)
(0 -0.0057031422 0.51268661)
(0 -0.0070344752 0.51367701)
(0 -0.0084211889 0.51492848)
(0 -0.0098725749 0.5164908)
(0 -0.011397452 0.51843004)
(0 -0.013004265 0.52083455)
(0 -0.014701252 0.52382198)
(0 -0.016490023 0.52754354)
(0 -0.01838276 0.53227688)
(0 -0.020440574 0.53909655)
(0 -0.022976874 0.55080146)
(0 -0.025920761 0.56494819)
(0 -0.025159991 0.54682668)
(0 -0.015021469 0.41989534)
(0 0.0006238182 0.150475)
(0 -0.0011019171 0.13233308)
(0 0.011458081 0.39238862)
(0 0.024846225 0.54280496)
(0 0.028122837 0.57701071)
(0 0.025625723 0.56366384)
(0 0.022868193 0.54832533)
(0 0.020755024 0.53920429)
(0 0.018889525 0.53328542)
(0 0.017118615 0.52873885)
(0 0.015417798 0.52508278)
(0 0.013792899 0.52212829)
(0 0.012240506 0.51973264)
(0 0.010755357 0.51778652)
(0 0.009331776 0.51620843)
(0 0.0079631405 0.51493712)
(0 0.0066423567 0.51392629)
(0 0.0053619593 0.51314097)
(0 0.0041142434 0.51255516)
(0 0.0028913721 0.51215014)
(0 0.001685437 0.51191338)
(0 0.00048849226 0.51183782)
(0 -0.00070739239 0.51192145)
(0 -0.001910179 0.5121673)
(0 -0.0031277637 0.51258349)
(0 -0.0043680177 0.51318379)
(0 -0.0056387101 0.51398832)
(0 -0.0069474489 0.51502486)
(0 -0.0083015584 0.51633062)
(0 -0.0097080224 0.51795496)
(0 -0.01117313 0.51996339)
(0 -0.012702419 0.52244334)
(0 -0.014300995 0.5255102)
(0 -0.01596731 0.52931461)
(0 -0.017713653 0.53417552)
(0 -0.019620033 0.54131767)
(0 -0.021959944 0.55333143)
(0 -0.024390846 0.56563734)
(0 -0.02278563 0.54091512)
(0 -0.012477715 0.40756633)
(0 0.00081054652 0.14419597)
(0 -0.00095876636 0.12809744)
(0 0.0095346206 0.38041523)
(0 0.022504657 0.53502097)
(0 0.026478327 0.57636902)
(0 0.024620508 0.56601425)
(0 0.022069874 0.55065057)
(0 0.020070116 0.54111927)
(0 0.018335881 0.53503585)
(0 0.016685926 0.53041785)
(0 0.015087503 0.52669759)
(0 0.013547373 0.5236786)
(0 0.012063923 0.52122123)
(0 0.010633939 0.51921762)
(0 0.0092536501 0.51758712)
(0 0.0079183071 0.5162692)
(0 0.0066225984 0.51521809)
(0 0.0053607127 0.51439923)
(0 0.0041264808 0.51378686)
(0 0.0029134949 0.51336244)
(0 0.0017151919 0.51311354)
(0 0.00052491317 0.51303313)
(0 -0.00066400704 0.51311921)
(0 -0.0018582576 0.51337478)
(0 -0.0030644257 0.5138079)
(0 -0.0042890011 0.5144322)
(0 -0.0055382704 0.5152676)
(0 -0.0068182381 0.51634159)
(0 -0.008134482 0.51769095)
(0 -0.009492088 0.51936442)
(0 -0.010895361 0.52142676)
(0 -0.012347669 0.52396427)
(0 -0.013851882 0.52709005)
(0 -0.015404744 0.53095682)
(0 -0.017021021 0.53593342)
(0 -0.018797331 0.54337159)
(0 -0.020951729 0.55551494)
(0 -0.022895729 0.56567743)
(0 -0.02062143 0.5347066)
(0 -0.010391736 0.39626465)
(0 0.00085726264 0.13911063)
(0 -0.00078841529 0.1245664)
(0 0.008047641 0.36958583)
(0 0.020430858 0.52722203)
(0 0.024924979 0.57514668)
(0 0.023651477 0.56798569)
(0 0.021301273 0.55282038)
(0 0.019395725 0.54291946)
(0 0.017770928 0.53666954)
(0 0.016227243 0.53199049)
(0 0.01472233 0.52822172)
(0 0.013261971 0.52515318)
(0 0.011845539 0.52264747)
(0 0.010471195 0.52059818)
(0 0.0091364853 0.51892546)
(0 0.0078380698 0.5175695)
(0 0.0065720503 0.51648515)
(0 0.0053339864 0.51563828)
(0 0.0041190292 0.51500351)
(0 0.0029220345 0.51456252)
(0 0.0017376578 0.51430302)
(0 0.00056042273 0.51421808)
(0 -0.00061516442 0.5143057)
(0 -0.001794613 0.51456883)
(0 -0.0029833093 0.51501541)
(0 -0.0041864941 0.51565888)
(0 -0.005409144 0.51651888)
(0 -0.0066558875 0.51762249)
(0 -0.0079308565 0.51900596)
(0 -0.0092376278 0.52071736)
(0 -0.010579013 0.52282063)
(0 -0.011956836 0.52540088)
(0 -0.013372489 0.52856927)
(0 -0.014822282 0.53248386)
(0 -0.016325008 0.53756954)
(0 -0.017989956 0.54527365)
(0 -0.019969104 0.55737475)
(0 -0.021461373 0.56517568)
(0 -0.018671963 0.52836641)
(0 -0.0087005982 0.38595283)
(0 0.00082048446 0.13494794)
(0 -0.00061883786 0.12155047)
(0 0.0068980773 0.3597939)
(0 0.0185965 0.51952328)
(0 0.02346817 0.57345512)
(0 0.022720424 0.5696083)
(0 0.020566075 0.55484704)
(0 0.018741222 0.54462432)
(0 0.01720678 0.53820403)
(0 0.015755509 0.53346873)
(0 0.014335123 0.52966266)
(0 0.012948863 0.52655617)
(0 0.011596484 0.52401288)
(0 0.010277003 0.52192764)
(0 0.0089888137 0.5202213)
(0 0.0077295935 0.51883469)
(0 0.0064965335 0.51772323)
(0 0.0052863019 0.51685328)
(0 0.0040951587 0.51619981)
(0 0.0029190534 0.51574479)
(0 0.0017537193 0.51547611)
(0 0.0005947424 0.51538691)
(0 -0.00056231208 0.51547523)
(0 -0.0017218866 0.51574392)
(0 -0.0028882906 0.51620081)
(0 -0.0040656617 0.5168591)
(0 -0.0052578458 0.5177381)
(0 -0.0064683177 0.51886444)
(0 -0.0077000436 0.52027381)
(0 -0.0089554386 0.52201364)
(0 -0.01023624 0.52414707)
(0 -0.011543232 0.52675813)
(0 -0.012876949 0.52995659)
(0 -0.014234334 0.53390943)
(0 -0.015639022 0.53910095)
(0 -0.017207973 0.54703702)
(0 -0.019021132 0.5589357)
(0 -0.020101672 0.56422929)
(0 -0.016927495 0.52201876)
(0 -0.0073394979 0.37657128)
(0 0.00073868922 0.13149395)
(0 -0.00046493219 0.11891513)
(0 0.0060034842 0.35093253)
(0 0.016971151 0.51200447)
(0 0.022105509 0.57138832)
(0 0.021825298 0.57091101)
(0 0.019863662 0.55673934)
(0 0.018110911 0.54624889)
(0 0.016650947 0.53965454)
(0 0.015279669 0.53486369)
(0 0.013935306 0.5310279)
(0 0.012617387 0.52789224)
(0 0.011325602 0.52531982)
(0 0.010059433 0.5232065)
(0 0.0088177633 0.52147365)
(0 0.0075989768 0.52006261)
(0 0.0064010778 0.51892929)
(0 0.0052216114 0.51804052)
(0 0.0040577516 0.51737162)
(0 0.0029063761 0.51690482)
(0 0.0017641541 0.51662819)
(0 0.00062760741 0.51653497)
(0 -0.00050676173 0.5166232)
(0 -0.0016424499 0.51689568)
(0 -0.0027828191 0.51736007)
(0 -0.0039310519 0.51802933)
(0 -0.0050900374 0.51892243)
(0 -0.0062623025 0.52006556)
(0 -0.007449896 0.5214939)
(0 -0.008654367 0.52325425)
(0 -0.0098767191 0.52540911)
(0 -0.011117097 0.52804156)
(0 -0.01237565 0.53126083)
(0 -0.013650806 0.53524632)
(0 -0.014971226 0.54054211)
(0 -0.016456044 0.54867263)
(0 -0.018111206 0.56022297)
(0 -0.018821552 0.56292358)
(0 -0.015370308 0.51575494)
(0 -0.0062471797 0.36805005)
(0 0.00063714568 0.12858352)
(0 -0.00033313774 0.11656687)
(0 0.0052982538 0.34290065)
(0 0.015525576 0.50471921)
(0 0.0208302 0.56902488)
(0 0.020962004 0.57192101)
(0 0.019190827 0.55850333)
(0 0.0175056 0.54780417)
(0 0.016107547 0.54103377)
(0 0.014805585 0.5361853)
(0 0.013529561 0.53232444)
(0 0.012274521 0.52916608)
(0 0.011039758 0.52657105)
(0 0.0098249334 0.52443589)
(0 0.0086291674 0.52268232)
(0 0.0074513046 0.52125201)
(0 0.0062899398 0.52010127)
(0 0.0051432982 0.51919732)
(0 0.0040092944 0.51851578)
(0 0.0028855821 0.51803914)
(0 0.0017696295 0.51775563)
(0 0.00065876992 0.51765858)
(0 -0.00044967877 0.51774604)
(0 -0.0015583888 0.51802073)
(0 -0.0026699027 0.51849016)
(0 -0.0037865889 0.51916705)
(0 -0.0049105399 0.52007005)
(0 -0.0060435173 0.52122495)
(0 -0.0071868638 0.52266646)
(0 -0.0083415032 0.52444088)
(0 -0.009507971 0.5266102)
(0 -0.010686072 0.52925677)
(0 -0.011875922 0.5324903)
(0 -0.013078046 0.53650577)
(0 -0.014325819 0.54190468)
(0 -0.015735051 0.55018916)
(0 -0.017238875 0.56126085)
(0 -0.01761982 0.56133175)
(0 -0.013979188 0.50964039)
(0 -0.0053690613 0.36031627)
(0 0.0005317368 0.12609136)
(0 -0.00022477104 0.11444197)
(0 0.004732007 0.33560634)
(0 0.014233385 0.49770222)
(0 0.019633455 0.56643035)
(0 0.02012567 0.57266342)
(0 0.018543021 0.56014288)
(0 0.01692384 0.54929767)
(0 0.01557829 0.54235189)
(0 0.014336796 0.53744209)
(0 0.013122424 0.53355853)
(0 0.011925328 0.53038211)
(0 0.010744161 0.52776944)
(0 0.0095785608 0.52561733)
(0 0.0084277113 0.52384766)
(0 0.0072907402 0.5224023)
(0 0.0061666568 0.52123784)
(0 0.005054205 0.52032175)
(0 0.003951892 0.51962995)
(0 0.0028580116 0.51914512)
(0 0.0017707059 0.51885564)
(0 0.00068800222 0.51875492)
(0 -0.00039208073 0.518841)
(0 -0.0014715065 0.51911654)
(0 -0.002552118 0.51958889)
(0 -0.0036355991 0.52027056)
(0 -0.0047233867 0.5211799)
(0 -0.0058166327 0.52234237)
(0 -0.0069161462 0.52379228)
(0 -0.008022413 0.52557557)
(0 -0.0091356962 0.52775386)
(0 -0.010255674 0.53040908)
(0 -0.011382678 0.53365248)
(0 -0.012519708 0.53769733)
(0 -0.013704164 0.54319756)
(0 -0.015043424 0.55159327)
(0 -0.01640135 0.56207198)
(0 -0.016491565 0.55951559)
(0 -0.012732328 0.50372079)
(0 -0.0046585156 0.35329886)
(0 0.00043183458 0.12392412)
(0 -0.00013831272 0.11249775)
(0 0.0042671507 0.32896828)
(0 0.013071598 0.49097488)
(0 0.018506044 0.56365959)
(0 0.019311431 0.57316141)
(0 0.017915215 0.56166032)
(0 0.016362873 0.55073392)
(0 0.015063266 0.54361673)
(0 0.013875168 0.53864114)
(0 0.01271681 0.53473561)
(0 0.01157337 0.53154433)
(0 0.010442675 0.52891773)
(0 0.0093242029 0.52675247)
(0 0.0082170954 0.52497039)
(0 0.007120638 0.5235134)
(0 0.0060341226 0.52233823)
(0 0.0049566836 0.52141255)
(0 0.0038872979 0.52071247)
(0 0.0028247838 0.52022085)
(0 0.0017678455 0.51992617)
(0 0.00071509837 0.5198219)
(0 -0.00033484281 0.51990608)
(0 -0.0013833385 0.52018129)
(0 -0.0024316403 0.52065476)
(0 -0.0034808608 0.52133879)
(0 -0.0045319016 0.5222515)
(0 -0.0055854331 0.52341805)
(0 -0.0066418651 0.52487249)
(0 -0.0077013846 0.5266605)
(0 -0.0087641143 0.5288435)
(0 -0.0098297524 0.53150328)
(0 -0.010899006 0.5347538)
(0 -0.01197751 0.53882868)
(0 -0.013105743 0.5444271)
(0 -0.01437819 0.55288976)
(0 -0.015594654 0.562677)
(0 -0.015429944 0.55752688)
(0 -0.01160906 0.49802707)
(0 -0.004077028 0.34693126)
(0 0.00034243909 0.12201349)
(0 -7.089327e-05 0.1107059)
(0 0.0038762795 0.32291585)
(0 0.012020619 0.48454947)
(0 0.017439173 0.56075883)
(0 0.018514845 0.57343643)
(0 0.017302446 0.56305695)
(0 0.015819306 0.5521151)
(0 0.014561551 0.54483396)
(0 0.013421409 0.53978813)
(0 0.012314449 0.53586021)
(0 0.011221063 0.5326562)
(0 0.010138103 0.53001846)
(0 0.0090648004 0.52784296)
(0 0.0080002007 0.52605139)
(0 0.0069436654 0.52458552)
(0 0.0058946741 0.52340211)
(0 0.0048526542 0.52246895)
(0 0.0038169546 0.52176226)
(0 0.0027868207 0.52126501)
(0 0.001761424 0.52096577)
(0 0.00073987466 0.52085806)
(0 -0.00027870857 0.52093988)
(0 -0.0012951763 0.52121377)
(0 -0.0023102829 0.52168682)
(0 -0.0033246664 0.52237119)
(0 -0.0043387916 0.52328478)
(0 -0.0053529481 0.52445257)
(0 -0.0063672466 0.52590838)
(0 -0.0073816713 0.5276978)
(0 -0.0083962853 0.52988218)
(0 -0.0094108939 0.53254353)
(0 -0.010426676 0.53579962)
(0 -0.011451876 0.53990571)
(0 -0.012528923 0.54559739)
(0 -0.013735756 0.55408196)
(0 -0.014814444 0.56309451)
(0 -0.014427439 0.5554088)
(0 -0.01059078 0.49257942)
(0 -0.0035936812 0.34115301)
(0 0.00026569062 0.12031038)
(0 -1.9215069e-05 0.1090476)
(0 0.0035397714 0.31738866)
(0 0.011063932 0.47843211)
(0 0.016424914 0.55776741)
(0 0.017732083 0.57350841)
(0 0.016700136 0.56433351)
(0 0.01528957 0.55344156)
(0 0.014071643 0.5460074)
(0 0.012975477 0.54088748)
(0 0.011916253 0.536936)
(0 0.010869985 0.53372063)
(0 0.0098324408 0.53107383)
(0 0.0088025498 0.52889038)
(0 0.0077792477 0.52709162)
(0 0.0067619235 0.5256191)
(0 0.0057501811 0.52442948)
(0 0.004743671 0.52349056)
(0 0.0037420371 0.52277864)
(0 0.0027448748 0.52227674)
(0 0.0017517438 0.52197349)
(0 0.00076216981 0.52186241)
(0 -0.00022430323 0.5219415)
(0 -0.0012080957 0.52221322)
(0 -0.0021895441 0.52268458)
(0 -0.0031688911 0.52336758)
(0 -0.004146243 0.52428001)
(0 -0.0051215841 0.52544667)
(0 -0.0060947964 0.52690129)
(0 -0.0070657207 0.52868946)
(0 -0.0080343995 0.53087262)
(0 -0.0090007884 0.5335333)
(0 -0.0099665819 0.53679418)
(0 -0.010942446 0.5409327)
(0 -0.01197154 0.54671065)
(0 -0.013112474 0.55517201)
(0 -0.014056576 0.56334125)
(0 -0.013476715 0.55319742)
(0 -0.0096613424 0.48739026)
(0 -0.0031842669 0.33591023)
(0 0.00020191452 0.11878008)
(0 1.990838e-05 0.10751012)
(0 0.003243736 0.31233549)
(0 0.010187681 0.47262493)
(0 0.015456355 0.55471906)
(0 0.016959971 0.57339606)
(0 0.016104265 0.56549053)
(0 0.014770219 0.55471224)
(0 0.013591788 0.5471393)
(0 0.012536888 0.54194242)
(0 0.011522603 0.53796588)
(0 0.010521133 0.53473999)
(0 0.0095270931 0.53208574)
(0 0.0085390843 0.52989614)
(0 0.0075559421 0.52809207)
(0 0.0065770619 0.52661471)
(0 0.0056021349 0.52542055)
(0 0.0046309863 0.52447732)
(0 0.0036634994 0.52376131)
(0 0.0026995585 0.52325559)
(0 0.0017390482 0.52294878)
(0 0.00078184474 0.5228344)
(0 -0.00017214827 0.52291044)
(0 -0.001122987 0.52317929)
(0 -0.0020706552 0.52364787)
(0 -0.0030150624 0.5243281)
(0 -0.0039560167 0.52523765)
(0 -0.0048932508 0.52640122)
(0 -0.0058264617 0.52785256)
(0 -0.0067553787 0.52963731)
(0 -0.0076800291 0.53181713)
(0 -0.0086005272 0.53447544)
(0 -0.0095190855 0.53774075)
(0 -0.010448479 0.5419125)
(0 -0.011431336 0.5477676)
(0 -0.012505032 0.55616126)
(0 -0.013317495 0.56343229)
(0 -0.01257117 0.55092291)
(0 -0.0088071328 0.48246644)
(0 -0.0028302533 0.33115559)
(0 0.00015033416 0.1173983)
(0 4.92685e-05 0.10608461)
(0 0.0029783609 0.3077132)
(0 0.0093802405 0.46712745)
(0 0.014527597 0.551643)
(0 0.016195973 0.57311696)
(0 0.015511454 0.56652855)
(0 0.014258124 0.55592516)
(0 0.013120203 0.54823061)
(0 0.012104953 0.54295521)
(0 0.011133567 0.53895202)
(0 0.010175127 0.53571615)
(0 0.0092230578 0.53305575)
(0 0.0082756292 0.53086151)
(0 0.0073316042 0.52905367)
(0 0.0063903834 0.527573)
(0 0.0054517295 0.5263757)
(0 0.0045156129 0.52542938)
(0 0.0035821174 0.52471027)
(0 0.0026513713 0.52420142)
(0 0.0017235347 0.52389145)
(0 0.00079878195 0.52377385)
(0 -0.00012267604 0.52384657)
(0 -0.0010405847 0.52411195)
(0 -0.0019546263 0.52457685)
(0 -0.0028644258 0.52525311)
(0 -0.0037695363 0.52615832)
(0 -0.0046694738 0.52731718)
(0 -0.0055637744 0.52876344)
(0 -0.0064520637 0.53054294)
(0 -0.0073343369 0.53271766)
(0 -0.0082108474 0.5353722)
(0 -0.0090842947 0.53864172)
(0 -0.0099691533 0.54284676)
(0 -0.010906286 0.54876782)
(0 -0.011910737 0.55705053)
(0 -0.012594477 0.5633813)
(0 -0.011705273 0.54861058)
(0 -0.0080169608 0.47781079)
(0 -0.0025177558 0.32684782)
(0 0.00010954077 0.11614822)
(0 7.1138492e-05 0.10476468)
(0 0.0027366446 0.30348567)
(0 0.0086318292 0.46193758)
(0 0.013633672 0.54856459)
(0 0.01543816 0.5726877)
(0 0.014919014 0.56744827)
(0 0.013750604 0.55707761)
(0 0.012655246 0.5492812)
(0 0.011678955 0.54392725)
(0 0.010749087 0.539896)
(0 0.0098323775 0.53665054)
(0 0.0089210762 0.53398515)