/*--------------------------------*- C++ -*----------------------------------*\
  =========                 |
  \\      /  F ield         | OpenFOAM: The Open Source CFD Toolbox
   \\    /   O peration     | Website:  https://openfoam.org
    \\  /    A nd           | Version:  10
     \\/     M anipulation  |
\*---------------------------------------------------------------------------*/
FoamFile
{
    format      ascii;
    class       surfaceScalarField;
    location    "0.18";
    object      phi;
}
// * * * * * * * * * * * * * * * * * * * * * * * * * * * * * * * * * * * * * //

dimensions      [1 0 -1 0 0 0 0];

internalField   nonuniform List<scalar> 
7860
(
3.9895624e-08
5.288124e-07
1.2192462e-08
5.9641096e-07
7.4276408e-09
5.7347256e-07
5.4991306e-09
5.7063621e-07
4.1147074e-09
5.7009209e-07
3.2008665e-09
5.6962149e-07
2.5588934e-09
5.693496e-07
2.0790945e-09
5.6918741e-07
1.7091409e-09
5.6907756e-07
1.4165082e-09
5.6900023e-07
1.1794004e-09
5.6894469e-07
9.8305374e-10
5.6890393e-07
8.1712405e-10
5.688735e-07
6.7412042e-10
5.6885057e-07
5.4846891e-10
5.6883322e-07
4.3590819e-10
5.6882012e-07
3.3308383e-10
5.6881038e-07
2.3726779e-10
5.6880337e-07
1.4615633e-10
5.6879867e-07
5.7717612e-11
5.6879599e-07
-2.9932002e-11
5.687952e-07
-1.1863539e-10
5.6879626e-07
-2.1029988e-10
5.6879922e-07
-3.0700368e-10
5.6880426e-07
-4.1112836e-10
5.6881168e-07
-5.2552182e-10
5.6882195e-07
-6.5371877e-10
5.6883576e-07
-8.0025396e-10
5.688541e-07
-9.7112251e-10
5.6887844e-07
-1.1744867e-09
5.6891094e-07
-1.4218491e-09
5.6895495e-07
-1.7300226e-09
5.6901577e-07
-2.1239869e-09
5.6910157e-07
-2.6436254e-09
5.6922725e-07
-3.3713526e-09
5.6943536e-07
-4.4627314e-09
5.6979903e-07
-6.0082083e-09
5.7025315e-07
-9.5073045e-09
5.722068e-07
-2.9574987e-08
5.8877543e-07
5.3913293e-07
5.9671656e-08
4.6914076e-07
3.6664981e-08
6.1941763e-07
2.2627218e-08
5.8751032e-07
1.6252597e-08
5.7701083e-07
1.2289538e-08
5.7405515e-07
9.605326e-09
5.723057e-07
7.676614e-09
5.7127831e-07
6.2353641e-09
5.7062866e-07
5.125977e-09
5.7018694e-07
4.248378e-09
5.6987783e-07
3.5372302e-09
5.6965584e-07
2.9483626e-09
5.6949279e-07
2.4507278e-09
5.6937114e-07
2.0218479e-09
5.6927945e-07
1.6450061e-09
5.6921006e-07
1.3074224e-09
5.6915771e-07
9.9903703e-10
5.6911877e-07
7.1166889e-10
5.6909074e-07
4.384096e-10
5.6907193e-07
1.7316482e-10
5.6906124e-07
-8.9714722e-11
5.6905808e-07
-3.5575502e-10
5.690623e-07
-6.3067111e-10
5.6907414e-07
-9.2069823e-10
5.6909429e-07
-1.2329785e-09
5.6912396e-07
-1.576052e-09
5.6916503e-07
-1.9605191e-09
5.6922023e-07
-2.3999788e-09
5.6929356e-07
-2.9124175e-09
5.6939088e-07
-3.5223309e-09
5.6952086e-07
-4.2641417e-09
5.6969676e-07
-5.1882189e-09
5.6993984e-07
-6.371192e-09
5.7028454e-07
-7.9317847e-09
5.7078785e-07
-1.0073226e-08
5.715768e-07
-1.3201654e-08
5.7292746e-07
-1.813185e-08
5.7518334e-07
-2.8174227e-08
5.8224918e-07
-4.5800601e-08
6.0640181e-07
4.9333233e-07
6.0007518e-08
4.0913325e-07
5.0485397e-08
6.2893975e-07
3.3368912e-08
6.046268e-07
2.4815929e-08
5.8556381e-07
1.9321521e-08
5.7954956e-07
1.5329856e-08
5.7629736e-07
1.2359214e-08
5.7424896e-07
1.0100235e-08
5.7288764e-07
8.3395398e-09
5.7194764e-07
6.9340034e-09
5.7128336e-07
5.7875431e-09
5.708023e-07
4.8333904e-09
5.7044695e-07
4.0237767e-09
5.7018075e-07
3.3237125e-09
5.6997952e-07
2.7069298e-09
5.6982684e-07
2.1531921e-09
5.6971144e-07
1.6464695e-09
5.6962549e-07
1.173658e-09
5.6956355e-07
7.2364572e-10
5.6952194e-07
2.8659968e-10
5.6949828e-07
-1.466116e-10
5.694913e-07
-5.8492395e-10
5.6950061e-07
-1.037571e-09
5.6952678e-07
-1.5146042e-09
5.6957132e-07
-2.0274955e-09
5.6963685e-07
-2.5898972e-09
5.6972743e-07
-3.2186532e-09
5.6984898e-07
-3.9352101e-09
5.7001012e-07
-4.7676677e-09
5.7022334e-07
-5.753842e-09
5.7050703e-07
-6.9459241e-09
5.7088884e-07
-8.4181188e-09
5.7141204e-07
-1.0279832e-08
5.7214625e-07
-1.2692944e-08
5.7320096e-07
-1.5890627e-08
5.7477448e-07
-2.0234787e-08
5.7727162e-07
-2.6703483e-08
5.8165204e-07
-3.8943114e-08
5.9448881e-07
-4.8163651e-08
6.1562234e-07
4.4516868e-07
5.4877347e-08
3.5425593e-07
5.7449298e-08
6.263678e-07
4.0464767e-08
6.2161133e-07
3.0776081e-08
5.952525e-07
2.4640412e-08
5.8568523e-07
1.9949773e-08
5.80988e-07
1.6310614e-08
5.7788811e-07
1.3464472e-08
5.7573378e-07
1.1199227e-08
5.7421288e-07
9.3631671e-09
5.7311942e-07
7.8484044e-09
5.7231706e-07
6.576445e-09
5.717189e-07
5.4894372e-09
5.7126776e-07
4.544063e-09
5.7092489e-07
3.7072219e-09
5.7066368e-07
2.9530506e-09
5.7046561e-07
2.2608256e-09
5.7031772e-07
1.613445e-09
5.7021093e-07
9.9629728e-10
5.7013909e-07
3.9638109e-10
5.700982e-07
-1.9841775e-10
5.7008609e-07
-7.9996648e-10
5.7010216e-07
-1.4205064e-09
5.7014732e-07
-2.0733073e-09
5.7022412e-07
-2.7734182e-09
5.7033697e-07
-3.538595e-09
5.7049261e-07
-4.3905079e-09
5.707009e-07
-5.3563742e-09
5.7097599e-07
-6.4712391e-09
5.713382e-07
-7.7812358e-09
5.7181703e-07
-9.3481528e-09
5.7245576e-07
-1.125582e-08
5.733197e-07
-1.362051e-08
5.7451094e-07
-1.6603581e-08
5.7618403e-07
-2.0402826e-08
5.7857372e-07
-2.5284925e-08
5.8215371e-07
-3.2509562e-08
5.8887668e-07
-4.5093366e-08
6.0707261e-07
-4.6544428e-08
6.170734e-07
3.9862425e-07
4.7963728e-08
3.0629225e-07
6.0072557e-08
6.14259e-07
4.539611e-08
6.3628777e-07
3.4871556e-08
6.0577705e-07
2.8396144e-08
5.9216064e-07
2.3416053e-08
5.8596809e-07
1.9430989e-08
5.8187318e-07
1.62262e-08
5.7893857e-07
1.3617164e-08
5.7682192e-07
1.1464468e-08
5.7527212e-07
9.6629802e-09
5.7411855e-07
8.1326529e-09
5.7324923e-07
6.8124562e-09
5.7258796e-07
5.6553705e-09
5.7208198e-07
4.6246129e-09
5.7169444e-07
3.6908889e-09
5.7139934e-07
2.8303516e-09
5.7117825e-07
2.023063e-09
5.7101822e-07
1.2518098e-09
5.7091034e-07
5.0115747e-10
5.7084885e-07
-2.4334186e-10
5.7083059e-07
-9.9585982e-10
5.7085468e-07
-1.770982e-09
5.7092244e-07
-2.5844305e-09
5.7103757e-07
-3.4538801e-09
5.7120641e-07
-4.3999416e-09
5.7143867e-07
-5.4474022e-09
5.7174836e-07
-6.6268351e-09
5.7215542e-07
-7.9767258e-09
5.7268809e-07
-9.5463464e-09
5.7338665e-07
-1.1399531e-08
5.7430894e-07
-1.3619102e-08
5.7553927e-07
-1.6313371e-08
5.7720521e-07
-1.9625956e-08
5.7949661e-07
-2.3727147e-08
5.8267491e-07
-2.891981e-08
5.8734638e-07
-3.6780307e-08
5.9673717e-07
-4.8453382e-08
6.1874569e-07
-4.3188064e-08
6.1180809e-07
3.5543619e-07
4.0333721e-08
2.6595859e-07
5.8988999e-08
5.9560377e-07
4.8324581e-08
6.4695218e-07
3.7582953e-08
6.1651867e-07
3.0923949e-08
5.9881965e-07
2.5889266e-08
5.9100278e-07
2.1775608e-08
5.8598684e-07
1.8388116e-08
5.8232606e-07
1.5574122e-08
5.7963591e-07
1.3211569e-08
5.7763467e-07
1.1204512e-08
5.7612561e-07
9.4776489e-09
5.7497609e-07
7.9718293e-09
5.7409377e-07
6.6401398e-09
5.7341366e-07
5.4449437e-09
5.7288963e-07
4.3556134e-09
5.7248867e-07
3.3467506e-09
5.7218712e-07
2.3967865e-09
5.7196819e-07
1.4868646e-09
5.7182026e-07
5.9991963e-10
5.717358e-07
-2.801127e-10
5.7171062e-07
-1.1690129e-09
5.7174358e-07
-2.0829806e-09
5.7183641e-07
-3.0393626e-09
5.7199395e-07
-4.0574586e-09
5.7222451e-07
-5.1594679e-09
5.7254068e-07
-6.3716404e-09
5.7296053e-07
-7.7257118e-09
5.7350949e-07
-9.2607008e-09
5.7422308e-07
-1.1025217e-08
5.7515116e-07
-1.3080494e-08
5.7636422e-07
-1.5503809e-08
5.7796259e-07
-1.8392575e-08
5.8009398e-07
-2.1870986e-08
5.8297502e-07
-2.6094853e-08
5.8689878e-07
-3.1473533e-08
5.9272506e-07
-3.963989e-08
6.0490353e-07
-4.9158775e-08
6.2826457e-07
-3.8571083e-08
6.0122039e-07
3.1686511e-07
3.2860094e-08
2.3309858e-07
5.5243733e-08
5.732202e-07
4.9224999e-08
6.5297091e-07
3.9054744e-08
6.2668891e-07
3.2424222e-08
6.0545016e-07
2.751261e-08
5.9591439e-07
2.343298e-08
5.9006647e-07
1.9997766e-08
5.8576128e-07
1.7090399e-08
5.8254328e-07
1.4608649e-08
5.8011642e-07
1.2468717e-08
5.7826554e-07
1.0603344e-08
5.7684147e-07
8.9582784e-09
5.7573884e-07
7.4893154e-09
5.7488263e-07
6.1601137e-09
5.7421884e-07
4.9404353e-09
5.7370835e-07
3.8047027e-09
5.7332285e-07
2.7308223e-09
5.7304207e-07
1.6992088e-09
5.7285187e-07
6.9195334e-10
5.7274305e-07
-3.07908e-10
5.7271049e-07
-1.3170684e-09
5.7275274e-07
-2.3526166e-09
5.7287196e-07
-3.4327196e-09
5.7307405e-07
-4.5773646e-09
5.7336916e-07
-5.8092062e-09
5.7377252e-07
-7.1545628e-09
5.7430589e-07
-8.6446185e-09
5.7499954e-07
-1.0316872e-08
5.7589533e-07
-1.2216913e-08
5.770512e-07
-1.4400812e-08
5.7854811e-07
-1.6938009e-08
5.8049979e-07
-1.9913363e-08
5.8306933e-07
-2.3427674e-08
5.8648933e-07
-2.7622373e-08
5.9109348e-07
-3.3015567e-08
5.9811825e-07
-4.0991735e-08
6.128797e-07
-4.7670836e-08
6.3494367e-07
-3.3367593e-08
5.8691715e-07
2.8349751e-07
2.6186109e-08
2.0691257e-07
5.0125161e-08
5.4928127e-07
4.8484324e-08
6.5461176e-07
3.9482306e-08
6.3569091e-07
3.3069226e-08
6.1186324e-07
2.8404199e-08
6.0057942e-07
2.4485618e-08
5.9398505e-07
2.1111664e-08
5.8913523e-07
1.8201438e-08
5.854535e-07
1.5675702e-08
5.8264215e-07
1.3465307e-08
5.8047593e-07
1.1513062e-08
5.7879371e-07
9.7714388e-09
5.7748046e-07
8.2006336e-09
5.7645343e-07
6.7671009e-09
5.7565237e-07
5.4422808e-09
5.7503317e-07
4.2015114e-09
5.7456362e-07
3.0231051e-09
5.7422047e-07
1.8875511e-09
5.7398743e-07
7.7681231e-10
5.7385379e-07
-3.2631095e-10
5.7381361e-07
-1.4387768e-09
5.738652e-07
-2.5778946e-09
5.7401108e-07
-3.7619277e-09
5.7425809e-07
-5.0107363e-09
5.7461796e-07
-6.3464917e-09
5.7510827e-07
-7.7944892e-09
5.7575388e-07
-9.3840949e-09
5.7658915e-07
-1.1149853e-08
5.7766109e-07
-1.3132756e-08
5.7903411e-07
-1.5381892e-08
5.8079725e-07
-1.7956561e-08
5.8307445e-07
-2.0926237e-08
5.8603901e-07
-2.4366141e-08
5.8992924e-07
-2.8411765e-08
5.951391e-07
-3.366788e-08
6.0337436e-07
-4.1038956e-08
6.2025077e-07
-4.4776915e-08
6.3868163e-07
-2.819488e-08
5.7033512e-07
2.5530263e-07
2.0567712e-08
1.8634498e-07
4.45743e-08
5.2527485e-07
4.6631419e-08
6.5255468e-07
3.9142098e-08
6.4318021e-07
3.3073472e-08
6.1793185e-07
2.8707811e-08
6.0494508e-07
2.5029002e-08
5.9766386e-07
2.1795523e-08
5.9236871e-07
1.8952039e-08
5.8829699e-07
1.6442483e-08
5.8515171e-07
1.4213342e-08
5.8270507e-07
1.2218421e-08
5.8078863e-07
1.0417923e-08
5.7928096e-07
8.7774747e-09
5.7809388e-07
7.2673052e-09
5.7716254e-07
5.8614305e-09
5.7643904e-07
4.5369147e-09
5.7588813e-07
3.2732047e-09
5.7548418e-07
2.0515231e-09
5.7520911e-07
8.5431112e-10
5.75051e-07
-3.3529122e-10
5.7500321e-07
-1.5339414e-09
5.7506385e-07
-2.7585914e-09
5.7523573e-07
-4.0269892e-09
5.7552648e-07
-5.3582031e-09
5.7594918e-07
-6.7731876e-09
5.7652326e-07
-8.2954007e-09
5.772761e-07
-9.9514884e-09
5.7824524e-07
-1.1772052e-08
5.7948165e-07
-1.379244e-08
5.8105449e-07
-1.6053664e-08
5.8305847e-07
-1.8603591e-08
5.8562438e-07
-2.1495352e-08
5.8893077e-07
-2.4782997e-08
5.9321688e-07
-2.8612627e-08
5.9896873e-07
-3.3630961e-08
6.083927e-07
-4.0114886e-08
6.267347e-07
-4.1135073e-08
6.3970182e-07
-2.3406296e-08
5.5260634e-07
2.3189634e-07
1.6011949e-08
1.7033318e-07
3.9133554e-08
5.0215347e-07
4.4104508e-08
6.475838e-07
3.8275804e-08
6.4900889e-07
3.2641039e-08
6.235666e-07
2.8579456e-08
6.0900666e-07
2.5172266e-08
6.0107105e-07
2.2125677e-08
5.954153e-07
1.9395789e-08
5.9102687e-07
1.6946524e-08
5.8760097e-07
1.4738888e-08
5.8491271e-07
1.2737266e-08
5.8279025e-07
1.0909729e-08
5.811085e-07
9.227735e-09
5.7977587e-07
7.6657905e-09
5.7872448e-07
6.2010273e-09
5.779038e-07
4.8127771e-09
5.7727638e-07
3.4821446e-09
5.7681481e-07
2.1915858e-09
5.7649967e-07
9.2450015e-10
5.7631809e-07
-3.351667e-10
5.7626288e-07
-1.6033093e-09
5.7633199e-07
-2.8960541e-09
5.7652847e-07
-4.2301504e-09
5.7686058e-07
-5.6233693e-09
5.773424e-07
-7.0949183e-09
5.7799481e-07
-8.6658686e-09
5.7884705e-07
-1.0359593e-08
5.7993896e-07
-1.2202223e-08
5.8132428e-07
-1.4223065e-08
5.8307534e-07
-1.6454967e-08
5.8529038e-07
-1.8934704e-08
5.8810412e-07
-2.1700445e-08
5.9169651e-07
-2.4792691e-08
5.9630913e-07
-2.8380099e-08
6.0255614e-07
-3.3089133e-08
6.1310173e-07
-3.8514449e-08
6.3216001e-07
-3.7187779e-08
6.3837515e-07
-1.9171198e-08
5.3458976e-07
2.1272514e-07
1.2419844e-08
1.579135e-07
3.4101992e-08
4.8047161e-07
4.1232773e-08
6.4045314e-07
3.7061539e-08
6.531801e-07
3.1926003e-08
6.2870211e-07
2.8153807e-08
6.1277885e-07
2.5018997e-08
6.0420586e-07
2.2179331e-08
5.9825497e-07
1.9589748e-08
5.9361646e-07
1.7229638e-08
5.8996108e-07
1.5072349e-08
5.8707e-07
1.3091547e-08
5.8477106e-07
1.1262573e-08
5.8293747e-07
9.5625517e-09
5.8147589e-07
7.9703403e-09
5.8031669e-07
6.4664025e-09
5.7940774e-07
5.0326282e-09
5.7871016e-07
3.6521062e-09
5.7819533e-07
2.3088683e-09
5.7784291e-07
9.8761953e-10
5.7763934e-07
-3.2653952e-10
5.7757704e-07
-1.6483909e-09
5.7765385e-07
-2.9928856e-09
5.7787297e-07
-4.375424e-09
5.7824312e-07
-5.8121344e-09
5.7877911e-07
-7.3201465e-09
5.7950282e-07
-8.9178506e-09
5.8044475e-07
-1.062513e-08
5.8164624e-07
-1.2463568e-08
5.8316272e-07
-1.4456613e-08
5.8506838e-07
-1.6629605e-08
5.8746337e-07
-1.9009458e-08
5.9048397e-07
-2.1621706e-08
5.9430876e-07
-2.4500546e-08
5.9918797e-07
-2.7840166e-08
6.0589576e-07
-3.2185041e-08
6.1744661e-07
-3.6479757e-08
6.3645473e-07
-3.3236257e-08
6.3513165e-07
-1.5551216e-08
5.1690471e-07
1.9717392e-07
9.6527689e-09
1.4826092e-07
2.9631898e-08
4.6049284e-07
3.8262834e-08
6.3182238e-07
3.5637427e-08
6.558055e-07
3.1039481e-08
6.3330003e-07
2.7535172e-08
6.1628315e-07
2.4655713e-08
6.0708532e-07
2.2025213e-08
6.0088547e-07
1.9587741e-08
5.9605393e-07
1.73333e-08
5.9221553e-07
1.5245251e-08
5.8915805e-07
1.330499e-08
5.8671132e-07
1.1494157e-08
5.847483e-07
9.7949996e-09
5.8317505e-07
8.1904854e-09
5.8192121e-07
6.6643643e-09
5.8093386e-07
5.2011607e-09
5.8017336e-07
3.7860993e-09
5.796104e-07
2.404984e-09
5.7922402e-07
1.0440467e-09
5.7900027e-07
-3.1022285e-10
5.7893131e-07
-1.6712564e-09
5.7901488e-07
-3.0525946e-09
5.792543e-07
-4.4680674e-09
5.7965859e-07
-5.9319637e-09
5.80243e-07
-7.4591837e-09
5.8103004e-07
-9.0653617e-09
5.8205093e-07
-1.0766942e-08
5.8334782e-07
-1.2581207e-08
5.8497699e-07
-1.452627e-08
5.8701344e-07
-1.6620901e-08
5.89558e-07
-1.8883609e-08
5.9274668e-07
-2.1329946e-08
5.9675509e-07
-2.3994012e-08
6.0185203e-07
-2.7091614e-08
6.0899336e-07
-3.1036788e-08
6.2139178e-07
-3.4214899e-08
6.3963284e-07
-2.9485593e-08
6.3040234e-07
-1.2541671e-08
4.9996079e-07
1.8463225e-07
7.5618939e-09
1.4069925e-07
2.5770909e-08
4.4228427e-07
3.5365515e-08
6.2222803e-07
3.4113271e-08
6.5705775e-07
3.0064398e-08
6.3734886e-07
2.6803476e-08
6.1954406e-07
2.415204e-08
6.0973675e-07
2.1721047e-08
6.0331646e-07
1.9437001e-08
5.9833797e-07
1.729552e-08
5.9435701e-07
1.5287697e-08
5.9116587e-07
1.3401122e-08
5.8859789e-07
1.162265e-08
5.8652677e-07
9.9389379e-09
5.8485876e-07
8.3366353e-09
5.8352351e-07
6.8025548e-09
5.8246794e-07
5.3237719e-09
5.8165214e-07
3.8876579e-09
5.8104651e-07
2.4818605e-09
5.8062982e-07
1.0942481e-09
5.8038789e-07
-2.8717103e-10
5.8031272e-07
-1.6743423e-09
5.8040205e-07
-3.0792674e-09
5.8065923e-07
-4.5140973e-09
5.8109342e-07
-5.991212e-09
5.8172012e-07
-7.5232745e-09
5.825621e-07
-9.1232499e-09
5.836509e-07
-1.080437e-08
5.8502894e-07
-1.2580044e-08
5.8675266e-07
-1.4463737e-08
5.8889714e-07
-1.6468667e-08
5.9156293e-07
-1.860647e-08
5.9488448e-07
-2.0885699e-08
5.9903432e-07
-2.3345444e-08
6.0431178e-07
-2.6214719e-08
6.1186264e-07
-2.9745379e-08
6.2492244e-07
-3.1881465e-08
6.4176893e-07
-2.6058077e-08
6.2457895e-07
-1.0095886e-08
4.839986e-07
1.7453636e-07
6.0066415e-09
1.3469288e-07
2.2497223e-08
4.2579423e-07
3.2642635e-08
6.1208295e-07
3.256946e-08
6.5713096e-07
2.9060773e-08
6.408575e-07
2.6018815e-08
6.22586e-07
2.3563247e-08
6.1219232e-07
2.1314353e-08
6.0556535e-07
1.9177664e-08
6.0047466e-07
1.7149691e-08
5.9638498e-07
1.5227023e-08
5.9308854e-07
1.3402e-08
5.9042291e-07
1.1665601e-08
5.8826317e-07
1.0008121e-08
5.8651624e-07
8.4193766e-09
5.8511225e-07
6.8889157e-09
5.839984e-07
5.4061744e-09
5.8313488e-07
3.9605776e-09
5.8249211e-07
2.5415912e-09
5.820488e-07
1.1387374e-09
5.8179074e-07
-2.5841627e-10
5.8170988e-07
-1.6602812e-09
5.8180391e-07
-3.0772804e-09
5.8207623e-07
-4.5198716e-09
5.8253601e-07
-5.9985552e-09
5.831988e-07
-7.5238551e-09
5.840874e-07
-9.106263e-09
5.8523331e-07
-1.0756132e-08
5.8667881e-07
-1.2483519e-08
5.8848005e-07
-1.4298003e-08
5.9071162e-07
-1.6208314e-08
5.9347324e-07
-1.8220793e-08
5.9689696e-07
-2.0340073e-08
6.011536e-07
-2.261377e-08
6.0658547e-07
-2.5272985e-08
6.1452185e-07
-2.8391339e-08
6.2804079e-07
-2.959359e-08
6.4297118e-07
-2.3008923e-08
6.1799429e-07
-8.14539e-09
4.6913507e-07
1.6639097e-07
4.864305e-09
1.2982889e-07
1.9752269e-08
4.1090693e-07
3.0142424e-08
6.0169324e-07
3.1058281e-08
6.5621517e-07
2.806803e-08
6.4384769e-07
2.5223406e-08
6.254306e-07
2.2931394e-08
6.1448433e-07
2.0843122e-08
6.0765363e-07
1.8842952e-08
6.0247483e-07
1.6924318e-08
5.9830361e-07
1.5087255e-08
5.949256e-07
1.3327539e-08
5.9218263e-07
1.1639258e-08
5.8995145e-07
1.0015583e-08
5.8813992e-07
8.4489526e-09
5.8667888e-07
6.9312711e-09
5.8551608e-07
5.4540809e-09
5.8461207e-07
4.0086987e-09
5.8393749e-07
2.5863118e-09
5.8347119e-07
1.178042e-09
5.8319901e-07
-2.2501385e-10
5.8311293e-07
-1.6317558e-09
5.8321066e-07
-3.05106e-09
5.8349553e-07
-4.4917487e-09
5.839767e-07
-5.9625456e-09
5.846696e-07
-7.4720056e-09
5.8559686e-07
-9.0284114e-09
5.8678971e-07
-1.063963e-08
5.8829003e-07
-1.2312928e-08
5.9015334e-07
-1.4054783e-08
5.9245347e-07
-1.5870462e-08
5.9528892e-07
-1.7762546e-08
5.9878905e-07
-1.9734544e-08
6.031256e-07
-2.1844317e-08
6.0869525e-07
-2.4313062e-08
6.169906e-07
-2.7033345e-08
6.3076108e-07
-2.7423319e-08
6.4336115e-07
-2.0347449e-08
6.1091842e-07
-6.614515e-09
4.5540213e-07
1.5977646e-07
4.0325234e-09
1.2579674e-07
1.746355e-08
3.9747669e-07
2.7878807e-08
5.9127855e-07
2.9610305e-08
6.5448379e-07
2.7109295e-08
6.4634864e-07
2.4444359e-08
6.280955e-07
2.2286551e-08
6.1664213e-07
2.0336361e-08
6.0960382e-07
1.8459373e-08
6.0435182e-07
1.6642976e-08
6.0012001e-07
1.4888872e-08
5.9667971e-07
1.319517e-08
5.9387633e-07
1.1558177e-08
5.9158845e-07
9.9732446e-09
5.8972485e-07
8.4349047e-09
5.8821722e-07
6.9370241e-09
5.8701396e-07
5.472967e-09
5.8607613e-07
4.0357387e-09
5.8537472e-07
2.618103e-09
5.8488883e-07
1.2126767e-09
5.8460443e-07
-1.8799671e-10
5.8451361e-07
-1.591382e-09
5.8461404e-07
-3.0048936e-09
5.8490904e-07
-4.4358281e-09
5.8540763e-07
-5.891285e-09
5.8612505e-07
-7.3780652e-09
5.8708364e-07
-8.9025427e-09
5.8831419e-07
-1.0470511e-08
5.89858e-07
-1.2087006e-08
5.9176984e-07
-1.3756135e-08
5.941226e-07
-1.5480635e-08
5.9701342e-07
-1.726069e-08
6.005691e-07
-1.9100989e-08
6.049659e-07
-2.1069711e-08
6.1066397e-07
-2.3366847e-08
6.1928773e-07
-2.5711074e-08
6.331053e-07
-2.5410347e-08
6.4306042e-07
-1.8055083e-08
6.0356315e-07
-5.4288786e-09
4.4277593e-07
1.5434758e-07
3.4286206e-09
1.2236857e-07
1.5557235e-08
3.8534901e-07
2.5845127e-08
5.8099138e-07
2.8240889e-08
6.5208822e-07
2.6196357e-08
6.4839312e-07
2.3697478e-08
6.3059433e-07
2.1648951e-08
6.1869065e-07
1.9815219e-08
6.1143755e-07
1.8047282e-08
6.0611976e-07
1.6324509e-08
6.0184278e-07
1.4648796e-08
5.9835542e-07
1.3019696e-08
5.9550543e-07
1.1435016e-08
5.9317313e-07
9.8916845e-09
5.9126818e-07
8.3858457e-09
5.8972306e-07
6.9129541e-09
5.8848686e-07
5.4679057e-09
5.8752118e-07
4.0451716e-09
5.8679745e-07
2.6389207e-09
5.8629508e-07
1.243126e-09
5.8600023e-07
-1.4834045e-10
5.8590507e-07
-1.5416214e-09
5.8600732e-07
-2.9427909e-09
5.8631021e-07
-4.3577641e-09
5.8682261e-07
-5.7921983e-09
5.8755949e-07
-7.251376e-09
5.8854282e-07
-8.7400721e-09
5.8980289e-07
-1.0262408e-08
5.9138033e-07
-1.1821701e-08
5.9332913e-07
-1.3420331e-08
5.9572123e-07
-1.5059301e-08
5.9865239e-07
-1.6737567e-08
6.0224737e-07
-1.8462729e-08
6.0669106e-07
-2.0312081e-08
6.1251332e-07
-2.2454737e-08
6.2143039e-07
-2.4449305e-08
6.3509987e-07
-2.3571443e-08
6.4218256e-07
-1.6097805e-08
5.9608951e-07
-4.5200639e-09
4.3119819e-07
1.4982751e-07
2.9879661e-09
1.1938112e-07
1.3964841e-08
3.7437325e-07
2.4023484e-08
5.7093363e-07
2.6955123e-08
6.4915685e-07
2.533352e-08
6.5001466e-07
2.2990699e-08
6.3293709e-07
2.1031369e-08
6.2064997e-07
1.9294498e-08
6.1317442e-07
1.7621787e-08
6.0779247e-07
1.5983534e-08
6.0348103e-07
1.4380621e-08
5.9995833e-07
1.2813359e-08
5.9707269e-07
1.1280494e-08
5.9470599e-07
9.7800413e-09
5.9276864e-07
8.3093428e-09
5.9119376e-07
6.8651003e-09
5.899311e-07
5.4434656e-09
5.8894281e-07
4.0401524e-09
5.8820076e-07
2.6505505e-09
5.8768468e-07
1.2698336e-09
5.8738095e-07
-1.06938e-10
5.8728184e-07
-1.4847206e-09
5.873851e-07
-2.8683912e-09
5.8769388e-07
-4.2626462e-09
5.8821686e-07
-5.6718944e-09
5.8896873e-07
-7.1001394e-09
5.8997106e-07
-8.5508528e-09
5.912536e-07
-1.002685e-08
5.9285633e-07
-1.1530183e-08
5.9483247e-07
-1.3062035e-08
5.9725308e-07
-1.4622332e-08
6.0021268e-07
-1.6209769e-08
6.038348e-07
-1.7836039e-08
6.0831733e-07
-1.958542e-08
6.142627e-07
-2.1588494e-08
6.2343346e-07
-2.3261437e-08
6.3677281e-07
-2.1907714e-08
6.4082884e-07
-1.4434541e-08
5.8861634e-07
-3.8281703e-09
4.2059182e-07
1.4599934e-07
2.6617221e-09
1.1672001e-07
1.2626606e-08
3.6440967e-07
2.2391091e-08
5.6117024e-07
2.5751582e-08
6.4579674e-07
2.4520305e-08
6.512459e-07
2.2326641e-08
6.3513067e-07
2.0441129e-08
6.2253546e-07
1.8784096e-08
6.1483146e-07
1.7193763e-08
6.093828e-07
1.5631086e-08
6.0504371e-07
1.4094997e-08
6.0149442e-07
1.2586036e-08
5.9858166e-07
1.1103474e-08
5.9618855e-07
9.6460256e-09
5.9422608e-07
8.211887e-09
5.926279e-07
6.7987132e-09
5.9134427e-07
5.4036617e-09
5.9033786e-07
4.0234758e-09
5.8958095e-07
2.6545834e-09
5.8905357e-07
1.2931975e-09
5.8874233e-07
-6.4583174e-11
5.8863962e-07
-1.4226747e-09
5.887432e-07
-2.7849101e-09
5.8905612e-07
-4.1549351e-09
5.8958689e-07
-5.536104e-09
5.903499e-07
-6.9313685e-09
5.9136632e-07
-8.3431682e-09
5.926654e-07
-9.773335e-09
5.9428649e-07
-1.1223029e-08
5.9628216e-07
-1.2692675e-08
5.9872273e-07
-1.4181636e-08
6.0170164e-07
-1.5689126e-08
6.0534229e-07
-1.7231583e-08
6.0985978e-07
-1.8897553e-08
6.1592867e-07
-2.0773506e-08
6.2530941e-07
-2.2152513e-08
6.3815182e-07
-2.0410394e-08
6.3908672e-07
-1.3022753e-08
5.812287e-07
-3.302792e-09
4.1087186e-07
1.4269655e-07
2.4141482e-09
1.1430658e-07
1.1492598e-08
3.5533276e-07
2.0924351e-08
5.5173981e-07
2.4625212e-08
6.4209638e-07
2.3753449e-08
6.5211764e-07
2.1704497e-08
6.3717954e-07
1.9881672e-08
6.2435826e-07
1.829021e-08
6.1642292e-07
1.6770745e-08
6.1090227e-07
1.5275271e-08
6.0653919e-07
1.3800076e-08
6.0296961e-07
1.234553e-08
6.000362e-07
1.0911133e-08
5.9762295e-07
9.4960066e-09
5.9564121e-07
8.098929e-09
5.9402497e-07
6.7182611e-09
5.9272494e-07
5.3519464e-09
5.9170418e-07
3.9975644e-09
5.9093533e-07
2.6524075e-09
5.9039873e-07
1.3135696e-09
5.9008117e-07
-2.1961436e-11
5.8997515e-07
-1.3572108e-09
5.9007844e-07
-2.6951189e-09
5.9039402e-07
-4.0384462e-09
5.9093021e-07
-5.3896758e-09
5.9170113e-07
-6.7509159e-09
5.9272756e-07
-8.1238126e-09
5.940383e-07
-9.5094859e-09
5.9567217e-07
-1.090851e-08
5.9768118e-07
-1.2320882e-08
6.001351e-07
-1.3745809e-08
6.0312657e-07
-1.518361e-08
6.0678009e-07
-1.6655667e-08
6.1133184e-07
-1.8251777e-08
6.1752478e-07
-2.0010661e-08
6.270683e-07
-2.1121894e-08
6.3926305e-07
-1.9065367e-08
6.3703019e-07
-1.1822239e-08
5.7398557e-07
-2.9029202e-09
4.0195254e-07
1.3979363e-07
2.2198641e-09
1.1208755e-07
1.0522341e-08
3.4703208e-07
1.960115e-08
5.426626e-07
2.3569378e-08
6.3812882e-07
2.3028376e-08
6.5265865e-07
2.1121461e-08
6.3908635e-07
1.9353795e-08
6.2612588e-07
1.7816321e-08
6.1796039e-07
1.6357702e-08
6.1236089e-07
1.4921854e-08
6.0797503e-07
1.3501937e-08
6.0438953e-07
1.2097866e-08
6.0144027e-07
1.070916e-08
5.9901165e-07
9.3351412e-09
5.9701523e-07
7.9749562e-09
5.9538516e-07
6.6274715e-09
5.9407242e-07
5.2912309e-09
5.9304042e-07
3.9644782e-09
5.9226208e-07
2.645212e-09
5.9171799e-07
1.3312581e-09
5.9139512e-07
2.0349885e-11
5.9128606e-07
-1.2897875e-09
5.9138858e-07
-2.6013497e-09
5.9170559e-07
-3.9163665e-09
5.9224523e-07
-5.2366168e-09
5.9302138e-07
-6.5635498e-09
5.940545e-07
-7.8982209e-09
5.9537297e-07
-9.2412609e-09
5.9701521e-07
-1.0592894e-08
5.9903282e-07
-1.1952942e-08
6.0149515e-07
-1.3320749e-08
6.0449438e-07
-1.4698167e-08
6.0815751e-07
-1.6111343e-08
6.1274502e-07
-1.7648246e-08
6.1906168e-07
-1.9297934e-08
6.2871799e-07
-2.016545e-08
6.4013057e-07
-1.7856316e-08
6.3472106e-07
-1.0797089e-08
5.6692634e-07
-2.5961005e-09
3.9375155e-07
1.3719753e-07
2.0613832e-09
1.1002714e-07
9.6837062e-09
3.3941185e-07
1.8401905e-08
5.3394632e-07
2.2577148e-08
6.3395443e-07
2.2340177e-08
6.5289568e-07
2.0573753e-08
6.4085265e-07
1.8856626e-08
6.2784296e-07
1.7364003e-08
6.1945301e-07
1.5957689e-08
6.1376721e-07
1.457477e-08
6.0935795e-07
1.3204991e-08
6.0575931e-07
1.1847589e-08
6.0279767e-07
1.0501975e-08
6.0035727e-07
9.1675234e-09
5.9834968e-07
7.843593e-09
5.9670909e-07
6.5293969e-09
5.9538662e-07
5.2239251e-09
5.9434589e-07
3.925938e-09
5.9356007e-07
2.6339998e-09
5.9300993e-07
1.3465326e-09
5.9268259e-07
6.188318e-11
5.9257071e-07
-1.2216055e-09
5.9267207e-07
-2.5055185e-09
5.929895e-07
-3.7912953e-09
5.9353101e-07
-5.0801596e-09
5.9431025e-07
-6.3730592e-09
5.953474e-07
-7.6706267e-09
5.9667053e-07
-8.9731795e-09
5.9831776e-07
-1.0280771e-08
6.0034041e-07
-1.159322e-08
6.028076e-07
-1.2910229e-08
6.0581139e-07
-1.4235452e-08
6.0948273e-07
-1.5599345e-08
6.1410891e-07
-1.7085085e-08
6.2054742e-07
-1.8631603e-08
6.302645e-07
-1.9277172e-08
6.4077614e-07
-1.6766655e-08
6.3221054e-07
-9.9162052e-09
5.6007589e-07
-2.3572193e-09
3.8619256e-07
1.3484031e-07
1.9270328e-09
1.0810124e-07
8.95155e-09
3.3238977e-07
1.7309846e-08
5.255903e-07
2.1641993e-08
6.2962337e-07
2.1684175e-08
6.5285362e-07
2.0057284e-08
6.4247941e-07
1.838832e-08
6.2951186e-07
1.6933541e-08
6.2090778e-07
1.5572374e-08
6.1512838e-07
1.4236569e-08
6.1069376e-07
1.2912325e-08
6.0708355e-07
1.1598039e-08
6.0411196e-07
1.0292933e-08
6.0166237e-07
8.9963377e-09
5.9964628e-07
7.7077113e-09
5.9799772e-07
6.4264914e-09
5.9666784e-07
5.1519889e-09
5.9562039e-07
3.8833574e-09
5.948287e-07
2.6196043e-09
5.9427368e-07
1.3596283e-09
5.9394257e-07
1.0227063e-10
5.9382807e-07
-1.153627e-09
5.9392797e-07
-2.4091598e-09
5.9424503e-07
-3.6653006e-09
5.9478715e-07
-4.9228458e-09
5.9556779e-07
-6.1823741e-09
5.9660692e-07
-7.4442302e-09
5.9793239e-07
-8.7085525e-09
5.9958208e-07
-9.9753505e-09
6.016072e-07
-1.1244563e-08
6.0407681e-07
-1.2516396e-08
6.0708322e-07
-1.379646e-08
6.107628e-07
-1.5118852e-08
6.154313e-07
-1.6559225e-08
6.219878e-07
-1.8007107e-08
6.3171238e-07
-1.8450281e-08
6.4121931e-07
-1.5780718e-08
6.2954098e-07
-9.1534231e-09
5.534486e-07
-2.1673026e-09
3.7920644e-07
1.3267301e-07
1.8092693e-09
1.0629327e-07
8.3063633e-09
3.258955e-07
1.631091e-08
5.1758843e-07
2.075812e-08
6.251775e-07
2.1056214e-08
6.5255573e-07
1.9568062e-08
6.4396742e-07
1.7946538e-08
6.311333e-07
1.6524398e-08
6.223299e-07
1.5202457e-08
6.1645032e-07
1.3908771e-08
6.1198745e-07
1.2626005e-08
6.0836632e-07
1.1351595e-08
6.0538637e-07
1.0084518e-08
6.0292945e-07
8.8240069e-09
6.0090679e-07
7.5695414e-09
5.9925218e-07
6.3206909e-09
5.9791669e-07
5.0769887e-09
5.9686409e-07
3.837879e-09
5.9606781e-07
2.6027094e-09
5.9550885e-07
1.3707511e-09
5.9517452e-07
1.4123581e-10
5.9505758e-07
-1.0866006e-09
5.951558e-07
-2.3134689e-09
5.954719e-07
-3.539982e-09
5.9601366e-07
-4.7666167e-09
5.9679443e-07
-5.9936902e-09
5.97834e-07
-7.2213651e-09
5.9916007e-07
-8.4497003e-09
6.0081042e-07
-9.6787488e-09
6.0283625e-07
-1.0908644e-08
6.053067e-07
-1.21402e-08
6.0831477e-07
-1.3381028e-08
6.1200362e-07
-1.4668057e-08
6.1671833e-07
-1.6067001e-08
6.2338674e-07
-1.7419649e-08
6.3306503e-07
-1.7677965e-08
6.4147763e-07
-1.4884387e-08
6.267474e-07
-8.4871883e-09
5.470514e-07
-2.0123484e-09
3.727316e-07
1.3066066e-07
1.7033698e-09
1.0459141e-07
7.7330477e-09
3.1986909e-07
1.5393417e-08
5.0993122e-07
1.992056e-08
6.2065203e-07
2.0452761e-08
6.5202384e-07
1.9102406e-08
6.4531763e-07
1.7528761e-08
6.3270684e-07
1.6135537e-08
6.237231e-07
1.4847974e-08
6.1773788e-07
1.3592155e-08
6.1324327e-07
1.234733e-08
6.0961114e-07
1.1109882e-08
6.0662382e-07
9.8785132e-09
6.0416082e-07
8.6523289e-09
6.0213297e-07
7.4307772e-09
6.0047373e-07
6.2134924e-09
5.9913397e-07
5.0001533e-09
5.9807743e-07
3.7904119e-09
5.9727755e-07
2.5838697e-09
5.9671539e-07
1.3800826e-09
5.9637831e-07
1.7858359e-10
5.9625908e-07
-1.0210874e-09
5.9635547e-07
-2.2193465e-09
5.9667016e-07
-3.4165368e-09
5.9721085e-07
-4.612904e-09
5.9799079e-07
-5.8085899e-09
5.9902968e-07
-7.0036554e-09
6.0035513e-07
-8.1981505e-09
6.0200491e-07
-9.3922278e-09
6.0403033e-07
-1.0586261e-08
6.0650074e-07
-1.1781732e-08
6.0951024e-07
-1.2988223e-08
6.1321012e-07
-1.4244597e-08
6.179747e-07
-1.5604564e-08
6.2474671e-07
-1.6864568e-08
6.3432504e-07
-1.695382e-08
6.4156688e-07
-1.4065329e-08
6.2385891e-07
-7.900018e-09
5.4088609e-07
-1.8822518e-09
3.6671383e-07
1.2877841e-07
1.6064616e-09
1.0298668e-07
7.2198817e-09
3.1425944e-07
1.454769e-08
5.026071e-07
1.9125125e-08
6.1607662e-07
1.9870905e-08
6.5127851e-07
1.865705e-08
6.4653135e-07
1.7132482e-08
6.3423129e-07
1.5765642e-08
6.2508992e-07
1.4508528e-08
6.18995e-07
1.3286967e-08
6.1446483e-07
1.207702e-08
6.1082109e-07
1.0873944e-08
6.0782689e-07
9.6761487e-09
6.0535861e-07
8.4825964e-09
6.0332652e-07
7.2926725e-09
6.0166366e-07
6.1060277e-09
6.0032062e-07
4.9224277e-09
5.9926103e-07
3.7416668e-09
5.9845831e-07
2.56353e-09
5.9789353e-07
1.3877841e-09
5.9755406e-07
2.1418842e-10
5.9743268e-07
-9.5748833e-10
5.9752715e-07
-2.1274434e-09
5.9784011e-07
-3.2958242e-09
5.9837923e-07
-4.4627169e-09
5.9915769e-07
-5.6281547e-09
6.0019512e-07
-6.7921565e-09
6.0151913e-07
-7.9548112e-09
6.0316757e-07
-9.1164033e-09
6.0519192e-07
-1.0277571e-08
6.076619e-07
-1.1440497e-08
6.1067317e-07
-1.2616636e-08
6.1438625e-07
-1.3845848e-08
6.1920392e-07
-1.5168147e-08
6.26069e-07
-1.6337569e-08
6.3549446e-07
-1.6272075e-08
6.4150138e-07
-1.3312999e-08
6.2089983e-07
-7.3778887e-09
5.3495098e-07
-1.7698741e-09
3.6110582e-07
1.2700853e-07
1.5168333e-09
1.0147184e-07
6.7576882e-09
3.0902293e-07
1.3765672e-08
4.9560342e-07
1.8368302e-08
6.1147645e-07
1.9308291e-08
6.5033914e-07
1.8229161e-08
6.4761035e-07
1.675531e-08
6.3570499e-07
1.5413268e-08
6.2643192e-07
1.4183444e-08
6.2022482e-07
1.299309e-08
6.1565519e-07
1.1815376e-08
6.119988e-07
1.0644388e-08