/*--------------------------------*- C++ -*----------------------------------*\
  =========                 |
  \\      /  F ield         | OpenFOAM: The Open Source CFD Toolbox
   \\    /   O peration     | Website:  https://openfoam.org
    \\  /    A nd           | Version:  10
     \\/     M anipulation  |
\*---------------------------------------------------------------------------*/
FoamFile
{
    format      ascii;
    class       surfaceScalarField;
    location    "0.18";
    object      phi_0;
}
// * * * * * * * * * * * * * * * * * * * * * * * * * * * * * * * * * * * * * //

dimensions      [1 0 -1 0 0 0 0];

internalField   nonuniform List<scalar> 
7860
(
3.9895604e-08
5.2881242e-07
1.2192446e-08
5.9641095e-07
7.4276247e-09
5.7347256e-07
5.4991124e-09
5.7063621e-07
4.1146886e-09
5.7009209e-07
3.200848e-09
5.6962149e-07
2.5588755e-09
5.693496e-07
2.0790778e-09
5.6918741e-07
1.7091257e-09
5.6907756e-07
1.4164949e-09
5.6900022e-07
1.1793893e-09
5.6894469e-07
9.830452e-10
5.6890392e-07
8.1711829e-10
5.688735e-07
6.7411768e-10
5.6885057e-07
5.4846942e-10
5.6883321e-07
4.3591205e-10
5.6882012e-07
3.330912e-10
5.6881038e-07
2.3727875e-10
5.6880337e-07
1.4617094e-10
5.6879866e-07
5.7735851e-11
5.6879599e-07
-2.9910148e-11
5.687952e-07
-1.1860997e-10
5.6879626e-07
-2.1027098e-10
5.6879922e-07
-3.0697148e-10
5.6880426e-07
-4.1109311e-10
5.6881168e-07
-5.2548368e-10
5.6882195e-07
-6.5367805e-10
5.6883576e-07
-8.0021099e-10
5.688541e-07
-9.7107766e-10
5.6887844e-07
-1.1744404e-09
5.6891094e-07
-1.4218019e-09
5.6895495e-07
-1.7299749e-09
5.6901577e-07
-2.1239394e-09
5.6910157e-07
-2.6435788e-09
5.6922725e-07
-3.3713078e-09
5.6943536e-07
-4.4626896e-09
5.6979903e-07
-6.0081724e-09
5.7025316e-07
-9.5072726e-09
5.7220681e-07
-2.9574948e-08
5.8877543e-07
5.3913297e-07
5.9671608e-08
4.6914082e-07
3.6664925e-08
6.1941763e-07
2.2627164e-08
5.8751032e-07
1.625254e-08
5.7701084e-07
1.2289479e-08
5.7405515e-07
9.6052682e-09
5.723057e-07
7.6765583e-09
5.7127831e-07
6.2353118e-09
5.7062866e-07
5.1259294e-09
5.7018694e-07
4.2483362e-09
5.6987782e-07
3.5371952e-09
5.6965583e-07
2.9483355e-09
5.6949278e-07
2.4507092e-09
5.6937113e-07
2.0218386e-09
5.6927944e-07
1.6450067e-09
5.6921004e-07
1.3074334e-09
5.6915769e-07
9.990588e-10
5.6911875e-07
7.1170173e-10
5.6909073e-07
4.384537e-10
5.6907191e-07
1.7322015e-10
5.6906122e-07
-8.9648169e-11
5.6905807e-07
-3.5567745e-10
5.6906228e-07
-6.3058284e-10
5.6907412e-07
-9.2059979e-10
5.6909427e-07
-1.2328705e-09
5.6912395e-07
-1.5759351e-09
5.6916502e-07
-1.9603941e-09
5.6922022e-07
-2.3998468e-09
5.6929355e-07
-2.9122796e-09
5.6939087e-07
-3.5221885e-09
5.6952085e-07
-4.2639962e-09
5.6969675e-07
-5.1880719e-09
5.6993984e-07
-6.3710455e-09
5.7028454e-07
-7.931641e-09
5.7078785e-07
-1.0073087e-08
5.715768e-07
-1.3201524e-08
5.7292747e-07
-1.8131732e-08
5.7518336e-07
-2.8174115e-08
5.8224919e-07
-4.5800506e-08
6.0640182e-07
4.9333247e-07
6.0007446e-08
4.0913339e-07
5.0485293e-08
6.2893978e-07
3.3368813e-08
6.046268e-07
2.4815829e-08
5.8556382e-07
1.9321418e-08
5.7954956e-07
1.5329755e-08
5.7629736e-07
1.2359116e-08
5.7424895e-07
1.0100143e-08
5.7288763e-07
8.3394562e-09
5.7194762e-07
6.9339298e-09
5.7128334e-07
5.7874813e-09
5.7080228e-07
4.833342e-09
5.7044692e-07
4.023743e-09
5.7018072e-07
3.3236948e-09
5.6997949e-07
2.7069291e-09
5.6982681e-07
2.1532093e-09
5.6971141e-07
1.6465053e-09
5.6962546e-07
1.1737129e-09
5.6956352e-07
7.2371996e-10
5.695219e-07
2.8669334e-10
5.6949825e-07
-1.4649858e-10
5.6949126e-07
-5.8479195e-10
5.6950058e-07
-1.0374206e-09
5.6952675e-07
-1.5144361e-09
5.6957129e-07
-2.0273108e-09
5.6963683e-07
-2.589697e-09
5.697274e-07
-3.218439e-09
5.6984896e-07
-3.9349837e-09
5.700101e-07
-4.767431e-09
5.7022332e-07
-5.7535972e-09
5.7050701e-07
-6.9456738e-09
5.7088883e-07
-8.4178657e-09
5.7141203e-07
-1.0279579e-08
5.7214625e-07
-1.2692696e-08
5.7320096e-07
-1.5890387e-08
5.7477449e-07
-2.0234561e-08
5.7727164e-07
-2.6703271e-08
5.8165207e-07
-3.8942908e-08
5.9448882e-07
-4.8163499e-08
6.1562241e-07
4.4516897e-07
5.4877254e-08
3.5425617e-07
5.7449141e-08
6.263679e-07
4.0464613e-08
6.2161132e-07
3.077593e-08
5.952525e-07
2.4640259e-08
5.8568524e-07
1.9949621e-08
5.80988e-07
1.6310469e-08
5.778881e-07
1.3464336e-08
5.7573376e-07
1.1199102e-08
5.7421286e-07
9.3630567e-09
5.7311939e-07
7.848311e-09
5.7231703e-07
6.576371e-09
5.7171886e-07
5.4893847e-09
5.7126771e-07
4.5440337e-09
5.7092484e-07
3.7072173e-09
5.7066363e-07
2.9530721e-09
5.7046556e-07
2.260874e-09
5.7031766e-07
1.6135212e-09
5.7021087e-07
9.9640166e-10
5.7013902e-07
3.9651378e-10
5.7009814e-07
-1.982569e-10
5.7008603e-07
-7.9977795e-10
5.701021e-07
-1.4202909e-09
5.7014726e-07
-2.073066e-09
5.7022406e-07
-2.7731525e-09
5.7033691e-07
-3.5383067e-09
5.7049256e-07
-4.390199e-09
5.7070085e-07
-5.3560472e-09
5.7097595e-07
-6.4708967e-09
5.7133817e-07
-7.7808812e-09
5.71817e-07
-9.3477896e-09
5.7245574e-07
-1.1255452e-08
5.7331969e-07
-1.3620142e-08
5.7451094e-07
-1.6603218e-08
5.7618404e-07
-2.0402473e-08
5.7857375e-07
-2.528459e-08
5.8215376e-07
-3.250924e-08
5.8887672e-07
-4.509305e-08
6.0707263e-07
-4.6544221e-08
6.1707358e-07
3.9862474e-07
4.7963618e-08
3.062926e-07
6.0072342e-08
6.142592e-07
4.5395888e-08
6.3628776e-07
3.4871344e-08
6.0577704e-07
2.8395932e-08
5.9216065e-07
2.3415844e-08
5.8596809e-07
1.9430787e-08
5.8187316e-07
1.6226011e-08
5.7893854e-07
1.3616991e-08
5.7682188e-07
1.1464315e-08
5.7527206e-07
9.6628494e-09
5.7411849e-07
8.1325482e-09
5.7324916e-07
6.8123802e-09
5.7258788e-07
5.6553256e-09
5.7208189e-07
4.6246012e-09
5.7169435e-07
3.6909121e-09
5.7139925e-07
2.830411e-09
5.7117816e-07
2.0231597e-09
5.7101812e-07
1.2519442e-09
5.7091024e-07
5.0132987e-10
5.7084875e-07
-2.4313158e-10
5.7083049e-07
-9.9561233e-10
5.7085458e-07
-1.7706983e-09
5.7092235e-07
-2.584112e-09
5.7103748e-07
-3.4535285e-09
5.7120633e-07
-4.3995593e-09
5.7143859e-07
-5.446992e-09
5.7174828e-07
-6.6264e-09
5.7215535e-07
-7.9762695e-09
5.7268804e-07
-9.5458731e-09
5.733866e-07
-1.1399045e-08
5.7430891e-07
-1.3618608e-08
5.7553926e-07
-1.6312876e-08
5.7720521e-07
-1.9625466e-08
5.7949663e-07
-2.372667e-08
5.8267495e-07
-2.8919351e-08
5.8734644e-07
-3.6779853e-08
5.9673723e-07
-4.8452945e-08
6.1874572e-07
-4.3187805e-08
6.1180844e-07
3.5543694e-07
4.0333597e-08
2.6595906e-07
5.8988724e-08
5.9560412e-07
4.832428e-08
6.469522e-07
3.7582669e-08
6.1651864e-07
3.0923669e-08
5.9881965e-07
2.588899e-08
5.9100277e-07
2.1775342e-08
5.8598681e-07
1.8387866e-08
5.8232602e-07
1.5573893e-08
5.7963585e-07
1.3211365e-08
5.7763459e-07
1.1204337e-08
5.7612552e-07
9.4775076e-09
5.7497599e-07
7.9717248e-09
5.7409366e-07
6.6400751e-09
5.7341354e-07
5.4449215e-09
5.728895e-07
4.3556358e-09
5.7248853e-07
3.3468193e-09
5.7218697e-07
2.3969028e-09
5.7196804e-07
1.4870293e-09
5.7182011e-07
6.0013301e-10
5.7173565e-07
-2.798508e-10
5.7171048e-07
-1.1687033e-09
5.7174343e-07
-2.0826244e-09
5.7183627e-07
-3.0389615e-09
5.7199381e-07
-4.057015e-09
5.7222438e-07
-5.1589845e-09
5.7254056e-07
-6.3711207e-09
5.7296042e-07
-7.7251596e-09
5.7350939e-07
-9.2601207e-09
5.74223e-07
-1.1024614e-08
5.751511e-07
-1.3079874e-08
5.7636417e-07
-1.5503178e-08
5.7796256e-07
-1.8391941e-08
5.8009397e-07
-2.1870356e-08
5.8297504e-07
-2.6094235e-08
5.8689883e-07
-3.1472931e-08
5.9272513e-07
-3.9639285e-08
6.0490358e-07
-4.9158209e-08
6.2826465e-07
-3.8570774e-08
6.01221e-07
3.1686617e-07
3.2859956e-08
2.3309919e-07
5.5243398e-08
5.7322076e-07
4.9224609e-08
6.5297099e-07
3.9054374e-08
6.2668887e-07
3.2423862e-08
6.0545015e-07
2.7512258e-08
5.9591437e-07
2.3432641e-08
5.9006642e-07
1.9997446e-08
5.8576121e-07
1.7090106e-08
5.8254319e-07
1.4608387e-08
5.8011631e-07
1.2468492e-08
5.7826541e-07
1.0603161e-08
5.7684132e-07
8.9581403e-09
5.7573868e-07
7.4892267e-09
5.7488246e-07
6.1600777e-09
5.7421865e-07
4.9404547e-09
5.7370815e-07
3.8047795e-09
5.7332265e-07
2.7309582e-09
5.7304186e-07
1.6994047e-09
5.7285167e-07
6.9220963e-10
5.7274284e-07
-3.0759138e-10
5.7271028e-07
-1.3166924e-09
5.7275253e-07
-2.3521825e-09
5.7287176e-07
-3.4322296e-09
5.7307386e-07
-4.5768215e-09
5.7336897e-07
-5.8086131e-09
5.7377235e-07
-7.153924e-09
5.7430573e-07
-8.6439385e-09
5.7499941e-07
-1.0316156e-08
5.7589522e-07
-1.2216168e-08
5.7705111e-07
-1.4400044e-08
5.7854804e-07
-1.6937225e-08
5.8049974e-07
-1.9912573e-08
5.8306932e-07
-2.3426887e-08
5.8648936e-07
-2.7621597e-08
5.9109354e-07
-3.30148e-08
5.9811834e-07
-4.0990957e-08
6.1287974e-07
-4.7670136e-08
6.3494383e-07
-3.3367239e-08
5.8691811e-07
2.8349893e-07
2.6185957e-08
2.0691334e-07
5.0124764e-08
5.4928208e-07
4.8483833e-08
6.5461194e-07
3.9481835e-08
6.3569084e-07
3.3068775e-08
6.1186321e-07
2.8403759e-08
6.0057939e-07
2.4485194e-08
5.9398499e-07
2.1111264e-08
5.8913514e-07
1.8201071e-08
5.8545338e-07
1.5675374e-08
5.8264201e-07
1.3465023e-08
5.8047576e-07
1.1512829e-08
5.7879352e-07
9.7712614e-09
5.7748025e-07
8.2005163e-09
5.764532e-07
6.7670475e-09
5.7565212e-07
5.4422946e-09
5.7503291e-07
4.201595e-09
5.7456335e-07
3.0232604e-09
5.7422019e-07
1.8877793e-09
5.7398715e-07
7.771139e-10
5.7385351e-07
-3.2593607e-10
5.7381333e-07
-1.4383295e-09
5.7386492e-07
-2.5773766e-09
5.7401081e-07
-3.7613414e-09
5.7425783e-07
-5.0100848e-09
5.7461772e-07
-6.3457791e-09
5.7510804e-07
-7.7937201e-09
5.7575367e-07
-9.3832748e-09
5.7658896e-07
-1.1148989e-08
5.7766093e-07
-1.3131854e-08
5.7903397e-07
-1.538096e-08
5.8079715e-07
-1.7955609e-08
5.8307439e-07
-2.0925274e-08
5.8603898e-07
-2.4365177e-08
5.8992926e-07
-2.8410811e-08
5.9513918e-07
-3.3666924e-08
6.0337445e-07
-4.1037985e-08
6.2025079e-07
-4.4776075e-08
6.3868192e-07
-2.8194482e-08
5.7033651e-07
2.5530444e-07
2.0567547e-08
1.8634592e-07
4.4573838e-08
5.2527596e-07
4.6630816e-08
6.52555e-07
3.914151e-08
6.4318013e-07
3.3072914e-08
6.1793179e-07
2.8707269e-08
6.0494503e-07
2.5028481e-08
5.9766378e-07
2.1795032e-08
5.9236859e-07
1.8951587e-08
5.8829683e-07
1.6442078e-08
5.8515152e-07
1.4212992e-08
5.8270485e-07
1.2218131e-08
5.8078838e-07
1.0417699e-08
5.7928068e-07
8.777323e-09
5.7809358e-07
7.2672301e-09
5.7716221e-07
5.8614356e-09
5.764387e-07
4.5370033e-09
5.7588778e-07
3.273379e-09
5.7548382e-07
2.0517845e-09
5.7520874e-07
8.5466035e-10
5.7505063e-07
-3.3485427e-10
5.7500284e-07
-1.5334177e-09
5.7506349e-07
-2.7579828e-09
5.7523537e-07
-4.0262985e-09
5.7552614e-07
-5.3574339e-09
5.7594885e-07
-6.7723444e-09
5.7652295e-07
-8.2944889e-09
5.7727581e-07
-9.9505145e-09
5.7824499e-07
-1.1771023e-08
5.7948144e-07
-1.3791365e-08
5.8105431e-07
-1.6052551e-08
5.8305834e-07
-1.8602451e-08
5.8562429e-07
-2.1494196e-08
5.8893073e-07
-2.4781837e-08
5.932169e-07
-2.8611471e-08
5.9896881e-07
-3.3629791e-08
6.0839277e-07
-4.0113702e-08
6.2673471e-07
-4.1134089e-08
6.397023e-07
-2.3405858e-08
5.5260828e-07
2.3189858e-07
1.6011768e-08
1.703343e-07
3.9133021e-08
5.0215494e-07
4.4103781e-08
6.4758432e-07
3.827508e-08
6.490088e-07
3.2640356e-08
6.235665e-07
2.8578796e-08
6.0900659e-07
2.5171633e-08
6.0107094e-07
2.2125081e-08
5.9541514e-07
1.939524e-08
5.9102667e-07
1.6946031e-08
5.8760072e-07
1.4738459e-08
5.8491242e-07
1.273691e-08
5.8278993e-07
1.0909451e-08
5.8110814e-07
9.2275422e-09
5.7977548e-07
7.6656881e-09
5.7872407e-07
6.2010198e-09
5.7790337e-07
4.8128681e-09
5.7727593e-07
3.4823368e-09
5.7681435e-07
2.191881e-09
5.764992e-07
9.2489911e-10
5.7631761e-07
-3.3466403e-10
5.762624e-07
-1.6027039e-09
5.7633153e-07
-2.8953481e-09
5.7652801e-07
-4.2293468e-09
5.7686014e-07
-5.6224721e-09
5.7734198e-07
-7.0939328e-09
5.7799441e-07
-8.6648009e-09
5.7884668e-07
-1.035845e-08
5.7993863e-07
-1.2201013e-08
5.81324e-07
-1.4221798e-08
5.830751e-07
-1.6453653e-08
5.8529019e-07
-1.8933355e-08
5.8810399e-07
-2.1699073e-08
5.9169645e-07
-2.479131e-08
5.9630914e-07
-2.8378715e-08
6.0255621e-07
-3.3087721e-08
6.1310177e-07
-3.8513034e-08
6.3216002e-07
-3.7186645e-08
6.3837591e-07
-1.9170719e-08
5.3459236e-07
2.1272786e-07
1.2419646e-08
1.5791482e-07
3.4101384e-08
4.804735e-07
4.1231909e-08
6.4045392e-07
3.7060659e-08
6.5318003e-07
3.1925174e-08
6.2870196e-07
2.8153012e-08
6.1277875e-07
2.5018236e-08
6.0420572e-07
2.2178614e-08
5.9825476e-07
1.9589087e-08
5.936162e-07
1.7229043e-08
5.8996077e-07
1.5071829e-08
5.8706963e-07
1.3091112e-08
5.8477064e-07
1.1262231e-08
5.8293702e-07
9.5623096e-09
5.8147541e-07
7.9702041e-09
5.8031617e-07
6.4663773e-09
5.7940719e-07
5.0327183e-09
5.7870959e-07
3.6523146e-09
5.7819475e-07
2.3091972e-09
5.7784231e-07
9.8806997e-10
5.7763874e-07
-3.2596755e-10
5.7757644e-07
-1.6476985e-09
5.7765326e-07
-2.9920749e-09
5.7787239e-07
-4.3744985e-09
5.7824256e-07
-5.8110986e-09
5.7877858e-07
-7.3190061e-09
5.7950232e-07
-8.9166125e-09
5.8044429e-07
-1.0623802e-08
5.8164582e-07
-1.246216e-08
5.8316236e-07
-1.4455136e-08
5.8506807e-07
-1.6628069e-08
5.8746312e-07
-1.9007878e-08
5.904838e-07
-2.1620095e-08
5.9430866e-07
-2.449892e-08
5.9918796e-07
-2.7838525e-08
6.0589582e-07
-3.2183356e-08
6.174466e-07
-3.647809e-08
6.3645475e-07
-3.3234964e-08
6.3513279e-07
-1.5550696e-08
5.1690809e-07
1.9717717e-07
9.6525507e-09
1.4826248e-07
2.9631208e-08
4.6049522e-07
3.8261818e-08
6.3182349e-07
3.5636368e-08
6.5580547e-07
3.1038483e-08
6.3329981e-07
2.7534221e-08
6.16283e-07
2.4654804e-08
6.0708513e-07
2.2024356e-08
6.0088521e-07
1.9586951e-08
5.960536e-07
1.7332587e-08
5.9221513e-07
1.5244627e-08
5.8915759e-07
1.3304465e-08
5.8671081e-07
1.149374e-08
5.8474774e-07
9.7946987e-09
5.8317445e-07
8.1903076e-09
5.8192056e-07
6.6643155e-09
5.8093319e-07
5.2012456e-09
5.8017266e-07
3.7863217e-09
5.7960968e-07
2.4053463e-09
5.7922329e-07
1.0445502e-09
5.7899954e-07
-3.0957803e-10
5.7893057e-07
-1.6704713e-09
5.7901415e-07
-3.0516717e-09
5.7925359e-07
-4.4670103e-09
5.796579e-07
-5.9307775e-09
5.8024234e-07
-7.4578746e-09
5.8102942e-07
-9.0639374e-09
5.8205035e-07
-1.0765411e-08
5.833473e-07
-1.2579581e-08
5.8497653e-07
-1.452456e-08
5.8701305e-07
-1.661912e-08
5.8955768e-07
-1.8881771e-08
5.9274645e-07
-2.1328069e-08
5.9675496e-07
-2.399211e-08
6.01852e-07
-2.7089682e-08
6.0899339e-07
-3.1034799e-08
6.2139172e-07
-3.4212957e-08
6.3963291e-07
-2.9484132e-08
6.3040396e-07
-1.2541106e-08
4.9996506e-07
1.8463606e-07
7.5616529e-09
1.4070106e-07
2.5770128e-08
4.4228721e-07
3.5364331e-08
6.2222955e-07
3.411201e-08
6.570578e-07
3.0063204e-08
6.3734858e-07
2.6802345e-08
6.1954385e-07
2.4150961e-08
6.0973652e-07
2.172003e-08
6.0331614e-07
1.9436062e-08
5.9833757e-07
1.7294673e-08
5.9435652e-07
1.5286953e-08
5.9116531e-07
1.3400492e-08
5.8859727e-07
1.1622146e-08
5.8652609e-07
9.9385676e-09
5.8485802e-07
8.3364072e-09
5.8352272e-07
6.8024755e-09
5.8246712e-07
5.323847e-09
5.8165129e-07
3.8878915e-09
5.8104563e-07
2.4822555e-09
5.8062892e-07
1.0948062e-09
5.8038698e-07
-2.8644963e-10
5.8031182e-07
-1.6734588e-09
5.8040116e-07
-3.0782242e-09
5.8065836e-07
-4.5128984e-09
5.8109257e-07
-5.9898628e-09
5.8171931e-07
-7.5217819e-09
5.8256133e-07
-9.1216223e-09
5.8365019e-07
-1.0802618e-08
5.8502829e-07
-1.2578178e-08
5.8675209e-07
-1.446177e-08
5.8889664e-07
-1.6466615e-08
5.9156253e-07
-1.8604348e-08
5.9488418e-07
-2.0883525e-08
5.9903414e-07
-2.3343233e-08
6.0431171e-07
-2.6212461e-08
6.1186262e-07
-2.974305e-08
6.2492231e-07
-3.1879224e-08
6.4176908e-07
-2.6056435e-08
6.2458117e-07
-1.0095273e-08
4.840039e-07
1.7454079e-07
6.0063747e-09
1.3469496e-07
2.2496341e-08
4.2579781e-07
3.2641264e-08
6.1208498e-07
3.256797e-08
6.5713113e-07
2.9059356e-08
6.4085714e-07
2.6017478e-08
6.225857e-07
2.3561974e-08
6.1219202e-07
2.1313155e-08
6.0556496e-07
1.9176557e-08
6.0047417e-07
1.7148689e-08
5.9638439e-07
1.5226141e-08
5.9308786e-07
1.340125e-08
5.9042216e-07
1.1664995e-08
5.8826234e-07
1.0007669e-08
5.8651535e-07
8.4190884e-09
5.851113e-07
6.8887984e-09
5.8399741e-07
5.4062341e-09
5.8313385e-07
3.9608192e-09
5.8249105e-07
2.5420181e-09
5.8204772e-07
1.1393515e-09
5.8178965e-07
-2.5761443e-10
5.8170879e-07
-1.6592928e-09
5.8180284e-07
-3.0761081e-09
5.8207517e-07
-4.5185195e-09
5.8253499e-07
-5.9970293e-09
5.8319782e-07
-7.5221628e-09
5.8408647e-07
-9.1044135e-09
5.8523244e-07
-1.0754137e-08
5.8667802e-07
-1.2481389e-08
5.8847934e-07
-1.4295755e-08
5.9071101e-07
-1.6205961e-08
5.9347273e-07
-1.8218356e-08
5.9689658e-07
-2.033757e-08
6.0115335e-07
-2.2611215e-08
6.0658536e-07
-2.5270361e-08
6.1452176e-07
-2.8388632e-08
6.2804058e-07
-2.9591023e-08
6.4297147e-07
-2.3007085e-08
6.1799724e-07
-8.1447214e-09
4.6914153e-07
1.6639607e-07
4.8640092e-09
1.2983128e-07
1.9751277e-08
4.1091123e-07
3.0140847e-08
6.0169587e-07
3.1056533e-08
6.5621551e-07
2.8066357e-08
6.4384726e-07
2.5221831e-08
6.254302e-07
2.29299e-08
6.1448395e-07
2.0841716e-08
6.0765315e-07
1.8841651e-08
6.0247423e-07
1.692314e-08
5.983029e-07
1.5086216e-08
5.9492479e-07
1.3326652e-08
5.9218172e-07
1.1638536e-08
5.8995046e-07
1.0015037e-08
5.8813885e-07
8.4485935e-09
5.8667775e-07
6.9311073e-09
5.8551489e-07
5.4541193e-09
5.8461084e-07
4.0089448e-09
5.8393622e-07
2.5867696e-09
5.834699e-07
1.1787137e-09
5.8319771e-07
-2.2412754e-10
5.8311163e-07
-1.6306559e-09
5.8320937e-07
-3.0497492e-09
5.8349426e-07
-4.4902314e-09
5.8397547e-07
-5.9608282e-09
5.8466841e-07
-7.470096e-09
5.8559573e-07
-9.0263197e-09
5.8678866e-07
-1.0637368e-08
5.8828906e-07
-1.2310509e-08
5.9015248e-07
-1.4052223e-08
5.9245272e-07
-1.5867779e-08
5.9528829e-07
-1.7759759e-08
5.9878856e-07
-1.9731674e-08
6.0312527e-07
-2.1841377e-08
6.0869506e-07
-2.4310028e-08
6.1699042e-07
-2.703022e-08
6.3076077e-07
-2.7420396e-08
6.4336165e-07
-2.0345399e-08
6.1092224e-07
-6.6137857e-09
4.5540992e-07
1.5978228e-07
4.0321955e-09
1.2579948e-07
1.7462436e-08
3.9748181e-07
2.7877002e-08
5.912819e-07
2.9608266e-08
6.5448438e-07
2.710733e-08
6.4634813e-07
2.4442514e-08
6.2809498e-07
2.2284806e-08
6.1664165e-07
2.033472e-08
6.0960323e-07
1.8457854e-08
6.043511e-07
1.6641598e-08
6.0011915e-07
1.4887653e-08
5.9667873e-07
1.3194125e-08
5.9387525e-07
1.1557321e-08
5.9158726e-07
9.97259e-09
5.8972358e-07
8.4344626e-09
5.8821587e-07
6.9368042e-09
5.8701255e-07
5.4729772e-09
5.8607467e-07
4.035985e-09
5.8537321e-07
2.6185901e-09
5.8488729e-07
1.2134072e-09
5.8460289e-07
-1.8702176e-10
5.8451206e-07
-1.5901636e-09
5.8461251e-07
-3.0034343e-09
5.8490753e-07
-4.4341327e-09
5.8540617e-07
-5.8893602e-09
5.8612364e-07
-7.3759194e-09
5.8708229e-07
-8.9001867e-09
5.8831293e-07
-1.0467958e-08
5.8985683e-07
-1.208427e-08
5.9176879e-07
-1.3753233e-08
5.9412168e-07
-1.5477586e-08
5.9701264e-07
-1.7257517e-08
6.0056849e-07
-1.9097712e-08
6.0496546e-07
-2.1066341e-08
6.1066369e-07
-2.3363355e-08
6.1928743e-07
-2.5707486e-08
6.331049e-07
-2.5407033e-08
6.430612e-07
-1.8052802e-08
6.0356801e-07
-5.428082e-09
4.427852e-07
1.543542e-07
3.4282575e-09
1.2237168e-07
1.5555987e-08
3.8535506e-07
2.584307e-08
5.8099557e-07
2.8238526e-08
6.5208911e-07
2.6194061e-08
6.4839253e-07
2.3695326e-08
6.3059366e-07
2.164692e-08
6.1869005e-07
1.9813311e-08
6.1143684e-07
1.8045515e-08
6.0611889e-07
1.6322905e-08
6.0184176e-07
1.4647374e-08
5.9835426e-07
1.3018473e-08
5.9550415e-07
1.1434008e-08
5.9317173e-07
9.8909049e-09
5.9126668e-07
8.3853073e-09
5.8972147e-07
6.9126676e-09
5.8848519e-07
5.4678798e-09
5.8751945e-07
4.0454134e-09
5.8679568e-07
2.6394353e-09
5.8629327e-07
1.2439166e-09
5.8599841e-07
-1.4727262e-10
5.8590325e-07
-1.540277e-09
5.8600551e-07
-2.9411727e-09
5.8630843e-07
-4.3558769e-09
5.8682087e-07
-5.7900489e-09
5.8755781e-07
-7.2489737e-09
5.8854122e-07
-8.7374282e-09
5.8980139e-07
-1.0259536e-08
5.9137894e-07
-1.1818617e-08
5.9332787e-07
-1.3417053e-08
5.9572012e-07
-1.505585e-08
5.9865144e-07
-1.6733966e-08
6.022466e-07
-1.8459001e-08
6.066905e-07
-2.0308232e-08
6.1251292e-07
-2.2450733e-08
6.2142993e-07
-2.4445204e-08
6.3509937e-07
-2.3567703e-08
6.4218369e-07
-1.6095272e-08
5.9609558e-07
-4.5191932e-09
4.3120912e-07
1.4983501e-07
2.9875649e-09
1.1938467e-07
1.3963447e-08
3.7438034e-07
2.4021151e-08
5.7093879e-07
2.6952399e-08
6.4915815e-07
2.5330852e-08
6.5001402e-07
2.2988199e-08
6.3293625e-07
2.1029016e-08
6.2064922e-07
1.929229e-08
6.1317357e-07
1.7619743e-08
6.0779144e-07
1.5981675e-08
6.0347983e-07
1.437897e-08
5.9995697e-07
1.2811934e-08
5.9707118e-07
1.1279312e-08
5.9470435e-07
9.7791189e-09
5.9276688e-07
8.3086932e-09
5.911919e-07
6.8647353e-09
5.8992915e-07
5.4433951e-09
5.8894079e-07
4.0403841e-09
5.8819869e-07
2.6510902e-09
5.8768257e-07
1.2706851e-09
5.8737881e-07
-1.0577306e-10
5.8727971e-07
-1.4832427e-09
5.8738298e-07
-2.8666029e-09
5.8769179e-07
-4.2605525e-09
5.8821482e-07
-5.6695025e-09
5.8896676e-07
-7.0974588e-09
5.8996917e-07
-8.5478955e-09
5.9125182e-07
-1.0023631e-08
5.9285468e-07
-1.1526718e-08
5.9483096e-07
-1.3058345e-08
5.9725175e-07
-1.4618438e-08
6.0021153e-07
-1.6205696e-08
6.0383386e-07
-1.7831811e-08
6.0831661e-07
-1.9581037e-08
6.1426214e-07
-2.1583923e-08
6.2343282e-07
-2.3256772e-08
6.3677222e-07
-2.190351e-08
6.4083043e-07
-1.4431734e-08
5.886238e-07
-3.8272185e-09
4.206046e-07
1.4600779e-07
2.6612799e-09
1.1672403e-07
1.2625053e-08
3.6441793e-07
2.2388455e-08
5.6117654e-07
2.5748458e-08
6.4579854e-07
2.4517218e-08
6.5124522e-07
2.2323747e-08
6.3512964e-07
2.0438413e-08
6.2253453e-07
1.8781549e-08
6.1483043e-07
1.7191405e-08
6.0938159e-07
1.562894e-08
6.0504229e-07
1.4093088e-08
6.0149282e-07
1.2584383e-08
5.9857989e-07
1.1102097e-08
5.9618663e-07
9.6449409e-09
5.9422403e-07
8.2111099e-09
5.9262573e-07
6.7982568e-09
5.91342e-07
5.4035367e-09
5.9033551e-07
4.023691e-09
5.8957853e-07
2.6551453e-09
5.8905111e-07
1.2941105e-09
5.8873985e-07
-6.3316975e-11
5.8863713e-07
-1.4210555e-09
5.8874072e-07
-2.7829403e-09
5.8905367e-07
-4.1526198e-09
5.895845e-07
-5.5334504e-09
5.9034759e-07
-6.9283867e-09
5.9136411e-07
-8.3398707e-09
5.9266331e-07
-9.7697371e-09
5.9428454e-07
-1.1219149e-08
5.9628037e-07
-1.2688532e-08
5.9872113e-07
-1.4177255e-08
6.0170025e-07
-1.5684534e-08
6.0534114e-07
-1.7226802e-08
6.0985888e-07
-1.8892578e-08
6.1592792e-07
-2.0768305e-08
6.2530854e-07
-2.2147227e-08
6.3815114e-07
-2.0405682e-08
6.3908889e-07
-1.3019649e-08
5.8123777e-07
-3.3017523e-09
4.1088671e-07
1.4270603e-07
2.4136622e-09
1.1431111e-07
1.1490872e-08
3.5534232e-07
2.0921382e-08
5.5174741e-07
2.4621644e-08
6.4209881e-07
2.3749892e-08
6.5211695e-07
2.170116e-08
6.3717828e-07
1.9878547e-08
6.2435711e-07
1.8287284e-08
6.164217e-07
1.6768035e-08
6.1090084e-07
1.5272804e-08
6.0653753e-07
1.3797876e-08
6.0296775e-07
1.2343621e-08
6.0003414e-07
1.0909535e-08
5.9762072e-07
9.4947381e-09
5.9563883e-07
8.0980065e-09
5.9402246e-07
6.7176987e-09
5.9272231e-07
5.3517561e-09
5.9170145e-07
3.9977558e-09
5.9093253e-07
2.6529881e-09
5.9039588e-07
1.3145443e-09
5.9007829e-07
-2.0589816e-11
5.8997227e-07
-1.3554422e-09
5.9007557e-07
-2.6929556e-09
5.9039119e-07
-4.0358932e-09
5.9092744e-07
-5.3867404e-09
5.9169844e-07
-6.7476084e-09
5.9272498e-07
-8.120146e-09
5.9403584e-07
-9.5054763e-09
5.9566987e-07
-1.0904176e-08
5.9767907e-07
-1.2316246e-08
6.001332e-07
-1.3740895e-08
6.031249e-07
-1.5178447e-08
6.0677869e-07
-1.6650276e-08
6.1133071e-07
-1.8246146e-08
6.1752379e-07
-2.0004763e-08
6.2706716e-07
-2.1115926e-08
6.3926231e-07
-1.9060103e-08
6.3703306e-07
-1.1818812e-08
5.7399648e-07
-2.9017855e-09
4.0196968e-07
1.3980425e-07
2.2193316e-09
1.1209265e-07
1.0520428e-08
3.470431e-07
1.9597819e-08
5.4267169e-07
2.356532e-08
6.38132e-07
2.3024295e-08
6.5265798e-07
2.1117627e-08
6.3908484e-07
1.9350212e-08
6.2612449e-07
1.7812971e-08
6.1795894e-07
1.63546e-08
6.1235921e-07
1.4919028e-08
6.079731e-07
1.3499414e-08
6.0438736e-07
1.209567e-08
6.0143789e-07
1.0707315e-08
5.9900907e-07
9.3336655e-09
5.9701248e-07
7.9738684e-09
5.9538226e-07
6.6267872e-09
5.9406939e-07
5.2909632e-09
5.9303728e-07
3.9646377e-09
5.9225886e-07
2.645807e-09
5.9171471e-07
1.3322943e-09
5.913918e-07
2.1830589e-11
5.9128273e-07
-1.2878617e-09
5.9138526e-07
-2.5989807e-09
5.9170231e-07
-3.9135589e-09
5.9224201e-07
-5.2333783e-09
5.9301826e-07
-6.5598908e-09
5.9405149e-07
-7.8941549e-09
5.9537011e-07
-9.2368043e-09
5.9701252e-07
-1.0588067e-08
5.9903033e-07
-1.1947766e-08
6.014929e-07
-1.3315252e-08
6.0449239e-07
-1.4692376e-08
6.0815582e-07
-1.6105279e-08
6.1274361e-07
-1.7641891e-08
6.190604e-07
-1.9291269e-08
6.2871654e-07
-2.0158736e-08
6.4012977e-07
-1.7850451e-08
6.3472478e-07
-1.0793313e-08
5.6693934e-07
-2.594864e-09
3.9377123e-07
1.3720938e-07
2.0608015e-09
1.1003287e-07
9.6815901e-09
3.394245e-07
1.8398179e-08
5.339571e-07
2.2572551e-08
6.3395852e-07
2.2335514e-08
6.5289508e-07
2.0569363e-08
6.4085087e-07
1.885253e-08
6.2784127e-07
1.7360179e-08
6.1945128e-07
1.5954149e-08
6.1376524e-07
1.4571543e-08
6.093557e-07
1.3202107e-08
6.0575679e-07
1.1845073e-08
6.0279492e-07
1.0499852e-08
6.0035429e-07
9.165815e-09
5.9834651e-07
7.8423185e-09
5.9670575e-07
6.5285733e-09
5.9538313e-07
5.2235665e-09
5.9434229e-07
3.9260562e-09
5.9355637e-07
2.6346041e-09
5.9300616e-07
1.3476296e-09
5.9267878e-07
6.3476706e-11
5.9256688e-07
-1.2195142e-09
5.9266825e-07
-2.5029311e-09
5.9298572e-07
-3.7882161e-09
5.935273e-07
-5.076596e-09
5.9430664e-07
-6.3690218e-09
5.9534392e-07
-7.6661291e-09
5.9666721e-07
-8.9682386e-09
5.9831463e-07
-1.0275407e-08
6.003375e-07
-1.1587457e-08
6.0280495e-07
-1.2904094e-08
6.0580903e-07
-1.4228974e-08
6.094807e-07
-1.5592542e-08
6.1410718e-07
-1.7077931e-08
6.2054579e-07
-1.8624092e-08
6.302627e-07
-1.9269641e-08
6.4077532e-07
-1.6760138e-08
6.3221527e-07
-9.9120523e-09
5.6009125e-07
-2.3558743e-09
3.8621505e-07
1.3485351e-07
1.9263992e-09
1.0810765e-07
8.9492151e-09
3.3240423e-07
1.7305691e-08
5.25603e-07
2.1636806e-08
6.2962853e-07
2.1678867e-08
6.5285315e-07
2.0052275e-08
6.4247732e-07
1.8383652e-08
6.2950982e-07
1.6929189e-08
6.2090574e-07
1.5568347e-08
6.1512609e-07
1.4232896e-08
6.1069116e-07
1.2909038e-08
6.0708065e-07
1.1595167e-08
6.0410879e-07
1.0290501e-08
6.0165896e-07
8.9943686e-09
5.9964265e-07
7.7062266e-09
5.9799389e-07
6.4255092e-09
5.9666385e-07
5.1515247e-09
5.9561627e-07
3.883424e-09
5.9482447e-07
2.620212e-09
5.9426937e-07
1.3607846e-09
5.939382e-07
1.0398017e-10
5.9382369e-07
-1.1513624e-09
5.939236e-07
-2.4063412e-09
5.942407e-07
-3.6619319e-09
5.9478289e-07
-4.9189342e-09
5.9556364e-07
-6.17793e-09
5.9660291e-07
-7.4392674e-09
5.9792855e-07
-8.7030881e-09
5.9957845e-07
-9.9694052e-09
6.0160382e-07
-1.1238161e-08
6.040737e-07
-1.2509566e-08
6.0708043e-07
-1.3789231e-08
6.1076036e-07
-1.5111236e-08
6.1542918e-07
-1.6551193e-08
6.2198574e-07
-1.799867e-08
6.3171017e-07
-1.8441861e-08
6.4121851e-07
-1.5773494e-08
6.2954691e-07
-9.1488639e-09
5.5346662e-07
-2.1658421e-09
3.7923203e-07
1.3268767e-07
1.8085811e-09
1.0630043e-07
8.3037928e-09
3.2591197e-07
1.6306288e-08
5.1760331e-07
2.0752285e-08
6.2518395e-07
2.1050192e-08
6.5255545e-07
1.9562363e-08
6.4396501e-07
1.7941234e-08
6.3113086e-07
1.651946e-08
6.2232749e-07
1.519789e-08
6.1644766e-07
1.3904605e-08
6.1198444e-07
1.2622273e-08
6.0836298e-07
1.1348327e-08
6.0538274e-07
1.0081742e-08
6.0292555e-07
8.8217472e-09
6.0090264e-07
7.5678209e-09
5.9924782e-07
6.3195292e-09
5.9791214e-07
5.0764026e-09
5.968594e-07
3.8378825e-09
5.9606299e-07
2.6033137e-09
5.9550394e-07
1.3719647e-09
5.9516955e-07
1.430642e-10
5.9505259e-07
-1.0841548e-09
5.9515081e-07
-2.3104061e-09
5.9546695e-07
-3.5363056e-09
5.9600879e-07
-4.7623334e-09
5.9678967e-07
-5.9888101e-09
5.9782939e-07
-7.2159018e-09
5.9915564e-07
-8.4436709e-09
6.0080622e-07
-9.6721744e-09
6.0283232e-07
-1.0901549e-08
6.0530308e-07
-1.2132613e-08
6.0831149e-07
-1.3372979e-08
6.1200073e-07
-1.4659553e-08
6.1671576e-07
-1.6058006e-08
6.233842e-07
-1.7410198e-08
6.3306237e-07
-1.7668577e-08
6.4147689e-07
-1.4876399e-08
6.2675473e-07
-8.4821922e-09
5.4707241e-07
-2.0107656e-09
3.727606e-07
1.306769e-07
1.7026243e-09
1.0459938e-07
7.7302242e-09
3.1988778e-07
1.538829e-08
5.0994854e-07
1.9914018e-08
6.2065995e-07
2.0445952e-08
6.5202384e-07
1.9095943e-08
6.4531487e-07
1.7522751e-08
6.3270395e-07
1.612995e-08
6.2372027e-07
1.484281e-08
6.177348e-07
1.3587442e-08
6.1323981e-07
1.2343105e-08
6.0960732e-07
1.1106176e-08
6.0661967e-07
9.8753552e-09
6.0415637e-07
8.6497461e-09
6.0212825e-07
7.4287934e-09
6.0046877e-07
6.2121285e-09
5.9912881e-07
4.9994274e-09
5.980721e-07
3.7903392e-09
5.9727208e-07
2.5844626e-09
5.9670982e-07
1.3813506e-09
5.9637266e-07
1.8053308e-10
5.962534e-07
-1.0184529e-09
5.963498e-07
-2.2160265e-09
5.9666453e-07
-3.4125341e-09
5.972053e-07
-4.6082247e-09
5.9798536e-07
-5.8032434e-09
5.9902441e-07
-6.9976551e-09
6.0035005e-07
-8.1915133e-09
6.0200008e-07
-9.3849744e-09
6.0402578e-07
-1.0578416e-08
6.0649652e-07
-1.1773325e-08
6.095064e-07
-1.2979281e-08
6.1320668e-07
-1.4235122e-08
6.179716e-07
-1.5594515e-08
6.2474359e-07
-1.6854011e-08
6.3432186e-07
-1.6943381e-08
6.4156626e-07
-1.4056517e-08
6.2386787e-07
-7.894553e-09
5.4091045e-07
-1.8805397e-09
3.6674659e-07
1.2879636e-07
1.6056561e-09
1.0299554e-07
7.2167869e-09
3.1428059e-07
1.4542017e-08
5.0262716e-07
1.9117813e-08
6.1608628e-07
1.9863233e-08
6.5127889e-07
1.8649743e-08
6.4652821e-07
1.712569e-08
6.3422787e-07
1.5759337e-08
6.250866e-07
1.4502704e-08
6.1899143e-07
1.3281652e-08
6.1446086e-07
1.207225e-08
6.1081672e-07
1.0869755e-08
6.0782216e-07
9.6725692e-09
6.0535355e-07
8.4796555e-09
6.0332116e-07
7.2903956e-09
6.0165803e-07
6.104437e-09
6.0031477e-07
4.9215427e-09
5.9925499e-07
3.7415038e-09
5.9845212e-07
2.5641024e-09
5.9788722e-07
1.3891026e-09
5.9754766e-07
2.162606e-10
5.9742625e-07
-9.54658e-10
5.9752072e-07
-2.1238535e-09
5.9783372e-07
-3.2914766e-09
5.9837292e-07
-4.4576168e-09
5.991515e-07
-5.6223108e-09
6.001891e-07
-6.7855814e-09
6.0151332e-07
-7.9475213e-09
6.0316202e-07
-9.1084189e-09
6.0518668e-07
-1.0268916e-08
6.0765702e-07
-1.1431202e-08
6.1066869e-07
-1.2606724e-08
6.143822e-07
-1.3835315e-08
6.1920019e-07
-1.5156948e-08
6.2606522e-07
-1.6325807e-08
6.3549072e-07
-1.6260499e-08
6.4150095e-07
-1.3303299e-08
6.2091066e-07
-7.3719218e-09
5.3497907e-07
-1.7680257e-09
3.6114269e-07
1.2702834e-07
1.5159652e-09
1.0148166e-07
6.7543034e-09
3.0904678e-07
1.3759409e-08
4.9562655e-07
1.8360153e-08
6.114881e-07
1.9299672e-08
6.5034001e-07
1.8220922e-08
6.4760682e-07
1.6747656e-08
6.3570099e-07
1.5406171e-08
6.2642804e-07
1.4176894e-08
6.2022071e-07
1.2987112e-08
6.1565065e-07
1.1810008e-08