/*--------------------------------*- C++ -*----------------------------------*\
  =========                 |
  \\      /  F ield         | OpenFOAM: The Open Source CFD Toolbox
   \\    /   O peration     | Website:  https://openfoam.org
    \\  /    A nd           | Version:  10
     \\/     M anipulation  |
\*---------------------------------------------------------------------------*/
FoamFile
{
    format      ascii;
    class       volScalarField;
    location    "0.18";
    object      T;
}
// * * * * * * * * * * * * * * * * * * * * * * * * * * * * * * * * * * * * * //

dimensions      [0 0 0 1 0 0 0];

internalField   nonuniform List<scalar> 
4000
(
303.10135
299.34291
299.99042
300.00082
299.99993
300
300
300
300
300
300
300
300
300
300
300
300
300
300
300
300
300
300
300
300
300
300
300
300
300
300
300
300
300
300
300
300
300
300
300
309.66343
298.49298
299.77921
300.00184
300.0008
299.99999
300
300
300
300
300
300
300
300
300
300
300
300
300
300
300
300
300
300
300
300
300
300
300
300
300
300
300
300
300
300
300
300
300
300
316.00421
298.68458
299.39221
299.9757
300.00406
300.00025
299.99999
300
300
300
300
300
300
300
300
300
300
300
300
300
300
300
300
300
300
300
300
300
300
300
300
300
300
300
300
300
300
300
300
300
321.74222
299.84591
298.98481
299.89492
300.00716
300.00139
300
299.99999
300
300
300
300
300
300
300
300
300
300
300
300
300
300
300
300
300
300
300
300
300
300
300
300
300
300
300
300
300
300
300
300
326.67098
301.70046
298.71002
299.75314
300.00323
300.00379
300.00017
299.99998
300
300
300
300
300
300
300
300
300
300
300
300
300
300
300
300
300
300
300
300
300
300
300
300
300
300
300
300
300
300
300
300
330.68487
303.94794
298.66329
299.56832
299.98427
300.00697
300.00072
299.99997
299.99999
300
300
300
300
300
300
300
300
300
300
300
300
300
300
300
300
300
300
300
300
300
300
300
300
300
300
300
300
300
300
300
333.77414
306.33062
298.87089
299.37373
299.94518
300.00938
300.00181
300
299.99998
300
300
300
300
300
300
300
300
300
300
300
300
300
300
300
300
300
300
300
300
300
300
300
300
300
300
300
300
300
300
300
336.02154
308.66397
299.30773
299.20387
299.8858
300.0089
300.00346
300.00014
299.99997
300
300
300
300
300
300
300
300
300
300
300
300
300
300
300
300
300
300
300
300
300
300
300
300
300
300
300
300
300
300
300
337.57363
310.83715
299.92406
299.08468
299.81053
300.00353
300.00542
300.00046
299.99996
299.99999
300
300
300
300
300
300
300
300
300
300
300
300
300
300
300
300
300
300
300
300
300
300
300
300
300
300
300
300
300
300
338.60175
312.79741
300.66534
299.03063
299.72638
299.99193
300.00725
300.001
299.99996
299.99998
300
300
300
300
300
300
300
300
300
300
300
300
300
300
300
300
300
300
300
300
300
300
300
300
300
300
300
300
300
300
339.26862
314.53187
301.48293
299.04611
299.6411
299.9737
300.00841
300.00176
300.00001
299.99997
300
300
300
300
300
300
300
300
300
300
300
300
300
300
300
300
300
300
300
300
300
300
300
300
300
300
300
300
300
300
339.70753
316.05178
302.33844
299.12846
299.56172
299.94929
300.00834
300.00268
300.00012
299.99996
300
300
300
300
300
300
300
300
300
300
300
300
300
300
300
300
300
300
300
300
300
300
300
300
300
300
300
300
300
300
340.01509
317.38058
303.20424
299.27097
299.49382
299.91979
300.00662
300.00368
300.0003
299.99996
299.99999
300
300
300
300
300
300
300
300
300
300
300
300
300
300
300
300
300
300
300
300
300
300
300
300
300
300
300
300
300
340.25395
318.54576
304.06191
299.46525
299.44134
299.88665
300.00294
300.00461
300.00056
299.99996
299.99999
300
300
300
300
300
300
300
300
300
300
300
300
300
300
300
300
300
300
300
300
300
300
300
300
300
300
300
300
300
340.46056
319.57414
304.90009
299.70272
299.40675
299.85148
299.99717
300.00535
300.0009
299.99998
299.99998
300
300
300
300
300
300
300
300
300
300
300
300
300
300
300
300
300
300
300
300
300
300
300
300
300
300
300
300
300
340.65365
320.48955
305.7124
299.97544
299.39129
299.81587
299.98931
300.00574
300.0013
300.00003
299.99998
300
300
300
300
300
300
300
300
300
300
300
300
300
300
300
300
300
300
300
300
300
300
300
300
300
300
300
300
300
340.84127
321.31201
306.49573
300.27648
299.3953
299.78129
299.97951
300.00567
300.00173
300.0001
299.99997
300
300
300
300
300
300
300
300
300
300
300
300
300
300
300
300
300
300
300
300
300
300
300
300
300
300
300
300
300
341.02572
322.05772
307.24904
300.59991
299.41852
299.74901
299.968
300.00504
300.00217
300.00019
299.99997
299.99999
300
300
300
300
300
300
300
300
300
300
300
300
300
300
300
300
300
300
300
300
300
300
300
300
300
300
300
300
341.20665
322.73948
307.97245
300.94081
299.46025
299.72014
299.95508
300.00377
300.00258
300.00031
299.99998
299.99999
300
300
300
300
300
300
300
300
300
300
300
300
300
300
300
300
300
300
300
300
300
300
300
300
300
300
300
300
341.38283
323.36728
308.66675
301.29507
299.51954
299.69556
299.94108
300.00182
300.00292
300.00046
299.99999
299.99999
300
300
300
300
300
300
300
300
300
300
300
300
300
300
300
300
300
300
300
300
300
300
300
300
300
300
300
300
341.55293
323.94885
309.33298
301.65929
299.59529
299.67601
299.92638
299.99916
300.00315
300.00062
300.00001
299.99999
300
300
300
300
300
300
300
300
300
300
300
300
300
300
300
300
300
300
300
300
300
300
300
300
300
300
300
300
341.71598
324.49021
309.97232
302.03065
299.68634
299.66202
299.91133
299.99582
300.00324
300.0008
300.00004
299.99998
300
300
300
300
300
300
300
300
300
300
300
300
300
300
300
300
300
300
300
300
300
300
300
300
300
300
300
300
341.87138
324.99609
310.58596
302.4068
299.79147
299.65402
299.89632
299.9918
300.00316
300.00098
300.00007
299.99999
300
300
300
300
300
300
300
300
300
300
300
300
300
300
300
300
300
300
300
300
300
300
300
300
300
300
300
300
342.01887
325.47029
311.17504
302.78574
299.90951
299.65227
299.88168
299.98718
300.00288
300.00116
300.00012
299.99999
300
300
300
300
300
300
300
300
300
300
300
300
300
300
300
300
300
300
300
300
300
300
300
300
300
300
300
300
342.1585
325.91588
311.74062
303.1658
300.03929
299.65698
299.86775
299.98201
300.00238
300.00132
300.00017
299.99999
299.99999
300
300
300
300
300
300
300
300
300
300
300
300
300
300
300
300
300
300
300
300
300
300
300
300
300
300
300
342.29049
326.33547
312.28373
303.54558
300.17968
299.6682
299.85484
299.97637
300.00165
300.00145
300.00023
300
299.99999
300
300
300
300
300
300
300
300
300
300
300
300
300
300
300
300
300
300
300
300
300
300
300
300
300
300
300
342.41518
326.73123
312.80533
303.92387
300.32962
299.68597
299.84323
299.97036
300.00067
300.00155
300.0003
300.00001
299.99999
300
300
300
300
300
300
300
300
300
300
300
300
300
300
300
300
300
300
300
300
300
300
300
300
300
300
300
342.53297
327.10508
313.30633
304.29965
300.48808
299.7102
299.83319
299.96408
299.99944
300.0016
300.00037
300.00002
299.99999
300
300
300
300
300
300
300
300
300
300
300
300
300
300
300
300
300
300
300
300
300
300
300
300
300
300
300
342.64427
327.45869
313.78758
304.67205
300.65409
299.74081
299.82492
299.95762
299.99797
300.00159
300.00044
300.00003
299.99999
300
300
300
300
300
300
300
300
300
300
300
300
300
300
300
300
300
300
300
300
300
300
300
300
300
300
300
342.74948
327.79351
314.24989
305.04033
300.82675
299.77761
299.81863
299.9511
299.99626
300.00151
300.00051
300.00005
299.99999
300
300
300
300
300
300
300
300
300
300
300
300
300
300
300
300
300
300
300
300
300
300
300
300
300
300
300
342.84899
328.11086
314.69403
305.40385
301.0052
299.82043
299.81448
299.94462
299.99432
300.00137
300.00058
300.00007
300
300
300
300
300
300
300
300
300
300
300
300
300
300
300
300
300
300
300
300
300
300
300
300
300
300
300
300
342.94313
328.41189
315.12071
305.76207
301.18862
299.86904
299.81263
299.93829
299.99218
300.00114
300.00063
300.0001
300
300
300
300
300
300
300
300
300
300
300
300
300
300
300
300
300
300
300
300
300
300
300
300
300
300
300
300
343.03219
328.69759
315.5306
306.11454
301.37626
299.92317
299.81317
299.93223
299.98985
300.00082
300.00068
300.00012
300
300
300
300
300
300
300
300
300
300
300
300
300
300
300
300
300
300
300
300
300
300
300
300
300
300
300
300
343.11642
328.96886
315.92433
306.46084
301.56741
299.98258
299.8162
299.92652
299.98737
300.00042
300.00071
300.00015
300.00001
300
300
300
300
300
300
300
300
300
300
300
300
300
300
300
300
300
300
300
300
300
300
300
300
300
300
300
343.19603
329.22647
316.30246
306.80063
301.7614
300.04697
299.82179
299.92127
299.98476
299.99992
300.00072
300.00018
300.00001
300
300
300
300
300
300
300
300
300
300
300
300
300
300
300
300
300
300
300
300
300
300
300
300
300
300
300
343.27117
329.47105
316.66551
307.1336
301.9576
300.11604
299.82998
299.91657
299.98205
299.99934
300.00071
300.0002
300.00002
300
300
300
300
300
300
300
300
300
300
300
300
300
300
300
300
300
300
300
300
300
300
300
300
300
300
300
343.34197
329.70315
317.01393
307.45949
302.15542
300.1895
299.84078
299.91251
299.97927
299.99866
300.00067
300.00023
300.00003
300
300
300
300
300
300
300
300
300
300
300
300
300
300
300
300
300
300
300
300
300
300
300
300
300
300
300
343.40851
329.92321
317.34812
307.77803
302.35429
300.26703
299.85421
299.90916
299.97647
299.9979
300.00061
300.00025
300.00004
300
300
300
300
300
300
300
300
300
300
300
300
300
300
300
300
300
300
300
300
300
300
300
300
300
300
300
343.47083
330.13156
317.66842
308.08901
302.55368
300.34831
299.87025
299.90661
299.97368
299.99706
300.00052
300.00027
300.00004
300
300
300
300
300
300
300
300
300
300
300
300
300
300
300
300
300
300
300
300
300
300
300
300
300
300
300
343.52895
330.32846
317.97512
308.39219
302.75309
300.43303
299.88886
299.90491
299.97094
299.99615
300.0004
300.00028
300.00005
300
300
300
300
300
300
300
300
300
300
300
300
300
300
300
300
300
300
300
300
300
300
300
300
300
300
300
343.58283
330.51404
318.26841
308.68736
302.95201
300.52085
299.90999
299.90413
299.96828
299.99517
300.00025
300.00029
300.00006
300
300
300
300
300
300
300
300
300
300
300
300
300
300
300
300
300
300
300
300
300
300
300
300
300
300
300
343.63245
330.68838
318.54843
308.9743
303.14999
300.61145
299.93359
299.90431
299.96575
299.99413
300.00007
300.0003
300.00007
300.00001
300
300
300
300
300
300
300
300
300
300
300
300
300
300
300
300
300
300
300
300
300
300
300
300
300
300
343.67773
330.85142
318.81526
309.25278
303.34656
300.7045
299.95958
299.9055
299.96338
299.99305
299.99985
300.00029
300.00008
300.00001
300
300
300
300
300
300
300
300
300
300
300
300
300
300
300
300
300
300
300
300
300
300
300
300
300
300
343.71861
331.00308
319.06889
309.52257
303.54129
300.79967
299.98786
299.90773
299.9612
299.99193
299.9996
300.00028
300.00009
300.00001
300
300
300
300
300
300
300
300
300
300
300
300
300
300
300
300
300
300
300
300
300
300
300
300
300
300
343.75499
331.14315
319.30924
309.78338
303.73372
300.89662
300.01833
299.91102
299.95925
299.99078
299.99931
300.00025
300.0001
300.00002
300
300
300
300
300
300
300
300
300
300
300
300
300
300
300
300
300
300
300
300
300
300
300
300
300
300
343.78681
331.2714
319.53614
310.03495
303.92343
300.99503
300.05089
299.91539
299.95757
299.98962
299.999
300.00022
300.0001
300.00002
300
300
300
300
300
300
300
300
300
300
300
300
300
300
300
300
300
300
300
300
300
300
300
300
300
300
343.81404
331.38753
319.74936
310.27695
304.10999
301.09454
300.08539
299.92086
299.95618
299.98847
299.99866
300.00018
300.00011
300.00002
300
300
300
300
300
300
300
300
300
300
300
300
300
300
300
300
300
300
300
300
300
300
300
300
300
300
343.83666
331.49127
319.94858
310.50904
304.29296
301.19483
300.12172
299.92741
299.95512
299.98734
299.99829
300.00012
300.00011
300.00002
300
300
300
300
300
300
300
300
300
300
300
300
300
300
300
300
300
300
300
300
300
300
300
300
300
300
343.85472
331.58232
320.13346
310.73083
304.47191
301.29555
300.15971
299.93505
299.9544
299.98623
299.9979
300.00006
300.00011
300.00003
300
300
300
300
300
300
300
300
300
300
300
300
300
300
300
300
300
300
300
300
300
300
300
300
300
300
343.86835
331.66048
320.30357
310.94192
304.64638
301.39635
300.19922
299.94376
299.95405
299.98517
299.99749
299.99998
300.00011
300.00003
300
300
300
300
300
300
300
300
300
300
300
300
300
300
300
300
300
300
300
300
300
300
300
300
300
300
343.87774
331.72568
320.45851
311.14185
304.81595
301.49688
300.24009
299.9535
299.9541
299.98417
299.99707
299.99989
300.0001
300.00003
300
300
300
300
300
300
300
300
300
300
300
300
300
300
300
300
300
300
300
300
300
300
300
300
300
300
343.8832
331.77799
320.59788
311.33016
304.98015
301.5968
300.28215
299.96426
299.95455
299.98325
299.99663
299.99979
300.0001
300.00004
300.00001
300
300
300
300
300
300
300
300
300
300
300
300
300
300
300
300
300
300
300
300
300
300
300
300
300
343.88509
331.81775
320.72136
311.50638
305.13852
301.69576
300.32521
299.97599
299.95542
299.98241
299.99619
299.99968
300.00008
300.00004
300.00001
300
300
300
300
300
300
300
300
300
300
300
300
300
300
300
300
300
300
300
300
300
300
300
300
300
343.88388
331.84553
320.82875
311.67006
305.29063
301.7934
300.36909
299.98865
299.95672
299.98167
299.99574
299.99956
300.00007
300.00004
300.00001
300
300
300
300
300
300
300
300
300
300
300
300
300
300
300
300
300
300
300
300
300
300
300
300
300
343.88009
331.86221
320.92004
311.82078
305.43602
301.88938
300.41361
300.00217
299.95846
299.98104
299.9953
299.99942
300.00005
300.00004
300.00001
300
300
300
300
300
300
300
300
300
300
300
300
300
300
300
300
300
300
300
300
300
300
300
300
300
343.8743
331.86896
320.99547
311.95822
305.57429
301.98336
300.45858
300.01651
299.96063
299.98053
299.99486
299.99929
300.00002
300.00004
300.00001
300
300
300
300
300
300
300
300
300
300
300
300
300
300
300
300
300
300
300
300
300
300
300
300
300
343.86707
331.86716
321.05555
312.08216
305.70504
302.07502
300.50381
300.0316
299.96323
299.98015
299.99444
299.99914
300
300.00004
300.00001
300
300
300
300
300
300
300
300
300
300
300
300
300
300
300
300
300
300
300
300
300
300
300
300
300
343.85898
331.85843
321.10112
312.19255
305.82797
302.16405
300.54911
300.04736
299.96626
299.97992
299.99404
299.99899
299.99997
300.00003
300.00001
300
300
300
300
300
300
300
300
300
300
300
300
300
300
300
300
300
300
300
300
300
300
300
300
300
343.85053
331.84445
321.13335
312.2895
305.9428
302.25018
300.5943
300.06373
299.96971
299.97983
299.99366
299.99883
299.99993
300.00003
300.00001
300
300
300
300
300
300
300
300
300
300
300
300
300
300
300
300
300
300
300
300
300
300
300
300
300
343.84216
331.82695
321.15372
312.37339
306.04939
302.33314
300.63919
300.08063
299.97356
299.97989
299.9933
299.99867
299.99989
300.00003
300.00001
300
300
300
300
300
300
300
300
300
300
300
300
300
300
300
300
300
300
300
300
300
300
300
300
300
343.83421
331.80754
321.16396
312.44482
306.14769
302.41273
300.68363
300.09798
299.97779
299.98011
299.99298
299.99851
299.99985
300.00002
300.00001
300
300
300
300
300
300
300
300
300
300
300
300
300
300
300
300
300
300
300
300
300
300
300
300
300
343.82691
331.78768
321.16602
312.50462
306.23775
302.48879
300.72746
300.11571
299.9824
299.98048
299.9927
299.99835
299.99981
300.00001
300.00001
300
300
300
300
300
300
300
300
300
300
300
300
300
300
300
300
300
300
300
300
300
300
300
300
300
343.82038
331.76856
321.16194
312.55389
306.31981
302.56122
300.77055
300.13375
299.98736
299.98102
299.99245
299.9982
299.99976
300.00001
300.00001
300
300
300
300
300
300
300
300
300
300
300
300
300
300
300
300
300
300
300
300
300
300
300
300
300
343.81466
331.75108
321.15375
312.59389
306.39419
302.62995
300.81276
300.15201
299.99264
299.98171
299.99225
299.99804
299.99971
300
300.00001
300
300
300
300
300
300
300
300
300
300
300
300
300
300
300
300
300
300
300
300
300
300
300
300
300
343.80966
331.73579
321.14339
312.62607
306.46138
302.695
300.85402
300.17043
299.99822
299.98257
299.99209
299.99789
299.99966
299.99999
300.00001
300
300
300
300
300
300
300
300
300
300
300
300
300
300
300
300
300
300
300
300
300
300
300
300
300
343.80522
331.72293
321.13254
312.65194
306.52197
302.75643
300.89423
300.18894
300.00407
299.98357
299.99199
299.99775
299.99961
299.99997
300.00001
300
300
300
300
300
300
300
300
300
300
300
300
300
300
300
300
300
300
300
300
300
300
300
300
300
343.80115
331.71238
321.1226
312.67304
306.57663
302.81439
300.93335
300.20749
300.01018
299.98473
299.99193
299.99761
299.99955
299.99996
300.00001
300
300
300
300
300
300
300
300
300
300
300
300
300
300
300
300
300
300
300
300
300
300
300
300
300
343.79719
331.70377
321.11455
312.69081
306.62613
302.86903
300.97135
300.22602
300.01651
299.98603
299.99192
299.99749
299.9995
299.99995
300.00001
300
300
300
300
300
300
300
300
300
300
300
300
300
300
300
300
300
300
300
300
300
300
300
300
300
343.79308
331.69648
321.10893
312.70657
306.67124
302.92057
301.00821
300.24449
300.02304
299.98748
299.99197
299.99737
299.99944
299.99993
300
300
300
300
300
300
300
300
300
300
300
300
300
300
300
300
300
300
300
300
300
300
300
300
300
300
343.78858
331.68972
321.10585
312.72142
306.71273
302.96928
301.04393
300.26286
300.02975
299.98906
299.99206
299.99727
299.99939
299.99992
300
300
300
300
300
300
300
300
300
300
300
300
300
300
300
300
300
300
300
300
300
300
300
300
300
300
343.78348
331.68263
321.10493
312.73617
306.75133
303.01539
301.07854
300.28109
300.03662
299.99076
299.99221
299.99718
299.99933
299.9999
300
300
300
300
300
300
300
300
300
300
300
300
300
300
300
300
300
300
300
300
300
300
300
300
300
300
343.77762
331.67436
321.10547
312.7513
306.78767
303.05919
301.11207
300.29915
300.04362
299.99259
299.99242
299.9971
299.99928
299.99988
299.99999
300
300
300
300
300
300
300
300
300
300
300
300
300
300
300
300
300
300
300
300
300
300
300
300
300
343.77091
331.6641
321.10641
312.76694
306.82229
303.10093
301.14456
300.31701
300.05073
299.99454
299.99268
299.99704
299.99923
299.99987
299.99999
300
300
300
300
300
300
300
300
300
300
300
300
300
300
300
300
300
300
300
300
300
300
300
300
300
343.76329
331.6512
321.10655
312.78291
306.85554
303.14085
301.17606
300.33467
300.05794
299.99659
299.99298
299.997
299.99918
299.99985
299.99999
300
300
300
300
300
300
300
300
300
300
300
300
300
300
300
300
300
300
300
300
300
300
300
300
300
343.75482
331.63522
321.10457
312.79868
306.88765
303.17916
301.20662
300.3521
300.06523
299.99874
299.99334
299.99697
299.99914
299.99983
299.99998
300
300
300
300
300
300
300
300
300
300
300
300
300
300
300
300
300
300
300
300
300
300
300
300
300
343.74557
331.6159
321.09923
312.81348
306.91863
303.21602
301.23629
300.3693
300.07257
300.00098
299.99375
299.99695
299.99909
299.99981
299.99998
300
300
300
300
300
300
300
300
300
300
300
300
300
300
300
300
300
300
300
300
300
300
300
300
300
343.73568
331.59324
321.08946
312.82635
306.94831
303.2515
301.26511
300.38625
300.07996
300.00331
299.99421
299.99695
299.99905
299.9998
299.99997
300
300
300
300
300
300
300
300
300
300
300
300
300
300
300
300
300
300
300
300
300
300
300
300
300
343.72534
331.56744
321.07445
312.83629
306.97635
303.28561
301.29311
300.40295
300.08737
300.00571
299.9947
299.99696
299.99901
299.99978
299.99997
300
300
300
300
300
300
300
300
300
300
300
300
300
300
300
300
300
300
300
300
300
300
300
300
300
343.71473
331.53888
321.05369
312.84231
307.00228
303.31826
301.32027
300.41938
300.0948
300.00818
299.99525
299.997
299.99898
299.99976
299.99996
300
300
300
300
300
300
300
300
300
300
300
300
300
300
300
300
300
300
300
300
300
300
300
300
300
343.70406
331.5081
321.02703
312.84357
307.02558
303.34927
301.34652
300.43551
300.10223
300.01072
299.99584
299.99705
299.99895
299.99974
299.99996
300
300
300
300
300
300
300
300
300
300
300
300
300
300
300
300
300
300
300
300
300
300
300
300
300
343.69351
331.47571
320.99463
312.8394
307.04574
303.37844
301.37178
300.45129
300.10964
300.01332
299.99647
299.99712
299.99893
299.99973
299.99995
299.99999
300
300
300
300
300
300
300
300
300
300
300
300
300
300
300
300
300
300
300
300
300
300
300
300
343.68327
331.44236
320.95691
312.8294
307.06233
303.40556
301.39597
300.46667
300.11701
300.01599
299.99716
299.99721
299.99891
299.99971
299.99994
299.99999
300
300
300
300
300
300
300
300
300
300
300
300
300
300
300
300
300
300
300
300
300
300
300
300
343.67348
331.4087
320.91452
312.81333
307.07507
303.43051
301.419
300.48162
300.12432
300.01872
299.9979
299.99733
299.99891
299.9997
299.99994
299.99999
300
300
300
300
300
300
300
300
300
300
300
300
300
300
300
300
300
300
300
300
300
300
300
300
343.66427
331.37534
320.8682
312.79113
307.08377
303.45331
301.44092
300.49611
300.13156
300.02149
299.99869
299.99747
299.99891
299.99969
299.99993
299.99999
300
300
300
300
300
300
300
300
300
300
300
300
300
300
300
300
300
300
300
300
300
300
300
300
343.65574
331.34282
320.81878
312.76281
307.08832
303.47405
301.46184
300.5102
300.1387
300.02429
299.99951
299.99763
299.99891
299.99967
299.99993
299.99999
300
300
300
300
300
300
300
300
300
300
300
300
300
300
300
300
300
300
300
300
300
300
300
300
343.64794
331.3116
320.76711
312.72839
307.08854
303.49291
301.482
300.52399
300.14578
300.02709
300.00035
299.9978
299.99892
299.99966
299.99992
299.99999
300
300
300
300
300
300
300
300
300
300
300
300
300
300
300
300
300
300
300
300
300
300
300
300
343.6409
331.28206
320.71403
312.68793
307.08407
303.50996
301.50167
300.53766
300.15282
300.02988
300.00118
299.99796
299.99892
299.99965
299.99992
299.99999
300
300
300
300
300
300
300
300
300
300
300
300
300
300
300
300
300
300
300
300
300
300
300
300
343.63463
331.25448
320.66038
312.64151
307.07429
303.52503
301.52109
300.55141
300.15989
300.03265
300.00198
299.9981
299.99892
299.99964
299.99991
299.99998
300
300
300
300
300
300
300
300
300
300
300
300
300
300
300
300
300
300
300
300
300
300
300
300
343.62912
331.22908
320.60697
312.58934
307.05832
303.53755
301.54025
300.5654
300.16707
300.0354
300.00273
299.99821
299.9989
299.99962
299.9999
299.99998
300
300
300
300
300
300
300
300
300
300
300
300
300
300
300
300
300
300
300
300
300
300
300
300
343.62434
331.20599
320.55463
312.53186
307.03516
303.54649
301.55883
300.57968
300.17445
300.03815
300.00342
299.99827
299.99886
299.99959
299.9999
299.99998
300
300
300
300
300
300
300
300
300
300
300
300
300
300
300
300
300
300
300
300
300
300
300
300
343.62023
331.18529
320.50416
312.46983
307.00388
303.55041
301.57605
300.59408
300.18206
300.04097
300.00409
299.9983
299.9988
299.99956
299.99989
299.99998
300
300
300
300
300
300
300
300
300
300
300
300
300
300
300
300
300
300
300
300
300
300
300
300
343.61676
331.16699
320.45634
312.4044
306.96388
303.54767
301.59073
300.60816
300.18985
300.04389
300.00476
299.99832
299.99874
299.99953
299.99988
299.99998
300
300
300
300
300
300
300
300
300
300
300
300
300
300
300
300
300
300
300
300
300
300
300
300
343.61386
331.15107
320.41188
312.33706
306.9152
303.53673
301.60138
300.62119
300.19766
300.04696
300.00551
299.99835
299.99867
299.99949
299.99986
299.99997
300
300
300
300
300
300
300
300
300
300
300
300
300
300
300
300
300
300
300
300
300
300
300
300
343.61148
331.13745
320.37137
312.26959
306.85864
303.51651
301.60649
300.63226
300.2052
300.05018
300.00638
299.99843
299.99862
299.99946
299.99985
299.99997
300
300
300
300
300
300
300
300
300
300
300
300
300
300
300
300
300
300
300
300
300
300
300
300
343.60958
331.12603
320.33529
312.2039
306.79582
303.48674
301.60481
300.64041
300.21207
300.05349
300.00743
299.99862
299.9986
299.99944
299.99984
299.99997
300
300
300
300
300
300
300
300
300
300
300
300
300
300
300
300
300
300
300
300
300
300
300
300
343.6081
331.11668
320.30393
312.14181
306.72903
303.44806
301.59564
300.64476
300.21782
300.05678
300.00868
299.99893
299.99864
299.99943
299.99984
299.99997
300
300
300
300
300
300
300
300
300
300
300
300
300
300
300
300
300
300
300
300
300
300
300
300
343.60702
331.10923
320.27738
312.08496
306.66109
303.40225
301.57919
300.64489
300.22208
300.0599
300.01009
299.99939
299.99875
299.99944
299.99984
299.99997
300
300
300
300
300
300
300
300
300
300
300
300
300
300
300
300
300
300
300
300
300
300
300
300
343.60631
331.10356
320.25552
312.03424
306.59403
303.35065
301.5555
300.64027
300.2244
300.06266
300.01164
300
299.99893
299.99949
299.99985
299.99997
300
300
300
300
300
300
300
300
300
300
300
300
300
300
300
300
300
300
300
300
300
300
300
300
343.60592
331.09937
320.23856
311.99282
306.53554
303.30208
301.53062
300.6335
300.22534
300.06489
300.01309
300.00064
299.99914
299.99954
299.99986
299.99997
300
300
300
300
300
300
300
300
300
300
300
300
300
300
300
300
300
300
300
300
300
300
300
300
343.60626
331.09657
320.22129
311.9434
306.45504
303.2242
301.48227
300.61436
300.22227
300.06692
300.01523
300.0018
299.99959
299.99967
299.99989
299.99997
300
300
300
300
300
300
300
300
300
300
300
300
300
300
300
300
300
300
300
300
300
300
300
300
)
;

boundaryField
{
    wall
    {
        type            fixedValue;
        value           uniform 350;
    }
    sides
    {
        type            zeroGradient;
    }
    frontAndBack
    {
        type            empty;
    }
    inlet
    {
        type            fixedValue;
        value           uniform 300;
    }
    outlet
    {
        type            zeroGradient;
    }
}


// ************************************************************************* //
