/*--------------------------------*- C++ -*----------------------------------*\
  =========                 |
  \\      /  F ield         | OpenFOAM: The Open Source CFD Toolbox
   \\    /   O peration     | Website:  https://openfoam.org
    \\  /    A nd           | Version:  10
     \\/     M anipulation  |
\*---------------------------------------------------------------------------*/
FoamFile
{
    format      ascii;
    class       volVectorField;
    location    "0.18";
    object      U;
}
// * * * * * * * * * * * * * * * * * * * * * * * * * * * * * * * * * * * * * //

dimensions      [0 1 -1 0 0 0 0];

internalField   nonuniform List<vector> 
4000
(
(0 0.018637299 0.47773164)
(0 0.023509707 0.50886057)
(0 0.0081665902 0.50052522)
(0 0.0056143576 0.50033635)
(0 0.0042543619 0.50025746)
(0 0.0032546833 0.50016898)
(0 0.0025558471 0.50011968)
(0 0.0020543653 0.50009012)
(0 0.0016763978 0.5000698)
(0 0.0013821009 0.50005538)
(0 0.0011471013 0.50004498)
(0 0.00095505967 0.50003732)
(0 0.0007947211 0.50003159)
(0 0.00065810923 0.50002726)
(0 0.00053939504 0.50002397)
(0 0.00043419713 0.50002149)
(0 0.00033912737 0.50001965)
(0 0.00025148308 0.50001832)
(0 0.00016903075 0.50001743)
(0 8.9847695e-05 0.50001692)
(0 1.2199729e-05 0.50001677)
(0 -6.55661e-05 0.50001697)
(0 -0.00014511288 0.50001753)
(0 -0.000228206 0.50001849)
(0 -0.00031682383 0.50001989)
(0 -0.00041328841 0.50002184)
(0 -0.00052043714 0.50002445)
(0 -0.00064186216 0.50002792)
(0 -0.00078225809 0.50003251)
(0 -0.00094795203 0.50003863)
(0 -0.0011477546 0.50004688)
(0 -0.0013943252 0.50005824)
(0 -0.0017064117 0.50007414)
(0 -0.0021143642 0.5000971)
(0 -0.002674099 0.50013482)
(0 -0.0034677345 0.50020239)
(0 -0.0045600578 0.50027146)
(0 -0.0065843035 0.50043368)
(0 -0.017658744 0.50675396)
(0 -0.013589766 0.47975584)
(0 0.037432249 0.4479698)
(0 0.050954854 0.5323261)
(0 0.021968436 0.50804291)
(0 0.016134813 0.50357323)
(0 0.012415218 0.50242316)
(0 0.0095151098 0.50162297)
(0 0.0075198305 0.50115657)
(0 0.006069182 0.50086587)
(0 0.0049639658 0.50066793)
(0 0.0040996472 0.50052892)
(0 0.0034072741 0.50042894)
(0 0.0028398969 0.50035543)
(0 0.0023651398 0.50030053)
(0 0.001959917 0.50025912)
(0 0.0016072663 0.50022776)
(0 0.0012943902 0.5002041)
(0 0.0010113617 0.50018649)
(0 0.00075024057 0.50017382)
(0 0.00050445048 0.50016531)
(0 0.00026831951 0.50016047)
(0 3.6724877e-05 0.50015905)
(0 -0.00019521525 0.50016095)
(0 -0.0004324127 0.50016631)
(0 -0.00068008019 0.50017542)
(0 -0.00094405056 0.50018884)
(0 -0.0012311557 0.50020741)
(0 -0.0015497223 0.50023236)
(0 -0.0019102593 0.50026549)
(0 -0.0023264503 0.50030942)
(0 -0.0028166382 0.50036805)
(0 -0.0034062009 0.50044732)
(0 -0.0041315178 0.5005567)
(0 -0.0050456717 0.50071129)
(0 -0.0062285322 0.50093666)
(0 -0.0078289854 0.50129447)
(0 -0.010122838 0.50191066)
(0 -0.013104257 0.50282533)
(0 -0.017423765 0.50608133)
(0 -0.038756692 0.52526802)
(0 -0.027893564 0.45021797)
(0 0.03988762 0.409822)
(0 0.061426614 0.54930833)
(0 0.031982123 0.52188192)
(0 0.024354038 0.51008064)
(0 0.019192122 0.50658858)
(0 0.014975701 0.50452802)
(0 0.012005367 0.50327129)
(0 0.0097707036 0.50245823)
(0 0.0080354686 0.50190087)
(0 0.0066640129 0.50150845)
(0 0.0055561124 0.5012252)
(0 0.0046422296 0.50101642)
(0 0.0038736234 0.50086024)
(0 0.0032148944 0.5007423)
(0 0.002639705 0.5006529)
(0 0.0021279981 0.50058536)
(0 0.0016640933 0.50053509)
(0 0.0012353667 0.50049887)
(0 0.00083130723 0.50047455)
(0 0.00044281195 0.50046073)
(0 6.163542e-05 0.50045664)
(0 -0.00032008797 0.50046209)
(0 -0.00071027134 0.50047739)
(0 -0.0011172982 0.50050343)
(0 -0.001550518 0.50054176)
(0 -0.0020208301 0.50059476)
(0 -0.0025414372 0.50066592)
(0 -0.0031288771 0.50076032)
(0 -0.0038044841 0.50088537)
(0 -0.0045965032 0.50105197)
(0 -0.005543294 0.50127667)
(0 -0.0066988422 0.50158559)
(0 -0.0081403553 0.50202086)
(0 -0.0099719304 0.50265087)
(0 -0.012366383 0.50361533)
(0 -0.015711695 0.50519955)
(0 -0.019868585 0.50785447)
(0 -0.025182268 0.51641248)
(0 -0.047413318 0.53912782)
(0 -0.030852024 0.4148841)
(0 0.034790771 0.36173291)
(0 0.063836724 0.55456416)
(0 0.03937783 0.53747125)
(0 0.030081123 0.51849269)
(0 0.024110318 0.51197731)
(0 0.019277368 0.50849933)
(0 0.015734078 0.50626403)
(0 0.012952273 0.50475512)
(0 0.010741991 0.50370401)
(0 0.0089665343 0.50295563)
(0 0.0075128686 0.50241051)
(0 0.006301324 0.50200616)
(0 0.005274091 0.50170231)
(0 0.0043879076 0.50147203)
(0 0.0036099521 0.50129697)
(0 0.0029148359 0.50116446)
(0 0.0022824473 0.50106564)
(0 0.0016964205 0.50099436)
(0 0.0011430093 0.50094643)
(0 0.00061022811 0.50091918)
(0 8.717054e-05 0.50091111)
(0 -0.00043659004 0.50092184)
(0 -0.00097154106 0.50095197)
(0 -0.0015287586 0.50100323)
(0 -0.0021205282 0.5010786)
(0 -0.0027610619 0.50118268)
(0 -0.003467405 0.50132215)
(0 -0.0042606416 0.50150672)
(0 -0.0051675578 0.50175038)
(0 -0.0062229396 0.5020736)
(0 -0.0074726623 0.50250687)
(0 -0.0089789646 0.50309718)
(0 -0.010829224 0.50391924)
(0 -0.013130015 0.50508943)
(0 -0.016016993 0.50680726)
(0 -0.01989275 0.50946813)
(0 -0.02472528 0.51427568)
(0 -0.031106947 0.52824727)
(0 -0.050314237 0.54407403)
(0 -0.02843624 0.37238843)
(0 0.027423349 0.31484791)
(0 0.062311993 0.55024266)
(0 0.044610852 0.55146751)
(0 0.033978774 0.52748811)
(0 0.027460846 0.51772241)
(0 0.02245203 0.5129196)
(0 0.018633826 0.50973102)
(0 0.015525415 0.50749205)
(0 0.013003816 0.5058992)
(0 0.010940193 0.50474602)
(0 0.00922316 0.50389512)
(0 0.0077738586 0.50325804)
(0 0.0065322957 0.50277586)
(0 0.0054520397 0.50240839)
(0 0.0044970348 0.50212781)
(0 0.0036388083 0.50191467)
(0 0.0028544086 0.5017553)
(0 0.0021248887 0.5016401)
(0 0.0014341466 0.50156253)
(0 0.00076801406 0.50151836)
(0 0.00011351843 0.50150526)
(0 -0.000541779 0.50152259)
(0 -0.001210386 0.50157134)
(0 -0.0019054573 0.5016542)
(0 -0.0026414797 0.50177585)
(0 -0.0034350415 0.50194344)
(0 -0.0043057783 0.50216739)
(0 -0.0052775843 0.50246256)
(0 -0.0063802192 0.50285023)
(0 -0.0076514677 0.50336102)
(0 -0.009139603 0.50403959)
(0 -0.010907071 0.50495248)
(0 -0.013040717 0.50620249)
(0 -0.015644355 0.50794454)
(0 -0.018805841 0.51040499)
(0 -0.022886696 0.51405586)
(0 -0.028168404 0.5211465)
(0 -0.035698019 0.53932695)
(0 -0.050469427 0.54156034)
(0 -0.024083783 0.33057097)
(0 0.019836938 0.27520458)
(0 0.057986451 0.53975041)
(0 0.047358907 0.56256477)
(0 0.03647317 0.53660431)
(0 0.029631853 0.523507)
(0 0.024671983 0.51740293)
(0 0.020770329 0.51336236)
(0 0.0175062 0.51044363)
(0 0.01481109 0.50832307)
(0 0.012564058 0.50676047)
(0 0.010663574 0.50559125)
(0 0.0090376353 0.50470629)
(0 0.0076286181 0.50403066)
(0 0.0063906525 0.50351215)
(0 0.0052872706 0.50311404)
(0 0.0042889945 0.50281028)
(0 0.0033715862 0.50258235)
(0 0.0025146997 0.50241715)
(0 0.0017008015 0.50230569)
(0 0.00091429443 0.50224211)
(0 0.00014079161 0.5022232)
(0 -0.00063355026 0.50224806)
(0 -0.0014226467 0.50231805)
(0 -0.0022410626 0.5024369)
(0 -0.0031047041 0.50261106)
(0 -0.004031569 0.50285031)
(0 -0.0050426433 0.5031688)
(0 -0.0061630038 0.50358651)
(0 -0.007423211 0.50413164)
(0 -0.0088612045 0.50484411)
(0 -0.010524262 0.50578095)
(0 -0.012470688 0.50702443)
(0 -0.014780705 0.50869773)
(0 -0.017556119 0.51098249)
(0 -0.020850922 0.51412109)
(0 -0.024961377 0.51873173)
(0 -0.030496699 0.52823109)
(0 -0.038617562 0.54872521)
(0 -0.048499683 0.53399423)
(0 -0.019064237 0.29395805)
(0 0.013082167 0.24256421)
(0 0.051794586 0.52520709)
(0 0.047703093 0.57024901)
(0 0.037751133 0.54552437)
(0 0.030844858 0.52928832)
(0 0.02606819 0.52180109)
(0 0.022232942 0.51699694)
(0 0.01894909 0.51347211)
(0 0.016189439 0.51086325)
(0 0.013846164 0.50891044)
(0 0.011832766 0.50743037)
(0 0.01008665 0.506298)
(0 0.0085551843 0.5054256)
(0 0.0071956096 0.50475102)
(0 0.0059731165 0.50422989)
(0 0.0048588765 0.50383029)
(0 0.0038286912 0.50352924)
(0 0.0028618779 0.50331037)
(0 0.0019403378 0.50316233)
(0 0.0010477758 0.50307773)
(0 0.00016903687 0.50305247)
(0 -0.00071051814 0.50308541)
(0 -0.0016056005 0.50317827)
(0 -0.0025315274 0.50333578)
(0 -0.003504877 0.50356607)
(0 -0.0045441667 0.50388144)
(0 -0.0056706477 0.50429947)
(0 -0.0069092474 0.50484481)
(0 -0.0082896843 0.5055517)
(0 -0.0098480424 0.50646795)
(0 -0.01162853 0.5076607)
(0 -0.013683408 0.50922481)
(0 -0.016082191 0.51129824)
(0 -0.018920201 0.51408039)
(0 -0.022228832 0.51784009)
(0 -0.026248829 0.5234698)
(0 -0.031832774 0.53537637)
(0 -0.039743319 0.55589924)
(0 -0.044883065 0.52283972)
(0 -0.01408774 0.26267197)
(0 0.0077690492 0.21555325)
(0 0.04482089 0.50802)
(0 0.04624757 0.57438234)
(0 0.038027631 0.55375035)
(0 0.031280801 0.53495992)
(0 0.026761577 0.52602948)
(0 0.023110292 0.52053707)
(0 0.019914901 0.51648636)
(0 0.01717684 0.51343928)
(0 0.014808873 0.51112783)
(0 0.012742563 0.50935631)
(0 0.010925849 0.50798742)
(0 0.0093128161 0.50692356)
(0 0.0078654861 0.50609482)
(0 0.0065521031 0.5054506)
(0 0.0053456985 0.50495404)
(0 0.0042231497 0.50457838)
(0 0.0031643131 0.50430436)
(0 0.0021512732 0.50411854)
(0 0.0011676924 0.50401212)
(0 0.00019824194 0.5039802)
(0 -0.0007719464 0.50402142)
(0 -0.0017578109 0.50413783)
(0 -0.0027748202 0.50433507)
(0 -0.0038395599 0.50462279)
(0 -0.0049703083 0.50501551)
(0 -0.0061876989 0.50553383)
(0 -0.007515485 0.50620635)
(0 -0.0089813654 0.5070724)
(0 -0.010618151 0.50818615)
(0 -0.012465437 0.50962284)
(0 -0.014568372 0.51148752)
(0 -0.016983164 0.51392908)
(0 -0.019791507 0.51715628)
(0 -0.023009397 0.52148217)
(0 -0.026859182 0.52818495)
(0 -0.032330984 0.5422214)
(0 -0.039383326 0.56050696)
(0 -0.040315426 0.50910884)
(0 -0.0097049416 0.23589228)
(0 0.0040038181 0.19357171)
(0 0.037893864 0.48950154)
(0 0.043677402 0.57524319)
(0 0.037554226 0.5608438)
(0 0.03114534 0.54036012)
(0 0.026905773 0.53001027)
(0 0.023506147 0.52390004)
(0 0.020472961 0.51941016)
(0 0.017820185 0.51598476)
(0 0.015483832 0.51335531)
(0 0.013413567 0.51131998)
(0 0.011568027 0.50973291)
(0 0.0099090375 0.50848945)
(0 0.0084043497 0.50751395)
(0 0.007026121 0.50675102)
(0 0.0057500659 0.50615996)
(0 0.0045548875 0.50571091)
(0 0.003421652 0.50538225)
(0 0.0023332296 0.50515878)
(0 0.0012737891 0.5050305)
(0 0.00022834007 0.50499183)
(0 -0.00081772058 0.50504122)
(0 -0.001879062 0.505181)
(0 -0.0029707884 0.50541757)
(0 -0.0041089391 0.50576191)
(0 -0.0053109448 0.50623037)
(0 -0.0065961429 0.50684606)
(0 -0.0079863605 0.50764079)
(0 -0.009506471 0.5086579)
(0 -0.01118509 0.50995648)
(0 -0.013056101 0.51161784)
(0 -0.01515704 0.51375464)
(0 -0.017530553 0.51652266)
(0 -0.020240826 0.52013297)
(0 -0.023295759 0.5249657)
(0 -0.026937003 0.53274243)
(0 -0.032178105 0.54839164)
(0 -0.037970678 0.56255222)
(0 -0.03540003 0.49382852)
(0 -0.006197127 0.213296)
(0 0.0015498811 0.17615233)
(0 0.031493164 0.47078161)
(0 0.040520761 0.57339123)
(0 0.036546773 0.56659691)
(0 0.030626126 0.54537679)
(0 0.026661121 0.53370298)
(0 0.023533093 0.52702991)
(0 0.020701144 0.5221852)
(0 0.018174621 0.51844723)
(0 0.015910023 0.51554632)
(0 0.013872915 0.51328029)
(0 0.012031846 0.51149853)
(0 0.010356504 0.510092)
(0 0.0088206152 0.5089812)
(0 0.0074006323 0.50810742)
(0 0.0060754237 0.50742711)
(0 0.0048259971 0.50690813)
(0 0.0036350944 0.506527)
(0 0.0024868188 0.50626716)
(0 0.0013662728 0.50611764)
(0 0.00025921551 0.50607232)
(0 -0.00084828689 0.50612948)
(0 -0.0019702291 0.50629168)
(0 -0.0031209371 0.50656597)
(0 -0.0043154726 0.50696434)
(0 -0.0055699665 0.50750462)
(0 -0.0069019861 0.50821185)
(0 -0.0083309407 0.50912025)
(0 -0.0098784206 0.51027611)
(0 -0.011568454 0.51174201)
(0 -0.013428785 0.5136033)
(0 -0.015489501 0.51597744)
(0 -0.017781241 0.519023)
(0 -0.020350993 0.52295102)
(0 -0.023206014 0.52823816)
(0 -0.026626204 0.53704264)
(0 -0.0315354 0.55366)
(0 -0.035876331 0.562322)
(0 -0.030536394 0.47794012)
(0 -0.0035872706 0.19466339)
(0 7.5415602e-05 0.16254769)
(0 0.025863042 0.45262692)
(0 0.037145861 0.56944211)
(0 0.035176193 0.57098722)
(0 0.029863289 0.54996043)
(0 0.026160604 0.53711162)
(0 0.023293463 0.52990929)
(0 0.020675922 0.52478003)
(0 0.018297503 0.52079298)
(0 0.016129789 0.51766792)
(0 0.014151473 0.51520628)
(0 0.012339682 0.51325589)
(0 0.01067132 0.51170552)
(0 0.0091257551 0.51047349)
(0 0.007683712 0.50949902)
(0 0.0063273639 0.50873673)
(0 0.0050402529 0.50815289)
(0 0.0038070701 0.50772273)
(0 0.0026134472 0.50742867)
(0 0.0014457232 0.50725905)
(0 0.00029071118 0.50720732)
(0 -0.00086454776 0.50727164)
(0 -0.0020330674 0.50745475)
(0 -0.0032280893 0.50776417)
(0 -0.004463392 0.50821265)
(0 -0.0057535091 0.50881911)
(0 -0.0071139604 0.50960994)
(0 -0.0085614978 0.51062103)
(0 -0.010114288 0.51190062)
(0 -0.011791839 0.51351343)
(0 -0.013615966 0.51554713)
(0 -0.01560991 0.51812146)
(0 -0.01779432 0.52139463)
(0 -0.020201626 0.52558112)
(0 -0.022845389 0.53128532)
(0 -0.026042836 0.54103303)
(0 -0.030533431 0.55793576)
(0 -0.03339355 0.56021177)
(0 -0.025976253 0.46213276)
(0 -0.0017610711 0.17953471)
(0 -0.00071936968 0.15193445)
(0 0.021099646 0.43546941)
(0 0.033803022 0.56394495)
(0 0.033585505 0.57408768)
(0 0.028957458 0.55409036)
(0 0.02550373 0.54026039)
(0 0.022870847 0.53254864)
(0 0.020464211 0.52718665)
(0 0.018241803 0.52300593)
(0 0.01618418 0.51970052)
(0 0.014280596 0.51707712)
(0 0.01251527 0.51498431)
(0 0.010871284 0.5133102)
(0 0.0093329849 0.51197218)
(0 0.0078850639 0.51090845)
(0 0.0065128985 0.51007264)
(0 0.0052025887 0.50943007)
(0 0.0039408822 0.50895515)
(0 0.0027150961 0.50862964)
(0 0.0015129919 0.5084414)
(0 0.00032263776 0.5083836)
(0 -0.0008677428 0.50845431)
(0 -0.0020699735 0.50865639)
(0 -0.0032960103 0.50899769)
(0 -0.0045581626 0.50949148)
(0 -0.0058692092 0.51015737)
(0 -0.0072425178 0.51102261)
(0 -0.0086921541 0.51212408)
(0 -0.010232961 0.51351108)
(0 -0.011880284 0.51524947)
(0 -0.013650598 0.51742789)
(0 -0.015561088 0.52016648)
(0 -0.017624243 0.5236212)
(0 -0.019861587 0.52801771)
(0 -0.022299211 0.53411327)
(0 -0.025277775 0.54468261)
(0 -0.029287329 0.56120975)
(0 -0.03075384 0.55661697)
(0 -0.021873123 0.44684481)
(0 -0.00056020356 0.16732285)
(0 -0.0010715593 0.14361534)
(0 0.017193813 0.41952335)
(0 0.030647816 0.55735919)
(0 0.031892592 0.57601959)
(0 0.027982655 0.55775896)
(0 0.024763983 0.54317511)
(0 0.022331651 0.53497065)
(0 0.020121607 0.52941094)
(0 0.018053255 0.52508203)
(0 0.016110186 0.52163468)
(0 0.014289756 0.51888027)
(0 0.012581788 0.5166697)
(0 0.010974397 0.51489141)
(0 0.0094561203 0.5134627)
(0 0.0080151524 0.51232154)
(0 0.006639809 0.51142118)
(0 0.0053186239 0.51072654)
(0 0.0040403785 0.5102116)
(0 0.0027941176 0.50985777)
(0 0.0015691088 0.50965261)
(0 0.00035478301 0.50958914)
(0 -0.00085933538 0.50966537)
(0 -0.0020837609 0.50988425)
(0 -0.0033290576 0.51025378)
(0 -0.004605983 0.51078755)
(0 -0.0059255211 0.51150554)
(0 -0.0072989152 0.51243545)
(0 -0.0087376701 0.51361457)
(0 -0.010253561 0.51509262)
(0 -0.011858261 0.51693577)
(0 -0.013563677 0.51923274)
(0 -0.015381842 0.52210273)
(0 -0.017318772 0.52569871)
(0 -0.019389119 0.53026773)
(0 -0.021636357 0.53673365)
(0 -0.024404185 0.54797131)
(0 -0.027898749 0.56352603)
(0 -0.028127721 0.5518996)
(0 -0.018301115 0.43234113)
(0 0.00017374003 0.15748186)
(0 -0.0011547106 0.13703903)
(0 0.014068042 0.40486921)
(0 0.027760265 0.55005933)
(0 0.030185458 0.57693055)
(0 0.026991239 0.56097271)
(0 0.023994289 0.5458797)
(0 0.021727697 0.53720226)
(0 0.019693254 0.53146599)
(0 0.017770151 0.5270245)
(0 0.01593987 0.52346777)
(0 0.014205389 0.52060932)
(0 0.0125607 0.51830321)
(0 0.010997838 0.51643886)
(0 0.0095087235 0.51493403)
(0 0.0080845158 0.51372697)
(0 0.0067161128 0.51277104)
(0 0.0053942642 0.51203111)
(0 0.0041096701 0.51148106)
(0 0.0028530571 0.51110217)
(0 0.0016152 0.51088191)
(0 0.0003869213 0.51081321)
(0 -0.00084091168 0.51089405)
(0 -0.0020774623 0.5111274)
(0 -0.0033318757 0.51152136)
(0 -0.0046133596 0.51208961)
(0 -0.0059311519 0.51285226)
(0 -0.0072944937 0.51383708)
(0 -0.008712553 0.51508142)
(0 -0.010194388 0.51663488)
(0 -0.011748555 0.51856339)
(0 -0.013383223 0.52095512)
(0 -0.015106265 0.52392742)
(0 -0.01691888 0.52763083)
(0 -0.018832734 0.53234482)
(0 -0.020911307 0.53916052)
(0 -0.023479201 0.55089269)
(0 -0.026450112 0.5649674)
(0 -0.025626388 0.5463777)
(0 -0.015271829 0.41876987)
(0 0.00057886686 0.14954906)
(0 -0.0010871535 0.13176585)
(0 0.011611676 0.39149845)
(0 0.025168173 0.54233925)
(0 0.028522876 0.57697498)
(0 0.026016554 0.56375132)
(0 0.023229945 0.54839701)
(0 0.021097448 0.53927188)
(0 0.019214546 0.53336916)
(0 0.017423668 0.52884128)
(0 0.015700245 0.52520188)
(0 0.014050451 0.52226228)
(0 0.012471173 0.51988)
(0 0.010957355 0.5179458)
(0 0.00950353 0.51637822)
(0 0.0081032687 0.51511608)
(0 0.0067496544 0.51411314)
(0 0.0054353839 0.5133345)
(0 0.0041529009 0.51275417)
(0 0.002894506 0.5123535)
(0 0.0016524194 0.51211994)
(0 0.00041882282 0.51204644)
(0 -0.00081409374 0.51213097)
(0 -0.0020541623 0.5123765)
(0 -0.0033091449 0.51279109)
(0 -0.004586765 0.5133884)
(0 -0.0058946283 0.51418846)
(0 -0.0072401571 0.5152189)
(0 -0.0086304652 0.51651677)
(0 -0.010072296 0.51813124)
(0 -0.011571662 0.52012765)
(0 -0.013133811 0.5225932)
(0 -0.014763446 0.52564289)
(0 -0.016458541 0.52942665)
(0 -0.018231072 0.53426708)
(0 -0.020164613 0.54141045)
(0 -0.022544308 0.55345446)
(0 -0.025002425 0.56563858)
(0 -0.02331247 0.54031741)
(0 -0.012755607 0.40619308)
(0 0.00076427166 0.1431303)
(0 -0.00094532967 0.12745025)
(0 0.0097059385 0.37934518)
(0 0.022868058 0.53441958)
(0 0.026939995 0.57629812)
(0 0.025077282 0.56612208)
(0 0.022492118 0.55074767)
(0 0.020467507 0.54120715)
(0 0.018711877 0.53514004)
(0 0.017038244 0.53054334)
(0 0.015413327 0.5268423)
(0 0.013844266 0.5238404)
(0 0.012329793 0.52139834)
(0 0.010866919 0.51940837)
(0 0.0094520908 0.5177899)
(0 0.0080807648 0.51648248)
(0 0.0067478124 0.51544042)
(0 0.0054475876 0.51462923)
(0 0.0041740696 0.5140232)
(0 0.0029209853 0.51360385)
(0 0.0016818952 0.51335874)
(0 0.00045026188 0.51328087)
(0 -0.00078046857 0.5133682)
(0 -0.0020168634 0.51362367)
(0 -0.0032653838 0.51405527)
(0 -0.0045323798 0.51467652)
(0 -0.0058239806 0.51550721)
(0 -0.0071460093 0.51657466)
(0 -0.008503834 0.51791545)
(0 -0.009902297 0.51957813)
(0 -0.01134542 0.52162722)
(0 -0.012836269 0.52414876)
(0 -0.014377274 0.52725532)
(0 -0.015964645 0.53109903)
(0 -0.017613178 0.53605483)
(0 -0.019424365 0.54350093)
(0 -0.021627478 0.55567411)
(0 -0.023597642 0.56564983)
(0 -0.021213972 0.53393049)
(0 -0.010699916 0.39461049)
(0 0.00081026561 0.13789235)
(0 -0.00077673105 0.12383126)
(0 0.0082381756 0.36831265)
(0 0.020839618 0.52646001)
(0 0.025454666 0.57502799)
(0 0.024182159 0.56811464)
(0 0.021791889 0.55294864)
(0 0.01985496 0.54303269)
(0 0.018203959 0.53679834)
(0 0.016632283 0.53214313)
(0 0.015096439 0.52839625)
(0 0.013602587 0.52534711)
(0 0.012150495 0.52285875)
(0 0.010738565 0.52082489)
(0 0.0093645735 0.51916577)
(0 0.0080253915 0.51782169)
(0 0.0067173078 0.51674759)
(0 0.0054360468 0.51590943)
(0 0.0041769037 0.51528191)
(0 0.0029348622 0.51484676)
(0 0.001704691 0.51459173)
(0 0.00048102437 0.51450987)
(0 -0.00074153414 0.51459917)
(0 -0.0019683867 0.51486252)
(0 -0.0032048066 0.51530778)
(0 -0.0044559098 0.51594824)
(0 -0.0057265282 0.51680341)
(0 -0.0070211193 0.51790017)
(0 -0.0083436129 0.51927453)
(0 -0.0096973469 0.52097434)
(0 -0.011084848 0.52306326)
(0 -0.012507631 0.52562607)
(0 -0.013966616 0.52877325)
(0 -0.015457546 0.53266259)
(0 -0.016999738 0.53772829)
(0 -0.018708713 0.54544837)
(0 -0.020746189 0.55757414)
(0 -0.02226226 0.56510633)
(0 -0.019335948 0.52737922)
(0 -0.0090419725 0.38398187)
(0 0.00077335505 0.13356294)
(0 -0.00060934615 0.12071869)
(0 0.0071091965 0.35829218)
(0 0.019054804 0.51857292)
(0 0.024072711 0.57327378)
(0 0.023333583 0.56975842)
(0 0.021133639 0.55501278)
(0 0.019269826 0.54476889)
(0 0.017703431 0.53836235)
(0 0.016219158 0.5336532)
(0 0.014762785 0.5298718)
(0 0.013337889 0.52678711)
(0 0.011944666 0.52426324)
(0 0.010582389 0.52219526)
(0 0.0092496931 0.52050413)
(0 0.00794447 0.5191308)
(0 0.0066640965 0.51803081)
(0 0.0054054013 0.51717065)
(0 0.0041647793 0.51652538)
(0 0.0029382957 0.51607704)
(0 0.0017217809 0.51581354)
(0 0.00051091436 0.51572806)
(0 -0.00069866152 0.51581858)
(0 -0.0019113033 0.51608793)
(0 -0.0031312278 0.51654382)
(0 -0.0043624703 0.5171993)
(0 -0.0056087522 0.51807351)
(0 -0.0068733958 0.51919286)
(0 -0.0081591815 0.52059279)
(0 -0.0094682981 0.52232041)
(0 -0.010802206 0.52443858)
(0 -0.01216138 0.5270309)
(0 -0.013545856 0.53020632)
(0 -0.014952018 0.53413214)
(0 -0.016404672 0.53930584)
(0 -0.018028344 0.54726708)
(0 -0.019910076 0.5591791)
(0 -0.021010674 0.56410308)
(0 -0.017669101 0.52078462)
(0 -0.0077170523 0.37424462)
(0 0.00069195564 0.1299269)
(0 -0.00045809794 0.11797739)
(0 0.0062364183 0.34917449)
(0 0.017483449 0.5108351)
(0 0.02279219 0.57112705)
(0 0.022530122 0.57108153)
(0 0.020517464 0.55694949)
(0 0.018717067 0.54643179)
(0 0.017218341 0.53984815)
(0 0.015808244 0.53508538)
(0 0.014422144 0.53127707)
(0 0.013059804 0.52816564)
(0 0.011721391 0.52561473)
(0 0.01040666 0.5235205)
(0 0.0091147452 0.52180447)
(0 0.0078442408 0.52040811)
(0 0.006593332 0.5192875)
(0 0.0053597139 0.51840961)
(0 0.0041406806 0.51774987)
(0 0.0029332067 0.51729061)
(0 0.001734036 0.51701996)
(0 0.000539759 0.51693116)
(0 -0.00065307115 0.51702225)
(0 -0.0018478943 0.51729595)
(0 -0.0030480098 0.51775982)
(0 -0.0042565281 0.51842665)
(0 -0.0054762431 0.51931521)
(0 -0.0067095578 0.52045146)
(0 -0.0079583614 0.52187024)
(0 -0.0092240006 0.52361805)
(0 -0.01050722 0.525757)
(0 -0.011807866 0.52836967)
(0 -0.013125573 0.53156434)
(0 -0.014458272 0.53552165)
(0 -0.0158366 0.54080342)
(0 -0.017388483 0.5489691)
(0 -0.01912306 0.56051377)
(0 -0.019848267 0.56272313)
(0 -0.016196106 0.51423457)
(0 -0.0066639374 0.36532557)
(0 0.00059124983 0.12681784)
(0 -0.00032945357 0.11551318)
(0 0.0055541026 0.34085595)
(0 0.016096578 0.50329692)
(0 0.021606769 0.56866377)
(0 0.02176832 0.57211013)
(0 0.019940873 0.55876536)
(0 0.018198164 0.54803352)
(0 0.016753344 0.54126942)
(0 0.015405823 0.5364504)
(0 0.014081537 0.53261975)
(0 0.01277558 0.52948805)
(0 0.011487752 0.52691659)
(0 0.010218006 0.52480231)
(0 0.0089657088 0.5230671)
(0 0.0077299118 0.52165284)
(0 0.0065093783 0.52051602)
(0 0.0053024659 0.51962401)
(0 0.0041071877 0.51895261)
(0 0.0029212683 0.51848441)
(0 0.0017422205 0.51820772)
(0 0.00056741223 0.5181159)
(0 -0.00060582116 0.51820697)
(0 -0.0017801332 0.51848361)
(0 -0.0029580438 0.51895319)
(0 -0.0041418896 0.51962825)
(0 -0.0053337072 0.52052723)
(0 -0.0065351749 0.52167562)
(0 -0.007747514 0.52310779)
(0 -0.0089714831 0.52486967)
(0 -0.010207391 0.52702281)
(0 -0.011454765 0.52964893)
(0 -0.012713214 0.53285672)
(0 -0.013982892 0.53684375)
(0 -0.015300101 0.54223429)
(0 -0.016790484 0.55056433)
(0 -0.018385142 0.56160206)
(0 -0.018774243 0.56103728)
(0 -0.014896073 0.50779095)
(0 -0.0058280257 0.35714846)
(0 0.00048698838 0.12410923)
(0 -0.00022474582 0.11326173)
(0 0.005011764 0.33324186)
(0 0.014868058 0.4959896)
(0 0.020508139 0.56594667)
(0 0.021043946 0.57286828)
(0 0.019400036 0.56046485)
(0 0.01771234 0.54958281)
(0 0.016310684 0.54263746)
(0 0.015015838 0.53775768)
(0 0.013745811 0.53390689)
(0 0.012490525 0.53075947)
(0 0.011249149 0.52817233)
(0 0.010021627 0.52604278)
(0 0.0088073858 0.52429293)
(0 0.0076057434 0.5228649)
(0 0.0064158584 0.52171547)
(0 0.0052365819 0.52081237)
(0 0.004066489 0.52013167)
(0 0.00290391 0.5196562)
(0 0.0017469932 0.51937444)
(0 0.00059375712 0.51927983)
(0 -0.0005578053 0.51937042)
(0 -0.0017096869 0.51964879)
(0 -0.0028637584 0.52012217)
(0 -0.0040217228 0.52080288)
(0 -0.0051850136 0.52170902)
(0 -0.0063547533 0.52286572)
(0 -0.007531682 0.52430691)
(0 -0.0087161737 0.52607811)
(0 -0.009908313 0.52824042)
(0 -0.011107539 0.53087502)
(0 -0.012313711 0.53409214)
(0 -0.013529669 0.53810945)
(0 -0.014796817 0.54360905)
(0 -0.016233134 0.55206062)
(0 -0.017693876 0.56246613)
(0 -0.017783996 0.55910493)
(0 -0.013747445 0.50149574)
(0 -0.0051626469 0.34963857)
(0 0.00038838356 0.1217064)
(0 -0.00014244572 0.11117973)
(0 0.004571742 0.32624788)
(0 0.013775172 0.4889308)
(0 0.019487562 0.56302759)
(0 0.020352784 0.57337791)
(0 0.018890629 0.56205081)
(0 0.017257495 0.55108551)
(0 0.015890961 0.54396132)
(0 0.014640526 0.53901531)
(0 0.01341815 0.53514479)
(0 0.012208398 0.53198468)
(0 0.011009589 0.52938539)
(0 0.009821518 0.52724418)
(0 0.0086435556 0.52548322)
(0 0.007475154 0.52404469)
(0 0.0063157246 0.52288558)
(0 0.0051644739 0.52197383)
(0 0.0040204066 0.52128577)
(0 0.0028823329 0.52080442)
(0 0.0017489149 0.5205184)
(0 0.00061870616 0.52042122)
(0 -0.00050975893 0.52051094)
(0 -0.0016379289 0.52079007)
(0 -0.002767145 0.5212657)
(0 -0.0038986027 0.52194995)
(0 -0.0050332668 0.52286064)
(0 -0.0061718468 0.5240226)
(0 -0.0073147532 0.52546942)
(0 -0.0084621327 0.52724633)
(0 -0.0096139987 0.52941416)
(0 -0.010769866 0.5320538)
(0 -0.011930047 0.53527832)
(0 -0.013100327 0.53932803)
(0 -0.014326364 0.54493589)
(0 -0.015713659 0.55346401)
(0 -0.017045474 0.56312616)
(0 -0.016870856 0.55697535)
(0 -0.012729721 0.49537613)
(0 -0.0046292526 0.34272566)
(0 0.00030026961 0.11953971)
(0 -7.9642324e-05 0.10923824)
(0 0.0042066146 0.31980023)
(0 0.012798597 0.4821288)
(0 0.01853675 0.55994955)
(0 0.019691029 0.57365912)
(0 0.018408371 0.5635251)
(0 0.016830863 0.55254523)
(0 0.015493724 0.54524808)
(0 0.014280917 0.54023011)
(0 0.013100502 0.53633891)
(0 0.011931756 0.53316796)
(0 0.010771964 0.53055904)
(0 0.0096206712 0.52840884)
(0 0.0084771307 0.52663944)
(0 0.0073408335 0.52519295)
(0 0.0062113374 0.52402645)
(0 0.0050880955 0.52310804)
(0 0.0039704323 0.5224142)
(0 0.0028575296 0.5219281)
(0 0.0017484578 0.52163849)
(0 0.00064220064 0.52153893)
(0 -0.00046226972 0.52162747)
(0 -0.0015659627 0.52190658)
(0 -0.0026697966 0.52238323)
(0 -0.0037745702 0.52306934)
(0 -0.0048808934 0.52398254)
(0 -0.0059891802 0.5251474)
(0 -0.0070996313 0.5265973)
(0 -0.0082122832 0.52837728)
(0 -0.0093271825 0.53054804)
(0 -0.010444034 0.53319054)
(0 -0.011563744 0.53642197)
(0 -0.012695134 0.54050712)
(0 -0.013887062 0.54622081)
(0 -0.015228457 0.55477907)
(0 -0.016435569 0.56360024)
(0 -0.016027294 0.55468928)
(0 -0.011824353 0.48944857)
(0 -0.0041969021 0.33634549)
(0 0.00022463267 0.11755871)
(0 -3.2966755e-05 0.10741773)
(0 0.0038968067 0.31383509)
(0 0.011922104 0.47558551)
(0 0.017648284 0.55674854)
(0 0.019055456 0.57373046)
(0 0.01794931 0.56488902)
(0 0.016429444 0.55396386)
(0 0.015117882 0.54650312)
(0 0.013937222 0.54140776)
(0 0.01279392 0.537494)
(0 0.011662244 0.53431315)
(0 0.010538284 0.53169628)
(0 0.0094212694 0.52953899)
(0 0.0083103036 0.52776313)
(0 0.0072048543 0.52631063)
(0 0.0061045482 0.52513853)
(0 0.0050090004 0.524215)
(0 0.0039177665 0.52351664)
(0 0.0028303092 0.52302673)
(0 0.0017460157 0.52273407)
(0 0.00066420922 0.52263229)
(0 -0.00041579165 0.52271944)
(0 -0.0014946495 0.52299791)
(0 -0.0025729531 0.5234746)
(0 -0.0036511979 0.52416129)
(0 -0.0047297343 0.52507544)
(0 -0.0058087753 0.52624145)
(0 -0.0068884024 0.52769256)
(0 -0.0079686267 0.52947375)
(0 -0.0090495942 0.53164574)
(0 -0.010131274 0.53428989)
(0 -0.011215271 0.53752878)
(0 -0.012313377 0.54165281)
(0 -0.013476472 0.547468)
(0 -0.014773612 0.55600921)
(0 -0.01585973 0.56390462)
(0 -0.015245734 0.55228036)
(0 -0.011015096 0.48372179)
(0 -0.0038413517 0.33044049)
(0 0.00016167863 0.11572723)
(0 8.6609219e-07 0.1057047)
(0 0.0036285492 0.30829764)
(0 0.011132135 0.46929862)
(0 0.016815748 0.55345484)
(0 0.018443439 0.57360915)
(0 0.01750997 0.56614368)
(0 0.016050268 0.55534202)
(0 0.014761996 0.54773039)
(0 0.013609112 0.54255289)
(0 0.012498824 0.53861407)
(0 0.011400827 0.53542355)
(0 0.010309882 0.53279982)
(0 0.009224851 0.53063677)
(0 0.0081446811 0.52885588)
(0 0.0070687768 0.5273988)
(0 0.0059967791 0.52622246)
(0 0.0049284013 0.52529502)
(0 0.0038633588 0.52459312)
(0 0.0028013208 0.52410012)
(0 0.0017419149 0.52380486)
(0 0.00068472532 0.52370101)
(0 -0.00037066111 0.5237866)
(0 -0.0014246395 0.52406399)
(0 -0.0024775482 0.52454)
(0 -0.003529658 0.5252263)
(0 -0.004581137 0.52614024)
(0 -0.0056320707 0.52730612)
(0 -0.0066824893 0.52875713)
(0 -0.0077324361 0.53053831)
(0 -0.0087821943 0.5327105)
(0 -0.0098320423 0.53535584)
(0 -0.010884359 0.53860349)
(0 -0.011953724 0.54276979)
(0 -0.013091786 0.54868018)
(0 -0.014345227 0.55715697)
(0 -0.015313774 0.56405385)
(0 -0.014519032 0.54977648)
(0 -0.010288017 0.47819918)
(0 -0.0035439854 0.32495978)
(0 0.00011057694 0.11401956)
(0 2.4779431e-05 0.10408931)
(0 0.0033922405 0.30314097)
(0 0.010417362 0.46326305)
(0 0.01603369 0.55009411)
(0 0.017852884 0.57331132)
(0 0.017087385 0.56729026)
(0 0.015690544 0.5566795)
(0 0.014424464 0.54893272)
(0 0.01329592 0.54366931)
(0 0.012215198 0.53970254)
(0 0.011147975 0.53650207)
(0 0.010087572 0.53387209)
(0 0.0090324497 0.53170414)
(0 0.0079814002 0.5299192)
(0 0.006933743 0.52845859)
(0 0.0058890966 0.52727902)
(0 0.0048472244 0.52634857)
(0 0.0038079466 0.5256439)
(0 0.0027710783 0.52514837)
(0 0.0017364241 0.52485088)
(0 0.00070376383 0.52474508)
(0 -0.0003271136 0.524829)
(0 -0.0013564028 0.52510499)
(0 -0.0023842574 0.52557978)
(0 -0.0034107878 0.52626501)
(0 -0.0044360415 0.52717793)
(0 -0.0054600324 0.52834281)
(0 -0.006482788 0.52979287)
(0 -0.007504421 0.53157328)
(0 -0.0085253691 0.53374514)
(0 -0.0095462458 0.53639177)
(0 -0.010570252 0.53964997)
(0 -0.011614486 0.54386164)
(0 -0.012730091 0.54985894)
(0 -0.013939629 0.55822433)
(0 -0.014793939 0.56406111)
(0 -0.01384074 0.54720087)
(0 -0.0096313387 0.47288042)
(0 -0.0032907473 0.31985879)
(0 6.9967278e-05 0.11241738)
(0 4.1226227e-05 0.10256393)
(0 0.0031811918 0.29832494)
(0 0.0097682889 0.457472)
(0 0.015297502 0.54668823)
(0 0.017282144 0.57285213)
(0 0.016679081 0.56833014)
(0 0.015347735 0.55797553)
(0 0.014103645 0.55011203)
(0 0.012996782 0.54476008)
(0 0.011942732 0.54076229)
(0 0.0109038 0.53755119)
(0 0.0098717832 0.53491521)
(0 0.00884471 0.53274288)