/*--------------------------------*- C++ -*----------------------------------*\
  =========                 |
  \\      /  F ield         | OpenFOAM: The Open Source CFD Toolbox
   \\    /   O peration     | Website:  https://openfoam.org
    \\  /    A nd           | Version:  10
     \\/     M anipulation  |
\*---------------------------------------------------------------------------*/
FoamFile
{
    format      ascii;
    class       volVectorField;
    location    "0.18";
    object      U_0;
}
// * * * * * * * * * * * * * * * * * * * * * * * * * * * * * * * * * * * * * //

dimensions      [0 1 -1 0 0 0 0];

internalField   nonuniform List<vector> 
4000
(
(0 0.01863729 0.47773165)
(0 0.023509691 0.50886056)
(0 0.0081665749 0.50052522)
(0 0.0056143425 0.50033635)
(0 0.0042543457 0.50025746)
(0 0.0032546669 0.50016898)
(0 0.0025558311 0.50011968)
(0 0.0020543501 0.50009012)
(0 0.0016763838 0.5000698)
(0 0.0013820884 0.50005538)
(0 0.0011470906 0.50004498)
(0 0.00095505107 0.50003732)
(0 0.00079471485 0.50003159)
(0 0.00065810553 0.50002726)
(0 0.00053939408 0.50002397)
(0 0.00043419907 0.50002149)
(0 0.00033913232 0.50001965)
(0 0.00025149115 0.50001832)
(0 0.00016904199 0.50001743)
(0 8.986213e-05 0.50001692)
(0 1.2217353e-05 0.50001677)
(0 -6.5545316e-05 0.50001697)
(0 -0.00014508902 0.50001753)
(0 -0.00022817917 0.50001849)
(0 -0.0003167942 0.50001989)
(0 -0.00041325618 0.50002184)
(0 -0.00052040252 0.50002445)
(0 -0.00064182539 0.50002792)
(0 -0.00078221953 0.50003251)
(0 -0.00094791199 0.50003863)
(0 -0.0011477135 0.50004688)
(0 -0.0013942835 0.50005824)
(0 -0.0017063699 0.50007414)
(0 -0.0021143229 0.5000971)
(0 -0.0026740588 0.50013482)
(0 -0.0034676966 0.50020239)
(0 -0.0045600235 0.50027146)
(0 -0.0065842712 0.50043368)
(0 -0.017658712 0.50675396)
(0 -0.013589749 0.47975585)
(0 0.037432225 0.44796983)
(0 0.050954804 0.5323261)
(0 0.021968386 0.50804291)
(0 0.016134765 0.50357323)
(0 0.012415167 0.50242316)
(0 0.0095150584 0.50162297)
(0 0.0075197805 0.50115657)
(0 0.0060691344 0.50086587)
(0 0.0049639217 0.50066793)
(0 0.0040996078 0.50052892)
(0 0.0034072403 0.50042894)
(0 0.0028398695 0.50035542)
(0 0.0023651196 0.50030052)
(0 0.0019599047 0.50025911)
(0 0.0016072624 0.50022776)
(0 0.0012943952 0.50020409)
(0 0.0010113761 0.50018649)
(0 0.00075026456 0.50017381)
(0 0.00050448429 0.5001653)
(0 0.00026836323 0.50016047)
(0 3.6778479e-05 0.50015904)
(0 -0.00019515186 0.50016095)
(0 -0.00043233977 0.5001663)
(0 -0.00067999806 0.50017541)
(0 -0.00094395973 0.50018884)
(0 -0.0012310567 0.5002074)
(0 -0.0015496158 0.50023235)
(0 -0.0019101462 0.50026548)
(0 -0.0023263316 0.50030942)
(0 -0.0028165148 0.50036805)
(0 -0.0034060742 0.50044732)
(0 -0.0041313891 0.5005567)
(0 -0.0050455425 0.50071129)
(0 -0.0062284044 0.50093666)
(0 -0.0078288609 0.50129447)
(0 -0.01012272 0.50191066)
(0 -0.01310415 0.50282534)
(0 -0.017423661 0.50608133)
(0 -0.038756595 0.52526802)
(0 -0.027893517 0.45021803)
(0 0.039887584 0.40982208)
(0 0.061426529 0.54930834)
(0 0.03198203 0.52188192)
(0 0.024353953 0.51008064)
(0 0.019192032 0.50658858)
(0 0.014975611 0.50452802)
(0 0.01200528 0.50327128)
(0 0.0097706201 0.50245822)
(0 0.0080353913 0.50190086)
(0 0.0066639436 0.50150844)
(0 0.0055560526 0.50122519)
(0 0.0046421809 0.5010164)
(0 0.0038735871 0.50086023)
(0 0.0032148717 0.50074229)
(0 0.0026396968 0.50065288)
(0 0.0021280053 0.50058535)
(0 0.0016641165 0.50053507)
(0 0.0012354065 0.50049885)
(0 0.00083136395 0.50047453)
(0 0.00044288576 0.50046071)
(0 6.1726303e-05 0.50045662)
(0 -0.00031998019 0.50046207)
(0 -0.00071014709 0.50047737)
(0 -0.001117158 0.50050341)
(0 -0.0015503628 0.50054174)
(0 -0.0020206607 0.50059474)
(0 -0.0025412549 0.5006659)
(0 -0.0031286831 0.50076031)
(0 -0.0038042803 0.50088536)
(0 -0.0045962912 0.50105197)
(0 -0.0055430759 0.50127667)
(0 -0.0066986205 0.50158559)
(0 -0.0081401324 0.50202086)
(0 -0.0099717095 0.50265088)
(0 -0.012366167 0.50361533)
(0 -0.015711488 0.50519957)
(0 -0.019868396 0.50785449)
(0 -0.025182079 0.51641248)
(0 -0.047413148 0.53912785)
(0 -0.030851951 0.41488427)
(0 0.034790727 0.36173307)
(0 0.063836603 0.55456421)
(0 0.039377685 0.53747124)
(0 0.030080993 0.51849269)
(0 0.024110183 0.51197731)
(0 0.019277234 0.50849933)
(0 0.015733947 0.50626402)
(0 0.012952148 0.50475511)
(0 0.010741875 0.50370399)
(0 0.0089664303 0.50295561)
(0 0.0075127786 0.50241048)
(0 0.0063012501 0.50200613)
(0 0.005274035 0.50170228)
(0 0.0043878713 0.50147199)
(0 0.003609937 0.50129694)
(0 0.0029148432 0.50116442)
(0 0.0022824779 0.5010656)
(0 0.0016964752 0.50099432)
(0 0.0011430886 0.50094639)
(0 0.00061033231 0.50091913)
(0 8.7299634e-05 0.50091107)
(0 -0.00043643635 0.5009218)
(0 -0.00097136331 0.50095193)
(0 -0.0015285576 0.50100319)
(0 -0.0021203051 0.50107857)
(0 -0.0027608181 0.50118264)
(0 -0.0034671421 0.50132212)
(0 -0.0042603616 0.5015067)
(0 -0.005167263 0.50175036)
(0 -0.0062226327 0.50207359)
(0 -0.0074723461 0.50250686)
(0 -0.0089786425 0.50309717)
(0 -0.0108289 0.50391924)
(0 -0.013129693 0.50508944)
(0 -0.016016677 0.50680728)
(0 -0.019892446 0.50946816)
(0 -0.024724997 0.51427572)
(0 -0.031106654 0.52824728)
(0 -0.050313991 0.54407412)
(0 -0.028436144 0.37238876)
(0 0.027423299 0.31484816)
(0 0.062311835 0.55024277)
(0 0.044610645 0.5514675)
(0 0.033978588 0.52748811)
(0 0.027460659 0.51772241)
(0 0.022451844 0.5129196)
(0 0.018633645 0.50973101)
(0 0.015525243 0.50749203)
(0 0.013003655 0.50589917)
(0 0.010940048 0.50474598)
(0 0.0092230343 0.50389508)
(0 0.0077737545 0.50325799)
(0 0.0065322158 0.50277581)
(0 0.0054519861 0.50240833)
(0 0.0044970096 0.50212775)
(0 0.0036388131 0.50191461)
(0 0.0028544447 0.50175523)
(0 0.0021249571 0.50164003)
(0 0.0014342481 0.50156246)
(0 0.00076814891 0.50151829)
(0 0.00011368672 0.50150519)
(0 -0.00054157763 0.50152252)
(0 -0.0012101523 0.50157127)
(0 -0.0019051922 0.50165414)
(0 -0.0026411847 0.50177579)
(0 -0.0034347184 0.50194339)
(0 -0.0043054294 0.50216734)
(0 -0.0052772121 0.50246252)
(0 -0.0063798267 0.50285019)
(0 -0.0076510583 0.50336099)
(0 -0.0091391805 0.50403957)
(0 -0.01090664 0.50495247)
(0 -0.013040282 0.50620249)
(0 -0.015643921 0.50794455)
(0 -0.018805414 0.51040502)
(0 -0.022886283 0.51405591)
(0 -0.028168011 0.52114655)
(0 -0.035697604 0.53932697)
(0 -0.0504691 0.54156056)
(0 -0.02408367 0.3305715)
(0 0.019836886 0.27520494)
(0 0.057986256 0.53975062)
(0 0.047358631 0.56256478)
(0 0.036472917 0.53660431)
(0 0.029631605 0.52350701)
(0 0.024671738 0.51740292)
(0 0.02077009 0.51336234)
(0 0.017505973 0.51044359)
(0 0.014810879 0.50832302)
(0 0.012563867 0.50676041)
(0 0.010663406 0.50559118)
(0 0.0090374958 0.50470622)
(0 0.0076285094 0.50403058)
(0 0.0063905777 0.50351206)
(0 0.005287232 0.50311394)
(0 0.0042889942 0.50281018)
(0 0.003371626 0.50258224)
(0 0.0025147809 0.50241705)
(0 0.0017009249 0.50230558)
(0 0.00091446062 0.502242)
(0 0.00014100061 0.50222309)
(0 -0.00063329884 0.50224795)
(0 -0.0014223537 0.50231795)
(0 -0.0022407293 0.50243681)
(0 -0.0031043323 0.50261097)
(0 -0.0040311609 0.50285023)
(0 -0.0050422017 0.50316872)
(0 -0.0061625318 0.50358644)
(0 -0.0074227123 0.50413158)
(0 -0.0088606835 0.50484407)
(0 -0.010523723 0.50578092)
(0 -0.012470137 0.50702441)
(0 -0.014780147 0.50869773)
(0 -0.017555561 0.5109825)
(0 -0.020850371 0.51412113)
(0 -0.024960841 0.51873179)
(0 -0.030496176 0.52823114)
(0 -0.03861701 0.54872526)
(0 -0.048499275 0.53399464)
(0 -0.019064112 0.29395884)
(0 0.013082113 0.24256471)
(0 0.051794357 0.52520744)
(0 0.047702741 0.57024905)
(0 0.0377508 0.54552435)
(0 0.03084454 0.52928832)
(0 0.026067876 0.52180108)
(0 0.022232636 0.51699691)
(0 0.018948799 0.51347206)
(0 0.016189168 0.51086318)
(0 0.013845919 0.50891036)
(0 0.011832551 0.50743027)
(0 0.01008647 0.5062979)
(0 0.008555042 0.50542548)
(0 0.0071955093 0.50475089)
(0 0.0059730611 0.50422975)
(0 0.0048588687 0.50383014)
(0 0.0038287331 0.50352909)
(0 0.0028619712 0.50331022)
(0 0.0019404835 0.50316218)
(0 0.0010479746 0.50307757)
(0 0.00016928881 0.50305232)
(0 -0.00071021346 0.50308526)
(0 -0.0016052441 0.50317812)
(0 -0.0025311208 0.50333564)
(0 -0.0035044223 0.50356594)
(0 -0.0045436665 0.50388131)
(0 -0.0056701053 0.50429936)
(0 -0.0069086667 0.50484471)
(0 -0.0082890696 0.50555162)
(0 -0.0098473989 0.50646788)
(0 -0.011627864 0.50766065)
(0 -0.013682725 0.50922478)
(0 -0.016081498 0.51129824)
(0 -0.018919506 0.51408041)
(0 -0.022228143 0.51784014)
(0 -0.026248153 0.52346987)
(0 -0.0318321 0.53537641)
(0 -0.039742616 0.55589933)
(0 -0.044882576 0.52284039)
(0 -0.014087606 0.26267304)
(0 0.0077689933 0.2155539)
(0 0.044820627 0.50802053)
(0 0.046247137 0.57438243)
(0 0.038027204 0.55375031)
(0 0.031280399 0.53495991)
(0 0.026761184 0.52602946)
(0 0.02310991 0.52053703)
(0 0.019914538 0.51648629)
(0 0.017176502 0.51343919)
(0 0.014808566 0.51112772)
(0 0.012742293 0.50935618)
(0 0.01092562 0.50798727)
(0 0.0093126347 0.5069234)
(0 0.0078653557 0.50609465)
(0 0.0065520273 0.50545041)
(0 0.0053456806 0.50495385)
(0 0.0042231921 0.50457818)
(0 0.0031644178 0.50430416)
(0 0.0021514416 0.50411833)
(0 0.0011679252 0.5040119)
(0 0.00019853942 0.50397999)
(0 -0.00077158473 0.50402121)
(0 -0.0017573862 0.50413763)
(0 -0.0027743342 0.50433487)
(0 -0.0038390151 0.50462261)
(0 -0.0049697078 0.50501533)
(0 -0.0061870465 0.50553367)
(0 -0.0075147852 0.50620621)
(0 -0.0089806233 0.50707228)
(0 -0.010617372 0.50818605)
(0 -0.012464629 0.50962277)
(0 -0.014567542 0.51148748)
(0 -0.01698232 0.51392906)
(0 -0.019790657 0.5171563)
(0 -0.023008553 0.52148223)
(0 -0.026858347 0.52818503)
(0 -0.032330136 0.54222142)
(0 -0.039382462 0.56050714)
(0 -0.040314858 0.50910986)
(0 -0.0097048003 0.23589368)
(0 0.0040037595 0.19357252)
(0 0.037893566 0.48950231)
(0 0.043676881 0.57524337)
(0 0.037553691 0.56084375)
(0 0.03114484 0.54036009)
(0 0.026905289 0.53001024)
(0 0.023505677 0.52389998)
(0 0.020472514 0.51941006)
(0 0.017819769 0.51598464)
(0 0.015483454 0.51335516)
(0 0.013413234 0.51131981)
(0 0.011567744 0.50973272)
(0 0.0099088104 0.50848924)
(0 0.0084041837 0.50751371)
(0 0.0070260204 0.50675077)
(0 0.0057500344 0.5061597)
(0 0.0045549281 0.50571064)
(0 0.0034217671 0.50538198)
(0 0.0023334209 0.5051585)
(0 0.0012740575 0.50503021)
(0 0.00022868577 0.50499155)
(0 -0.00081729801 0.50504094)
(0 -0.0018785638 0.50518072)
(0 -0.0029702166 0.50541731)
(0 -0.0041082965 0.50576166)
(0 -0.005310235 0.50623014)
(0 -0.0065953702 0.50684585)
(0 -0.0079855301 0.5076406)
(0 -0.0095055889 0.50865774)
(0 -0.011184164 0.50995634)
(0 -0.013055137 0.51161773)
(0 -0.015156047 0.51375457)
(0 -0.01752954 0.51652263)
(0 -0.020239805 0.52013299)
(0 -0.023294741 0.52496577)
(0 -0.026935987 0.5327425)
(0 -0.03217706 0.54839165)
(0 -0.037969643 0.56255255)
(0 -0.035399384 0.49382996)
(0 -0.0061969782 0.21329778)
(0 0.0015498193 0.17615331)
(0 0.031492829 0.47078265)
(0 0.040520146 0.57339153)
(0 0.036546116 0.56659685)
(0 0.030625511 0.54537674)
(0 0.026660532 0.53370293)
(0 0.023532523 0.52702983)
(0 0.020700602 0.52218508)
(0 0.018174115 0.51844707)
(0 0.015909563 0.51554613)
(0 0.013872508 0.51328007)
(0 0.012031499 0.51149828)
(0 0.010356224 0.51009172)
(0 0.0088204071 0.5089809)
(0 0.0074005015 0.50810709)
(0 0.0060753746 0.50742677)
(0 0.0048260332 0.50690778)
(0 0.0036352184 0.50652664)
(0 0.0024870328 0.50626679)
(0 0.0013665779 0.50611727)
(0 0.00025961197 0.50607196)
(0 -0.00084779946 0.50612912)
(0 -0.0019696521 0.50629133)
(0 -0.0031202728 0.50656563)
(0 -0.004314724 0.50696402)
(0 -0.0055691378 0.50750432)
(0 -0.0069010821 0.50821157)
(0 -0.0083299674 0.50911999)
(0 -0.0098773848 0.5102759)
(0 -0.011567364 0.51174183)
(0 -0.013427648 0.51360316)
(0 -0.015488328 0.51597735)
(0 -0.017780042 0.51902296)
(0 -0.02034978 0.52295104)
(0 -0.0232048 0.52823822)
(0 -0.026624981 0.53704269)
(0 -0.031534134 0.55366)
(0 -0.035875115 0.56232254)
(0 -0.030535669 0.4779421)
(0 -0.0035871132 0.19466557)
(0 7.5350563e-05 0.16254886)
(0 0.025862666 0.4526283)
(0 0.037145144 0.56944259)
(0 0.035175397 0.57098716)
(0 0.02986254 0.54996034)
(0 0.026159894 0.53711155)
(0 0.023292777 0.52990918)
(0 0.02067527 0.52477987)
(0 0.018296894 0.52079278)
(0 0.016129234 0.51766767)
(0 0.014150981 0.51520599)
(0 0.012339261 0.51325557)
(0 0.010670977 0.51170517)
(0 0.009125497 0.51047311)
(0 0.0076835445 0.50949861)
(0 0.006327292 0.5087363)
(0 0.0050402807 0.50815244)
(0 0.0038072008 0.50772228)
(0 0.0026136831 0.50742821)
(0 0.0014460656 0.50725858)
(0 0.00029116075 0.50720685)
(0 -0.00086399158 0.50727118)
(0 -0.0020324061 0.5074543)
(0 -0.0032273252 0.50776373)
(0 -0.0044625287 0.50821224)
(0 -0.0057525511 0.50881872)
(0 -0.0071129133 0.50960958)
(0 -0.008560368 0.51062071)
(0 -0.010113083 0.51190034)
(0 -0.011790568 0.5135132)
(0 -0.013614639 0.51554694)
(0 -0.015608537 0.51812133)
(0 -0.017792913 0.52139457)
(0 -0.0202002 0.52558113)
(0 -0.022843956 0.53128538)
(0 -0.026041379 0.54103305)
(0 -0.03053192 0.55793577)
(0 -0.033392141 0.56021259)
(0 -0.025975447 0.46213535)
(0 -0.0017609038 0.17953733)
(0 -0.00071943763 0.15193584)
(0 0.021099224 0.43547119)
(0 0.033802193 0.56394565)
(0 0.033584553 0.57408764)
(0 0.028956553 0.55409022)
(0 0.025502879 0.54026028)
(0 0.022870027 0.5325485)
(0 0.020463432 0.52718645)
(0 0.018241076 0.52300567)
(0 0.016183517 0.51970021)
(0 0.014280006 0.51707676)
(0 0.012514763 0.5149839)
(0 0.010870869 0.51330976)
(0 0.0093326678 0.51197171)
(0 0.0078848522 0.51090795)
(0 0.0065127978 0.51007211)
(0 0.0052026037 0.50942952)
(0 0.0039410167 0.50895458)
(0 0.0027153527 0.50862907)
(0 0.0015133724 0.50844082)
(0 0.00032314268 0.50838302)
(0 -0.00086711385 0.50845373)
(0 -0.002069222 0.50865583)
(0 -0.003295139 0.50899715)
(0 -0.0045571753 0.50949096)
(0 -0.0058681109 0.51015688)
(0 -0.0072413145 0.51102216)
(0 -0.0086908532 0.51212367)
(0 -0.010231571 0.51351072)
(0 -0.011878815 0.51524917)
(0 -0.01364906 0.51742764)
(0 -0.015559494 0.52016631)
(0 -0.017622606 0.5236211)
(0 -0.019859923 0.5280177)
(0 -0.022297532 0.53411331)
(0 -0.025276054 0.54468259)
(0 -0.029285547 0.56120978)
(0 -0.030752227 0.55661816)
(0 -0.021872229 0.44684814)
(0 -0.00056002528 0.16732594)
(0 -0.0010716294 0.14361696)
(0 0.017193338 0.41952558)
(0 0.030646863 0.55736018)
(0 0.031891463 0.57601959)
(0 0.027981571 0.55775876)
(0 0.024762967 0.54317496)
(0 0.022330678 0.53497047)
(0 0.020120683 0.52941069)
(0 0.018052393 0.52508171)
(0 0.016109398 0.52163429)
(0 0.014289054 0.51887983)
(0 0.012581182 0.51666921)
(0 0.010973897 0.51489087)
(0 0.0094557341 0.51346211)
(0 0.0080148878 0.51232091)
(0 0.0066396726 0.51142053)
(0 0.005318621 0.51072586)
(0 0.0040405134 0.5102109)
(0 0.0027943935 0.50985706)
(0 0.0015695276 0.5096519)
(0 0.00035534557 0.50958843)
(0 -0.00085862945 0.50966467)
(0 -0.0020829131 0.50988356)
(0 -0.0033280709 0.51025311)
(0 -0.0046048616 0.51078691)
(0 -0.0059242702 0.51150494)
(0 -0.0072975416 0.51243488)
(0 -0.0087361819 0.51361406)
(0 -0.010251968 0.51509217)
(0 -0.011856574 0.51693538)
(0 -0.013561907 0.51923243)
(0 -0.015380003 0.5221025)
(0 -0.017316879 0.52569858)
(0 -0.019387189 0.5302677)
(0 -0.021634401 0.53673366)
(0 -0.024402166 0.54797123)
(0 -0.027896669 0.56352612)
(0 -0.028125888 0.55190126)
(0 -0.018300127 0.4323453)
(0 0.0001739293 0.15748547)
(0 -0.001154782 0.13704092)
(0 0.014067507 0.40487197)
(0 0.027759176 0.55006067)
(0 0.030184133 0.57693061)
(0 0.02698995 0.56097245)
(0 0.023993085 0.5458795)
(0 0.021726549 0.53720202)
(0 0.019692164 0.53146567)
(0 0.017769133 0.52702411)
(0 0.01593894 0.5234673)
(0 0.014204558 0.52060878)
(0 0.01255998 0.51830261)
(0 0.01099724 0.5164382)
(0 0.0095082568 0.51493332)
(0 0.008084189 0.51372622)
(0 0.0067159331 0.51277025)
(0 0.0053942378 0.51203028)
(0 0.0041098017 0.51148021)
(0 0.0028533505 0.51110131)
(0 0.0016156574 0.51088104)
(0 0.00038754385 0.51081234)
(0 -0.00084012431 0.51089319)
(0 -0.0020765117 0.51112656)
(0 -0.0033307649 0.51152055)
(0 -0.004612093 0.51208883)
(0 -0.0059297354 0.51285152)
(0 -0.0072929346 0.5138364)
(0 -0.0087108601 0.51508079)
(0 -0.010192572 0.51663432)
(0 -0.011746627 0.51856291)
(0 -0.013381197 0.52095473)
(0 -0.015104156 0.52392712)
(0 -0.016916704 0.52763065)
(0 -0.018830509 0.53234475)
(0 -0.02090904 0.53916048)
(0 -0.023476848 0.55089254)
(0 -0.026447703 0.56496759)
(0 -0.025624318 0.54637995)
(0 -0.015270736 0.41877501)
(0 0.00057906621 0.14955323)
(0 -0.0010872252 0.13176802)
(0 0.011611074 0.39150181)
(0 0.025166935 0.54234103)
(0 0.028521331 0.57697515)
(0 0.026015031 0.56375101)
(0 0.023228525 0.54839672)
(0 0.0210961 0.53927158)
(0 0.019213267 0.53336877)
(0 0.017422474 0.5288408)
(0 0.015699152 0.52520131)
(0 0.014049473 0.52226163)
(0 0.012470323 0.51987928)
(0 0.010956645 0.51794501)
(0 0.0095029702 0.51637736)
(0 0.0081028689 0.51511517)
(0 0.0067494229 0.51411219)
(0 0.0054353275 0.5133335)
(0 0.004153025 0.51275316)
(0 0.0028948148 0.51235246)
(0 0.0016529156 0.5121189)
(0 0.00041950775 0.5120454)
(0 -0.0008132202 0.51212994)
(0 -0.0020531018 0.51237548)
(0 -0.0033079005 0.5127901)
(0 -0.0045853415 0.51338746)
(0 -0.0058930319 0.51418757)
(0 -0.0072383958 0.51521806)
(0 -0.0086285485 0.516516)
(0 -0.010070235 0.51813056)
(0 -0.011569469 0.52012705)
(0 -0.013131502 0.52259271)
(0 -0.014761037 0.52564251)
(0 -0.016456049 0.5294264)
(0 -0.018228518 0.53426695)
(0 -0.020161997 0.54141034)
(0 -0.022541581 0.55345424)
(0 -0.024999655 0.56563891)
(0 -0.023310143 0.54032035)
(0 -0.012754398 0.40619931)
(0 0.00076447963 0.14313508)
(0 -0.00094540089 0.12745274)
(0 0.0097052626 0.37934922)
(0 0.022866655 0.53442188)
(0 0.026938206 0.57629843)
(0 0.025075495 0.5661217)
(0 0.022490451 0.5507473)
(0 0.020465931 0.54120678)
(0 0.018710384 0.53513957)
(0 0.017036851 0.53054276)
(0 0.01541205 0.52684161)
(0 0.013843121 0.52383962)
(0 0.012328795 0.52139747)
(0 0.01086608 0.51940742)
(0 0.0094514241 0.51778888)
(0 0.0080802805 0.5164814)
(0 0.0067475196 0.51543928)
(0 0.0054474939 0.51462805)
(0 0.0041741812 0.51402199)
(0 0.0029213069 0.51360261)
(0 0.0016824301 0.5133575)
(0 0.00045101162 0.51327963)
(0 -0.00077950394 0.51336697)
(0 -0.0020156855 0.51362246)
(0 -0.0032639958 0.51405409)
(0 -0.0045307867 0.51467539)
(0 -0.005822189 0.51550614)
(0 -0.0071440278 0.51657365)
(0 -0.0085016727 0.51791452)
(0 -0.0098999681 0.51957729)
(0 -0.011342938 0.52162649)
(0 -0.012833648 0.52414815)
(0 -0.014374534 0.52725484)
(0 -0.015961805 0.5310987)
(0 -0.017610257 0.53605463)
(0 -0.019421359 0.54350072)
(0 -0.021624335 0.5556738)
(0 -0.023594476 0.56565037)
(0 -0.021211366 0.53393426)
(0 -0.010698579 0.39461795)
(0 0.00081048047 0.1378978)
(0 -0.00077680105 0.1238341)
(0 0.0082374178 0.36831746)
(0 0.020838033 0.52646293)
(0 0.025452605 0.5750285)
(0 0.024180073 0.56811419)
(0 0.02178994 0.55294815)
(0 0.019853125 0.54303223)
(0 0.018202224 0.53679778)
(0 0.016630664 0.53214243)
(0 0.015094953 0.52839543)
(0 0.013601253 0.52534618)
(0 0.012149329 0.52285771)
(0 0.010737581 0.52082376)
(0 0.0093637846 0.51916456)
(0 0.0080248097 0.51782041)
(0 0.006716943 0.51674624)
(0 0.0054359077 0.51590804)
(0 0.0041769973 0.51528048)
(0 0.0029351938 0.5148453)
(0 0.0017052643 0.51459025)
(0 0.00048184127 0.5145084)
(0 -0.00074047334 0.51459771)
(0 -0.0019670835 0.51486108)
(0 -0.0032032643 0.51530637)
(0 -0.0044541335 0.51594689)
(0 -0.0057245251 0.51680213)
(0 -0.0070188982 0.51789896)
(0 -0.0083411849 0.51927342)
(0 -0.0096947249 0.52097333)
(0 -0.011082047 0.52306237)
(0 -0.012504668 0.52562532)
(0 -0.01396351 0.52877265)
(0 -0.01545432 0.53266216)
(0 -0.01699641 0.53772799)
(0 -0.018705271 0.54544804)
(0 -0.020742583 0.55757375)
(0 -0.022258659 0.56510714)
(0 -0.019333038 0.52738398)
(0 -0.0090404941 0.38399071)
(0 0.00077357513 0.13356913)
(0 -0.00060941431 0.12072193)
(0 0.0071083496 0.35829786)
(0 0.019053019 0.51857657)
(0 0.024070349 0.57327455)
(0 0.023331162 0.56975792)
(0 0.021131372 0.55501217)
(0 0.019267697 0.5447683)
(0 0.017701423 0.53836167)
(0 0.016217284 0.53365237)
(0 0.014761064 0.52987083)
(0 0.013336342 0.52678601)
(0 0.01194331 0.52426202)
(0 0.01058124 0.52219393)
(0 0.0092487651 0.52050271)
(0 0.0079437762 0.51912929)
(0 0.0066636483 0.51802923)
(0 0.005405208 0.51716901)
(0 0.0041648487 0.5165237)
(0 0.0029386338 0.51607532)
(0 0.0017223919 0.51581181)
(0 0.00051180068 0.51572632)
(0 -0.00069749937 0.51581686)
(0 -0.0019098666 0.51608624)
(0 -0.00312952 0.51654217)
(0 -0.0043604966 0.5171977)
(0 -0.00560652 0.51807199)
(0 -0.0068709146 0.51919143)
(0 -0.0081564628 0.52059146)
(0 -0.0094653558 0.52231921)
(0 -0.010799056 0.52443751)
(0 -0.012158041 0.52702999)
(0 -0.013542348 0.53020558)
(0 -0.014948364 0.53413159)
(0 -0.016400891 0.53930543)
(0 -0.018024416 0.5472666)
(0 -0.019905957 0.55917862)
(0 -0.021006597 0.56410425)
(0 -0.01766586 0.52079052)
(0 -0.0077154191 0.374255)
(0 0.00069217942 0.12993389)
(0 -0.00045816372 0.11798106)
(0 0.0062354752 0.34918116)
(0 0.017481444 0.51083959)
(0 0.022789497 0.57112815)
(0 0.022527326 0.57108097)
(0 0.020514836 0.55694873)
(0 0.018714607 0.54643107)
(0 0.017216025 0.53984734)
(0 0.015806083 0.5350844)
(0 0.014420159 0.53127593)
(0 0.013058017 0.52816434)
(0 0.01171982 0.5256133)
(0 0.010405324 0.52351894)
(0 0.0091136595 0.5218028)
(0 0.0078434194 0.52040635)
(0 0.0065927872 0.51928566)
(0 0.0053594563 0.5184077)
(0 0.0041407186 0.51774791)
(0 0.0029335472 0.51728861)
(0 0.0017346838 0.51701793)
(0 0.0005407168 0.51692914)
(0 -0.00065180239 0.51702023)
(0 -0.0018463157 0.51729396)
(0 -0.0030461247 0.51775788)
(0 -0.0042543419 0.51842477)
(0 -0.0054737633 0.51931342)
(0 -0.0067067944 0.52044976)
(0 -0.0079553265 0.52186867)
(0 -0.0092207088 0.52361661)
(0 -0.010503688 0.52575572)
(0 -0.011804114 0.52836856)
(0 -0.013121623 0.53156343)
(0 -0.014454148 0.53552095)
(0 -0.015832316 0.54080286)
(0 -0.017384015 0.54896844)
(0 -0.019118374 0.56051321)
(0 -0.01984367 0.56272475)
(0 -0.016192504 0.51424179)
(0 -0.0066621354 0.36533768)
(0 0.00059147596 0.1268257)
(0 -0.00032951654 0.11551734)
(0 0.0055530563 0.34086372)
(0 0.016094333 0.50330239)
(0 0.021603711 0.56866528)
(0 0.021765105 0.57210954)
(0 0.01993784 0.55876442)
(0 0.018195331 0.54803263)
(0 0.016750682 0.54126845)
(0 0.01540334 0.53644924)
(0 0.014079256 0.5326184)
(0 0.012773524 0.52948653)
(0 0.011485942 0.52691492)
(0 0.01021646 0.52480049)
(0 0.0089644449 0.52306516)
(0 0.0077289454 0.52165079)
(0 0.0065087227 0.52051387)
(0 0.0053021327 0.51962179)
(0 0.0041071864 0.51895033)
(0 0.0029216064 0.51848209)
(0 0.0017429035 0.51820538)
(0 0.00056844335 0.51811355)
(0 -0.00060444053 0.51820463)
(0 -0.001778404 0.5184813)
(0 -0.0029559691 0.51895093)
(0 -0.0041394749 0.51962606)
(0 -0.0053309602 0.52052513)
(0 -0.0065321059 0.52167363)
(0 -0.0077441357 0.52310593)
(0 -0.0089678108 0.52486796)
(0 -0.010203442 0.52702128)
(0 -0.011450561 0.5296476)
(0 -0.012708778 0.53285561)
(0 -0.01397825 0.53684287)
(0 -0.015295263 0.54223353)
(0 -0.016785417 0.55056346)
(0 -0.018379831 0.56160143)
(0 -0.018769076 0.56103947)
(0 -0.014892079 0.50779968)
(0 -0.0058260409 0.35716247)
(0 0.00048721579 0.12411804)
(0 -0.0002248055 0.11326641)
(0 0.0050106075 0.33325086)
(0 0.01486555 0.49599619)
(0 0.020504679 0.56594869)
(0 0.021040268 0.57286766)
(0 0.019396548 0.56046371)
(0 0.017709088 0.54958172)
(0 0.016307635 0.54263629)
(0 0.015012995 0.53775632)
(0 0.013743198 0.53390532)
(0 0.012488168 0.53075771)
(0 0.011247069 0.52817038)
(0 0.010019846 0.52604067)
(0 0.0088059216 0.52429069)
(0 0.0076046129 0.52286252)
(0 0.0064150764 0.52171299)
(0 0.0052361608 0.5208098)
(0 0.0040664393 0.52012903)
(0 0.0029042402 0.51965351)
(0 0.0017477093 0.51937172)
(0 0.00059486318 0.51927711)
(0 -0.00055630757 0.51936771)
(0 -0.0017077981 0.51964611)
(0 -0.0028614814 0.52011955)
(0 -0.004019063 0.52080033)
(0 -0.0051819788 0.52170658)
(0 -0.006351354 0.5228634)
(0 -0.0075279314 0.52430473)
(0 -0.0087120876 0.5260761)
(0 -0.0099039101 0.52823861)
(0 -0.011102841 0.53087342)
(0 -0.012308742 0.53409079)
(0 -0.013524456 0.53810834)
(0 -0.014791366 0.54360806)
(0 -0.016227405 0.55205949)
(0 -0.017687878 0.56246545)
(0 -0.01777821 0.5591078)
(0 -0.013743024 0.50150619)
(0 -0.0051604656 0.3496547)
(0 0.00038861143 0.12171625)
(0 -0.00014250163 0.111185)
(0 0.0045704684 0.32625826)
(0 0.013772376 0.48893868)
(0 0.019483662 0.56303022)
(0 0.02034859 0.5733773)
(0 0.018886633 0.56204944)
(0 0.017253774 0.55108419)
(0 0.01588748 0.54395993)
(0 0.014637282 0.53901371)
(0 0.013415168 0.53514295)
(0 0.012205706 0.53198263)
(0 0.011007209 0.52938314)
(0 0.0098194737 0.52724175)
(0 0.0086418668 0.52548063)
(0 0.0074738388 0.52404196)
(0 0.0063147989 0.52288272)
(0 0.0051639514 0.52197088)
(0 0.0040202987 0.52128274)
(0 0.0028826488 0.52080133)
(0 0.0017496617 0.52051527)
(0 0.00061988838 0.52041809)
(0 -0.00050813901 0.52050781)
(0 -0.0016358715 0.52078697)
(0 -0.0027646526 0.52126267)
(0 -0.0038956806 0.521947)
(0 -0.0050299227 0.5228578)
(0 -0.0061680913 0.52401989)
(0 -0.0073105998 0.52546688)
(0 -0.0084575978 0.52724397)
(0 -0.0096091015 0.52941202)
(0 -0.010764629 0.5320519)
(0 -0.011924495 0.53527669)
(0 -0.013094487 0.53932666)
(0 -0.014320238 0.54493462)
(0 -0.0157072 0.55346259)
(0 -0.017038723 0.56312544)
(0 -0.016864395 0.55697903)
(0 -0.012724837 0.49538853)
(0 -0.0046268609 0.34274413)
(0 0.00030049732 0.1195507)
(0 -7.9693888e-05 0.10924414)
(0 0.0042052168 0.31981214)
(0 0.01279549 0.48213815)
(0 0.018532368 0.55995292)
(0 0.019686267 0.57365856)
(0 0.018403809 0.56352349)
(0 0.016826619 0.55254365)
(0 0.01548976 0.54524644)
(0 0.014277228 0.54022825)
(0 0.01309711 0.53633679)
(0 0.011928691 0.5331656)
(0 0.01076925 0.53055645)
(0 0.0096183337 0.52840604)
(0 0.0084751909 0.52663646)
(0 0.0073393109 0.52518982)
(0 0.0062102492 0.52402318)
(0 0.0050874565 0.52310465)
(0 0.0039702551 0.52241072)
(0 0.0028578242 0.52192456)
(0 0.0017492321 0.52163491)
(0 0.00064345977 0.52153533)
(0 -0.00046052272 0.52162389)
(0 -0.0015637274 0.52190303)
(0 -0.0026670754 0.52237974)
(0 -0.0037713678 0.52306594)
(0 -0.0048772174 0.52397926)
(0 -0.0059850414 0.52514427)
(0 -0.0070950431 0.52659434)
(0 -0.0082072623 0.52837453)
(0 -0.0093217487 0.53054553)
(0 -0.01043821 0.53318829)
(0 -0.011557557 0.53642002)
(0 -0.012688608 0.54050545)
(0 -0.013880194 0.5462192)
(0 -0.015221195 0.55477732)
(0 -0.016427993 0.56359952)
(0 -0.016020101 0.55469392)
(0 -0.011818969 0.48946317)
(0 -0.004194286 0.33636656)
(0 0.00022485968 0.11757093)
(0 -3.3013283e-05 0.10742433)
(0 0.0038952774 0.3138487)
(0 0.011918659 0.47559653)
(0 0.017643377 0.55675279)
(0 0.019050068 0.57372998)
(0 0.01794412 0.56488713)
(0 0.016424617 0.55396196)
(0 0.015113383 0.54650118)
(0 0.013933038 0.54140559)
(0 0.012790074 0.53749154)
(0 0.011658765 0.53431042)
(0 0.0105352 0.5316933)
(0 0.0094186063 0.52953579)
(0 0.0083080845 0.52775973)
(0 0.0072031 0.52630705)
(0 0.0061032772 0.5251348)
(0 0.0050082287 0.52421114)
(0 0.0039175077 0.52351268)
(0 0.0028305742 0.52302269)
(0 0.0017468135 0.52272998)
(0 0.00066554561 0.52262818)
(0 -0.00041391294 0.52271533)
(0 -0.0014922273 0.52299385)
(0 -0.0025699893 0.52347061)
(0 -0.0036476968 0.52415739)
(0 -0.0047257034 0.52507167)
(0 -0.0058042248 0.52623783)
(0 -0.0068833459 0.52768913)
(0 -0.0079630809 0.52947055)
(0 -0.0090435791 0.5316428)
(0 -0.010124813 0.53428724)
(0 -0.011208392 0.53752645)
(0 -0.012306102 0.54165076)
(0 -0.01346879 0.547466)
(0 -0.014765469 0.55600707)
(0 -0.015851253 0.56390393)
(0 -0.015237746 0.55228614)
(0 -0.011009171 0.48373888)
(0 -0.0038384971 0.33046442)
(0 0.00016190444 0.11574079)
(0 8.2550479e-07 0.10571206)
(0 0.0036268811 0.30831314)
(0 0.011128323 0.46931152)
(0 0.016810269 0.55346012)
(0 0.018437362 0.5736088)
(0 0.017504085 0.5661415)
(0 0.016044794 0.55533976)
(0 0.014756902 0.54772811)
(0 0.01360438 0.54255038)
(0 0.012494475 0.53861124)
(0 0.011396891 0.53542042)
(0 0.010306388 0.53279642)
(0 0.0092218273 0.53063311)
(0 0.0081421519 0.52885199)
(0 0.0070667643 0.52739472)
(0 0.0059953032 0.52621821)
(0 0.004927479 0.52529062)
(0 0.0038630048 0.52458861)
(0 0.0028015471 0.52409552)
(0 0.0017427313 0.52380021)
(0 0.00068613863 0.52369633)
(0 -0.00036864637 0.52378192)
(0 -0.0014220215 0.52405935)
(0 -0.0024743282 0.52453543)
(0 -0.0035258395 0.52522183)
(0 -0.0045767271 0.52613591)
(0 -0.0056270791 0.52730196)
(0 -0.0066769295 0.52875318)
(0 -0.0077263246 0.5305346)
(0 -0.008775551 0.53270706)
(0 -0.009824891 0.53535272)
(0 -0.010876726 0.53860072)
(0 -0.011945632 0.54276731)
(0 -0.013083214 0.54867771)
(0 -0.01433612 0.55715441)
(0 -0.015304318 0.56405324)
(0 -0.014510186 0.54978359)
(0 -0.010281509 0.47821905)
(0 -0.0035408781 0.32498685)
(0 0.00011080103 0.11403456)
(0 2.4745913e-05 0.1040975)
(0 0.0033904261 0.30315855)
(0 0.010413155 0.46327807)
(0 0.016027589 0.5501006)
(0 0.017846055 0.57331117)
(0 0.017080732 0.56728776)
(0 0.015684354 0.55667682)
(0 0.014418714 0.54893005)
(0 0.013290584 0.5436664)
(0 0.012210293 0.53969929)
(0 0.011143534 0.53649848)
(0 0.010083626 0.5338682)
(0 0.0090290277 0.53169997)
(0 0.007978528 0.52991478)
(0 0.006931444 0.52845395)
(0 0.0058873918 0.52727419)
(0 0.0048461321 0.52634358)
(0 0.0038074826 0.52563878)
(0 0.0027712557 0.52514316)
(0 0.0017372534 0.5248456)
(0 0.00070525311 0.52473977)
(0 -0.00032495903 0.5248237)
(0 -0.0013535803 0.52509972)
(0 -0.0023807672 0.52557458)
(0 -0.0034066329 0.52625991)
(0 -0.0044312281 0.52717298)
(0 -0.0054545697 0.52833804)
(0 -0.0064766886 0.52978833)
(0 -0.0074977012 0.531569)
(0 -0.0085180486 0.53374116)
(0 -0.009538348 0.53638812)
(0 -0.010561803 0.5396467)
(0 -0.011605504 0.54385866)
(0 -0.012720547 0.54985592)
(0 -0.013929472 0.5582213)
(0 -0.014783418 0.56406063)
(0 -0.013830968 0.54720952)
(0 -0.0096242035 0.47290339)
(0 -0.0032873728 0.31988931)
(0 7.0189137e-05 0.11243395)
(0 4.1201123e-05 0.10257302)
(0 0.0031792235 0.29834483)
(0 0.0097636563 0.4574894)
(0 0.015290727 0.54669612)
(0 0.017274491 0.57285226)
(0 0.016671583 0.5683273)
(0 0.015340753 0.55797238)
(0 0.01409717 0.55010891)
(0 0.01299078 0.54475672)
(0 0.011937217 0.54075856)
(0 0.010898804 0.5375471)
(0 0.0098673401 0.53491078)