/*--------------------------------*- C++ -*----------------------------------*\
  =========                 |
  \\      /  F ield         | OpenFOAM: The Open Source CFD Toolbox
   \\    /   O peration     | Website:  https://openfoam.org
    \\  /    A nd           | Version:  10
     \\/     M anipulation  |
\*---------------------------------------------------------------------------*/
FoamFile
{
    format      ascii;
    class       surfaceScalarField;
    location    "0.26";
    object      phi;
}
// * * * * * * * * * * * * * * * * * * * * * * * * * * * * * * * * * * * * * //

dimensions      [1 0 -1 0 0 0 0];

internalField   nonuniform List<scalar> 
7860
(
3.9896008e-08
5.2881203e-07
1.2192743e-08
5.9641107e-07
7.4279224e-09
5.7347257e-07
5.499444e-09
5.7063619e-07
4.1150204e-09
5.700921e-07
3.2011638e-09
5.6962151e-07
2.5591647e-09
5.6934964e-07
2.07933e-09
5.6918746e-07
1.7093313e-09
5.6907761e-07
1.4166451e-09
5.6900029e-07
1.1794762e-09
5.6894476e-07
9.8306172e-10
5.68904e-07
8.1705825e-10
5.6887359e-07
6.7397567e-10
5.6885066e-07
5.4824097e-10
5.6883331e-07
4.355937e-10
5.6882022e-07
3.3268037e-10
5.6881048e-07
2.3677388e-10
5.6880347e-07
1.4557149e-10
5.6879877e-07
5.7042341e-11
5.6879609e-07
-3.0696107e-11
5.687953e-07
-1.1948588e-10
5.6879635e-07
-2.1123304e-10
5.6879931e-07
-3.0801486e-10
5.6880435e-07
-4.1221178e-10
5.6881177e-07
-5.2667052e-10
5.6882203e-07
-6.5492474e-10
5.6883583e-07
-8.0150799e-10
5.6885416e-07
-9.7241422e-10
5.6887849e-07
-1.1758045e-09
5.6891098e-07
-1.4231801e-09
5.6895497e-07
-1.7313522e-09
5.6901577e-07
-2.1252986e-09
5.6910156e-07
-2.6449006e-09
5.6922723e-07
-3.3725718e-09
5.6943531e-07
-4.4638619e-09
5.6979895e-07
-6.0091719e-09
5.7025299e-07
-9.5081584e-09
5.722067e-07
-2.9576017e-08
5.8877562e-07
5.3913191e-07
5.9672554e-08
4.6913947e-07
3.6666021e-08
6.194176e-07
2.2628198e-08
5.8751039e-07
1.625361e-08
5.7701078e-07
1.2290547e-08
5.7405517e-07
9.6062908e-09
5.7230577e-07
7.677501e-09
5.7127843e-07
6.2361419e-09
5.7062882e-07
5.1266173e-09
5.7018714e-07
4.2488548e-09
5.6987805e-07
3.5375199e-09
5.696561e-07
2.9484441e-09
5.6949308e-07
2.4505823e-09
5.6937145e-07
2.0214595e-09
5.6927978e-07
1.6443612e-09
5.6921041e-07
1.3065105e-09
5.6915807e-07
9.9785035e-10
5.6911914e-07
7.102027e-10
5.6909112e-07
4.3666211e-10
5.6907231e-07
1.711373e-10
5.6906162e-07
-9.2017745e-11
5.6905846e-07
-3.5832584e-10
5.6906266e-07
-6.334988e-10
5.6907449e-07
-9.2376851e-10
5.6909462e-07
-1.2362737e-09
5.6912427e-07
-1.5795512e-09
5.6916531e-07
-1.9641976e-09
5.6922047e-07
-2.4038087e-09
5.6929377e-07
-2.916367e-09
5.6939105e-07
-3.5263647e-09
5.6952097e-07
-4.26822e-09
5.6969682e-07
-5.1922976e-09
5.6993985e-07
-6.3752215e-09
5.7028448e-07
-7.9357078e-09
5.7078771e-07
-1.0076978e-08
5.7157658e-07
-1.3205155e-08
5.7292712e-07
-1.8135003e-08
5.7518284e-07
-2.817723e-08
5.8224893e-07
-4.5803127e-08
6.0640152e-07
4.9332879e-07
6.0008879e-08
4.091306e-07
5.0487338e-08
6.2893914e-07
3.3370733e-08
6.04627e-07
2.4817743e-08
5.8556377e-07
1.9323322e-08
5.7954959e-07
1.533158e-08
5.7629751e-07
1.2360802e-08
5.742492e-07
1.0101636e-08
5.7288798e-07
8.3407036e-09
5.7194807e-07
6.934886e-09
5.7128387e-07
5.788104e-09
5.7080288e-07
4.8335931e-09
5.7044759e-07
4.023589e-09
5.7018145e-07
3.3231067e-09
5.6998027e-07
2.7058827e-09
5.6982763e-07
2.1516853e-09
5.6971227e-07
1.6444895e-09
5.6962634e-07
1.1711963e-09
5.6956441e-07
7.2069913e-10
5.6952281e-07
2.8317017e-10
5.6949915e-07
-1.505166e-10
5.6949214e-07
-5.8929146e-10
5.6950144e-07
-1.0423826e-09
5.6952758e-07
-1.5198356e-09
5.6957207e-07
-2.0331169e-09
5.6963755e-07
-2.5958727e-09
5.6972806e-07
-3.2249412e-09
5.6984954e-07
-3.941763e-09
5.7001059e-07
-4.7744316e-09
5.7022371e-07
-5.7607567e-09
5.705073e-07
-6.9529225e-09
5.7088899e-07
-8.4251263e-09
5.7141206e-07
-1.0286766e-08
5.7214612e-07
-1.269971e-08
5.7320066e-07
-1.5897117e-08
5.7477399e-07
-2.024087e-08
5.7727088e-07
-2.6709116e-08
5.8165109e-07
-3.8948597e-08
5.9448841e-07
-4.8167656e-08
6.1562057e-07
4.4516113e-07
5.4879109e-08
3.5425149e-07
5.7452277e-08
6.2636598e-07
4.0467638e-08
6.2161164e-07
3.0778847e-08
5.9525256e-07
2.4643142e-08
5.8568529e-07
1.9952387e-08
5.8098827e-07
1.6313029e-08
5.7788856e-07
1.3466612e-08
5.757344e-07
1.1201022e-08
5.7421366e-07
9.3645535e-09
5.7312034e-07
7.8493235e-09
5.7231811e-07
6.576844e-09
5.7172007e-07
5.4892694e-09
5.7126903e-07
4.5432881e-09
5.7092625e-07
3.7058061e-09
5.7066511e-07
2.950967e-09
5.7046711e-07
2.2580543e-09
5.7031925e-07
1.6099735e-09
5.7021249e-07
9.9212041e-10
5.7014066e-07
3.9150136e-10
5.7009977e-07
-2.039901e-10
5.7008764e-07
-8.0621318e-10
5.7010366e-07
-1.4274013e-09
5.7014876e-07
-2.0808159e-09
5.7022549e-07
-2.781498e-09
5.7033823e-07
-3.547195e-09
5.7049376e-07
-4.3995686e-09
5.7070192e-07
-5.3658277e-09
5.7097685e-07
-6.4810085e-09
5.713389e-07
-7.7912355e-09
5.7181753e-07
-9.3582876e-09
5.7245604e-07
-1.1265984e-08
5.7331975e-07
-1.3630589e-08
5.7451073e-07
-1.6613444e-08
5.7618351e-07
-2.0412319e-08
5.7857286e-07
-2.5293888e-08
5.8215245e-07
-3.2518112e-08
5.8887531e-07
-4.5101708e-08
6.07072e-07
-4.6549868e-08
6.1706873e-07
3.9861126e-07
4.7965827e-08
3.0628566e-07
6.007666e-08
6.1425514e-07
4.540028e-08
6.3628802e-07
3.4875476e-08
6.0577736e-07
2.839997e-08
5.921608e-07
2.341972e-08
5.8596852e-07
1.9434383e-08
5.818739e-07
1.6229223e-08
5.7893956e-07
1.3619724e-08
5.7682316e-07
1.146648e-08
5.7527358e-07
9.6643653e-09
5.7412022e-07
8.1333413e-09
5.7325109e-07
6.8123857e-09
5.7258998e-07
5.6544871e-09
5.7208415e-07
4.6228712e-09
5.7169673e-07
3.6882528e-09
5.7140172e-07
2.8267942e-09
5.7118071e-07
2.0185672e-09
5.7102072e-07
1.2463679e-09
5.7091286e-07
4.9477243e-10
5.7085136e-07
-2.5065716e-10
5.7083306e-07
-1.0040819e-09
5.7085708e-07
-1.7800767e-09
5.7092476e-07
-2.5943531e-09
5.7103976e-07
-3.4645748e-09
5.7120845e-07
-4.4113416e-09
5.7144053e-07
-5.4594298e-09
5.7175e-07
-6.6394011e-09
5.7215682e-07
-7.9897299e-09
5.7268922e-07
-9.5596767e-09
5.7338747e-07
-1.1413064e-08
5.7430943e-07
-1.36327e-08
5.7553939e-07
-1.6326887e-08
5.7720491e-07
-1.9639224e-08
5.7949585e-07
-2.3739971e-08
5.8267361e-07
-2.893205e-08
5.8734452e-07
-3.67923e-08
5.9673556e-07
-4.8464862e-08
6.1874457e-07
-4.3194843e-08
6.1179871e-07
3.5541642e-07
4.0336127e-08
2.6594954e-07
5.899428e-08
5.9559699e-07
4.8330302e-08
6.4695199e-07
3.7588277e-08
6.1651939e-07
3.0929078e-08
5.9882e-07
2.5894178e-08
5.9100342e-07
2.1780168e-08
5.8598791e-07
1.8392197e-08
5.8232753e-07
1.5577608e-08
5.7963774e-07
1.3214353e-08
5.7763684e-07
1.1206495e-08
5.7612808e-07
9.4787415e-09
5.7497885e-07
7.9719524e-09
5.7409677e-07
6.6392245e-09
5.7341687e-07
5.4429323e-09
5.7289302e-07
4.3524594e-09
5.724922e-07
3.3424192e-09
5.7219075e-07
2.3912553e-09
5.7197188e-07
1.4801235e-09
5.7182399e-07
5.9197106e-10
5.7173951e-07
-2.8925321e-10
5.7171429e-07
-1.1793166e-09
5.7174715e-07
-2.0944055e-09
5.7183985e-07
-3.0518531e-09
5.7199721e-07
-4.0709455e-09
5.7222755e-07
-5.1738681e-09
5.7254345e-07
-6.3868571e-09
5.7296299e-07
-7.7416341e-09
5.735116e-07
-9.2772039e-09
5.7422479e-07
-1.1042162e-08
5.7515243e-07
-1.3097727e-08
5.7636499e-07
-1.5521164e-08
5.7796282e-07
-1.840987e-08
5.8009362e-07
-2.1888019e-08
5.82974e-07
-2.6111391e-08
5.8689698e-07
-3.1489522e-08
5.9272265e-07
-3.9655849e-08
6.0490189e-07
-4.9173563e-08
6.2826228e-07
-3.8579101e-08
6.0120425e-07
3.1683732e-07
3.286279e-08
2.3308675e-07
5.5250245e-08
5.7320954e-07
4.9232521e-08
6.5296972e-07
3.9061765e-08
6.2669014e-07
3.2430899e-08
6.0545086e-07
2.7518996e-08
5.9591532e-07
2.3438924e-08
5.9006798e-07
2.000311e-08
5.8576335e-07
1.7095003e-08
5.8254585e-07
1.461238e-08
5.8011946e-07
1.2471454e-08
5.7826901e-07
1.0604978e-08
5.7684532e-07
8.95871e-09
5.7574304e-07
7.4884606e-09
5.7488712e-07
6.1579011e-09
5.7422358e-07
4.936807e-09
5.7371329e-07
3.7996154e-09
5.7332794e-07
2.7242475e-09
5.7304725e-07
1.691133e-09
5.728571e-07
6.8237842e-10
5.7274827e-07
-3.1896416e-10
5.7271563e-07
-1.329572e-09
5.7275776e-07
-2.3665175e-09
5.7287679e-07
-3.4479514e-09
5.7307864e-07
-4.5938441e-09
5.7337344e-07
-5.8268336e-09
5.7377644e-07
-7.1732214e-09
5.7430938e-07
-8.6641749e-09
5.7500255e-07
-1.0337176e-08
5.7589779e-07
-1.2237798e-08
5.7705305e-07
-1.4422093e-08
5.7854929e-07
-1.6959488e-08
5.8050022e-07
-1.9934825e-08
5.8306895e-07
-2.3448875e-08
5.8648805e-07
-2.7643062e-08
5.9109117e-07
-3.3035838e-08
5.9811543e-07
-4.1012154e-08
6.128782e-07
-4.768905e-08
6.3493918e-07
-3.337675e-08
5.8689195e-07
2.8346057e-07
2.6189097e-08
2.0689765e-07
5.0132971e-08
5.4926567e-07
4.8493902e-08
6.5460879e-07
3.9491361e-08
6.3569268e-07
3.3077746e-08
6.1186448e-07
2.8412324e-08
6.0058074e-07
2.4493198e-08
5.9398711e-07
2.1118511e-08
5.8913803e-07
1.8207381e-08
5.8545698e-07
1.5680583e-08
5.8264626e-07
1.346898e-08
5.8048061e-07
1.1515395e-08
5.7879891e-07
9.7723139e-09
5.7748612e-07
8.1999484e-09
5.7645949e-07
6.7647688e-09
5.7565876e-07
5.4382318e-09
5.7503983e-07
4.1956925e-09
5.7457048e-07
3.0154808e-09
5.7422746e-07
1.8781039e-09
5.7399448e-07
7.6554321e-10
5.7386083e-07
-3.3938222e-10
5.7382056e-07
-1.4536113e-09
5.7387198e-07
-2.5944343e-09
5.7401762e-07
-3.7800949e-09
5.742643e-07
-5.0304335e-09
5.7462378e-07
-6.3676017e-09
5.7511361e-07
-7.8168748e-09
5.7575865e-07
-9.4075992e-09
5.7659328e-07
-1.11743e-08
5.7766449e-07
-1.3157949e-08
5.790367e-07
-1.5407615e-08
5.8079896e-07
-1.7982582e-08
5.8307519e-07
-2.0952304e-08
5.8603867e-07
-2.4391966e-08
5.8992771e-07
-2.8437108e-08
5.9513631e-07
-3.3693023e-08
6.0337134e-07
-4.1064309e-08
6.2024949e-07
-4.4798652e-08
6.3867352e-07
-2.8205091e-08
5.7029839e-07
2.5525547e-07
2.0571011e-08
1.8632665e-07
4.4583496e-08
5.2525319e-07
4.6643319e-08
6.5254896e-07
3.9153563e-08
6.4318244e-07
3.308418e-08
6.1793386e-07
2.8717982e-08
6.0494694e-07
2.503851e-08
5.9766658e-07
2.1804148e-08
5.923724e-07
1.8959577e-08
5.8830155e-07
1.6448747e-08
5.8515709e-07
1.4218161e-08
5.827112e-07
1.2221637e-08
5.8079543e-07
1.0419397e-08
5.7928836e-07
8.7770859e-09
5.781018e-07
7.26495e-09
5.7717089e-07
5.8570249e-09
5.7644775e-07
4.5303951e-09
5.7589711e-07
3.2645279e-09
5.7549333e-07
2.0406668e-09
5.7521834e-07
8.4127474e-10
5.7506022e-07
-3.5048634e-10
5.7501232e-07
-1.5512515e-09
5.7507275e-07
-2.7779504e-09
5.7524431e-07
-4.0483079e-09
5.7553466e-07
-5.3813693e-09
5.7595684e-07
-6.7980662e-09
5.765303e-07
-8.3218331e-09
5.7728242e-07
-9.9792931e-09
5.7825074e-07
-1.1801024e-08
5.7948623e-07
-1.3822354e-08
5.8105803e-07
-1.6084271e-08
5.8306087e-07
-1.8634623e-08
5.8562554e-07
-2.1526516e-08
5.8893057e-07
-2.4813964e-08
5.9321516e-07
-2.8643199e-08
5.9896554e-07
-3.3661615e-08
6.0838976e-07
-4.014563e-08
6.267335e-07
-4.1160432e-08
6.3968832e-07
-2.3417504e-08
5.5255546e-07
2.3183797e-07
1.6015594e-08
1.7031106e-07
3.9144248e-08
5.0212454e-07
4.4119015e-08
6.475742e-07
3.8290096e-08
6.4901136e-07
3.2654336e-08
6.2356962e-07
2.859203e-08
6.0900924e-07
2.5184036e-08
6.0107457e-07
2.2136394e-08
5.9542004e-07
1.9405214e-08
5.9103273e-07
1.6954439e-08
5.8760786e-07
1.4745092e-08
5.8492054e-07
1.2741577e-08
5.8279894e-07
1.0911983e-08
5.8111795e-07
9.2277894e-09
5.7978599e-07
7.6635242e-09
5.7873516e-07
6.1963414e-09
5.7791493e-07
4.8055959e-09
5.7728785e-07
3.4724161e-09
5.7682651e-07
2.1792823e-09
5.7651147e-07
9.0961868e-10
5.7632988e-07
-3.5260355e-10
5.7627454e-07
-1.6232532e-09
5.763434e-07
-2.9184308e-09
5.7653949e-07
-4.2548592e-09
5.7687109e-07
-5.6502829e-09
5.7735226e-07
-7.1238828e-09
5.780039e-07
-8.6967033e-09
5.7885524e-07
-1.0392091e-08
5.7994612e-07
-1.223615e-08
5.8133028e-07
-1.4258163e-08
5.8308004e-07
-1.6490953e-08
5.8529366e-07
-1.8971272e-08
5.8810586e-07
-2.1737256e-08
5.9169655e-07
-2.4829381e-08
5.9630728e-07
-2.8416549e-08
6.0255271e-07
-3.3125983e-08
6.1309919e-07
-3.8551044e-08
6.3215856e-07
-3.7216886e-08
6.3835416e-07
-1.9183388e-08
5.3452196e-07
2.1265458e-07
1.2423884e-08
1.5788718e-07
3.4114328e-08
4.8043411e-07
4.1250201e-08
6.4043833e-07
3.7079117e-08
6.5318244e-07
3.1942347e-08
6.2870639e-07
2.8169195e-08
6.127824e-07
2.503341e-08
6.0421035e-07
2.21925e-08
5.9826095e-07
1.9601394e-08
5.9362384e-07
1.7239509e-08
5.8996975e-07
1.5080213e-08
5.8707984e-07
1.3097193e-08
5.8478196e-07
1.1265813e-08
5.8294933e-07
9.5632185e-09
5.8148859e-07
7.9682934e-09
5.8033008e-07
6.4615266e-09
5.794217e-07
5.0248342e-09
5.7872455e-07
3.6413322e-09
5.7821001e-07
2.2950801e-09
5.7785773e-07
9.7081136e-10
5.7765415e-07
-3.4634446e-10
5.7759169e-07
-1.6711401e-09
5.7766819e-07
-3.0184966e-09
5.7788685e-07
-4.4037844e-09
5.7825638e-07
-5.8431014e-09
5.7879158e-07
-7.3535469e-09
5.7951435e-07
-8.9534807e-09
5.8045517e-07
-1.0662755e-08
5.816554e-07
-1.2502926e-08
5.8317045e-07
-1.449741e-08
5.8507453e-07
-1.6671521e-08
5.8746777e-07
-1.9052147e-08
5.9048648e-07
-2.166478e-08
5.9430918e-07
-2.4543616e-08
5.9918612e-07
-2.7883224e-08
6.0589232e-07
-3.2228819e-08
6.1744479e-07
-3.6522689e-08
6.3645243e-07
-3.3269288e-08
6.3510076e-07
-1.5564427e-08
5.168171e-07
1.9709016e-07
9.6572627e-09
1.4822993e-07
2.9646048e-08
4.6044534e-07
3.8283531e-08
6.3180085e-07
3.5658796e-08
6.5580717e-07
3.1059394e-08
6.3330579e-07
2.7553845e-08
6.1628795e-07
2.4673203e-08
6.07091e-07
2.2041239e-08
6.0089291e-07
1.9601986e-08
5.9606309e-07
1.7345473e-08
5.9222626e-07
1.5255087e-08
5.8917022e-07
1.3312247e-08
5.867248e-07
1.1498618e-08
5.8476296e-07
9.7964731e-09
5.8319073e-07
8.1888094e-09
5.8193775e-07
6.659405e-09
5.809511e-07
5.1928144e-09
5.8019114e-07
3.7742929e-09
5.7962853e-07
2.3896759e-09
5.7924234e-07
1.0252275e-09
5.790186e-07
-3.3253e-10
5.7894945e-07
-1.6969949e-09
5.7903266e-07
-3.0816744e-09
5.7927153e-07
-4.500364e-09
5.7967507e-07
-5.9673185e-09
5.8025853e-07
-7.4974035e-09
5.8104443e-07
-9.1062188e-09
5.8206399e-07
-1.0810174e-08
5.8335935e-07
-1.2626519e-08
5.849868e-07
-1.4573334e-08
5.8702134e-07
-1.6669357e-08
5.895638e-07
-1.8933066e-08
5.9275019e-07
-2.1379968e-08
5.9675609e-07
-2.4044197e-08
6.0185035e-07
-2.7142091e-08
6.0899021e-07
-3.1088284e-08
6.2139098e-07
-3.42647e-08
6.3962885e-07
-2.9522787e-08
6.3035885e-07
-1.2555983e-08
4.998503e-07
1.8453417e-07
7.5669079e-09
1.4066303e-07
2.5787072e-08
4.4222519e-07
3.5389867e-08
6.2219807e-07
3.4138989e-08
6.5705805e-07
3.008847e-08
6.3735631e-07
2.6825971e-08
6.1955044e-07
2.4173097e-08
6.0974387e-07
2.1740391e-08
6.0332562e-07
1.9454271e-08
5.9834921e-07
1.7310387e-08
5.9437014e-07
1.5299857e-08
5.9118075e-07
1.34103e-08
5.8861436e-07
1.16286e-08
5.8654466e-07
9.9414403e-09
5.8487789e-07
8.3355045e-09
5.8354368e-07
6.7976371e-09
5.8248897e-07
5.3149473e-09
5.8167383e-07
3.8748407e-09
5.8106864e-07
2.4650006e-09
5.8065218e-07
1.0733314e-09
5.8041027e-07
-3.1212184e-10
5.8033491e-07
-1.7032672e-09
5.804238e-07
-3.1120686e-09
5.8068033e-07
-4.5506385e-09
5.8111363e-07
-6.0313184e-09
5.8173921e-07
-7.5667324e-09
5.8257985e-07
-9.1698067e-09
5.8366706e-07
-1.0853735e-08
5.8504328e-07
-1.2631888e-08
5.8676495e-07
-1.4517693e-08
5.8890715e-07
-1.6524337e-08
5.9157044e-07
-1.8663415e-08
5.9488927e-07
-2.0943431e-08
5.990361e-07
-2.340357e-08
6.0431049e-07
-2.6273518e-08
6.1186016e-07
-2.9805447e-08
6.2492291e-07
-3.1938729e-08
6.4176213e-07
-2.6099733e-08
6.2451985e-07
-1.0111412e-08
4.8386198e-07
1.7442276e-07
6.0122462e-09
1.346508e-07
2.2515619e-08
4.2572184e-07
3.2671066e-08
6.1204264e-07
3.2600137e-08
6.5712898e-07
2.9089665e-08
6.4086677e-07
2.6045741e-08
6.2259437e-07
2.3588429e-08
6.1220118e-07
2.1337533e-08
6.0557651e-07
1.9198442e-08
6.004883e-07
1.7167692e-08
5.9640089e-07
1.5241906e-08
5.9310654e-07
1.3413452e-08
5.9044281e-07
1.1673342e-08
5.8828477e-07
1.0011905e-08
5.8653933e-07
8.4189908e-09
5.851366e-07
6.8841847e-09
5.8402378e-07
5.3969602e-09
5.8316105e-07
3.9467807e-09
5.8251882e-07
2.5231517e-09
5.8207581e-07
1.1156355e-09
5.8181779e-07
-2.8615922e-10
5.817367e-07
-1.6926023e-09
5.8183025e-07
-3.1140743e-09
5.821018e-07
-4.5609903e-09
5.8256055e-07
-6.0438075e-09
5.8322203e-07
-7.5730062e-09
5.8410904e-07
-9.1590348e-09
5.8525309e-07
-1.0812204e-08
5.8669645e-07
-1.2542525e-08
5.8849527e-07
-1.4359541e-08
5.9072416e-07
-1.6271939e-08
5.9348284e-07
-1.8286017e-08
5.9690335e-07
-2.040636e-08
6.0115644e-07
-2.2680756e-08
6.0658488e-07
-2.5341102e-08
6.1452051e-07
-2.8460907e-08
6.2804271e-07
-2.9658976e-08
6.429602e-07
-2.3055398e-08
6.1791627e-07
-8.1622689e-09
4.6896885e-07
1.6626049e-07
4.8705741e-09
1.2978024e-07
1.9773141e-08
4.1081931e-07
3.0175401e-08
6.0164039e-07
3.1094587e-08
6.562098e-07
2.8102476e-08
6.4385888e-07
2.5255448e-08
6.2544139e-07
2.2961325e-08
6.144953e-07
2.0870718e-08
6.0766712e-07
1.8867775e-08
6.0249124e-07
1.6945947e-08
5.9832272e-07
1.5105305e-08
5.9494718e-07
1.334166e-08
5.9220646e-07
1.1649133e-08
5.899773e-07
1.0020933e-08
5.8816753e-07
8.449539e-09
5.8670799e-07
6.926894e-09
5.8554642e-07
5.4445825e-09
5.8464336e-07
3.9939641e-09
5.8396944e-07
2.5662698e-09
5.8350351e-07
1.1526662e-09
5.8323139e-07
-2.557044e-10
5.8314507e-07
-1.6676959e-09
5.8324224e-07
-3.0921374e-09
5.8352624e-07
-4.5378035e-09
5.8400622e-07
-6.0133702e-09
5.846976e-07
-7.5273438e-09
5.8562302e-07
-9.0879588e-09
5.8681371e-07
-1.0703034e-08
5.8831153e-07
-1.2379789e-08
5.9017203e-07
-1.4124656e-08
5.9246903e-07
-1.5942858e-08
5.9530104e-07
-1.7836922e-08
5.9879741e-07
-1.9810321e-08
6.0312984e-07
-2.1921184e-08
6.0869574e-07
-2.439159e-08
6.1699091e-07
-2.7113421e-08
6.3076455e-07
-2.7497557e-08
6.4334434e-07
-2.0399153e-08
6.1081787e-07
-6.6329044e-09
4.552026e-07
1.5962759e-07
4.0395321e-09
1.2574073e-07
1.748716e-08
3.9737172e-07
2.7916839e-08
5.9121074e-07
2.9652974e-08
6.5447367e-07
2.715011e-08
6.4636174e-07
2.4482286e-08
6.2810922e-07
2.2321933e-08
6.1665566e-07
2.0369022e-08
6.0962003e-07
1.8488844e-08
6.0437142e-07
1.6668783e-08
6.0014278e-07
1.4910586e-08
5.9670538e-07
1.3212399e-08
5.9390465e-07
1.1570567e-08
5.9161913e-07
9.9804824e-09
5.8975761e-07
8.43672e-09
5.8825175e-07
6.9331917e-09
5.8704995e-07
5.4633075e-09
5.8611325e-07
4.02012e-09
5.8541262e-07
2.5964414e-09
5.8492718e-07
1.1849378e-09
5.8464289e-07
-2.2179721e-10
5.845518e-07
-1.6311773e-09
5.8465162e-07
-3.0505649e-09
5.8494563e-07
-4.4872043e-09
5.8544286e-07
-5.9481418e-09
5.8615853e-07
-7.4401248e-09
5.87115e-07
-8.9694738e-09
5.8834305e-07
-1.0541929e-08
5.8988398e-07
-1.2162475e-08
5.9179257e-07
-1.3835166e-08
5.9414172e-07
-1.5562692e-08
5.9702856e-07
-1.7345176e-08
6.0057989e-07
-1.9187289e-08
6.0497196e-07
-2.1157587e-08
6.1066604e-07
-2.3456982e-08
6.1929031e-07
-2.5802757e-08
6.3311032e-07
-2.5494241e-08
6.4303582e-07
-1.8112476e-08
6.034361e-07
-5.4489475e-09
4.4253907e-07
1.5417864e-07
3.4364442e-09
1.2230431e-07
1.5583866e-08
3.8522434e-07
2.5888764e-08
5.8090588e-07
2.8290719e-08
6.5207172e-07
2.6244439e-08
6.4840802e-07
2.374215e-08
6.306115e-07
2.1690566e-08
6.1870724e-07
1.9853666e-08
6.1145693e-07
1.8082067e-08
6.0614302e-07
1.6355107e-08
6.0186974e-07
1.4674729e-08
5.9838576e-07
1.3040526e-08
5.9553885e-07
1.1450348e-08
5.9320931e-07
9.9011681e-09
5.9130679e-07
8.3891788e-09
5.8976374e-07
6.9098831e-09
5.8852925e-07
5.4582278e-09
5.875649e-07
4.0287358e-09
5.8684212e-07
2.6156291e-09
5.8634029e-07
1.2129348e-09
5.8604559e-07
-1.8541981e-10
5.8595016e-07
-1.5855215e-09
5.8605172e-07
-2.9933872e-09
5.8635349e-07
-4.4148745e-09
5.8686434e-07
-5.855582e-09
5.8759924e-07
-7.3207337e-09
5.8858015e-07
-8.8150451e-09
5.8983737e-07
-1.0342578e-08
5.9141151e-07
-1.1906596e-08
5.9335659e-07
-1.3509418e-08
5.9574454e-07
-1.5151994e-08
5.9867114e-07
-1.6833213e-08
6.0226111e-07
-1.8560689e-08
6.0669943e-07
-2.0412208e-08
6.1251756e-07
-2.2557785e-08
6.2143588e-07
-2.4553785e-08
6.3510632e-07
-2.3665876e-08
6.4214791e-07
-1.6161393e-08
5.9593162e-07
-4.5419872e-09
4.3091966e-07
1.4963665e-07
2.9966798e-09
1.1930766e-07
1.3994792e-08
3.7422629e-07
2.4073324e-08
5.7082739e-07
2.7012982e-08
6.4913208e-07
2.5389859e-08
6.5003114e-07
2.3043069e-08
6.3295829e-07
2.1080089e-08
6.2067022e-07
1.9339533e-08
6.1319748e-07
1.7662628e-08
6.0781992e-07
1.6019602e-08
6.0351277e-07
1.4411384e-08
5.9999397e-07
1.2838333e-08
5.971119e-07
1.129924e-08
5.947484e-07
9.7921703e-09
5.9281386e-07
8.3145168e-09
5.912414e-07
6.8630355e-09
5.8998073e-07
5.4339334e-09
5.88994e-07
4.0229811e-09
5.8825307e-07
2.6256263e-09
5.8773765e-07
1.237102e-09
5.8743411e-07
-1.4747119e-10
5.8733473e-07
-1.5329884e-09
5.8743724e-07
-2.9242642e-09
5.8774477e-07
-4.3259317e-09
5.8826601e-07
-5.7423359e-09
5.8901565e-07
-7.1774156e-09
5.9001523e-07
-8.6345778e-09
5.9129453e-07
-1.0116573e-08
5.9289351e-07
-1.1625391e-08
5.9486541e-07
-1.3162153e-08
5.9728131e-07
-1.4726722e-08
6.0023571e-07
-1.6317724e-08
6.0385211e-07
-1.7946904e-08
6.0832861e-07
-1.9699159e-08
6.1426981e-07
-2.1705879e-08
6.234426e-07
-2.3380006e-08
6.3678045e-07
-2.2013644e-08
6.4078155e-07
-1.4504871e-08
5.8842285e-07
-3.8521255e-09
4.2026692e-07
1.4578453e-07
2.6714003e-09
1.1663629e-07
1.2660198e-08
3.6423756e-07
2.2447774e-08
5.6103987e-07
2.5818411e-08
6.4576146e-07
2.4585984e-08
6.5126356e-07
2.2387765e-08
6.3515651e-07
2.0497922e-08
6.2256006e-07
1.8836606e-08
6.148588e-07
1.7241478e-08
6.0941505e-07
1.5673373e-08
6.0508087e-07
1.4131269e-08
6.0153608e-07
1.2615758e-08
5.9862741e-07
1.112616e-08
5.96238e-07
9.6612441e-09
5.9427878e-07
8.219263e-09
5.9268338e-07
6.7979301e-09
5.9140206e-07
5.3944631e-09
5.9039747e-07
4.0056673e-09
5.8964186e-07
2.6280337e-09
5.8911528e-07
1.2578396e-09
5.888043e-07
-1.0875039e-10
5.8870132e-07
-1.475586e-09
5.8880407e-07
-2.8464319e-09
5.8911562e-07
-4.2248654e-09
5.8964444e-07
-5.6141707e-09
5.9040495e-07
-7.017229e-09
5.9141829e-07
-8.4364093e-09
5.9271371e-07
-9.873473e-09
5.9433057e-07
-1.1329511e-08
5.9632145e-07
-1.2804881e-08
5.9875668e-07
-1.4298876e-08
6.017297e-07
-1.5810639e-08
6.0536388e-07
-1.7356717e-08
6.0987469e-07
-1.9026392e-08
6.1593949e-07
-2.090677e-08
6.2532298e-07
-2.2286567e-08
6.3816024e-07
-2.0528854e-08
6.3902383e-07
-1.3100404e-08
5.809944e-07
-3.3289562e-09
4.1049547e-07
1.4245557e-07
2.4248651e-09
1.1421147e-07
1.1530169e-08
3.5513234e-07
2.0988568e-08
5.5158155e-07
2.4702027e-08
6.4204803e-07
2.3829651e-08
6.5213594e-07
2.177554e-08
6.3721061e-07
1.9947607e-08
6.2438799e-07
1.8351176e-08
6.1645523e-07
1.6826236e-08
6.1093999e-07
1.5324604e-08
6.065825e-07
1.3842604e-08
6.0301808e-07
1.2380664e-08
6.0008935e-07
1.0938338e-08
5.9768032e-07
9.5148068e-09
5.9570231e-07
8.1089088e-09
5.9408927e-07
6.7190688e-09
5.927919e-07
5.3432957e-09
5.9177324e-07
3.979236e-09
5.9100592e-07
2.6242507e-09
5.9047026e-07
1.2755032e-09
5.9015305e-07
-6.9947575e-11
5.9004677e-07
-1.4150535e-09
5.9014918e-07
-2.7626822e-09
5.9046324e-07
-4.1155196e-09
5.9099728e-07
-5.4759726e-09
5.917654e-07
-6.8460729e-09
5.9278839e-07
-8.2273895e-09
5.9409502e-07
-9.620966e-09
5.9572415e-07
-1.1027301e-08
5.9772778e-07
-1.2446319e-08
6.0017569e-07
-1.3877147e-08
6.0316053e-07
-1.5320042e-08
6.0680677e-07
-1.6796555e-08
6.113512e-07
-1.8397337e-08
6.1754027e-07
-2.0161475e-08
6.2708712e-07
-2.1272937e-08
6.392717e-07
-1.9197476e-08
6.3694837e-07
-1.190784e-08
5.7370476e-07
-2.9314742e-09
4.015191e-07
1.3952409e-07
2.2316944e-09
1.1197982e-07
1.0564252e-08
3.4679989e-07
1.9673642e-08
5.4247225e-07
2.3657279e-08
6.3806443e-07
2.3116391e-08
6.5267683e-07
2.1203706e-08
6.3912329e-07
1.9430055e-08
6.2616164e-07
1.7886824e-08
6.1799846e-07
1.6421964e-08
6.1240485e-07
1.4979142e-08
6.0802532e-07
1.3551544e-08
6.0444568e-07
1.2139144e-08
6.0150175e-07
1.0741524e-08
5.9907794e-07
9.358067e-09
5.9708576e-07
7.9879859e-09
5.9545936e-07
6.6302158e-09
5.9414967e-07
5.2833712e-09
5.9312009e-07
3.9457683e-09
5.9234353e-07
2.6154798e-09
5.9180055e-07
1.2904066e-09
5.9147812e-07
-3.1641397e-11
5.9136882e-07
-1.3528603e-09
5.914704e-07
-2.6753669e-09
5.9178575e-07
-4.0011099e-09
5.9232302e-07
-5.3317865e-09
5.9309608e-07
-6.6687627e-09
5.9412537e-07
-8.0130105e-09
5.9543927e-07
-9.3650778e-09
5.9707622e-07
-1.0725108e-08
5.9908781e-07
-1.2092841e-08
6.0154343e-07
-1.3467537e-08
6.0453523e-07
-1.4850991e-08
6.0819023e-07
-1.62696e-08
6.1276981e-07
-1.7812286e-08
6.1908296e-07
-1.9468103e-08
6.2874294e-07
-2.0335101e-08
6.401387e-07
-1.800327e-08
6.3461654e-07
-1.0891306e-08
5.665928e-07
-2.6272249e-09
3.9325502e-07
1.3689687e-07
2.074403e-09
1.0990548e-07
9.7303384e-09
3.3914408e-07
1.8483465e-08
5.3371923e-07
2.2677318e-08
6.3387062e-07
2.2441407e-08
6.5291274e-07
2.0668604e-08
6.4089609e-07
1.8944511e-08
6.2788573e-07
1.7445229e-08
6.1949774e-07
1.6031811e-08
6.1381827e-07
1.4641011e-08
6.0941612e-07
1.3262578e-08
6.0582411e-07
1.1895816e-08
6.0286852e-07
1.0540201e-08
6.0043355e-07
9.1951746e-09
5.9843079e-07
7.8601662e-09
5.9679436e-07
6.5344631e-09
5.9547537e-07
5.217131e-09
5.9443742e-07
3.9070085e-09
5.9365365e-07
2.6027391e-09
5.9310482e-07
1.302826e-09
5.9277804e-07
5.6986167e-12
5.9266595e-07
-1.2902176e-09
5.9276631e-07
-2.5864209e-09
5.9308195e-07
-3.8842642e-09
5.9362087e-07
-5.1848828e-09
5.943967e-07
-6.4891353e-09
5.9542962e-07
-7.7975642e-09
5.967477e-07
-9.1103974e-09
5.9838905e-07
-1.04276e-08
6.0040501e-07
-1.1748905e-08
6.0286473e-07
-1.3073922e-08
6.0586024e-07
-1.4406262e-08
6.0952257e-07
-1.5776723e-08
6.1414027e-07
-1.7269509e-08
6.2057574e-07
-1.8823068e-08
6.302965e-07
-1.9467165e-08
6.407828e-07
-1.6929734e-08
6.3207911e-07
-1.001974e-08
5.596828e-07
-2.3910948e-09
3.8562638e-07
1.3450577e-07
1.9413202e-09
1.0796423e-07
9.0033078e-09
3.3208224e-07
1.7401324e-08
5.2532135e-07
2.1755706e-08
6.295163e-07
2.180014e-08
6.5286832e-07
2.0166279e-08
6.4252994e-07
1.8489256e-08
6.2956275e-07
1.7026795e-08
6.209602e-07
1.5657552e-08
6.1518751e-07
1.4312853e-08
6.1076082e-07
1.2978879e-08
6.0715808e-07
1.1654095e-08
6.041933e-07
1.0337792e-08
6.0174986e-07
9.0293733e-09
5.9973921e-07
7.7283729e-09
5.9809536e-07
6.4343074e-09
5.9676944e-07
5.1465696e-09
5.9572516e-07
3.8643961e-09
5.9493582e-07
2.5868796e-09
5.9438234e-07
1.3130052e-09
5.9405191e-07
4.1702411e-11
5.9393725e-07
-1.2280971e-09
5.9403611e-07
-2.4973974e-09
5.9435125e-07
-3.7670782e-09
5.9489055e-07
-5.0378412e-09
5.9566746e-07
-6.3101691e-09
5.9670195e-07
-7.5843101e-09
5.9802184e-07
-8.8603063e-09
5.9966505e-07
-1.0138073e-08
6.0168278e-07
-1.1417453e-08
6.0414411e-07
-1.2698558e-08
6.0714135e-07
-1.3986976e-08
6.1081099e-07
-1.5317242e-08
6.1547054e-07
-1.6766089e-08
6.2202459e-07
-1.8221956e-08
6.3175236e-07
-1.8662472e-08
6.4122331e-07
-1.5961286e-08
6.2937792e-07
-9.2670186e-09
5.5298854e-07
-2.204111e-09
3.7856347e-07
1.3230166e-07
1.824905e-09
1.061394e-07
8.3636743e-09
3.2554364e-07
1.6413213e-08
5.1727197e-07
2.0886741e-08
6.2504285e-07
2.1188558e-08
6.5256651e-07
1.9692877e-08
6.4402562e-07
1.806209e-08
6.3119353e-07
1.6631106e-08
6.2239119e-07
1.5299995e-08
6.1651863e-07
1.3996292e-08
6.1206453e-07
1.2702606e-08
6.0845177e-07
1.1416442e-08
6.0547946e-07
1.0136853e-08
6.0302945e-07
8.8631495e-09
6.0101291e-07
7.5948906e-09
5.9936362e-07
6.3317308e-09
5.980326e-07
5.0732904e-09
5.969836e-07
3.8191023e-09
5.9619001e-07
2.5686049e-09
5.9563283e-07
1.3211616e-09
5.9529935e-07
7.6098049e-11
5.9518231e-07
-1.1672543e-09
5.9527946e-07
-2.4095086e-09
5.9559351e-07
-3.6511788e-09
5.9613222e-07
-4.8926405e-09
5.9690892e-07
-6.1341084e-09
5.9794341e-07
-7.3756419e-09
5.9926337e-07
-8.6171967e-09
6.009066e-07
-9.8587249e-09
6.0292431e-07
-1.1100258e-08
6.0538564e-07
-1.2342508e-08
6.083836e-07
-1.35931e-08
6.1206158e-07
-1.4889501e-08
6.1676694e-07
-1.6298517e-08
6.234336e-07
-1.7660118e-08
6.3311396e-07
-1.7914334e-08
6.4147753e-07
-1.5083894e-08
6.2654748e-07
-8.6116254e-09
5.4651627e-07
-2.052275e-09
3.7200412e-07
1.3024939e-07
1.7204377e-09
1.0441906e-07
7.7963637e-09
3.1946792e-07
1.5507513e-08
5.0956101e-07
2.0065554e-08
6.2048491e-07
2.0603258e-08
6.5202883e-07
1.9244864e-08
6.45384e-07
1.7660636e-08
6.3277775e-07
1.6257256e-08
6.2379456e-07
1.4959295e-08
6.1781659e-07
1.3692209e-08
6.1333161e-07
1.2435151e-08
6.0970883e-07
1.1184568e-08
6.0673004e-07
9.9392451e-09
6.0427477e-07
8.6983682e-09
6.0225379e-07
7.4614717e-09
6.0060052e-07
6.2282792e-09
5.9926579e-07
4.9985622e-09
5.9821331e-07
3.7720672e-09
5.974165e-07
2.5484917e-09
5.9685641e-07
1.3274896e-09
5.9652036e-07
1.0869302e-10
5.9640111e-07
-1.1082561e-09
5.9649641e-07
-2.323671e-09
5.9680892e-07
-3.5377892e-09
5.9734634e-07
-4.7507492e-09
5.9812188e-07
-5.9625836e-09
5.9915525e-07
-7.1732436e-09
6.0047403e-07
-8.3826694e-09
6.0211603e-07
-9.5909056e-09
6.0413254e-07
-1.0798217e-08
6.0659296e-07
-1.2005982e-08
6.0959136e-07
-1.3223835e-08
6.1327943e-07
-1.4491288e-08
6.1803439e-07
-1.5863107e-08
6.2480542e-07
-1.7133048e-08
6.343839e-07
-1.7216477e-08
6.4156096e-07
-1.4285316e-08
6.2361632e-07
-8.0361183e-09
5.4026707e-07
-1.9254865e-09
3.6589349e-07
1.283239e-07
1.6250482e-09
1.0279412e-07
7.2896779e-09
3.1380353e-07
1.4674606e-08
5.0217632e-07
1.9288057e-08
6.1587159e-07
2.0041465e-08
6.5127544e-07
1.8819127e-08
6.4660633e-07
1.7282538e-08
6.3431434e-07
1.5904069e-08
6.2517303e-07
1.4635179e-08
6.1908548e-07
1.3400965e-08
6.1456583e-07
1.2177336e-08
6.1093246e-07
1.0959609e-08
6.0794777e-07
9.7462778e-09
6.054881e-07
8.5363934e-09
6.0346367e-07
7.3294311e-09
6.0180748e-07
6.1251367e-09
6.0047008e-07
4.9233734e-09
5.9941508e-07
3.7240355e-09
5.9861584e-07
2.5270095e-09
5.9805344e-07
1.3321656e-09
5.977152e-07
1.3936789e-10
5.9759391e-07
-1.0515075e-09
5.9768729e-07
-2.2405492e-09
5.9799796e-07
-3.4277932e-09
5.9853358e-07
-4.613212e-09
5.993073e-07
-5.7967237e-09
6.0033876e-07
-6.9782304e-09
6.0165554e-07
-8.1577054e-09
6.032955e-07
-9.3353179e-09
6.0531016e-07
-1.051159e-08
6.0776923e-07
-1.1688604e-08
6.1076838e-07
-1.2877912e-08
6.1446874e-07
-1.4120139e-08
6.1927662e-07
-1.545626e-08
6.2614154e-07
-1.6636608e-08
6.3556425e-07
-1.6563261e-08
6.4148761e-07
-1.3555095e-08
6.2060816e-07
-7.5265152e-09
5.3423849e-07
-1.8166128e-09
3.6018358e-07
1.2650729e-07
1.5370278e-09
1.0125722e-07
6.8344639e-09
3.0850637e-07
1.3906499e-08
4.9510456e-07
1.8550843e-08
6.112274e-07
1.9500964e-08
6.5032536e-07
1.8412994e-08
6.4769429e-07
1.6925567e-08
6.3580176e-07
1.5570246e-08
6.2652835e-07
1.4327104e-08
6.2032862e-07
1.3122561e-08
6.1577037e-07
1.1929569e-08
6.1212545e-07