/*--------------------------------*- C++ -*----------------------------------*\
  =========                 |
  \\      /  F ield         | OpenFOAM: The Open Source CFD Toolbox
   \\    /   O peration     | Website:  https://openfoam.org
    \\  /    A nd           | Version:  10
     \\/     M anipulation  |
\*---------------------------------------------------------------------------*/
FoamFile
{
    format      ascii;
    class       surfaceScalarField;
    location    "0.26";
    object      phi_0;
}
// * * * * * * * * * * * * * * * * * * * * * * * * * * * * * * * * * * * * * //

dimensions      [1 0 -1 0 0 0 0];

internalField   nonuniform List<scalar> 
7860
(
3.9896008e-08
5.2881203e-07
1.2192742e-08
5.9641107e-07
7.4279223e-09
5.7347257e-07
5.4994439e-09
5.7063619e-07
4.1150204e-09
5.700921e-07
3.201164e-09
5.6962151e-07
2.5591652e-09
5.6934964e-07
2.0793307e-09
5.6918746e-07
1.7093322e-09
5.6907761e-07
1.4166464e-09
5.6900029e-07
1.1794778e-09
5.6894476e-07
9.8306365e-10
5.68904e-07
8.1706052e-10
5.6887359e-07
6.7397833e-10
5.6885066e-07
5.4824405e-10
5.6883331e-07
4.3559719e-10
5.6882022e-07
3.3268427e-10
5.6881048e-07
2.3677821e-10
5.6880347e-07
1.4557625e-10
5.6879877e-07
5.7047494e-11
5.6879609e-07
-3.0690537e-11
5.687953e-07
-1.1947992e-10
5.6879635e-07
-2.1122677e-10
5.6879931e-07
-3.0800823e-10
5.6880435e-07
-4.1220492e-10
5.6881176e-07
-5.2666342e-10
5.6882203e-07
-6.5491742e-10
5.6883583e-07
-8.0150054e-10
5.6885416e-07
-9.7240672e-10
5.6887849e-07
-1.175797e-09
5.6891098e-07
-1.4231726e-09
5.6895497e-07
-1.7313448e-09
5.6901577e-07
-2.1252913e-09
5.6910156e-07
-2.6448936e-09
5.6922723e-07
-3.3725652e-09
5.6943531e-07
-4.4638558e-09
5.6979895e-07
-6.0091668e-09
5.7025299e-07
-9.5081539e-09
5.722067e-07
-2.9576012e-08
5.8877562e-07
5.3913192e-07
5.9672553e-08
4.6913948e-07
3.6666021e-08
6.194176e-07
2.2628198e-08
5.8751039e-07
1.625361e-08
5.7701078e-07
1.2290547e-08
5.7405517e-07
9.6062914e-09
5.7230577e-07
7.6775023e-09
5.7127843e-07
6.236144e-09
5.7062882e-07
5.1266203e-09
5.7018713e-07
4.2488587e-09
5.6987805e-07
3.5375248e-09
5.696561e-07
2.9484501e-09
5.6949308e-07
2.4505895e-09
5.6937145e-07
2.0214678e-09
5.6927978e-07
1.6443708e-09
5.6921041e-07
1.3065214e-09
5.6915807e-07
9.9786254e-10
5.6911914e-07
7.1021617e-10
5.6909112e-07
4.3667687e-10
5.6907231e-07
1.7115327e-10
5.6906162e-07
-9.2000558e-11
5.6905846e-07
-3.5830751e-10
5.6906266e-07
-6.3347939e-10
5.6907448e-07
-9.2374813e-10
5.6909462e-07
-1.2362525e-09
5.6912427e-07
-1.5795292e-09
5.6916531e-07
-1.9641751e-09
5.6922047e-07
-2.4037857e-09
5.6929377e-07
-2.9163438e-09
5.6939105e-07
-3.5263413e-09
5.6952097e-07
-4.2681967e-09
5.6969682e-07
-5.1922747e-09
5.6993985e-07
-6.3751991e-09
5.7028448e-07
-7.9356864e-09
5.7078771e-07
-1.0076958e-08
5.7157658e-07
-1.3205136e-08
5.7292713e-07
-1.8134986e-08
5.7518284e-07
-2.8177214e-08
5.8224893e-07
-4.5803114e-08
6.0640152e-07
4.933288e-07
6.0008877e-08
4.091306e-07
5.0487336e-08
6.2893914e-07
3.3370731e-08
6.04627e-07
2.4817742e-08
5.8556376e-07
1.9323322e-08
5.7954959e-07
1.5331581e-08
5.7629751e-07
1.2360804e-08
5.742492e-07
1.0101639e-08
5.7288798e-07
8.3407083e-09
5.7194806e-07
6.9348923e-09
5.7128387e-07
5.7881121e-09
5.7080288e-07
4.8336031e-09
5.7044759e-07
4.0236011e-09
5.7018145e-07
3.3231208e-09
5.6998026e-07
2.7058989e-09
5.6982763e-07
2.1517037e-09
5.6971226e-07
1.6445101e-09
5.6962633e-07
1.1712192e-09
5.6956441e-07
7.207242e-10
5.695228e-07
2.8319732e-10
5.6949914e-07
-1.5048735e-10
5.6949214e-07
-5.8926028e-10
5.6950143e-07
-1.0423495e-09
5.6952757e-07
-1.5198009e-09
5.6957207e-07
-2.0330807e-09
5.6963755e-07
-2.5958353e-09
5.6972806e-07
-3.2249027e-09
5.6984954e-07
-3.9417237e-09
5.7001059e-07
-4.7743918e-09
5.7022371e-07
-5.7607167e-09
5.705073e-07
-6.9528826e-09
5.7088899e-07
-8.4250871e-09
5.7141206e-07
-1.0286727e-08
5.7214612e-07
-1.2699673e-08
5.7320066e-07
-1.5897082e-08
5.7477399e-07
-2.0240837e-08
5.7727088e-07
-2.6709086e-08
5.8165109e-07
-3.8948568e-08
5.9448841e-07
-4.8167636e-08
6.1562058e-07
4.4516117e-07
5.4879106e-08
3.5425149e-07
5.7452274e-08
6.2636598e-07
4.0467636e-08
6.2161163e-07
3.0778845e-08
5.9525256e-07
2.4643141e-08
5.8568529e-07
1.9952388e-08
5.8098826e-07
1.6313031e-08
5.7788856e-07
1.3466616e-08
5.757344e-07
1.1201028e-08
5.7421365e-07
9.3645621e-09
5.7312033e-07
7.8493347e-09
5.723181e-07
6.5768579e-09
5.7172006e-07
5.4892863e-09
5.7126902e-07
4.543308e-09
5.7092624e-07
3.705829e-09
5.7066511e-07
2.9509931e-09
5.704671e-07
2.2580836e-09
5.7031924e-07
1.6100061e-09
5.7021249e-07
9.9215615e-10
5.7014065e-07
3.9154019e-10
5.7009976e-07
-2.0394825e-10
5.7008763e-07
-8.0616853e-10
5.7010365e-07
-1.4273539e-09
5.7014876e-07
-2.0807661e-09
5.7022548e-07
-2.781446e-09
5.7033823e-07
-3.5471411e-09
5.7049375e-07
-4.3995132e-09
5.7070191e-07
-5.3657711e-09
5.7097685e-07
-6.4809512e-09
5.7133889e-07
-7.7911778e-09
5.7181753e-07
-9.35823e-09
5.7245604e-07
-1.1265927e-08
5.7331975e-07
-1.3630533e-08
5.7451073e-07
-1.661339e-08
5.7618352e-07
-2.0412268e-08
5.7857287e-07
-2.529384e-08
5.8215245e-07
-3.2518067e-08
5.8887532e-07
-4.5101665e-08
6.0707201e-07
-4.654984e-08
6.1706876e-07
3.9861133e-07
4.7965824e-08
3.0628567e-07
6.0076655e-08
6.1425515e-07
4.5400276e-08
6.3628801e-07
3.4875473e-08
6.0577736e-07
2.8399968e-08
5.9216079e-07
2.341972e-08
5.8596851e-07
1.9434385e-08
5.8187389e-07
1.6229227e-08
5.7893955e-07
1.3619731e-08
5.7682315e-07
1.146649e-08
5.7527357e-07
9.6643794e-09
5.7412021e-07
8.1333591e-09
5.7325108e-07
6.8124073e-09
5.7258997e-07
5.6545127e-09
5.7208413e-07
4.622901e-09
5.7169672e-07
3.6882868e-09
5.7140171e-07
2.8268325e-09
5.711807e-07
2.0186098e-09
5.7102071e-07
1.2464148e-09
5.7091285e-07
4.948234e-10
5.7085135e-07
-2.5060216e-10
5.7083305e-07
-1.004023e-09
5.7085707e-07
-1.7800143e-09
5.7092475e-07
-2.5942874e-09
5.7103975e-07
-3.4645061e-09
5.7120845e-07
-4.4112704e-09
5.7144052e-07
-5.4593565e-09
5.7175e-07
-6.6393262e-09
5.7215682e-07
-7.9896539e-09
5.7268922e-07
-9.5596001e-09
5.7338747e-07
-1.1412987e-08
5.7430943e-07
-1.3632624e-08
5.7553939e-07
-1.6326813e-08
5.7720492e-07
-1.9639152e-08
5.7949585e-07
-2.3739903e-08
5.8267362e-07
-2.8931986e-08
5.8734454e-07
-3.6792237e-08
5.9673557e-07
-4.8464803e-08
6.1874457e-07
-4.3194808e-08
6.1179876e-07
3.5541652e-07
4.0336123e-08
2.6594955e-07
5.8994273e-08
5.95597e-07
4.8330295e-08
6.4695199e-07
3.7588271e-08
6.1651938e-07
3.0929075e-08
5.9881999e-07
2.5894177e-08
5.9100341e-07
2.1780169e-08
5.859879e-07
1.8392201e-08
5.8232752e-07
1.5577616e-08
5.7963773e-07
1.3214366e-08
5.7763682e-07
1.1206511e-08
5.7612807e-07
9.4787628e-09
5.7497883e-07
7.9719786e-09
5.7409676e-07
6.6392558e-09
5.7341686e-07
5.4429689e-09
5.72893e-07
4.3525014e-09
5.7249218e-07
3.3424667e-09
5.7219073e-07
2.3913083e-09
5.7197187e-07
1.4801818e-09
5.7182397e-07
5.9203473e-10
5.717395e-07
-2.8918436e-10
5.7171427e-07
-1.1792429e-09
5.7174713e-07
-2.0943272e-09
5.7183983e-07
-3.0517705e-09
5.719972e-07
-4.0708591e-09
5.7222754e-07
-5.1737784e-09
5.7254344e-07
-6.3867646e-09
5.7296298e-07
-7.7415395e-09
5.7351159e-07
-9.2771077e-09
5.7422479e-07
-1.1042065e-08
5.7515243e-07
-1.309763e-08
5.7636499e-07
-1.5521068e-08
5.7796283e-07
-1.8409776e-08
5.8009362e-07
-2.1887927e-08
5.8297401e-07
-2.6111303e-08
5.8689699e-07
-3.1489438e-08
5.9272267e-07
-3.9655766e-08
6.049019e-07
-4.9173488e-08
6.282623e-07
-3.857906e-08
6.0120434e-07
3.1683746e-07
3.2862786e-08
2.3308676e-07
5.5250235e-08
5.7320955e-07
4.9232511e-08
6.5296971e-07
3.9061757e-08
6.2669013e-07
3.2430894e-08
6.0545085e-07
2.7518993e-08
5.9591531e-07
2.3438925e-08
5.9006797e-07
2.0003114e-08
5.8576333e-07
1.7095011e-08
5.8254584e-07
1.4612393e-08
5.8011944e-07
1.2471473e-08
5.7826899e-07
1.0605002e-08
5.768453e-07
8.9587406e-09
5.7574302e-07
7.4884975e-09
5.748871e-07
6.1579445e-09
5.7422356e-07
4.9368572e-09
5.7371327e-07
3.7996723e-09
5.7332792e-07
2.7243112e-09
5.7304723e-07
1.6912033e-09
5.7285708e-07
6.8245537e-10
5.7274825e-07
-3.1888079e-10
5.7271561e-07
-1.3294826e-09
5.7275773e-07
-2.3664223e-09
5.7287677e-07
-3.4478509e-09
5.7307862e-07
-4.5937389e-09
5.7337342e-07
-5.8267241e-09
5.7377642e-07
-7.1731084e-09
5.7430937e-07
-8.664059e-09
5.7500254e-07
-1.0337058e-08
5.7589779e-07
-1.2237679e-08
5.7705305e-07
-1.4421974e-08
5.7854929e-07
-1.695937e-08
5.8050022e-07
-1.9934708e-08
5.8306896e-07
-2.3448762e-08
5.8648806e-07
-2.7642953e-08
5.9109118e-07
-3.3035732e-08
5.9811545e-07
-4.1012049e-08
6.1287821e-07
-4.7688957e-08
6.349392e-07
-3.3376704e-08
5.8689208e-07
2.8346075e-07
2.6189092e-08
2.0689768e-07
5.0132958e-08
5.4926569e-07
4.8493887e-08
6.5460879e-07
3.9491349e-08
6.3569267e-07
3.3077737e-08
6.1186446e-07
2.8412318e-08
6.0058073e-07
2.4493197e-08
5.9398709e-07
2.1118514e-08
5.8913801e-07
1.820739e-08
5.8545696e-07
1.5680597e-08
5.8264623e-07
1.3469e-08
5.8048059e-07
1.1515422e-08
5.7879888e-07
9.7723486e-09
5.7748609e-07
8.1999908e-09
5.7645946e-07
6.7648191e-09
5.7565873e-07
5.4382902e-09
5.750398e-07
4.195759e-09
5.7457045e-07
3.0155555e-09
5.7422743e-07
1.8781868e-09
5.7399445e-07
7.6563408e-10
5.738608e-07
-3.3928359e-10
5.7382053e-07
-1.4535053e-09
5.7387196e-07
-2.5943213e-09
5.7401759e-07
-3.7799754e-09
5.7426428e-07
-5.0303081e-09
5.7462376e-07
-6.3674711e-09
5.7511359e-07
-7.8167398e-09
5.7575864e-07
-9.4074606e-09
5.7659326e-07
-1.1174158e-08
5.7766449e-07
-1.3157806e-08
5.790367e-07
-1.5407472e-08
5.8079896e-07
-1.798244e-08
5.8307519e-07
-2.0952163e-08
5.8603868e-07
-2.4391829e-08
5.8992772e-07
-2.8436975e-08
5.9513633e-07
-3.3692892e-08
6.0337137e-07
-4.1064179e-08
6.202495e-07
-4.4798542e-08
6.3867357e-07
-2.820504e-08
5.7029858e-07
2.5525571e-07
2.0571005e-08
1.8632668e-07
4.4583479e-08
5.2525322e-07
4.6643299e-08
6.5254897e-07
3.9153546e-08
6.4318242e-07
3.3084167e-08
6.1793384e-07
2.8717972e-08
6.0494692e-07
2.5038506e-08
5.9766656e-07
2.1804149e-08
5.9237237e-07
1.8959584e-08
5.8830152e-07
1.6448761e-08
5.8515706e-07
1.4218182e-08
5.8271116e-07
1.2221667e-08
5.8079539e-07
1.0419436e-08
5.7928832e-07
8.7771334e-09
5.7810176e-07
7.2650069e-09
5.7717085e-07
5.8570915e-09
5.7644771e-07
4.5304714e-09
5.7589707e-07
3.264614e-09
5.7549329e-07
2.0407626e-09
5.752183e-07
8.4138014e-10
5.7506018e-07
-3.5037164e-10
5.7501228e-07
-1.5511279e-09
5.7507271e-07
-2.7778183e-09
5.7524428e-07
-4.048168e-09
5.7553463e-07
-5.3812224e-09
5.7595681e-07
-6.7979128e-09
5.7653028e-07
-8.3216743e-09
5.772824e-07
-9.9791298e-09
5.7825072e-07
-1.1800858e-08
5.7948621e-07
-1.3822186e-08
5.8105802e-07
-1.6084101e-08
5.8306087e-07
-1.8634454e-08
5.8562554e-07
-2.1526348e-08
5.8893058e-07
-2.48138e-08
5.9321518e-07
-2.864304e-08
5.9896557e-07
-3.3661458e-08
6.0838978e-07
-4.0145474e-08
6.2673352e-07
-4.1160305e-08
6.396884e-07
-2.3417448e-08
5.5255572e-07
2.3183827e-07
1.6015586e-08
1.703111e-07
3.9144227e-08
5.0212459e-07
4.4118989e-08
6.4757421e-07
3.8290073e-08
6.4901134e-07
3.2654317e-08
6.235696e-07
2.8592015e-08
6.0900922e-07
2.5184027e-08
6.0107454e-07
2.2136392e-08
5.9542001e-07
1.9405219e-08
5.910327e-07
1.6954452e-08
5.8760782e-07
1.4745114e-08
5.849205e-07
1.2741609e-08
5.827989e-07
1.0912025e-08
5.811179e-07
9.2278419e-09
5.7978594e-07
7.6635877e-09
5.7873511e-07
6.1964162e-09
5.7791488e-07
4.8056822e-09
5.772878e-07
3.4725139e-09
5.7682646e-07
2.1793916e-09
5.7651142e-07
9.0973931e-10
5.7632983e-07
-3.5247192e-10
5.7627449e-07
-1.623111e-09
5.7634335e-07
-2.9182786e-09
5.7653945e-07
-4.2546976e-09
5.7687105e-07
-5.6501128e-09
5.7735222e-07
-7.123705e-09
5.7800387e-07
-8.6965189e-09
5.7885521e-07
-1.0391901e-08
5.799461e-07
-1.2235956e-08
5.8133027e-07
-1.4257966e-08
5.8308003e-07
-1.6490755e-08
5.8529366e-07
-1.8971074e-08
5.8810586e-07
-2.173706e-08
5.9169656e-07
-2.4829188e-08
5.963073e-07
-2.841636e-08
6.0255274e-07
-3.3125795e-08
6.1309922e-07
-3.8550859e-08
6.3215858e-07
-3.7216741e-08
6.3835428e-07
-1.9183328e-08
5.3452231e-07
2.1265494e-07
1.2423875e-08
1.5788723e-07
3.4114302e-08
4.8043417e-07
4.1250167e-08
6.4043835e-07
3.7079086e-08
6.5318242e-07
3.1942321e-08
6.2870636e-07
2.8169174e-08
6.1278237e-07
2.5033396e-08
6.0421032e-07
2.2192493e-08
5.9826091e-07
1.9601396e-08
5.9362379e-07
1.723952e-08
5.899697e-07
1.5080235e-08
5.8707979e-07
1.3097226e-08
5.8478191e-07
1.1265857e-08
5.8294927e-07
9.5632756e-09
5.8148852e-07
7.9683634e-09
5.8033002e-07
6.4616097e-09
5.7942163e-07
5.0249307e-09
5.7872448e-07
3.6414422e-09
5.7820995e-07
2.2952035e-09
5.7785766e-07
9.7094807e-10
5.7765409e-07
-3.4619487e-10
5.7759163e-07
-1.670978e-09
5.7766813e-07
-3.0183227e-09
5.7788679e-07
-4.4035995e-09
5.7825632e-07
-5.8429063e-09
5.7879153e-07
-7.3533427e-09
5.795143e-07
-8.9532684e-09
5.8045514e-07
-1.0662537e-08
5.8165537e-07
-1.2502702e-08
5.8317043e-07
-1.4497182e-08
5.8507451e-07
-1.6671291e-08
5.8746777e-07
-1.9051917e-08
5.9048649e-07
-2.1664551e-08
5.943092e-07
-2.4543391e-08
5.9918614e-07
-2.7883002e-08
6.0589235e-07
-3.2228597e-08
6.1744481e-07
-3.6522474e-08
6.3645246e-07
-3.3269125e-08
6.3510093e-07
-1.5564362e-08
5.1681755e-07
1.9709058e-07
9.6572523e-09
1.4822999e-07
2.9646017e-08
4.6044542e-07
3.8283489e-08
6.3180088e-07
3.5658755e-08
6.5580715e-07
3.105936e-08
6.3330576e-07
2.7553817e-08
6.1628791e-07
2.4673182e-08
6.0709096e-07
2.2041227e-08
6.0089286e-07
1.9601984e-08
5.9606304e-07
1.7345482e-08
5.922262e-07
1.5255108e-08
5.8917016e-07
1.331228e-08
5.8672474e-07
1.1498665e-08
5.8476289e-07
9.7965345e-09
5.8319065e-07
8.1888857e-09
5.8193767e-07
6.6594966e-09
5.8095102e-07
5.1929215e-09
5.8019105e-07
3.7744157e-09
5.7962845e-07
2.3898143e-09
5.7924226e-07
1.0253812e-09
5.7901852e-07
-3.3236124e-10
5.7894937e-07
-1.6968117e-09
5.7903258e-07
-3.0814772e-09
5.7927146e-07
-4.5001539e-09
5.79675e-07
-5.9670964e-09
5.8025847e-07
-7.4971706e-09
5.8104438e-07
-9.1059764e-09
5.8206394e-07
-1.0809924e-08
5.8335932e-07
-1.2626262e-08
5.8498677e-07
-1.4573072e-08
5.8702132e-07
-1.6669093e-08
5.8956379e-07
-1.8932801e-08
5.9275019e-07
-2.1379704e-08
5.967561e-07
-2.4043937e-08
6.0185038e-07
-2.7141833e-08
6.0899025e-07
-3.1088025e-08
6.21391e-07
-3.4264453e-08
6.3962889e-07
-2.9522604e-08
6.3035908e-07
-1.2555913e-08
4.9985086e-07
1.8453466e-07
7.5668958e-09
1.406631e-07
2.5787035e-08
4.422253e-07
3.5389814e-08
6.2219811e-07
3.4138936e-08
6.5705803e-07
3.0088425e-08
6.3735627e-07
2.6825933e-08
6.195504e-07
2.4173068e-08
6.0974382e-07
2.1740372e-08
6.0332556e-07
1.9454264e-08
5.9834915e-07
1.7310392e-08
5.9437007e-07
1.5299876e-08
5.9118068e-07
1.3410334e-08
5.8861428e-07
1.1628649e-08
5.8654457e-07
9.9415058e-09
5.848778e-07
8.335587e-09
5.8354359e-07
6.7977372e-09
5.8248887e-07
5.3150653e-09
5.8167373e-07
3.8749768e-09
5.8106854e-07
2.4651546e-09
5.8065208e-07
1.0735032e-09
5.8041017e-07
-3.1193258e-10
5.8033481e-07
-1.7030612e-09
5.8042371e-07
-3.1118464e-09
5.8068024e-07
-4.5504013e-09
5.8111355e-07
-6.0310671e-09
5.8173914e-07
-7.5664683e-09
5.8257978e-07
-9.1695314e-09
5.8366701e-07
-1.085345e-08
5.8504323e-07
-1.2631595e-08
5.8676492e-07
-1.4517395e-08
5.8890712e-07
-1.6524035e-08
5.9157043e-07
-1.8663111e-08
5.9488927e-07
-2.0943128e-08
5.9903612e-07
-2.3403269e-08
6.0431052e-07
-2.6273219e-08
6.118602e-07
-2.9805146e-08
6.2492293e-07
-3.1938446e-08
6.4176219e-07
-2.609953e-08
6.2452016e-07
-1.0111337e-08
4.8386266e-07
1.7442333e-07
6.0122322e-09
1.3465088e-07
2.2515575e-08
4.2572199e-07
3.2671001e-08
6.120427e-07
3.260007e-08
6.5712896e-07
2.9089607e-08
6.4086673e-07
2.6045692e-08
6.2259432e-07
2.358839e-08
6.1220112e-07
2.1337506e-08
6.0557644e-07
1.9198428e-08
6.0048822e-07
1.7167692e-08
5.9640081e-07
1.5241921e-08
5.9310645e-07
1.3413484e-08
5.9044271e-07
1.1673393e-08
5.8828466e-07
1.0011974e-08
5.8653921e-07
8.4190793e-09
5.8513648e-07
6.8842934e-09
5.8402366e-07
5.3970894e-09
5.8316093e-07
3.9469306e-09
5.825187e-07
2.5233222e-09
5.8207569e-07
1.1158265e-09
5.8181767e-07
-2.8594818e-10
5.8173658e-07
-1.6923718e-09
5.8183014e-07
-3.1138253e-09
5.8210169e-07
-4.5607238e-09
5.8256045e-07
-6.0435246e-09
5.8322194e-07
-7.5727085e-09
5.8410896e-07
-9.1587238e-09
5.8525302e-07
-1.0811881e-08
5.8669639e-07
-1.2542194e-08
5.8849523e-07
-1.4359202e-08
5.9072413e-07
-1.6271595e-08
5.9348282e-07
-1.8285671e-08
5.9690335e-07
-2.0406014e-08
6.0115646e-07
-2.2680412e-08
6.0658492e-07
-2.5340757e-08
6.1452054e-07
-2.846056e-08
6.2804273e-07
-2.9658656e-08
6.4296028e-07
-2.3055173e-08
6.1791668e-07
-8.1621874e-09
4.6896968e-07
1.6626114e-07
4.8705579e-09
1.2978034e-07
1.9773089e-08
4.1081949e-07
3.0175323e-08
6.0164049e-07
3.1094505e-08
6.5620978e-07
2.8102403e-08
6.4385883e-07
2.5255385e-08
6.2544133e-07
2.2961274e-08
6.1449523e-07
2.087068e-08
6.0766704e-07
1.8867752e-08
6.0249115e-07
1.694594e-08
5.9832262e-07
1.5105316e-08
5.9494707e-07
1.334169e-08
5.9220634e-07
1.1649183e-08
5.8997717e-07
1.0021005e-08
5.8816739e-07
8.4496331e-09
5.8670785e-07
6.927011e-09
5.8554628e-07
5.4447229e-09
5.8464322e-07
3.9941282e-09
5.8396929e-07
2.5664575e-09
5.8350336e-07
1.1528773e-09
5.8323125e-07
-2.554703e-10
5.8314493e-07
-1.6674395e-09
5.832421e-07
-3.0918596e-09
5.8352611e-07
-4.5375055e-09
5.840061e-07
-6.0130533e-09
5.8469749e-07
-7.5270096e-09
5.8562292e-07
-9.087609e-09
5.8681362e-07
-1.0702671e-08
5.8831145e-07
-1.2379415e-08
5.9017197e-07
-1.4124273e-08
5.9246899e-07
-1.5942468e-08
5.9530102e-07
-1.7836528e-08
5.9879741e-07
-1.9809927e-08
6.0312986e-07
-2.1920791e-08
6.0869578e-07
-2.4391195e-08
6.1699095e-07
-2.7113025e-08
6.3076456e-07
-2.7497195e-08
6.4334445e-07
-2.0398904e-08
6.1081839e-07
-6.6328159e-09
4.5520359e-07
1.5962832e-07
4.0395134e-09
1.2574085e-07
1.7487099e-08
3.9737194e-07
2.7916744e-08
5.9121087e-07
2.9652872e-08
6.5447366e-07
2.7150018e-08
6.4636168e-07
2.4482207e-08
6.2810914e-07
2.2321867e-08
6.1665557e-07
2.036897e-08
6.0961993e-07
1.8488809e-08
6.0437131e-07
1.6668767e-08
6.0014266e-07
1.4910591e-08
5.9670525e-07
1.3212425e-08
5.9390451e-07
1.1570616e-08
5.9161898e-07
9.9805558e-09
5.8975745e-07
8.4368189e-09
5.8825159e-07
6.9333166e-09
5.8704978e-07
5.463459e-09
5.8611307e-07
4.0202984e-09
5.8541245e-07
2.5966468e-09
5.8492701e-07
1.1851698e-09
5.8464272e-07
-2.2153889e-10
5.8455164e-07
-1.6308935e-09
5.8465146e-07
-3.0502565e-09
5.8494548e-07
-4.4868726e-09
5.8544271e-07
-5.9477883e-09
5.861584e-07
-7.4397512e-09
5.8711488e-07
-8.9690822e-09
5.8834295e-07
-1.0541522e-08
5.8988389e-07
-1.2162054e-08
5.917925e-07
-1.3834734e-08
5.9414167e-07
-1.5562252e-08
5.9702853e-07
-1.7344732e-08
6.0057989e-07
-1.9186843e-08
6.0497197e-07
-2.115714e-08
6.1066608e-07
-2.3456531e-08
6.1929034e-07
-2.5802306e-08
6.3311034e-07
-2.5493834e-08
6.4303598e-07
-1.8112201e-08
6.0343675e-07
-5.4488512e-09
4.4254024e-07
1.5417947e-07
3.4364227e-09
1.2230445e-07
1.5583794e-08
3.8522462e-07
2.5888651e-08
5.8090605e-07
2.8290595e-08
6.5207173e-07
2.6244326e-08
6.4840794e-07
2.3742051e-08
6.3061141e-07
2.1690483e-08
6.1870714e-07
1.9853599e-08
6.1145682e-07
1.8082019e-08
6.0614289e-07
1.635508e-08
6.018696e-07
1.4674724e-08
5.983856e-07
1.3040546e-08
5.9553868e-07
1.1450394e-08
5.9320913e-07
9.9012421e-09
5.913066e-07
8.3892814e-09
5.8976355e-07
6.9100154e-09
5.8852905e-07
5.4583901e-09
5.875647e-07
4.0289287e-09
5.8684191e-07
2.6158525e-09
5.8634009e-07
1.2131886e-09
5.8604539e-07
-1.8513608e-10
5.8594996e-07
-1.5852086e-09
5.8605153e-07
-2.9930463e-09
5.8635331e-07
-4.4145068e-09
5.8686417e-07
-5.8551892e-09
5.8759908e-07
-7.3203177e-09
5.8858001e-07
-8.8146081e-09
5.8983724e-07
-1.0342123e-08
5.9141141e-07
-1.1906124e-08
5.933565e-07
-1.3508934e-08
5.9574448e-07
-1.51515e-08
5.986711e-07
-1.6832712e-08
6.022611e-07
-1.8560185e-08
6.0669944e-07
-2.0411702e-08
6.1251759e-07
-2.2557273e-08
6.2143591e-07
-2.4553274e-08
6.3510634e-07
-2.3665421e-08
6.4214813e-07
-1.616109e-08
5.9593242e-07
-4.5418824e-09
4.3092103e-07
1.4963759e-07
2.9966551e-09
1.1930783e-07
1.3994709e-08
3.7422663e-07
2.407319e-08
5.7082762e-07
2.7012833e-08
6.491321e-07
2.538972e-08
6.5003105e-07
2.3042947e-08
6.3295818e-07
2.1079985e-08
6.206701e-07
1.9339447e-08
6.1319735e-07
1.7662563e-08
6.0781978e-07
1.6019561e-08
6.035126e-07
1.4411369e-08
5.9999379e-07
1.2838345e-08
5.9711171e-07
1.1299282e-08
5.9474819e-07
9.7922434e-09
5.9281364e-07
8.3146223e-09
5.9124117e-07
6.8631743e-09
5.899805e-07
5.4341063e-09
5.8899377e-07
4.0231885e-09
5.8825283e-07
2.6258683e-09
5.8773741e-07
1.2373785e-09
5.8743388e-07
-1.4716079e-10
5.873345e-07
-1.5326449e-09
5.8743701e-07
-2.9238886e-09
5.8774456e-07
-4.3255256e-09
5.8826581e-07
-5.741901e-09
5.8901546e-07
-7.1769539e-09
5.9001506e-07
-8.6340917e-09
5.9129438e-07
-1.0116066e-08
5.9289338e-07
-1.1624864e-08
5.948653e-07
-1.3161611e-08
5.9728123e-07
-1.4726168e-08
6.0023566e-07
-1.6317161e-08
6.0385209e-07
-1.7946337e-08
6.0832862e-07
-1.9698587e-08
6.1426984e-07
-2.1705299e-08
6.2344262e-07
-2.337943e-08
6.3678047e-07
-2.2013136e-08
6.4078183e-07
-1.4504537e-08
5.8842382e-07
-3.8520112e-09
4.2026851e-07
1.4578558e-07
2.671372e-09
1.1663649e-07
1.2660102e-08
3.6423797e-07
2.2447617e-08
5.6104016e-07
2.5818232e-08
6.457615e-07
2.4585815e-08
6.5126347e-07
2.2387616e-08
6.3515638e-07
2.0497793e-08
6.2255993e-07
1.8836498e-08
6.1485865e-07
1.7241393e-08
6.0941488e-07
1.5673315e-08
6.0508068e-07
1.413124e-08
6.0153587e-07
1.261576e-08
5.9862719e-07
1.1126196e-08
5.9623776e-07
9.6613148e-09
5.9427852e-07
8.2193701e-09
5.9268312e-07
6.7980748e-09
5.9140179e-07
5.3946462e-09
5.903972e-07
4.0058893e-09
5.8964159e-07
2.6282948e-09
5.89115e-07
1.2581397e-09
5.8880403e-07
-1.0841188e-10
5.8870105e-07
-1.4752099e-09
5.8880381e-07
-2.8460195e-09
5.8911537e-07
-4.2244181e-09
5.8964421e-07
-5.6136904e-09
5.9040473e-07
-7.0167181e-09
5.9141809e-07
-8.4358703e-09
5.9271353e-07
-9.8729087e-09
5.9433042e-07
-1.1328925e-08
5.9632132e-07
-1.2804276e-08
5.9875658e-07
-1.4298256e-08
6.0172964e-07
-1.5810009e-08
6.0536384e-07
-1.7356079e-08
6.0987469e-07
-1.9025747e-08
6.1593951e-07
-2.0906115e-08
6.2532299e-07
-2.2285918e-08
6.3816027e-07
-2.0528289e-08
6.390242e-07
-1.3100037e-08
5.8099557e-07
-3.3288316e-09
4.104973e-07
1.4245674e-07
2.424833e-09
1.142117e-07
1.1530059e-08
3.5513284e-07
2.0988385e-08
5.5158191e-07
2.4701815e-08
6.420481e-07
2.3829448e-08
6.5213583e-07
2.1775359e-08
6.3721046e-07
1.9947449e-08
6.2438783e-07
1.8351042e-08
6.1645506e-07
1.6826129e-08
6.1093979e-07
1.5324527e-08
6.0658228e-07
1.3842559e-08
6.0301784e-07
1.2380654e-08
6.0008909e-07
1.0938365e-08
5.9768004e-07
9.5148734e-09
5.9570202e-07
8.1090164e-09
5.9408897e-07
6.7192186e-09
5.9279159e-07
5.3434887e-09
5.9177293e-07
3.9794728e-09
5.910056e-07
2.6245315e-09
5.9046994e-07
1.275828e-09
5.9015273e-07
-6.9579347e-11
5.9004646e-07
-1.4146428e-09
5.9014888e-07
-2.7622303e-09
5.9046295e-07
-4.1150281e-09
5.9099701e-07
-5.4754435e-09
5.9176515e-07
-6.8455087e-09
5.9278815e-07
-8.226793e-09
5.9409481e-07
-9.6203402e-09
5.9572397e-07
-1.1026649e-08
5.9772763e-07
-1.2445646e-08
6.0017557e-07
-1.3876456e-08
6.0316045e-07
-1.5319338e-08
6.0680673e-07
-1.6795841e-08
6.1135119e-07
-1.8396611e-08
6.1754028e-07
-2.0160737e-08
6.2708711e-07
-2.127221e-08
6.3927175e-07
-1.9196848e-08
6.3694884e-07
-1.1907437e-08
5.7370616e-07
-2.9313385e-09
4.015212e-07
1.3952541e-07
2.2316581e-09
1.119801e-07
1.0564126e-08
3.4680048e-07
1.967343e-08
5.424727e-07
2.3657029e-08
6.3806454e-07
2.3116148e-08
6.5267671e-07
2.1203488e-08
6.3912312e-07
1.9429864e-08
6.2616146e-07
1.788666e-08
6.1799826e-07
1.642183e-08
6.1240462e-07
1.4979041e-08
6.0802507e-07
1.355148e-08
6.044454e-07
1.2139119e-08
6.0150145e-07
1.0741541e-08
5.9907762e-07
9.3581278e-09
5.9708543e-07
7.9880925e-09
5.9545901e-07
6.6303698e-09
5.9414931e-07
5.2835737e-09
5.9311972e-07
3.94602e-09
5.9234316e-07
2.615781e-09
5.9180018e-07
1.2907573e-09
5.9147776e-07
-3.1241763e-11
5.9136846e-07
-1.3524127e-09
5.9147005e-07
-2.6748727e-09
5.9178541e-07
-4.0005708e-09
5.923227e-07
-5.3312046e-09
5.9309578e-07
-6.6681408e-09
5.9412509e-07
-8.0123516e-09
5.9543903e-07
-9.3643853e-09
5.97076e-07
-1.0724385e-08
5.9908763e-07
-1.2092093e-08
6.0154328e-07
-1.3466768e-08
6.0453512e-07
-1.4850205e-08
6.0819016e-07
-1.6268801e-08
6.1276979e-07
-1.7811472e-08
6.1908295e-07
-1.9467273e-08
6.2874291e-07
-2.0334287e-08
6.4013876e-07
-1.8002575e-08
6.3461713e-07
-1.0890863e-08
5.6659445e-07
-2.6270772e-09
3.9325742e-07
1.3689833e-07
2.074362e-09
1.099058e-07
9.7301952e-09
3.3914477e-07
1.8483221e-08
5.3371979e-07
2.2677026e-08
6.3387078e-07
2.244112e-08
6.5291262e-07
2.0668344e-08
6.4089589e-07
1.8944281e-08
6.2788552e-07
1.744503e-08
6.1949751e-07
1.6031646e-08
6.1381801e-07
1.4640883e-08
6.0941583e-07
1.3262491e-08
6.0582379e-07
1.1895773e-08
6.0286817e-07
1.0540205e-08
6.0043319e-07
9.1952275e-09
5.9843041e-07
7.8602705e-09
5.9679396e-07
6.5346204e-09
5.9547496e-07
5.2173427e-09
5.94437e-07
3.9072753e-09
5.9365322e-07
2.6030615e-09
5.931044e-07
1.3032039e-09
5.9277762e-07
6.1314251e-12
5.9266553e-07
-1.2897307e-09
5.9276591e-07
-2.5858814e-09
5.9308156e-07
-3.8836739e-09
5.936205e-07
-5.1842441e-09
5.9439635e-07
-6.488451e-09
5.954293e-07
-7.7968377e-09
5.9674741e-07
-9.1096322e-09
5.9838879e-07
-1.04268e-08
6.004048e-07
-1.1748075e-08
6.0286456e-07
-1.3073066e-08
6.0586011e-07
-1.4405387e-08
6.0952248e-07
-1.577583e-08
6.1414023e-07
-1.7268597e-08
6.2057572e-07
-1.8822138e-08
6.3029646e-07
-1.9466257e-08
6.4078288e-07
-1.6928966e-08
6.3207984e-07
-1.0019256e-08
5.5968474e-07
-2.3909341e-09
3.8562909e-07
1.3450739e-07
1.9412742e-09
1.079646e-07
9.0031455e-09
3.3208306e-07
1.7401044e-08
5.2532204e-07
2.1755366e-08
6.2951653e-07
2.1799802e-08
6.5286819e-07
2.0165971e-08
6.4252971e-07
1.8488982e-08
6.295625e-07
1.7026556e-08
6.2095994e-07
1.5657351e-08
6.1518721e-07
1.4312694e-08
6.1076049e-07
1.2978766e-08
6.0715772e-07
1.1654031e-08
6.0419291e-07
1.033778e-08
6.0174944e-07
9.0294162e-09
5.9973877e-07
7.7284731e-09
5.9809491e-07
6.434467e-09
5.9676897e-07
5.1467898e-09
5.9572468e-07
3.864678e-09
5.9493534e-07
2.5872237e-09
5.9438185e-07
1.3134115e-09
5.9405143e-07
4.2170416e-11
5.9393677e-07
-1.2275684e-09
5.9403565e-07
-2.4968094e-09
5.9435081e-07
-3.7664331e-09
5.9489012e-07
-5.0371413e-09
5.9566706e-07
-6.3094175e-09
5.9670157e-07
-7.5835103e-09
5.980215e-07
-8.8594622e-09
5.9966475e-07
-1.0137189e-08
6.0168252e-07
-1.1416534e-08
6.041439e-07
-1.2697609e-08
6.0714119e-07
-1.3986003e-08
6.1081088e-07
-1.5316247e-08
6.1547047e-07
-1.676507e-08
6.2202454e-07
-1.8220916e-08
6.317523e-07
-1.8661462e-08
6.4122342e-07
-1.5960438e-08
6.2937881e-07
-9.2664883e-09
5.5299079e-07
-2.2039365e-09
3.7856654e-07
1.3230346e-07
1.8248537e-09
1.0613983e-07
8.3634912e-09
3.255446e-07
1.6412894e-08
5.172728e-07
2.0886348e-08
6.2504316e-07
2.1188162e-08
6.5256639e-07
1.9692514e-08
6.4402535e-07
1.8061766e-08
6.3119324e-07
1.6630822e-08
6.2239088e-07
1.5299753e-08
6.1651828e-07
1.3996097e-08
6.1206415e-07
1.2702462e-08
6.0845135e-07
1.1416353e-08
6.0547902e-07
1.0136823e-08
6.0302897e-07
8.8631798e-09
6.0101241e-07
7.5949849e-09
5.993631e-07
6.3318912e-09
5.9803206e-07
5.0735185e-09
5.9698305e-07
3.8193993e-09
5.9618946e-07
2.5689713e-09
5.9563228e-07
1.3215976e-09
5.952988e-07
7.6603151e-11
5.9518177e-07
-1.1666811e-09
5.9527893e-07
-2.4088689e-09
5.9559299e-07
-3.6504747e-09
5.9613173e-07
-4.8918746e-09
5.9690846e-07
-6.133284e-09
5.9794298e-07
-7.3747627e-09
5.9926298e-07
-8.616267e-09
6.0090625e-07
-9.8577494e-09
6.02924e-07
-1.1099242e-08
6.0538539e-07
-1.2341457e-08
6.083834e-07
-1.3592019e-08
6.1206144e-07
-1.4888394e-08
6.1676685e-07
-1.629738e-08
6.2343353e-07
-1.7658958e-08
6.3311388e-07
-1.7913213e-08
6.4147768e-07
-1.508296e-08
6.2654856e-07
-8.6110457e-09
5.4651887e-07
-2.0520858e-09
3.7200758e-07
1.3025137e-07
1.7203805e-09
1.0441955e-07
7.7961576e-09
3.1946904e-07
1.5507149e-08
5.0956202e-07
2.0065101e-08
6.2048531e-07
2.0602798e-08
6.5202871e-07
1.9244439e-08
6.453837e-07
1.7660255e-08
6.3277742e-07
1.625692e-08
6.2379421e-07
1.4959007e-08
6.178162e-07
1.3691973e-08
6.1333118e-07
1.2434971e-08
6.0970835e-07
1.118445e-08
6.0672954e-07
9.9391917e-09
6.0427423e-07
8.6983831e-09
6.0225322e-07
7.4615578e-09
6.0059993e-07
6.228439e-09
5.9926518e-07
4.9987974e-09
5.9821269e-07
3.7723791e-09
5.9741587e-07
2.5488811e-09
5.9685578e-07
1.3279566e-09
5.9651973e-07
1.0923726e-10
5.9640049e-07
-1.1076357e-09
5.964958e-07
-2.322976e-09
5.9680833e-07
-3.5370219e-09
5.9734577e-07
-4.7499124e-09
5.9812135e-07
-5.9616807e-09
5.9915475e-07
-7.1722786e-09
6.0047358e-07
-8.3816469e-09
6.0211562e-07
-9.5898306e-09
6.0413219e-07
-1.0797095e-08
6.0659266e-07
-1.2004819e-08
6.0959113e-07
-1.3222637e-08
6.1327926e-07
-1.4490057e-08
6.1803427e-07
-1.586184e-08
6.2480531e-07
-1.7131756e-08
6.343838e-07
-1.7215234e-08
6.4156116e-07
-1.4284288e-08
6.2361761e-07
-8.0354853e-09
5.4027007e-07
-1.9252816e-09
3.6589738e-07
1.2832609e-07
1.6249847e-09
1.0279468e-07
7.2894468e-09
3.1380483e-07
1.4674195e-08
5.0217751e-07
1.9287539e-08
6.158721e-07
2.0040933e-08
6.5127535e-07
1.8818632e-08
6.4660599e-07
1.7282092e-08
6.3431395e-07
1.5903674e-08
6.2517263e-07
1.4634838e-08
6.1908503e-07
1.3400682e-08
6.1456533e-07
1.2177116e-08
6.1093192e-07
1.0959457e-08
6.079472e-07
9.7461982e-09
6.0548749e-07
8.5363897e-09
6.0346303e-07
7.3295065e-09
6.0180681e-07
6.1252939e-09
6.0046939e-07
4.9236146e-09
5.9941437e-07
3.7243621e-09
5.9861513e-07
2.5274222e-09
5.9805272e-07
1.3326649e-09
5.9771448e-07
1.3995329e-10
5.975932e-07
-1.050837e-09
5.9768659e-07
-2.2397953e-09
5.9799729e-07
-3.4269582e-09
5.9853293e-07
-4.612299e-09
5.9930669e-07
-5.7957362e-09
6.0033819e-07
-6.9771728e-09
6.0165502e-07
-8.1565824e-09
6.0329503e-07
-9.334135e-09
6.0530974e-07
-1.0510353e-08
6.0776887e-07
-1.168732e-08
6.1076809e-07
-1.2876586e-08
6.1446852e-07
-1.4118773e-08
6.1927646e-07
-1.5454851e-08
6.2614139e-07
-1.6635173e-08
6.3556412e-07
-1.6561886e-08
6.4148787e-07
-1.3553966e-08
6.2060969e-07
-7.5258248e-09
5.3424193e-07
-1.8163911e-09
3.6018794e-07
1.265097e-07
1.5369576e-09
1.0125785e-07
6.8342055e-09
3.0850787e-07
1.3906035e-08
4.9510597e-07
1.8550251e-08
6.1122805e-07
1.950035e-08
6.5032529e-07
1.841242e-08
6.4769391e-07
1.6925049e-08
6.3580132e-07
1.5569785e-08
6.2652789e-07
1.4326703e-08
6.2032811e-07
1.3122224e-08
6.1576981e-07
1.1929303e-08
6.1212484e-07