/*--------------------------------*- C++ -*----------------------------------*\
  =========                 |
  \\      /  F ield         | OpenFOAM: The Open Source CFD Toolbox
   \\    /   O peration     | Website:  https://openfoam.org
    \\  /    A nd           | Version:  10
     \\/     M anipulation  |
\*---------------------------------------------------------------------------*/
FoamFile
{
    format      ascii;
    class       volScalarField;
    location    "0.26";
    object      TporMedia_0;
}
// * * * * * * * * * * * * * * * * * * * * * * * * * * * * * * * * * * * * * //

dimensions      [0 0 0 1 0 0 0];

internalField   nonuniform List<scalar> 
4000
(
0.00029436201
0.00016553718
0.00015982771
0.0001643911
0.00014693011
0.0001518905
0.00014809081
0.00015029218
0.00015274749
0.0001636145
0.00014802093
0.0001415408
0.00014312544
0.00015177222
0.00015560887
0.00015194907
0.00016186589
0.00016985686
0.000149275
0.00015362872
0.00015907633
0.00013681218
0.00014762296
0.00016223652
0.0001543433
0.00014999251
0.00016378839
0.00014007035
0.00015781473
0.00016607196
0.00015889963
0.00015560109
0.00016234875
0.00014747895
0.00016105862
0.00014069382
0.00015076451
0.00014624448
0.00015913336
0.0001563341
0.00024883909
9.0863236e-11
4.3201978e-11
4.8411138e-11
4.3174847e-11
4.4157677e-11
4.0080417e-11
3.8777973e-11
4.3254888e-11
4.1654102e-11
4.677255e-11
4.5786672e-11
4.2853245e-11
4.2004511e-11
4.0488055e-11
3.941101e-11
4.22838e-11
4.2747819e-11
4.5505866e-11
3.9564135e-11
4.2935579e-11
3.4993926e-11
4.7045074e-11
4.8523639e-11
3.8823953e-11
4.1703067e-11
4.8845489e-11
4.635478e-11
3.7063759e-11
4.7896699e-11
4.4202268e-11
4.5205211e-11
4.8274897e-11
4.3252609e-11
4.505456e-11
3.8429537e-11
3.7705206e-11
3.8655937e-11
4.9270901e-11
4.2898501e-11
0.0011188299
2.8794761e-10
7.5242274e-17
1.1968885e-17
1.1482412e-17
1.1130251e-17
8.8042044e-18
1.0420448e-17
9.6279721e-18
1.0945243e-17
1.1569107e-17
1.112102e-17
1.3182847e-17
1.0233689e-17
1.1468985e-17
9.8640464e-18
1.0813719e-17
1.1691431e-17
1.0719034e-17
9.5292569e-18
1.2382035e-17
8.4542026e-18
1.2391627e-17
1.2197743e-17
1.1241845e-17
1.081398e-17
1.2035368e-17
1.1600915e-17
9.9181185e-18
1.3516055e-17
1.183843e-17
1.2638457e-17
1.2371746e-17
1.110737e-17
1.0439955e-17
8.9858258e-18
9.4854491e-18
1.0000084e-17
1.3338924e-17
1.0458647e-17
-0.00023072528
-6.7619692e-11
-1.2676328e-17
-4.5472353e-26
2.9399642e-24
2.7781855e-24
2.3822287e-24
2.4792918e-24
2.4249829e-24
2.8275483e-24
2.8858543e-24
2.6167157e-24
3.0903645e-24
3.1837029e-24
2.8363458e-24
2.4847631e-24
2.6562352e-24
3.0872314e-24
2.7579523e-24
2.7807448e-24
3.0381054e-24
2.4256518e-24
3.3050886e-24
3.2229682e-24
2.7109492e-24
2.789019e-24
3.2824763e-24
2.8204901e-24
2.7839808e-24
3.535601e-24
3.3115467e-24
2.948701e-24
3.1808122e-24
2.5147185e-24
3.1976076e-24
2.1190805e-24
2.234765e-24
2.6184512e-24
3.7562166e-24
2.4361459e-24
-8.7266528e-05
5.3433596e-11
8.8698314e-18
1.9282545e-24
1.5943608e-30
3.4869268e-30
5.7874148e-31
5.0946982e-31
5.5617275e-31
8.6020055e-31
6.7900426e-31
7.3173281e-31
7.1257483e-31
2.4618526e-30
7.3764157e-31
6.7493512e-31
7.8177404e-31
7.99867e-31
1.3598922e-30
5.3463528e-31
9.2375026e-31
7.9707798e-31
8.4735962e-31
6.6903474e-31
7.3683886e-31
6.9737779e-31
9.6385331e-31
7.0195078e-31
7.144274e-31
8.5992059e-31
8.2236118e-31
6.6702603e-31
9.4786401e-31
4.0986983e-31
8.6926684e-31
5.8686343e-31
5.7388709e-31
7.2359524e-31
9.4347816e-31
6.4891416e-31
-4.5021566e-05
4.6979668e-12
7.1403351e-19
1.2096514e-25
2.9846158e-32
5.0629237e-35
1.3462797e-37
5.5098762e-37
2.2027422e-36
3.044466e-36
1.2871494e-37
1.8905515e-37
2.8734286e-37
-2.921965e-36
2.2483625e-37
1.6363596e-37
5.6529711e-37
2.8782441e-37
-1.4639344e-36
2.5555718e-37
-6.3285637e-38
-1.9491325e-37
1.3796343e-37
1.8849734e-36
1.5176605e-37
1.8665413e-37
2.4664449e-37
4.5366043e-37
-2.4883916e-37
2.5713244e-37
2.0680434e-37
3.5288062e-37
-1.9602838e-36
9.6187405e-37
-1.5188465e-36
-1.3793917e-37
1.1396677e-37
1.4281261e-37
1.4395825e-37
1.6266327e-37
-2.8562276e-05
1.3529327e-12
3.6660145e-19
4.7880607e-26
1.127078e-32
3.6451211e-39
1.8554067e-43
-6.0058913e-41
-3.9557246e-42
-1.252198e-41
-4.4968116e-43
8.6429519e-44
-4.2952862e-43
3.0677995e-39
-5.009642e-44
6.1383198e-44
-3.5736532e-42
-2.9758981e-43
1.8358499e-42
-5.8306495e-43
-5.6873288e-43
-2.982639e-42
1.3850583e-43
2.4357725e-40
2.7285909e-43
-3.0173637e-44
7.5541443e-44
-3.9967528e-42
-1.4446099e-42
2.3179289e-43
2.7946819e-43
-3.273134e-42
-8.049529e-41
-3.5357566e-42
3.1297755e-42
-6.0140065e-41
7.3156777e-44
-1.7962305e-44
7.9492754e-43
4.6186459e-44
-1.9980168e-05
5.4271389e-13
-5.7550318e-19
-6.1506778e-26
-1.1431204e-32
-2.9090395e-39
-7.2818784e-46
3.6904144e-46
-6.3577234e-47
-7.3247149e-47
-2.6166079e-48
-2.4357008e-49
1.4730248e-48
-3.952292e-44
3.5698114e-49
6.6168015e-50
5.4832672e-46
-1.722743e-48
-3.1863008e-48
-3.9428629e-48
5.8735071e-49
-3.8643514e-47
-1.5402035e-49
8.9976997e-45
2.0368764e-48
-5.9069105e-49
-1.2958026e-50
8.2026696e-47
5.2502652e-48
-1.5257678e-48
3.342216e-48
3.8960704e-48
2.3707644e-46
9.6597989e-46
2.2836736e-46
8.7262803e-47
4.6784084e-49
-9.9683248e-50
2.7036423e-48
1.1648321e-50
-1.4997075e-05
2.5725837e-13
-2.5908794e-20
-2.2745725e-27
-3.2625903e-34
-7.1213226e-41
-1.9056982e-47
-1.2828125e-51
1.0349569e-52
1.7246535e-52
-1.3049346e-53
-7.865045e-55
-2.522202e-54
-7.8366097e-50
2.406206e-54
-6.888769e-56
6.1914937e-51
-6.3542582e-53
4.7718479e-54
-7.7432684e-54
-1.6597186e-54
-1.4292408e-52
-5.4787427e-54
-9.68292e-51
-1.0162652e-53
1.2445954e-54
-6.647176e-56
-6.32489e-52
-7.3353121e-54
-8.8992095e-54
-6.8935531e-53
-2.4898157e-53
8.7050473e-52
-2.636771e-50
-7.1860397e-51
5.8768619e-52
-6.5482052e-55
-6.5092473e-55
1.0100502e-53
3.0780589e-57
-1.1681011e-05
1.3458481e-13
-5.5684796e-21
-4.4666999e-28
-4.6887078e-35
-9.9928174e-42
-2.3783017e-48
-6.4414863e-55
1.8187856e-58
-6.382278e-58
9.8078295e-60
1.0699576e-59
-2.8703146e-59
-1.0618636e-53
2.6914541e-59
2.9563145e-61
-9.6087994e-57
-1.147291e-57
9.831293e-59
-2.1928561e-59
-8.2266439e-60
9.9595848e-58
-1.2548954e-58
-6.8883579e-55
1.2834969e-59
-1.2985956e-59
7.7952306e-62
1.3884939e-56
5.4171226e-59
-3.4804829e-58
8.8579822e-59
-8.8138961e-59
-1.4994566e-57
-1.4773533e-55
-1.0170889e-56
-8.0144513e-57
1.2400452e-60
1.1759424e-59
-2.1685492e-59
7.7507572e-64
-9.2488577e-06
7.7192012e-14
-1.7273119e-21
-1.439142e-28
-1.1390344e-35
-2.2711232e-42
-5.7021481e-49
-1.3947139e-55
-3.3398956e-62
2.1971774e-63
-7.6068863e-65
-3.9595713e-65
-7.0281392e-65
4.0028593e-59
-2.7329431e-64
2.0082168e-65
5.6379182e-62
1.3369127e-62
-2.8103831e-63
-1.2064144e-64
1.203174e-65
-3.5560901e-63
-2.7281081e-64
3.1707821e-59
-1.4243352e-64
3.2680344e-65
-1.1159118e-66
9.3092449e-62
-1.4960388e-64
4.0724182e-63
-1.4693966e-62
3.6352075e-64
4.757569e-63
1.1480501e-60
1.0057257e-62
-9.4272693e-62
-3.4532709e-65
-1.998032e-65
-1.3440989e-64
1.890373e-70
-7.4238883e-06
4.6188317e-14
-6.2816108e-22
-7.2929687e-29
-4.4712227e-36
-6.5027752e-43
-1.8144638e-49
-4.6239939e-56
-1.0834484e-62
-1.2150748e-68
5.0418781e-70
3.029132e-70
2.3178536e-69
-1.1847675e-64
2.2639198e-69
6.3981884e-71
-1.0576597e-67
-5.1277043e-68
-9.6081551e-69
-5.9940475e-70
7.887145e-71
-3.9535084e-68
5.6583872e-70
1.1848424e-64
8.1501112e-71
-1.4956523e-70
-5.5997284e-72
-2.2537671e-67
4.9848683e-70
-1.9229333e-68
-4.4399211e-66
-1.3957065e-69
1.0563038e-68
2.5549023e-66
-1.1856381e-67
3.2325045e-66
8.167798e-71
9.7954139e-69
1.8814273e-70
1.1550875e-76
-5.9381847e-06
2.8298555e-14
-2.5607624e-22
-1.9991806e-28
-9.4177484e-36
-9.8465825e-43
-2.5213736e-49
-6.4384534e-56
-1.6481475e-62
-3.9835963e-69
-2.3267321e-75
-8.3525279e-76
1.6525916e-74
1.3675464e-69
-1.3282427e-74
4.0320007e-76
-2.8458854e-73
4.5405042e-72
-3.5749319e-74
1.0476954e-74
-6.4713163e-76
-8.6986506e-74
9.3615572e-75
1.3497063e-69
-4.559897e-75
-5.9569744e-76
2.1108864e-76
3.0428142e-71
1.0028751e-75
-1.2084298e-73
6.7392153e-70
3.8344588e-75
-2.7107765e-74
1.8751161e-71
4.2495252e-73
1.4642304e-71
-5.8887874e-76
3.8192069e-74
-3.6249875e-76
-7.0006783e-83
-4.8122263e-06
1.7812422e-14
-1.1211142e-22
1.0564991e-29
4.1185026e-37
3.4890425e-44
1.0072475e-50
2.8135735e-57
6.6489936e-64
1.9350326e-70
4.8514551e-77
8.9374075e-81
-2.2545684e-80
-1.0085444e-75
-1.7790783e-79
-8.4928266e-81
2.1824232e-78
1.9417633e-77
1.1477869e-79
-4.5652286e-80
8.8009597e-81
-2.1000925e-79
3.8972823e-79
-5.6245546e-74
1.3356965e-78
8.3298742e-82
-3.074921e-82
-8.9681757e-77
-8.0548981e-81
1.0257714e-78
-1.2250778e-75
-1.1201085e-80
1.2007076e-79
4.8231706e-77
-8.3250296e-78
1.0179788e-76
-4.4886702e-81
-4.9531983e-80
8.0194926e-82
2.6312741e-88
-3.9062432e-06
1.1427085e-14
-5.1983186e-23
1.6980931e-30
5.7331409e-38
3.5861105e-45
6.7488764e-52
2.0977548e-58
5.9857685e-65
1.3465618e-71
3.6125941e-78
8.643702e-85
-1.0125904e-85
3.3274848e-81
-2.9210127e-84
1.149155e-85
-3.3548819e-83
-1.8174201e-82
-4.8154574e-85
-1.0547787e-85
-3.5784902e-86
8.9899152e-85
1.7456054e-84
-4.0041836e-79
-1.9846247e-84
3.5406837e-87
-4.642206e-86
-2.6944773e-81
2.5448741e-86
-7.4350728e-84
7.4011267e-81
1.306997e-86
7.205509e-85
-7.4283538e-82
3.6762457e-83
5.9437681e-82
-5.4243519e-86
-1.9268324e-85
-1.5360419e-87
-3.6704343e-94
-3.1882596e-06
7.4520233e-15
-2.5172852e-23
4.358979e-31
1.3179696e-38
6.4534544e-46
1.0386466e-52
2.8748558e-59
7.8571148e-66
2.049029e-72
4.8448426e-79
1.5794707e-85
3.012982e-91
-3.1692834e-86
1.3603558e-89
7.746534e-91
5.4025549e-89
-4.7768019e-88
5.4028493e-90
9.1510633e-91
3.9850427e-92
-2.2855499e-90
1.1208421e-89
6.9179148e-85
8.5088397e-89
-2.3324112e-93
7.678131e-94
-6.2525849e-87
-2.2561935e-92
1.0762378e-88
-1.3672964e-86
5.0337384e-93
2.4240427e-90
1.3876052e-87
-7.5716025e-89
-7.6907883e-87
9.860734e-92
4.9322556e-91
2.6929149e-93
6.4293041e-100
-2.607759e-06
4.9188618e-15
-1.2606271e-23
1.3178114e-31
3.8817514e-39
1.4205108e-46
1.7744738e-53
5.8194615e-60
1.5659273e-66
3.7463558e-73
1.1830125e-79
2.9749108e-86
9.5357921e-93
-2.8923431e-91
-2.7665781e-95
-9.6325608e-97
-8.0779973e-95
4.9658424e-93
-1.0558403e-95
-8.3549973e-97
-1.3476172e-97
2.9164418e-96
5.6006187e-96
-1.7316887e-90
-2.0364561e-94
3.8254359e-99
-1.3158056e-98
7.039757e-93
5.5329162e-97
-2.2040914e-94
6.4774215e-92
-1.8424957e-97
-1.0557095e-94
-5.6768822e-93
1.2850436e-94
-1.5633137e-92
-2.3225504e-97
-5.3219039e-96
-6.7553736e-99
-1.6623075e-105
-2.1550029e-06
3.3038561e-15
-6.554159e-24
4.4722734e-32
1.3924154e-39
3.9517972e-47
4.0982232e-54
1.2902768e-60
4.0631435e-67
1.1916627e-73
2.9301693e-80
7.7966119e-87
2.5852549e-93
2.6070155e-97
3.3709198e-101
4.6647302e-102
1.8109309e-100
-8.2003252e-99
1.235179e-101
2.2673879e-102
1.4424435e-103
-8.3956593e-102
-1.121437e-100
4.3436491e-96
1.2886374e-99
-3.3603819e-104
1.4018676e-103
-7.3936188e-99
-8.1692877e-103
1.2649991e-99
-7.0382532e-98
1.183781e-102
1.57414e-100
2.8883971e-98
-5.2316709e-100
7.2473011e-98
8.7748036e-103
3.1538512e-102
7.8448652e-105
1.5982943e-111
-1.78582e-06
2.2473932e-15
-3.5018049e-24
1.6418818e-32
6.0153701e-40
1.3641022e-47
9.8182343e-55
3.4168951e-61
1.0364764e-67
3.3800041e-74
8.1304516e-81
2.2065733e-87
6.1332169e-94
2.0655054e-100
-7.7684481e-107
-1.2203844e-107
6.0095183e-106
1.397126e-104
-1.1435408e-106
-1.1483076e-107
-2.0528533e-109
1.4058078e-107
1.0084676e-106
-6.9506906e-102
-1.1835532e-105
5.2776196e-110
-6.4157829e-110
1.2059942e-104
1.1014976e-108
-1.750584e-104
1.1306542e-103
-1.757947e-107
-1.1941587e-105
-3.6280798e-104
1.7924308e-105
-9.4405249e-104
-1.0162553e-108
1.0907509e-106
-7.5752488e-111
-8.3028371e-118
-1.4935481e-06
1.5508429e-15
-1.923661e-24
6.4453452e-33
4.10973e-40
7.5965402e-48
4.0138906e-55
1.0038799e-61
3.4101231e-68
8.9030002e-75
2.7008459e-81
8.1205401e-88
2.4294985e-94
6.6992413e-101
1.7272123e-107
1.669616e-113
-6.5274658e-112
-3.8063262e-110
1.884282e-112
1.8617218e-113
3.1223857e-115
-1.1633195e-113
1.3573898e-111
3.1785888e-107
1.898482e-111
-6.2804147e-116
1.3759892e-115
-2.4299492e-110
-1.7572273e-114
2.6076004e-110
-2.2655453e-109
1.7345246e-113
1.9593722e-111
8.5463446e-110
-3.0957585e-111
3.0441772e-109
4.2494664e-114
-7.3077854e-113
4.6904833e-117
-1.890914e-124
-1.2557628e-06
1.085442e-15
-1.0829539e-24
2.6674672e-33
-6.6875925e-40
-1.0306911e-47
-4.1210154e-55
-8.6508988e-62
-3.4328962e-68
-1.1886689e-74
-3.3046825e-81
-8.8302914e-88
-2.3553188e-94
-7.2649453e-101
-1.9862032e-107
-6.3986217e-114
5.4151836e-118
3.2350007e-116
-2.4320974e-118
3.8931202e-118
-1.4433827e-120
5.9111128e-119
-1.446799e-117
-3.461267e-113
-9.0107469e-117
1.3590945e-121
-2.0955121e-121
3.4740366e-116
1.8431684e-120
-1.4752456e-115
4.7837262e-115
-3.2286222e-119
-5.9416712e-117
-3.0729812e-115
5.4102181e-117
-1.0080023e-114
-4.4837353e-120
7.4482434e-118
-1.0902301e-122
2.7049742e-130
-1.0628099e-06
7.6878165e-16
-6.2442596e-25
1.1600766e-33
-3.4728438e-41
-4.6420785e-49
-1.3835247e-56
-2.2713292e-63
-9.6518325e-70
-3.0142733e-76
-8.0433552e-83
-2.3356228e-89
-6.8036966e-96
-1.7895343e-102
-5.4209326e-109
-1.5184076e-115
-4.2605694e-122
-4.771336e-122
6.4090631e-124
-2.7479032e-124
2.3863776e-126
-2.5398941e-125
2.6084367e-123
-7.7353027e-118
1.3463899e-122
6.2976308e-127
7.139768e-127
-4.7810849e-122
-5.0005956e-126
7.9047132e-121
-1.0940743e-120
2.5128128e-125
1.5690382e-122
7.1545291e-121
-1.7726664e-122
3.7512339e-120
5.4474574e-126
-1.3840469e-123
3.7339915e-128
4.9873512e-135
-9.0312812e-07
5.4971056e-16
-3.6615612e-25
5.2242589e-34
-6.9952968e-42
-8.3134622e-50
-1.9115571e-57
-2.1093786e-64
-9.4623306e-71
-3.0672561e-77
-9.5639482e-84
-2.3008301e-90
-6.1494196e-97
-1.5216032e-103
-4.3041867e-110
-1.1874489e-116
-3.4797046e-123
8.2131038e-128
-1.0056694e-129
4.9937303e-130
-3.3754573e-132
4.297458e-131
-4.2450937e-129
8.1258244e-124
-1.4775922e-128
-1.0797615e-132
-1.0289398e-132
8.7078273e-128
1.0380914e-131
-6.6349567e-126
1.1271616e-126
-8.4706549e-131
-3.9910174e-128
-1.0583023e-126
1.2242529e-128
-4.8464657e-125
2.6591869e-131
2.6902412e-129
-4.4724932e-134
2.525764e-140
-7.7132878e-07
3.9711129e-16
-2.1885932e-25
2.4402649e-34
-1.8455571e-42
-2.0026648e-50
-3.6047931e-58
-2.8973974e-65
-1.1498647e-71
-3.8900368e-78
-1.169889e-84
-3.359949e-91
-8.4823211e-98
-2.376269e-104
-6.7998665e-111
-1.8096209e-117
-5.1058281e-124
-1.2839809e-130
9.7917069e-135
-5.7236278e-136
7.5101013e-138
-1.0634409e-136
9.196629e-135
-3.8212833e-129
2.2174365e-134
2.495914e-138
7.3835674e-139
-1.4463891e-133
-1.9177437e-137
7.7425685e-132
-3.2800792e-131
6.7178761e-137
2.4767151e-134
3.3214861e-132
-1.238878e-133
2.8651639e-131
-5.8613469e-137
-4.4968713e-135
2.0829352e-139
-3.7539058e-147
-6.6076568e-07
2.8902027e-16
-1.3269168e-25
1.1708552e-34
-5.6326714e-43
-5.7856237e-51
-8.369776e-59
-5.146245e-66
-2.0330398e-72
-8.9093902e-79
-2.3603601e-85
-7.0681881e-92
-2.0913882e-98
-6.0017032e-105
-1.6883407e-111
-4.2962798e-118
-1.1772957e-124
-3.4546451e-131
-1.1100906e-137
5.1331115e-142
-2.4405207e-143
1.2519329e-142
-2.9381411e-140
5.5498919e-135
-5.0740794e-140
-4.215949e-144
3.605847e-144
-4.4544716e-138
4.000162e-143
-2.1191292e-137
2.4084154e-137
-2.929448e-142
-6.9607331e-140
-1.260489e-137
1.5615768e-139
-2.0970888e-137
3.3058396e-142
3.9313887e-140
-4.9535915e-145
-8.3533416e-152
-5.6838157e-07
2.1222264e-16
-8.167498e-26
5.7764724e-35
-1.8810594e-43
-1.9339533e-51
-2.2886233e-59
-1.0603853e-66
-4.0135776e-73
-1.5547297e-79
-4.748971e-86
-1.4357697e-92
-4.1032929e-99
-1.2572916e-105
-3.6220184e-112
-9.6363436e-119
-2.7452705e-125
-7.4118277e-132
-2.5638355e-138
4.0808102e-145
2.316404e-149
-1.6782141e-148
3.961458e-146
-8.4078122e-141
1.3881631e-145
6.1683461e-150
-4.3839519e-150
4.7083763e-144
-1.1043595e-148
9.301947e-144
-2.9568057e-143
3.8042206e-146
2.11776e-145
9.5083132e-143
-1.9875966e-145
3.0468904e-142
-1.4810331e-147
-4.8091982e-146
1.2576254e-150
1.5932735e-157
-4.9062406e-07
1.56891e-16
-5.0911864e-26
2.9151751e-35
-6.7513263e-44
-7.3472402e-52
-7.2530264e-60
-2.3999179e-67
-5.6899422e-74
-2.2234722e-80
-7.677378e-87
-2.1734829e-93
-5.2220059e-100
-1.6329026e-106
-4.5022581e-113
-1.5107993e-119
-4.0595293e-126
-1.2107021e-132
-2.858233e-139
-1.2283211e-145
-3.8782689e-153
3.073617e-154
-6.4359583e-152
1.6594226e-146
-1.2835804e-151
-7.1532289e-156
1.6485194e-154
-2.0646702e-149
8.4809492e-154
-1.8643109e-149
1.320113e-148
-3.3852418e-152
-2.9485984e-151
-2.7496033e-148
6.6464188e-151
-1.2259467e-147
6.5913086e-153
5.6239633e-152
-1.5201536e-156
-1.1287447e-162
-4.2471134e-07
1.1681575e-16
-3.2128473e-26
1.5030506e-35
-2.5501425e-44
-3.2297086e-52
-2.6871027e-60
-6.8801092e-68
-1.2982428e-74
-7.7631308e-81
-2.4013826e-87
-7.3744999e-94
-1.8493033e-100
-5.2138902e-107
-1.6062661e-113
-4.8456161e-120
-1.368578e-126
-2.4430522e-133
-1.8375621e-139
1.6374314e-145
-6.3044832e-151
7.9445765e-157
4.5802565e-158
-2.4210013e-152
1.7810521e-157
-2.0057142e-160
1.4487288e-161
3.8175628e-155
3.3119105e-160
-1.2446158e-153
-1.346544e-154
9.4742869e-158
2.4175293e-157
5.9609495e-154
-4.1808314e-157
2.2732511e-153
-3.4454539e-157
-1.2412092e-157
7.2293926e-162
5.4319566e-168
-3.68583e-07
8.7450497e-17
-2.0482629e-26
7.8959128e-36
-1.0088207e-44
-1.8609552e-52
-1.3331995e-60
-2.6678601e-68
-3.5513082e-75
-1.8734415e-81
-6.2709973e-88
-1.747649e-94
-4.8534254e-101
-1.2821861e-107
-3.1074423e-114
-8.050571e-121
-2.4131398e-127
-7.1770491e-134
-2.0827474e-140
-7.8567319e-147
-4.0220823e-154
-1.8777254e-159
-2.4574397e-163
2.1165969e-157
-8.2485188e-163
2.5046205e-166
1.501709e-166
-2.0320771e-160
-4.4409557e-166
1.6400346e-159
2.1372186e-160
-2.3963037e-163
-4.6975262e-163
-8.4715364e-160
4.409373e-162
-2.6366558e-159
3.4418573e-163
-6.3335706e-163
-1.4325129e-167
-6.0647619e-174
-3.2069952e-07
6.5853804e-17
-1.3191855e-26
4.2217316e-36
-4.1416701e-45
-2.5472126e-52
-1.5879445e-60
-2.4928347e-68
-2.3533832e-75
-1.5766802e-81
-5.5971712e-88
-1.7070993e-94
-4.419448e-101
-1.3854612e-107
-4.2471028e-114
-1.1935292e-120
-3.7583332e-127
-1.2449769e-133
-2.8183246e-140
-7.3695599e-147
-2.093765e-153
-4.8779208e-160
-1.9828384e-166
-2.4309e-163
1.4397583e-168
-1.0399053e-171
-6.4163245e-172
1.5708524e-166
-8.7130413e-172
-2.6721453e-165
-2.1313949e-166
1.2465673e-168
2.3712993e-168
8.8043073e-166
-3.8663828e-168
4.5689502e-165
-7.6121657e-169
4.0937659e-168
4.213746e-173
1.3736543e-179
-2.7968356e-07
4.985373e-17
-8.5754356e-27
2.2925227e-36
-1.7554687e-45
4.6371568e-53
2.5782175e-61
3.2431288e-69
2.4125018e-76
1.5105259e-82
7.521305e-89
1.8652164e-95
5.0254172e-102
1.6029421e-108
4.5020846e-115
1.2535256e-121
3.7980342e-128
9.1688671e-135
2.7244637e-141
8.2906339e-148
2.1566083e-154
7.437339e-161
2.2746529e-168
4.5500194e-169
-2.1578075e-174
1.048285e-177
1.0051615e-177
-1.5050374e-171
1.8257553e-177
2.104076e-171
6.4010839e-172
-1.8805395e-174
-1.9521328e-174
-3.1091874e-171
7.8473469e-174
-4.8802777e-171
5.5925564e-175
-4.3564344e-174
-3.0221901e-179
-1.1146652e-185
-2.4443625e-07
3.7920565e-17
-5.6214159e-27
1.2634647e-36
-7.6591953e-46
6.7793425e-54
3.4163142e-62
3.4894739e-70
1.8487091e-77
1.0198919e-83
6.1552355e-90
1.7307811e-96
5.0591934e-103
1.3268563e-109
3.7890132e-116
1.0486191e-122
3.0077202e-129
8.8661463e-136
2.4807574e-142
6.7948896e-149
1.695342e-155
4.5520589e-162
1.1883933e-168
-3.1126308e-175
2.3477891e-180
-1.4477719e-183
-2.0481446e-184
8.8952153e-178
-1.4914909e-182
-2.6021901e-177
-1.3407136e-177
2.8993576e-180
2.5425414e-180
3.9756336e-177
-1.1898509e-179
5.9909483e-177
-8.2323239e-181
2.4064572e-180
2.6487662e-185
1.0175475e-190
-2.1408369e-07
2.896802e-17
-3.7138452e-27
7.055474e-37
-3.4270929e-46
1.6046652e-54
7.4859414e-63
6.287192e-71
2.3996174e-78
1.383964e-84
8.2534933e-91
2.452973e-97
6.2053792e-104
1.7328337e-110
4.8985894e-117
1.4745398e-123
4.5990556e-130
1.2005108e-136
3.6172417e-143
1.0123234e-149
2.9513331e-156
1.6722312e-162
-2.528305e-169
1.3114961e-174
-3.425064e-180
-8.8121682e-185
3.1329836e-189
-3.9917704e-183
1.8235854e-188
2.7982535e-183
1.0669003e-183
-3.5741853e-186
-3.7266543e-186
1.8749565e-181
2.3095232e-185
-2.5054542e-182
2.2314513e-186
-5.7673932e-186
-2.1260551e-191
-1.0305042e-196
-1.8787908e-07
2.2234925e-17
-2.4730671e-27
3.9916384e-37
-1.5695284e-46
4.5682112e-55
2.0218666e-63
1.4199474e-71
4.1711938e-79
1.404288e-85
8.880079e-92
2.4491661e-98
5.8578459e-105
1.9243494e-111
5.7874704e-118
1.7635242e-124
4.5088319e-131
1.2459714e-137
2.9682226e-144
1.4539758e-150
-2.6510809e-157
4.9784333e-163
-7.8604132e-169
1.1271392e-174
-1.447945e-180
2.4120741e-186
-1.7642651e-192
4.7231776e-189
-2.3742818e-193
-1.441741e-188
-1.9602487e-189
5.8020474e-192
6.0863199e-192
-1.1809237e-187
-3.3851468e-191
3.709305e-188
-3.5783856e-192
8.9188377e-191
-2.6964512e-197
1.5229874e-202
-1.6517196e-07
1.7133333e-17
-1.6583149e-27
2.2845029e-37
-7.3415779e-47
1.4419161e-55
6.2220715e-64
3.674572e-72
8.3590037e-80
2.0784846e-86
2.2289964e-92
6.605869e-99
1.8194229e-105
4.4730672e-112
1.1401008e-118
3.1069152e-125
1.0228702e-131
2.7861238e-138
8.372864e-145
2.3283451e-151
4.3268363e-158
4.2489712e-164
-3.6389788e-170
9.684188e-176
-6.217826e-182
7.6173526e-188
-3.0540004e-193
-9.4739015e-195
4.1341054e-199
8.812342e-195
2.7952773e-195
-1.0597007e-197
-1.385413e-197
1.6492929e-193
8.7806133e-197
-4.4755128e-194
4.5759816e-197
-7.7493459e-197
1.4312892e-202
-4.0379185e-208
-1.4546794e-07
1.3253165e-17
-1.1192903e-27
1.3216262e-37
-3.5000544e-47
4.8800125e-56
2.1237001e-64
1.0701367e-72
1.8874901e-80
2.7762306e-87
3.4583684e-93
1.1337676e-99
3.1266267e-106
7.9397371e-113
2.0675789e-119
6.5278986e-126
1.6468844e-132
5.7846485e-139
1.6105949e-145
4.6108877e-152
1.3017854e-158
3.6539745e-165
1.1019512e-171
1.9733431e-178
3.5660958e-184
-5.5686427e-190
1.2598006e-195
4.1908738e-201
-2.8616751e-205
-9.5267953e-201
-1.8231103e-201
1.3360409e-203
1.2223159e-203
-1.2804557e-199
-6.1703166e-203
-4.3169417e-199
-3.7576325e-203
1.2865985e-202
-1.5969169e-208
1.9725682e-214
-1.2834006e-07
1.0289908e-17
-7.6028142e-28
7.7266764e-38
-1.6985255e-47
1.7439749e-56
8.0822602e-65
3.5305743e-73
4.9424777e-81
5.42476e-88
7.6864424e-94
2.4413348e-100
7.2745384e-107
2.0480863e-113
5.2554028e-120
1.6214979e-126
4.3636819e-133
1.2090981e-139
3.059037e-146
8.6223708e-153
2.2551177e-159
5.0742033e-166
3.5007194e-172
-1.8482944e-178
2.6285662e-184
-2.9598255e-188
3.4579271e-194
-1.304441e-199
2.5915745e-205
1.1587262e-206
2.9550422e-207
-1.5462834e-209
-4.2829073e-209
3.1078188e-205
7.3979196e-209
5.6111144e-205
3.8577307e-209
-2.8492171e-208
3.8726154e-214
-4.8412916e-222
-1.1340166e-07
8.0164037e-18
-5.1949041e-28
4.5605938e-38
-8.3778525e-48
6.5096602e-57
3.4536408e-65
1.3223797e-73
1.4750778e-81
1.1752903e-88
3.4037825e-94
1.2718446e-100
3.3465431e-107
9.9648202e-114
2.811788e-120
7.9508245e-127
2.1375924e-133
6.8746479e-140
1.6501498e-146
5.0887848e-153
1.4756466e-159
4.4035405e-166
1.7473087e-172
-8.4997228e-179
1.3223861e-184
-2.3099487e-190
4.8105085e-196
-7.0243573e-202
1.1389053e-207
-1.5098631e-212
-2.7418003e-213
1.4490013e-215
4.4827481e-215
-4.6358401e-211
-3.6550503e-212
-6.6076195e-211
-1.449058e-214
1.4563395e-214
-3.3093686e-220
8.4425425e-227
-1.0032971e-07
6.2646981e-18
-3.5688644e-28
2.7157678e-38
-4.1947615e-48
2.51646e-57
1.7561952e-65
5.9642402e-74
5.4704748e-82
3.2015088e-89
3.1934731e-95
1.6816498e-101
4.6190074e-108
1.1612924e-114
2.7350147e-121
8.0726723e-128
2.6229805e-134
7.0703877e-141
2.0227694e-147
5.2625095e-154
1.2690077e-160
3.3887056e-167
1.3382456e-173
3.076662e-181
7.1717177e-186
-2.8185992e-192
8.2758656e-198
-6.0553082e-204
1.3020032e-209
-1.5860492e-215
-2.4786625e-217
-1.3658683e-221
-1.632349e-220
3.1193822e-217
9.7947423e-218
1.1319665e-216
3.5231743e-220
-1.408889e-220
2.5558478e-226
-9.4352765e-234
-8.8897914e-08
4.9115066e-18
-2.4650371e-28
1.6314215e-38
-2.1305366e-48
1.0039144e-57
1.3141783e-65
4.0018406e-74
3.01869e-82
1.2636894e-89
9.9999659e-96
5.523966e-102
1.6275553e-108
5.1719198e-115
1.4930935e-121
3.7948777e-128
1.0326925e-134
2.4856089e-141
5.9040563e-148
1.7258308e-154
4.0972299e-161
1.2275715e-167
-8.0326234e-175
3.6806592e-180
-5.5393284e-186
1.0644869e-191
-2.1997921e-197
4.4097905e-203
-4.8051423e-209
7.0470247e-215
-1.9027267e-220
-5.5456359e-226
1.5558681e-226
-3.4888136e-223
-1.5373371e-223
-2.1574193e-222
-7.4003131e-226
1.9319587e-226
-3.0224336e-232
1.6796604e-239
-7.8874009e-08
3.8615693e-18
-1.7110875e-28
9.8783712e-39
-1.0963631e-48
4.115803e-58
-2.3502849e-65
-6.5196731e-74
-4.0824056e-82
-1.3237976e-89
-9.6342459e-96
-5.1039375e-102
-1.5810207e-108
-3.5904534e-115
-8.6926402e-122
-2.3237263e-128
-6.7084648e-135
-1.7539382e-141
-5.2051818e-148
-1.2661472e-154
-3.2348486e-161
-8.0833465e-168
-2.9068805e-174
2.5639708e-181
-1.1958668e-186
5.5411253e-193
-9.4660434e-199
2.9554101e-204
-4.6503376e-210
1.68145e-215
-6.3224694e-221
4.4587544e-227
-1.0447602e-231
1.8048564e-228
2.8084045e-229
4.3920662e-228
1.2834728e-231
-6.6295314e-233
1.2583956e-237
2.1510544e-244
-7.0068595e-08
3.0446215e-18
-1.1934055e-28
6.0277455e-39
-5.7126883e-49
1.7290062e-58
-1.2150837e-66
-3.1071307e-75
-1.6363684e-83
-4.1041869e-91
-1.6661516e-97
-8.8892106e-104
-2.2485157e-110
-6.4665622e-117
-1.5087343e-123
-3.6920644e-130
-8.8607916e-137
-2.3471424e-143
-5.6830146e-150
-1.8096993e-156
-5.6611084e-163
-1.1165372e-169
-8.1443118e-176
8.031507e-182
-9.9377347e-188
4.5129013e-193
-6.2229802e-199
9.9230114e-205
-1.9646866e-210
6.0732677e-216
-6.4410167e-222
7.8825873e-228
-6.108949e-234
-1.4009803e-234
-6.1946147e-235
-1.7998806e-233
-1.5241419e-237
1.3006365e-238
-8.504102e-244
0
-6.2313653e-08
2.4066026e-18
-8.3601938e-29
3.7044384e-39
-3.0110537e-49
7.4233394e-59
-2.4240461e-67
-5.8200462e-76
-2.6016229e-84
-5.0421788e-92
-1.2756049e-98
-1.0282677e-104
-3.4051597e-111
-8.3561518e-118
-2.1311488e-124
-5.3759573e-131
-1.2678892e-137
-3.5628212e-144
-1.0049566e-150
-2.4815168e-157
-6.3532571e-164
-2.0741577e-170
-4.1874572e-177
-2.7655814e-183
1.7982075e-189
-1.0337295e-194
2.5722356e-200
-8.1010252e-206
8.1292051e-212
-8.1864512e-218
4.0472287e-223
-9.5386386e-229
7.5034583e-234
-2.2010861e-238
7.1212606e-241
6.6450282e-239
2.0492226e-243
-1.7657025e-244
9.0861161e-248
1.8647977e-254
-5.5471671e-08
1.90656e-18
-5.8802252e-29
2.2915921e-39
-1.604135e-49
3.2514886e-59
-6.3087119e-68
-1.4457597e-76
-5.5591529e-85
-8.5326424e-93
-1.3726095e-99
-1.1998817e-105
-3.3086761e-112
-9.0868592e-119
-2.3411785e-125
-5.4186308e-132
-1.5105126e-138
-3.9623297e-145
-9.3921908e-152
-2.5064408e-158
-7.3276874e-165
-1.9704609e-171
-4.4613222e-178
-2.4824217e-184
8.2853302e-190
-1.3419919e-195
-1.0504779e-200
4.6289894e-206
-2.9291142e-212
5.1128341e-218
-1.0072308e-223
2.1952105e-229
-8.8519964e-235
1.4562632e-240
-1.0187632e-245
-1.2461253e-244
-3.3117102e-249
1.1529003e-250
-1.1844379e-253
-1.3465102e-260
-4.943187e-08
1.5140024e-18
-4.1528168e-29
1.4268978e-39
-8.6354592e-50
1.4502966e-59
-1.866142e-68
-4.1657482e-77
-1.3870377e-85
-1.7138731e-93
-1.8758343e-100
-1.6931684e-106
-5.4338105e-113
-1.3994451e-119
-3.8135001e-126
-1.021063e-132
-2.9437347e-139
-7.0339037e-146
-1.9091832e-152
-4.8270992e-159
-1.3001128e-165
-3.7722742e-172
-9.5275437e-179
-2.6946023e-185
-5.1838485e-192
-4.1307883e-198
-1.7380413e-202
1.2458638e-208
-1.3388838e-213
2.5157081e-219
3.3208248e-224
-5.3040432e-230
1.7353622e-235
-4.1156603e-241
1.6649496e-246
2.278261e-250
3.3606943e-255
-1.5694961e-255
-1.3239625e-259
-3.2830171e-266
-4.4088603e-08
1.2047122e-18
-2.9434331e-29
8.937424e-40
-4.692944e-50
6.5793206e-60
-5.9739894e-69
-1.3377578e-77
-3.9019428e-86
-3.8966878e-94
-3.2525707e-101
-3.5727072e-107
-1.6035015e-113
-4.5513396e-120
-1.0443418e-126
-2.9838512e-133
-8.6780079e-140
-2.4999217e-146
-6.5796433e-153
-1.5818808e-159
-3.7605975e-166
-1.0164587e-172
-2.8585981e-179
-7.5573038e-186
-1.735912e-192
-1.2833485e-198
1.074011e-204
-3.8897507e-210
4.1466022e-216
-5.8459541e-222
4.6380297e-228
2.6640528e-233
-2.9174961e-239
3.5020782e-244
-3.3060412e-250
2.3316638e-255
-7.1022258e-261
1.3478747e-260
-8.2893154e-266
-6.3542842e-272
-3.9356945e-08
9.6046303e-19
-2.0934867e-29
5.629805e-40
-2.5736691e-50
3.031294e-60
-2.0257008e-69
-4.6827709e-78
-1.2079101e-86
-9.8821493e-95
-5.8297956e-102
-1.7526223e-107
-9.4190321e-114
-2.2585286e-120
-5.0208972e-127
-1.3358094e-133
-3.4724017e-140
-9.2732381e-147
-2.6616142e-153
-7.3509943e-160
-1.9860336e-166
-5.1731819e-173
-1.3974387e-179
-4.3440861e-186
-4.318738e-193
-1.2674352e-198
1.4274282e-204
-3.5294956e-210
3.8034475e-216
-1.3466464e-221
3.8819752e-227
-3.5631954e-233
7.1171076e-239
-1.7352206e-244
9.6952334e-250
-1.6207106e-255
3.0523822e-261
-1.3078312e-266
-3.8587835e-272
3.1378254e-276
-3.5157203e-08
7.6705669e-19
-1.4936322e-29
3.5649011e-40
-1.4233892e-50
1.4168517e-60
-7.1794888e-70
-1.8039359e-78
-4.1556067e-87
-2.8115111e-95
-1.2111118e-102
-2.5452338e-107
-1.2229397e-113
-3.6421092e-120
-9.6955036e-127
-2.3714926e-133
-6.0387162e-140
-1.6034457e-146
-4.391888e-153
-1.1923327e-159
-3.3217552e-166
-8.7985893e-173
-2.466176e-179
-7.0674428e-186
-1.6624797e-192
-4.8288457e-199
-1.1490744e-205
-5.5970964e-212
5.343662e-219
1.2083852e-222
-6.1938274e-229
1.0005329e-234
-2.1707234e-240
6.2571529e-246
-9.2649975e-252
6.5342899e-258
-1.3886171e-263
1.6570775e-269
-3.5483352e-275
-2.0303737e-280
-3.1428125e-08
6.1361938e-19
-1.0689205e-29
2.2687424e-40
-7.9357653e-51
6.7128098e-61
-2.6373325e-70
-7.7381707e-79
-1.6065193e-87
-9.134964e-96
-3.0071687e-103
-2.329757e-109
-1.918452e-115
-6.7464058e-122
-1.9798887e-128
-6.2664143e-135
-1.8974052e-141
-5.0485325e-148
-1.3464222e-154
-3.4340811e-161
-8.2968311e-168
-2.530408e-174
-6.8187239e-181
-2.0927445e-187
-5.5066733e-194
-3.0714099e-200
6.2709493e-207
-1.3017578e-212
1.189621e-218
-1.6144479e-224
2.0360044e-230
-6.7685788e-236
7.194939e-242
-9.1643174e-248
6.5037655e-253
-9.9418974e-259
2.3843234e-264
-3.5057274e-270
7.5599392e-276
3.8138022e-282
-2.8113106e-08
4.9161778e-19
-7.6710466e-30
1.4505933e-40
-4.4577909e-51
3.2204809e-61
-9.9898383e-71
-3.9030873e-79
-7.360664e-88
-3.52889e-96
-9.0743656e-104
-4.4332789e-110
-3.0534711e-116
-1.073157e-122
-3.0752359e-129
-7.7159771e-136
-2.2807923e-142