/*--------------------------------*- C++ -*----------------------------------*\
  =========                 |
  \\      /  F ield         | OpenFOAM: The Open Source CFD Toolbox
   \\    /   O peration     | Website:  https://openfoam.org
    \\  /    A nd           | Version:  10
     \\/     M anipulation  |
\*---------------------------------------------------------------------------*/
FoamFile
{
    format      ascii;
    class       volScalarField;
    location    "0.26";
    object      TporMedia;
}
// * * * * * * * * * * * * * * * * * * * * * * * * * * * * * * * * * * * * * //

dimensions      [0 0 0 1 0 0 0];

internalField   nonuniform List<scalar> 
4000
(
0.00029191239
0.00016616473
0.00014826958
0.00015560315
0.00015842391
0.00015931748
0.000156752
0.00016252629
0.00014937538
0.00014128947
0.00015995093
0.00014105803
0.00015937259
0.00014909323
0.00016491299
0.00014991088
0.00014731895
0.00015572851
0.00014809882
0.00015620569
0.00015090554
0.00015299457
0.00016294145
0.00016297325
0.00013681692
0.00015783892
0.00013867157
0.0001342708
0.00014779871
0.00015800992
0.00014332579
0.00015159554
0.00016396079
0.00014486503
0.00015089314
0.00015964171
0.00014865747
0.00014063557
0.00015761738
0.00015686904
0.00022817996
9.5266781e-11
3.8822385e-11
4.1013399e-11
4.5171843e-11
3.7269253e-11
4.3689771e-11
4.866369e-11
4.0014086e-11
3.9497871e-11
4.0047052e-11
3.657507e-11
4.6594676e-11
3.9909344e-11
4.5574875e-11
3.9632641e-11
3.547069e-11
4.3413557e-11
4.6190554e-11
4.2131353e-11
4.7625058e-11
4.283295e-11
4.6190577e-11
4.3141404e-11
3.683134e-11
4.0136248e-11
4.059122e-11
3.8604712e-11
4.0157471e-11
4.854088e-11
3.8667958e-11
3.516112e-11
4.6399721e-11
3.9518271e-11
4.0345442e-11
4.5445561e-11
3.9875551e-11
4.0241034e-11
4.7308196e-11
4.4382137e-11
0.00059243683
1.3447578e-10
3.4160022e-17
1.0893219e-17
1.102093e-17
9.9399989e-18
1.0053317e-17
1.1738554e-17
9.1258414e-18
1.1430775e-17
1.0219225e-17
8.6062452e-18
1.320945e-17
1.0116937e-17
1.3138266e-17
9.1761433e-18
9.515518e-18
1.2550525e-17
1.1750146e-17
1.2265172e-17
1.3191271e-17
1.0609137e-17
1.0620975e-17
1.2321517e-17
1.0234949e-17
1.0024803e-17
9.8654915e-18
9.8306339e-18
1.1176818e-17
1.3040474e-17
1.1143421e-17
9.4886902e-18
1.0334453e-17
9.8416542e-18
8.5544167e-18
1.1331864e-17
1.0962474e-17
9.2693506e-18
1.1303705e-17
1.0534781e-17
-0.00028184991
-1.1991547e-10
-2.4932508e-17
-2.9971936e-24
2.9502926e-24
2.6469913e-24
2.5336355e-24
3.4741195e-24
2.4052904e-24
2.5623794e-24
2.5879602e-24
2.3515186e-24
3.1902004e-24
2.5145341e-24
3.6264117e-24
2.7371244e-24
2.3149318e-24
3.8504147e-24
3.017756e-24
3.2488064e-24
3.593103e-24
2.768432e-24
2.8746108e-24
2.8803815e-24
2.5443941e-24
2.5089196e-24
2.2607909e-24
2.5626143e-24
2.5514489e-24
3.3392489e-24
2.9558802e-24
2.28998e-24
2.5606443e-24
2.2883491e-24
2.1212631e-24
3.2888287e-24
2.8655609e-24
2.9464281e-24
3.1890183e-24
2.541806e-24
-9.2381956e-05
1.1265456e-10
1.8488203e-17
3.9804676e-24
1.5909671e-30
6.7877609e-31
5.9997146e-31
7.6067639e-31
7.5110453e-31
5.5648018e-30
7.056017e-31
8.206426e-31
7.6448845e-31
7.1607244e-31
8.6847152e-31
7.2669595e-31
7.517996e-31
-2.1488165e-30
7.2345372e-31
8.1785574e-31
1.016981e-30
7.3915154e-31
8.6198998e-31
7.4469084e-31
6.2027336e-31
6.7016031e-31
4.3151386e-31
6.3771755e-31
7.368728e-31
8.733339e-31
1.0081263e-30
5.9654212e-31
7.0620114e-31
1.0872193e-30
5.6680745e-31
8.9358789e-31
6.3228001e-31
7.8205817e-31
2.1980919e-30
6.2828361e-31
-4.9456265e-05
5.9789379e-12
1.038254e-18
1.8494421e-25
4.5541834e-32
2.3995102e-37
2.8725135e-37
1.0532779e-36
1.7899976e-37
1.3879024e-35
7.3946121e-37
9.7011285e-37
1.9271947e-37
1.9787277e-37
1.2363333e-37
6.5356734e-38
-8.5103478e-37
1.901356e-35
2.5511739e-37
5.64249e-38
-1.8937331e-37
-1.1455258e-37
-2.3498154e-37
1.7737049e-37
7.6054464e-38
1.5138912e-37
1.0262458e-36
9.3639651e-38
4.5206012e-36
3.1624194e-37
-2.0817412e-37
1.0354031e-37
2.525677e-37
1.0099648e-36
-9.4267399e-38
5.7099093e-37
-2.2197397e-38
-2.90911e-38
-1.3903576e-36
1.64882e-37
-3.1006154e-05
1.7029998e-12
4.4854094e-19
5.8648526e-26
1.3660815e-32
3.4192084e-39
-7.1908243e-43
4.4337667e-41
4.0048535e-44
-2.7850053e-41
2.508366e-42
-7.9081737e-43
2.6151998e-44
-1.3633867e-43
5.9819365e-43
9.6961694e-43
-5.6302021e-42
9.6456059e-41
1.7171927e-43
-4.573364e-42
-1.6881179e-40
5.5591809e-42
-2.1652459e-42
4.9519086e-43
2.8173982e-43
-1.282148e-42
-1.5835161e-42
-1.860559e-43
-2.1029227e-41
-1.1808451e-42
-2.4731423e-42
3.0337932e-41
3.4797395e-43
-3.1890583e-42
-6.7554577e-43
2.7472722e-42
-7.0023168e-43
-1.5868564e-42
-7.3639427e-42
3.759421e-44
-2.1596699e-05
6.4052832e-13
-1.1330143e-18
-1.2071859e-25
-2.296366e-32
-5.3128054e-39
-1.4451918e-45
-1.0022718e-46
-3.6059355e-49
7.5747569e-47
3.7383819e-47
3.5403222e-48
-1.5124612e-49
1.4045534e-48
2.5319658e-48
-1.7755262e-48
-1.9937729e-47
-4.8688648e-46
-3.3210668e-49
-2.6347095e-47
4.6464983e-46
-1.3744974e-47
-3.926315e-47
-1.1884333e-48
8.2487536e-49
2.1485143e-48
1.379949e-47
1.4437801e-48
2.0470717e-46
-3.7288409e-48
2.5936396e-47
2.0405753e-46
-5.402143e-49
1.8556971e-47
-2.1036502e-48
1.6710535e-47
2.4998477e-48
-6.4646104e-48
9.8962304e-46
9.537385e-51
-1.6173363e-05
3.0088047e-13
-3.2832057e-20
-2.9934319e-27
-4.2858664e-34
-1.0254974e-40
-2.3497773e-47
-3.0527124e-51
1.8354808e-54
2.1550355e-51
-1.7555121e-51
2.6062609e-52
-8.5378575e-54
-5.1718746e-54
-1.0995233e-53
-8.7630927e-54
-4.9295971e-53
7.4939619e-52
-1.1281381e-54
3.0734874e-52
-3.3387169e-51
9.7399648e-53
8.3482461e-53
7.4751208e-54
-8.0494924e-54
2.8921834e-53
1.468687e-52
-1.6012764e-54
-1.0607146e-50
7.6073325e-54
1.2189727e-52
8.2476257e-52
1.7899981e-54
1.6798869e-52
-1.0987149e-53
6.1476582e-53
1.8100352e-53
-2.5998601e-53
2.0570792e-51
2.8078245e-57
-1.2496425e-05
1.5696662e-13
-6.9096509e-21
-6.091977e-28
-6.9385112e-35
-1.3936709e-41
-3.6151749e-48
-8.4295502e-55
-1.1703401e-59
-5.0459502e-57
-4.9710215e-57
3.2436042e-56
-8.6961017e-59
-1.7676625e-58
-9.9367746e-59
-4.3204152e-59
1.6638048e-58
2.4480201e-57
-7.2010683e-60
-7.9256261e-58
2.6174868e-56
-6.6739894e-58
-2.6968653e-58
1.8566052e-59
1.7103306e-59
5.2200688e-58
1.1326346e-56
-1.2525034e-59
5.5083122e-55
2.4230866e-59
-2.0459165e-58
1.4844885e-55
4.1139965e-59
7.3251048e-58
2.3222821e-59
-6.2508639e-58
1.0366016e-58
4.9710104e-59
-1.1109084e-56
-2.658759e-63
-9.9171853e-06
8.8248353e-14
-2.1417402e-21
-1.8783876e-28
-1.5030896e-35
-2.8652474e-42
-8.9722451e-49
-2.0925126e-55
-5.3133399e-62
-1.5511181e-62
1.7795385e-62
-5.1069805e-62
4.7717894e-64
2.1683486e-63
9.3617465e-64
6.0965134e-64
-5.5267563e-63
3.9563101e-63
9.9944632e-66
1.5904073e-63
1.7024473e-60
2.0885798e-63
2.1370839e-63
2.2685585e-64
-8.9830634e-65
2.6520325e-62
1.0073483e-61
-4.8581328e-65
6.2800644e-60
-3.2722617e-64
1.0700941e-63
-5.3903136e-61
-1.1813451e-63
-1.0359727e-63
2.2703174e-64
-2.7276744e-63
-4.0067238e-63
-2.7183091e-64
2.719002e-62
6.3751981e-69
-7.9409179e-06
5.2738886e-14
-7.7080625e-22
-9.5186412e-29
-5.9647124e-36
-8.9037468e-43
-2.3178207e-49
-5.506237e-56
-1.5828245e-62
-1.2315944e-67
-5.7125468e-68
1.6738674e-67
3.4766202e-69
2.7307465e-68
3.7925105e-69
-9.1012027e-70
-3.9775549e-68
-5.2328184e-69
-4.06425e-71
3.4092636e-69
6.60614e-66
5.3539722e-68
2.643314e-68
1.3739275e-68
-2.6585471e-70
7.3225208e-67
-3.6557019e-67
-1.1090377e-69
-1.9198945e-65
-2.22798e-69
4.5827668e-69
-4.8044281e-66
-2.8803427e-69
-1.3573935e-68
-1.7548965e-69
7.2272976e-69
-8.4682726e-68
1.3409828e-69
-9.5392642e-68
-3.0952028e-74
-6.3302334e-06
3.2070013e-14
-3.1072937e-22
-2.5230783e-28
-1.2628994e-35
-1.4762768e-42
-3.7067762e-49
-9.6505221e-56
-2.1549519e-62
-5.9361928e-69
1.0032387e-72
-1.8998563e-72
1.4021646e-74
-1.739683e-73
-2.7601768e-74
1.1993475e-74
-2.4671806e-73
6.0858133e-74
9.3735689e-77
-8.3707329e-74
8.5332941e-71
-8.8097555e-74
2.4585269e-73
2.3727496e-73
5.8074649e-76
3.7632751e-72
-2.9686597e-72
-6.8759535e-73
-1.302888e-70
8.8186076e-75
-2.6833131e-74
-1.4620414e-71
3.378179e-74
6.9917955e-74
1.0088721e-74
1.142491e-73
6.8838596e-74
-2.9040726e-74
-1.3179781e-72
-4.4698919e-79
-5.0947328e-06
2.0032625e-14
-1.3383148e-22
1.2740275e-29
5.2533452e-37
4.5734313e-44
1.1055613e-50
2.7428343e-57
6.8710262e-64
1.533932e-70
8.2767378e-77
-7.8464045e-78
6.7909076e-79
-3.2138891e-78
5.9621714e-80
4.6692391e-80
-1.3125241e-78
-1.5347147e-79
2.308378e-82
-2.035077e-79
-3.4255006e-76
-3.1611769e-79
1.5514205e-78
-5.0558482e-79
1.5501476e-79
2.3388959e-77
-1.82677e-77
-2.2817749e-77
-3.3577963e-76
5.3378113e-80
1.5506984e-79
2.837056e-77
7.557155e-80
7.4133134e-79
-6.9994413e-80
-2.9241052e-78
1.8843468e-79
-9.9950527e-80
1.5416798e-78
3.5389458e-85
-4.1243964e-06
1.2790212e-14
-6.1794006e-23
2.2408856e-30
7.8804221e-38
5.2547139e-45
1.1653531e-51
3.7978183e-58
9.9185217e-65
2.4923653e-71
6.2062563e-78
5.5373126e-83
2.4808451e-83
4.1020051e-83
-5.6149475e-85
-8.2607709e-86
2.7345915e-84
-1.0467238e-84
1.0213983e-87
7.6652612e-85
-1.3684996e-81
1.1787165e-84
-2.9094009e-84
3.2695493e-84
-1.0871387e-83
-5.1034725e-83
7.0069223e-83
6.9686169e-83
-6.6124749e-82
-2.3849554e-85
5.144357e-85
-1.1400171e-82
-1.4657277e-84
-1.3059976e-84
-5.0912351e-85
-1.8100019e-83
-2.6539038e-85
1.1951545e-83
-1.4401815e-83
-3.5590928e-90
-3.3597283e-06
8.3098182e-15
-2.9809043e-23
5.5366827e-31
1.7865357e-38
8.9581039e-46
1.6106798e-52
5.2717108e-59
1.4770118e-65
3.8356612e-72
1.0352025e-78
2.6847923e-85
1.2400551e-87
-1.141649e-88
-1.3406022e-89
-1.0287363e-90
-1.0338876e-89
9.9268685e-91
7.9224498e-93
-1.1653709e-90
-5.5185e-87
-3.3006043e-90
4.7652874e-89
-4.5302695e-90
-2.6236242e-89
2.854352e-88
3.8318958e-88
-1.0104365e-88
1.2116899e-87
-4.8390706e-90
-1.0724969e-90
-5.4589011e-88
1.314802e-90
-4.9080881e-90
-1.691795e-90
-5.8652932e-89
1.5789974e-90
-2.1358746e-89
1.9081142e-89
4.9157602e-96
-2.7430967e-06
5.4692391e-15
-1.4868339e-23
1.6511744e-31
5.0630375e-39
1.9439333e-46
2.5269234e-53
8.4937377e-60
2.3531611e-66
6.3282367e-73
1.3872244e-79
4.5403759e-86
5.1394136e-93
-4.8482983e-94
7.6323162e-95
-1.6174732e-95
2.4380564e-95
5.5818423e-96
-1.9802681e-97
5.0975664e-96
1.313024e-92
1.5336776e-95
-1.2602519e-94
9.4369419e-96
1.041987e-94
-5.8806067e-94
-4.3832161e-94
-4.3957508e-94
-2.4625489e-93
2.3986505e-95
-3.1933611e-96
2.1594689e-93
-1.8830603e-95
1.069515e-95
3.3821739e-96
3.3626959e-94
-6.1253605e-96
-2.1912357e-94
-3.2443361e-95
-8.929589e-102
-2.2597011e-06
3.6557085e-15
-7.6778198e-24
5.5702603e-32
1.7881881e-39
5.3731592e-47
5.5511455e-54
1.4202665e-60
4.4133384e-67
1.2161968e-73
3.5701612e-80
1.0340903e-86
2.9547423e-93
3.266018e-99
-1.6670782e-100
6.2461724e-101
3.425468e-100
-1.7699537e-101
2.7158897e-103
-6.9680246e-101
-1.7200471e-98
-3.0768876e-100
1.8834709e-100
2.1567078e-100
-2.6607776e-100
3.2389207e-99
1.4909987e-99
3.2609405e-99
9.838266e-99
-5.2438499e-101
5.4498956e-102
-2.3503626e-98
-8.1941187e-101
-2.5260353e-101
9.6856223e-101
-9.7777309e-100
1.0775779e-101
4.4114686e-100
1.5117569e-100
3.6618455e-107
-1.8786678e-06
2.4893319e-15
-4.0981219e-24
2.0308367e-32
7.9255568e-40
1.8731329e-47
1.4259789e-54
4.1622442e-61
1.3429633e-67
3.5681583e-74
8.4971836e-81
2.6305025e-87
6.9130036e-94
2.1169447e-100
4.5493819e-106
-5.0402739e-106
-3.0918395e-106
5.4707028e-107
-9.094477e-109
3.297657e-106
2.0128534e-104
8.5066314e-106
2.7362627e-105
-3.1320327e-106
3.3799477e-106
-1.1873396e-104
-1.5559251e-104
-1.1102759e-104
-3.0141834e-104
8.6547088e-107
-8.2678704e-107
4.8919639e-104
2.9141587e-106
8.8016739e-107
-1.0830844e-106
1.6641562e-105
-1.8835909e-106
-2.6447086e-106
-3.3747513e-106
-8.9335553e-113
-1.5658446e-06
1.7121874e-15
-2.2383591e-24
7.9146704e-33
5.4761501e-40
1.0608556e-47
6.0061404e-55
1.7404448e-61
5.4356748e-68
1.3322118e-74
3.6856779e-81
1.0318958e-87
2.728534e-94
7.6509827e-101
1.9115457e-107
9.7999528e-112
9.9287149e-112
-1.253872e-112
1.3743081e-114
-1.4551077e-111
-3.743924e-110
-5.6038817e-112
-1.5377144e-110
7.0866187e-112
-1.4903726e-111
4.7934622e-110
4.9981917e-110
5.0620874e-110
6.1259058e-110
-1.8679034e-112
5.0063782e-113
-6.0636919e-110
2.4786653e-110
-1.140098e-112
1.9119364e-112
-3.4143699e-111
2.1143931e-112
1.2474772e-111
5.3571886e-112
1.1462872e-118
-1.3175754e-06
1.1971341e-15
-1.2582296e-24
3.2670226e-33
-1.0133638e-39
-1.6636658e-47
-7.0003989e-55
-1.6244685e-61
-5.1261451e-68
-1.5718966e-74
-4.471149e-81
-1.3094076e-87
-3.5951339e-94
-9.1859857e-101
-2.8577298e-107
-9.0559579e-114
-1.0479589e-117
8.1922124e-119
-1.7666174e-120
1.9467689e-117
4.4891814e-116
3.5565334e-117
1.9954724e-116
-1.7457383e-117
1.3199592e-117
-7.4330697e-116
-7.4437552e-116
-1.747536e-115
-6.1574653e-116
1.3958822e-118
-1.9546747e-118
1.1827211e-115
-2.8108148e-116
4.0913934e-118
-2.8308212e-117
9.1152544e-117
-5.57035e-118
-1.8948071e-117
-1.3114718e-117
-4.0181923e-124
-1.1134062e-06
8.4555804e-16
-7.2190032e-25
1.4124091e-33
-4.4476183e-41
-6.2298107e-49
-1.9721752e-56
-3.156359e-63
-1.2841302e-69
-4.4403691e-76
-1.4410674e-82
-3.857747e-89
-1.1782687e-95
-3.260944e-102
-9.433239e-109
-2.7367474e-115
-7.8139426e-122
-4.5254002e-124
1.5536245e-126
-1.4423148e-121
-8.0703859e-122
-5.0685637e-123
-7.4620574e-122
2.0200221e-123
-4.5533049e-123
1.6657376e-121
9.4816956e-122
3.0657276e-121
5.8973525e-122
-6.2693945e-124
2.1466676e-124
-2.16526e-121
-1.0897947e-120
-4.0048622e-124
2.5575935e-123
-3.2759537e-122
1.5978252e-123
1.3079652e-121
2.9652306e-123
6.3116065e-130
-9.4551846e-07
6.0349254e-16
-4.2240325e-25
6.3417251e-34
-8.9834032e-42
-1.1202238e-49
-2.6842691e-57
-3.4764757e-64
-1.3994919e-70
-4.8221278e-77
-1.3168085e-83
-3.1969119e-90
-8.9404321e-97
-2.781027e-103
-8.9218894e-110
-3.1272489e-116
-8.9158204e-123
-9.0619828e-130
-5.3633427e-132
1.0640882e-126
1.1582372e-127
2.1491137e-128
2.053701e-127
-2.5132969e-129
5.455259e-129
6.101214e-127
-3.149539e-127
-3.8283807e-127
-5.7111618e-127
5.0840164e-130
-5.8659169e-129
3.7879353e-127
4.0111989e-126
1.0277713e-129
-3.6231616e-129
-1.0298696e-127
-4.0657355e-129
-1.6565051e-127
-1.9626888e-129
-3.5470386e-136
-8.064374e-07
4.350825e-16
-2.5161121e-25
2.9455664e-34
-2.3581693e-42
-2.6973204e-50
-5.1236954e-58
-4.370905e-65
-2.186809e-71
-8.5335552e-78
-2.4430501e-84
-6.3031774e-91
-2.0270192e-97
-5.8337737e-104
-1.7085958e-110
-5.5253897e-117
-1.3587599e-123
-4.003437e-130
2.3127818e-136
-1.3301458e-132
-1.3707584e-133
-5.5550062e-134
-2.0585089e-133
2.6408916e-135
-9.1607201e-135
-1.0274143e-132
7.6255423e-133
1.0307487e-132
1.4562102e-132
-1.3803451e-135
2.8876753e-134
-1.0269235e-132
-3.9303072e-132
-2.8304092e-135
9.078299e-135
3.781059e-133
1.4577304e-134
1.980733e-133
4.8703031e-135
8.2005324e-142
-6.9134407e-07
3.1659976e-16
-1.5239346e-25
1.4108838e-34
-7.1257079e-43
-7.6580571e-51
-1.1652573e-58
-7.0620022e-66
-2.3854973e-72
-1.1126361e-78
-3.1199571e-85
-8.8824047e-92
-2.2968515e-98
-6.875855e-105
-2.098441e-111
-5.4595481e-118
-1.8923463e-124
-4.7817972e-131
-1.5687514e-137
1.3793198e-138
4.9953379e-139
1.550268e-139
7.9200853e-139
-2.8360183e-141
7.8507e-141
9.9817979e-139
-2.0807278e-138
-1.4652768e-138
-1.5837182e-138
4.0952109e-141
-9.4314411e-140
1.1691036e-138
8.4645643e-138
2.9678479e-141
-1.6422408e-140
-4.8865235e-139
-2.0395819e-140
-1.7101378e-139
1.102882e-139
3.5036454e-146
-5.9422042e-07
2.3202185e-16
-9.355893e-26
6.9383869e-35
-2.3729153e-43
-2.5324198e-51
-3.1672651e-59
-1.4627496e-66
-4.546588e-73
-1.8777494e-79
-5.7730784e-86
-1.6913745e-92
-4.6534762e-99
-1.3407039e-105
-3.8322361e-112
-1.1644588e-118
-3.5101981e-125
-9.8663289e-132
-3.1810758e-138
-3.3824706e-144
-1.0394395e-144
-2.2438956e-145
-1.2520057e-144
2.082542e-146
-2.0645737e-146
-2.3913826e-144
2.0282429e-144
3.1482162e-144
4.1376015e-144
-6.3495707e-147
1.8169043e-145
-2.7678656e-144
-1.0932721e-143
-4.3883894e-146
5.6319156e-146
5.8137161e-145
9.6846194e-146
1.7582406e-144
-2.5688717e-145
-7.1600071e-152
-5.1265729e-07
1.715137e-16
-5.8252052e-26
3.4938178e-35
-8.487815e-44
-9.6191233e-52
-9.9176448e-60
-3.5155667e-67
-9.9140794e-74
-4.579061e-80
-1.1271373e-86
-3.1402462e-93
-8.4028949e-100
-2.2187474e-106
-6.6842728e-113
-1.6976831e-119
-4.1826797e-126
-1.4602196e-132
3.8665635e-140
-3.9728419e-145
8.1334495e-150
1.6970207e-151
2.5120892e-150
-5.6732116e-152
1.7980666e-152
8.2323871e-150
-1.6113254e-150
-4.93239e-150
-6.7656101e-150
8.2327991e-153
-1.69241e-151
-3.4825484e-149
1.4119222e-149
3.3544179e-152
-4.9359639e-152
-1.821084e-150
-3.4303635e-151
-1.9004011e-150
8.6128667e-151
2.5492376e-157
-4.4345919e-07
1.2743641e-16
-3.6670612e-26
1.7964e-35
-3.1941035e-44
-4.2607625e-52
-3.7237224e-60
-9.8928285e-68
-1.8439677e-74
-1.1137597e-80
-3.1803587e-87
-8.3741923e-94
-2.3908631e-100
-8.1275534e-107
-1.9997291e-113
-4.8901538e-120
-1.5741744e-126
-4.0742941e-133
-1.2653198e-139
-5.8413531e-146
1.7534275e-152
-2.8540514e-157
-6.5315997e-156
1.0194726e-157
-3.6754976e-158
-3.0110218e-155
3.7420946e-156
1.4990225e-155
6.645925e-156
-1.5186166e-158
7.4502713e-157
8.7339959e-155
-3.5115478e-155
4.7243889e-156
1.4987118e-157
4.2748525e-156
1.6502968e-156
1.2496788e-155
-1.4011562e-156
-3.1257545e-163
-3.8472158e-07
9.5375389e-17
-2.3356302e-26
9.4210614e-36
-1.2595598e-44
-2.424703e-52
-1.8159615e-60
-3.7757527e-68
-5.3750065e-75
-4.6464838e-81
-1.7911381e-87
-5.4622607e-94
-1.3268084e-100
-3.7790077e-107
-1.1841129e-113
-3.2034732e-120
-9.1301809e-127
-2.7568335e-133
-6.8798032e-140
-4.6864275e-146
3.8107686e-152
-5.1620054e-158
6.0981476e-162
-1.2114459e-163
3.7182693e-164
2.0910027e-161
-4.457202e-162
-3.6392444e-161
-5.5097566e-161
2.3448299e-164
-9.5744292e-163
-2.6615035e-160
2.6358863e-161
-2.2789721e-161
-1.8557624e-163
-3.1987936e-162
-2.967139e-162
-1.8415528e-161
9.1769764e-162
2.4178831e-168
-3.3452476e-07
7.1732861e-17
-1.5014125e-26
5.0240549e-36
-5.1596376e-45
-3.2973365e-52
-2.1470619e-60
-3.5411585e-68
-3.5485772e-75
-1.671839e-81
-5.0734987e-88
-1.5609289e-94
-3.9605168e-101
-1.1426318e-107
-3.2167773e-114
-9.3505676e-121
-2.6499329e-127
-6.7488667e-134
-1.602935e-140
-4.4988377e-147
-1.9247483e-153
-9.0876564e-161
-3.8154941e-166
3.3838851e-169
-1.5380122e-170
-5.2132979e-167
6.8704716e-168
3.0267183e-167
6.8642946e-167
-6.4210161e-170
5.5543687e-168
3.1296337e-166
-1.1858879e-166
3.4938521e-167
8.5476729e-169
-1.5268884e-167
4.3179472e-168
2.379445e-166
-2.0955099e-167
-5.9384127e-174
-2.9169839e-07
5.4257242e-17
-9.7476896e-27
2.7235626e-36
-2.1798564e-45
6.0889501e-53
3.5437299e-61
4.6817352e-69
3.5379496e-76
2.6975899e-82
1.1687236e-88
3.3169485e-95
8.8928509e-102
2.5126898e-108
7.1738682e-115
2.1226858e-121
5.6934997e-128
1.5079868e-134
4.2444548e-141
1.4103633e-147
4.2572736e-154
1.2361481e-160
2.7152829e-167
1.9119209e-173
4.3166628e-176
3.9743109e-172
-7.1312941e-174
-3.9586702e-173
-2.4030413e-172
1.7965663e-175
-9.4298629e-174
-3.8764899e-172
-1.1804126e-171
-4.9229213e-173
-2.4129249e-173
2.0391763e-173
7.417866e-173
-5.9060603e-172
5.7265279e-173
1.4821007e-179
-2.5488276e-07
4.1244071e-17
-6.3829724e-27
1.498434e-36
-9.493566e-46
8.7510775e-54
4.6094305e-62
4.9254166e-70
2.7535701e-77
1.6934787e-83
1.025429e-89
3.4603718e-96
1.078938e-102
2.9164052e-109
7.1533167e-116
2.0959164e-122
5.4178808e-129
1.5415357e-135
4.71314e-142
1.1755794e-148
3.1873422e-155
2.3982305e-161
-1.2834843e-167
1.3792257e-173
-2.6104976e-179
-1.1658936e-177
4.4589695e-180
6.4107864e-179
2.4958594e-177
-5.272141e-181
1.4421004e-179
1.3878089e-177
1.0578666e-177
1.7822034e-178
3.4226737e-178
-4.1667679e-179
-1.4658507e-178
-3.7179431e-177
-6.7297718e-179
-1.723709e-185
-2.2312639e-07
3.1486694e-17
-4.2121439e-27
8.3544812e-37
-4.2395754e-46
2.0774945e-54
1.0130673e-62
8.8769602e-71
3.5451266e-78
1.5247389e-84
8.568095e-91
2.34655e-97
7.2597177e-104
1.8402396e-110
5.0867126e-117
1.3083274e-123
3.7073915e-130
1.2618957e-136
3.3294456e-143
1.0644854e-149
3.3995475e-156
9.5613237e-163
2.2493997e-169
2.3584289e-175
-2.3189264e-181
2.1763044e-183
-5.8057593e-186
-8.1283396e-185
-6.0757169e-183
4.9963434e-187
-6.7827433e-185
-6.7996391e-184
-1.6374658e-183
-4.9516996e-184
-3.7054477e-184
7.3643644e-185
1.5319634e-184
4.9299474e-183
8.9985508e-185
2.2575636e-191
-1.9579395e-07
2.4157723e-17
-2.8026827e-27
4.7206355e-37
-1.938272e-46
5.8926382e-55
2.7204284e-63
1.9899375e-71
6.0875649e-79
2.5099436e-85
1.3501163e-91
4.4308601e-98
1.1770363e-104
3.2865328e-111
1.0061978e-117
2.8611232e-124
7.875054e-131
1.9859239e-137
5.737349e-144
2.1450522e-150
2.9437857e-157
5.0430459e-163
-4.3101526e-169
1.101638e-174
-7.6822832e-181
2.4351976e-185
-2.9337456e-192
2.2938566e-190
9.6243271e-189
-1.053417e-192
1.2436773e-190
2.3552212e-189
4.5687807e-189
4.0224697e-190
-6.1184199e-189
-8.2702168e-191
-1.8682573e-190
-6.9467739e-189
-3.2775603e-191
-3.5534629e-198
-1.720894e-07
1.8604855e-17
-1.877474e-27
2.6977478e-37
-9.0471212e-47
1.8539997e-55
8.3537298e-64
5.1505022e-72
1.2201312e-79
2.7293318e-86
2.6439504e-92
9.2775101e-99
2.6654588e-105
7.4948287e-112
1.8231531e-118
4.8709252e-125
1.3292161e-131
3.9125552e-138
1.1018224e-144
3.4433312e-151
9.4863344e-158
1.7259404e-164
1.6049153e-170
-3.2187266e-176
5.8266019e-182
-5.9911684e-188
-4.1577904e-193
-3.0125418e-196
-7.8811883e-195
9.6761848e-199
-1.9034045e-196
-1.3658834e-194
-4.1174264e-195
-9.804513e-196
9.1073395e-195
5.4112485e-197
6.2041262e-196
1.7308242e-194
3.3942327e-197
1.1910798e-203
-1.5152142e-07
1.4383692e-17
-1.2661682e-27
1.5587885e-37
-4.3057196e-47
6.2628523e-56
2.8567899e-64
1.5034216e-72
2.7881773e-80
4.8998838e-87
4.1431765e-93
1.363946e-99
4.0715823e-106
1.1554792e-112
3.5032741e-119
9.606814e-126
2.77363e-132
7.6972962e-139
2.063539e-145
6.2816345e-152
1.721552e-158
4.6429256e-165
1.7563956e-171
3.2754824e-178
2.7928261e-184
-7.8805221e-190
9.3485142e-196
-1.2262375e-201
1.5545017e-200
2.7457529e-203
1.5040757e-202
6.2953456e-200
1.3553073e-200
1.9123192e-201
-2.2701265e-200
-1.2280163e-202
-6.2223125e-202
-3.576535e-200
-1.7850915e-203
-2.3050735e-210
-1.3363412e-07
1.1160786e-17
-8.5926719e-28
9.1019875e-38
-2.0862171e-47
2.2350171e-56
1.0799515e-64
4.9192412e-73
7.1610996e-81
8.7949616e-88
2.0497486e-93
8.0731065e-100
2.0894371e-106
5.5683739e-113
1.4882555e-119
4.6948419e-126
1.2842703e-132
3.4472484e-139
1.0854501e-145
2.8980665e-152
8.5075547e-159
2.8209573e-165
7.8779433e-172
1.0009127e-178
3.4059966e-184
-3.3515937e-190
1.5825035e-195
-2.3560719e-201
-1.612846e-206
-4.007256e-209
-4.9032852e-208
-6.3402153e-206
-1.8755703e-206
-8.0349356e-207
2.5222132e-206
1.2985746e-208
4.0306167e-207
1.758016e-206
1.4931366e-209
4.8724972e-216
-1.1806376e-07
8.6917281e-18
-5.8670988e-28
5.3668209e-38
-1.0275241e-47
8.3243256e-57
4.6019995e-65
1.8434249e-73
2.1593603e-81
1.7182656e-88
1.3236925e-94
5.2375575e-101
1.5640353e-107
4.3797729e-114
1.440657e-120
4.0125058e-127
1.0449645e-133
2.9244135e-140
8.4233104e-147
2.1588524e-153
5.6182328e-160
1.591616e-166
5.5168222e-173
8.0776801e-180
1.4266454e-185
-5.752146e-191
8.2404622e-197
-1.166374e-202
-2.5162875e-207
1.5353527e-212
5.7512397e-214
1.6551194e-211
4.5772156e-212
5.0803354e-213
-4.4155423e-212
-2.2983197e-213
-5.6979352e-213
-3.3221227e-212
-7.005454e-216
-9.2935508e-223
-1.0444917e-07
6.7904374e-18
-4.0283061e-28
3.1930551e-38
-5.138495e-48
3.2130121e-57
2.3345282e-65
8.2503417e-74
7.8355095e-82
4.7170624e-89
7.5766892e-95
2.7412535e-101
7.5752072e-108
1.9316544e-114
5.5251119e-121
1.7872882e-127
4.9766353e-134
1.4186486e-140
3.4298617e-147
1.0567032e-153
2.8824e-160
6.6730344e-167
1.8170234e-173
3.6506601e-180
5.0763555e-186
-1.4903997e-192
4.223056e-198
-4.0683798e-203
5.1321721e-209
-6.5700808e-215
-5.6812266e-220
-1.9877604e-216
-6.4014324e-218
-9.2984411e-219
9.7438008e-218
9.7484867e-219
-1.3872512e-217
3.4633141e-218
3.1792504e-222
9.223725e-229
-9.2541849e-08
5.3221786e-18
-2.7809133e-28
1.9164308e-38
-2.6065712e-48
1.279541e-57
1.7362758e-65
5.5170338e-74
4.3280819e-82
1.9330181e-89
1.8439333e-95
6.9316904e-102
2.0159172e-108
5.7905393e-115
1.4699088e-121
3.4455033e-128
9.6358054e-135
2.4359203e-141
6.2708751e-148
1.8903353e-154
4.0291749e-161
2.5446482e-167
-4.6154425e-173
4.8237016e-179
-4.9821788e-185
9.2989863e-191
-1.2420353e-196
7.2499882e-202
-5.8272352e-208
8.5706224e-214
-8.8416658e-219
5.1502857e-221
2.0717076e-223
1.1611709e-224
-2.0104641e-223
-1.4282828e-224
1.2215507e-223
-1.533914e-224
-3.3896545e-228
-6.8798891e-235
-8.2099773e-08
4.1832677e-18
-1.9292707e-28
1.1594867e-38
-1.3399492e-48
5.2382179e-58
-3.2398999e-65
-9.364025e-74
-6.1056265e-82
-2.0423561e-89
-1.3019599e-95
-6.8659204e-102
-2.0133231e-108
-4.5096813e-115
-1.2253555e-121
-3.4980661e-128
-9.1586239e-135
-2.6629521e-141
-6.4083138e-148
-2.0418646e-154
-5.8844235e-161
-1.7853345e-167
-3.3530769e-174
-3.3363808e-180
3.7878795e-184
-1.986515e-190
3.6099897e-196
-6.8100099e-202
4.9971585e-208
-5.036972e-214
8.220285e-220
-1.5857071e-225
-4.783355e-229
-4.6997564e-230
2.2337535e-229
1.646035e-230
-1.4356749e-229
1.80059e-230
4.9592022e-234
1.2747423e-240
-7.2925321e-08
3.2974841e-18
-1.3449906e-28
7.0698931e-39
-6.9735873e-49
2.1975059e-58
-1.6040216e-66
-4.2774482e-75
-2.3544334e-83
-6.0848482e-91
-2.4259862e-97
-2.1809876e-103
-6.6510959e-110
-1.9623042e-116
-5.40881e-123
-1.3937652e-129
-3.5061472e-136
-9.9074432e-143
-2.6269964e-149
-7.3570589e-156
-1.829458e-162
-4.2087279e-169
-1.4485109e-175
1.137556e-182
-1.3887392e-187
2.0211261e-193
-4.3872243e-199
1.4241092e-204
-4.5755618e-210
7.9783392e-216
-1.5243799e-221
2.1313479e-227
-1.1760664e-232
5.0144463e-236
-4.0379032e-235
-4.9619644e-236
2.9219767e-235
-1.1492876e-236
-5.4058651e-240
-1.0369112e-246
-6.4849287e-08
2.6056552e-18
-9.4170067e-29
4.3412918e-39
-3.6716228e-49
9.4203051e-59
-3.1988751e-67
-7.9906357e-76
-3.721051e-84
-7.4984804e-92
-1.8603678e-98
-1.3581559e-104
-3.7410907e-111
-1.0826029e-117
-2.6263437e-124
-7.0715362e-131
-1.6291971e-137
-4.5327816e-144
-6.7980503e-151
-8.6164818e-157
1.1747712e-162
-8.5123227e-169
1.1489986e-174
-2.0604131e-180
5.7160717e-186
-7.3175419e-192
2.6054922e-197
-2.9543623e-203
-1.52211e-208
1.756141e-214
-4.3396117e-220
7.0933753e-226
-3.0530954e-231
3.566574e-237
4.8199664e-240
4.5030749e-241
-1.6907548e-241
1.9734702e-242
1.4421781e-245
3.2735191e-252
-5.7730706e-08
2.0642577e-18
-6.6220925e-29
2.6843285e-39
-1.9546795e-49
4.1213589e-59
-8.3082914e-68
-1.9827857e-76
-7.9432926e-85
-1.2601424e-92
-2.1238764e-99
-2.4050649e-105
-8.7414922e-112
-2.0675223e-118
-5.4026528e-125
-1.3100366e-131
-3.6689648e-138
-1.0176979e-144
-3.2321359e-151
-7.826952e-158
-2.003549e-164
-5.5747994e-171
-1.2040863e-177
-5.8590306e-184
1.3711137e-190
-2.9692318e-196
3.6121115e-202
-1.391599e-208
9.5872614e-214
-3.2450486e-219
4.1355267e-225
-2.6187295e-230
2.2190714e-236
-5.142393e-242
-4.6721062e-246
-1.8299012e-246
9.3048654e-247
-1.3379256e-248
2.768815e-250
5.8274928e-257
-5.1444721e-08
1.6389548e-18
-4.6749456e-29
1.670399e-39
-1.0513113e-49
1.8364469e-59
-2.4562412e-68
-5.7071598e-77
-1.9829381e-85
-2.5411981e-93
-3.1166621e-100
-2.511499e-106
-8.1841377e-113
-2.3916483e-119
-6.2622892e-126
-1.7403909e-132
-4.2861023e-139
-1.2939187e-145
-3.1358533e-152
-8.8024556e-159
-2.687483e-165
-6.5816121e-172
-1.4738457e-178
-9.4099806e-185
2.6946699e-191
-7.0790766e-197
2.5708171e-202
-8.8298456e-208
1.1955049e-213
-1.4613672e-219
3.0896559e-225
-5.7285127e-231
2.1861452e-236
-1.5156194e-241
3.646455e-245
-3.753439e-250
-1.8911908e-252
8.2514468e-255
4.2105881e-256
8.7332617e-263
-4.5882645e-08
1.303972e-18
-3.3125455e-29
1.045733e-39
-5.7089272e-50
8.3213557e-60
-7.8536999e-69
-1.8255969e-77
-5.5406765e-86
-5.7416434e-94
-4.573455e-101
-5.8504599e-107
-2.5502376e-113
-7.0817142e-120
-1.9702921e-126
-5.5102863e-133
-1.4579675e-139
-4.5276645e-146
-1.1635152e-152
-2.7301645e-159
-8.0646681e-166
-2.2405767e-172
-5.3299335e-179
-1.4523773e-185
-1.8024662e-192
-5.7242055e-198
5.5954442e-203
-1.8025127e-208
1.055955e-214
-1.3773699e-220
2.6896483e-226
-1.1602615e-230
7.0845357e-236
-1.4763856e-241
6.6518945e-247
-3.3576099e-252
5.4951304e-257
2.297641e-259
3.4829735e-262
7.3585846e-269
-4.0959437e-08
1.0395603e-18
-2.3555245e-29
6.5842702e-40
-3.1286494e-50
3.8303333e-60
-2.6616133e-69
-6.4127806e-78
-1.7202994e-86
-1.4544627e-94
-8.7855681e-102
-8.1916367e-108
-3.3303192e-114
-9.597653e-121
-2.2000588e-127
-6.2910337e-134
-1.5579554e-140
-4.9508749e-147
-1.2230849e-153
-3.2816665e-160
-9.0409705e-167
-2.3329864e-173
-6.2302475e-180
-2.6810952e-186
3.3979932e-191
-5.8339349e-197
5.9969696e-203
-1.0374311e-208
5.3509231e-214
-5.8111551e-220
7.6155216e-226
-1.198106e-231
5.8173111e-237
-9.9983603e-243
1.2998036e-248
-3.7297905e-254
8.141149e-260
-4.9646785e-265
1.6824851e-268
3.6103888e-275
-3.6590214e-08
8.3020781e-19
-1.6803488e-29
4.1678061e-40
-1.7292659e-50
1.7888536e-60
-9.4164027e-70
-2.4579507e-78
-5.8776189e-87
-4.1371657e-95
-1.8214625e-102
-1.8901363e-108
-9.5577377e-115
-2.9199848e-121
-7.9779854e-128
-1.9875322e-134
-5.8361744e-141
-1.4207397e-147
-3.6431943e-154
-9.9984535e-161
-2.5704883e-167
-7.0463842e-174
-1.8446526e-180
-7.1123096e-187
-5.0114905e-194
-1.1309158e-199
-7.9990633e-205
7.08268e-211
-1.1258935e-216
1.5782067e-222
-3.1459778e-228
4.9889111e-233
-4.0010802e-239
3.8332647e-245
-1.4907659e-250
4.8939039e-256
-6.2417752e-262
2.9064094e-267
-1.2651462e-272
-5.9965155e-279
-3.2712599e-08
6.641936e-19
-1.2024588e-29
2.6517247e-40
-9.6365066e-51
8.4684579e-61
-3.45648e-70
-1.0530282e-78
-2.2693067e-87
-1.3380899e-95
-4.5639799e-103
-3.862932e-109
-2.2067135e-115
-7.1061951e-122
-1.7784014e-128
-4.8670612e-135
-1.3210018e-141
-3.4720036e-148
-1.0827686e-154
-3.1247126e-161
-7.6957693e-168
-2.3461809e-174
-6.1793836e-181
-2.683766e-187
2.4217095e-193
-3.5688349e-199
4.2131754e-205
-4.477626e-211
2.5734092e-216
-1.4698131e-222
1.5936816e-228
-4.0146763e-232
7.223794e-238
-2.7888741e-243
1.4025716e-248
-4.6494956e-254
9.638691e-260
-7.8169091e-266
1.2058976e-271
7.3607241e-278
-2.9263611e-08
5.3216025e-19
-8.6287376e-30
1.6950479e-40
-5.410575e-51
4.0601642e-61
-1.3080638e-70
-5.3096408e-79
-1.0409707e-87
-5.2019193e-96
-1.3863759e-103
-5.9425495e-110
-3.0347577e-116
-1.0016495e-122
-2.9857406e-129
-7.6077934e-136
-2.2781656e-142
-6.300486e-149