/*--------------------------------*- C++ -*----------------------------------*\
  =========                 |
  \\      /  F ield         | OpenFOAM: The Open Source CFD Toolbox
   \\    /   O peration     | Website:  https://openfoam.org
    \\  /    A nd           | Version:  10
     \\/     M anipulation  |
\*---------------------------------------------------------------------------*/
FoamFile
{
    format      ascii;
    class       volVectorField;
    location    "0.26";
    object      U;
}
// * * * * * * * * * * * * * * * * * * * * * * * * * * * * * * * * * * * * * //

dimensions      [0 1 -1 0 0 0 0];

internalField   nonuniform List<vector> 
4000
(
(0 0.018637467 0.47773156)
(0 0.023510013 0.50886061)
(0 0.0081668603 0.50052521)
(0 0.0056146206 0.50033634)
(0 0.0042546351 0.50025746)
(0 0.0032549509 0.50016898)
(0 0.0025560964 0.50011969)
(0 0.0020545872 0.50009013)
(0 0.0016765841 0.50006981)
(0 0.0013822438 0.50005539)
(0 0.0011471939 0.50004499)
(0 0.00095509568 0.50003733)
(0 0.00079469493 0.5000316)
(0 0.00065801602 0.50002727)
(0 0.00053923064 0.50002399)
(0 0.00043395822 0.50002151)
(0 0.00033881143 0.50001967)
(0 0.00025108838 0.50001834)
(0 0.00016855647 0.50001744)
(0 8.9293831e-05 0.50001694)
(0 1.1567102e-05 0.50001679)
(0 -6.6275646e-05 0.50001699)
(0 -0.00014589657 0.50001755)
(0 -0.0002290602 0.5000185)
(0 -0.00031774394 0.50001991)
(0 -0.00041426885 0.50002185)
(0 -0.00052147136 0.50002446)
(0 -0.00064294257 0.50002793)
(0 -0.00078337612 0.50003252)
(0 -0.00094909803 0.50003863)
(0 -0.0011489178 0.50004688)
(0 -0.0013954936 0.50005824)
(0 -0.0017075718 0.50007414)
(0 -0.0021155009 0.50009709)
(0 -0.002675195 0.50013481)
(0 -0.0034687634 0.50020237)
(0 -0.0045609827 0.50027143)
(0 -0.0065851678 0.50043364)
(0 -0.017659608 0.50675408)
(0 -0.013590205 0.4797556)
(0 0.037432709 0.44796925)
(0 0.050955783 0.53232616)
(0 0.021969347 0.5080429)
(0 0.01613567 0.50357318)
(0 0.012416111 0.50242316)
(0 0.0095159827 0.501623)
(0 0.0075206478 0.50115662)
(0 0.0060699168 0.50086593)
(0 0.0049645919 0.50066801)
(0 0.0041001407 0.50052902)
(0 0.0034076133 0.50042905)
(0 0.0028400619 0.50035555)
(0 0.0023651133 0.50030066)
(0 0.0019596837 0.50025926)
(0 0.0016068132 0.50022792)
(0 0.0012937067 0.50020426)
(0 0.0010104397 0.50018665)
(0 0.00074907468 0.50017398)
(0 0.00050303775 0.50016547)
(0 0.00026665977 0.50016064)
(0 3.48206e-05 0.50015921)
(0 -0.00019735873 0.50016111)
(0 -0.0004347871 0.50016646)
(0 -0.00068267448 0.50017556)
(0 -0.0009468507 0.50018897)
(0 -0.0012341447 0.50020753)
(0 -0.0015528801 0.50023246)
(0 -0.0019135629 0.50026558)
(0 -0.0023298735 0.50030949)
(0 -0.0028201514 0.5003681)
(0 -0.0034097712 0.50044735)
(0 -0.0041351084 0.5005567)
(0 -0.0050492413 0.50071125)
(0 -0.0062320345 0.5009366)
(0 -0.0078323712 0.50129436)
(0 -0.010126039 0.5019105)
(0 -0.01310714 0.50282507)
(0 -0.017426532 0.50608115)
(0 -0.038759297 0.52526813)
(0 -0.027894802 0.45021631)
(0 0.039888311 0.4098205)
(0 0.061428211 0.54930815)
(0 0.03198384 0.52188197)
(0 0.024355589 0.51008056)
(0 0.019193725 0.50658858)
(0 0.014977263 0.50452809)
(0 0.012006831 0.50327142)
(0 0.009772025 0.50245842)
(0 0.0080366027 0.50190111)
(0 0.0066649187 0.50150874)
(0 0.0055567525 0.50122553)
(0 0.0046425703 0.50101678)
(0 0.0038736344 0.50086064)
(0 0.0032145493 0.50074273)
(0 0.0026389814 0.50065334)
(0 0.0021268778 0.50058583)
(0 0.0016625621 0.50053557)
(0 0.001233415 0.50049936)
(0 0.00082892987 0.50047504)
(0 0.00044000837 0.50046121)
(0 5.8409766e-05 0.50045712)
(0 -0.00032372685 0.50046256)
(0 -0.0007143095 0.50047784)
(0 -0.001121717 0.50050386)
(0 -0.0015552936 0.50054215)
(0 -0.0020259337 0.50059511)
(0 -0.0025468348 0.50066623)
(0 -0.0031345293 0.50076059)
(0 -0.0038103466 0.50088558)
(0 -0.0046025256 0.50105212)
(0 -0.0055494205 0.50127675)
(0 -0.006705011 0.50158559)
(0 -0.008146497 0.50202077)
(0 -0.0099779664 0.50265069)
(0 -0.012372234 0.50361503)
(0 -0.015717257 0.50519911)
(0 -0.019873631 0.50785383)
(0 -0.025187297 0.51641218)
(0 -0.047417795 0.53912721)
(0 -0.030853965 0.41487966)
(0 0.034791626 0.36172996)
(0 0.063839034 0.55456331)
(0 0.039380553 0.53747138)
(0 0.030083526 0.51849262)
(0 0.02411275 0.51197732)
(0 0.019279736 0.50849949)
(0 0.015736301 0.5062643)
(0 0.012954287 0.50475551)
(0 0.010743732 0.5037045)
(0 0.0089679431 0.50295621)
(0 0.0075138914 0.50241118)
(0 0.0063019117 0.50200691)
(0 0.0052741999 0.50170312)
(0 0.0043874993 0.5014729)
(0 0.0036089942 0.5012979)
(0 0.0029133015 0.50116542)
(0 0.0022803159 0.50106662)
(0 0.0016936777 0.50099536)
(0 0.0011396473 0.50094744)
(0 0.00060624579 0.50092018)
(0 8.2573546e-05 0.5009121)
(0 -0.00044178936 0.5009228)
(0 -0.00097732308 0.5009529)
(0 -0.0015350968 0.50100411)
(0 -0.0021273886 0.50107942)
(0 -0.0027684035 0.50118341)
(0 -0.0034751793 0.5013228)
(0 -0.0042687925 0.50150727)
(0 -0.0051760218 0.50175082)
(0 -0.0062316454 0.50207392)
(0 -0.0074815303 0.50250704)
(0 -0.0089879073 0.50309719)
(0 -0.010838145 0.50391908)
(0 -0.013138803 0.50508908)
(0 -0.016025536 0.50680668)
(0 -0.019900914 0.50946726)
(0 -0.024732808 0.51427462)
(0 -0.0311147 0.52824684)
(0 -0.050320729 0.54407157)
(0 -0.028438753 0.37237979)
(0 0.027424306 0.31484309)
(0 0.06231503 0.55024057)
(0 0.044614773 0.55146766)
(0 0.03398224 0.52748816)
(0 0.027464259 0.51772246)
(0 0.022455347 0.51291988)
(0 0.018636947 0.5097315)
(0 0.015528254 0.50749272)
(0 0.013006286 0.50590004)
(0 0.010942217 0.50474702)
(0 0.0092246664 0.50389627)
(0 0.0077747819 0.50325932)
(0 0.0065325778 0.50277726)
(0 0.0054516292 0.50240988)
(0 0.0044958881 0.50212939)
(0 0.0036368896 0.50191632)
(0 0.00285169 0.50175699)
(0 0.0021213507 0.50164182)
(0 0.0014297784 0.50156426)
(0 0.00076281359 0.50152008)
(0 0.00010749267 0.50150696)
(0 -0.0005486143 0.50152425)
(0 -0.0012180055 0.50157293)
(0 -0.0019138263 0.50165571)
(0 -0.0026505539 0.50177725)
(0 -0.0034447672 0.50194472)
(0 -0.0043160921 0.50216851)
(0 -0.0052884127 0.50246352)
(0 -0.006391479 0.50285099)
(0 -0.0076630657 0.50336157)
(0 -0.0091514355 0.50403991)
(0 -0.010919024 0.50495253)
(0 -0.013052667 0.50620225)
(0 -0.01565616 0.50794397)
(0 -0.018817354 0.51040403)
(0 -0.022897754 0.51405448)
(0 -0.028178836 0.52114512)
(0 -0.035708945 0.53932626)
(0 -0.050477999 0.54155458)
(0 -0.024086719 0.33055688)
(0 0.019837955 0.27519753)
(0 0.057990208 0.53974642)
(0 0.047364192 0.56256477)
(0 0.03647795 0.5366046)
(0 0.029636435 0.52350716)
(0 0.024676423 0.51740336)
(0 0.020774517 0.51336311)
(0 0.017510022 0.51044467)
(0 0.014814437 0.50832437)
(0 0.012566834 0.50676202)
(0 0.010665687 0.50559302)
(0 0.0090390031 0.50470827)
(0 0.0076291663 0.50403282)
(0 0.0063903161 0.50351445)
(0 0.0052859938 0.50311647)
(0 0.0042867314 0.50281282)
(0 0.003368301 0.50258496)
(0 0.0025103673 0.50241981)
(0 0.0016954073 0.50230836)
(0 0.0009078352 0.50224477)
(0 0.00013327532 0.50222583)
(0 -0.00064210447 0.50225062)
(0 -0.0014322077 0.50232052)
(0 -0.0022515874 0.50243924)
(0 -0.003116138 0.50261323)
(0 -0.004043845 0.50285229)
(0 -0.0050556824 0.50317055)
(0 -0.0061767146 0.50358801)
(0 -0.0074374901 0.50413284)
(0 -0.0088759361 0.504845)
(0 -0.010539317 0.50578148)
(0 -0.012485926 0.50702456)
(0 -0.014795977 0.50869742)
(0 -0.01757125 0.51098168)
(0 -0.020865724 0.51411971)
(0 -0.024975677 0.51872982)
(0 -0.030510523 0.52822957)
(0 -0.038632038 0.54872385)
(0 -0.048510327 0.53398348)
(0 -0.019067463 0.29393743)
(0 0.013083229 0.2425546)
(0 0.051799056 0.5252004)
(0 0.047709896 0.57024851)
(0 0.037757508 0.54552501)
(0 0.030850841 0.52928868)
(0 0.026073955 0.52180174)
(0 0.022238393 0.51699804)
(0 0.018954083 0.51347362)
(0 0.016193838 0.51086514)
(0 0.013849853 0.50891268)
(0 0.011835632 0.50743292)
(0 0.010088591 0.50630085)
(0 0.0085561095 0.5054287)
(0 0.0071954387 0.50475434)
(0 0.0059717805 0.5042334)
(0 0.0048563186 0.50383394)
(0 0.0038248668 0.503533)
(0 0.0028567553 0.5033142)
(0 0.0019338985 0.5031662)
(0 0.0010400147 0.50308158)
(0 0.0001599627 0.50305627)
(0 -0.00072088301 0.50308911)
(0 -0.0016172191 0.50318184)
(0 -0.0025443485 0.50333916)
(0 -0.0035188349 0.50356922)
(0 -0.0045591809 0.50388432)
(0 -0.0056866232 0.50430203)
(0 -0.0069260742 0.50484701)
(0 -0.0083072377 0.50555349)
(0 -0.0098661832 0.50646928)
(0 -0.011647104 0.50766152)
(0 -0.013702247 0.50922507)
(0 -0.016101117 0.51129789)
(0 -0.018939008 0.51407935)
(0 -0.022247287 0.51783826)
(0 -0.02626678 0.52346743)
(0 -0.03185052 0.53537492)
(0 -0.039761649 0.55589648)
(0 -0.044895737 0.52282206)
(0 -0.014091168 0.26264378)
(0 0.0077701641 0.21554075)
(0 0.044826082 0.50800974)
(0 0.046256044 0.57438084)
(0 0.038035904 0.5537514)
(0 0.031288463 0.53496062)
(0 0.026768907 0.52603042)
(0 0.023117234 0.5205386)
(0 0.019921281 0.51648844)
(0 0.017182495 0.51344188)
(0 0.014813661 0.51113092)
(0 0.012746351 0.50935982)
(0 0.010928513 0.50799133)
(0 0.0093142479 0.50692782)
(0 0.0078655881 0.50609939)
(0 0.006550792 0.50545542)
(0 0.0053429055 0.50495907)
(0 0.0042188205 0.50458356)
(0 0.0031584086 0.50430964)
(0 0.0021437702 0.50412386)
(0 0.0011585834 0.50401742)
(0 0.0001875364 0.50398544)
(0 -0.00078422327 0.50402653)
(0 -0.0017716163 0.50414275)
(0 -0.0027900945 0.50433974)
(0 -0.0038562261 0.50462716)
(0 -0.0049882722 0.5050195)
(0 -0.0062068486 0.50553739)
(0 -0.0075356913 0.50620943)
(0 -0.0090024815 0.50707493)
(0 -0.010640013 0.50818806)
(0 -0.012487865 0.50962406)
(0 -0.014591167 0.51148799)
(0 -0.01700612 0.51392873)
(0 -0.019814382 0.51715501)
(0 -0.023031915 0.52147989)
(0 -0.026881261 0.5281823)
(0 -0.032353204 0.54222013)
(0 -0.039405762 0.56050173)
(0 -0.04033007 0.50908218)
(0 -0.0097085357 0.23585556)
(0 0.004005 0.19355598)
(0 0.037899807 0.48948675)
(0 0.043687706 0.57524005)
(0 0.037564718 0.56084526)
(0 0.03115501 0.54036133)
(0 0.026914946 0.5300116)
(0 0.023514843 0.52390209)
(0 0.020480977 0.51941295)
(0 0.017827328 0.51598824)
(0 0.015489935 0.51335941)
(0 0.013418472 0.51132466)
(0 0.011571589 0.50973811)
(0 0.0099111256 0.50849511)
(0 0.0084048494 0.50752001)
(0 0.0070249333 0.50675742)
(0 0.0057471085 0.50616663)
(0 0.0045500954 0.50571779)
(0 0.0034149781 0.50538926)
(0 0.0023246451 0.50516585)
(0 0.0012632838 0.50503755)
(0 0.00021592326 0.5049988)
(0 -0.00083202084 0.50504802)
(0 -0.0018951972 0.50518756)
(0 -0.0029886904 0.50542381)
(0 -0.0041285194 0.50576775)
(0 -0.0053320947 0.50623573)
(0 -0.0066187333 0.50685086)
(0 -0.008010242 0.50764495)
(0 -0.0095314739 0.50866134)
(0 -0.011211025 0.50995912)
(0 -0.01308276 0.51161959)
(0 -0.015184193 0.51375542)
(0 -0.017557962 0.51652238)
(0 -0.020268212 0.52013151)
(0 -0.023322805 0.52496302)
(0 -0.026963758 0.53273971)
(0 -0.032205364 0.54839055)
(0 -0.037997443 0.5625431)
(0 -0.035416606 0.49379061)
(0 -0.0062008932 0.21324985)
(0 0.0015511409 0.17613303)
(0 0.031499921 0.47076121)
(0 0.04053307 0.57338565)
(0 0.036559829 0.56659868)
(0 0.030638182 0.5453787)
(0 0.026672464 0.53370484)
(0 0.023543844 0.5270326)
(0 0.020711084 0.52218884)
(0 0.018183521 0.51845175)
(0 0.015917689 0.51555164)
(0 0.013879161 0.51328635)
(0 0.012036504 0.51150526)
(0 0.010359421 0.51009932)
(0 0.0088216566 0.50898904)
(0 0.0073996822 0.50811569)
(0 0.0060723851 0.50743574)
(0 0.0048207932 0.50691702)
(0 0.0036276688 0.50653607)
(0 0.0024771365 0.50627631)
(0 0.0013543202 0.50612678)
(0 0.00024500146 0.50608135)
(0 -0.00086473189 0.5061383)
(0 -0.0019888509 0.50630021)
(0 -0.003141659 0.50657409)
(0 -0.0043381943 0.50697195)
(0 -0.0055945645 0.50751163)
(0 -0.0069283133 0.50821815)
(0 -0.0083588267 0.50912573)
(0 -0.0099076716 0.51028069)
(0 -0.011598854 0.51174557)
(0 -0.013460096 0.51360574)
(0 -0.015521462 0.51597866)
(0 -0.017813577 0.51902288)
(0 -0.020383384 0.52294941)
(0 -0.023238119 0.52823517)
(0 -0.026658253 0.53704012)
(0 -0.031568269 0.55365889)
(0 -0.035907645 0.5623073)
(0 -0.030554904 0.4778886)
(0 -0.0035912419 0.19460697)
(0 7.675639e-05 0.16252445)
(0 0.025870706 0.45259977)
(0 0.037160373 0.56943314)
(0 0.035192184 0.57098911)
(0 0.029878161 0.54996324)
(0 0.026174495 0.53711417)
(0 0.023306613 0.52991275)
(0 0.020688111 0.52478467)
(0 0.018308465 0.52079873)
(0 0.016139297 0.51767467)
(0 0.014159315 0.51521396)
(0 0.012345662 0.51326441)
(0 0.010675263 0.5117148)
(0 0.0091275036 0.51048342)
(0 0.0076831315 0.5095095)
(0 0.0063243415 0.50874765)
(0 0.0050346986 0.50816415)
(0 0.0037989173 0.50773422)
(0 0.0026026536 0.50744027)
(0 0.0014322711 0.50727064)
(0 0.00027460856 0.50721878)
(0 -0.00088326835 0.50728285)
(0 -0.0020543464 0.50746559)
(0 -0.0032518412 0.50777451)
(0 -0.0044895047 0.50822237)
(0 -0.0057818438 0.50882808)
(0 -0.0071443513 0.50961803)
(0 -0.0085937524 0.51062812)
(0 -0.010148187 0.51190657)
(0 -0.011827139 0.51351813)
(0 -0.013652397 0.51555044)
(0 -0.015647177 0.51812326)
(0 -0.017832111 0.52139478)
(0 -0.020239575 0.52557944)
(0 -0.022883154 0.53128221)
(0 -0.026080865 0.541031)
(0 -0.030572503 0.55793422)
(0 -0.033429659 0.56018949)
(0 -0.025996765 0.46206512)
(0 -0.0017652887 0.17946715)
(0 -0.00071795375 0.15190685)
(0 0.021108341 0.43543424)
(0 0.033819967 0.56393147)
(0 0.033604834 0.57408937)
(0 0.028975625 0.55409427)
(0 0.025520605 0.54026386)
(0 0.022886789 0.53255304)
(0 0.020479018 0.52719248)
(0 0.018255173 0.52301312)
(0 0.016195851 0.51970896)
(0 0.014290324 0.5170867)
(0 0.012522831 0.51499493)
(0 0.010876477 0.51332176)
(0 0.0093356299 0.51198455)
(0 0.0078850054 0.5109215)
(0 0.006510006 0.51008624)
(0 0.0051967577 0.50944409)
(0 0.0039320348 0.50896946)
(0 0.0027031818 0.50864409)
(0 0.0014979879 0.50845585)
(0 0.00030455058 0.5083979)
(0 -0.00088887887 0.50846831)
(0 -0.0020940937 0.50866995)
(0 -0.0033230206 0.50901064)
(0 -0.0045879386 0.50950368)
(0 -0.0059015963 0.51016865)
(0 -0.0072773309 0.51103283)
(0 -0.0087291781 0.51213307)
(0 -0.010271951 0.5135187)
(0 -0.011920965 0.51525556)
(0 -0.013692668 0.51743229)
(0 -0.015604216 0.52016905)
(0 -0.017668076 0.52362175)
(0 -0.019905712 0.52801609)
(0 -0.022343314 0.53411026)
(0 -0.025322539 0.54468135)
(0 -0.029333225 0.56120714)
(0 -0.030795037 0.55658488)
(0 -0.021895769 0.44675846)
(0 -0.00056469748 0.16724321)
(0 -0.0010700816 0.14358288)
(0 0.017203686 0.41947879)
(0 0.030667455 0.55733992)
(0 0.031915702 0.57602065)
(0 0.028004652 0.55776414)
(0 0.024784337 0.54317974)
(0 0.022350832 0.53497618)
(0 0.02013945 0.52941816)
(0 0.018069424 0.5250909)
(0 0.01612438 0.52164507)
(0 0.014301698 0.51889206)
(0 0.012591223 0.51668276)
(0 0.010981096 0.51490561)
(0 0.0094598778 0.51347788)
(0 0.0080157907 0.51233755)
(0 0.0066371784 0.51143788)
(0 0.0053126039 0.51074375)
(0 0.0040308787 0.51022917)
(0 0.0027810781 0.50987552)
(0 0.0015525011 0.50967037)
(0 0.00033461122 0.50960674)
(0 -0.00088303564 0.50968262)
(0 -0.00211092 0.50990096)
(0 -0.0033595729 0.51026978)
(0 -0.0046397179 0.51080265)
(0 -0.0059623047 0.51151955)
(0 -0.0073385426 0.51244817)
(0 -0.0087799024 0.51362583)
(0 -0.010298126 0.51510223)
(0 -0.011904852 0.51694354)
(0 -0.013611959 0.51923849)
(0 -0.015431445 0.52210629)
(0 -0.017369296 0.52569985)
(0 -0.01944011 0.53026634)
(0 -0.021687558 0.53673104)
(0 -0.024456507 0.54797107)
(0 -0.027952138 0.56352151)
(0 -0.028174354 0.55185517)
(0 -0.018326088 0.43223328)
(0 0.00016896253 0.15738914)
(0 -0.0011531883 0.13700116)
(0 0.014079255 0.40481375)
(0 0.027782892 0.55003281)
(0 0.030212838 0.5769304)
(0 0.027017658 0.56097933)
(0 0.024018688 0.54588582)
(0 0.021750625 0.53720916)
(0 0.019714603 0.53147483)
(0 0.017789558 0.52703533)
(0 0.015956993 0.52348044)
(0 0.014219913 0.52062366)
(0 0.012572339 0.51831908)
(0 0.011006331 0.51645609)
(0 0.0095138382 0.51495245)
(0 0.0080860501 0.51374641)
(0 0.0067138961 0.5127913)
(0 0.0053881586 0.512052)
(0 0.004099571 0.51150239)
(0 0.0028388943 0.51112373)
(0 0.001596938 0.51090349)
(0 0.00036456122 0.5108346)
(0 -0.00086733356 0.51091504)
(0 -0.0021078718 0.51114777)
(0 -0.0033661617 0.51154089)
(0 -0.0046513731 0.51210808)
(0 -0.0059727057 0.51286944)
(0 -0.0073393624 0.51385275)
(0 -0.008760473 0.51509535)
(0 -0.010245058 0.51664686)
(0 -0.011801637 0.51857319)
(0 -0.013438345 0.52096253)
(0 -0.015163017 0.52393223)
(0 -0.016976814 0.52763277)
(0 -0.018891361 0.53234389)
(0 -0.020970458 0.53915869)
(0 -0.02353998 0.55089366)
(0 -0.026511717 0.56495987)
(0 -0.02567887 0.54631818)
(0 -0.01529937 0.41863757)
(0 0.0005738213 0.14944213)
(0 -0.0010856035 0.1317219)
(0 0.0116244 0.39143044)
(0 0.025194119 0.54230381)
(0 0.028555057 0.5769729)
(0 0.026048046 0.56375951)
(0 0.023259023 0.54840494)
(0 0.021124694 0.53928044)
(0 0.019239929 0.53337989)
(0 0.017446806 0.52885437)
(0 0.015720752 0.52521716)
(0 0.014067972 0.52227955)
(0 0.012485385 0.51989909)
(0 0.010967966 0.51796652)
(0 0.0095102777 0.51640036)
(0 0.0081059247 0.51513943)
(0 0.0067480254 0.51413748)
(0 0.0054293128 0.51335959)
(0 0.0041422675 0.5127798)
(0 0.0028792283 0.51237941)
(0 0.0016324542 0.5121459)
(0 0.00039416722 0.5120722)
(0 -0.00084340343 0.51215627)
(0 -0.0020880478 0.51240107)
(0 -0.003347487 0.51281469)
(0 -0.0046294023 0.51341077)
(0 -0.0059413569 0.51420932)
(0 -0.0072907306 0.51523799)
(0 -0.0086845949 0.51653383)
(0 -0.01012965 0.51814601)
(0 -0.01163187 0.52013987)
(0 -0.013196463 0.52260263)
(0 -0.01482809 0.52564926)
(0 -0.016524676 0.52942966)
(0 -0.018298188 0.53426691)
(0 -0.020232657 0.54140983)
(0 -0.022614516 0.55345677)
(0 -0.025073035 0.56562671)
(0 -0.023371278 0.54023974)
(0 -0.012785997 0.40603319)
(0 0.00075898847 0.1430079)
(0 -0.0009437673 0.12739952)
(0 0.0097203506 0.37926279)
(0 0.022897687 0.53437334)
(0 0.026977559 0.57629319)
(0 0.025114563 0.56613191)
(0 0.022526586 0.55075781)
(0 0.020499712 0.54121772)
(0 0.018741885 0.53515299)
(0 0.017065663 0.53055905)
(0 0.015437724 0.52686057)
(0 0.013865245 0.52386103)
(0 0.012346992 0.52142112)
(0 0.01088001 0.51943307)
(0 0.0094607809 0.51781628)
(0 0.0080847969 0.51651029)
(0 0.0067469684 0.51546941)
(0 0.0054416893 0.51465912)
(0 0.0041629799 0.51405374)
(0 0.0029046092 0.51363474)
(0 0.0016601803 0.5133897)
(0 0.00042320037 0.51331161)
(0 -0.00081284111 0.51339842)
(0 -0.0020544653 0.51365307)
(0 -0.003308088 0.51408355)
(0 -0.0045800125 0.51470337)
(0 -0.0058763212 0.51553233)
(0 -0.0072027902 0.51659773)
(0 -0.0085647403 0.51793616)
(0 -0.0099669676 0.51959618)
(0 -0.011413448 0.52164231)
(0 -0.012907206 0.52416061)
(0 -0.014450622 0.52726361)
(0 -0.016039854 0.53110343)
(0 -0.017689727 0.53605581)
(0 -0.019502345 0.54350202)
(0 -0.021708174 0.5556778)
(0 -0.023678116 0.56563204)
(0 -0.02127965 0.53383135)
(0 -0.010733463 0.39441962)
(0 0.00080478072 0.13775308)
(0 -0.00077516913 0.12377291)
(0 0.0082544527 0.36821386)
(0 0.020873328 0.52640086)
(0 0.025498246 0.57501912)
(0 0.024226013 0.56812611)
(0 0.021832536 0.55296142)
(0 0.019892844 0.54304566)
(0 0.01823925 0.53681387)
(0 0.016664594 0.53216184)
(0 0.01512529 0.52841796)
(0 0.013627536 0.52537158)
(0 0.012171141 0.52288572)
(0 0.010754541 0.52085411)
(0 0.0093755515 0.51919697)
(0 0.0080310847 0.51785457)
(0 0.0067174713 0.51678185)
(0 0.0054304796 0.51594478)
(0 0.0041654502 0.51531801)
(0 0.0029174128 0.5148833)
(0 0.0016811829 0.51462837)
(0 0.00045144375 0.51454628)
(0 -0.00077715338 0.51463501)
(0 -0.00200996 0.51489743)
(0 -0.0032521997 0.51534141)
(0 -0.0045089368 0.51598024)
(0 -0.0057849519 0.51683342)
(0 -0.0070846504 0.51792783)
(0 -0.0084119103 0.51929949)
(0 -0.0097700182 0.52099623)
(0 -0.011161451 0.52308174)
(0 -0.012587676 0.52564082)
(0 -0.014049559 0.52878389)
(0 -0.015542785 0.53266879)
(0 -0.017086763 0.53773089)
(0 -0.018797773 0.54545172)
(0 -0.020838518 0.55757917)
(0 -0.022353533 0.56508077)
(0 -0.019409103 0.52725497)
(0 -0.0090790046 0.38375636)
(0 0.00076770349 0.13340525)
(0 -0.00060779516 0.12065184)
(0 0.0071275162 0.35817477)
(0 0.01909303 0.51849849)
(0 0.024122993 0.57325967)
(0 0.023384867 0.56977147)
(0 0.021181342 0.55502867)
(0 0.019314188 0.54478472)
(0 0.017744737 0.53838087)
(0 0.016257039 0.53367535)
(0 0.014796714 0.52989744)
(0 0.013367377 0.52681594)
(0 0.011969267 0.52429499)
(0 0.010601697 0.52222962)
(0 0.0092633435 0.52054079)
(0 0.0079521426 0.51916943)
(0 0.0066655178 0.51807106)
(0 0.0054003456 0.51721217)
(0 0.0041530706 0.5165678)
(0 0.0029198081 0.51611998)
(0 0.0016964401 0.51585663)
(0 0.00047869922 0.5157709)
(0 -0.00073771976 0.5158608)
(0 -0.0019571181 0.51612911)
(0 -0.0031836582 0.51658355)
(0 -0.0044213189 0.51723718)
(0 -0.0056737651 0.51810913)
(0 -0.0069442623 0.51922581)
(0 -0.0082355337 0.52062264)
(0 -0.0095497121 0.52234677)
(0 -0.010888202 0.52446105)
(0 -0.01225143 0.52704909)
(0 -0.013639365 0.53021981)
(0 -0.015048334 0.53414061)
(0 -0.016503316 0.53931063)
(0 -0.018129739 0.5472733)
(0 -0.020015277 0.55918531)
(0 -0.02111376 0.56406763)
(0 -0.0177504 0.52063126)
(0 -0.007757911 0.37398049)
(0 0.00068616792 0.12974908)
(0 -0.0004565661 0.11790105)
(0 0.0062569582 0.34903601)
(0 0.01752666 0.51074272)
(0 0.022849918 0.57110615)
(0 0.022589772 0.57109598)
(0 0.020573188 0.55696898)
(0 0.018768797 0.54645104)
(0 0.017266473 0.53987014)
(0 0.015852444 0.53511147)
(0 0.014461843 0.53130718)
(0 0.013094459 0.52819943)
(0 0.011750511 0.52565189)
(0 0.010429797 0.52356067)
(0 0.0091314944 0.5218473)
(0 0.0078542473 0.52045322)
(0 0.0065962914 0.5193345)
(0 0.0053553739 0.51845808)
(0 0.0041288428 0.51779941)
(0 0.0029137277 0.51734078)
(0 0.0017068282 0.51707033)
(0 0.00050479268 0.51698129)
(0 -0.00069576853 0.51707168)
(0 -0.0018982354 0.51734423)
(0 -0.0031058474 0.51780648)
(0 -0.004321654 0.51847123)
(0 -0.0055483873 0.51935724)
(0 -0.0067883881 0.52049045)
(0 -0.0080434834 0.52190574)
(0 -0.0093149585 0.52364958)
(0 -0.010603498 0.52578412)
(0 -0.011908891 0.52839193)
(0 -0.013230703 0.53158125)
(0 -0.01456681 0.53553297)
(0 -0.015948116 0.54081107)
(0 -0.017503577 0.54897887)
(0 -0.019242473 0.56052089)
(0 -0.019964261 0.56267535)
(0 -0.016286277 0.51404773)
(0 -0.0067089721 0.36501852)
(0 0.00058535199 0.12661803)
(0 -0.00032794744 0.11542629)
(0 0.0055770415 0.3406937)
(0 0.016145279 0.50318364)
(0 0.021672744 0.56863428)
(0 0.021837352 0.57212572)
(0 0.020005681 0.55878898)
(0 0.018258245 0.54805681)
(0 0.016809199 0.54129544)
(0 0.015457168 0.53648099)
(0 0.014127766 0.53265493)
(0 0.012816096 0.52952746)
(0 0.011522014 0.52695986)
(0 0.010245519 0.52484904)
(0 0.0089860286 0.52311689)
(0 0.0077426458 0.52170525)
(0 0.0065141887 0.52057061)
(0 0.0052990721 0.51968032)
(0 0.004095367 0.51901017)
(0 0.0029008579 0.51854273)
(0 0.0017131179 0.5182663)
(0 0.00052957793 0.51817424)
(0 -0.00065236494 0.51826456)
(0 -0.0018352994 0.51853992)
(0 -0.0030216802 0.5190077)
(0 -0.0042137777 0.51968044)
(0 -0.0054135616 0.52057655)
(0 -0.0066226425 0.52172154)
(0 -0.0078421739 0.52314977)
(0 -0.0090728478 0.52490718)
(0 -0.010314907 0.52705534)
(0 -0.011567817 0.52967597)
(0 -0.01283111 0.53287772)
(0 -0.014104898 0.53685859)
(0 -0.015425858 0.54224559)
(0 -0.016920762 0.55057834)
(0 -0.018520212 0.56160966)
(0 -0.018904324 0.56097443)
(0 -0.014995902 0.50756585)
(0 -0.0058775884 0.3567938)
(0 0.00048099932 0.1238854)
(0 -0.00022327119 0.11316313)
(0 0.0050372833 0.33305285)
(0 0.014922791 0.49585212)
(0 0.020583227 0.56590651)
(0 0.021123467 0.57288459)
(0 0.019475091 0.56049314)
(0 0.017781859 0.54961083)
(0 0.016375251 0.54266815)
(0 0.01507524 0.5377934)
(0 0.013799406 0.53394783)
(0 0.012537663 0.53080523)
(0 0.011289235 0.52822248)
(0 0.01005412 0.52609689)
(0 0.0088317971 0.52435054)
(0 0.0076216406 0.52292551)
(0 0.0064228686 0.5217786)
(0 0.0052343936 0.52087747)
(0 0.0040548535 0.52019822)
(0 0.0028826435 0.51972365)
(0 0.0017159764 0.51944223)
(0 0.00055293894 0.5193474)
(0 -0.00060840905 0.51943718)
(0 -0.0017699906 0.51971416)
(0 -0.0029336061 0.52018556)
(0 -0.0041008871 0.52086368)
(0 -0.0052731945 0.52176663)
(0 -0.0064515774 0.52291952)
(0 -0.0076367026 0.52435631)
(0 -0.008828872 0.5261225)
(0 -0.010028098 0.52827923)
(0 -0.011233753 0.53090765)
(0 -0.012445612 0.534118)
(0 -0.013666495 0.5381286)
(0 -0.014938302 0.54362492)
(0 -0.016380201 0.55207962)
(0 -0.017846161 0.56247365)
(0 -0.017929434 0.55902387)
(0 -0.013857774 0.50122713)
(0 -0.0052170906 0.34923121)
(0 0.00038231578 0.12145638)
(0 -0.00014100864 0.11106818)
(0 0.0046000276 0.32602885)
(0 0.013836516 0.48876546)
(0 0.019572694 0.56297435)
(0 0.02044399 0.57339437)
(0 0.018977204 0.56208434)
(0 0.017337648 0.55111907)
(0 0.015965331 0.54399741)
(0 0.014708983 0.53905687)
(0 0.01348003 0.53519223)
(0 0.012262993 0.5320376)
(0 0.011056251 0.5294433)
(0 0.0098596544 0.52730659)
(0 0.0086726317 0.52554961)
(0 0.0074946956 0.5241145)
(0 0.0063253214 0.52295825)
(0 0.0051637817 0.52204878)
(0 0.0040091489 0.5213624)
(0 0.0028603023 0.52088211)
(0 0.0017159744 0.52059652)
(0 0.00057479069 0.52049915)
(0 -0.00056464136 0.52058801)
(0 -0.0017036953 0.52086562)
(0 -0.0028436375 0.52133908)
(0 -0.0039855863 0.52202047)
(0 -0.005130428 0.52292763)
(0 -0.0062787931 0.52408536)
(0 -0.0074310132 0.52552728)
(0 -0.0085871568 0.52729861)
(0 -0.0097471603 0.5294602)
(0 -0.010910464 0.53209295)
(0 -0.012077291 0.53530993)
(0 -0.013253439 0.53935242)
(0 -0.014485192 0.54495736)
(0 -0.01587925 0.55348879)
(0 -0.017216645 0.56313285)
(0 -0.01703301 0.55687259)
(0 -0.01285145 0.4950583)
(0 -0.0046889333 0.34226006)
(0 0.00029413112 0.11926116)
(0 -7.8250309e-05 0.1091124)
(0 0.0042378587 0.31954759)
(0 0.01286717 0.48193154)
(0 0.018632928 0.5598805)
(0 0.019795216 0.573675)
(0 0.018507851 0.56356443)
(0 0.016922962 0.55258523)
(0 0.015579093 0.5452904)
(0 0.014359525 0.54027833)
(0 0.013171672 0.53639371)
(0 0.011994724 0.53322894)
(0 0.010826023 0.53062565)
(0 0.0096651773 0.52848054)
(0 0.0085115007 0.52671564)
(0 0.0073645492 0.52527305)
(0 0.006223949 0.52410981)
(0 0.0050892239 0.523194)
(0 0.0039597712 0.52250209)
(0 0.0028348465 0.52201724)
(0 0.0017135955 0.52172817)
(0 0.00059507882 0.52162844)
(0 -0.00052165297 0.52171609)
(0 -0.0016375291 0.52199356)
(0 -0.0027533879 0.52246783)
(0 -0.003869945 0.52315081)
(0 -0.0049877266 0.52406011)
(0 -0.006107062 0.52522031)
(0 -0.0072280664 0.52666477)
(0 -0.008350693 0.52843857)
(0 -0.0094749052 0.53060242)
(0 -0.010600325 0.53323726)
(0 -0.011727773 0.53646035)
(0 -0.012866115 0.54053782)
(0 -0.014064978 0.54624906)
(0 -0.01541444 0.55481046)
(0 -0.016627419 0.56360518)
(0 -0.016207619 0.5545609)
(0 -0.01195844 0.48907527)
(0 -0.0042621815 0.33581564)
(0 0.00021842877 0.11724913)
(0 -3.1629685e-05 0.10727619)
(0 0.0039312088 0.31354491)
(0 0.011998564 0.47535186)
(0 0.017756583 0.55666056)
(0 0.019174021 0.57374481)
(0 0.018063203 0.56493471)
(0 0.016534926 0.55401127)
(0 0.015215561 0.54655261)
(0 0.014027179 0.54146352)
(0 0.012875478 0.53755709)
(0 0.011734583 0.53438317)
(0 0.010600638 0.53177265)
(0 0.0094729396 0.52962109)
(0 0.0083506566 0.52785031)
(0 0.0072333259 0.5264022)
(0 0.006120647 0.5252338)
(0 0.0050123107 0.52431323)
(0 0.0039079498 0.52361708)
(0 0.002807106 0.52312862)
(0 0.0017092469 0.52283663)
(0 0.00061377746 0.52273474)
(0 -0.00047990046 0.52282095)
(0 -0.001572364 0.52309768)
(0 -0.0026641161 0.52357179)
(0 -0.0037555643 0.52425506)
(0 -0.0048469691 0.52516493)
(0 -0.005938453 0.52632581)
(0 -0.0070300064 0.52777093)
(0 -0.008121551 0.52954531)
(0 -0.0092131434 0.53170967)
(0 -0.010304663 0.53434535)
(0 -0.01139763 0.53757509)
(0 -0.012503935 0.54169104)
(0 -0.013675359 0.54750437)
(0 -0.014981993 0.55604803)
(0 -0.016074174 0.56390664)
(0 -0.015445778 0.55212201)
(0 -0.011162555 0.48328621)
(0 -0.0039125993 0.32983988)
(0 0.00015541366 0.11538397)
(0 2.135387e-06 0.10554593)
(0 0.0036663174 0.30796564)
(0 0.011217179 0.46902362)
(0 0.016937318 0.5533444)
(0 0.018577884 0.57362082)
(0 0.017639909 0.56619627)
(0 0.016170701 0.55539794)
(0 0.014873416 0.54778812)
(0 0.013711723 0.54261722)
(0 0.012591964 0.53868649)
(0 0.011483624 0.53550373)
(0 0.010381508 0.5328871)
(0 0.0092845508 0.53073047)
(0 0.0081917691 0.52895528)
(0 0.0071026409 0.52750315)
(0 0.0060168845 0.52633098)
(0 0.0049342935 0.52540689)
(0 0.0038546656 0.52470753)
(0 0.0027777537 0.5242162)
(0 0.0017032704 0.52392177)
(0 0.00063088726 0.52381786)
(0 -0.00043972119 0.52390249)
(0 -0.0015088594 0.52417803)
(0 -0.0025767744 0.52465125)
(0 -0.0036436438 0.52533384)
(0 -0.0047095401 0.52624312)
(0 -0.0057744524 0.52740339)
(0 -0.0068383141 0.52884785)
(0 -0.0079010732 0.53062155)
(0 -0.0089629176 0.53278534)
(0 -0.010024029 0.53542136)
(0 -0.011086706 0.53865904)
(0 -0.012165691 0.54281697)
(0 -0.013313669 0.54872615)
(0 -0.014578154 0.55720409)
(0 -0.015552858 0.56405158)
(0 -0.014740444 0.5495833)
(0 -0.010449925 0.47769389)
(0 -0.0036215808 0.32428134)
(0 0.00010425552 0.11363979)
(0 2.5964486e-05 0.10391169)
(0 0.0034335918 0.30276247)
(0 0.010511727 0.46294128)
(0 0.016169762 0.54995727)
(0 0.018004826 0.57331889)
(0 0.017235136 0.56735026)
(0 0.015827634 0.55674513)
(0 0.014551187 0.5489999)
(0 0.013412608 0.54374334)
(0 0.012321219 0.53978544)
(0 0.01124241 0.53659361)
(0 0.010169532 0.53397155)
(0 0.0091011202 0.53181076)
(0 0.0080360422 0.53003221)
(0 0.0069736946 0.52857714)
(0 0.005913778 0.52740225)
(0 0.0048561408 0.52647559)
(0 0.0038006897 0.5257738)
(0 0.0027473292 0.52528021)
(0 0.0016959526 0.52498371)
(0 0.00064643255 0.52487794)
(0 -0.00040134973 0.5249609)
(0 -0.0014474932 0.52523492)
(0 -0.0024920549 0.52570674)
(0 -0.0035350471 0.52638794)
(0 -0.0045764158 0.52729581)
(0 -0.0056160731 0.52845459)
(0 -0.0066539438 0.52989751)
(0 -0.0076900397 0.53166974)
(0 -0.008724697 0.53383242)
(0 -0.009758426 0.53646884)
(0 -0.010794358 0.53971625)
(0 -0.011849829 0.54391936)
(0 -0.012977142 0.54991615)
(0 -0.014199399 0.55828063)
(0 -0.015059838 0.5640529)
(0 -0.01408527 0.54696751)
(0 -0.0098088284 0.47229735)
(0 -0.0033750821 0.31909489)
(0 6.3595461e-05 0.11199811)
(0 4.2306682e-05 0.10236572)
(0 0.0032263514 0.29789487)
(0 0.0098727525 0.45709748)
(0 0.015449388 0.54652053)
(0 0.017453313 0.5728539)
(0 0.016846549 0.56839803)
(0 0.015503333 0.55805217)
(0 0.014247368 0.55019)
(0 0.013129091 0.54484508)
(0 0.012063044 0.54085697)
(0 0.011011154 0.53765543)
(0 0.0099652275 0.53502825)