/*--------------------------------*- C++ -*----------------------------------*\
  =========                 |
  \\      /  F ield         | OpenFOAM: The Open Source CFD Toolbox
   \\    /   O peration     | Website:  https://openfoam.org
    \\  /    A nd           | Version:  10
     \\/     M anipulation  |
\*---------------------------------------------------------------------------*/
FoamFile
{
    format      ascii;
    class       volVectorField;
    location    "0.26";
    object      U_0;
}
// * * * * * * * * * * * * * * * * * * * * * * * * * * * * * * * * * * * * * //

dimensions      [0 1 -1 0 0 0 0];

internalField   nonuniform List<vector> 
4000
(
(0 0.018637467 0.47773156)
(0 0.023510013 0.50886061)
(0 0.0081668601 0.50052521)
(0 0.0056146205 0.50033634)
(0 0.0042546351 0.50025746)
(0 0.003254951 0.50016898)
(0 0.0025560967 0.50011969)
(0 0.0020545877 0.50009013)
(0 0.0016765848 0.50006981)
(0 0.0013822448 0.50005539)
(0 0.0011471952 0.50004499)
(0 0.00095509722 0.50003733)
(0 0.00079469678 0.5000316)
(0 0.00065801818 0.50002727)
(0 0.00053923316 0.50002399)
(0 0.00043396111 0.50002151)
(0 0.00033881468 0.50001967)
(0 0.000251092 0.50001834)
(0 0.00016856046 0.50001744)
(0 8.9298184e-05 0.50001694)
(0 1.1571821e-05 0.50001679)
(0 -6.6270586e-05 0.50001699)
(0 -0.00014589119 0.50001755)
(0 -0.00022905454 0.5000185)
(0 -0.00031773802 0.50001991)
(0 -0.00041426272 0.50002185)
(0 -0.00052146502 0.50002446)
(0 -0.00064293608 0.50002793)
(0 -0.00078336955 0.50003252)
(0 -0.00094909141 0.50003863)
(0 -0.0011489112 0.50004688)
(0 -0.001395487 0.50005824)
(0 -0.0017075653 0.50007414)
(0 -0.0021154947 0.50009709)
(0 -0.0026751891 0.50013481)
(0 -0.0034687579 0.50020237)
(0 -0.0045609778 0.50027143)
(0 -0.0065851632 0.50043364)
(0 -0.017659603 0.50675408)
(0 -0.013590203 0.4797556)
(0 0.037432708 0.44796925)
(0 0.050955782 0.53232616)
(0 0.021969347 0.5080429)
(0 0.01613567 0.50357318)
(0 0.012416111 0.50242316)
(0 0.009515983 0.501623)
(0 0.0075206486 0.50115662)
(0 0.0060699182 0.50086593)
(0 0.0049645941 0.50066801)
(0 0.0041001437 0.50052902)
(0 0.0034076171 0.50042905)
(0 0.0028400668 0.50035555)
(0 0.0023651191 0.50030066)
(0 0.0019596906 0.50025926)
(0 0.0016068211 0.50022792)
(0 0.0012937157 0.50020426)
(0 0.0010104499 0.50018665)
(0 0.00074908596 0.50017398)
(0 0.00050305017 0.50016547)
(0 0.00026667328 0.50016064)
(0 3.4835176e-05 0.50015921)
(0 -0.00019734312 0.50016111)
(0 -0.00043477051 0.50016646)
(0 -0.00068265698 0.50017556)
(0 -0.00094683241 0.50018897)
(0 -0.0012341258 0.50020753)
(0 -0.0015528606 0.50023246)
(0 -0.0019135429 0.50026558)
(0 -0.0023298531 0.50030949)
(0 -0.0028201308 0.5003681)
(0 -0.0034097506 0.50044735)
(0 -0.0041350881 0.5005567)
(0 -0.0050492213 0.50071125)
(0 -0.0062320152 0.5009366)
(0 -0.0078323528 0.50129436)
(0 -0.010126021 0.5019105)
(0 -0.013107125 0.50282507)
(0 -0.017426518 0.50608115)
(0 -0.038759283 0.52526813)
(0 -0.027894795 0.45021632)
(0 0.03988831 0.4098205)
(0 0.061428209 0.54930815)
(0 0.031983838 0.52188196)
(0 0.024355588 0.51008056)
(0 0.019193725 0.50658858)
(0 0.014977263 0.50452809)
(0 0.012006832 0.50327142)
(0 0.0097720273 0.50245842)
(0 0.0080366062 0.50190111)
(0 0.0066649235 0.50150874)
(0 0.0055567589 0.50122553)
(0 0.0046425783 0.50101678)
(0 0.003873644 0.50086064)
(0 0.0032145608 0.50074272)
(0 0.0026389947 0.50065334)
(0 0.002126893 0.50058583)
(0 0.0016625793 0.50053557)
(0 0.0012334341 0.50049936)
(0 0.00082895094 0.50047504)
(0 0.00044003134 0.50046121)
(0 5.843458e-05 0.50045712)
(0 -0.00032370028 0.50046256)
(0 -0.00071428125 0.50047784)
(0 -0.0011216872 0.50050385)
(0 -0.0015552625 0.50054215)
(0 -0.0020259013 0.50059511)
(0 -0.0025468014 0.50066623)
(0 -0.0031344951 0.50076059)
(0 -0.0038103118 0.50088558)
(0 -0.0046024905 0.50105212)
(0 -0.0055493854 0.50127675)
(0 -0.0067049762 0.50158559)
(0 -0.0081464628 0.50202077)
(0 -0.0099779332 0.50265069)
(0 -0.012372202 0.50361503)
(0 -0.015717227 0.50519911)
(0 -0.019873605 0.50785383)
(0 -0.025187271 0.51641218)
(0 -0.047417772 0.53912722)
(0 -0.030853955 0.41487969)
(0 0.034791625 0.36172996)
(0 0.063839031 0.55456331)
(0 0.039380551 0.53747138)
(0 0.030083524 0.51849262)
(0 0.024112749 0.51197732)
(0 0.019279735 0.50849948)
(0 0.015736302 0.5062643)
(0 0.01295429 0.50475551)
(0 0.010743736 0.5037045)
(0 0.0089679496 0.50295621)
(0 0.0075139001 0.50241117)
(0 0.0063019228 0.5020069)
(0 0.0052742134 0.50170312)
(0 0.0043875155 0.5014729)
(0 0.003609013 0.50129789)
(0 0.0029133231 0.50116541)
(0 0.0022803402 0.50106662)
(0 0.0016937049 0.50099536)
(0 0.0011396773 0.50094744)
(0 0.00060627858 0.50092018)
(0 8.2609042e-05 0.5009121)
(0 -0.00044175131 0.5009228)
(0 -0.0009772826 0.50095289)
(0 -0.001535054 0.5010041)
(0 -0.0021273439 0.50107941)
(0 -0.002768357 0.50118341)
(0 -0.0034751312 0.5013228)
(0 -0.0042687432 0.50150727)
(0 -0.0051759717 0.50175082)
(0 -0.0062315947 0.50207391)
(0 -0.0074814796 0.50250704)
(0 -0.008987857 0.50309719)
(0 -0.010838096 0.50391908)
(0 -0.013138755 0.50508908)
(0 -0.01602549 0.50680668)
(0 -0.01990087 0.50946727)
(0 -0.024732769 0.51427463)
(0 -0.031114659 0.52824685)
(0 -0.050320696 0.54407158)
(0 -0.02843874 0.37237984)
(0 0.027424304 0.31484309)
(0 0.062315026 0.55024057)
(0 0.044614768 0.55146766)
(0 0.033982237 0.52748816)
(0 0.027464257 0.51772246)
(0 0.022455346 0.51291987)
(0 0.018636948 0.5097315)
(0 0.015528257 0.50749271)
(0 0.013006291 0.50590004)
(0 0.010942225 0.50474702)
(0 0.0092246772 0.50389627)
(0 0.0077747959 0.50325931)
(0 0.0065325951 0.50277725)
(0 0.0054516499 0.50240988)
(0 0.0044959124 0.50212938)
(0 0.0036369176 0.50191631)
(0 0.0028517217 0.50175698)
(0 0.0021213863 0.50164182)
(0 0.0014298177 0.50156426)
(0 0.00076285661 0.50152008)
(0 0.00010753929 0.50150695)
(0 -0.00054856424 0.50152424)
(0 -0.0012179521 0.50157293)
(0 -0.0019137699 0.5016557)
(0 -0.0026504948 0.50177725)
(0 -0.0034447056 0.50194471)
(0 -0.0043160284 0.50216851)
(0 -0.0052883474 0.50246352)
(0 -0.0063914125 0.50285099)
(0 -0.0076629985 0.50336157)
(0 -0.0091513681 0.50403991)
(0 -0.010918957 0.50495253)
(0 -0.013052601 0.50620226)
(0 -0.015656095 0.50794397)
(0 -0.018817292 0.51040404)
(0 -0.022897695 0.51405449)
(0 -0.028178781 0.52114513)
(0 -0.035708889 0.53932627)
(0 -0.050477955 0.54155461)
(0 -0.024086704 0.33055695)
(0 0.019837953 0.27519754)
(0 0.057990202 0.53974642)
(0 0.047364185 0.56256477)
(0 0.036477945 0.5366046)
(0 0.029636431 0.52350716)
(0 0.024676421 0.51740336)
(0 0.020774518 0.5133631)
(0 0.017510025 0.51044466)
(0 0.014814443 0.50832437)
(0 0.012566843 0.50676201)
(0 0.010665699 0.50559301)
(0 0.0090390197 0.50470825)
(0 0.0076291872 0.50403281)
(0 0.0063903414 0.50351444)
(0 0.0052860236 0.50311646)
(0 0.0042867659 0.5028128)
(0 0.0033683403 0.50258495)
(0 0.0025104114 0.5024198)
(0 0.0016954562 0.50230835)
(0 0.00090788888 0.50224476)
(0 0.0001333336 0.50222581)
(0 -0.00064204176 0.50225061)
(0 -0.0014321408 0.5023205)
(0 -0.0022515166 0.50243923)
(0 -0.0031160636 0.50261323)
(0 -0.0040437675 0.50285229)
(0 -0.0050556022 0.50317055)
(0 -0.0061766323 0.503588)
(0 -0.0074374061 0.50413284)
(0 -0.0088758511 0.504845)
(0 -0.010539232 0.50578148)
(0 -0.012485841 0.50702456)
(0 -0.014795893 0.50869743)
(0 -0.017571168 0.51098169)
(0 -0.020865645 0.51411972)
(0 -0.024975602 0.51872983)
(0 -0.030510451 0.52822958)
(0 -0.038631964 0.54872386)
(0 -0.048510273 0.53398353)
(0 -0.019067446 0.29393753)
(0 0.013083227 0.24255462)
(0 0.051799049 0.52520041)
(0 0.047709886 0.5702485)
(0 0.0377575 0.545525)
(0 0.030850834 0.52928868)
(0 0.026073951 0.52180173)
(0 0.022238392 0.51699803)
(0 0.018954084 0.51347361)
(0 0.016193844 0.51086513)
(0 0.013849862 0.50891267)
(0 0.011835646 0.50743291)
(0 0.01008861 0.50630083)
(0 0.0085561337 0.50542868)
(0 0.0071954683 0.50475432)
(0 0.0059718158 0.50423338)
(0 0.0048563597 0.50383392)
(0 0.0038249138 0.50353298)
(0 0.0028568083 0.50331419)
(0 0.0019339574 0.50316618)
(0 0.0010400795 0.50308157)
(0 0.00016003322 0.50305625)
(0 -0.00072080698 0.5030891)
(0 -0.0016171378 0.50318182)
(0 -0.0025442624 0.50333915)
(0 -0.0035187443 0.50356921)
(0 -0.0045590864 0.50388431)
(0 -0.0056865252 0.50430202)
(0 -0.0069259734 0.504847)
(0 -0.0083071348 0.50555349)
(0 -0.0098660789 0.50646928)
(0 -0.011647 0.50766152)
(0 -0.013702142 0.50922507)
(0 -0.016101013 0.5112979)
(0 -0.018938906 0.51407936)
(0 -0.022247189 0.51783828)
(0 -0.026266686 0.52346745)
(0 -0.031850428 0.53537493)
(0 -0.039761555 0.5558965)
(0 -0.044895673 0.52282215)
(0 -0.014091151 0.26264392)
(0 0.0077701618 0.21554076)
(0 0.044826073 0.50800976)
(0 0.046256031 0.57438084)
(0 0.038035892 0.55375139)
(0 0.031288453 0.53496061)
(0 0.0267689 0.52603041)
(0 0.023117231 0.52053859)
(0 0.019921281 0.51648843)
(0 0.017182499 0.51344187)
(0 0.014813671 0.5111309)
(0 0.012746366 0.5093598)
(0 0.010928534 0.50799131)
(0 0.0093142752 0.5069278)
(0 0.0078656219 0.50609936)
(0 0.0065508327 0.50545539)
(0 0.0053429532 0.50495904)
(0 0.0042188753 0.50458353)
(0 0.0031584707 0.50430961)
(0 0.0021438395 0.50412384)
(0 0.0011586599 0.5040174)
(0 0.00018761976 0.50398541)
(0 -0.00078413323 0.50402651)
(0 -0.0017715199 0.50414273)
(0 -0.0027899921 0.50433973)
(0 -0.0038561183 0.50462714)
(0 -0.0049881595 0.50501949)
(0 -0.0062067316 0.50553738)
(0 -0.0075355708 0.50620942)
(0 -0.0090023583 0.50707492)
(0 -0.010639888 0.50818805)
(0 -0.012487739 0.50962406)
(0 -0.014591041 0.511488)
(0 -0.017005995 0.51392874)
(0 -0.019814259 0.51715502)
(0 -0.023031796 0.5214799)
(0 -0.026881146 0.52818232)
(0 -0.03235309 0.54222014)
(0 -0.039405648 0.56050176)
(0 -0.040329997 0.50908232)
(0 -0.009708518 0.23585574)
(0 0.0040049973 0.193556)
(0 0.037899796 0.48948677)
(0 0.043687688 0.57524005)
(0 0.037564701 0.56084525)
(0 0.031154997 0.54036132)
(0 0.026914936 0.53001158)
(0 0.023514837 0.52390208)
(0 0.020480976 0.51941293)
(0 0.017827332 0.51598822)
(0 0.015489945 0.51335939)
(0 0.013418488 0.51132463)
(0 0.011571611 0.50973808)
(0 0.0099111556 0.50849509)
(0 0.0084048872 0.50751998)
(0 0.0070249792 0.50675739)
(0 0.0057471627 0.5061666)
(0 0.0045501582 0.50571775)
(0 0.0034150495 0.50538923)
(0 0.0023247251 0.50516582)
(0 0.0012633723 0.50503752)
(0 0.00021602008 0.50499877)
(0 -0.000831916 0.50504799)
(0 -0.0018950847 0.50518753)
(0 -0.0029885707 0.50542379)
(0 -0.0041283932 0.50576773)
(0 -0.0053319625 0.50623571)
(0 -0.0066185959 0.50685085)
(0 -0.0080101002 0.50764494)
(0 -0.0095313286 0.50866133)
(0 -0.011210878 0.50995911)
(0 -0.013082611 0.51161959)
(0 -0.015184044 0.51375543)
(0 -0.017557813 0.51652239)
(0 -0.020268066 0.52013152)
(0 -0.023322663 0.52496304)
(0 -0.02696362 0.53273973)
(0 -0.032205224 0.54839057)
(0 -0.037997308 0.56254316)
(0 -0.035416523 0.4937908)
(0 -0.0062008748 0.21325009)
(0 0.0015511378 0.17613306)
(0 0.031499907 0.47076124)
(0 0.040533046 0.57338565)
(0 0.036559806 0.56659866)
(0 0.030638163 0.54537869)
(0 0.026672449 0.53370482)
(0 0.023543834 0.52703258)
(0 0.020711079 0.52218882)
(0 0.018183522 0.51845172)
(0 0.015917697 0.51555161)
(0 0.013879176 0.51328632)
(0 0.012036527 0.51150522)
(0 0.010359453 0.51009928)
(0 0.0088216979 0.508989)
(0 0.0073997331 0.50811565)
(0 0.0060724458 0.5074357)
(0 0.004820864 0.50691698)
(0 0.0036277498 0.50653603)
(0 0.0024772276 0.50627627)
(0 0.0013544214 0.50612674)
(0 0.00024511243 0.50608131)
(0 -0.0008646114 0.50613827)
(0 -0.0019887214 0.50630017)
(0 -0.0031415208 0.50657406)
(0 -0.0043380483 0.50697193)
(0 -0.0055944114 0.5075116)
(0 -0.0069281539 0.50821813)
(0 -0.0083586619 0.50912572)
(0 -0.0099075025 0.51028068)
(0 -0.011598682 0.51174556)
(0 -0.013459921 0.51360574)
(0 -0.015521287 0.51597866)
(0 -0.017813403 0.51902289)
(0 -0.020383212 0.52294943)
(0 -0.023237951 0.5282352)
(0 -0.026658089 0.53704014)
(0 -0.031568103 0.5536589)
(0 -0.035907488 0.56230738)
(0 -0.030554813 0.47788886)
(0 -0.0035912226 0.19460725)
(0 7.6753014e-05 0.16252449)
(0 0.025870689 0.45259981)
(0 0.037160344 0.56943315)
(0 0.035192154 0.57098909)
(0 0.029878136 0.54996322)
(0 0.026174475 0.53711415)
(0 0.023306597 0.52991272)
(0 0.020688102 0.52478465)
(0 0.018308463 0.52079869)
(0 0.016139303 0.51767464)
(0 0.014159329 0.51521392)
(0 0.012345686 0.51326437)
(0 0.010675297 0.51171475)
(0 0.0091275482 0.51048337)
(0 0.0076831873 0.50950945)
(0 0.0063244087 0.5087476)
(0 0.0050347775 0.5081641)
(0 0.0037990081 0.50773417)
(0 0.0026027563 0.50744022)
(0 0.0014323855 0.50727059)
(0 0.0002747345 0.50721873)
(0 -0.00088313123 0.5072828)
(0 -0.0020541986 0.50746554)
(0 -0.0032516833 0.50777447)
(0 -0.0044893375 0.50822233)
(0 -0.005781668 0.50882804)
(0 -0.007144168 0.509618)
(0 -0.0085935627 0.51062809)
(0 -0.010147992 0.51190656)
(0 -0.01182694 0.51351812)
(0 -0.013652195 0.51555044)
(0 -0.015646974 0.51812326)
(0 -0.017831909 0.52139479)
(0 -0.020239375 0.52557946)
(0 -0.022882958 0.53128223)
(0 -0.026080671 0.54103102)
(0 -0.030572306 0.55793424)
(0 -0.03342948 0.56018961)
(0 -0.025996665 0.46206547)
(0 -0.0017652683 0.17946748)
(0 -0.0007179574 0.1519069)
(0 0.021108321 0.4354343)
(0 0.033819931 0.56393149)
(0 0.033604796 0.57408936)
(0 0.028975592 0.55409424)
(0 0.025520577 0.54026383)
(0 0.022886767 0.53255301)
(0 0.020479003 0.52719245)
(0 0.018255167 0.52301307)
(0 0.016195854 0.51970891)
(0 0.014290337 0.51708665)
(0 0.012522855 0.51499488)
(0 0.010876513 0.5133217)
(0 0.0093356775 0.51198449)
(0 0.0078850659 0.51092144)
(0 0.0065100798 0.51008618)
(0 0.005196845 0.50944403)
(0 0.0039321358 0.50896939)
(0 0.0027032966 0.50864403)
(0 0.0014981164 0.50845578)
(0 0.00030469243 0.50839784)
(0 -0.00088872398 0.50846825)
(0 -0.0020939263 0.50866989)
(0 -0.0033228414 0.50901059)
(0 -0.0045877484 0.50950363)
(0 -0.0059013961 0.51016861)
(0 -0.0072771217 0.51103279)
(0 -0.0087289612 0.51213304)
(0 -0.010271728 0.51351868)
(0 -0.011920736 0.51525554)
(0 -0.013692437 0.51743229)
(0 -0.015603983 0.52016906)
(0 -0.017667843 0.52362177)
(0 -0.019905481 0.52801611)
(0 -0.022343086 0.53411029)
(0 -0.025322311 0.54468137)
(0 -0.029332996 0.56120717)
(0 -0.030794833 0.55658505)
(0 -0.021895659 0.44675889)
(0 -0.00056467584 0.16724361)
(0 -0.0010700855 0.14358295)
(0 0.017203663 0.41947887)
(0 0.030667411 0.55733995)
(0 0.031915653 0.57602063)
(0 0.028004609 0.55776411)
(0 0.024784301 0.54317971)
(0 0.022350803 0.53497614)
(0 0.020139428 0.52941811)
(0 0.018069412 0.52509085)
(0 0.016124379 0.52164501)
(0 0.014301708 0.518892)
(0 0.012591246 0.5166827)
(0 0.010981132 0.51490554)
(0 0.0094599279 0.51347781)
(0 0.0080158556 0.51233748)
(0 0.0066372586 0.5114378)
(0 0.0053126998 0.51074367)
(0 0.0040309904 0.51022909)
(0 0.0027812057 0.50987544)
(0 0.0015526445 0.50967029)
(0 0.00033477005 0.50960666)
(0 -0.00088286172 0.50968255)
(0 -0.0021107315 0.50990089)
(0 -0.0033593707 0.51026972)
(0 -0.0046395028 0.51080259)
(0 -0.0059620779 0.51151949)
(0 -0.0073383052 0.51244813)
(0 -0.0087796558 0.51362579)
(0 -0.010297871 0.5151022)
(0 -0.011904592 0.51694352)
(0 -0.013611694 0.51923849)
(0 -0.015431178 0.52210629)
(0 -0.017369029 0.52569987)
(0 -0.019439845 0.53026636)
(0 -0.021687296 0.53673108)
(0 -0.024456243 0.54797109)
(0 -0.027951873 0.56352155)
(0 -0.028174126 0.55185541)
(0 -0.018325967 0.43223382)
(0 0.00016898551 0.1573896)
(0 -0.0011531924 0.13700123)
(0 0.014079227 0.40481386)
(0 0.027782839 0.55003285)
(0 0.030212777 0.57693038)
(0 0.027017603 0.5609793)
(0 0.024018641 0.54588578)
(0 0.021750586 0.53720911)
(0 0.019714573 0.53147477)
(0 0.017789539 0.52703527)
(0 0.015956986 0.52348037)
(0 0.014219919 0.52062359)
(0 0.01257236 0.518319)
(0 0.011006367 0.516456)
(0 0.0095138903 0.51495236)
(0 0.0080861192 0.51374631)
(0 0.0067139827 0.51279121)
(0 0.0053882631 0.5120519)
(0 0.0040996936 0.51150229)
(0 0.0028390352 0.51112363)
(0 0.001597097 0.5109034)
(0 0.00036473805 0.51083451)
(0 -0.00086713933 0.51091495)
(0 -0.0021076608 0.51114769)
(0 -0.0033659348 0.51154081)
(0 -0.0046511313 0.51210801)
(0 -0.0059724501 0.51286937)
(0 -0.0073390944 0.5138527)
(0 -0.0087601941 0.51509531)
(0 -0.01024477 0.51664682)
(0 -0.011801342 0.51857316)
(0 -0.013438044 0.52096252)
(0 -0.015162713 0.52393223)
(0 -0.016976509 0.52763279)
(0 -0.018891057 0.53234392)
(0 -0.020970156 0.53915873)
(0 -0.023539675 0.55089368)
(0 -0.026511413 0.56495993)
(0 -0.025678614 0.54631849)
(0 -0.015299237 0.41863824)
(0 0.00057384562 0.14944266)
(0 -0.0010856078 0.13172199)
(0 0.011624367 0.39143058)
(0 0.025194056 0.54230387)
(0 0.028554982 0.57697288)
(0 0.026047977 0.56375947)
(0 0.023258964 0.54840489)
(0 0.021124644 0.53928039)
(0 0.01923989 0.53337983)
(0 0.017446778 0.5288543)
(0 0.015720738 0.52521708)
(0 0.014067973 0.52227946)
(0 0.012485403 0.519899)
(0 0.010968001 0.51796642)
(0 0.0095103311 0.51640025)
(0 0.0081059974 0.51513932)
(0 0.0067481181 0.51413737)
(0 0.0054294259 0.51335948)
(0 0.0041424013 0.51277968)
(0 0.002879383 0.51237929)
(0 0.0016326296 0.51214579)
(0 0.00039436306 0.51207209)
(0 -0.00084318767 0.51215616)
(0 -0.0020878128 0.51240097)
(0 -0.0033472336 0.5128146)
(0 -0.0046291316 0.51341068)
(0 -0.0059410702 0.51420924)
(0 -0.0072904295 0.51523792)
(0 -0.008684281 0.51653377)
(0 -0.010129326 0.51814597)
(0 -0.011631536 0.52013984)
(0 -0.013196122 0.52260261)
(0 -0.014827745 0.52564926)
(0 -0.016524329 0.52942968)
(0 -0.018297842 0.53426694)
(0 -0.020232312 0.54140986)
(0 -0.022614166 0.55345679)
(0 -0.025072689 0.56562679)
(0 -0.023370993 0.54024014)
(0 -0.012785851 0.40603399)
(0 0.00075901402 0.14300851)
(0 -0.0009437717 0.12739962)
(0 0.009720312 0.37926296)
(0 0.022897612 0.53437343)
(0 0.026977468 0.57629318)
(0 0.025114477 0.56613186)
(0 0.022526511 0.55075775)
(0 0.020499649 0.54121765)
(0 0.018741833 0.53515291)
(0 0.017065625 0.53055896)
(0 0.015437701 0.52686048)
(0 0.013865239 0.52386093)
(0 0.012347005 0.521421)
(0 0.010880043 0.51943295)
(0 0.0094608346 0.51781615)
(0 0.0080848724 0.51651016)
(0 0.0067470666 0.51546927)
(0 0.0054418107 0.51465898)
(0 0.0041631249 0.5140536)
(0 0.0029047779 0.5136346)
(0 0.0016603727 0.51338957)
(0 0.00042341606 0.51331148)
(0 -0.00081260261 0.51339829)
(0 -0.0020542047 0.51365295)
(0 -0.0033078063 0.51408344)
(0 -0.0045797109 0.51470327)
(0 -0.0058760012 0.51553223)
(0 -0.0072024533 0.51659764)
(0 -0.0085643885 0.51793609)
(0 -0.0099666028 0.51959613)
(0 -0.011413073 0.52164228)
(0 -0.012906822 0.52416058)
(0 -0.014450233 0.52726361)
(0 -0.016039462 0.53110345)
(0 -0.017689335 0.53605584)
(0 -0.019501952 0.54350205)
(0 -0.021707773 0.55567782)
(0 -0.023677724 0.56563216)
(0 -0.021279334 0.53383186)
(0 -0.010733303 0.39442057)
(0 0.00080480738 0.13775377)
(0 -0.00077517365 0.12377304)
(0 0.0082544077 0.36821408)
(0 0.02087324 0.52640097)
(0 0.025498135 0.57501911)
(0 0.024225907 0.56812605)
(0 0.021832443 0.55296135)
(0 0.019892764 0.54304558)
(0 0.018239183 0.53681378)
(0 0.016664543 0.53216173)
(0 0.015125256 0.52841785)
(0 0.013627521 0.52537145)
(0 0.012171147 0.52288559)
(0 0.01075457 0.52085397)
(0 0.0093756042 0.51919682)
(0 0.0080311621 0.51785442)
(0 0.0067175744 0.51678169)
(0 0.0054306091 0.51594462)
(0 0.0041656063 0.51531785)
(0 0.0029175958 0.51488314)
(0 0.0016813928 0.51462821)
(0 0.00045168019 0.51454612)
(0 -0.00077689094 0.51463486)
(0 -0.0020096724 0.51489728)
(0 -0.0032518879 0.51534127)
(0 -0.0045086022 0.51598012)
(0 -0.0057845959 0.51683331)
(0 -0.0070842749 0.51792773)
(0 -0.0084115174 0.5192994)
(0 -0.0097696101 0.52099616)
(0 -0.01116103 0.52308169)
(0 -0.012587245 0.52564079)
(0 -0.014049121 0.52878388)
(0 -0.015542343 0.5326688)
(0 -0.017086319 0.53773092)
(0 -0.018797327 0.54545175)
(0 -0.020838062 0.55757919)
(0 -0.02235309 0.56508093)
(0 -0.019408753 0.52725561)
(0 -0.0090788288 0.38375747)
(0 0.00076773113 0.13340603)
(0 -0.00060779978 0.120652)
(0 0.0071274642 0.35817504)
(0 0.019092926 0.51849864)
(0 0.024122861 0.57325967)
(0 0.023384738 0.5697714)
(0 0.021181227 0.55502858)
(0 0.019314088 0.54478463)
(0 0.017744653 0.53838076)
(0 0.016256972 0.53367523)
(0 0.014796667 0.52989731)
(0 0.013367352 0.5268158)
(0 0.011969266 0.52429483)
(0 0.010601721 0.52222945)
(0 0.0092633938 0.52054061)
(0 0.0079522208 0.51916925)
(0 0.006665625 0.51807087)
(0 0.0054004825 0.51721197)
(0 0.0041532377 0.51656761)
(0 0.0029200057 0.51611979)
(0 0.0016966681 0.51585644)
(0 0.00047895733 0.51577072)
(0 -0.00073743207 0.51586062)
(0 -0.0019568018 0.51612894)
(0 -0.0031833143 0.51658339)
(0 -0.0044209487 0.51723703)
(0 -0.0056733705 0.51810899)
(0 -0.0069438451 0.51922569)
(0 -0.0082350962 0.52062254)
(0 -0.0095492569 0.52234669)
(0 -0.010887732 0.52446099)
(0 -0.012250947 0.52704905)
(0 -0.013638873 0.53021979)
(0 -0.015047837 0.53414062)
(0 -0.016502816 0.53931066)
(0 -0.018129233 0.54727332)
(0 -0.020014761 0.55918532)
(0 -0.021113263 0.56406785)
(0 -0.017750013 0.52063204)
(0 -0.0077577178 0.37398179)
(0 0.00068619645 0.12974995)
(0 -0.00045657088 0.11790123)
(0 0.0062568983 0.34903633)
(0 0.017526538 0.51074292)
(0 0.022849761 0.57110616)
(0 0.022589616 0.5710959)
(0 0.020573048 0.55696888)
(0 0.018768674 0.54645093)
(0 0.017266368 0.53987002)
(0 0.015852359 0.53511133)
(0 0.01446178 0.53130702)
(0 0.013094421 0.52819926)
(0 0.011750499 0.5256517)
(0 0.010429813 0.52356048)
(0 0.0091315408 0.52184709)
(0 0.0078543252 0.52045301)
(0 0.0065964019 0.51933428)
(0 0.0053555179 0.51845786)
(0 0.0041290208 0.51779918)
(0 0.0029139401 0.51734056)
(0 0.001707075 0.51707011)
(0 0.00050507353 0.51698107)
(0 -0.00069545418 0.51707147)
(0 -0.0018978884 0.51734403)
(0 -0.0031054691 0.51780629)
(0 -0.0043212458 0.51847105)
(0 -0.0055479511 0.51935708)
(0 -0.0067879259 0.52049031)
(0 -0.0080429977 0.52190562)
(0 -0.009314452 0.52364948)
(0 -0.010602973 0.52578404)
(0 -0.011908352 0.52839187)
(0 -0.013230153 0.53158122)
(0 -0.014566252 0.53553297)
(0 -0.015947553 0.5408111)
(0 -0.017503006 0.54897888)
(0 -0.01924189 0.56052091)
(0 -0.019963704 0.56267564)
(0 -0.01628585 0.51404867)
(0 -0.0067087598 0.36502002)
(0 0.00058538133 0.12661901)
(0 -0.00032795236 0.1154265)
(0 0.0055769728 0.34069409)
(0 0.016145138 0.50318389)
(0 0.02167256 0.56863431)
(0 0.021837165 0.57212563)
(0 0.020005511 0.55878886)
(0 0.018258096 0.54805668)
(0 0.01680907 0.5412953)
(0 0.015457062 0.53648083)
(0 0.014127684 0.53265475)
(0 0.012816041 0.52952726)
(0 0.011521989 0.52695964)
(0 0.010245526 0.52484881)
(0 0.0089860695 0.52311665)
(0 0.007742722 0.521705)
(0 0.0065143016 0.52057035)
(0 0.0052992226 0.51968006)
(0 0.0040955558 0.5190099)
(0 0.0029010855 0.51854246)
(0 0.0017133842 0.51826604)
(0 0.00052988271 0.51817399)
(0 -0.00065202228 0.51826432)
(0 -0.0018349199 0.51853969)
(0 -0.003021265 0.51900748)
(0 -0.0042133285 0.51968023)
(0 -0.0054130804 0.52057636)
(0 -0.0066221316 0.52172137)
(0 -0.0078416359 0.52314962)
(0 -0.0090722856 0.52490706)
(0 -0.010314324 0.52705524)
(0 -0.011567216 0.52967591)
(0 -0.012830495 0.53287769)
(0 -0.014104274 0.53685859)
(0 -0.015425226 0.5422456)
(0 -0.016920118 0.55057834)
(0 -0.018519556 0.56160969)
(0 -0.018903703 0.56097479)
(0 -0.014995431 0.50756697)
(0 -0.0058773554 0.35679552)
(0 0.00048102944 0.1238865)
(0 -0.00022327626 0.11316337)
(0 0.0050372051 0.33305332)
(0 0.014922629 0.49585244)
(0 0.020583011 0.56590657)
(0 0.021123244 0.57288449)
(0 0.019474888 0.560493)
(0 0.017781679 0.54961069)
(0 0.016375095 0.54266798)
(0 0.015075108 0.53779321)
(0 0.013799302 0.53394762)
(0 0.01253759 0.530805)
(0 0.011289195 0.52822224)
(0 0.010054116 0.52609663)
(0 0.0088318307 0.52435027)
(0 0.0076217138 0.52292523)
(0 0.0064229829 0.5217783)
(0 0.0052345501 0.52087717)
(0 0.0040550531 0.52019792)
(0 0.0028828865 0.51972335)
(0 0.0017162631 0.51944193)
(0 0.00055326895 0.51934711)
(0 -0.00060803636 0.5194369)
(0 -0.0017695763 0.51971389)
(0 -0.0029331514 0.5201853)
(0 -0.0041003938 0.52086344)
(0 -0.0052726647 0.52176641)
(0 -0.0064510136 0.52291932)
(0 -0.0076361077 0.52435613)
(0 -0.0088282491 0.52612235)
(0 -0.010027451 0.52827911)
(0 -0.011233085 0.53090757)
(0 -0.012444927 0.53411795)
(0 -0.013665797 0.53812858)
(0 -0.014937594 0.54362492)
(0 -0.016379478 0.55207961)
(0 -0.017845425 0.5624737)
(0 -0.017928742 0.55902433)
(0 -0.013857256 0.50122847)
(0 -0.0052168353 0.34923317)
(0 0.00038234668 0.12145759)
(0 -0.00014101387 0.11106846)
(0 0.004599939 0.32602941)
(0 0.013836329 0.48876585)
(0 0.019572443 0.56297444)
(0 0.020443728 0.57339426)
(0 0.018976962 0.56208418)
(0 0.017337433 0.5511189)
(0 0.015965142 0.54399722)
(0 0.014708822 0.53905666)
(0 0.013479901 0.53519199)
(0 0.012262898 0.53203733)
(0 0.011056193 0.52944301)
(0 0.0098596365 0.52730629)
(0 0.0086726561 0.52554929)
(0 0.0074947643 0.52411418)
(0 0.0063254361 0.52295792)
(0 0.0051639437 0.52204844)
(0 0.0040093591 0.52136205)
(0 0.0028605613 0.52088177)
(0 0.0017162823 0.52059618)
(0 0.00057514725 0.52049881)
(0 -0.00056423675 0.52058768)
(0 -0.0017032438 0.52086531)
(0 -0.0028431404 0.52133878)
(0 -0.0039850455 0.52202019)
(0 -0.0051298458 0.52292737)
(0 -0.0062781722 0.52408512)
(0 -0.0074303566 0.52552707)
(0 -0.0085864679 0.52729843)
(0 -0.0097464428 0.52946006)
(0 -0.010909722 0.53209285)
(0 -0.012076529 0.53530987)
(0 -0.013252661 0.53935239)
(0 -0.014484399 0.54495735)
(0 -0.015878439 0.55348877)
(0 -0.017215821 0.56313291)
(0 -0.017032242 0.55687317)
(0 -0.01285088 0.49505987)
(0 -0.0046886541 0.34226229)
(0 0.00029416279 0.11926251)
(0 -7.8255671e-05 0.10911273)
(0 0.0042377588 0.31954825)
(0 0.012866958 0.48193203)
(0 0.018632638 0.55988063)
(0 0.019794908 0.57367489)
(0 0.018507565 0.56356424)
(0 0.016922707 0.55258503)
(0 0.015578867 0.54529018)
(0 0.014359331 0.54027808)
(0 0.013171513 0.53639344)
(0 0.011994603 0.53322864)
(0 0.010825944 0.53062533)
(0 0.0096651431 0.52848019)
(0 0.0085115137 0.52671528)
(0 0.0073646117 0.52527267)
(0 0.0062240629 0.52410942)
(0 0.0050893906 0.5231936)
(0 0.0039599917 0.52250169)
(0 0.0028351217 0.52201684)
(0 0.0017139254 0.52172777)
(0 0.00059546334 0.52162805)
(0 -0.00052121452 0.52171571)
(0 -0.0016370378 0.5219932)
(0 -0.0027528453 0.52246748)
(0 -0.0038693531 0.52315048)
(0 -0.0049870878 0.52405981)
(0 -0.0061063791 0.52522003)
(0 -0.0072273428 0.52666453)
(0 -0.0083499323 0.52843837)
(0 -0.0094741114 0.53060225)
(0 -0.010599503 0.53323713)
(0 -0.011726927 0.53646027)
(0 -0.012865249 0.54053778)
(0 -0.014064093 0.54624903)
(0 -0.015413532 0.55481041)
(0 -0.016626498 0.56360526)
(0 -0.016206768 0.55456161)
(0 -0.011957814 0.4890771)
(0 -0.0042618764 0.33581818)
(0 0.00021846125 0.11725063)
(0 -3.1635164e-05 0.10727658)
(0 0.0039310967 0.31354569)
(0 0.011998323 0.47535246)
(0 0.017756249 0.55666074)
(0 0.019173662 0.5737447)
(0 0.018062867 0.5649345)
(0 0.016534624 0.55401104)
(0 0.015215293 0.54655236)
(0 0.014026947 0.54146324)
(0 0.012875285 0.53755678)
(0 0.011734433 0.53438283)
(0 0.010600535 0.53177228)
(0 0.009472886 0.5296207)
(0 0.0083506557 0.52784989)
(0 0.0072333802 0.52640178)
(0 0.0061207586 0.52523336)
(0 0.0050124812 0.52431278)
(0 0.0039081804 0.52361663)
(0 0.0028073976 0.52312816)
(0 0.0017095997 0.52283618)
(0 0.00061419134 0.52273429)
(0 -0.00047942614 0.52282052)
(0 -0.0015718304 0.52309726)
(0 -0.0026635248 0.52357139)
(0 -0.0037549174 0.52425468)
(0 -0.0048462693 0.52516458)
(0 -0.0059377032 0.52632549)
(0 -0.0070292102 0.52777065)
(0 -0.0081207123 0.52954507)
(0 -0.0092122667 0.53170947)
(0 -0.010303753 0.53434519)
(0 -0.011396692 0.53757498)
(0 -0.012502972 0.54169097)
(0 -0.013674373 0.54750431)
(0 -0.014980979 0.55604797)
(0 -0.016073148 0.56390675)
(0 -0.015444837 0.55212286)
(0 -0.011161869 0.48328834)
(0 -0.0039122667 0.32984274)
(0 0.000155447 0.11538563)
(0 2.1297963e-06 0.10554637)
(0 0.0036661921 0.30796655)
(0 0.011216905 0.46902435)
(0 0.016936936 0.55334465)
(0 0.018577469 0.5736207)
(0 0.017639516 0.56619603)
(0 0.016170347 0.55539767)
(0 0.014873101 0.54778783)
(0 0.013711448 0.5426169)
(0 0.012591733 0.53868613)
(0 0.01148344 0.53550334)
(0 0.010381376 0.53288668)
(0 0.0092844745 0.53073002)
(0 0.0081917515 0.52895481)
(0 0.0071026847 0.52750267)
(0 0.0060169922 0.52633048)
(0 0.0049344668 0.52540638)
(0 0.0038549058 0.52470701)
(0 0.0027780619 0.52421568)
(0 0.0017036469 0.52392125)
(0 0.00063133197 0.52381735)
(0 -0.00043920892 0.52390199)
(0 -0.0015082808 0.52417754)
(0 -0.002576131 0.52465079)
(0 -0.003642938 0.5253334)
(0 -0.0047087745 0.52624272)
(0 -0.0057736304 0.52740302)
(0 -0.0068374394 0.52884752)
(0 -0.00790015 0.53062126)
(0 -0.0089619506 0.5327851)
(0 -0.010023023 0.53542117)
(0 -0.011085667 0.5386589)
(0 -0.012164623 0.54281688)
(0 -0.013312572 0.54872607)
(0 -0.014577023 0.55720401)
(0 -0.015551718 0.56405173)
(0 -0.014739405 0.54958434)
(0 -0.010449173 0.47769635)
(0 -0.0036212189 0.32428456)
(0 0.00010428976 0.11364162)
(0 2.5958811e-05 0.10391219)
(0 0.0034334521 0.30276353)
(0 0.010511418 0.46294215)
(0 0.016169326 0.54995759)
(0 0.018004348 0.57331878)
(0 0.017234679 0.56734999)
(0 0.015827221 0.55674482)
(0 0.014550818 0.54899957)
(0 0.013412284 0.54374298)
(0 0.012320944 0.53978504)
(0 0.011242188 0.53659317)
(0 0.010169367 0.53397108)
(0 0.0091010175 0.53181026)
(0 0.0080360048 0.53003168)
(0 0.0069737255 0.52857659)
(0 0.0059138798 0.52740168)
(0 0.0048563155 0.52647501)
(0 0.003800939 0.52577321)
(0 0.0027476541 0.52527962)
(0 0.0016963536 0.52498312)
(0 0.00064690954 0.52487735)
(0 -0.00040079734 0.52496033)
(0 -0.0014468666 0.52523437)
(0 -0.0024913558 0.52570621)
(0 -0.003534278 0.52638744)
(0 -0.0045755795 0.52729535)
(0 -0.0056151732 0.52845416)
(0 -0.0066529841 0.52989712)
(0 -0.0076890248 0.53166941)
(0 -0.008723632 0.53383213)
(0 -0.0097573162 0.53646861)
(0 -0.010793209 0.53971608)
(0 -0.011848646 0.54391924)
(0 -0.012975923 0.54991603)
(0 -0.014198141 0.55828052)
(0 -0.015058573 0.5640531)
(0 -0.014084125 0.54696874)
(0 -0.0098080053 0.47230017)
(0 -0.0033746888 0.3190985)
(0 6.3630643e-05 0.11200013)
(0 4.2300944e-05 0.10236629)
(0 0.0032261962 0.2978961)
(0 0.0098724046 0.45709852)
(0 0.015448893 0.54652094)
(0 0.017452763 0.5728538)
(0 0.016846021 0.56839772)
(0 0.015502853 0.55805182)
(0 0.014246937 0.55018963)
(0 0.01312871 0.54484467)
(0 0.012062719 0.54085651)
(0 0.011010888 0.53765493)