/*--------------------------------*- C++ -*----------------------------------*\
  =========                 |
  \\      /  F ield         | OpenFOAM: The Open Source CFD Toolbox
   \\    /   O peration     | Website:  https://openfoam.org
    \\  /    A nd           | Version:  10
     \\/     M anipulation  |
\*---------------------------------------------------------------------------*/
FoamFile
{
    format      ascii;
    class       surfaceScalarField;
    location    "0.14";
    object      phi;
}
// * * * * * * * * * * * * * * * * * * * * * * * * * * * * * * * * * * * * * //

dimensions      [1 0 -1 0 0 0 0];

internalField   nonuniform List<scalar> 
7860
(
3.9894241e-08
5.2881379e-07
1.2191381e-08
5.9641065e-07
7.426517e-09
5.734726e-07
5.4978441e-09
5.7063637e-07
4.1133704e-09
5.7009214e-07
3.1995277e-09
5.6962148e-07
2.5575812e-09
5.6934957e-07
2.0778373e-09
5.6918735e-07
1.7079646e-09
5.6907747e-07
1.4154358e-09
5.6900012e-07
1.1784527e-09
5.6894456e-07
9.822495e-10
5.6890378e-07
8.1648003e-10
5.6887334e-07
6.7365132e-10
5.6885039e-07
5.4818743e-10
5.6883302e-07
4.3582497e-10
5.6881992e-07
3.3320747e-10
5.6881017e-07
2.3760479e-10
5.6880315e-07
1.4671103e-10
5.6879844e-07
5.8492096e-11
5.6879577e-07
-2.8937784e-11
5.6879498e-07
-1.1742357e-10
5.6879604e-07
-2.0887508e-10
5.68799e-07
-3.05373e-10
5.6880405e-07
-4.0930137e-10
5.6881148e-07
-5.2351049e-10
5.6882176e-07
-6.5153792e-10
5.6883559e-07
-7.9792114e-10
5.6885395e-07
-9.6865835e-10
5.688783e-07
-1.1719151e-09
5.6891083e-07
-1.4191974e-09
5.6895486e-07
-1.7273222e-09
5.6901571e-07
-2.1212748e-09
5.6910155e-07
-2.6409444e-09
5.6922728e-07
-3.3687487e-09
5.6943543e-07
-4.460282e-09
5.6979918e-07
-6.0060953e-09
5.7025348e-07
-9.5054098e-09
5.7220701e-07
-2.95727e-08
5.8877503e-07
5.3913521e-07
5.9668384e-08
4.6914543e-07
3.6661079e-08
6.1941794e-07
2.2623434e-08
5.8751024e-07
1.6248575e-08
5.7701123e-07
1.2285388e-08
5.7405532e-07
9.6011694e-09
5.723057e-07
7.672546e-09
5.7127819e-07
6.2314721e-09
5.7062843e-07
5.122339e-09
5.701866e-07
4.2450643e-09
5.6987739e-07
3.5343047e-09
5.6965532e-07
2.9458831e-09
5.694922e-07
2.4487453e-09
5.6937048e-07
2.0204078e-09
5.6927873e-07
1.6441473e-09
5.6920928e-07
1.3071776e-09
5.6915689e-07
9.9943257e-10
5.6911792e-07
7.1272478e-10
5.6908986e-07
4.4013924e-10
5.6907103e-07
1.7557486e-10
5.6906033e-07
-8.6624255e-11
5.6905718e-07
-3.5199121e-10
5.690614e-07
-6.2624817e-10
5.6907326e-07
-9.1563778e-10
5.6909344e-07
-1.2273098e-09
5.6912315e-07
-1.5698123e-09
5.6916427e-07
-1.9537536e-09
5.6921953e-07
-2.3927418e-09
5.6929293e-07
-2.9047723e-09
5.6939033e-07
-3.514351e-09
5.6952041e-07
-4.2559112e-09
5.6969642e-07
-5.1798344e-09
5.6993963e-07
-6.3627651e-09
5.7028448e-07
-7.9234473e-09
5.7078796e-07
-1.006513e-08
5.7157711e-07
-1.3193996e-08
5.7292804e-07
-1.8124865e-08
5.7518435e-07
-2.81675e-08
5.8224965e-07
-4.5794908e-08
6.0640244e-07
4.9334031e-07
6.0002541e-08
4.0914295e-07
5.0478201e-08
6.2894228e-07
3.336199e-08
6.0462644e-07
2.4808839e-08
5.8556438e-07
1.9314238e-08
5.7954993e-07
1.5322574e-08
5.7629737e-07
1.2352098e-08
5.7424867e-07
1.0093431e-08
5.7288709e-07
8.3331787e-09
5.7194686e-07
6.9282056e-09
5.7128236e-07
5.7824181e-09
5.7080111e-07
4.8290366e-09
5.7044558e-07
4.0202822e-09
5.7017923e-07
3.3211548e-09
5.6997786e-07
2.7053758e-09
5.6982506e-07
2.152698e-09
5.6970957e-07
1.6470808e-09
5.6962353e-07
1.1754091e-09
5.6956153e-07
7.2656001e-10
5.6951988e-07
2.906891e-10
5.694962e-07
-1.4134678e-10
5.6948921e-07
-5.7849538e-10
5.6949855e-07
-1.0300024e-09
5.6952477e-07
-1.5059321e-09
5.6956937e-07
-2.0177694e-09
5.6963499e-07
-2.57918e-09
5.6972568e-07
-3.2070219e-09
5.6984737e-07
-3.9227567e-09
5.7000867e-07
-4.7544998e-09
5.7022208e-07
-5.7400839e-09
5.7050599e-07
-6.9317187e-09
5.7088806e-07
-8.403629e-09
5.7141154e-07
-1.0265244e-08
5.7214609e-07
-1.2678477e-08
5.7320119e-07
-1.5876536e-08
5.7477517e-07
-2.022139e-08
5.772729e-07
-2.6690908e-08
5.8165387e-07
-3.893072e-08
5.9448946e-07
-4.8154508e-08
6.1562623e-07
4.451858e-07
5.4870923e-08
3.5427215e-07
5.7438371e-08
6.2637486e-07
4.0454015e-08
6.2161077e-07
3.0765453e-08
5.9525293e-07
2.4629586e-08
5.8568579e-07
1.9938969e-08
5.8098798e-07
1.6300073e-08
5.7788757e-07
1.3454401e-08
5.7573277e-07
1.1189811e-08
5.7421144e-07
9.3545805e-09
5.731176e-07
7.8408032e-09
5.7231489e-07
6.5699711e-09
5.7171641e-07
5.4842174e-09
5.7126498e-07
4.5402091e-09
5.7092186e-07
3.7048305e-09
5.7066044e-07
2.9522032e-09
5.7046219e-07
2.2615879e-09
5.7031415e-07
1.6158672e-09
5.7020725e-07
1.0004136e-09
5.7013533e-07
4.0220943e-10
5.7009441e-07
-1.9087618e-10
5.700823e-07
-7.9072752e-10
5.700984e-07
-1.4096033e-09
5.7014364e-07
-2.0607914e-09
5.7022056e-07
-2.7593596e-09
5.7033356e-07
-3.5230829e-09
5.704894e-07
-4.3736519e-09
5.7069794e-07
-5.3383049e-09
5.7097332e-07
-6.4521092e-09
5.7133588e-07
-7.7612218e-09
5.718151e-07
-9.3274569e-09
5.7245429e-07
-1.1234672e-08
5.7331876e-07
-1.3599171e-08
5.7451059e-07
-1.6582351e-08
5.7618437e-07
-2.0382069e-08
5.7857489e-07
-2.5265035e-08
5.8215586e-07
-3.2490312e-08
5.8887914e-07
-4.5074321e-08
6.0707347e-07
-4.6531865e-08
6.1708378e-07
3.9865393e-07
4.7956131e-08
3.063162e-07
6.0057663e-08
6.1427342e-07
4.5380721e-08
6.3628767e-07
3.4856748e-08
6.0577689e-07
2.8381257e-08
5.9216128e-07
2.3401235e-08
5.8596801e-07
1.9416555e-08
5.8187225e-07
1.6212421e-08
5.789369e-07
1.3604285e-08
5.7681958e-07
1.1452715e-08
5.7526916e-07
9.6525601e-09
5.7411504e-07
8.1237531e-09
5.7324522e-07
6.8052447e-09
5.7258349e-07
5.6499956e-09
5.7207711e-07
4.6212028e-09
5.7168923e-07
3.6895519e-09
5.7139384e-07
2.8311755e-09
5.7117252e-07
2.0261151e-09
5.7101231e-07
1.2571361e-09
5.7090431e-07
5.0878282e-10
5.7084276e-07
-2.3341453e-10
5.708245e-07
-9.8365001e-10
5.7084864e-07
-1.7565322e-09
5.7091652e-07
-2.5678068e-09
5.7103183e-07
-3.4351731e-09
5.7120092e-07
-4.3792674e-09
5.7143349e-07
-5.4249032e-09
5.7174357e-07
-6.6026812e-09
5.721511e-07
-7.9511158e-09
5.7268432e-07
-9.5195095e-09
5.733835e-07
-1.1371729e-08
5.7430651e-07
-1.3590631e-08
5.7553766e-07
-1.6284565e-08
5.7720453e-07
-1.9597196e-08
5.79497e-07
-2.36989e-08
5.8267659e-07
-2.8892428e-08
5.8734939e-07
-3.6753057e-08
5.9673977e-07
-4.842691e-08
6.1874732e-07
-4.3172236e-08
6.118291e-07
3.554817e-07
4.0325108e-08
2.6599135e-07
5.897004e-08
5.9562868e-07
4.8303772e-08
6.4695391e-07
3.7563183e-08
6.1651744e-07
3.090438e-08
5.9882008e-07
2.5869854e-08
5.9100253e-07
2.1756727e-08
5.8598537e-07
1.8370109e-08
5.8232352e-07
1.5557294e-08
5.7963239e-07
1.3196203e-08
5.7763026e-07
1.1190867e-08
5.7612038e-07
9.4659615e-09
5.7497012e-07
7.9623106e-09
5.7408714e-07
6.6329768e-09
5.7340645e-07
5.4402985e-09
5.7288191e-07
4.3536229e-09
5.7248052e-07
3.3475262e-09
5.7217862e-07
2.400414e-09
5.7195943e-07
1.4934034e-09
5.7181132e-07
6.0940248e-10
5.7172676e-07
-2.6768026e-10
5.7170158e-07
-1.1536534e-09
5.7173461e-07
-2.0647451e-09
5.7182761e-07
-3.0183317e-09
5.7198542e-07
-4.0337435e-09
5.7221634e-07
-5.1332114e-09
5.7253296e-07
-6.3430181e-09
5.7295338e-07
-7.6949333e-09
5.7350301e-07
-9.2280116e-09
5.7421739e-07
-1.09909e-08
5.7514639e-07
-1.304487e-08
5.7636048e-07
-1.5467241e-08
5.7796003e-07
-1.8355469e-08
5.8009276e-07
-2.1833807e-08
5.8297534e-07
-2.605815e-08
5.8690093e-07
-3.1437466e-08
5.9272871e-07
-3.9603295e-08
6.049056e-07
-4.9124337e-08
6.2826837e-07
-3.8552161e-08
6.0125692e-07
3.1692953e-07
3.2850558e-08
2.3314114e-07
5.522063e-08
5.7325893e-07
4.919802e-08
6.5297653e-07
3.9029101e-08
6.2668631e-07
3.2399226e-08
6.0544995e-07
2.748793e-08
5.9591383e-07
2.3409007e-08
5.900643e-07
1.9974921e-08
5.857576e-07
1.7069055e-08
5.8253826e-07
1.4589148e-08
5.8011016e-07
1.2451374e-08
5.7825815e-07
1.0588446e-08
5.7683305e-07
8.9460828e-09
5.757295e-07
7.4800503e-09
5.7487248e-07
6.1539773e-09
5.7420798e-07
4.9375951e-09
5.736969e-07
3.8052956e-09
5.7331092e-07
2.7349542e-09
5.7302977e-07
1.7069538e-09
5.7283932e-07
7.0335354e-10
5.7273036e-07
-2.9284347e-10
5.7269778e-07
-1.2983641e-09
5.7274013e-07
-2.3303315e-09
5.7285958e-07
-3.4069484e-09
5.7306203e-07
-4.5482387e-09
5.7335763e-07
-5.7768949e-09
5.7376162e-07
-7.1192751e-09
5.7429576e-07
-8.606604e-09
5.7499034e-07
-1.0276423e-08
5.7588721e-07
-1.2174366e-08
5.7704433e-07
-1.4356549e-08
5.7854266e-07
-1.6892459e-08
5.8049594e-07
-1.9867006e-08
5.830673e-07
-2.3381067e-08
5.864894e-07
-2.7576107e-08
5.9109597e-07
-3.2969461e-08
5.9812206e-07
-4.0944485e-08
6.1288062e-07
-4.762802e-08
6.349519e-07
-3.3345773e-08
5.8697468e-07
2.8358376e-07
2.6175682e-08
2.0696588e-07
5.0097792e-08
5.4933732e-07
4.8450435e-08
6.5462395e-07
3.9449764e-08
6.356869e-07
3.3037924e-08
6.1186176e-07
2.837347e-08
6.0057829e-07
2.4455809e-08
5.9398196e-07
2.108328e-08
5.8913013e-07
1.8174924e-08
5.8544662e-07
1.5651464e-08
5.8263362e-07
1.3443718e-08
5.804659e-07
1.1494463e-08
5.7878231e-07
9.7561375e-09
5.7746783e-07
8.1889011e-09
5.7643972e-07
6.7591736e-09
5.7563771e-07
5.4383592e-09
5.7501772e-07
4.2017599e-09
5.7454752e-07
3.0276513e-09
5.7420388e-07
1.8964855e-09
5.7397049e-07
7.9018758e-10
5.7383666e-07
-3.0848076e-10
5.7379644e-07
-1.4165172e-09
5.7384817e-07
-2.5512715e-09
5.7399434e-07
-3.731049e-09
5.7424181e-07
-4.975753e-09
5.7460233e-07
-6.3075996e-09
5.7509346e-07
-7.7519302e-09
5.7574009e-07
-9.3381591e-09
5.7657657e-07
-1.1100881e-08
5.7764993e-07
-1.3081137e-08
5.7902458e-07
-1.532807e-08
5.8078959e-07
-1.7901033e-08
5.8306891e-07
-2.0869561e-08
5.8603583e-07
-2.4308968e-08
5.8992881e-07
-2.8354667e-08
5.9514167e-07
-3.3610224e-08
6.0337762e-07
-4.0979774e-08
6.2025017e-07
-4.4725356e-08
6.3869748e-07
-2.817033e-08
5.7041965e-07
2.5541343e-07
2.0556369e-08
1.8641003e-07
4.4542477e-08
5.2535191e-07
4.658987e-08
6.5257672e-07
3.9101522e-08
6.4317516e-07
3.303483e-08
6.1792841e-07
2.8670127e-08
6.0494299e-07
2.4992507e-08
5.9765958e-07
2.1760796e-08
5.9236184e-07
1.8919606e-08
5.8828781e-07
1.6412817e-08
5.8514041e-07
1.418688e-08
5.8269183e-07
1.2195561e-08
5.8077363e-07
1.0399023e-08
5.7926437e-07
8.7628539e-09
5.7807589e-07
7.2572405e-09
5.7714333e-07
5.8561572e-09
5.764188e-07
4.5366268e-09
5.7586705e-07
3.2780535e-09
5.7546245e-07
2.0616171e-09
5.7518692e-07
8.6971533e-10
5.7502856e-07
-3.1455641e-10
5.7498072e-07
-1.507901e-09
5.7504151e-07
-2.7273173e-09
5.7521375e-07
-3.9906014e-09
5.755051e-07
-5.3168715e-09
5.759286e-07
-6.7271337e-09
5.7650373e-07
-8.2448992e-09
5.7725786e-07
-9.8968695e-09
5.7822854e-07
-1.1713703e-08
5.7946677e-07
-1.3730808e-08
5.8104169e-07
-1.5989253e-08
5.8304804e-07
-1.8536969e-08
5.8561662e-07
-2.1427162e-08
5.8892602e-07
-2.4713979e-08
5.9321563e-07
-2.8543251e-08
5.9897094e-07
-3.356011e-08
6.0839448e-07
-4.0042516e-08
6.2673258e-07
-4.1074414e-08
6.3972938e-07
-2.3379138e-08
5.5272437e-07
2.3203429e-07
1.5999603e-08
1.7041103e-07
3.9097006e-08
5.0225544e-07
4.4054503e-08
6.4761953e-07
3.8225956e-08
6.4900361e-07
3.2593864e-08
6.2356044e-07
2.8533772e-08
6.0900307e-07
2.5128114e-08
6.0106524e-07
2.2083693e-08
5.9540626e-07
1.9356585e-08
5.9101491e-07
1.6910647e-08
5.8758635e-07
1.470684e-08
5.8489564e-07
1.2709507e-08
5.8277096e-07
1.0886671e-08
5.810872e-07
9.2097463e-09
5.7975281e-07
7.6531913e-09
5.7869988e-07
6.1940905e-09
5.778779e-07
4.8117282e-09
5.7724941e-07
3.4871608e-09
5.7678702e-07
2.2027955e-09
5.7647129e-07
9.4198219e-10
5.7628937e-07
-3.1138376e-10
5.7623408e-07
-1.5732486e-09
5.7630338e-07
-2.8597918e-09
5.765003e-07
-4.1878174e-09
5.7683312e-07
-5.5751531e-09
5.7731594e-07
-7.0410651e-09
5.7796964e-07
-8.6066854e-09
5.7882348e-07
-1.029545e-08
5.7991731e-07
-1.2133555e-08
5.8130487e-07
-1.4150374e-08
5.8305851e-07
-1.6378823e-08
5.8527649e-07
-1.8855746e-08
5.8809354e-07
-2.1619405e-08
5.9168968e-07
-2.4710387e-08
5.9630661e-07
-2.8296805e-08
6.0255736e-07
-3.3003316e-08
6.1310099e-07
-3.8427622e-08
6.3215688e-07
-3.7117604e-08
6.3841936e-07
-1.9141453e-08
5.3474822e-07
2.1289284e-07
1.2406364e-08
1.5800538e-07
3.4060352e-08
4.8060267e-07
4.1173446e-08
6.4050694e-07
3.7001076e-08
6.5317589e-07
3.1868938e-08
6.2869248e-07
2.8098929e-08
6.1277307e-07
2.4966091e-08
6.0419808e-07
2.2129059e-08
5.982433e-07
1.9542814e-08
5.9360116e-07
1.7186667e-08
5.899425e-07
1.5033913e-08
5.8704839e-07
1.3058169e-08
5.847467e-07
1.1234725e-08
5.8291065e-07
9.5406527e-09
5.8144688e-07
7.9547564e-09
5.8028578e-07
6.4574465e-09
5.7937521e-07
5.0305592e-09
5.786763e-07
3.6571292e-09
5.7816045e-07
2.3211336e-09
5.7780728e-07
1.0072221e-09
5.7760329e-07
-2.9956127e-10
5.7754086e-07
-1.6140564e-09
5.7761787e-07
-2.9512735e-09
5.7783751e-07
-4.3266744e-09
5.7820852e-07
-5.756451e-09
5.7874571e-07
-7.2577989e-09
5.7947099e-07
-8.849177e-09
5.8041485e-07
-1.0550539e-08
5.8161867e-07
-1.2383543e-08
5.8313788e-07
-1.4371712e-08
5.8504668e-07
-1.6540461e-08
5.8744524e-07
-1.8916787e-08
5.9046987e-07
-2.1526333e-08
5.9429923e-07
-2.440334e-08
5.9918361e-07
-2.774112e-08
6.0589514e-07
-3.2082353e-08
6.1744222e-07
-3.6377135e-08
6.3645167e-07
-3.3156038e-08
6.3519826e-07
-1.5518794e-08
5.1711098e-07
1.9737405e-07
9.6379946e-09
1.4836822e-07
2.958471e-08
4.6065748e-07
3.819322e-08
6.3189918e-07
3.5564883e-08
6.5580419e-07
3.0970997e-08
6.3328623e-07
2.7469739e-08
6.162743e-07
2.4592814e-08
6.0707501e-07
2.1965494e-08
6.0087062e-07
1.9532e-08
5.9603465e-07
1.7282246e-08
5.9219225e-07
1.5199529e-08
5.8913111e-07
1.3265189e-08
5.8668104e-07
1.1460811e-08
5.8471503e-07
9.7685817e-09
5.8313911e-07
8.17141e-09
5.8188295e-07
6.6529862e-09
5.8089363e-07
5.197775e-09
5.8013151e-07
3.790941e-09
5.7956728e-07
2.4182274e-09
5.7918e-07
1.0658048e-09
5.7895571e-07
-2.7989956e-10
5.7888657e-07
-1.6323814e-09
5.7897035e-07
-3.0052472e-09
5.7921038e-07
-4.4123948e-09
5.7961567e-07
-5.8681837e-09
5.802015e-07
-7.3875875e-09
5.8099039e-07
-8.9863168e-09
5.8201358e-07
-1.0680895e-08
5.8331325e-07
-1.2488687e-08
5.8494567e-07
-1.4427891e-08
5.8698588e-07
-1.6517361e-08
5.8953471e-07
-1.8775702e-08
5.9272821e-07
-2.1218595e-08
5.9674212e-07
-2.3880092e-08
6.0184511e-07
-2.6974767e-08
6.0898982e-07
-3.0915178e-08
6.2138263e-07
-3.4095025e-08
6.3963151e-07
-2.9394661e-08
6.304979e-07
-1.2506386e-08
5.002227e-07
1.8486766e-07
7.5456484e-09
1.4082355e-07
2.5717642e-08
4.4248738e-07
3.5284552e-08
6.2233332e-07
3.4027055e-08
6.5706171e-07
2.998279e-08
6.3733032e-07
2.6725949e-08
6.1953109e-07
2.4077755e-08
6.097232e-07
2.1650588e-08
6.0329779e-07
1.9371251e-08
5.9831399e-07
1.723528e-08
5.9432822e-07
1.5233688e-08
5.911327e-07
1.3354003e-08
5.8856073e-07
1.1583018e-08
5.8648601e-07
9.9073221e-09
5.8481481e-07
8.3135014e-09
5.8347677e-07
6.7883018e-09
5.8241883e-07
5.3187331e-09
5.8160108e-07
3.8921003e-09
5.8099391e-07
2.4959845e-09
5.8057611e-07
1.1181872e-09
5.8033351e-07
-2.5335209e-10
5.8025811e-07
-1.6306487e-09
5.8034765e-07
-3.0257764e-09
5.8060551e-07
-4.4509608e-09
5.8104085e-07
-5.9186592e-09
5.816692e-07
-7.4416159e-09
5.8251335e-07
-9.0328799e-09
5.8360485e-07
-1.0705772e-08
5.8498614e-07
-1.2473791e-08
5.8671369e-07
-1.4350496e-08
5.8886259e-07
-1.6349202e-08
5.9153341e-07
-1.8481655e-08
5.9486066e-07
-2.0756548e-08
5.9901701e-07
-2.3212789e-08
6.0430135e-07
-2.6077805e-08
6.1185483e-07
-2.9602624e-08
6.2490745e-07
-3.1742734e-08
6.4177162e-07
-2.595562e-08
6.2471079e-07
-1.0057474e-08
4.8432456e-07
1.7481018e-07
5.9887386e-09
1.3483597e-07
2.2437283e-08
4.2604115e-07
3.2549154e-08
6.1222287e-07
3.2467838e-08
6.5714316e-07
2.8964148e-08
6.408338e-07
2.5927465e-08
6.2256769e-07
2.3476021e-08
6.1217465e-07
2.1231715e-08
6.055421e-07
1.9100574e-08
6.0044513e-07
1.7079043e-08
5.9634975e-07
1.5163618e-08
5.9304813e-07
1.3346569e-08
5.9037777e-07
1.1618807e-08
5.8821377e-07
9.9705533e-09
5.8646306e-07
8.391553e-09
5.8505577e-07
6.8712813e-09
5.839391e-07
5.3991025e-09
5.8307326e-07
3.9643695e-09
5.8242865e-07
2.5564758e-09
5.8198401e-07
1.1648708e-09
5.8172511e-07
-2.2095241e-10
5.8164393e-07
-1.611481e-09
5.8173818e-07
-3.0172162e-09
5.8201124e-07
-4.4486966e-09
5.8247233e-07
-5.9165074e-09
5.8313701e-07
-7.4312606e-09
5.840281e-07
-9.0035403e-09
5.8517713e-07
-1.0643797e-08
5.8662639e-07
-1.2362186e-08
5.8843208e-07
-1.4168392e-08
5.9066879e-07
-1.607125e-08
5.9343627e-07
-1.8077234e-08
5.9686665e-07
-2.0191111e-08
6.0113089e-07
-2.2460135e-08
6.0657037e-07
-2.5113506e-08
6.145082e-07
-2.8225032e-08
6.2801897e-07
-2.943424e-08
6.4298083e-07
-2.2893993e-08
6.1817054e-07
-8.1035251e-09
4.6953409e-07
1.6670666e-07
4.8445558e-09
1.299928e-07
1.9685006e-08
4.112035e-07
3.0035151e-08
6.018746e-07
3.0939371e-08
6.5623923e-07
2.7954303e-08
6.4381864e-07
2.5116303e-08
6.2540558e-07
2.2829491e-08
6.1446145e-07
2.0746709e-08
6.0762489e-07
1.8753047e-08
6.0243879e-07
1.6841911e-08
5.9826089e-07
1.5013231e-08
5.9487681e-07
1.3262703e-08
5.921283e-07
1.1584338e-08
5.8989214e-07
9.9712305e-09
5.8807617e-07
8.41574e-09
5.8661126e-07
6.9096915e-09
5.8544515e-07
5.4445495e-09
5.845384e-07
4.0115531e-09
5.8386164e-07
2.6018115e-09
5.8339375e-07
1.2063682e-09
5.8312055e-07
-1.8375972e-10
5.8303406e-07
-1.5775536e-09
5.8313197e-07
-2.9839737e-09
5.8341766e-07
-4.4119295e-09
5.8390029e-07
-5.8702359e-09
5.8459532e-07
-7.3675431e-09
5.8552541e-07
-8.9122344e-09
5.8672182e-07
-1.0512282e-08
5.8822644e-07
-1.2175063e-08
5.9009486e-07
-1.3907167e-08
5.924009e-07
-1.5713982e-08
5.9524309e-07
-1.7598237e-08
5.987509e-07
-1.956356e-08
6.0309621e-07
-2.1667222e-08
6.0867404e-07
-2.4128283e-08
6.1696926e-07
-2.6840878e-08
6.3073157e-07
-2.7241414e-08
6.4338137e-07
-2.0218972e-08
6.111481e-07
-6.568828e-09
4.5588395e-07
1.6013783e-07
4.010742e-09
1.2598371e-07
1.7388269e-08
3.9782933e-07
2.7756358e-08
5.9150891e-07
2.947207e-08
6.5452402e-07
2.6976178e-08
6.4631428e-07
2.4319358e-08
6.2806224e-07
2.2168047e-08
6.1661274e-07
2.0224412e-08
6.0956853e-07
1.835503e-08
6.0430818e-07
1.6547323e-08
6.0006859e-07
1.4802882e-08
5.9662125e-07
1.3119722e-08
5.9381146e-07
1.149407e-08
5.9151779e-07
9.9211909e-09
5.8964905e-07
8.3955317e-09
5.8813692e-07
6.9108745e-09
5.8692981e-07
5.4604997e-09
5.8598877e-07
4.0373292e-09
5.8528481e-07
2.6340437e-09
5.8479703e-07
1.2431764e-09
5.8451142e-07
-1.4281382e-10
5.8442005e-07
-1.5314779e-09
5.8452064e-07
-2.93032e-09
5.848165e-07
-4.3467296e-09
5.853167e-07
-5.7879037e-09
5.8603649e-07
-7.2607455e-09
5.8699825e-07
-8.771737e-09
5.8823281e-07
-1.0326786e-08
5.8978149e-07
-1.1931047e-08
5.9169912e-07
-1.3588751e-08
5.940586e-07
-1.5302768e-08
5.969571e-07
-1.7073449e-08
6.0052158e-07
-1.8905561e-08
6.0492833e-07
-2.086643e-08
6.1063491e-07
-2.3153784e-08
6.1925662e-07
-2.5489626e-08
6.3306741e-07
-2.520377e-08
6.4309551e-07
-1.7911867e-08
6.0385619e-07
-5.3789738e-09
4.4335105e-07
1.5475886e-07
3.4046296e-09
1.2258104e-07
1.54732e-08
3.8576476e-07
2.5706016e-08
5.8127912e-07
2.808113e-08
6.5214969e-07
2.6041352e-08
6.483538e-07
2.3552213e-08
6.3055118e-07
2.1511716e-08
6.186532e-07
1.9685795e-08
6.1139446e-07
1.7926718e-08
6.0606726e-07
1.6213984e-08
6.0178133e-07
1.4549368e-08
5.9828587e-07
1.2932321e-08
5.9542851e-07
1.1360561e-08
5.9308955e-07
9.830925e-09
5.9117868e-07
8.3394652e-09
5.8962838e-07
6.8815456e-09
5.8838773e-07
5.4519728e-09
5.8741835e-07
4.0451295e-09
5.8669166e-07
2.6550966e-09
5.8618707e-07
1.275759e-09
5.8589076e-07
-9.9100815e-11
5.8579491e-07
-1.4757141e-09
5.8589725e-07
-2.8602514e-09
5.8620104e-07
-4.2587255e-09
5.8671517e-07
-5.6768964e-09
5.8745466e-07
-7.1201554e-09
5.8844151e-07
-8.5933928e-09
5.8970605e-07
-1.0100851e-08
5.9128895e-07
-1.1645979e-08
5.9324424e-07
-1.3231285e-08
5.9564391e-07
-1.4857924e-08
5.9858374e-07
-1.652503e-08
6.0218869e-07
-1.8240219e-08
6.0664351e-07
-2.0079636e-08
6.1247432e-07
-2.2210152e-08
6.2138713e-07
-2.4195832e-08
6.3505309e-07
-2.3337901e-08
6.4223758e-07
-1.5938557e-08
5.9645685e-07
-4.4655324e-09
4.3187803e-07
1.5029333e-07
2.9615998e-09
1.1962177e-07
1.3871279e-08
3.7485984e-07
2.3866121e-08
5.7128804e-07
2.6771476e-08
6.4924547e-07
2.5153911e-08
6.4997114e-07
2.2822565e-08
6.3288227e-07
2.0873061e-08
6.2060265e-07
1.9145473e-08
6.1312205e-07
1.7483055e-08
6.0772968e-07
1.5856359e-08
6.0340803e-07
1.4266148e-08
5.9987608e-07
1.2712621e-08
5.9698204e-07
1.1194426e-08
5.9460774e-07
9.7094802e-09
5.9266363e-07
8.2550284e-09
5.9108283e-07
6.8276763e-09
5.8981508e-07
5.4234809e-09
5.8882254e-07
4.038063e-09
5.8807707e-07
2.6667205e-09
5.8755841e-07
1.3045354e-09
5.8725294e-07
-5.3527869e-11
5.8715297e-07
-1.4125112e-09
5.8725623e-07
-2.7773985e-09
5.8756593e-07
-4.152985e-09
5.8809076e-07
-5.5437875e-09
5.8884546e-07
-6.9539237e-09
5.8985164e-07
-8.3869874e-09
5.9113911e-07
-9.8459234e-09
5.9274788e-07
-1.133292e-08
5.9473124e-07
-1.2849305e-08
5.9716029e-07
-1.4395166e-08
6.001296e-07
-1.5969388e-08
6.0376291e-07
-1.7583582e-08
6.0825771e-07
-1.9320572e-08
6.1421131e-07
-2.1308892e-08
6.2337545e-07
-2.2972668e-08
6.3671687e-07
-2.1644742e-08
6.4090965e-07
-1.4257869e-08
5.8906998e-07
-3.7686002e-09
4.2138876e-07
1.4652473e-07
2.6328282e-09
1.169917e-07
1.2522711e-08
3.6497558e-07
2.2213781e-08
5.6160159e-07
2.5541512e-08
6.4591931e-07
2.4313149e-08
6.5119932e-07
2.2132786e-08
6.3506232e-07
2.0259177e-08
6.2247618e-07
1.8613146e-08
6.1476808e-07
1.7034741e-08
6.0930809e-07
1.5485327e-08
6.0495744e-07
1.3963735e-08
6.0139767e-07
1.2470377e-08
5.9847539e-07
1.1004419e-08
5.960737e-07
9.5644723e-09
5.9410358e-07
8.1486304e-09
5.9249867e-07
6.7544467e-09
5.9120926e-07
5.3789796e-09
5.9019801e-07
4.0188758e-09
5.8943718e-07
2.6704681e-09
5.8890682e-07
1.3298764e-09
5.8859353e-07
-6.8921198e-12
5.8848974e-07
-1.3438703e-09
5.8859321e-07
-2.6849721e-09
5.8890703e-07
-4.0339521e-09
5.8943974e-07
-5.3942772e-09
5.9020579e-07
-6.7690183e-09
5.9122638e-07
-8.1607422e-09
5.9253083e-07
-9.5714171e-09
5.9415856e-07
-1.1002347e-08
5.9616217e-07
-1.245411e-08
5.9861205e-07
-1.3926248e-08
6.0160174e-07
-1.5418163e-08
6.0525482e-07
-1.6946087e-08
6.0978563e-07
-1.8596801e-08
6.1586203e-07
-2.0455126e-08
6.2523378e-07
-2.1824949e-08
6.3808669e-07
-2.0115355e-08
6.3920006e-07
-1.2827206e-08
5.8178183e-07
-3.237777e-09
4.1179933e-07
1.4328695e-07
2.3825883e-09
1.1461238e-07
1.1377531e-08
3.5598727e-07
2.0725294e-08
5.5225944e-07
2.4386007e-08
6.4226071e-07
2.3515567e-08
6.5206966e-07
2.1481813e-08
6.370957e-07
1.9673265e-08
6.2428461e-07
1.8094803e-08
6.1634654e-07
1.6589127e-08
6.1081377e-07
1.5108835e-08
6.0643773e-07
1.3650135e-08
6.0285637e-07
1.2213264e-08
5.9991227e-07
1.0797605e-08
5.9748936e-07
9.4021731e-09
5.9549901e-07
8.0256369e-09
5.9387521e-07
6.666252e-09
5.9256865e-07
5.3218592e-09
5.915424e-07
3.9899383e-09
5.907691e-07
2.6676845e-09
5.9022907e-07
1.3520944e-09
5.8990912e-07
4.0059712e-11
5.8980178e-07
-1.2715382e-09
5.8990481e-07
-2.5857463e-09
5.9022124e-07
-3.905432e-09
5.9075942e-07
-5.2331909e-09
5.9153355e-07
-6.5712531e-09
5.9256445e-07
-7.9213959e-09
5.9388098e-07
-9.284881e-09
5.9552204e-07
-1.0662433e-08
5.9753972e-07
-1.2054212e-08
6.0000383e-07
-1.3459615e-08
6.0300714e-07
-1.4879142e-08
6.0667435e-07
-1.6333809e-08
6.112403e-07
-1.7911355e-08
6.1743957e-07
-1.9649478e-08
6.269719e-07
-2.0751805e-08
6.3918902e-07
-1.8735455e-08
6.3718371e-07
-1.1606256e-08
5.7465263e-07
-2.8320501e-09
4.0302512e-07
1.404549e-07
2.185513e-09
1.1243073e-07
1.0395233e-08
3.4778534e-07
1.9378442e-08
5.43283e-07
2.3298149e-08
6.3834378e-07
2.2756349e-08
6.526115e-07
2.0866572e-08
6.3898504e-07
1.9115873e-08
6.2603514e-07
1.7593709e-08
6.178687e-07
1.6150996e-08
6.1225649e-07
1.4732479e-08
6.0785625e-07
1.3331284e-08
6.0425756e-07
1.1947178e-08
6.0129637e-07
1.0579562e-08
5.9885698e-07
9.2276403e-09
5.9685093e-07
7.8904491e-09
5.952124e-07
6.5667449e-09
5.9389235e-07
5.2549664e-09
5.9285418e-07
3.9532559e-09
5.9207081e-07
2.6595142e-09
5.9152281e-07
1.3714701e-09
5.9119717e-07
8.6762459e-11
5.9108648e-07
-1.1969827e-09
5.9118855e-07
-2.4820607e-09
5.9150631e-07
-3.7706089e-09
5.9204797e-07
-5.0645201e-09
5.9282746e-07
-6.3653664e-09
5.9386529e-07
-7.674337e-09
5.9518995e-07
-8.9922073e-09
5.9683991e-07
-1.0319358e-08
5.9886687e-07
-1.1655779e-08
6.0134026e-07
-1.300102e-08
6.0435238e-07
-1.4357085e-08
6.0803042e-07
-1.574957e-08
6.1263278e-07
-1.7264123e-08
6.1895413e-07
-1.8889662e-08
6.2859744e-07
-1.9748882e-08
6.4004824e-07
-1.7488559e-08
6.3492339e-07
-1.0559041e-08
5.6772311e-07
-2.5189724e-09
3.9498506e-07
1.3793593e-07
2.0241288e-09
1.1041117e-07
9.5436573e-09
3.4027496e-07
1.8153533e-08
5.3468123e-07
2.2270821e-08
6.3423005e-07
2.2030338e-08
6.5285222e-07
2.0283005e-08
6.4073188e-07
1.8585867e-08
6.2773207e-07
1.7111209e-08
6.1934333e-07
1.5723206e-08
6.136445e-07
1.4360026e-08
6.0921944e-07
1.301144e-08
6.0560615e-07
1.1676535e-08
6.0263128e-07
1.0354593e-08
6.0017892e-07
9.0448683e-09
5.9816065e-07
7.7466045e-09
5.9651066e-07
6.4589025e-09
5.9518005e-07
5.1806457e-09
5.9413244e-07
3.9104932e-09
5.9334096e-07
2.646912e-09
5.9278639e-07
1.3882295e-09
5.9245585e-07
1.3269873e-10
5.9234201e-07
-1.1214318e-09
5.9244268e-07
-2.3758461e-09
5.9276073e-07
-3.6320874e-09
5.9330421e-07
-4.8914913e-09
5.9408686e-07
-6.1551279e-09
5.9512893e-07
-7.4237633e-09
5.9645858e-07
-8.6978611e-09
5.9811401e-07
-9.977633e-09
6.0014664e-07
-1.1263075e-08
6.026257e-07
-1.2554099e-08
6.0564341e-07
-1.3854473e-08
6.0933079e-07
-1.5193884e-08
6.1397219e-07
-1.6652972e-08
6.2041321e-07
-1.8171696e-08
6.3011616e-07
-1.8809949e-08
6.4068649e-07
-1.6357931e-08
6.3247137e-07
-9.6543962e-09
5.6101958e-07
-2.2734386e-09
3.876041e-07
1.3566249e-07
1.8867758e-09
1.085298e-07
8.7976314e-09
3.3337481e-07
1.7033691e-08
5.2645483e-07
2.1297309e-08
6.2997095e-07
2.1332602e-08
6.5281741e-07
1.9726739e-08
6.423372e-07
1.8081132e-08
6.2937741e-07
1.6647356e-08
6.2077708e-07
1.5307227e-08
6.1498464e-07
1.3993851e-08
6.1053282e-07
1.2693541e-08
6.0690646e-07
1.1404543e-08
6.0392027e-07
1.0125941e-08
6.0145752e-07
8.8569427e-09
5.9942965e-07
7.5968888e-09
5.9777072e-07
6.3451033e-09
5.9643184e-07
5.1007909e-09
5.9537675e-07
3.8630054e-09
5.9457875e-07
2.6306599e-09
5.9401874e-07
1.4025624e-09
5.9368395e-07
1.7746464e-10
5.9356711e-07
-1.0458804e-09
5.9366603e-07
-2.2686619e-09
5.9398351e-07
-3.4919511e-09
5.945275e-07
-4.7166517e-09
5.9531156e-07
-5.9434606e-09
5.9635574e-07
-7.1728534e-09
5.9768798e-07
-8.4051129e-09
5.9934627e-07
-9.6404076e-09
6.0138194e-07
-1.0878856e-08
6.0386415e-07
-1.2120877e-08
6.0688543e-07
-1.3372137e-08
6.1058205e-07
-1.4665715e-08
6.1526577e-07
-1.6074586e-08
6.2182208e-07
-1.7490778e-08
6.3153236e-07
-1.7928023e-08
6.4112373e-07
-1.532776e-08
6.298711e-07
-8.8660954e-09
5.5455791e-07
-2.076479e-09
3.8081448e-07
1.3358601e-07
1.7659228e-09
1.0677027e-07
8.1376201e-09
3.2701563e-07
1.6004743e-08
5.1859913e-07
2.0371628e-08
6.2560969e-07
2.0658726e-08
6.5253115e-07
1.919349e-08
6.4380186e-07
1.7599053e-08
6.3097151e-07
1.6201374e-08
6.221747e-07
1.4903555e-08
6.1628247e-07
1.3635303e-08
6.1180107e-07
1.2379505e-08
6.0816226e-07
1.1133452e-08
6.0516633e-07
9.8959784e-09
6.0269499e-07
8.6661905e-09
6.0065944e-07
7.4434485e-09
5.9899346e-07
6.2272095e-09
5.9764808e-07
5.0169028e-09
5.9658706e-07
3.8118763e-09
5.9578377e-07
2.6113885e-09
5.9521923e-07
1.4146266e-09
5.9488071e-07
2.207403e-10
5.94761e-07
-9.7111571e-10
5.9485788e-07
-2.1617371e-09
5.9517413e-07
-3.351827e-09
5.9571759e-07
-4.5419616e-09
5.965017e-07
-5.7325687e-09
5.9754635e-07
-6.9239357e-09
5.9887934e-07
-8.1162607e-09
6.005386e-07
-9.3097527e-09
6.0257543e-07
-1.0504726e-08
6.0505912e-07
-1.17022e-08
6.080829e-07
-1.2909764e-08
6.1178961e-07
-1.416306e-08
6.1651907e-07
-1.5525069e-08
6.2318409e-07
-1.6841879e-08
6.3284917e-07
-1.7096097e-08
6.4137795e-07
-1.4383791e-08
6.271588e-07
-8.172525e-09
5.4834665e-07
-1.9140915e-09
3.7455605e-07
1.3167192e-07
1.6568599e-09
1.0512097e-07
7.5485012e-09
3.2113862e-07
1.5054903e-08
5.1110621e-07
1.9488619e-08
6.2118291e-07
2.000492e-08
6.5201611e-07
1.8679284e-08
6.451269e-07
1.7136828e-08
6.3251355e-07
1.5771983e-08
6.2353946e-07
1.4512026e-08
6.1754244e-07
1.3284988e-08
6.1302812e-07
1.2070484e-08
6.0937676e-07
1.0864764e-08
6.0637205e-07
9.6663834e-09
6.0389337e-07
8.474318e-09
6.0185151e-07
7.2878979e-09
6.0017988e-07
6.1066476e-09
5.9882933e-07
4.9301462e-09
5.9776356e-07
3.757956e-09
5.9695596e-07
2.5895974e-09
5.9638758e-07
1.4245516e-09
5.9604576e-07
2.622804e-10
5.9592327e-07
-8.9774615e-10
5.9601791e-07
-2.0560169e-09
5.963324e-07
-3.2129529e-09
5.9687453e-07
-4.3688872e-09
5.9765763e-07
-5.5240609e-09
5.9870152e-07
-6.6786492e-09
6.0003393e-07
-7.8328319e-09
6.0169278e-07
-8.9869102e-09
6.0372951e-07
-1.0141435e-08
6.0621364e-07
-1.1298079e-08
6.0923955e-07
-1.2466296e-08
6.1295783e-07
-1.3683381e-08
6.1773615e-07
-1.5000365e-08
6.2450108e-07
-1.6220137e-08
6.3406894e-07
-1.6307594e-08
6.4146541e-07
-1.3513572e-08
6.2436478e-07
-7.5561474e-09
5.4238922e-07
-1.7761655e-09
3.6877607e-07
1.2989575e-07
1.5567281e-09
1.0357318e-07
7.0185325e-09
3.1569389e-07
1.4174385e-08
5.0396618e-07
1.8643903e-08
6.1672187e-07
1.9368009e-08
6.5129382e-07
1.8180557e-08
6.4631376e-07
1.6691664e-08
6.3400194e-07
1.5357623e-08
6.2487338e-07
1.4132039e-08
6.1876802e-07
1.2942989e-08
6.1421718e-07
1.176706e-08
6.1055269e-07
1.0599408e-08
6.075397e-07
9.4382871e-09
6.0505449e-07
8.2825337e-09
6.0300726e-07
7.131417e-09
6.0133099e-07
5.9844832e-09
5.9997626e-07
4.8414055e-09
5.9890664e-07
3.7018978e-09
5.9809547e-07
2.565675e-09
5.9752381e-07
1.4324427e-09
5.9717899e-07
3.0190312e-10
5.9705381e-07
-8.2622944e-10
5.9714604e-07
-1.9522087e-09
5.9745838e-07
-3.0762434e-09
5.9799856e-07
-4.1984903e-09
5.9877988e-07
-5.319066e-09
5.9982209e-07
-6.4380877e-09
6.0115295e-07
-7.5557602e-09
6.0281045e-07
-8.6725036e-09
6.0484625e-07
-9.7891228e-09
6.0733026e-07
-1.0907967e-08
6.1035839e-07
-1.204023e-08
6.1409009e-07
-1.3223912e-08
6.1891984e-07
-1.4496533e-08
6.257737e-07
-1.562108e-08
6.3519348e-07
-1.5556598e-08
6.4140093e-07
-1.270645e-08
6.2151463e-07
-7.0028889e-09
5.3668566e-07
-1.6555508e-09
3.6342873e-07
1.282402e-07
1.4638305e-09
1.0211989e-07
6.5385198e-09
3.1063914e-07
1.3355027e-08
4.9716819e-07
1.7833775e-08
6.1225339e-07
1.8745377e-08
6.5038472e-07
1.7694179e-08
6.473644e-07
1.6260888e-08
6.3543465e-07
1.4956608e-08
6.2617751e-07
1.3762726e-08
6.199619e-07
1.2609028e-08
6.1537089e-07
1.1469406e-08
6.1169232e-07