/*--------------------------------*- C++ -*----------------------------------*\
  =========                 |
  \\      /  F ield         | OpenFOAM: The Open Source CFD Toolbox
   \\    /   O peration     | Website:  https://openfoam.org
    \\  /    A nd           | Version:  10
     \\/     M anipulation  |
\*---------------------------------------------------------------------------*/
FoamFile
{
    format      ascii;
    class       surfaceScalarField;
    location    "0.14";
    object      phi_0;
}
// * * * * * * * * * * * * * * * * * * * * * * * * * * * * * * * * * * * * * //

dimensions      [1 0 -1 0 0 0 0];

internalField   nonuniform List<scalar> 
7860
(
3.9894157e-08
5.2881387e-07
1.2191315e-08
5.9641063e-07
7.4264494e-09
5.734726e-07
5.4977667e-09
5.7063638e-07
4.1132899e-09
5.7009214e-07
3.1994468e-09
5.6962148e-07
2.5575015e-09
5.6934957e-07
2.0777606e-09
5.6918735e-07
1.7078921e-09
5.6907747e-07
1.4153689e-09
5.6900011e-07
1.1783925e-09
5.6894456e-07
9.8219713e-10
5.6890377e-07
8.1643638e-10
5.6887333e-07
6.7361718e-10
5.6885038e-07
5.4816349e-10
5.6883301e-07
4.3581182e-10
5.6881991e-07
3.3320563e-10
5.6881016e-07
2.3761459e-10
5.6880314e-07
1.4673279e-10
5.6879843e-07
5.8525958e-11
5.6879576e-07
-2.8891789e-11
5.6879497e-07
-1.1736548e-10
5.6879602e-07
-2.088051e-10
5.6879899e-07
-3.0529145e-10
5.6880404e-07
-4.0920867e-10
5.6881147e-07
-5.2340727e-10
5.6882175e-07
-6.5142489e-10
5.6883558e-07
-7.9779923e-10
5.6885394e-07
-9.6852854e-10
5.688783e-07
-1.1717787e-09
5.6891082e-07
-1.4190558e-09
5.6895486e-07
-1.7271771e-09
5.6901571e-07
-2.1211282e-09
5.6910155e-07
-2.6407987e-09
5.6922728e-07
-3.3686064e-09
5.6943543e-07
-4.4601475e-09
5.6979918e-07
-6.0059787e-09
5.702535e-07
-9.5053046e-09
5.7220703e-07
-2.9572572e-08
5.8877501e-07
5.3913534e-07
5.9668185e-08
4.6914571e-07
3.6660843e-08
6.1941796e-07
2.2623205e-08
5.8751023e-07
1.6248331e-08
5.7701125e-07
1.2285136e-08
5.7405534e-07
9.6009167e-09
5.723057e-07
7.6722974e-09
5.7127819e-07
6.2312326e-09
5.7062841e-07
5.122113e-09
5.7018659e-07
4.2448557e-09
5.6987737e-07
3.5341171e-09
5.6965529e-07
2.9457196e-09
5.6949217e-07
2.4486089e-09
5.6937044e-07
2.0203008e-09
5.6927869e-07
1.644072e-09
5.6920924e-07
1.3071358e-09
5.6915684e-07
9.9942578e-10
5.6911787e-07
7.1275417e-10
5.6908981e-07
4.4020565e-10
5.6907098e-07
1.7567882e-10
5.6906028e-07
-8.6482664e-11
5.6905713e-07
-3.5181215e-10
5.6906135e-07
-6.2603222e-10
5.6907321e-07
-9.1538593e-10
5.6909339e-07
-1.2270234e-09
5.6912311e-07
-1.5694931e-09
5.6916422e-07
-1.9534039e-09
5.6921949e-07
-2.3923643e-09
5.692929e-07
-2.9043704e-09
5.693903e-07
-3.5139283e-09
5.6952038e-07
-4.2554722e-09
5.696964e-07
-5.1793842e-09
5.6993962e-07
-6.3623098e-09
5.7028447e-07
-7.9229943e-09
5.7078796e-07
-1.0064688e-08
5.7157712e-07
-1.3193575e-08
5.7292807e-07
-1.8124479e-08
5.751844e-07
-2.8167126e-08
5.8224967e-07
-4.5794589e-08
6.0640247e-07
4.9334075e-07
6.0002239e-08
4.0914354e-07
5.0477765e-08
6.2894243e-07
3.3361571e-08
6.0462641e-07
2.4808409e-08
5.8556441e-07
1.9313797e-08
5.7954995e-07
1.5322132e-08
5.7629737e-07
1.2351663e-08
5.7424866e-07
1.0093012e-08
5.7288707e-07
8.3327838e-09
5.7194681e-07
6.9278411e-09
5.7128231e-07
5.78209e-09
5.7080105e-07
4.8287504e-09
5.7044551e-07
4.0200427e-09
5.7017915e-07
3.3209663e-09
5.6997777e-07
2.7052421e-09
5.6982497e-07
2.1526222e-09
5.6970946e-07
1.6470654e-09
5.6962343e-07
1.1754563e-09
5.6956142e-07
7.2667117e-10
5.6951977e-07
2.9086507e-10
5.6949609e-07
-1.4110572e-10
5.694891e-07
-5.7818949e-10
5.6949844e-07
-1.0296328e-09
5.6952465e-07
-1.5055002e-09
5.6956926e-07
-2.0172775e-09
5.6963489e-07
-2.5786313e-09
5.6972558e-07
-3.2064201e-09
5.6984728e-07
-3.9221064e-09
5.7000858e-07
-4.7538065e-09
5.70222e-07
-5.7393541e-09
5.7050593e-07
-6.9309598e-09
5.7088801e-07
-8.4028498e-09
5.7141151e-07
-1.0264455e-08
5.7214608e-07
-1.2677689e-08
5.732012e-07
-1.5875764e-08
5.747752e-07
-2.0220652e-08
5.7727296e-07
-2.6690211e-08
5.8165396e-07
-3.8930028e-08
5.9448949e-07
-4.8153995e-08
6.1562644e-07
4.4518676e-07
5.4870534e-08
3.5427313e-07
5.7437709e-08
6.2637528e-07
4.0453364e-08
6.2161073e-07
3.0764809e-08
5.9525296e-07
2.462893e-08
5.8568583e-07
1.9938312e-08
5.8098799e-07
1.629943e-08
5.7788754e-07
1.3453782e-08
5.7573271e-07
1.1189228e-08
5.7421137e-07
9.3540417e-09
5.731175e-07
7.8403179e-09
5.7231477e-07
6.5695471e-09
5.7171628e-07
5.4838618e-09
5.7126483e-07
4.539928e-09
5.709217e-07
3.7046292e-09
5.7066026e-07
2.9520863e-09
5.7046201e-07
2.2615591e-09
5.7031395e-07
1.6159296e-09
5.7020705e-07
1.0005692e-09
5.7013513e-07
4.0245954e-10
5.700942e-07
-1.9053113e-10
5.7008209e-07
-7.902879e-10
5.7009819e-07
-1.4090705e-09
5.7014344e-07
-2.0601676e-09
5.7022036e-07
-2.758648e-09
5.7033337e-07
-3.522288e-09
5.7048922e-07
-4.3727788e-09
5.7069777e-07
-5.3373602e-09
5.7097316e-07
-6.4511007e-09
5.7133574e-07
-7.7601586e-09
5.7181499e-07
-9.3263496e-09
5.724542e-07
-1.1233533e-08
5.7331869e-07
-1.3598014e-08
5.7451056e-07
-1.6581193e-08
5.7618438e-07
-2.0380929e-08
5.7857494e-07
-2.5263937e-08
5.8215597e-07
-3.2489242e-08
5.8887927e-07
-4.5073255e-08
6.070735e-07
-4.6531159e-08
6.1708434e-07
3.986556e-07
4.7955672e-08
3.0631765e-07
6.0056761e-08
6.1427429e-07
4.537979e-08
6.3628766e-07
3.4855853e-08
6.0577688e-07
2.8380356e-08
5.9216133e-07
2.3400336e-08
5.8596801e-07
1.9415675e-08
5.818722e-07
1.6211576e-08
5.7893681e-07
1.3603489e-08
5.7681945e-07
1.145198e-08
5.7526901e-07
9.6518973e-09
5.7411485e-07
8.1231733e-09
5.73245e-07
6.8047571e-09
5.7258325e-07
5.6496082e-09
5.7207685e-07
4.6209228e-09
5.7168895e-07
3.6893853e-09
5.7139354e-07
2.8311273e-09
5.7117221e-07
2.0261892e-09
5.7101199e-07
1.2573353e-09
5.7090398e-07
5.0910902e-10
5.7084243e-07
-2.3296072e-10
5.7082416e-07
-9.8306906e-10
5.708483e-07
-1.7558257e-09
5.7091619e-07
-2.5669777e-09
5.7103151e-07
-3.4342255e-09
5.7120061e-07
-4.3782068e-09
5.714332e-07
-5.4237365e-09
5.717433e-07
-6.6014168e-09
5.7215084e-07
-7.9497638e-09
5.7268409e-07
-9.5180817e-09
5.733833e-07
-1.1370239e-08
5.7430635e-07
-1.3589094e-08
5.7553755e-07
-1.6283e-08
5.7720446e-07
-1.9595624e-08
5.79497e-07
-2.3697345e-08
5.8267666e-07
-2.8890912e-08
5.8734953e-07
-3.6751537e-08
5.9673989e-07
-4.8425424e-08
6.1874739e-07
-4.3171343e-08
6.1183026e-07
3.5548426e-07
4.0324588e-08
2.6599334e-07
5.8968893e-08
5.9563019e-07
4.8302513e-08
6.4695401e-07
3.7561987e-08
6.1651737e-07
3.0903195e-08
5.9882011e-07
2.5868676e-08
5.9100253e-07
2.1755577e-08
5.859853e-07
1.8369006e-08
5.8232338e-07
1.5556256e-08
5.7963221e-07
1.3195245e-08
5.7763002e-07
1.1190003e-08
5.7612009e-07
9.4652042e-09
5.749698e-07
7.961672e-09
5.7408678e-07
6.6324669e-09
5.7340605e-07
5.4399263e-09
5.7288149e-07
4.353396e-09
5.7248007e-07
3.3474509e-09
5.7217816e-07
2.4004953e-09
5.7195895e-07
1.493645e-09
5.7181083e-07
6.0980664e-10
5.7172626e-07
-2.6711266e-10
5.7170108e-07
-1.1529227e-09
5.7173411e-07
-2.0638533e-09
5.7182712e-07
-3.0172822e-09
5.7198494e-07
-4.0325413e-09
5.7221587e-07
-5.1318632e-09
5.7253252e-07
-6.3415323e-09
5.7295296e-07
-7.6933204e-09
5.7350263e-07
-9.2262836e-09
5.7421705e-07
-1.0989071e-08
5.7514609e-07
-1.3042957e-08
5.7636024e-07
-1.5465264e-08
5.7795985e-07
-1.8353449e-08
5.8009265e-07
-2.183177e-08
5.8297532e-07
-2.6056125e-08
5.8690101e-07
-3.1435463e-08
5.9272887e-07
-3.9601248e-08
6.0490567e-07
-4.9122398e-08
6.2826854e-07
-3.8551091e-08
6.0125896e-07
3.1693317e-07
3.2849982e-08
2.3314372e-07
5.5219233e-08
5.7326128e-07
4.9196389e-08
6.5297686e-07
3.9027552e-08
6.2668615e-07
3.2397715e-08
6.0544994e-07
2.7486435e-08
5.9591381e-07
2.340755e-08
5.9006418e-07
1.9973526e-08
5.8575741e-07
1.7067742e-08
5.8253799e-07
1.4587936e-08
5.8010982e-07
1.2450281e-08
5.7825775e-07
1.0587487e-08
5.7683259e-07
8.9452712e-09
5.75729e-07
7.4793991e-09
5.7487193e-07
6.1534973e-09
5.7420739e-07
4.9372956e-09
5.7369628e-07
3.8051843e-09
5.7331027e-07
2.7350373e-09
5.7302909e-07
1.7072358e-09
5.7283863e-07
7.0383725e-10
5.7272966e-07
-2.9215671e-10
5.7269707e-07
-1.2974747e-09
5.7273943e-07
-2.3292415e-09
5.7285889e-07
-3.4056618e-09
5.7306136e-07
-4.5467613e-09
5.7335697e-07
-5.7752346e-09
5.7376099e-07
-7.1174417e-09
5.7429517e-07
-8.6046097e-09
5.749898e-07
-1.0274283e-08
5.7588672e-07
-1.2172096e-08
5.770439e-07
-1.4354169e-08
5.7854231e-07
-1.6889992e-08
5.8049568e-07
-1.9864477e-08
5.8306713e-07
-2.3378506e-08
5.8648935e-07
-2.7573548e-08
5.9109605e-07
-3.2966892e-08
5.9812221e-07
-4.0941833e-08
6.1288062e-07
-4.7625601e-08
6.3495231e-07
-3.3344534e-08
5.8697789e-07
2.8358863e-07
2.6175054e-08
2.0696911e-07
5.0096137e-08
5.4934071e-07
4.8448388e-08
6.5462468e-07
3.9447799e-08
6.3568666e-07
3.3036034e-08
6.1186168e-07
2.8371611e-08
6.0057823e-07
2.4454001e-08
5.9398179e-07
2.1081551e-08
5.8912986e-07
1.8173298e-08
5.8544624e-07
1.5649963e-08
5.8263316e-07
1.3442363e-08
5.8046535e-07
1.1493273e-08
5.7878168e-07
9.7551277e-09
5.7746714e-07
8.1880869e-09
5.7643897e-07
6.7585678e-09
5.7563691e-07
5.4379729e-09
5.7501687e-07
4.2016022e-09
5.7454664e-07
3.0277295e-09
5.7420297e-07
1.8968051e-09
5.7396956e-07
7.907522e-10
5.7383571e-07
-3.076694e-10
5.7379549e-07
-1.4154593e-09
5.7384722e-07
-2.5499694e-09
5.739934e-07
-3.729507e-09
5.7424089e-07
-4.9739777e-09
5.7460144e-07
-6.3055998e-09
5.7509261e-07
-7.7497173e-09
5.7573929e-07
-9.335747e-09
5.7657583e-07
-1.1098286e-08
5.7764926e-07
-1.307838e-08
5.79024e-07
-1.5325172e-08
5.807891e-07
-1.7898021e-08
5.8306853e-07
-2.0866464e-08
5.8603558e-07
-2.4305821e-08
5.8992871e-07
-2.8351502e-08
5.9514173e-07
-3.3607004e-08
6.0337772e-07
-4.0976443e-08
6.2025005e-07
-4.4722435e-08
6.386983e-07
-2.8168933e-08
5.7042439e-07
2.554197e-07
2.0555686e-08
1.8641396e-07
4.4540555e-08
5.2535658e-07
4.6587361e-08
6.5257805e-07
3.9099074e-08
6.4317485e-07
3.30325e-08
6.1792821e-07
2.8667851e-08
6.0494288e-07
2.4990298e-08
5.9765935e-07
2.1758686e-08
5.9236147e-07
1.8917623e-08
5.882873e-07
1.6410988e-08
5.8513979e-07
1.4185227e-08
5.8269111e-07
1.2194107e-08
5.807728e-07
1.0397787e-08
5.7926346e-07
8.7618519e-09
5.780749e-07
7.2564881e-09
5.7714227e-07
5.8556674e-09
5.7641769e-07
4.5364102e-09
5.758659e-07
3.2781188e-09
5.7546126e-07
2.0619708e-09
5.751857e-07
8.7036184e-10
5.7502732e-07
-3.1361488e-10
5.7497947e-07
-1.5066645e-09
5.7504027e-07
-2.725788e-09
5.7521252e-07
-3.9887841e-09
5.7550389e-07
-5.3147733e-09
5.7592743e-07
-6.7247644e-09
5.7650261e-07
-8.2422715e-09
5.772568e-07
-9.8939991e-09
5.7822756e-07
-1.1710608e-08
5.7946587e-07
-1.3727512e-08
5.810409e-07
-1.5985781e-08
5.8304737e-07
-1.853335e-08
5.8561609e-07
-2.1423428e-08
5.8892566e-07
-2.4710172e-08
5.9321545e-07
-2.8539396e-08
5.9897096e-07
-3.3556142e-08
6.0839446e-07
-4.0038432e-08
6.2673234e-07
-4.1070968e-08
6.3973084e-07
-2.3377588e-08
5.5273101e-07
2.3204211e-07
1.5998861e-08
1.7041574e-07
3.9094801e-08
5.0226162e-07
4.4051487e-08
6.4762168e-07
3.8222953e-08
6.4900328e-07
3.2591023e-08
6.2356007e-07
2.8531019e-08
6.0900288e-07
2.5125448e-08
6.0106492e-07
2.2081149e-08
5.9540577e-07
1.9354197e-08
5.9101426e-07
1.6908443e-08
5.8758555e-07
1.4704849e-08
5.848947e-07
1.2707752e-08
5.827699e-07
1.0885175e-08
5.8108604e-07
9.2085285e-09
5.7975155e-07
7.652269e-09
5.7869853e-07
6.1934785e-09
5.7787648e-07
4.8114388e-09
5.7724793e-07
3.4872039e-09
5.7678549e-07
2.2031789e-09
5.7646973e-07
9.427111e-10
5.7628779e-07
-3.103065e-10
5.7623249e-07
-1.5718225e-09
5.7630178e-07
-2.8580193e-09
5.7649872e-07
-4.1857032e-09
5.7683157e-07
-5.572705e-09
5.7731443e-07
-7.0382937e-09
5.7796819e-07
-8.6036046e-09
5.7882211e-07
-1.0292077e-08
5.7991603e-07
-1.212991e-08
5.8130371e-07
-1.4146483e-08
5.8305747e-07
-1.6374713e-08
5.852756e-07
-1.885145e-08
5.8809283e-07
-2.1614962e-08
5.9168917e-07
-2.4705839e-08
5.9630633e-07
-2.8292167e-08
6.0255728e-07
-3.2998498e-08
6.1310079e-07
-3.8422709e-08
6.3215655e-07
-3.7113606e-08
6.3842173e-07
-1.9139751e-08
5.3475715e-07
2.1290236e-07
1.2405557e-08
1.5801093e-07
3.4057843e-08
4.806106e-07
4.116987e-08
6.4051018e-07
3.6997437e-08
6.5317563e-07
3.1865507e-08
6.2869189e-07
2.8095628e-08
6.1277274e-07
2.4962904e-08
6.0419765e-07
2.2126021e-08
5.9824265e-07
1.9539964e-08
5.9360031e-07
1.7184039e-08
5.8994147e-07
1.5031537e-08
5.870472e-07
1.3056073e-08
5.8474536e-07
1.1232934e-08
5.8290918e-07
9.5391879e-09
5.8144529e-07
7.9536378e-09
5.8028408e-07
6.456691e-09
5.7937343e-07
5.0301807e-09
5.7867444e-07
3.6571393e-09
5.7815853e-07
2.3215412e-09
5.7780533e-07
1.0080333e-09
5.776013e-07
-2.9834277e-10
5.7753886e-07
-1.6124298e-09
5.7761587e-07
-2.9492407e-09
5.7783553e-07
-4.3242405e-09
5.7820657e-07
-5.7536239e-09
5.7874382e-07
-7.25459e-09
5.7946916e-07
-8.8456011e-09
5.8041312e-07
-1.0546615e-08
5.8161704e-07
-1.2379294e-08
5.8313638e-07
-1.4367163e-08
5.8504534e-07
-1.6535644e-08
5.8744408e-07
-1.8911738e-08
5.9046892e-07
-2.1521096e-08
5.9429853e-07
-2.4397959e-08
5.9918319e-07
-2.7735593e-08
6.0589492e-07
-3.2076575e-08
6.1744178e-07
-3.6371313e-08
6.3645129e-07
-3.3151457e-08
6.3520188e-07
-1.5516936e-08
5.1712263e-07
1.9738542e-07
9.6371119e-09
1.4837469e-07
2.958187e-08
4.6066745e-07
3.8189029e-08
6.3190381e-07
3.5560522e-08
6.5580409e-07
3.0966886e-08
6.3328539e-07
2.7465811e-08
6.1627378e-07
2.4589034e-08
6.0707443e-07
2.1961896e-08
6.0086979e-07
1.9528627e-08
5.9603358e-07
1.7279136e-08
5.9219096e-07
1.5196717e-08
5.8912962e-07
1.3262706e-08
5.8667938e-07
1.1458683e-08
5.847132e-07
9.7668347e-09
5.8313714e-07
8.1700657e-09
5.8188085e-07
6.6520634e-09
5.8089143e-07
5.1972894e-09
5.8012922e-07
3.7909057e-09
5.7956492e-07
2.4186525e-09
5.7917758e-07
1.0666977e-09
5.7895325e-07
-2.7853453e-10
5.788841e-07
-1.6305427e-09
5.7896788e-07
-3.0029364e-09
5.7920792e-07
-4.4096168e-09
5.7961325e-07
-5.8649466e-09
5.8019915e-07
-7.3839031e-09
5.8098812e-07
-8.9822008e-09
5.8201142e-07
-1.0676367e-08
5.8331121e-07
-1.2483772e-08
5.8494379e-07
-1.4422618e-08
5.8698419e-07
-1.6511763e-08
5.8953323e-07
-1.8769818e-08
5.9272698e-07
-2.1212473e-08
5.9674118e-07
-2.3873776e-08
6.0184449e-07
-2.6968235e-08
6.0898938e-07
-3.0908321e-08
6.2138186e-07
-3.4088209e-08
6.3963118e-07
-2.9389457e-08
6.3050312e-07
-1.2504361e-08
5.0023753e-07
1.8488106e-07
7.5446807e-09
1.4083104e-07
2.5714441e-08
4.4249968e-07
3.5279683e-08
6.2233967e-07
3.4021878e-08
6.5706192e-07
2.9977898e-08
6.3732919e-07
2.6721305e-08
6.1953032e-07
2.4073303e-08
6.0972243e-07
2.1646356e-08
6.0329674e-07
1.9367288e-08
5.9831265e-07
1.7231627e-08
5.9432662e-07
1.5230383e-08
5.9113087e-07
1.3351081e-08
5.8855868e-07
1.1580509e-08
5.8648377e-07
9.9052543e-09
5.848124e-07
8.3118986e-09
5.8347421e-07
6.787185e-09
5.8241614e-07
5.3181198e-09
5.8159828e-07
3.8920052e-09
5.8099103e-07
2.4964192e-09
5.8057317e-07
1.11916e-09
5.8033051e-07
-2.5183558e-10
5.8025509e-07
-1.6285863e-09
5.8034463e-07
-3.0231691e-09
5.8060251e-07
-4.447813e-09
5.810379e-07
-5.9149792e-09
5.8166631e-07
-7.4374155e-09
5.8251055e-07
-9.0281755e-09
5.8360218e-07
-1.0700584e-08
5.8498362e-07
-1.2468145e-08
5.8671135e-07
-1.4344423e-08
5.8886046e-07
-1.6342738e-08
5.9153154e-07
-1.8474843e-08
5.9485908e-07
-2.074944e-08
5.9901578e-07
-2.3205425e-08
6.0430048e-07
-2.6070138e-08
6.1185409e-07
-2.9594558e-08
6.2490628e-07
-3.173483e-08
6.4177145e-07
-2.5949745e-08
6.2471804e-07
-1.0055267e-08
4.8434306e-07
1.7482579e-07
5.9876758e-09
1.3484458e-07
2.2433686e-08
4.2605609e-07
3.254354e-08
6.1223131e-07
3.2461744e-08
6.5714385e-07
2.8958366e-08
6.4083235e-07
2.5922005e-08
6.225666e-07
2.3470806e-08
6.1217363e-07
2.1226767e-08
6.0554079e-07
1.9095944e-08
6.0044347e-07
1.7074777e-08
5.9634779e-07
1.5159758e-08
5.9304589e-07
1.3343153e-08
5.9037528e-07
1.1615868e-08
5.8821105e-07
9.968122e-09
5.8646014e-07
8.3896557e-09
5.8505267e-07
6.869941e-09
5.8393586e-07
5.3983387e-09
5.8306989e-07
3.9641985e-09
5.8242517e-07
2.5569107e-09
5.8198045e-07
1.1659211e-09
5.817215e-07
-2.1927996e-10
5.8164029e-07
-1.6091832e-09
5.8173453e-07
-3.0142932e-09
5.8200762e-07
-4.4451525e-09
5.8246876e-07
-5.9123497e-09
5.8313351e-07
-7.4265013e-09
5.840247e-07
-8.9981958e-09
5.8517387e-07
-1.0637888e-08
5.8662331e-07
-1.235574e-08
5.884292e-07
-1.4161441e-08
5.9066617e-07
-1.6063833e-08
5.9343394e-07
-1.8069395e-08
5.9686465e-07
-2.0182906e-08
6.0112929e-07
-2.2451597e-08
6.0656917e-07
-2.5104563e-08
6.1450705e-07
-2.821562e-08
6.2801734e-07
-2.9425145e-08
6.4298098e-07
-2.2887391e-08
6.1818028e-07
-8.1011176e-09
4.6955678e-07
1.6672468e-07
4.8433875e-09
1.3000265e-07
1.9680977e-08
4.1122143e-07
3.0028716e-08
6.0188553e-07
3.0932251e-08
6.5624062e-07
2.7947509e-08
6.4381685e-07
2.5109914e-08
6.2540408e-07
2.2823415e-08
6.1446012e-07
2.0740954e-08
6.0762325e-07
1.8747666e-08
6.0243676e-07
1.6836956e-08
5.982585e-07
1.5008747e-08
5.948741e-07
1.3258731e-08
5.921253e-07
1.1580915e-08
5.8988887e-07
9.9683888e-09
5.8807267e-07
8.4135086e-09
5.8660755e-07
6.9080953e-09
5.8544127e-07
5.4436099e-09
5.8453437e-07
4.011288e-09
5.8385749e-07
2.6022355e-09
5.8338951e-07
1.2074923e-09
5.8311624e-07
-1.819275e-10
5.8302971e-07
-1.5750089e-09
5.8312761e-07
-2.9807158e-09
5.8341332e-07
-4.4079612e-09
5.83896e-07
-5.8655643e-09
5.8459111e-07
-7.3621798e-09
5.8552132e-07
-8.9061954e-09
5.8671789e-07
-1.0505589e-08
5.882227e-07
-1.2167742e-08
5.9009135e-07
-1.3899253e-08
5.9239768e-07
-1.5705514e-08
5.952402e-07
-1.7589262e-08
5.987484e-07
-1.9554136e-08
6.0309416e-07
-2.1657372e-08
6.0867241e-07
-2.4117909e-08
6.1696759e-07
-2.6829969e-08
6.307294e-07
-2.7231014e-08
6.4338202e-07
-2.0211581e-08
6.1116085e-07
-6.5662002e-09
4.559114e-07
1.6015848e-07
4.0094583e-09
1.2599492e-07
1.7383767e-08
3.9785065e-07
2.7749023e-08
5.9152279e-07
2.9463803e-08
6.5452637e-07
2.6968239e-08
6.4631215e-07
2.4311918e-08
6.2806024e-07
2.2160998e-08
6.1661102e-07
2.021775e-08
6.0956651e-07
1.8348807e-08
6.0430571e-07
1.6541597e-08
6.0006571e-07
1.4797699e-08
5.9661799e-07
1.3115128e-08
5.9380787e-07
1.1490104e-08
5.9151389e-07
9.917888e-09
5.8964488e-07
8.3929229e-09
5.8813252e-07
6.9089868e-09
5.8692521e-07
5.4593563e-09
5.85984e-07
4.0369496e-09
5.852799e-07
2.6344441e-09
5.8479201e-07
1.2443694e-09
5.8450632e-07
-1.4081891e-10
5.844149e-07
-1.5286753e-09
5.8451547e-07
-2.9267075e-09
5.8481135e-07
-4.3423091e-09
5.853116e-07
-5.782681e-09
5.8603148e-07
-7.254731e-09
5.8699337e-07
-8.7649464e-09
5.882281e-07
-1.031924e-08
5.89777e-07
-1.1922773e-08
5.9169489e-07
-1.3579782e-08
5.9405469e-07
-1.5293145e-08
5.9695356e-07
-1.7063223e-08
6.0051847e-07
-1.8894787e-08
6.0492572e-07
-2.0855117e-08
6.1063274e-07
-2.314181e-08
6.1925429e-07
-2.5477059e-08
6.3306465e-07
-2.5191943e-08
6.4309691e-07
-1.7903619e-08
6.0387253e-07
-5.3761037e-09
4.4338389e-07
1.5478237e-07
3.4032213e-09
1.2259377e-07
1.5468184e-08
3.8578989e-07
2.5697694e-08
5.8129645e-07
2.807159e-08
6.5215329e-07
2.6032123e-08
6.4835135e-07
2.3543584e-08
6.3054856e-07
2.1503575e-08
6.1865099e-07
1.9678117e-08
6.1139197e-07
1.7919555e-08
6.0606427e-07
1.6207395e-08
6.0177787e-07
1.4543406e-08
5.9828198e-07
1.2927033e-08
5.9542424e-07
1.1355989e-08
5.9308494e-07
9.8271056e-09
5.9117377e-07
8.336432e-09
5.8962319e-07
6.8793276e-09
5.8838231e-07
5.4505948e-09
5.8741273e-07
4.0446128e-09
5.8668588e-07
2.6554588e-09
5.8618116e-07
1.2770144e-09
5.8588476e-07
-9.6941458e-11
5.8578886e-07
-1.4726431e-09
5.8589117e-07
-2.8562651e-09
5.8619498e-07
-4.2538241e-09
5.8670916e-07
-5.6710841e-09
5.8744874e-07
-7.1134414e-09
5.8843573e-07
-8.585791e-09
5.8970045e-07
-1.0092382e-08
5.9128359e-07
-1.1636667e-08
5.9323917e-07
-1.3221165e-08
5.9563918e-07
-1.4847036e-08
5.9857943e-07
-1.6513426e-08
6.0218486e-07
-1.8227952e-08
6.0664025e-07
-2.0066695e-08
6.1247148e-07
-2.2196397e-08
6.2138399e-07
-2.4181433e-08
6.3504968e-07
-2.3324516e-08
6.4223999e-07
-1.5929376e-08
5.9647739e-07
-4.4623976e-09
4.3191691e-07
1.5031998e-07
2.9600589e-09
1.1963616e-07
1.3865705e-08
3.7488923e-07
2.3856721e-08
5.7130938e-07
2.6760525e-08
6.4925068e-07
2.5143235e-08
6.499684e-07
2.2812599e-08
6.3287893e-07
2.0863694e-08
6.2059984e-07
1.913666e-08
6.1311901e-07
1.7474843e-08
6.0772609e-07
1.584881e-08
6.034039e-07
1.4259319e-08
5.9987147e-07
1.270656e-08
5.96977e-07
1.1189178e-08
5.9460232e-07
9.7050847e-09
5.9265786e-07
8.2515202e-09
5.9107676e-07
6.8250859e-09
5.8980875e-07
5.4218348e-09
5.8881598e-07
4.0373841e-09
5.8807033e-07
2.667028e-09
5.8755152e-07
1.3058452e-09
5.8724595e-07
-5.120381e-11
5.871459e-07
-1.4091623e-09
5.8724913e-07
-2.7730195e-09
5.8755883e-07
-4.1475742e-09
5.8808372e-07
-5.5373469e-09
5.8883852e-07
-6.9464603e-09
5.8984484e-07
-8.378513e-09
5.911325e-07
-9.836456e-09
5.9274153e-07
-1.1322484e-08
5.947252e-07
-1.2837932e-08
5.9715463e-07
-1.4382896e-08
6.0012439e-07
-1.5956273e-08
6.0375824e-07
-1.7569668e-08
6.0825364e-07
-1.9305826e-08
6.1420764e-07
-2.1293161e-08
6.2337132e-07
-2.2956251e-08
6.3671277e-07
-2.1629657e-08
6.4091339e-07
-1.4247677e-08
5.8909541e-07
-3.7651778e-09
4.2143441e-07
1.465548e-07
2.6311476e-09
1.1700792e-07
1.2516535e-08
3.6500975e-07
2.2203206e-08
5.6162755e-07
2.5529004e-08
6.4592653e-07
2.4300857e-08
6.5119636e-07
2.2121321e-08
6.3505814e-07
2.0248441e-08
6.2247263e-07
1.8603068e-08
6.1476439e-07
1.7025362e-08
6.0930381e-07
1.5476713e-08
6.0495255e-07
1.3955943e-08
6.0139224e-07
1.2463459e-08
5.9846948e-07
1.0998422e-08
5.9606736e-07
9.5594367e-09
5.9409685e-07
8.1445925e-09
5.924916e-07
6.7514386e-09
5.912019e-07
5.377029e-09
5.9019039e-07
4.018007e-09
5.8942935e-07
2.6707022e-09
5.8889883e-07
1.3312312e-09
5.8858542e-07
-4.4003772e-12
5.8848154e-07
-1.3402346e-09
5.8858496e-07
-2.6801826e-09
5.8889878e-07
-4.0280039e-09
5.8943154e-07
-5.3871697e-09
5.9019768e-07
-6.7607553e-09
5.9121843e-07
-8.1513328e-09
5.9252308e-07
-9.560876e-09
5.9415107e-07
-1.0990696e-08
5.9615502e-07
-1.2441378e-08
5.9860531e-07
-1.3912473e-08
6.0159549e-07
-1.5403394e-08
6.0524916e-07
-1.6930362e-08
6.0978061e-07
-1.858006e-08
6.1585733e-07
-2.0437209e-08
6.2522847e-07
-2.1806318e-08
6.3808188e-07
-2.0098421e-08
6.392055e-07
-1.2815919e-08
5.818129e-07
-3.2340449e-09
4.1185253e-07
1.4332075e-07
2.3807623e-09
1.146306e-07
1.1370706e-08
3.5602677e-07
2.071344e-08
5.522907e-07
2.4371787e-08
6.422704e-07
2.3501477e-08
6.5206657e-07
2.1468672e-08
6.3709055e-07
1.9661001e-08
6.2428018e-07
1.8083321e-08
6.1634206e-07
1.6578457e-08
6.1080868e-07
1.5099042e-08
6.0643197e-07
1.364128e-08
6.0285e-07
1.22054e-08
5.9990536e-07
1.079078e-08
5.9748198e-07
9.3964291e-09
5.954912e-07
8.0210112e-09
5.9386702e-07
6.6627774e-09
5.9256013e-07
5.3195648e-09
5.9153361e-07
3.9888495e-09
5.9076007e-07
2.6678236e-09
5.9021985e-07
1.3534807e-09
5.8989976e-07
4.2708833e-11
5.8979231e-07
-1.2676106e-09
5.8989528e-07
-2.5805302e-09
5.902117e-07
-3.8989198e-09
5.9074993e-07
-5.2253785e-09
5.9152414e-07
-6.5621405e-09
5.9255519e-07
-7.9109883e-09
5.9387193e-07
-9.273189e-09
5.9551327e-07
-1.0649474e-08
5.975313e-07
-1.2040011e-08
5.9999585e-07
-1.3444206e-08
6.0299968e-07
-1.486257e-08
6.0666753e-07
-1.6316099e-08
6.1123414e-07
-1.7892416e-08
6.1743365e-07
-1.9629156e-08
6.2696521e-07
-2.0730752e-08
6.3918348e-07
-1.8716512e-08
6.3719126e-07
-1.1593787e-08
5.7469018e-07
-2.8279859e-09
4.0308673e-07
1.4049277e-07
2.1835373e-09
1.1245114e-07
1.0387712e-08
3.4783078e-07
1.9365202e-08
5.4332032e-07
2.3282051e-08
6.3835646e-07
2.2740267e-08
6.5260839e-07
2.0851565e-08
6.3897879e-07
1.9101911e-08
6.2602967e-07
1.7580672e-08
6.1786329e-07
1.61389e-08
6.1225046e-07
1.4721387e-08
6.0784948e-07
1.3321258e-08
6.0425013e-07
1.1938273e-08
6.0128835e-07
1.0571826e-08
5.9884842e-07
9.2211159e-09
5.9684191e-07
7.8851739e-09
5.9520296e-07
6.5627525e-09
5.9388256e-07
5.2522862e-09
5.9284407e-07
3.9519144e-09
5.9206044e-07
2.6595349e-09
5.9151223e-07
1.3728742e-09
5.9118642e-07
8.9568238e-11
5.9107561e-07
-1.192758e-09
5.9117761e-07
-2.4764033e-09
5.9149535e-07
-3.7635073e-09
5.9203703e-07
-5.055966e-09
5.928166e-07
-6.3553551e-09
5.9385458e-07
-7.6628683e-09
5.9517944e-07
-8.9792866e-09
5.9682969e-07
-1.0304996e-08
5.9885701e-07
-1.1639997e-08
6.0133085e-07
-1.2983845e-08
6.0434353e-07
-1.4338556e-08
6.0802224e-07
-1.5729693e-08
6.1262528e-07
-1.7242772e-08
6.1894673e-07
-1.8866701e-08
6.2858914e-07
-1.9725188e-08
6.4004196e-07
-1.7467442e-08
6.3493351e-07
-1.0545298e-08
5.6776804e-07
-2.5145541e-09
3.9505599e-07
1.3797821e-07
2.0220006e-09
1.1043397e-07
9.5353907e-09
3.4032701e-07
1.8138793e-08
5.3472542e-07
2.2252671e-08
6.3424632e-07
2.2012055e-08
6.5284925e-07
2.0265927e-08
6.4072441e-07
1.8570024e-08
6.2772535e-07
1.7096455e-08
6.1933684e-07
1.5709539e-08
6.1363738e-07
1.4347506e-08
6.0921152e-07
1.300013e-08
6.0559751e-07
1.1666488e-08
6.0262199e-07
1.0345859e-08
6.0016905e-07
9.0374877e-09
5.9815028e-07
7.7406152e-09
5.9649983e-07
6.4543378e-09
5.9516883e-07
5.1775353e-09
5.9412088e-07
3.908864e-09
5.9332911e-07
2.6467887e-09
5.9277431e-07
1.3896349e-09
5.9244357e-07
1.3565357e-10
5.923296e-07
-1.1169077e-09
5.9243017e-07
-2.369735e-09
5.9274817e-07
-3.6243734e-09
5.9329167e-07
-4.8821609e-09
5.9407439e-07
-6.1441705e-09
5.9511659e-07
-7.4111723e-09
5.9644644e-07
-8.6836345e-09
5.9810215e-07
-9.9617748e-09
6.0013515e-07
-1.1245597e-08
6.0261467e-07
-1.2535022e-08
6.0563296e-07
-1.3833825e-08
6.0932104e-07
-1.5171647e-08
6.139631e-07
-1.6628986e-08
6.2040407e-07
-1.8145853e-08
6.3010601e-07
-1.8783387e-08
6.406795e-07
-1.6334466e-08
6.3248459e-07
-9.6392847e-09
5.6107285e-07
-2.2686447e-09
3.8768535e-07
1.3570957e-07
1.8844933e-09
1.0855519e-07
8.7885709e-09
3.3343419e-07
1.7017333e-08
5.2650679e-07
2.1276922e-08
6.2999146e-07
2.1311898e-08
6.5281479e-07
1.9707371e-08
6.4232837e-07
1.8063211e-08
6.2936923e-07
1.6630713e-08
6.207693e-07
1.5291837e-08
6.1497627e-07
1.3979768e-08
6.1052359e-07
1.2680827e-08
6.0689645e-07
1.1393251e-08
6.0390957e-07
1.0116117e-08
6.0144619e-07
8.8486271e-09
5.9941777e-07
7.5901181e-09
5.9775834e-07
6.3399097e-09
5.9641904e-07
5.0972038e-09
5.9536358e-07
3.8610516e-09
5.9456526e-07
2.6303648e-09
5.9400499e-07
1.4039502e-09
5.9366999e-07
1.8055876e-10
5.9355299e-07
-1.0410573e-09
5.9365179e-07
-2.2620877e-09
5.939692e-07
-3.4836047e-09
5.9451319e-07
-4.7065134e-09
5.9529729e-07
-5.9315126e-09
5.9634159e-07
-7.1590811e-09
5.9767401e-07
-8.3895055e-09
5.9933258e-07
-9.6229594e-09
6.0136861e-07
-1.0859568e-08
6.0385128e-07
-1.2099761e-08
6.0687315e-07
-1.3349204e-08
6.1057048e-07
-1.4640921e-08
6.1525482e-07
-1.6047732e-08
6.2181088e-07
-1.7461801e-08
6.3152008e-07
-1.7898357e-08
6.4111605e-07
-1.5301769e-08
6.29888e-07
-8.8495185e-09
5.546206e-07
-2.0712881e-09
3.8090712e-07
1.3363828e-07
1.7634859e-09
1.0679848e-07
8.1277155e-09
3.2708314e-07
1.5986641e-08
5.1865986e-07
2.034881e-08
6.2563519e-07
2.0635367e-08
6.525291e-07
1.9171598e-08
6.4379153e-07
1.7578844e-08
6.3096163e-07
1.6182659e-08
6.2216543e-07
1.4886282e-08
6.1627266e-07
1.3619516e-08
6.1179037e-07
1.2365263e-08
6.081507e-07
1.1120805e-08
6.0515402e-07
9.8849702e-09
6.0268202e-07
8.6568588e-09
6.0064588e-07
7.435827e-09
5.9897937e-07
6.2213286e-09
5.9763354e-07
5.0127903e-09
5.9657212e-07
3.8095587e-09
5.957685e-07
2.6108914e-09
5.9520366e-07
1.4159755e-09
5.948649e-07
2.2396093e-10
5.94745e-07
-9.6599719e-10
5.9484175e-07
-2.1546938e-09
5.951579e-07
-3.3428319e-09
5.9570132e-07
-4.5309877e-09
5.9648545e-07
-5.7195899e-09
5.9753019e-07
-6.9089274e-09
5.9886335e-07
-8.0992013e-09
6.0052285e-07
-9.2906245e-09
6.0256003e-07
-1.0483517e-08
6.0504417e-07
-1.1678908e-08
6.0806854e-07
-1.2884381e-08
6.1177595e-07
-1.4135507e-08
6.1650594e-07
-1.5495109e-08
6.2317048e-07
-1.680951e-08
6.3283448e-07
-1.7063085e-08
6.4136963e-07
-1.4355092e-08
6.2718001e-07
-8.1543832e-09
5.4841989e-07
-1.9084818e-09
3.7466122e-07
1.317298e-07
1.6542693e-09
1.0515224e-07
7.5377018e-09
3.2121512e-07
1.5034926e-08
5.1117679e-07
1.9463165e-08
6.2121423e-07
1.9978658e-08
6.5201493e-07
1.865462e-08
6.4511494e-07
1.7114108e-08
6.3250171e-07
1.5751002e-08
6.2352845e-07
1.4492701e-08
6.1753096e-07
1.326735e-08
6.1301572e-07
1.2054585e-08
6.0936347e-07
1.0850651e-08
6.0635796e-07
9.6540947e-09
6.0387858e-07
8.4638872e-09
6.0183609e-07
7.2793549e-09
6.0016391e-07
6.1000194e-09
5.9881287e-07
4.9254584e-09
5.9774668e-07
3.7552337e-09
5.9693872e-07
2.588866e-09
5.9637003e-07
1.4258375e-09
5.9602793e-07
2.6561159e-10
5.9590523e-07
-8.9233969e-10
5.959997e-07
-2.048503e-09
5.9631406e-07
-3.2032979e-09
5.9685612e-07
-4.3570556e-09
5.9763921e-07
-5.5100166e-09
5.9868315e-07
-6.662356e-09
6.0001569e-07
-7.814255e-09
6.0167475e-07
-8.9660172e-09
6.0371179e-07
-1.0118198e-08
6.0619635e-07
-1.1272477e-08
6.0922282e-07
-1.2438298e-08
6.1294178e-07
-1.3652866e-08
6.1772051e-07
-1.4967056e-08
6.2448467e-07
-1.6184112e-08
6.3405153e-07
-1.6270993e-08
6.4145651e-07
-1.3481978e-08
6.2439099e-07
-7.5363394e-09
5.4247426e-07
-1.7701145e-09
3.6889499e-07
1.2995969e-07
1.5539853e-09
1.0360774e-07
7.0067867e-09
3.1578032e-07
1.4152398e-08
5.040478e-07
1.86156e-08
6.1675991e-07
1.9338585e-08
6.5129384e-07
1.8152859e-08
6.4630005e-07
1.6666197e-08
6.3398785e-07
1.5334173e-08
6.2486035e-07
1.4110487e-08
6.1875466e-07
1.2923347e-08
6.1420287e-07
1.1749374e-08
6.1053745e-07
1.0583715e-08
6.0752362e-07
9.4246201e-09
6.0503767e-07
8.2709199e-09
6.0298979e-07
7.1218807e-09
6.0131295e-07
5.9770469e-09
5.9995771e-07
4.8360913e-09
5.9888764e-07
3.6987283e-09
5.9807608e-07
2.5646747e-09
5.9750408e-07
1.4336384e-09
5.9715897e-07
3.0532528e-10
5.9703354e-07
-8.2054702e-10
5.9712557e-07
-1.9442282e-09
5.9743775e-07
-3.0659234e-09
5.9797781e-07
-4.1857858e-09
5.9875907e-07
-5.3039292e-09
5.9980129e-07
-6.4204688e-09
6.0113223e-07
-7.5356086e-09
6.0278989e-07
-8.6497692e-09
6.0482595e-07
-9.7637584e-09
6.0731034e-07
-1.0879929e-08
6.1033899e-07
-1.2009456e-08
6.140713e-07
-1.3190233e-08
6.1890129e-07
-1.4459633e-08
6.2575407e-07
-1.5581138e-08
6.3517304e-07
-1.5516162e-08
6.4139153e-07
-1.2671775e-08
6.2154661e-07
-6.9813122e-09
5.3678379e-07
-1.6490343e-09
3.6356271e-07
1.2831065e-07
1.4609378e-09
1.0215802e-07
6.525775e-09
3.1073653e-07
1.3330888e-08
4.9726215e-07
1.7802397e-08
6.1229917e-07
1.871252e-08
6.5038634e-07
1.7663172e-08
6.4734882e-07
1.6232428e-08
6.3541797e-07
1.4930478e-08
6.2616213e-07
1.3738766e-08
6.1994637e-07
1.2587228e-08
6.1535442e-07
1.1449797e-08