/*--------------------------------*- C++ -*----------------------------------*\
  =========                 |
  \\      /  F ield         | OpenFOAM: The Open Source CFD Toolbox
   \\    /   O peration     | Website:  https://openfoam.org
    \\  /    A nd           | Version:  10
     \\/     M anipulation  |
\*---------------------------------------------------------------------------*/
FoamFile
{
    format      ascii;
    class       volScalarField;
    location    "0.14";
    object      TporMedia;
}
// * * * * * * * * * * * * * * * * * * * * * * * * * * * * * * * * * * * * * //

dimensions      [0 0 0 1 0 0 0];

internalField   nonuniform List<scalar> 
4000
(
-3.0795116e-05
1.3234802e-05
0.00024875195
0.00019151523
0.0001580392
0.00019132636
0.00018148532
0.00018261287
0.00015823894
0.00019578195
0.00018656395
0.00017869147
0.00016898608
0.00018485632
0.00019494913
0.00018143047
0.00018682749
0.0001848122
0.00018528912
0.00016996287
0.00018849658
0.00021398718
0.00017562774
0.00018476297
0.0001751762
0.00017016006
0.00020107681
0.00018446241
0.00019631609
0.00017931999
0.00016682757
0.00017824155
0.00019207923
0.00017583352
0.00019202372
0.00018306728
0.00017018152
0.00017868933
0.00016033448
0.0001843253
-2.5113683e-06
9.4644201e-14
5.3246579e-12
8.7314293e-11
5.7430846e-11
5.8270398e-11
5.8823477e-11
5.423976e-11
5.0387313e-11
6.1733636e-11
5.5633211e-11
5.7472663e-11
5.2095673e-11
5.7074317e-11
6.2104936e-11
5.3921355e-11
4.9224774e-11
6.514666e-11
7.2422966e-11
5.4912319e-11
6.2079165e-11
6.7062442e-11
5.1569856e-11
5.3862918e-11
5.9048265e-11
5.2112344e-11
7.056279e-11
6.0888582e-11
7.2398864e-11
5.6454194e-11
4.3953049e-11
5.6645414e-11
8.0918454e-11
4.6254004e-11
5.4108057e-11
4.7226689e-11
4.9009586e-11
5.8662359e-11
5.1130122e-11
6.0059877e-11
-1.020969e-06
-3.069507e-14
3.4267293e-20
5.7997955e-18
2.0907101e-16
2.2573301e-17
1.9549973e-17
1.6573034e-17
2.0676789e-17
2.0220271e-17
1.4906374e-17
1.7809704e-17
1.6230153e-17
1.933499e-17
1.7115765e-17
1.3734743e-17
1.7029083e-17
1.8269109e-17
2.2439049e-17
2.2655186e-17
1.8926008e-17
2.1262812e-17
1.4391325e-17
1.6396743e-17
2.2684537e-17
1.4249268e-17
1.8331516e-17
1.8108628e-17
2.5364943e-17
1.7033529e-17
1.4028994e-17
1.6814652e-17
2.3109192e-17
1.3973242e-17
1.486019e-17
1.8251918e-17
1.475558e-17
1.9730759e-17
1.7873212e-17
1.8530999e-17
-5.5467703e-07
1.7991619e-15
6.1614133e-24
8.4919288e-26
-7.7317111e-23
2.0531665e-23
5.7635604e-24
5.5212043e-24
5.6071269e-24
7.4794529e-24
4.8998143e-24
5.6311959e-24
5.3065305e-24
6.3656571e-24
6.2133344e-24
4.3323776e-24
5.7933414e-24
5.7788517e-24
6.6252104e-24
7.2741332e-24
6.6968467e-24
7.0831696e-24
4.8370486e-24
5.8467147e-24
6.6946524e-24
5.6038942e-24
5.8673224e-24
5.8927424e-24
8.4094412e-24
5.6335004e-24
3.9833353e-24
5.9954276e-24
7.826433e-24
4.1997052e-24
4.3288742e-24
7.1227985e-24
4.1970228e-24
6.6338745e-24
5.4606202e-24
5.431201e-24
-3.5395507e-07
3.5784424e-16
9.5343556e-25
5.6640706e-33
-1.8829838e-29
-1.9126668e-29
2.3474442e-30
1.8824653e-30
1.8488129e-30
2.1774993e-30
1.6743205e-30
1.6917403e-30
2.2937224e-30
1.6929101e-30
2.1123949e-30
1.5228959e-30
1.5573464e-30
1.8455719e-30
1.9753519e-30
2.7845964e-30
1.8166525e-30
2.1780675e-30
1.8248586e-30
1.9531279e-30
2.1317348e-30
1.7922883e-30
1.8588164e-30
1.7360947e-30
2.6919129e-30
1.6136993e-30
1.3725259e-30
2.168126e-30
2.2270958e-30
1.2872088e-30
1.4337536e-30
2.47855e-30
1.0913157e-30
2.246762e-30
1.4348134e-30
1.6824041e-30
-2.5064516e-07
1.2255536e-16
4.0437795e-25
1.1027089e-33
-5.2724575e-37
5.8179578e-36
8.1439392e-37
2.0120518e-36
5.5412284e-37
1.3698295e-36
5.387972e-37
6.0334506e-37
9.3737767e-37
5.8025702e-37
4.427609e-37
4.1715874e-37
4.9437352e-37
1.1354412e-36
6.6052698e-37
9.9184432e-37
5.2154579e-37
7.1687577e-37
7.1733841e-37
8.9132755e-37
6.4960528e-37
9.5356351e-37
6.8801267e-37
6.3558974e-37
8.5487188e-37
4.8942578e-37
4.3336504e-37
5.9857974e-37
7.2449156e-37
3.9767724e-37
4.7441673e-37
8.6060424e-37
3.5595861e-37
7.5123634e-37
4.7712628e-37
4.9452158e-37
-1.9093512e-07
5.4836507e-17
-2.2495129e-24
-3.7878645e-33
-3.3768946e-41
-8.8578572e-43
-2.5742919e-42
4.3811629e-42
3.3884695e-43
4.1547328e-42
1.626369e-43
2.193577e-43
-5.1842016e-42
9.438024e-44
-1.2308059e-42
1.4181811e-43
2.6377064e-43
1.5329561e-42
8.5807454e-44
1.5906591e-43
-1.6965434e-43
2.0255286e-43
2.8411585e-43
1.6744898e-43
2.8533514e-43
1.0603388e-42
1.6161233e-43
2.110114e-43
3.1163899e-43
1.7537676e-43
1.3573725e-43
1.9642531e-43
2.8146009e-43
1.4161878e-43
1.7752722e-43
2.5002913e-43
1.5525599e-43
3.107571e-43
1.8281183e-43
1.4326953e-43
-1.5326996e-07
2.894096e-17
-4.1806254e-26
-5.0873092e-35
-2.0361091e-43
2.099702e-49
-1.7494023e-48
-5.3107052e-47
-6.7335865e-49
-1.1737175e-47
2.2640262e-49
-1.4780525e-49
-1.4128768e-47
-2.6058069e-49
-2.6893822e-48
-2.5712442e-50
5.7602992e-49
-5.4772679e-48
-3.9956899e-48
-1.697936e-48
-3.670632e-49
1.9145722e-49
3.8226508e-51
-1.5773506e-49
-3.9965822e-49
6.1579864e-48
-5.0062952e-50
2.72746e-49
2.8677365e-49
1.0571298e-49
7.3131146e-50
3.3993132e-50
2.1765821e-49
6.0516354e-50
1.3094996e-49
4.5680452e-49
4.0262374e-49
1.8293662e-49
2.4523571e-49
4.36821e-50
-1.2737835e-07
1.7037158e-17
-9.6426453e-27
-9.7167654e-36
-2.1293217e-44
-1.4485781e-51
3.422454e-55
-3.4188377e-52
1.578166e-54
-3.2084452e-52
-3.1020984e-55
-9.039071e-55
2.7238946e-53
-9.3332783e-55
-1.0065955e-53
-6.9937324e-55
2.0532143e-54
1.3784028e-53
-2.0956197e-53
-4.3677723e-54
5.3555287e-55
-1.6930744e-54
-1.8512475e-55
-1.2220393e-54
-1.9792496e-54
-3.4399376e-53
-2.8624843e-55
1.4364629e-54
4.1497086e-55
1.1656766e-55
7.3694455e-56
-7.2789911e-56
3.2860584e-55
1.3806134e-55
1.6897123e-55
1.7734187e-54
-1.1074859e-54
-3.1267172e-54
5.056139e-55
1.4670462e-56
-1.0799599e-07
1.0767146e-17
-3.2563042e-27
-3.1339109e-36
-4.2767027e-45
-6.193838e-53
2.3151412e-60
2.8086262e-57
-4.5773171e-60
2.6867546e-57
-1.2984619e-60
1.4378506e-59
-7.5444613e-58
6.2619234e-60
1.5254026e-59
-4.6403242e-60
4.048728e-60
7.9907949e-59
1.7735379e-59
1.1154863e-59
-2.0424112e-60
-3.8632013e-60
9.8878942e-61
2.5577455e-60
-7.7731124e-59
-1.9833133e-58
8.5465332e-61
-6.5107319e-60
-1.718439e-60
4.5487686e-61
4.6290125e-61
9.2729599e-61
-1.1111043e-60
6.0441213e-61
1.9722059e-61
4.7254087e-60
-6.0524215e-60
1.2380915e-59
3.4334417e-60
5.4834307e-63
-9.219772e-08
7.1039008e-18
-1.3240401e-27
-1.484922e-36
-1.3899147e-45
-8.222342e-54
2.5523011e-61
3.5544656e-64
-1.9256358e-65
-7.1564405e-63
2.0106031e-64
3.1964616e-64
3.0601389e-63
4.3999498e-65
-3.7137571e-65
1.3611501e-64
7.4833265e-65
5.0960334e-64
-1.3504378e-64
-9.4485887e-63
-1.2266461e-65
1.2350354e-65
4.0830112e-65
7.9813294e-66
-5.176781e-64
-3.3521096e-63
4.0041931e-65
2.0822814e-65
9.2937479e-64
1.736508e-66
1.0275974e-66
-1.3899978e-65
-3.6746707e-66
1.2505149e-66
-2.0954848e-67
1.0334202e-65
-8.393127e-66
6.9738734e-65
3.1274533e-65
1.8654699e-69
-7.8608739e-08
4.8027016e-18
-6.0065034e-28
-1.2542442e-36
-8.6892136e-46
-2.6781464e-54
8.6429625e-62
-5.4721612e-69
-1.2881322e-70
1.2266259e-68
1.9420979e-69
-3.8459021e-70
-1.3833363e-68
-1.4087981e-70
2.8379543e-70
-3.1218586e-70
-1.7204024e-70
-2.4168514e-69
2.8561592e-70
-1.5408979e-67
6.729192e-71
-1.874548e-71
-2.2423432e-70
4.7359597e-71
8.6068288e-70
6.1065542e-69
-1.5039234e-69
2.0398768e-69
8.0085858e-69
4.9340849e-72
6.5047832e-72
1.7811031e-71
5.0958546e-71
2.3132496e-72
-1.4022593e-72
2.2255108e-71
-1.5068886e-71
1.512719e-70
1.5247651e-69
1.1745189e-75
-6.6666375e-08
3.2901189e-18
-2.9213926e-28
1.0667062e-36
5.8250889e-46
1.0688699e-54
-7.7148799e-62
2.7052918e-69
5.1249729e-76
-7.0152308e-74
-4.0586302e-75
3.6061199e-75
3.8893565e-73
3.8495047e-76
-8.45729e-76
6.7819949e-76
1.056166e-74
-1.9188533e-74
-8.4863784e-76
1.5116377e-72
2.2411869e-76
3.4103891e-76
8.1662135e-76
-5.4694175e-77
2.8349014e-74
3.3925388e-74
-5.2442164e-75
-1.9345272e-74
1.803158e-73
2.6165735e-77
2.6697519e-77
-5.188342e-76
-2.0047825e-74
6.8323985e-78
-2.2880417e-77
-1.0926257e-76
2.815338e-76
4.6327253e-76
-3.269427e-74
-1.1596418e-80
-5.6238001e-08
2.2723922e-18
-1.491262e-28
1.0336568e-37
4.7035258e-47
5.6097942e-56
2.1928559e-63
-5.4100949e-71
1.0487804e-77
-6.3288638e-79
2.001671e-80
-5.3049122e-81
-2.8187422e-78
-1.0081009e-81
8.0674451e-82
-3.0289323e-81
-3.1138715e-79
7.8325783e-80
8.8594198e-81
-2.7780468e-78
-2.5346976e-81
-2.0687883e-81
-1.9583305e-81
1.0105603e-80
-1.2898004e-78
2.4026315e-78
-1.0935423e-80
-2.3548711e-79
8.5129304e-79
-3.289611e-83
-1.2234494e-82
2.7413204e-80
-1.1252789e-78
1.3520382e-83
-1.6940461e-82
-1.9802728e-82
7.6434747e-82
1.6474073e-81
3.8904432e-79
1.7292576e-85
-4.7277161e-08
1.5798009e-18
-7.894776e-29
2.5351915e-38
1.0145766e-47
8.4006608e-57
8.7360458e-65
-1.6607648e-72
1.5142414e-79
6.4182816e-85
-1.8333439e-86
8.6173554e-87
3.0555182e-84
8.468984e-87
-8.8827964e-87
1.1344568e-86
5.3196697e-85
-1.2960505e-85
-8.6064332e-86
3.0417087e-84
-4.5727055e-86
6.1036148e-87
3.7676311e-87
-1.6662245e-86
1.7794364e-84
-1.6034278e-83
6.8192217e-87
1.1864927e-84
-7.1913342e-84
6.2563328e-88
-5.408785e-88
-5.0905865e-84
-5.0766892e-84
6.9969923e-89
-6.092896e-88
-4.266112e-88
1.5468481e-87
-4.3504457e-87
-1.9333613e-85
-1.174539e-92
-3.9699319e-08
1.1053348e-18
-4.3035462e-29
7.998951e-39
2.9784328e-48
1.8026367e-57
8.6705995e-66
-1.4175379e-73
7.4918068e-81
2.8680218e-87
8.496868e-92
4.5574592e-92
-1.9439247e-89
-5.7788097e-92
4.188985e-92
-1.02127e-91
-7.3519565e-91
-3.9138962e-90
2.3728448e-91
-1.0503744e-89
6.6886379e-92
8.6582734e-92
-6.3421439e-93
4.4261739e-92
-6.4239135e-89
3.8619795e-88
-1.591976e-91
-7.3666308e-90
-2.0480418e-89
9.8735384e-93
7.6261229e-93
-2.4503083e-88
8.9272826e-90
2.9061506e-94
5.3888294e-93
-1.8639665e-93
-2.0131011e-93
1.7318208e-92
2.2713426e-91
1.4973135e-97
-3.3363517e-08
7.7858097e-19
-2.4045459e-29
2.8820193e-39
1.0664065e-48
4.919675e-58
1.3261473e-66
-2.1266177e-74
7.4799426e-82
3.6801725e-87
9.8511902e-94
-8.4594855e-98
3.2657023e-95
-5.0442685e-97
-4.7781502e-98
2.905391e-97
1.1315256e-96
-2.4075114e-95
-4.8460869e-96
2.5439343e-95
-9.4586504e-98
-5.3979183e-98
1.7509867e-98
-5.5571404e-98
9.3756595e-95
-2.8678917e-93
4.0962525e-97
5.1038257e-95
-9.3976214e-95
-9.8453183e-99
1.668901e-98
-1.6600364e-93
1.3199921e-94
-4.8755556e-100
1.3547088e-98
-4.118251e-99
1.8548518e-98
-4.1143851e-98
-1.4969569e-97
2.1800754e-106
-2.8089199e-08
5.5200616e-19
-1.3719179e-29
1.131987e-39
4.5621826e-49
1.6623799e-58
2.7965606e-67
-5.2411139e-75
1.2493438e-82
-4.3414749e-89
-1.2048127e-95
-4.3780723e-102
-5.8259448e-101
5.8843887e-103
7.6233169e-104
-5.0598072e-103
-2.3958611e-102
1.4599774e-101
-7.3522544e-101
-6.6044625e-101
1.2112235e-103
8.6630261e-103
-2.5864629e-104
8.6850385e-104
2.004718e-99
1.0697769e-98
1.0002731e-102
-8.0650273e-101
4.2843464e-100
5.0909019e-104
4.027216e-103
-5.4475164e-98
9.8263674e-100
2.2516092e-105
-2.3720248e-103
1.9220602e-104
-1.3787715e-103
3.4142055e-104
1.6792769e-103
2.3254532e-109
-2.369691e-08
3.9371255e-19
-7.968043e-30
4.7326468e-40
2.430834e-49
7.2196761e-59
8.1353105e-68
-2.979716e-75
5.3388887e-83
-8.1467953e-90
-2.6800005e-96
-8.2934683e-103
7.450794e-107
-1.490603e-107
-6.1470576e-110
8.7287511e-109
5.0496005e-108
-7.1833171e-107
5.0960522e-107
9.2951196e-107
-1.7346731e-109
-3.8187827e-108
2.6411085e-110
-3.4438454e-109
-1.6802157e-105
-4.5927135e-105
-9.3071403e-109
-2.7708099e-106
-1.3272273e-105
-3.2891726e-110
5.9235888e-108
-9.5633098e-103
-9.0509589e-106
2.1180647e-111
-8.8259311e-109
-7.1109368e-110
1.76011e-109
-6.7997305e-110
-8.4888633e-110
-2.2920787e-115
-2.00215e-08
2.8216232e-19
-4.6958856e-30
2.0742022e-40
2.0466214e-49
5.0972749e-59
4.0503197e-68
1.7908253e-75
-2.5553122e-83
2.0380325e-90
6.3290685e-97
2.3497709e-103
1.0404378e-109
1.6272989e-113
3.5899959e-115
-1.3910905e-114
-5.9175605e-114
1.0121711e-112
-6.1905676e-113
-3.7681486e-112
4.4778935e-115
1.0608322e-113
-4.3289805e-116
7.8314748e-115
2.6149657e-111
1.3456752e-110
3.2256646e-114
3.1514632e-112
1.6375303e-111
2.959032e-115
-2.9323239e-110
1.1468484e-107
1.2931524e-110
-4.7189856e-116
-7.9276168e-114
2.0655863e-115
1.7914226e-114
9.208001e-116
5.6005848e-116
2.0889873e-121
-1.6928512e-08
2.0292493e-19
-2.8002377e-30
9.4317409e-41
-2.2569041e-49
-4.8413753e-59
-2.8256719e-68
-2.7478454e-76
3.2430111e-84
-1.5920597e-91
-9.0168132e-98
-2.9826986e-104
-1.0688155e-110
-4.092702e-117
-2.259132e-121
1.8722593e-120
2.1608983e-119
-3.5719779e-119
6.1584083e-119
2.4651901e-118
-7.7914447e-121
-1.3928861e-119
6.5490071e-122
-5.5519148e-121
-4.6260998e-117
-1.1333238e-115
-4.0635742e-120
-7.5280017e-118
-5.8972929e-117
-2.7093016e-120
-8.7557561e-117
-6.1259773e-113
-5.6613808e-116
4.7329578e-121
1.4069753e-118
-1.1548462e-120
-2.7482696e-120
-9.6520122e-122
2.3856237e-122
-1.1915975e-127
-1.4314752e-08
1.4628145e-19
-1.6855974e-30
4.4163964e-41
-1.796548e-50
-3.4088328e-60
-1.5088823e-69
-6.8575392e-78
7.2253432e-86
-2.4417076e-93
-4.2717042e-99
-1.325667e-105
-5.6075813e-112
-2.7782955e-118
-1.853232e-124
-1.8096397e-126
-1.7846497e-125
2.059061e-124
-4.5782862e-125
-2.0464989e-123
5.4314051e-127
4.7070818e-125
-4.7337489e-128
1.6852076e-126
3.1981606e-123
9.3259683e-122
8.5177834e-126
4.8230107e-124
1.0006801e-122
8.6558047e-127
-5.2102852e-122
4.4420305e-118
2.5943784e-121
-2.1466675e-126
-1.1185348e-122
9.1869941e-127
9.6114529e-126
8.6725473e-128
4.2493203e-128
1.7946134e-134
-1.2101559e-08
1.056092e-19
-1.0223426e-30
2.1179293e-41
-4.0479287e-51
-6.981019e-61
-2.4104024e-70
-6.2630439e-79
6.2967414e-87
-1.5266401e-94
9.8252572e-101
3.4943134e-107
1.2133344e-113
6.6006167e-120
2.3733494e-126
7.3106083e-132
5.766353e-132
-5.64715e-130
1.1840882e-130
2.0129841e-129
-7.452664e-133
-8.572529e-131
4.6596196e-134
-7.0815061e-133
-3.5579362e-129
-3.067941e-127
-9.8911213e-132
-1.7578318e-129
-8.5949692e-129
-1.5744778e-131
2.2833125e-128
-4.767886e-124
1.8977143e-125
6.9077222e-131
4.3229046e-128
-3.3167605e-132
-4.3277627e-132
-2.1793819e-134
-1.7824914e-133
3.4268215e-140
-1.0229379e-08
7.6337717e-20
-6.2406395e-31
1.0362102e-41
-1.167107e-51
-1.8842228e-61
-5.1971292e-71
-8.5865325e-80
8.9766254e-88
-1.6297339e-95
3.3837226e-102
1.116168e-108
4.6881434e-115
2.0616704e-121
1.4906923e-127
6.5458965e-134
-1.1456257e-137
4.0980771e-136
-4.2010831e-137
-4.2826577e-136
4.1845202e-139
5.3366521e-137
-6.1983051e-140
1.3611933e-138
5.6779286e-135
1.9882492e-133
1.9007686e-137
1.2557164e-135
2.2362325e-134
1.2611578e-137
-5.4255181e-134
8.4002186e-130
-3.5386806e-131
-6.9697965e-138
-4.2511941e-134
4.6282985e-138
6.8604845e-138
2.8883297e-140
1.003794e-138
-1.8757735e-145
-8.6501796e-09
5.5252405e-20
-3.8315475e-31
5.1581147e-42
-3.8052589e-52
-5.951839e-62
-1.3400329e-71
-1.5082433e-80
1.9321467e-88
-2.7969325e-96
2.9906847e-103
1.0930342e-109
5.0014278e-116
2.742455e-122
2.5472646e-128
2.2668318e-134
1.2251048e-140
-6.1958879e-142
9.8449401e-143
2.0330937e-141
-1.1763185e-144
-6.9696252e-143
5.5373356e-146
-3.9840564e-145
-3.8145811e-141
-3.5550205e-139
-4.3860479e-144
-1.2985221e-141
-2.9467568e-140
-3.9068716e-143
9.5394095e-140
-6.5160533e-136
1.4123321e-136
5.9750168e-142
6.4177743e-140
-5.0906873e-144
-5.0252516e-144
5.2563903e-147
-4.8861243e-145
1.2936305e-151
-7.3210822e-09
4.0050488e-20
-2.3649808e-31
2.6069554e-42
-1.3414243e-52
-2.1204942e-62
-3.972828e-72
-3.1896796e-81
7.1275817e-89
-8.4156788e-97
5.9431474e-104
3.1832711e-110
1.2350572e-116
8.6884136e-123
7.9973319e-129
4.9438423e-135
3.6167303e-141
3.1999368e-147
-1.8899095e-149
4.2264008e-149
2.4285173e-151
1.4529904e-149
-4.0138328e-152
8.5132499e-151
5.4176834e-147
2.4431532e-145
7.7767373e-150
1.636962e-147
2.1696421e-146
9.0771741e-149
-3.4848516e-146
4.4848843e-141
-8.7508818e-143
-2.4653336e-148
-8.6063443e-146
4.4509886e-150
3.4620024e-150
3.4665373e-152
5.7372904e-151
-4.0053078e-157
-6.2038451e-09
2.9077995e-20
-1.4668913e-31
1.3353626e-42
-4.9994888e-53
-8.4657618e-63
-1.3436397e-72
-7.976479e-82
-5.6994637e-89
5.7092591e-97
-2.6148347e-104
-2.1503077e-110
-9.206702e-117
-5.2089816e-123
-4.0332565e-129
-3.0855416e-135
-2.1703187e-141
-1.5547675e-147
-1.2732187e-153
1.2881636e-153
-9.4601654e-157
-4.0397912e-155
4.2588518e-158
-2.2114769e-157
-4.0866914e-153
-1.647879e-151
-3.1708276e-156
-2.9712992e-153
-7.552766e-153
2.3421431e-156
1.1615041e-151
-2.9214182e-147
7.015781e-148
4.1953167e-155
1.751104e-151
-1.0472643e-155
-6.1763581e-156
7.5042211e-158
-4.6786005e-157
-2.7498383e-163
-5.2647178e-09
2.1145942e-20
-9.1383289e-32
6.9213761e-43
-1.944336e-53
-3.8607469e-63
-5.2800753e-73
-2.3886151e-82
-2.3943834e-90
2.09887e-98
-7.1188347e-106
9.7575793e-112
5.2232081e-118
4.7083565e-124
5.8644267e-130
9.858373e-136
1.1039548e-141
2.6787855e-147
2.8705994e-153
2.9494283e-159
-8.3346464e-163
1.8472405e-161
-3.8225424e-164
1.7586711e-162
1.3739439e-159
6.5814537e-158
4.2012603e-161
2.9762762e-159
1.3199862e-158
1.0050323e-160
-9.036459e-158
5.1369756e-153
-1.248329e-153
8.3464591e-160
-1.2157201e-157
1.2810981e-162
-1.8359708e-162
-6.7647387e-163
8.4728291e-163
6.6816146e-170
-4.4749838e-09
1.5403073e-20
-5.7154805e-32
3.6251822e-43
-7.8240871e-54
-2.1678084e-63
-2.5970439e-73
-9.1687195e-83
-4.1505789e-91
3.3293083e-99
-8.281e-107
4.5891352e-113
2.7833784e-119
2.7057824e-125
2.6650509e-131
3.7221809e-137
4.9194899e-143
3.3075044e-148
3.7342173e-154
2.0258644e-159
2.5663368e-164
-3.5670391e-167
3.8922494e-170
6.5410316e-169
-5.4049273e-165
6.376905e-163
3.4541892e-167
-2.8999103e-166
-4.1675052e-164
1.9328785e-167
3.435748e-163
-4.4218193e-159
6.0687153e-160
-2.0061143e-165
1.4649948e-163
-6.331385e-168
-1.5402479e-167
1.8925154e-168
7.526648e-169
6.814846e-176
-3.810857e-09
1.1240315e-20
-3.5879531e-32
1.9167462e-43
-3.2388228e-54
-2.1586554e-63
-2.3024045e-73
-6.4779699e-83
-1.6878067e-91
1.2938345e-99
-2.4931455e-107
5.206733e-114
2.9744134e-120
2.9045912e-126
4.7908476e-132
4.620665e-138
8.1329829e-144
7.0042379e-149
-6.6714348e-154
6.4125204e-159
1.0028217e-164
5.7393879e-170
-1.8988675e-174
2.0972372e-174
3.5019469e-170
-1.4517991e-168
-1.1659883e-172
1.4998088e-170
-1.6624825e-169
1.8140891e-172
-4.5203037e-169
2.5267922e-165
-1.0464733e-165
5.1045079e-171
-5.4216695e-169
-5.1282169e-174
7.0809409e-173
3.2544381e-173
4.5538294e-175
3.5065838e-182
-3.2527789e-09
8.2209565e-21
-2.2608684e-32
1.0223929e-43
-1.3736468e-54
9.6128434e-64
9.2808771e-74
2.1200407e-83
3.5616513e-92
-2.7956811e-100
4.3067731e-108
-5.0588719e-115
-6.1635792e-121
-8.2144542e-127
-3.9637071e-132
-1.8894496e-137
-3.8374918e-143
-4.5124944e-147
1.1439296e-152
2.0398252e-157
9.7899896e-163
2.0834606e-168
7.0918814e-174
5.0473146e-179
1.751804e-175
-1.3295248e-173
-3.5287289e-178
-2.510888e-175
-2.3251833e-174
2.5795943e-177
-4.9532559e-175
4.7345772e-170
4.4963125e-172
-3.8876827e-177
2.6789573e-175
-1.3665219e-179
-1.04359e-178
-6.2091081e-179
1.7492593e-181
1.2286752e-188
-2.7845487e-09
6.0303912e-21
-1.4305551e-32
5.5004942e-44
-5.9529016e-55
1.1163958e-64
9.9246754e-75
1.8715438e-84
2.1691551e-93
-1.8905087e-101
2.4069736e-109
-1.8983936e-116
-7.955668e-122
-1.1257528e-127
-3.592986e-133
-1.2783499e-138
2.8751748e-144
-1.8646079e-149
8.591833e-155
-2.4965982e-159
9.4770823e-165
-1.9550081e-170
2.70489e-176
1.0006758e-180
-5.9288377e-181
5.0704964e-179
1.4648573e-183
9.6733722e-181
2.0642862e-179
7.6673972e-181
1.1778222e-179
-1.6498049e-175
-2.6772804e-177
-3.5994492e-183
4.8821714e-181
3.6842688e-185
2.6753331e-184
6.327517e-185
3.298142e-188
2.6755655e-195
-2.392517e-09
4.4409408e-21
-9.0960939e-33
2.9854368e-44
-2.6315771e-55
2.5356077e-65
2.1147189e-75
3.3416659e-85
2.803406e-94
-3.187843e-102
3.4525609e-110
-1.9540367e-117
1.8863582e-122
6.2871203e-128
1.6407358e-133
-2.0039512e-139
-7.1230593e-145
1.2417136e-150
-1.692647e-156
2.8477134e-162
-3.3102243e-168
1.6941687e-173
-4.535879e-179
3.2314276e-185
-7.7482473e-186
-8.6703767e-185
6.4744376e-188
-4.296523e-186
-2.7106041e-185
-5.1084899e-186
-2.9021397e-185
2.4004282e-181
4.2655534e-183
-9.4820933e-188
-9.1270797e-187
-4.8171081e-191
-1.5834946e-190
-7.511083e-191
5.9860295e-195
4.8418433e-202
-2.065104e-09
3.2874228e-21
-5.8182467e-33
1.6357136e-44
-1.1856785e-55
7.076541e-66
5.6523847e-76
7.5913336e-86
4.7724987e-95
-1.1085514e-102
1.0400788e-110
-4.3314249e-118
2.1684708e-124
8.2760988e-130
-1.8533204e-135
3.7809773e-141
-5.154069e-147
6.0263451e-153
-8.4951618e-159
1.2705644e-164
-1.1610147e-170
1.2059422e-176
-1.738937e-182
1.9207547e-188
5.6867439e-192
1.0506548e-190
-6.5054735e-194
2.5248531e-192
1.0717202e-190
7.6117198e-192
3.6356161e-191
-3.7717087e-187
-5.015141e-189
1.1790211e-193
2.4518646e-192
3.7044402e-197
6.9436775e-197
8.7564454e-197
8.020703e-202
7.4798635e-209
-1.7924361e-09
2.4499474e-21
-3.7493386e-33
9.0567526e-45
-5.4442509e-56
2.2073739e-66
1.7296145e-76
2.0010484e-86
9.7027642e-96
4.0909606e-103
-3.4679075e-111
1.1128854e-118
-4.6901914e-125
1.3518216e-130
-1.6913704e-136
1.1299034e-142
-1.9449893e-148
1.1461547e-154
-7.7947268e-161
7.5700075e-167
-5.2070268e-173
4.4187152e-179
-3.7941312e-185
2.7732384e-191
-6.2496677e-197
-9.7744775e-197
3.6407845e-200
-2.1423596e-198
-1.091335e-196
-1.3557603e-197
-3.5096108e-197
6.7473031e-193
4.7007581e-195
-6.8897283e-199
-3.3355156e-198
-2.7084359e-203
-2.7523866e-203
-4.4390821e-202
4.7845672e-209
6.9512337e-216
-1.5661008e-09
1.8414587e-21
-2.4386759e-33
5.0756094e-45
-2.5492409e-56
7.4269641e-67
5.8779707e-77
5.9328695e-87
2.2706894e-96
1.9785799e-104
-1.5526535e-112
3.9763278e-120
-9.0585846e-127
1.4492186e-132
-2.2566929e-138
1.6048157e-144
-1.683994e-150
1.4097798e-156
-9.8532237e-163
8.8569397e-169
-7.3171297e-175
5.5167585e-181
-2.7351958e-187
1.7101095e-193
-1.1504854e-199
6.793759e-203
-1.8423067e-206
1.4223537e-204
6.9065593e-203
1.4092399e-203
2.4131116e-203
-5.3095772e-199
-4.4989064e-201
1.0419339e-204
2.6466333e-204
9.7837585e-210
1.0572725e-209
-1.636265e-207
-1.9957204e-214
-1.008235e-221
-1.3789675e-09
1.3988724e-21
-1.6047052e-33
2.8851757e-45
-1.2189308e-56
2.6517809e-67
2.2017093e-77
1.9632047e-87
6.0496991e-97
2.5669257e-105
-1.9299892e-113
4.0329954e-121
-6.2609972e-128
7.5765537e-134
-4.582448e-140
4.8430707e-146
-2.6929837e-152
2.3683718e-158
-1.052114e-164
7.2103673e-171
-3.4393427e-177
2.0019779e-183
-9.9002535e-190
4.5895454e-196
-2.2336376e-202
9.6341633e-209
1.2496695e-212
-7.3554019e-211
-4.4512097e-209
-1.1002933e-209
-1.149685e-209
5.5240758e-205
5.8472666e-207
-9.3463748e-211
-1.3354798e-210
-3.2807118e-216
-2.8393588e-216
-1.948833e-212
-2.2213653e-219
-1.1762129e-226
-1.2250096e-09
1.0765036e-21
-1.0712044e-33
1.6679589e-45
-5.9643258e-57
9.9674122e-68
9.1564613e-78
7.3030639e-88
1.8442723e-97
4.7250299e-106
-3.5447138e-114
6.1971341e-122
-6.2237441e-129
4.8008635e-135
-3.3964986e-141
2.1043233e-147
-9.0537295e-154
4.3822871e-160
-1.7486376e-166
1.0845333e-172
-4.5382901e-179
2.5051958e-185
-1.2262567e-191
6.7095647e-198
-2.9023253e-204
1.3867168e-210
-7.1964886e-217
3.5586602e-217
2.3881828e-215
5.6245185e-216
5.5382874e-216
-3.7720165e-211
-7.159764e-213
4.2686724e-217
5.915355e-217
8.4691242e-223
7.2886308e-223
1.4581133e-217
1.4101856e-224
7.2127131e-232
-1.0991809e-09
8.4134706e-22
-7.2772534e-34
9.8386731e-46
-2.9949229e-57
3.9310825e-68
4.3446934e-78
3.1384458e-88
6.6022779e-98
1.1349113e-106
-8.9500347e-115
1.3507344e-122
-1.0905707e-129
4.2182267e-136
-2.6750959e-142
1.3815848e-148
-5.5908036e-155
2.4937885e-161
-9.5820273e-168
3.5089815e-174
-1.3527203e-180
4.5413623e-187
-1.6405742e-193
6.7309032e-200
-2.4632203e-206
1.0541705e-212
-3.6767938e-219
-1.3703795e-223
-1.1561195e-221
-2.291672e-222
-2.4565574e-222
2.0612107e-217
3.7664003e-219
-2.0228464e-223
-1.8758312e-223
-1.7736288e-229
-3.7583782e-229
8.4641818e-223
8.173492e-230
4.0693321e-237
-9.9727168e-10
6.6959136e-22
-5.0491048e-34
5.943729e-46
-1.5487219e-57
1.6257644e-68
2.5346354e-78
1.6796048e-88
2.9868745e-98
3.6705419e-107
-3.3248304e-115
4.3869423e-123
-2.7147613e-130
1.0885502e-136
-3.8052348e-143
1.4085301e-149
-5.7491606e-156
1.7868231e-162
-7.7802582e-169
2.5817318e-175
-8.8816753e-182
3.6234144e-188
-1.4741436e-194
5.0567778e-201
-1.7971362e-207
7.5626159e-214
-2.5891632e-220
9.7960511e-227
4.3144264e-228
7.7766022e-229
1.0231401e-228
-8.4281145e-224
-1.6887524e-225
7.0657002e-230
5.2239784e-230
2.2872166e-236
-2.4986148e-235
1.4838509e-228
1.615037e-235
8.3297911e-243
-9.1579029e-10
5.4408818e-22
-3.5912132e-34
3.6928028e-46
-8.2810642e-58
7.0595331e-69
2.4669885e-78
1.5196708e-88
2.316489e-98
2.1305397e-107
-2.5368055e-115
3.0179581e-123
-1.4627244e-130
3.6430739e-137
-1.3457087e-143
4.2607651e-150
-1.1589803e-156
3.2291118e-163
-9.1448007e-170
2.7048514e-176
-9.8737109e-183
2.8693783e-189
-1.1144778e-195
3.311735e-202
-8.5356076e-209
2.4873942e-215
-7.5872908e-222
2.5292959e-228
-3.0014127e-234
-2.7871365e-235
-3.0950119e-235
2.8966441e-230
5.9542628e-232
-2.3988892e-236
-1.1355308e-236
-2.075004e-243
1.6304933e-240
-8.2516415e-234
-7.0980449e-241
-3.5407886e-248
-8.5185122e-10
4.5251887e-22
-2.6283954e-34
2.3698958e-46
-4.5988047e-58
3.2266693e-69
-1.8621565e-78
-1.0814455e-88
-1.4318793e-98
-1.0182245e-107
2.2686699e-115
-2.4550704e-123
1.0085739e-130
-1.9676951e-137
5.8973521e-144
-1.6115855e-150
5.0837285e-157
-1.2784342e-163
3.7213384e-170
-1.0436402e-176
2.8176449e-183
-8.5027415e-190
2.3020166e-196
-5.9529176e-203
1.5915148e-209
-4.0024272e-216
1.0312425e-222
-3.146696e-229
1.0624546e-235
4.8373087e-242
9.6141734e-242
-8.8773031e-237
-1.7218101e-238
7.5629833e-243
2.2263923e-243
-2.4300233e-251
1.6912443e-246
-9.6023106e-240
-9.5455764e-247
-4.9809252e-254
-8.0307508e-10
3.8606088e-22
-1.9866611e-34
1.5778744e-46
-2.6645927e-58
1.5573769e-69
-2.0797063e-79
-1.156231e-89
-1.3467881e-99
-7.6165484e-109
-8.3280319e-116
8.4776418e-124
-2.8996584e-131
4.7047965e-138
-1.4163366e-144
3.701081e-151
-9.0624529e-158
1.8300157e-164
-4.042315e-171
1.1078828e-177
-2.7074103e-184
6.2191402e-191
-1.6199406e-197
4.0369158e-204
-9.3228971e-211
2.284674e-217
-5.7881413e-224
1.3848396e-230
-3.7943945e-237
1.1288498e-243
-2.6489602e-248
2.7969446e-243
4.6721384e-245
-2.0342481e-249
-4.248383e-250
5.9625626e-257
1.0923736e-251
-6.209537e-245
-5.5332656e-252
-2.7960072e-259
-7.6747577e-10
3.3840781e-22
-1.5555903e-34
1.0943053e-46
-1.6178676e-58
7.9652884e-70
-5.4884152e-80
-2.9704636e-90
-3.0822322e-100
-1.4183498e-109
-1.7870941e-117
1.7778484e-125
-5.1675527e-133
7.0394916e-140
-1.5283465e-146
3.4708504e-153
-7.8196261e-160
1.86179e-166
-4.3917174e-173
9.4224405e-180
-2.0807956e-186
4.4241662e-193
-9.2690922e-200
2.2149082e-206
-5.2942702e-213
1.2152686e-219
-2.8260539e-226
6.585585e-233
-1.6072576e-239
4.3913742e-246
-1.1372293e-252
-7.4907187e-250
-1.1345771e-251
4.2996259e-256
7.3393596e-257
-1.899772e-263
1.7748765e-257
-1.1858838e-250
-1.1114632e-257
-5.7597019e-265
-7.4335393e-10
3.050612e-22
-1.2648191e-34
7.9321658e-47
-1.0333399e-58
4.3308799e-70
-1.8912514e-80
-1.0158324e-90
-9.5082833e-101
-3.6325222e-110
-2.1663068e-118
2.160553e-126
-5.4756163e-134
5.4973236e-141
-1.2107132e-147
2.5369932e-154
-5.4074481e-161
1.101451e-167
-2.3130223e-174
4.2621306e-181
-7.5808953e-188
1.4172312e-194
-2.8524303e-201
5.708686e-208
-1.1388324e-214
2.4089685e-221
-4.9326097e-228
9.540797e-235
-1.8542064e-241
3.7484365e-248
-9.1717416e-255
1.6547717e-256
2.7599322e-258
-8.6593753e-263
-1.0165507e-263
-1.7432767e-270
4.075635e-263
-2.9318665e-256
-2.7456907e-263
-1.4447666e-270
-7.2917943e-10
2.8280334e-22
-1.0692584e-34
6.0234861e-47
-6.9627278e-59
2.5096354e-70
-7.6706455e-81
-4.1811873e-91
-3.5748396e-101
-1.1551387e-110
-4.2433394e-119
4.4171013e-127
-1.000601e-134
8.6369738e-142
-1.4771807e-148
2.6867302e-155
-5.398093e-162
9.4037566e-169
-1.6870564e-175
3.2281497e-182
-6.01392e-189
1.0490319e-195
-1.9098481e-202
3.1083731e-209
-5.4142736e-216
9.8381476e-223
-1.7795185e-229
3.1024453e-236
-6.3605106e-243
1.3219511e-249
-2.6101165e-256
1.8414946e-263
-5.4694034e-265
1.6026075e-269
1.3213666e-270
-5.5531583e-275
5.1917279e-268
-3.6741701e-261
-3.1997306e-268
-1.656686e-275
-7.2347211e-10
2.6930159e-22
-9.3980624e-35
4.7965503e-47
-4.9570246e-59
1.5519581e-70
-3.5270461e-81
-2.0047503e-91
-1.5857654e-101
-4.4077953e-111
-1.1102066e-119
1.2896889e-127
-2.6656285e-135
1.9678884e-142
-2.9545853e-149
5.1686159e-156
-8.25333e-163
1.3490183e-169
-2.1090028e-176
3.5455569e-183
-5.7992309e-190
9.0649118e-197
-1.4614229e-203
2.3996598e-210
-3.8096168e-217
6.5339925e-224
-1.0380355e-230
1.7833895e-237
-2.9907574e-244
5.6348869e-251
-1.020441e-257
1.9152329e-264
-2.4801003e-271
-2.4810764e-276
-1.5425933e-277
-1.8601767e-278
1.7411578e-271
-1.4323485e-264
-1.3889902e-271
-7.3161961e-279
-7.2467825e-10
2.6279858e-22
-8.5745463e-35
4.0026366e-47
-3.7283998e-59
1.023968e-70
-1.8043375e-81
-1.1066747e-91
-8.2029862e-102
-1.9918815e-111
-3.6947625e-120
5.1766301e-128
-9.8505172e-136
6.0221606e-143
-8.4417195e-150
1.2807818e-156
-1.896543e-163
2.7977287e-170
-4.0198162e-177
5.7844869e-184
-8.5374244e-191
1.2512981e-197
-2.0984527e-204
3.067464e-211
-4.5957731e-218
6.6212866e-225
-9.309806e-232
1.4402445e-238
-2.1616126e-245
3.2396472e-252
-5.3514243e-259
8.3132882e-266
-1.2837721e-272
1.710933e-279
1.7208402e-284
2.6168057e-284
-2.7756548e-277
2.3298076e-270
2.0843542e-277
1.0788812e-284
-7.3107594e-10
2.6186009e-22
-8.094989e-35
3.4917169e-47
-2.9569157e-59
7.193642e-71
-1.0144379e-81
-7.0274178e-92
-4.9443602e-102
-1.0636085e-111
-1.5228383e-120
3.0590583e-128
-5.5549822e-136
3.0800949e-143
-4.1529673e-150
6.013217e-157
-8.0083363e-164
1.1586202e-170
-1.7679467e-177
2.5737333e-184
-3.59057e-191
4.9991868e-198
-7.3582233e-205
1.07731e-211
-1.4786909e-218
2.0432209e-225
-2.8730894e-232
4.3785889e-239
-6.0603223e-246
8.916313e-253
-1.3898054e-259
2.2448727e-266
-3.3046325e-273
4.2959266e-280
-4.107239e-287
-3.9745277e-290
4.3007477e-283
-3.9063807e-276
-3.7900283e-283
-1.9308032e-290
-7.4072496e-10
2.6516354e-22
-7.8702695e-35
3.1708632e-47
-2.4633117e-59
5.3602485e-71
-6.2049307e-82
-5.1856228e-92
-3.5076996e-102
-6.7724249e-112
-7.7451693e-121
3.5236352e-128
-6.3209951e-136
3.1979167e-143
-3.7424497e-150
5.2737151e-157
-7.5113328e-164
9.7979445e-171