/*--------------------------------*- C++ -*----------------------------------*\
  =========                 |
  \\      /  F ield         | OpenFOAM: The Open Source CFD Toolbox
   \\    /   O peration     | Website:  https://openfoam.org
    \\  /    A nd           | Version:  10
     \\/     M anipulation  |
\*---------------------------------------------------------------------------*/
FoamFile
{
    format      ascii;
    class       volScalarField;
    location    "0.14";
    object      TporMedia_0;
}
// * * * * * * * * * * * * * * * * * * * * * * * * * * * * * * * * * * * * * //

dimensions      [0 0 0 1 0 0 0];

internalField   nonuniform List<scalar> 
4000
(
-2.9429114e-05
1.2852685e-05
0.00022959686
0.00019045356
0.0001802216
0.00016930005
0.00017720281
0.00017963106
0.00018423882
0.00017010801
0.00017119242
0.00018505928
0.00019224212
0.00019001509
0.00021009057
0.00018130233
0.00019420857
0.00017879851
0.00018806036
0.00018980849
0.00019597144
0.00019069815
0.00016936009
0.00020715838
0.00018679084
0.00019019921
0.00019160355
0.00019202216
0.00018643099
0.00019934022
0.0001911301
0.00019862338
0.00018029356
0.00016496184
0.00020651121
0.0001998858
0.00018172869
0.00017189637
0.00020182669
0.0001801558
-2.3977357e-06
8.8280369e-14
4.6920155e-12
1.4927328e-10
7.0696275e-11
5.1534681e-11
5.3351213e-11
5.7229083e-11
6.7042754e-11
5.5206328e-11
5.4357522e-11
6.7447235e-11
6.2917916e-11
6.9265453e-11
6.5670667e-11
6.152532e-11
6.1168719e-11
6.1503856e-11
4.9716308e-11
7.1377785e-11
6.264976e-11
6.9266763e-11
6.4300919e-11
6.8284502e-11
7.2540432e-11
6.4177858e-11
6.320865e-11
6.5705716e-11
6.0928389e-11
5.5707335e-11
5.8798846e-11
5.78638e-11
5.74786e-11
5.3637347e-11
8.0664551e-11
5.9098162e-11
5.0174772e-11
6.1990323e-11
7.4974821e-11
5.8725901e-11
-9.7475404e-07
-2.7955792e-14
2.8799055e-20
1.0023735e-17
-1.4816884e-16
1.7764509e-17
2.0214579e-17
1.6826456e-17
2.0041116e-17
1.8220748e-17
1.5081852e-17
2.2771063e-17
2.165487e-17
2.3598384e-17
2.5958784e-17
2.3026702e-17
2.3386778e-17
1.9468323e-17
1.5755219e-17
2.3706373e-17
2.1890421e-17
2.3032139e-17
2.1943401e-17
2.6026814e-17
2.1688524e-17
2.2689571e-17
2.1485888e-17
2.0077091e-17
2.0364051e-17
1.9568121e-17
1.9912861e-17
1.7902517e-17
1.4810044e-17
1.7733928e-17
2.6616598e-17
1.7737557e-17
1.6357906e-17
1.7620317e-17
2.2502285e-17
1.7907482e-17
-5.2921364e-07
1.6365522e-15
5.3696209e-24
1.4123871e-25
4.594495e-23
2.6288094e-23
6.3965335e-24
5.2677585e-24
6.9523667e-24
5.6763477e-24
4.3679802e-24
7.5705193e-24
6.6456224e-24
7.3293049e-24
8.5182213e-24
7.780651e-24
7.906003e-24
6.6949563e-24
4.6441831e-24
8.2014688e-24
5.7681386e-24
7.3347898e-24
7.3816184e-24
8.7555247e-24
7.4516721e-24
7.3599346e-24
6.6443033e-24
5.9308744e-24
6.5872958e-24
7.0401132e-24
7.127488e-24
5.2563342e-24
4.4213256e-24
5.0273905e-24
8.6358626e-24
5.7070241e-24
5.6716296e-24
4.6352065e-24
7.3342498e-24
5.5407245e-24
-3.3772387e-07
3.2599177e-16
8.2860179e-25
5.0353294e-33
1.3713511e-29
-9.0306651e-30
1.9577288e-30
4.3932367e-30
2.3707181e-30
1.7769028e-30
1.0900243e-30
2.8742625e-30
2.3889875e-30
2.45841e-30
2.7289466e-30
2.3939769e-30
3.9642974e-30
2.0064597e-30
1.4192093e-30
2.5085719e-30
1.8221006e-30
2.4566089e-30
2.0671808e-30
2.7515928e-30
2.6903653e-30
2.5610875e-30
2.1946945e-30
1.8416139e-30
2.0347483e-30
2.3169776e-30
2.6587591e-30
1.5477696e-30
1.3013448e-30
1.7626979e-30
3.17189e-30
1.5887181e-30
1.9060148e-30
1.5604545e-30
2.5958344e-30
1.7598127e-30
-2.3915159e-07
1.115972e-16
3.5191531e-25
9.1704971e-34
3.6712722e-37
1.0051633e-36
1.7759007e-36
-3.6665492e-36
5.4687345e-37
4.7421244e-37
1.0315468e-36
2.4916077e-35
7.9947642e-37
8.0103652e-37
8.2394884e-37
3.1798506e-37
7.5689402e-35
6.408263e-37
4.5060039e-37
7.2665878e-37
2.8585876e-37
8.0635583e-37
7.4331366e-37
9.191486e-37
8.8921628e-37
9.830253e-37
1.182733e-36
2.3933969e-36
6.3726208e-37
8.1007081e-37
1.0970562e-36
6.6159049e-37
4.273894e-37
6.2600462e-37
1.0585572e-36
5.0857518e-37
8.2246288e-37
4.8370279e-37
9.4933248e-37
5.4073534e-37
-1.8214904e-07
4.9917402e-17
-1.921561e-24
-3.0875934e-33
-2.6409884e-41
-7.5067578e-44
-7.8785591e-43
1.4789069e-41
-1.6107748e-43
1.482187e-45
4.4915523e-42
1.7537212e-40
8.3142705e-43
2.1104256e-43
2.4620131e-43
-2.531544e-42
2.6421629e-40
9.9594825e-44
1.2115772e-43
3.0773433e-43
5.2849148e-39
1.2231584e-41
2.2177695e-43
3.2031632e-43
2.6806991e-43
-2.8945725e-43
2.4513591e-42
8.5306715e-42
-1.0680399e-42
2.8196464e-43
1.5079306e-42
-9.4287722e-43
2.944243e-43
1.5115879e-43
2.4636423e-43
1.570094e-43
-1.1592631e-42
1.2182465e-43
-9.8039173e-43
1.9468271e-43
-1.4619753e-07
2.6345498e-17
-3.6354971e-26
-4.2217847e-35
-1.6151582e-43
2.5036361e-50
1.7413894e-49
-3.8664485e-46
1.1084639e-48
1.1846933e-48
3.4099497e-47
2.7413288e-45
2.7415049e-48
1.8981069e-49
2.4494107e-51
-1.165191e-47
1.0745854e-45
6.5487956e-49
1.2141699e-49
-4.1962852e-49
1.1502179e-44
-4.4186146e-47
-2.2969072e-52
-1.1443851e-49
-1.2545439e-49
-4.0293736e-48
-3.3011955e-47
-5.4843238e-46
-6.3584603e-48
1.0959901e-50
1.4202757e-47
-2.291185e-48
3.1324924e-48
3.5574555e-49
-3.8710844e-49
6.3290252e-50
-3.0833735e-48
2.9883957e-50
-2.2689823e-47
6.0412329e-50
-1.2148691e-07
1.5505469e-17
-8.3775175e-27
-8.0571085e-36
-1.6853992e-44
-1.1249315e-51
-3.5634364e-56
2.2779603e-49
-3.1681221e-54
-5.9704654e-54
-1.0266617e-52
-5.4917511e-50
1.4702645e-53
5.0664943e-55
-1.7883775e-55
1.4198411e-53
9.0228131e-51
5.5060841e-54
-3.5992477e-55
-1.5676087e-54
9.3159798e-49
1.5173474e-51
1.9227126e-55
1.871198e-55
-2.7644659e-55
-2.9470583e-53
-1.7707554e-52
-3.8893221e-51
-2.5275694e-52
-9.6521207e-55
5.3413237e-53
-7.3937007e-54
1.1798837e-53
6.6936657e-54
-1.1532978e-54
3.8965913e-56
-6.063378e-54
-3.2083689e-56
-5.2521394e-53
2.3208735e-56
-1.0297029e-07
9.7952784e-18
-2.8265198e-27
-2.5960206e-36
-3.3831828e-45
-4.6499886e-53
1.6992478e-60
-2.4604283e-55
-1.9900427e-58
2.590082e-59
-1.9244979e-58
-3.161871e-55
-2.6357873e-59
-9.8802287e-61
-1.0587779e-60
-2.0196459e-57
-2.811789e-56
-2.9416205e-59
1.9259379e-60
-3.2225514e-59
5.0506045e-54
-5.8202938e-57
-5.4225389e-61
1.2993714e-60
1.0641635e-60
-5.4234958e-59
-1.2739475e-57
-3.5709567e-56
-2.8323082e-57
-2.0415926e-59
-9.0510723e-59
7.0560397e-59
-3.4664478e-58
2.2050503e-59
-1.7318085e-60
1.2285158e-61
-3.6813066e-59
-4.2405692e-61
-4.2981053e-58
7.0421504e-63
-8.7871197e-08
6.4586952e-18
-1.1488817e-27
-1.2291177e-36
-1.098372e-45
-6.2182723e-54
1.8262233e-61
2.1169797e-62
-1.9268478e-63
-2.4984268e-64
4.6548762e-64
1.6893632e-60
1.6199958e-64
-3.3989743e-65
3.2263635e-65
3.2010557e-63
-1.325409e-61
2.0697631e-64
5.6671662e-66
4.363977e-64
-2.9460939e-60
-1.3390957e-62
-6.1523559e-66
1.3090667e-65
-1.0014888e-64
7.6876539e-65
-7.8758484e-63
-2.4149393e-61
2.1333413e-62
-4.998561e-65
3.4840818e-64
1.8435337e-64
8.5284105e-64
-7.5792615e-65
-9.840241e-66
4.6149658e-67
-1.9680211e-64
4.6749717e-67
9.5647893e-64
3.5905768e-69
-7.4895177e-08
4.3647579e-18
-5.208673e-28
-1.0377976e-36
-6.8602603e-46
-2.0238114e-54
6.2683513e-62
-3.6472148e-69
1.3416189e-68
3.3449845e-70
1.3042149e-69
-1.0118623e-65
-1.1432795e-70
1.1335204e-70
-5.7674119e-71
4.9689877e-68
1.894063e-67
-1.7539829e-69
-9.4983907e-72
1.05032e-68
1.1888886e-65
-1.7383918e-67
8.9495578e-72
4.8834709e-71
-4.2241856e-69
-3.4025217e-70
3.8405954e-68
-5.1827114e-67
-6.052989e-68
-1.9516193e-70
-5.8118284e-70
1.2753406e-69
-3.5078791e-69
-4.5590792e-70
-4.517509e-71
-5.9320287e-72
-1.0010424e-69
7.7612988e-72
4.5077154e-69
2.6081229e-75
-6.3498792e-08
2.9888181e-18
-2.5321563e-28
8.8665776e-37
4.6216788e-46
8.1054955e-55
-5.1866392e-62
1.7397263e-69
-8.469789e-74
-4.5025324e-75
-3.1157443e-75
6.8543171e-71
3.9483483e-76
-2.5038139e-76
-1.1799796e-76
-8.277714e-74
1.1794794e-72
1.7412211e-75
1.8769329e-77
-2.0958515e-74
-6.5477928e-71
2.6232443e-73
-1.5521489e-76
6.2622227e-75
5.7174011e-75
-2.712937e-74
1.3360014e-72
1.7174979e-72
3.3443917e-73
6.1804268e-76
-2.5254096e-75
1.257634e-74
-9.0255691e-75
-5.3559597e-75
6.7176447e-75
2.4461655e-77
-1.2152725e-75
4.1853877e-77
-1.1071614e-74
-3.0967706e-81
-5.3544095e-08
2.0630909e-18
-1.2917598e-28
8.5487273e-38
3.712728e-47
4.2320894e-56
1.6092755e-63
-3.734298e-71
7.6848259e-78
1.8424747e-80
4.5837655e-81
-2.6358047e-76
-4.2621777e-82
7.5681142e-82
2.3022142e-82
7.3719321e-80
-4.5199639e-78
-2.414856e-79
-1.9808445e-82
5.2541741e-80
3.2730145e-76
-1.2096447e-77
2.3036929e-82
1.4516777e-79
5.4420019e-80
2.2076556e-80
-2.6779305e-78
-2.9775733e-77
-6.5217753e-79
-2.1111682e-81
1.220039e-80
2.5707114e-80
3.1350635e-80
-3.8160511e-80
2.6528363e-80
7.0820829e-83
-2.0798878e-80
-2.68794e-83
2.8004832e-80
1.1184879e-86
-4.4995907e-08
1.4335004e-18
-6.8338909e-29
2.0946476e-38
8.0002987e-48
6.3290024e-57
6.2922637e-65
-1.1414898e-72
1.0136372e-79
-2.6207406e-87
2.3016361e-86
9.6049576e-82
3.6955656e-87
-2.9914391e-87
-3.5319441e-88
-1.2461886e-85
2.3125827e-83
-2.5410649e-83
2.3698649e-88
1.9912649e-85
1.9521463e-81
1.0983543e-83
-2.703223e-88
-2.919823e-85
-8.6247769e-86
-6.1374126e-86
7.787583e-84
2.100971e-82
1.4347611e-84
4.1437466e-87
-3.6893414e-86
7.5744083e-86
-1.2068324e-84
-3.1509182e-85
5.8054853e-86
-1.5030503e-88
3.2600273e-86
8.0271109e-89
-6.9594586e-86
-2.9842878e-92
-3.7766995e-08
1.0023193e-18
-3.72242e-29
6.6032994e-39
2.3455417e-48
1.3554291e-57
6.2206326e-66
-9.6993831e-74
4.759869e-81
2.3290715e-87
-7.4071142e-93
-9.4221662e-88
-2.108627e-93
-2.4805652e-91
2.674168e-93
2.3905396e-91
-3.6439054e-89
2.3869081e-89
-7.9003288e-94
-1.1378733e-91
-7.2022962e-87
-1.7046471e-89
8.3011974e-94
3.0110302e-91
3.0588729e-91
9.0167748e-92
-6.144541e-89
-3.6195265e-88
-2.6039269e-90
-1.4109292e-92
6.6588954e-92
-2.1186663e-91
7.9281685e-90
1.2394838e-90
-3.1569669e-91
-6.7417237e-94
2.3051095e-91
-1.674215e-93
7.6007714e-92
4.897701e-98
-3.1723977e-08
7.0550669e-19
-2.0781127e-29
2.3770148e-39
8.3921928e-49
3.6976059e-58
9.5220611e-67
-1.4372586e-74
4.6982025e-82
-1.9084635e-86
-5.9409293e-93
7.8058427e-94
5.4899113e-99
4.0623501e-97
-1.7855638e-99
-4.4440597e-97
1.9120109e-94
-1.8038421e-94
5.356847e-97
5.0090245e-97
6.1961724e-93
2.8263464e-95
-1.6810509e-99
-3.5097702e-97
-4.1499464e-97
-1.2000219e-97
8.0400918e-95
4.8488711e-94
5.2280422e-96
-1.9095718e-97
-1.8042897e-97
1.4838951e-96
-9.7454108e-95
-4.9349409e-96
3.3539201e-96
9.6946525e-99
5.8849624e-97
4.9661473e-99
-2.5564431e-98
3.929586e-104
-2.6693244e-08
4.9978378e-19
-1.1845715e-29
9.3272429e-40
3.5847561e-49
1.2474125e-58
2.002948e-67
-3.5557749e-75
8.0790768e-83
-2.7910083e-89
-7.6381015e-96
-6.7293697e-100
-3.6107499e-105
-1.3320763e-102
3.3829491e-105
1.0552441e-102
-1.407134e-100
1.9005536e-100
-5.98802e-103
-3.8053596e-103
-1.1833447e-98
-2.049102e-101
3.5057912e-105
6.1622525e-103
6.3527569e-103
7.9547619e-104
4.1045662e-99
-2.565674e-99
-1.7850802e-101
1.6724718e-103
7.1664111e-103
-1.2678711e-101
-8.4473761e-100
9.5009459e-102
6.4013317e-102
-8.3359156e-103
2.1207024e-102
-2.1830161e-105
2.2132053e-104
7.0246981e-110
-2.2501744e-08
3.5608444e-19
-6.8715645e-30
3.8946411e-40
1.9066444e-49
5.4056697e-59
5.8196134e-68
-2.0495911e-75
3.4481776e-83
-4.9355973e-90
-2.2238169e-96
-9.5097351e-103
-4.0143824e-109
3.5208314e-108
-3.5126067e-111
-9.6622489e-109
2.2970651e-106
-1.9315082e-106
8.5198707e-109
5.9290051e-109
4.9280149e-104
2.2549983e-107
-1.4310934e-110
-1.9571823e-109
-8.5428908e-109
-2.8196233e-109
-3.7458602e-105
4.5975301e-105
8.4852662e-107
1.6985677e-108
-1.6487301e-108
1.8055711e-107
-2.1900252e-104
1.2268361e-105
-1.2864982e-107
8.7601179e-109
-1.4479872e-107
3.5966189e-111
-6.6262235e-111
-9.3431702e-116
-1.8993768e-08
2.5486695e-19
-4.0439266e-30
1.7043082e-40
1.598828e-49
3.8002091e-59
2.8850407e-68
1.2468443e-75
-1.6814305e-83
1.2112002e-90
4.1345635e-97
1.5666767e-103
7.9719621e-110
-1.065671e-113
6.7182209e-117
1.5595313e-114
-1.761511e-112
1.7134219e-112
-5.9806993e-115
-6.4776736e-115
-7.8583947e-110
-1.5592183e-113
1.1617921e-116
3.2177689e-115
1.2411256e-114
4.4733956e-115
1.2670428e-110
-1.0243667e-110
-1.3564963e-112
-9.0406084e-115
4.4248672e-114
-4.2775521e-112
1.8097318e-109
2.0628325e-110
1.9687092e-113
-4.9084649e-114
6.3294548e-113
-6.1602288e-117
1.323877e-117
1.1566337e-121
-1.6041133e-08
1.8300887e-19
-2.4072745e-30
7.7356892e-41
-1.7859481e-49
-3.6565714e-59
-2.0371036e-68
-1.9122193e-76
2.1583388e-84
-1.0063579e-91
-7.1076715e-98
-2.3196643e-104
-1.0746159e-110
-4.4838313e-117
-1.0612628e-122
-5.215868e-121
2.8933816e-118
-2.3579842e-118
1.4052882e-120
6.5160114e-121
9.6864033e-116
2.6624448e-119
-9.205649e-123
-8.5077265e-121
-1.8958494e-120
-9.6631953e-121
-8.667769e-117
7.7280283e-117
1.8163045e-118
4.5639814e-120
-1.1188849e-119
1.2441211e-117
-1.7324296e-114
-2.8696266e-116
-3.3658912e-118
1.1080088e-119
-1.1558396e-118
3.0780904e-123
-2.2255038e-123
-8.2608081e-128
-1.3545646e-08
1.3167685e-19
-1.4460805e-30
3.6145952e-41
-1.4069797e-50
-2.5475572e-60
-1.0774104e-69
-4.684173e-78
4.6979992e-86
-1.4978187e-93
-6.4187452e-98
-2.1192509e-104
-9.6141723e-111
-4.1683038e-117
-2.929207e-123
9.6430976e-127
-3.9287678e-124
6.0586959e-124
-5.6853361e-126
-1.1640842e-126
-1.1920326e-121
-5.128027e-125
1.300699e-128
5.6264354e-127
4.0499803e-126
5.5652482e-127
1.1926624e-122
-5.2998868e-123
-4.7958357e-124
-2.9274185e-126
1.0778665e-124
-8.0539918e-123
7.8375468e-121
4.6286422e-122
7.8818616e-124
-3.0706261e-125
9.7488518e-125
-3.4019982e-129
-7.0793899e-129
2.0620626e-134
-1.1434712e-08
9.4871236e-20
-8.7508605e-31
1.7293354e-41
-3.1597226e-51
-5.1998599e-61
-1.7148481e-70
-4.2644375e-79
4.0785426e-87
-9.4227155e-95
4.5905517e-101
1.5877335e-107
9.3053146e-114
4.5854026e-120
2.4994387e-126
4.378393e-133
3.4127588e-130
-5.8887172e-131
1.9109746e-133
1.2429569e-132
1.1680113e-127
1.4552747e-131
-2.2177598e-134
-3.0029266e-133
-4.4435775e-132
-1.0510587e-132
-9.3721719e-129
1.2392001e-128
2.8724167e-130
4.6117608e-132
-2.8809839e-131
8.074819e-129
-6.0767687e-126
-5.7734689e-128
-2.5929934e-129
3.3094152e-131
-7.1325489e-131
1.5051401e-135
-1.0874593e-133
1.4855712e-140
-9.6523942e-09
6.8434258e-20
-5.3292847e-31
8.4402355e-42
-9.0837733e-52
-1.39903e-61
-3.6860335e-71
-5.8355106e-80
5.8258143e-88
-1.0045222e-95
2.0399201e-102
8.1401684e-109
3.3281041e-115
2.1750709e-121
1.0618571e-127
1.0261441e-133
-2.9240163e-136
1.9220753e-136
-1.2740617e-138
-8.4098501e-139
-1.2178162e-133
-3.4243045e-137
2.8699961e-140
8.6708753e-139
8.9419606e-138
8.5828292e-139
4.7193084e-134
-1.3594325e-134
-4.0162514e-136
-5.3394107e-138
7.164779e-137
-1.6984323e-134
5.2090707e-132
1.99681e-133
4.426668e-135
-1.4433485e-136
2.6912384e-137
-1.0765801e-141
8.5261316e-140
-1.6633264e-146
-8.1517829e-09
4.9429562e-20
-3.2642444e-31
4.1910037e-42
-2.9539885e-52
-4.4066239e-62
-9.4752931e-72
-1.0195566e-80
1.2423629e-88
-1.7177236e-96
1.8098106e-103
6.2320992e-110
3.0977291e-116
1.2418071e-122
1.0218241e-128
8.4573378e-135
4.8566201e-141
-2.3319278e-143
3.8755969e-145
7.4363362e-145
1.8380301e-139
2.1592857e-143
-1.4633422e-146
7.5162654e-147
-7.3587625e-144
-1.0235793e-144
-2.1741511e-141
7.0421135e-141
8.8579131e-143
8.4436516e-144
-5.8389139e-143
4.8436924e-141
-4.7547293e-138
-5.0149707e-139
-1.8335718e-141
1.9836524e-142
-4.0585487e-143
-2.1524891e-148
-7.1450516e-146
1.944753e-152
-6.8917088e-09
3.575968e-20
-2.0101483e-31
2.1129855e-42
-1.038547e-52
-1.5653624e-62
-2.8012968e-72
-2.1497977e-81
4.6851257e-89
-5.2664708e-97
3.3489555e-104
1.7294153e-110
9.9858356e-117
8.766454e-123
9.9095201e-129
5.9396948e-135
7.6564543e-141
6.1387213e-147
-1.3938786e-150
-1.0955781e-151
-8.4237937e-146
-6.355998e-150
1.6207078e-152
5.4940711e-151
3.5296038e-150
1.191959e-150
2.3718164e-146
-1.1748789e-146
-3.5439127e-148
-1.0204271e-149
7.6189299e-149
-1.3835104e-146
1.0393729e-143
7.9351338e-145
5.21722e-147
-1.2781071e-148
1.3974555e-149
-7.4906159e-154
2.9712047e-152
-6.1334112e-158
-5.8345283e-09
2.5914131e-20
-1.2439414e-31
1.0796737e-42
-3.860704e-53
-6.228818e-63
-9.4431208e-73
-5.3616851e-82
-3.8772558e-89
3.6961072e-97
-1.6240526e-104
-2.2443679e-110
-9.9957437e-117
-9.2032216e-123
-4.7869243e-129
-4.0007983e-135
-3.7668095e-141
-1.3156414e-146
-1.2886369e-152
1.2106919e-156
3.8019423e-151
2.7676761e-155
8.6320532e-160
-6.5739951e-158
-1.617811e-155
-1.2730174e-156
6.588857e-153
1.5821792e-152
3.6799353e-154
3.7510097e-156
-4.2198093e-155
1.2994204e-152
-5.8712994e-150
-1.5809761e-151
-6.5232212e-153
9.7640495e-155
-1.5895474e-155
1.1516363e-158
-2.0459316e-158
-1.9260644e-164
-4.947604e-09
1.8812488e-20
-7.7322711e-32
5.5827146e-43
-1.4977865e-53
-2.8302388e-63
-3.6971835e-73
-1.5998969e-82
-1.5306646e-90
1.2777457e-98
-4.0181874e-106
9.4538287e-112
5.0565851e-118
5.0490598e-124
6.7822968e-130
8.4313218e-136
9.7870901e-142
8.5483221e-148
6.3203783e-154
2.7545591e-159
1.9522901e-158
1.7916346e-161
7.3549299e-164
2.2477406e-163
1.8778407e-161
4.3441085e-164
8.6164407e-158
-4.9173298e-159
-2.5626827e-160
-1.5249384e-162
5.6328939e-161
-1.5934298e-158
7.496613e-156
9.4027204e-157
6.4157164e-159
-5.9921587e-161
2.555218e-162
-2.1890403e-163
1.0844273e-163
9.5968077e-171
-4.203053e-09
1.3681571e-20
-4.8257182e-32
2.9171679e-43
-6.0125406e-54
-1.5805885e-63
-1.8086991e-73
-6.1076834e-83
-2.6490028e-91
2.0267336e-99
-4.7491769e-107
2.0048145e-113
1.391715e-119
3.9671713e-125
1.2787211e-130
1.7278082e-136
3.5741147e-142
8.1834916e-148
2.7431415e-153
3.3904386e-159
1.5695567e-163
3.8529333e-167
-1.8468121e-169
3.539507e-169
2.5926522e-167
-1.2073385e-168
1.8927631e-163
3.4362354e-165
-7.9759494e-167
5.1750898e-168
8.4550952e-168
7.0898513e-165
-3.3849506e-162
-1.0536011e-162
1.3655956e-165
7.5179338e-167
-1.3943754e-167
2.7374769e-169
1.6330589e-169
1.3807819e-176
-3.5779951e-09
9.9702137e-21
-3.0233537e-32
1.5389306e-43
-2.4831614e-54
-1.5484078e-63
-1.5772658e-73
-4.2455165e-83
-1.0586267e-91
7.8010862e-100
-1.4249267e-107
2.4282522e-114
1.9300891e-120
3.579297e-126
5.1309166e-130
1.7133517e-135
-4.9992506e-141
6.404165e-146
1.1854391e-151
-6.9769169e-157
2.1150631e-162
6.9860245e-168
-2.070666e-173
5.4019661e-174
4.9929592e-172
4.6778836e-174
9.7633736e-169
-1.2514274e-169
-8.1207655e-171
4.0371079e-174
1.5472132e-172
-5.6468318e-170
4.4633318e-167
-5.0600536e-169
1.1229231e-170
7.3486465e-172
6.9350723e-174
4.2910814e-174
6.7444987e-176
5.017784e-183
-3.0536903e-09
7.2839119e-21
-1.901697e-32
8.1917131e-44
-1.0509056e-54
7.2273294e-64
6.6639852e-74
1.456547e-83
2.3451822e-92
-1.7577467e-100
2.5810722e-108
-2.7601828e-115
-1.7537575e-121
-4.2191834e-127
-2.5601279e-132
8.8175434e-138
1.3825465e-142
-4.9483041e-148
1.0620877e-153
-1.5198498e-158
2.1318509e-162
-1.0384742e-166
-2.4932661e-172
1.1067521e-177
-1.2456072e-177
-6.5546886e-179
-3.7461365e-174
7.063297e-175
2.2477933e-176
-1.8261841e-178
5.3576805e-178
4.0772793e-176
1.3160225e-171
-1.8224021e-174
-4.8293278e-176
2.3395795e-177
-1.2757784e-179
-4.0054991e-180
2.2969065e-182
1.6384471e-189
-2.6145848e-09
5.3389229e-21
-1.2015011e-32
4.3991805e-44
-4.5456792e-55
8.2242915e-65
6.9820818e-75
1.2598636e-84
1.398764e-93
-1.1695673e-101
1.4322473e-109
-1.1061003e-116
-2.1756361e-121
-3.9236453e-127
7.8037244e-133
-1.4138641e-138
3.8496831e-144
1.9355606e-149
-4.6905393e-155
6.8256227e-161
-8.0950393e-167
1.1823556e-171
-2.4571262e-177
2.0520162e-183
1.8483019e-183
1.0950519e-184
5.4996975e-180
6.6404343e-180
-6.5755427e-182
4.921591e-184
2.8232333e-183
-1.1385337e-181
-1.1810729e-176
-2.3305267e-180
1.255425e-181
-2.6912389e-183
1.6558405e-185
3.221944e-186
4.2545989e-189
3.4664801e-196
-2.2476384e-09
3.9304338e-21
-7.6313667e-33
2.3842587e-44
-2.0064574e-55
1.8588957e-65
1.4803204e-75
2.239248e-85
1.8014977e-94
-1.9615712e-102
2.0347192e-110
-1.0576715e-117
1.6193688e-123
3.315015e-129
-2.2363603e-134
1.8526615e-140
-8.2008728e-146
8.3642357e-152
-7.0945372e-158
6.2190653e-164
-2.4339893e-169
7.2872809e-175
-7.4016191e-181
7.9967042e-187
-1.7071977e-189
-3.0597146e-190
-7.4326255e-186
-6.3009821e-186
1.1006101e-187
-1.8263185e-189
-5.4316945e-189
4.7074148e-187
5.3717417e-182
1.3071679e-185
-1.5646106e-187
2.3038213e-189
-8.0851592e-192
-5.8813424e-192
7.2296184e-196
6.0974986e-203
-1.941767e-09
2.910131e-21
-4.878643e-33
1.3051039e-44
-9.0310534e-56
5.1761329e-66
3.9465725e-76
5.0755243e-86
3.0615698e-95
-6.8374034e-103
6.2030976e-111
-2.4711472e-118
1.3083856e-124
1.1480199e-129
-2.2575694e-135
2.9793225e-141
-2.40268e-147
2.5385597e-153
-2.3753407e-159
3.373067e-165
-2.6532588e-171
1.8098546e-177
-2.0875503e-183
4.136715e-189
-1.8497236e-195
2.1345034e-196
9.1712306e-192
5.4844834e-192
-8.9547633e-194
1.6339932e-195
5.1736597e-195
-5.7112392e-193
-5.7568559e-188
-4.0102939e-191
1.4104163e-193
-1.5319548e-195
4.5619712e-198
1.9136112e-197
1.0468916e-202
8.9657182e-210
-1.6875688e-09
2.1706269e-21
-3.1442274e-33
7.2242204e-45
-4.1453361e-56
1.6130017e-66
1.2060068e-76
1.3364397e-86
6.2192437e-96
2.6586309e-103
-2.1629796e-111
6.7226622e-119
-2.0154158e-125
1.1050966e-130
-1.2810604e-136
2.566198e-142
-1.8070478e-148
1.7582664e-154
-1.4432586e-160
1.0369591e-166
-6.4975339e-173
7.9885384e-179
-6.8428186e-185
4.4388505e-191
-2.3855336e-197
-1.7043508e-202
-5.5343438e-198
-4.4114364e-198
7.5475266e-200
-1.7603617e-201
-7.1260478e-201
3.6724767e-199
9.4618067e-194
4.3015505e-197
-1.0882265e-199
6.2980316e-202
-1.7771669e-204
-1.7497461e-203
1.1770227e-209
1.1244685e-216
-1.47703e-09
1.6341341e-21
-2.0470317e-33
4.0508631e-45
-1.9420096e-56
5.4284738e-67
4.0975142e-77
3.9628998e-87
1.4566328e-96
1.2272804e-104
-9.2226626e-113
2.260013e-120
-4.8622657e-127
5.6792476e-133
-5.9931444e-139
3.653895e-145
-2.2901457e-151
2.1918419e-157
-1.2302776e-163
7.440271e-170
-4.6403608e-176
2.5066097e-182
-1.6028413e-188
6.855995e-195
-4.5282777e-201
2.45736e-207
3.7700387e-204
2.1863985e-204
-5.9989161e-206
1.6877477e-207
5.7272875e-207
-3.0472982e-205
-7.8098317e-200
-3.6622094e-203
6.0261629e-206
-2.3064533e-208
5.5137416e-211
5.1374117e-209
7.3402212e-216
4.3527536e-223
-1.3033888e-09
1.2444339e-21
-1.3496155e-33
2.3063323e-45
-9.3004431e-57
1.9411006e-67
1.5358235e-77
1.3127484e-87
3.887434e-97
1.5936687e-105
-1.1495888e-113
2.3076602e-121
-3.2605414e-128
3.030679e-134
-2.5902687e-140
1.3935438e-146
-6.571199e-153
2.4440884e-159
-1.2186364e-165
5.4350845e-172
-2.1198223e-178
1.2494647e-184
-6.4237705e-191
3.2990969e-197
-1.4823402e-203
1.1058642e-209
-1.5437544e-210
-1.261481e-210
3.3034255e-212
-8.5656351e-214
-3.2324045e-213
2.5510639e-211
6.5068919e-206
1.9308366e-209
-3.1584305e-212
6.6074279e-215
-1.548296e-217
-2.9297702e-214
-2.891421e-221
-1.5092632e-228
-1.1609555e-09
9.6093368e-22
-9.0373948e-34
1.3371209e-45
-4.5639113e-57
7.3179314e-68
6.3967415e-78
4.8930971e-88
1.1885291e-97
2.9356789e-106
-2.1153908e-114
3.5576679e-122
-3.5281535e-129
1.7801708e-135
-9.9408277e-142
4.0412605e-148
-1.6838575e-154
8.0942033e-161
-2.8116693e-167
1.2476426e-173
-5.7448028e-180
2.9983155e-186
-1.2730461e-192
4.1227289e-199
-1.6616297e-205
5.4241857e-212
6.5064868e-217
5.1780647e-217
-1.4695687e-218
3.9547495e-220
1.3417151e-219
-1.4668128e-217
-4.4574704e-212
-1.0428839e-215
1.0000412e-218
-1.84904e-221
3.9214177e-224
1.1129994e-219
1.0146678e-226
5.2083596e-234
-1.0449748e-09
7.5437402e-22
-6.1670449e-34
7.9213058e-46
-2.3019067e-57
2.899588e-68
3.0401252e-78
2.1072918e-88
4.2672507e-98
7.0800706e-107
-5.4091905e-115
7.8778183e-123
-6.0156637e-130
2.4935592e-136
-1.4602168e-142
5.3545553e-149
-1.9874569e-155
6.4781526e-162
-2.2125955e-168
1.009125e-174
-3.7994003e-181
1.2503602e-187
-4.0576458e-194
1.3849647e-200
-5.1934001e-207
1.8900798e-213
-6.1035586e-220
-2.20881e-223
6.6285557e-225
-1.8487753e-226
-5.0226705e-226
9.1577972e-224
1.5283419e-218
5.0176188e-222
-2.7908579e-225
3.7635539e-228
-9.2214026e-231
2.8913214e-225
2.9695773e-232
1.4964135e-239
-9.5149453e-10
6.0370061e-22
-4.3042836e-34
4.8140966e-46
-1.1977758e-57
1.2070721e-68
1.7726851e-78
1.1278739e-88
1.9323532e-98
2.2941463e-107
-2.0071719e-115
2.5340426e-123
-1.5694795e-130
4.3207271e-137
-1.7112053e-143
6.4738739e-150
-2.1767705e-156
6.0676571e-163
-1.835007e-169
6.4425158e-176
-2.0613033e-182
6.477725e-189
-2.5417924e-195
7.4178007e-202
-2.5222345e-208
7.8697552e-215
-2.7199953e-221
8.3972106e-228
-2.4975489e-231
6.0381609e-233
1.6027293e-232
-4.2512933e-230
-5.8910881e-225
-1.9768106e-228
8.5302325e-232
-7.3706042e-235
4.042095e-237
-1.2473991e-230
-1.1437976e-237
-5.6042103e-245
-8.7725234e-10
4.9379752e-22
-3.0844601e-34
3.0143695e-46
-6.4572016e-58
5.2872521e-69
1.6892223e-78
9.9986676e-89
1.4699108e-98
1.3065434e-107
-1.4997472e-115
1.7258117e-123
-7.9914601e-131
1.789731e-137
-6.039519e-144
1.9256968e-150
-4.8836596e-157
1.2188645e-163
-3.3080972e-170
9.9389217e-177
-2.6980958e-183
7.1261129e-190
-1.8919631e-196
5.0154358e-203
-1.4585403e-209
3.8818117e-216
-1.0136241e-222
2.7084762e-229
-8.6763572e-236
-2.0261188e-239
-4.970721e-239
1.4831042e-236
2.5981075e-231
5.8998191e-235
-1.9538597e-238
1.2447422e-241
-1.0497288e-242
5.6523758e-236
4.8202482e-243
2.3795886e-250
-8.1955584e-10
4.1383471e-22
-2.2780334e-34
1.9533351e-46
-3.6230121e-58
2.443269e-69
-1.5049623e-78
-8.4049772e-89
-1.0745168e-98
-7.3947805e-108
1.6396535e-115
-1.7231223e-123
6.8458196e-131
-1.2676818e-137
3.847489e-144
-1.030594e-150
2.8225695e-157
-7.3401006e-164
2.0074533e-170
-4.9894987e-177
1.1483746e-183
-2.9178442e-190
6.8150763e-197
-1.6581725e-203
4.154047e-210
-1.0166227e-216
2.5230817e-223
-6.3018296e-230
1.5875112e-236
-4.4190018e-243
1.4057245e-245
-4.1240409e-243
-7.645196e-238
-1.5389594e-241
3.9086939e-245
-1.9112342e-248
-2.1195137e-247
1.2566836e-240
1.2281978e-247
6.1544997e-255
-7.7618682e-10
3.5607873e-22
-1.7400877e-34
1.3156654e-46
-2.1254448e-58
1.1950494e-69
-1.5785905e-79
-8.4474564e-90
-9.5124179e-100
-5.2123359e-109
-5.0896063e-116
5.065918e-124
-1.6805836e-131
2.5914488e-138
-6.2046884e-145
1.5833099e-151
-3.5925639e-158
7.5951644e-165
-1.6224918e-171
3.5608344e-178
-7.3961301e-185
1.6265479e-191
-3.9797365e-198
8.2396119e-205
-1.9067699e-211
4.2862394e-218
-9.584254e-225
2.111826e-231
-4.7589441e-238
1.1026657e-244
-3.1753785e-251
1.0490411e-249
2.1023272e-244
3.447096e-248
-6.9167884e-252
2.5165623e-255
-4.9274333e-253
2.9378845e-246
2.7494186e-253
1.4533695e-260
-7.4528238e-10
3.150161e-22
-1.3787546e-34
9.2469131e-47
-1.309312e-58
6.207959e-70
-4.1901082e-80
-2.185233e-90
-2.1954882e-100
-9.8025221e-110
-1.1822606e-117
1.1409796e-125
-3.2447724e-133
3.96492e-140
-8.0285939e-147
1.8738834e-153
-3.8848044e-160
7.8774002e-167
-1.6502791e-173
3.1495402e-180
-6.9408449e-187
1.3635785e-193
-2.6126736e-200
5.4014658e-207
-1.2057971e-213
2.3726278e-220
-4.8577035e-227
1.2400553e-233
-3.0024211e-240
6.2076717e-247
-1.4082614e-253
-2.6628688e-256
-4.4384732e-251
-7.2341363e-255
1.043669e-258
-2.9767416e-262
4.1108886e-258
-2.7484932e-251
-2.3371472e-258
-1.2053163e-265
-7.2522811e-10
2.8672157e-22
-1.1355351e-34
6.8026443e-47
-8.4997805e-59
3.4353157e-70
-1.4649209e-80
-7.5908061e-91
-6.8906052e-101
-2.560209e-110
-1.4823067e-118
1.4414523e-126
-3.5623142e-134
3.4645746e-141
-6.5964721e-148
1.3515592e-154
-2.5423483e-161
5.0949193e-168
-9.0498955e-175
1.6195516e-181
-2.9316169e-188
5.2163478e-195
-8.5474286e-202
1.5896326e-208
-3.0476121e-215
5.5345227e-222
-1.0871104e-228
2.0144199e-235
-3.8285354e-242
7.7857972e-249
-1.5535457e-255
3.757968e-262
9.1278455e-258
1.2844516e-261
-1.5228498e-265
3.2559851e-269
-7.8253636e-264
5.6700536e-257
4.8157209e-264
2.4281597e-271
-7.1453728e-10
2.6838573e-22
-9.7294894e-35
5.2483735e-47
-5.8293434e-59
2.0293584e-70
-6.0515296e-81
-3.1869287e-91
-2.6476575e-101
-8.3353358e-111
-2.965862e-119
3.0153342e-127
-6.6772433e-135
5.5002364e-142
-9.1953127e-149
1.5271301e-155
-2.5215295e-162
4.3092125e-169
-7.0687759e-176
1.1503145e-182
-1.8867943e-189
3.1277464e-196
-4.9864773e-203
8.6935019e-210
-1.4168627e-216
2.2604486e-223
-3.6891554e-230
6.213301e-237
-1.092882e-243
1.9132732e-250
-3.5800628e-257
6.5005429e-264
-1.9730921e-264
-1.9633669e-268
1.9797294e-272
6.998352e-277
-3.8345334e-269
3.1506299e-262
2.9024511e-269
1.5004541e-276
-7.1172254e-10
2.5795484e-22
-8.6677453e-35
4.2483395e-47
-4.2277393e-59
1.2807334e-70
-2.8401203e-81
-1.5620508e-91
-1.2030412e-101
-3.2635563e-111
-8.0178808e-120
9.1683762e-128
-1.8393248e-135
1.3007033e-142
-1.9760171e-149
3.2133546e-156
-5.0128426e-163
7.3422881e-170
-1.1595735e-176
1.6654326e-183
-2.6355287e-190
4.3561507e-197
-6.1098034e-204
9.6178547e-211
-1.5877975e-217
2.3454813e-224
-3.4616285e-231
5.4656041e-238
-8.2672166e-245
1.2364481e-251
-2.0446491e-258
3.5612827e-265
2.8245105e-271
3.0998824e-275
-2.3554406e-279
-5.9758294e-282
6.6016882e-275
-5.6073183e-268
-5.1719473e-275
-2.60882e-282
-7.1518267e-10
2.5384738e-22
-8.0112373e-35
3.6031915e-47
-3.2399018e-59
8.6271387e-71
-1.4845437e-81
-8.8232333e-92
-6.380254e-102
-1.5146924e-111
-2.7454081e-120
3.8291603e-128
-7.1678462e-136
4.3822893e-143
-6.042703e-150
8.5380361e-157
-1.2645092e-163
1.7191888e-170
-2.5892613e-177
3.7422598e-184
-5.6579192e-191
8.1159421e-198
-1.092185e-204
1.5825747e-211
-2.1270848e-218
2.943034e-225
-4.7370189e-232
6.9551277e-239
-1.0907335e-245
1.6751687e-252
-2.6621987e-259
4.3568537e-266
-6.9520437e-273
9.1894844e-280
1.5288461e-286
6.4678154e-288
-7.3976054e-281
6.7407153e-274
6.0645881e-281
3.1268646e-288
-7.2311523e-10
2.5471698e-22
-7.6524558e-35
3.191933e-47
-2.6164849e-59
6.1853641e-71
-8.5288533e-82
-5.7304887e-92
-3.9405123e-102
-8.3008872e-112
-1.1630023e-120
2.3251097e-128
-4.204802e-136
2.2472072e-143
-2.767171e-150
3.8101751e-157
-5.4043604e-164
6.7893222e-171
-9.5127082e-178
1.3140586e-184
-1.7011731e-191
2.3345585e-198
-3.1293459e-205
4.2991745e-212
-5.5655356e-219
7.8375264e-226
-1.038418e-232
1.4454333e-239
-2.0101299e-246
2.9370203e-253
-4.2786038e-260
6.4350189e-267
-9.6289698e-274
1.1796542e-280
-1.1250636e-287
-5.8207978e-294
7.9457103e-287
-7.2911716e-280
-7.2483745e-287
-3.616522e-294
-7.3349906e-10
2.5925975e-22
-7.5139996e-35
2.9388423e-47
-2.2165977e-59
4.698246e-71
-5.3264978e-82
-4.3168608e-92
-2.8583025e-102
-5.4115055e-112
-6.0634159e-121
2.9251861e-128
-5.1565977e-136
2.5074544e-143
-2.8642417e-150
3.590128e-157