/*--------------------------------*- C++ -*----------------------------------*\
  =========                 |
  \\      /  F ield         | OpenFOAM: The Open Source CFD Toolbox
   \\    /   O peration     | Website:  https://openfoam.org
    \\  /    A nd           | Version:  10
     \\/     M anipulation  |
\*---------------------------------------------------------------------------*/
FoamFile
{
    format      ascii;
    class       volVectorField;
    location    "0.14";
    object      U;
}
// * * * * * * * * * * * * * * * * * * * * * * * * * * * * * * * * * * * * * //

dimensions      [0 1 -1 0 0 0 0];

internalField   nonuniform List<vector> 
4000
(
(0 0.018636699 0.47773195)
(0 0.02350857 0.5088604)
(0 0.0081655273 0.50052527)
(0 0.005613291 0.50033638)
(0 0.0042532149 0.50025747)
(0 0.0032535082 0.50016898)
(0 0.0025546828 0.50011968)
(0 0.0020532378 0.50009011)
(0 0.0016753302 0.50006978)
(0 0.0013811145 0.50005536)
(0 0.0011462154 0.50004496)
(0 0.00095429153 0.50003729)
(0 0.00079408632 0.50003156)
(0 0.0006576216 0.50002722)
(0 0.00053906656 0.50002394)
(0 0.00043403806 0.50002146)
(0 0.00033914617 0.50001961)
(0 0.00025168634 0.50001828)
(0 0.00016942322 0.50001739)
(0 9.0432214e-05 0.50001688)
(0 1.2977278e-05 0.50001673)
(0 -6.4596514e-05 0.50001693)
(0 -0.00014395438 0.50001749)
(0 -0.00022686369 0.50001845)
(0 -0.00031530498 0.50001986)
(0 -0.00041160251 0.50002181)
(0 -0.00051859598 0.50002442)
(0 -0.00063987992 0.50002789)
(0 -0.00078015156 0.50003249)
(0 -0.00094574071 0.50003861)
(0 -0.0011454609 0.50004687)
(0 -0.0013919751 0.50005823)
(0 -0.001704035 0.50007414)
(0 -0.0021119949 0.5000971)
(0 -0.0026717772 0.50013484)
(0 -0.0034655228 0.50020242)
(0 -0.0045580427 0.50027153)
(0 -0.0065823937 0.50043377)
(0 -0.017656827 0.5067537)
(0 -0.013588794 0.47975638)
(0 0.037430597 0.44797186)
(0 0.050951429 0.53232591)
(0 0.021964957 0.50804298)
(0 0.016131452 0.50357346)
(0 0.012411609 0.50242324)
(0 0.0095114409 0.50162297)
(0 0.0075162056 0.50115652)
(0 0.0060656748 0.50086577)
(0 0.0049606481 0.50066778)
(0 0.0040965846 0.50052873)
(0 0.0034045255 0.50042871)
(0 0.0028375155 0.50035516)
(0 0.0023631736 0.50030023)
(0 0.0019584084 0.5002588)
(0 0.0016062522 0.50022742)
(0 0.0012939022 0.50020374)
(0 0.0010114257 0.50018611)
(0 0.00075087704 0.50017342)
(0 0.00050567406 0.50016491)
(0 0.00027013898 0.50016007)
(0 3.9143273e-05 0.50015864)
(0 -0.00019220099 0.50016055)
(0 -0.00042881206 0.50016592)
(0 -0.00067590878 0.50017504)
(0 -0.00093933077 0.50018848)
(0 -0.0012259167 0.50020707)
(0 -0.0015440003 0.50023205)
(0 -0.001904098 0.50026521)
(0 -0.0023199013 0.50030918)
(0 -0.0028097615 0.50036786)
(0 -0.0033990657 0.50044718)
(0 -0.0041242032 0.50055661)
(0 -0.0050382693 0.50071126)
(0 -0.0062211477 0.50093672)
(0 -0.0078217339 0.50129461)
(0 -0.010115885 0.50191093)
(0 -0.013097912 0.50282585)
(0 -0.017417588 0.50608165)
(0 -0.038750835 0.52526773)
(0 -0.027890779 0.45022172)
(0 0.039885126 0.40982756)
(0 0.06142075 0.54930908)
(0 0.031975668 0.52188186)
(0 0.024348054 0.5100811)
(0 0.019185758 0.50658879)
(0 0.014969261 0.50452802)
(0 0.011999018 0.50327113)
(0 0.0097645637 0.50245792)
(0 0.008029662 0.50190042)
(0 0.0066586509 0.50150789)
(0 0.0055512954 0.50122452)
(0 0.004638049 0.50101564)
(0 0.0038701611 0.50085937)
(0 0.0032122233 0.50074135)
(0 0.0026378884 0.50065188)
(0 0.0021270903 0.50058429)
(0 0.001664139 0.50053397)
(0 0.001236401 0.50049772)
(0 0.00083335562 0.50047337)
(0 0.00044588981 0.50045954)
(0 6.5748304e-05 0.50045546)
(0 -0.00031494499 0.50046091)
(0 -0.00070411382 0.50047624)
(0 -0.0011101525 0.50050232)
(0 -0.001542422 0.5005407)
(0 -0.0020118329 0.50059376)
(0 -0.0025316005 0.500665)
(0 -0.0031182748 0.5007595)
(0 -0.0037932039 0.50088465)
(0 -0.0045846467 0.50105139)
(0 -0.0055309784 0.50127623)
(0 -0.0066862011 0.50158532)
(0 -0.0081275424 0.50202078)
(0 -0.0099591252 0.50265102)
(0 -0.012353771 0.50361573)
(0 -0.015699527 0.50520031)
(0 -0.019857395 0.50785569)
(0 -0.025170952 0.51641295)
(0 -0.047403142 0.53912908)
(0 -0.030847594 0.41489419)
(0 0.034787688 0.36174379)
(0 0.063828301 0.55456743)
(0 0.039367736 0.537471)
(0 0.030072006 0.51849326)
(0 0.024100831 0.51197771)
(0 0.019267803 0.50849932)
(0 0.015724661 0.50626368)
(0 0.012943177 0.50475447)
(0 0.010733393 0.50370308)
(0 0.0089585928 0.50295445)
(0 0.0075057272 0.5024091)
(0 0.0062951139 0.50200455)
(0 0.0052689303 0.50170051)
(0 0.0043839012 0.50147007)
(0 0.0036071917 0.50129488)
(0 0.0029133997 0.50116225)
(0 0.0022824002 0.50106333)
(0 0.0016978134 0.50099198)
(0 0.0011458793 0.50094401)
(0 0.00061459809 0.50091672)
(0 9.3049038e-05 0.50090866)
(0 -0.00042920924 0.50091941)
(0 -0.00096267956 0.50094959)
(0 -0.0015184535 0.50100093)
(0 -0.0021088327 0.50107641)
(0 -0.0027480459 0.50118061)
(0 -0.0034531559 0.50132025)
(0 -0.0042452645 0.50150501)
(0 -0.0051511771 0.50174889)
(0 -0.0062056998 0.50207237)
(0 -0.0074547294 0.50250594)
(0 -0.008960527 0.50309658)
(0 -0.010810497 0.50391904)
(0 -0.013111251 0.50508969)
(0 -0.015998451 0.50680805)
(0 -0.01987476 0.50946959)
(0 -0.024708451 0.51427762)
(0 -0.031089342 0.52824783)
(0 -0.050299328 0.54407939)
(0 -0.028430414 0.37240817)
(0 0.027419916 0.31486558)
(0 0.062301014 0.5502505)
(0 0.044596511 0.55146732)
(0 0.033965839 0.52748849)
(0 0.027447773 0.51772296)
(0 0.022438901 0.51291955)
(0 0.018620918 0.50973039)
(0 0.015512963 0.5074909)
(0 0.012992053 0.50589759)
(0 0.010929325 0.50474398)
(0 0.0092133767 0.5038927)
(0 0.0077653332 0.50325527)
(0 0.0065251846 0.50277278)
(0 0.0054464817 0.50240503)
(0 0.0044931515 0.50212421)
(0 0.0036367038 0.50191087)
(0 0.0028541691 0.50175134)
(0 0.0021265823 0.50163602)
(0 0.0014378233 0.50155836)
(0 0.00077370504 0.50151414)
(0 0.0001212359 0.50150105)
(0 -0.00053204203 0.50151842)
(0 -0.0011986567 0.50156725)
(0 -0.0018917833 0.50165024)
(0 -0.0026259297 0.50177206)
(0 -0.0034177061 0.50193988)
(0 -0.0042867711 0.5021641)
(0 -0.0052570421 0.50245959)
(0 -0.0063583039 0.50284764)
(0 -0.0076283669 0.50335887)
(0 -0.0091155323 0.50403794)
(0 -0.010882274 0.5049514)
(0 -0.013015467 0.50620207)
(0 -0.015618977 0.50794487)
(0 -0.018780677 0.51040622)
(0 -0.022862141 0.51405813)
(0 -0.028144884 0.52114885)
(0 -0.035672972 0.53932781)
(0 -0.050449538 0.54157312)
(0 -0.024076873 0.33060337)
(0 0.019833328 0.27523023)
(0 0.057973005 0.53976521)
(0 0.047339819 0.56256537)
(0 0.036455615 0.53660411)
(0 0.029614619 0.52350757)
(0 0.024654773 0.51740278)
(0 0.020753428 0.51336133)
(0 0.017489918 0.51044182)
(0 0.014795719 0.50832055)
(0 0.012549854 0.5067573)
(0 0.010650773 0.50558749)
(0 0.0090264568 0.504702)
(0 0.0076192582 0.50402589)
(0 0.0063832863 0.50350696)
(0 0.0052820516 0.50310848)
(0 0.004286054 0.50280441)
(0 0.0033710336 0.50257623)
(0 0.0025166217 0.50241085)
(0 0.0017052619 0.50229925)
(0 0.00092133394 0.5022356)
(0 0.00015042691 0.50221668)
(0 -0.00062132611 0.5022416)
(0 -0.001407866 0.50231172)
(0 -0.002223783 0.50243077)
(0 -0.0030850098 0.50260519)
(0 -0.0040095714 0.50284478)
(0 -0.005018482 0.50316367)
(0 -0.0061368478 0.50358187)
(0 -0.00739526 0.50412758)
(0 -0.00883169 0.50484072)
(0 -0.010493449 0.50577831)
(0 -0.012438877 0.50702266)
(0 -0.014748226 0.50869694)
(0 -0.017523367 0.51098282)
(0 -0.020818332 0.51412277)
(0 -0.024929373 0.51873472)
(0 -0.030465253 0.52823327)
(0 -0.038584062 0.54872717)
(0 -0.048474732 0.5340184)
(0 -0.019056535 0.2940058)
(0 0.013078452 0.24259896)
(0 0.051778768 0.52523155)
(0 0.047678828 0.57025164)
(0 0.037728084 0.54552326)
(0 0.030822759 0.52928861)
(0 0.026046295 0.52180075)
(0 0.022211465 0.51699537)
(0 0.018928425 0.51346942)
(0 0.016169943 0.51085956)
(0 0.013828144 0.50890583)
(0 0.01181651 0.50742491)
(0 0.010072424 0.50629179)
(0 0.0085432265 0.5054187)
(0 0.007186134 0.50474351)
(0 0.0059663104 0.50422186)
(0 0.0048549008 0.50382182)
(0 0.0038276798 0.50352041)
(0 0.0028639375 0.50330127)
(0 0.0019455477 0.50315304)
(0 0.0010561872 0.50306834)
(0 0.000180672 0.50304307)
(0 -0.00069566537 0.50307609)
(0 -0.0015875667 0.50316912)
(0 -0.00251038 0.5033269)
(0 -0.003480715 0.50355756)
(0 -0.004517122 0.5038734)
(0 -0.0056408863 0.50429201)
(0 -0.0068769704 0.50483804)
(0 -0.0082551297 0.50554575)
(0 -0.0098114857 0.50646293)
(0 -0.011590287 0.50765675)
(0 -0.013643836 0.50922207)
(0 -0.016041678 0.51129687)
(0 -0.018879211 0.51408059)
(0 -0.022187904 0.51784216)
(0 -0.026208339 0.52347319)
(0 -0.031792051 0.53537778)
(0 -0.039700507 0.55590389)
(0 -0.044853064 0.52287981)
(0 -0.014079439 0.26273763)
(0 0.0077652187 0.21559818)
(0 0.04480275 0.50805713)
(0 0.046217726 0.57438875)
(0 0.037998165 0.55374815)
(0 0.031252988 0.53495952)
(0 0.026734292 0.52602878)
(0 0.023083569 0.52053478)
(0 0.019889217 0.51648255)
(0 0.017152622 0.51343412)
(0 0.014786483 0.51112142)
(0 0.012722345 0.50934875)
(0 0.010908117 0.50797882)
(0 0.0092978559 0.50691404)
(0 0.0078535514 0.50608447)
(0 0.0065434172 0.50543953)
(0 0.0053404536 0.50494238)
(0 0.0042215061 0.50456623)
(0 0.0031663993 0.50429183)
(0 0.0021571852 0.50410575)
(0 0.0011774932 0.50399918)
(0 0.00021196074 0.50396725)
(0 -0.00075431388 0.50400857)
(0 -0.0017363048 0.50412521)
(0 -0.0027495166 0.5043228)
(0 -0.0038105724 0.50461102)
(0 -0.0049377889 0.50500437)
(0 -0.0061518396 0.50552347)
(0 -0.0074765193 0.50619692)
(0 -0.0089395696 0.50706406)
(0 -0.010573845 0.50817906)
(0 -0.012418988 0.50961718)
(0 -0.014520195 0.51148348)
(0 -0.016933707 0.51392686)
(0 -0.019741308 0.51715616)
(0 -0.0229591 0.52148445)
(0 -0.026808998 0.52818821)
(0 -0.032279555 0.54222155)
(0 -0.039330459 0.56051671)
(0 -0.040280427 0.50916993)
(0 -0.009696132 0.23597835)
(0 0.0039998358 0.19362782)
(0 0.037873371 0.48955459)
(0 0.043641565 0.57525563)
(0 0.037517381 0.56084061)
(0 0.03111082 0.54035851)
(0 0.026872272 0.53000894)
(0 0.023473412 0.52389683)
(0 0.020441527 0.51940496)
(0 0.017790559 0.51597778)
(0 0.015456439 0.5133467)
(0 0.013388807 0.51130986)
(0 0.011546268 0.50972143)
(0 0.0098906109 0.50847675)
(0 0.0083895538 0.50750016)
(0 0.0070152174 0.5067363)
(0 0.00574328 0.50614444)
(0 0.0045524081 0.50569475)
(0 0.0034236308 0.50536559)
(0 0.0023397812 0.50514177)
(0 0.0012849897 0.50501329)
(0 0.00024422704 0.50497459)
(0 -0.00079714842 0.5050241)
(0 -0.0018538472 0.50516417)
(0 -0.0029410149 0.50540121)
(0 -0.004074734 0.50574618)
(0 -0.0052724796 0.50621545)
(0 -0.0065536352 0.50683215)
(0 -0.0079400758 0.50762808)
(0 -0.0094567244 0.5086466)
(0 -0.011132247 0.5099468)
(0 -0.01300058 0.51161001)
(0 -0.015099315 0.51374889)
(0 -0.017471135 0.51651926)
(0 -0.020180335 0.52013229)
(0 -0.023234926 0.52496789)
(0 -0.026875732 0.53274483)
(0 -0.032114494 0.54839035)
(0 -0.037907077 0.56257028)
(0 -0.035360061 0.49391612)
(0 -0.0061878119 0.21340482)
(0 0.0015457211 0.17622061)
(0 0.031470185 0.47085406)
(0 0.040478477 0.57341242)
(0 0.036501541 0.56659311)
(0 0.030583761 0.54537339)
(0 0.026620444 0.53370065)
(0 0.023493471 0.52702551)
(0 0.020663131 0.52217828)
(0 0.018138811 0.51843804)
(0 0.015876907 0.51553504)
(0 0.013842955 0.5132671)
(0 0.012005464 0.5114836)
(0 0.010334084 0.5100755)
(0 0.0088025004 0.50896332)
(0 0.007387125 0.50808834)
(0 0.0060667847 0.50740702)
(0 0.0048224456 0.5068872)
(0 0.0036368073 0.50650544)
(0 0.0024939307 0.50624514)
(0 0.001378875 0.50609536)
(0 0.00027735487 0.50604999)
(0 -0.00082460696 0.50610729)
(0 -0.0019410522 0.50626985)
(0 -0.0030863538 0.50654471)
(0 -0.0042756224 0.50694387)
(0 -0.0055250396 0.50748517)
(0 -0.006852225 0.50819366)
(0 -0.0082766425 0.50910357)
(0 -0.0098199388 0.51026121)
(0 -0.0115062 0.51172915)
(0 -0.013363228 0.51359275)
(0 -0.015421177 0.5159695)
(0 -0.017710728 0.51901801)
(0 -0.020279 0.52294945)
(0 -0.023133321 0.5282398)
(0 -0.026552278 0.5370433)
(0 -0.031458089 0.55365748)
(0 -0.035801323 0.56235235)
(0 -0.030491391 0.47806013)
(0 -0.0035773942 0.19479719)
(0 7.107911e-05 0.16262923)
(0 0.025837333 0.4527225)
(0 0.037096604 0.56947525)
(0 0.035121504 0.57098354)
(0 0.029811808 0.54995462)
(0 0.026111644 0.53710779)
(0 0.023245959 0.52990337)
(0 0.020630393 0.52477101)
(0 0.018254632 0.52078111)
(0 0.016090139 0.51765345)
(0 0.01411557 0.51518943)
(0 0.012308008 0.51323686)
(0 0.010644312 0.51168455)
(0 0.0091038046 0.51045079)
(0 0.0076671641 0.50947481)
(0 0.006316517 0.50871125)
(0 0.0050353584 0.50812637)
(0 0.0038083321 0.5076954)
(0 0.002621022 0.50740077)
(0 0.0014597189 0.50723081)
(0 0.00031118605 0.507179)
(0 -0.00083758427 0.50724348)
(0 -0.0019996584 0.50742701)
(0 -0.0031883303 0.50773712)
(0 -0.0044174337 0.50818657)
(0 -0.005701559 0.50879428)
(0 -0.0070562849 0.50958666)
(0 -0.0084984245 0.5105996)
(0 -0.010046208 0.51188136)
(0 -0.01171921 0.51349668)
(0 -0.01353931 0.51553322)
(0 -0.015529822 0.51811076)
(0 -0.017711453 0.52138757)
(0 -0.020116781 0.52557821)
(0 -0.022759342 0.53128576)
(0 -0.025954509 0.54103098)
(0 -0.030440848 0.55793269)
(0 -0.033306404 0.56025911)
(0 -0.025926013 0.46229144)
(0 -0.0017505621 0.17969577)
(0 -0.00072384965 0.15203048)
(0 0.021070868 0.43559211)
(0 0.03374618 0.5639937)
(0 0.033520205 0.57408522)
(0 0.028895447 0.55408154)
(0 0.025445221 0.54025443)
(0 0.022814335 0.53254077)
(0 0.020410114 0.52717508)
(0 0.018190887 0.52299086)
(0 0.016137087 0.51968227)
(0 0.014237921 0.51705594)
(0 0.012477555 0.51496048)
(0 0.010839023 0.51328398)
(0 0.0093066193 0.51194384)
(0 0.0078649845 0.51087827)
(0 0.0064994433 0.51004089)
(0 0.0051960434 0.50939703)
(0 0.0039414798 0.50892111)
(0 0.0027230167 0.50859489)
(0 0.001528362 0.50840622)
(0 0.00034552891 0.5083483)
(0 -0.00083731317 0.50841918)
(0 -0.0020320461 0.50862176)
(0 -0.003250684 0.50896388)
(0 -0.0045055973 0.50945881)
(0 -0.0058096279 0.5101262)
(0 -0.0071762093 0.5109933)
(0 -0.0086194755 0.51209699)
(0 -0.010154341 0.51348662)
(0 -0.011796224 0.51522802)
(0 -0.013561672 0.51740987)
(0 -0.015467954 0.52015234)
(0 -0.01752763 0.52361146)
(0 -0.019762387 0.5280129)
(0 -0.022198126 0.53411166)
(0 -0.025173126 0.54467686)
(0 -0.02917781 0.56120733)
(0 -0.03065372 0.55668672)
(0 -0.021817289 0.44704885)
(0 -0.00054902065 0.16751359)
(0 -0.0010761227 0.14372727)
(0 0.017161562 0.41967747)
(0 0.030582684 0.55742772)
(0 0.031815428 0.57601983)
(0 0.027908563 0.55774658)
(0 0.024694488 0.54316623)
(0 0.02226486 0.53496029)
(0 0.020057766 0.5293963)
(0 0.017993196 0.52506315)
(0 0.016054637 0.52161196)
(0 0.014239383 0.51885404)
(0 0.012537197 0.51664026)
(0 0.010936141 0.51485909)
(0 0.009424694 0.51342781)
(0 0.0079909932 0.51228442)
(0 0.0066232966 0.51138217)
(0 0.0053100802 0.51068596)
(0 0.0040400674 0.5101698)
(0 0.0028022447 0.50981509)
(0 0.0015858212 0.5096094)
(0 0.00038016732 0.50954576)
(0 -0.00082525165 0.50962218)
(0 -0.0020410138 0.50984161)
(0 -0.0032777471 0.51021209)
(0 -0.0045462761 0.51074721)
(0 -0.0058576541 0.51146696)
(0 -0.007223197 0.51239906)
(0 -0.0086544853 0.51358082)
(0 -0.010163374 0.51506198)
(0 -0.011761616 0.5169087)
(0 -0.0134612 0.51920975)
(0 -0.015274252 0.52208434)
(0 -0.01720688 0.52568559)
(0 -0.019273894 0.5302603)
(0 -0.021518345 0.53672893)
(0 -0.024281112 0.54796088)
(0 -0.027770516 0.56352601)
(0 -0.028013655 0.55199783)
(0 -0.018239195 0.43259765)
(0 0.00018557962 0.1577049)
(0 -0.0011592834 0.13716846)
(0 0.014031871 0.40505941)
(0 0.027686042 0.55015233)
(0 0.030095065 0.57693541)
(0 0.026903371 0.56095631)
(0 0.023912196 0.54586698)
(0 0.021649202 0.53718873)
(0 0.019618358 0.53144766)
(0 0.017699728 0.52700113)
(0 0.01587474 0.52343983)
(0 0.014146293 0.52057719)
(0 0.01250831 0.51826726)
(0 0.010952766 0.51639947)
(0 0.0094715201 0.51489159)
(0 0.0080556674 0.51368187)
(0 0.0066960426 0.51272367)
(0 0.0053833321 0.51198186)
(0 0.0041081724 0.51143034)
(0 0.0028612271 0.51105039)
(0 0.0016332071 0.51082947)
(0 0.00041486969 0.51076053)
(0 -0.00080298222 0.51084156)
(0 -0.0020295808 0.51107554)
(0 -0.0032741404 0.51147058)
(0 -0.0045459417 0.51204039)
(0 -0.0058542984 0.51280507)
(0 -0.0072085308 0.51379245)
(0 -0.00861789 0.51503987)
(0 -0.010091521 0.51659695)
(0 -0.011638071 0.51852965)
(0 -0.013265796 0.52092615)
(0 -0.014982677 0.52390386)
(0 -0.016790024 0.52761346)
(0 -0.018699632 0.53233385)
(0 -0.020774268 0.53915142)
(0 -0.023335416 0.55087666)
(0 -0.026301245 0.56497206)
(0 -0.025497252 0.54651123)
(0 -0.015203213 0.41908651)
(0 0.00059128654 0.1498073)
(0 -0.00109166 0.1319146)
(0 0.011571122 0.39172981)
(0 0.025083968 0.54246198)
(0 0.028417771 0.57698686)
(0 0.02591306 0.56373057)
(0 0.023133455 0.54837938)
(0 0.021005653 0.53925435)
(0 0.019127139 0.53334643)
(0 0.017341532 0.52881263)
(0 0.015624291 0.52516784)
(0 0.0139815 0.52222331)
(0 0.012409962 0.51983654)
(0 0.010904561 0.51789829)
(0 0.0094597585 0.51632711)
(0 0.008069057 0.51506183)
(0 0.0067254707 0.51405621)
(0 0.0054216275 0.51327534)
(0 0.0041499025 0.51269327)
(0 0.0029025281 0.51229131)
(0 0.0016716561 0.51205695)
(0 0.00044939789 0.51198313)
(0 -0.0007721255 0.51206784)
(0 -0.0020008198 0.51231405)
(0 -0.0032445219 0.51272986)
(0 -0.0045110334 0.51332894)
(0 -0.005808042 0.51413133)
(0 -0.0071430562 0.5151647)
(0 -0.0085232798 0.51646611)
(0 -0.0099555507 0.51808477)
(0 -0.011445982 0.52008602)
(0 -0.012999916 0.5225571)
(0 -0.014622178 0.52561308)
(0 -0.016310874 0.52940402)
(0 -0.018078049 0.53425142)
(0 -0.020006221 0.54139545)
(0 -0.022377332 0.55343201)
(0 -0.024830844 0.56565078)
(0 -0.023166983 0.54049375)
(0 -0.012679596 0.40657806)
(0 0.00077715516 0.14342694)
(0 -0.00094969841 0.12762038)
(0 0.009660537 0.37962322)
(0 0.022772887 0.53457791)
(0 0.026818572 0.5763199)
(0 0.024956152 0.56609677)
(0 0.022379237 0.55072394)
(0 0.020360637 0.54118463)
(0 0.01861035 0.53511205)
(0 0.016942908 0.53050851)
(0 0.015325182 0.52680116)
(0 0.013764214 0.52379352)
(0 0.012258642 0.52134623)
(0 0.010805406 0.51935154)
(0 0.0094008815 0.51772888)
(0 0.0080404475 0.51641779)
(0 0.0067189012 0.51537259)
(0 0.0054305224 0.5145588)
(0 0.0041692171 0.51395071)
(0 0.002928639 0.51352983)
(0 0.0017022758 0.51328375)
(0 0.00048351531 0.51320545)
(0 -0.0007342696 0.51329294)
(0 -0.0019577246 0.51354915)
(0 -0.0031933903 0.5139821)
(0 -0.0044477006 0.51460533)
(0 -0.005726872 0.51543866)
(0 -0.0070368204 0.51650942)
(0 -0.008383011 0.51785424)
(0 -0.0097703889 0.5195217)
(0 -0.011203084 0.52157633)
(0 -0.012684266 0.5241042)
(0 -0.014216503 0.52721799)
(0 -0.015796155 0.53106991)
(0 -0.017437988 0.5360331)
(0 -0.019242068 0.54347831)
(0 -0.021434633 0.55564455)
(0 -0.023401096 0.56567306)
(0 -0.021050701 0.53415796)
(0 -0.010615743 0.3950727)
(0 0.00082348049 0.13823091)
(0 -0.00078089631 0.12402502)
(0 0.0081874737 0.36864341)
(0 0.020732411 0.52666046)
(0 0.025315191 0.57506313)
(0 0.024041214 0.56808478)
(0 0.021660419 0.55291747)
(0 0.01973105 0.54300398)
(0 0.018086536 0.53676408)
(0 0.016522113 0.53210109)
(0 0.014994602 0.52834691)
(0 0.013510071 0.52529114)
(0 0.012068176 0.52279674)
(0 0.010667245 0.52075742)
(0 0.0093049745 0.51909346)
(0 0.0079781544 0.51774514)
(0 0.0066829933 0.5166674)
(0 0.0054151367 0.51582622)
(0 0.0041698016 0.51519628)
(0 0.0029418943 0.51475934)
(0 0.0017261067 0.51450313)
(0 0.00051699396 0.51442074)
(0 -0.00069091673 0.51451015)
(0 -0.0019031097 0.51477428)
(0 -0.0031249429 0.515221)
(0 -0.0043616204 0.51586366)
(0 -0.0056180667 0.51672177)
(0 -0.0068988378 0.51782225)
(0 -0.0082079676 0.51920116)
(0 -0.009548904 0.52090635)
(0 -0.010924291 0.52300154)
(0 -0.012335756 0.52557154)
(0 -0.013784372 0.52872694)
(0 -0.015266047 0.53262555)
(0 -0.016799924 0.53769881)
(0 -0.01849972 0.54541616)
(0 -0.020524588 0.55753694)
(0 -0.022038321 0.56514468)
(0 -0.01915331 0.52766698)
(0 -0.0089488239 0.38453093)
(0 0.00078676965 0.13394732)
(0 -0.00061324761 0.12093857)
(0 0.00705276 0.35868228)
(0 0.018934408 0.51882276)
(0 0.023913323 0.57332634)
(0 0.023170464 0.56972424)
(0 0.020981175 0.55497273)
(0 0.019126707 0.54473256)
(0 0.017568163 0.53832064)
(0 0.016092365 0.53360277)
(0 0.014645619 0.52981301)
(0 0.013231421 0.52672071)
(0 0.011849842 0.52418993)
(0 0.010500075 0.52211571)
(0 0.0091806664 0.52041902)
(0 0.007889424 0.51904082)
(0 0.006623639 0.51793665)
(0 0.0053800559 0.51707301)
(0 0.0041549875 0.51642494)
(0 0.0029444176 0.51597449)
(0 0.0017440967 0.5157096)
(0 0.00054962084 0.51562344)
(0 -0.00064344534 0.51571401)
(0 -0.0018395437 0.51598416)
(0 -0.003042981 0.51644163)
(0 -0.0042578834 0.5170995)
(0 -0.0054880696 0.51797696)
(0 -0.0067369655 0.51910044)
(0 -0.008007462 0.52050542)
(0 -0.0093018649 0.52223907)
(0 -0.010621758 0.52436426)
(0 -0.011967743 0.52696466)
(0 -0.013340021 0.53014936)
(0 -0.014735143 0.53408548)
(0 -0.016177561 0.53926664)
(0 -0.017789627 0.5472231)
(0 -0.019656618 0.5591339)
(0 -0.020756736 0.56416135)
(0 -0.017465374 0.52114273)
(0 -0.0076140905 0.37489096)
(0 0.00070544883 0.13036135)
(0 -0.00046167928 0.11822605)
(0 0.0061738335 0.34963116)
(0 0.017348632 0.51114235)
(0 0.022610896 0.57120176)
(0 0.022342288 0.57104352)
(0 0.020341378 0.556899)
(0 0.018552359 0.54638621)
(0 0.01706309 0.5397976)
(0 0.015662878 0.53502522)
(0 0.014287868 0.5312074)
(0 0.012937767 0.52808733)
(0 0.01161261 0.52552857)
(0 0.010312062 0.52342724)
(0 0.0090351637 0.52170488)
(0 0.0077804195 0.52030298)
(0 0.0065459246 0.51917761)
(0 0.0053292857 0.51829573)
(0 0.0041277111 0.51763277)
(0 0.0029380914 0.51717108)
(0 0.0017570886 0.51689877)
(0 0.00058120138 0.51680913)
(0 -0.00059308835 0.51690017)
(0 -0.0017693079 0.51717467)
(0 -0.0029508577 0.51764022)
(0 -0.0041409361 0.51830963)
(0 -0.0053424383 0.51920173)
(0 -0.0065578758 0.5203425)
(0 -0.0077892534 0.52176686)
(0 -0.0090380409 0.52352133)
(0 -0.010305115 0.52566808)
(0 -0.011590455 0.52828974)
(0 -0.01289388 0.53149479)
(0 -0.014213476 0.53546338)
(0 -0.015579298 0.54075215)
(0 -0.01711677 0.54891094)
(0 -0.018834424 0.56046045)
(0 -0.019561543 0.56280684)
(0 -0.01596943 0.51467408)
(0 -0.0065503113 0.36608052)
(0 0.00060471218 0.12730696)
(0 -0.00033265936 0.11579349)
(0 0.0054849751 0.34138711)
(0 0.015946032 0.50367047)
(0 0.021401439 0.56876608)
(0 0.021553034 0.57206912)
(0 0.019738313 0.55870278)
(0 0.01800926 0.5479768)
(0 0.016575777 0.54120843)
(0 0.015239764 0.53637898)
(0 0.013928217 0.53253762)
(0 0.012636225 0.52939616)
(0 0.011363445 0.52681584)
(0 0.010109731 0.52469356)
(0 0.0088743538 0.52295121)
(0 0.0076562688 0.52153068)
(0 0.0064541448 0.52038846)
(0 0.005266248 0.51949192)
(0 0.0040905026 0.51881686)
(0 0.0029245467 0.51834585)
(0 0.0017658107 0.51806722)
(0 0.00061156964 0.51797434)
(0 -0.0005409151 0.51806526)
(0 -0.0016943854 0.51834267)
(0 -0.0028514619 0.51881399)
(0 -0.0040145703 0.5194918)
(0 -0.0051858524 0.52039458)
(0 -0.0063670974 0.52154789)
(0 -0.0075596464 0.52298614)
(0 -0.008764386 0.52475533)
(0 -0.0099817635 0.52691703)
(0 -0.011211449 0.5295531)
(0 -0.012453248 0.53277237)
(0 -0.013707447 0.53677153)
(0 -0.015009494 0.54216825)
(0 -0.016482261 0.55048935)
(0 -0.018057782 0.56154071)
(0 -0.018451765 0.56115275)
(0 -0.014644469 0.50832399)
(0 -0.0057028888 0.35802431)
(0 0.00050032894 0.12465799)
(0 -0.00022751697 0.11357674)
(0 0.004935716 0.33385614)
(0 0.014700399 0.49643927)
(0 0.020276505 0.56608285)
(0 0.020798275 0.57282544)
(0 0.019167913 0.56038844)
(0 0.0174964 0.54951277)
(0 0.016108263 0.54256416)
(0 0.01482679 0.53767325)
(0 0.013571359 0.53381051)
(0 0.012331963 0.53065215)
(0 0.011107623 0.52805508)
(0 0.0098981759 0.52591656)
(0 0.0087029456 0.52415872)
(0 0.0075211509 0.52272365)
(0 0.0063518524 0.52156816)
(0 0.0051938066 0.52065994)
(0 0.0040454984 0.51997507)
(0 0.00290517 0.51949639)
(0 0.0017708868 0.51921237)
(0 0.00064057863 0.51911647)
(0 -0.00048784143 0.51920676)
(0 -0.0016164538 0.51948584)
(0 -0.0027472235 0.519961)
(0 -0.0038819464 0.52064459)
(0 -0.0050221614 0.52155478)
(0 -0.0061691034 0.52271675)
(0 -0.0073236348 0.52416451)
(0 -0.0084862611 0.52594363)
(0 -0.0096572108 0.52811528)
(0 -0.010836074 0.53076076)
(0 -0.012022917 0.53399045)
(0 -0.013220663 0.53802058)
(0 -0.014469567 0.54352513)
(0 -0.015884648 0.55196594)
(0 -0.017324027 0.56239714)
(0 -0.017422619 0.55925929)
(0 -0.013468819 0.50213558)
(0 -0.0050251644 0.35064867)
(0 0.00040152973 0.12232011)
(0 -0.00014471418 0.11153267)
(0 0.0044884094 0.3269547)
(0 0.013588946 0.48946739)
(0 0.019227215 0.56320474)
(0 0.020073588 0.57333484)
(0 0.018625615 0.56195879)
(0 0.017011434 0.55099972)
(0 0.015660934 0.54387358)
(0 0.014426009 0.53891589)
(0 0.013220318 0.53503216)
(0 0.012028601 0.53185986)
(0 0.01084903 0.52924953)
(0 0.0096812837 0.52709834)
(0 0.0085246248 0.52532847)
(0 0.0073784027 0.5238821)
(0 0.0062419282 0.52271621)
(0 0.0051143117 0.52179873)
(0 0.003994467 0.52110598)
(0 0.0028811165 0.52062097)
(0 0.00177284 0.52033233)
(0 0.00066810667 0.52023359)
(0 -0.00043462989 0.52032282)
(0 -0.0015369032 0.52060256)
(0 -0.0026401435 0.52107997)
(0 -0.0037456394 0.52176718)
(0 -0.0048544592 0.52268213)
(0 -0.005967424 0.52384968)
(0 -0.0070850676 0.52530352)
(0 -0.0082076694 0.52708893)
(0 -0.0093353904 0.52926684)
(0 -0.010467905 0.53191828)
(0 -0.011605733 0.53515642)
(0 -0.012754676 0.53921942)
(0 -0.013958916 0.54483054)
(0 -0.015320921 0.55334655)
(0 -0.016629152 0.56305021)
(0 -0.016467262 0.55717664)
(0 -0.012421871 0.49613725)
(0 -0.0044785999 0.34388445)
(0 0.0003131637 0.12022406)
(0 -8.1326472e-05 0.10963252)
(0 0.0041156447 0.32060982)
(0 0.012592283 0.48276418)
(0 0.018245134 0.56017572)
(0 0.019374958 0.5736179)
(0 0.018106886 0.56341564)
(0 0.016551346 0.55244093)
(0 0.015233116 0.54514344)
(0 0.014038263 0.54011347)
(0 0.01287688 0.53620781)
(0 0.011728555 0.53302337)
(0 0.010590435 0.53040223)
(0 0.0094619403 0.528241)
(0 0.008342211 0.52646174)
(0 0.0072306331 0.52500657)
(0 0.0061266622 0.52383255)
(0 0.0050296549 0.52290775)
(0 0.0039388457 0.52220866)
(0 0.0028533308 0.52171843)
(0 0.0017721003 0.52142581)
(0 0.00069405903 0.52132437)
(0 -0.00038189849 0.52141219)
(0 -0.0014568618 0.52169176)
(0 -0.0025318329 0.52217012)
(0 -0.0036077 0.52285924)
(0 -0.0046851722 0.52377684)
(0 -0.0057647722 0.52494756)
(0 -0.0068468219 0.52640486)
(0 -0.0079314898 0.52819388)
(0 -0.0090189711 0.53037541)
(0 -0.010109137 0.53303059)
(0 -0.011203097 0.53627659)
(0 -0.012309587 0.5403752)
(0 -0.013475653 0.54609002)
(0 -0.014787256 0.55463552)
(0 -0.015968585 0.56351838)
(0 -0.015578006 0.55494649)
(0 -0.011484976 0.49034673)
(0 -0.00403226 0.33766861)
(0 0.00023722893 0.11831971)
(0 -3.3967884e-05 0.10785695)
(0 0.0037978573 0.31475856)
(0 0.011694112 0.47633269)
(0 0.017322696 0.55703277)
(0 0.01869895 0.57369366)
(0 0.017607523 0.56476027)
(0 0.016112875 0.55383799)
(0 0.01482349 0.54637877)
(0 0.01366357 0.54127136)
(0 0.012541935 0.53734191)
(0 0.011433329 0.53414624)
(0 0.010333727 0.53151595)
(0 0.009242224 0.52934655)
(0 0.0081578065 0.52755985)
(0 0.0070798361 0.5260978)
(0 0.006007837 0.5249174)
(0 0.0049413291 0.52398681)
(0 0.0038797806 0.52328261)
(0 0.0028225725 0.52278805)
(0 0.0017690168 0.52249195)
(0 0.00071836442 0.52238793)
(0 -0.00033013722 0.52247407)
(0 -0.0013772236 0.52275282)
(0 -0.0024235589 0.5232311)
(0 -0.0034697217 0.52392078)
(0 -0.0045161541 0.52483939)
(0 -0.0055631718 0.52601144)
(0 -0.0066109728 0.52747027)
(0 -0.0076596959 0.52926096)
(0 -0.008709634 0.53144433)
(0 -0.0097609255 0.53410195)
(0 -0.010815365 0.53735622)
(0 -0.011884532 0.54149352)
(0 -0.013017144 0.54730725)
(0 -0.014279527 0.55583602)
(0 -0.015337702 0.56381824)
(0 -0.014747119 0.5526035)
(0 -0.010641793 0.48477414)
(0 -0.0036619028 0.33194479)
(0 0.00017394167 0.11657125)
(0 6.6562597e-07 0.10619264)
(0 0.0035212888 0.30934702)
(0 0.010880814 0.47017183)
(0 0.016453335 0.55380726)
(0 0.018042718 0.57357996)
(0 0.017123791 0.56599379)
(0 0.015692787 0.55519119)
(0 0.014430384 0.54758315)
(0 0.013301409 0.54239386)
(0 0.012215739 0.53843821)
(0 0.01114375 0.53523153)
(0 0.010080121 0.53259315)
(0 0.0090235728 0.53041687)
(0 0.0079729319 0.52862415)
(0 0.0069274973 0.52715663)
(0 0.0058868091 0.52597121)
(0 0.0048504883 0.52503601)
(0 0.0038181675 0.52432765)
(0 0.0027894411 0.52382946)
(0 0.0017638686 0.52353029)
(0 0.00074097143 0.5234238)
(0 -0.0002797253 0.52350804)
(0 -0.0012986792 0.52378543)
(0 -0.0023162931 0.52426284)
(0 -0.0033329101 0.52495202)
(0 -0.0043487797 0.52587042)
(0 -0.0053640804 0.52704243)
(0 -0.0063789502 0.52850137)
(0 -0.0073935524 0.53029239)
(0 -0.0084083115 0.53247646)
(0 -0.0094236751 0.53513595)
(0 -0.010442183 0.5383996)
(0 -0.011478046 0.54257855)
(0 -0.012580406 0.54848444)
(0 -0.013793646 0.55695039)
(0 -0.014732146 0.56396477)
(0 -0.013967325 0.55017659)
(0 -0.0098783103 0.47942427)
(0 -0.0033489094 0.3266634)
(0 0.00012248168 0.11495329)
(0 2.5516394e-05 0.10462995)
(0 0.0032763494 0.30432925)
(0 0.010141002 0.46427781)
(0 0.015631449 0.550526)
(0 0.017403955 0.57329355)
(0 0.016652465 0.5671174)
(0 0.015288028 0.55649996)
(0 0.014051963 0.54875899)
(0 0.012950918 0.54348443)
(0 0.011898117 0.53949981)
(0 0.010860156 0.53628183)
(0 0.0098303208 0.53363596)
(0 0.0088069266 0.53145368)
(0 0.0077886448 0.52965592)
(0 0.0067746902 0.52818398)
(0 0.0057645841 0.52699452)
(0 0.0047580033 0.52605561)
(0 0.0037546922 0.52534384)
(0 0.0027544006 0.52484255)
(0 0.0017568752 0.52454063)
(0 0.00076184566 0.52443174)
(0 -0.00023094806 0.52451393)
(0 -0.0012217489 0.52478958)
(0 -0.0022107602 0.5252655)
(0 -0.0031981505 0.52595339)
(0 -0.0041840335 0.52687064)
(0 -0.0051685026 0.52804163)
(0 -0.0061516795 0.5294997)
(0 -0.0071337848 0.53129015)
(0 -0.0081153874 0.53347425)
(0 -0.0090972638 0.53613554)
(0 -0.010082734 0.5394101)
(0 -0.011088335 0.54363327)
(0 -0.012162381 0.5496226)
(0 -0.013325785 0.55798039)
(0 -0.014148009 0.56397157)
(0 -0.013232059 0.54769012)
(0 -0.0091826764 0.4742983)
(0 -0.0030792161 0.32178117)
(0 8.1500491e-05 0.1134479)
(0 4.3056063e-05 0.10316144)
(0 0.0030563637 0.29966612)
(0 0.0094651231 0.45864524)
(0 0.01485228 0.54721208)
(0 0.016780795 0.57285027)
(0 0.016190812 0.56813256)
(0 0.014895792 0.55776318)
(0 0.013686352 0.54990775)
(0 0.012611043 0.5445457)
(0 0.011588607 0.54052925)
(0 0.010582533 0.53729933)
(0 0.0095846518 0.53464624)