/*--------------------------------*- C++ -*----------------------------------*\
  =========                 |
  \\      /  F ield         | OpenFOAM: The Open Source CFD Toolbox
   \\    /   O peration     | Website:  https://openfoam.org
    \\  /    A nd           | Version:  10
     \\/     M anipulation  |
\*---------------------------------------------------------------------------*/
FoamFile
{
    format      ascii;
    class       volVectorField;
    location    "0.14";
    object      U_0;
}
// * * * * * * * * * * * * * * * * * * * * * * * * * * * * * * * * * * * * * //

dimensions      [0 1 -1 0 0 0 0];

internalField   nonuniform List<vector> 
4000
(
(0 0.018636662 0.47773197)
(0 0.023508501 0.50886039)
(0 0.0081654634 0.50052527)
(0 0.0056132268 0.50033638)
(0 0.0042531459 0.50025747)
(0 0.0032534373 0.50016898)
(0 0.0025546123 0.50011968)
(0 0.0020531692 0.50009011)
(0 0.0016752647 0.50006978)
(0 0.0013810534 0.50005536)
(0 0.0011461596 0.50004496)
(0 0.00095424217 0.50003729)
(0 0.00079404421 0.50003155)
(0 0.0006575875 0.50002722)
(0 0.00053904111 0.50002394)
(0 0.00043402183 0.50002146)
(0 0.00033913963 0.50001961)
(0 0.00025168987 0.50001828)
(0 0.00016943714 0.50001738)
(0 9.0456678e-05 0.50001688)
(0 1.3012389e-05 0.50001673)
(0 -6.4550759e-05 0.50001693)
(0 -0.00014389811 0.50001749)
(0 -0.00022679711 0.50001845)
(0 -0.00031522843 0.50001986)
(0 -0.00041151646 0.5000218)
(0 -0.000518501 0.50002442)
(0 -0.00063977674 0.50002789)
(0 -0.00078004102 0.50003249)
(0 -0.00094562379 0.50003861)
(0 -0.0011453389 0.50004687)
(0 -0.0013918492 0.50005823)
(0 -0.0017039069 0.50007414)
(0 -0.0021118666 0.5000971)
(0 -0.0026716507 0.50013484)
(0 -0.0034654017 0.50020242)
(0 -0.0045579318 0.50027153)
(0 -0.006582288 0.50043377)
(0 -0.017656719 0.50675369)
(0 -0.013588739 0.47975641)
(0 0.037430497 0.44797198)
(0 0.050951221 0.5323259)
(0 0.021964746 0.50804298)
(0 0.016131249 0.50357347)
(0 0.01241139 0.50242325)
(0 0.0095112181 0.50162298)
(0 0.0075159846 0.50115652)
(0 0.0060654598 0.50086576)
(0 0.004960443 0.50066778)
(0 0.0040963932 0.50052872)
(0 0.003404351 0.5004287)
(0 0.0028373608 0.50035515)
(0 0.0023630415 0.50030022)
(0 0.0019583012 0.50025878)
(0 0.0016061719 0.5002274)
(0 0.0012938505 0.50020372)
(0 0.0010114042 0.50018609)
(0 0.00075088689 0.5001734)
(0 0.00050571612 0.50016488)
(0 0.00027021384 0.50016005)
(0 3.9251227e-05 0.50015862)
(0 -0.00019206 0.50016053)
(0 -0.00042863834 0.50016589)
(0 -0.00067570302 0.50017502)
(0 -0.00093909398 0.50018846)
(0 -0.0012256503 0.50020705)
(0 -0.001543706 0.50023203)
(0 -0.001903778 0.50026519)
(0 -0.0023195584 0.50030917)
(0 -0.0028093986 0.50036785)
(0 -0.0033986864 0.50044717)
(0 -0.0041238117 0.50055661)
(0 -0.0050378706 0.50071126)
(0 -0.0062207476 0.50093672)
(0 -0.0078213386 0.50129462)
(0 -0.010115503 0.50191094)
(0 -0.013097562 0.50282588)
(0 -0.017417246 0.50608167)
(0 -0.038750508 0.52526772)
(0 -0.027890622 0.45022193)
(0 0.039884975 0.4098279)
(0 0.061420395 0.54930913)
(0 0.031975278 0.52188185)
(0 0.024347692 0.51008113)
(0 0.019185373 0.50658881)
(0 0.01496887 0.50452802)
(0 0.011998631 0.50327112)
(0 0.0097641874 0.5024579)
(0 0.0080293034 0.5019004)
(0 0.0066583162 0.50150786)
(0 0.0055509901 0.50122449)
(0 0.0046377782 0.5010156)
(0 0.0038699294 0.50085933)
(0 0.0032120346 0.5007413)
(0 0.0026377463 0.50065183)
(0 0.0021269978 0.50058423)
(0 0.0016640985 0.50053391)
(0 0.0012364147 0.50049766)
(0 0.00083342504 0.50047331)
(0 0.00044601593 0.50045947)
(0 6.5931632e-05 0.50045539)
(0 -0.00031470445 0.50046085)
(0 -0.00070381666 0.50047617)
(0 -0.0011097998 0.50050226)
(0 -0.0015420155 0.50054064)
(0 -0.002011375 0.5005937)
(0 -0.0025310941 0.50066495)
(0 -0.0031177236 0.50075945)
(0 -0.0037926124 0.50088461)
(0 -0.0045840201 0.50105135)
(0 -0.0055303228 0.5012762)
(0 -0.0066855235 0.5015853)
(0 -0.0081268512 0.50202077)
(0 -0.0099584301 0.50265102)
(0 -0.012353082 0.50361575)
(0 -0.015698858 0.50520035)
(0 -0.019856777 0.50785576)
(0 -0.025170322 0.51641298)
(0 -0.047402572 0.53912915)
(0 -0.030847345 0.41489475)
(0 0.034787501 0.36174444)
(0 0.063827791 0.55456763)
(0 0.039367125 0.53747098)
(0 0.030071455 0.51849329)
(0 0.024100257 0.51197773)
(0 0.019267222 0.50849932)
(0 0.015724088 0.50626366)
(0 0.01294262 0.50475443)
(0 0.010732863 0.50370303)
(0 0.0089580979 0.50295439)
(0 0.0075052756 0.50240903)
(0 0.006294713 0.50200446)
(0 0.0052685865 0.50170042)
(0 0.0043836203 0.50146997)
(0 0.0036069788 0.50129477)
(0 0.0029132592 0.50116213)
(0 0.0022823356 0.5010632)
(0 0.0016978277 0.50099185)
(0 0.0011459748 0.50094387)
(0 0.0006147763 0.50091659)
(0 9.3310667e-05 0.50090853)
(0 -0.00042886417 0.50091927)
(0 -0.00096225178 0.50094946)
(0 -0.0015179446 0.5010008)
(0 -0.0021082451 0.50107628)
(0 -0.0027473829 0.50118049)
(0 -0.0034524216 0.50132014)
(0 -0.0042444642 0.50150491)
(0 -0.0051503171 0.5017488)
(0 -0.0062047874 0.5020723)
(0 -0.0074537732 0.50250588)
(0 -0.0089595371 0.50309654)
(0 -0.010809484 0.50391902)
(0 -0.01311023 0.50508969)
(0 -0.015997436 0.50680808)
(0 -0.019873769 0.50946966)
(0 -0.024707519 0.51427772)
(0 -0.03108836 0.52824785)
(0 -0.050298491 0.54407968)
(0 -0.028430086 0.37240928)
(0 0.027419708 0.31486665)
(0 0.062300349 0.55025097)
(0 0.044595643 0.55146731)
(0 0.033965057 0.52748851)
(0 0.027446982 0.517723)
(0 0.022438105 0.51291956)
(0 0.018620133 0.50973036)
(0 0.015512202 0.50749084)
(0 0.012991329 0.5058975)
(0 0.010928649 0.50474387)
(0 0.0092127601 0.50389257)
(0 0.0077647852 0.50325512)
(0 0.0065247137 0.50277261)
(0 0.0054460956 0.50240485)
(0 0.0044928569 0.50212401)
(0 0.0036365065 0.50191066)
(0 0.0028540738 0.50175112)
(0 0.0021265931 0.50163579)
(0 0.0014379431 0.50155813)
(0 0.00077393583 0.50151391)
(0 0.00012157876 0.50150081)
(0 -0.00053158696 0.50151819)
(0 -0.0011980903 0.50156702)
(0 -0.0018911076 0.50165001)
(0 -0.0026251478 0.50177185)
(0 -0.0034168222 0.50193967)
(0 -0.0042857906 0.5021639)
(0 -0.0052559718 0.50245942)
(0 -0.0063571517 0.50284748)
(0 -0.0076271425 0.50335874)
(0 -0.0091142468 0.50403784)
(0 -0.010880941 0.50495133)
(0 -0.0130141 0.50620203)
(0 -0.015617594 0.50794487)
(0 -0.018779296 0.51040627)
(0 -0.022860785 0.51405824)
(0 -0.028143577 0.52114896)
(0 -0.03567157 0.53932784)
(0 -0.050448418 0.54157382)
(0 -0.024076482 0.33060518)
(0 0.019833111 0.27523179)
(0 0.05797219 0.53976611)
(0 0.047338664 0.56256541)
(0 0.036454554 0.5366041)
(0 0.029613577 0.52350761)
(0 0.024653731 0.51740278)
(0 0.020752401 0.51336128)
(0 0.017488924 0.51044172)
(0 0.014794775 0.50832042)
(0 0.012548973 0.50675713)
(0 0.010649969 0.50558728)
(0 0.0090257417 0.50470177)
(0 0.0076186425 0.50402563)
(0 0.0063827796 0.50350667)
(0 0.0052816622 0.50310817)
(0 0.0042857894 0.50280409)
(0 0.0033708997 0.5025759)
(0 0.0025166235 0.5024105)
(0 0.0017054033 0.50229889)
(0 0.00092161752 0.50223524)
(0 0.00015085404 0.50221632)
(0 -0.00062075516 0.50224125)
(0 -0.0014071523 0.50231137)
(0 -0.0022229289 0.50243042)
(0 -0.0030840189 0.50260485)
(0 -0.0040084488 0.50284446)
(0 -0.0050172345 0.50316337)
(0 -0.0061354835 0.5035816)
(0 -0.0073937888 0.50412733)
(0 -0.0088301236 0.50484051)
(0 -0.010491801 0.50577814)
(0 -0.012437163 0.50702253)
(0 -0.014746464 0.50869686)
(0 -0.017521578 0.51098281)
(0 -0.020816539 0.51412284)
(0 -0.024927602 0.51873486)
(0 -0.030463501 0.52823337)
(0 -0.038582181 0.54872726)
(0 -0.048473322 0.53401974)
(0 -0.019056097 0.29400849)
(0 0.013078228 0.24260107)
(0 0.051777811 0.52523303)
(0 0.04767736 0.5702518)
(0 0.037726691 0.54552319)
(0 0.030821423 0.52928864)
(0 0.02604497 0.52180074)
(0 0.022210162 0.51699529)
(0 0.018927167 0.51346928)
(0 0.016168748 0.51085936)
(0 0.01382703 0.50890558)
(0 0.011815494 0.50742462)
(0 0.010071518 0.50629145)
(0 0.0085424452 0.50541832)
(0 0.0071854887 0.5047431)
(0 0.0059658112 0.50422142)
(0 0.0048545565 0.50382135)
(0 0.0038274979 0.50351992)
(0 0.0028639241 0.50330077)
(0 0.0019457074 0.50315253)
(0 0.0010565233 0.50306782)
(0 0.00018118644 0.50304255)
(0 -0.00069497222 0.50307557)
(0 -0.001586696 0.50316861)
(0 -0.0025093343 0.5033264)
(0 -0.0034794986 0.50355708)
(0 -0.0045157409 0.50387294)
(0 -0.0056393482 0.50429158)
(0 -0.0068752852 0.50483764)
(0 -0.0082533088 0.50554539)
(0 -0.009809543 0.50646262)
(0 -0.011588239 0.50765649)
(0 -0.0136417 0.50922188)
(0 -0.016039476 0.51129675)
(0 -0.018876967 0.51408056)
(0 -0.022185648 0.51784224)
(0 -0.026206092 0.52347334)
(0 -0.031789774 0.53537781)
(0 -0.039698096 0.55590411)
(0 -0.044851364 0.52288205)
(0 -0.014078965 0.26274133)
(0 0.007764989 0.2156009)
(0 0.044801654 0.50805938)
(0 0.046215921 0.57438913)
(0 0.037996386 0.55374802)
(0 0.031251309 0.53495951)
(0 0.026732644 0.52602875)
(0 0.023081951 0.52053467)
(0 0.019887656 0.51648235)
(0 0.017151142 0.51343384)
(0 0.014785104 0.51112108)
(0 0.012721086 0.50934834)
(0 0.010906995 0.50797836)
(0 0.0092968854 0.50691352)
(0 0.0078527468 0.50608391)
(0 0.0065427906 0.50543893)
(0 0.0053400154 0.50494174)
(0 0.0042212653 0.50456556)
(0 0.003166363 0.50429115)
(0 0.0021573591 0.50410505)
(0 0.0011778813 0.50399847)
(0 0.00021256547 0.50396653)
(0 -0.00075349191 0.50400785)
(0 -0.0017352667 0.5041245)
(0 -0.0027482653 0.50432211)
(0 -0.0038091125 0.50461035)
(0 -0.0049361274 0.50500373)
(0 -0.0061499851 0.50552286)
(0 -0.007474483 0.50619636)
(0 -0.0089373649 0.50706356)
(0 -0.010571488 0.50817863)
(0 -0.012416497 0.50961682)
(0 -0.014517591 0.5114832)
(0 -0.016931015 0.51392668)
(0 -0.019738555 0.5171561)
(0 -0.022956322 0.52148452)
(0 -0.026806205 0.52818834)
(0 -0.032276671 0.5422215)
(0 -0.039327471 0.5605172)
(0 -0.040278438 0.50917335)
(0 -0.0096956271 0.23598321)
(0 0.0039995981 0.19363122)
(0 0.037872133 0.4895578)
(0 0.043639399 0.57525638)
(0 0.037515158 0.56084042)
(0 0.031108738 0.54035842)
(0 0.026870251 0.53000887)
(0 0.023471434 0.52389666)
(0 0.020439621 0.51940468)
(0 0.017788755 0.5159774)
(0 0.015454758 0.51334623)
(0 0.013387272 0.51130931)
(0 0.011544898 0.5097208)
(0 0.0098894242 0.50847606)
(0 0.0083885664 0.50749941)
(0 0.0070144433 0.50673549)
(0 0.0057427315 0.5061436)
(0 0.0045520956 0.50569386)
(0 0.0034235628 0.50536468)
(0 0.0023399643 0.50514084)
(0 0.0012854288 0.50501235)
(0 0.00024492491 0.50497364)
(0 -0.0007961907 0.50502315)
(0 -0.0018526306 0.50516323)
(0 -0.0029395425 0.50540028)
(0 -0.0040730109 0.50574528)
(0 -0.0052705134 0.5062146)
(0 -0.0065514356 0.50683134)
(0 -0.0079376553 0.50762733)
(0 -0.009454098 0.50864592)
(0 -0.011129433 0.50994621)
(0 -0.012997598 0.5116095)
(0 -0.01509619 0.5137485)
(0 -0.017467894 0.51651899)
(0 -0.020177011 0.52013217)
(0 -0.023231558 0.52496793)
(0 -0.026872315 0.53274488)
(0 -0.032110917 0.5483902)
(0 -0.037903473 0.56257122)
(0 -0.035357783 0.49392103)
(0 -0.0061872764 0.21341097)
(0 0.0015454742 0.17622474)
(0 0.0314688 0.47085845)
(0 0.040475923 0.57341369)
(0 0.036498814 0.56659288)
(0 0.030581211 0.54537319)
(0 0.026617995 0.53370053)
(0 0.023491082 0.52702527)
(0 0.020660832 0.5221779)
(0 0.018136637 0.51843753)
(0 0.015874883 0.51553442)
(0 0.013841105 0.51326638)
(0 0.012003813 0.51148278)
(0 0.010332651 0.5100746)
(0 0.0088013036 0.50896235)
(0 0.007386181 0.50808729)
(0 0.0060661075 0.50740592)
(0 0.004822047 0.50688605)
(0 0.0036366972 0.50650425)
(0 0.0024941169 0.50624393)
(0 0.0013793631 0.50609414)
(0 0.00027814853 0.50604875)
(0 -0.00082350631 0.50610606)
(0 -0.0019396454 0.50626863)
(0 -0.0030846439 0.50654351)
(0 -0.0042736149 0.50694271)
(0 -0.0055227425 0.50748406)
(0 -0.0068496491 0.50819261)
(0 -0.0082738014 0.50910259)
(0 -0.0098168491 0.51026031)
(0 -0.011502881 0.51172835)
(0 -0.013359704 0.51359208)
(0 -0.015417474 0.51596897)
(0 -0.017706877 0.51901763)
(0 -0.020275037 0.52294925)
(0 -0.023129289 0.52823978)
(0 -0.026548145 0.53704323)
(0 -0.031453731 0.55365722)
(0 -0.035797061 0.56235397)
(0 -0.030488818 0.47806688)
(0 -0.0035768254 0.19480478)
(0 7.0823633e-05 0.16263415)
(0 0.025835786 0.45272829)
(0 0.037093632 0.56947724)
(0 0.03511821 0.57098332)
(0 0.029808712 0.54995428)
(0 0.026108701 0.53710758)
(0 0.023243101 0.52990304)
(0 0.020627648 0.52477051)
(0 0.018252036 0.52078046)
(0 0.016087724 0.51765265)
(0 0.014113364 0.5151885)
(0 0.012306037 0.51323582)
(0 0.010642598 0.5116834)
(0 0.0091023687 0.51044955)
(0 0.0076660247 0.50947349)
(0 0.00631569 0.50870986)
(0 0.0050348573 0.50812491)
(0 0.0038081681 0.5076939)
(0 0.0026212041 0.50739924)
(0 0.0014602537 0.50722926)
(0 0.00031207788 0.50717743)
(0 -0.00083633342 0.50724191)
(0 -0.001998049 0.50742546)
(0 -0.0031863654 0.5077356)
(0 -0.0044151189 0.50818509)
(0 -0.0056989028 0.50879285)
(0 -0.0070532988 0.5095853)
(0 -0.0084951231 0.51059834)
(0 -0.01004261 0.5118802)
(0 -0.011715336 0.51349565)
(0 -0.013535185 0.51553233)
(0 -0.015525477 0.51811004)
(0 -0.01770692 0.52138704)
(0 -0.020112104 0.52557791)
(0 -0.022754561 0.53128564)
(0 -0.025949561 0.54103071)
(0 -0.030435616 0.55793237)
(0 -0.03330144 0.56026166)
(0 -0.025923134 0.46230039)
(0 -0.0017499565 0.17970492)
(0 -0.00072411127 0.15203627)
(0 0.02106914 0.43559953)
(0 0.033742755 0.56399663)
(0 0.033516276 0.57408506)
(0 0.028891723 0.55408101)
(0 0.02544171 0.54025409)
(0 0.022810942 0.53254033)
(0 0.020406861 0.52717444)
(0 0.018187814 0.52299002)
(0 0.01613423 0.51968126)
(0 0.014235311 0.51705478)
(0 0.01247522 0.51495917)
(0 0.01083699 0.51328254)
(0 0.0093049111 0.51194229)
(0 0.0078636213 0.51087662)
(0 0.006498443 0.51003915)
(0 0.0051954212 0.50939522)
(0 0.0039412484 0.50891925)
(0 0.0027231862 0.50859298)
(0 0.0015289402 0.50840428)
(0 0.00034652087 0.50834634)
(0 -0.00083590478 0.50841723)
(0 -0.0020302213 0.50861983)
(0 -0.0032484456 0.50896197)
(0 -0.0045029509 0.50945696)
(0 -0.0058065823 0.51012441)
(0 -0.0071727764 0.51099159)
(0 -0.0086156709 0.5120954)
(0 -0.010150184 0.51348515)
(0 -0.011791738 0.51522671)
(0 -0.013556884 0.51740873)
(0 -0.015462896 0.52015139)
(0 -0.01752234 0.52361074)
(0 -0.019756911 0.52801246)
(0 -0.022192499 0.53411139)
(0 -0.025167251 0.54467634)
(0 -0.029171607 0.561207)
(0 -0.030648004 0.55669051)
(0 -0.021814083 0.44706038)
(0 -0.00054837676 0.16752444)
(0 -0.0010763863 0.14373401)
(0 0.017159628 0.41968679)
(0 0.030578764 0.55743184)
(0 0.03181079 0.57601983)
(0 0.02790412 0.55774583)
(0 0.024690326 0.54316571)
(0 0.02226086 0.5349597)
(0 0.020053937 0.52939548)
(0 0.017989583 0.5250621)
(0 0.01605128 0.5216107)
(0 0.014236317 0.51885259)
(0 0.012534453 0.51663864)
(0 0.010933747 0.51485731)
(0 0.0094226766 0.5134259)
(0 0.0079893748 0.51228239)
(0 0.006622097 0.51138003)
(0 0.0053093163 0.51068374)
(0 0.0040397533 0.51016751)
(0 0.0028023919 0.50981274)
(0 0.0015864385 0.50960702)
(0 0.00038126085 0.50954336)
(0 -0.00082367842 0.50961978)
(0 -0.0020389604 0.50983923)
(0 -0.0032752158 0.51020975)
(0 -0.0045432724 0.51074492)
(0 -0.0058541868 0.51146475)
(0 -0.0072192784 0.51239695)
(0 -0.0086501316 0.51357883)
(0 -0.010158605 0.51506014)
(0 -0.011756457 0.51690704)
(0 -0.01345568 0.51920829)
(0 -0.015268406 0.52208312)
(0 -0.017200748 0.52568464)
(0 -0.019267525 0.53025966)
(0 -0.021511767 0.53672843)
(0 -0.02427419 0.54796004)
(0 -0.027763238 0.56352575)
(0 -0.028007128 0.55200322)
(0 -0.018235633 0.43261218)
(0 0.0001862599 0.15771761)
(0 -0.0011595437 0.13717625)
(0 0.014029707 0.40507091)
(0 0.02768158 0.55015793)
(0 0.030089638 0.57693568)
(0 0.026898108 0.56095532)
(0 0.023907288 0.54586624)
(0 0.021644511 0.53718796)
(0 0.019613878 0.53144663)
(0 0.017695506 0.52699983)
(0 0.015870819 0.52343827)
(0 0.014142712 0.52057541)
(0 0.012505103 0.51826528)
(0 0.010949966 0.5163973)
(0 0.0094691532 0.51488926)
(0 0.0080537593 0.5136794)
(0 0.0066946148 0.51272108)
(0 0.0053824034 0.51197917)
(0 0.0041077584 0.51142757)
(0 0.0028613407 0.51104755)
(0 0.0016338583 0.51082659)
(0 0.00041606563 0.51075762)
(0 -0.00080123715 0.51083865)
(0 -0.0020272852 0.51107265)
(0 -0.0032712962 0.51146773)
(0 -0.0045425538 0.5120376)
(0 -0.0058503753 0.51280237)
(0 -0.007204085 0.51378986)
(0 -0.0086129379 0.51503742)
(0 -0.010086084 0.51659468)
(0 -0.011632174 0.51852758)
(0 -0.01325947 0.52092432)
(0 -0.014975959 0.5239023)
(0 -0.016782957 0.52761223)
(0 -0.018692268 0.53233295)
(0 -0.020766619 0.53915061)
(0 -0.023327317 0.55087544)
(0 -0.026292779 0.56497201)
(0 -0.025489849 0.54651859)
(0 -0.015199259 0.41910449)
(0 0.00059199779 0.14982203)
(0 -0.0010919116 0.13192354)
(0 0.011568701 0.39174378)
(0 0.025078913 0.54246937)
(0 0.028411468 0.57698753)
(0 0.02590687 0.5637293)
(0 0.023127697 0.54837833)
(0 0.02100018 0.53925335)
(0 0.019121926 0.53334514)
(0 0.017336624 0.52881102)
(0 0.015619737 0.52516594)
(0 0.013977341 0.52222114)
(0 0.012406237 0.51983414)
(0 0.010901302 0.51789567)
(0 0.0094569979 0.5163243)
(0 0.0080668211 0.51505886)
(0 0.0067237831 0.51405309)
(0 0.0054205086 0.51327211)
(0 0.0041493695 0.51268993)
(0 0.0029025952 0.5122879)
(0 0.0016723347 0.51205349)
(0 0.00045069626 0.51197964)
(0 -0.00077020191 0.51206434)
(0 -0.0019982687 0.51231057)
(0 -0.003241344 0.51272642)
(0 -0.0045072333 0.51332557)
(0 -0.0058036276 0.51412807)
(0 -0.0071380395 0.51516156)
(0 -0.0085176773 0.51646313)
(0 -0.0099493835 0.51808199)
(0 -0.011439276 0.52008347)
(0 -0.012992704 0.52255483)
(0 -0.014614499 0.52561112)
(0 -0.016302772 0.52940243)
(0 -0.018069577 0.53425019)
(0 -0.019997372 0.54139424)
(0 -0.022367913 0.55343035)
(0 -0.024821071 0.56565109)
(0 -0.023158629 0.54050352)
(0 -0.012675212 0.40659997)
(0 0.00077788956 0.14344387)
(0 -0.00094993627 0.12763058)
(0 0.0096578339 0.37964001)
(0 0.022767181 0.53458743)
(0 0.026811299 0.57632116)
(0 0.024948918 0.56609521)
(0 0.022372513 0.55072252)
(0 0.02035428 0.54118333)
(0 0.018604311 0.53511045)
(0 0.01693723 0.53050655)
(0 0.015319917 0.52679886)
(0 0.013759408 0.52379092)
(0 0.012254335 0.52134335)
(0 0.010801635 0.51934841)
(0 0.009397679 0.51772552)
(0 0.0080378424 0.51641424)
(0 0.0067169191 0.51536888)
(0 0.0054291853 0.51455495)
(0 0.0041685438 0.51394674)
(0 0.002928645 0.51352577)
(0 0.001702974 0.51327963)
(0 0.00048491517 0.5132013)
(0 -0.00073216138 0.51328877)
(0 -0.0019549045 0.513545)
(0 -0.003189858 0.513978)
(0 -0.0044434595 0.5146013)
(0 -0.0057219292 0.51543474)
(0 -0.0070311872 0.51650565)
(0 -0.0083767032 0.51785065)
(0 -0.0097634274 0.51951832)
(0 -0.011195495 0.52157322)
(0 -0.012676083 0.52410139)
(0 -0.014207765 0.52721554)
(0 -0.01578691 0.53106789)
(0 -0.017428284 0.53603146)
(0 -0.019231875 0.54347658)
(0 -0.021423742 0.55564239)
(0 -0.023389886 0.5656739)
(0 -0.021041313 0.53417061)
(0 -0.010610883 0.39509906)
(0 0.00082422918 0.13825026)
(0 -0.00078111546 0.12403662)
(0 0.0081844627 0.36866337)
(0 0.020725993 0.52667251)
(0 0.025306848 0.57506517)
(0 0.024032808 0.56808293)
(0 0.021652603 0.55291559)
(0 0.019723697 0.5430023)
(0 0.018079572 0.53676211)
(0 0.016515574 0.53209871)
(0 0.014988544 0.52834414)
(0 0.013504542 0.52528802)
(0 0.012063221 0.5227933)
(0 0.010662902 0.5207537)
(0 0.0093012777 0.51908949)
(0 0.0079751353 0.51774095)
(0 0.0066806791 0.51666301)
(0 0.0054135509 0.51582167)
(0 0.0041689645 0.51519161)
(0 0.002941823 0.51475456)
(0 0.0017268152 0.51449827)
(0 0.00051849323 0.51441583)
(0 -0.00068861856 0.51450523)
(0 -0.0019000076 0.51476937)
(0 -0.0031210352 0.51521615)
(0 -0.004356909 0.51585888)
(0 -0.0056125574 0.51671711)
(0 -0.0068925405 0.51781775)
(0 -0.0082008972 0.51919685)
(0 -0.0095410804 0.52090229)
(0 -0.01091574 0.52299776)
(0 -0.01232651 0.52556811)
(0 -0.013774472 0.52872392)
(0 -0.015255541 0.532623)
(0 -0.016788855 0.53769664)
(0 -0.018488028 0.54541379)
(0 -0.020512063 0.55753424)
(0 -0.022025533 0.56514629)
(0 -0.019142796 0.52768304)
(0 -0.0089434433 0.38456229)
(0 0.00078752383 0.1339693)
(0 -0.00061344334 0.12095171)
(0 0.0070494175 0.3587058)
(0 0.018927212 0.51883777)
(0 0.023903802 0.5733294)
(0 0.023160752 0.5697221)
(0 0.020972128 0.5549703)
(0 0.019118235 0.54473042)
(0 0.017560164 0.53831823)
(0 0.016084865 0.5335999)
(0 0.014638677 0.5298097)
(0 0.013225089 0.526717)
(0 0.011844165 0.52418586)
(0 0.010495094 0.52211132)
(0 0.0091764189 0.52041434)
(0 0.0078859424 0.5190359)
(0 0.0066209518 0.51793151)
(0 0.0053781881 0.51706768)
(0 0.0041539609 0.51641946)
(0 0.0029442506 0.51596889)
(0 0.0017448046 0.51570392)
(0 0.00055121599 0.51561769)
(0 -0.00064095302 0.51570824)
(0 -0.0018361472 0.5159784)
(0 -0.0030386771 0.51643592)
(0 -0.0042526724 0.51709388)
(0 -0.0054819551 0.51797145)
(0 -0.0067299557 0.5190951)
(0 -0.0079995697 0.5205003)
(0 -0.0092931086 0.52223421)
(0 -0.010612163 0.52435972)
(0 -0.011957339 0.5269605)
(0 -0.013328848 0.53014566)
(0 -0.014723252 0.53408229)
(0 -0.016164982 0.53926381)
(0 -0.017776269 0.54721994)
(0 -0.019642283 0.55913061)
(0 -0.020742222 0.56416398)
(0 -0.017453634 0.52116277)
(0 -0.0076081414 0.37492795)
(0 0.00070620038 0.13038621)
(0 -0.00046184685 0.11824088)
(0 0.0061701378 0.34965869)
(0 0.017340587 0.51116081)
(0 0.022600082 0.57120612)
(0 0.022331121 0.57104112)
(0 0.02033095 0.55689592)
(0 0.018542632 0.5463835)
(0 0.017053936 0.53979467)
(0 0.01565431 0.53502178)
(0 0.014279944 0.53120346)
(0 0.012930543 0.52808295)
(0 0.011606133 0.52552378)
(0 0.010306375 0.52342209)
(0 0.0090303051 0.52169941)
(0 0.0077764233 0.52029723)
(0 0.0065428206 0.51917161)
(0 0.0053271001 0.51828952)
(0 0.0041264668 0.5176264)
(0 0.0029378083 0.51716456)
(0 0.0017577837 0.51689215)
(0 0.00058288707 0.51680244)
(0 -0.00059039922 0.51689345)
(0 -0.0017656053 0.51716796)
(0 -0.0029461378 0.51763354)
(0 -0.0041351962 0.51830304)
(0 -0.0053356797 0.51919527)
(0 -0.0065501039 0.52033622)
(0 -0.0077804786 0.52176081)
(0 -0.0090282789 0.52351556)
(0 -0.010294388 0.52566266)
(0 -0.011578792 0.52828474)
(0 -0.012881319 0.53149028)
(0 -0.014200066 0.53545942)
(0 -0.015565054 0.54074852)
(0 -0.017101566 0.54890684)
(0 -0.018818092 0.56045654)
(0 -0.019545145 0.56281079)
(0 -0.01595636 0.51469875)
(0 -0.0065437457 0.36612379)
(0 0.00060545368 0.12733496)
(0 -0.00033279383 0.11581018)
(0 0.0054809062 0.3414191)
(0 0.015937063 0.5036929)
(0 0.021389209 0.56877208)
(0 0.021540256 0.5720665)
(0 0.019726341 0.55869895)
(0 0.017998132 0.5479734)
(0 0.016565339 0.54120487)
(0 0.015230011 0.53637487)
(0 0.013919206 0.53253296)
(0 0.012628015 0.529391)
(0 0.011356084 0.52681024)
(0 0.010103263 0.52468755)
(0 0.0088688196 0.52294484)
(0 0.0076517024 0.521524)
(0 0.0064505771 0.52038151)
(0 0.005263706 0.51948474)
(0 0.0040890102 0.51880948)
(0 0.0029241247 0.51833831)
(0 0.0017664772 0.51805956)
(0 0.00061334056 0.5179666)
(0 -0.00053802631 0.51805748)
(0 -0.0016903679 0.51833488)
(0 -0.0028463071 0.51880624)
(0 -0.0040082733 0.51948413)
(0 -0.0051784112 0.52038705)
(0 -0.006358514 0.52154054)
(0 -0.0075499276 0.52297903)
(0 -0.0087535439 0.52474852)
(0 -0.0099698165 0.5269106)
(0 -0.011198423 0.52954711)
(0 -0.012439178 0.53276692)
(0 -0.013692375 0.53676666)
(0 -0.014993419 0.54216363)
(0 -0.01646502 0.55048412)
(0 -0.018039258 0.56153616)
(0 -0.018433316 0.56115836)
(0 -0.014629955 0.50835397)
(0 -0.0056956593 0.35807458)
(0 0.00050105423 0.12468941)
(0 -0.00022761277 0.11359545)
(0 0.0049312556 0.33389311)
(0 0.01469043 0.49646625)
(0 0.02026273 0.56609083)
(0 0.020783718 0.57282266)
(0 0.019154222 0.56038374)
(0 0.017483712 0.54950856)
(0 0.0160964 0.54255986)
(0 0.014815727 0.53766838)
(0 0.013561149 0.53380503)
(0 0.012322666 0.53064612)
(0 0.011099289 0.52804855)
(0 0.0098908503 0.52590959)
(0 0.0086966676 0.52415135)
(0 0.0075159557 0.52271593)
(0 0.0063477713 0.52156013)
(0 0.0051908671 0.52065166)
(0 0.0040437249 0.51996658)
(0 0.0029045846 0.51948771)
(0 0.0017715085 0.51920356)
(0 0.00064242577 0.51910756)
(0 -0.00048475377 0.51919779)
(0 -0.0016121124 0.51947686)
(0 -0.0027416164 0.51995205)
(0 -0.0038750651 0.52063571)
(0 -0.005014 0.52154603)
(0 -0.0061596596 0.52270819)
(0 -0.0073129105 0.5241562)
(0 -0.0084742636 0.52593563)
(0 -0.0096439531 0.52810768)
(0 -0.010821577 0.53075363)
(0 -0.012007211 0.5339839)
(0 -0.013203784 0.53801462)
(0 -0.014451486 0.54351933)
(0 -0.015865169 0.5519594)
(0 -0.017303104 0.56239194)
(0 -0.017401943 0.55926694)
(0 -0.013452743 0.50217162)
(0 -0.0050172246 0.35070672)
(0 0.00040223396 0.12235526)
(0 -0.00014476483 0.11155359)
(0 0.0044835406 0.32699721)
(0 0.013577894 0.48949957)
(0 0.019211756 0.56321512)
(0 0.020057072 0.57333198)
(0 0.018610016 0.56195311)
(0 0.016997014 0.55099453)
(0 0.015647496 0.5438684)
(0 0.014413502 0.53891014)
(0 0.01320879 0.53502574)
(0 0.012018112 0.53185283)
(0 0.01083963 0.52924195)
(0 0.0096730173 0.52709028)
(0 0.0085175315 0.52531998)
(0 0.0073725172 0.52387322)
(0 0.0062372815 0.522707)
(0 0.0051109314 0.52178923)
(0 0.0039923778 0.52109624)
(0 0.002880341 0.52061104)
(0 0.0017733987 0.52032224)
(0 0.00067001917 0.52022339)
(0 -0.00043134593 0.52031254)
(0 -0.0015322315 0.52059225)
(0 -0.0026340687 0.52106968)
(0 -0.0037381488 0.52175696)
(0 -0.0048455419 0.52267203)
(0 -0.0059570722 0.52383976)
(0 -0.0070732773 0.52529385)
(0 -0.0081944413 0.52707959)
(0 -0.0093207309 0.5292579)
(0 -0.010451828 0.53190984)
(0 -0.011588262 0.53514858)
(0 -0.012735834 0.53921218)
(0 -0.013938647 0.54482333)
(0 -0.015298992 0.55333849)
(0 -0.016605615 0.56304437)
(0 -0.016444177 0.55718678)
(0 -0.012404111 0.49618019)
(0 -0.0044699041 0.34395112)
(0 0.00031384334 0.12026325)
(0 -8.1324252e-05 0.10965583)
(0 0.0041103524 0.32065847)
(0 0.012580062 0.48280226)
(0 0.018227848 0.56018898)
(0 0.019356295 0.57361507)
(0 0.018089179 0.56340885)
(0 0.016535009 0.5524346)
(0 0.015217941 0.54513723)
(0 0.01402417 0.54010669)
(0 0.012863908 0.5362003)
(0 0.011716762 0.53301521)
(0 0.01057987 0.53039348)
(0 0.0094526474 0.52823171)
(0 0.0083342278 0.52645199)
(0 0.0072239932 0.5249964)
(0 0.0061213957 0.52382202)
(0 0.0050257885 0.52289691)
(0 0.003936404 0.52219755)
(0 0.0028523368 0.52170711)
(0 0.0017725755 0.52141431)
(0 0.00069602438 0.52131273)
(0 -0.00037842272 0.52140046)
(0 -0.001451856 0.52167999)
(0 -0.0025252778 0.52215835)
(0 -0.0035995776 0.52284753)
(0 -0.0046754658 0.52376524)
(0 -0.0057534675 0.52493613)
(0 -0.0068339073 0.52639368)
(0 -0.0079169577 0.52818302)
(0 -0.0090028193 0.53036496)
(0 -0.010091369 0.53302065)
(0 -0.011183728 0.53626727)
(0 -0.012288626 0.54036645)
(0 -0.013453006 0.54608114)
(0 -0.014762659 0.55462571)
(0 -0.015942211 0.56351192)
(0 -0.015552321 0.55495959)
(0 -0.011465405 0.49039746)
(0 -0.0040227634 0.3377448)
(0 0.00023788174 0.11836329)
(0 -3.3903859e-05 0.10788285)
(0 0.0037921275 0.31481401)
(0 0.011680636 0.47637744)
(0 0.01730343 0.55704944)
(0 0.018677938 0.57369101)
(0 0.017587494 0.56475225)
(0 0.016094424 0.55383032)
(0 0.014806407 0.54637136)
(0 0.013647742 0.5412634)
(0 0.012527386 0.53733319)
(0 0.011420115 0.5341368)
(0 0.010321896 0.53150588)
(0 0.0092318156 0.5293359)
(0 0.0081488566 0.5275487)
(0 0.007072376 0.5260862)
(0 0.0060018946 0.52490542)
(0 0.0049369299 0.5239745)
(0 0.0038769481 0.52327)
(0 0.0028213295 0.5227752)
(0 0.0017693857 0.5224789)
(0 0.00072036763 0.52237473)
(0 -0.00032647687 0.52246076)
(0 -0.0013718828 0.52273943)
(0 -0.0024165139 0.52321769)
(0 -0.0034609485 0.5239074)
(0 -0.0045056292 0.52482611)
(0 -0.0055508727 0.52599832)
(0 -0.0065968789 0.52745738)
(0 -0.0076437895 0.52924838)
(0 -0.0086919018 0.53143215)
(0 -0.0097413603 0.5340903)
(0 -0.010793968 0.5373452)
(0 -0.011861291 0.54148301)
(0 -0.012991925 0.54729642)
(0 -0.014252035 0.55582422)
(0 -0.01530826 0.56381119)
(0 -0.014718642 0.5526201)
(0 -0.01062028 0.48483364)
(0 -0.0036515607 0.33203148)
(0 0.00017456684 0.11661957)
(0 8.0143247e-07 0.10622134)
(0 0.003515109 0.30940998)
(0 0.01086599 0.47022409)
(0 0.016431928 0.55382791)
(0 0.018019146 0.57357765)
(0 0.017101214 0.56598441)
(0 0.015672014 0.55518196)
(0 0.014411211 0.54757434)
(0 0.013283686 0.54238455)
(0 0.012199476 0.5384281)
(0 0.011128996 0.53522065)
(0 0.010066918 0.53258159)
(0 0.0090119578 0.53040471)
(0 0.0079629368 0.52861145)
(0 0.0069191496 0.52714346)
(0 0.0058801337 0.52595762)
(0 0.0048455079 0.52502206)
(0 0.0038149043 0.52431339)
(0 0.0027879171 0.52381494)
(0 0.0017641064 0.52351554)
(0 0.00074299487 0.52340887)
(0 -0.00027589076 0.52349298)
(0 -0.0012930063 0.52377028)
(0 -0.0023087527 0.52424764)
(0 -0.0033234717 0.52493683)
(0 -0.0043374117 0.52585529)
(0 -0.0053507507 0.52702743)
(0 -0.0063636273 0.52848658)
(0 -0.0073762063 0.53027789)
(0 -0.0083889153 0.53246235)
(0 -0.009402207 0.53512235)
(0 -0.010418627 0.53838661)
(0 -0.011452363 0.54256598)
(0 -0.012552417 0.54847133)
(0 -0.013763032 0.55693635)
(0 -0.014699405 0.56395718)
(0 -0.01393586 0.55019728)
(0 -0.0098547227 0.47949357)
(0 -0.0033376769 0.32676162)
(0 0.00012308008 0.11500673)
(0 2.5734787e-05 0.10466167)
(0 0.003269708 0.30440048)
(0 0.010124737 0.4643385)
(0 0.015607733 0.55055129)
(0 0.017377601 0.57329178)
(0 0.016627101 0.56710653)
(0 0.01526471 0.55648894)
(0 0.014030508 0.54874855)
(0 0.012931136 0.54347356)
(0 0.011879996 0.53948812)
(0 0.010843735 0.53626933)
(0 0.0098156383 0.53362275)
(0 0.0087940125 0.53143983)
(0 0.0077775248 0.52964151)
(0 0.0067653868 0.52816907)
(0 0.0057571176 0.52697917)
(0 0.0047523929 0.52603988)
(0 0.0037509574 0.52532777)
(0 0.0027525618 0.5248262)
(0 0.0017569548 0.52452404)
(0 0.00076386879 0.52441494)
(0 -0.00022695327 0.52449697)
(0 -0.001215751 0.52477249)
(0 -0.0022027243 0.52524833)
(0 -0.0031880383 0.52593619)
(0 -0.0041718042 0.52685347)
(0 -0.005154113 0.52802455)
(0 -0.0061350851 0.52948279)
(0 -0.0071149409 0.5312735)
(0 -0.0080942506 0.53345796)
(0 -0.0090737944 0.53611973)
(0 -0.010056894 0.53939486)
(0 -0.011060054 0.54361833)
(0 -0.012131426 0.54960685)
(0 -0.013291819 0.55796382)
(0 -0.014111736 0.5639635)
(0 -0.013197407 0.54771552)
(0 -0.0091568801 0.47437852)
(0 -0.003067048 0.32189205)
(0 8.2074969e-05 0.11350685)
(0 4.336836e-05 0.10319641)
(0 0.0030492502 0.29974645)
(0 0.0094473194 0.45871536)
(0 0.014826077 0.54724274)
(0 0.016751425 0.57284929)
(0 0.016162411 0.56812007)
(0 0.014869696 0.5577501)
(0 0.013662412 0.54989543)
(0 0.012589031 0.54453305)
(0 0.011568482 0.54051577)
(0 0.010564321 0.53728502)
(0 0.0095683814 0.53463118)