/*--------------------------------*- C++ -*----------------------------------*\
  =========                 |
  \\      /  F ield         | OpenFOAM: The Open Source CFD Toolbox
   \\    /   O peration     | Website:  https://openfoam.org
    \\  /    A nd           | Version:  10
     \\/     M anipulation  |
\*---------------------------------------------------------------------------*/
FoamFile
{
    format      ascii;
    class       surfaceScalarField;
    location    "0.05";
    object      phi;
}
// * * * * * * * * * * * * * * * * * * * * * * * * * * * * * * * * * * * * * //

dimensions      [1 0 -1 0 0 0 0];

internalField   nonuniform List<scalar> 
7860
(
3.9820674e-08
5.2888765e-07
1.2137523e-08
5.963907e-07
7.3731496e-09
5.7347213e-07
5.4384907e-09
5.7064238e-07
4.0534961e-09
5.7009268e-07
3.1411268e-09
5.6962003e-07
2.5014818e-09
5.6934729e-07
2.0247649e-09
5.6918435e-07
1.65847e-09
5.6907392e-07
1.3699103e-09
5.6899617e-07
1.1371833e-09
5.6894033e-07
9.4544884e-10
5.6889933e-07
7.8430658e-10
5.6886873e-07
6.4622587e-10
5.6884567e-07
5.2560598e-10
5.688282e-07
4.1816904e-10
5.6881502e-07
3.2055188e-10
5.688052e-07
2.3002378e-10
5.6879811e-07
1.442826e-10
5.6879332e-07
6.1300731e-11
5.6879056e-07
-2.0799096e-11
5.6878967e-07
-1.0385221e-10
5.6879063e-07
-1.8976179e-10
5.6879349e-07
-2.8060415e-10
5.6879842e-07
-3.7876369e-10
5.6880574e-07
-4.870989e-10
5.6881592e-07
-6.0916625e-10
5.6882965e-07
-7.4953745e-10
5.6884796e-07
-9.1426563e-10
5.6887232e-07
-1.1115997e-09
5.6890493e-07
-1.3531662e-09
5.6894917e-07
-1.6559573e-09
5.690104e-07
-2.0452248e-09
5.6909689e-07
-2.5611924e-09
5.692236e-07
-3.2865906e-09
5.6943304e-07
-4.3785068e-09
5.6979958e-07
-5.9319001e-09
5.7026108e-07
-9.4347564e-09
5.7221058e-07
-2.9480671e-08
5.8875368e-07
5.3922726e-07
5.9492304e-08
4.693971e-07
3.6460641e-08
6.1942167e-07
2.2438316e-08
5.8749421e-07
1.6058706e-08
5.77022e-07
1.209567e-08
5.7405572e-07
9.4162596e-09
5.7229945e-07
7.4953572e-09
5.712682e-07
6.0642414e-09
5.7061547e-07
4.9666542e-09
5.7017151e-07
4.102063e-09
5.6986076e-07
3.4048153e-09
5.6963758e-07
2.8305057e-09
5.6947364e-07
2.347918e-09
5.6935132e-07
1.9344579e-09
5.6925913e-07
1.5733325e-09
5.6918933e-07
1.2517176e-09
5.6913664e-07
9.5953359e-10
5.6909738e-07
6.8859837e-10
5.6906904e-07
4.3201609e-10
5.690499e-07
1.8371424e-10
5.6903886e-07
-6.1929676e-11
5.6903532e-07
-3.1041421e-10
5.6903912e-07
-5.6743042e-10
5.690505e-07
-8.3919873e-10
5.6907019e-07
-1.1328619e-09
5.690994e-07
-1.4569841e-09
5.6914004e-07
-1.8222237e-09
5.6919489e-07
-2.2422854e-09
5.6926802e-07
-2.7353262e-09
5.6936536e-07
-3.3261019e-09
5.6949571e-07
-4.0494156e-09
5.6967248e-07
-4.9561757e-09
5.6991716e-07
-6.123802e-09
5.7026451e-07
-7.672184e-09
5.7077198e-07
-9.8059276e-09
5.7156679e-07
-1.2933769e-08
5.7292742e-07
-1.7873455e-08
5.7520077e-07
-2.7909097e-08
5.8224622e-07
-4.5562377e-08
6.0640696e-07
4.9366489e-07
5.9729545e-08
4.0967204e-07
5.0099282e-08
6.2905169e-07
3.3015919e-08
6.0457666e-07
2.4468879e-08
5.8556898e-07
1.8977223e-08
5.795474e-07
1.4995683e-08
5.7628099e-07
1.2040223e-08
5.7422366e-07
9.8000575e-09
5.7285564e-07
8.0607635e-09
5.719108e-07
6.6785031e-09
5.7124303e-07
5.5566766e-09
5.7075941e-07
4.6281328e-09
5.7040219e-07
3.844834e-09
5.7013463e-07
3.1716103e-09
5.6993236e-07
2.582082e-09
5.6977886e-07
2.0559546e-09
5.6966277e-07
1.5771815e-09
5.6957616e-07
1.1326738e-09
5.6951355e-07
7.1135783e-10
5.6947122e-07
3.0345455e-10
5.6944677e-07
-1.0010509e-10
5.6943888e-07
-5.081925e-10
5.694472e-07
-9.2998181e-10
5.694723e-07
-1.375479e-09
5.6951569e-07
-1.8561354e-09
5.6958006e-07
-2.3856203e-09
5.6966953e-07
-2.9808505e-09
5.6979012e-07
-3.6634233e-09
5.699506e-07
-4.4616972e-09
5.7016364e-07
-5.413896e-09
5.7044791e-07
-6.572822e-09
5.7083141e-07
-8.013554e-09
5.713579e-07
-9.8467477e-09
5.7209771e-07
-1.2236139e-08
5.7316138e-07
-1.5417418e-08
5.7474807e-07
-1.9756485e-08
5.7726649e-07
-2.6225949e-08
5.8167024e-07
-3.8439437e-08
5.9445971e-07
-4.777054e-08
6.1573807e-07
4.4589435e-07
5.4510732e-08
3.5517001e-07
5.6848782e-08
6.2671561e-07
3.9904479e-08
6.2151914e-07
3.0247912e-08
5.9522516e-07
2.4123025e-08
5.8567232e-07
1.9450416e-08
5.8095361e-07
1.5836448e-08
5.7783763e-07
1.3020129e-08
5.7567196e-07
1.0787925e-08
5.7414301e-07
8.9872056e-09
5.7304375e-07
7.5093906e-09
5.7223723e-07
6.2754832e-09
5.716361e-07
5.2272895e-09
5.7118282e-07
4.321272e-09
5.7083838e-07
3.5242067e-09
5.7057593e-07
2.8101815e-09
5.7037679e-07
2.1584816e-09
5.7022786e-07
1.5520578e-09
5.7011998e-07
9.7638307e-10
5.700469e-07
4.1856303e-10
5.7000459e-07
-1.3339681e-10
5.6999085e-07
-6.9123991e-10
5.7000505e-07
-1.2670889e-09
5.7004815e-07
-1.8741119e-09
5.7012271e-07
-2.5272872e-09
5.7023324e-07
-3.244349e-09
5.7038659e-07
-4.0470184e-09
5.705928e-07
-4.9626677e-09
5.7086625e-07
-6.0266417e-09
5.7122761e-07
-7.2855744e-09
5.7170684e-07
-8.8020333e-09
5.7234787e-07
-1.066099e-08
5.7321686e-07
-1.2980327e-08
5.7441705e-07
-1.5923836e-08
5.7610489e-07
-1.969326e-08
5.785175e-07
-2.4558828e-08
5.8213206e-07
-3.1757055e-08
5.8886846e-07
-4.4293577e-08
6.0699623e-07
-4.5986299e-08
6.1743079e-07
3.9990805e-07
4.7521119e-08
3.0766338e-07
5.9235343e-08
6.1500808e-07
4.4577029e-08
6.3617497e-07
3.4124772e-08
6.0567631e-07
2.7677985e-08
5.9211911e-07
2.2727677e-08
5.8590395e-07
1.8781105e-08
5.817842e-07
1.5620136e-08
5.7883293e-07
1.305837e-08
5.7670478e-07
1.0955306e-08
5.7514681e-07
9.2049931e-09
5.7398754e-07
7.7268058e-09
5.7311429e-07
6.45934e-09
5.7245029e-07
5.3553557e-09
5.7194236e-07
4.3779694e-09
5.7155332e-07
3.4978798e-09
5.7125688e-07
2.6913041e-09
5.7103444e-07
1.9384229e-09
5.7087286e-07
1.2221808e-09
5.7076314e-07
5.273301e-10
5.7069944e-07
-1.603732e-10
5.7067855e-07
-8.5488959e-10
5.7069957e-07
-1.5705967e-09
5.7076386e-07
-2.3230252e-09
5.7087515e-07
-3.1296915e-09
5.7103991e-07
-4.0111027e-09
5.71268e-07
-4.9920248e-09
5.7157372e-07
-6.1031307e-09
5.7197736e-07
-7.3831785e-09
5.7250766e-07
-8.8819516e-09
5.7320562e-07
-1.0664134e-08
5.7413006e-07
-1.2813847e-08
5.7536657e-07
-1.5441254e-08
5.7704446e-07
-1.8692906e-08
5.7935654e-07
-2.2744311e-08
5.825689e-07
-2.7896895e-08
5.8728465e-07
-3.5682826e-08
5.966544e-07
-4.7304046e-08
6.1861745e-07
-4.2459516e-08
6.1258626e-07
3.5744854e-07
3.9821952e-08
2.6786351e-07
5.7900291e-08
5.9694434e-07
4.7194573e-08
6.4687852e-07
3.657177e-08
6.1629679e-07
2.9972268e-08
5.9871842e-07
2.4984648e-08
5.9089164e-07
2.0926726e-08
5.8584214e-07
1.7600669e-08
5.8215899e-07
1.4851295e-08
5.7945415e-07
1.2555305e-08
5.7744281e-07
1.061587e-08
5.7592698e-07
8.9571028e-09
5.7477306e-07
7.5195038e-09
5.7388789e-07
6.2559891e-09
5.7320588e-07
5.128892e-09
5.7268042e-07
4.1076617e-09
5.7227812e-07
3.1670581e-09
5.7197504e-07
2.2857319e-09
5.7175419e-07
1.4450915e-09
5.7160378e-07
6.2837e-10
5.7151617e-07
-1.8017678e-10
5.714871e-07
-9.9599772e-10
5.7151539e-07
-1.834959e-09
5.7160282e-07
-2.7140862e-09
5.7175427e-07
-3.6523877e-09
5.7197821e-07
-4.6718227e-09
5.7228744e-07
-5.7984848e-09
5.7270039e-07
-7.0640789e-09
5.7324295e-07
-8.5077785e-09
5.7395137e-07
-1.0178609e-08
5.7487645e-07
-1.2138594e-08
5.7609004e-07
-1.4466319e-08
5.776943e-07
-1.7261158e-08
5.798393e-07
-2.0650741e-08
5.8274613e-07
-2.4796498e-08
5.8671466e-07
-3.0095445e-08
5.925836e-07
-3.8122417e-08
6.0468137e-07
-4.7613802e-08
6.2810884e-07
-3.7667588e-08
6.0264005e-07
3.1978095e-07
3.2284078e-08
2.3561145e-07
5.3890367e-08
5.7536441e-07
4.7732628e-08
6.5303618e-07
3.7726133e-08
6.2629934e-07
3.1200968e-08
6.0524292e-07
2.6361444e-08
5.9573125e-07
2.23595e-08
5.8984411e-07
1.9007552e-08
5.8551094e-07
1.6185793e-08
5.8227591e-07
1.3790559e-08
5.7983804e-07
1.1737196e-08
5.7798034e-07
9.9579343e-09
5.7655232e-07
8.3982692e-09
5.7544756e-07
7.0139456e-09
5.7459021e-07
5.7687216e-09
5.7392564e-07
4.6325726e-09
5.7341427e-07
3.5802199e-09
5.730274e-07
2.5899323e-09
5.7274448e-07
1.642535e-09
5.7255118e-07
7.2056598e-10
5.7243814e-07
-1.9246577e-10
5.7240013e-07
-1.1127633e-09
5.7243569e-07
-2.0569157e-09
5.7254697e-07
-3.0425936e-09
5.7273996e-07
-4.0893061e-09
5.7302493e-07
-5.2192696e-09
5.7341741e-07
-6.4584354e-09
5.7393955e-07
-7.8377357e-09
5.7462226e-07
-9.3945963e-09
5.7550823e-07
-1.1174796e-08
5.7665665e-07
-1.3234978e-08
5.7815023e-07
-1.564571e-08
5.8010503e-07
-1.8493796e-08
5.8268739e-07
-2.1883979e-08
5.8613631e-07
-2.5961811e-08
5.907925e-07
-3.1216403e-08
5.9783819e-07
-3.8977745e-08
6.1244271e-07
-4.5688015e-08
6.3481911e-07
-3.2286554e-08
5.8923859e-07
2.874944e-07
2.5548997e-08
2.1010719e-07
4.8492345e-08
5.5246383e-07
4.6578026e-08
6.5495521e-07
3.7776664e-08
6.3509497e-07
3.1530497e-08
6.1148754e-07
2.6973119e-08
6.002887e-07
2.3160052e-08
5.9365724e-07
1.989606e-08
5.8877493e-07
1.7096576e-08
5.850754e-07
1.4680701e-08
5.8225392e-07
1.2578565e-08
5.8008248e-07
1.0732648e-08
5.7839824e-07
9.0953679e-09
5.7708484e-07
7.6270718e-09
5.760585e-07
6.2945178e-09
5.752582e-07
5.06956e-09
5.7463923e-07
3.9280301e-09
5.7416893e-07
2.8487943e-09
5.7382372e-07
1.8129416e-09
5.7358704e-07
8.0307156e-10
5.7344801e-07
-1.9734941e-10
5.7340056e-07
-1.204589e-09
5.7344293e-07
-2.2352465e-09
5.7357763e-07
-3.3068628e-09
5.7381157e-07
-4.4385752e-09
5.7415664e-07
-5.6518488e-09
5.7463068e-07
-6.9713158e-09
5.7525902e-07
-8.4257645e-09
5.7607671e-07
-1.004931e-08
5.7713178e-07
-1.1882749e-08
5.784901e-07
-1.3975335e-08
5.8024282e-07
-1.6387092e-08
5.8251679e-07
-1.9189272e-08
5.8548957e-07
-2.2461296e-08
5.8940834e-07
-2.6338219e-08
5.9466942e-07
-3.1375551e-08
6.0287553e-07
-3.8451822e-08
6.1951899e-07
-4.2315683e-08
6.3868298e-07
-2.6933288e-08
5.738562e-07
2.6056111e-07
1.9870708e-08
1.9029748e-07
4.2644081e-08
5.2975506e-07
4.4258826e-08
6.5335353e-07
3.6994493e-08
6.4235199e-07
3.1169436e-08
6.1730964e-07
2.696037e-08
6.0449771e-07
2.3422387e-08
5.9719533e-07
2.033119e-08
5.9186615e-07
1.7628239e-08
5.8777835e-07
1.5255622e-08
5.8462654e-07
1.3159368e-08
5.8217874e-07
1.1293284e-08
5.8026433e-07
9.6178436e-09
5.7876028e-07
8.099135e-09
5.7757722e-07
6.7079832e-09
5.7664935e-07
5.4190917e-09
5.7592812e-07
4.210277e-09
5.7537775e-07
3.0617851e-09
5.7497221e-07
1.9556758e-09
5.7469315e-07
8.7526144e-10
5.7452843e-07
-1.9541534e-10
5.7447124e-07
-1.2720772e-09
5.745196e-07
-2.3707078e-09
5.7467627e-07
-3.5080538e-09
5.7494892e-07
-4.7021534e-09
5.7535074e-07
-5.9729113e-09
5.7590144e-07
-7.3427342e-09
5.7662885e-07
-8.8372478e-09
5.7757122e-07
-1.0486119e-08
5.7878065e-07
-1.2323936e-08
5.8032792e-07
-1.4391232e-08
5.8231011e-07
-1.6735928e-08
5.8486149e-07
-1.9412535e-08
5.8816618e-07
-2.2478847e-08
5.9247465e-07
-2.6072155e-08
5.9826273e-07
-3.0769745e-08
6.0757312e-07
-3.6879698e-08
6.2562894e-07
-3.8156115e-08
6.3995939e-07
-2.1960313e-08
5.576604e-07
2.386008e-07
1.5253991e-08
1.7512895e-07
3.6883183e-08
5.0821891e-07
4.121157e-08
6.4905095e-07
3.5617319e-08
6.47938e-07
3.0316584e-08
6.2260545e-07
2.6476424e-08
6.0833748e-07
2.3254699e-08
6.0041722e-07
2.0389144e-08
5.9473174e-07
1.7834708e-08
5.9033279e-07
1.5553461e-08
5.8690779e-07
1.350639e-08
5.8422581e-07
1.1658412e-08
5.8211231e-07
9.9783519e-09
5.8044035e-07
8.4385705e-09
5.79117e-07
7.0145658e-09
5.7807336e-07
5.6845162e-09
5.7725817e-07
4.428833e-09
5.7663343e-07
3.2297244e-09
5.7617132e-07
2.0707728e-09
5.758521e-07
9.3653004e-10
5.7566267e-07
-1.878737e-10
5.7559564e-07
-1.3171082e-09
5.7564884e-07
-2.4660249e-09
5.7582519e-07
-3.6500381e-09
5.7613294e-07
-4.885518e-09
5.7658623e-07
-6.1902014e-09
5.7720613e-07
-7.5836226e-09
5.7802227e-07
-9.0875679e-09
5.7907517e-07
-1.0726569e-08
5.8041965e-07
-1.2528389e-08
5.8212974e-07
-1.4524489e-08
5.8430622e-07
-1.6750699e-08
5.870877e-07
-1.9245824e-08
5.9066131e-07
-2.2052341e-08
5.9528117e-07
-2.5317766e-08
6.0152816e-07
-2.9583214e-08
6.1183857e-07
-3.4559641e-08
6.3060537e-07
-3.3651516e-08
6.3905127e-07
-1.7533335e-08
5.4154222e-07
2.2106747e-07
1.1597549e-08
1.636607e-07
3.1502882e-08
4.8844461e-07
3.7763024e-08
6.4283452e-07
3.3820756e-08
6.5187224e-07
2.9122216e-08
6.2729657e-07
2.5654178e-08
6.1180453e-07
2.2760667e-08
6.0331093e-07
2.0147993e-08
5.9734447e-07
1.7774231e-08
5.9270655e-07
1.561734e-08
5.8906468e-07
1.3651321e-08
5.8619184e-07
1.1851146e-08
5.8391248e-07
1.0193594e-08
5.820979e-07
8.657279e-09
5.8065332e-07
7.2225655e-09
5.7950808e-07
5.8714141e-09
5.7860933e-07
4.5871961e-09
5.7791765e-07
3.3544705e-09
5.7740405e-07
2.158738e-09
5.7704784e-07
9.8618533e-10
5.7683523e-07
-1.765746e-10
5.767584e-07
-1.3427636e-09
5.7681503e-07
-2.5257021e-09
5.7700813e-07
-3.739069e-09
5.7734631e-07
-4.9971581e-09
5.7784432e-07
-6.3151311e-09
5.7852411e-07
-7.7092602e-09
5.794164e-07
-9.1971497e-09
5.8056306e-07
-1.0797951e-08
5.8202046e-07
-1.2532561e-08
5.8386435e-07
-1.4423709e-08
5.8619737e-07
-1.6496003e-08
5.8916e-07
-1.8774333e-08
5.9293964e-07
-2.1291171e-08
5.9779801e-07
-2.4203622e-08
6.0444061e-07
-2.7962753e-08
6.155977e-07
-3.1738771e-08
6.3438139e-07
-2.9101067e-08
6.3641357e-07
-1.3706875e-08
5.2614803e-07
2.0736059e-07
8.7593358e-09
1.5510323e-07
2.6650148e-08
4.7073774e-07
3.415784e-08
6.3539495e-07
3.1742781e-08
6.542812e-07
2.7696505e-08
6.3133254e-07
2.4598528e-08
6.149006e-07
2.2029107e-08
6.0588055e-07
1.9679407e-08
5.9969427e-07
1.7503678e-08
5.9488229e-07
1.5491676e-08
5.9107668e-07
1.3628416e-08
5.880551e-07
1.1897658e-08
5.8564324e-07
1.0283385e-08
5.8371218e-07
8.7700945e-09
5.8216661e-07
7.3428986e-09
5.8093528e-07
5.9875918e-09
5.7996464e-07
4.6906594e-09
5.7921459e-07
3.4392258e-09
5.7865549e-07
2.2209602e-09
5.7826611e-07
1.0239547e-09
5.7803223e-07
-1.6341607e-10
5.7794578e-07
-1.3526432e-09
5.7800426e-07
-2.5552358e-09
5.7821072e-07
-3.782864e-09
5.7857394e-07
-5.0474907e-09
5.7910895e-07
-6.3614808e-09
5.798381e-07
-7.73768e-09
5.807926e-07
-9.189445e-09
5.8201483e-07
-1.0730634e-08
5.8356165e-07
-1.2375575e-08
5.8550929e-07
-1.4138898e-08
5.8796069e-07
-1.6035029e-08
5.9105613e-07
-1.807685e-08
5.9498146e-07
-2.0290563e-08
6.0001173e-07
-2.2836033e-08
6.0698608e-07
-2.6035997e-08
6.1879767e-07
-2.862939e-08
6.3697479e-07
-2.4708278e-08
6.3249246e-07
-1.0466499e-08
5.1190625e-07
1.968941e-07
6.5845413e-09
1.4881597e-07
2.2369213e-08
4.552107e-07
3.0567714e-08
6.2729775e-07
2.9497226e-08
6.5534992e-07
2.6126156e-08
6.3469018e-07
2.3394032e-08
6.1762951e-07
2.113554e-08
6.0813916e-07
1.9047385e-08
6.0178257e-07
1.7076368e-08
5.9685332e-07
1.5220215e-08
5.9293284e-07
1.3473096e-08
5.8980222e-07
1.1826337e-08
5.8729001e-07
1.0270281e-08
5.8526823e-07
8.7947664e-09
5.8364213e-07
7.3893572e-09
5.8234069e-07
6.043556e-09
5.8131044e-07
4.746956e-09
5.8051119e-07
3.4893214e-09
5.7991313e-07
2.2606159e-09
5.7949482e-07
1.0509939e-09
5.7924186e-07
-1.4923415e-10
5.7914601e-07
-1.34965e-09
5.7920467e-07
-2.5597781e-09
5.7942085e-07
-3.7891257e-09
5.7980329e-07
-5.0472026e-09
5.8036703e-07
-6.3435077e-09
5.8113441e-07
-7.687471e-09
5.8213657e-07
-9.0883311e-09
5.8341569e-07
-1.0554944e-08
5.8502826e-07
-1.2095564e-08
5.8704992e-07
-1.3717466e-08
5.895826e-07
-1.5426028e-08
5.927647e-07
-1.7224153e-08
5.9677959e-07
-1.9134172e-08
6.0192175e-07
-2.1308326e-08
6.0916024e-07
-2.3920094e-08
6.2140944e-07
-2.5407415e-08
6.3846211e-07
-2.0599222e-08
6.2768427e-07
-7.7573817e-09
4.9906441e-07
1.8913672e-07
4.9253928e-09
1.4428509e-07
1.8638321e-08
4.4185274e-07
2.710021e-08
6.1898179e-07
2.71742e-08
6.552816e-07
2.4480555e-08
6.3736715e-07
2.2109762e-08
6.1999535e-07
2.0144555e-08
6.1010429e-07
1.8308645e-08
6.0361868e-07
1.6541113e-08
5.9862089e-07
1.484443e-08
5.9462952e-07
1.322019e-08
5.9142646e-07
1.1666144e-08
5.8884406e-07
1.0178147e-08
5.8675623e-07
8.7507787e-09
5.850695e-07
7.3776641e-09
5.837138e-07
6.0517842e-09
5.8263632e-07
4.7657267e-09
5.8179725e-07
3.5118659e-09
5.8116699e-07
2.282488e-09
5.807242e-07
1.0698744e-09
5.8045448e-07
-1.3364509e-10
5.8034953e-07
-1.3356534e-09
5.8040669e-07
-2.54361e-09
5.8062881e-07
-3.7648009e-09
5.8102448e-07
-5.0062659e-09
5.8160849e-07
-6.274683e-09
5.8240283e-07
-7.5762007e-09
5.8343809e-07
-8.9161964e-09
5.8475569e-07
-1.0298947e-08
5.8641102e-07
-1.1727256e-08
5.8847823e-07
-1.3201913e-08
5.9105726e-07
-1.4720519e-08
5.9428331e-07
-1.6278067e-08
5.9833714e-07
-1.7894066e-08
6.0353775e-07
-1.9701516e-08
6.1096769e-07
-2.1718847e-08
6.2342677e-07
-2.2210994e-08
6.3895426e-07
-1.6845378e-08
6.2231866e-07
-5.5130356e-09
4.8773207e-07
1.8362369e-07
3.6556814e-09
1.4110172e-07
1.5405742e-08
4.3057634e-07
2.3817271e-08
6.1077386e-07
2.4841866e-08
6.5427375e-07
2.2812347e-08
6.3937658e-07
2.0798471e-08
6.2200201e-07
1.9107656e-08
6.1179469e-07
1.7509793e-08
6.0521679e-07
1.593884e-08
6.0019189e-07
1.4399702e-08
5.9616866e-07
1.289986e-08
5.929263e-07
1.1442449e-08
5.9030147e-07
1.0028034e-08
5.8817065e-07
8.6553351e-09
5.864422e-07
7.3216127e-09
5.8504753e-07
6.0230411e-09
5.839349e-07
4.7550232e-09
5.8306527e-07
3.5124431e-09
5.8240957e-07
2.289865e-09
5.8194678e-07
1.0816878e-09
5.8166265e-07
-1.1772768e-10
5.8154895e-07
-1.3139493e-09
5.8160291e-07
-2.5123641e-09
5.8182723e-07
-3.7180542e-09
5.8223017e-07
-4.9356476e-09
5.8282609e-07
-6.1691232e-09
5.836363e-07
-7.4215578e-09
5.8469053e-07
-8.694798e-09
5.8602893e-07
-9.9890378e-09
5.8770526e-07
-1.1302323e-08
5.8979151e-07
-1.2629899e-08
5.9238483e-07
-1.3962951e-08
5.9561636e-07
-1.5290479e-08
5.9966467e-07
-1.6629125e-08
6.048764e-07
-1.8082634e-08
6.124212e-07
-1.9521484e-08
6.2486562e-07
-1.914964e-08
6.3858242e-07
-1.3492171e-08
6.1666119e-07
-3.6789011e-09
4.7791881e-07
1.7994479e-07
2.6780651e-09
1.3894568e-07
1.2616654e-08
4.2124592e-07
2.0757247e-08
6.029073e-07
2.2552424e-08
6.5251026e-07
2.1158579e-08
6.4074681e-07
1.949522e-08
6.2365532e-07
1.8060097e-08
6.1322889e-07
1.6683432e-08
6.0659375e-07
1.5298348e-08
6.0157706e-07
1.391078e-08
5.9755624e-07
1.2532782e-08
5.943043e-07
1.1172004e-08
5.9166225e-07
9.8330136e-09
5.8950964e-07
8.5181172e-09
5.877571e-07
7.2277969e-09
5.8633785e-07
5.9611165e-09
5.8520158e-07
4.7160803e-09
5.8431031e-07
3.4899355e-09
5.8363572e-07
2.2794256e-09
5.8315729e-07
1.0810015e-09
5.8286108e-07
-1.0899279e-10
5.8273894e-07
-1.2941528e-09
5.8278807e-07
-2.4778439e-09
5.8301092e-07
-3.663017e-09
5.8341535e-07
-4.8519978e-09
5.8401507e-07
-6.0462315e-09
5.8483054e-07
-7.2459667e-09
5.8589027e-07
-8.4498681e-09
5.8723284e-07
-9.6545384e-09
5.8890993e-07
-1.0853943e-08
5.9099092e-07
-1.2038672e-08
5.9356957e-07
-1.3194809e-08
5.967725e-07
-1.430704e-08
6.007769e-07
-1.5388611e-08
6.0595797e-07
-1.6508314e-08
6.1354091e-07
-1.7407135e-08
6.2576445e-07
-1.6316565e-08
6.3749185e-07
-1.057988e-08
6.1092451e-07
-2.2234732e-09
4.695624e-07
1.7772132e-07
1.9239749e-09
1.3756883e-07
1.0227641e-08
4.1369499e-07
1.7951186e-08
5.955392e-07
2.0350525e-08
6.5016176e-07
1.9546566e-08
6.4152413e-07
1.8222041e-08
6.2496665e-07
1.7024165e-08
6.1442518e-07
1.5850577e-08
6.0776765e-07
1.4638096e-08
6.0278966e-07
1.3392988e-08
5.9880135e-07
1.2130862e-08
5.9556643e-07
1.0863205e-08
5.9292991e-07
9.5980338e-09
5.9077482e-07
8.3407817e-09
5.8901435e-07
7.0947828e-09
5.8758385e-07
5.8616988e-09
5.8643467e-07
4.6419075e-09
5.855301e-07
3.4348425e-09
5.8484279e-07
2.239287e-09
5.8435285e-07
1.0536301e-09
5.8404674e-07
-1.239003e-10
5.8391648e-07
-1.2950219e-09
5.839592e-07
-2.4611797e-09
5.8417708e-07
-3.6233117e-09
5.8457748e-07
-4.781589e-09
5.8517335e-07
-5.9351123e-09
5.8598407e-07
-7.0815505e-09
5.8703671e-07
-8.2167105e-09
5.88368e-07
-9.334029e-09
5.9002725e-07
-1.0423956e-08
5.9208085e-07
-1.1473152e-08
5.9461877e-07
-1.2463667e-08
5.9776302e-07
-1.3377252e-08
6.0169049e-07
-1.4223291e-08
6.0680402e-07
-1.5035447e-08
6.1435307e-07
-1.5453022e-08
6.2618202e-07
-1.3796345e-08
6.3583518e-07
-8.1458649e-09
6.0527403e-07
-1.1342549e-09
4.625508e-07
1.7658707e-07
1.3479805e-09
1.3677608e-07
8.2116282e-09
4.0773263e-07
1.5435333e-08
5.8876112e-07
1.828613e-08
6.4738602e-07
1.8008853e-08
6.4177374e-07
1.7003925e-08
6.2595556e-07
1.6024601e-08
6.1540216e-07
1.5035209e-08
6.0875734e-07
1.3979841e-08
6.0384517e-07
1.2864986e-08
5.9991622e-07
1.1709192e-08
5.9672222e-07
1.0527346e-08
5.9411176e-07
9.330536e-09
5.9197163e-07
8.1269839e-09
5.9021791e-07
6.922571e-09
5.8878827e-07
5.7212899e-09
5.8763595e-07
4.5256609e-09
5.8672574e-07
3.337103e-09
5.8603135e-07
2.1562623e-09
5.8553369e-07
9.8330684e-10
5.852197e-07
-1.8180177e-10
5.8508159e-07
-1.3390512e-09
5.8511645e-07
-2.4881196e-09
5.8532615e-07
-3.6280994e-09
5.8571747e-07
-4.7571961e-09
5.8630245e-07
-5.8723833e-09
5.8709925e-07
-6.9690041e-09
5.8813333e-07
-8.0403049e-09
5.894393e-07
-9.0769012e-09
5.9106385e-07
-1.0066148e-08
5.930701e-07
-1.0991282e-08
5.955439e-07
-1.1830986e-08
5.9860272e-07
-1.2564966e-08
6.0242447e-07
-1.3198499e-08
6.0743755e-07
-1.3734032e-08
6.1488861e-07
-1.3741566e-08
6.2618956e-07
-1.1664692e-08
6.3375831e-07
-6.2108621e-09
5.9982021e-07
-4.0124956e-10
4.5674119e-07
1.7618582e-07
9.2060988e-10
1.3640743e-07
6.5567465e-09
4.0314e-07
1.3259039e-08
5.8260064e-07
1.6429865e-08
6.4432054e-07
1.6605308e-08
6.4157354e-07
1.589345e-08
6.2664985e-07
1.5112767e-08
6.161798e-07
1.4287278e-08
6.0958299e-07
1.3370509e-08
6.0476208e-07
1.2369695e-08
6.0091706e-07
1.1306201e-08
5.9778572e-07
1.0198135e-08
5.9521983e-07
9.0594531e-09
5.9311031e-07
7.9009307e-09
5.9137643e-07
6.7307443e-09
5.8995846e-07
5.5549666e-09
5.8881173e-07
4.3780193e-09
5.8790269e-07
3.2030782e-09
5.8720629e-07
2.032436e-09
5.8670433e-07
8.6783145e-10
5.8638431e-07
-2.8924416e-10
5.8623867e-07
-1.4372551e-09
5.8626446e-07
-2.5743266e-09
5.8646323e-07
-3.6979351e-09
5.8684108e-07
-4.8045688e-09
5.8740909e-07
-5.8893463e-09
5.8818403e-07
-6.9455802e-09
5.8918957e-07
-7.9642737e-09
5.90458e-07
-8.9335457e-09
5.9203313e-07
-9.8379863e-09
5.9397454e-07
-1.0657751e-08
5.9636367e-07
-1.1368426e-08
5.993134e-07
-1.194788e-08
6.0300393e-07
-1.2396805e-08
6.0788648e-07
-1.2690575e-08
6.1518238e-07
-1.2358057e-08
6.2585705e-07
-9.9787512e-09
6.3137901e-07
-4.7631496e-09
5.9460461e-07
4.2784497e-11
4.5193526e-07
1.7622861e-07
6.2287646e-10
1.363247e-07
5.2603796e-09
3.9966465e-07
1.1481626e-08
5.7701872e-07
1.4878722e-08
6.410651e-07
1.5437208e-08
6.4099809e-07
1.4988005e-08
6.2708177e-07
1.438333e-08
6.1678087e-07
1.3698089e-08
6.1026818e-07
1.2896716e-08
6.0556355e-07
1.1988385e-08
6.0182541e-07
1.0997595e-08
5.9877651e-07
9.9456964e-09
5.9627173e-07
8.849411e-09
5.942066e-07
7.7218716e-09
5.9250397e-07
6.5733027e-09
5.9110703e-07
5.4115908e-09
5.8997344e-07
4.242788e-09
5.8907149e-07
3.0715594e-09
5.8837752e-07
1.901583e-09
5.8787431e-07
7.3591056e-10
5.8754998e-07
-4.2269656e-10
5.8739728e-07
-1.5714459e-09
5.8741321e-07
-2.7071898e-09
5.8759897e-07
-3.8260888e-09
5.8795998e-07
-4.923241e-09
5.8850624e-07
-5.9922663e-09
5.8925306e-07
-7.0248319e-09
5.9022213e-07
-8.0101061e-09
5.9144328e-07
-8.9341211e-09
5.9295715e-07
-9.7790759e-09
5.948195e-07
-1.0522384e-08
5.9710698e-07
-1.1136639e-08
5.9992766e-07
-1.1597365e-08
6.0346466e-07
-1.1898996e-08
6.0818811e-07
-1.1989667e-08
6.1527305e-07
-1.1371914e-08
6.252393e-07
-8.7606003e-09
6.287677e-07
-3.7664178e-09
5.8961043e-07
2.3233879e-10
4.479365e-07
1.7646095e-07
4.4243171e-10
1.364044e-07
4.3167544e-09
3.9702785e-07
1.0151175e-08
5.7191437e-07
1.3735932e-08
6.3766163e-07
1.4631567e-08
6.4009663e-07
1.4417246e-08
6.2728033e-07
1.3962287e-08
6.1723178e-07
1.3388245e-08
6.1084185e-07
1.2673159e-08
6.0627867e-07
1.1829966e-08
6.0266862e-07
1.0886808e-08
5.9971968e-07
9.8683179e-09
5.9729022e-07
8.7938535e-09
5.9528107e-07
7.6786496e-09
5.9361918e-07
6.534673e-09
5.9225101e-07
5.3713025e-09
5.9113682e-07
4.1958992e-09
5.902469e-07
3.0143048e-09
5.8955912e-07
1.8312772e-09
5.8905734e-07
6.5088085e-10
5.8873038e-07
-5.2315587e-10
5.8857132e-07
-1.6870981e-09
5.8857716e-07
-2.8368586e-09
5.8874874e-07
-3.9676438e-09
5.8909077e-07
-5.0735612e-09
5.8961216e-07
-6.1471774e-09
5.9032668e-07
-7.1790077e-09
5.9125397e-07
-8.1569254e-09
5.924212e-07
-9.0654458e-09
5.9386567e-07
-9.8849198e-09
5.9563898e-07
-1.0590527e-08
5.9781259e-07
-1.1152106e-08
6.0048924e-07
-1.1541786e-08
6.0385434e-07
-1.1743824e-08
6.0839016e-07
-1.167165e-08
6.1520088e-07
-1.0799543e-08
6.2436719e-07
-7.9732764e-09
6.2594143e-07
-3.140381e-09
5.8477754e-07
2.3918951e-10
4.4455694e-07
1.7670014e-07
3.6717856e-10
1.365387e-07
3.699547e-09
3.9495363e-07
9.2691673e-09
5.6714796e-07
1.3061832e-08
6.3408757e-07
1.4287071e-08
6.3887572e-07
1.4290998e-08
6.2726142e-07
1.3957866e-08
6.1756012e-07
1.3461239e-08
6.1133775e-07
1.2798896e-08
6.0694098e-07
1.1989949e-08
6.0347758e-07
1.1066546e-08
6.0064309e-07
1.0056487e-08
5.9830028e-07
8.9814658e-09
5.9635609e-07
7.8584353e-09
5.9474221e-07
6.700703e-09
5.9340874e-07
5.5187486e-09
5.9231877e-07
4.3208725e-09
5.9144478e-07
3.1137456e-09
5.9076625e-07
1.9028778e-09
5.9026821e-07
6.9302744e-10
5.8994023e-07
-5.114268e-10
5.8977577e-07
-1.7061351e-09
5.8977187e-07
-2.8864197e-09
5.8992902e-07
-4.0469146e-09
5.9025126e-07
-5.1811649e-09
5.9074642e-07
-6.2811712e-09
5.9142669e-07
-7.3368525e-09
5.9230965e-07
-8.335415e-09
5.9341976e-07
-9.2605576e-09
5.9479081e-07
-1.0091502e-08
5.9646992e-07
-1.0801894e-08
5.9852299e-07
-1.1359297e-08
6.0104665e-07
-1.1731016e-08
6.0422606e-07
-1.1884631e-08
6.0854377e-07
-1.1684837e-08
6.1500109e-07
-1.0564742e-08
6.232471e-07
-7.5036069e-09
6.228803e-07
-2.7684812e-09
5.8004242e-07
1.424016e-10
4.4164606e-07
1.7684255e-07
3.7612117e-10
1.3664496e-07
3.3487751e-09
3.932098e-07
8.7607502e-09
5.6258475e-07
1.2817799e-08
6.3027709e-07
1.4402255e-08
6.3729948e-07
1.4626046e-08
6.2701994e-07
1.4391908e-08
6.1778778e-07
1.3940022e-08
6.117885e-07
1.3298308e-08
6.0758264e-07
1.2495069e-08
6.0428085e-07
1.1566559e-08
6.0157161e-07
1.0543364e-08
5.9932348e-07
9.4490378e-09
5.9745042e-07
8.3017567e-09
5.958895e-07
7.1157049e-09
5.945948e-07
5.9020408e-09
5.9353244e-07
4.669627e-09
5.9267719e-07
3.4256257e-09
5.9201025e-07
2.1759895e-09
5.9151785e-07
9.2588053e-10
5.9119034e-07
-3.1995609e-10
5.9102161e-07
-1.5568435e-09
5.9100876e-07
-2.7798183e-09
5.91152e-07
-3.9832768e-09
5.9145473e-07
-5.1605792e-09
5.9192372e-07
-6.3035946e-09
5.9256971e-07
-7.4021525e-09
5.9340821e-07
-8.4433763e-09
5.9446099e-07
-9.4108211e-09
5.9575826e-07
-1.0283311e-08
5.9734242e-07
-1.103367e-08
5.9927335e-07
-1.1627674e-08
6.0164066e-07
-1.2026119e-08
6.0462451e-07
-1.2172082e-08
6.0868974e-07
-1.1866853e-08
6.1469586e-07
-1.0492432e-08
6.2187268e-07
-7.1786036e-09
6.1956648e-07
-2.5241003e-09
5.7538791e-07
2.4378365e-11
4.3909758e-07
1.7686693e-07
4.3763167e-10
1.3667523e-07
3.1733786e-09
3.916431e-07
8.475194e-09
5.5814564e-07
1.284189e-08
6.2617039e-07
1.4829992e-08
6.3531396e-07
1.5293976e-08
6.2653036e-07
1.5150362e-08
6.1792179e-07
1.4722055e-08
6.1221522e-07
1.4079777e-08
6.0822492e-07
1.3264557e-08
6.0509614e-07
1.2316743e-08
6.0251944e-07
1.1269198e-08
6.0037103e-07
1.0146815e-08
5.985728e-07
8.9685218e-09
5.9706779e-07
7.7489642e-09
5.9581436e-07
6.4996208e-09
5.9478179e-07
5.2296112e-09
5.939472e-07
3.9463264e-09
5.9329354e-07
2.6559315e-09
5.9280825e-07
1.3637843e-09
5.9248249e-07
7.4800679e-11
5.923106e-07
-1.2062077e-09
5.9228977e-07
-2.4741914e-09
5.9241999e-07
-3.7235242e-09
5.9270406e-07
-4.9476225e-09
5.9314782e-07
-6.1385007e-09
5.9376059e-07
-7.286223e-09
5.9455594e-07
-8.378206e-09
5.9555297e-07
-9.3982946e-09
5.9677835e-07
-1.0325406e-08
5.9826953e-07
-1.1131971e-08
6.0007992e-07
-1.1782131e-08
6.0229082e-07
-1.2228449e-08
6.0507083e-07
-1.2383241e-08
6.0884454e-07
-1.1978041e-08
6.1429067e-07
-1.0351409e-08
6.2024605e-07
-6.8127871e-09
6.1602786e-07
-2.3026431e-09
5.7087777e-07
-8.9633573e-11
4.3688458e-07
1.767773e-07
5.1556446e-10
1.3661871e-07
3.071039e-09
3.901907e-07
8.2255219e-09
5.5384083e-07
1.2883234e-08
6.2177122e-07
1.5296802e-08
6.3288897e-07
1.6029989e-08
6.2575928e-07
1.5988921e-08
6.1794881e-07
1.5584703e-08
6.1261729e-07
1.4940813e-08
6.0886895e-07
1.4114468e-08
6.0592262e-07
1.3150303e-08
6.0348363e-07
1.2083077e-08
6.0143826e-07
1.0938683e-08
5.997172e-07
9.7365314e-09
5.9826995e-07
8.4915036e-09
5.9705939e-07
7.215213e-09
5.9605808e-07
5.9168866e-09
5.9524553e-07
4.6040236e-09
5.946064e-07
3.2829032e-09
5.9412937e-07
1.9589979e-09
5.938064e-07
6.3732606e-10
5.9363227e-07
-6.7722404e-10
5.9360432e-07
-1.9795717e-09
5.9372234e-07
-3.2641187e-09
5.9398861e-07
-4.5243892e-09
5.9440809e-07
-5.752595e-09
5.949888e-07
-6.9390912e-09
5.9574244e-07
-8.0716471e-09
5.9668553e-07
-9.134453e-09
5.9784116e-07
-1.0106586e-08
5.9924167e-07
-1.0960059e-08
6.0093339e-07
-1.1657029e-08
6.0298779e-07
-1.2140642e-08
6.0555445e-07
-1.2291056e-08
6.0899495e-07
-1.1778967e-08
6.1377858e-07
-9.9307981e-09
6.1839789e-07
-6.2644998e-09
6.1236156e-07
-2.0279402e-09
5.6664122e-07
-1.5367598e-10
4.3501031e-07
1.7662363e-07
5.7852462e-10
1.3649493e-07
2.9560982e-09
3.8886198e-07
7.8507882e-09
5.4976719e-07
1.268682e-08
6.1718265e-07
1.5489573e-08
6.3005808e-07
1.6510711e-08
6.2468709e-07
1.6601716e-08
6.1783895e-07
1.6246999e-08
6.1296926e-07
1.5624243e-08
6.09492e-07
1.4808946e-08
6.0673812e-07
1.3850489e-08
6.0444212e-07
1.2785487e-08
6.0250326e-07
1.1640817e-08
6.0086187e-07
1.0436412e-08
5.9947435e-07
9.1874381e-09
5.9830836e-07
7.9056898e-09
5.9733983e-07
6.6005519e-09
5.9655067e-07
5.279682e-09
5.9592728e-07
3.9495271e-09
5.9545953e-07
2.6157329e-09
5.951402e-07
1.2834869e-09
5.9496452e-07
-4.2169673e-11
5.9492998e-07
-1.3560354e-09
5.9503621e-07
-2.6524315e-09
5.9528501e-07
-3.9248571e-09
5.9568052e-07
-5.1655599e-09
5.962295e-07
-6.3649863e-09
5.9694186e-07
-7.511017e-09
5.9783157e-07
-8.5878934e-09
5.9891804e-07
-9.5745337e-09
6.0022831e-07
-1.0442139e-08
6.01801e-07
-1.1150323e-08
6.0369598e-07
-1.1632958e-08
6.0603709e-07
-1.1743543e-08
6.0910554e-07
-1.1116867e-08
6.1315191e-07
-9.115664e-09
6.1639669e-07
-5.4809565e-09
6.0872686e-07
-1.6780153e-09
5.6283828e-07
-1.6575619e-10
4.3349806e-07
1.7645787e-07
6.0796126e-10
1.3633985e-07
2.7817212e-09
3.8770104e-07
7.2692717e-09
5.460687e-07
1.2087213e-08
6.1259983e-07
1.5169866e-08
6.2693542e-07
1.6467619e-08
6.2332895e-07
1.6724493e-08
6.1755959e-07
1.6462025e-08
6.1322844e-07
1.5901642e-08
6.1005279e-07
1.5136283e-08
6.0750373e-07
1.4220414e-08
6.0535803e-07
1.3192707e-08
6.0353097e-07