/*--------------------------------*- C++ -*----------------------------------*\
  =========                 |
  \\      /  F ield         | OpenFOAM: The Open Source CFD Toolbox
   \\    /   O peration     | Website:  https://openfoam.org
    \\  /    A nd           | Version:  10
     \\/     M anipulation  |
\*---------------------------------------------------------------------------*/
FoamFile
{
    format      ascii;
    class       surfaceScalarField;
    location    "0.05";
    object      phi_0;
}
// * * * * * * * * * * * * * * * * * * * * * * * * * * * * * * * * * * * * * //

dimensions      [1 0 -1 0 0 0 0];

internalField   nonuniform List<scalar> 
7860
(
3.9815263e-08
5.2889309e-07
1.2133717e-08
5.9638908e-07
7.3695155e-09
5.7347196e-07
5.4345585e-09
5.7064268e-07
4.0496511e-09
5.700926e-07
3.1374951e-09
5.6961982e-07
2.4980991e-09
5.6934704e-07
2.0216563e-09
5.6918408e-07
1.6556468e-09
5.6907363e-07
1.3673733e-09
5.6899589e-07
1.134927e-09
5.6894005e-07
9.434647e-10
5.6889906e-07
7.8258448e-10
5.6886847e-07
6.4475558e-10
5.6884542e-07
5.2437828e-10
5.6882796e-07
4.1717616e-10
5.6881479e-07
3.1978822e-10
5.6880497e-07
2.2948603e-10
5.6879788e-07
1.439702e-10
5.6879309e-07
6.121587e-11
5.6879033e-07
-2.0651197e-11
5.6878944e-07
-1.0346339e-10
5.6879039e-07
-1.891208e-10
5.6879323e-07
-2.7969667e-10
5.6879815e-07
-3.7757255e-10
5.6880546e-07
-4.8560427e-10
5.6881561e-07
-6.0734627e-10
5.6882933e-07
-7.4736883e-10
5.6884761e-07
-9.1172512e-10
5.6887195e-07
-1.108666e-09
5.6890454e-07
-1.3498228e-09
5.6894876e-07
-1.6521967e-09
5.6900999e-07
-2.0410562e-09
5.6909648e-07
-2.556648e-09
5.6922322e-07
-3.2817282e-09
5.6943273e-07
-4.3734922e-09
5.6979943e-07
-5.9272076e-09
5.702614e-07
-9.4301273e-09
5.7221064e-07
-2.9474393e-08
5.8875203e-07
5.3923354e-07
5.9479222e-08
4.6941578e-07
3.6446218e-08
6.1942132e-07
2.2425499e-08
5.8749241e-07
1.6045987e-08
5.770222e-07
1.208338e-08
5.7405521e-07
9.4046756e-09
5.7229853e-07
7.4846098e-09
5.7126711e-07
6.0544032e-09
5.7061429e-07
4.9577484e-09
5.7017029e-07
4.0940823e-09
5.6985956e-07
3.397735e-09
5.696364e-07
2.8242919e-09
5.6947251e-07
2.342533e-09
5.6935024e-07
1.9298651e-09
5.6925809e-07
1.5694986e-09
5.6918833e-07
1.2486152e-09
5.6913567e-07
9.5714251e-10
5.6909644e-07
6.8690655e-10
5.6906812e-07
4.3102044e-10
5.6904898e-07
1.8342106e-10
5.6903793e-07
-6.1504218e-11
5.6903437e-07
-3.0924398e-10
5.6903813e-07
-5.6547902e-10
5.6904947e-07
-8.3641965e-10
5.690691e-07
-1.1291988e-09
5.6909824e-07
-1.4523717e-09
5.6913879e-07
-1.8165891e-09
5.6919355e-07
-2.2355504e-09
5.6926657e-07
-2.7274114e-09
5.6936381e-07
-3.3169329e-09
5.6949406e-07
-4.0389317e-09
5.6967076e-07
-4.9443429e-09
5.699154e-07
-6.110634e-09
5.7026277e-07
-7.6577733e-09
5.7077037e-07
-9.7904704e-09
5.7156543e-07
-1.2917659e-08
5.7292662e-07
-1.7857336e-08
5.7520108e-07
-2.7891892e-08
5.822452e-07
-4.5546358e-08
6.064065e-07
4.9368719e-07
5.9708947e-08
4.0971175e-07
5.007154e-08
6.2905846e-07
3.2991591e-08
6.0457137e-07
2.4445862e-08
5.8556786e-07
1.8955218e-08
5.7954587e-07
1.4975093e-08
5.7627866e-07
1.2021249e-08
5.7422096e-07
9.782784e-09
5.7285275e-07
8.0451992e-09
5.7190788e-07
6.6646103e-09
5.7124015e-07
5.5443919e-09
5.7075662e-07
4.61738e-09
5.7039952e-07
3.835534e-09
5.7013208e-07
3.1636879e-09
5.6992994e-07
2.5754709e-09
5.6977655e-07
2.0506e-09
5.6966054e-07
1.5730432e-09
5.69574e-07
1.1297271e-09
5.6951144e-07
7.0959471e-10
5.6946912e-07
3.0288458e-10
5.6944465e-07
-9.9454202e-11
5.6943671e-07
-5.062746e-10
5.6944495e-07
-9.2673174e-10
5.6946993e-07
-1.3708127e-09
5.6951318e-07
-1.8499501e-09
5.6957738e-07
-2.3777957e-09
5.6966664e-07
-2.9712503e-09
5.69787e-07
-3.6518994e-09
5.6994723e-07
-4.4480954e-09
5.7016001e-07
-5.3980657e-09
5.7044403e-07
-6.554631e-09
5.7082733e-07
-7.9929099e-09
5.7135368e-07
-9.8236294e-09
5.720935e-07
-1.2210649e-08
5.7315739e-07
-1.5389844e-08
5.7474462e-07
-1.9727425e-08
5.772642e-07
-2.6195734e-08
5.8166939e-07
-3.8406181e-08
5.9445565e-07
-4.7743667e-08
6.1574399e-07
4.4594352e-07
5.4483081e-08
3.5523819e-07
5.6804863e-08
6.2673882e-07
3.9865243e-08
6.21509e-07
3.0212495e-08
5.952202e-07
2.4089711e-08
5.8566869e-07
1.9419515e-08
5.8094886e-07
1.5808209e-08
5.7783227e-07
1.2994603e-08
5.7566636e-07
1.0765061e-08
5.7413742e-07
8.9668997e-09
5.7303831e-07
7.4915102e-09
5.7223201e-07
6.2598848e-09
5.7163115e-07
5.2138318e-09
5.7117814e-07
4.3098251e-09
5.7083395e-07
3.5146577e-09
5.7057172e-07
2.8024389e-09
5.7037277e-07
2.1524775e-09
5.7022397e-07
1.5477495e-09
5.7011617e-07
9.7375467e-10
5.7004311e-07
4.176259e-10
5.7000078e-07
-1.3260299e-10
5.6998694e-07
-6.8864669e-10
5.70001e-07
-1.2625981e-09
5.7004389e-07
-1.8675954e-09
5.7011818e-07
-2.5185868e-09
5.7022837e-07
-3.2332769e-09
5.7038133e-07
-4.0333593e-09
5.7058709e-07
-4.9461823e-09
5.7086005e-07
-6.0070745e-09
5.712209e-07
-7.262665e-09
5.7169963e-07
-8.7755357e-09
5.723402e-07
-1.0630701e-08
5.7320885e-07
-1.2946127e-08
5.7440892e-07
-1.5885758e-08
5.7609702e-07
-1.9651621e-08
5.7851049e-07
-2.451425e-08
5.8212683e-07
-3.1708721e-08
5.8886387e-07
-4.4239807e-08
6.0698674e-07
-4.5947414e-08
6.1745159e-07
3.9999611e-07
4.748716e-08
3.0776695e-07
5.9173063e-08
6.1506024e-07
4.4518777e-08
6.3616056e-07
3.407416e-08
6.0566361e-07
2.7631452e-08
5.921114e-07
2.2684971e-08
5.8589538e-07
1.8742443e-08
5.817748e-07
1.5585475e-08
5.7882333e-07
1.3027543e-08
5.7669536e-07
1.0928092e-08
5.7513776e-07
9.1811482e-09
5.7397896e-07
7.706086e-09
5.7310621e-07
6.4415153e-09
5.7244271e-07
5.3402204e-09
5.7193524e-07
4.3653483e-09
5.715466e-07
3.4876318e-09
5.7125048e-07
2.6833248e-09
5.7102828e-07
1.9326453e-09
5.7086685e-07
1.2185769e-09
5.7075718e-07
5.2591149e-10
5.7069344e-07
-1.5955473e-10
5.7067241e-07
-8.5174092e-10
5.7069319e-07
-1.5649819e-09
5.7075713e-07
-2.314765e-09
5.7086797e-07
-3.1185617e-09
5.7103217e-07
-3.9968338e-09
5.712596e-07
-4.9743028e-09
5.7156456e-07
-6.0816003e-09
5.7196735e-07
-7.3574489e-09
5.7249676e-07
-8.8516093e-09
5.7319379e-07
-1.0628762e-08
5.7411736e-07
-1.2773061e-08
5.7535315e-07
-1.5394746e-08
5.7703061e-07
-1.8640539e-08
5.7934282e-07
-2.2686303e-08
5.8255625e-07
-2.7833469e-08
5.87274e-07
-3.561129e-08
5.9664169e-07
-4.7225383e-08
6.1860083e-07
-4.2407718e-08
6.1263393e-07
3.5758839e-07
3.9781987e-08
2.6800935e-07
5.7817961e-08
5.9704028e-07
4.7113037e-08
6.4686309e-07
3.6502572e-08
6.1627154e-07
2.9910324e-08
5.9870344e-07
2.4928516e-08
5.9087726e-07
2.0876426e-08
5.858269e-07
1.7555988e-08
5.8214377e-07
1.4811874e-08
5.7943947e-07
1.252074e-08
5.774289e-07
1.0585755e-08
5.7591395e-07
8.9310526e-09
5.7476092e-07
7.4971667e-09
5.738766e-07
6.2370586e-09
5.7319535e-07
5.1131114e-09
5.7267055e-07
4.0948263e-09
5.7226877e-07
3.1570161e-09
5.7196609e-07
2.2783851e-09
5.7174548e-07
1.4403952e-09
5.7159518e-07
6.263334e-10
5.7150751e-07
-1.7948959e-10
5.7147824e-07
-9.9246654e-10
5.7150617e-07
-1.8284056e-09
5.7159307e-07
-2.7042723e-09
5.7174383e-07
-3.6390117e-09
5.7196691e-07
-4.6545181e-09
5.7227511e-07
-5.7768177e-09
5.7268686e-07
-7.0375486e-09
5.7322808e-07
-8.4758208e-09
5.7393503e-07
-1.0140606e-08
5.7485858e-07
-1.209389e-08
5.7607064e-07
-1.4414258e-08
5.7767352e-07
-1.7201134e-08
5.7981749e-07
-2.0582314e-08
5.82724e-07
-2.4719593e-08
5.8669354e-07
-3.0009267e-08
5.9256368e-07
-3.8022144e-08
6.0465457e-07
-4.7506214e-08
6.280849e-07
-3.7601936e-08
6.0272966e-07
3.1998646e-07
3.2238332e-08
2.358066e-07
5.3786383e-08
5.7552129e-07
4.7623491e-08
6.530259e-07
3.7634445e-08
6.2625628e-07
3.1121159e-08
6.0521601e-07
2.6290216e-08
5.9570831e-07
2.2296372e-08
5.8982078e-07
1.895204e-08
5.8548811e-07
1.6137251e-08
5.8225426e-07
1.3748322e-08
5.7981783e-07
1.1700632e-08
5.7796164e-07
9.9264645e-09
5.7653509e-07
8.3713845e-09
5.7543168e-07
6.9912104e-09
5.7457553e-07
5.7497763e-09
5.7391198e-07
4.617133e-09
5.7340142e-07
3.5680756e-09
5.7301515e-07
2.5809454e-09
5.7273262e-07
1.6366389e-09
5.7253949e-07
7.1776501e-10
5.7242639e-07
-1.9209555e-10
5.723881e-07
-1.1090726e-09
5.7242315e-07
-2.0496793e-09
5.7253368e-07
-3.0315063e-09
5.7272566e-07
-4.0739781e-09
5.7300939e-07
-5.1992209e-09
5.7340036e-07
-6.43309e-09
5.7392073e-07
-7.8064169e-09
5.7460141e-07
-9.3565242e-09
5.7548514e-07
-1.112909e-08
5.7663115e-07
-1.3180668e-08
5.7812222e-07
-1.5581765e-08
5.8007462e-07
-1.8419179e-08
5.826549e-07
-2.1797791e-08
5.8610261e-07
-2.5863375e-08
5.9075912e-07
-3.1103168e-08
5.9780347e-07
-3.8843053e-08
6.1239446e-07
-4.5547632e-08
6.3478948e-07
-3.2206197e-08
5.8938822e-07
2.8778026e-07
2.5497631e-08
2.1035882e-07
4.836496e-08
5.5270128e-07
4.6436937e-08
6.549591e-07
3.7658178e-08
6.3502876e-07
3.1430116e-08
6.1144238e-07
2.6885115e-08
6.0025338e-07
2.3083e-08
5.9362296e-07
1.9829049e-08
5.8874206e-07
1.7038553e-08
5.8504476e-07
1.4630642e-08
5.8222574e-07
1.2535536e-08
5.8005675e-07
1.0695824e-08
5.783748e-07
9.0640392e-09
5.7706347e-07
7.6006425e-09
5.7603893e-07
6.2725026e-09
5.7524012e-07
5.051578e-09
5.7462234e-07
3.9138e-09
5.7415293e-07
2.8381299e-09
5.7380829e-07
1.8057487e-09
5.7357187e-07
7.9934656e-10
5.7343279e-07
-1.9751922e-10
5.7338497e-07
-1.2010236e-09
5.7342665e-07
-2.227669e-09
5.7356033e-07
-3.2948942e-09
5.7379289e-07
-4.4217262e-09
5.7413622e-07
-5.6295102e-09
5.7460814e-07
-6.9427478e-09
5.7523397e-07
-8.3900838e-09
5.7604875e-07
-1.0005478e-08
5.7710054e-07
-1.1829564e-08
5.7845523e-07
-1.3911427e-08
5.8020409e-07
-1.631094e-08
5.8247413e-07
-1.9099254e-08
5.8544322e-07
-2.2355854e-08
5.8935921e-07
-2.6215642e-08
5.9461891e-07
-3.1230778e-08
6.0281861e-07
-3.8277145e-08
6.1944083e-07
-4.213878e-08
6.3865112e-07
-2.6837368e-08
5.7408681e-07
2.609429e-07
1.9813733e-08
1.9061332e-07
4.2491306e-08
5.3009528e-07
4.408154e-08
6.5338324e-07
3.6844726e-08
6.4225753e-07
3.1045589e-08
6.1723829e-07
2.6853936e-08
6.0444497e-07
2.3330454e-08
5.9714656e-07
2.0252177e-08
5.9182036e-07
1.756055e-08
5.8773639e-07
1.5197758e-08
5.8458854e-07
1.3110009e-08
5.821445e-07
1.1251298e-08
5.8023352e-07
9.5822752e-09
5.787325e-07
8.0691974e-09
5.7755201e-07
6.6830416e-09
5.7662628e-07
5.3986517e-09
5.7590674e-07
4.1939735e-09
5.7535761e-07
3.0493747e-09
5.7495289e-07
1.9470307e-09
5.7467422e-07
8.703666e-10
5.7450946e-07
-1.9646239e-10
5.744518e-07
-1.2690642e-09
5.7449926e-07
-2.3633027e-09
5.7465457e-07
-3.4957968e-09
5.7492539e-07
-4.6844457e-09
5.7532487e-07
-5.9490007e-09
5.758727e-07
-7.3116964e-09
5.7659667e-07
-8.7979648e-09
5.7753502e-07
-1.0437254e-08
5.7873983e-07
-1.2263906e-08
5.8028189e-07
-1.4318184e-08
5.8225837e-07
-1.6647728e-08
5.8480368e-07
-1.9306809e-08
5.881023e-07
-2.2353112e-08
5.9240552e-07
-2.5923129e-08
5.9818893e-07
-3.0589232e-08
6.0748472e-07
-3.6660059e-08
6.2551166e-07
-3.7939297e-08
6.3993036e-07
-2.1848013e-08
5.5799553e-07
2.3909489e-07
1.5191137e-08
1.7551935e-07
3.6702706e-08
5.0868697e-07
4.0994119e-08
6.4912011e-07
3.5431964e-08
6.4781057e-07
3.0166436e-08
6.2249844e-07
2.635011e-08
6.0826087e-07
2.3147208e-08
6.0034963e-07
2.0297911e-08
5.9466969e-07
1.7757419e-08
5.9027688e-07
1.5488023e-08
5.8685794e-07
1.3451008e-08
5.8418152e-07
1.1611586e-08
5.8207294e-07
9.9388406e-09
5.8040524e-07
8.4053633e-09
5.7908549e-07
6.9868565e-09
5.7804479e-07
5.6616801e-09
5.7723192e-07
4.4104092e-09
5.7660888e-07
3.2154032e-09
5.761479e-07
2.0603867e-09
5.7582924e-07
9.3004878e-10
5.756398e-07
-1.9034381e-10
5.755722e-07
-1.315322e-09
5.7562424e-07
-2.4595921e-09
5.7579884e-07
-3.6384129e-09
5.7610421e-07
-4.8679839e-09
5.7655445e-07
-6.165851e-09
5.7717057e-07
-7.5513314e-09
5.7798215e-07
-9.0459598e-09
5.7902965e-07
-1.0673975e-08
5.8036785e-07
-1.2462798e-08
5.8207071e-07
-1.4443489e-08
5.8423906e-07
-1.6651429e-08
5.8701162e-07
-1.9124982e-08
5.9057586e-07
-2.1906209e-08
5.9518675e-07
-2.5140867e-08
6.0142359e-07
-2.9363762e-08
6.1170761e-07
-3.4291203e-08
6.304391e-07
-3.3391702e-08
6.3903086e-07
-1.7403299e-08
5.4200713e-07
2.2169159e-07
1.1527991e-08
1.6414125e-07
3.1292065e-08
4.8906911e-07
3.7501891e-08
6.4295817e-07
3.3596203e-08
6.5170732e-07
2.8943586e-08
6.2714299e-07
2.550729e-08
6.1169611e-07
2.2637734e-08
6.0321941e-07
2.0045062e-08
5.9726243e-07
1.7688078e-08
5.9263387e-07
1.5545152e-08
5.8900086e-07
1.3590748e-08
5.8613592e-07
1.1800262e-08
5.8386343e-07
1.0150832e-08
5.8205468e-07
8.6213778e-09
5.8061495e-07
7.1925265e-09
5.7947365e-07
5.8464662e-09
5.7857798e-07
4.5667704e-09
5.7788858e-07
3.3381816e-09
5.7737649e-07
2.1463717e-09
5.7702105e-07
9.7769193e-10
5.7680848e-07
-1.8108263e-10
5.7673097e-07
-1.3430088e-09
5.7678617e-07
-2.5212346e-09
5.7697707e-07
-3.7292533e-09
5.7731223e-07
-4.9811546e-09
5.7780635e-07
-6.2918698e-09
5.7848129e-07
-7.6774054e-09
5.7936769e-07
-9.1550534e-09
5.805073e-07
-1.0743593e-08
5.8195639e-07
-1.246347e-08
5.8379059e-07
-1.4336866e-08
5.8611246e-07
-1.6387737e-08
5.890625e-07
-1.864027e-08
5.928284e-07
-2.1126034e-08
5.9767252e-07
-2.3999062e-08
6.0429662e-07
-2.7702996e-08
6.1541155e-07
-3.1419345e-08
6.3415545e-07
-2.8795359e-08
6.3640688e-07
-1.3556286e-08
5.2676806e-07
2.0813531e-07
8.681127e-09
1.5569472e-07
2.6406139e-08
4.7155089e-07
3.385026e-08
6.3558892e-07
3.1476859e-08
6.5407385e-07
2.7488801e-08
6.3111987e-07
2.4432001e-08
6.1475087e-07
2.1892442e-08
6.0575918e-07
1.9566797e-08
5.9958818e-07
1.7410785e-08
5.9478989e-07
1.5414855e-08
5.9099679e-07
1.3564691e-08
5.8798609e-07
1.1844628e-08
5.8558349e-07
1.0239123e-08
5.8366018e-07
8.7330613e-09
5.8212101e-07
7.3118815e-09
5.8089483e-07
5.9616564e-09
5.7992821e-07
4.6691149e-09
5.7918113e-07
3.4216006e-09
5.7862401e-07
2.2069853e-09
5.7823567e-07
1.0135545e-09
5.7800191e-07
-1.7012701e-10
5.7791466e-07
-1.3553574e-09
5.779714e-07
-2.5534439e-09
5.7817516e-07
-3.7758401e-09
5.7853463e-07
-5.034269e-09
5.7906478e-07
-6.3408244e-09
5.7978785e-07
-7.7080368e-09
5.8073491e-07
-9.1488897e-09
5.8194816e-07
-1.0676789e-08
5.8348429e-07
-1.2305504e-08
5.8541931e-07
-1.4048967e-08
5.8785593e-07
-1.5920732e-08
5.9093426e-07
-1.7932668e-08
5.9484033e-07
-2.0109419e-08
5.9984927e-07
-2.2606088e-08
6.0679329e-07
-2.5737028e-08
6.1854249e-07
-2.8259015e-08
6.3667744e-07
-2.4354482e-08
6.3250235e-07
-1.0291054e-08
5.1270463e-07
1.9784425e-07
6.494494e-09
1.4954082e-07
2.2089524e-08
4.5624686e-07
3.0212353e-08
6.27578e-07
2.9189943e-08
6.5509407e-07
2.5891024e-08
6.3440421e-07
2.3210846e-08
6.174276e-07
2.0988719e-08
6.0798142e-07
1.8928831e-08
6.0164822e-07
1.6980452e-08
5.9673829e-07
1.5142382e-08
5.9283486e-07
1.3409691e-08
5.8971878e-07
1.1774445e-08
5.8721874e-07
1.0227581e-08
5.8520705e-07
8.7594155e-09
5.8358918e-07
7.3599049e-09
5.8229434e-07
6.0188861e-09
5.8126923e-07
4.7262409e-09
5.8047377e-07
3.4719913e-09
5.7987826e-07
2.246338e-09
5.7946132e-07
1.0396602e-09
5.7920859e-07
-1.5751162e-10
5.7911183e-07
-1.3545364e-09
5.7916843e-07
-2.5607061e-09
5.7938133e-07
-3.7852772e-09
5.7975921e-07
-5.0374828e-09
5.8031699e-07
-6.3265075e-09
5.8107687e-07
-7.6614161e-09
5.8206982e-07
-9.0510131e-09
5.8333776e-07
-1.0503626e-08
5.849369e-07
-1.202685e-08
5.8694254e-07
-1.3627127e-08
5.8945621e-07
-1.5308763e-08
5.926159e-07
-1.7073327e-08
5.966049e-07
-1.894085e-08
6.017168e-07
-2.1056899e-08
6.0890934e-07
-2.3585622e-08
6.2107122e-07
-2.4989372e-08
6.3808119e-07
-2.019801e-08
6.2771099e-07
-7.5534417e-09
5.0006006e-07
1.9029082e-07
4.8204133e-09
1.451629e-07
1.8322426e-08
4.4314513e-07
2.6698408e-08
6.1936357e-07
2.6827974e-08
6.5497023e-07
2.4221236e-08
6.369927e-07
2.1913763e-08
6.1972971e-07
1.9991631e-08
6.0990347e-07
1.8188147e-08
6.0345191e-07
1.6446035e-08
5.9848043e-07
1.476928e-08
5.9451162e-07
1.3160607e-08
5.9132746e-07
1.1618668e-08
5.8876068e-07
1.0140034e-08
5.8668569e-07
8.7198556e-09
5.8500936e-07
7.3522241e-09
5.8366198e-07
6.0305137e-09
5.8259094e-07
4.7476503e-09
5.8175664e-07
3.496308e-09
5.811296e-07
2.2690469e-09
5.8068858e-07
1.0584062e-09
5.8041924e-07
-1.4303236e-10
5.8031327e-07
-1.3425977e-09
5.80368e-07
-2.5474834e-09
5.8058622e-07
-3.7646894e-09
5.8097641e-07
-5.0009373e-09
5.8155324e-07
-6.2625441e-09
5.8233848e-07
-7.5552379e-09
5.8336251e-07
-8.883897e-09
5.8466642e-07
-1.0252193e-08
5.863052e-07
-1.1662175e-08
5.8835252e-07
-1.3113684e-08
5.9090772e-07
-1.4603096e-08
5.9410532e-07
-1.6123783e-08
5.9812559e-07
-1.7692276e-08
6.0328529e-07
-1.9433285e-08
6.1065036e-07
-2.1355283e-08
6.2299322e-07
-2.1753665e-08
6.3847958e-07
-1.6404278e-08
6.2236161e-07
-5.2819285e-09
4.8893772e-07
1.8500889e-07
3.5352448e-09
1.4214629e-07
1.5057614e-08
4.3215341e-07
2.3374694e-08
6.1127129e-07
2.4461253e-08
6.5390091e-07
2.2531821e-08
6.3889986e-07
2.0591858e-08
6.2166181e-07
1.8950486e-08
6.115444e-07
1.7388926e-08
6.0501374e-07
1.5845914e-08
6.000235e-07
1.43283e-08
5.9602924e-07
1.2844893e-08
5.9281087e-07
1.139989e-08
5.9020569e-07
9.994696e-09
5.8809088e-07
8.6287001e-09
5.8637536e-07
7.2997112e-09
5.8499097e-07
6.0043609e-09
5.8388629e-07
4.7384439e-09
5.8302256e-07
3.4971883e-09
5.8237086e-07
2.2754693e-09
5.8191031e-07
1.0679768e-09
5.8162673e-07
-1.3064544e-10
5.815119e-07
-1.3256801e-09
5.8156303e-07
-2.5222153e-09
5.8178276e-07
-3.7250088e-09
5.8217921e-07
-4.9383262e-09
5.8276656e-07
-6.1657312e-09
5.8356589e-07
-7.4098149e-09
5.846066e-07
-8.6718467e-09
5.8592846e-07
-9.9513228e-09
5.8758468e-07
-1.1245428e-08
5.8964663e-07
-1.2548335e-08
5.9221063e-07
-1.3849886e-08
5.9540687e-07
-1.513723e-08
5.9941294e-07
-1.6423563e-08
6.0457163e-07
-1.7803838e-08
6.1203063e-07
-1.9139384e-08
6.2432877e-07
-1.8669421e-08
6.3800962e-07
-1.3029979e-08
6.1672217e-07
-3.431467e-09
4.7933921e-07
1.8157743e-07
2.5461043e-09
1.4016317e-07
1.2247113e-08
4.2312824e-07
2.0286131e-08
6.0353302e-07
2.2144993e-08
6.520748e-07
2.0859219e-08
6.4015933e-07
1.9277895e-08
6.2323226e-07
1.7897747e-08
6.129236e-07
1.6560777e-08
6.0635103e-07
1.52057e-08
6.0137867e-07
1.384077e-08
5.9739417e-07
1.2479561e-08
5.9417208e-07
1.1130953e-08
5.915543e-07
9.8004942e-09
5.8942134e-07
8.4912752e-09
5.8768458e-07
7.2044163e-09
5.8627783e-07
5.9395098e-09
5.851512e-07
4.6950063e-09
5.8426706e-07
3.4685397e-09
5.8359733e-07
2.2571977e-09
5.8312165e-07
1.0577499e-09
5.8282618e-07
-1.3315206e-10
5.827028e-07
-1.3187932e-09
5.8274868e-07
-2.502212e-09
5.8296618e-07
-3.6860005e-09
5.83363e-07
-4.8720778e-09
5.8395264e-07
-6.0614157e-09
5.8475523e-07
-7.2537019e-09
5.8579889e-07
-8.4469261e-09
5.8712168e-07
-9.6368714e-09
5.8877463e-07
-1.0816497e-08
5.9082626e-07
-1.197515e-08
5.9336928e-07
-1.3097402e-08
5.9652913e-07
-1.4165879e-08
6.0048142e-07
-1.5190168e-08
6.0559592e-07
-1.6231506e-08
6.1307197e-07
-1.7025318e-08
6.2512258e-07
-1.5840817e-08
6.3682512e-07
-1.0127665e-08
6.1100902e-07
-1.9811802e-09
4.7119273e-07
1.7959625e-07
1.7887649e-09
1.3895609e-07
9.8551451e-09
4.158918e-07
1.7473539e-08
5.9630223e-07
1.9931545e-08
6.4966984e-07
1.9235641e-08
6.4082606e-07
1.7997557e-08
6.2445639e-07
1.6858994e-08
6.1406056e-07
1.572771e-08
6.0748266e-07
1.454639e-08
6.025601e-07
1.3323979e-08
5.9861659e-07
1.2077872e-08
5.9541819e-07
1.0821008e-08
5.9281117e-07
9.5625572e-09
5.906798e-07
8.3088741e-09
5.8893827e-07
7.0640323e-09
5.8752267e-07
5.8302944e-09
5.8638494e-07
4.6085347e-09
5.8548883e-07
3.3986061e-09
5.8480726e-07
2.1996574e-09
5.843206e-07
1.0104094e-09
5.8401543e-07
-1.7059267e-10
5.8388381e-07
-1.3447471e-09
5.8392283e-07
-2.51316e-09
5.8413459e-07
-3.6763912e-09
5.8452624e-07
-4.8341751e-09
5.8511043e-07
-5.985091e-09
5.8590615e-07
-7.1261754e-09
5.8693998e-07
-8.2524563e-09
5.8824797e-07
-9.3564055e-09
5.8987858e-07
-1.0427278e-08
5.9189714e-07
-1.1450244e-08
5.9439225e-07
-1.2405542e-08
5.9748443e-07
-1.3272558e-08
6.0134844e-07
-1.4056932e-08
6.0638029e-07
-1.4787407e-08
6.1380245e-07
-1.5104056e-08
6.2543924e-07
-1.3363817e-08
6.3508488e-07
-7.7405579e-09
6.0538576e-07
-9.2482955e-10
4.64377e-07
1.7867142e-07
1.2203597e-09
1.3831931e-07
7.8611047e-09
4.102364e-07
1.4986196e-08
5.8966036e-07
1.7887179e-08
6.4684839e-07
1.7710899e-08
6.4097342e-07
1.6793013e-08
6.2535801e-07
1.587563e-08
6.1497564e-07
1.4929592e-08
6.0842898e-07
1.3904627e-08
6.035852e-07
1.2810403e-08
5.9971083e-07
1.1667691e-08
5.965609e-07
1.0493132e-08
5.9398573e-07
9.2991833e-09
5.9187375e-07
8.09514e-09
5.9014231e-07
6.8877234e-09
5.8873009e-07
5.6815878e-09
5.8759108e-07
4.4797822e-09
5.8669064e-07
3.2841567e-09
5.8600289e-07
2.0957203e-09
5.8550904e-07
9.14961e-10
5.8519619e-07
-2.5785984e-10
5.8505663e-07
-1.4224303e-09
5.8508741e-07
-2.5781076e-09
5.8529027e-07
-3.723621e-09
5.8567175e-07
-4.8567435e-09
5.8624355e-07
-5.9739177e-09
5.8702333e-07
-7.0698191e-09
5.8803588e-07
-8.1368452e-09
5.89315e-07
-9.1645232e-09
5.9090626e-07
-1.0138823e-08
5.9287144e-07
-1.1041204e-08
5.9529464e-07
-1.1848104e-08
5.9829133e-07
-1.2536359e-08
6.0203669e-07
-1.3107217e-08
6.0695116e-07
-1.3560494e-08
6.1425573e-07
-1.3473219e-08
6.2535196e-07
-1.1320842e-08
6.3293251e-07
-5.8851985e-09
5.9995012e-07
-2.4788357e-10
4.5873969e-07
1.7842354e-07
8.1195425e-10
1.3808189e-07
6.2565722e-09
4.0591971e-07
1.2885927e-08
5.8361525e-07
1.6105188e-08
6.4374214e-07
1.6373987e-08
6.4068073e-07
1.5747322e-08
6.2596766e-07
1.5028459e-08
6.1569156e-07
1.4244252e-08
6.092133e-07
1.3353661e-08
6.0447591e-07
1.2367895e-08
6.0069661e-07
1.1311169e-08
5.9761763e-07
1.0203707e-08
5.9509319e-07
9.0610579e-09
5.930164e-07
7.895203e-09
5.9130817e-07
6.7152272e-09
5.8991007e-07
5.5278902e-09
5.8877842e-07
4.338138e-09
5.8788039e-07
3.1495533e-09
5.8719148e-07
1.9647546e-09
5.8669384e-07
7.8575426e-10
5.863752e-07
-3.8571065e-10
5.862281e-07
-1.5478632e-09
5.8624956e-07
-2.6985694e-09
5.8644098e-07
-3.8350055e-09
5.8680819e-07
-4.9532901e-09
5.8736184e-07
-6.0480672e-09
5.8811811e-07
-7.1120264e-09
5.8909984e-07
-8.1353417e-09
5.9033831e-07
-9.1050183e-09
5.9187594e-07
-1.0004163e-08
5.9377058e-07
-1.0810948e-08
5.9610142e-07
-1.1498276e-08
5.9897866e-07
-1.2040437e-08
6.0257886e-07
-1.2433121e-08
6.0734384e-07
-1.2648479e-08
6.1447109e-07
-1.2223556e-08
6.2492704e-07
-9.7626127e-09
6.3047157e-07
-4.5334882e-09
5.94721e-07
1.4528406e-10
4.5406092e-07
1.7856883e-07
5.4348441e-10
1.3809614e-07
5.0367082e-09
4.0266325e-07
1.1234549e-08
5.7810136e-07
1.4698385e-08
6.404303e-07
1.5352401e-08
6.4001226e-07
1.4986809e-08
6.2631701e-07
1.4439867e-08
6.16235e-07
1.3788867e-08
6.0986414e-07
1.3004552e-08
6.0526029e-07
1.2101212e-08
6.0159997e-07
1.1106891e-08
5.9861195e-07
1.0045376e-08
5.9615471e-07
8.9351346e-09
5.9412664e-07
7.7905586e-09
5.9245275e-07
6.6227743e-09
5.9107786e-07
5.4403158e-09
5.8996088e-07
4.2497006e-09
5.8907101e-07
3.0559305e-09
5.8838525e-07
1.8629312e-09
5.8788684e-07
6.7394442e-10
5.8756419e-07
-5.0811267e-10
5.8741016e-07
-1.680304e-09
5.8742176e-07
-2.8393284e-09
5.8760001e-07
-3.9811619e-09
5.8795003e-07
-5.1006596e-09
5.8848134e-07
-6.1911062e-09
5.8920856e-07
-7.2436935e-09
5.9015243e-07
-8.2469118e-09
5.9134153e-07
-9.1858181e-09
5.9281485e-07
-1.0041218e-08
5.9462599e-07
-1.0788557e-08
5.9684877e-07
-1.1397515e-08
5.9958762e-07
-1.1839252e-08
6.030206e-07
-1.2101107e-08
6.076057e-07
-1.2122624e-08
6.1449261e-07
-1.1407163e-08
6.2421158e-07
-8.6883046e-09
6.2775272e-07
-3.6340865e-09
5.8966679e-07
2.7491301e-10
4.5015193e-07
1.7884375e-07
3.9994274e-10
1.3823253e-07
4.1848137e-09
4.0017099e-07
1.0062058e-08
5.7299567e-07
1.3759223e-08
6.3692475e-07
1.4771398e-08
6.3899605e-07
1.4643019e-08
6.2643004e-07
1.4237778e-08
6.1663606e-07
1.3685476e-08
6.1041594e-07
1.2973557e-08
6.0597221e-07
1.2121509e-08
6.0245204e-07
1.1161546e-08
5.9957192e-07
1.0120892e-08
5.9719537e-07
9.020641e-09
5.952269e-07
7.8772052e-09
5.9359619e-07
6.703343e-09
5.9225172e-07
5.5089623e-09
5.9115527e-07
4.3017718e-09
5.902782e-07
3.0878356e-09
5.8959919e-07
1.8720491e-09
5.8910263e-07
6.5855589e-10
5.8877768e-07
-5.4887284e-10
5.8861759e-07
-1.7464794e-09
5.8861937e-07
-2.9301554e-09
5.8878369e-07
-4.0950718e-09
5.8911495e-07
-5.2352653e-09
5.8962154e-07
-6.3431683e-09
5.9031646e-07
-7.4090549e-09
5.9121832e-07
-8.4203908e-09
5.9235287e-07
-9.3610196e-09
5.9375548e-07
-1.0210206e-08
5.9547518e-07
-1.0941444e-08
5.9758001e-07
-1.1521785e-08
6.0016797e-07
-1.1918281e-08
6.034171e-07
-1.2104804e-08
6.0779223e-07
-1.1976294e-08
6.1436411e-07
-1.0993351e-08
6.2322865e-07
-8.0195826e-09
6.2477895e-07
-3.080118e-09
5.8472733e-07
2.3801213e-10
4.468338e-07
1.7908176e-07
3.6301462e-10
1.3838401e-07
3.6550273e-09
3.9816876e-07
9.3292645e-09
5.6815612e-07
1.3299064e-08
6.3317948e-07
1.4681393e-08
6.3761569e-07
1.4780807e-08
6.2631371e-07
1.4488335e-08
6.1692303e-07
1.3998241e-08
6.1090518e-07
1.3323456e-08
6.0664697e-07
1.2491249e-08
6.0328427e-07
1.1538047e-08
6.0052513e-07
1.0494128e-08
5.9823929e-07
9.3827325e-09
5.963383e-07
8.2217734e-09
5.9475715e-07
7.0251493e-09
5.9344835e-07
5.8036912e-09
5.9237673e-07
4.5658934e-09
5.91516e-07
3.3185159e-09
5.9084657e-07
2.067087e-09
5.9035407e-07
8.1633392e-10
5.9002844e-07
-4.2943024e-10
5.8986336e-07
-1.6659456e-09
5.8985588e-07
-2.8886373e-09
5.9000638e-07
-4.0922462e-09
5.9031856e-07
-5.2704166e-09
5.9079971e-07
-6.415221e-09
5.9146127e-07
-7.5165922e-09
5.923197e-07
-8.5616395e-09
5.9339792e-07
-9.533768e-09
5.9472761e-07
-1.0411544e-08
5.9635296e-07
-1.1167387e-08
5.9833585e-07
-1.1766457e-08
6.0076704e-07
-1.217044e-08
6.0382108e-07
-1.2332704e-08
6.079545e-07
-1.2088291e-08
6.141197e-07
-1.0841945e-08
6.219823e-07
-7.5988857e-09
6.2153589e-07
-2.7382967e-09
5.7986674e-07
1.1986454e-10
4.4397565e-07
1.7920163e-07
4.0258828e-10
1.3847763e-07
3.3655657e-09
3.9644682e-07
8.9114108e-09
5.6347514e-07
1.3203277e-08
6.291315e-07
1.4992906e-08
6.3582512e-07
1.5329487e-08
6.2595397e-07
1.5131462e-08
6.1711303e-07
1.4674519e-08
6.1136089e-07
1.4009009e-08
6.0731249e-07
1.3173006e-08
6.0412033e-07
1.220694e-08
6.0149121e-07
1.1143564e-08
5.9930267e-07
1.0007674e-08
5.9747419e-07
8.8181357e-09
5.9594669e-07
7.5895039e-09
5.9467698e-07
6.3331115e-09
5.9363312e-07
5.0578764e-09
5.9279124e-07
3.7709408e-09
5.9213351e-07
2.4781878e-09
5.9164682e-07
1.1846741e-09
5.9132195e-07
-1.0498816e-10
5.9115302e-07
-1.3862788e-09
5.9113718e-07
-2.6544109e-09
5.9127452e-07
-3.9039745e-09
5.9156812e-07
-5.1285368e-09
5.9202427e-07
-6.3201779e-09
5.9265291e-07
-7.4689228e-09
5.9346844e-07
-8.5620331e-09
5.9449104e-07
-9.5830736e-09
5.9574866e-07
-1.051059e-08
5.9728047e-07
-1.1316597e-08
5.9914186e-07
-1.1964872e-08
6.0141532e-07
-1.2410258e-08
6.0426647e-07
-1.2578761e-08
6.08123e-07
-1.2235102e-08
6.1377604e-07
-1.0727426e-08
6.2047463e-07
-7.2284142e-09
6.1803689e-07
-2.4802266e-09
5.7511856e-07
-2.8507894e-13
4.4149571e-07
1.7920135e-07
4.802765e-10
1.3848103e-07
3.2114477e-09
3.9488678e-07
8.6227088e-09
5.5892629e-07
1.3240733e-08
6.2476051e-07
1.5467102e-08
6.3358539e-07
1.6064349e-08
6.2532242e-07
1.5962057e-08
6.1720344e-07
1.552815e-08
6.1179313e-07
1.4861715e-08
6.0797907e-07
1.4014825e-08
6.0496732e-07
1.3031787e-08
6.0247427e-07
1.1947293e-08
6.0038717e-07
1.0787212e-08
5.9863427e-07
9.5709679e-09
5.9716294e-07
8.3134361e-09
5.9593452e-07
7.0261724e-09
5.9492039e-07
5.7182895e-09
5.9409913e-07
4.3971226e-09
5.9345468e-07
3.0687492e-09
5.929752e-07
1.7384175e-09
5.9265229e-07
4.1091414e-10
5.9248053e-07
-9.0909661e-10
5.9245719e-07
-2.2167332e-09
5.9258216e-07
-3.5065569e-09
5.9285795e-07
-4.7721927e-09
5.9328991e-07
-6.0058803e-09
5.938866e-07
-7.1979142e-09
5.9466048e-07
-8.3359128e-09
5.9562904e-07
-9.4038333e-09
5.9681658e-07
-1.0380475e-08
5.9825712e-07
-1.1237652e-08
5.9999904e-07
-1.1937713e-08
6.0211538e-07
-1.2427319e-08
6.0475608e-07
-1.2601606e-08
6.0829729e-07
-1.2157858e-08
6.133323e-07
-1.0410581e-08
6.1872736e-07
-6.7322146e-09
6.1435852e-07
-2.2128612e-09
5.7059921e-07
-1.0353264e-10
4.3938638e-07
1.7909782e-07
5.5846698e-10
1.3839937e-07
3.0912343e-09
3.9345839e-07
8.2757968e-09
5.5457864e-07
1.313588e-08
6.2013792e-07
1.5782393e-08
6.3090804e-07
1.6662732e-08
6.2439442e-07
1.6678736e-08
6.1717101e-07
1.6283555e-08
6.1218618e-07
1.5630053e-08
6.0863288e-07
1.4786796e-08
6.0581075e-07
1.3802182e-08
6.0345891e-07
1.2712613e-08
6.0147674e-07
1.1544864e-08
5.9980202e-07
1.0318821e-08
5.9838898e-07
9.0496101e-09
5.9720373e-07
7.74896e-09
5.9622104e-07
6.4261462e-09
5.9542194e-07
5.0886772e-09
5.9479215e-07
3.7428185e-09
5.9432106e-07
2.3940129e-09
5.940011e-07
1.0472361e-09
5.9382731e-07
-2.9267866e-10
5.9379711e-07
-1.6207206e-09
5.939102e-07
-2.931373e-09
5.941686e-07
-4.2182552e-09
5.945768e-07
-5.473684e-09
5.9514204e-07
-6.6881174e-09
5.9587492e-07
-7.8493976e-09
5.9679032e-07
-8.9417026e-09
5.9790889e-07
-9.9439006e-09
5.9925932e-07
-1.0827324e-08
6.0088247e-07
-1.1552383e-08
6.0284044e-07
-1.205706e-08
6.0526076e-07
-1.220814e-08
6.0844837e-07
-1.1655054e-08
6.1277921e-07
-9.7240127e-09
6.1679632e-07
-6.0107693e-09
6.1064528e-07
-1.8811821e-09
5.6646962e-07
-1.4945426e-10
4.3765466e-07
1.7894837e-07
6.098145e-10
1.3826336e-07
2.9345178e-09
3.9218851e-07
7.7461995e-09
5.5056928e-07
1.2670551e-08
6.1543712e-07
1.5650474e-08
6.2788236e-07
1.6814891e-08
6.2317128e-07
1.6983473e-08
6.1698204e-07
1.6664996e-08
6.1250205e-07
1.6060296e-08
6.0923803e-07
1.525479e-08
6.0661649e-07
1.4301353e-08
6.0441238e-07
1.3238213e-08
6.0253988e-07
1.2093219e-08
6.0094702e-07
1.088693e-08
5.9959527e-07
9.6349231e-09
5.9845574e-07
8.3492806e-09
5.9750669e-07
7.0395995e-09
5.9673163e-07
5.7137053e-09
5.9611805e-07
4.3781843e-09
5.9565658e-07
3.0388031e-09
5.9534048e-07
1.7008588e-09
5.9516525e-07
3.6949321e-10
5.9512848e-07
-9.4999733e-10
5.9522969e-07
-2.2518396e-09
5.9547045e-07
-3.529435e-09
5.9585439e-07
-4.7749236e-09
5.9638753e-07
-5.9786206e-09
5.9707862e-07
-7.128228e-09
5.9793993e-07
-8.2077149e-09
5.9898838e-07
-9.1955633e-09
6.0024717e-07
-1.0062157e-08
6.0174907e-07
-1.0765511e-08
6.035438e-07
-1.1236065e-08
6.0573132e-07
-1.132143e-08
6.0853374e-07
-1.065563e-08
6.1211342e-07
-8.6310023e-09
6.1477169e-07
-5.068814e-09
6.070831e-07
-1.4869161e-09
5.6288773e-07
-1.4375656e-10
4.363115e-07
1.7880462e-07
6.2315108e-10
1.3811259e-07
2.7165529e-09
3.9111935e-07
7.0085163e-09
5.4704741e-07
1.1762557e-08
6.1089702e-07
1.4922879e-08
6.2467086e-07
1.6335533e-08
6.216953e-07
1.6685065e-08
6.1661012e-07
1.6489465e-08
6.126947e-07
1.5980347e-08
6.0974764e-07
1.5256977e-08
6.0734012e-07
1.4376635e-08
6.0529276e-07
1.3379537e-08