/*--------------------------------*- C++ -*----------------------------------*\
  =========                 |
  \\      /  F ield         | OpenFOAM: The Open Source CFD Toolbox
   \\    /   O peration     | Website:  https://openfoam.org
    \\  /    A nd           | Version:  10
     \\/     M anipulation  |
\*---------------------------------------------------------------------------*/
FoamFile
{
    format      ascii;
    class       volVectorField;
    location    "0.05";
    object      U;
}
// * * * * * * * * * * * * * * * * * * * * * * * * * * * * * * * * * * * * * //

dimensions      [0 1 -1 0 0 0 0];

internalField   nonuniform List<vector> 
4000
(
(0 0.018604542 0.47774767)
(0 0.023449792 0.50885115)
(0 0.0081137776 0.50052699)
(0 0.0055633475 0.50033762)
(0 0.0042011018 0.50025754)
(0 0.0032015272 0.50016873)
(0 0.0025043387 0.50011928)
(0 0.0020052649 0.50008958)
(0 0.0016302604 0.50006914)
(0 0.0013393572 0.50005465)
(0 0.0011080703 0.50004418)
(0 0.00091997916 0.50003648)
(0 0.00076377051 0.50003071)
(0 0.00063142609 0.50002635)
(0 0.00051708755 0.50002305)
(0 0.00041635432 0.50002055)
(0 0.00032582712 0.50001868)
(0 0.00024279802 0.50001734)
(0 0.00016503293 0.50001643)
(0 9.0611636e-05 0.50001591)
(0 1.7804943e-05 0.50001574)
(0 -5.5034979e-05 0.50001592)
(0 -0.00012956649 0.50001647)
(0 -0.00020755142 0.5000174)
(0 -0.00029096918 0.50001879)
(0 -0.00038214809 0.50002072)
(0 -0.00048394004 0.50002333)
(0 -0.00059996343 0.50002679)
(0 -0.00073495506 0.50003139)
(0 -0.00089530586 0.50003753)
(0 -0.0010899195 0.50004583)
(0 -0.0013315905 0.50005727)
(0 -0.0016392587 0.5000733)
(0 -0.0020435151 0.50009645)
(0 -0.0026006473 0.50013442)
(0 -0.0033938559 0.50020246)
(0 -0.0044891473 0.50027305)
(0 -0.0065132043 0.50043618)
(0 -0.017582182 0.50674233)
(0 -0.013549363 0.47977758)
(0 0.037340206 0.44807983)
(0 0.050770379 0.53231035)
(0 0.021790626 0.508042)
(0 0.015970371 0.5035809)
(0 0.012244059 0.50242361)
(0 0.009346024 0.5016203)
(0 0.007356742 0.50115221)
(0 0.0059140815 0.50086012)
(0 0.0048185467 0.50066116)
(0 0.0039651763 0.5005214)
(0 0.0032846634 0.50042086)
(0 0.0027298176 0.50034694)
(0 0.0022680899 0.50029172)
(0 0.0018762707 0.50025008)
(0 0.0015373139 0.50021853)
(0 0.0012383701 0.5001947)
(0 0.00096948502 0.50017694)
(0 0.00072270968 0.50016412)
(0 0.00049147331 0.50015546)
(0 0.00027011923 0.50015047)
(0 5.3546946e-05 0.50014887)
(0 -0.00016310135 0.5001506)
(0 -0.00038471446 0.50015576)
(0 -0.00061648679 0.50016467)
(0 -0.00086424481 0.5001779)
(0 -0.0011348302 0.50019628)
(0 -0.0014366044 0.50022109)
(0 -0.0017801468 0.50025415)
(0 -0.0021792601 0.50029812)
(0 -0.0026524734 0.50035693)
(0 -0.0032254404 0.50043661)
(0 -0.0039349398 0.50054673)
(0 -0.0048346511 0.50070252)
(0 -0.0060052327 0.50092977)
(0 -0.0075963583 0.50129015)
(0 -0.009886466 0.50191091)
(0 -0.012876402 0.50283573)
(0 -0.017187825 0.50608504)
(0 -0.038517233 0.52524641)
(0 -0.027774897 0.45037128)
(0 0.039745463 0.41012382)
(0 0.061103939 0.54933382)
(0 0.031644095 0.52186316)
(0 0.024056147 0.51009184)
(0 0.018886125 0.50658836)
(0 0.014675911 0.50451919)
(0 0.011717688 0.50325743)
(0 0.009498049 0.50244043)
(0 0.0077806049 0.5018802)
(0 0.0064289007 0.50148571)
(0 0.0053421328 0.50120093)
(0 0.0044503858 0.50099101)
(0 0.0037046396 0.500834)
(0 0.0030692998 0.50071542)
(0 0.002517903 0.5006255)
(0 0.00203032 0.50055754)
(0 0.0015908389 0.50050686)
(0 0.0011868369 0.50047025)
(0 0.00080782744 0.5004455)
(0 0.00044474861 0.50043122)
(0 8.9407523e-05 0.50042662)
(0 -0.00026600417 0.50043151)
(0 -0.000629344 0.50044621)
(0 -0.0010089476 0.50047162)
(0 -0.0014141341 0.50050932)
(0 -0.0018557985 0.50056173)
(0 -0.0023471801 0.50063239)
(0 -0.0029049104 0.50072648)
(0 -0.0035504985 0.5008515)
(0 -0.0043124753 0.50101853)
(0 -0.0052296356 0.50124429)
(0 -0.0063565918 0.50155521)
(0 -0.0077715101 0.50199382)
(0 -0.0095798947 0.50262912)
(0 -0.011955516 0.50360112)
(0 -0.015290059 0.50519808)
(0 -0.019457448 0.50787266)
(0 -0.024736857 0.51640179)
(0 -0.046985406 0.53915221)
(0 -0.030657171 0.41530367)
(0 0.034610118 0.3623335)
(0 0.063362519 0.55471393)
(0 0.038836049 0.53742187)
(0 0.02961898 0.51849306)
(0 0.023648379 0.51197246)
(0 0.018828176 0.50847858)
(0 0.015305335 0.50623296)
(0 0.012547749 0.50471642)
(0 0.010365328 0.50365983)
(0 0.0086201126 0.50290748)
(0 0.0071983308 0.50235948)
(0 0.0060198312 0.50195304)
(0 0.0050264392 0.50164767)
(0 0.00417465 0.50141625)
(0 0.0034314961 0.5012403)
(0 0.0027715166 0.50110701)
(0 0.0021745852 0.50100746)
(0 0.0016243653 0.50093542)
(0 0.0011071731 0.50088667)
(0 0.0006111083 0.50085848)
(0 0.00012536537 0.50084936)
(0 -0.00036037215 0.5008589)
(0 -0.00085648355 0.50088774)
(0 -0.001373946 0.50093761)
(0 -0.0019249664 0.50101156)
(0 -0.0025237125 0.50111426)
(0 -0.0031872372 0.50125252)
(0 -0.0039367082 0.50143619)
(0 -0.0047991019 0.5016795)
(0 -0.0058095458 0.50200323)
(0 -0.0070144627 0.50243827)
(0 -0.0084768805 0.50303218)
(0 -0.01028538 0.50386047)
(0 -0.012548594 0.50504074)
(0 -0.015403388 0.50677368)
(0 -0.019256782 0.50945881)
(0 -0.02409105 0.51428689)
(0 -0.030391105 0.5282021)
(0 -0.04966705 0.54424345)
(0 -0.028169527 0.37322707)
(0 0.027216009 0.3158399)
(0 0.061679551 0.55063012)
(0 0.043822923 0.55138925)
(0 0.03331108 0.52745064)
(0 0.026816948 0.51770308)
(0 0.021831154 0.51287858)
(0 0.018044473 0.50967262)
(0 0.014972319 0.50742155)
(0 0.012491138 0.50582017)
(0 0.010470343 0.50466088)
(0 0.0087977559 0.50380564)
(0 0.0073939678 0.50316549)
(0 0.0061985669 0.50268114)
(0 0.0051648666 0.50231208)
(0 0.004256678 0.50203025)
(0 0.0034454862 0.50181603)
(0 0.0027083685 0.50165559)
(0 0.0020264613 0.50153924)
(0 0.0013837872 0.50146034)
(0 0.00076633089 0.5014146)
(0 0.00016129243 0.50139969)
(0 -0.00044357975 0.50141493)
(0 -0.0010606075 0.50146134)
(0 -0.0017027674 0.50154165)
(0 -0.0023843889 0.50166063)
(0 -0.0031219401 0.50182555)
(0 -0.0039349948 0.502047)
(0 -0.0048474725 0.50234013)
(0 -0.0058892831 0.50272657)
(0 -0.0070985394 0.50323745)
(0 -0.0085241032 0.50391813)
(0 -0.010229292 0.50483606)
(0 -0.012302223 0.5060953)
(0 -0.014849346 0.50785281)
(0 -0.017960347 0.51033788)
(0 -0.022001229 0.51402467)
(0 -0.027258263 0.5211179)
(0 -0.034645515 0.53923385)
(0 -0.049576469 0.54201351)
(0 -0.0237522 0.33197939)
(0 0.019612683 0.2766675)
(0 0.057194521 0.54051435)
(0 0.046286797 0.56248327)
(0 0.035550755 0.53649227)
(0 0.028774263 0.52345377)
(0 0.023853839 0.51732935)
(0 0.019998121 0.51326339)
(0 0.01678575 0.51032768)
(0 0.014146603 0.50819555)
(0 0.011957484 0.50662482)
(0 0.010116131 0.50545)
(0 0.0085499627 0.50456126)
(0 0.0072009298 0.50388308)
(0 0.0060229473 0.50336278)
(0 0.0049794695 0.50296329)
(0 0.004041045 0.5026583)
(0 0.0031835442 0.50242906)
(0 0.0023867908 0.50226232)
(0 0.0016334674 0.50214896)
(0 0.00090822642 0.50208306)
(0 0.00019695336 0.50206134)
(0 -0.00051390273 0.50208289)
(0 -0.0012379634 0.5021491)
(0 -0.0019895031 0.50226373)
(0 -0.0027841545 0.50243336)
(0 -0.0036396758 0.50266795)
(0 -0.0045768707 0.50298188)
(0 -0.0056207231 0.50339555)
(0 -0.0068018311 0.50393765)
(0 -0.0081583607 0.50464886)
(0 -0.0097381169 0.5055872)
(0 -0.011600263 0.50683629)
(0 -0.013826172 0.50852112)
(0 -0.016520682 0.51082645)
(0 -0.019740756 0.51399987)
(0 -0.02378543 0.51865201)
(0 -0.029247753 0.52811181)
(0 -0.037163966 0.54859031)
(0 -0.047339983 0.53490625)
(0 -0.018674733 0.29608413)
(0 0.012846758 0.24457535)
(0 0.050843464 0.52651028)
(0 0.046311824 0.57021813)
(0 0.036519501 0.54529773)
(0 0.029735383 0.52916971)
(0 0.025023985 0.52167699)
(0 0.021253336 0.51684033)
(0 0.018040753 0.51329355)
(0 0.015356085 0.51067056)
(0 0.013088704 0.50870823)
(0 0.01115154 0.50722194)
(0 0.0094814388 0.50608569)
(0 0.008025412 0.50521089)
(0 0.0067405895 0.50453481)
(0 0.0055921942 0.50401258)
(0 0.0045515422 0.50361189)
(0 0.0035946661 0.5033095)
(0 0.0027011778 0.50308881)
(0 0.0018533216 0.50293831)
(0 0.0010351816 0.50285049)
(0 0.00023200667 0.5028212)
(0 -0.00057041251 0.50284925)
(0 -0.0013863509 0.50293638)
(0 -0.0022306854 0.50308739)
(0 -0.0031195615 0.50331054)
(0 -0.0040710875 0.50361834)
(0 -0.005106152 0.50402872)
(0 -0.0062493985 0.50456679)
(0 -0.0075303848 0.50526751)
(0 -0.0089852117 0.50617964)
(0 -0.010658421 0.50737167)
(0 -0.012602998 0.5089403)
(0 -0.014889303 0.5110259)
(0 -0.017615884 0.51383253)
(0 -0.02081859 0.51763583)
(0 -0.024735704 0.52329868)
(0 -0.030175012 0.53510283)
(0 -0.037827826 0.55575763)
(0 -0.043439103 0.52442122)
(0 -0.013643956 0.26566789)
(0 0.007525573 0.21818955)
(0 0.043709586 0.51004959)
(0 0.044503219 0.57448504)
(0 0.036428614 0.55337178)
(0 0.029874276 0.53473148)
(0 0.025459081 0.52582919)
(0 0.021896793 0.52030108)
(0 0.018796791 0.51622397)
(0 0.016156718 0.51316126)
(0 0.013885916 0.5108401)
(0 0.011915623 0.50906289)
(0 0.01019332 0.50769104)
(0 0.0086729042 0.50662587)
(0 0.007316471 0.50579669)
(0 0.0060924762 0.50515226)
(0 0.0049742739 0.50465526)
(0 0.0039391466 0.50427856)
(0 0.0029674155 0.50400263)
(0 0.0020416752 0.50381382)
(0 0.0011461335 0.50370319)
(0 0.00026603312 0.50366575)
(0 -0.00061289173 0.50370009)
(0 -0.001504963 0.50380826)
(0 -0.0024250177 0.50399596)
(0 -0.0033890028 0.50427299)
(0 -0.0044145623 0.50465411)
(0 -0.0055217192 0.5051603)
(0 -0.0067336693 0.50582075)
(0 -0.008077652 0.50667563)
(0 -0.0095861604 0.50778029)
(0 -0.011298765 0.50921167)
(0 -0.013261041 0.51107714)
(0 -0.015529558 0.5135288)
(0 -0.018189233 0.51678208)
(0 -0.021261749 0.52115553)
(0 -0.024956601 0.52786146)
(0 -0.030189956 0.5417239)
(0 -0.03694865 0.56042614)
(0 -0.038571642 0.51160569)
(0 -0.0092070612 0.23991639)
(0 0.0037554984 0.19690558)
(0 0.036618157 0.49246841)
(0 0.041545404 0.57559117)
(0 0.035527048 0.56028236)
(0 0.029389897 0.53996426)
(0 0.025309077 0.52969815)
(0 0.022030586 0.5235572)
(0 0.019122283 0.51903811)
(0 0.016595022 0.51559737)
(0 0.01438078 0.51295996)
(0 0.012429218 0.51092124)
(0 0.010698753 0.50933368)
(0 0.0091513204 0.50809133)
(0 0.0077550312 0.50711755)
(0 0.0064825178 0.50635621)
(0 0.005310067 0.50576603)
(0 0.0042170209 0.50531673)
(0 0.0031851313 0.50498637)
(0 0.00219799 0.5047595)
(0 0.0012405179 0.50462595)
(0 0.00029850161 0.50458003)
(0 -0.00064184889 0.50462009)
(0 -0.0015943665 0.50474846)
(0 -0.0025732892 0.50497158)
(0 -0.0035937612 0.50530055)
(0 -0.0046722945 0.50575198)
(0 -0.0058272954 0.50634939)
(0 -0.007079669 0.50712522)
(0 -0.0084534166 0.50812376)
(0 -0.0099763614 0.50940547)
(0 -0.011681808 0.51105366)
(0 -0.013607199 0.5131838)
(0 -0.015794856 0.51595591)
(0 -0.018311958 0.51958998)
(0 -0.021172221 0.52446477)
(0 -0.024588174 0.53218652)
(0 -0.029477971 0.54759946)
(0 -0.034962901 0.5626318)
(0 -0.03334087 0.49751901)
(0 -0.0056428237 0.2185087)
(0 0.0013011292 0.18025207)
(0 0.030043954 0.47491967)
(0 0.03796418 0.5741242)
(0 0.03402869 0.56583004)
(0 0.028464306 0.54474304)
(0 0.024730766 0.53323107)
(0 0.021766014 0.52654553)
(0 0.019094739 0.52167239)
(0 0.016726289 0.51792211)
(0 0.014612734 0.51501783)
(0 0.012720074 0.51275325)
(0 0.011017056 0.51097564)
(0 0.009473939 0.50957445)
(0 0.0080652212 0.50846904)
(0 0.0067681946 0.50759983)
(0 0.0055626314 0.50692266)
(0 0.0044304793 0.50640488)
(0 0.0033554418 0.5060227)
(0 0.0023226031 0.50575924)
(0 0.0013180676 0.50560336)
(0 0.0003286169 0.50554879)
(0 -0.00065862003 0.50559368)
(0 -0.0016565406 0.50574056)
(0 -0.0026783255 0.50599647)
(0 -0.0037378336 0.50637349)
(0 -0.004849932 0.50688967)
(0 -0.0060308611 0.50757043)
(0 -0.0072986473 0.50845062)
(0 -0.0086734733 0.50957754)
(0 -0.010177942 0.51101524)
(0 -0.011838449 0.51285127)
(0 -0.013684184 0.51520633)
(0 -0.015744527 0.51824455)
(0 -0.018068866 0.52218777)
(0 -0.020668413 0.52749608)
(0 -0.02377229 0.5361553)
(0 -0.028202163 0.55250496)
(0 -0.032244439 0.56269152)
(0 -0.028143565 0.48313157)
(0 -0.0029714264 0.20122722)
(0 -0.00016862088 0.16748594)
(0 0.024225241 0.4581933)
(0 0.034123942 0.57072641)
(0 0.032103066 0.57000163)
(0 0.027233882 0.54900605)
(0 0.023854423 0.5364175)
(0 0.021204991 0.52923981)
(0 0.018791205 0.52408931)
(0 0.016608835 0.52009711)
(0 0.014625263 0.51697719)
(0 0.012820229 0.51452526)
(0 0.011171702 0.51258655)
(0 0.0096578228 0.51104813)
(0 0.008259291 0.50982707)
(0 0.0069581503 0.50886169)
(0 0.0057379004 0.50810596)
(0 0.0045833955 0.50752564)
(0 0.0034806237 0.50709561)
(0 0.0024165071 0.50679801)
(0 0.00137868 0.50662095)
(0 0.00035526507 0.50655771)
(0 -0.00066534545 0.50660629)
(0 -0.0016947658 0.50676934)
(0 -0.0027447693 0.50705432)
(0 -0.0038275741 0.50747398)
(0 -0.0049560447 0.50804738)
(0 -0.0061439045 0.50880119)
(0 -0.0074059668 0.50977186)
(0 -0.0087583275 0.51100855)
(0 -0.010218274 0.51257746)
(0 -0.011805265 0.51456851)
(0 -0.013540519 0.51710505)
(0 -0.015442186 0.5203523)
(0 -0.017543862 0.52453601)
(0 -0.019858433 0.5302185)
(0 -0.022626855 0.53969736)
(0 -0.026498407 0.55635426)
(0 -0.029088999 0.56102646)
(0 -0.023226079 0.46915869)
(0 -0.0010734425 0.18762204)
(0 -0.00095330954 0.15780373)
(0 0.019251433 0.44274515)
(0 0.030270857 0.56597105)
(0 0.029893184 0.57287898)
(0 0.025798393 0.55272101)
(0 0.022779004 0.53926558)
(0 0.020432671 0.53164008)
(0 0.018281104 0.52627424)
(0 0.016298329 0.52210135)
(0 0.014462085 0.5188148)
(0 0.012763555 0.51621384)
(0 0.011188714 0.51414389)
(0 0.0097227841 0.51249131)
(0 0.0083521661 0.51117223)
(0 0.0070634763 0.51012399)
(0 0.0058439375 0.50929959)
(0 0.0046814089 0.5086639)
(0 0.003564331 0.50819101)
(0 0.0024816714 0.5078624)
(0 0.0014228247 0.50766571)
(0 0.00037749631 0.5075939)
(0 -0.00066441186 0.50764485)
(0 -0.0017129823 0.50782125)
(0 -0.002778338 0.50813078)
(0 -0.003870823 0.50858662)
(0 -0.0050010867 0.50920835)
(0 -0.006180163 0.51002334)
(0 -0.0074195355 0.51106882)
(0 -0.0087311956 0.51239483)
(0 -0.01012731 0.51406848)
(0 -0.01162076 0.51618053)
(0 -0.013225253 0.51885489)
(0 -0.014949178 0.52225599)
(0 -0.016812982 0.52661838)
(0 -0.018834097 0.53262051)
(0 -0.021249856 0.54276562)
(0 -0.02449167 0.55914271)
(0 -0.025731538 0.55805081)
(0 -0.018735089 0.45606098)
(0 0.00021514466 0.17712635)
(0 -0.0012905161 0.15054339)
(0 0.01510585 0.42881403)
(0 0.026557882 0.56033795)
(0 0.027519886 0.57459036)
(0 0.024235405 0.55586877)
(0 0.021581276 0.54178386)
(0 0.019520349 0.53375729)
(0 0.017625604 0.52822592)
(0 0.015845995 0.52392594)
(0 0.014165417 0.5205178)
(0 0.012584404 0.51780413)
(0 0.011095759 0.51563209)
(0 0.0096908969 0.51388849)
(0 0.0083613049 0.51248954)
(0 0.0070978381 0.51137249)
(0 0.0058912739 0.51049012)
(0 0.004732428 0.50980698)
(0 0.0036122313 0.50929682)
(0 0.0025217897 0.50894081)
(0 0.0014523861 0.50872631)
(0 0.00039545623 0.50864611)
(0 -0.00065743231 0.50869799)
(0 -0.0017146733 0.5088846)
(0 -0.002784594 0.5092137)
(0 -0.0038755392 0.50969858)
(0 -0.0049958537 0.51035897)
(0 -0.0061538517 0.51122243)
(0 -0.0073577384 0.51232628)
(0 -0.0086155555 0.51372057)
(0 -0.0099347089 0.51547232)
(0 -0.011322071 0.51767188)
(0 -0.012784436 0.52044216)
(0 -0.014321773 0.52394561)
(0 -0.015944094 0.52843137)
(0 -0.017674558 0.53469672)
(0 -0.019727491 0.54532601)
(0 -0.02229971 0.56091713)
(0 -0.022350457 0.55413586)
(0 -0.01473953 0.4441174)
(0 0.0010509722 0.16922309)
(0 -0.0013550003 0.14519282)
(0 0.011704272 0.41650454)
(0 0.023066848 0.55421679)
(0 0.025079001 0.575287)
(0 0.022606109 0.5584439)
(0 0.020321839 0.54397845)
(0 0.018528053 0.53560588)
(0 0.016878156 0.52995023)
(0 0.015298023 0.52556953)
(0 0.013774701 0.52208055)
(0 0.01231606 0.51928781)
(0 0.010920633 0.51704125)
(0 0.0095851574 0.51522898)
(0 0.008305569 0.51376808)
(0 0.0070765535 0.51259637)
(0 0.0058921815 0.51166699)
(0 0.0047460817 0.51094465)
(0 0.0036316209 0.51040314)
(0 0.0025420484 0.51002359)
(0 0.0014705795 0.5097933)
(0 0.00041044885 0.50970496)
(0 -0.00064503214 0.50975626)
(0 -0.0017024904 0.5099498)
(0 -0.0027683942 0.51029321)
(0 -0.0038490517 0.51079968)
(0 -0.0049505095 0.51148878)
(0 -0.0060784342 0.51238777)
(0 -0.0072379197 0.51353351)
(0 -0.0084333319 0.51497538)
(0 -0.009667773 0.51677941)
(0 -0.010942807 0.51903461)
(0 -0.012259073 0.52186154)
(0 -0.013609489 0.52542031)
(0 -0.01499617 0.52997974)
(0 -0.016447089 0.53644669)
(0 -0.018135042 0.54736145)
(0 -0.020028823 0.56176153)
(0 -0.019074768 0.54959968)
(0 -0.011254009 0.43347772)
(0 0.0015555976 0.16348063)
(0 -0.001265502 0.14134151)
(0 0.008935325 0.40582908)
(0 0.019835416 0.54791076)
(0 0.022643382 0.57512359)
(0 0.020957072 0.56045448)
(0 0.019045984 0.54585512)
(0 0.017502985 0.53720196)
(0 0.016082144 0.53145769)
(0 0.014692779 0.5270361)
(0 0.013323353 0.52350274)
(0 0.011987191 0.52066162)
(0 0.010687594 0.51836608)
(0 0.0094258184 0.51650623)
(0 0.0082016356 0.51500055)
(0 0.0070131288 0.51378797)
(0 0.0058573565 0.51282242)
(0 0.0047305637 0.51206916)
(0 0.0036284375 0.51150231)
(0 0.0025463115 0.51110319)
(0 0.0014793136 0.51085918)
(0 0.00042248256 0.51076299)
(0 -0.00062911198 0.51081222)
(0 -0.0016803162 0.51100933)
(0 -0.0027357405 0.51136176)
(0 -0.0037996853 0.51188237)
(0 -0.0048759722 0.51259027)
(0 -0.0059677591 0.51351207)
(0 -0.0070772621 0.51468373)
(0 -0.0082055161 0.51615336)
(0 -0.0093518232 0.51798539)
(0 -0.010513201 0.52026664)
(0 -0.011685002 0.52311439)
(0 -0.012854465 0.52668652)
(0 -0.014018084 0.53127526)
(0 -0.015206159 0.53787739)
(0 -0.016535825 0.54887543)
(0 -0.017772499 0.56178414)
(0 -0.016001165 0.54470295)
(0 -0.0082694138 0.4241905)
(0 0.0018092734 0.15952418)
(0 -0.0010967311 0.13865554)
(0 0.0066918982 0.3967354)
(0 0.0168815 0.54164467)
(0 0.020269461 0.57424521)
(0 0.01932268 0.56191961)
(0 0.017783751 0.54742075)
(0 0.016477138 0.53856243)
(0 0.01526774 0.53276209)
(0 0.014057278 0.52833363)
(0 0.012834882 0.52478807)
(0 0.011617698 0.52192619)
(0 0.010413005 0.51960501)
(0 0.0092258894 0.51771709)
(0 0.0080594082 0.51618276)
(0 0.0069146282 0.51494244)
(0 0.0057912845 0.51395118)
(0 0.0046880182 0.51317504)
(0 0.0036026834 0.51258875)
(0 0.0025325947 0.51217399)
(0 0.0014747239 0.51191835)
(0 0.00042586737 0.51181459)
(0 -0.00061718412 0.51186028)
(0 -0.0016575337 0.5120577)
(0 -0.002697985 0.51241395)
(0 -0.0037409072 0.51294141)
(0 -0.0047880126 0.5136585)
(0 -0.0058401228 0.5145909)
(0 -0.0068968325 0.51577332)
(0 -0.0079562052 0.5172522)
(0 -0.009014226 0.51908981)
(0 -0.010064088 0.52137021)
(0 -0.011096743 0.52420683)
(0 -0.012094973 0.52775589)
(0 -0.01305164 0.53233475)
(0 -0.013996749 0.53900347)
(0 -0.014984345 0.54989218)
(0 -0.015614598 0.56110807)
(0 -0.013211519 0.53965365)
(0 -0.0057776767 0.41622646)
(0 0.0018627161 0.15700891)
(0 -0.00089336674 0.13686707)
(0 0.0048874418 0.38912847)
(0 0.014220162 0.53557886)
(0 0.018005801 0.57278515)
(0 0.017730976 0.56286978)
(0 0.016554528 0.54868494)
(0 0.015470493 0.53970419)
(0 0.014454363 0.53387901)
(0 0.013409033 0.52947283)
(0 0.012324196 0.52594326)
(0 0.011219556 0.52308532)
(0 0.010105756 0.52075958)
(0 0.0089911785 0.51886143)
(0 0.0078817232 0.51731337)
(0 0.0067810812 0.51605755)
(0 0.0056913765 0.5150504)
(0 0.0046134226 0.51425904)
(0 0.003547067 0.51365894)
(0 0.0024914692 0.5132323)
(0 0.0014453363 0.51296703)
(0 0.00040713193 0.512856)
(0 -0.00062471523 0.51289674)
(0 -0.0016516482 0.51309128)
(0 -0.0026747584 0.51344634)
(0 -0.0036945968 0.51397368)
(0 -0.0047109112 0.51469084)
(0 -0.0057223737 0.51562234)
(0 -0.0067262048 0.51680135)
(0 -0.007717824 0.51827234)
(0 -0.0086903064 0.52009509)
(0 -0.0096335906 0.52235047)
(0 -0.010535029 0.52514781)
(0 -0.011373873 0.52864255)
(0 -0.012140797 0.53317708)
(0 -0.01286429 0.53984585)
(0 -0.01353522 0.55045544)
(0 -0.013633859 0.55986615)
(0 -0.010779701 0.53461633)
(0 -0.003775482 0.40949929)
(0 0.0017539583 0.15560274)
(0 -0.00068226766 0.13576172)
(0 0.003458703 0.38288403)
(0 0.011873163 0.5298217)
(0 0.015903887 0.57086831)
(0 0.016216094 0.56334967)
(0 0.015380951 0.54966242)
(0 0.014504881 0.54064399)
(0 0.013663865 0.53482473)
(0 0.012768403 0.53046631)
(0 0.01180918 0.52697763)
(0 0.010807658 0.52414572)
(0 0.0097774509 0.5218344)
(0 0.0087298929 0.5199422)
(0 0.0076734137 0.51839399)
(0 0.0066140437 0.5171339)
(0 0.0055560454 0.51611993)
(0 0.004502188 0.51532042)
(0 0.0034541244 0.51471174)
(0 0.0024126952 0.51427674)
(0 0.0013781966 0.51400369)
(0 0.00035062606 0.51388564)
(0 -0.00067007855 0.51392007)
(0 -0.0016838307 0.51410876)
(0 -0.0026901485 0.51445794)
(0 -0.0036879187 0.51497863)
(0 -0.0046751018 0.51568737)
(0 -0.0056484244 0.5166073)
(0 -0.0066029709 0.51776985)
(0 -0.0075318033 0.51921729)
(0 -0.0084254113 0.52100663)
(0 -0.0092708456 0.52321524)
(0 -0.010052468 0.5259484)
(0 -0.010746605 0.52936185)
(0 -0.011342176 0.53382154)
(0 -0.011866703 0.54043006)
(0 -0.012253898 0.55062466)
(0 -0.01190667 0.55819347)
(0 -0.0087662348 0.5297149)
(0 -0.0022486382 0.403893)
(0 0.0015185771 0.15498554)
(0 -0.00048064041 0.13516378)
(0 0.0023613239 0.37785308)
(0 0.009871346 0.52443345)
(0 0.014029082 0.56861032)
(0 0.014835453 0.56341754)
(0 0.014310188 0.55037443)
(0 0.013625793 0.54139897)
(0 0.012941243 0.5356162)
(0 0.012178249 0.53132875)
(0 0.011329465 0.52790342)
(0 0.010417827 0.52511752)
(0 0.0094598081 0.52283776)
(0 0.0084695504 0.52096606)
(0 0.0074578056 0.51942995)
(0 0.0064327259 0.51817571)
(0 0.0054004902 0.51716309)
(0 0.0043656064 0.51636182)
(0 0.0033313262 0.5157493)
(0 0.002299977 0.51530911)
(0 0.0012732593 0.51502998)
(0 0.0002525249 0.51490516)
(0 -0.00076095777 0.51493208)
(0 -0.0017657562 0.51511225)
(0 -0.0027600081 0.51545133)
(0 -0.0037411443 0.51595952)
(0 -0.0047055655 0.51665221)
(0 -0.0056483018 0.51755103)
(0 -0.0065625692 0.51868545)
(0 -0.0074393569 0.52009532)
(0 -0.0082668739 0.52183464)
(0 -0.0090295132 0.52397706)
(0 -0.0097090033 0.52662384)
(0 -0.010279187 0.52993221)
(0 -0.01072636 0.53428959)
(0 -0.011077735 0.54078525)
(0 -0.011218902 0.55046551)
(0 -0.010503542 0.55621119)
(0 -0.0072008502 0.52502003)
(0 -0.0011732027 0.39926514)
(0 0.0011918753 0.15487733)
(0 -0.00029987194 0.13492361)
(0 0.0015640032 0.37386052)
(0 0.0082474594 0.51942258)
(0 0.012462471 0.56610674)
(0 0.013679066 0.5631366)
(0 0.013428816 0.55084758)
(0 0.012917734 0.54198801)
(0 0.012368609 0.53627234)
(0 0.011716968 0.53207814)
(0 0.010958932 0.52873704)
(0 0.010119074 0.5260154)
(0 0.0092169093 0.52378264)
(0 0.0082693519 0.52194443)
(0 0.0072893145 0.52043123)
(0 0.0062868752 0.51919174)
(0 0.005269899 0.51818766)
(0 0.0042443931 0.51739025)
(0 0.0032149719 0.51677808)
(0 0.0021852173 0.51633554)
(0 0.0011580074 0.51605189)
(0 0.00013582228 0.51592062)
(0 -0.00087896754 0.51593912)
(0 -0.0018838232 0.51610859)
(0 -0.002875754 0.51643409)
(0 -0.0038510093 0.51692493)
(0 -0.0048047287 0.51759521)
(0 -0.0057305724 0.51846491)
(0 -0.0066202384 0.51956138)
(0 -0.0074629986 0.52092181)
(0 -0.0082451632 0.52259697)
(0 -0.0089487394 0.52465645)
(0 -0.0095529927 0.52719745)
(0 -0.010029769 0.53037963)
(0 -0.010360896 0.53460918)
(0 -0.010570923 0.54094413)
(0 -0.010504437 0.55003622)
(0 -0.0094756279 0.55400553)
(0 -0.006071789 0.52053888)
(0 -0.00050224913 0.39543132)
(0 0.00083994166 0.15502963)
(0 -0.0001466088 0.13490909)
(0 0.001040823 0.37070687)
(0 0.007018144 0.51474451)
(0 0.011281843 0.5634151)
(0 0.012853418 0.56255854)
(0 0.012851339 0.55110942)
(0 0.012493734 0.54243316)
(0 0.012054492 0.53681623)
(0 0.011487991 0.53273754)
(0 0.010795823 0.52950024)
(0 0.010004652 0.52685935)
(0 0.0091373508 0.52468721)
(0 0.0082135155 0.5228937)
(0 0.0072480191 0.52141266)
(0 0.0062526205 0.52019548)
(0 0.0052365867 0.51920603)
(0 0.0042071405 0.51841727)
(0 0.0031699798 0.51780905)
(0 0.0021296702 0.51736668)
(0 0.0010900038 0.51708)
(0 5.4324885e-05 0.51694278)
(0 -0.00097416253 0.51695238)
(0 -0.0019920962 0.51710968)
(0 -0.0029956589 0.51741914)
(0 -0.0039802512 0.51788909)
(0 -0.0049401208 0.5185323)
(0 -0.005867969 0.51936697)
(0 -0.0067544342 0.52041817)
(0 -0.0075875493 0.52172022)
(0 -0.0083522482 0.52332038)
(0 -0.0090286444 0.52528383)
(0 -0.0095937027 0.5277034)
(0 -0.01001786 0.53074135)
(0 -0.010276365 0.53481833)
(0 -0.010383311 0.54094244)
(0 -0.010142082 0.54937584)
(0 -0.0088242736 0.55161399)
(0 -0.0053158226 0.51622957)
(0 -0.00015240108 0.39221565)
(0 0.00052057013 0.15525299)
(0 -2.3088051e-05 0.13500366)
(0 0.00076032713 0.36818317)
(0 0.0061614171 0.51031453)
(0 0.010521442 0.56054118)
(0 0.012434177 0.56170587)
(0 0.012673306 0.55118128)
(0 0.012450812 0.54275959)
(0 0.012091881 0.53727633)
(0 0.01158018 0.53333536)
(0 0.01092548 0.5302196)
(0 0.01015714 0.52767367)
(0 0.0093015569 0.52557347)
(0 0.0083807262 0.52383378)
(0 0.0074111705 0.52239229)
(0 0.0064059841 0.52120345)
(0 0.005375479 0.52023351)
(0 0.0043277596 0.51945729)
(0 0.0032692936 0.51885602)
(0 0.0022053349 0.51841602)
(0 0.0011403078 0.51812775)
(0 7.8144942e-05 0.51798531)
(0 -0.00097739808 0.51798607)
(0 -0.0020224293 0.51813059)
(0 -0.0030526224 0.51842273)
(0 -0.0040628823 0.51886982)
(0 -0.0050469641 0.51948329)
(0 -0.0059970637 0.52027948)
(0 -0.006903286 0.5212811)
(0 -0.0077529991 0.52251941)
(0 -0.0085303868 0.52403788)
(0 -0.0092144053 0.52589695)
(0 -0.0097800258 0.52818446)
(0 -0.010196755 0.53106405)
(0 -0.010431322 0.53496308)
(0 -0.010474448 0.54081523)
(0 -0.010079388 0.54849949)
(0 -0.0084717188 0.54902928)
(0 -0.0048162879 0.51202958)
(0 -2.3853187e-05 0.38947082)
(0 0.00026060008 0.15542526)
(0 7.1393179e-05 0.13511163)
(0 0.00067647274 0.36609717)
(0 0.0056036853 0.50603852)
(0 0.010130643 0.55744439)
(0 0.012407 0.56056348)
(0 0.012905646 0.55107024)
(0 0.012807194 0.54299174)
(0 0.012500423 0.53768382)
(0 0.012014159 0.53390226)
(0 0.011370181 0.53092295)
(0 0.010601255 0.52848315)
(0 0.0097371254 0.5264634)
(0 0.0088017006 0.52478416)
(0 0.0078127425 0.52338757)
(0 0.0067842558 0.52223142)
(0 0.0057272022 0.52128458)
(0 0.0046502203 0.52052382)
(0 0.0035602351 0.51993187)
(0 0.0024629068 0.51949607)
(0 0.0013630312 0.5192076)
(0 0.0002648805 0.51906089)
(0 -0.00082748734 0.51905334)
(0 -0.0019099083 0.51918527)
(0 -0.0029778241 0.51945992)
(0 -0.0040259535 0.51988369)
(0 -0.0050479133 0.52046667)
(0 -0.0060358014 0.52122335)
(0 -0.0069796712 0.52217407)
(0 -0.0078667799 0.52334694)
(0 -0.0086811428 0.52478137)
(0 -0.0094013453 0.52653271)
(0 -0.010000792 0.52868307)
(0 -0.01044807 0.53139428)
(0 -0.010699673 0.53508732)
(0 -0.010708583 0.54058937)
(0 -0.010166051 0.54740336)
(0 -0.0082627475 0.54622524)
(0 -0.0044275853 0.50789463)
(0 -2.4162994e-05 0.38708467)
(0 7.0823903e-05 0.15549659)
(0 0.00013770197 0.13516762)
(0 0.00072692379 0.36429912)
(0 0.0052296617 0.50185369)
(0 0.0099627778 0.55406954)
(0 0.012634194 0.55908861)
(0 0.013428734 0.55076463)
(0 0.013456824 0.54314531)
(0 0.013185121 0.53806491)
(0 0.012704633 0.53446391)
(0 0.012054144 0.53163251)
(0 0.01127074 0.52930663)
(0 0.010387058 0.52737287)
(0 0.0094283798 0.52575826)
(0 0.0084133104 0.52440988)
(0 0.0073563666 0.5232892)
(0 0.0062688189 0.52236781)
(0 0.0051595529 0.52162455)
(0 0.0040357033 0.52104364)
(0 0.0029031231 0.52061353)
(0 0.001766789 0.52032608)
(0 0.00063113797 0.52017611)
(0 -0.00049963672 0.5201611)
(0 -0.001621272 0.52028114)
(0 -0.0027291554 0.52053893)
(0 -0.0038180171 0.52094)
(0 -0.0048815625 0.52149314)
(0 -0.0059120506 0.52221111)
(0 -0.0068997884 0.52311185)
(0 -0.0078322944 0.52422036)
(0 -0.0086937647 0.52557177)
(0 -0.0094629494 0.52721598)
(0 -0.010112031 0.52922839)
(0 -0.010608012 0.53176393)
(0 -0.01089575 0.53521871)
(0 -0.010880446 0.54027696)
(0 -0.010186849 0.54608043)
(0 -0.008005466 0.543198)
(0 -0.0040202678 0.50384113)
(0 -7.3530414e-05 0.38499256)
(0 -3.8274557e-05 0.15546096)
(0 0.0001767269 0.13514268)
(0 0.0008408577 0.36269903)
(0 0.0049149133 0.49776246)
(0 0.0098118094 0.55039573)
(0 0.012878023 0.55723997)
(0 0.014002535 0.55023805)
(0 0.014174852 0.54321916)
(0 0.013941089 0.53843036)
(0 0.013465113 0.53503159)
(0 0.012807804 0.53235689)
(0 0.012011726 0.53015002)
(0 0.011111958 0.52830557)
(0 0.010134807 0.52675792)
(0 0.0090994965 0.52545963)
(0 0.008020826 0.52437603)
(0 0.0069101978 0.52348155)
(0 0.0057766004 0.52275712)
(0 0.0046272601 0.52218849)
(0 0.0034681283 0.52176518)
(0 0.002304285 0.52147977)
(0 0.0011402665 0.52132747)
(0 -1.9649475e-05 0.52130587)
(0 -0.0011711542 0.52141487)
(0 -0.0023096248 0.52165668)
(0 -0.0034298462 0.52203605)
(0 -0.0045256582 0.52256055)
(0 -0.0055895286 0.5232413)
(0 -0.0066120623 0.52409393)
(0 -0.0075811136 0.52514031)
(0 -0.008481066 0.52641115)
(0 -0.0092909083 0.52795041)
(0 -0.0099816831 0.5298256)
(0 -0.010517634 0.53217822)
(0 -0.010831425 0.53535845)
(0 -0.010779941 0.53987537)
(0 -0.0099327776 0.54454135)
(0 -0.0075337769 0.54000071)
(0 -0.0035134462 0.49996094)
(0 -0.00011649226 0.38319196)
(0 -8.3494947e-05 0.1553474)
(0 0.00019141178 0.13504203)
(0 0.00095429202 0.36126722)
(0 0.0045648413 0.49384114)
(0 0.0094842219 0.54647859)
(0 0.012879007 0.55501493)
(0 0.014339191 0.54946388)
(0 0.014681627 0.54319324)
(0 0.014510457 0.53876842)
(0 0.0140596 0.53559558)
(0 0.013414961 0.53308571)
(0 0.012625719 0.53100201)
(0 0.011729219 0.52924945)
(0 0.010752776 0.52777055)
(0 0.00971628 0.52652376)
(0 0.0086348382 0.52547848)
(0 0.0075200329 0.52461207)
(0 0.0063809983 0.52390755)
(0 0.0052250961 0.52335219)
(0 0.0040584224 0.52293659)
(0 0.0028862088 0.52265402)
(0 0.0017131448 0.5225001)
(0 0.0005436561 0.52247255)
(0 -0.00061782928 0.5225711)
(0 -0.0017665963 0.52279755)
(0 -0.0028973762 0.52315589)
(0 -0.0040040163 0.52365259)
(0 -0.0050790382 0.52429715)
(0 -0.0061131426 0.52510297)
(0 -0.0070943053 0.52608875)
(0 -0.008006805 0.52728062)
(0 -0.0088295228 0.52871607)
(0 -0.0095322177 0.53045316)
(0 -0.01007531 0.5326134)
(0 -0.010380356 0.53548217)
(0 -0.010266777 0.53937525)
(0 -0.0092778046 0.54282957)
(0 -0.0067673341 0.53675169)
(0 -0.0028942615 0.49639358)
(0 -0.00012439949 0.38170348)
(0 -8.800526e-05 0.15520152)
(0 0.00018733517 0.13489424)
(0 0.0010251391 0.36001554)
(0 0.0041400958 0.49021656)
(0 0.0088696491 0.5424614)
(0 0.012452181 0.55247579)
(0 0.014206112 0.54843498)
(0 0.014738479 0.54303636)
(0 0.014667883 0.53904648)
(0 0.014279474 0.53612558)