/*--------------------------------*- C++ -*----------------------------------*\
  =========                 |
  \\      /  F ield         | OpenFOAM: The Open Source CFD Toolbox
   \\    /   O peration     | Website:  https://openfoam.org
    \\  /    A nd           | Version:  10
     \\/     M anipulation  |
\*---------------------------------------------------------------------------*/
FoamFile
{
    format      ascii;
    class       volVectorField;
    location    "0.05";
    object      U_0;
}
// * * * * * * * * * * * * * * * * * * * * * * * * * * * * * * * * * * * * * //

dimensions      [0 1 -1 0 0 0 0];

internalField   nonuniform List<vector> 
4000
(
(0 0.018602168 0.47774881)
(0 0.023445541 0.50885044)
(0 0.0081101813 0.50052709)
(0 0.005559992 0.50033768)
(0 0.0041977037 0.50025753)
(0 0.0031982397 0.50016869)
(0 0.0025012519 0.50011924)
(0 0.0020024096 0.50008953)
(0 0.0016276508 0.50006909)
(0 0.0013369984 0.50005459)
(0 0.0011059607 0.50004413)
(0 0.00091811259 0.50003643)
(0 0.00076213891 0.50003066)
(0 0.00063002064 0.5000263)
(0 0.00051589975 0.500023)
(0 0.00041537679 0.5000205)
(0 0.00032505399 0.50001864)
(0 0.00024222543 0.5000173)
(0 0.00016465918 0.50001639)
(0 9.0437464e-05 0.50001587)
(0 1.7833588e-05 0.5000157)
(0 -5.479763e-05 0.50001588)
(0 -0.00012911184 0.50001642)
(0 -0.00020686825 0.50001735)
(0 -0.00029004366 0.50001874)
(0 -0.00038096399 0.50002067)
(0 -0.0004824791 0.50002327)
(0 -0.0005982059 0.50002673)
(0 -0.00073288061 0.50003132)
(0 -0.00089289513 0.50003746)
(0 -0.0010871562 0.50004576)
(0 -0.0013284645 0.50005719)
(0 -0.001635771 0.50007323)
(0 -0.0020396824 0.50009638)
(0 -0.002596513 0.50013436)
(0 -0.0033895396 0.50020244)
(0 -0.004484858 0.50027312)
(0 -0.0065087452 0.50043631)
(0 -0.017577176 0.50674152)
(0 -0.013546663 0.47977901)
(0 0.037333423 0.44808773)
(0 0.050757089 0.53230891)
(0 0.02177831 0.50804166)
(0 0.015959418 0.50358119)
(0 0.012233021 0.5024234)
(0 0.0093354831 0.5016199)
(0 0.0073469125 0.50115174)
(0 0.0059050274 0.50085961)
(0 0.004810305 0.50066062)
(0 0.0039577539 0.50052087)
(0 0.0032780451 0.50042035)
(0 0.0027239768 0.50034643)
(0 0.0022629946 0.50029124)
(0 0.0018718878 0.50024961)
(0 0.0015336124 0.50021808)
(0 0.0012353233 0.50019427)
(0 0.00096707165 0.50017652)
(0 0.00072091556 0.50016371)
(0 0.00049029174 0.50015505)
(0 0.00026955158 0.50015006)
(0 5.3602994e-05 0.50014845)
(0 -0.00016240299 0.50015016)
(0 -0.00038334626 0.50015529)
(0 -0.0006144123 0.50016418)
(0 -0.00086141876 0.50017738)
(0 -0.001131199 0.50019573)
(0 -0.0014321071 0.5002205)
(0 -0.0017747166 0.50025351)
(0 -0.0021728272 0.50029743)
(0 -0.0026449695 0.50035621)
(0 -0.0032168046 0.50043586)
(0 -0.0039251287 0.50054595)
(0 -0.0048236545 0.50070176)
(0 -0.0059930911 0.50092907)
(0 -0.0075831708 0.50128955)
(0 -0.009872522 0.50191057)
(0 -0.01286246 0.50283605)
(0 -0.017172805 0.50608493)
(0 -0.038501348 0.5252446)
(0 -0.02776684 0.45038146)
(0 0.039734788 0.41014574)
(0 0.061080307 0.54933482)
(0 0.031620262 0.52186092)
(0 0.024036056 0.51009183)
(0 0.0188662 0.50658759)
(0 0.014657097 0.50451792)
(0 0.01170028 0.50325595)
(0 0.009482107 0.50243883)
(0 0.0077661699 0.50187857)
(0 0.0064159587 0.50148409)
(0 0.0053306358 0.50119935)
(0 0.0044402704 0.5009895)
(0 0.0036958362 0.50083255)
(0 0.0030617397 0.50071404)
(0 0.0025115234 0.50062418)
(0 0.0020250672 0.50055627)
(0 0.0015866709 0.50050563)
(0 0.0011837248 0.50046903)
(0 0.00080575695 0.50044429)
(0 0.00044372025 0.50042999)
(0 8.9437522e-05 0.50042538)
(0 -0.0002648834 0.50043022)
(0 -0.00062708349 0.50044485)
(0 -0.0010054817 0.50047019)
(0 -0.0014093807 0.50050779)
(0 -0.0018496592 0.50056008)
(0 -0.0023395416 0.50063062)
(0 -0.002895647 0.50072457)
(0 -0.0035394759 0.50084945)
(0 -0.0042995576 0.50101634)
(0 -0.0052146955 0.50124199)
(0 -0.0063395252 0.50155284)
(0 -0.007752263 0.50199147)
(0 -0.0095585001 0.50262691)
(0 -0.011932079 0.50359923)
(0 -0.015264956 0.5051969)
(0 -0.019431992 0.50787272)
(0 -0.024708027 0.51639993)
(0 -0.046956551 0.53915274)
(0 -0.030643682 0.41533183)
(0 0.034596248 0.36237767)
(0 0.063327182 0.55472321)
(0 0.038797156 0.53741625)
(0 0.029587393 0.51849126)
(0 0.023618026 0.51197044)
(0 0.018799825 0.50847569)
(0 0.015279327 0.50622966)
(0 0.012524108 0.50471294)
(0 0.010344065 0.50365631)
(0 0.008601155 0.50290404)
(0 0.0071815679 0.50235616)
(0 0.0060051387 0.50194988)
(0 0.0050136899 0.50164466)
(0 0.0041637233 0.5014134)
(0 0.0034222843 0.50123758)
(0 0.0027639294 0.5011044)
(0 0.002168552 0.50100492)
(0 0.0016198373 0.50093294)
(0 0.0011041243 0.5008842)
(0 0.00060953656 0.50085599)
(0 0.00012529296 0.50084681)
(0 -0.00035889779 0.50085626)
(0 -0.0008533892 0.50088496)
(0 -0.0013691322 0.50093466)
(0 -0.0019183073 0.5010084)
(0 -0.0025150556 0.50111085)
(0 -0.0031764047 0.50124883)
(0 -0.0039234992 0.5014322)
(0 -0.0047832971 0.5016752)
(0 -0.0057909153 0.50199862)
(0 -0.0069927796 0.50243339)
(0 -0.0084519386 0.50302712)
(0 -0.010257027 0.50385538)
(0 -0.012516798 0.50503587)
(0 -0.015368201 0.5067694)
(0 -0.019218588 0.50945583)
(0 -0.024051288 0.51428513)
(0 -0.030343949 0.52819644)
(0 -0.049622618 0.54425261)
(0 -0.028150628 0.37328404)
(0 0.027199668 0.31591376)
(0 0.061631589 0.55065595)
(0 0.043765385 0.5513796)
(0 0.033264836 0.52744446)
(0 0.026774304 0.51769859)
(0 0.021791804 0.51287302)
(0 0.018008704 0.50966643)
(0 0.014940093 0.50741517)
(0 0.01246238 0.50581384)
(0 0.010444869 0.50465475)
(0 0.0087753545 0.50379979)
(0 0.0073744209 0.50315996)
(0 0.0061816633 0.50267592)
(0 0.0051504131 0.50230715)
(0 0.0042445061 0.50202559)
(0 0.0034354561 0.50181158)
(0 0.002700372 0.50165129)
(0 0.0020204229 0.50153504)
(0 0.0013796649 0.50145617)
(0 0.00076411722 0.5014104)
(0 0.00016101507 0.50139539)
(0 -0.00044185729 0.50141047)
(0 -0.0010567847 0.50145664)
(0 -0.0016967058 0.50153664)
(0 -0.0023759112 0.50165524)
(0 -0.0031108291 0.50181972)
(0 -0.0039209936 0.50204066)
(0 -0.0048302858 0.50233323)
(0 -0.0058685807 0.50271908)
(0 -0.0070739641 0.50322937)
(0 -0.0084952851 0.50390951)
(0 -0.010195868 0.504827)
(0 -0.012263869 0.50608605)
(0 -0.014805877 0.50784376)
(0 -0.017911691 0.51032969)
(0 -0.021947656 0.51401826)
(0 -0.027200508 0.52111131)
(0 -0.034574979 0.53922245)
(0 -0.049514014 0.54204043)
(0 -0.023728056 0.33207633)
(0 0.019594469 0.27677775)
(0 0.057133405 0.54056716)
(0 0.046207227 0.56247054)
(0 0.035486059 0.53647811)
(0 0.028717104 0.52344471)
(0 0.023801882 0.51731969)
(0 0.019951351 0.51325296)
(0 0.016744032 0.51031714)
(0 0.0141097 0.50818528)
(0 0.011925035 0.50661501)
(0 0.010087773 0.50544074)
(0 0.0085253434 0.50455259)
(0 0.0071797223 0.50387497)
(0 0.0060048609 0.50335518)
(0 0.0049642556 0.50295614)
(0 0.0040285004 0.5026515)
(0 0.003173512 0.50242253)
(0 0.0023791609 0.50225596)
(0 0.0016281768 0.50214266)
(0 0.00090525956 0.50207672)
(0 0.00019634218 0.50205485)
(0 -0.0005120776 0.50207615)
(0 -0.0012335711 0.50214198)
(0 -0.0019823608 0.50225613)
(0 -0.0027740254 0.50242515)
(0 -0.0036262664 0.50265901)
(0 -0.0045598291 0.50297212)
(0 -0.0055996376 0.50338485)
(0 -0.0067762318 0.50392595)
(0 -0.0081277239 0.50463613)
(0 -0.009701878 0.50557346)
(0 -0.011557835 0.5068217)
(0 -0.01377697 0.50850595)
(0 -0.016464251 0.51081126)
(0 -0.019676801 0.51398567)
(0 -0.023713895 0.51863949)
(0 -0.029167626 0.52809581)
(0 -0.037064946 0.54857219)
(0 -0.047257311 0.53496276)
(0 -0.018645433 0.29623253)
(0 0.012827087 0.24472886)
(0 0.050768774 0.5266026)
(0 0.046206944 0.57020518)
(0 0.036432106 0.54527133)
(0 0.029661098 0.52915284)
(0 0.02495772 0.52166119)
(0 0.021194327 0.51682388)
(0 0.017988686 0.51327729)
(0 0.015310469 0.51065499)
(0 0.013048923 0.50869356)
(0 0.011117017 0.50720827)
(0 0.0094516381 0.50607301)
(0 0.0079998533 0.50519915)
(0 0.006718856 0.5045239)
(0 0.0055739361 0.50400238)
(0 0.0045364765 0.50360226)
(0 0.0035825754 0.50330029)
(0 0.0026919092 0.50307987)
(0 0.0018467854 0.50292948)
(0 0.0010313503 0.50284162)
(0 0.00023091543 0.50281211)
(0 -0.00056866522 0.50283978)
(0 -0.0013816009 0.50292636)
(0 -0.0022227004 0.50307665)
(0 -0.0031080367 0.50329889)
(0 -0.0040556415 0.5036056)
(0 -0.0050863214 0.50401471)
(0 -0.0062246329 0.50455135)
(0 -0.0075000432 0.50525049)
(0 -0.008948561 0.50616093)
(0 -0.010614643 0.50735127)
(0 -0.012551207 0.50891832)
(0 -0.014828547 0.51100266)
(0 -0.017545301 0.51380872)
(0 -0.020737524 0.51761275)
(0 -0.024643402 0.52327598)
(0 -0.030067685 0.53507147)
(0 -0.037695342 0.55573334)
(0 -0.043334139 0.52452187)
(0 -0.013609325 0.26588014)
(0 0.0075048278 0.21839343)
(0 0.043620802 0.51019625)
(0 0.044369773 0.57447671)
(0 0.036314 0.55332856)
(0 0.029779874 0.53470226)
(0 0.025376732 0.52580445)
(0 0.021824363 0.52027638)
(0 0.018733627 0.51620004)
(0 0.01610196 0.51313875)
(0 0.013838597 0.51081922)
(0 0.011874876 0.50904367)
(0 0.010158371 0.50767341)
(0 0.0086430768 0.50660971)
(0 0.0072911908 0.5057818)
(0 0.0060712687 0.50513845)
(0 0.0049567592 0.50464231)
(0 0.0039250344 0.50426624)
(0 0.0029565009 0.50399072)
(0 0.0020338353 0.50380209)
(0 0.0011413254 0.50369141)
(0 0.00026429337 0.50365369)
(0 -0.00061144626 0.50368751)
(0 -0.0015001323 0.50379492)
(0 -0.0024165148 0.50398159)
(0 -0.0033764474 0.50425733)
(0 -0.0043974736 0.50463688)
(0 -0.0054995061 0.50514123)
(0 -0.0067056202 0.50579957)
(0 -0.0080429234 0.50665207)
(0 -0.0095437663 0.50775415)
(0 -0.011247572 0.50918283)
(0 -0.013199777 0.51104563)
(0 -0.015456792 0.51349489)
(0 -0.018103538 0.51674656)
(0 -0.021161901 0.52111981)
(0 -0.024840603 0.52782293)
(0 -0.030050464 0.54167014)
(0 -0.036778007 0.56039795)
(0 -0.038442423 0.51176771)
(0 -0.0091668329 0.24020586)
(0 0.003733952 0.19716645)
(0 0.036514564 0.49268657)
(0 0.041380159 0.57559426)
(0 0.035380652 0.56021763)
(0 0.029272112 0.53991676)
(0 0.025208826 0.52966069)
(0 0.021943652 0.52352145)
(0 0.019047416 0.5190042)
(0 0.016530849 0.515566)
(0 0.014325869 0.5129313)
(0 0.012382331 0.51089522)
(0 0.010658812 0.5093101)
(0 0.0091174069 0.50806993)
(0 0.0077263823 0.50709803)
(0 0.0064585105 0.50633825)
(0 0.0052902069 0.50574931)
(0 0.0042009322 0.50530093)
(0 0.0031725476 0.50497116)
(0 0.0021887489 0.50474457)
(0 0.001234557 0.50461098)
(0 0.00029585697 0.5045647)
(0 -0.00064104201 0.50460406)
(0 -0.00158987 0.50473139)
(0 -0.0025647569 0.50495312)
(0 -0.0035807302 0.50528033)
(0 -0.0046541741 0.5057296)
(0 -0.0058033524 0.50632444)
(0 -0.0070490097 0.50709728)
(0 -0.0084149664 0.50809241)
(0 -0.0099288394 0.50937034)
(0 -0.011623706 0.51101443)
(0 -0.013536769 0.51314032)
(0 -0.015710063 0.51590831)
(0 -0.018210632 0.51953907)
(0 -0.021052286 0.52441159)
(0 -0.024445725 0.53212481)
(0 -0.029301695 0.54751551)
(0 -0.034749957 0.56260356)
(0 -0.033185561 0.49776203)
(0 -0.0055966062 0.21888931)
(0 0.0012786318 0.18057615)
(0 0.02992454 0.47522848)
(0 0.03776392 0.57414714)
(0 0.033846195 0.56573907)
(0 0.028319883 0.54466994)
(0 0.024610913 0.53317599)
(0 0.021663732 0.5264953)
(0 0.01900782 0.52162574)
(0 0.016652668 0.5178797)
(0 0.014550389 0.51497968)
(0 0.012667301 0.51271909)
(0 0.010972412 0.51094506)
(0 0.0094362208 0.50954701)
(0 0.0080334452 0.50844426)
(0 0.0067415669 0.50757724)
(0 0.0055405267 0.50690179)
(0 0.0044124233 0.5063853)
(0 0.0033410978 0.50600395)
(0 0.0023117628 0.5057409)
(0 0.0013106445 0.505585)
(0 0.00032464434 0.50552997)
(0 -0.0006589887 0.50557397)
(0 -0.0016530276 0.50571949)
(0 -0.0026705219 0.50597357)
(0 -0.0037251881 0.50634825)
(0 -0.0048317354 0.50686155)
(0 -0.006006226 0.50753884)
(0 -0.0072664817 0.50841495)
(0 -0.0086324474 0.50953715)
(0 -0.010126447 0.51096949)
(0 -0.011774547 0.51279956)
(0 -0.013605574 0.51514821)
(0 -0.01564845 0.51817986)
(0 -0.017952218 0.52211712)
(0 -0.020527907 0.52741945)
(0 -0.023601393 0.53606144)
(0 -0.027985482 0.55238244)
(0 -0.031985825 0.56266822)
(0 -0.02796027 0.4834771)
(0 -0.002917903 0.20171359)
(0 -0.00019274141 0.16788169)
(0 0.024088398 0.45861346)
(0 0.03388543 0.57077876)
(0 0.031880784 0.5698797)
(0 0.027060137 0.54889877)
(0 0.023713884 0.53633866)
(0 0.021087229 0.52917096)
(0 0.018692574 0.52402681)
(0 0.016526353 0.52004124)
(0 0.014556191 0.51692771)
(0 0.012762314 0.51448157)
(0 0.011123074 0.51254794)
(0 0.0096169559 0.51101388)
(0 0.0082249515 0.50979648)
(0 0.0069293524 0.50883407)
(0 0.0057138719 0.50808067)
(0 0.0045635518 0.50750208)
(0 0.0034645485 0.5070732)
(0 0.0024039386 0.50677617)
(0 0.0013695032 0.50659912)
(0 0.00034950746 0.50653532)
(0 -0.00066751385 0.50658278)
(0 -0.0016930272 0.50674411)
(0 -0.0027386499 0.50702673)
(0 -0.0038164303 0.50744338)
(0 -0.0049390432 0.50801302)
(0 -0.0061199962 0.50876229)
(0 -0.0073738505 0.50972755)
(0 -0.0087164046 0.5109579)
(0 -0.010164586 0.51251949)
(0 -0.011737415 0.51450221)
(0 -0.013455597 0.51702948)
(0 -0.015336623 0.52026683)
(0 -0.017413449 0.5244407)
(0 -0.019698257 0.5301113)
(0 -0.02242705 0.53956091)
(0 -0.026239448 0.55618424)
(0 -0.028782221 0.56101332)
(0 -0.023012393 0.46962936)
(0 -0.0010095658 0.18823103)
(0 -0.000980008 0.15828534)
(0 0.019094413 0.44329867)
(0 0.029990949 0.56606266)
(0 0.029628609 0.57272097)
(0 0.025594034 0.55256962)
(0 0.02261811 0.53915555)
(0 0.020300744 0.53154778)
(0 0.018172473 0.52619242)
(0 0.016208841 0.52202946)
(0 0.014388176 0.51875212)
(0 0.012702343 0.51615927)
(0 0.011137852 0.51409629)
(0 0.0096803871 0.51244959)
(0 0.0083167257 0.51113539)
(0 0.007033794 0.51009109)
(0 0.0058190775 0.50926978)
(0 0.004660663 0.50863636)
(0 0.0035471926 0.50816499)
(0 0.0024678173 0.50783716)
(0 0.0014121049 0.50764053)
(0 0.00036992809 0.50756807)
(0 -0.00066864462 0.50761764)
(0 -0.0017135229 0.5077919)
(0 -0.0027746477 0.50809848)
(0 -0.003862164 0.5085505)
(0 -0.0049864986 0.50916746)
(0 -0.0061584306 0.50997664)
(0 -0.0073891442 0.51101515)
(0 -0.0086902727 0.51233289)
(0 -0.010073545 0.51399685)
(0 -0.01155129 0.51609764)
(0 -0.013136545 0.51875915)
(0 -0.014836836 0.52214601)
(0 -0.016671596 0.52649319)
(0 -0.018656738 0.5324747)
(0 -0.021022748 0.54257486)
(0 -0.024191026 0.55891546)
(0 -0.02537536 0.55805181)
(0 -0.018487958 0.4566791)
(0 0.00029287899 0.17787881)
(0 -0.0013204752 0.15113123)
(0 0.014924731 0.42952402)
(0 0.026234214 0.56047794)
(0 0.027212383 0.57439001)
(0 0.024001173 0.5556618)
(0 0.021402234 0.5416339)
(0 0.019377309 0.53363609)
(0 0.017510256 0.52812113)
(0 0.015752801 0.52383544)
(0 0.014089914 0.52044009)
(0 0.012523025 0.51773743)
(0 0.011045642 0.51557468)
(0 0.0096497682 0.51383883)
(0 0.0083273538 0.51244624)
(0 0.0070696315 0.5113343)
(0 0.0058676949 0.5104559)
(0 0.0047126299 0.5097757)
(0 0.0035956055 0.50926751)
(0 0.002507943 0.50891255)
(0 0.0014411265 0.50869819)
(0 0.00038678585 0.50861725)
(0 -0.00066331888 0.50866745)
(0 -0.0017173823 0.50885145)
(0 -0.0027835214 0.50917692)
(0 -0.0038698513 0.50965708)
(0 -0.0049844595 0.51031154)
(0 -0.0061353649 0.51116773)
(0 -0.0073304256 0.51226279)
(0 -0.008577266 0.51364657)
(0 -0.009882781 0.51538584)
(0 -0.011253189 0.51757069)
(0 -0.012694466 0.5203238)
(0 -0.014205538 0.52380767)
(0 -0.015795032 0.5282712)
(0 -0.017483492 0.53450392)
(0 -0.019476522 0.54506846)
(0 -0.02196105 0.56062196)
(0 -0.021946354 0.55415259)
(0 -0.014456676 0.44490287)
(0 0.0011427977 0.1701441)
(0 -0.0013877263 0.14590983)
(0 0.011495604 0.4173944)
(0 0.022699422 0.55441271)
(0 0.024730425 0.57503639)
(0 0.02234451 0.55816836)
(0 0.020127868 0.54377881)
(0 0.018377508 0.53544994)
(0 0.01675967 0.52981876)
(0 0.015204593 0.52545788)
(0 0.013700941 0.52198612)
(0 0.012257689 0.5192079)
(0 0.010874251 0.51697342)
(0 0.0095480747 0.51517112)
(0 0.0082756493 0.51371833)
(0 0.0070521098 0.51255312)
(0 0.0058719004 0.51162878)
(0 0.004728967 0.51091017)
(0 0.003616954 0.51037117)
(0 0.0025293605 0.50999299)
(0 0.0014596329 0.50976295)
(0 0.0004012286 0.50967376)
(0 -0.00065232151 0.50972309)
(0 -0.0017074172 0.50991348)
(0 -0.0027702867 0.51025251)
(0 -0.0038469749 0.51075324)
(0 -0.0049432332 0.5114351)
(0 -0.0060643884 0.51232515)
(0 -0.0072151354 0.51346003)
(0 -0.0083993611 0.51488882)
(0 -0.009619583 0.51667719)
(0 -0.010876625 0.51891371)
(0 -0.012170177 0.52171849)
(0 -0.013491975 0.52525138)
(0 -0.014842496 0.52977994)
(0 -0.016245898 0.53619895)
(0 -0.017864814 0.54702505)
(0 -0.019659563 0.56138788)
(0 -0.018629967 0.54963152)
(0 -0.010937707 0.43444548)
(0 0.0016553052 0.16459635)
(0 -0.0012985453 0.14220826)
(0 0.0086993878 0.40692066)
(0 0.019428984 0.54816857)
(0 0.022258593 0.57481397)
(0 0.02067122 0.56009707)
(0 0.018839269 0.54559592)
(0 0.017346749 0.53700546)
(0 0.015962026 0.53129594)
(0 0.01460039 0.52690094)
(0 0.013252391 0.52339003)
(0 0.011932652 0.52056757)
(0 0.010645523 0.51828741)
(0 0.009393089 0.51644012)
(0 0.0081757708 0.51494461)
(0 0.0069921793 0.51374014)
(0 0.0058398091 0.51278088)
(0 0.004715274 0.51203227)
(0 0.0036145807 0.51146858)
(0 0.0025333478 0.51107121)
(0 0.0014669648 0.5108276)
(0 0.00041072061 0.51073046)
(0 -0.00064006862 0.51077739)
(0 -0.0016899942 0.51097078)
(0 -0.0027433958 0.51131797)
(0 -0.0038042751 0.51183169)
(0 -0.0048761156 0.51253086)
(0 -0.0059616837 0.51344184)
(0 -0.0070627341 0.51460029)
(0 -0.0081797487 0.51605392)
(0 -0.0093113551 0.51786667)
(0 -0.010453741 0.52012472)
(0 -0.01160119 0.52294468)
(0 -0.012739608 0.52648378)
(0 -0.013863792 0.5310316)
(0 -0.014999323 0.53756788)
(0 -0.016252731 0.5484506)
(0 -0.017385215 0.56132461)
(0 -0.015532687 0.54474951)
(0 -0.0079312757 0.42534841)
(0 0.00190466 0.16085474)
(0 -0.001125842 0.1396862)
(0 0.0064355194 0.39804664)
(0 0.016448219 0.54196964)
(0 0.019857626 0.57386991)
(0 0.019016344 0.56146945)
(0 0.017564873 0.5470934)
(0 0.016314641 0.53832008)
(0 0.015144941 0.53256679)
(0 0.013964505 0.52817283)
(0 0.01276487 0.52465577)
(0 0.011564702 0.52181737)
(0 0.01037249 0.51951535)
(0 0.0091942757 0.51764301)
(0 0.0080338803 0.51612122)
(0 0.0068929863 0.51489086)
(0 0.0057718344 0.5139073)
(0 0.0046694887 0.51313686)
(0 0.0035841651 0.51255445)
(0 0.0025134954 0.51214187)
(0 0.0014547391 0.51188679)
(0 0.00040496518 0.511782)
(0 -0.000638768 0.51182503)
(0 -0.0016792857 0.51201808)
(0 -0.0027190945 0.51236815)
(0 -0.0037602308 0.51288744)
(0 -0.004804025 0.51359413)
(0 -0.0058508496 0.51451359)
(0 -0.006899763 0.51568011)
(0 -0.0079481813 0.51713965)
(0 -0.0089912935 0.51895383)
(0 -0.010021331 0.52120589)
(0 -0.01102804 0.52400831)
(0 -0.011992621 0.52751623)
(0 -0.012906257 0.53204289)
(0 -0.013794129 0.53862684)
(0 -0.014700594 0.54937419)
(0 -0.01522964 0.56056211)
(0 -0.012748565 0.5397177)
(0 -0.0054400204 0.41757329)
(0 0.0019392717 0.15855867)
(0 -0.00091374653 0.13806644)
(0 0.0046241478 0.39067072)
(0 0.013781729 0.53597593)
(0 0.017583951 0.57234315)
(0 0.017413195 0.56232197)
(0 0.01632753 0.54828366)
(0 0.01530411 0.53941157)
(0 0.014330647 0.53364736)
(0 0.013316909 0.52928478)
(0 0.012255269 0.52579066)
(0 0.011167274 0.52296169)
(0 0.010064963 0.52065945)
(0 0.0089578455 0.51878028)
(0 0.0078527249 0.51724743)
(0 0.0067540088 0.51600362)
(0 0.0056644017 0.51500573)
(0 0.0045851924 0.51422121)
(0 0.003516625 0.51362577)
(0 0.0024581993 0.51320179)
(0 0.0014089238 0.51293725)
(0 0.00036754424 0.51282508)
(0 -0.00066723579 0.51286276)
(0 -0.001696573 0.51305226)
(0 -0.0027212489 0.51340012)
(0 -0.0037414611 0.51391789)
(0 -0.004756543 0.51462282)
(0 -0.0057646666 0.51553901)
(0 -0.0067624404 0.51669912)
(0 -0.007744532 0.51814699)
(0 -0.008703072 0.51994155)
(0 -0.0096268397 0.52216264)
(0 -0.010501798 0.52491842)
(0 -0.011305209 0.52836272)
(0 -0.01202587 0.53283249)
(0 -0.01268832 0.53939822)
(0 -0.01327569 0.54984559)
(0 -0.013282066 0.55924119)
(0 -0.010361206 0.53470326)
(0 -0.0034643325 0.41102418)
(0 0.0017992251 0.15735256)
(0 -0.0006901677 0.13712337)
(0 0.0032063665 0.3846587)
(0 0.011461091 0.53029224)
(0 0.015502524 0.57036493)
(0 0.015911057 0.56270697)
(0 0.015165029 0.54918497)
(0 0.014351902 0.54029789)
(0 0.013555379 0.53455486)
(0 0.012691504 0.53025052)
(0 0.011754087 0.52680528)
(0 0.010766935 0.52400863)
(0 0.0097453226 0.52172569)
(0 0.0087019434 0.51985624)
(0 0.0076462893 0.51832613)
(0 0.006585213 0.51708025)
(0 0.0055236265 0.51607718)
(0 0.0044648126 0.51528569)
(0 0.0034108383 0.51468247)
(0 0.0023628872 0.51425059)
(0 0.0013215501 0.51397845)
(0 0.00028709257 0.51385916)
(0 -0.0007402896 0.51389016)
(0 -0.001760241 0.51407312)
(0 -0.0027719854 0.51441409)
(0 -0.0037740656 0.51492381)
(0 -0.0047640266 0.51561843)
(0 -0.0057380781 0.51652058)
(0 -0.0066906485 0.51766105)
(0 -0.0076139678 0.51908125)
(0 -0.008497452 0.52083714)
(0 -0.0093267641 0.52300476)
(0 -0.010084642 0.52568789)
(0 -0.010744935 0.52904016)
(0 -0.011293947 0.53342103)
(0 -0.011756502 0.53990942)
(0 -0.012060278 0.54992856)
(0 -0.011628737 0.55750005)
(0 -0.0084323028 0.5298254)
(0 -0.0019861426 0.40558139)
(0 0.0015244889 0.15689647)
(0 -0.00047445201 0.1366695)
(0 0.002139387 0.37984738)
(0 0.0095231209 0.52496756)
(0 0.013695203 0.56805164)
(0 0.014591366 0.56268754)
(0 0.014151334 0.54982173)
(0 0.013530079 0.54099807)
(0 0.01288935 0.5353082)
(0 0.012154926 0.53108706)
(0 0.011323449 0.52771441)
(0 0.010420856 0.5249708)
(0 0.0094656491 0.52272476)
(0 0.0084735928 0.52087984)
(0 0.0074566427 0.51936484)
(0 0.0064238564 0.51812703)
(0 0.0053821006 0.51712694)
(0 0.0043364024 0.51633484)
(0 0.0032904141 0.51572855)
(0 0.0022467777 0.51529194)
(0 0.0012074507 0.51501392)
(0 0.00017400858 0.5148878)
(0 -0.00085207169 0.51491099)
(0 -0.0018691423 0.51508486)
(0 -0.0028751014 0.51541486)
(0 -0.0038670922 0.51591084)
(0 -0.004841153 0.51658772)
(0 -0.0057918443 0.51746647)
(0 -0.0067117567 0.51857575)
(0 -0.0075910479 0.51995433)
(0 -0.0084168188 0.52165486)
(0 -0.0091719193 0.52374926)
(0 -0.009836233 0.52633679)
(0 -0.010380742 0.52957194)
(0 -0.01078782 0.53383468)
(0 -0.011082121 0.54019277)
(0 -0.011142563 0.54968836)
(0 -0.010341329 0.55545254)
(0 -0.0069765872 0.52513714)
(0 -0.00097864005 0.40108585)
(0 0.0011577413 0.15689958)
(0 -0.00028046938 0.13654419)
(0 0.0013908944 0.37604412)
(0 0.0079966451 0.51999096)
(0 0.012252049 0.56548798)
(0 0.013564204 0.56232367)
(0 0.013398416 0.55022183)
(0 0.012948412 0.54153406)
(0 0.012438127 0.53592997)
(0 0.011807564 0.53181629)
(0 0.011058217 0.52853823)
(0 0.01021836 0.52586641)
(0 0.0093099356 0.52367288)
(0 0.0083516793 0.52186546)
(0 0.0073577768 0.52037627)
(0 0.0063392278 0.51915531)
(0 0.0053045608 0.51816524)
(0 0.0042602571 0.51737804)
(0 0.003211273 0.5167728)
(0 0.0021614398 0.51633428)
(0 0.0011138218 0.51605197)
(0 7.1046024e-05 0.51591945)
(0 -0.00096439043 0.51593408)
(0 -0.0019898227 0.51609693)
(0 -0.0030021168 0.51641281)
(0 -0.0039973411 0.51689061)
(0 -0.0049703897 0.51754388)
(0 -0.0059145797 0.51839181)
(0 -0.0068211182 0.51946075)
(0 -0.0076785715 0.52078653)
(0 -0.0084722655 0.52241823)
(0 -0.0091827062 0.52442322)
(0 -0.0097872179 0.52689597)
(0 -0.010254694 0.52999245)
(0 -0.010561473 0.53410981)
(0 -0.010727064 0.54028567)
(0 -0.010584331 0.54917751)
(0 -0.0094547447 0.55316779)
(0 -0.0059595326 0.52062505)
(0 -0.0003768608 0.39734441)
(0 0.00078338091 0.15711174)
(0 -0.00011715221 0.13660704)
(0 0.00092987599 0.37303414)
(0 0.0068802638 0.5152979)
(0 0.011237675 0.56270903)
(0 0.012931319 0.56165356)
(0 0.013022002 0.55041104)
(0 0.012721916 0.54193184)
(0 0.01231155 0.53644838)
(0 0.011754027 0.53246603)
(0 0.011058216 0.52930261)
(0 0.010255063 0.52671897)
(0 0.0093701443 0.52459122)
(0 0.0084249112 0.5228321)
(0 0.007435451 0.52137756)
(0 0.006414358 0.52018063)
(0 0.005371458 0.51920639)
(0 0.0043143429 0.51842866)
(0 0.0032489512 0.51782795)
(0 0.0021799992 0.51739)
(0 0.0011113687 0.51710494)
(0 4.6454121e-05 0.51696665)
(0 -0.0010115166 0.5169725)
(0 -0.002059165 0.51712322)
(0 -0.0030926527 0.517423)
(0 -0.0041073394 0.5178797)
(0 -0.0050973897 0.51850547)
(0 -0.0060553514 0.51931762)
(0 -0.0069715966 0.52034004)
(0 -0.0078336991 0.52160544)
(0 -0.0086258901 0.52315901)
(0 -0.0093270702 0.52506318)
(0 -0.0099123773 0.52740711)
(0 -0.010349519 0.53034781)
(0 -0.010606833 0.5342936)
(0 -0.01068792 0.54022849)
(0 -0.010374637 0.54842687)
(0 -0.0089304153 0.55066529)
(0 -0.0052854418 0.51623885)
(0 -8.2704627e-05 0.39419065)
(0 0.00045682808 0.15734984)
(0 1.1808863e-05 0.13673875)
(0 0.00071481933 0.37060406)
(0 0.0061226246 0.5107961)
(0 0.010644105 0.55969647)
(0 0.012724533 0.56068011)
(0 0.013076893 0.55040528)
(0 0.012909382 0.5422194)
(0 0.012566729 0.53689626)
(0 0.012049892 0.53306824)
(0 0.011378293 0.5300366)
(0 0.010585931 0.52755442)
(0 0.0097019247 0.52550283)
(0 0.0087499531 0.52380027)
(0 0.0077475643 0.52238707)
(0 0.0067085054 0.52121963)
(0 0.0056434782 0.52026566)
(0 0.004560812 0.519501)
(0 0.0034670902 0.51890763)
(0 0.0023676075 0.51847237)
(0 0.0012667789 0.51818603)
(0 0.00016849252 0.51804284)
(0 -0.00092356835 0.5180402)
(0 -0.0020055978 0.51817855)
(0 -0.0030733635 0.51846144)
(0 -0.0041218645 0.51889575)
(0 -0.0051449364 0.51949221)
(0 -0.0061348202 0.52026623)
(0 -0.0070816034 0.52123919)
(0 -0.0079724937 0.52244056)
(0 -0.0087913223 0.52391136)
(0 -0.009516278 0.52570878)
(0 -0.010120799 0.52791598)
(0 -0.010572016 0.53068889)
(0 -0.010828739 0.53443648)
(0 -0.010864285 0.54005771)
(0 -0.01039909 0.54744578)
(0 -0.0086398884 0.54793162)
(0 -0.0048103132 0.51192798)
(0 9.2144923e-06 0.39149275)
(0 0.00020072199 0.1575093)
(0 0.00010647531 0.13684897)
(0 0.00068712108 0.36857133)
(0 0.0056208101 0.5064071)
(0 0.010361142 0.55640084)
(0 0.012854295 0.5593729)
(0 0.013495433 0.55020384)
(0 0.013454146 0.54241987)
(0 0.013154134 0.53730497)
(0 0.012652076 0.53365289)
(0 0.011982027 0.53076639)
(0 0.011181558 0.52839531)
(0 0.010282902 0.52642706)
(0 0.0093113442 0.5247866)
(0 0.0082854251 0.52341923)
(0 0.0072195873 0.52228501)
(0 0.0061250078 0.52135443)
(0 0.0050104142 0.52060543)
(0 0.0038827402 0.52002155)
(0 0.0027476022 0.51959072)
(0 0.0016097169 0.51930445)
(0 0.00047325138 0.51915737)
(0 -0.00065786575 0.51914694)
(0 -0.0017796182 0.51927334)
(0 -0.0028876094 0.51953953)
(0 -0.0039767356 0.51995148)
(0 -0.005040801 0.52051855)
(0 -0.0060720857 0.52125428)
(0 -0.0070608066 0.52217759)
(0 -0.0079942978 0.5233147)
(0 -0.0088564992 0.52470225)
(0 -0.0096256391 0.52639188)
(0 -0.010273909 0.52845995)
(0 -0.010767754 0.53105737)
(0 -0.011055307 0.53457771)
(0 -0.011066815 0.53979683)
(0 -0.010454105 0.54623235)
(0 -0.0083914836 0.54495683)
(0 -0.0043814908 0.50768462)
(0 -9.1343303e-06 0.38915621)
(0 2.4823323e-05 0.15755784)
(0 0.00016774031 0.13688522)
(0 0.00077365145 0.36680687)
(0 0.0052450579 0.50210763)
(0 0.010193274 0.55278747)
(0 0.01310832 0.55769045)
(0 0.014072427 0.54978879)
(0 0.014166854 0.54254212)
(0 0.013902099 0.53769401)
(0 0.013404972 0.53423869)
(0 0.012728754 0.53150712)
(0 0.011915405 0.52925342)
(0 0.010999724 0.52737289)
(0 0.010008085 0.52579783)
(0 0.0089596867 0.52447896)
(0 0.0078693372 0.52338026)
(0 0.0067484195 0.52247509)
(0 0.0056058417 0.52174354)
(0 0.0044487053 0.52117073)
(0 0.0032827974 0.52074568)
(0 0.0021130071 0.52046065)
(0 0.0009436664 0.52031067)
(0 -0.00022115194 0.52029328)
(0 -0.0013773269 0.52040846)
(0 -0.0025203987 0.52065866)
(0 -0.0036452717 0.52104897)
(0 -0.0047458448 0.5215875)
(0 -0.0058145784 0.52228603)
(0 -0.0068419824 0.52316109)
(0 -0.0078157307 0.52423564)
(0 -0.0087200334 0.52554188)
(0 -0.009533478 0.52712551)
(0 -0.010227222 0.52905517)
(0 -0.010766121 0.53147112)
(0 -0.011087034 0.53473155)
(0 -0.011071849 0.53945166)
(0 -0.010309625 0.54479245)
(0 -0.0079923313 0.5417755)
(0 -0.0038879023 0.50357619)
(0 -6.0180861e-05 0.38713801)
(0 -6.4606286e-05 0.15750488)
(0 0.00019801242 0.1368347)
(0 0.00089911307 0.36524499)
(0 0.0048794033 0.49795116)
(0 0.0099240235 0.54888586)
(0 0.013214389 0.55561618)
(0 0.01451818 0.54913456)
(0 0.014770922 0.54257486)
(0 0.014557333 0.53806147)
(0 0.014077456 0.53482455)
(0 0.013407332 0.53225583)
(0 0.012594365 0.53012396)
(0 0.011675553 0.52833408)
(0 0.010678178 0.52682656)
(0 0.0096220291 0.52555795)
(0 0.0085221911 0.52449634)
(0 0.007390207 0.52361804)
(0 0.0062351307 0.52290529)
(0 0.005064209 0.52234475)
(0 0.0038833894 0.52192658)
(0 0.0026977319 0.52164373)
(0 0.0015117407 0.52149166)
(0 0.00032965238 0.52146802)
(0 -0.00084428211 0.52157263)
(0 -0.0020055055 0.52180746)
(0 -0.0031488784 0.52217682)
(0 -0.0042683318 0.52268766)
(0 -0.0053564264 0.52335008)
(0 -0.0064038519 0.5241783)
(0 -0.0073985138 0.52519208)
(0 -0.0083246929 0.52641901)
(0 -0.0091611499 0.52789844)
(0 -0.0098779331 0.52969008)
(0 -0.010437056 0.53191726)
(0 -0.01076465 0.53488295)
(0 -0.010700069 0.53901494)
(0 -0.0097928724 0.54315838)
(0 -0.0073155566 0.53848779)
(0 -0.0032830655 0.49973652)
(0 -9.4733812e-05 0.38544799)
(0 -9.1929029e-05 0.1573875)
(0 0.00020296991 0.13671627)
(0 0.0010035419 0.363874)
(0 0.0044564234 0.49405592)
(0 0.0093965122 0.54481522)
(0 0.012940724 0.55319084)
(0 0.014560264 0.54822611)
(0 0.014995213 0.54249016)
(0 0.014867425 0.53838182)
(0 0.014437308 0.53538704)
(0 0.013803854 0.53298977)
(0 0.013020699 0.53098452)
(0 0.012126986 0.52928857)
(0 0.011151058 0.52785105)
(0 0.010113488 0.52663473)
(0 0.0090298141 0.52561197)
(0 0.0079119114 0.5247621)
(0 0.0067691271 0.52406954)
(0 0.0056089853 0.52352251)
(0 0.0044377148 0.52311221)
(0 0.0032606604 0.52283235)
(0 0.0020826113 0.52267879)
(0 0.00090808604 0.52264931)
(0 -0.00025840131 0.52274358)
(0 -0.0014120577 0.52296317)
(0 -0.0025475261 0.52331163)
(0 -0.003658567 0.52379479)
(0 -0.0047376006 0.52442117)
(0 -0.0057751934 0.52520268)
(0 -0.0067591499 0.52615586)
(0 -0.0076734198 0.52730355)
(0 -0.008496455 0.52867822)
(0 -0.0091970387 0.53032928)
(0 -0.0097335812 0.53235759)
(0 -0.010023847 0.5349962)
(0 -0.0098808422 0.53847805)
(0 -0.0088516365 0.54139635)
(0 -0.0063448508 0.53524794)
(0 -0.0025905724 0.49631867)
(0 -9.1881788e-05 0.38410144)
(0 -8.3487153e-05 0.15725439)
(0 0.00019084749 0.13656579)
(0 0.0010551514 0.36271027)
(0 0.0039692043 0.49056372)
(0 0.0085677179 0.54076973)
(0 0.012182187 0.55052337)
(0 0.014043386 0.54707702)
(0 0.014669703 0.54225689)
(0 0.014666852 0.53861439)
(0 0.014328478 0.53588665)