/*--------------------------------*- C++ -*----------------------------------*\
  =========                 |
  \\      /  F ield         | OpenFOAM: The Open Source CFD Toolbox
   \\    /   O peration     | Website:  https://openfoam.org
    \\  /    A nd           | Version:  10
     \\/     M anipulation  |
\*---------------------------------------------------------------------------*/
FoamFile
{
    format      ascii;
    class       surfaceScalarField;
    location    "0.25";
    object      phi;
}
// * * * * * * * * * * * * * * * * * * * * * * * * * * * * * * * * * * * * * //

dimensions      [1 0 -1 0 0 0 0];

internalField   nonuniform List<scalar> 
7860
(
3.9895991e-08
5.2881204e-07
1.2192739e-08
5.9641106e-07
7.4279205e-09
5.7347257e-07
5.4994426e-09
5.7063619e-07
4.11502e-09
5.700921e-07
3.2011647e-09
5.6962151e-07
2.5591673e-09
5.6934963e-07
2.0793346e-09
5.6918746e-07
1.7093381e-09
5.6907761e-07
1.4166545e-09
5.6900029e-07
1.1794884e-09
5.6894476e-07
9.8307694e-10
5.68904e-07
8.1707672e-10
5.6887358e-07
6.7399756e-10
5.6885066e-07
5.4826642e-10
5.688333e-07
4.3562279e-10
5.6882021e-07
3.3271314e-10
5.6881048e-07
2.3681035e-10
5.6880347e-07
1.4561163e-10
5.6879876e-07
5.7086062e-11
5.6879609e-07
-3.0648878e-11
5.687953e-07
-1.1943534e-10
5.6879635e-07
-2.1117942e-10
5.6879931e-07
-3.0795837e-10
5.6880434e-07
-4.1215275e-10
5.6881176e-07
-5.2660931e-10
5.6882203e-07
-6.5486172e-10
5.6883582e-07
-8.014436e-10
5.6885416e-07
-9.7234895e-10
5.6887849e-07
-1.1757389e-09
5.6891098e-07
-1.4231147e-09
5.6895497e-07
-1.7312876e-09
5.6901577e-07
-2.1252355e-09
5.6910156e-07
-2.6448398e-09
5.6922723e-07
-3.3725142e-09
5.6943531e-07
-4.4638086e-09
5.6979895e-07
-6.0091263e-09
5.70253e-07
-9.5081164e-09
5.722067e-07
-2.9575955e-08
5.887756e-07
5.3913197e-07
5.9672529e-08
4.6913952e-07
3.6666006e-08
6.1941758e-07
2.2628191e-08
5.8751038e-07
1.6253606e-08
5.7701077e-07
1.2290546e-08
5.7405516e-07
9.6062944e-09
5.7230576e-07
7.6775099e-09
5.7127842e-07
6.2361571e-09
5.7062881e-07
5.1266396e-09
5.7018713e-07
4.2488851e-09
5.6987804e-07
3.5375591e-09
5.6965609e-07
2.9484928e-09
5.6949306e-07
2.4506411e-09
5.6937143e-07
2.0215288e-09
5.6927977e-07
1.6444416e-09
5.6921039e-07
1.3066021e-09
5.6915805e-07
9.9795336e-10
5.6911913e-07
7.1031709e-10
5.690911e-07
4.3678781e-10
5.6907229e-07
1.7127401e-10
5.690616e-07
-9.1870335e-11
5.6905844e-07
-3.5816827e-10
5.6906265e-07
-6.3333169e-10
5.6907447e-07
-9.235927e-10
5.6909461e-07
-1.2360901e-09
5.6912426e-07
-1.5793609e-09
5.691653e-07
-1.9640018e-09
5.6922047e-07
-2.4036087e-09
5.6929376e-07
-2.9161643e-09
5.6939104e-07
-3.5261609e-09
5.6952097e-07
-4.2680168e-09
5.6969682e-07
-5.1920971e-09
5.6993985e-07
-6.3750258e-09
5.7028449e-07
-7.9355192e-09
5.7078772e-07
-1.0076799e-08
5.7157659e-07
-1.3204988e-08
5.7292714e-07
-1.8134852e-08
5.7518286e-07
-2.8177081e-08
5.8224893e-07
-4.580299e-08
6.0640151e-07
4.9332898e-07
6.0008852e-08
4.0913066e-07
5.0487306e-08
6.2893912e-07
3.3370715e-08
6.0462697e-07
2.4817733e-08
5.8556375e-07
1.9323318e-08
5.7954958e-07
1.5331583e-08
5.762975e-07
1.2360815e-08
5.7424919e-07
1.0101659e-08
5.7288796e-07
8.3407396e-09
5.7194804e-07
6.9349358e-09
5.7128384e-07
5.788169e-09
5.7080285e-07
4.8336745e-09
5.7044756e-07
4.0236879e-09
5.7018142e-07
3.3232238e-09
5.6998023e-07
2.7060187e-09
5.698276e-07
2.1518406e-09
5.6971223e-07
1.6446644e-09
5.696263e-07
1.1713909e-09
5.6956438e-07
7.2091309e-10
5.6952277e-07
2.8340315e-10
5.6949911e-07
-1.502652e-10
5.6949211e-07
-5.8902259e-10
5.6950141e-07
-1.0420972e-09
5.6952755e-07
-1.5195352e-09
5.6957204e-07
-2.032803e-09
5.6963753e-07
-2.5955472e-09
5.6972804e-07
-3.2246061e-09
5.6984952e-07
-3.9414205e-09
5.7001058e-07
-4.7740843e-09
5.7022371e-07
-5.7604073e-09
5.705073e-07
-6.952574e-09
5.7088899e-07
-8.424782e-09
5.7141206e-07
-1.0286429e-08
5.7214613e-07
-1.2699385e-08
5.7320068e-07
-1.5896808e-08
5.7477401e-07
-2.0240581e-08
5.7727091e-07
-2.6708847e-08
5.8165113e-07
-3.8948328e-08
5.9448841e-07
-4.8167454e-08
6.1562063e-07
4.4516153e-07
5.4879082e-08
3.5425158e-07
5.745223e-08
6.2636598e-07
4.0467605e-08
6.216116e-07
3.0778826e-08
5.9525253e-07
2.4643131e-08
5.8568527e-07
1.9952387e-08
5.8098824e-07
1.6313043e-08
5.7788853e-07
1.3466642e-08
5.7573437e-07
1.120107e-08
5.7421362e-07
9.3646221e-09
5.7312029e-07
7.8494142e-09
5.7231806e-07
6.5769585e-09
5.7172001e-07
5.4894092e-09
5.7126897e-07
4.5434544e-09
5.7092619e-07
3.7059998e-09
5.7066505e-07
2.9511888e-09
5.7046704e-07
2.2583046e-09
5.7031919e-07
1.6102523e-09
5.7021243e-07
9.9242741e-10
5.7014059e-07
3.91836e-10
5.700997e-07
-2.0362869e-10
5.7008758e-07
-8.058263e-10
5.701036e-07
-1.4269905e-09
5.7014871e-07
-2.0803832e-09
5.7022544e-07
-2.7810455e-09
5.7033819e-07
-3.5467254e-09
5.7049372e-07
-4.3990848e-09
5.7070188e-07
-5.365333e-09
5.7097683e-07
-6.4805065e-09
5.7133888e-07
-7.79073e-09
5.7181752e-07
-9.3577829e-09
5.7245604e-07
-1.1265485e-08
5.7331976e-07
-1.36301e-08
5.7451075e-07
-1.661297e-08
5.7618355e-07
-2.0411867e-08
5.7857291e-07
-2.5293463e-08
5.8215251e-07
-3.2517706e-08
5.8887537e-07
-4.5101305e-08
6.0707201e-07
-4.6549605e-08
6.1706893e-07
3.9861192e-07
4.7965799e-08
3.0628579e-07
6.0076596e-08
6.1425518e-07
4.5400227e-08
6.3628797e-07
3.4875439e-08
6.0577732e-07
2.8399947e-08
5.9216076e-07
2.3419713e-08
5.8596847e-07
1.9434395e-08
5.8187385e-07
1.6229257e-08
5.789395e-07
1.3619782e-08
5.7682309e-07
1.1466565e-08
5.7527351e-07
9.6644804e-09
5.7412014e-07
8.1334884e-09
5.7325101e-07
6.8125667e-09
5.7258989e-07
5.6547035e-09
5.7208405e-07
4.6231243e-09
5.7169663e-07
3.6885435e-09
5.7140162e-07
2.827123e-09
5.7118061e-07
2.0189341e-09
5.7102062e-07
1.2467727e-09
5.7091276e-07
4.9521426e-10
5.7085126e-07
-2.5017946e-10
5.7083297e-07
-1.0035699e-09
5.7085699e-07
-1.7795327e-09
5.7092467e-07
-2.5937794e-09
5.7103968e-07
-3.4639745e-09
5.7120838e-07
-4.4107181e-09
5.7144046e-07
-5.458787e-09
5.7174995e-07
-6.6387432e-09
5.7215678e-07
-7.9890616e-09
5.726892e-07
-9.559003e-09
5.7338746e-07
-1.141239e-08
5.7430943e-07
-1.3632033e-08
5.7553941e-07
-1.6326232e-08
5.7720495e-07
-1.9638588e-08
5.794959e-07
-2.3739362e-08
5.8267368e-07
-2.8931473e-08
5.8734462e-07
-3.6791734e-08
5.9673563e-07
-4.8464317e-08
6.187446e-07
-4.3194527e-08
6.1179914e-07
3.554174e-07
4.0336095e-08
2.6594969e-07
5.8994197e-08
5.9559708e-07
4.8330223e-08
6.4695194e-07
3.7588219e-08
6.1651932e-07
3.0929039e-08
5.9881994e-07
2.5894159e-08
5.9100335e-07
2.1780173e-08
5.8598783e-07
1.839223e-08
5.8232745e-07
1.5577672e-08
5.7963765e-07
1.3214452e-08
5.7763673e-07
1.1206632e-08
5.7612796e-07
9.4789192e-09
5.7497872e-07
7.9721733e-09
5.7409664e-07
6.6394907e-09
5.7341673e-07
5.4432452e-09
5.7289287e-07
4.3528203e-09
5.7249205e-07
3.3428288e-09
5.721906e-07
2.3917137e-09
5.7197173e-07
1.4806301e-09
5.7182384e-07
5.9252516e-10
5.7173937e-07
-2.8865318e-10
5.7171415e-07
-1.1786727e-09
5.7174701e-07
-2.0937204e-09
5.7183972e-07
-3.0511298e-09
5.7199709e-07
-4.0701878e-09
5.7222744e-07
-5.1730803e-09
5.7254336e-07
-6.386044e-09
5.7296292e-07
-7.740801e-09
5.7351154e-07
-9.2763566e-09
5.7422475e-07
-1.1041307e-08
5.7515241e-07
-1.3096871e-08
5.7636499e-07
-1.5520314e-08
5.7796285e-07
-1.8409034e-08
5.8009367e-07
-2.1887205e-08
5.8297407e-07
-2.6110609e-08
5.8689709e-07
-3.1488772e-08
5.9272278e-07
-3.9655102e-08
6.0490196e-07
-4.9172874e-08
6.2826237e-07
-3.8578737e-08
6.01205e-07
3.1683866e-07
3.2862753e-08
2.3308695e-07
5.5250141e-08
5.7320969e-07
4.923241e-08
6.5296967e-07
3.9061678e-08
6.2669005e-07
3.2430837e-08
6.0545078e-07
2.7518958e-08
5.9591523e-07
2.3438916e-08
5.9006788e-07
2.0003136e-08
5.8576323e-07
1.7095067e-08
5.8254572e-07
1.4612487e-08
5.8011931e-07
1.2471609e-08
5.7826884e-07
1.0605182e-08
5.7684514e-07
8.9589684e-09
5.7574285e-07
7.4887749e-09
5.7488693e-07
6.1582733e-09
5.7422338e-07
4.9372387e-09
5.7371308e-07
3.8001072e-09
5.7332773e-07
2.7247997e-09
5.7304704e-07
1.6917451e-09
5.7285689e-07
6.8304938e-10
5.7274806e-07
-3.182361e-10
5.7271543e-07
-1.3287894e-09
5.7275757e-07
-2.3656834e-09
5.7287661e-07
-3.4470695e-09
5.7307848e-07
-4.5929191e-09
5.7337329e-07
-5.8258704e-09
5.7377631e-07
-7.172226e-09
5.7430927e-07
-8.6631537e-09
5.7500247e-07
-1.0336136e-08
5.7589773e-07
-1.2236747e-08
5.7705302e-07
-1.442104e-08
5.7854929e-07
-1.695844e-08
5.8050025e-07
-1.9933791e-08
5.8306902e-07
-2.3447867e-08
5.8648815e-07
-2.7642089e-08
5.9109131e-07
-3.3034893e-08
5.9811558e-07
-4.1011208e-08
6.1287828e-07
-4.7688213e-08
6.3493937e-07
-3.3376342e-08
5.8689313e-07
2.8346232e-07
2.6189051e-08
2.068979e-07
5.013284e-08
5.4926591e-07
4.8493749e-08
6.5460876e-07
3.9491235e-08
6.3569257e-07
3.3077651e-08
6.1186437e-07
2.8412258e-08
6.0058062e-07
2.4493168e-08
5.9398697e-07
2.1118522e-08
5.8913787e-07
1.8207439e-08
5.854568e-07
1.5680693e-08
5.8264605e-07
1.3469146e-08
5.8048039e-07
1.1515622e-08
5.7879867e-07
9.7726061e-09
5.7748587e-07
8.2003084e-09
5.7645922e-07
6.765199e-09
5.7565849e-07
5.4387339e-09
5.7503955e-07
4.1962675e-09
5.745702e-07
3.0161291e-09
5.7422718e-07
1.8788249e-09
5.739942e-07
7.6633574e-10
5.7386055e-07
-3.3852016e-10
5.7382029e-07
-1.4526827e-09
5.7387173e-07
-2.5934427e-09
5.7401737e-07
-3.7790448e-09
5.7426408e-07
-5.0293302e-09
5.7462358e-07
-6.3664513e-09
5.7511343e-07
-7.8156841e-09
5.757585e-07
-9.4063758e-09
5.7659316e-07
-1.1173052e-08
5.7766441e-07
-1.3156686e-08
5.7903665e-07
-1.5406346e-08
5.8079895e-07
-1.7981318e-08
5.8307522e-07
-2.0951055e-08
5.8603875e-07
-2.4390745e-08
5.8992784e-07
-2.8435923e-08
5.9513649e-07
-3.3691859e-08
6.0337152e-07
-4.1063145e-08
6.2024956e-07
-4.4797667e-08
6.3867389e-07
-2.8204643e-08
5.7030011e-07
2.5525767e-07
2.0570956e-08
1.8632695e-07
4.4583334e-08
5.2525354e-07
4.6643117e-08
6.5254898e-07
3.9153388e-08
6.4318229e-07
3.3084042e-08
6.1793371e-07
2.8717879e-08
6.0494679e-07
2.503845e-08
5.976664e-07
2.1804136e-08
5.9237219e-07
1.8959621e-08
5.8830131e-07
1.6448853e-08
5.8515682e-07
1.4218334e-08
5.8271091e-07
1.2221883e-08
5.8079512e-07
1.041972e-08
5.7928803e-07
8.7774887e-09
5.7810145e-07
7.2654364e-09
5.7717054e-07
5.8575971e-09
5.7644739e-07
4.5310544e-09
5.7589674e-07
3.2652746e-09
5.7549296e-07
2.0415005e-09
5.7521797e-07
8.421941e-10
5.7505986e-07
-3.4948367e-10
5.7501197e-07
-1.5501688e-09
5.7507241e-07
-2.7767918e-09
5.75244e-07
-4.0470786e-09
5.7553437e-07
-5.3800755e-09
5.7595657e-07
-6.7967149e-09
5.7653007e-07
-8.3204322e-09
5.7728222e-07
-9.9778515e-09
5.7825058e-07
-1.1799552e-08
5.7948611e-07
-1.3820861e-08
5.8105796e-07
-1.6082768e-08
5.8306086e-07
-1.8633123e-08
5.8562558e-07
-2.152503e-08
5.8893066e-07
-2.4812507e-08
5.9321531e-07
-2.8641779e-08
5.9896576e-07
-3.3660206e-08
6.0838995e-07
-4.0144232e-08
6.2673359e-07
-4.1159296e-08
6.3968896e-07
-2.3417016e-08
5.5255783e-07
2.3184066e-07
1.6015528e-08
1.7031143e-07
3.9144049e-08
5.0212504e-07
4.4118752e-08
6.4757428e-07
3.8289858e-08
6.4901119e-07
3.2654142e-08
6.2356943e-07
2.8591879e-08
6.0900905e-07
2.5183934e-08
6.0107434e-07
2.2136349e-08
5.9541977e-07
1.9405234e-08
5.9103243e-07
1.6954532e-08
5.8760752e-07
1.4745264e-08
5.8492018e-07
1.2741834e-08
5.8279855e-07
1.091233e-08
5.8111753e-07
9.228232e-09
5.7978555e-07
7.6640652e-09
5.787347e-07
6.1969834e-09
5.7791447e-07
4.8063406e-09
5.7728738e-07
3.473264e-09
5.7682604e-07
2.180233e-09
5.76511e-07
9.1067076e-10
5.7632942e-07
-3.5145273e-10
5.7627409e-07
-1.6220073e-09
5.7634297e-07
-2.9170946e-09
5.7653908e-07
-4.2534386e-09
5.7687071e-07
-5.6487849e-09
5.7735192e-07
-7.1223154e-09
5.780036e-07
-8.6950756e-09
5.7885498e-07
-1.0390413e-08
5.7994592e-07
-1.2234433e-08
5.8133013e-07
-1.4256419e-08
5.8307995e-07
-1.6489195e-08
5.8529363e-07
-1.8969513e-08
5.8810589e-07
-2.1735512e-08
5.9169666e-07
-2.4827666e-08
5.9630747e-07
-2.8414866e-08
6.0255296e-07
-3.3124302e-08
6.1309938e-07
-3.8549395e-08
6.3215868e-07
-3.7215595e-08
6.3835516e-07
-1.9182861e-08
5.3452509e-07
2.126578e-07
1.2423805e-08
1.5788764e-07
3.4114086e-08
4.8043477e-07
4.1249867e-08
6.4043851e-07
3.7078803e-08
6.5318225e-07
3.1942084e-08
6.2870615e-07
2.8168983e-08
6.1278215e-07
2.5033255e-08
6.0421007e-07
2.2192411e-08
5.9826061e-07
1.9601381e-08
5.9362346e-07
1.723958e-08
5.8996932e-07
1.5080376e-08
5.8707938e-07
1.3097456e-08
5.8478147e-07
1.1266181e-08
5.8294881e-07
9.5636971e-09
5.8148804e-07
7.9688869e-09
5.8032951e-07
6.462238e-09
5.7942112e-07
5.0256655e-09
5.7872395e-07
3.6422842e-09
5.7820942e-07
2.2961526e-09
5.7785713e-07
9.7200264e-10
5.7765357e-07
-3.4503719e-10
5.7759113e-07
-1.6697209e-09
5.7766765e-07
-3.0169709e-09
5.7788633e-07
-4.4021588e-09
5.782559e-07
-5.8413838e-09
5.7879114e-07
-7.3517464e-09
5.7951396e-07
-8.9516076e-09
5.8045484e-07
-1.0660821e-08
5.8165513e-07
-1.2500943e-08
5.8317025e-07
-1.4495393e-08
5.850744e-07
-1.6669483e-08
5.8746772e-07
-1.9050104e-08
5.9048651e-07
-2.1662749e-08
5.943093e-07
-2.4541614e-08
5.9918633e-07
-2.7881249e-08
6.0589259e-07
-3.2226837e-08
6.1744497e-07
-3.6520771e-08
6.3645261e-07
-3.3267836e-08
6.3510222e-07
-1.5563859e-08
5.1682112e-07
1.9709394e-07
9.6571696e-09
1.4823048e-07
2.9645756e-08
4.6044621e-07
3.8283113e-08
6.3180116e-07
3.5658388e-08
6.5580697e-07
3.1059047e-08
6.3330549e-07
2.7553558e-08
6.1628764e-07
2.4672981e-08
6.0709065e-07
2.2041094e-08
6.008925e-07
1.9601928e-08
5.9606262e-07
1.7345512e-08
5.9222574e-07
1.5255233e-08
5.8916966e-07
1.3312507e-08
5.8672419e-07
1.1499e-08
5.8476231e-07
9.7969833e-09
5.8319005e-07
8.1894525e-09
5.8193704e-07
6.6601848e-09
5.8095038e-07
5.1937333e-09
5.801904e-07
3.775352e-09
5.796278e-07
2.3908749e-09
5.7924161e-07
1.0265648e-09
5.7901788e-07
-3.3105751e-10
5.7894875e-07
-1.6953917e-09
5.7903198e-07
-3.0799464e-09
5.7927089e-07
-4.4985187e-09
5.7967447e-07
-5.9653648e-09
5.8025799e-07
-7.4953515e-09
5.8104395e-07
-9.1040801e-09
5.8206357e-07
-1.0807962e-08
5.8335901e-07
-1.2624247e-08
5.8498654e-07
-1.4571018e-08
5.8702117e-07
-1.6667013e-08
5.8956372e-07
-1.8930712e-08
5.9275021e-07
-2.1377623e-08
5.9675621e-07
-2.4041878e-08
6.0185059e-07
-2.7139791e-08
6.0899051e-07
-3.1085969e-08
6.2139115e-07
-3.4262493e-08
6.3962914e-07
-2.9521165e-08
6.3036089e-07
-1.255537e-08
4.9985532e-07
1.8453857e-07
7.5667983e-09
1.406637e-07
2.5786721e-08
4.4222632e-07
3.538935e-08
6.2219855e-07
3.4138468e-08
6.5705786e-07
3.0088018e-08
6.3735593e-07
2.6825591e-08
6.1955006e-07
2.4172793e-08
6.0974344e-07
2.1740174e-08
6.0332512e-07
1.9454155e-08
5.9834864e-07
1.7310382e-08
5.9436951e-07
1.5299974e-08
5.9118007e-07
1.3410549e-08
5.8861362e-07
1.1628988e-08
5.8654387e-07
9.9419764e-09
5.8487706e-07
8.3361936e-09
5.8354283e-07
6.7984836e-09
5.8248809e-07
5.3159541e-09
5.8167293e-07
3.8760093e-09
5.8106774e-07
2.4663308e-09
5.8065129e-07
1.0748216e-09
5.8040939e-07
-3.1047497e-10
5.8033405e-07
-1.7014686e-09
5.8042298e-07
-3.1101248e-09
5.8067954e-07
-4.5485578e-09
5.811129e-07
-6.0291105e-09
5.8173854e-07
-7.5644087e-09
5.8257924e-07
-9.1673803e-09
5.8366654e-07
-1.085122e-08
5.8504285e-07
-1.2629301e-08
5.8676462e-07
-1.4515051e-08
5.8890692e-07
-1.6521658e-08
5.9157032e-07
-1.8660719e-08
5.9488927e-07
-2.0940739e-08
5.9903624e-07
-2.3400899e-08
6.0431075e-07
-2.6270855e-08
6.1186046e-07
-2.9802764e-08
6.2492306e-07
-3.1936209e-08
6.4176258e-07
-2.6097929e-08
6.2452261e-07
-1.0110749e-08
4.8386814e-07
1.7442782e-07
6.0121179e-09
1.346516e-07
2.2515202e-08
4.2572327e-07
3.2670435e-08
6.1204334e-07
3.2599484e-08
6.5712881e-07
2.9089088e-08
6.4086633e-07
2.6045249e-08
6.225939e-07
2.3588024e-08
6.1220067e-07
2.1337228e-08
6.0557592e-07
1.9198251e-08
6.0048762e-07
1.7167628e-08
5.9640014e-07
1.5241982e-08
5.9310571e-07
1.3413678e-08
5.9044192e-07
1.1673729e-08
5.8828382e-07
1.001246e-08
5.8653833e-07
8.4197211e-09
5.8513557e-07
6.8850954e-09
5.8402272e-07
5.3980547e-09
5.8315997e-07
3.948061e-09
5.8251774e-07
2.5246178e-09
5.8207473e-07
1.1172857e-09
5.8181672e-07
-2.8432852e-10
5.8173566e-07
-1.6905964e-09
5.8182925e-07
-3.1119004e-09
5.8210085e-07
-4.5586573e-09
5.8255966e-07
-6.0413262e-09
5.8322121e-07
-7.5703895e-09
5.8410831e-07
-9.1562969e-09
5.8525245e-07
-1.0809361e-08
5.8669591e-07
-1.2539595e-08
5.8849485e-07
-1.4356543e-08
5.9072387e-07
-1.6268893e-08
5.9348267e-07
-1.8282946e-08
5.9690332e-07
-2.0403287e-08
6.0115658e-07
-2.2677696e-08
6.0658516e-07
-2.5338035e-08
6.145208e-07
-2.845782e-08
6.2804284e-07
-2.9656118e-08
6.4296088e-07
-2.3053397e-08
6.1791989e-07
-8.1615498e-09
4.6897629e-07
1.6626627e-07
4.8704246e-09
1.297812e-07
1.9772648e-08
4.108211e-07
3.0174639e-08
6.0164138e-07
3.1093779e-08
6.5620967e-07
2.8101749e-08
6.4385835e-07
2.5254821e-08
6.2544083e-07
2.2960799e-08
6.1449469e-07
2.0870305e-08
6.0766641e-07
1.8867492e-08
6.0249043e-07
1.6945808e-08
5.9832182e-07
1.5105325e-08
5.9494619e-07
1.3341851e-08
5.922054e-07
1.1649507e-08
5.8997617e-07
1.0021499e-08
5.8816634e-07
8.4503047e-09
5.8670676e-07
6.9278655e-09
5.8554516e-07
5.445764e-09
5.8464207e-07
3.9953578e-09
5.8396814e-07
2.5678761e-09
5.8350221e-07
1.1544834e-09
5.8323011e-07
-2.5367996e-10
5.8314382e-07
-1.6654699e-09
5.8324104e-07
-3.0897177e-09
5.8352509e-07
-4.5352e-09
5.8400514e-07
-6.0105948e-09
5.846966e-07
-7.5244105e-09
5.8562212e-07
-9.0848833e-09
5.8681292e-07
-1.0699834e-08
5.8831086e-07
-1.2376485e-08
5.901715e-07
-1.4121268e-08
5.9246865e-07
-1.5939409e-08
5.9530081e-07
-1.7833437e-08
5.9879735e-07
-1.9806827e-08
6.0312997e-07
-2.1917693e-08
6.0869602e-07
-2.4388075e-08
6.1699118e-07
-2.7109891e-08
6.3076466e-07
-2.7494332e-08
6.4334532e-07
-2.0396939e-08
6.108225e-07
-6.6321222e-09
4.5521148e-07
1.5963414e-07
4.0393586e-09
1.2574187e-07
1.7486582e-08
3.9737393e-07
2.7915926e-08
5.9121207e-07
2.9651983e-08
6.5447363e-07
2.7149206e-08
6.4636112e-07
2.4481499e-08
6.2810853e-07
2.2321262e-08
6.1665493e-07
2.0368479e-08
6.0961919e-07
1.8488448e-08
6.0437047e-07
1.6668551e-08
6.0014172e-07
1.4910535e-08
5.9670421e-07
1.3212542e-08
5.9390339e-07
1.1570917e-08
5.9161779e-07
9.9810499e-09
5.8975621e-07
8.4375144e-09
5.882503e-07
6.93422e-09
5.8704845e-07
5.4645747e-09
5.8611172e-07
4.0216288e-09
5.8541109e-07
2.5981926e-09
5.8492565e-07
1.1869297e-09
5.8464138e-07
-2.1956841e-10
5.8455032e-07
-1.6287177e-09
5.8465018e-07
-3.047883e-09
5.8494426e-07
-4.4843107e-09
5.8544157e-07
-5.9450497e-09
5.8615734e-07
-7.4368493e-09
5.8711392e-07
-8.9660325e-09
5.883421e-07
-1.0538342e-08
5.8988317e-07
-1.2158762e-08
5.9179192e-07
-1.3831353e-08
5.9414124e-07
-1.5558803e-08
5.9702826e-07
-1.7341239e-08
6.0057979e-07
-1.9183331e-08
6.0497206e-07
-2.1153617e-08
6.1066631e-07
-2.3452972e-08
6.1929054e-07
-2.5798739e-08
6.3311042e-07
-2.5490619e-08
6.430372e-07
-1.811003e-08
6.0344191e-07
-5.448095e-09
4.4254954e-07
1.5418605e-07
3.436244e-09
1.2230567e-07
1.5583191e-08
3.8522706e-07
2.5887681e-08
5.8090764e-07
2.8289519e-08
6.520718e-07
2.6243328e-08
6.4840731e-07
2.3741173e-08
6.3061068e-07
2.1689723e-08
6.1870637e-07
1.9852969e-08
6.1145595e-07
1.8081536e-08
6.061419e-07
1.6354762e-08
6.0186849e-07
1.4674587e-08
5.9838439e-07
1.3040603e-08
5.9553737e-07
1.145066e-08
5.9320774e-07
9.9017268e-09
5.9130514e-07
8.3899943e-09
5.8976203e-07
6.9109637e-09
5.8852748e-07
5.4595791e-09
5.875631e-07
4.0303614e-09
5.868403e-07
2.61753e-09
5.8633848e-07
1.2151096e-09
5.860438e-07
-1.8297516e-10
5.8594841e-07
-1.5828135e-09
5.8605002e-07
-2.9904249e-09
5.8635187e-07
-4.4116694e-09
5.8686281e-07
-5.8521485e-09
5.8759782e-07
-7.3170882e-09
5.8857886e-07
-8.811207e-09
5.8983622e-07
-1.0338569e-08
5.9141053e-07
-1.1902439e-08
5.9335579e-07
-1.3505139e-08
5.9574394e-07
-1.5147622e-08
5.9867075e-07
-1.6828777e-08
6.0226094e-07
-1.8556218e-08
6.066995e-07
-2.0407708e-08
6.125178e-07
-2.2553225e-08
6.2143605e-07
-2.4549232e-08
6.3510643e-07
-2.3661821e-08
6.4214979e-07
-1.6158695e-08
5.9593878e-07
-4.5410571e-09
4.309319e-07
1.4964499e-07
2.99645e-09
1.1930926e-07
1.3994011e-08
3.7422959e-07
2.4072049e-08
5.7082967e-07
2.7011542e-08
6.4913233e-07
2.5388506e-08
6.5003034e-07
2.304187e-08
6.3295731e-07
2.1079045e-08
6.206692e-07
1.9338655e-08
6.1319634e-07
1.7661937e-08
6.0781862e-07
1.601912e-08
6.0351131e-07
1.4411132e-08
5.9999237e-07
1.2838328e-08
5.9711018e-07
1.12995e-08
5.9474656e-07
9.7927086e-09
5.9281193e-07
8.3153452e-09
5.9123939e-07
6.8641632e-09
5.8997866e-07
5.4353673e-09
5.889919e-07
4.0247253e-09
5.8825095e-07
2.6276823e-09
5.8773552e-07
1.2394686e-09
5.8743201e-07
-1.4479821e-10
5.8733267e-07
-1.5300158e-09
5.8743524e-07
-2.9210016e-09
5.8774286e-07
-4.3223918e-09
5.882642e-07
-5.738534e-09
5.8901396e-07
-7.1733697e-09
5.900137e-07
-8.6303089e-09
5.9129316e-07
-1.0112105e-08
5.9289233e-07
-1.1620749e-08
5.9486444e-07
-1.3157366e-08
5.9728056e-07
-1.472182e-08
6.002352e-07
-1.631274e-08
6.0385186e-07
-1.7941868e-08
6.0832863e-07
-1.9694073e-08
6.1427e-07
-2.1700712e-08
6.2344269e-07
-2.3374867e-08
6.3678059e-07
-2.2009118e-08
6.4078404e-07
-1.4501898e-08
5.8843156e-07
-3.8511102e-09
4.2028112e-07
1.4579388e-07
2.6711379e-09
1.1663817e-07
1.2659298e-08
3.6424153e-07
2.2446285e-08
5.6104277e-07
2.5816697e-08
6.4576195e-07
2.4584352e-08
6.5126268e-07
2.2386308e-08
6.3515535e-07
2.0496644e-08
6.2255886e-07
1.8835516e-08
6.1485746e-07
1.7240599e-08
6.0941353e-07
1.567273e-08
6.0507917e-07
1.4130885e-08
6.0153422e-07
1.2615652e-08
5.9862541e-07
1.1126352e-08
5.9623586e-07
9.6617492e-09
5.9427653e-07
8.2200947e-09
5.9268104e-07
6.7990992e-09
5.9139966e-07
5.3959774e-09
5.9039502e-07
4.0075317e-09
5.8963939e-07
2.6302502e-09
5.891128e-07
1.2604073e-09
5.8880185e-07
-1.0583568e-10
5.8869892e-07
-1.4723315e-09
5.8880174e-07
-2.8428479e-09
5.8911337e-07
-4.2209653e-09
5.8964232e-07
-5.6099712e-09
5.9040297e-07
-7.0127497e-09
5.9141648e-07
-8.4316728e-09
5.9271208e-07
-9.8685049e-09
5.9432916e-07
-1.132434e-08
5.9632027e-07
-1.2799537e-08
5.9875575e-07
-1.4293393e-08
6.0172905e-07
-1.5805053e-08
6.0536352e-07
-1.7351057e-08
6.0987463e-07
-1.9020657e-08
6.159396e-07
-2.0900932e-08
6.2532297e-07
-2.2280785e-08
6.3816044e-07
-2.0523816e-08
6.3902707e-07
-1.3097134e-08
5.8100488e-07
-3.3278483e-09
4.1051183e-07
1.4246603e-07
2.4245672e-09
1.1421367e-07
1.1529139e-08
3.5513709e-07
2.0986838e-08
5.5158518e-07
2.4700004e-08
6.4204882e-07
2.3827698e-08
6.5213499e-07
2.1773785e-08
6.3720926e-07
1.9946058e-08
6.2438659e-07
1.8349841e-08
6.1645368e-07
1.6825139e-08
6.1093824e-07
1.5323772e-08
6.0658054e-07
1.3842061e-08
6.0301593e-07
1.2380435e-08
6.0008703e-07
1.0938443e-08
5.9767785e-07
9.5152641e-09
5.9569971e-07
8.1097333e-09
5.9408658e-07
6.7202724e-09
5.9278912e-07
5.3448876e-09
5.9177041e-07
3.981222e-09
5.9100306e-07
2.6266334e-09
5.9046739e-07
1.278282e-09
5.901502e-07
-6.6776892e-11
5.9004397e-07
-1.4114984e-09
5.9014646e-07
-2.7587538e-09
5.9046063e-07
-4.1112321e-09
5.909948e-07
-5.4713439e-09
5.9176308e-07
-6.8411243e-09
5.9278626e-07
-8.2221455e-09
5.9409311e-07
-9.6154543e-09
5.9572247e-07
-1.1021552e-08
5.9772637e-07
-1.2440367e-08
6.0017457e-07
-1.3871028e-08
6.0315972e-07
-1.5313795e-08
6.0680629e-07
-1.6790209e-08
6.1135105e-07
-1.8390885e-08
6.1754028e-07
-2.0154897e-08
6.2708698e-07
-2.1266452e-08
6.3927199e-07
-1.9191881e-08
6.369525e-07
-1.1904247e-08
5.7371725e-07
-2.930266e-09
4.0153785e-07
1.3953577e-07
2.2313579e-09
1.1198238e-07
1.0563077e-08
3.4680552e-07
1.9671645e-08
5.4247675e-07
2.3654907e-08
6.3806562e-07
2.3114073e-08
6.5267582e-07
2.1201609e-08
6.3912171e-07
1.9428194e-08
6.2616e-07
1.7885206e-08
6.1799667e-07
1.6420613e-08
6.1240283e-07
1.4978089e-08
6.0802306e-07
1.3550816e-08
6.044432e-07
1.2138768e-08
6.0149908e-07
1.0741523e-08
5.990751e-07
9.3584602e-09
5.9708277e-07
7.9887906e-09
5.9545624e-07
6.6314459e-09
5.9414646e-07
5.285037e-09
5.9311681e-07
3.9478768e-09
5.9234022e-07
2.6180341e-09
5.9179724e-07
1.2934065e-09
5.9147483e-07
-2.8199862e-11
5.9136558e-07
-1.3489852e-09
5.9146724e-07
-2.6710696e-09
5.9178271e-07
-3.9964059e-09
5.9232013e-07
-5.3266949e-09
5.9309337e-07
-6.6633063e-09
5.9412287e-07
-8.007216e-09
5.9543702e-07
-9.358975e-09
5.9707423e-07
-1.071873e-08
5.9908612e-07
-1.2086224e-08
6.0154206e-07
-1.3460722e-08
6.0453421e-07
-1.4844018e-08
6.0818959e-07
-1.6262498e-08
6.1276953e-07
-1.7805044e-08
6.1908282e-07
-1.9460711e-08
6.2874264e-07
-2.0327846e-08
6.4013913e-07
-1.799707e-08
6.3462172e-07
-1.0887362e-08
5.6660754e-07
-2.6259088e-09
3.932764e-07
1.3690986e-07
2.0740244e-09
1.0990844e-07
9.7290046e-09
3.3915072e-07
1.8481171e-08
5.3372474e-07
2.2674553e-08
6.3387231e-07
2.2438674e-08
6.529117e-07
2.0666116e-08
6.4089426e-07
1.8942292e-08
6.2788382e-07
1.7443287e-08
6.1949567e-07
1.6030169e-08
6.1381595e-07
1.4639702e-08
6.0941353e-07
1.3261634e-08
6.0582127e-07
1.1895265e-08
6.0286545e-07
1.054007e-08
6.0043029e-07
9.1954849e-09
5.9842736e-07
7.8609372e-09
5.9679079e-07
6.5357102e-09
5.9547169e-07
5.2188661e-09
5.9443366e-07
3.9092396e-09
5.9364984e-07
2.6054703e-09
5.93101e-07
1.3060573e-09
5.9277424e-07
9.425932e-12
5.9266221e-07
-1.2860018e-09
5.9276267e-07
-2.5817292e-09
5.9307844e-07
-3.8791128e-09
5.9361752e-07
-5.1792922e-09
5.9439355e-07
-6.48313e-09
5.954267e-07
-7.7911728e-09
5.9674506e-07
-9.1036522e-09
5.9838671e-07
-1.0420537e-08
6.0040301e-07
-1.1741563e-08
6.0286309e-07
-1.3066344e-08
6.0585899e-07
-1.4398493e-08
6.0952173e-07
-1.5768789e-08
6.1413982e-07
-1.7261396e-08
6.2057543e-07
-1.8814782e-08
6.3029603e-07
-1.945907e-08
6.4078342e-07
-1.6922877e-08
6.3208553e-07
-1.0015417e-08
5.5970008e-07
-2.3896628e-09
3.8565064e-07
1.3452019e-07
1.9408962e-09
1.0796765e-07
9.0017993e-09
3.3209003e-07
1.7398702e-08
5.2532804e-07
2.1752502e-08
6.295186e-07
2.1796937e-08
6.5286728e-07
2.0163344e-08
6.4252784e-07
1.8486629e-08
6.2956052e-07
1.7024481e-08
6.2095782e-07
1.5655575e-08
6.1518485e-07
1.431125e-08
6.1075786e-07
1.2977684e-08
6.0715483e-07
1.165334e-08
6.041898e-07
1.0337505e-08
6.0174613e-07
9.0295796e-09
5.9973529e-07
7.7290938e-09
5.9809128e-07
6.4355604e-09
5.9676522e-07
5.148368e-09
5.9572085e-07
3.8667492e-09
5.9493146e-07
2.5897924e-09
5.9437796e-07
1.3164784e-09
5.9404756e-07
4.5732193e-11
5.9393296e-07
-1.2235191e-09
5.9403192e-07
-2.4922839e-09
5.943472e-07
-3.7614465e-09
5.9488668e-07
-5.0317131e-09
5.9566382e-07
-6.3035708e-09
5.9669856e-07
-7.5772722e-09
5.9801876e-07
-8.8528636e-09
5.996623e-07
-1.0130264e-08
6.0168041e-07
-1.140932e-08
6.0414215e-07
-1.2690148e-08
6.0713982e-07
-1.3978335e-08
6.1080992e-07
-1.5308395e-08
6.1546988e-07
-1.6757017e-08
6.2202405e-07
-1.8212689e-08
6.317517e-07
-1.8653461e-08
6.4122419e-07
-1.5953717e-08
6.2938579e-07
-9.2622857e-09
5.5300865e-07
-2.2025553e-09
3.7859091e-07
1.3231764e-07
1.8244319e-09
1.0614333e-07
8.3619742e-09
3.2555274e-07
1.6410227e-08
5.1728002e-07
2.0883047e-08
6.250459e-07
2.1184825e-08
6.5256552e-07
1.9689434e-08
6.4402322e-07
1.8058998e-08
6.3119095e-07
1.6628369e-08
6.2238845e-07
1.5297637e-08
6.1651558e-07
1.3994351e-08
6.1206114e-07
1.2701121e-08
6.0844806e-07
1.1415448e-08
6.0547547e-07
1.0136382e-08
6.030252e-07
8.863228e-09
6.0100844e-07
7.595543e-09
5.9935896e-07
6.3329766e-09
5.9802779e-07
5.0751447e-09
5.9697868e-07
3.8215759e-09
5.9618503e-07
2.5717037e-09
5.9562783e-07
1.3248869e-09
5.9529437e-07
8.0446324e-11
5.951774e-07
-1.1622914e-09
5.9527466e-07
-2.4039446e-09
5.9558886e-07
-3.6450319e-09
5.9612777e-07
-4.8859338e-09
5.9690472e-07
-6.1268699e-09
5.979395e-07
-7.3679044e-09
5.9925979e-07
-8.6089975e-09
6.0090339e-07
-9.8501055e-09
6.0292151e-07
-1.1091264e-08
6.053833e-07
-1.2333189e-08
6.0838175e-07
-1.3583504e-08
6.1206024e-07
-1.4879652e-08
6.1676603e-07
-1.6288393e-08
6.2343279e-07
-1.7649777e-08
6.3311309e-07
-1.7904327e-08
6.4147874e-07
-1.5075552e-08
6.2655701e-07
-8.60645e-09
5.4653955e-07
-2.0505873e-09
3.7203505e-07
1.3026705e-07
1.7199115e-09
1.0442355e-07
7.7944536e-09
3.194785e-07
1.5504125e-08
5.0957063e-07
2.0061314e-08
6.2048886e-07
2.0598929e-08
6.5202793e-07
1.9240847e-08
6.4538129e-07
1.7657016e-08
6.3277478e-07
1.6254038e-08
6.2379143e-07
1.4956503e-08
6.1781312e-07
1.3689883e-08
6.1332776e-07
1.2433333e-08
6.0970461e-07
1.1183298e-08
6.067255e-07
9.9385566e-09
6.0426994e-07
8.6982923e-09
6.022487e-07
7.4620346e-09
6.0059522e-07
6.229503e-09
5.9926032e-07
5.0004638e-09
5.9820772e-07
3.7746588e-09
5.9741084e-07
2.5517805e-09
5.9685071e-07
1.3314774e-09
5.9651468e-07
1.1337679e-10
5.963955e-07
-1.1028849e-09
5.9649092e-07
-2.3176262e-09
5.968036e-07
-3.5310902e-09
5.9734123e-07
-4.7434203e-09
5.9811705e-07
-5.9546547e-09
5.9915073e-07
-7.1647496e-09
6.0046989e-07
-8.3736502e-09
6.0211229e-07
-9.5814056e-09
6.0412927e-07
-1.0788285e-08
6.0659018e-07
-1.1995671e-08
6.0958913e-07
-1.3213195e-08
6.1327776e-07
-1.448034e-08
6.1803318e-07
-1.5851828e-08
6.2480428e-07
-1.7121531e-08
6.3438279e-07
-1.7205385e-08
6.4156259e-07
-1.4276138e-08
6.2362776e-07
-8.0304657e-09
5.4029387e-07
-1.9236582e-09
3.6592824e-07
1.2834339e-07
1.6244647e-09
1.0279925e-07
7.2875386e-09
3.1381576e-07
1.4670778e-08
5.0218773e-07
1.9283212e-08
6.1587661e-07
2.0036469e-08
6.5127471e-07
1.8814463e-08
6.4660329e-07
1.7278321e-08
6.3431091e-07
1.5900306e-08
6.2516944e-07
1.4631895e-08
6.1908153e-07
1.3398202e-08
6.1456145e-07
1.2175138e-08
6.1092768e-07
1.095802e-08
6.0794262e-07
9.7453366e-09
6.0548262e-07
8.5361332e-09
6.0345791e-07
7.3298812e-09
6.0180147e-07
6.1263213e-09
6.0046388e-07
4.9253118e-09
5.9940873e-07
3.7267415e-09
5.9860941e-07
2.5304914e-09
5.9804696e-07
1.3364263e-09
5.9770874e-07
1.4440465e-10
5.9758752e-07
-1.0457033e-09
5.9768103e-07
-2.2339919e-09
5.9799189e-07
-3.4205028e-09
5.9852774e-07
-4.6052146e-09
5.9930176e-07
-5.7880507e-09
6.0033357e-07
-6.9689191e-09
6.0165076e-07
-8.1477982e-09
6.0329117e-07
-9.3248623e-09
6.0530633e-07
-1.0500638e-08
6.0776596e-07
-1.1677213e-08
6.1076571e-07
-1.2866132e-08
6.1446668e-07
-1.4107988e-08
6.1927503e-07
-1.5443716e-08
6.2614001e-07
-1.6623809e-08
6.3556288e-07
-1.655099e-08
6.4148977e-07
-1.3545012e-08
6.2062179e-07
-7.5203486e-09
5.3426921e-07
-1.8146348e-09
3.6022253e-07
1.2652876e-07
1.5363825e-09
1.0126304e-07
6.8320744e-09
3.0852047e-07
1.3902186e-08
4.9511801e-07
1.8545328e-08
6.1123369e-07
1.9495222e-08
6.5032488e-07
1.8407602e-08
6.4769089e-07
1.6920677e-08
6.3579782e-07
1.5565869e-08
6.2652424e-07
1.4323264e-08
6.2032414e-07
1.3119301e-08
6.1576542e-07