/*--------------------------------*- C++ -*----------------------------------*\
  =========                 |
  \\      /  F ield         | OpenFOAM: The Open Source CFD Toolbox
   \\    /   O peration     | Website:  https://openfoam.org
    \\  /    A nd           | Version:  10
     \\/     M anipulation  |
\*---------------------------------------------------------------------------*/
FoamFile
{
    format      ascii;
    class       surfaceScalarField;
    location    "0.25";
    object      phi_0;
}
// * * * * * * * * * * * * * * * * * * * * * * * * * * * * * * * * * * * * * //

dimensions      [1 0 -1 0 0 0 0];

internalField   nonuniform List<scalar> 
7860
(
3.989599e-08
5.2881205e-07
1.2192738e-08
5.9641106e-07
7.4279199e-09
5.7347257e-07
5.4994421e-09
5.7063619e-07
4.1150196e-09
5.700921e-07
3.2011645e-09
5.6962151e-07
2.5591673e-09
5.6934963e-07
2.0793348e-09
5.6918746e-07
1.7093387e-09
5.6907761e-07
1.4166555e-09
5.6900028e-07
1.1794898e-09
5.6894476e-07
9.8307885e-10
5.68904e-07
8.1707908e-10
5.6887358e-07
6.7400043e-10
5.6885066e-07
5.4826981e-10
5.688333e-07
4.356267e-10
5.6882021e-07
3.3271761e-10
5.6881048e-07
2.3681534e-10
5.6880347e-07
1.4561714e-10
5.6879876e-07
5.7092105e-11
5.6879609e-07
-3.0642356e-11
5.687953e-07
-1.1942833e-10
5.6879635e-07
-2.1117196e-10
5.6879931e-07
-3.0795051e-10
5.6880434e-07
-4.1214452e-10
5.6881176e-07
-5.2660073e-10
5.6882203e-07
-6.5485287e-10
5.6883582e-07
-8.0143456e-10
5.6885416e-07
-9.7233976e-10
5.6887849e-07
-1.1757296e-09
5.6891098e-07
-1.4231054e-09
5.6895497e-07
-1.7312784e-09
5.6901577e-07
-2.1252266e-09
5.6910156e-07
-2.6448312e-09
5.6922723e-07
-3.372506e-09
5.6943531e-07
-4.4638011e-09
5.6979895e-07
-6.0091199e-09
5.70253e-07
-9.5081108e-09
5.722067e-07
-2.9575948e-08
5.887756e-07
5.3913198e-07
5.9672527e-08
4.6913952e-07
3.6666004e-08
6.1941758e-07
2.2628189e-08
5.8751038e-07
1.6253605e-08
5.7701077e-07
1.2290545e-08
5.7405516e-07
9.6062938e-09
5.7230576e-07
7.6775101e-09
5.7127842e-07
6.2361581e-09
5.7062881e-07
5.1266417e-09
5.7018712e-07
4.2488884e-09
5.6987804e-07
3.5375636e-09
5.6965608e-07
2.9484988e-09
5.6949306e-07
2.4506485e-09
5.6937143e-07
2.0215378e-09
5.6927977e-07
1.6444521e-09
5.6921039e-07
1.3066143e-09
5.6915805e-07
9.9796723e-10
5.6911912e-07
7.1033263e-10
5.690911e-07
4.3680498e-10
5.6907229e-07
1.7129278e-10
5.690616e-07
-9.1850008e-11
5.6905844e-07
-3.5814647e-10
5.6906265e-07
-6.3330848e-10
5.6907447e-07
-9.2356821e-10
5.690946e-07
-1.2360645e-09
5.6912426e-07
-1.5793342e-09
5.691653e-07
-1.9639743e-09
5.6922046e-07
-2.4035805e-09
5.6929376e-07
-2.9161358e-09
5.6939104e-07
-3.5261321e-09
5.6952097e-07
-4.2679882e-09
5.6969682e-07
-5.1920688e-09
5.6993985e-07
-6.3749981e-09
5.7028449e-07
-7.9354925e-09
5.7078772e-07
-1.0076774e-08
5.7157659e-07
-1.3204965e-08
5.7292714e-07
-1.8134831e-08
5.7518287e-07
-2.8177061e-08
5.8224893e-07
-4.5802974e-08
6.0640151e-07
4.9332901e-07
6.0008849e-08
4.0913067e-07
5.0487303e-08
6.2893912e-07
3.3370711e-08
6.0462697e-07
2.481773e-08
5.8556375e-07
1.9323316e-08
5.7954957e-07
1.5331583e-08
5.7629749e-07
1.2360816e-08
5.7424918e-07
1.0101661e-08
5.7288796e-07
8.3407435e-09
5.7194804e-07
6.9349417e-09
5.7128384e-07
5.7881772e-09
5.7080285e-07
4.8336851e-09
5.7044755e-07
4.0237009e-09
5.7018142e-07
3.3232395e-09
5.6998023e-07
2.7060371e-09
5.6982759e-07
2.1518619e-09
5.6971223e-07
1.6446885e-09
5.696263e-07
1.1714179e-09
5.6956437e-07
7.2094294e-10
5.6952276e-07
2.8343574e-10
5.6949911e-07
-1.5022996e-10
5.6949211e-07
-5.8898479e-10
5.695014e-07
-1.0420571e-09
5.6952754e-07
-1.5194928e-09
5.6957204e-07
-2.0327587e-09
5.6963752e-07
-2.5955011e-09
5.6972804e-07
-3.2245586e-09
5.6984952e-07
-3.9413719e-09
5.7001058e-07
-4.774035e-09
5.702237e-07
-5.7603576e-09
5.7050729e-07
-6.9525245e-09
5.7088899e-07
-8.4247331e-09
5.7141206e-07
-1.0286381e-08
5.7214614e-07
-1.2699339e-08
5.7320068e-07
-1.5896764e-08
5.7477402e-07
-2.024054e-08
5.7727092e-07
-2.6708809e-08
5.8165113e-07
-3.8948292e-08
5.9448842e-07
-4.8167428e-08
6.1562064e-07
4.4516158e-07
5.4879078e-08
3.5425159e-07
5.7452223e-08
6.2636598e-07
4.04676e-08
6.216116e-07
3.0778822e-08
5.9525253e-07
2.4643128e-08
5.8568527e-07
1.9952386e-08
5.8098824e-07
1.6313044e-08
5.7788853e-07
1.3466645e-08
5.7573436e-07
1.1201076e-08
5.7421361e-07
9.3646306e-09
5.7312028e-07
7.8494259e-09
5.7231805e-07
6.5769737e-09
5.7172001e-07
5.4894281e-09
5.7126896e-07
4.5434771e-09
5.7092618e-07
3.7060265e-09
5.7066504e-07
2.9512196e-09
5.7046703e-07
2.2583395e-09
5.7031918e-07
1.6102914e-09
5.7021242e-07
9.924706e-10
5.7014059e-07
3.9188321e-10
5.7009969e-07
-2.0357764e-10
5.7008757e-07
-8.0577155e-10
5.7010359e-07
-1.4269323e-09
5.701487e-07
-2.0803217e-09
5.7022543e-07
-2.7809812e-09
5.7033818e-07
-3.5466586e-09
5.7049371e-07
-4.399016e-09
5.7070188e-07
-5.3652625e-09
5.7097682e-07
-6.4804349e-09
5.7133888e-07
-7.7906579e-09
5.7181752e-07
-9.3577109e-09
5.7245604e-07
-1.1265414e-08
5.7331977e-07
-1.363003e-08
5.7451075e-07
-1.6612903e-08
5.7618355e-07
-2.0411803e-08
5.7857292e-07
-2.5293403e-08
5.8215252e-07
-3.2517649e-08
5.8887538e-07
-4.5101251e-08
6.0707202e-07
-4.654957e-08
6.1706896e-07
3.9861201e-07
4.7965794e-08
3.062858e-07
6.0076586e-08
6.1425519e-07
4.5400219e-08
6.3628796e-07
3.4875433e-08
6.0577732e-07
2.8399942e-08
5.9216076e-07
2.341971e-08
5.8596847e-07
1.9434395e-08
5.8187384e-07
1.6229259e-08
5.789395e-07
1.3619788e-08
5.7682308e-07
1.1466575e-08
5.752735e-07
9.664495e-09
5.7412013e-07
8.1335076e-09
5.7325099e-07
6.8125907e-09
5.7258988e-07
5.6547327e-09
5.7208404e-07
4.6231589e-09
5.7169662e-07
3.6885835e-09
5.7140161e-07
2.8271686e-09
5.7118059e-07
2.0189852e-09
5.710206e-07
1.2468293e-09
5.7091274e-07
4.9527618e-10
5.7085125e-07
-2.5011232e-10
5.7083295e-07
-1.0034978e-09
5.7085698e-07
-1.7794559e-09
5.7092466e-07
-2.5936984e-09
5.7103967e-07
-3.4638895e-09
5.7120837e-07
-4.4106297e-09
5.7144045e-07
-5.4586957e-09
5.7174994e-07
-6.6386497e-09
5.7215678e-07
-7.9889666e-09
5.7268919e-07
-9.5589072e-09
5.7338746e-07
-1.1412294e-08
5.7430943e-07
-1.3631938e-08
5.7553941e-07
-1.6326139e-08
5.7720495e-07
-1.9638498e-08
5.7949591e-07
-2.3739276e-08
5.8267369e-07
-2.8931391e-08
5.8734463e-07
-3.6791655e-08
5.9673564e-07
-4.8464243e-08
6.1874461e-07
-4.3194483e-08
6.117992e-07
3.5541752e-07
4.0336089e-08
2.6594972e-07
5.8994184e-08
5.9559709e-07
4.833021e-08
6.4695194e-07
3.7588208e-08
6.1651932e-07
3.0929031e-08
5.9881994e-07
2.5894153e-08
5.9100335e-07
2.178017e-08
5.8598782e-07
1.8392231e-08
5.8232743e-07
1.5577678e-08
5.7963763e-07
1.3214463e-08
5.7763671e-07
1.1206648e-08
5.7612795e-07
9.4789414e-09
5.749787e-07
7.9722017e-09
5.7409662e-07
6.6395256e-09
5.7341671e-07
5.443287e-09
5.7289285e-07
4.352869e-09
5.7249203e-07
3.3428845e-09
5.7219058e-07
2.3917765e-09
5.7197171e-07
1.4807e-09
5.7182382e-07
5.9260184e-10
5.7173935e-07
-2.8856979e-10
5.7171413e-07
-1.178583e-09
5.7174699e-07
-2.0936246e-09
5.718397e-07
-3.0510284e-09
5.7199707e-07
-4.0700814e-09
5.7222743e-07
-5.1729694e-09
5.7254334e-07
-6.3859294e-09
5.729629e-07
-7.7406834e-09
5.7351153e-07
-9.2762369e-09
5.7422475e-07
-1.1041186e-08
5.7515241e-07
-1.309675e-08
5.7636499e-07
-1.5520194e-08
5.7796285e-07
-1.8408916e-08
5.8009367e-07
-2.188709e-08
5.8297408e-07
-2.6110499e-08
5.868971e-07
-3.1488666e-08
5.927228e-07
-3.9654998e-08
6.0490198e-07
-4.9172778e-08
6.2826239e-07
-3.8578686e-08
6.0120511e-07
3.1683884e-07
3.2862745e-08
2.3308698e-07
5.5250123e-08
5.7320972e-07
4.9232391e-08
6.5296967e-07
3.9061662e-08
6.2669004e-07
3.2430824e-08
6.0545077e-07
2.7518948e-08
5.9591522e-07
2.343891e-08
5.9006786e-07
2.0003135e-08
5.8576321e-07
1.7095072e-08
5.825457e-07
1.4612498e-08
5.8011929e-07
1.2471626e-08
5.7826882e-07
1.0605207e-08
5.7684512e-07
8.9590005e-09
5.7574282e-07
7.4888151e-09
5.748869e-07
6.1583218e-09
5.7422335e-07
4.9372957e-09
5.7371305e-07
3.800173e-09
5.733277e-07
2.7248743e-09
5.7304701e-07
1.6918283e-09
5.7285686e-07
6.8314119e-10
5.7274803e-07
-3.1813599e-10
5.727154e-07
-1.3286813e-09
5.7275754e-07
-2.3655678e-09
5.7287659e-07
-3.4469469e-09
5.7307845e-07
-4.5927901e-09
5.7337327e-07
-5.8257358e-09
5.7377629e-07
-7.1720866e-09
5.7430925e-07
-8.6630104e-09
5.7500245e-07
-1.033599e-08
5.7589773e-07
-1.2236599e-08
5.7705302e-07
-1.4420891e-08
5.7854929e-07
-1.6958293e-08
5.8050025e-07
-1.9933646e-08
5.8306903e-07
-2.3447725e-08
5.8648816e-07
-2.7641952e-08
5.9109133e-07
-3.303476e-08
5.9811561e-07
-4.1011076e-08
6.1287829e-07
-4.7688097e-08
6.3493941e-07
-3.3376284e-08
5.868933e-07
2.8346255e-07
2.6189043e-08
2.0689794e-07
5.0132818e-08
5.4926595e-07
4.8493723e-08
6.5460876e-07
3.9491213e-08
6.3569255e-07
3.3077632e-08
6.1186435e-07
2.8412243e-08
6.0058061e-07
2.4493158e-08
5.9398695e-07
2.1118518e-08
5.8913785e-07
1.8207441e-08
5.8545677e-07
1.5680702e-08
5.8264602e-07
1.3469164e-08
5.8048036e-07
1.1515648e-08
5.7879863e-07
9.7726414e-09
5.7748583e-07
8.2003535e-09
5.7645918e-07
6.7652541e-09
5.7565845e-07
5.4387994e-09
5.7503951e-07
4.1963436e-09
5.7457015e-07
3.0162157e-09
5.7422714e-07
1.8789222e-09
5.7399416e-07
7.6644338e-10
5.7386051e-07
-3.3840241e-10
5.7382025e-07
-1.4525552e-09
5.7387169e-07
-2.593306e-09
5.7401734e-07
-3.7788995e-09
5.7426405e-07
-5.0291771e-09
5.7462355e-07
-6.3662912e-09
5.751134e-07
-7.815518e-09
5.7575848e-07
-9.4062047e-09
5.7659314e-07
-1.1172877e-08
5.776644e-07
-1.3156508e-08
5.7903665e-07
-1.5406168e-08
5.8079895e-07
-1.798114e-08
5.8307523e-07
-2.0950879e-08
5.8603877e-07
-2.4390573e-08
5.8992786e-07
-2.8435756e-08
5.9513651e-07
-3.3691695e-08
6.0337155e-07
-4.1062982e-08
6.2024958e-07
-4.4797529e-08
6.3867395e-07
-2.8204578e-08
5.7030035e-07
2.5525798e-07
2.0570946e-08
1.86327e-07
4.4583306e-08
5.252536e-07
4.6643082e-08
6.5254899e-07
3.9153357e-08
6.4318228e-07
3.3084015e-08
6.179337e-07
2.8717858e-08
6.0494677e-07
2.5038434e-08
5.9766637e-07
2.1804127e-08
5.9237216e-07
1.8959619e-08
5.8830128e-07
1.644886e-08
5.8515678e-07
1.421835e-08
5.8271087e-07
1.222191e-08
5.8079507e-07
1.0419758e-08
5.7928798e-07
8.7775384e-09
5.781014e-07
7.2654981e-09
5.7717049e-07
5.8576712e-09
5.7644733e-07
4.531141e-09
5.7589668e-07
3.2653739e-09
5.754929e-07
2.0416124e-09
5.7521792e-07
8.4231847e-10
5.750598e-07
-3.4934715e-10
5.7501191e-07
-1.5500206e-09
5.7507236e-07
-2.7766325e-09
5.7524395e-07
-4.0469089e-09
5.7553432e-07
-5.3798963e-09
5.7595653e-07
-6.7965271e-09
5.7653003e-07
-8.320237e-09
5.7728219e-07
-9.9776502e-09
5.7825055e-07
-1.1799346e-08
5.7948609e-07
-1.3820652e-08
5.8105795e-07
-1.6082557e-08
5.8306085e-07
-1.8632912e-08
5.8562558e-07
-2.1524821e-08
5.8893067e-07
-2.4812302e-08
5.9321534e-07
-2.8641579e-08
5.9896579e-07
-3.3660008e-08
6.0838998e-07
-4.0144036e-08
6.2673361e-07
-4.1159136e-08
6.3968905e-07
-2.3416946e-08
5.5255816e-07
2.3184103e-07
1.6015516e-08
1.7031149e-07
3.9144015e-08
5.0212512e-07
4.4118708e-08
6.475743e-07
3.8289817e-08
6.4901117e-07
3.2654107e-08
6.235694e-07
2.8591849e-08
6.0900902e-07
2.5183911e-08
6.0107431e-07
2.2136334e-08
5.9541973e-07
1.9405228e-08
5.9103239e-07
1.6954536e-08
5.8760748e-07
1.4745279e-08
5.8492012e-07
1.2741862e-08
5.8279849e-07
1.0912371e-08
5.8111747e-07
9.2282859e-09
5.7978549e-07
7.6641333e-09
5.7873464e-07
6.1970661e-09
5.779144e-07
4.8064381e-09
5.7728731e-07
3.4733764e-09
5.7682597e-07
2.1803604e-09
5.7651093e-07
9.1081283e-10
5.7632935e-07
-3.5129627e-10
5.7627402e-07
-1.621837e-09
5.763429e-07
-2.9169111e-09
5.7653902e-07
-4.2532427e-09
5.7687065e-07
-5.6485775e-09
5.7735187e-07
-7.1220977e-09
5.7800355e-07
-8.694849e-09
5.7885494e-07
-1.0390179e-08
5.7994588e-07
-1.2234193e-08
5.8133011e-07
-1.4256175e-08
5.8307993e-07
-1.6488948e-08
5.8529363e-07
-1.8969266e-08
5.881059e-07
-2.1735266e-08
5.9169667e-07
-2.4827424e-08
5.963075e-07
-2.8414629e-08
6.02553e-07
-3.3124066e-08
6.1309941e-07
-3.8549162e-08
6.321587e-07
-3.7215412e-08
6.383553e-07
-1.9182785e-08
5.3452553e-07
2.1265824e-07
1.2423792e-08
1.5788771e-07
3.4114045e-08
4.8043488e-07
4.1249811e-08
6.4043854e-07
3.7078749e-08
6.5318223e-07
3.1942038e-08
6.2870611e-07
2.8168944e-08
6.1278212e-07
2.5033224e-08
6.0421003e-07
2.2192388e-08
5.9826057e-07
1.9601369e-08
5.9362341e-07
1.723958e-08
5.8996926e-07
1.5080389e-08
5.8707931e-07
1.3097482e-08
5.847814e-07
1.1266222e-08
5.8294873e-07
9.5637548e-09
5.8148796e-07
7.9689611e-09
5.8032943e-07
6.4623292e-09
5.7942103e-07
5.025774e-09
5.7872387e-07
3.6424102e-09
5.7820933e-07
2.296296e-09
5.7785705e-07
9.7216336e-10
5.7765348e-07
-3.4485961e-10
5.7759105e-07
-1.669527e-09
5.7766757e-07
-3.0167614e-09
5.7788626e-07
-4.4019347e-09
5.7825583e-07
-5.8411462e-09
5.7879108e-07
-7.3514964e-09
5.795139e-07
-8.9513468e-09
5.8045479e-07
-1.0660551e-08
5.8165509e-07
-1.2500666e-08
5.8317022e-07
-1.449511e-08
5.8507438e-07
-1.6669197e-08
5.8746771e-07
-1.9049817e-08
5.9048652e-07
-2.1662463e-08
5.9430932e-07
-2.4541332e-08
5.9918636e-07
-2.788097e-08
6.0589263e-07
-3.2226557e-08
6.17445e-07
-3.65205e-08
6.3645265e-07
-3.326763e-08
6.3510243e-07
-1.5563777e-08
5.1682168e-07
1.9709447e-07
9.6571539e-09
1.4823057e-07
2.9645707e-08
4.6044635e-07
3.8283044e-08
6.3180122e-07
3.565832e-08
6.5580695e-07
3.1058987e-08
6.3330545e-07
2.7553506e-08
6.162876e-07
2.4672939e-08
6.070906e-07
2.2041062e-08
6.0089244e-07
1.9601908e-08
5.9606256e-07
1.7345506e-08
5.9222567e-07
1.5255242e-08
5.8916958e-07
1.3312532e-08
5.8672411e-07
1.1499042e-08
5.8476222e-07
9.797044e-09
5.8318995e-07
8.1895324e-09
5.8193694e-07
6.6602844e-09
5.8095028e-07
5.1938529e-09
5.801903e-07
3.775492e-09
5.7962769e-07
2.3910352e-09
5.792415e-07
1.0267451e-09
5.7901777e-07
-3.3085756e-10
5.7894865e-07
-1.6951727e-09
5.7903189e-07
-3.0797092e-09
5.7927079e-07
-4.4982643e-09
5.7967438e-07
-5.9650943e-09
5.8025791e-07
-7.4950665e-09
5.8104387e-07
-9.1037823e-09
5.8206351e-07
-1.0807653e-08
5.8335896e-07
-1.2623929e-08
5.849865e-07
-1.4570693e-08
5.8702114e-07
-1.6666684e-08
5.895637e-07
-1.8930381e-08
5.9275021e-07
-2.1377293e-08
5.9675623e-07
-2.4041551e-08
6.0185062e-07
-2.7139466e-08
6.0899055e-07
-3.1085642e-08
6.2139117e-07
-3.426218e-08
6.3962918e-07
-2.9520934e-08
6.3036118e-07
-1.2555282e-08
4.9985602e-07
1.8453918e-07
7.5667803e-09
1.4066381e-07
2.5786663e-08
4.422265e-07
3.5389266e-08
6.2219863e-07
3.4138383e-08
6.5705783e-07
3.0087942e-08
6.3735588e-07
2.6825525e-08
6.1955001e-07
2.4172737e-08
6.0974339e-07
2.1740131e-08
6.0332505e-07
1.9454125e-08
5.9834856e-07
1.7310368e-08
5.9436942e-07
1.5299977e-08
5.9117997e-07
1.3410571e-08
5.8861351e-07
1.162903e-08
5.8654376e-07
9.9420394e-09
5.8487694e-07
8.3362786e-09
5.835427e-07
6.7985912e-09
5.8248797e-07
5.3160849e-09
5.816728e-07
3.8761636e-09
5.8106761e-07
2.4665085e-09
5.8065116e-07
1.0750225e-09
5.8040926e-07
-3.1025134e-10
5.8033392e-07
-1.7012229e-09
5.8042286e-07
-3.1098579e-09
5.8067943e-07
-4.5482708e-09
5.8111279e-07
-6.0288048e-09
5.8173844e-07
-7.564086e-09
5.8257916e-07
-9.1670422e-09
5.8366646e-07
-1.0850869e-08
5.8504278e-07
-1.2628938e-08
5.8676457e-07
-1.4514681e-08
5.8890688e-07
-1.6521282e-08
5.915703e-07
-1.8660339e-08
5.9488927e-07
-2.094036e-08
5.9903625e-07
-2.3400522e-08
6.0431078e-07
-2.6270479e-08
6.118605e-07
-2.9802385e-08
6.2492308e-07
-3.1935852e-08
6.4176265e-07
-2.6097672e-08
6.24523e-07
-1.0110654e-08
4.8386901e-07
1.7442853e-07
6.0120971e-09
1.3465174e-07
2.2515134e-08
4.2572351e-07
3.2670333e-08
6.1204346e-07
3.2599378e-08
6.5712879e-07
2.9088992e-08
6.4086626e-07
2.6045165e-08
6.2259384e-07
2.3587952e-08
6.122006e-07
2.133717e-08
6.0557583e-07
1.9198209e-08
6.0048753e-07
1.7167605e-08
5.9640003e-07
1.5241978e-08
5.9310559e-07
1.3413695e-08
5.904418e-07
1.1673769e-08
5.8828369e-07
1.0012524e-08
5.8653819e-07
8.4198106e-09
5.8513542e-07
6.8852108e-09
5.8402257e-07
5.3981967e-09
5.8315982e-07
3.9482298e-09
5.8251758e-07
2.5248135e-09
5.8207458e-07
1.1175081e-09
5.8181657e-07
-2.8407986e-10
5.8173551e-07
-1.6903222e-09
5.818291e-07
-3.1116017e-09
5.8210071e-07
-4.5583353e-09
5.8255953e-07
-6.0409825e-09
5.8322109e-07
-7.5700257e-09
5.841082e-07
-9.1559152e-09
5.8525235e-07
-1.0808963e-08
5.8669583e-07
-1.2539185e-08
5.8849479e-07
-1.4356122e-08
5.9072382e-07
-1.6268465e-08
5.9348265e-07
-1.8282513e-08
5.9690332e-07
-2.0402853e-08
6.0115659e-07
-2.2677264e-08
6.0658519e-07
-2.5337602e-08
6.1452084e-07
-2.8457383e-08
6.2804286e-07
-2.9655713e-08
6.4296098e-07
-2.3053111e-08
6.179204e-07
-8.1614464e-09
4.6897734e-07
1.6626708e-07
4.8704006e-09
1.2978136e-07
1.9772569e-08
4.1082139e-07
3.0174517e-08
6.0164154e-07
3.1093649e-08
6.5620967e-07
2.8101631e-08
6.4385828e-07
2.5254716e-08
6.2544075e-07
2.2960708e-08
6.1449461e-07
2.087023e-08
6.0766631e-07
1.8867436e-08
6.0249032e-07
1.6945772e-08
5.9832169e-07
1.5105312e-08
5.9494605e-07
1.3341862e-08
5.9220524e-07
1.1649544e-08
5.8997601e-07
1.0021564e-08
5.8816617e-07
8.4503979e-09
5.8670658e-07
6.9279883e-09
5.8554498e-07
5.445917e-09
5.8464189e-07
3.9955415e-09
5.8396795e-07
2.5680906e-09
5.8350203e-07
1.1547284e-09
5.8322993e-07
-2.5340481e-10
5.8314364e-07
-1.6651655e-09
5.8324086e-07
-3.089385e-09
5.8352493e-07
-4.5348404e-09
5.8400498e-07
-6.01021e-09
5.8469646e-07
-7.5240024e-09
5.8562199e-07
-9.0844542e-09
5.868128e-07
-1.0699387e-08
5.8831076e-07
-1.2376021e-08
5.9017142e-07
-1.4120792e-08
5.9246859e-07
-1.5938924e-08
5.9530078e-07
-1.7832946e-08
5.9879734e-07
-1.9806333e-08
6.0312998e-07
-2.1917199e-08
6.0869606e-07
-2.4387578e-08
6.1699122e-07
-2.710939e-08
6.3076467e-07
-2.7493874e-08
6.4334546e-07
-2.0396623e-08
6.1082315e-07
-6.6320099e-09
4.5521273e-07
1.5963507e-07
4.0393311e-09
1.2574206e-07
1.748649e-08
3.9737429e-07
2.7915782e-08
5.9121229e-07
2.9651825e-08
6.5447363e-07
2.714906e-08
6.4636104e-07
2.448137e-08
6.2810844e-07
2.2321149e-08
6.1665483e-07
2.0368384e-08
6.0961908e-07
1.8488374e-08
6.0437033e-07
1.66685e-08
6.0014156e-07
1.4910509e-08
5.9670405e-07
1.3212544e-08
5.9390321e-07
1.1570949e-08
5.916176e-07
9.9811132e-09
5.8975601e-07
8.4376103e-09
5.8825009e-07
6.9343495e-09
5.8704824e-07
5.4647386e-09
5.861115e-07
4.0218277e-09
5.8541086e-07
2.5984265e-09
5.8492543e-07
1.1871984e-09
5.8464116e-07
-2.1926521e-10
5.8455011e-07
-1.628381e-09
5.8464998e-07
-3.0475138e-09
5.8494406e-07
-4.4839107e-09
5.8544138e-07
-5.9446205e-09
5.8615717e-07
-7.4363932e-09
5.8711376e-07
-8.9655519e-09
5.8834196e-07
-1.0537839e-08
5.8988305e-07
-1.2158241e-08
5.9179182e-07
-1.3830816e-08
5.9414117e-07
-1.5558255e-08
5.9702822e-07
-1.7340683e-08
6.0057977e-07
-1.9182771e-08
6.0497207e-07
-2.1153055e-08
6.1066634e-07
-2.3452403e-08
6.1929057e-07
-2.5798168e-08
6.3311044e-07
-2.5490103e-08
6.430374e-07
-1.810968e-08
6.0344273e-07
-5.4479727e-09
4.4255102e-07
1.541871e-07
3.4362126e-09
1.2230589e-07
1.5583086e-08
3.852275e-07
2.5887511e-08
5.8090793e-07
2.8289329e-08
6.5207183e-07
2.6243151e-08
6.4840721e-07
2.3741015e-08
6.3061057e-07
2.1689584e-08
6.1870626e-07
1.9852851e-08
6.1145581e-07
1.8081441e-08
6.0614174e-07
1.6354693e-08
6.0186831e-07
1.4674547e-08
5.9838419e-07
1.3040595e-08
5.9553716e-07
1.1450685e-08
5.9320751e-07
9.9017873e-09
5.913049e-07
8.3900918e-09
5.8976178e-07
6.9110993e-09
5.8852723e-07
5.4597538e-09
5.8756284e-07
4.0305757e-09
5.8684004e-07
2.617784e-09
5.8633822e-07
1.2154033e-09
5.8604354e-07
-1.826423e-10
5.8594815e-07
-1.5824423e-09
5.8604977e-07
-2.9900167e-09
5.8635163e-07
-4.4112258e-09
5.8686259e-07
-5.8516714e-09
5.8759761e-07
-7.3165801e-09
5.8857867e-07
-8.8106704e-09
5.8983605e-07
-1.0338007e-08
5.9141039e-07
-1.1901855e-08
5.9335567e-07
-1.3504537e-08
5.9574385e-07
-1.5147005e-08
5.9867068e-07
-1.682815e-08
6.0226091e-07
-1.8555585e-08
6.066995e-07
-2.0407071e-08
6.1251783e-07
-2.2552578e-08
6.2143607e-07
-2.4548585e-08
6.3510645e-07
-2.3661243e-08
6.4215005e-07
-1.6158309e-08
5.9593979e-07
-4.5409237e-09
4.3093363e-07
1.4964618e-07
2.9964142e-09
1.1930952e-07
1.399389e-08
3.7423011e-07
2.407185e-08
5.7083004e-07
2.7011316e-08
6.4913238e-07
2.5388292e-08
6.5003023e-07
2.3041679e-08
6.3295718e-07
2.1078876e-08
6.2066906e-07
1.9338509e-08
6.1319618e-07
1.7661817e-08
6.0781843e-07
1.601903e-08
6.035111e-07
1.4411075e-08
5.9999215e-07
1.2838307e-08
5.9710993e-07
1.1299516e-08
5.947463e-07
9.7927647e-09
5.9281165e-07
8.315443e-09
5.912391e-07
6.8643041e-09
5.8997837e-07
5.4355523e-09
5.889916e-07
4.0249551e-09
5.8825064e-07
2.6279571e-09
5.8773522e-07
1.2397884e-09
5.874317e-07
-1.4443397e-10
5.8733237e-07
-1.5296081e-09
5.8743495e-07
-2.9205517e-09
5.8774258e-07
-4.3219014e-09
5.8826394e-07
-5.7380053e-09
5.8901372e-07
-7.1728053e-09
5.9001347e-07
-8.6297116e-09
5.9129296e-07
-1.0111478e-08
5.9289215e-07
-1.1620096e-08
5.9486429e-07
-1.3156691e-08
5.9728044e-07
-1.4721128e-08
6.0023512e-07
-1.6312035e-08
6.0385182e-07
-1.7941155e-08
6.0832862e-07
-1.9693351e-08
6.1427003e-07
-2.1699978e-08
6.234427e-07
-2.3374136e-08
6.367806e-07
-2.2008472e-08
6.4078439e-07
-1.4501473e-08
5.8843279e-07
-3.8509647e-09
4.2028313e-07
1.4579521e-07
2.6710973e-09
1.1663847e-07
1.2659159e-08
3.6424217e-07
2.2446054e-08
5.6104323e-07
2.581643e-08
6.4576204e-07
2.4584096e-08
6.5126256e-07
2.2386078e-08
6.3515519e-07
2.0496439e-08
6.2255869e-07
1.8835338e-08
6.1485728e-07
1.724045e-08
6.0941332e-07
1.5672615e-08
6.0507893e-07
1.4130807e-08
6.0153395e-07
1.2615614e-08
5.9862512e-07
1.1126357e-08
5.9623556e-07
9.6617989e-09
5.9427621e-07
8.2201914e-09
5.9268071e-07
6.7992444e-09
5.9139931e-07
5.3961723e-09
5.9039467e-07
4.0077772e-09
5.8963903e-07
2.6305465e-09
5.8911245e-07
1.2607545e-09
5.888015e-07
-1.0543823e-10
5.8869857e-07
-1.4718847e-09
5.888014e-07
-2.8423532e-09
5.8911305e-07
-4.2204246e-09
5.8964201e-07
-5.6093867e-09
5.9040268e-07
-7.0121242e-09
5.9141621e-07
-8.4310096e-09
5.9271184e-07
-9.8678075e-09
5.9432895e-07
-1.1323612e-08
5.9632009e-07
-1.2798784e-08
5.9875561e-07
-1.4292618e-08
6.0172895e-07
-1.5804263e-08
6.0536347e-07
-1.7350255e-08
6.0987461e-07
-1.9019843e-08
6.1593961e-07
-2.0900102e-08
6.2532296e-07
-2.2279961e-08
6.3816046e-07
-2.0523097e-08
6.3902753e-07
-1.3096666e-08
5.8100636e-07
-3.3276896e-09
4.1051415e-07
1.4246752e-07
2.4245214e-09
1.1421402e-07
1.152898e-08
3.5513784e-07
2.0986571e-08
5.5158576e-07
2.4699691e-08
6.4204896e-07
2.3827395e-08
6.5213486e-07
2.177351e-08
6.3720907e-07
1.9945813e-08
6.2438639e-07
1.8349625e-08
6.1645346e-07
1.6824957e-08
6.1093799e-07
1.5323628e-08
6.0658026e-07
1.3841959e-08
6.0301562e-07
1.2380377e-08
6.000867e-07
1.0938434e-08
5.976775e-07
9.5153051e-09
5.9569934e-07
8.109827e-09
5.9408619e-07
6.7204207e-09
5.9278872e-07
5.3450919e-09
5.9177e-07
3.9814831e-09
5.9100264e-07
2.6269518e-09
5.9046698e-07
1.2786577e-09
5.9014979e-07
-6.6344366e-11
5.9004357e-07
-1.4110101e-09
5.9014606e-07
-2.7582112e-09
5.9046025e-07
-4.1106373e-09
5.9099444e-07
-5.4706993e-09
5.9176274e-07
-6.8404329e-09
5.9278594e-07
-8.2214107e-09
5.9409282e-07
-9.61468e-09
5.9572222e-07
-1.1020743e-08
5.9772616e-07
-1.2439527e-08
6.001744e-07
-1.3870163e-08
6.0315959e-07
-1.531291e-08
6.0680621e-07
-1.6789309e-08
6.1135101e-07
-1.8389969e-08
6.1754027e-07
-2.0153962e-08
6.2708695e-07
-2.1265527e-08
6.3927203e-07
-1.9191082e-08
6.3695308e-07
-1.1903732e-08
5.7371901e-07
-2.930093e-09
4.0154051e-07
1.3953743e-07
2.2313063e-09
1.1198279e-07
1.0562897e-08
3.4680641e-07
1.9671338e-08
5.4247746e-07
2.3654541e-08
6.3806582e-07
2.3113715e-08
6.5267568e-07
2.1201282e-08
6.3912149e-07
1.9427901e-08
6.2615977e-07
1.7884948e-08
6.1799642e-07
1.6420393e-08
6.1240254e-07
1.4977911e-08
6.0802274e-07
1.3550685e-08
6.0444285e-07
1.2138687e-08
6.014987e-07
1.0741496e-08
5.9907469e-07
9.3584899e-09
5.9708235e-07
7.9888795e-09
5.954558e-07
6.631596e-09
5.94146e-07
5.28525e-09
5.9311634e-07
3.9481535e-09
5.9233974e-07
2.6183753e-09
5.9179676e-07
1.2938121e-09
5.9147435e-07
-2.773028e-11
5.9136511e-07
-1.3484527e-09
5.9146678e-07
-2.6704759e-09
5.9178227e-07
-3.995753e-09
5.9231971e-07
-5.3259854e-09
5.9309297e-07
-6.6625435e-09
5.941225e-07
-8.0064035e-09
5.9543668e-07
-9.3581171e-09
5.9707393e-07
-1.0717831e-08
5.9908587e-07
-1.208529e-08
6.0154186e-07
-1.3459758e-08
6.0453406e-07
-1.4843029e-08
6.0818948e-07
-1.626149e-08
6.1276947e-07
-1.7804014e-08
6.190828e-07
-1.9459659e-08
6.287426e-07
-2.0326811e-08
6.4013918e-07
-1.7996184e-08
6.3462245e-07
-1.0886797e-08
5.6660963e-07
-2.6257203e-09
3.9327943e-07
1.3691171e-07
2.0739667e-09
1.0990891e-07
9.7288009e-09
3.3915177e-07
1.848082e-08
5.3372561e-07
2.2674129e-08
6.3387258e-07
2.2438253e-08
6.5291156e-07
2.066573e-08
6.40894e-07
1.8941946e-08
6.2788355e-07
1.7442979e-08
6.1949538e-07
1.6029905e-08
6.1381562e-07
1.4639485e-08
6.0941316e-07
1.326147e-08
6.0582086e-07
1.1895157e-08
6.0286501e-07
1.0540022e-08
6.0042983e-07
9.1955005e-09
5.9842687e-07
7.861019e-09
5.9679028e-07
6.5358606e-09
5.9547116e-07
5.2190869e-09
5.9443312e-07
3.9095319e-09
5.9364929e-07
2.6058348e-09
5.9310045e-07
1.3064942e-09
5.9277369e-07
9.9345633e-12
5.9266167e-07
-1.2854224e-09
5.9276214e-07
-2.5810806e-09
5.9307793e-07
-3.8783973e-09
5.9361703e-07
-5.1785127e-09
5.9439309e-07
-6.48229e-09
5.9542628e-07
-7.7902762e-09
5.9674467e-07
-9.1027035e-09
5.9838636e-07
-1.0419541e-08
6.0040271e-07
-1.1740526e-08
6.0286284e-07
-1.3065272e-08
6.058588e-07
-1.4397391e-08
6.095216e-07
-1.5767663e-08
6.1413975e-07
-1.7260242e-08
6.2057538e-07
-1.8813601e-08
6.3029596e-07
-1.9457915e-08
6.4078349e-07
-1.6921897e-08
6.3208643e-07
-1.0014798e-08
5.5970253e-07
-2.3894578e-09
3.8565409e-07
1.3452225e-07
1.9408318e-09
1.0796818e-07
9.0015697e-09
3.3209125e-07
1.7398302e-08
5.2532908e-07
2.1752012e-08
6.2951897e-07
2.1796446e-08
6.5286714e-07
2.0162892e-08
6.4252755e-07
1.8486221e-08
6.2956021e-07
1.7024118e-08
6.2095749e-07
1.565526e-08
6.1518447e-07
1.4310989e-08
6.1075743e-07
1.2977482e-08
6.0715437e-07
1.16532e-08
6.041893e-07
1.0337433e-08
6.0174559e-07
9.0295779e-09
5.9973472e-07
7.7291661e-09
5.9809069e-07
6.4357094e-09
5.9676462e-07
5.1485955e-09
5.9572023e-07
3.8670568e-09
5.9493083e-07
2.5901808e-09
5.9437733e-07
1.3169478e-09
5.9404693e-07
4.6282112e-11
5.9393233e-07
-1.2228897e-09
5.9403131e-07
-2.4915768e-09
5.9434661e-07
-3.760664e-09
5.9488612e-07
-5.0308583e-09
5.9566328e-07
-6.3026474e-09
5.9669807e-07
-7.5762844e-09
5.980183e-07
-8.8518163e-09
5.9966189e-07
-1.0129163e-08
6.0168005e-07
-1.1408171e-08
6.0414185e-07
-1.2688957e-08
6.0713959e-07
-1.3977109e-08
6.1080975e-07
-1.5307138e-08
6.1546977e-07
-1.6755726e-08
6.2202396e-07
-1.8211368e-08
6.317516e-07
-1.8652175e-08
6.412243e-07
-1.5952634e-08
6.2938689e-07
-9.2616076e-09
5.530115e-07
-2.2023326e-09
3.7859482e-07
1.3231992e-07
1.8243603e-09
1.0614394e-07
8.3617163e-09
3.2555416e-07
1.6409773e-08
5.1728127e-07
2.0882485e-08
6.2504638e-07
2.1184255e-08
6.5256539e-07
1.9688906e-08
6.4402288e-07
1.805852e-08
6.3119059e-07
1.6627942e-08
6.2238806e-07
1.5297264e-08
6.1651515e-07
1.3994039e-08
6.1206066e-07
1.2700874e-08
6.0844753e-07
1.1415272e-08
6.054749e-07
1.013628e-08
6.0302459e-07
8.8632055e-09
6.010078e-07
7.595603e-09
5.9935829e-07
6.3331221e-09
5.980271e-07
5.0753779e-09
5.9697797e-07
3.8218983e-09
5.9618431e-07
2.5721164e-09
5.9562711e-07
1.3253902e-09
5.9529365e-07
8.1039713e-11
5.9517668e-07
-1.161609e-09
5.9527396e-07
-2.403175e-09
5.9558818e-07
-3.6441775e-09
5.9612712e-07
-4.8849979e-09
5.969041e-07
-6.1258564e-09
5.9793892e-07
-7.3668178e-09
5.9925927e-07
-8.6078431e-09
6.0090292e-07
-9.8488891e-09
6.029211e-07
-1.1089992e-08
6.0538295e-07
-1.2331868e-08
6.0838146e-07
-1.3582142e-08
6.1206003e-07
-1.4878252e-08
6.1676588e-07
-1.6286951e-08
6.2343266e-07
-1.7648302e-08
6.3311295e-07
-1.7902897e-08
6.414789e-07
-1.5074358e-08
6.2655835e-07
-8.6057083e-09
5.4654285e-07
-2.0503457e-09
3.7203945e-07
1.3026957e-07
1.719832e-09
1.0442425e-07
7.7941648e-09
3.1948013e-07
1.5503612e-08
5.0957212e-07
2.0060671e-08
6.2048948e-07
2.059827e-08
6.5202782e-07
1.9240233e-08
6.4538091e-07
1.765646e-08
6.3277435e-07
1.6253539e-08
6.2379098e-07
1.4956065e-08
6.1781263e-07
1.3689513e-08
6.1332721e-07
1.2433036e-08
6.0970401e-07
1.1183079e-08
6.0672485e-07
9.9384211e-09
6.0426924e-07
8.6982449e-09
6.0224797e-07
7.4620792e-09
6.0059446e-07
6.2296426e-09
5.9925953e-07
5.0007012e-09
5.9820692e-07
3.7749956e-09
5.9741002e-07
2.5522179e-09
5.9684989e-07
1.3320159e-09
5.9651385e-07
1.1401598e-10
5.9639468e-07
-1.1021462e-09
5.9649012e-07
-2.3167899e-09
5.9680282e-07
-3.5301587e-09
5.9734049e-07
-4.7423972e-09
5.9811634e-07
-5.9535441e-09
5.9915007e-07
-7.1635563e-09
6.0046928e-07
-8.3723798e-09
6.0211174e-07
-9.5800644e-09
6.0412878e-07
-1.078688e-08
6.0658977e-07
-1.199421e-08
6.0958879e-07
-1.3211684e-08
6.132775e-07
-1.4478783e-08
6.1803298e-07
-1.5850221e-08
6.248041e-07
-1.7119888e-08
6.3438261e-07
-1.7203799e-08
6.4156281e-07
-1.4274824e-08
6.2362938e-07
-8.0296554e-09
5.4029768e-07
-1.9233964e-09
3.659332e-07
1.2834617e-07
1.6243768e-09
1.0280004e-07
7.2872159e-09
3.1381765e-07
1.4670199e-08
5.0218949e-07
1.9282479e-08
6.1587739e-07
2.0035711e-08
6.5127463e-07
1.8813752e-08
6.4660285e-07
1.7277676e-08
6.3431042e-07
1.5899727e-08
6.2516893e-07
1.4631384e-08
6.1908097e-07
1.3397765e-08
6.1456083e-07
1.2174783e-08
6.1092699e-07
1.0957753e-08
6.0794188e-07
9.745162e-09
6.0548183e-07
8.5360566e-09
6.0345708e-07
7.3299068e-09
6.0180061e-07
6.1264526e-09
6.0046299e-07
4.9255517e-09
5.9940782e-07
3.7270921e-09
5.9860848e-07
2.530954e-09
5.9804602e-07
1.3370014e-09
5.9770781e-07
1.4509196e-10
5.9758659e-07
-1.0449049e-09
5.9768012e-07
-2.2330843e-09
5.97991e-07
-3.4194889e-09
5.9852689e-07
-4.6040977e-09
5.9930095e-07
-5.7868353e-09
6.0033281e-07
-6.9676105e-09
6.0165005e-07
-8.1464021e-09
6.0329053e-07
-9.3233857e-09
6.0530577e-07
-1.0499088e-08
6.0776547e-07
-1.1675597e-08
6.107653e-07
-1.2864458e-08
6.1446636e-07
-1.4106259e-08
6.1927478e-07
-1.5441928e-08
6.2613977e-07
-1.6621981e-08
6.3556267e-07
-1.6549235e-08
6.4149006e-07
-1.3543568e-08
6.2062371e-07
-7.5194645e-09
5.3427358e-07
-1.8143515e-09
3.6022808e-07
1.2653182e-07
1.5362856e-09
1.0126394e-07
6.8317149e-09
3.0852264e-07
1.3901536e-08
4.9512008e-07
1.8544496e-08
6.1123467e-07
1.9494353e-08
6.5032483e-07
1.8406783e-08
6.4769041e-07
1.6919932e-08
6.3579726e-07
1.5565198e-08
6.2652366e-07
1.4322669e-08
6.203235e-07
1.311879e-08
6.1576471e-07
1.1926519e-08
6.1211926e-07