/*--------------------------------*- C++ -*----------------------------------*\
  =========                 |
  \\      /  F ield         | OpenFOAM: The Open Source CFD Toolbox
   \\    /   O peration     | Website:  https://openfoam.org
    \\  /    A nd           | Version:  10
     \\/     M anipulation  |
\*---------------------------------------------------------------------------*/
FoamFile
{
    format      ascii;
    class       volScalarField;
    location    "0.25";
    object      T;
}
// * * * * * * * * * * * * * * * * * * * * * * * * * * * * * * * * * * * * * //

dimensions      [0 0 0 1 0 0 0];

internalField   nonuniform List<scalar> 
4000
(
303.10135
299.3429
299.99042
300.00082
299.99993
300
300
300
300
300
300
300
300
300
300
300
300
300
300
300
300
300
300
300
300
300
300
300
300
300
300
300
300
300
300
300
300
300
300
300
309.66347
298.49296
299.77921
300.00184
300.0008
299.99999
300
300
300
300
300
300
300
300
300
300
300
300
300
300
300
300
300
300
300
300
300
300
300
300
300
300
300
300
300
300
300
300
300
300
316.00432
298.68457
299.39219
299.9757
300.00406
300.00025
299.99999
300
300
300
300
300
300
300
300
300
300
300
300
300
300
300
300
300
300
300
300
300
300
300
300
300
300
300
300
300
300
300
300
300
321.74242
299.84596
298.98477
299.89491
300.00716
300.00139
300
299.99999
300
300
300
300
300
300
300
300
300
300
300
300
300
300
300
300
300
300
300
300
300
300
300
300
300
300
300
300
300
300
300
300
326.67132
301.7006
298.70996
299.75311
300.00323
300.00379
300.00017
299.99998
300
300
300
300
300
300
300
300
300
300
300
300
300
300
300
300
300
300
300
300
300
300
300
300
300
300
300
300
300
300
300
300
330.68536
303.94824
298.66324
299.56827
299.98427
300.00697
300.00072
299.99997
299.99999
300
300
300
300
300
300
300
300
300
300
300
300
300
300
300
300
300
300
300
300
300
300
300
300
300
300
300
300
300
300
300
333.77479
306.33114
298.87089
299.37364
299.94516
300.00939
300.00181
300
299.99998
300
300
300
300
300
300
300
300
300
300
300
300
300
300
300
300
300
300
300
300
300
300
300
300
300
300
300
300
300
300
300
336.02237
308.66478
299.30783
299.20375
299.88577
300.00891
300.00346
300.00014
299.99997
300
300
300
300
300
300
300
300
300
300
300
300
300
300
300
300
300
300
300
300
300
300
300
300
300
300
300
300
300
300
300
337.57464
310.83831
299.92432
299.08454
299.81046
300.00352
300.00542
300.00046
299.99996
299.99999
300
300
300
300
300
300
300
300
300
300
300
300
300
300
300
300
300
300
300
300
300
300
300
300
300
300
300
300
300
300
338.60296
312.79901
300.66583
299.03048
299.72628
299.99192
300.00725
300.001
299.99996
299.99998
300
300
300
300
300
300
300
300
300
300
300
300
300
300
300
300
300
300
300
300
300
300
300
300
300
300
300
300
300
300
339.27004
314.53397
301.48372
299.04598
299.64095
299.97368
300.00841
300.00176
300.00001
299.99997
300
300
300
300
300
300
300
300
300
300
300
300
300
300
300
300
300
300
300
300
300
300
300
300
300
300
300
300
300
300
339.7092
316.05447
302.33964
299.12839
299.56151
299.94925
300.00835
300.00269
300.00012
299.99996
300
300
300
300
300
300
300
300
300
300
300
300
300
300
300
300
300
300
300
300
300
300
300
300
300
300
300
300
300
300
340.01707
317.38395
303.20595
299.27102
299.49355
299.91971
300.00662
300.00368
300.0003
299.99996
299.99999
300
300
300
300
300
300
300
300
300
300
300
300
300
300
300
300
300
300
300
300
300
300
300
300
300
300
300
300
300
340.25629
318.54991
304.06425
299.46547
299.44102
299.88652
300.00294
300.00462
300.00057
299.99996
299.99999
300
300
300
300
300
300
300
300
300
300
300
300
300
300
300
300
300
300
300
300
300
300
300
300
300
300
300
300
300
340.46335
319.57921
304.9032
299.70319
299.40638
299.8513
299.99715
300.00535
300.0009
299.99998
299.99998
300
300
300
300
300
300
300
300
300
300
300
300
300
300
300
300
300
300
300
300
300
300
300
300
300
300
300
300
300
340.65696
320.49569
305.71642
299.97626
299.39088
299.81562
299.98928
300.00575
300.0013
300.00003
299.99998
300
300
300
300
300
300
300
300
300
300
300
300
300
300
300
300
300
300
300
300
300
300
300
300
300
300
300
300
300
340.8452
321.31938
306.50086
300.27776
299.3949
299.78096
299.97946
300.00568
300.00174
300.0001
299.99997
300
300
300
300
300
300
300
300
300
300
300
300
300
300
300
300
300
300
300
300
300
300
300
300
300
300
300
300
300
341.03037
322.06652
307.25546
300.60178
299.41815
299.74859
299.96791
300.00505
300.00218
300.00019
299.99997
299.99999
300
300
300
300
300
300
300
300
300
300
300
300
300
300
300
300
300
300
300
300
300
300
300
300
300
300
300
300
341.21213
322.74994
307.98041
300.94343
299.45996
299.71962
299.95494
300.00378
300.00259
300.00031
299.99998
299.99999
300
300
300
300
300
300
300
300
300
300
300
300
300
300
300
300
300
300
300
300
300
300
300
300
300
300
300
300
341.38925
323.37964
308.67648
301.29861
299.5194
299.69495
299.94089
300.00182
300.00293
300.00046
299.99999
299.99999
300
300
300
300
300
300
300
300
300
300
300
300
300
300
300
300
300
300
300
300
300
300
300
300
300
300
300
300
341.56044
323.9634
309.3448
301.66396
299.59538
299.67529
299.92611
299.99915
300.00316
300.00063
300.00001
299.99999
300
300
300
300
300
300
300
300
300
300
300
300
300
300
300
300
300
300
300
300
300
300
300
300
300
300
300
300
341.72473
324.50728
309.98656
302.0367
299.68674
299.6612
299.91098
299.99578
300.00326
300.0008
300.00004
299.99998
300
300
300
300
300
300
300
300
300
300
300
300
300
300
300
300
300
300
300
300
300
300
300
300
300
300
300
300
341.88152
325.01604
310.603
302.41448
299.79232
299.65311
299.89586
299.99174
300.00318
300.00099
300.00007
299.99998
300
300
300
300
300
300
300
300
300
300
300
300
300
300
300
300
300
300
300
300
300
300
300
300
300
300
300
300
342.03061
325.49352
311.19528
302.79538
299.91095
299.65131
299.8811
299.98708
300.0029
300.00117
300.00012
299.99999
300
300
300
300
300
300
300
300
300
300
300
300
300
300
300
300
300
300
300
300
300
300
300
300
300
300
300
300
342.17205
325.94287
311.76456
303.17777
300.04149
299.65598
299.86704
299.98187
300.0024
300.00133
300.00017
299.99999
299.99999
300
300
300
300
300
300
300
300
300
300
300
300
300
300
300
300
300
300
300
300
300
300
300
300
300
300
300
342.3061
326.36671
312.3119
303.56026
300.18285
299.66722
299.85398
299.97617
300.00166
300.00147
300.00024
300
299.99999
300
300
300
300
300
300
300
300
300
300
300
300
300
300
300
300
300
300
300
300
300
300
300
300
300
300
300
342.43313
326.76732
312.83833
303.94173
300.334
299.68505
299.84221
299.97009
300.00067
300.00157
300.0003
300.00001
299.99999
300
300
300
300
300
300
300
300
300
300
300
300
300
300
300
300
300
300
300
300
300
300
300
300
300
300
300
342.55358
327.14666
313.34483
304.32121
300.49394
299.70944
299.832
299.96371
299.99943
300.00162
300.00038
300.00002
299.99999
300
300
300
300
300
300
300
300
300
300
300
300
300
300
300
300
300
300
300
300
300
300
300
300
300
300
300
342.66789
327.50648
313.83233
304.69788
300.66176
299.74029
299.82355
299.95715
299.99793
300.00161
300.00045
300.00003
299.99999
300
300
300
300
300
300
300
300
300
300
300
300
300
300
300
300
300
300
300
300
300
300
300
300
300
300
300
342.77653
327.84833
314.30173
305.07109
300.83659
299.77747
299.81709
299.9505
299.99619
300.00154
300.00052
300.00005
299.99999
300
300
300
300
300
300
300
300
300
300
300
300
300
300
300
300
300
300
300
300
300
300
300
300
300
300
300
342.87993
328.17363
314.75389
305.44027
301.01762
299.8208
299.81278
299.94388
299.99422
300.00139
300.00059
300.00008
300
300
300
300
300
300
300
300
300
300
300
300
300
300
300
300
300
300
300
300
300
300
300
300
300
300
300
300
342.97848
328.48363
315.18963
305.80497
301.20411
299.8701
299.81077
299.93738
299.99203
300.00116
300.00065
300.0001
300
300
300
300
300
300
300
300
300
300
300
300
300
300
300
300
300
300
300
300
300
300
300
300
300
300
300
300
343.07254
328.77948
315.60974
306.16481
301.39537
299.92514
299.81119
299.93113
299.98964
300.00084
300.00069
300.00013
300
300
300
300
300
300
300
300
300
300
300
300
300
300
300
300
300
300
300
300
300
300
300
300
300
300
300
300
343.16245
329.06219
316.01497
306.51951
301.59075
299.9857
299.81414
299.92522
299.98708
300.00042
300.00073
300.00015
300.00001
300
300
300
300
300
300
300
300
300
300
300
300
300
300
300
300
300
300
300
300
300
300
300
300
300
300
300
343.2485
329.33269
316.40604
306.86882
301.78966
300.05154
299.81969
299.91974
299.98438
299.99992
300.00074
300.00018
300.00001
300
300
300
300
300
300
300
300
300
300
300
300
300
300
300
300
300
300
300
300
300
300
300
300
300
300
300
343.33095
329.59182
316.78362
307.21256
301.99156
300.1224
299.82792
299.9148
299.98156
299.99931
300.00073
300.00021
300.00002
300
300
300
300
300
300
300
300
300
300
300
300
300
300
300
300
300
300
300
300
300
300
300
300
300
300
300
343.41005
329.84034
317.14834
307.55058
302.19595
300.19803
299.83886
299.91049
299.97866
299.99862
300.0007
300.00024
300.00003
300
300
300
300
300
300
300
300
300
300
300
300
300
300
300
300
300
300
300
300
300
300
300
300
300
300
300
343.486
330.07892
317.50083
307.8828
302.40236
300.27819
299.85254
299.90688
299.97571
299.99783
300.00064
300.00026
300.00004
300
300
300
300
300
300
300
300
300
300
300
300
300
300
300
300
300
300
300
300
300
300
300
300
300
300
300
343.55898
330.30817
317.84163
308.20914
302.61036
300.36261
299.86897
299.90407
299.97275
299.99695
300.00055
300.00028
300.00005
300
300
300
300
300
300
300
300
300
300
300
300
300
300
300
300
300
300
300
300
300
300
300
300
300
300
300
343.62917
330.52864
318.17127
308.52955
302.81958
300.45104
299.88815
299.90211
299.96982
299.99598
300.00043
300.0003
300.00006
300
300
300
300
300
300
300
300
300
300
300
300
300
300
300
300
300
300
300
300
300
300
300
300
300
300
300
343.69672
330.74083
318.49026
308.84401
303.02964
300.54323
299.91006
299.90108
299.96695
299.99494
300.00027
300.00031
300.00007
300
300
300
300
300
300
300
300
300
300
300
300
300
300
300
300
300
300
300
300
300
300
300
300
300
300
300
343.76175
330.94518
318.79906
309.15252
303.24022
300.63895
299.93468
299.90104
299.96418
299.99382
300.00008
300.00032
300.00008
300.00001
300
300
300
300
300
300
300
300
300
300
300
300
300
300
300
300
300
300
300
300
300
300
300
300
300
300
343.82438
331.14209
319.09808
309.45508
303.45102
300.73794
299.96197
299.90204
299.96155
299.99265
299.99985
300.00031
300.00009
300.00001
300
300
300
300
300
300
300
300
300
300
300
300
300
300
300
300
300
300
300
300
300
300
300
300
300
300
343.88473
331.33193
319.38773
309.75172
303.66174
300.83998
299.9919
299.90413
299.95909
299.99142
299.99958
300.0003
300.0001
300.00001
300
300
300
300
300
300
300
300
300
300
300
300
300
300
300
300
300
300
300
300
300
300
300
300
300
300
343.94287
331.515
319.66838
310.04246
303.87214
300.94483
300.0244
299.90736
299.95685
299.99015
299.99927
300.00028
300.00011
300.00002
300
300
300
300
300
300
300
300
300
300
300
300
300
300
300
300
300
300
300
300
300
300
300
300
300
300
343.9989
331.69162
319.94036
310.32734
304.08196
301.05228
300.05941
299.91176
299.95485
299.98885
299.99893
300.00025
300.00012
300.00002
300
300
300
300
300
300
300
300
300
300
300
300
300
300
300
300
300
300
300
300
300
300
300
300
300
300
344.05288
331.86203
320.20399
310.60638
304.29099
301.1621
300.09689
299.91736
299.95314
299.98754
299.99856
300.0002
300.00012
300.00002
300
300
300
300
300
300
300
300
300
300
300
300
300
300
300
300
300
300
300
300
300
300
300
300
300
300
344.10487
332.02646
320.45954
310.87964
304.49901
301.27408
300.13675
299.92418
299.95174
299.98622
299.99814
300.00015
300.00013
300.00003
300
300
300
300
300
300
300
300
300
300
300
300
300
300
300
300
300
300
300
300
300
300
300
300
300
300
344.15493
332.18511
320.70727
311.14714
304.70584
301.38802
300.17892
299.93226
299.95069
299.98491
299.9977
300.00008
300.00013
300.00003
300
300
300
300
300
300
300
300
300
300
300
300
300
300
300
300
300
300
300
300
300
300
300
300
300
300
344.2031
332.33816
320.94743
311.40893
304.91129
301.50372
300.22332
299.94159
299.95002
299.98363
299.99723
299.99999
300.00013
300.00004
300
300
300
300
300
300
300
300
300
300
300
300
300
300
300
300
300
300
300
300
300
300
300
300
300
300
344.2494
332.48577
321.1802
311.66504
305.11518
301.62097
300.26986
299.9522
299.94977
299.98238
299.99672
299.99989
300.00012
300.00004
300.00001
300
300
300
300
300
300
300
300
300
300
300
300
300
300
300
300
300
300
300
300
300
300
300
300
300
344.29388
332.62806
321.40578
311.91549
305.31736
301.73959
300.31847
299.96409
299.94994
299.98119
299.9962
299.99978
300.00012
300.00004
300.00001
300
300
300
300
300
300
300
300
300
300
300
300
300
300
300
300
300
300
300
300
300
300
300
300
300
344.33653
332.76513
321.62433
312.16033
305.51767
301.8594
300.36905
299.97726
299.95058
299.98007
299.99565
299.99965
300.00011
300.00004
300.00001
300
300
300
300
300
300
300
300
300
300
300
300
300
300
300
300
300
300
300
300
300
300
300
300
300
344.37738
332.89706
321.83599
312.39957
305.71597
301.98021
300.42151
299.9917
299.9517
299.97903
299.99509
299.99951
300.00009
300.00005
300.00001
300
300
300
300
300
300
300
300
300
300
300
300
300
300
300
300
300
300
300
300
300
300
300
300
300
344.41642
333.02392
322.04087
312.63321
305.9121
302.10184
300.47575
300.0074
299.95334
299.97809
299.99452
299.99935
300.00007
300.00005
300.00001
300
300
300
300
300
300
300
300
300
300
300
300
300
300
300
300
300
300
300
300
300
300
300
300
300
344.45364
333.14575
322.23907
312.86128
306.10593
302.22412
300.53168
300.02436
299.95549
299.97727
299.99394
299.99918
300.00004
300.00005
300.00001
300
300
300
300
300
300
300
300
300
300
300
300
300
300
300
300
300
300
300
300
300
300
300
300
300
344.48904
333.26255
322.43065
313.08376
306.29733
302.34688
300.58919
300.04256
299.95819
299.97657
299.99336
299.99899
300.00001
300.00005
300.00001
300
300
300
300
300
300
300
300
300
300
300
300
300
300
300
300
300
300
300
300
300
300
300
300
300
344.52258
333.37433
322.61565
313.30064
306.48616
302.46995
300.64819
300.06197
299.96145
299.97602
299.99279
299.9988
299.99998
300.00005
300.00001
300
300
300
300
300
300
300
300
300
300
300
300
300
300
300
300
300
300
300
300
300
300
300
300
300
344.55426
333.48106
322.79411
313.51191
306.67229
302.59316
300.70857
300.08258
299.96528
299.97562
299.99222
299.99859
299.99994
300.00005
300.00002
300
300
300
300
300
300
300
300
300
300
300
300
300
300
300
300
300
300
300
300
300
300
300
300
300
344.58403
333.58268
322.96601
313.71751
306.85559
302.71635
300.77023
300.10435
299.9697
299.97539
299.99167
299.99837
299.99989
300.00004
300.00002
300
300
300
300
300
300
300
300
300
300
300
300
300
300
300
300
300
300
300
300
300
300
300
300
300
344.61187
333.67915
323.13134
313.91742
307.03592
302.83935
300.83305
300.12725
299.9747
299.97534
299.99114
299.99814
299.99983
300.00004
300.00002
300
300
300
300
300
300
300
300
300
300
300
300
300
300
300
300
300
300
300
300
300
300
300
300
300
344.63774
333.77037
323.29004
314.11156
307.21316
302.96201
300.89694
300.15125
299.98031
299.97549
299.99064
299.9979
299.99978
300.00003
300.00002
300
300
300
300
300
300
300
300
300
300
300
300
300
300
300
300
300
300
300
300
300
300
300
300
300
344.66162
333.85625
323.44205
314.29986
307.38715
303.08416
300.96177
300.17631
299.98651
299.97585
299.99017
299.99766
299.99971
300.00002
300.00002
300
300
300
300
300
300
300
300
300
300
300
300
300
300
300
300
300
300
300
300
300
300
300
300
300
344.68347
333.9367
323.58726
314.48224
307.55778
303.20564
301.02744
300.20239
299.99331
299.97642
299.98974
299.99741
299.99964
300.00001
300.00002
300.00001
300
300
300
300
300
300
300
300
300
300
300
300
300
300
300
300
300
300
300
300
300
300
300
300
344.70328
334.01162
323.72557
314.65858
307.72488
303.32629
301.09382
300.22944
300.00072
299.97722
299.98936
299.99717
299.99957
300
300.00002
300.00001
300
300
300
300
300
300
300
300
300
300
300
300
300
300
300
300
300
300
300
300
300
300
300
300
344.72105
334.08089
323.85683
314.82877
307.8883
303.44595
301.16081
300.25742
300.00872
299.97826
299.98903
299.99692
299.99949
299.99998
300.00002
300.00001
300
300
300
300
300
300
300
300
300
300
300
300
300
300
300
300
300
300
300
300
300
300
300
300
344.73677
334.14445
323.98092
314.99266
308.0479
303.56445
301.22829
300.28626
300.01731
299.97954
299.98876
299.99667
299.9994
299.99996
300.00002
300.00001
300
300
300
300
300
300
300
300
300
300
300
300
300
300
300
300
300
300
300
300
300
300
300
300
344.75047
334.20221
324.09767
315.15011
308.20351
303.68162
301.29613
300.31593
300.02649
299.98107
299.98856
299.99643
299.99931
299.99994
300.00001
300.00001
300
300
300
300
300
300
300
300
300
300
300
300
300
300
300
300
300
300
300
300
300
300
300
300
344.7622
334.25415
324.20693
315.30095
308.35495
303.79731
301.36421
300.34636
300.03624
299.98286
299.98843
299.9962
299.99922
299.99992
300.00001
300.00001
300
300
300
300
300
300
300
300
300
300
300
300
300
300
300
300
300
300
300
300
300
300
300
300
344.772
334.30027
324.30856
315.445
308.50206
303.91135
301.43241
300.37749
300.04655
299.98492
299.98837
299.99597
299.99912
299.9999
300.00001
300.00001
300
300
300
300
300
300
300
300
300
300
300
300
300
300
300
300
300
300
300
300
300
300
300
300
344.77997
334.34063
324.40241
315.58209
308.64466
304.02356
301.50061
300.40926
300.0574
299.98724
299.9884
299.99576
299.99902
299.99987
300
300.00001
300
300
300
300
300
300
300
300
300
300
300
300
300
300
300
300
300
300
300
300
300
300
300
300
344.78622
334.37532
324.4884
315.71202
308.78254
304.13378
301.56868
300.44161
300.06878
299.98982
299.98851
299.99556
299.99892
299.99984
300
300.00001
300
300
300
300
300
300
300
300
300
300
300
300
300
300
300
300
300
300
300
300
300
300
300
300
344.79085
334.40452
324.56646
315.83462
308.91554
304.24183
301.63649
300.47446
300.08066
299.99268
299.98871
299.99538
299.99882
299.99981
299.99999
300.00001
300
300
300
300
300
300
300
300
300
300
300
300
300
300
300
300
300
300
300
300
300
300
300
300
344.79403
334.42846
324.63658
315.94973
309.04345
304.34755
301.70391
300.50775
300.09303
299.99581
299.98901
299.99521
299.99872
299.99978
299.99999
300.00001
300
300
300
300
300
300
300
300
300
300
300
300
300
300
300
300
300
300
300
300
300
300
300
300
344.79591
334.44744
324.69882
316.05719
309.16609
304.45075
301.77082
300.54141
300.10587
299.9992
299.98941
299.99507
299.99862
299.99975
299.99998
300
300
300
300
300
300
300
300
300
300
300
300
300
300
300
300
300
300
300
300
300
300
300
300
300
344.79667
334.46182
324.75331
316.1569
309.28329
304.55128
301.83709
300.57538
300.11913
300.00287
299.98992
299.99496
299.99852
299.99971
299.99997
300
300
300
300
300
300
300
300
300
300
300
300
300
300
300
300
300
300
300
300
300
300
300
300
300
344.79648
334.47204
324.80026
316.2488
309.39488
304.64898
301.9026
300.60956
300.1328
300.00679
299.99053
299.99487
299.99842
299.99968
299.99996
300
300
300
300
300
300
300
300
300
300
300
300
300
300
300
300
300
300
300
300
300
300
300
300
300
344.79553
334.47857
324.83999
316.33286
309.50072
304.74368
301.96722
300.6439
300.14686
300.01097
299.99125
299.99481
299.99832
299.99964
299.99995
300
300
300
300
300
300
300
300
300
300
300
300
300
300
300
300
300
300
300
300
300
300
300
300
300
344.79401
334.48192
324.87289
316.40916
309.60071
304.83525
302.03084
300.67832
300.16125
300.01541
299.99208
299.99478
299.99823
299.9996
299.99994
300
300
300
300
300
300
300
300
300
300
300
300
300
300
300
300
300
300
300
300
300
300
300
300
300
344.79208
334.48263
324.89948
316.47782
309.69475
304.92356
302.09333
300.71274
300.17597
300.02009
299.99302
299.99479
299.99815
299.99956
299.99993
300
300
300
300
300
300
300
300
300
300
300
300
300
300
300
300
300
300
300
300
300
300
300
300
300
344.78991
334.48127
324.92033
316.53906
309.78281
305.00848
302.15461
300.74711
300.19097
300.02501
299.99408
299.99483
299.99807
299.99952
299.99992
299.99999
300
300
300
300
300
300
300
300
300
300
300
300
300
300
300
300
300
300
300
300
300
300
300
300
344.78764
334.47837
324.93611
316.59321
309.86492
305.08994
302.21456
300.78134
300.20623
300.03015
299.99525
299.99491
299.998
299.99948
299.99991
299.99999
300
300
300
300
300
300
300
300
300
300
300
300
300
300
300
300
300
300
300
300
300
300
300
300
344.78538
334.47446
324.94755
316.64066
309.94113
305.16787
302.27309
300.81539
300.22171
300.03552
299.99654
299.99503
299.99794
299.99944
299.9999
299.99999
300
300
300
300
300
300
300
300
300
300
300
300
300
300
300
300
300
300
300
300
300
300
300
300
344.78323
334.47002
324.95541
316.6819
310.0116
305.24223
302.33014
300.84917
300.23737
300.04109
299.99794
299.99519
299.99788
299.9994
299.99988
299.99999
300
300
300
300
300
300
300
300
300
300
300
300
300
300
300
300
300
300
300
300
300
300
300
300
344.78125
334.46545
324.96048
316.71751
310.0765
305.31301
302.38564
300.88265
300.25319
300.04687
299.99945
299.9954
299.99784
299.99936
299.99987
299.99998
300
300
300
300
300
300
300
300
300
300
300
300
300
300
300
300
300
300
300
300
300
300
300
300
344.77946
334.46109
324.96351
316.74813
310.13611
305.38024
302.43955
300.91576
300.26914
300.05282
300.00107
299.99564
299.99781
299.99932
299.99985
299.99998
300
300
300
300
300
300
300
300
300
300
300
300
300
300
300
300
300
300
300
300
300
300
300
300
344.77787
334.4572
324.96525
316.77446
310.19074
305.44399
302.49181
300.94846
300.28519
300.05896
300.00281
299.99593
299.99779
299.99929
299.99984
299.99998
300
300
300
300
300
300
300
300
300
300
300
300
300
300
300
300
300
300
300
300
300
300
300
300
344.77646
334.45393
324.96635
316.79721
310.24078
305.50436
302.54243
300.98071
300.3013
300.06525
300.00464
299.99626
299.99778
299.99925
299.99982
299.99997
300
300
300
300
300
300
300
300
300
300
300
300
300
300
300
300
300
300
300
300
300
300
300
300
344.77517
334.45134
324.96738
316.81711
310.28664
305.56148
302.5914
301.01248
300.31746
300.0717
300.00659
299.99664
299.99778
299.99922
299.99981
299.99997
300
300
300
300
300
300
300
300
300
300
300
300
300
300
300
300
300
300
300
300
300
300
300
300
344.77394
334.44939
324.96876
316.83487
310.3288
305.61551
302.63874
301.04374
300.33364
300.07829
300.00863
299.99707
299.9978
299.99919
299.99979
299.99996
300
300
300
300
300
300
300
300
300
300
300
300
300
300
300
300
300
300
300
300
300
300
300
300
344.77268
334.44797
324.97082
316.85114
310.36771
305.66665
302.68446
301.07447
300.34982
300.08501
300.01078
299.99754
299.99783
299.99917
299.99978
299.99996
299.99999
300
300
300
300
300
300
300
300
300
300
300
300
300
300
300
300
300
300
300
300
300
300
300
344.77132
334.4469
324.97372
316.8665
310.40388
305.7151
302.72863
301.10465
300.36597
300.09185
300.01301
299.99806
299.99788
299.99914
299.99976
299.99995
299.99999
300
300
300
300
300
300
300
300
300
300
300
300
300
300
300
300
300
300
300
300
300
300
300
344.76976
334.44592
324.97748
316.88144
310.43778
305.7611
302.7713
301.13428
300.38208
300.0988
300.01535
299.99862
299.99795
299.99912
299.99975
299.99995
299.99999
300
300
300
300
300
300
300
300
300
300
300
300
300
300
300
300
300
300
300
300
300
300
300
344.76793
334.44476
324.98199
316.89632
310.46984
305.80489
302.81253
301.16335
300.39814
300.10584
300.01777
299.99923
299.99803
299.99911
299.99973
299.99994
299.99999
300
300
300
300
300
300
300
300
300
300
300
300
300
300
300
300
300
300
300
300
300
300
300
344.76575
334.44313
324.98702
316.91139
310.50047
305.84669
302.85239
301.19187
300.41412
300.11297
300.02027
299.99988
299.99813
299.9991
299.99972
299.99994
299.99999
300
300
300
300
300
300
300
300
300
300
300
300
300
300
300
300
300
300
300
300
300
300
300
344.76318
334.44076
324.99223
316.92675
310.53002
305.88677
302.891
301.21986
300.43003
300.12019
300.02286
300.00058
299.99824
299.99909
299.99971
299.99993
299.99999
300
300
300
300
300
300
300
300
300
300
300
300
300
300
300
300
300
300
300
300
300
300
300
344.76018
334.43736
324.99719
316.94233
310.55865
305.92518
302.92827
301.24719
300.44578
300.12744
300.02551
300.00131
299.99837
299.99909
299.99969
299.99992
299.99999
300
300
300
300
300
300
300
300
300
300
300
300
300
300
300
300
300
300
300
300
300
300
300
344.75685
334.4329
325.0016
316.95831
310.5872
305.963
302.96519
301.2746
300.4618
300.13495
300.02832
300.00212
299.99853
299.99909
299.99968
299.99992
299.99998
300
300
300
300
300
300
300
300
300
300
300
300
300
300
300
300
300
300
300
300
300
300
300
344.75286
334.42695
325.00464
316.97258
310.61214
305.99559
302.99699
301.29832
300.47575
300.14152
300.0308
300.00284
299.99867
299.9991
299.99967
299.99991
299.99998
300
300
300
300
300
300
300
300
300
300
300
300
300
300
300
300
300
300
300
300
300
300
300
344.74937
334.41808
325.00708
316.99529
310.65324
306.04885
303.04937
301.33811
300.49969
300.15312
300.03533
300.00423
299.99897
299.99912
299.99966
299.9999
299.99998
300
300
300
300
300
300
300
300
300
300
300
300
300
300
300
300
300
300
300
300
300
300
300
)
;

boundaryField
{
    wall
    {
        type            fixedValue;
        value           uniform 350;
    }
    sides
    {
        type            zeroGradient;
    }
    frontAndBack
    {
        type            empty;
    }
    inlet
    {
        type            fixedValue;
        value           uniform 300;
    }
    outlet
    {
        type            zeroGradient;
    }
}


// ************************************************************************* //
