/*--------------------------------*- C++ -*----------------------------------*\
  =========                 |
  \\      /  F ield         | OpenFOAM: The Open Source CFD Toolbox
   \\    /   O peration     | Website:  https://openfoam.org
    \\  /    A nd           | Version:  10
     \\/     M anipulation  |
\*---------------------------------------------------------------------------*/
FoamFile
{
    format      ascii;
    class       volVectorField;
    location    "0.25";
    object      U;
}
// * * * * * * * * * * * * * * * * * * * * * * * * * * * * * * * * * * * * * //

dimensions      [0 1 -1 0 0 0 0];

internalField   nonuniform List<vector> 
4000
(
(0 0.018637458 0.47773157)
(0 0.023510004 0.50886061)
(0 0.0081668586 0.50052521)
(0 0.0056146193 0.50033634)
(0 0.0042546344 0.50025746)
(0 0.0032549512 0.50016898)
(0 0.002556098 0.50011969)
(0 0.0020545904 0.50009013)
(0 0.0016765891 0.50006981)
(0 0.0013822509 0.50005539)
(0 0.0011472034 0.50004499)
(0 0.00095510774 0.50003733)
(0 0.00079470976 0.5000316)
(0 0.00065803378 0.50002727)
(0 0.00053925148 0.50002399)
(0 0.00043398221 0.50002151)
(0 0.00033883864 0.50001966)
(0 0.00025111883 0.50001834)
(0 0.00016859014 0.50001744)
(0 8.9330686e-05 0.50001694)
(0 1.1607081e-05 0.50001679)
(0 -6.6232693e-05 0.50001699)
(0 -0.0001458508 0.50001755)
(0 -0.00022901182 0.5000185)
(0 -0.00031769319 0.50001991)
(0 -0.00041421604 0.50002185)
(0 -0.00052141679 0.50002446)
(0 -0.00064288661 0.50002793)
(0 -0.00078331917 0.50003252)
(0 -0.00094904054 0.50003863)
(0 -0.0011488602 0.50004688)
(0 -0.0013954365 0.50005824)
(0 -0.0017075157 0.50007414)
(0 -0.0021154465 0.50009709)
(0 -0.002675143 0.50013481)
(0 -0.0034687148 0.50020238)
(0 -0.0045609391 0.50027143)
(0 -0.0065851269 0.50043364)
(0 -0.01765956 0.50675407)
(0 -0.013590177 0.47975561)
(0 0.037432692 0.44796925)
(0 0.050955761 0.53232616)
(0 0.02196934 0.5080429)
(0 0.016135665 0.50357318)
(0 0.012416109 0.50242316)
(0 0.0095159839 0.501623)
(0 0.0075206532 0.50115662)
(0 0.0060699272 0.50086593)
(0 0.0049646083 0.50066801)
(0 0.0041001638 0.50052902)
(0 0.0034076437 0.50042905)
(0 0.0028401005 0.50035555)
(0 0.0023651605 0.50030066)
(0 0.00195974 0.50025926)
(0 0.001606879 0.50022791)
(0 0.0012937823 0.50020425)
(0 0.0010105253 0.50018665)
(0 0.00074917025 0.50017397)
(0 0.00050314331 0.50016547)
(0 0.00026677516 0.50016063)
(0 3.4945559e-05 0.5001592)
(0 -0.00019722462 0.50016111)
(0 -0.0004346443 0.50016645)
(0 -0.00068252364 0.50017556)
(0 -0.00094669262 0.50018897)
(0 -0.0012339803 0.50020752)
(0 -0.0015527103 0.50023246)
(0 -0.0019133888 0.50026557)
(0 -0.0023296963 0.50030949)
(0 -0.0028199725 0.5003681)
(0 -0.0034095921 0.50044735)
(0 -0.0041349308 0.5005567)
(0 -0.0050490669 0.50071126)
(0 -0.0062318653 0.5009366)
(0 -0.0078322091 0.50129437)
(0 -0.010125886 0.50191051)
(0 -0.013107003 0.50282508)
(0 -0.0174264 0.50608116)
(0 -0.03875916 0.52526812)
(0 -0.02789473 0.45021639)
(0 0.039888292 0.40982053)
(0 0.06142818 0.54930815)
(0 0.031983821 0.52188197)
(0 0.024355578 0.51008056)
(0 0.019193719 0.50658858)
(0 0.014977262 0.50452809)
(0 0.012006838 0.50327141)
(0 0.0097720408 0.50245841)
(0 0.0080366287 0.5019011)
(0 0.0066649562 0.50150873)
(0 0.0055568028 0.50122551)
(0 0.0046426345 0.50101677)
(0 0.0038737135 0.50086062)
(0 0.0032146441 0.50074271)
(0 0.0026390926 0.50065333)
(0 0.0021270057 0.50058581)
(0 0.0016627072 0.50053555)
(0 0.0012335774 0.50049934)
(0 0.00082910949 0.50047502)
(0 0.00044020493 0.5004612)
(0 5.8622814e-05 0.50045711)
(0 -0.00032349801 0.50046254)
(0 -0.00071406572 0.50047782)
(0 -0.0011214593 0.50050384)
(0 -0.0015550234 0.50054214)
(0 -0.0020256523 0.5005951)
(0 -0.0025465441 0.50066622)
(0 -0.0031342311 0.50076058)
(0 -0.003810043 0.50088557)
(0 -0.004602219 0.50105212)
(0 -0.0055491133 0.50127675)
(0 -0.006704706 0.5015856)
(0 -0.0081461972 0.50202078)
(0 -0.009977675 0.5026507)
(0 -0.012371954 0.50361505)
(0 -0.015716993 0.50519914)
(0 -0.019873392 0.50785386)
(0 -0.025187057 0.5164122)
(0 -0.047417569 0.53912724)
(0 -0.030853861 0.41487987)
(0 0.034791609 0.36173001)
(0 0.063838995 0.55456332)
(0 0.039380519 0.53747138)
(0 0.030083505 0.51849263)
(0 0.024112736 0.51197732)
(0 0.019279731 0.50849948)
(0 0.015736307 0.50626429)
(0 0.012954307 0.50475549)
(0 0.010743766 0.50370448)
(0 0.0089679942 0.50295619)
(0 0.0075139611 0.50241115)
(0 0.0063020018 0.50200687)
(0 0.0052743115 0.50170309)
(0 0.0043876337 0.50147286)
(0 0.0036091523 0.50129786)
(0 0.0029134841 0.50116538)
(0 0.0022805233 0.50106658)
(0 0.0016939103 0.50099532)
(0 0.0011399048 0.5009474)
(0 0.000606528 0.50092014)
(0 8.2879709e-05 0.50091207)
(0 -0.00044146018 0.50092276)
(0 -0.00097697214 0.50095286)
(0 -0.0015347256 0.50100407)
(0 -0.0021269991 0.50107939)
(0 -0.0027679977 0.50118339)
(0 -0.0034747597 0.50132278)
(0 -0.0042683618 0.50150726)
(0 -0.005175583 0.50175081)
(0 -0.0062312018 0.50207391)
(0 -0.0074810855 0.50250704)
(0 -0.0089874652 0.5030972)
(0 -0.01083771 0.5039191)
(0 -0.013138379 0.5050891)
(0 -0.016025129 0.50680671)
(0 -0.019900527 0.50946731)
(0 -0.024732452 0.51427468)
(0 -0.031114332 0.52824687)
(0 -0.050320412 0.54407168)
(0 -0.028438628 0.37238021)
(0 0.027424292 0.31484317)
(0 0.062314982 0.55024061)
(0 0.04461472 0.55146766)
(0 0.033982204 0.52748816)
(0 0.027464234 0.51772246)
(0 0.022455335 0.51291986)
(0 0.01863695 0.50973148)
(0 0.015528274 0.50749269)
(0 0.013006326 0.5059)
(0 0.01094228 0.50474697)
(0 0.0092247542 0.50389622)
(0 0.0077748969 0.50325926)
(0 0.0065327217 0.5027772)
(0 0.0054518036 0.50240982)
(0 0.0044960943 0.50212932)
(0 0.0036371285 0.50191625)
(0 0.0028519622 0.50175692)
(0 0.0021216566 0.50164175)
(0 0.0014301177 0.5015642)
(0 0.00076318595 0.50152002)
(0 0.00010789714 0.5015069)
(0 -0.00054817894 0.50152419)
(0 -0.0012175408 0.50157287)
(0 -0.0019133344 0.50165565)
(0 -0.0026500373 0.5017772)
(0 -0.0034442286 0.50194468)
(0 -0.0043155347 0.50216848)
(0 -0.00528784 0.50246349)
(0 -0.0063908951 0.50285098)
(0 -0.0076624749 0.50336157)
(0 -0.0091508424 0.50403991)
(0 -0.010918434 0.50495255)
(0 -0.013052085 0.50620229)
(0 -0.015655591 0.50794401)
(0 -0.018816805 0.5104041)
(0 -0.022897232 0.51405456)
(0 -0.028178345 0.5211452)
(0 -0.035708431 0.5393263)
(0 -0.050477591 0.54155485)
(0 -0.02408658 0.33055755)
(0 0.019837942 0.27519764)
(0 0.05799015 0.53974648)
(0 0.047364117 0.56256477)
(0 0.036477894 0.53660459)
(0 0.029636394 0.52350714)
(0 0.024676398 0.51740333)
(0 0.020774511 0.51336307)
(0 0.017510039 0.51044461)
(0 0.01481448 0.50832431)
(0 0.012566905 0.50676194)
(0 0.01066579 0.50559294)
(0 0.009039141 0.50470818)
(0 0.0076293412 0.50403272)
(0 0.0063905299 0.50351436)
(0 0.0052862482 0.50311637)
(0 0.0042870275 0.50281271)
(0 0.0033686397 0.50258485)
(0 0.0025107489 0.50241971)
(0 0.0016958316 0.50230826)
(0 0.00090830175 0.50224467)
(0 0.00013378299 0.50222573)
(0 -0.00064155721 0.50225052)
(0 -0.0014316229 0.50232043)
(0 -0.0022509676 0.50243916)
(0 -0.0031154862 0.50261316)
(0 -0.0040431647 0.50285223)
(0 -0.0050549777 0.5031705)
(0 -0.0061759899 0.50358797)
(0 -0.0074367503 0.50413282)
(0 -0.0088751866 0.50484499)
(0 -0.010538564 0.50578148)
(0 -0.012485175 0.50702459)
(0 -0.014795234 0.50869747)
(0 -0.017570523 0.51098175)
(0 -0.020865022 0.5141198)
(0 -0.024975005 0.51872994)
(0 -0.030509877 0.52822967)
(0 -0.038631365 0.54872393)
(0 -0.048509831 0.53398398)
(0 -0.019067317 0.2939384)
(0 0.013083216 0.24255476)
(0 0.051798986 0.5252005)
(0 0.047709793 0.57024851)
(0 0.037757424 0.54552499)
(0 0.030850777 0.52928865)
(0 0.026073911 0.5218017)
(0 0.022238372 0.51699798)
(0 0.01895409 0.51347354)
(0 0.016193877 0.51086505)
(0 0.013849928 0.50891257)
(0 0.011835747 0.50743281)
(0 0.010088749 0.50630072)
(0 0.0085563127 0.50542856)
(0 0.00719569 0.5047542)
(0 0.005972082 0.50423325)
(0 0.0048566718 0.50383379)
(0 0.0038252726 0.50353285)
(0 0.0028572143 0.50331405)
(0 0.0019344104 0.50316604)
(0 0.001040579 0.50308143)
(0 0.00016057812 0.50305612)
(0 -0.00072021837 0.50308898)
(0 -0.0016165077 0.50318171)
(0 -0.0025435934 0.50333904)
(0 -0.0035180397 0.50356912)
(0 -0.0045583498 0.50388423)
(0 -0.0056857611 0.50430196)
(0 -0.0069251864 0.50484695)
(0 -0.0083063303 0.50555345)
(0 -0.0098652626 0.50646926)
(0 -0.011646178 0.50766153)
(0 -0.013701321 0.5092251)
(0 -0.0161002 0.51129795)
(0 -0.018938109 0.51407944)
(0 -0.022246415 0.51783839)
(0 -0.026265941 0.52346758)
(0 -0.031849697 0.53537502)
(0 -0.039760805 0.55589663)
(0 -0.044895158 0.52282289)
(0 -0.014091019 0.26264509)
(0 0.0077701487 0.21554094)
(0 0.044825996 0.5080099)
(0 0.046255907 0.57438085)
(0 0.038035782 0.55375136)
(0 0.031288368 0.53496058)
(0 0.026768836 0.52603035)
(0 0.023117192 0.52053851)
(0 0.019921272 0.51648834)
(0 0.017182524 0.51344176)
(0 0.014813734 0.51113077)
(0 0.012746472 0.50935966)
(0 0.010928686 0.50799116)
(0 0.0093144759 0.50692764)
(0 0.0078658744 0.50609919)
(0 0.0065511391 0.50545521)
(0 0.0053433151 0.50495886)
(0 0.0042192938 0.50458335)
(0 0.0031589464 0.50430943)
(0 0.0021443723 0.50412365)
(0 0.0011592491 0.50401722)
(0 0.00018826422 0.50398524)
(0 -0.00078343546 0.50402634)
(0 -0.0017707714 0.50414258)
(0 -0.002789196 0.50433958)
(0 -0.0038552784 0.50462701)
(0 -0.0049872802 0.50501938)
(0 -0.0062058181 0.50553729)
(0 -0.0075346285 0.50620934)
(0 -0.0090013936 0.50707487)
(0 -0.010638908 0.50818803)
(0 -0.01248675 0.50962407)
(0 -0.014590052 0.51148803)
(0 -0.017005013 0.51392881)
(0 -0.019813294 0.51715513)
(0 -0.023030857 0.52148005)
(0 -0.026880236 0.52818247)
(0 -0.032352182 0.54222023)
(0 -0.03940474 0.560502)
(0 -0.040329411 0.50908342)
(0 -0.0097083834 0.23585725)
(0 0.0040049811 0.19355623)
(0 0.037899703 0.48948698)
(0 0.043687528 0.57524008)
(0 0.03756455 0.5608452)
(0 0.031154875 0.54036126)
(0 0.026914841 0.53001151)
(0 0.023514771 0.52390197)
(0 0.020480945 0.51941281)
(0 0.017827341 0.51598807)
(0 0.01549 0.51335922)
(0 0.013418594 0.51132445)
(0 0.011571772 0.50973788)
(0 0.0099113744 0.50849487)
(0 0.0084051676 0.50751975)
(0 0.0070253238 0.50675715)
(0 0.0057475736 0.50616636)
(0 0.0045506367 0.50571751)
(0 0.0034155962 0.50538898)
(0 0.00232534 0.50516557)
(0 0.0012640549 0.50503728)
(0 0.00021676872 0.50499853)
(0 -0.00083110337 0.50504777)
(0 -0.001894211 0.50518732)
(0 -0.0029876396 0.50542359)
(0 -0.004127409 0.50576755)
(0 -0.0053309305 0.50623556)
(0 -0.0066175218 0.50685072)
(0 -0.0080089906 0.50764484)
(0 -0.0095301908 0.50866126)
(0 -0.011209719 0.50995907)
(0 -0.01308144 0.51161959)
(0 -0.015182871 0.51375547)
(0 -0.017556647 0.51652247)
(0 -0.020266916 0.52013165)
(0 -0.023321543 0.52496321)
(0 -0.026962524 0.5327399)
(0 -0.03220412 0.54839066)
(0 -0.037996236 0.56254357)
(0 -0.035415869 0.49379236)
(0 -0.006200736 0.21325196)
(0 0.0015511181 0.17613335)
(0 0.031499795 0.47076154)
(0 0.040532845 0.57338571)
(0 0.036559603 0.5665986)
(0 0.030637995 0.5453786)
(0 0.026672314 0.53370472)
(0 0.023543732 0.52703245)
(0 0.020711019 0.52218865)
(0 0.018183509 0.51845153)
(0 0.015917738 0.51555139)
(0 0.013879276 0.51328608)
(0 0.012036692 0.51150496)
(0 0.010359686 0.510099)
(0 0.0088220033 0.50898871)
(0 0.007400114 0.50811534)
(0 0.0060729048 0.50743538)
(0 0.0048214026 0.50691666)
(0 0.003628369 0.50653571)
(0 0.0024779275 0.50627595)
(0 0.0013552011 0.50612642)
(0 0.00024597045 0.50608101)
(0 -0.00086367741 0.50613797)
(0 -0.0019877148 0.5062999)
(0 -0.0031404458 0.5065738)
(0 -0.0043369098 0.50697169)
(0 -0.0055932153 0.5075114)
(0 -0.0069269069 0.50821796)
(0 -0.0083573716 0.50912558)
(0 -0.009906177 0.51028058)
(0 -0.01159733 0.51174551)
(0 -0.013458554 0.51360573)
(0 -0.015519913 0.5159787)
(0 -0.017812034 0.51902299)
(0 -0.02038186 0.52294958)
(0 -0.023236629 0.5282354)
(0 -0.026656785 0.53704032)
(0 -0.031566781 0.55365902)
(0 -0.035906246 0.56230803)
(0 -0.030554091 0.47789096)
(0 -0.0035910771 0.19460952)
(0 7.6729776e-05 0.16252485)
(0 0.025870554 0.45260022)
(0 0.037160093 0.56943326)
(0 0.035191888 0.57098901)
(0 0.029877909 0.5499631)
(0 0.026174289 0.53711402)
(0 0.023306451 0.52991255)
(0 0.020688003 0.52478443)
(0 0.018308419 0.52079845)
(0 0.016139322 0.51767436)
(0 0.014159417 0.51521361)
(0 0.012345849 0.51326404)
(0 0.010675539 0.5117144)
(0 0.009127875 0.510483)
(0 0.0076836022 0.50950906)
(0 0.0063249147 0.5087472)
(0 0.0050353765 0.50816369)
(0 0.0037997013 0.50773376)
(0 0.0026035439 0.50743981)
(0 0.0014332667 0.50727019)
(0 0.0002757076 0.50721834)
(0 -0.00088206884 0.50728243)
(0 -0.0020530506 0.50746519)
(0 -0.0032504544 0.50777414)
(0 -0.0044880334 0.50822204)
(0 -0.0057802953 0.50882778)
(0 -0.0071427343 0.50961778)
(0 -0.0085920765 0.51062792)
(0 -0.010146463 0.51190643)
(0 -0.011825378 0.51351804)
(0 -0.013650611 0.51555042)
(0 -0.01564538 0.51812331)
(0 -0.017830317 0.5213949)
(0 -0.0202378 0.52557964)
(0 -0.022881412 0.53128247)
(0 -0.026079134 0.5410312)
(0 -0.030570748 0.55793439)
(0 -0.033428059 0.56019058)
(0 -0.025995873 0.46206821)
(0 -0.0017651136 0.17947019)
(0 -0.00071798384 0.15190733)
(0 0.021108159 0.43543485)
(0 0.033819621 0.56393166)
(0 0.033604455 0.57408926)
(0 0.028975294 0.55409409)
(0 0.025520328 0.54026365)
(0 0.022886565 0.53255279)
(0 0.020478855 0.52719218)
(0 0.018255082 0.52301277)
(0 0.016195841 0.51970856)
(0 0.014290404 0.51708626)
(0 0.012523008 0.51499446)
(0 0.010876759 0.51332126)
(0 0.0093360212 0.51198402)
(0 0.0078855116 0.51092095)
(0 0.006510631 0.51008568)
(0 0.0051975042 0.50944352)
(0 0.0039329043 0.50896888)
(0 0.0027041747 0.50864352)
(0 0.0014991034 0.50845528)
(0 0.00030578654 0.50839735)
(0 -0.00088752574 0.50846778)
(0 -0.002092628 0.50866945)
(0 -0.0033214482 0.50901018)
(0 -0.0045862666 0.50950326)
(0 -0.0058998332 0.51016828)
(0 -0.0072754863 0.51103251)
(0 -0.0087272628 0.51213281)
(0 -0.010269977 0.51351851)
(0 -0.011918945 0.51525544)
(0 -0.013690617 0.51743225)
(0 -0.015602148 0.5201691)
(0 -0.017666007 0.52362188)
(0 -0.01990366 0.52801631)
(0 -0.022341291 0.53411054)
(0 -0.025320514 0.54468155)
(0 -0.029331178 0.56120739)
(0 -0.030793225 0.55658641)
(0 -0.021894792 0.44676237)
(0 -0.00056451004 0.16724677)
(0 -0.0010701147 0.14358347)
(0 0.017203468 0.4194796)
(0 0.030667034 0.55734022)
(0 0.031915224 0.57602053)
(0 0.028004224 0.55776391)
(0 0.024783975 0.54317949)
(0 0.022350531 0.53497588)
(0 0.020139219 0.52941779)
(0 0.018069275 0.52509047)
(0 0.016124325 0.52164459)
(0 0.014301745 0.51889153)
(0 0.012591382 0.51668219)
(0 0.010981375 0.51490499)
(0 0.0094602832 0.51347723)
(0 0.0080163283 0.51233688)
(0 0.0066378528 0.51143719)
(0 0.0053134183 0.51074305)
(0 0.004031835 0.51022847)
(0 0.0027821769 0.50987482)
(0 0.0015537416 0.50966968)
(0 0.00033599114 0.50960606)
(0 -0.00088151984 0.50968197)
(0 -0.0021092733 0.50990035)
(0 -0.0033578019 0.51026921)
(0 -0.0046378305 0.51080212)
(0 -0.0059603102 0.51151908)
(0 -0.0073364518 0.51244777)
(0 -0.0087777274 0.5136255)
(0 -0.01029588 0.51510198)
(0 -0.01190255 0.51694338)
(0 -0.013609616 0.51923843)
(0 -0.015429078 0.52210632)
(0 -0.017366924 0.52569999)
(0 -0.019437752 0.53026659)
(0 -0.021685224 0.53673134)
(0 -0.024454156 0.54797125)
(0 -0.027949773 0.56352187)
(0 -0.028172319 0.55185727)
(0 -0.018325018 0.43223813)
(0 0.00016916316 0.15739326)
(0 -0.0011532237 0.13700186)
(0 0.014078996 0.4048148)
(0 0.027782385 0.55003325)
(0 0.030212243 0.57693028)
(0 0.027017114 0.56097904)
(0 0.024018221 0.54588549)
(0 0.02175023 0.53720878)
(0 0.019714289 0.53147438)
(0 0.017789337 0.52703481)
(0 0.015956879 0.52347985)
(0 0.014219916 0.52062302)
(0 0.01257247 0.51831838)
(0 0.011006599 0.51645534)
(0 0.0095142508 0.51495167)
(0 0.0080866141 0.51374559)
(0 0.0067146167 0.51279047)
(0 0.0053890397 0.51205114)
(0 0.0041006148 0.51150153)
(0 0.0028401018 0.51112288)
(0 0.0015983084 0.51090265)
(0 0.0003660923 0.51083378)
(0 -0.00086564568 0.51091425)
(0 -0.0021060326 0.51114702)
(0 -0.0033641784 0.51154019)
(0 -0.0046492544 0.51210744)
(0 -0.0059704619 0.51286886)
(0 -0.0073370054 0.51385226)
(0 -0.0087580163 0.51509494)
(0 -0.010242516 0.51664654)
(0 -0.011799027 0.51857297)
(0 -0.013435684 0.52096243)
(0 -0.015160324 0.52393224)
(0 -0.016974108 0.52763291)
(0 -0.018888664 0.53234416)
(0 -0.020967777 0.53915899)
(0 -0.023537265 0.55089383)
(0 -0.026509006 0.5649604)
(0 -0.025676594 0.54632096)
(0 -0.015298195 0.41864349)
(0 0.00057403477 0.14944686)
(0 -0.001085641 0.13172275)
(0 0.011624094 0.39143178)
(0 0.025193514 0.54230444)
(0 0.028554327 0.57697279)
(0 0.026047363 0.56375916)
(0 0.023258432 0.54840454)
(0 0.021124187 0.53927999)
(0 0.019239514 0.53337935)
(0 0.017446497 0.52885375)
(0 0.015720564 0.52521645)
(0 0.014067918 0.52227878)
(0 0.012485476 0.51989826)
(0 0.010968213 0.51796563)
(0 0.0095106893 0.51639942)
(0 0.0081065089 0.51513845)
(0 0.0067487882 0.51413648)
(0 0.0054302586 0.51335857)
(0 0.0041433993 0.51277877)
(0 0.0028805473 0.51237838)
(0 0.0016339598 0.51214489)
(0 0.00039585702 0.51207121)
(0 -0.00084153355 0.51215531)
(0 -0.0020860038 0.51240017)
(0 -0.0033452766 0.51281384)
(0 -0.0046270351 0.51340999)
(0 -0.0059388443 0.51420862)
(0 -0.0072880857 0.51523738)
(0 -0.0086818325 0.51653332)
(0 -0.010126787 0.51814561)
(0 -0.011628924 0.52013959)
(0 -0.013193453 0.52260248)
(0 -0.014825037 0.52564925)
(0 -0.016521603 0.5294298)
(0 -0.018295117 0.53426718)
(0 -0.02022959 0.54141012)
(0 -0.0226114 0.55345692)
(0 -0.025069948 0.56562747)
(0 -0.023368744 0.54024334)
(0 -0.012784706 0.40604029)
(0 0.00075921379 0.14301329)
(0 -0.00094380649 0.12740053)
(0 0.0097199911 0.37926447)
(0 0.022896969 0.53437421)
(0 0.026976673 0.57629312)
(0 0.025113718 0.56613148)
(0 0.022525846 0.55075732)
(0 0.020499071 0.54121717)
(0 0.018741349 0.53515234)
(0 0.017065247 0.5305583)
(0 0.015437445 0.52685974)
(0 0.013865117 0.52386011)
(0 0.01234703 0.52142012)
(0 0.010880224 0.519432)
(0 0.0094611823 0.51781516)
(0 0.0080853941 0.51650913)
(0 0.0067477685 0.51546821)
(0 0.0054426977 0.5146579)
(0 0.0041642 0.51405251)
(0 0.0029060424 0.51363351)
(0 0.0016618264 0.51338849)
(0 0.00042505684 0.51331042)
(0 -0.00081077858 0.51339728)
(0 -0.0020522031 0.51365198)
(0 -0.0033056345 0.51408253)
(0 -0.0045773783 0.51470243)
(0 -0.0058735187 0.51553148)
(0 -0.0071998337 0.51659698)
(0 -0.0085616463 0.51793554)
(0 -0.0099637541 0.51959568)
(0 -0.011410135 0.52164196)
(0 -0.012903815 0.5241604)
(0 -0.014447176 0.52726357)
(0 -0.016036378 0.53110356)
(0 -0.017686244 0.53605609)
(0 -0.01949885 0.54350228)
(0 -0.021704612 0.55567794)
(0 -0.023674619 0.5656331)
(0 -0.021276836 0.5338359)
(0 -0.010732044 0.39442805)
(0 0.00080501658 0.13775919)
(0 -0.00077520978 0.12377412)
(0 0.0082540334 0.36821595)
(0 0.020872484 0.52640202)
(0 0.025497181 0.57501912)
(0 0.024224978 0.5681256)
(0 0.021831621 0.55296082)
(0 0.019892044 0.54304501)
(0 0.01823857 0.5368131)
(0 0.016664051 0.53216096)
(0 0.015124901 0.52841697)
(0 0.013627318 0.52537049)
(0 0.01217111 0.52288455)
(0 0.01075471 0.52085285)
(0 0.0093759322 0.51919565)
(0 0.0080316871 0.5178532)
(0 0.0067183035 0.51678044)
(0 0.0054315479 0.51594334)
(0 0.0041667585 0.51531656)
(0 0.0029189632 0.51488185)
(0 0.0016829753 0.51462694)
(0 0.00045347556 0.51454488)
(0 -0.00077488662 0.51463365)
(0 -0.0020074652 0.51489613)
(0 -0.0032494858 0.51534019)
(0 -0.0045060153 0.51597911)
(0 -0.0057818363 0.5168324)
(0 -0.0070813565 0.51792693)
(0 -0.008408456 0.51929872)
(0 -0.0097664233 0.52099562)
(0 -0.011157737 0.52308129)
(0 -0.012583868 0.52564054)
(0 -0.014045681 0.5287838)
(0 -0.015538865 0.53266889)
(0 -0.017082823 0.53773115)
(0 -0.018793803 0.54545194)
(0 -0.020834465 0.55757931)
(0 -0.022349588 0.56508222)
(0 -0.019405985 0.52726063)
(0 -0.0090774429 0.38376626)
(0 0.00076794862 0.13341214)
(0 -0.00060783708 0.12065327)
(0 0.0071270307 0.35817733)
(0 0.019092043 0.51850002)
(0 0.024121725 0.57325976)
(0 0.023383613 0.56977088)
(0 0.021180222 0.55502795)
(0 0.019313203 0.54478395)
(0 0.017743889 0.53837997)
(0 0.016256345 0.53367431)
(0 0.014796195 0.52989628)
(0 0.013367051 0.52681466)
(0 0.011969152 0.52429361)
(0 0.010601807 0.52222815)
(0 0.009263692 0.52053924)
(0 0.0079527414 0.51916782)
(0 0.0066663762 0.5180694)
(0 0.0054014707 0.51721047)
(0 0.0041544672 0.51656609)
(0 0.0029214787 0.51611827)
(0 0.0016983849 0.51585494)
(0 0.00048091574 0.51576925)
(0 -0.00073523622 0.51585919)
(0 -0.0019543749 0.51612757)
(0 -0.003180665 0.51658211)
(0 -0.0044180879 0.51723584)
(0 -0.0056703112 0.51810791)
(0 -0.0069406026 0.51922472)
(0 -0.0082316877 0.52062172)
(0 -0.0095457017 0.52234602)
(0 -0.010884051 0.52446048)
(0 -0.012247164 0.52704872)
(0 -0.013635012 0.53021965)
(0 -0.015043924 0.53414068)
(0 -0.016498871 0.53931086)
(0 -0.018125241 0.54727346)
(0 -0.020010684 0.55918546)
(0 -0.021109328 0.56406956)
(0 -0.017746951 0.52063818)
(0 -0.0077561925 0.37399203)
(0 0.00068642126 0.12975683)
(0 -0.00045660921 0.11790273)
(0 0.0062563996 0.34903912)
(0 0.017525513 0.5107447)
(0 0.02284842 0.57110638)
(0 0.022588266 0.57109531)
(0 0.02057183 0.55696812)
(0 0.018767596 0.54645012)
(0 0.017265429 0.53986909)
(0 0.015851574 0.53511027)
(0 0.01446117 0.53130582)
(0 0.013094003 0.52819794)
(0 0.011750292 0.52565028)
(0 0.010429832 0.52355896)
(0 0.0091317979 0.52184549)
(0 0.0078548327 0.52045134)
(0 0.0065971692 0.51933256)
(0 0.0053565523 0.51845611)
(0 0.0041303274 0.51779741)
(0 0.0029155217 0.51733879)
(0 0.001708932 0.51706835)
(0 0.00050720396 0.51697935)
(0 -0.00069305467 0.5170698)
(0 -0.0018952266 0.51734243)
(0 -0.0031025543 0.51780478)
(0 -0.0043180897 0.51846964)
(0 -0.0055445677 0.51935579)
(0 -0.0067843319 0.52048916)
(0 -0.0080392118 0.52190463)
(0 -0.0093104952 0.52364866)
(0 -0.010598869 0.52578341)
(0 -0.011904125 0.52839145)
(0 -0.013225829 0.53158101)
(0 -0.014561862 0.53553299)
(0 -0.015943114 0.54081125)
(0 -0.017498495 0.54897895)
(0 -0.019237284 0.56052108)
(0 -0.019959298 0.56267787)
(0 -0.016282469 0.51405611)
(0 -0.0067070824 0.36503186)
(0 0.00058561276 0.12662671)
(0 -0.00032799166 0.11542826)
(0 0.0055764028 0.34069744)
(0 0.016143955 0.50318615)
(0 0.021670989 0.5686347)
(0 0.021835559 0.57212497)
(0 0.020004049 0.55878797)
(0 0.018256795 0.54805572)
(0 0.016807928 0.54129422)
(0 0.015456094 0.53647959)
(0 0.014126913 0.53265336)
(0 0.012815487 0.52952573)
(0 0.011521671 0.52695799)
(0 0.010245461 0.52484705)
(0 0.0089862728 0.52311479)
(0 0.0077432066 0.52170306)
(0 0.0065150782 0.52056836)
(0 0.0053002995 0.51967802)
(0 0.0040969391 0.51900784)
(0 0.0029027783 0.5185404)
(0 0.0017153875 0.51826399)
(0 0.00053219453 0.51817198)
(0 -0.00064940635 0.51826236)
(0 -0.001832007 0.51853781)
(0 -0.0030180651 0.5190057)
(0 -0.0042098541 0.51967857)
(0 -0.0054093467 0.52057484)
(0 -0.0066181564 0.52172001)
(0 -0.0078374397 0.52314844)
(0 -0.0090678912 0.52490607)
(0 -0.010309756 0.52705447)
(0 -0.011562503 0.52967536)
(0 -0.012825665 0.53287739)
(0 -0.014099358 0.53685853)
(0 -0.01542024 0.54224569)
(0 -0.016915034 0.55057832)
(0 -0.01851437 0.56160991)
(0 -0.018898783 0.56097766)
(0 -0.014991703 0.50757587)
(0 -0.005875513 0.35680914)
(0 0.00048126707 0.1238951)
(0 -0.00022331645 0.11316543)
(0 0.0050365572 0.33305734)
(0 0.014921269 0.49585526)
(0 0.020581181 0.56590717)
(0 0.021121347 0.57288377)
(0 0.019473144 0.56049195)
(0 0.017780122 0.54960956)
(0 0.016373719 0.54266672)
(0 0.015073929 0.53779178)
(0 0.013798344 0.53394601)
(0 0.012536875 0.53080323)
(0 0.011288745 0.52822032)
(0 0.01005395 0.52609459)
(0 0.0088319657 0.52434812)
(0 0.0076221642 0.52292299)
(0 0.0064237608 0.52177599)
(0 0.005235665 0.52087481)
(0 0.0040565118 0.52019553)
(0 0.002884693 0.51972096)
(0 0.0017184186 0.51943956)
(0 0.00055577186 0.51934477)
(0 -0.0006051906 0.51943463)
(0 -0.0017663952 0.5197117)
(0 -0.0029296455 0.52018323)
(0 -0.0040965766 0.5208615)
(0 -0.0052685524 0.52176462)
(0 -0.0064466256 0.52291772)
(0 -0.007631466 0.52435472)
(0 -0.0088233782 0.52612116)
(0 -0.010022378 0.52827816)
(0 -0.01122784 0.53090688)
(0 -0.012439542 0.53411754)
(0 -0.013660304 0.53812844)
(0 -0.014932005 0.54362491)
(0 -0.016373762 0.55207948)
(0 -0.017839601 0.562474)
(0 -0.017923265 0.55902795)
(0 -0.013853149 0.50123902)
(0 -0.0052148147 0.34924875)
(0 0.00038259033 0.12146718)
(0 -0.00014105495 0.11107085)
(0 0.0045992065 0.32603418)
(0 0.013834775 0.48876936)
(0 0.019570325 0.56297533)
(0 0.020441501 0.5733935)
(0 0.018974898 0.56208294)
(0 0.017335582 0.55111758)
(0 0.015963499 0.54399576)
(0 0.014707401 0.539055)
(0 0.013478727 0.53519014)
(0 0.012261997 0.53203529)
(0 0.011055589 0.52944081)
(0 0.00985935 0.52730394)
(0 0.0086727063 0.52554682)
(0 0.0074951675 0.5241116)
(0 0.0063262059 0.52295526)
(0 0.0051650907 0.52204572)
(0 0.0040108913 0.5213593)
(0 0.0028624834 0.52087901)
(0 0.001718596 0.52059344)
(0 0.00057785127 0.52049611)
(0 -0.00056114717 0.52058505)
(0 -0.0016997766 0.52086277)
(0 -0.0028393066 0.52133637)
(0 -0.0039808594 0.52201792)
(0 -0.0051253249 0.52292528)
(0 -0.0062733372 0.52408323)
(0 -0.0074252312 0.5255254)
(0 -0.0085810789 0.52729702)
(0 -0.0097408194 0.52945892)
(0 -0.010903896 0.53209199)
(0 -0.012070536 0.53530932)
(0 -0.013246533 0.53935214)
(0 -0.014478147 0.54495722)
(0 -0.015872025 0.55348851)
(0 -0.0172093 0.56313334)
(0 -0.017026157 0.55687767)
(0 -0.012846363 0.49507229)
(0 -0.0046864421 0.34228002)
(0 0.00029441254 0.11927317)
(0 -7.8297555e-05 0.10911549)
(0 0.0042369345 0.31955387)
(0 0.012865187 0.48193632)
(0 0.018630197 0.55988187)
(0 0.01979231 0.57367409)
(0 0.018505136 0.56356281)
(0 0.016920521 0.55258349)
(0 0.015576918 0.54528849)
(0 0.014357632 0.54027618)
(0 0.013170092 0.53639131)
(0 0.011993487 0.5332263)
(0 0.01082516 0.5306228)
(0 0.0096647139 0.5284775)
(0 0.0085114607 0.52671244)
(0 0.007364953 0.52526972)
(0 0.0062248137 0.52410637)
(0 0.0050905631 0.52319048)
(0 0.0039615948 0.52249853)
(0 0.0028371609 0.52201367)
(0 0.0017164031 0.52172462)
(0 0.00059837852 0.52162494)
(0 -0.00051786664 0.52171268)
(0 -0.0016332655 0.52199027)
(0 -0.0027486601 0.52246469)
(0 -0.0038647703 0.52314785)
(0 -0.0049821261 0.52405737)
(0 -0.0061010607 0.52521782)
(0 -0.0072216931 0.52666257)
(0 -0.00834398 0.52843668)
(0 -0.0094678882 0.53060087)
(0 -0.010593043 0.53323608)
(0 -0.011720268 0.53645956)
(0 -0.012858426 0.54053738)
(0 -0.01405711 0.54624874)
(0 -0.015406353 0.55481001)
(0 -0.016619213 0.56360586)
(0 -0.016200023 0.55456715)
(0 -0.011952852 0.48909161)
(0 -0.0042594595 0.33583826)
(0 0.00021871731 0.11726245)
(0 -3.1677794e-05 0.10727975)
(0 0.0039301728 0.31355229)
(0 0.011996314 0.47535766)
(0 0.017753451 0.55666242)
(0 0.019170647 0.57374388)
(0 0.018060024 0.56493285)
(0 0.016532057 0.55400924)
(0 0.015212996 0.54655042)
(0 0.014024932 0.54146106)
(0 0.01287358 0.53755434)
(0 0.011733069 0.53438016)
(0 0.010599542 0.53176939)
(0 0.0094722894 0.52961762)
(0 0.0083504786 0.52784665)
(0 0.0072336428 0.52639839)
(0 0.006121478 0.52522987)
(0 0.0050136709 0.52430921)
(0 0.0039098507 0.52361301)
(0 0.002809555 0.52312453)
(0 0.0017122471 0.52283256)
(0 0.00061732798 0.52273072)
(0 -0.0004758049 0.52281703)
(0 -0.001567733 0.52309389)
(0 -0.0026589636 0.52356817)
(0 -0.0037499084 0.52425164)
(0 -0.0048408324 0.52516176)
(0 -0.0059318622 0.52632291)
(0 -0.0070229923 0.52776835)
(0 -0.0081141483 0.52954308)
(0 -0.0092053906 0.53170781)
(0 -0.010296602 0.5343439)
(0 -0.011389306 0.53757407)
(0 -0.012495387 0.5416904)
(0 -0.013666588 0.54750383)
(0 -0.014972958 0.55604741)
(0 -0.01606503 0.56390758)
(0 -0.015437375 0.55212961)
(0 -0.011156425 0.48330518)
(0 -0.0039096306 0.32986543)
(0 0.00015570959 0.11539872)
(0 2.0865788e-06 0.10555001)
(0 0.0036651604 0.30797425)
(0 0.011214633 0.46903062)
(0 0.016933741 0.55334688)
(0 0.018573987 0.57361991)
(0 0.017636207 0.56619415)
(0 0.016167346 0.5553956)
(0 0.014870409 0.5477856)
(0 0.013709074 0.54261441)
(0 0.012589706 0.53868335)
(0 0.011481794 0.53550029)
(0 0.010380143 0.53288339)
(0 0.0092836831 0.53072651)
(0 0.0081914273 0.52895111)
(0 0.0071028501 0.52749881)
(0 0.006017666 0.5263265)
(0 0.0049356645 0.52540231)
(0 0.0038566388 0.52470288)
(0 0.0027803379 0.52421153)
(0 0.0017064695 0.52391712)
(0 0.00063470063 0.52381327)
(0 -0.00043529858 0.523898)
(0 -0.0015038374 0.52417368)
(0 -0.0025711676 0.52464709)
(0 -0.0036374713 0.5253299)
(0 -0.0047028259 0.52623945)
(0 -0.005767225 0.52740003)
(0 -0.0068306064 0.52884484)
(0 -0.0078929224 0.53061892)
(0 -0.0089543646 0.53278313)
(0 -0.010015119 0.53541961)
(0 -0.011077487 0.53865776)
(0 -0.012156203 0.54281609)
(0 -0.013303906 0.54872535)
(0 -0.01456808 0.55720327)
(0 -0.01554269 0.56405285)
(0 -0.014731167 0.54959247)
(0 -0.010443207 0.47771579)
(0 -0.003618349 0.3243101)
(0 0.00010455919 0.11365607)
(0 2.5915222e-05 0.10391635)
(0 0.0034323038 0.30277248)
(0 0.010508858 0.46294963)
(0 0.016165692 0.54996047)
(0 0.018000344 0.57331803)
(0 0.017230844 0.56734785)
(0 0.015823731 0.55674242)
(0 0.014547679 0.54899701)
(0 0.013409503 0.54374013)
(0 0.012318551 0.53978188)
(0 0.01124022 0.5365897)
(0 0.01016786 0.53396733)
(0 0.0091000008 0.53180627)
(0 0.0080355077 0.53002748)
(0 0.0069737726 0.52857221)
(0 0.0059144922 0.52739716)
(0 0.0048575103 0.52647039)
(0 0.0038027292 0.52576852)
(0 0.0027500483 0.5252749)
(0 0.0016993564 0.52497841)
(0 0.00065052102 0.5248727)
(0 -0.00039658153 0.52495577)
(0 -0.0014420554 0.52522995)
(0 -0.0024859625 0.52570196)
(0 -0.0035283205 0.52638342)
(0 -0.0045690802 0.52729159)
(0 -0.0056081588 0.5284507)
(0 -0.0066454858 0.529894)
(0 -0.0076810777 0.53166667)
(0 -0.0087152749 0.53382981)
(0 -0.0097485919 0.53646673)
(0 -0.010784162 0.53971466)
(0 -0.011839311 0.54391818)
(0 -0.012966292 0.54991503)
(0 -0.014188187 0.55827959)
(0 -0.015048554 0.56405458)
(0 -0.014075045 0.54697847)
(0 -0.0098014748 0.47232251)
(0 -0.0033715696 0.31912716)
(0 6.3907138e-05 0.11201607)
(0 4.2257254e-05 0.10237103)
(0 0.0032249222 0.29790645)
(0 0.0098695283 0.4571074)
(0 0.015444774 0.5465246)
(0 0.01744818 0.57285315)
(0 0.016841596 0.56839531)
(0 0.015498812 0.55804906)
(0 0.014243295 0.55018669)
(0 0.013125471 0.54484143)
(0 0.012059912 0.54085292)
(0 0.011008555 0.537651)
(0 0.0099632043 0.53502347)