/*--------------------------------*- C++ -*----------------------------------*\
  =========                 |
  \\      /  F ield         | OpenFOAM: The Open Source CFD Toolbox
   \\    /   O peration     | Website:  https://openfoam.org
    \\  /    A nd           | Version:  10
     \\/     M anipulation  |
\*---------------------------------------------------------------------------*/
FoamFile
{
    format      ascii;
    class       volVectorField;
    location    "0.25";
    object      U_0;
}
// * * * * * * * * * * * * * * * * * * * * * * * * * * * * * * * * * * * * * //

dimensions      [0 1 -1 0 0 0 0];

internalField   nonuniform List<vector> 
4000
(
(0 0.018637458 0.47773157)
(0 0.023510003 0.50886061)
(0 0.008166858 0.50052521)
(0 0.0056146188 0.50033634)
(0 0.004254634 0.50025746)
(0 0.0032549509 0.50016898)
(0 0.0025560979 0.50011969)
(0 0.0020545905 0.50009013)
(0 0.0016765895 0.50006981)
(0 0.0013822517 0.50005539)
(0 0.0011472045 0.50004499)
(0 0.00095510922 0.50003733)
(0 0.00079471164 0.5000316)
(0 0.00065803608 0.50002727)
(0 0.00053925423 0.50002399)
(0 0.00043398542 0.50002151)
(0 0.00033884233 0.50001966)
(0 0.00025112298 0.50001834)
(0 0.00016859477 0.50001744)
(0 8.9335757e-05 0.50001694)
(0 1.1612607e-05 0.50001679)
(0 -6.6226748e-05 0.50001699)
(0 -0.00014584445 0.50001755)
(0 -0.00022900509 0.5000185)
(0 -0.00031768612 0.50001991)
(0 -0.00041420865 0.50002185)
(0 -0.00052140913 0.50002446)
(0 -0.00064287874 0.50002793)
(0 -0.00078331117 0.50003252)
(0 -0.00094903242 0.50003863)
(0 -0.0011488521 0.50004688)
(0 -0.0013954284 0.50005824)
(0 -0.0017075077 0.50007414)
(0 -0.0021154388 0.50009709)
(0 -0.0026751357 0.50013481)
(0 -0.003468708 0.50020238)
(0 -0.0045609329 0.50027143)
(0 -0.0065851212 0.50043364)
(0 -0.017659555 0.50675407)
(0 -0.013590174 0.47975561)
(0 0.037432691 0.44796926)
(0 0.050955759 0.53232616)
(0 0.021969338 0.5080429)
(0 0.016135664 0.50357318)
(0 0.012416108 0.50242316)
(0 0.0095159831 0.501623)
(0 0.007520653 0.50115662)
(0 0.0060699278 0.50086593)
(0 0.0049646096 0.50066801)
(0 0.0041001662 0.50052902)
(0 0.0034076472 0.50042905)
(0 0.0028401051 0.50035555)
(0 0.0023651664 0.50030065)
(0 0.0019597472 0.50025926)
(0 0.0016068875 0.50022791)
(0 0.0012937923 0.50020425)
(0 0.0010105368 0.50018665)
(0 0.00074918319 0.50017397)
(0 0.00050315769 0.50016546)
(0 0.00026679097 0.50016063)
(0 3.4962743e-05 0.5001592)
(0 -0.00019720609 0.5001611)
(0 -0.00043462452 0.50016645)
(0 -0.00068250266 0.50017556)
(0 -0.00094667059 0.50018897)
(0 -0.0012339573 0.50020752)
(0 -0.0015526865 0.50023246)
(0 -0.0019133643 0.50026557)
(0 -0.0023296714 0.50030949)
(0 -0.0028199473 0.5003681)
(0 -0.0034095668 0.50044735)
(0 -0.0041349057 0.5005567)
(0 -0.0050490422 0.50071126)
(0 -0.0062318413 0.5009366)
(0 -0.0078321862 0.50129437)
(0 -0.010125865 0.50191051)
(0 -0.013106984 0.50282508)
(0 -0.017426382 0.50608116)
(0 -0.038759143 0.52526812)
(0 -0.027894722 0.4502164)
(0 0.039888291 0.40982053)
(0 0.061428177 0.54930815)
(0 0.031983818 0.52188197)
(0 0.024355575 0.51008056)
(0 0.019193717 0.50658858)
(0 0.014977261 0.50452809)
(0 0.012006838 0.50327141)
(0 0.0097720419 0.50245841)
(0 0.0080366312 0.50190109)
(0 0.0066649605 0.50150872)
(0 0.005556809 0.50122551)
(0 0.0046426427 0.50101676)
(0 0.0038737239 0.50086062)
(0 0.0032146568 0.50074271)
(0 0.0026391076 0.50065332)
(0 0.0021270232 0.50058581)
(0 0.0016627272 0.50053555)
(0 0.0012335999 0.50049934)
(0 0.00082913449 0.50047502)
(0 0.00044023239 0.50046119)
(0 5.8652643e-05 0.5004571)
(0 -0.00032346587 0.50046254)
(0 -0.00071403142 0.50047782)
(0 -0.001121423 0.50050384)
(0 -0.0015549852 0.50054214)
(0 -0.0020256125 0.5005951)
(0 -0.0025465029 0.50066622)
(0 -0.0031341888 0.50076058)
(0 -0.0038099999 0.50088557)
(0 -0.0046021754 0.50105212)
(0 -0.0055490697 0.50127675)
(0 -0.0067046626 0.5015856)
(0 -0.0081461545 0.50202078)
(0 -0.0099776335 0.5026507)
(0 -0.012371914 0.50361505)
(0 -0.015716955 0.50519914)
(0 -0.019873358 0.50785387)
(0 -0.025187024 0.5164122)
(0 -0.04741754 0.53912724)
(0 -0.030853848 0.4148799)
(0 0.034791607 0.36173001)
(0 0.06383899 0.55456332)
(0 0.039380514 0.53747138)
(0 0.0300835 0.51849262)
(0 0.024112733 0.51197732)
(0 0.019279729 0.50849947)
(0 0.015736307 0.50626429)
(0 0.012954308 0.50475549)
(0 0.010743769 0.50370448)
(0 0.0089680003 0.50295618)
(0 0.00751397 0.50241114)
(0 0.0063020135 0.50200687)
(0 0.0052743264 0.50170308)
(0 0.004387652 0.50147286)
(0 0.003609174 0.50129785)
(0 0.0029135094 0.50116537)
(0 0.0022805522 0.50106658)
(0 0.0016939428 0.50099531)
(0 0.001139941 0.5009474)
(0 0.00060656776 0.50092014)
(0 8.2922928e-05 0.50091206)
(0 -0.00044141363 0.50092276)
(0 -0.00097692244 0.50095286)
(0 -0.001534673 0.50100407)
(0 -0.0021269438 0.50107939)
(0 -0.00276794 0.50118339)
(0 -0.0034747 0.50132278)
(0 -0.0042683005 0.50150726)
(0 -0.0051755205 0.50175081)
(0 -0.0062311386 0.50207391)
(0 -0.0074810221 0.50250704)
(0 -0.0089874022 0.5030972)
(0 -0.010837648 0.5039191)
(0 -0.013138318 0.50508911)
(0 -0.01602507 0.50680672)
(0 -0.019900472 0.50946732)
(0 -0.024732402 0.51427469)
(0 -0.031114281 0.52824687)
(0 -0.05032037 0.5440717)
(0 -0.028438611 0.37238026)
(0 0.027424289 0.31484318)
(0 0.062314975 0.55024061)
(0 0.044614711 0.55146766)
(0 0.033982197 0.52748816)
(0 0.027464229 0.51772245)
(0 0.022455331 0.51291986)
(0 0.018636948 0.50973147)
(0 0.015528275 0.50749268)
(0 0.01300633 0.50589999)
(0 0.010942287 0.50474697)
(0 0.009224765 0.50389621)
(0 0.0077749117 0.50325926)
(0 0.0065327407 0.50277719)
(0 0.0054518271 0.50240981)
(0 0.0044961224 0.50212931)
(0 0.0036371613 0.50191624)
(0 0.0028519998 0.50175691)
(0 0.0021216991 0.50164174)
(0 0.001430165 0.50156419)
(0 0.00076323807 0.50152001)
(0 0.00010795391 0.50150689)
(0 -0.00054811768 0.50152418)
(0 -0.0012174753 0.50157287)
(0 -0.001913265 0.50165564)
(0 -0.0026499642 0.5017772)
(0 -0.0034441523 0.50194467)
(0 -0.0043154556 0.50216848)
(0 -0.0052877587 0.50246349)
(0 -0.0063908121 0.50285097)
(0 -0.0076623908 0.50336157)
(0 -0.009150758 0.50403991)
(0 -0.01091835 0.50495255)
(0 -0.013052002 0.50620229)
(0 -0.01565551 0.50794402)
(0 -0.018816727 0.51040411)
(0 -0.022897158 0.51405457)
(0 -0.028178276 0.52114521)
(0 -0.03570836 0.53932631)
(0 -0.050477535 0.54155489)
(0 -0.024086561 0.33055764)
(0 0.019837939 0.27519766)
(0 0.05799014 0.53974649)
(0 0.047364104 0.56256477)
(0 0.036477883 0.53660459)
(0 0.029636386 0.52350714)
(0 0.024676391 0.51740333)
(0 0.020774507 0.51336306)
(0 0.017510038 0.51044461)
(0 0.014814483 0.5083243)
(0 0.012566912 0.50676193)
(0 0.010665802 0.50559293)
(0 0.0090391578 0.50470817)
(0 0.0076293634 0.50403271)
(0 0.0063905578 0.50351434)
(0 0.0052862819 0.50311635)
(0 0.0042870672 0.5028127)
(0 0.0033686856 0.50258484)
(0 0.002510801 0.50241969)
(0 0.00169589 0.50230824)
(0 0.00090836618 0.50224466)
(0 0.00013385341 0.50222571)
(0 -0.00064148105 0.50225051)
(0 -0.0014315413 0.50232041)
(0 -0.0022508808 0.50243914)
(0 -0.0031153948 0.50261315)
(0 -0.0040430691 0.50285222)
(0 -0.0050548784 0.50317049)
(0 -0.0061758877 0.50358796)
(0 -0.0074366458 0.50413281)
(0 -0.0088750806 0.50484499)
(0 -0.010538457 0.50578148)
(0 -0.012485069 0.50702459)
(0 -0.014795129 0.50869747)
(0 -0.017570421 0.51098176)
(0 -0.020864923 0.51411981)
(0 -0.02497491 0.51872995)
(0 -0.030509787 0.52822968)
(0 -0.038631271 0.54872394)
(0 -0.048509763 0.53398405)
(0 -0.019067297 0.29393853)
(0 0.013083213 0.24255478)
(0 0.051798974 0.52520052)
(0 0.047709775 0.57024851)
(0 0.037757408 0.54552498)
(0 0.030850764 0.52928865)
(0 0.026073901 0.52180169)
(0 0.022238365 0.51699797)
(0 0.018954087 0.51347353)
(0 0.016193878 0.51086503)
(0 0.013849934 0.50891256)
(0 0.011835759 0.50743279)
(0 0.010088767 0.5063007)
(0 0.0085563375 0.50542854)
(0 0.0071957217 0.50475418)
(0 0.0059721209 0.50423323)
(0 0.0048567181 0.50383377)
(0 0.0038253266 0.50353282)
(0 0.002857276 0.50331403)
(0 0.0019344798 0.50316602)
(0 0.001040656 0.50308141)
(0 0.00016066254 0.5030561)
(0 -0.00072012678 0.50308895)
(0 -0.0016164092 0.50318169)
(0 -0.0025434885 0.50333902)
(0 -0.0035179289 0.5035691)
(0 -0.0045582338 0.50388421)
(0 -0.0056856404 0.50430194)
(0 -0.006925062 0.50484694)
(0 -0.0083062028 0.50555344)
(0 -0.0098651331 0.50646926)
(0 -0.011646047 0.50766153)
(0 -0.013701191 0.5092251)
(0 -0.016100071 0.51129796)
(0 -0.018937982 0.51407945)
(0 -0.022246292 0.5178384)
(0 -0.026265823 0.5234676)
(0 -0.031849582 0.53537503)
(0 -0.039760687 0.55589665)
(0 -0.044895077 0.522823)
(0 -0.014090997 0.26264527)
(0 0.0077701452 0.21554098)
(0 0.044825981 0.50800992)
(0 0.046255884 0.57438085)
(0 0.038035761 0.55375135)
(0 0.03128835 0.53496057)
(0 0.026768821 0.52603034)
(0 0.023117181 0.5205385)
(0 0.019921265 0.51648832)
(0 0.017182523 0.51344174)
(0 0.014813739 0.51113075)
(0 0.012746483 0.50935964)
(0 0.010928705 0.50799113)
(0 0.0093145027 0.50692761)
(0 0.0078659096 0.50609916)
(0 0.006551183 0.50545518)
(0 0.0053433681 0.50495883)
(0 0.004219356 0.50458332)
(0 0.0031590179 0.5043094)
(0 0.0021444531 0.50412362)
(0 0.0011593393 0.50401719)
(0 0.00018836335 0.50398521)
(0 -0.00078332756 0.50402631)
(0 -0.0017706551 0.50414255)
(0 -0.0027890719 0.50433956)
(0 -0.0038551471 0.50462699)
(0 -0.0049871423 0.50501936)
(0 -0.0062056744 0.50553727)
(0 -0.00753448 0.50620933)
(0 -0.0090012412 0.50707486)
(0 -0.010638752 0.50818802)
(0 -0.012486593 0.50962407)
(0 -0.014589895 0.51148804)
(0 -0.017004857 0.51392882)
(0 -0.019813141 0.51715514)
(0 -0.023030708 0.52148007)
(0 -0.026880091 0.52818249)
(0 -0.032352039 0.54222025)
(0 -0.039404597 0.56050204)
(0 -0.040329318 0.5090836)
(0 -0.009708361 0.23585749)
(0 0.0040049772 0.19355627)
(0 0.037899685 0.48948702)
(0 0.043687498 0.57524008)
(0 0.037564521 0.56084519)
(0 0.03115485 0.54036125)
(0 0.02691482 0.53001149)
(0 0.023514754 0.52390196)
(0 0.020480933 0.51941279)
(0 0.017827337 0.51598804)
(0 0.015490002 0.51335919)
(0 0.013418604 0.51132441)
(0 0.011571791 0.50973784)
(0 0.009911403 0.50849483)
(0 0.008405206 0.50751971)
(0 0.0070253727 0.50675711)
(0 0.0057476332 0.50616632)
(0 0.0045507072 0.50571747)
(0 0.0034156779 0.50538894)
(0 0.0023254329 0.50516553)
(0 0.0012641588 0.50503724)
(0 0.00021688347 0.5049985)
(0 -0.00083097807 0.50504773)
(0 -0.0018940757 0.50518728)
(0 -0.0029874948 0.50542356)
(0 -0.0041272555 0.50576752)
(0 -0.005330769 0.50623553)
(0 -0.0066173532 0.5068507)
(0 -0.0080088161 0.50764482)
(0 -0.0095300114 0.50866125)
(0 -0.011209536 0.50995907)
(0 -0.013081255 0.51161959)
(0 -0.015182685 0.51375547)
(0 -0.017556462 0.51652248)
(0 -0.020266734 0.52013167)
(0 -0.023321364 0.52496324)
(0 -0.02696235 0.53273992)
(0 -0.032203945 0.54839068)
(0 -0.037996066 0.56254363)
(0 -0.035415765 0.49379261)
(0 -0.0062007128 0.21325226)
(0 0.0015511139 0.1761334)
(0 0.031499773 0.47076159)
(0 0.040532806 0.57338572)
(0 0.036559565 0.56659858)
(0 0.030637962 0.54537858)
(0 0.026672285 0.5337047)
(0 0.023543709 0.52703242)
(0 0.020711002 0.52218862)
(0 0.0181835 0.51845149)
(0 0.015917736 0.51555135)
(0 0.013879285 0.51328604)
(0 0.01203671 0.51150492)
(0 0.010359716 0.51009896)
(0 0.0088220446 0.50898866)
(0 0.0074001676 0.50811529)
(0 0.006072971 0.50743533)
(0 0.0048214818 0.5069166)
(0 0.0036284612 0.50653565)
(0 0.0024780329 0.50627589)
(0 0.0013553196 0.50612637)
(0 0.00024610177 0.50608096)
(0 -0.00086353364 0.50613793)
(0 -0.0019875591 0.50629985)
(0 -0.0031402788 0.50657376)
(0 -0.0043367323 0.50697166)
(0 -0.0055930282 0.50751137)
(0 -0.0069267113 0.50821793)
(0 -0.0083571686 0.50912556)
(0 -0.0099059681 0.51028056)
(0 -0.011597117 0.5117455)
(0 -0.013458337 0.51360573)
(0 -0.015519695 0.51597871)
(0 -0.017811817 0.519023)
(0 -0.020381645 0.5229496)
(0 -0.023236418 0.52823543)
(0 -0.026656577 0.53704035)
(0 -0.031566571 0.55365903)
(0 -0.035906048 0.56230813)
(0 -0.030553976 0.4778913)
(0 -0.0035910527 0.19460988)
(0 7.6725149e-05 0.16252491)
(0 0.025870528 0.4526003)
(0 0.037160045 0.56943327)
(0 0.035191838 0.57098899)
(0 0.029877865 0.54996308)
(0 0.026174251 0.53711399)
(0 0.023306419 0.52991252)
(0 0.020687978 0.5247844)
(0 0.018308403 0.52079841)
(0 0.016139316 0.51767431)
(0 0.014159422 0.51521356)
(0 0.012345866 0.51326398)
(0 0.010675569 0.51171434)
(0 0.0091279186 0.51048294)
(0 0.00768366 0.50950899)
(0 0.0063249873 0.50874714)
(0 0.0050354642 0.50816362)
(0 0.0037998044 0.50773369)
(0 0.0026036623 0.50743974)
(0 0.0014334005 0.50727012)
(0 0.00027585642 0.50721828)
(0 -0.00088190541 0.50728237)
(0 -0.0020528731 0.50746513)
(0 -0.0032502636 0.50777409)
(0 -0.0044878301 0.50822199)
(0 -0.0057800806 0.50882774)
(0 -0.0071425094 0.50961775)
(0 -0.0085918428 0.51062789)
(0 -0.010146222 0.5119064)
(0 -0.011825131 0.51351803)
(0 -0.013650361 0.51555041)
(0 -0.015645128 0.51812331)
(0 -0.017830065 0.52139492)
(0 -0.02023755 0.52557967)
(0 -0.022881166 0.5312825)
(0 -0.026078889 0.54103123)
(0 -0.0305705 0.55793441)
(0 -0.033427833 0.56019073)
(0 -0.025995746 0.46206864)
(0 -0.0017650878 0.17947062)
(0 -0.00071798883 0.15190741)
(0 0.021108128 0.43543496)
(0 0.033819564 0.56393169)
(0 0.033604392 0.57408924)
(0 0.028975237 0.55409406)
(0 0.025520279 0.54026362)
(0 0.022886523 0.53255275)
(0 0.020478822 0.52719214)
(0 0.018255059 0.52301272)
(0 0.016195829 0.51970851)
(0 0.014290404 0.5170862)
(0 0.012523023 0.51499439)
(0 0.010876788 0.51332118)
(0 0.0093360664 0.51198394)
(0 0.0078855733 0.51092087)
(0 0.0065107098 0.5100856)
(0 0.0051976005 0.50944344)
(0 0.0039330184 0.5089688)
(0 0.0027043067 0.50864344)
(0 0.0014992532 0.5084552)
(0 0.00030595381 0.50839727)
(0 -0.00088734142 0.50846771)
(0 -0.0020924272 0.50866938)
(0 -0.0033212318 0.50901011)
(0 -0.0045860356 0.50950319)
(0 -0.0058995887 0.51016822)
(0 -0.0072752297 0.51103246)
(0 -0.0087269956 0.51213277)
(0 -0.010269701 0.51351848)
(0 -0.011918662 0.51525542)
(0 -0.013690329 0.51743224)
(0 -0.015601857 0.5201691)
(0 -0.017665715 0.5236219)
(0 -0.01990337 0.52801634)
(0 -0.022341005 0.53411058)
(0 -0.025320228 0.54468157)
(0 -0.029330889 0.56120742)
(0 -0.030792969 0.55658663)
(0 -0.021894652 0.44676292)
(0 -0.00056448257 0.16724728)
(0 -0.00107012 0.14358357)
(0 0.017203433 0.41947973)
(0 0.030666965 0.55734027)
(0 0.031915145 0.57602051)
(0 0.028004152 0.55776387)
(0 0.024783912 0.54317945)
(0 0.022350477 0.53497583)
(0 0.020139175 0.52941773)
(0 0.018069243 0.52509041)
(0 0.016124305 0.52164452)
(0 0.01430174 0.51889145)
(0 0.012591393 0.5166821)
(0 0.010981403 0.5149049)
(0 0.0094603292 0.51347714)
(0 0.0080163932 0.51233678)
(0 0.0066379374 0.51143709)
(0 0.0053135231 0.51074295)
(0 0.0040319602 0.51022836)
(0 0.0027823228 0.50987471)
(0 0.001553908 0.50966958)
(0 0.00033617784 0.50960596)
(0 -0.00088131335 0.50968188)
(0 -0.0021090478 0.50990026)
(0 -0.0033575581 0.51026912)
(0 -0.0046375696 0.51080205)
(0 -0.0059600336 0.51151901)
(0 -0.0073361609 0.51244771)
(0 -0.0087774239 0.51362545)
(0 -0.010295566 0.51510195)
(0 -0.011902227 0.51694335)
(0 -0.013609287 0.51923841)
(0 -0.015428745 0.52210632)
(0 -0.017366589 0.52570001)
(0 -0.019437419 0.53026662)
(0 -0.021684894 0.53673138)
(0 -0.024453823 0.54797127)
(0 -0.027949438 0.56352192)
(0 -0.02817203 0.55185756)
(0 -0.018324864 0.43223881)
(0 0.00016919235 0.15739384)
(0 -0.0011532294 0.13700198)
(0 0.014078954 0.40481497)
(0 0.027782303 0.55003332)
(0 0.030212147 0.57693026)
(0 0.027017024 0.560979)
(0 0.024018142 0.54588545)
(0 0.021750161 0.53720873)
(0 0.019714231 0.53147431)
(0 0.017789293 0.52703474)
(0 0.01595685 0.52347976)
(0 0.014219904 0.52062292)
(0 0.012572476 0.51831828)
(0 0.011006624 0.51645524)
(0 0.0095142965 0.51495156)
(0 0.0080866815 0.51374547)
(0 0.0067147067 0.51279034)
(0 0.0053891527 0.51205102)
(0 0.0041007514 0.5115014)
(0 0.002840262 0.51112275)
(0 0.0015984923 0.51090253)
(0 0.0003662995 0.51083366)
(0 -0.00086541565 0.51091414)
(0 -0.0021057805 0.51114691)
(0 -0.0033639053 0.51154009)
(0 -0.0046489614 0.51210734)
(0 -0.0059701505 0.51286878)
(0 -0.0073366772 0.51385218)
(0 -0.0087576733 0.51509488)
(0 -0.010242161 0.51664649)
(0 -0.011798661 0.51857294)
(0 -0.01343531 0.52096241)
(0 -0.015159945 0.52393224)
(0 -0.016973727 0.52763293)
(0 -0.018888283 0.53234419)
(0 -0.020967398 0.53915903)
(0 -0.023536881 0.55089385)
(0 -0.026508622 0.56496047)
(0 -0.02567627 0.54632135)
(0 -0.015298027 0.41864432)
(0 0.00057406567 0.14944753)
(0 -0.0010856469 0.13172289)
(0 0.011624045 0.391432)
(0 0.025193417 0.54230454)
(0 0.02855421 0.57697278)
(0 0.026047252 0.5637591)
(0 0.023258334 0.54840448)
(0 0.021124101 0.53927992)
(0 0.019239441 0.53337927)
(0 0.017446439 0.52885366)
(0 0.015720522 0.52521635)
(0 0.014067895 0.52227867)
(0 0.012485475 0.51989813)
(0 0.010968234 0.5179655)
(0 0.0095107337 0.51639928)
(0 0.0081065779 0.51513831)
(0 0.0067488829 0.51413633)
(0 0.0054303798 0.51335842)
(0 0.0041435473 0.51277862)
(0 0.0028807224 0.51237823)
(0 0.0016341619 0.51214474)
(0 0.00039608582 0.51207106)
(0 -0.00084127856 0.51215517)
(0 -0.0020857234 0.51240003)
(0 -0.003344972 0.51281372)
(0 -0.0046267075 0.51340987)
(0 -0.0059384953 0.51420852)
(0 -0.0072877172 0.51523729)
(0 -0.0086814466 0.51653324)
(0 -0.010126386 0.51814555)
(0 -0.01162851 0.52013955)
(0 -0.01319303 0.52260245)
(0 -0.014824607 0.52564924)
(0 -0.01652117 0.52942982)
(0 -0.018294683 0.53426722)
(0 -0.020229156 0.54141016)
(0 -0.022610958 0.55345694)
(0 -0.02506951 0.56562757)
(0 -0.023368383 0.54024384)
(0 -0.012784522 0.4060413)
(0 0.00075924623 0.14301406)
(0 -0.00094381263 0.1274007)
(0 0.0097199342 0.37926474)
(0 0.022896855 0.53437435)
(0 0.026976533 0.57629311)
(0 0.025113582 0.56613141)
(0 0.022525725 0.55075725)
(0 0.020498965 0.54121709)
(0 0.018741257 0.53515225)
(0 0.017065172 0.53055819)
(0 0.01543739 0.52685961)
(0 0.013865083 0.52385998)
(0 0.012347019 0.52141998)
(0 0.010880239 0.51943185)
(0 0.0094612238 0.517815)
(0 0.0080854639 0.51650896)
(0 0.0067478674 0.51546804)
(0 0.0054428266 0.51465773)
(0 0.0041643594 0.51405233)
(0 0.0029062327 0.51363333)
(0 0.0016620475 0.51338831)
(0 0.00042530842 0.51331025)
(0 -0.00081049706 0.51339711)
(0 -0.0020518925 0.51365182)
(0 -0.0033052961 0.51408238)
(0 -0.0045770133 0.51470229)
(0 -0.005873129 0.51553135)
(0 -0.0071994214 0.51659687)
(0 -0.0085612136 0.51793544)
(0 -0.0099633036 0.51959561)
(0 -0.01140967 0.5216419)
(0 -0.012903337 0.52416036)
(0 -0.01444669 0.52726355)
(0 -0.016035886 0.53110357)
(0 -0.017685751 0.53605612)
(0 -0.019498355 0.54350231)
(0 -0.021704107 0.55567795)
(0 -0.023674122 0.56563325)
(0 -0.021276435 0.53383654)
(0 -0.01073184 0.39442925)
(0 0.00080505043 0.13776006)
(0 -0.00077521609 0.12377432)
(0 0.0082539677 0.36821629)
(0 0.020872351 0.52640221)
(0 0.025497013 0.57501912)
(0 0.024224814 0.56812552)
(0 0.021831473 0.55296073)
(0 0.019891914 0.54304491)
(0 0.018238456 0.53681299)
(0 0.016663956 0.53216083)
(0 0.015124828 0.52841683)
(0 0.01362727 0.52537033)
(0 0.012171088 0.52288437)
(0 0.010754717 0.52085267)
(0 0.0093759696 0.51919546)
(0 0.0080317563 0.517853)
(0 0.0067184057 0.51678023)
(0 0.0054316842 0.51594313)
(0 0.0041669294 0.51531635)
(0 0.0029191691 0.51488164)
(0 0.0016832161 0.51462673)
(0 0.00045375113 0.51454467)
(0 -0.00077457693 0.51463345)
(0 -0.0020071223 0.51489594)
(0 -0.003249111 0.51534001)
(0 -0.0045056102 0.51597895)
(0 -0.0057814027 0.51683225)
(0 -0.0070808966 0.51792679)
(0 -0.0084079724 0.5192986)
(0 -0.0097659189 0.52099552)
(0 -0.011157215 0.52308122)
(0 -0.012583331 0.52564049)
(0 -0.014045133 0.52878378)
(0 -0.01553831 0.5326689)
(0 -0.017082265 0.53773118)
(0 -0.01879324 0.54545197)
(0 -0.020833889 0.55757932)
(0 -0.022349027 0.56508242)
(0 -0.01940554 0.52726142)
(0 -0.009077219 0.38376767)
(0 0.00076798372 0.13341312)
(0 -0.00060784352 0.1206535)
(0 0.0071269552 0.35817774)
(0 0.019091889 0.51850027)
(0 0.024121527 0.57325978)
(0 0.023383416 0.56977079)
(0 0.021180044 0.55502784)
(0 0.019313044 0.54478383)
(0 0.01774375 0.53837984)
(0 0.016256227 0.53367416)
(0 0.014796102 0.52989611)
(0 0.013366986 0.52681448)
(0 0.011969116 0.52429341)
(0 0.010601804 0.52222794)
(0 0.0092637234 0.52053902)
(0 0.0079528087 0.51916758)
(0 0.0066664809 0.51806916)
(0 0.0054016138 0.51721023)
(0 0.0041546494 0.51656584)
(0 0.0029217006 0.51611802)
(0 0.0016986463 0.51585469)
(0 0.00048121659 0.51576901)
(0 -0.0007348966 0.51585896)
(0 -0.0019539975 0.51612735)
(0 -0.0031802512 0.51658189)
(0 -0.0044176395 0.51723564)
(0 -0.0056698301 0.51810773)
(0 -0.0069400912 0.51922456)
(0 -0.0082311488 0.52062158)
(0 -0.0095451384 0.5223459)
(0 -0.010883467 0.52446039)
(0 -0.012246562 0.52704866)
(0 -0.013634397 0.53021962)
(0 -0.0150433 0.53414068)
(0 -0.016498241 0.53931088)
(0 -0.018124602 0.54727348)
(0 -0.020010031 0.55918547)
(0 -0.021108697 0.56406983)
(0 -0.017746459 0.52063916)
(0 -0.0077559462 0.37399367)
(0 0.00068645747 0.12975793)
(0 -0.00045661578 0.117903)
(0 0.0062563133 0.34903962)
(0 0.017525336 0.51074502)
(0 0.022848188 0.57110642)
(0 0.022588031 0.57109521)
(0 0.020571616 0.556968)
(0 0.018767405 0.54644998)
(0 0.01726526 0.53986894)
(0 0.01585143 0.53511009)
(0 0.014461054 0.53130563)
(0 0.013093918 0.52819773)
(0 0.01175024 0.52565004)
(0 0.010429816 0.52355871)
(0 0.0091318214 0.52184523)
(0 0.0078548966 0.52045106)
(0 0.0065972752 0.51933228)
(0 0.0053567016 0.51845582)
(0 0.0041305209 0.51779712)
(0 0.0029157598 0.5173385)
(0 0.0017092149 0.51706806)
(0 0.00050753143 0.51697907)
(0 -0.00069268331 0.51706952)
(0 -0.0018948124 0.51734216)
(0 -0.0031020987 0.51780453)
(0 -0.0043175945 0.51846941)
(0 -0.0055440352 0.51935558)
(0 -0.0067837646 0.52048897)
(0 -0.0080386128 0.52190446)
(0 -0.0093098678 0.52364852)
(0 -0.010598217 0.5257833)
(0 -0.011903452 0.52839137)
(0 -0.01322514 0.53158097)
(0 -0.014561161 0.53553298)
(0 -0.015942404 0.54081127)
(0 -0.017497773 0.54897895)
(0 -0.019236546 0.56052109)
(0 -0.019958591 0.56267822)
(0 -0.016281924 0.51405729)
(0 -0.0067068116 0.36503376)
(0 0.00058564998 0.12662795)
(0 -0.00032799836 0.11542858)
(0 0.0055763047 0.34069804)
(0 0.016143751 0.50318655)
(0 0.021670717 0.56863477)
(0 0.02183528 0.57212486)
(0 0.020003794 0.55878782)
(0 0.018256566 0.54805556)
(0 0.016807725 0.54129404)
(0 0.015455918 0.53647939)
(0 0.014126769 0.53265313)
(0 0.012815378 0.52952548)
(0 0.0115216 0.52695772)
(0 0.010245431 0.52484676)
(0 0.0089862861 0.52311449)
(0 0.0077432654 0.52170275)
(0 0.0065151843 0.52056803)
(0 0.0053004543 0.51967769)
(0 0.0040971435 0.51900751)
(0 0.002903033 0.51854006)
(0 0.0017156927 0.51826366)
(0 0.00053254999 0.51817164)
(0 -0.00064900129 0.51826204)
(0 -0.0018315535 0.5185375)
(0 -0.0030175646 0.51900541)
(0 -0.0042093086 0.5196783)
(0 -0.0054087587 0.52057459)
(0 -0.0066175287 0.52171978)
(0 -0.0078367754 0.52314824)
(0 -0.009067194 0.5249059)
(0 -0.01030903 0.52705433)
(0 -0.011561752 0.52967526)
(0 -0.012824895 0.53287733)
(0 -0.014098573 0.53685851)
(0 -0.015419443 0.54224569)
(0 -0.01691422 0.55057831)
(0 -0.018513538 0.56160994)
(0 -0.018897993 0.56097811)
(0 -0.014991102 0.50757729)
(0 -0.0058752155 0.35681132)
(0 0.00048130524 0.12389648)
(0 -0.00022332328 0.11316579)
(0 0.0050364461 0.33305805)
(0 0.014921036 0.49585577)
(0 0.020580866 0.56590728)
(0 0.02112102 0.57288365)
(0 0.019472842 0.56049177)
(0 0.01777985 0.54960937)
(0 0.016373476 0.54266652)
(0 0.015073718 0.53779154)
(0 0.013798168 0.53394575)
(0 0.012536738 0.53080294)
(0 0.011288652 0.52822001)
(0 0.010053902 0.52609425)
(0 0.0088319663 0.52434777)
(0 0.0076222158 0.52292262)
(0 0.0064238655 0.52177562)
(0 0.0052358243 0.52087443)
(0 0.0040567269 0.52019514)
(0 0.0028849646 0.51972057)
(0 0.0017187469 0.51943917)
(0 0.00055615677 0.51934439)
(0 -0.00060474983 0.51943425)
(0 -0.0017658997 0.51971134)
(0 -0.002929097 0.52018288)
(0 -0.004095977 0.52086117)
(0 -0.0052679045 0.52176432)
(0 -0.0064459322 0.52291745)
(0 -0.0076307307 0.52435449)
(0 -0.008822605 0.52612096)
(0 -0.010021572 0.528278)
(0 -0.011227004 0.53090676)
(0 -0.012438683 0.53411747)
(0 -0.013659426 0.53812841)
(0 -0.014931111 0.5436249)
(0 -0.016372846 0.55207945)
(0 -0.017838666 0.56247404)
(0 -0.017922384 0.55902852)
(0 -0.013852488 0.5012407)
(0 -0.0052144886 0.34925124)
(0 0.00038262942 0.12146872)
(0 -0.00014106189 0.11107127)
(0 0.0045990814 0.32603502)
(0 0.013834509 0.48876997)
(0 0.019569962 0.56297549)
(0 0.020441118 0.57339337)
(0 0.018974542 0.56208274)
(0 0.01733526 0.55111737)
(0 0.015963211 0.54399552)
(0 0.014707149 0.53905473)
(0 0.013478514 0.53518984)
(0 0.012261829 0.53203496)
(0 0.011055468 0.52944045)
(0 0.0098592807 0.52730355)
(0 0.0086726915 0.52554641)
(0 0.0074952098 0.52411118)
(0 0.0063263076 0.52295482)
(0 0.0051652536 0.52204528)
(0 0.0040111166 0.52135885)
(0 0.002862772 0.52087855)
(0 0.0017189483 0.52059299)
(0 0.00057826709 0.52049566)
(0 -0.00056066854 0.52058462)
(0 -0.0016992364 0.52086236)
(0 -0.0028387064 0.52133597)
(0 -0.0039802016 0.52201755)
(0 -0.0051246122 0.52292493)
(0 -0.0062725729 0.52408292)
(0 -0.0074244189 0.52552512)
(0 -0.008580223 0.52729678)
(0 -0.0097399246 0.52945872)
(0 -0.010902967 0.53209184)
(0 -0.012069579 0.53530922)
(0 -0.013245554 0.53935209)
(0 -0.014477146 0.54495718)
(0 -0.015870997 0.55348846)
(0 -0.017208252 0.5631334)
(0 -0.017025178 0.55687838)
(0 -0.012845635 0.49507427)
(0 -0.004686085 0.34228286)
(0 0.00029445259 0.11927488)
(0 -7.830463e-05 0.10911598)
(0 0.0042367941 0.31955486)
(0 0.012864886 0.48193707)
(0 0.018629781 0.5598821)
(0 0.019791865 0.57367396)
(0 0.018504719 0.56356258)
(0 0.016920143 0.55258323)
(0 0.015576579 0.54528822)
(0 0.014357333 0.54027587)
(0 0.013169837 0.53639096)
(0 0.011993282 0.53322592)
(0 0.010825008 0.53062239)
(0 0.0096646197 0.52847706)
(0 0.0085114273 0.52671198)
(0 0.0073649834 0.52526923)
(0 0.0062249104 0.52410587)
(0 0.0050907282 0.52318997)
(0 0.0039618298 0.52249801)
(0 0.0028374667 0.52201315)
(0 0.0017167802 0.5217241)
(0 0.00059882676 0.52162443)
(0 -0.00051734793 0.52171218)
(0 -0.0016326776 0.52198979)
(0 -0.0027480047 0.52246423)
(0 -0.0038640499 0.52314742)
(0 -0.0049813435 0.52405697)
(0 -0.0061002195 0.52521745)
(0 -0.0072207973 0.52666224)
(0 -0.0083430342 0.5284364)
(0 -0.0094668974 0.53060063)
(0 -0.010592013 0.53323589)
(0 -0.011719204 0.53645943)
(0 -0.012857335 0.5405373)
(0 -0.014055991 0.54624868)
(0 -0.0154052 0.55480994)
(0 -0.016618042 0.56360594)
(0 -0.016198937 0.55456803)
(0 -0.011952052 0.48909393)
(0 -0.0042590693 0.33584149)
(0 0.00021875834 0.11726435)
(0 -3.168496e-05 0.10728031)
(0 0.0039300159 0.31355344)
(0 0.011995972 0.47535857)
(0 0.017752974 0.55666272)
(0 0.019170133 0.57374375)
(0 0.018059538 0.56493258)
(0 0.016531615 0.55400895)
(0 0.015212598 0.5465501)
(0 0.014024579 0.5414607)
(0 0.012873278 0.53755394)
(0 0.011732822 0.53437972)
(0 0.010599354 0.53176892)
(0 0.0094721661 0.52961711)
(0 0.0083504233 0.52784612)
(0 0.0072336586 0.52639784)
(0 0.0061215677 0.5252293)
(0 0.0050138369 0.52430863)
(0 0.0039100947 0.52361242)
(0 0.0028098781 0.52312394)
(0 0.0017126498 0.52283197)
(0 0.00061781023 0.52273014)
(0 -0.00047524374 0.52281646)
(0 -0.0015670942 0.52309333)
(0 -0.0026582491 0.52356764)
(0 -0.0037491207 0.52425114)
(0 -0.0048399746 0.52516129)
(0 -0.005930938 0.52632248)
(0 -0.007022006 0.52776797)
(0 -0.0081131049 0.52954274)
(0 -0.0092042953 0.53170753)
(0 -0.010295461 0.53434368)
(0 -0.011388125 0.53757391)
(0 -0.012494172 0.54169029)
(0 -0.01366534 0.54750373)
(0 -0.01497167 0.5560473)
(0 -0.016063724 0.5639077)
(0 -0.015436173 0.55213068)
(0 -0.011155546 0.48330788)
(0 -0.0039092051 0.32986907)
(0 0.00015575162 0.11540082)
(0 2.0793468e-06 0.10555065)
(0 0.0036649857 0.30797559)
(0 0.011214248 0.4690317)
(0 0.016933198 0.55334727)
(0 0.018573394 0.57361978)
(0 0.017635642 0.56619384)
(0 0.016166832 0.55539526)
(0 0.014869945 0.54778524)
(0 0.013708661 0.542614)
(0 0.012589349 0.5386829)
(0 0.011481499 0.53549979)
(0 0.010379915 0.53288286)
(0 0.0092835262 0.53072594)
(0 0.008191346 0.52895051)
(0 0.0071028481 0.52749818)
(0 0.0060177464 0.52632585)
(0 0.0049358298 0.52540165)
(0 0.0038568909 0.52470221)
(0 0.0027806781 0.52421086)
(0 0.0017068985 0.52391644)
(0 0.00063521849 0.5238126)
(0 -0.00043469253 0.52389735)
(0 -0.0015031446 0.52417304)
(0 -0.0025703898 0.52464648)
(0 -0.0036366113 0.52532932)
(0 -0.0047018869 0.52623891)
(0 -0.005766211 0.52739953)
(0 -0.0068295221 0.52884439)
(0 -0.0078917729 0.53061852)
(0 -0.0089531558 0.53278279)
(0 -0.010013857 0.53541934)
(0 -0.011076179 0.53865755)
(0 -0.012154854 0.54281594)
(0 -0.013302516 0.54872521)
(0 -0.014566643 0.55720313)
(0 -0.015541237 0.56405301)
(0 -0.014729839 0.54959376)
(0 -0.010442244 0.47771891)
(0 -0.0036178857 0.3243142)
(0 0.00010460228 0.1136584)
(0 2.5907947e-05 0.10391708)
(0 0.0034321099 0.30277403)
(0 0.010508425 0.46295093)
(0 0.016165076 0.54996097)
(0 0.017999665 0.57331792)
(0 0.017230192 0.5673475)
(0 0.015823135 0.55674203)
(0 0.01454714 0.54899659)
(0 0.013409022 0.54373967)
(0 0.012318133 0.53978136)
(0 0.011239871 0.53658914)
(0 0.010167585 0.53396673)
(0 0.0090998053 0.53180562)
(0 0.0080353962 0.53002679)
(0 0.0069737493 0.5285715)
(0 0.0059145605 0.52739642)
(0 0.004857673 0.52646963)
(0 0.0038029884 0.52576775)
(0 0.0027504055 0.52527413)
(0 0.0016998125 0.52497764)
(0 0.00065107611 0.52487194)
(0 -0.0003959281 0.52495502)
(0 -0.0014413049 0.52522922)
(0 -0.0024851171 0.52570127)
(0 -0.0035273829 0.52638276)
(0 -0.0045680539 0.52729096)
(0 -0.005607048 0.52845013)
(0 -0.0066442954 0.52989348)
(0 -0.0076798133 0.53166621)
(0 -0.0087139427 0.53382941)
(0 -0.0097471986 0.53646641)
(0 -0.010782715 0.53971441)
(0 -0.011837816 0.54391799)
(0 -0.012964747 0.54991485)
(0 -0.014186587 0.55827942)
(0 -0.015046942 0.5640548)
(0 -0.014073581 0.54698002)
(0 -0.0098004207 0.47232609)
(0 -0.003371066 0.31913177)
(0 6.3951334e-05 0.11201864)
(0 4.2249973e-05 0.10237186)
(0 0.0032247075 0.29790824)
(0 0.0098690429 0.45710894)
(0 0.015444078 0.54652524)
(0 0.017447404 0.57285306)
(0 0.016840845 0.56839492)
(0 0.015498125 0.5580486)
(0 0.014242672 0.55018621)
(0 0.013124913 0.54484091)
(0 0.012059425 0.54085233)
(0 0.011008144 0.53765036)
(0 0.0099628762 0.53502278)