/*--------------------------------*- C++ -*----------------------------------*\
  =========                 |
  \\      /  F ield         | OpenFOAM: The Open Source CFD Toolbox
   \\    /   O peration     | Website:  https://openfoam.org
    \\  /    A nd           | Version:  10
     \\/     M anipulation  |
\*---------------------------------------------------------------------------*/
FoamFile
{
    format      ascii;
    class       surfaceScalarField;
    location    "0.08";
    object      phi;
}
// * * * * * * * * * * * * * * * * * * * * * * * * * * * * * * * * * * * * * //

dimensions      [1 0 -1 0 0 0 0];

internalField   nonuniform List<scalar> 
7860
(
3.9878021e-08
5.2883006e-07
1.2179064e-08
5.964067e-07
7.4139187e-09
5.7347288e-07
5.4835187e-09
5.706381e-07
4.0985654e-09
5.7009262e-07
3.184739e-09
5.6962147e-07
2.543064e-09
5.693493e-07
2.0638371e-09
5.6918684e-07
1.6946934e-09
5.6907675e-07
1.4030721e-09
5.6899921e-07
1.1671502e-09
5.6894351e-07
9.7214172e-10
5.6890259e-07
8.0768234e-10
5.6887203e-07
6.6626329e-10
5.6884899e-07
5.4229469e-10
5.6883153e-07
4.3150057e-10
5.6881835e-07
3.3051313e-10
5.6880855e-07
2.3659169e-10
5.6880148e-07
1.4742053e-10
5.6879673e-07
6.0955682e-11
5.6879402e-07
-2.4698109e-11
5.6879321e-07
-1.113948e-10
5.6879425e-07
-2.0105544e-10
5.6879722e-07
-2.9577247e-10
5.6880227e-07
-3.9794292e-10
5.6880973e-07
-5.1043229e-10
5.6882005e-07
-6.3679572e-10
5.6883393e-07
-7.8159155e-10
5.6885236e-07
-9.5084291e-10
5.6887682e-07
-1.1527453e-09
5.6890948e-07
-1.398841e-09
5.6895368e-07
-1.7059923e-09
5.6901474e-07
-2.0992468e-09
5.6910085e-07
-2.6185646e-09
5.6922693e-07
-3.3464172e-09
5.6943548e-07
-4.4387269e-09
5.6979995e-07
-5.9870674e-09
5.7025601e-07
-9.4878677e-09
5.722085e-07
-2.9550719e-08
5.887706e-07
5.391572e-07
5.9629928e-08
4.6920044e-07
3.6615991e-08
6.1942052e-07
2.2580364e-08
5.8750846e-07
1.620318e-08
5.7701528e-07
1.2238818e-08
5.7405699e-07
9.5546265e-09
5.7230566e-07
7.6269081e-09
5.7127702e-07
6.1875034e-09
5.7062625e-07
5.0806787e-09
5.7018357e-07
4.2062582e-09
5.6987363e-07
3.4988255e-09
5.6965094e-07
2.9141397e-09
5.6948727e-07
2.4210917e-09
5.6936508e-07
1.997149e-09
5.6927293e-07
1.6255456e-09
5.6920314e-07
1.293457e-09
5.6915044e-07
9.9078258e-10
5.6911122e-07
7.0930306e-10
5.6908296e-07
4.4207377e-10
5.6906396e-07
1.8296494e-10
5.6905313e-07
-7.370807e-11
5.6904988e-07
-3.3350792e-10
5.6905405e-07
-6.0218839e-10
5.690659e-07
-8.8602727e-10
5.6908611e-07
-1.192214e-09
5.6911592e-07
-1.5293424e-09
5.6915718e-07
-1.9080751e-09
5.6921266e-07
-2.3420838e-09
5.6928637e-07
-2.8494407e-09
5.6938418e-07
-3.4547438e-09
5.6951478e-07
-4.1925391e-09
5.6969147e-07
-5.1133453e-09
5.6993555e-07
-6.2939858e-09
5.702815e-07
-7.8534493e-09
5.7078639e-07
-9.9952472e-09
5.7157728e-07
-1.3126069e-08
5.7293078e-07
-1.8061258e-08
5.751912e-07
-2.8104364e-08
5.8225161e-07
-4.57399e-08
6.0640614e-07
4.934173e-07
5.9943786e-08
4.0925743e-07
5.0394353e-08
6.2896991e-07
3.3282607e-08
6.0462005e-07
2.472838e-08
5.855695e-07
1.9232154e-08
5.7955321e-07
1.5240769e-08
5.7629705e-07
1.2272083e-08
5.7424571e-07
1.0016468e-08
5.7288186e-07
8.2603333e-09
5.7193971e-07
6.8603976e-09
5.7127357e-07
5.7204446e-09
5.7079089e-07
4.7735872e-09
5.7043413e-07
3.9719526e-09
5.7016672e-07
3.2804587e-09
5.6996442e-07
2.6727549e-09
5.6981084e-07
2.1285294e-09
5.6969467e-07
1.6316842e-09
5.6960807e-07
1.1690519e-09
5.6954559e-07
7.2946051e-10
5.6950355e-07
3.0301887e-10
5.6947957e-07
-1.19463e-10
5.6947236e-07
-5.4698094e-10
5.6948157e-07
-9.8883249e-10
5.6950775e-07
-1.4551389e-09
5.6955242e-07
-1.9574507e-09
5.6961823e-07
-2.5095095e-09
5.6970924e-07
-3.128263e-09
5.6983141e-07
-3.8352797e-09
5.6999339e-07
-4.658803e-09
5.702077e-07
-5.6368208e-09
5.704928e-07
-6.8217317e-09
5.7087639e-07
-8.28799e-09
5.7140181e-07
-1.0145311e-08
5.7213882e-07
-1.2555995e-08
5.7319708e-07
-1.5753741e-08
5.7477502e-07
-2.0101269e-08
5.7727831e-07
-2.6574872e-08
5.816648e-07
-3.8812649e-08
5.9448939e-07
-4.8065089e-08
6.1565858e-07
4.4535221e-07
5.4794666e-08
3.5446422e-07
5.731007e-08
6.2645486e-07
4.0329836e-08
6.2159996e-07
3.0644252e-08
5.9525501e-07
2.4507139e-08
5.8569033e-07
1.9817331e-08
5.8098686e-07
1.6181457e-08
5.7788158e-07
1.3340554e-08
5.7572277e-07
1.1082217e-08
5.7419804e-07
9.254531e-09
5.7310126e-07
7.7494179e-09
5.7229601e-07
6.4882178e-09
5.7169533e-07
5.4129321e-09
5.71242e-07
4.4801121e-09
5.7089724e-07
3.656541e-09
5.7063441e-07
2.9162505e-09
5.7043496e-07
2.2384222e-09
5.702859e-07
1.6058666e-09
5.7017815e-07
1.00389e-09
5.7010553e-07
4.1941158e-10
5.7006405e-07
-1.5976206e-10
5.7005154e-07
-7.4557969e-10
5.7006739e-07
-1.3503693e-09
5.7011254e-07
-1.9874958e-09
5.7018955e-07
-2.6721154e-09
5.7030285e-07
-3.4221073e-09
5.7045923e-07
-4.2592847e-09
5.7066859e-07
-5.2110338e-09
5.7094514e-07
-6.3125996e-09
5.7130927e-07
-7.6103538e-09
5.7179056e-07
-9.1663724e-09
5.724324e-07
-1.106483e-08
5.7330027e-07
-1.3422412e-08
5.744964e-07
-1.6401027e-08
5.7617569e-07
-2.0199319e-08
5.7857332e-07
-2.5084545e-08
5.8216353e-07
-3.2310031e-08
5.8889029e-07
-4.4889975e-08
6.0706933e-07
-4.6407131e-08
6.1717573e-07
3.9894508e-07
4.7865487e-08
3.0660106e-07
5.9881622e-08
6.1443986e-07
4.5201832e-08
6.3627932e-07
3.4687165e-08
6.0576948e-07
2.821247e-08
5.9216503e-07
2.3234248e-08
5.8596509e-07
1.9254234e-08
5.818616e-07
1.6057018e-08
5.7891998e-07
1.345769e-08
5.7679737e-07
1.1316579e-08
5.7524237e-07
9.528316e-09
5.7408427e-07
8.0126383e-09
5.7321101e-07
6.7083271e-09
5.7254631e-07
5.5681945e-09
5.7203738e-07
4.5553082e-09
5.716473e-07
3.6402403e-09
5.7135003e-07
2.799024e-09
5.7112711e-07
2.0116119e-09
5.7096556e-07
1.2606884e-09
5.7085645e-07
5.3072161e-10
5.7079402e-07
-1.9283335e-10
5.7077509e-07
-9.2424769e-10
5.707988e-07
-1.6782129e-09
5.708665e-07
-2.470568e-09
5.709819e-07
-3.3191198e-09
5.711514e-07
-4.2446322e-09
5.7138474e-07
-5.2720714e-09
5.7169603e-07
-6.4322222e-09
5.7210529e-07
-7.763822e-09
5.7264087e-07
-9.316443e-09
5.7334318e-07
-1.115428e-08
5.7427024e-07
-1.3360586e-08
5.7550657e-07
-1.6044177e-08
5.7717999e-07
-1.9349357e-08
5.7948087e-07
-2.3447551e-08
5.8267151e-07
-2.8640781e-08
5.8735676e-07
-3.6493913e-08
5.9674342e-07
-4.8166482e-08
6.187419e-07
-4.3012483e-08
6.1202173e-07
3.559326e-07
4.0221894e-08
2.6638254e-07
5.8744636e-08
5.9591951e-07
4.8060437e-08
6.4696318e-07
3.7335883e-08
6.1649363e-07
3.0682086e-08
5.9881879e-07
2.565107e-08
5.9099612e-07
2.1544733e-08
5.8596794e-07
1.81677e-08
5.8229702e-07
1.5366758e-08
5.7959831e-07
1.3019534e-08
5.7758959e-07
1.1029792e-08
5.7607401e-07
9.3219709e-09
5.7491883e-07
7.8366899e-09
5.740316e-07
6.5268303e-09
5.7334724e-07
5.3545747e-09
5.7281956e-07
4.2891356e-09
5.7241547e-07
3.3049725e-09
5.7211128e-07
2.3803886e-09
5.7189014e-07
1.4964091e-09
5.7174043e-07
6.3585701e-10
5.7165457e-07
-2.1744215e-10
5.7162839e-07
-1.0793819e-09
5.7166074e-07
-1.9662819e-09
5.7175341e-07
-2.8956222e-09
5.7191124e-07
-3.8868547e-09
5.7214263e-07
-4.9623556e-09
5.7246024e-07
-6.1485841e-09
5.7288226e-07
-7.4775249e-09
5.7343423e-07
-8.9884946e-09
5.7415184e-07
-1.0730458e-08
5.7508514e-07
-1.2765074e-08
5.7630486e-07
-1.5170128e-08
5.7791163e-07
-1.8043625e-08
5.8005349e-07
-2.1510614e-08
5.8294786e-07
-2.572811e-08
5.8688901e-07
-3.1101748e-08
5.927304e-07
-3.9249947e-08
6.0489162e-07
-4.8780091e-08
6.2827204e-07
-3.8357962e-08
6.0159961e-07
3.1757463e-07
3.273599e-08
2.3365111e-07
5.4944565e-08
5.7371507e-07
4.8880891e-08
6.5302687e-07
3.8733275e-08
6.2664057e-07
3.2114959e-08
6.0543699e-07
2.7209956e-08
5.9590114e-07
2.3140506e-08
5.9003739e-07
1.971927e-08
5.8571825e-07
1.6828944e-08
5.8248864e-07
1.4366889e-08
5.8005165e-07
1.2248965e-08
5.7819194e-07
1.0407609e-08
5.7676019e-07
8.7882953e-09
5.7565091e-07
7.346581e-09
5.7478895e-07
6.0459145e-09
5.7412022e-07
4.8558744e-09
5.7360551e-07
3.7507225e-09
5.7321643e-07
2.708223e-09
5.7293265e-07
1.7086611e-09
5.7273999e-07
7.3400746e-10
5.7262922e-07
-2.3281951e-10
5.7259522e-07
-1.2086331e-09
5.7263656e-07
-2.2106499e-09
5.7275542e-07
-3.2571799e-09
5.7295777e-07
-4.3683749e-09
5.7325383e-07
-5.5670834e-09
5.7365895e-07
-6.879856e-09
5.7419503e-07
-8.3381556e-09
5.7489253e-07
-9.9798175e-09
5.757935e-07
-1.1850835e-08
5.7695616e-07
-1.4007759e-08
5.7846178e-07
-1.6520608e-08
5.8042448e-07
-1.9474935e-08
5.8300782e-07
-2.2972614e-08
5.8644554e-07
-2.7155875e-08
5.9107227e-07
-3.2534912e-08
5.9810944e-07
-4.048152e-08
6.1283823e-07
-4.7193329e-08
6.3498385e-07
-3.3118097e-08
5.8752437e-07
2.8445654e-07
2.6050396e-08
2.076066e-07
4.9769387e-08
5.500025e-07
4.8050302e-08
6.5474676e-07
3.9073216e-08
6.356167e-07
3.26817e-08
6.1182823e-07
2.8027838e-08
6.0055501e-07
2.4123058e-08
5.9394219e-07
2.0767335e-08
5.8907398e-07
1.7878888e-08
5.8537709e-07
1.5377937e-08
5.825526e-07
1.3194937e-08
5.8037494e-07
1.1272347e-08
5.7868278e-07
9.562326e-09
5.7736093e-07
8.0247959e-09
5.7632648e-07
6.6259762e-09
5.7551904e-07
5.3371049e-09
5.7489438e-07
4.1333457e-09
5.7442019e-07
2.9928599e-09
5.7407313e-07
1.8960028e-09
5.7383685e-07
8.2461474e-10
5.7370061e-07
-2.3862175e-10
5.7365846e-07
-1.3107841e-09
5.7370872e-07
-2.4093092e-09
5.7385395e-07
-3.5526044e-09
5.7410107e-07
-4.7606979e-09
5.7446192e-07
-6.0559633e-09
5.7495422e-07
-7.4639409e-09
5.7560301e-07
-9.0142965e-09
5.7644289e-07
-1.0741941e-08
5.7752115e-07
-1.2688309e-08
5.7890253e-07
-1.4903021e-08
5.806765e-07
-1.7446015e-08
5.8296747e-07
-2.0387591e-08
5.8594939e-07
-2.380426e-08
5.8986221e-07
-2.7831179e-08
5.9509919e-07
-3.3060351e-08
6.0333861e-07
-4.0391793e-08
6.2016967e-07
-4.4194072e-08
6.3878613e-07
-2.7910109e-08
5.7124041e-07
2.5654643e-07
2.0420408e-08
1.8719358e-07
4.4159407e-08
5.2627277e-07
4.6097416e-08
6.5281085e-07
3.8630826e-08
6.4308212e-07
3.2595008e-08
6.1786353e-07
2.8247141e-08
6.0490287e-07
2.4586787e-08
5.9760256e-07
2.1376653e-08
5.9228411e-07
1.8560557e-08
5.8819318e-07
1.6081716e-08
5.8503144e-07
1.3886155e-08
5.825705e-07
1.1927281e-08
5.8064165e-07
1.0164945e-08
5.7912327e-07
8.5644722e-09
5.7792696e-07
7.0958343e-09
5.7698768e-07
5.7328312e-09
5.7625739e-07
4.4523462e-09
5.7570067e-07
3.2336736e-09
5.7529181e-07
2.0579051e-09
5.7501262e-07
9.0736597e-10
5.7485115e-07
-2.3491262e-10
5.7480074e-07
-1.3856972e-09
5.7485951e-07
-2.5620568e-09
5.7503031e-07
-3.7818737e-09
5.7532089e-07
-5.0643773e-09
5.7574443e-07
-6.4307203e-09
5.7632056e-07
-7.9046076e-09
5.770769e-07
-9.512994e-09
5.7805128e-07
-1.1286864e-08
5.7929502e-07
-1.3262042e-08
5.8087771e-07
-1.548011e-08
5.8289456e-07
-1.7989633e-08
5.85477e-07
-2.0844728e-08
5.8880449e-07
-2.4100857e-08
5.9311834e-07
-2.7901755e-08
5.9890009e-07
-3.2876907e-08
6.0831376e-07
-3.9314157e-08
6.2660693e-07
-4.0440544e-08
6.3991252e-07
-2.3087048e-08
5.5388692e-07
2.3345938e-07
1.5852452e-08
1.7135027e-07
3.8656065e-08
5.0348186e-07
4.3459982e-08
6.4801093e-07
3.7646538e-08
6.4889432e-07
3.2057093e-08
6.2345213e-07
2.802238e-08
6.0893751e-07
2.4639667e-08
6.0098531e-07
2.162257e-08
5.9530122e-07
1.8926691e-08
5.9088906e-07
1.6515038e-08
5.874431e-07
1.4348072e-08
5.8473747e-07
1.2389737e-08
5.8259999e-07
1.0607714e-08
5.8090529e-07
8.9731366e-09
5.7956154e-07
7.4602377e-09
5.7850058e-07
6.0459274e-09
5.776717e-07
4.7093581e-09
5.7703725e-07
3.4314895e-09
5.7656967e-07
2.1946596e-09
5.7624945e-07
9.8216843e-10
5.7606365e-07
-2.221272e-10
5.7600503e-07
-1.4342092e-09
5.7607159e-07
-2.6702988e-09
5.762664e-07
-3.9472572e-09
5.7659785e-07
-5.2829957e-09
5.7708017e-07
-6.6969024e-09
5.7773447e-07
-8.2102829e-09
5.7859028e-07
-9.8468131e-09
5.7968781e-07
-1.1633011e-08
5.8108122e-07
-1.3598674e-08
5.8284337e-07
-1.5777251e-08
5.8507314e-07
-1.8206275e-08
5.8790602e-07
-2.0925081e-08
5.915233e-07
-2.3975486e-08
5.9616875e-07
-2.7520868e-08
6.0244547e-07
-3.2167494e-08
6.1296039e-07
-3.7543345e-08
6.3198278e-07
-3.637475e-08
6.3874393e-07
-1.8817396e-08
5.3632956e-07
2.1464199e-07
1.2247109e-08
1.5911448e-07
3.3557314e-08
4.8218851e-07
4.0466304e-08
6.4110854e-07
3.6297174e-08
6.5306233e-07
3.1220133e-08
6.2852792e-07
2.7486619e-08
6.1267084e-07
2.4384065e-08
6.040879e-07
2.158128e-08
5.9810402e-07
1.9033495e-08
5.9343685e-07
1.6719004e-08
5.8975759e-07
1.4610503e-08
5.8684597e-07
1.2681173e-08
5.8452932e-07
1.0905939e-08
5.8268053e-07
9.2615794e-09
5.812059e-07
7.726675e-09
5.8003549e-07
6.2814708e-09
5.791169e-07
4.9076889e-09
5.7841103e-07
3.5882921e-09
5.7788907e-07
2.3072187e-09
5.7753053e-07
1.0491032e-09
5.7732176e-07
-2.0101008e-10
5.7725515e-07
-1.4579557e-09
5.7732854e-07
-2.7367423e-09
5.7754519e-07
-4.0528452e-09
5.7791395e-07
-5.4224962e-09
5.7844982e-07
-6.862971e-09
5.7917495e-07
-8.3928637e-09
5.8012018e-07
-1.0032336e-08
5.8132728e-07
-1.1803345e-08
5.8285223e-07
-1.3729822e-08
5.8476985e-07
-1.5837723e-08
5.8718104e-07
-1.8154784e-08
5.9022308e-07
-2.0707883e-08
5.940764e-07
-2.3532083e-08
5.9899295e-07
-2.6812663e-08
6.0572605e-07
-3.107341e-08
6.1722114e-07
-3.5320795e-08
6.3623016e-07
-3.2296823e-08
6.3571996e-07
-1.5161699e-08
5.1919444e-07
1.9948029e-07
9.4655438e-09
1.4966308e-07
2.9014382e-08
4.6266152e-07
3.7361832e-08
6.327711e-07
3.4719442e-08
6.5570407e-07
3.0193308e-08
6.3305234e-07
2.674246e-08
6.1612132e-07
2.3905219e-08
6.0692518e-07
2.1320489e-08
6.0068877e-07
1.8933956e-08
5.9582338e-07
1.6734403e-08
5.9195714e-07
1.4704415e-08
5.8887596e-07
1.282486e-08
5.8640888e-07
1.1076944e-08
5.8442844e-07
9.4425623e-09
5.8284028e-07
7.9044107e-09
5.8157364e-07
6.4460369e-09
5.8057528e-07
5.0518227e-09
5.7980524e-07
3.7068989e-09
5.79234e-07
2.3970141e-09
5.7884041e-07
1.108373e-09
5.786104e-07
-1.7254401e-10
5.7853607e-07
-1.4591702e-09
5.7861516e-07
-2.7650512e-09
5.7885107e-07
-4.104037e-09
5.7925294e-07
-5.4904645e-09
5.7983625e-07
-6.9393251e-09
5.8062381e-07
-8.4664047e-09
5.8164726e-07
-1.0088379e-08
5.8294925e-07
-1.1822863e-08
5.8458671e-07
-1.3688427e-08
5.8663541e-07
-1.5704446e-08
5.8919706e-07
-1.7890309e-08
5.9240895e-07
-2.0263052e-08
5.9644914e-07
-2.2856719e-08
6.0158662e-07
-2.5874135e-08
6.0874347e-07
-2.9711397e-08
6.210584e-07
-3.284951e-08
6.3936828e-07
-2.8410442e-08
6.3128089e-07
-1.2114291e-08
5.0289829e-07
1.87366e-07
7.3589196e-09
1.4232215e-07
2.5074048e-08
4.4497426e-07
3.4316196e-08
6.2354332e-07
3.3021646e-08
6.5699884e-07
2.9057579e-08
6.3701419e-07
2.5868046e-08
6.1931023e-07
2.3271431e-08
6.0952182e-07
2.0896914e-08
6.0306332e-07
1.8674503e-08
5.980458e-07
1.6598608e-08
5.9403304e-07
1.4659406e-08
5.9081516e-07
1.2843925e-08
5.8822436e-07
1.1138579e-08
5.8613379e-07
9.5296802e-09
5.8444918e-07
8.0036291e-09
5.8309969e-07
6.5470679e-09
5.8203184e-07
5.1469703e-09
5.8120534e-07
3.7906621e-09
5.8059031e-07
2.46579e-09
5.8016528e-07
1.1602547e-09
5.7991594e-07
-1.3788066e-10
5.798342e-07
-1.440495e-09
5.7991778e-07
-2.7595237e-09
5.801701e-07
-4.107063e-09
5.8060048e-07
-5.4954635e-09
5.8122465e-07
-6.937401e-09
5.8206575e-07
-8.4459139e-09
5.8315577e-07
-1.003439e-08
5.8453773e-07
-1.1716499e-08
5.8626882e-07
-1.3506103e-08
5.8842502e-07
-1.5416987e-08
5.9110795e-07
-1.746171e-08
5.9445367e-07
-1.9650337e-08
5.9863777e-07
-2.2020447e-08
6.0395673e-07
-2.47839e-08
6.1150692e-07
-2.8181123e-08
6.2445562e-07
-3.0289789e-08
6.4147694e-07
-2.4836446e-08
6.2582755e-07
-9.627644e-09
4.8768949e-07
1.7773836e-07
5.7867945e-09
1.3655888e-07
2.1713783e-08
4.2908252e-07
3.1429908e-08
6.1384701e-07
3.1282575e-08
6.571478e-07
2.7871004e-08
6.4042306e-07
2.4921669e-08
6.222586e-07
2.2536642e-08
6.1190682e-07
2.0357107e-08
6.0524291e-07
1.8294537e-08
6.0010838e-07
1.6344451e-08
5.9598312e-07
1.4502393e-08
5.9265722e-07
1.2760106e-08
5.8996665e-07
1.1108145e-08
5.8778575e-07
9.536489e-09
5.8602084e-07
8.0347473e-09
5.8460143e-07
6.5923486e-09
5.8347424e-07
5.1986881e-09
5.82599e-07
3.8432124e-09
5.8194578e-07
2.5154594e-09
5.8149304e-07
1.2050612e-09
5.8122634e-07
-9.8277575e-11
5.8113754e-07
-1.4048121e-09
5.8122431e-07
-2.7248091e-09
5.814901e-07
-4.0685739e-09
5.8194424e-07
-5.4464758e-09
5.8260255e-07
-6.8689454e-09
5.8348822e-07
-8.3464385e-09
5.8463326e-07
-9.8893542e-09
5.8608065e-07
-1.1507901e-08
5.8788737e-07
-1.3211953e-08
5.9012907e-07
-1.5010722e-08
5.9290672e-07
-1.6911488e-08
5.9635444e-07
-1.8920247e-08
6.0064653e-07
-2.1081072e-08
6.0611755e-07
-2.360404e-08
6.1402989e-07
-2.6561919e-08
6.274135e-07
-2.7754544e-08
6.4266957e-07
-2.1628694e-08
6.197017e-07
-7.6325359e-09
4.7369333e-07
1.7010582e-07
4.6266949e-09
1.3196383e-07
1.8874376e-08
4.1487932e-07
2.8749852e-08
6.0399811e-07
2.9552862e-08
6.5634847e-07
2.6671072e-08
6.4330172e-07
2.3943766e-08
6.2498449e-07
2.1741616e-08
6.1410887e-07
1.9738164e-08
6.0724642e-07
1.7826647e-08
6.0201991e-07
1.5999992e-08
5.9780978e-07
1.4257089e-08
5.9440012e-07
1.2593105e-08
5.9163063e-07
1.1001741e-08
5.8937712e-07
9.4759093e-09
5.8754667e-07
8.0079091e-09
5.8606944e-07
6.5896018e-09
5.8489255e-07
5.2125725e-09
5.8397603e-07
3.8682489e-09
5.8329011e-07
2.5479841e-09
5.828133e-07
1.2431088e-09
5.8253122e-07
-5.5042958e-11
5.824357e-07
-1.3550997e-09
5.8252437e-07
-2.6656735e-09
5.8280067e-07
-3.9953093e-09
5.8327388e-07
-5.352471e-09
5.8395972e-07
-6.7454837e-09
5.8488123e-07
-8.1824495e-09
5.8607023e-07
-9.67113e-09
5.8756933e-07
-1.121879e-08
5.8943503e-07
-1.283204e-08
5.9174232e-07
-1.4516504e-08
5.9459118e-07
-1.6275641e-08
5.9811357e-07
-1.8113932e-08
6.0248482e-07
-2.0083108e-08
6.0808673e-07
-2.2380137e-08
6.1632692e-07
-2.4911501e-08
6.2994487e-07
-2.531469e-08
6.4307276e-07
-1.879527e-08
6.1318228e-07
-6.0526239e-09
4.6095069e-07
1.640532e-07
3.7764835e-09
1.2823044e-07
1.6482749e-08
4.0222924e-07
2.6288612e-08
5.9422716e-07
2.7861428e-08
6.5478218e-07
2.5479049e-08
6.4568064e-07
2.295975e-08
6.2750185e-07
2.0915228e-08
6.1615317e-07
1.9068336e-08
6.0909338e-07
1.7296862e-08
6.0379141e-07
1.5588511e-08
5.9951813e-07
1.3943813e-08
5.9604482e-07
1.2360275e-08
5.9321417e-07
1.0833893e-08
5.909035e-07
9.3598507e-09
5.8902071e-07
7.9326408e-09
5.8749665e-07
6.5461945e-09
5.86279e-07
5.1940294e-09
5.853282e-07
3.8693756e-09
5.8461476e-07
2.5652803e-09
5.841174e-07
1.2746918e-09
5.8382181e-07
-9.479709e-12
5.8371987e-07
-1.2943193e-09
5.8380921e-07
-2.5868161e-09
5.8409317e-07
-3.8938457e-09
5.8458091e-07
-5.2220913e-09
5.8528796e-07
-6.5779527e-09
5.8623709e-07
-7.9674393e-09
5.8745972e-07
-9.3960408e-09
5.8899793e-07
-1.0868579e-08
5.9090757e-07
-1.2389074e-08
5.9326282e-07
-1.3960422e-08
5.9616253e-07
-1.5583529e-08
5.9973668e-07
-1.7263342e-08
6.0416463e-07
-1.9058812e-08
6.098822e-07
-2.1143525e-08
6.1841163e-07
-2.3269013e-08
6.3207036e-07
-2.3009113e-08
6.4281286e-07
-1.6316568e-08
6.0648974e-07
-4.8128677e-09
4.4944699e-07
1.5924034e-07
3.1535e-09
1.2513483e-07
1.4464469e-08
3.909895e-07
2.4038192e-08
5.8469863e-07
2.6222047e-08
6.5260864e-07
2.4305017e-08
6.4759406e-07
2.1983899e-08
6.2982039e-07
2.0076688e-08
6.1805998e-07
1.8368214e-08
6.1080193e-07
1.672527e-08
6.0543438e-07
1.512877e-08
6.0111464e-07
1.3579517e-08
5.9759407e-07
1.2076514e-08
5.9471717e-07
1.0617377e-08
5.9236264e-07
9.1990045e-09
5.9043908e-07
7.8176415e-09
5.8887801e-07
6.468949e-09
5.8762769e-07
5.1481185e-09
5.8664903e-07
3.8499886e-09
5.8591289e-07
2.569153e-09
5.8539824e-07
1.3000593e-09
5.850909e-07
3.709297e-11
5.8498284e-07
-1.2253377e-09
5.8507164e-07
-2.4927353e-09
5.8536057e-07
-3.770418e-09
5.858586e-07
-5.0634348e-09
5.8658098e-07
-6.3764593e-09
5.8755012e-07
-7.7136733e-09
5.8879693e-07
-9.0786428e-09
5.903629e-07
-1.0474197e-08
5.9230313e-07
-1.1902332e-08
5.9469095e-07
-1.3363925e-08
5.9762413e-07
-1.4858355e-08
6.0123111e-07
-1.6392391e-08
6.0569867e-07
-1.8030564e-08
6.1152038e-07
-1.9914745e-08
6.2029582e-07
-2.1659385e-08
6.33815e-07
-2.0854382e-08
6.4200786e-07
-1.4157897e-08
5.9979325e-07
-3.8442012e-09
4.3913329e-07
1.5539614e-07
2.6927356e-09
1.2251742e-07
1.2750342e-08
3.8102235e-07
2.1979414e-08
5.7552747e-07
2.4638413e-08
6.499649e-07
2.3151848e-08
6.4907712e-07
2.1022913e-08
6.3194603e-07
1.9238038e-08
6.198442e-07
1.7652331e-08
6.123877e-07
1.6127006e-08
6.0695975e-07
1.4635571e-08
6.0260608e-07
1.3178067e-08
5.9905158e-07
1.1754371e-08
5.9614087e-07
1.0363215e-08
5.937538e-07
9.0027784e-09
5.9179952e-07
7.6706914e-09
5.902101e-07
6.3640466e-09
5.8893434e-07
5.0794692e-09
5.8793361e-07
3.8132133e-09
5.8717915e-07
2.5612638e-09
5.8665019e-07
1.3194373e-09
5.8633273e-07
8.3482597e-11
5.8621879e-07
-1.1508365e-09
5.8630596e-07
-2.3876294e-09
5.8659736e-07
-3.6307969e-09
5.8710176e-07
-4.8839181e-09
5.878341e-07
-6.1501414e-09
5.8881634e-07
-7.4320716e-09
5.9007887e-07
-8.7316605e-09
5.9166249e-07
-1.0050123e-08
5.9362159e-07
-1.1387879e-08
5.9602871e-07
-1.2744341e-08
5.9898059e-07
-1.4118141e-08
6.0260492e-07
-1.5518613e-08
6.0709914e-07
-1.7013417e-08
6.1301518e-07
-1.8706665e-08
6.2198907e-07
-2.0097162e-08
6.352055e-07
-1.8852304e-08
6.40763e-07
-1.2278085e-08
5.9321903e-07
-3.0862009e-09
4.2994141e-07
1.5230994e-07
2.3445379e-09
1.2026713e-07
1.1279761e-08
3.7220181e-07
2.0088376e-08
5.6679248e-07
2.3108069e-08
6.4696678e-07
2.2018098e-08
6.5016402e-07
2.0078644e-08
6.3388141e-07
1.84063e-08
6.2151558e-07
1.6930735e-08
6.138633e-07
1.5513359e-08
6.0837719e-07
1.4120494e-08
6.0399895e-07
1.2750706e-08
6.0042137e-07
1.1404308e-08
5.9748727e-07
1.0080807e-08
5.950773e-07
8.7793454e-09
5.9310099e-07
7.498653e-09
5.9149079e-07
6.2370068e-09
5.9019598e-07
4.9922548e-09
5.8917836e-07
3.7618872e-09
5.8840952e-07
2.5431254e-09
5.8786895e-07
1.3330184e-09
5.8754284e-07
1.2854765e-10
5.8742326e-07
-1.073283e-09
5.875078e-07
-2.275328e-09
5.8779941e-07
-3.4802096e-09
5.8830665e-07
-4.6901991e-09
5.8904409e-07
-5.9071112e-09
5.9003326e-07
-7.1321965e-09
5.9130395e-07
-8.3660551e-09
5.9289635e-07
-9.6085871e-09
5.9486412e-07
-1.0858978e-08
5.972791e-07
-1.2115568e-08
6.0023718e-07
-1.3376795e-08
6.0386614e-07
-1.4654738e-08
6.0837709e-07
-1.6017276e-08
6.1437772e-07
-1.7527006e-08
6.234988e-07
-1.8589891e-08
6.3626839e-07
-1.6996113e-08
6.3916922e-07
-1.0635527e-08
5.8685845e-07
-2.4883459e-09
4.2179423e-07
1.4982159e-07
2.0720415e-09
1.1830885e-07
1.0001881e-08
3.6441657e-07
1.8340749e-08
5.5854664e-07
2.1625564e-08
6.4371151e-07
2.090026e-08
6.5088713e-07
1.9150204e-08
6.3562655e-07
1.7585222e-08
6.2307919e-07
1.6210317e-08
6.152382e-07
1.4892774e-08
6.0969481e-07
1.3592623e-08
6.0529912e-07
1.2306544e-08
6.0170745e-07
1.1035017e-08
5.987588e-07
9.7781222e-09
5.963342e-07
8.535748e-09
5.9434336e-07
7.3075188e-09
5.9271902e-07
6.0927013e-09
5.914108e-07
4.8901899e-09
5.9038088e-07
3.6985508e-09
5.8960116e-07
2.516097e-09
5.8905141e-07
1.3409754e-09
5.8871796e-07
1.7127112e-10
5.8859297e-07
-9.9489751e-10
5.8867397e-07
-2.1592642e-09
5.8896378e-07
-3.3233132e-09
5.894707e-07
-4.488164e-09
5.9020895e-07
-5.6544699e-09
5.9119957e-07
-6.8223206e-09
5.924718e-07
-7.9911768e-09
5.9406521e-07
-9.1598518e-09
5.960328e-07
-1.032653e-08
5.9844578e-07
-1.1488749e-08
6.013994e-07
-1.2645074e-08
6.0502247e-07
-1.3810047e-08
6.0954206e-07
-1.5048708e-08
6.1561638e-07
-1.638049e-08
6.2483058e-07
-1.7141145e-08
6.3702904e-07
-1.527535e-08
6.3730343e-07
-9.1921768e-09
5.8077528e-07
-2.0102185e-09
4.1461227e-07
1.4781137e-07
1.848629e-09
1.1659368e-07
8.8754327e-09
3.5757049e-07
1.6714373e-08
5.5082446e-07
2.0184855e-08
6.4028053e-07
1.9794552e-08
6.5127667e-07
1.8235636e-08
6.3717969e-07
1.6776684e-08
6.2453628e-07
1.5495904e-08
6.1651889e-07
1.4271681e-08
6.1091911e-07
1.3059156e-08
6.0651167e-07
1.1852996e-08
6.0291361e-07
1.0653716e-08
5.9995808e-07
9.4618774e-09
5.9752604e-07
8.2779956e-09
5.9552724e-07
7.10245e-09
5.9389457e-07
5.935354e-09
5.925779e-07
4.7765065e-09
5.9153973e-07
3.6254129e-09
5.9075226e-07
2.4813456e-09
5.9019548e-07
1.3434236e-09
5.8985588e-07
2.1071037e-10
5.8972568e-07
-9.1768698e-10
5.8980237e-07
-2.0425098e-09
5.900886e-07
-3.1642393e-09
5.9059243e-07
-4.2829882e-09
5.913277e-07
-5.3984014e-09
5.9231498e-07
-6.5095697e-09
5.9358297e-07
-7.6149814e-09
5.9517062e-07
-8.7125259e-09
5.9713035e-07
-9.7995365e-09
5.995328e-07
-1.0872901e-08
6.0247277e-07
-1.1931446e-08
6.0608102e-07
-1.2991543e-08
6.1060216e-07
-1.4112449e-08
6.1673729e-07
-1.5270631e-08
6.2598876e-07
-1.575304e-08
6.3751145e-07
-1.3679409e-08
6.352298e-07
-7.9157567e-09
5.7501163e-07
-1.6209862e-09
4.083175e-07
1.4619038e-07
1.6556455e-09
1.1509117e-07
7.8678898e-09
3.5158166e-07
1.5190723e-08
5.4364712e-07
1.8781026e-08
6.3674199e-07
1.8698236e-08
6.5136082e-07
1.7333164e-08
6.3853816e-07
1.5981807e-08
6.2588521e-07
1.4791132e-08
6.1770937e-07
1.3655166e-08
6.1205517e-07
1.2525913e-08
6.0764095e-07
1.139614e-08
6.0404338e-07
1.0266386e-08
6.0108784e-07
9.1376859e-09
5.9865474e-07
8.0111378e-09
5.9665379e-07
6.8877973e-09
5.9501791e-07
5.7685243e-09
5.9369717e-07
4.6539122e-09
5.9265434e-07
3.544291e-09
5.9186188e-07
2.4397761e-09
5.9129999e-07
1.340342e-09
5.9095532e-07
2.4591307e-10
5.9082012e-07
-8.4353521e-10
5.9089182e-07
-1.9278732e-09
5.9117294e-07
-3.0067062e-09
5.9167126e-07
-4.0792713e-09
5.9240026e-07
-5.1443397e-09
5.9338005e-07
-6.200138e-09
5.9463877e-07
-7.2443099e-09
5.962148e-07
-8.2739323e-09
5.9815997e-07
-9.2855715e-09
6.0054444e-07
-1.0275532e-08
6.0346273e-07
-1.124288e-08
6.0704837e-07
-1.2204958e-08
6.1156424e-07
-1.3212626e-08
6.1774496e-07
-1.4201114e-08
6.2697725e-07
-1.442812e-08
6.3773846e-07
-1.2199942e-08
6.3300163e-07
-6.7809799e-09
5.6959267e-07
-1.2982293e-09
4.0283475e-07
1.4489215e-07
1.480483e-09
1.1378324e-07
6.954519e-09
3.4638017e-07
1.3755747e-08
5.3702556e-07
1.7411515e-08
6.3315283e-07
1.76106e-08
6.5116601e-07
1.6442139e-08
6.3969923e-07
1.5201815e-08
6.2712244e-07
1.4099168e-08
6.1881167e-07
1.3047558e-08
6.1310688e-07
1.1997799e-08
6.0869074e-07
1.0941083e-08
6.051001e-07
9.8780451e-09
6.0215087e-07
8.8102538e-09
5.9972253e-07
7.739404e-09
5.9772465e-07
6.6671929e-09
5.9609013e-07
5.5951627e-09
5.9476921e-07
4.5246174e-09
5.9372489e-07
3.4566168e-09
5.9292988e-07
2.3920177e-09
5.9236459e-07
1.3315438e-09
5.9201579e-07
2.7587258e-10
5.9187579e-07
-7.7426485e-10
5.9194196e-07
-1.8179813e-09
5.9221666e-07
-2.8541242e-09
5.9270741e-07
-3.8811737e-09
5.9342731e-07
-4.8971454e-09
5.9439602e-07
-5.8995147e-09
5.9564115e-07
-6.8851801e-09
5.9720046e-07
-7.8504799e-09
5.9912527e-07
-8.7912521e-09
6.0148521e-07
-9.7032233e-09
6.043747e-07
-1.0585566e-08
6.0793071e-07
-1.1455615e-08
6.1243429e-07
-1.235371e-08
6.1864306e-07
-1.317681e-08
6.2780035e-07
-1.3170647e-08
6.377323e-07
-1.083228e-08
6.3066326e-07
-5.7699063e-09
5.6453029e-07
-1.0264971e-09
3.9809135e-07
1.4386565e-07
1.3151096e-09
1.1265927e-07
6.1175866e-09
3.4190511e-07
1.2400419e-08
5.3096224e-07
1.6077072e-08
6.2956045e-07
1.6533747e-08
6.5071747e-07
1.5563831e-08
6.4066109e-07
1.4438837e-08
6.2824362e-07
1.3423436e-08
6.1982653e-07
1.2453075e-08
6.1407733e-07
1.1479381e-08
6.0966448e-07
1.0492457e-08
6.0608704e-07
9.4931841e-09
6.0315015e-07
8.4837652e-09
6.0073195e-07
7.4665419e-09
5.9874187e-07
6.4438512e-09
5.9711282e-07
5.4178781e-09
5.9579518e-07
4.3905737e-09
5.9475219e-07
3.3636483e-09
5.9395681e-07
2.3386114e-09
5.9338963e-07
1.3168404e-09
5.9303757e-07
2.9966704e-10
5.9289296e-07
-7.1152514e-10
5.9295315e-07
-1.715197e-09
5.9322033e-07
-2.7095466e-09
5.9370176e-07
-3.6924054e-09
5.9441017e-07
-4.6611403e-09
5.9536476e-07
-5.6125738e-09
5.9659258e-07
-6.5429412e-09
5.9813083e-07
-7.4478962e-09
6.0003023e-07
-8.3225639e-09
6.0235988e-07
-9.1620621e-09
6.052142e-07
-9.9654564e-09
6.0873411e-07
-1.0749082e-08
6.1321792e-07
-1.1541199e-08
6.1943518e-07
-1.2204418e-08
6.2846357e-07
-1.1987324e-08
6.3751521e-07
-9.5760381e-09
6.2825198e-07
-4.8718515e-09
5.5982611e-07
-7.9699445e-10
3.9401649e-07
1.4306865e-07
1.1550383e-09
1.1171228e-07
5.3457986e-09
3.3810083e-07
1.1121107e-08
5.2545168e-07
1.4782515e-08
6.2600388e-07
1.5473341e-08
6.500397e-07
1.4702236e-08
6.4142369e-07
1.3696745e-08
6.2924454e-07
1.2768429e-08
6.2075408e-07
1.1876579e-08
6.1496926e-07
1.097559e-08
6.1056553e-07
1.0055086e-08
6.0700755e-07
9.1163889e-09
6.0408885e-07
8.1624639e-09
6.0168588e-07
7.1963671e-09
5.9970797e-07
6.2210891e-09
5.980881e-07
5.2394324e-09
5.9677684e-07
4.2539439e-09
5.9573768e-07
3.2669164e-09
5.9494384e-07
2.2804338e-09
5.9437612e-07
1.2964423e-09
5.9402156e-07
3.1683746e-10
5.9387257e-07
-6.5643816e-10
5.9392643e-07
-1.6212909e-09
5.9418519e-07
-2.5753689e-09
5.9465584e-07
-3.5159563e-09
5.9535076e-07
-4.4398705e-09
5.9628868e-07
-5.3433746e-09
5.9749609e-07
-6.2221194e-09
5.9900958e-07
-7.0711259e-09
6.0087924e-07
-7.8848233e-09
6.0317358e-07
-8.6576811e-09
6.0598706e-07
-9.3884097e-09
6.0946484e-07
-1.0091401e-08
6.1392091e-07
-1.0781854e-08
6.2012563e-07
-1.1292577e-08
6.289743e-07
-1.088726e-08
6.3710989e-07
-8.4347144e-09
6.2579943e-07
-4.0822153e-09
5.5547361e-07
-6.0533216e-10
3.9053961e-07
1.4246332e-07
9.9862288e-10
1.1093589e-07
4.6338848e-09
3.3491296e-07
9.9196796e-09
5.2048051e-07
1.3537166e-08
6.2251463e-07
1.4439134e-08
6.4915685e-07
1.386474e-08
6.4198944e-07
1.2981877e-08
6.3012208e-07
1.2140367e-08
6.2159456e-07
1.1324174e-08
6.157855e-07
1.049227e-08
6.113975e-07
9.6344912e-09
6.0786534e-07
8.7528248e-09
6.0497052e-07
7.8511191e-09
6.0258759e-07
6.9332116e-09
6.0062588e-07
6.0027606e-09
5.9901855e-07
5.0631626e-09
5.9771644e-07
4.1175139e-09
5.9668333e-07
3.1686287e-09
5.9589272e-07
2.2190953e-09
5.9532565e-07
1.2713521e-09
5.9496931e-07
3.2777836e-10
5.9481615e-07
-6.0920851e-10
5.9486342e-07
-1.5370484e-09
5.9511303e-07
-2.4529315e-09
5.9557172e-07
-3.3536896e-09
5.9625152e-07
-4.2356881e-09
5.9717068e-07
-5.094727e-09
5.9835513e-07
-5.9259606e-09
5.9984082e-07
-6.7238499e-09
6.0167713e-07
-7.4821732e-09
6.0393191e-07
-8.1947427e-09
6.0669963e-07
-8.859677e-09
6.1012977e-07
-9.4885931e-09
6.1454983e-07
-1.0083142e-08
6.2072018e-07
-1.0451123e-08
6.2934228e-07
-9.8810014e-09
6.3653977e-07
-7.4143038e-09
6.2333274e-07
-3.4006902e-09
5.5146e-07
-4.4976934e-10
3.8758869e-07
1.4201354e-07
8.4659392e-10
1.1032207e-07
3.9821323e-09
3.3228439e-07
8.8031182e-09
5.1602731e-07
1.2354617e-08
6.1911725e-07
1.3444836e-08
6.4809299e-07
1.3062113e-08
6.4236376e-07
1.2303028e-08
6.3087512e-07
1.1547107e-08
6.2234915e-07
1.0803031e-08
6.1652958e-07
1.0035964e-08
6.1216463e-07
9.2366649e-09
6.0866466e-07
8.4079974e-09
6.0579919e-07