/*--------------------------------*- C++ -*----------------------------------*\
  =========                 |
  \\      /  F ield         | OpenFOAM: The Open Source CFD Toolbox
   \\    /   O peration     | Website:  https://openfoam.org
    \\  /    A nd           | Version:  10
     \\/     M anipulation  |
\*---------------------------------------------------------------------------*/
FoamFile
{
    format      ascii;
    class       surfaceScalarField;
    location    "0.08";
    object      phi_0;
}
// * * * * * * * * * * * * * * * * * * * * * * * * * * * * * * * * * * * * * //

dimensions      [1 0 -1 0 0 0 0];

internalField   nonuniform List<scalar> 
7860
(
3.9877035e-08
5.2883105e-07
1.2178326e-08
5.9640645e-07
7.4131737e-09
5.7347289e-07
5.4826787e-09
5.7063819e-07
4.097705e-09
5.7009264e-07
3.1838868e-09
5.6962146e-07
2.5422337e-09
5.6934928e-07
2.063041e-09
5.6918681e-07
1.693942e-09
5.690767e-07
1.4023734e-09
5.6899916e-07
1.166511e-09
5.6894345e-07
9.7156735e-10
5.6890252e-07
8.0717729e-10
5.6887196e-07
6.6583134e-10
5.6884891e-07
5.4193892e-10
5.6883146e-07
4.3122362e-10
5.6881828e-07
3.3031724e-10
5.6880846e-07
2.3647892e-10
5.688014e-07
1.4739267e-10
5.6879664e-07
6.1014379e-11
5.6879393e-07
-2.4551337e-11
5.6879312e-07
-1.1115861e-10
5.6879416e-07
-2.0072864e-10
5.6879713e-07
-2.9535407e-10
5.6880218e-07
-3.9743239e-10
5.6880964e-07
-5.0982948e-10
5.6881996e-07
-6.3610112e-10
5.6883383e-07
-7.8080659e-10
5.6885227e-07
-9.4997012e-10
5.6887673e-07
-1.1517888e-09
5.6890939e-07
-1.397807e-09
5.689536e-07
-1.7048897e-09
5.6901467e-07
-2.0980881e-09
5.691008e-07
-2.6173672e-09
5.6922689e-07
-3.3452023e-09
5.6943546e-07
-4.4375354e-09
5.6979998e-07
-5.986001e-09
5.7025614e-07
-9.4868684e-09
5.7220857e-07
-2.9549443e-08
5.8877032e-07
5.3915847e-07
5.9627582e-08
4.692038e-07
3.6613272e-08
6.1942063e-07
2.2577801e-08
5.8750831e-07
1.6200507e-08
5.7701549e-07
1.2236102e-08
5.7405705e-07
9.5519365e-09
5.7230563e-07
7.6242911e-09
5.7127693e-07
6.1849984e-09
5.706261e-07
5.0783166e-09
5.7018338e-07
4.2040636e-09
5.6987341e-07
3.4968184e-09
5.6965069e-07
2.9123367e-09
5.69487e-07
2.4195061e-09
5.6936479e-07
1.9957921e-09
5.6927263e-07
1.6244267e-09
5.6920282e-07
1.292584e-09
5.6915012e-07
9.901622e-10
5.6911089e-07
7.0894142e-10
5.6908262e-07
4.4197635e-10
5.6906361e-07
1.8313686e-10
5.6905277e-07
-7.3262007e-11
5.6904952e-07
-3.327834e-10
5.6905368e-07
-6.0118153e-10
5.6906552e-07
-8.8473471e-10
5.6908574e-07
-1.1906334e-09
5.6911554e-07
-1.527473e-09
5.691568e-07
-1.9059177e-09
5.6921228e-07
-2.3396422e-09
5.69286e-07
-2.8467219e-09
5.6938381e-07
-3.4517599e-09
5.6951443e-07
-4.1893085e-09
5.6969115e-07
-5.1098945e-09
5.6993526e-07
-6.2903525e-09
5.7028126e-07
-7.8496868e-09
5.7078623e-07
-9.9914264e-09
5.715772e-07
-1.3122293e-08
5.7293085e-07
-1.8057667e-08
5.7519151e-07
-2.8100737e-08
5.8225164e-07
-4.573669e-08
6.0640628e-07
4.9342178e-07
5.9940179e-08
4.0926445e-07
5.0389263e-08
6.2897151e-07
3.3277855e-08
6.0461955e-07
2.472362e-08
5.8556971e-07
1.9227349e-08
5.7955332e-07
1.5236027e-08
5.7629695e-07
1.2267485e-08
5.7424547e-07
1.0012076e-08
5.7288151e-07
8.2561992e-09
5.7193926e-07
6.8565617e-09
5.7127305e-07
5.7169401e-09
5.7079031e-07
4.770441e-09
5.704335e-07
3.9691866e-09
5.7016605e-07
3.278091e-09
5.6996372e-07
2.6708004e-09
5.6981011e-07
2.1270009e-09
5.6969392e-07
1.6305928e-09
5.696073e-07
1.1684075e-09
5.695448e-07
7.2927231e-10
5.6950274e-07
3.0329554e-10
5.6947875e-07
-1.1871312e-10
5.6947153e-07
-5.4575003e-10
5.6948072e-07
-9.8711319e-10
5.6950689e-07
-1.4529248e-09
5.6955155e-07
-1.9547366e-09
5.6961735e-07
-2.5062925e-09
5.6970835e-07
-3.1245431e-09
5.6983053e-07
-3.8310611e-09
5.6999252e-07
-4.654096e-09
5.7020685e-07
-5.6316435e-09
5.7049198e-07
-6.8161126e-09
5.7087562e-07
-8.2819716e-09
5.7140112e-07
-1.0138954e-08
5.7213824e-07
-1.2549384e-08
5.7319666e-07
-1.5746993e-08
5.7477481e-07
-2.0094552e-08
5.7727841e-07
-2.6568271e-08
5.8166523e-07
-3.8805809e-08
5.9448918e-07
-4.805983e-08
6.156603e-07
4.4536195e-07
5.4789955e-08
3.5447604e-07
5.7302227e-08
6.2645961e-07
4.0322355e-08
6.2159908e-07
3.0637048e-08
5.9525495e-07
2.4499946e-08
5.8569043e-07
1.9810261e-08
5.8098664e-07
1.6174627e-08
5.778811e-07
1.3334051e-08
5.7572209e-07
1.107611e-08
5.741972e-07
9.2488749e-09
5.7310029e-07
7.7442576e-09
5.7229493e-07
6.4835895e-09
5.7169417e-07
5.4088649e-09
5.7124077e-07
4.47663e-09
5.7089596e-07
3.6536636e-09
5.7063308e-07
2.9139948e-09
5.7043359e-07
2.2368027e-09
5.7028449e-07
1.6048969e-09
5.7017671e-07
1.0035827e-09
5.7010406e-07
4.1977904e-10
5.7006255e-07
-1.5870767e-10
5.7005002e-07
-7.4382635e-10
5.7006584e-07
-1.3479053e-09
5.7011097e-07
-1.9843103e-09
5.7018795e-07
-2.668199e-09
5.7030124e-07
-3.4174529e-09
5.7045761e-07
-4.2538894e-09
5.7066697e-07
-5.2048999e-09
5.7094353e-07
-6.3057374e-09
5.7130769e-07
-7.6027841e-09
5.7178903e-07
-9.1581306e-09
5.7243097e-07
-1.105597e-08
5.7329896e-07
-1.3413012e-08
5.7449528e-07
-1.6391199e-08
5.7617484e-07
-2.0189225e-08
5.7857284e-07
-2.5074388e-08
5.8216357e-07
-3.2299693e-08
5.8889053e-07
-4.4879197e-08
6.0706868e-07
-4.6399728e-08
6.1718083e-07
3.9896223e-07
4.7859853e-08
3.0661867e-07
5.9870789e-08
6.1444988e-07
4.5190986e-08
6.3627843e-07
3.4677037e-08
6.0576868e-07
2.8202519e-08
5.9216495e-07
2.3224518e-08
5.8596465e-07
1.9244875e-08
5.8186075e-07
1.6048138e-08
5.7891882e-07
1.3449373e-08
5.7679597e-07
1.1308894e-08
5.7524077e-07
9.5213169e-09
5.7408251e-07
8.0063683e-09
5.7320912e-07
6.7028209e-09
5.7254432e-07
5.5634801e-09
5.720353e-07
4.5514086e-09
5.7164515e-07
3.6371752e-09
5.7134782e-07
2.7968108e-09
5.7112485e-07
2.0102668e-09
5.7096325e-07
1.2602273e-09
5.708541e-07
5.3116052e-10
5.7079162e-07
-1.9147807e-10
5.7077266e-07
-9.2195908e-10
5.7079632e-07
-1.6749738e-09
5.7086398e-07
-2.4663615e-09
5.7097934e-07
-3.3139302e-09
5.7114881e-07
-4.238446e-09
5.7138213e-07
-5.2648793e-09
5.716934e-07
-6.4240212e-09
5.7210267e-07
-7.7546184e-09
5.7263829e-07
-9.3062557e-09
5.7334067e-07
-1.1143145e-08
5.7426786e-07
-1.3348564e-08
5.7550438e-07
-1.6031357e-08
5.7717808e-07
-1.9335869e-08
5.7947936e-07
-2.3433594e-08
5.8267056e-07
-2.8626527e-08
5.873565e-07
-3.6478928e-08
5.9674294e-07
-4.8151117e-08
6.1874087e-07
-4.3002912e-08
6.1203262e-07
3.5595932e-07
4.0215443e-08
2.6640682e-07
5.8730678e-08
5.9593719e-07
4.8045592e-08
6.4696314e-07
3.7322244e-08
6.164916e-07
3.0668938e-08
5.9881822e-07
2.5638296e-08
5.9099531e-07
2.1532499e-08
5.8596655e-07
1.8156136e-08
5.8229519e-07
1.5355962e-08
5.7959614e-07
1.3009583e-08
5.7758715e-07
1.1020747e-08
5.7607135e-07
9.3138807e-09
5.7491599e-07
7.8295911e-09
5.7402861e-07
6.5207528e-09
5.7334414e-07
5.3495427e-09
5.7281636e-07
4.2851699e-09
5.724122e-07
3.3020918e-09
5.7210793e-07
2.378611e-09
5.7188674e-07
1.4957531e-09
5.7173696e-07
6.3634213e-10
5.7165103e-07
-2.1579484e-10
5.7162479e-07
-1.0765498e-09
5.7165708e-07
-1.962241e-09
5.7174967e-07
-2.8903476e-09
5.7190745e-07
-3.8803217e-09
5.7213878e-07
-4.9545413e-09
5.7245635e-07
-6.1394692e-09
5.7287833e-07
-7.4670963e-09
5.734303e-07
-8.9767492e-09
5.7414794e-07
-1.0717407e-08
5.7508133e-07
-1.2750748e-08
5.763012e-07
-1.5154585e-08
5.7790822e-07
-1.8026956e-08
5.8005045e-07
-2.1492963e-08
5.8294536e-07
-2.5709694e-08
5.868873e-07
-3.1082607e-08
5.9272942e-07
-3.9229348e-08
6.0488968e-07
-4.87596e-08
6.2827112e-07
-3.8346214e-08
6.0161924e-07
3.176131e-07
3.2728797e-08
2.336829e-07
5.492737e-08
5.7374304e-07
4.8861434e-08
6.530291e-07
3.8715442e-08
6.2663687e-07
3.2098096e-08
6.0543544e-07
2.7193699e-08
5.9589972e-07
2.3125004e-08
5.9003525e-07
1.9704676e-08
5.8571551e-07
1.6815367e-08
5.8248545e-07
1.4354409e-08
5.8004811e-07
1.2237648e-08
5.7818811e-07
1.0397502e-08
5.7675614e-07
8.7794363e-09
5.7564668e-07
7.3389979e-09
5.7478458e-07
6.0396301e-09
5.7411573e-07
4.8509082e-09
5.7360092e-07
3.747093e-09
5.7321175e-07
2.7059487e-09
5.7292788e-07
1.7077624e-09
5.7273514e-07
7.3450718e-10
5.7262429e-07
-2.3089535e-10
5.725902e-07
-1.2052553e-09
5.7263144e-07
-2.2057859e-09
5.7275021e-07
-3.2507947e-09
5.7295246e-07
-4.3604321e-09
5.7324842e-07
-5.5575466e-09
5.7365346e-07
-6.8686912e-09
5.7418948e-07
-8.3253343e-09
5.7488694e-07
-9.9653207e-09
5.7578793e-07
-1.1834658e-08
5.7695066e-07
-1.398992e-08
5.7845646e-07
-1.6501152e-08
5.8041945e-07
-1.9453946e-08
5.8300324e-07
-2.295024e-08
5.8644166e-07
-2.7132323e-08
5.9106938e-07
-3.2509985e-08
5.9810708e-07
-4.0454322e-08
6.1283402e-07
-4.7167233e-08
6.3498404e-07
-3.3104192e-08
5.875562e-07
2.8450891e-07
2.6042504e-08
2.076467e-07
4.9748823e-08
5.5004358e-07
4.8025621e-08
6.5475316e-07
3.9050421e-08
6.3561106e-07
3.2660513e-08
6.1182505e-07
2.8007599e-08
6.0055265e-07
2.4103848e-08
5.9393901e-07
2.0749325e-08
5.8907004e-07
1.7862194e-08
5.8537258e-07
1.5362641e-08
5.8254766e-07
1.31811e-08
5.8036965e-07
1.1260013e-08
5.7867722e-07
9.5515271e-09
5.7735517e-07
8.0155551e-09
5.7632055e-07
6.6183114e-09
5.7551298e-07
5.3310315e-09
5.748882e-07
4.1288794e-09
5.744139e-07
2.9900183e-09
5.7406674e-07
1.894807e-09
5.7383036e-07
8.250905e-10
5.7369401e-07
-2.3644323e-10
5.7365173e-07
-1.306866e-09
5.7370186e-07
-2.4036088e-09
5.7384695e-07
-3.5450741e-09
5.7409393e-07
-4.751286e-09
5.7445463e-07
-6.0446155e-09
5.7494679e-07
-7.4506032e-09
5.7559547e-07
-8.9989185e-09
5.7643526e-07
-1.072448e-08
5.7751349e-07
-1.2668736e-08
5.7889492e-07
-1.4881329e-08
5.8066905e-07
-1.7422227e-08
5.8296035e-07
-2.0361773e-08
5.8594279e-07
-2.3776554e-08
5.8985644e-07
-2.7801729e-08
5.9509456e-07
-3.3028633e-08
6.0333398e-07
-4.0357006e-08
6.2016239e-07
-4.416192e-08
6.3878895e-07
-2.7894071e-08
5.7128835e-07
2.5661484e-07
2.0411832e-08
1.8724279e-07
4.4135304e-08
5.2633e-07
4.6066891e-08
6.5282381e-07
3.8602218e-08
6.4307448e-07
3.2568789e-08
6.1785793e-07
2.8222356e-08
6.0489907e-07
2.4563383e-08
5.9759801e-07
2.1354805e-08
5.9227862e-07
1.8540383e-08
5.8818701e-07
1.6063292e-08
5.8502475e-07
1.3869533e-08
5.8256341e-07
1.1912495e-08
5.8063426e-07
1.0152017e-08
5.7911565e-07
8.5534141e-09
5.7791916e-07
7.0866548e-09
5.7697974e-07
5.7255382e-09
5.7624932e-07
4.4469497e-09
5.7569249e-07
3.230188e-09
5.7528351e-07
2.056351e-09
5.7500419e-07
9.077715e-10
5.7484259e-07
-2.3251099e-10
5.7479201e-07
-1.3812539e-09
5.7485061e-07
-2.5555174e-09
5.7502121e-07
-3.773175e-09
5.7531158e-07
-5.0534485e-09
5.7573491e-07
-6.4174844e-09
5.7631083e-07
-7.8889844e-09
5.7706697e-07
-9.4949032e-09
5.7804118e-07
-1.1266231e-08
5.7928482e-07
-1.3238802e-08
5.8086749e-07
-1.5454219e-08
5.8288447e-07
-1.7961077e-08
5.8546721e-07
-2.0813543e-08
5.8879526e-07
-2.4067161e-08
5.9311006e-07
-2.7865561e-08
5.9889296e-07
-3.2837309e-08
6.0830573e-07
-3.927079e-08
6.2659587e-07
-4.0401894e-08
6.3992006e-07
-2.3068889e-08
5.5395535e-07
2.3354595e-07
1.5843178e-08
1.7140945e-07
3.8628203e-08
5.0355858e-07
4.3422964e-08
6.4803332e-07
3.7611196e-08
6.4888491e-07
3.2025034e-08
6.2344319e-07
2.799241e-08
6.0893162e-07
2.4611532e-08
6.0097892e-07
2.1596422e-08
5.9529374e-07
1.8902645e-08
5.9088078e-07
1.6493157e-08
5.8743424e-07
1.4328389e-08
5.8472818e-07
1.2372268e-08
5.8259038e-07
1.0592462e-08
5.8089545e-07
8.9600975e-09
5.7955152e-07
7.4494058e-09
5.7849043e-07
6.0372988e-09
5.7766143e-07
4.7029337e-09
5.7702686e-07
3.427278e-09
5.7655916e-07
2.1926793e-09
5.7623879e-07
9.8244897e-10
5.7605282e-07
-2.1954398e-10
5.7599401e-07
-1.4292683e-09
5.7606033e-07
-2.6629317e-09
5.7625488e-07
-3.9373823e-09
5.7658604e-07
-5.2705189e-09
5.7706804e-07
-6.6817187e-09
5.7772203e-07
-8.1922787e-09
5.7857753e-07
-9.8258697e-09
5.7967477e-07
-1.160901e-08
5.8106796e-07
-1.3571504e-08
5.8282999e-07
-1.5746816e-08
5.8505979e-07
-1.8172508e-08
5.878929e-07
-2.0887971e-08
5.9151072e-07
-2.3935096e-08
5.9615719e-07
-2.7477005e-08
6.0243487e-07
-3.2118859e-08
6.1294759e-07
-3.7490399e-08
6.3196741e-07
-3.6329141e-08
6.387588e-07
-1.8797087e-08
5.3642329e-07
2.1474887e-07
1.2237106e-08
1.5918456e-07
3.352541e-08
4.8228834e-07
4.0422092e-08
6.4114369e-07
3.6254101e-08
6.5305171e-07
3.1181325e-08
6.2851463e-07
2.745075e-08
6.1266199e-07
2.4350613e-08
6.040791e-07
2.1550338e-08
5.9809403e-07
1.9005164e-08
5.9342596e-07
1.6693321e-08
5.8974609e-07
1.4587473e-08
5.8683403e-07
1.2660783e-08
5.8451708e-07
1.0888166e-08
5.8266807e-07
9.2463951e-09
5.8119329e-07
7.7140527e-09
5.8002277e-07
6.2713894e-09
5.7910409e-07
4.9001363e-09
5.7839811e-07
3.5832683e-09
5.7787603e-07
2.3047376e-09
5.7751733e-07
1.0491949e-09
5.7730836e-07
-1.9829856e-10
5.772415e-07
-1.4525589e-09
5.7731459e-07
-2.728576e-09
5.775309e-07
-4.0418063e-09
5.7789927e-07
-5.4084629e-09
5.784347e-07
-6.845804e-09
5.7915937e-07
-8.3724085e-09
5.8010413e-07
-1.0008426e-08
5.8131079e-07
-1.1775806e-08
5.8283534e-07
-1.3698481e-08
5.8475266e-07
-1.5802415e-08
5.8716372e-07
-1.8115368e-08
5.9020585e-07
-2.0664281e-08
5.9405963e-07
-2.3484263e-08
5.9897717e-07
-2.6760137e-08
6.0571074e-07
-3.1014532e-08
6.1720198e-07
-3.5257252e-08
6.3621013e-07
-3.2243742e-08
6.3574529e-07
-1.5139153e-08
5.1931871e-07
1.9960971e-07
9.4547811e-09
1.4974511e-07
2.8978091e-08
4.6278847e-07
3.7309653e-08
6.3282283e-07
3.4667562e-08
6.556931e-07
3.0146742e-08
6.3303362e-07
2.66999e-08
6.1610845e-07
2.3865818e-08
6.0691323e-07
2.1284233e-08
6.0067564e-07
1.8900912e-08
5.9580928e-07
1.6704569e-08
5.9194243e-07
1.4677753e-08
5.8886084e-07
1.2801317e-08
5.8639351e-07
1.1056459e-08
5.8441293e-07
9.4250743e-09
5.8282468e-07
7.8898648e-09
5.8155798e-07
6.4343887e-09
5.8055957e-07
5.0430424e-09
5.7978946e-07
3.7009742e-09
5.792181e-07
2.3939522e-09
5.7882435e-07
1.1082028e-09
5.7859411e-07
-1.6977032e-10
5.7851948e-07
-1.4533761e-09
5.785982e-07
-2.7561349e-09
5.7883366e-07
-4.0918707e-09
5.79235e-07
-5.4748943e-09
5.7981773e-07
-6.9201714e-09
5.8060465e-07
-8.4434636e-09
5.8162743e-07
-1.0061424e-08
5.8292875e-07
-1.1791653e-08
5.8456557e-07
-1.3652709e-08
5.8661372e-07
-1.5663966e-08
5.8917498e-07
-1.7844832e-08
5.9238672e-07
-2.02124e-08
5.964272e-07
-2.2800711e-08
6.0156548e-07
-2.5811905e-08
6.0872194e-07
-2.9641033e-08
6.2103111e-07
-3.2774314e-08
6.3934341e-07
-2.8349305e-08
6.3132028e-07
-1.2089366e-08
5.0305877e-07
1.8752035e-07
7.3473755e-09
1.4241733e-07
2.5032972e-08
4.4513283e-07
3.4255203e-08
6.2361598e-07
3.2959801e-08
6.5698873e-07
2.9002155e-08
6.3698891e-07
2.5817933e-08
6.19292e-07
2.3225411e-08
6.0950577e-07
2.0854807e-08
6.0304628e-07
1.8636313e-08
5.9802778e-07
1.6564277e-08
5.9401447e-07
1.4628838e-08
5.9079628e-07
1.2817009e-08
5.8820534e-07
1.1115205e-08
5.8611474e-07
9.509743e-09
5.8443014e-07
7.9870371e-09
5.8308069e-07
6.5337466e-09
5.8201286e-07
5.136867e-09
5.8118634e-07
3.7837481e-09
5.8057122e-07
2.4620632e-09
5.8014603e-07
1.1597413e-09
5.7989644e-07
-1.3512421e-10
5.7981434e-07
-1.4343806e-09
5.7989746e-07
-2.7499301e-09
5.8014921e-07
-4.093835e-09
5.8057891e-07
-5.4784106e-09
5.812023e-07
-6.9162968e-09
5.8204254e-07
-8.4204965e-09
5.8313163e-07
-1.0004364e-08
5.8451262e-07
-1.1681538e-08
5.8624275e-07
-1.3465857e-08
5.8839804e-07
-1.537109e-08
5.9108021e-07
-1.7409804e-08
5.9442544e-07
-1.959211e-08
5.9860951e-07
-2.1955496e-08
6.0392887e-07
-2.4710903e-08
6.1147734e-07
-2.8098011e-08
6.2441822e-07
-3.0201848e-08
6.4144725e-07
-2.4766596e-08
6.2588503e-07
-9.6001436e-09
4.8789232e-07
1.7792021e-07
5.7744649e-09
1.366687e-07
2.1667468e-08
4.2927782e-07
3.1359173e-08
6.139455e-07
3.1209524e-08
6.5714011e-07
2.7805534e-08
6.4039002e-07
2.4863078e-08
6.2223343e-07
2.2483305e-08
6.1188552e-07
2.0308606e-08
6.0522103e-07
1.8250781e-08
6.0008562e-07
1.6305299e-08
5.9595995e-07
1.4467667e-08
5.9263392e-07
1.2729622e-08
5.8994339e-07
1.1081728e-08
5.8776263e-07
9.5139784e-09
5.8599789e-07
8.0160042e-09
5.8457867e-07
6.5772613e-09
5.834516e-07
5.1871748e-09
5.8257643e-07
3.835224e-09
5.8192317e-07
2.5109814e-09
5.8147028e-07
1.2041151e-09
5.812033e-07
-9.5632122e-11
5.8111409e-07
-1.3984745e-09
5.812003e-07
-2.7146379e-09
5.8146537e-07
-4.0543838e-09
5.8191866e-07
-5.4280353e-09
5.8257596e-07
-6.8459753e-09
5.8346048e-07
-8.3186106e-09
5.8460426e-07
-9.8562911e-09
5.860503e-07
-1.1469178e-08
5.8785563e-07
-1.31671e-08
5.9009596e-07
-1.4959238e-08
5.9287235e-07
-1.6852858e-08
5.9631906e-07
-1.8853978e-08
6.0061063e-07
-2.100646e-08
6.0608135e-07
-2.3519229e-08
6.1399011e-07
-2.6464815e-08
6.2736381e-07
-2.7652756e-08
6.4263519e-07
-2.1549412e-08
6.1978169e-07
-7.6022046e-09
4.7394511e-07
1.70318e-07
4.6135833e-09
1.3209013e-07
1.8822317e-08
4.1511714e-07
2.8668358e-08
6.0412797e-07
2.9467288e-08
6.563451e-07
2.6594298e-08
6.4325965e-07
2.3875725e-08
6.249505e-07
2.1680254e-08
6.1408089e-07
1.9682745e-08
6.072186e-07
1.7776931e-08
6.0199145e-07
1.5955727e-08
5.9778115e-07
1.4217992e-08
5.9437165e-07
1.2558897e-08
5.9160248e-07
1.0972162e-08
5.8934937e-07
9.4507304e-09
5.8751933e-07
7.9869343e-09
5.8604246e-07
6.5726736e-09
5.8486586e-07
5.1995741e-09
5.8394953e-07
3.859106e-09
5.8326364e-07
2.5426666e-09
5.8278672e-07
1.2416319e-09
5.8250434e-07
-5.2618293e-11
5.8240834e-07
-1.3486594e-09
5.8249634e-07
-2.6550559e-09
5.8277177e-07
-3.9802966e-09
5.832439e-07
-5.3327872e-09
5.8392845e-07
-6.7207911e-09
5.8484848e-07
-8.1523456e-09
5.8603582e-07
-9.6351442e-09
5.875331e-07
-1.1176382e-08
5.8939687e-07
-1.2782602e-08
5.9170219e-07
-1.4459367e-08
5.9454912e-07
-1.6210099e-08
5.9806979e-07
-1.8039256e-08
6.0243979e-07
-1.9998199e-08
6.0804029e-07
-2.2282539e-08
6.1627445e-07
-2.4799234e-08
6.298805e-07
-2.5197976e-08
6.4303394e-07
-1.8705783e-08
6.1328949e-07
-6.0191318e-09
4.6125846e-07
1.6429887e-07
3.7625616e-09
1.2837545e-07
1.6424376e-08
4.0251626e-07
2.6195257e-08
5.9439459e-07
2.7761949e-08
6.5478536e-07
2.5389669e-08
6.4562823e-07
2.2881268e-08
6.2745683e-07
2.0845148e-08
6.1611677e-07
1.9005514e-08
6.0905831e-07
1.7240848e-08
6.0375614e-07
1.5538902e-08
5.994831e-07
1.3900188e-08
5.9601037e-07
1.2322236e-08
5.9318044e-07
1.0801078e-08
5.9087053e-07
9.3319475e-09
5.8898846e-07
7.9093845e-09
5.8746503e-07
6.5273734e-09
5.8624788e-07
5.1794855e-09
5.8529742e-07
3.859005e-09
5.8458412e-07
2.559034e-09
5.8408669e-07
1.272577e-09
5.837908e-07
-7.3980417e-12
5.8368832e-07
-1.2879234e-09
5.8377687e-07
-2.5759194e-09
5.8405977e-07
-3.878196e-09
5.8454618e-07
-5.2013656e-09
5.8525162e-07
-6.5517506e-09
5.8619887e-07
-7.9352766e-09
5.8741935e-07
-9.3573433e-09
5.8895517e-07
-1.0822677e-08
5.9086221e-07
-1.2335199e-08
5.9321471e-07
-1.389771e-08
5.9611163e-07
-1.551104e-08
5.9968312e-07
-1.7180047e-08
6.041088e-07
-1.8963119e-08
6.0982337e-07
-2.1032317e-08
6.1834365e-07
-2.3140558e-08
6.3198875e-07
-2.2876481e-08
6.4276986e-07
-1.6216085e-08
6.066291e-07
-4.7757968e-09
4.4981817e-07
1.5952308e-07
3.1386423e-09
1.2530111e-07
1.4399136e-08
3.9133328e-07
2.3931803e-08
5.8491055e-07
2.6107252e-08
6.5262092e-07
2.4201727e-08
6.4752988e-07
2.1894008e-08
6.2976181e-07
1.9997253e-08
6.180131e-07
1.8297581e-08
6.1075806e-07
1.6662704e-08
6.0539105e-07
1.5073667e-08
6.0107214e-07
1.3531287e-08
5.9755275e-07
1.2034611e-08
5.9467711e-07
1.0581317e-08
5.9232382e-07
9.1683741e-09
5.904014e-07
7.7920965e-09
5.8884131e-07
6.4482153e-09
5.8759176e-07
5.1319908e-09
5.8661364e-07
3.8383293e-09
5.8587779e-07
2.5618912e-09
5.8536313e-07
1.2971899e-09
5.850555e-07
3.8679069e-11
5.8494683e-07
-1.2191624e-09
5.8503471e-07
-2.4817644e-09
5.8532237e-07
-3.7543666e-09
5.8581878e-07
-5.0419316e-09
5.8653918e-07
-6.349038e-09
5.8750598e-07
-7.6797632e-09
5.8875007e-07
-9.0375578e-09
5.9031296e-07
-1.0425125e-08
5.9224978e-07
-1.1844323e-08
5.9463391e-07
-1.3295893e-08
5.975632e-07
-1.4779085e-08
6.0116632e-07
-1.6300481e-08
6.0563019e-07
-1.7923829e-08
6.1144672e-07
-1.9789357e-08
6.2020918e-07
-2.1513977e-08
6.3371337e-07
-2.0705036e-08
6.4196092e-07
-1.4045681e-08
5.9996975e-07
-3.8030593e-09
4.3957555e-07
1.5572002e-07
2.6766596e-09
1.2270773e-07
1.2677312e-08
3.8143135e-07
2.1858781e-08
5.7579151e-07
2.4506924e-08
6.4998907e-07
2.3033415e-08
6.4899961e-07
2.0920738e-08
6.3187097e-07
1.9148726e-08
6.1978442e-07
1.7573613e-08
6.1233324e-07
1.6057767e-08
6.0690694e-07
1.4574954e-08
6.0255496e-07
1.3125271e-08
5.9900243e-07
1.1708672e-08
5.9609371e-07
1.0323986e-08
5.9370851e-07
8.9694906e-09
5.917559e-07
7.6429097e-09
5.9016789e-07
6.3414269e-09
5.8889324e-07
5.0617538e-09
5.8789332e-07
3.8002273e-09
5.8713931e-07
2.5529116e-09
5.8661045e-07
1.3157012e-09
5.8629271e-07
8.4424614e-11
5.8617811e-07
-1.1450758e-09
5.8626421e-07
-2.3768226e-09
5.8655412e-07
-3.614626e-09
5.8705658e-07
-4.8619634e-09
5.8778652e-07
-6.1218705e-09
5.8876588e-07
-7.3968247e-09
5.9002503e-07
-8.6886347e-09
5.9160477e-07
-9.9983533e-09
5.935595e-07
-1.1326222e-08
5.9596178e-07
-1.2671459e-08
5.9890844e-07
-1.4032506e-08
6.0252736e-07
-1.541838e-08
6.0701607e-07
-1.6895711e-08
6.1292405e-07
-1.8566907e-08
6.2188038e-07
-1.9934448e-08
6.3508091e-07
-1.8685798e-08
6.4071227e-07
-1.2153578e-08
5.9343753e-07
-3.0404935e-09
4.3046247e-07
1.5267953e-07
2.3267859e-09
1.2048449e-07
1.1198222e-08
3.726853e-07
1.995233e-08
5.6711692e-07
2.2958639e-08
6.4700582e-07
2.188346e-08
6.5007147e-07
1.9963492e-08
6.337866e-07
1.8306782e-08
6.214401e-07
1.6843849e-08
6.1379621e-07
1.5437512e-08
6.0831334e-07
1.4054509e-08
6.0393798e-07
1.2693529e-08
6.0036341e-07
1.1355008e-08
5.9743224e-07
1.0038594e-08
5.9502492e-07
8.743559e-09
5.9305093e-07
7.4687587e-09
5.9144269e-07
6.2125846e-09
5.9014942e-07
4.9729909e-09
5.8913291e-07
3.7475664e-09
5.8836474e-07
2.5336262e-09
5.8782439e-07
1.328309e-09
5.8749803e-07
1.2868572e-10
5.8737773e-07
-1.0681488e-09
5.8746105e-07
-2.2649527e-09
5.8775092e-07
-3.4642441e-09
5.8825588e-07
-4.6681779e-09
5.8899046e-07
-5.8784375e-09
5.8997615e-07
-7.0961232e-09
5.9124271e-07
-8.3216612e-09
5.9283031e-07
-9.5547517e-09
5.9479259e-07
-1.0794351e-08
5.9720138e-07
-1.2038548e-08
6.0015263e-07
-1.3285503e-08
6.0377432e-07
-1.4546824e-08
6.0827739e-07
-1.5889096e-08
6.1426632e-07
-1.7373212e-08
6.233645e-07
-1.8410111e-08
6.3611781e-07
-1.6812553e-08
6.3911471e-07
-1.0498542e-08
5.8712352e-07
-2.4377125e-09
4.2240164e-07
1.5024182e-07
2.0520127e-09
1.1855661e-07
9.9109968e-09
3.6498449e-07
1.8188286e-08
5.5894025e-07
2.1457228e-08
6.4376851e-07
2.0748663e-08
6.5077763e-07
1.9021672e-08
6.3550835e-07
1.7475438e-08
6.2298489e-07
1.6115431e-08
6.1515621e-07
1.4810605e-08
6.0961824e-07
1.3521606e-08
6.0522699e-07
1.224533e-08
6.0163969e-07
1.0982443e-08
5.9869513e-07
9.7332131e-09
5.9627415e-07
8.4977037e-09
5.9428645e-07
7.2756978e-09
5.926647e-07
6.0666041e-09
5.9135851e-07
4.8694447e-09
5.9033007e-07
3.6829021e-09
5.8955128e-07
2.5053964e-09
5.890019e-07
1.3351765e-09
5.8866825e-07
1.7042644e-10
5.8854249e-07
-9.906331e-10
5.8862211e-07
-2.1496306e-09
5.8890992e-07
-3.3079336e-09
5.8941418e-07
-4.4665316e-09
5.9014906e-07
-5.6259287e-09
5.9113554e-07
-6.7860409e-09
5.9240283e-07
-7.9461243e-09
5.939904e-07
-9.1047519e-09
5.9595122e-07
-1.0259826e-08
5.9835646e-07
-1.1408566e-08
6.0130138e-07
-1.254916e-08
6.0491492e-07
-1.3695501e-08
6.0942373e-07
-1.4911063e-08
6.1548189e-07
-1.6213655e-08
6.2466709e-07
-1.6945334e-08
6.3684949e-07
-1.507564e-08
6.3724502e-07
-9.043124e-09
5.8109101e-07
-1.9546163e-09
4.1531314e-07
1.482872e-07
1.8256449e-09
1.1687563e-07
8.7744464e-09
3.5823327e-07
1.6544836e-08
5.512963e-07
1.9997126e-08
6.4035852e-07
1.9625704e-08
6.5114816e-07
1.8093716e-08
6.3703419e-07
1.6656907e-08
6.2441973e-07
1.5393466e-08
6.1641956e-07
1.4183709e-08
6.1082809e-07
1.2983632e-08
6.0642709e-07
1.1788236e-08
6.0283509e-07
1.0598301e-08
5.9988506e-07
9.4146355e-09
5.9745782e-07
8.2379799e-09
5.954631e-07
7.0689105e-09
5.9383377e-07
5.907712e-09
5.9251971e-07
4.7543338e-09
5.9148345e-07
3.6084148e-09
5.906972e-07
2.4693483e-09
5.9014096e-07
1.3363665e-09
5.8980124e-07
2.0864112e-10
5.8967021e-07
-9.1460958e-10
5.8974536e-07
-2.0340128e-09
5.9002933e-07
-3.1499229e-09
5.9053009e-07
-4.2623103e-09
5.9126145e-07
-5.3706547e-09
5.9224389e-07
-6.4738512e-09
5.9350603e-07
-7.5701541e-09
5.950867e-07
-8.6571715e-09
5.9703824e-07
-9.731901e-09
5.9943119e-07
-1.0790837e-08
6.0236031e-07
-1.1832322e-08
6.059564e-07
-1.2871883e-08
6.104633e-07
-1.3966959e-08
6.1657696e-07
-1.5092554e-08
6.2579269e-07
-1.5543238e-08
6.3730018e-07
-1.3465524e-08
6.3516731e-07
-7.7559052e-09
5.7538139e-07
-1.5608652e-09
4.091181e-07
1.4672633e-07
1.6290395e-09
1.1541155e-07
7.7562911e-09
3.5234983e-07
1.5004065e-08
5.4420609e-07
1.8574146e-08
6.3684387e-07
1.8512504e-08
6.5121114e-07
1.7178368e-08
6.3836128e-07
1.5852715e-08
6.2574281e-07
1.4681914e-08
6.1759015e-07
1.3562166e-08
6.1194794e-07
1.2446599e-08
6.0754269e-07
1.1328465e-08
6.0395322e-07
1.0208657e-08
6.0100487e-07
9.0885295e-09
5.9857795e-07
7.9694612e-09
5.9658217e-07
6.852745e-09
5.9495049e-07
5.739443e-09
5.9363302e-07
4.6303217e-09
5.9259258e-07
3.5258614e-09
5.9180167e-07
2.4263111e-09
5.9124052e-07
1.3317683e-09
5.9089578e-07
2.4227418e-10
5.9075971e-07
-8.420782e-10
5.9082972e-07
-1.9210372e-09
5.9110829e-07
-2.994074e-09
5.9160313e-07
-4.0602734e-09
5.9232765e-07
-5.1182281e-09
5.9330185e-07
-6.1659506e-09
5.9455375e-07
-7.2008239e-09
5.9612158e-07
-8.219605e-09
5.9805702e-07
-9.2184705e-09
6.0043005e-07
-1.0193256e-08
6.033351e-07
-1.1142426e-08
6.0690557e-07
-1.2082277e-08
6.1140315e-07
-1.3061645e-08
6.1755634e-07
-1.4014564e-08
6.2674561e-07
-1.4207592e-08
6.3749321e-07
-1.1975204e-08
6.3293492e-07
-6.6127188e-09
5.700189e-07
-1.2345618e-09
4.0373994e-07
1.4549177e-07
1.4497205e-09
1.1414653e-07
6.8323006e-09
3.4726383e-07
1.3552875e-08
5.3767993e-07
1.7186793e-08
6.3328124e-07
1.7409269e-08
6.5099307e-07
1.6275693e-08
6.3948698e-07
1.5064643e-08
6.269506e-07
1.3984391e-08
6.1867004e-07
1.295067e-08
6.1298176e-07
1.1915705e-08
6.0857769e-07
1.0871351e-08
6.0499758e-07
9.8187055e-09
6.0205752e-07
8.759737e-09
5.9963692e-07
7.696478e-09
5.9764543e-07
6.6309057e-09
5.9601606e-07
5.5647945e-09
5.9469913e-07
4.4996429e-09
5.9365773e-07
3.4366762e-09
5.9286463e-07
2.3768958e-09
5.923003e-07
1.3211566e-09
5.9195152e-07
2.7025974e-10
5.9181061e-07
-7.7494115e-10
5.9187492e-07
-1.8134315e-09
5.9214678e-07
-2.8439198e-09
5.9263362e-07
-3.8647277e-09
5.9334846e-07
-4.8736835e-09
5.943108e-07
-5.8680351e-09
5.955481e-07
-6.8443992e-09
5.9709794e-07
-7.7987617e-09
5.9901138e-07
-8.7265211e-09
6.0135781e-07
-9.6228601e-09
6.0423144e-07
-1.0486226e-08
6.0776894e-07
-1.1332711e-08
6.1224963e-07
-1.2200487e-08
6.1842411e-07
-1.2985706e-08
6.2753083e-07
-1.2944079e-08
6.3745158e-07
-1.0601591e-08
6.3059244e-07
-5.5970685e-09
5.6501438e-07
-9.6114182e-10
3.9910402e-07
1.4453062e-07
1.2799457e-09
1.1306984e-07
5.9855832e-09
3.4291301e-07
1.2183597e-08
5.3171897e-07
1.5837287e-08
6.2971761e-07
1.6319401e-08
6.5051941e-07
1.5388014e-08
6.404098e-07
1.4295682e-08
6.2803893e-07
1.330505e-08
6.1966011e-07
1.2354062e-08
6.1393284e-07
1.1396053e-08
6.0953575e-07
1.0421992e-08
6.0597165e-07
9.4333473e-09
6.0304616e-07
8.4328061e-09
6.0063746e-07
7.4231058e-09
5.9865514e-07
6.4069036e-09
5.9703227e-07
5.386644e-09
5.9571939e-07
4.3644906e-09
5.9467988e-07
3.3423318e-09
5.938868e-07
2.3218307e-09
5.933208e-07
1.3045024e-09
5.9296885e-07
2.9180718e-10
5.928233e-07
-7.1474523e-10
5.9288147e-07
-1.7134856e-09
5.9314552e-07
-2.702471e-09
5.9362261e-07
-3.6793726e-09
5.9432536e-07
-4.6413672e-09
5.952728e-07
-5.5850444e-09
5.9649178e-07
-6.5063464e-09
5.9801925e-07
-7.4005531e-09
5.9990559e-07
-8.2623114e-09
6.0221957e-07
-9.0861277e-09
6.0505526e-07
-9.8702222e-09
6.0855304e-07
-1.0629496e-08
6.1300891e-07
-1.1389965e-08
6.1918458e-07
-1.2013921e-08
6.2815478e-07
-1.1760866e-08
6.3719853e-07
-9.3458907e-09
6.2817747e-07
-4.6997496e-09
5.6036825e-07
-7.3258418e-10
3.9513685e-07
1.4379803e-07
1.1156812e-09
1.1217385e-07
5.2060559e-09
3.3923931e-07
1.0894331e-08
5.2631574e-07
1.4532315e-08
6.2619141e-07
1.5250285e-08
6.4981505e-07
1.4520802e-08
6.4113027e-07
1.3550954e-08
6.2900399e-07
1.2649451e-08
6.2056082e-07
1.1778126e-08
6.1480424e-07
1.0893382e-08
6.1042055e-07
9.9859361e-09
6.0687911e-07
9.0578322e-09
6.0397427e-07
8.1125997e-09
6.015827e-07
7.1537444e-09
5.9961399e-07
6.1846107e-09
5.980014e-07
5.2082815e-09
5.9669572e-07
4.2275294e-09
5.9566064e-07
3.2448344e-09
5.9486949e-07
2.2624406e-09
5.943032e-07
1.2824367e-09
5.9394886e-07
3.0685044e-10
5.9379889e-07
-6.6224692e-10
5.9385057e-07
-1.6226306e-09
5.9410591e-07
-2.5718088e-09
5.9457179e-07
-3.5069081e-09
5.9526046e-07
-4.4245602e-09
5.9619046e-07
-5.3208007e-09
5.9738803e-07
-6.1909908e-09
5.9888944e-07
-7.0297753e-09
6.0074438e-07
-7.8310891e-09
6.0302089e-07
-8.5887453e-09
6.0581292e-07
-9.3005051e-09
6.092648e-07
-9.9791552e-09
6.1368756e-07
-1.0637609e-08
6.1984304e-07
-1.1108868e-08
6.2862605e-07
-1.0668233e-08
6.3675789e-07
-8.2128253e-09
6.2572206e-07
-3.9173604e-09
5.5607278e-07
-5.4491399e-10
3.917644e-07
1.4325312e-07
9.558598e-10
1.1145094e-07
4.4899586e-09
3.3618462e-07
9.6888649e-09
5.2145423e-07
1.3283246e-08
6.2273334e-07
1.4213615e-08
6.4890465e-07
1.368314e-08
6.4165163e-07
1.2838198e-08
6.2984339e-07
1.2024944e-08
6.2137301e-07
1.1229888e-08
6.1559935e-07
1.0414314e-08
6.1123618e-07
9.5693868e-09
6.0772405e-07
8.6979424e-09
6.0484572e-07
7.8044635e-09
6.0247618e-07
6.8932748e-09
6.0052518e-07
5.9684095e-09
5.9892627e-07
5.0335555e-09
5.9763058e-07
4.0920416e-09
5.9660216e-07
3.1468739e-09
5.9581466e-07
2.2008048e-09
5.9524927e-07
1.2564193e-09
5.9489325e-07
3.1623233e-10
5.9473908e-07
-6.172076e-10
5.9478402e-07
-1.5412088e-09
5.9502991e-07
-2.4528238e-09
5.9548341e-07
-3.3487333e-09
5.9615638e-07
-4.2251289e-09
5.9706685e-07
-5.0775999e-09
5.982405e-07
-5.9010337e-09
5.9971288e-07
-6.6895392e-09
6.0153289e-07
-7.4364212e-09
6.0376778e-07
-8.1348338e-09
6.0651133e-07
-8.7818899e-09
6.0991186e-07
-9.3874732e-09
6.1429315e-07
-9.9509198e-09
6.2040649e-07
-1.0280656e-08
6.2895578e-07
-9.6771185e-09
6.3615436e-07
-7.2088464e-09
6.2325379e-07
-3.250185e-09
5.5211412e-07
-3.9640722e-10
3.8891063e-07
1.4285671e-07
8.0188705e-10
1.1089118e-07
3.8392074e-09
3.3368673e-07
8.5759893e-09
5.1710989e-07
1.2105447e-08
6.1936709e-07
1.3224683e-08
6.4781291e-07
1.2887048e-08
6.4198041e-07
1.216705e-08
6.3055712e-07
1.1439865e-08
6.2209882e-07
1.0716739e-08
6.1632248e-07
9.9654537e-09
6.1198754e-07
9.1783056e-09