/*--------------------------------*- C++ -*----------------------------------*\
  =========                 |
  \\      /  F ield         | OpenFOAM: The Open Source CFD Toolbox
   \\    /   O peration     | Website:  https://openfoam.org
    \\  /    A nd           | Version:  10
     \\/     M anipulation  |
\*---------------------------------------------------------------------------*/
FoamFile
{
    format      ascii;
    class       volScalarField;
    location    "0.08";
    object      T;
}
// * * * * * * * * * * * * * * * * * * * * * * * * * * * * * * * * * * * * * //

dimensions      [0 0 0 1 0 0 0];

internalField   nonuniform List<scalar> 
4000
(
303.10103
299.34319
299.99041
300.00082
299.99993
300
300
300
300
300
300
300
300
300
300
300
300
300
300
300
300
300
300
300
300
300
300
300
300
300
300
300
300
300
300
300
300
300
300
300.00001
309.66143
298.4937
299.7795
300.00183
300.0008
299.99999
300
300
300
300
300
300
300
300
300
300
300
300
300
300
300
300
300
300
300
300
300
300
300
300
300
300
300
300
300
300
300
300
299.99999
300.00002
315.99908
298.68477
299.3932
299.97577
300.00404
300.00024
299.99999
300
300
300
300
300
300
300
300
300
300
300
300
300
300
300
300
300
300
300
300
300
300
300
300
300
300
300
300
300
300
299.99999
299.99999
300.00002
321.73234
299.84381
298.98671
299.89534
300.00712
300.00137
300
299.99999
300
300
300
300
300
300
300
300
300
300
300
300
300
300
300
300
300
300
300
300
300
300
300
300
300
300
300
299.99999
299.99999
299.99999
299.99999
300.00003
326.65486
301.69364
298.71249
299.75433
300.00322
300.00375
300.00017
299.99998
299.99999
300
300
300
300
300
300
300
300
300
300
300
300
300
300
300
300
300
300
300
300
300
300
300
300
300
299.99999
299.99999
299.99999
299.99998
299.99999
300.00004
330.66124
303.93354
298.66529
299.57074
299.98448
300.00688
300.0007
299.99996
299.99999
300
300
300
300
300
300
300
300
300
300
300
300
300
300
300
300
300
300
300
300
300
300
300
300
299.99999
299.99999
299.99999
299.99999
299.99998
299.99999
300.00004
333.74204
306.3055
298.8707
299.37769
299.94589
300.00926
300.00177
300
299.99998
299.99999
300
300
300
300
300
300
300
300
300
300
300
300
300
300
300
300
300
300
300
300
300
299.99999
299.99999
299.99999
299.99999
299.99999
299.99998
299.99998
300
300.00004
335.98027
308.62482
299.30299
299.2094
299.88744
300.00881
300.00337
300.00013
299.99996
299.99999
299.99999
300
300
300
300
300
300
300
300
300
300
300
300
300
300
300
300
300
300
300
299.99999
299.99999
299.99999
299.99999
299.99999
299.99998
299.99998
299.99998
300
300.00004
337.52244
310.78052
299.91183
299.09143
299.81357
300.00359
300.00527
300.00044
299.99995
299.99998
299.99999
299.99999
299.99999
300
300
300
300
300
300
300
300
300
300
300
300
300
300
300
299.99999
299.99999
299.99999
299.99999
299.99999
299.99999
299.99999
299.99998
299.99998
299.99998
300.00001
300.00004
338.53949
312.71962
300.64216
299.03777
299.73133
299.99236
300.00704
300.00095
299.99996
299.99998
299.99999
299.99999
299.99999
299.99999
299.99999
300
300
300
300
300
300
300
300
300
300
300
299.99999
299.99999
299.99999
299.99999
299.99999
299.99999
299.99999
299.99999
299.99998
299.99998
299.99998
299.99998
300.00001
300.00004
339.19333
314.42883
301.44481
299.05234
299.64838
299.9748
300.00815
300.00167
300
299.99996
299.99999
299.99999
299.99999
299.99999
299.99999
299.99999
299.99999
299.99999
299.99999
299.99999
299.99999
299.99999
299.99999
299.99999
299.99999
299.99999
299.99999
299.99999
299.99999
299.99999
299.99999
299.99999
299.99999
299.99999
299.99998
299.99998
299.99997
299.99998
300.00002
300.00004
339.61616
315.91881
302.28081
299.13195
299.57163
299.95145
300.0081
300.00253
300.0001
299.99995
299.99999
299.99999
299.99999
299.99999
299.99999
299.99999
299.99999
299.99999
299.99999
299.99999
299.99999
299.99999
299.99999
299.99999
299.99999
299.99999
299.99999
299.99999
299.99999
299.99999
299.99999
299.99999
299.99999
299.99998
299.99998
299.99998
299.99997
299.99999
300.00002
300.00003
339.90315
317.21209
303.12186
299.26933
299.5065
299.92345
300.00649
300.00345
300.00026
299.99995
299.99998
299.99999
299.99999
299.99999
299.99999
299.99999
299.99999
299.99999
299.99999
299.99999
299.99999
299.99999
299.99999
299.99999
299.99999
299.99999
299.99999
299.99999
299.99999
299.99999
299.99999
299.99999
299.99999
299.99998
299.99998
299.99997
299.99997
299.99999
300.00002
300.00003
340.11494
318.33494
303.94874
299.45549
299.45669
299.89233
300.00306
300.00431
300.0005
299.99995
299.99998
299.99999
299.99999
299.99999
299.99999
299.99999
299.99999
299.99999
299.99999
299.99999
299.99999
299.99999
299.99999
299.99999
299.99999
299.99999
299.99999
299.99999
299.99999
299.99999
299.99999
299.99999
299.99998
299.99998
299.99998
299.99997
299.99997
299.99999
300.00002
300.00003
340.2851
319.31246
304.74913
299.68119
299.42438
299.85972
299.99776
300.00496
300.0008
299.99997
299.99997
299.99999
299.99999
299.99999
299.99999
299.99999
299.99999
299.99999
299.99999
299.99999
299.99999
299.99999
299.99999
299.99999
299.99999
299.99999
299.99999
299.99999
299.99999
299.99999
299.99999
299.99999
299.99998
299.99998
299.99998
299.99997
299.99997
300
300.00003
300.00003
340.42902
320.16612
305.51541
299.93774
299.41049
299.82721
299.99066
300.0053
300.00114
300.00001
299.99996
299.99998
299.99999
299.99999
299.99999
299.99999
299.99999
299.99999
299.99999
299.99999
299.99999
299.99999
299.99999
299.99999
299.99999
299.99999
299.99999
299.99999
299.99999
299.99999
299.99999
299.99998
299.99998
299.99998
299.99998
299.99997
299.99998
300
300.00003
300.00002
340.55201
320.91286
306.24299
300.21734
299.41498
299.79625
299.98195
300.00522
300.00151
300.00006
299.99996
299.99998
299.99999
299.99999
299.99999
299.99999
299.99999
299.99999
299.99999
299.99999
299.99999
299.99999
299.99999
299.99999
299.99999
299.99999
299.99999
299.99999
299.99999
299.99999
299.99998
299.99998
299.99998
299.99998
299.99997
299.99997
299.99998
300
300.00003
300.00002
340.65536
321.56518
306.92888
300.51308
299.43711
299.76806
299.97194
300.00464
300.00187
300.00014
299.99996
299.99998
299.99999
299.99999
299.99999
299.99999
299.99999
299.99999
299.99999
299.99999
299.99999
299.99999
299.99999
299.99999
299.99999
299.99999
299.99999
299.99999
299.99999
299.99998
299.99998
299.99998
299.99998
299.99998
299.99997
299.99997
299.99998
300
300.00003
300.00001
340.73949
322.13172
307.57088
300.81886
299.47566
299.74365
299.96097
300.00354
300.00218
300.00023
299.99996
299.99998
299.99998
299.99999
299.99999
299.99999
299.99999
299.99999
299.99999
299.99999
299.99999
299.99999
299.99999
299.99999
299.99999
299.99999
299.99999
299.99999
299.99998
299.99998
299.99998
299.99998
299.99998
299.99998
299.99997
299.99997
299.99998
300
300.00002
300.00002
340.80481
322.61802
308.1669
301.12923
299.52911
299.72378
299.94945
300.0019
300.00243
300.00035
299.99997
299.99997
299.99998
299.99998
299.99999
299.99999
299.99999
299.99999
299.99999
299.99999
299.99999
299.99999
299.99999
299.99999
299.99999
299.99999
299.99999
299.99998
299.99998
299.99998
299.99998
299.99998
299.99998
299.99997
299.99997
299.99997
299.99998
300.00001
300.00002
300.00002
340.85133
323.02726
308.71469
301.4392
299.59565
299.709
299.93778
299.99975
300.00258
300.00046
299.99999
299.99997
299.99998
299.99998
299.99998
299.99998
299.99999
299.99999
299.99999
299.99999
299.99999
299.99999
299.99999
299.99999
299.99999
299.99998
299.99998
299.99998
299.99998
299.99998
299.99998
299.99998
299.99998
299.99997
299.99997
299.99997
299.99998
300.00001
300.00002
300.00003
340.87862
323.3609
309.21174
301.74416
299.67334
299.69963
299.92635
299.99713
300.00261
300.00059
300
299.99997
299.99998
299.99998
299.99998
299.99998
299.99998
299.99998
299.99998
299.99998
299.99998
299.99998
299.99998
299.99998
299.99998
299.99998
299.99998
299.99998
299.99998
299.99998
299.99998
299.99998
299.99998
299.99997
299.99997
299.99997
299.99998
300.00001
300.00003
300.00004
340.88617
323.6194
309.65526
302.03974
299.76011
299.69582
299.91552
299.99414
300.0025
300.0007
300.00003
299.99997
299.99998
299.99998
299.99998
299.99998
299.99998
299.99998
299.99998
299.99998
299.99998
299.99998
299.99998
299.99998
299.99998
299.99998
299.99998
299.99998
299.99998
299.99998
299.99998
299.99998
299.99997
299.99997
299.99997
299.99997
299.99998
300.00001
300.00003
300.00004
340.87424
323.80309
310.04239
302.32184
299.85382
299.69752
299.90563
299.99085
300.00225
300.0008
300.00006
299.99997
299.99998
299.99998
299.99998
299.99998
299.99998
299.99998
299.99998
299.99998
299.99998
299.99998
299.99998
299.99998
299.99998
299.99998
299.99998
299.99998
299.99998
299.99998
299.99998
299.99998
299.99997
299.99997
299.99997
299.99997
299.99999
300.00001
300.00003
300.00005
340.84433
323.9131
310.37056
302.58664
299.95228
299.7045
299.89695
299.98737
300.00185
300.00089
300.00009
299.99997
299.99998
299.99998
299.99998
299.99998
299.99998
299.99998
299.99998
299.99998
299.99998
299.99998
299.99998
299.99998
299.99998
299.99998
299.99998
299.99998
299.99998
299.99998
299.99998
299.99997
299.99997
299.99997
299.99997
299.99997
299.99999
300.00001
300.00003
300.00006
340.7994
323.95237
310.63789
302.83069
300.05332
299.7164
299.88969
299.98381
300.00132
300.00094
300.00012
299.99997
299.99997
299.99998
299.99998
299.99998
299.99998
299.99998
299.99998
299.99998
299.99998
299.99998
299.99998
299.99998
299.99998
299.99998
299.99998
299.99998
299.99998
299.99998
299.99998
299.99997
299.99997
299.99997
299.99997
299.99997
299.99999
300.00001
300.00003
300.00006
340.74367
323.92642
310.84372
303.05108
300.15481
299.73268
299.88399
299.98028
300.00066
300.00097
300.00015
299.99998
299.99997
299.99998
299.99998
299.99998
299.99998
299.99998
299.99998
299.99998
299.99998
299.99998
299.99998
299.99998
299.99998
299.99998
299.99998
299.99998
299.99998
299.99997
299.99997
299.99997
299.99997
299.99997
299.99997
299.99997
299.99999
300.00001
300.00004
300.00006
340.68222
323.84412
310.98914
303.2456
300.25477
299.75276
299.87993
299.97686
299.9999
300.00096
300.00018
299.99998
299.99997
299.99997
299.99998
299.99998
299.99998
299.99998
299.99998
299.99998
299.99998
299.99998
299.99998
299.99998
299.99998
299.99998
299.99998
299.99997
299.99997
299.99997
299.99997
299.99997
299.99997
299.99997
299.99997
299.99997
299.99999
300.00001
300.00004
300.00007
340.62031
323.71811
311.07746
303.41294
300.35148
299.776
299.87755
299.97365
299.99906
300.00092
300.00021
299.99999
299.99997
299.99997
299.99997
299.99997
299.99997
299.99998
299.99998
299.99998
299.99998
299.99998
299.99998
299.99998
299.99997
299.99997
299.99997
299.99997
299.99997
299.99997
299.99997
299.99997
299.99997
299.99996
299.99996
299.99997
299.99999
300.00001
300.00004
300.00007
340.5627
323.56449
311.11463
303.55284
300.44353
299.8018
299.87686
299.97075
299.99816
300.00084
300.00023
300
299.99997
299.99997
299.99997
299.99997
299.99997
299.99997
299.99997
299.99997
299.99997
299.99997
299.99997
299.99997
299.99997
299.99997
299.99997
299.99997
299.99997
299.99997
299.99997
299.99997
299.99997
299.99996
299.99996
299.99997
299.99999
300.00001
300.00004
300.00007
340.51288
323.40123
311.10918
303.66625
300.52986
299.82959
299.87786
299.96824
299.99723
300.00072
300.00025
300
299.99997
299.99997
299.99997
299.99997
299.99997
299.99997
299.99997
299.99997
299.99997
299.99997
299.99997
299.99997
299.99997
299.99997
299.99997
299.99997
299.99997
299.99997
299.99997
299.99997
299.99997
299.99996
299.99996
299.99997
299.99999
300.00002
300.00004
300.00008
340.47257
323.24545
311.07184
303.75534
300.60974
299.85872
299.8804
299.96615
299.9963
300.00058
300.00026
300.00001
299.99997
299.99997
299.99997
299.99997
299.99997
299.99997
299.99998
299.99998
299.99998
299.99998
299.99998
299.99997
299.99997
299.99997
299.99997
299.99997
299.99997
299.99997
299.99997
299.99997
299.99997
299.99996
299.99996
299.99997
299.99999
300.00002
300.00004
300.00008
340.4416
323.11012
311.01431
303.8234
300.68277
299.88841
299.88422
299.96446
299.99539
300.00041
300.00026
300.00002
299.99997
299.99997
299.99997
299.99997
299.99997
299.99997
299.99997
299.99997
299.99997
299.99997
299.99997
299.99997
299.99997
299.99997
299.99997
299.99997
299.99997
299.99997
299.99997
299.99997
299.99997
299.99996
299.99996
299.99997
299.99999
300.00002
300.00004
300.00008
340.41828
323.00163
310.94767
303.87441
300.74881
299.91774
299.88881
299.96307
299.99448
300.00023
300.00026
300.00003
299.99997
299.99997
299.99997
299.99997
299.99997
299.99997
299.99997
299.99997
299.99997
299.99997
299.99997
299.99997
299.99997
299.99997
299.99997
299.99997
299.99997
299.99997
299.99997
299.99997
299.99997
299.99996
299.99996
299.99997
299.99999
300.00002
300.00005
300.00009
340.40005
322.91912
310.88055
303.91243
300.808
299.94575
299.89354
299.96177
299.99358
300.00003
300.00026
300.00003
299.99997
299.99996
299.99997
299.99997
299.99997
299.99997
299.99997
299.99997
299.99997
299.99997
299.99997
299.99997
299.99997
299.99997
299.99996
299.99996
299.99996
299.99996
299.99996
299.99996
299.99996
299.99996
299.99996
299.99997
299.99999
300.00001
300.00005
300.00009
340.38427
322.85595
310.81764
303.94089
300.86075
299.97173
299.89787
299.96037
299.99263
299.99982
300.00025
300.00003
299.99996
299.99995
299.99995
299.99995
299.99995
299.99995
299.99995
299.99995
299.99995
299.99995
299.99995
299.99995
299.99995
299.99995
299.99995
299.99995
299.99995
299.99995
299.99995
299.99995
299.99995
299.99996
299.99996
299.99997
299.99999
300.00001
300.00005
300.00009
340.36892
322.80282
310.75927
303.96188
300.90772
299.99554
299.90155
299.95876
299.99163
299.99961
300.00024
300.00003
299.99995
299.99994
299.99994
299.99994
299.99994
299.99994
299.99994
299.99994
299.99994
299.99994
299.99994
299.99994
299.99994
299.99994
299.99994
299.99994
299.99994
299.99994
299.99994
299.99994
299.99994
299.99994
299.99995
299.99996
299.99998
300
300.00006
300.00009
340.35292
322.75109
310.70217
303.9758
300.94962
300.0178
299.90493
299.95706
299.99059
299.99939
300.00023
300.00003
299.99994
299.99992
299.99992
299.99992
299.99992
299.99992
299.99992
299.99992
299.99992
299.99992
299.99993
299.99993
299.99993
299.99993
299.99993
299.99993
299.99993
299.99993
299.99993
299.99993
299.99993
299.99993
299.99994
299.99995
299.99997
300
300.00006
300.0001
340.33616
322.69536
310.6414
303.98154
300.98702
300.03971
299.90893
299.95565
299.98959
299.99916
300.00022
300.00003
299.99993
299.99991
299.99991
299.99991
299.99991
299.99991
299.99991
299.99991
299.99991
299.99991
299.99991
299.99991
299.99991
299.99991
299.99991
299.99991
299.99991
299.99991
299.99991
299.99991
299.99991
299.99992
299.99992
299.99994
299.99996
300
300.00007
300.0001
340.31924
322.63434
310.57272
303.97721
301.02009
300.06265
299.91483
299.95513
299.98878
299.99894
300.00021
300.00003
299.99992
299.9999
299.9999
299.9999
299.9999
299.9999
299.99991
299.99991
299.99991
299.99991
299.99991
299.99991
299.99991
299.99991
299.99991
299.99991
299.99991
299.99991
299.9999
299.9999
299.9999
299.99991
299.99991
299.99993
299.99995
300.00001
300.00008
300.0001
340.30308
322.57021
310.49447
303.96117
301.04854
300.08762
299.92379
299.95613
299.98836
299.99875
300.00019
300.00003
299.99992
299.9999
299.9999
299.9999
299.9999
299.99991
299.99991
299.99991
299.99991
299.99991
299.99991
299.99991
299.99991
299.99991
299.99991
299.99991
299.99991
299.9999
299.9999
299.9999
299.9999
299.9999
299.99991
299.99992
299.99996
300.00002
300.00008
300.0001
340.28856
322.50703
310.4084
303.93305
301.07171
300.11469
299.93637
299.9591
299.98848
299.99861
300.00015
300.00004
299.99993
299.99991
299.99991
299.99991
299.99991
299.99991
299.99992
299.99992
299.99992
299.99992
299.99992
299.99992
299.99992
299.99992
299.99992
299.99991
299.99991
299.99991
299.99991
299.99991
299.99991
299.99991
299.99991
299.99993
299.99996
300.00003
300.00009
300.0001
340.27628
322.44904
310.31909
303.89426
301.08888
300.1429
299.95221
299.96404
299.98921
299.99855
300.00011
300.00004
299.99994
299.99992
299.99992
299.99993
299.99993
299.99993
299.99993
299.99993
299.99993
299.99993
299.99993
299.99993
299.99993
299.99993
299.99993
299.99993
299.99993
299.99993
299.99992
299.99992
299.99992
299.99992
299.99992
299.99994
299.99998
300.00004
300.00009
300.0001
340.2665
322.3994
310.23243
303.84793
301.09963
300.17053
299.9701
299.97055
299.99051
299.99859
300.00006
300.00004
299.99996
299.99994
299.99994
299.99995
299.99995
299.99995
299.99995
299.99995
299.99995
299.99995
299.99995
299.99995
299.99995
299.99995
299.99995
299.99995
299.99995
299.99994
299.99994
299.99994
299.99994
299.99994
299.99994
299.99996
299.99999
300.00005
300.00009
300.0001
340.25913
322.35962
310.15401
303.79818
301.1041
300.19559
299.98831
299.97784
299.99219
299.99872
300.00002
300.00004
299.99998
299.99996
299.99996
299.99997
299.99997
299.99997
299.99997
299.99997
299.99997
299.99997
299.99997
299.99997
299.99997
299.99997
299.99997
299.99997
299.99997
299.99996
299.99996
299.99996
299.99996
299.99996
299.99996
299.99998
300.00001
300.00006
300.00009
300.0001
340.25388
322.32965
310.08769
303.74926
301.10306
300.21648
300.00512
299.98508
299.99402
299.99891
299.99999
300.00003
299.99999
299.99998
299.99998
299.99998
299.99998
299.99999
299.99999
299.99999
299.99999
299.99999
299.99999
299.99999
299.99999
299.99999
299.99999
299.99998
299.99998
299.99998
299.99998
299.99998
299.99998
299.99998
299.99998
299.99999
300.00003
300.00007
300.00009
300.0001
340.2503
322.30829
310.03509
303.70465
301.09781
300.23233
300.01929
299.99154
299.99578
299.99913
299.99997
300.00003
300
300
300
300
300
300
300
300
300
300
300
300
300
300
300
300
300
300
300
299.99999
299.99999
299.99999
300
300.00001
300.00004
300.00007
300.00009
300.0001
340.24796
322.29374
309.99577
303.66659
301.0899
300.24313
300.03023
299.9968
299.99729
299.99936
299.99996
300.00002
300.00001
300.00001
300.00001
300.00001
300.00001
300.00001
300.00001
300.00001
300.00001
300.00001
300.00001
300.00001
300.00001
300.00001
300.00001
300.00001
300.00001
300.00001
300.00001
300.00001
300
300
300.00001
300.00002
300.00004
300.00007
300.00009
300.0001
340.24647
322.28414
309.96777
303.63597
301.08086
300.24958
300.03798
300.00074
299.99849
299.99956
299.99996
300.00002
300.00002
300.00001
300.00001
300.00001
300.00001
300.00001
300.00001
300.00001
300.00001
300.00001
300.00001
300.00001
300.00001
300.00001
300.00001
300.00001
300.00001
300.00001
300.00001
300.00001
300.00001
300.00001
300.00002
300.00003
300.00005
300.00007
300.00009
300.0001
340.24551
322.27783
309.9485
303.6125
301.07192
300.25273
300.04301
300.00347
299.99936
299.99972
299.99997
300.00002
300.00002
300.00002
300.00002
300.00002
300.00002
300.00002
300.00002
300.00002
300.00002
300.00002
300.00002
300.00002
300.00002
300.00002
300.00002
300.00002
300.00002
300.00002
300.00002
300.00002
300.00002
300.00002
300.00002
300.00003
300.00005
300.00007
300.00009
300.0001
340.24487
322.27354
309.93536
303.59515
301.0639
300.25371
300.04601
300.00524
299.99996
299.99985
299.99998
300.00001
300.00002
300.00002
300.00002
300.00002
300.00002
300.00002
300.00002
300.00002
300.00002
300.00002
300.00002
300.00002
300.00002
300.00002
300.00002
300.00002
300.00002
300.00002
300.00002
300.00002
300.00002
300.00002
300.00002
300.00003
300.00005
300.00007
300.00009
300.0001
340.2444
322.27044
309.92617
303.58255
301.0572
300.25348
300.04764
300.00631
300.00035
299.99993
299.99999
300.00001
300.00002
300.00002
300.00002
300.00002
300.00002
300.00002
300.00002
300.00002
300.00002
300.00002
300.00002
300.00002
300.00002
300.00002
300.00002
300.00002
300.00002
300.00002
300.00002
300.00002
300.00002
300.00002
300.00002
300.00003
300.00005
300.00007
300.00009
300.0001
340.24402
322.26798
309.91939
303.57338
301.05186
300.25273
300.04846
300.00695
300.0006
299.99999
300
300.00001
300.00001
300.00001
300.00001
300.00001
300.00001
300.00001
300.00001
300.00001
300.00001
300.00001
300.00001
300.00001
300.00001
300.00001
300.00001
300.00001
300.00001
300.00001
300.00001
300.00001
300.00001
300.00002
300.00002
300.00003
300.00005
300.00007
300.00009
300.0001
340.24369
322.2659
309.91401
303.56652
301.04772
300.25188
300.04885
300.00731
300.00075
300.00003
300
300.00001
300.00001
300.00001
300.00001
300.00001
300.00001
300.00001
300.00001
300.00001
300.00001
300.00001
300.00001
300.00001
300.00001
300.00001
300.00001
300.00001
300.00001
300.00001
300.00001
300.00001
300.00001
300.00002
300.00002
300.00003
300.00005
300.00007
300.00009
300.0001
340.2434
322.26407
309.9095
303.56116
301.04454
300.25113
300.04904
300.00754
300.00084
300.00006
300.00001
300.00001
300.00001
300.00001
300.00001
300.00001
300.00001
300.00001
300.00001
300.00001
300.00001
300.00001
300.00001
300.00001
300.00001
300.00001
300.00001
300.00001
300.00001
300.00001
300.00001
300.00001
300.00001
300.00001
300.00002
300.00003
300.00004
300.00007
300.00009
300.0001
340.24312
322.26243
309.90558
303.5568
301.04205
300.25053
300.04915
300.00769
300.00091
300.00007
300.00001
300.00001
300.00001
300.00001
300.00001
300.00001
300.00001
300.00001
300.00001
300.00001
300.00001
300.00001
300.00001
300.00001
300.00001
300.00001
300.00001
300.00001
300.00001
300.00001
300.00001
300.00001
300.00001
300.00001
300.00002
300.00003
300.00004
300.00007
300.00009
300.0001
340.24288
322.26097
309.90214
303.55313
301.04007
300.25008
300.04925
300.0078
300.00096
300.00009
300.00001
300.00001
300.00001
300.00001
300.00001
300.00001
300.00001
300.00001
300.00001
300.00001
300.00001
300.00001
300.00001
300.00001
300.00001
300.00001
300.00001
300.00001
300.00001
300.00001
300.00001
300.00001
300.00001
300.00001
300.00002
300.00003
300.00004
300.00007
300.00009
300.0001
340.24265
322.25968
309.89912
303.54997
301.03844
300.24974
300.04934
300.0079
300.00099
300.0001
300.00001
300.00001
300.00001
300.00001
300.00001
300.00001
300.00001
300.00001
300.00001
300.00001
300.00001
300.00001
300.00001
300.00001
300.00001
300.00001
300.00001
300.00001
300.00001
300.00001
300.00001
300.00001
300.00001
300.00001
300.00002
300.00003
300.00004
300.00007
300.00009
300.0001
340.24245
322.25854
309.8965
303.54726
301.03708
300.24948
300.04942
300.00798
300.00103
300.0001
300.00002
300.00001
300.00001
300.00001
300.00001
300.00001
300.00001
300.00001
300.00001
300.00001
300.00001
300.00001
300.00001
300.00001
300.00001
300.00001
300.00001
300.00001
300.00001
300.00001
300.00001
300.00001
300.00001
300.00001
300.00002
300.00003
300.00004
300.00007
300.00009
300.0001
340.24228
322.25754
309.89422
303.54491
301.03591
300.24926
300.0495
300.00805
300.00105
300.00011
300.00002
300.00001
300.00001
300.00001
300.00001
300.00001
300.00001
300.00001
300.00001
300.00001
300.00001
300.00001
300.00001
300.00001
300.00001
300.00001
300.00001
300.00001
300.00001
300.00001
300.00001
300.00001
300.00001
300.00001
300.00002
300.00002
300.00004
300.00007
300.00009
300.0001
340.24212
322.25667
309.89226
303.54289
301.03491
300.24908
300.04957
300.00811
300.00108
300.00012
300.00002
300.00001
300.00001
300.00001
300.00001
300.00001
300.00001
300.00001
300.00001
300.00001
300.00001
300.00001
300.00001
300.00001
300.00001
300.00001
300.00001
300.00001
300.00001
300.00001
300.00001
300.00001
300.00001
300.00001
300.00002
300.00002
300.00004
300.00007
300.00009
300.0001
340.24199
322.25591
309.89056
303.54116
301.03406
300.24892
300.04962
300.00816
300.00109
300.00012
300.00002
300.00001
300.00001
300.00001
300.00001
300.00001
300.00001
300.00001
300.00001
300.00001
300.00001
300.00001
300.00001
300.00001
300.00001
300.00001
300.00001
300.00001
300.00001
300.00001
300.00001
300.00001
300.00001
300.00001
300.00002
300.00002
300.00004
300.00007
300.00009
300.0001
340.24187
322.25525
309.88909
303.53967
301.03332
300.24879
300.04967
300.0082
300.00111
300.00013
300.00002
300.00001
300.00001
300.00001
300.00001
300.00001
300.00001
300.00001
300.00001
300.00001
300.00001
300.00001
300.00001
300.00001
300.00001
300.00001
300.00001
300.00001
300.00001
300.00001
300.00001
300.00001
300.00001
300.00001
300.00002
300.00002
300.00004
300.00007
300.00009
300.0001
340.24177
322.25467
309.88783
303.53838
301.03269
300.24867
300.04971
300.00824
300.00112
300.00013
300.00002
300.00001
300.00001
300.00001
300.00001
300.00001
300.00001
300.00001
300.00001
300.00001
300.00001
300.00001
300.00001
300.00001
300.00001
300.00001
300.00001
300.00001
300.00001
300.00001
300.00001
300.00001
300.00001
300.00001
300.00001
300.00002
300.00004
300.00007
300.00009
300.00009
340.24168
322.25418
309.88673
303.53728
301.03215
300.24857
300.04974
300.00827
300.00114
300.00013
300.00002
300.00001
300.00001
300.00001
300.00001
300.00001
300.00001
300.00001
300.00001
300.00001
300.00001
300.00001
300.00001
300.00001
300.00001
300.00001
300.00001
300.00001
300.00001
300.00001
300.00001
300.00001
300.00001
300.00001
300.00001
300.00002
300.00004
300.00007
300.00009
300.00009
340.24162
322.25375
309.88578
303.53633
301.03168
300.24848
300.04977
300.0083
300.00115
300.00013
300.00002
300.00001
300.00001
300.00001
300.00001
300.00001
300.00001
300.00001
300.00001
300.00001
300.00001
300.00001
300.00001
300.00001
300.00001
300.00001
300.00001
300.00001
300.00001
300.00001
300.00001
300.00001
300.00001
300.00001
300.00001
300.00002
300.00004
300.00007
300.00009
300.00009
340.24156
322.25339
309.88496
303.5355
301.03128
300.2484
300.04979
300.00832
300.00115
300.00014
300.00002
300.00001
300.00001
300.00001
300.00001
300.00001
300.00001
300.00001
300.00001
300.00001
300.00001
300.00001
300.00001
300.00001
300.00001
300.00001
300.00001
300.00001
300.00001
300.00001
300.00001
300.00001
300.00001
300.00001
300.00001
300.00002
300.00004
300.00007
300.00009
300.00009
340.24152
322.25308
309.88425
303.53479
301.03093
300.24833
300.04981
300.00834
300.00116
300.00014
300.00002
300.00001
300.00001
300.00001
300.00001
300.00001
300.00001
300.00001
300.00001
300.00001
300.00001
300.00001
300.00001
300.00001
300.00001
300.00001
300.00001
300.00001
300.00001
300.00001
300.00001
300.00001
300.00001
300.00001
300.00001
300.00002
300.00004
300.00007
300.00009
300.00009
340.24149
322.25283
309.88364
303.53417
301.03063
300.24828
300.04982
300.00835
300.00117
300.00014
300.00002
300.00001
300.00001
300.00001
300.00001
300.00001
300.00001
300.00001
300.00001
300.00001
300.00001
300.00001
300.00001
300.00001
300.00001
300.00001
300.00001
300.00001
300.00001
300.00001
300.00001
300.00001
300.00001
300.00001
300.00001
300.00002
300.00004
300.00007
300.00009
300.00009
340.24147
322.25263
309.88313
303.53364
301.03036
300.24823
300.04984
300.00836
300.00117
300.00014
300.00002
300.00001
300.00001
300.00001
300.00001
300.00001
300.00001
300.00001
300.00001
300.00001
300.00001
300.00001
300.00001
300.00001
300.00001
300.00001
300.00001
300.00001
300.00001
300.00001
300.00001
300.00001
300.00001
300.00001
300.00001
300.00002
300.00004
300.00007
300.00009
300.00009
340.24147
322.25247
309.88269
303.53319
301.03014
300.24818
300.04985
300.00838
300.00118
300.00014
300.00002
300.00001
300.00001
300.00001
300.00001
300.00001
300.00001
300.00001
300.00001
300.00001
300.00001
300.00001
300.00001
300.00001
300.00001
300.00001
300.00001
300.00001
300.00001
300.00001
300.00001
300.00001
300.00001
300.00001
300.00001
300.00002
300.00004
300.00007
300.00009
300.00009
340.24148
322.25235
309.88233
303.5328
301.02995
300.24815
300.04986
300.00839
300.00118
300.00014
300.00002
300.00001
300.00001
300.00001
300.00001
300.00001
300.00001
300.00001
300.00001
300.00001
300.00001
300.00001
300.00001
300.00001
300.00001
300.00001
300.00001
300.00001
300.00001
300.00001
300.00001
300.00001
300.00001
300.00001
300.00001
300.00002
300.00004
300.00007
300.00009
300.00009
340.2415
322.25228
309.88203
303.53247
301.02978
300.24812
300.04987
300.0084
300.00118
300.00014
300.00002
300.00001
300.00001
300.00001
300.00001
300.00001
300.00001
300.00001
300.00001
300.00001
300.00001
300.00001
300.00001
300.00001
300.00001
300.00001
300.00001
300.00001
300.00001
300.00001
300.00001
300.00001
300.00001
300.00001
300.00001
300.00002
300.00004
300.00007
300.00009
300.00009
340.24154
322.25225
309.8818
303.53219
301.02964
300.24809
300.04988
300.0084
300.00119
300.00014
300.00002
300.00001
300.00001
300.00001
300.00001
300.00001
300.00001
300.00001
300.00001
300.00001
300.00001
300.00001
300.00001
300.00001
300.00001
300.00001
300.00001
300.00001
300.00001
300.00001
300.00001
300.00001
300.00001
300.00001
300.00001
300.00002
300.00004
300.00007
300.00009
300.00009
340.24158
322.25226
309.88162
303.53196
301.02952
300.24807
300.04988
300.00841
300.00119
300.00014
300.00002
300.00001
300.00001
300.00001
300.00001
300.00001
300.00001
300.00001
300.00001
300.00001
300.00001
300.00001
300.00001
300.00001
300.00001
300.00001
300.00001
300.00001
300.00001
300.00001
300.00001
300.00001
300.00001
300.00001
300.00001
300.00002
300.00004
300.00007
300.00009
300.00009
340.24165
322.25231
309.88151
303.53178
301.02942
300.24805
300.04989
300.00842
300.00119
300.00014
300.00002
300.00001
300.00001
300.00001
300.00001
300.00001
300.00001
300.00001
300.00001
300.00001
300.00001
300.00001
300.00001
300.00001
300.00001
300.00001
300.00001
300.00001
300.00001
300.00001
300.00001
300.00001
300.00001
300.00001
300.00001
300.00002
300.00004
300.00007
300.00009
300.00009
340.24172
322.2524
309.88144
303.53164
301.02934
300.24803
300.0499
300.00842
300.00119
300.00014
300.00002
300.00001
300.00001
300.00001
300.00001
300.00001
300.00001
300.00001
300.00001
300.00001
300.00001
300.00001
300.00001
300.00001
300.00001
300.00001
300.00001
300.00001
300.00001
300.00001
300.00001
300.00001
300.00001
300.00001
300.00001
300.00002
300.00004
300.00007
300.00009
300.00009
340.24182
322.25253
309.88143
303.53154
301.02928
300.24802
300.0499
300.00842
300.00119
300.00014
300.00002
300.00001
300.00001
300.00001
300.00001
300.00001
300.00001
300.00001
300.00001
300.00001
300.00001
300.00001
300.00001
300.00001
300.00001
300.00001
300.00001
300.00001
300.00001
300.00001
300.00001
300.00001