/*--------------------------------*- C++ -*----------------------------------*\
  =========                 |
  \\      /  F ield         | OpenFOAM: The Open Source CFD Toolbox
   \\    /   O peration     | Website:  https://openfoam.org
    \\  /    A nd           | Version:  10
     \\/     M anipulation  |
\*---------------------------------------------------------------------------*/
FoamFile
{
    format      ascii;
    class       volScalarField;
    location    "0.08";
    object      T_0;
}
// * * * * * * * * * * * * * * * * * * * * * * * * * * * * * * * * * * * * * //

dimensions      [0 0 0 1 0 0 0];

internalField   nonuniform List<scalar> 
4000
(
303.10101
299.34321
299.99041
300.00082
299.99993
300
300
300
300
300
300
300
300
300
300
300
300
300
300
300
300
300
300
300
300
300
300
300
300
300
300
300
300
300
300
300
300
300
300
300.00001
309.66132
298.49374
299.77951
300.00183
300.0008
299.99999
300
300
300
300
300
300
300
300
300
300
300
300
300
300
300
300
300
300
300
300
300
300
300
300
300
300
300
300
300
300
300
300
299.99999
300.00002
315.99878
298.68479
299.39326
299.97577
300.00403
300.00024
299.99999
300
300
300
300
300
300
300
300
300
300
300
300
300
300
300
300
300
300
300
300
300
300
300
300
300
300
300
300
300
300
299.99999
299.99999
300.00002
321.73177
299.84369
298.98682
299.89536
300.00712
300.00137
300
299.99999
300
300
300
300
300
300
300
300
300
300
300
300
300
300
300
300
300
300
300
300
300
300
300
300
300
300
300
299.99999
299.99999
299.99999
299.99999
300.00003
326.65392
301.69325
298.71263
299.7544
300.00322
300.00374
300.00017
299.99998
299.99999
300
300
300
300
300
300
300
300
300
300
300
300
300
300
300
300
300
300
300
300
300
300
300
300
300
299.99999
299.99999
299.99999
299.99998
299.99999
300.00004
330.65984
303.93271
298.66541
299.57088
299.98449
300.00688
300.0007
299.99996
299.99999
300
300
300
300
300
300
300
300
300
300
300
300
300
300
300
300
300
300
300
300
300
300
300
300
299.99999
299.99999
299.99999
299.99999
299.99998
299.99999
300.00004
333.74011
306.30403
298.87069
299.37792
299.94593
300.00926
300.00176
300
299.99998
299.99999
300
300
300
300
300
300
300
300
300
300
300
300
300
300
300
300
300
300
300
300
300
299.99999
299.99999
299.99999
299.99999
299.99999
299.99998
299.99998
300
300.00004
335.97774
308.6225
299.30271
299.20973
299.88754
300.00881
300.00336
300.00013
299.99996
299.99999
299.99999
300
300
300
300
300
300
300
300
300
300
300
300
300
300
300
300
300
300
300
299.99999
299.99999
299.99999
299.99999
299.99999
299.99998
299.99998
299.99998
300
300.00004
337.51924
310.77713
299.91112
299.09182
299.81375
300.00359
300.00526
300.00043
299.99995
299.99998
299.99999
299.99999
299.99999
300
300
300
300
300
300
300
300
300
300
300
300
300
300
300
299.99999
299.99999
299.99999
299.99999
299.99999
299.99999
299.99999
299.99998
299.99998
299.99998
300.00001
300.00004
338.5355
312.7149
300.64079
299.0382
299.73162
299.99238
300.00703
300.00095
299.99996
299.99998
299.99999
299.99999
299.99999
299.99999
299.99999
299.99999
300
300
300
300
300
300
300
300
300
299.99999
299.99999
299.99999
299.99999
299.99999
299.99999
299.99999
299.99999
299.99999
299.99998
299.99998
299.99997
299.99998
300.00001
300.00004
339.18836
314.4225
301.44253
299.05272
299.64881
299.97486
300.00814
300.00166
300
299.99996
299.99999
299.99999
299.99999
299.99999
299.99999
299.99999
299.99999
299.99999
299.99999
299.99999
299.99999
299.99999
299.99999
299.99999
299.99999
299.99999
299.99999
299.99999
299.99999
299.99999
299.99999
299.99999
299.99999
299.99999
299.99998
299.99998
299.99997
299.99998
300.00002
300.00004
339.60992
315.91052
302.27734
299.13217
299.57222
299.95157
300.00809
300.00252
300.0001
299.99995
299.99999
299.99999
299.99999
299.99999
299.99999
299.99999
299.99999
299.99999
299.99999
299.99999
299.99999
299.99999
299.99999
299.99999
299.99999
299.99999
299.99999
299.99999
299.99999
299.99999
299.99999
299.99999
299.99999
299.99998
299.99998
299.99998
299.99997
299.99999
300.00002
300.00003
339.89517
317.20142
303.11685
299.26925
299.50725
299.92366
300.00648
300.00344
300.00026
299.99995
299.99998
299.99999
299.99999
299.99999
299.99999
299.99999
299.99999
299.99999
299.99999
299.99999
299.99999
299.99999
299.99999
299.99999
299.99999
299.99999
299.99999
299.99999
299.99999
299.99999
299.99999
299.99999
299.99999
299.99998
299.99998
299.99997
299.99997
299.99999
300.00002
300.00003
340.10444
318.32132
303.94179
299.45494
299.45761
299.89266
300.00307
300.00429
300.0005
299.99995
299.99998
299.99999
299.99999
299.99999
299.99999
299.99999
299.99999
299.99999
299.99999
299.99999
299.99999
299.99999
299.99999
299.99999
299.99999
299.99999
299.99999
299.99999
299.99999
299.99999
299.99999
299.99999
299.99998
299.99998
299.99998
299.99997
299.99997
299.99999
300.00002
300.00003
340.27091
319.29515
304.73974
299.67994
299.42545
299.8602
299.9978
300.00494
300.00079
299.99997
299.99997
299.99999
299.99999
299.99999
299.99999
299.99999
299.99999
299.99999
299.99999
299.99999
299.99999
299.99999
299.99999
299.99999
299.99999
299.99999
299.99999
299.99999
299.99999
299.99999
299.99999
299.99998
299.99998
299.99998
299.99998
299.99997
299.99997
299.99999
300.00003
300.00003
340.40964
320.14408
305.50301
299.93552
299.41167
299.82788
299.99073
300.00527
300.00113
300.00001
299.99996
299.99998
299.99999
299.99999
299.99999
299.99999
299.99999
299.99999
299.99999
299.99999
299.99999
299.99999
299.99999
299.99999
299.99999
299.99999
299.99999
299.99999
299.99999
299.99999
299.99999
299.99998
299.99998
299.99998
299.99998
299.99997
299.99998
300
300.00003
300.00002
340.52597
320.88474
306.22684
300.21382
299.41621
299.79713
299.98209
300.00519
300.0015
300.00006
299.99996
299.99998
299.99999
299.99999
299.99999
299.99999
299.99999
299.99999
299.99999
299.99999
299.99999
299.99999
299.99999
299.99999
299.99999
299.99999
299.99999
299.99999
299.99999
299.99999
299.99998
299.99998
299.99998
299.99998
299.99997
299.99997
299.99998
300
300.00003
300.00002
340.62156
321.52926
306.90808
300.50786
299.4383
299.76918
299.97216
300.00462
300.00185
300.00014
299.99996
299.99998
299.99999
299.99999
299.99999
299.99999
299.99999
299.99999
299.99999
299.99999
299.99999
299.99999
299.99999
299.99999
299.99999
299.99999
299.99999
299.99999
299.99999
299.99998
299.99998
299.99998
299.99998
299.99998
299.99997
299.99997
299.99998
300
300.00003
300.00001
340.69735
322.08598
307.54429
300.81145
299.47672
299.74504
299.9613
300.00353
300.00216
300.00023
299.99996
299.99998
299.99998
299.99999
299.99999
299.99999
299.99999
299.99999
299.99999
299.99999
299.99999
299.99999
299.99999
299.99999
299.99999
299.99999
299.99999
299.99999
299.99998
299.99998
299.99998
299.99998
299.99998
299.99998
299.99997
299.99997
299.99998
300
300.00002
300.00002
340.75412
322.56016
308.13315
301.11905
299.52986
299.72545
299.94992
300.0019
300.00241
300.00034
299.99997
299.99997
299.99998
299.99998
299.99999
299.99999
299.99999
299.99999
299.99999
299.99999
299.99999
299.99999
299.99999
299.99999
299.99999
299.99999
299.99999
299.99998
299.99998
299.99998
299.99998
299.99998
299.99998
299.99997
299.99997
299.99997
299.99998
300.00001
300.00002
300.00002
340.79208
322.9548
308.67216
301.42557
299.59592
299.71096
299.93841
299.99978
300.00255
300.00046
299.99998
299.99997
299.99998
299.99998
299.99998
299.99998
299.99998
299.99999
299.99999
299.99999
299.99999
299.99999
299.99999
299.99999
299.99999
299.99998
299.99998
299.99998
299.99998
299.99998
299.99998
299.99998
299.99998
299.99997
299.99997
299.99997
299.99998
300.00001
300.00002
300.00003
340.81086
323.27125
309.15858
301.72626
299.6729
299.70188
299.92717
299.9972
300.00258
300.00058
300
299.99997
299.99998
299.99998
299.99998
299.99998
299.99998
299.99998
299.99998
299.99998
299.99998
299.99998
299.99998
299.99998
299.99998
299.99998
299.99998
299.99998
299.99998
299.99998
299.99998
299.99998
299.99998
299.99997
299.99997
299.99997
299.99998
300.00001
300.00003
300.00004
340.8101
323.51007
309.58946
302.01668
299.75868
299.69833
299.91657
299.99426
300.00247
300.00069
300.00003
299.99997
299.99998
299.99998
299.99998
299.99998
299.99998
299.99998
299.99998
299.99998
299.99998
299.99998
299.99998
299.99998
299.99998
299.99998
299.99998
299.99998
299.99998
299.99998
299.99998
299.99998
299.99997
299.99997
299.99997
299.99997
299.99998
300.00001
300.00003
300.00005
340.79029
323.67193
309.96191
302.29263
299.85109
299.70025
299.90692
299.99103
300.00222
300.00079
300.00005
299.99997
299.99998
299.99998
299.99998
299.99998
299.99998
299.99998
299.99998
299.99998
299.99998
299.99998
299.99998
299.99998
299.99998
299.99998
299.99998
299.99998
299.99998
299.99998
299.99998
299.99998
299.99997
299.99997
299.99997
299.99997
299.99999
300.00001
300.00003
300.00005
340.75332
323.75866
310.27346
302.55028
299.94789
299.70738
299.89849
299.98763
300.00183
300.00087
300.00009
299.99997
299.99997
299.99998
299.99998
299.99998
299.99998
299.99998
299.99998
299.99998
299.99998
299.99998
299.99998
299.99998
299.99998
299.99998
299.99998
299.99998
299.99998
299.99998
299.99998
299.99997
299.99997
299.99997
299.99997
299.99997
299.99999
300.00001
300.00003
300.00006
340.7026
323.77419
310.52258
302.78623
300.04687
299.71932
299.89149
299.98416
300.0013
300.00092
300.00012
299.99997
299.99997
299.99998
299.99998
299.99998
299.99998
299.99998
299.99998
299.99998
299.99998
299.99998
299.99998
299.99998
299.99998
299.99998
299.99998
299.99998
299.99998
299.99998
299.99997
299.99997
299.99997
299.99997
299.99997
299.99997
299.99999
300.00001
300.00003
300.00006
340.64274
323.72537
310.70915
302.99768
300.14592
299.73553
299.88603
299.98072
300.00066
300.00095
300.00015
299.99998
299.99997
299.99998
299.99998
299.99998
299.99998
299.99998
299.99998
299.99998
299.99998
299.99998
299.99998
299.99998
299.99998
299.99998
299.99998
299.99998
299.99998
299.99997
299.99997
299.99997
299.99997
299.99997
299.99997
299.99997
299.99999
300.00001
300.00004
300.00006
340.57906
323.62271
310.83505
303.18266
300.2431
299.7554
299.8822
299.97741
299.99992
300.00094
300.00018
299.99998
299.99997
299.99997
299.99997
299.99998
299.99998
299.99998
299.99998
299.99998
299.99998
299.99998
299.99998
299.99998
299.99998
299.99998
299.99997
299.99997
299.99997
299.99997
299.99997
299.99997
299.99997
299.99997
299.99996
299.99997
299.99999
300.00001
300.00004
300.00007
340.51687
323.48065
310.90464
303.34014
300.33676
299.77836
299.88005
299.97433
299.9991
300.00089
300.0002
299.99999
299.99997
299.99997
299.99997
299.99997
299.99997
299.99997
299.99998
299.99998
299.99998
299.99998
299.99998
299.99997
299.99997
299.99997
299.99997
299.99997
299.99997
299.99997
299.99997
299.99997
299.99997
299.99996
299.99996
299.99997
299.99999
300.00001
300.00004
300.00007
340.46066
323.31682
310.92501
303.47031
300.42557
299.8038
299.87961
299.97158
299.99823
300.00081
300.00023
300
299.99997
299.99997
299.99997
299.99997
299.99997
299.99997
299.99997
299.99997
299.99998
299.99997
299.99997
299.99997
299.99997
299.99997
299.99997
299.99997
299.99997
299.99997
299.99997
299.99997
299.99997
299.99996
299.99996
299.99997
299.99999
300.00001
300.00004
300.00007
340.41337
323.14989
310.90585
303.57457
300.50858
299.83112
299.88081
299.9692
299.99734
300.0007
300.00024
300
299.99997
299.99997
299.99997
299.99997
299.99997
299.99997
299.99998
299.99998
299.99998
299.99998
299.99998
299.99998
299.99997
299.99997
299.99997
299.99997
299.99997
299.99997
299.99997
299.99997
299.99997
299.99996
299.99996
299.99997
299.99999
300.00002
300.00004
300.00008
340.37603
322.99638
310.85867
303.65558
300.5851
299.85958
299.88346
299.96723
299.99645
300.00056
300.00025
300.00001
299.99997
299.99997
299.99997
299.99997
299.99997
299.99998
299.99998
299.99998
299.99998
299.99998
299.99998
299.99998
299.99997
299.99997
299.99997
299.99997
299.99997
299.99997
299.99997
299.99997
299.99997
299.99996
299.99996
299.99997
299.99999
300.00002
300.00004
300.00008
340.34778
322.86736
310.79538
303.71693
300.65476
299.88824
299.88714
299.96558
299.99556
300.0004
300.00026
300.00002
299.99997
299.99997
299.99997
299.99997
299.99997
299.99997
299.99997
299.99997
299.99997
299.99997
299.99997
299.99997
299.99997
299.99997
299.99997
299.99997
299.99997
299.99997
299.99997
299.99997
299.99997
299.99996
299.99996
299.99997
299.99999
300.00002
300.00004
300.00008
340.32643
322.76652
310.72644
303.76268
300.71743
299.91607
299.89126
299.96411
299.99467
300.00023
300.00025
300.00002
299.99997
299.99997
299.99997
299.99997
299.99997
299.99997
299.99997
299.99997
299.99997
299.99997
299.99997
299.99997
299.99997
299.99997
299.99997
299.99997
299.99997
299.99997
299.99997
299.99997
299.99996
299.99996
299.99996
299.99997
299.99999
300.00001
300.00005
300.00009
340.30921
322.69036
310.65911
303.79667
300.77333
299.94218
299.8952
299.96262
299.99376
300.00005
300.00025
300.00002
299.99996
299.99996
299.99996
299.99996
299.99996
299.99996
299.99996
299.99996
299.99996
299.99996
299.99996
299.99996
299.99996
299.99996
299.99996
299.99996
299.99996
299.99996
299.99996
299.99996
299.99996
299.99996
299.99996
299.99997
299.99999
300.00001
300.00005
300.00009
340.29361
322.63052
310.59633
303.82176
300.82296
299.96613
299.89858
299.96096
299.9928
299.99986
300.00025
300.00002
299.99995
299.99995
299.99995
299.99995
299.99995
299.99995
299.99995
299.99995
299.99995
299.99995
299.99995
299.99995
299.99995
299.99995
299.99995
299.99995
299.99995
299.99995
299.99995
299.99995
299.99995
299.99995
299.99995
299.99996
299.99998
300.00001
300.00005
300.00009
340.27794
322.57736
310.53682
303.8393
300.8671
299.98825
299.9015
299.95916
299.9918
299.99966
300.00024
300.00002
299.99994
299.99993
299.99993
299.99993
299.99993
299.99993
299.99993
299.99993
299.99993
299.99993
299.99993
299.99993
299.99993
299.99993
299.99993
299.99993
299.99993
299.99993
299.99993
299.99993
299.99993
299.99994
299.99994
299.99995
299.99997
300
300.00006
300.00009
340.26152
322.52323
310.47647
303.84909
300.90653
300.0096
299.90469
299.95749
299.9908
299.99946
300.00024
300.00002
299.99993
299.99991
299.99992
299.99992
299.99992
299.99992
299.99992
299.99992
299.99992
299.99992
299.99992
299.99992
299.99992
299.99992
299.99992
299.99992
299.99992
299.99992
299.99992
299.99992
299.99992
299.99992
299.99993
299.99994
299.99996
300
300.00007
300.0001
340.2446
322.46442
310.41059
303.84974
300.94177
300.03166
299.90936
299.95647
299.98992
299.99925
300.00023
300.00002
299.99992
299.9999
299.9999
299.99991
299.99991
299.99991
299.99991
299.99991
299.99991
299.99991
299.99991
299.99991
299.99991
299.99991
299.99991
299.99991
299.99991
299.99991
299.99991
299.99991
299.99991
299.99991
299.99991
299.99993
299.99995
300
300.00007
300.0001
340.22798
322.40133
310.33618
303.83962
300.9729
300.05572
299.9168
299.95674
299.98934
299.99906
300.00022
300.00002
299.99992
299.9999
299.9999
299.9999
299.9999
299.9999
299.9999
299.99991
299.99991
299.99991
299.99991
299.99991
299.99991
299.99991
299.99991
299.99991
299.9999
299.9999
299.9999
299.9999
299.9999
299.9999
299.99991
299.99992
299.99995
300.00001
300.00008
300.0001
340.2126
322.33724
310.25337
303.81783
300.99946
300.08228
299.92783
299.95883
299.98922
299.9989
300.00019
300.00003
299.99992
299.99991
299.99991
299.99991
299.99991
299.99991
299.99991
299.99991
299.99991
299.99991
299.99991
299.99991
299.99991
299.99991
299.99991
299.99991
299.99991
299.99991
299.99991
299.99991
299.9999
299.9999
299.99991
299.99992
299.99996
300.00002
300.00008
300.0001
340.19924
322.27647
310.16544
303.785
301.0207
300.11075
299.94245
299.96291
299.98967
299.9988
300.00015
300.00003
299.99994
299.99992
299.99992
299.99992
299.99992
299.99992
299.99992
299.99993
299.99993
299.99993
299.99993
299.99993
299.99993
299.99993
299.99992
299.99992
299.99992
299.99992
299.99992
299.99992
299.99991
299.99991
299.99992
299.99993
299.99997
300.00003
300.00009
300.0001
340.18833
322.22285
310.07779
303.74348
301.03595
300.13955
299.95968
299.96871
299.99068
299.99879
300.00011
300.00004
299.99995
299.99994
299.99994
299.99994
299.99994
299.99994
299.99994
299.99994
299.99994
299.99994
299.99994
299.99994
299.99994
299.99994
299.99994
299.99994
299.99994
299.99994
299.99994
299.99993
299.99993
299.99993
299.99993
299.99995
299.99999
300.00005
300.00009
300.0001
340.17992
322.17869
309.99619
303.6969
301.04492
300.16662
299.97791
299.97558
299.99213
299.99885
300.00006
300.00004
299.99997
299.99996
299.99996
299.99996
299.99996
299.99996
299.99996
299.99996
299.99996
299.99996
299.99996
299.99996
299.99996
299.99996
299.99996
299.99996
299.99996
299.99996
299.99996
299.99995
299.99995
299.99995
299.99995
299.99997
300
300.00006
300.00009
300.0001
340.17379
322.14459
309.92528
303.64938
301.04795
300.19004
299.99534
299.98267
299.9938
299.99899
300.00002
300.00003
299.99999
299.99998
299.99998
299.99998
299.99998
299.99998
299.99998
299.99998
299.99998
299.99998
299.99998
299.99998
299.99998
299.99998
299.99998
299.99998
299.99998
299.99998
299.99998
299.99997
299.99997
299.99997
299.99997
299.99999
300.00002
300.00007
300.00009
300.0001
340.16955
322.11976
309.86759
303.60465
301.04601
300.20855
300.0105
299.98923
299.99547
299.99917
299.99999
300.00003
300
299.99999
299.99999
299.99999
300
300
300
300
300
300
300
300
300
300
300
300
299.99999
299.99999
299.99999
299.99999
299.99999
299.99999
299.99999
300
300.00003
300.00007
300.00009
300.0001
340.16673
322.10258
309.82346
303.56541
301.04051
300.22179
300.02255
299.99473
299.99696
299.99936
299.99998
300.00003
300.00001
300
300
300.00001
300.00001
300.00001
300.00001
300.00001
300.00001
300.00001
300.00001
300.00001
300.00001
300.00001
300.00001
300.00001
300.00001
300
300
300
300
300
300.00001
300.00002
300.00004
300.00007
300.00009
300.0001
340.16491
322.09111
309.79145
303.53305
301.03299
300.23023
300.03135
299.99896
299.99817
299.99955
299.99997
300.00002
300.00002
300.00001
300.00001
300.00001
300.00001
300.00001
300.00001
300.00001
300.00001
300.00001
300.00001
300.00001
300.00001
300.00001
300.00001
300.00001
300.00001
300.00001
300.00001
300.00001
300.00001
300.00001
300.00001
300.00002
300.00005
300.00007
300.00009
300.0001
340.16375
322.08356
309.76914
303.50775
301.02485
300.23484
300.03724
300.00197
299.99909
299.9997
299.99998
300.00002
300.00002
300.00002
300.00002
300.00002
300.00002
300.00002
300.00002
300.00002
300.00002
300.00002
300.00002
300.00002
300.00002
300.00002
300.00002
300.00002
300.00002
300.00002
300.00002
300.00001
300.00001
300.00002
300.00002
300.00003
300.00005
300.00007
300.00009
300.0001
340.16297
322.07849
309.75388
303.48877
301.01711
300.23679
300.04086
300.00396
299.99972
299.99982
299.99998
300.00002
300.00002
300.00002
300.00002
300.00002
300.00002
300.00002
300.00002
300.00002
300.00002
300.00002
300.00002
300.00002
300.00002
300.00002
300.00002
300.00002
300.00002
300.00002
300.00002
300.00002
300.00002
300.00002
300.00002
300.00003
300.00005
300.00007
300.00009
300.0001
340.16242
322.07489
309.74332
303.47488
301.0104
300.23714
300.04292
300.00519
300.00015
299.99991
299.99999
300.00001
300.00002
300.00002
300.00002
300.00002
300.00002
300.00002
300.00002
300.00002
300.00002
300.00002
300.00002
300.00002
300.00002
300.00002
300.00002
300.00002
300.00002
300.00002
300.00002
300.00002
300.00002
300.00002
300.00002
300.00003
300.00005
300.00007
300.00009
300.0001
340.16199
322.07211
309.73566
303.46477
301.00492
300.2367
300.04399
300.00593
300.00041
299.99997
300
300.00001
300.00002
300.00002
300.00002
300.00002
300.00002
300.00002
300.00002
300.00002
300.00001
300.00001
300.00001
300.00002
300.00002
300.00002
300.00002
300.00002
300.00002
300.00002
300.00002
300.00002
300.00002
300.00002
300.00002
300.00003
300.00005
300.00007
300.00009
300.0001
340.16162
322.0698
309.72972
303.45728
301.00062
300.236
300.04452
300.00636
300.00058
300.00001
300
300.00001
300.00001
300.00001
300.00001
300.00001
300.00001
300.00001
300.00001
300.00001
300.00001
300.00001
300.00001
300.00001
300.00001
300.00001
300.00001
300.00001
300.00001
300.00001
300.00001
300.00001
300.00001
300.00002
300.00002
300.00003
300.00005
300.00007
300.00009
300.0001
340.16128
322.06778
309.72482
303.45151
300.99731
300.23532
300.04479
300.00661
300.00068
300.00003
300.00001
300.00001
300.00001
300.00001
300.00001
300.00001
300.00001
300.00001
300.00001
300.00001
300.00001
300.00001
300.00001
300.00001
300.00001
300.00001
300.00001
300.00001
300.00001
300.00001
300.00001
300.00001
300.00001
300.00001
300.00002
300.00003
300.00004
300.00007
300.00009
300.0001
340.16098
322.06599
309.72061
303.44688
300.99474
300.23476
300.04494
300.00678
300.00075
300.00005
300.00001
300.00001
300.00001
300.00001
300.00001
300.00001
300.00001
300.00001
300.00001
300.00001
300.00001
300.00001
300.00001
300.00001
300.00001
300.00001
300.00001
300.00001
300.00001
300.00001
300.00001
300.00001
300.00001
300.00001
300.00002
300.00003
300.00004
300.00007
300.00009
300.0001
340.16071
322.06438
309.71691
303.44301
300.99271
300.23433
300.04506
300.00691
300.0008
300.00007
300.00001
300.00001
300.00001
300.00001
300.00001
300.00001
300.00001
300.00001
300.00001
300.00001
300.00001
300.00001
300.00001
300.00001
300.00001
300.00001
300.00001
300.00001
300.00001
300.00001
300.00001
300.00001
300.00001
300.00001
300.00002
300.00003
300.00004
300.00007
300.00009
300.0001
340.16046
322.06296
309.71368
303.43971
300.99106
300.23402
300.04517
300.00701
300.00084
300.00008
300.00001
300.00001
300.00001
300.00001
300.00001
300.00001
300.00001
300.00001
300.00001
300.00001
300.00001
300.00001
300.00001
300.00001
300.00001
300.00001
300.00001
300.00001
300.00001
300.00001
300.00001
300.00001
300.00001
300.00001
300.00002
300.00003
300.00004
300.00007
300.00009
300.0001
340.16023
322.06171
309.71085
303.43687
300.98968
300.23378
300.04528
300.0071
300.00087
300.00008
300.00001
300.00001
300.00001
300.00001
300.00001
300.00001
300.00001
300.00001
300.00001
300.00001
300.00001
300.00001
300.00001
300.00001
300.00001
300.00001
300.00001
300.00001
300.00001
300.00001
300.00001
300.00001
300.00001
300.00001
300.00002
300.00002
300.00004
300.00007
300.00009
300.0001
340.16004
322.06061
309.7084
303.43442
300.98852
300.23359
300.04537
300.00717
300.0009
300.00009
300.00001
300.00001
300.00001
300.00001
300.00001
300.00001
300.00001
300.00001
300.00001
300.00001
300.00001
300.00001
300.00001
300.00001
300.00001
300.00001
300.00001
300.00001
300.00001
300.00001
300.00001
300.00001
300.00001
300.00001
300.00002
300.00002
300.00004
300.00007
300.00009
300.0001
340.15986
322.05965
309.70629
303.43231
300.98752
300.23344
300.04545
300.00723
300.00092
300.0001
300.00002
300.00001
300.00001
300.00001
300.00001
300.00001
300.00001
300.00001
300.00001
300.00001
300.00001
300.00001
300.00001
300.00001
300.00001
300.00001
300.00001
300.00001
300.00001
300.00001
300.00001
300.00001
300.00001
300.00001
300.00002
300.00002
300.00004
300.00007
300.00009
300.0001
340.15971
322.05881
309.70446
303.4305
300.98666
300.2333
300.04552
300.00729
300.00094
300.0001
300.00002
300.00001
300.00001
300.00001
300.00001
300.00001
300.00001
300.00001
300.00001
300.00001
300.00001
300.00001
300.00001
300.00001
300.00001
300.00001
300.00001
300.00001
300.00001
300.00001
300.00001
300.00001
300.00001
300.00001
300.00002
300.00002
300.00004
300.00007
300.00009
300.0001
340.15958
322.05808
309.70288
303.42894
300.98593
300.23318
300.04557
300.00733
300.00096
300.00011
300.00002
300.00001
300.00001
300.00001
300.00001
300.00001
300.00001
300.00001
300.00001
300.00001
300.00001
300.00001
300.00001
300.00001
300.00001
300.00001
300.00001
300.00001
300.00001
300.00001
300.00001
300.00001
300.00001
300.00001
300.00002
300.00002
300.00004
300.00007
300.00009
300.0001
340.15946
322.05745
309.70152
303.42761
300.98529
300.23308
300.04562
300.00737
300.00097
300.00011
300.00002
300.00001
300.00001
300.00001
300.00001
300.00001
300.00001
300.00001
300.00001
300.00001
300.00001
300.00001
300.00001
300.00001
300.00001
300.00001
300.00001
300.00001
300.00001
300.00001
300.00001
300.00001
300.00001
300.00001
300.00001
300.00002
300.00004
300.00007
300.00009
300.0001
340.15937
322.0569
309.70034
303.42645
300.98475
300.23299
300.04566
300.0074
300.00099
300.00011
300.00002
300.00001
300.00001
300.00001
300.00001
300.00001
300.00001
300.00001
300.00001
300.00001
300.00001
300.00001
300.00001
300.00001
300.00001
300.00001
300.00001
300.00001
300.00001
300.00001
300.00001
300.00001
300.00001
300.00001
300.00001
300.00002
300.00004
300.00007
300.00009
300.00009
340.15928
322.05643
309.69932
303.42546
300.98428
300.23291
300.04569
300.00743
300.001
300.00011
300.00002
300.00001
300.00001
300.00001
300.00001
300.00001
300.00001
300.00001
300.00001
300.00001
300.00001
300.00001
300.00001
300.00001
300.00001
300.00001
300.00001
300.00001
300.00001
300.00001
300.00001
300.00001
300.00001
300.00001
300.00001
300.00002
300.00004
300.00007
300.00009
300.00009
340.15922
322.05602
309.69843
303.42459
300.98388
300.23284
300.04572
300.00745
300.001
300.00012
300.00002
300.00001
300.00001
300.00001
300.00001
300.00001
300.00001
300.00001
300.00001
300.00001
300.00001
300.00001
300.00001
300.00001
300.00001
300.00001
300.00001
300.00001
300.00001
300.00001
300.00001
300.00001
300.00001
300.00001
300.00001
300.00002
300.00004
300.00007
300.00009
300.00009
340.15916
322.05567
309.69766
303.42385
300.98353
300.23278
300.04574
300.00747
300.00101
300.00012
300.00002
300.00001
300.00001
300.00001
300.00001
300.00001
300.00001
300.00001
300.00001
300.00001
300.00001
300.00001
300.00001
300.00001
300.00001
300.00001
300.00001
300.00001
300.00001
300.00001
300.00001
300.00001
300.00001
300.00001
300.00001
300.00002
300.00004
300.00007
300.00009
300.00009
340.15912
322.05538
309.697
303.42321
300.98323
300.23273
300.04576
300.00749
300.00102
300.00012
300.00002
300.00001
300.00001
300.00001
300.00001
300.00001
300.00001
300.00001
300.00001
300.00001
300.00001
300.00001
300.00001
300.00001
300.00001
300.00001
300.00001
300.00001
300.00001
300.00001
300.00001
300.00001
300.00001
300.00001
300.00001
300.00002
300.00004
300.00007
300.00009
300.00009
340.1591
322.05514
309.69644
303.42265
300.98297
300.23269
300.04578
300.0075
300.00102
300.00012
300.00002
300.00001
300.00001
300.00001
300.00001
300.00001
300.00001
300.00001
300.00001
300.00001
300.00001
300.00001
300.00001
300.00001
300.00001
300.00001
300.00001
300.00001
300.00001
300.00001
300.00001
300.00001
300.00001
300.00001
300.00001
300.00002
300.00004
300.00007
300.00009
300.00009
340.15908
322.05495
309.69596
303.42217
300.98274
300.23265
300.04579
300.00751
300.00103
300.00012
300.00002
300.00001
300.00001
300.00001
300.00001
300.00001
300.00001
300.00001
300.00001
300.00001
300.00001
300.00001
300.00001
300.00001
300.00001
300.00001
300.00001
300.00001
300.00001
300.00001
300.00001
300.00001
300.00001
300.00001
300.00001
300.00002
300.00004
300.00007
300.00009
300.00009
340.15908
322.0548
309.69555
303.42176
300.98255
300.23262
300.04581
300.00752
300.00103
300.00012
300.00002
300.00001
300.00001
300.00001
300.00001
300.00001
300.00001
300.00001
300.00001
300.00001
300.00001
300.00001
300.00001
300.00001
300.00001
300.00001
300.00001
300.00001
300.00001
300.00001
300.00001
300.00001
300.00001
300.00001
300.00001
300.00002
300.00004
300.00007
300.00009
300.00009
340.15909
322.05469
309.69522
303.42141
300.98238
300.23259
300.04582
300.00753
300.00103
300.00012
300.00002
300.00001
300.00001
300.00001
300.00001
300.00001
300.00001
300.00001
300.00001
300.00001
300.00001
300.00001
300.00001
300.00001
300.00001
300.00001
300.00001
300.00001
300.00001
300.00001
300.00001
300.00001
300.00001
300.00001
300.00001
300.00002
300.00004
300.00007
300.00009
300.00009
340.15911
322.05463
309.69495
303.42111
300.98224
300.23257
300.04583
300.00754
300.00104
300.00012
300.00002
300.00001
300.00001
300.00001
300.00001
300.00001
300.00001
300.00001
300.00001
300.00001
300.00001
300.00001
300.00001
300.00001
300.00001
300.00001
300.00001
300.00001
300.00001
300.00001
300.00001
300.00001
300.00001
300.00001
300.00001
300.00002
300.00004
300.00007
300.00009
300.00009
340.15915
322.05461
309.69473
303.42086
300.98212
300.23255
300.04584
300.00755
300.00104
300.00012
300.00002
300.00001
300.00001
300.00001
300.00001
300.00001
300.00001
300.00001
300.00001
300.00001
300.00001
300.00001
300.00001
300.00001
300.00001
300.00001
300.00001
300.00001
300.00001
300.00001
300.00001
300.00001
300.00001
300.00001
300.00001
300.00002
300.00004
300.00007
300.00009
300.00009
340.1592
322.05462
309.69458
303.42066
300.98201
300.23253
300.04584
300.00755
300.00104
300.00012
300.00002
300.00001
300.00001
300.00001
300.00001
300.00001
300.00001
300.00001
300.00001
300.00001
300.00001
300.00001
300.00001
300.00001
300.00001
300.00001
300.00001
300.00001
300.00001
300.00001
300.00001
300.00001
300.00001
300.00001
300.00001
300.00002
300.00004
300.00007
300.00009
300.00009
340.15926
322.05468
309.69448
303.4205
300.98193
300.23252
300.04585
300.00756
300.00104
300.00012
300.00002
300.00001
300.00001
300.00001
300.00001
300.00001
300.00001
300.00001
300.00001
300.00001
300.00001
300.00001
300.00001
300.00001
300.00001
300.00001
300.00001
300.00001
300.00001
300.00001
300.00001
300.00001
300.00001
300.00001
300.00001
300.00002
300.00004
300.00007
300.00009
300.00009
340.15934
322.05478
309.69443
303.42038
300.98186
300.2325
300.04585
300.00756
300.00104
300.00012
300.00002
300.00001
300.00001
300.00001
300.00001
300.00001
300.00001
300.00001
300.00001
300.00001
300.00001
300.00001
300.00001
300.00001
300.00001
300.00001
300.00001
300.00001
300.00001
300.00001
300.00001
300.00001
300.00001
300.00001
300.00001
300.00002
300.00004
300.00007
300.00009
300.00009
340.15944
322.05491
309.69443
303.42029
300.98181
300.2325
300.04586
300.00757
300.00105
300.00012
300.00002
300.00001
300.00001
300.00001
300.00001
300.00001
300.00001
300.00001
300.00001
300.00001
300.00001
300.00001
300.00001
300.00001
300.00001
300.00001
300.00001
300.00001
300.00001
300.00001