/*--------------------------------*- C++ -*----------------------------------*\
  =========                 |
  \\      /  F ield         | OpenFOAM: The Open Source CFD Toolbox
   \\    /   O peration     | Website:  https://openfoam.org
    \\  /    A nd           | Version:  10
     \\/     M anipulation  |
\*---------------------------------------------------------------------------*/
FoamFile
{
    format      ascii;
    class       volScalarField;
    location    "0.08";
    object      TporMedia_0;
}
// * * * * * * * * * * * * * * * * * * * * * * * * * * * * * * * * * * * * * //

dimensions      [0 0 0 1 0 0 0];

internalField   nonuniform List<scalar> 
4000
(
-2.1207004e-06
1.1205747e-06
-6.3704964e-05
-5.3287468e-05
-8.3366405e-05
-7.4266505e-05
-7.8460946e-05
-7.4217729e-05
-7.5697878e-05
-7.3055668e-05
-7.0530232e-05
-7.5810825e-05
-7.0589799e-05
-7.0573821e-05
-7.0581054e-05
-7.5018613e-05
-7.0735643e-05
-6.8536941e-05
-7.3231274e-05
-6.8163991e-05
-7.4055046e-05
-7.0419388e-05
-7.074068e-05
-7.0524133e-05
-7.043347e-05
-7.413537e-05
-7.1948708e-05
-7.8938808e-05
-7.3794173e-05
-7.66955e-05
-7.8211087e-05
-7.7075652e-05
-7.866662e-05
-7.7486567e-05
-8.407006e-05
-8.1696166e-05
-7.9240352e-05
-8.7258654e-05
-8.595252e-05
-9.1814602e-05
-1.9585431e-07
6.6456897e-16
-1.2141421e-13
2.0501355e-12
6.2685955e-12
1.0546511e-11
9.7887145e-12
9.5473275e-12
9.5762159e-12
8.4873891e-12
8.9105711e-12
8.8869755e-12
8.7228525e-12
8.4254159e-12
8.3605451e-12
8.6999886e-12
8.3355368e-12
8.1069914e-12
8.7666317e-12
7.9594533e-12
9.2090571e-12
8.4381606e-12
8.3706743e-12
8.2489631e-12
8.7375017e-12
9.0839184e-12
8.6679359e-12
9.7257027e-12
9.1167728e-12
9.9925881e-12
9.8956176e-12
1.0638817e-11
1.0105741e-11
1.0534767e-11
1.0747523e-11
1.2092536e-11
1.1060536e-11
1.2318312e-11
1.1551854e-11
1.3597374e-11
-7.8956334e-08
-1.9046349e-16
-6.4593933e-23
1.5690497e-20
-1.3625543e-19
-9.5554223e-19
-1.1824978e-18
-1.1068859e-18
-1.1551523e-18
-9.7868733e-19
-1.0213042e-18
-9.8832766e-19
-1.0555387e-18
-9.8689008e-19
-9.7377124e-19
-1.002947e-18
-9.1709524e-19
-8.802195e-19
-9.808317e-19
-8.5589307e-19
-1.0789094e-18
-9.3710723e-19
-9.7266158e-19
-9.3668158e-19
-1.0063186e-18
-1.0178277e-18
-1.0731267e-18
-1.200199e-18
-1.0565096e-18
-1.2902545e-18
-1.1977717e-18
-1.3527507e-18
-1.375726e-18
-1.3572296e-18
-1.3915688e-18
-1.5471528e-18
-1.5047346e-18
-1.75425e-18
-1.7041269e-18
-1.9451522e-18
-4.2191393e-08
1.061898e-17
2.9036865e-27
1.9736391e-29
1.6834146e-27
3.1481482e-26
1.4090605e-25
1.3645397e-25
1.4932021e-25
1.1233328e-25
1.1862486e-25
1.054292e-25
1.1530628e-25
1.1225693e-25
1.0977752e-25
1.0868419e-25
1.0506111e-25
1.027319e-25
1.1098502e-25
9.5139574e-26
1.2397311e-25
1.0051741e-25
1.1071646e-25
1.0471996e-25
1.1760321e-25
1.2011787e-25
1.2664824e-25
1.316543e-25
1.2000108e-25
1.4323591e-25
1.4573159e-25
1.5505558e-25
1.6102841e-25
1.7198159e-25
1.8004303e-25
2.0632428e-25
1.8953004e-25
2.3540025e-25
2.2645021e-25
2.5251546e-25
-2.6347651e-08
2.0357871e-18
4.2310061e-28
1.9483911e-37
-6.3090665e-34
-4.019969e-34
-1.1046484e-32
-1.6664789e-32
-1.6560165e-32
-1.2344799e-32
-1.4255386e-32
-1.1291287e-32
-1.2805117e-32
-1.2061224e-32
-1.181004e-32
-1.1555646e-32
-1.0893343e-32
-1.10972e-32
-1.2130913e-32
-1.0358931e-32
-1.3533155e-32
-1.0900099e-32
-1.1865005e-32
-1.1125545e-32
-1.2143553e-32
-1.2399382e-32
-1.4273042e-32
-1.5156451e-32
-1.2719066e-32
-1.6764891e-32
-1.6307719e-32
-1.8595231e-32
-1.9376132e-32
-1.9817725e-32
-2.063798e-32
-2.6471485e-32
-2.4257092e-32
-3.1908021e-32
-3.0382748e-32
-3.3992466e-32
-1.8172472e-08
6.6712747e-19
1.6783829e-28
3.6094462e-38
-1.5895709e-42
2.6454936e-42
3.5799355e-40
2.0603753e-39
1.8643583e-39
1.3970736e-39
1.4930697e-39
1.1935911e-39
1.3416417e-39
1.247665e-39
1.2209154e-39
1.2216528e-39
1.1861257e-39
1.1557458e-39
1.2962885e-39
1.0648242e-39
1.3419376e-39
1.2014359e-39
1.3028301e-39
1.1179708e-39
1.3025606e-39
1.279605e-39
1.523382e-39
1.5911426e-39
1.3970237e-39
1.8798614e-39
1.8400998e-39
2.152629e-39
2.3141343e-39
2.3874964e-39
2.4832417e-39
3.0680544e-39
3.0830625e-39
3.8912474e-39
3.7554558e-39
4.2217646e-39
-1.3415954e-08
2.8365565e-19
-1.1085065e-27
-1.4422856e-37
-1.0492643e-46
-1.2646517e-50
-4.8258955e-48
-1.9492808e-46
-2.1296357e-46
-1.4596822e-46
-1.5406396e-46
-1.220998e-46
-1.3188833e-46
-1.19878e-46
-1.2325154e-46
-1.2342773e-46
-1.1348155e-46
-1.1287392e-46
-1.32481e-46
-1.0428437e-46
-1.303512e-46
-1.2192265e-46
-1.2891783e-46
-1.1732325e-46
-1.334733e-46
-1.2891555e-46
-1.5609718e-46
-1.6688867e-46
-1.365156e-46
-2.1279887e-46
-1.9794534e-46
-2.2195248e-46
-2.7242791e-46
-2.6746961e-46
-2.8379315e-46
-3.8467347e-46
-3.6072377e-46
-4.7017021e-46
-4.7143089e-46
-5.17967e-46
-1.0374056e-08
1.413132e-19
-1.5404795e-29
-1.4209075e-39
-4.4988777e-49
2.9292686e-57
3.2334032e-56
1.0444944e-53
2.7288746e-53
1.5159516e-53
1.5960897e-53
1.2406711e-53
1.2519534e-53
1.1464418e-53
1.1591503e-53
1.2190155e-53
1.0746669e-53
1.1008943e-53
1.2783268e-53
1.0259279e-53
1.2603983e-53
1.2415828e-53
1.244424e-53
1.1071364e-53
1.2750236e-53
1.2901347e-53
1.5972922e-53
1.6091719e-53
1.3481275e-53
2.1993117e-53
2.0381392e-53
2.3027529e-53
2.8527905e-53
2.8942537e-53
3.2378082e-53
4.2431327e-53
4.70611e-53
5.3729625e-53
5.5515273e-53
5.9555529e-53
-8.2529881e-09
7.7890228e-20
-3.2531315e-30
-2.4362793e-40
-4.1305647e-50
-3.0398207e-58
-1.2540565e-64
-2.5566198e-61
-3.7957342e-60
-1.6128401e-60
-1.4392432e-60
-1.1675697e-60
-1.1714188e-60
-1.0879413e-60
-1.0842936e-60
-1.1206106e-60
-1.007582e-60
-1.0185902e-60
-1.1672871e-60
-9.8272539e-61
-1.147376e-60
-1.0786512e-60
-1.1931483e-60
-1.0316638e-60
-1.2334201e-60
-1.2620649e-60
-1.5994554e-60
-1.6131599e-60
-1.2790548e-60
-2.2562201e-60
-2.0251549e-60
-2.1964615e-60
-2.992579e-60
-2.8283788e-60
-3.6325624e-60
-4.7857532e-60
-5.3396907e-60
-6.3635969e-60
-6.4605501e-60
-6.5390327e-60
-6.6485745e-09
4.56723e-20
-1.0001688e-30
-6.9874801e-41
-7.2572834e-51
-8.6680981e-60
2.3377322e-68
3.0125308e-69
4.5701587e-67
1.7467207e-67
1.3444229e-67
1.120712e-67
1.0616968e-67
9.8350635e-68
9.9484232e-68
9.8772065e-68
8.783956e-68
9.1830464e-68
1.0141784e-67
8.8203277e-68
1.0291969e-67
1.0071493e-67
1.0303719e-67
9.7539443e-68
1.1260921e-67
1.1683342e-67
1.4277109e-67
1.4225187e-67
1.1834166e-67
2.2059e-67
2.0643056e-67
2.0487151e-67
3.0206042e-67
2.9025506e-67
3.8836647e-67
4.9846656e-67
5.8785779e-67
6.9393656e-67
6.9566631e-67
6.5032409e-67
-5.3538948e-09
2.7694128e-20
-3.6700233e-31
-2.8834384e-41
-2.0224498e-51
-9.5313562e-61
2.1033921e-69
-3.2355306e-77
-3.1799739e-74
-2.173636e-74
-1.234111e-74
-9.9992917e-75
-9.6605787e-75
-8.4042591e-75
-8.8065234e-75
-8.4885797e-75
-7.638968e-75
-7.6942722e-75
-8.8770954e-75
-7.5629331e-75
-8.8283984e-75
-8.9207126e-75
-8.4666508e-75
-8.8308074e-75
-9.4703782e-75
-1.0081327e-74
-1.2630954e-74
-1.2609086e-74
-1.0966911e-74
-2.0944239e-74
-1.8551629e-74
-1.9727575e-74
-2.7575036e-74
-2.7178132e-74
-3.8670036e-74
-5.3717281e-74
-6.1338088e-74
-7.7888325e-74
-6.9675723e-74
-6.1495324e-74
-4.2683575e-09
1.7014975e-20
-1.4848627e-31
-1.9737387e-41
-1.0083676e-51
-2.4252227e-61
5.5549491e-70
-2.1180528e-78
1.1071502e-81
2.9656664e-81
1.1377725e-81
8.5385572e-82
8.1448351e-82
7.4073765e-82
7.1700318e-82
7.1051538e-82
6.3174613e-82
6.3004103e-82
7.2812923e-82
6.4082821e-82
7.3698137e-82
7.5633479e-82
7.0567983e-82
7.438795e-82
7.8571511e-82
8.3913584e-82
1.0763355e-81
1.0953286e-81
9.6746197e-82
1.7664374e-81
1.6492157e-81
1.6667278e-81
2.6045159e-81
2.4812276e-81
3.8487069e-81
5.4345498e-81
6.3039807e-81
8.1427851e-81
6.6584921e-81
5.2430752e-81
-3.3363634e-09
1.0404785e-20
-6.3227669e-32
2.573672e-41
1.0191379e-51
1.4376621e-61
-6.0856335e-70
1.5395724e-78
-2.7491036e-86
-4.758668e-88
-1.0330402e-88
-6.8877688e-89
-6.3935109e-89
-6.1123686e-89
-5.676885e-89
-5.5085716e-89
-5.0050175e-89
-4.9057111e-89
-5.9232208e-89
-4.9276e-89
-5.8837269e-89
-5.9038479e-89
-5.5140609e-89
-5.7573453e-89
-6.4112386e-89
-6.8483337e-89
-8.8064177e-89
-9.2373996e-89
-8.0943394e-89
-1.4635192e-88
-1.391396e-88
-1.4756376e-88
-2.1498682e-88
-2.1988806e-88
-3.6118506e-88
-5.0124346e-88
-6.0747117e-88
-7.6046612e-88
-6.1463479e-88
-4.0481882e-88
-2.5319356e-09
6.2279906e-21
-2.7405944e-32
1.4833328e-42
4.8063881e-53
4.3577272e-63
1.7498858e-71
-3.2113145e-80
3.1613982e-88
2.2125445e-95
1.0423811e-95
5.5279348e-96
4.8055735e-96
4.6655461e-96
4.4110293e-96
4.2512135e-96
3.9072577e-96
3.7223415e-96
4.4662563e-96
3.7076677e-96
4.4138102e-96
4.4351155e-96
4.1135869e-96
4.4307111e-96
4.7283641e-96
5.4934238e-96
6.7361528e-96
7.2161509e-96
6.5755665e-96
1.2335766e-95
1.1235422e-95
1.2554979e-95
1.7709389e-95
1.9336726e-95
3.2159827e-95
4.5425122e-95
5.7853497e-95
6.8408461e-95
5.3615569e-95
2.3414246e-95
-1.8678888e-09
3.6316252e-21
-1.1903515e-32
2.8383058e-43
7.9131048e-54
4.9297589e-64
4.3486416e-73
-6.3100422e-82
3.7212093e-90
-3.1414266e-97
-1.0983112e-102
-4.3166783e-103
-3.6143097e-103
-3.3832491e-103
-3.3190232e-103
-3.0867016e-103
-2.979312e-103
-2.6713284e-103
-3.244903e-103
-2.6177194e-103
-3.2192218e-103
-3.1959427e-103
-3.0945662e-103
-3.2908432e-103
-3.5604746e-103
-4.0550539e-103
-5.1126625e-103
-5.434588e-103
-4.9910664e-103
-9.3588017e-103
-8.9054951e-103
-9.6893819e-103
-1.4302719e-102
-1.6264736e-102
-2.9197127e-102
-3.8732979e-102
-5.1261072e-102
-5.6394078e-102
-3.915372e-102
-8.9597482e-103
-1.3660687e-09
2.094791e-21
-5.2193924e-33
7.0120411e-44
1.7688351e-54
7.9752346e-65
3.1432875e-74
-3.9419e-83
1.5018139e-91
-6.6534873e-99
8.2831696e-106
3.2622742e-110
2.5536804e-110
2.3975941e-110
2.3088849e-110
2.150884e-110
2.0113029e-110
1.8833034e-110
2.316053e-110
1.8657811e-110
2.2183382e-110
2.3379496e-110
2.1518394e-110
2.3269428e-110
2.5551568e-110
2.908771e-110
3.6416068e-110
4.0240386e-110
3.6365037e-110
6.7193853e-110
6.3306156e-110
7.6389345e-110
1.0623219e-109
1.3424157e-109
2.4111288e-109
3.3163282e-109
4.1684787e-109
4.3378251e-109
2.5394714e-109
2.4845617e-110
-1.0172181e-09
1.226192e-21
-2.3560683e-33
1.9996173e-44
4.824529e-55
1.6422018e-65
3.5883373e-75
-4.3402725e-84
1.1423729e-92
-2.7747674e-100
3.7578542e-107
-2.9263982e-114
-1.7320217e-117
-1.6445754e-117
-1.5914957e-117
-1.4166308e-117
-1.374634e-117
-1.2855893e-117
-1.5610437e-117
-1.2338882e-117
-1.5755972e-117
-1.5457651e-117
-1.4443044e-117
-1.5893848e-117
-1.6864373e-117
-1.9846148e-117
-2.4632243e-117
-2.7862264e-117
-2.5448797e-117
-4.5766503e-117
-4.6016744e-117
-5.5080743e-117
-7.5693192e-117
-1.0511681e-116
-1.9319195e-116
-2.624252e-116
-3.0374873e-116
-3.0179425e-116
-1.3211762e-116
-6.4499415e-118
-7.8536171e-10
7.4331115e-22
-1.1126309e-33
6.3807432e-45
1.5784132e-55
4.2038462e-66
5.7102679e-76
-7.8762429e-85
1.521652e-93
-2.1361512e-101
2.8162375e-108
-2.2267012e-115
1.4179122e-122
1.068737e-124
1.0264407e-124
9.2507485e-125
8.697596e-125
8.4287843e-125
1.030789e-124
7.9354329e-125
1.010933e-124
9.489431e-125
9.5452935e-125
1.0206153e-124
1.0423727e-124
1.2433758e-124
1.6055645e-124
1.7830276e-124
1.6185481e-124
3.0925503e-124
3.1265783e-124
3.7002627e-124
5.1404024e-124
7.5393346e-124
1.39785e-123
1.9736976e-123
2.0753571e-123
1.9348706e-123
6.2058153e-124
2.5077207e-125
-6.3169451e-10
4.707372e-22
-5.5312174e-34
2.240845e-45
6.3007306e-56
1.3546383e-66
1.233017e-76
-2.8360544e-85
4.2467476e-94
-3.7884391e-102
3.9539807e-109
-3.0787699e-116
1.9758187e-123
-1.2562407e-130
-6.347712e-132
-5.5642468e-132
-5.1860345e-132
-5.1245371e-132
-6.0922837e-132
-4.7350728e-132
-6.0917762e-132
-5.7382429e-132
-5.6470098e-132
-6.1164775e-132
-6.2893003e-132
-7.5517656e-132
-1.0005974e-131
-1.0959783e-131
-1.0168469e-131
-1.9070812e-131
-1.9207814e-131
-2.4058774e-131
-3.4749427e-131
-5.0361831e-131
-9.6440575e-131
-1.4019041e-130
-1.3192825e-130
-1.0722445e-130
-2.9257412e-131
1.8425492e-131
-5.2688079e-10
3.1124462e-22
-2.8901562e-34
8.5392141e-46
3.3227047e-56
5.9301858e-67
3.8191273e-77
3.4717859e-85
-4.2453644e-94
2.5225978e-102
-1.7817055e-109
1.3730968e-116
-8.0467503e-124
4.6929701e-131
-2.2875586e-138
3.2411235e-139
2.8536157e-139
2.919073e-139
3.397452e-139
2.7356279e-139
3.4729493e-139
3.3037304e-139
3.3341951e-139
3.5097435e-139
3.5891524e-139
4.3061102e-139
5.8472035e-139
6.4084375e-139
6.1971697e-139
1.0935381e-138
1.1216957e-138
1.4157122e-138
2.1302533e-138
3.2506721e-138
6.1800313e-138
8.743815e-138
7.7452106e-138
5.4379098e-138
1.648849e-138
6.6841754e-139
-4.5212175e-10
2.1381399e-22
-1.5801357e-34
3.489919e-46
3.6572593e-56
5.5587291e-67
2.6423184e-77
2.7148349e-86
-2.8536781e-95
1.1911567e-103
-5.2988142e-111
4.126886e-118
-2.4163292e-125
1.2902796e-132
-7.0491877e-140
-1.4112046e-146
-1.5669819e-146
-1.575644e-146
-1.8388283e-146
-1.4612609e-146
-1.9313253e-146
-1.8046413e-146
-1.8240902e-146
-1.9520843e-146
-1.948797e-146
-2.4080693e-146
-3.1652273e-146
-3.5113338e-146
-3.4346878e-146
-5.9459737e-146
-6.3072275e-146
-7.9712563e-146
-1.2280865e-145
-1.9128624e-145
-3.7703683e-145
-4.9967632e-145
-3.9702384e-145
-2.5715773e-145
-1.2007161e-145
1.5264357e-146
-3.9650722e-10
1.5195428e-22
-9.0111595e-35
1.5189016e-46
-1.0648679e-56
-1.4121226e-67
-5.1314291e-78
-2.3157196e-87
2.2140611e-96
-6.838953e-105
1.9619796e-112
-1.6247558e-119
9.1226319e-127
-4.9730901e-134
2.6889245e-141
-1.4036926e-148
8.6954724e-154
8.1957529e-154
9.6292155e-154
7.6896377e-154
1.0192487e-153
9.3257638e-154
9.5418094e-154
1.020511e-153
1.0119116e-153
1.2721373e-153
1.6740202e-153
1.8278503e-153
1.8356169e-153
3.1946851e-153
3.3915982e-153
4.3282167e-153
6.767273e-153
1.0925871e-152
2.1400193e-152
2.7736369e-152
1.889097e-152
1.0943257e-152
1.1649438e-152
3.2258706e-154
-3.5411754e-10
1.1156653e-22
-5.361935e-35
7.0278477e-47
-1.4912401e-57
-1.7686447e-68
-5.0700394e-79
-1.3059611e-88
1.2112554e-97
-2.9019862e-106
5.4483747e-114
-4.2216e-121
2.4346548e-128
-1.2400745e-135
6.2542535e-143
-3.1050071e-150
1.5471817e-157
-4.1761844e-161
-4.7615285e-161
-3.8239671e-161
-4.9745798e-161
-4.676855e-161
-4.7194327e-161
-5.0793833e-161
-4.9669205e-161
-6.4767014e-161
-8.3141171e-161
-9.3888645e-161
-9.3632702e-161
-1.6628331e-160
-1.7439342e-160
-2.3073418e-160
-3.5941892e-160
-5.9618033e-160
-1.2021021e-159
-1.4214303e-159
-7.9685822e-160
-4.6002612e-160
-1.6379601e-159
7.6948908e-162
-3.2179209e-10
8.4740535e-23
-3.3401705e-35
3.4654832e-47
-3.8292824e-58
-4.1765528e-69
-9.7366437e-80
-1.6271403e-89
1.5981628e-98
-3.1039578e-107
4.0507814e-115
-2.6179877e-122
1.3635469e-129
-6.2699713e-137
2.8628389e-144
-1.3213538e-151
5.8230337e-159
-2.5795368e-166
2.1161867e-168
1.7391749e-168
2.2223607e-168
2.1184268e-168
2.0921495e-168
2.245698e-168
2.2089007e-168
2.837305e-168
3.7984146e-168
4.2182757e-168
4.3185076e-168
7.6886168e-168
8.2224794e-168
1.0849219e-167
1.7897212e-167
3.06964e-167
6.4094631e-167
6.6996867e-167
3.1752574e-167
1.8131557e-167
3.1028723e-166
2.3066385e-169
-2.9772879e-10
6.6765559e-23
-2.1885733e-35
1.8293724e-47
-1.2552753e-58
-1.3015161e-69
-2.5436601e-80
-2.9929468e-90
3.5761698e-99
-5.8814608e-108
5.4659893e-116
-2.5621081e-123
1.0934735e-130
-4.2086694e-138
1.597862e-145
-6.0872062e-153
2.2803192e-160
-8.4661041e-168
2.3409136e-175
-6.4452411e-176
-8.1846994e-176
-7.7916079e-176
-7.9200872e-176
-8.2712034e-176
-8.2815151e-176
-1.0766456e-175
-1.4231058e-175
-1.6341009e-175
-1.6634276e-175
-3.0500691e-175
-3.342607e-175
-4.4852258e-175
-7.6893343e-175
-1.3660696e-174
-2.9927832e-174
-2.8933585e-174
-1.1472375e-174
-6.8245807e-175
-9.5588209e-173
8.0376295e-177
-2.8077727e-10
5.4724089e-23
-1.5155289e-35
1.038908e-47
-4.8615694e-59
-4.9815986e-70
-8.4001404e-81
-7.3725584e-91
1.4484847e-99
-2.112321e-108
1.468905e-116
-4.7786826e-124
1.7234976e-131
-5.6173157e-139
1.7631091e-146
-5.5394127e-154
1.7401252e-161
-5.3752559e-169
1.6667908e-176
1.4772365e-183
2.5250316e-183
2.4061126e-183
2.4642939e-183
2.5438222e-183
2.606835e-183
3.3988072e-183
4.4617411e-183
5.2500488e-183
5.2870688e-183
1.0064175e-182
1.1121156e-182
1.543666e-182
2.721202e-182
5.0940506e-182
1.1683532e-181
1.0404179e-181
3.586917e-182
2.3309102e-182
8.8864035e-179
3.1677256e-184
-2.7013515e-10
4.679137e-23
-1.1140675e-35
6.3781462e-48
-2.1680355e-59
-2.2894648e-70
-3.409554e-81
-2.3245711e-91
1.2404702e-98
-1.6663507e-107
9.0211283e-116
-2.2351123e-123
6.944821e-131
-1.9931059e-138
5.693979e-146
-1.6311167e-153
4.5924672e-161
-1.2918861e-168
3.7000729e-176
-1.066955e-183
-4.2250754e-191
-6.8913671e-191
-7.0774498e-191
-7.4082776e-191
-7.4333368e-191
-9.8130109e-191
-1.2752532e-190
-1.5165558e-190
-1.5378023e-190
-2.8694229e-190
-3.2776719e-190
-4.4978591e-190
-8.0662545e-190
-1.583221e-189
-3.666779e-189
-3.1122825e-189
-9.8301242e-190
-1.3347626e-189
-6.6026184e-185
9.7075051e-192
-2.6517859e-10
4.1834772e-23
-8.7285908e-36
4.2524125e-48
-1.1029343e-59
-1.2492474e-70
-1.6667925e-81
-9.0623187e-92
-1.411505e-100
1.8054407e-109
-8.0562779e-118
1.7557474e-125
-6.1047267e-133
1.9533468e-140
-6.2978907e-148
2.0380978e-155
-6.6691168e-163
2.2112443e-170
-7.3401371e-178
2.4460725e-185
-8.2125986e-193
2.3312468e-198
2.362007e-198
2.4551475e-198
2.4319338e-198
3.2424772e-198
4.0087269e-198
4.8043458e-198
4.7636369e-198
8.9560324e-198
9.8006874e-198
1.3383583e-197
2.3282138e-197
4.6609125e-197
1.0130957e-196
8.1082851e-197
2.3701486e-197
-5.7240727e-196
1.6106098e-191
1.0003422e-198
-2.6528738e-10
3.9153404e-23
-7.3089706e-36
3.0895182e-48
-6.3715409e-60
-8.017606e-71
-9.6441276e-82
-4.2562477e-92
-2.8779036e-101
3.6196296e-110
-1.3855484e-118
3.2031513e-126
-1.91538e-133
1.0910426e-140
-6.083103e-148
3.3819543e-155
-2.0021037e-162
1.2144186e-169
-8.5140746e-177
1.7538778e-184
-1.5062523e-190
-4.7556085e-197
-2.2226918e-203
-1.5001854e-205
-1.4649759e-205
-1.888792e-205
-2.1403016e-205
-2.5144464e-205
-2.3300274e-205
-4.2348664e-205
-4.3422919e-205
-5.4177572e-205
-8.8579703e-205
-1.6223041e-204
-3.0569637e-204
-2.0802913e-204
-5.7862353e-205
3.5915208e-202
-1.2962878e-198
-1.0577292e-206
-2.6963626e-10
3.8294675e-23
-6.5396757e-36
2.4473261e-48
-4.1552294e-60
-6.053871e-71
-6.610316e-82
-2.4149669e-92
-9.7359117e-102
1.2526693e-110
-4.302684e-119
1.2503989e-126
8.0032857e-133
6.0971358e-139
4.1248797e-145
1.9486576e-151
7.674648e-158
3.8730242e-164
1.4957568e-170
4.802705e-177
1.8356833e-183
7.6869559e-190
3.5084244e-196
3.0021567e-202
1.6551797e-208
-2.9361361e-211
-5.5271941e-210
3.2972715e-211
1.2461049e-211
1.3090319e-211
7.8154916e-212
7.412516e-212
8.5647812e-212
1.1606035e-211
1.4567757e-211
7.0695289e-212
1.7193406e-212
-5.7468882e-209
5.8480874e-206
1.6291176e-213
-2.7699952e-10
3.8910348e-23
-6.220299e-36
2.103996e-48
-3.025637e-60
-5.6083056e-71
-5.6837849e-82
-1.7777393e-92
-4.9499943e-102
7.0320623e-111
-2.2633831e-119
7.9351785e-127
4.9019931e-134
3.1883735e-141
2.3023892e-148
1.7723927e-155
1.3607151e-162
1.0567989e-169
1.0586215e-176
1.1734648e-183
2.7814409e-190
8.939787e-197
4.1644375e-203
3.2196053e-209
1.9309787e-215
-2.7515463e-218
-1.7845393e-216
2.8198004e-218
1.2043916e-218
1.2763454e-218
7.4120868e-219
8.4595997e-219
1.0447455e-218
2.2671927e-218
-1.2541291e-217
-5.5834591e-219
-8.8332649e-220
5.2328418e-216
-1.9956033e-213
-1.1260255e-221
-2.8568271e-10
4.0627687e-23
-6.2183668e-36
1.9406954e-48
-2.4163921e-60
-7.8346235e-71
-7.7630997e-82
-2.2010559e-92
-4.7155134e-102
8.666103e-111
-2.7407843e-119
7.0076419e-127
9.8263027e-134
1.8391874e-140
9.1245387e-147
-1.1099706e-151
6.6050369e-158
-2.1527757e-164
5.7671712e-171
-1.1173321e-177
2.0101771e-184
-4.0137364e-191
6.8193672e-198
-1.1391384e-204
2.0397124e-211
-4.8047153e-218
6.1266486e-223
-2.5422427e-224
3.3778933e-224
6.3678268e-225
1.7380222e-225
1.0442548e-225
9.1499407e-226
1.6262371e-225
-9.7019554e-225
-1.503696e-225
8.0340573e-227
-2.3828987e-223
6.5457205e-221
1.5575993e-228
-2.9373933e-10
4.2945465e-23
-6.4207828e-36
1.8848605e-48
-2.0664515e-60
3.3105082e-70
3.5231487e-81
9.8687041e-92
1.800342e-101
-6.7490632e-110
2.2874899e-118
-2.9004036e-126
7.3615153e-134
-1.7371537e-141
3.6369795e-149
-6.9905207e-157
1.1679488e-164
1.7367809e-172
-1.0241861e-178
2.0483037e-185
-3.6935319e-192
7.2035257e-199
-1.2539321e-205
2.1354368e-212
-3.9682904e-219
9.4120531e-226
-1.3582008e-230
5.9412527e-232
-7.0902244e-232
-1.6053791e-232
-4.722798e-233
-4.0856024e-233
-5.567433e-233
-3.310754e-232
-3.2126628e-231
-7.0638863e-231
-3.9024481e-234
5.2795099e-231
-2.9369802e-228
-3.6428927e-236
-2.9951065e-10
4.5217136e-23
-6.7045097e-36
1.8814515e-48
-1.8414257e-60
3.063916e-71
4.0855777e-82
1.2739141e-92
2.1971952e-102
1.6374244e-110
-6.9680778e-119
4.8217211e-127
-3.855e-135
2.9976128e-143
-2.2280316e-151
1.6055066e-159
-1.1307162e-167
7.8239897e-176
-5.3478406e-184
3.4771066e-192
1.4614045e-201
-4.8909472e-207
8.8853501e-214
-1.5205247e-220
2.8649858e-227
-6.8731997e-234
1.0016742e-238
-4.5201402e-240
5.6326634e-240
1.3506852e-240
4.455106e-241
4.1332692e-241
6.7054541e-241
5.2536293e-240
7.3713453e-239
1.8510832e-238
6.3395535e-242
-7.6430845e-239
9.8435104e-235
2.4753259e-242
-3.0224155e-10
4.6802534e-23
-6.9369857e-36
1.8819647e-48
-1.666195e-60
1.3138698e-71
2.8759956e-82
1.1669138e-92
2.0972922e-102
3.308675e-111
-2.6339238e-119
1.1954733e-127
-5.1364754e-136
2.1866222e-144
-9.1946144e-153
3.8104419e-161
-1.5610557e-169
6.3567661e-178
-2.5746048e-186
1.0423358e-194
-4.2225659e-203
1.7110134e-211
-7.0177752e-220
3.5048136e-228
-1.3314888e-235
2.938813e-242
-4.2781167e-247
1.9635042e-248
-2.5202094e-248
-6.2462498e-249
-2.1745908e-249
-2.1205248e-249
-3.6593045e-249
-3.4091658e-248
-5.792599e-247
-1.6215387e-246
-4.904525e-250
1.1482035e-245
4.1695421e-242
1.766222e-249
-3.0233138e-10
4.7352274e-23
-7.0136331e-36
1.8486614e-48
-1.5017735e-60
7.7286315e-72
5.5657967e-82
3.4795578e-92
6.7933065e-102
5.7172569e-111
2.2264234e-118
-7.9783909e-127
2.440864e-135
-7.518554e-144
2.3288327e-152
-7.1895022e-161
2.2209187e-169
-6.8561743e-178
2.1179541e-186
-6.5615539e-195
2.0379427e-203
-6.3613839e-212
1.9909335e-220
-6.2617283e-229
1.9816265e-237
-6.2927259e-246
2.1560329e-254
-6.3536709e-257
8.258678e-257
2.0757815e-257
7.4290327e-258
7.4051004e-258
1.3150392e-257
1.3454048e-256
2.5383422e-255
7.7337332e-255
2.4241379e-258
2.0551732e-253
8.1264958e-250
7.3654494e-257
-3.0100812e-10
4.6992723e-23
-6.9066271e-36
1.7665111e-48
-1.336802e-60
5.4490194e-72
-7.2046162e-82
-6.5751917e-92
-1.2329098e-101
-6.9948232e-111
-3.772782e-119
1.2627714e-127
-3.4116589e-136
9.4566917e-145
-2.675713e-153
7.674802e-162
-2.2184688e-170
6.4535777e-179
-1.8940042e-187
5.594232e-196
-1.6596194e-204
4.9486638e-213
-1.4827652e-221
4.4380445e-230
-1.3322573e-238
4.0047381e-247
-1.2016899e-255
3.7984449e-264
-2.4781894e-265
-6.2104865e-266
-2.2293964e-266
-2.2154258e-266
-3.9256569e-266
-4.1802267e-265
-8.2402962e-264
-2.6839213e-263
-9.8422182e-267
4.3234502e-261
1.0577289e-257
2.8278946e-264
-2.9969136e-10
4.6213538e-23
-6.675488e-36
1.6479254e-48
-1.1785064e-60
4.4584769e-72
-8.3188516e-82
-5.4573352e-92
-7.3453943e-102
-3.0972428e-111
-1.0401457e-119
3.8067913e-128
-1.1286004e-136
3.5444861e-145
-1.1703845e-153
3.9614524e-162
-1.3718905e-170
4.8314564e-179
-1.7265103e-187
6.252809e-196
-2.2849293e-204
8.4041866e-213
-3.0993536e-221
1.1440794e-229
-4.1953107e-238
1.5313454e-246
-5.5337984e-255
1.9645935e-263
-7.1102726e-272
2.1252134e-274
7.4656745e-275
7.1864475e-275
1.222064e-274
1.2891985e-273
2.5195053e-272
8.6806092e-272
4.1186925e-275
1.3723899e-268
1.1297287e-265
1.2453675e-271
-2.9946555e-10
4.5569182e-23
-6.4260431e-36
1.5224085e-48
-1.0406745e-60
4.2426052e-72
1.5200379e-82
4.6254849e-93
3.6954991e-103
1.1968094e-112
3.8715927e-121
-1.7916085e-129
7.8395712e-138
-4.0453848e-146
2.3195728e-154
-1.4149881e-162
9.0553409e-171
-6.058889e-179
4.2119232e-187
-2.9815736e-195
2.2313653e-203
-1.4776925e-211
1.4833085e-219
-1.2929853e-228
2.5684191e-235
5.235281e-243
2.0392788e-250
9.583589e-258
8.7211509e-265
-1.0474999e-270
6.0805232e-278
-3.5721019e-283
-5.4730729e-283
-5.2994021e-282
-9.6407627e-281
-3.4932053e-280
-2.6080127e-283
-3.1577073e-276
1.1390318e-273
7.2927481e-279
-3.0086034e-10
4.5452549e-23
-6.2570671e-36
1.4198639e-48
-9.3417712e-61
4.7633583e-72
5.3685371e-83
8.4576271e-94
4.0533478e-104
1.0116939e-113
4.8807495e-122
-3.079989e-130
4.4745914e-138
-3.0587552e-145
-5.3793705e-152
-3.3668981e-159
-1.4346626e-166
-4.6962597e-174
-1.3327561e-181
-3.4186804e-189
-8.1356567e-197
-1.9168073e-204
-4.5468597e-212
-1.1200243e-219
-2.974882e-227
-8.7850481e-235
-3.1661773e-242
-1.5413357e-249
-1.449689e-256
1.8145366e-262
-1.1553253e-269
3.362948e-277
-5.7578128e-285
6.0449775e-290
8.3334189e-289
3.1771768e-288
1.6749671e-290
-1.6540897e-285
1.2002835e-281
7.4962562e-286
-3.0387493e-10
4.603257e-23
-6.2321306e-36
1.3604278e-48
-8.6381369e-61
6.3136428e-72
3.8946046e-83
3.8441466e-94
1.2241626e-104
2.3751555e-114
7.6880947e-122
-6.2804526e-130
-6.1972403e-138
-3.4969742e-146
-1.7864208e-154
-8.8020593e-163
-4.2144319e-171
-1.9791226e-179
-9.230633e-188
-4.3789386e-196
-2.3557539e-204
-1.939571e-212
-2.9445109e-220
-6.4809263e-228
-1.6765962e-235
-4.929682e-243
-1.7624468e-250
-8.5494253e-258
-7.9192112e-265
9.8227989e-271
-6.202802e-278
1.7761912e-285
-2.9866677e-293
5.7473751e-298
1.1132481e-296
4.4419779e-296
1.2258662e-298
4.2430966e-293
1.4954278e-289
2.1392598e-292
-3.0812253e-10
4.728772e-23
-6.3779929e-36
1.3537243e-48
-8.2983499e-61
9.0254991e-72
3.9814471e-83
2.911582e-94
6.9611377e-105
1.0851823e-114
-8.0882749e-123
7.1501804e-131
2.974715e-139
8.8368904e-148
2.5236728e-156
7.1577555e-165
2.0191912e-173
5.6686105e-182
1.5834482e-190
4.4178998e-199
1.2335108e-207
3.4471901e-216
9.6430505e-225
2.7084986e-233
7.5956861e-242
2.0142624e-250
7.2007391e-260
-2.449233e-266
-2.3890554e-273
2.9140779e-279
-1.7961895e-286
4.9925342e-294
-8.1172811e-302
2.0058609e-306
4.2684727e-305
1.8060708e-304
4.8300301e-307
5.6073372e-301
2.4746226e-297
-9.8657919e-299
-3.1300916e-10
4.9060751e-23
-6.6923511e-36
1.4022878e-48
-8.3051149e-61
1.0258143e-71
3.8997993e-83
2.4371198e-94
4.9295814e-105
6.5437755e-115
-3.1329398e-123
2.6076962e-131
8.1403048e-140
1.8901271e-148
4.3084853e-157
9.8813937e-166
2.276363e-174
5.2573067e-183
1.2173258e-191
2.8234501e-200
6.5703632e-209
1.5322939e-217
3.5717108e-226
8.3460939e-235
1.9514293e-243
4.57665e-252
1.0716128e-260
2.5129174e-269
5.8938184e-278
1.4522199e-286
-8.0718237e-296
1.1553506e-302
-1.6501717e-310
9.5258786e-314
1.6968459e-313
5.2735178e-313
-7.268306e-314
8.4588394e-309
6.561463e-305
1.5384763e-305
-3.1790857e-10
5.1112067e-23
-7.1494487e-36
1.5041506e-48
-8.6362732e-61
7.7612828e-72
2.9728063e-83
1.8001967e-94
3.4444093e-105
4.1920031e-115
-2.5835525e-123
2.0443865e-131
6.1117762e-140
1.3627218e-148
3.0114472e-157
6.7534832e-166
1.5304278e-174
3.5009504e-183
8.0755644e-192
1.8740127e-200
4.3644648e-209
1.0190413e-217
2.3831673e-226
5.5746385e-235
1.3024182e-243
3.0325985e-252
7.0225001e-261
1.6177248e-269
3.6902316e-278
8.3468996e-287
1.8622969e-295
4.0405717e-304
3.9319346e-313
4.3683683e-314
-5.2811591e-314
7.9675793e-315
-7.236814e-314
-4.9197344e-314
4.2441235e-312
-3.7055343e-312
-3.2230421e-10
5.3176331e-23
-7.7028757e-36
1.6530746e-48
-9.265701e-61
5.2385681e-72
2.3519106e-83
1.5487071e-94
3.1095576e-105
3.7646009e-115
-1.7570214e-122
1.4627927e-130
4.9687755e-139
1.2439255e-147
3.0966472e-156
7.893021e-165
2.047377e-173
5.3840831e-182
1.4291104e-190
3.8311318e-199
1.0334524e-207
2.795261e-216
7.5841253e-225
2.0492296e-233
5.5299634e-242
1.4818171e-250
3.9319357e-259
1.0302751e-267
2.5813575e-276
-5.116032e-284
-1.6777118e-290
-2.3992702e-297
-2.4055857e-304
-1.7012434e-311
-5.6648764e-314
4.0370191e-314
-7.7518381e-314
1.6545801e-313
8.5172477e-312
-8.8083897e-313
-3.2587519e-10
5.5022315e-23
-8.2905708e-36
1.8374472e-48
-1.015511e-60
3.8697044e-72
2.42653e-83
1.9422009e-94
4.5107388e-105
5.900135e-115
3.9710869e-123
-3.8801676e-131
-1.7510624e-139
-5.6411786e-148
-1.8206787e-156
-6.0299124e-165
-2.0488602e-173
-7.0916451e-182
-2.492406e-190
-8.8626083e-199
-3.1757779e-207
-1.1448157e-215
-4.1360057e-224
-1.4868042e-232
-5.3004899e-241
-1.8312089e-249
-2.8491658e-257
1.0845097e-263
-2.8233351e-269
-2.1118847e-275
-6.2565209e-282
-9.177221e-289
-9.4620516e-296
-6.8455407e-303
-3.8987193e-310
-3.7641825e-314
7.2688325e-314
1.8251424e-313
-8.9377346e-314
4.0450233e-313
-3.2851313e-10
5.6501027e-23
-8.8461524e-36
2.0399132e-48
-1.1244078e-60
3.2126031e-72
3.7095956e-83
4.0532576e-94
1.1956592e-104
1.8327671e-114
6.4188942e-123
-8.0884222e-131
-5.8160945e-139
-2.8228169e-147
-1.3647503e-155
-6.8617253e-164
-3.5583882e-172
-1.8909475e-180
-1.0250212e-188
-5.6349603e-197
-3.1328858e-205
-1.7592082e-213
-8.61598e-222
-1.4605799e-229
-9.5593341e-237
9.5404752e-243
-5.5246143e-249
2.7954739e-255
-7.5627879e-261
-5.8010379e-267
-1.7751514e-273
-2.6987827e-280
-2.8933468e-287
-2.1734289e-294
-1.1557089e-301
-1.6176564e-307
-2.813065e-313
-1.8373757e-314
-1.0353795e-313
3.0346844e-313
-3.3028247e-10
5.7564306e-23
-9.315162e-36
2.2395982e-48
-1.2446586e-60
2.9277538e-72
1.6508683e-82
2.8274966e-93
1.1637006e-103
2.2630732e-113
6.3607805e-122
-1.1149162e-129
-1.6553736e-137
-1.4733635e-145
-1.297885e-153
-1.2083183e-161
-1.1719741e-169
-1.1674743e-177
-1.179588e-185
-1.7307389e-193
6.5332058e-201
-1.5326111e-207
2.2333296e-214
-2.1841616e-221
-1.1529073e-230
1.2126003e-234
-8.2151777e-241
4.2702642e-247
-1.2405554e-252
-9.911687e-259
-3.1509593e-265
-5.043448e-272
-5.7125873e-279
-4.4827002e-286
-2.0617474e-293
-3.0619834e-299
-1.6006988e-305
2.2407284e-313
-2.2719102e-313
-2.7755838e-313
-3.3135111e-10
5.8249205e-23
-9.6686876e-36
2.417014e-48
-1.3659825e-60
2.8458351e-72
-7.3952779e-83
-2.4538836e-93
-1.5612861e-103
-4.1651635e-113
-1.1672709e-121
2.9316108e-129
1.9632065e-136
4.6333439e-144
1.0601195e-151
1.7309025e-159
4.8273998e-166
-1.223168e-172
2.4417515e-179
-4.6133098e-186
7.88979e-193
-1.5301974e-199
2.3936852e-206
-3.0021663e-213
3.0217547e-220
2.0469799e-227
-4.2250402e-233
2.3707917e-239
-8.5473098e-245
-7.1008272e-251
-2.4063999e-257
-4.201715e-264
-5.1187629e-271
-4.2240161e-278
-9.4504721e-286
-2.7531283e-291
-6.9071592e-298
-3.9597751e-306
2.8150511e-313
-2.2251262e-313
-3.3191941e-10
5.8641263e-23