/*--------------------------------*- C++ -*----------------------------------*\
  =========                 |
  \\      /  F ield         | OpenFOAM: The Open Source CFD Toolbox
   \\    /   O peration     | Website:  https://openfoam.org
    \\  /    A nd           | Version:  10
     \\/     M anipulation  |
\*---------------------------------------------------------------------------*/
FoamFile
{
    format      ascii;
    class       volScalarField;
    location    "0.08";
    object      TporMedia;
}
// * * * * * * * * * * * * * * * * * * * * * * * * * * * * * * * * * * * * * //

dimensions      [0 0 0 1 0 0 0];

internalField   nonuniform List<scalar> 
4000
(
-2.2529809e-06
1.1904031e-06
-7.0851621e-05
-5.6334546e-05
-9.0511518e-05
-8.2986125e-05
-8.2869322e-05
-7.7728311e-05
-7.7900867e-05
-7.8043083e-05
-7.6559001e-05
-7.8428382e-05
-7.5710638e-05
-7.9151395e-05
-7.1221781e-05
-7.4628392e-05
-7.5209554e-05
-7.7477951e-05
-7.2585391e-05
-7.6630519e-05
-7.6945588e-05
-7.651282e-05
-7.8442408e-05
-7.9311221e-05
-7.5646404e-05
-7.4034259e-05
-8.0036917e-05
-7.9319268e-05
-8.0804608e-05
-8.2880399e-05
-8.2526249e-05
-8.6774885e-05
-8.0593848e-05
-8.648895e-05
-8.4843423e-05
-8.814743e-05
-9.1755821e-05
-8.8492026e-05
-9.7243345e-05
-9.3779821e-05
-2.0823052e-07
7.5041974e-16
-1.4344842e-13
2.2951699e-12
6.9719256e-12
1.1970635e-11
1.0737604e-11
1.0415378e-11
1.0099033e-11
9.1533804e-12
1.0264507e-11
9.7547475e-12
9.3603704e-12
9.7835159e-12
8.5740636e-12
9.005732e-12
9.1833965e-12
9.4078221e-12
9.1308125e-12
9.1711827e-12
1.0010046e-11
9.7892766e-12
9.6384829e-12
9.9051483e-12
9.1241364e-12
9.7781054e-12
1.0359351e-11
1.0299996e-11
1.0433625e-11
1.0850318e-11
1.0756473e-11
1.1806487e-11
1.0656631e-11
1.1610225e-11
1.1154128e-11
1.2867835e-11
1.3780775e-11
1.3169444e-11
1.5273193e-11
1.4192729e-11
-8.4008452e-08
-2.168577e-16
-8.1124112e-23
1.8711012e-20
-1.585455e-19
-1.1155454e-18
-1.3542195e-18
-1.2334951e-18
-1.3009078e-18
-1.0991678e-18
-1.2692417e-18
-1.1128316e-18
-1.1452333e-18
-1.1487613e-18
-1.0168338e-18
-1.0624055e-18
-1.0244017e-18
-1.1899081e-18
-1.0551149e-18
-1.061633e-18
-1.2192835e-18
-1.1226993e-18
-1.1830143e-18
-1.1973148e-18
-1.1007948e-18
-1.206188e-18
-1.2667659e-18
-1.3316609e-18
-1.2777803e-18
-1.4634515e-18
-1.3841494e-18
-1.4905057e-18
-1.3634225e-18
-1.6116311e-18
-1.5760965e-18
-1.7177245e-18
-2.0192124e-18
-1.9393047e-18
-2.2094847e-18
-2.1478612e-18
-4.4934171e-08
1.2028443e-17
3.4984215e-27
2.4975176e-29
2.0681807e-27
3.9732589e-26
1.8181915e-25
1.4429421e-25
1.5376966e-25
1.3248912e-25
1.6025067e-25
1.291333e-25
1.4683746e-25
1.2914424e-25
1.2256334e-25
1.2761911e-25
1.2156993e-25
1.3447815e-25
1.139712e-25
1.2307431e-25
1.3598038e-25
1.3869742e-25
1.3437129e-25
1.396298e-25
1.4118393e-25
1.5020439e-25
1.5534715e-25
1.6013094e-25
1.7225076e-25
1.7009232e-25
1.7528521e-25
2.0825634e-25
1.7381788e-25
2.0596867e-25
2.081361e-25
2.3638874e-25
2.9679553e-25
2.642829e-25
3.3500091e-25
3.0462611e-25
-2.8089404e-08
2.311123e-18
5.1135916e-28
2.5084663e-37
-8.2825784e-34
-5.3582303e-34
-1.4628533e-32
-1.9636155e-32
-1.7938161e-32
-1.5918847e-32
-1.8930019e-32
-1.4611957e-32
-1.6351768e-32
-1.4623686e-32
-1.4244075e-32
-1.4886315e-32
-1.3803304e-32
-1.5503465e-32
-1.3074672e-32
-1.3343445e-32
-1.6166423e-32
-1.4761216e-32
-1.5756609e-32
-1.6299402e-32
-1.6191398e-32
-1.7301559e-32
-1.731408e-32
-1.8176078e-32
-2.0382768e-32
-2.2583221e-32
-2.1714068e-32
-2.6991383e-32
-1.9997481e-32
-2.8242552e-32
-2.848166e-32
-3.3177506e-32
-4.2759676e-32
-3.5953811e-32
-4.9230061e-32
-4.4333436e-32
-1.9398281e-08
7.5896955e-19
2.0349784e-28
4.6566485e-38
-2.2149712e-42
3.7355363e-42
4.980144e-40
2.7940023e-39
2.1074612e-39
1.7617899e-39
2.0669723e-39
1.6395758e-39
1.745277e-39
1.5869564e-39
1.5459722e-39
1.676059e-39
1.5527203e-39
1.6818486e-39
1.4165542e-39
1.5151332e-39
1.7346734e-39
1.6116569e-39
1.7277453e-39
1.7830176e-39
1.8582808e-39
1.9384612e-39
1.8872451e-39
1.95363e-39
2.2285539e-39
2.7348526e-39
2.4875466e-39
3.0671197e-39
2.4519869e-39
3.2826038e-39
3.7017514e-39
4.5586132e-39
5.4928995e-39
5.0325143e-39
7.147464e-39
6.0040404e-39
-1.4342138e-08
3.2348747e-19
-1.3118925e-27
-1.8176133e-37
-1.4057891e-46
-1.8909235e-50
-7.1758549e-48
-3.0848702e-46
-2.6385589e-46
-1.8661121e-46
-2.3567547e-46
-1.6773961e-46
-1.9135155e-46
-1.5911373e-46
-1.6392554e-46
-1.9025307e-46
-1.6151757e-46
-1.7089487e-46
-1.46022e-46
-1.5877063e-46
-1.9435943e-46
-1.6550956e-46
-1.7932738e-46
-1.8234376e-46
-1.9666455e-46
-2.2061227e-46
-2.0300149e-46
-2.0766893e-46
-2.4841875e-46
-2.9353207e-46
-2.8643581e-46
-3.5841777e-46
-2.8539058e-46
-3.8809941e-46
-4.2939779e-46
-5.6206675e-46
-7.3806253e-46
-6.4712952e-46
-8.8404792e-46
-7.9456128e-46
-1.1109733e-08
1.6159945e-19
-1.8764766e-29
-1.8444279e-39
-6.2122896e-49
4.2715992e-57
5.0828035e-56
1.7778624e-53
3.6278742e-53
2.0503131e-53
2.449487e-53
1.7917726e-53
1.9265737e-53
1.6234386e-53
1.6091131e-53
2.0117154e-53
1.5800112e-53
1.8719011e-53
1.527036e-53
1.6607035e-53
1.9731608e-53
1.7041127e-53
1.8884554e-53
1.8360241e-53
2.0768826e-53
2.1715351e-53
2.1795329e-53
2.181109e-53
2.4571041e-53
3.3622569e-53
2.9241808e-53
3.9684022e-53
3.0493363e-53
4.275323e-53
4.9626073e-53
6.5889904e-53
9.6212062e-53
8.3973306e-53
1.1290009e-52
9.7053323e-53
-8.8569487e-09
8.93541e-20
-3.9800919e-30
-3.179106e-40
-5.7375089e-50
-4.4931486e-58
-2.0913668e-64
-4.6550385e-61
-5.1697953e-60
-2.2734924e-60
-2.5727289e-60
-1.7296803e-60
-2.0191497e-60
-1.5967412e-60
-1.5778946e-60
-2.008203e-60
-1.5459041e-60
-1.798841e-60
-1.4181011e-60
-1.6789485e-60
-1.9686237e-60
-1.6685989e-60
-1.8556816e-60
-1.9216345e-60
-2.0682862e-60
-2.1957738e-60
-2.0149994e-60
-2.2333523e-60
-2.6923472e-60
-3.5926471e-60
-3.0643447e-60
-4.2880655e-60
-3.5138009e-60
-4.4920844e-60
-5.9402693e-60
-8.1499364e-60
-1.1494566e-59
-9.8763345e-60
-1.4266704e-59
-1.0962521e-59
-7.1533682e-09
5.2589324e-20
-1.2293958e-30
-9.1708699e-41
-1.0146368e-50
-1.2879688e-59
3.6920981e-68
5.7710442e-69
6.2051632e-67
2.654812e-67
2.4871221e-67
1.682767e-67
1.88988e-67
1.4761082e-67
1.4896195e-67
1.8633986e-67
1.5754447e-67
1.7518856e-67
1.2903041e-67
1.5631359e-67
1.8483987e-67
1.5891464e-67
1.7618892e-67
1.7969745e-67
2.0328196e-67
2.067347e-67
1.9014539e-67
2.1375677e-67
2.4908542e-67
3.6659556e-67
3.1667613e-67
4.2840627e-67
3.7234973e-67
4.7073298e-67
6.3522733e-67
9.3505845e-67
1.3494032e-66
1.1514932e-66
1.4983729e-66
1.1840408e-66
-5.7782394e-09
3.2028241e-20
-4.5348669e-31
-3.8118599e-41
-2.8499983e-51
-1.4285047e-60
3.3507132e-69
-6.1308969e-77
-4.5975599e-74
-3.5596459e-74
-2.3877048e-74
-1.613641e-74
-1.7146324e-74
-1.3659712e-74
-1.3616926e-74
-1.7377539e-74
-1.4284017e-74
-1.6296905e-74
-1.21103e-74
-1.4453027e-74
-1.6435412e-74
-1.5132565e-74
-1.5999e-74
-1.6878031e-74
-1.8733446e-74
-1.91456e-74
-1.805793e-74
-2.0813274e-74
-2.2905382e-74
-3.6159893e-74
-3.0004627e-74
-4.2863072e-74
-3.7224415e-74
-4.8780003e-74
-6.514115e-74
-1.0110141e-73
-1.4799859e-73
-1.2770953e-73
-1.6883837e-73
-1.1982543e-73
-4.6244372e-09
1.978269e-20
-1.8461924e-31
-2.6389603e-41
-1.4380764e-51
-3.6801868e-61
8.9577159e-70
-3.6178815e-78
1.6867721e-81
5.466431e-81
2.2772249e-81
1.4949529e-81
1.5513965e-81
1.2935123e-81
1.1692669e-81
1.6250559e-81
1.1867048e-81
1.3482748e-81
1.0163121e-81
1.2533903e-81
1.4395886e-81
1.2922987e-81
1.3636829e-81
1.4164668e-81
1.6456427e-81
1.6886727e-81
1.5759633e-81
2.0077166e-81
2.1057901e-81
3.1423852e-81
2.8537474e-81
4.0156765e-81
3.428459e-81
4.8788737e-81
6.5068462e-81
1.056413e-80
1.5403878e-80
1.3123919e-80
1.8508589e-80
1.0638428e-80
-3.6348987e-09
1.2186251e-20
-7.9266531e-32
3.333986e-41
1.4092338e-51
2.11586e-61
-9.5371751e-70
2.5567731e-78
-4.839379e-86
-8.9388902e-88
-2.1592512e-88
-1.3047518e-88
-1.3545017e-88
-1.0694892e-88
-1.0086332e-88
-1.2938542e-88
-9.6276753e-89
-1.150523e-88
-8.7018341e-89
-9.8680868e-89
-1.2340371e-88
-1.0789282e-88
-1.1188989e-88
-1.2678936e-88
-1.3805463e-88
-1.4290337e-88
-1.3374796e-88
-1.7608089e-88
-1.8225683e-88
-2.7864595e-88
-2.5087901e-88
-3.5925037e-88
-3.1178969e-88
-4.6302993e-88
-6.1354151e-88
-1.0515125e-87
-1.5822638e-87
-1.3273384e-87
-1.6739694e-87
-8.7807487e-88
-2.7799568e-09
7.3677558e-21
-3.4738934e-32
1.9962317e-42
6.9099838e-53
6.6695132e-63
2.8234862e-71
-5.4855235e-80
5.7031493e-88
4.3051626e-95
2.3375689e-95
1.0720451e-95
1.1465157e-95
8.3774259e-96
8.2803353e-96
1.0533836e-95
7.6790938e-96
9.1551495e-96
6.9296073e-96
7.8685109e-96
9.7023146e-96
8.4955671e-96
9.331705e-96
1.0155738e-95
1.136112e-95
1.182815e-95
1.0449449e-95
1.4744039e-95
1.5071022e-95
2.4407182e-95
2.1194662e-95
3.1435175e-95
2.7660359e-95
4.2472605e-95
5.7976661e-95
1.0598833e-94
1.5964217e-94
1.2436664e-94
1.5264811e-94
5.5752342e-95
-2.0668711e-09
4.3424932e-21
-1.5268447e-32
3.8763794e-43
1.1557407e-53
7.6679538e-64
7.1674442e-73
-1.102116e-81
6.8355951e-90
-5.6552426e-97
-2.7777411e-102
-9.3070191e-103
-9.1717456e-103
-6.6493692e-103
-6.3609526e-103
-7.8979696e-103
-5.908634e-103
-7.0885821e-103
-5.1760554e-103
-6.2601323e-103
-7.2445352e-103
-6.3277601e-103
-7.3041802e-103
-7.675301e-103
-8.421221e-103
-9.327324e-103
-8.1809065e-103
-1.1549608e-102
-1.2034858e-102
-2.0232714e-102
-1.795153e-102
-2.701347e-102
-2.3439686e-102
-3.7592098e-102
-5.4189805e-102
-9.408249e-102
-1.4262086e-101
-1.1120505e-101
-1.1713387e-101
-2.398076e-102
-1.5181157e-09
2.5244222e-21
-6.7563909e-33
9.6769446e-44
2.6142943e-54
1.2555665e-64
5.245795e-74
-6.974422e-83
2.8006646e-91
-1.2870952e-98
1.6824134e-105
7.4019222e-110
7.3317104e-110
5.0302873e-110
4.6308536e-110
5.7644639e-110
4.4054957e-110
5.3309601e-110
3.7996104e-110
4.6423746e-110
5.3223526e-110
4.6413505e-110
5.1426792e-110
5.4334735e-110
6.5274151e-110
7.2272568e-110
5.9832509e-110
8.3794339e-110
9.0363009e-110
1.5624671e-109
1.3862585e-109
2.1676056e-109
1.9221858e-109
3.0610683e-109
4.598493e-109
8.5044652e-109
1.2755675e-108
8.7757541e-109
7.9902392e-109
7.1061307e-110
-1.1297346e-09
1.4819774e-21
-3.0637847e-33
2.77467e-44
7.1842888e-55
2.6053279e-65
6.0348509e-75
-7.7455275e-84
2.1535302e-92
-5.5276166e-100
7.1687914e-107
-5.7175105e-114
-5.0870798e-117
-3.6672433e-117
-3.3927555e-117
-4.0946398e-117
-3.1082113e-117
-3.8110445e-117
-2.7661858e-117
-3.3401741e-117
-3.7343627e-117
-3.2602552e-117
-3.5727764e-117
-3.833418e-117
-4.5232806e-117
-5.1121589e-117
-4.2707666e-117
-6.0886788e-117
-6.4750294e-117
-1.1356321e-116
-1.0234483e-116
-1.6891601e-116
-1.5470335e-116
-2.4740247e-116
-3.7108111e-116
-7.3700168e-116
-1.0159987e-115
-6.5702551e-116
-4.4935847e-116
-1.8931372e-117
-8.6833831e-10
8.9694656e-22
-1.4472657e-33
8.864681e-45
2.3604859e-55
6.6980509e-66
9.6392987e-76
-1.4106521e-84
2.8738343e-93
-4.2885982e-101
5.6995715e-108
-4.6191762e-115
3.2785582e-122
2.5058159e-124
2.233108e-124
2.7083734e-124
1.9996754e-124
2.5263526e-124
1.8282384e-124
2.2393527e-124
2.4967987e-124
2.2043831e-124
2.4188767e-124
2.5571564e-124
2.9968571e-124
3.4218109e-124
2.8727461e-124
4.1514647e-124
4.2176976e-124
8.0809734e-124
7.3269624e-124
1.1687451e-123
1.1296405e-123
1.8378825e-123
2.9125469e-123
6.0380093e-123
7.6018841e-123
4.472234e-123
2.289457e-123
6.9533541e-125
-6.9398677e-10
5.6542173e-22
-7.1752324e-34
3.1079352e-45
9.455068e-56
2.1656483e-66
2.0871775e-76
-5.1097784e-85
8.0517465e-94
-7.5597761e-102
7.9129462e-109
-6.4155478e-116
4.162721e-123
-2.8715042e-130
-1.3641407e-131
-1.6952692e-131
-1.2759166e-131
-1.5834856e-131
-1.1377272e-131
-1.3849883e-131
-1.5822717e-131
-1.4088708e-131
-1.5023207e-131
-1.5927564e-131
-1.9880473e-131
-2.1750625e-131
-1.8414851e-131
-2.7276015e-131
-2.7180551e-131
-5.4073133e-131
-4.8556593e-131
-7.8059679e-131
-7.5892963e-131
-1.3119573e-130
-2.1481706e-130
-4.331358e-130
-5.171467e-130
-2.7033947e-130
-1.122909e-130
-1.7897478e-131
-5.7490955e-10
3.7151518e-22
-3.7317498e-34
1.1800092e-45
5.0280361e-56
9.5605302e-67
6.5158793e-77
6.026356e-85
-7.747758e-94
4.8245227e-102
-3.6771727e-109
3.05739e-116
-1.9429166e-123
1.1737633e-130
-6.2828387e-138
1.0372195e-138
7.5207015e-139
9.5047947e-139
6.7073573e-139
8.17634e-139
9.3242748e-139
8.4940361e-139
8.9935165e-139
9.6008892e-139
1.2308249e-138
1.2780546e-138
1.1020171e-138
1.598064e-138
1.6434134e-138
3.2929258e-138
2.9346968e-138
4.779179e-138
4.7983137e-138
8.9203538e-138
1.4987683e-137
2.9409454e-137
3.160785e-137
1.4546295e-137
6.3054582e-138
-7.9467615e-139
-4.9010921e-10
2.533926e-22
-2.0277091e-34
4.7961637e-46
5.9137746e-56
9.578646e-67
4.8167955e-77
5.1848733e-86
-5.7277552e-95
2.5005657e-103
-1.1619244e-110
9.4994539e-118
-5.6979711e-125
3.2235976e-132
-1.8815715e-139
-5.0614355e-146
-4.2858554e-146
-5.2869923e-146
-3.8862132e-146
-4.6751044e-146
-5.6134909e-146
-4.7746029e-146
-5.174995e-146
-5.4025992e-146
-6.7006038e-146
-7.2940559e-146
-6.2121498e-146
-9.4946447e-146
-9.3488618e-146
-1.9359573e-145
-1.7080505e-145
-2.802845e-145
-2.9630938e-145
-5.4383935e-145
-9.8511394e-145
-1.7521569e-144
-1.759708e-144
-7.0347173e-145
-4.5491677e-145
-1.9730333e-146
-4.2712012e-10
1.7863737e-22
-1.1472627e-34
2.0711337e-46
-1.4256888e-56
-2.0155047e-67
-7.742397e-78
-3.6621738e-87
3.6729159e-96
-1.1858503e-104
3.5374612e-112
-2.8603004e-119
1.7379184e-126
-9.5513399e-134
5.2145434e-141
-2.8956292e-148
2.294612e-153
2.8924628e-153
2.1490854e-153
2.5756304e-153
3.0081285e-153
2.6387683e-153
2.785495e-153
2.9481915e-153
3.726114e-153
3.9587187e-153
3.4755661e-153
5.391498e-153
5.0768529e-153
1.1107123e-152
9.4435176e-153
1.6162655e-152
1.7205187e-152
3.267685e-152
6.0346656e-152
1.0242169e-151
8.8871926e-152
3.2733053e-152
4.3761056e-152
-4.3233476e-154
-3.7905197e-10
1.2994895e-22
-6.7578593e-35
9.4798996e-47
-2.0697859e-57
-2.6163779e-68
-7.9131271e-79
-2.130756e-88
2.0689937e-97
-5.1604244e-106
1.0141143e-113
-8.1503244e-121
4.7669097e-128
-2.5265631e-135
1.3710202e-142
-7.4060837e-150
3.8163768e-157
-1.558449e-160
-1.1495468e-160
-1.3328248e-160
-1.5609792e-160
-1.372261e-160
-1.510046e-160
-1.5536368e-160
-1.9121022e-160
-2.0874041e-160
-1.8064687e-160
-2.7853291e-160
-2.6888204e-160
-5.9771485e-160
-5.2843134e-160
-8.7974506e-160
-9.5407681e-160
-1.8494367e-159
-3.5085319e-159
-5.4891934e-159
-3.9296732e-159
-1.4473283e-159
-5.8818533e-159
-1.0289644e-161
-3.4218385e-10
9.7651837e-23
-4.1567699e-35
4.6088212e-47
-5.2928603e-58
-6.1415777e-69
-1.5050227e-79
-2.6178838e-89
2.680363e-98
-5.3854786e-107
7.362927e-115
-5.1648878e-122
2.9394006e-129
-1.4608654e-136
7.4022657e-144
-3.6543066e-151
1.8609039e-158
-8.9462537e-166
5.6743529e-168
6.4820208e-168
7.2910011e-168
6.7647379e-168
7.381089e-168
7.5790005e-168
9.4151402e-168
1.0322649e-167
8.9274495e-168
1.401147e-167
1.3590454e-167
3.0808793e-167
2.752316e-167
4.594979e-167
5.0331831e-167
1.0164325e-166
1.9692373e-166
2.8221078e-166
1.6773956e-166
5.9076284e-167
1.2647467e-165
-2.9557656e-169
-3.1438867e-10
7.6008858e-23
-2.6825919e-35
2.3907738e-47
-1.711799e-58
-1.8808575e-69
-3.8437837e-80
-4.6846492e-90
5.7961374e-99
-9.8031631e-108
9.583713e-116
-5.3267426e-123
2.6026068e-130
-1.1514633e-137
4.9088015e-145
-2.1453168e-152
9.2546077e-160
-3.8375419e-167
1.3683609e-174
-2.8022346e-175
-3.0426975e-175
-2.8433615e-175
-3.1336531e-175
-3.1713792e-175
-3.9538562e-175
-4.4013978e-175
-3.732806e-175
-5.9420171e-175
-5.9052775e-175
-1.3864867e-174
-1.3014962e-174
-2.1433521e-174
-2.4546099e-174
-5.0310937e-174
-1.0095083e-173
-1.3096907e-173
-6.4623446e-174
-2.3562125e-174
-3.3295755e-172
-1.022271e-176
-2.943082e-10
6.1466553e-23
-1.8254083e-35
1.3301346e-47
-6.5014648e-59
-7.0265588e-70
-1.2326976e-80
-1.1170335e-90
2.2364716e-99
-3.335617e-108
2.4135917e-116
-9.1335958e-124
3.7185892e-131
-1.3855537e-138
4.8876512e-146
-1.7244338e-153
6.0695126e-161
-2.1402368e-168
7.3431286e-176
7.2489851e-183
1.056154e-182
9.6850267e-183
1.1085389e-182
1.0843173e-182
1.3844432e-182
1.54775e-182
1.3133775e-182
2.0947819e-182
2.1369513e-182
4.960534e-182
4.8434671e-182
8.2079165e-182
9.9779472e-182
2.1870547e-181
4.4369192e-181
5.3361351e-181
2.2645149e-181
8.5828084e-182
1.6205568e-178
-3.8845556e-184
-2.8099583e-10
5.178966e-23
-1.3157449e-35
7.9769845e-48
-2.8274012e-59
-3.1437033e-70
-4.8609325e-81
-3.42289e-91
1.0213776e-98
-1.4014205e-107
7.8589815e-116
-2.136285e-123
7.1582622e-131
-2.1895835e-138
6.552432e-146
-1.924056e-153
5.7605807e-161
-1.7063231e-168
5.0628732e-176
-1.5304531e-183
-2.6854972e-190
-2.9218261e-190
-3.2922151e-190
-3.2917865e-190
-4.1066771e-190
-4.666366e-190
-3.9966552e-190
-6.3310316e-190
-6.5695105e-190
-1.5468261e-189
-1.5217005e-189
-2.6477705e-189
-3.3007519e-189
-7.6689697e-189
-1.5992958e-188
-1.8028061e-188
-6.7709362e-189
-4.5234536e-189
-7.0315817e-184
-4.2752815e-191
-2.7374296e-10
4.5579348e-23
-1.0087763e-35
5.1807646e-48
-1.3952209e-59
-1.6760621e-70
-2.329355e-81
-1.3137907e-91
-2.1755454e-100
2.8549042e-109
-1.304771e-117
2.8167476e-125
-8.7633251e-133
2.5829338e-140
-7.5622542e-148
2.2580098e-155
-6.6223793e-163
1.9973815e-170
-5.946301e-178
1.782087e-185
-5.379846e-193
8.6905861e-198
9.8313303e-198
9.9060365e-198
1.2337598e-197
1.4005716e-197
1.1616287e-197
1.8762543e-197
1.9494279e-197
4.5695566e-197
4.4892377e-197
7.7408097e-197
9.7323252e-197
2.2836218e-196
4.7769444e-196
5.0527446e-196
1.764629e-196
-8.0999975e-196
3.4380313e-190
1.1687564e-197
-2.7191899e-10
4.1967539e-23
-8.2535073e-36
3.6579244e-48
-7.7860597e-60
-1.0615984e-70
-1.3396937e-81
-6.1674199e-92
-4.345008e-101
5.6457836e-110
-2.1861552e-118
4.3747805e-126
-1.726539e-133
6.5382844e-141
-2.4403884e-148
9.3880739e-156
-3.7272806e-163
1.4732834e-170
-5.96755e-178
2.4502929e-185
-1.0218191e-192
4.1248989e-200
-3.9075066e-205
-3.9033911e-205
-4.8510913e-205
-5.3629856e-205
-4.4742097e-205
-7.0311443e-205
-7.0465709e-205
-1.584489e-204
-1.5148508e-204
-2.5230065e-204
-3.0313005e-204
-6.9607984e-204
-1.3504864e-203
-1.2761517e-203
-4.3013778e-204
-1.7114847e-201
-4.6275264e-197
-1.2801201e-204
-2.7477456e-10
4.040601e-23
-7.2134669e-36
2.8126556e-48
-4.8975256e-60
-7.9890073e-71
-9.1941693e-82
-3.504354e-92
-1.4510731e-101
1.937299e-110
-6.6366243e-119
1.4601548e-126
-1.3779308e-133
1.3708125e-140
-1.4159361e-147
1.5155554e-154
-1.8299697e-161
2.1980395e-168
-2.8393113e-175
3.6080655e-182
-4.3232433e-189
5.3263384e-196
-6.0121806e-203
7.0739037e-210
5.0135822e-212
5.3314201e-212
4.2519296e-212
6.181806e-212
5.6039672e-212
1.1147806e-211
9.4353386e-212
1.4113704e-211
1.4854092e-211
2.958832e-211
4.5413549e-211
3.5282e-211
1.114174e-211
4.3492685e-208
2.985775e-204
5.9504229e-212
-2.8123147e-10
4.0507943e-23
-6.7140178e-36
2.3497587e-48
-3.4473888e-60
-7.3478358e-71
-7.7895813e-82
-2.5108749e-92
-7.0535787e-102
1.0277021e-110
-3.2381701e-119
8.5413838e-127
1.0125642e-133
1.1259529e-140
1.4074204e-147
1.6062105e-154
1.7183683e-161
2.1506883e-168
2.6863641e-175
3.2298402e-182
3.8482365e-189
4.5032869e-196
6.127796e-203
9.0377979e-210
1.2683239e-216
9.4829482e-219
7.0918138e-219
1.1956061e-218
1.2180482e-218
3.8708587e-218
4.9607783e-218
1.7236347e-217
-8.3319513e-218
-4.5748094e-218
-3.4007668e-218
-1.5256364e-218
-3.9370771e-219
-5.5711906e-215
-1.2239868e-211
-2.0661065e-219
-2.8974651e-10
4.1911233e-23
-6.5972626e-36
2.1150968e-48
-2.6789526e-60
-9.7542776e-71
-9.8298715e-82
-2.7885749e-92
-5.8722796e-102
1.0510003e-110
-3.183719e-119
8.3656832e-127
5.5294082e-134
3.6150003e-141
2.8124648e-148
2.416248e-155
2.2176387e-162
2.1060664e-169
2.0833413e-176
2.1914427e-183
2.5625358e-190
2.9661934e-197
3.9050102e-204
4.8357605e-211
6.0151846e-218
8.8213484e-225
8.0032467e-226
1.4770972e-225
1.2142018e-225
3.9668133e-225
4.7291274e-225
1.4802372e-224
-6.9319378e-225
-4.1904929e-225
-6.5371944e-225
3.0247818e-225
2.6499557e-226
4.0655771e-222
4.281392e-219
6.6506315e-227
-2.983992e-10
4.415716e-23
-6.7426966e-36
2.0200433e-48
-2.2516972e-60
1.1249371e-69
1.1524066e-80
3.0753627e-91
5.3281971e-101
-1.5837587e-109
4.9302811e-118
-8.4892937e-126
1.3272517e-132
-1.6149695e-139
1.3528882e-146
-8.8261804e-154
5.2088517e-161
-2.7494685e-168
1.3719396e-175
-6.401212e-183
2.9308454e-190
-1.2993392e-197
5.9610959e-205
-2.7448922e-212
1.3276266e-219
-6.8502314e-227
-4.1988024e-233
-4.5817836e-235
-9.8713864e-233
-4.2384193e-232
-1.06186e-231
-2.0456136e-230
-1.1688009e-231
-3.7669854e-232
-5.3341912e-232
5.1687024e-232
-2.1631862e-233
-1.3904647e-229
-1.7824647e-226
-3.1052162e-234
-3.0531382e-10
4.6626803e-23
-7.0283331e-36
2.0030656e-48
-1.9950515e-60
4.3199812e-71
5.0576479e-82
1.4010947e-92
2.2067131e-102
-5.280632e-109
1.8974999e-117
-1.8066381e-125
2.6596985e-133
-3.7556128e-141
4.9460588e-149
-6.1406864e-157
7.2863036e-165
-8.4494982e-173
9.5471615e-181
-1.065766e-188
1.147422e-196
-1.130595e-204
5.921115e-213
2.4476312e-220
-1.8128794e-227
1.0276832e-234
5.0401864e-241
9.7632208e-241
1.3658586e-240
6.4584123e-240
1.8372924e-239
4.3027749e-238
3.2654158e-239
1.7493055e-239
5.6390431e-239
-5.0988286e-239
6.6151483e-241
2.6194302e-237
1.5129174e-233
3.2238166e-241
-3.0929391e-10
4.862146e-23
-7.3164404e-36
2.0113576e-48
-1.8133324e-60
1.716488e-71
2.8042124e-82
9.2450903e-93
1.4732659e-102
3.4365456e-111
-1.8389772e-119
1.0718221e-127
-6.5927188e-136
3.9494135e-144
-2.3035296e-152
1.3129477e-160
-7.3465138e-169
4.0598496e-177
-2.2171457e-185
1.2059228e-193
-6.5641482e-202
3.5839739e-210
-1.9581657e-218
1.069952e-226
-4.9498556e-235
-3.0280429e-243
-2.9122341e-249
-7.234753e-249
-8.4793305e-249
-4.2159726e-248
-1.2827774e-247
-3.2996921e-246
-2.8670126e-247
-1.9129077e-247
-8.0844515e-247
8.2361227e-247
-7.8002073e-249
-4.9702702e-245
1.431385e-240
4.667327e-248
-3.1026967e-10
4.9617902e-23
-7.4768205e-36
1.9986864e-48
-1.6513733e-60
9.5063855e-72
3.2912836e-82
1.546969e-92
2.7435273e-102
2.9515767e-111
-6.6582746e-119
2.8130785e-127
-1.0540682e-135
3.9205739e-144
-1.4476687e-152
5.2911904e-161
-1.9226418e-169
6.9527596e-178
-2.5082899e-186
9.062367e-195
-3.2678019e-203
1.1838069e-211
-4.3074335e-220
1.5735645e-228
-5.7966192e-237
2.1650611e-245
-8.1792452e-254
3.0401184e-257
3.3136641e-257
1.7000684e-256
5.3495859e-256
1.448136e-254
1.3551371e-255
1.0189339e-255
4.9934579e-255
-5.5923835e-255
5.0136982e-257
-7.1485467e-253
4.0955551e-248
2.424648e-255
-3.0920449e-10
4.9536859e-23
-7.4388364e-36
1.9360028e-48
-1.4844928e-60
6.2740175e-72
-3.7795038e-81
-3.0200827e-91
-5.9993025e-101
-4.0912144e-110
-3.106715e-118
1.1255417e-126
-3.2669037e-135
9.5338935e-144
-2.8152568e-152
8.3524474e-161
-2.479962e-169
7.3801819e-178
-2.2115964e-186
6.6305684e-195
-1.9963636e-203
6.0364707e-212
-1.8308465e-220
5.5830846e-229
-1.7070724e-237
5.241832e-246
-1.6153392e-254
4.9975749e-263
-1.0347069e-265
-5.3574082e-265
-1.7100171e-264
-4.7369173e-263
-4.5735232e-264
-3.6416669e-264
-1.9378171e-263
2.3353977e-263
-2.2820685e-265
-1.8018476e-260
6.5756835e-256
9.6411043e-263
-3.0753539e-10
4.8762101e-23
-7.2261936e-36
1.8224679e-48
-1.3127033e-60
4.7246969e-72
-2.7943278e-82
-2.9124212e-92
-5.2003707e-102
-2.5432145e-111
-8.5940348e-120
3.158123e-128
-8.7371317e-137
2.4790349e-145
-7.2650878e-154
2.1672967e-162
-6.5521005e-171
2.0012386e-179
-6.1676151e-188
1.9183898e-196
-6.0132334e-205
1.8903302e-213
-5.9594612e-222
1.8818403e-230
-5.9493757e-239
1.8724687e-247
-5.8771093e-256
1.8322587e-264
-5.3617909e-273
1.6467288e-273
5.224598e-273
1.4354812e-271
1.3847514e-272
1.1108708e-272
6.0750224e-272
-7.8043822e-272
9.3927098e-274
-3.5140169e-268
7.996179e-264
3.8280391e-270
-3.0656053e-10
4.7882005e-23
-6.936415e-36
1.6827856e-48
-1.1502484e-60
4.0301743e-72
-7.8892855e-82
-4.3624206e-92
-5.0126271e-102
-1.8355634e-111
-4.666533e-120
2.020553e-128
-6.6864128e-137
2.3910722e-145
-9.0715816e-154
3.5704051e-162
-1.4495061e-170
6.0243216e-179
-2.5499696e-187
1.0993046e-195
-4.7784948e-204
2.0946528e-212
-9.1985126e-221
4.038786e-229
-1.7608784e-237
7.6018278e-246
-3.2193209e-254
1.3346066e-262
-5.402221e-271
2.114745e-279
-1.9693991e-281
-5.191185e-280
-4.7888727e-281
-3.6665872e-281
-1.96293e-280
2.6759829e-280
-4.3304401e-282
-4.6207774e-275
8.487545e-272
1.9255831e-277
-3.0708393e-10
4.7399144e-23
-6.6842925e-36
1.5511646e-48
-1.0132051e-60
3.9216701e-72
1.043229e-82
2.5583949e-93
1.6726152e-103
4.5991845e-113
1.2015362e-121
-6.865177e-130
3.9070032e-138
-2.8812e-146
2.5111697e-154
-2.415493e-162
2.5213475e-170
-2.8534856e-178
3.4493477e-186
-4.3693701e-194
5.6651678e-202
-7.5203991e-210
9.9861854e-218
-1.2980658e-225
1.6480226e-233
-1.9927637e-241
2.2502278e-249
-2.3478917e-257
2.2602437e-265
-1.944397e-273
1.4977535e-281
3.4156368e-288
2.8209251e-289
1.8772852e-289
9.0809577e-289
-1.3176728e-288
4.5241715e-290
3.1146419e-283
8.8856268e-280
1.4258029e-284
-3.0934758e-10
4.7596127e-23
-6.5571933e-36
1.4555643e-48
-9.1185112e-61
4.3666059e-72
4.2178369e-83
5.5946602e-94
2.2209813e-104
4.5881225e-114
1.6989582e-122
-1.3004258e-130
9.8200369e-138
1.9619805e-145
2.7532552e-153
3.3914073e-161
3.7980642e-169
4.0342079e-177
4.0660303e-185
3.9623279e-193
3.780013e-201
3.5759939e-209
3.4127247e-217
3.3136319e-225
3.2922841e-233
3.4362084e-241
3.7747967e-249
4.5352279e-257
6.1073026e-265
9.7596387e-273
2.06499e-280
6.9854464e-288
1.3580488e-294
-7.5458218e-297
-1.709371e-296
2.6995528e-296
1.3372774e-297
1.3800582e-291
1.0280028e-287
1.8237625e-291
-3.1313291e-10
4.8539412e-23
-6.6020212e-36
1.4119158e-48
-8.4972389e-61
5.3754031e-72
3.0716838e-83
2.6855475e-94
7.3138679e-105
1.1623513e-114
1.0230038e-122
-8.8953526e-131
-6.1385818e-139
-2.6417608e-147
-1.0563997e-155
-4.1134441e-164
-1.5720897e-172
-5.9298368e-181
-2.2142238e-189
-8.193883e-198
-3.0273473e-206
-1.1156962e-214
-4.1152214e-223
-1.5193264e-231
-5.5854688e-240
-1.9923324e-248
-6.2231798e-257
-6.6540764e-266
2.201642e-273
5.0470594e-281
1.1309521e-288
3.8202476e-296
7.2334076e-303
-4.5233298e-305
-1.2375844e-304
2.8585755e-304
7.2252992e-306
4.1351343e-300
1.4528915e-295
1.568332e-297
-3.1792454e-10
5.0131502e-23
-6.8312861e-36
1.4264006e-48
-8.2622997e-61
6.4410172e-72
2.7915951e-83
1.8936006e-94
4.0159433e-105
5.170629e-115
-4.4267255e-121
3.6074663e-129
1.3936119e-137
3.7671027e-146
9.8205888e-155
2.5537915e-163
6.6224716e-172
1.7148288e-180
4.4296847e-189
1.145144e-197
2.9589777e-206
7.6676684e-215
1.992324e-223
5.1836602e-232
1.3521519e-240
3.5402583e-249
9.3286032e-258
2.4749306e-266
6.6150231e-275
1.7852774e-283
4.8792434e-292
1.3615304e-300
3.9249225e-309
-9.386893e-314
-3.1674414e-313
1.1138278e-312
-8.9499683e-314
-7.3162335e-309
2.8931465e-303
-5.0969182e-304
-3.2308575e-10
5.2164524e-23
-7.2312005e-36
1.4993576e-48
-8.3926247e-61
6.264269e-72
2.464789e-83
1.4892101e-94
2.7702877e-105
3.1044398e-115
-1.9755206e-122
1.450504e-130
4.602708e-139
1.0514149e-147
2.3542172e-156
5.3125152e-165
1.2067362e-173
2.7584375e-182
6.3275069e-191
1.4561348e-199
3.3614148e-208
7.7671408e-217
1.7977823e-225
4.1726191e-234
9.6796783e-243
2.242747e-251
5.1898512e-260
1.1994901e-268
2.7634334e-277
6.3394668e-286
1.4509829e-294
3.3076539e-303
7.5368603e-312
3.6047719e-314
5.0303733e-314
5.4327552e-314
8.2637261e-314
4.0482165e-314
9.8883914e-311
7.3324358e-311
-3.280158e-10
5.4372334e-23
-7.7655364e-36
1.6270502e-48
-8.8632669e-61
4.9967443e-72
2.0881082e-83
1.2701367e-94
2.3131371e-105
2.4478066e-115
3.2364178e-123
-2.3639226e-131
-7.6507362e-140
-1.7710557e-148
-4.0418029e-157
-9.3789879e-166
-2.2059016e-174
-5.2448475e-183
-1.25705e-191
-3.0361733e-200
-7.3688661e-209
-1.7952426e-217
-4.3709912e-226
-1.0640374e-234
-2.5850879e-243
-6.2555529e-252
-1.5045404e-260
-3.5837935e-269
-8.459527e-278
-1.9688981e-286
-4.5121721e-295
-1.0144553e-303
-2.5185954e-312
-4.4332454e-315
1.8639511e-314
3.4173971e-314
6.4574612e-314
-4.6817439e-314
-6.3051986e-314
2.3070141e-312
-3.3226751e-10
5.6488196e-23
-8.3782049e-36
1.8010443e-48
-9.6425953e-61
3.8712691e-72
2.0200809e-83
1.3865822e-94
2.73764e-105
2.9769072e-115
1.3106789e-123
-1.0663541e-131
-4.1166796e-140
-1.1164554e-148
-2.9964706e-157
-8.2228894e-166
-2.3031521e-174
-6.5607626e-183
-1.8933703e-191
-5.5077751e-200
-1.6153142e-208
-4.7390794e-217
-1.3943069e-225
-4.0985049e-234
-1.1990593e-242
-3.4827684e-251
-1.0006476e-259
-2.8361984e-268
-7.8809341e-277
-2.2583539e-285
3.9296584e-293
-4.8173387e-299
-8.3615896e-305
-2.1058915e-311
4.5643286e-314
-3.6977028e-314
7.2688327e-314
1.8251431e-313
2.2331826e-312
-9.0583414e-313
-3.3560366e-10
5.8302312e-23
-9.0003548e-36
2.0069015e-48
-1.0681854e-60
3.2070689e-72
2.5800066e-83
2.2376476e-94
5.2736772e-105
6.4045843e-115
1.7184064e-123
-1.7731315e-131
-9.5710684e-140
-3.4996526e-148
-1.2649799e-156
-4.7205848e-165
-1.8099599e-173
-7.0768103e-182
-2.8162286e-190
-1.1347201e-198
-4.6029365e-207
-1.8777804e-215
-7.6676717e-224
-3.1284453e-232
-1.2671979e-240
-5.0756147e-249
-1.7764199e-257
-4.6186958e-265
1.0206046e-271
-2.6405615e-278
1.1087791e-284
-1.2092612e-290
-2.1380247e-296
-5.5252534e-303
-8.7507913e-310
9.78264e-314
1.036121e-313
-1.8373879e-314
-1.0353278e-313
3.0349437e-313
-3.3798901e-10
5.9700399e-23
-9.5645488e-36
2.2244913e-48
-1.1905701e-60
2.8818698e-72
5.5118945e-83
6.8348545e-94
2.1122334e-104
3.1067393e-114
6.7468908e-123
-9.8695692e-131
-9.0768744e-139
-5.2473555e-147
-2.992564e-155
-1.7780349e-163
-1.09375e-171
-6.9052367e-180
-4.4737067e-188
-2.930566e-196
-1.9457522e-204
-1.2922367e-212
-8.616445e-221
-5.9196772e-229
1.4305075e-237
-1.0974889e-243
2.767815e-250
-4.8059146e-257
1.3065815e-263
-3.4245106e-270
1.4704899e-276
-1.6546902e-282
-3.0103956e-288
-8.05972e-295
-1.3011167e-301
-2.2008566e-308
4.6165179e-314
1.1086863e-313
-2.2719101e-313
-2.7755838e-313
-3.3953717e-10
6.0669079e-23
-1.0021889e-35
2.4314251e-48
-1.3212523e-60
2.7661105e-72
-2.2301975e-82
-4.6437106e-93
-2.073886e-103
-3.9994098e-113
-8.4074075e-122
1.9131261e-129
4.2854429e-137
4.9261788e-145
5.5017592e-153
6.4602055e-161
7.9597494e-169
1.0245046e-176
1.3540185e-184
1.8434945e-192
2.571065e-200
3.737714e-208
6.052683e-216
1.2699128e-223
3.8501033e-231
1.4759454e-238
6.6776037e-246
2.1928753e-253
1.3027915e-260
-2.8036837e-268
1.2118847e-274
-2.5273439e-281
-3.1929725e-286
6.5394321e-292
-6.394783e-299
-8.5987125e-306
-1.6523281e-312
-7.5846326e-314
9.5514365e-315
-2.2251257e-313
-3.4043757e-10
6.1269825e-23
-1.0353057e-35