/*--------------------------------*- C++ -*----------------------------------*\
  =========                 |
  \\      /  F ield         | OpenFOAM: The Open Source CFD Toolbox
   \\    /   O peration     | Website:  https://openfoam.org
    \\  /    A nd           | Version:  10
     \\/     M anipulation  |
\*---------------------------------------------------------------------------*/
FoamFile
{
    format      ascii;
    class       volVectorField;
    location    "0.08";
    object      U;
}
// * * * * * * * * * * * * * * * * * * * * * * * * * * * * * * * * * * * * * //

dimensions      [0 1 -1 0 0 0 0];

internalField   nonuniform List<vector> 
4000
(
(0 0.018629637 0.47773546)
(0 0.023495407 0.50885844)
(0 0.0081535197 0.50052572)
(0 0.0056013703 0.50033673)
(0 0.004240478 0.50025755)
(0 0.0032405057 0.50016898)
(0 0.0025418049 0.50011963)
(0 0.0020407153 0.50009002)
(0 0.0016633565 0.50006965)
(0 0.0013698597 0.5000552)
(0 0.0011358253 0.50004476)
(0 0.00094489224 0.50003707)
(0 0.000785787 0.50003131)
(0 0.00065051672 0.50002696)
(0 0.00053323757 0.50002366)
(0 0.00042955471 0.50002117)
(0 0.00033606778 0.50001931)
(0 0.00025006256 0.50001797)
(0 0.00016929477 0.50001707)
(0 9.1831057e-05 0.50001655)
(0 1.5927427e-05 0.5000164)
(0 -6.0080018e-05 0.5000166)
(0 -0.00013786564 0.50001716)
(0 -0.00021920612 0.50001812)
(0 -0.00030609322 0.50001953)
(0 -0.0004008636 0.50002149)
(0 -0.00050637139 0.50002412)
(0 -0.0006262281 0.5000276)
(0 -0.00076515103 0.50003222)
(0 -0.00092949409 0.50003836)
(0 -0.0011280999 0.50004665)
(0 -0.0013736673 0.50005805)
(0 -0.0016849937 0.50007401)
(0 -0.0020924848 0.50009704)
(0 -0.0026521377 0.50013485)
(0 -0.003446327 0.50020256)
(0 -0.0045401193 0.50027203)
(0 -0.0065649501 0.50043447)
(0 -0.017638696 0.50675111)
(0 -0.013579411 0.4797615)
(0 0.037411041 0.44799578)
(0 0.050911441 0.53232329)
(0 0.021925096 0.50804351)
(0 0.016093403 0.50357586)
(0 0.012371013 0.50242401)
(0 0.0094703259 0.50162297)
(0 0.0074755957 0.50115602)
(0 0.0060262152 0.50086481)
(0 0.0049229442 0.50066644)
(0 0.0040611595 0.50052706)
(0 0.0033718253 0.50042676)
(0 0.0028079264 0.50035297)
(0 0.0023370299 0.50029783)
(0 0.0019359992 0.50025621)
(0 0.0015878264 0.50022468)
(0 0.001279673 0.50020086)
(0 0.0010015747 0.50018312)
(0 0.00074555645 0.50017034)
(0 0.00050500936 0.50016175)
(0 0.00027422975 0.50015685)
(0 4.8064609e-05 0.50015539)
(0 -0.00017839994 0.50015727)
(0 -0.00041010924 0.50016263)
(0 -0.00065231063 0.50017177)
(0 -0.00091087688 0.50018525)
(0 -0.001192684 0.50020391)
(0 -0.0015061094 0.50022899)
(0 -0.0018617213 0.50026229)
(0 -0.0022732724 0.50030645)
(0 -0.0027591879 0.50036536)
(0 -0.0033449437 0.50044499)
(0 -0.0040670385 0.50055481)
(0 -0.0049787101 0.50070996)
(0 -0.0061600126 0.50093605)
(0 -0.0077599853 0.50129471)
(0 -0.010055032 0.5019122)
(0 -0.013040931 0.50282954)
(0 -0.017360486 0.50608368)
(0 -0.038694878 0.52526386)
(0 -0.027863612 0.45025753)
(0 0.039855441 0.40989252)
(0 0.061351837 0.5493168)
(0 0.031901076 0.52188016)
(0 0.024279895 0.51008576)
(0 0.019113816 0.50659084)
(0 0.014896832 0.50452789)
(0 0.011927699 0.50326951)
(0 0.0096953826 0.50245499)
(0 0.0079636538 0.50189638)
(0 0.0065966914 0.50150289)
(0 0.0054941332 0.50121871)
(0 0.0045863346 0.50100911)
(0 0.0038244578 0.50085223)
(0 0.003173017 0.50073368)
(0 0.0026055978 0.50064375)
(0 0.0021020742 0.50057578)
(0 0.0016467028 0.50052512)
(0 0.0012268022 0.5004886)
(0 0.00083180735 0.50046403)
(0 0.00045256295 0.50045002)
(0 8.0773363e-05 0.50044582)
(0 -0.00029147891 0.5004512)
(0 -0.00067216173 0.50046651)
(0 -0.0010697163 0.50049263)
(0 -0.0014935575 0.50053113)
(0 -0.0019546576 0.50058438)
(0 -0.0024663041 0.50065591)
(0 -0.0030451328 0.5007508)
(0 -0.0037125946 0.50087649)
(0 -0.0044970717 0.5010439)
(0 -0.0054370888 0.50126963)
(0 -0.0065868266 0.50157984)
(0 -0.0080237474 0.50201673)
(0 -0.0098522838 0.50264881)
(0 -0.012245414 0.50361579)
(0 -0.015591927 0.50520367)
(0 -0.019755708 0.50786371)
(0 -0.025064767 0.51641411)
(0 -0.047304635 0.5391381)
(0 -0.030803769 0.41499126)
(0 0.03475074 0.36187161)
(0 0.063728627 0.5546038)
(0 0.039250128 0.53746576)
(0 0.02996755 0.51849823)
(0 0.023993161 0.51198122)
(0 0.019159928 0.50849875)
(0 0.01561876 0.50626001)
(0 0.012840694 0.50474816)
(0 0.010635801 0.50369454)
(0 0.008867106 0.50294399)
(0 0.0074213937 0.50239697)
(0 0.0062188481 0.50199098)
(0 0.005201522 0.5016857)
(0 0.0043260317 0.50145419)
(0 0.0035594476 0.50127807)
(0 0.0028762838 0.50114465)
(0 0.0022563415 0.50104506)
(0 0.0016831749 0.50097315)
(0 0.0011429638 0.50092473)
(0 0.00062365128 0.50089709)
(0 0.00011426212 0.50088877)
(0 -0.00039569986 0.50089936)
(0 -0.00091679632 0.50092949)
(0 -0.0014601822 0.5009809)
(0 -0.0020382317 0.50105659)
(0 -0.0026652573 0.50116116)
(0 -0.0033584204 0.50130135)
(0 -0.0041389411 0.50148689)
(0 -0.0050337664 0.50173182)
(0 -0.0060778737 0.50205667)
(0 -0.0073173677 0.502492)
(0 -0.0088147531 0.50308488)
(0 -0.010657742 0.50391018)
(0 -0.012953412 0.50508448)
(0 -0.015837624 0.50680746)
(0 -0.019713895 0.50947541)
(0 -0.024553467 0.51428836)
(0 -0.03092146 0.52824562)
(0 -0.050152814 0.54412519)
(0 -0.028371731 0.37260004)
(0 0.027378499 0.31507432)
(0 0.062170241 0.55033964)
(0 0.044428204 0.55146076)
(0 0.033816834 0.52748961)
(0 0.02729893 0.51772719)
(0 0.022290592 0.51291792)
(0 0.018475739 0.50972342)
(0 0.015372875 0.50747954)
(0 0.012858955 0.50588249)
(0 0.010804751 0.50472566)
(0 0.0090986661 0.50387159)
(0 0.0076616569 0.50323174)
(0 0.0064335512 0.50274716)
(0 0.0053677605 0.50237761)
(0 0.0044280905 0.50209525)
(0 0.0035859448 0.50188059)
(0 0.0028182607 0.50171993)
(0 0.0021059913 0.50160367)
(0 0.0014329422 0.50152524)
(0 0.00078485738 0.50148041)
(0 0.00014867935 0.50146686)
(0 -0.00048811489 0.50148395)
(0 -0.0011381237 0.50153267)
(0 -0.0018145987 0.50161574)
(0 -0.0025321354 0.50173788)
(0 -0.0033074463 0.50190627)
(0 -0.0041603118 0.50213137)
(0 -0.0051147961 0.50242812)
(0 -0.0062008609 0.50281786)
(0 -0.0074565312 0.50333133)
(0 -0.0089303716 0.5040133)
(0 -0.010685161 0.50493044)
(0 -0.012808129 0.50618578)
(0 -0.015403766 0.50793457)
(0 -0.018560282 0.5104037)
(0 -0.022640046 0.51406537)
(0 -0.027925206 0.52115721)
(0 -0.035430177 0.53932207)
(0 -0.05025093 0.54168799)
(0 -0.024005773 0.33092168)
(0 0.019789597 0.27553467)
(0 0.057811905 0.53993578)
(0 0.047114332 0.5625651)
(0 0.036252347 0.53659588)
(0 0.029417886 0.52351013)
(0 0.024460195 0.51739897)
(0 0.020563483 0.51334942)
(0 0.017307204 0.51042331)
(0 0.014622556 0.50829647)
(0 0.012388067 0.50672839)
(0 0.010501985 0.50555439)
(0 0.0088920807 0.50466528)
(0 0.0075005069 0.50398604)
(0 0.0062812043 0.50346441)
(0 0.0051975366 0.50306362)
(0 0.0042198768 0.50275758)
(0 0.0033238551 0.50252771)
(0 0.0024890073 0.50236091)
(0 0.0016976927 0.50224814)
(0 0.00093421317 0.50218355)
(0 0.00018408467 0.50216392)
(0 -0.00056663085 0.50218837)
(0 -0.0013319521 0.50225827)
(0 -0.0021265538 0.50237738)
(0 -0.0029664666 0.5025522)
(0 -0.0038698313 0.50279256)
(0 -0.0048578022 0.50311269)
(0 -0.0059556558 0.50353267)
(0 -0.0071941905 0.50408082)
(0 -0.0086116293 0.5047972)
(0 -0.010255597 0.50573901)
(0 -0.012184797 0.50698874)
(0 -0.014479867 0.50866984)
(0 -0.017243439 0.51096449)
(0 -0.020530172 0.51411603)
(0 -0.024636613 0.51874008)
(0 -0.030167359 0.52823104)
(0 -0.038254072 0.54872311)
(0 -0.048221455 0.53424196)
(0 -0.018975408 0.2944802)
(0 0.013033483 0.24301295)
(0 0.051588325 0.52551627)
(0 0.047390527 0.57027141)
(0 0.037459928 0.54550034)
(0 0.030569954 0.5292852)
(0 0.02579871 0.52179288)
(0 0.021970477 0.51697641)
(0 0.018697336 0.51344119)
(0 0.015951501 0.51082358)
(0 0.013624447 0.50886312)
(0 0.011629447 0.50737636)
(0 0.0099036269 0.5062382)
(0 0.0083940926 0.50536076)
(0 0.0070578631 0.50468184)
(0 0.0058599323 0.50415697)
(0 0.0047712999 0.50375418)
(0 0.0037676172 0.50345042)
(0 0.0028280692 0.50322929)
(0 0.001934439 0.50307941)
(0 0.0010703221 0.50299336)
(0 0.00022045893 0.50296705)
(0 -0.00062988989 0.50299934)
(0 -0.0014955455 0.50309199)
(0 -0.0023919423 0.50324975)
(0 -0.0033357922 0.50348084)
(0 -0.0043457684 0.50379763)
(0 -0.0054433076 0.50421781)
(0 -0.0066535596 0.50476615)
(0 -0.0080065107 0.50547708)
(0 -0.0095385644 0.50639858)
(0 -0.011294324 0.50759805)
(0 -0.013326518 0.50917064)
(0 -0.015705092 0.51125467)
(0 -0.018526345 0.51405034)
(0 -0.021822765 0.51782765)
(0 -0.025833886 0.52347052)
(0 -0.031400894 0.53535522)
(0 -0.039272216 0.55591417)
(0 -0.044543494 0.52325867)
(0 -0.01398993 0.26339736)
(0 0.0077192635 0.21613509)
(0 0.044583545 0.50849265)
(0 0.04586133 0.57444851)
(0 0.037653887 0.55370688)
(0 0.030934305 0.53494391)
(0 0.026425908 0.5260139)
(0 0.022784433 0.52050612)
(0 0.01960324 0.51644144)
(0 0.016883012 0.51338271)
(0 0.014535594 0.51106112)
(0 0.012492302 0.50928075)
(0 0.010700743 0.50790417)
(0 0.0091147014 0.50683366)
(0 0.0076959447 0.50599918)
(0 0.0064124951 0.50535001)
(0 0.0052371925 0.50484923)
(0 0.0041467499 0.50446998)
(0 0.0031208821 0.50419295)
(0 0.0021415497 0.50400465)
(0 0.0011923032 0.50389625)
(0 0.00025770813 0.50386286)
(0 -0.00067720272 0.50390311)
(0 -0.0016274772 0.50401911)
(0 -0.0026087009 0.50421653)
(0 -0.0036375951 0.50450512)
(0 -0.0047325985 0.50489951)
(0 -0.0059145388 0.50542043)
(0 -0.0072074064 0.50609668)
(0 -0.0086391902 0.5069678)
(0 -0.010243049 0.5080882)
(0 -0.012059011 0.50953346)
(0 -0.014132758 0.51140901)
(0 -0.016520954 0.5138642)
(0 -0.019306436 0.51710902)
(0 -0.022506696 0.521457)
(0 -0.026340067 0.52816838)
(0 -0.031779003 0.54216926)
(0 -0.03879371 0.56056226)
(0 -0.039913444 0.50975739)
(0 -0.0095990585 0.23685262)
(0 0.0039529399 0.19429996)
(0 0.037625196 0.49018112)
(0 0.043211756 0.57538132)
(0 0.03708527 0.56077986)
(0 0.030714789 0.54032281)
(0 0.026494057 0.52998271)
(0 0.023108109 0.52385506)
(0 0.020093349 0.51934713)
(0 0.017463195 0.51590678)
(0 0.015152477 0.51326439)
(0 0.013110571 0.51121779)
(0 0.011295727 0.50962095)
(0 0.0096694308 0.50836904)
(0 0.0081991532 0.50738625)
(0 0.0068568058 0.50661706)
(0 0.0056178967 0.50602064)
(0 0.004460956 0.50556702)
(0 0.0033669048 0.5052345)
(0 0.0023184906 0.50500782)
(0 0.0012997748 0.50487694)
(0 0.00029566785 0.50483628)
(0 -0.00070852296 0.50488429)
(0 -0.0017275673 0.50502334)
(0 -0.0027766772 0.50525992)
(0 -0.0038720197 0.50560509)
(0 -0.0050311809 0.50607536)
(0 -0.0062736909 0.50669403)
(0 -0.0076216181 0.50749311)
(0 -0.0091001384 0.50851625)
(0 -0.010738235 0.50982285)
(0 -0.01257025 0.51149464)
(0 -0.014634314 0.51364476)
(0 -0.016973566 0.51642965)
(0 -0.019653538 0.52006203)
(0 -0.022683787 0.52492031)
(0 -0.026297732 0.53269573)
(0 -0.031487694 0.54830074)
(0 -0.037252329 0.56268028)
(0 -0.034934503 0.49477156)
(0 -0.006083319 0.21452197)
(0 0.0014982015 0.17703975)
(0 0.031191762 0.47171504)
(0 0.039969512 0.57363585)
(0 0.03596937 0.56651494)
(0 0.030097324 0.54530832)
(0 0.02616198 0.53365698)
(0 0.023052989 0.5269663)
(0 0.020244604 0.52209914)
(0 0.017746392 0.51834248)
(0 0.015513392 0.51542558)
(0 0.01351081 0.51314567)
(0 0.011706747 0.51135189)
(0 0.010070521 0.50993498)
(0 0.0085755518 0.50881525)
(0 0.007198028 0.50793379)
(0 0.005916603 0.50724691)
(0 0.00471211 0.5067223)
(0 0.0035671499 0.50633639)
(0 0.0024657125 0.50607253)
(0 0.0013928066 0.5059197)
(0 0.00033410773 0.50587176)
(0 -0.00072438837 0.505927)
(0 -0.0017967577 0.50608804)
(0 -0.0028974136 0.506362)
(0 -0.0040415264 0.50676101)
(0 -0.0052453654 0.50730308)
(0 -0.0065266765 0.50801347)
(0 -0.0079051014 0.50892669)
(0 -0.0094025321 0.51008939)
(0 -0.011043373 0.51156455)
(0 -0.012855838 0.51343802)
(0 -0.014870659 0.51582786)
(0 -0.017119028 0.51889362)
(0 -0.019649504 0.52284831)
(0 -0.022470717 0.52816242)
(0 -0.025848898 0.53695012)
(0 -0.030687655 0.5535258)
(0 -0.035019148 0.56256408)
(0 -0.030005376 0.47924847)
(0 -0.0034652024 0.19618483)
(0 2.375045e-05 0.16360781)
(0 0.025526215 0.45386473)
(0 0.036501988 0.56983413)
(0 0.034476347 0.57089363)
(0 0.029220384 0.54984992)
(0 0.025561022 0.53703853)
(0 0.022720216 0.52982111)
(0 0.020132514 0.52466502)
(0 0.017789139 0.52065517)
(0 0.015659999 0.51751084)
(0 0.013723316 0.51503256)
(0 0.011955708 0.5130678)
(0 0.010333683 0.51150507)
(0 0.0088362824 0.51026241)
(0 0.0074439569 0.50927881)
(0 0.006138664 0.50850868)
(0 0.0049037784 0.50791811)
(0 0.0037238641 0.5074822)
(0 0.0025844585 0.50718323)
(0 0.0014718311 0.50700949)
(0 0.00037273814 0.5069544)
(0 -0.00072581946 0.50701612)
(0 -0.0018369051 0.50719747)
(0 -0.0029738146 0.50750604)
(0 -0.0041504028 0.50795476)
(0 -0.0053813092 0.50856274)
(0 -0.0066822039 0.50935667)
(0 -0.0080700453 0.51037278)
(0 -0.0095632843 0.51165973)
(0 -0.011181799 0.51328277)
(0 -0.012947868 0.51533015)
(0 -0.014885409 0.51792238)
(0 -0.017015709 0.52121907)
(0 -0.019372981 0.52543658)
(0 -0.02197124 0.53116601)
(0 -0.025107856 0.54087656)
(0 -0.02950883 0.55775784)
(0 -0.032386925 0.5606177)
(0 -0.02537642 0.46388303)
(0 -0.0016303543 0.18138205)
(0 -0.00076958801 0.15318219)
(0 0.020723618 0.43706621)
(0 0.033058455 0.56453173)
(0 0.032748213 0.57399317)
(0 0.02818297 0.55392634)
(0 0.024788953 0.54014914)
(0 0.02219211 0.53242828)
(0 0.019823013 0.52703557)
(0 0.0176436 0.52282764)
(0 0.015632684 0.51949955)
(0 0.013778903 0.51685669)
(0 0.012065902 0.51474714)
(0 0.010476353 0.51305868)
(0 0.0089942617 0.51170835)
(0 0.0076040449 0.51063406)
(0 0.0062908751 0.50978916)
(0 0.0050407033 0.50913875)
(0 0.0038401758 0.50865706)
(0 0.0026765465 0.5083257)
(0 0.0015375437 0.50813245)
(0 0.00041121835 0.50807042)
(0 -0.00071420276 0.5081377)
(0 -0.0018505473 0.50833721)
(0 -0.0030097779 0.5086769)
(0 -0.0042042313 0.50917024)
(0 -0.0054467436 0.50983707)
(0 -0.0067507848 0.51070499)
(0 -0.0081305829 0.51181129)
(0 -0.0096012262 0.51320579)
(0 -0.0111784 0.51495495)
(0 -0.012879017 0.51714814)
(0 -0.014720953 0.51990647)
(0 -0.016717433 0.5233878)
(0 -0.018891881 0.52781889)
(0 -0.02126919 0.53393367)
(0 -0.024163864 0.54444209)
(0 -0.028065551 0.56099221)
(0 -0.029586166 0.55724489)
(0 -0.021199573 0.44911977)
(0 -0.00042087382 0.16952824)
(0 -0.0011183199 0.14506723)
(0 0.016774106 0.42153839)
(0 0.029793328 0.55819485)
(0 0.030901634 0.57593946)
(0 0.027057497 0.55752969)
(0 0.023917465 0.54301203)
(0 0.021533738 0.53480846)
(0 0.019370711 0.52921523)
(0 0.01735472 0.52485458)
(0 0.015467808 0.52138107)
(0 0.013706548 0.51860445)
(0 0.01206012 0.51637486)
(0 0.010516222 0.51458032)
(0 0.0090630524 0.51313772)
(0 0.0076885446 0.51198464)
(0 0.0063808334 0.51107402)
(0 0.0051283362 0.51037046)
(0 0.0039197724 0.50984774)
(0 0.0027441691 0.50948708)
(0 0.0015908112 0.50927593)
(0 0.00044916635 0.50920725)
(0 -0.00069117913 0.50927903)
(0 -0.0018406821 0.50949429)
(0 -0.0030098492 0.50986117)
(0 -0.0042093982 0.51039344)
(0 -0.0054503012 0.51111139)
(0 -0.0067438349 0.5120431)
(0 -0.0081015974 0.51322634)
(0 -0.0095355438 0.51471145)
(0 -0.011057631 0.51656531)
(0 -0.012680148 0.51887753)
(0 -0.014415805 0.52176852)
(0 -0.016271453 0.52539372)
(0 -0.018263572 0.52999937)
(0 -0.020432015 0.53647327)
(0 -0.023088645 0.547625)
(0 -0.026458541 0.56327764)
(0 -0.026786123 0.55281568)
(0 -0.017547469 0.4352301)
(0 0.00032093427 0.16007985)
(0 -0.0011955708 0.13871343)
(0 0.01359985 0.40736704)
(0 0.026785424 0.55120511)
(0 0.029023267 0.57688498)
(0 0.025894719 0.56066646)
(0 0.022997675 0.54564833)
(0 0.020795555 0.53698615)
(0 0.018819781 0.53121535)
(0 0.016960057 0.52673775)
(0 0.015196874 0.52315146)
(0 0.013532264 0.52026822)
(0 0.011959504 0.51794103)
(0 0.010470225 0.51605875)
(0 0.0090560259 0.51453865)
(0 0.0077078367 0.5133185)
(0 0.0064164162 0.51235126)
(0 0.0051724478 0.51160143)
(0 0.0039666259 0.51104265)
(0 0.0027897214 0.51065594)
(0 0.0016325927 0.51042865)
(0 0.00048616942 0.5103536)
(0 -0.00065854358 0.51042877)
(0 -0.0018105727 0.5106572)
(0 -0.0029789233 0.5110471)
(0 -0.0041726756 0.51161239)
(0 -0.0054009638 0.5123735)
(0 -0.0066729676 0.51335865)
(0 -0.0079978512 0.51460574)
(0 -0.0093847546 0.51616507)
(0 -0.010842427 0.51810343)
(0 -0.012379322 0.52051)
(0 -0.014003951 0.52350373)
(0 -0.015718414 0.5272381)
(0 -0.017535836 0.53198836)
(0 -0.019512944 0.53879479)
(0 -0.021938146 0.55041746)
(0 -0.02476925 0.56470154)
(0 -0.02409661 0.54765608)
(0 -0.014430435 0.42236926)
(0 0.0007325259 0.15257711)
(0 -0.0011193942 0.13368337)
(0 0.011090143 0.39454962)
(0 0.024061328 0.54386402)
(0 0.027170467 0.57698937)
(0 0.024726366 0.56335657)
(0 0.022063097 0.54807789)
(0 0.020014672 0.53898689)
(0 0.018204701 0.53305125)
(0 0.016490139 0.52848338)
(0 0.014846432 0.5248113)
(0 0.013278685 0.52184471)
(0 0.011783002 0.51943968)
(0 0.010353958 0.51748624)
(0 0.0089858073 0.51590233)
(0 0.0076719461 0.51462621)
(0 0.0064053831 0.51361114)
(0 0.0051788191 0.51282179)
(0 0.0039847688 0.51223186)
(0 0.0028156575 0.5118224)
(0 0.0016638738 0.5115807)
(0 0.00052179415 0.5114996)
(0 -0.00061815928 0.51157702)
(0 -0.0017635831 0.51181599)
(0 -0.002921998 0.51222472)
(0 -0.0041008887 0.5128171)
(0 -0.0053076399 0.51361352)
(0 -0.0065494888 0.51464209)
(0 -0.0078334152 0.51594049)
(0 -0.0091661071 0.51755871)
(0 -0.010553635 0.51956302)
(0 -0.012001387 0.52204187)
(0 -0.013514617 0.52511225)
(0 -0.015092206 0.52892732)
(0 -0.016746826 0.53380022)
(0 -0.018551567 0.54091046)
(0 -0.020752995 0.5528259)
(0 -0.023057836 0.56537315)
(0 -0.021578928 0.54204005)
(0 -0.01181776 0.41060691)
(0 0.00092273208 0.14662946)
(0 -0.00096613964 0.12963435)
(0 0.0091263124 0.38302706)
(0 0.02161631 0.53640038)
(0 0.025376937 0.5764034)
(0 0.023569529 0.56562765)
(0 0.021133195 0.55031818)
(0 0.019216411 0.54083503)
(0 0.017551048 0.53474008)
(0 0.015968885 0.53010054)
(0 0.014438173 0.52636422)
(0 0.012964945 0.52333373)
(0 0.011547103 0.52086783)
(0 0.010181352 0.51885786)
(0 0.0088639353 0.51722248)
(0 0.0075902197 0.51590059)
(0 0.0063550937 0.51484591)
(0 0.005153011 0.51402345)
(0 0.0039781212 0.5134071)
(0 0.0028243778 0.51297806)
(0 0.0016856154 0.51272369)
(0 0.00055559322 0.51263681)
(0 -0.00057189022 0.51271535)
(0 -0.0017030483 0.51296229)
(0 -0.0028439834 0.51338575)
(0 -0.0040006666 0.5139995)
(0 -0.0051788622 0.51482372)
(0 -0.0063840522 0.51588623)
(0 -0.0076213024 0.51722432)
(0 -0.0088952185 0.51888742)
(0 -0.01020969 0.52094115)
(0 -0.01156772 0.52347294)
(0 -0.012972143 0.52659788)
(0 -0.014419975 0.5304712)
(0 -0.015925461 0.53545114)
(0 -0.017575445 0.54283323)
(0 -0.019560758 0.55486661)
(0 -0.021365725 0.56540708)
(0 -0.019259975 0.5361871)
(0 -0.0096560651 0.39995086)
(0 0.00097210539 0.14190792)
(0 -0.00078356022 0.12630885)
(0 0.0075957769 0.37271029)
(0 0.01942882 0.52898262)
(0 0.023659095 0.57526088)
(0 0.022431429 0.5675098)
(0 0.020217507 0.55238278)
(0 0.018416723 0.54255144)
(0 0.016876883 0.53629875)
(0 0.015414367 0.53159951)
(0 0.013989282 0.52781565)
(0 0.012606785 0.52473717)
(0 0.011265806 0.52222472)
(0 0.0099645432 0.52017084)
(0 0.0087006853 0.51849491)
(0 0.0074711369 0.51713642)
(0 0.0062723288 0.51604965)
(0 0.0051002104 0.51519999)
(0 0.0039503724 0.51456166)
(0 0.0028181496 0.51411603)
(0 0.0016987135 0.51385058)
(0 0.00058711869 0.5137582)
(0 -0.00052154313 0.51383679)
(0 -0.0016321803 0.51408924)
(0 -0.0027495643 0.51452355)
(0 -0.003878267 0.51515328)
(0 -0.0050225835 0.51599829)
(0 -0.0061864391 0.51708602)
(0 -0.0073732507 0.51845323)
(0 -0.0085858867 0.52014871)
(0 -0.0098264907 0.52223732)
(0 -0.011096242 0.52480548)
(0 -0.012396233 0.52796667)
(0 -0.013722759 0.53188108)
(0 -0.015092795 0.5369568)
(0 -0.016602797 0.54457485)
(0 -0.018379133 0.5565609)
(0 -0.019719454 0.56491258)
(0 -0.017144119 0.53026699)
(0 -0.0078819566 0.39036919)
(0 0.00093775089 0.13814508)
(0 -0.00060043487 0.12352059)
(0 0.0063992075 0.36349918)
(0 0.017469584 0.52173236)
(0 0.022021431 0.57367698)
(0 0.021313138 0.5690329)
(0 0.019319145 0.55428098)
(0 0.01762474 0.5441523)
(0 0.016194444 0.53774232)
(0 0.014839889 0.5329904)
(0 0.013513079 0.52917166)
(0 0.012216898 0.52605808)
(0 0.010950765 0.52351102)
(0 0.0097139054 0.52142401)
(0 0.0085050298 0.51971701)
(0 0.007322235 0.51833006)
(0 0.0061632039 0.51721793)
(0 0.0050251489 0.51634647)
(0 0.0039049146 0.5156902)
(0 0.0027990664 0.51523074)
(0 0.0017039895 0.51495571)
(0 0.00061593074 0.51485806)
(0 -0.00046882849 0.51493568)
(0 -0.0015539901 0.51519136)
(0 -0.0026430992 0.51563292)
(0 -0.0037394584 0.51627365)
(0 -0.0048460516 0.51713306)
(0 -0.0059654399 0.51823811)
(0 -0.0070996358 0.519625)
(0 -0.0082500697 0.52134184)
(0 -0.0094174979 0.52345276)
(0 -0.010601708 0.52604324)
(0 -0.011802568 0.52922568)
(0 -0.013016549 0.53316829)
(0 -0.014263758 0.53833086)
(0 -0.015645182 0.54614491)
(0 -0.017218849 0.55793212)
(0 -0.018134331 0.56398839)
(0 -0.015222065 0.52440765)
(0 -0.0064304198 0.38180748)
(0 0.00085869617 0.13513115)
(0 -0.00043296522 0.12113837)
(0 0.0054535559 0.35529375)
(0 0.015707311 0.51473588)
(0 0.02046091 0.57174918)
(0 0.020212261 0.57022543)
(0 0.018437365 0.55601832)
(0 0.016844933 0.54564902)
(0 0.015511749 0.53908326)
(0 0.014255116 0.53428238)
(0 0.013019788 0.53043825)
(0 0.011805428 0.52730003)
(0 0.010611592 0.52472828)
(0 0.0094382056 0.5226173)
(0 0.0082847081 0.52088742)
(0 0.0071501247 0.51947913)
(0 0.0060331563 0.51834764)
(0 0.0049320785 0.51745919)
(0 0.0038448212 0.51678865)
(0 0.0027690352 0.51631786)
(0 0.0017021916 0.51603461)
(0 0.00064162005 0.51593191)
(0 -0.00041532029 0.51600762)
(0 -0.0014712345 0.51626443)
(0 -0.002528555 0.51670996)
(0 -0.0035894508 0.51735719)
(0 -0.0046557465 0.51822524)
(0 -0.0057288179 0.51934057)
(0 -0.0068094856 0.5207388)
(0 -0.0078979896 0.5224674)
(0 -0.0089939762 0.52458983)
(0 -0.010096158 0.52719072)
(0 -0.01120354 0.53038218)
(0 -0.012313408 0.53434319)
(0 -0.013448774 0.53958438)
(0 -0.014709704 0.54755088)
(0 -0.016086069 0.55900395)
(0 -0.01661787 0.56272084)
(0 -0.013477527 0.51870308)
(0 -0.0052404411 0.37420014)
(0 0.00076033671 0.1327055)
(0 -0.000289101 0.11907213)
(0 0.0046922996 0.34800022)
(0 0.014112159 0.50805311)
(0 0.018970553 0.56955921)
(0 0.019124988 0.57111381)
(0 0.017569489 0.55759734)
(0 0.016078858 0.54704868)
(0 0.014833932 0.54033124)
(0 0.013667079 0.53548328)
(0 0.012517284 0.53162094)
(0 0.01138049 0.52846663)
(0 0.010256194 0.52587856)
(0 0.0091448194 0.5237514)
(0 0.0080463485 0.52200572)
(0 0.0069605509 0.5205823)
(0 0.0058869672 0.51943672)
(0 0.004824774 0.51853557)
(0 0.00377284 0.51785402)
(0 0.002729769 0.51737416)
(0 0.0016939942 0.51708392)
(0 0.00066381679 0.51697636)
(0 -0.00036243813 0.51704933)
(0 -0.0013863915 0.51730539)
(0 -0.0024094812 0.51775194)
(0 -0.003432874 0.51840164)
(0 -0.0044573761 0.51927321)
(0 -0.0054833384 0.5203926)
(0 -0.0065105678 0.52179487)
(0 -0.0075383083 0.52352689)
(0 -0.008565299 0.52565153)
(0 -0.009589395 0.52825276)
(0 -0.010608956 0.53144317)
(0 -0.011622462 0.53541491)
(0 -0.012655132 0.54072589)
(0 -0.013800795 0.54879836)
(0 -0.014984452 0.55979937)
(0 -0.015172959 0.56118358)
(0 -0.011892106 0.51322014)
(0 -0.0042584912 0.36747727)
(0 0.00065797867 0.13074716)
(0 -0.0001715304 0.11726199)
(0 0.004063976 0.34153401)
(0 0.012657618 0.50172447)
(0 0.017542174 0.56717505)
(0 0.018047666 0.57172207)
(0 0.016712382 0.55901825)
(0 0.015326551 0.54835462)
(0 0.014164332 0.54149328)
(0 0.013080999 0.53659947)
(0 0.012011712 0.53272455)
(0 0.010948621 0.52956136)
(0 0.0098910863 0.52696411)
(0 0.0088399284 0.5248275)
(0 0.0077955811 0.52307216)
(0 0.0067584454 0.52163906)
(0 0.0057287741 0.52048402)
(0 0.0047065194 0.51957396)
(0 0.0036913655 0.51888431)
(0 0.0026827531 0.51839738)
(0 0.0016799629 0.51810125)
(0 0.00068215849 0.51798902)
(0 -0.00031147676 0.51805852)
(0 -0.0013016909 0.51831215)
(0 -0.0022890433 0.51875711)
(0 -0.0032738208 0.51940574)
(0 -0.0042559402 0.52027632)
(0 -0.0052348671 0.52139434)
(0 -0.0062095399 0.52279428)
(0 -0.007178354 0.52452249)
(0 -0.0081392778 0.52664132)
(0 -0.0090894444 0.52923424)
(0 -0.010026678 0.53241517)
(0 -0.010950775 0.53639118)
(0 -0.011888166 0.54176167)
(0 -0.012921658 0.5498916)
(0 -0.013916867 0.56034012)
(0 -0.013800527 0.5594383)
(0 -0.010448602 0.50800424)
(0 -0.00344032 0.36156897)
(0 0.00055970237 0.12916602)
(0 -7.9774233e-05 0.11566981)
(0 0.0035299874 0.33582092)
(0 0.011321415 0.49577604)
(0 0.016168344 0.56465305)
(0 0.016977947 0.57207192)
(0 0.015863556 0.56027962)
(0 0.01458763 0.54956719)
(0 0.013505353 0.54257396)
(0 0.012500952 0.53763597)
(0 0.011508 0.53375321)
(0 0.010515153 0.53058744)
(0 0.0095216486 0.52798731)
(0 0.008528683 0.52584716)
(0 0.0075371302 0.52408756)
(0 0.0065479648 0.52264953)
(0 0.0055620695 0.52148913)
(0 0.0045800787 0.5205735)
(0 0.0036023923 0.51987834)
(0 0.0026291867 0.51938613)
(0 0.0016604879 0.51908509)
(0 0.00069621849 0.51896838)
(0 -0.00026368235 0.51903376)
(0 -0.0012191959 0.51928352)
(0 -0.0021701133 0.51972462)
(0 -0.0031159531 0.52036906)
(0 -0.0040558602 0.52123474)
(0 -0.0049885343 0.52234664)
(0 -0.0059121622 0.52373873)
(0 -0.0068243988 0.52545685)
(0 -0.0077225257 0.52756288)
(0 -0.0086030292 0.53014001)
(0 -0.0094632233 0.53330422)
(0 -0.010304131 0.53727853)
(0 -0.011152239 0.54269625)
(0 -0.01207538 0.55083407)
(0 -0.012886705 0.56064668)
(0 -0.012501593 0.55753621)
(0 -0.009132997 0.50308405)
(0 -0.0027516444 0.3564076)
(0 0.00046868795 0.12789514)
(0 -1.1664329e-05 0.11427262)
(0 0.0030623843 0.3307968)
(0 0.010085939 0.49022309)
(0 0.014843792 0.56203982)
(0 0.015915628 0.57218307)
(0 0.015021987 0.56137919)
(0 0.013862124 0.55068458)
(0 0.012859161 0.54357595)
(0 0.011930435 0.53859662)
(0 0.011010318 0.53471045)
(0 0.010084571 0.53154788)
(0 0.0091523957 0.5289506)
(0 0.0082154049 0.52681221)
(0 0.0072749575 0.52505315)
(0 0.0063325885 0.52361445)
(0 0.0053897628 0.52245229)
(0 0.0044477306 0.52153406)
(0 0.0035075278 0.52083565)
(0 0.0025699792 0.52033976)
(0 0.0016357656 0.5200347)
(0 0.0007054728 0.51991367)
(0 -0.00022029942 0.51997441)
(0 -0.0011408654 0.52021905)
(0 -0.00205535 0.52065432)
(0 -0.0029626067 0.5212919)
(0 -0.0038611141 0.52214928)
(0 -0.0047489084 0.52325096)
(0 -0.0056235205 0.52463041)
(0 -0.0064819446 0.52633298)
(0 -0.0073208222 0.52842011)
(0 -0.0081360256 0.53097482)
(0 -0.0089243296 0.53411589)
(0 -0.0096877276 0.53808252)
(0 -0.010451565 0.54353307)
(0 -0.011265763 0.55162918)
(0 -0.011898789 0.5607387)
(0 -0.011278719 0.55551976)
(0 -0.0079355179 0.49847509)
(0 -0.0021681388 0.35192822)
(0 0.00038545146 0.1268839)
(0 3.5682379e-05 0.11305731)
(0 0.0026420049 0.32640619)
(0 0.0089384932 0.4850724)
(0 0.013566469 0.55937373)
(0 0.014863329 0.57207377)
(0 0.014188793 0.56231476)
(0 0.013151222 0.5517037)
(0 0.012228353 0.54450049)
(0 0.011372962 0.53948439)
(0 0.010522613 0.53559937)
(0 0.0096609873 0.53244554)
(0 0.0087873905 0.5298565)
(0 0.0079039465 0.52772475)
(0 0.0070125785 0.52597058)
(0 0.0061153979 0.52453499)
(0 0.0052144287 0.52337429)
(0 0.0043114904 0.52245608)
(0 0.0034081898 0.52175645)
(0 0.0025059258 0.52125828)
(0 0.0016059526 0.52094999)
(0 0.0007094334 0.52082483)
(0 -0.00018245985 0.52088048)
(0 -0.0010684665 0.52111895)
(0 -0.0019471398 0.52154671)
(0 -0.0028167629 0.52217515)
(0 -0.0036752444 0.52302132)
(0 -0.0045200479 0.52410926)
(0 -0.0053481304 0.52547194)
(0 -0.0061558896 0.5271542)
(0 -0.0069393532 0.52921705)
(0 -0.0076937897 0.53174346)
(0 -0.0084153771 0.53485551)
(0 -0.0091067003 0.53880813)
(0 -0.0097908301 0.54427512)
(0 -0.0104979 0.55228105)
(0 -0.010959887 0.56063557)
(0 -0.010136855 0.5534244)
(0 -0.0068510679 0.49418264)
(0 -0.0016743818 0.34806782)
(0 0.00031005556 0.12609198)
(0 6.5338646e-05 0.11201645)
(0 0.0022570807 0.3226002)
(0 0.0078714728 0.48032361)
(0 0.012338349 0.55668621)
(0 0.013827089 0.57176135)
(0 0.013367903 0.56308494)
(0 0.012458026 0.55262109)
(0 0.011616685 0.54534796)
(0 0.010832756 0.54030174)
(0 0.010049253 0.53642288)
(0 0.0092487325 0.53328331)
(0 0.0084308028 0.53070768)
(0 0.0075982162 0.52858716)
(0 0.0067535578 0.52684186)
(0 0.0058995449 0.5254128)
(0 0.0050387523 0.52425644)
(0 0.0041735321 0.52334057)
(0 0.0033060087 0.52264151)
(0 0.002438089 0.52214231)
(0 0.0015715289 0.52183151)
(0 0.00070799095 0.5217024)
(0 -0.00015086069 0.52175261)
(0 -0.0010032749 0.52198402)
(0 -0.0018473199 0.52240288)
(0 -0.002680797 0.52302025)
(0 -0.0035011339 0.52385276)
(0 -0.0043053078 0.52492399)
(0 -0.0050897794 0.52626636)
(0 -0.0058504127 0.5279242)
(0 -0.0065826471 0.52995803)
(0 -0.0072811559 0.53245086)
(0 -0.0079414618 0.53552839)
(0 -0.0085662936 0.53946023)
(0 -0.0091754326 0.54492569)
(0 -0.0097783404 0.55279519)
(0 -0.010078689 0.56035692)
(0 -0.0090833355 0.55128004)
(0 -0.0058787547 0.49020398)
(0 -0.0012621294 0.34476439)
(0 0.00024294756 0.12548455)
(0 8.0359925e-05 0.11114498)
(0 0.0019022253 0.31933371)
(0 0.0068823942 0.47596992)
(0 0.011165859 0.55400271)
(0 0.012816745 0.57126271)
(0 0.012566604 0.56368992)
(0 0.011788196 0.55343371)
(0 0.011029683 0.54611855)
(0 0.010315293 0.541051)
(0 0.009595519 0.53718394)
(0 0.0088528243 0.53406423)
(0 0.0080873467 0.53150707)
(0 0.0073025955 0.52940212)
(0 0.0065019096 0.52766937)
(0 0.00568864 0.52624995)
(0 0.0048659045 0.52510049)
(0 0.0040365557 0.52418903)
(0 0.0032031857 0.52349213)
(0 0.0023681511 0.522993)
(0 0.0015336447 0.52268034)
(0 0.00070175909 0.52254746)
(0 -0.00012542128 0.52259198)
(0 -0.00094573073 0.52281563)
(0 -0.0017568316 0.52322443)
(0 -0.0025561253 0.52382913)
(0 -0.0033406443 0.52464596)
(0 -0.0041069652 0.52569799)
(0 -0.0048511351 0.5270171)
(0 -0.0055685602 0.52864704)
(0 -0.0062541394 0.53064776)
(0 -0.0069019842 0.53310233)
(0 -0.0075069371 0.53614026)
(0 -0.0080714147 0.5400441)
(0 -0.0086110499 0.54548905)
(0 -0.0091145537 0.55317902)
(0 -0.0092650223 0.55992294)
(0 -0.0081269571 0.54911224)
(0 -0.0050206351 0.4865301)
(0 -0.00092801803 0.34195538)
(0 0.00018505397 0.12502917)
(0 8.3684503e-05 0.11043747)
(0 0.0015775628 0.31656244)
(0 0.0059736603 0.47199856)
(0 0.010059684 0.55134339)
(0 0.011845741 0.57059477)
(0 0.011795508 0.56413206)
(0 0.011149972 0.55413977)
(0 0.010474603 0.54681287)
(0 0.0098271828 0.54173486)