/*--------------------------------*- C++ -*----------------------------------*\
  =========                 |
  \\      /  F ield         | OpenFOAM: The Open Source CFD Toolbox
   \\    /   O peration     | Website:  https://openfoam.org
    \\  /    A nd           | Version:  10
     \\/     M anipulation  |
\*---------------------------------------------------------------------------*/
FoamFile
{
    format      ascii;
    class       volVectorField;
    location    "0.08";
    object      U_0;
}
// * * * * * * * * * * * * * * * * * * * * * * * * * * * * * * * * * * * * * //

dimensions      [0 1 -1 0 0 0 0];

internalField   nonuniform List<vector> 
4000
(
(0 0.018629207 0.47773568)
(0 0.023494612 0.50885832)
(0 0.0081528047 0.50052574)
(0 0.0056006684 0.50033675)
(0 0.0042397346 0.50025755)
(0 0.0032397532 0.50016897)
(0 0.0025410654 0.50011963)
(0 0.0020400008 0.50009001)
(0 0.0016626768 0.50006964)
(0 0.0013692228 0.50005519)
(0 0.0011352376 0.50004475)
(0 0.00094435917 0.50003706)
(0 0.00078531285 0.5000313)
(0 0.00065010514 0.50002695)
(0 0.00053289156 0.50002365)
(0 0.00042927683 0.50002115)
(0 0.00033586015 0.50001929)
(0 0.00024992712 0.50001795)
(0 0.00016923317 0.50001705)
(0 9.1844829e-05 0.50001654)
(0 1.6017985e-05 0.50001638)
(0 -5.9911424e-05 0.50001658)
(0 -0.00013761792 0.50001714)
(0 -0.00021887834 0.5000181)
(0 -0.0003056847 0.50001952)
(0 -0.00040037404 0.50002147)
(0 -0.00050580098 0.5000241)
(0 -0.0006255777 0.50002758)
(0 -0.00076442241 0.5000322)
(0 -0.0009286902 0.50003835)
(0 -0.0011272253 0.50004664)
(0 -0.0013727286 0.50005804)
(0 -0.0016840004 0.500074)
(0 -0.0020914496 0.50009704)
(0 -0.0026510781 0.50013485)
(0 -0.0034452749 0.50020256)
(0 -0.004539122 0.50027205)
(0 -0.006563964 0.50043451)
(0 -0.017637651 0.50675095)
(0 -0.013578865 0.4797618)
(0 0.037409843 0.44799723)
(0 0.050909012 0.53232311)
(0 0.021922708 0.50804353)
(0 0.016091152 0.50357598)
(0 0.012368634 0.50242404)
(0 0.009467939 0.50162295)
(0 0.0074732581 0.50115598)
(0 0.0060239601 0.50086474)
(0 0.0049208017 0.50066636)
(0 0.004059154 0.50052697)
(0 0.0033699764 0.50042665)
(0 0.0028062499 0.50035285)
(0 0.0023355391 0.5002977)
(0 0.0019347047 0.50025608)
(0 0.0015867372 0.50022454)
(0 0.0012787966 0.50020071)
(0 0.0010009175 0.50018297)
(0 0.00074512418 0.50017019)
(0 0.00050480704 0.50016159)
(0 0.00027426202 0.50015669)
(0 4.8335839e-05 0.50015522)
(0 -0.00017788576 0.50015711)
(0 -0.00040934847 0.50016246)
(0 -0.00065130006 0.50017161)
(0 -0.000909614 0.50018508)
(0 -0.0011911674 0.50020374)
(0 -0.001504339 0.50022882)
(0 -0.001859699 0.50026212)
(0 -0.0022710029 0.50030629)
(0 -0.0027566794 0.50036521)
(0 -0.0033422094 0.50044484)
(0 -0.0040640979 0.50055468)
(0 -0.0049755914 0.50070985)
(0 -0.0061567547 0.50093598)
(0 -0.0077566373 0.50129467)
(0 -0.010051677 0.50191224)
(0 -0.013037741 0.50282971)
(0 -0.017357233 0.50608376)
(0 -0.038691632 0.5252636)
(0 -0.02786202 0.45025961)
(0 0.03985361 0.40989648)
(0 0.061347625 0.54931721)
(0 0.031896577 0.52188)
(0 0.024275842 0.51008598)
(0 0.019109582 0.50659091)
(0 0.014892613 0.50452784)
(0 0.011923584 0.50326938)
(0 0.009691422 0.50245479)
(0 0.0079598988 0.50189613)
(0 0.0065931822 0.5015026)
(0 0.0054909019 0.50121838)
(0 0.0045834073 0.50100876)
(0 0.0038218558 0.50085185)
(0 0.0031707578 0.50073328)
(0 0.0026036958 0.50064334)
(0 0.0021005414 0.50057535)
(0 0.0016455496 0.50052468)
(0 0.0012260377 0.50048815)
(0 0.00083144 0.50046357)
(0 0.00045260057 0.50044955)
(0 8.1223427e-05 0.50044534)
(0 -0.00029060932 0.50045072)
(0 -0.00067086586 0.50046602)
(0 -0.001067988 0.50049214)
(0 -0.0014913916 0.50053062)
(0 -0.0019520505 0.50058388)
(0 -0.0024632542 0.5006554)
(0 -0.0030416419 0.50075031)
(0 -0.0037086687 0.500876)
(0 -0.004492723 0.50104344)
(0 -0.0054323372 0.5012692)
(0 -0.0065817026 0.50157946)
(0 -0.0080182956 0.50201641)
(0 -0.0098465686 0.50264858)
(0 -0.012239511 0.50361567)
(0 -0.015585961 0.50520375)
(0 -0.019749977 0.50786405)
(0 -0.025058667 0.51641407)
(0 -0.047298875 0.53913853)
(0 -0.030801176 0.41499692)
(0 0.034748442 0.36187943)
(0 0.063722494 0.55460591)
(0 0.039242984 0.5374653)
(0 0.029961305 0.51849841)
(0 0.023986799 0.51198132)
(0 0.019153625 0.50849862)
(0 0.015612635 0.50625972)
(0 0.012834819 0.50474773)
(0 0.010630246 0.50369401)
(0 0.0088619262 0.50294337)
(0 0.0074166318 0.50239628)
(0 0.0062145394 0.50199024)
(0 0.005197695 0.50168491)
(0 0.0043227094 0.50145336)
(0 0.0035566488 0.50127721)
(0 0.0028740246 0.50114376)
(0 0.0022546356 0.50104415)
(0 0.0016820345 0.50097222)
(0 0.0011424002 0.50092378)
(0 0.00062367563 0.50089612)
(0 0.00011488509 0.50088778)
(0 -0.00039446765 0.50089836)
(0 -0.00091494433 0.50092848)
(0 -0.0014577005 0.50097987)
(0 -0.0020351111 0.50105555)
(0 -0.0026614904 0.50116011)
(0 -0.0033540026 0.50130031)
(0 -0.0041338717 0.50148586)
(0 -0.0050280505 0.50173081)
(0 -0.0060715243 0.50205569)
(0 -0.0073104089 0.50249108)
(0 -0.0088072226 0.50308406)
(0 -0.010649696 0.50390948)
(0 -0.012944938 0.50508396)
(0 -0.015828823 0.50680719)
(0 -0.019704924 0.50947549)
(0 -0.024544668 0.51428873)
(0 -0.030911729 0.52824524)
(0 -0.050144173 0.54412766)
(0 -0.028368221 0.37261129)
(0 0.0273759 0.31508716)
(0 0.062162141 0.55034493)
(0 0.04441791 0.55146011)
(0 0.033807875 0.52748946)
(0 0.027290101 0.51772724)
(0 0.022281901 0.51291764)
(0 0.018467327 0.50972286)
(0 0.015364837 0.50747876)
(0 0.012851381 0.50588154)
(0 0.010797705 0.50472457)
(0 0.0090922016 0.50387038)
(0 0.0076558165 0.50323044)
(0 0.0064283686 0.50274579)
(0 0.0053632628 0.50237618)
(0 0.0044242999 0.50209376)
(0 0.0035828797 0.50187906)
(0 0.0028159373 0.50171836)
(0 0.0021044241 0.50160207)
(0 0.0014321453 0.50152361)
(0 0.00078484468 0.50147875)
(0 0.00014946499 0.50146517)
(0 -0.00048651618 0.50148223)
(0 -0.0011356969 0.50153092)
(0 -0.0018113287 0.50161397)
(0 -0.0025280075 0.50173609)
(0 -0.0033024475 0.50190446)
(0 -0.0041544317 0.50212956)
(0 -0.0051080288 0.50242632)
(0 -0.0061932071 0.50281609)
(0 -0.0074480012 0.50332962)
(0 -0.008920989 0.50401168)
(0 -0.010674966 0.50492896)
(0 -0.012797185 0.50618451)
(0 -0.015392172 0.50793358)
(0 -0.018548165 0.51040311)
(0 -0.022627589 0.51406533)
(0 -0.02791264 0.52115724)
(0 -0.035415976 0.53932126)
(0 -0.050239109 0.5416944)
(0 -0.024001467 0.33094047)
(0 0.01978683 0.27555347)
(0 0.057801862 0.53994603)
(0 0.047100452 0.56256467)
(0 0.036240057 0.53659499)
(0 0.029406171 0.52350995)
(0 0.024448763 0.51739844)
(0 0.020552461 0.51334847)
(0 0.017296717 0.51042204)
(0 0.014612709 0.50829495)
(0 0.012378933 0.50672666)
(0 0.010493624 0.50555249)
(0 0.0088845399 0.50466325)
(0 0.0074938232 0.50398391)
(0 0.0062754067 0.50346219)
(0 0.0051926485 0.50306133)
(0 0.0042159176 0.50275522)
(0 0.0033208418 0.5025253)
(0 0.002486956 0.50235845)
(0 0.0016966192 0.50224563)
(0 0.00093413416 0.50218099)
(0 0.00018501788 0.50216132)
(0 -0.00056466618 0.50218572)
(0 -0.0013289354 0.50225558)
(0 -0.0021224634 0.50237465)
(0 -0.0029612804 0.50254942)
(0 -0.0038635281 0.50278976)
(0 -0.0048503629 0.50310987)
(0 -0.0059470655 0.50352986)
(0 -0.0071844413 0.50407804)
(0 -0.0086007236 0.50479449)
(0 -0.010243552 0.50573642)
(0 -0.01217165 0.50698635)
(0 -0.014465679 0.50866773)
(0 -0.017228316 0.51096279)
(0 -0.020514264 0.51411493)
(0 -0.024620101 0.51873964)
(0 -0.030150193 0.52823014)
(0 -0.0382346 0.54872209)
(0 -0.04820624 0.53425467)
(0 -0.018970428 0.29450837)
(0 0.013030623 0.24303863)
(0 0.051576383 0.52553354)
(0 0.04737267 0.570272)
(0 0.037443625 0.54549832)
(0 0.030554847 0.52928446)
(0 0.025784132 0.52179194)
(0 0.021956479 0.51697491)
(0 0.018684076 0.51343924)
(0 0.015939097 0.51082128)
(0 0.013612977 0.50886054)
(0 0.011618974 0.50737357)
(0 0.0098942002 0.50623522)
(0 0.0083857485 0.50535765)
(0 0.0070506298 0.50467861)
(0 0.0058538318 0.50415365)
(0 0.0047663503 0.50375077)
(0 0.0037638347 0.50344695)
(0 0.0028254699 0.50322576)
(0 0.0019330398 0.50307581)
(0 0.0010701419 0.5029897)
(0 0.00022151901 0.50296332)
(0 -0.00062756519 0.50299554)
(0 -0.0014919289 0.50308812)
(0 -0.0023870041 0.50324581)
(0 -0.0033295006 0.50347684)
(0 -0.004338091 0.50379357)
(0 -0.0054342128 0.50421371)
(0 -0.0066430192 0.50476204)
(0 -0.0079945029 0.50547299)
(0 -0.0095250776 0.50639457)
(0 -0.011279363 0.50759419)
(0 -0.013310107 0.50916702)
(0 -0.015687282 0.51125141)
(0 -0.018507239 0.51404762)
(0 -0.021802535 0.51782572)
(0 -0.02581266 0.52346921)
(0 -0.031378195 0.53535268)
(0 -0.039246733 0.55591356)
(0 -0.044524726 0.52328047)
(0 -0.013984358 0.26343679)
(0 0.0077163406 0.21616852)
(0 0.044569725 0.50851927)
(0 0.04583913 0.57445129)
(0 0.037632848 0.55370341)
(0 0.030915197 0.53494216)
(0 0.026407717 0.52601231)
(0 0.022767048 0.52050383)
(0 0.019586844 0.51643857)
(0 0.016867735 0.5133794)
(0 0.014521515 0.51105746)
(0 0.012479483 0.50927681)
(0 0.01068923 0.50790002)
(0 0.009104526 0.50682933)
(0 0.0076871306 0.50599471)
(0 0.0064050597 0.50534543)
(0 0.0052311498 0.50484456)
(0 0.0041421132 0.50446522)
(0 0.0031176655 0.50418811)
(0 0.00213977 0.50399972)
(0 0.0011919809 0.50389124)
(0 0.00025886809 0.50385775)
(0 -0.00067453059 0.50389791)
(0 -0.0016232579 0.50401381)
(0 -0.0026028945 0.50421112)
(0 -0.0036301576 0.50449961)
(0 -0.0047234829 0.5048939)
(0 -0.0059036969 0.50541475)
(0 -0.0071947913 0.50609096)
(0 -0.00862476 0.50696207)
(0 -0.01022677 0.50808254)
(0 -0.012040866 0.50952796)
(0 -0.014112753 0.51140378)
(0 -0.016499118 0.5138594)
(0 -0.019282859 0.51710489)
(0 -0.02248156 0.52145382)
(0 -0.026313367 0.52816552)
(0 -0.031749767 0.54216436)
(0 -0.038761523 0.56056316)
(0 -0.039890994 0.50979153)
(0 -0.0095929348 0.23690521)
(0 0.0039499779 0.19434195)
(0 0.03760948 0.49021967)
(0 0.04318484 0.57538786)
(0 0.037058737 0.56077475)
(0 0.030690972 0.54031945)
(0 0.026471716 0.52998012)
(0 0.02308688 0.52385173)
(0 0.020073416 0.51934306)
(0 0.017444701 0.51590216)
(0 0.015135494 0.51325936)
(0 0.013095155 0.51121243)
(0 0.011281914 0.50961534)
(0 0.0096572437 0.50836323)
(0 0.0081886061 0.50738029)
(0 0.0068479072 0.50661097)
(0 0.0056106531 0.50601444)
(0 0.0044553749 0.50556072)
(0 0.0033629965 0.50522811)
(0 0.00231627 0.50500133)
(0 0.0012992633 0.50487034)
(0 0.00029689347 0.50482956)
(0 -0.00070552412 0.50487743)
(0 -0.0017227513 0.50501633)
(0 -0.0027699919 0.50525276)
(0 -0.003863406 0.50559778)
(0 -0.0050205734 0.5060679)
(0 -0.0062610198 0.50668643)
(0 -0.0076068119 0.50748541)
(0 -0.0090831275 0.5085085)
(0 -0.010718957 0.50981513)
(0 -0.012548654 0.51148705)
(0 -0.014610374 0.51363745)
(0 -0.016947277 0.51642282)
(0 -0.019624969 0.52005599)
(0 -0.022653106 0.52491532)
(0 -0.026264701 0.53269042)
(0 -0.031450872 0.5482928)
(0 -0.03721278 0.56268429)
(0 -0.034908246 0.49482169)
(0 -0.0060766478 0.21458959)
(0 0.0014952499 0.17709108)
(0 0.031174069 0.47176834)
(0 0.039937483 0.57364811)
(0 0.035936548 0.56650818)
(0 0.03006799 0.54530266)
(0 0.026134875 0.53365292)
(0 0.023027408 0.52696157)
(0 0.020220698 0.52209353)
(0 0.017724307 0.51833623)
(0 0.01549319 0.51541884)
(0 0.013492531 0.51313856)
(0 0.011690412 0.5113445)
(0 0.010056136 0.50992739)
(0 0.0085631149 0.5088075)
(0 0.0071875346 0.50792591)
(0 0.0059080479 0.50723892)
(0 0.0047054913 0.5067142)
(0 0.0035624712 0.50632819)
(0 0.0024629855 0.5060642)
(0 0.0013920519 0.50591124)
(0 0.00033535658 0.50586315)
(0 -0.00072109345 0.50591821)
(0 -0.0017913624 0.50607905)
(0 -0.0028898518 0.5063528)
(0 -0.0040317207 0.50675158)
(0 -0.0052332276 0.50729342)
(0 -0.0065121099 0.50800359)
(0 -0.0078880028 0.50891662)
(0 -0.0093827959 0.51007919)
(0 -0.011020896 0.5115543)
(0 -0.012830527 0.51342785)
(0 -0.01484244 0.51581794)
(0 -0.017087851 0.5188842)
(0 -0.019615399 0.52283976)
(0 -0.022433801 0.52815486)
(0 -0.025808589 0.53694127)
(0 -0.030642171 0.55351427)
(0 -0.034971593 0.56257328)
(0 -0.029975148 0.47931863)
(0 -0.0034579654 0.19626933)
(0 2.0900742e-05 0.16366926)
(0 0.025506396 0.45393586)
(0 0.036464399 0.56985441)
(0 0.034436395 0.57088542)
(0 0.029184632 0.54984116)
(0 0.025528455 0.53703236)
(0 0.022689726 0.52981454)
(0 0.020104163 0.52465745)
(0 0.017763067 0.52064686)
(0 0.015636246 0.517502)
(0 0.013701899 0.51502333)
(0 0.011936622 0.51305829)
(0 0.01031691 0.51149536)
(0 0.0088217987 0.51025255)
(0 0.0074317372 0.50926884)
(0 0.0061286862 0.50849861)
(0 0.0048960272 0.50790794)
(0 0.0037183337 0.50747191)
(0 0.0025811545 0.50717282)
(0 0.0014707725 0.50699891)
(0 0.00037395859 0.50694363)
(0 -0.00072227061 0.50700512)
(0 -0.0018309621 0.5071862)
(0 -0.002965395 0.50749447)
(0 -0.0041394075 0.50794287)
(0 -0.0053676232 0.50855052)
(0 -0.0066656972 0.50934412)
(0 -0.0080505757 0.51035991)
(0 -0.0095407006 0.51164661)
(0 -0.011155946 0.51326948)
(0 -0.012918594 0.51531682)
(0 -0.014852578 0.51790922)
(0 -0.016979207 0.52120636)
(0 -0.019332778 0.52542478)
(0 -0.021927351 0.5311549)
(0 -0.025059254 0.54086286)
(0 -0.029453587 0.55774232)
(0 -0.032330697 0.56063461)
(0 -0.025341983 0.46397763)
(0 -0.0016225303 0.18148533)
(0 -0.00077219628 0.15325463)
(0 0.020701468 0.43715852)
(0 0.033014796 0.56456276)
(0 0.032700229 0.5739839)
(0 0.028139814 0.55391361)
(0 0.024750144 0.54014007)
(0 0.0221561 0.53241931)
(0 0.019789715 0.52702554)
(0 0.017613126 0.52281679)
(0 0.015605042 0.51948815)
(0 0.013754073 0.51684491)
(0 0.012043842 0.51473511)
(0 0.010457009 0.51304649)
(0 0.0089775793 0.51169605)
(0 0.0075899719 0.51062167)
(0 0.0062793669 0.5097767)
(0 0.0050317266 0.50912621)
(0 0.0038337114 0.50864441)
(0 0.0026725918 0.50831291)
(0 0.0015361142 0.50811947)
(0 0.0004123492 0.5080572)
(0 -0.0007104551 0.50812419)
(0 -0.0018441045 0.50832335)
(0 -0.0030005391 0.50866265)
(0 -0.0041920726 0.50915554)
(0 -0.0054315181 0.5098219)
(0 -0.0067323233 0.51068934)
(0 -0.0081086956 0.51179515)
(0 -0.009575706 0.51318921)
(0 -0.011149027 0.51493802)
(0 -0.012845565 0.51713099)
(0 -0.014683204 0.51988933)
(0 -0.016675186 0.52337101)
(0 -0.018845021 0.52780293)
(0 -0.021217556 0.53391783)
(0 -0.024105902 0.54442207)
(0 -0.027999434 0.56097247)
(0 -0.029520559 0.55727247)
(0 -0.021160606 0.4492436)
(0 -0.00041246123 0.16965233)
(0 -0.0011205022 0.14515157)
(0 0.016749384 0.42165557)
(0 0.029743014 0.55823976)
(0 0.030844644 0.57592976)
(0 0.027005866 0.55751202)
(0 0.023871553 0.54299905)
(0 0.021491552 0.53479636)
(0 0.019331943 0.52920212)
(0 0.017319421 0.52484062)
(0 0.015435939 0.52136658)
(0 0.013678036 0.51858964)
(0 0.012034869 0.51635987)
(0 0.010494134 0.51456524)
(0 0.0090440315 0.51312259)
(0 0.0076725023 0.51196949)
(0 0.0063676957 0.51105885)
(0 0.0051180464 0.51035524)
(0 0.0039122942 0.50983244)
(0 0.0027394883 0.50947163)
(0 0.0015889381 0.50926027)
(0 0.00045013689 0.5091913)
(0 -0.00068730165 0.50926272)
(0 -0.0018338059 0.50947753)
(0 -0.002999853 0.50984389)
(0 -0.00419613 0.51037557)
(0 -0.0054335777 0.51109287)
(0 -0.006723441 0.51202388)
(0 -0.0080772874 0.51320642)
(0 -0.0095070431 0.51469085)
(0 -0.011024641 0.5165441)
(0 -0.012642348 0.51885583)
(0 -0.014372874 0.52174657)
(0 -0.016223078 0.52537192)
(0 -0.01820951 0.52997815)
(0 -0.020371853 0.53645123)
(0 -0.023020233 0.547597)
(0 -0.026380425 0.56325361)
(0 -0.026710379 0.5528573)
(0 -0.017503566 0.43538835)
(0 0.00032990615 0.1602269)
(0 -0.0011971071 0.13881069)
(0 0.013572293 0.40751313)
(0 0.026727787 0.55126746)
(0 0.028956218 0.5768757)
(0 0.025833465 0.56064284)
(0 0.022943725 0.54563023)
(0 0.020746501 0.53697001)
(0 0.018775009 0.53119842)
(0 0.016919516 0.52672)
(0 0.015160455 0.52313328)
(0 0.01349982 0.52024983)
(0 0.011930872 0.51792258)
(0 0.010445244 0.51604033)
(0 0.0090345468 0.5145203)
(0 0.0076897263 0.51330024)
(0 0.0064015635 0.51233305)
(0 0.005160767 0.51158323)
(0 0.0039580589 0.51102439)
(0 0.0027842397 0.51063755)
(0 0.001630199 0.51041002)
(0 0.00048689913 0.51033463)
(0 -0.00065462044 0.51040936)
(0 -0.0018033501 0.51063722)
(0 -0.002968258 0.51102646)
(0 -0.0041583847 0.51159097)
(0 -0.005382823 0.51235121)
(0 -0.0066507099 0.51333541)
(0 -0.0079711659 0.5145815)
(0 -0.0093532879 0.51613982)
(0 -0.010805784 0.51807721)
(0 -0.012337072 0.52048292)
(0 -0.013955641 0.52347603)
(0 -0.015663588 0.5272102)
(0 -0.017474074 0.53196057)
(0 -0.019443486 0.5387648)
(0 -0.021858212 0.55037965)
(0 -0.02467802 0.56467331)
(0 -0.024009926 0.54771546)
(0 -0.014381117 0.42256753)
(0 0.00074201466 0.15274949)
(0 -0.00112005 0.13379476)
(0 0.011059475 0.3947291)
(0 0.023995608 0.5439478)
(0 0.027092226 0.57698162)
(0 0.024654277 0.56332588)
(0 0.022000116 0.5480532)
(0 0.019958032 0.53896562)
(0 0.018153397 0.53302962)
(0 0.016443958 0.52846107)
(0 0.014805168 0.52478872)
(0 0.013242093 0.52182212)
(0 0.011750829 0.51941723)
(0 0.010325965 0.517464)
(0 0.0089617784 0.51588034)
(0 0.0076516925 0.51460444)
(0 0.0063887485 0.51358954)
(0 0.0051656824 0.51280029)
(0 0.0039750456 0.51221036)
(0 0.0028093015 0.51180078)
(0 0.001660878 0.51155883)
(0 0.00052219178 0.51147734)
(0 -0.00061429188 0.51155421)
(0 -0.0017561253 0.51179249)
(0 -0.0029107833 0.51220037)
(0 -0.0040857009 0.51279176)
(0 -0.0052882099 0.51358703)
(0 -0.0065254917 0.51461433)
(0 -0.007804467 0.51591137)
(0 -0.0091317634 0.51752815)
(0 -0.01051339 0.51953103)
(0 -0.011954675 0.52200851)
(0 -0.013460826 0.52507774)
(0 -0.015030702 0.52889208)
(0 -0.016676948 0.53376433)
(0 -0.01847211 0.54087048)
(0 -0.020660534 0.55277628)
(0 -0.022952426 0.56534088)
(0 -0.021480473 0.54212122)
(0 -0.011762478 0.4108512)
(0 0.00093272752 0.1468298)
(0 -0.00096571868 0.12976141)
(0 0.0090922196 0.38324487)
(0 0.021541654 0.53651006)
(0 0.025286299 0.57639847)
(0 0.023485344 0.5655887)
(0 0.021060158 0.55028518)
(0 0.019151467 0.54080727)
(0 0.017492712 0.53471269)
(0 0.015916713 0.53007277)
(0 0.014391819 0.52633646)
(0 0.01292404 0.52330626)
(0 0.011511279 0.52084079)
(0 0.010150272 0.5188313)
(0 0.0088373027 0.5171964)
(0 0.0075677786 0.51587493)
(0 0.0063366342 0.51482059)
(0 0.0051383703 0.51399834)
(0 0.003967184 0.51338207)
(0 0.0028170767 0.51295294)
(0 0.0016819318 0.5126983)
(0 0.00055555501 0.51261098)
(0 -0.0005682 0.51268888)
(0 -0.0016954932 0.51293497)
(0 -0.0028323751 0.51335738)
(0 -0.0039847532 0.51396987)
(0 -0.0051583266 0.51479262)
(0 -0.0063585068 0.51585348)
(0 -0.0075902827 0.51718974)
(0 -0.0088581782 0.51885088)
(0 -0.010165997 0.52090257)
(0 -0.011516652 0.52343233)
(0 -0.012912901 0.5265554)
(0 -0.014351704 0.53042724)
(0 -0.015847185 0.53540536)
(0 -0.017485412 0.54278093)
(0 -0.019454908 0.55480301)
(0 -0.021245185 0.56537102)
(0 -0.019148932 0.53629434)
(0 -0.0095942117 0.40024756)
(0 0.00098266559 0.14213918)
(0 -0.00078198818 0.12645354)
(0 0.007557876 0.37297192)
(0 0.019344282 0.52912313)
(0 0.023554805 0.57526029)
(0 0.022333875 0.56746127)
(0 0.020133393 0.55233946)
(0 0.018342792 0.54251556)
(0 0.016811076 0.53626436)
(0 0.015355925 0.53156522)
(0 0.013937671 0.52778181)
(0 0.012561475 0.52470406)
(0 0.011226287 0.52219245)
(0 0.0099303621 0.52013942)
(0 0.0086714463 0.51846428)
(0 0.007446506 0.51710649)
(0 0.0062520342 0.51602026)
(0 0.0050840414 0.51517098)
(0 0.0039381783 0.51453282)
(0 0.0028098389 0.51408716)
(0 0.0016942538 0.51382145)
(0 0.00058653191 0.51372856)
(0 -0.00051816921 0.51380639)
(0 -0.001624695 0.51405783)
(0 -0.0027377563 0.51449085)
(0 -0.003861848 0.51511901)
(0 -0.0050011873 0.51596218)
(0 -0.0061596117 0.51704779)
(0 -0.0073404416 0.51841262)
(0 -0.0085464389 0.52010549)
(0 -0.0097796315 0.52219131)
(0 -0.011041072 0.52475659)
(0 -0.012331737 0.52791497)
(0 -0.013647815 0.53182686)
(0 -0.015006036 0.53689912)
(0 -0.016501821 0.5445076)
(0 -0.018259271 0.55648097)
(0 -0.019583053 0.56487297)
(0 -0.017019765 0.53040469)
(0 -0.0078128931 0.39072497)
(0 0.00094898166 0.13841066)
(0 -0.00059783096 0.12368529)
(0 0.0063570045 0.36381069)
(0 0.017374151 0.52190902)
(0 0.021902228 0.57368235)
(0 0.021200987 0.56897334)
(0 0.019223006 0.55422501)
(0 0.017541234 0.54410638)
(0 0.016120842 0.53769947)
(0 0.014775018 0.53294843)
(0 0.013456158 0.52913077)
(0 0.012167198 0.52601853)
(0 0.010907605 0.52347285)
(0 0.0096766907 0.52138718)
(0 0.0084732519 0.51968138)
(0 0.0072954701 0.51829546)
(0 0.0061411103 0.51718415)
(0 0.0050074627 0.51631327)
(0 0.0038914461 0.51565731)
(0 0.0027896969 0.51519789)
(0 0.0016986707 0.51492261)
(0 0.00061467909 0.5148244)
(0 -0.00046592323 0.51490114)
(0 -0.0015467658 0.51515561)
(0 -0.0026313204 0.51559562)
(0 -0.0037228014 0.51623443)
(0 -0.004824101 0.51709156)
(0 -0.0059376747 0.51819395)
(0 -0.0070654162 0.51957781)
(0 -0.008208622 0.52129126)
(0 -0.0093678985 0.52339848)
(0 -0.010542864 0.52598501)
(0 -0.01173322 0.52916345)
(0 -0.012935268 0.53310212)
(0 -0.014168702 0.53825903)
(0 -0.015533204 0.54605983)
(0 -0.017084718 0.55783334)
(0 -0.017981698 0.56394542)
(0 -0.015083905 0.52458019)
(0 -0.0063535454 0.38222919)
(0 0.00087065836 0.13543492)
(0 -0.00042964899 0.12132585)
(0 0.0054064278 0.35566175)
(0 0.015599957 0.51495438)
(0 0.020325605 0.57176223)
(0 0.020084427 0.57015318)
(0 0.018328411 0.55594703)
(0 0.01675143 0.54559082)
(0 0.015430199 0.53903027)
(0 0.014183826 0.53423142)
(0 0.012957663 0.53038926)
(0 0.011751492 0.52725317)
(0 0.010564963 0.52468354)
(0 0.0093981282 0.52257451)
(0 0.0082505449 0.52084635)
(0 0.0071213522 0.51943952)
(0 0.0060093562 0.51830918)
(0 0.0049129297 0.51742155)
(0 0.0038300925 0.5167515)
(0 0.0027585791 0.51628085)
(0 0.0016959418 0.51599736)
(0 0.00063958698 0.51589405)
(0 -0.00041304648 0.51596876)
(0 -0.0014644817 0.51622415)
(0 -0.002517065 0.51666783)
(0 -0.0035728676 0.51731275)
(0 -0.0046336072 0.51817802)
(0 -0.0057005359 0.51929008)
(0 -0.0067743326 0.52068451)
(0 -0.0078550733 0.52240881)
(0 -0.0089422168 0.52452644)
(0 -0.010034258 0.52712211)
(0 -0.011129975 0.53030808)
(0 -0.012226403 0.53426332)
(0 -0.013345941 0.539496)
(0 -0.014587079 0.54744487)
(0 -0.015937915 0.55888368)
(0 -0.01644917 0.5626746)
(0 -0.013325478 0.51891468)
(0 -0.0051553247 0.37469458)
(0 0.00077291552 0.13305173)
(0 -0.00028553004 0.11928558)
(0 0.0046395126 0.34843185)
(0 0.013991942 0.50831936)
(0 0.018818157 0.56958159)
(0 0.018980652 0.57102699)
(0 0.017447196 0.55750773)
(0 0.015975179 0.54697563)
(0 0.014744511 0.54026624)
(0 0.013589588 0.5354219)
(0 0.012450239 0.53156272)
(0 0.011322625 0.5284116)
(0 0.010206398 0.52582655)
(0 0.0091021535 0.52370211)
(0 0.008010035 0.5219588)
(0 0.0069299594 0.52053735)
(0 0.005861599 0.51939332)
(0 0.0048042487 0.5184933)
(0 0.0037568839 0.51781244)
(0 0.002718206 0.51733284)
(0 0.0016867391 0.51704239)
(0 0.00066087263 0.51693417)
(0 -0.00036098119 0.51700601)
(0 -0.0013803527 0.51726043)
(0 -0.0023985828 0.51770481)
(0 -0.0034167313 0.51835178)
(0 -0.0044354826 0.51922001)
(0 -0.0054550467 0.52033544)
(0 -0.0064750655 0.52173305)
(0 -0.0074945882 0.52345972)
(0 -0.0085121261 0.52557828)
(0 -0.0095252644 0.52817275)
(0 -0.010532068 0.53135586)
(0 -0.011530664 0.53531953)
(0 -0.012545443 0.54061845)
(0 -0.013668392 0.54866827)
(0 -0.014823177 0.55965494)
(0 -0.014989095 0.56113401)
(0 -0.011726734 0.51347466)
(0 -0.0041650693 0.36805098)
(0 0.00067077445 0.13114031)
(0 -0.00016821202 0.11750505)
(0 0.0040047516 0.34203684)
(0 0.012523827 0.50204445)
(0 0.01737208 0.56720829)
(0 0.017886442 0.57161857)
(0 0.016576608 0.55890699)
(0 0.015212838 0.54826389)
(0 0.014067387 0.54141419)
(0 0.012997754 0.53652615)
(0 0.011940218 0.53265595)
(0 0.010887281 0.52949727)
(0 0.0098385331 0.52690418)
(0 0.0087950264 0.52477123)
(0 0.0077574043 0.52301903)
(0 0.006726253 0.5215885)
(0 0.0057019868 0.52043549)
(0 0.0046846984 0.51952691)
(0 0.0036741959 0.5188382)
(0 0.0026700314 0.51835167)
(0 0.0016715867 0.51805538)
(0 0.00067812276 0.51794245)
(0 -0.00031108218 0.51801067)
(0 -0.001296678 0.51826243)
(0 -0.002279119 0.51870488)
(0 -0.0032585758 0.51935031)
(0 -0.0042348306 0.52021696)
(0 -0.0052071925 0.52133024)
(0 -0.0061744126 0.52272458)
(0 -0.0071346614 0.52444625)
(0 -0.0080856383 0.52655753)
(0 -0.0090241522 0.52914193)
(0 -0.0099476568 0.53231342)
(0 -0.010855484 0.53627855)
(0 -0.011773004 0.54163269)
(0 -0.012780956 0.54973431)
(0 -0.01374418 0.56016895)
(0 -0.013603354 0.55938527)
(0 -0.010271372 0.50830503)
(0 -0.0033391708 0.36222795)
(0 0.00057199534 0.12961042)
(0 -7.7195839e-05 0.11594663)
(0 0.0034636362 0.33640279)
(0 0.011173788 0.49615552)
(0 0.01598057 0.56469842)
(0 0.016800088 0.57194941)
(0 0.015714679 0.56014316)
(0 0.014464418 0.54945572)
(0 0.013401548 0.5424786)
(0 0.012412652 0.53754916)
(0 0.011432725 0.5336731)
(0 0.010450937 0.53051348)
(0 0.0094668494 0.52791888)
(0 0.0084819614 0.5257835)
(0 0.0074974103 0.52402793)
(0 0.0065143979 0.52259319)
(0 0.0055339991 0.52143536)
(0 0.0045570118 0.52052161)
(0 0.0035839769 0.51982766)
(0 0.0026151945 0.51933601)
(0 0.0016508018 0.51903488)
(0 0.00069082609 0.51891742)
(0 -0.00026469188 0.51898139)
(0 -0.0012156292 0.51922903)
(0 -0.0021616655 0.51966726)
(0 -0.0031021957 0.52030802)
(0 -0.0040362204 0.52116912)
(0 -0.0049622695 0.52227545)
(0 -0.0058783234 0.5236609)
(0 -0.0067817838 0.52537117)
(0 -0.0076696243 0.52746804)
(0 -0.0085379524 0.53003463)
(0 -0.0093836306 0.53318692)
(0 -0.010207096 0.53714705)
(0 -0.011033548 0.54254342)
(0 -0.011928591 0.55064672)
(0 -0.012705287 0.56044651)
(0 -0.012294143 0.55747956)
(0 -0.0089465289 0.50343372)
(0 -0.0026443541 0.35715689)
(0 0.00047953862 0.12839447)
(0 -1.0250913e-05 0.11458773)
(0 0.0029885325 0.33146554)
(0 0.0099249441 0.49066735)
(0 0.014639313 0.56209826)
(0 0.015722297 0.57203912)
(0 0.014861096 0.56121391)
(0 0.013730499 0.55054922)
(0 0.012749598 0.54346208)
(0 0.011838136 0.5384948)
(0 0.010932215 0.53461779)
(0 0.010018304 0.53146333)
(0 0.0090960389 0.52887319)
(0 0.0081674164 0.52674087)
(0 0.0072341178 0.52498686)
(0 0.0062979488 0.52355224)
(0 0.0053605971 0.52239327)
(0 0.0044234988 0.52147736)
(0 0.0034878457 0.52078047)
(0 0.002554598 0.52028531)
(0 0.0016245556 0.51998023)
(0 0.00069841563 0.51985842)
(0 -0.00022311569 0.5199176)
(0 -0.001139244 0.52015987)
(0 -0.0020489786 0.52059189)
(0 -0.0029510444 0.52122528)
(0 -0.0038437699 0.52207741)
(0 -0.0047250119 0.52317266)
(0 -0.005592081 0.52454436)
(0 -0.0064416955 0.52623767)
(0 -0.0072701537 0.52831387)
(0 -0.0080728986 0.53085584)
(0 -0.0088461705 0.53398218)
(0 -0.009591246 0.53793083)
(0 -0.010331976 0.54335435)
(0 -0.011115984 0.55140938)
(0 -0.011712456 0.56050784)
(0 -0.011065401 0.55545943)
(0 -0.0077437995 0.49887535)
(0 -0.0020575659 0.35277135)
(0 0.0003940464 0.12744054)
(0 3.5605159e-05 0.11341541)
(0 0.0025609129 0.32716918)
(0 0.008765666 0.48558585)
(0 0.013347611 0.55944578)
(0 0.014656949 0.57190599)
(0 0.014018 0.56211715)
(0 0.013013092 0.55154136)
(0 0.012114824 0.54436594)
(0 0.01127831 0.53936615)
(0 0.010443144 0.53549325)
(0 0.0095939294 0.53234986)
(0 0.0087305448 0.52976979)
(0 0.0078555808 0.52764559)
(0 0.0069713447 0.5258976)
(0 0.0060802604 0.52446697)
(0 0.0051846037 0.52331012)
(0 0.0042863983 0.52239471)
(0 0.0033874208 0.52169693)
(0 0.0024892137 0.52119969)
(0 0.0015931576 0.52089145)
(0 0.00070053137 0.52076548)
(0 -0.00018738264 0.52081943)
(0 -0.0010692124 0.52105527)
(0 -0.0019433937 0.52147941)
(0 -0.0028080794 0.52210313)
(0 -0.0036610266 0.52294336)
(0 -0.0044995162 0.52402398)
(0 -0.0053202785 0.52537776)
(0 -0.0061194226 0.52704929)
(0 -0.0068926073 0.52909933)
(0 -0.0076346311 0.53161061)
(0 -0.0083410599 0.53470485)
(0 -0.0090136264 0.53863523)
(0 -0.0096737248 0.54406899)
(0 -0.010349199 0.55202711)
(0 -0.010773653 0.56037309)
(0 -0.0099234894 0.55336058)
(0 -0.0066594734 0.49463417)
(0 -0.0015646904 0.34900625)
(0 0.00031596012 0.12670626)
(0 6.3590686e-05 0.11242197)
(0 0.002170003 0.32346362)
(0 0.0076897336 0.48090935)
(0 0.012109158 0.55677196)
(0 0.013611707 0.57156757)
(0 0.01319072 0.56285183)
(0 0.012316491 0.55242893)
(0 0.011501992 0.54519078)
(0 0.010738263 0.54016589)
(0 0.0099706299 0.53630263)
(0 0.0091828147 0.53317615)
(0 0.008375144 0.53061157)
(0 0.0075509246 0.52850021)
(0 0.0067131828 0.52676234)
(0 0.0058649849 0.52533919)
(0 0.0050091794 0.52418737)
(0 0.0041483375 0.52327481)
(0 0.003284762 0.52257794)
(0 0.0024205104 0.52207988)
(0 0.0015574695 0.52176922)
(0 0.00069742151 0.52163927)
(0 -0.00015785647 0.52168764)
(0 -0.0010065003 0.52191617)
(0 -0.0018464607 0.52233103)
(0 -0.0026754104 0.52294315)
(0 -0.0034906287 0.52376904)
(0 -0.0042889151 0.52483205)
(0 -0.0050665081 0.52616437)
(0 -0.0058189851 0.52780999)
(0 -0.0065414101 0.52982909)
(0 -0.0072279657 0.53230429)
(0 -0.0078735049 0.53536075)
(0 -0.0084797779 0.53926572)
(0 -0.0090647326 0.54469133)
(0 -0.0096355874 0.55250636)
(0 -0.0098985389 0.56006283)
(0 -0.0088768586 0.55121325)
(0 -0.0056937502 0.49070635)
(0 -0.0011585386 0.34579686)
(0 0.00024618951 0.12615423)
(0 7.6941629e-05 0.1116015)
(0 0.0018117132 0.32030174)
(0 0.0066962626 0.47662935)
(0 0.010932271 0.55410169)
(0 0.012598208 0.57104111)
(0 0.012388159 0.56341871)
(0 0.011647715 0.55320933)
(0 0.010917727 0.54593714)
(0 0.01022436 0.54089672)
(0 0.0095206915 0.53704925)
(0 0.0087906083 0.53394558)
(0 0.0080351142 0.53140174)
(0 0.00725835 0.52930767)
(0 0.006464139 0.52758367)
(0 0.0056562049 0.52617113)
(0 0.0048379521 0.52502695)
(0 0.0040124589 0.52411933)
(0 0.0031825006 0.52342498)
(0 0.002350588 0.52292722)
(0 0.0015190483 0.52261479)
(0 0.00069009704 0.52248105)
(0 -0.0001340656 0.52252358)
(0 -0.00095115935 0.52274408)
(0 -0.0017587298 0.52314851)
(0 -0.0025540534 0.52374745)
(0 -0.0033340221 0.52455699)
(0 -0.0040950473 0.52559993)
(0 -0.0048329718 0.52690787)
(0 -0.0055429368 0.52852415)
(0 -0.0062194872 0.53050826)
(0 -0.0068562582 0.53294273)
(0 -0.0074474091 0.53595624)
(0 -0.0079942877 0.53982839)
(0 -0.0085105738 0.54522665)
(0 -0.0089827743 0.55285567)
(0 -0.0090972419 0.55959833)
(0 -0.0079347136 0.54904334)
(0 -0.004849219 0.48708186)
(0 -0.00083615073 0.3430773)
(0 0.0001861272 0.12574922)
(0 7.876239e-05 0.11094708)
(0 0.0014875642 0.31763617)
(0 0.005789303 0.47273117)
(0 0.009829329 0.55145458)
(0 0.011631408 0.57034396)
(0 0.011622202 0.56382092)
(0 0.011015923 0.55388154)
(0 0.010369841 0.54660632)
(0 0.0097434905 0.54156191)