/*--------------------------------*- C++ -*----------------------------------*\
  =========                 |
  \\      /  F ield         | OpenFOAM: The Open Source CFD Toolbox
   \\    /   O peration     | Website:  https://openfoam.org
    \\  /    A nd           | Version:  10
     \\/     M anipulation  |
\*---------------------------------------------------------------------------*/
FoamFile
{
    format      ascii;
    class       surfaceScalarField;
    location    "0.2";
    object      phi;
}
// * * * * * * * * * * * * * * * * * * * * * * * * * * * * * * * * * * * * * //

dimensions      [1 0 -1 0 0 0 0];

internalField   nonuniform List<scalar> 
7860
(
3.9895854e-08
5.2881218e-07
1.2192628e-08
5.9641102e-07
7.4278102e-09
5.7347256e-07
5.499322e-09
5.7063619e-07
4.1149029e-09
5.7009209e-07
3.201058e-09
5.6962149e-07
2.5590756e-09
5.6934961e-07
2.0792625e-09
5.6918743e-07
1.7092899e-09
5.6907758e-07
1.4166339e-09
5.6900025e-07
1.1794989e-09
5.6894472e-07
9.831216e-10
5.6890396e-07
8.171582e-10
5.6887354e-07
6.7411822e-10
5.6885061e-07
5.4842807e-10
5.6883326e-07
4.3582688e-10
5.6882017e-07
3.3296065e-10
5.6881043e-07
2.371018e-10
5.6880342e-07
1.4594702e-10
5.6879871e-07
5.7464984e-11
5.6879604e-07
-3.0227468e-11
5.6879525e-07
-1.189728e-10
5.687963e-07
-2.1067778e-10
5.6879926e-07
-3.0742014e-10
5.688043e-07
-4.1158096e-10
5.6881172e-07
-5.2600747e-10
5.6882199e-07
-6.54234e-10
5.6883579e-07
-8.0079468e-10
5.6885413e-07
-9.7168407e-10
5.6887846e-07
-1.1750639e-09
5.6891096e-07
-1.422436e-09
5.6895496e-07
-1.7306124e-09
5.6901577e-07
-2.124572e-09
5.6910156e-07
-2.6441973e-09
5.6922724e-07
-3.3719021e-09
5.6943534e-07
-4.4632434e-09
5.6979899e-07
-6.0086466e-09
5.7025308e-07
-9.5076956e-09
5.7220676e-07
-2.9575468e-08
5.8877553e-07
5.3913246e-07
5.9672186e-08
4.6913999e-07
3.6665595e-08
6.1941761e-07
2.2627802e-08
5.8751035e-07
1.6253209e-08
5.7701078e-07
1.2290159e-08
5.7405514e-07
9.6059369e-09
5.7230572e-07
7.6771969e-09
5.7127835e-07
6.235903e-09
5.7062872e-07
5.1264575e-09
5.7018702e-07
4.2487869e-09
5.6987792e-07
3.5375556e-09
5.6965595e-07
2.9485937e-09
5.6949292e-07
2.4508549e-09
5.6937128e-07
2.0218629e-09
5.692796e-07
1.6449017e-09
5.6921022e-07
1.307193e-09
5.6915787e-07
9.9867813e-10
5.6911894e-07
7.1117755e-10
5.6909092e-07
4.3778423e-10
5.6907211e-07
1.724052e-10
5.6906142e-07
-9.0607255e-11
5.6905826e-07
-3.5677762e-10
5.6906247e-07
-6.318194e-10
5.6907431e-07
-9.2196635e-10
5.6909445e-07
-1.2343589e-09
5.6912411e-07
-1.5775356e-09
5.6916517e-07
-1.962095e-09
5.6922035e-07
-2.4016346e-09
5.6929367e-07
-2.9141389e-09
5.6939097e-07
-3.5241019e-09
5.6952092e-07
-4.2659441e-09
5.696968e-07
-5.1900324e-09
5.6993986e-07
-6.3729936e-09
5.7028453e-07
-7.933548e-09
5.707878e-07
-1.0074921e-08
5.7157671e-07
-1.3203243e-08
5.7292731e-07
-1.8133288e-08
5.7518312e-07
-2.8175607e-08
5.8224908e-07
-4.5801773e-08
6.0640169e-07
4.9333068e-07
6.0008312e-08
4.0913169e-07
5.0486535e-08
6.2893939e-07
3.3369989e-08
6.046269e-07
2.4817017e-08
5.8556376e-07
1.9322621e-08
5.7954954e-07
1.5330936e-08
5.762974e-07
1.2360244e-08
5.7424905e-07
1.0101189e-08
5.7288778e-07
8.3403928e-09
5.7194782e-07
6.9347329e-09
5.7128358e-07
5.7881286e-09
5.7080256e-07
4.8338133e-09
5.7044724e-07
4.0240206e-09
5.7018107e-07
3.323763e-09
5.6997986e-07
2.7067747e-09
5.6982721e-07
2.1528215e-09
5.6971183e-07
1.6458757e-09
5.6962589e-07
1.1728358e-09
5.6956396e-07
7.2259231e-10
5.6952235e-07
2.8531464e-10
5.694987e-07
-1.4812607e-10
5.694917e-07
-5.8666317e-10
5.6950101e-07
-1.0395276e-09
5.6952717e-07
-1.5167681e-09
5.6957169e-07
-2.029854e-09
5.696372e-07
-2.5924348e-09
5.6972775e-07
-3.2213514e-09
5.6984927e-07
-3.9380479e-09
5.7001037e-07
-4.7706208e-09
5.7022354e-07
-5.756883e-09
5.7050719e-07
-6.9490224e-09
5.7088894e-07
-8.4212401e-09
5.7141208e-07
-1.0282938e-08
5.7214622e-07
-1.2695991e-08
5.7320085e-07
-1.5893564e-08
5.7477428e-07
-2.0237553e-08
5.772713e-07
-2.6706058e-08
5.8165163e-07
-3.8945637e-08
5.9448865e-07
-4.8165505e-08
6.1562156e-07
4.4516518e-07
5.4878365e-08
3.5425333e-07
5.7451033e-08
6.2636673e-07
4.0466452e-08
6.2161148e-07
3.0777726e-08
5.9525248e-07
2.4642064e-08
5.856852e-07
1.9951392e-08
5.8098807e-07
1.6312159e-08
5.7788828e-07
1.3465904e-08
5.7573403e-07
1.120051e-08
5.7421321e-07
9.3642704e-09
5.7311982e-07
7.8492978e-09
5.7231753e-07
6.5771017e-09
5.7171943e-07
5.4898336e-09
5.7126834e-07
4.5441781e-09
5.7092552e-07
3.707038e-09
5.7066435e-07
2.9525533e-09
5.7046631e-07
2.2600038e-09
5.7031844e-07
1.6122909e-09
5.7021167e-07
9.9480664e-10
5.7013983e-07
3.9455319e-10
5.7009895e-07
-2.0057998e-10
5.7008684e-07
-8.024564e-10
5.7010289e-07
-1.4233136e-09
5.7014803e-07
-2.0764176e-09
5.7022479e-07
-2.7768134e-09
5.703376e-07
-3.5422529e-09
5.7049319e-07
-4.3944025e-09
5.7070142e-07
-5.3604752e-09
5.7097644e-07
-6.4755119e-09
5.7133858e-07
-7.7856415e-09
5.7181731e-07
-9.352648e-09
5.7245595e-07
-1.1260356e-08
5.7331978e-07
-1.3625034e-08
5.745109e-07
-1.6608032e-08
5.7618385e-07
-2.0407131e-08
5.7857338e-07
-2.5289011e-08
5.8215318e-07
-3.2513481e-08
5.888761e-07
-4.5097213e-08
6.0707239e-07
-4.6546946e-08
6.1707129e-07
3.9861823e-07
4.7964932e-08
3.0628842e-07
6.0074928e-08
6.1425674e-07
4.5398538e-08
6.3628786e-07
3.4873866e-08
6.0577715e-07
2.8398436e-08
5.9216063e-07
2.3418298e-08
5.8596821e-07
1.9433129e-08
5.8187345e-07
1.6228186e-08
5.7893898e-07
1.361895e-08
5.7682245e-07
1.1466011e-08
5.7527276e-07
9.664241e-09
5.741193e-07
8.1335961e-09
5.7325008e-07
6.8130499e-09
5.7258888e-07
5.6555871e-09
5.7208298e-07
4.6244287e-09
5.716955e-07
3.6902845e-09
5.7140046e-07
2.829312e-09
5.7117941e-07
2.0215778e-09
5.7101941e-07
1.249873e-09
5.7091154e-07
4.9876791e-10
5.7085005e-07
-2.4618061e-10
5.7083178e-07
-9.9913921e-10
5.7085584e-07
-1.7746886e-09
5.7092358e-07
-2.5885458e-09
5.7103865e-07
-3.4583803e-09
5.7120743e-07
-4.4047978e-09
5.714396e-07
-5.4525804e-09
5.717492e-07
-6.6322955e-09
5.7215615e-07
-7.9824233e-09
5.7268871e-07
-9.5522303e-09
5.7338712e-07
-1.1405545e-08
5.7430926e-07
-1.3625182e-08
5.7553942e-07
-1.631945e-08
5.7720517e-07
-1.9631956e-08
5.7949635e-07
-2.3732977e-08
5.826744e-07
-2.8925403e-08
5.8734561e-07
-3.6785817e-08
5.9673651e-07
-4.8458686e-08
6.1874525e-07
-4.3191205e-08
6.1180381e-07
3.5542703e-07
4.0335091e-08
2.6595336e-07
5.8992027e-08
5.9559983e-07
4.8327886e-08
6.46952e-07
3.7586063e-08
6.1651897e-07
3.0926991e-08
5.988197e-07
2.5892238e-08
5.9100296e-07
2.1778443e-08
5.8598724e-07
1.839075e-08
5.8232667e-07
1.5576497e-08
5.796367e-07
1.3213632e-08
5.7763563e-07
1.1206213e-08
5.7612672e-07
9.4789425e-09
5.7497735e-07
7.9726756e-09
5.7409515e-07
6.6405037e-09
5.7341515e-07
5.4447951e-09
5.7289121e-07
4.3549275e-09
5.7249032e-07
3.3455081e-09
5.7218883e-07
2.394974e-09
5.7196994e-07
1.4844742e-09
5.7182204e-07
5.9694944e-10
5.7173758e-07
-2.8365853e-10
5.7171239e-07
-1.1731241e-09
5.7174531e-07
-2.0876406e-09
5.7183809e-07
-3.0445484e-09
5.7199556e-07
-4.063141e-09
5.7222602e-07
-5.1656109e-09
5.7254207e-07
-6.3782016e-09
5.7296179e-07
-7.7326419e-09
5.7351059e-07
-9.2679438e-09
5.7422401e-07
-1.103271e-08
5.7515189e-07
-1.3088167e-08
5.7636472e-07
-1.5511585e-08
5.7796284e-07
-1.840037e-08
5.8009395e-07
-2.1878706e-08
5.8297469e-07
-2.6102389e-08
5.8689808e-07
-3.1480857e-08
5.9272408e-07
-3.9647241e-08
6.0490289e-07
-4.9165621e-08
6.2826363e-07
-3.8574804e-08
6.0121299e-07
3.1685222e-07
3.2861618e-08
2.3309178e-07
5.5247439e-08
5.7321404e-07
4.9229311e-08
6.5297013e-07
3.9058809e-08
6.2668947e-07
3.2428143e-08
6.0545037e-07
2.751643e-08
5.9591468e-07
2.3436625e-08
5.9006705e-07
2.0001156e-08
5.8576214e-07
1.7093465e-08
5.8254439e-07
1.4611325e-08
5.8011777e-07
1.2470943e-08
5.782671e-07
1.0605064e-08
5.7684322e-07
8.9594425e-09
5.7574077e-07
7.4898808e-09
5.7488471e-07
6.1600436e-09
5.7422105e-07
4.9396989e-09
5.7371067e-07
3.8032761e-09
5.7332525e-07
2.7286885e-09
5.7304453e-07
1.6963578e-09
5.7285437e-07
6.8838234e-10
5.7274555e-07
-3.1219441e-10
5.7271297e-07
-1.3220583e-09
5.7275517e-07
-2.3582903e-09
5.7287432e-07
-3.4390499e-09
5.7307632e-07
-4.5843164e-09
5.7337129e-07
-5.8167363e-09
5.7377449e-07
-7.1626203e-09
5.7430767e-07
-8.653144e-09
5.7500112e-07
-1.0325798e-08
5.7589666e-07
-1.2226165e-08
5.7705225e-07
-1.4410305e-08
5.7854886e-07
-1.6947652e-08
5.8050019e-07
-1.9923056e-08
5.8306936e-07
-2.3437304e-08
5.8648894e-07
-2.7631822e-08
5.910926e-07
-3.3024875e-08
5.9811713e-07
-4.1001164e-08
6.1287918e-07
-4.7679286e-08
6.3494176e-07
-3.3371852e-08
5.8690556e-07
2.8348037e-07
2.6187785e-08
2.0690405e-07
5.0129572e-08
5.4927231e-07
4.8489771e-08
6.5460994e-07
3.9487504e-08
6.3569172e-07
3.3074181e-08
6.1186369e-07
2.8409005e-08
6.0057985e-07
2.4490204e-08
5.9398585e-07
2.1115936e-08
5.8913641e-07
1.8205312e-08
5.8545502e-07
1.5679099e-08
5.8264398e-07
1.3468154e-08
5.8047805e-07
1.1515294e-08
5.7879609e-07
9.7729956e-09
5.7748307e-07
8.2014633e-09
5.7645624e-07
6.7671587e-09
5.7565535e-07
5.4415299e-09
5.750363e-07
4.1999227e-09
5.7456686e-07
3.0206577e-09
5.7422379e-07
1.8842325e-09
5.7399079e-07
7.7261847e-10
5.7385717e-07
-3.3137528e-10
5.7381696e-07
-1.444698e-09
5.738685e-07
-2.5846501e-09
5.7401428e-07
-3.7694858e-09
5.7426115e-07
-5.0190559e-09
5.7462086e-07
-6.3555224e-09
5.7511096e-07
-7.804171e-09
5.7575632e-07
-9.3943584e-09
5.765913e-07
-1.116062e-08
5.7766292e-07
-1.3143937e-08
5.7903557e-07
-1.5393388e-08
5.8079831e-07
-1.7968267e-08
5.8307506e-07
-2.0938035e-08
5.8603913e-07
-2.4377897e-08
5.899288e-07
-2.8423366e-08
5.9513807e-07
-3.3679454e-08
6.0337322e-07
-4.1050692e-08
6.2025042e-07
-4.4787023e-08
6.3867809e-07
-2.8199641e-08
5.7031818e-07
2.5528073e-07
2.056955e-08
1.8633455e-07
4.4579455e-08
5.2526248e-07
4.6638135e-08
6.5255127e-07
3.9148625e-08
6.4318122e-07
3.307964e-08
6.1793267e-07
2.8713761e-08
6.0494573e-07
2.5034681e-08
5.9766493e-07
2.180082e-08
5.9237027e-07
1.8956855e-08
5.8829898e-07
1.6446724e-08
5.8515411e-07
1.4216923e-08
5.8270785e-07
1.2221264e-08
5.8079174e-07
1.0419958e-08
5.7928438e-07
8.7786399e-09
5.7809756e-07
7.2675478e-09
5.7716645e-07
5.8607065e-09
5.7644314e-07
4.5351894e-09
5.7589238e-07
3.270453e-09
5.7548853e-07
2.0477295e-09
5.7521352e-07
8.4947018e-10
5.7505543e-07
-3.411748e-10
5.7500761e-07
-1.5408526e-09
5.7506817e-07
-2.7665046e-09
5.7523993e-07
-4.0358682e-09
5.7553052e-07
-5.3680009e-09
5.7595299e-07
-6.7838463e-09
5.765268e-07
-8.3068511e-09
5.7727933e-07
-9.9636505e-09
5.782481e-07
-1.1784834e-08
5.7948411e-07
-1.3805741e-08
5.8105648e-07
-1.606737e-08
5.8305994e-07
-1.8617579e-08
5.8562527e-07
-2.1509487e-08
5.8893103e-07
-2.4797125e-08
5.9321644e-07
-2.8626655e-08
5.989676e-07
-3.3645107e-08
6.0839167e-07
-4.0129152e-08
6.2673447e-07
-4.1146894e-08
6.3969583e-07
-2.3411535e-08
5.5258282e-07
2.3186919e-07
1.6013966e-08
1.7032066e-07
3.9139505e-08
5.0213705e-07
4.4112634e-08
6.4757818e-07
3.8283874e-08
6.4900997e-07
3.2648628e-08
6.235679e-07
2.8586735e-08
6.0900762e-07
2.5179209e-08
6.0107245e-07
2.2132162e-08
5.9541731e-07
1.9401697e-08
5.9102945e-07
1.6951748e-08
5.8760406e-07
1.4743328e-08
5.8491627e-07
1.2740832e-08
5.8279424e-07
1.0912339e-08
5.8111287e-07
9.2293169e-09
5.7978058e-07
7.6662825e-09
5.7872948e-07
6.2003776e-09
5.7790904e-07
4.8109451e-09
5.7728181e-07
3.4791002e-09
5.7682037e-07
2.1873103e-09
5.7650531e-07
9.1898615e-10
5.7632375e-07
-3.4191469e-10
5.7626851e-07
-1.6112749e-09
5.7633753e-07
-2.905209e-09
5.7653386e-07
-4.2404539e-09
5.7686576e-07
-5.6347682e-09
5.7734731e-07
-7.1073469e-09
5.7799938e-07
-8.6792484e-09
5.7885123e-07
-1.0373833e-08
5.7994269e-07
-1.2217219e-08
5.8132749e-07
-1.42387e-08
5.8307796e-07
-1.6471114e-08
5.8529235e-07
-1.8951222e-08
5.8810538e-07
-2.1717177e-08
5.9169699e-07
-2.4809468e-08
5.9630873e-07
-2.8396863e-08
6.02555e-07
-3.310618e-08
6.1310099e-07
-3.8531472e-08
6.3215976e-07
-3.7201379e-08
6.3836573e-07
-1.9176909e-08
5.3455835e-07
2.1269228e-07
1.2422064e-08
1.5789867e-07
3.4108809e-08
4.8045045e-07
4.1242465e-08
6.4044458e-07
3.7071387e-08
6.5318104e-07
3.1935249e-08
6.2870403e-07
2.8162625e-08
6.1278024e-07
2.50274e-08
6.0420768e-07
2.2187188e-08
5.9825752e-07
1.9596921e-08
5.9361971e-07
1.7236003e-08
5.8996498e-07
1.5077791e-08
5.8707448e-07
1.3095962e-08
5.8477607e-07
1.1265868e-08
5.8294296e-07
9.5646427e-09
5.8148181e-07
7.9711555e-09
5.8032297e-07
6.4658821e-09
5.7941432e-07
5.0307245e-09
5.7871697e-07
3.6487838e-09
5.7820231e-07
2.3041048e-09
5.7784999e-07
9.8140545e-10
5.7764645e-07
-3.342003e-10
5.7758411e-07
-1.6574811e-09
5.7766081e-07
-3.0033739e-09
5.7787975e-07
-4.3872653e-09
5.7824965e-07
-5.8252694e-09
5.7878531e-07
-7.3345015e-09
5.7950862e-07
-8.9333375e-09
5.8045006e-07
-1.0641646e-08
5.81651e-07
-1.2480996e-08
5.8316684e-07
-1.4474822e-08
5.8507178e-07
-1.6648449e-08
5.8746598e-07
-1.902878e-08
5.9048571e-07
-2.1641326e-08
5.9430953e-07
-2.4520283e-08
5.9918768e-07
-2.7860015e-08
6.0589473e-07
-3.2205341e-08
6.1744631e-07
-3.6499776e-08
6.3645419e-07
-3.3251727e-08
6.3511768e-07
-1.5557419e-08
5.1686404e-07
1.9713487e-07
9.6552226e-09
1.4824354e-07
2.9639665e-08
4.6046618e-07
3.8274263e-08
6.3181007e-07
3.5649308e-08
6.5580599e-07
3.1050651e-08
6.3330267e-07
2.7545771e-08
6.1628512e-07
2.4665797e-08
6.0708765e-07
2.2034648e-08
6.0088867e-07
1.9596372e-08
5.9605799e-07
1.7340983e-08
5.9222036e-07
1.5251857e-08
5.891636e-07
1.3310399e-08
5.8671753e-07
1.1498262e-08
5.847551e-07
9.7977047e-09
5.8318237e-07
8.1917085e-09
5.8192896e-07
6.6640364e-09
5.8094199e-07
5.1992266e-09
5.8018177e-07
3.7825179e-09
5.7961902e-07
2.3997285e-09
5.7923277e-07
1.0371051e-09
5.7900907e-07
-3.1884758e-10
5.7894007e-07
-1.6815461e-09
5.7902351e-07
-3.0645155e-09
5.7926272e-07
-4.4815699e-09
5.7966671e-07
-5.9469823e-09
5.8025072e-07
-7.4756366e-09
5.8103727e-07
-9.0831509e-09
5.8205758e-07
-1.0785953e-08
5.833538e-07
-1.2601308e-08
5.849822e-07
-1.4547316e-08
5.8701779e-07
-1.6642728e-08
5.8956139e-07
-1.8906039e-08
5.9274902e-07
-2.1352778e-08
5.9675627e-07
-2.4017059e-08
6.0185196e-07
-2.7114935e-08
6.089926e-07
-3.1060723e-08
6.213921e-07
-3.4238175e-08
6.3963165e-07
-2.9503052e-08
6.3038256e-07
-1.2548404e-08
4.9990939e-07
1.8458646e-07
7.5646146e-09
1.4067904e-07
2.5779723e-08
4.4225129e-07
3.5378872e-08
6.2221104e-07
3.4127468e-08
6.570574e-07
3.0077794e-08
6.3735233e-07
2.6816129e-08
6.1954678e-07
2.4164054e-08
6.0973973e-07
2.1732295e-08
6.0332043e-07
1.9447307e-08
5.9834298e-07
1.7304723e-08
5.9436295e-07
1.5295648e-08
5.9117268e-07
1.3407686e-08
5.8860549e-07
1.1627705e-08
5.8653508e-07
9.942376e-09
5.8486769e-07
8.3383624e-09
5.8353298e-07
6.8024921e-09
5.8247786e-07
5.3218561e-09
5.8166241e-07
3.8838413e-09
5.8105704e-07
2.4761115e-09
5.806405e-07
1.0865517e-09
5.8039863e-07
-2.9681323e-10
5.8032343e-07
-1.6859116e-09
5.8041261e-07
-3.0927275e-09
5.8066954e-07
-4.5293945e-09
5.8110337e-07
-6.0082745e-09
5.817296e-07
-7.5420124e-09
5.8257101e-07
-9.1435548e-09
5.8365912e-07
-1.0826116e-08
5.8503636e-07
-1.2603084e-08
5.8675917e-07
-1.4487909e-08
5.8890261e-07
-1.6493792e-08
5.9156727e-07
-1.8632347e-08
5.9488758e-07
-2.0912103e-08
5.9903603e-07
-2.3372193e-08
6.0431205e-07
-2.6241944e-08
6.1186235e-07
-2.977336e-08
6.2492352e-07
-3.1908289e-08
6.4176657e-07
-2.6077673e-08
6.2455195e-07
-1.0103203e-08
4.8393492e-07
1.7448326e-07
6.0096645e-09
1.3466951e-07
2.2507194e-08
4.2575403e-07
3.265813e-08
6.1206027e-07
3.258628e-08
6.5712926e-07
2.9076731e-08
6.4086185e-07
2.6033832e-08
6.2258967e-07
2.3577474e-08
6.1219609e-07
2.1327677e-08
6.0557023e-07
1.9189891e-08
6.0048076e-07
1.7160637e-08
5.963922e-07
1.5236523e-08
5.9309679e-07
1.34099e-08
5.9043211e-07
1.1671765e-08
5.8827322e-07
1.0012426e-08
5.8652703e-07
8.4217167e-09
5.8512369e-07
6.8892014e-09
5.8401037e-07
5.4043333e-09
5.8314728e-07
3.956555e-09
5.8250481e-07
2.5353501e-09
5.8206171e-07
1.1302591e-09
5.8180372e-07
-2.6913168e-10
5.8172282e-07
-1.6732149e-09
5.8181669e-07
-3.092394e-09
5.8208872e-07
-4.5371073e-09
5.8254809e-07
-6.017835e-09
5.8321033e-07
-7.5450809e-09
5.8409825e-07
-9.129316e-09
5.8524336e-07
-1.0780873e-08
5.8668792e-07
-1.2509788e-08
5.8848808e-07
-1.4325621e-08
5.9071845e-07
-1.6237081e-08
5.9347873e-07
-1.8250487e-08
5.9690098e-07
-2.0370449e-08
6.0115599e-07
-2.2644659e-08
6.0658626e-07
-2.530459e-08
6.1452228e-07
-2.8423815e-08
6.2804274e-07
-2.9624284e-08
6.4296704e-07
-2.3030829e-08
6.1795849e-07
-8.1533546e-09
4.6905745e-07
1.663299e-07
4.8676667e-09
1.29802e-07
1.9763516e-08
4.108585e-07
3.0160288e-08
6.0166372e-07
3.107806e-08
6.5621153e-07
2.8086921e-08
6.4385296e-07
2.5241134e-08
6.2543544e-07
2.2948149e-08
6.1448907e-07
2.0858814e-08
6.0765957e-07
1.885737e-08
6.0248221e-07
1.6937258e-08
5.9831231e-07
1.509853e-08
5.9493552e-07
1.3336979e-08
5.9219366e-07
1.1646708e-08
5.8996349e-07
1.0020905e-08
5.8815284e-07
8.4520284e-09
5.8669256e-07
6.9319995e-09
5.855304e-07
5.4523798e-09
5.846269e-07
4.0045054e-09
5.8395269e-07
2.5795834e-09
5.8348663e-07
1.1687557e-09
5.8321455e-07
-2.3686021e-10
5.8312844e-07
-1.6461436e-09
5.8322598e-07
-3.0679491e-09
5.8351052e-07
-4.5110773e-09
5.8399121e-07
-5.9842298e-09
5.8468348e-07
-7.495939e-09
5.8560996e-07
-9.0544649e-09
5.8680188e-07
-1.0667652e-08
5.883011e-07
-1.2342743e-08
5.9016317e-07
-1.4086195e-08
5.924619e-07
-1.5903251e-08
5.9529579e-07
-1.7796467e-08
5.987942e-07
-1.9769332e-08
6.0312885e-07
-2.187983e-08
6.0869676e-07
-2.4349571e-08
6.1699202e-07
-2.7070803e-08
6.3076397e-07
-2.7458238e-08
6.4335448e-07
-2.0371865e-08
6.1087212e-07
-6.6232016e-09
4.5530878e-07
1.597067e-07
4.0362605e-09
1.2576592e-07
1.7476202e-08
3.9741895e-07
2.7899291e-08
5.9124091e-07
2.9633408e-08
6.5447747e-07
2.7131529e-08
6.4635481e-07
2.4465185e-08
6.2810177e-07
2.2306188e-08
6.1664806e-07
2.0354748e-08
6.0961101e-07
1.8476287e-08
6.0436067e-07
1.6658187e-08
6.0013041e-07
1.4902174e-08
5.9669153e-07
1.3206372e-08
5.9388946e-07
1.1567109e-08
5.9160275e-07
9.9797518e-09
5.8974019e-07
8.4388538e-09
5.8823346e-07
6.9383017e-09
5.8703095e-07
5.4714805e-09
5.8609372e-07
4.0314168e-09
5.8539275e-07
2.6108962e-09
5.8490715e-07
1.2025573e-09
5.8462289e-07
-2.0103351e-10
5.8453203e-07
-1.6073183e-09
5.8463226e-07
-3.0236878e-09
5.8492689e-07
-4.4574148e-09
5.8542494e-07
-5.9155747e-09
5.8614164e-07
-7.4049432e-09
5.8709933e-07
-8.9318697e-09
5.8832881e-07
-1.0502122e-08
5.8987135e-07
-1.2120712e-08
5.9178176e-07
-1.379172e-08
5.9413291e-07
-1.5517861e-08
5.9702193e-07
-1.7299287e-08
6.0057563e-07
-1.9140677e-08
6.0497024e-07
-2.1110384e-08
6.1066647e-07
-2.3408831e-08
6.1929047e-07
-2.5754045e-08
6.3310919e-07
-2.5449881e-08
6.4305031e-07
-1.8082231e-08
6.0350447e-07
-5.4383665e-09
4.4266492e-07
1.5426833e-07
3.4327695e-09
1.2233337e-07
1.5571431e-08
3.8528076e-07
2.5868502e-08
5.8094419e-07
2.8267715e-08
6.5207835e-07
2.6222387e-08
6.4840011e-07
2.3721836e-08
6.306023e-07
2.1671862e-08
6.1869803e-07
1.9836663e-08
6.1144621e-07
1.8067025e-08
6.0613031e-07
1.63423e-08
6.0185514e-07
1.4664405e-08
5.9836943e-07
1.3032912e-08
5.9552095e-07
1.1445649e-08
5.9319001e-07
9.8995632e-09
5.9128628e-07
8.3908217e-09
5.897422e-07
6.9149007e-09
5.8850687e-07
5.4667189e-09
5.875419e-07
4.0407708e-09
5.868187e-07
2.6312488e-09
5.8631667e-07
1.2321501e-09
5.8602199e-07
-1.626286e-10
5.8592681e-07
-1.559205e-09
5.8602884e-07
-2.9636275e-09
5.8633131e-07
-4.3817852e-09
5.868431e-07
-5.8193087e-09
5.8757916e-07
-7.2814536e-09
5.8856147e-07
-8.772967e-09
5.8982032e-07
-1.0297942e-08
5.9139633e-07
-1.1859671e-08
5.9334349e-07
-1.3460503e-08
5.9573374e-07
-1.5101415e-08
5.9866284e-07
-1.678133e-08
6.0225554e-07
-1.8507852e-08
6.0669677e-07
-2.0358503e-08
6.1251712e-07
-2.2502821e-08
6.2143479e-07
-2.4498362e-08
6.3510473e-07
-2.3616021e-08
6.4216797e-07
-1.6127929e-08
5.9601637e-07
-4.5304351e-09
4.3106742e-07
1.497379e-07
2.9925626e-09
1.1934107e-07
1.3980727e-08
3.7429314e-07
2.4050046e-08
5.7087532e-07
2.6986103e-08
6.4914243e-07
2.536384e-08
6.5002234e-07
2.3019066e-08
6.3294704e-07
2.1057991e-08
6.206591e-07
1.9319399e-08
6.131848e-07
1.7644731e-08
6.0780497e-07
1.6004245e-08
6.0349562e-07
1.4398845e-08
5.9997483e-07
1.2828863e-08
5.9709094e-07
1.1293069e-08
5.9472581e-07
9.7894981e-09
5.9278985e-07
8.3155163e-09
5.9121618e-07
6.8678498e-09
5.8995454e-07
5.4426748e-09
5.8896708e-07
4.0357305e-09
5.8822564e-07
2.6424322e-09
5.8770997e-07
1.25798e-09
5.8740644e-07
-1.225394e-10
5.8730732e-07
-1.5040547e-09
5.8741035e-07
-2.8914151e-09
5.8771867e-07
-4.2892889e-09
5.8824097e-07
-5.7020558e-09
5.8899193e-07
-7.1336896e-09
5.8999311e-07
-8.5876322e-09
5.9127426e-07
-1.0066669e-08
5.9287537e-07
-1.157282e-08
5.9484964e-07
-1.3107242e-08
5.9726816e-07
-1.4669826e-08
6.0022542e-07
-1.6259235e-08
6.0384495e-07
-1.7887183e-08
6.0832471e-07
-1.9638235e-08
6.1426817e-07
-2.1643358e-08
6.2343991e-07
-2.3317202e-08
6.3677857e-07
-2.19578e-08
6.4080857e-07
-1.4467904e-08
5.8852648e-07
-3.8395079e-09
4.2043903e-07
1.4589839e-07
2.666801e-09
1.1667457e-07
1.2644339e-08
3.6431626e-07
2.2421154e-08
5.6109905e-07
2.5787182e-08
6.4577659e-07
2.4555456e-08
6.5125405e-07
2.2359545e-08
6.3514291e-07
2.0471946e-08
6.2254669e-07
1.8812896e-08
6.1484385e-07
1.7220315e-08
6.0939756e-07
1.565509e-08
6.0506085e-07
1.4116175e-08
6.0151374e-07
1.2604133e-08
5.9860298e-07
1.1118258e-08
5.9621168e-07
9.6572886e-09
5.9425082e-07
8.2194473e-09
5.9265402e-07
6.8024149e-09
5.9137157e-07
5.4033754e-09
5.9036611e-07
4.0190997e-09
5.8960992e-07
2.6460433e-09
5.8908303e-07
1.2804474e-09
5.8877204e-07
-8.1560457e-11
5.8866933e-07
-1.4438664e-09
5.8877266e-07
-2.8102737e-09
5.8908508e-07
-4.1843978e-09
5.896151e-07
-5.5695611e-09
5.9037709e-07
-6.9686833e-09
5.9139223e-07
-8.3841716e-09
5.9268975e-07
-9.8178247e-09
5.9430902e-07
-1.127077e-08
5.9630259e-07
-1.2743399e-08
5.9874079e-07
-1.4235042e-08
6.0171707e-07
-1.5744876e-08
6.0535478e-07
-1.7289387e-08
6.0986922e-07
-1.8957465e-08
6.1593625e-07
-2.0835885e-08
6.2531833e-07
-2.2215657e-08
6.3815834e-07
-2.0466486e-08
6.390594e-07
-1.3059633e-08
5.8111963e-07
-3.3151789e-09
4.1069457e-07
1.4258321e-07
2.4197438e-09
1.1425519e-07
1.1512342e-08
3.5522443e-07
2.0958253e-08
5.516538e-07
2.4665934e-08
6.4206916e-07
2.3794018e-08
6.5212595e-07
2.1742518e-08
6.3719437e-07
1.9917214e-08
6.2437198e-07
1.8323396e-08
6.1643767e-07
1.6801353e-08
6.109196e-07
1.530298e-08
6.0655922e-07
1.382458e-08
6.0299214e-07
1.2366551e-08
6.0006101e-07
1.0928417e-08
5.9764981e-07
9.5093266e-09
5.9566991e-07
8.1080847e-09
5.9405527e-07
6.7230805e-09
5.9275658e-07
5.3522863e-09
5.9173691e-07
3.9933109e-09
5.9096889e-07
2.6434767e-09
5.9043286e-07
1.2999077e-09
5.901156e-07
-4.0378077e-11
5.9000962e-07
-1.3803707e-09
5.9011265e-07
-2.7229819e-09
5.9042769e-07
-4.0709381e-09
5.9096305e-07
-5.4266883e-09
5.9173284e-07
-6.7923061e-09
5.9275785e-07
-8.1694025e-09
5.9406685e-07
-9.5590618e-09
5.9569868e-07
-1.0961822e-08
5.9770535e-07
-1.2377647e-08
6.0015661e-07
-1.3805702e-08
6.0314512e-07
-1.5246277e-08
6.0679536e-07
-1.6720828e-08
6.1134377e-07
-1.8319553e-08
6.1753497e-07
-2.0081352e-08
6.2708013e-07
-2.1193139e-08
6.3927013e-07
-1.9128003e-08
6.3699426e-07
-1.1862937e-08
5.7385456e-07
-2.9164407e-09
4.0174807e-07
1.3966677e-07
2.2260103e-09
1.1202959e-07
1.054427e-08
3.4690707e-07
1.9639254e-08
5.4255962e-07
2.3615763e-08
6.3809298e-07
2.3075002e-08
6.5266672e-07
2.1165236e-08
6.3910408e-07
1.9394648e-08
6.2614255e-07
1.7854427e-08
6.1797788e-07
1.6392857e-08
6.1238117e-07
1.4953716e-08
6.0799836e-07
1.3530175e-08
6.0441568e-07
1.2122175e-08
6.0146901e-07
1.0729265e-08
5.9904272e-07
9.3507935e-09
5.9704838e-07
7.9859368e-09
5.9542012e-07
6.6335917e-09
5.9410892e-07
5.2923326e-09
5.9307817e-07
3.9604348e-09
5.9230079e-07
2.6359291e-09
5.9175737e-07
1.316674e-09
5.9143486e-07
4.3739184e-13
5.9132585e-07
-1.3150286e-09
5.9142812e-07
-2.6318784e-09
5.9174454e-07
-3.9521075e-09
5.9228328e-07
-5.2774591e-09
5.9305819e-07
-6.6093453e-09
5.9408973e-07
-7.9487835e-09
5.9540629e-07
-9.2963662e-09
5.9704626e-07
-1.065228e-08
5.9906126e-07
-1.2016306e-08
6.0152064e-07
-1.338775e-08
6.0451657e-07
-1.4768432e-08
6.0817604e-07
-1.6184614e-08
6.1275996e-07
-1.7724714e-08
6.1907507e-07
-1.9377795e-08
6.2873321e-07
-2.024557e-08
6.401379e-07
-1.792607e-08
6.3467476e-07
-1.0841923e-08
5.6677041e-07
-2.6108386e-09
3.9351699e-07
1.3705593e-07
2.0681142e-09
1.0996196e-07
9.7080031e-09
3.3926823e-07
1.8444596e-08
5.3382399e-07
2.2629776e-08
6.3390823e-07
2.2393551e-08
6.5290298e-07
2.0623975e-08
6.408736e-07
1.8903431e-08
6.2786307e-07
1.7407612e-08
6.194737e-07
1.5997925e-08
6.1379086e-07
1.4611275e-08
6.0938501e-07
1.3237406e-08
6.0578955e-07
1.1875583e-08
6.0283083e-07
1.052525e-08
6.0039306e-07
9.1858089e-09
5.9838782e-07
7.8566504e-09
5.9674928e-07
6.5370197e-09
5.9542855e-07
5.2259396e-09
5.9438925e-07
3.9222042e-09
5.9360453e-07
2.6244115e-09
5.9305516e-07
1.3310179e-09
5.9272825e-07
4.0405199e-11
5.9261647e-07
-1.2490459e-09
5.9271757e-07
-2.5388857e-09
5.9303438e-07
-3.8305157e-09
5.9357491e-07
-5.1251206e-09
5.943528e-07
-6.4236086e-09
5.9538822e-07
-7.7265718e-09
5.9670925e-07
-9.0342864e-09
5.9835397e-07
-1.0346765e-08
6.0037374e-07
-1.1663784e-08
6.0283766e-07
-1.2985003e-08
6.0583778e-07
-1.4314052e-08
6.0950509e-07
-1.5681544e-08
6.1412745e-07
-1.7171141e-08
6.2056467e-07
-1.8721553e-08
6.3028362e-07
-1.9366995e-08
6.4078335e-07
-1.6844139e-08
6.321519e-07
-9.9655086e-09
5.5989178e-07
-2.3732584e-09
3.8592474e-07
1.3468267e-07
1.9343832e-09
1.0802814e-07
8.9784082e-09
3.3222543e-07
1.7357538e-08
5.2544601e-07
2.1701487e-08
6.2956483e-07
2.1745045e-08
6.5285948e-07
2.011471e-08
6.4250386e-07
1.8441777e-08
6.2953597e-07
1.6983292e-08
6.2093218e-07
1.5618275e-08
6.1515588e-07
1.427825e-08
6.1072504e-07
1.2949399e-08
6.071184e-07
1.1630151e-08
6.0415008e-07
1.0319759e-08
6.0170345e-07
9.0175848e-09
5.9968999e-07
7.723121e-09
5.9804374e-07
6.4358388e-09
5.9671583e-07
5.1550841e-09
5.9567e-07
3.8800457e-09
5.9487957e-07
2.6097672e-09
5.9432544e-07
1.3431837e-09
5.9399484e-07
7.9173675e-11
5.9388048e-07
-1.1833833e-09
5.9398012e-07
-2.4455435e-09
5.9429654e-07
-3.70824e-09
5.9483761e-07
-4.9722282e-09
5.9561679e-07
-6.2380445e-09
5.9665404e-07
-7.5059907e-09
5.9797719e-07
-8.7761614e-09
5.9962414e-07
-1.0048522e-08
6.016461e-07
-1.1322967e-08
6.041121e-07
-1.2599656e-08
6.0711447e-07
-1.3884186e-08
6.1078962e-07
-1.5210857e-08
6.1545412e-07
-1.6655833e-08
6.2200965e-07
-1.8108136e-08
6.3173592e-07
-1.855069e-08
6.412259e-07
-1.5866582e-08
6.294678e-07
-9.2075473e-09
5.5323275e-07
-2.1847262e-09
3.7890192e-07
1.3249795e-07
1.8172745e-09
1.0621151e-07
8.335986e-09
3.2570813e-07
1.636404e-08
5.1741931e-07
2.0825145e-08
6.2510441e-07
2.1125382e-08
6.5255935e-07
1.9633513e-08
6.4399566e-07
1.8007412e-08
6.3116203e-07
1.6580986e-08
6.223586e-07
1.5254658e-08
6.164822e-07
1.3956208e-08
6.1202349e-07
1.2668264e-08
6.0840635e-07
1.1388294e-08
6.0543005e-07
1.0115308e-08
6.0297643e-07
8.8485734e-09
6.0095673e-07
7.5876046e-09
5.9930471e-07
6.3320068e-09
5.9797143e-07
5.0813504e-09
5.9692066e-07
3.8351168e-09
5.961258e-07
2.5926914e-09
5.9556786e-07
1.3533838e-09
5.9523414e-07
1.1646465e-10
5.951174e-07
-1.1187901e-09
5.9521538e-07
-2.3530506e-09
5.955308e-07
-3.5868879e-09
5.9607144e-07
-4.8207354e-09
5.9685063e-07
-6.0548658e-09
5.9788817e-07
-7.2893964e-09
5.9921172e-07
-8.5243395e-09
6.0085909e-07
-9.7597019e-09
6.0288146e-07
-1.0995569e-08
6.0534797e-07
-1.2232705e-08
6.0835161e-07
-1.3478727e-08
6.1203564e-07
-1.4770813e-08
6.167462e-07
-1.6175195e-08
6.2341403e-07
-1.7532809e-08
6.3309354e-07
-1.77899e-08
6.4148299e-07
-1.497932e-08
6.2665722e-07
-8.5465014e-09
5.4679993e-07
-2.031241e-09
3.7238666e-07
1.3046671e-07
1.712066e-09
1.0450019e-07
7.7656482e-09
3.1965619e-07
1.545245e-08
5.097341e-07
1.9995825e-08
6.2056188e-07
2.0531092e-08
6.5202424e-07
1.9176771e-08
6.4534991e-07
1.7597884e-08
6.3274086e-07
1.6199717e-08
6.2375676e-07
1.4907165e-08
6.1777476e-07
1.3645975e-08
6.1328468e-07
1.2395341e-08
6.0965698e-07
1.1151676e-08
6.0667371e-07
9.9137164e-09
6.0421439e-07
8.6806035e-09
6.0218984e-07
7.451822e-09
6.0053349e-07
6.2270441e-09
5.9919621e-07
5.0059871e-09
5.9814171e-07
3.7883424e-09
5.9734344e-07
2.5737509e-09
5.9678245e-07
1.3618085e-09
5.9644609e-07
1.5208874e-10
5.9632711e-07
-1.0558264e-09
5.9642329e-07
-2.2623108e-09
5.9673729e-07
-3.4676638e-09
5.972768e-07
-4.6720857e-09
5.9805506e-07
-5.8756715e-09
5.9909175e-07
-7.0784346e-09
6.0041449e-07
-8.2803759e-09
6.0206103e-07
-9.4815992e-09
6.0408268e-07
-1.0682427e-08
6.065488e-07
-1.1884292e-08
6.0955347e-07
-1.3096799e-08
6.1324815e-07
-1.4359113e-08
6.1800852e-07
-1.5725449e-08
6.2478036e-07
-1.6990982e-08
6.3435907e-07
-1.7078275e-08
6.4157028e-07
-1.4170058e-08
6.23749e-07
-7.9649052e-09
5.4059478e-07
-1.9026992e-09
3.6632445e-07
1.2856401e-07
1.6158855e-09
1.0288516e-07
7.2556828e-09
3.1401829e-07
1.4613119e-08
5.0237853e-07
1.9209387e-08
6.1596664e-07
1.9959327e-08
6.5127453e-07
1.8741289e-08
6.4656788e-07
1.7210754e-08
6.3427133e-07
1.5838234e-08
6.2512926e-07
1.4575453e-08
6.1903754e-07
1.3347849e-08
6.1451228e-07
1.2131398e-08
6.1087343e-07
1.0921383e-08
6.0788373e-07
9.7162505e-09
6.0541953e-07
8.5150001e-09
6.0339109e-07
7.3170554e-09
6.0173144e-07
6.1221068e-09
6.0039116e-07
4.9299602e-09
5.9933386e-07
3.7404507e-09
5.9853295e-07
2.5534041e-09
5.979695e-07
1.3686292e-09
5.9763086e-07
1.8592704e-10
5.9750982e-07
-9.948902e-10
5.9760411e-07
-2.1739761e-09
5.9791637e-07
-3.3514323e-09
5.9845425e-07
-4.527298e-09
5.9923092e-07
-5.7015579e-09
6.0026601e-07
-6.8741807e-09
6.0158711e-07
-8.0452047e-09
6.0323205e-07
-9.2148627e-09
6.0525234e-07
-1.0383739e-08
6.0771768e-07
-1.1553969e-08
6.107237e-07
-1.2737051e-08
6.1443123e-07
-1.3973204e-08
6.1924467e-07
-1.5302901e-08
6.2611006e-07
-1.6478428e-08
6.355346e-07
-1.6410104e-08
6.4150196e-07
-1.3428291e-08
6.2076719e-07
-7.4487528e-09
5.3461524e-07
-1.7919642e-09
3.6066766e-07
1.2677204e-07
1.5270219e-09
1.0135912e-07
6.796922e-09
3.0875057e-07
1.3838016e-08
4.9533962e-07
1.8462363e-08
6.1134355e-07
1.9407792e-08
6.5032941e-07
1.8324307e-08
6.476513e-07
1.6843706e-08
6.3575186e-07
1.5495159e-08
6.2647779e-07
1.4258908e-08
6.2027379e-07
1.3061765e-08
6.1570943e-07
1.1876782e-08