/*--------------------------------*- C++ -*----------------------------------*\
  =========                 |
  \\      /  F ield         | OpenFOAM: The Open Source CFD Toolbox
   \\    /   O peration     | Website:  https://openfoam.org
    \\  /    A nd           | Version:  10
     \\/     M anipulation  |
\*---------------------------------------------------------------------------*/
FoamFile
{
    format      ascii;
    class       surfaceScalarField;
    location    "0.2";
    object      phi_0;
}
// * * * * * * * * * * * * * * * * * * * * * * * * * * * * * * * * * * * * * //

dimensions      [1 0 -1 0 0 0 0];

internalField   nonuniform List<scalar> 
7860
(
3.9895845e-08
5.2881219e-07
1.2192621e-08
5.9641102e-07
7.4278029e-09
5.7347256e-07
5.4993138e-09
5.7063619e-07
4.1148946e-09
5.7009209e-07
3.20105e-09
5.6962149e-07
2.5590681e-09
5.6934961e-07
2.0792557e-09
5.6918743e-07
1.709284e-09
5.6907758e-07
1.4166292e-09
5.6900025e-07
1.1794955e-09
5.6894472e-07
9.8311969e-10
5.6890396e-07
8.1715793e-10
5.6887354e-07
6.7411968e-10
5.6885061e-07
5.4843138e-10
5.6883326e-07
4.3583214e-10
5.6882016e-07
3.329679e-10
5.6881043e-07
2.3711109e-10
5.6880342e-07
1.4595836e-10
5.6879871e-07
5.7478346e-11
5.6879604e-07
-3.0212078e-11
5.6879525e-07
-1.1895545e-10
5.687963e-07
-2.1065851e-10
5.6879926e-07
-3.0739909e-10
5.688043e-07
-4.1155823e-10
5.6881172e-07
-5.2598325e-10
5.6882199e-07
-6.5420842e-10
5.6883579e-07
-8.0076796e-10
5.6885413e-07
-9.7165641e-10
5.6887846e-07
-1.1750356e-09
5.6891096e-07
-1.4224072e-09
5.6895496e-07
-1.7305836e-09
5.6901577e-07
-2.1245435e-09
5.6910156e-07
-2.6441695e-09
5.6922724e-07
-3.3718755e-09
5.6943534e-07
-4.4632187e-09
5.6979899e-07
-6.0086255e-09
5.7025308e-07
-9.5076769e-09
5.7220676e-07
-2.9575446e-08
5.8877552e-07
5.3913248e-07
5.9672164e-08
4.6914002e-07
3.6665569e-08
6.1941762e-07
2.2627777e-08
5.8751035e-07
1.6253183e-08
5.7701079e-07
1.2290133e-08
5.7405514e-07
9.6059114e-09
5.7230572e-07
7.6771729e-09
5.7127835e-07
6.2358812e-09
5.7062872e-07
5.1264386e-09
5.7018702e-07
4.2487715e-09
5.6987792e-07
3.5375443e-09
5.6965595e-07
2.948587e-09
5.6949291e-07
2.4508532e-09
5.6937127e-07
2.0218666e-09
5.692796e-07
1.6449111e-09
5.6921021e-07
1.3072083e-09
5.6915787e-07
9.9869968e-10
5.6911893e-07
7.1120537e-10
5.6909091e-07
4.3781838e-10
5.690721e-07
1.7244565e-10
5.6906141e-07
-9.0560509e-11
5.6905825e-07
-3.5672475e-10
5.6906247e-07
-6.3176066e-10
5.690743e-07
-9.2190205e-10
5.6909444e-07
-1.2342894e-09
5.6912411e-07
-1.5774613e-09
5.6916516e-07
-1.9620165e-09
5.6922035e-07
-2.4015526e-09
5.6929367e-07
-2.914054e-09
5.6939096e-07
-3.5240148e-09
5.6952092e-07
-4.2658557e-09
5.696968e-07
-5.1899438e-09
5.6993986e-07
-6.3729059e-09
5.7028453e-07
-7.9334623e-09
5.707878e-07
-1.0074838e-08
5.7157671e-07
-1.3203166e-08
5.7292732e-07
-1.8133219e-08
5.7518313e-07
-2.8175541e-08
5.8224908e-07
-4.5801718e-08
6.064017e-07
4.9333076e-07
6.0008279e-08
4.0913175e-07
5.0486487e-08
6.2893941e-07
3.3369943e-08
6.046269e-07
2.481697e-08
5.8556376e-07
1.9322575e-08
5.7954954e-07
1.5330891e-08
5.762974e-07
1.2360202e-08
5.7424904e-07
1.0101151e-08
5.7288777e-07
8.3403592e-09
5.7194781e-07
6.9347053e-09
5.7128357e-07
5.7881081e-09
5.7080255e-07
4.8338006e-09
5.7044722e-07
4.0240165e-09
5.7018106e-07
3.3237682e-09
5.6997984e-07
2.7067897e-09
5.6982719e-07
2.1528468e-09
5.6971181e-07
1.6459116e-09
5.6962587e-07
1.1728826e-09
5.6956394e-07
7.2265e-10
5.6952233e-07
2.8538325e-10
5.6949868e-07
-1.4804667e-10
5.6949168e-07
-5.8657318e-10
5.6950099e-07
-1.0394274e-09
5.6952715e-07
-1.5166583e-09
5.6957167e-07
-2.0297352e-09
5.6963718e-07
-2.5923078e-09
5.6972773e-07
-3.2212171e-09
5.6984926e-07
-3.9379073e-09
5.7001036e-07
-4.7704751e-09
5.7022353e-07
-5.7567336e-09
5.7050718e-07
-6.9488707e-09
5.7088894e-07
-8.4210877e-09
5.7141208e-07
-1.0282787e-08
5.7214623e-07
-1.2695843e-08
5.7320086e-07
-1.5893422e-08
5.7477429e-07
-2.023742e-08
5.7727132e-07
-2.6705934e-08
5.8165165e-07
-3.8945517e-08
5.9448866e-07
-4.8165417e-08
6.156216e-07
4.4516534e-07
5.4878322e-08
3.5425344e-07
5.7450959e-08
6.2636677e-07
4.046638e-08
6.2161147e-07
3.0777656e-08
5.9525248e-07
2.4641994e-08
5.856852e-07
1.9951324e-08
5.8098807e-07
1.6312095e-08
5.7788827e-07
1.3465846e-08
5.7573402e-07
1.1200459e-08
5.742132e-07
9.3642283e-09
5.731198e-07
7.8492659e-09
5.7231751e-07
6.5770813e-09
5.7171941e-07
5.4898256e-09
5.7126831e-07
4.5441836e-09
5.7092549e-07
3.7070579e-09
5.7066431e-07
2.9525881e-09
5.7046628e-07
2.260054e-09
5.703184e-07
1.6123569e-09
5.7021164e-07
9.9488856e-10
5.701398e-07
3.9465101e-10
5.7009891e-07
-2.0046644e-10
5.700868e-07
-8.0232747e-10
5.7010285e-07
-1.4231699e-09
5.7014799e-07
-2.0762597e-09
5.7022476e-07
-2.7766424e-09
5.7033757e-07
-3.5420699e-09
5.7049316e-07
-4.3942087e-09
5.7070139e-07
-5.3602721e-09
5.7097642e-07
-6.4753012e-09
5.7133856e-07
-7.7854251e-09
5.718173e-07
-9.352428e-09
5.7245594e-07
-1.1260135e-08
5.7331978e-07
-1.3624814e-08
5.745109e-07
-1.6607816e-08
5.7618386e-07
-2.0406923e-08
5.785734e-07
-2.5288814e-08
5.8215321e-07
-3.2513293e-08
5.8887613e-07
-4.5097029e-08
6.070724e-07
-4.6546826e-08
6.1707139e-07
3.9861852e-07
4.796488e-08
3.0628859e-07
6.0074827e-08
6.1425684e-07
4.5398434e-08
6.3628786e-07
3.4873768e-08
6.0577715e-07
2.8398338e-08
5.9216063e-07
2.3418204e-08
5.859682e-07
1.943304e-08
5.8187343e-07
1.6228105e-08
5.7893896e-07
1.3618879e-08
5.7682242e-07
1.1465952e-08
5.7527273e-07
9.6641953e-09
5.7411926e-07
8.1335657e-09
5.7325004e-07
6.8130364e-09
5.7258884e-07
5.6555916e-09
5.7208293e-07
4.6244523e-09
5.7169545e-07
3.6903281e-09
5.714004e-07
2.8293764e-09
5.7117936e-07
2.0216633e-09
5.7101935e-07
1.2499798e-09
5.7091148e-07
4.9889612e-10
5.7085e-07
-2.4603127e-10
5.7083173e-07
-9.9896923e-10
5.7085579e-07
-1.7744987e-09
5.7092352e-07
-2.5883369e-09
5.710386e-07
-3.4581536e-09
5.7120738e-07
-4.4045548e-09
5.7143956e-07
-5.4523227e-09
5.7174916e-07
-6.6320251e-09
5.7215612e-07
-7.9821424e-09
5.7268868e-07
-9.5519414e-09
5.733871e-07
-1.1405251e-08
5.7430925e-07
-1.3624886e-08
5.7553942e-07
-1.6319154e-08
5.7720517e-07
-1.9631665e-08
5.7949637e-07
-2.3732695e-08
5.8267443e-07
-2.8925134e-08
5.8734565e-07
-3.6785553e-08
5.9673655e-07
-4.8458432e-08
6.1874528e-07
-4.3191055e-08
6.1180402e-07
3.5542746e-07
4.0335031e-08
2.6595359e-07
5.8991897e-08
5.9559999e-07
4.8327744e-08
6.4695201e-07
3.758593e-08
6.1651896e-07
3.0926862e-08
5.988197e-07
2.5892113e-08
5.9100295e-07
2.1778325e-08
5.8598722e-07
1.8390642e-08
5.8232664e-07
1.5576402e-08
5.7963666e-07
1.3213552e-08
5.7763558e-07
1.120615e-08
5.7612667e-07
9.4788995e-09
5.7497729e-07
7.9726541e-09
5.7409508e-07
6.6405053e-09
5.7341508e-07
5.4448211e-09
5.7289114e-07
4.3549792e-09
5.7249024e-07
3.3455862e-09
5.7218875e-07
2.3950791e-09
5.7196986e-07
1.4846067e-09
5.7182195e-07
5.9710927e-10
5.717375e-07
-2.8347161e-10
5.7171231e-07
-1.1729107e-09
5.7174523e-07
-2.0874016e-09
5.7183801e-07
-3.044285e-09
5.7199548e-07
-4.0628546e-09
5.7222595e-07
-5.1653034e-09
5.7254201e-07
-6.3778751e-09
5.7296173e-07
-7.7322988e-09
5.7351054e-07
-9.2675868e-09
5.7422397e-07
-1.1032342e-08
5.7515186e-07
-1.3087792e-08
5.763647e-07
-1.5511206e-08
5.7796283e-07
-1.8399992e-08
5.8009396e-07
-2.1878332e-08
5.8297471e-07
-2.6102025e-08
5.8689812e-07
-3.1480505e-08
5.9272413e-07
-3.9646889e-08
6.0490293e-07
-4.9165294e-08
6.2826368e-07
-3.8574626e-08
6.0121335e-07
3.1685284e-07
3.2861552e-08
2.3309207e-07
5.5247279e-08
5.732143e-07
4.9229126e-08
6.5297016e-07
3.9058635e-08
6.2668944e-07
3.2427976e-08
6.0545035e-07
2.7516269e-08
5.9591466e-07
2.3436472e-08
5.9006702e-07
2.0001016e-08
5.8576209e-07
1.7093341e-08
5.8254434e-07
1.461122e-08
5.801177e-07
1.2470859e-08
5.7826703e-07
1.0605005e-08
5.7684314e-07
8.9594104e-09
5.7574068e-07
7.4898774e-09
5.7488461e-07
6.1600704e-09
5.7422094e-07
4.9397575e-09
5.7371056e-07
3.8033675e-09
5.7332514e-07
2.7288135e-09
5.7304441e-07
1.6965167e-09
5.7285425e-07
6.8857514e-10
5.7274544e-07
-3.1196799e-10
5.7271285e-07
-1.321799e-09
5.7275506e-07
-2.3579991e-09
5.7287421e-07
-3.4387282e-09
5.7307621e-07
-4.5839659e-09
5.7337119e-07
-5.8163593e-09
5.737744e-07
-7.1622193e-09
5.7430759e-07
-8.652722e-09
5.7500105e-07
-1.0325359e-08
5.758966e-07
-1.2225711e-08
5.7705221e-07
-1.4409841e-08
5.7854883e-07
-1.6947182e-08
5.8050017e-07
-1.9922586e-08
5.8306936e-07
-2.3436839e-08
5.8648896e-07
-2.7631366e-08
5.9109265e-07
-3.3024428e-08
5.9811719e-07
-4.1000713e-08
6.1287921e-07
-4.7678883e-08
6.3494185e-07
-3.3371649e-08
5.8690611e-07
2.8348119e-07
2.6187712e-08
2.0690441e-07
5.0129381e-08
5.4927269e-07
4.8489536e-08
6.5461001e-07
3.9487281e-08
6.3569169e-07
3.3073969e-08
6.1186366e-07
2.8408801e-08
6.0057983e-07
2.4490011e-08
5.9398581e-07
2.1115759e-08
5.8913635e-07
1.8205155e-08
5.8545494e-07
1.5678965e-08
5.8264389e-07
1.3468046e-08
5.8047794e-07
1.1515215e-08
5.7879597e-07
9.7729497e-09
5.7748294e-07
8.2014522e-09
5.7645611e-07
6.7671844e-09
5.7565521e-07
5.4415941e-09
5.7503615e-07
4.2000267e-09
5.745667e-07
3.0208024e-09
5.7422363e-07
1.8844183e-09
5.7399063e-07
7.7284558e-10
5.7385701e-07
-3.3110726e-10
5.738168e-07
-1.4443899e-09
5.7386834e-07
-2.584303e-09
5.7401413e-07
-3.7691015e-09
5.7426101e-07
-5.0186364e-09
5.7462073e-07
-6.3550702e-09
5.7511084e-07
-7.8036893e-09
5.7575621e-07
-9.3938505e-09
5.7659121e-07
-1.1160089e-08
5.7766284e-07
-1.3143388e-08
5.7903551e-07
-1.5392827e-08
5.8079827e-07
-1.7967697e-08
5.8307504e-07
-2.0937463e-08
5.8603913e-07
-2.4377329e-08
5.8992883e-07
-2.8422808e-08
5.9513813e-07
-3.3678899e-08
6.0337328e-07
-4.1050131e-08
6.2025045e-07
-4.4786541e-08
6.3867826e-07
-2.8199414e-08
5.7031899e-07
2.5528177e-07
2.056947e-08
1.86335e-07
4.4579231e-08
5.2526302e-07
4.6637845e-08
6.5255142e-07
3.9148343e-08
6.4318118e-07
3.3079375e-08
6.1793263e-07
2.8713507e-08
6.049457e-07
2.5034441e-08
5.9766487e-07
2.1800599e-08
5.9237019e-07
1.8956657e-08
5.8829888e-07
1.6446554e-08
5.8515399e-07
1.4216785e-08
5.8270771e-07
1.2221162e-08
5.8079159e-07
1.0419894e-08
5.7928421e-07
8.7786179e-09
5.7809739e-07
7.2675699e-09
5.7716626e-07
5.8607745e-09
5.7644294e-07
4.535305e-09
5.7589217e-07
3.2706172e-09
5.7548832e-07
2.047943e-09
5.7521331e-07
8.4973303e-10
5.7505522e-07
-3.4086298e-10
5.750074e-07
-1.5404926e-09
5.7506797e-07
-2.7660979e-09
5.7523973e-07
-4.0354167e-09
5.7553033e-07
-5.3675069e-09
5.7595282e-07
-6.7833128e-09
5.7652664e-07
-8.3062816e-09
5.7727918e-07
-9.9630489e-09
5.7824797e-07
-1.1784205e-08
5.79484e-07
-1.3805089e-08
5.8105639e-07
-1.6066701e-08
5.8305988e-07
-1.86169e-08
5.8562524e-07
-2.1508802e-08
5.8893103e-07
-2.4796443e-08
5.9321647e-07
-2.8625981e-08
5.9896766e-07
-3.3644429e-08
6.0839173e-07
-4.0128472e-08
6.2673449e-07
-4.1146331e-08
6.3969612e-07
-2.3411286e-08
5.5258394e-07
2.3187049e-07
1.6013877e-08
1.703212e-07
3.9139246e-08
5.0213776e-07
4.4112282e-08
6.4757842e-07
3.8283525e-08
6.4900992e-07
3.2648301e-08
6.2356784e-07
2.8586423e-08
6.0900757e-07
2.5178914e-08
6.0107238e-07
2.2131889e-08
5.9541721e-07
1.9401453e-08
5.9102932e-07
1.6951537e-08
5.8760391e-07
1.4743155e-08
5.8491609e-07
1.2740701e-08
5.8279405e-07
1.0912253e-08
5.8111266e-07
9.2292806e-09
5.7978036e-07
7.6662981e-09
5.7872924e-07
6.2004476e-09
5.7790879e-07
4.8110711e-09
5.7728155e-07
3.4792837e-09
5.7682011e-07
2.187552e-09
5.7650504e-07
9.192862e-10
5.7632348e-07
-3.4155666e-10
5.7626824e-07
-1.6108598e-09
5.7633727e-07
-2.9047384e-09
5.7653361e-07
-4.23993e-09
5.7686552e-07
-5.6341936e-09
5.7734708e-07
-7.1067251e-09
5.7799917e-07
-8.6785833e-09
5.7885104e-07
-1.0373129e-08
5.7994252e-07
-1.2216481e-08
5.8132735e-07
-1.4237935e-08
5.8307784e-07
-1.6470327e-08
5.8529227e-07
-1.895042e-08
5.8810533e-07
-2.1716368e-08
5.9169698e-07
-2.4808659e-08
5.9630876e-07
-2.8396058e-08
6.0255506e-07
-3.3105365e-08
6.1310103e-07
-3.8530661e-08
6.3215978e-07
-3.7200733e-08
6.3836619e-07
-1.9176638e-08
5.3455984e-07
2.1269385e-07
1.2421967e-08
1.5789932e-07
3.4108511e-08
4.8045136e-07
4.1242043e-08
6.4044495e-07
3.7070959e-08
6.53181e-07
3.1934849e-08
6.2870394e-07
2.8162246e-08
6.1278017e-07
2.5027041e-08
6.0420759e-07
2.2186856e-08
5.982574e-07
1.9596622e-08
5.9361955e-07
1.7235743e-08
5.8996479e-07
1.5077576e-08
5.8707426e-07
1.3095796e-08
5.8477583e-07
1.1265756e-08
5.829427e-07
9.5645878e-09
5.8148153e-07
7.9711614e-09
5.8032267e-07
6.4659515e-09
5.79414e-07
5.0308595e-09
5.7871664e-07
3.6489861e-09
5.7820198e-07
2.3043752e-09
5.7784965e-07
9.8174421e-10
5.7764611e-07
-3.3379359e-10
5.7758378e-07
-1.6570073e-09
5.7766049e-07
-3.0028349e-09
5.7787944e-07
-4.3866635e-09
5.7824935e-07
-5.8246078e-09
5.7878502e-07
-7.3337838e-09
5.7950835e-07
-8.9325682e-09
5.8044982e-07
-1.064083e-08
5.8165078e-07
-1.248014e-08
5.8316666e-07
-1.4473931e-08
5.8507164e-07
-1.6647532e-08
5.8746587e-07
-1.9027843e-08
5.9048565e-07
-2.1640378e-08
5.9430951e-07
-2.4519334e-08
5.9918771e-07
-2.7859063e-08
6.0589479e-07
-3.2204371e-08
6.1744634e-07
-3.6498824e-08
6.3645424e-07
-3.3250993e-08
6.3511836e-07
-1.5557125e-08
5.1686598e-07
1.9713672e-07
9.6551145e-09
1.482443e-07
2.9639324e-08
4.6046733e-07
3.8273764e-08
6.318106e-07
3.564879e-08
6.5580596e-07
3.1050166e-08
6.3330255e-07
2.7545313e-08
6.1628502e-07
2.4665364e-08
6.0708754e-07
2.2034247e-08
6.0088852e-07
1.959601e-08
5.9605779e-07
1.7340667e-08
5.9222013e-07
1.5251592e-08
5.8916334e-07
1.3310191e-08
5.8671723e-07
1.1498117e-08
5.8475477e-07
9.7976264e-09
5.8318202e-07
8.1917008e-09
5.8192859e-07
6.6641025e-09
5.809416e-07
5.1993689e-09
5.8018138e-07
3.7827383e-09
5.7961861e-07
2.400028e-09
5.7923236e-07
1.0374841e-09
5.7900866e-07
-3.183895e-10
5.7893965e-07
-1.6810099e-09
5.7902311e-07
-3.0639032e-09
5.7926233e-07
-4.4808841e-09
5.7966633e-07
-5.9462264e-09
5.8025036e-07
-7.4748147e-09
5.8103694e-07
-9.082268e-09
5.8205728e-07
-1.0785014e-08
5.8335353e-07
-1.2600322e-08
5.8498197e-07
-1.4546287e-08
5.870176e-07
-1.6641666e-08
5.8956125e-07
-1.8904952e-08
5.9274893e-07
-2.1351676e-08
5.9675624e-07
-2.4015951e-08
6.0185199e-07
-2.7113818e-08
6.0899266e-07
-3.1059581e-08
6.2139211e-07
-3.4237069e-08
6.3963172e-07
-2.9502224e-08
6.3038352e-07
-1.2548085e-08
4.9991184e-07
1.8458864e-07
7.5644944e-09
1.4067992e-07
2.5779335e-08
4.4225272e-07
3.5378286e-08
6.2221178e-07
3.4126847e-08
6.5705741e-07
3.007721e-08
6.3735216e-07
2.681558e-08
6.1954665e-07
2.4163536e-08
6.0973958e-07
2.1731814e-08
6.0332024e-07
1.9446871e-08
5.9834273e-07
1.730434e-08
5.9436266e-07
1.5295325e-08
5.9117235e-07
1.3407429e-08
5.8860512e-07
1.1627521e-08
5.8653468e-07
9.9422689e-09
5.8486727e-07
8.3383369e-09
5.8353253e-07
6.8025516e-09
5.8247739e-07
5.3220036e-09
5.8166192e-07
3.8840788e-09
5.8105654e-07
2.4764404e-09
5.8064e-07
1.0869724e-09
5.8039813e-07
-2.9630101e-10
5.8032293e-07
-1.685309e-09
5.8041212e-07
-3.0920366e-09
5.8066906e-07
-4.5286181e-09
5.8110291e-07
-6.0074164e-09
5.8172916e-07
-7.5410772e-09
5.825706e-07
-9.142548e-09
5.8365875e-07
-1.0825043e-08
5.8503602e-07
-1.2601954e-08
5.8675888e-07
-1.4486729e-08
5.8890238e-07
-1.6492571e-08
5.9156709e-07
-1.8631094e-08
5.9488745e-07
-2.091083e-08
5.9903597e-07
-2.3370909e-08
6.0431207e-07
-2.6240642e-08
6.1186239e-07
-2.9772027e-08
6.2492349e-07
-3.1907015e-08
6.4176671e-07
-2.6076745e-08
6.2455325e-07
-1.0102857e-08
4.8393795e-07
1.7448578e-07
6.0095304e-09
1.3467053e-07
2.2506753e-08
4.2575578e-07
3.2657448e-08
6.1206125e-07
3.2585541e-08
6.5712933e-07
2.9076032e-08
6.4086165e-07
2.6033177e-08
6.2258949e-07
2.3576857e-08
6.121959e-07
2.1327104e-08
6.0556999e-07
1.918937e-08
6.0048047e-07
1.7160178e-08
5.9639185e-07
1.5236133e-08
5.930964e-07
1.3409587e-08
5.9043167e-07
1.1671534e-08
5.8827273e-07
1.0012284e-08
5.8652652e-07
8.4216683e-09
5.8512314e-07
6.8892507e-09
5.840098e-07
5.4044835e-09
5.8314669e-07
3.9568086e-09
5.8250421e-07
2.5357086e-09
5.820611e-07
1.1307232e-09
5.8180311e-07
-2.6856236e-10
5.8172221e-07
-1.6725415e-09
5.8181609e-07
-3.0916187e-09
5.8208813e-07
-4.5362331e-09
5.8254752e-07
-6.0168662e-09
5.832098e-07
-7.5440225e-09
5.8409775e-07
-9.128174e-09
5.852429e-07
-1.0779655e-08
5.866875e-07
-1.2508501e-08
5.8848772e-07
-1.4324275e-08
5.9071815e-07
-1.6235684e-08
5.934785e-07
-1.8249052e-08
5.9690082e-07
-2.0368986e-08
6.0115591e-07
-2.2643177e-08
6.0658626e-07
-2.530308e-08
6.1452229e-07
-2.842227e-08
6.2804268e-07
-2.9622828e-08
6.4296727e-07
-2.3029793e-08
6.1796021e-07
-8.1529779e-09
4.6906113e-07
1.663328e-07
4.8675172e-09
1.2980317e-07
1.9763017e-08
4.1086062e-07
3.0159499e-08
6.01665e-07
3.1077188e-08
6.5621168e-07
2.8086091e-08
6.4385272e-07
2.5240357e-08
6.2543521e-07
2.2947419e-08
6.1448884e-07
2.0858135e-08
6.0765927e-07
1.8856753e-08
6.0248185e-07
1.6936711e-08
5.9831189e-07
1.5098063e-08
5.9493504e-07
1.3336599e-08
5.9219313e-07
1.1646423e-08
5.8996291e-07
1.0020721e-08
5.8815222e-07
8.4519518e-09
5.8669191e-07
6.9320345e-09
5.8552972e-07
5.4525301e-09
5.8462619e-07
4.0047739e-09
5.8395197e-07
2.5799717e-09
5.834859e-07
1.1692647e-09
5.8321382e-07
-2.3623066e-10
5.8312771e-07
-1.6453947e-09
5.8322526e-07
-3.0670832e-09
5.8350982e-07
-4.5100977e-09
5.8399054e-07
-5.9831411e-09
5.8468284e-07
-7.4947466e-09
5.8560936e-07
-9.0531753e-09
5.8680133e-07
-1.0666273e-08
5.883006e-07
-1.2341284e-08
5.9016273e-07
-1.4084664e-08
5.9246153e-07
-1.5901661e-08
5.9529549e-07
-1.7794829e-08
5.9879399e-07
-1.9767659e-08
6.0312874e-07
-2.1878129e-08
6.0869673e-07
-2.4347829e-08
6.1699199e-07
-2.7069023e-08
6.3076388e-07
-2.7456584e-08
6.4335483e-07
-2.0370711e-08
6.1087434e-07
-6.6227911e-09
4.5531321e-07
1.5971001e-07
4.0360938e-09
1.2576727e-07
1.7475639e-08
3.9742148e-07
2.7898383e-08
5.9124255e-07
2.9632387e-08
6.5447773e-07
2.7130549e-08
6.4635452e-07
2.446427e-08
6.2810147e-07
2.2305329e-08
6.1664777e-07
2.0353949e-08
6.0961066e-07
1.8475558e-08
6.0436024e-07
1.6657539e-08
6.0012991e-07
1.4901617e-08
5.9669097e-07
1.3205916e-08
5.9388883e-07
1.1566761e-08
5.9160207e-07
9.9795191e-09
5.8973946e-07
8.4387428e-09
5.8823269e-07
6.9383177e-09
5.8703014e-07
5.4716277e-09
5.8609288e-07
4.0316984e-09
5.853919e-07
2.6113143e-09
5.8490628e-07
1.2031129e-09
5.8462202e-07
-2.0034041e-10
5.8453116e-07
-1.606489e-09
5.8463141e-07
-3.0227247e-09
5.8492606e-07
-4.4563216e-09
5.8542414e-07
-5.9143559e-09
5.8614087e-07
-7.403605e-09
5.8709861e-07
-8.9304192e-09
5.8832814e-07
-1.0500568e-08
5.8987075e-07
-1.2119063e-08
5.9178123e-07
-1.3789988e-08
5.9413245e-07
-1.5516057e-08
5.9702156e-07
-1.7297425e-08
6.0057536e-07
-1.913877e-08
6.0497008e-07
-2.1108437e-08
6.1066639e-07
-2.340683e-08
6.1929039e-07
-2.5752005e-08
6.3310905e-07
-2.5448011e-08
6.4305084e-07
-1.8080949e-08
6.0350728e-07
-5.4379183e-09
4.4267018e-07
1.5427209e-07
3.4325839e-09
1.2233492e-07
1.5570798e-08
3.8528375e-07
2.5867464e-08
5.8094626e-07
2.8266525e-08
6.5207877e-07
2.6221235e-08
6.4839978e-07
2.3720761e-08
6.3060192e-07
2.1670856e-08
6.1869767e-07
1.9835726e-08
6.1144579e-07
1.8066169e-08
6.061298e-07
1.6341538e-08
6.0185454e-07
1.4663746e-08
5.9836876e-07
1.3032368e-08
5.9552021e-07
1.1445227e-08
5.9318921e-07
9.8992727e-09
5.9128541e-07
8.3906693e-09
5.8974129e-07
6.9148924e-09
5.8850592e-07
5.4668594e-09
5.8754092e-07
4.0410637e-09
5.8681769e-07
2.6316965e-09
5.8631565e-07
1.232754e-09
5.8602096e-07
-1.6186855e-10
5.8592578e-07
-1.5582901e-09
5.8602783e-07
-2.9625602e-09
5.8633033e-07
-4.3805693e-09
5.8684214e-07
-5.8179493e-09
5.8757825e-07
-7.279957e-09
5.8856062e-07
-8.7713411e-09
5.8981952e-07
-1.0296196e-08
5.913956e-07
-1.1857815e-08
5.9334285e-07
-1.3458549e-08
5.9573319e-07
-1.5099376e-08
5.9866239e-07
-1.677922e-08
6.022552e-07
-1.8505686e-08
6.0669655e-07
-2.0356283e-08
6.1251699e-07
-2.2500531e-08
6.2143463e-07
-2.4496035e-08
6.3510455e-07
-2.3613914e-08
6.4216871e-07
-1.6126508e-08
5.9601987e-07
-4.5299453e-09
4.3107362e-07
1.4974215e-07
2.9923562e-09
1.1934283e-07
1.3980017e-08
3.7429667e-07
2.4048862e-08
5.7087788e-07
2.6984725e-08
6.4914305e-07
2.5362495e-08
6.5002198e-07
2.301781e-08
6.3294657e-07
2.1056817e-08
6.2065866e-07
1.9318306e-08
6.131843e-07
1.7643732e-08
6.0780437e-07
1.6003351e-08
6.0349492e-07
1.439807e-08
5.9997404e-07
1.2828218e-08
5.9709006e-07
1.1292563e-08
5.9472486e-07
9.7891403e-09
5.9278884e-07
8.3153148e-09
5.9121511e-07
6.8678111e-09
5.8995342e-07
5.4428043e-09
5.8896592e-07
4.0360323e-09
5.8822446e-07
2.6429091e-09
5.8770877e-07
1.2586335e-09
5.8740524e-07
-1.2170899e-10
5.8730612e-07
-1.5030487e-09
5.8740917e-07
-2.8902362e-09
5.8771752e-07
-4.2879409e-09
5.8823985e-07
-5.7005442e-09
5.8899086e-07
-7.1320212e-09
5.8999209e-07
-8.5858153e-09
5.9127332e-07
-1.0064713e-08
5.928745e-07
-1.1570737e-08
5.9484887e-07
-1.3105044e-08
5.9726749e-07
-1.4667528e-08
6.0022487e-07
-1.6256852e-08
6.0384453e-07
-1.7884729e-08
6.0832442e-07
-1.9635712e-08
6.1426797e-07
-2.1640748e-08
6.2343967e-07
-2.331456e-08
6.3677837e-07
-2.1955435e-08
6.4080959e-07
-1.4466332e-08
5.8853077e-07
-3.8389725e-09
4.2044626e-07
1.4590317e-07
2.6665722e-09
1.1667658e-07
1.2643544e-08
3.6432038e-07
2.2419811e-08
5.6110218e-07
2.5785594e-08
6.4577746e-07
2.4553891e-08
6.5125367e-07
2.2358084e-08
6.3514234e-07
2.0470581e-08
6.2254615e-07
1.8811627e-08
6.1484325e-07
1.7219153e-08
6.0939685e-07
1.5654049e-08
6.0506003e-07
1.4115268e-08
6.0151282e-07
1.2603372e-08
5.9860196e-07
1.1117655e-08
5.9621058e-07
9.656853e-09
5.9424964e-07
8.2191878e-09
5.9265278e-07
6.802339e-09
5.9137027e-07
5.403489e-09
5.9036477e-07
4.0194075e-09
5.8960855e-07
2.6465485e-09
5.8908163e-07
1.2811518e-09
5.8877063e-07
-8.0656295e-11
5.8866793e-07
-1.4427638e-09
5.8877127e-07
-2.8089754e-09
5.8908373e-07
-4.1829077e-09
5.8961378e-07
-5.5678851e-09
5.9037583e-07
-6.9668287e-09
5.9139104e-07
-8.3821471e-09
5.9268864e-07
-9.815641e-09
5.94308e-07
-1.1268439e-08
5.9630167e-07
-1.2740935e-08
5.9873999e-07
-1.4232459e-08
6.017164e-07
-1.5742192e-08
6.0535426e-07
-1.7286616e-08
6.0986885e-07
-1.8954605e-08
6.1593596e-07
-2.083292e-08
6.2531799e-07
-2.2212667e-08
6.3815811e-07
-2.0463839e-08
6.3906076e-07
-1.3057897e-08
5.8112482e-07
-3.314594e-09
4.1070296e-07
1.4258858e-07
2.419491e-09
1.1425746e-07
1.1511455e-08
3.5522921e-07
2.0956734e-08
5.5165759e-07
2.4664113e-08
6.4207035e-07
2.3792207e-08
6.5212556e-07
2.1740824e-08
6.3719367e-07
1.9915635e-08
6.2437133e-07
1.8321927e-08
6.1643696e-07
1.6800007e-08
6.1091877e-07
1.5301771e-08
6.0655826e-07
1.3823523e-08
6.0299107e-07
1.2365659e-08
6.0005982e-07
1.0927703e-08
5.9764853e-07
9.5088014e-09
5.9566854e-07
8.1077576e-09
5.9405382e-07
6.7229596e-09
5.9275507e-07
5.3523784e-09
5.9173535e-07
3.9936213e-09
5.909673e-07
2.644009e-09
5.9043125e-07
1.3006642e-09
5.9011398e-07
-3.9396546e-11
5.9000799e-07
-1.3791659e-09
5.9011104e-07
-2.7215561e-09
5.9042612e-07
-4.0692955e-09
5.9096152e-07
-5.424835e-09
5.9173137e-07
-6.7902498e-09
5.9275645e-07
-8.1671526e-09
5.9406554e-07
-9.5566295e-09
5.9569747e-07
-1.095922e-08
5.9770426e-07
-1.237489e-08
6.0015566e-07
-1.3802807e-08
6.0314431e-07
-1.5243261e-08
6.0679471e-07
-1.6717706e-08
6.1134329e-07
-1.8316319e-08
6.1753458e-07
-2.0077994e-08
6.2707966e-07
-2.1189768e-08
6.3926989e-07
-1.9125049e-08
6.3699604e-07
-1.1861022e-08
5.738608e-07
-2.9158023e-09
4.0175774e-07
1.3967278e-07
2.2257318e-09
1.1203217e-07
1.0543282e-08
3.469126e-07
1.9637543e-08
5.4256417e-07
2.3613684e-08
6.3809455e-07
2.3072915e-08
6.5266634e-07
2.116328e-08
6.3910325e-07
1.9392827e-08
6.2614176e-07
1.7852734e-08
6.1797705e-07
1.6391303e-08
6.123802e-07
1.4952318e-08
6.0799725e-07
1.3528949e-08
6.0441444e-07
1.2121135e-08
6.0146764e-07
1.0728425e-08
5.9904124e-07
9.3501655e-09
5.970468e-07
7.9855312e-09
5.9541846e-07
6.6334174e-09
5.9410718e-07
5.2923971e-09
5.9307637e-07
3.9607439e-09
5.9229896e-07
2.636487e-09
5.917555e-07
1.3174831e-09
5.9143298e-07
1.4978438e-12
5.9132398e-07
-1.3137159e-09
5.9142626e-07
-2.6303166e-09
5.9174272e-07
-3.9503013e-09
5.922815e-07
-5.2754148e-09
5.9305648e-07
-6.6070709e-09
5.9408811e-07
-7.9462892e-09
5.9540476e-07
-9.2936637e-09
5.9704485e-07
-1.0649383e-08
5.9905998e-07
-1.201323e-08
6.0151951e-07
-1.3384513e-08
6.045156e-07
-1.4765052e-08
6.0817525e-07
-1.6181105e-08
6.1275934e-07
-1.7721068e-08
6.1907454e-07
-1.9374003e-08
6.2873259e-07
-2.0241782e-08
6.4013767e-07
-1.7922783e-08
6.3467704e-07
-1.0839813e-08
5.6677783e-07
-2.6101425e-09
3.9352807e-07
1.3706263e-07
2.0678082e-09
1.0996486e-07
9.7069064e-09
3.392746e-07
1.8442675e-08
5.3382941e-07
2.2627412e-08
6.3391027e-07
2.2391156e-08
6.5290262e-07
2.0621724e-08
6.4087262e-07
1.8901337e-08
6.2786212e-07
1.7405668e-08
6.1947272e-07
1.5996139e-08
6.1378973e-07
1.4609665e-08
6.0938372e-07
1.323599e-08
6.0578811e-07
1.1874377e-08
6.0282925e-07
1.0524268e-08
6.0039135e-07
9.1850641e-09
5.98386e-07
7.8561545e-09
5.9674737e-07
6.5367826e-09
5.9542656e-07
5.2259696e-09
5.9438719e-07
3.9225077e-09
5.9360242e-07
2.6249934e-09
5.9305302e-07
1.3318812e-09
5.9272609e-07
4.1551292e-11
5.9261431e-07
-1.2476183e-09
5.9271543e-07
-2.5371789e-09
5.9303228e-07
-3.8285341e-09
5.9357286e-07
-5.1228707e-09
5.9435082e-07
-6.4210988e-09
5.9538633e-07
-7.7238126e-09
5.9670747e-07
-9.0312902e-09
5.9835232e-07
-1.0343546e-08
6.0037223e-07
-1.166036e-08
6.0283632e-07
-1.2981391e-08
6.0583663e-07
-1.4310272e-08
6.0950413e-07
-1.5677608e-08
6.1412668e-07
-1.7167039e-08
6.2056397e-07
-1.8717285e-08
6.3028284e-07
-1.936275e-08
6.4078313e-07
-1.6840489e-08
6.3215478e-07
-9.9631893e-09
5.5990053e-07
-2.3725008e-09
3.8593738e-07
1.3469013e-07
1.9340481e-09
1.080314e-07
8.9771933e-09
3.3223273e-07
1.7355387e-08
5.2545241e-07
2.1698808e-08
6.2956741e-07
2.1742306e-08
6.5285919e-07
2.0112129e-08
6.4250273e-07
1.8439378e-08
6.2953484e-07
1.6981066e-08
6.2093102e-07
1.561623e-08
6.1515457e-07
1.4276403e-08
6.1072355e-07
1.294777e-08
6.0711674e-07
1.1628757e-08
6.0414826e-07
1.0318616e-08
6.0170149e-07
9.0167078e-09
5.9968791e-07
7.7225221e-09
5.9804155e-07
6.4355288e-09
5.9671355e-07
5.155072e-09
5.9566764e-07
3.8803388e-09
5.9487715e-07
2.610371e-09
5.9432298e-07
1.3441016e-09
5.9399236e-07
8.040722e-11
5.93878e-07
-1.1818346e-09
5.9397767e-07
-2.4436821e-09
5.9429412e-07
-3.7060704e-09
5.9483525e-07
-4.969757e-09
5.9561451e-07
-6.2352805e-09
5.9665186e-07
-7.5029448e-09
5.9797513e-07
-8.7728466e-09
5.9962223e-07
-1.0044954e-08
6.0164434e-07
-1.1319162e-08
6.0411053e-07
-1.2595635e-08
6.071131e-07
-1.3879968e-08
6.1078846e-07
-1.5206453e-08
6.1545316e-07
-1.665123e-08
6.2200874e-07
-1.8103343e-08
6.3173495e-07
-1.8545947e-08
6.4122573e-07
-1.5862539e-08
6.2947137e-07
-9.2050016e-09
5.5324299e-07
-2.1839029e-09
3.7891628e-07
1.3250623e-07
1.8169084e-09
1.0621516e-07
8.3346432e-09
3.2571648e-07
1.6361638e-08
5.1742683e-07
2.082212e-08
6.2510765e-07
2.1122263e-08
6.5255915e-07
1.9630563e-08
6.4399436e-07
1.8004673e-08
6.3116068e-07
1.6578445e-08
6.2235724e-07
1.5252323e-08
6.1648069e-07
1.3954097e-08
6.1202178e-07
1.2666398e-08
6.0840444e-07
1.1386691e-08
6.0542797e-07
1.0113986e-08
6.029742e-07
8.8475476e-09
6.0095435e-07
7.5868887e-09
5.9930221e-07
6.3316128e-09
5.9796882e-07
5.0812881e-09
5.9691797e-07
3.8353943e-09
5.9612304e-07
2.5933147e-09
5.9556506e-07
1.3543569e-09
5.9523132e-07
1.177896e-10
5.9511457e-07
-1.1171136e-09
5.9521257e-07
-2.3510248e-09
5.9552804e-07
-3.5845172e-09
5.9606874e-07
-4.8180266e-09
5.9684802e-07
-6.0518279e-09
5.9788566e-07
-7.2860407e-09
5.9920935e-07
-8.5206795e-09
6.0085686e-07
-9.7557536e-09
6.0287941e-07
-1.0991351e-08
6.0534613e-07
-1.2228238e-08
6.0834999e-07
-1.347403e-08
6.1203426e-07
-1.4765895e-08
6.1674503e-07
-1.6170041e-08
6.2341289e-07
-1.7527442e-08
6.3309235e-07
-1.7784613e-08
6.414829e-07
-1.497485e-08
6.2666161e-07
-8.5437117e-09
5.4681185e-07
-2.0303478e-09
3.7240291e-07
1.3047588e-07
1.7116672e-09
1.0450428e-07
7.7641673e-09
3.1966569e-07
1.5449777e-08
5.0974288e-07
1.9992421e-08
6.2056588e-07
2.0527552e-08
6.5202419e-07
1.9173412e-08
6.4534842e-07
1.7594765e-08
6.3273928e-07
1.6196827e-08
6.2375517e-07
1.4904508e-08
6.1777301e-07
1.364357e-08
6.1328271e-07
1.2393211e-08
6.096548e-07
1.114984e-08
6.0667134e-07
9.9121938e-09
6.0421184e-07
8.6794108e-09
6.0218713e-07
7.4509742e-09
6.0053065e-07
6.226554e-09
5.9919324e-07
5.0058656e-09
5.9813866e-07
3.7885983e-09
5.9734031e-07
2.574391e-09
5.9677927e-07
1.3628374e-09
5.9644287e-07
1.5350878e-10
5.963239e-07
-1.054015e-09
5.9642009e-07
-2.2601101e-09
5.9673413e-07
-3.4650782e-09
5.9727371e-07
-4.6691218e-09
5.9805206e-07
-5.8723387e-09
5.9908888e-07
-7.0747444e-09
6.0041175e-07
-8.2763425e-09
6.0205846e-07
-9.4772389e-09
6.0408031e-07
-1.0677759e-08
6.0654665e-07
-1.1879338e-08
6.0955156e-07
-1.3091579e-08
6.132465e-07
-1.4353633e-08
6.1800708e-07
-1.571969e-08
6.2477895e-07
-1.6984988e-08
6.3435765e-07
-1.7072398e-08
6.4157031e-07
-1.4165128e-08
6.2375434e-07
-7.9618531e-09
5.4060858e-07
-1.9017319e-09
3.6634279e-07
1.2857415e-07
1.615452e-09
1.0288972e-07
7.2540531e-09
3.1402906e-07
1.4610151e-08
5.0238873e-07
1.9205569e-08
6.1597154e-07
1.9955322e-08
6.5127467e-07
1.8737475e-08
6.4656619e-07
1.7207212e-08
6.3426947e-07
1.5834955e-08
6.2512741e-07
1.4572439e-08
6.1903553e-07
1.3345119e-08
6.1451003e-07
1.2128975e-08
6.1087095e-07
1.0919289e-08
6.0788102e-07
9.7145047e-09
6.0541663e-07
8.5136211e-09
6.0338802e-07
7.3160592e-09
6.0172821e-07
6.1215074e-09
6.003878e-07
4.9297695e-09
5.9933039e-07
3.7406783e-09
5.985294e-07
2.5540576e-09
5.9796589e-07
1.3697138e-09
5.9762722e-07
1.8744568e-10
5.9750617e-07
-9.9293692e-10
5.9760048e-07
-2.1715899e-09
5.9791278e-07
-3.3486175e-09
5.9845073e-07
-4.5240612e-09
5.992275e-07
-5.6979084e-09
6.0026272e-07
-6.8701304e-09
6.0158397e-07
-8.040768e-09
6.032291e-07
-9.2100566e-09
6.052496e-07
-1.0378583e-08
6.0771517e-07
-1.1548486e-08
6.1072147e-07
-1.273126e-08
6.1442927e-07
-1.3967107e-08
6.1924293e-07
-1.5296481e-08
6.2610832e-07
-1.6471749e-08
6.3553292e-07
-1.6403586e-08
6.4150215e-07
-1.3422863e-08
6.2077362e-07
-7.445419e-09
5.3463113e-07
-1.7909186e-09
3.6068829e-07
1.2678323e-07
1.5265518e-09
1.0136419e-07
6.7951322e-09
3.0876276e-07
1.3834727e-08
4.9535141e-07
1.8458093e-08
6.1134948e-07
1.9403276e-08
6.5032982e-07
1.831999e-08
6.4764941e-07
1.6839697e-08
6.3574969e-07
1.549145e-08
6.2647564e-07
1.4255498e-08
6.2027148e-07
1.3058674e-08
6.1570686e-07