/*--------------------------------*- C++ -*----------------------------------*\
  =========                 |
  \\      /  F ield         | OpenFOAM: The Open Source CFD Toolbox
   \\    /   O peration     | Website:  https://openfoam.org
    \\  /    A nd           | Version:  10
     \\/     M anipulation  |
\*---------------------------------------------------------------------------*/
FoamFile
{
    format      ascii;
    class       volScalarField;
    location    "0.2";
    object      TporMedia;
}
// * * * * * * * * * * * * * * * * * * * * * * * * * * * * * * * * * * * * * //

dimensions      [0 0 0 1 0 0 0];

internalField   nonuniform List<scalar> 
4000
(
-0.00021109866
8.2370005e-05
0.00054277214
0.00065056555
0.00063414434
0.00053705283
0.00070016407
0.00060778559
0.00060082605
0.00077872698
0.00059949066
0.00069066791
0.00067064074
0.00050396367
0.00057637168
0.00079085445
0.00057210293
0.00083922998
0.00053540146
0.00060399528
0.00049093203
0.00061768159
0.00074735148
0.00072487255
0.00047069871
0.0006454005
0.00051225935
0.00059450059
0.00050230057
0.00057448324
0.0005366277
0.00068856843
0.00049643768
0.00055117901
0.00050865352
0.00047416211
0.00055155228
0.00054756121
0.00041307007
0.0005886695
-2.232173e-05
4.5759262e-12
9.0480169e-11
7.7343988e-10
6.2534778e-10
4.0113414e-10
8.4607112e-10
3.6536634e-10
5.4387551e-10
8.7464305e-10
5.7706075e-10
5.2673814e-10
6.5351225e-10
3.1061783e-10
4.1550968e-10
5.6390415e-10
4.3052151e-10
5.2237042e-10
5.1424439e-10
6.4728507e-10
4.4545166e-10
6.5823035e-10
5.8002587e-10
6.6671072e-10
2.599414e-10
4.9054128e-10
3.1743847e-10
3.8482134e-10
4.6366438e-10
7.2390983e-10
3.1477362e-10
7.0344259e-10
5.6809761e-10
3.4387882e-10
4.2739403e-10
3.4938534e-10
4.5478112e-10
3.8032742e-10
3.0316336e-10
3.6737073e-10
-9.0416617e-06
-2.2032428e-12
4.9331241e-18
3.0061262e-16
9.8531165e-16
3.4540441e-16
1.0767654e-15
4.1414761e-16
2.2970286e-15
7.2000901e-16
3.9439567e-16
4.4583033e-16
4.9932361e-16
3.0563717e-16
3.3746492e-16
7.412402e-16
2.9139981e-16
3.8784846e-16
5.1612476e-16
4.6454886e-16
2.9316451e-16
5.7048055e-16
7.1964876e-16
5.0052402e-16
3.7680483e-16
3.5111405e-16
2.159702e-16
3.2296969e-16
4.2896777e-16
1.0716423e-15
3.7317515e-16
4.1473701e-16
4.754769e-16
3.6178264e-16
4.8820773e-16
1.962801e-16
3.3293901e-16
4.8932264e-16
2.3831107e-16
2.8503504e-16
-4.9047431e-06
1.4386896e-13
4.4069603e-21
3.694256e-23
6.3100813e-21
3.305603e-22
6.8850297e-22
3.5323968e-22
2.4436134e-21
5.0901413e-22
5.5914889e-22
7.4636253e-22
4.4732175e-22
2.2366129e-22
4.8309559e-22
8.0757844e-22
4.4802495e-22
3.8331956e-22
3.2031705e-22
1.399576e-21
1.8863032e-22
3.508182e-22
5.1692283e-22
3.3092308e-22
2.3013142e-22
3.966454e-22
2.401115e-22
4.60021e-22
4.0481329e-22
1.2146197e-21
4.9847707e-22
3.7017908e-22
4.8464737e-22
2.2695831e-22
4.6763725e-22
1.3566417e-22
3.7910806e-22
5.5364435e-22
2.4625724e-22
2.3565009e-22
-3.1350698e-06
2.8247579e-14
6.5583813e-22
3.3192615e-29
4.9420455e-27
6.5969384e-28
1.4662778e-27
2.7515751e-28
1.9779045e-27
1.2082868e-27
5.036886e-28
4.9997248e-28
4.7644431e-28
2.1316645e-28
5.4809827e-28
5.8007712e-28
2.7815575e-28
2.7463508e-28
3.9886095e-28
1.0103001e-27
2.4156047e-28
3.3575056e-28
5.1763246e-28
4.2385729e-28
3.1415134e-28
2.9011777e-28
1.7408715e-28
3.1929363e-28
2.473802e-28
1.0789566e-27
5.3299983e-28
3.2703187e-28
4.499559e-28
2.0336801e-28
3.0342699e-28
2.3264739e-28
3.4836602e-28
3.5660684e-28
2.1946075e-28
2.2633799e-28
-2.2156452e-06
9.6162259e-15
2.8322351e-22
6.7971886e-30
1.0440691e-33
-1.932322e-33
1.5889965e-33
2.7104665e-34
1.1681331e-33
3.8446993e-33
4.5387015e-34
4.5797536e-34
5.5961398e-34
2.1145096e-34
6.305377e-34
4.6455157e-34
4.829115e-34
4.0659646e-34
4.0524157e-34
7.8531123e-34
1.8066489e-34
1.8763282e-34
4.9273078e-34
4.749738e-34
2.6058327e-34
7.011898e-34
3.0676066e-34
3.2188079e-34
2.2827691e-34
1.0553162e-33
5.2258333e-34
4.9278183e-34
6.506671e-34
2.837238e-34
3.0845778e-34
2.1723689e-34
2.5967338e-34
2.3050388e-34
1.2991104e-34
2.3132181e-34
-1.6836832e-06
4.2733971e-15
-1.843365e-21
-2.7379165e-29
-2.00354e-36
2.4139504e-39
2.4701858e-38
2.7382532e-40
1.3924176e-39
2.3787917e-39
5.9424968e-40
3.4651139e-40
1.0630613e-39
2.1596568e-40
7.0837385e-40
4.2112812e-40
7.1076938e-40
5.0116147e-40
5.6447002e-40
1.000343e-39
1.3903897e-40
2.272566e-40
4.114826e-40
4.8441128e-40
2.6868106e-40
5.857228e-40
2.2866552e-40
2.5825019e-40
1.6518967e-40
9.5751444e-40
5.7034451e-40
5.129411e-40
4.315865e-40
3.1782222e-40
2.4552667e-40
1.6888313e-40
1.8474049e-40
1.7574171e-40
1.18965e-40
1.8235121e-40
-1.3497319e-06
2.2433829e-15
-2.8754703e-23
-3.0889637e-31
-1.0815784e-38
5.6611407e-44
-2.6019448e-43
3.2398315e-46
1.3968461e-45
5.7965131e-45
4.4622416e-46
2.5677287e-46
7.977526e-46
1.9393303e-46
5.790681e-46
3.5006095e-46
6.5378637e-46
4.07215e-46
4.5071492e-46
6.0086805e-46
1.5090713e-46
1.6576072e-46
3.2040646e-46
3.89673e-46
2.0689849e-46
4.7395152e-46
2.3309278e-46
2.2798306e-46
1.3220966e-46
8.1914636e-46
4.7437007e-46
5.2900796e-46
3.4828587e-46
3.5086507e-46
1.4962891e-46
1.0250974e-46
1.6541453e-46
1.7213195e-46
8.7984497e-47
1.7585741e-46
-1.1204731e-06
1.3140008e-15
-6.533528e-24
-5.7784012e-32
-1.0925808e-39
-4.4187777e-46
2.2628896e-49
4.2157051e-52
1.0110623e-51
3.5316933e-51
5.7209056e-52
1.905409e-52
6.7013796e-52
1.5381625e-52
4.6855082e-52
3.3708025e-52
5.1193186e-52
4.9122406e-52
3.3449224e-52
4.3088888e-52
1.4368793e-52
1.2347555e-52
5.8143247e-52
2.8510072e-52
1.5717476e-52
3.4462838e-52
2.7211556e-52
2.426217e-52
8.2514105e-53
9.2320536e-52
4.1454847e-52
3.7269426e-52
1.8160199e-52
2.4667225e-52
1.9141749e-52
7.7062384e-53
1.6531641e-52
1.0132488e-52
6.7749412e-53
1.307189e-52
-9.4883706e-07
8.2623901e-16
-2.1823235e-24
-1.8317002e-32
-2.187136e-40
-2.6886624e-47
1.669973e-53
1.8345667e-57
8.2155756e-58
2.7669107e-57
5.1035019e-58
1.3344747e-58
5.6417808e-58
1.9734028e-58
4.5384236e-58
4.7823798e-58
4.4757756e-58
3.3913546e-58
2.8968803e-58
3.1328737e-58
1.4264748e-58
7.7361558e-59
6.0497928e-58
2.2380573e-58
1.347638e-58
2.8813726e-58
2.1548849e-58
1.8379295e-58
8.8522117e-59
7.8084643e-58
2.6658962e-58
3.073167e-58
2.000772e-58
2.1058841e-58
1.1687543e-58
4.4422042e-59
1.190786e-58
8.1107879e-59
5.0678721e-59
1.0035377e-58
-8.0993809e-07
5.4312999e-16
-8.7940334e-25
-8.5527033e-33
-6.9400422e-41
-3.537462e-48
1.2710661e-54
9.9849149e-60
1.0568454e-63
2.7282851e-63
4.4190563e-64
1.6631041e-64
4.5028572e-64
1.5530328e-64
3.2904359e-64
3.0262277e-64
7.1592273e-64
2.2329258e-64
2.2118463e-64
3.5747793e-64
1.2530102e-64
9.240605e-65
3.9062041e-64
1.8446889e-64
1.7432883e-64
2.0659625e-64
1.9797939e-64
1.3097394e-64
1.1759693e-64
4.2807605e-64
2.8009944e-64
1.9656873e-64
1.5660999e-64
2.6070306e-64
9.4482312e-65
3.22899e-65
6.545071e-65
6.2281512e-65
2.8998885e-65
8.332495e-65
-6.9058572e-07
3.6625041e-16
-3.9636427e-25
-7.246222e-33
-4.3467473e-41
-1.1297142e-48
4.4317457e-55
-3.6197651e-61
-4.4654265e-67
2.5555508e-69
3.0931991e-70
1.8480137e-70
3.1328627e-70
9.9094675e-71
3.4520102e-70
2.2513176e-70
6.5603927e-70
1.3826022e-70
1.9052503e-70
2.3023188e-70
7.609341e-71
9.0524981e-71
2.6010305e-70
2.0185963e-70
1.7586526e-70
1.5053146e-70
1.6405667e-70
1.0766666e-70
7.0670118e-71
2.8387327e-70
2.391206e-70
1.556917e-70
1.1287351e-70
1.9971311e-70
6.3327431e-71
2.8225334e-71
4.8085753e-71
4.504063e-71
1.9578824e-71
9.1568489e-71
-5.8657398e-07
2.505508e-16
-1.9163637e-25
5.9273387e-33
2.7880317e-41
4.3448211e-49
-5.1985234e-55
1.881125e-61
2.7230049e-67
2.2078461e-73
2.1487299e-76
1.7374217e-76
2.3227206e-76
9.2542387e-77
4.8817334e-76
1.4054114e-76
8.0337363e-76
1.5543477e-76
1.3174599e-76
1.4813633e-76
8.994473e-77
1.1115519e-76
1.8899508e-76
1.7045582e-76
1.6722824e-76
1.4647607e-76
1.2499356e-76
9.210302e-77
5.2304954e-77
1.9351446e-76
1.9779619e-76
1.5194697e-76
7.3647731e-77
1.9464144e-76
4.4060916e-77
3.935822e-77
4.0944701e-77
3.0354368e-77
1.1816679e-77
8.6488158e-77
-4.9558595e-07
1.7290261e-16
-9.7312804e-26
5.7378885e-34
2.2430539e-42
2.2876906e-50
6.3034181e-57
-1.5341163e-63
-4.4430321e-69
-2.4812053e-75
-2.3780263e-81
1.3032259e-82
1.5750144e-82
6.3119433e-83
3.7758943e-82
8.8570484e-83
7.193264e-82
1.7220069e-82
8.0324992e-83
1.0420973e-82
1.1719775e-82
1.1441873e-82
1.0419909e-82
2.1236633e-82
1.2434571e-82
7.5795991e-83
1.020894e-82
8.6489302e-83
4.616938e-83
1.2796879e-82
2.6729631e-82
1.0545971e-82
4.7811418e-83
1.1477249e-82
2.9945011e-83
3.1671574e-83
2.266169e-83
1.880392e-83
1.2544317e-83
7.1722405e-83
-4.1797658e-07
1.2035622e-16
-5.1402013e-26
1.4012748e-34
4.7967756e-43
3.3633024e-51
2.7807654e-58
-5.230693e-65
2.2598953e-70
1.414974e-76
1.951292e-82
2.0063798e-88
2.1008099e-88
4.6732301e-89
2.7757206e-88
1.1733324e-88
8.2809043e-88
1.3080817e-88
7.4194543e-89
1.1980062e-88
6.2644034e-89
1.0644143e-88
8.0020556e-89
1.5016393e-88
8.5208455e-89
6.0921469e-89
8.8287533e-89
6.3037299e-89
3.1624362e-89
1.2288395e-88
2.3975921e-88
1.0806903e-88
3.1307502e-89
9.176323e-89
4.1977892e-89
3.0083678e-89
2.1405963e-89
1.2518509e-89
2.6591714e-89
4.4474015e-89
-3.5211983e-07
8.4387415e-17
-2.7984725e-26
4.392714e-35
1.3946631e-43
7.1560275e-52
2.8293588e-59
-4.4285842e-66
5.0765311e-72
3.8455467e-78
3.0020465e-84
2.0541449e-90
1.8900647e-94
3.1858956e-95
5.403263e-94
1.4237895e-94
1.0144054e-93
1.0011173e-94
9.1618629e-95
1.3987316e-94
4.910111e-95
8.280347e-95
5.8538569e-95
1.0366015e-94
4.5318149e-95
5.3239184e-95
1.1732031e-94
4.616357e-95
2.1948136e-95
1.4787832e-94
2.149682e-94
6.3156511e-95
2.2436776e-95
7.5884949e-95
3.1585241e-95
2.1890053e-95
2.0524733e-95
1.2764905e-95
2.3381755e-95
7.2407851e-95
-2.9754638e-07
5.974322e-17
-1.5672144e-26
1.580504e-35
4.9812646e-44
1.9382596e-52
4.3828076e-60
-6.7652739e-67
2.1654202e-73
1.809309e-79
1.3661268e-85
1.4231862e-91
3.6484197e-97
2.2775066e-101
5.4262307e-100
1.0432366e-100
7.637456e-100
1.9515901e-100
5.5961551e-101
1.2070526e-100
2.7636684e-101
7.8052744e-101
4.2599268e-101
8.4205097e-101
2.9923336e-101
3.5588601e-101
7.6559383e-101
6.2861017e-101
1.7692905e-101
1.014003e-100
2.0706074e-100
4.1831745e-101
1.7280968e-101
6.7588599e-101
1.9735784e-101
1.6869847e-101
1.2630479e-101
2.0220369e-101
1.7520633e-101
5.2286927e-101
-2.5209951e-07
4.2635274e-17
-8.9764436e-27
6.2105719e-36
2.1334431e-44
6.5241613e-53
9.0783379e-61
-1.5743522e-67
3.9843571e-74
6.9211129e-80
4.927e-86
4.894194e-92
6.8457553e-98
1.0358234e-103
4.6016955e-106
9.0781196e-107
9.2213406e-106
1.6096308e-106
7.874312e-107
1.2991335e-106
2.8570525e-107
6.5130633e-107
3.5067513e-107
6.2984288e-107
3.6304916e-107
2.4851049e-107
5.4431619e-107
5.6984131e-107
2.0229941e-107
7.021068e-107
1.7485509e-106
3.9017286e-107
1.3975737e-107
4.6494211e-107
1.1745471e-107
1.0765115e-107
1.2019835e-107
1.4988436e-107
1.6792517e-107
4.6487366e-107
-2.1447608e-07
3.0695127e-17
-5.2510446e-27
2.6051111e-36
1.1490704e-44
2.8539738e-53
2.6806653e-61
-1.0080633e-67
1.7105608e-74
3.7892833e-80
2.998407e-86
4.6052551e-92
7.1951806e-98
6.3227489e-104
7.8520952e-110
6.1225109e-113
8.8072499e-112
1.4221072e-112
5.3227702e-113
8.9983159e-113
1.6631768e-113
9.8572265e-113
2.593555e-113
5.5704567e-113
3.5601815e-113
2.308235e-113
4.4500886e-113
5.1295253e-113
1.5087243e-113
9.4326187e-113
1.7205696e-112
3.0811229e-113
1.451035e-113
2.9439859e-113
9.5467523e-114
7.1637321e-114
8.0467659e-114
1.3702003e-113
2.2744356e-113
6.456297e-113
-1.8323681e-07
2.2289943e-17
-3.130476e-27
1.1512875e-36
1.0174211e-44
2.1123327e-53
1.3896831e-61
4.0837128e-68
-4.952047e-75
3.5060677e-81
4.3574056e-87
4.1064204e-93
8.2744146e-99
1.7803091e-104
2.3669771e-110
1.9610194e-116
1.8557434e-117
1.1569247e-118
1.9585472e-118
5.9292548e-119
2.8550638e-119
1.416379e-118
3.226931e-119
4.258524e-119
3.2970155e-119
2.0220712e-119
7.6751618e-119
4.2023604e-119
1.4186941e-119
6.539953e-119
2.3529851e-118
2.0385217e-119
1.4892972e-119
3.4854723e-119
1.2231606e-119
4.532325e-120
5.7693635e-120
8.9841485e-120
1.6876903e-119
1.0346406e-118
-1.5713165e-07
1.6311347e-17
-1.897284e-27
5.3050465e-37
-8.448516e-45
-1.504113e-53
-7.2122571e-62
-5.5457107e-69
5.9045607e-76
-3.8159108e-82
-4.4032737e-88
-3.6701882e-94
-2.7342399e-100
-2.603523e-106
-2.1185277e-112
-2.3739787e-118
1.4699196e-123
1.323418e-124
1.8741329e-124
4.7925407e-125
5.6747759e-125
1.3417655e-124
7.3172217e-125
7.3292322e-125
2.6378931e-125
2.0487537e-125
7.0630618e-125
3.6426061e-125
1.8359142e-125
7.4684697e-125
1.7434921e-124
3.952919e-125
1.0929142e-125
3.6325418e-125
1.4624967e-125
5.9925297e-126
3.6020984e-126
8.6690613e-126
1.3251622e-125
1.4633852e-124
-1.3524981e-07
1.2024932e-17
-1.1672899e-27
2.5317883e-37
-8.0407632e-46
-1.2628189e-54
-4.5709862e-63
-1.6676995e-70
1.5770451e-77
-5.6275593e-84
-6.3435594e-90
-4.2046833e-96
-6.7723222e-102
-7.3489578e-108
-1.3884675e-113
-2.7186218e-119
-2.9405739e-125
7.1029951e-131
1.8507153e-130
3.1669366e-131
6.4050122e-131
1.3278372e-130
6.2408305e-131
3.6360612e-130
2.3818535e-131
1.4319503e-131
8.887307e-131
2.3065639e-131
1.6950106e-131
7.4320767e-131
1.6500087e-130
3.2225986e-131
1.124996e-131
2.2872728e-131
1.1960044e-131
4.8384005e-132
3.6949316e-132
5.320506e-132
1.1611322e-131
1.1700138e-130
-1.1677028e-07
8.9209656e-18
-7.2751441e-28
1.2443746e-37
-1.8870179e-46
-2.6846878e-55
-7.5412761e-64
-1.5726171e-71
1.3556893e-78
-3.0576807e-85
-5.8122054e-91
-5.3257878e-97
-6.6287277e-103
-5.0692503e-109
-4.6490638e-115
-3.5927063e-121
-2.1708317e-127
-3.35475e-133
2.564447e-136
2.5466849e-137
3.8005306e-137
2.5722385e-136
4.7110795e-137
3.3242088e-136
1.6232101e-137
1.3422193e-137
1.7394097e-136
1.4468398e-137
2.0257216e-137
8.2563078e-137
1.083413e-136
3.88961e-137
6.974611e-138
2.2515872e-137
1.1336022e-137
4.0429785e-138
3.0651724e-138
4.474615e-138
6.8753122e-138
1.2365558e-136
-1.0108791e-07
6.657186e-18
-4.5887463e-28
6.2763242e-38
-5.6280233e-47
-7.4878742e-56
-1.6715366e-64
-2.1940113e-72
1.9378185e-79
-3.4128558e-86
-8.8424324e-92
-7.8558445e-98
-1.1790514e-103
-8.2207689e-110
-1.0238204e-115
-9.653373e-122
-6.0428799e-128
-6.0840847e-134
-8.6398861e-140
2.6219142e-143
4.616566e-143
1.7249416e-142
6.9214029e-143
2.4041459e-142
3.0611339e-143
8.2417952e-144
3.3734973e-142
1.1640075e-143
2.2187105e-143
6.6360498e-143
9.8057224e-143
3.5844273e-143
5.5820814e-144
1.8459155e-143
8.2710584e-144
3.2116486e-144
3.0497616e-144
2.746132e-144
8.0818683e-144
1.4959264e-142
-8.7739952e-08
4.9951319e-18
-2.9255233e-28
3.2383578e-38
-1.902488e-47
-2.4550888e-56
-4.4518972e-65
-3.9477352e-73
4.2597235e-80
-5.3525564e-87
-7.17575e-92
-6.262282e-98
-5.0675689e-104
-4.2617039e-110
-4.7219156e-116
-5.3685808e-122
-4.1083458e-128
-3.8173258e-134
-7.6198576e-140
-5.8504066e-146
2.7479075e-149
1.1390556e-148
7.6773806e-149
1.472991e-148
4.5763782e-149
9.2925898e-150
2.4754626e-148
6.4633432e-150
1.7450097e-149
5.1166389e-149
8.1583777e-149
3.3155575e-149
4.1410869e-150
1.6538347e-149
1.0851574e-149
3.2618228e-150
2.7359557e-150
2.1946443e-150
5.6838288e-150
2.4402331e-148
-7.6306236e-08
3.765533e-18
-1.8828136e-28
1.7040854e-38
-6.9724322e-48
-9.1258088e-57
-1.3693603e-65
-8.6518675e-74
1.734488e-80
-1.729887e-87
1.7560805e-93
9.3392843e-100
8.4551792e-106
6.7134333e-112
1.0933674e-117
1.014147e-123
1.5167008e-129
2.1469083e-135
3.3770629e-141
3.3228013e-147
2.9833022e-153
1.8188876e-154
4.8104073e-155
1.8209841e-154
2.4771557e-155
7.1521606e-156
2.1919994e-154
5.09906e-156
1.3246882e-155
5.2099215e-155
6.3891558e-155
2.5929862e-155
3.1384469e-156
1.1009758e-155
7.7750567e-156
2.5071812e-156
3.0520406e-156
1.7071169e-156
1.1488331e-155
6.4220831e-154
-6.6483445e-08
2.850583e-18
-1.2221026e-28
9.1245099e-39
-2.7114598e-48
-3.843198e-57
-4.8637902e-66
-2.2611405e-74
-7.1520841e-81
5.9921542e-88
-3.7978868e-94
-3.4129336e-100
-4.9558683e-106
-3.4996349e-112
-3.7486709e-118
-3.240316e-124
-1.9586837e-130
-2.1973511e-136
-1.7511952e-142
-1.3546082e-148
-1.2980234e-154
6.6797178e-161
4.1077324e-161
2.2033229e-160
1.5211003e-161
4.4610959e-162
1.2885562e-160
3.0092793e-162
2.0573272e-161
3.8682523e-161
3.8914344e-161
1.7881753e-161
1.7997375e-162
7.6662034e-162
6.0576354e-162
1.9228842e-162
2.9159303e-162
1.5015798e-162
1.149875e-161
-1.4638623e-159
-5.8019241e-08
2.1663325e-18
-7.9940508e-29
4.9626344e-39
-1.1038051e-48
-1.8736491e-57
-2.0373844e-66
-7.1500594e-75
-5.0080391e-82
3.6130345e-89
-1.1011409e-95
-9.4059047e-102
-7.4814601e-108
-8.3194376e-114
-6.2732288e-120
-1.2236942e-125
-1.6870625e-131
-1.3971829e-137
-1.1366091e-143
-8.5672215e-150
-7.3505051e-156
-4.6731704e-162
3.3563438e-167
1.3499992e-166
1.2297364e-167
5.1837345e-168
1.1143998e-166
3.9248796e-168
1.8761294e-167
2.5773201e-167
2.5845973e-167
1.2895596e-167
1.9099307e-168
5.3759487e-168
3.5109358e-168
1.7326548e-168
2.8053965e-168
1.0723952e-168
1.796186e-167
2.2669019e-165
-5.0700347e-08
1.6520024e-18
-5.2660254e-29
2.7372121e-39
-4.6653346e-49
-1.1752399e-57
-1.1150481e-66
-3.0400626e-75
-1.0010347e-82
6.6621704e-90
-1.5691547e-96
-3.8046614e-102
-2.4607353e-108
-2.3638754e-114
-3.2530684e-120
-4.5478659e-126
-4.3909951e-132
-5.9675721e-138
-3.6003363e-144
-4.9241827e-150
-4.364219e-156
-5.9892465e-162
-5.3195658e-168
9.0011306e-173
1.0763376e-173
5.206132e-174
8.5694029e-173
2.2759552e-174
1.1445364e-173
1.9528835e-173
1.8316685e-173
1.6081944e-173
1.0545919e-174
3.3076658e-174
2.3268861e-174
1.4190147e-174
1.9112631e-174
7.2957909e-175
-5.2328529e-172
-1.3764239e-171
-4.4361555e-08
1.2637874e-18
-3.4911747e-29
1.5290322e-39
-2.0349726e-49
-1.8179995e-57
-1.530332e-66
-3.2984431e-75
-6.2732586e-83
3.7671484e-90
-7.2875811e-97
-2.5475013e-102
-2.8476542e-108
-2.5075467e-114
-2.1188257e-120
-1.3851448e-126
-1.3890962e-132
-1.0077578e-138
-1.1093618e-144
-9.3722098e-151
-9.3540751e-157
-1.00045e-162
-1.6446165e-168
-2.9907505e-174
5.0012294e-180
4.7726547e-180
4.374303e-179
1.2349861e-180
1.0152699e-179
2.4444096e-179
1.4147359e-179
1.2937087e-179
8.5730097e-181
2.797915e-180
1.3659793e-180
1.0175469e-180
1.3301524e-180
1.1020357e-180
2.900259e-177
7.6033222e-178
-3.8857328e-08
9.696099e-19
-2.3282521e-29
8.6406355e-40
-9.1196969e-50
3.1927806e-58
2.4281902e-67
4.2185465e-76
5.2047577e-84
-3.2769159e-91
4.1378811e-98
3.1167228e-103
2.7926383e-109
1.7398599e-115
1.4361191e-121
1.4004123e-127
1.6990478e-133
1.8034031e-139
1.3667146e-145
1.4178052e-151
1.001507e-157
1.2960446e-163
9.5016502e-170
1.0507005e-175
9.5634374e-182
3.7683314e-186
4.2437548e-185
1.607469e-186
1.086915e-185
2.1257421e-185
1.2954475e-185
8.2691189e-186
6.3706366e-187
2.6959136e-186
8.2579271e-187
8.4227422e-187
1.2196846e-186
1.1900545e-186
-3.1281674e-182
-3.8242859e-184
-3.4067322e-08
7.4576383e-19
-1.560896e-29
4.9342399e-40
-4.184075e-50
5.1088721e-59
3.571808e-68
5.0877414e-77
4.2936516e-85
-2.8769052e-92
2.8661507e-99
-2.0963555e-105
-1.9063212e-111
-2.1196551e-117
-2.6751579e-123
-2.1735335e-129
-2.1248649e-135
-2.5340135e-141
-2.0590258e-147
-2.0141272e-153
-1.621867e-159
-1.158637e-165
-1.0716535e-171
-6.7480155e-178
-8.126123e-184
-9.0886268e-190
3.5029019e-191
8.8605689e-193
1.0984653e-191
2.2785198e-191
8.8416848e-192
8.3792977e-192
4.8570047e-193
1.6264933e-192
5.6638919e-193
8.0593616e-193
1.1594863e-192
1.554957e-192
4.0809659e-188
2.5059417e-190
-2.9891885e-08
5.7490988e-19
-1.0515532e-29
2.8447098e-40
-1.9597874e-50
1.2955899e-59
8.4993912e-69
1.0062511e-77
6.099676e-86
-5.4950871e-93
4.6155727e-100
-2.847906e-106
-2.274869e-112
-2.5010175e-118
-2.1457211e-124
-3.2867777e-130
-5.4666089e-136
-8.0727014e-142
-1.2886484e-147
-1.106087e-153
-8.4894738e-160
-1.1662345e-165
-1.462054e-171
-1.4872312e-177
-1.7585368e-183
-2.1744842e-189
-1.4857969e-195
1.0120277e-198
9.043201e-198
1.8912445e-197
1.3597048e-197
4.5144389e-198
3.528538e-199
1.6375542e-198
6.4679176e-199
6.0036399e-199
1.1043114e-198
1.5952299e-198
-6.9016591e-194
-3.8638124e-196
-2.6248837e-08
4.4413835e-19
-7.1159371e-30
1.6546087e-40
-9.3518888e-51
3.9023934e-60
2.4567269e-69
2.4525531e-78
1.1021485e-86
-2.2729086e-93
1.5241868e-100
-6.6038213e-107
-1.0128007e-112
-8.8864114e-119
-1.2946493e-124
-1.9647988e-130
-2.8770102e-136
-6.6082006e-142
-6.1667594e-148
-6.3397627e-154
-5.9333566e-160
-5.4830136e-166
-3.8556742e-172
-2.9118634e-178
-2.8607069e-184
-3.0437767e-190
-4.1353417e-196
-4.1957273e-202
9.8358608e-204
1.5091827e-203
8.9951573e-204
4.2948569e-204
2.3280027e-205
9.258687e-205
9.1606171e-205
1.0487243e-204
1.0140453e-204
3.0640413e-204
1.5962097e-199
-4.218137e-202
-2.3061903e-08
3.4370355e-19
-4.8344346e-30
9.7007485e-41
-4.537256e-51
1.2957728e-60
8.0518844e-70
6.8664166e-79
2.3599673e-87
4.6763634e-94
-2.8561476e-101
8.176348e-108
1.4242852e-113
1.5200107e-119
1.9372909e-125
1.6002787e-131
2.2240242e-137
2.1656046e-143
1.7586979e-149
2.0730334e-155
2.943988e-161
6.5615873e-167
1.1637591e-172
1.4006242e-178
9.271597e-185
1.7845572e-190
2.0003743e-196
1.9481409e-202
2.0679377e-208
1.5822695e-209
7.9992369e-210
4.8758106e-210
1.3289269e-211
8.661023e-211
9.2420225e-211
1.009967e-210
9.9935558e-211
5.2614096e-210
5.4067054e-205
-2.250653e-208
-2.0271678e-08
2.663908e-19
-3.2961411e-30
5.7288079e-41
-2.2343017e-51
4.5940505e-61
2.9154554e-70
2.1512807e-79
5.7567448e-88
3.127372e-95
-1.6998737e-102
3.3893792e-109
2.1770779e-114
2.8821056e-120
1.9890546e-125
4.8533738e-131
5.8235065e-137
7.6293641e-143
7.8723e-149
5.1872896e-154
6.4909006e-160
1.255845e-165
1.3978995e-171
1.6911792e-177
1.8019278e-183
1.7299297e-189
1.4303948e-195
2.3377912e-201
2.1474636e-207
3.2283226e-213
7.0710469e-216
4.1647179e-216
8.0529316e-218
6.794123e-217
9.0356971e-217
1.980111e-216
3.9735474e-216
4.6198384e-215
1.5508691e-210
-6.5743255e-215
-1.782616e-08
2.0673951e-19
-2.2545346e-30
3.4057701e-41
-1.1152741e-51
1.7104878e-61
1.1634711e-70
7.5123283e-80
1.593403e-88
4.4130809e-96
-2.269509e-103
3.5185828e-110
-4.9568156e-116
-4.1910466e-122
-4.5256275e-128
-2.178403e-133
-4.997602e-139
-5.9834545e-145
-6.2279277e-151
-1.012454e-156
-1.5095157e-162
-1.8101452e-168
-2.0227216e-174
-2.1985768e-180
-2.0699479e-186
-1.9831624e-192
-1.9732616e-198
-1.9943225e-204
-1.9862106e-210
-1.5415817e-216
4.6583661e-222
6.9056722e-222
6.750938e-224
4.875137e-223
7.3844954e-223
1.933772e-222
3.8425477e-222
1.2358022e-220
4.6262069e-216
-1.5205717e-221
-1.5680511e-08
1.6062084e-19
-1.5464285e-30
2.0369081e-41
-5.6355618e-52
6.6167371e-62
5.1832663e-71
2.9653098e-80
5.0871194e-89
8.3369366e-97
-4.1156352e-104
5.1003188e-111
-7.495383e-117
-8.7485423e-123
-1.6676629e-128
-3.0639845e-134
-4.8783071e-140
-6.2820882e-146
-2.7653899e-151
-3.0982744e-157
-2.8433175e-163
-2.290919e-169
-1.9970588e-175
-2.2186496e-181
-2.1017244e-187
-1.8432904e-193
-1.9563248e-199
-1.2725195e-205
-1.8139193e-211
-1.8415996e-217
-2.8202769e-223
3.9706821e-228
8.8455638e-230
5.9553217e-229
8.4708429e-229
3.4492067e-228
4.1896755e-228
-3.432439e-225
4.2855573e-222
-2.2357457e-228
-1.3797164e-08
1.2490594e-19
-1.0633749e-30
1.2249025e-41
-2.8795533e-52
2.6420114e-62
2.7132096e-71
1.3919895e-80
1.9537907e-89
2.128367e-97
-1.0538792e-104
1.0894035e-111
-2.1902263e-117
-2.0889759e-123
-1.2000126e-127
-2.3788327e-133
-3.8959978e-138
-1.8295568e-143
-2.525743e-149
-3.2227989e-155
-1.522298e-160
-1.4007345e-166
-3.5630858e-172
-5.7243058e-178
-8.4151425e-184
-1.4914144e-189
-1.8788159e-195
-2.2572749e-201
-2.6117527e-207
-2.5935713e-213
-1.9705672e-219
-1.6798569e-225
-1.8189774e-231
5.0307767e-235
7.8306383e-235
3.2267006e-234
3.4281067e-234
-6.5212922e-230
2.5752171e-228
5.0863337e-236
-1.2143098e-08
9.7208207e-20
-7.3282652e-31
7.4027239e-42
-1.4864079e-52
1.083501e-62
2.0122675e-71
9.373085e-81
1.0928745e-89
8.3582759e-98
-4.7711762e-105
3.7966438e-112
-2.4891958e-118
-6.6194289e-124
-9.9160855e-130
-8.1518313e-135
-7.7869688e-141
-8.5933474e-146
-2.1470668e-151
-4.6867349e-157
-3.1298877e-163
-1.43535e-168
-5.6556191e-174
-8.3490281e-180
-2.0854409e-185
-2.0609464e-191
-3.9944213e-197
-6.4017392e-203
-1.0681935e-208
-1.1841848e-214
-9.433385e-221
-9.2024424e-227
-8.378429e-233
-7.6928217e-239
1.6644209e-240
5.2679226e-240
6.6663781e-240
-1.0228434e-235
1.1042355e-234
1.5493873e-241
-1.069077e-08
7.5707852e-20
-5.0605263e-31
4.4944764e-42
-7.7452021e-53
4.5481147e-63
-8.3382907e-71
-3.5739244e-80
-3.5021024e-89
-1.9576766e-97
1.3714688e-104
-9.9493721e-112
3.7756654e-118
1.1379934e-123
1.2609278e-129
1.6790297e-135
3.5533902e-141
2.7473833e-146
4.5113503e-151
1.4368373e-156
4.9929261e-162
1.8482583e-167
1.7660044e-173
2.0319232e-179
2.3072301e-185
-6.0643054e-190
-6.6669927e-196
-6.9291472e-202
-6.7274382e-208
-6.0379828e-214
-5.435413e-220
-8.17199e-226
-7.6588533e-232
-1.0019056e-237
-9.0594001e-244
7.278605e-245
4.0097189e-245
-3.287352e-241
3.0806562e-241
5.708352e-248
-9.4156488e-09
5.9003861e-20
-3.5009572e-31
2.7403403e-42
-4.0708405e-53
1.9482475e-63
-2.3343869e-72
-9.3310887e-82
-7.7730179e-91
-3.2789863e-99
4.1951062e-106
-2.7197689e-113
6.6847881e-120
1.8058963e-125
-8.1701654e-131
-2.4313337e-136
6.7999715e-141
3.9923497e-146
5.0037129e-152
1.7223052e-157
3.2632063e-163
5.0059765e-169
1.3218858e-174
1.7597887e-179
3.0102044e-184
6.3911487e-190
7.2133742e-196
3.2269906e-201
3.418565e-207
6.4478396e-213
5.9213147e-219
7.4382829e-225
5.3955273e-231
4.409939e-236
7.7977917e-242
1.4419224e-247
8.3011337e-251
-3.2733693e-247
8.8466479e-248
1.6633398e-254
-8.2969597e-09
4.6020046e-20
-2.426295e-31
1.6774959e-42
-2.1569948e-53
8.4989504e-64
-4.6398339e-73
-1.7564784e-82
-1.2567956e-91
-4.1085861e-100
-1.9850033e-106
1.1382293e-113
-2.2091102e-120
1.262968e-125
8.2903626e-131
2.6245844e-136
3.1990859e-142
9.234897e-148
3.0862232e-153
-7.0678439e-158
-1.1991645e-163
-2.9126219e-169
-3.6382869e-175
-4.2339322e-181
-1.3917345e-186
-2.0894036e-192
-3.5709574e-198
-5.3385499e-204
-9.2930526e-210
-1.5634176e-215
-2.4109112e-221
-2.1521668e-227
-1.8098052e-233
-1.8634604e-239
-4.9466315e-245
3.4282949e-250
1.7952196e-255
-3.3852632e-253
2.2209539e-254
4.2372567e-261
-7.3165198e-09
3.5926834e-20
-1.6845535e-31
1.0308456e-42
-1.151707e-53
3.7695044e-64
-1.2229141e-73
-4.458717e-83
-2.7691642e-92
-7.1463497e-101
-4.9714247e-108
2.6044923e-115
-4.5133603e-122
8.9126906e-128
-2.6752161e-133
-5.6369219e-139
-1.3730961e-144
3.2305601e-149
1.3354415e-154
-6.4383952e-160
-1.2432079e-165
4.412655e-171
2.1245333e-176
8.2433068e-182
1.2466898e-187
1.9229729e-193
1.6394738e-199
-1.6449151e-204
-2.27758e-210
-6.9364819e-216
-6.5292431e-222
-4.7588064e-227
-1.0015734e-232
-2.2608405e-238
-2.9325615e-244
-5.2363897e-249
-2.7873667e-254
-4.1488564e-259
5.0072113e-261
9.4813217e-268
-6.4581254e-09
2.8079215e-20
-1.1717857e-31
6.3588056e-43
-6.1948742e-54
1.697514e-64
-3.6699735e-74
-1.3151061e-83
-7.1603265e-93
-1.487252e-101
-4.7446444e-109
2.3547667e-116
-3.0514043e-123
2.4278279e-129
-5.609724e-135
-8.1760066e-140
-2.194333e-145
-3.7562906e-150
4.5672147e-155
-1.6834713e-160
-3.7613244e-166
-6.9164754e-172
-3.357236e-177
-3.1013926e-182
-6.3124438e-188
5.6819815e-193
3.906854e-198
1.3386289e-203
1.8965265e-209
1.7015151e-215
4.2831144e-221
7.5314243e-227
1.0704443e-232
1.3430709e-238
4.7250109e-244
9.1237541e-248
-2.3456419e-253
-2.1209852e-259
-3.8125248e-266
-3.7685309e-273
-5.7077895e-09
2.1978875e-20
-8.1685109e-32
3.9377609e-43
-3.3562152e-54
7.7544408e-65
-1.1928562e-74
-4.3049229e-84
-2.075128e-93
-3.5117665e-102
-6.7291935e-110
3.2308348e-117
-3.7643534e-124
2.3788971e-130
1.0849392e-135
-9.6131297e-141
-2.0304134e-146
-3.1711866e-151
8.4243666e-157
4.7250534e-162
2.8605239e-167
1.0646698e-172
-7.6872494e-178
-2.3039534e-183
3.5523931e-188
1.5989138e-193
4.0658259e-199
-1.023946e-204
-1.00256e-210
9.1615207e-216
1.881939e-221
3.3368829e-227
4.3015367e-233
-3.3626595e-238
-3.4224096e-243
1.3600596e-248
4.059779e-254
2.3934378e-260
3.7579299e-267
3.5088422e-274
-5.0531278e-09
1.7238291e-20
-5.7087781e-32
2.4486188e-43
-1.8315134e-54
3.5908647e-65
-4.1013141e-75
-1.5385104e-84
-6.6268013e-94
-9.2847135e-103
-1.1586969e-110
5.9203e-118
-5.4947676e-125
3.3581324e-131
7.1254812e-137
-3.3283948e-142
-2.3725952e-147
-1.118821e-152
1.4482173e-158
1.3086002e-163
4.7498326e-169
-3.4954744e-174
4.7160763e-179
9.4201904e-183
1.8200884e-188
-1.2762135e-193
-4.3051481e-199
-1.6061034e-204
-3.6617695e-210
9.3760495e-215
2.4745471e-220
6.3282709e-226
7.4087547e-232
3.3684006e-237
-9.471686e-242
1.6859169e-247
-4.3947624e-253
-5.0925061e-259
-7.4416321e-266
-6.5020003e-273
-4.4831092e-09
1.3555446e-20
-4.0020176e-32
1.5295437e-43
-1.0069171e-54
1.6850262e-65
-1.4733164e-75
-5.9944971e-85
-2.3295084e-94
-2.7312088e-103
-2.3938389e-111
1.2981432e-118
-1.1333149e-125
3.8312821e-132
1.0065479e-137
-5.3280788e-142
-4.0247166e-147
6.8626744e-153
1.2116512e-157
1.3469019e-162
1.0779263e-167
-4.1171716e-173
1.4097814e-178
-8.074768e-184
-3.8695429e-189
-1.369326e-194
-5.7749335e-200
6.2542432e-205
-1.0385059e-208
-2.2218043e-214
-2.6871183e-219
-8.3995902e-225
3.3834407e-228
6.8022243e-234
-1.1068713e-239
1.1809284e-243
-6.6285716e-248
-5.057218e-254
-6.9377636e-261
-6.0266101e-268
-3.987918e-09
1.0695113e-20
-2.8161422e-32
9.603321e-44
-5.5791279e-55
8.0116629e-66
-5.4873731e-76
-2.5823537e-85
-9.1437721e-95
-9.0624844e-104
-5.8536075e-112
3.9269885e-119
-2.8979253e-126
1.0909702e-132
-1.0524215e-138
-4.5515084e-144
1.4273958e-149
5.7402835e-155
-8.9512475e-161
-3.0558896e-166
5.7936106e-172
9.5820926e-178
-5.1411662e-183
1.6540673e-188
-1.7023737e-194
-4.3626951e-199
-2.9951188e-204
-1.244339e-209
-4.3807004e-214
-3.2574329e-219
8.3946653e-222
1.2987672e-227
-5.5050174e-233
-3.7901641e-238
1.2466715e-243
-3.7021239e-249
1.6901756e-253
4.6708004e-260
5.8931271e-267
4.2990954e-274
-3.5589196e-09
8.4743624e-21
-1.9909826e-32
6.0651509e-44
-3.1174637e-55
3.8604894e-66
-2.1097038e-76
-1.2842293e-85
-4.1852367e-95
-3.5504287e-104
-1.7394385e-112
1.7347423e-119
-1.1511039e-126
2.6351303e-133
-3.4766001e-139
4.9954033e-145
-1.3986508e-150
1.1134562e-155
-2.9324422e-161
6.4788667e-167
4.074677e-172
-8.5117639e-178
-7.5017443e-183
3.2120679e-188
-2.0263302e-193
4.1142466e-199
-9.6292374e-205
1.012888e-209
-3.9534485e-215
1.0379996e-220
7.4518295e-226
3.1097264e-231
-1.057651e-236
-6.386004e-242
6.199299e-248
-5.797077e-254
-5.4055311e-259