/*--------------------------------*- C++ -*----------------------------------*\
  =========                 |
  \\      /  F ield         | OpenFOAM: The Open Source CFD Toolbox
   \\    /   O peration     | Website:  https://openfoam.org
    \\  /    A nd           | Version:  10
     \\/     M anipulation  |
\*---------------------------------------------------------------------------*/
FoamFile
{
    format      ascii;
    class       volScalarField;
    location    "0.2";
    object      TporMedia_0;
}
// * * * * * * * * * * * * * * * * * * * * * * * * * * * * * * * * * * * * * //

dimensions      [0 0 0 1 0 0 0];

internalField   nonuniform List<scalar> 
4000
(
-0.00020812037
7.9659559e-05
0.00049174481
0.00073206519
0.00065213437
0.00072955973
0.00063558799
0.00041787216
0.00061824706
0.000737719
0.00079640442
0.0005274506
0.00065029874
0.00062094021
0.00055536415
0.00073499342
0.00074552888
0.00059737462
0.00070407582
0.00044743238
0.00059092752
0.00069203569
0.00059775173
0.00059484972
0.00057337239
0.00053679095
0.0006231048
0.00053784005
0.00068298336
0.00067768368
0.00066498128
0.0005303164
0.00077246254
0.00050002319
0.00047208922
0.00052179359
0.00051751954
0.0006775801
0.00094522947
0.00048410751
-2.1352139e-05
4.2124596e-12
7.4964118e-11
5.9986121e-10
7.5194757e-10
1.058821e-09
4.7097053e-10
3.2249024e-10
3.6955398e-10
7.3926971e-10
5.2827879e-10
4.5716458e-10
4.1977654e-10
4.4130597e-10
4.0819178e-10
5.0647427e-10
6.149814e-10
5.2073231e-10
7.5900599e-10
3.697191e-10
3.6854811e-10
5.052491e-10
1.0984252e-09
4.1767916e-10
2.9253178e-10
3.9784967e-10
3.8672176e-10
4.1393398e-10
6.4690103e-10
8.492552e-10
4.0673816e-10
3.9962239e-10
6.5846647e-10
3.1155561e-10
3.019304e-10
6.2119955e-10
3.0672029e-10
3.6990464e-10
1.0574135e-09
3.2930595e-10
-8.6021421e-06
-1.9294412e-12
3.9584082e-18
2.7290483e-16
1.5333267e-15
8.0716841e-16
1.0545532e-15
4.7347966e-16
2.7353088e-16
6.6251619e-16
6.2137516e-16
7.7186337e-16
4.4674451e-16
4.5562879e-16
3.2799855e-16
5.8029281e-16
4.2780751e-16
4.4414203e-16
5.9356098e-16
2.6040842e-16
3.5261526e-16
8.5430675e-16
9.4444847e-16
3.1079878e-16
2.1989526e-16
3.7846525e-16
5.350697e-16
3.8890706e-16
6.768796e-16
6.5863944e-16
3.4358844e-16
3.1689717e-16
6.9925163e-16
4.5729938e-16
3.1565121e-16
3.9037847e-16
3.3264426e-16
4.2791259e-16
5.7101655e-16
4.2112415e-16
-4.6941134e-06
1.3049232e-13
3.734047e-21
3.0937143e-23
3.7876892e-21
6.5480828e-22
8.9641993e-22
4.6947894e-22
4.1275402e-22
4.9143379e-22
4.856007e-22
9.2918759e-22
4.2094856e-22
3.624405e-22
4.5005162e-22
9.3242633e-22
4.9578254e-22
2.8334314e-22
3.9044158e-22
2.3366716e-22
2.4470665e-22
9.545882e-22
1.1012046e-21
2.5792143e-22
2.6280543e-22
2.8400095e-22
6.5846701e-22
3.8578115e-22
5.4081902e-22
7.6113671e-22
2.4383196e-22
3.5102127e-22
7.6277878e-22
3.5789207e-22
3.0273757e-22
2.5112258e-22
2.9098974e-22
2.479043e-22
4.3402035e-22
2.8939691e-22
-2.9849999e-06
2.5712384e-14
5.8080457e-22
2.6965193e-29
1.8059924e-26
1.0439597e-27
1.6681836e-27
3.756992e-28
2.4679338e-28
1.580575e-27
4.9351055e-28
6.9149449e-28
3.6931904e-28
2.7520595e-28
3.6371895e-28
9.0074235e-28
4.2584829e-28
2.8795814e-28
4.0827297e-28
2.7976786e-28
1.7699269e-28
8.6638992e-28
8.5681884e-28
2.2529102e-28
4.1486865e-28
3.0617584e-28
7.0987103e-28
7.5260283e-28
6.5684019e-28
6.5365549e-28
2.1207003e-28
3.3945362e-28
7.5644493e-28
2.9900309e-28
2.2734366e-28
5.7777733e-28
2.3635201e-28
1.8982974e-28
2.7073947e-28
2.382334e-28
-2.1142249e-06
8.75704e-15
2.4697656e-22
5.6081729e-30
3.815131e-33
-1.5456614e-32
1.1579083e-33
5.4880009e-34
2.6407522e-34
2.7970066e-33
4.0618078e-34
6.1188665e-34
3.264715e-34
2.4898507e-34
4.1319702e-34
9.3738709e-34
3.0622164e-34
2.5634218e-34
4.6254785e-34
1.7166391e-34
2.5446624e-34
8.5163415e-34
6.5550705e-34
1.6035329e-34
4.765563e-34
1.7042181e-34
5.2071179e-34
4.5237619e-34
5.2340257e-34
5.2935076e-34
1.7804783e-34
2.4869454e-34
7.3742352e-34
3.8937662e-34
2.313719e-34
3.6688661e-34
1.802178e-34
1.3037555e-34
3.3817575e-34
1.7190294e-34
-1.6069518e-06
3.8885196e-15
-1.6298787e-21
-2.3162813e-29
-1.7011306e-36
1.7937192e-38
2.0216506e-39
4.5746416e-40
2.5511336e-40
3.0231603e-39
4.8642902e-40
9.434587e-40
2.694097e-40
2.171628e-40
3.5118816e-40
1.282075e-39
1.9419405e-40
3.6373109e-40
6.8954827e-40
3.3434669e-40
1.3912577e-40
1.9696321e-39
4.8441689e-40
1.9030092e-40
3.3339991e-40
2.2270855e-40
6.2339188e-40
3.7628067e-40
2.8103152e-40
7.9224683e-40
1.4210894e-40
1.7030392e-40
7.5553726e-40
3.2839702e-40
1.3270121e-40
2.91363e-40
1.4601081e-40
1.2729252e-40
2.7050328e-40
1.4869738e-40
-1.2877687e-06
2.0431709e-15
-2.4850513e-23
-2.5353994e-31
-8.5037288e-39
-2.6179843e-44
2.6245247e-44
4.1369982e-46
3.0737805e-46
2.2310501e-45
3.188325e-46
5.8481108e-46
2.4011489e-46
1.9029892e-46
4.564961e-46
1.0458609e-45
1.8577238e-46
4.1886992e-46
5.3152699e-46
2.9806251e-46
1.15992e-46
2.9962983e-45
3.8788928e-46
1.1238517e-46
3.1923803e-46
2.6431182e-46
5.7611215e-46
3.399189e-46
5.5481937e-46
6.0066038e-46
1.3505402e-46
1.2665734e-46
7.3906708e-46
2.3425012e-46
1.6664983e-46
2.0371863e-46
1.2276953e-46
2.4714665e-46
2.6374348e-46
1.262812e-46
-1.070828e-06
1.1993494e-15
-5.698766e-24
-4.801393e-32
-8.7948597e-40
-3.0947426e-46
-2.3207488e-50
3.1728957e-52
3.6394135e-52
1.8649369e-51
3.4672391e-52
8.7491539e-52
3.3536201e-52
2.6316163e-52
3.9173553e-52
1.0063009e-51
1.4079505e-52
5.4459944e-52
3.1670432e-52
4.4162627e-52
9.0899203e-53
1.8714813e-51
3.1583623e-52
1.080326e-52
2.6995199e-52
2.0550616e-52
6.3067767e-52
2.6579971e-52
3.7043987e-52
4.0714889e-52
1.5048339e-52
1.1661276e-52
5.0598624e-52
3.3575254e-52
1.0676794e-52
1.6575933e-52
1.0668823e-52
1.8521029e-52
2.3383161e-52
7.1086984e-53
-9.06681e-07
7.5452052e-16
-1.9057763e-24
-1.5307162e-32
-1.7429176e-40
-2.0433548e-47
9.9683714e-54
7.6873278e-58
4.758309e-58
1.4850736e-57
3.4388401e-58
6.1404348e-58
2.9149644e-58
2.2592378e-58
4.4769782e-58
5.8341634e-58
1.0606518e-58
3.9391878e-58
2.3336206e-58
3.6851432e-58
7.5791038e-59
3.0570437e-57
3.2762293e-58
8.4472132e-59
2.0312789e-58
1.593469e-58
3.8048728e-58
1.587364e-58
2.9369481e-58
2.7689012e-58
9.7104132e-59
1.6584685e-58
3.8103015e-58
3.6052799e-58
1.308924e-58
1.0724445e-58
1.0562365e-58
2.3457531e-58
2.0046638e-58
5.0407017e-59
-7.7429207e-07
4.9628567e-16
-7.685096e-25
-7.167894e-33
-5.5823294e-41
-2.6870675e-48
7.6359155e-55
-2.9593867e-60
2.8516961e-64
2.8815275e-63
4.0810759e-64
7.2279865e-64
2.4800259e-64
1.948379e-64
4.0267356e-64
3.8177192e-64
1.2347313e-64
2.8312333e-64
2.4788941e-64
3.7550973e-64
4.3434811e-65
2.179731e-63
5.6892411e-64
8.3809683e-65
1.2336106e-64
1.0800923e-64
2.6696656e-64
1.0296042e-64
2.3475534e-64
3.225634e-64
6.9903256e-65
1.5943811e-64
3.2809832e-64
2.5513197e-64
9.0303464e-65
7.6098217e-65
1.0308013e-64
1.6797444e-64
1.4205328e-64
6.0186979e-65
-6.6046094e-07
3.346698e-16
-3.4588533e-25
-6.0265032e-33
-3.4417887e-41
-8.7380664e-49
2.5885685e-55
-2.1086188e-61
-2.5741264e-67
3.5414241e-69
3.3679887e-70
6.0832603e-70
2.8347532e-70
1.5944856e-70
3.6030944e-70
3.2140919e-70
1.187275e-70
2.6901966e-70
2.0045761e-70
3.0868024e-70
4.9714124e-71
2.448238e-69
6.3356899e-70
7.486696e-71
1.0774852e-70
6.9328262e-71
1.9088402e-70
8.9099518e-71
1.7049938e-70
2.8056702e-70
5.3660373e-71
1.2124877e-70
2.6747649e-70
2.2517609e-70
6.9409112e-71
6.441818e-71
5.5684814e-71
1.2347892e-70
1.3470414e-70
4.6404096e-71
-5.6080319e-07
2.2897707e-16
-1.6744256e-25
4.8979833e-33
2.2016774e-41
3.3157253e-49
-2.7768357e-55
9.5864842e-62
1.9346209e-67
1.4433819e-73
2.2676557e-76
6.3784511e-76
2.9693926e-76
1.5870113e-76
2.0471216e-76
2.7823195e-76
8.9719704e-77
1.6767118e-76
1.6019575e-76
4.4247289e-76
3.2511248e-77
1.959229e-75
4.1693307e-76
6.2111643e-77
6.5747385e-77
6.6682077e-77
1.2867036e-76
8.6752712e-77
1.0881901e-76
2.0440401e-76
4.4946968e-77
1.6638369e-76
2.2501338e-76
1.9472178e-76
3.610754e-77
4.4801362e-77
6.4747875e-77
1.6999416e-76
1.0147031e-76
2.9813579e-77
-4.7448885e-07
1.5832027e-16
-8.5239182e-26
4.7951016e-34
1.7912895e-42
1.7537715e-50
4.7411608e-57
-1.2596088e-63
-2.3859826e-69
-1.7953798e-75
-2.2638128e-81
6.8030012e-82
2.3152489e-82
3.157585e-82
1.7297271e-82
1.5735533e-82
7.037318e-83
2.4978313e-82
1.4210401e-82
3.8742081e-82
3.1705371e-83
2.7320429e-81
2.5943918e-82
4.4086715e-83
5.9256378e-83
5.498486e-83
1.0965655e-82
8.0584698e-83
9.2669577e-83
1.3406017e-82
3.7415125e-83
2.3883017e-82
1.3689737e-82
1.5045636e-82
2.2915372e-83
4.1168942e-83
4.4721465e-83
1.1809493e-82
7.6006184e-83
2.2950518e-83
-3.9968343e-07
1.1010851e-16
-4.4981469e-26
1.1700043e-34
3.8248615e-43
2.5760793e-51
2.0017314e-58
-3.3171936e-65
2.9065512e-71
2.4485999e-77
1.8786008e-83
6.7097569e-88
1.7469154e-88
3.1603051e-88
2.0507526e-88
1.2970683e-88
9.3300242e-89
1.8492704e-88
1.2804782e-88
2.8647211e-88
2.8469816e-89
2.1651267e-87
2.0142216e-88
3.0365218e-89
3.9700307e-89
4.4080391e-89
9.2848091e-89
4.2589324e-89
1.2132689e-88
1.2904517e-88
3.2577411e-89
2.2784842e-88
1.5429134e-88
1.1499991e-88
1.4964398e-89
2.8012422e-89
2.7859961e-89
1.1588055e-88
3.5342314e-89
1.9781984e-89
-3.3715759e-07
7.7324618e-17
-2.4537791e-26
3.6838524e-35
1.1174293e-43
5.4729705e-52
2.1116884e-59
-3.2069826e-66
3.6335385e-72
3.8936951e-78
2.2640822e-84
3.6146335e-90
1.3089968e-94
3.2840444e-94
1.2855315e-94
8.6401909e-95
1.0224221e-94
2.1349405e-94
2.2400479e-94
1.9966909e-94
2.9267086e-95
1.68448e-93
1.3900748e-94
4.300182e-95
2.3973172e-95
4.0674515e-95
9.7803562e-95
2.8364928e-95
8.4019224e-95
1.1311663e-94
3.0993173e-95
2.1084013e-94
1.3753062e-94
9.4683926e-95
1.0945283e-95
1.748953e-95
1.8502793e-95
9.7986681e-95
2.2114406e-95
1.4426986e-95
-2.8472818e-07
5.4706169e-17
-1.3730668e-26
1.3250444e-35
3.992087e-44
1.4859415e-52
3.1935261e-60
-4.3006474e-67
1.4042296e-73
2.5437466e-79
2.358889e-85
1.7251542e-91
1.5159833e-97
3.1370334e-100
1.1951311e-100
8.0817619e-101
4.7149575e-101
3.161167e-100
2.3946959e-100
1.6161078e-100
3.295558e-101
1.1694324e-99
8.7128208e-101
4.6548484e-101
2.1626432e-101
5.4495403e-101
1.2490639e-100
2.1622541e-101
8.2545855e-101
9.3038905e-101
3.1924282e-101
1.4627895e-100
1.1203689e-100
9.1074347e-101
1.8713277e-101
1.8271057e-101
1.5232048e-101
6.0373841e-101
1.3743904e-101
1.1898418e-101
-2.4140889e-07
3.9080589e-17
-7.8751511e-27
5.2146667e-36
1.7113338e-44
5.0171372e-53
6.7227133e-61
-1.2412955e-67
2.6145079e-74
1.1546907e-79
1.2151372e-85
1.7309342e-91
1.2887202e-97
2.6589883e-103
1.140729e-106
1.1798427e-106
1.3131239e-106
2.8525999e-106
2.3771388e-106
9.8699673e-107
4.1946762e-107
7.3391367e-106
5.3359668e-107
4.3939569e-107
1.7038259e-107
5.3835795e-107
1.6585933e-106
1.8124886e-107
6.5200056e-107
7.9729547e-107
2.2517954e-107
1.2262476e-106
6.5431419e-107
1.2575136e-106
1.3335342e-107
2.5797533e-107
8.0339441e-108
5.2020895e-107
1.0306513e-107
8.4636224e-108
-2.0538249e-07
2.814525e-17
-4.6101688e-27
2.1900137e-36
9.2569386e-45
2.2003314e-53
1.9567128e-61
-7.5619183e-68
1.2262846e-74
-2.1843538e-79
-1.5795048e-85
-2.3202524e-91
-2.2217404e-97
-2.3597733e-103
-1.6652016e-109
1.0069353e-112
1.8009612e-112
7.2164874e-112
2.151642e-112
7.1899181e-113
5.3332099e-113
6.9402091e-112
7.0763227e-113
1.3458305e-112
1.1360601e-113
1.0093068e-112
1.3236723e-112
1.7556996e-113
4.1546558e-113
9.12155e-113
1.4228969e-113
8.6923402e-113
4.6543841e-113
1.5055749e-112
1.0154624e-113
3.7452188e-113
4.9546714e-114
3.3303504e-113
8.0653386e-114
5.2820235e-114
-1.7548129e-07
2.0442955e-17
-2.7491868e-27
9.6830562e-37
8.2035003e-45
1.6306568e-53
1.0206586e-61
3.0564021e-68
-3.5475253e-75
4.7879286e-81
4.2964699e-87
5.3343227e-93
3.6577033e-99
2.3185429e-105
2.0815859e-111
2.5678118e-117
1.505364e-118
1.404847e-117
1.8427504e-118
1.3229295e-118
6.6692002e-119
6.6489719e-118
8.7612759e-119
1.4419949e-118
8.1274776e-120
7.355218e-119
1.0113101e-118
2.0583457e-119
3.259939e-119
9.2450567e-119
1.5962283e-119
1.1651885e-118
7.4988347e-119
1.5679347e-118
8.4093808e-120
4.2213028e-119
3.5251029e-120
2.7648681e-119
4.0420852e-120
4.7732757e-120
-1.5049144e-07
1.4963557e-17
-1.6668922e-27
4.4633184e-37
-6.8414637e-45
-1.1653084e-53
-5.3488454e-62
-3.8723533e-69
3.8697024e-76
-2.0134974e-82
-1.9295105e-88
-1.9837887e-94
-1.5771207e-100
-2.0103999e-106
-1.5528451e-112
-2.7299301e-118
-1.3484262e-124
9.4056572e-124
2.7787285e-124
1.2353882e-124
5.2792023e-125
5.4923049e-124
8.5528332e-125
2.0224948e-124
8.7691503e-126
5.2057059e-125
3.1760646e-124
1.9050715e-125
2.6429178e-125
8.8334637e-125
1.4125112e-125
1.4184773e-124
6.0031213e-125
2.1532732e-124
6.1720489e-126
2.8307188e-125
3.7696316e-126
1.52032e-125
2.7572881e-126
6.9795784e-126
-1.2955033e-07
1.1033698e-17
-1.0260128e-27
2.1314302e-37
-6.4873428e-46
-9.7520733e-55
-3.3817978e-63
-1.1900653e-70
9.9330084e-78
-3.1683653e-84
-2.2820277e-89
-1.6813272e-95
-1.505301e-101
-1.159192e-107
-1.7058041e-113
-1.9234772e-119
-1.7533981e-125
1.2452927e-129
2.3094356e-130
1.215876e-130
3.8652916e-131
6.3371069e-130
6.4808996e-131
1.8877261e-130
5.7938847e-132
7.5344616e-131
1.8127255e-130
1.9253606e-131
2.1446272e-131
5.6092731e-131
8.3638944e-132
1.0860923e-130
6.2803417e-131
1.3656576e-130
9.0102517e-132
2.1114902e-131
3.0736462e-132
9.9467524e-132
1.7208995e-132
3.6505352e-131
-1.1184958e-07
8.1875711e-18
-6.3983195e-28
1.0486529e-37
-1.5232605e-46
-2.0769989e-55
-5.5827006e-64
-1.1016053e-71
9.4235377e-79
-1.9083349e-85
-3.8004761e-91
-2.8718891e-97
-2.6719263e-103
-1.7986317e-109
-1.3918198e-115
-9.743667e-122
-1.0665287e-127
-1.4716191e-133
2.8824838e-136
9.5707285e-137
6.0645018e-137
4.7316195e-136
6.2328056e-137
1.3568256e-136
4.5232173e-138
4.8675045e-137
2.0220687e-136
2.4504382e-137
2.2176258e-137
3.8423131e-137
5.79086e-138
1.4318645e-136
5.4716092e-137
1.0894573e-136
6.0259064e-138
3.6188151e-137
3.1250321e-138
1.5654081e-137
1.0039244e-138
1.3667543e-136
-9.6842706e-08
6.1113745e-18
-4.0371283e-28
5.2924963e-38
-4.5487252e-47
-5.8018225e-56
-1.2408914e-64
-1.5671695e-72
1.3334559e-79
-2.2189616e-86
-3.0942472e-92
-2.6392652e-98
-3.5262927e-104
-3.2991005e-110
-5.0215996e-116
-4.9609562e-122
-5.0486747e-128
-3.5547642e-134
-4.2406952e-140
1.0107418e-142
1.0134009e-142
4.4668165e-142
4.0801375e-143
1.2133748e-142
5.0914752e-144
3.1989202e-143
1.2663731e-142
1.7816332e-143
2.3236337e-143
4.8586048e-143
4.7770071e-144
2.0173715e-142
4.6346759e-143
6.7719882e-143
4.2184343e-144
2.2262244e-143
3.9289165e-144
1.4093038e-143
8.2304651e-145
3.5697923e-142
-8.4045637e-08
4.5855957e-18
-2.574223e-28
2.7316966e-38
-1.5386475e-47
-1.9019305e-56
-3.3037543e-65
-2.8053781e-73
2.9998869e-80
-3.6116378e-87
5.0408773e-93
3.3822761e-99
2.8809151e-105
2.5468371e-111
2.3728151e-117
2.2271244e-123
2.5518702e-129
2.7074417e-135
1.8520106e-141
2.3649946e-147
7.3217332e-149
4.263606e-148
5.3770468e-149
9.0072339e-149
4.1063196e-150
2.3106835e-149
9.4787741e-149
3.3315705e-149
2.9041385e-149
4.0444578e-149
3.900361e-150
1.0923415e-148
4.1767732e-149
4.2707384e-149
5.4106383e-150
1.7327407e-149
2.8866251e-150
2.2301747e-149
1.4182392e-150
3.9671702e-148
-7.3096574e-08
3.4571431e-18
-1.6571688e-28
1.4379723e-38
-5.642133e-48
-7.0778292e-57
-1.018942e-65
-6.1798308e-74
1.2311554e-80
-1.1544298e-87
7.7774402e-94
5.7454138e-100
6.0833061e-106
6.4727166e-112
6.1843015e-118
6.1221081e-124
8.7708589e-130
8.6230934e-136
8.9992704e-142
8.5155526e-148
6.9619688e-154
6.5159169e-154
4.9715476e-155
6.5214173e-155
3.5070975e-156
1.2132751e-155
7.1399693e-155
2.060591e-155
4.4118006e-155
3.9195382e-155
2.9887898e-156
7.7888986e-155
2.9591572e-155
2.5962015e-155
5.2312132e-156
9.0335595e-156
1.6328975e-156
1.963188e-155
8.1389212e-157
-5.3836762e-154
-6.3676445e-08
2.6168108e-18
-1.075617e-28
7.7009725e-39
-2.1946236e-48
-2.9794759e-57
-3.6151443e-66
-1.6093783e-74
-4.6395611e-81
3.779947e-88
-1.9369523e-94
-1.522532e-100
-1.1481041e-106
-8.4084668e-113
-8.3294929e-119
-6.3705204e-125
-7.2089224e-131
-4.8566964e-137
-4.0777742e-143
-3.4732904e-149
-2.2488575e-155
4.0573716e-160
4.5045731e-161
6.2277505e-161
2.2721931e-162
1.0019317e-161
5.6006437e-161
1.6420403e-161
2.914405e-161
2.7148601e-161
1.8749742e-162
7.7580165e-161
1.7845625e-161
2.0734372e-161
3.6390005e-162
1.1475778e-161
1.1433135e-162
1.5621194e-161
1.5369955e-162
2.5940647e-159
-5.5563208e-08
1.9885606e-18
-7.0363772e-29
4.1893018e-39
-8.9382431e-49
-1.4552135e-57
-1.5157187e-66
-5.1103517e-75
-3.5068197e-82
2.3704715e-89
-7.0283403e-96
-1.216286e-101
-1.2392075e-107
-7.3658945e-114
-2.1477951e-119
-2.349612e-125
-1.9153778e-131
-1.4295736e-137
-1.5856655e-143
-1.8017342e-149
-1.4209138e-155
-9.7818873e-162
3.4199381e-167
3.3619902e-167
1.8487635e-168
6.9290592e-168
3.7012537e-167
1.1357928e-167
4.3777688e-167
1.7664382e-167
1.452111e-168
5.6802165e-167
1.1646294e-167
1.7176959e-167
2.6405394e-168
7.6287059e-168
7.3285013e-169
1.6167537e-167
2.1547791e-168
-2.0586269e-165
-4.8551117e-08
1.5163239e-18
-4.6351568e-29
2.310941e-39
-3.7788311e-49
-9.1275901e-58
-8.3064738e-67
-2.1716595e-75
-6.8894085e-83
4.274617e-90
-9.7817889e-97
-1.3602384e-102
-1.7934391e-108
-2.2725689e-114
-1.886539e-120
-3.886244e-126
-3.7133248e-132
-3.3088939e-138
-4.305673e-144
-4.9751797e-150
-4.1510039e-156
-3.0382746e-162
-1.8201881e-168
6.4843612e-173
1.2648991e-174
4.6289901e-174
2.650442e-173
6.4705289e-174
5.1742802e-173
1.6031634e-173
9.6767237e-175
4.7749646e-173
1.1727695e-173
1.1057991e-173
2.7022061e-174
5.6768189e-174
7.1917097e-175
1.4007494e-173
4.0744088e-174
1.1597859e-171
-4.2471614e-08
1.1597303e-18
-3.0724901e-29
1.2908967e-39
-1.6484452e-49
-1.400183e-57
-1.1306578e-66
-2.3405071e-75
-4.2952796e-83
2.5267165e-90
-3.9005042e-97
-9.1924142e-102
-6.7246732e-108
-5.1613255e-114
-3.8857541e-120
-5.4497903e-126
-4.2225881e-132
-3.2604643e-138
-5.6854864e-144
-4.4183683e-150
-3.5308525e-156
-3.2541021e-162
-2.8230113e-168
-2.2985353e-174
-7.4631371e-181
3.8434772e-180
1.6500325e-179
5.0847403e-180
4.199168e-179
1.5473172e-179
5.7641592e-181
3.6409585e-179
7.4910103e-180
7.5945686e-180
1.9116548e-180
6.0375328e-180
6.4754271e-181
2.6401518e-179
1.4107427e-179
-6.3313712e-178
-3.7193966e-08
8.8952525e-19
-2.0486034e-29
7.2941845e-40
-7.3871776e-50
2.4890013e-58
1.8161069e-67
3.0272542e-76
3.593465e-84
-2.0668889e-91
2.4639785e-98
-6.6381304e-104
-7.8496274e-110
-6.4748427e-116
-5.4601264e-122
-5.9732296e-128
-5.4600647e-134
-5.7980629e-140
-3.6525731e-146
-4.4197099e-152
-6.4634344e-158
-5.218746e-164
-1.1280298e-169
-1.4207699e-175
-9.9874869e-182
2.6632226e-186
1.3501615e-185
2.7387564e-186
3.7267073e-185
1.0852157e-185
5.8740409e-187
2.8243316e-185
7.7141773e-186
4.9891847e-186
1.9013117e-186
5.2663273e-186
4.5711554e-187
2.2852368e-185
-5.5383455e-185
4.5056323e-184
-3.2601914e-08
6.839976e-19
-1.3731303e-29
4.1648348e-40
-3.3892696e-50
3.9761388e-59
2.6673694e-68
3.6437935e-77
2.9507292e-85
-1.9821323e-92
1.8839583e-99
-2.13254e-105
-3.0096643e-111
-2.2012335e-117
-1.9164721e-123
-2.4748672e-129
-1.9567973e-135
-2.1901127e-141
-2.2074379e-147
-1.8974633e-153
-2.1558358e-159
-3.2534164e-165
-1.9691345e-171
-1.5388625e-177
-1.2832817e-183
-1.1819498e-189
1.800919e-191
2.5183081e-192
3.0545845e-191
9.1649763e-192
3.5732329e-193
2.8140208e-191
7.4706691e-192
3.6923012e-192
1.9611301e-192
3.461046e-192
3.1621614e-193
2.1013468e-191
1.2208459e-190
-2.4728208e-190
-2.8599102e-08
5.2713189e-19
-9.2481541e-30
2.4007917e-40
-1.587602e-50
1.0081314e-59
6.3467252e-69
7.2115206e-78
4.1878642e-86
-3.5121692e-93
2.7815042e-100
-1.5130368e-106
-3.3083692e-112
-3.6352679e-118
-4.5566429e-124
-3.5371953e-130
-3.8629453e-136
-3.350587e-142
-6.9027714e-148
-7.6401874e-154
-6.9696161e-160
-1.0430939e-165
-2.3621482e-171
-2.0395758e-177
-2.105704e-183
-1.7479809e-189
-1.6600616e-195
1.6523773e-198
2.4563752e-197
6.1028147e-198
3.2916615e-199
2.0189491e-197
5.6809215e-198
3.0454022e-198
2.4805691e-198
2.779702e-198
3.1178214e-199
2.993635e-197
3.619682e-196
2.7194414e-196
-2.5104103e-08
4.0703464e-19
-6.2555916e-30
1.3959273e-40
-7.5741013e-51
3.0360741e-60
1.8348796e-69
1.758039e-78
7.6020568e-87
-1.5021038e-93
1.0150773e-100
-3.5642953e-107
-1.9640717e-112
-3.8865574e-118
-3.2288578e-124
-1.4266398e-129
-1.2986427e-135
-1.9322336e-141
-2.2056159e-147
-2.9874261e-153
-1.7054338e-159
-1.4293493e-165
-3.0911511e-171
-5.028461e-177
-3.3760211e-183
-4.6097512e-189
-3.9705537e-195
-4.3974345e-201
2.5123567e-203
6.1110892e-204
2.7804447e-205
2.1815814e-203
4.3465259e-204
2.7672481e-204
1.9850507e-204
4.5076001e-204
3.1803861e-205
1.8826413e-202
-4.5998008e-202
7.4423603e-202
-2.20494e-08
3.1484904e-19
-4.2480625e-30
8.1814223e-41
-3.6740583e-51
1.0080715e-60
6.0112635e-70
4.9215069e-79
1.6220495e-87
3.3822283e-94
-1.9988066e-101
5.367876e-108
9.2300073e-114
1.49536e-119
1.1411213e-125
3.2657665e-131
4.0908815e-137
4.606088e-143
3.9761714e-149
6.2677928e-155
7.5027749e-161
1.055797e-166
9.9474666e-173
9.3433085e-179
1.0062199e-184
1.2532205e-190
1.1301719e-196
2.5460934e-202
2.9976476e-208
4.2192565e-210
2.4815563e-211
2.3071729e-209
3.2006332e-210
2.068896e-210
1.643406e-210
3.512829e-210
4.9601024e-211
3.0055235e-208
6.9594177e-208
3.0541555e-208
-1.9374132e-08
2.438901e-19
-2.8947613e-30
4.8293517e-41
-1.8086534e-51
3.5733831e-61
2.1768491e-70
1.5423509e-79
3.9630471e-88
2.0387133e-95
-1.0399398e-102
2.2202224e-109
1.176946e-114
1.1668214e-120
2.0413595e-126
2.8831377e-132
5.4541872e-138
6.038576e-144
4.9465388e-150
6.2275532e-156
1.5561241e-161
2.3100331e-167
1.789001e-173
3.4045302e-179
2.738008e-185
1.8151738e-191
1.7166316e-197
1.2492439e-203
1.094286e-209
4.6744806e-215
2.118154e-217
2.9411293e-215
3.2100845e-216
1.3639627e-216
1.8076462e-216
6.2446799e-216
1.4193615e-216
1.0547546e-213
1.6333824e-213
8.5381504e-215
-1.7030091e-08
1.8915847e-19
-1.9787118e-30
2.8694084e-41
-9.0242125e-52
1.3298137e-61
8.6804326e-71
5.3835471e-80
1.0973147e-88
2.9072038e-96
-1.4839721e-103
2.1017306e-110
-2.8880635e-116
-4.5176377e-122
-5.8664135e-128
7.3208645e-133
2.7765044e-138
3.3253355e-144
3.6818674e-150
1.6768798e-155
2.7546854e-161
3.7896786e-167
3.5900013e-173
1.1229946e-178
8.965122e-185
9.870085e-191
1.3952071e-196
1.7642303e-202
1.3631482e-208
2.674021e-214
1.9380289e-220
2.8829917e-221
2.7647768e-222
1.0852158e-222
1.26273e-222
4.055485e-222
2.9470115e-222
-2.9202568e-218
1.1373037e-219
1.776118e-221
-1.497371e-08
1.4686385e-19
-1.3562722e-30
1.715022e-41
-4.5576317e-52
5.1424874e-62
3.8643539e-71
2.1242997e-80
3.5005058e-89
5.5871705e-97
-2.6946259e-104
3.1166214e-111
-2.1730023e-116
-1.527038e-122
-3.1587076e-128
-3.4649219e-134
-4.5921244e-140
-4.9780922e-146
-9.2175269e-152
-2.5267624e-157
-3.8664206e-163
-6.3289578e-169
-1.8244784e-174
-1.3444855e-180
-1.5502425e-186
-1.7433288e-192
-2.4832828e-198
-2.351908e-204
-2.3547674e-210
-2.0486357e-216
-2.1139479e-222
1.840206e-227
2.6228578e-228
1.1628008e-228
1.4550373e-228
7.5821004e-228
5.9897296e-228
-2.5754319e-223
5.8609094e-226
3.3454721e-228
-1.3169382e-08
1.1412581e-19
-9.3189369e-31
1.0306079e-41
-2.3274478e-52
2.0526595e-62
2.0223303e-71
9.9677838e-81
1.3452753e-89
1.4035224e-97
-7.0359885e-105
6.7047703e-112
-5.054371e-118
-9.0563463e-124
-3.2384124e-129
-4.1336385e-135
-7.9823679e-141
-8.4761726e-147
-2.3256407e-152
-3.6309012e-158
-3.7493564e-164
-1.1697532e-169
-1.1192975e-175
-9.2735389e-181
-1.8564696e-186
-1.907381e-192
-3.4094821e-198
-4.478627e-204
-1.1856302e-209
-1.2074615e-215
-1.2268187e-221
-1.4653726e-227
-8.3041799e-234
1.6448083e-234
1.2990353e-234
1.1427848e-233
-8.3203963e-233
-4.7082308e-227
2.8573722e-232
5.3703673e-235
-1.158568e-08
8.8752954e-20
-6.4168885e-31
6.2237358e-42
-1.2006526e-52
8.4141936e-63
1.4955644e-71
6.6949701e-81
7.5046111e-90
5.5122418e-98
-2.9514095e-105
2.2945941e-112
-1.2772173e-118
-1.7445739e-124
-2.8025579e-130
-4.6930045e-136
5.1145759e-141
-1.0297319e-145
-4.5389287e-151
-3.0242406e-156
-6.0798769e-162
-7.3623759e-167
-3.3943358e-172
-7.6218546e-178
-7.8478186e-184
-1.3665131e-189
-1.6185923e-195
-1.7863916e-201
-3.0170175e-207
-5.45056e-213
-5.5528225e-219
-4.3502607e-225
-6.2701679e-231
-5.6598094e-237
1.5113437e-240
1.6317491e-239
-1.3212382e-238
-6.5339022e-233
8.6839729e-239
7.3468435e-242
-1.0195506e-08
6.9068768e-20
-4.4271914e-31
3.7754325e-42
-6.2515574e-53
3.5296641e-63
-6.6230468e-71
-2.7280342e-80
-2.5709026e-89
-1.3836382e-97
9.9091359e-105
-6.5109363e-112
2.0671338e-118
4.2172857e-124
1.8567086e-129
2.3181055e-134
3.1847409e-140
1.2545477e-145
4.192608e-150
1.2194725e-155
4.1610245e-160
1.2166269e-165
1.3573724e-171
2.6951912e-176
2.8226095e-182
4.6248612e-188
5.1875615e-194
6.9454381e-200
7.6888708e-206
2.5889765e-211
1.9792671e-216
1.5623374e-222
1.8224217e-228
2.9819199e-234
8.8900348e-240
2.6938159e-245
-2.0012394e-244
-8.3578494e-239
1.0626212e-246
9.2237958e-249
-8.9759522e-09
5.3787649e-20
-3.0599791e-31
2.2998589e-42
-3.2832476e-53
1.5110512e-63
-1.7501961e-72
-6.7240239e-82
-5.3840374e-91
-2.1836685e-99
2.6575674e-106
-1.6265527e-113
4.9256934e-120
1.3029753e-125
3.9819979e-131
7.8504992e-137
6.8122572e-143
9.2000706e-148
-2.791208e-153
-1.2988512e-158
-2.651729e-164
-1.2449802e-169
-4.7733847e-175
-4.4890575e-181
-9.2795562e-187
-5.368259e-192
-2.7455995e-197
-7.0619885e-203
-7.9325824e-209
-8.4839967e-215
-1.8128359e-220
-2.358899e-226
-3.2352247e-232
-2.4568628e-238
-1.2459019e-243
1.3983943e-248
-3.938041e-250
-8.4465952e-245
-2.2312011e-251
1.1059411e-255
-7.9067873e-09
4.1920963e-20
-2.1187662e-31
1.4065999e-42
-1.7382962e-53
6.5878538e-64
-3.4679302e-73
-1.2618592e-82
-8.6840118e-92
-2.7323647e-100
-1.6339674e-106
8.9907363e-114
-1.9126872e-120
8.4623772e-126
1.692137e-131
4.9363378e-137
1.2598742e-142
4.0287656e-148
8.6739201e-154
1.6907506e-159
6.540743e-164
1.2658753e-169
3.640734e-175
-9.5949157e-181
-5.591029e-186
-1.0691376e-191
-9.9924309e-198
-1.7190799e-203
-3.9941156e-209
-7.5773517e-215
-9.3690314e-221
-1.4035419e-226
-2.4405498e-232
1.2272592e-237
1.9537207e-243
-8.2810311e-249
-3.4925783e-254
-6.4316175e-251
-1.7567463e-257
1.1338356e-262
-6.9705116e-09
3.2703786e-20
-1.4697113e-31
8.6359392e-43
-9.2740733e-54
2.9199153e-64
-9.131935e-74
-3.2011128e-83
-1.9137242e-92
-4.7654967e-101
-3.2261287e-108
1.6139341e-115
-2.5585237e-122
6.1733155e-128
1.8215463e-133
-4.5821738e-138
-1.4112231e-143
-3.9014393e-149
-8.8224277e-155
3.2297895e-160
5.1064181e-166
2.5447566e-171
1.1115918e-176
-2.4174026e-182
-2.4763784e-187
-5.6586094e-193
1.4339599e-198
2.7284471e-204
6.4195095e-210
1.3751631e-215
3.1992262e-221
3.3760866e-227
4.077363e-233
6.1393779e-238
9.1973152e-244
-5.9592836e-249
-1.3961378e-254
-6.6365831e-257
-1.7537897e-263
9.8892441e-270
-6.1516122e-09
2.5544962e-20
-1.0214892e-31
5.322545e-43
-4.9846064e-54
1.3141547e-64
-2.7388198e-74
-9.437273e-84
-4.9457194e-93
-9.8836661e-102
-3.0807395e-109
1.492552e-116
-1.9877147e-123
1.6853207e-129
-3.3978201e-135
-1.6587137e-140
-1.95181e-145
5.522228e-151
8.5012176e-157
7.2679537e-162
-1.3899651e-166
-2.9667984e-172
9.7038215e-178
2.2041698e-183
1.0492126e-188
4.0660583e-194
5.6851143e-200
1.4146928e-205
1.1705113e-210
1.0075863e-215
1.8402499e-221
3.0182789e-227
4.1979833e-233
5.7202572e-239
-2.0075901e-244
-3.4213199e-250
-2.797636e-255
-2.871972e-261
-5.8782024e-268
-5.7417693e-275
-5.4365524e-09
1.9985963e-20
-7.1156457e-32
3.2934657e-43
-2.6986395e-54
6.0000156e-65
-8.8959211e-75
-3.0869616e-84
-1.432709e-93
-2.3365004e-102
-4.2798555e-110
2.0118218e-117
-2.2427303e-124
1.4334636e-130
-3.3486397e-134
9.2371144e-140
-2.0741072e-145
1.1698971e-150
8.9283252e-156
1.8756053e-160
5.2470453e-166
2.5920832e-171
-1.6488477e-176
-4.7798996e-182
-4.1758338e-187
-9.9505081e-193
-1.2554738e-196
-4.1561607e-202
-5.2523147e-208
-1.9214428e-213
-3.7467185e-219
-1.4382615e-224
-5.5247519e-230
-1.2094502e-235
-4.799329e-241
9.6654168e-247
-1.4428408e-252
-1.0380726e-258
-1.8047931e-265
-1.585051e-272
-4.8134296e-09
1.5670705e-20
-4.9700867e-32
2.0466537e-43
-1.4718348e-54
2.7773164e-65
-3.0578123e-75
-1.102713e-84
-4.5739913e-94
-6.1728725e-103
-7.4253611e-111
3.5398354e-118
-3.2310561e-125
1.6634732e-131
-1.2988818e-136
1.8410212e-142
-8.5691394e-148
-1.608861e-152
2.8304471e-158
-6.9940097e-164
1.0108451e-169
-1.0485848e-174
4.1945352e-180
-8.3362206e-186
-2.3608955e-191
-3.5902737e-197
-3.1218026e-201
-4.353216e-206
-2.1823344e-211
6.9912665e-216
4.0549301e-221
4.9114863e-227
1.4433159e-231
3.9798352e-237
-8.0702052e-243
2.8057597e-248
-7.4584735e-254
-4.1817855e-260
-6.7782113e-267
-5.7048446e-274
-4.2715638e-09
1.232206e-20
-3.4829025e-32
1.2778692e-43
-8.0885758e-55
1.3029653e-65
-1.0982803e-75
-4.2941913e-85
-1.6077962e-94
-1.8170632e-103
-1.5400145e-111
7.8880411e-119
-6.4970466e-126
2.9713505e-132
-3.150808e-138
-6.4327451e-144
1.3050722e-148
-5.7976219e-154
2.73176e-159
-5.8475861e-164
1.5952762e-169
-4.9514882e-175
3.421338e-180
-1.3911082e-185
-1.427526e-190
6.1522159e-196
-1.9569441e-201
-6.2404117e-207
-4.7695519e-212
-2.1042848e-217
-3.0394008e-223
-1.2626768e-228
-1.2624464e-234
8.5175528e-240
-1.6012165e-245
1.1579459e-251
-4.1851523e-257
-2.4532099e-263
-3.3495821e-270
-2.97451e-277
-3.8014725e-09
9.724174e-21
-2.4506304e-32
8.0214649e-44
-4.4810556e-55
6.1951929e-66
-4.0915828e-76
-1.8499465e-85
-6.3116295e-95
-6.0357952e-104
-3.757812e-112
2.3686194e-119
-1.7199251e-126
4.6863102e-133
-1.1649454e-138
2.7739164e-144
-3.5086192e-150
-1.6992858e-155
1.7194191e-159
-2.7883968e-165
1.0345641e-170
-2.9097725e-176
1.593691e-180
-2.2795296e-186
5.0693975e-192
6.7398272e-197
-1.5424438e-201
-8.6071053e-205
-2.7815224e-210
-2.6214744e-214
-3.8389843e-220
3.9063657e-225
-1.9225545e-230
-3.70894e-236
7.2233056e-242
-6.3567757e-248
3.1791935e-253
1.6000027e-259
2.2428136e-266
1.8011105e-273
-3.394803e-09
7.7092931e-21
-1.7330036e-32
5.0666792e-44
-2.5042867e-55
2.9861987e-66
-1.5737987e-76
-9.1876732e-86
-2.8861897e-95
-2.3609224e-104
-1.1183476e-112
1.0922042e-119
-7.1284569e-127
1.8590414e-133
-3.6593225e-139
8.5834502e-145
-2.4290379e-150
2.8344931e-156
4.7740796e-161
-1.1068242e-166
4.065884e-172
-8.8056313e-178
2.6341798e-183
-6.7833892e-189
1.2505689e-193
-3.3024885e-199
-2.0411832e-203
-5.7002651e-209
-3.3126843e-214
4.5930306e-218
7.4574588e-224
1.6089998e-229
4.186893e-235