/*--------------------------------*- C++ -*----------------------------------*\
  =========                 |
  \\      /  F ield         | OpenFOAM: The Open Source CFD Toolbox
   \\    /   O peration     | Website:  https://openfoam.org
    \\  /    A nd           | Version:  10
     \\/     M anipulation  |
\*---------------------------------------------------------------------------*/
FoamFile
{
    format      ascii;
    class       volVectorField;
    location    "0.2";
    object      U;
}
// * * * * * * * * * * * * * * * * * * * * * * * * * * * * * * * * * * * * * //

dimensions      [0 1 -1 0 0 0 0];

internalField   nonuniform List<vector> 
4000
(
(0 0.0186374 0.4777316)
(0 0.02350989 0.50886059)
(0 0.0081667511 0.50052522)
(0 0.0056145172 0.50033634)
(0 0.0042545309 0.50025746)
(0 0.0032548532 0.50016898)
(0 0.0025560112 0.50011968)
(0 0.0020545189 0.50009013)
(0 0.0016765367 0.5000698)
(0 0.0013822211 0.50005539)
(0 0.0011471994 0.50004499)
(0 0.00095513239 0.50003732)
(0 0.00079476556 0.50003159)
(0 0.00065812295 0.50002726)
(0 0.00053937583 0.50002398)
(0 0.0004341432 0.5000215)
(0 0.00033903729 0.50001966)
(0 0.00025135583 0.50001833)
(0 0.00016886571 0.50001743)
(0 8.9644632e-05 0.50001693)
(0 1.1958821e-05 0.50001678)
(0 -6.5844223e-05 0.50001698)
(0 -0.00014542717 0.50001754)
(0 -0.00022855498 0.50001849)
(0 -0.00031720556 0.5000199)
(0 -0.0004137005 0.50002185)
(0 -0.00052087674 0.50002446)
(0 -0.0006423259 0.50002793)
(0 -0.00078274216 0.50003252)
(0 -0.00094845208 0.50003863)
(0 -0.0011482657 0.50004688)
(0 -0.0013948419 0.50005824)
(0 -0.0017069277 0.50007414)
(0 -0.0021148727 0.50009709)
(0 -0.0026745917 0.50013482)
(0 -0.0034681993 0.50020238)
(0 -0.0045604775 0.50027145)
(0 -0.0065846976 0.50043366)
(0 -0.017659144 0.50675402)
(0 -0.013589972 0.47975573)
(0 0.037432522 0.44796948)
(0 0.050955402 0.53232613)
(0 0.021968974 0.5080429)
(0 0.016135327 0.50357319)
(0 0.012415762 0.50242315)
(0 0.0095156545 0.50162298)
(0 0.007520357 0.50115659)
(0 0.0060696766 0.5008659)
(0 0.0049644153 0.50066797)
(0 0.0041000395 0.50052897)
(0 0.0034075981 0.50042899)
(0 0.0028401425 0.50035548)
(0 0.0023652981 0.50030059)
(0 0.0019599802 0.50025919)
(0 0.0016072276 0.50022784)
(0 0.0012942439 0.50020417)
(0 0.0010111034 0.50018657)
(0 0.00074986703 0.50017389)
(0 0.00050395965 0.50016539)
(0 0.00026771061 0.50016055)
(0 3.5998419e-05 0.50015913)
(0 -0.00019605752 0.50016103)
(0 -0.00043336753 0.50016638)
(0 -0.00068114309 0.50017549)
(0 -0.00094521566 0.50018891)
(0 -0.0012324157 0.50020747)
(0 -0.0015510684 0.50023241)
(0 -0.0019116813 0.50026554)
(0 -0.0023279365 0.50030946)
(0 -0.0028181752 0.50036808)
(0 -0.0034077737 0.50044734)
(0 -0.0041331096 0.50055671)
(0 -0.0050472633 0.50071128)
(0 -0.0062301023 0.50093664)
(0 -0.007830511 0.50129442)
(0 -0.010124287 0.50191059)
(0 -0.013105569 0.50282521)
(0 -0.01742503 0.50608125)
(0 -0.038757896 0.52526808)
(0 -0.027894141 0.45021721)
(0 0.039888024 0.40982112)
(0 0.061427548 0.54930822)
(0 0.031983131 0.52188193)
(0 0.024354961 0.51008057)
(0 0.019193091 0.50658855)
(0 0.014976666 0.50452803)
(0 0.012006299 0.50327133)
(0 0.0097715798 0.5024583)
(0 0.0080362664 0.50190097)
(0 0.0066647117 0.50150858)
(0 0.0055566933 0.50122535)
(0 0.0046426755 0.50101658)
(0 0.0038739188 0.50086042)
(0 0.0032150258 0.5007425)
(0 0.0026396606 0.5006531)
(0 0.0021277683 0.50058558)
(0 0.0016636703 0.50053531)
(0 0.0012347448 0.5004991)
(0 0.00083048297 0.50047478)
(0 0.00044178384 0.50046096)
(0 6.0404293e-05 0.50045688)
(0 -0.00032151919 0.50046232)
(0 -0.00071189725 0.50047761)
(0 -0.0011191112 0.50050364)
(0 -0.0015525081 0.50054196)
(0 -0.0020229849 0.50059494)
(0 -0.0025437418 0.50066608)
(0 -0.003131314 0.50076046)
(0 -0.0038070336 0.50088548)
(0 -0.0045991425 0.50105206)
(0 -0.0055459976 0.50127673)
(0 -0.0067015818 0.50158561)
(0 -0.0081430989 0.50202084)
(0 -0.0099746414 0.50265081)
(0 -0.012369024 0.5036152)
(0 -0.015714218 0.50519936)
(0 -0.019870885 0.50785419)
(0 -0.025184573 0.51641235)
(0 -0.047415386 0.53912756)
(0 -0.030852927 0.41488206)
(0 0.034791265 0.36173119)
(0 0.063838066 0.55456364)
(0 0.039379419 0.53747129)
(0 0.030082541 0.51849261)
(0 0.024111775 0.51197727)
(0 0.019278816 0.50849937)
(0 0.015735475 0.50626412)
(0 0.012953587 0.50475528)
(0 0.01074319 0.50370422)
(0 0.0089675887 0.50295588)
(0 0.0075137511 0.50241081)
(0 0.0063020097 0.5020065)
(0 0.0052745576 0.50170268)
(0 0.0043881356 0.50147243)
(0 0.0036099246 0.5012974)
(0 0.0029145386 0.50116491)
(0 0.0022818691 0.5010661)
(0 0.0016955529 0.50099483)
(0 0.0011418471 0.50094691)
(0 0.00060876911 0.50091966)
(0 8.5415715e-05 0.50091159)
(0 -0.00043863653 0.5009223)
(0 -0.0009738717 0.50095242)
(0 -0.0015313626 0.50100366)
(0 -0.0021233913 0.50107901)
(0 -0.0027641665 0.50118305)
(0 -0.0034707299 0.50132249)
(0 -0.0042641619 0.50150701)
(0 -0.0051712451 0.50175062)
(0 -0.0062267617 0.50207379)
(0 -0.007476583 0.50250699)
(0 -0.0089829437 0.50309722)
(0 -0.010833217 0.5039192)
(0 -0.01313397 0.5050893)
(0 -0.016020858 0.50680703)
(0 -0.019896462 0.50946776)
(0 -0.02472872 0.51427522)
(0 -0.03111051 0.5282471)
(0 -0.050317239 0.54407292)
(0 -0.028437408 0.37238445)
(0 0.027423895 0.31484511)
(0 0.062313743 0.55024142)
(0 0.044613123 0.55146755)
(0 0.033980802 0.52748808)
(0 0.027462872 0.51772236)
(0 0.022454036 0.51291967)
(0 0.018635762 0.50973119)
(0 0.015527238 0.50749232)
(0 0.013005482 0.50589956)
(0 0.010941663 0.50474646)
(0 0.0092243993 0.50389564)
(0 0.0077748335 0.50325862)
(0 0.0065329767 0.5027765)
(0 0.0054524005 0.50240908)
(0 0.0044970529 0.50212854)
(0 0.0036384647 0.50191544)
(0 0.0028536882 0.50175609)
(0 0.0021237803 0.50164092)
(0 0.0014326429 0.50156336)
(0 0.000766112 0.50151918)
(0 0.00011121904 0.50150608)
(0 -0.00054447047 0.5015234)
(0 -0.0012134599 0.50157212)
(0 -0.0019088996 0.50165494)
(0 -0.0026452717 0.50177655)
(0 -0.0034391602 0.50194409)
(0 -0.0043101961 0.50216797)
(0 -0.0052822686 0.50246306)
(0 -0.0063851329 0.50285064)
(0 -0.0076565687 0.50336134)
(0 -0.009144844 0.5040398)
(0 -0.0109124 0.50495257)
(0 -0.013046077 0.50620245)
(0 -0.015649679 0.50794434)
(0 -0.018811061 0.51040461)
(0 -0.022891736 0.51405528)
(0 -0.028173183 0.52114592)
(0 -0.035703053 0.53932668)
(0 -0.050473397 0.54155772)
(0 -0.024085148 0.33056446)
(0 0.019837511 0.2752005)
(0 0.057988599 0.53974807)
(0 0.047361946 0.5625647)
(0 0.036475944 0.53660439)
(0 0.029634547 0.52350698)
(0 0.02467464 0.51740304)
(0 0.020772894 0.51336264)
(0 0.017508616 0.51044405)
(0 0.014813303 0.50832363)
(0 0.012566019 0.50676115)
(0 0.010665237 0.50559204)
(0 0.0090389596 0.50470719)
(0 0.0076295659 0.50403165)
(0 0.0063911907 0.50351322)
(0 0.0052873704 0.50311517)
(0 0.0042886317 0.50281147)
(0 0.0033707416 0.50258358)
(0 0.0025133588 0.50241841)
(0 0.0016989548 0.50230696)
(0 0.00091193774 0.50224339)
(0 0.00013792587 0.50222446)
(0 -0.00063691875 0.5022493)
(0 -0.0014265062 0.50231926)
(0 -0.0022453957 0.50243806)
(0 -0.0031094879 0.50261214)
(0 -0.0040367748 0.50285131)
(0 -0.0050482367 0.5031697)
(0 -0.0061689445 0.50358729)
(0 -0.0074294527 0.50413229)
(0 -0.0088676951 0.50484462)
(0 -0.010530943 0.50578129)
(0 -0.012477494 0.50702459)
(0 -0.014787568 0.50869769)
(0 -0.017562958 0.51098221)
(0 -0.020857649 0.51412054)
(0 -0.02496791 0.51873094)
(0 -0.030503048 0.52823047)
(0 -0.038624248 0.54872466)
(0 -0.048504621 0.53398931)
(0 -0.01906574 0.29394852)
(0 0.013082759 0.24255868)
(0 0.051797122 0.5252032)
(0 0.047706976 0.57024863)
(0 0.037754802 0.54552461)
(0 0.030848343 0.52928837)
(0 0.026071603 0.52180128)
(0 0.022236238 0.51699735)
(0 0.018952198 0.51347273)
(0 0.01619229 0.51086406)
(0 0.013848701 0.50891143)
(0 0.011834932 0.50743151)
(0 0.010088394 0.5062993)
(0 0.0085564608 0.50542702)
(0 0.0071963777 0.50475256)
(0 0.0059733407 0.50423152)
(0 0.0048585272 0.503832)
(0 0.0038277443 0.50353101)
(0 0.0028603154 0.50331219)
(0 0.0019381477 0.50316418)
(0 0.0010449526 0.50307958)
(0 0.00016558122 0.5030543)
(0 -0.00071459901 0.50308721)
(0 -0.0016102927 0.50318001)
(0 -0.0025368104 0.50333745)
(0 -0.0035107234 0.50356764)
(0 -0.004550542 0.50388289)
(0 -0.0056775107 0.50430078)
(0 -0.0069165496 0.50484596)
(0 -0.00829737 0.50555267)
(0 -0.009856049 0.50646871)
(0 -0.011636788 0.50766122)
(0 -0.013691839 0.50922507)
(0 -0.016090714 0.51129822)
(0 -0.01892872 0.51408005)
(0 -0.022237238 0.51783938)
(0 -0.026257049 0.52346883)
(0 -0.031840945 0.53537581)
(0 -0.039751805 0.55589807)
(0 -0.044888956 0.52283161)
(0 -0.014089342 0.26265892)
(0 0.0077696651 0.21554608)
(0 0.044823813 0.50801408)
(0 0.046252372 0.57438136)
(0 0.038032353 0.55375078)
(0 0.031285224 0.53496011)
(0 0.026765871 0.52602976)
(0 0.023114439 0.52053765)
(0 0.019918814 0.51648722)
(0 0.017180437 0.5134404)
(0 0.014812084 0.5111292)
(0 0.012745322 0.50935789)
(0 0.010928094 0.5079892)
(0 0.0093144925 0.50692552)
(0 0.0078665447 0.50609694)
(0 0.0065525012 0.50545285)
(0 0.0053454004 0.5049564)
(0 0.0042221261 0.50458083)
(0 0.0031625421 0.50430687)
(0 0.00214874 0.50412108)
(0 0.0011643898 0.50401466)
(0 0.00019417032 0.50398273)
(0 -0.00077677919 0.5040239)
(0 -0.0017633889 0.50414024)
(0 -0.0027811196 0.50433738)
(0 -0.0038465487 0.50462497)
(0 -0.0049779464 0.50501752)
(0 -0.0061959377 0.50553565)
(0 -0.0075242677 0.50620796)
(0 -0.0089906267 0.50707376)
(0 -0.010627817 0.50818723)
(0 -0.012475426 0.50962361)
(0 -0.014578594 0.51148794)
(0 -0.016993523 0.51392912)
(0 -0.019801891 0.51715589)
(0 -0.023019677 0.5214813)
(0 -0.026869317 0.5281839)
(0 -0.032341241 0.54222098)
(0 -0.039393739 0.56050468)
(0 -0.04032225 0.50909657)
(0 -0.0097066259 0.23587525)
(0 0.0040044662 0.19356273)
(0 0.037897184 0.48949306)
(0 0.043683198 0.57524126)
(0 0.037560167 0.56084441)
(0 0.031150872 0.54036054)
(0 0.026911093 0.5300107)
(0 0.023511281 0.52390083)
(0 0.020477809 0.51941132)
(0 0.017824649 0.51598627)
(0 0.015487831 0.51335714)
(0 0.013417022 0.51132209)
(0 0.011570866 0.50973528)
(0 0.0099111949 0.50849206)
(0 0.0084057679 0.50751676)
(0 0.0070267495 0.50675401)
(0 0.0057498621 0.5061631)
(0 0.0045538167 0.50571416)
(0 0.0034196879 0.50538558)
(0 0.0023303544 0.50516215)
(0 0.0012699934 0.50503388)
(0 0.00022362368 0.5049952)
(0 -0.00082334921 0.50504452)
(0 -0.001885585 0.50518421)
(0 -0.0029781786 0.50542065)
(0 -0.00411716 0.50576482)
(0 -0.0053199502 0.50623307)
(0 -0.006605877 0.50684852)
(0 -0.0079967578 0.50764296)
(0 -0.0095174561 0.50865975)
(0 -0.011196578 0.50995796)
(0 -0.013067998 0.51161891)
(0 -0.01516924 0.51375527)
(0 -0.017542947 0.5165228)
(0 -0.020253284 0.52013255)
(0 -0.023308134 0.52496471)
(0 -0.026949313 0.53274141)
(0 -0.03219072 0.54839136)
(0 -0.037983131 0.56254819)
(0 -0.035407773 0.49381102)
(0 -0.0061988973 0.21327457)
(0 0.0015505679 0.17614137)
(0 0.03149691 0.47076998)
(0 0.040527635 0.57338789)
(0 0.03655411 0.56659764)
(0 0.030632964 0.54537754)
(0 0.026667635 0.53370363)
(0 0.023539369 0.52703097)
(0 0.020707074 0.52218673)
(0 0.018180091 0.5184492)
(0 0.015914938 0.51554869)
(0 0.013877183 0.51328304)
(0 0.012035383 0.51150161)
(0 0.010359235 0.51009538)
(0 0.0088224714 0.50898485)
(0 0.0074015554 0.50811129)
(0 0.0060753637 0.50743117)
(0 0.0048249133 0.50691233)
(0 0.0036329555 0.50653131)
(0 0.0024836035 0.50627153)
(0 0.0013619696 0.50612202)
(0 0.00025382314 0.50607668)
(0 -0.00085475954 0.50613376)
(0 -0.0019777623 0.50629585)
(0 -0.0031295005 0.50656998)
(0 -0.004325025 0.50696813)
(0 -0.0055804558 0.50750815)
(0 -0.0069133487 0.50821507)
(0 -0.0083431022 0.5091231)
(0 -0.0098912952 0.51027856)
(0 -0.011581945 0.511744)
(0 -0.013442785 0.51360478)
(0 -0.015503891 0.51597835)
(0 -0.017795894 0.51902329)
(0 -0.02036576 0.52295062)
(0 -0.023220736 0.5282371)
(0 -0.026640986 0.53704179)
(0 -0.031550649 0.55365979)
(0 -0.035890936 0.56231543)
(0 -0.030545063 0.47791629)
(0 -0.0035891418 0.19463715)
(0 7.6143019e-05 0.16253456)
(0 0.02586726 0.45261154)
(0 0.037153909 0.56943685)
(0 0.035185113 0.57098797)
(0 0.029871655 0.54996161)
(0 0.026168507 0.53711257)
(0 0.023301056 0.52991067)
(0 0.020683102 0.524782)
(0 0.018304136 0.5207955)
(0 0.016135764 0.51767094)
(0 0.014156686 0.51520977)
(0 0.012344036 0.5132598)
(0 0.010674728 0.51170981)
(0 0.0091281386 0.51047811)
(0 0.007685003 0.50950392)
(0 0.0063275045 0.50874187)
(0 0.0050391957 0.50815821)
(0 0.0038047785 0.50772819)
(0 0.0026098959 0.50743421)
(0 0.0014408979 0.50726461)
(0 0.0002846097 0.50721285)
(0 -0.00087191645 0.50727708)
(0 -0.0020416819 0.50746005)
(0 -0.0032379161 0.50776926)
(0 -0.0044743852 0.50821748)
(0 -0.0057656104 0.50882362)
(0 -0.0071270987 0.50961407)
(0 -0.008575589 0.51062471)
(0 -0.010129235 0.51190379)
(0 -0.011807534 0.51351604)
(0 -0.013632287 0.5155491)
(0 -0.015626722 0.51812274)
(0 -0.01781148 0.52139515)
(0 -0.020218965 0.52558078)
(0 -0.022862746 0.5312843)
(0 -0.026060417 0.54103249)
(0 -0.030551603 0.55793544)
(0 -0.033410432 0.56020173)
(0 -0.025985883 0.46210141)
(0 -0.0017630615 0.17950325)
(0 -0.00071860502 0.15191893)
(0 0.021104398 0.43544959)
(0 0.033812355 0.56393715)
(0 0.033596211 0.57408825)
(0 0.028967597 0.55409207)
(0 0.025513245 0.54026174)
(0 0.022879959 0.53255042)
(0 0.020472828 0.52718914)
(0 0.018249776 0.5230091)
(0 0.01619138 0.51970431)
(0 0.014286903 0.51708148)
(0 0.012520575 0.51498919)
(0 0.010875488 0.51331555)
(0 0.0093359968 0.51197794)
(0 0.0078868064 0.51091457)
(0 0.0065133048 0.51007905)
(0 0.0052016042 0.5094367)
(0 0.0039384646 0.50896195)
(0 0.0027112154 0.50863654)
(0 0.0015076309 0.50844834)
(0 0.00031579269 0.5083905)
(0 -0.00087606296 0.5084611)
(0 -0.0020797458 0.50866302)
(0 -0.0033071983 0.50900407)
(0 -0.0045707158 0.50949754)
(0 -0.0058830628 0.51016304)
(0 -0.0072575928 0.51102781)
(0 -0.0087083571 0.51212874)
(0 -0.010250184 0.51351513)
(0 -0.011898405 0.51525283)
(0 -0.013669481 0.51743048)
(0 -0.015580583 0.52016823)
(0 -0.017644187 0.52362201)
(0 -0.01988179 0.52801751)
(0 -0.022319525 0.53411241)
(0 -0.025298517 0.54468255)
(0 -0.029308725 0.56120903)
(0 -0.030773145 0.55660241)
(0 -0.021883779 0.4468047)
(0 -0.00056232567 0.16728571)
(0 -0.0010707652 0.14359717)
(0 0.017199173 0.41949837)
(0 0.030658562 0.55734816)
(0 0.031905305 0.57601974)
(0 0.02799484 0.55776128)
(0 0.024775363 0.543177)
(0 0.022342508 0.53497293)
(0 0.020131874 0.52941405)
(0 0.018062766 0.52508596)
(0 0.016118795 0.52163936)
(0 0.014297326 0.51888565)
(0 0.012588195 0.51667572)
(0 0.010979529 0.51489799)
(0 0.009459875 0.51346978)
(0 0.0080174409 0.51232905)
(0 0.0066405554 0.51142905)
(0 0.0053177656 0.51073469)
(0 0.0040378667 0.51021996)
(0 0.0027899173 0.50986625)
(0 0.0015631995 0.50966114)
(0 0.00034715885 0.50959763)
(0 -0.00086866568 0.50967374)
(0 -0.0020947731 0.50989241)
(0 -0.0033417124 0.51026166)
(0 -0.0046202253 0.51079505)
(0 -0.0059412797 0.51151257)
(0 -0.0073161031 0.51244192)
(0 -0.008756184 0.5136204)
(0 -0.010273282 0.51509771)
(0 -0.011879053 0.51694003)
(0 -0.013585389 0.51923608)
(0 -0.015404306 0.52210507)
(0 -0.017341806 0.52569993)
(0 -0.019412513 0.53026777)
(0 -0.021659991 0.5367331)
(0 -0.024428484 0.54797185)
(0 -0.027923695 0.56352455)
(0 -0.028149623 0.55187934)
(0 -0.018312891 0.43229093)
(0 0.00017148453 0.15743855)
(0 -0.001153897 0.13701793)
(0 0.014074092 0.40483829)
(0 0.027772568 0.55004428)
(0 0.030200423 0.57692995)
(0 0.02700577 0.56097572)
(0 0.024007822 0.54588229)
(0 0.021740558 0.53720515)
(0 0.019705409 0.53146982)
(0 0.017781423 0.52702932)
(0 0.015950094 0.5234735)
(0 0.01421441 0.52061588)
(0 0.01256838 0.51831053)
(0 0.011004048 0.51644686)
(0 0.0095133496 0.51494263)
(0 0.0080874575 0.51373609)
(0 0.0067172839 0.51278059)
(0 0.0053935937 0.512041)
(0 0.0041071019 0.5114912)
(0 0.0028485509 0.51111247)
(0 0.0016087312 0.51089227)
(0 0.0003784818 0.51082353)
(0 -0.00085131388 0.51090424)
(0 -0.002089802 0.51113735)
(0 -0.0033461108 0.51153097)
(0 -0.0046294304 0.51209878)
(0 -0.0059489811 0.51286087)
(0 -0.007313986 0.51384504)
(0 -0.0087335951 0.51508862)
(0 -0.010216848 0.51664121)
(0 -0.011772284 0.51856873)
(0 -0.013408055 0.52095938)
(0 -0.015132015 0.52393049)
(0 -0.016945343 0.52763257)
(0 -0.018859684 0.53234522)
(0 -0.020938666 0.53916049)
(0 -0.023507488 0.55089396)
(0 -0.026478959 0.56496466)
(0 -0.025651089 0.54635045)
(0 -0.01528484 0.41870817)
(0 0.00057648724 0.14949906)
(0 -0.0010863304 0.13174148)
(0 0.011618501 0.39146073)
(0 0.025182198 0.54231931)
(0 0.028540357 0.57697324)
(0 0.02603376 0.56375509)
(0 0.023245953 0.54840046)
(0 0.021112601 0.53927552)
(0 0.019228855 0.53337385)
(0 0.01743695 0.52884714)
(0 0.015712314 0.52520882)
(0 0.014061134 0.5222702)
(0 0.012480313 0.51988883)
(0 0.01096481 0.51795544)
(0 0.0095091714 0.51638857)
(0 0.0081069836 0.51512705)
(0 0.0067513459 0.51412462)
(0 0.0054349715 0.51334638)
(0 0.0041503207 0.51276636)
(0 0.0028897116 0.51236587)
(0 0.0016453818 0.5121324)
(0 0.00040953114 0.51205887)
(0 -0.00082563258 0.51214324)
(0 -0.0020679224 0.51238849)
(0 -0.0033250816 0.5128027)
(0 -0.0046048144 0.51339949)
(0 -0.0059147068 0.51419891)
(0 -0.0072621613 0.51522858)
(0 -0.0086542715 0.51652556)
(0 -0.01009776 0.51813902)
(0 -0.011598621 0.52013428)
(0 -0.013162083 0.52259857)
(0 -0.014792828 0.52564686)
(0 -0.016488804 0.52942907)
(0 -0.018261982 0.53426801)
(0 -0.020196146 0.54141116)
(0 -0.02257705 0.55345653)
(0 -0.025035558 0.56563396)
(0 -0.023340203 0.54028171)
(0 -0.012769988 0.40611837)
(0 0.00076178436 0.14307299)
(0 -0.00094450622 0.12742225)
(0 0.0097136272 0.37929971)
(0 0.022883982 0.53439375)
(0 0.026960282 0.57629475)
(0 0.025097523 0.56612662)
(0 0.02251096 0.55075219)
(0 0.020485275 0.54121172)
(0 0.018728638 0.53514574)
(0 0.017053813 0.5305504)
(0 0.015427496 0.52685062)
(0 0.013856843 0.52384988)
(0 0.012340604 0.52140889)
(0 0.010875804 0.51941987)
(0 0.009458908 0.51780224)
(0 0.0080853875 0.51649555)
(0 0.0067501318 0.5154541)
(0 0.005447513 0.51464339)
(0 0.0041715289 0.51403773)
(0 0.0029159253 0.5136186)
(0 0.0016742818 0.5133736)
(0 0.00044008095 0.51329569)
(0 -0.00079321157 0.51338286)
(0 -0.0020321423 0.51363802)
(0 -0.0032831519 0.51406917)
(0 -0.0045525689 0.51468983)
(0 -0.0058465011 0.51551978)
(0 -0.0071707497 0.51658635)
(0 -0.0085306605 0.5179261)
(0 -0.0099310537 0.5195876)
(0 -0.011375929 0.52163537)
(0 -0.012868331 0.52415544)
(0 -0.014410667 0.52726038)
(0 -0.015999119 0.53110229)
(0 -0.017648495 0.53605651)
(0 -0.01946057 0.54350265)
(0 -0.021665184 0.55567704)
(0 -0.023635477 0.56564263)
(0 -0.021245003 0.53388477)
(0 -0.010715813 0.39452114)
(0 0.00080768981 0.13782707)
(0 -0.00077591509 0.12379921)
(0 0.0082468145 0.36825839)
(0 0.020857639 0.52642718)
(0 0.025478072 0.57502239)
(0 0.024205827 0.56811994)
(0 0.021813962 0.55295444)
(0 0.019875705 0.54303839)
(0 0.018223501 0.53680523)
(0 0.016650446 0.53215158)
(0 0.015112991 0.52840617)
(0 0.013617316 0.52535839)
(0 0.012163209 0.52287126)
(0 0.010749087 0.52083851)
(0 0.0093727449 0.51918038)
(0 0.0080310717 0.51783715)
(0 0.0067203753 0.51676376)
(0 0.0054364002 0.51592618)
(0 0.0041744618 0.51529908)
(0 0.0029295644 0.51486421)
(0 0.0016964976 0.51460931)
(0 0.0004699173 0.51452742)
(0 -0.00075555143 0.51461654)
(0 -0.0019852882 0.51487954)
(0 -0.0032245437 0.51532429)
(0 -0.0044784106 0.51596408)
(0 -0.0057516974 0.51681842)
(0 -0.0070488373 0.51791416)
(0 -0.0083737359 0.51928734)
(0 -0.0097297067 0.5209858)
(0 -0.011119252 0.52307319)
(0 -0.012543864 0.52563432)
(0 -0.014004436 0.52877962)
(0 -0.01549668 0.53266692)
(0 -0.017039954 0.53773095)
(0 -0.018750134 0.54545139)
(0 -0.020789408 0.55757795)
(0 -0.022305249 0.56509568)
(0 -0.019370571 0.52732176)
(0 -0.0090595424 0.38387612)
(0 0.00077070949 0.13348895)
(0 -0.00060854432 0.12068215)
(0 0.0071188717 0.35822798)
(0 0.019075135 0.51853186)
(0 0.024099576 0.57326527)
(0 0.023361107 0.56976445)
(0 0.021159383 0.55502011)
(0 0.019293948 0.54477594)
(0 0.017726121 0.53837063)
(0 0.016240253 0.53366325)
(0 0.014782033 0.52988356)
(0 0.013355057 0.52680043)
(0 0.011959541 0.52427799)
(0 0.010594776 0.5222113)
(0 0.009259416 0.52052131)
(0 0.0079513736 0.51914897)
(0 0.0066680464 0.51804982)
(0 0.0054062843 0.51719032)
(0 0.0041625043 0.51654556)
(0 0.0029327939 0.51609754)
(0 0.0017130064 0.5158342)
(0 0.00049884467 0.5157487)
(0 -0.00071402554 0.51583903)
(0 -0.0019299362 0.516108)
(0 -0.0031530798 0.51656331)
(0 -0.0043874663 0.51721804)
(0 -0.0056367912 0.5180913)
(0 -0.0069043507 0.5192095)
(0 -0.0081928985 0.52060809)
(0 -0.009504597 0.52233417)
(0 -0.010840879 0.5244506)
(0 -0.012202197 0.527041)
(0 -0.013588552 0.53021428)
(0 -0.014996301 0.53413779)
(0 -0.016450327 0.5393098)
(0 -0.018075577 0.54727172)
(0 -0.019959404 0.55918374)
(0 -0.021059309 0.56408801)
(0 -0.017707638 0.5207135)
(0 -0.0077364574 0.37412054)
(0 0.00068925692 0.12984338)
(0 -0.00045731564 0.11793585)
(0 0.0062472147 0.3490991)
(0 0.017506321 0.51078442)
(0 0.022822882 0.5711148)
(0 0.022561968 0.57108816)
(0 0.020547362 0.55695858)
(0 0.018745011 0.54644047)
(0 0.017244582 0.53985806)
(0 0.015832644 0.53509728)
(0 0.014444433 0.53129092)
(0 0.013079724 0.52818129)
(0 0.011738708 0.52563202)
(0 0.010421162 0.52353927)
(0 0.009126237 0.52182456)
(0 0.0078525517 0.52042934)
(0 0.0065983133 0.5193097)
(0 0.0053612399 0.51843258)
(0 0.0041386497 0.51777343)
(0 0.0029275414 0.51731456)
(0 0.0017246833 0.5170441)
(0 0.00052669114 0.5169553)
(0 -0.00066985634 0.51704618)
(0 -0.0018683726 0.51731946)
(0 -0.0030721308 0.51778269)
(0 -0.0042842139 0.51844867)
(0 -0.0055073878 0.51933617)
(0 -0.006744027 0.52047113)
(0 -0.0079959918 0.52188839)
(0 -0.0092646001 0.52363446)
(0 -0.010550568 0.52577145)
(0 -0.011853713 0.52838194)
(0 -0.013173636 0.53157418)
(0 -0.01450824 0.53552893)
(0 -0.015888284 0.54080902)
(0 -0.017442177 0.54897572)
(0 -0.019179138 0.56051916)
(0 -0.019903076 0.5627025)
(0 -0.016238909 0.51414771)
(0 -0.0066853437 0.36518109)
(0 0.0005885125 0.12672392)
(0 -0.00032869535 0.11546611)
(0 0.005566105 0.340768)
(0 0.016122238 0.50323509)
(0 0.021641682 0.56864684)
(0 0.021804991 0.57211723)
(0 0.019975454 0.55877649)
(0 0.018230419 0.54804415)
(0 0.016783583 0.54128124)
(0 0.015433938 0.53646441)
(0 0.014107244 0.53263599)
(0 0.012798596 0.52950634)
(0 0.011507822 0.52693676)
(0 0.010234896 0.52482417)
(0 0.0089792084 0.52309047)
(0 0.0077398321 0.52167752)
(0 0.0065155555 0.5205418)
(0 0.0053047613 0.51965069)
(0 0.0041054883 0.51897997)
(0 0.0029154871 0.51851224)
(0 0.0017322966 0.51823579)
(0 0.00055331204 0.51814398)
(0 -0.00062410364 0.51823483)
(0 -0.0018025757 0.51851101)
(0 -0.0029845959 0.51897989)
(0 -0.0041724712 0.51965401)
(0 -0.0053682082 0.52055179)
(0 -0.0065734543 0.52169874)
(0 -0.0077893996 0.52312921)
(0 -0.0090167715 0.52488914)
(0 -0.010255847 0.52704007)
(0 -0.011506124 0.52966374)
(0 -0.012767173 0.5328688)
(0 -0.014039126 0.53685302)
(0 -0.015358458 0.54224194)
(0 -0.016851343 0.55057331)
(0 -0.018448662 0.56160805)
(0 -0.018835793 0.56100982)
(0 -0.014943519 0.50768606)
(0 -0.0058515998 0.35698131)
(0 0.0004842236 0.12400393)
(0 -0.00022401588 0.11320855)
(0 0.0050250572 0.33313982)
(0 0.014896771 0.49591493)
(0 0.020547698 0.56592397)
(0 0.02108599 0.5728756)
(0 0.019439877 0.56047828)
(0 0.017749445 0.54959574)
(0 0.016345409 0.54265149)
(0 0.015048117 0.53777411)
(0 0.013775348 0.53392584)
(0 0.012517014 0.53078075)
(0 0.011272311 0.52819574)
(0 0.010041208 0.52606812)
(0 0.008823155 0.52431999)
(0 0.0076174951 0.52289345)
(0 0.0064234132 0.52174529)
(0 0.0052397871 0.52084321)
(0 0.0040652194 0.5201633)
(0 0.0028980685 0.51968837)
(0 0.0017365107 0.5194069)
(0 0.00057859185 0.51931233)
(0 -0.00057766287 0.51940269)
(0 -0.001734216 0.51968056)
(0 -0.0028929111 0.52015319)
(0 -0.0040554174 0.52083286)
(0 -0.0052231364 0.52173768)
(0 -0.0063971575 0.52289277)
(0 -0.0075781873 0.52433207)
(0 -0.0087665661 0.52610109)
(0 -0.0099623447 0.52826094)
(0 -0.011164929 0.53089279)
(0 -0.012374138 0.53410685)
(0 -0.013592798 0.53812111)
(0 -0.014862544 0.54361925)
(0 -0.016301918 0.55207236)
(0 -0.017765582 0.5624725)
(0 -0.017852897 0.55906917)
(0 -0.013799938 0.50137031)
(0 -0.0051885554 0.3494463)
(0 0.00038559949 0.1215887)
(0 -0.00014174849 0.11111982)
(0 0.0045864123 0.32613011)
(0 0.013807219 0.48884141)
(0 0.019532223 0.56299787)
(0 0.020400789 0.57338516)
(0 0.01893636 0.56206682)
(0 0.01730004 0.55110115)
(0 0.015930709 0.54397793)
(0 0.01467746 0.5390345)
(0 0.013451968 0.53516681)
(0 0.01223877 0.53200934)
(0 0.011036213 0.52941246)
(0 0.0098441177 0.52727343)
(0 0.0086618806 0.52551442)
(0 0.0074889804 0.52407758)
(0 0.0063248566 0.52291991)
(0 0.0051687441 0.52200933)
(0 0.0040196772 0.52132218)
(0 0.0028764953 0.52084146)
(0 0.0017378912 0.52055578)
(0 0.00060244748 0.52045867)
(0 -0.00053126815 0.52054816)
(0 -0.0016646721 0.52082676)
(0 -0.0027990753 0.52130157)
(0 -0.0039356382 0.52198468)
(0 -0.0050752914 0.52289392)
(0 -0.0062187089 0.5240541)
(0 -0.0073662655 0.52549883)
(0 -0.0085180718 0.52727333)
(0 -0.0096741047 0.52943842)
(0 -0.010833843 0.532075)
(0 -0.011997556 0.53529614)
(0 -0.01317103 0.53934258)
(0 -0.014400217 0.54494917)
(0 -0.015791187 0.55347895)
(0 -0.017126162 0.5631326)
(0 -0.016947758 0.55692967)
(0 -0.012787691 0.49522743)
(0 -0.0046576627 0.34250559)
(0 0.0002974723 0.1194085)
(0 -7.8983083e-05 0.10917095)
(0 0.0042227502 0.3196649)
(0 0.012834278 0.48202262)
(0 0.018587002 0.5599114)
(0 0.019745632 0.5736659)
(0 0.018460673 0.56354398)
(0 0.016879494 0.55256402)
(0 0.015539081 0.54526769)
(0 0.014323042 0.54025247)
(0 0.013139092 0.53636442)
(0 0.011966458 0.53319644)
(0 0.010802452 0.53059022)
(0 0.009646647 0.52844248)
(0 0.0084983233 0.52667527)
(0 0.0073570003 0.5252307)
(0 0.0062222654 0.52406582)
(0 0.0050936023 0.52314874)
(0 0.0039703664 0.52245593)
(0 0.0028517708 0.52197057)
(0 0.0017369178 0.52168137)
(0 0.00062482314 0.52158191)
(0 -0.00048550747 0.52167023)
(0 -0.0015950495 0.52194878)
(0 -0.0027046877 0.52242453)
(0 -0.0038151846 0.52310941)
(0 -0.0049271138 0.52402102)
(0 -0.0060408517 0.52518394)
(0 -0.0071565607 0.52663154)
(0 -0.0082742389 0.52840886)
(0 -0.0093938941 0.5305766)
(0 -0.010515192 0.53321571)
(0 -0.011638995 0.53644341)
(0 -0.012774144 0.54052511)
(0 -0.013969856 0.54623779)
(0 -0.01531561 0.55479766)
(0 -0.016526089 0.56360639)
(0 -0.016112893 0.55463183)
(0 -0.011888257 0.4892736)
(0 -0.0042279825 0.33609473)
(0 0.00022182694 0.11741281)
(0 -3.2352166e-05 0.10734236)
(0 0.0039144983 0.31368023)
(0 0.011961736 0.47546026)
(0 0.017704648 0.55670035)
(0 0.019117339 0.57373628)
(0 0.018008923 0.56491104)
(0 0.016484865 0.5539863)
(0 0.015169488 0.54652619)
(0 0.01398512 0.54143372)
(0 0.012837816 0.53752345)
(0 0.011701762 0.53434591)
(0 0.010573073 0.53173208)
(0 0.0094510097 0.52957754)
(0 0.0083347031 0.52780414)
(0 0.0072236512 0.52635379)
(0 0.0061175121 0.52518352)
(0 0.005015933 0.5242615)
(0 0.0039185021 0.52356431)
(0 0.0028247151 0.52307524)
(0 0.0017339927 0.52278307)
(0 0.00064569207 0.52268144)
(0 -0.00044083356 0.52276836)
(0 -0.0015262111 0.52304626)
(0 -0.0026109933 0.523522)
(0 -0.0036956383 0.52420735)
(0 -0.0047804577 0.52511978)
(0 -0.0058656249 0.52628366)
(0 -0.006951181 0.52773225)
(0 -0.0080370963 0.52951053)
(0 -0.0091234755 0.5316792)
(0 -0.010210245 0.53431963)
(0 -0.011298968 0.53755445)
(0 -0.01240148 0.54167488)
(0 -0.013569082 0.54748937)
(0 -0.014871332 0.55603192)
(0 -0.01596099 0.56390998)
(0 -0.015340764 0.55220911)
(0 -0.011085413 0.48351729)
(0 -0.0038752739 0.3301559)
(0 0.00015886894 0.11556539)
(0 1.4276444e-06 0.1056205)
(0 0.0036478905 0.3081211)
(0 0.011176051 0.46915179)
(0 0.016878782 0.55339481)
(0 0.018513333 0.5736134)
(0 0.01757769 0.56616912)
(0 0.016113242 0.55536867)
(0 0.014820546 0.54775746)
(0 0.013663416 0.54258296)
(0 0.012548603 0.53864796)
(0 0.011445687 0.53546113)
(0 0.010349446 0.53284078)
(0 0.0092587768 0.5306808)
(0 0.0081726557 0.52890265)
(0 0.007090519 0.52744798)
(0 0.0060120407 0.5262737)
(0 0.0049369676 0.52534795)
(0 0.0038650493 0.52464739)
(0 0.0027959899 0.52415534)
(0 0.0017294513 0.52386066)
(0 0.00066505393 0.52375701)
(0 -0.00039757976 0.52384239)
(0 -0.0014588077 0.52411918)
(0 -0.0025189302 0.52459418)
(0 -0.0035781794 0.52527905)
(0 -0.0046366826 0.52619113)
(0 -0.0056944837 0.52735471)
(0 -0.0067515705 0.52880299)
(0 -0.0078079435 0.53058099)
(0 -0.0088638418 0.53274955)
(0 -0.0099194984 0.53539082)
(0 -0.010977253 0.53863406)
(0 -0.012051758 0.54279667)
(0 -0.013195151 0.54870672)
(0 -0.014454518 0.55718429)
(0 -0.015426738 0.56405785)
(0 -0.014624273 0.54968915)
(0 -0.010365257 0.47796159)
(0 -0.0035809242 0.32463795)
(0 0.00010776795 0.11384044)
(0 2.5277427e-05 0.10399549)
(0 0.003413328 0.3029404)
(0 0.010465915 0.46309189)
(0 0.016103986 0.55002023)
(0 0.017931574 0.57331327)
(0 0.01716407 0.56731935)
(0 0.015761901 0.55671096)
(0 0.014490715 0.54896439)
(0 0.013357317 0.54370404)
(0 0.012271486 0.53974143)
(0 0.011198744 0.53654504)
(0 0.010132423 0.53391882)
(0 0.0090710159 0.53175427)
(0 0.0080133485 0.52997239)
(0 0.0069587725 0.52851446)
(0 0.0059069409 0.52733718)
(0 0.0048576523 0.52640864)
(0 0.0038107624 0.52570547)
(0 0.0027661226 0.52521103)
(0 0.001723573 0.52491422)
(0 0.00068293112 0.52480867)
(0 -0.00035597742 0.52489242)
(0 -0.0013933087 0.52516779)
(0 -0.0024291767 0.52564153)
(0 -0.003463652 0.52632522)
(0 -0.0044967394 0.52723615)
(0 -0.0055284097 0.52839856)
(0 -0.0065586457 0.52984566)
(0 -0.0075875156 0.53162263)
(0 -0.0086154109 0.53379055)
(0 -0.0096428967 0.53643275)
(0 -0.01067314 0.53968621)
(0 -0.011723348 0.54389416)
(0 -0.012845211 0.5498915)
(0 -0.014061561 0.55825677)
(0 -0.014919627 0.56406303)
(0 -0.013957017 0.54709495)
(0 -0.0097160321 0.47260587)
(0 -0.0033308815 0.31949605)
(0 6.716435e-05 0.1122196)
(0 4.1647828e-05 0.10245965)
(0 0.0032041246 0.29809782)
(0 0.0098218468 0.4572735)
(0 0.01537569 0.54659823)
(0 0.017370463 0.57285091)
(0 0.016765653 0.56836313)
(0 0.015428369 0.55801245)
(0 0.014178414 0.55014897)
(0 0.013066011 0.54480009)
(0 0.012006203 0.54080681)
(0 0.010961091 0.5376002)
(0 0.0099224713 0.53496837)