/*--------------------------------*- C++ -*----------------------------------*\
  =========                 |
  \\      /  F ield         | OpenFOAM: The Open Source CFD Toolbox
   \\    /   O peration     | Website:  https://openfoam.org
    \\  /    A nd           | Version:  10
     \\/     M anipulation  |
\*---------------------------------------------------------------------------*/
FoamFile
{
    format      ascii;
    class       volVectorField;
    location    "0.2";
    object      U_0;
}
// * * * * * * * * * * * * * * * * * * * * * * * * * * * * * * * * * * * * * //

dimensions      [0 1 -1 0 0 0 0];

internalField   nonuniform List<vector> 
4000
(
(0 0.018637396 0.4777316)
(0 0.023509882 0.50886059)
(0 0.0081667442 0.50052522)
(0 0.0056145103 0.50033634)
(0 0.0042545237 0.50025746)
(0 0.003254846 0.50016898)
(0 0.0025560043 0.50011968)
(0 0.0020545126 0.50009013)
(0 0.0016765311 0.5000698)
(0 0.0013822165 0.50005539)
(0 0.0011471958 0.50004499)
(0 0.00095513008 0.50003732)
(0 0.00079476462 0.50003159)
(0 0.00065812349 0.50002726)
(0 0.00053937794 0.50002398)
(0 0.00043414698 0.5000215)
(0 0.0003390428 0.50001966)
(0 0.00025136311 0.50001833)
(0 0.00016887478 0.50001743)
(0 8.9655488e-05 0.50001693)
(0 1.1971462e-05 0.50001678)
(0 -6.5829835e-05 0.50001698)
(0 -0.00014541107 0.50001754)
(0 -0.00022853728 0.50001849)
(0 -0.00031718633 0.5000199)
(0 -0.00041367989 0.50002185)
(0 -0.00052085487 0.50002446)
(0 -0.00064230292 0.50002793)
(0 -0.00078271828 0.50003252)
(0 -0.0009484275 0.50003863)
(0 -0.0011482407 0.50004688)
(0 -0.0013948166 0.50005824)
(0 -0.0017069025 0.50007414)
(0 -0.0021148479 0.50009709)
(0 -0.0026745678 0.50013482)
(0 -0.0034681768 0.50020238)
(0 -0.0045604572 0.50027145)
(0 -0.0065846787 0.50043366)
(0 -0.017659125 0.50675401)
(0 -0.013589962 0.47975573)
(0 0.037432511 0.44796949)
(0 0.050955379 0.53232613)
(0 0.021968951 0.5080429)
(0 0.016135305 0.5035732)
(0 0.012415739 0.50242315)
(0 0.0095156316 0.50162298)
(0 0.0075203351 0.50115659)
(0 0.0060696564 0.50086589)
(0 0.0049643973 0.50066797)
(0 0.0041000244 0.50052896)
(0 0.0034075863 0.50042899)
(0 0.0028401345 0.50035548)
(0 0.0023652944 0.50030059)
(0 0.0019599811 0.50025918)
(0 0.0016072333 0.50022783)
(0 0.0012942548 0.50020417)
(0 0.0010111196 0.50018657)
(0 0.00074988872 0.50017389)
(0 0.0005039869 0.50016538)
(0 0.00026774342 0.50016055)
(0 3.603676e-05 0.50015912)
(0 -0.0001960137 0.50016103)
(0 -0.00043331845 0.50016638)
(0 -0.00068108897 0.50017549)
(0 -0.0009451568 0.5001889)
(0 -0.0012323525 0.50020747)
(0 -0.0015510012 0.50023241)
(0 -0.0019116107 0.50026553)
(0 -0.002327863 0.50030946)
(0 -0.0028180995 0.50036808)
(0 -0.0034076965 0.50044734)
(0 -0.0041330317 0.50055671)
(0 -0.0050471857 0.50071128)
(0 -0.0062300259 0.50093664)
(0 -0.007830437 0.50129443)
(0 -0.010124217 0.50191059)
(0 -0.013105505 0.50282522)
(0 -0.01742497 0.50608125)
(0 -0.038757839 0.52526808)
(0 -0.027894114 0.45021724)
(0 0.039888008 0.40982116)
(0 0.061427509 0.54930822)
(0 0.031983088 0.52188193)
(0 0.024354922 0.51008057)
(0 0.01919305 0.50658855)
(0 0.014976625 0.50452803)
(0 0.01200626 0.50327133)
(0 0.0097715439 0.5024583)
(0 0.0080362345 0.50190096)
(0 0.0066646847 0.50150857)
(0 0.005556672 0.50122534)
(0 0.0046426607 0.50101657)
(0 0.0038739113 0.50086041)
(0 0.0032150262 0.50074249)
(0 0.0026396694 0.50065309)
(0 0.002127786 0.50058557)
(0 0.0016636972 0.5005353)
(0 0.0012347811 0.50049909)
(0 0.00083052888 0.50047477)
(0 0.00044183938 0.50046095)
(0 6.046938e-05 0.50045686)
(0 -0.00032144467 0.50046231)
(0 -0.0007118136 0.5004776)
(0 -0.0011190188 0.50050363)
(0 -0.0015524076 0.50054195)
(0 -0.0020228767 0.50059493)
(0 -0.0025436268 0.50066607)
(0 -0.003131193 0.50076046)
(0 -0.0038069076 0.50088548)
(0 -0.0045990125 0.50105206)
(0 -0.0055458649 0.50127672)
(0 -0.0067014478 0.50158561)
(0 -0.0081429651 0.50202084)
(0 -0.0099745097 0.50265081)
(0 -0.012368896 0.50361521)
(0 -0.015714097 0.50519937)
(0 -0.019870775 0.5078542)
(0 -0.025184463 0.51641236)
(0 -0.047415288 0.53912757)
(0 -0.030852885 0.41488215)
(0 0.034791244 0.36173126)
(0 0.063838009 0.55456367)
(0 0.039379351 0.53747129)
(0 0.030082481 0.51849261)
(0 0.024111713 0.51197727)
(0 0.019278755 0.50849936)
(0 0.015735417 0.50626412)
(0 0.012953533 0.50475527)
(0 0.010743142 0.50370421)
(0 0.0089675476 0.50295587)
(0 0.0075137183 0.50241079)
(0 0.0063019865 0.50200648)
(0 0.005274545 0.50170266)
(0 0.0043881344 0.50147241)
(0 0.0036099356 0.50129738)
(0 0.0029145626 0.50116489)
(0 0.0022819064 0.50106608)
(0 0.001695604 0.50099481)
(0 0.0011419121 0.50094689)
(0 0.00060884813 0.50091963)
(0 8.5508672e-05 0.50091157)
(0 -0.00043852987 0.50092228)
(0 -0.00097375173 0.5009524)
(0 -0.0015312299 0.50100364)
(0 -0.0021232466 0.50107899)
(0 -0.0027640107 0.50118303)
(0 -0.003470564 0.50132247)
(0 -0.0042639871 0.501507)
(0 -0.0051710629 0.50175061)
(0 -0.0062265736 0.50207378)
(0 -0.0074763907 0.50250698)
(0 -0.0089827493 0.50309722)
(0 -0.010833023 0.5039192)
(0 -0.013133778 0.50508931)
(0 -0.016020671 0.50680704)
(0 -0.019896283 0.50946778)
(0 -0.024728555 0.51427524)
(0 -0.03111034 0.52824711)
(0 -0.050317097 0.54407297)
(0 -0.028437353 0.37238464)
(0 0.027423872 0.31484523)
(0 0.062313668 0.55024147)
(0 0.044613026 0.55146755)
(0 0.033980716 0.52748808)
(0 0.027462785 0.51772236)
(0 0.022453952 0.51291967)
(0 0.018635681 0.50973118)
(0 0.015527163 0.5074923)
(0 0.013005414 0.50589954)
(0 0.010941606 0.50474643)
(0 0.0092243527 0.50389561)
(0 0.0077747997 0.50325859)
(0 0.0065329571 0.50277647)
(0 0.0054523963 0.50240905)
(0 0.0044970651 0.50212851)
(0 0.0036384942 0.5019154)
(0 0.0028537356 0.50175606)
(0 0.0021238461 0.50164088)
(0 0.0014327274 0.50156332)
(0 0.00076621535 0.50151915)
(0 0.0001113411 0.50150604)
(0 -0.00054432999 0.50152336)
(0 -0.0012133015 0.50157208)
(0 -0.001908724 0.50165491)
(0 -0.00264508 0.50177652)
(0 -0.0034389534 0.50194406)
(0 -0.0043099757 0.50216794)
(0 -0.0052820361 0.50246304)
(0 -0.0063848901 0.50285062)
(0 -0.0076563177 0.50336133)
(0 -0.0091445872 0.5040398)
(0 -0.01091214 0.50495257)
(0 -0.013045816 0.50620245)
(0 -0.015649421 0.50794435)
(0 -0.018810809 0.51040463)
(0 -0.022891493 0.51405531)
(0 -0.028172953 0.52114595)
(0 -0.035702813 0.53932669)
(0 -0.050473208 0.54155784)
(0 -0.024085084 0.33056478)
(0 0.019837486 0.27520067)
(0 0.057988507 0.53974817)
(0 0.047361815 0.5625647)
(0 0.036475825 0.53660438)
(0 0.029634432 0.52350698)
(0 0.024674527 0.51740303)
(0 0.020772786 0.51336262)
(0 0.017508516 0.51044403)
(0 0.014813213 0.5083236)
(0 0.012565941 0.50676111)
(0 0.010665174 0.505592)
(0 0.0090389128 0.50470714)
(0 0.0076295372 0.5040316)
(0 0.0063911817 0.50351317)
(0 0.0052873823 0.50311512)
(0 0.0042886657 0.50281141)
(0 0.0033707985 0.50258352)
(0 0.0025134393 0.50241835)
(0 0.0016990592 0.5023069)
(0 0.00091206627 0.50224333)
(0 0.00013807838 0.5022244)
(0 -0.00063674263 0.50224924)
(0 -0.0014263071 0.5023192)
(0 -0.0022451746 0.502438)
(0 -0.0031092459 0.50261209)
(0 -0.0040365134 0.50285127)
(0 -0.0050479576 0.50316965)
(0 -0.0061686496 0.50358726)
(0 -0.0074291444 0.50413226)
(0 -0.0088673758 0.5048446)
(0 -0.010530616 0.50578128)
(0 -0.012477162 0.50702459)
(0 -0.014787235 0.50869769)
(0 -0.017562627 0.51098223)
(0 -0.020857324 0.51412057)
(0 -0.024967596 0.51873098)
(0 -0.030502743 0.5282305)
(0 -0.038623929 0.54872469)
(0 -0.048504386 0.53398955)
(0 -0.019065669 0.29394898)
(0 0.013082733 0.24255891)
(0 0.051797013 0.52520336)
(0 0.047706809 0.57024864)
(0 0.037754644 0.5455246)
(0 0.030848194 0.52928837)
(0 0.026071458 0.52180126)
(0 0.0222361 0.51699733)
(0 0.018952069 0.5134727)
(0 0.016192173 0.51086402)
(0 0.0138486 0.50891138)
(0 0.011834849 0.50743146)
(0 0.010088332 0.50629923)
(0 0.0085564204 0.50542695)
(0 0.0071963617 0.50475248)
(0 0.0059733507 0.50423145)
(0 0.0048585645 0.50383192)
(0 0.00382781 0.50353093)
(0 0.0028604103 0.5033121)
(0 0.0019382724 0.50316409)
(0 0.0010451072 0.50307949)
(0 0.00016576562 0.50305422)
(0 -0.00071438531 0.50308712)
(0 -0.0016100504 0.50317993)
(0 -0.0025365407 0.50333737)
(0 -0.0035104275 0.50356757)
(0 -0.0045502218 0.50388282)
(0 -0.0056771681 0.50430072)
(0 -0.0069161871 0.50484591)
(0 -0.0082969905 0.50555263)
(0 -0.0098556554 0.50646868)
(0 -0.011636384 0.5076612)
(0 -0.013691428 0.50922506)
(0 -0.0160903 0.51129823)
(0 -0.018928307 0.51408007)
(0 -0.022236832 0.51783942)
(0 -0.026256654 0.52346888)
(0 -0.031840553 0.53537584)
(0 -0.0397514 0.55589813)
(0 -0.044888676 0.522832)
(0 -0.014089265 0.26265954)
(0 0.0077696379 0.21554639)
(0 0.044823686 0.50801433)
(0 0.046252164 0.5743814)
(0 0.038032149 0.55375076)
(0 0.031285034 0.5349601)
(0 0.026765688 0.52602975)
(0 0.023114264 0.52053762)
(0 0.019918651 0.51648718)
(0 0.017180289 0.51344035)
(0 0.014811955 0.51112913)
(0 0.012745215 0.50935781)
(0 0.010928011 0.50798912)
(0 0.0093144374 0.50692543)
(0 0.0078665192 0.50609684)
(0 0.0065525072 0.50545274)
(0 0.0053454396 0.50495629)
(0 0.0042221998 0.50458071)
(0 0.0031626512 0.50430675)
(0 0.0021488853 0.50412096)
(0 0.0011645714 0.50401454)
(0 0.0001943881 0.50398261)
(0 -0.00077652573 0.50402379)
(0 -0.0017631006 0.50414013)
(0 -0.0027807977 0.50433727)
(0 -0.0038461949 0.50462487)
(0 -0.0049775627 0.50501743)
(0 -0.0061955265 0.50553557)
(0 -0.0075238319 0.50620789)
(0 -0.0089901695 0.5070737)
(0 -0.010627342 0.50818718)
(0 -0.012474937 0.50962358)
(0 -0.014578095 0.51148793)
(0 -0.01699302 0.51392912)
(0 -0.019801388 0.51715591)
(0 -0.023019181 0.52148135)
(0 -0.02686883 0.52818396)
(0 -0.03234075 0.542221)
(0 -0.039393242 0.5605048)
(0 -0.040321925 0.50909716)
(0 -0.0097065459 0.23587606)
(0 0.0040044374 0.19356312)
(0 0.03789704 0.48949342)
(0 0.043682947 0.57524134)
(0 0.037559911 0.56084438)
(0 0.031150634 0.54036052)
(0 0.026910865 0.53001067)
(0 0.023511063 0.52390079)
(0 0.020477605 0.51941126)
(0 0.017824464 0.5159862)
(0 0.015487669 0.51335705)
(0 0.013416886 0.51132199)
(0 0.01157076 0.50973517)
(0 0.0099111214 0.50849194)
(0 0.0084057298 0.50751663)
(0 0.0070267491 0.50675387)
(0 0.0057499013 0.50616295)
(0 0.0045538972 0.50571401)
(0 0.0034198107 0.50538542)
(0 0.0023305204 0.50516199)
(0 0.0012702029 0.50503372)
(0 0.00022387643 0.50499504)
(0 -0.00082305367 0.50504437)
(0 -0.0018852476 0.50518406)
(0 -0.0029778009 0.50542051)
(0 -0.0041167438 0.50576468)
(0 -0.0053194979 0.50623295)
(0 -0.0066053914 0.5068484)
(0 -0.0079962421 0.50764286)
(0 -0.0095169141 0.50865967)
(0 -0.011196014 0.5099579)
(0 -0.013067416 0.51161887)
(0 -0.015168646 0.51375525)
(0 -0.017542346 0.5165228)
(0 -0.020252682 0.52013258)
(0 -0.023307538 0.52496476)
(0 -0.026948723 0.53274146)
(0 -0.032190117 0.54839138)
(0 -0.037982538 0.56254839)
(0 -0.035407405 0.49381186)
(0 -0.0061988133 0.21327559)
(0 0.0015505374 0.17614184)
(0 0.031496747 0.47077048)
(0 0.040527336 0.57338803)
(0 0.036553792 0.56659761)
(0 0.030632669 0.5453775)
(0 0.026667355 0.53370359)
(0 0.023539101 0.52703091)
(0 0.020706824 0.52218666)
(0 0.018179863 0.5184491)
(0 0.015914737 0.51554857)
(0 0.013877013 0.5132829)
(0 0.012035249 0.51150146)
(0 0.010359139 0.51009522)
(0 0.0088224172 0.50898467)
(0 0.0074015458 0.5081111)
(0 0.0060754009 0.50743097)
(0 0.0048249991 0.50691213)
(0 0.0036330914 0.50653111)
(0 0.0024837903 0.50627132)
(0 0.0013622077 0.50612182)
(0 0.00025411255 0.50607648)
(0 -0.00085441943 0.50613356)
(0 -0.0019773726 0.50629566)
(0 -0.0031290629 0.50656979)
(0 -0.0043245415 0.50696795)
(0 -0.0055799291 0.50750799)
(0 -0.0069127821 0.50821492)
(0 -0.0083424994 0.50912297)
(0 -0.0098906604 0.51027845)
(0 -0.011581283 0.51174391)
(0 -0.013442101 0.51360471)
(0 -0.01550319 0.51597832)
(0 -0.017795184 0.51902329)
(0 -0.020365047 0.52295064)
(0 -0.023220028 0.52823716)
(0 -0.026640277 0.53704184)
(0 -0.031549921 0.55365981)
(0 -0.035890241 0.56231575)
(0 -0.030544651 0.47791743)
(0 -0.0035890531 0.1946384)
(0 7.6110686e-05 0.16253513)
(0 0.025867075 0.4526122)
(0 0.037153558 0.56943707)
(0 0.035184725 0.57098793)
(0 0.029871292 0.54996155)
(0 0.026168166 0.53711252)
(0 0.023300731 0.52991059)
(0 0.020682796 0.5247819)
(0 0.018303857 0.52079538)
(0 0.016135517 0.51767079)
(0 0.014156476 0.5152096)
(0 0.012343867 0.51325961)
(0 0.010674605 0.51170961)
(0 0.0091280643 0.51047789)
(0 0.0076849809 0.50950369)
(0 0.0063275371 0.50874163)
(0 0.0050392852 0.50815796)
(0 0.0038049266 0.50772793)
(0 0.0026101035 0.50743395)
(0 0.0014411657 0.50726435)
(0 0.00028493755 0.50721259)
(0 -0.00087152914 0.50727682)
(0 -0.0020412363 0.5074598)
(0 -0.003237414 0.50776902)
(0 -0.0044738291 0.50821726)
(0 -0.0057650032 0.50882341)
(0 -0.007126444 0.50961388)
(0 -0.0085748911 0.51062455)
(0 -0.010128499 0.51190365)
(0 -0.011806764 0.51351593)
(0 -0.01363149 0.51554902)
(0 -0.015625905 0.51812269)
(0 -0.017810649 0.52139513)
(0 -0.020218129 0.52558081)
(0 -0.022861912 0.53128436)
(0 -0.026059575 0.54103253)
(0 -0.030550736 0.55793546)
(0 -0.033409629 0.56020221)
(0 -0.025985427 0.46210291)
(0 -0.0017629673 0.17950474)
(0 -0.00071863905 0.1519196)
(0 0.021104189 0.43545045)
(0 0.033811947 0.56393748)
(0 0.033595744 0.57408822)
(0 0.028967156 0.55409198)
(0 0.025512833 0.54026167)
(0 0.022879566 0.53255033)
(0 0.020472459 0.52718902)
(0 0.018249439 0.52300894)
(0 0.01619108 0.51970412)
(0 0.014286647 0.51708126)
(0 0.012520366 0.51498895)
(0 0.010875332 0.5133153)
(0 0.0093358978 0.51197767)
(0 0.0078867678 0.51091427)
(0 0.0065133299 0.51007874)
(0 0.0052016954 0.50943639)
(0 0.0039386237 0.50896163)
(0 0.0027114437 0.50863622)
(0 0.0015079292 0.50844801)
(0 0.0003161608 0.50839018)
(0 -0.0008756256 0.50846079)
(0 -0.0020792405 0.50866271)
(0 -0.0033066271 0.50900378)
(0 -0.0045700812 0.50949726)
(0 -0.0058823683 0.51016278)
(0 -0.0072568422 0.51102758)
(0 -0.0087075553 0.51212853)
(0 -0.010249337 0.51351495)
(0 -0.011897517 0.51525268)
(0 -0.01366856 0.51743037)
(0 -0.015579636 0.52016816)
(0 -0.017643223 0.52362199)
(0 -0.019880817 0.52801753)
(0 -0.02231855 0.53411246)
(0 -0.025297526 0.54468256)
(0 -0.029307706 0.56120908)
(0 -0.030772229 0.55660312)
(0 -0.021883275 0.44680662)
(0 -0.00056222528 0.16728747)
(0 -0.0010708006 0.14359796)
(0 0.017198936 0.41949946)
(0 0.03065809 0.55734863)
(0 0.031904748 0.57601972)
(0 0.027994307 0.55776117)
(0 0.024774868 0.54317691)
(0 0.022342038 0.53497281)
(0 0.020131432 0.52941389)
(0 0.018062361 0.52508576)
(0 0.016118433 0.52163913)
(0 0.014297015 0.51888539)
(0 0.01258794 0.51667543)
(0 0.010979334 0.51489768)
(0 0.009459746 0.51346944)
(0 0.0080173818 0.51232869)
(0 0.0066405697 0.51142868)
(0 0.0053178561 0.5107343)
(0 0.0040380356 0.51021956)
(0 0.0027901661 0.50986585)
(0 0.001563529 0.50966073)
(0 0.00034756912 0.50959723)
(0 -0.00086817527 0.50967335)
(0 -0.002094204 0.50989203)
(0 -0.0033410667 0.51026129)
(0 -0.0046195059 0.5107947)
(0 -0.0059404903 0.51151225)
(0 -0.0073152481 0.51244162)
(0 -0.0087552687 0.51362013)
(0 -0.010272312 0.51509749)
(0 -0.011878035 0.51693984)
(0 -0.013584331 0.51923594)
(0 -0.015403217 0.52210497)
(0 -0.017340694 0.52569989)
(0 -0.019411388 0.53026778)
(0 -0.021658858 0.53673315)
(0 -0.024427324 0.54797185)
(0 -0.027922509 0.56352464)
(0 -0.028148585 0.55188032)
(0 -0.018312334 0.43229332)
(0 0.00017159123 0.15744061)
(0 -0.0011539334 0.13701885)
(0 0.014073824 0.40483964)
(0 0.027772026 0.55004493)
(0 0.030199765 0.57692997)
(0 0.027005133 0.56097558)
(0 0.02400723 0.54588216)
(0 0.021739998 0.537205)
(0 0.019704884 0.53146963)
(0 0.01778094 0.52702909)
(0 0.015949661 0.52347322)
(0 0.014214035 0.52061556)
(0 0.012568069 0.51831018)
(0 0.011003808 0.51644648)
(0 0.0095131848 0.51494222)
(0 0.0080873729 0.51373566)
(0 0.0067172836 0.51278014)
(0 0.0053936808 0.51204053)
(0 0.0041072791 0.51149072)
(0 0.0028488198 0.51111198)
(0 0.0016090927 0.51089178)
(0 0.00037893622 0.51082305)
(0 -0.00085076722 0.51090376)
(0 -0.0020891646 0.51113689)
(0 -0.0033453849 0.51153053)
(0 -0.0046286193 0.51209836)
(0 -0.0059480887 0.51286048)
(0 -0.0073130173 0.51384468)
(0 -0.0087325557 0.51508829)
(0 -0.010215745 0.51664092)
(0 -0.011771124 0.5185685)
(0 -0.013406847 0.5209592)
(0 -0.015130768 0.52393036)
(0 -0.016944066 0.52763251)
(0 -0.018858389 0.53234523)
(0 -0.020937356 0.53916052)
(0 -0.023506139 0.55089392)
(0 -0.026477589 0.56496481)
(0 -0.02564992 0.54635176)
(0 -0.015284225 0.41871111)
(0 0.00057659989 0.14950143)
(0 -0.0010863674 0.13174255)
(0 0.011618198 0.39146238)
(0 0.025181577 0.54232017)
(0 0.028539586 0.57697331)
(0 0.026033002 0.56375491)
(0 0.023245251 0.54840029)
(0 0.021111939 0.53927534)
(0 0.019228234 0.53337362)
(0 0.017436378 0.52884685)
(0 0.015711799 0.52520848)
(0 0.014060686 0.52226982)
(0 0.012479939 0.5198884)
(0 0.010964516 0.51795497)
(0 0.0095089642 0.51638807)
(0 0.0081068682 0.51512652)
(0 0.0067513267 0.51412407)
(0 0.0054350522 0.51334582)
(0 0.0041505043 0.51276578)
(0 0.0028900001 0.51236529)
(0 0.0016457762 0.51213181)
(0 0.00041003183 0.51205828)
(0 -0.00082502625 0.51214267)
(0 -0.0020672119 0.51238793)
(0 -0.0033242696 0.51280216)
(0 -0.0046039042 0.51339898)
(0 -0.0059137027 0.51419843)
(0 -0.0072610686 0.51522814)
(0 -0.0086530967 0.51652516)
(0 -0.010096511 0.51813867)
(0 -0.011597305 0.52013399)
(0 -0.013160709 0.52259834)
(0 -0.014791406 0.5256467)
(0 -0.016487346 0.52942898)
(0 -0.018260498 0.53426799)
(0 -0.020194639 0.54141116)
(0 -0.022575491 0.55345646)
(0 -0.025033986 0.56563421)
(0 -0.023338892 0.54028343)
(0 -0.012769309 0.40612192)
(0 0.00076190227 0.14307571)
(0 -0.00094454338 0.12742348)
(0 0.0097132846 0.3793017)
(0 0.022883276 0.53439487)
(0 0.026959384 0.57629488)
(0 0.025096629 0.5661264)
(0 0.02251013 0.55075197)
(0 0.020484495 0.5412115)
(0 0.018727906 0.53514546)
(0 0.017053139 0.53055006)
(0 0.015426888 0.52685022)
(0 0.013856312 0.52384943)
(0 0.012340157 0.52140838)
(0 0.010875449 0.51941932)
(0 0.0094586512 0.51780165)
(0 0.0080852352 0.51649493)
(0 0.006750089 0.51545345)
(0 0.0054475839 0.51464272)
(0 0.0041717169 0.51403704)
(0 0.0029162326 0.5136179)
(0 0.0016747098 0.5133729)
(0 0.00044063005 0.513295)
(0 -0.00079254192 0.51338217)
(0 -0.0020313538 0.51363735)
(0 -0.003282247 0.51406852)
(0 -0.0045515514 0.51468921)
(0 -0.0058453756 0.5155192)
(0 -0.0071695221 0.51658581)
(0 -0.0085293376 0.51792562)
(0 -0.0099296434 0.51958718)
(0 -0.01137444 0.52163501)
(0 -0.012866774 0.52415515)
(0 -0.014409053 0.52726017)
(0 -0.015997459 0.53110217)
(0 -0.017646801 0.53605646)
(0 -0.019458841 0.5435026)
(0 -0.02166339 0.55567694)
(0 -0.023633684 0.565643)
(0 -0.021243538 0.53388697)
(0 -0.010715064 0.39452539)
(0 0.00080781213 0.13783016)
(0 -0.00077595218 0.12380062)
(0 0.0082464284 0.36826076)
(0 0.020856837 0.52642861)
(0 0.025477033 0.57502263)
(0 0.024204779 0.56811969)
(0 0.021812986 0.55295416)
(0 0.019874791 0.54303811)
(0 0.018222645 0.5368049)
(0 0.016649655 0.53215117)
(0 0.015112277 0.52840569)
(0 0.013616689 0.52535784)
(0 0.012162678 0.52287066)
(0 0.010748661 0.52083786)
(0 0.0093724303 0.51917968)
(0 0.0080308756 0.51783642)
(0 0.0067203035 0.51676299)
(0 0.0054364574 0.51592538)
(0 0.0041746517 0.51529827)
(0 0.0029298896 0.51486339)
(0 0.0016969597 0.51460848)
(0 0.000470517 0.51452659)
(0 -0.00075481471 0.51461573)
(0 -0.0019844161 0.51487875)
(0 -0.003223539 0.51532352)
(0 -0.0044772773 0.51596335)
(0 -0.0057504404 0.51681772)
(0 -0.0070474629 0.51791352)
(0 -0.0083722515 0.51928676)
(0 -0.0097281208 0.52098529)
(0 -0.011117575 0.52307275)
(0 -0.012542106 0.52563396)
(0 -0.014002608 0.52877936)
(0 -0.015494797 0.53266675)
(0 -0.017038027 0.53773086)
(0 -0.018748157 0.54545129)
(0 -0.020787354 0.55757781)
(0 -0.022303215 0.56509622)
(0 -0.019368937 0.52732451)
(0 -0.0090587145 0.38388113)
(0 0.00077083544 0.13349246)
(0 -0.00060858109 0.12068375)
(0 0.0071184381 0.3582308)
(0 0.019074228 0.51853366)
(0 0.02409838 0.57326563)
(0 0.023359884 0.56976416)
(0 0.021158242 0.55501976)
(0 0.019292881 0.5447756)
(0 0.017725123 0.53837023)
(0 0.01623933 0.53366276)
(0 0.014781198 0.52988299)
(0 0.013354321 0.52679979)
(0 0.011958914 0.52427728)
(0 0.010594268 0.52221053)
(0 0.0092590345 0.52052049)
(0 0.0079511263 0.51914811)
(0 0.0066679396 0.51804891)
(0 0.0054063232 0.51718939)
(0 0.0041626932 0.5165446)
(0 0.0029331358 0.51609657)
(0 0.0017135032 0.51583323)
(0 0.00049949712 0.51574773)
(0 -0.00071321785 0.51583807)
(0 -0.001928975 0.51610706)
(0 -0.003151968 0.51656241)
(0 -0.0043862078 0.51721717)
(0 -0.0056353916 0.51809048)
(0 -0.0069028166 0.51920874)
(0 -0.0081912379 0.52060739)
(0 -0.0095028191 0.52233355)
(0 -0.010838995 0.52445007)
(0 -0.012200218 0.52704056)
(0 -0.013586491 0.53021394)
(0 -0.014994172 0.53413757)
(0 -0.016448141 0.53930966)
(0 -0.018073325 0.54727155)
(0 -0.019957062 0.55918357)
(0 -0.021057009 0.56408877)
(0 -0.017705822 0.5207169)
(0 -0.0077355435 0.37412642)
(0 0.00068938576 0.12984734)
(0 -0.00045735189 0.11793768)
(0 0.0062467296 0.34910242)
(0 0.017505298 0.51078664)
(0 0.022821512 0.57111532)
(0 0.022560549 0.57108785)
(0 0.020546032 0.55695815)
(0 0.018743771 0.54644005)
(0 0.017243423 0.53985758)
(0 0.015831572 0.5350967)
(0 0.014443461 0.53129026)
(0 0.013078864 0.52818054)
(0 0.011737972 0.52563119)
(0 0.01042056 0.52353838)
(0 0.0091257784 0.5218236)
(0 0.0078522444 0.52042833)
(0 0.0065981644 0.51930864)
(0 0.0053612554 0.51843149)
(0 0.0041388341 0.51777231)
(0 0.0029278982 0.51731343)
(0 0.0017252148 0.51704296)
(0 0.00052739838 0.51695417)
(0 -0.00066897377 0.51704505)
(0 -0.0018673164 0.51731836)
(0 -0.003070904 0.51778163)
(0 -0.0042828207 0.51844765)
(0 -0.0055058339 0.51933521)
(0 -0.0067423196 0.52047022)
(0 -0.0079941394 0.52188757)
(0 -0.0092626127 0.52363372)
(0 -0.010548456 0.52577081)
(0 -0.011851491 0.5283814)
(0 -0.013171317 0.53157377)
(0 -0.014505839 0.53552864)
(0 -0.015885811 0.54080881)
(0 -0.017439619 0.54897547)
(0 -0.019176478 0.56051897)
(0 -0.019900486 0.56270353)
(0 -0.016236892 0.51415186)
(0 -0.0066843358 0.36518793)
(0 0.00058864363 0.12672837)
(0 -0.00032873095 0.11546819)
(0 0.0055655642 0.34077188)
(0 0.016121087 0.50323781)
(0 0.02164012 0.56864757)
(0 0.021803352 0.57211689)
(0 0.019973912 0.55877597)
(0 0.018228984 0.54804364)
(0 0.016782242 0.54128067)
(0 0.015432697 0.53646374)
(0 0.014106117 0.53263521)
(0 0.012797597 0.52950546)
(0 0.011506963 0.52693579)
(0 0.010234188 0.52482313)
(0 0.0089786615 0.52308935)
(0 0.0077394555 0.52167634)
(0 0.006515357 0.52054057)
(0 0.0053047475 0.51964942)
(0 0.0041056643 0.51897868)
(0 0.0029158569 0.51851092)
(0 0.0017328628 0.51823446)
(0 0.0005540761 0.51814265)
(0 -0.00062314213 0.51823352)
(0 -0.0018014185 0.51850972)
(0 -0.0029832459 0.51897864)
(0 -0.0041709329 0.51965281)
(0 -0.0053664876 0.52055066)
(0 -0.006571559 0.52169768)
(0 -0.0077873387 0.52312824)
(0 -0.0090145556 0.52488826)
(0 -0.010253488 0.52703931)
(0 -0.011503636 0.5296631)
(0 -0.012764571 0.53286829)
(0 -0.014036426 0.53685264)
(0 -0.015355667 0.54224165)
(0 -0.016848445 0.55057295)
(0 -0.018445651 0.56160783)
(0 -0.018832887 0.56101119)
(0 -0.014941286 0.50769106)
(0 -0.0058504901 0.35698922)
(0 0.00048435656 0.12400892)
(0 -0.00022405066 0.1132109)
(0 0.0050244568 0.33314434)
(0 0.01489548 0.49591822)
(0 0.020545924 0.56592496)
(0 0.021084107 0.57287525)
(0 0.019438095 0.56047765)
(0 0.017747788 0.54959512)
(0 0.016343863 0.54265081)
(0 0.015046686 0.53777332)
(0 0.013774047 0.53392493)
(0 0.012515857 0.53077973)
(0 0.011271312 0.52819462)
(0 0.010040379 0.52606691)
(0 0.0088225074 0.5243187)
(0 0.0076170387 0.52289209)
(0 0.0064231565 0.52174387)
(0 0.0052397374 0.52084175)
(0 0.0040653825 0.5201618)
(0 0.0028984489 0.51968685)
(0 0.0017371113 0.51940536)
(0 0.0005794148 0.5193108)
(0 -0.00057661813 0.51940117)
(0 -0.0017329516 0.51967908)
(0 -0.0028914293 0.52015174)
(0 -0.0040537231 0.52083146)
(0 -0.0052212359 0.52173635)
(0 -0.0063950588 0.52289153)
(0 -0.0075758999 0.52433093)
(0 -0.0087641014 0.52610005)
(0 -0.0099597154 0.52826003)
(0 -0.011162149 0.53089201)
(0 -0.012371224 0.53410623)
(0 -0.013589768 0.53812063)
(0 -0.014859403 0.54361884)
(0 -0.016298645 0.55207189)
(0 -0.017762185 0.56247228)
(0 -0.017849646 0.55907094)
(0 -0.013797468 0.50137628)
(0 -0.005187336 0.34945538)
(0 0.00038573398 0.12159427)
(0 -0.00014178231 0.11112248)
(0 0.004585748 0.32613533)
(0 0.013805775 0.48884536)
(0 0.019530216 0.56299917)
(0 0.020398634 0.57338481)
(0 0.018934309 0.56206607)
(0 0.017298135 0.55110041)
(0 0.015928933 0.54397713)
(0 0.014675816 0.53903358)
(0 0.013450471 0.53516576)
(0 0.012237436 0.53200816)
(0 0.011035057 0.52941117)
(0 0.0098431527 0.52727204)
(0 0.0086611188 0.52551293)
(0 0.0074884327 0.52407601)
(0 0.0063245324 0.52291827)
(0 0.0051686515 0.52200765)
(0 0.0040198225 0.52132045)
(0 0.0028768837 0.5208397)
(0 0.001738526 0.52055401)
(0 0.00060333086 0.5204569)
(0 -0.00053013626 0.52054641)
(0 -0.0016632935 0.52082504)
(0 -0.0027974526 0.52129989)
(0 -0.0039337764 0.52198306)
(0 -0.0050731969 0.52289238)
(0 -0.0062163901 0.52405266)
(0 -0.0073637325 0.52549749)
(0 -0.0085153364 0.52727211)
(0 -0.0096711805 0.52943734)
(0 -0.010830746 0.53207407)
(0 -0.011994302 0.53529537)
(0 -0.013167638 0.53934198)
(0 -0.014396689 0.54494863)
(0 -0.0157875 0.55347834)
(0 -0.017122341 0.5631324)
(0 -0.016944132 0.55693191)
(0 -0.012784965 0.4952345)
(0 -0.0046563256 0.34251598)
(0 0.00029760809 0.11941471)
(0 -7.9015742e-05 0.10917394)
(0 0.0042220178 0.31967091)
(0 0.012832667 0.48202733)
(0 0.018584738 0.55991308)
(0 0.019743174 0.57366557)
(0 0.018458321 0.5635431)
(0 0.01687731 0.55256314)
(0 0.015537048 0.54526675)
(0 0.01432116 0.5402514)
(0 0.013137377 0.53636321)
(0 0.011964927 0.53319508)
(0 0.010801119 0.53058873)
(0 0.0096455289 0.52844087)
(0 0.0084974326 0.52667356)
(0 0.0073563489 0.5252289)
(0 0.0062218637 0.52406395)
(0 0.0050934589 0.52314681)
(0 0.0039704886 0.52245395)
(0 0.0028521642 0.52196856)
(0 0.0017375862 0.52167934)
(0 0.00062576887 0.52157988)
(0 -0.00048428399 0.52166822)
(0 -0.0015935497 0.5219468)
(0 -0.0027029145 0.5224226)
(0 -0.0038131429 0.52310754)
(0 -0.0049248102 0.52401924)
(0 -0.006038295 0.52518226)
(0 -0.0071537614 0.52662997)
(0 -0.0082712095 0.52840743)
(0 -0.0093906488 0.53057533)
(0 -0.010511747 0.53321461)
(0 -0.011635369 0.53644249)
(0 -0.012770354 0.54052436)
(0 -0.013965902 0.54623709)
(0 -0.015311467 0.5547969)
(0 -0.016521805 0.56360621)
(0 -0.016108857 0.55463464)
(0 -0.011885252 0.48928191)
(0 -0.0042265196 0.33610656)
(0 0.00022196391 0.11741971)
(0 -3.2383417e-05 0.10734573)
(0 0.0039136933 0.31368712)
(0 0.011959943 0.47546583)
(0 0.017702104 0.55670248)
(0 0.019114548 0.57373599)
(0 0.018006235 0.56491002)
(0 0.016482368 0.55398525)
(0 0.015167168 0.54652509)
(0 0.013982973 0.54143248)
(0 0.012835857 0.53752204)
(0 0.011700009 0.53434435)
(0 0.010571545 0.53173037)
(0 0.0094497205 0.5295757)
(0 0.0083336678 0.52780218)
(0 0.0072228828 0.52635173)
(0 0.0061170218 0.52518138)
(0 0.0050157305 0.52425929)
(0 0.0039185952 0.52356205)
(0 0.00282511 0.52307293)
(0 0.0017346939 0.52278075)
(0 0.00064670215 0.52267911)
(0 -0.00043951378 0.52276606)
(0 -0.0015245828 0.52304399)
(0 -0.0026090593 0.52351978)
(0 -0.0036934036 0.5242052)
(0 -0.0047779292 0.52511772)
(0 -0.0058628115 0.52628172)
(0 -0.0069480936 0.52773044)
(0 -0.0080337479 0.52950886)
(0 -0.0091198812 0.53167771)
(0 -0.010206422 0.53431832)
(0 -0.011294935 0.53755334)
(0 -0.012397253 0.54167395)
(0 -0.01356466 0.54748848)
(0 -0.014866687 0.55603098)
(0 -0.015956198 0.56390986)
(0 -0.015336285 0.55221258)
(0 -0.011082107 0.48352699)
(0 -0.0038736769 0.33016931)
(0 0.00015900695 0.11557305)
(0 1.3980989e-06 0.10562427)
(0 0.0036470083 0.30812897)
(0 0.011174061 0.46915833)
(0 0.016875931 0.55339747)
(0 0.018510174 0.57361318)
(0 0.01757463 0.56616794)
(0 0.016110399 0.55536742)
(0 0.014817906 0.54775618)
(0 0.013660974 0.54258153)
(0 0.012546373 0.53864635)
(0 0.011443688 0.53545934)
(0 0.010347698 0.53283883)
(0 0.0092572966 0.5306787)
(0 0.0081714587 0.52890042)
(0 0.007089619 0.52744564)
(0 0.0060114499 0.52627126)
(0 0.0049366966 0.52534543)
(0 0.0038651068 0.52464481)
(0 0.0027963826 0.52415272)
(0 0.0017301843 0.52385802)
(0 0.00066613021 0.52375436)
(0 -0.00039615896 0.52383976)
(0 -0.0014570433 0.52411659)
(0 -0.0025168249 0.52459164)
(0 -0.0035757381 0.52527659)
(0 -0.0046339123 0.52618877)
(0 -0.0056913936 0.52735248)
(0 -0.0067481718 0.52880089)
(0 -0.0078042496 0.53057905)
(0 -0.0088598684 0.5327478)
(0 -0.0099152634 0.53538928)
(0 -0.010972776 0.53863274)
(0 -0.012047055 0.54279553)
(0 -0.013190215 0.54870561)
(0 -0.014449323 0.55718315)
(0 -0.015421393 0.56405781)
(0 -0.014619314 0.5496934)
(0 -0.010361625 0.47797285)
(0 -0.0035791846 0.32465311)
(0 0.00010790685 0.11384892)
(0 2.5250014e-05 0.1039997)
(0 0.0034123638 0.30294936)
(0 0.01046371 0.46309952)
(0 0.016100801 0.55002351)
(0 0.01792801 0.57331315)
(0 0.017160597 0.56731801)
(0 0.015758671 0.55670949)
(0 0.014487719 0.5489629)
(0 0.013354547 0.54370239)
(0 0.012268955 0.53973958)
(0 0.011196473 0.536543)
(0 0.010130432 0.53391659)
(0 0.0090693235 0.53175188)
(0 0.0080119711 0.52996985)
(0 0.006957725 0.52851179)
(0 0.0059062366 0.52733441)
(0 0.0048573026 0.52640578)
(0 0.0038107767 0.52570254)
(0 0.0027665086 0.52520806)
(0 0.0017243362 0.52491121)
(0 0.00068407515 0.52480566)
(0 -0.00035445099 0.52488943)
(0 -0.0013914004 0.52516484)
(0 -0.0024268891 0.52563863)
(0 -0.0034609899 0.52632241)
(0 -0.0044937098 0.52723345)
(0 -0.0055250218 0.52839599)
(0 -0.0065549112 0.52984324)
(0 -0.0075834483 0.53162039)
(0 -0.0086110268 0.53378852)
(0 -0.0096382144 0.53643093)
(0 -0.010668179 0.53968464)
(0 -0.011718124 0.54389277)
(0 -0.012839712 0.54989013)
(0 -0.014055765 0.55825541)
(0 -0.01491368 0.56406312)
(0 -0.013951537 0.54710009)
(0 -0.0097120501 0.47261888)
(0 -0.0033289908 0.31951313)
(0 6.7303955e-05 0.11222895)
(0 4.1623008e-05 0.10246434)
(0 0.0032030733 0.29810798)
(0 0.00981941 0.45728237)
(0 0.015372141 0.54660224)
(0 0.017366456 0.57285093)
(0 0.016761724 0.56836161)
(0 0.015424711 0.55801074)
(0 0.014175024 0.55014724)
(0 0.013062879 0.5447982)
(0 0.012003341 0.5408047)
(0 0.010958519 0.53759787)