/*--------------------------------*- C++ -*----------------------------------*\
  =========                 |
  \\      /  F ield         | OpenFOAM: The Open Source CFD Toolbox
   \\    /   O peration     | Website:  https://openfoam.org
    \\  /    A nd           | Version:  10
     \\/     M anipulation  |
\*---------------------------------------------------------------------------*/
FoamFile
{
    format      ascii;
    class       surfaceScalarField;
    location    "0.06";
    object      phi;
}
// * * * * * * * * * * * * * * * * * * * * * * * * * * * * * * * * * * * * * //

dimensions      [1 0 -1 0 0 0 0];

internalField   nonuniform List<scalar> 
7860
(
3.9851251e-08
5.2885693e-07
1.2159377e-08
5.9639954e-07
7.3943279e-09
5.734728e-07
5.4616605e-09
5.7064038e-07
4.0764381e-09
5.700929e-07
3.1630801e-09
5.6962101e-07
2.5221891e-09
5.6934853e-07
2.0440252e-09
5.6918579e-07
1.6761591e-09
5.6907548e-07
1.3859701e-09
5.6899779e-07
1.1515952e-09
5.6894197e-07
9.5821887e-10
5.6890096e-07
7.95455e-10
5.6887035e-07
6.5577935e-10
5.6884725e-07
5.3359161e-10
5.6882976e-07
4.2460973e-10
5.6881655e-07
3.2546299e-10
5.6880672e-07
2.3341071e-10
5.6879962e-07
1.4613889e-10
5.6879484e-07
6.1606669e-11
5.687921e-07
-2.2077277e-11
5.6879125e-07
-1.0676252e-10
5.6879225e-07
-1.9436683e-10
5.6879517e-07
-2.8698039e-10
5.6880018e-07
-3.8700012e-10
5.6880759e-07
-4.9729465e-10
5.6881786e-07
-6.2142692e-10
5.6883171e-07
-7.6396923e-10
5.6885012e-07
-9.3096704e-10
5.6887458e-07
-1.1306494e-09
5.6890727e-07
-1.3746061e-09
5.6895155e-07
-1.6797676e-09
5.6901276e-07
-2.0712829e-09
5.6909912e-07
-2.5892377e-09
5.6922558e-07
-3.3162196e-09
5.6943462e-07
-4.4086965e-09
5.6980013e-07
-5.9598515e-09
5.7025883e-07
-9.4619935e-09
5.7220985e-07
-2.9517091e-08
5.8876285e-07
5.3919083e-07
5.9565936e-08
4.6929192e-07
3.6542842e-08
6.1942227e-07
2.251248e-08
5.8750303e-07
1.6133272e-08
5.7701959e-07
1.2168687e-08
5.7405749e-07
9.4860108e-09
5.7230369e-07
7.5609177e-09
5.7127362e-07
6.1250049e-09
5.706217e-07
5.0222989e-09
5.7017819e-07
4.1524539e-09
5.6986764e-07
3.4499332e-09
5.6964449e-07
2.8704051e-09
5.6948049e-07
2.3826936e-09
5.6935806e-07
1.9642201e-09
5.6926573e-07
1.5981884e-09
5.691958e-07
1.2717572e-09
5.6914299e-07
9.7481946e-10
5.6910365e-07
6.9915793e-10
5.6907528e-07
4.3783618e-10
5.6905616e-07
1.847371e-10
5.690452e-07
-6.5809106e-11
5.690418e-07
-3.1934953e-10
5.6904579e-07
-5.8162399e-10
5.6905745e-07
-8.5890005e-10
5.6907746e-07
-1.1583637e-09
5.6910705e-07
-1.4886157e-09
5.6914812e-07
-1.8603392e-09
5.6920343e-07
-2.2872465e-09
5.6927703e-07
-2.7874761e-09
5.6937481e-07
-3.3857277e-09
5.6950552e-07
-4.1166944e-09
5.6968252e-07
-5.031101e-09
5.6992717e-07
-6.2060676e-09
5.7027409e-07
-7.761013e-09
5.7078052e-07
-9.8999509e-09
5.7157356e-07
-1.3030502e-08
5.7293068e-07
-1.7969066e-08
5.751974e-07
-2.8009798e-08
5.8225059e-07
-4.5654993e-08
6.0640805e-07
4.9353584e-07
5.9844785e-08
4.0944946e-07
5.0256347e-08
6.2901059e-07
3.3155885e-08
6.0460301e-07
2.46033e-08
5.8557214e-07
1.9107607e-08
5.7955319e-07
1.5119453e-08
5.7629185e-07
1.2155883e-08
5.7423719e-07
9.9067548e-09
5.7287083e-07
8.1580973e-09
5.7192684e-07
6.7663594e-09
5.7125938e-07
5.6351253e-09
5.7077573e-07
4.6973563e-09
5.7041826e-07
3.9050708e-09
5.7015035e-07
3.2231129e-09
5.6994769e-07
2.6250858e-09
5.6979382e-07
2.0906551e-09
5.6967742e-07
1.6037177e-09
5.6959059e-07
1.1511158e-09
5.6952789e-07
7.216979e-10
5.6948558e-07
3.0560072e-10
5.694613e-07
-1.0633342e-10
5.6945373e-07
-5.2306713e-10
5.6946253e-07
-9.5386641e-10
5.6948825e-07
-1.4088276e-09
5.6953242e-07
-1.8994867e-09
5.6959771e-07
-2.4395878e-09
5.6968822e-07
-3.0461046e-09
5.6980995e-07
-3.7406644e-09
5.6997159e-07
-4.5516134e-09
5.7018576e-07
-5.5171013e-09
5.7047101e-07
-6.6897666e-09
5.7085518e-07
-8.1444018e-09
5.7138181e-07
-9.9911977e-09
5.7212089e-07
-1.2393144e-08
5.7318247e-07
-1.558486e-08
5.7476527e-07
-1.9930504e-08
5.7727633e-07
-2.6404411e-08
5.8167131e-07
-3.8632995e-08
5.9447917e-07
-4.7925046e-08
6.157001e-07
4.456108e-07
5.4664386e-08
3.5478951e-07
5.7095813e-08
6.2658019e-07
4.0128939e-08
6.2156893e-07
3.0453987e-08
5.9524689e-07
2.4319972e-08
5.8568723e-07
1.9635973e-08
5.8097585e-07
1.6008607e-08
5.7786456e-07
1.3178001e-08
5.7570144e-07
1.0931226e-08
5.7417362e-07
9.1160109e-09
5.7307459e-07
7.6240034e-09
5.7226774e-07
6.376338e-09
5.7166593e-07
5.3148724e-09
5.7121181e-07
4.3960632e-09
5.708665e-07
3.5866392e-09
5.7060325e-07
2.860611e-09
5.7040345e-07
2.1971644e-09
5.7025404e-07
1.5791357e-09
5.7014592e-07
9.9187148e-10
5.7007285e-07
4.2234296e-10
5.7003083e-07
-1.4158506e-10
5.7001766e-07
-7.118007e-10
5.7003274e-07
-1.3005735e-09
5.7007702e-07
-1.9212177e-09
5.7015307e-07
-2.5888532e-09
5.7026535e-07
-3.3213445e-09
5.7042071e-07
-4.1405228e-09
5.7062913e-07
-5.0738367e-09
5.709049e-07
-6.1566544e-09
5.7126858e-07
-7.4355522e-09
5.7174991e-07
-8.9729197e-09
5.7239255e-07
-1.0853383e-08
5.7326227e-07
-1.3194252e-08
5.7446176e-07
-1.6158352e-08
5.7614657e-07
-1.994578e-08
5.785527e-07
-2.4825076e-08
5.8215563e-07
-3.2041284e-08
5.8888752e-07
-4.4604735e-08
6.0704262e-07
-4.620844e-08
6.1730381e-07
3.9940236e-07
4.770857e-08
3.070882e-07
5.9583483e-08
6.1470872e-07
4.4908527e-08
6.3624261e-07
3.4418285e-08
6.0573655e-07
2.7952648e-08
5.9215286e-07
2.2984106e-08
5.8594441e-07
1.9017124e-08
5.8183155e-07
1.5835066e-08
5.788835e-07
1.3252314e-08
5.7675637e-07
1.1128762e-08
5.7519815e-07
9.3587012e-09
5.740378e-07
7.8616213e-09
5.7316301e-07
6.576135e-09
5.724973e-07
5.4549507e-09
5.7198768e-07
4.4610844e-09
5.7159712e-07
3.5650996e-09
5.7129943e-07
2.7430547e-09
5.7107609e-07
1.9749541e-09
5.7091402e-07
1.2435543e-09
5.7080425e-07
5.334098e-10
5.7074097e-07
-1.6992846e-10
5.70721e-07
-8.8063216e-10
5.7074345e-07
-1.6132945e-09
5.7080968e-07
-2.3836646e-09
5.7092344e-07
-3.2094753e-09
5.7109116e-07
-4.1114423e-09
5.7132268e-07
-5.114522e-09
5.7163221e-07
-6.2495444e-09
5.7203993e-07
-7.5553665e-09
5.725744e-07
-9.0817813e-09
5.7327633e-07
-1.089334e-08
5.7420411e-07
-1.307383e-08
5.7544276e-07
-1.5732805e-08
5.7712074e-07
-1.90157e-08
5.7942947e-07
-2.3095872e-08
5.8263288e-07
-2.8274862e-08
5.8733462e-07
-3.6101762e-08
5.9671442e-07
-4.7756672e-08
6.1869753e-07
-4.2753372e-08
6.1230051e-07
3.5664899e-07
4.0040949e-08
2.6705806e-07
5.8357724e-08
5.9639934e-07
4.7656312e-08
6.4694293e-07
3.6971965e-08
6.1641968e-07
3.0337687e-08
5.9878704e-07
2.53221e-08
5.9096004e-07
2.1234675e-08
5.8591898e-07
1.7878943e-08
5.8223923e-07
1.5100724e-08
5.7953459e-07
1.2777123e-08
5.7752175e-07
1.0811516e-08
5.7600341e-07
9.1280673e-09
5.7484646e-07
7.667218e-09
5.7395815e-07
6.381752e-09
5.7327315e-07
5.2338187e-09
5.7274505e-07
4.1926496e-09
5.723406e-07
3.2327643e-09
5.7203598e-07
2.332558e-09
5.7181423e-07
1.473173e-09
5.7166363e-07
6.3756672e-10
5.7157658e-07
-1.9028851e-10
5.7154886e-07
-1.0261335e-09
5.715793e-07
-1.8861346e-09
5.7166969e-07
-2.7876257e-09
5.7182493e-07
-3.7499282e-09
5.7205347e-07
-4.7953149e-09
5.7236807e-07
-5.9501833e-09
5.7278708e-07
-7.2465173e-09
5.7333626e-07
-8.7237184e-09
5.7405161e-07
-1.0430953e-08
5.7498356e-07
-1.2430237e-08
5.762034e-07
-1.4799928e-08
5.7781245e-07
-1.7638851e-08
5.7995966e-07
-2.1073416e-08
5.8286403e-07
-2.5262763e-08
5.8682223e-07
-3.0608167e-08
5.9268002e-07
-3.870741e-08
6.0481366e-07
-4.8229386e-08
6.2821951e-07
-3.803706e-08
6.0210818e-07
3.1861193e-07
3.2532934e-08
2.3454023e-07
5.4464617e-08
5.7448074e-07
4.8347815e-08
6.5305976e-07
3.8255232e-08
6.2651022e-07
3.1672031e-08
6.0536989e-07
2.6790854e-08
5.9584127e-07
2.2747827e-08
5.8996202e-07
1.9355545e-08
5.8563151e-07
1.6495429e-08
5.8239471e-07
1.4064202e-08
5.7995298e-07
1.1977306e-08
5.780903e-07
1.0166895e-08
5.7665688e-07
8.5782801e-09
5.7554677e-07
7.166947e-09
5.7468449e-07
5.8963496e-09
5.7401565e-07
4.7361321e-09
5.7350082e-07
3.6606693e-09
5.7311144e-07
2.6478747e-09
5.7282702e-07
1.6782111e-09
5.726333e-07
7.338475e-10
5.7252095e-07
-2.0208413e-10
5.7248479e-07
-1.1461748e-09
5.7252339e-07
-2.115415e-09
5.7263893e-07
-3.1278926e-09
5.7283741e-07
-4.2035502e-09
5.7312913e-07
-5.3650517e-09
5.7352957e-07
-6.6388038e-09
5.7406083e-07
-8.0561883e-09
5.7475365e-07
-9.65505e-09
5.7565047e-07
-1.1481519e-08
5.7681003e-07
-1.3592458e-08
5.7831434e-07
-1.6058433e-08
5.8027843e-07
-1.8965874e-08
5.828671e-07
-2.2418273e-08
5.8631643e-07
-2.6559529e-08
5.9096348e-07
-3.1889556e-08
5.9801005e-07
-3.9760963e-08
6.1268507e-07
-4.6486841e-08
6.3494539e-07
-3.2734849e-08
5.8835619e-07
2.8587708e-07
2.5826484e-08
2.0873408e-07
4.9191615e-08
5.5113635e-07
4.7370105e-08
6.5488371e-07
3.8459483e-08
6.3541792e-07
3.2123981e-08
6.1170457e-07
2.7505967e-08
6.0045932e-07
2.3637175e-08
5.9383085e-07
2.0319829e-08
5.8894886e-07
1.7470635e-08
5.8524391e-07
1.5009025e-08
5.8241459e-07
1.2865024e-08
5.8023431e-07
1.0980832e-08
5.7854107e-07
9.3084831e-09
5.7721912e-07
7.8078844e-09
5.7618509e-07
6.4453245e-09
5.7537821e-07
5.192178e-09
5.7475397e-07
4.023796e-09
5.7427982e-07
2.9185665e-09
5.7393225e-07
1.8571014e-09
5.7369477e-07
8.2152117e-10
5.7355653e-07
-2.0519391e-10
5.7351151e-07
-1.2398111e-09
5.7355801e-07
-2.2994488e-09
5.7369857e-07
-3.402194e-09
5.7394016e-07
-4.5677615e-09
5.7429469e-07
-5.8182291e-09
5.7478004e-07
-7.178876e-09
5.7542148e-07
-8.6791644e-09
5.7625394e-07
-1.035389e-08
5.773252e-07
-1.2244506e-08
5.7870065e-07
-1.4400831e-08
5.8047067e-07
-1.6883266e-08
5.8276087e-07
-1.9763011e-08
5.8574685e-07
-2.3118399e-08
5.8967182e-07
-2.7084736e-08
5.9492982e-07
-3.2236588e-08
6.031619e-07
-3.9465357e-08
6.1991384e-07
-4.3317522e-08
6.3879756e-07
-2.746396e-08
5.7250263e-07
2.5841312e-07
2.0176245e-08
1.8858471e-07
4.3478022e-08
5.2786522e-07
4.5251579e-08
6.531167e-07
3.7857696e-08
6.4280813e-07
3.1903802e-08
6.1765691e-07
2.7608439e-08
6.0475465e-07
2.3996295e-08
5.9744305e-07
2.0836043e-08
5.9210912e-07
1.8070036e-08
5.8800991e-07
1.5640528e-08
5.848441e-07
1.3493128e-08
5.8238171e-07
1.1581048e-08
5.8045315e-07
9.8640934e-09
5.7893607e-07
8.3076647e-09
5.7774152e-07
6.8819005e-09
5.7680398e-07
5.5608373e-09
5.7607504e-07
4.3216464e-09
5.7551902e-07
3.1439488e-09
5.7510995e-07
2.0091933e-09
5.7482952e-07
9.0008624e-10
5.7466564e-07
-1.9994028e-10
5.7461154e-07
-1.307235e-09
5.746653e-07
-2.438435e-09
5.7482977e-07
-3.6109803e-09
5.751127e-07
-4.8436541e-09
5.7552737e-07
-6.1571691e-09
5.7609356e-07
-7.5748111e-09
5.7683913e-07
-9.1231601e-09
5.7780229e-07
-1.0832904e-08
5.7903494e-07
-1.2739693e-08
5.8060744e-07
-1.4885119e-08
5.8261609e-07
-1.731804e-08
5.8519379e-07
-2.0093442e-08
5.8852225e-07
-2.3268607e-08
5.9284699e-07
-2.6984573e-08
5.9864579e-07
-3.1846329e-08
6.0802366e-07
-3.8154211e-08
6.2622172e-07
-3.9379973e-08
6.4002332e-07
-2.2577128e-08
5.5569979e-07
2.35836e-07
1.5588052e-08
1.73032e-07
3.7863778e-08
5.0563269e-07
4.2429146e-08
6.4856406e-07
3.6688455e-08
6.4854478e-07
3.121138e-08
6.2313142e-07
2.7251401e-08
6.0871441e-07
2.3932501e-08
6.0076204e-07
2.0979245e-08
5.950624e-07
1.8346331e-08
5.9064283e-07
1.5995649e-08
5.8719478e-07
1.3887296e-08
5.8449006e-07
1.1985138e-08
5.8235531e-07
1.0256943e-08
5.8066427e-07
8.6740578e-09
5.793244e-07
7.2110222e-09
5.7826702e-07
5.8451176e-09
5.7744094e-07
4.5559152e-09
5.7680822e-07
3.3248276e-09
5.7634104e-07
2.134673e-09
5.7601968e-07
9.6925428e-10
5.7583106e-07
-1.8704765e-10
5.7576784e-07
-1.3496694e-09
5.7582793e-07
-2.5342646e-09
5.7601437e-07
-3.7571056e-09
5.7633555e-07
-5.0354954e-09
5.7680576e-07
-6.3882014e-09
5.7744627e-07
-7.8359071e-09
5.7828683e-07
-9.4016865e-09
5.7936807e-07
-1.1111509e-08
5.8074477e-07
-1.2994725e-08
5.8249066e-07
-1.5084501e-08
5.8470587e-07
-1.7418388e-08
5.8752768e-07
-2.0036468e-08
5.9114034e-07
-2.2981958e-08
5.9579248e-07
-2.6411314e-08
6.0207515e-07
-3.090085e-08
6.125132e-07
-3.612267e-08
6.3144355e-07
-3.5115814e-08
6.3901647e-07
-1.8241623e-08
5.388256e-07
2.1759438e-07
1.1962114e-08
1.611173e-07
3.2644825e-08
4.8500907e-07
3.9229635e-08
6.4200068e-07
3.5126888e-08
6.5264376e-07
3.0196833e-08
6.2805764e-07
2.6566737e-08
6.1234397e-07
2.3547804e-08
6.0378109e-07
2.0825695e-08
5.9778454e-07
1.8356034e-08
5.9311249e-07
1.6115946e-08
5.8943487e-07
1.4077864e-08
5.8652815e-07
1.2215088e-08
5.8421809e-07
1.0502832e-08
5.8237653e-07
8.9182886e-09
5.8090895e-07
7.4405319e-09
5.7974477e-07
6.0503564e-09
5.7883112e-07
4.7300681e-09
5.7812851e-07
3.4632377e-09
5.7760787e-07
2.2344309e-09
5.7724849e-07
1.0289282e-09
5.7703656e-07
-1.6755905e-10
5.7696433e-07
-1.3691724e-09
5.7702954e-07
-2.5901966e-09
5.7723539e-07
-3.8453461e-09
5.775907e-07
-5.1500527e-09
5.7811047e-07
-6.5207527e-09
5.7881697e-07
-7.9751673e-09
5.7974125e-07
-9.5325675e-09
5.8092547e-07
-1.121403e-08
5.8242623e-07
-1.3042666e-08
5.843193e-07
-1.5043737e-08
5.8670694e-07
-1.7244587e-08
5.8972853e-07
-1.9672555e-08
5.9356831e-07
-2.236305e-08
5.9848298e-07
-2.5488947e-08
6.0520104e-07
-2.9541551e-08
6.165658e-07
-3.3612579e-08
6.3551458e-07
-3.0824013e-08
6.362279e-07
-1.4516287e-08
5.2251787e-07
2.0307809e-07
9.1594102e-09
1.5202497e-07
2.7970132e-08
4.6627799e-07
3.5896547e-08
6.3410746e-07
3.3308151e-08
6.5522966e-07
2.8967691e-08
6.3239278e-07
2.5656237e-08
6.1565436e-07
2.292752e-08
6.0650991e-07
2.0443638e-08
6.0026849e-07
1.8152895e-08
5.9540324e-07
1.6043071e-08
5.915447e-07
1.4096684e-08
5.8847454e-07
1.2295013e-08
5.8601976e-07
1.061985e-08
5.8405169e-07
9.0537766e-09
5.8247502e-07
7.5802319e-09
5.8121832e-07
6.1835377e-09
5.8022782e-07
4.8488631e-09
5.7946319e-07
3.5621326e-09
5.7889461e-07
2.3098938e-09
5.7850073e-07
1.0791619e-09
5.7826729e-07
-1.427536e-10
5.7818625e-07
-1.3684273e-09
5.7825522e-07
-2.6105041e-09
5.7847747e-07
-3.8818786e-09
5.7886207e-07
-5.1958671e-09
5.7942446e-07
-6.5663662e-09
5.8018747e-07
-8.0079888e-09
5.8118287e-07
-9.5361652e-09
5.8245365e-07
-1.1167213e-08
5.8405728e-07
-1.2918392e-08
5.8607048e-07
-1.4807822e-08
5.8859638e-07
-1.6853931e-08
5.9177464e-07
-1.907366e-08
5.9578804e-07
-2.1499496e-08
6.0090882e-07
-2.4315416e-08
6.0801697e-07
-2.7886391e-08
6.2013678e-07
-3.0827648e-08
6.3845583e-07
-2.6706726e-08
6.3210698e-07
-1.1393374e-08
5.0720452e-07
1.9168472e-07
7.0306166e-09
1.4509343e-07
2.3884324e-08
4.4953126e-07
3.2597714e-08
6.2544276e-07
3.133942e-08
6.56488e-07
2.760391e-08
6.3612132e-07
2.4597794e-08
6.1865866e-07
2.2140568e-08
6.089672e-07
1.989087e-08
6.0251828e-07
1.7784592e-08
5.9750953e-07
1.5815683e-08
5.9351361e-07
1.3974584e-08
5.9031564e-07
1.2249163e-08
5.8774518e-07
1.0626829e-08
5.8567403e-07
9.0949418e-09
5.8400691e-07
7.6409653e-09
5.826723e-07
6.2525939e-09
5.8161619e-07
4.9178327e-09
5.8079795e-07
3.6250174e-09
5.8018742e-07
2.3627904e-09
5.7976296e-07
1.1200467e-09
5.7951004e-07
-1.1414228e-10
5.7942044e-07
-1.350615e-09
5.7949169e-07
-2.6002122e-09
5.7972707e-07
-3.8738604e-09
5.8013572e-07
-5.1826441e-09
5.8073325e-07
-6.5378547e-09
5.8154268e-07
-7.9510108e-09
5.8259603e-07
-9.4338354e-09
5.8393648e-07
-1.0998191e-08
5.8562164e-07
-1.2656012e-08
5.877283e-07
-1.4419101e-08
5.9035947e-07
-1.6298274e-08
5.9365382e-07
-1.8302565e-08
5.9779233e-07
-2.0465083e-08
6.0307134e-07
-2.2971824e-08
6.1052371e-07
-2.6037876e-08
6.2320283e-07
-2.7929978e-08
6.4034794e-07
-2.2883579e-08
6.2706058e-07
-8.8224661e-09
4.9314341e-07
1.8286225e-07
5.4336452e-09
1.3980425e-07
2.0362988e-08
4.3474574e-07
2.9432256e-08
6.1644234e-07
2.9299204e-08
6.5662529e-07
2.6163552e-08
6.3924831e-07
2.3450262e-08
6.2136911e-07
2.1242186e-08
6.1117522e-07
1.9215621e-08
6.0454497e-07
1.729228e-08
5.9943289e-07
1.5468283e-08
5.953376e-07
1.3739994e-08
5.9204393e-07
1.2100591e-08
5.8938459e-07
1.0542166e-08
5.8723245e-07
9.0562158e-09
5.8549286e-07
7.6338063e-09
5.8409471e-07
6.2657541e-09
5.8298424e-07
4.9427702e-09
5.8212093e-07
3.6555578e-09
5.8147464e-07
2.3948693e-09
5.8102365e-07
1.1515324e-09
5.8075338e-07
-8.3546064e-11
5.8065552e-07
-1.3193882e-09
5.8072753e-07
-2.5649576e-09
5.8097264e-07
-3.8291612e-09
5.8139993e-07
-5.1208372e-09
5.8202492e-07
-6.4487152e-09
5.8287056e-07
-7.8213444e-09
5.8396866e-07
-9.2469789e-09
5.8536211e-07
-1.0733421e-08
5.8710808e-07
-1.2287868e-08
5.8928275e-07
-1.3916644e-08
5.9198824e-07
-1.562424e-08
5.9536141e-07
-1.7414175e-08
5.9958227e-07
-1.9322076e-08
6.0497924e-07
-2.1524995e-08
6.1272663e-07
-2.4080716e-08
6.2575856e-07
-2.503668e-08
6.413039e-07
-1.9408703e-08
6.2143261e-07
-6.731003e-09
4.8046571e-07
1.7613125e-07
4.2427396e-09
1.3575938e-07
1.7345537e-08
4.2183565e-07
2.6447045e-08
6.0743567e-07
2.7239561e-08
6.558432e-07
2.4685771e-08
6.4179181e-07
2.2255976e-08
6.2379477e-07
2.0275516e-08
6.1315542e-07
1.8457567e-08
6.0636307e-07
1.6711018e-08
6.0117948e-07
1.5031159e-08
5.9701746e-07
1.3418559e-08
5.9365653e-07
1.1870614e-08
5.9093253e-07
1.0383264e-08
5.887198e-07
8.9515215e-09
5.8692461e-07
7.569617e-09
5.8547661e-07
6.2311895e-09
5.8432267e-07
4.9294635e-09
5.8342266e-07
3.6573962e-09
5.8274671e-07
2.4077934e-09
5.8227325e-07
1.1733956e-09
5.8198778e-07
-5.3053995e-11
5.8188197e-07
-1.2787544e-09
5.8195324e-07
-2.5107939e-09
5.8220468e-07
-3.7560847e-09
5.8264522e-07
-5.0212831e-09
5.8329012e-07
-6.3126789e-09
5.8416196e-07
-7.6360531e-09
5.8529204e-07
-8.9964962e-09
5.8672256e-07
-1.039819e-08
5.8850978e-07
-1.1844204e-08
5.9072876e-07
-1.3336175e-08
5.9348022e-07
-1.4873439e-08
5.9689868e-07
-1.6455936e-08
6.0116476e-07
-1.8121924e-08
6.0664523e-07
-2.0028519e-08
6.1463323e-07
-2.208182e-08
6.2781186e-07
-2.2226777e-08
6.4144886e-07
-1.629374e-08
6.1549957e-07
-5.0407075e-09
4.6921268e-07
1.7109054e-07
3.3515176e-09
1.3265841e-07
1.4758469e-08
4.1068406e-07
2.3657232e-08
5.9866504e-07
2.5193816e-08
6.5432574e-07
2.3196297e-08
6.4377768e-07
2.10446e-08
6.259408e-07
1.9273757e-08
6.1492569e-07
1.7649191e-08
6.0798782e-07
1.6070711e-08
6.0275801e-07
1.4531003e-08
5.9855718e-07
1.3033534e-08
5.95154e-07
1.1579069e-08
5.92387e-07
1.0166712e-08
5.9013216e-07
8.7944429e-09
5.8829688e-07
7.4592361e-09
5.8681182e-07
6.1572399e-09
5.8562467e-07
4.8839671e-09
5.8469594e-07
3.6344724e-09
5.839962e-07
2.4035076e-09
5.8350422e-07
1.1856535e-09
5.8320563e-07
-2.4565122e-11
5.8309219e-07
-1.2325733e-09
5.8316125e-07
-2.4436438e-09
5.8341575e-07
-3.6627771e-09
5.8386436e-07
-4.8945694e-09
5.8452192e-07
-6.143049e-09
5.8541044e-07
-7.4114804e-09
5.8656047e-07
-8.7021341e-09
5.8801321e-07
-1.0016027e-08
5.8982367e-07
-1.1352679e-08
5.9206542e-07
-1.2709753e-08
5.9483729e-07
-1.4082393e-08
5.9827132e-07
-1.5468267e-08
6.0255064e-07
-1.6906912e-08
6.0808387e-07
-1.8525962e-08
6.1625228e-07
-2.0094678e-08
6.2938058e-07
-1.955294e-08
6.4090713e-07
-1.3528033e-08
6.0947467e-07
-3.678682e-09
4.5936333e-07
1.6741186e-07
2.6739182e-09
1.3028013e-07
1.2528888e-08
4.011611e-07
2.1061432e-08
5.9030269e-07
2.3184689e-08
6.5223345e-07
2.1713952e-08
6.452359e-07
1.9838322e-08
6.2780903e-07
1.8263489e-08
6.1649951e-07
1.6817883e-08
6.0943361e-07
1.5397544e-08
6.0417842e-07
1.3991952e-08
5.9996277e-07
1.2606584e-08
5.9653936e-07
1.1244977e-08
5.9374861e-07
9.9088828e-09
5.9146826e-07
8.5987925e-09
5.8960697e-07
7.3140472e-09
5.8809657e-07
6.0530017e-09
5.8688572e-07
4.813222e-09
5.8593572e-07
3.5916805e-09
5.8521775e-07
2.3849376e-09
5.8471096e-07
1.1893057e-09
5.8440127e-07
9.9869442e-13
5.842805e-07
-1.1837265e-09
5.8434597e-07
-2.368425e-09
5.8460045e-07
-3.5563091e-09
5.8505224e-07
-4.7500766e-09
5.8571569e-07
-5.9517079e-09
5.8661207e-07
-7.1622314e-09
5.87771e-07
-8.3814596e-09
5.8923244e-07
-9.6076964e-09
5.9104991e-07
-1.0837451e-08
5.9329517e-07
-1.2065043e-08
5.9606489e-07
-1.328222e-08
5.994885e-07
-1.4485103e-08
6.0375352e-07
-1.5712186e-08
6.0931096e-07
-1.7054365e-08
6.1759446e-07
-1.8164266e-08
6.3049048e-07
-1.7052415e-08
6.3979528e-07
-1.1093245e-08
6.035155e-07
-2.5845654e-09
4.5085465e-07
1.648273e-07
2.1444654e-09
1.2846658e-07
1.0592832e-08
3.9313373e-07
1.8652566e-08
5.824649e-07
2.123055e-08
6.4970199e-07
2.0255535e-08
6.4619827e-07
1.865596e-08
6.2939931e-07
1.7267352e-08
6.1788652e-07
1.5987514e-08
6.107136e-07
1.4714831e-08
6.054512e-07
1.3435982e-08
6.0124164e-07
1.2157906e-08
5.9781744e-07
1.0886512e-08
5.9502e-07
9.6258232e-09
5.9272895e-07
8.3784773e-09
5.9085432e-07
7.1458525e-09
5.893292e-07
5.9282327e-09
5.8810334e-07
4.7250075e-09
5.8713894e-07
3.5348809e-09
5.8640787e-07
2.3560695e-09
5.8588978e-07
1.1864886e-09
5.8557085e-07
2.392604e-11
5.8544306e-07
-1.1337968e-09
5.855037e-07
-2.2886387e-09
5.857553e-07
-3.4421721e-09
5.8620578e-07
-4.595378e-09
5.8686889e-07
-5.7484187e-09
5.8776511e-07
-6.9003783e-09
5.8892296e-07
-8.0489739e-09
5.9038104e-07
-9.1902389e-09
5.9219118e-07
-1.0318189e-08
5.9442312e-07
-1.1424393e-08
5.9717109e-07
-1.2497916e-08
6.0056202e-07
-1.3533675e-08
6.0478928e-07
-1.4566395e-08
6.1034368e-07
-1.5645605e-08
6.1867367e-07
-1.6329683e-08
6.3117456e-07
-1.4754434e-08
6.3822003e-07
-8.9734087e-09
5.9773448e-07
-1.7145812e-09
4.4359583e-07
1.6311272e-07
1.7172016e-09
1.2710678e-07
8.9005071e-09
3.8646968e-07
1.6425079e-08
5.7522355e-07
1.9349176e-08
6.4684402e-07
1.883768e-08
6.4669778e-07
1.7514024e-08
6.3071161e-07
1.6304139e-08
6.1909405e-07
1.5177754e-08
6.1184008e-07
1.4041851e-08
6.0658723e-07
1.2881391e-08
6.0240211e-07
1.1704479e-08
5.9899435e-07
1.0519107e-08
5.9620538e-07
9.3312863e-09
5.9391677e-07
8.1454987e-09
5.9204011e-07
6.9648798e-09
5.9050982e-07
5.7913936e-09
5.8927683e-07
4.6260403e-09
5.883043e-07
3.4690744e-09
5.8756484e-07
2.3202143e-09
5.8703864e-07
1.1788411e-09
5.8671222e-07
4.4189069e-11
5.8657771e-07
-1.0844719e-09
5.8663236e-07
-2.2076484e-09
5.8687848e-07
-3.3254249e-09
5.8732355e-07
-4.437249e-09
5.8798072e-07
-5.5416914e-09
5.8886956e-07
-6.6361729e-09
5.9001744e-07
-7.7166624e-09
5.9146153e-07
-8.777346e-09
5.9325186e-07
-9.8102499e-09
5.9545603e-07
-1.0804785e-08
5.9816563e-07
-1.1748052e-08
6.0150529e-07
-1.2633972e-08
6.0567521e-07
-1.3490992e-08
6.112007e-07
-1.4325553e-08
6.1950823e-07
-1.46244e-08
6.3147341e-07
-1.2684016e-08
6.3627965e-07
-7.159573e-09
5.9221004e-07
-1.0411569e-09
4.3747741e-07
1.6207157e-07
1.3628366e-09
1.2612063e-07
7.4185164e-09
3.8103695e-07
1.4378999e-08
5.6861569e-07
1.7559085e-08
6.437535e-07
1.7475892e-08
6.4677043e-07
1.6424907e-08
6.3174895e-07
1.5386477e-08
6.201292e-07
1.4401444e-08
6.1282511e-07
1.3391012e-08
6.0759781e-07
1.2339818e-08
6.0345334e-07
1.1256942e-08
6.0007723e-07
1.0152214e-08
5.9731011e-07
9.0333862e-09
5.950356e-07
7.9065373e-09
5.9316696e-07
6.7763208e-09
5.9164004e-07
5.6461641e-09
5.9040698e-07
4.5184874e-09
5.8943198e-07
3.3949285e-09
5.886884e-07
2.2765599e-09
5.8815701e-07
1.1640954e-09
5.8782469e-07
5.808946e-11
5.8768372e-07
-1.0408701e-09
5.8773132e-07
-2.1319644e-09
5.8796957e-07
-3.2139367e-09
5.8840553e-07
-4.2848713e-09
5.8905166e-07
-5.341949e-09
5.8992664e-07
-6.3811737e-09
5.9105667e-07
-7.3970691e-09
5.9247743e-07
-8.3823477e-09
5.9423714e-07
-9.3275126e-09
5.964012e-07
-1.0220395e-08
5.9905851e-07
-1.1046859e-08
6.0233176e-07
-1.1800126e-08
6.0642848e-07
-1.2500721e-08
6.119013e-07
-1.3113528e-08
6.2012104e-07
-1.307578e-08
6.3143567e-07
-1.0862677e-08
6.3406655e-07
-5.6475986e-09
5.8699496e-07
-5.4775157e-10
4.3237757e-07
1.6152382e-07
1.0648378e-09
1.2544514e-07
6.129362e-09
3.7669987e-07
1.2522038e-08
5.6265062e-07
1.5880128e-08
6.4051168e-07
1.6183363e-08
6.4645888e-07
1.5395343e-08
6.3252088e-07
1.4519449e-08
6.2100071e-07
1.3663418e-08
6.1368098e-07
1.2766783e-08
6.0849462e-07
1.1815138e-08
6.0440502e-07
1.0818378e-08
6.0107399e-07
9.7879153e-09
5.9834057e-07
8.7330312e-09
5.9609049e-07
7.6611973e-09
5.942388e-07
6.5783912e-09
5.9272284e-07
5.4893258e-09
5.9149605e-07
4.3976792e-09
5.9052363e-07
3.3063248e-09
5.8977976e-07
2.2175533e-09
5.8924578e-07
1.133284e-09
5.8890896e-07
5.5270133e-11
5.8876174e-07
-1.0147022e-09
5.888013e-07
-2.0746119e-09
5.8902948e-07
-3.1219907e-09
5.8945291e-07
-4.1537016e-09
5.9008337e-07
-5.1656958e-09
5.9093863e-07
-6.1527476e-09
5.9204372e-07
-7.1081605e-09
5.9343284e-07
-8.0234494e-09
5.9515243e-07
-8.8879561e-09
5.972657e-07
-9.6884219e-09
5.9985898e-07
-1.0410103e-08
6.0305344e-07
-1.1045964e-08
6.0706434e-07
-1.1608339e-08
6.1246368e-07
-1.2025553e-08
6.2053826e-07
-1.1706693e-08
6.3111681e-07
-9.3085517e-09
6.3166841e-07
-4.4330619e-09
5.8211947e-07
-2.1315728e-10
4.2815767e-07
1.6131066e-07
8.1586769e-10
1.2502428e-07
5.029306e-09
3.7331245e-07
1.0871341e-08
5.5731347e-07
1.4336315e-08
6.3719226e-07
1.4974102e-08
6.4581624e-07
1.4430339e-08
6.3304635e-07
1.3705345e-08
6.2172017e-07
1.2965725e-08
6.1442025e-07
1.2171052e-08
6.0928948e-07
1.1308746e-08
6.0526738e-07
1.0389363e-08
6.0199338e-07
9.4256774e-09
5.9930426e-07
8.4283359e-09
5.9708783e-07
7.4060638e-09
5.9526107e-07
6.3660276e-09
5.9376288e-07
5.3140933e-09
5.9254799e-07
4.2550676e-09
5.9158265e-07
3.1929337e-09
5.9084189e-07
2.1310772e-09
5.9030764e-07
1.0725029e-09
5.8996754e-07
2.0044892e-11
5.898142e-07
-1.023429e-09
5.8984477e-07
-2.0548101e-09
5.9006087e-07
-3.0705338e-09
5.9046863e-07
-4.0663567e-09
5.9107919e-07
-5.0371162e-09
5.919094e-07
-5.9764747e-09
5.9298308e-07
-6.8766412e-09
5.9433301e-07
-7.728073e-09
5.9600387e-07
-8.5191338e-09
5.9805677e-07
-9.2357569e-09
6.0057561e-07
-9.8629654e-09
6.0368065e-07
-1.0393886e-08
6.0759526e-07
-1.0833828e-08
6.1290362e-07
-1.1082538e-08
6.2078697e-07
-1.0540648e-08
6.3057492e-07
-8.0369698e-09
6.2916473e-07
-3.5092268e-09
5.7759173e-07
-2.0275924e-11
4.2466872e-07
1.6129039e-07
6.1535426e-10
1.248023e-07
4.1249191e-09
3.707119e-07
9.4546581e-09
5.5256427e-07
1.2961998e-08
6.3386171e-07
1.3872932e-08
6.4490609e-07
1.3545503e-08
6.3335438e-07
1.2957002e-08
6.223022e-07
1.2321166e-08
6.1505552e-07
1.1616473e-08
6.0999435e-07
1.0832533e-08
6.0605138e-07
9.9805148e-09
6.028454e-07
9.0744391e-09
6.0021033e-07
8.1262621e-09
5.9803601e-07
7.1459092e-09
5.9624142e-07
6.1416676e-09
5.9476712e-07
5.120472e-09
5.9356918e-07
4.0881599e-09
5.9261497e-07
3.0497151e-09
5.9188034e-07
2.0095023e-09
5.9134785e-07
9.7149125e-10
5.9100555e-07
-6.0525771e-11
5.9084622e-07
-1.0827211e-09
5.9086697e-07
-2.0910179e-09
5.9106916e-07
-3.0808696e-09
5.9145849e-07
-4.0470308e-09
5.9204536e-07
-4.9833158e-09
5.9284568e-07
-5.8823434e-09
5.9388211e-07
-6.7352703e-09
5.9518594e-07
-7.5315047e-09
5.968001e-07
-8.2584115e-09
5.9878368e-07
-8.9011143e-09
6.0121831e-07
-9.4443892e-09
6.0422393e-07
-9.8816155e-09
6.0803249e-07
-1.0212934e-08
6.1323494e-07
-1.0318604e-08
6.2089264e-07
-9.6064677e-09
6.2986279e-07
-7.0583166e-09
6.2661658e-07
-2.8582875e-09
5.7339171e-07
5.5852554e-11
4.2175458e-07
1.6134624e-07
4.6728732e-10
1.2472028e-07
3.4270606e-09
3.6871785e-07
8.3074549e-09
5.483341e-07
1.1807132e-08
6.3057141e-07
1.2927931e-08
6.4379492e-07
1.2783231e-08
6.3348057e-07
1.2314766e-08
6.227638e-07
1.176974e-08
6.1559975e-07
1.1142209e-08
6.1062201e-07
1.0424007e-08
6.0676963e-07
9.6270831e-09
6.0364234e-07
8.7667995e-09
6.0107062e-07
7.8564961e-09
5.9894631e-07
6.9073322e-09
5.9719059e-07
5.9287035e-09
5.9574576e-07
4.928563e-09
5.9456933e-07
3.9136952e-09
5.9362984e-07
2.889979e-09
5.9290406e-07
1.8626358e-09
5.923752e-07
8.3646698e-10
5.9203172e-07
-1.8391696e-10
5.918666e-07
-1.1938722e-09
5.9187693e-07
-2.1884961e-09
5.9206379e-07
-3.1623976e-09
5.9243239e-07
-4.1094554e-09
5.9299242e-07
-5.0225651e-09
5.9375879e-07
-5.8933726e-09
5.9475292e-07
-6.7120002e-09
5.9600457e-07
-7.4667534e-09
5.9755486e-07
-8.1438394e-09
5.9946076e-07
-8.7273168e-09
6.0180179e-07
-9.2012974e-09
6.0469791e-07
-9.5588364e-09
6.0839003e-07
-9.7959103e-09
6.1347202e-07
-9.7799721e-09
6.208767e-07
-8.9344137e-09
6.2901723e-07
-6.3704677e-09
6.2405264e-07
-2.445278e-09
5.6946652e-07
4.6395243e-11
4.1926291e-07
1.6139264e-07
3.7636895e-10
1.247169e-07
2.9411358e-09
3.6714212e-07
7.4615989e-09
5.4452312e-07
1.0932744e-08
6.2734261e-07
1.2213552e-08
6.4253595e-07
1.2220026e-08
6.3345884e-07
1.185441e-08
6.2312286e-07
1.1385755e-08
6.1606741e-07
1.0820264e-08
6.1118752e-07
1.0152176e-08
6.0743775e-07
9.3946947e-09
6.0439982e-07
8.5648322e-09
6.0190048e-07
7.6774912e-09
5.9983366e-07
6.7451426e-09
5.9812294e-07
5.7782936e-09
5.9671261e-07
4.7858595e-09
5.9556176e-07
3.7754757e-09
5.9464022e-07
2.7537903e-09
5.9392575e-07
1.7267357e-09
5.9340225e-07
6.9978486e-10
5.9305867e-07
-3.2180405e-10
5.9288819e-07
-1.3327491e-09
5.9288787e-07
-2.3275049e-09
5.9305855e-07
-3.3000184e-09
5.9340491e-07
-4.2434708e-09
5.9393587e-07
-5.1500027e-09
5.9466533e-07
-6.0104203e-09
5.9561334e-07
-6.81389e-09
5.9680804e-07
-7.5476065e-09
5.9828858e-07
-8.1964643e-09
6.0010962e-07
-8.7430958e-09
6.0234842e-07
-9.1702397e-09
6.0512506e-07
-9.4691278e-09
6.0868892e-07
-9.6298813e-09
6.1363277e-07
-9.5074949e-09
6.2075432e-07
-8.5399026e-09
6.2804964e-07
-5.9474827e-09
6.2146022e-07
-2.2177382e-09
5.6573678e-07
-1.4064046e-11
4.1705924e-07
1.6137858e-07
3.4249939e-10
1.2473407e-07
2.6555133e-09
3.6580917e-07
6.9256323e-09
5.4100738e-07
1.0389948e-08
6.2415228e-07
1.1812496e-08
6.4114932e-07
1.1951248e-08
6.333096e-07
1.1672832e-08
6.2339552e-07
1.1263597e-08
6.1647548e-07
1.0741407e-08
6.117096e-07
1.0103987e-08
6.0807517e-07
9.3665858e-09
6.0513723e-07
8.5482884e-09
6.0271878e-07
7.6657494e-09
6.007162e-07
6.7327958e-09
5.990559e-07
5.7610006e-09
5.976844e-07
4.7601365e-09
5.9656263e-07
3.7385477e-09
5.9566181e-07
2.703486e-09
5.9496081e-07
1.6614133e-09
5.9444433e-07
6.1828037e-10
5.9410181e-07
-4.2021108e-10
5.9392669e-07
-1.4483558e-09
5.9391602e-07
-2.4601899e-09
5.9407038e-07
-3.4492329e-09
5.9439395e-07
-4.4082094e-09
5.9489485e-07
-5.328749e-09
5.9558587e-07
-6.2010514e-09
5.9648564e-07
-7.0135263e-09
5.9762052e-07
-7.7523861e-09
5.9902744e-07
-8.4011998e-09
6.0075844e-07
-8.9408928e-09
6.0288812e-07
-9.3519932e-09
6.0553616e-07
-9.6213883e-09
6.0895832e-07
-9.727746e-09
6.1373913e-07
-9.5056475e-09
6.2053222e-07
-8.398901e-09
6.269429e-07
-5.7285111e-09
6.1878983e-07
-2.1089238e-09
5.6211719e-07
-9.4936323e-11
4.1504525e-07
1.6128365e-07
3.5699537e-10
1.2472531e-07
2.533628e-09
3.6458116e-07
6.664416e-09
5.3765928e-07
1.0186381e-08
6.2093203e-07
1.1775531e-08
6.3960895e-07
1.2050187e-08
6.330285e-07
1.1848702e-08
6.2359173e-07
1.1480285e-08
6.1684248e-07
1.0979644e-08
6.1220998e-07
1.0350746e-08
6.0870404e-07
9.6119663e-09