/*--------------------------------*- C++ -*----------------------------------*\
  =========                 |
  \\      /  F ield         | OpenFOAM: The Open Source CFD Toolbox
   \\    /   O peration     | Website:  https://openfoam.org
    \\  /    A nd           | Version:  10
     \\/     M anipulation  |
\*---------------------------------------------------------------------------*/
FoamFile
{
    format      ascii;
    class       surfaceScalarField;
    location    "0.06";
    object      phi_0;
}
// * * * * * * * * * * * * * * * * * * * * * * * * * * * * * * * * * * * * * //

dimensions      [1 0 -1 0 0 0 0];

internalField   nonuniform List<scalar> 
7860
(
3.9848384e-08
5.2885981e-07
1.2157303e-08
5.9639874e-07
7.3922964e-09
5.7347276e-07
5.4594191e-09
5.7064059e-07
4.0741977e-09
5.700929e-07
3.1609155e-09
5.6962094e-07
2.5201283e-09
5.6934843e-07
2.0420918e-09
5.6918566e-07
1.6743695e-09
5.6907533e-07
1.3843341e-09
5.6899764e-07
1.1501186e-09
5.6894181e-07
9.5690479e-10
5.689008e-07
7.9430474e-10
5.6887018e-07
6.5479312e-10
5.6884709e-07
5.3276919e-10
5.688296e-07
4.2395085e-10
5.6881639e-07
3.2496775e-10
5.6880655e-07
2.3307977e-10
5.6879946e-07
1.4597374e-10
5.6879467e-07
6.1609792e-11
5.6879193e-07
-2.1902352e-11
5.6879108e-07
-1.064112e-10
5.6879207e-07
-1.9383345e-10
5.6879499e-07
-2.8625827e-10
5.6879999e-07
-3.8608186e-10
5.6880739e-07
-4.9617236e-10
5.6881766e-07
-6.2009253e-10
5.6883149e-07
-7.6241532e-10
5.688499e-07
-9.2918746e-10
5.6887435e-07
-1.1286406e-09
5.6890704e-07
-1.372369e-09
5.6895132e-07
-1.6773093e-09
5.6901254e-07
-2.0686209e-09
5.6909892e-07
-2.5864031e-09
5.692254e-07
-3.3132566e-09
5.6943449e-07
-4.4057076e-09
5.6980011e-07
-5.9571087e-09
5.7025908e-07
-9.4593484e-09
5.7220995e-07
-2.9513597e-08
5.88762e-07
5.3919433e-07
5.9559052e-08
4.6930176e-07
3.6535077e-08
6.1942232e-07
2.2505388e-08
5.875023e-07
1.6126067e-08
5.7701991e-07
1.2161556e-08
5.7405741e-07
9.4791269e-09
5.7230337e-07
7.5543818e-09
5.7127317e-07
6.1188893e-09
5.7062115e-07
5.0166492e-09
5.7017758e-07
4.1472975e-09
5.6986699e-07
3.4452855e-09
5.6964382e-07
2.8662729e-09
5.6947982e-07
2.3790785e-09
5.6935738e-07
1.9611208e-09
5.6926505e-07
1.5956022e-09
5.6919512e-07
1.2696817e-09
5.6914231e-07
9.7325381e-10
5.6910298e-07
6.9810338e-10
5.6907461e-07
4.3729689e-10
5.6905548e-07
1.8472044e-10
5.6904451e-07
-6.5292043e-11
5.6904109e-07
-3.1828406e-10
5.6904507e-07
-5.7999173e-10
5.690567e-07
-8.5667927e-10
5.6907668e-07
-1.1555298e-09
5.6910624e-07
-1.4851421e-09
5.6914728e-07
-1.8561986e-09
5.6920255e-07
-2.2824129e-09
5.6927612e-07
-2.7819273e-09
5.6937387e-07
-3.3794493e-09
5.6950456e-07
-4.1096847e-09
5.6968156e-07
-5.023378e-09
5.6992624e-07
-6.1976797e-09
5.7027323e-07
-7.7520539e-09
5.7077978e-07
-9.8905701e-09
5.7157301e-07
-1.3020953e-08
5.7293049e-07
-1.7959722e-08
5.7519785e-07
-2.8000065e-08
5.822503e-07
-4.5646132e-08
6.0640807e-07
4.935482e-07
5.9834063e-08
4.094702e-07
5.0241587e-08
6.2901467e-07
3.3142557e-08
6.0460081e-07
2.4590345e-08
5.8557209e-07
1.9094893e-08
5.7955288e-07
1.5107246e-08
5.7629102e-07
1.2144351e-08
5.7423607e-07
9.8960058e-09
5.728695e-07
8.1481983e-09
5.7192539e-07
6.7573485e-09
5.7125784e-07
5.6270205e-09
5.7077415e-07
4.6901623e-09
5.7041668e-07
3.898784e-09
5.7014876e-07
3.2177255e-09
5.6994611e-07
2.6205889e-09
5.6979226e-07
2.087041e-09
5.6967586e-07
1.600982e-09
5.6958904e-07
1.1492585e-09
5.6952633e-07
7.2072491e-10
5.6948402e-07
3.0552415e-10
5.6945971e-07
-1.054946e-10
5.6945211e-07
-5.2128677e-10
5.6946086e-07
-9.5111138e-10
5.6948652e-07
-1.405058e-09
5.6953063e-07
-1.8946568e-09
5.6959585e-07
-2.4336474e-09
5.6968627e-07
-3.039001e-09
5.6980791e-07
-3.7323456e-09
5.6996946e-07
-4.5420324e-09
5.7018356e-07
-5.5062227e-09
5.7046876e-07
-6.6775749e-09
5.7085291e-07
-8.1309133e-09
5.7137958e-07
-9.9764762e-09
5.7211879e-07
-1.2377326e-08
5.7318063e-07
-1.5568184e-08
5.7476387e-07
-1.9913369e-08
5.7727568e-07
-2.6387037e-08
5.8167152e-07
-3.8614377e-08
5.9447764e-07
-4.7910333e-08
6.1570403e-07
4.4563787e-07
5.465017e-08
3.5482483e-07
5.7072726e-08
6.2659322e-07
4.0107666e-08
6.2156484e-07
3.0434185e-08
5.9524535e-07
2.4300802e-08
5.8568628e-07
1.9617685e-08
5.8097414e-07
1.5991435e-08
5.7786232e-07
1.3162077e-08
5.7569886e-07
1.0916623e-08
5.7417084e-07
9.1027638e-09
5.730717e-07
7.6121225e-09
5.722648e-07
6.3658161e-09
5.7166298e-07
5.305692e-09
5.7120889e-07
4.3882029e-09
5.708636e-07
3.5800777e-09
5.7060038e-07
2.8553306e-09
5.7040061e-07
2.1931535e-09
5.7025122e-07
1.5763905e-09
5.701431e-07
9.9039791e-10
5.7007001e-07
4.2215723e-10
5.7002795e-07
-1.4045543e-10
5.7001473e-07
-7.0931676e-10
5.7002972e-07
-1.2966846e-09
5.7007389e-07
-1.9158621e-09
5.7014981e-07
-2.5819588e-09
5.7026194e-07
-3.3128305e-09
5.7041714e-07
-4.1303024e-09
5.7062538e-07
-5.0618213e-09
5.7090098e-07
-6.1427593e-09
5.712645e-07
-7.419705e-09
5.717457e-07
-8.9550727e-09
5.7238828e-07
-1.0833529e-08
5.7325803e-07
-1.3172443e-08
5.7445771e-07
-1.6134739e-08
5.7614293e-07
-1.9920669e-08
5.785498e-07
-2.4798927e-08
5.8215394e-07
-3.2013722e-08
5.8888632e-07
-4.4574956e-08
6.0703887e-07
-4.6187404e-08
6.1731648e-07
3.9945046e-07
4.7691325e-08
3.0714138e-07
5.9551124e-08
6.1473715e-07
4.4877261e-08
6.3623733e-07
3.439017e-08
6.0573181e-07
2.7925959e-08
5.9215049e-07
2.2958845e-08
5.8594128e-07
1.8993568e-08
5.818276e-07
1.5813352e-08
5.7887908e-07
1.32325e-08
5.7675169e-07
1.1110864e-08
5.7519334e-07
9.3427053e-09
5.7403296e-07
7.8474939e-09
5.731582e-07
6.5638336e-09
5.7249255e-07
5.4444302e-09
5.7198301e-07
4.4523033e-09
5.7159251e-07
3.5580238e-09
5.7129489e-07
2.7376605e-09
5.7107159e-07
1.9712306e-09
5.7090953e-07
1.2415053e-09
5.7079974e-07
5.3305476e-10
5.707364e-07
-1.685533e-10
5.7071634e-07
-8.7747331e-10
5.7073865e-07
-1.608281e-09
5.708047e-07
-2.376708e-09
5.7091824e-07
-3.2004709e-09
5.7108571e-07
-4.1002703e-09
5.7131694e-07
-5.1010508e-09
5.7162616e-07
-6.2336347e-09
5.7203357e-07
-7.5368788e-09
5.7256774e-07
-9.0605851e-09
5.7326941e-07
-1.0869329e-08
5.7419703e-07
-1.3046942e-08
5.7543565e-07
-1.5703047e-08
5.7711381e-07
-1.8983193e-08
5.7942308e-07
-2.3060948e-08
5.8262755e-07
-2.8237826e-08
5.8733082e-07
-3.6061294e-08
5.9670978e-07
-4.7713569e-08
6.1869115e-07
-4.2725709e-08
6.1232862e-07
3.5672476e-07
4.0020922e-08
2.6713221e-07
5.8315432e-08
5.9645064e-07
4.7612956e-08
6.4693863e-07
3.6933739e-08
6.1640972e-07
3.0302222e-08
5.987819e-07
2.5288852e-08
5.9095469e-07
2.1203897e-08
5.8591256e-07
1.7850757e-08
5.8223222e-07
1.5075151e-08
5.795273e-07
1.2754135e-08
5.7751436e-07
1.0791053e-08
5.7599604e-07
9.1100517e-09
5.748392e-07
7.6515669e-09
5.7395103e-07
6.3683848e-09
5.7326619e-07
5.2226636e-09
5.7273824e-07
4.1836481e-09
5.7233391e-07
3.2258749e-09
5.7202936e-07
2.3277585e-09
5.7180765e-07
1.4704622e-09
5.7165704e-07
6.3696619e-10
5.715699e-07
-1.8873362e-10
5.7154204e-07
-1.0223534e-09
5.7157227e-07
-1.8800348e-09
5.7166239e-07
-2.7790861e-09
5.7181729e-07
-3.738804e-09
5.7204543e-07
-4.7814378e-09
5.7235958e-07
-5.9333639e-09
5.7277809e-07
-7.2265494e-09
5.7332676e-07
-8.7003863e-09
5.7404158e-07
-1.0404042e-08
5.7497307e-07
-1.2399551e-08
5.7619254e-07
-1.4765309e-08
5.7780141e-07
-1.7600214e-08
5.7994872e-07
-2.1030807e-08
5.8285367e-07
-2.5216457e-08
5.8681321e-07
-3.0558016e-08
5.9267238e-07
-3.8651092e-08
6.0480286e-07
-4.8171047e-08
6.282111e-07
-3.8002501e-08
6.0216008e-07
3.1872226e-07
3.2510311e-08
2.3463836e-07
5.4411797e-08
5.7456336e-07
4.829028e-08
6.5306017e-07
3.8204807e-08
6.2649299e-07
3.1626328e-08
6.0535999e-07
2.6748494e-08
5.9583258e-07
2.2708913e-08
5.8995216e-07
1.932016e-08
5.8562097e-07
1.6463525e-08
5.8238394e-07
1.4035675e-08
5.7994221e-07
1.1952024e-08
5.7807969e-07
1.0144715e-08
5.7664651e-07
8.5590607e-09
5.7553669e-07
7.1505561e-09
5.746747e-07
5.8826733e-09
5.7400612e-07
4.7250786e-09
5.7349151e-07
3.6521721e-09
5.7310227e-07
2.6418952e-09
5.7281793e-07
1.6747402e-09
5.7262419e-07
7.3290736e-10
5.7251174e-07
-2.004395e-10
5.7247539e-07
-1.1418579e-09
5.7251369e-07
-2.108304e-09
5.7262883e-07
-3.1178307e-09
5.7282682e-07
-4.1903449e-09
5.7311794e-07
-5.3484752e-09
5.7351771e-07
-6.6185948e-09
5.7404821e-07
-8.0320547e-09
5.7474022e-07
-9.6266759e-09
5.756362e-07
-1.1448575e-08
5.7679497e-07
-1.3554617e-08
5.7829858e-07
-1.6015396e-08
5.8026219e-07
-1.8917408e-08
5.8285073e-07
-2.2364292e-08
5.8630056e-07
-2.6500125e-08
5.9094904e-07
-3.1823778e-08
5.9799603e-07
-3.9685777e-08
6.1266486e-07
-4.6411484e-08
6.3493681e-07
-3.269321e-08
5.884418e-07
2.8602905e-07
2.5801393e-08
2.0885923e-07
4.9127613e-08
5.512597e-07
4.7296287e-08
6.5489413e-07
3.8394509e-08
6.353916e-07
3.2066361e-08
6.1168726e-07
2.7453267e-08
6.0044571e-07
2.3589162e-08
5.9381631e-07
2.0276496e-08
5.8893364e-07
1.7431827e-08
5.8522861e-07
1.4974526e-08
5.8239951e-07
1.2834596e-08
5.8021962e-07
1.0954239e-08
5.7852687e-07
9.2855019e-09
5.7720543e-07
7.7883153e-09
5.7617188e-07
6.4289977e-09
5.7536544e-07
5.1789576e-09
5.7474155e-07
4.0135831e-09
5.7426765e-07
2.9113004e-09
5.7392021e-07
1.8527617e-09
5.7368273e-07
8.201283e-10
5.7354437e-07
-2.0357705e-10
5.7349909e-07
-1.2350777e-09
5.7354519e-07
-2.2914468e-09
5.736852e-07
-3.3907243e-09
5.739261e-07
-4.5525759e-09
5.742798e-07
-5.7990293e-09
5.7476416e-07
-7.1553132e-09
5.754045e-07
-8.6508405e-09
5.7623575e-07
-1.0320362e-08
5.7730573e-07
-1.2205294e-08
5.786799e-07
-1.4355434e-08
5.8044872e-07
-1.6831188e-08
5.8273794e-07
-1.9703803e-08
5.8572335e-07
-2.3051769e-08
5.8964852e-07
-2.70104e-08
5.9490767e-07
-3.2152454e-08
6.0313809e-07
-3.9368271e-08
6.1988068e-07
-4.3223422e-08
6.3879197e-07
-2.7415038e-08
5.7263342e-07
2.5861401e-07
2.0148766e-08
1.8874003e-07
4.3402076e-08
5.2803978e-07
4.5159338e-08
6.5314396e-07
3.7775615e-08
6.4277134e-07
3.1832372e-08
6.1762882e-07
2.7544081e-08
6.0473397e-07
2.3938196e-08
5.9742226e-07
2.0784025e-08
5.9208782e-07
1.8023786e-08
5.8798885e-07
1.5599668e-08
5.8482363e-07
1.3457276e-08
5.8236202e-07
1.1549842e-08
5.8043431e-07
9.8372037e-09
5.7891807e-07
8.2848031e-09
5.7772429e-07
6.862826e-09
5.7678742e-07
5.5453586e-09
5.7605902e-07
4.3096232e-09
5.7550338e-07
3.1352927e-09
5.7509454e-07
2.0038682e-09
5.7481416e-07
8.9810911e-10
5.7465013e-07
-1.9849828e-10
5.745957e-07
-1.3022467e-09
5.7464894e-07
-2.4297151e-09
5.7481267e-07
-3.5982821e-09
5.7509467e-07
-4.8266662e-09
5.7550818e-07
-6.1355116e-09
5.7607301e-07
-7.5480325e-09
5.7681702e-07
-9.0907349e-09
5.7777845e-07
-1.0794233e-08
5.7900923e-07
-1.2694109e-08
5.8057978e-07
-1.4831897e-08
5.8258651e-07
-1.725642e-08
5.8516247e-07
-2.0022686e-08
5.8848962e-07
-2.3188104e-08
5.9281394e-07
-2.6893412e-08
5.9861298e-07
-3.1741007e-08
6.0798568e-07
-3.8032263e-08
6.2617194e-07
-3.9265444e-08
6.4002515e-07
-2.2520672e-08
5.5588865e-07
2.3609334e-07
1.55582e-08
1.732209e-07
3.7774937e-08
5.0587025e-07
4.2316254e-08
6.4861645e-07
3.6586553e-08
6.4849664e-07
3.1124077e-08
6.2308854e-07
2.7174014e-08
6.086838e-07
2.3863363e-08
6.00733e-07
2.0917873e-08
5.9503333e-07
1.8292186e-08
5.9061453e-07
1.5948136e-08
5.8716768e-07
1.3845838e-08
5.8446432e-07
1.1949209e-08
5.8233094e-07
1.0226078e-08
5.806412e-07
8.6478582e-09
5.7930251e-07
7.1891593e-09
5.7824612e-07
5.8273325e-09
5.7742084e-07
4.5420175e-09
5.767887e-07
3.3146948e-09
5.7632187e-07
2.1282493e-09
5.7600061e-07
9.6655072e-10
5.7581183e-07
-1.8595243e-10
5.7574821e-07
-1.3446271e-09
5.7580762e-07
-2.5250543e-09
5.759931e-07
-3.7434285e-09
5.7631304e-07
-5.0169701e-09
5.7678173e-07
-6.3643561e-09
5.774204e-07
-7.8061731e-09
5.7825884e-07
-9.3653904e-09
5.7933767e-07
-1.1067867e-08
5.8071171e-07
-1.2942842e-08
5.8245476e-07
-1.5023373e-08
5.8466705e-07
-1.734692e-08
5.8748602e-07
-1.9953542e-08
5.9109624e-07
-2.28865e-08
5.957469e-07
-2.630148e-08
6.0202796e-07
-3.0771553e-08
6.1245576e-07
-3.5973036e-08
6.3137342e-07
-3.4979159e-08
6.3903127e-07
-1.8177256e-08
5.3908675e-07
2.1791609e-07
1.1929838e-08
1.61344e-07
3.254185e-08
4.8532302e-07
3.9093707e-08
6.4208791e-07
3.5002339e-08
6.5258391e-07
3.0091487e-08
6.2799524e-07
2.6474959e-08
6.1229975e-07
2.346677e-08
6.0374131e-07
2.0754433e-08
5.9774571e-07
1.829369e-08
5.9307528e-07
1.6061632e-08
5.8939974e-07
1.4030757e-08
5.8649519e-07
1.2174454e-08
5.8418724e-07
1.0468039e-08
5.8234762e-07
8.8888041e-09
5.8088174e-07
7.4159223e-09
5.79719e-07
6.0302825e-09
5.7880649e-07
4.7142808e-09
5.781047e-07
3.4515741e-09
5.7758457e-07
2.2268113e-09
5.7722537e-07
1.0253553e-09
5.7701329e-07
-1.6700021e-10
5.7694056e-07
-1.3643121e-09
5.7700493e-07
-2.5807763e-09
5.7720957e-07
-3.8310119e-09
5.7756328e-07
-5.1303473e-09
5.7808106e-07
-6.4951041e-09
5.7878516e-07
-7.9428768e-09
5.7970661e-07
-9.4927951e-09
5.8088759e-07
-1.116578e-08
5.8238469e-07
-1.2984776e-08
5.8427375e-07
-1.4974867e-08
5.8665714e-07
-1.7163232e-08
5.8967438e-07
-1.957711e-08
5.9351012e-07
-2.2251792e-08
5.9842159e-07
-2.5358768e-08
6.0513494e-07
-2.9385697e-08
6.1648269e-07
-3.3432625e-08
6.3542035e-07
-3.0663447e-08
6.362621e-07
-1.4443413e-08
5.2286672e-07
2.0347267e-07
9.1245496e-09
1.5229542e-07
2.7851476e-08
4.6668379e-07
3.5735037e-08
6.3424054e-07
3.3158085e-08
6.5515811e-07
2.8842106e-08
6.3230546e-07
2.5548772e-08
6.1559194e-07
2.2833881e-08
6.0645632e-07
2.0362132e-08
6.0021752e-07
1.8082229e-08
5.9535519e-07
1.5981988e-08
5.9149999e-07
1.4044044e-08
5.8843314e-07
1.2249832e-08
5.8598145e-07
1.0581295e-08
5.8401616e-07
9.0211565e-09
5.8244188e-07
7.5529925e-09
5.8118717e-07
6.1612481e-09
5.8019823e-07
4.8312072e-09
5.7943475e-07
3.5489012e-09
5.7886688e-07
2.3009797e-09
5.7847329e-07
1.0745567e-09
5.7823972e-07
-1.4295938e-10
5.7815808e-07
-1.3640426e-09
5.7822602e-07
-2.6012319e-09
5.7844676e-07
-3.8673076e-09
5.7882936e-07
-5.1754601e-09
5.7938922e-07
-6.5394448e-09
5.8014914e-07
-7.9737146e-09
5.8114088e-07
-9.4935165e-09
5.8240739e-07
-1.111496e-08
5.8400614e-07
-1.2855067e-08
5.8601386e-07
-1.4731697e-08
5.8853377e-07
-1.676301e-08
5.917057e-07
-1.8965732e-08
5.9571284e-07
-2.1371969e-08
6.0082783e-07
-2.4163573e-08
6.0792655e-07
-2.770182e-08
6.2002094e-07
-3.0615087e-08
6.3833362e-07
-2.6520376e-08
6.3216739e-07
-1.1311006e-08
5.0765735e-07
1.9216167e-07
6.9927441e-09
1.4541584e-07
2.3748231e-08
4.500467e-07
3.2408048e-08
6.2563389e-07
3.1161077e-08
6.5640506e-07
2.7455996e-08
6.3600299e-07
2.447349e-08
6.1857249e-07
2.2033813e-08
6.0889606e-07
1.9798975e-08
6.0245246e-07
1.770568e-08
5.974485e-07
1.5748027e-08
5.9345764e-07
1.3916666e-08
5.902645e-07
1.2199698e-08
5.8769842e-07
1.0584751e-08
5.856311e-07
9.0593832e-09
5.8396725e-07
7.6112353e-09
5.8263532e-07
6.2281596e-09
5.8158131e-07
4.8983039e-09
5.807646e-07
3.6101341e-09
5.8015505e-07
2.3524144e-09
5.7973101e-07
1.1141567e-09
5.7947797e-07
-1.1545186e-10
5.7938769e-07
-1.3471321e-09
5.794577e-07
-2.5916008e-09
5.7969123e-07
-3.8596505e-09
5.8009741e-07
-5.1622168e-09
5.8069178e-07
-6.5104219e-09
5.8149735e-07
-7.915589e-09
5.8254605e-07
-9.3892117e-09
5.8388102e-07
-1.0942884e-08
5.8555981e-07
-1.2588222e-08
5.876592e-07
-1.4336665e-08
5.9028221e-07
-1.619863e-08
5.9356766e-07
-1.8182766e-08
5.9769698e-07
-2.0321424e-08
6.0296648e-07
-2.2797659e-08
6.1040278e-07
-2.5823216e-08
6.2304649e-07
-2.7683222e-08
6.4019363e-07
-2.2669688e-08
6.2715385e-07
-8.7290747e-09
4.9371674e-07
1.834326e-07
5.3918165e-09
1.4018844e-07
2.0207646e-08
4.3539071e-07
2.9212099e-08
6.167047e-07
2.9090234e-08
6.5653137e-07
2.5991578e-08
6.3909224e-07
2.3308298e-08
6.2125271e-07
2.1122146e-08
6.1108216e-07
1.9113517e-08
6.0446122e-07
1.7205472e-08
5.9935656e-07
1.5394478e-08
5.9526863e-07
1.3677227e-08
5.9198175e-07
1.2047234e-08
5.8932842e-07
1.0496895e-08
5.8718145e-07
9.0179661e-09
5.8544618e-07
7.6017403e-09
5.8405154e-07
6.2392296e-09
5.8294382e-07
4.9213175e-09
5.8208252e-07
3.638862e-09
5.8143751e-07
2.3827583e-09
5.8098712e-07
1.14397e-09
5.8071676e-07
-8.6462724e-11
5.8061813e-07
-1.3174269e-09
5.8068866e-07
-2.5577439e-09
5.8093155e-07
-3.8161668e-09
5.8135583e-07
-5.1013617e-09
5.8197698e-07
-6.4218611e-09
5.8281785e-07
-7.7859829e-09
5.8391018e-07
-9.2017053e-09
5.8529674e-07
-1.0676497e-08
5.870346e-07
-1.2217151e-08
5.8919986e-07
-1.3829504e-08
5.9189457e-07
-1.5517491e-08
5.9525565e-07
-1.7284012e-08
5.994635e-07
-1.9163434e-08
6.0484591e-07
-2.1329032e-08
6.1256838e-07
-2.3835986e-08
6.2555345e-07
-2.4755444e-08
6.4111309e-07
-1.9166146e-08
6.2156456e-07
-6.6247207e-09
4.8117531e-07
1.7680788e-07
4.1953882e-09
1.3621559e-07
1.7169278e-08
4.2263151e-07
2.6194757e-08
6.0778304e-07
2.6998556e-08
6.5573865e-07
2.4488884e-08
6.4159073e-07
2.2096322e-08
6.2364085e-07
2.0142766e-08
6.1303544e-07
1.8346117e-08
6.0625804e-07
1.661727e-08
6.0108545e-07
1.495215e-08
5.9693375e-07
1.3351823e-08
5.9358208e-07
1.1814147e-08
5.908661e-07
1.0335462e-08
5.8866013e-07
8.9111126e-09
5.8687053e-07
7.5356087e-09
5.8542705e-07
6.2028243e-09
5.8427661e-07
4.9061872e-09
5.8337916e-07
3.6388352e-09
5.8270487e-07
2.3937382e-09
5.8223222e-07
1.1637924e-09
5.8194671e-07
-5.8107522e-11
5.8184003e-07
-1.2790076e-09
5.8190956e-07
-2.5058354e-09
5.8215838e-07
-3.7453298e-09
5.8259533e-07
-5.003953e-09
5.8323561e-07
-6.2877715e-09
5.8410167e-07
-7.6023019e-09
5.8522471e-07
-8.9523147e-09
5.8664676e-07
-1.0341597e-08
5.8842389e-07
-1.1772724e-08
5.9063099e-07
-1.324672e-08
5.9336857e-07
-1.4762179e-08
5.9677111e-07
-1.6318125e-08
6.0101945e-07
-1.7950947e-08
6.0647873e-07
-1.9813135e-08
6.1443057e-07
-2.180922e-08
6.2754954e-07
-2.1912931e-08
6.412168e-07
-1.6022868e-08
6.156745e-07
-4.9200818e-09
4.7007253e-07
1.718878e-07
3.2967458e-09
1.3319645e-07
1.4560115e-08
4.116526e-07
2.3372525e-08
5.9911111e-07
2.4921083e-08
6.5421054e-07
2.2975332e-08
6.4352385e-07
2.0868765e-08
6.2574136e-07
1.9130278e-08
6.1477333e-07
1.7530525e-08
6.0785798e-07
1.5972117e-08
6.0264391e-07
1.4448767e-08
5.9845711e-07
1.2964651e-08
5.950662e-07
1.1521143e-08
5.9230961e-07
1.0117852e-08
5.9006343e-07
8.753162e-09
5.8823523e-07
7.424381e-09
5.8675583e-07
6.127932e-09
5.8557306e-07
4.8595623e-09
5.8464753e-07
3.6145326e-09
5.839499e-07
2.3877816e-09
5.8345897e-07
1.1740656e-09
5.8316043e-07
-3.1919972e-11
5.8304602e-07
-1.2354289e-09
5.8311308e-07
-2.4415545e-09
5.8336451e-07
-3.6551049e-09
5.8380888e-07
-4.8804618e-09
5.8446096e-07
-6.1214073e-09
5.8534262e-07
-7.3809136e-09
5.8648422e-07
-8.6608954e-09
5.8792674e-07
-9.961924e-09
5.8972492e-07
-1.128295e-08
5.9195201e-07
-1.2620909e-08
5.9470653e-07
-1.3970022e-08
5.9812023e-07
-1.5326698e-08
6.0237613e-07
-1.6727912e-08
6.0787995e-07
-1.8295832e-08
6.159985e-07
-1.9799266e-08
6.2905297e-07
-1.9211387e-08
6.4062892e-07
-1.3231815e-08
6.0969493e-07
-3.5439082e-09
4.6038462e-07
1.6834389e-07
2.6102183e-09
1.3090909e-07
1.2308439e-08
4.0232308e-07
2.0746181e-08
5.9086005e-07
2.2883057e-08
6.5210691e-07
2.1472173e-08
6.4492119e-07
1.964994e-08
6.2755572e-07
1.8113074e-08
6.1630912e-07
1.6695697e-08
6.0927555e-07
1.5297575e-08
6.0404211e-07
1.3909714e-08
5.9984498e-07
1.2538536e-08
5.9643738e-07
1.1188336e-08
5.9365981e-07
9.8614739e-09
5.9139029e-07
8.5589155e-09
5.8953779e-07
7.2803835e-09
5.8803437e-07
6.024546e-09
5.868289e-07
4.7892338e-09
5.8588284e-07
3.5716511e-09
5.8516748e-07
2.3685684e-09
5.8466206e-07
1.1764946e-09
5.8435251e-07
-8.165909e-12
5.8423068e-07
-1.188963e-09
5.8429387e-07
-2.3692554e-09
5.845448e-07
-3.5520434e-09
5.8499167e-07
-4.7397907e-09
5.8564871e-07
-5.9342114e-09
5.8653704e-07
-7.1360208e-09
5.8768603e-07
-8.3446507e-09
5.8913537e-07
-9.5579279e-09
5.909382e-07
-1.0771745e-08
5.9316583e-07
-1.1979618e-08
5.959144e-07
-1.3172235e-08
5.9931285e-07
-1.4344136e-08
6.0354803e-07
-1.5530555e-08
6.0906637e-07
-1.681614e-08
6.1728408e-07
-1.7854045e-08
6.3009088e-07
-1.6691763e-08
6.3946664e-07
-1.0778694e-08
6.0378186e-07
-2.4389693e-09
4.520449e-07
1.6590492e-07
2.0715936e-09
1.2919437e-07
1.0352491e-08
3.9450714e-07
1.8311529e-08
5.8314408e-07
2.0905688e-08
6.4956273e-07
1.9998544e-08
6.4581458e-07
1.8460336e-08
6.2908402e-07
1.7114914e-08
6.1765285e-07
1.586626e-08
6.1052437e-07
1.4617501e-08
6.0529097e-07
1.3357377e-08
6.0110511e-07
1.2094006e-08
5.9770075e-07
1.0834184e-08
5.9491963e-07
9.5826261e-09
5.9264185e-07
8.3425038e-09
5.9077791e-07
7.1156197e-09
5.8926125e-07
5.9026053e-09
5.8804191e-07
4.7031446e-09
5.870823e-07
3.5161994e-09
5.8635443e-07
2.3402209e-09
5.8583804e-07
1.1733438e-09
5.8551938e-07
1.35692e-11
5.8539045e-07
-1.1410693e-09
5.8544851e-07
-2.2923104e-09
5.8569604e-07
-3.4414934e-09
5.8614086e-07
-4.5893449e-09
5.8679657e-07
-5.735741e-09
5.8768344e-07
-6.8794348e-09
5.8882972e-07
-8.0177473e-09
5.9027368e-07
-9.1462225e-09
5.9206667e-07
-1.0258247e-08
5.9427786e-07
-1.1344567e-08
5.9700073e-07
-1.2393141e-08
6.0036142e-07
-1.3397095e-08
6.0455199e-07
-1.4387346e-08
6.1005662e-07
-1.540668e-08
6.1830342e-07
-1.6014863e-08
6.3069906e-07
-1.4387121e-08
6.378389e-07
-8.6527284e-09
5.9804747e-07
-1.5657104e-09
4.4495788e-07
1.6433921e-07
1.6367473e-09
1.27939e-07
8.6457148e-09
3.8806772e-07
1.6066329e-08
5.7603239e-07
1.900909e-08
6.4669073e-07
1.8572037e-08
6.4623839e-07
1.7316258e-08
6.303276e-07
1.6153659e-08
6.1881295e-07
1.5060574e-08
6.1161755e-07
1.3949678e-08
6.06402e-07
1.2808474e-08
6.0224634e-07
1.1646414e-08
5.9886281e-07
1.0472466e-08
5.9609358e-07
9.293388e-09
5.9382093e-07
8.1142399e-09
5.9195706e-07
6.9386181e-09
5.9043688e-07
5.7688658e-09
5.8921167e-07
4.6063071e-09
5.8824486e-07
3.4514817e-09
5.8750926e-07
2.304368e-09
5.8698515e-07
1.1645914e-09
5.8665916e-07
3.1623124e-11
5.8652342e-07
-1.0950298e-09
5.8657517e-07
-2.2156297e-09
5.8681664e-07
-3.3300023e-09
5.8725523e-07
-4.4373145e-09
5.8790388e-07
-5.5358253e-09
5.8878195e-07
-6.622601e-09
5.899165e-07
-7.6931967e-09
5.9134428e-07
-8.7413016e-09
5.9311478e-07
-9.7583238e-09
5.9529488e-07
-1.0732879e-08
5.9797528e-07
-1.1651013e-08
6.0127956e-07
-1.2504839e-08
6.0540581e-07
-1.3318822e-08
6.1087061e-07
-1.4092901e-08
6.190775e-07
-1.4316359e-08
6.3092252e-07
-1.2325669e-08
6.3584822e-07
-6.8495341e-09
5.9257134e-07
-9.0012835e-10
4.3900848e-07
1.6343909e-07
1.2782162e-09
1.2705897e-07
7.158547e-09
3.8286571e-07
1.4014264e-08
5.6955897e-07
1.7213428e-08
6.4358678e-07
1.720743e-08
6.4623232e-07
1.6227837e-08
6.3129246e-07
1.5239027e-08
6.1979826e-07
1.4288387e-08
6.1256819e-07
1.3303388e-08
6.0738716e-07
1.2271494e-08
6.0327826e-07
1.1203217e-08
5.9993109e-07
1.01094e-08
5.971874e-07
8.9985765e-09
5.9493175e-07
7.8774384e-09
5.930782e-07
6.7511348e-09
5.9156318e-07
5.6235066e-09
5.903393e-07
4.4973292e-09
5.8937104e-07
3.3745548e-09
5.8863203e-07
2.2565425e-09
5.8810317e-07
1.1442755e-09
5.8777143e-07
3.8570516e-11
5.8762913e-07
-1.0597216e-09
5.8767346e-07
-2.1495104e-09
5.8790644e-07
-3.2292499e-09
5.8833497e-07
-4.2967093e-09
5.8897134e-07
-5.3487197e-09
5.8983396e-07
-6.3808906e-09
5.9094867e-07
-7.3872936e-09
5.9235069e-07
-8.3601151e-09
5.9408761e-07
-9.2892349e-09
5.9622401e-07
-1.016172e-08
5.9884777e-07
-1.0962465e-08
6.0208031e-07
-1.1683062e-08
6.0612641e-07
-1.2340466e-08
6.1152801e-07
-1.2894548e-08
6.1963159e-07
-1.2787163e-08
6.3081514e-07
-1.0531455e-08
6.3359251e-07
-5.3671278e-09
5.8740701e-07
-4.2698595e-10
4.3406834e-07
1.630121e-07
9.809233e-10
1.2648594e-07
5.8774259e-09
3.7875507e-07
1.2167603e-08
5.6372909e-07
1.5541031e-08
6.4033612e-07
1.5917839e-08
6.4584559e-07
1.5200365e-08
6.3199264e-07
1.4374407e-08
6.2061961e-07
1.3552979e-08
6.1338947e-07
1.2681644e-08
6.0825868e-07
1.1748837e-08
6.0421111e-07
1.0765906e-08
6.0091402e-07
9.7452986e-09
5.9820801e-07
8.6971123e-09
5.9597994e-07
7.6294782e-09
5.9414584e-07
6.5489159e-09
5.9264375e-07
5.4605935e-09
5.9142762e-07
4.3685805e-09
5.9046306e-07
3.2760954e-09
5.8972452e-07
2.1857411e-09
5.8919352e-07
1.0997295e-09
5.8885744e-07
2.0097482e-11
5.8870877e-07
-1.0510831e-09
5.8874465e-07
-2.1114931e-09
5.8896685e-07
-3.1583432e-09
5.8938182e-07
-4.1881412e-09
5.9000114e-07
-5.1964385e-09
5.9084226e-07
-6.1775531e-09
5.9192979e-07
-7.1242645e-09
5.932974e-07
-8.0274839e-09
5.9499083e-07
-8.8758617e-09
5.9707239e-07
-9.6553337e-09
5.9962724e-07
-1.0350197e-08
6.0277517e-07
-1.0952034e-08
6.0672825e-07
-1.1470637e-08
6.1204662e-07
-1.1832223e-08
6.1999317e-07
-1.1453734e-08
6.3043665e-07
-9.0249149e-09
6.3116369e-07
-4.2001001e-09
5.825822e-07
-1.1988104e-10
4.2998813e-07
1.6289223e-07
7.3869002e-10
1.2615746e-07
4.8021345e-09
3.7557563e-07
1.0549557e-08
5.5852102e-07
1.4022046e-08
6.3701652e-07
1.4722571e-08
6.451391e-07
1.4243782e-08
6.3245225e-07
1.3567257e-08
6.2129047e-07
1.2861841e-08
6.1409455e-07
1.2091788e-08
6.0902892e-07
1.1247132e-08
6.0505581e-07
1.0339929e-08
6.0182123e-07
9.3840564e-09
5.9916388e-07
8.3910572e-09
5.9697294e-07
7.3703948e-09
5.951665e-07
6.3298449e-09
5.936843e-07
5.2757826e-09
5.9248169e-07
4.2134462e-09
5.915254e-07
3.1471923e-09
5.9079077e-07
2.0807388e-09
5.9025998e-07
1.0173967e-09
5.8992079e-07
-3.970546e-11
5.8976587e-07
-1.0874027e-09
5.8979234e-07
-2.1222731e-09
5.9000172e-07
-3.1404086e-09
5.9039996e-07
-4.1371767e-09
5.9099791e-07
-5.1069643e-09
5.9181205e-07
-6.0429052e-09
5.9286573e-07
-6.9365861e-09
5.9419108e-07
-7.7777313e-09
5.9583197e-07
-8.5538577e-09
5.9784851e-07
-9.249925e-09
6.0032331e-07
-9.8498225e-09
6.0337507e-07
-1.0345395e-08
6.0722383e-07
-1.0740702e-08
6.1244193e-07
-1.0937047e-08
6.2018952e-07
-1.0346372e-08
6.2984598e-07
-7.8228481e-09
6.2864017e-07
-3.338312e-09
5.7809767e-07
4.021442e-11
4.266096e-07
1.6293244e-07
5.5182001e-10
1.2601089e-07
3.9411772e-09
3.7314784e-07
9.1942782e-09
5.5388332e-07
1.270181e-08
6.3369412e-07
1.3660544e-08
6.4418135e-07
1.3389263e-08
6.327041e-07
1.2846489e-08
6.218269e-07
1.2243764e-08
6.1469673e-07
1.1562018e-08
6.0971083e-07
1.0793175e-08
6.0582471e-07
9.9500842e-09
6.0266433e-07
9.0480565e-09
6.0006591e-07
8.100096e-09
5.9792091e-07
7.1169846e-09
5.9614961e-07
6.1077052e-09
5.9469358e-07
5.0797608e-09
5.9350963e-07
4.0394553e-09
5.925657e-07
2.9921638e-09
5.9183807e-07
1.9425871e-09
5.9130956e-07
8.9499637e-10
5.9096838e-07
-1.4653148e-10
5.908074e-07
-1.1778837e-09
5.908237e-07
-2.1946799e-09
5.9101852e-07
-3.1920339e-09
5.9139732e-07
-4.1643042e-09
5.9197018e-07
-5.104829e-09
5.9275258e-07
-6.0056465e-09
5.9376655e-07
-6.8572002e-09
5.9504264e-07
-7.6480234e-09
5.966228e-07
-8.3644224e-09
5.9856491e-07
-8.9902609e-09
6.0094915e-07
-9.5087938e-09
6.0389361e-07
-9.9118363e-09
6.0762687e-07
-1.0199057e-08
6.1272915e-07
-1.025494e-08
6.2024541e-07
-9.5002299e-09
6.2909127e-07
-6.9332451e-09
6.2607319e-07
-2.7555826e-09
5.7392001e-07
8.3395169e-11
4.2377063e-07
1.6301584e-07
4.2413328e-10
1.2598123e-07
3.3035576e-09
3.7127625e-07
8.1396221e-09
5.4973105e-07
1.1642012e-08
6.3041055e-07
1.2799551e-08
6.4303544e-07
1.2702606e-08
6.3278368e-07
1.2276371e-08
6.2224673e-07
1.1761889e-08
6.1521043e-07
1.1153577e-08
6.1031922e-07
1.0445523e-08
6.065328e-07
9.6517522e-09
6.034581e-07
8.7892366e-09
6.0092843e-07
7.8725751e-09
5.9883757e-07
6.9139191e-09
5.9710827e-07
5.9234425e-09
5.9568406e-07
4.9097083e-09
5.9452337e-07
3.8799805e-09
5.9359543e-07
2.8405206e-09
5.9287753e-07
1.7968631e-09
5.9235321e-07
7.5407719e-10
5.9201117e-07
-2.8298301e-10
5.9184446e-07
-1.3094342e-09
5.9185015e-07
-2.3201182e-09
5.920292e-07
-3.3093506e-09
5.9238655e-07
-4.2706554e-09
5.9293149e-07
-5.1964822e-09
5.9367841e-07
-6.0779041e-09
5.9464798e-07
-6.904302e-09
5.9586904e-07
-7.6630196e-09
5.9738152e-07
-8.3390241e-09
5.9924092e-07
-8.9147998e-09
6.0152493e-07
-9.3724115e-09
6.0435122e-07
-9.7025377e-09
6.07957e-07
-9.899923e-09
6.1292654e-07
-9.8355445e-09
6.2018103e-07
-8.9431891e-09
6.2819892e-07
-6.3435618e-09
6.2347356e-07
-2.405166e-09
5.6998161e-07
4.745152e-11
4.2131801e-07
1.630633e-07
3.5796455e-10
1.2600396e-07
2.8869412e-09
3.6976538e-07
7.4097072e-09
5.4594806e-07
1.0906194e-08
6.271665e-07
1.2227345e-08
6.4173944e-07
1.2279003e-08
6.3271872e-07
1.1952009e-08
6.2256782e-07
1.1508746e-08
6.1565271e-07
1.09555e-08
6.1087243e-07
1.0289346e-08
6.0719897e-07
9.5261757e-09
6.0422128e-07
8.6849956e-09
6.0176961e-07
7.7821778e-09
5.9974039e-07
6.8312861e-09
5.9805916e-07
5.8436427e-09
5.966717e-07
4.8287681e-09
5.9553825e-07
3.7947463e-09
5.9462946e-07
2.7485595e-09
5.9392372e-07
1.6963939e-09
5.9340538e-07
6.4392164e-10
5.9306364e-07
-4.0343117e-10
5.9289182e-07
-1.4402261e-09
5.9288695e-07
-2.4607511e-09
5.9304973e-07
-3.4587558e-09
5.9338456e-07
-4.427167e-09
5.938999e-07
-5.3577818e-09
5.9460903e-07
-6.2409304e-09
5.9553113e-07
-7.0651154e-09
5.9669323e-07
-7.8166045e-09
5.9813301e-07
-8.4789982e-09
5.9990332e-07
-9.0331409e-09
6.0207908e-07
-9.4591955e-09
6.0477728e-07
-9.7446555e-09
6.0824246e-07
-9.8753574e-09
6.1305724e-07
-9.7041103e-09
6.2000979e-07
-8.672051e-09
6.2716686e-07
-6.0078927e-09
6.2080941e-07
-2.2224147e-09
5.6619614e-07
-2.9995844e-11
4.191256e-07
1.630333e-07
3.4864703e-10
1.2602258e-07
2.6663049e-09
3.6844509e-07
6.9917596e-09
5.4240197e-07
1.0528085e-08
6.2391358e-07
1.2017536e-08
6.4028884e-07
1.2210069e-08
6.325172e-07
1.1967882e-08
6.2280464e-07
1.157605e-08
6.1604331e-07
1.1055704e-08
6.113926e-07
1.0409002e-08
6.0784566e-07
9.6546299e-09
6.0497566e-07
8.8140107e-09
6.0261023e-07
7.9053892e-09
6.0064901e-07
6.9436966e-09
5.9902086e-07
5.9412758e-09
5.9767412e-07
4.9084314e-09
5.9657109e-07
3.8538702e-09
5.9568402e-07
2.7850863e-09
5.949925e-07
1.7087005e-09
5.9448177e-07
6.3076481e-10
5.9414158e-07
-4.4295385e-10
5.9396554e-07
-1.5067035e-09
5.939507e-07
-2.5544728e-09
5.940975e-07
-3.579716e-09
5.944098e-07
-4.5750508e-09
5.9489524e-07
-5.531927e-09
5.955659e-07
-6.4402482e-09
5.9643945e-07
-7.2879454e-09
5.9754092e-07
-8.0604783e-09
5.9890554e-07
-8.7402409e-09
6.0058308e-07
-9.3063423e-09
6.0264518e-07
-9.7363173e-09
6.0520725e-07
-1.0011539e-08
6.0851769e-07
-1.010114e-08
6.1314684e-07
-9.8273486e-09
6.19736e-07
-8.6276815e-09
6.259672e-07
-5.8395479e-09
6.1802128e-07
-2.1306959e-09
5.6248729e-07
-1.1730272e-10
4.171122e-07
1.62916e-07
3.8223926e-10
1.2599711e-07
2.5898057e-09
3.6719627e-07
6.8195712e-09
5.3897312e-07
1.0475376e-08
6.2056627e-07
1.2180371e-08
6.3863275e-07
1.253115e-08
6.3215924e-07
1.2367033e-08
6.2296299e-07
1.2007088e-08
6.1640163e-07
1.1496448e-08
6.1190294e-07
1.0846267e-08
6.0849582e-07
1.0079168e-08
6.0574277e-07