/*--------------------------------*- C++ -*----------------------------------*\
  =========                 |
  \\      /  F ield         | OpenFOAM: The Open Source CFD Toolbox
   \\    /   O peration     | Website:  https://openfoam.org
    \\  /    A nd           | Version:  10
     \\/     M anipulation  |
\*---------------------------------------------------------------------------*/
FoamFile
{
    format      ascii;
    class       volVectorField;
    location    "0.06";
    object      U;
}
// * * * * * * * * * * * * * * * * * * * * * * * * * * * * * * * * * * * * * //

dimensions      [0 1 -1 0 0 0 0];

internalField   nonuniform List<vector> 
4000
(
(0 0.018617941 0.47774119)
(0 0.023473977 0.50885509)
(0 0.0081345667 0.50052636)
(0 0.0055830074 0.5003372)
(0 0.0042212518 0.50025759)
(0 0.0032212631 0.5001689)
(0 0.002523105 0.50011949)
(0 0.002022838 0.50008983)
(0 0.001646508 0.50006942)
(0 0.0013542004 0.50005494)
(0 0.0011214742 0.50004448)
(0 0.00093193729 0.50003677)
(0 0.00077429389 0.500031)
(0 0.00064053474 0.50002664)
(0 0.00052480463 0.50002333)
(0 0.00042270145 0.50002083)
(0 0.00033082078 0.50001897)
(0 0.00024644712 0.50001762)
(0 0.00016733684 0.50001672)
(0 9.1558673e-05 0.5000162)
(0 1.7371755e-05 0.50001604)
(0 -5.6884471e-05 0.50001623)
(0 -0.00013288104 0.50001678)
(0 -0.00021239211 0.50001773)
(0 -0.00029740853 0.50001914)
(0 -0.00039026849 0.50002109)
(0 -0.00049383106 0.50002371)
(0 -0.00061171742 0.50002719)
(0 -0.00074866108 0.5000318)
(0 -0.00091104047 0.50003796)
(0 -0.0011077341 0.50004626)
(0 -0.0013514923 0.5000577)
(0 -0.0016611845 0.5000737)
(0 -0.0020673059 0.5000968)
(0 -0.0026259897 0.5001347)
(0 -0.0034199985 0.50020258)
(0 -0.0045148339 0.50027259)
(0 -0.0065395922 0.50043536)
(0 -0.017611393 0.50674696)
(0 -0.013565005 0.47976925)
(0 0.037378231 0.44803508)
(0 0.050845537 0.53231781)
(0 0.021861328 0.50804333)
(0 0.016034201 0.50357874)
(0 0.012309199 0.5024243)
(0 0.0094090625 0.50162212)
(0 0.0074163143 0.50115455)
(0 0.0059696586 0.50086283)
(0 0.0048697477 0.50066407)
(0 0.004011801 0.50052442)
(0 0.0033266494 0.50042391)
(0 0.0027671853 0.50034996)
(0 0.002300908 0.50029471)
(0 0.0019046316 0.50025301)
(0 0.0015613148 0.50022141)
(0 0.0012580991 0.50019753)
(0 0.00098500991 0.50017975)
(0 0.00073407075 0.50016691)
(0 0.00049867732 0.50015826)
(0 0.00027313527 0.50015331)
(0 5.2303913e-05 0.50015177)
(0 -0.00016871713 0.50015358)
(0 -0.0003948598 0.50015886)
(0 -0.00063136058 0.50016792)
(0 -0.00088408599 0.50018131)
(0 -0.0011599132 0.50019988)
(0 -0.0014672312 0.50022489)
(0 -0.0018166342 0.50025814)
(0 -0.0022219215 0.5003023)
(0 -0.0027015908 0.50036127)
(0 -0.0032812254 0.50044103)
(0 -0.0039974774 0.50055112)
(0 -0.0049038104 0.50070672)
(0 -0.0060805726 0.50093349)
(0 -0.0076770955 0.50129309)
(0 -0.0099707293 0.50191225)
(0 -0.012959636 0.50283324)
(0 -0.017276313 0.50608502)
(0 -0.038609503 0.52525619)
(0 -0.027821324 0.45031217)
(0 0.039804885 0.41000025)
(0 0.061236751 0.54932634)
(0 0.031780016 0.52187392)
(0 0.024172718 0.5100902)
(0 0.019003328 0.50659117)
(0 0.014788192 0.5045251)
(0 0.01182308 0.50326485)
(0 0.0095958932 0.50244885)
(0 0.0078703449 0.50188916)
(0 0.0065103151 0.50149489)
(0 0.0054152213 0.50121013)
(0 0.0045152703 0.50100011)
(0 0.0037615125 0.50084292)
(0 0.0031183827 0.50072415)
(0 0.0025594146 0.50063404)
(0 0.0020644526 0.50056592)
(0 0.001617742 0.50051513)
(0 0.0012066039 0.50047847)
(0 0.00082048704 0.50045374)
(0 0.00045025769 0.50043956)
(0 8.7647088e-05 0.50043515)
(0 -0.00027523278 0.50044031)
(0 -0.00064632056 0.50045536)
(0 -0.0010340321 0.5004812)
(0 -0.0014477642 0.50051942)
(0 -0.0018984829 0.5005724)
(0 -0.0023994868 0.50064369)
(0 -0.0029674476 0.50073841)
(0 -0.0036238849 0.50086404)
(0 -0.004397295 0.50103158)
(0 -0.0053263745 0.50125768)
(0 -0.0064655495 0.50156861)
(0 -0.0078926488 0.50200674)
(0 -0.0097126331 0.50264076)
(0 -0.012098843 0.50361052)
(0 -0.015441408 0.50520305)
(0 -0.019608919 0.50787019)
(0 -0.024905823 0.51641037)
(0 -0.04715211 0.53914694)
(0 -0.03073438 0.41514078)
(0 0.034686686 0.36208568)
(0 0.063559823 0.55465816)
(0 0.039056409 0.53744924)
(0 0.029801409 0.51849936)
(0 0.023826399 0.51198042)
(0 0.018997104 0.50849213)
(0 0.015462747 0.50624955)
(0 0.012692962 0.50473482)
(0 0.010497763 0.50367911)
(0 0.0087397015 0.50292703)
(0 0.0073052751 0.50237892)
(0 0.0061144715 0.50197214)
(0 0.005109192 0.5016663)
(0 0.0042459493 0.50143438)
(0 0.0034917499 0.50125796)
(0 0.0028210764 0.50112428)
(0 0.0022137233 0.50102445)
(0 0.0016532591 0.50095228)
(0 0.0011258936 0.50090355)
(0 0.00061961096 0.50087555)
(0 0.00012348505 0.50086681)
(0 -0.00037292689 0.50087691)
(0 -0.00088013309 0.5009065)
(0 -0.0014092398 0.5009573)
(0 -0.0019725815 0.50103236)
(0 -0.0025844468 0.50113631)
(0 -0.0032619964 0.50127595)
(0 -0.0040264833 0.50146105)
(0 -0.0049049321 0.50170575)
(0 -0.0059324607 0.50203072)
(0 -0.0071553967 0.50246666)
(0 -0.0086365615 0.50306087)
(0 -0.010464138 0.50388849)
(0 -0.012745985 0.50506653)
(0 -0.015618435 0.50679511)
(0 -0.019486616 0.50947193)
(0 -0.024326853 0.51429242)
(0 -0.030665975 0.52822978)
(0 -0.049922226 0.54418598)
(0 -0.028276858 0.37289883)
(0 0.027305272 0.31542739)
(0 0.061945599 0.55047934)
(0 0.044146954 0.55143506)
(0 0.03357701 0.52747818)
(0 0.027066513 0.51772204)
(0 0.022065455 0.51290474)
(0 0.018261124 0.50970371)
(0 0.015170682 0.50745521)
(0 0.012670855 0.50585485)
(0 0.010631746 0.50469564)
(0 0.0089414363 0.50383988)
(0 0.007520646 0.50319885)
(0 0.0063090186 0.50271347)
(0 0.0052598482 0.50234336)
(0 0.0043368752 0.50206058)
(0 0.0035114783 0.50184558)
(0 0.002760604 0.50168457)
(0 0.0020652402 0.50156792)
(0 0.0014092484 0.50148901)
(0 0.00077844323 0.50144359)
(0 0.00015984779 0.50142931)
(0 -0.00045897321 0.50144554)
(0 -0.0010905301 0.50149327)
(0 -0.0017479905 0.50157525)
(0 -0.0024458761 0.50169621)
(0 -0.0032008435 0.50186342)
(0 -0.0040326449 0.5020874)
(0 -0.0049653564 0.50238321)
(0 -0.0060290067 0.50277234)
(0 -0.0072617648 0.50328573)
(0 -0.0087124456 0.50396841)
(0 -0.010444193 0.50488743)
(0 -0.012544759 0.50614625)
(0 -0.015119644 0.50790085)
(0 -0.018257785 0.51037916)
(0 -0.022323204 0.51405409)
(0 -0.027599728 0.52114727)
(0 -0.035054504 0.53928962)
(0 -0.04993296 0.5418504)
(0 -0.023888019 0.33142327)
(0 0.019710809 0.27605456)
(0 0.057531286 0.54021026)
(0 0.046732313 0.56254001)
(0 0.035921319 0.53655934)
(0 0.02910833 0.52349412)
(0 0.024163357 0.51737517)
(0 0.020282005 0.51331597)
(0 0.017043502 0.51038324)
(0 0.014378417 0.50825181)
(0 0.012164403 0.50668048)
(0 0.010299381 0.50550424)
(0 0.0087108498 0.50461365)
(0 0.00734076 0.50393346)
(0 0.0061429354 0.50341121)
(0 0.0050806858 0.50300999)
(0 0.0041243804 0.50270357)
(0 0.003249686 0.50247331)
(0 0.0024362073 0.502306)
(0 0.0016663969 0.50219255)
(0 0.00092466839 0.50212708)
(0 0.00019666203 0.50210634)
(0 -0.00053142658 0.50212943)
(0 -0.0012734801 0.50219773)
(0 -0.0020440403 0.50231504)
(0 -0.002859014 0.50248789)
(0 -0.0037364366 0.50272622)
(0 -0.0046973863 0.50304435)
(0 -0.0057671075 0.50346254)
(0 -0.0069764289 0.50400932)
(0 -0.00836369 0.50472506)
(0 -0.0099767609 0.50566735)
(0 -0.011874731 0.50691922)
(0 -0.014138749 0.50860475)
(0 -0.016872644 0.51090727)
(0 -0.020132255 0.51407196)
(0 -0.024215197 0.51871159)
(0 -0.029720271 0.52818921)
(0 -0.037735209 0.54867676)
(0 -0.047808821 0.53456872)
(0 -0.018837439 0.29523693)
(0 0.012951318 0.24372647)
(0 0.051252174 0.52598338)
(0 0.046895658 0.57026699)
(0 0.03701826 0.54542527)
(0 0.030169359 0.52924765)
(0 0.025419504 0.52175246)
(0 0.021612914 0.51692338)
(0 0.018364317 0.5133794)
(0 0.01564478 0.51075597)
(0 0.013344664 0.50879154)
(0 0.011376928 0.5073022)
(0 0.0096784057 0.50616245)
(0 0.0081959983 0.5052841)
(0 0.006886629 0.50460469)
(0 0.0057152673 0.50407954)
(0 0.004652947 0.50367649)
(0 0.0036754006 0.50337238)
(0 0.0027619305 0.50315068)
(0 0.0018944651 0.50299994)
(0 0.0010567668 0.50291267)
(0 0.00023375742 0.50288476)
(0 -0.00058910854 0.50291505)
(0 -0.0014264536 0.50300529)
(0 -0.0022935136 0.50316029)
(0 -0.0032068087 0.50338831)
(0 -0.0041848357 0.50370183)
(0 -0.0052488829 0.5041187)
(0 -0.0064239958 0.5046639)
(0 -0.0077401219 0.50537217)
(0 -0.0092337155 0.5062919)
(0 -0.010949576 0.50749103)
(0 -0.012940802 0.50906544)
(0 -0.015277786 0.51115434)
(0 -0.018058159 0.51395963)
(0 -0.021316191 0.51775368)
(0 -0.025290648 0.5234097)
(0 -0.030806741 0.53525926)
(0 -0.038588448 0.55586733)
(0 -0.044030248 0.52382531)
(0 -0.013833404 0.26446287)
(0 0.007634852 0.21706853)
(0 0.044191885 0.5092187)
(0 0.045241979 0.57449546)
(0 0.037080787 0.5535812)
(0 0.030426106 0.53486976)
(0 0.025952225 0.52594822)
(0 0.02234065 0.52042604)
(0 0.019192414 0.51635044)
(0 0.016506698 0.51328494)
(0 0.014193933 0.51095902)
(0 0.012185158 0.50917606)
(0 0.010427675 0.50779815)
(0 0.0088750945 0.50672712)
(0 0.0074891327 0.50589258)
(0 0.0062378404 0.50524353)
(0 0.0050941517 0.50474282)
(0 0.0040349253 0.50436341)
(0 0.0030400602 0.50408584)
(0 0.0020917314 0.50389653)
(0 0.0011737269 0.50378655)
(0 0.00027086651 0.50375098)
(0 -0.00063154763 0.50378843)
(0 -0.0015482855 0.50390097)
(0 -0.0024946505 0.50409435)
(0 -0.003487083 0.50437837)
(0 -0.0045437509 0.50476778)
(0 -0.0056852321 0.50528353)
(0 -0.0069353071 0.50595465)
(0 -0.0083218169 0.50682108)
(0 -0.0098778599 0.50793777)
(0 -0.011643554 0.50938099)
(0 -0.013664885 0.5112571)
(0 -0.015998852 0.51371671)
(0 -0.018729711 0.51697221)
(0 -0.021877289 0.52133907)
(0 -0.025655477 0.52805368)
(0 -0.031010492 0.54199504)
(0 -0.037924529 0.56054041)
(0 -0.039294442 0.51065223)
(0 -0.0094244709 0.23828226)
(0 0.0038674793 0.19547787)
(0 0.037176982 0.49124054)
(0 0.042456122 0.57552093)
(0 0.036358892 0.56059431)
(0 0.030079758 0.54019258)
(0 0.025912182 0.52987971)
(0 0.022567096 0.52373848)
(0 0.019595656 0.51921779)
(0 0.01700994 0.51577015)
(0 0.014743031 0.51312365)
(0 0.012744062 0.51107507)
(0 0.010971003 0.5094777)
(0 0.0093852319 0.50822616)
(0 0.0079542472 0.50724419)
(0 0.0066500721 0.50647589)
(0 0.0054483963 0.50588016)
(0 0.0043279845 0.50542679)
(0 0.0032700303 0.50509392)
(0 0.0022575835 0.50486614)
(0 0.0012750317 0.50473332)
(0 0.00030762871 0.5046898)
(0 -0.00065895634 0.504734)
(0 -0.0016391182 0.50486829)
(0 -0.0026476837 0.50509919)
(0 -0.0037004276 0.50543781)
(0 -0.0048145432 0.50590083)
(0 -0.0060091782 0.50651173)
(0 -0.0073060453 0.50730287)
(0 -0.0087300173 0.50831834)
(0 -0.010309851 0.50961819)
(0 -0.012079801 0.511285)
(0 -0.014078162 0.51343311)
(0 -0.016348239 0.51622062)
(0 -0.018957029 0.51986356)
(0 -0.02191663 0.52473979)
(0 -0.025450231 0.53249889)
(0 -0.03051661 0.54802414)
(0 -0.036178225 0.56272109)
(0 -0.034204621 0.49609481)
(0 -0.0058901392 0.21637147)
(0 0.0014138323 0.17848552)
(0 0.030684335 0.47319018)
(0 0.039064961 0.57391997)
(0 0.035066862 0.56626394)
(0 0.029313816 0.54509832)
(0 0.025456556 0.53350032)
(0 0.022402959 0.52680116)
(0 0.019650602 0.52192033)
(0 0.017208725 0.51815663)
(0 0.015030311 0.51523673)
(0 0.013080365 0.51295631)
(0 0.011326784 0.51116359)
(0 0.009738895 0.50974866)
(0 0.008290267 0.50863122)
(0 0.0069573229 0.50775194)
(0 0.005719019 0.50706677)
(0 0.0045565402 0.50654313)
(0 0.0034528728 0.50615725)
(0 0.0023924185 0.5058923)
(0 0.0013606191 0.50573717)
(0 0.00034360102 0.50568561)
(0 -0.00067216887 0.50573586)
(0 -0.0017002763 0.50589052)
(0 -0.0027546264 0.50615672)
(0 -0.003849862 0.50654667)
(0 -0.0050017092 0.5070785)
(0 -0.0062273636 0.50777769)
(0 -0.0075459214 0.50867912)
(0 -0.0089787618 0.50982995)
(0 -0.01054983 0.5112939)
(0 -0.012286994 0.51315785)
(0 -0.014220909 0.51554129)
(0 -0.016382692 0.51860603)
(0 -0.018822324 0.52256915)
(0 -0.02155052 0.52789515)
(0 -0.024815533 0.53663604)
(0 -0.029485693 0.55312408)
(0 -0.033721164 0.56271691)
(0 -0.029158425 0.48111127)
(0 -0.0032521836 0.1985104)
(0 -5.621077e-05 0.16534513)
(0 0.024954998 0.45584637)
(0 0.03543433 0.57032511)
(0 0.033373657 0.57057575)
(0 0.028264694 0.54953241)
(0 0.024715176 0.53680674)
(0 0.021948824 0.5295921)
(0 0.019432688 0.52442327)
(0 0.017159777 0.52040782)
(0 0.015097786 0.5172629)
(0 0.013224808 0.51478679)
(0 0.011517396 0.51282579)
(0 0.0099522529 0.51126756)
(0 0.0085087489 0.51002947)
(0 0.0071677388 0.50904998)
(0 0.0059116452 0.50828311)
(0 0.0047243448 0.50769462)
(0 0.0035909278 0.50725937)
(0 0.0024974753 0.5069595)
(0 0.0014308169 0.50678311)
(0 0.00037828509 0.50672355)
(0 -0.00067252203 0.50677889)
(0 -0.0017340443 0.5069519)
(0 -0.0028189266 0.50725017)
(0 -0.003940337 0.50768667)
(0 -0.0051121931 0.50828063)
(0 -0.0063494089 0.50905893)
(0 -0.0076681607 0.51005817)
(0 -0.0090861146 0.51132757)
(0 -0.010622381 0.51293319)
(0 -0.012298532 0.51496443)
(0 -0.014138048 0.51754351)
(0 -0.016161797 0.52083299)
(0 -0.018405188 0.52505369)
(0 -0.020882929 0.5307815)
(0 -0.023865203 0.54040351)
(0 -0.028048253 0.55721031)
(0 -0.030846129 0.56094263)
(0 -0.024404244 0.46640693)
(0 -0.001395979 0.18424231)
(0 -0.00084081143 0.1552365)
(0 0.020082115 0.4396545)
(0 0.031811354 0.56530244)
(0 0.031419881 0.57361115)
(0 0.027029767 0.55346959)
(0 0.023784598 0.5398149)
(0 0.021286795 0.5321161)
(0 0.019008195 0.5267147)
(0 0.016915864 0.52250441)
(0 0.014986582 0.5191799)
(0 0.013208993 0.51654353)
(0 0.011566904 0.51444186)
(0 0.010043457 0.51276165)
(0 0.0086232393 0.51141918)
(0 0.0072913008 0.51035175)
(0 0.0060334879 0.50951229)
(0 0.0048364418 0.50886555)
(0 0.0036875045 0.50838551)
(0 0.0025746303 0.5080536)
(0 0.0014862542 0.50785743)
(0 0.00041114558 0.50779)
(0 -0.00066172895 0.50784929)
(0 -0.0017434239 0.50803815)
(0 -0.0028450897 0.50836448)
(0 -0.0039781954 0.50884174)
(0 -0.0051546477 0.50948984)
(0 -0.0063869184 0.51033655)
(0 -0.0076881671 0.51141947)
(0 -0.0090723587 0.51278897)
(0 -0.010554016 0.51451235)
(0 -0.012148871 0.51668022)
(0 -0.013873852 0.51941567)
(0 -0.015741275 0.52288028)
(0 -0.017775217 0.52730473)
(0 -0.019998727 0.53339447)
(0 -0.022689212 0.54376201)
(0 -0.026319936 0.56028021)
(0 -0.027783428 0.55781117)
(0 -0.020091609 0.45243651)
(0 -0.00016323435 0.17298641)
(0 -0.0011759506 0.1474693)
(0 0.016053999 0.42484394)
(0 0.02834797 0.55932836)
(0 0.029320859 0.5754998)
(0 0.025680459 0.55689785)
(0 0.022735811 0.54254136)
(0 0.020482194 0.53438904)
(0 0.018432571 0.52879591)
(0 0.016522996 0.52443878)
(0 0.0147342 0.5209754)
(0 0.013063019 0.51821173)
(0 0.011499142 0.51599595)
(0 0.01003113 0.51421493)
(0 0.0086480992 0.51278471)
(0 0.0073389157 0.51164225)
(0 0.0060926507 0.51074002)
(0 0.0048986398 0.5100423)
(0 0.0037464995 0.50952262)
(0 0.002626137 0.50916201)
(0 0.0015277096 0.50894776)
(0 0.0004415619 0.50887268)
(0 -0.00064182382 0.50893466)
(0 -0.0017319674 0.50913657)
(0 -0.0028383862 0.50948645)
(0 -0.0039707302 0.50999803)
(0 -0.0051388097 0.51069154)
(0 -0.0063526266 0.51159515)
(0 -0.0076223765 0.51274688)
(0 -0.008958485 0.5141975)
(0 -0.010371259 0.5160147)
(0 -0.0118712 0.51828933)
(0 -0.013469397 0.52114405)
(0 -0.015171103 0.52473874)
(0 -0.016992401 0.52932152)
(0 -0.018967553 0.53573458)
(0 -0.02136161 0.54668376)
(0 -0.024404039 0.56238384)
(0 -0.024702516 0.55369952)
(0 -0.016290733 0.43948095)
(0 0.00060498929 0.16420598)
(0 -0.0012354956 0.14150529)
(0 0.01279078 0.41151188)
(0 0.025120761 0.55279404)
(0 0.027162552 0.57639721)
(0 0.024267476 0.55981917)
(0 0.021620027 0.54499995)
(0 0.019586371 0.53642993)
(0 0.017751402 0.53067475)
(0 0.016020284 0.52621028)
(0 0.01437367 0.52264376)
(0 0.012814314 0.51978263)
(0 0.011336507 0.51747745)
(0 0.0099332713 0.51561581)
(0 0.0085975688 0.51411411)
(0 0.0073216381 0.5129095)
(0 0.0060974943 0.51195452)
(0 0.0049170085 0.51121338)
(0 0.0037720037 0.51065948)
(0 0.0026543333 0.51027372)
(0 0.0015559109 0.51004325)
(0 0.00046871509 0.50996077)
(0 -0.00061518635 0.5100241)
(0 -0.001703708 0.51023608)
(0 -0.002804677 0.51060479)
(0 -0.0039258911 0.51114394)
(0 -0.005075071 0.51187383)
(0 -0.0062598167 0.51282261)
(0 -0.0074875135 0.51402823)
(0 -0.0087653024 0.5155413)
(0 -0.0100997 0.51742922)
(0 -0.011496634 0.51978235)
(0 -0.012962127 0.522722)
(0 -0.014495741 0.52640666)
(0 -0.016108477 0.5311094)
(0 -0.017846535 0.53780442)
(0 -0.019942974 0.54915524)
(0 -0.022386834 0.56360885)
(0 -0.021714922 0.54893766)
(0 -0.013010011 0.42770309)
(0 0.0010474201 0.1574512)
(0 -0.0011401946 0.13692254)
(0 0.010179165 0.39966776)
(0 0.022155147 0.54600928)
(0 0.025003081 0.57646499)
(0 0.022824052 0.5622486)
(0 0.020472183 0.54720276)
(0 0.018638371 0.53825828)
(0 0.017001446 0.53236277)
(0 0.015440528 0.52782273)
(0 0.013933632 0.524184)
(0 0.012487349 0.52125202)
(0 0.011099505 0.51887993)
(0 0.0097667589 0.51695644)
(0 0.0084852843 0.51539867)
(0 0.007250247 0.51414437)
(0 0.0060562888 0.51314645)
(0 0.0048976083 0.51236939)
(0 0.0037681077 0.51178674)
(0 0.0026615166 0.51137943)
(0 0.0015714754 0.51113464)
(0 0.00049159239 0.51104504)
(0 -0.00058447338 0.51110837)
(0 -0.0016630252 0.51132742)
(0 -0.0027502089 0.51171014)
(0 -0.0038520051 0.51227011)
(0 -0.0049741216 0.51302739)
(0 -0.0061218926 0.51400982)
(0 -0.0073001126 0.51525489)
(0 -0.0085129495 0.51681257)
(0 -0.0097635771 0.51874949)
(0 -0.011053988 0.52115494)
(0 -0.012385881 0.52414833)
(0 -0.013754367 0.52788783)
(0 -0.015167437 0.53267797)
(0 -0.016681651 0.53960939)
(0 -0.018481803 0.55117793)
(0 -0.020336957 0.56406365)
(0 -0.018886908 0.54379972)
(0 -0.010218225 0.41717631)
(0 0.0012715777 0.15234422)
(0 -0.00097044649 0.13339346)
(0 0.0080975939 0.38926415)
(0 0.019447364 0.53920911)
(0 0.022879463 0.57585446)
(0 0.021371368 0.56420863)
(0 0.019315471 0.54915937)
(0 0.017667326 0.53989212)
(0 0.016212129 0.53387326)
(0 0.014811254 0.52928297)
(0 0.013438994 0.5255985)
(0 0.012104052 0.52261912)
(0 0.010807009 0.52020029)
(0 0.0095475189 0.51823209)
(0 0.0083244226 0.51663255)
(0 0.0071353976 0.51534025)
(0 0.005977395 0.51430875)
(0 0.0048467105 0.51350301)
(0 0.0037391631 0.51289692)
(0 0.002650247 0.51247162)
(0 0.0015752543 0.51221439)
(0 0.00050937043 0.51211793)
(0 -0.00055219686 0.51217995)
(0 -0.0016141837 0.51240312)
(0 -0.0026811143 0.51279517)
(0 -0.0037572386 0.51336939)
(0 -0.0048463784 0.51414542)
(0 -0.0059517859 0.51515051)
(0 -0.0070759236 0.51642141)
(0 -0.0082203291 0.5180071)
(0 -0.0093852768 0.51997303)
(0 -0.010569406 0.52240701)
(0 -0.011770744 0.52542628)
(0 -0.012980994 0.52919031)
(0 -0.014206302 0.53403952)
(0 -0.015510049 0.54115693)
(0 -0.017017693 0.5527645)
(0 -0.018309316 0.56386123)
(0 -0.016255569 0.5385011)
(0 -0.00786471 0.40790639)
(0 0.0013519853 0.14856883)
(0 -0.00077751651 0.13067203)
(0 0.0064316931 0.38022198)
(0 0.016980149 0.53256478)
(0 0.020815329 0.57469806)
(0 0.019924708 0.56572419)
(0 0.018166718 0.55087579)
(0 0.016695914 0.5413461)
(0 0.015407795 0.53521956)
(0 0.014156233 0.53059947)
(0 0.012911985 0.52689193)
(0 0.011684587 0.52388572)
(0 0.010476888 0.52143811)
(0 0.0092910707 0.51944061)
(0 0.0081282037 0.51781235)
(0 0.0069881156 0.51649285)
(0 0.0058697697 0.51543651)
(0 0.0047713264 0.51460891)
(0 0.0036903433 0.51398441)
(0 0.0026239434 0.5135445)
(0 0.0015689654 0.51327664)
(0 0.00052208666 0.51317361)
(0 -0.00052001358 0.51323307)
(0 -0.001560584 0.51345753)
(0 -0.0026026235 0.51385446)
(0 -0.0036487716 0.51443672)
(0 -0.0047011256 0.5152234)
(0 -0.0057610674 0.51624096)
(0 -0.0068290088 0.51752515)
(0 -0.00790421 0.51912373)
(0 -0.0089844758 0.52110067)
(0 -0.01006562 0.52354199)
(0 -0.011142556 0.52656263)
(0 -0.01220445 0.53032515)
(0 -0.013256022 0.53520767)
(0 -0.014362615 0.54245576)
(0 -0.01558471 0.55393499)
(0 -0.01634954 0.56310899)
(0 -0.013842287 0.53320305)
(0 -0.0058950729 0.39985253)
(0 0.0013356638 0.14586525)
(0 -0.00059150935 0.12857932)
(0 0.0050839506 0.37244782)
(0 0.014733026 0.52619599)
(0 0.018827498 0.57310732)
(0 0.018498168 0.56682024)
(0 0.017040512 0.55235471)
(0 0.015743197 0.54263101)
(0 0.014609433 0.53641389)
(0 0.013496458 0.5317814)
(0 0.012372647 0.52807038)
(0 0.01124755 0.52505545)
(0 0.010126029 0.52259497)
(0 0.0090124511 0.52058197)
(0 0.0079097751 0.51893674)
(0 0.0068196765 0.51759988)
(0 0.0057428637 0.5165267)
(0 0.0046791414 0.51568355)
(0 0.0036276256 0.51504537)
(0 0.0025869221 0.51459403)
(0 0.0015552954 0.51431726)
(0 0.00053081046 0.51420792)
(0 -0.00048848087 0.51426365)
(0 -0.0015044421 0.51448678)
(0 -0.0025186629 0.51488445)
(0 -0.0035323133 0.51546904)
(0 -0.0045459442 0.51625892)
(0 -0.0055592916 0.51727967)
(0 -0.0065710028 0.51856588)
(0 -0.0075784136 0.52016388)
(0 -0.0085772746 0.52213595)
(0 -0.0095610792 0.52456605)
(0 -0.010522143 0.52756686)
(0 -0.011447843 0.53130555)
(0 -0.012341482 0.536197)
(0 -0.013264976 0.54351648)
(0 -0.014212868 0.55471525)
(0 -0.014496808 0.56190495)
(0 -0.011662088 0.52802147)
(0 -0.0042632032 0.39294373)
(0 0.0012508727 0.14401893)
(0 -0.00042771142 0.12698742)
(0 0.0039793196 0.36584288)
(0 0.012688966 0.52018157)
(0 0.016930771 0.57117405)
(0 0.017106797 0.56752126)
(0 0.015950509 0.55359709)
(0 0.014825085 0.54375463)
(0 0.013834351 0.53746734)
(0 0.012849266 0.53283816)
(0 0.0118376 0.52914089)
(0 0.01080851 0.52613325)
(0 0.0097687151 0.523674)
(0 0.0087245032 0.52165776)
(0 0.0076804567 0.52000609)
(0 0.0066398429 0.51866072)
(0 0.0056048795 0.517578)
(0 0.0045768138 0.51672509)
(0 0.0035561491 0.51607756)
(0 0.0025428281 0.51561775)
(0 0.0015364158 0.51533366)
(0 0.00053625379 0.51521828)
(0 -0.00045834473 0.51526923)
(0 -0.0014479697 0.51548862)
(0 -0.0024329228 0.51588326)
(0 -0.0034130518 0.51646495)
(0 -0.0043875385 0.51725133)
(0 -0.005354692 0.51826698)
(0 -0.0063116691 0.51954524)
(0 -0.0072542204 0.52113089)
(0 -0.0081764385 0.52308435)
(0 -0.0090699929 0.52548733)
(0 -0.009925147 0.52845038)
(0 -0.010728172 0.53214633)
(0 -0.011480875 0.5370233)
(0 -0.012236858 0.54435294)
(0 -0.012927518 0.55513725)
(0 -0.01278469 0.56033833)
(0 -0.0097286182 0.52303733)
(0 -0.0029371342 0.38708908)
(0 0.0011156285 0.14284627)
(0 -0.00029216763 0.12580423)
(0 0.0030663993 0.36030608)
(0 0.010838437 0.51456878)
(0 0.015140781 0.56897365)
(0 0.015766283 0.56785239)
(0 0.014908031 0.55460462)
(0 0.013952486 0.54472359)
(0 0.013093957 0.53839051)
(0 0.012225908 0.53377947)
(0 0.011317487 0.53011118)
(0 0.010377311 0.52712503)
(0 0.0094138168 0.5246795)
(0 0.0084349709 0.52267088)
(0 0.0074467629 0.52102213)
(0 0.0064538353 0.51967621)
(0 0.0054597126 0.51859051)
(0 0.0044669067 0.51773307)
(0 0.0034771517 0.51708014)
(0 0.0024915907 0.51661455)
(0 0.0015109664 0.51632461)
(0 0.00053578513 0.51620345)
(0 -0.0004334879 0.51624865)
(0 -0.0013962808 0.51646213)
(0 -0.0023517263 0.51685029)
(0 -0.0032984868 0.5174244)
(0 -0.0042345357 0.51820128)
(0 -0.0051569487 0.51920449)
(0 -0.0060616293 0.52046605)
(0 -0.0069430414 0.52202916)
(0 -0.007793975 0.5239523)
(0 -0.0086047356 0.52631482)
(0 -0.0093641158 0.52922535)
(0 -0.010057924 0.53286304)
(0 -0.010686544 0.5377035)
(0 -0.011291998 0.5449833)
(0 -0.011748636 0.55524003)
(0 -0.011240893 0.55849219)
(0 -0.0080551495 0.51830652)
(0 -0.0018956424 0.38218473)
(0 0.0009446334 0.14218123)
(0 -0.00018579277 0.12496013)
(0 0.0023145437 0.35573367)
(0 0.0091816501 0.50938116)
(0 0.013475836 0.56657031)
(0 0.014492217 0.56784228)
(0 0.013920615 0.55538264)
(0 0.013130021 0.54554515)
(0 0.012392658 0.53919411)
(0 0.011630576 0.53461538)
(0 0.010816029 0.53098954)
(0 0.0099570689 0.52803741)
(0 0.0090636513 0.52561663)
(0 0.0081452012 0.52362526)
(0 0.0072089386 0.52198774)
(0 0.0062607047 0.52064834)
(0 0.0053051659 0.51956554)
(0 0.0043459499 0.51870828)
(0 0.003385886 0.51805352)
(0 0.002427194 0.51758459)
(0 0.0014716792 0.51729012)
(0 0.00052090492 0.51716338)
(0 -0.00042361603 0.51720193)
(0 -0.0013602555 0.51740749)
(0 -0.0022870881 0.51778606)
(0 -0.0032017078 0.51834832)
(0 -0.0041010112 0.5191103)
(0 -0.0049809911 0.52009451)
(0 -0.0058364741 0.52133168)
(0 -0.0066608575 0.52286341)
(0 -0.0074458982 0.52474623)
(0 -0.0081808897 0.52705714)
(0 -0.008853682 0.52990323)
(0 -0.0094502055 0.5334703)
(0 -0.0099696675 0.53825446)
(0 -0.010441684 0.54542952)
(0 -0.010693059 0.55506979)
(0 -0.009888185 0.5564458)
(0 -0.0066533072 0.51386571)
(0 -0.0011222729 0.37811851)
(0 0.0007527768 0.14187593)
(0 -0.00010647942 0.12439717)
(0 0.0017087134 0.35201647)
(0 0.0077295906 0.50462398)
(0 0.011959654 0.56402275)
(0 0.013302417 0.56752709)
(0 0.012995001 0.55594307)
(0 0.012359945 0.54622861)
(0 0.01173231 0.53988916)
(0 0.011065106 0.53535623)
(0 0.010334751 0.53178468)
(0 0.0095487254 0.52887766)
(0 0.0087182995 0.52649142)
(0 0.0078541758 0.52452583)
(0 0.0069646837 0.52290694)
(0 0.0060567416 0.52158036)
(0 0.0051360394 0.5205057)
(0 0.0042072059 0.51965283)
(0 0.0032740534 0.51899941)
(0 0.0023397692 0.51852929)
(0 0.0014071146 0.51823144)
(0 0.00047860485 0.51809928)
(0 -0.00044330094 0.51813033)
(0 -0.0013560199 0.5183261)
(0 -0.00225667 0.51869221)
(0 -0.003141877 0.51923873)
(0 -0.0040075612 0.5199809)
(0 -0.0048487353 0.52094018)
(0 -0.0056592529 0.52214603)
(0 -0.006431559 0.52363848)
(0 -0.0071565186 0.52547219)
(0 -0.0078225827 0.52772193)
(0 -0.0084169716 0.53049373)
(0 -0.0089261716 0.53398028)
(0 -0.0093485031 0.5386913)
(0 -0.0097026845 0.5457156)
(0 -0.0097807184 0.55467783)
(0 -0.0087478769 0.55427406)
(0 -0.0055306902 0.50973234)
(0 -0.00059867794 0.37476208)
(0 0.00055999624 0.14179573)
(0 -4.9881736e-05 0.12406099)
(0 0.0012436723 0.34903562)
(0 0.0065028458 0.50028563)
(0 0.010625262 0.5613876)
(0 0.012224147 0.566953)
(0 0.012147249 0.55630616)
(0 0.011653706 0.5467858)
(0 0.011124122 0.54048683)
(0 0.010540845 0.53601237)
(0 0.0098845769 0.53250577)
(0 0.0091622791 0.52965383)
(0 0.008386434 0.527311)
(0 0.0075689387 0.52537889)
(0 0.0067191924 0.52378529)
(0 0.0058451383 0.52247719)
(0 0.0049534217 0.52141536)
(0 0.0040495913 0.52057061)
(0 0.0031383505 0.51992135)
(0 0.0022237548 0.51945194)
(0 0.0013094172 0.51915171)
(0 0.00039869729 0.51901423)
(0 -0.00050510608 0.51903697)
(0 -0.0013985628 0.51922125)
(0 -0.0022779372 0.51957227)
(0 -0.0031389833 0.52009951)
(0 -0.0039767322 0.52081736)
(0 -0.004785288 0.52174629)
(0 -0.0055575808 0.52291445)
(0 -0.0062851219 0.52436037)
(0 -0.0069578889 0.52613688)
(0 -0.0075634586 0.52831671)
(0 -0.0080883886 0.53100535)
(0 -0.0085198535 0.53440282)
(0 -0.0088554051 0.53902672)
(0 -0.0091053343 0.54586525)
(0 -0.0090408113 0.5541151)
(0 -0.0078418189 0.55204157)
(0 -0.0046859543 0.50590197)
(0 -0.00029419266 0.37197803)
(0 0.00038474051 0.14182677)
(0 -1.0111988e-05 0.12389544)
(0 0.00091771911 0.34665972)
(0 0.0055256568 0.49633496)
(0 0.0095163164 0.55871638)
(0 0.011302418 0.56617365)
(0 0.011416154 0.55649945)
(0 0.011046931 0.54723073)
(0 0.010603426 0.54099831)
(0 0.010092795 0.53659445)
(0 0.0094993644 0.53316291)
(0 0.0088298135 0.53037548)
(0 0.0080979483 0.52808436)
(0 0.0073169145 0.52619289)
(0 0.0064972361 0.52463068)
(0 0.0056478906 0.52334618)
(0 0.0047764472 0.5223014)
(0 0.0038893141 0.52146812)
(0 0.0029920008 0.52082552)
(0 0.0020893296 0.52035854)
(0 0.0011856522 0.52005683)
(0 0.00028505083 0.51991414)
(0 -0.00060845954 0.51992792)
(0 -0.0014907294 0.52009925)
(0 -0.0023572927 0.5204329)
(0 -0.0032031492 0.52093774)
(0 -0.0040225438 0.52162732)
(0 -0.004808752 0.52252103)
(0 -0.0055538261 0.52364573)
(0 -0.0062483255 0.52503838)
(0 -0.0068812594 0.52675003)
(0 -0.0074391669 0.52885152)
(0 -0.0079075768 0.53144825)
(0 -0.008274038 0.53474803)
(0 -0.0085349592 0.53927245)
(0 -0.0086932897 0.54589965)
(0 -0.0085102009 0.55342354)
(0 -0.007187252 0.54979092)
(0 -0.0041012822 0.50234315)
(0 -0.00016241021 0.36963025)
(0 0.00023785109 0.14187966)
(0 1.9140809e-05 0.12384082)
(0 0.00072592144 0.344747)
(0 0.0048135508 0.4927172)
(0 0.0086793998 0.55604453)
(0 0.010599937 0.56524006)
(0 0.010868913 0.55655309)
(0 0.010606606 0.54757881)
(0 0.010236336 0.54143549)
(0 0.0097854616 0.53711446)
(0 0.0092412046 0.53376828)
(0 0.0086105584 0.53105471)
(0 0.0079089979 0.52882335)
(0 0.0071510915 0.52697931)
(0 0.0063486052 0.52545413)
(0 0.005511582 0.52419792)
(0 0.0046484856 0.52317398)
(0 0.0037665142 0.52235518)
(0 0.0028718838 0.52172151)
(0 0.0019700623 0.52125852)
(0 0.0010660053 0.52095624)
(0 0.00016437141 0.5208086)
(0 -0.00073026166 0.52081302)
(0 -0.0016131847 0.52097033)
(0 -0.0024793619 0.5212849)
(0 -0.0033231991 0.52176492)
(0 -0.0041383079 0.52242305)
(0 -0.0049172682 0.52327754)
(0 -0.0056513573 0.52435388)
(0 -0.0063302173 0.52568738)
(0 -0.0069418232 0.5273272)
(0 -0.0074715149 0.52934226)
(0 -0.0079032691 0.53183815)
(0 -0.0082241899 0.53503059)
(0 -0.0084282308 0.53944228)
(0 -0.0085082761 0.54583554)
(0 -0.0082183204 0.55262619)
(0 -0.0067832983 0.54753022)
(0 -0.0037350887 0.49899526)
(0 -0.00014790888 0.3675893)
(0 0.00012421252 0.14189616)
(0 4.3384904e-05 0.12383711)
(0 0.00065405298 0.34315461)
(0 0.0043574935 0.48935399)
(0 0.0081440628 0.55337627)
(0 0.010179849 0.56418432)
(0 0.010587005 0.5564913)
(0 0.010418374 0.54784534)
(0 0.010107265 0.54181223)
(0 0.0097003242 0.5375872)
(0 0.0091881957 0.53433735)
(0 0.0085792732 0.53170708)
(0 0.0078911747 0.52954328)
(0 0.0071401063 0.52775297)
(0 0.0063391808 0.52626998)
(0 0.0054994943 0.52504621)
(0 0.004630332 0.52404647)
(0 0.0037395711 0.52324479)
(0 0.0028339965 0.5226221)
(0 0.0019195681 0.52216458)
(0 0.0010016802 0.52186271)
(0 8.5393337e-05 0.52171061)
(0 -0.00082433713 0.52170568)
(0 -0.0017224345 0.52184853)
(0 -0.0026034946 0.52214308)
(0 -0.0034615392 0.5225968)
(0 -0.0042897615 0.52322144)
(0 -0.005080257 0.52403403)
(0 -0.0058237271 0.52505854)
(0 -0.0065090524 0.52632847)
(0 -0.0071232193 0.52789083)
(0 -0.0076503327 0.52981244)
(0 -0.0080723764 0.53219889)
(0 -0.00837474 0.53527294)
(0 -0.0085462446 0.53955416)
(0 -0.008561923 0.54568311)
(0 -0.0081610903 0.55172029)
(0 -0.0065933461 0.54522927)
(0 -0.0035192668 0.49577976)
(0 -0.00019567732 0.36574838)
(0 4.2603362e-05 0.14184636)
(0 6.6104987e-05 0.12383131)
(0 0.00067538378 0.34175478)
(0 0.0041126555 0.48615316)
(0 0.0078965344 0.55067532)
(0 0.010072049 0.56300382)
(0 0.010629809 0.55632222)
(0 0.010551109 0.54804293)