/*--------------------------------*- C++ -*----------------------------------*\
  =========                 |
  \\      /  F ield         | OpenFOAM: The Open Source CFD Toolbox
   \\    /   O peration     | Website:  https://openfoam.org
    \\  /    A nd           | Version:  10
     \\/     M anipulation  |
\*---------------------------------------------------------------------------*/
FoamFile
{
    format      ascii;
    class       volVectorField;
    location    "0.06";
    object      U_0;
}
// * * * * * * * * * * * * * * * * * * * * * * * * * * * * * * * * * * * * * //

dimensions      [0 1 -1 0 0 0 0];

internalField   nonuniform List<vector> 
4000
(
(0 0.018616686 0.4777418)
(0 0.023471698 0.50885472)
(0 0.0081325846 0.50052642)
(0 0.0055811137 0.50033724)
(0 0.0042192932 0.50025759)
(0 0.0032193269 0.50016888)
(0 0.0025212468 0.50011948)
(0 0.0020210824 0.50008981)
(0 0.0016448715 0.5000694)
(0 0.0013526943 0.50005491)
(0 0.0011201056 0.50004445)
(0 0.00093071011 0.50003674)
(0 0.00077321014 0.50003097)
(0 0.00063959512 0.50002661)
(0 0.00052400919 0.5000233)
(0 0.00042205 0.5000208)
(0 0.00033031329 0.50001894)
(0 0.00024608396 0.50001759)
(0 0.00016711897 0.50001668)
(0 9.1487862e-05 0.50001616)
(0 1.7450611e-05 0.500016)
(0 -5.6652346e-05 0.50001619)
(0 -0.00013249115 0.50001675)
(0 -0.00021183902 0.5000177)
(0 -0.00029668609 0.5000191)
(0 -0.00038937 0.50002105)
(0 -0.00049274957 0.50002367)
(0 -0.00061044619 0.50002715)
(0 -0.00074719425 0.50003176)
(0 -0.00090937392 0.50003792)
(0 -0.0011058668 0.50004622)
(0 -0.0013494278 0.50005766)
(0 -0.0016589339 0.50007367)
(0 -0.0020648896 0.50009677)
(0 -0.0026234426 0.50013468)
(0 -0.0034173971 0.50020257)
(0 -0.004512302 0.50027264)
(0 -0.006537017 0.50043544)
(0 -0.017608576 0.50674652)
(0 -0.013563506 0.47977005)
(0 0.037374686 0.44803928)
(0 0.050838483 0.53231716)
(0 0.02185461 0.50804324)
(0 0.016028062 0.50357899)
(0 0.012302871 0.50242428)
(0 0.0094028742 0.50162199)
(0 0.0074104052 0.50115436)
(0 0.0059640912 0.50086259)
(0 0.0048645716 0.50066381)
(0 0.0040070482 0.50052413)
(0 0.0033223382 0.50042361)
(0 0.0027633251 0.50034966)
(0 0.0022975022 0.50029441)
(0 0.00190168 0.50025271)
(0 0.0015588156 0.50022111)
(0 0.0012560499 0.50019723)
(0 0.00098340921 0.50017945)
(0 0.00073291863 0.50016661)
(0 0.00049797609 0.50015796)
(0 0.00027288997 0.500153)
(0 5.2522635e-05 0.50015146)
(0 -0.00016802308 0.50015326)
(0 -0.00039367584 0.50015852)
(0 -0.00062966902 0.50016757)
(0 -0.0008818664 0.50018095)
(0 -0.0011571429 0.50019951)
(0 -0.0014638864 0.5002245)
(0 -0.0018126913 0.50025774)
(0 -0.002217359 0.50030188)
(0 -0.002696392 0.50036084)
(0 -0.0032753825 0.50044061)
(0 -0.0039909968 0.50055071)
(0 -0.0048967206 0.50070634)
(0 -0.0060729329 0.50093317)
(0 -0.0076689976 0.50129285)
(0 -0.0099623673 0.50191217)
(0 -0.012951458 0.50283353)
(0 -0.017267714 0.50608508)
(0 -0.038600641 0.52525531)
(0 -0.027816894 0.45031785)
(0 0.03979938 0.41001182)
(0 0.061224346 0.54932718)
(0 0.031767166 0.52187305)
(0 0.024161542 0.51009049)
(0 0.018991967 0.50659103)
(0 0.014777181 0.50452465)
(0 0.011812627 0.50326423)
(0 0.009586085 0.50244811)
(0 0.0078612594 0.50188835)
(0 0.006501998 0.50149403)
(0 0.0054076954 0.50120924)
(0 0.0045085449 0.50099921)
(0 0.0037555873 0.50084202)
(0 0.0031132521 0.50072325)
(0 0.0025550708 0.50063315)
(0 0.002060888 0.50056503)
(0 0.0016149511 0.50051425)
(0 0.0012045845 0.50047758)
(0 0.00081924157 0.50045285)
(0 0.00044979399 0.50043865)
(0 8.7978776e-05 0.50043422)
(0 -0.00027408587 0.50043935)
(0 -0.00064433233 0.50045437)
(0 -0.0010311703 0.50048018)
(0 -0.0014439911 0.50051835)
(0 -0.001893756 0.50057128)
(0 -0.0023937605 0.50064252)
(0 -0.0029606753 0.50073721)
(0 -0.0036160221 0.50086279)
(0 -0.0043883045 0.50103031)
(0 -0.0053162321 0.5012564)
(0 -0.0064542527 0.50156736)
(0 -0.0078802311 0.50200557)
(0 -0.009699182 0.50263975)
(0 -0.012084488 0.50360975)
(0 -0.015426423 0.50520273)
(0 -0.019594082 0.5078706)
(0 -0.024889478 0.51640973)
(0 -0.047136173 0.53914762)
(0 -0.030727055 0.41515638)
(0 0.034679644 0.36210879)
(0 0.063541494 0.55466365)
(0 0.03903569 0.53744701)
(0 0.029783986 0.51849907)
(0 0.023809182 0.51197995)
(0 0.018980557 0.50849109)
(0 0.015447136 0.50624817)
(0 0.012678393 0.50473321)
(0 0.010484331 0.50367735)
(0 0.0087274541 0.5029252)
(0 0.0072942285 0.50237704)
(0 0.0061046253 0.50197025)
(0 0.0051005342 0.50166442)
(0 0.004238462 0.50143251)
(0 0.0034854136 0.50125611)
(0 0.0028158733 0.50112244)
(0 0.0022096402 0.50102262)
(0 0.001650289 0.50095045)
(0 0.0011240371 0.50090171)
(0 0.00061887779 0.50087369)
(0 0.00012389423 0.50086491)
(0 -0.00037134615 0.50087495)
(0 -0.00087734139 0.50090447)
(0 -0.0014051876 0.50095519)
(0 -0.0019672097 0.50103016)
(0 -0.0025776877 0.50113401)
(0 -0.0032537758 0.50127353)
(0 -0.0040167231 0.50145853)
(0 -0.0048935549 0.50170314)
(0 -0.0059193955 0.50202803)
(0 -0.0071405881 0.50246395)
(0 -0.0086199804 0.50305819)
(0 -0.0104458 0.50388595)
(0 -0.012725984 0.50506428)
(0 -0.015596916 0.50679334)
(0 -0.019463905 0.50947103)
(0 -0.024303829 0.51429227)
(0 -0.030639512 0.52822754)
(0 -0.049897955 0.54419184)
(0 -0.028266745 0.37293014)
(0 0.027297133 0.31546571)
(0 0.061921026 0.55049385)
(0 0.044116653 0.55143143)
(0 0.033551714 0.52747618)
(0 0.02704243 0.51772078)
(0 0.022042529 0.51290272)
(0 0.018239636 0.50970112)
(0 0.015150756 0.50745227)
(0 0.012652589 0.50585171)
(0 0.010615166 0.50469239)
(0 0.0089265403 0.50383658)
(0 0.0075074104 0.50319556)
(0 0.0062974084 0.50271021)
(0 0.0052498237 0.50234013)
(0 0.0043283972 0.5020574)
(0 0.003504513 0.50184243)
(0 0.0027551254 0.50168145)
(0 0.0020612327 0.5015648)
(0 0.0014067087 0.50148587)
(0 0.00077738129 0.50144041)
(0 0.0001602879 0.50142606)
(0 -0.00045699166 0.50144219)
(0 -0.0010869524 0.50148981)
(0 -0.0017427463 0.50157164)
(0 -0.0024388803 0.50169243)
(0 -0.003191997 0.50185945)
(0 -0.0040218364 0.50208323)
(0 -0.0049524657 0.50237883)
(0 -0.0060139094 0.50276777)
(0 -0.0072443396 0.50328101)
(0 -0.0086925855 0.5039636)
(0 -0.010421818 0.50488263)
(0 -0.012519834 0.50614163)
(0 -0.015092234 0.50789665)
(0 -0.018228033 0.51037574)
(0 -0.022291437 0.51405192)
(0 -0.027566486 0.52114518)
(0 -0.035015314 0.53928509)
(0 -0.049899233 0.54186658)
(0 -0.023875324 0.33147612)
(0 0.019701953 0.27611128)
(0 0.057500361 0.54023921)
(0 0.046690865 0.56253585)
(0 0.035886202 0.53655408)
(0 0.02907615 0.52349121)
(0 0.024133082 0.5173716)
(0 0.020253823 0.51331158)
(0 0.017017556 0.51037839)
(0 0.014354782 0.50824671)
(0 0.012143062 0.50667527)
(0 0.010280291 0.50549902)
(0 0.0086939491 0.50460847)
(0 0.0073259755 0.50392836)
(0 0.0061301934 0.5034062)
(0 0.0050699182 0.50300507)
(0 0.0041155291 0.50269873)
(0 0.0032427065 0.50246852)
(0 0.0024310711 0.50230122)
(0 0.0016630933 0.50218776)
(0 0.00092320627 0.50212223)
(0 0.00019707041 0.50210138)
(0 -0.00052909731 0.50212432)
(0 -0.0012691577 0.50219244)
(0 -0.0020376303 0.50230951)
(0 -0.0028503999 0.50248208)
(0 -0.0037254803 0.5027201)
(0 -0.0046839296 0.50303789)
(0 -0.0057509753 0.50345572)
(0 -0.0069574338 0.50400216)
(0 -0.0083416396 0.5047176)
(0 -0.0099514708 0.50565967)
(0 -0.01184604 0.50691147)
(0 -0.014106532 0.50859715)
(0 -0.016836891 0.51090018)
(0 -0.020093074 0.51406594)
(0 -0.024172829 0.51870697)
(0 -0.029674386 0.52818305)
(0 -0.03768071 0.54866995)
(0 -0.047764708 0.53460182)
(0 -0.018822377 0.29531712)
(0 0.012941986 0.2438047)
(0 0.051214858 0.52603314)
(0 0.046841602 0.57026426)
(0 0.03697115 0.54541502)
(0 0.030127598 0.52924175)
(0 0.025380794 0.52174653)
(0 0.021577147 0.51691644)
(0 0.018331637 0.51337189)
(0 0.015615212 0.51074823)
(0 0.013318119 0.50878374)
(0 0.011353299 0.50729446)
(0 0.0096575689 0.50615485)
(0 0.0081778256 0.50527668)
(0 0.0068709985 0.50459745)
(0 0.0057020699 0.50407247)
(0 0.0046420913 0.50366955)
(0 0.0036668164 0.50336554)
(0 0.0027555711 0.50314389)
(0 0.0018903094 0.50299313)
(0 0.0010548201 0.50290578)
(0 0.00023405295 0.50287772)
(0 -0.00058650875 0.50290779)
(0 -0.0014214576 0.50299775)
(0 -0.0022859991 0.50315239)
(0 -0.0031966219 0.50337999)
(0 -0.0041717917 0.50369302)
(0 -0.0052327659 0.50410935)
(0 -0.0064045614 0.504654)
(0 -0.0077171008 0.5053617)
(0 -0.0092068205 0.50628089)
(0 -0.010918515 0.50747959)
(0 -0.012905293 0.50905373)
(0 -0.015237572 0.51114265)
(0 -0.018013097 0.51394844)
(0 -0.021266312 0.51774377)
(0 -0.025235934 0.52340078)
(0 -0.030745508 0.53524633)
(0 -0.038516172 0.55585925)
(0 -0.043974943 0.52388333)
(0 -0.013816079 0.26457643)
(0 0.0076251886 0.21717138)
(0 0.044148102 0.5092967)
(0 0.045173892 0.57449723)
(0 0.037019357 0.55356427)
(0 0.030373011 0.53485894)
(0 0.025903871 0.52593878)
(0 0.022296344 0.52041558)
(0 0.019152255 0.51633938)
(0 0.016470623 0.51327372)
(0 0.014161748 0.51094787)
(0 0.01215666 0.50916513)
(0 0.010402654 0.50778752)
(0 0.0088533431 0.50671682)
(0 0.0074704641 0.5058826)
(0 0.0062220909 0.50523385)
(0 0.0050811862 0.50473337)
(0 0.0040246399 0.50435413)
(0 0.0030323845 0.50407665)
(0 0.0020866293 0.50388733)
(0 0.0011711983 0.50377726)
(0 0.00027094762 0.50374149)
(0 -0.00062878252 0.50377863)
(0 -0.0015427228 0.50389077)
(0 -0.0024861361 0.50408363)
(0 -0.0034754204 0.50436704)
(0 -0.0045287 0.50475573)
(0 -0.0056665081 0.50527068)
(0 -0.0069125807 0.50594094)
(0 -0.0082947168 0.50680647)
(0 -0.0098459768 0.50792228)
(0 -0.011606453 0.50936471)
(0 -0.013622123 0.51124023)
(0 -0.015949981 0.51369957)
(0 -0.018674394 0.51695543)
(0 -0.021815407 0.52132352)
(0 -0.025586485 0.52803785)
(0 -0.030931037 0.54197231)
(0 -0.037832129 0.56053326)
(0 -0.039227213 0.51074458)
(0 -0.0094048465 0.23843554)
(0 0.0038576606 0.1956083)
(0 0.037126549 0.49135521)
(0 0.042372557 0.57553144)
(0 0.036280705 0.56056921)
(0 0.030013324 0.54017437)
(0 0.025852854 0.52986518)
(0 0.022513263 0.52372327)
(0 0.019547271 0.51920206)
(0 0.01696681 0.51575445)
(0 0.014704809 0.51310827)
(0 0.012710411 0.51106017)
(0 0.010941593 0.50946336)
(0 0.0093597547 0.50821239)
(0 0.0079324297 0.50723095)
(0 0.0066316806 0.50646312)
(0 0.0054332403 0.50586776)
(0 0.0043159178 0.50541467)
(0 0.0032609522 0.50508194)
(0 0.0022514391 0.50485418)
(0 0.0012718123 0.50472125)
(0 0.00030737278 0.50467748)
(0 -0.0006561621 0.50472127)
(0 -0.0016331369 0.50485501)
(0 -0.0026383259 0.50508519)
(0 -0.0036874486 0.50542296)
(0 -0.0047976396 0.50588496)
(0 -0.0059879848 0.50649472)
(0 -0.0072801325 0.50728459)
(0 -0.00869889 0.50829871)
(0 -0.010272949 0.50959719)
(0 -0.012036508 0.51126269)
(0 -0.014027822 0.51340966)
(0 -0.016290156 0.5161964)
(0 -0.018890594 0.51983933)
(0 -0.021841455 0.52471632)
(0 -0.025364907 0.53247273)
(0 -0.03041602 0.54798842)
(0 -0.036063477 0.56271824)
(0 -0.03412473 0.49623224)
(0 -0.005868059 0.21657099)
(0 0.0014041373 0.17864633)
(0 0.030626889 0.47335091)
(0 0.038964362 0.57394455)
(0 0.034969385 0.56622943)
(0 0.029231834 0.54506966)
(0 0.02538483 0.53347858)
(0 0.022338618 0.52677966)
(0 0.019593293 0.52189857)
(0 0.017158059 0.51813526)
(0 0.014985735 0.5152161)
(0 0.013041361 0.51293657)
(0 0.011292865 0.5111448)
(0 0.0097096196 0.50973077)
(0 0.0082652554 0.50861417)
(0 0.0069362548 0.5077356)
(0 0.0057016359 0.507051)
(0 0.0045426445 0.50652777)
(0 0.0034423272 0.50614213)
(0 0.0023851446 0.50587725)
(0 0.001356597 0.50572198)
(0 0.00034286994 0.5056701)
(0 -0.00066950985 0.50571983)
(0 -0.0016940655 0.50587375)
(0 -0.0027446363 0.50613901)
(0 -0.0038357948 0.50652779)
(0 -0.0049831911 0.50705824)
(0 -0.0062039383 0.50775585)
(0 -0.0075170439 0.50865549)
(0 -0.008943792 0.50980437)
(0 -0.010508028 0.51126627)
(0 -0.012237521 0.51312815)
(0 -0.014162841 0.51550966)
(0 -0.016315012 0.51857283)
(0 -0.018744063 0.52253524)
(0 -0.021460857 0.52786086)
(0 -0.024711807 0.53659531)
(0 -0.029361144 0.55307212)
(0 -0.033581946 0.56272279)
(0 -0.029065022 0.4813057)
(0 -0.0032274319 0.19876284)
(0 -6.5437924e-05 0.16553912)
(0 0.024889923 0.45606364)
(0 0.035314931 0.57037018)
(0 0.033254255 0.57053086)
(0 0.028164822 0.54948965)
(0 0.024629578 0.53677505)
(0 0.021873054 0.52956237)
(0 0.019365865 0.52439387)
(0 0.017101222 0.52037941)
(0 0.015046673 0.51723587)
(0 0.01318038 0.51476125)
(0 0.011478964 0.51280173)
(0 0.0099192148 0.51124488)
(0 0.0084805921 0.51000803)
(0 0.0071440391 0.50902959)
(0 0.0058920634 0.50826355)
(0 0.0047086231 0.50767566)
(0 0.0035788854 0.50724078)
(0 0.0024890061 0.50694102)
(0 0.001425887 0.5067645)
(0 0.00037693273 0.50670455)
(0 -0.00067018557 0.50675922)
(0 -0.0017278317 0.50693129)
(0 -0.0028085701 0.50722833)
(0 -0.0039254819 0.50766329)
(0 -0.0050923892 0.50825541)
(0 -0.0063241 0.50903157)
(0 -0.0076366728 0.51002836)
(0 -0.0090476432 0.51129504)
(0 -0.010575978 0.51289771)
(0 -0.012243095 0.51492587)
(0 -0.014072327 0.51750189)
(0 -0.016084377 0.52078864)
(0 -0.018314633 0.52500744)
(0 -0.020777766 0.53073277)
(0 -0.023741135 0.54034314)
(0 -0.027897142 0.55713882)
(0 -0.030680404 0.56096256)
(0 -0.024296266 0.46667138)
(0 -0.0013682406 0.18455476)
(0 -0.00084923047 0.15546698)
(0 0.02000851 0.43993993)
(0 0.031671121 0.5653754)
(0 0.031275854 0.5735551)
(0 0.026909622 0.55340845)
(0 0.023683667 0.53976976)
(0 0.021198783 0.53207572)
(0 0.018931423 0.52667574)
(0 0.016849231 0.52246737)
(0 0.014928907 0.51914516)
(0 0.013159218 0.51651113)
(0 0.01152409 0.51441168)
(0 0.010006805 0.5127335)
(0 0.0085920802 0.51139279)
(0 0.0072650899 0.51032684)
(0 0.0060117935 0.50948855)
(0 0.0048189369 0.50884265)
(0 0.0036739595 0.50836315)
(0 0.0025649068 0.50803144)
(0 0.0014803018 0.50783513)
(0 0.00040900009 0.50776723)
(0 -0.00065994474 0.5078257)
(0 -0.0017374967 0.50801337)
(0 -0.0028347101 0.50833813)
(0 -0.0039629491 0.50881342)
(0 -0.0051340037 0.50945914)
(0 -0.0063602142 0.51030303)
(0 -0.0076545893 0.51138269)
(0 -0.0090309225 0.51274849)
(0 -0.01050354 0.51446777)
(0 -0.012087951 0.51663123)
(0 -0.013800854 0.5193621)
(0 -0.015654308 0.52282233)
(0 -0.017672243 0.52724303)
(0 -0.019877368 0.53332694)
(0 -0.02254319 0.54367615)
(0 -0.026140066 0.56018587)
(0 -0.027589294 0.55785108)
(0 -0.019967733 0.45278497)
(0 -0.00013186162 0.17336671)
(0 -0.0011833452 0.14774123)
(0 0.015970655 0.42521033)
(0 0.028184677 0.55943743)
(0 0.029149568 0.57543188)
(0 0.025537758 0.55681338)
(0 0.022618176 0.54247847)
(0 0.020381289 0.53433505)
(0 0.018345607 0.52874515)
(0 0.01644828 0.52439132)
(0 0.014670101 0.52093153)
(0 0.013008108 0.51817135)
(0 0.011452182 0.51595878)
(0 0.0099910905 0.51418061)
(0 0.0086141348 0.51275284)
(0 0.0073103444 0.51161239)
(0 0.006068938 0.51071176)
(0 0.0048793827 0.5100152)
(0 0.0037314141 0.50949625)
(0 0.0026150495 0.50913595)
(0 0.0015205506 0.50892158)
(0 0.00043836327 0.50884595)
(0 -0.00064092835 0.50890692)
(0 -0.0017267385 0.50910736)
(0 -0.0028284722 0.5094553)
(0 -0.003955656 0.50996439)
(0 -0.0051179615 0.51065488)
(0 -0.0063252317 0.51155487)
(0 -0.0075874764 0.51270235)
(0 -0.0089149039 0.51414809)
(0 -0.010317564 0.51595977)
(0 -0.011805654 0.51822828)
(0 -0.013389931 0.52107643)
(0 -0.015075268 0.52466451)
(0 -0.016877412 0.52924083)
(0 -0.018829843 0.53564313)
(0 -0.02119267 0.54656588)
(0 -0.024193965 0.56226317)
(0 -0.024478435 0.55376552)
(0 -0.016149412 0.43992807)
(0 0.00064105074 0.16466327)
(0 -0.001241983 0.14182606)
(0 0.01269611 0.41197315)
(0 0.024932222 0.552948)
(0 0.026961706 0.57631668)
(0 0.024100298 0.5597058)
(0 0.0214846 0.5449142)
(0 0.019472222 0.53635881)
(0 0.017654304 0.53060965)
(0 0.015937747 0.52615042)
(0 0.014303508 0.52258924)
(0 0.012754655 0.51973312)
(0 0.011285771 0.51743242)
(0 0.009890168 0.51557467)
(0 0.0085610558 0.51407626)
(0 0.0072908857 0.51287435)
(0 0.0060718571 0.51192147)
(0 0.0048960019 0.51118186)
(0 0.0037552858 0.51062895)
(0 0.0026416918 0.51024363)
(0 0.0015472552 0.51001306)
(0 0.00046407196 0.50992995)
(0 -0.00061567334 0.50999208)
(0 -0.001699774 0.51020229)
(0 -0.0027959283 0.5105686)
(0 -0.0039117921 0.51110469)
(0 -0.0050549255 0.51183081)
(0 -0.0062327421 0.51277504)
(0 -0.0074524064 0.51397527)
(0 -0.0087207941 0.51548204)
(0 -0.010044101 0.51736271)
(0 -0.011427858 0.51970762)
(0 -0.012877634 0.5226382)
(0 -0.014392459 0.5263133)
(0 -0.015982719 0.53100579)
(0 -0.017693258 0.53768331)
(0 -0.019751311 0.54899824)
(0 -0.02214645 0.56345815)
(0 -0.021460223 0.54903545)
(0 -0.012849649 0.42826347)
(0 0.0010890355 0.15799633)
(0 -0.0011463162 0.13730178)
(0 0.010071156 0.40023874)
(0 0.021939612 0.54621709)
(0 0.024771185 0.57637092)
(0 0.022631299 0.56210013)
(0 0.020318593 0.54708824)
(0 0.018511312 0.53816596)
(0 0.016894909 0.53228047)
(0 0.015350999 0.52774838)
(0 0.01385826 0.52411728)
(0 0.012423756 0.52119225)
(0 0.011045729 0.51882622)
(0 0.0097212298 0.51690791)
(0 0.0084467504 0.51535446)
(0 0.0072177224 0.51410365)
(0 0.0060290115 0.51310845)
(0 0.0048750074 0.51233337)
(0 0.0037497792 0.51175201)
(0 0.0026472067 0.51134531)
(0 0.0015610697 0.51110046)
(0 0.00048511036 0.51101013)
(0 -0.00058687993 0.51107205)
(0 -0.0016610673 0.51128899)
(0 -0.0027434523 0.51166882)
(0 -0.0038398558 0.51222508)
(0 -0.0049558042 0.51297776)
(0 -0.0060964201 0.51395458)
(0 -0.0072662443 0.51519294)
(0 -0.0084691345 0.51674269)
(0 -0.0097078811 0.51867032)
(0 -0.010983987 0.52106503)
(0 -0.012298562 0.52404627)
(0 -0.013646009 0.52777247)
(0 -0.015033345 0.53254727)
(0 -0.016515044 0.5394524)
(0 -0.018269427 0.5509744)
(0 -0.020068252 0.56387895)
(0 -0.018602573 0.54393398)
(0 -0.010037638 0.41786351)
(0 0.0013182898 0.15298973)
(0 -0.00097690211 0.13384201)
(0 0.0079740464 0.38996021)
(0 0.019204058 0.53947925)
(0 0.022616456 0.5757454)
(0 0.021153488 0.56401831)
(0 0.019144772 0.54900949)
(0 0.017528991 0.53977403)
(0 0.016098025 0.53377072)
(0 0.014716617 0.52919199)
(0 0.013360215 0.52551808)
(0 0.012038202 0.52254805)
(0 0.010751726 0.52013722)
(0 0.0095009412 0.51817572)
(0 0.0082850836 0.51658171)
(0 0.0071021502 0.51529384)
(0 0.0059493557 0.51426578)
(0 0.0048232171 0.51346255)
(0 0.0037197448 0.5128581)
(0 0.0026346039 0.51243361)
(0 0.0015632442 0.51217638)
(0 0.00050100262 0.51207911)
(0 -0.00055676512 0.51213949)
(0 -0.0016146418 0.51236016)
(0 -0.0026769898 0.51274879)
(0 -0.0037478821 0.51331858)
(0 -0.0048309406 0.51408908)
(0 -0.0059291842 0.5150874)
(0 -0.0070447949 0.51635012)
(0 -0.0081789635 0.51792603)
(0 -0.0093315292 0.51988035)
(0 -0.010500562 0.5223007)
(0 -0.011683372 0.52530417)
(0 -0.012870778 0.52905032)
(0 -0.014067537 0.53387766)
(0 -0.015334071 0.54095784)
(0 -0.016788916 0.55250706)
(0 -0.01801706 0.56363825)
(0 -0.015945193 0.5386749)
(0 -0.007664171 0.40873189)
(0 0.0014011807 0.14932796)
(0 -0.00078468077 0.13120089)
(0 0.0062910728 0.38105847)
(0 0.016709946 0.53290461)
(0 0.020523293 0.57457177)
(0 0.019684406 0.56548474)
(0 0.017981984 0.55068345)
(0 0.016549658 0.54119737)
(0 0.015289466 0.53509368)
(0 0.014059658 0.53048984)
(0 0.012832751 0.52679646)
(0 0.011619209 0.52380248)
(0 0.010422615 0.52136515)
(0 0.009245755 0.51937615)
(0 0.0080901648 0.51775482)
(0 0.0069560435 0.51644084)
(0 0.0058426551 0.51538875)
(0 0.0047484104 0.51456427)
(0 0.0036710826 0.51394183)
(0 0.0026079867 0.51350297)
(0 0.0015561384 0.51323519)
(0 0.00051238522 0.51313126)
(0 -0.00052642906 0.51318884)
(0 -0.0015633828 0.51341039)
(0 -0.0026012953 0.51380332)
(0 -0.0036426129 0.51438038)
(0 -0.0046892159 0.51516051)
(0 -0.005742235 0.51617003)
(0 -0.0068017825 0.51744444)
(0 -0.007866748 0.51903123)
(0 -0.0089344688 0.52099403)
(0 -0.010000143 0.52341849)
(0 -0.011057873 0.52641922)
(0 -0.012095793 0.5301585)
(0 -0.013116868 0.53501123)
(0 -0.01418252 0.542209)
(0 -0.01534598 0.55361688)
(0 -0.01604154 0.56284345)
(0 -0.013513057 0.53341759)
(0 -0.005678195 0.40082483)
(0 0.0013827531 0.14674959)
(0 -0.00059915115 0.12919865)
(0 0.0049267966 0.37343918)
(0 0.014439209 0.52661106)
(0 0.018511149 0.57296047)
(0 0.018240509 0.56652393)
(0 0.016846577 0.55211262)
(0 0.015593558 0.54244679)
(0 0.014491011 0.5362618)
(0 0.01340166 0.53165137)
(0 0.012296308 0.52795881)
(0 0.011185692 0.52495945)
(0 0.01007555 0.52251184)
(0 0.0089709402 0.52050938)
(0 0.0078753486 0.51887266)
(0 0.006790864 0.51754255)
(0 0.0057185282 0.51647457)
(0 0.0046584236 0.51563524)
(0 0.0036099063 0.51499959)
(0 0.0025717958 0.51454959)
(0 0.0015425544 0.51427299)
(0 0.00052043595 0.51416269)
(0 -0.00049632291 0.51421629)
(0 -0.0015093966 0.51443608)
(0 -0.0025201773 0.51482911)
(0 -0.0035296231 0.51540765)
(0 -0.0045380496 0.5161899)
(0 -0.0055449253 0.51720123)
(0 -0.0065485834 0.51847595)
(0 -0.0075459776 0.52006002)
(0 -0.008532379 0.52201526)
(0 -0.0095006605 0.52442507)
(0 -0.010442299 0.52740157)
(0 -0.011343563 0.5311111)
(0 -0.012205786 0.5359637)
(0 -0.013086158 0.54321797)
(0 -0.01397178 0.55433139)
(0 -0.014183497 0.56159355)
(0 -0.011325425 0.52827682)
(0 -0.0040388309 0.39406729)
(0 0.0012904269 0.14503478)
(0 -0.00043514026 0.12770542)
(0 0.0038095149 0.36700124)
(0 0.012378001 0.5206755)
(0 0.016597485 0.57100267)
(0 0.016838315 0.56716067)
(0 0.015752448 0.55329855)
(0 0.014676 0.54353074)
(0 0.01371892 0.53728676)
(0 0.012758701 0.53268649)
(0 0.011766145 0.52901252)
(0 0.010751803 0.52602418)
(0 0.0097233691 0.5235807)
(0 0.0086878761 0.52157725)
(0 0.0076504759 0.51993585)
(0 0.0066148835 0.51859862)
(0 0.0055836793 0.51752215)
(0 0.004558415 0.51667383)
(0 0.0035398584 0.51602939)
(0 0.0025281894 0.51557124)
(0 0.0015231922 0.51528745)
(0 0.00052441905 0.51517103)
(0 -0.00046861114 0.51521957)
(0 -0.0014562778 0.51543516)
(0 -0.0024386632 0.51582446)
(0 -0.0034153803 0.51639919)
(0 -0.0043853529 0.51717676)
(0 -0.0053466004 0.51818151)
(0 -0.0062959467 0.51944643)
(0 -0.0072287491 0.52101588)
(0 -0.008138618 0.52294969)
(0 -0.0090166239 0.52532884)
(0 -0.0098522379 0.52826307)
(0 -0.010630622 0.53192374)
(0 -0.011351643 0.53675218)
(0 -0.012063935 0.54400089)
(0 -0.012691713 0.55468573)
(0 -0.012478257 0.55998055)
(0 -0.0093999645 0.52333396)
(0 -0.0027189092 0.3883635)
(0 0.0011427971 0.14399129)
(0 -0.00029860636 0.12662569)
(0 0.0028915167 0.36163952)
(0 0.010520765 0.51514358)
(0 0.014800519 0.56877461)
(0 0.015493811 0.56742204)
(0 0.014709369 0.55424474)
(0 0.013805462 0.5444571)
(0 0.012981915 0.53818002)
(0 0.012139287 0.53360547)
(0 0.011250141 0.52996575)
(0 0.010324608 0.52700291)
(0 0.0093721253 0.52457629)
(0 0.0084014366 0.52258292)
(0 0.007419132 0.52094637)
(0 0.0064303318 0.51961009)
(0 0.0054389534 0.51853181)
(0 0.0044478423 0.51767984)
(0 0.0034590233 0.5170306)
(0 0.0024739012 0.51656704)
(0 0.0014934602 0.51627754)
(0 0.00051843929 0.51615526)
(0 -0.00045046856 0.51619775)
(0 -0.0014124577 0.51640689)
(0 -0.0023664165 0.51678896)
(0 -0.003310744 0.51735507)
(0 -0.0042431238 0.51812182)
(0 -0.0051603072 0.51911248)
(0 -0.0060578292 0.52035869)
(0 -0.0069297304 0.52190315)
(0 -0.007768298 0.52380363)
(0 -0.0085632432 0.52613865)
(0 -0.0093026409 0.52901579)
(0 -0.0099712419 0.53261208)
(0 -0.010567725 0.53739442)
(0 -0.011129904 0.54457831)
(0 -0.011526263 0.55472345)
(0 -0.010954967 0.5580922)
(0 -0.0077531064 0.51864648)
(0 -0.0016989403 0.38360488)
(0 0.0009565301 0.14344253)
(0 -0.00019059798 0.12588499)
(0 0.0021451383 0.35724408)
(0 0.0088725719 0.51003749)
(0 0.013142038 0.56634358)
(0 0.014223454 0.56734112)
(0 0.01372387 0.55495974)
(0 0.012985034 0.54523487)
(0 0.012282966 0.53895317)
(0 0.011546308 0.53441893)
(0 0.010750755 0.53082718)
(0 0.0099058871 0.52790263)
(0 0.0090226668 0.52550412)
(0 0.008111322 0.52353065)
(0 0.007179712 0.52190745)
(0 0.0062341962 0.52057934)
(0 0.0052798735 0.51950523)
(0 0.0043207393 0.51865439)
(0 0.0033599429 0.51800397)
(0 0.00239999 0.51753745)
(0 0.0014429487 0.51724356)
(0 0.00049063342 0.51711561)
(0 -0.00045519573 0.51715111)
(0 -0.0013926559 0.51735172)
(0 -0.0023195525 0.51772334)
(0 -0.003233185 0.51827644)
(0 -0.0041301208 0.51902681)
(0 -0.0050059797 0.51999662)
(0 -0.0058551597 0.52121616)
(0 -0.0066705687 0.52272646)
(0 -0.0074433951 0.5245833)
(0 -0.0081622721 0.52686271)
(0 -0.008814344 0.52967061)
(0 -0.0093845112 0.53319011)
(0 -0.0098705624 0.53790721)
(0 -0.01029976 0.54497396)
(0 -0.010495963 0.5544955)
(0 -0.0096389633 0.55601286)
(0 -0.0063977276 0.51425112)
(0 -0.00096192105 0.37967232)
(0 0.00074899085 0.14323183)
(0 -0.0001090516 0.12541932)
(0 0.0015570024 0.35369681)
(0 0.0074496633 0.50535988)
(0 0.011651702 0.56377302)
(0 0.013049999 0.56696062)
(0 0.012806955 0.5554597)
(0 0.012221362 0.54587509)
(0 0.011628638 0.53961789)
(0 0.010986445 0.53513761)
(0 0.010274247 0.53160601)
(0 0.0095010474 0.52873114)
(0 0.0086791724 0.52637082)
(0 0.0078202001 0.52442604)
(0 0.0069331685 0.52282377)
(0 0.0060255791 0.52151028)
(0 0.0051036081 0.52044569)
(0 0.0041722924 0.51960024)
(0 0.0032357938 0.51895185)
(0 0.0022976062 0.51848456)
(0 0.0013607675 0.51818743)
(0 0.00042805424 0.51805393)
(0 -0.00049781776 0.51808156)
(0 -0.0014140003 0.51827174)
(0 -0.0023173268 0.51862995)
(0 -0.0032041041 0.51916604)
(0 -0.0040698877 0.51989494)
(0 -0.0049092647 0.52083773)
(0 -0.0057155852 0.52202336)
(0 -0.0064807048 0.52349122)
(0 -0.0071948004 0.52529513)
(0 -0.0078455005 0.52750879)
(0 -0.0084191794 0.53023693)
(0 -0.0089012043 0.53366935)
(0 -0.0092885845 0.53830504)
(0 -0.0096000418 0.54521253)
(0 -0.009628812 0.55405605)
(0 -0.0085557748 0.55381977)
(0 -0.0053396549 0.51016106)
(0 -0.00048492444 0.37642668)
(0 0.00054377067 0.14321845)
(0 -4.9454744e-05 0.12516741)
(0 0.0011217967 0.35086738)
(0 0.0062762489 0.50109319)
(0 0.010370895 0.56112276)
(0 0.01201201 0.56633288)
(0 0.011987921 0.55576886)
(0 0.011539962 0.54639097)
(0 0.011044324 0.54018581)
(0 0.010484957 0.53577246)
(0 0.0098449504 0.53231224)
(0 0.0091328758 0.52949753)
(0 0.0083624549 0.52718467)
(0 0.0075466119 0.52527659)
(0 0.0066955688 0.52370213)
(0 0.0058179423 0.52240906)
(0 0.0049209269 0.52135877)
(0 0.0040105191 0.52052252)
(0 0.0030917939 0.51987902)
(0 0.0021691219 0.51941288)
(0 0.0012463916 0.51911354)
(0 0.0003272162 0.51897462)
(0 -0.00058485838 0.51899358)
(0 -0.0014861477 0.51917163)
(0 -0.0023726382 0.5195138)
(0 -0.0032397649 0.5200293)
(0 -0.0040821812 0.52073218)
(0 -0.0048935338 0.52164241)
(0 -0.00566619 0.52278755)
(0 -0.0063909691 0.52420535)
(0 -0.0070570169 0.52594769)
(0 -0.0076508627 0.52808613)
(0 -0.0081579065 0.53072467)
(0 -0.0085639286 0.5340604)
(0 -0.0088648642 0.53860082)
(0 -0.0090725706 0.54531741)
(0 -0.0089630169 0.55345473)
(0 -0.0077297852 0.55157324)
(0 -0.0045712375 0.50636242)
(0 -0.00022776771 0.37372427)
(0 0.00036079592 0.1432864)
(0 -5.7431354e-06 0.12506625)
(0 0.00083541776 0.34861218)
(0 0.0053748364 0.49719565)
(0 0.0093499251 0.55844128)
(0 0.011169064 0.56551301)
(0 0.011325386 0.5559166)
(0 0.010997686 0.54679744)
(0 0.010586136 0.54066893)
(0 0.010096731 0.53633538)
(0 0.0095156593 0.5329576)
(0 0.0088515275 0.5302132)
(0 0.0081197305 0.52795659)
(0 0.0073346628 0.52609269)
(0 0.0065078143 0.52455233)
(0 0.0056489303 0.52328494)
(0 0.0047661806 0.52225324)
(0 0.0038664429 0.52142957)
(0 0.0029555991 0.52079351)
(0 0.002038771 0.52033027)
(0 0.0011205607 0.52002967)
(0 0.00020527038 0.51988552)
(0 -0.00070287649 0.51989526)
(0 -0.0015995179 0.52005985)
(0 -0.0024799516 0.52038385)
(0 -0.0033388983 0.52087581)
(0 -0.0041702582 0.52154885)
(0 -0.0049668682 0.52242176)
(0 -0.0057202142 0.52352069)
(0 -0.0064201143 0.52488165)
(0 -0.0070546417 0.52655454)
(0 -0.0076090876 0.52860877)
(0 -0.0080674282 0.53114798)
(0 -0.0084153445 0.534377)
(0 -0.0086467093 0.53880862)
(0 -0.0087652529 0.54530894)
(0 -0.0085370389 0.55272669)
(0 -0.0071729149 0.54930297)
(0 -0.0040619965 0.50281014)
(0 -0.00013500917 0.37142569)
(0 0.00021041292 0.14334988)
(0 2.820063e-05 0.12505119)
(0 0.00068778197 0.34678009)
(0 0.0047504941 0.49359891)
(0 0.0086324968 0.55575105)
(0 0.010591741 0.56454451)
(0 0.010901978 0.55593071)
(0 0.010678823 0.54711039)
(0 0.010336775 0.541081)
(0 0.0099017042 0.53684078)
(0 0.0093629758 0.53355691)
(0 0.008730138 0.53089289)
(0 0.0080207081 0.52870097)
(0 0.0072507369 0.52688821)
(0 0.0064330809 0.52538768)
(0 0.0055786068 0.52415064)
(0 0.0046963878 0.52314131)
(0 0.0037940739 0.52233323)
(0 0.0028782169 0.52170688)
(0 0.0019545363 0.52124815)
(0 0.0010281814 0.52094729)
(0 0.00010396733 0.52079832)
(0 -0.00081338983 0.52079864)
(0 -0.0017190437 0.52094896)
(0 -0.0026078034 0.52125341)
(0 -0.0034738827 0.52171978)
(0 -0.0043106383 0.52236024)
(0 -0.0051103005 0.52319235)
(0 -0.0058636624 0.52424067)
(0 -0.0065596783 0.52553938)
(0 -0.0071853875 0.52713618)
(0 -0.0077248049 0.52909821)
(0 -0.0081600262 0.53152877)
(0 -0.0084756729 0.53464007)
(0 -0.0086615057 0.5389467)
(0 -0.0087070349 0.54520258)
(0 -0.0083656646 0.55188347)
(0 -0.006866541 0.54699868)
(0 -0.0037529598 0.49943177)
(0 -0.00014580615 0.36940369)
(0 9.7008371e-05 0.14335809)
(0 5.7031379e-05 0.12506124)
(0 0.00065721674 0.34522617)
(0 0.0043753212 0.49021365)
(0 0.0082290035 0.55303516)
(0 0.010331917 0.56344196)
(0 0.010794704 0.55582775)
(0 0.010666836 0.54734487)
(0 0.010378478 0.54143862)
(0 0.009978832 0.53730677)
(0 0.0094625073 0.53412876)
(0 0.0088414009 0.53155491)
(0 0.0081356021 0.52943551)
(0 0.007362962 0.52768006)
(0 0.0065377309 0.52622429)
(0 0.0056718059 0.52502158)
(0 0.0047750248 0.5240378)
(0 0.003855645 0.52324783)
(0 0.0029207083 0.52263319)
(0 0.0019763437 0.52218048)
(0 0.001028055 0.52188043)
(0 8.097182e-05 0.52172729)
(0 -0.00085990605 0.52171847)
(0 -0.0017894637 0.52185444)
(0 -0.0027022517 0.52213884)
(0 -0.003592222 0.52257875)
(0 -0.0044524501 0.52318531)
(0 -0.0052748323 0.52397474)
(0 -0.0060497499 0.52496995)
(0 -0.0067655602 0.52620303)
(0 -0.0074084449 0.52771918)
(0 -0.0079612752 0.52958297)
(0 -0.0084040075 0.53189681)
(0 -0.0087188836 0.53487844)
(0 -0.0088882049 0.53903767)
(0 -0.0088764275 0.54500664)
(0 -0.0084117314 0.55091011)
(0 -0.0067453007 0.54461483)
(0 -0.0035591082 0.49614829)
(0 -0.00020343771 0.36756353)
(0 1.8318159e-05 0.14328983)
(0 8.2873285e-05 0.12504749)
(0 0.00070905667 0.34383065)
(0 0.0041829603 0.48694724)
(0 0.0080911424 0.55023699)
(0 0.010383217 0.56218025)
(0 0.011028503 0.55560387)