/*--------------------------------*- C++ -*----------------------------------*\
  =========                 |
  \\      /  F ield         | OpenFOAM: The Open Source CFD Toolbox
   \\    /   O peration     | Website:  https://openfoam.org
    \\  /    A nd           | Version:  10
     \\/     M anipulation  |
\*---------------------------------------------------------------------------*/
FoamFile
{
    format      ascii;
    class       surfaceScalarField;
    location    "0.22";
    object      phi;
}
// * * * * * * * * * * * * * * * * * * * * * * * * * * * * * * * * * * * * * //

dimensions      [1 0 -1 0 0 0 0];

internalField   nonuniform List<scalar> 
7860
(
3.9895955e-08
5.2881208e-07
1.2192705e-08
5.9641105e-07
7.4278873e-09
5.7347256e-07
5.499408e-09
5.7063619e-07
4.1149889e-09
5.7009209e-07
3.2011399e-09
5.696215e-07
2.5591506e-09
5.6934962e-07
2.0793278e-09
5.6918744e-07
1.709343e-09
5.6907759e-07
1.4166726e-09
5.6900027e-07
1.1795211e-09
5.6894474e-07
9.8312538e-10
5.6890398e-07
8.1714195e-10
5.6887356e-07
6.740805e-10
5.6885064e-07
5.483677e-10
5.6883328e-07
4.3574293e-10
5.6882019e-07
3.3285247e-10
5.6881045e-07
2.3696902e-10
5.6880345e-07
1.4578943e-10
5.6879874e-07
5.7282725e-11
5.6879607e-07
-3.0433984e-11
5.6879528e-07
-1.192029e-10
5.6879633e-07
-2.1093042e-10
5.6879929e-07
-3.0769404e-10
5.6880433e-07
-4.1187452e-10
5.6881174e-07
-5.2631889e-10
5.6882201e-07
-6.5456102e-10
5.6883581e-07
-8.011348e-10
5.6885415e-07
-9.7203446e-10
5.6887848e-07
-1.1754214e-09
5.6891097e-07
-1.422797e-09
5.6895497e-07
-1.7309731e-09
5.6901577e-07
-2.1249279e-09
5.6910156e-07
-2.6445432e-09
5.6922723e-07
-3.3722328e-09
5.6943532e-07
-4.4635498e-09
5.6979897e-07
-6.0089077e-09
5.7025304e-07
-9.5079264e-09
5.7220673e-07
-2.9575743e-08
5.8877557e-07
5.3913218e-07
5.9672424e-08
4.6913965e-07
3.6665875e-08
6.194176e-07
2.2628067e-08
5.8751037e-07
1.6253484e-08
5.7701077e-07
1.2290434e-08
5.7405514e-07
9.6061993e-09
5.7230574e-07
7.6774384e-09
5.7127838e-07
6.236115e-09
5.7062877e-07
5.1266322e-09
5.7018708e-07
4.2489173e-09
5.6987798e-07
3.5376352e-09
5.6965602e-07
2.9486168e-09
5.69493e-07
2.4508163e-09
5.6937136e-07
2.0217581e-09
5.6927969e-07
1.6447271e-09
5.6921031e-07
1.3069457e-09
5.6915797e-07
9.9835599e-10
5.6911904e-07
7.1077927e-10
5.6909102e-07
4.3730932e-10
5.6907221e-07
1.7185397e-10
5.6906152e-07
-9.1233524e-11
5.6905836e-07
-3.5747684e-10
5.6906257e-07
-6.3258857e-10
5.690744e-07
-9.228015e-10
5.6909454e-07
-1.2352553e-09
5.691242e-07
-1.5784874e-09
5.6916524e-07
-1.9630955e-09
5.6922042e-07
-2.4026762e-09
5.6929373e-07
-2.9152129e-09
5.6939101e-07
-3.5251986e-09
5.6952096e-07
-4.2670526e-09
5.6969682e-07
-5.1911408e-09
5.6993986e-07
-6.3740884e-09
5.7028451e-07
-7.9346135e-09
5.7078776e-07
-1.0075939e-08
5.7157665e-07
-1.3204193e-08
5.7292722e-07
-1.8134142e-08
5.7518299e-07
-2.8176418e-08
5.82249e-07
-4.5802452e-08
6.0640161e-07
4.9332973e-07
6.0008676e-08
4.0913098e-07
5.0487056e-08
6.2893922e-07
3.3370481e-08
6.0462695e-07
2.4817508e-08
5.8556374e-07
1.932311e-08
5.7954954e-07
1.5331404e-08
5.7629744e-07
1.2360676e-08
5.7424911e-07
1.010157e-08
5.7288787e-07
8.3407094e-09
5.7194794e-07
6.9349732e-09
5.7128372e-07
5.7882816e-09
5.7080272e-07
4.833869e-09
5.7044741e-07
4.0239701e-09
5.7018126e-07
3.3235987e-09
5.6998006e-07
2.7064903e-09
5.6982742e-07
2.1524119e-09
5.6971205e-07
1.6453373e-09
5.6962612e-07
1.1721662e-09
5.6956419e-07
7.2179066e-10
5.6952259e-07
2.8438144e-10
5.6949893e-07
-1.4918877e-10
5.6949193e-07
-5.8785177e-10
5.6950124e-07
-1.040837e-09
5.6952739e-07
-1.5181918e-09
5.6957189e-07
-2.0313837e-09
5.6963739e-07
-2.5940607e-09
5.6972792e-07
-3.2230622e-09
5.6984942e-07
-3.9398304e-09
5.700105e-07
-4.7724604e-09
5.7022364e-07
-5.7587632e-09
5.7050726e-07
-6.9509249e-09
5.7088898e-07
-8.4231446e-09
5.7141208e-07
-1.0284822e-08
5.7214619e-07
-1.2697829e-08
5.7320077e-07
-1.5895326e-08
5.7477415e-07
-2.0239204e-08
5.772711e-07
-2.6707584e-08
5.8165137e-07
-3.894712e-08
5.9448854e-07
-4.8166585e-08
6.1562107e-07
4.4516314e-07
5.4878839e-08
3.5425215e-07
5.7451832e-08
6.2636623e-07
4.0467226e-08
6.2161155e-07
3.0778473e-08
5.9525249e-07
2.4642802e-08
5.8568521e-07
1.99521e-08
5.8098814e-07
1.6312813e-08
5.778884e-07
1.3466484e-08
5.757342e-07
1.1200997e-08
5.7421342e-07
9.3646465e-09
5.7312007e-07
7.849547e-09
5.7231781e-07
6.5772097e-09
5.7171975e-07
5.4897874e-09
5.7126868e-07
4.5439667e-09
5.7092588e-07
3.7066522e-09
5.7066474e-07
2.9519858e-09
5.7046672e-07
2.2592489e-09
5.7031886e-07
1.6113454e-09
5.702121e-07
9.9366905e-10
5.7014026e-07
3.9322421e-10
5.7009938e-07
-2.0209753e-10
5.7008726e-07
-8.0415752e-10
5.7010329e-07
-1.4251911e-09
5.7014842e-07
-2.0784619e-09
5.7022516e-07
-2.779013e-09
5.7033794e-07
-3.5445938e-09
5.704935e-07
-4.3968683e-09
5.7070169e-07
-5.3630474e-09
5.7097667e-07
-6.4781695e-09
5.7133877e-07
-7.788361e-09
5.7181745e-07
-9.3554035e-09
5.7245602e-07
-1.1263119e-08
5.733198e-07
-1.3627772e-08
5.7451084e-07
-1.661071e-08
5.761837e-07
-2.0409708e-08
5.7857314e-07
-2.5291442e-08
5.8215283e-07
-3.2515798e-08
5.8887572e-07
-4.5099469e-08
6.0707221e-07
-4.6548416e-08
6.1707002e-07
3.9861473e-07
4.7965498e-08
3.0628666e-07
6.007603e-08
6.142557e-07
4.5399661e-08
6.3628792e-07
3.4874924e-08
6.0577723e-07
2.839947e-08
5.9216067e-07
2.341929e-08
5.8596832e-07
1.9434048e-08
5.8187364e-07
1.6229004e-08
5.7893924e-07
1.3619643e-08
5.7682278e-07
1.1466555e-08
5.7527316e-07
9.6646151e-09
5.7411975e-07
8.1337808e-09
5.7325058e-07
6.8130283e-09
5.7258944e-07
5.6553443e-09
5.7208357e-07
4.6239524e-09
5.7169613e-07
3.6895647e-09
5.714011e-07
2.8283414e-09
5.7118008e-07
2.0203516e-09
5.7102009e-07
1.2483892e-09
5.7091222e-07
4.9702737e-10
5.7085074e-07
-2.4817438e-10
5.7083246e-07
-1.0013797e-09
5.708565e-07
-1.7771665e-09
5.709242e-07
-2.5912488e-09
5.7103925e-07
-3.461293e-09
5.7120798e-07
-4.407902e-09
5.7144011e-07
-5.4558546e-09
5.7174965e-07
-6.6357155e-09
5.7215653e-07
-7.9859615e-09
5.7268901e-07
-9.5558561e-09
5.7338734e-07
-1.1409224e-08
5.7430939e-07
-1.3628879e-08
5.7553945e-07
-1.6323122e-08
5.7720508e-07
-1.9635559e-08
5.7949614e-07
-2.3736458e-08
5.8267404e-07
-2.8928723e-08
5.873451e-07
-3.6789067e-08
5.9673606e-07
-4.8461792e-08
6.1874494e-07
-4.3193039e-08
6.1180126e-07
3.5542169e-07
4.0335739e-08
2.6595093e-07
5.8993446e-08
5.95598e-07
4.8329425e-08
6.4695194e-07
3.7587498e-08
6.1651915e-07
3.0928375e-08
5.9881979e-07
2.5893564e-08
5.9100313e-07
2.1779675e-08
5.8598753e-07
1.8391852e-08
5.8232707e-07
1.5577438e-08
5.796372e-07
1.3214383e-08
5.7763621e-07
1.1206746e-08
5.7612739e-07
9.479234e-09
5.7497809e-07
7.9727036e-09
5.7409597e-07
6.6402491e-09
5.7341602e-07
5.4442422e-09
5.7289213e-07
4.3540636e-09
5.7249128e-07
3.3443237e-09
5.7218982e-07
2.3934628e-09
5.7197095e-07
1.4826336e-09
5.7182305e-07
5.9478017e-10
5.7173859e-07
-2.8615219e-10
5.7171339e-07
-1.1759343e-09
5.7174628e-07
-2.0907557e-09
5.7183903e-07
-3.0479531e-09
5.7199644e-07
-4.0668162e-09
5.7222685e-07
-5.1695339e-09
5.7254283e-07
-6.3823457e-09
5.7296246e-07
-7.7369768e-09
5.7351117e-07
-9.2724352e-09
5.7422447e-07
-1.103732e-08
5.7515223e-07
-1.3092853e-08
5.7636492e-07
-1.5516302e-08
5.779629e-07
-1.8405069e-08
5.8009385e-07
-2.1883331e-08
5.829744e-07
-2.6106877e-08
5.8689759e-07
-3.1485193e-08
5.9272342e-07
-3.9651565e-08
6.0490244e-07
-4.9169624e-08
6.28263e-07
-3.8576975e-08
6.0120861e-07
3.1684471e-07
3.2862345e-08
2.3308861e-07
5.5249189e-08
5.7321118e-07
4.9231333e-08
6.5296979e-07
3.90607e-08
6.2668978e-07
3.2429943e-08
6.0545055e-07
2.7518152e-08
5.9591492e-07
2.3438228e-08
5.9006745e-07
2.0002598e-08
5.857627e-07
1.7094706e-08
5.8254509e-07
1.4612329e-08
5.8011859e-07
1.2471677e-08
5.7826804e-07
1.0605498e-08
5.7684427e-07
8.9595499e-09
5.7574191e-07
7.4896382e-09
5.7488593e-07
6.1594314e-09
5.7422234e-07
4.9387013e-09
5.7371201e-07
3.8018813e-09
5.7332664e-07
2.7268887e-09
5.7304594e-07
1.6941494e-09
5.7285579e-07
6.8576582e-10
5.7274697e-07
-3.1521405e-10
5.7271437e-07
-1.3254717e-09
5.7275654e-07
-2.3620836e-09
5.7287564e-07
-3.4432048e-09
5.7307756e-07
-4.5888099e-09
5.7337245e-07
-5.821541e-09
5.7377556e-07
-7.1677041e-09
5.7430862e-07
-8.6584704e-09
5.7500193e-07
-1.0331326e-08
5.7589732e-07
-1.2231848e-08
5.7705275e-07
-1.4416094e-08
5.7854917e-07
-1.6953492e-08
5.805003e-07
-1.9928888e-08
5.8306925e-07
-2.3443062e-08
5.8648858e-07
-2.7637437e-08
5.9109196e-07
-3.3030372e-08
5.9811635e-07
-4.1006697e-08
6.1287876e-07
-4.7684218e-08
6.3494052e-07
-3.3374333e-08
5.8689873e-07
2.8347038e-07
2.6188592e-08
2.0690004e-07
5.0131671e-08
5.4926812e-07
4.8492345e-08
6.5460912e-07
3.9489941e-08
6.3569218e-07
3.3076475e-08
6.1186401e-07
2.8411193e-08
6.0058021e-07
2.4492246e-08
5.939864e-07
2.1117781e-08
5.8913716e-07
1.8206912e-08
5.8545596e-07
1.568041e-08
5.8264509e-07
1.3469137e-08
5.8047932e-07
1.1515912e-08
5.787975e-07
9.773218e-09
5.7748461e-07
8.2012611e-09
5.7645789e-07
6.7665083e-09
5.7565709e-07
5.440412e-09
5.7503811e-07
4.1983229e-09
5.7456873e-07
3.0185663e-09
5.742257e-07
1.8816448e-09
5.7399271e-07
7.6953488e-10
5.7385908e-07
-3.3494922e-10
5.7381885e-07
-1.4487516e-09
5.7387034e-07
-2.5891671e-09
5.7401605e-07
-3.7744448e-09
5.7426284e-07
-5.02443e-09
5.7462244e-07
-6.3612794e-09
5.7511241e-07
-7.8102731e-09
5.7575762e-07
-9.4007625e-09
5.7659242e-07
-1.1167277e-08
5.7766384e-07
-1.3150794e-08
5.7903627e-07
-1.5400386e-08
5.8079876e-07
-1.7975342e-08
5.8307525e-07
-2.0945118e-08
5.8603902e-07
-2.4384911e-08
5.8992837e-07
-2.8430244e-08
5.951373e-07
-3.3686272e-08
6.0337238e-07
-4.1057561e-08
6.2025005e-07
-4.4792909e-08
6.3867586e-07
-2.8202407e-08
5.7030823e-07
2.5526797e-07
2.057044e-08
1.8632962e-07
4.4581927e-08
5.2525667e-07
4.6641333e-08
6.5254972e-07
3.9151708e-08
6.431818e-07
3.3082522e-08
6.1793319e-07
2.87165e-08
6.0494623e-07
2.5037241e-08
5.9766566e-07
2.1803141e-08
5.9237126e-07
1.8958881e-08
5.8830022e-07
1.6448405e-08
5.8515557e-07
1.4218211e-08
5.8270951e-07
1.2222117e-08
5.8079359e-07
1.0420337e-08
5.7928639e-07
8.7785117e-09
5.7809972e-07
7.2668843e-09
5.7716872e-07
5.8594847e-09
5.7644551e-07
4.533392e-09
5.7589482e-07
3.2680682e-09
5.7549102e-07
2.0447513e-09
5.7521603e-07
8.4589862e-10
5.7505794e-07
-3.4533373e-10
5.7501008e-07
-1.5455867e-09
5.7507059e-07
-2.7717956e-09
5.7524226e-07
-4.0416913e-09
5.7553274e-07
-5.3743251e-09
5.7595507e-07
-6.7906343e-09
5.7652872e-07
-8.3140593e-09
5.7728104e-07
-9.9712288e-09
5.7824959e-07
-1.1792727e-08
5.7948534e-07
-1.3813885e-08
5.8105742e-07
-1.6075698e-08
5.8306057e-07
-1.8626018e-08
5.8562557e-07
-2.1517956e-08
5.8893096e-07
-2.4805535e-08
5.9321595e-07
-2.8634951e-08
5.9896671e-07
-3.3653418e-08
6.0839085e-07
-4.0137481e-08
6.2673411e-07
-4.115376e-08
6.3969214e-07
-2.3414571e-08
5.5256904e-07
2.318534e-07
1.6014949e-08
1.7031471e-07
3.914238e-08
5.0212929e-07
4.4116533e-08
6.4757559e-07
3.8287717e-08
6.4901062e-07
3.2652205e-08
6.235687e-07
2.8590119e-08
6.0900831e-07
2.5182377e-08
6.010734e-07
2.2135045e-08
5.9541859e-07
1.940423e-08
5.9103103e-07
1.6953871e-08
5.8760593e-07
1.4744986e-08
5.8491839e-07
1.2741976e-08
5.827966e-07
1.0912923e-08
5.8111544e-07
9.2293021e-09
5.7978334e-07
7.6656358e-09
5.7873239e-07
6.1990722e-09
5.7791207e-07
4.8089601e-09
5.7728493e-07
3.4764214e-09
5.7682356e-07
2.1839304e-09
5.7650852e-07
9.1490462e-10
5.7632696e-07
-3.4669154e-10
5.7627168e-07
-1.6167335e-09
5.7634064e-07
-2.9113287e-09
5.7653686e-07
-4.2472067e-09
5.7686861e-07
-5.642119e-09
5.7734998e-07
-7.115253e-09
5.7800185e-07
-8.68766e-09
5.7885345e-07
-1.0382693e-08
5.7994462e-07
-1.2226463e-08
5.8132911e-07
-1.4248258e-08
5.8307922e-07
-1.6480907e-08
5.8529322e-07
-1.8961166e-08
5.8810583e-07
-2.1727181e-08
5.9169697e-07
-2.4819431e-08
5.963082e-07
-2.8406753e-08
6.0255403e-07
-3.311617e-08
6.1310026e-07
-3.8541384e-08
6.3215932e-07
-3.7209259e-08
6.3836002e-07
-1.918021e-08
5.3453999e-07
2.1267319e-07
1.2423154e-08
1.5789159e-07
3.4112127e-08
4.8044039e-07
4.1247149e-08
6.4044059e-07
3.7076113e-08
6.5318165e-07
3.1939646e-08
6.2870516e-07
2.8166767e-08
6.1278119e-07
2.5031279e-08
6.0420889e-07
2.219073e-08
5.9825914e-07
1.960005e-08
5.9362171e-07
1.723865e-08
5.8996733e-07
1.5079894e-08
5.8707715e-07
1.3097462e-08
5.8477903e-07
1.1266713e-08
5.8294619e-07
9.564787e-09
5.8148526e-07
7.9705609e-09
5.8032661e-07
6.464517e-09
5.7941812e-07
5.0285646e-09
5.7872088e-07
3.6458123e-09
5.7820631e-07
2.3003125e-09
5.7785402e-07
9.7679109e-10
5.7765048e-07
-3.396301e-10
5.775881e-07
-1.6637115e-09
5.7766472e-07
-3.010382e-09
5.7788353e-07
-4.3950198e-09
5.7825325e-07
-5.8337307e-09
5.7878869e-07
-7.3436217e-09
5.7951174e-07
-8.9430602e-09
5.8045288e-07
-1.0651907e-08
5.8165347e-07
-1.2491722e-08
5.8316892e-07
-1.4485933e-08
5.8507343e-07
-1.6659857e-08
5.8746715e-07
-1.9040389e-08
5.9048636e-07
-2.1653031e-08
5.9430961e-07
-2.4531979e-08
5.9918714e-07
-2.7871697e-08
6.0589375e-07
-3.2217208e-08
6.1744577e-07
-3.6511403e-08
6.3645352e-07
-3.3260668e-08
6.3510928e-07
-1.5560996e-08
5.1684032e-07
1.971122e-07
9.6564355e-09
1.482352e-07
2.9643472e-08
4.6045343e-07
3.8279827e-08
6.3180428e-07
3.5655055e-08
6.5580642e-07
3.105601e-08
6.333042e-07
2.7550797e-08
6.162864e-07
2.4670504e-08
6.0708918e-07
2.203896e-08
6.0089069e-07
1.9600201e-08
5.9606047e-07
1.734425e-08
5.9222328e-07
1.5254489e-08
5.8916691e-07
1.3312329e-08
5.8672119e-07
1.1499431e-08
5.8475909e-07
9.7980607e-09
5.8318663e-07
8.1912068e-09
5.8193347e-07
6.6626404e-09
5.8094668e-07
5.1969079e-09
5.8018662e-07
3.7792568e-09
5.7962396e-07
2.3955137e-09
5.7923776e-07
1.0319344e-09
5.7901406e-07
-3.2496749e-10
5.78945e-07
-1.6885992e-09
5.7902835e-07
-3.0724766e-09
5.792674e-07
-4.4904043e-09
5.7967118e-07
-5.9566459e-09
5.8025494e-07
-7.4860759e-09
5.8104117e-07
-9.0943027e-09
5.8206111e-07
-1.0797745e-08
5.8335691e-07
-1.2613659e-08
5.8498484e-07
-1.4560134e-08
5.870199e-07
-1.6655917e-08
5.8956293e-07
-1.891949e-08
5.9274994e-07
-2.1366371e-08
5.967565e-07
-2.4030685e-08
6.0185146e-07
-2.7128628e-08
6.0899169e-07
-3.1074679e-08
6.2139182e-07
-3.4251659e-08
6.396305e-07
-2.9513117e-08
6.3037074e-07
-1.2552278e-08
4.9987948e-07
1.8455992e-07
7.5659683e-09
1.4066929e-07
2.5784073e-08
4.4223543e-07
3.5385421e-08
6.2220299e-07
3.4134386e-08
6.5705745e-07
3.0084273e-08
6.373543e-07
2.6822186e-08
6.1954849e-07
2.4169723e-08
6.0974165e-07
2.1737501e-08
6.0332291e-07
1.9451951e-08
5.9834602e-07
1.7308714e-08
5.9436651e-07
1.5298904e-08
5.9117672e-07
1.3410131e-08
5.8860996e-07
1.1629272e-08
5.8653995e-07
9.943004e-09
5.848729e-07
8.3380008e-09
5.8353847e-07
6.8010989e-09
5.8248358e-07
5.3193984e-09
5.8166832e-07
3.8802959e-09
5.8106306e-07
2.4714649e-09
5.8064659e-07
1.0808004e-09
5.8040473e-07
-3.0366244e-10
5.8032947e-07
-1.6938417e-09
5.8041853e-07
-3.1017111e-09
5.8067527e-07
-4.5393935e-09
5.8110886e-07
-6.0192402e-09
5.8173478e-07
-7.5538853e-09
5.8257581e-07
-9.156265e-09
5.8366349e-07
-1.0839582e-08
5.8504023e-07
-1.2617217e-08
5.8676247e-07
-1.4502607e-08
5.8890529e-07
-1.6508944e-08
5.9156927e-07
-1.8647833e-08
5.9488882e-07
-2.0927791e-08
5.9903645e-07
-2.3387974e-08
6.0431164e-07
-2.6257892e-08
6.1186161e-07
-2.9789636e-08
6.2492357e-07
-3.192379e-08
6.4176465e-07
-2.6088943e-08
6.2453589e-07
-1.0107404e-08
4.8389794e-07
1.7445251e-07
6.0111781e-09
1.3465817e-07
2.2512147e-08
4.2573459e-07
3.2665779e-08
6.1204944e-07
3.2594535e-08
6.571287e-07
2.9084509e-08
6.4086432e-07
2.6041084e-08
6.2259191e-07
2.3584256e-08
6.1219847e-07
2.1333918e-08
6.0557325e-07
1.9195481e-08
6.0048446e-07
1.7165474e-08
5.9639652e-07
1.5240512e-08
5.9310168e-07
1.3412956e-08
5.9043752e-07
1.1673811e-08
5.8827909e-07
1.0013394e-08
5.8653332e-07
8.4215494e-09
5.8513031e-07
6.8878502e-09
5.8401728e-07
5.4017604e-09
5.8315441e-07
3.9527333e-09
5.8251209e-07
2.5302636e-09
5.8206906e-07
1.1239029e-09
5.8181109e-07
-2.7675133e-10
5.8173012e-07
-1.6820799e-09
5.8182386e-07
-3.1024749e-09
5.8209567e-07
-4.5483624e-09
5.8255475e-07
-6.030211e-09
5.8321663e-07
-7.5585124e-09
5.8410412e-07
-9.1437258e-09
5.852487e-07
-1.0796172e-08
5.8669267e-07
-1.2525875e-08
5.8849217e-07
-1.4342385e-08
5.907218e-07
-1.6254399e-08
5.9348128e-07
-1.8268226e-08
5.9690265e-07
-2.0388461e-08
6.0115669e-07
-2.2662844e-08
6.0658602e-07
-2.5323063e-08
6.1452183e-07
-2.8442662e-08
6.2804317e-07
-2.964198e-08
6.4296397e-07
-2.30434e-08
6.1793731e-07
-8.157921e-09
4.6901246e-07
1.6629459e-07
4.8693606e-09
1.2978889e-07
1.9769138e-08
4.1083497e-07
3.0169164e-08
6.0164951e-07
3.1087833e-08
6.5621005e-07
2.8096198e-08
6.4385594e-07
2.5249767e-08
6.2543833e-07
2.2956214e-08
6.1449202e-07
2.0866248e-08
6.0766321e-07
1.8864053e-08
6.0248665e-07
1.6943074e-08
5.983175e-07
1.5103373e-08
5.9494138e-07
1.3340753e-08
5.9220014e-07
1.1649327e-08
5.8997052e-07
1.0022292e-08
5.8816035e-07
8.4521173e-09
5.8670049e-07
6.9307357e-09
5.8553866e-07
5.4497201e-09
5.8463542e-07
4.0004186e-09
5.8396139e-07
2.5740504e-09
5.8349543e-07
1.1617697e-09
5.8322337e-07
-2.4529332e-10
5.8313718e-07
-1.656005e-09
5.8323457e-07
-3.0792072e-09
5.8351887e-07
-4.523687e-09
5.8399923e-07
-5.9981331e-09
5.8469108e-07
-7.5110645e-09
5.8561705e-07
-9.0707276e-09
5.8680837e-07
-1.0684954e-08
5.883069e-07
-1.2360974e-08
5.9016819e-07
-1.4105231e-08
5.9246606e-07
-1.5922958e-08
5.9529901e-07
-1.7816695e-08
5.9879639e-07
-1.9789922e-08
6.0312992e-07
-2.1900695e-08
6.086968e-07
-2.4370864e-08
6.16992e-07
-2.7092493e-08
6.3076479e-07
-2.7478326e-08
6.4334981e-07
-2.0385847e-08
6.1084483e-07
-6.6281763e-09
4.5525479e-07
1.5966641e-07
4.0381552e-09
1.2575083e-07
1.7482564e-08
3.9739076e-07
2.7909532e-08
5.9122268e-07
2.9644899e-08
6.5447471e-07
2.7142526e-08
6.463583e-07
2.4475408e-08
6.2810544e-07
2.2315726e-08
6.166517e-07
2.0363551e-08
6.0961539e-07
1.8484225e-08
6.0436598e-07
1.6665132e-08
6.0013659e-07
1.4908007e-08
5.9669851e-07
1.3210986e-08
5.9389716e-07
1.1570405e-08
5.916111e-07
9.9816443e-09
5.8974911e-07
8.4392687e-09
5.8824286e-07
6.9371771e-09
5.8704076e-07
5.4687674e-09
5.8610383e-07
4.0270792e-09
5.8540308e-07
2.6049115e-09
5.849176e-07
1.1949166e-09
5.8463336e-07
-2.1032501e-10
5.8454242e-07
-1.6182413e-09
5.8464248e-07
-3.0362086e-09
5.8493684e-07
-4.4714853e-09
5.8543451e-07
-5.9311317e-09
5.8615072e-07
-7.4219092e-09
5.8710782e-07
-8.9501521e-09
5.8833661e-07
-1.0521614e-08
5.8987836e-07
-1.2141292e-08
5.9178787e-07
-1.3813253e-08
5.9413802e-07
-1.5540198e-08
5.9702595e-07
-1.7322265e-08
6.0057845e-07
-1.9164125e-08
6.0497178e-07
-2.1134235e-08
6.1066691e-07
-2.3433269e-08
6.1929103e-07
-2.5778874e-08
6.331104e-07
-2.5472578e-08
6.4304351e-07
-1.8097749e-08
6.0347e-07
-5.4437954e-09
4.4260083e-07
1.5422262e-07
3.4348859e-09
1.2231605e-07
1.5578611e-08
3.8524726e-07
2.5880258e-08
5.8092121e-07
2.8281139e-08
6.5207388e-07
2.6235347e-08
6.4840407e-07
2.3733882e-08
6.306069e-07
2.1683086e-08
6.187025e-07
1.9847031e-08
6.1145144e-07
1.8076402e-08
6.0613661e-07
1.6350541e-08
6.0186245e-07
1.4671378e-08
5.9837767e-07
1.3038498e-08
5.9553004e-07
1.1449738e-08
5.9319986e-07
9.9020592e-09
5.9129679e-07
8.3916414e-09
5.8975328e-07
6.9139745e-09
5.8851842e-07
5.4639912e-09
5.8755381e-07
4.0362004e-09
5.8683087e-07
2.6248092e-09
5.8632899e-07
1.2238301e-09
5.8603434e-07
-1.7282512e-10
5.8593908e-07
-1.5712584e-09
5.8604092e-07
-2.9775023e-09
5.8634308e-07
-4.3974299e-09
5.8685443e-07
-5.8366554e-09
5.8758995e-07
-7.3004183e-09
5.8857159e-07
-8.7934495e-09
5.8982964e-07
-1.0319826e-08
5.9140474e-07
-1.1882824e-08
5.9335087e-07
-1.3484778e-08
5.9573998e-07
-1.5126649e-08
5.9866782e-07
-1.6807344e-08
6.0225915e-07
-1.8534468e-08
6.066989e-07
-2.0385678e-08
6.1251812e-07
-2.2530757e-08
6.2143611e-07
-2.4526652e-08
6.3510629e-07
-2.3641565e-08
6.4215842e-07
-1.6145119e-08
5.9597356e-07
-4.5363658e-09
4.3099208e-07
1.4968625e-07
2.9949213e-09
1.1932126e-07
1.3988807e-08
3.7425365e-07
2.4063479e-08
5.7084676e-07
2.7001698e-08
6.4913572e-07
2.5379032e-08
6.5002673e-07
2.3033195e-08
6.3295272e-07
2.1071139e-08
6.2066455e-07
1.9331551e-08
6.1319103e-07
1.7655748e-08
6.0781241e-07
1.6013967e-08
6.0350423e-07
1.4407126e-08
5.9998451e-07
1.283557e-08
5.971016e-07
1.1298081e-08
5.9473735e-07
9.7927071e-09
5.9280216e-07
8.3168295e-09
5.9122916e-07
6.8671891e-09
5.8996806e-07
5.4399775e-09
5.8898102e-07
4.0309495e-09
5.882399e-07
2.6355369e-09
5.877244e-07
1.248956e-09
5.8742092e-07
-1.3368923e-10
5.8732172e-07
-1.5173109e-09
5.8742454e-07
-2.9067407e-09
5.8773251e-07
-4.3066291e-09
5.8825432e-07
-5.721338e-09
5.8900466e-07
-7.1548236e-09
5.9000507e-07
-8.6105096e-09
5.9128533e-07
-1.0091163e-08
5.9288539e-07
-1.1598789e-08
5.9485849e-07
-1.3134525e-08
5.9727571e-07
-1.4698246e-08
6.0023154e-07
-1.6288597e-08
6.038495e-07
-1.7917305e-08
6.0832761e-07
-1.9669103e-08
6.1426991e-07
-2.1675178e-08
6.2344219e-07
-2.3349303e-08
6.3678042e-07
-2.1986449e-08
6.4079557e-07
-1.4486915e-08
5.8847402e-07
-3.8459889e-09
4.2035115e-07
1.4584026e-07
2.6694228e-09
1.1665199e-07
1.2653405e-08
3.6426999e-07
2.2436439e-08
5.61064e-07
2.5805202e-08
6.4576705e-07
2.4573174e-08
6.5125874e-07
2.2376043e-08
6.3514983e-07
2.0487279e-08
6.2255331e-07
1.8827074e-08
6.1485123e-07
1.7233196e-08
6.0940629e-07
1.5666499e-08
6.0507093e-07
1.412595e-08
6.0152506e-07
1.2612127e-08
5.9861542e-07
1.1124336e-08
5.9622514e-07
9.6613326e-09
5.9426517e-07
8.2213532e-09
5.9266914e-07
6.8020955e-09
5.9138732e-07
5.4007601e-09
5.9038236e-07
4.0141352e-09
5.8962652e-07
2.6386941e-09
5.8909984e-07
1.2706959e-09
5.8878892e-07
-9.3713187e-11
5.8868613e-07
-1.4584015e-09
5.8878923e-07
-2.8271526e-09
5.8910126e-07
-4.2035627e-09
5.8963073e-07
-5.590935e-09
5.9039203e-07
-6.9921695e-09
5.9140631e-07
-8.4096537e-09
5.9270281e-07
-9.8451672e-09
5.943209e-07
-1.1299818e-08
5.9631314e-07
-1.277398e-08
5.9874987e-07
-1.4266963e-08
6.0172453e-07
-1.5777928e-08
6.0536046e-07
-1.7323386e-08
6.0987307e-07
-1.8992431e-08
6.1593896e-07
-2.0872007e-08
6.2532176e-07
-2.2251947e-08
6.3816036e-07
-2.0498521e-08
6.3904214e-07
-1.3080622e-08
5.8105612e-07
-3.3222585e-09
4.1059279e-07
1.4251801e-07
2.4226493e-09
1.1422952e-07
1.1522488e-08
3.5517053e-07
2.0975577e-08
5.5161124e-07
2.4686656e-08
6.420561e-07
2.3814584e-08
6.5213081e-07
2.1761703e-08
6.3720269e-07
1.9935026e-08
6.2437998e-07
1.8339868e-08
6.1644639e-07
1.6816344e-08
6.1092981e-07
1.5316302e-08
6.0657097e-07
1.3836054e-08
6.0300531e-07
1.2376014e-08
6.0007546e-07
1.0935722e-08
5.9766543e-07
9.5143412e-09
5.9568655e-07
8.1106942e-09
5.9407278e-07
6.7231877e-09
5.9277483e-07
5.3498123e-09
5.9175574e-07
3.9881955e-09
5.9098814e-07
2.6356789e-09
5.9045236e-07
1.2894062e-09
5.9013519e-07
-5.3584038e-11
5.9002912e-07
-1.396264e-09
5.9013191e-07
-2.7415221e-09
5.9044652e-07
-4.092065e-09
5.9098127e-07
-5.4503202e-09
5.9175028e-07
-6.8183403e-09
5.9277433e-07
-8.1977146e-09
5.9408218e-07
-9.5895064e-09
5.957127e-07
-1.0994233e-08
5.9771787e-07
-1.2411838e-08
6.0016748e-07
-1.3841466e-08
6.0315415e-07
-1.5283388e-08
6.0680238e-07
-1.6759109e-08
6.1134879e-07
-1.8359056e-08
6.1753891e-07
-2.0122229e-08
6.2708493e-07
-2.1234025e-08
6.3927216e-07
-1.9163726e-08
6.3697184e-07
-1.1886074e-08
5.7377847e-07
-2.9241683e-09
4.0163088e-07
1.3959384e-07
2.2292204e-09
1.1200051e-07
1.0555594e-08
3.4684461e-07
1.9658819e-08
5.4250841e-07
2.3639487e-08
6.380756e-07
2.3098767e-08
6.5267153e-07
2.1187456e-08
6.3911397e-07
1.9415261e-08
6.2615217e-07
1.7873488e-08
6.1798816e-07
1.6410231e-08
6.1239307e-07
1.49692e-08
6.08012e-07
1.3543574e-08
6.0443093e-07
1.2133309e-08
6.0148572e-07
1.0737973e-08
5.9906077e-07
9.3569289e-09
5.9706759e-07
7.9893733e-09
5.9544034e-07
6.6342214e-09
5.9412998e-07
5.2900675e-09
5.9309989e-07
3.9552072e-09
5.92323e-07
2.6276919e-09
5.9177988e-07
1.305401e-09
5.9145748e-07
-1.3877235e-11
5.913484e-07
-1.3323628e-09
5.9145039e-07
-2.6521936e-09
5.9176635e-07
-3.9753414e-09
5.9230442e-07
-5.3035261e-09
5.9307847e-07
-6.6381364e-09
5.9410894e-07
-7.9801667e-09
5.9542421e-07
-9.3301864e-09
5.9706272e-07
-1.0688359e-08
5.9907604e-07
-1.2054446e-08
6.0153356e-07
-1.3427727e-08
6.0452743e-07
-1.4810007e-08
6.0818466e-07
-1.6227618e-08
6.127664e-07
-1.7769234e-08
6.1908052e-07
-1.9423917e-08
6.2873962e-07
-2.0291492e-08
6.4013973e-07
-1.7965806e-08
6.3464616e-07
-1.0867388e-08
5.6668005e-07
-2.6192635e-09
3.9338276e-07
1.3697457e-07
2.0716502e-09
1.099291e-07
9.7206091e-09
3.3919618e-07
1.8466619e-08
5.3376288e-07
2.2656823e-08
6.3388561e-07
2.2420897e-08
6.5290747e-07
2.0649615e-08
6.4088523e-07
1.89272e-08
6.2787457e-07
1.7429588e-08
6.1948577e-07
1.6017981e-08
6.1380468e-07
1.4629196e-08
6.0940079e-07
1.3252978e-08
6.0580715e-07
1.1888611e-08
6.0285009e-07
1.0535555e-08
6.0041382e-07
9.1932313e-09
5.9840991e-07
7.8610508e-09
5.9677252e-07
6.538279e-09
5.9545275e-07
5.22396e-09
5.9441421e-07
3.9169097e-09
5.9363005e-07
2.6157486e-09
5.9308104e-07
1.3189562e-09
5.9275427e-07
2.4937582e-11
5.9264242e-07
-1.2679045e-09
5.9274323e-07
-2.5610946e-09
5.9305954e-07
-3.8560099e-09
5.9359934e-07
-5.1538104e-09
5.9437627e-07
-6.4553794e-09
5.954105e-07
-7.7612837e-09
5.9673012e-07
-9.0717749e-09
5.9837321e-07
-1.0386841e-08
6.0039111e-07
-1.1706235e-08
6.0285296e-07
-1.302959e-08
6.0585079e-07
-1.4360526e-08
6.095156e-07
-1.5729748e-08
6.1413562e-07
-1.7221196e-08
6.2057197e-07
-1.8773449e-08
6.3029187e-07
-1.9418423e-08
6.407847e-07
-1.6888235e-08
6.3211597e-07
-9.9934938e-09
5.5978531e-07
-2.3824303e-09
3.8577169e-07
1.3459214e-07
1.938267e-09
1.0799111e-07
8.9924072e-09
3.3214265e-07
1.738225e-08
5.2537362e-07
2.1732204e-08
6.2953593e-07
2.1776386e-08
6.5286332e-07
2.0144188e-08
6.4251739e-07
1.8469092e-08
6.2954965e-07
1.7008539e-08
6.2094632e-07
1.5641342e-08
6.1517187e-07
1.4298908e-08
6.1074322e-07
1.2967417e-08
6.0713864e-07
1.1645315e-08
6.0417219e-07
1.0331874e-08
6.0172726e-07
9.0264768e-09
5.9971531e-07
7.7286365e-09
5.9807036e-07
6.4378467e-09
5.9674354e-07
5.153476e-09
5.9569858e-07
3.8747369e-09
5.9490879e-07
2.6006969e-09
5.9435508e-07
1.3303157e-09
5.9402466e-07
6.2496597e-11
5.9391024e-07
-1.2038553e-09
5.9400958e-07
-2.4697705e-09
5.9432545e-07
-3.7361557e-09
5.9486572e-07
-5.0037394e-09
5.9564385e-07
-6.2730314e-09
5.966798e-07
-7.544306e-09
5.9800139e-07
-8.8176312e-09
5.9964653e-07
-1.0092947e-08
6.0166642e-07
-1.1370119e-08
6.0413013e-07
-1.2649283e-08
6.0712995e-07
-1.3936031e-08
6.1080235e-07
-1.5264779e-08
6.1546437e-07
-1.6711984e-08
6.2201917e-07
-1.8166373e-08
6.3174626e-07
-1.8608129e-08
6.4122646e-07
-1.591541e-08
6.2942325e-07
-9.2382548e-09
5.5310816e-07
-2.194695e-09
3.7872813e-07
1.3239745e-07
1.8215289e-09
1.0616991e-07
8.3514952e-09
3.2561341e-07
1.6391688e-08
5.1733411e-07
2.0859904e-08
6.2506806e-07
2.1161167e-08
6.5256211e-07
1.9667287e-08
6.4401124e-07
1.8038702e-08
6.3117821e-07
1.6609897e-08
6.2237513e-07
1.5281094e-08
6.1650068e-07
1.3979932e-08
6.1204438e-07
1.2689025e-08
6.0842955e-07
1.1405859e-08
6.0545536e-07
1.0129467e-08
6.0300365e-07
8.8591351e-09
6.0098564e-07
7.5944014e-09
5.9933509e-07
6.3348949e-09
5.9800305e-07
5.0802101e-09
5.9695326e-07
3.8298538e-09
5.9615914e-07
2.583237e-09
5.9560169e-07
1.3396955e-09
5.952682e-07
9.8526741e-11
5.9515141e-07
-1.1409663e-09
5.9524908e-07
-2.3794259e-09
5.9556391e-07
-3.617395e-09
5.9610369e-07
-4.8552783e-09
5.9688173e-07
-6.0933198e-09
5.9791784e-07
-7.3316074e-09
5.9923968e-07
-8.5701247e-09
6.0088505e-07
-9.8088503e-09
6.0290515e-07
-1.1047841e-08
6.0536912e-07
-1.2287835e-08
6.0836995e-07
-1.353645e-08
6.1205096e-07
-1.4831011e-08
6.1675893e-07
-1.6238047e-08
6.2342621e-07
-1.7597998e-08
6.3310621e-07
-1.785389e-08
6.4148235e-07
-1.5033274e-08
6.2660263e-07
-8.5801444e-09
5.4665503e-07
-2.0420576e-09
3.7219005e-07
1.3035539e-07
1.7167145e-09
1.0445357e-07
7.7827912e-09
3.1954816e-07
1.5483298e-08
5.0963441e-07
2.0035025e-08
6.2051676e-07
2.0571804e-08
6.5202542e-07
1.9215339e-08
6.4536766e-07
1.7633615e-08
6.3275991e-07
1.6232718e-08
6.2377602e-07
1.493736e-08
6.1779604e-07
1.3673121e-08
6.1330862e-07
1.2419169e-08
6.096835e-07
1.1171933e-08
6.067026e-07
9.9301734e-09
6.0424541e-07
8.6930535e-09
6.0222276e-07
7.4600823e-09
6.0056806e-07
6.2309571e-09
5.9923217e-07
5.0054215e-09
5.981788e-07
3.7831934e-09
5.9738137e-07
2.5639413e-09
5.9682094e-07
1.3472889e-09
5.9648485e-07
1.3283825e-10
5.9636586e-07
-1.0797998e-09
5.9646172e-07
-2.2909696e-09
5.9677508e-07
-3.5009402e-09
5.9731366e-07
-4.7098816e-09
5.9809068e-07
-5.9178579e-09
5.9912581e-07
-7.1248512e-09
6.0044667e-07
-8.3308318e-09
6.0209103e-07
-9.535873e-09
6.0411019e-07
-1.0740267e-08
6.0657352e-07
-1.1945419e-08
6.095751e-07
-1.3160946e-08
6.1326649e-07
-1.4426191e-08
6.1802417e-07
-1.5795651e-08
6.2479567e-07
-1.7063776e-08
6.3437433e-07
-1.7149392e-08
6.4156797e-07
-1.4229559e-08
6.236828e-07
-8.0017084e-09
5.4042717e-07
-1.9144161e-09
3.6610276e-07
1.2844097e-07
1.6209527e-09
1.0283306e-07
7.2745902e-09
3.1389549e-07
1.4647448e-08
5.022625e-07
1.9253455e-08
6.1591127e-07
2.0005486e-08
6.512735e-07
1.8785191e-08
6.4658792e-07
1.7251435e-08
6.3429363e-07
1.5875791e-08
6.2515165e-07
1.4609834e-08
6.1906199e-07
1.3378807e-08
6.1453965e-07
1.2158645e-08
6.1090366e-07
1.0944647e-08
6.0791659e-07
9.7352825e-09
6.0545478e-07
8.5295768e-09
6.0342847e-07
7.3269782e-09
6.0177066e-07
6.1272039e-09
6.0043194e-07
4.9300877e-09
5.9937591e-07
3.7354928e-09
5.9857597e-07
2.5432744e-09
5.9801316e-07
1.3532707e-09
5.9767485e-07
1.6531289e-10
5.9755381e-07
-1.0207561e-09
5.9764778e-07
-2.2050585e-09
5.9795939e-07
-3.3876641e-09
5.9849627e-07
-4.5685796e-09
5.9927159e-07
-5.7477567e-09
6.0030499e-07
-6.9251312e-09
6.0162405e-07
-8.1007084e-09
6.0326661e-07
-9.2746888e-09
6.0528417e-07
-1.0447624e-08
6.0774645e-07
-1.1621623e-08
6.107491e-07
-1.2808208e-08
6.1445307e-07
-1.4047807e-08
6.1926377e-07
-1.5381152e-08
6.2612901e-07
-1.6559525e-08
6.3555271e-07
-1.648896e-08
6.414974e-07
-1.3493784e-08
6.2068762e-07
-7.4889522e-09
5.3442234e-07
-1.8046354e-09
3.6041844e-07
1.2663634e-07
1.5325334e-09
1.0130102e-07
6.8177315e-09
3.086114e-07
1.3876123e-08
4.9520522e-07
1.8511755e-08
6.1127628e-07
1.9459959e-08
6.5032546e-07
1.8374128e-08
6.4767372e-07
1.6889892e-08
6.3577783e-07
1.5537777e-08
6.2650376e-07
1.4297936e-08
6.2030183e-07
1.3096956e-08
6.1574063e-07