/*--------------------------------*- C++ -*----------------------------------*\
  =========                 |
  \\      /  F ield         | OpenFOAM: The Open Source CFD Toolbox
   \\    /   O peration     | Website:  https://openfoam.org
    \\  /    A nd           | Version:  10
     \\/     M anipulation  |
\*---------------------------------------------------------------------------*/
FoamFile
{
    format      ascii;
    class       surfaceScalarField;
    location    "0.22";
    object      phi_0;
}
// * * * * * * * * * * * * * * * * * * * * * * * * * * * * * * * * * * * * * //

dimensions      [1 0 -1 0 0 0 0];

internalField   nonuniform List<scalar> 
7860
(
3.9895951e-08
5.2881208e-07
1.2192702e-08
5.9641105e-07
7.4278842e-09
5.7347256e-07
5.4994046e-09
5.7063619e-07
4.1149855e-09
5.7009209e-07
3.2011368e-09
5.696215e-07
2.5591479e-09
5.6934962e-07
2.0793257e-09
5.6918744e-07
1.7093415e-09
5.6907759e-07
1.4166718e-09
5.6900027e-07
1.179521e-09
5.6894474e-07
9.8312627e-10
5.6890398e-07
8.1714379e-10
5.6887356e-07
6.7408339e-10
5.6885063e-07
5.4837172e-10
5.6883328e-07
4.3574809e-10
5.6882019e-07
3.3285879e-10
5.6881045e-07
2.3697648e-10
5.6880344e-07
1.4579811e-10
5.6879874e-07
5.7292547e-11
5.6879607e-07
-3.0422997e-11
5.6879528e-07
-1.1919079e-10
5.6879633e-07
-2.1091728e-10
5.6879929e-07
-3.076799e-10
5.6880432e-07
-4.1185948e-10
5.6881174e-07
-5.26303e-10
5.6882201e-07
-6.5454442e-10
5.6883581e-07
-8.0111761e-10
5.6885415e-07
-9.7201682e-10
5.6887848e-07
-1.1754034e-09
5.6891097e-07
-1.422779e-09
5.6895496e-07
-1.7309551e-09
5.6901577e-07
-2.1249102e-09
5.6910156e-07
-2.644526e-09
5.6922723e-07
-3.3722165e-09
5.6943532e-07
-4.4635348e-09
5.6979897e-07
-6.0088949e-09
5.7025304e-07
-9.5079151e-09
5.7220673e-07
-2.957573e-08
5.8877557e-07
5.391322e-07
5.9672415e-08
4.6913967e-07
3.6665863e-08
6.194176e-07
2.2628056e-08
5.8751037e-07
1.6253473e-08
5.7701077e-07
1.2290423e-08
5.7405514e-07
9.6061893e-09
5.7230573e-07
7.6774295e-09
5.7127838e-07
6.2361077e-09
5.7062876e-07
5.1266268e-09
5.7018707e-07
4.2489141e-09
5.6987798e-07
3.5376345e-09
5.6965602e-07
2.9486189e-09
5.6949299e-07
2.4508214e-09
5.6937136e-07
2.0217664e-09
5.6927969e-07
1.6447389e-09
5.6921031e-07
1.3069609e-09
5.6915797e-07
9.9837483e-10
5.6911904e-07
7.1080174e-10
5.6909102e-07
4.3733542e-10
5.6907221e-07
1.7188372e-10
5.6906152e-07
-9.1200222e-11
5.6905836e-07
-3.5744009e-10
5.6906257e-07
-6.3254855e-10
5.690744e-07
-9.2275841e-10
5.6909453e-07
-1.2352093e-09
5.6912419e-07
-1.5784389e-09
5.6916524e-07
-1.9630448e-09
5.6922042e-07
-2.4026236e-09
5.6929372e-07
-2.9151589e-09
5.6939101e-07
-3.5251437e-09
5.6952095e-07
-4.2669973e-09
5.6969682e-07
-5.1910857e-09
5.6993986e-07
-6.3740342e-09
5.7028451e-07
-7.9345608e-09
5.7078776e-07
-1.0075889e-08
5.7157665e-07
-1.3204146e-08
5.7292723e-07
-1.8134101e-08
5.7518299e-07
-2.8176378e-08
5.8224901e-07
-4.5802419e-08
6.0640161e-07
4.9332978e-07
6.0008661e-08
4.0913101e-07
5.0487035e-08
6.2893923e-07
3.337046e-08
6.0462694e-07
2.4817488e-08
5.8556374e-07
1.9323091e-08
5.7954954e-07
1.5331386e-08
5.7629744e-07
1.236066e-08
5.7424911e-07
1.0101556e-08
5.7288787e-07
8.3406993e-09
5.7194793e-07
6.9349669e-09
5.7128371e-07
5.7882796e-09
5.7080271e-07
4.8338718e-09
5.704474e-07
4.023978e-09
5.7018125e-07
3.3236122e-09
5.6998005e-07
2.7065096e-09
5.6982741e-07
2.1524373e-09
5.6971204e-07
1.6453688e-09
5.6962611e-07
1.1722041e-09
5.6956418e-07
7.2183477e-10
5.6952257e-07
2.8443181e-10
5.6949892e-07
-1.4913224e-10
5.6949192e-07
-5.8778933e-10
5.6950122e-07
-1.0407689e-09
5.6952737e-07
-1.5181183e-09
5.6957188e-07
-2.0313054e-09
5.6963738e-07
-2.5939779e-09
5.6972791e-07
-3.2229755e-09
5.6984941e-07
-3.9397406e-09
5.7001049e-07
-4.772368e-09
5.7022364e-07
-5.7586692e-09
5.7050725e-07
-6.9508301e-09
5.7088898e-07
-8.42305e-09
5.7141208e-07
-1.0284728e-08
5.7214619e-07
-1.2697738e-08
5.7320077e-07
-1.5895239e-08
5.7477415e-07
-2.0239123e-08
5.7727111e-07
-2.670751e-08
5.8165138e-07
-3.8947047e-08
5.9448855e-07
-4.8166533e-08
6.1562109e-07
4.4516324e-07
5.4878819e-08
3.542522e-07
5.7451799e-08
6.2636625e-07
4.0467195e-08
6.2161155e-07
3.0778443e-08
5.9525249e-07
2.4642773e-08
5.8568521e-07
1.9952073e-08
5.8098814e-07
1.6312789e-08
5.7788839e-07
1.3466463e-08
5.7573419e-07
1.1200981e-08
5.7421341e-07
9.3646359e-09
5.7312006e-07
7.8495427e-09
5.723178e-07
6.5772123e-09
5.7171973e-07
5.4897975e-09
5.7126867e-07
4.5439849e-09
5.7092587e-07
3.7066788e-09
5.7066472e-07
2.9520211e-09
5.704667e-07
2.2592933e-09
5.7031884e-07
1.6113989e-09
5.7021208e-07
9.937317e-10
5.7014024e-07
3.9329593e-10
5.7009936e-07
-2.0201687e-10
5.7008724e-07
-8.040682e-10
5.7010328e-07
-1.4250935e-09
5.701484e-07
-2.0783566e-09
5.7022515e-07
-2.7789004e-09
5.7033792e-07
-3.5444747e-09
5.7049349e-07
-4.3967435e-09
5.7070168e-07
-5.3629178e-09
5.7097666e-07
-6.4780362e-09
5.7133876e-07
-7.7882252e-09
5.7181744e-07
-9.3552663e-09
5.7245602e-07
-1.1262982e-08
5.733198e-07
-1.3627637e-08
5.7451084e-07
-1.6610578e-08
5.7618371e-07
-2.0409581e-08
5.7857316e-07
-2.5291323e-08
5.8215285e-07
-3.2515684e-08
5.8887574e-07
-4.5099359e-08
6.0707222e-07
-4.6548344e-08
6.1707008e-07
3.986149e-07
4.7965474e-08
3.0628673e-07
6.0075984e-08
6.1425574e-07
4.5399615e-08
6.3628791e-07
3.4874881e-08
6.0577722e-07
2.8399428e-08
5.9216066e-07
2.341925e-08
5.8596832e-07
1.9434012e-08
5.8187363e-07
1.6228974e-08
5.7893923e-07
1.3619619e-08
5.7682277e-07
1.1466539e-08
5.7527314e-07
9.6646072e-09
5.7411973e-07
8.1337822e-09
5.7325056e-07
6.8130398e-09
5.7258941e-07
5.6553665e-09
5.7208354e-07
4.6239858e-09
5.716961e-07
3.6896099e-09
5.7140107e-07
2.8283986e-09
5.7118005e-07
2.0204211e-09
5.7102005e-07
1.2484709e-09
5.7091219e-07
4.9712126e-10
5.7085071e-07
-2.4806849e-10
5.7083243e-07
-1.0012622e-09
5.7085647e-07
-1.7770379e-09
5.7092418e-07
-2.5911096e-09
5.7103922e-07
-3.4611441e-09
5.7120796e-07
-4.4077443e-09
5.7144009e-07
-5.4556892e-09
5.7174963e-07
-6.6355435e-09
5.7215652e-07
-7.9857843e-09
5.72689e-07
-9.5556752e-09
5.7338733e-07
-1.1409041e-08
5.7430939e-07
-1.3628695e-08
5.7553945e-07
-1.6322941e-08
5.7720509e-07
-1.9635382e-08
5.7949615e-07
-2.3736287e-08
5.8267406e-07
-2.8928561e-08
5.8734513e-07
-3.6788908e-08
5.9673609e-07
-4.8461641e-08
6.1874495e-07
-4.319295e-08
6.1180139e-07
3.5542195e-07
4.0335712e-08
2.6595104e-07
5.8993386e-08
5.9559808e-07
4.8329361e-08
6.4695194e-07
3.7587438e-08
6.1651914e-07
3.0928319e-08
5.9881978e-07
2.5893511e-08
5.9100312e-07
2.1779627e-08
5.8598751e-07
1.8391811e-08
5.8232705e-07
1.5577405e-08
5.7963717e-07
1.3214359e-08
5.7763618e-07
1.1206733e-08
5.7612736e-07
9.4792328e-09
5.7497806e-07
7.9727152e-09
5.7409593e-07
6.6402744e-09
5.7341598e-07
5.4442819e-09
5.7289209e-07
4.3541182e-09
5.7249124e-07
3.3443937e-09
5.7218977e-07
2.3935485e-09
5.719709e-07
1.482735e-09
5.71823e-07
5.9489714e-10
5.7173854e-07
-2.8601986e-10
5.7171334e-07
-1.175787e-09
5.7174624e-07
-2.0905941e-09
5.7183898e-07
-3.047778e-09
5.719964e-07
-4.0666286e-09
5.7222681e-07
-5.1693348e-09
5.7254279e-07
-6.3821366e-09
5.7296243e-07
-7.736759e-09
5.7351114e-07
-9.2722106e-09
5.7422445e-07
-1.103709e-08
5.7515221e-07
-1.3092621e-08
5.7636492e-07
-1.5516069e-08
5.779629e-07
-1.8404837e-08
5.8009386e-07
-2.1883104e-08
5.8297442e-07
-2.6106657e-08
5.8689761e-07
-3.1484981e-08
5.9272345e-07
-3.9651354e-08
6.0490246e-07
-4.9169429e-08
6.2826303e-07
-3.857687e-08
6.0120883e-07
3.1684508e-07
3.2862314e-08
2.3308874e-07
5.5249115e-08
5.732113e-07
4.9231248e-08
6.529698e-07
3.9060621e-08
6.2668977e-07
3.2429869e-08
6.0545053e-07
2.7518083e-08
5.9591491e-07
2.3438165e-08
5.9006743e-07
2.0002542e-08
5.8576267e-07
1.7094661e-08
5.8254505e-07
1.4612295e-08
5.8011855e-07
1.2471657e-08
5.78268e-07
1.0605493e-08
5.7684422e-07
8.9595604e-09
5.7574186e-07
7.4896656e-09
5.7488588e-07
6.1594766e-09
5.7422228e-07
4.9387651e-09
5.7371195e-07
3.8019641e-09
5.7332657e-07
2.7269909e-09
5.7304587e-07
1.694271e-09
5.7285572e-07
6.8590683e-10
5.7274691e-07
-3.1505393e-10
5.727143e-07
-1.325293e-09
5.7275647e-07
-2.3618871e-09
5.7287558e-07
-3.4429913e-09
5.7307751e-07
-4.5885807e-09
5.733724e-07
-5.8212975e-09
5.7377551e-07
-7.1674478e-09
5.7430858e-07
-8.6582031e-09
5.7500189e-07
-1.033105e-08
5.758973e-07
-1.2231565e-08
5.7705273e-07
-1.4415807e-08
5.7854916e-07
-1.6953203e-08
5.8050029e-07
-1.99286e-08
5.8306925e-07
-2.3442779e-08
5.864886e-07
-2.7637162e-08
5.91092e-07
-3.3030104e-08
5.9811639e-07
-4.1006427e-08
6.1287878e-07
-4.7683978e-08
6.3494058e-07
-3.3374213e-08
5.8689906e-07
2.8347087e-07
2.6188557e-08
2.0690021e-07
5.0131582e-08
5.492683e-07
4.8492236e-08
6.5460915e-07
3.9489838e-08
6.3569216e-07
3.307638e-08
6.1186399e-07
2.8411104e-08
6.0058018e-07
2.4492165e-08
5.9398637e-07
2.1117709e-08
5.8913712e-07
1.8206852e-08
5.8545591e-07
1.5680365e-08
5.8264504e-07
1.3469108e-08
5.8047925e-07
1.1515901e-08
5.7879743e-07
9.7732258e-09
5.7748453e-07
8.2012894e-09
5.7645781e-07
6.7665581e-09
5.7565701e-07
5.4404844e-09
5.7503802e-07
4.1984184e-09
5.7456864e-07
3.0186853e-09
5.742256e-07
1.8817874e-09
5.7399262e-07
7.6970102e-10
5.7385899e-07
-3.3475989e-10
5.7381876e-07
-1.4485396e-09
5.7387025e-07
-2.5889334e-09
5.7401597e-07
-3.7741904e-09
5.7426276e-07
-5.0241563e-09
5.7462236e-07
-6.360988e-09
5.7511234e-07
-7.8099659e-09
5.7575756e-07
-9.4004416e-09
5.7659237e-07
-1.1166945e-08
5.776638e-07
-1.3150453e-08
5.7903624e-07
-1.540004e-08
5.8079874e-07
-1.7974993e-08
5.8307525e-07
-2.094477e-08
5.8603903e-07
-2.4384567e-08
5.8992839e-07
-2.8429908e-08
5.9513734e-07
-3.3685939e-08
6.0337242e-07
-4.1057227e-08
6.2025007e-07
-4.4792624e-08
6.3867598e-07
-2.8202273e-08
5.7030871e-07
2.5526859e-07
2.0570402e-08
1.8632983e-07
4.4581821e-08
5.2525692e-07
4.6641197e-08
6.5254979e-07
3.9151578e-08
6.4318178e-07
3.3082401e-08
6.1793317e-07
2.8716386e-08
6.049462e-07
2.5037137e-08
5.9766562e-07
2.180305e-08
5.9237121e-07
1.8958804e-08
5.8830016e-07
1.6448345e-08
5.8515549e-07
1.421817e-08
5.8270943e-07
1.2222097e-08
5.807935e-07
1.042034e-08
5.7928629e-07
8.7785394e-09
5.7809961e-07
7.2669378e-09
5.7716861e-07
5.859565e-09
5.7644539e-07
4.5334999e-09
5.758947e-07
3.2682042e-09
5.754909e-07
2.0449156e-09
5.7521591e-07
8.46091e-10
5.7505782e-07
-3.4511353e-10
5.7500997e-07
-1.5453393e-09
5.7507048e-07
-2.771522e-09
5.7524215e-07
-4.0413929e-09
5.7553263e-07
-5.3740034e-09
5.7595497e-07
-6.7902911e-09
5.7652863e-07
-8.3136968e-09
5.7728096e-07
-9.9708496e-09
5.7824952e-07
-1.1792333e-08
5.7948528e-07
-1.3813481e-08
5.8105738e-07
-1.6075286e-08
5.8306055e-07
-1.8625602e-08
5.8562556e-07
-2.151754e-08
5.8893097e-07
-2.4805123e-08
5.9321598e-07
-2.8634546e-08
5.9896676e-07
-3.3653014e-08
6.0839089e-07
-4.0137077e-08
6.2673413e-07
-4.1153428e-08
6.3969233e-07
-2.3414424e-08
5.5256971e-07
2.3185417e-07
1.6014906e-08
1.7031496e-07
3.9142257e-08
5.0212962e-07
4.4116366e-08
6.4757569e-07
3.8287553e-08
6.4901058e-07
3.2652054e-08
6.2356866e-07
2.8589978e-08
6.0900828e-07
2.5182247e-08
6.0107335e-07
2.2134929e-08
5.9541853e-07
1.9404132e-08
5.9103095e-07
1.6953792e-08
5.8760583e-07
1.4744931e-08
5.8491829e-07
1.2741945e-08
5.8279649e-07
1.0912919e-08
5.8111532e-07
9.2293276e-09
5.797832e-07
7.6656917e-09
5.7873225e-07
6.1991597e-09
5.7791193e-07
4.8090801e-09
5.7728478e-07
3.4765746e-09
5.7682341e-07
2.184117e-09
5.7650837e-07
9.1512451e-10
5.7632681e-07
-3.4643873e-10
5.7627153e-07
-1.6164485e-09
5.7634049e-07
-2.9110127e-09
5.7653672e-07
-4.246861e-09
5.7686848e-07
-5.6417454e-09
5.7734986e-07
-7.1148537e-09
5.7800174e-07
-8.6872376e-09
5.7885335e-07
-1.038225e-08
5.7994454e-07
-1.2226003e-08
5.8132903e-07
-1.4247784e-08
5.8307917e-07
-1.6480423e-08
5.8529319e-07
-1.8960677e-08
5.8810582e-07
-2.172669e-08
5.9169698e-07
-2.4818944e-08
5.9630823e-07
-2.8406271e-08
6.0255409e-07
-3.3115685e-08
6.131003e-07
-3.8540904e-08
6.3215935e-07
-3.7208878e-08
6.383603e-07
-1.9180051e-08
5.3454088e-07
2.1267412e-07
1.2423107e-08
1.5789189e-07
3.4111983e-08
4.8044081e-07
4.1246947e-08
6.4044076e-07
3.7075911e-08
6.5318161e-07
3.1939459e-08
6.2870511e-07
2.8166593e-08
6.1278114e-07
2.5031118e-08
6.0420883e-07
2.2190586e-08
5.9825906e-07
1.9599926e-08
5.9362161e-07
1.723855e-08
5.8996721e-07
1.507982e-08
5.8707702e-07
1.3097418e-08
5.8477889e-07
1.12667e-08
5.8294603e-07
9.5648082e-09
5.8148509e-07
7.9706177e-09
5.8032644e-07
6.4646107e-09
5.7941793e-07
5.0286963e-09
5.787207e-07
3.6459828e-09
5.7820612e-07
2.3005221e-09
5.7785383e-07
9.7703973e-10
5.7765029e-07
-3.3934282e-10
5.7758791e-07
-1.6633864e-09
5.7766453e-07
-3.0100203e-09
5.7788335e-07
-4.3946232e-09
5.7825308e-07
-5.8333012e-09
5.7878854e-07
-7.3431616e-09
5.795116e-07
-8.9425724e-09
5.8045276e-07
-1.0651394e-08
5.8165336e-07
-1.2491189e-08
5.8316883e-07
-1.4485383e-08
5.8507336e-07
-1.6659294e-08
5.874671e-07
-1.9039819e-08
5.9048634e-07
-2.1652458e-08
5.9430962e-07
-2.4531408e-08
5.9918718e-07
-2.7871128e-08
6.0589381e-07
-3.2216631e-08
6.1744581e-07
-3.651084e-08
6.3645356e-07
-3.3260236e-08
6.351097e-07
-1.5560823e-08
5.1684147e-07
1.9711329e-07
9.6563825e-09
1.4823556e-07
2.9643306e-08
4.6045398e-07
3.8279586e-08
6.3180452e-07
3.5654808e-08
6.5580639e-07
3.1055781e-08
6.3330412e-07
2.7550584e-08
6.1628634e-07
2.4670307e-08
6.070891e-07
2.2038782e-08
6.0089058e-07
1.9600047e-08
5.9606035e-07
1.7344124e-08
5.9222313e-07
1.5254393e-08
5.8916675e-07
1.3312268e-08
5.8672101e-07
1.1499407e-08
5.8475889e-07
9.7980754e-09
5.8318643e-07
8.1912627e-09
5.8193325e-07
6.6627392e-09
5.8094646e-07
5.1970509e-09
5.8018638e-07
3.7794447e-09
5.7962372e-07
2.3957471e-09
5.7923753e-07
1.0322132e-09
5.7901383e-07
-3.2464374e-10
5.7894477e-07
-1.6882314e-09
5.7902812e-07
-3.072066e-09
5.7926718e-07
-4.4899528e-09
5.7967097e-07
-5.9561557e-09
5.8025474e-07
-7.4855498e-09
5.8104099e-07
-9.0937438e-09
5.8206095e-07
-1.0797156e-08
5.8335677e-07
-1.2613046e-08
5.8498472e-07
-1.4559501e-08
5.8701981e-07
-1.6655267e-08
5.8956286e-07
-1.8918829e-08
5.927499e-07
-2.1365706e-08
5.967565e-07
-2.4030021e-08
6.0185149e-07
-2.7127962e-08
6.0899175e-07
-3.1074002e-08
6.2139185e-07
-3.4251008e-08
6.3963057e-07
-2.9512632e-08
6.3037132e-07
-1.2552091e-08
4.9988093e-07
1.845612e-07
7.5659088e-09
1.4066971e-07
2.5783883e-08
4.4223611e-07
3.5385136e-08
6.2220333e-07
3.4134087e-08
6.5705744e-07
3.0083994e-08
6.3735421e-07
2.6821927e-08
6.195484e-07
2.4169484e-08
6.0974155e-07
2.1737285e-08
6.0332278e-07
1.9451762e-08
5.9834587e-07
1.7308557e-08
5.9436634e-07
1.5298783e-08
5.9117652e-07
1.3410049e-08
5.8860975e-07
1.1629232e-08
5.8653971e-07
9.9430095e-09
5.8487265e-07
8.3380539e-09
5.835382e-07
6.8012014e-09
5.8248331e-07
5.3195519e-09
5.8166803e-07
3.8805013e-09
5.8106278e-07
2.4717227e-09
5.806463e-07
1.0811107e-09
5.8040444e-07
-3.0330005e-10
5.8032918e-07
-1.6934282e-09
5.8041825e-07
-3.101248e-09
5.80675e-07
-4.5388829e-09
5.8110861e-07
-6.0186844e-09
5.8173454e-07
-7.5532874e-09
5.8257559e-07
-9.1556285e-09
5.8366329e-07
-1.0838911e-08
5.8504005e-07
-1.2616516e-08
5.8676232e-07
-1.4501881e-08
5.8890518e-07
-1.6508198e-08
5.9156918e-07
-1.8647074e-08
5.9488878e-07
-2.0927024e-08
5.9903645e-07
-2.3387205e-08
6.0431167e-07
-2.6257118e-08
6.1186166e-07
-2.9788848e-08
6.2492358e-07
-3.1923042e-08
6.4176476e-07
-2.60884e-08
6.2453668e-07
-1.0107202e-08
4.8389973e-07
1.74454e-07
6.0111114e-09
1.3465866e-07
2.2511929e-08
4.2573543e-07
3.2665445e-08
6.120499e-07
3.2594175e-08
6.5712872e-07
2.9084173e-08
6.408642e-07
2.6040772e-08
6.225918e-07
2.3583968e-08
6.1219835e-07
2.1333657e-08
6.0557309e-07
1.9195251e-08
6.0048428e-07
1.716528e-08
5.9639631e-07
1.524036e-08
5.9310144e-07
1.3412849e-08
5.9043726e-07
1.1673753e-08
5.8827881e-07
1.0013388e-08
5.8653301e-07
8.4215974e-09
5.8513e-07
6.8879549e-09
5.8401695e-07
5.4019236e-09
5.8315406e-07
3.9529561e-09
5.8251174e-07
2.5305467e-09
5.8206871e-07
1.1242463e-09
5.8181074e-07
-2.76348e-10
5.8172977e-07
-1.6816178e-09
5.8182352e-07
-3.1019554e-09
5.8209534e-07
-4.5477878e-09
5.8255444e-07
-6.0295841e-09
5.8321634e-07
-7.5578365e-09
5.8410384e-07
-9.1430047e-09
5.8524846e-07
-1.0795411e-08
5.8669246e-07
-1.2525078e-08
5.8849199e-07
-1.4341558e-08
5.9072166e-07
-1.6253548e-08
5.9348117e-07
-1.8267357e-08
5.9690259e-07
-2.0387581e-08
6.0115667e-07
-2.2661958e-08
6.0658605e-07
-2.5322167e-08
6.1452187e-07
-2.844175e-08
6.2804316e-07
-2.9641127e-08
6.4296414e-07
-2.3042795e-08
6.1793835e-07
-8.1577015e-09
4.6901463e-07
1.662963e-07
4.8692856e-09
1.2978946e-07
1.976889e-08
4.1083599e-07
3.0168774e-08
6.0165012e-07
3.1087406e-08
6.562101e-07
2.8095795e-08
6.4385579e-07
2.5249394e-08
6.2543819e-07
2.2955869e-08
6.1449187e-07
2.0865934e-08
6.0766303e-07
1.8863775e-08
6.0248643e-07
1.6942838e-08
5.9831724e-07
1.5103185e-08
5.949411e-07
1.3340616e-08
5.9219983e-07
1.1649245e-08
5.8997018e-07
1.002227e-08
5.8815999e-07
8.4521575e-09
5.8670011e-07
6.9308407e-09
5.8553827e-07
5.4498919e-09
5.8463501e-07
4.0006586e-09
5.8396098e-07
2.5743593e-09
5.8349501e-07
1.1621477e-09
5.8322295e-07
-2.4484673e-10
5.8313677e-07
-1.6554908e-09
5.8323416e-07
-3.0786272e-09
5.8351848e-07
-4.5230436e-09
5.8399885e-07
-5.9974293e-09
5.8469072e-07
-7.5103038e-09
5.8561672e-07
-9.0699144e-09
5.8680807e-07
-1.0684093e-08
5.8830664e-07
-1.2360071e-08
5.9016797e-07
-1.4104292e-08
5.9246588e-07
-1.5921989e-08
5.9529887e-07
-1.7815704e-08
5.987963e-07
-1.9788917e-08
6.0312988e-07
-2.1899681e-08
6.0869681e-07
-2.4369832e-08
6.1699202e-07
-2.7091445e-08
6.3076477e-07
-2.7477358e-08
6.4335005e-07
-2.0385175e-08
6.1084616e-07
-6.6279373e-09
4.552574e-07
1.5966836e-07
4.0380711e-09
1.2575148e-07
1.7482283e-08
3.9739198e-07
2.7909081e-08
5.9122347e-07
2.9644394e-08
6.5447482e-07
2.7142045e-08
6.4635813e-07
2.4474964e-08
6.2810526e-07
2.2315315e-08
6.1665152e-07
2.0363176e-08
6.0961517e-07
1.8483892e-08
6.0436572e-07
1.6664847e-08
6.0013629e-07
1.4907776e-08
5.9669817e-07
1.3210813e-08
5.9389679e-07
1.1570296e-08
5.9161069e-07
9.9816028e-09
5.8974868e-07
8.4392981e-09
5.8824241e-07
6.9372804e-09
5.8704028e-07
5.4689467e-09
5.8610335e-07
4.027336e-09
5.8540259e-07
2.6052468e-09
5.849171e-07
1.1953308e-09
5.8463286e-07
-2.0983259e-10
5.8454193e-07
-1.6176717e-09
5.84642e-07
-3.0355636e-09
5.8493637e-07
-4.4707675e-09
5.8543406e-07
-5.9303444e-09
5.861503e-07
-7.4210564e-09
5.8710743e-07
-8.9492384e-09
5.8833625e-07
-1.0520645e-08
5.8987804e-07
-1.2140273e-08
5.917876e-07
-1.3812192e-08
5.941378e-07
-1.5539101e-08
5.9702578e-07
-1.7321141e-08
6.0057834e-07
-1.9162982e-08
6.0497172e-07
-2.1133077e-08
6.1066691e-07
-2.3432086e-08
6.1929103e-07
-2.5777675e-08
6.3311036e-07
-2.5471486e-08
6.4304386e-07
-1.8097004e-08
6.0347168e-07
-5.4435346e-09
4.4260393e-07
1.5422483e-07
3.4347915e-09
1.2231681e-07
1.5578292e-08
3.8524872e-07
2.5879738e-08
5.8092221e-07
2.8280548e-08
6.5207406e-07
2.6234778e-08
6.4840388e-07
2.3733356e-08
6.3060667e-07
2.16826e-08
6.1870228e-07
1.9846587e-08
6.1145118e-07
1.8076005e-08
6.061363e-07
1.63502e-08
6.0186209e-07
1.4671098e-08
5.9837727e-07
1.3038284e-08
5.955296e-07
1.1449596e-08
5.9319938e-07
9.901994e-09
5.9129628e-07
8.3916567e-09
5.8975275e-07
6.9140735e-09
5.8851787e-07
5.4641764e-09
5.8755324e-07
4.0364736e-09
5.8683029e-07
2.6251715e-09
5.863284e-07
1.2242819e-09
5.8603375e-07
-1.7228428e-10
5.859385e-07
-1.5706297e-09
5.8604035e-07
-2.9767876e-09
5.8634253e-07
-4.396632e-09
5.868539e-07
-5.8357779e-09
5.8758944e-07
-7.2994655e-09
5.8857112e-07
-8.7924264e-09
5.8982921e-07
-1.0318738e-08
5.9140435e-07
-1.1881679e-08
5.9335054e-07
-1.3483582e-08
5.957397e-07
-1.5125411e-08
5.9866761e-07
-1.6806072e-08
6.02259e-07
-1.8533171e-08
6.0669882e-07
-2.0384359e-08
6.125181e-07
-2.2529405e-08
6.2143608e-07
-2.4525288e-08
6.3510625e-07
-2.3640337e-08
6.4215891e-07
-1.6144295e-08
5.9597564e-07
-4.5360811e-09
4.3099571e-07
1.4968874e-07
2.9948157e-09
1.1932212e-07
1.3988447e-08
3.7425537e-07
2.4062883e-08
5.70848e-07
2.7001008e-08
6.49136e-07
2.5378363e-08
6.5002651e-07
2.3032575e-08
6.3295244e-07
2.1070566e-08
6.2066428e-07
1.9331027e-08
6.1319072e-07
1.7655279e-08
6.0781205e-07
1.601356e-08
6.0350381e-07
1.4406789e-08
5.9998404e-07
1.2835308e-08
5.9710108e-07
1.12979e-08
5.9473679e-07
9.7926133e-09
5.9280157e-07
8.3168267e-09
5.9122853e-07
6.8672809e-09
5.8996741e-07
5.4401668e-09
5.8898036e-07
4.0312384e-09
5.8823922e-07
2.6359265e-09
5.8772372e-07
1.249447e-09
5.8742023e-07
-1.3309728e-10
5.8732104e-07
-1.5166192e-09
5.8742387e-07
-2.9059513e-09
5.8773186e-07
-4.3057449e-09
5.8825369e-07
-5.7203629e-09
5.8900406e-07
-7.1537622e-09
5.9000452e-07
-8.6093674e-09
5.9128482e-07
-1.0089947e-08
5.9288493e-07
-1.1597505e-08
5.9485809e-07
-1.3133182e-08
5.9727538e-07
-1.4696853e-08
6.0023128e-07
-1.6287162e-08
6.0384931e-07
-1.7915839e-08
6.083275e-07
-1.9667606e-08
6.1426986e-07
-2.167364e-08
6.2344211e-07
-2.3347757e-08
6.3678036e-07
-2.1985073e-08
6.4079622e-07
-1.4486004e-08
5.8847657e-07
-3.8456779e-09
4.2035539e-07
1.4584307e-07
2.669305e-09
1.1665298e-07
1.2653e-08
3.6427202e-07
2.2435758e-08
5.6106552e-07
2.5804402e-08
6.4576745e-07
2.457239e-08
6.5125851e-07
2.2375316e-08
6.351495e-07
2.0486608e-08
6.2255298e-07
1.8826459e-08
6.1485087e-07
1.7232643e-08
6.0940586e-07
1.5666017e-08
6.0507044e-07
1.4125547e-08
6.0152451e-07
1.2611809e-08
5.9861482e-07
1.1124111e-08
5.9622449e-07
9.6612046e-09
5.9426447e-07
8.2213278e-09
5.9266841e-07
6.8021768e-09
5.9138656e-07
5.4009513e-09
5.9038158e-07
4.0144388e-09
5.8962573e-07
2.6391114e-09
5.8909904e-07
1.2712277e-09
5.8878812e-07
-9.3067331e-11
5.8868534e-07
-1.4576428e-09
5.8878844e-07
-2.8262831e-09
5.891005e-07
-4.2025856e-09
5.8963e-07
-5.5898543e-09
5.9039133e-07
-6.9909903e-09
5.9140565e-07
-8.408382e-09
5.9270221e-07
-9.8438097e-09
5.9432036e-07
-1.1298383e-08
5.9631267e-07
-1.2772476e-08
5.9874947e-07
-1.4265399e-08
6.017242e-07
-1.5776314e-08
6.0536023e-07
-1.7321733e-08
6.0987292e-07
-1.8990736e-08
6.1593887e-07
-2.0870263e-08
6.2532163e-07
-2.22502e-08
6.381603e-07
-2.0496983e-08
6.3904301e-07
-1.3079616e-08
5.810592e-07
-3.3219188e-09
4.1059769e-07
1.4252115e-07
2.4225184e-09
1.1423065e-07
1.1522033e-08
3.551729e-07
2.0974803e-08
5.516131e-07
2.4685734e-08
6.4205666e-07
2.3813671e-08
6.5213057e-07
2.1760854e-08
6.3720229e-07
1.9934242e-08
6.2437959e-07
1.8339149e-08
6.1644596e-07
1.6815696e-08
6.1092931e-07
1.5315734e-08
6.065704e-07
1.3835575e-08
6.0300467e-07
1.2375632e-08
6.0007476e-07
1.0935444e-08
5.9766468e-07
9.5141729e-09
5.9568575e-07
8.1106413e-09
5.9407194e-07
6.7232548e-09
5.9277395e-07
5.350003e-09
5.9175483e-07
3.9885125e-09
5.9098722e-07
2.636124e-09
5.9045143e-07
1.2899802e-09
5.9013426e-07
-5.2881458e-11
5.900282e-07
-1.395434e-09
5.9013099e-07
-2.740567e-09
5.9044563e-07
-4.0909879e-09
5.9098042e-07
-5.4491256e-09
5.9174947e-07
-6.8170336e-09
5.9277356e-07
-8.1963021e-09
5.9408148e-07
-9.5879956e-09
5.9571205e-07
-1.0992632e-08
5.977173e-07
-1.2410157e-08
6.0016699e-07
-1.3839715e-08
6.0315376e-07
-1.5281578e-08
6.0680209e-07
-1.6757249e-08
6.1134859e-07
-1.8357143e-08
6.1753876e-07
-2.0120256e-08
6.2708475e-07
-2.1232059e-08
6.392721e-07
-1.9162013e-08
6.3697296e-07
-1.1884966e-08
5.7378215e-07
-2.9237975e-09
4.0163652e-07
1.3959735e-07
2.2290754e-09
1.1200179e-07
1.0555085e-08
3.4684736e-07
1.9657943e-08
5.4251066e-07
2.3638427e-08
6.3807635e-07
2.3097708e-08
6.5267129e-07
2.118647e-08
6.391135e-07
1.941435e-08
6.261517e-07
1.7872652e-08
6.1798766e-07
1.6409475e-08
6.1239249e-07
1.4968536e-08
6.0801134e-07
1.3543009e-08
6.044302e-07
1.2132854e-08
6.0148492e-07
1.0737634e-08
5.990599e-07
9.3567134e-09
5.9706667e-07
7.9892874e-09
5.9543937e-07
6.63427e-09
5.9412897e-07
5.2902548e-09
5.9309885e-07
3.9555363e-09
5.9232194e-07
2.6281648e-09
5.917788e-07
1.3060186e-09
5.9145641e-07
-1.311495e-11
5.9134733e-07
-1.3314572e-09
5.9144934e-07
-2.6511469e-09
5.9176532e-07
-3.974157e-09
5.9230343e-07
-5.3022086e-09
5.9307752e-07
-6.6366917e-09
5.9410804e-07
-7.9786015e-09
5.9542339e-07
-9.3285087e-09
5.9706196e-07
-1.0686578e-08
5.9907537e-07
-1.2052571e-08
6.0153299e-07
-1.342577e-08
6.0452696e-07
-1.480798e-08
6.081843e-07
-1.6225529e-08
6.1276614e-07
-1.776708e-08
6.1908031e-07
-1.9421693e-08
6.2873936e-07
-2.0289285e-08
6.4013969e-07
-1.7963902e-08
6.3464758e-07
-1.086617e-08
5.6668442e-07
-2.6188593e-09
3.9338921e-07
1.3697849e-07
2.0714899e-09
1.0993055e-07
9.7200408e-09
3.3919936e-07
1.846563e-08
5.3376557e-07
2.2655611e-08
6.3388659e-07
2.2419675e-08
6.5290725e-07
2.0648472e-08
6.4088467e-07
1.8926145e-08
6.2787401e-07
1.7428619e-08
6.1948519e-07
1.6017104e-08
6.1380401e-07
1.4628422e-08
6.0940002e-07
1.3252316e-08
6.058063e-07
1.1888071e-08
6.0284916e-07
1.0535146e-08
6.0041282e-07
9.1929609e-09
5.9840885e-07
7.8609255e-09
5.967714e-07
6.5383044e-09
5.9545159e-07
5.2241407e-09
5.9441301e-07
3.9172491e-09
5.9362883e-07
2.6162491e-09
5.930798e-07
1.3196188e-09
5.9275304e-07
2.5762405e-11
5.9264119e-07
-1.2669186e-09
5.9274202e-07
-2.5599501e-09
5.9305835e-07
-3.8547102e-09
5.9359819e-07
-5.1523606e-09
5.9437517e-07
-6.4537854e-09
5.9540947e-07
-7.7595529e-09
5.9672915e-07
-9.0699157e-09
5.9837232e-07
-1.0384863e-08
6.0039032e-07
-1.1704149e-08
6.0285227e-07
-1.3027409e-08
6.0585022e-07
-1.4358261e-08
6.0951515e-07
-1.5727408e-08
6.1413528e-07
-1.7218775e-08
6.2057168e-07
-1.8770948e-08
6.3029153e-07
-1.9415953e-08
6.407847e-07
-1.6886124e-08
6.3211775e-07
-9.9921555e-09
5.5979045e-07
-2.3819902e-09
3.8577904e-07
1.345965e-07
1.9380905e-09
1.0799276e-07
8.9917744e-09
3.3214632e-07
1.7381136e-08
5.2537681e-07
2.1730824e-08
6.2953719e-07
2.177498e-08
6.5286312e-07
2.014287e-08
6.4251675e-07
1.8467876e-08
6.2954899e-07
1.7007421e-08
6.2094564e-07
1.5640328e-08
6.151711e-07
1.429801e-08
6.1074234e-07
1.2966645e-08
6.0713767e-07
1.164468e-08
6.0417113e-07
1.0331386e-08
6.0172611e-07
9.0261432e-09
5.9971409e-07
7.7284651e-09
5.9806908e-07
6.4378436e-09
5.9674221e-07
5.1536463e-09
5.9569721e-07
3.8750845e-09
5.9490739e-07
2.6012245e-09
5.9435366e-07
1.3310246e-09
5.9402324e-07
6.3387082e-11
5.9390882e-07
-1.2027844e-09
5.9400819e-07
-2.4685216e-09
5.9432409e-07
-3.7347325e-09
5.948644e-07
-5.0021471e-09
5.9564258e-07
-6.2712762e-09
5.966786e-07
-7.5423959e-09
5.9800027e-07
-8.815575e-09
5.996455e-07
-1.0090755e-08
6.016655e-07
-1.1367803e-08
6.0412932e-07
-1.2646856e-08
6.0712927e-07
-1.3933505e-08
6.108018e-07
-1.5262162e-08
6.1546394e-07
-1.670927e-08
6.2201879e-07
-1.8163568e-08
6.3174583e-07
-1.8605373e-08
6.412265e-07
-1.5913073e-08
6.2942545e-07
-9.2367869e-09
5.5311417e-07
-2.1942167e-09
3.7873647e-07
1.3240228e-07
1.8213348e-09
1.0617176e-07
8.3507921e-09
3.2561761e-07
1.6390439e-08
5.1733788e-07
2.0858338e-08
6.2506965e-07
2.1159557e-08
6.5256196e-07
1.9665772e-08
6.440105e-07
1.8037303e-08
6.3117744e-07
1.6608611e-08
6.2237433e-07
1.5279926e-08
6.1649978e-07
1.3978894e-08
6.1204337e-07
1.2688129e-08
6.0842843e-07
1.1405117e-08
6.0545414e-07
1.0128888e-08
6.0300234e-07
8.858729e-09
6.0098425e-07
7.5941762e-09
5.9933363e-07
6.3348573e-09
5.9800153e-07
5.0803658e-09
5.969517e-07
3.8302071e-09
5.9615755e-07
2.583791e-09
5.9560008e-07
1.340452e-09
5.9526657e-07
9.9485945e-11
5.9514979e-07
-1.1398054e-09
5.9524748e-07
-2.3780658e-09
5.9556235e-07
-3.6158395e-09
5.9610217e-07
-4.8535327e-09
5.9688028e-07
-6.0913908e-09
5.9791645e-07
-7.3295031e-09
5.9923838e-07
-8.5678548e-09
6.0088385e-07
-9.8064257e-09
6.0290407e-07
-1.1045274e-08
6.0536817e-07
-1.2285139e-08
6.0836913e-07
-1.3533639e-08
6.120503e-07
-1.4828091e-08
6.1675839e-07
-1.623501e-08
6.234257e-07
-1.759486e-08
6.3310568e-07
-1.785082e-08
6.4148246e-07
-1.5030693e-08
6.2660532e-07
-8.5785366e-09
5.4666201e-07
-2.0415386e-09
3.7219948e-07
1.3036074e-07
1.7165019e-09
1.0445566e-07
7.782012e-09
3.1955297e-07
1.5481901e-08
5.0963884e-07
2.0033254e-08
6.2051874e-07
2.0569968e-08
6.5202533e-07
1.9213604e-08
6.4536682e-07
1.7632012e-08
6.32759e-07
1.6231244e-08
6.2377509e-07
1.493602e-08
6.1779501e-07
1.3671927e-08
6.1330747e-07
1.2418134e-08
6.0968222e-07
1.1171069e-08
6.067012e-07
9.9294922e-09
6.0424392e-07
8.6925648e-09
6.0222118e-07
7.4597949e-09
6.005664e-07
6.2308786e-09
5.9923044e-07
5.005558e-09
5.9817702e-07
3.7835498e-09
5.9737956e-07
2.564521e-09
5.9681911e-07
1.3480939e-09
5.96483e-07
1.3386924e-10
5.9636401e-07
-1.0785438e-09
5.9645989e-07
-2.289491e-09
5.967733e-07
-3.4992431e-09
5.9731192e-07
-4.7079713e-09
5.98089e-07
-5.9157415e-09
5.9912422e-07
-7.1225373e-09
6.0044518e-07
-8.3283304e-09
6.0208965e-07
-9.5331958e-09
6.0410893e-07
-1.0737427e-08
6.065724e-07
-1.1942431e-08
6.0957414e-07
-1.3157823e-08
6.1326569e-07
-1.4422938e-08
6.1802351e-07
-1.579226e-08
6.2479503e-07
-1.7060274e-08
6.343737e-07
-1.7145982e-08
6.4156817e-07
-1.4226714e-08
6.2368605e-07
-7.9999498e-09
5.4043524e-07
-1.9138537e-09
3.6611338e-07
1.2844689e-07
1.6207202e-09
1.0283539e-07
7.2737286e-09
3.1390097e-07
1.4645889e-08
5.0226767e-07
1.9251458e-08
6.1591372e-07
2.0003399e-08
6.5127351e-07
1.878321e-08
6.4658698e-07
1.7249605e-08
6.3429257e-07
1.5874107e-08
6.2515058e-07
1.4608302e-08
6.1906081e-07
1.3377438e-08
6.1453833e-07
1.2157454e-08
6.1090221e-07
1.0943647e-08
6.0791501e-07
9.7344859e-09
6.0545308e-07
8.5289942e-09
6.0342667e-07
7.3266193e-09
6.0176878e-07
6.1270771e-09
6.0042999e-07
4.9301996e-09
5.993739e-07
3.735849e-09
5.9857391e-07
2.5438786e-09
5.9801108e-07
1.3541253e-09
5.9767275e-07
1.6641876e-10
5.9755172e-07
-1.0193998e-09
5.9764571e-07
-2.2034541e-09
5.9795735e-07
-3.3858156e-09
5.9849428e-07
-4.5664926e-09
5.9926968e-07
-5.7454386e-09
6.0030317e-07
-6.9225909e-09
6.0162233e-07
-8.0979566e-09
6.0326501e-07
-9.2717377e-09
6.0528272e-07
-1.0444488e-08
6.0774515e-07
-1.1618316e-08
6.1074797e-07
-1.2804744e-08
6.1445212e-07
-1.404419e-08
6.1926295e-07
-1.5377373e-08
6.2612821e-07
-1.6555624e-08
6.3555195e-07
-1.648518e-08
6.4149773e-07
-1.3490653e-08
6.2069152e-07
-7.4870316e-09
5.3443162e-07
-1.804027e-09
3.6043037e-07
1.2664286e-07
1.5322797e-09
1.0130363e-07
6.8167807e-09
3.0861763e-07
1.3874388e-08
4.9521122e-07
1.8509511e-08
6.1127926e-07
1.9457594e-08
6.5032559e-07
1.8371874e-08
6.4767266e-07
1.6887807e-08
6.357766e-07
1.553586e-08
6.2650251e-07
1.429619e-08
6.2030048e-07
1.3095393e-08
6.1573913e-07
1.1906464e-08
6.1209114e-07
1.0723523e-08