/*--------------------------------*- C++ -*----------------------------------*\
  =========                 |
  \\      /  F ield         | OpenFOAM: The Open Source CFD Toolbox
   \\    /   O peration     | Website:  https://openfoam.org
    \\  /    A nd           | Version:  10
     \\/     M anipulation  |
\*---------------------------------------------------------------------------*/
FoamFile
{
    format      ascii;
    class       volScalarField;
    location    "0.22";
    object      TporMedia;
}
// * * * * * * * * * * * * * * * * * * * * * * * * * * * * * * * * * * * * * //

dimensions      [0 0 0 1 0 0 0];

internalField   nonuniform List<scalar> 
4000
(
-0.0005207498
0.00013449799
0.00035694262
0.0004308396
0.00043627186
0.00035892971
0.00045270661
0.00042365625
0.00045943086
0.00052526638
0.00051582352
0.0004975987
0.00054084468
0.00043988032
0.00047033687
0.00039319143
0.00061781245
0.00040325997
0.00041568013
0.00039654214
0.00044052251
0.00033716689
0.00048489688
0.00039638566
0.00081977512
0.00042060827
0.00037562424
0.00042646305
0.00041763302
0.00045014751
0.00056283337
0.00045322092
0.00050451687
0.00049520953
0.00040787813
0.00043588301
0.00038348553
0.00054136067
0.00035931689
0.00052829022
-5.1655404e-05
1.1239335e-11
9.3729318e-11
2.7700053e-10
3.3782345e-10
3.0670096e-10
2.9757167e-10
2.7448867e-10
2.637435e-10
3.0950118e-10
2.8867336e-10
3.4935547e-10
3.998144e-10
5.3381596e-10
2.9618161e-10
5.148031e-10
4.0629965e-10
2.7789905e-10
3.9002873e-10
2.902125e-10
2.5801161e-10
3.2298586e-10
3.8669642e-10
2.0036585e-10
4.6056201e-10
1.9766496e-10
2.9844392e-10
2.5337895e-10
1.9746483e-10
2.5298146e-10
3.2643477e-10
2.8702328e-10
4.1366845e-10
3.372861e-10
2.9682122e-10
3.6259681e-10
2.5618454e-10
3.4749141e-10
3.0884802e-10
3.0214789e-10
-2.0176405e-05
-5.6867297e-12
1.0490483e-17
2.0152315e-16
3.1278285e-16
1.9495642e-16
2.6597162e-16
1.8843431e-16
1.7958962e-16
4.1463875e-16
2.0009639e-16
3.6540997e-16
2.0298996e-16
4.1077368e-16
2.5301703e-16
4.9807416e-16
3.2080122e-16
2.7833616e-16
2.9712429e-16
1.9518296e-16
2.1200418e-16
4.882352e-16
2.5188995e-16
1.2224165e-16
3.8590492e-16
1.3516068e-16
2.0883631e-16
1.570228e-16
1.3197575e-16
1.3223272e-16
1.7081523e-16
2.4661805e-16
2.4305475e-16
2.6611544e-16
2.4629979e-16
2.1310157e-16
1.7841036e-16
3.489812e-16
1.7531976e-16
2.1097184e-16
-1.0909753e-05
7.5099527e-13
4.9765636e-20
4.4945858e-23
2.2651267e-22
1.4473252e-22
2.1999982e-22
1.390281e-22
1.4828371e-22
4.0912773e-22
1.6701949e-22
3.0971889e-22
2.3198888e-22
3.4886966e-22
1.4543285e-22
3.6302679e-22
2.2061707e-22
2.2752301e-22
2.1585584e-22
1.3870535e-22
1.8593967e-22
4.6749359e-22
1.6919351e-22
9.4922421e-23
2.2354888e-22
9.6339179e-23
1.7511434e-22
8.9321184e-23
7.9658494e-23
8.2446383e-23
8.7135168e-23
2.2245751e-22
2.3376703e-22
2.3277084e-22
1.4516539e-22
1.575069e-22
8.5511114e-23
2.0714235e-22
1.0489299e-22
1.62077e-22
-6.8463191e-06
1.3800477e-13
6.8373924e-21
6.8404333e-28
1.4219293e-28
1.2745916e-28
1.5737139e-28
9.9880002e-29
1.0798855e-28
3.0998971e-28
1.1199098e-28
3.0843702e-28
1.3686094e-28
2.4189676e-28
1.4320473e-28
2.9589712e-28
4.1242031e-28
1.4922829e-28
1.1615182e-28
1.2813709e-28
1.5429178e-28
2.9263809e-28
1.7114408e-28
1.1182874e-28
1.4712086e-28
6.4856113e-29
1.2155166e-28
5.6323046e-29
6.8893883e-29
5.5808223e-29
4.6761924e-29
2.2574313e-28
1.3074172e-28
1.8274809e-28
1.2892894e-28
9.6568792e-29
6.2269232e-29
1.7014895e-28
6.7570938e-29
9.824276e-29
-4.7867551e-06
4.5600558e-14
2.7073844e-21
1.3309139e-28
9.2691706e-35
1.8114297e-34
1.6432681e-34
1.123142e-34
7.8517885e-35
2.8638953e-34
1.4977887e-34
1.8223507e-34
1.2060953e-34
2.0179053e-34
1.40779e-34
2.577067e-34
3.0465842e-34
1.1082668e-34
1.0161924e-34
9.3716901e-35
2.9526182e-34
2.7945639e-34
2.718409e-34
7.5151517e-35
1.0976018e-34
5.3275535e-35
8.626387e-35
4.5309989e-35
4.8152714e-35
5.19922e-35
2.7444178e-35
1.686229e-34
1.4333692e-34
1.0376902e-34
9.5191268e-35
7.4946661e-35
3.7508136e-35
1.9317001e-34
5.2052219e-35
6.4405995e-35
-3.614528e-06
1.9846256e-14
-3.5463011e-20
-1.1140292e-27
-1.6284531e-34
3.0791648e-41
2.7641233e-40
8.9455825e-41
5.1765243e-41
3.2692559e-40
1.0835501e-40
1.2073959e-40
7.3355654e-41
1.789893e-40
9.4604747e-41
1.7424675e-40
2.4813555e-40
6.0058853e-41
1.1260946e-40
7.7900884e-41
2.2574357e-40
1.7844302e-40
2.0846278e-40
5.2238487e-41
5.9929248e-41
5.7875774e-41
7.0851684e-41
2.6357662e-41
4.3459321e-41
4.6017819e-41
1.7777186e-41
1.216192e-40
1.6754938e-40
6.9784846e-41
8.2337952e-41
7.3561144e-41
5.1311758e-41
1.2017774e-40
2.9134205e-41
4.5475781e-41
-2.8689766e-06
1.0221617e-14
-2.8790149e-22
-6.5597228e-30
-4.8683306e-37
-6.2127136e-43
9.0302273e-46
7.5394267e-47
4.0361549e-47
3.3664525e-46
8.7111718e-47
6.6476224e-47
7.0589536e-47
1.2985516e-46
6.1981883e-47
9.420838e-47
2.0218912e-46
4.3076202e-47
9.0066813e-47
5.6850837e-47
1.3774309e-46
1.196676e-46
1.5278053e-46
3.6269571e-47
6.2968265e-47
6.0843859e-47
7.7359994e-47
2.2918199e-47
2.8679265e-47
4.2533691e-47
1.7572544e-47
1.2206763e-46
9.8465186e-47
5.2412759e-47
6.1296042e-47
5.2032474e-47
3.1953272e-47
6.99884e-47
2.3894012e-47
4.1689385e-47
-2.3650231e-06
5.9043521e-15
-6.3117669e-23
-1.1764313e-30
-4.7378924e-38
-2.5426428e-44
-5.864947e-50
6.5587397e-53
3.0527891e-53
2.6841474e-52
6.8876944e-53
6.0871113e-53
7.8461389e-53
8.3880074e-53
4.1868015e-53
5.1679956e-53
1.9129352e-52
3.9238041e-53
6.8431734e-53
6.5901853e-53
1.296408e-52
7.0337688e-53
1.3647683e-52
3.0289485e-53
4.3824658e-53
3.7238489e-53
5.5272777e-53
1.93812e-53
1.9985956e-53
3.0515486e-53
1.3302625e-53
1.0193628e-52
6.1111575e-53
6.0519498e-53
4.7087914e-53
3.5405817e-53
2.1724916e-53
7.2117645e-53
1.9277817e-53
2.901775e-53
-1.9871893e-06
3.660443e-15
-2.0554346e-23
-3.6512018e-31
-9.3123192e-39
-2.0151451e-45
3.7748016e-51
2.7417225e-57
2.2700805e-59
2.793541e-58
4.501994e-59
4.1923291e-59
6.5468025e-59
1.088727e-58
3.0342775e-59
3.7617743e-59
1.3799432e-58
2.6340028e-59
4.6417055e-59
4.3008127e-59
6.2602827e-59
4.3417867e-59
1.2529305e-58
1.8623206e-59
4.9732041e-59
2.6210045e-59
4.3120342e-59
1.7813284e-59
1.2358423e-59
3.4836952e-59
8.5050842e-60
9.0368375e-59
4.973609e-59
3.195783e-59
4.4252669e-59
2.0839951e-59
2.096454e-59
4.5458802e-59
2.2329961e-59
2.2175203e-59
-1.6846161e-06
2.3757665e-15
-8.1403254e-24
-1.6464498e-31
-2.8086752e-39
-2.8348346e-46
7.3512167e-52
1.149839e-57
8.5063665e-64
4.0457353e-64
3.9785414e-65
2.6097309e-65
4.5766718e-65
8.1196232e-65
2.1214897e-65
4.6400639e-65
1.9131759e-64
1.6547617e-65
4.9167241e-65
2.6439955e-65
5.2899178e-65
4.2600212e-65
1.0612385e-64
1.7839362e-65
2.7460083e-65
2.536601e-65
3.3287274e-65
1.2260188e-65
1.0684461e-65
2.311811e-65
6.6533369e-66
6.6435487e-65
3.2202488e-65
1.7887916e-65
2.80198e-65
1.4568646e-65
1.7578148e-65
3.3354569e-65
1.5831549e-65
1.7568138e-65
-1.4264085e-06
1.5788585e-15
-3.5882522e-24
-1.3479151e-31
-1.7041606e-39
-9.4243116e-47
1.0290424e-52
3.7842056e-58
2.8183729e-64
6.2045649e-70
3.7429035e-71
1.6365137e-71
3.5422633e-71
5.3150284e-71
1.0998522e-71
3.4320832e-71
1.2337835e-70
1.0161837e-71
4.4203016e-71
1.7728418e-71
4.5743453e-71
3.2520872e-71
9.3390403e-71
1.2603343e-71
2.543015e-71
1.2576149e-71
2.5194309e-71
8.7046737e-72
1.2660438e-71
2.2928158e-71
6.7570519e-72
4.9541581e-71
2.9009367e-71
2.1378658e-71
2.1298413e-71
9.7830471e-72
1.5673089e-71
3.869885e-71
1.1997371e-71
1.2050438e-71
-1.2040758e-06
1.0672406e-15
-1.7027665e-24
1.1054743e-31
1.0885137e-39
3.4660926e-47
1.6754729e-52
-5.4984726e-58
-7.411547e-64
-5.267182e-70
-2.9935652e-76
1.8528829e-77
4.4452317e-77
4.9048428e-77
8.6196158e-78
2.6478516e-77
8.7281309e-77
7.5932818e-78
5.4094044e-77
1.2459872e-77
3.4290733e-77
2.2729594e-77
1.3323118e-76
9.8041562e-78
2.7610942e-77
1.1519381e-77
2.2171403e-77
6.2316416e-78
1.3339564e-77
1.6333493e-77
4.3838774e-78
2.8334538e-77
4.3678388e-77
1.2533611e-77
1.1281041e-77
6.6407415e-78
1.3139776e-77
2.7770706e-77
7.5410132e-78
8.205526e-78
-1.012576e-06
7.2852168e-16
-8.5021157e-25
1.05283e-32
8.5366658e-41
1.817416e-48
7.9052267e-55
-8.7041684e-61
-9.3614727e-67
-7.0247006e-73
-5.9008017e-79
1.1063001e-83
4.1327083e-83
3.5272214e-83
5.5370816e-84
3.344593e-83
8.1867095e-83
6.6439843e-84
5.3542902e-83
8.3966687e-84
3.8168244e-83
1.2751054e-83
2.1240872e-82
8.0338118e-84
1.7397471e-83
1.0662436e-83
1.7403346e-83
4.7328949e-84
8.7427587e-84
2.7101133e-83
3.0783968e-84
2.4857641e-83
3.3058378e-83
7.6368497e-84
8.5193018e-84
6.2011963e-84
9.4835095e-84
2.2929489e-83
4.7603427e-84
5.5926885e-84
-8.4919271e-07
5.0208477e-16
-4.4207705e-25
2.4890079e-33
1.7656607e-41
2.5777177e-49
3.9459261e-56
-2.4533999e-62
-4.3859706e-68
-3.1201058e-74
-1.8437155e-80
-1.22848e-86
6.334395e-89
5.4944593e-89
3.6122246e-90
2.1333465e-89
5.8554717e-89
6.3534508e-90
5.6471118e-89
7.4131424e-90
2.2536715e-89
1.5137828e-89
1.6809281e-88
8.1545879e-90
1.2543902e-89
5.3528919e-90
1.315291e-89
3.5775518e-90
6.0477575e-90
2.7829304e-89
3.5211484e-90
1.8799487e-89
2.5619975e-89
7.1451661e-90
9.2598174e-90
3.1311182e-90
7.4070562e-90
2.514917e-89
3.4585693e-90
2.9172991e-90
-7.1293195e-07
3.4887922e-16
-2.3719529e-25
7.6639248e-34
4.9961615e-42
5.2972028e-50
4.1883294e-57
-1.7108909e-63
-5.2489023e-69
-5.5921924e-75
-4.9083139e-81
-4.6242391e-87
-2.3920468e-93
3.841609e-95
2.7463807e-96
1.9845417e-95
5.7665623e-95
5.9309692e-96
5.0802725e-95
4.4521851e-96
1.6692644e-95
9.8081718e-96
1.9066496e-94
6.5571658e-96
1.6204994e-95
4.4892826e-96
1.1742955e-95
3.4859655e-96
3.7640789e-96
2.1240012e-95
2.4183155e-96
1.2673453e-95
1.7764375e-95
5.8391423e-96
8.1226895e-96
2.9177853e-96
4.4471964e-96
2.8182156e-95
1.7999994e-96
1.6643641e-96
-5.99746e-07
2.4467047e-16
-1.3095055e-25
2.7061185e-34
1.7470747e-42
1.4015547e-50
6.2322044e-58
-2.4603872e-64
2.7675529e-70
2.4909643e-76
2.0353729e-82
1.578382e-88
1.0289139e-94
9.3399865e-101
3.8716231e-102
1.714685e-101
3.2409795e-101
4.2646593e-102
4.1556163e-101
2.6024788e-102
1.1652778e-101
7.0444707e-102
1.126229e-100
4.5079684e-102
1.2340668e-101
6.3269779e-102
1.5875347e-101
1.8668902e-102
2.5129904e-102
1.4885737e-101
1.3952205e-102
8.8394194e-102
1.5319785e-101
6.6006334e-102
5.9418723e-102
2.582194e-102
3.5443341e-102
2.0214789e-101
1.0776713e-102
1.0541312e-102
-5.0628551e-07
1.7316916e-16
-7.4032894e-26
1.0438134e-34
7.2810894e-43
4.5661164e-51
1.2897384e-58
-5.8151259e-65
6.805853e-71
4.8544321e-77
4.3959916e-83
4.0711066e-89
3.7773724e-95
2.5525789e-101
3.2231381e-107
1.6805294e-107
2.6200747e-107
3.0632933e-108
3.4293717e-107
2.4845635e-108
1.2851097e-107
6.0612199e-108
7.3828582e-107
2.5531037e-108
1.3270583e-107
5.3464698e-108
1.115713e-107
1.5588253e-108
2.0196194e-108
1.2211665e-107
7.5136089e-109
8.0404462e-108
1.0757534e-107
5.9530864e-108
3.4678942e-108
1.5756022e-108
2.5231398e-108
1.147981e-107
6.6667449e-109
7.0424101e-109
-4.2955002e-07
1.2379617e-16
-4.2794837e-26
4.3046453e-35
3.8590725e-43
1.9477979e-51
3.6620822e-59
-1.4040925e-64
5.6860433e-71
8.9030595e-77
6.1470175e-83
3.9782004e-89
3.9447136e-95
2.6457584e-101
3.034883e-107
5.4262288e-113
1.5891675e-113
1.8875203e-114
2.7044828e-113
1.7351561e-114
8.6377882e-114
5.0449944e-114
4.324231e-113
1.9468219e-114
1.1047445e-113
4.5037688e-114
1.0556294e-113
9.3867272e-115
1.1738573e-114
9.4121432e-114
4.5317485e-115
4.987371e-114
6.429253e-114
5.6372997e-114
1.9244957e-114
1.0102785e-114
1.1169215e-114
1.4122767e-113
3.9990672e-115
5.2300748e-115
-3.6571461e-07
8.9212353e-17
-2.5203075e-26
1.8700069e-35
3.3248012e-43
1.4007991e-51
1.8580045e-59
8.3537485e-66
-2.7400663e-72
-1.145596e-77
-1.1734607e-83
-1.0370873e-89
-9.8790626e-96
-6.6082299e-102
-3.5475034e-108
-2.5832557e-114
9.3261565e-120
1.2262368e-120
1.7977815e-119
1.0492771e-120
7.1570333e-120
3.8103164e-120
3.8933386e-119
1.1935284e-120
6.2704967e-120
2.62824e-120
7.9925073e-120
5.8370617e-121
1.1132614e-120
6.2336519e-120
4.4810736e-121
3.2076148e-120
6.249504e-120
2.9057132e-120
1.0824363e-120
5.467505e-121
6.6603612e-121
7.5999584e-120
3.2791855e-121
2.5019256e-121
-3.1277061e-07
6.4859542e-17
-1.5111893e-26
8.4861548e-36
-2.695049e-43
-9.6838196e-52
-9.3601503e-60
-1.3713203e-66
4.0947203e-73
1.7359947e-78
1.5992628e-84
1.1733248e-90
6.7729121e-97
4.9615472e-103
3.9494909e-109
3.8571582e-115
2.7823136e-121
1.0910051e-126
1.2517962e-125
8.9846483e-127
5.4637443e-126
2.7912145e-126
2.5098781e-125
1.1030141e-126
5.7203712e-126
1.6386249e-126
4.1856255e-126
3.4946323e-127
1.030569e-126
5.0853826e-126
3.562065e-127
1.6696004e-126
3.4610833e-126
2.9595211e-126
5.7385121e-127
2.4371878e-127
4.6995496e-127
5.2262013e-126
2.5747662e-127
1.4846185e-127
-2.6855188e-07
4.7517785e-17
-9.2031582e-27
3.9902023e-36
-2.5311068e-44
-7.9861654e-53
-5.811923e-61
-4.0531782e-68
8.2954008e-75
-4.1814013e-80
-3.9933662e-86
-5.1935862e-92
-5.3359708e-98
-3.3419914e-104
-2.4167979e-110
-1.3864939e-116
-8.9512698e-123
-5.7701838e-129
1.4547269e-131
6.7914119e-133
3.4767488e-132
2.3356293e-132
1.7669893e-131
8.4977439e-133
4.0618536e-132
1.3758817e-132
2.4590121e-132
1.9579696e-133
1.3620777e-132
3.1604237e-132
2.4956164e-133
1.0804663e-132
2.5830782e-132
1.9140349e-132
3.5472179e-133
2.631749e-133
3.3214942e-133
3.7814594e-132
1.5247427e-133
1.1428388e-133
-2.3135946e-07
3.5056388e-17
-5.6817068e-27
1.9352765e-36
-5.8503613e-45
-1.6660742e-53
-9.3604509e-62
-3.7728116e-69
7.923365e-76
-4.829831e-82
-4.5157972e-88
-3.9419763e-94
-2.8875483e-100
-4.0652002e-106
-2.7920412e-112
-1.7528616e-118
-1.4246377e-124
-1.1660583e-130
-8.0479707e-137
4.630796e-139
2.4903829e-138
1.5422531e-138
1.3065057e-137
4.7232532e-139
2.8011019e-138
8.1184912e-139
1.8800693e-138
1.5346773e-139
7.3073858e-139
2.2254944e-138
1.3499842e-139
1.0193043e-138
1.5219573e-138
2.3209056e-138
2.0930358e-139
1.5624442e-139
2.2833998e-139
2.8172583e-138
6.8506119e-140
6.6394961e-140
-1.9998147e-07
2.6036765e-17
-3.553125e-27
9.6394182e-37
-1.7171878e-45
-4.5521559e-54
-2.0244122e-62
-5.2644493e-70
1.1920596e-76
-6.2161075e-83
-6.666944e-89
-3.8284372e-95
-2.1378443e-101
-1.5223923e-107
-1.3171839e-113
-1.5647685e-119
-1.2840013e-125
-8.5444976e-132
-1.046042e-137
-7.5739823e-144
1.5891061e-144
1.6637328e-144
8.7497065e-144
3.8118742e-145
2.548086e-144
5.2360085e-145
1.4242393e-144
1.1495065e-145
5.0909934e-145
1.6663014e-144
1.7630513e-145
5.5983251e-145
1.6418325e-144
1.5296174e-144
1.574914e-145
1.1510377e-145
1.624927e-145
2.8889742e-144
4.3797373e-146
3.9755368e-146
-1.7329592e-07
1.9449622e-17
-2.2474595e-27
4.9135174e-37
-5.7045369e-46
-1.4614813e-54
-5.2714696e-63
-9.2849121e-71
2.199423e-77
-7.040717e-84
-7.6480818e-90
-5.5197269e-96
-3.3289111e-102
-1.6386135e-108
-1.0808956e-114
-1.1409482e-120
-9.6149348e-127
-1.0112603e-132
-7.0428191e-139
-4.6543558e-145
8.7654852e-151
1.3603476e-150
5.1880975e-150
2.1826993e-151
1.6792565e-150
4.9540055e-151
9.99006e-151
1.0714734e-151
3.192769e-151
9.5277701e-151
1.6700052e-151
5.8314925e-151
1.1756871e-150
1.1006407e-150
1.025127e-151
6.0875361e-152
9.3271377e-152
1.705917e-150
3.4385127e-152
4.8815354e-152
-1.5059622e-07
1.4612211e-17
-1.43663e-27
2.5584196e-37
-2.0607228e-46
-5.3406994e-55
-1.5887951e-63
-1.9739612e-71
1.559147e-77
-4.4486737e-84
-1.4132428e-89
-1.3204474e-95
-1.4636572e-101
-1.4540001e-107
-8.2514426e-114
-7.8515529e-120
-6.027856e-126
-3.567565e-132
-2.221634e-138
-1.3088629e-144
-1.4569431e-150
-5.6484883e-158
3.8310628e-156
1.8253836e-157
1.326579e-156
3.4866066e-157
6.4376762e-157
7.9893305e-158
1.6203334e-157
5.5572939e-157
9.39206e-158
2.7932635e-157
7.2983712e-157
7.9904904e-157
5.8114382e-158
3.698268e-158
4.6369024e-158
9.7320689e-157
1.9953037e-158
4.15568e-158
-1.3112941e-07
1.1032093e-17
-9.2704819e-28
1.3571895e-37
-7.9086454e-47
-2.2135748e-55
-5.534183e-64
-5.0431701e-72
-3.0832413e-78
5.3007371e-85
-3.1493254e-90
-2.5676471e-96
-1.5789365e-102
-1.230236e-108
-8.8313766e-115
-9.4173754e-121
-8.2437351e-127
-5.9410436e-133
-3.9678801e-139
-3.883168e-145
-4.3470452e-151
-2.4346088e-157
3.4598492e-162
1.6679337e-163
9.6848625e-163
2.0017138e-163
4.3400581e-163
8.0463353e-164
7.6521849e-164
3.0995902e-163
5.9717845e-164
2.4259526e-163
9.2733269e-163
7.2973619e-163
2.9490045e-164
2.402158e-164
3.236735e-164
6.6641386e-163
2.0068619e-164
5.5691145e-164
-1.1442373e-07
8.3672574e-18
-6.0348069e-28
7.3204092e-38
-3.1810999e-47
-1.0632026e-55
-2.2688384e-64
-1.5643666e-72
-1.9719461e-79
3.0182646e-86
-5.1056629e-92
-5.9364703e-98
-4.4025624e-104
-4.7888196e-110
-3.8045409e-116
-4.2842398e-122
-2.0973064e-128
-2.0436195e-134
-1.7982886e-140
-1.4094935e-146
-9.3191347e-153
-8.5744158e-159
-8.9708347e-165
1.2758533e-169
7.6027718e-169
1.2673395e-169
3.2586369e-169
7.3972775e-170
5.7246766e-170
2.4588093e-169
3.2581349e-170
1.9597729e-169
7.950245e-169
5.494349e-169
2.1293024e-170
1.9574712e-170
2.1197055e-170
3.8519631e-169
1.3976032e-170
7.0314529e-170
-1.0003555e-07
6.3747145e-18
-3.9610867e-28
4.0099797e-38
-1.3303258e-47
-6.6226257e-56
-1.2295207e-64
-6.5733053e-73
-3.8946728e-80
5.6570549e-87
-3.2282989e-93
-1.3800292e-98
-7.4356578e-105
-8.3549382e-111
-5.4860203e-117
-4.636236e-123
-5.5387803e-129
-4.1078332e-135
-4.2270104e-141
-2.6754351e-147
-1.805365e-153
-1.1917409e-159
-8.8628338e-166
-8.674232e-172
4.0124831e-175
8.7792998e-176
2.6461214e-175
6.7853007e-176
4.1510957e-176
2.7715128e-175
2.3152164e-176
1.1468812e-175
6.0775085e-175
3.0566026e-175
1.0454257e-176
1.2031489e-176
1.251113e-176
2.1126719e-175
1.2587401e-176
-1.3210368e-175
-8.7609782e-08
4.8759049e-18
-2.6194956e-28
2.2277691e-38
-5.7513872e-48
-1.0617607e-55
-1.7439093e-64
-7.3348173e-73
-2.7335294e-80
3.6288418e-87
-1.5577093e-93
-1.6289248e-99
-1.6742816e-105
-1.3055661e-111
-9.7593604e-118
-1.0508676e-123
-1.0520799e-129
-6.8805561e-136
-4.0360709e-142
-3.016485e-148
-3.5948715e-154
-5.5480347e-160
-3.9428652e-166
-3.493407e-172
-3.8331746e-178
6.6528352e-182
1.7343199e-181
5.3802956e-182
3.114154e-182
2.2311783e-181
1.4648632e-182
1.0014211e-181
4.0593203e-181
2.3429185e-181
7.710575e-183
6.6092688e-183
8.5265337e-183
1.4881824e-181
8.6189534e-183
9.6813843e-181
-7.683754e-08
3.7428955e-18
-1.7441703e-28
1.2533299e-38
-2.5579255e-48
1.686924e-56
2.4912627e-65
8.413758e-74
1.9794821e-81
-2.530629e-88
6.7295358e-95
7.1006575e-101
5.6291077e-107
4.2352884e-113
4.8156278e-119
3.7278005e-125
4.9037204e-131
4.3966136e-137
4.0153784e-143
2.8013422e-149
1.6216834e-155
9.2904977e-162
8.8653783e-168
4.9297629e-174
6.0867954e-180
7.5161832e-186
2.3449911e-187
3.4257362e-188
2.7441989e-188
1.7696554e-187
9.3649591e-189
5.4137992e-188
3.170082e-187
1.7510829e-187
4.6117314e-189
6.5792016e-189
5.8343083e-189
1.4355151e-187
6.4211231e-189
-1.1596323e-186
-6.7493659e-08
2.8831516e-18
-1.1689512e-28
7.135784e-39
-1.1663262e-48
2.7148985e-57
3.6777057e-66
1.0129963e-74
1.6480634e-82
-2.3950998e-89
4.862182e-96
8.9322716e-102
7.4798938e-108
4.9292973e-114
4.1763775e-120
5.4995697e-126
3.3036573e-132
2.4456593e-138
3.4293164e-144
3.3240068e-150
2.7550905e-156
5.6752404e-162
3.6208097e-168
4.1021808e-174
2.3605709e-180
2.0200598e-186
1.6801196e-192
2.551295e-194
2.4230577e-194
1.619953e-193
7.6736166e-195
3.5382681e-194
2.0241102e-193
1.7400249e-193
3.0046162e-195
4.213478e-195
5.3353504e-195
1.2932991e-193
4.6491256e-194
3.3511006e-192
-5.9358219e-08
2.2276037e-18
-7.8797933e-29
4.1065815e-39
-5.4372981e-49
6.8538305e-58
8.6853164e-67
1.9846636e-75
2.3205606e-83
-4.4179791e-90
8.103051e-97
-8.4591455e-102
-1.662211e-107
-1.2896158e-113
-1.4411666e-119
-1.2350244e-125
-8.5343846e-132
-5.0965582e-138
-6.1259165e-144
-4.6826279e-150
-4.2350624e-156
-3.801659e-162
-3.6548967e-168
-3.0002394e-174
-2.7877874e-180
-2.2855331e-186
-2.6108182e-192
-1.6780546e-198
1.8327553e-200
1.520999e-199
4.8612729e-201
2.3972415e-200
1.6958495e-199
1.6401497e-199
2.7711817e-201
4.6025729e-201
4.393042e-201
1.1083577e-199
7.5545511e-200
-5.1370442e-198
-5.2267327e-08
1.7261365e-18
-5.3411802e-29
2.3870019e-39
-2.5856873e-49
2.0543874e-58
2.4906717e-67
4.7729469e-76
4.0961314e-84
-3.2733292e-90
5.1249236e-97
-2.1695366e-102
-1.878705e-108
-1.1224262e-114
-9.2977099e-121
-6.7464691e-127
-4.5838029e-133
-4.071815e-139
-3.2357124e-145
-2.2081201e-151
-2.1515577e-157
-1.4352457e-163
-9.436888e-170
-5.2775067e-176
-4.0322531e-182
-2.8745715e-188
-2.314631e-194
-1.3987909e-200
3.6063275e-207
1.2299825e-205
2.8723117e-207
1.4666303e-206
1.2505652e-205
1.9126715e-205
1.7754424e-207
2.8559508e-207
3.7041311e-207
6.7086772e-206
7.3703015e-206
5.5340843e-204
-4.6071677e-08
1.3410335e-18
-3.6386916e-29
1.4002939e-39
-1.2517566e-49
6.7918956e-59
8.1119921e-68
1.3251813e-76
8.6733685e-85
2.8789361e-91
-3.6521631e-98
2.6726052e-104
3.0327662e-110
2.6667219e-116
1.4782857e-122
2.3428265e-128
2.5651425e-134
1.5400586e-140
9.1335516e-147
5.417616e-153
4.9962618e-159
3.6274631e-165
4.0231488e-171
3.1481382e-177
2.0599883e-183
2.5331424e-189
1.4427959e-195
9.8954913e-202
7.9685865e-208
9.2254246e-212
3.249663e-213
1.1604095e-212
9.70302e-212
1.6983055e-211
1.3566529e-213
2.2652589e-213
2.3737626e-213
5.5613464e-212
8.1648066e-210
3.653167e-209
-4.0652129e-08
1.0444426e-18
-2.4905709e-29
8.284975e-40
-6.1600675e-50
2.4007003e-59
2.9219547e-68
4.1103558e-77
2.0952606e-85
2.1454363e-92
-2.4676543e-99
1.1686031e-105
9.4470901e-112
6.9851908e-118
4.9396434e-124
4.3939264e-130
3.7285721e-136
2.5444127e-142
3.3977537e-148
3.1669289e-154
2.6287957e-160
2.1322494e-166
1.345079e-172
1.2749416e-178
8.2031207e-185
7.4403716e-191
6.5416102e-197
3.9961374e-203
3.4528252e-209
2.0340555e-215
2.3949594e-219
6.9538707e-219
6.41378e-218
1.0892895e-217
6.7641977e-220
1.4292459e-219
1.5049756e-219
4.9998735e-218
1.1061236e-215
5.473692e-215
-3.5901851e-08
8.1527007e-19
-1.712197e-29
4.941189e-40
-3.0768167e-50
8.9205422e-60
1.1629614e-68
1.428794e-77
5.755927e-86
2.815485e-93
-2.8502908e-100
1.1935574e-106
1.2744357e-112
8.9518451e-119
6.735358e-125
4.5194596e-131
5.4291761e-137
3.054848e-143
1.9181931e-149
1.5018001e-155
1.4152046e-161
8.7078431e-168
4.3691841e-174
2.9783845e-180
2.0288642e-186
1.0862868e-192
7.9548995e-199
5.93479e-205
4.2707379e-211
2.8262185e-217
1.6898496e-223
5.7922897e-225
3.0779084e-224
8.705743e-224
3.8675155e-226
2.0357806e-225
8.1600039e-226
7.4204531e-224
3.4418528e-220
4.3403874e-221
-3.1731104e-08
6.3762492e-19
-1.1816819e-29
2.9681868e-40
-1.5577287e-50
3.448786e-60
5.1895089e-69
5.6284219e-78
1.8216376e-86
5.5431872e-94
-5.6980571e-101
1.6296046e-107
1.322443e-112
1.4391782e-118
2.8596548e-124
2.4688747e-130
2.2272424e-136
2.4373134e-142
1.8484146e-148
1.1709066e-154
7.7888692e-161
7.8783162e-167
7.2190688e-173
4.9513089e-179
3.4587832e-185
2.7249626e-191
1.5538524e-197
2.0670893e-203
1.375511e-209
1.1954376e-215
2.1440494e-221
1.2459885e-227
2.0808525e-230
4.648121e-230
3.3892491e-232
1.4140913e-231
6.6306304e-232
5.1074083e-230
5.1567046e-226
2.0680213e-227
-2.8064964e-08
4.9962711e-19
-8.185845e-30
1.7951817e-40
-7.9858592e-51
1.3779148e-60
2.736506e-69
2.6534735e-78
7.0259792e-87
1.4242787e-94
-1.5664534e-101
3.5932076e-108
7.4481801e-114
4.766606e-120
1.1137633e-125
1.1202439e-131
2.3195458e-137
3.8902205e-143
2.4315497e-149
1.7243758e-155
1.826399e-161
1.376303e-167
1.4005558e-173
1.1048423e-179
1.0583301e-185
8.3955649e-192
1.8226863e-197
1.2730418e-203
6.994623e-210
4.4674348e-216
3.4279687e-222
3.040034e-228
1.5805772e-234
2.5611626e-236
2.4429566e-238
1.1800182e-237
4.8621373e-238
6.3831012e-236
8.1934294e-232
5.0888459e-234
-2.4836531e-08
3.9211711e-19
-5.6893274e-30
1.0924847e-40
-4.1411891e-51
5.6625908e-61
2.0951071e-69
1.8405376e-78
4.025838e-87
5.7191972e-95
-6.5577953e-102
1.2263456e-108
-9.9956923e-113
-7.2591802e-119
-5.8002332e-125
-4.1074136e-131
-2.9482566e-137
-1.9312213e-143
-1.9622928e-149
-1.4437985e-155
-8.0864032e-162
-4.9770409e-168
-5.8099732e-174
-4.4753961e-180
-2.7966586e-186
-3.5530383e-192
-2.6357616e-198
-1.803558e-204
-1.6009945e-210
-1.419975e-216
-1.0004893e-222
-6.8449568e-229
-4.2252884e-235
-2.5387546e-241
1.4697795e-244
8.9072514e-244
4.5629801e-244
8.1938628e-242
5.6634772e-238
1.3306221e-240
-2.199104e-08
3.0818692e-19
-3.9662752e-30
6.6870044e-41
-2.1704162e-51
2.3837177e-61
-4.7819725e-69
-3.852822e-78
-7.0638868e-87
-7.3402103e-95
1.1341468e-101
-1.7423432e-108
-1.0447963e-113
-1.3518869e-119
-1.439555e-125
-1.0718747e-131
-8.0150977e-138
-1.1527145e-143
-9.5087119e-150
-1.5387597e-155
-1.9195442e-161
-1.8167678e-167
-1.7321473e-173
-1.4817216e-179
-1.1649343e-185
-7.8428062e-192
-5.3697015e-198
-6.104597e-204
-3.4915865e-210
-2.643858e-216
-1.9724617e-222
-9.5139047e-229
-7.9353937e-235
-4.7321428e-241
-3.0099798e-247
8.4278434e-250
3.6408965e-250
5.6323422e-248
2.5264164e-244
2.6507896e-247
-1.94804e-08
2.4252858e-19
-2.7727559e-30
4.1148585e-41
-1.1486942e-51
1.0253795e-61
-2.1674226e-70
-1.6241095e-79
-2.519688e-88
-1.9685653e-96
7.5072766e-103
-1.0199295e-109
1.5584217e-115
9.5269127e-122
1.2610519e-127
8.3378855e-134
9.3909351e-140
7.7984593e-146
5.0839906e-152
3.0503268e-158
6.7310568e-164
1.1244305e-169
1.1645037e-175
7.9614667e-182
7.184991e-188
7.5989377e-194
7.0154199e-200
4.7306457e-206
3.9542754e-212
2.1998449e-218
1.4312855e-224
1.2139814e-230
7.5844703e-237
5.9175071e-243
4.8497669e-249
4.4206551e-255
2.3925228e-256
3.6194326e-254
1.2872512e-250
4.6519158e-254
-1.7263125e-08
1.9107161e-19
-1.9432224e-30
2.5445114e-41
-6.1348347e-52
4.4960329e-62
-4.4198529e-71
-3.1308965e-80
-4.1595087e-89
-2.5135577e-97
-1.4176767e-103
1.7341145e-110
-1.4681817e-116
-8.7241957e-121
-7.6162698e-127
-7.2720253e-133
-4.8043791e-139
-3.4794204e-145
-3.8650887e-151
-3.0580465e-157
-2.4323159e-163
-2.0172624e-169
-1.2585013e-175
-1.2689291e-181
-1.0173621e-187
-6.6567495e-194
-4.2109464e-200
-2.951248e-206
-1.6341578e-212
-6.8254212e-219
-4.4505134e-225
-2.6364607e-231
-1.325808e-237
-8.504902e-244
-5.6023356e-250
-5.2488374e-256
-3.4199728e-262
3.1366208e-260
4.743875e-257
7.4137089e-261
-1.5303911e-08
1.506795e-19
-1.3649486e-30
1.5805827e-41
-3.304107e-52
2.0056825e-62
-1.1782796e-71
-8.0232919e-81
-9.2240951e-90
-4.3827609e-98
-5.2819077e-105
5.4416033e-112
-3.2510956e-118
-1.5383384e-123
-1.5133559e-129
-1.7074722e-135
-1.2913872e-141
1.7723338e-145
1.4124318e-151
9.6029857e-158
9.4112314e-164
9.9902414e-170
8.3495959e-176
5.322519e-182
4.2909485e-188
4.9896551e-194
3.5237265e-200
3.4380598e-206
2.8350386e-212
3.287605e-218
2.2720127e-224
1.5185707e-230
1.0286382e-236
6.1125254e-243
9.5050439e-249
1.0455471e-254
1.0521895e-260
2.9945966e-266
1.6559045e-263
1.0089495e-267
-1.35722e-08
1.1893424e-19
-9.6076821e-31
9.8597384e-42
-1.7935401e-52
9.0891973e-63
-3.5614102e-72
-2.3788941e-81
-2.3889063e-90
-9.1096623e-99
-4.999383e-106
5.2392919e-113
-1.878298e-119
-6.5779648e-125
-5.358937e-131
-4.2799654e-137
-3.0987497e-143
-2.1823553e-149
-2.2253469e-155
-3.6034697e-161
-4.5246719e-167
-4.0211637e-173
-3.1798788e-179
-3.5378493e-185
-2.7666407e-191
-2.4226441e-197
-1.7835868e-203
-1.5315842e-209
-9.0892127e-216
-8.9242751e-222
-6.9522565e-228
-5.6893312e-234
-4.2765955e-240
-6.8593866e-246
-6.4859118e-252
-1.2075872e-257
-2.6661095e-263
-2.0902899e-269
4.2991189e-270
1.3334836e-274
-1.2041161e-08
9.3955004e-20
-6.7755723e-31
6.1745817e-42
-9.8070793e-53
4.1786604e-63
-1.164016e-72
-7.826291e-82
-6.9287658e-91
-2.142999e-99
-7.1828869e-107
6.7038544e-114
-1.8026288e-120
3.8990469e-126
7.1220831e-132
7.3368322e-138
7.7209873e-144
1.7774772e-149
1.4372266e-155
2.3409716e-161
7.1455634e-167
6.9241172e-173
4.8638847e-179
4.2091723e-185
6.5657061e-191
1.1243386e-196
8.0113565e-203
6.8237776e-209
5.0146103e-215
4.4504728e-221
6.4231517e-227
4.2494914e-233
3.3229736e-239
2.5759946e-245
2.0756532e-251
1.6927162e-257
1.4580872e-263
9.9087293e-270
3.8868128e-276
1.6445866e-281
-1.0688162e-08
7.428713e-20
-4.7871325e-31
3.8812088e-42
-5.3998638e-53
1.9468332e-63
-4.0186089e-73
-2.8104765e-82
-2.2144034e-91
-5.6307644e-100
-1.2729609e-107
1.287263e-114
-2.5439052e-121
5.9183617e-127
6.4444893e-133
6.3018783e-139
6.9359934e-145
9.1728689e-151
7.8663245e-157
6.4210786e-163
5.9542967e-169
8.3691574e-175
1.2017161e-180
1.4455242e-186
2.8054248e-192
4.7809667e-198
7.4129925e-204
9.5873155e-210
7.5356982e-216
5.5143201e-222
4.1450318e-228
4.4055857e-234
3.4558368e-240
4.0578466e-246
4.1601076e-252
4.0144688e-258
5.6561276e-264
3.0309421e-270
6.3331523e-277
7.8860312e-284
-9.4927686e-09
5.8790509e-20
-3.3882977e-31
2.4483259e-42
-2.9927701e-53
9.1834774e-64
-1.4475627e-73
-1.101572e-82
-7.805282e-92
-1.6556523e-100
-2.604936e-108
2.8184382e-115
-4.8877374e-122
5.3009165e-128
4.8999828e-134
1.4122658e-139
2.082247e-145
1.7745324e-151
2.8793689e-157
4.837481e-163
6.9742711e-169
6.8257325e-175
7.5700071e-181
9.5841448e-187
9.6393494e-193
9.8412387e-199
6.5171374e-205
8.8835543e-211
1.0277502e-216
1.6097621e-222
1.8183392e-228
2.0045236e-234
3.307625e-240
2.6211544e-246
2.0857813e-252
-3.6019461e-257
-7.1203119e-263
-3.4861432e-269
-6.8296965e-276
-7.4355798e-283
-8.4374671e-09
4.6575834e-20
-2.402613e-31
1.5498217e-42
-1.6692123e-53
4.3827541e-64
-5.3970043e-74
-4.7863394e-83
-3.0779936e-92
-5.4971171e-101
-6.3464939e-109
7.9952408e-116
-1.209162e-122
1.9072891e-128
2.8807095e-134
3.9504471e-140
4.2692726e-146
7.8830975e-152
8.0677569e-158
5.9349546e-164
2.5137691e-169
5.7251312e-175
1.0866776e-180
1.9765472e-186
3.8041791e-192
6.947757e-198
6.1271251e-203
8.6421729e-209
5.759406e-215
6.52547e-221
5.1718711e-227
2.9837136e-233
4.1940376e-239
4.3140218e-245
8.4755916e-251
9.9831528e-257
1.2321081e-262
6.0810185e-269
1.291344e-275
1.2376412e-282
-7.5068894e-09
3.6947274e-20
-1.7070746e-31
9.8452688e-43
-9.3679789e-54
2.1150771e-64
-2.0715911e-74
-2.4234715e-83
-1.4288463e-92
-2.1695143e-101
-1.8849166e-109
3.7756287e-116
-5.3717305e-123
4.9140517e-129
1.7018607e-134
1.2910329e-140
1.7185452e-146
2.8555397e-152
5.9314185e-158
6.9332502e-164
5.740012e-170
6.1375869e-176
6.9050487e-182
9.5350432e-188
2.1777768e-193
2.9748989e-199
3.1864591e-205
4.0628878e-211
1.3575641e-216
1.0627629e-222
7.1496047e-229
6.0113861e-235
3.697802e-241
3.6490593e-247
3.6698886e-253
1.0730288e-258
2.4973364e-264
1.110284e-270
1.8491046e-277
1.8028767e-284
-6.6872439e-09
2.9356216e-20
-1.2155674e-31