/*--------------------------------*- C++ -*----------------------------------*\
  =========                 |
  \\      /  F ield         | OpenFOAM: The Open Source CFD Toolbox
   \\    /   O peration     | Website:  https://openfoam.org
    \\  /    A nd           | Version:  10
     \\/     M anipulation  |
\*---------------------------------------------------------------------------*/
FoamFile
{
    format      ascii;
    class       volVectorField;
    location    "0.22";
    object      U;
}
// * * * * * * * * * * * * * * * * * * * * * * * * * * * * * * * * * * * * * //

dimensions      [0 1 -1 0 0 0 0];

internalField   nonuniform List<vector> 
4000
(
(0 0.018637444 0.47773158)
(0 0.023509971 0.50886061)
(0 0.008166825 0.50052521)
(0 0.0056145892 0.50033634)
(0 0.0042546059 0.50025746)
(0 0.0032549268 0.50016898)
(0 0.0025560799 0.50011969)
(0 0.0020545803 0.50009013)
(0 0.0016765885 0.5000698)
(0 0.0013822613 0.50005539)
(0 0.0011472259 0.50004499)
(0 0.00095514356 0.50003733)
(0 0.00079475988 0.5000316)
(0 0.00065809904 0.50002727)
(0 0.00053933256 0.50002398)
(0 0.00043407963 0.50002151)
(0 0.00033895275 0.50001966)
(0 0.00025124985 0.50001833)
(0 0.00016873804 0.50001744)
(0 8.9495249e-05 0.50001693)
(0 1.1787967e-05 0.50001678)
(0 -6.6036108e-05 0.50001698)
(0 -0.00014563927 0.50001754)
(0 -0.00022878629 0.5000185)
(0 -0.00031745486 0.50001991)
(0 -0.00041396624 0.50002185)
(0 -0.00052115715 0.50002446)
(0 -0.00064261889 0.50002793)
(0 -0.00078304541 0.50003252)
(0 -0.00094876293 0.50003863)
(0 -0.0011485813 0.50004688)
(0 -0.0013951588 0.50005824)
(0 -0.0017072424 0.50007414)
(0 -0.002115181 0.50009709)
(0 -0.002674889 0.50013482)
(0 -0.0034684782 0.50020238)
(0 -0.0045607282 0.50027144)
(0 -0.0065849317 0.50043365)
(0 -0.017659376 0.50675405)
(0 -0.013590088 0.47975566)
(0 0.037432643 0.44796933)
(0 0.05095565 0.53232615)
(0 0.021969221 0.50804289)
(0 0.016135559 0.50357318)
(0 0.012416005 0.50242315)
(0 0.0095158919 0.50162298)
(0 0.0075205794 0.5011566)
(0 0.0060698768 0.50086591)
(0 0.004964586 0.50066799)
(0 0.0041001743 0.50052899)
(0 0.003407691 0.50042902)
(0 0.0028401881 0.50035552)
(0 0.0023652917 0.50030062)
(0 0.0019599176 0.50025923)
(0 0.0016071051 0.50022788)
(0 0.0012940587 0.50020422)
(0 0.0010108533 0.50018661)
(0 0.00074955042 0.50017394)
(0 0.00050357579 0.50016543)
(0 0.00026725947 0.5001606)
(0 3.5480613e-05 0.50015917)
(0 -0.00019664044 0.50016107)
(0 -0.00043401337 0.50016642)
(0 -0.00068184876 0.50017553)
(0 -0.00094597736 0.50018894)
(0 -0.0012332287 0.5002075)
(0 -0.0015519273 0.50023244)
(0 -0.0019125798 0.50026556)
(0 -0.0023288674 0.50030948)
(0 -0.0028191304 0.5003681)
(0 -0.0034087443 0.50044735)
(0 -0.0041340854 0.50055671)
(0 -0.0050482333 0.50071127)
(0 -0.0062310537 0.50093662)
(0 -0.0078314304 0.5012944)
(0 -0.010125156 0.50191055)
(0 -0.01310635 0.50282514)
(0 -0.01742578 0.5060812)
(0 -0.038758598 0.52526811)
(0 -0.027894473 0.45021676)
(0 0.039888208 0.40982072)
(0 0.061427976 0.54930817)
(0 0.031983595 0.52188194)
(0 0.024355381 0.51008055)
(0 0.019193526 0.50658855)
(0 0.01497709 0.50452806)
(0 0.012006697 0.50327137)
(0 0.0097719388 0.50245836)
(0 0.0080365748 0.50190103)
(0 0.0066649583 0.50150866)
(0 0.0055568677 0.50122544)
(0 0.0046427685 0.50101668)
(0 0.0038739222 0.50086053)
(0 0.0032149324 0.50074261)
(0 0.0026394642 0.50065323)
(0 0.0021274639 0.50058571)
(0 0.001663254 0.50053544)
(0 0.001234214 0.50049924)
(0 0.00082983623 0.50047492)
(0 0.00044102104 0.50046109)
(0 5.9526493e-05 0.50045701)
(0 -0.00032250948 0.50046244)
(0 -0.00071299623 0.50047773)
(0 -0.0011203137 0.50050376)
(0 -0.0015538077 0.50054206)
(0 -0.0020243736 0.50059503)
(0 -0.0025452104 0.50066617)
(0 -0.0031328517 0.50076054)
(0 -0.0038086282 0.50088554)
(0 -0.0046007803 0.5010521)
(0 -0.0055476633 0.50127675)
(0 -0.0067032586 0.50158561)
(0 -0.0081447678 0.50202081)
(0 -0.0099762811 0.50265075)
(0 -0.012370613 0.50361512)
(0 -0.015715728 0.50519924)
(0 -0.019872254 0.50785401)
(0 -0.025185936 0.51641227)
(0 -0.047416595 0.53912739)
(0 -0.030853449 0.41488086)
(0 0.034791494 0.3617304)
(0 0.063838685 0.55456342)
(0 0.039380152 0.53747133)
(0 0.030083191 0.5184926)
(0 0.024112433 0.51197727)
(0 0.019279457 0.50849941)
(0 0.015736077 0.5062642)
(0 0.012954134 0.50475538)
(0 0.010743662 0.50370435)
(0 0.0089679709 0.50295604)
(0 0.0075140285 0.50241099)
(0 0.006302169 0.5020067)
(0 0.0052745868 0.5017029)
(0 0.0043880241 0.50147267)
(0 0.0036096635 0.50129765)
(0 0.0029141207 0.50116517)
(0 0.0022812885 0.50106637)
(0 0.0016948059 0.50099511)
(0 0.0011409314 0.50094719)
(0 0.00060768452 0.50091993)
(0 8.4163772e-05 0.50091186)
(0 -0.00044005247 0.50092257)
(0 -0.0009754462 0.50095267)
(0 -0.0015330885 0.5010039)
(0 -0.0021252591 0.50107923)
(0 -0.002766165 0.50118325)
(0 -0.0034728458 0.50132266)
(0 -0.0042663799 0.50150716)
(0 -0.0051735478 0.50175074)
(0 -0.0062291296 0.50207387)
(0 -0.0074789944 0.50250703)
(0 -0.0089853747 0.50309722)
(0 -0.010835641 0.50391916)
(0 -0.013136357 0.50508921)
(0 -0.016023178 0.50680687)
(0 -0.019898678 0.50946752)
(0 -0.024730762 0.51427493)
(0 -0.03111261 0.52824698)
(0 -0.050318994 0.54407225)
(0 -0.028438086 0.37238211)
(0 0.027424153 0.31484381)
(0 0.062314558 0.55024086)
(0 0.044614178 0.55146759)
(0 0.033981737 0.52748809)
(0 0.027463794 0.51772238)
(0 0.022454933 0.51291975)
(0 0.018636607 0.50973132)
(0 0.015528007 0.5074925)
(0 0.01300615 0.50589979)
(0 0.010942211 0.50474673)
(0 0.0092248065 0.50389595)
(0 0.0077750824 0.50325897)
(0 0.0065330513 0.50277688)
(0 0.0054522867 0.50240949)
(0 0.0044967388 0.50212897)
(0 0.0036379405 0.50191589)
(0 0.0028529462 0.50175655)
(0 0.0021228152 0.50164139)
(0 0.0014314517 0.50156383)
(0 0.00076469422 0.50151966)
(0 0.00010957658 0.50150654)
(0 -0.0005463333 0.50152385)
(0 -0.001215536 0.50157255)
(0 -0.0019111796 0.50165535)
(0 -0.0026477434 0.50177693)
(0 -0.0034418088 0.50194443)
(0 -0.0043130042 0.50216827)
(0 -0.0052852161 0.50246332)
(0 -0.006388197 0.50285085)
(0 -0.0076597238 0.50336149)
(0 -0.009148062 0.50403989)
(0 -0.01091565 0.50495258)
(0 -0.013049324 0.50620238)
(0 -0.015652886 0.50794418)
(0 -0.018814187 0.51040435)
(0 -0.022894736 0.5140549)
(0 -0.028176011 0.52114554)
(0 -0.035706013 0.53932649)
(0 -0.050475715 0.54155615)
(0 -0.024085942 0.33056065)
(0 0.019837786 0.27519861)
(0 0.057989608 0.539747)
(0 0.047363367 0.5625647)
(0 0.036477232 0.53660447)
(0 0.029635784 0.52350702)
(0 0.024675839 0.51740316)
(0 0.020774025 0.51336284)
(0 0.017509649 0.51044433)
(0 0.014814207 0.50832398)
(0 0.012566768 0.50676157)
(0 0.010665806 0.50559252)
(0 0.0090393266 0.50470773)
(0 0.0076297101 0.50403224)
(0 0.0063910943 0.50351384)
(0 0.0052870181 0.50311583)
(0 0.004288011 0.50281216)
(0 0.0033698426 0.50258429)
(0 0.0025121747 0.50241914)
(0 0.0016974815 0.50230769)
(0 0.00091017454 0.50224411)
(0 0.00013587498 0.50222518)
(0 -0.00063925213 0.50225)
(0 -0.0014291134 0.50231993)
(0 -0.002248265 0.50243869)
(0 -0.0031126041 0.50261273)
(0 -0.0040401196 0.50285185)
(0 -0.0050517884 0.50317017)
(0 -0.0061726779 0.5035877)
(0 -0.0074333396 0.50413262)
(0 -0.0088717037 0.50484486)
(0 -0.010535038 0.50578143)
(0 -0.012481638 0.50702463)
(0 -0.014791719 0.5086976)
(0 -0.017567068 0.51098199)
(0 -0.020861668 0.51412017)
(0 -0.02497179 0.51873042)
(0 -0.030506796 0.52823005)
(0 -0.038628169 0.54872428)
(0 -0.048507502 0.53398639)
(0 -0.019066613 0.29394294)
(0 0.013083048 0.2425561)
(0 0.051798324 0.5252014)
(0 0.047708805 0.57024849)
(0 0.037756518 0.54552478)
(0 0.030849956 0.52928847)
(0 0.026073157 0.52180145)
(0 0.022237709 0.51699765)
(0 0.018953545 0.51347314)
(0 0.016193476 0.51086457)
(0 0.013849694 0.50891204)
(0 0.011835702 0.50743221)
(0 0.010088913 0.50630007)
(0 0.0085567037 0.50542787)
(0 0.0071963224 0.50475346)
(0 0.0059729684 0.50423248)
(0 0.0048578222 0.503833)
(0 0.0038266945 0.50353204)
(0 0.0028589121 0.50331323)
(0 0.0019363859 0.50316523)
(0 0.001042831 0.50308063)
(0 0.00016310227 0.50305534)
(0 -0.00071742919 0.50308822)
(0 -0.0016134638 0.50318098)
(0 -0.0025403084 0.50333837)
(0 -0.00351453 0.5035685)
(0 -0.0045546352 0.50388367)
(0 -0.0056818643 0.50430148)
(0 -0.0069211334 0.50484655)
(0 -0.0083021499 0.50555315)
(0 -0.0098609868 0.50646907)
(0 -0.011641841 0.50766144)
(0 -0.013696962 0.50922514)
(0 -0.016095858 0.51129813)
(0 -0.018933829 0.51407976)
(0 -0.022242248 0.51783888)
(0 -0.026261919 0.52346818)
(0 -0.031845756 0.53537541)
(0 -0.03975677 0.55589731)
(0 -0.044892386 0.52282682)
(0 -0.01409027 0.26265129)
(0 0.007769968 0.21554272)
(0 0.044825209 0.50801132)
(0 0.046254649 0.57438096)
(0 0.038034578 0.55375106)
(0 0.031287287 0.5349603)
(0 0.026767846 0.52603002)
(0 0.02311631 0.52053807)
(0 0.019920533 0.51648779)
(0 0.01718196 0.51344111)
(0 0.014813372 0.51113004)
(0 0.012746338 0.50935885)
(0 0.010928805 0.50799027)
(0 0.0093148682 0.50692668)
(0 0.0078665586 0.50609818)
(0 0.0065521306 0.50545416)
(0 0.0053446263 0.50495777)
(0 0.0042209338 0.50458224)
(0 0.0031609208 0.5043083)
(0 0.0021466835 0.50412253)
(0 0.0011618962 0.50401611)
(0 0.00019124213 0.50398415)
(0 -0.00078013487 0.50402529)
(0 -0.0017671602 0.50414158)
(0 -0.00278529 0.50433865)
(0 -0.003851097 0.50462615)
(0 -0.0049828465 0.50501861)
(0 -0.006201159 0.50553662)
(0 -0.0075297745 0.50620879)
(0 -0.0089963787 0.50707444)
(0 -0.01063377 0.50818774)
(0 -0.012481529 0.50962393)
(0 -0.014584793 0.51148806)
(0 -0.016999763 0.51392902)
(0 -0.019808105 0.51715554)
(0 -0.02302579 0.52148068)
(0 -0.026875307 0.52818317)
(0 -0.032347264 0.54222062)
(0 -0.039399816 0.56050326)
(0 -0.040326215 0.50908935)
(0 -0.0097075996 0.23586531)
(0 0.0040047875 0.1935585)
(0 0.037898783 0.48948908)
(0 0.043685966 0.57524041)
(0 0.037562989 0.56084481)
(0 0.031153475 0.54036087)
(0 0.026913563 0.53001106)
(0 0.023513623 0.52390139)
(0 0.020479967 0.51941208)
(0 0.017826571 0.51598721)
(0 0.015489471 0.51335825)
(0 0.013418336 0.51132336)
(0 0.011571815 0.5097367)
(0 0.0099117435 0.5084936)
(0 0.0084058843 0.50751841)
(0 0.0070264066 0.50675576)
(0 0.0057490373 0.50616491)
(0 0.0045524924 0.50571603)
(0 0.0034178512 0.50538749)
(0 0.0023279974 0.50516408)
(0 0.0012671136 0.5050358)
(0 0.0002202236 0.50499709)
(0 -0.00082726165 0.50504637)
(0 -0.0018899963 0.50518599)
(0 -0.0029830699 0.50542235)
(0 -0.0041225068 0.5057664)
(0 -0.0053257225 0.50623453)
(0 -0.0066120392 0.50684982)
(0 -0.0080032687 0.50764409)
(0 -0.0095242691 0.50866068)
(0 -0.011203641 0.50995867)
(0 -0.013075254 0.51161938)
(0 -0.015176626 0.51375548)
(0 -0.017550398 0.51652271)
(0 -0.020260724 0.52013215)
(0 -0.023315477 0.52496397)
(0 -0.026956572 0.53274066)
(0 -0.032198108 0.54839106)
(0 -0.037990379 0.56254571)
(0 -0.035412261 0.49380075)
(0 -0.0061999174 0.21326208)
(0 0.0015509105 0.17613618)
(0 0.031498729 0.4707645)
(0 0.040530942 0.57338639)
(0 0.03655762 0.56659812)
(0 0.030636208 0.54537805)
(0 0.026670688 0.53370413)
(0 0.023542263 0.52703169)
(0 0.020709749 0.52218772)
(0 0.018182485 0.51845043)
(0 0.015916997 0.51555014)
(0 0.013878856 0.51328468)
(0 0.012036625 0.51150344)
(0 0.010360002 0.51009737)
(0 0.0088227289 0.50898698)
(0 0.0074012708 0.50811354)
(0 0.0060745104 0.50743352)
(0 0.0048234703 0.50691475)
(0 0.0036309075 0.50653378)
(0 0.002480941 0.50627402)
(0 0.0013586889 0.50612451)
(0 0.00024992704 0.50607914)
(0 -0.00085926251 0.50613617)
(0 -0.001982857 0.50629817)
(0 -0.0031351657 0.50657218)
(0 -0.0043312329 0.5069702)
(0 -0.0055871721 0.50751005)
(0 -0.0069205329 0.50821677)
(0 -0.0083507074 0.50912459)
(0 -0.0098992678 0.5102798)
(0 -0.011590226 0.51174496)
(0 -0.013451308 0.51360543)
(0 -0.015512585 0.51597867)
(0 -0.017804685 0.51902325)
(0 -0.02037456 0.52295016)
(0 -0.023229452 0.52823628)
(0 -0.026649679 0.53704109)
(0 -0.031559557 0.55365946)
(0 -0.035899415 0.56231143)
(0 -0.030550073 0.47790233)
(0 -0.0035902171 0.19462188)
(0 7.6507663e-05 0.1625283)
(0 0.025869323 0.45260424)
(0 0.037157809 0.56943443)
(0 0.035189412 0.57098847)
(0 0.029875656 0.54996236)
(0 0.026172246 0.53711326)
(0 0.023304596 0.5299116)
(0 0.020686381 0.52478326)
(0 0.018307083 0.52079706)
(0 0.016138318 0.51767278)
(0 0.014158786 0.51521186)
(0 0.012345631 0.51326212)
(0 0.010675769 0.51171234)
(0 0.009128582 0.51048082)
(0 0.0076848123 0.50950678)
(0 0.0063266487 0.50874485)
(0 0.0050376503 0.50816128)
(0 0.0038025254 0.50773132)
(0 0.0026069236 0.50743737)
(0 0.0014372018 0.50726777)
(0 0.00028019217 0.50721597)
(0 -0.00087704617 0.50728013)
(0 -0.0020475071 0.507463)
(0 -0.003244413 0.50777207)
(0 -0.0044815227 0.50822012)
(0 -0.0057733499 0.50882605)
(0 -0.0071353944 0.50961626)
(0 -0.0085843879 0.51062663)
(0 -0.010138477 0.5119054)
(0 -0.011817151 0.5135173)
(0 -0.013642205 0.51554998)
(0 -0.015636861 0.51812321)
(0 -0.017821754 0.52139517)
(0 -0.020229274 0.5255803)
(0 -0.022872997 0.53128343)
(0 -0.026070731 0.54103192)
(0 -0.030562189 0.55793499)
(0 -0.033420207 0.56019567)
(0 -0.025991434 0.46208309)
(0 -0.0017642032 0.17948495)
(0 -0.00071821982 0.1519115)
(0 0.02110674 0.43544015)
(0 0.03381691 0.56393352)
(0 0.033601408 0.5740887)
(0 0.028972485 0.55409311)
(0 0.025517788 0.54026268)
(0 0.02288425 0.53255161)
(0 0.020476813 0.52719073)
(0 0.018253371 0.52301105)
(0 0.016194515 0.5197066)
(0 0.014289511 0.51708408)
(0 0.012522593 0.51499208)
(0 0.010876862 0.5133187)
(0 0.0093366773 0.51198131)
(0 0.0078867506 0.51091812)
(0 0.0065124772 0.51008275)
(0 0.0051999762 0.50944052)
(0 0.0039360148 0.50896585)
(0 0.0027079303 0.50864048)
(0 0.0015035045 0.50845227)
(0 0.00031082704 0.50839439)
(0 -0.00088185812 0.50846491)
(0 -0.0020863522 0.5086667)
(0 -0.0033145898 0.50900759)
(0 -0.0045788576 0.50950085)
(0 -0.0058919122 0.5101661)
(0 -0.0072670983 0.51103058)
(0 -0.0087184593 0.51213117)
(0 -0.010260815 0.51351718)
(0 -0.011909489 0.51525446)
(0 -0.013680936 0.51743165)
(0 -0.015592317 0.5201689)
(0 -0.017656104 0.52362213)
(0 -0.019893776 0.52801704)
(0 -0.022331495 0.53411156)
(0 -0.025310655 0.54468217)
(0 -0.029321158 0.56120829)
(0 -0.030784295 0.55659369)
(0 -0.021889906 0.44678131)
(0 -0.00056354204 0.16726415)
(0 -0.0010703629 0.14358843)
(0 0.017201834 0.41948641)
(0 0.030663843 0.55734298)
(0 0.031911521 0.57602002)
(0 0.02800076 0.55776267)
(0 0.024780844 0.54317825)
(0 0.022347673 0.53497443)
(0 0.020136677 0.52941601)
(0 0.018067116 0.52508837)
(0 0.016122609 0.52164219)
(0 0.014300529 0.51888886)
(0 0.012590717 0.51667927)
(0 0.010981306 0.51490186)
(0 0.0094608513 0.51347392)
(0 0.0080175677 0.51233341)
(0 0.0066397917 0.5114336)
(0 0.0053160785 0.51073938)
(0 0.0040352315 0.51022474)
(0 0.0027863179 0.50987108)
(0 0.0015586282 0.50966597)
(0 0.00034161727 0.50960242)
(0 -0.00087516736 0.50967844)
(0 -0.0021022152 0.50989696)
(0 -0.0033500662 0.510266)
(0 -0.0046294526 0.51079915)
(0 -0.0059513332 0.51151637)
(0 -0.0073269257 0.51244536)
(0 -0.0087677095 0.51362344)
(0 -0.010285435 0.5151003)
(0 -0.011891749 0.51694211)
(0 -0.013598536 0.51923761)
(0 -0.015417802 0.522106)
(0 -0.017355542 0.5257002)
(0 -0.019426364 0.53026735)
(0 -0.021673886 0.53673235)
(0 -0.024442669 0.54797174)
(0 -0.027938154 0.56352327)
(0 -0.028162241 0.55186727)
(0 -0.018319646 0.43226173)
(0 0.00017019125 0.15741346)
(0 -0.001153482 0.13700773)
(0 0.014077115 0.4048234)
(0 0.027778656 0.55003715)
(0 0.030207789 0.5769299)
(0 0.027012882 0.5609775)
(0 0.024014393 0.54588394)
(0 0.021746733 0.53720701)
(0 0.019711158 0.53147222)
(0 0.017786647 0.52703226)
(0 0.015954698 0.52347694)
(0 0.014218309 0.52061978)
(0 0.012571494 0.51831485)
(0 0.011006307 0.51645155)
(0 0.0095146882 0.51494765)
(0 0.0080878209 0.51374139)
(0 0.0067166254 0.51278611)
(0 0.0053918754 0.51204669)
(0 0.0041042954 0.51149701)
(0 0.0028446371 0.51111834)
(0 0.0016037007 0.51089815)
(0 0.00037233547 0.51082936)
(0 -0.00085856559 0.51090995)
(0 -0.002098138 0.51114289)
(0 -0.0033555 0.51153628)
(0 -0.0046398311 0.51210379)
(0 -0.0059603411 0.51286553)
(0 -0.0073262426 0.51384928)
(0 -0.0087466751 0.51509238)
(0 -0.010230668 0.51664443)
(0 -0.011786751 0.51857136)
(0 -0.013423065 0.52096135)
(0 -0.015147456 0.52393175)
(0 -0.016961092 0.52763305)
(0 -0.018875608 0.53234492)
(0 -0.020954716 0.53915994)
(0 -0.023523962 0.55089416)
(0 -0.02649564 0.56496255)
(0 -0.025665287 0.54633428)
(0 -0.015292288 0.41867236)
(0 0.00057512096 0.14947011)
(0 -0.0010859071 0.13172964)
(0 0.011621933 0.39144246)
(0 0.025189181 0.54230978)
(0 0.028549018 0.57697267)
(0 0.02604224 0.56375728)
(0 0.023253787 0.5484026)
(0 0.021119943 0.53927784)
(0 0.019235694 0.53337676)
(0 0.017443182 0.52885069)
(0 0.015717832 0.52521297)
(0 0.014065841 0.5222749)
(0 0.012484121 0.51989402)
(0 0.010967638 0.51796108)
(0 0.0095109474 0.5163946)
(0 0.0081076451 0.51513341)
(0 0.0067508396 0.51413125)
(0 0.0054332545 0.51335322)
(0 0.0041473603 0.51277334)
(0 0.0028854855 0.51237293)
(0 0.0016398784 0.51213947)
(0 0.00040275032 0.51206588)
(0 -0.00083368021 0.51215013)
(0 -0.0020772146 0.51239518)
(0 -0.0033355849 0.51280911)
(0 -0.0046164833 0.51340556)
(0 -0.0059274844 0.51420457)
(0 -0.0072759789 0.51523375)
(0 -0.0086690489 0.51653017)
(0 -0.010113406 0.51814299)
(0 -0.011615032 0.52013755)
(0 -0.013179145 0.52260107)
(0 -0.014810417 0.52564853)
(0 -0.016506783 0.52942982)
(0 -0.01828021 0.53426789)
(0 -0.020214608 0.54141092)
(0 -0.022596078 0.55345708)
(0 -0.025054672 0.56563067)
(0 -0.023356109 0.54026063)
(0 -0.012778204 0.40607509)
(0 0.00076035293 0.14303987)
(0 -0.00094407847 0.12740858)
(0 0.009717516 0.37927757)
(0 0.02289196 0.53438132)
(0 0.026970395 0.57629341)
(0 0.025107565 0.56612925)
(0 0.022520249 0.55075492)
(0 0.020493957 0.54121458)
(0 0.018736727 0.53514925)
(0 0.017061202 0.53055466)
(0 0.015434065 0.52685559)
(0 0.013862484 0.52385549)
(0 0.012345218 0.52141508)
(0 0.010879301 0.51942659)
(0 0.0094612058 0.51780943)
(0 0.0080864162 0.51650313)
(0 0.0067498315 0.515462)
(0 0.0054458349 0.51465154)
(0 0.0041684356 0.51404605)
(0 0.0029113909 0.51362702)
(0 0.0016682924 0.51338203)
(0 0.00043263501 0.51330406)
(0 -0.00080210354 0.51339108)
(0 -0.0020424569 0.51364601)
(0 -0.0032948532 0.51407685)
(0 -0.0045656081 0.51469711)
(0 -0.0058608163 0.51552659)
(0 -0.0071862662 0.51659258)
(0 -0.0085472905 0.51793169)
(0 -0.0099486968 0.51959246)
(0 -0.011394472 0.52163941)
(0 -0.012887651 0.52415859)
(0 -0.014430625 0.52726255)
(0 -0.016019564 0.53110341)
(0 -0.017669284 0.53605668)
(0 -0.019481725 0.54350285)
(0 -0.02168705 0.55567794)
(0 -0.023657258 0.56563771)
(0 -0.021262763 0.53385788)
(0 -0.010724882 0.39446949)
(0 0.00080620252 0.13778938)
(0 -0.00077548608 0.12378348)
(0 0.0082512087 0.36823183)
(0 0.02086672 0.52641127)
(0 0.02548981 0.57501999)
(0 0.024217645 0.56812301)
(0 0.021824921 0.55295788)
(0 0.019885922 0.54304189)
(0 0.01823302 0.53680944)
(0 0.016659159 0.53215665)
(0 0.015120766 0.52841207)
(0 0.013624032 0.52536504)
(0 0.012168755 0.5228786)
(0 0.010753362 0.52084647)
(0 0.0093756589 0.51918888)
(0 0.0080325456 0.51784611)
(0 0.0067203418 0.5167731)
(0 0.0054348043 0.51593581)
(0 0.0041712607 0.51530892)
(0 0.0029247284 0.51487417)
(0 0.0016900099 0.51461929)
(0 0.00046177486 0.51453733)
(0 -0.00076533843 0.51462629)
(0 -0.0019966955 0.51488903)
(0 -0.0032375331 0.51533343)
(0 -0.0044929299 0.51597277)
(0 -0.0057676797 0.51682655)
(0 -0.0070662016 0.51792164)
(0 -0.008392387 0.51929408)
(0 -0.0097495351 0.52099169)
(0 -0.011140135 0.52307814)
(0 -0.012565666 0.52563824)
(0 -0.014027005 0.52878242)
(0 -0.015519851 0.5326685)
(0 -0.017063587 0.53773154)
(0 -0.018774293 0.54545217)
(0 -0.020814424 0.55757918)
(0 -0.022329948 0.56508863)
(0 -0.019390349 0.52728806)
(0 -0.0090695524 0.3838151)
(0 0.00076917545 0.13344628)
(0 -0.00060811649 0.12066412)
(0 0.0071238201 0.35819642)
(0 0.019085438 0.51851184)
(0 0.024113125 0.57326144)
(0 0.023374932 0.56976793)
(0 0.021172251 0.55502437)
(0 0.019305918 0.54478021)
(0 0.017737269 0.53837565)
(0 0.016250474 0.53366926)
(0 0.014791184 0.52989052)
(0 0.013363002 0.52680827)
(0 0.011966157 0.52428663)
(0 0.010599952 0.52222065)
(0 0.0092630513 0.5205313)
(0 0.0079533799 0.5191595)
(0 0.0066683483 0.51806078)
(0 0.0054048197 0.51720164)
(0 0.0041592251 0.51655712)
(0 0.0029276658 0.51610924)
(0 0.0017060094 0.51584594)
(0 0.00048997385 0.51576037)
(0 -0.0007247606 0.51585052)
(0 -0.0019425106 0.51611919)
(0 -0.0031674534 0.51657411)
(0 -0.004403583 0.51722832)
(0 -0.0056545796 0.51810095)
(0 -0.0069237234 0.51921841)
(0 -0.0082137525 0.52061614)
(0 -0.0095268139 0.52234126)
(0 -0.010864326 0.52445662)
(0 -0.012226726 0.52704584)
(0 -0.013613998 0.53021782)
(0 -0.015022484 0.53413997)
(0 -0.016477114 0.53931096)
(0 -0.01810308 0.54727326)
(0 -0.019987903 0.55918526)
(0 -0.021087201 0.56407826)
(0 -0.017729615 0.52067192)
(0 -0.0077475013 0.37404909)
(0 0.00068768403 0.12979527)
(0 -0.00045689092 0.11791525)
(0 0.0062527662 0.34906186)
(0 0.017517973 0.51075957)
(0 0.022838444 0.57110915)
(0 0.022578055 0.57109202)
(0 0.0205624 0.55696382)
(0 0.018758976 0.54644567)
(0 0.017257579 0.53986401)
(0 0.015844578 0.53510435)
(0 0.014455148 0.5312991)
(0 0.01308907 0.52819047)
(0 0.01174655 0.52564213)
(0 0.010427375 0.52355021)
(0 0.0091307108 0.52183622)
(0 0.0078551877 0.52044163)
(0 0.0065990275 0.5193225)
(0 0.005359963 0.51844579)
(0 0.004135327 0.51778693)
(0 0.0029221339 0.51732824)
(0 0.0017171675 0.51705783)
(0 0.00051705986 0.51696896)
(0 -0.0006815946 0.51705963)
(0 -0.0018821926 0.51733259)
(0 -0.0030879902 0.51779537)
(0 -0.0043020535 0.51846077)
(0 -0.0055271313 0.51934756)
(0 -0.0067655808 0.52048167)
(0 -0.0080192451 0.52189797)
(0 -0.0092894252 0.52364294)
(0 -0.01057682 0.52577871)
(0 -0.011881234 0.52838786)
(0 -0.013202247 0.53157863)
(0 -0.014537747 0.53553185)
(0 -0.015918566 0.54081093)
(0 -0.017473394 0.54897818)
(0 -0.019211485 0.56052089)
(0 -0.019934456 0.56268939)
(0 -0.016263281 0.51409706)
(0 -0.0066975164 0.36509804)
(0 0.00058690743 0.12666985)
(0 -0.00032827515 0.11544265)
(0 0.0055723085 0.34072435)
(0 0.016135377 0.50320461)
(0 0.021659476 0.56863887)
(0 0.021823617 0.57212138)
(0 0.019992951 0.55878283)
(0 0.018246648 0.54805043)
(0 0.016798674 0.54128827)
(0 0.015447811 0.5364727)
(0 0.014119731 0.53264554)
(0 0.012809534 0.52951705)
(0 0.01151706 0.52694853)
(0 0.010242298 0.52483689)
(0 0.0089846506 0.52310403)
(0 0.0077432064 0.5216918)
(0 0.0065167686 0.52055668)
(0 0.0053037358 0.51966604)
(0 0.0041021628 0.51899567)
(0 0.002909817 0.51852813)
(0 0.0017242545 0.51825175)
(0 0.00054288833 0.51815987)
(0 -0.00063690199 0.51825051)
(0 -0.0018177235 0.51852632)
(0 -0.003002049 0.5189947)
(0 -0.0041921672 0.51966817)
(0 -0.0053900661 0.52056516)
(0 -0.0065973742 0.52171116)
(0 -0.0078152631 0.52314054)
(0 -0.0090444414 0.52489923)
(0 -0.010285169 0.52704878)
(0 -0.011536925 0.52967094)
(0 -0.012799261 0.53287433)
(0 -0.014072296 0.53685686)
(0 -0.015392608 0.5422448)
(0 -0.016886677 0.55057688)
(0 -0.018485247 0.56160986)
(0 -0.018870981 0.56099259)
(0 -0.0149705 0.50762505)
(0 -0.0058649971 0.3568854)
(0 0.00048259112 0.12394336)
(0 -0.00022360143 0.11318192)
(0 0.005031963 0.33308897)
(0 0.014911545 0.49587793)
(0 0.020567959 0.56591312)
(0 0.021107455 0.57287994)
(0 0.01946015 0.56048587)
(0 0.017768233 0.54960329)
(0 0.016362864 0.54265978)
(0 0.015064178 0.53778379)
(0 0.013789837 0.53393695)
(0 0.012529752 0.53079319)
(0 0.011283133 0.52820938)
(0 0.010049964 0.52608285)
(0 0.0088297095 0.52433569)
(0 0.0076217282 0.52290997)
(0 0.0064252217 0.5217625)
(0 0.0052390849 0.52086097)
(0 0.0040619378 0.52018145)
(0 0.0028921571 0.51970676)
(0 0.001727937 0.51942538)
(0 0.00056734453 0.51933074)
(0 -0.0005915795 0.51942087)
(0 -0.001750778 0.51969835)
(0 -0.0029120715 0.52017042)
(0 -0.0040771113 0.52084936)
(0 -0.0052472783 0.52175329)
(0 -0.0064236415 0.52290732)
(0 -0.0076068871 0.5243454)
(0 -0.0087973355 0.52611303)
(0 -0.0099950175 0.52827133)
(0 -0.011199321 0.53090148)
(0 -0.012410041 0.53411368)
(0 -0.01363 0.53812608)
(0 -0.014900968 0.5436233)
(0 -0.016341807 0.55207724)
(0 -0.017806829 0.56247425)
(0 -0.017892238 0.55904698)
(0 -0.013829756 0.50129753)
(0 -0.0052032736 0.34933615)
(0 0.00038394269 0.12152104)
(0 -0.00014134102 0.11108969)
(0 0.0045940716 0.32607115)
(0 0.013823785 0.4887969)
(0 0.019555204 0.56298349)
(0 0.02042542 0.57338953)
(0 0.018959756 0.56207582)
(0 0.017321714 0.55111019)
(0 0.015950828 0.54398768)
(0 0.014695984 0.53904576)
(0 0.013468712 0.53517969)
(0 0.012253539 0.53202372)
(0 0.011048826 0.52942821)
(0 0.0098544112 0.52729042)
(0 0.0086697058 0.52553251)
(0 0.0074942057 0.52409661)
(0 0.0063273679 0.52293973)
(0 0.0051684461 0.52202978)
(0 0.0040164933 0.52134308)
(0 0.0028703687 0.52086264)
(0 0.0017287843 0.52057708)
(0 0.00059034464 0.52047991)
(0 -0.00054636413 0.52056915)
(0 -0.0016827373 0.52084732)
(0 -0.0028200624 0.52132152)
(0 -0.0039594799 0.52200382)
(0 -0.0051018977 0.52291208)
(0 -0.0062479681 0.52407108)
(0 -0.0073980437 0.52551444)
(0 -0.0085522134 0.52728739)
(0 -0.0097104329 0.52945076)
(0 -0.010872161 0.53208543)
(0 -0.012037642 0.53530448)
(0 -0.013212666 0.53934893)
(0 -0.014443354 0.54495469)
(0 -0.015836102 0.55348534)
(0 -0.017172524 0.56313407)
(0 -0.016991621 0.55690156)
(0 -0.01282059 0.49514133)
(0 -0.0046737989 0.34237971)
(0 0.00029579297 0.11933312)
(0 -7.8584211e-05 0.10913694)
(0 0.0042312162 0.31959688)
(0 0.012852806 0.4819695)
(0 0.018612976 0.55989274)
(0 0.019773779 0.5736701)
(0 0.018487569 0.56355452)
(0 0.016904412 0.55257479)
(0 0.01556219 0.54527912)
(0 0.014344328 0.54026552)
(0 0.013158367 0.53637929)
(0 0.011983509 0.533213)
(0 0.010817083 0.53060834)
(0 0.0096586788 0.528462)
(0 0.0085075935 0.52669603)
(0 0.0073633646 0.52525253)
(0 0.0062255986 0.52408856)
(0 0.0050937988 0.52317219)
(0 0.0039673414 0.52247991)
(0 0.0028454602 0.52199488)
(0 0.0017272786 0.52170583)
(0 0.00061183472 0.52160631)
(0 -0.00050184427 0.52169437)
(0 -0.0016147111 0.52197246)
(0 -0.0027276272 0.52244754)
(0 -0.0038413322 0.52313153)
(0 -0.0049563757 0.52404205)
(0 -0.0060731107 0.52520367)
(0 -0.0071916755 0.52664975)
(0 -0.008312045 0.52842534)
(0 -0.009434204 0.53059117)
(0 -0.010557795 0.53322816)
(0 -0.011683659 0.53645356)
(0 -0.012820646 0.54053313)
(0 -0.014018183 0.5462451)
(0 -0.01536606 0.55480578)
(0 -0.016578055 0.56360731)
(0 -0.016161672 0.55459675)
(0 -0.011924498 0.48917249)
(0 -0.0042456358 0.3359515)
(0 0.00022012622 0.11732903)
(0 -3.1964143e-05 0.10730409)
(0 0.0039238264 0.31360208)
(0 0.011982404 0.47539733)
(0 0.017733908 0.55667658)
(0 0.019149385 0.57374005)
(0 0.01803973 0.56492329)
(0 0.016513419 0.55399906)
(0 0.015195947 0.54653955)
(0 0.014009498 0.54144881)
(0 0.012859923 0.53754056)
(0 0.011721371 0.53436493)
(0 0.01058997 0.53175285)
(0 0.0094649996 0.52959989)
(0 0.0083456091 0.52782789)
(0 0.0072313158 0.52637876)
(0 0.0061217981 0.52520951)
(0 0.0050167244 0.5242883)
(0 0.0039157047 0.52359172)
(0 0.0028182572 0.52310304)
(0 0.0017238253 0.52281105)
(0 0.00063178942 0.52270937)
(0 -0.00045847352 0.52279603)
(0 -0.0015475662 0.52307342)
(0 -0.0026360168 0.52354843)
(0 -0.0037242586 0.52423282)
(0 -0.0048125779 0.52514404)
(0 -0.0059011223 0.52630649)
(0 -0.0069899076 0.52775341)
(0 -0.008078879 0.52952978)
(0 -0.0091681164 0.53169634)
(0 -0.010257521 0.53433441)
(0 -0.011348634 0.5375667)
(0 -0.012453316 0.54168488)
(0 -0.013623115 0.54749882)
(0 -0.014927864 0.55604198)
(0 -0.016019081 0.56391004)
(0 -0.015394881 0.55216586)
(0 -0.011125273 0.48339933)
(0 -0.0038945455 0.32999356)
(0 0.00015714767 0.11547248)
(0 1.8018114e-06 0.10557755)
(0 0.0036581385 0.30803165)
(0 0.011199049 0.4690777)
(0 0.016911641 0.55336497)
(0 0.018549687 0.57361642)
(0 0.017612854 0.5661832)
(0 0.016145863 0.55538371)
(0 0.014850747 0.54777304)
(0 0.013691245 0.54260036)
(0 0.012573872 0.5386676)
(0 0.011468153 0.5354829)
(0 0.010368878 0.53286452)
(0 0.009274964 0.53070631)
(0 0.0081854057 0.52892974)
(0 0.0070996603 0.52747644)
(0 0.0060174234 0.5263033)
(0 0.0049384646 0.52537848)
(0 0.0038625568 0.52467861)
(0 0.0027894276 0.52418702)
(0 0.0017187636 0.52389257)
(0 0.00065020968 0.52378888)
(0 -0.00041658638 0.52387399)
(0 -0.0014819566 0.52415025)
(0 -0.0025461754 0.52462445)
(0 -0.003609448 0.52530827)
(0 -0.0046718749 0.52621904)
(0 -0.0057334725 0.52738105)
(0 -0.0067942013 0.52882748)
(0 -0.0078540352 0.53060339)
(0 -0.0089131865 0.53276961)
(0 -0.0099718617 0.53540829)
(0 -0.011032378 0.53864876)
(0 -0.012109433 0.54280904)
(0 -0.013255443 0.5487187)
(0 -0.01451772 0.55719651)
(0 -0.015491513 0.56405666)
(0 -0.014684179 0.54963642)
(0 -0.010409028 0.47782477)
(0 -0.0036019184 0.32445459)
(0 0.0001060271 0.11373764)
(0 2.5633836e-05 0.10394741)
(0 0.0034245564 0.3028384)
(0 0.010491445 0.46300517)
(0 0.01614078 0.54998324)
(0 0.017972676 0.57331516)
(0 0.017204074 0.56733541)
(0 0.015799054 0.5567286)
(0 0.014525086 0.54898251)
(0 0.013388986 0.54372406)
(0 0.012300274 0.5397639)
(0 0.011224393 0.5365699)
(0 0.010154684 0.53394587)
(0 0.0090896606 0.5317833)
(0 0.008028169 0.53000319)
(0 0.0069695827 0.52854679)
(0 0.0059135779 0.52737081)
(0 0.0048599771 0.52644331)
(0 0.0038086607 0.52574093)
(0 0.0027595055 0.52524703)
(0 0.0017123773 0.52495048)
(0 0.00066711966 0.52484493)
(0 -0.0003764148 0.52492839)
(0 -0.0014183547 0.5252032)
(0 -0.0024587867 0.52567608)
(0 -0.0034977527 0.52635864)
(0 -0.0045352289 0.52726814)
(0 -0.005571157 0.52842883)
(0 -0.0066054906 0.52987392)
(0 -0.0076382696 0.5316486)
(0 -0.0086698569 0.53381396)
(0 -0.0097007892 0.53645331)
(0 -0.010734214 0.53970377)
(0 -0.011787403 0.54390932)
(0 -0.01291236 0.54990645)
(0 -0.014132062 0.55827138)
(0 -0.014991681 0.56406015)
(0 -0.014023189 0.54703128)
(0 -0.0097640259 0.472448)
(0 -0.0033537062 0.3192896)
(0 6.5405273e-05 0.11210609)
(0 4.1981638e-05 0.10240598)
(0 0.0032163966 0.29798188)
(0 0.0098501215 0.45717255)
(0 0.015416777 0.5465529)
(0 0.017416786 0.5728512)
(0 0.016811017 0.56838129)
(0 0.015470561 0.55803304)
(0 0.01421742 0.55016999)
(0 0.013101946 0.54482307)
(0 0.012038899 0.54083247)
(0 0.010990276 0.53762851)