/*--------------------------------*- C++ -*----------------------------------*\
  =========                 |
  \\      /  F ield         | OpenFOAM: The Open Source CFD Toolbox
   \\    /   O peration     | Website:  https://openfoam.org
    \\  /    A nd           | Version:  10
     \\/     M anipulation  |
\*---------------------------------------------------------------------------*/
FoamFile
{
    format      ascii;
    class       volVectorField;
    location    "0.22";
    object      U_0;
}
// * * * * * * * * * * * * * * * * * * * * * * * * * * * * * * * * * * * * * //

dimensions      [0 1 -1 0 0 0 0];

internalField   nonuniform List<vector> 
4000
(
(0 0.018637442 0.47773158)
(0 0.023509968 0.50886061)
(0 0.008166822 0.50052521)
(0 0.0056145863 0.50033634)
(0 0.004254603 0.50025746)
(0 0.003254924 0.50016898)
(0 0.0025560774 0.50011969)
(0 0.0020545782 0.50009013)
(0 0.0016765869 0.5000698)
(0 0.0013822602 0.50005539)
(0 0.0011472256 0.50004499)
(0 0.00095514396 0.50003733)
(0 0.0007947611 0.5000316)
(0 0.00065810113 0.50002727)
(0 0.0005393356 0.50002398)
(0 0.00043408368 0.50002151)
(0 0.00033895781 0.50001966)
(0 0.00025125591 0.50001833)
(0 0.00016874514 0.50001744)
(0 8.9503385e-05 0.50001693)
(0 1.1797105e-05 0.50001678)
(0 -6.602595e-05 0.50001698)
(0 -0.00014562818 0.50001754)
(0 -0.0002287743 0.5000185)
(0 -0.00031744204 0.5000199)
(0 -0.00041395266 0.50002185)
(0 -0.00052114288 0.50002446)
(0 -0.00064260406 0.50002793)
(0 -0.00078303011 0.50003252)
(0 -0.00094874731 0.50003863)
(0 -0.0011485655 0.50004688)
(0 -0.001395143 0.50005824)
(0 -0.0017072268 0.50007414)
(0 -0.0021151657 0.50009709)
(0 -0.0026748743 0.50013482)
(0 -0.0034684645 0.50020238)
(0 -0.0045607159 0.50027144)
(0 -0.0065849203 0.50043365)
(0 -0.017659365 0.50675405)
(0 -0.013590083 0.47975567)
(0 0.037432638 0.44796933)
(0 0.050955639 0.53232615)
(0 0.021969211 0.50804289)
(0 0.01613555 0.50357318)
(0 0.012415996 0.50242315)
(0 0.0095158827 0.50162298)
(0 0.0075205711 0.5011566)
(0 0.0060698696 0.50086591)
(0 0.0049645804 0.50066799)
(0 0.0041001705 0.50052899)
(0 0.0034076893 0.50042902)
(0 0.0028401887 0.50035552)
(0 0.0023652949 0.50030062)
(0 0.0019599235 0.50025922)
(0 0.0016071139 0.50022787)
(0 0.0012940705 0.50020421)
(0 0.0010108682 0.50018661)
(0 0.00074956858 0.50017394)
(0 0.00050359714 0.50016543)
(0 0.00026728402 0.5001606)
(0 3.5508344e-05 0.50015917)
(0 -0.00019660963 0.50016107)
(0 -0.0004339796 0.50016642)
(0 -0.00068181221 0.50017553)
(0 -0.00094593819 0.50018894)
(0 -0.0012331872 0.5002075)
(0 -0.0015518836 0.50023244)
(0 -0.0019125343 0.50026556)
(0 -0.0023288205 0.50030948)
(0 -0.0028190824 0.5003681)
(0 -0.0034086958 0.50044735)
(0 -0.0041340368 0.50055671)
(0 -0.0050481851 0.50071127)
(0 -0.0062310066 0.50093662)
(0 -0.0078313851 0.5012944)
(0 -0.010125113 0.50191055)
(0 -0.013106312 0.50282515)
(0 -0.017425743 0.50608121)
(0 -0.038758563 0.52526811)
(0 -0.027894457 0.45021678)
(0 0.0398882 0.40982074)
(0 0.061427958 0.54930817)
(0 0.031983576 0.52188194)
(0 0.024355364 0.51008055)
(0 0.019193509 0.50658855)
(0 0.014977073 0.50452805)
(0 0.012006681 0.50327137)
(0 0.0097719258 0.50245835)
(0 0.0080365644 0.50190103)
(0 0.0066649509 0.50150865)
(0 0.005556864 0.50122543)
(0 0.0046427688 0.50101668)
(0 0.0038739269 0.50086052)
(0 0.0032149418 0.50074261)
(0 0.0026394786 0.50065322)
(0 0.0021274835 0.5005857)
(0 0.001663279 0.50053544)
(0 0.0012342445 0.50049923)
(0 0.00082987226 0.50047491)
(0 0.00044106259 0.50046109)
(0 5.9573503e-05 0.500457)
(0 -0.00032245715 0.50046244)
(0 -0.00071293879 0.50047773)
(0 -0.0011202515 0.50050375)
(0 -0.001553741 0.50054206)
(0 -0.0020243027 0.50059503)
(0 -0.0025451358 0.50066616)
(0 -0.003132774 0.50076053)
(0 -0.003808548 0.50088554)
(0 -0.0046006982 0.5010521)
(0 -0.0055475802 0.50127675)
(0 -0.0067031752 0.50158561)
(0 -0.008144685 0.50202081)
(0 -0.0099762 0.50265076)
(0 -0.012370535 0.50361513)
(0 -0.015715654 0.50519925)
(0 -0.019872187 0.50785402)
(0 -0.025185869 0.51641227)
(0 -0.047416536 0.5391274)
(0 -0.030853423 0.41488091)
(0 0.034791484 0.36173043)
(0 0.063838659 0.55456343)
(0 0.039380122 0.53747133)
(0 0.030083164 0.5184926)
(0 0.024112406 0.51197727)
(0 0.019279431 0.50849941)
(0 0.015736054 0.5062642)
(0 0.012954113 0.50475538)
(0 0.010743646 0.50370435)
(0 0.008967959 0.50295604)
(0 0.0075140218 0.50241098)
(0 0.0063021682 0.50200669)
(0 0.0052745923 0.50170289)
(0 0.0043880365 0.50147266)
(0 0.0036096831 0.50129764)
(0 0.0029141478 0.50116516)
(0 0.0022813235 0.50106636)
(0 0.0016948489 0.50099509)
(0 0.0011409824 0.50094718)
(0 0.00060774361 0.50091992)
(0 8.4230795e-05 0.50091185)
(0 -0.0004399777 0.50092255)
(0 -0.00097536398 0.50095266)
(0 -0.0015329991 0.50100389)
(0 -0.0021251632 0.50107922)
(0 -0.0027660631 0.50118324)
(0 -0.0034727385 0.50132266)
(0 -0.0042662679 0.50150715)
(0 -0.0051734321 0.50175073)
(0 -0.0062290111 0.50207387)
(0 -0.0074788741 0.50250703)
(0 -0.0089852539 0.50309722)
(0 -0.010835521 0.50391916)
(0 -0.013136239 0.50508921)
(0 -0.016023064 0.50680688)
(0 -0.019898569 0.50946754)
(0 -0.024730662 0.51427495)
(0 -0.031112507 0.52824699)
(0 -0.050318908 0.54407228)
(0 -0.028438053 0.37238223)
(0 0.027424142 0.31484387)
(0 0.062314524 0.55024088)
(0 0.044614134 0.55146759)
(0 0.033981699 0.52748809)
(0 0.027463756 0.51772238)
(0 0.022454897 0.51291974)
(0 0.018636574 0.50973132)
(0 0.015527978 0.50749249)
(0 0.013006127 0.50589977)
(0 0.010942193 0.50474672)
(0 0.0092247957 0.50389593)
(0 0.0077750794 0.50325895)
(0 0.0065330568 0.50277687)
(0 0.0054523014 0.50240947)
(0 0.0044967631 0.50212895)
(0 0.0036379749 0.50191587)
(0 0.0028529911 0.50175653)
(0 0.0021228708 0.50164136)
(0 0.0014315181 0.50156381)
(0 0.00076477143 0.50151963)
(0 0.00010966446 0.50150652)
(0 -0.00054623501 0.50152383)
(0 -0.0012154277 0.50157253)
(0 -0.0019110617 0.50165533)
(0 -0.0026476166 0.50177691)
(0 -0.0034416738 0.50194442)
(0 -0.0043128619 0.50216826)
(0 -0.0052850675 0.50246331)
(0 -0.0063880432 0.50285084)
(0 -0.0076595661 0.50336148)
(0 -0.0091479017 0.50403989)
(0 -0.010915488 0.50495258)
(0 -0.013049164 0.50620239)
(0 -0.015652728 0.50794419)
(0 -0.018814033 0.51040436)
(0 -0.022894589 0.51405492)
(0 -0.028175873 0.52114556)
(0 -0.035705868 0.5393265)
(0 -0.050475602 0.54155623)
(0 -0.024085904 0.33056084)
(0 0.019837775 0.27519869)
(0 0.057989566 0.53974704)
(0 0.047363307 0.5625647)
(0 0.036477178 0.53660446)
(0 0.029635733 0.52350702)
(0 0.02467579 0.51740315)
(0 0.020773981 0.51336283)
(0 0.017509609 0.51044432)
(0 0.014814174 0.50832396)
(0 0.012566743 0.50676155)
(0 0.01066579 0.5055925)
(0 0.0090393201 0.5047077)
(0 0.0076297145 0.50403221)
(0 0.0063911104 0.50351381)
(0 0.0052870466 0.5031158)
(0 0.0042880524 0.50281213)
(0 0.0033698973 0.50258426)
(0 0.0025122431 0.5024191)
(0 0.0016975637 0.50230766)
(0 0.00091027055 0.50224408)
(0 0.00013598463 0.50222515)
(0 -0.00063912913 0.50224997)
(0 -0.0014289775 0.5023199)
(0 -0.0022481168 0.50243866)
(0 -0.0031124444 0.50261271)
(0 -0.0040399493 0.50285183)
(0 -0.0050516086 0.50317015)
(0 -0.0061724899 0.50358768)
(0 -0.0074331448 0.5041326)
(0 -0.0088715036 0.50484485)
(0 -0.010534834 0.50578143)
(0 -0.012481432 0.50702463)
(0 -0.014791514 0.50869761)
(0 -0.017566866 0.510982)
(0 -0.020861471 0.51412019)
(0 -0.0249716 0.51873044)
(0 -0.030506613 0.52823007)
(0 -0.038627978 0.5487243)
(0 -0.048507362 0.53398654)
(0 -0.019066571 0.29394321)
(0 0.013083035 0.2425562)
(0 0.051798273 0.52520148)
(0 0.047708727 0.5702485)
(0 0.037756446 0.54552477)
(0 0.030849889 0.52928846)
(0 0.026073094 0.52180144)
(0 0.02223765 0.51699763)
(0 0.018953492 0.51347312)
(0 0.016193432 0.51086455)
(0 0.01384966 0.50891201)
(0 0.011835679 0.50743218)
(0 0.010088902 0.50630003)
(0 0.0085567057 0.50542782)
(0 0.0071963389 0.50475342)
(0 0.0059730002 0.50423243)
(0 0.00485787 0.50383295)
(0 0.0038267588 0.50353199)
(0 0.0028589934 0.50331318)
(0 0.0019364843 0.50316518)
(0 0.0010429465 0.50308058)
(0 0.00016323472 0.50305529)
(0 -0.00071728013 0.50308817)
(0 -0.0016132987 0.50318094)
(0 -0.002540128 0.50333832)
(0 -0.0035143352 0.50356846)
(0 -0.0045544271 0.50388364)
(0 -0.0056816442 0.50430145)
(0 -0.0069209029 0.50484653)
(0 -0.0083019106 0.50555313)
(0 -0.0098607406 0.50646905)
(0 -0.01164159 0.50766144)
(0 -0.013696709 0.50922514)
(0 -0.016095604 0.51129813)
(0 -0.018933577 0.51407978)
(0 -0.022242003 0.51783891)
(0 -0.026261681 0.52346822)
(0 -0.031845521 0.53537544)
(0 -0.039756529 0.55589735)
(0 -0.04489222 0.52282706)
(0 -0.014090225 0.26265166)
(0 0.0077699549 0.21554286)
(0 0.04482515 0.50801144)
(0 0.046254552 0.57438097)
(0 0.038034484 0.55375105)
(0 0.031287201 0.53496029)
(0 0.026767765 0.52603001)
(0 0.023116234 0.52053804)
(0 0.019920465 0.51648776)
(0 0.017181902 0.51344107)
(0 0.014813325 0.51112999)
(0 0.012746305 0.5093588)
(0 0.010928786 0.50799021)
(0 0.0093148664 0.50692663)
(0 0.0078665743 0.50609812)
(0 0.0065521648 0.5054541)
(0 0.0053446799 0.50495771)
(0 0.0042210074 0.50458217)
(0 0.003161015 0.50430824)
(0 0.0021467985 0.50412246)
(0 0.0011620319 0.50401604)
(0 0.00019139848 0.50398409)
(0 -0.0007799583 0.50402523)
(0 -0.0017669641 0.50414152)
(0 -0.0027850751 0.50433859)
(0 -0.0038508645 0.5046261)
(0 -0.0049825977 0.50501856)
(0 -0.0062008954 0.50553658)
(0 -0.007529498 0.50620875)
(0 -0.0089960912 0.50707441)
(0 -0.010633473 0.50818772)
(0 -0.012481227 0.50962392)
(0 -0.014584487 0.51148806)
(0 -0.016999456 0.51392902)
(0 -0.0198078 0.51715556)
(0 -0.023025491 0.52148071)
(0 -0.026875014 0.52818321)
(0 -0.032346971 0.54222064)
(0 -0.039399521 0.56050333)
(0 -0.040326023 0.5090897)
(0 -0.0097075527 0.23586579)
(0 0.0040047735 0.19355868)
(0 0.037898714 0.48948925)
(0 0.043685848 0.57524044)
(0 0.037562869 0.56084479)
(0 0.031153365 0.54036085)
(0 0.02691346 0.53001104)
(0 0.023513527 0.52390136)
(0 0.02047988 0.51941204)
(0 0.017826496 0.51598717)
(0 0.01548941 0.5133582)
(0 0.013418292 0.5113233)
(0 0.011571788 0.50973663)
(0 0.0099117359 0.50849353)
(0 0.0084058976 0.50751833)
(0 0.0070264421 0.50675567)
(0 0.005749096 0.50616483)
(0 0.004552575 0.50571594)
(0 0.0034179583 0.5053874)
(0 0.0023281294 0.50516399)
(0 0.0012672704 0.50503571)
(0 0.00022040508 0.504997)
(0 -0.00082705595 0.50504629)
(0 -0.0018897671 0.50518591)
(0 -0.0029828182 0.50542227)
(0 -0.0041222338 0.50576633)
(0 -0.0053254298 0.50623446)
(0 -0.0066117285 0.50684976)
(0 -0.0080029421 0.50764404)
(0 -0.0095239289 0.50866064)
(0 -0.01120329 0.50995864)
(0 -0.013074894 0.51161936)
(0 -0.015176262 0.51375547)
(0 -0.017550031 0.51652272)
(0 -0.020260359 0.52013217)
(0 -0.023315118 0.52496401)
(0 -0.026956218 0.5327407)
(0 -0.032197749 0.54839107)
(0 -0.037990028 0.56254583)
(0 -0.035412044 0.49380125)
(0 -0.0061998683 0.21326269)
(0 0.0015508955 0.1761364)
(0 0.03149865 0.47076473)
(0 0.0405308 0.57338645)
(0 0.03655747 0.56659809)
(0 0.03063607 0.54537803)
(0 0.02667056 0.5337041)
(0 0.023542143 0.52703166)
(0 0.02070964 0.52218767)
(0 0.01818239 0.51845037)
(0 0.015916918 0.51555006)
(0 0.013878796 0.5132846)
(0 0.012036586 0.51150335)
(0 0.010359987 0.51009728)
(0 0.0088227383 0.50898688)
(0 0.0074013063 0.50811343)
(0 0.0060745732 0.50743341)
(0 0.0048235614 0.50691463)
(0 0.0036310275 0.50653366)
(0 0.0024810903 0.5062739)
(0 0.0013588677 0.50612439)
(0 0.00025013495 0.50607902)
(0 -0.00085902591 0.50613605)
(0 -0.0019825926 0.50629806)
(0 -0.0031348745 0.50657208)
(0 -0.0043309163 0.5069701)
(0 -0.0055868319 0.50750996)
(0 -0.0069201712 0.50821669)
(0 -0.0083503263 0.50912452)
(0 -0.0098988702 0.51027974)
(0 -0.011589815 0.51174492)
(0 -0.013450886 0.5136054)
(0 -0.015512157 0.51597866)
(0 -0.017804253 0.51902325)
(0 -0.020374129 0.52295019)
(0 -0.023229026 0.52823632)
(0 -0.026649256 0.53704113)
(0 -0.031559124 0.55365949)
(0 -0.035899004 0.56231163)
(0 -0.030549831 0.47790301)
(0 -0.0035901654 0.19462262)
(0 7.649164e-05 0.16252857)
(0 0.025869234 0.45260455)
(0 0.037157641 0.56943453)
(0 0.035189227 0.57098844)
(0 0.029875485 0.54996232)
(0 0.026172088 0.53711322)
(0 0.023304448 0.52991156)
(0 0.020686246 0.5247832)
(0 0.018306965 0.52079698)
(0 0.016138219 0.51767269)
(0 0.01415871 0.51521175)
(0 0.012345579 0.513262)
(0 0.010675743 0.51171221)
(0 0.0091285854 0.51048069)
(0 0.0076848462 0.50950664)
(0 0.0063267146 0.5087447)
(0 0.0050377492 0.50816113)
(0 0.0038026582 0.50773117)
(0 0.0026070906 0.50743722)
(0 0.0014374033 0.50726762)
(0 0.00028042788 0.50721582)
(0 -0.00087677677 0.50727999)
(0 -0.0020472049 0.50746286)
(0 -0.0032440793 0.50777194)
(0 -0.0044811591 0.50822)
(0 -0.0057729583 0.50882594)
(0 -0.0071349771 0.50961616)
(0 -0.0085839476 0.51062654)
(0 -0.010138016 0.51190533)
(0 -0.011816674 0.51351725)
(0 -0.013641715 0.51554995)
(0 -0.015636362 0.51812319)
(0 -0.01782125 0.52139517)
(0 -0.02022877 0.52558033)
(0 -0.022872497 0.53128348)
(0 -0.026070229 0.54103195)
(0 -0.030561676 0.55793502)
(0 -0.033419735 0.56019597)
(0 -0.025991166 0.46208398)
(0 -0.0017641483 0.17948584)
(0 -0.00071823682 0.15191181)
(0 0.021106637 0.43544055)
(0 0.033816712 0.56393367)
(0 0.033601184 0.57408867)
(0 0.028972275 0.55409306)
(0 0.025517594 0.54026263)
(0 0.022884069 0.53255155)
(0 0.020476647 0.52719065)
(0 0.018253225 0.52301095)
(0 0.016194391 0.51970649)
(0 0.014289413 0.51708395)
(0 0.012522524 0.51499194)
(0 0.010876823 0.51331855)
(0 0.0093366725 0.51198115)
(0 0.0078867813 0.51091795)
(0 0.0065125449 0.51008258)
(0 0.0052000823 0.50944034)
(0 0.0039361602 0.50896566)
(0 0.0027081155 0.50864029)
(0 0.0015037297 0.50845208)
(0 0.00031109204 0.50839421)
(0 -0.00088155387 0.50846474)
(0 -0.0020860097 0.50866653)
(0 -0.0033142104 0.50900743)
(0 -0.0045784431 0.5095007)
(0 -0.0058914648 0.51016596)
(0 -0.0072666206 0.51103045)
(0 -0.0087179543 0.51213106)
(0 -0.010260286 0.51351709)
(0 -0.01190894 0.51525439)
(0 -0.01368037 0.5174316)
(0 -0.01559174 0.52016888)
(0 -0.01765552 0.52362214)
(0 -0.019893191 0.52801707)
(0 -0.022330912 0.53411161)
(0 -0.025310066 0.5446822)
(0 -0.029320556 0.56120833)
(0 -0.030783757 0.55659412)
(0 -0.021889611 0.44678245)
(0 -0.00056348361 0.16726519)
(0 -0.0010703807 0.14358881)
(0 0.017201717 0.41948692)
(0 0.030663613 0.55734319)
(0 0.031911251 0.57602)
(0 0.028000504 0.5577626)
(0 0.024780609 0.54317819)
(0 0.022347454 0.53497435)
(0 0.020136476 0.52941591)
(0 0.018066937 0.52508825)
(0 0.016122456 0.52164205)
(0 0.014300406 0.5188887)
(0 0.012590627 0.5166791)
(0 0.010981252 0.51490167)
(0 0.0094608358 0.51347372)
(0 0.0080175931 0.5123332)
(0 0.0066398598 0.51143338)
(0 0.0053161908 0.51073915)
(0 0.0040353891 0.51022451)
(0 0.0027865215 0.50987085)
(0 0.001558878 0.50966574)
(0 0.00034191315 0.5096022)
(0 -0.00087482604 0.50967822)
(0 -0.0021018295 0.50989674)
(0 -0.0033496377 0.5102658)
(0 -0.0046289832 0.51079896)
(0 -0.0059508253 0.51151619)
(0 -0.0073263822 0.51244521)
(0 -0.0087671338 0.5136233)
(0 -0.01028483 0.51510019)
(0 -0.01189112 0.51694202)
(0 -0.013597887 0.51923755)
(0 -0.015417139 0.52210597)
(0 -0.017354869 0.5257002)
(0 -0.019425688 0.53026738)
(0 -0.02167321 0.5367324)
(0 -0.024441981 0.54797176)
(0 -0.027937455 0.56352335)
(0 -0.028161633 0.55186786)
(0 -0.018319321 0.43226314)
(0 0.00017025339 0.15741467)
(0 -0.0011535005 0.13700817)
(0 0.014076981 0.40482404)
(0 0.027778389 0.55003745)
(0 0.030207467 0.5769299)
(0 0.027012573 0.56097741)
(0 0.02401411 0.54588386)
(0 0.021746469 0.53720692)
(0 0.019710915 0.5314721)
(0 0.01778643 0.52703212)
(0 0.015954511 0.52347677)
(0 0.014218156 0.52061959)
(0 0.012571379 0.51831464)
(0 0.011006233 0.51645132)
(0 0.009514659 0.51494741)
(0 0.0080878386 0.51374113)
(0 0.0067166921 0.51278585)
(0 0.0053919929 0.51204642)
(0 0.0041044649 0.51149673)
(0 0.0028448594 0.51111806)
(0 0.0016039762 0.51089787)
(0 0.00037266388 0.51082908)
(0 -0.00085818484 0.51090968)
(0 -0.0020977061 0.51114263)
(0 -0.0033550186 0.51153603)
(0 -0.0046393023 0.51210356)
(0 -0.0059597676 0.51286531)
(0 -0.0073256276 0.51384909)
(0 -0.0087460223 0.51509221)
(0 -0.010229982 0.51664429)
(0 -0.011786035 0.51857124)
(0 -0.013422326 0.52096127)
(0 -0.015146698 0.5239317)
(0 -0.016960322 0.52763304)
(0 -0.018874831 0.53234494)
(0 -0.020953936 0.53915998)
(0 -0.023523164 0.55089416)
(0 -0.026494834 0.56496267)
(0 -0.025664603 0.54633507)
(0 -0.01529193 0.41867409)
(0 0.00057518665 0.14947151)
(0 -0.0010859261 0.13173016)
(0 0.011621781 0.39144325)
(0 0.025188874 0.54231019)
(0 0.028548638 0.57697268)
(0 0.02604187 0.56375717)
(0 0.023253448 0.54840249)
(0 0.021119627 0.53927772)
(0 0.019235403 0.53337662)
(0 0.01744292 0.52885052)
(0 0.015717605 0.52521276)
(0 0.014065653 0.52227467)
(0 0.012483977 0.51989377)
(0 0.010967541 0.5179608)
(0 0.0095109013 0.51639431)
(0 0.0081076524 0.5151331)
(0 0.006750903 0.51413093)
(0 0.0054333759 0.51335289)
(0 0.0041475411 0.51277301)
(0 0.0028857267 0.5123726)
(0 0.0016401804 0.51213913)
(0 0.00040311297 0.51206555)
(0 -0.00083325758 0.5121498)
(0 -0.0020767332 0.51239486)
(0 -0.0033350465 0.51280881)
(0 -0.0046158904 0.51340528)
(0 -0.0059268398 0.51420431)
(0 -0.0072752861 0.51523351)
(0 -0.0086683119 0.51652996)
(0 -0.010112629 0.51814282)
(0 -0.011614221 0.52013741)
(0 -0.013178305 0.52260097)
(0 -0.014809554 0.52564846)
(0 -0.016505904 0.5294298)
(0 -0.018279322 0.53426791)
(0 -0.020213711 0.54141095)
(0 -0.022595157 0.55345706)
(0 -0.025053751 0.56563084)
(0 -0.023355344 0.54026166)
(0 -0.01277781 0.40607718)
(0 0.00076042182 0.14304147)
(0 -0.00094409769 0.12740917)
(0 0.0097173434 0.37927853)
(0 0.022891608 0.53438185)
(0 0.026969951 0.57629345)
(0 0.025107125 0.56612912)
(0 0.022519845 0.55075479)
(0 0.020493581 0.54121443)
(0 0.01873638 0.53514908)
(0 0.01706089 0.53055445)
(0 0.015433792 0.52685534)
(0 0.013862256 0.52385522)
(0 0.01234504 0.52141478)
(0 0.010879176 0.51942627)
(0 0.0094611389 0.51780908)
(0 0.0080864103 0.51650276)
(0 0.0067498893 0.51546162)
(0 0.0054459587 0.51465115)
(0 0.004168627 0.51404565)
(0 0.0029116511 0.51362662)
(0 0.0016686219 0.51338163)
(0 0.00043303368 0.51330366)
(0 -0.00080163636 0.51339069)
(0 -0.0020419226 0.51364563)
(0 -0.0032942535 0.51407649)
(0 -0.0045649457 0.51469677)
(0 -0.0058600944 0.51552627)
(0 -0.0071854886 0.5165923)
(0 -0.0085464616 0.51793144)
(0 -0.0099478216 0.51959224)
(0 -0.011393556 0.52163923)
(0 -0.012886701 0.52415846)
(0 -0.014429647 0.52726247)
(0 -0.016018566 0.53110337)
(0 -0.017668272 0.53605669)
(0 -0.019480699 0.54350286)
(0 -0.021685993 0.55567791)
(0 -0.023656208 0.56563796)
(0 -0.02126191 0.53385919)
(0 -0.010724447 0.39447198)
(0 0.00080627419 0.1377912)
(0 -0.00077550548 0.12378417)
(0 0.008251013 0.36823299)
(0 0.020866318 0.52641196)
(0 0.025489292 0.57502008)
(0 0.024217125 0.56812286)
(0 0.021824441 0.55295771)
(0 0.019885478 0.54304171)
(0 0.018232609 0.53680923)
(0 0.016658787 0.5321564)
(0 0.01512044 0.52841178)
(0 0.013623757 0.52536471)
(0 0.012168536 0.52287824)
(0 0.010753205 0.52084608)
(0 0.009375567 0.51918847)
(0 0.0080325229 0.51784568)
(0 0.0067203914 0.51677265)
(0 0.0054349287 0.51593535)
(0 0.0041714619 0.51530845)
(0 0.0029250076 0.51487369)
(0 0.0016903678 0.51461881)
(0 0.00046221139 0.51453686)
(0 -0.00076482395 0.51462583)
(0 -0.0019961044 0.51488859)
(0 -0.0032368676 0.515333)
(0 -0.0044921925 0.51597236)
(0 -0.005766874 0.51682617)
(0 -0.0070653318 0.5179213)
(0 -0.0083914578 0.51929377)
(0 -0.0097485521 0.52099142)
(0 -0.011139104 0.52307792)
(0 -0.012564594 0.52563807)
(0 -0.0140259 0.52878231)
(0 -0.015518721 0.53266844)
(0 -0.017062438 0.53773154)
(0 -0.018773122 0.54545216)
(0 -0.020813216 0.55757914)
(0 -0.02232876 0.56508899)
(0 -0.019389399 0.5272897)
(0 -0.0090690726 0.38381804)
(0 0.0007692495 0.13344833)
(0 -0.00060813596 0.1206649)
(0 0.007123599 0.35819779)
(0 0.01908498 0.5185127)
(0 0.024112525 0.5732616)
(0 0.023374322 0.56976776)
(0 0.021171685 0.55502416)
(0 0.019305395 0.54478)
(0 0.017736785 0.5383754)
(0 0.016250035 0.53366896)
(0 0.014790797 0.52989018)
(0 0.013362673 0.52680788)
(0 0.011965892 0.52428621)
(0 0.010599756 0.5222202)
(0 0.0092629297 0.52053082)
(0 0.0079533366 0.51915899)
(0 0.0066683867 0.51806026)
(0 0.0054049428 0.5172011)
(0 0.0041594349 0.51655656)
(0 0.0029279639 0.51610868)
(0 0.0017063966 0.51584538)
(0 0.0004904501 0.51575982)
(0 -0.00072419596 0.51584997)
(0 -0.001941859 0.51611867)
(0 -0.003166717 0.5165736)
(0 -0.0044027647 0.51722784)
(0 -0.0056536832 0.5181005)
(0 -0.0069227534 0.519218)
(0 -0.0082127141 0.52061577)
(0 -0.0095257131 0.52234094)
(0 -0.010863169 0.52445635)
(0 -0.012225521 0.52704563)
(0 -0.013612753 0.53021768)
(0 -0.015021208 0.53413989)
(0 -0.016475813 0.53931093)
(0 -0.018101748 0.54727321)
(0 -0.019986529 0.55918521)
(0 -0.02108586 0.56407875)
(0 -0.017728561 0.52067394)
(0 -0.0077469722 0.37405253)
(0 0.00068776011 0.12979759)
(0 -0.00045691037 0.11791615)
(0 0.0062525173 0.34906349)
(0 0.017517453 0.51076065)
(0 0.022837753 0.57110938)
(0 0.022577342 0.57109183)
(0 0.020561736 0.55696356)
(0 0.018758363 0.54644541)
(0 0.017257012 0.53986372)
(0 0.015844063 0.535104)
(0 0.014454691 0.5312987)
(0 0.013088679 0.52819003)
(0 0.011746231 0.52564164)
(0 0.010427135 0.52354968)
(0 0.0091305542 0.52183566)
(0 0.0078551193 0.52044104)
(0 0.0065990513 0.51932189)
(0 0.0053600822 0.51844516)
(0 0.0041355441 0.51778629)
(0 0.0029224506 0.51732758)
(0 0.0017175847 0.51705717)
(0 0.0005175777 0.51696831)
(0 -0.00068097678 0.517059)
(0 -0.0018814763 0.51733197)
(0 -0.0030871777 0.51779478)
(0 -0.004301148 0.51846021)
(0 -0.0055261367 0.51934703)
(0 -0.0067645019 0.52048119)
(0 -0.0080180877 0.52189753)
(0 -0.0092881958 0.52364255)
(0 -0.010575526 0.52577839)
(0 -0.011879883 0.5283876)
(0 -0.013200847 0.53157845)
(0 -0.014536309 0.53553174)
(0 -0.015917096 0.54081087)
(0 -0.017471884 0.54897809)
(0 -0.019209926 0.56052084)
(0 -0.019932948 0.56269005)
(0 -0.016262113 0.51409952)
(0 -0.0066969336 0.36510204)
(0 0.00058698525 0.12667245)
(0 -0.00032829453 0.11544368)
(0 0.0055720296 0.34072627)
(0 0.016134789 0.50320594)
(0 0.021658683 0.5686392)
(0 0.021822788 0.57212118)
(0 0.019992176 0.55878252)
(0 0.018245932 0.54805012)
(0 0.016798012 0.54128793)
(0 0.015447208 0.5364723)
(0 0.014119195 0.53264507)
(0 0.012809072 0.52951653)
(0 0.01151668 0.52694796)
(0 0.010242006 0.52483628)
(0 0.008984453 0.52310338)
(0 0.0077431081 0.52169111)
(0 0.006516774 0.52055597)
(0 0.0053038484 0.51966531)
(0 0.0041023855 0.51899492)
(0 0.0029101518 0.51852738)
(0 0.0017247024 0.51825099)
(0 0.00054344966 0.51815911)
(0 -0.00063622789 0.51824977)
(0 -0.0018169382 0.5185256)
(0 -0.0030011548 0.51899401)
(0 -0.0041911675 0.51966751)
(0 -0.0053889652 0.52056454)
(0 -0.0065961774 0.52171059)
(0 -0.0078139763 0.52314002)
(0 -0.0090430717 0.52489877)
(0 -0.010283724 0.5270484)
(0 -0.011535414 0.52967062)
(0 -0.012797692 0.5328741)
(0 -0.014070681 0.53685671)
(0 -0.015390952 0.5422447)
(0 -0.016884969 0.55057674)
(0 -0.018483485 0.56160981)
(0 -0.018869292 0.56099345)
(0 -0.014969208 0.50762801)
(0 -0.0058643559 0.35689001)
(0 0.00048267051 0.12394628)
(0 -0.00022362071 0.11318309)
(0 0.0050316515 0.3330912)
(0 0.014910882 0.49587955)
(0 0.020567053 0.56591358)
(0 0.021106497 0.57287973)
(0 0.019459248 0.5604855)
(0 0.017767401 0.54960292)
(0 0.016362095 0.54265938)
(0 0.015063476 0.53778331)
(0 0.013789211 0.53393641)
(0 0.012529209 0.53079259)
(0 0.011282683 0.52820872)
(0 0.010049613 0.52608214)
(0 0.0088294643 0.52433493)
(0 0.0076215946 0.52290918)
(0 0.0064252043 0.52176167)
(0 0.0052391878 0.52086012)
(0 0.0040621643 0.52018058)
(0 0.0028925093 0.51970588)
(0 0.0017284163 0.5194245)
(0 0.00056795123 0.51932986)
(0 -0.00059084593 0.51942001)
(0 -0.0017499191 0.51969751)
(0 -0.0029110898 0.52016961)
(0 -0.0040760103 0.52084859)
(0 -0.0052460627 0.52175256)
(0 -0.0064223167 0.52290665)
(0 -0.0076054596 0.52434479)
(0 -0.0087958128 0.52611249)
(0 -0.0099934081 0.52827087)
(0 -0.011197634 0.53090109)
(0 -0.012408287 0.53411339)
(0 -0.01362819 0.53812589)
(0 -0.014899105 0.54362315)
(0 -0.01633988 0.55207704)
(0 -0.017804844 0.5624742)
(0 -0.017890351 0.55904809)
(0 -0.013828329 0.50130105)
(0 -0.0052025694 0.34934145)
(0 0.00038402351 0.1215243)
(0 -0.00014136018 0.11109102)
(0 0.0045937252 0.32607375)
(0 0.01382304 0.48879885)
(0 0.019554173 0.5629841)
(0 0.020424317 0.57338931)
(0 0.018958711 0.56207539)
(0 0.01732075 0.55110975)
(0 0.015949937 0.54398721)
(0 0.01469517 0.53904522)
(0 0.013467983 0.53517906)
(0 0.012252905 0.53202302)
(0 0.011048296 0.52942745)
(0 0.0098539926 0.52728961)
(0 0.0086694057 0.52553164)
(0 0.0074940305 0.5240957)
(0 0.0063273229 0.52293877)
(0 0.0051685359 0.5220288)
(0 0.0040167213 0.52134208)
(0 0.0028707375 0.52086163)
(0 0.0017292955 0.52057607)
(0 0.00059099866 0.5204789)
(0 -0.00054556775 0.52056815)
(0 -0.0016818001 0.52084635)
(0 -0.002818987 0.52132058)
(0 -0.00395827 0.52200293)
(0 -0.0051005582 0.52291123)
(0 -0.0062465048 0.5240703)
(0 -0.0073964635 0.52551373)
(0 -0.0085505244 0.52728675)
(0 -0.0097086441 0.5294502)
(0 -0.010870282 0.53208497)
(0 -0.012035684 0.53530413)
(0 -0.013210641 0.53934867)
(0 -0.014441264 0.54495448)
(0 -0.015833934 0.55348508)
(0 -0.017170294 0.56313405)
(0 -0.016989518 0.55690296)
(0 -0.012819017 0.49514549)
(0 -0.0046730271 0.34238576)
(0 0.00029587519 0.11933675)
(0 -7.8603173e-05 0.10913844)
(0 0.0042308322 0.31959989)
(0 0.01285197 0.48197184)
(0 0.018611807 0.55989355)
(0 0.019772516 0.57366989)
(0 0.018486365 0.56355402)
(0 0.0169033 0.55257427)
(0 0.015561163 0.54527856)
(0 0.014343389 0.54026489)
(0 0.013157524 0.53637857)
(0 0.011982773 0.5332122)
(0 0.010816462 0.53060747)
(0 0.0096581832 0.52846106)
(0 0.0085072305 0.52669503)
(0 0.0073631411 0.52525148)
(0 0.0062255206 0.52408747)
(0 0.0050938714 0.52317107)
(0 0.0039675683 0.52247877)
(0 0.0028458445 0.52199372)
(0 0.001727822 0.52170466)
(0 0.00061253793 0.52160515)
(0 -0.00050098167 0.52169323)
(0 -0.0016136907 0.52197134)
(0 -0.0027264516 0.52244646)
(0 -0.0038400053 0.5231305)
(0 -0.0049549026 0.52404107)
(0 -0.0060714976 0.52520275)
(0 -0.0071899297 0.52664891)
(0 -0.0083101752 0.52842459)
(0 -0.0094322197 0.53059052)
(0 -0.010555707 0.53322761)
(0 -0.011681478 0.53645312)
(0 -0.012818385 0.5405328)
(0 -0.014015842 0.5462448)
(0 -0.015363626 0.55480544)
(0 -0.016575557 0.56360733)
(0 -0.016159335 0.55459848)
(0 -0.011922765 0.48917737)
(0 -0.0042447916 0.33595838)
(0 0.00022020979 0.11733306)
(0 -3.1982861e-05 0.10730579)
(0 0.003923402 0.31360555)
(0 0.011981469 0.47540011)
(0 0.017732588 0.55667761)
(0 0.019147943 0.57373985)
(0 0.018038346 0.5649227)
(0 0.01651214 0.55399844)
(0 0.015194766 0.5465389)
(0 0.014008417 0.54144808)
(0 0.012858951 0.53753973)
(0 0.011720518 0.53436401)
(0 0.010589248 0.53175185)
(0 0.0094644167 0.52959882)
(0 0.0083451743 0.52782675)
(0 0.0072310367 0.52637756)
(0 0.0061216812 0.52520826)
(0 0.0050167752 0.52428702)
(0 0.0039159277 0.52359041)
(0 0.0028186556 0.52310171)
(0 0.0017244012 0.52280972)
(0 0.00063254369 0.52270804)
(0 -0.00045754116 0.52279472)
(0 -0.0015464573 0.52307214)
(0 -0.0026347341 0.52354719)
(0 -0.0037228061 0.52423162)
(0 -0.0048109609 0.52514291)
(0 -0.0058993474 0.52630543)
(0 -0.0069879825 0.52775243)
(0 -0.0080768128 0.52952891)
(0 -0.0091659192 0.53169557)
(0 -0.010255205 0.53433376)
(0 -0.011346211 0.53756617)
(0 -0.012450797 0.54168446)
(0 -0.013620499 0.54749843)
(0 -0.014925138 0.55604156)
(0 -0.01601629 0.56391011)
(0 -0.01539229 0.55216799)
(0 -0.011123368 0.48340502)
(0 -0.003893624 0.33000134)
(0 0.0001572326 0.11547695)
(0 1.7834593e-06 0.10557946)
(0 0.003657671 0.30803563)
(0 0.011198006 0.46908098)
(0 0.016910155 0.55336627)
(0 0.018548046 0.57361625)
(0 0.01761127 0.56618253)
(0 0.016144397 0.55538299)
(0 0.014849395 0.54777228)
(0 0.013690006 0.54259952)
(0 0.012572755 0.53866665)
(0 0.01146717 0.53548185)
(0 0.010368041 0.53286338)
(0 0.0092742825 0.53070508)
(0 0.0081848893 0.52892844)
(0 0.0070993173 0.52747507)
(0 0.0060172611 0.52630188)
(0 0.0049384888 0.52537702)
(0 0.0038627725 0.52467712)
(0 0.0027898385 0.52418551)
(0 0.0017193721 0.52389105)
(0 0.00065101684 0.52378736)
(0 -0.00041558066 0.52387249)
(0 -0.0014807538 0.52414878)
(0 -0.0025447783 0.52462302)
(0 -0.0036078608 0.5253069)
(0 -0.004670103 0.52621774)
(0 -0.0057315229 0.52737982)
(0 -0.0067920822 0.52882635)
(0 -0.0078517559 0.53060237)
(0 -0.0089107581 0.53276871)
(0 -0.0099692962 0.53540752)
(0 -0.011029689 0.53864812)
(0 -0.012106631 0.54280852)
(0 -0.013252525 0.5487182)
(0 -0.014514673 0.557196)
(0 -0.015488402 0.5640568)
(0 -0.014681312 0.54963902)
(0 -0.010406938 0.47783136)
(0 -0.0036009144 0.32446338)
(0 0.00010611339 0.11374259)
(0 2.5616011e-05 0.10394956)
(0 0.0034240428 0.30284295)
(0 0.010490284 0.46300903)
(0 0.016139111 0.54998487)
(0 0.017970816 0.57331504)
(0 0.017202267 0.56733465)
(0 0.015797379 0.55672776)
(0 0.014523542 0.54898164)
(0 0.01338757 0.54372309)
(0 0.012298995 0.53976282)
(0 0.011223265 0.5365687)
(0 0.010153718 0.53394456)
(0 0.0090888684 0.53178191)
(0 0.0080275605 0.53000171)
(0 0.006969167 0.52854524)
(0 0.0059133627 0.5273692)
(0 0.0048599692 0.52644165)
(0 0.0038088655 0.52573924)
(0 0.002759927 0.52524531)
(0 0.0017130182 0.52494875)
(0 0.00066798148 0.5248432)
(0 -0.00037533207 0.52492669)
(0 -0.0014170524 0.52520152)
(0 -0.0024572677 0.52567445)
(0 -0.0034960213 0.52635707)
(0 -0.0045332906 0.52726665)
(0 -0.0055690191 0.52842742)
(0 -0.0066031617 0.52987262)
(0 -0.0076357597 0.53164741)
(0 -0.0086671774 0.5338129)
(0 -0.0096979529 0.53645239)
(0 -0.010731234 0.539703)
(0 -0.011784291 0.54390867)
(0 -0.012909111 0.54990582)
(0 -0.014128664 0.55827077)
(0 -0.014988221 0.56406037)
(0 -0.014020023 0.5470344)
(0 -0.0097617339 0.4724556)
(0 -0.0033526145 0.31929949)
(0 6.54929e-05 0.11211155)
(0 4.1964507e-05 0.10240838)
(0 0.0032158337 0.29798707)
(0 0.0098488324 0.45717704)
(0 0.015414909 0.5465549)
(0 0.017414685 0.57285115)
(0 0.016808962 0.56838043)
(0 0.015468653 0.55803206)
(0 0.014215662 0.55016898)
(0 0.013100333 0.54482196)
(0 0.01203744 0.54083123)
(0 0.010988986 0.53762714)
(0 0.0099467696 0.53499763)
(0 0.008908875 0.53283118)