/*--------------------------------*- C++ -*----------------------------------*\
  =========                 |
  \\      /  F ield         | OpenFOAM: The Open Source CFD Toolbox
   \\    /   O peration     | Website:  https://openfoam.org
    \\  /    A nd           | Version:  10
     \\/     M anipulation  |
\*---------------------------------------------------------------------------*/
FoamFile
{
    format      ascii;
    class       surfaceScalarField;
    location    "0.1";
    object      phi;
}
// * * * * * * * * * * * * * * * * * * * * * * * * * * * * * * * * * * * * * //

dimensions      [1 0 -1 0 0 0 0];

internalField   nonuniform List<scalar> 
7860
(
3.9888e-08
5.2882004e-07
1.21866e-08
5.9640917e-07
7.4215852e-09
5.7347275e-07
5.4922068e-09
5.7063707e-07
4.1075122e-09
5.7009236e-07
3.1936464e-09
5.6962151e-07
2.5517845e-09
5.6934949e-07
2.0722307e-09
5.6918716e-07
1.7026416e-09
5.6907719e-07
1.4104774e-09
5.6899975e-07
1.1739306e-09
5.6894413e-07
9.7822723e-10
5.6890328e-07
8.1301364e-10
5.6887278e-07
6.7078985e-10
5.6884979e-07
5.4597336e-10
5.6883238e-07
4.342946e-10
5.6881924e-07
3.3239107e-10
5.6880946e-07
2.3752687e-10
5.6880242e-07
1.4739035e-10
5.6879769e-07
5.9941473e-11
5.68795e-07
-2.6711258e-11
5.687942e-07
-1.1441837e-10
5.6879526e-07
-2.0509636e-10
5.6879823e-07
-3.0083258e-10
5.6880329e-07
-4.0401829e-10
5.6881074e-07
-5.1751175e-10
5.6882105e-07
-6.4485912e-10
5.6883491e-07
-7.9060765e-10
5.6885331e-07
-9.6076645e-10
5.6887773e-07
-1.1635136e-09
5.6891032e-07
-1.4103698e-09
5.6895443e-07
-1.7181693e-09
5.6901539e-07
-2.111921e-09
5.6910135e-07
-2.6315401e-09
5.6922723e-07
-3.3594621e-09
5.6943554e-07
-4.4514073e-09
5.6979959e-07
-5.9983303e-09
5.7025459e-07
-9.4983244e-09
5.7220769e-07
-2.956392e-08
5.8877334e-07
5.3914399e-07
5.9653656e-08
4.6916651e-07
3.6643691e-08
6.1941909e-07
2.260669e-08
5.8750973e-07
1.6230818e-08
5.7701295e-07
1.2267069e-08
5.7405611e-07
9.5827714e-09
5.7230581e-07
7.6544345e-09
5.7127782e-07
6.2139739e-09
5.7062762e-07
5.1057361e-09
5.7018542e-07
4.2296046e-09
5.6987588e-07
3.5202085e-09
5.6965352e-07
2.9333453e-09
5.6949014e-07
2.4379382e-09
5.6936819e-07
2.0114821e-09
5.6927624e-07
1.6372335e-09
5.6920662e-07
1.3023875e-09
5.6915408e-07
9.9685934e-10
5.6911499e-07
7.1244396e-10
5.6908683e-07
4.4220886e-10
5.6906792e-07
1.8003552e-10
5.6905717e-07
-7.9749831e-11
5.6905399e-07
-3.4269859e-10
5.6905821e-07
-6.1455205e-10
5.6907008e-07
-9.0157343e-10
5.6909031e-07
-1.2109345e-09
5.691201e-07
-1.5512076e-09
5.6916132e-07
-1.9330279e-09
5.6921673e-07
-2.3700333e-09
5.6929032e-07
-2.880253e-09
5.6938795e-07
-3.4882315e-09
5.695183e-07
-4.2284473e-09
5.6969465e-07
-5.1513343e-09
5.6993827e-07
-6.333604e-09
5.7028362e-07
-7.8940904e-09
5.7078771e-07
-1.0036136e-08
5.7157759e-07
-1.316611e-08
5.7292956e-07
-1.8099016e-08
5.751875e-07
-2.8142129e-08
5.8225081e-07
-4.5773024e-08
6.0640423e-07
4.9337097e-07
5.9980142e-08
4.0918668e-07
5.0446018e-08
6.289532e-07
3.3331259e-08
6.0462442e-07
2.4777471e-08
5.8556673e-07
1.9282042e-08
5.7955154e-07
1.5290317e-08
5.7629753e-07
1.232041e-08
5.7424773e-07
1.0062854e-08
5.7288518e-07
8.3041872e-09
5.7194409e-07
6.9012198e-09
5.7127885e-07
5.7578125e-09
5.7079693e-07
4.8071432e-09
5.7044081e-07
4.0013937e-09
5.7017394e-07
3.3055279e-09
5.6997211e-07
2.6932331e-09
5.6981892e-07
2.1442298e-09
5.6970308e-07
1.6424464e-09
5.6961677e-07
1.1747379e-09
5.6955454e-07
7.299519e-10
5.6951271e-07
2.9821464e-10
5.6948891e-07
-1.296469e-10
5.6948185e-07
-5.626112e-10
5.6949117e-07
-1.0099563e-09
5.6951743e-07
-1.4817808e-09
5.6956213e-07
-1.9896068e-09
5.6962793e-07
-2.5471411e-09
5.6971886e-07
-3.1712866e-09
5.6984087e-07
-3.8835558e-09
5.7000259e-07
-4.7121209e-09
5.7021651e-07
-5.6948801e-09
5.7050106e-07
-6.8841188e-09
5.7088389e-07
-8.35415e-09
5.714083e-07
-1.0214509e-08
5.7214398e-07
-1.2627249e-08
5.7320045e-07
-1.5825755e-08
5.747761e-07
-2.0172269e-08
5.7727607e-07
-2.6643986e-08
5.8165921e-07
-3.888355e-08
5.9449037e-07
-4.8119141e-08
6.1563983e-07
4.4525183e-07
5.4841984e-08
3.5434527e-07
5.7389352e-08
6.2640597e-07
4.0406144e-08
6.216075e-07
3.0718349e-08
5.952545e-07
2.4581677e-08
5.8568821e-07
1.9891098e-08
5.8098811e-07
1.6253165e-08
5.7788566e-07
1.3409213e-08
5.7572913e-07
1.114701e-08
5.7420629e-07
9.3147626e-09
5.731111e-07
7.8045018e-09
5.7230719e-07
6.5376587e-09
5.7170765e-07
5.4563116e-09
5.7125529e-07
4.5170758e-09
5.7091135e-07
3.6867873e-09
5.7064921e-07
2.9395219e-09
5.7045035e-07
2.2544967e-09
5.7030179e-07
1.6145521e-09
5.7019449e-07
1.005019e-09
5.7012224e-07
4.1283884e-10
5.7008109e-07
-1.7416112e-10
5.7006885e-07
-7.6790816e-10
5.7008492e-07
-1.3807062e-09
5.7013023e-07
-2.0258912e-09
5.7020732e-07
-2.7185833e-09
5.7032062e-07
-3.4766151e-09
5.7047689e-07
-4.3217405e-09
5.70686e-07
-5.2812693e-09
5.7096211e-07
-6.3903491e-09
5.7132559e-07
-7.6952286e-09
5.7180594e-07
-9.2578273e-09
5.7244649e-07
-1.1162125e-08
5.733126e-07
-1.3524566e-08
5.7450642e-07
-1.6506732e-08
5.7618262e-07
-2.0306764e-08
5.7857613e-07
-2.5191548e-08
5.8216086e-07
-3.2417815e-08
5.8888548e-07
-4.5001139e-08
6.0707369e-07
-4.6482851e-08
6.1712154e-07
3.9876898e-07
4.792187e-08
3.0642431e-07
5.9990695e-08
6.1433759e-07
4.5312038e-08
6.3628599e-07
3.4791039e-08
6.0577541e-07
2.831536e-08
5.9216389e-07
2.3335617e-08
5.8596786e-07
1.9352419e-08
5.8186886e-07
1.6150755e-08
5.789308e-07
1.354595e-08
5.768111e-07
1.1398486e-08
5.7525856e-07
9.6031312e-09
5.7410255e-07
8.0797405e-09
5.7323104e-07
6.7671931e-09
5.7256783e-07
5.6183828e-09
5.7206016e-07
4.5964438e-09
5.7167115e-07
3.6720024e-09
5.7137479e-07
2.8211347e-09
5.7115266e-07
2.0238281e-09
5.7099179e-07
1.2627948e-09
5.7088328e-07
5.2252693e-10
5.7082136e-07
-2.1149883e-10
5.7080288e-07
-9.5353117e-10
5.7082695e-07
-1.7182362e-09
5.7089493e-07
-2.5214212e-09
5.710105e-07
-3.3808522e-09
5.7118005e-07
-4.317239e-09
5.7141328e-07
-5.3554769e-09
5.7172424e-07
-6.5262581e-09
5.721329e-07
-7.8682001e-09
5.7266753e-07
-9.4307223e-09
5.7336846e-07
-1.1277825e-08
5.7429359e-07
-1.3492519e-08
5.755273e-07
-1.6183324e-08
5.7719722e-07
-1.9494136e-08
5.7949343e-07
-2.3595708e-08
5.826777e-07
-2.8790441e-08
5.8735559e-07
-3.6649452e-08
5.9674449e-07
-4.832419e-08
6.1874843e-07
-4.3109889e-08
6.1190724e-07
3.5565909e-07
4.0286234e-08
2.6613938e-07
5.8884641e-08
5.9574012e-07
4.8210705e-08
6.4695979e-07
3.7475366e-08
6.1651059e-07
3.0817763e-08
5.9882148e-07
2.5783986e-08
5.9100164e-07
2.1673007e-08
5.8597984e-07
1.8289776e-08
5.8231403e-07
1.5481409e-08
5.7961947e-07
1.3125721e-08
5.7761425e-07
1.1126644e-08
5.7610162e-07
9.4087587e-09
5.7494893e-07
7.9128021e-09
5.7406379e-07
6.5917535e-09
5.733812e-07
5.4078741e-09
5.7285503e-07
4.3304384e-09
5.7245223e-07
3.3339537e-09
5.7214915e-07
2.3967597e-09
5.7192899e-07
1.4999097e-09
5.7178013e-07
6.2624842e-10
5.7169502e-07
-2.4037949e-10
5.716695e-07
-1.1158483e-09
5.7170242e-07
-2.0164552e-09
5.7179554e-07
-2.9596503e-09
5.719537e-07
-3.9648445e-09
5.7218524e-07
-5.0543575e-09
5.7250279e-07
-6.2545709e-09
5.7292445e-07
-7.5973656e-09
5.7347569e-07
-9.121921e-09
5.7419209e-07
-1.0877025e-08
5.7512356e-07
-1.2924111e-08
5.7634068e-07
-1.5340679e-08
5.7794386e-07
-1.8224388e-08
5.8008093e-07
-2.1699777e-08
5.8296882e-07
-2.5923135e-08
5.8690106e-07
-3.1302034e-08
5.9273449e-07
-3.946284e-08
6.049053e-07
-4.8989414e-08
6.28275e-07
-3.8476893e-08
6.0139472e-07
3.171822e-07
3.2807527e-08
2.3333358e-07
5.5116425e-08
5.7343284e-07
4.9077169e-08
6.5299906e-07
3.8915128e-08
6.2667236e-07
3.2288657e-08
6.054479e-07
2.7378934e-08
5.9591137e-07
2.3302991e-08
5.9005579e-07
1.98734e-08
5.8574362e-07
1.69733e-08
5.8251957e-07
1.4500296e-08
5.8008725e-07
1.2370445e-08
5.7823148e-07
1.0516347e-08
5.7680303e-07
8.8836162e-09
5.7569652e-07
7.4279209e-09
5.748369e-07
6.1127975e-09
5.7417015e-07
4.9078917e-09
5.7365713e-07
3.7875145e-09
5.7326952e-07
2.7294646e-09
5.7298704e-07
1.7140508e-09
5.7279554e-07
7.2325921e-10
5.7268581e-07
-2.5998015e-10
5.7265274e-07
-1.2524696e-09
5.7269491e-07
-2.2714114e-09
5.7281448e-07
-3.3350934e-09
5.7301738e-07
-4.4636321e-09
5.7331378e-07
-5.6798232e-09
5.7371898e-07
-7.0101396e-09
5.7425477e-07
-8.4859356e-09
5.7495149e-07
-1.0144899e-08
5.7585105e-07
-1.2032828e-08
5.7701149e-07
-1.4206024e-08
5.7851387e-07
-1.6734185e-08
5.8047202e-07
-1.9702459e-08
5.8304921e-07
-2.3212084e-08
5.8647845e-07
-2.7404766e-08
5.9109374e-07
-3.2794936e-08
5.9812466e-07
-4.0761471e-08
6.1287183e-07
-4.7458686e-08
6.3497222e-07
-3.3258121e-08
5.8719415e-07
2.8392408e-07
2.6128706e-08
2.0720706e-07
4.9974244e-08
5.4958976e-07
4.8298463e-08
6.5467516e-07
3.9305073e-08
6.3566538e-07
3.2899584e-08
6.1185328e-07
2.8238035e-08
6.0057292e-07
2.4324404e-08
5.9396942e-07
2.0957695e-08
5.8911033e-07
1.8056658e-08
5.854206e-07
1.5541837e-08
5.8260208e-07
1.3343913e-08
5.804294e-07
1.1405533e-08
5.7874141e-07
9.6790127e-09
5.7742304e-07
8.1243978e-09
5.7639152e-07
6.7080015e-09
5.7558655e-07
5.4011299e-09
5.7496401e-07
4.1789929e-09
5.7449166e-07
3.0197795e-09
5.7414625e-07
1.903859e-09
5.7391146e-07
8.1307534e-10
5.737766e-07
-2.6989085e-10
5.7373571e-07
-1.3621205e-09
5.7378714e-07
-2.4810511e-09
5.7393341e-07
-3.645082e-09
5.7418141e-07
-4.8742202e-09
5.7454292e-07
-6.1907969e-09
5.7503556e-07
-7.6202833e-09
5.7568425e-07
-9.1922402e-09
5.7652344e-07
-1.0941428e-08
5.7760024e-07
-1.2909078e-08
5.7897914e-07
-1.514454e-08
5.8074934e-07
-1.7707407e-08
5.8303489e-07
-2.0667502e-08
5.860093e-07
-2.4100574e-08
5.8991152e-07
-2.8141859e-08
5.9513503e-07
-3.3390295e-08
6.033731e-07
-4.0748539e-08
6.2023008e-07
-4.4519595e-08
6.3874328e-07
-2.8070793e-08
5.7074535e-07
2.5585328e-07
2.0505412e-08
1.8670433e-07
4.4398788e-08
5.256999e-07
4.6403408e-08
6.5267135e-07
3.8921096e-08
6.4314724e-07
3.286426e-08
6.1790991e-07
2.8504446e-08
6.0493273e-07
2.4832207e-08
5.9764167e-07
2.1607894e-08
5.9233464e-07
1.8775847e-08
5.8825265e-07
1.6279707e-08
5.8509822e-07
1.4065762e-08
5.8264335e-07
1.208763e-08
5.8071954e-07
1.0305333e-08
5.7920534e-07
8.6843297e-09
5.7801252e-07
7.1946857e-09
5.7707619e-07
5.8102655e-09
5.7634843e-07
4.5079898e-09
5.7579394e-07
3.2671678e-09
5.7538707e-07
2.0688894e-09
5.7510974e-07
8.9546488e-10
5.7495002e-07
-2.7009711e-10
5.7490127e-07
-1.4445884e-09
5.7496163e-07
-2.6451014e-09
5.7513392e-07
-3.8895334e-09
5.7542585e-07
-5.1971144e-09
5.758505e-07
-6.5889759e-09
5.7642742e-07
-8.0887715e-09
5.7718405e-07
-9.7233649e-09
5.7815804e-07
-1.1523599e-08
5.7940047e-07
-1.3525093e-08
5.8098064e-07
-1.5769151e-08
5.8299339e-07
-1.8303969e-08
5.8556971e-07
-2.1183105e-08
5.8888844e-07
-2.4461188e-08
5.931896e-07
-2.8283126e-08
5.9895696e-07
-3.3287872e-08
6.0837784e-07
-3.9757431e-08
6.2669964e-07
-4.0830257e-08
6.398161e-07
-2.3268081e-08
5.5318317e-07
2.325852e-07
1.5944394e-08
1.7076316e-07
3.8932028e-08
5.0271703e-07
4.3830025e-08
6.4777489e-07
3.8004351e-08
6.4897243e-07
3.2385938e-08
6.2352799e-07
2.8333483e-08
6.0898516e-07
2.4934964e-08
6.010402e-07
2.1899823e-08
5.9536979e-07
1.9183995e-08
5.9096848e-07
1.6751028e-08
5.8753118e-07
1.4561691e-08
5.8483268e-07
1.258016e-08
5.8270107e-07
1.0774297e-08
5.810112e-07
9.1153709e-09
5.7967145e-07
7.5777065e-09
5.7861386e-07
6.1382671e-09
5.7778787e-07
4.7762267e-09
5.7715598e-07
3.4725398e-09
5.7669076e-07
2.2095191e-09
5.7637276e-07
9.704234e-10
5.7618912e-07
-2.6094193e-10
5.7613264e-07
-1.5006147e-09
5.762013e-07
-2.7648712e-09
5.7639818e-07
-4.0706203e-09
5.7673159e-07
-5.435807e-09
5.7721569e-07
-6.8798303e-09
5.7787144e-07
-8.4239745e-09
5.7872819e-07
-1.0091851e-08
5.7982591e-07
-1.1909857e-08
5.8121848e-07
-1.3907599e-08
5.8297838e-07
-1.6118252e-08
5.8520405e-07
-1.857896e-08
5.8803042e-07
-2.1328413e-08
5.9163789e-07
-2.4407641e-08
5.9626883e-07
-2.7982789e-08
6.0253211e-07
-3.2671337e-08
6.1306639e-07
-3.808298e-08
6.3211128e-07
-3.68329e-08
6.3856602e-07
-1.9018913e-08
5.3536919e-07
2.1356629e-07
1.234645e-08
1.5842057e-07
3.3872539e-08
4.8119716e-07
4.0907122e-08
6.4074282e-07
3.6732402e-08
6.5314673e-07
3.161785e-08
6.2864205e-07
2.7859066e-08
6.1274387e-07
2.473565e-08
6.0416364e-07
2.1910145e-08
5.981953e-07
1.9337677e-08
5.9354095e-07
1.6997185e-08
5.8987168e-07
1.4861731e-08
5.8696814e-07
1.2904742e-08
5.8465806e-07
1.1101332e-08
5.8281461e-07
9.42841e-09
5.8134437e-07
7.8646349e-09
5.8017763e-07
6.3902866e-09
5.7926221e-07
4.9870844e-09
5.7855918e-07
3.6379575e-09
5.7803989e-07
2.3267859e-09
5.7768393e-07
1.0381276e-09
5.7747777e-07
-2.4306271e-10
5.7741383e-07
-1.5317158e-09
5.7748996e-07
-2.8429379e-09
5.777094e-07
-4.1922961e-09
5.7808095e-07
-5.5961008e-09
5.7861949e-07
-7.0716842e-09
5.7934703e-07
-8.6376639e-09
5.8029417e-07
-1.0314179e-08
5.8150243e-07
-1.2123104e-08
5.8302741e-07
-1.4088212e-08
5.8494349e-07
-1.6235203e-08
5.8735104e-07
-1.8591414e-08
5.9038663e-07
-2.1182995e-08
5.9422947e-07
-2.4044472e-08
5.9913031e-07
-2.736589e-08
6.0585353e-07
-3.1682669e-08
6.1738317e-07
-3.5966956e-08
6.3639557e-07
-3.2828229e-08
6.3542729e-07
-1.538441e-08
5.1792537e-07
1.9818188e-07
9.5728211e-09
1.488524e-07
2.9372141e-08
4.6140578e-07
3.7880824e-08
6.3223792e-07
3.524276e-08
6.5578456e-07
3.0670242e-08
6.3321391e-07
2.7184689e-08
6.1622927e-07
2.4320124e-08
6.0702822e-07
2.1707019e-08
6.0080841e-07
1.9290215e-08
5.9595775e-07
1.7059209e-08
5.9210268e-07
1.4997018e-08
5.8903033e-07
1.3084768e-08
5.8657031e-07
1.1303848e-08
5.8459553e-07
9.6362698e-09
5.8301195e-07
8.064786e-09
5.8174912e-07
6.5729491e-09
5.8075405e-07
5.1451029e-09
5.7998703e-07
3.7663056e-09
5.7941868e-07
2.4222045e-09
5.7902803e-07
1.0988822e-09
5.788011e-07
-2.173193e-10
5.7873003e-07
-1.5399812e-09
5.7881262e-07
-2.8828007e-09
5.7905222e-07
-4.2597765e-09
5.7945793e-07
-5.6853832e-09
5.800451e-07
-7.17473e-09
5.8083637e-07
-8.7436882e-09
5.8186313e-07
-1.0408973e-08
5.8316771e-07
-1.2188175e-08
5.8480661e-07
-1.409976e-08
5.8685507e-07
-1.6162889e-08
5.8941417e-07
-1.8396555e-08
5.926203e-07
-2.0817017e-08
5.9664993e-07
-2.3458288e-08
6.0177158e-07
-2.6530237e-08
6.0892548e-07
-3.043925e-08
6.2129218e-07
-3.3612889e-08
6.3956921e-07
-2.9020671e-08
6.3083508e-07
-1.2359449e-08
5.0126414e-07
1.8582243e-07
7.4746184e-09
1.4138341e-07
2.5478101e-08
4.4341224e-07
3.4921452e-08
6.2279992e-07
3.3644575e-08
6.5706155e-07
2.9625139e-08
6.3723249e-07
2.6389406e-08
6.1946476e-07
2.3757302e-08
6.0966033e-07
2.1347574e-08
6.0321815e-07
1.9088318e-08
5.9821701e-07
1.6974655e-08
5.9421634e-07
1.4997259e-08
5.9100772e-07
1.314342e-08
5.8842415e-07
1.1399719e-08
5.8633923e-07
9.7525565e-09
5.8465911e-07
8.1883529e-09
5.8331332e-07
6.6937124e-09
5.8224869e-07
5.2555237e-09
5.8142522e-07
3.8609881e-09
5.8081322e-07
2.4975969e-09
5.8039142e-07
1.1530709e-09
5.8014562e-07
-1.8472564e-10
5.8006783e-07
-1.5278831e-09
5.8015578e-07
-2.8885552e-09
5.8041289e-07
-4.279058e-09
5.8084843e-07
-5.7119551e-09
5.81478e-07
-7.2001191e-09
5.8232454e-07
-8.7567561e-09
5.8341977e-07
-1.0395378e-08
5.8480634e-07
-1.2129717e-08
5.8654095e-07
-1.3973609e-08
5.8869896e-07
-1.5940698e-08
5.9138126e-07
-1.8043172e-08
5.9472277e-07
-2.0290341e-08
5.988971e-07
-2.2720567e-08
6.042018e-07
-2.5555115e-08
6.1176003e-07
-2.9041295e-08
6.2477836e-07
-3.1181677e-08
6.4170959e-07
-2.5531839e-08
6.2518524e-07
-9.8969829e-09
4.8562929e-07
1.7592545e-07
5.9112577e-09
1.3547903e-07
2.2168313e-08
4.271675e-07
3.2130291e-08
6.1284526e-07
3.2017533e-08
6.5717496e-07
2.854164e-08
6.4070736e-07
2.5532401e-08
6.2247362e-07
2.3101702e-08
6.1209102e-07
2.0878706e-08
6.0544117e-07
1.8771588e-08
6.0032413e-07
1.6776451e-08
5.9621148e-07
1.4889393e-08
5.9289478e-07
1.3102415e-08
5.9021113e-07
1.1406202e-08
5.8803545e-07
9.7907743e-09
5.8627454e-07
8.2457078e-09
5.8485839e-07
6.760335e-09
5.8373407e-07
5.3239024e-09
5.8286165e-07
3.9256672e-09
5.8221146e-07
2.5549437e-09
5.8176215e-07
1.2011142e-09
5.8149945e-07
-1.4638782e-10
5.8141533e-07
-1.4981074e-09
5.815075e-07
-2.8646089e-09
5.817794e-07
-4.256504e-09
5.8224033e-07
-5.6844678e-09
5.8290596e-07
-7.1592264e-09
5.837993e-07
-8.6915095e-09
5.8495205e-07
-1.0291952e-08
5.8640678e-07
-1.1970941e-08
5.8821994e-07
-1.3738443e-08
5.9046647e-07
-1.560364e-08
5.9324645e-07
-1.7573497e-08
5.9669263e-07
-1.9653397e-08
6.00977e-07
-2.1889339e-08
6.0643775e-07
-2.4503037e-08
6.1437373e-07
-2.7568512e-08
6.2784384e-07
-2.878673e-08
6.4292781e-07
-2.2416307e-08
6.1881482e-07
-7.9282467e-09
4.7114123e-07
1.679972e-07
4.760072e-09
1.3072744e-07
1.9383958e-08
4.1255873e-07
2.9555029e-08
6.0268387e-07
3.041318e-08
6.5631825e-07
2.7458222e-08
6.4366113e-07
2.465494e-08
6.2527634e-07
2.2394595e-08
6.1435132e-07
2.0337759e-08
6.0749803e-07
1.8372697e-08
6.022892e-07
1.6492637e-08
5.9809154e-07
1.469705e-08
5.9469037e-07
1.2981334e-08
5.9192684e-07
1.1339261e-08
5.8967752e-07
9.7637153e-09
5.8785008e-07
8.2468871e-09
5.8637521e-07
6.7804623e-09
5.8520049e-07
5.3557971e-09
5.8428631e-07
3.9640479e-09
5.836032e-07
2.5962622e-09
5.8312993e-07
1.2434362e-09
5.8285228e-07
-1.0345063e-10
5.8276222e-07
-1.4534107e-09
5.8285746e-07
-2.8154449e-09
5.8314143e-07
-4.1985095e-09
5.8362339e-07
-5.6114843e-09
5.8431894e-07
-7.0631105e-09
5.8525092e-07
-8.5618964e-09
5.8645084e-07
-1.0115983e-08
5.8796087e-07
-1.1732966e-08
5.8983692e-07
-1.3419715e-08
5.9215322e-07
-1.5181975e-08
5.9500871e-07
-1.7023015e-08
5.9853367e-07
-1.8946994e-08
6.0290098e-07
-2.1009045e-08
6.084998e-07
-2.3419687e-08
6.1678437e-07
-2.6078735e-08
6.3050289e-07
-2.6499333e-08
6.4334841e-07
-1.9682802e-08
6.1199829e-07
-6.3773589e-09
4.5783579e-07
1.6161984e-07
3.9187901e-09
1.2681923e-07
1.7052345e-08
3.9944362e-07
2.7209068e-08
5.9253969e-07
2.8861326e-08
6.5466851e-07
2.6397045e-08
6.4612413e-07
2.3783153e-08
6.2788948e-07
2.1665233e-08
6.1646915e-07
1.9753083e-08
6.0941021e-07
1.7917609e-08
6.0412468e-07
1.6146327e-08
5.9986282e-07
1.4440323e-08
5.9639637e-07
1.2797283e-08
5.9356988e-07
1.1213181e-08
5.9126162e-07
9.6830721e-09
5.8938019e-07
8.2012366e-09
5.8785705e-07
6.7613278e-09
5.866404e-07
5.3565334e-09
5.8569111e-07
3.9797128e-09
5.8498003e-07
2.6235098e-09
5.8448614e-07
1.2804385e-09
5.8419535e-07
-5.7052802e-11
5.8409971e-07
-1.3965049e-09
5.8419691e-07
-2.7454366e-09
5.8449036e-07
-4.1112455e-09
5.849892e-07
-5.5011588e-09
5.8570885e-07
-6.9221366e-09
5.866719e-07
-8.3807547e-09
5.8790946e-07
-9.8830608e-09
5.8946317e-07
-1.1434406e-08
5.9138827e-07
-1.3039283e-08
5.9375809e-07
-1.4700926e-08
5.9667036e-07
-1.6420253e-08
6.0025299e-07
-1.8202387e-08
6.0468312e-07
-2.0111466e-08
6.1040888e-07
-2.2336036e-08
6.1900894e-07
-2.4610804e-08
6.3277765e-07
-2.4358422e-08
6.4309602e-07
-1.7312219e-08
6.0495208e-07
-5.1697964e-09
4.4569336e-07
1.5645005e-07
3.3048722e-09
1.235277e-07
1.509949e-08
3.8767147e-07
2.5085238e-08
5.8256991e-07
2.7376548e-08
6.5238114e-07
2.5368916e-08
6.4813046e-07
2.293184e-08
6.3032555e-07
2.0933005e-08
6.1846782e-07
1.9145161e-08
6.1119808e-07
1.7426136e-08
6.0584372e-07
1.5755923e-08
6.0153304e-07
1.4135773e-08
5.9801652e-07
1.256477e-08
5.9514089e-07
1.1040374e-08
5.9278602e-07
9.5592158e-09
5.9086135e-07
8.1171923e-09
5.8929907e-07
6.7095558e-09
5.8804804e-07
5.3310436e-09
5.8706962e-07
3.976005e-09
5.8633506e-07
2.6385167e-09
5.8582363e-07
1.3124837e-09
5.8552138e-07
-8.2725421e-12
5.8542046e-07
-1.3299708e-09
5.8551861e-07
-2.6587116e-09
5.858191e-07
-4.0004786e-09
5.8633097e-07
-5.3610174e-09
5.8706939e-07
-6.74573e-09
5.8805661e-07
-8.1595548e-09
5.8932328e-07
-9.606832e-09
5.9091045e-07
-1.1091167e-08
5.928726e-07
-1.2615301e-08
5.9528223e-07
-1.4180741e-08
5.982358e-07
-1.5787192e-08
6.0185945e-07
-1.7442338e-08
6.0633826e-07
-1.9217955e-08
6.121845e-07
-2.127163e-08
6.2106261e-07
-2.3188714e-08
6.3469474e-07
-2.2380084e-08
6.4228739e-07
-1.5270076e-08
5.9784208e-07
-4.2370573e-09
4.3466034e-07
1.5221299e-07
2.8538493e-09
1.2069083e-07
1.3456785e-08
3.7709588e-07
2.316513e-08
5.7288163e-07
2.5963145e-08
6.4958889e-07
2.4377143e-08
6.4971523e-07
2.210792e-08
6.3259349e-07
2.0209839e-08
6.2036563e-07
1.8528135e-08
6.1287981e-07
1.6912871e-08
6.0745901e-07
1.5335626e-08
6.0311029e-07
1.3796659e-08
5.9955549e-07
1.2295768e-08
5.9664178e-07
1.0831343e-08
5.9425044e-07
9.4011077e-09
5.9229158e-07
8.0021696e-09
5.9069801e-07
6.6310499e-09
5.8941916e-07
5.2837696e-09
5.884169e-07
3.9559543e-09
5.8766288e-07
2.6429402e-09
5.8713664e-07
1.3398734e-09
5.8682445e-07
4.1805749e-11
5.8671853e-07
-1.2562129e-09
5.8681663e-07
-2.5590651e-09
5.8712196e-07
-3.8714569e-09
5.8764336e-07
-5.1978268e-09
5.8839576e-07
-6.5422413e-09
5.8940103e-07
-7.9082808e-09
5.9068932e-07
-9.2989277e-09
5.923011e-07
-1.071647e-08
5.9429014e-07
-1.2162417e-08
5.9672817e-07
-1.363718e-08
5.9971056e-07
-1.5140174e-08
6.0336244e-07
-1.6682664e-08
6.0788075e-07
-1.8341838e-08
6.1384367e-07
-2.0237498e-08
6.2295827e-07
-2.1825182e-08
6.3628242e-07
-2.056483e-08
6.4102704e-07
-1.3514903e-08
5.9079215e-07
-3.5191834e-09
4.2466463e-07
1.4869381e-07
2.5170344e-09
1.1819542e-07
1.2064347e-08
3.6758188e-07
2.1425439e-08
5.6354548e-07
2.4618888e-08
6.464035e-07
2.3420249e-08
6.5091286e-07
2.1312995e-08
6.3469917e-07
1.9502214e-08
6.2217601e-07
1.7911266e-08
6.1447077e-07
1.6388203e-08
6.089821e-07
1.48961e-08
6.0460239e-07
1.3433348e-08
6.0101824e-07
1.1999937e-08
5.9807519e-07
1.0594782e-08
5.956556e-07
9.2163206e-09
5.9367005e-07
7.8625417e-09
5.9205179e-07
6.5309522e-09
5.9075075e-07
5.2186184e-09
5.8972924e-07
3.9222414e-09
5.8895926e-07
2.6382469e-09
5.8842064e-07
1.3628766e-09
5.8809982e-07
9.2282117e-11
5.8798913e-07
-1.1773907e-09
5.880863e-07
-2.449906e-09
5.8839447e-07
-3.7288511e-09
5.8892231e-07
-5.0175383e-09
5.8968445e-07
-6.3189092e-09
5.907024e-07
-7.6354373e-09
5.9200585e-07
-8.9690467e-09
5.9363471e-07
-1.0321062e-08
5.9564216e-07
-1.1692166e-08
5.9809928e-07
-1.3082172e-08
6.0110057e-07
-1.4490915e-08
6.0477118e-07
-1.593372e-08
6.0932356e-07
-1.7490434e-08
6.1540038e-07
-1.9238457e-08
6.247063e-07
-2.0524722e-08
6.3756869e-07
-1.8903434e-08
6.3940575e-07
-1.2003933e-08
5.8389265e-07
-2.9657226e-09
4.1562642e-07
1.4572808e-07
2.2587845e-09
1.1596397e-07
1.0872102e-08
3.590092e-07
1.9842029e-08
5.5460633e-07
2.3337916e-08
6.4291853e-07
2.2493986e-08
6.5175618e-07
2.0545262e-08
6.3664601e-07
1.8812748e-08
6.2390796e-07
1.7300151e-08
6.1598336e-07
1.5859239e-08
6.1042304e-07
1.4445144e-08
6.0601649e-07
1.305377e-08
6.0240962e-07
1.1684923e-08
5.9944404e-07
1.0337752e-08
5.9700277e-07
9.0111366e-09
5.9499666e-07
7.7036848e-09
5.9335924e-07
6.4136571e-09
5.9204077e-07
5.1389603e-09
5.9100393e-07
3.8771913e-09
5.9022103e-07
2.6257057e-09
5.8967212e-07
1.3816956e-09
5.8934383e-07
1.4227416e-10
5.8922855e-07
-1.0954406e-09
5.8932401e-07
-2.3342408e-09
5.8963327e-07
-3.5767408e-09
5.9016481e-07
-4.8252916e-09
5.90933e-07
-6.0818972e-09
5.91959e-07
-7.3481404e-09
5.9327209e-07
-8.6251341e-09
5.949117e-07
-9.9135147e-09
5.9693054e-07
-1.1213446e-08
5.9939921e-07
-1.2524505e-08
6.0241162e-07
-1.3847454e-08
6.0609413e-07
-1.5201694e-08
6.106778e-07
-1.6666747e-08
6.1686544e-07
-1.8275055e-08
6.263146e-07
-1.9286372e-08
6.3858001e-07
-1.738145e-08
6.3750083e-07
-1.0696628e-08
5.7720783e-07
-2.5355494e-09
4.0746534e-07
1.4319253e-07
2.0537272e-09
1.1394431e-07
9.8393886e-09
3.5127318e-07
1.8392228e-08
5.4609124e-07
2.2112791e-08
6.392124e-07
2.1592828e-08
6.5227617e-07
1.9800968e-08
6.3843566e-07
1.8141479e-08
6.2556668e-07
1.6697744e-08
6.1742706e-07
1.5330602e-08
6.1179022e-07
1.3988298e-08
6.0735881e-07
1.266387e-08
6.0373404e-07
1.1356673e-08
6.0075123e-07
1.0065905e-08
5.9829354e-07
8.7906908e-09
5.9627188e-07
7.5300663e-09
5.9461987e-07
6.2828624e-09
5.9328798e-07
5.0476569e-09
5.9223914e-07
3.8227868e-09
5.914459e-07
2.6063943e-09
5.9088851e-07
1.3964888e-09
5.9055374e-07
1.9101767e-10
5.9043402e-07
-1.0120565e-09
5.9052709e-07
-2.2146821e-09
5.908359e-07
-3.4186378e-09
5.9136876e-07
-4.6254605e-09
5.9213982e-07
-5.8363787e-09
5.9316992e-07
-7.0522618e-09
5.9448798e-07
-8.2736044e-09
5.9613304e-07
-9.5005602e-09
5.981575e-07
-1.0732985e-08
6.0063164e-07
-1.1970472e-08
6.0364911e-07
-1.3215027e-08
6.0733869e-07
-1.448977e-08
6.1195254e-07
-1.5870921e-08
6.1824659e-07
-1.7345231e-08
6.2778891e-07
-1.810598e-08
6.3934075e-07
-1.5982471e-08
6.3537732e-07
-9.5569197e-09
5.7078228e-07
-2.1961007e-09
4.0010452e-07
1.4099643e-07
1.8842785e-09
1.1210179e-07
8.9338255e-09
3.4428429e-07
1.7055866e-08
5.3801529e-07
2.0935807e-08
6.3535118e-07
2.0710986e-08
6.5250192e-07
1.9075475e-08
6.4006865e-07
1.7486864e-08
6.2715427e-07
1.610519e-08
6.1880864e-07
1.4805113e-08
6.1309034e-07
1.3529392e-08
6.0863454e-07
1.2268033e-08
6.049954e-07
1.101976e-08
6.0199951e-07
9.7837113e-09
5.9952959e-07
8.559134e-09
5.9749645e-07
7.3453573e-09
5.9583365e-07
6.1416443e-09
5.9449169e-07
4.9471086e-09
5.9343368e-07
3.7606982e-09
5.9263231e-07
2.5812185e-09
5.9206799e-07
1.4073767e-09
5.9172758e-07
2.3783957e-10
5.9160356e-07
-9.2870263e-10
5.9169363e-07
-2.0934701e-09
5.9200067e-07
-3.2575276e-09
5.9253282e-07
-4.4217253e-09
5.9330402e-07
-5.5866492e-09
5.9433485e-07
-6.7525956e-09
5.9565392e-07
-7.919584e-09
5.9730003e-07
-9.0874253e-09
5.9932534e-07
-1.0255801e-08
6.0180001e-07
-1.1424477e-08
6.0481779e-07
-1.2596854e-08
6.0851107e-07
-1.3799126e-08
6.1315481e-07
-1.5101435e-08
6.195489e-07
-1.644563e-08
6.2913311e-07
-1.6977913e-08
6.3987304e-07
-1.4690165e-08
6.3308958e-07
-8.5537623e-09
5.6464587e-07
-1.9221897e-09
3.9347295e-07
1.3907424e-07
1.7385631e-09
1.1041362e-07
8.129947e-09
3.3796695e-07
1.5815596e-08
5.3038572e-07
1.9799733e-08
6.3139094e-07
1.9843033e-08
6.524608e-07
1.8363981e-08
6.415449e-07
1.6846537e-08
6.2867041e-07
1.5522504e-08
6.2013251e-07
1.4284359e-08
6.1432853e-07
1.3071016e-08
6.098479e-07
1.1869458e-08
6.0619696e-07
1.0677674e-08
6.0319129e-07
9.4946866e-09
6.0071258e-07
8.3198016e-09
5.9867134e-07
7.1525546e-09
5.9700089e-07
5.9925429e-09
5.956517e-07
4.8393137e-09
5.9458691e-07
3.692322e-09
5.937793e-07
2.5509328e-09
5.9320938e-07
1.4144491e-09
5.9286406e-07
2.8215527e-10
5.9273585e-07
-8.466322e-10
5.9282242e-07
-1.9725082e-09
5.9312654e-07
-3.0959274e-09
5.9365624e-07
-4.2171587e-09
5.9442525e-07
-5.3362524e-09
5.9545394e-07
-6.4530362e-09
5.9677071e-07
-7.5671534e-09
5.9841415e-07
-8.6781584e-09
6.0043634e-07
-9.7856277e-09
6.0290748e-07
-1.0889579e-08
6.0592174e-07
-1.1994815e-08
6.096163e-07
-1.3129764e-08
6.1428976e-07
-1.4356025e-08
6.2077516e-07
-1.5572572e-08
6.3034966e-07
-1.5896288e-08
6.4019675e-07
-1.348954e-08
6.3068283e-07
-7.6612797e-09
5.5881761e-07
-1.694834e-09
3.875065e-07
1.3737941e-07
1.608735e-09
1.088649e-07
7.4078521e-09
3.3225801e-07
1.4656808e-08
5.2320479e-07
1.8698215e-08
6.2737968e-07
1.8984263e-08
6.5217859e-07
1.7662005e-08
6.4286413e-07
1.6217852e-08
6.3011293e-07
1.4949076e-08
6.2140104e-07
1.3769157e-08
6.1550849e-07
1.261492e-08
6.1100216e-07
1.1470495e-08
6.0734139e-07
1.0333092e-08
6.0432869e-07
9.2016041e-09
6.0184406e-07
8.0753757e-09
5.9979757e-07
6.9541018e-09
5.9812217e-07
5.837651e-09
5.9676815e-07
4.7259297e-09
5.9569863e-07
3.6188201e-09
5.9488641e-07
2.5161631e-09
5.9431204e-07
1.417772e-09
5.9396246e-07
3.2346172e-10
5.9383016e-07
-7.6691145e-10
5.9391279e-07
-1.8534048e-09
5.9421304e-07
-2.9359499e-09
5.9473879e-07
-4.014319e-09
5.9550362e-07
-5.0881087e-09
5.9652773e-07
-6.1567518e-09
5.9783935e-07
-7.2195774e-09
5.9947698e-07
-8.2759249e-09
6.0149269e-07
-9.3252875e-09
6.0395684e-07
-1.0367947e-08
6.069644e-07
-1.1410004e-08
6.1065836e-07
-1.2481153e-08
6.1536091e-07
-1.3632376e-08
6.2192638e-07
-1.4722762e-08
6.3144004e-07
-1.4855836e-08
6.4032983e-07
-1.2367698e-08
6.2819469e-07
-6.8585363e-09
5.5330845e-07
-1.5001676e-09
3.8214813e-07
1.3587924e-07
1.489666e-09
1.0744585e-07
6.7519964e-09
3.2710515e-07
1.3567388e-08
5.1647168e-07
1.762596e-08
6.2335872e-07
1.8130907e-08
6.5167961e-07
1.6965697e-08
6.4402615e-07
1.5598279e-08
6.3147836e-07
1.438407e-08
6.2261487e-07
1.3259912e-08
6.1663268e-07
1.2162333e-08
6.1209977e-07
1.1072924e-08
6.084308e-07
9.9881111e-09
6.0541351e-07
8.906684e-09
6.0292549e-07
7.8280354e-09
6.0087622e-07
6.7520063e-09
5.991982e-07
5.678701e-09
5.9784146e-07
4.6083365e-09
5.9676899e-07
3.5411625e-09
5.9595358e-07
2.477431e-09
5.9537577e-07
1.4173954e-09
5.9502249e-07
3.6132964e-10
5.9488623e-07
-6.9044342e-10
5.9496457e-07
-1.7375161e-09
5.9526011e-07
-2.7793675e-09
5.9578064e-07
-3.8153405e-09
5.9653959e-07
-4.8446372e-09
5.9755703e-07
-5.8663447e-09
5.9886106e-07
-6.8795095e-09
6.0049014e-07
-7.8832642e-09
6.0249645e-07
-8.877003e-09
6.0495058e-07
-9.861238e-09
6.0794864e-07
-1.0843164e-08
6.1164029e-07
-1.1852718e-08
6.1637047e-07
-1.2928624e-08
6.2300229e-07
-1.3893792e-08
6.3240521e-07
-1.3852475e-08
6.4028851e-07
-1.131421e-08
6.2565642e-07
-6.1290712e-09
5.4812331e-07
-1.3283924e-09
3.7734745e-07
1.3455085e-07
1.3779674e-09
1.0615004e-07
6.1501908e-09
3.2246522e-07
1.2537423e-08
5.101837e-07
1.6578832e-08
6.1936383e-07
1.7280266e-08
6.5098684e-07
1.6272064e-08
6.4503112e-07
1.4985697e-08
6.3276233e-07
1.3826727e-08
6.2377333e-07
1.2756904e-08
6.1770252e-07
1.1714236e-08
6.1314247e-07
1.0678188e-08
6.0946686e-07
9.6444534e-09
6.0644724e-07
8.611763e-09
6.0395818e-07
7.5795953e-09
6.0190838e-07
6.5479484e-09
6.0022984e-07
5.5171502e-09
5.9887226e-07
4.487699e-09
5.9779844e-07
3.4601716e-09
5.9698111e-07
2.435181e-09
5.9640076e-07
1.4133657e-09
5.9604431e-07
3.9539975e-10
5.9590419e-07
-6.1798731e-10
5.9597795e-07
-1.6259826e-09
5.962681e-07
-2.6276693e-09
5.9678232e-07
-3.6220121e-09
5.9753394e-07
-4.607861e-09
5.9854288e-07
-5.5839867e-09
5.9983718e-07
-6.5491622e-09
6.0145532e-07
-7.5022976e-09
6.0344958e-07
-8.4426468e-09
6.0589093e-07
-9.3708817e-09
6.0887687e-07
-1.0295018e-08
6.1256442e-07
-1.1244208e-08
6.1731966e-07
-1.224372e-08
6.240018e-07
-1.3084479e-08
6.3324597e-07
-1.2883685e-08
6.4008772e-07
-1.032127e-08
6.2309401e-07
-5.4603976e-09
5.4326244e-07
-1.1726296e-09
3.7305969e-07
1.3337822e-07
1.2713004e-09
1.0497317e-07
5.5928302e-09
3.1830258e-07
1.1558966e-08
5.0433684e-07
1.5553921e-08
6.1542591e-07
1.6430827e-08
6.5012194e-07
1.5579146e-08
6.4587965e-07
1.4378628e-08
6.3396003e-07
1.3276603e-08
6.2487466e-07
1.2260529e-08
6.187186e-07
1.1271574e-08
6.1413147e-07
1.0287592e-08
6.1045085e-07