/*--------------------------------*- C++ -*----------------------------------*\
  =========                 |
  \\      /  F ield         | OpenFOAM: The Open Source CFD Toolbox
   \\    /   O peration     | Website:  https://openfoam.org
    \\  /    A nd           | Version:  10
     \\/     M anipulation  |
\*---------------------------------------------------------------------------*/
FoamFile
{
    format      ascii;
    class       surfaceScalarField;
    location    "0.1";
    object      phi_0;
}
// * * * * * * * * * * * * * * * * * * * * * * * * * * * * * * * * * * * * * //

dimensions      [1 0 -1 0 0 0 0];

internalField   nonuniform List<scalar> 
7860
(
3.98876e-08
5.2882044e-07
1.2186296e-08
5.9640907e-07
7.4212735e-09
5.7347276e-07
5.4918521e-09
5.7063712e-07
4.1071451e-09
5.7009237e-07
3.1932791e-09
5.6962151e-07
2.5514234e-09
5.6934948e-07
2.071882e-09
5.6918715e-07
1.7023105e-09
5.6907717e-07
1.4101685e-09
5.6899973e-07
1.1736478e-09
5.689441e-07
9.7797404e-10
5.6890325e-07
8.1279293e-10
5.6887275e-07
6.706042e-10
5.6884975e-07
5.4582503e-10
5.6883234e-07
4.3418545e-10
5.688192e-07
3.323227e-10
5.6880942e-07
2.3750064e-10
5.6880237e-07
1.4740732e-10
5.6879764e-07
6.0002478e-11
5.6879495e-07
-2.6605682e-11
5.6879416e-07
-1.1426789e-10
5.6879521e-07
-2.049009e-10
5.6879818e-07
-3.0059251e-10
5.6880324e-07
-4.0373419e-10
5.688107e-07
-5.1718462e-10
5.6882101e-07
-6.4449047e-10
5.6883486e-07
-7.9019949e-10
5.6885327e-07
-9.6032142e-10
5.6887769e-07
-1.1630352e-09
5.6891029e-07
-1.4098622e-09
5.6895441e-07
-1.717638e-09
5.6901536e-07
-2.1113729e-09
5.6910133e-07
-2.630984e-09
5.6922722e-07
-3.358908e-09
5.6943555e-07
-4.4508732e-09
5.6979961e-07
-5.9978596e-09
5.7025465e-07
-9.4978911e-09
5.7220773e-07
-2.9563378e-08
5.8877323e-07
5.3914454e-07
5.9652709e-08
4.6916787e-07
3.664258e-08
6.1941915e-07
2.2605627e-08
5.8750969e-07
1.6229697e-08
5.7701305e-07
1.2265918e-08
5.7405615e-07
9.5816189e-09
5.7230581e-07
7.6533029e-09
5.712778e-07
6.2128823e-09
5.7062757e-07
5.1047006e-09
5.7018535e-07
4.228639e-09
5.6987579e-07
3.5193248e-09
5.6965342e-07
2.932554e-09
5.6949002e-07
2.4372484e-09
5.6936805e-07
2.0109015e-09
5.692761e-07
1.6367692e-09
5.6920647e-07
1.302045e-09
5.6915392e-07
9.9664369e-10
5.6911482e-07
7.1235926e-10
5.6908666e-07
4.4225842e-10
5.6906775e-07
1.802219e-10
5.6905699e-07
-7.9424844e-11
5.690538e-07
-3.4223394e-10
5.6905802e-07
-6.139476e-10
5.690699e-07
-9.0082994e-10
5.6909013e-07
-1.2100538e-09
5.6911992e-07
-1.5501926e-09
5.6916115e-07
-1.9318832e-09
5.6921656e-07
-2.3687648e-09
5.6929015e-07
-2.8788687e-09
5.6938779e-07
-3.4867419e-09
5.6951816e-07
-4.2268654e-09
5.6969453e-07
-5.1496768e-09
5.6993817e-07
-6.3318917e-09
5.7028355e-07
-7.8923504e-09
5.7078768e-07
-1.0034402e-08
5.715776e-07
-1.3164427e-08
5.7292963e-07
-1.8097443e-08
5.7518767e-07
-2.814057e-08
5.8225086e-07
-4.5771669e-08
6.0640433e-07
4.9337287e-07
5.9978696e-08
4.091895e-07
5.0443952e-08
6.2895388e-07
3.3329299e-08
6.0462427e-07
2.477548e-08
5.8556686e-07
1.9280007e-08
5.7955163e-07
1.5288286e-08
5.7629753e-07
1.231842e-08
5.7424766e-07
1.0060937e-08
5.7288505e-07
8.3023696e-09
5.7194392e-07
6.8995252e-09
5.7127864e-07
5.7562612e-09
5.7079668e-07
4.805753e-09
5.7044053e-07
4.0001801e-09
5.7017363e-07
3.3045041e-09
5.6997178e-07
2.6924107e-09
5.6981856e-07
2.1436187e-09
5.6970271e-07
1.6420548e-09
5.6961638e-07
1.1745729e-09
5.6955414e-07
7.3001923e-10
5.695123e-07
2.9851872e-10
5.6948849e-07
-1.2910284e-10
5.6948143e-07
-5.6182526e-10
5.6949074e-07
-1.008928e-09
5.69517e-07
-1.480511e-09
5.6956171e-07
-1.9880984e-09
5.6962751e-07
-2.5453987e-09
5.6971845e-07
-3.1693174e-09
5.6984047e-07
-3.8813695e-09
5.7000221e-07
-4.7097308e-09
5.7021615e-07
-5.6923032e-09
5.7050073e-07
-6.8813769e-09
5.708836e-07
-8.3512705e-09
5.7140807e-07
-1.0211527e-08
5.721438e-07
-1.2624208e-08
5.7320036e-07
-1.5822711e-08
5.747761e-07
-2.0169295e-08
5.7727622e-07
-2.6641119e-08
5.8165949e-07
-3.8880638e-08
5.9449038e-07
-4.8116939e-08
6.1564063e-07
4.4525593e-07
5.4840109e-08
3.5435e-07
5.7386191e-08
6.2640795e-07
4.0403077e-08
6.2160725e-07
3.0715348e-08
5.9525456e-07
2.4578639e-08
5.8568834e-07
1.9888073e-08
5.8098809e-07
1.6250209e-08
5.7788553e-07
1.340637e-08
5.7572889e-07
1.1144318e-08
5.7420597e-07
9.3122544e-09
5.731107e-07
7.8022062e-09
5.7230673e-07
6.5356009e-09
5.7170713e-07
5.4545132e-09
5.7125472e-07
4.5155557e-09
5.7091073e-07
3.6855617e-09
5.7064856e-07
2.9386048e-09
5.7044967e-07
2.2538999e-09
5.7030109e-07
1.6142856e-09
5.7019376e-07
1.005091e-09
5.7012149e-07
4.1325587e-10
5.7008033e-07
-1.7339427e-10
5.7006808e-07
-7.667884e-10
5.7008414e-07
-1.3792323e-09
5.7012944e-07
-2.0240642e-09
5.7020654e-07
-2.7164064e-09
5.7031985e-07
-3.4740942e-09
5.7047613e-07
-4.318885e-09
5.7068526e-07
-5.2780922e-09
5.7096141e-07
-6.3868682e-09
5.7132493e-07
-7.6914669e-09
5.7180533e-07
-9.2538147e-09
5.7244595e-07
-1.1157899e-08
5.7331215e-07
-1.3520174e-08
5.7450608e-07
-1.6502233e-08
5.7618242e-07
-2.0302237e-08
5.7857611e-07
-2.5187084e-08
5.8216106e-07
-3.2413366e-08
5.8888577e-07
-4.4996599e-08
6.0707361e-07
-4.6479783e-08
6.1712382e-07
3.9877614e-07
4.7919644e-08
3.0643132e-07
5.9986361e-08
6.143417e-07
4.5307622e-08
6.3628581e-07
3.478684e-08
6.0577526e-07
2.8311171e-08
5.9216401e-07
2.3331462e-08
5.8596781e-07
1.9348371e-08
5.8186862e-07
1.6146871e-08
5.7893039e-07
1.3542278e-08
5.7681056e-07
1.1395068e-08
5.7525791e-07
9.6000048e-09
5.7410179e-07
8.0769379e-09
5.732302e-07
6.7647424e-09
5.7256691e-07
5.6163081e-09
5.7205917e-07
4.594766e-09
5.716701e-07
3.6707394e-09
5.713737e-07
2.820302e-09
5.7115153e-07
2.0234384e-09
5.7099062e-07
1.2628591e-09
5.7088207e-07
5.2305372e-10
5.7082013e-07
-2.1050282e-10
5.7080163e-07
-9.5206143e-10
5.708257e-07
-1.7162905e-09
5.7089367e-07
-2.5189998e-09
5.7100925e-07
-3.3779584e-09
5.7117881e-07
-4.3138794e-09
5.7141205e-07
-5.3516622e-09
5.7172305e-07
-6.5220038e-09
5.7213175e-07
-7.8635276e-09
5.7266645e-07
-9.4256598e-09
5.7336746e-07
-1.1272409e-08
5.742927e-07
-1.3486796e-08
5.7552654e-07
-1.6177353e-08
5.7719663e-07
-1.9487989e-08
5.7949305e-07
-2.3589484e-08
5.826776e-07
-2.8784222e-08
5.873558e-07
-3.6643062e-08
5.9674461e-07
-4.8317781e-08
6.1874833e-07
-4.3105965e-08
6.11912e-07
3.5567018e-07
4.0283702e-08
2.6614899e-07
5.8879097e-08
5.957473e-07
4.8204703e-08
6.4696006e-07
3.7469742e-08
6.1651004e-07
3.0812247e-08
5.9882149e-07
2.5778543e-08
5.9100152e-07
2.166772e-08
5.8597944e-07
1.8284715e-08
5.823134e-07
1.5476633e-08
5.7961865e-07
1.3121283e-08
5.7761326e-07
1.1122588e-08
5.7610049e-07
9.4051237e-09
5.7494766e-07
7.9096223e-09
5.7406241e-07
6.5890582e-09
5.7337973e-07
5.4056886e-09
5.7285347e-07
4.3287844e-09
5.724506e-07
3.3328499e-09
5.7214746e-07
2.3962221e-09
5.7192725e-07
1.4999515e-09
5.7177834e-07
6.2688064e-10
5.716932e-07
-2.3914814e-10
5.7166766e-07
-1.1140115e-09
5.7170056e-07
-2.0140091e-09
5.7179367e-07
-2.9565941e-09
5.7195184e-07
-3.9611807e-09
5.7218339e-07
-5.0500923e-09
5.7250097e-07
-6.2497157e-09
5.7292267e-07
-7.5919372e-09
5.7347398e-07
-9.1159431e-09
5.7419046e-07
-1.087053e-08
5.7512205e-07
-1.291714e-08
5.7633931e-07
-1.5333286e-08
5.7794268e-07
-1.821664e-08
5.8007999e-07
-2.1691761e-08
5.8296818e-07
-2.5914965e-08
5.8690081e-07
-3.1293741e-08
5.9273458e-07
-3.9454133e-08
6.0490501e-07
-4.8980951e-08
6.2827515e-07
-3.8472128e-08
6.0140318e-07
3.1719805e-07
3.2804719e-08
2.333461e-07
5.5109642e-08
5.7344408e-07
4.9069354e-08
6.5300036e-07
3.8907814e-08
6.266713e-07
3.2281607e-08
6.0544764e-07
2.7372021e-08
5.9591111e-07
2.3296295e-08
5.9005517e-07
1.9867007e-08
5.8574269e-07
1.6967281e-08
5.8251837e-07
1.449471e-08
5.8008583e-07
1.2365345e-08
5.7822985e-07
1.0511779e-08
5.7680123e-07
8.8796197e-09
5.7569457e-07
7.4245296e-09
5.7483482e-07
6.1100408e-09
5.7416796e-07
4.9057948e-09
5.7365485e-07
3.786099e-09
5.7326716e-07
2.7287493e-09
5.729846e-07
1.7140516e-09
5.7279304e-07
7.2398952e-10
5.7268327e-07
-2.5850928e-10
5.7265016e-07
-1.2502496e-09
5.726923e-07
-2.2684365e-09
5.7281186e-07
-3.3313606e-09
5.7301476e-07
-4.4591423e-09
5.7331118e-07
-5.6745814e-09
5.7371641e-07
-7.0041563e-09
5.7425225e-07
-8.4792277e-09
5.7494905e-07
-1.0137491e-08
5.7584872e-07
-1.2024754e-08
5.7700931e-07
-1.419733e-08
5.7851189e-07
-1.6724928e-08
5.8047028e-07
-1.9692715e-08
5.8304778e-07
-2.3201953e-08
5.8647741e-07
-2.7394366e-08
5.9109322e-07
-3.2784207e-08
5.9812442e-07
-4.075007e-08
6.1287087e-07
-4.744801e-08
6.3497309e-07
-3.3252541e-08
5.8720771e-07
2.8394551e-07
2.6125638e-08
2.0722278e-07
4.9966185e-08
5.4960614e-07
4.8288613e-08
6.5467827e-07
3.9295771e-08
6.3566375e-07
3.2890755e-08
6.1185254e-07
2.8229442e-08
6.0057243e-07
2.4316107e-08
5.9396851e-07
2.0949794e-08
5.89109e-07
1.8049235e-08
5.8541893e-07
1.553496e-08
5.8260011e-07
1.3337642e-08
5.8042717e-07
1.139992e-08
5.7873895e-07
9.6741009e-09
5.7742039e-07
8.1202256e-09
5.763887e-07
6.7046017e-09
5.7558358e-07
5.3985307e-09
5.7496092e-07
4.1772188e-09
5.7448847e-07
3.0188518e-09
5.7414296e-07
1.903796e-09
5.739081e-07
8.1389306e-10
5.7377317e-07
-2.6817877e-10
5.7373223e-07
-1.3595029e-09
5.7378363e-07
-2.4775192e-09
5.7392988e-07
-3.6406302e-09
5.7417787e-07
-4.8688465e-09
5.7453939e-07
-6.1845038e-09
5.7503206e-07
-7.613079e-09
5.7568082e-07
-9.1841397e-09
5.7652011e-07
-1.0932455e-08
5.7759704e-07
-1.2899266e-08
5.7897612e-07
-1.5133937e-08
5.8074656e-07
-1.7696074e-08
5.8303242e-07
-2.0655519e-08
5.8600722e-07
-2.4088054e-08
5.8990995e-07
-2.8128903e-08
5.9513407e-07
-3.3376723e-08
6.0337224e-07
-4.0734069e-08
6.2022821e-07
-4.4506559e-08
6.3874558e-07
-2.8064424e-08
5.7076557e-07
2.5588109e-07
2.0502083e-08
1.8672353e-07
4.4389397e-08
5.2572254e-07
4.6391298e-08
6.5267723e-07
3.8909477e-08
6.4314509e-07
3.2853364e-08
6.1790844e-07
2.8493932e-08
6.0493185e-07
2.4822091e-08
5.9764036e-07
2.1598287e-08
5.923328e-07
1.8766842e-08
5.8825038e-07
1.6271379e-08
5.8509557e-07
1.4058177e-08
5.8264037e-07
1.2080845e-08
5.8071628e-07
1.0299397e-08
5.7920184e-07
8.6792824e-09
5.7800881e-07
7.1905632e-09
5.770723e-07
5.8070982e-09
5.7634438e-07
4.5058044e-09
5.7578976e-07
3.2659879e-09
5.7538278e-07
2.0687356e-09
5.7510535e-07
8.9635579e-10
5.7494555e-07
-2.6814497e-10
5.7489673e-07
-1.4415606e-09
5.7495704e-07
-2.6409857e-09
5.751293e-07
-3.8843203e-09
5.7542121e-07
-5.1907978e-09
5.7584587e-07
-6.5815543e-09
5.7642282e-07
-8.0802488e-09
5.7717952e-07
-9.7137523e-09
5.7815361e-07
-1.1512917e-08
5.793962e-07
-1.3513373e-08
5.8097658e-07
-1.5756439e-08
5.8298962e-07
-1.8290326e-08
5.8556631e-07
-2.1168617e-08
5.8888551e-07
-2.4445973e-08
5.931873e-07
-2.8267249e-08
5.9895534e-07
-3.3271013e-08
6.08376e-07
-3.9739517e-08
6.2669672e-07
-4.0814716e-08
6.3982078e-07
-2.3260941e-08
5.532118e-07
2.3262014e-07
1.5940791e-08
1.7078616e-07
3.8921228e-08
5.0274714e-07
4.3815419e-08
6.4778466e-07
3.799006e-08
6.4896994e-07
3.2372646e-08
6.235255e-07
2.8320774e-08
6.089837e-07
2.4922784e-08
6.0103837e-07
2.1888287e-08
5.953673e-07
1.9173207e-08
5.9096546e-07
1.6741071e-08
5.8752771e-07
1.4552637e-08
5.8482881e-07
1.2572066e-08
5.8269686e-07
1.0767216e-08
5.8100669e-07
9.1093456e-09
5.7966668e-07
7.5727739e-09
5.7860888e-07
6.1344593e-09
5.777827e-07
4.7735718e-09
5.7715065e-07
3.471063e-09
5.7668529e-07
2.2092432e-09
5.7636717e-07
9.7136956e-10
5.7618342e-07
-2.5875406e-10
5.7612686e-07
-1.4971669e-09
5.7619545e-07
-2.7601468e-09
5.7639228e-07
-4.0646049e-09
5.7672566e-07
-5.4284889e-09
5.7720976e-07
-6.8712019e-09
5.7786553e-07
-8.4140334e-09
5.7872235e-07
-1.0080602e-08
5.7982018e-07
-1.1897315e-08
5.8121292e-07
-1.3893789e-08
5.8297306e-07
-1.6103215e-08
5.8519905e-07
-1.8562757e-08
5.8802585e-07
-2.1311129e-08
5.9163388e-07
-2.4389394e-08
5.9626557e-07
-2.796358e-08
6.0252953e-07
-3.2650714e-08
6.1306314e-07
-3.8061241e-08
6.3210725e-07
-3.6814703e-08
6.3857424e-07
-1.9011002e-08
5.354081e-07
2.1360914e-07
1.234255e-08
1.5844772e-07
3.3860229e-08
4.8123605e-07
4.0889765e-08
6.4075779e-07
3.6715052e-08
6.5314421e-07
3.160179e-08
6.2863824e-07
2.784385e-08
6.1274156e-07
2.4721134e-08
6.041611e-07
2.1896435e-08
5.9819201e-07
1.9324888e-08
5.93537e-07
1.6985406e-08
5.8986719e-07
1.4851034e-08
5.8696318e-07
1.289519e-08
5.846527e-07
1.1092977e-08
5.828089e-07
9.4212955e-09
5.8133836e-07
7.8587981e-09
5.8017137e-07
6.3857599e-09
5.7925574e-07
4.9838965e-09
5.7855251e-07
3.6361344e-09
5.7803305e-07
2.3263523e-09
5.7767695e-07
1.0391071e-09
5.7747067e-07
-2.4064715e-10
5.7740661e-07
-1.5278415e-09
5.7748265e-07
-2.837583e-09
5.7770202e-07
-4.1854397e-09
5.7807352e-07
-5.587724e-09
5.7861204e-07
-7.0617711e-09
5.7933958e-07
-8.6262033e-09
5.8028678e-07
-1.0301167e-08
5.8149514e-07
-1.2108545e-08
5.830203e-07
-1.4072122e-08
5.8493663e-07
-1.6217615e-08
5.8734454e-07
-1.8572381e-08
5.9038062e-07
-2.1162602e-08
5.9422411e-07
-2.4022824e-08
5.9912579e-07
-2.7342896e-08
6.058496e-07
-3.1657774e-08
6.1737802e-07
-3.5940996e-08
6.3639047e-07
-3.2807198e-08
6.3544044e-07
-1.5375704e-08
5.179766e-07
1.9823344e-07
9.568593e-09
1.4888407e-07
2.9358196e-08
4.6145486e-07
3.7860433e-08
6.3225954e-07
3.5221934e-08
6.5578246e-07
3.0650997e-08
6.3320848e-07
2.7166615e-08
6.1622579e-07
2.4302968e-08
6.0702476e-07
2.1690866e-08
6.0080412e-07
1.9275185e-08
5.9595269e-07
1.7045396e-08
5.9209698e-07
1.4984496e-08
5.8902408e-07
1.3073597e-08
5.865636e-07
1.129408e-08
5.8458842e-07
9.6279477e-09
5.830045e-07
8.0579448e-09
5.8174138e-07
6.5676197e-09
5.8074606e-07
5.1413135e-09
5.7997882e-07
3.7640823e-09
5.7941028e-07
2.4215731e-09
5.7901946e-07
1.0998686e-09
5.7879237e-07
-2.1468859e-10
5.7872117e-07
-1.5356785e-09
5.7880364e-07
-2.8767978e-09
5.7904314e-07
-4.2520445e-09
5.7944877e-07
-5.6758941e-09
5.8003589e-07
-7.1634572e-09
5.8082714e-07
-8.7306087e-09
5.8185393e-07
-1.0394069e-08
5.8315861e-07
-1.2171439e-08
5.8479767e-07
-1.4081195e-08
5.8684639e-07
-1.6142513e-08
5.8940586e-07
-1.837441e-08
5.9261251e-07
-2.0793179e-08
5.9664288e-07
-2.3432837e-08
6.0176545e-07
-2.6502962e-08
6.0891973e-07
-3.040954e-08
6.2128459e-07
-3.3582285e-08
6.3956321e-07
-2.8996597e-08
6.3085475e-07
-1.2349901e-08
5.0132991e-07
1.8588354e-07
7.4700321e-09
1.4142004e-07
2.5462377e-08
4.4347307e-07
3.4897723e-08
6.2282987e-07
3.3619823e-08
6.5706048e-07
2.9602248e-08
6.3722515e-07
2.6368081e-08
6.1945969e-07
2.3737173e-08
6.0965568e-07
2.1328684e-08
6.0321262e-07
1.907079e-08
5.9821058e-07
1.6958583e-08
5.9420918e-07
1.4982714e-08
5.9099995e-07
1.3130462e-08
5.8841585e-07
1.1388393e-08
5.8633049e-07
9.7429021e-09
5.8464999e-07
8.1804015e-09
5.8330388e-07
6.687492e-09
5.8223897e-07
5.25106e-09
5.8141525e-07
3.8583064e-09
5.8080304e-07
2.4967231e-09
5.8038105e-07
1.1540329e-09
5.8013506e-07
-1.8189736e-10
5.800571e-07
-1.5231554e-09
5.801449e-07
-2.8818924e-09
5.8040188e-07
-4.2704218e-09
5.808373e-07
-5.7013059e-09
5.8146677e-07
-7.1874169e-09
5.8231326e-07
-8.7419627e-09
5.8340848e-07
-1.0378459e-08
5.847951e-07
-1.2110646e-08
5.8652985e-07
-1.3952369e-08
5.8868811e-07
-1.591729e-08
5.9137078e-07
-1.8017618e-08
5.9471284e-07
-2.0262703e-08
5.9888796e-07
-2.2690877e-08
6.0419362e-07
-2.5523022e-08
6.1175187e-07
-2.9006195e-08
6.2476777e-07
-3.1145977e-08
6.41703e-07
-2.550448e-08
6.2521326e-07
-9.886531e-09
4.8571196e-07
1.7599701e-07
5.9062858e-09
1.355211e-07
2.2150652e-08
4.2724177e-07
3.2102888e-08
6.1288538e-07
3.1988367e-08
6.5717569e-07
2.8514596e-08
6.4069784e-07
2.5507391e-08
6.2246649e-07
2.3078234e-08
6.1208483e-07
2.0856761e-08
6.0543412e-07
1.8751283e-08
6.0031607e-07
1.6757879e-08
5.9620259e-07
1.487262e-08
5.9288521e-07
1.3087491e-08
5.9020098e-07
1.1393166e-08
5.8802481e-07
9.7796583e-09
5.862635e-07
8.236537e-09
5.84847e-07
6.7531316e-09
5.8372238e-07
5.3186882e-09
5.828497e-07
3.9224649e-09
5.8219926e-07
2.5537787e-09
5.8174973e-07
1.2020159e-09
5.8148683e-07
-1.4338537e-10
5.814025e-07
-1.4929649e-09
5.8149448e-07
-2.8572818e-09
5.817662e-07
-4.246943e-09
5.8222696e-07
-5.6726191e-09
5.8289245e-07
-7.1450336e-09
5.8378567e-07
-8.6749153e-09
5.8493836e-07
-1.0272901e-08
5.8639309e-07
-1.1949381e-08
5.8820633e-07
-1.3714334e-08
5.9045307e-07
-1.5576953e-08
5.932334e-07
-1.7544233e-08
5.9668012e-07
-1.9621588e-08
6.0096532e-07
-2.1854946e-08
6.0642698e-07
-2.4465552e-08
6.1436248e-07
-2.7527414e-08
6.2782963e-07
-2.874545e-08
6.4292103e-07
-2.2385392e-08
6.188532e-07
-7.9168119e-09
4.7124338e-07
1.680802e-07
4.7546928e-09
1.307755e-07
1.936419e-08
4.1264833e-07
2.9523588e-08
6.0273624e-07
3.0379077e-08
6.5632173e-07
2.7426472e-08
6.4364919e-07
2.4625766e-08
6.2526661e-07
2.2367389e-08
6.1434316e-07
2.0312419e-08
6.0748911e-07
1.8349323e-08
6.0227917e-07
1.6471313e-08
5.980806e-07
1.4677832e-08
5.9467869e-07
1.2964261e-08
5.9191455e-07
1.1324359e-08
5.8966472e-07
9.751006e-09
5.8783685e-07
8.2363855e-09
5.8636162e-07
6.7721822e-09
5.8518658e-07
5.3497537e-09
5.8427212e-07
3.9602598e-09
5.8358876e-07
2.594753e-09
5.8311524e-07
1.2442362e-09
5.8283734e-07
-1.003039e-10
5.8274704e-07
-1.4478711e-09
5.8284204e-07
-2.8074581e-09
5.8312578e-07
-4.188013e-09
5.8360751e-07
-5.5984079e-09
5.8430285e-07
-7.0473778e-09
5.8523464e-07
-8.5434264e-09
5.8643441e-07
-1.0094693e-08
5.8794435e-07
-1.1708775e-08
5.8982042e-07
-1.3392548e-08
5.9213684e-07
-1.5151769e-08
5.9499262e-07
-1.6989734e-08
5.9851809e-07
-1.8910631e-08
6.0288621e-07
-2.0969462e-08
6.0848581e-07
-2.3376205e-08
6.1676922e-07
-2.6031003e-08
6.3048443e-07
-2.6451958e-08
6.4334199e-07
-1.9648031e-08
6.1204927e-07
-6.3648505e-09
4.579602e-07
1.6171535e-07
3.9129919e-09
1.2687389e-07
1.703029e-08
3.9955066e-07
2.7173198e-08
5.9260663e-07
2.8821721e-08
6.5467586e-07
2.6359991e-08
6.4610957e-07
2.3749294e-08
6.2787651e-07
2.1633859e-08
6.164585e-07
1.9723987e-08
6.0939902e-07
1.7890857e-08
6.0411231e-07
1.612199e-08
5.9984947e-07
1.441844e-08
5.9638224e-07
1.2777875e-08
5.9355512e-07
1.1196258e-08
5.9124633e-07
9.6686379e-09
5.8936447e-07
8.1892929e-09
5.8784096e-07
6.7518769e-09
5.86624e-07
5.3495812e-09
5.8567442e-07
3.9752716e-09
5.8496307e-07
2.6215999e-09
5.8446891e-07
1.28109e-09
5.8417785e-07
-5.3798998e-11
5.8408193e-07
-1.390595e-09
5.8417884e-07
-2.7368054e-09
5.8447199e-07
-4.0998157e-09
5.8497053e-07
-5.486841e-09
5.8568987e-07
-6.9048305e-09
5.8665263e-07
-8.3603511e-09
5.8788993e-07
-9.8594437e-09
5.8944345e-07
-1.1407457e-08
5.9136843e-07
-1.3008885e-08
5.9373827e-07
-1.4666971e-08
5.9665071e-07
-1.6382657e-08
6.0023377e-07
-1.8161083e-08
6.0466464e-07
-2.0066188e-08
6.1039092e-07
-2.228593e-08
6.1898897e-07
-2.4555779e-08
6.3275427e-07
-2.4304413e-08
6.4309062e-07
-1.7273268e-08
6.0501813e-07
-5.156114e-09
4.4584304e-07
1.5655923e-07
3.2986549e-09
1.2358966e-07
1.5074961e-08
3.8779829e-07
2.5044518e-08
5.8265402e-07
2.7330839e-08
6.5239371e-07
2.5325914e-08
6.481131e-07
2.2892735e-08
6.3030862e-07
2.0897005e-08
6.1845405e-07
1.9111929e-08
6.1118412e-07
1.7395689e-08
6.0582856e-07
1.5728308e-08
6.0151685e-07
1.4111003e-08
5.9799954e-07
1.2542843e-08
5.9512328e-07
1.1021275e-08
5.927679e-07
9.542928e-09
5.9084282e-07
8.1036982e-09
5.892802e-07
6.6988419e-09
5.8802885e-07
5.3231034e-09
5.8705016e-07
3.9708419e-09
5.8631533e-07
2.6361462e-09
5.8580361e-07
1.3129351e-09
5.8550107e-07
-4.9537114e-12
5.8539982e-07
-1.3237273e-09
5.8549761e-07
-2.6494647e-09
5.8579773e-07
-3.9881336e-09
5.8630919e-07
-5.3454626e-09
5.870472e-07
-6.7268376e-09
5.8803401e-07
-8.1371818e-09
5.8930027e-07
-9.5808232e-09
5.9088709e-07
-1.1061358e-08
5.9284896e-07
-1.2581523e-08
5.9525843e-07
-1.4142828e-08
5.9821201e-07
-1.5744999e-08
6.0183594e-07
-1.7395714e-08
6.0631536e-07
-1.9166474e-08
6.1216168e-07
-2.1214263e-08
6.2103675e-07
-2.3125726e-08
6.3466574e-07
-2.231888e-08
6.4228378e-07
-1.5226601e-08
5.9792585e-07
-4.2220912e-09
4.3483854e-07
1.5233714e-07
2.8472221e-09
1.2076086e-07
1.3429587e-08
3.7724511e-07
2.3119109e-08
5.729858e-07
2.591069e-08
6.4960822e-07
2.4327507e-08
6.4969498e-07
2.2062968e-08
6.3257181e-07
2.0168728e-08
6.2034801e-07
1.8490375e-08
6.1286251e-07
1.6878407e-08
6.0744055e-07
1.5304467e-08
6.0309079e-07
1.3768787e-08
5.9953522e-07
1.2271144e-08
5.9662092e-07
1.0809922e-08
5.9422912e-07
9.3828447e-09
5.922699e-07
7.9870226e-09
5.9067602e-07
6.6189851e-09
5.8939689e-07
5.2747644e-09
5.8839438e-07
3.9500005e-09
5.8764009e-07
2.6400461e-09
5.8711356e-07
1.3400657e-09
5.8680105e-07
4.5130417e-11
5.8669476e-07
-1.2496861e-09
5.8679243e-07
-2.5492467e-09
5.8709729e-07
-3.8582335e-09
5.8761818e-07
-5.1810617e-09
5.8837003e-07
-6.5217749e-09
5.8937472e-07
-7.8839315e-09
5.9066243e-07
-9.2704934e-09
5.9227365e-07
-1.0683732e-08
5.942622e-07
-1.2125142e-08
5.9669984e-07
-1.3595134e-08
5.9968201e-07
-1.5093131e-08
6.0333394e-07
-1.6630362e-08
6.0785259e-07
-1.8283658e-08
6.1381497e-07
-2.017224e-08
6.2292534e-07
-2.1753563e-08
6.3624706e-07
-2.0495867e-08
6.4102608e-07
-1.3466542e-08
5.9089652e-07
-3.5028127e-09
4.2487481e-07
1.4883433e-07
2.5100078e-09
1.182744e-07
1.2034272e-08
3.6775648e-07
2.1373634e-08
5.6367295e-07
2.4559007e-08
6.4643138e-07
2.3363255e-08
6.5088966e-07
2.1261562e-08
6.3467184e-07
1.9455486e-08
6.2215367e-07
1.7868577e-08
6.1444943e-07
1.63494e-08
6.0895975e-07
1.4861141e-08
6.0457905e-07
1.3402166e-08
6.009942e-07
1.1972451e-08
5.9805064e-07
1.0570905e-08
5.9563067e-07
9.1959722e-09
5.9364483e-07
7.8456492e-09
5.9202634e-07
6.5174562e-09
5.9072508e-07
5.2084762e-09
5.8970336e-07
3.9154299e-09
5.8893314e-07
2.6347649e-09
5.8839423e-07
1.362747e-09
5.8807306e-07
9.5553073e-11
5.8796195e-07
-1.1706428e-09
5.8805863e-07
-2.4395772e-09
5.8836623e-07
-3.7148074e-09
5.8889341e-07
-4.9996156e-09
5.8965484e-07
-6.296912e-09
5.9067202e-07
-7.6091396e-09
5.9197466e-07
-8.938193e-09
5.936027e-07
-1.0285368e-08
5.9560938e-07
-1.1651326e-08
5.980658e-07
-1.3035864e-08
6.0106654e-07
-1.4438814e-08
6.0473689e-07
-1.5875423e-08
6.092892e-07
-1.7425092e-08
6.1536464e-07
-1.9164707e-08
6.2466495e-07
-2.0443829e-08
6.3752618e-07
-1.8826158e-08
6.3940841e-07
-1.1950321e-08
5.8402069e-07
-2.9478125e-09
4.158723e-07
1.4588652e-07
2.2513569e-09
1.1605282e-07
1.0838924e-08
3.5921249e-07
1.9783924e-08
5.547607e-07
2.3269892e-08
6.4295698e-07
2.2428874e-08
6.5173003e-07
2.048669e-08
6.3661203e-07
1.8759889e-08
6.2387987e-07
1.7252137e-08
6.1595717e-07
1.581579e-08
6.1039613e-07
1.4406144e-08
6.0598871e-07
1.3019092e-08
6.0238125e-07
1.1654429e-08
5.994153e-07
1.0311305e-08
5.9697379e-07
8.9886103e-09
5.9496752e-07
7.6849688e-09
5.9332998e-07
6.398661e-09
5.9201139e-07
5.1276167e-09
5.909744e-07
3.8694588e-09
5.901913e-07
2.6215711e-09
5.8964212e-07
1.3811763e-09
5.8931346e-07
1.454192e-10
5.8919771e-07
-1.0885478e-09
5.892926e-07
-2.3234819e-09
5.8960116e-07
-3.5619598e-09
5.9013189e-07
-4.8062939e-09
5.9089917e-07
-6.0584483e-09
5.9192417e-07
-7.3199647e-09
5.9323618e-07
-8.5919147e-09
5.9487466e-07
-9.8748944e-09
5.9689236e-07
-1.116903e-08
5.9935994e-07
-1.247387e-08
6.0237138e-07
-1.3790152e-08
6.0605317e-07
-1.5137147e-08
6.1063619e-07
-1.659384e-08
6.1682134e-07
-1.8192274e-08
6.2626339e-07
-1.919562e-08
6.3852953e-07
-1.7295343e-08
6.3750813e-07
-1.0637406e-08
5.7736275e-07
-2.5159493e-09
4.0775084e-07
1.4337057e-07
2.0458705e-09
1.1404402e-07
9.8028545e-09
3.5150885e-07
1.8327269e-08
5.4627649e-07
2.2035879e-08
6.3926367e-07
2.1518821e-08
6.522471e-07
1.9734587e-08
6.3839392e-07
1.8081975e-08
6.2553167e-07
1.6644025e-08
6.1739508e-07
1.5282225e-08
6.1175797e-07
1.3945047e-08
6.073259e-07
1.2625541e-08
6.0370076e-07
1.1323056e-08
6.0071778e-07
1.00368e-08
5.9826005e-07
8.7659175e-09
5.9623841e-07
7.5094688e-09
5.9458643e-07
6.2663129e-09
5.9325455e-07
5.0350584e-09
5.9220566e-07
3.8140762e-09
5.9141228e-07
2.6015439e-09
5.9085465e-07
1.395508e-09
5.905195e-07
1.9395567e-10
5.9039926e-07
-1.00511e-09
5.9049166e-07
-2.2035938e-09
5.9079965e-07
-3.4032289e-09
5.9133153e-07
-4.6055044e-09
5.9210145e-07
-5.8115981e-09
5.9313026e-07
-7.0223267e-09
5.944469e-07
-8.23813e-09
5.9609046e-07
-9.459106e-09
5.9811333e-07
-1.0685055e-08
6.0058589e-07
-1.1915525e-08
6.0360185e-07
-1.3152467e-08
6.0729012e-07
-1.4418805e-08
6.1190253e-07
-1.5790141e-08
6.1819267e-07
-1.725298e-08
6.2772623e-07
-1.8004879e-08
6.3928143e-07
-1.5887084e-08
6.3539034e-07
-9.4917476e-09
5.7096742e-07
-2.174648e-09
4.0043374e-07
1.4119592e-07
1.8759262e-09
1.1221346e-07
8.8936464e-09
3.4455642e-07
1.6983472e-08
5.3823582e-07
2.0849244e-08
6.3541776e-07
2.0627303e-08
6.5247001e-07
1.9000623e-08
6.4001794e-07
1.7420225e-08
6.2711099e-07
1.6045421e-08
6.1876979e-07
1.4751565e-08
6.1305187e-07
1.3481724e-08
6.0859575e-07
1.2225939e-08
6.0495654e-07
1.0982944e-08
6.0196078e-07
9.7518968e-09
5.994911e-07
8.5320761e-09
5.9745823e-07
7.3228461e-09
5.9579566e-07
6.1235082e-09
5.9445389e-07
4.9332165e-09
5.9339595e-07
3.7509614e-09
5.9259453e-07
2.5755918e-09
5.9203002e-07
1.4058603e-09
5.9168923e-07
2.4048043e-10
5.9156464e-07
-9.2180856e-10
5.9165395e-07
-2.0821752e-09
5.9196001e-07
-3.2416298e-09
5.9249098e-07
-4.4009643e-09
5.9326078e-07
-5.5607028e-09
5.9429e-07
-6.7210753e-09
5.9560728e-07
-7.8820311e-09
5.9725141e-07
-9.0433074e-09
5.9927461e-07
-1.020451e-08
6.0174709e-07
-1.1365334e-08
6.0476268e-07
-1.252909e-08
6.0845387e-07
-1.37217e-08
6.1309514e-07
-1.5012604e-08
6.1948358e-07
-1.6343616e-08
6.2905724e-07
-1.6866123e-08
6.3980393e-07
-1.4585166e-08
6.3310938e-07
-8.4823611e-09
5.6486461e-07
-1.8987279e-09
3.9385011e-07
1.3929719e-07
1.7296019e-09
1.1053847e-07
8.0857937e-09
3.3828006e-07
1.5735163e-08
5.3064634e-07
1.9702766e-08
6.3147552e-07
1.9748919e-08
6.5242614e-07
1.8280036e-08
6.4148385e-07
1.6772319e-08
6.2861733e-07
1.5456394e-08
6.2008554e-07
1.4225461e-08
6.1428285e-07
1.3018824e-08
6.0980241e-07
1.1823544e-08
6.0615182e-07
1.0637635e-08
6.0314669e-07
9.4601562e-09
6.0066858e-07
8.2904592e-09
5.9862792e-07
7.128128e-09
5.9695799e-07
5.9728108e-09
5.956092e-07
4.8241061e-09
5.9454466e-07
3.681521e-09
5.9373712e-07
2.5444734e-09
5.9316707e-07
1.4123199e-09
5.9282138e-07
2.8439978e-10
5.9269256e-07
-8.3991297e-10
5.9277826e-07
-1.961153e-09
5.9308125e-07
-3.079711e-09
5.9360954e-07
-4.1957869e-09
5.9437686e-07
-5.3093566e-09
5.9540357e-07
-6.4201668e-09
5.9671809e-07
-7.5277732e-09
5.9835902e-07
-8.6316357e-09
6.0037847e-07
-9.7312313e-09
6.0284669e-07
-1.0826476e-08
6.0585792e-07
-1.1922039e-08
6.0954944e-07
-1.3045987e-08
6.1421909e-07
-1.4259145e-08
6.2069673e-07
-1.5460707e-08
6.302588e-07
-1.5773683e-08
6.4011691e-07
-1.3374779e-08
6.3071048e-07
-7.5834739e-09
5.5907331e-07
-1.6692418e-09
3.8793588e-07
1.3762795e-07
1.5989984e-09
1.0900434e-07
7.3593549e-09
3.3261703e-07
1.4567737e-08
5.2351071e-07
1.8590133e-08
6.2748514e-07
1.887903e-08
6.5214127e-07
1.7568417e-08
6.4279125e-07
1.6135693e-08
6.3004834e-07
1.4876421e-08
6.2134455e-07
1.3704813e-08
6.1545451e-07
1.2558177e-08
6.1094907e-07
1.1420777e-08
6.0728923e-07
1.0289869e-08
6.042776e-07
9.1644054e-09
6.0179404e-07
8.0437938e-09
5.9974854e-07
6.9277947e-09
5.9807399e-07
5.8163415e-09
5.9672066e-07
4.7094047e-09
5.9565159e-07
3.6069295e-09
5.948396e-07
2.5088196e-09
5.9426518e-07
1.4149507e-09
5.9391525e-07
3.2520142e-10
5.9378231e-07
-7.6050626e-10
5.9386397e-07
-1.8421605e-09
5.9416291e-07
-2.919619e-09
5.94687e-07
-3.9925741e-09
5.9544981e-07
-5.0605348e-09
5.9647153e-07
-6.1228374e-09
5.9778039e-07
-7.1787042e-09
5.9941489e-07
-8.227357e-09
6.0142713e-07
-9.2681619e-09
6.0388749e-07
-1.0301265e-08
6.0689103e-07
-1.1332574e-08
6.1058075e-07
-1.2391331e-08
6.1527785e-07
-1.3527679e-08
6.2183308e-07
-1.4601229e-08
6.3133235e-07
-1.472258e-08
6.4023826e-07
-1.2243277e-08
6.2823117e-07
-6.7743034e-09
5.5360433e-07
-1.472394e-09
3.8263397e-07
1.3615556e-07
1.4789298e-09
1.0760149e-07
6.6987534e-09
3.2751542e-07
1.3469118e-08
5.1682844e-07
1.7506152e-08
6.2348808e-07
1.8013994e-08
6.5163971e-07
1.6862046e-08
6.4393982e-07
1.5507939e-08
6.3140034e-07
1.4304786e-08
6.2254731e-07
1.3190137e-08
6.1656919e-07
1.2101117e-08
6.1203812e-07
1.1019509e-08
6.0837084e-07
9.941822e-09
6.0535528e-07
8.8669308e-09
6.0286893e-07
7.7943137e-09
6.0082115e-07
6.7238969e-09
5.9914441e-07
5.6558661e-09
5.9778869e-07
4.5905163e-09
5.9671694e-07
3.5281727e-09
5.9590194e-07
2.4691598e-09
5.9532419e-07
1.4138031e-09
5.9497061e-07
3.6244863e-10
5.9483367e-07
-6.8450677e-10
5.9491093e-07
-1.7265776e-09
5.9520498e-07
-2.7631595e-09
5.9572358e-07
-3.7935043e-09
5.9648016e-07
-4.8167132e-09
5.9749474e-07
-5.8317607e-09
5.9879544e-07
-6.8375663e-09
6.0042069e-07
-7.8331203e-09
6.0242268e-07
-8.8176588e-09
6.0487203e-07
-9.7915174e-09
6.0786488e-07
-1.0761635e-08
6.1155086e-07
-1.1757394e-08
6.1627361e-07
-1.2816632e-08
6.2289232e-07
-1.3763116e-08
6.3227884e-07
-1.3709105e-08
6.4018425e-07
-1.118057e-08
6.2570264e-07
-6.0386002e-09
5.4846236e-07
-1.2984559e-09
3.7789382e-07
1.348571e-07
1.365947e-09
1.0632376e-07
6.0917884e-09
3.2293241e-07
1.242949e-08
5.1059709e-07
1.6446862e-08
6.1952016e-07
1.7151314e-08
6.5094438e-07
1.6158124e-08
6.4492957e-07
1.4887115e-08
6.3266883e-07
1.3740891e-08
6.23693e-07
1.2681866e-08
6.1762824e-07
1.1648755e-08
6.1307126e-07
1.0621296e-08
6.093983e-07
9.5953128e-09
6.0638127e-07
8.56965e-09
6.0389459e-07
7.5438999e-09
6.018469e-07
6.5181684e-09
6.0017014e-07
5.4928837e-09
5.9881397e-07
4.4686376e-09
5.9774119e-07
3.446095e-09
5.9692448e-07
2.4259523e-09
5.9634433e-07
1.4089292e-09
5.9598763e-07
3.9578e-10
5.9584682e-07
-6.1268388e-10
5.9591939e-07
-1.6155635e-09
5.9620786e-07
-2.6118499e-09
5.9671987e-07
-3.6004059e-09
5.9746871e-07
-4.5799678e-09
5.9847431e-07
-5.5491773e-09
5.9976465e-07
-6.5066604e-09
6.0137818e-07
-7.4511588e-09
6.0336718e-07
-8.3817356e-09
6.0580261e-07
-9.298841e-09
6.0878199e-07
-1.0210164e-08
6.1246219e-07
-1.1144195e-08
6.1720764e-07
-1.212529e-08
6.2387342e-07
-1.29456e-08
6.3309915e-07
-1.2731201e-08
6.3996985e-07
-1.017929e-08
6.2315073e-07
-5.3641774e-09
5.4364725e-07
-1.1405658e-09
3.7367021e-07
1.3371653e-07
1.2576579e-09
1.0516711e-07
5.5288839e-09
3.188326e-07
1.1441087e-08
5.0481278e-07
1.5409636e-08
6.1561227e-07
1.6289779e-08
6.5007688e-07
1.5454972e-08
6.4576103e-07
1.4271991e-08
6.3384885e-07
1.3184512e-08
6.2477975e-07
1.2180583e-08
6.1863217e-07
1.1202199e-08
6.1404969e-07
1.0227584e-08
6.1037293e-07
9.2519746e-09
6.0735688e-07