/*--------------------------------*- C++ -*----------------------------------*\
  =========                 |
  \\      /  F ield         | OpenFOAM: The Open Source CFD Toolbox
   \\    /   O peration     | Website:  https://openfoam.org
    \\  /    A nd           | Version:  10
     \\/     M anipulation  |
\*---------------------------------------------------------------------------*/
FoamFile
{
    format      ascii;
    class       volScalarField;
    location    "0.1";
    object      T;
}
// * * * * * * * * * * * * * * * * * * * * * * * * * * * * * * * * * * * * * //

dimensions      [0 0 0 1 0 0 0];

internalField   nonuniform List<scalar> 
4000
(
303.1012
299.34303
299.99042
300.00082
299.99993
300
300
300
300
300
300
300
300
300
300
300
300
300
300
300
300
300
300
300
300
300
300
300
300
300
300
300
300
300
300
300
300
300
300
300
309.66257
298.49329
299.77934
300.00184
300.0008
299.99999
300
300
300
300
300
300
300
300
300
300
300
300
300
300
300
300
300
300
300
300
300
300
300
300
300
300
300
300
300
300
300
300
300
300
316.00201
298.68467
299.39264
299.97573
300.00405
300.00025
299.99999
300
300
300
300
300
300
300
300
300
300
300
300
300
300
300
300
300
300
300
300
300
300
300
300
300
300
300
300
300
300
300
300
300
321.73801
299.84502
298.98563
299.8951
300.00715
300.00138
300
299.99999
300
300
300
300
300
300
300
300
300
300
300
300
300
300
300
300
300
300
300
300
300
300
300
300
300
300
300
300
300
300
300
300
326.66417
301.69756
298.71108
299.75366
300.00323
300.00378
300.00017
299.99998
300
300
300
300
300
300
300
300
300
300
300
300
300
300
300
300
300
300
300
300
300
300
300
300
300
300
300
300
300
300
300
300
330.67498
303.94186
298.66414
299.56936
299.98437
300.00693
300.00071
299.99997
299.99999
300
300
300
300
300
300
300
300
300
300
300
300
300
300
300
300
300
300
300
300
300
300
300
300
300
300
300
300
300
300
300
333.76084
306.32007
298.87081
299.37542
299.94549
300.00934
300.00179
300
299.99998
300
300
300
300
300
300
300
300
300
300
300
300
300
300
300
300
300
300
300
300
300
300
300
300
300
300
300
300
300
300
300
336.00464
308.64763
299.30573
299.20622
299.88651
300.00887
300.00342
300.00014
299.99997
300
300
300
300
300
300
300
300
300
300
300
300
300
300
300
300
300
300
300
300
300
300
300
300
300
300
300
300
300
300
300
337.55297
310.81368
299.91893
299.08753
299.81183
300.00356
300.00536
300.00046
299.99996
299.99999
300
300
300
300
300
300
300
300
300
300
300
300
300
300
300
300
300
300
300
300
300
300
300
300
300
300
300
300
300
300
338.57703
312.76541
300.65567
299.03362
299.72849
299.99212
300.00717
300.00098
299.99996
299.99998
300
300
300
300
300
300
300
300
300
300
300
300
300
300
300
300
300
300
300
300
300
300
300
300
300
300
300
300
300
300
339.23927
314.48982
301.4671
299.04869
299.64418
299.97418
300.0083
300.00172
300.00001
299.99997
300
300
300
300
300
300
300
300
300
300
300
300
300
300
300
300
300
300
300
300
300
300
300
300
300
300
300
300
300
300
339.67267
315.998
302.31465
299.12987
299.56589
299.95022
300.00825
300.00262
300.00012
299.99996
300
300
300
300
300
300
300
300
300
300
300
300
300
300
300
300
300
300
300
300
300
300
300
300
300
300
300
300
300
300
339.97345
317.31311
303.17044
299.27021
299.49912
299.92135
300.00657
300.00359
300.00029
299.99996
299.99999
300
300
300
300
300
300
300
300
300
300
300
300
300
300
300
300
300
300
300
300
300
300
300
300
300
300
300
300
300
340.20391
318.46229
304.01577
299.46109
299.44772
299.88906
300.003
300.00449
300.00054
299.99996
299.99999
300
300
300
300
300
300
300
300
300
300
300
300
300
300
300
300
300
300
300
300
300
300
300
300
300
300
300
300
300
340.4001
319.47194
304.83895
299.69368
299.41403
299.85497
299.99743
300.00519
300.00086
299.99998
299.99998
300
300
300
300
300
300
300
300
300
300
300
300
300
300
300
300
300
300
300
300
300
300
300
300
300
300
300
300
300
340.58029
320.36535
305.63322
299.95974
299.39915
299.82065
299.9899
300.00556
300.00124
300.00003
299.99998
300
300
300
300
300
300
300
300
300
300
300
300
300
300
300
300
300
300
300
300
300
300
300
300
300
300
300
300
300
340.75186
321.16187
306.395
300.252
299.40326
299.78757
299.98057
300.00549
300.00164
300.00009
299.99997
300
300
300
300
300
300
300
300
300
300
300
300
300
300
300
300
300
300
300
300
300
300
300
300
300
300
300
300
300
340.9163
321.8769
307.12271
300.56417
299.4259
299.75698
299.9697
300.00488
300.00205
300.00018
299.99997
299.99999
300
300
300
300
300
300
300
300
300
300
300
300
300
300
300
300
300
300
300
300
300
300
300
300
300
300
300
300
341.07238
322.52222
307.81583
300.8909
299.46615
299.72994
299.95762
300.00369
300.00241
300.00029
299.99998
299.99999
300
300
300
300
300
300
300
300
300
300
300
300
300
300
300
300
300
300
300
300
300
300
300
300
300
300
300
300
341.21804
323.10657
308.47435
301.2276
299.52281
299.70728
299.94469
300.00187
300.00271
300.00042
299.99999
299.99999
300
300
300
300
300
300
300
300
300
300
300
300
300
300
300
300
300
300
300
300
300
300
300
300
300
300
300
300
341.35137
323.63623
309.09844
301.57032
299.59449
299.68965
299.9313
299.99944
300.0029
300.00056
300.00001
299.99999
300
300
300
300
300
300
300
300
300
300
300
300
300
300
300
300
300
300
300
300
300
300
300
300
300
300
300
300
341.47089
324.11555
309.68816
301.91562
299.67969
299.6775
299.91782
299.99643
300.00297
300.00071
300.00003
299.99999
300
300
300
300
300
300
300
300
300
300
300
300
300
300
300
300
300
300
300
300
300
300
300
300
300
300
300
300
341.5755
324.54731
310.24339
302.2604
299.77685
299.67112
299.90464
299.99288
300.00287
300.00086
300.00006
299.99999
300
300
300
300
300
300
300
300
300
300
300
300
300
300
300
300
300
300
300
300
300
300
300
300
300
300
300
300
341.66433
324.93312
310.76377
302.60187
299.88436
299.67065
299.89209
299.98887
300.00261
300.001
300.0001
299.99999
300
300
300
300
300
300
300
300
300
300
300
300
300
300
300
300
300
300
300
300
300
300
300
300
300
300
300
300
341.7367
325.27361
311.24859
302.93739
300.00058
299.67609
299.88051
299.98449
300.00216
300.00112
300.00014
299.99999
300
300
300
300
300
300
300
300
300
300
300
300
300
300
300
300
300
300
300
300
300
300
300
300
300
300
300
300
341.79208
325.56868
311.69686
303.26448
300.12386
299.68734
299.87017
299.97984
300.00152
300.00122
300.00019
300
300
300
300
300
300
300
300
300
300
300
300
300
300
300
300
300
300
300
300
300
300
300
300
300
300
300
300
300
341.83031
325.81768
312.10724
303.58072
300.25255
299.70416
299.86132
299.97504
300.00069
300.00127
300.00024
300.00001
299.99999
300
300
300
300
300
300
300
300
300
300
300
300
300
300
300
300
300
300
300
300
300
300
300
300
300
300
300
341.85166
326.01975
312.47814
303.88376
300.38499
299.72624
299.85416
299.97019
299.9997
300.00129
300.00029
300.00001
300
300
300
300
300
300
300
300
300
300
300
300
300
300
300
300
300
300
300
300
300
300
300
300
300
300
300
300
341.85695
326.17411
312.80781
304.17128
300.5195
299.75317
299.84884
299.96542
299.99855
300.00126
300.00034
300.00003
300
300
300
300
300
300
300
300
300
300
300
300
300
300
300
300
300
300
300
300
300
300
300
300
300
300
300
300
341.84764
326.28057
313.09448
304.441
300.65444
299.78447
299.84546
299.96082
299.99726
300.00117
300.00038
300.00004
300
300
300
300
300
300
300
300
300
300
300
300
300
300
300
300
300
300
300
300
300
300
300
300
300
300
300
300
341.82581
326.33999
313.33663
304.69077
300.78819
299.81958
299.84408
299.95651
299.99587
300.00103
300.00041
300.00005
300
300
300
300
300
300
300
300
300
300
300
300
300
300
300
300
300
300
300
300
300
300
300
300
300
300
300
300
341.79412
326.35474
313.53331
304.91867
300.91917
299.85792
299.84471
299.95258
299.99441
300.00084
300.00044
300.00007
300
300
300
300
300
300
300
300
300
300
300
300
300
300
300
300
300
300
300
300
300
300
300
300
300
300
300
300
341.7557
326.32911
313.6845
305.12307
301.04592
299.89884
299.8473
299.9491
299.9929
300.0006
300.00045
300.00008
300
300
300
300
300
300
300
300
300
300
300
300
300
300
300
300
300
300
300
300
300
300
300
300
300
300
300
300
341.71389
326.26957
313.79144
305.30285
301.1671
299.94169
299.85177
299.94615
299.99138
300.00031
300.00045
300.00009
300.00001
300
300
300
300
300
300
300
300
300
300
300
300
300
300
300
300
300
300
300
300
300
300
300
300
300
300
300
341.67196
326.18461
313.85692
305.45753
301.28158
299.98582
299.85799
299.94376
299.98989
299.99998
300.00044
300.0001
300.00001
300
300
300
300
300
300
300
300
300
300
300
300
300
300
300
300
300
300
300
300
300
300
300
300
300
300
300
341.63275
326.08429
313.88539
305.58737
301.38849
300.03058
299.86577
299.94195
299.98844
299.99961
300.00042
300.00012
300.00001
300
300
300
300
300
300
300
300
300
300
300
300
300
300
300
300
300
300
300
300
300
300
300
300
300
300
300
341.59829
325.97916
313.88287
305.69344
301.48721
300.07539
299.87494
299.94073
299.98706
299.99922
300.00038
300.00012
300.00002
300
300
300
300
300
300
300
300
300
300
300
300
300
300
300
300
300
300
300
300
300
300
300
300
300
300
300
341.56964
325.87886
313.85667
305.77757
301.57747
300.11972
299.88527
299.94009
299.98578
299.99881
300.00033
300.00013
300.00002
300
300
300
300
300
300
300
300
300
300
300
300
300
300
300
300
300
300
300
300
300
300
300
300
300
300
300
341.54682
325.79072
313.81476
305.84234
301.65925
300.16317
299.89661
299.94003
299.98462
299.99839
300.00027
300.00013
300.00002
300
300
300
300
300
300
300
300
300
300
300
300
300
300
300
300
300
300
300
300
300
300
300
300
300
300
300
341.52894
325.71872
313.76508
305.8909
301.73285
300.20541
299.90881
299.94055
299.9836
299.99796
300.00019
300.00013
300.00003
300
300
300
300
300
300
300
300
300
300
300
300
300
300
300
300
300
300
300
300
300
300
300
300
300
300
300
341.51457
325.66307
313.71466
305.92684
301.79885
300.24624
299.92172
299.94165
299.98274
299.99754
300.00011
300.00013
300.00003
300
300
300
300
300
300
300
300
300
300
300
300
300
300
300
300
300
300
300
300
300
300
300
300
300
300
300
341.50203
325.62074
313.66869
305.95387
301.85806
300.28549
299.93519
299.94329
299.98205
299.99714
300.00001
300.00012
300.00003
300
300
300
300
300
300
300
300
300
300
300
300
300
300
300
300
300
300
300
300
300
300
300
300
300
300
300
341.48984
325.58659
313.62983
305.97549
301.91152
300.32304
299.94898
299.94537
299.98151
299.99675
299.99991
300.00011
300.00003
300
300
300
300
300
300
300
300
300
300
300
300
300
300
300
300
300
300
300
300
300
300
300
300
300
300
300
341.47693
325.55478
313.59781
305.99441
301.96038
300.35877
299.96272
299.94768
299.98107
299.99637
299.99981
300.0001
300.00003
300
300
300
300
300
300
300
300
300
300
300
300
300
300
300
300
300
300
300
300
300
300
300
300
300
300
300
341.46277
325.52021
313.56961
306.01205
302.00569
300.39264
299.97604
299.94998
299.98062
299.99598
299.9997
300.00009
300.00004
300.00001
300
300
300
300
300
300
300
300
300
300
300
300
300
300
300
300
300
300
300
300
300
300
300
300
300
300
341.44735
325.47946
313.54023
306.02804
302.04816
300.42469
299.98859
299.95198
299.98008
299.99557
299.99959
300.00008
300.00004
300.00001
300
300
300
300
300
300
300
300
300
300
300
300
300
300
300
300
300
300
300
300
300
300
300
300
300
300
341.43109
325.43126
313.50398
306.04015
302.08779
300.45506
300.00026
299.95355
299.97937
299.99511
299.99948
300.00007
300.00004
300.00001
300
300
300
300
300
300
300
300
300
300
300
300
300
300
300
300
300
300
300
300
300
300
300
300
300
300
341.41462
325.37636
313.45598
306.0447
302.12373
300.48391
300.01125
299.95476
299.97848
299.9946
299.99936
300.00007
300.00005
300.00001
300
300
300
300
300
300
300
300
300
300
300
300
300
300
300
300
300
300
300
300
300
300
300
300
300
300
341.39865
325.31706
313.39353
306.0375
302.15425
300.51132
300.02209
299.95595
299.97756
299.99407
299.99924
300.00006
300.00005
300.00001
300
300
300
300
300
300
300
300
300
300
300
300
300
300
300
300
300
300
300
300
300
300
300
300
300
300
341.38384
325.25648
313.31687
306.01503
302.1771
300.53714
300.03349
299.95771
299.97684
299.99357
299.99912
300.00006
300.00006
300.00001
300
300
300
300
300
300
300
300
300
300
300
300
300
300
300
300
300
300
300
300
300
300
300
300
300
300
341.37069
325.19792
313.22917
305.97569
302.19009
300.56091
300.04608
299.9607
299.97666
299.9932
299.999
300.00005
300.00006
300.00002
300
300
300
300
300
300
300
300
300
300
300
300
300
300
300
300
300
300
300
300
300
300
300
300
300
300
341.35949
325.14425
313.13573
305.9204
302.19177
300.58187
300.06018
299.96547
299.97732
299.99306
299.99891
300.00003
300.00006
300.00002
300
300
300
300
300
300
300
300
300
300
300
300
300
300
300
300
300
300
300
300
300
300
300
300
300
300
341.35035
325.09752
313.04278
305.85264
302.18201
300.59922
300.07557
299.97219
299.97901
299.99322
299.99886
300.00001
300.00006
300.00002
300
300
300
300
300
300
300
300
300
300
300
300
300
300
300
300
300
300
300
300
300
300
300
300
300
300
341.34319
325.05882
312.95612
305.77767
302.16209
300.61226
300.09153
299.98062
299.98173
299.99371
299.99887
299.99999
300.00006
300.00002
300
300
300
300
300
300
300
300
300
300
300
300
300
300
300
300
300
300
300
300
300
300
300
300
300
300
341.33783
325.02833
312.88017
305.70143
302.13454
300.6207
300.10706
299.9901
299.98524
299.99451
299.99894
299.99997
300.00004
300.00001
300
300
300
300
300
300
300
300
300
300
300
300
300
300
300
300
300
300
300
300
300
300
300
300
300
300
341.33399
325.00544
312.81738
305.62939
302.10254
300.62468
300.12109
299.99976
299.98916
299.99551
299.99906
299.99995
300.00003
300.00001
300
300
300
300
300
300
300
300
300
300
300
300
300
300
300
300
300
300
300
300
300
300
300
300
300
300
341.33137
324.98906
312.76829
305.56562
302.06932
300.62478
300.13279
300.00876
299.99309
299.9966
299.99921
299.99994
300.00002
300.00001
300
300
300
300
300
300
300
300
300
300
300
300
300
300
300
300
300
300
300
300
300
300
300
300
300
300
341.32966
324.9779
312.73188
305.51245
302.03761
300.62188
300.14173
300.01646
299.99666
299.99765
299.99939
299.99993
300.00001
300.00001
300
300
300
300
300
300
300
300
300
300
300
300
300
300
300
300
300
300
300
300
300
300
300
300
300
300
341.32862
324.97061
312.70612
305.47045
302.00934
300.61702
300.14789
300.02252
299.99963
299.99857
299.99956
299.99994
300
300
300
300
300
300
300
300
300
300
300
300
300
300
300
300
300
300
300
300
300
300
300
300
300
300
300
300
341.32801
324.96602
312.68861
305.43884
301.98555
300.61117
300.15162
300.02693
300.00193
299.99932
299.99971
299.99995
300
300
300
300
300
300
300
300
300
300
300
300
300
300
300
300
300
300
300
300
300
300
300
300
300
300
300
300
341.32768
324.9632
312.67702
305.41598
301.96648
300.60515
300.15346
300.02988
300.00357
299.99989
299.99983
299.99996
300
300
300
300
300
300
300
300
300
300
300
300
300
300
300
300
300
300
300
300
300
300
300
300
300
300
300
300
341.32752
324.96144
312.66937
305.39989
301.95179
300.59955
300.154
300.03168
300.00467
300.00029
299.99993
299.99997
300
300
300
300
300
300
300
300
300
300
300
300
300
300
300
300
300
300
300
300
300
300
300
300
300
300
300
300
341.32743
324.96029
312.66416
305.38867
301.94078
300.59469
300.15377
300.03268
300.00537
300.00056
300
299.99998
300
300
300
300
300
300
300
300
300
300
300
300
300
300
300
300
300
300
300
300
300
300
300
300
300
300
300
300
341.32739
324.95944
312.66038
305.38073
301.93266
300.59069
300.15318
300.03317
300.00578
300.00074
300.00004
299.99999
300
300
300
300
300
300
300
300
300
300
300
300
300
300
300
300
300
300
300
300
300
300
300
300
300
300
300
300
341.32736
324.95876
312.65742
305.37488
301.92666
300.58751
300.15248
300.03337
300.00601
300.00084
300.00008
300
300
300
300
300
300
300
300
300
300
300
300
300
300
300
300
300
300
300
300
300
300
300
300
300
300
300
300
300
341.32733
324.95816
312.65493
305.37032
301.92212
300.58504
300.15183
300.03343
300.00615
300.00091
300.0001
300.00001
300
300
300
300
300
300
300
300
300
300
300
300
300
300
300
300
300
300
300
300
300
300
300
300
300
300
300
300
341.32731
324.95762
312.65276
305.36659
301.91859
300.58312
300.15129
300.03343
300.00622
300.00095
300.00011
300.00001
300
300
300
300
300
300
300
300
300
300
300
300
300
300
300
300
300
300
300
300
300
300
300
300
300
300
300
300
341.32728
324.95713
312.65083
305.36341
301.91574
300.58162
300.15086
300.03342
300.00628
300.00098
300.00012
300.00001
300
300
300
300
300
300
300
300
300
300
300
300
300
300
300
300
300
300
300
300
300
300
300
300
300
300
300
300
341.32726
324.95669
312.64913
305.36066
301.91336
300.58041
300.15052
300.03341
300.00632
300.001
300.00013
300.00001
300
300
300
300
300
300
300
300
300
300
300
300
300
300
300
300
300
300
300
300
300
300
300
300
300
300
300
300
341.32724
324.9563
312.64764
305.35826
301.91134
300.57942
300.15026
300.03341
300.00635
300.00102
300.00014
300.00001
300
300
300
300
300
300
300
300
300
300
300
300
300
300
300
300
300
300
300
300
300
300
300
300
300
300
300
300
341.32723
324.95597
312.64635
305.35618
301.90961
300.57859
300.15005
300.03341
300.00638
300.00104
300.00014
300.00002
300
300
300
300
300
300
300
300
300
300
300
300
300
300
300
300
300
300
300
300
300
300
300
300
300
300
300
300
341.32723
324.9557
312.64524
305.35439
301.90812
300.57789
300.14987
300.03342
300.0064
300.00105
300.00015
300.00002
300
300
300
300
300
300
300
300
300
300
300
300
300
300
300
300
300
300
300
300
300
300
300
300
300
300
300
300
341.32723
324.95548
312.6443
305.35285
301.90685
300.57729
300.14973
300.03342
300.00643
300.00106
300.00015
300.00002
300
300
300
300
300
300
300
300
300
300
300
300
300
300
300
300
300
300
300
300
300
300
300
300
300
300
300
300
341.32725
324.9553
312.6435
305.35154
301.90576
300.57678
300.1496
300.03343
300.00645
300.00107
300.00015
300.00002
300
300
300
300
300
300
300
300
300
300
300
300
300
300
300
300
300
300
300
300
300
300
300
300
300
300
300
300
341.32728
324.95518
312.64283
305.35042
301.90482
300.57634
300.14949
300.03343
300.00646
300.00108
300.00015
300.00002
300
300
300
300
300
300
300
300
300
300
300
300
300
300
300
300
300
300
300
300
300
300
300
300
300
300
300
300
341.32732
324.95511
312.64228
305.34947
301.90403
300.57596
300.1494
300.03344
300.00647
300.00108
300.00016
300.00002
300
300
300
300
300
300
300
300
300
300
300
300
300
300
300
300
300
300
300
300
300
300
300
300
300
300
300
300
341.32737
324.95508
312.64183
305.34867
301.90335
300.57564
300.14932
300.03344
300.00649
300.00109
300.00016
300.00002
300
300
300
300
300
300
300
300
300
300
300
300
300
300
300
300
300
300
300
300
300
300
300
300
300
300
300
300
341.32744
324.9551
312.64148
305.348
301.90277
300.57536
300.14925
300.03344
300.0065
300.00109
300.00016
300.00002
300
300
300
300
300
300
300
300
300
300
300
300
300
300
300
300
300
300
300
300
300
300
300
300
300
300
300
300
341.32752
324.95516
312.64121
305.34744
301.90228
300.57513
300.1492
300.03344
300.0065
300.0011
300.00016
300.00002
300
300
300
300
300
300
300
300
300
300
300
300
300
300
300
300
300
300
300
300
300
300
300
300
300
300
300
300
341.32761
324.95527
312.64104
305.34698
301.90187
300.57493
300.14915
300.03344
300.00651
300.0011
300.00016
300.00002
300
300
300
300
300
300
300
300
300
300
300
300
300
300
300
300
300
300
300
300
300
300
300
300
300
300
300
300
341.32772
324.95543
312.64094
305.34662
301.90153
300.57476
300.1491
300.03344
300.00652
300.0011
300.00016
300.00002
300
300
300
300
300
300
300
300
300
300
300
300
300
300
300
300
300
300
300
300
300
300
300
300
300
300
300
300
341.32785
324.95563
312.64092
305.34634
301.90124
300.57462
300.14907
300.03344
300.00652
300.00111
300.00016
300.00002
300
300
300
300
300
300
300
300
300
300
300
300
300
300
300
300
300
300
300
300
300
300
300
300
300
300
300
300
341.328
324.95589
312.64097
305.34614
301.90101
300.5745
300.14904
300.03345
300.00653
300.00111
300.00016
300.00002
300
300
300
300
300
300
300
300
300
300
300
300
300
300
300
300
300
300
300
300
300
300
300
300
300
300
300
300
341.32817
324.9562
312.6411
305.34601
301.90084
300.57441
300.14902
300.03345
300.00653
300.00111
300.00016
300.00002
300
300
300
300
300
300
300
300
300
300
300
300
300
300
300
300
300
300
300
300
300
300
300
300
300
300
300
300
341.32836
324.95657
312.6413
305.34596
301.9007
300.57433
300.149
300.03345
300.00653
300.00111
300.00017
300.00002
300
300
300
300
300
300
300
300
300
300
300
300
300
300
300
300
300
300
300
300
300
300
300
300
300
300
300
300
341.32858
324.957
312.64159
305.34597
301.90061
300.57427
300.14898
300.03345
300.00654
300.00111
300.00017
300.00002
300
300
300
300
300
300
300
300
300
300
300
300
300
300
300
300
300
300
300
300
300
300
300
300
300
300
300
300
341.32882
324.9575
312.64195
305.34606
301.90057
300.57423
300.14897
300.03345
300.00654
300.00112
300.00017
300.00002
300
300
300
300
300
300
300
300
300
300
300
300
300
300
300
300
300
300
300
300
300
300
300
300
300
300
300
300
341.3291
324.95807
312.64239
305.34621
301.90056
300.57421
300.14896
300.03345
300.00654
300.00112
300.00017
300.00002
300
300
300
300
300
300
300
300
300
300
300
300
300
300
300
300
300
300
300
300
300
300
300
300
300
300
300
300
341.3294
324.95872
312.64293
305.34643
301.90059
300.5742
300.14896
300.03345
300.00654
300.00112
300.00017
300.00002
300
300
300
300
300
300
300
300
300
300
300
300
300
300
300
300
300
300
300
300
300
300
300
300
300
300
300
300
341.32975
324.95946
312.64355
305.34672
301.90066
300.5742
300.14896
300.03346
300.00654
300.00112
300.00017
300.00002
300
300
300
300
300
300
300
300
300
300
300
300
300
300
300
300
300
300
300
300
300
300
300
300
300
300
300
300
341.33015
324.9603
312.64428
305.34709
301.90077
300.57422
300.14896
300.03346
300.00655
300.00112
300.00017
300.00002
300
300
300
300
300
300
300
300
300
300
300
300
300
300
300
300
300
300
300
300
300
300
300
300
300
300
300
300
341.33059
324.96124
312.64513
305.34753
301.90092
300.57425
300.14897
300.03346
300.00655
300.00112
300.00017
300.00002
300
300
300
300
300
300
300
300
300
300
300
300
300
300
300
300
300
300
300
300
300
300
300
300
300
300
300
300
341.3311
324.96232
312.6461
305.34806
301.90111
300.5743
300.14898
300.03346
300.00655
300.00112
300.00017
300.00002
300
300
300
300
300
300
300
300
300
300
300
300
300
300
300
300
300
300
300
300
300
300
300
300
300
300
300
300
341.33168
324.96354
312.6472
305.34868
301.90134
300.57436
300.14899
300.03347
300.00655
300.00112
300.00017
300.00002
300
300
300
300
300
300
300
300
300
300
300
300
300
300
300
300
300
300
300
300
300
300
300
300
300
300
300
300
341.33234
324.96493
312.64847
305.3494
301.90162
300.57444
300.14901
300.03347
300.00655
300.00112
300.00017
300.00002
300
300
300
300
300
300
300
300
300
300
300
300
300
300
300
300
300
300
300
300
300
300
300
300
300
300
300
300
341.33313
324.96654
312.64993
305.35023
301.90195
300.57454
300.14903
300.03347
300.00655
300.00112
300.00017
300.00002
300
300
300
300
300
300
300
300
300
300
300
300
300
300
300
300
300
300
300
300
300
300
300
300
300
300
300
300
341.33406
324.96839
312.65159
305.35119
301.90233
300.57465
300.14906
300.03348
300.00655
300.00112
300.00017
300.00002
300
300
300
300
300
300
300
300
300
300
300
300
300
300
300
300
300
300
300
300
300
300
300
300
300
300
300
300
341.33527
324.97068
312.6536
305.35233
301.90279
300.57479
300.14909
300.03348
300.00655
300.00112
300.00017
300.00002
300
300
300
300
300
300
300
300
300
300
300
300
300
300
300
300
300
300
300
300
300
300
300
300
300
300
300
300
341.33672
324.97301
312.65554
305.35342
301.90323
300.57492
300.14912
300.03349
300.00655
300.00112
300.00017
300.00002
300
300
300
300
300
300
300
300
300
300
300
300
300
300
300
300
300
300
300
300
300
300
300
300
300
300
300
300
341.34018
324.97886
312.65999
305.35582
301.90418
300.5752
300.14918
300.0335
300.00655
300.00112
300.00017
300.00002
300
300
300
300
300
300
300
300
300
300
300
300
300
300
300
300
300
300
300
300
300
300
300
300
300
300
300
300
)
;

boundaryField
{
    wall
    {
        type            fixedValue;
        value           uniform 350;
    }
    sides
    {
        type            zeroGradient;
    }
    frontAndBack
    {
        type            empty;
    }
    inlet
    {
        type            fixedValue;
        value           uniform 300;
    }
    outlet
    {
        type            zeroGradient;
    }
}


// ************************************************************************* //
