/*--------------------------------*- C++ -*----------------------------------*\
  =========                 |
  \\      /  F ield         | OpenFOAM: The Open Source CFD Toolbox
   \\    /   O peration     | Website:  https://openfoam.org
    \\  /    A nd           | Version:  10
     \\/     M anipulation  |
\*---------------------------------------------------------------------------*/
FoamFile
{
    format      ascii;
    class       volVectorField;
    location    "0.1";
    object      U;
}
// * * * * * * * * * * * * * * * * * * * * * * * * * * * * * * * * * * * * * //

dimensions      [0 1 -1 0 0 0 0];

internalField   nonuniform List<vector> 
4000
(
(0 0.018633983 0.47773331)
(0 0.023503487 0.50885966)
(0 0.0081608495 0.50052545)
(0 0.0056086125 0.50033653)
(0 0.0042481883 0.50025751)
(0 0.0032483507 0.50016898)
(0 0.002549552 0.50011966)
(0 0.0020482314 0.50009008)
(0 0.0016705326 0.50006973)
(0 0.0013766018 0.5000553)
(0 0.0011420545 0.50004488)
(0 0.00095054183 0.5000372)
(0 0.00079080022 0.50003145)
(0 0.00065484524 0.50002711)
(0 0.00053684014 0.50002382)
(0 0.00043239618 0.50002133)
(0 0.00033811805 0.50001948)
(0 0.00025129608 0.50001814)
(0 0.00016968982 0.50001725)
(0 9.1369496e-05 0.50001674)
(0 1.4594282e-05 0.50001659)
(0 -6.229617e-05 0.50001679)
(0 -0.00014097265 0.50001735)
(0 -0.00022320787 0.50001831)
(0 -0.00031098871 0.50001972)
(0 -0.00040664603 0.50002167)
(0 -0.00051302686 0.5000243)
(0 -0.00063373378 0.50002777)
(0 -0.00077347314 0.50003238)
(0 -0.00093858494 0.50003851)
(0 -0.0011378948 0.50004679)
(0 -0.0013840795 0.50005817)
(0 -0.0016959082 0.5000741)
(0 -0.0021037542 0.50009709)
(0 -0.0026635669 0.50013486)
(0 -0.0034575773 0.50020249)
(0 -0.0045506939 0.50027175)
(0 -0.0065753145 0.50043406)
(0 -0.017649549 0.50675268)
(0 -0.013585049 0.47975843)
(0 0.037423121 0.44798105)
(0 0.050936074 0.532325)
(0 0.021949527 0.50804327)
(0 0.016116608 0.50357446)
(0 0.012395683 0.50242361)
(0 0.0094952277 0.50162303)
(0 0.0075001196 0.50115636)
(0 0.0060499911 0.50086541)
(0 0.0049456301 0.50066726)
(0 0.0040824662 0.50052806)
(0 0.0033915119 0.50042791)
(0 0.002825789 0.50035425)
(0 0.0023528953 0.50029921)
(0 0.00194972 0.50025769)
(0 0.0015992773 0.50022623)
(0 0.0012887472 0.50020248)
(0 0.0010081806 0.5001848)
(0 0.00074961598 0.50017207)
(0 0.00050645571 0.50016352)
(0 0.00027300659 0.50015866)
(0 4.4124932e-05 0.50015722)
(0 -0.0001850933 0.50015913)
(0 -0.00041958293 0.5001645)
(0 -0.00066457987 0.50017365)
(0 -0.00092594259 0.50018712)
(0 -0.0012105301 0.50020576)
(0 -0.0015266984 0.5002308)
(0 -0.0018849888 0.50026404)
(0 -0.0022991208 0.50030812)
(0 -0.0027874771 0.50036692)
(0 -0.0033754814 0.50044639)
(0 -0.0040995658 0.50055601)
(0 -0.0050128795 0.50071089)
(0 -0.0061953689 0.50093662)
(0 -0.0077959784 0.50129483)
(0 -0.010090771 0.50191163)
(0 -0.013074631 0.50282751)
(0 -0.017394519 0.50608263)
(0 -0.038728486 0.52526635)
(0 -0.027879999 0.45023601)
(0 0.039873841 0.40985245)
(0 0.06139441 0.54931228)
(0 0.031946929 0.52188146)
(0 0.02432156 0.51008311)
(0 0.019157624 0.50658978)
(0 0.014940774 0.50452814)
(0 0.011970829 0.50327062)
(0 0.0097371165 0.50245684)
(0 0.0080034079 0.50189886)
(0 0.0066339842 0.50150589)
(0 0.0055285636 0.50122214)
(0 0.0046175618 0.50101292)
(0 0.0038521928 0.50085635)
(0 0.003197015 0.50073807)
(0 0.0026256505 0.50064837)
(0 0.0021180041 0.50058059)
(0 0.0016583579 0.5005301)
(0 0.0012340518 0.50049372)
(0 0.00083453913 0.50046927)
(0 0.00045068081 0.50045536)
(0 7.4195925e-05 0.50045124)
(0 -0.00030281823 0.50045669)
(0 -0.00068831323 0.50047204)
(0 -0.0010907123 0.50049818)
(0 -0.001519408 0.50053666)
(0 -0.0019853452 0.50058987)
(0 -0.0025017766 0.50066129)
(0 -0.0030852944 0.50075603)
(0 -0.0037572938 0.50088149)
(0 -0.0045460871 0.50104859)
(0 -0.0054901109 0.50127387)
(0 -0.0066434374 0.5015835)
(0 -0.0080833827 0.50201961)
(0 -0.0099141844 0.50265065)
(0 -0.012308711 0.50361631)
(0 -0.015655285 0.50520224)
(0 -0.01981603 0.50785946)
(0 -0.025128294 0.51641394)
(0 -0.047364022 0.53913313)
(0 -0.030830322 0.4149328)
(0 0.034773725 0.3617926)
(0 0.063790378 0.55458178)
(0 0.039322632 0.53746955)
(0 0.03003155 0.51849565)
(0 0.024058842 0.51197949)
(0 0.019225468 0.50849946)
(0 0.015682874 0.50626252)
(0 0.012902564 0.50475217)
(0 0.010694602 0.50369979)
(0 0.0089221769 0.50295028)
(0 0.0074721795 0.50240415)
(0 0.0062648756 0.5019989)
(0 0.0052423919 0.50169426)
(0 0.0043614065 0.50146328)
(0 0.0035890406 0.50128762)
(0 0.002899851 0.50115459)
(0 0.0022736732 0.50105534)
(0 0.00169409 0.50098372)
(0 0.0011473048 0.50093554)
(0 0.00062128125 0.50090811)
(0 0.00010506256 0.50089997)
(0 -0.00041182947 0.50091069)
(0 -0.00093993666 0.50094093)
(0 -0.0014903913 0.50099238)
(0 -0.0020755391 0.50106806)
(0 -0.0027096569 0.50117254)
(0 -0.0034098601 0.50131256)
(0 -0.00419731 0.5014978)
(0 -0.0050988781 0.50174229)
(0 -0.0061494457 0.50206651)
(0 -0.0073949958 0.50250097)
(0 -0.0088978855 0.50309269)
(0 -0.010745634 0.50391645)
(0 -0.013045028 0.5050887)
(0 -0.015931787 0.50680901)
(0 -0.019808879 0.50947315)
(0 -0.024645716 0.51428311)
(0 -0.031022315 0.52824812)
(0 -0.050241506 0.54409849)
(0 -0.028407473 0.37248419)
(0 0.027404358 0.31494505)
(0 0.062251478 0.55028519)
(0 0.044532245 0.55146584)
(0 0.033908336 0.52748982)
(0 0.027389871 0.51772538)
(0 0.022380803 0.51291958)
(0 0.018563699 0.50972818)
(0 0.015457478 0.50748679)
(0 0.012939146 0.50589181)
(0 0.010879707 0.50473672)
(0 0.0091676882 0.50388411)
(0 0.00772415 0.50324551)
(0 0.0064890159 0.50276198)
(0 0.0054157759 0.50239332)
(0 0.0044683004 0.50211171)
(0 0.0036180455 0.5018977)
(0 0.002841991 0.5017376)
(0 0.0021211233 0.50162182)
(0 0.0014392756 0.50154381)
(0 0.00078221402 0.50149934)
(0 0.00013690087 0.5014861)
(0 -0.00050916839 0.50150343)
(0 -0.0011685714 0.50155233)
(0 -0.0018545353 0.50163551)
(0 -0.0025816243 0.50175766)
(0 -0.0033665099 0.50192594)
(0 -0.0042289185 0.50215078)
(0 -0.0051928434 0.50244708)
(0 -0.0062881542 0.50283613)
(0 -0.0075527577 0.50334859)
(0 -0.0090350658 0.50402916)
(0 -0.010797674 0.50494442)
(0 -0.012927589 0.50619726)
(0 -0.01552891 0.5079427)
(0 -0.018689617 0.51040734)
(0 -0.022771553 0.51406323)
(0 -0.028056425 0.52115437)
(0 -0.035576649 0.53932772)
(0 -0.050371667 0.54162009)
(0 -0.024049332 0.33072894)
(0 0.019816984 0.27534579)
(0 0.057912234 0.53983106)
(0 0.047254076 0.56256695)
(0 0.036377447 0.5366025)
(0 0.029538264 0.52350987)
(0 0.024578667 0.51740241)
(0 0.020678629 0.51335756)
(0 0.017417561 0.51043517)
(0 0.014726849 0.50831139)
(0 0.012485336 0.50674589)
(0 0.0105914 0.50557408)
(0 0.0089729401 0.5046868)
(0 0.0075722271 0.50400913)
(0 0.0063432953 0.50348881)
(0 0.0052495852 0.50308914)
(0 0.0042615311 0.50278405)
(0 0.0033548108 0.50255501)
(0 0.0025089968 0.50238892)
(0 0.0017064759 0.50227678)
(0 0.00093157177 0.50221273)
(0 0.00016981783 0.50219358)
(0 -0.00059270859 0.50221843)
(0 -0.001370008 0.50228864)
(0 -0.0021767329 0.50240796)
(0 -0.0030288837 0.50258285)
(0 -0.0039445592 0.50282312)
(0 -0.004944856 0.50314294)
(0 -0.006054972 0.50356233)
(0 -0.0073056015 0.50410952)
(0 -0.0087348319 0.5048245)
(0 -0.010390109 0.50576432)
(0 -0.012329919 0.50701135)
(0 -0.01463466 0.50868884)
(0 -0.017406485 0.51097863)
(0 -0.020699642 0.51412352)
(0 -0.024810436 0.51874044)
(0 -0.030345927 0.52823602)
(0 -0.038453957 0.54872921)
(0 -0.048376082 0.53410878)
(0 -0.019025416 0.2941921)
(0 0.01306169 0.24275569)
(0 0.0517072 0.52534083)
(0 0.047569625 0.57026169)
(0 0.037625312 0.54551696)
(0 0.030724852 0.52928938)
(0 0.025949581 0.52179945)
(0 0.022116617 0.51698937)
(0 0.018836891 0.51345936)
(0 0.016082979 0.51084596)
(0 0.013746774 0.50888906)
(0 0.011741681 0.50740532)
(0 0.010004982 0.50626967)
(0 0.0084839223 0.50539436)
(0 0.0071356279 0.50471723)
(0 0.0059251799 0.50419389)
(0 0.0048236453 0.5037924)
(0 0.0038067259 0.50348977)
(0 0.0028536429 0.50326963)
(0 0.001946204 0.50312062)
(0 0.0010680215 0.50303535)
(0 0.0002038472 0.50300973)
(0 -0.00066105002 0.50304262)
(0 -0.0015414806 0.50313576)
(0 -0.0024528639 0.50329389)
(0 -0.0034118877 0.50352518)
(0 -0.0044371875 0.50384195)
(0 -0.0055501442 0.50426183)
(0 -0.0067758271 0.50480949)
(0 -0.0081441122 0.50551925)
(0 -0.009691256 0.50643896)
(0 -0.011461664 0.50763586)
(0 -0.013507812 0.50920488)
(0 -0.015899399 0.51128411)
(0 -0.01873216 0.51407325)
(0 -0.022037929 0.51784158)
(0 -0.026056782 0.5234776)
(0 -0.03163616 0.53537451)
(0 -0.039532652 0.55591355)
(0 -0.044733282 0.52303172)
(0 -0.014045443 0.26299555)
(0 0.0077480715 0.21580095)
(0 0.044720642 0.50822349)
(0 0.046083218 0.57441502)
(0 0.037866644 0.55373613)
(0 0.031129815 0.53495667)
(0 0.026613956 0.52602565)
(0 0.022965865 0.52052574)
(0 0.019775876 0.516468)
(0 0.017045139 0.51341482)
(0 0.014686042 0.51109788)
(0 0.012630048 0.50932141)
(0 0.010824947 0.50794811)
(0 0.0092246812 0.50688033)
(0 0.0077911376 0.50604815)
(0 0.0064924334 0.50540095)
(0 0.0053014789 0.50490184)
(0 0.0041950364 0.50452405)
(0 0.0031528523 0.5042483)
(0 0.0021569046 0.50406115)
(0 0.0011907508 0.5039538)
(0 0.00023895698 0.50392137)
(0 -0.00071344882 0.50396248)
(0 -0.0016815165 0.50407923)
(0 -0.0026808299 0.50427726)
(0 -0.0037280983 0.50456626)
(0 -0.0048417342 0.5049608)
(0 -0.006042518 0.50548152)
(0 -0.0073543654 0.5061571)
(0 -0.0088051551 0.50702692)
(0 -0.010427895 0.50814524)
(0 -0.012262404 0.50958739)
(0 -0.014354084 0.51145854)
(0 -0.01675934 0.51390773)
(0 -0.019560354 0.51714418)
(0 -0.022773728 0.52148106)
(0 -0.02661985 0.52818834)
(0 -0.032081015 0.54220935)
(0 -0.039121283 0.56054276)
(0 -0.040139341 0.50940389)
(0 -0.0096596047 0.23631861)
(0 0.0039822315 0.19388112)
(0 0.037780658 0.48979289)
(0 0.043479889 0.5753081)
(0 0.037352801 0.56082289)
(0 0.030958036 0.54034943)
(0 0.026724805 0.53000263)
(0 0.023329663 0.52388369)
(0 0.020303403 0.51938465)
(0 0.017659816 0.51595131)
(0 0.015334426 0.51331474)
(0 0.013276781 0.511273)
(0 0.011445344 0.5096802)
(0 0.0098017737 0.50843166)
(0 0.0083136706 0.50745169)
(0 0.0069530455 0.50668489)
(0 0.0056954756 0.50609051)
(0 0.0045195344 0.50563868)
(0 0.0034061649 0.50530776)
(0 0.0023381193 0.50508255)
(0 0.0012994508 0.50495303)
(0 0.00027505273 0.50491365)
(0 -0.00074979086 0.50496284)
(0 -0.0017898716 0.50510299)
(0 -0.0028604198 0.50534051)
(0 -0.0039776109 0.50568643)
(0 -0.0051590236 0.50615716)
(0 -0.0064241584 0.50677586)
(0 -0.0077950233 0.50757443)
(0 -0.0092966935 0.5085963)
(0 -0.010958007 0.50990066)
(0 -0.012813094 0.51156894)
(0 -0.014899782 0.51371395)
(0 -0.017260939 0.51649167)
(0 -0.019961335 0.5201138)
(0 -0.023009528 0.52495954)
(0 -0.026643292 0.53273671)
(0 -0.031866961 0.5483672)
(0 -0.037653261 0.56262474)
(0 -0.035197457 0.49425478)
(0 -0.0061488069 0.21383772)
(0 0.0015276607 0.17652878)
(0 0.031366372 0.47118024)
(0 0.040287607 0.57350322)
(0 0.036299412 0.566571)
(0 0.030396417 0.54535505)
(0 0.026441785 0.53368924)
(0 0.023320069 0.52700694)
(0 0.020496877 0.5221507)
(0 0.017981729 0.51840266)
(0 0.015730524 0.51549277)
(0 0.013708676 0.51321867)
(0 0.011884532 0.51142969)
(0 0.010227592 0.51001676)
(0 0.0087114126 0.50890034)
(0 0.0073122811 0.50802167)
(0 0.006008913 0.50733718)
(0 0.004782173 0.50681468)
(0 0.003614668 0.50643069)
(0 0.0024903733 0.50616861)
(0 0.0013942668 0.50601749)
(0 0.00031198339 0.50597121)
(0 -0.00077053118 0.50602805)
(0 -0.0018674023 0.50619063)
(0 -0.0029930902 0.50646601)
(0 -0.0041628026 0.50686625)
(0 -0.0053928301 0.50740925)
(0 -0.0067009168 0.50812012)
(0 -0.0081066694 0.50903319)
(0 -0.0096319006 0.51019488)
(0 -0.011300884 0.51166786)
(0 -0.013141636 0.51353765)
(0 -0.015184574 0.51592188)
(0 -0.017460595 0.51897944)
(0 -0.020017382 0.5229221)
(0 -0.022862696 0.5282235)
(0 -0.026270129 0.53702213)
(0 -0.031155012 0.55362271)
(0 -0.035499577 0.56245038)
(0 -0.030306748 0.47852808)
(0 -0.0035357791 0.19533267)
(0 5.2713038e-05 0.16299692)
(0 0.025721459 0.45315363)
(0 0.036874227 0.56961868)
(0 0.034877081 0.5709598)
(0 0.029584374 0.54992376)
(0 0.025897133 0.53708867)
(0 0.023038836 0.52987763)
(0 0.020432268 0.52473434)
(0 0.018067785 0.5207348)
(0 0.01591628 0.51759868)
(0 0.013956246 0.51512711)
(0 0.012164577 0.51316784)
(0 0.01051797 0.51160961)
(0 0.0089956012 0.51037067)
(0 0.0075780132 0.50939018)
(0 0.0062472113 0.50862274)
(0 0.0049865828 0.50803456)
(0 0.0037806739 0.50760086)
(0 0.0026149803 0.50730401)
(0 0.0014757107 0.50713236)
(0 0.00034954832 0.50707936)
(0 -0.00077659068 0.50714319)
(0 -0.0019158556 0.50732664)
(0 -0.0030816273 0.50763726)
(0 -0.0042878373 0.50808787)
(0 -0.0055491868 0.50869749)
(0 -0.0068813834 0.5094926)
(0 -0.0083013902 0.51050922)
(0 -0.0098276141 0.51179572)
(0 -0.011479832 0.51341699)
(0 -0.013280154 0.51546086)
(0 -0.015252187 0.5180473)
(0 -0.017416897 0.52133499)
(0 -0.019807517 0.52553906)
(0 -0.022437669 0.53125759)
(0 -0.025615545 0.54099128)
(0 -0.030075423 0.55788727)
(0 -0.032953236 0.56041893)
(0 -0.025718307 0.46291515)
(0 -0.0017061788 0.18034391)
(0 -0.00074219745 0.15246289)
(0 0.020941576 0.43614653)
(0 0.033489622 0.56420621)
(0 0.033228405 0.57406418)
(0 0.028621822 0.55403483)
(0 0.025189554 0.54022426)
(0 0.022568923 0.53250563)
(0 0.020175965 0.52712718)
(0 0.017970485 0.52293124)
(0 0.015932328 0.51961247)
(0 0.014050483 0.51697709)
(0 0.012308898 0.51487359)
(0 0.01069043 0.51319001)
(0 0.0091792135 0.51184367)
(0 0.0077597407 0.5107727)
(0 0.0064172081 0.50993068)
(0 0.0051375505 0.50928286)
(0 0.0039073637 0.50880363)
(0 0.0027138237 0.50847471)
(0 0.001544559 0.50828394)
(0 0.00038750551 0.50822451)
(0 -0.00076923845 0.5082945)
(0 -0.0019376331 0.50849683)
(0 -0.003129775 0.50883938)
(0 -0.0043581287 0.50933552)
(0 -0.0056356449 0.51000496)
(0 -0.0069758862 0.51087509)
(0 -0.0083931397 0.51198292)
(0 -0.0099025036 0.51337794)
(0 -0.011519611 0.51512619)
(0 -0.013261254 0.51731651)
(0 -0.015145022 0.52006934)
(0 -0.017183794 0.52354129)
(0 -0.019399967 0.52795824)
(0 -0.021818924 0.53406659)
(0 -0.02476957 0.54461267)
(0 -0.028742893 0.56115407)
(0 -0.030245247 0.55692952)
(0 -0.02158493 0.44785679)
(0 -0.0005018639 0.16828506)
(0 -0.0010939724 0.14423025)
(0 0.01701723 0.42037496)
(0 0.030288884 0.55772805)
(0 0.031470752 0.57600754)
(0 0.02758207 0.55768077)
(0 0.024391688 0.54312091)
(0 0.021976051 0.5349129)
(0 0.019783004 0.52933457)
(0 0.017735072 0.52498748)
(0 0.015815229 0.52152422)
(0 0.014020485 0.51875563)
(0 0.012340349 0.5165324)
(0 0.010762695 0.5147429)
(0 0.0092758259 0.51330434)
(0 0.0078677226 0.51215462)
(0 0.0065265092 0.51124691)
(0 0.0052405466 0.51054604)
(0 0.0039984602 0.51002596)
(0 0.0027891523 0.50966802)
(0 0.0016017585 0.50945978)
(0 0.00042558002 0.50939425)
(0 -0.00074998001 0.50946946)
(0 -0.0019355686 0.50968841)
(0 -0.0031418866 0.51005918)
(0 -0.0043798439 0.51059545)
(0 -0.0056605955 0.51131732)
(0 -0.0069955814 0.51225265)
(0 -0.0083965332 0.51343893)
(0 -0.0098754912 0.51492606)
(0 -0.011444434 0.51678045)
(0 -0.013115601 0.51909107)
(0 -0.01490147 0.52197749)
(0 -0.016808533 0.52559356)
(0 -0.018852308 0.53018557)
(0 -0.021074451 0.53666078)
(0 -0.023804529 0.54786594)
(0 -0.02725853 0.56346963)
(0 -0.027545499 0.55234774)
(0 -0.017980071 0.43362049)
(0 0.00023525056 0.15861117)
(0 -0.0011760534 0.13774859)
(0 0.013870746 0.40592141)
(0 0.027351547 0.55056158)
(0 0.029691562 0.57693971)
(0 0.026516751 0.56086834)
(0 0.023555588 0.5458016)
(0 0.02131131 0.53712553)
(0 0.019297938 0.53136901)
(0 0.017399333 0.52690619)
(0 0.015596607 0.5233308)
(0 0.01389231 0.52045579)
(0 0.012280073 0.51813493)
(0 0.010751667 0.51625752)
(0 0.0092987632 0.51474124)
(0 0.0079122945 0.51352422)
(0 0.0065829585 0.51255972)
(0 0.0053013282 0.51181251)
(0 0.0040579474 0.51125643)
(0 0.0028434035 0.51087267)
(0 0.0016483451 0.51064869)
(0 0.00046347275 0.51057742)
(0 -0.00072045793 0.51065686)
(0 -0.0019127328 0.51089003)
(0 -0.0031226239 0.51128511)
(0 -0.0043594823 0.51185591)
(0 -0.0056327096 0.51262266)
(0 -0.0069517388 0.51361336)
(0 -0.0083259637 0.51486554)
(0 -0.0097647111 0.51642905)
(0 -0.011276854 0.51837011)
(0 -0.012870907 0.5207772)
(0 -0.014555227 0.52376814)
(0 -0.016331578 0.52749453)
(0 -0.018212367 0.53223343)
(0 -0.020257833 0.53905276)
(0 -0.022776743 0.55074451)
(0 -0.025704117 0.56491924)
(0 -0.02496448 0.54699534)
(0 -0.014914775 0.42035732)
(0 0.00064294817 0.1508608)
(0 -0.0011067174 0.13257923)
(0 0.011391426 0.3927796)
(0 0.024704951 0.54300381)
(0 0.027949012 0.57701755)
(0 0.025458453 0.56361771)
(0 0.022715649 0.5482882)
(0 0.020612394 0.53917094)
(0 0.018755546 0.53324714)
(0 0.016993925 0.52869468)
(0 0.015303032 0.52503368)
(0 0.01368854 0.52207502)
(0 0.012146915 0.5196758)
(0 0.010672822 0.51772663)
(0 0.0092605313 0.51614592)
(0 0.0079033748 0.51487236)
(0 0.0065942322 0.51385959)
(0 0.005325624 0.51307257)
(0 0.0040898425 0.51248525)
(0 0.0028790576 0.51207888)
(0 0.0016853754 0.51184091)
(0 0.00050086895 0.51176424)
(0 -0.00068236638 0.51184689)
(0 -0.001872268 0.51209186)
(0 -0.0030767088 0.51250734)
(0 -0.0043035385 0.51310712)
(0 -0.0055605107 0.51391137)
(0 -0.0068552273 0.51494797)
(0 -0.0081950185 0.51625421)
(0 -0.0095868909 0.51787958)
(0 -0.011037177 0.51988971)
(0 -0.012551477 0.5223722)
(0 -0.014135015 0.5254427)
(0 -0.015786413 0.52925224)
(0 -0.017518101 0.5341185)
(0 -0.019408739 0.54125753)
(0 -0.021726903 0.55325608)
(0 -0.024139978 0.56561021)
(0 -0.022564097 0.5411422)
(0 -0.012358946 0.40813257)
(0 0.00083010872 0.14464126)
(0 -0.00096237706 0.12837767)
(0 0.0094605668 0.38088621)
(0 0.02234516 0.53527875)
(0 0.026277638 0.57638893)
(0 0.024425076 0.56595673)
(0 0.021892115 0.55060038)
(0 0.019905104 0.54107562)
(0 0.018181587 0.53498771)
(0 0.016542764 0.53036322)
(0 0.014956081 0.52663748)
(0 0.013428128 0.52361393)
(0 0.011957155 0.52115268)
(0 0.010539876 0.51914578)
(0 0.0091724641 0.51751248)
(0 0.0078501327 0.51619216)
(0 0.0065675499 0.51513897)
(0 0.0053188992 0.51431828)
(0 0.0040980198 0.51370427)
(0 0.002898523 0.51327834)
(0 0.0017138739 0.51302804)
(0 0.00053744655 0.51294632)
(0 -0.00063738143 0.51303117)
(0 -0.0018172575 0.51328559)
(0 -0.0030087302 0.5137177)
(0 -0.004218249 0.51434114)
(0 -0.0054520657 0.51517593)
(0 -0.0067161606 0.51624962)
(0 -0.0080160985 0.5175991)
(0 -0.00935697 0.51927328)
(0 -0.010743108 0.52133704)
(0 -0.012177926 0.5238769)
(0 -0.01366441 0.52700628)
(0 -0.015199482 0.53087828)
(0 -0.016797904 0.53585951)
(0 -0.018554417 0.54329097)
(0 -0.020682221 0.55541822)
(0 -0.022607375 0.56565547)
(0 -0.020371663 0.53500407)
(0 -0.010259724 0.39694955)
(0 0.00087696817 0.13962095)
(0 -0.0007904898 0.1248839)
(0 0.0079656644 0.37014736)
(0 0.020251447 0.52754975)
(0 0.024694665 0.57518476)
(0 0.023424546 0.56791581)
(0 0.021095134 0.55275409)
(0 0.019205702 0.54286289)
(0 0.017594122 0.53660942)
(0 0.016063734 0.53192344)
(0 0.014572648 0.52814869)
(0 0.013126476 0.52507526)
(0 0.011724438 0.52256545)
(0 0.010364625 0.5205127)
(0 0.009044532 0.51883707)
(0 0.0077607888 0.51747862)
(0 0.0065094879 0.5163921)
(0 0.0052861966 0.51554331)
(0 0.0040860883 0.51490677)
(0 0.0029040544 0.51446413)
(0 0.0017347965 0.51420305)
(0 0.00057288187 0.51411657)
(0 -0.00058710993 0.51420268)
(0 -0.0017506264 0.51446434)
(0 -0.0029230047 0.51490952)
(0 -0.0041094149 0.51555171)
(0 -0.005314777 0.51641062)
(0 -0.0065436708 0.51751344)
(0 -0.0078001909 0.51889652)
(0 -0.0090878943 0.52060812)
(0 -0.010409596 0.52271234)
(0 -0.011767144 0.52529454)
(0 -0.013162037 0.52846626)
(0 -0.014590749 0.53238588)
(0 -0.016071868 0.53747482)
(0 -0.017712243 0.54516782)
(0 -0.019659466 0.55725359)
(0 -0.021132152 0.56516292)
(0 -0.018391593 0.52874739)
(0 -0.0085541068 0.38677196)
(0 0.00084007637 0.13552934)
(0 -0.00061900405 0.12190871)
(0 0.0068077255 0.36045753)
(0 0.018395353 0.5199332)
(0 0.023205279 0.57351735)
(0 0.022458426 0.56952526)
(0 0.020328146 0.55476122)
(0 0.018523364 0.54455172)
(0 0.017005138 0.53812941)
(0 0.015569698 0.53338697)
(0 0.014165533 0.52957454)
(0 0.012795735 0.52646293)
(0 0.011459893 0.52391542)
(0 0.010156958 0.52182667)
(0 0.0088852803 0.52011738)
(0 0.0076425219 0.51872827)
(0 0.0064258784 0.51761463)
(0 0.0052320424 0.51674271)
(0 0.004057315 0.51608742)
(0 0.0028977001 0.51563062)
(0 0.0017489994 0.51536018)
(0 0.00060686541 0.51526919)
(0 -0.00053304366 0.51535567)
(0 -0.0016750839 0.5156225)
(0 -0.0028234864 0.51607753)
(0 -0.003982292 0.51673399)
(0 -0.0051552624 0.5176113)
(0 -0.0063457927 0.51873618)
(0 -0.0075567805 0.52014447)
(0 -0.0087905882 0.52188376)
(0 -0.010048924 0.52401742)
(0 -0.011332565 0.52662974)
(0 -0.012642128 0.529831)
(0 -0.013974693 0.53378826)
(0 -0.015353409 0.53898084)
(0 -0.016892238 0.54690063)
(0 -0.018667654 0.55878692)
(0 -0.019728132 0.5642304)
(0 -0.016614032 0.52249753)
(0 -0.0071772498 0.37754143)
(0 0.00075798642 0.13215303)
(0 -0.00046282114 0.11931793)
(0 0.0059043627 0.35171093)
(0 0.016746306 0.51251019)
(0 0.021806893 0.57148162)
(0 0.021524434 0.57081422)
(0 0.019590306 0.55663015)
(0 0.017862215 0.54615656)
(0 0.016422038 0.53956243)
(0 0.015069551 0.53476457)
(0 0.013744146 0.5309222)
(0 0.012445252 0.52778135)
(0 0.011172387 0.52520473)
(0 0.0099249744 0.52308798)
(0 0.0087018719 0.52135229)
(0 0.0075014627 0.51993886)
(0 0.0063217769 0.51880344)
(0 0.0051604059 0.51791274)
(0 0.0040145875 0.51724199)
(0 0.002881278 0.51677332)
(0 0.0017572392 0.51649475)
(0 0.00063909082 0.51639947)
(0 -0.00047655265 0.51648552)
(0 -0.0015930724 0.51675567)
(0 -0.0027137147 0.51721763)
(0 -0.0038415374 0.51788439)
(0 -0.0049793105 0.51877503)
(0 -0.0061294439 0.51991585)
(0 -0.0072938786 0.52134216)
(0 -0.0084740687 0.52310098)
(0 -0.0096709457 0.52525503)
(0 -0.010884604 0.52788774)
(0 -0.012115239 0.53110887)
(0 -0.013361352 0.53509763)
(0 -0.014650774 0.54039132)
(0 -0.016099109 0.54849965)
(0 -0.01771022 0.56004326)
(0 -0.01840025 0.56294384)
(0 -0.015021187 0.51634691)
(0 -0.0060678669 0.3691893)
(0 0.00065607775 0.12932745)
(0 -0.00032843956 0.11701841)
(0 0.0051899894 0.34380776)
(0 0.015274928 0.50533576)
(0 0.020492504 0.56915717)
(0 0.020618256 0.57181006)
(0 0.018878201 0.55836648)
(0 0.01722291 0.54768781)
(0 0.015848864 0.54092066)
(0 0.014569138 0.53606577)
(0 0.01331519 0.53219834)
(0 0.012082048 0.52903492)
(0 0.010868842 0.52643593)
(0 0.0096751885 0.52429761)
(0 0.0085002012 0.52254147)
(0 0.007342751 0.52110901)
(0 0.0062014848 0.51995638)
(0 0.0050747016 0.51905063)
(0 0.0039604085 0.51836729)
(0 0.0028563667 0.51788873)
(0 0.0017601653 0.51760312)
(0 0.00066926889 0.51750374)
(0 -0.0004188645 0.5175886)
(0 -0.0015067586 0.51786043)
(0 -0.0025968017 0.51832675)
(0 -0.0036912031 0.51900034)
(0 -0.004791894 0.51989992)
(0 -0.0059004751 0.52105142)
(0 -0.007018133 0.5224897)
(0 -0.008145644 0.52426127)
(0 -0.0092834163 0.52642838)
(0 -0.010431147 0.52907378)
(0 -0.011588942 0.53230777)
(0 -0.012757299 0.53632465)
(0 -0.013968352 0.54171716)
(0 -0.015333901 0.54997292)
(0 -0.016786872 0.56104677)
(0 -0.017147423 0.561377)
(0 -0.01359184 0.5103621)
(0 -0.0051713615 0.36164395)
(0 0.00055036728 0.12692796)
(0 -0.00021730107 0.11494678)
(0 0.0046141919 0.33665745)
(0 0.013954664 0.49844613)
(0 0.019253118 0.56661059)
(0 0.019734821 0.57253812)
(0 0.018187119 0.5599736)
(0 0.016603893 0.54915225)
(0 0.015287295 0.54221369)
(0 0.014072034 0.53729864)
(0 0.012883272 0.53340887)
(0 0.01171128 0.53022778)
(0 0.010554568 0.52761164)
(0 0.0094127552 0.52545688)
(0 0.0082850467 0.52368513)
(0 0.0071706316 0.52223805)
(0 0.0060686058 0.52107204)
(0 0.0049778212 0.52015441)
(0 0.0038969118 0.51946095)
(0 0.0028243138 0.51897421)
(0 0.0017583231 0.5186825)
(0 0.00069713404 0.51857916)
(0 -0.00036105957 0.5186622)
(0 -0.0014180354 0.51893425)
(0 -0.002475442 0.51940271)
(0 -0.003534762 0.52008009)
(0 -0.004597223 0.52098487)
(0 -0.0056637646 0.52214259)
(0 -0.0067349822 0.52358775)
(0 -0.0078111501 0.5253665)
(0 -0.0088923344 0.52754076)
(0 -0.0099780333 0.53019288)
(0 -0.011068486 0.53343473)
(0 -0.012166519 0.53747826)
(0 -0.01330782 0.5429665)
(0 -0.014595356 0.55132639)
(0 -0.015895136 0.5618199)
(0 -0.015964992 0.55959217)
(0 -0.012304287 0.50458971)
(0 -0.0044411168 0.35483548)
(0 0.00045035522 0.12486192)
(0 -0.00012806176 0.11306079)
(0 0.0041392726 0.33018013)
(0 0.012762361 0.49186427)
(0 0.018079311 0.56389773)
(0 0.01886911 0.57302174)
(0 0.017511928 0.56145332)
(0 0.016002364 0.55055367)
(0 0.01473746 0.54344867)
(0 0.013580201 0.53846975)
(0 0.01245144 0.53455881)
(0 0.011336657 0.53136363)
(0 0.010233581 0.52873439)
(0 0.0091417065 0.52656728)
(0 0.0080602396 0.52478386)
(0 0.006988572 0.52332581)
(0 0.0059261254 0.52214962)
(0 0.0048721849 0.5212228)
(0 0.0038258953 0.52052131)
(0 0.0027862566 0.52002786)
(0 0.001752166 0.51973085)
(0 0.00072244472 0.51962367)
(0 -0.00030407783 0.51970432)
(0 -0.001328535 0.51997535)
(0 -0.0023519399 0.520444)
(0 -0.003375156 0.52112261)
(0 -0.0043988223 0.52202936)
(0 -0.0054233372 0.52318955)
(0 -0.0064488297 0.52463736)
(0 -0.0074751991 0.52641872)
(0 -0.0085022861 0.52859535)
(0 -0.0095295169 0.53124952)
(0 -0.010557396 0.53449576)
(0 -0.011591187 0.53856553)
(0 -0.012669128 0.54414491)
(0 -0.013881001 0.55256421)
(0 -0.015031559 0.56238311)
(0 -0.014846565 0.55764143)
(0 -0.011138112 0.49906147)
(0 -0.0038386679 0.34869841)
(0 0.00036111794 0.12306181)
(0 -5.8049206e-05 0.11133259)
(0 0.0037376434 0.32430676)
(0 0.011678249 0.48560402)
(0 0.016962135 0.56106578)
(0 0.01801661 0.57328245)
(0 0.016847662 0.56280634)
(0 0.015414984 0.5518934)
(0 0.014198562 0.54463052)
(0 0.013094534 0.53958425)
(0 0.012021638 0.53565231)
(0 0.010960813 0.53244562)
(0 0.0099088945 0.52980647)
(0 0.0088651779 0.5276303)
(0 0.0078288336 0.52583845)
(0 0.0067993863 0.52437243)
(0 0.0057764996 0.52318876)
(0 0.0047598031 0.52225503)
(0 0.0037488613 0.5215473)
(0 0.002743147 0.52104839)
(0 0.0017420683 0.52074677)
(0 0.00074498418 0.52063587)
(0 -0.00024872914 0.52071364)
(0 -0.0012396504 0.52098256)
(0 -0.0022282476 0.52144975)
(0 -0.003214857 0.52212736)
(0 -0.0041996221 0.52303338)
(0 -0.0051824937 0.52419286)
(0 -0.006163225 0.52563979)
(0 -0.0071414234 0.52741997)
(0 -0.0081167691 0.52959507)
(0 -0.0090886835 0.53224761)
(0 -0.010057999 0.53549583)
(0 -0.011032328 0.53959177)
(0 -0.012051294 0.54525574)
(0 -0.01318797 0.5536891)
(0 -0.014192577 0.56275481)
(0 -0.013785329 0.55556821)
(0 -0.010075166 0.49379808)
(0 -0.0033332314 0.34317312)
(0 0.0002847773 0.12147932)
(0 -4.1658522e-06 0.10974403)
(0 0.0033894222 0.31897856)
(0 0.01068566 0.47967308)
(0 0.015893586 0.55815493)
(0 0.017173547 0.57334023)
(0 0.016189883 0.56403276)
(0 0.014838375 0.55317085)
(0 0.013669351 0.54576227)
(0 0.012615283 0.54064594)
(0 0.011595083 0.5366926)
(0 0.010585626 0.53347636)
(0 0.0095827813 0.53082988)
(0 0.008585616 0.52864737)
(0 0.0075932665 0.52684977)
(0 0.0066053578 0.52537834)
(0 0.0056217448 0.52418946)
(0 0.0046423404 0.52325075)
(0 0.0036670603 0.52253831)
(0 0.0026957779 0.52203502)
(0 0.0017283379 0.5217294)
(0 0.00076456072 0.52161486)
(0 -0.00019570594 0.52168934)
(0 -0.0011525633 0.52195524)
(0 -0.0021060111 0.52241955)
(0 -0.0030559336 0.52309429)
(0 -0.0040020531 0.52399725)
(0 -0.0049439413 0.52515334)
(0 -0.005881037 0.52659641)
(0 -0.0068127038 0.52837223)
(0 -0.0077384835 0.53054256)
(0 -0.008657814 0.53319045)
(0 -0.0095718619 0.53643886)
(0 -0.010490341 0.54056075)
(0 -0.011453009 0.54630057)
(0 -0.012513602 0.55470267)
(0 -0.013375137 0.56295155)
(0 -0.012774967 0.55340858)
(0 -0.0091000219 0.48881215)
(0 -0.0029008747 0.33820629)
(0 0.00022150617 0.12008038)
(0 3.657075e-05 0.10828326)
(0 0.0030803891 0.31414597)
(0 0.0097706472 0.47407498)
(0 0.014866823 0.55519961)
(0 0.016336997 0.57321368)
(0 0.015534906 0.56513237)
(0 0.014269459 0.55438404)
(0 0.013148474 0.54684534)
(0 0.01214239 0.54165748)
(0 0.011172574 0.53768217)
(0 0.010212484 0.53445793)
(0 0.0092570005 0.53180636)
(0 0.0083049638 0.52961983)
(0 0.0073555083 0.52781879)
(0 0.006408355 0.5263441)
(0 0.0054635262 0.52515199)
(0 0.0045211807 0.52420996)
(0 0.0035815362 0.52349414)
(0 0.002644812 0.52298741)
(0 0.0017112296 0.52267831)
(0 0.0007810081 0.52256022)
(0 -0.00014559672 0.52263107)
(0 -0.0010682733 0.52289316)
(0 -0.0019866163 0.5233534)
(0 -0.0029001186 0.52402364)
(0 -0.0038081378 0.52492158)
(0 -0.0047099155 0.52607197)
(0 -0.0056046127 0.52750863)
(0 -0.0064913698 0.52927737)
(0 -0.0073695805 0.53144013)
(0 -0.0082386855 0.5340808)
(0 -0.00910015 0.53732789)
(0 -0.0099654134 0.5414749)
(0 -0.010873101 0.54727959)
(0 -0.011855871 0.5556059)
(0 -0.012577131 0.56298826)
(0 -0.011810265 0.55119254)
(0 -0.0082000916 0.48411025)
(0 -0.0025235392 0.33375073)
(0 0.00017021819 0.11884117)
(0 6.6731758e-05 0.10694262)
(0 0.0028003565 0.30976758)
(0 0.0089216066 0.46881043)
(0 0.013876236 0.55222946)
(0 0.015504959 0.57292014)
(0 0.014879965 0.56610495)
(0 0.013705712 0.55552997)
(0 0.012634749 0.54787981)
(0 0.011675749 0.5426205)
(0 0.010754731 0.53862281)
(0 0.0098425063 0.53539198)
(0 0.0089329887 0.53273732)
(0 0.0080248238 0.53054889)
(0 0.0071171956 0.52874644)
(0 0.0062099392 0.52727043)
(0 0.0053032425 0.5260768)
(0 0.0043974909 0.52513294)
(0 0.0034931729 0.5244149)
(0 0.0025908128 0.52390557)
(0 0.0016909624 0.52359346)
(0 0.00079418903 0.52347194)
(0 -9.8896004e-05 0.52353887)
(0 -0.00098762143 0.52379649)
(0 -0.0018712283 0.52425162)
(0 -0.0027488665 0.52491599)
(0 -0.0036195707 0.5258072)
(0 -0.0044822846 0.52694991)
(0 -0.0053359101 0.52837792)
(0 -0.0061793642 0.53013716)
(0 -0.007011862 0.53228983)
(0 -0.0078328072 0.53492095)
(0 -0.0086438949 0.53816524)
(0 -0.009457826 0.54233567)
(0 -0.010310865 0.54819211)
(0 -0.011213687 0.55639945)
(0 -0.011797682 0.56287855)
(0 -0.010887513 0.54894503)
(0 -0.0073655506 0.47969439)
(0 -0.0021881657 0.32976487)
(0 0.00012912038 0.11774511)
(0 8.8350312e-05 0.10571717)
(0 0.0025419507 0.30580886)
(0 0.0081289744 0.46387818)
(0 0.012917488 0.54926995)
(0 0.014676422 0.57247582)
(0 0.014223337 0.56695042)
(0 0.013145356 0.556605)
(0 0.012127376 0.54886474)
(0 0.011215425 0.54353586)
(0 0.0103422 0.53951577)