/*--------------------------------*- C++ -*----------------------------------*\
  =========                 |
  \\      /  F ield         | OpenFOAM: The Open Source CFD Toolbox
   \\    /   O peration     | Website:  https://openfoam.org
    \\  /    A nd           | Version:  10
     \\/     M anipulation  |
\*---------------------------------------------------------------------------*/
FoamFile
{
    format      ascii;
    class       volVectorField;
    location    "0.1";
    object      U_0;
}
// * * * * * * * * * * * * * * * * * * * * * * * * * * * * * * * * * * * * * //

dimensions      [0 1 -1 0 0 0 0];

internalField   nonuniform List<vector> 
4000
(
(0 0.018633809 0.47773339)
(0 0.023503162 0.50885961)
(0 0.008160553 0.50052546)
(0 0.0056083175 0.50033654)
(0 0.0042478726 0.50025751)
(0 0.003248028 0.50016898)
(0 0.0025492319 0.50011966)
(0 0.0020479196 0.50009008)
(0 0.0016702341 0.50006973)
(0 0.0013763208 0.50005529)
(0 0.0011417948 0.50004487)
(0 0.00095030656 0.50003719)
(0 0.00079059221 0.50003145)
(0 0.00065466688 0.5000271)
(0 0.00053669357 0.50002381)
(0 0.00043228321 0.50002132)
(0 0.0003380402 0.50001947)
(0 0.00025125465 0.50001813)
(0 0.00016968588 0.50001724)
(0 9.1403875e-05 0.50001673)
(0 1.4667595e-05 0.50001658)
(0 -6.2183529e-05 0.50001678)
(0 -0.00014082055 0.50001734)
(0 -0.00022301643 0.5000183)
(0 -0.00031075834 0.50001971)
(0 -0.00040637743 0.50002167)
(0 -0.00051272114 0.50002429)
(0 -0.00063339248 0.50002777)
(0 -0.00077309833 0.50003237)
(0 -0.00093817931 0.50003851)
(0 -0.0011374617 0.50004678)
(0 -0.0013836232 0.50005817)
(0 -0.0016954343 0.5000741)
(0 -0.0021032691 0.50009709)
(0 -0.0026630793 0.50013486)
(0 -0.0034571013 0.5002025)
(0 -0.0045502501 0.50027176)
(0 -0.0065748832 0.50043408)
(0 -0.017649102 0.50675262)
(0 -0.013584818 0.47975856)
(0 0.03742264 0.44798164)
(0 0.050935089 0.53232493)
(0 0.021948545 0.50804328)
(0 0.016115669 0.50357452)
(0 0.01239468 0.50242363)
(0 0.0094942103 0.50162303)
(0 0.0074991134 0.50115635)
(0 0.0060490121 0.50086539)
(0 0.0049446935 0.50066723)
(0 0.0040815852 0.50052802)
(0 0.0033906979 0.50042786)
(0 0.0028250517 0.50035419)
(0 0.0023522433 0.50029915)
(0 0.0019491609 0.50025763)
(0 0.0015988174 0.50022616)
(0 0.001288392 0.50020241)
(0 0.0010079348 0.50018473)
(0 0.00074948358 0.50017199)
(0 0.00050643998 0.50016344)
(0 0.0002731101 0.50015858)
(0 4.4349593e-05 0.50015714)
(0 -0.00018474623 0.50015904)
(0 -0.00041911292 0.50016442)
(0 -0.00066398718 0.50017356)
(0 -0.00092522835 0.50018704)
(0 -0.0012096964 0.50020568)
(0 -0.0015257484 0.50023072)
(0 -0.0018839272 0.50026397)
(0 -0.0022979536 0.50030805)
(0 -0.0027862125 0.50036686)
(0 -0.0033741296 0.50044634)
(0 -0.0040981397 0.50055597)
(0 -0.0050113957 0.50071086)
(0 -0.0061938481 0.5009366)
(0 -0.0077944447 0.50129484)
(0 -0.010089262 0.50191166)
(0 -0.01307322 0.5028276)
(0 -0.017393108 0.50608268)
(0 -0.038727106 0.52526626)
(0 -0.02787933 0.45023689)
(0 0.039873111 0.40985405)
(0 0.061392714 0.54931247)
(0 0.031945089 0.52188142)
(0 0.024319876 0.51008323)
(0 0.019155842 0.50658984)
(0 0.014938978 0.50452814)
(0 0.011969057 0.50327058)
(0 0.0097353945 0.50245677)
(0 0.0080017621 0.50189876)
(0 0.0066324369 0.50150577)
(0 0.0055271339 0.501222)
(0 0.0046162663 0.50101276)
(0 0.0038510461 0.50085617)
(0 0.0031960296 0.50073788)
(0 0.0026248374 0.50064817)
(0 0.0021173725 0.50058037)
(0 0.0016579159 0.50052988)
(0 0.0012338062 0.50049349)
(0 0.00083449546 0.50046904)
(0 0.00045084351 0.50045513)
(0 7.4568375e-05 0.500451)
(0 -0.00030223374 0.50045645)
(0 -0.00068751564 0.5004718)
(0 -0.0010897018 0.50049794)
(0 -0.0015181862 0.50053642)
(0 -0.0019839153 0.50058963)
(0 -0.0025001438 0.50066107)
(0 -0.003083466 0.50075582)
(0 -0.0037552798 0.50088129)
(0 -0.0045439007 0.5010484)
(0 -0.0054877691 0.50127371)
(0 -0.0066409614 0.50158337)
(0 -0.0080807998 0.50201951)
(0 -0.0099115294 0.5026506)
(0 -0.012306023 0.50361632)
(0 -0.01565262 0.50520232)
(0 -0.019813515 0.50785966)
(0 -0.025125673 0.51641398)
(0 -0.047361595 0.53913336)
(0 -0.030829244 0.41493519)
(0 0.034772818 0.36179574)
(0 0.063787925 0.55458268)
(0 0.039319731 0.53746943)
(0 0.030028967 0.51849578)
(0 0.024056173 0.51197959)
(0 0.019222788 0.50849945)
(0 0.015680237 0.50626243)
(0 0.012900007 0.50475202)
(0 0.010692162 0.50369959)
(0 0.0089198856 0.50295003)
(0 0.0074700631 0.50240385)
(0 0.0062629578 0.50199857)
(0 0.0052406932 0.50169389)
(0 0.0043599447 0.50146289)
(0 0.0035878311 0.5012872)
(0 0.0028989069 0.50115415)
(0 0.0022730058 0.50105489)
(0 0.0016937089 0.50098325)
(0 0.001147218 0.50093506)
(0 0.00062149528 0.50090762)
(0 0.00010558232 0.50089947)
(0 -0.0004110005 0.50091019)
(0 -0.00093879656 0.50094042)
(0 -0.0014889399 0.50099188)
(0 -0.0020737782 0.50106756)
(0 -0.0027075904 0.50117206)
(0 -0.0034074948 0.50131209)
(0 -0.0041946555 0.50149735)
(0 -0.0050959477 0.50174186)
(0 -0.0061462572 0.50206612)
(0 -0.0073915724 0.50250062)
(0 -0.0088942561 0.50309241)
(0 -0.010741836 0.50391624)
(0 -0.013041109 0.50508858)
(0 -0.015927799 0.506809)
(0 -0.019804898 0.5094733)
(0 -0.024641886 0.51428338)
(0 -0.031018176 0.52824808)
(0 -0.050237901 0.54409963)
(0 -0.028406032 0.37248891)
(0 0.027403343 0.31495018)
(0 0.062248262 0.55028739)
(0 0.044528096 0.55146569)
(0 0.033904651 0.52748987)
(0 0.027386182 0.5177255)
(0 0.022377117 0.51291955)
(0 0.018560083 0.50972802)
(0 0.01545398 0.50748652)
(0 0.012935815 0.50589144)
(0 0.010876582 0.50473627)
(0 0.0091648048 0.50388359)
(0 0.0077215381 0.50324492)
(0 0.0064867017 0.50276135)
(0 0.0054137824 0.50239264)
(0 0.0044666473 0.50211099)
(0 0.0036167497 0.50189695)
(0 0.0028410671 0.50173682)
(0 0.0021205838 0.50162101)
(0 0.0014391307 0.50154298)
(0 0.00078247244 0.5014985)
(0 0.00013756926 0.50148524)
(0 -0.00050808507 0.50150256)
(0 -0.0011670702 0.50155146)
(0 -0.0018526153 0.50163464)
(0 -0.0025792869 0.5017568)
(0 -0.0033637593 0.5019251)
(0 -0.0042257622 0.50214997)
(0 -0.0051892928 0.5024463)
(0 -0.0062842253 0.50283539)
(0 -0.0075484721 0.50334791)
(0 -0.0090304516 0.50402856)
(0 -0.010792767 0.50494391)
(0 -0.012922434 0.50619687)
(0 -0.015523568 0.50794246)
(0 -0.018684155 0.5104073)
(0 -0.022766059 0.51406343)
(0 -0.028051002 0.52115459)
(0 -0.035570669 0.5393276)
(0 -0.050366785 0.54162293)
(0 -0.024047588 0.33073677)
(0 0.019815914 0.27535328)
(0 0.057908277 0.53983528)
(0 0.047248524 0.56256697)
(0 0.036372425 0.53660233)
(0 0.029533389 0.52350996)
(0 0.024573832 0.51740234)
(0 0.020673897 0.51335728)
(0 0.017412998 0.51043473)
(0 0.014722514 0.50831081)
(0 0.012481276 0.50674519)
(0 0.010587657 0.50557326)
(0 0.0089695519 0.5046859)
(0 0.0075692252 0.50400814)
(0 0.0063407074 0.50348775)
(0 0.0052474351 0.50308802)
(0 0.0042598394 0.50278288)
(0 0.0033535952 0.50255379)
(0 0.0025082725 0.50238767)
(0 0.0017062556 0.50227549)
(0 0.00093186619 0.50221143)
(0 0.0001706356 0.50219226)
(0 -0.00059136079 0.50221709)
(0 -0.0013681257 0.5022873)
(0 -0.002174314 0.50240662)
(0 -0.0030259287 0.50258152)
(0 -0.0039410719 0.50282181)
(0 -0.0049408439 0.50314166)
(0 -0.0060504473 0.5035611)
(0 -0.0073005818 0.50410836)
(0 -0.0087293413 0.50482342)
(0 -0.01038418 0.50576335)
(0 -0.012323593 0.50701052)
(0 -0.014627987 0.50868818)
(0 -0.017399536 0.5109782)
(0 -0.020692502 0.51412338)
(0 -0.024803196 0.5187406)
(0 -0.030338577 0.528236)
(0 -0.038445837 0.54872914)
(0 -0.048369863 0.53411431)
(0 -0.019023429 0.29420377)
(0 0.013060592 0.24276586)
(0 0.051702528 0.52534786)
(0 0.047562534 0.57026222)
(0 0.037618693 0.54551644)
(0 0.030718592 0.52928933)
(0 0.025943432 0.52179929)
(0 0.022110616 0.51698894)
(0 0.01883112 0.51345869)
(0 0.01607751 0.5108451)
(0 0.013741661 0.50888802)
(0 0.011736974 0.50740413)
(0 0.010000724 0.50626835)
(0 0.0084801502 0.50539293)
(0 0.007132374 0.5047157)
(0 0.0059224718 0.50419227)
(0 0.004821507 0.5037907)
(0 0.0038051778 0.50348801)
(0 0.0028527028 0.50326782)
(0 0.001945887 0.50311877)
(0 0.0010683405 0.50303346)
(0 0.00020481293 0.50300781)
(0 -0.00065942893 0.50304069)
(0 -0.0015391977 0.50313382)
(0 -0.0024499154 0.50329195)
(0 -0.0034082723 0.50352326)
(0 -0.0044329079 0.50384005)
(0 -0.0055452068 0.50425997)
(0 -0.0067702437 0.5048077)
(0 -0.0081379007 0.50551754)
(0 -0.0096844418 0.50643737)
(0 -0.011454281 0.50763442)
(0 -0.013499907 0.50920363)
(0 -0.015891027 0.5112831)
(0 -0.018723399 0.51407253)
(0 -0.022028881 0.51784127)
(0 -0.026047525 0.52347758)
(0 -0.031626514 0.53537401)
(0 -0.039522121 0.55591386)
(0 -0.044725689 0.52304107)
(0 -0.014043255 0.26301176)
(0 0.0077469506 0.21581413)
(0 0.044715271 0.50823422)
(0 0.046074461 0.57441656)
(0 0.037858154 0.55373519)
(0 0.031121929 0.53495635)
(0 0.0266063 0.52602534)
(0 0.022958417 0.52052508)
(0 0.019768735 0.51646703)
(0 0.017038388 0.51341359)
(0 0.014679743 0.51109641)
(0 0.012624257 0.50931974)
(0 0.010819713 0.50794627)
(0 0.0092200459 0.50687834)
(0 0.0077871371 0.50604603)
(0 0.0064890985 0.50539871)
(0 0.0052988364 0.50489951)
(0 0.0041931093 0.50452163)
(0 0.0031516605 0.50424582)
(0 0.0021564656 0.50405861)
(0 0.0011910797 0.50395121)
(0 0.00024006658 0.50391874)
(0 -0.00071154744 0.50395983)
(0 -0.0016788146 0.50407656)
(0 -0.0026773209 0.50427458)
(0 -0.0037237788 0.5045636)
(0 -0.0048366042 0.50495817)
(0 -0.0060365819 0.50547894)
(0 -0.0073476331 0.5061546)
(0 -0.0087976432 0.50702453)
(0 -0.010419628 0.50814299)
(0 -0.012253418 0.50958533)
(0 -0.014344426 0.51145673)
(0 -0.016749068 0.51390622)
(0 -0.019549553 0.51714307)
(0 -0.022762518 0.52148044)
(0 -0.026608259 0.52818792)
(0 -0.032068678 0.54220814)
(0 -0.039108097 0.56054397)
(0 -0.040130349 0.50941837)
(0 -0.0096572367 0.23634008)
(0 0.003981087 0.19389761)
(0 0.037774583 0.48980832)
(0 0.04346934 0.57531128)
(0 0.037342155 0.5608215)
(0 0.030948241 0.54034864)
(0 0.026715419 0.53000207)
(0 0.023320568 0.52388273)
(0 0.020294708 0.51938328)
(0 0.017651616 0.51594961)
(0 0.015326791 0.51331274)
(0 0.013269773 0.51127074)
(0 0.011439016 0.50967772)
(0 0.0097961721 0.50842899)
(0 0.0083088341 0.50744886)
(0 0.0069490076 0.50668191)
(0 0.005692265 0.50608741)
(0 0.0045171762 0.50563548)
(0 0.0034046809 0.50530447)
(0 0.002337529 0.50507918)
(0 0.0012997712 0.50494959)
(0 0.0002762994 0.50491016)
(0 -0.00074760434 0.50495932)
(0 -0.0017867335 0.50509944)
(0 -0.0028563203 0.50533696)
(0 -0.0039725431 0.50568288)
(0 -0.0051529838 0.50615364)
(0 -0.0064171474 0.5067724)
(0 -0.0077870473 0.50757106)
(0 -0.009287766 0.50859306)
(0 -0.01094815 0.5098976)
(0 -0.012802341 0.51156611)
(0 -0.014888181 0.51371142)
(0 -0.017248548 0.51648951)
(0 -0.019948246 0.52011215)
(0 -0.022995868 0.52495846)
(0 -0.026629006 0.53273561)
(0 -0.031851519 0.54836512)
(0 -0.037637188 0.56262757)
(0 -0.035187041 0.49427585)
(0 -0.0061462632 0.21386513)
(0 0.0015264981 0.17654887)
(0 0.031359562 0.47120142)
(0 0.040275128 0.57350884)
(0 0.036286313 0.56656922)
(0 0.030384394 0.54535357)
(0 0.026430411 0.53368828)
(0 0.023309103 0.52700558)
(0 0.020486423 0.52214882)
(0 0.017971897 0.51840036)
(0 0.015721388 0.51549011)
(0 0.013700304 0.5132157)
(0 0.011876981 0.51142644)
(0 0.010220911 0.51001328)
(0 0.0087056424 0.50889665)
(0 0.0073074567 0.5080178)
(0 0.0060050643 0.50733316)
(0 0.0047793264 0.50681054)
(0 0.0036128467 0.50642644)
(0 0.0024895982 0.50616426)
(0 0.0013945573 0.50601306)
(0 0.00031335723 0.50596671)
(0 -0.00076805724 0.50602351)
(0 -0.0018638128 0.50618604)
(0 -0.0029883714 0.50646141)
(0 -0.0041569429 0.50686165)
(0 -0.0053858206 0.50740467)
(0 -0.0066927528 0.5081156)
(0 -0.0080973516 0.50902877)
(0 -0.0096214368 0.5101906)
(0 -0.011289291 0.51166379)
(0 -0.013128943 0.51353385)
(0 -0.015170825 0.51591843)
(0 -0.017445847 0.51897644)
(0 -0.02000173 0.52291971)
(0 -0.022846267 0.52822173)
(0 -0.026252742 0.53701999)
(0 -0.031136036 0.55361965)
(0 -0.035480389 0.56245577)
(0 -0.030294866 0.47855733)
(0 -0.0035330537 0.19536668)
(0 5.1549108e-05 0.1630209)
(0 0.025713855 0.4531817)
(0 0.036859662 0.56962765)
(0 0.034861215 0.57095779)
(0 0.029569763 0.54992136)
(0 0.025883475 0.53708712)
(0 0.023025747 0.52987573)
(0 0.020419828 0.52473184)
(0 0.018056115 0.52073178)
(0 0.015905461 0.51759522)
(0 0.013946351 0.51512327)
(0 0.012155663 0.51316367)
(0 0.010510088 0.51160516)
(0 0.008988792 0.51036598)
(0 0.0075723122 0.50938528)
(0 0.006242649 0.50861767)
(0 0.0049831855 0.50802933)
(0 0.0037784656 0.50759549)
(0 0.0026139832 0.50729853)
(0 0.0014759458 0.50712677)
(0 0.00035103605 0.50707369)
(0 -0.00077383022 0.50713745)
(0 -0.0019118028 0.50732085)
(0 -0.0030762631 0.50763143)
(0 -0.004281144 0.50808204)
(0 -0.0055411488 0.50869167)
(0 -0.0068719885 0.50948683)
(0 -0.0082906309 0.51050355)
(0 -0.0098154899 0.5117902)
(0 -0.011466352 0.5134117)
(0 -0.013265338 0.51545587)
(0 -0.015236073 0.51804271)
(0 -0.017399538 0.52133093)
(0 -0.019789008 0.5255357)
(0 -0.022418117 0.53125482)
(0 -0.025594612 0.54098769)
(0 -0.030052471 0.55788323)
(0 -0.032930693 0.56042799)
(0 -0.025704885 0.4629543)
(0 -0.0017032653 0.18038521)
(0 -0.00074333269 0.1524911)
(0 0.020933093 0.43618271)
(0 0.033472793 0.56421963)
(0 0.033209434 0.57406219)
(0 0.028604229 0.55403126)
(0 0.025173277 0.54022188)
(0 0.022553428 0.53250304)
(0 0.020161288 0.52712388)
(0 0.017956754 0.52292733)
(0 0.01591963 0.51960803)
(0 0.01403889 0.51697221)
(0 0.01229847 0.51486833)
(0 0.010681216 0.51318442)
(0 0.0091712527 0.5118378)
(0 0.0077530674 0.51076659)
(0 0.0064118513 0.50992436)
(0 0.0051335359 0.50927636)
(0 0.0039047149 0.50879698)
(0 0.0027125633 0.50846792)
(0 0.0015447095 0.50827703)
(0 0.00038908993 0.50821749)
(0 -0.00076619628 0.50828739)
(0 -0.0019331086 0.50848964)
(0 -0.0031237428 0.50883214)
(0 -0.0043505635 0.50932825)
(0 -0.0056265225 0.50999769)
(0 -0.0069651842 0.51086785)
(0 -0.00838084 0.51197577)
(0 -0.009888594 0.51337095)
(0 -0.011504088 0.51511943)
(0 -0.013244127 0.51731007)
(0 -0.015126315 0.52006335)
(0 -0.017163553 0.5235359)
(0 -0.019378281 0.52795365)
(0 -0.021795859 0.53406245)
(0 -0.024744605 0.54460719)
(0 -0.028715502 0.56114914)
(0 -0.030219088 0.55694356)
(0 -0.02156986 0.44790771)
(0 -0.00049876592 0.16833436)
(0 -0.0010950364 0.14426306)
(0 0.017007767 0.42042059)
(0 0.030269586 0.55774712)
(0 0.031448314 0.57600592)
(0 0.027561063 0.55767576)
(0 0.024372415 0.54311739)
(0 0.021957836 0.5349094)
(0 0.019765816 0.5293303)
(0 0.017719038 0.52498248)
(0 0.015800438 0.52151862)
(0 0.01400701 0.51874952)
(0 0.012328247 0.51652585)
(0 0.01075201 0.51473598)
(0 0.0092665949 0.51329711)
(0 0.0078599762 0.51214712)
(0 0.0065202732 0.51123918)
(0 0.0052358441 0.5105381)
(0 0.0039953134 0.51001784)
(0 0.0027875834 0.50965974)
(0 0.0016017912 0.50945135)
(0 0.00042723963 0.50938569)
(0 -0.00074666557 0.50946078)
(0 -0.001930569 0.50967962)
(0 -0.003135169 0.51005031)
(0 -0.0043713739 0.51058652)
(0 -0.0056503378 0.51130837)
(0 -0.006983501 0.51224371)
(0 -0.0083825976 0.51343005)
(0 -0.0098596728 0.51491732)
(0 -0.011426713 0.51677194)
(0 -0.013095968 0.51908289)
(0 -0.014879935 0.52196979)
(0 -0.016785125 0.52558653)
(0 -0.018827105 0.53017938)
(0 -0.021047449 0.5366548)
(0 -0.023775011 0.54785807)
(0 -0.027226214 0.56346401)
(0 -0.027515431 0.55236827)
(0 -0.017963213 0.43368518)
(0 0.00023851188 0.15866924)
(0 -0.0011769943 0.13778642)
(0 0.013860197 0.40597793)
(0 0.027329553 0.5505877)
(0 0.029665264 0.57693893)
(0 0.026491861 0.56086165)
(0 0.0235329 0.54579659)
(0 0.021290031 0.53712085)
(0 0.019277942 0.53136353)
(0 0.017380734 0.52689988)
(0 0.015579497 0.52332381)
(0 0.013876758 0.52044822)
(0 0.012266127 0.51812688)
(0 0.010739367 0.51624906)
(0 0.0092881392 0.51473243)
(0 0.0079033707 0.51351512)
(0 0.0065757552 0.51255037)
(0 0.0052958643 0.51180293)
(0 0.0040542421 0.51124664)
(0 0.0028414776 0.5108627)
(0 0.0016482226 0.51063855)
(0 0.00046518128 0.51056712)
(0 -0.00071688612 0.5106464)
(0 -0.0019072608 0.51087944)
(0 -0.0031152103 0.5112744)
(0 -0.0043500816 0.51184509)
(0 -0.005621273 0.51261178)
(0 -0.0069382157 0.51360245)
(0 -0.0083103036 0.51485465)
(0 -0.0097468661 0.51641828)
(0 -0.011256782 0.51835954)
(0 -0.012848576 0.52076694)
(0 -0.014530623 0.52375838)
(0 -0.016304711 0.52748548)
(0 -0.018183285 0.53222522)
(0 -0.020226436 0.53904438)
(0 -0.022742119 0.55073374)
(0 -0.025666364 0.56491325)
(0 -0.024930179 0.54702404)
(0 -0.01489596 0.42043796)
(0 0.00064633505 0.15092846)
(0 -0.0011074767 0.13262254)
(0 0.011379685 0.39284858)
(0 0.024680005 0.54303854)
(0 0.027918429 0.57701822)
(0 0.025429175 0.56360909)
(0 0.022689085 0.54828127)
(0 0.020587671 0.53916475)
(0 0.01873242 0.53324019)
(0 0.016972485 0.52868679)
(0 0.015283365 0.52502503)
(0 0.013670705 0.52206574)
(0 0.012130952 0.519666)
(0 0.01065876 0.51771639)
(0 0.0092483887 0.51613531)
(0 0.0078931672 0.51486144)
(0 0.0065859719 0.51384839)
(0 0.0053193232 0.51306113)
(0 0.0040855157 0.5124736)
(0 0.0028767229 0.51206702)
(0 0.0016850563 0.51182885)
(0 0.00050259501 0.51175199)
(0 -0.00067855836 0.51183445)
(0 -0.0018663338 0.51207924)
(0 -0.003068597 0.51249455)
(0 -0.0042931907 0.51309417)
(0 -0.005547862 0.5138983)
(0 -0.0068402078 0.5149348)
(0 -0.0081775555 0.51624102)
(0 -0.0095669115 0.51786643)
(0 -0.011014612 0.51987672)
(0 -0.012526262 0.52235949)
(0 -0.014107105 0.52543046)
(0 -0.015755788 0.52924073)
(0 -0.017484764 0.53410777)
(0 -0.019372463 0.54124611)
(0 -0.021686596 0.55324185)
(0 -0.024096251 0.56560427)
(0 -0.022525206 0.54118095)
(0 -0.012337985 0.40823151)
(0 0.00083357328 0.14471942)
(0 -0.00096289017 0.12842696)
(0 0.0094475332 0.38096938)
(0 0.022316984 0.53532383)
(0 0.026242314 0.57639177)
(0 0.024390865 0.56594595)
(0 0.021861171 0.55059102)
(0 0.019876524 0.54106752)
(0 0.018154988 0.53497894)
(0 0.01651819 0.53035345)
(0 0.014933607 0.52662688)
(0 0.013407801 0.52360266)
(0 0.011938997 0.52114086)
(0 0.010523901 0.5191335)
(0 0.0091586773 0.51749982)
(0 0.0078385355 0.51617918)
(0 0.006558143 0.51512571)
(0 0.0053116857 0.51430476)
(0 0.0040930072 0.51369052)
(0 0.0028957252 0.51326436)
(0 0.0017133129 0.51301384)
(0 0.00053915319 0.51293189)
(0 -0.00063336559 0.51301651)
(0 -0.0018108801 0.5132707)
(0 -0.0029999287 0.51370257)
(0 -0.0042069497 0.51432579)
(0 -0.0054381851 0.51516037)
(0 -0.0066996058 0.51623389)
(0 -0.0079967698 0.51758326)
(0 -0.0093347634 0.5192574)
(0 -0.010717918 0.52132124)
(0 -0.012149652 0.5238613)
(0 -0.013632965 0.52699111)
(0 -0.015164803 0.53086381)
(0 -0.016759929 0.53584564)
(0 -0.018512759 0.54327574)
(0 -0.020635633 0.55539997)
(0 -0.022557115 0.5656501)
(0 -0.020327796 0.53505493)
(0 -0.010236408 0.39706933)
(0 0.00088046179 0.1397106)
(0 -0.00079068636 0.12493971)
(0 0.0079512505 0.3702466)
(0 0.020219737 0.52760714)
(0 0.024654109 0.57519063)
(0 0.023384818 0.56790267)
(0 0.021059265 0.55274175)
(0 0.019172821 0.5428524)
(0 0.017563687 0.53659846)
(0 0.016035721 0.53191143)
(0 0.014547112 0.5281358)
(0 0.013103444 0.52506167)
(0 0.011703909 0.5225513)
(0 0.010346591 0.5204981)
(0 0.0090289781 0.51882208)
(0 0.0077476987 0.51746332)
(0 0.0064988471 0.51637652)
(0 0.0052779957 0.51552748)
(0 0.0040803255 0.5148907)
(0 0.0029007374 0.51444782)
(0 0.0017339447 0.51418649)
(0 0.00057452607 0.51409974)
(0 -0.00058292287 0.51418557)
(0 -0.0017438349 0.51444693)
(0 -0.0029135344 0.51489181)
(0 -0.0040971749 0.51553368)
(0 -0.0052996617 0.51639229)
(0 -0.0065255606 0.51749483)
(0 -0.0077789541 0.51887768)
(0 -0.0090633892 0.52058911)
(0 -0.010381675 0.52269328)
(0 -0.011735656 0.52527558)
(0 -0.013126843 0.52844763)
(0 -0.014551733 0.53236786)
(0 -0.016028872 0.5374571)
(0 -0.017664689 0.54514791)
(0 -0.019605992 0.55723071)
(0 -0.021074789 0.56515875)
(0 -0.01834234 0.52881262)
(0 -0.008528216 0.38691532)
(0 0.00084355966 0.13563155)
(0 -0.00061881161 0.12197167)
(0 0.006791853 0.36057491)
(0 0.018359779 0.52000506)
(0 0.023158968 0.57352727)
(0 0.022412558 0.56950956)
(0 0.02028677 0.55474524)
(0 0.018485711 0.54453825)
(0 0.016970487 0.53811578)
(0 0.015537935 0.53337229)
(0 0.01413668 0.52955896)
(0 0.012769788 0.52644666)
(0 0.011436821 0.5238986)
(0 0.010136723 0.52180941)
(0 0.0088678427 0.52009978)
(0 0.0076278414 0.51871038)
(0 0.0064139208 0.51759647)
(0 0.0052227823 0.51672432)
(0 0.0040507383 0.51606878)
(0 0.0028938063 0.51561174)
(0 0.0017478031 0.51534101)
(0 0.00060839934 0.51524972)
(0 -0.00052872961 0.51533587)
(0 -0.0016679205 0.51560233)
(0 -0.0028133834 0.51605696)
(0 -0.0039691398 0.516713)
(0 -0.0051389307 0.51758987)
(0 -0.0063261309 0.51871433)
(0 -0.0075336195 0.52012223)
(0 -0.0087637417 0.5218612)
(0 -0.010018192 0.52399463)
(0 -0.011297739 0.52660688)
(0 -0.012603002 0.5298083)
(0 -0.013931077 0.533766)
(0 -0.015305023 0.53895843)
(0 -0.016838283 0.54687505)
(0 -0.018606694 0.55875878)
(0 -0.019663094 0.56422816)
(0 -0.016558968 0.52257956)
(0 -0.0071485548 0.37771134)
(0 0.00076143853 0.13226899)
(0 -0.00046217566 0.11938872)
(0 0.0058869584 0.35184875)
(0 0.016706512 0.51259892)
(0 0.021754266 0.57149677)
(0 0.021471768 0.5707958)
(0 0.019542804 0.55660982)
(0 0.017819292 0.54613944)
(0 0.016382781 0.53954559)
(0 0.015033727 0.53474676)
(0 0.013711724 0.53090349)
(0 0.012416188 0.52776198)
(0 0.01114661 0.52518487)
(0 0.0099024101 0.52306774)
(0 0.0086824448 0.52133176)
(0 0.007485104 0.51991808)
(0 0.0063084277 0.51878244)
(0 0.0051500204 0.51789153)
(0 0.0040071364 0.51722055)
(0 0.0028767501 0.51675163)
(0 0.0017556431 0.51647276)
(0 0.00064045846 0.51637714)
(0 -0.00047216744 0.51646278)
(0 -0.0015855912 0.51673247)
(0 -0.002703032 0.51719393)
(0 -0.0038275227 0.51786014)
(0 -0.0049618056 0.51875019)
(0 -0.0061082633 0.51989041)
(0 -0.0072688102 0.52131613)
(0 -0.0084448744 0.52307441)
(0 -0.0096373648 0.525228)
(0 -0.010846356 0.52786039)
(0 -0.012072038 0.53108145)
(0 -0.013312915 0.53507035)
(0 -0.014596664 0.54036326)
(0 -0.016038274 0.5484673)
(0 -0.017641202 0.5600092)
(0 -0.018326982 0.56294435)
(0 -0.01495988 0.51644836)
(0 -0.0060361314 0.3693889)
(0 0.00065950252 0.12945844)
(0 -0.00032730067 0.11709779)
(0 0.0051709752 0.34396852)
(0 0.015230526 0.50544403)
(0 0.020432964 0.56917889)
(0 0.020558099 0.57178878)
(0 0.01882393 0.55834096)
(0 0.017174205 0.54766622)
(0 0.015804607 0.54089996)
(0 0.014528947 0.53604426)
(0 0.013278962 0.532176)
(0 0.012049684 0.529012)
(0 0.010840218 0.52641261)
(0 0.0096501821 0.52427401)
(0 0.0084786953 0.52251766)
(0 0.0073246405 0.52108504)
(0 0.0061866803 0.51993225)
(0 0.005063133 0.51902634)
(0 0.0039520275 0.5183428)
(0 0.0028511488 0.51786399)
(0 0.0017581116 0.51757807)
(0 0.00067040865 0.51747829)
(0 -0.00041447364 0.51756269)
(0 -0.0014990284 0.51783396)
(0 -0.0025856115 0.51829965)
(0 -0.0036763994 0.51897252)
(0 -0.0047732882 0.51987134)
(0 -0.0058778428 0.52102202)
(0 -0.0069912136 0.52245945)
(0 -0.0081141404 0.5242302)
(0 -0.009246997 0.52639654)
(0 -0.010389448 0.52904131)
(0 -0.011541581 0.53227489)
(0 -0.012703874 0.53629149)
(0 -0.013908234 0.54168237)
(0 -0.015265759 0.54993256)
(0 -0.016709276 0.56100607)
(0 -0.017065414 0.56138113)
(0 -0.013523873 0.51048574)
(0 -0.0051363467 0.36187662)
(0 0.00055379322 0.12707541)
(0 -0.00021566541 0.1150356)
(0 0.0045934711 0.33684392)
(0 0.013905235 0.49857685)
(0 0.019186037 0.56664036)
(0 0.019666455 0.57251384)
(0 0.018125418 0.559942)
(0 0.016548888 0.54912527)
(0 0.015237655 0.54218837)
(0 0.014027191 0.53727279)
(0 0.012843026 0.53338233)
(0 0.011675457 0.53020081)
(0 0.010522981 0.52758442)
(0 0.0093852198 0.52542952)
(0 0.0082613952 0.5236577)
(0 0.0071507151 0.52221057)
(0 0.0060522984 0.5210445)
(0 0.0049650236 0.52012678)
(0 0.0038875531 0.51943316)
(0 0.0028183535 0.51894619)
(0 0.0017557527 0.51865415)
(0 0.00069797911 0.51855038)
(0 -0.00035673858 0.51863287)
(0 -0.001410141 0.51890426)
(0 -0.0024638373 0.51937193)
(0 -0.0035192693 0.52004843)
(0 -0.0045776211 0.5209522)
(0 -0.005639787 0.52210884)
(0 -0.0067063146 0.52355285)
(0 -0.0077774295 0.52533044)
(0 -0.0088531486 0.52750354)
(0 -0.0099329221 0.53015459)
(0 -0.011016953 0.53339559)
(0 -0.012108018 0.53743825)
(0 -0.013241491 0.54292375)
(0 -0.014519565 0.55127667)
(0 -0.015808533 0.56177182)
(0 -0.015873807 0.55960084)
(0 -0.012229284 0.50473843)
(0 -0.0044025901 0.35510476)
(0 0.00045382748 0.1250274)
(0 -0.00012596914 0.11315997)
(0 0.0041167149 0.33039533)
(0 0.012707454 0.49202061)
(0 0.018004034 0.56393721)
(0 0.018791807 0.57299433)
(0 0.01744214 0.56141459)
(0 0.015940555 0.55052021)
(0 0.01468208 0.54341784)
(0 0.013530456 0.53843884)
(0 0.012407002 0.53452746)
(0 0.011297257 0.53133206)
(0 0.01019895 0.52870279)
(0 0.0091115889 0.52653574)
(0 0.0080344054 0.52475244)
(0 0.0069668202 0.52329449)
(0 0.0059082876 0.52211838)
(0 0.0048581275 0.52119157)
(0 0.0038155213 0.52048999)
(0 0.0027795067 0.51999633)
(0 0.00174902 0.51969899)
(0 0.00072292305 0.51959134)
(0 -0.0002999129 0.51967136)
(0 -0.0013205771 0.5199416)
(0 -0.0023400358 0.5204093)
(0 -0.0033591033 0.5210868)
(0 -0.0043783656 0.5219923)
(0 -0.0053981648 0.52315108)
(0 -0.0064185699 0.52459738)
(0 -0.0074394162 0.52637714)
(0 -0.0084604788 0.52855213)
(0 -0.0094811161 0.5312047)
(0 -0.010501773 0.5344495)
(0 -0.011527623 0.5385176)
(0 -0.012596498 0.54409285)
(0 -0.013797343 0.55250369)
(0 -0.014935654 0.56232686)
(0 -0.014745893 0.55765561)
(0 -0.011055775 0.49923824)
(0 -0.0037964191 0.34900797)
(0 0.00036467995 0.12324702)
(0 -5.5581823e-05 0.11144319)
(0 0.0037130712 0.32455401)
(0 0.011617388 0.48578941)
(0 0.016877997 0.56111673)
(0 0.017929657 0.57325176)
(0 0.01676916 0.56275935)
(0 0.015345904 0.55185221)
(0 0.01413713 0.54459318)
(0 0.01303969 0.53954746)
(0 0.011972886 0.53561543)
(0 0.010917768 0.53240885)
(0 0.0098711876 0.52976997)
(0 0.0088324674 0.52759415)
(0 0.007800816 0.52580265)
(0 0.0067758003 0.52433696)
(0 0.0057571278 0.52315353)
(0 0.0047444732 0.52221994)
(0 0.0037374465 0.52151221)
(0 0.0027355666 0.52101314)
(0 0.0017382884 0.5207112)
(0 0.00074501854 0.52059978)
(0 -0.00024481752 0.52067683)
(0 -0.001231747 0.52094483)
(0 -0.0022161834 0.52141089)
(0 -0.0031984047 0.52208715)
(0 -0.0041784916 0.5229916)
(0 -0.0051563265 0.52414931)
(0 -0.0061315886 0.52559429)
(0 -0.0071038049 0.52737237)
(0 -0.0080725699 0.52954524)
(0 -0.0090372146 0.53219552)
(0 -0.009998482 0.53544153)
(0 -0.010963845 0.53953478)
(0 -0.011972416 0.54519294)
(0 -0.013096397 0.55361621)
(0 -0.014087265 0.56268955)
(0 -0.013675039 0.55558883)
(0 -0.0099853276 0.49400589)
(0 -0.0032871015 0.34352672)
(0 0.00028844482 0.12168611)
(0 -1.4448136e-06 0.10986723)
(0 0.0033625991 0.31926143)
(0 0.010618355 0.47989117)
(0 0.015799942 0.55821922)
(0 0.01707628 0.57330609)
(0 0.0161021 0.56397621)
(0 0.014761625 0.55312055)
(0 0.013601628 0.54571728)
(0 0.012555218 0.54060236)
(0 0.011541972 0.53664945)
(0 0.010538938 0.53343375)
(0 0.009542027 0.53078796)
(0 0.0085503536 0.52860616)
(0 0.0075631084 0.52680923)
(0 0.0065799744 0.52533838)
(0 0.0056008637 0.52414997)
(0 0.0046257462 0.52321156)
(0 0.0036545932 0.52249924)
(0 0.0026873336 0.52199586)
(0 0.001723867 0.52168993)
(0 0.00076406895 0.52157483)
(0 -0.00019215624 0.52164851)
(0 -0.0011448507 0.52191334)
(0 -0.0020939518 0.52237631)
(0 -0.0030392761 0.52304942)
(0 -0.0039804728 0.52395048)
(0 -0.0049170328 0.52510437)
(0 -0.0058483058 0.52654498)
(0 -0.0067735564 0.5283181)
(0 -0.0076922187 0.5304855)
(0 -0.0086036139 0.53313034)
(0 -0.0095087831 0.53637559)
(0 -0.010417239 0.54049349)
(0 -0.011368124 0.54622548)
(0 -0.012414288 0.55461581)
(0 -0.013260566 0.56287642)
(0 -0.012655177 0.55343656)
(0 -0.0090027037 0.48905392)
(0 -0.002850794 0.33860769)
(0 0.00022523594 0.12031067)
(0 3.9386948e-05 0.10842049)
(0 0.0030510147 0.31446835)
(0 0.0096964178 0.47432959)
(0 0.014763086 0.55527917)
(0 0.016228856 0.57317584)
(0 0.015437392 0.56506486)
(0 0.014184749 0.55432305)
(0 0.01307433 0.5467914)
(0 0.012077084 0.54160609)
(0 0.011115152 0.53763193)
(0 0.010162238 0.53440882)
(0 0.0092133018 0.53175844)
(0 0.0082672542 0.52957309)
(0 0.0073233057 0.52777312)
(0 0.0063812537 0.52629935)
(0 0.005441194 0.52510797)
(0 0.0045033554 0.52416646)
(0 0.003568023 0.5234509)
(0 0.002635481 0.52294417)
(0 0.0017060142 0.52263478)
(0 0.00077990487 0.52251612)
(0 -0.00014252747 0.52258606)
(0 -0.0010609048 0.52284693)
(0 -0.0019747513 0.52330559)
(0 -0.0028834837 0.52397391)
(0 -0.0037863756 0.52486956)
(0 -0.0046825749 0.52601728)
(0 -0.0055711381 0.5274509)
(0 -0.0064510867 0.52921624)
(0 -0.0073216827 0.53137525)
(0 -0.0081822204 0.53401192)
(0 -0.0090339976 0.5372547)
(0 -0.0098881823 0.54139613)
(0 -0.010782676 0.54719065)
(0 -0.011749268 0.55550342)
(0 -0.012453775 0.5629024)
(0 -0.01168142 0.55122872)
(0 -0.0080955679 0.48438874)
(0 -0.0024695897 0.33420364)
(0 0.00017388501 0.1190969)
(0 6.9447043e-05 0.10709555)
(0 0.0027680717 0.31013359)
(0 0.0088400244 0.46910551)
(0 0.013761948 0.55232618)
(0 0.015385557 0.5728783)
(0 0.014772447 0.56602492)
(0 0.013612917 0.55545657)
(0 0.012554205 0.54781551)
(0 0.011605324 0.54256022)
(0 0.010693172 0.53856461)
(0 0.0097888974 0.53533566)
(0 0.008886541 0.53268287)
(0 0.0079848495 0.53049618)
(0 0.0070831087 0.5286953)
(0 0.0061812522 0.52722061)
(0 0.0052795591 0.52602803)
(0 0.0043785 0.52508493)
(0 0.0034786431 0.52436734)
(0 0.0025805877 0.52385812)
(0 0.0016849576 0.52354576)
(0 0.00079239067 0.52342363)
(0 -9.6430996e-05 0.52348956)
(0 -0.00098076277 0.5237458)
(0 -0.001859768 0.52419911)
(0 -0.0027325117 0.52486123)
(0 -0.0035979345 0.52574972)
(0 -0.0044548741 0.52688923)
(0 -0.0053021119 0.52831356)
(0 -0.0061384259 0.53006861)
(0 -0.0069628739 0.53221659)
(0 -0.0077746815 0.5348426)
(0 -0.0085753291 0.53808122)
(0 -0.0093771673 0.54224415)
(0 -0.010215633 0.54808773)
(0 -0.011100579 0.55627975)
(0 -0.011666413 0.56278112)
(0 -0.010750472 0.54899015)
(0 -0.0072544221 0.48001211)
(0 -0.0021306878 0.33027275)
(0 0.00013255036 0.11802821)
(0 9.0733492e-05 0.10588776)
(0 0.0025063606 0.30622286)
(0 0.0080397229 0.46421767)
(0 0.012792405 0.54938566)
(0 0.014545645 0.57242955)
(0 0.014105805 0.56685617)
(0 0.013044585 0.55651732)
(0 0.012040656 0.54878855)
(0 0.011140181 0.54346551)
(0 0.010276832 0.53944873)