/*--------------------------------*- C++ -*----------------------------------*\
  =========                 |
  \\      /  F ield         | OpenFOAM: The Open Source CFD Toolbox
   \\    /   O peration     | Website:  https://openfoam.org
    \\  /    A nd           | Version:  10
     \\/     M anipulation  |
\*---------------------------------------------------------------------------*/
FoamFile
{
    format      ascii;
    class       surfaceScalarField;
    location    "0.27";
    object      phi;
}
// * * * * * * * * * * * * * * * * * * * * * * * * * * * * * * * * * * * * * //

dimensions      [1 0 -1 0 0 0 0];

internalField   nonuniform List<scalar> 
7860
(
3.9895995e-08
5.2881204e-07
1.2192741e-08
5.9641106e-07
7.4279212e-09
5.7347257e-07
5.4994416e-09
5.7063619e-07
4.1150164e-09
5.7009211e-07
3.2011578e-09
5.6962152e-07
2.5591566e-09
5.6934964e-07
2.0793196e-09
5.6918746e-07
1.7093183e-09
5.6907762e-07
1.4166295e-09
5.6900029e-07
1.1794578e-09
5.6894477e-07
9.8304038e-10
5.6890401e-07
8.1703388e-10
5.6887359e-07
6.7394828e-10
5.6885067e-07
5.4821052e-10
5.6883331e-07
4.3556018e-10
5.6882022e-07
3.326438e-10
5.6881049e-07
2.3673433e-10
5.6880348e-07
1.4552907e-10
5.6879877e-07
5.6997168e-11
5.687961e-07
-3.0743881e-11
5.6879531e-07
-1.1953609e-10
5.6879636e-07
-2.1128551e-10
5.6879932e-07
-3.0806928e-10
5.6880435e-07
-4.1226791e-10
5.6881177e-07
-5.2672801e-10
5.6882203e-07
-6.5498328e-10
5.6883583e-07
-8.0156718e-10
5.6885416e-07
-9.7247367e-10
5.6887849e-07
-1.1758637e-09
5.6891098e-07
-1.4232386e-09
5.6895497e-07
-1.7314093e-09
5.6901577e-07
-2.1253539e-09
5.6910156e-07
-2.6449533e-09
5.6922722e-07
-3.3726211e-09
5.6943531e-07
-4.4639066e-09
5.6979894e-07
-6.0092088e-09
5.7025299e-07
-9.5081885e-09
5.722067e-07
-2.957604e-08
5.8877561e-07
5.3913189e-07
5.9672541e-08
4.691395e-07
3.6666017e-08
6.1941758e-07
2.2628198e-08
5.8751039e-07
1.6253608e-08
5.7701078e-07
1.2290541e-08
5.7405517e-07
9.60628e-09
5.7230578e-07
7.6774848e-09
5.7127844e-07
6.2361195e-09
5.7062883e-07
5.126588e-09
5.7018715e-07
4.2488181e-09
5.6987806e-07
3.5374754e-09
5.6965611e-07
2.9483913e-09
5.6949309e-07
2.4505209e-09
5.6937146e-07
2.0213892e-09
5.692798e-07
1.6442819e-09
5.6921042e-07
1.306422e-09
5.6915808e-07
9.9775268e-10
5.6911916e-07
7.1009594e-10
5.6909113e-07
4.3654645e-10
5.6907232e-07
1.7101303e-10
5.6906163e-07
-9.2150226e-11
5.6905847e-07
-3.5846612e-10
5.6906267e-07
-6.3364622e-10
5.690745e-07
-9.2392244e-10
5.6909463e-07
-1.2364334e-09
5.6912428e-07
-1.5797156e-09
5.6916531e-07
-1.9643658e-09
5.6922048e-07
-2.4039796e-09
5.6929378e-07
-2.9165394e-09
5.6939105e-07
-3.5265371e-09
5.6952098e-07
-4.268391e-09
5.6969682e-07
-5.1924657e-09
5.6993985e-07
-6.3753847e-09
5.7028448e-07
-7.9358641e-09
5.707877e-07
-1.0077125e-08
5.7157657e-07
-1.3205289e-08
5.7292711e-07
-1.8135119e-08
5.7518282e-07
-2.8177332e-08
5.8224891e-07
-4.5803199e-08
6.0640148e-07
4.9332869e-07
6.0008873e-08
4.0913063e-07
5.0487332e-08
6.2893912e-07
3.3370732e-08
6.0462699e-07
2.4817741e-08
5.8556377e-07
1.9323314e-08
5.795496e-07
1.5331564e-08
5.7629753e-07
1.2360778e-08
5.7424922e-07
1.0101601e-08
5.72888e-07
8.3406572e-09
5.7194809e-07
6.9348271e-09
5.7128389e-07
5.7880319e-09
5.7080291e-07
4.833507e-09
5.7044762e-07
4.0234882e-09
5.7018148e-07
3.3229907e-09
5.6998029e-07
2.7057513e-09
5.6982766e-07
2.1515382e-09
5.697123e-07
1.6443267e-09
5.6962637e-07
1.171018e-09
5.6956444e-07
7.2050554e-10
5.6952283e-07
2.8296175e-10
5.6949917e-07
-1.5073921e-10
5.6949217e-07
-5.8952753e-10
5.6950146e-07
-1.0426311e-09
5.695276e-07
-1.5200954e-09
5.6957209e-07
-2.0333866e-09
5.6963757e-07
-2.5961509e-09
5.6972808e-07
-3.2252261e-09
5.6984956e-07
-3.9420527e-09
5.700106e-07
-4.7747241e-09
5.7022372e-07
-5.7610497e-09
5.705073e-07
-6.9532134e-09
5.7088899e-07
-8.4254125e-09
5.7141205e-07
-1.0287044e-08
5.7214611e-07
-1.2699977e-08
5.7320064e-07
-1.5897368e-08
5.7477396e-07
-2.02411e-08
5.7727084e-07
-2.6709322e-08
5.8165104e-07
-3.8948784e-08
5.9448837e-07
-4.8167783e-08
6.1562048e-07
4.4516091e-07
5.4879113e-08
3.5425152e-07
5.7452276e-08
6.2636596e-07
4.046764e-08
6.2161163e-07
3.0778846e-08
5.9525257e-07
2.4643134e-08
5.8568531e-07
1.9952369e-08
5.8098829e-07
1.6312999e-08
5.7788859e-07
1.3466568e-08
5.7573444e-07
1.1200961e-08
5.742137e-07
9.3644754e-09
5.7312038e-07
7.8492265e-09
5.7231815e-07
6.576727e-09
5.7172011e-07
5.4891315e-09
5.7126907e-07
4.5431284e-09
5.709263e-07
3.7056241e-09
5.7066516e-07
2.9507625e-09
5.7046716e-07
2.2578271e-09
5.703193e-07
1.6097238e-09
5.7021255e-07
9.9184858e-10
5.7014071e-07
3.9120796e-10
5.7009982e-07
-2.0430418e-10
5.7008768e-07
-8.0654685e-10
5.701037e-07
-1.4277531e-09
5.7014881e-07
-2.0811844e-09
5.7022552e-07
-2.7818811e-09
5.7033827e-07
-3.5475907e-09
5.7049379e-07
-4.3999744e-09
5.7070194e-07
-5.366241e-09
5.7097687e-07
-6.4814264e-09
5.7133891e-07
-7.7916546e-09
5.7181753e-07
-9.3587044e-09
5.7245604e-07
-1.1266395e-08
5.7331974e-07
-1.3630989e-08
5.745107e-07
-1.6613829e-08
5.7618348e-07
-2.0412682e-08
5.7857281e-07
-2.5294224e-08
5.8215238e-07
-3.2518422e-08
5.8887524e-07
-4.5101995e-08
6.0707194e-07
-4.6550051e-08
6.1706853e-07
3.9861086e-07
4.7965841e-08
3.0628567e-07
6.0076669e-08
6.1425513e-07
4.5400289e-08
6.3628801e-07
3.4875481e-08
6.0577737e-07
2.8399966e-08
5.9216083e-07
2.3419703e-08
5.8596855e-07
1.9434351e-08
5.8187394e-07
1.6229172e-08
5.7893961e-07
1.3619652e-08
5.7682322e-07
1.1466385e-08
5.7527365e-07
9.6642455e-09
5.7412029e-07
8.1331952e-09
5.7325116e-07
6.8122119e-09
5.7259006e-07
5.6542845e-09
5.7208422e-07
4.6226391e-09
5.7169681e-07
3.6879907e-09
5.7140181e-07
2.8265019e-09
5.7118079e-07
2.0182448e-09
5.710208e-07
1.2460159e-09
5.7091294e-07
4.9439149e-10
5.7085144e-07
-2.5106587e-10
5.7083314e-07
-1.004517e-09
5.7085716e-07
-1.7805364e-09
5.7092482e-07
-2.5948352e-09
5.7103982e-07
-3.4650769e-09
5.7120851e-07
-4.411861e-09
5.7144057e-07
-5.4599633e-09
5.7175004e-07
-6.6399452e-09
5.7215685e-07
-7.9902807e-09
5.7268924e-07
-9.5602299e-09
5.7338748e-07
-1.1413615e-08
5.7430942e-07
-1.3633244e-08
5.7553937e-07
-1.6327418e-08
5.7720488e-07
-1.9639737e-08
5.7949579e-07
-2.3740458e-08
5.8267353e-07
-2.8932505e-08
5.8734443e-07
-3.6792732e-08
5.9673546e-07
-4.8465261e-08
6.1874447e-07
-4.3195079e-08
6.1179835e-07
3.5541578e-07
4.0336148e-08
2.6594953e-07
5.8994305e-08
5.9559698e-07
4.8330324e-08
6.4695199e-07
3.7588291e-08
6.1651941e-07
3.0929081e-08
5.9882004e-07
2.5894165e-08
5.9100347e-07
2.1780136e-08
5.8598797e-07
1.8392142e-08
5.8232761e-07
1.5577527e-08
5.7963783e-07
1.3214243e-08
5.7763693e-07
1.1206354e-08
5.7612818e-07
9.4785674e-09
5.7497895e-07
7.9717433e-09
5.7409688e-07
6.6389791e-09
5.7341699e-07
5.4426494e-09
5.7289314e-07
4.3521384e-09
5.7249232e-07
3.3420599e-09
5.7219087e-07
2.3908577e-09
5.71972e-07
1.479688e-09
5.7182411e-07
5.9149864e-10
5.7173963e-07
-2.8976118e-10
5.717144e-07
-1.1798585e-09
5.7174725e-07
-2.094979e-09
5.7183994e-07
-3.0524556e-09
5.719973e-07
-4.0715739e-09
5.7222763e-07
-5.1745191e-09
5.7254352e-07
-6.3875267e-09
5.7296305e-07
-7.7423179e-09
5.7351164e-07
-9.2778971e-09
5.7422482e-07
-1.1042859e-08
5.7515244e-07
-1.3098423e-08
5.7636499e-07
-1.5521852e-08
5.779628e-07
-1.8410544e-08
5.8009357e-07
-2.1888671e-08
5.8297392e-07
-2.6112013e-08
5.8689688e-07
-3.1490111e-08
5.9272252e-07
-3.9656421e-08
6.0490177e-07
-4.9174081e-08
6.2826213e-07
-3.8579386e-08
6.0120366e-07
3.1683639e-07
3.2862818e-08
2.3308671e-07
5.5250289e-08
5.7320951e-07
4.9232562e-08
6.5296971e-07
3.9061794e-08
6.2669017e-07
3.2430914e-08
6.0545092e-07
2.7518992e-08
5.9591539e-07
2.3438897e-08
5.9006807e-07
2.0003055e-08
5.8576345e-07
1.7094916e-08
5.8254597e-07
1.4612257e-08
5.8011959e-07
1.2471294e-08
5.7826915e-07
1.0604777e-08
5.7684547e-07
8.9584664e-09
5.7574319e-07
7.4881723e-09
5.7488728e-07
6.1575667e-09
5.7422374e-07
4.9364257e-09
5.7371346e-07
3.7991867e-09
5.7332811e-07
2.7237715e-09
5.7304742e-07
1.6906101e-09
5.7285727e-07
6.8180979e-10
5.7274843e-07
-3.1957698e-10
5.7271579e-07
-1.3302269e-09
5.727579e-07
-2.3672119e-09
5.7287693e-07
-3.4486822e-09
5.7307877e-07
-4.5946076e-09
5.7337355e-07
-5.8276255e-09
5.7377653e-07
-7.1740371e-09
5.7430946e-07
-8.665009e-09
5.7500261e-07
-1.0338023e-08
5.7589783e-07
-1.2238651e-08
5.7705307e-07
-1.4422946e-08
5.7854928e-07
-1.6960334e-08
5.8050018e-07
-1.9935654e-08
5.8306889e-07
-2.3449681e-08
5.8648795e-07
-2.7643835e-08
5.9109103e-07
-3.3036579e-08
5.9811527e-07
-4.1012884e-08
6.1287808e-07
-4.768969e-08
6.3493894e-07
-3.3377079e-08
5.8689104e-07
2.8345931e-07
2.6189131e-08
2.0689758e-07
5.0133036e-08
5.492656e-07
4.8493967e-08
6.5460878e-07
3.9491412e-08
6.3569273e-07
3.3077779e-08
6.1186455e-07
2.8412333e-08
6.0058084e-07
2.449318e-08
5.9398722e-07
2.1118459e-08
5.8913817e-07
1.8207292e-08
5.8545714e-07
1.5680451e-08
5.8264643e-07
1.3468803e-08
5.8048079e-07
1.1515169e-08
5.787991e-07
9.7720365e-09
5.7748632e-07
8.1996172e-09
5.764597e-07
6.7643821e-09
5.7565898e-07
5.4377885e-09
5.7504005e-07
4.1951919e-09
5.745707e-07
3.0149229e-09
5.7422769e-07
1.8774893e-09
5.739947e-07
7.6487308e-10
5.7386104e-07
-3.4010605e-10
5.7382076e-07
-1.4543865e-09
5.7387218e-07
-2.5952577e-09
5.740178e-07
-3.7809628e-09
5.7426447e-07
-5.0313416e-09
5.7462393e-07
-6.3685451e-09
5.7511374e-07
-7.8178479e-09
5.7575876e-07
-9.4085957e-09
5.7659336e-07
-1.1175313e-08
5.7766455e-07
-1.3158971e-08
5.7903673e-07
-1.5408639e-08
5.8079895e-07
-1.7983599e-08
5.8307514e-07
-2.0953304e-08
5.8603859e-07
-2.4392941e-08
5.8992758e-07
-2.8438048e-08
5.9513614e-07
-3.3693936e-08
6.0337116e-07
-4.1065211e-08
6.2024935e-07
-4.4799417e-08
6.3867314e-07
-2.8205457e-08
5.7029708e-07
2.5525386e-07
2.0571051e-08
1.8632653e-07
4.4583586e-08
5.2525307e-07
4.6643417e-08
6.5254895e-07
3.9153643e-08
6.431825e-07
3.3084236e-08
6.1793395e-07
2.8718011e-08
6.0494706e-07
2.5038506e-08
5.9766673e-07
2.1804105e-08
5.9237257e-07
1.8959489e-08
5.8830175e-07
1.644861e-08
5.8515731e-07
1.421797e-08
5.8271143e-07
1.2221389e-08
5.8079568e-07
1.0419088e-08
5.7928862e-07
8.7767123e-09
5.7810208e-07
7.2645106e-09
5.7717118e-07
5.8565182e-09
5.7644804e-07
4.5298202e-09
5.758974e-07
3.2638847e-09
5.7549362e-07
2.039956e-09
5.7521863e-07
8.4049762e-10
5.750605e-07
-3.5132773e-10
5.7501259e-07
-1.5521545e-09
5.7507301e-07
-2.7789113e-09
5.7524456e-07
-4.0493225e-09
5.7553488e-07
-5.3824328e-09
5.7595704e-07
-6.7991726e-09
5.7653048e-07
-8.322976e-09
5.7728257e-07
-9.9804654e-09
5.7825085e-07
-1.1802218e-08
5.794863e-07
-1.3823561e-08
5.8105807e-07
-1.6085482e-08
5.8306087e-07
-1.8635828e-08
5.8562549e-07
-2.1527704e-08
5.8893047e-07
-2.4815124e-08
5.93215e-07
-2.8644325e-08
5.9896534e-07
-3.3662722e-08
6.0838956e-07
-4.0146719e-08
6.2673335e-07
-4.1161323e-08
6.3968775e-07
-2.3417904e-08
5.5255366e-07
2.3183595e-07
1.601564e-08
1.7031089e-07
3.9144366e-08
5.0212435e-07
4.4119153e-08
6.4757417e-07
3.8290214e-08
6.4901144e-07
3.2654424e-08
6.2356974e-07
2.8592086e-08
6.090094e-07
2.5184053e-08
6.0107476e-07
2.2136366e-08
5.9542026e-07
1.9405134e-08
5.9103298e-07
1.6954301e-08
5.8760814e-07
1.4744891e-08
5.8492084e-07
1.2741309e-08
5.8279927e-07
1.0911643e-08
5.8111829e-07
9.2273748e-09
5.7978634e-07
7.6630323e-09
5.7873552e-07
6.1957703e-09
5.779153e-07
4.8049447e-09
5.7728823e-07
3.4716845e-09
5.7682688e-07
2.1784709e-09
5.7651184e-07
9.0872892e-10
5.7633024e-07
-3.5356936e-10
5.7627489e-07
-1.6242919e-09
5.7634373e-07
-2.9195385e-09
5.765398e-07
-4.256031e-09
5.7687138e-07
-5.6515131e-09
5.7735252e-07
-7.1251648e-09
5.7800413e-07
-8.6980297e-09
5.7885543e-07
-1.0393454e-08
5.7994627e-07
-1.223754e-08
5.8133039e-07
-1.425957e-08
5.830801e-07
-1.6492368e-08
5.8529367e-07
-1.8972682e-08
5.881058e-07
-2.1738651e-08
5.9169644e-07
-2.4830747e-08
5.963071e-07
-2.8417882e-08
6.0255247e-07
-3.3127305e-08
6.1309898e-07
-3.8552334e-08
6.3215838e-07
-3.7217905e-08
6.3835332e-07
-1.918382e-08
5.3451958e-07
2.1265213e-07
1.2423938e-08
1.5788696e-07
3.4114478e-08
4.8043381e-07
4.1250389e-08
6.4043826e-07
3.7079284e-08
6.5318255e-07
3.1942477e-08
6.2870655e-07
2.8169287e-08
6.1278259e-07
2.5033458e-08
6.0421059e-07
2.2192495e-08
5.9826122e-07
1.9601329e-08
5.9362415e-07
1.7239377e-08
5.8997009e-07
1.5080008e-08
5.8708021e-07
1.3096909e-08
5.8478236e-07
1.1265446e-08
5.8294975e-07
9.5627649e-09
5.8148902e-07
7.9677498e-09
5.8033054e-07
6.4608908e-09
5.7942216e-07
5.024105e-09
5.7872501e-07
3.6405091e-09
5.7821048e-07
2.2941638e-09
5.7785819e-07
9.6980333e-10
5.776546e-07
-3.4744169e-10
5.7759213e-07
-1.672323e-09
5.7766861e-07
-3.0197608e-09
5.7788724e-07
-4.4051244e-09
5.7825674e-07
-5.8445107e-09
5.7879191e-07
-7.3550181e-09
5.7951464e-07
-8.9550054e-09
5.8045542e-07
-1.0664324e-08
5.8165559e-07
-1.2504529e-08
5.8317059e-07
-1.4499036e-08
5.8507461e-07
-1.6673158e-08
5.8746779e-07
-1.9053782e-08
5.9048643e-07
-2.16664e-08
5.9430905e-07
-2.4545208e-08
5.9918591e-07
-2.7884787e-08
6.0589205e-07
-3.223038e-08
6.1744457e-07
-3.6524195e-08
6.3645219e-07
-3.3270439e-08
6.3509956e-07
-1.5564891e-08
5.1681403e-07
1.9708724e-07
9.6573262e-09
1.4822964e-07
2.9646235e-08
4.6044491e-07
3.8283778e-08
6.3180072e-07
3.5659024e-08
6.558073e-07
3.1059579e-08
6.3330599e-07
2.7553984e-08
6.1628818e-07
2.467329e-08
6.0709128e-07
2.2041266e-08
6.0089325e-07
1.9601943e-08
5.9606347e-07
1.7345354e-08
5.9222668e-07
1.5254884e-08
5.8917068e-07
1.3311953e-08
5.8672529e-07
1.1498228e-08
5.8476348e-07
9.7959832e-09
5.8319127e-07
8.1882155e-09
5.819383e-07
6.6587046e-09
5.8095167e-07
5.1920058e-09
5.8019171e-07
3.7733756e-09
5.7962911e-07
2.3886504e-09
5.7924291e-07
1.0240953e-09
5.7901916e-07
-3.3376603e-10
5.7894999e-07
-1.698331e-09
5.7903318e-07
-3.0831054e-09
5.7927202e-07
-4.501884e-09
5.7967552e-07
-5.9689202e-09
5.8025894e-07
-7.4990786e-09
5.8104479e-07
-9.1079579e-09
5.820643e-07
-1.0811967e-08
5.833596e-07
-1.2628354e-08
5.8498698e-07
-1.4575198e-08
5.8702145e-07
-1.6671238e-08
5.8956383e-07
-1.8934949e-08
5.9275014e-07
-2.1381838e-08
5.9675594e-07
-2.404604e-08
6.0185011e-07
-2.7143912e-08
6.0898992e-07
-3.1090108e-08
6.2139077e-07
-3.4266437e-08
6.3962852e-07
-2.9524076e-08
6.303572e-07
-1.2556482e-08
4.9984644e-07
1.8453076e-07
7.5669822e-09
1.4066266e-07
2.57873e-08
4.422246e-07
3.5390182e-08
6.2219784e-07
3.4139291e-08
6.5705819e-07
3.0088722e-08
6.3735656e-07
2.6826169e-08
6.1955074e-07
2.4173235e-08
6.0974421e-07
2.174046e-08
6.0332602e-07
1.9454261e-08
5.9834967e-07
1.7310289e-08
5.9437065e-07
1.5299663e-08
5.9118131e-07
1.3410003e-08
5.8861495e-07
1.1628192e-08
5.8654529e-07
9.9409176e-09
5.8487854e-07
8.3348624e-09
5.8354436e-07
6.7968724e-09
5.8248966e-07
5.3140581e-09
5.8167453e-07
3.8738263e-09
5.8106934e-07
2.4638613e-09
5.8065288e-07
1.072069e-09
5.8041095e-07
-3.1350448e-10
5.8033557e-07
-1.7047659e-09
5.8042444e-07
-3.1136778e-09
5.8068093e-07
-4.5523515e-09
5.8111419e-07
-6.0331271e-09
5.8173972e-07
-7.5686275e-09
5.8258029e-07
-9.1717778e-09
5.8366745e-07
-1.085577e-08
5.8504359e-07
-1.2633974e-08
5.8676518e-07
-1.4519818e-08
5.8890729e-07
-1.6526484e-08
5.9157049e-07
-1.8665569e-08
5.9488922e-07
-2.0945575e-08
5.9903595e-07
-2.340569e-08
6.0431022e-07
-2.6275625e-08
6.1185986e-07
-2.980756e-08
6.249227e-07
-3.1940714e-08
6.4176167e-07
-2.6101168e-08
6.2451765e-07
-1.0111949e-08
4.8385722e-07
1.7441881e-07
6.012333e-09
1.3465034e-07
2.2515895e-08
4.2572105e-07
3.2671461e-08
6.1204228e-07
3.260053e-08
6.5712912e-07
2.909e-08
6.4086709e-07
2.6046011e-08
6.2259473e-07
2.3588631e-08
6.1220159e-07
2.1337657e-08
6.0557699e-07
1.9198476e-08
6.0048885e-07
1.7167625e-08
5.964015e-07
1.5241729e-08
5.931072e-07
1.3413157e-08
5.9044353e-07
1.1672922e-08
5.8828552e-07
1.0011353e-08
5.8654011e-07
8.4183028e-09
5.8513741e-07
6.8833565e-09
5.8402461e-07
5.3959894e-09
5.8316189e-07
3.9456663e-09
5.8251966e-07
2.521894e-09
5.8207665e-07
1.1142362e-09
5.8181861e-07
-2.8769703e-10
5.817375e-07
-1.694274e-09
5.8183102e-07
-3.115874e-09
5.8210253e-07
-4.5629104e-09
5.8256123e-07
-6.0458391e-09
5.8322265e-07
-7.5751392e-09
5.8410959e-07
-9.1612574e-09
5.8525356e-07
-1.0814503e-08
5.8669684e-07
-1.2544887e-08
5.8849557e-07
-1.436195e-08
5.9072436e-07
-1.6274378e-08
5.9348292e-07
-1.8288469e-08
5.9690331e-07
-2.0408806e-08
6.0115628e-07
-2.2683184e-08
6.065846e-07
-2.5343526e-08
6.145202e-07
-2.8463339e-08
6.2804251e-07
-2.9661229e-08
6.4295957e-07
-2.3056988e-08
6.1791341e-07
-8.1628484e-09
4.6896308e-07
1.6625596e-07
4.8706753e-09
1.2977967e-07
1.977347e-08
4.1081828e-07
3.0175889e-08
6.0163987e-07
3.1095087e-08
6.5620992e-07
2.8102912e-08
6.4385927e-07
2.5255808e-08
6.2544183e-07
2.2961606e-08
6.144958e-07
2.087091e-08
6.0766769e-07
1.8867865e-08
6.0249189e-07
1.6945922e-08
5.9832344e-07
1.5105156e-08
5.9494797e-07
1.3341376e-08
5.9220731e-07
1.1648707e-08
5.8997819e-07
1.0020357e-08
5.8816846e-07
8.4488078e-09
5.8670896e-07
6.9260031e-09
5.8554741e-07
5.4435289e-09
5.8464437e-07
3.9927465e-09
5.8397045e-07
2.5648884e-09
5.8350451e-07
1.1511227e-09
5.8323237e-07
-2.5740671e-10
5.8314603e-07
-1.6695521e-09
5.8324316e-07
-3.0941409e-09
5.8352712e-07
-4.5399462e-09
5.8400703e-07
-6.0156423e-09
5.8469834e-07
-7.5297341e-09
5.8562369e-07
-9.0904543e-09
5.8681428e-07
-1.070562e-08
5.88312e-07
-1.2382451e-08
5.901724e-07
-1.4127376e-08
5.9246928e-07
-1.5945617e-08
5.9530116e-07
-1.7839701e-08
5.987974e-07
-1.9813101e-08
6.0312968e-07
-2.1923952e-08
6.0869545e-07
-2.4394367e-08
6.1699061e-07
-2.7116203e-08
6.3076435e-07
-2.7500099e-08
6.4334346e-07
-2.0400911e-08
6.1081422e-07
-6.6335319e-09
4.551957e-07
1.5962243e-07
4.0396496e-09
1.2574003e-07
1.7487549e-08
3.973704e-07
2.7917432e-08
5.9121001e-07
2.9653599e-08
6.5447376e-07
2.7150665e-08
6.463622e-07
2.4482754e-08
6.2810974e-07
2.2322309e-08
6.1665624e-07
2.0369296e-08
6.096207e-07
1.8489003e-08
6.0437219e-07
1.6668813e-08
6.0014363e-07
1.4910475e-08
5.9670631e-07
1.3212136e-08
5.9390564e-07
1.1570142e-08
5.9162019e-07
9.9798876e-09
5.8975872e-07
8.4359489e-09
5.882529e-07
6.9322391e-09
5.8705112e-07
5.4621701e-09
5.8611444e-07
4.018796e-09
5.8541382e-07
2.5949308e-09
5.8492837e-07
1.1832422e-09
5.8464406e-07
-2.2367416e-10
5.8455295e-07
-1.6332304e-09
5.8465272e-07
-3.0527871e-09
5.8494667e-07
-4.4895866e-09
5.8544383e-07
-5.9506737e-09
5.8615943e-07
-7.4427937e-09
5.871158e-07
-8.9722657e-09
5.8834376e-07
-1.0544828e-08
5.8988457e-07
-1.2165463e-08
5.9179303e-07
-1.3838226e-08
5.9414204e-07
-1.5565803e-08
5.9702874e-07
-1.7348316e-08
6.0057991e-07
-1.9190436e-08
6.049718e-07
-2.1160733e-08
6.1066575e-07
-2.346015e-08
6.1929003e-07
-2.5805923e-08
6.3311012e-07
-2.5497098e-08
6.4303464e-07
-1.8114415e-08
6.0343154e-07
-5.4496285e-09
4.4253091e-07
1.541728e-07
3.4365804e-09
1.2230347e-07
1.5584322e-08
3.8522269e-07
2.5889478e-08
5.8090487e-07
2.8291489e-08
6.5207175e-07
2.6245137e-08
6.4840855e-07
2.3742745e-08
6.3061213e-07
2.1691057e-08
6.1870793e-07
1.9854041e-08
6.1145772e-07
1.8082311e-08
6.0614392e-07
1.6355206e-08
6.0187074e-07
1.4674667e-08
5.9838685e-07
1.3040292e-08
5.9554002e-07
1.1449932e-08
5.9321055e-07
9.9005604e-09
5.9130809e-07
8.3883716e-09
5.8976509e-07
6.9088705e-09
5.8853062e-07
5.4570057e-09
5.875663e-07
4.0273022e-09
5.8684352e-07
2.6139835e-09
5.8634169e-07
1.2110791e-09
5.8604697e-07
-1.8748211e-10
5.8595151e-07
-1.5877847e-09
5.8605302e-07
-2.9958437e-09
5.8635473e-07
-4.4175146e-09
5.868655e-07
-5.8583942e-09
5.8760031e-07
-7.3237044e-09
5.8858111e-07
-8.8181588e-09
5.8983821e-07
-1.0345818e-08
5.9141223e-07
-1.1909942e-08
5.9335716e-07
-1.351285e-08
5.9574495e-07
-1.515549e-08
5.9867138e-07
-1.6836749e-08
6.0226117e-07
-1.8564242e-08
6.066993e-07
-2.0415773e-08
6.1251728e-07
-2.2561387e-08
6.2143564e-07
-2.4557373e-08
6.3510611e-07
-2.3669073e-08
6.4214634e-07
-1.6163529e-08
5.95926e-07
-4.5427278e-09
4.3091011e-07
1.4963007e-07
2.9968367e-09
1.1930665e-07
1.3995325e-08
3.7422423e-07
2.4074174e-08
5.7082605e-07
2.7013921e-08
6.4913202e-07
2.5390723e-08
6.5003174e-07
2.3043815e-08
6.3295904e-07
2.1080715e-08
6.2067103e-07
1.9340028e-08
6.1319841e-07
1.7662975e-08
6.0782097e-07
1.6019785e-08
6.0351393e-07
1.4411387e-08
5.9999524e-07
1.2838142e-08
5.9711326e-07
1.1298844e-08
5.9474984e-07
9.7915571e-09
5.9281537e-07
8.3136784e-09
5.9124296e-07
6.8619652e-09
5.8998234e-07
5.4326265e-09
5.8899564e-07
4.0214349e-09
5.8825471e-07
2.6238402e-09
5.8773929e-07
1.2350777e-09
5.8743573e-07
-1.4973001e-10
5.8733631e-07
-1.5354758e-09
5.8743876e-07
-2.9269718e-09
5.8774623e-07
-4.3288493e-09
5.8826738e-07
-5.7454508e-09
5.8901691e-07
-7.180713e-09
5.9001638e-07
-8.6380408e-09
5.9129554e-07
-1.0120183e-08
5.9289437e-07
-1.1629126e-08
5.948661e-07
-1.3165992e-08
5.9728182e-07
-1.473064e-08
6.0023603e-07
-1.6321695e-08
6.0385222e-07
-1.7950905e-08
6.0832851e-07
-1.9703186e-08
6.1426956e-07
-2.1709959e-08
6.2344242e-07
-2.3384055e-08
6.3678021e-07
-2.2017211e-08
6.4077949e-07
-1.4507221e-08
5.8841601e-07
-3.8529317e-09
4.2025582e-07
1.4577714e-07
2.6715803e-09
1.1663509e-07
1.2660815e-08
3.6423505e-07
2.2448778e-08
5.6103812e-07
2.5819542e-08
6.4576126e-07
2.4587042e-08
6.5126424e-07
2.2388689e-08
6.3515739e-07
2.0498707e-08
6.2256101e-07
1.8837243e-08
6.1485987e-07
1.7241948e-08
6.0941627e-07
1.5673658e-08
6.0508222e-07
1.4131352e-08
6.0153755e-07
1.2615623e-08
5.9862899e-07
1.1125794e-08
5.9623967e-07
9.6606342e-09
5.9428053e-07
8.2183996e-09
5.926852e-07
6.7968056e-09
5.9140393e-07
5.3930719e-09
5.9039937e-07
4.0040062e-09
5.8964378e-07
2.6261017e-09
5.8911719e-07
1.2556383e-09
5.8880619e-07
-1.1121729e-10
5.8870317e-07
-1.4783121e-09
5.8880586e-07
-2.8494084e-09
5.8911732e-07
-4.2280811e-09
5.8964605e-07
-5.617612e-09
5.9040644e-07
-7.0208799e-09
5.9141964e-07
-8.4402514e-09
5.9271491e-07
-9.8774856e-09
5.943316e-07
-1.1333672e-08
5.9632229e-07
-1.2809165e-08
5.9875731e-07
-1.4303256e-08
6.0173012e-07
-1.5815088e-08
6.0536406e-07
-1.736121e-08
6.0987463e-07
-1.9030931e-08
6.1593928e-07
-2.0911378e-08
6.2532286e-07
-2.2291121e-08
6.3815995e-07
-2.0532822e-08
6.3902119e-07
-1.3102986e-08
5.8098617e-07
-3.3298341e-09
4.1048267e-07
1.424473e-07
2.4250708e-09
1.1421005e-07
1.1530881e-08
3.5512929e-07
2.0989744e-08
5.5157931e-07
2.4703379e-08
6.4204764e-07
2.3830933e-08
6.5213669e-07
2.1776671e-08
6.3721165e-07
1.9948579e-08
6.243891e-07
1.835198e-08
6.1645647e-07
1.6826853e-08
6.1094139e-07
1.5325013e-08
6.0658406e-07
1.3842785e-08
6.0301978e-07
1.2380601e-08
6.0009118e-07
1.0938015e-08
5.9768226e-07
9.5142104e-09
5.9570434e-07
8.1080278e-09
5.9409138e-07
6.7178943e-09
5.9279406e-07
5.3418214e-09
5.9177544e-07
3.9774579e-09
5.9100814e-07
2.6221675e-09
5.9047248e-07
1.2731162e-09
5.9015524e-07
-7.2634446e-11
5.9004892e-07
-1.4180335e-09
5.9015126e-07
-2.7659462e-09
5.9046523e-07
-4.1190554e-09
5.9099916e-07
-5.4797656e-09
5.9176715e-07
-6.8501057e-09
5.9278998e-07
-8.2316423e-09
5.9409645e-07
-9.6254164e-09
5.9572538e-07
-1.1031924e-08
5.9772879e-07
-1.2451089e-08
6.0017647e-07
-1.3882034e-08
6.0316106e-07
-1.5325015e-08
6.0680704e-07
-1.6801591e-08
6.113512e-07
-1.8402441e-08
6.1754013e-07
-2.0166664e-08
6.2708709e-07
-2.1278043e-08
6.3927133e-07
-1.920188e-08
6.3694503e-07
-1.1910674e-08
5.7369496e-07
-2.9324298e-09
4.0150443e-07
1.3951487e-07
2.2319281e-09
1.1197816e-07
1.0565068e-08
3.4679622e-07
1.9675012e-08
5.4246942e-07
2.3658881e-08
6.380638e-07
2.3117932e-08
6.5267764e-07
2.1205076e-08
6.391245e-07
1.9431244e-08
6.2616293e-07
1.7887822e-08
6.1799989e-07
1.6422752e-08
6.1240646e-07
1.4979698e-08
6.0802711e-07
1.3551845e-08
6.0444763e-07
1.2139171e-08
6.0150385e-07
1.074126e-08
5.9908017e-07
9.3574961e-09
5.970881e-07
7.9870959e-09
5.9546178e-07
6.6289967e-09
5.9415216e-07
5.2818157e-09
5.9312263e-07
3.9438718e-09
5.9234609e-07
2.6132404e-09
5.9180311e-07
1.2878253e-09
5.9148066e-07
-3.4560774e-11
5.9137131e-07
-1.3561104e-09
5.9147281e-07
-2.678938e-09
5.9178806e-07
-4.0049893e-09
5.9232521e-07
-5.3359582e-09
5.9309812e-07
-6.6732082e-09
5.9412723e-07
-8.0177083e-09
5.9544095e-07
-9.3700037e-09
5.9707767e-07
-1.0730235e-08
5.9908902e-07
-1.209814e-08
6.0154438e-07
-1.3472978e-08
6.045359e-07
-1.4856539e-08
6.081906e-07
-1.6275233e-08
6.127699e-07
-1.7818013e-08
6.1908291e-07
-1.9473931e-08
6.28743e-07
-2.034081e-08
6.4013821e-07
-1.8008147e-08
6.3461236e-07
-1.0894412e-08
5.6658123e-07
-2.6282646e-09
3.9323828e-07
1.3688661e-07
2.0746674e-09
1.0990353e-07
9.7312706e-09
3.391397e-07
1.848505e-08
5.3371571e-07
2.2679202e-08
6.3386968e-07
2.2443244e-08
6.529136e-07
2.0670252e-08
6.4089749e-07
1.8945951e-08
6.2788723e-07
1.7446454e-08
6.1949939e-07
1.60328e-08
6.1382012e-07
1.4641739e-08
6.0941817e-07
1.3263022e-08
6.0582635e-07
1.1895952e-08
6.0287092e-07
1.0540012e-08
6.0043611e-07
9.1946427e-09
5.9843347e-07
7.8592775e-09
5.9679715e-07
6.533206e-09
5.9547823e-07
5.2154972e-09
5.9444033e-07
3.9049925e-09
5.9365659e-07
2.6003385e-09
5.9310777e-07
1.3000418e-09
5.9278096e-07
2.535045e-12
5.9266881e-07
-1.2937544e-09
5.927691e-07
-2.5903202e-09
5.9308463e-07
-3.888512e-09
5.936234e-07
-5.1894623e-09
5.9439907e-07
-6.4940264e-09
5.954318e-07
-7.8027438e-09
5.9674966e-07
-9.1158393e-09
5.9839077e-07
-1.0433276e-08
6.0040646e-07
-1.1754782e-08
6.0286589e-07
-1.3079967e-08
6.0586108e-07
-1.4412441e-08
6.0952307e-07
-1.5783012e-08
6.1414047e-07
-1.7275921e-08
6.2057582e-07
-1.8829598e-08
6.3029668e-07
-1.9473531e-08
6.4078214e-07
-1.6935124e-08
6.3207396e-07
-1.0023142e-08
5.5966925e-07
-2.3922247e-09
3.8560736e-07
1.3449438e-07
1.9416181e-09
1.0796196e-07
9.004368e-09
3.3207705e-07
1.740315e-08
5.2531702e-07
2.1757908e-08
6.2951496e-07
2.1802314e-08
6.528692e-07
2.0168245e-08
6.4253155e-07
1.8490986e-08
6.2956449e-07
1.7028281e-08
6.2096209e-07
1.5658773e-08
6.1518962e-07
1.4313783e-08
6.1076316e-07
1.2979491e-08
6.0716064e-07
1.1654365e-08
6.0419605e-07
1.0337698e-08
6.0175278e-07
9.0288959e-09
5.9974227e-07
7.7274969e-09
5.9809855e-07
6.43302e-09
5.9677271e-07
5.144861e-09
5.9572849e-07
3.86226e-09
5.9493919e-07
2.584313e-09
5.9438571e-07
1.3100084e-09
5.9405526e-07
3.8279163e-11
5.9394054e-07
-1.231939e-09
5.9403931e-07
-2.501647e-09
5.9435434e-07
-3.7717212e-09
5.9489348e-07
-5.0428595e-09
5.9567021e-07
-6.3155411e-09
5.9670448e-07
-7.590011e-09
5.9802413e-07
-8.8663079e-09
5.9966706e-07
-1.0144344e-08
6.016845e-07
-1.142396e-08
6.041455e-07
-1.2705263e-08
6.0714239e-07
-1.3993844e-08
6.1081165e-07
-1.5324251e-08
6.1547087e-07
-1.6773254e-08
6.2202482e-07
-1.8229255e-08
6.3175268e-07
-1.8669554e-08
6.4122244e-07
-1.5967233e-08
6.2937164e-07
-9.2707395e-09
5.5297275e-07
-2.2053375e-09
3.7854196e-07
1.3228905e-07
1.8252394e-09
1.0613678e-07
8.3648756e-09
3.2553753e-07
1.6415305e-08
5.172667e-07
2.08893e-08
6.2504102e-07
2.1191115e-08
6.5256739e-07
1.9695207e-08
6.4402745e-07
1.8064151e-08
6.3119554e-07
1.6632892e-08
6.2239335e-07
1.5301484e-08
6.1652103e-07
1.3997456e-08
6.1206719e-07
1.2703415e-08
6.0845468e-07
1.1416869e-08
6.0548259e-07
1.0136875e-08
6.0303277e-07
8.8627439e-09
6.010164e-07
7.5940406e-09
5.9936725e-07
6.3304218e-09
5.9803633e-07
5.0715115e-09
5.969874e-07
3.8168461e-09
5.9619386e-07
2.5658676e-09
5.9563669e-07
1.3179431e-09
5.9530318e-07
7.2402258e-11
5.9518608e-07
-1.1714197e-09
5.9528314e-07
-2.4141322e-09
5.9559705e-07
-3.6562453e-09
5.9613559e-07
-4.8981305e-09
5.9691209e-07
-6.1399991e-09
5.9794635e-07
-7.3819065e-09
5.9926604e-07
-8.6238052e-09
6.0090896e-07
-9.8656437e-09
6.0292633e-07
-1.110745e-08
6.0538731e-07
-1.2349935e-08
6.0838487e-07
-1.3600722e-08
6.1206244e-07
-1.48973e-08
6.1676745e-07
-1.6306509e-08
6.2343403e-07
-1.7668259e-08
6.3311443e-07
-1.7922197e-08
6.4147638e-07
-1.5090443e-08
6.2653988e-07
-8.6156908e-09
5.46498e-07
-2.0536047e-09
3.7197987e-07
1.3023544e-07
1.7208117e-09
1.0441603e-07
7.7977198e-09
3.1946076e-07
1.5509899e-08
5.0955465e-07
2.0068511e-08
6.2048247e-07
2.0606247e-08
6.5202967e-07
1.9247607e-08
6.4538609e-07
1.7663075e-08
6.3278007e-07
1.6259385e-08
6.2379704e-07
1.4961092e-08
6.1781932e-07
1.3693642e-08
6.1333464e-07
1.2436188e-08
6.0971213e-07
1.118518e-08
6.067336e-07
9.9394056e-09
6.0427854e-07
8.6980538e-09
6.0225775e-07
7.4606625e-09
6.0060464e-07
6.226959e-09
5.9927003e-07
4.9967186e-09
5.9821764e-07
3.7696915e-09
5.9742088e-07
2.5455794e-09
5.968608e-07
1.32404e-09
5.9652472e-07
1.0470994e-10
5.9640541e-07
-1.1127649e-09
5.9650061e-07
-2.3286935e-09
5.9681298e-07
-3.5433093e-09
5.9735021e-07
-4.7567464e-09
5.9812553e-07
-5.9690335e-09
5.9915863e-07
-7.1801176e-09
6.0047712e-07
-8.3899353e-09
6.0211878e-07
-9.5985274e-09
6.0413493e-07
-1.0806155e-08
6.0659494e-07
-1.2014195e-08
6.0959291e-07
-1.3232282e-08
6.1328053e-07
-1.4499953e-08
6.1803512e-07
-1.5872006e-08
6.2480608e-07
-1.7142109e-08
6.3438453e-07
-1.7225187e-08
6.4155945e-07
-1.4292517e-08
6.2360721e-07
-8.0405552e-09
5.4024604e-07
-1.9269263e-09
3.6586624e-07
1.2830852e-07
1.625465e-09
1.0279064e-07
7.2912038e-09
3.1379519e-07
1.4677318e-08
5.0216869e-07
1.9291458e-08
6.1586842e-07
2.004494e-08
6.512762e-07
1.882234e-08
6.4660868e-07
1.7285408e-08
6.34317e-07
1.5906588e-08
6.2517585e-07
1.4637327e-08
6.1908858e-07
1.3402708e-08
6.1456926e-07
1.2178637e-08
6.109362e-07
1.0960437e-08
6.079518e-07
9.7466043e-09
6.0549238e-07
8.536192e-09
6.0346817e-07
7.3286796e-09
6.0181215e-07
6.123817e-09
6.004749e-07
4.9214716e-09
5.9941999e-07
3.7215417e-09
5.9862081e-07
2.523918e-09
5.9805843e-07
1.3284754e-09
5.9772017e-07
1.3508239e-10
5.975988e-07
-1.0563804e-09
5.9769207e-07
-2.245997e-09
5.9800259e-07
-3.4337989e-09
5.9853801e-07
-4.619754e-09
5.9931149e-07
-5.8037759e-09
6.0034266e-07
-6.9857626e-09
6.0165911e-07
-8.1656829e-09
6.032987e-07
-9.3437023e-09
6.0531295e-07
-1.0520339e-08
6.0777157e-07
-1.1697673e-08
6.1077024e-07
-1.2887259e-08
6.1447011e-07
-1.4129751e-08
6.1927761e-07
-1.5466151e-08
6.2614248e-07
-1.6646675e-08
6.3556506e-07
-1.6572892e-08
6.4148567e-07
-1.3563e-08
6.2059732e-07
-7.5313524e-09
5.3421439e-07
-1.8181699e-09
3.6015306e-07
1.2649035e-07
1.5374909e-09
1.0125324e-07
6.8361754e-09
3.084967e-07
1.3909569e-08
4.9509549e-07
1.8554736e-08
6.1122336e-07
1.9504984e-08
6.5032598e-07
1.8416737e-08
6.4769692e-07
1.6928925e-08
6.358048e-07
1.5573208e-08
6.2653157e-07
1.4329651e-08
6.2033214e-07
1.3124655e-08
6.1577426e-07
1.1931174e-08