/*--------------------------------*- C++ -*----------------------------------*\
  =========                 |
  \\      /  F ield         | OpenFOAM: The Open Source CFD Toolbox
   \\    /   O peration     | Website:  https://openfoam.org
    \\  /    A nd           | Version:  10
     \\/     M anipulation  |
\*---------------------------------------------------------------------------*/
FoamFile
{
    format      ascii;
    class       surfaceScalarField;
    location    "0.27";
    object      phi_0;
}
// * * * * * * * * * * * * * * * * * * * * * * * * * * * * * * * * * * * * * //

dimensions      [1 0 -1 0 0 0 0];

internalField   nonuniform List<scalar> 
7860
(
3.9895995e-08
5.2881204e-07
1.2192741e-08
5.9641106e-07
7.4279212e-09
5.7347257e-07
5.4994416e-09
5.7063619e-07
4.1150165e-09
5.7009211e-07
3.2011581e-09
5.6962152e-07
2.5591571e-09
5.6934964e-07
2.0793202e-09
5.6918746e-07
1.7093192e-09
5.6907761e-07
1.4166305e-09
5.6900029e-07
1.1794591e-09
5.6894477e-07
9.8304197e-10
5.6890401e-07
8.1703579e-10
5.6887359e-07
6.7395047e-10
5.6885066e-07
5.4821301e-10
5.6883331e-07
4.35563e-10
5.6882022e-07
3.3264696e-10
5.6881049e-07
2.3673782e-10
5.6880348e-07
1.4553284e-10
5.6879877e-07
5.7001266e-11
5.687961e-07
-3.0739466e-11
5.6879531e-07
-1.1953139e-10
5.6879636e-07
-2.1128053e-10
5.6879932e-07
-3.080641e-10
5.6880435e-07
-4.1226249e-10
5.6881177e-07
-5.2672242e-10
5.6882203e-07
-6.5497752e-10
5.6883583e-07
-8.0156132e-10
5.6885416e-07
-9.7246772e-10
5.6887849e-07
-1.1758578e-09
5.6891098e-07
-1.4232326e-09
5.6895497e-07
-1.7314035e-09
5.6901577e-07
-2.1253482e-09
5.6910156e-07
-2.6449478e-09
5.6922722e-07
-3.3726159e-09
5.6943531e-07
-4.4639018e-09
5.6979894e-07
-6.0092048e-09
5.7025299e-07
-9.5081849e-09
5.722067e-07
-2.9576035e-08
5.8877561e-07
5.391319e-07
5.9672541e-08
4.691395e-07
3.6666017e-08
6.1941758e-07
2.2628198e-08
5.8751039e-07
1.6253608e-08
5.7701078e-07
1.2290542e-08
5.7405517e-07
9.6062815e-09
5.7230578e-07
7.6774867e-09
5.7127844e-07
6.2361221e-09
5.7062883e-07
5.1265913e-09
5.7018715e-07
4.2488222e-09
5.6987806e-07
3.5374803e-09
5.6965611e-07
2.9483971e-09
5.6949309e-07
2.4505276e-09
5.6937146e-07
2.0213968e-09
5.692798e-07
1.6442905e-09
5.6921042e-07
1.3064316e-09
5.6915808e-07
9.9776333e-10
5.6911915e-07
7.1010759e-10
5.6909113e-07
4.365591e-10
5.6907232e-07
1.7102662e-10
5.6906163e-07
-9.2135736e-11
5.6905847e-07
-3.5845074e-10
5.6906267e-07
-6.3363006e-10
5.6907449e-07
-9.2390556e-10
5.6909463e-07
-1.2364159e-09
5.6912428e-07
-1.5796975e-09
5.6916531e-07
-1.9643473e-09
5.6922048e-07
-2.4039608e-09
5.6929378e-07
-2.9165205e-09
5.6939105e-07
-3.5265182e-09
5.6952098e-07
-4.2683722e-09
5.6969682e-07
-5.1924471e-09
5.6993985e-07
-6.3753667e-09
5.7028448e-07
-7.9358468e-09
5.707877e-07
-1.0077109e-08
5.7157657e-07
-1.3205274e-08
5.7292711e-07
-1.8135106e-08
5.7518282e-07
-2.8177319e-08
5.8224891e-07
-4.5803188e-08
6.0640148e-07
4.9332871e-07
6.0008873e-08
4.0913063e-07
5.0487332e-08
6.2893912e-07
3.3370733e-08
6.0462699e-07
2.4817742e-08
5.8556377e-07
1.9323316e-08
5.795496e-07
1.5331567e-08
5.7629752e-07
1.2360781e-08
5.7424922e-07
1.0101605e-08
5.72888e-07
8.3406632e-09
5.7194809e-07
6.9348345e-09
5.7128389e-07
5.7880407e-09
5.708029e-07
4.8335173e-09
5.7044761e-07
4.0235002e-09
5.7018148e-07
3.3230044e-09
5.6998029e-07
2.7057666e-09
5.6982766e-07
2.1515553e-09
5.6971229e-07
1.6443455e-09
5.6962636e-07
1.1710385e-09
5.6956444e-07
7.2052772e-10
5.6952283e-07
2.8298556e-10
5.6949917e-07
-1.5071383e-10
5.6949217e-07
-5.8950066e-10
5.6950146e-07
-1.0426028e-09
5.695276e-07
-1.5200659e-09
5.6957209e-07
-2.0333561e-09
5.6963757e-07
-2.5961194e-09
5.6972808e-07
-3.2251939e-09
5.6984955e-07
-3.9420201e-09
5.700106e-07
-4.7746912e-09
5.7022372e-07
-5.7610167e-09
5.705073e-07
-6.9531807e-09
5.7088899e-07
-8.4253803e-09
5.7141205e-07
-1.0287013e-08
5.7214611e-07
-1.2699947e-08
5.7320064e-07
-1.589734e-08
5.7477396e-07
-2.0241074e-08
5.7727084e-07
-2.6709298e-08
5.8165104e-07
-3.8948761e-08
5.9448837e-07
-4.8167767e-08
6.1562048e-07
4.4516094e-07
5.4879113e-08
3.5425152e-07
5.7452276e-08
6.2636596e-07
4.0467641e-08
6.2161163e-07
3.0778848e-08
5.9525256e-07
2.4643137e-08
5.8568531e-07
1.9952373e-08
5.8098829e-07
1.6313004e-08
5.7788859e-07
1.3466574e-08
5.7573443e-07
1.120097e-08
5.7421369e-07
9.3644859e-09
5.7312037e-07
7.8492392e-09
5.7231815e-07
6.5767419e-09
5.7172011e-07
5.4891487e-09
5.7126907e-07
4.543148e-09
5.7092629e-07
3.7056462e-09
5.7066516e-07
2.9507871e-09
5.7046715e-07
2.2578543e-09
5.703193e-07
1.6097534e-09
5.7021254e-07
9.9188061e-10
5.701407e-07
3.9124239e-10
5.7009981e-07
-2.0426747e-10
5.7008768e-07
-8.0650801e-10
5.701037e-07
-1.4277123e-09
5.701488e-07
-2.0811418e-09
5.7022552e-07
-2.781837e-09
5.7033826e-07
-3.5475451e-09
5.7049378e-07
-4.3999279e-09
5.7070194e-07
-5.3661937e-09
5.7097687e-07
-6.4813786e-09
5.713389e-07
-7.7916067e-09
5.7181753e-07
-9.3586569e-09
5.7245604e-07
-1.1266348e-08
5.7331974e-07
-1.3630944e-08
5.745107e-07
-1.6613785e-08
5.7618348e-07
-2.0412641e-08
5.7857282e-07
-2.5294185e-08
5.8215239e-07
-3.2518386e-08
5.8887524e-07
-4.510196e-08
6.0707195e-07
-4.6550029e-08
6.1706855e-07
3.9861091e-07
4.796584e-08
3.0628568e-07
6.0076669e-08
6.1425513e-07
4.5400289e-08
6.36288e-07
3.4875482e-08
6.0577737e-07
2.8399968e-08
5.9216082e-07
2.3419707e-08
5.8596855e-07
1.9434357e-08
5.8187394e-07
1.622918e-08
5.7893961e-07
1.3619662e-08
5.7682321e-07
1.1466398e-08
5.7527364e-07
9.6642615e-09
5.7412029e-07
8.1332142e-09
5.7325116e-07
6.8122339e-09
5.7259005e-07
5.6543097e-09
5.7208422e-07
4.6226677e-09
5.716968e-07
3.6880225e-09
5.714018e-07
2.8265371e-09
5.7118078e-07
2.0182833e-09
5.7102079e-07
1.2460577e-09
5.7091293e-07
4.944365e-10
5.7085143e-07
-2.5101784e-10
5.7083313e-07
-1.004466e-09
5.7085715e-07
-1.7804828e-09
5.7092482e-07
-2.5947792e-09
5.7103981e-07
-3.4650188e-09
5.712085e-07
-4.411801e-09
5.7144057e-07
-5.4599018e-09
5.7175004e-07
-6.6398827e-09
5.7215685e-07
-7.9902175e-09
5.7268924e-07
-9.5601666e-09
5.7338748e-07
-1.1413552e-08
5.7430942e-07
-1.3633182e-08
5.7553937e-07
-1.6327358e-08
5.7720488e-07
-1.9639678e-08
5.794958e-07
-2.3740402e-08
5.8267354e-07
-2.8932452e-08
5.8734444e-07
-3.6792681e-08
5.9673547e-07
-4.8465213e-08
6.1874448e-07
-4.3195052e-08
6.1179839e-07
3.5541586e-07
4.0336147e-08
2.6594953e-07
5.8994303e-08
5.9559698e-07
4.8330322e-08
6.4695198e-07
3.7588291e-08
6.165194e-07
3.0929083e-08
5.9882003e-07
2.5894169e-08
5.9100346e-07
2.1780142e-08
5.8598797e-07
1.8392151e-08
5.823276e-07
1.5577539e-08
5.7963782e-07
1.3214259e-08
5.7763692e-07
1.1206373e-08
5.7612817e-07
9.4785899e-09
5.7497894e-07
7.9717697e-09
5.7409687e-07
6.6390096e-09
5.7341698e-07
5.4426841e-09
5.7289313e-07
4.3521773e-09
5.724923e-07
3.342103e-09
5.7219086e-07
2.390905e-09
5.7197199e-07
1.4797395e-09
5.7182409e-07
5.9155427e-10
5.7173962e-07
-2.8970166e-10
5.7171439e-07
-1.1797952e-09
5.7174724e-07
-2.0949123e-09
5.7183993e-07
-3.0523858e-09
5.7199729e-07
-4.0715013e-09
5.7222762e-07
-5.174444e-09
5.7254351e-07
-6.3874497e-09
5.7296304e-07
-7.7422395e-09
5.7351164e-07
-9.2778177e-09
5.7422482e-07
-1.104278e-08
5.7515244e-07
-1.3098344e-08
5.7636499e-07
-1.5521774e-08
5.779628e-07
-1.8410467e-08
5.8009357e-07
-2.1888597e-08
5.8297393e-07
-2.6111942e-08
5.8689689e-07
-3.1490043e-08
5.9272254e-07
-3.9656355e-08
6.0490178e-07
-4.917402e-08
6.2826214e-07
-3.8579353e-08
6.0120372e-07
3.1683651e-07
3.2862816e-08
2.3308671e-07
5.5250285e-08
5.7320951e-07
4.9232559e-08
6.5296971e-07
3.9061793e-08
6.2669017e-07
3.2430915e-08
6.0545091e-07
2.7518996e-08
5.9591538e-07
2.3438903e-08
5.9006806e-07
2.0003064e-08
5.8576344e-07
1.7094929e-08
5.8254596e-07
1.4612274e-08
5.8011957e-07
1.2471315e-08
5.7826913e-07
1.0604803e-08
5.7684545e-07
8.9584969e-09
5.7574317e-07
7.4882078e-09
5.7488726e-07
6.1576074e-09
5.7422373e-07
4.9364716e-09
5.7371344e-07
3.7992379e-09
5.7332809e-07
2.7238279e-09
5.730474e-07
1.6906717e-09
5.7285725e-07
6.818764e-10
5.7274841e-07
-3.1950551e-10
5.7271577e-07
-1.3301508e-09
5.7275789e-07
-2.3671315e-09
5.7287691e-07
-3.4485978e-09
5.7307875e-07
-4.5945197e-09
5.7337354e-07
-5.8275345e-09
5.7377652e-07
-7.1739435e-09
5.7430945e-07
-8.6649135e-09
5.7500261e-07
-1.0337926e-08
5.7589783e-07
-1.2238554e-08
5.7705307e-07
-1.4422849e-08
5.7854928e-07
-1.6960237e-08
5.8050019e-07
-1.993556e-08
5.8306889e-07
-2.3449589e-08
5.8648796e-07
-2.7643746e-08
5.9109104e-07
-3.3036494e-08
5.9811529e-07
-4.10128e-08
6.1287809e-07
-4.7689616e-08
6.3493896e-07
-3.3377042e-08
5.8689115e-07
2.8345946e-07
2.6189129e-08
2.0689759e-07
5.0133031e-08
5.4926561e-07
4.8493962e-08
6.5460878e-07
3.9491408e-08
6.3569272e-07
3.3077778e-08
6.1186454e-07
2.8412335e-08
6.0058082e-07
2.4493185e-08
5.9398721e-07
2.1118468e-08
5.8913815e-07
1.8207305e-08
5.8545712e-07
1.568047e-08
5.8264641e-07
1.3468826e-08
5.8048077e-07
1.1515198e-08
5.7879908e-07
9.7720711e-09
5.774863e-07
8.1996579e-09
5.7645968e-07
6.7644289e-09
5.7565895e-07
5.4378415e-09
5.7504003e-07
4.1952513e-09
5.7457068e-07
3.0149887e-09
5.7422766e-07
1.8775614e-09
5.7399468e-07
7.6495129e-10
5.7386102e-07
-3.4002194e-10
5.7382074e-07
-1.4542967e-09
5.7387216e-07
-2.5951626e-09
5.7401778e-07
-3.7808629e-09
5.7426445e-07
-5.0312373e-09
5.7462391e-07
-6.368437e-09
5.7511372e-07
-7.8177366e-09
5.7575875e-07
-9.4084819e-09
5.7659335e-07
-1.1175197e-08
5.7766454e-07
-1.3158855e-08
5.7903672e-07
-1.5408523e-08
5.8079895e-07
-1.7983484e-08
5.8307515e-07
-2.0953191e-08
5.860386e-07
-2.439283e-08
5.899276e-07
-2.8437941e-08
5.9513615e-07
-3.3693832e-08
6.0337118e-07
-4.1065107e-08
6.2024936e-07
-4.4799329e-08
6.3867318e-07
-2.8205417e-08
5.7029724e-07
2.5525405e-07
2.0571048e-08
1.8632654e-07
4.4583578e-08
5.2525308e-07
4.6643409e-08
6.5254895e-07
3.9153637e-08
6.4318249e-07
3.3084233e-08
6.1793394e-07
2.8718011e-08
6.0494705e-07
2.503851e-08
5.9766671e-07
2.1804113e-08
5.9237255e-07
1.8959503e-08
5.8830173e-07
1.6448629e-08
5.8515728e-07
1.4217995e-08
5.8271141e-07
1.2221421e-08
5.8079565e-07
1.0419126e-08
5.792886e-07
8.776758e-09
5.7810204e-07
7.2645636e-09
5.7717115e-07
5.8565787e-09
5.7644801e-07
4.5298883e-09
5.7589737e-07
3.2639604e-09
5.7549359e-07
2.0400391e-09
5.752186e-07
8.4058808e-10
5.7506047e-07
-3.512302e-10
5.7501256e-07
-1.5520501e-09
5.7507298e-07
-2.7788006e-09
5.7524453e-07
-4.049206e-09
5.7553486e-07
-5.3823108e-09
5.7595702e-07
-6.799046e-09
5.7653046e-07
-8.3228454e-09
5.7728255e-07
-9.9803317e-09
5.7825084e-07
-1.1802082e-08
5.7948629e-07
-1.3823424e-08
5.8105807e-07
-1.6085344e-08
5.8306087e-07
-1.8635691e-08
5.8562549e-07
-2.1527569e-08
5.8893048e-07
-2.4814992e-08
5.9321502e-07
-2.8644196e-08
5.9896536e-07
-3.3662596e-08
6.0838958e-07
-4.0146594e-08
6.2673336e-07
-4.1161222e-08
6.3968781e-07
-2.3417859e-08
5.5255387e-07
2.3183619e-07
1.6015637e-08
1.7031091e-07
3.9144356e-08
5.0212436e-07
4.4119141e-08
6.4757416e-07
3.8290204e-08
6.4901143e-07
3.2654418e-08
6.2356973e-07
2.8592083e-08
6.0900938e-07
2.5184055e-08
6.0107474e-07
2.2136374e-08
5.9542023e-07
1.9405147e-08
5.9103295e-07
1.6954321e-08
5.8760811e-07
1.4744918e-08
5.8492081e-07
1.2741343e-08
5.8279923e-07
1.0911685e-08
5.8111825e-07
9.2274256e-09
5.797863e-07
7.6630916e-09
5.7873548e-07
6.1958385e-09
5.7791526e-07
4.8050218e-09
5.7728819e-07
3.4717705e-09
5.7682684e-07
2.1785657e-09
5.765118e-07
9.0883245e-10
5.763302e-07
-3.5345747e-10
5.7627485e-07
-1.624172e-09
5.7634369e-07
-2.919411e-09
5.7653977e-07
-4.2558964e-09
5.7687134e-07
-5.6513721e-09
5.7735249e-07
-7.1250182e-09
5.780041e-07
-8.6978782e-09
5.7885541e-07
-1.0393298e-08
5.7994626e-07
-1.2237382e-08
5.8133038e-07
-1.425941e-08
5.8308009e-07
-1.6492207e-08
5.8529367e-07
-1.8972522e-08
5.8810581e-07
-2.1738492e-08
5.9169645e-07
-2.4830591e-08
5.9630712e-07
-2.841773e-08
6.025525e-07
-3.3127155e-08
6.13099e-07
-3.8552187e-08
6.3215839e-07
-3.7217789e-08
6.3835341e-07
-1.9183772e-08
5.3451986e-07
2.1265242e-07
1.2423934e-08
1.5788698e-07
3.4114465e-08
4.8043384e-07
4.1250371e-08
6.4043826e-07
3.707927e-08
6.5318253e-07
3.1942467e-08
6.2870653e-07
2.8169281e-08
6.1278257e-07
2.5033457e-08
6.0421056e-07
2.21925e-08
5.9826119e-07
1.9601341e-08
5.9362411e-07
1.7239396e-08
5.8997005e-07
1.5080036e-08
5.8708017e-07
1.3096946e-08
5.8478232e-07
1.1265492e-08
5.8294971e-07
9.5628207e-09
5.8148898e-07
7.9678157e-09
5.8033049e-07
6.460967e-09
5.7942211e-07
5.0241915e-09
5.7872496e-07
3.6406061e-09
5.7821043e-07
2.2942711e-09
5.7785814e-07
9.699208e-10
5.7765455e-07
-3.4731437e-10
5.7759208e-07
-1.6721862e-09
5.7766857e-07
-3.0196151e-09
5.778872e-07
-4.4049703e-09
5.782567e-07
-5.8443491e-09
5.7879187e-07
-7.3548496e-09
5.795146e-07
-8.9548311e-09
5.8045539e-07
-1.0664145e-08
5.8165557e-07
-1.2504346e-08
5.8317058e-07
-1.4498851e-08
5.850746e-07
-1.6672972e-08
5.8746779e-07
-1.9053596e-08
5.9048643e-07
-2.1666216e-08
5.9430907e-07
-2.4545027e-08
5.9918593e-07
-2.7884609e-08
6.0589208e-07
-3.2230202e-08
6.1744459e-07
-3.6524024e-08
6.3645221e-07
-3.3270309e-08
6.350997e-07
-1.556484e-08
5.1681439e-07
1.9708758e-07
9.6573205e-09
1.4822966e-07
2.9646218e-08
4.6044495e-07
3.8283755e-08
6.3180073e-07
3.5659003e-08
6.5580728e-07
3.1059563e-08
6.3330597e-07
2.7553973e-08
6.1628816e-07
2.4673286e-08
6.0709125e-07
2.2041268e-08
6.0089321e-07
1.9601954e-08
5.9606343e-07
1.7345373e-08
5.9222663e-07
1.5254913e-08
5.8917063e-07
1.3311992e-08
5.8672524e-07
1.1498278e-08
5.8476342e-07
9.7960441e-09
5.8319121e-07
8.188288e-09
5.8193824e-07
6.658789e-09
5.8095161e-07
5.1921022e-09
5.8019165e-07
3.7734841e-09
5.7962905e-07
2.3887709e-09
5.7924285e-07
1.0242277e-09
5.790191e-07
-3.3362222e-10
5.7894993e-07
-1.6981761e-09
5.7903312e-07
-3.0829401e-09
5.7927196e-07
-4.5017089e-09
5.7967547e-07
-5.9687361e-09
5.802589e-07
-7.4988865e-09
5.8104475e-07
-9.1077588e-09
5.8206426e-07
-1.0811762e-08
5.8335957e-07
-1.2628144e-08
5.8498696e-07
-1.4574985e-08
5.8702144e-07
-1.6671024e-08
5.8956382e-07
-1.8934735e-08
5.9275015e-07
-2.1381625e-08
5.9675596e-07
-2.4045831e-08
6.0185013e-07
-2.7143705e-08
6.0898995e-07
-3.10899e-08
6.2139079e-07
-3.426624e-08
6.3962855e-07
-2.952393e-08
6.3035739e-07
-1.2556426e-08
4.9984688e-07
1.8453115e-07
7.5669753e-09
1.4066269e-07
2.5787279e-08
4.4222465e-07
3.5390152e-08
6.2219786e-07
3.4139263e-08
6.5705817e-07
3.00887e-08
6.3735653e-07
2.6826153e-08
6.195507e-07
2.4173226e-08
6.0974417e-07
2.1740459e-08
6.0332597e-07
1.9454269e-08
5.9834962e-07
1.7310307e-08
5.9437059e-07
1.5299692e-08
5.9118125e-07
1.3410043e-08
5.8861489e-07
1.1628245e-08
5.8654522e-07
9.9409834e-09
5.8487847e-07
8.3349415e-09
5.8354428e-07
6.7969652e-09
5.8248959e-07
5.3141648e-09
5.8167445e-07
3.8739469e-09
5.8106926e-07
2.4639958e-09
5.806528e-07
1.0722171e-09
5.8041088e-07
-3.1334308e-10
5.8033549e-07
-1.7045917e-09
5.8042437e-07
-3.1134914e-09
5.8068086e-07
-4.5521537e-09
5.8111413e-07
-6.0329188e-09
5.8173966e-07
-7.5684098e-09
5.8258024e-07
-9.1715518e-09
5.836674e-07
-1.0855537e-08
5.8504356e-07
-1.2633736e-08
5.8676516e-07
-1.4519576e-08
5.8890728e-07
-1.652624e-08
5.9157049e-07
-1.8665324e-08
5.9488923e-07
-2.0945331e-08
5.9903597e-07
-2.3405449e-08
6.0431025e-07
-2.6275385e-08
6.1185989e-07
-2.980732e-08
6.2492272e-07
-3.1940489e-08
6.4176172e-07
-2.6101006e-08
6.245179e-07
-1.0111889e-08
4.8385777e-07
1.7441926e-07
6.0123247e-09
1.3465038e-07
2.2515869e-08
4.2572113e-07
3.2671424e-08
6.1204231e-07
3.2600493e-08
6.571291e-07
2.9089969e-08
6.4086705e-07
2.6045988e-08
6.2259468e-07
2.3588616e-08
6.1220155e-07
2.1337651e-08
6.0557694e-07
1.919848e-08
6.0048879e-07
1.7167641e-08
5.9640143e-07
1.5241757e-08
5.9310713e-07
1.3413199e-08
5.9044345e-07
1.1672978e-08
5.8828544e-07
1.0011423e-08
5.8654002e-07
8.4183883e-09
5.8513732e-07
6.8834577e-09
5.8402452e-07
5.3961065e-09
5.831618e-07
3.9457994e-09
5.8251957e-07
2.5220429e-09
5.8207656e-07
1.1144009e-09
5.8181852e-07
-2.8751705e-10
5.8173741e-07
-1.6940792e-09
5.8183093e-07
-3.1156651e-09
5.8210245e-07
-4.5626883e-09
5.8256115e-07
-6.0456048e-09
5.8322258e-07
-7.5748938e-09
5.8410953e-07
-9.1610023e-09
5.8525351e-07
-1.0814239e-08
5.866968e-07
-1.2544617e-08
5.8849554e-07
-1.4361675e-08
5.9072434e-07
-1.62741e-08
5.9348291e-07
-1.828819e-08
5.9690332e-07
-2.0408528e-08
6.011563e-07
-2.2682908e-08
6.0658463e-07
-2.5343251e-08
6.1452023e-07
-2.8463063e-08
6.2804253e-07
-2.9660974e-08
6.4295963e-07
-2.3056809e-08
6.1791374e-07
-8.1627838e-09
4.6896374e-07
1.6625647e-07
4.8706654e-09
1.2977972e-07
1.9773438e-08
4.1081837e-07
3.0175842e-08
6.0163992e-07
3.1095039e-08
6.5620991e-07
2.8102871e-08
6.4385922e-07
2.5255776e-08
6.2544178e-07
2.2961583e-08
6.1449574e-07
2.0870897e-08
6.0766762e-07
1.8867864e-08
6.0249182e-07
1.6945934e-08
5.9832336e-07
1.5105182e-08
5.9494788e-07
1.3341418e-08
5.9220721e-07
1.1648764e-08
5.8997809e-07
1.0020432e-08
5.8816836e-07
8.4488994e-09
5.8670885e-07
6.9261124e-09
5.855473e-07
5.4436564e-09
5.8464425e-07
3.9928922e-09
5.8397033e-07
2.5650524e-09
5.835044e-07
1.1513046e-09
5.8323227e-07
-2.5720727e-10
5.8314592e-07
-1.6693356e-09
5.8324306e-07
-3.0939082e-09
5.8352702e-07
-4.5396982e-09
5.8400694e-07
-6.0153801e-09
5.8469826e-07
-7.529459e-09
5.8562361e-07
-9.0901677e-09
5.8681422e-07
-1.0705324e-08
5.8831195e-07
-1.2382146e-08
5.9017236e-07
-1.4127065e-08
5.9246926e-07
-1.5945302e-08
5.9530115e-07
-1.7839385e-08
5.987974e-07
-1.9812785e-08
6.031297e-07
-2.1923638e-08
6.0869549e-07
-2.4394051e-08
6.1699065e-07
-2.7115888e-08
6.3076437e-07
-2.7499812e-08
6.4334356e-07
-2.0400713e-08
6.1081464e-07
-6.6334617e-09
4.5519649e-07
1.5962301e-07
4.0396381e-09
1.257401e-07
1.7487511e-08
3.9737052e-07
2.7917374e-08
5.9121007e-07
2.9653538e-08
6.5447374e-07
2.7150612e-08
6.4636214e-07
2.4482711e-08
6.2810968e-07
2.2322277e-08
6.1665617e-07
2.0369275e-08
6.0962063e-07
1.8488995e-08
6.043721e-07
1.666882e-08
6.0014354e-07
1.4910498e-08
5.967062e-07
1.3212176e-08
5.9390553e-07
1.15702e-08
5.9162007e-07
9.9799648e-09
5.8975859e-07
8.4360458e-09
5.8825277e-07
6.9323563e-09
5.8705099e-07
5.4623079e-09
5.861143e-07
4.0189545e-09
5.8541369e-07
2.5951101e-09
5.8492824e-07
1.183442e-09
5.8464393e-07
-2.2345429e-10
5.8455282e-07
-1.632991e-09
5.8465259e-07
-3.0525291e-09
5.8494656e-07
-4.4893109e-09
5.8544372e-07
-5.9503816e-09
5.8615933e-07
-7.4424866e-09
5.8711572e-07
-8.9719453e-09
5.8834368e-07
-1.0544496e-08
5.898845e-07
-1.2165122e-08
5.9179298e-07
-1.3837877e-08
5.9414201e-07
-1.5565448e-08
5.9702872e-07
-1.7347959e-08
6.0057991e-07
-1.9190079e-08
6.0497182e-07
-2.1160376e-08
6.1066578e-07
-2.3459791e-08
6.1929006e-07
-2.5805564e-08
6.3311014e-07
-2.5496775e-08
6.4303477e-07
-1.8114197e-08
6.0343206e-07
-5.4495523e-09
4.4253184e-07
1.5417346e-07
3.4365667e-09
1.2230355e-07
1.5584277e-08
3.8522284e-07
2.5889407e-08
5.8090497e-07
2.8291413e-08
6.5207174e-07
2.6245069e-08
6.4840849e-07
2.3742689e-08
6.3061206e-07
2.1691012e-08
6.1870785e-07
1.985401e-08
6.1145763e-07
1.8082295e-08
6.0614382e-07
1.6355206e-08
6.0187063e-07
1.4674685e-08
5.9838672e-07
1.304033e-08
5.9553989e-07
1.144999e-08
5.9321041e-07
9.9006398e-09
5.9130794e-07
8.3884732e-09
5.8976494e-07
6.9089952e-09
5.8853047e-07
5.4571537e-09
5.8756614e-07
4.0274737e-09
5.8684337e-07
2.6141786e-09
5.8634154e-07
1.2112975e-09
5.8604681e-07
-1.872408e-10
5.8595136e-07
-1.5875212e-09
5.8605288e-07
-2.9955588e-09
5.8635459e-07
-4.4172095e-09
5.8686538e-07
-5.8580702e-09
5.8760019e-07
-7.323363e-09
5.8858101e-07
-8.8178018e-09
5.8983812e-07
-1.0345447e-08
5.9141215e-07
-1.190956e-08
5.933571e-07
-1.3512459e-08
5.9574491e-07
-1.5155092e-08
5.9867135e-07
-1.6836347e-08
6.0226117e-07
-1.8563838e-08
6.0669931e-07
-2.0415368e-08
6.1251731e-07
-2.2560978e-08
6.2143567e-07
-2.4556967e-08
6.3510613e-07
-2.3668712e-08
6.4214651e-07
-1.6163289e-08
5.9592664e-07
-4.5426448e-09
4.309112e-07
1.4963082e-07
2.9968208e-09
1.1930675e-07
1.3995271e-08
3.7422443e-07
2.4074088e-08
5.7082618e-07
2.7013827e-08
6.4913201e-07
2.5390638e-08
6.5003167e-07
2.3043743e-08
6.3295895e-07
2.1080656e-08
6.2067093e-07
1.9339984e-08
6.131983e-07
1.7662948e-08
6.0782085e-07
1.6019776e-08
6.035138e-07
1.4411399e-08
5.999951e-07
1.2838175e-08
5.9711311e-07
1.12989e-08
5.9474968e-07
9.7916378e-09
5.928152e-07
8.3137843e-09
5.9124279e-07
6.862097e-09
5.8998216e-07
5.4327847e-09
5.8899546e-07
4.0216197e-09
5.8825453e-07
2.6240517e-09
5.877391e-07
1.2353156e-09
5.8743555e-07
-1.494661e-10
5.8733614e-07
-1.5351866e-09
5.874386e-07
-2.9266583e-09
5.8774607e-07
-4.3285126e-09
5.8826723e-07
-5.7450923e-09
5.8901677e-07
-7.1803345e-09
5.9001625e-07
-8.6376442e-09
5.9129543e-07
-1.0119771e-08
5.9289427e-07
-1.16287e-08
5.9486603e-07
-1.3165555e-08
5.9728176e-07
-1.4730194e-08
6.0023599e-07
-1.6321244e-08
6.0385221e-07
-1.7950451e-08
6.0832852e-07
-1.970273e-08
6.1426959e-07
-2.1709497e-08
6.2344244e-07
-2.3383598e-08
6.3678023e-07
-2.2016808e-08
6.4077972e-07
-1.4506957e-08
5.8841679e-07
-3.8528413e-09
4.2025708e-07
1.4577797e-07
2.6715619e-09
1.1663521e-07
1.2660752e-08
3.6423529e-07
2.2448675e-08
5.6103829e-07
2.5819427e-08
6.4576127e-07
2.4586936e-08
6.5126416e-07
2.2388597e-08
6.3515729e-07
2.0498631e-08
6.225609e-07
1.8837184e-08
6.1485975e-07
1.7241908e-08
6.0941613e-07
1.5673639e-08
6.0508207e-07
1.4131356e-08
6.0153738e-07
1.2615651e-08
5.9862882e-07
1.1125848e-08
5.9623948e-07
9.6607153e-09
5.9428034e-07
8.218509e-09
5.92685e-07
6.7969441e-09
5.9140372e-07
5.3932402e-09
5.9039916e-07
4.0042045e-09
5.8964357e-07
2.6263302e-09
5.8911698e-07
1.2558966e-09
5.8880598e-07
-1.1092943e-10
5.8870296e-07
-1.4779955e-09
5.8880566e-07
-2.8490642e-09
5.8911713e-07
-4.2277104e-09
5.8964588e-07
-5.6172164e-09
5.9040628e-07
-7.0204613e-09
5.914195e-07
-8.4398118e-09
5.9271478e-07
-9.8770275e-09
5.9433149e-07
-1.1333197e-08
5.963222e-07
-1.2808677e-08
5.9875724e-07
-1.4302758e-08
6.0173007e-07
-1.5814583e-08
6.0536404e-07
-1.7360701e-08
6.0987464e-07
-1.9030417e-08
6.1593931e-07
-2.0910857e-08
6.2532288e-07
-2.2290607e-08
6.3815998e-07
-2.0532375e-08
6.3902149e-07
-1.3102696e-08
5.8098711e-07
-3.3297356e-09
4.1048412e-07
1.4244824e-07
2.4250496e-09
1.1421019e-07
1.1530807e-08
3.5512959e-07
2.0989623e-08
5.5157953e-07
2.4703241e-08
6.4204767e-07
2.3830803e-08
6.521366e-07
2.1776557e-08
6.3721153e-07
1.9948483e-08
6.2438897e-07
1.8351903e-08
6.1645633e-07
1.6826797e-08
6.1094123e-07
1.5324981e-08
6.0658388e-07
1.3842779e-08
6.0301958e-07
1.2380622e-08
6.0009097e-07
1.0938065e-08
5.9768204e-07
9.5142908e-09
5.9570411e-07
8.10814e-09
5.9409115e-07
6.7180392e-09
5.9279382e-07
5.3419998e-09
5.917752e-07
3.9776701e-09
5.910079e-07
2.6224137e-09
5.9047223e-07
1.2733962e-09
5.90155e-07
-7.2321233e-11
5.9004868e-07
-1.4176878e-09
5.9015103e-07
-2.765569e-09
5.9046502e-07
-4.1186483e-09
5.9099895e-07
-5.47933e-09
5.9176696e-07
-6.8496438e-09
5.9278981e-07
-8.2311563e-09
5.9409629e-07
-9.6249087e-09
5.9572524e-07
-1.1031398e-08
5.9772868e-07
-1.2450546e-08
6.0017639e-07
-1.3881479e-08
6.0316101e-07
-1.5324451e-08
6.0680701e-07
-1.6801021e-08
6.1135121e-07
-1.8401863e-08
6.1754015e-07
-2.0166078e-08
6.2708709e-07
-2.1277467e-08
6.3927137e-07
-1.9201384e-08
6.3694541e-07
-1.1910356e-08
5.7369608e-07
-2.9323226e-09
4.0150609e-07
1.3951592e-07
2.2319038e-09
1.1197832e-07
1.0564983e-08
3.4679659e-07
1.967487e-08
5.424697e-07
2.3658716e-08
6.3806385e-07
2.3117774e-08
6.5267754e-07
2.1204937e-08
6.3912436e-07
1.9431125e-08
6.2616278e-07
1.7887725e-08
6.1799973e-07
1.6422679e-08
6.1240628e-07
1.497965e-08
6.0802691e-07
1.3551826e-08
6.0444741e-07
1.2139182e-08
6.0150362e-07
1.0741304e-08
5.9907992e-07
9.3575746e-09
5.9708784e-07
7.9872101e-09
5.9546151e-07
6.6291476e-09
5.9415189e-07
5.2820041e-09
5.9312234e-07
3.9440982e-09
5.923458e-07
2.613505e-09
5.9180283e-07
1.2881279e-09
5.9148038e-07
-3.4220636e-11
5.9137103e-07
-1.3557336e-09
5.9147254e-07
-2.6785256e-09
5.9178781e-07
-4.0045428e-09
5.9232497e-07
-5.3354795e-09
5.930979e-07
-6.6726993e-09
5.9412703e-07
-8.0171717e-09
5.9544076e-07
-9.3694421e-09
5.9707751e-07
-1.0729651e-08
5.9908889e-07
-1.2097538e-08
6.0154428e-07
-1.347236e-08
6.0453583e-07
-1.4855911e-08
6.0819056e-07
-1.6274596e-08
6.1276989e-07
-1.7817365e-08
6.1908292e-07
-1.9473273e-08
6.28743e-07
-2.0340166e-08
6.4013826e-07
-1.8007598e-08
6.3461284e-07
-1.0894063e-08
5.6658254e-07
-2.6281479e-09
3.9324017e-07
1.3688777e-07
2.0746398e-09
1.0990372e-07
9.7311732e-09
3.3914014e-07
1.8484885e-08
5.3371607e-07
2.2679006e-08
6.3386976e-07
2.2443054e-08
6.529135e-07
2.0670083e-08
6.4089733e-07
1.8945805e-08
6.2788706e-07
1.7446333e-08
6.194992e-07
1.6032705e-08
6.1381991e-07
1.4641673e-08
6.0941794e-07
1.3262988e-08
6.0582609e-07
1.1895953e-08
6.0287065e-07
1.0540049e-08
6.0043582e-07
9.194718e-09
5.9843317e-07
7.8593926e-09
5.9679684e-07
6.5333623e-09
5.9547792e-07
5.2156955e-09
5.9444001e-07
3.9052333e-09
5.9365626e-07
2.6006222e-09
5.9310744e-07
1.3003681e-09
5.9278063e-07
2.9034271e-12
5.9266849e-07
-1.2933445e-09
5.9276879e-07
-2.5898701e-09
5.9308433e-07
-3.8880234e-09
5.9362312e-07
-5.1889371e-09
5.9439881e-07
-6.4934668e-09
5.9543156e-07
-7.8021525e-09
5.9674945e-07
-9.1152192e-09
5.9839058e-07
-1.043263e-08
6.004063e-07
-1.1754115e-08
6.0286576e-07
-1.3079281e-08
6.05861e-07
-1.4411741e-08
6.0952302e-07
-1.57823e-08
6.1414045e-07
-1.7275196e-08
6.2057581e-07
-1.8828861e-08
6.3029666e-07
-1.9472814e-08
6.4078222e-07
-1.6934518e-08
6.3207454e-07
-1.002276e-08
5.5967078e-07
-2.3920978e-09
3.8560951e-07
1.3449567e-07
1.9415868e-09
1.0796219e-07
9.0042567e-09
3.3207757e-07
1.7402959e-08
5.2531746e-07
2.1757678e-08
6.2951509e-07
2.1802088e-08
6.5286909e-07
2.0168042e-08
6.4253137e-07
1.8490809e-08
6.2956429e-07
1.7028132e-08
6.2096187e-07
1.5658654e-08
6.1518938e-07
1.4313696e-08
6.107629e-07
1.297944e-08
6.0716035e-07
1.1654352e-08
6.0419574e-07
1.0337725e-08
6.0175245e-07
9.0289663e-09
5.9974193e-07
7.7276119e-09
5.9809819e-07
6.4331809e-09
5.9677235e-07
5.1450689e-09
5.9572812e-07
3.8625155e-09
5.9493882e-07
2.5846164e-09
5.9438534e-07
1.3103597e-09
5.9405489e-07
3.8677842e-11
5.9394018e-07
-1.2314938e-09
5.9403896e-07
-2.5011567e-09
5.9435399e-07
-3.7711873e-09
5.9489315e-07
-5.0422841e-09
5.9566991e-07
-6.3149268e-09
5.967042e-07
-7.5893605e-09
5.9802388e-07
-8.8656244e-09
5.9966684e-07
-1.0143631e-08
6.0168431e-07
-1.1423221e-08
6.0414535e-07
-1.2704503e-08
6.0714228e-07
-1.3993067e-08
6.1081158e-07
-1.5323459e-08
6.1547084e-07
-1.6772445e-08
6.220248e-07
-1.8228432e-08
6.3175265e-07
-1.8668757e-08
6.4122254e-07
-1.5966564e-08
6.2937235e-07
-9.2703218e-09
5.5297454e-07
-2.2051998e-09
3.7854439e-07
1.3229047e-07
1.8252042e-09
1.0613704e-07
8.364749e-09
3.2553815e-07
1.6415085e-08
5.1726724e-07
2.0889031e-08
6.250412e-07
2.1190847e-08
6.5256728e-07
1.9694964e-08
6.4402725e-07
1.8063938e-08
6.3119531e-07
1.6632711e-08
6.223931e-07
1.5301336e-08
6.1652076e-07
1.3997344e-08
6.1206689e-07
1.2703343e-08
6.0845435e-07
1.141684e-08
6.0548224e-07
1.0136891e-08
6.030324e-07
8.8628077e-09
6.0101601e-07
7.594154e-09
5.9936684e-07
6.3305865e-09
5.9803591e-07
5.0717285e-09
5.9698698e-07
3.8171163e-09
5.9619343e-07
2.5661914e-09
5.9563626e-07
1.3183205e-09
5.9530276e-07
7.2832652e-11
5.9518566e-07
-1.1709372e-09
5.9528273e-07
-2.4135989e-09
5.9559666e-07
-3.6556629e-09
5.9613522e-07
-4.8975013e-09
5.9691174e-07
-6.1393257e-09
5.9794603e-07
-7.3811919e-09
5.9926575e-07
-8.6230528e-09
6.009087e-07
-9.8648574e-09
6.0292611e-07
-1.1106634e-08
6.0538713e-07
-1.2349093e-08
6.0838474e-07
-1.359986e-08
6.1206235e-07
-1.4896419e-08
6.167674e-07
-1.6305607e-08
6.2343399e-07
-1.7667341e-08
6.3311438e-07
-1.7921312e-08
6.4147651e-07
-1.5089707e-08
6.2654075e-07
-8.6152345e-09
5.4650007e-07
-2.0534555e-09
3.7198261e-07
1.3023701e-07
1.7207721e-09
1.0441634e-07
7.7975763e-09
3.1946149e-07
1.5509647e-08
5.095553e-07
2.0068199e-08
6.2048272e-07
2.0605933e-08
6.5202956e-07
1.9247321e-08
6.4538585e-07
1.7662822e-08
6.3277981e-07
1.6259167e-08
6.2379676e-07
1.4960911e-08
6.1781901e-07
1.3693502e-08
6.133343e-07
1.2436092e-08
6.0971176e-07
1.1185132e-08
6.067332e-07
9.9394076e-09
6.0427812e-07
8.6981089e-09
6.0225731e-07
7.4607728e-09
6.0060418e-07
6.2271264e-09
5.9926956e-07
4.9969443e-09
5.9821716e-07
3.7699765e-09
5.974204e-07
2.5459241e-09
5.9686031e-07
1.3244446e-09
5.9652424e-07
1.051738e-10
5.9640493e-07
-1.1122426e-09
5.9650015e-07
-2.3281143e-09
5.9681253e-07
-3.542675e-09
5.9734978e-07
-4.7560593e-09
5.9812513e-07
-5.9682964e-09
5.9915826e-07
-7.1793338e-09
6.0047678e-07
-8.3891084e-09
6.0211848e-07
-9.5976615e-09
6.0413467e-07
-1.0805255e-08
6.0659472e-07
-1.2013265e-08
6.0959275e-07
-1.3231327e-08
6.1328041e-07
-1.4498974e-08
6.1803505e-07
-1.5871002e-08
6.2480602e-07
-1.7141088e-08
6.3438447e-07
-1.7224207e-08
6.4155963e-07
-1.4291708e-08
6.2360825e-07
-8.0400573e-09
5.4024842e-07
-1.9267647e-09
3.6586932e-07
1.2831025e-07
1.6254207e-09
1.02791e-07
7.2910417e-09
3.1379605e-07
1.4677031e-08
5.0216948e-07
1.9291098e-08
6.1586874e-07
2.0044574e-08
6.5127611e-07
1.8822002e-08
6.4660842e-07
1.7285108e-08
6.343167e-07
1.5906328e-08
6.2517554e-07
1.4637108e-08
6.1908823e-07
1.3402534e-08
6.1456887e-07
1.2178513e-08
6.1093578e-07
1.0960366e-08
6.0795135e-07
9.7465893e-09
6.054919e-07
8.5362359e-09
6.0346766e-07
7.328785e-09
6.0181163e-07
6.1239858e-09
6.0047436e-07
4.9217053e-09
5.9941944e-07
3.7218414e-09
5.9862026e-07
2.5242843e-09
5.9805787e-07
1.3289083e-09
5.9771961e-07
1.355815e-10
5.9759826e-07
-1.055816e-09
5.9769154e-07
-2.2453689e-09
5.9800208e-07
-3.4331089e-09
5.9853752e-07
-4.6190047e-09
5.9931102e-07
-5.8029703e-09
6.0034223e-07
-6.9849041e-09
6.0165872e-07
-8.1647754e-09
6.0329835e-07
-9.3427502e-09
6.0531264e-07
-1.0519347e-08
6.0777132e-07
-1.1696646e-08
6.1077004e-07
-1.2886203e-08
6.1446997e-07
-1.4128666e-08
6.1927751e-07
-1.5465036e-08
6.2614239e-07
-1.6645541e-08
6.3556497e-07
-1.6571809e-08
6.414859e-07
-1.3562113e-08
6.2059855e-07
-7.5308098e-09
5.3421712e-07
-1.8179951e-09
3.601565e-07
1.2649225e-07
1.5374415e-09
1.0125365e-07
6.835993e-09
3.084977e-07
1.3909243e-08
4.9509643e-07
1.8554322e-08
6.1122377e-07
1.9504558e-08
6.503259e-07
1.8416342e-08
6.4769663e-07
1.6928573e-08
6.3580446e-07
1.55729e-08
6.2653121e-07
1.4329389e-08
6.2033174e-07
1.3124444e-08
6.1577382e-07
1.1931017e-08