/*--------------------------------*- C++ -*----------------------------------*\
  =========                 |
  \\      /  F ield         | OpenFOAM: The Open Source CFD Toolbox
   \\    /   O peration     | Website:  https://openfoam.org
    \\  /    A nd           | Version:  10
     \\/     M anipulation  |
\*---------------------------------------------------------------------------*/
FoamFile
{
    format      ascii;
    class       volScalarField;
    location    "0.27";
    object      T;
}
// * * * * * * * * * * * * * * * * * * * * * * * * * * * * * * * * * * * * * //

dimensions      [0 0 0 1 0 0 0];

internalField   nonuniform List<scalar> 
4000
(
303.10135
299.3429
299.99042
300.00082
299.99993
300
300
300
300
300
300
300
300
300
300
300
300
300
300
300
300
300
300
300
300
300
300
300
300
300
300
300
300
300
300
300
300
300
300
300
309.66347
298.49296
299.77921
300.00184
300.0008
299.99999
300
300
300
300
300
300
300
300
300
300
300
300
300
300
300
300
300
300
300
300
300
300
300
300
300
300
300
300
300
300
300
300
300
300
316.00432
298.68457
299.39219
299.9757
300.00406
300.00025
299.99999
300
300
300
300
300
300
300
300
300
300
300
300
300
300
300
300
300
300
300
300
300
300
300
300
300
300
300
300
300
300
300
300
300
321.74243
299.84596
298.98477
299.89491
300.00716
300.00139
300
299.99999
300
300
300
300
300
300
300
300
300
300
300
300
300
300
300
300
300
300
300
300
300
300
300
300
300
300
300
300
300
300
300
300
326.67132
301.7006
298.70996
299.75311
300.00323
300.00379
300.00017
299.99998
300
300
300
300
300
300
300
300
300
300
300
300
300
300
300
300
300
300
300
300
300
300
300
300
300
300
300
300
300
300
300
300
330.68537
303.94824
298.66324
299.56827
299.98427
300.00697
300.00072
299.99997
299.99999
300
300
300
300
300
300
300
300
300
300
300
300
300
300
300
300
300
300
300
300
300
300
300
300
300
300
300
300
300
300
300
333.77481
306.33115
298.87089
299.37364
299.94516
300.00939
300.00181
300
299.99998
300
300
300
300
300
300
300
300
300
300
300
300
300
300
300
300
300
300
300
300
300
300
300
300
300
300
300
300
300
300
300
336.02239
308.6648
299.30783
299.20375
299.88577
300.00891
300.00346
300.00014
299.99997
300
300
300
300
300
300
300
300
300
300
300
300
300
300
300
300
300
300
300
300
300
300
300
300
300
300
300
300
300
300
300
337.57467
310.83834
299.92433
299.08453
299.81046
300.00352
300.00542
300.00046
299.99996
299.99999
300
300
300
300
300
300
300
300
300
300
300
300
300
300
300
300
300
300
300
300
300
300
300
300
300
300
300
300
300
300
338.60299
312.79905
300.66584
299.03047
299.72627
299.99192
300.00725
300.001
299.99996
299.99998
300
300
300
300
300
300
300
300
300
300
300
300
300
300
300
300
300
300
300
300
300
300
300
300
300
300
300
300
300
300
339.27009
314.53403
301.48375
299.04598
299.64095
299.97368
300.00841
300.00176
300.00001
299.99997
300
300
300
300
300
300
300
300
300
300
300
300
300
300
300
300
300
300
300
300
300
300
300
300
300
300
300
300
300
300
339.70926
316.05455
302.33968
299.12839
299.56151
299.94924
300.00835
300.00269
300.00012
299.99996
300
300
300
300
300
300
300
300
300
300
300
300
300
300
300
300
300
300
300
300
300
300
300
300
300
300
300
300
300
300
340.01714
317.38406
303.206
299.27102
299.49354
299.91971
300.00662
300.00368
300.0003
299.99996
299.99999
300
300
300
300
300
300
300
300
300
300
300
300
300
300
300
300
300
300
300
300
300
300
300
300
300
300
300
300
300
340.25639
318.55006
304.06433
299.46547
299.44101
299.88652
300.00294
300.00462
300.00057
299.99996
299.99999
300
300
300
300
300
300
300
300
300
300
300
300
300
300
300
300
300
300
300
300
300
300
300
300
300
300
300
300
300
340.46346
319.5794
304.90331
299.7032
299.40636
299.8513
299.99715
300.00536
300.0009
299.99998
299.99998
300
300
300
300
300
300
300
300
300
300
300
300
300
300
300
300
300
300
300
300
300
300
300
300
300
300
300
300
300
340.6571
320.49592
305.71657
299.97629
299.39087
299.81562
299.98928
300.00575
300.0013
300.00003
299.99998
300
300
300
300
300
300
300
300
300
300
300
300
300
300
300
300
300
300
300
300
300
300
300
300
300
300
300
300
300
340.84537
321.31968
306.50105
300.27781
299.39488
299.78095
299.97945
300.00568
300.00174
300.0001
299.99997
300
300
300
300
300
300
300
300
300
300
300
300
300
300
300
300
300
300
300
300
300
300
300
300
300
300
300
300
300
341.03057
322.06689
307.25572
300.60186
299.41814
299.74858
299.96791
300.00505
300.00218
300.00019
299.99997
299.99999
300
300
300
300
300
300
300
300
300
300
300
300
300
300
300
300
300
300
300
300
300
300
300
300
300
300
300
300
341.21238
322.75039
307.98073
300.94353
299.45995
299.7196
299.95494
300.00378
300.00259
300.00031
299.99998
299.99999
300
300
300
300
300
300
300
300
300
300
300
300
300
300
300
300
300
300
300
300
300
300
300
300
300
300
300
300
341.38955
323.38018
308.6769
301.29875
299.51939
299.69492
299.94088
300.00182
300.00293
300.00046
299.99999
299.99999
300
300
300
300
300
300
300
300
300
300
300
300
300
300
300
300
300
300
300
300
300
300
300
300
300
300
300
300
341.56079
323.96405
309.34531
301.66416
299.59538
299.67526
299.9261
299.99915
300.00316
300.00063
300.00001
299.99999
300
300
300
300
300
300
300
300
300
300
300
300
300
300
300
300
300
300
300
300
300
300
300
300
300
300
300
300
341.72514
324.50806
309.9872
302.03696
299.68676
299.66117
299.91097
299.99578
300.00326
300.00081
300.00004
299.99998
300
300
300
300
300
300
300
300
300
300
300
300
300
300
300
300
300
300
300
300
300
300
300
300
300
300
300
300
341.88201
325.01697
310.60377
302.41483
299.79236
299.65307
299.89584
299.99174
300.00318
300.00099
300.00007
299.99998
300
300
300
300
300
300
300
300
300
300
300
300
300
300
300
300
300
300
300
300
300
300
300
300
300
300
300
300
342.03118
325.49463
311.19623
302.79582
299.91102
299.65127
299.88108
299.98708
300.0029
300.00117
300.00012
299.99999
300
300
300
300
300
300
300
300
300
300
300
300
300
300
300
300
300
300
300
300
300
300
300
300
300
300
300
300
342.17272
325.94417
311.7657
303.17832
300.04159
299.65593
299.86701
299.98186
300.0024
300.00133
300.00017
299.99999
299.99999
300
300
300
300
300
300
300
300
300
300
300
300
300
300
300
300
300
300
300
300
300
300
300
300
300
300
300
342.30688
326.36824
312.31326
303.56096
300.183
299.66717
299.85394
299.97616
300.00166
300.00147
300.00024
300
299.99999
300
300
300
300
300
300
300
300
300
300
300
300
300
300
300
300
300
300
300
300
300
300
300
300
300
300
300
342.43403
326.76911
312.83995
303.9426
300.33421
299.68501
299.84217
299.97007
300.00067
300.00157
300.0003
300.00001
299.99999
300
300
300
300
300
300
300
300
300
300
300
300
300
300
300
300
300
300
300
300
300
300
300
300
300
300
300
342.55461
327.14874
313.34674
304.32227
300.49423
299.70941
299.83194
299.96369
299.99943
300.00162
300.00038
300.00002
299.99999
300
300
300
300
300
300
300
300
300
300
300
300
300
300
300
300
300
300
300
300
300
300
300
300
300
300
300
342.66909
327.5089
313.83458
304.69917
300.66214
299.74027
299.82349
299.95712
299.99793
300.00161
300.00045
300.00003
299.99999
300
300
300
300
300
300
300
300
300
300
300
300
300
300
300
300
300
300
300
300
300
300
300
300
300
300
300
342.77791
327.85114
314.30437
305.07265
300.83708
299.77746
299.81701
299.95047
299.99619
300.00154
300.00052
300.00005
299.99999
300
300
300
300
300
300
300
300
300
300
300
300
300
300
300
300
300
300
300
300
300
300
300
300
300
300
300
342.88151
328.17687
314.75697
305.44214
301.01826
299.82082
299.81269
299.94384
299.99421
300.00139
300.00059
300.00008
300
300
300
300
300
300
300
300
300
300
300
300
300
300
300
300
300
300
300
300
300
300
300
300
300
300
300
300
342.98028
328.48736
315.19322
305.8072
301.20492
299.87016
299.81067
299.93734
299.99202
300.00116
300.00065
300.0001
300
300
300
300
300
300
300
300
300
300
300
300
300
300
300
300
300
300
300
300
300
300
300
300
300
300
300
300
343.0746
328.78376
315.6139
306.16746
301.39637
299.92525
299.81109
299.93107
299.98963
300.00084
300.0007
300.00013
300
300
300
300
300
300
300
300
300
300
300
300
300
300
300
300
300
300
300
300
300
300
300
300
300
300
300
300
343.1648
329.06709
316.01978
306.52263
301.59199
299.98587
299.81403
299.92515
299.98707
300.00042
300.00073
300.00015
300.00001
300
300
300
300
300
300
300
300
300
300
300
300
300
300
300
300
300
300
300
300
300
300
300
300
300
300
300
343.25117
329.33829
316.41158
306.87248
301.79118
300.05179
299.81958
299.91966
299.98436
299.99992
300.00074
300.00018
300.00001
300
300
300
300
300
300
300
300
300
300
300
300
300
300
300
300
300
300
300
300
300
300
300
300
300
300
300
343.33399
329.59821
316.78998
307.21684
301.99341
300.12275
299.82781
299.91471
299.98153
299.99931
300.00073
300.00021
300.00002
300
300
300
300
300
300
300
300
300
300
300
300
300
300
300
300
300
300
300
300
300
300
300
300
300
300
300
343.4135
329.84761
317.15564
307.55557
302.19817
300.19851
299.83876
299.91038
299.97863
299.99861
300.0007
300.00024
300.00003
300
300
300
300
300
300
300
300
300
300
300
300
300
300
300
300
300
300
300
300
300
300
300
300
300
300
300
343.4899
330.08718
317.50916
307.88859
302.40502
300.27881
299.85245
299.90676
299.97567
299.99782
300.00064
300.00026
300.00004
300
300
300
300
300
300
300
300
300
300
300
300
300
300
300
300
300
300
300
300
300
300
300
300
300
300
300
343.5634
330.31753
317.85113
308.21582
302.61354
300.36341
299.8689
299.90393
299.9727
299.99694
300.00055
300.00028
300.00005
300
300
300
300
300
300
300
300
300
300
300
300
300
300
300
300
300
300
300
300
300
300
300
300
300
300
300
343.63416
330.53924
318.18208
308.53725
302.82334
300.45207
299.88811
299.90195
299.96976
299.99597
300.00043
300.0003
300.00006
300
300
300
300
300
300
300
300
300
300
300
300
300
300
300
300
300
300
300
300
300
300
300
300
300
300
300
343.70234
330.7528
318.50253
308.85286
303.03408
300.54452
299.91007
299.90091
299.96688
299.99492
300.00027
300.00031
300.00007
300
300
300
300
300
300
300
300
300
300
300
300
300
300
300
300
300
300
300
300
300
300
300
300
300
300
300
343.76808
330.95869
318.81295
309.16266
303.24542
300.64055
299.93475
299.90085
299.96409
299.99381
300.00008
300.00032
300.00008
300.00001
300
300
300
300
300
300
300
300
300
300
300
300
300
300
300
300
300
300
300
300
300
300
300
300
300
300
343.8315
331.15731
319.11379
309.46666
303.45709
300.73991
299.96212
299.90184
299.96144
299.99262
299.99985
300.00032
300.00009
300.00001
300
300
300
300
300
300
300
300
300
300
300
300
300
300
300
300
300
300
300
300
300
300
300
300
300
300
343.89273
331.34904
319.40546
309.76491
303.6688
300.84237
299.99215
299.90393
299.95897
299.99139
299.99958
300.0003
300.0001
300.00001
300
300
300
300
300
300
300
300
300
300
300
300
300
300
300
300
300
300
300
300
300
300
300
300
300
300
343.95185
331.53423
319.68834
310.05745
303.88031
300.94772
300.02477
299.90715
299.95671
299.99011
299.99927
300.00028
300.00011
300.00002
300
300
300
300
300
300
300
300
300
300
300
300
300
300
300
300
300
300
300
300
300
300
300
300
300
300
344.00897
331.7132
319.96281
310.34433
304.09139
301.05574
300.05995
299.91154
299.95469
299.98881
299.99893
300.00025
300.00012
300.00002
300
300
300
300
300
300
300
300
300
300
300
300
300
300
300
300
300
300
300
300
300
300
300
300
300
300
344.06417
331.88621
320.2292
310.6256
304.30184
301.16623
300.09761
299.91715
299.95295
299.98748
299.99855
300.00021
300.00012
300.00002
300
300
300
300
300
300
300
300
300
300
300
300
300
300
300
300
300
300
300
300
300
300
300
300
300
300
344.11751
332.05354
320.4878
310.90133
304.51145
301.27897
300.1377
299.92399
299.95153
299.98615
299.99813
300.00015
300.00013
300.00003
300
300
300
300
300
300
300
300
300
300
300
300
300
300
300
300
300
300
300
300
300
300
300
300
300
300
344.16908
332.21541
320.73892
311.17158
304.72006
301.39378
300.18015
299.9321
299.95046
299.98483
299.99769
300.00008
300.00013
300.00003
300
300
300
300
300
300
300
300
300
300
300
300
300
300
300
300
300
300
300
300
300
300
300
300
300
300
344.21892
332.37202
320.9828
311.43641
304.9275
301.51046
300.22487
299.94147
299.94977
299.98353
299.99721
299.99999
300.00013
300.00004
300
300
300
300
300
300
300
300
300
300
300
300
300
300
300
300
300
300
300
300
300
300
300
300
300
300
344.26708
332.52358
321.21971
311.69587
305.13361
301.62883
300.27181
299.95214
299.94949
299.98227
299.9967
299.99989
300.00013
300.00004
300.00001
300
300
300
300
300
300
300
300
300
300
300
300
300
300
300
300
300
300
300
300
300
300
300
300
300
344.31363
332.67025
321.44985
311.95004
305.33825
301.74873
300.32087
299.9641
299.94965
299.98106
299.99617
299.99978
300.00012
300.00004
300.00001
300
300
300
300
300
300
300
300
300
300
300
300
300
300
300
300
300
300
300
300
300
300
300
300
300
344.35858
332.81217
321.67344
312.19897
305.5413
301.86996
300.37197
299.97737
299.95027
299.97991
299.99562
299.99965
300.00011
300.00005
300.00001
300
300
300
300
300
300
300
300
300
300
300
300
300
300
300
300
300
300
300
300
300
300
300
300
300
344.40198
332.94948
321.89065
312.44271
305.74262
301.99238
300.42504
299.99194
299.95137
299.97885
299.99505
299.9995
300.00009
300.00005
300.00001
300
300
300
300
300
300
300
300
300
300
300
300
300
300
300
300
300
300
300
300
300
300
300
300
300
344.44385
333.0823
322.10165
312.68132
305.9421
302.11581
300.47999
300.0078
299.95299
299.97789
299.99447
299.99934
300.00007
300.00005
300.00001
300
300
300
300
300
300
300
300
300
300
300
300
300
300
300
300
300
300
300
300
300
300
300
300
300
344.48421
333.21073
322.30659
312.91484
306.13963
302.24011
300.53673
300.02496
299.95515
299.97704
299.99388
299.99917
300.00005
300.00005
300.00001
300
300
300
300
300
300
300
300
300
300
300
300
300
300
300
300
300
300
300
300
300
300
300
300
300
344.52308
333.33484
322.5056
313.14331
306.33511
302.36511
300.59517
300.04339
299.95785
299.97632
299.99328
299.99898
300.00001
300.00005
300.00001
300
300
300
300
300
300
300
300
300
300
300
300
300
300
300
300
300
300
300
300
300
300
300
300
300
344.56046
333.4547
322.69879
313.36677
306.52843
302.49068
300.65522
300.06309
299.96113
299.97573
299.99269
299.99878
299.99998
300.00005
300.00002
300
300
300
300
300
300
300
300
300
300
300
300
300
300
300
300
300
300
300
300
300
300
300
300
300
344.59636
333.57036
322.88625
313.58524
306.71949
302.61667
300.71679
300.08403
299.96498
299.97531
299.99211
299.99857
299.99994
300.00005
300.00002
300
300
300
300
300
300
300
300
300
300
300
300
300
300
300
300
300
300
300
300
300
300
300
300
300
344.63078
333.68185
323.06807
313.79875
306.9082
302.74293
300.77979
300.10619
299.96944
299.97505
299.99154
299.99834
299.99989
300.00004
300.00002
300
300
300
300
300
300
300
300
300
300
300
300
300
300
300
300
300
300
300
300
300
300
300
300
300
344.6637
333.7892
323.2443
314.00731
307.09447
302.86933
300.84413
300.12956
299.9745
299.97498
299.99099
299.99811
299.99983
300.00004
300.00002
300
300
300
300
300
300
300
300
300
300
300
300
300
300
300
300
300
300
300
300
300
300
300
300
300
344.69511
333.8924
323.41499
314.21092
307.27819
302.99573
300.90971
300.1541
299.98019
299.9751
299.99047
299.99787
299.99977
300.00003
300.00002
300
300
300
300
300
300
300
300
300
300
300
300
300
300
300
300
300
300
300
300
300
300
300
300
300
344.72501
333.99144
323.58016
314.40958
307.45929
303.122
300.97644
300.17979
299.98649
299.97544
299.98998
299.99762
299.99971
300.00002
300.00002
300
300
300
300
300
300
300
300
300
300
300
300
300
300
300
300
300
300
300
300
300
300
300
300
300
344.75336
334.0863
323.73982
314.60328
307.63766
303.24801
301.04423
300.20658
299.99343
299.97599
299.98953
299.99736
299.99964
300.00001
300.00002
300.00001
300
300
300
300
300
300
300
300
300
300
300
300
300
300
300
300
300
300
300
300
300
300
300
300
344.78014
334.17693
323.89397
314.792
307.81322
303.37363
301.11297
300.23445
300.001
299.97678
299.98912
299.9971
299.99956
300
300.00002
300.00001
300
300
300
300
300
300
300
300
300
300
300
300
300
300
300
300
300
300
300
300
300
300
300
300
344.80533
334.26328
324.04257
314.97569
307.98586
303.49872
301.18256
300.26336
300.0092
299.9778
299.98877
299.99684
299.99948
299.99998
300.00002
300.00001
300
300
300
300
300
300
300
300
300
300
300
300
300
300
300
300
300
300
300
300
300
300
300
300
344.82891
334.34528
324.18558
315.15431
308.15549
303.62316
301.25292
300.29327
300.01803
299.97909
299.98847
299.99658
299.99939
299.99996
300.00002
300.00001
300
300
300
300
300
300
300
300
300
300
300
300
300
300
300
300
300
300
300
300
300
300
300
300
344.85084
334.42287
324.32294
315.32782
308.32201
303.74682
301.32395
300.32412
300.0275
299.98063
299.98824
299.99633
299.99929
299.99994
300.00001
300.00001
300
300
300
300
300
300
300
300
300
300
300
300
300
300
300
300
300
300
300
300
300
300
300
300
344.87111
334.49596
324.45458
315.49612
308.48531
303.86956
301.39553
300.35589
300.03759
299.98244
299.98808
299.99608
299.9992
299.99992
300.00001
300.00001
300
300
300
300
300
300
300
300
300
300
300
300
300
300
300
300
300
300
300
300
300
300
300
300
344.88971
334.56449
324.58039
315.65916
308.64528
303.99127
301.46757
300.38852
300.04829
299.98452
299.98799
299.99584
299.9991
299.9999
300.00001
300.00001
300
300
300
300
300
300
300
300
300
300
300
300
300
300
300
300
300
300
300
300
300
300
300
300
344.90662
334.62836
324.70029
315.81682
308.8018
304.11181
301.53997
300.42196
300.05961
299.98689
299.98799
299.99561
299.99899
299.99987
300
300.00001
300
300
300
300
300
300
300
300
300
300
300
300
300
300
300
300
300
300
300
300
300
300
300
300
344.92185
334.68752
324.81414
315.96901
308.95477
304.23105
301.61262
300.45616
300.07152
299.98955
299.98808
299.99539
299.99888
299.99984
300
300.00001
300
300
300
300
300
300
300
300
300
300
300
300
300
300
300
300
300
300
300
300
300
300
300
300
344.93541
334.7419
324.92185
316.1156
309.10404
304.34885
301.68542
300.49107
300.08401
299.9925
299.98826
299.99518
299.99878
299.99981
299.99999
300.00001
300
300
300
300
300
300
300
300
300
300
300
300
300
300
300
300
300
300
300
300
300
300
300
300
344.94731
334.79149
325.02328
316.25647
309.24949
304.46508
301.75827
300.52662
300.09707
299.99574
299.98855
299.995
299.99867
299.99978
299.99999
300.00001
300
300
300
300
300
300
300
300
300
300
300
300
300
300
300
300
300
300
300
300
300
300
300
300
344.95761
334.83626
325.11832
316.39148
309.39099
304.57961
301.83104
300.56276
300.11069
299.99928
299.98893
299.99484
299.99855
299.99974
299.99998
300.00001
300
300
300
300
300
300
300
300
300
300
300
300
300
300
300
300
300
300
300
300
300
300
300
300
344.96634
334.87625
325.20686
316.52049
309.52838
304.6923
301.90365
300.59944
300.12483
300.00311
299.98943
299.9947
299.99845
299.9997
299.99997
300
300
300
300
300
300
300
300
300
300
300
300
300
300
300
300
300
300
300
300
300
300
300
300
300
344.97359
334.91151
325.28883
316.64335
309.66153
304.80301
301.97597
300.63658
300.13949
300.00724
299.99004
299.99459
299.99834
299.99966
299.99996
300
300
300
300
300
300
300
300
300
300
300
300
300
300
300
300
300
300
300
300
300
300
300
300
300
344.97943
334.94214
325.36415
316.75991
309.79027
304.9116
302.0479
300.67412
300.15463
300.01167
299.99076
299.99451
299.99823
299.99962
299.99995
300
300
300
300
300
300
300
300
300
300
300
300
300
300
300
300
300
300
300
300
300
300
300
300
300
344.98397
334.9683
325.43281
316.87004
309.91446
305.01793
302.11933
300.71201
300.17024
300.01639
299.99161
299.99446
299.99813
299.99958
299.99994
300
300
300
300
300
300
300
300
300
300
300
300
300
300
300
300
300
300
300
300
300
300
300
300
300
344.98732
334.99017
325.49482
316.97362
310.03395
305.12185
302.19015
300.75017
300.18628
300.0214
299.99258
299.99445
299.99803
299.99954
299.99993
300
300
300
300
300
300
300
300
300
300
300
300
300
300
300
300
300
300
300
300
300
300
300
300
300
344.98959
335.008
325.55024
317.07055
310.14859
305.22323
302.26023
300.78853
300.20274
300.02669
299.99368
299.99447
299.99794
299.99949
299.99992
300
300
300
300
300
300
300
300
300
300
300
300
300
300
300
300
300
300
300
300
300
300
300
300
300
344.99093
335.02207
325.5992
317.16074
310.25825
305.32193
302.32949
300.82704
300.21957
300.03227
299.99491
299.99454
299.99786
299.99945
299.9999
299.99999
300
300
300
300
300
300
300
300
300
300
300
300
300
300
300
300
300
300
300
300
300
300
300
300
344.99148
335.03272
325.6419
317.24417
310.36278
305.41782
302.3978
300.86561
300.23676
300.03811
299.99627
299.99464
299.99778
299.9994
299.99989
299.99999
300
300
300
300
300
300
300
300
300
300
300
300
300
300
300
300
300
300
300
300
300
300
300
300
344.99137
335.04032
325.67859
317.32084
310.46209
305.51077
302.46507
300.90418
300.25426
300.04422
299.99775
299.99479
299.99771
299.99936
299.99987
299.99999
300
300
300
300
300
300
300
300
300
300
300
300
300
300
300
300
300
300
300
300
300
300
300
300
344.99075
335.04525
325.70961
317.39082
310.5561
305.60067
302.53119
300.9427
300.27205
300.05058
299.99937
299.99499
299.99765
299.99931
299.99986
299.99998
300
300
300
300
300
300
300
300
300
300
300
300
300
300
300
300
300
300
300
300
300
300
300
300
344.98976
335.04795
325.73535
317.45424
310.64474
305.6874
302.59606
300.98108
300.2901
300.05718
300.00112
299.99523
299.99761
299.99927
299.99984
299.99998
300
300
300
300
300
300
300
300
300
300
300
300
300
300
300
300
300
300
300
300
300
300
300
300
344.98851
335.04884
325.75628
317.51127
310.728
305.77089
302.6596
301.01926
300.30837
300.06402
300.003
299.99552
299.99757
299.99922
299.99983
299.99997
300
300
300
300
300
300
300
300
300
300
300
300
300
300
300
300
300
300
300
300
300
300
300
300
344.98714
335.04834
325.77293
317.56219
310.8059
305.85106
302.72172
301.05719
300.32683
300.07109
300.00502
299.99587
299.99755
299.99918
299.99981
299.99997
300
300
300
300
300
300
300
300
300
300
300
300
300
300
300
300
300
300
300
300
300
300
300
300
344.98572
335.04687
325.78587
317.60733
310.8785
305.92785
302.78235
301.09481
300.34545
300.07836
300.00716
299.99627
299.99755
299.99915
299.99979
299.99996
300
300
300
300
300
300
300
300
300
300
300
300
300
300
300
300
300
300
300
300
300
300
300
300
344.98435
335.04479
325.79569
317.6471
310.94593
306.00125
302.84143
301.13206
300.36419
300.08584
300.00942
299.99671
299.99756
299.99911
299.99977
299.99996
300
300
300
300
300
300
300
300
300
300
300
300
300
300
300
300
300
300
300
300
300
300
300
300
344.98307
335.04247
325.80302
317.68195
311.00836
306.07125
302.8989
301.16888
300.38303
300.0935
300.01181
299.99722
299.99758
299.99908
299.99976
299.99995
299.99999
300
300
300
300
300
300
300
300
300
300
300
300
300
300
300
300
300
300
300
300
300
300
300
344.98193
335.04016
325.80848
317.71242
311.06601
306.13789
302.95472
301.20524
300.40193
300.10133
300.01432
299.99778
299.99763
299.99905
299.99974
299.99995
299.99999
300
300
300
300
300
300
300
300
300
300
300
300
300
300
300
300
300
300
300
300
300
300
300
344.98093
335.03811
325.81264
317.73907
311.11915
306.20122
303.00886
301.2411
300.42088
300.10933
300.01695
299.99839
299.99769
299.99902
299.99972
299.99994
299.99999
300
300
300
300
300
300
300
300
300
300
300
300
300
300
300
300
300
300
300
300
300
300
300
344.98008
335.03647
325.81606
317.76248
311.1681
306.26134
303.06133
301.27642
300.43983
300.11748
300.0197
299.99906
299.99777
299.999
299.9997
299.99994
299.99999
300
300
300
300
300
300
300
300
300
300
300
300
300
300
300
300
300
300
300
300
300
300
300
344.97935
335.03532
325.81919
317.78327
311.21323
306.31836
303.11212
301.31117
300.45877
300.12577
300.02256
299.99978
299.99786
299.99898
299.99969
299.99993
299.99999
300
300
300
300
300
300
300
300
300
300
300
300
300
300
300
300
300
300
300
300
300
300
300
344.9787
335.03471
325.82247
317.80205
311.25495
306.37247
303.16128
301.34535
300.47769
300.13419
300.02552
300.00056
299.99798
299.99897
299.99967
299.99992
299.99999
300
300
300
300
300
300
300
300
300
300
300
300
300
300
300
300
300
300
300
300
300
300
300
344.97808
335.03453
325.82611
317.81927
311.29354
306.42364
303.20864
301.37879
300.49646
300.14268
300.02858
300.00139
299.99812
299.99896
299.99965
299.99992
299.99998
300
300
300
300
300
300
300
300
300
300
300
300
300
300
300
300
300
300
300
300
300
300
300
344.97755
335.03496
325.83064
317.83593
311.33019
306.47316
303.25538
301.41237
300.51563
300.1515
300.03183
300.00231
299.99829
299.99896
299.99964
299.99991
299.99998
300
300
300
300
300
300
300
300
300
300
300
300
300
300
300
300
300
300
300
300
300
300
300
344.97672
335.03499
325.83479
317.85007
311.36111
306.51534
303.29554
301.44143
300.53233
300.15925
300.0347
300.00313
299.99844
299.99896
299.99963
299.9999
299.99998
300
300
300
300
300
300
300
300
300
300
300
300
300
300
300
300
300
300
300
300
300
300
300
344.97751
335.03803
325.84494
317.87449
311.40971
306.58226
303.36106
301.4902
300.56114
300.173
300.04
300.00472
299.99878
299.99898
299.99961
299.99989
299.99998
300
300
300
300
300
300
300
300
300
300
300
300
300
300
300
300
300
300
300
300
300
300
300
)
;

boundaryField
{
    wall
    {
        type            fixedValue;
        value           uniform 350;
    }
    sides
    {
        type            zeroGradient;
    }
    frontAndBack
    {
        type            empty;
    }
    inlet
    {
        type            fixedValue;
        value           uniform 300;
    }
    outlet
    {
        type            zeroGradient;
    }
}


// ************************************************************************* //
