/*--------------------------------*- C++ -*----------------------------------*\
  =========                 |
  \\      /  F ield         | OpenFOAM: The Open Source CFD Toolbox
   \\    /   O peration     | Website:  https://openfoam.org
    \\  /    A nd           | Version:  10
     \\/     M anipulation  |
\*---------------------------------------------------------------------------*/
FoamFile
{
    format      ascii;
    class       volVectorField;
    location    "0.27";
    object      U;
}
// * * * * * * * * * * * * * * * * * * * * * * * * * * * * * * * * * * * * * //

dimensions      [0 1 -1 0 0 0 0];

internalField   nonuniform List<vector> 
4000
(
(0 0.01863746 0.47773156)
(0 0.023510007 0.50886061)
(0 0.00816686 0.50052522)
(0 0.005614619 0.50033634)
(0 0.0042546323 0.50025746)
(0 0.0032549465 0.50016898)
(0 0.0025560902 0.50011969)
(0 0.002054579 0.50009013)
(0 0.0016765737 0.50006981)
(0 0.0013822312 0.50005539)
(0 0.0011471789 0.50004499)
(0 0.00095507815 0.50003733)
(0 0.00079467481 0.5000316)
(0 0.00065799323 0.50002727)
(0 0.0005392052 0.50002399)
(0 0.0004339301 0.50002151)
(0 0.00033878062 0.50001967)
(0 0.00025105493 0.50001834)
(0 0.00016852043 0.50001744)
(0 8.9255338e-05 0.50001694)
(0 1.1526257e-05 0.50001679)
(0 -6.6318721e-05 0.50001699)
(0 -0.0001459417 0.50001755)
(0 -0.00022910716 0.5000185)
(0 -0.00031779251 0.50001991)
(0 -0.00041431877 0.50002185)
(0 -0.00052152233 0.50002446)
(0 -0.00064299427 0.50002793)
(0 -0.00078342824 0.50003252)
(0 -0.00094915014 0.50003863)
(0 -0.0011489695 0.50004688)
(0 -0.0013955444 0.50005824)
(0 -0.0017076212 0.50007414)
(0 -0.0021155484 0.50009709)
(0 -0.0026752399 0.50013481)
(0 -0.0034688046 0.50020237)
(0 -0.0045610188 0.50027143)
(0 -0.0065852004 0.50043364)
(0 -0.017659632 0.50675408)
(0 -0.013590213 0.47975559)
(0 0.037432698 0.44796925)
(0 0.050955773 0.53232616)
(0 0.021969348 0.5080429)
(0 0.016135669 0.50357319)
(0 0.012416108 0.50242317)
(0 0.0095159754 0.501623)
(0 0.007520636 0.50115662)
(0 0.0060698998 0.50086594)
(0 0.0049645692 0.50066802)
(0 0.0041001118 0.50052903)
(0 0.0034075776 0.50042906)
(0 0.0028400192 0.50035556)
(0 0.0023650631 0.50030067)
(0 0.0019596258 0.50025927)
(0 0.0016067474 0.50022792)
(0 0.0012936329 0.50020426)
(0 0.0010103579 0.50018666)
(0 0.0007489848 0.50017399)
(0 0.00050293995 0.50016548)
(0 0.00026655427 0.50016064)
(0 3.4707703e-05 0.50015921)
(0 -0.00019747869 0.50016112)
(0 -0.00043491363 0.50016646)
(0 -0.00068280702 0.50017557)
(0 -0.00094698863 0.50018898)
(0 -0.0012342873 0.50020753)
(0 -0.0015530265 0.50023247)
(0 -0.0019137121 0.50026558)
(0 -0.0023300245 0.50030949)
(0 -0.0028203031 0.5003681)
(0 -0.0034099223 0.50044735)
(0 -0.0041352577 0.5005567)
(0 -0.0050493871 0.50071125)
(0 -0.0062321752 0.50093659)
(0 -0.0078325049 0.50129436)
(0 -0.010126162 0.50191049)
(0 -0.013107249 0.50282506)
(0 -0.017426634 0.50608115)
(0 -0.038759376 0.52526813)
(0 -0.027894831 0.45021625)
(0 0.039888303 0.40982051)
(0 0.061428203 0.54930816)
(0 0.031983841 0.52188198)
(0 0.024355589 0.51008057)
(0 0.019193721 0.50658859)
(0 0.014977253 0.50452811)
(0 0.012006814 0.50327143)
(0 0.009771999 0.50245843)
(0 0.0080365671 0.50190112)
(0 0.0066648726 0.50150875)
(0 0.0055566951 0.50122554)
(0 0.0046425008 0.5010168)
(0 0.0038735523 0.50086065)
(0 0.0032144541 0.50074274)
(0 0.0026388727 0.50065336)
(0 0.0021267554 0.50058585)
(0 0.0016624259 0.50053558)
(0 0.001233265 0.50049938)
(0 0.00082876633 0.50047505)
(0 0.00043983159 0.50046123)
(0 5.8220187e-05 0.50045714)
(0 -0.00032392862 0.50046257)
(0 -0.00071452267 0.50047785)
(0 -0.0011219406 0.50050387)
(0 -0.0015555266 0.50054216)
(0 -0.0020261747 0.50059512)
(0 -0.0025470826 0.50066624)
(0 -0.0031347822 0.50076059)
(0 -0.0038106028 0.50088558)
(0 -0.0046027833 0.50105212)
(0 -0.0055496776 0.50127675)
(0 -0.0067052651 0.50158559)
(0 -0.0081467457 0.50202076)
(0 -0.0099782066 0.50265068)
(0 -0.012372463 0.50361501)
(0 -0.01571747 0.50519909)
(0 -0.01987382 0.5078538)
(0 -0.025187478 0.51641217)
(0 -0.047417939 0.53912718)
(0 -0.030854019 0.4148795)
(0 0.034791625 0.36172996)
(0 0.063839033 0.55456332)
(0 0.039380558 0.5374714)
(0 0.030083528 0.51849264)
(0 0.024112748 0.51197734)
(0 0.019279725 0.50849951)
(0 0.01573628 0.50626433)
(0 0.012954255 0.50475553)
(0 0.010743686 0.50370453)
(0 0.0089678824 0.50295624)
(0 0.0075138146 0.50241121)
(0 0.0063018179 0.50200694)
(0 0.0052740879 0.50170315)
(0 0.0043873686 0.50147293)
(0 0.0036088441 0.50129793)
(0 0.0029131317 0.50116545)
(0 0.0022801261 0.50106666)
(0 0.0016934681 0.50099539)
(0 0.001139418 0.50094748)
(0 0.00060599722 0.50092021)
(0 8.2306352e-05 0.50091213)
(0 -0.0004420743 0.50092283)
(0 -0.0009776247 0.50095292)
(0 -0.0015354137 0.50100413)
(0 -0.0021277194 0.50107944)
(0 -0.0027687463 0.50118343)
(0 -0.0034755321 0.50132282)
(0 -0.0042691531 0.50150728)
(0 -0.0051763877 0.50175083)
(0 -0.0062320139 0.50207392)
(0 -0.0074818984 0.50250704)
(0 -0.0089882718 0.50309718)
(0 -0.010838502 0.50391906)
(0 -0.013139149 0.50508905)
(0 -0.016025867 0.50680665)
(0 -0.019901223 0.50946722)
(0 -0.024733088 0.51427458)
(0 -0.031114977 0.52824682)
(0 -0.050320946 0.54407147)
(0 -0.028438832 0.37237949)
(0 0.027424312 0.31484309)
(0 0.062315039 0.55024059)
(0 0.044614785 0.55146769)
(0 0.033982248 0.52748819)
(0 0.027464261 0.5177225)
(0 0.022455339 0.51291991)
(0 0.018636927 0.50973154)
(0 0.015528218 0.50749276)
(0 0.013006232 0.50590009)
(0 0.010942144 0.50474707)
(0 0.0092245723 0.50389632)
(0 0.0077746654 0.50325937)
(0 0.0065324374 0.50277731)
(0 0.0054514639 0.50240994)
(0 0.0044956971 0.50212944)
(0 0.0036366724 0.50191637)
(0 0.0028514462 0.50175705)
(0 0.0021210804 0.50164188)
(0 0.0014294818 0.50156432)
(0 0.00076249125 0.50152014)
(0 0.00010714533 0.50150701)
(0 -0.0005489855 0.5015243)
(0 -0.0012183991 0.50157298)
(0 -0.0019142407 0.50165575)
(0 -0.0026509871 0.50177729)
(0 -0.0034452168 0.50194475)
(0 -0.0043165555 0.50216854)
(0 -0.005288887 0.50246354)
(0 -0.006391961 0.502851)
(0 -0.0076635518 0.50336158)
(0 -0.0091519219 0.5040399)
(0 -0.010919507 0.50495252)
(0 -0.013053141 0.50620223)
(0 -0.01565662 0.50794394)
(0 -0.018817795 0.51040399)
(0 -0.02289817 0.51405442)
(0 -0.028179219 0.52114506)
(0 -0.035709334 0.53932622)
(0 -0.050478291 0.54155436)
(0 -0.024086818 0.33055639)
(0 0.019837967 0.27519752)
(0 0.057990229 0.53974642)
(0 0.047364218 0.56256481)
(0 0.036477969 0.53660465)
(0 0.029636445 0.52350721)
(0 0.02467642 0.51740341)
(0 0.020774499 0.51336317)
(0 0.017509985 0.51044473)
(0 0.014814378 0.50832444)
(0 0.012566751 0.50676209)
(0 0.010665577 0.50559309)
(0 0.009038865 0.50470834)
(0 0.0076289982 0.5040329)
(0 0.0063901166 0.50351454)
(0 0.0052857617 0.50311656)
(0 0.004286466 0.5028129)
(0 0.0033680019 0.50258505)
(0 0.0025100344 0.5024199)
(0 0.0016950409 0.50230845)
(0 0.0009074359 0.50224486)
(0 0.00013284406 0.50222591)
(0 -0.00064256631 0.5022507)
(0 -0.0014326984 0.50232059)
(0 -0.0022521049 0.5024393)
(0 -0.0031166797 0.50261329)
(0 -0.0040444081 0.50285234)
(0 -0.0050562637 0.50317059)
(0 -0.0061773104 0.50358804)
(0 -0.0074380964 0.50413286)
(0 -0.0088765485 0.50484501)
(0 -0.010539931 0.50578147)
(0 -0.012486536 0.50702454)
(0 -0.014796577 0.50869739)
(0 -0.017571835 0.51098164)
(0 -0.020866287 0.51411964)
(0 -0.024976211 0.51872974)
(0 -0.030511028 0.5282295)
(0 -0.038632553 0.54872378)
(0 -0.048510696 0.53398308)
(0 -0.019067575 0.29393671)
(0 0.013083246 0.24255457)
(0 0.051799091 0.5252004)
(0 0.04770994 0.57024855)
(0 0.037757542 0.54552507)
(0 0.030850862 0.52928875)
(0 0.026073961 0.52180181)
(0 0.022238381 0.51699812)
(0 0.018954047 0.51347371)
(0 0.016193776 0.51086523)
(0 0.013849761 0.50891278)
(0 0.011835509 0.50743303)
(0 0.010088433 0.50630096)
(0 0.0085559146 0.50542881)
(0 0.0071952051 0.50475446)
(0 0.0059715069 0.50423352)
(0 0.004856004 0.50383407)
(0 0.0038245107 0.50353313)
(0 0.0028563575 0.50331433)
(0 0.0019334592 0.50316632)
(0 0.0010395346 0.5030817)
(0 0.00015944303 0.50305638)
(0 -0.00072144075 0.50308922)
(0 -0.0016178128 0.50318194)
(0 -0.0025449757 0.50333925)
(0 -0.0035194925 0.50356931)
(0 -0.0045598655 0.50388439)
(0 -0.0056873308 0.50430209)
(0 -0.0069268005 0.50484705)
(0 -0.0083079779 0.50555352)
(0 -0.0098669319 0.50646929)
(0 -0.011647856 0.50766152)
(0 -0.013702995 0.50922505)
(0 -0.016101855 0.51129785)
(0 -0.018939729 0.51407928)
(0 -0.022247983 0.51783817)
(0 -0.026267445 0.52346732)
(0 -0.031851164 0.53537484)
(0 -0.039762299 0.55589635)
(0 -0.044896179 0.52282141)
(0 -0.014091291 0.26264279)
(0 0.0077701828 0.21554069)
(0 0.044826131 0.50800971)
(0 0.046256111 0.57438088)
(0 0.038035959 0.55375147)
(0 0.031288502 0.53496071)
(0 0.026768927 0.52603051)
(0 0.023117232 0.5205387)
(0 0.019921251 0.51648856)
(0 0.017182434 0.51344201)
(0 0.014813565 0.51113105)
(0 0.012746216 0.50935997)
(0 0.010928337 0.50799148)
(0 0.0093140272 0.50692798)
(0 0.007865321 0.50609955)
(0 0.0065504768 0.50545558)
(0 0.0053425408 0.50495924)
(0 0.0042184056 0.50458373)
(0 0.0031579433 0.50430981)
(0 0.0021432546 0.50412403)
(0 0.0011580184 0.50401759)
(0 0.00018692323 0.50398559)
(0 -0.00078488274 0.50402668)
(0 -0.0017723196 0.5041429)
(0 -0.0027908387 0.50433987)
(0 -0.0038570078 0.50462728)
(0 -0.0049890872 0.50501961)
(0 -0.0062076922 0.50553748)
(0 -0.0075365584 0.50620949)
(0 -0.0090033665 0.50707497)
(0 -0.01064091 0.50818808)
(0 -0.012488766 0.50962406)
(0 -0.014592066 0.51148797)
(0 -0.017007009 0.51392868)
(0 -0.019815253 0.51715492)
(0 -0.023032758 0.52147977)
(0 -0.026882073 0.52818217)
(0 -0.032354005 0.54222005)
(0 -0.039406556 0.5605015)
(0 -0.040330583 0.50908122)
(0 -0.0097086656 0.23585427)
(0 0.0040050198 0.19355589)
(0 0.037899872 0.48948668)
(0 0.0436878 0.57524009)
(0 0.037564802 0.56084535)
(0 0.031155072 0.54036144)
(0 0.026914986 0.53001172)
(0 0.023514857 0.52390223)
(0 0.020480959 0.5194131)
(0 0.017827272 0.5159884)
(0 0.015489838 0.51335959)
(0 0.013418329 0.51132485)
(0 0.011571396 0.50973831)
(0 0.0099108809 0.50849532)
(0 0.0084045496 0.50752023)
(0 0.0070245763 0.50675764)
(0 0.0057466929 0.50616686)
(0 0.0045496201 0.50571801)
(0 0.0034144427 0.50538949)
(0 0.0023240497 0.50516607)
(0 0.0012626294 0.50503777)
(0 0.0002152113 0.50499901)
(0 -0.00083278827 0.50504822)
(0 -0.0018960173 0.50518775)
(0 -0.0029895598 0.50542399)
(0 -0.004129434 0.50576791)
(0 -0.0053330498 0.50623587)
(0 -0.0066197235 0.50685098)
(0 -0.0080112613 0.50764504)
(0 -0.0095325157 0.50866141)
(0 -0.011212083 0.50995915)
(0 -0.013083824 0.51161959)
(0 -0.015185257 0.51375539)
(0 -0.017559016 0.51652231)
(0 -0.020269247 0.5201314)
(0 -0.023323811 0.52496287)
(0 -0.026964736 0.53273956)
(0 -0.03220634 0.54839047)
(0 -0.037998386 0.56254273)
(0 -0.035417186 0.49378924)
(0 -0.006201029 0.21324823)
(0 0.0015511615 0.17613289)
(0 0.031500002 0.47076108)
(0 0.040533197 0.57338568)
(0 0.036559949 0.56659879)
(0 0.030638275 0.54537884)
(0 0.02667253 0.53370499)
(0 0.023543879 0.52703277)
(0 0.020711082 0.52218903)
(0 0.018183476 0.51845196)
(0 0.015917595 0.51555186)
(0 0.013879013 0.5132866)
(0 0.012036299 0.51150551)
(0 0.010359155 0.51009959)
(0 0.0088213256 0.50898932)
(0 0.0073992842 0.50811598)
(0 0.0060719181 0.50743603)
(0 0.004820256 0.50691731)
(0 0.003627061 0.50653636)
(0 0.0024764581 0.5062766)
(0 0.0013535721 0.50612706)
(0 0.00024418522 0.50608163)
(0 -0.00086561378 0.50613856)
(0 -0.0019897954 0.50630045)
(0 -0.0031426621 0.50657432)
(0 -0.0043392515 0.50697216)
(0 -0.0055956703 0.50751181)
(0 -0.0069294616 0.5082183)
(0 -0.0083600107 0.50912585)
(0 -0.0099088836 0.51028077)
(0 -0.011600086 0.51174562)
(0 -0.013461338 0.51360575)
(0 -0.015522706 0.51597862)
(0 -0.017814813 0.5190228)
(0 -0.0203846 0.52294928)
(0 -0.023239304 0.528235)
(0 -0.026659416 0.53703997)
(0 -0.031569439 0.55365878)
(0 -0.035908743 0.56230672)
(0 -0.030555551 0.47788676)
(0 -0.0035913838 0.19460498)
(0 7.6777643e-05 0.16252427)
(0 0.025870807 0.45259957)
(0 0.03716054 0.56943315)
(0 0.035192349 0.57098925)
(0 0.029878295 0.54996341)
(0 0.026174596 0.53711436)
(0 0.023306677 0.52991296)
(0 0.020688132 0.52478491)
(0 0.018308436 0.52079899)
(0 0.016139212 0.51767496)
(0 0.014159168 0.51521427)
(0 0.012345449 0.51326474)
(0 0.010674978 0.51171514)
(0 0.0091271438 0.51048377)
(0 0.0076826937 0.50950986)
(0 0.0063238235 0.50874802)
(0 0.0050340987 0.50816452)
(0 0.003798235 0.50773459)
(0 0.0026018888 0.50744064)
(0 0.0014314248 0.50727099)
(0 0.0002736825 0.50721913)
(0 -0.00088427152 0.50728318)
(0 -0.0020554232 0.5074659)
(0 -0.0032529872 0.50777479)
(0 -0.0044907147 0.50822263)
(0 -0.0057831117 0.50882831)
(0 -0.0071456702 0.50961823)
(0 -0.0085951145 0.51062827)
(0 -0.010149584 0.51190669)
(0 -0.011828561 0.5135182)
(0 -0.013653834 0.51555046)
(0 -0.015648618 0.51812322)
(0 -0.017833546 0.52139469)
(0 -0.020240991 0.52557929)
(0 -0.022884539 0.53128201)
(0 -0.026082235 0.54103084)
(0 -0.030573885 0.55793408)
(0 -0.033430919 0.56018864)
(0 -0.025997478 0.46206272)
(0 -0.0017654378 0.17946477)
(0 -0.0007179318 0.1519066)
(0 0.021108463 0.43543394)
(0 0.033820179 0.56393144)
(0 0.033605055 0.57408953)
(0 0.02897581 0.55409447)
(0 0.025520749 0.54026408)
(0 0.022886891 0.53255329)
(0 0.02047907 0.52719277)
(0 0.018255168 0.52301344)
(0 0.016195782 0.51970931)
(0 0.014290184 0.51708707)
(0 0.012522614 0.51499533)
(0 0.010876178 0.51332218)
(0 0.0093352443 0.51198498)
(0 0.0078845297 0.51092195)
(0 0.0065094376 0.5100867)
(0 0.0051960946 0.50944455)
(0 0.0039312761 0.50896992)
(0 0.0027023275 0.50864455)
(0 0.001497039 0.50845629)
(0 0.00030350886 0.50839833)
(0 -0.00089001047 0.50846872)
(0 -0.0020953113 0.50867034)
(0 -0.0033243192 0.50901101)
(0 -0.0045893126 0.509504)
(0 -0.0059030387 0.51016894)
(0 -0.007278834 0.51103307)
(0 -0.0087307331 0.51213327)
(0 -0.010273548 0.51351885)
(0 -0.011922593 0.51525565)
(0 -0.013694318 0.51743232)
(0 -0.015605874 0.52016902)
(0 -0.01766973 0.52362165)
(0 -0.019907348 0.52801591)
(0 -0.02234492 0.53411004)
(0 -0.02532414 0.5446812)
(0 -0.029334838 0.56120694)
(0 -0.030796466 0.55658367)
(0 -0.021896552 0.4467554)
(0 -0.00056485464 0.16724042)
(0 -0.0010700589 0.14358257)
(0 0.017203834 0.41947836)
(0 0.03066772 0.55733983)
(0 0.031915991 0.57602082)
(0 0.028004901 0.55776439)
(0 0.024784537 0.54318001)
(0 0.022350983 0.53497649)
(0 0.020139544 0.5294185)
(0 0.018069452 0.52509129)
(0 0.016124335 0.52164549)
(0 0.014301571 0.51889252)
(0 0.012591009 0.51668325)
(0 0.010980787 0.51490612)
(0 0.00945947 0.51347841)
(0 0.0080152795 0.5123381)
(0 0.0066365606 0.51143844)
(0 0.0053118773 0.51074432)
(0 0.004030042 0.51022973)
(0 0.0027801312 0.50987608)
(0 0.0015514449 0.50967092)
(0 0.00033344775 0.50960727)
(0 -0.00088430329 0.50968313)
(0 -0.0021122875 0.50990144)
(0 -0.0033610349 0.51027023)
(0 -0.0046412678 0.51080305)
(0 -0.0059639351 0.51151991)
(0 -0.0073402447 0.51244848)
(0 -0.0087816664 0.51362608)
(0 -0.010299941 0.51510242)
(0 -0.011906707 0.51694366)
(0 -0.01361384 0.51923854)
(0 -0.015433339 0.52210626)
(0 -0.01737119 0.52569974)
(0 -0.019441988 0.53026614)
(0 -0.021689411 0.53673081)
(0 -0.024458367 0.54797092)
(0 -0.027954002 0.56352122)
(0 -0.028175962 0.55185351)
(0 -0.018326945 0.43222947)
(0 0.00016879682 0.15738589)
(0 -0.0011531647 0.13700076)
(0 0.014079431 0.40481317)
(0 0.027783218 0.55003262)
(0 0.030213206 0.57693058)
(0 0.027017985 0.56097963)
(0 0.024018955 0.54588614)
(0 0.021750836 0.53720952)
(0 0.01971475 0.53147524)
(0 0.01778963 0.52703579)
(0 0.015956981 0.52348094)
(0 0.014219808 0.52062421)
(0 0.012572134 0.51831966)
(0 0.011006019 0.5164567)
(0 0.0095134124 0.51495309)
(0 0.0080855063 0.51374707)
(0 0.0067132303 0.51279198)
(0 0.0053873682 0.51205268)
(0 0.0040986545 0.51150307)
(0 0.0028378513 0.51112441)
(0 0.0015957695 0.51090416)
(0 0.00036326928 0.51083525)
(0 -0.00086874559 0.51091566)
(0 -0.0021093992 0.51114836)
(0 -0.0033677987 0.51154144)
(0 -0.0046531123 0.51210858)
(0 -0.0059745388 0.51286988)
(0 -0.0073412798 0.51385313)
(0 -0.0087624639 0.51509567)
(0 -0.01024711 0.5166471)
(0 -0.011803738 0.51857335)
(0 -0.01344048 0.52096261)
(0 -0.015165172 0.52393221)
(0 -0.016978972 0.52763266)
(0 -0.018893506 0.53234368)
(0 -0.020972584 0.53915845)
(0 -0.023542125 0.55089353)
(0 -0.026513854 0.56495945)
(0 -0.025680668 0.54631598)
(0 -0.015300309 0.41863293)
(0 0.00057364719 0.14943839)
(0 -0.0010855792 0.13172141)
(0 0.011624609 0.39142967)
(0 0.025194515 0.54230352)
(0 0.028555518 0.57697308)
(0 0.026048466 0.56375987)
(0 0.023259374 0.54840532)
(0 0.021124979 0.53928087)
(0 0.019240141 0.53338038)
(0 0.017446933 0.52885492)
(0 0.015720783 0.52521776)
(0 0.014067898 0.5222802)
(0 0.012485197 0.51989979)
(0 0.010967656 0.51796725)
(0 0.0095098388 0.51640112)
(0 0.0081053514 0.51514022)
(0 0.0067473132 0.51413829)
(0 0.0054284585 0.51336041)
(0 0.0041412692 0.51278062)
(0 0.0028780857 0.51238022)
(0 0.0016311679 0.5121467)
(0 0.00039273953 0.51207297)
(0 -0.00084496898 0.51215701)
(0 -0.0020897461 0.51240178)
(0 -0.0033493116 0.51281535)
(0 -0.0046313453 0.51341137)
(0 -0.0059434091 0.51420986)
(0 -0.0072928814 0.51523846)
(0 -0.0086868322 0.51653422)
(0 -0.010131961 0.51814631)
(0 -0.011634239 0.52014008)
(0 -0.013198876 0.52260273)
(0 -0.014830529 0.52564926)
(0 -0.016527125 0.52942954)
(0 -0.018300628 0.53426668)
(0 -0.020235087 0.5414096)
(0 -0.022616978 0.55345664)
(0 -0.025075469 0.5656261)
(0 -0.02337328 0.54023691)
(0 -0.012787026 0.40602761)
(0 0.00075880648 0.14300364)
(0 -0.00094374215 0.12739891)
(0 0.0097205966 0.37926179)
(0 0.022898162 0.5343729)
(0 0.026978129 0.57629336)
(0 0.025115094 0.56613232)
(0 0.022527037 0.55075827)
(0 0.020500086 0.54121822)
(0 0.018742175 0.53515356)
(0 0.017065857 0.53055969)
(0 0.01543781 0.52686128)
(0 0.013865212 0.5238618)
(0 0.01234683 0.52142194)
(0 0.01087971 0.51943393)
(0 0.0094603344 0.51781718)
(0 0.0080841978 0.51651123)
(0 0.0067462117 0.51547036)
(0 0.0054407712 0.51466009)
(0 0.0041618981 0.51405471)
(0 0.002903363 0.5136357)
(0 0.0016587704 0.51339065)
(0 0.00042162899 0.51331253)
(0 -0.00081457009 0.51339931)
(0 -0.0020563464 0.51365392)
(0 -0.0033101142 0.51408435)
(0 -0.0045821752 0.5147041)
(0 -0.0058786103 0.51553298)
(0 -0.007205194 0.5165983)
(0 -0.0085672457 0.51793664)
(0 -0.00996956 0.51959656)
(0 -0.011416112 0.52164258)
(0 -0.012909924 0.52416075)
(0 -0.014453376 0.52726363)
(0 -0.016042623 0.53110332)
(0 -0.017692494 0.53605558)
(0 -0.019505113 0.5435018)
(0 -0.021710986 0.55567768)
(0 -0.023680873 0.56563119)
(0 -0.021281873 0.53382777)
(0 -0.010734593 0.39441299)
(0 0.00080459157 0.13774824)
(0 -0.00077514314 0.12377218)
(0 0.0082547405 0.36821259)
(0 0.020873893 0.52640022)
(0 0.02549894 0.57501926)
(0 0.024226674 0.56812658)
(0 0.021833106 0.55296196)
(0 0.019893324 0.54304625)
(0 0.018239635 0.53681454)
(0 0.016664871 0.53216259)
(0 0.015125444 0.5284188)
(0 0.013627555 0.52537248)
(0 0.012171014 0.52288669)
(0 0.010754258 0.52085513)
(0 0.0093751037 0.51919803)
(0 0.0080304643 0.51785568)
(0 0.0067166725 0.51678298)
(0 0.0054294981 0.51594592)
(0 0.0041642831 0.51531916)
(0 0.0029160591 0.51488444)
(0 0.0016796432 0.5146295)
(0 0.00044972042 0.51454738)
(0 -0.00077905632 0.51463607)
(0 -0.0020120367 0.51489844)
(0 -0.0032544425 0.51534235)
(0 -0.0045113364 0.51598111)
(0 -0.0057874973 0.51683421)
(0 -0.0070873288 0.51792851)
(0 -0.0084147072 0.51930007)
(0 -0.0097729177 0.52099669)
(0 -0.011164435 0.52308208)
(0 -0.012590727 0.52564102)
(0 -0.014052657 0.52878394)
(0 -0.015545907 0.53266868)
(0 -0.017089891 0.53773066)
(0 -0.018800916 0.54545153)
(0 -0.020841716 0.55757904)
(0 -0.022356641 0.56507961)
(0 -0.019411564 0.52725052)
(0 -0.0090802447 0.38374856)
(0 0.00076750779 0.13339979)
(0 -0.00060776833 0.12065096)
(0 0.0071278509 0.35817318)
(0 0.019093696 0.51849761)
(0 0.02412383 0.57325975)
(0 0.02338568 0.56977201)
(0 0.021182052 0.5550293)
(0 0.019314793 0.54478542)
(0 0.017745235 0.53838165)
(0 0.016257414 0.53367623)
(0 0.014796952 0.52989841)
(0 0.013367462 0.52681699)
(0 0.011969188 0.52429611)
(0 0.010601442 0.52223081)
(0 0.0092629018 0.52054204)
(0 0.0079515063 0.51917072)
(0 0.0066646802 0.51807238)
(0 0.0053993016 0.5172135)
(0 0.0041518168 0.51656914)
(0 0.0029183433 0.51612132)
(0 0.0016947645 0.51585795)
(0 0.00047681533 0.5157722)
(0 -0.00073980771 0.51586204)
(0 -0.0019594039 0.5161303)
(0 -0.0031861336 0.51658467)
(0 -0.0044239737 0.51723821)
(0 -0.0056765874 0.51811006)
(0 -0.0069472382 0.51922663)
(0 -0.0082386474 0.52062334)
(0 -0.0095529462 0.52234734)
(0 -0.010891537 0.52446147)
(0 -0.012254846 0.52704935)
(0 -0.013642839 0.5302199)
(0 -0.015051843 0.53414053)
(0 -0.016506843 0.53931043)
(0 -0.018133297 0.54727315)
(0 -0.020018901 0.55918516)
(0 -0.021117251 0.56406609)
(0 -0.01775312 0.5206258)
(0 -0.0077592725 0.37397141)
(0 0.00068596617 0.12974294)
(0 -0.00045653844 0.11789999)
(0 0.0062573449 0.34903404)
(0 0.01752744 0.51074155)
(0 0.022850918 0.57110616)
(0 0.022590761 0.57109659)
(0 0.020574062 0.55696973)
(0 0.01876955 0.54645184)
(0 0.017267102 0.53987105)
(0 0.015852936 0.53511249)
(0 0.01446218 0.5313083)
(0 0.013094625 0.52820065)
(0 0.011750492 0.52565319)
(0 0.01042958 0.52356206)
(0 0.0091310678 0.52184874)
(0 0.0078536017 0.52045472)
(0 0.0065954191 0.51933603)
(0 0.0053542691 0.51845964)
(0 0.0041275015 0.51780098)
(0 0.0029121482 0.51734235)
(0 0.0017050107 0.51707187)
(0 0.00050273943 0.5169828)
(0 -0.000698053 0.51707314)
(0 -0.0019007443 0.51734563)
(0 -0.0031085722 0.5178078)
(0 -0.0043245837 0.51847245)
(0 -0.0055515088 0.51935835)
(0 -0.0067916863 0.52049144)
(0 -0.0080469412 0.52190658)
(0 -0.0093185569 0.52365027)
(0 -0.010607216 0.52578464)
(0 -0.011912707 0.52839227)
(0 -0.013234591 0.5315814)
(0 -0.014570746 0.53553292)
(0 -0.015952084 0.5408109)
(0 -0.017507596 0.54897877)
(0 -0.019246565 0.5605207)
(0 -0.019968168 0.56267334)
(0 -0.016289278 0.51404113)
(0 -0.0067104663 0.36500801)
(0 0.00058514455 0.12661116)
(0 -0.00032791889 0.11542503)
(0 0.0055774857 0.34069129)
(0 0.016146187 0.50318211)
(0 0.021673929 0.56863418)
(0 0.021838543 0.5721264)
(0 0.020006746 0.55878985)
(0 0.018259171 0.54805774)
(0 0.016809984 0.54129649)
(0 0.015457798 0.53648217)
(0 0.014128222 0.53265623)
(0 0.01281636 0.52952887)
(0 0.01152207 0.52696137)
(0 0.010245353 0.52485064)
(0 0.0089856274 0.52311856)
(0 0.0077419987 0.52170699)
(0 0.0065132869 0.52057239)
(0 0.0052979089 0.51968213)
(0 0.0040939379 0.51901199)
(0 0.0028991606 0.51854455)
(0 0.0017111523 0.5182681)
(0 0.00052734637 0.518176)
(0 -0.00065485786 0.51826627)
(0 -0.0018380466 0.51854155)
(0 -0.0030246723 0.51900924)
(0 -0.0042170029 0.51968187)
(0 -0.005417006 0.52057785)
(0 -0.0066262896 0.5217227)
(0 -0.0078460052 0.52315077)
(0 -0.0090768426 0.52490801)
(0 -0.010319042 0.52705598)
(0 -0.011572069 0.52967641)
(0 -0.012835452 0.53287794)
(0 -0.014109302 0.53685859)
(0 -0.015430312 0.54224546)
(0 -0.016925288 0.55057831)
(0 -0.018524817 0.56160942)
(0 -0.018908684 0.56097185)
(0 -0.014999209 0.50755794)
(0 -0.0058792267 0.35678171)
(0 0.00048078637 0.12387772)
(0 -0.00022324168 0.11316164)
(0 0.0050377908 0.33304994)
(0 0.014923842 0.49585016)
(0 0.02058462 0.56590625)
(0 0.02112489 0.57288533)
(0 0.019476378 0.56049415)
(0 0.017782985 0.54961192)
(0 0.016376218 0.54266935)
(0 0.015076031 0.53779475)
(0 0.013800003 0.53394932)
(0 0.012538044 0.53080685)
(0 0.011289384 0.52822422)
(0 0.01005402 0.52609873)
(0 0.0088314331 0.52435247)
(0 0.007621001 0.52292752)
(0 0.0064219435 0.52178065)
(0 0.0052331753 0.52087956)
(0 0.0040533369 0.52020033)
(0 0.0028808255 0.51972576)
(0 0.0017138567 0.51944431)
(0 0.00055051976 0.51934944)
(0 -0.00061112295 0.51943916)
(0 -0.0017729917 0.51971606)
(0 -0.0029368845 0.52018736)
(0 -0.0041044302 0.52086535)
(0 -0.0052769871 0.52176816)
(0 -0.0064556019 0.52292089)
(0 -0.0076409389 0.52435749)
(0 -0.0088332977 0.52612349)
(0 -0.010032689 0.52828)
(0 -0.011238482 0.5309082)
(0 -0.01245045 0.5341183)
(0 -0.013671414 0.53812866)
(0 -0.014943291 0.54362487)
(0 -0.016385288 0.55207967)
(0 -0.017851329 0.56247332)
(0 -0.017934286 0.55902062)
(0 -0.013861412 0.50121776)
(0 -0.0052188845 0.34921739)
(0 0.00038209725 0.12144782)
(0 -0.00014097817 0.11106643)
(0 0.0046006044 0.32602535)
(0 0.013837727 0.48876299)
(0 0.019574322 0.56297389)
(0 0.020445678 0.57339517)
(0 0.018978746 0.56208551)
(0 0.017339006 0.55112033)
(0 0.015966507 0.54399879)
(0 0.014709963 0.53905842)
(0 0.013480791 0.53519394)
(0 0.012263514 0.53203946)
(0 0.011056511 0.52944529)
(0 0.0098596357 0.5273087)
(0 0.0086723184 0.52555182)
(0 0.0074940741 0.5241168)
(0 0.0063243805 0.52296062)
(0 0.0051625125 0.52205119)
(0 0.0040075454 0.52136483)
(0 0.0028583611 0.52088454)
(0 0.0017136947 0.52059893)
(0 0.00057217415 0.5205015)
(0 -0.00056758946 0.5205903)
(0 -0.0017069668 0.52086782)
(0 -0.0028472223 0.52134117)
(0 -0.0039894709 0.52202242)
(0 -0.0051345961 0.52292941)
(0 -0.0062832257 0.52408696)
(0 -0.0074356886 0.52552868)
(0 -0.0085920509 0.52729979)
(0 -0.0097522463 0.52946115)
(0 -0.010915713 0.53209363)
(0 -0.012082673 0.53531034)
(0 -0.013258922 0.53935257)
(0 -0.014490769 0.54495741)
(0 -0.015884953 0.55348895)
(0 -0.017222429 0.5631324)
(0 -0.017038397 0.55686854)
(0 -0.012855448 0.49504728)
(0 -0.0046908947 0.34224434)
(0 0.00029390682 0.11925165)
(0 -7.8218832e-05 0.10911036)
(0 0.0042385112 0.31954342)
(0 0.012868559 0.48192847)
(0 0.018634818 0.55987978)
(0 0.019797203 0.57367584)
(0 0.018509685 0.56356577)
(0 0.016924588 0.55258667)
(0 0.015580511 0.54529198)
(0 0.014360723 0.54028009)
(0 0.013172625 0.53639567)
(0 0.011995408 0.53323107)
(0 0.010826415 0.53062793)
(0 0.0096652588 0.52848295)
(0 0.0085112533 0.52671818)
(0 0.0073639576 0.52527568)
(0 0.0062230006 0.52411251)
(0 0.0050879088 0.52319675)
(0 0.0039580822 0.52250487)
(0 0.0028327795 0.52202002)
(0 0.0017111495 0.52173093)
(0 0.00059225526 0.52163115)
(0 -0.00052484881 0.52171873)
(0 -0.0016410888 0.5219961)
(0 -0.0027573006 0.52247024)
(0 -0.0038741964 0.52315306)
(0 -0.0049922993 0.52406219)
(0 -0.0061119355 0.52522218)
(0 -0.0072332175 0.52666643)
(0 -0.0083560956 0.52843998)
(0 -0.0094805306 0.53060356)
(0 -0.010606143 0.5332381)
(0 -0.011733748 0.53646089)
(0 -0.012872218 0.54053808)
(0 -0.014071203 0.54624923)
(0 -0.015420821 0.55481072)
(0 -0.016633875 0.56360456)
(0 -0.016213587 0.55455593)
(0 -0.011962828 0.48906239)
(0 -0.0042643223 0.33579783)
(0 0.00021819842 0.11723859)
(0 -3.1597208e-05 0.10727382)
(0 0.0039319438 0.31353997)
(0 0.01200015 0.47534808)
(0 0.017758766 0.55665951)
(0 0.019176347 0.57374569)
(0 0.018065371 0.56493624)
(0 0.016536857 0.55401294)
(0 0.015217256 0.54655442)
(0 0.014028626 0.54146553)
(0 0.012876652 0.53755931)
(0 0.011735456 0.5343856)
(0 0.010601187 0.53177525)
(0 0.0094731417 0.52962384)
(0 0.0083504921 0.5278532)
(0 0.0072327776 0.52640521)
(0 0.0061197009 0.52523689)
(0 0.0050109554 0.52431638)
(0 0.0039061773 0.52362026)
(0 0.0028049114 0.5231318)
(0 0.0017066284 0.52283979)
(0 0.00061073667 0.52273784)
(0 -0.00048335842 0.52282398)
(0 -0.0015762305 0.5231006)
(0 -0.0026683797 0.52357457)
(0 -0.0037602096 0.52425767)
(0 -0.0048519776 0.52516734)
(0 -0.0059438028 0.526328)
(0 -0.0070356726 0.52777287)
(0 -0.0081275055 0.52954697)
(0 -0.0092193554 0.53171103)
(0 -0.010311099 0.53434639)
(0 -0.011404255 0.53757578)
(0 -0.012510715 0.54169144)
(0 -0.013682296 0.54750469)
(0 -0.014989118 0.55604842)
(0 -0.016081365 0.56390581)
(0 -0.015452375 0.55211595)
(0 -0.011167367 0.48327127)
(0 -0.0039149322 0.32981978)
(0 0.00015517692 0.11537231)
(0 2.1687914e-06 0.10554319)
(0 0.0036671421 0.30795982)
(0 0.011218981 0.46901902)
(0 0.016939828 0.55334296)
(0 0.018580591 0.57362171)
(0 0.017642455 0.56619802)
(0 0.016172981 0.55539986)
(0 0.014875428 0.54779019)
(0 0.013713457 0.54261951)
(0 0.012593392 0.53868902)
(0 0.011484717 0.53550648)
(0 0.01038224 0.53289006)
(0 0.0092848963 0.5307336)
(0 0.0081917065 0.52895857)
(0 0.0071021511 0.52750657)
(0 0.0060159518 0.52633449)
(0 0.0049329052 0.52541048)
(0 0.0038528123 0.52471115)
(0 0.0027754298 0.52421983)
(0 0.0017004735 0.52392538)
(0 0.00062761862 0.52382141)
(0 -0.00044345643 0.52390596)
(0 -0.0015130524 0.52418137)
(0 -0.002581413 0.52465444)
(0 -0.0036487117 0.52533684)
(0 -0.0047150177 0.52624591)
(0 -0.0057803164 0.52740593)
(0 -0.0068445376 0.52885011)
(0 -0.0079076264 0.5306235)
(0 -0.0089697671 0.53278695)
(0 -0.010031139 0.53542262)
(0 -0.011094038 0.53865992)
(0 -0.012173214 0.54281754)
(0 -0.013321386 0.54872666)
(0 -0.014586094 0.55720462)
(0 -0.01556085 0.56405047)
(0 -0.014747724 0.54957601)
(0 -0.010455194 0.47767665)
(0 -0.0036241188 0.32425872)
(0 0.00010401206 0.1136269)
(0 2.5998639e-05 0.10390853)
(0 0.0034345136 0.30275566)
(0 0.010513768 0.46293572)
(0 0.016172633 0.54995532)
(0 0.01800796 0.57331976)
(0 0.01723811 0.56735223)
(0 0.015830311 0.55674733)
(0 0.01455356 0.54900226)
(0 0.013414668 0.54374594)
(0 0.012322938 0.53978831)
(0 0.011243756 0.53659673)
(0 0.010170476 0.5339749)
(0 0.0091016344 0.53181432)
(0 0.0080361027 0.53003594)
(0 0.0069732803 0.52858102)
(0 0.0059128713 0.52740624)
(0 0.0048547274 0.52647966)
(0 0.0037987592 0.52577792)
(0 0.0027448747 0.52528434)
(0 0.0016929712 0.52498782)
(0 0.00064292523 0.52488198)
(0 -0.00040537801 0.52496485)
(0 -0.0014520334 0.52523874)
(0 -0.0024970941 0.52571039)
(0 -0.0035405683 0.52639139)
(0 -0.0045823981 0.52729902)
(0 -0.0056224917 0.52845753)
(0 -0.00666077 0.52990013)
(0 -0.0076972415 0.53167203)
(0 -0.008732239 0.53383434)
(0 -0.0097662694 0.53647036)
(0 -0.010802462 0.53971736)
(0 -0.011858163 0.54392015)
(0 -0.012985713 0.54991688)
(0 -0.01420823 0.55828131)
(0 -0.015068703 0.56405145)
(0 -0.014093289 0.54695879)
(0 -0.009814592 0.47227754)
(0 -0.003377839 0.31906952)
(0 6.3344946e-05 0.11198392)
(0 4.2341331e-05 0.1023621)
(0 0.0032273786 0.29788694)
(0 0.0098750563 0.45709082)
(0 0.01545266 0.54651799)
(0 0.017456924 0.57285473)
(0 0.016850005 0.56840024)
(0 0.015506458 0.55805469)
(0 0.014250149 0.55019268)
(0 0.01313152 0.54484803)
(0 0.012065094 0.54086021)
(0 0.011012789 0.53765896)