/*--------------------------------*- C++ -*----------------------------------*\
  =========                 |
  \\      /  F ield         | OpenFOAM: The Open Source CFD Toolbox
   \\    /   O peration     | Website:  https://openfoam.org
    \\  /    A nd           | Version:  10
     \\/     M anipulation  |
\*---------------------------------------------------------------------------*/
FoamFile
{
    format      ascii;
    class       volVectorField;
    location    "0.27";
    object      U_0;
}
// * * * * * * * * * * * * * * * * * * * * * * * * * * * * * * * * * * * * * //

dimensions      [0 1 -1 0 0 0 0];

internalField   nonuniform List<vector> 
4000
(
(0 0.01863746 0.47773156)
(0 0.023510007 0.50886061)
(0 0.00816686 0.50052522)
(0 0.0056146191 0.50033634)
(0 0.0042546324 0.50025746)
(0 0.0032549467 0.50016898)
(0 0.0025560905 0.50011969)
(0 0.0020545795 0.50009013)
(0 0.0016765744 0.50006981)
(0 0.001382232 0.50005539)
(0 0.0011471799 0.50004499)
(0 0.00095507943 0.50003733)
(0 0.00079467634 0.5000316)
(0 0.00065799504 0.50002727)
(0 0.00053920726 0.50002399)
(0 0.00043393244 0.50002151)
(0 0.00033878325 0.50001967)
(0 0.00025105785 0.50001834)
(0 0.00016852361 0.50001744)
(0 8.9258799e-05 0.50001694)
(0 1.1529991e-05 0.50001679)
(0 -6.6314714e-05 0.50001699)
(0 -0.00014593744 0.50001755)
(0 -0.0002291027 0.5000185)
(0 -0.00031778785 0.50001991)
(0 -0.00041431394 0.50002185)
(0 -0.00052151734 0.50002446)
(0 -0.00064298917 0.50002793)
(0 -0.00078342306 0.50003252)
(0 -0.0009491449 0.50003863)
(0 -0.0011489643 0.50004688)
(0 -0.0013955392 0.50005824)
(0 -0.0017076161 0.50007414)
(0 -0.0021155435 0.50009709)
(0 -0.0026752352 0.50013481)
(0 -0.0034688002 0.50020237)
(0 -0.0045610149 0.50027143)
(0 -0.0065851968 0.50043364)
(0 -0.017659628 0.50675408)
(0 -0.013590211 0.47975559)
(0 0.037432698 0.44796925)
(0 0.050955773 0.53232616)
(0 0.021969348 0.5080429)
(0 0.01613567 0.50357319)
(0 0.012416108 0.50242317)
(0 0.0095159765 0.501623)
(0 0.0075206375 0.50115662)
(0 0.0060699018 0.50086594)
(0 0.0049645718 0.50066802)
(0 0.004100115 0.50052903)
(0 0.0034075816 0.50042906)
(0 0.0028400239 0.50035556)
(0 0.0023650686 0.50030067)
(0 0.0019596321 0.50025927)
(0 0.0016067545 0.50022792)
(0 0.0012936409 0.50020426)
(0 0.0010103668 0.50018666)
(0 0.0007489946 0.50017399)
(0 0.00050295064 0.50016548)
(0 0.00026656581 0.50016064)
(0 3.4720055e-05 0.50015921)
(0 -0.00019746556 0.50016112)
(0 -0.00043489977 0.50016646)
(0 -0.00068279248 0.50017557)
(0 -0.00094697351 0.50018898)
(0 -0.0012342716 0.50020753)
(0 -0.0015530104 0.50023247)
(0 -0.0019136957 0.50026558)
(0 -0.0023300079 0.50030949)
(0 -0.0028202864 0.5003681)
(0 -0.0034099057 0.50044735)
(0 -0.0041352412 0.5005567)
(0 -0.005049371 0.50071125)
(0 -0.0062321596 0.50093659)
(0 -0.0078324901 0.50129436)
(0 -0.010126149 0.50191049)
(0 -0.013107237 0.50282506)
(0 -0.017426622 0.50608115)
(0 -0.038759365 0.52526813)
(0 -0.027894826 0.45021625)
(0 0.039888303 0.40982051)
(0 0.061428203 0.54930816)
(0 0.031983841 0.52188198)
(0 0.024355589 0.51008057)
(0 0.019193722 0.50658859)
(0 0.014977255 0.50452811)
(0 0.012006816 0.50327143)
(0 0.0097720027 0.50245843)
(0 0.0080365718 0.50190112)
(0 0.0066648784 0.50150875)
(0 0.0055567021 0.50122554)
(0 0.0046425092 0.5010168)
(0 0.0038735621 0.50086065)
(0 0.0032144654 0.50074274)
(0 0.0026388854 0.50065336)
(0 0.0021267696 0.50058584)
(0 0.0016624417 0.50053558)
(0 0.0012332823 0.50049937)
(0 0.0008287851 0.50047505)
(0 0.00043985182 0.50046123)
(0 5.8241826e-05 0.50045714)
(0 -0.00032390564 0.50046257)
(0 -0.00071449843 0.50047785)
(0 -0.0011219152 0.50050387)
(0 -0.0015555002 0.50054216)
(0 -0.0020261475 0.50059512)
(0 -0.0025470546 0.50066624)
(0 -0.0031347537 0.50076059)
(0 -0.003810574 0.50088558)
(0 -0.0046027543 0.50105212)
(0 -0.0055496487 0.50127675)
(0 -0.0067052366 0.50158559)
(0 -0.0081467177 0.50202077)
(0 -0.0099781796 0.50265068)
(0 -0.012372437 0.50361502)
(0 -0.015717446 0.50519909)
(0 -0.019873799 0.50785381)
(0 -0.025187457 0.51641217)
(0 -0.047417921 0.53912718)
(0 -0.030854011 0.41487952)
(0 0.034791625 0.36172996)
(0 0.063839033 0.55456332)
(0 0.039380558 0.5374714)
(0 0.030083529 0.51849264)
(0 0.024112749 0.51197734)
(0 0.019279728 0.50849951)
(0 0.015736284 0.50626433)
(0 0.01295426 0.50475553)
(0 0.010743692 0.50370453)
(0 0.0089678908 0.50295624)
(0 0.0075138248 0.5024112)
(0 0.00630183 0.50200693)
(0 0.0052741021 0.50170315)
(0 0.0043873848 0.50147293)
(0 0.0036088624 0.50129792)
(0 0.0029131522 0.50116545)
(0 0.0022801489 0.50106665)
(0 0.001693493 0.50099539)
(0 0.0011394451 0.50094747)
(0 0.00060602645 0.50092021)
(0 8.2337643e-05 0.50091213)
(0 -0.00044204105 0.50092282)
(0 -0.00097758966 0.50095292)
(0 -0.001535377 0.50100413)
(0 -0.0021276812 0.50107944)
(0 -0.0027687068 0.50118343)
(0 -0.0034754916 0.50132282)
(0 -0.0042691118 0.50150728)
(0 -0.0051763458 0.50175082)
(0 -0.0062319718 0.50207392)
(0 -0.0074818564 0.50250704)
(0 -0.0089882303 0.50309718)
(0 -0.010838462 0.50391907)
(0 -0.013139109 0.50508906)
(0 -0.016025829 0.50680665)
(0 -0.019901188 0.50946723)
(0 -0.024733055 0.51427458)
(0 -0.031114944 0.52824682)
(0 -0.050320919 0.54407148)
(0 -0.028438822 0.37237953)
(0 0.027424312 0.31484309)
(0 0.062315038 0.55024058)
(0 0.044614785 0.55146769)
(0 0.033982249 0.52748819)
(0 0.027464263 0.5177225)
(0 0.022455342 0.51291991)
(0 0.018636931 0.50973154)
(0 0.015528224 0.50749276)
(0 0.01300624 0.50590008)
(0 0.010942154 0.50474706)
(0 0.0092245851 0.50389632)
(0 0.0077746807 0.50325937)
(0 0.0065324554 0.50277731)
(0 0.0054514847 0.50240993)
(0 0.0044957208 0.50212944)
(0 0.0036366989 0.50191637)
(0 0.0028514757 0.50175704)
(0 0.0021211129 0.50164187)
(0 0.0014295171 0.50156431)
(0 0.00076252942 0.50152013)
(0 0.00010718625 0.50150701)
(0 -0.00054894196 0.50152429)
(0 -0.0012183532 0.50157297)
(0 -0.0019141924 0.50165574)
(0 -0.0026509368 0.50177728)
(0 -0.0034451648 0.50194475)
(0 -0.004316502 0.50216854)
(0 -0.0052888324 0.50246354)
(0 -0.0063919057 0.502851)
(0 -0.0076634961 0.50336158)
(0 -0.0091518662 0.50403991)
(0 -0.010919452 0.50495252)
(0 -0.013053087 0.50620223)
(0 -0.015656567 0.50794394)
(0 -0.018817744 0.51040399)
(0 -0.022898122 0.51405442)
(0 -0.028179175 0.52114507)
(0 -0.035709289 0.53932623)
(0 -0.050478256 0.54155438)
(0 -0.024086806 0.33055645)
(0 0.019837967 0.27519752)
(0 0.057990227 0.53974642)
(0 0.047364216 0.5625648)
(0 0.036477969 0.53660464)
(0 0.029636446 0.5235072)
(0 0.024676423 0.51740341)
(0 0.020774503 0.51336316)
(0 0.017509992 0.51044472)
(0 0.014814388 0.50832444)
(0 0.012566763 0.50676208)
(0 0.010665592 0.50559309)
(0 0.0090388832 0.50470834)
(0 0.0076290197 0.50403289)
(0 0.0063901416 0.50351453)
(0 0.0052857904 0.50311655)
(0 0.0042864983 0.50281289)
(0 0.003368038 0.50258504)
(0 0.0025100742 0.50241989)
(0 0.0016950844 0.50230844)
(0 0.00090748304 0.50224485)
(0 0.00013289472 0.5022259)
(0 -0.00064251231 0.50225069)
(0 -0.0014326412 0.50232058)
(0 -0.0022520448 0.50243929)
(0 -0.003116617 0.50261328)
(0 -0.0040443431 0.50285234)
(0 -0.0050561967 0.50317059)
(0 -0.006177242 0.50358803)
(0 -0.0074380269 0.50413286)
(0 -0.0088764784 0.50484501)
(0 -0.010539861 0.50578147)
(0 -0.012486467 0.50702455)
(0 -0.014796509 0.50869739)
(0 -0.017571768 0.51098164)
(0 -0.020866223 0.51411965)
(0 -0.02497615 0.51872975)
(0 -0.03051097 0.52822951)
(0 -0.038632493 0.54872379)
(0 -0.048510652 0.53398312)
(0 -0.019067563 0.29393679)
(0 0.013083245 0.24255458)
(0 0.051799088 0.5252004)
(0 0.047709937 0.57024855)
(0 0.037757541 0.54552506)
(0 0.030850862 0.52928874)
(0 0.026073963 0.52180181)
(0 0.022238385 0.51699811)
(0 0.018954054 0.5134737)
(0 0.016193786 0.51086522)
(0 0.013849775 0.50891277)
(0 0.011835525 0.50743302)
(0 0.010088454 0.50630095)
(0 0.0085559393 0.5054288)
(0 0.0071952342 0.50475445)
(0 0.0059715405 0.50423351)
(0 0.0048560421 0.50383405)
(0 0.0038245534 0.50353311)
(0 0.0028564048 0.50331432)
(0 0.001933511 0.50316631)
(0 0.001039591 0.50308169)
(0 0.00015950376 0.50305637)
(0 -0.00072137583 0.50308921)
(0 -0.0016177439 0.50318193)
(0 -0.0025449032 0.50333924)
(0 -0.0035194167 0.5035693)
(0 -0.0045597867 0.50388438)
(0 -0.0056872496 0.50430209)
(0 -0.0069267173 0.50484705)
(0 -0.0083078932 0.50555352)
(0 -0.0098668465 0.50646929)
(0 -0.01164777 0.50766152)
(0 -0.01370291 0.50922505)
(0 -0.016101771 0.51129785)
(0 -0.018939647 0.51407929)
(0 -0.022247903 0.51783818)
(0 -0.026267369 0.52346734)
(0 -0.03185109 0.53537485)
(0 -0.039762224 0.55589637)
(0 -0.044896128 0.52282149)
(0 -0.014091277 0.2626429)
(0 0.0077701817 0.21554069)
(0 0.044826127 0.50800972)
(0 0.046256105 0.57438088)
(0 0.038035955 0.55375147)
(0 0.0312885 0.5349607)
(0 0.026768928 0.5260305)
(0 0.023117235 0.52053869)
(0 0.019921258 0.51648855)
(0 0.017182444 0.513442)
(0 0.014813579 0.51113104)
(0 0.012746234 0.50935995)
(0 0.01092836 0.50799147)
(0 0.0093140551 0.50692797)
(0 0.007865354 0.50609953)
(0 0.0065505152 0.50545557)
(0 0.0053425847 0.50495922)
(0 0.004218455 0.50458371)
(0 0.0031579983 0.50430979)
(0 0.0021433152 0.50412401)
(0 0.0011580845 0.50401757)
(0 0.00018699462 0.50398558)
(0 -0.00078480626 0.50402666)
(0 -0.0017722384 0.50414288)
(0 -0.0027907529 0.50433986)
(0 -0.003856918 0.50462726)
(0 -0.0049889937 0.5050196)
(0 -0.0062075957 0.50553747)
(0 -0.0075364593 0.50620948)
(0 -0.0090032655 0.50707497)
(0 -0.010640807 0.50818808)
(0 -0.012488663 0.50962406)
(0 -0.014591964 0.51148797)
(0 -0.017006908 0.51392868)
(0 -0.019815154 0.51715494)
(0 -0.023032662 0.52147978)
(0 -0.026881981 0.52818218)
(0 -0.032353913 0.54222006)
(0 -0.039406465 0.56050153)
(0 -0.040330525 0.50908133)
(0 -0.0097086515 0.23585442)
(0 0.0040050185 0.19355589)
(0 0.037899866 0.48948668)
(0 0.043687792 0.57524009)
(0 0.037564795 0.56084534)
(0 0.031155068 0.54036143)
(0 0.026914984 0.5300117)
(0 0.023514858 0.52390221)
(0 0.020480964 0.51941309)
(0 0.017827282 0.51598838)
(0 0.015489852 0.51335957)
(0 0.013418348 0.51132483)
(0 0.011571421 0.50973829)
(0 0.0099109117 0.5084953)
(0 0.0084045866 0.5075202)
(0 0.0070246197 0.50675762)
(0 0.0057467427 0.50616683)
(0 0.0045496766 0.50571799)
(0 0.0034145058 0.50538946)
(0 0.0023241195 0.50516605)
(0 0.0012627058 0.50503775)
(0 0.00021529399 0.50499899)
(0 -0.00083269946 0.5050482)
(0 -0.0018959227 0.50518773)
(0 -0.0029894597 0.50542397)
(0 -0.0041293291 0.50576789)
(0 -0.0053329404 0.50623585)
(0 -0.0066196103 0.50685097)
(0 -0.008011145 0.50764503)
(0 -0.009532397 0.5086614)
(0 -0.011211962 0.50995915)
(0 -0.013083703 0.51161959)
(0 -0.015185136 0.5137554)
(0 -0.017558896 0.51652232)
(0 -0.02026913 0.52013141)
(0 -0.023323697 0.52496289)
(0 -0.026964624 0.53273958)
(0 -0.032206229 0.54839048)
(0 -0.037998278 0.56254278)
(0 -0.03541712 0.4937894)
(0 -0.0062010144 0.21324842)
(0 0.0015511599 0.17613291)
(0 0.031499996 0.47076109)
(0 0.040533186 0.57338567)
(0 0.036559939 0.56659878)
(0 0.030638268 0.54537882)
(0 0.026672526 0.53370497)
(0 0.023543878 0.52703275)
(0 0.020711086 0.52218901)
(0 0.018183484 0.51845193)
(0 0.015917609 0.51555184)
(0 0.013879034 0.51328657)
(0 0.012036326 0.51150549)
(0 0.010359188 0.51009956)
(0 0.0088213665 0.50898929)
(0 0.0073993325 0.50811595)
(0 0.0060719742 0.507436)
(0 0.0048203199 0.50691728)
(0 0.0036271327 0.50653633)
(0 0.0024765376 0.50627657)
(0 0.0013536593 0.50612703)
(0 0.00024427999 0.5060816)
(0 -0.00086551179 0.50613854)
(0 -0.0019896865 0.50630042)
(0 -0.0031425467 0.50657429)
(0 -0.0043391302 0.50697214)
(0 -0.0055955437 0.50751179)
(0 -0.0069293304 0.50821828)
(0 -0.0083598755 0.50912584)
(0 -0.0099087455 0.51028077)
(0 -0.011599946 0.51174562)
(0 -0.013461197 0.51360575)
(0 -0.015522564 0.51597863)
(0 -0.017814673 0.51902281)
(0 -0.020384462 0.52294929)
(0 -0.023239169 0.52823502)
(0 -0.026659284 0.53703999)
(0 -0.031569306 0.5536588)
(0 -0.035908618 0.56230679)
(0 -0.030555478 0.47788697)
(0 -0.0035913685 0.19460521)
(0 7.6775852e-05 0.16252428)
(0 0.025870798 0.45259958)
(0 0.037160525 0.56943315)
(0 0.035192334 0.57098923)
(0 0.029878283 0.54996339)
(0 0.026174588 0.53711434)
(0 0.023306674 0.52991294)
(0 0.020688134 0.52478489)
(0 0.018308444 0.52079896)
(0 0.016139226 0.51767493)
(0 0.014159189 0.51521423)
(0 0.012345477 0.5132647)
(0 0.010675014 0.5117151)
(0 0.0091271885 0.51048373)
(0 0.0076827472 0.50950982)
(0 0.0063238858 0.50874798)
(0 0.0050341702 0.50816448)
(0 0.0037983156 0.50773455)
(0 0.0026019787 0.5074406)
(0 0.0014315236 0.50727096)
(0 0.00027379018 0.50721909)
(0 -0.00088415533 0.50728314)
(0 -0.0020552989 0.50746586)
(0 -0.0032528553 0.50777476)
(0 -0.0044905758 0.5082226)
(0 -0.0057829664 0.50882828)
(0 -0.0071455193 0.50961821)
(0 -0.008594959 0.51062826)
(0 -0.010149424 0.51190667)
(0 -0.011828399 0.51351819)
(0 -0.013653671 0.51555046)
(0 -0.015648455 0.51812323)
(0 -0.017833383 0.5213947)
(0 -0.02024083 0.52557931)
(0 -0.022884381 0.53128203)
(0 -0.02608208 0.54103086)
(0 -0.030573728 0.5579341)
(0 -0.033430776 0.56018874)
(0 -0.025997398 0.46206299)
(0 -0.0017654216 0.17946504)
(0 -0.0007179338 0.15190662)
(0 0.021108452 0.43543397)
(0 0.03382016 0.56393144)
(0 0.033605035 0.57408952)
(0 0.028975794 0.55409445)
(0 0.025520738 0.54026406)
(0 0.022886884 0.53255327)
(0 0.020479069 0.52719274)
(0 0.018255174 0.5230134)
(0 0.016195795 0.51970927)
(0 0.014290205 0.51708703)
(0 0.012522644 0.51499529)
(0 0.010876217 0.51332213)
(0 0.0093352928 0.51198493)
(0 0.0078845883 0.5109219)
(0 0.0065095065 0.51008665)
(0 0.0051961741 0.5094445)
(0 0.0039313663 0.50896987)
(0 0.0027024282 0.5086445)
(0 0.0014971502 0.50845624)
(0 0.00030363035 0.50839828)
(0 -0.00088987906 0.50846868)
(0 -0.0020951704 0.50867029)
(0 -0.0033241694 0.50901097)
(0 -0.0045891545 0.50950397)
(0 -0.0059028731 0.51016891)
(0 -0.0072786618 0.51103305)
(0 -0.0087305553 0.51213325)
(0 -0.010273366 0.51351883)
(0 -0.011922408 0.51525564)
(0 -0.01369413 0.51743232)
(0 -0.015605686 0.52016903)
(0 -0.017669542 0.52362166)
(0 -0.019907162 0.52801593)
(0 -0.022344737 0.53411007)
(0 -0.025323958 0.54468122)
(0 -0.029334655 0.56120697)
(0 -0.030796304 0.5565838)
(0 -0.021896464 0.44675575)
(0 -0.0005648375 0.16724074)
(0 -0.001070061 0.1435826)
(0 0.01720382 0.4194784)
(0 0.030667695 0.55733983)
(0 0.031915964 0.57602081)
(0 0.028004879 0.55776437)
(0 0.02478452 0.54317999)
(0 0.022350972 0.53497646)
(0 0.020139539 0.52941847)
(0 0.018069455 0.52509125)
(0 0.016124346 0.52164545)
(0 0.014301592 0.51889247)
(0 0.012591039 0.5166832)
(0 0.010980828 0.51490606)
(0 0.009459522 0.51347835)
(0 0.0080153431 0.51233804)
(0 0.0066366361 0.51143838)
(0 0.005311965 0.51074425)
(0 0.0040301419 0.51022967)
(0 0.0027802434 0.50987602)
(0 0.0015515692 0.50967086)
(0 0.0003335839 0.50960721)
(0 -0.00088415562 0.50968307)
(0 -0.0021121288 0.50990139)
(0 -0.0033608658 0.51027018)
(0 -0.0046410891 0.51080301)
(0 -0.0059637475 0.51151987)
(0 -0.0073400493 0.51244845)
(0 -0.0087814643 0.51362606)
(0 -0.010299733 0.5151024)
(0 -0.011906495 0.51694365)
(0 -0.013613626 0.51923854)
(0 -0.015433124 0.52210627)
(0 -0.017370975 0.52569976)
(0 -0.019441774 0.53026617)
(0 -0.0216892 0.53673084)
(0 -0.024458156 0.54797094)
(0 -0.02795379 0.56352125)
(0 -0.02817578 0.5518537)
(0 -0.018326849 0.43222991)
(0 0.00016881502 0.15738626)
(0 -0.001153167 0.13700079)
(0 0.014079415 0.40481322)
(0 0.027783187 0.55003264)
(0 0.030213171 0.57693057)
(0 0.027017954 0.5609796)
(0 0.024018932 0.54588611)
(0 0.021750819 0.53720949)
(0 0.01971474 0.5314752)
(0 0.017789629 0.52703574)
(0 0.01595699 0.52348089)
(0 0.014219828 0.52062415)
(0 0.012572164 0.5183196)
(0 0.011006061 0.51645664)
(0 0.0095134676 0.51495302)
(0 0.0080855747 0.51374699)
(0 0.0067133123 0.5127919)
(0 0.0053874642 0.5120526)
(0 0.0040987644 0.51150299)
(0 0.0028379754 0.51112433)
(0 0.0015959074 0.51090409)
(0 0.00036342087 0.51083518)
(0 -0.00086858073 0.51091559)
(0 -0.0021092216 0.5111483)
(0 -0.003367609 0.51154138)
(0 -0.0046529114 0.51210852)
(0 -0.0059743277 0.51286983)
(0 -0.0073410594 0.51385309)
(0 -0.0087622356 0.51509564)
(0 -0.010246875 0.51664707)
(0 -0.011803498 0.51857333)
(0 -0.013440237 0.5209626)
(0 -0.015164927 0.52393222)
(0 -0.016978727 0.52763267)
(0 -0.018893262 0.5323437)
(0 -0.020972342 0.53915848)
(0 -0.023541881 0.55089354)
(0 -0.026513611 0.5649595)
(0 -0.025680464 0.54631623)
(0 -0.015300204 0.41863346)
(0 0.00057366645 0.14943882)
(0 -0.0010855816 0.13172146)
(0 0.011624589 0.39142974)
(0 0.025194477 0.54230354)
(0 0.028555474 0.57697306)
(0 0.026048426 0.56375983)
(0 0.023259342 0.54840528)
(0 0.021124954 0.53928083)
(0 0.019240125 0.53338033)
(0 0.017446926 0.52885486)
(0 0.015720788 0.52521769)
(0 0.014067915 0.52228013)
(0 0.012485227 0.51989971)
(0 0.010967699 0.51796717)
(0 0.0095098965 0.51640104)
(0 0.0081054241 0.51514013)
(0 0.0067474014 0.5141382)
(0 0.0054285626 0.51336032)
(0 0.0041413893 0.51278053)
(0 0.0028782218 0.51238013)
(0 0.00163132 0.51214661)
(0 0.00039290726 0.51207289)
(0 -0.00084478599 0.51215693)
(0 -0.0020895485 0.5124017)
(0 -0.0033491001 0.51281528)
(0 -0.0046311208 0.51341131)
(0 -0.0059431726 0.51420981)
(0 -0.0072926342 0.51523841)
(0 -0.0086865756 0.51653418)
(0 -0.010131697 0.51814628)
(0 -0.011633969 0.52014006)
(0 -0.013198601 0.52260273)
(0 -0.014830252 0.52564926)
(0 -0.016526846 0.52942956)
(0 -0.018300351 0.53426671)
(0 -0.020234811 0.54140963)
(0 -0.022616699 0.55345666)
(0 -0.025075193 0.56562617)
(0 -0.023373054 0.54023723)
(0 -0.012786911 0.40602824)
(0 0.00075882674 0.14300412)
(0 -0.00094374467 0.12739897)
(0 0.0097205723 0.37926188)
(0 0.022898115 0.53437294)
(0 0.026978073 0.57629334)
(0 0.025115043 0.56613228)
(0 0.022526994 0.55075822)
(0 0.020500053 0.54121817)
(0 0.018742152 0.5351535)
(0 0.017065844 0.53055962)
(0 0.01543781 0.52686121)
(0 0.013865225 0.52386172)
(0 0.012346858 0.52142185)
(0 0.010879753 0.51943384)
(0 0.0094603937 0.51781708)
(0 0.0080842742 0.51651112)
(0 0.0067463057 0.51547026)
(0 0.0054408832 0.51465998)
(0 0.0041620284 0.5140546)
(0 0.0029035115 0.5136356)
(0 0.0016589371 0.51339055)
(0 0.00042181359 0.51331243)
(0 -0.00081436806 0.51339922)
(0 -0.0020561276 0.51365383)
(0 -0.0033098794 0.51408426)
(0 -0.0045819254 0.51470402)
(0 -0.0058783467 0.51553291)
(0 -0.0072049178 0.51659824)
(0 -0.0085669585 0.51793659)
(0 -0.0099692634 0.51959652)
(0 -0.011415807 0.52164255)
(0 -0.012909614 0.52416074)
(0 -0.014453062 0.52726363)
(0 -0.016042308 0.53110333)
(0 -0.01769218 0.53605561)
(0 -0.019504799 0.54350183)
(0 -0.021710667 0.55567769)
(0 -0.023680561 0.56563129)
(0 -0.021281622 0.53382818)
(0 -0.010734466 0.39441374)
(0 0.00080461272 0.13774879)
(0 -0.00077514578 0.12377225)
(0 0.0082547117 0.36821271)
(0 0.020873837 0.52640028)
(0 0.025498871 0.57501924)
(0 0.024226609 0.56812654)
(0 0.021833051 0.5529619)
(0 0.019893279 0.54304619)
(0 0.018239601 0.53681446)
(0 0.016664849 0.53216251)
(0 0.015125436 0.5284187)
(0 0.013627563 0.52537238)
(0 0.012171038 0.52288658)
(0 0.0107543 0.52085502)
(0 0.0093751639 0.51919792)
(0 0.0080305438 0.51785555)
(0 0.0067167718 0.51678285)
(0 0.0054296179 0.5159458)
(0 0.0041644235 0.51531904)
(0 0.0029162203 0.51488432)
(0 0.0016798251 0.51462937)
(0 0.00044992264 0.51454726)
(0 -0.00077883422 0.51463595)
(0 -0.0020117954 0.51489833)
(0 -0.0032541829 0.51534225)
(0 -0.0045110596 0.51598102)
(0 -0.0057872044 0.51683412)
(0 -0.0070870213 0.51792844)
(0 -0.0084143869 0.5193)
(0 -0.0097725863 0.52099665)
(0 -0.011164095 0.52308204)
(0 -0.01259038 0.525641)
(0 -0.014052304 0.52878394)
(0 -0.015545552 0.5326687)
(0 -0.017089536 0.53773069)
(0 -0.01880056 0.54545156)
(0 -0.020841354 0.55757906)
(0 -0.02235629 0.56507975)
(0 -0.019411286 0.52725102)
(0 -0.0090801056 0.38374945)
(0 0.00076752973 0.13340041)
(0 -0.00060777108 0.12065104)
(0 0.0071278169 0.35817333)
(0 0.019093629 0.5184977)
(0 0.024123746 0.57325974)
(0 0.023385599 0.56977195)
(0 0.021181982 0.55502924)
(0 0.019314735 0.54478534)
(0 0.017745189 0.53838156)
(0 0.016257382 0.53367613)
(0 0.014796936 0.52989831)
(0 0.013367463 0.52681688)
(0 0.011969208 0.52429599)
(0 0.010601481 0.52223068)
(0 0.0092629619 0.5205419)
(0 0.0079515882 0.51917057)
(0 0.0066647845 0.51807223)
(0 0.0053994289 0.51721336)
(0 0.0041519675 0.516569)
(0 0.0029185175 0.51612117)
(0 0.0016949621 0.51585781)
(0 0.00047703605 0.51577205)
(0 -0.00073956438 0.51586191)
(0 -0.0019591386 0.51613017)
(0 -0.0031858474 0.51658455)
(0 -0.0044236678 0.5172381)
(0 -0.0056762631 0.51810996)
(0 -0.006946897 0.51922654)
(0 -0.0082382911 0.52062327)
(0 -0.0095525769 0.52234728)
(0 -0.010891157 0.52446142)
(0 -0.012254457 0.52704933)
(0 -0.013642444 0.53021989)
(0 -0.015051445 0.53414054)
(0 -0.016506443 0.53931045)
(0 -0.018132894 0.54727317)
(0 -0.020018491 0.55918518)
(0 -0.021116857 0.56406627)
(0 -0.017752814 0.52062642)
(0 -0.0077591198 0.37397243)
(0 0.00068598884 0.12974364)
(0 -0.00045654131 0.11790009)
(0 0.0062573053 0.34903423)
(0 0.017527361 0.51074166)
(0 0.022850816 0.57110615)
(0 0.022590661 0.57109653)
(0 0.020573975 0.55696965)
(0 0.018769476 0.54645176)
(0 0.017267043 0.53987095)
(0 0.015852892 0.53511238)
(0 0.014462154 0.53130818)
(0 0.013094618 0.52820052)
(0 0.011750505 0.52565305)
(0 0.010429615 0.52356191)
(0 0.0091311268 0.52184858)
(0 0.0078536853 0.52045455)
(0 0.0065955279 0.51933586)
(0 0.0053544038 0.51845947)
(0 0.0041276626 0.51780081)
(0 0.0029123358 0.51734218)
(0 0.0017052247 0.5170717)
(0 0.0005029797 0.51698264)
(0 -0.00069778712 0.51707298)
(0 -0.0019004536 0.51734547)
(0 -0.0031082576 0.51780765)
(0 -0.0043242465 0.51847231)
(0 -0.0055511505 0.51935823)
(0 -0.0067913086 0.52049133)
(0 -0.008046546 0.52190649)
(0 -0.0093181464 0.52365019)
(0 -0.010606792 0.52578459)
(0 -0.011912273 0.52839223)
(0 -0.01323415 0.53158139)
(0 -0.014570299 0.53553293)
(0 -0.015951634 0.54081093)
(0 -0.017507141 0.54897878)
(0 -0.019246102 0.56052073)
(0 -0.019967727 0.56267357)
(0 -0.01628894 0.51404188)
(0 -0.0067102987 0.3650092)
(0 0.00058516788 0.12661193)
(0 -0.00032792187 0.11542515)
(0 0.0055774398 0.34069153)
(0 0.016146094 0.50318226)
(0 0.021673808 0.56863418)
(0 0.021838422 0.57212632)
(0 0.020006639 0.55878976)
(0 0.018259079 0.54805764)
(0 0.016809908 0.54129637)
(0 0.01545774 0.53648204)
(0 0.014128183 0.53265609)
(0 0.012816342 0.52952871)
(0 0.011522076 0.5269612)
(0 0.010245383 0.52485046)
(0 0.0089856844 0.52311838)
(0 0.0077420831 0.52170679)
(0 0.0065133998 0.52057219)
(0 0.0052980509 0.51968193)
(0 0.0040941096 0.51901179)
(0 0.0028993621 0.51854434)
(0 0.0017113837 0.5182679)
(0 0.00052760725 0.51817581)
(0 -0.00065456801 0.51826608)
(0 -0.0018377286 0.51854137)
(0 -0.0030243272 0.51900908)
(0 -0.0042166321 0.51968171)
(0 -0.005416611 0.52057771)
(0 -0.0066258723 0.52172258)
(0 -0.0078455678 0.52315066)
(0 -0.0090763873 0.52490792)
(0 -0.010318572 0.52705591)
(0 -0.011571586 0.52967636)
(0 -0.012834959 0.53287792)
(0 -0.014108803 0.5368586)
(0 -0.015429808 0.54224549)
(0 -0.016924776 0.55057832)
(0 -0.018524297 0.56160945)
(0 -0.018908192 0.56097214)
(0 -0.014998837 0.50755884)
(0 -0.0058790429 0.35678308)
(0 0.00048081035 0.12387859)
(0 -0.00022324479 0.11316178)
(0 0.0050377379 0.33305023)
(0 0.014923733 0.49585035)
(0 0.020584476 0.56590627)
(0 0.021124744 0.57288525)
(0 0.019476246 0.56049404)
(0 0.017782872 0.5496118)
(0 0.016376122 0.54266921)
(0 0.015075956 0.5377946)
(0 0.013799949 0.53394916)
(0 0.012538015 0.53080667)
(0 0.01128938 0.52822403)
(0 0.010054044 0.52609853)
(0 0.0088314868 0.52435226)
(0 0.0076210855 0.52292729)
(0 0.0064220599 0.52178042)
(0 0.0052333244 0.52087933)
(0 0.0040535191 0.52020009)
(0 0.0028810413 0.51972552)
(0 0.0017141061 0.51944409)
(0 0.00055080242 0.51934922)
(0 -0.00061080758 0.51943894)
(0 -0.0017726445 0.51971585)
(0 -0.0029365066 0.52018716)
(0 -0.004104023 0.52086517)
(0 -0.0052765524 0.52176799)
(0 -0.0064551417 0.52292074)
(0 -0.0076404555 0.52435737)
(0 -0.0088327936 0.52612338)
(0 -0.010032167 0.52827992)
(0 -0.011237945 0.53090815)
(0 -0.012449902 0.53411828)
(0 -0.013670857 0.53812866)
(0 -0.014942727 0.54362488)
(0 -0.016384713 0.55207967)
(0 -0.017850746 0.56247337)
(0 -0.01793374 0.55902099)
(0 -0.013861003 0.50121882)
(0 -0.0052186832 0.34921896)
(0 0.00038212187 0.12144879)
(0 -0.00014098141 0.1110666)
(0 0.004600544 0.3260257)
(0 0.0138376 0.48876323)
(0 0.019574152 0.56297393)
(0 0.020445503 0.57339508)
(0 0.018978587 0.56208538)
(0 0.017338868 0.55112019)
(0 0.015966389 0.54399863)
(0 0.014709867 0.53905825)
(0 0.01348072 0.53519375)
(0 0.01226347 0.53203925)
(0 0.011056496 0.52944507)
(0 0.0098596517 0.52730847)
(0 0.0086723674 0.52555158)
(0 0.0074941575 0.52411655)
(0 0.0063244996 0.52296035)
(0 0.0051626682 0.52205092)
(0 0.0040077383 0.52136456)
(0 0.0028585916 0.52088427)
(0 0.0017139629 0.52059866)
(0 0.00057247982 0.52050124)
(0 -0.00056724699 0.52059005)
(0 -0.0017065885 0.52086758)
(0 -0.0028468093 0.52134094)
(0 -0.0039890247 0.5220222)
(0 -0.0051341187 0.52292922)
(0 -0.0062827192 0.52408679)
(0 -0.0074351554 0.52552853)
(0 -0.0085914937 0.52729967)
(0 -0.0097516683 0.52946105)
(0 -0.010915117 0.53209356)
(0 -0.012082063 0.5353103)
(0 -0.013258302 0.53935256)
(0 -0.014490139 0.54495741)
(0 -0.015884309 0.55348894)
(0 -0.017221777 0.56313246)
(0 -0.017037791 0.55686901)
(0 -0.012854999 0.49504853)
(0 -0.0046906746 0.34224611)
(0 0.00029393211 0.11925272)
(0 -7.8222215e-05 0.10911056)
(0 0.0042384426 0.31954384)
(0 0.012868413 0.48192878)
(0 0.01863462 0.55987985)
(0 0.019796996 0.57367575)
(0 0.018509495 0.56356562)
(0 0.016924421 0.55258651)
(0 0.015580367 0.5452918)
(0 0.014360603 0.54027989)
(0 0.013172533 0.53639545)
(0 0.011995346 0.53323083)
(0 0.010826387 0.53062768)
(0 0.0096652648 0.52848269)
(0 0.008511296 0.5267179)
(0 0.0073640388 0.52527539)
(0 0.0062231216 0.52411221)
(0 0.0050880707 0.52319645)
(0 0.0039582858 0.52250456)
(0 0.0028330252 0.52201972)
(0 0.0017114373 0.52173062)
(0 0.0005925851 0.52163085)
(0 -0.00052447762 0.52171844)
(0 -0.0016406773 0.52199582)
(0 -0.00275685 0.52246998)
(0 -0.0038737083 0.52315282)
(0 -0.0049917758 0.52406196)
(0 -0.0061113788 0.52522198)
(0 -0.0072326303 0.52666625)
(0 -0.0083554809 0.52843983)
(0 -0.0094798916 0.53060344)
(0 -0.010605483 0.53323802)
(0 -0.011733071 0.53646084)
(0 -0.012871528 0.54053806)
(0 -0.0140705 0.54624922)
(0 -0.015420101 0.5548107)
(0 -0.016633147 0.56360464)
(0 -0.016212915 0.55455649)
(0 -0.011962335 0.48906385)
(0 -0.0042640821 0.33579984)
(0 0.00021822439 0.11723978)
(0 -3.1600707e-05 0.10727406)
(0 0.0039318662 0.31354047)
(0 0.011999982 0.47534846)
(0 0.017758537 0.55665961)
(0 0.019176103 0.57374559)
(0 0.018065145 0.56493608)
(0 0.016536658 0.55401275)
(0 0.015217082 0.54655422)
(0 0.01402848 0.54146531)
(0 0.012876537 0.53755907)
(0 0.011735375 0.53438533)
(0 0.010601142 0.53177496)
(0 0.0094731354 0.52962354)
(0 0.0083505267 0.52785288)
(0 0.0072328552 0.52640487)
(0 0.0061198228 0.52523654)
(0 0.005011123 0.52431603)
(0 0.0039063914 0.52361991)
(0 0.0028051725 0.52313145)
(0 0.0017069367 0.52283945)
(0 0.00061109192 0.5227375)
(0 -0.00048295683 0.52282365)
(0 -0.0015757836 0.52310028)
(0 -0.0026678888 0.52357426)
(0 -0.0037596764 0.52425738)
(0 -0.0048514044 0.52516708)
(0 -0.005943192 0.52632776)
(0 -0.0070350269 0.52777266)
(0 -0.0081268282 0.5295468)
(0 -0.0092186501 0.53171088)
(0 -0.010310369 0.53434628)
(0 -0.011403505 0.53757571)
(0 -0.012509949 0.54169141)
(0 -0.013681512 0.54750466)
(0 -0.014988314 0.55604839)
(0 -0.016080555 0.56390591)
(0 -0.015451633 0.55211664)
(0 -0.011166826 0.48327296)
(0 -0.0039146704 0.32982205)
(0 0.00015520361 0.11537362)
(0 2.1651646e-06 0.10554347)
(0 0.0036670546 0.30796041)
(0 0.01121879 0.46901949)
(0 0.016939563 0.5533431)
(0 0.018580306 0.57362161)
(0 0.017642188 0.56619782)
(0 0.016172743 0.55539965)
(0 0.014875221 0.54778996)
(0 0.013713281 0.54261926)
(0 0.01259325 0.53868874)
(0 0.011484612 0.53550617)
(0 0.010382175 0.53288973)
(0 0.0092848753 0.53073325)
(0 0.008191731 0.5289582)
(0 0.0071022234 0.52750619)
(0 0.0060160735 0.5263341)
(0 0.0049330777 0.52541008)
(0 0.0038530366 0.52471075)
(0 0.0027757065 0.52421943)
(0 0.001700803 0.52392498)
(0 0.00062800054 0.52382102)
(0 -0.00044302267 0.52390558)
(0 -0.0015125679 0.524181)
(0 -0.002580879 0.52465409)
(0 -0.0036481303 0.52533651)
(0 -0.004714391 0.5262456)
(0 -0.005779647 0.52740566)
(0 -0.0068438288 0.52884987)
(0 -0.0079068813 0.53062329)
(0 -0.0089689897 0.53278678)
(0 -0.010030333 0.53542249)
(0 -0.011093208 0.53865983)
(0 -0.012172364 0.54281749)
(0 -0.013320515 0.54872661)
(0 -0.014585198 0.55720457)
(0 -0.01555995 0.56405061)
(0 -0.014746906 0.54957684)
(0 -0.010454602 0.4776786)
(0 -0.0036238341 0.32426127)
(0 0.00010403953 0.11362835)
(0 2.599491e-05 0.10390885)
(0 0.0034344155 0.30275636)
(0 0.010513551 0.46293629)
(0 0.016172329 0.54995552)
(0 0.018007629 0.57331966)
(0 0.017237797 0.56735201)
(0 0.01583003 0.55674709)
(0 0.014553313 0.54900199)
(0 0.013414456 0.54374565)
(0 0.012322765 0.53978799)
(0 0.011243625 0.53659638)
(0 0.010170389 0.53397453)
(0 0.0091015958 0.53181392)
(0 0.0080361148 0.53003552)
(0 0.0069733455 0.52858059)
(0 0.0059129914 0.5274058)
(0 0.004854904 0.52647921)
(0 0.0037989935 0.52577746)
(0 0.0027451673 0.52528389)
(0 0.0016933226 0.52498736)
(0 0.0006433351 0.52488154)
(0 -0.00040491026 0.52496442)
(0 -0.0014515088 0.52523832)
(0 -0.0024965142 0.52570999)
(0 -0.0035399351 0.52639102)
(0 -0.0045817139 0.52729867)
(0 -0.0056217593 0.52845721)
(0 -0.0066599927 0.52989985)
(0 -0.007696423 0.53167179)
(0 -0.0087313833 0.53383413)
(0 -0.0097653809 0.5364702)
(0 -0.010801545 0.53971725)
(0 -0.011857222 0.54392007)
(0 -0.012984746 0.54991681)
(0 -0.014207235 0.55828124)
(0 -0.015067705 0.56405162)
(0 -0.014092388 0.54695978)
(0 -0.0098139451 0.47227978)
(0 -0.0033775297 0.31907238)
(0 6.3373232e-05 0.11198551)
(0 4.2337545e-05 0.10236247)
(0 0.003227269 0.29788776)
(0 0.0098748109 0.45709151)
(0 0.015452312 0.54651825)
(0 0.017456541 0.57285463)
(0 0.01684964 0.5684)
(0 0.01550613 0.55805441)
(0 0.014249859 0.55019239)
(0 0.013131269 0.5448477)
(0 0.012064885 0.54085985)
(0 0.011012626 0.53765856)