/*--------------------------------*- C++ -*----------------------------------*\
  =========                 |
  \\      /  F ield         | OpenFOAM: The Open Source CFD Toolbox
   \\    /   O peration     | Website:  https://openfoam.org
    \\  /    A nd           | Version:  10
     \\/     M anipulation  |
\*---------------------------------------------------------------------------*/
FoamFile
{
    format      ascii;
    class       surfaceScalarField;
    location    "0.05";
    object      phi;
}
// * * * * * * * * * * * * * * * * * * * * * * * * * * * * * * * * * * * * * //

dimensions      [1 0 -1 0 0 0 0];

internalField   nonuniform List<scalar> 
7860
(
3.9820695e-08
5.2888763e-07
1.2137539e-08
5.9639071e-07
7.3731699e-09
5.7347213e-07
5.438515e-09
5.7064237e-07
4.0535234e-09
5.7009268e-07
3.1411565e-09
5.6962003e-07
2.5015132e-09
5.6934729e-07
2.0247975e-09
5.6918435e-07
1.6585033e-09
5.6907392e-07
1.3699439e-09
5.6899617e-07
1.1372168e-09
5.6894033e-07
9.4548209e-10
5.6889933e-07
7.8433931e-10
5.6886874e-07
6.4625786e-10
5.6884567e-07
5.2563711e-10
5.6882821e-07
4.1819914e-10
5.6881502e-07
3.2058088e-10
5.688052e-07
2.3005155e-10
5.6879811e-07
1.4430911e-10
5.6879332e-07
6.1325939e-11
5.6879056e-07
-2.0775226e-11
5.6878968e-07
-1.0382969e-10
5.6879063e-07
-1.8974066e-10
5.6879349e-07
-2.8058434e-10
5.6879842e-07
-3.7874523e-10
5.6880574e-07
-4.8708178e-10
5.6881592e-07
-6.0915049e-10
5.6882965e-07
-7.4952299e-10
5.6884796e-07
-9.1425248e-10
5.6887232e-07
-1.1115878e-09
5.6890493e-07
-1.3531556e-09
5.6894917e-07
-1.6559479e-09
5.690104e-07
-2.0452166e-09
5.6909689e-07
-2.5611853e-09
5.692236e-07
-3.2865848e-09
5.6943304e-07
-4.3785024e-09
5.6979958e-07
-5.9318973e-09
5.7026108e-07
-9.4347564e-09
5.7221058e-07
-2.9480686e-08
5.8875369e-07
5.3922725e-07
5.9492331e-08
4.6939705e-07
3.6460659e-08
6.1942169e-07
2.2438329e-08
5.8749421e-07
1.6058718e-08
5.77022e-07
1.2095681e-08
5.7405572e-07
9.4162705e-09
5.7229944e-07
7.4953674e-09
5.7126819e-07
6.0642507e-09
5.7061547e-07
4.9666626e-09
5.7017151e-07
4.1020704e-09
5.6986077e-07
3.4048218e-09
5.6963758e-07
2.8305114e-09
5.6947364e-07
2.3479229e-09
5.6935133e-07
1.9344621e-09
5.6925913e-07
1.5733361e-09
5.6918933e-07
1.2517207e-09
5.6913664e-07
9.5953626e-10
5.6909738e-07
6.8860065e-10
5.6906904e-07
4.3201807e-10
5.690499e-07
1.8371598e-10
5.6903886e-07
-6.192804e-11
5.6903532e-07
-3.104127e-10
5.6903912e-07
-5.6742896e-10
5.6905051e-07
-8.3919725e-10
5.6907019e-07
-1.1328603e-09
5.690994e-07
-1.4569824e-09
5.6914004e-07
-1.822222e-09
5.6919489e-07
-2.2422835e-09
5.6926802e-07
-2.735324e-09
5.6936536e-07
-3.3260996e-09
5.6949571e-07
-4.0494132e-09
5.6967249e-07
-4.9561732e-09
5.6991716e-07
-6.1237995e-09
5.7026452e-07
-7.6721816e-09
5.7077198e-07
-9.8059257e-09
5.7156679e-07
-1.2933768e-08
5.7292742e-07
-1.7873457e-08
5.7520077e-07
-2.7909106e-08
5.8224623e-07
-4.5562397e-08
6.0640699e-07
4.9366485e-07
5.9729577e-08
4.0967196e-07
5.009932e-08
6.290517e-07
3.3015946e-08
6.0457667e-07
2.4468904e-08
5.8556898e-07
1.8977246e-08
5.795474e-07
1.4995705e-08
5.7628099e-07
1.2040244e-08
5.7422366e-07
9.8000765e-09
5.7285564e-07
8.060781e-09
5.719108e-07
6.6785189e-09
5.7124303e-07
5.5566908e-09
5.7075941e-07
4.6281455e-09
5.7040219e-07
3.8448453e-09
5.7013463e-07
3.1716203e-09
5.6993236e-07
2.5820909e-09
5.6977887e-07
2.0559625e-09
5.6966277e-07
1.5771885e-09
5.6957616e-07
1.13268e-09
5.6951356e-07
7.1136335e-10
5.6947122e-07
3.034595e-10
5.6944677e-07
-1.0010053e-10
5.6943888e-07
-5.0818831e-10
5.6944721e-07
-9.2997786e-10
5.694723e-07
-1.3754752e-09
5.6951569e-07
-1.8561317e-09
5.6958006e-07
-2.3856167e-09
5.6966953e-07
-2.9808468e-09
5.6979013e-07
-3.6634195e-09
5.699506e-07
-4.4616933e-09
5.7016364e-07
-5.413892e-09
5.7044791e-07
-6.5728179e-09
5.7083141e-07
-8.01355e-09
5.713579e-07
-9.8467437e-09
5.7209771e-07
-1.2236135e-08
5.7316138e-07
-1.5417415e-08
5.7474807e-07
-1.9756484e-08
5.772665e-07
-2.6225952e-08
5.8167024e-07
-3.843945e-08
5.9445973e-07
-4.7770557e-08
6.157381e-07
4.458943e-07
5.4510765e-08
3.5516988e-07
5.6848838e-08
6.2671559e-07
3.9904523e-08
6.2151917e-07
3.0247948e-08
5.9522517e-07
2.4123058e-08
5.8567232e-07
1.9450446e-08
5.8095361e-07
1.5836474e-08
5.7783763e-07
1.3020152e-08
5.7567196e-07
1.0787945e-08
5.7414301e-07
8.9872231e-09
5.7304375e-07
7.5094054e-09
5.7223723e-07
6.2754958e-09
5.716361e-07
5.2273e-09
5.7118283e-07
4.3212807e-09
5.7083838e-07
3.5242138e-09
5.7057593e-07
2.8101872e-09
5.703768e-07
2.1584862e-09
5.7022786e-07
1.5520614e-09
5.7011998e-07
9.7638591e-10
5.700469e-07
4.1856529e-10
5.7000459e-07
-1.3339495e-10
5.6999085e-07
-6.9123829e-10
5.7000505e-07
-1.2670874e-09
5.7004815e-07
-1.8741104e-09
5.7012272e-07
-2.5272856e-09
5.7023324e-07
-3.2443472e-09
5.7038659e-07
-4.0470164e-09
5.705928e-07
-4.9626653e-09
5.7086625e-07
-6.026639e-09
5.7122762e-07
-7.2855713e-09
5.7170684e-07
-8.8020299e-09
5.7234787e-07
-1.0660986e-08
5.7321686e-07
-1.2980323e-08
5.7441705e-07
-1.5923833e-08
5.7610489e-07
-1.9693258e-08
5.785175e-07
-2.4558828e-08
5.8213207e-07
-3.175706e-08
5.8886848e-07
-4.4293592e-08
6.0699626e-07
-4.598631e-08
6.1743081e-07
3.9990799e-07
4.7521154e-08
3.076632e-07
5.9235419e-08
6.1500803e-07
4.4577096e-08
6.3617501e-07
3.4124825e-08
6.0567634e-07
2.7678032e-08
5.9211912e-07
2.2727719e-08
5.8590396e-07
1.8781141e-08
5.8178421e-07
1.5620168e-08
5.7883294e-07
1.3058397e-08
5.7670479e-07
1.095533e-08
5.7514682e-07
9.2050123e-09
5.7398755e-07
7.7268217e-09
5.731143e-07
6.459353e-09
5.724503e-07
5.3553661e-09
5.7194237e-07
4.3779776e-09
5.7155333e-07
3.4978861e-09
5.7125689e-07
2.6913089e-09
5.7103444e-07
1.9384264e-09
5.7087287e-07
1.2221833e-09
5.7076315e-07
5.2733184e-10
5.7069945e-07
-1.6037197e-10
5.7067855e-07
-8.5488874e-10
5.7069957e-07
-1.5705959e-09
5.7076386e-07
-2.3230245e-09
5.7087515e-07
-3.1296907e-09
5.7103991e-07
-4.0111016e-09
5.7126801e-07
-4.9920233e-09
5.7157372e-07
-6.1031288e-09
5.7197736e-07
-7.383176e-09
5.7250766e-07
-8.8819487e-09
5.7320562e-07
-1.066413e-08
5.7413006e-07
-1.2813843e-08
5.7536657e-07
-1.544125e-08
5.7704446e-07
-1.8692903e-08
5.7935654e-07
-2.2744308e-08
5.8256891e-07
-2.7896895e-08
5.8728466e-07
-3.5682833e-08
5.9665442e-07
-4.7304059e-08
6.1861749e-07
-4.245952e-08
6.1258628e-07
3.5744847e-07
3.9821992e-08
2.6786329e-07
5.7900387e-08
5.9694423e-07
4.7194666e-08
6.4687856e-07
3.6571845e-08
6.1629683e-07
2.9972332e-08
5.9871844e-07
2.4984704e-08
5.9089165e-07
2.0926774e-08
5.8584215e-07
1.7600709e-08
5.82159e-07
1.485133e-08
5.7945417e-07
1.2555333e-08
5.7744282e-07
1.0615893e-08
5.7592699e-07
8.9571214e-09
5.7477307e-07
7.5195185e-09
5.738879e-07
6.2560004e-09
5.7320589e-07
5.1289004e-09
5.7268043e-07
4.1076678e-09
5.7227813e-07
3.1670622e-09
5.7197505e-07
2.2857344e-09
5.717542e-07
1.4450928e-09
5.7160379e-07
6.2837041e-10
5.7151617e-07
-1.8017702e-10
5.714871e-07
-9.9599835e-10
5.715154e-07
-1.8349597e-09
5.7160282e-07
-2.714087e-09
5.7175428e-07
-3.6523882e-09
5.7197821e-07
-4.6718229e-09
5.7228744e-07
-5.7984844e-09
5.7270039e-07
-7.064078e-09
5.7324295e-07
-8.5077769e-09
5.7395137e-07
-1.0178607e-08
5.7487645e-07
-1.2138591e-08
5.7609004e-07
-1.4466316e-08
5.776943e-07
-1.7261154e-08
5.798393e-07
-2.0650738e-08
5.8274613e-07
-2.4796496e-08
5.8671467e-07
-3.0095446e-08
5.9258361e-07
-3.8122423e-08
6.046814e-07
-4.7613811e-08
6.2810888e-07
-3.7667585e-08
6.0264005e-07
3.1978089e-07
3.2284126e-08
2.3561117e-07
5.3890485e-08
5.7536422e-07
4.7732751e-08
6.5303621e-07
3.7726233e-08
6.2629941e-07
3.1201051e-08
6.0524296e-07
2.6361516e-08
5.9573128e-07
2.2359561e-08
5.8984414e-07
1.9007602e-08
5.8551096e-07
1.6185835e-08
5.8227594e-07
1.3790593e-08
5.7983807e-07
1.1737224e-08
5.7798037e-07
9.9579557e-09
5.7655234e-07
8.3982858e-09
5.7544758e-07
7.0139579e-09
5.7459022e-07
5.7687304e-09
5.7392566e-07
4.6325785e-09
5.7341428e-07
3.5802234e-09
5.7302741e-07
2.589934e-09
5.7274449e-07
1.6425352e-09
5.7255119e-07
7.205651e-10
5.7243814e-07
-1.9246741e-10
5.7240014e-07
-1.1127654e-09
5.724357e-07
-2.0569179e-09
5.7254698e-07
-3.0425958e-09
5.7273996e-07
-4.089308e-09
5.7302493e-07
-5.2192711e-09
5.7341741e-07
-6.4584363e-09
5.7393955e-07
-7.8377358e-09
5.7462226e-07
-9.3945957e-09
5.7550823e-07
-1.1174795e-08
5.7665665e-07
-1.3234975e-08
5.7815023e-07
-1.5645707e-08
5.8010503e-07
-1.8493793e-08
5.8268739e-07
-2.1883976e-08
5.8613631e-07
-2.5961808e-08
5.907925e-07
-3.1216403e-08
5.9783821e-07
-3.8977748e-08
6.1244274e-07
-4.5688018e-08
6.3481916e-07
-3.2286546e-08
5.8923858e-07
2.8749434e-07
2.5549057e-08
2.1010684e-07
4.8492488e-08
5.5246355e-07
4.6578184e-08
6.5495522e-07
3.7776794e-08
6.3509507e-07
3.1530603e-08
6.114876e-07
2.6973208e-08
6.0028875e-07
2.3160126e-08
5.9365728e-07
1.9896121e-08
5.8877498e-07
1.7096626e-08
5.8507543e-07
1.4680741e-08
5.8225396e-07
1.2578597e-08
5.8008251e-07
1.0732673e-08
5.7839827e-07
9.0953867e-09
5.7708486e-07
7.6270856e-09
5.7605853e-07
6.2945275e-09
5.7525822e-07
5.0695662e-09
5.7463924e-07
3.9280336e-09
5.7416895e-07
2.8487956e-09
5.7382373e-07
1.8129412e-09
5.7358705e-07
8.0306988e-10
5.7344802e-07
-1.9735196e-10
5.7340056e-07
-1.2045921e-09
5.7344294e-07
-2.2352498e-09
5.7357764e-07
-3.3068661e-09
5.7381158e-07
-4.4385783e-09
5.7415664e-07
-5.6518513e-09
5.7463068e-07
-6.9713176e-09
5.7525902e-07
-8.4257655e-09
5.7607671e-07
-1.004931e-08
5.7713178e-07
-1.1882748e-08
5.784901e-07
-1.3975333e-08
5.8024282e-07
-1.6387089e-08
5.8251679e-07
-1.9189268e-08
5.8548957e-07
-2.2461292e-08
5.8940834e-07
-2.6338215e-08
5.9466943e-07
-3.1375549e-08
6.0287554e-07
-3.8451822e-08
6.1951902e-07
-4.2315679e-08
6.3868301e-07
-2.6933275e-08
5.7385618e-07
2.6056107e-07
1.9870786e-08
1.9029705e-07
4.2644254e-08
5.2975467e-07
4.4259022e-08
6.5335353e-07
3.6994655e-08
6.4235212e-07
3.1169566e-08
6.1730974e-07
2.6960477e-08
6.0449778e-07
2.3422476e-08
5.9719539e-07
2.0331263e-08
5.918662e-07
1.7628299e-08
5.877784e-07
1.525567e-08
5.8462659e-07
1.3159406e-08
5.8217878e-07
1.1293314e-08
5.8026436e-07
9.6178662e-09
5.7876032e-07
8.0991519e-09
5.7757724e-07
6.7079953e-09
5.7664938e-07
5.4191e-09
5.7592814e-07
4.210282e-09
5.7537777e-07
3.0617876e-09
5.7497223e-07
1.9556764e-09
5.7469316e-07
8.7526052e-10
5.7452844e-07
-1.9541735e-10
5.7447124e-07
-1.2720799e-09
5.745196e-07
-2.3707109e-09
5.7467627e-07
-3.5080569e-09
5.7494893e-07
-4.7021563e-09
5.7535075e-07
-5.9729139e-09
5.7590145e-07
-7.342736e-09
5.7662885e-07
-8.8372489e-09
5.7757122e-07
-1.0486119e-08
5.7878065e-07
-1.2323935e-08
5.8032791e-07
-1.439123e-08
5.8231011e-07
-1.6735925e-08
5.8486149e-07
-1.9412531e-08
5.8816618e-07
-2.2478843e-08
5.9247466e-07
-2.607215e-08
5.9826274e-07
-3.076974e-08
6.0757314e-07
-3.6879694e-08
6.2562897e-07
-3.8156105e-08
6.3995943e-07
-2.1960297e-08
5.5766038e-07
2.3860078e-07
1.5254103e-08
1.7512845e-07
3.6883388e-08
5.0821842e-07
4.1211806e-08
6.4905091e-07
3.5617517e-08
6.4793817e-07
3.031674e-08
6.2260559e-07
2.6476551e-08
6.0833758e-07
2.3254804e-08
6.004173e-07
2.038923e-08
5.9473181e-07
1.7834778e-08
5.9033285e-07
1.5553518e-08
5.8690785e-07
1.3506435e-08
5.8422587e-07
1.1658448e-08
5.8211235e-07
9.9783804e-09
5.8044039e-07
8.4385925e-09
5.7911703e-07
7.0145827e-09
5.7807339e-07
5.6845287e-09
5.772582e-07
4.4288419e-09
5.7663346e-07
3.2297305e-09
5.7617134e-07
2.0707767e-09
5.7585212e-07
9.3653217e-10
5.7566268e-07
-1.8787288e-10
5.7559565e-07
-1.3171083e-09
5.7564884e-07
-2.4660256e-09
5.7582519e-07
-3.6500392e-09
5.7613294e-07
-4.8855191e-09
5.7658623e-07
-6.1902022e-09
5.7720613e-07
-7.583623e-09
5.7802227e-07
-9.0875676e-09
5.7907517e-07
-1.0726568e-08
5.8041965e-07
-1.2528387e-08
5.8212974e-07
-1.4524485e-08
5.8430621e-07
-1.6750694e-08
5.870877e-07
-1.9245818e-08
5.9066131e-07
-2.2052334e-08
5.9528118e-07
-2.5317758e-08
6.0152817e-07
-2.9583206e-08
6.1183859e-07
-3.4559632e-08
6.306054e-07
-3.36515e-08
6.390513e-07
-1.7533317e-08
5.415422e-07
2.2106746e-07
1.1597729e-08
1.6366025e-07
3.1503127e-08
4.8844409e-07
3.77633e-08
6.4283445e-07
3.3820989e-08
6.5187245e-07
2.9122398e-08
6.2729676e-07
2.5654325e-08
6.1180466e-07
2.2760788e-08
6.0331104e-07
2.0148092e-08
5.9734457e-07
1.7774312e-08
5.9270664e-07
1.5617407e-08
5.8906476e-07
1.3651375e-08
5.861919e-07
1.1851191e-08
5.8391254e-07
1.019363e-08
5.8209795e-07
8.6573085e-09
5.8065336e-07
7.2225895e-09
5.7950811e-07
5.8714335e-09
5.7860936e-07
4.5872118e-09
5.7791768e-07
3.3544831e-09
5.7740407e-07
2.1587479e-09
5.7704786e-07
9.8619322e-10
5.7683524e-07
-1.7656834e-10
5.7675842e-07
-1.3427586e-09
5.7681504e-07
-2.5256981e-09
5.7700814e-07
-3.7390656e-09
5.7734631e-07
-4.9971551e-09
5.7784432e-07
-6.3151282e-09
5.7852411e-07
-7.7092572e-09
5.794164e-07
-9.1971463e-09
5.8056306e-07
-1.0797948e-08
5.8202046e-07
-1.2532556e-08
5.8386435e-07
-1.4423703e-08
5.8619736e-07
-1.6495996e-08
5.8916e-07
-1.8774325e-08
5.9293964e-07
-2.1291162e-08
5.9779801e-07
-2.4203612e-08
6.0444062e-07
-2.7962741e-08
6.1559772e-07
-3.1738756e-08
6.3438142e-07
-2.9101045e-08
6.3641359e-07
-1.3706857e-08
5.2614801e-07
2.0736061e-07
8.7596215e-09
1.5510295e-07
2.6650441e-08
4.7073731e-07
3.4158148e-08
6.3539486e-07
3.1743043e-08
6.5428146e-07
2.7696709e-08
6.3133279e-07
2.459869e-08
6.1490077e-07
2.202924e-08
6.0588069e-07
1.9679518e-08
5.9969439e-07
1.7503769e-08
5.948824e-07
1.5491753e-08
5.9107677e-07
1.362848e-08
5.8805518e-07
1.1897712e-08
5.8564331e-07
1.0283432e-08
5.8371223e-07
8.7701342e-09
5.8216666e-07
7.3429327e-09
5.8093532e-07
5.9876213e-09
5.7996467e-07
4.690685e-09
5.7921462e-07
3.4392481e-09
5.7865552e-07
2.2209798e-09
5.7826613e-07
1.0239719e-09
5.7803225e-07
-1.63401e-10
5.7794579e-07
-1.3526299e-09
5.7800427e-07
-2.5552239e-09
5.7821073e-07
-3.7828533e-09
5.7857395e-07
-5.0474809e-09
5.7910895e-07
-6.3614717e-09
5.798381e-07
-7.7376713e-09
5.8079261e-07
-9.1894366e-09
5.8201483e-07
-1.0730626e-08
5.8356165e-07
-1.2375567e-08
5.8550929e-07
-1.4138889e-08
5.8796069e-07
-1.6035019e-08
5.9105613e-07
-1.8076839e-08
5.9498146e-07
-2.029055e-08
6.0001173e-07
-2.283602e-08
6.0698609e-07
-2.6035981e-08
6.1879768e-07
-2.8629369e-08
6.3697481e-07
-2.470825e-08
6.3249248e-07
-1.0466481e-08
5.1190625e-07
1.9689414e-07
6.5849363e-09
1.488159e-07
2.2369556e-08
4.5521054e-07
3.0568038e-08
6.2729771e-07
2.9497503e-08
6.5535022e-07
2.6126373e-08
6.3469049e-07
2.3394204e-08
6.1762974e-07
2.1135682e-08
6.0813933e-07
1.9047504e-08
6.0178272e-07
1.7076469e-08
5.9685345e-07
1.5220303e-08
5.9293294e-07
1.3473173e-08
5.8980231e-07
1.1826404e-08
5.8729009e-07
1.0270341e-08
5.852683e-07
8.7948208e-09
5.8364218e-07
7.3894065e-09
5.8234074e-07
6.043601e-09
5.8131048e-07
4.7469973e-09
5.8051123e-07
3.4893592e-09
5.7991316e-07
2.2606506e-09
5.7949484e-07
1.0510258e-09
5.7924188e-07
-1.4920483e-10
5.7914603e-07
-1.349623e-09
5.7920469e-07
-2.5597534e-09
5.7942087e-07
-3.7891029e-09
5.798033e-07
-5.0471816e-09
5.8036704e-07
-6.3434882e-09
5.8113441e-07
-7.687453e-09
5.8213658e-07
-9.0883143e-09
5.834157e-07
-1.0554928e-08
5.8502827e-07
-1.2095548e-08
5.8704992e-07
-1.3717451e-08
5.895826e-07
-1.5426012e-08
5.927647e-07
-1.7224136e-08
5.9677959e-07
-1.9134155e-08
6.0192175e-07
-2.1308308e-08
6.0916025e-07
-2.3920072e-08
6.2140945e-07
-2.5407388e-08
6.3846213e-07
-2.0599191e-08
6.2768428e-07
-7.7573651e-09
4.9906443e-07
1.8913678e-07
4.9258514e-09
1.4428512e-07
1.8638692e-08
4.41853e-07
2.7100518e-08
6.1898186e-07
2.7174469e-08
6.5528194e-07
2.448077e-08
6.3736751e-07
2.2109936e-08
6.1999562e-07
2.0144702e-08
6.1010449e-07
1.8308773e-08
6.0361885e-07
1.6541228e-08
5.9862103e-07
1.4844534e-08
5.9462964e-07
1.3220286e-08
5.9142656e-07
1.1666234e-08
5.8884414e-07
1.0178231e-08
5.8675631e-07
8.7508587e-09
5.8506956e-07
7.37774e-09
5.8371386e-07
6.0518563e-09
5.8263637e-07
4.765795e-09
5.8179729e-07
3.5119305e-09
5.8116703e-07
2.2825491e-09
5.8072423e-07
1.0699318e-09
5.804545e-07
-1.3359123e-10
5.8034956e-07
-1.3356031e-09
5.8040671e-07
-2.5435631e-09
5.8062883e-07
-3.7647574e-09
5.810245e-07
-5.0062255e-09
5.8160851e-07
-6.2746458e-09
5.8240284e-07
-7.5761665e-09
5.834381e-07
-8.9161649e-09
5.847557e-07
-1.0298918e-08
5.8641103e-07
-1.1727229e-08
5.8847823e-07
-1.3201888e-08
5.9105726e-07
-1.4720495e-08
5.9428331e-07
-1.6278043e-08
5.9833714e-07
-1.7894042e-08
6.0353775e-07
-1.9701491e-08
6.109677e-07
-2.1718818e-08
6.2342678e-07
-2.221096e-08
6.3895428e-07
-1.6845344e-08
6.2231867e-07
-5.5130211e-09
4.8773211e-07
1.8362377e-07
3.6561307e-09
1.4110174e-07
1.5406105e-08
4.3057721e-07
2.3817525e-08
6.1077413e-07
2.4842097e-08
6.542741e-07
2.2812546e-08
6.3937697e-07
2.0798642e-08
6.220023e-07
1.9107812e-08
6.1179491e-07
1.750994e-08
6.0521697e-07
1.5938982e-08
6.0019204e-07
1.4399841e-08
5.9616879e-07
1.2899996e-08
5.9292641e-07
1.1442583e-08
5.9030156e-07
1.0028165e-08
5.8817073e-07
8.6554635e-09
5.8644227e-07
7.321738e-09
5.8504759e-07
6.0231628e-09
5.8393495e-07
4.7551408e-09
5.8306532e-07
3.5125563e-09
5.8240962e-07
2.2899733e-09
5.8194682e-07
1.0817908e-09
5.8166269e-07
-1.1763002e-10
5.8154898e-07
-1.3138573e-09
5.8160294e-07
-2.5122778e-09
5.8182726e-07
-3.7179738e-09
5.822302e-07
-4.935573e-09
5.8282611e-07
-6.1690544e-09
5.8363632e-07
-7.4214946e-09
5.8469055e-07
-8.6947401e-09
5.8602895e-07
-9.9889847e-09
5.8770527e-07
-1.1302274e-08
5.8979153e-07
-1.2629855e-08
5.9238485e-07
-1.3962912e-08
5.9561637e-07
-1.5290442e-08
5.9966468e-07
-1.662909e-08
6.0487641e-07
-1.8082599e-08
6.1242121e-07
-1.9521446e-08
6.2486563e-07
-1.9149599e-08
6.3858243e-07
-1.3492136e-08
6.1666121e-07
-3.6788885e-09
4.7791887e-07
1.7994488e-07
2.6784383e-09
1.3894565e-07
1.2616976e-08
4.2124766e-07
2.0757418e-08
6.0290791e-07
2.2552598e-08
6.5251061e-07
2.1158758e-08
6.4074719e-07
1.9495399e-08
6.2365561e-07
1.8060282e-08
6.132291e-07
1.6683626e-08
6.0659392e-07
1.529855e-08
6.015772e-07
1.3910989e-08
5.9755635e-07
1.2532997e-08
5.943044e-07
1.1172221e-08
5.9166234e-07
9.833232e-09
5.8950972e-07
8.5183346e-09
5.8775717e-07
7.2280115e-09
5.8633792e-07
5.961327e-09
5.8520164e-07
4.7162852e-09
5.8431036e-07
3.4901338e-09
5.8363577e-07
2.2796163e-09
5.8315734e-07
1.0811838e-09
5.8286113e-07
-1.0881944e-10
5.8273899e-07
-1.2939889e-09
5.8278811e-07
-2.4776899e-09
5.8301096e-07
-3.6628732e-09
5.8341538e-07
-4.8518644e-09
5.8401511e-07
-6.0461083e-09
5.8483057e-07
-7.2458535e-09
5.8589029e-07
-8.4497642e-09
5.8723286e-07
-9.6544432e-09
5.8890996e-07
-1.0853857e-08
5.9099094e-07
-1.2038597e-08
5.9356959e-07
-1.3194743e-08
5.9677252e-07
-1.4306982e-08
6.0077692e-07
-1.538856e-08
6.0595799e-07
-1.6508267e-08
6.1354093e-07
-1.7407087e-08
6.2576446e-07
-1.6316517e-08
6.3749187e-07
-1.0579843e-08
6.1092455e-07
-2.2234618e-09
4.6956249e-07
1.777214e-07
1.9242329e-09
1.3756882e-07
1.0227914e-08
4.1369788e-07
1.7951279e-08
5.9554036e-07
2.0350653e-08
6.501621e-07
1.9546747e-08
6.4152444e-07
1.8222262e-08
6.249669e-07
1.7024424e-08
6.1442535e-07
1.5850871e-08
6.0776779e-07
1.4638417e-08
6.0278977e-07
1.3393328e-08
5.9880145e-07
1.2131216e-08
5.9556651e-07
1.0863567e-08
5.9292999e-07
9.5983989e-09
5.9077489e-07
8.3411463e-09
5.8901442e-07
7.0951435e-09
5.8758392e-07
5.8620528e-09
5.8643473e-07
4.6422525e-09
5.8553016e-07
3.4351766e-09
5.8484284e-07
2.2396087e-09
5.843529e-07
1.0539379e-09
5.840468e-07
-1.2360727e-10
5.8391653e-07
-1.2947445e-09
5.8395925e-07
-2.4609188e-09
5.8417713e-07
-3.6230677e-09
5.8457753e-07
-4.7813624e-09
5.851734e-07
-5.9349029e-09
5.8598411e-07
-7.081358e-09
5.8703675e-07
-8.2165341e-09
5.8836804e-07
-9.333868e-09
5.9002729e-07
-1.0423811e-08
5.9208089e-07
-1.1473026e-08
5.946188e-07
-1.2463559e-08
5.9776305e-07
-1.3377161e-08
6.0169052e-07
-1.4223217e-08
6.0680404e-07
-1.5035383e-08
6.1435309e-07
-1.5452961e-08
6.2618204e-07
-1.3796288e-08
6.358352e-07
-8.1458261e-09
6.0527409e-07
-1.1342445e-09
4.6255091e-07
1.7658715e-07
1.3481182e-09
1.3677617e-07
8.2118635e-09
4.0773679e-07
1.5435398e-08
5.8876304e-07
1.8286261e-08
6.4738638e-07
1.8009092e-08
6.4177394e-07
1.7004253e-08
6.2595571e-07
1.6025004e-08
6.1540225e-07
1.5035674e-08
6.087574e-07
1.3980351e-08
6.0384523e-07
1.2865528e-08
5.9991628e-07
1.1709754e-08
5.9672228e-07
1.0527919e-08
5.9411182e-07
9.3311132e-09
5.9197169e-07
8.1275587e-09
5.9021797e-07
6.9231384e-09
5.8878834e-07
5.7218457e-09
5.8763602e-07
4.5262019e-09
5.8672581e-07
3.3376264e-09
5.8603142e-07
2.1567661e-09
5.8553376e-07
9.8378898e-10
5.8521977e-07
-1.8134266e-10
5.8508166e-07
-1.3386164e-09
5.8511652e-07
-2.48771e-09
5.8532623e-07
-3.6277158e-09
5.8571754e-07
-4.7568391e-09
5.8630252e-07
-5.8720531e-09
5.8709932e-07
-6.9687007e-09
5.881334e-07
-8.0400279e-09
5.8943936e-07
-9.0766504e-09
5.9106391e-07
-1.0065924e-08
5.9307016e-07
-1.0991086e-08
5.9554396e-07
-1.1830819e-08
5.9860278e-07
-1.2564828e-08
6.0242453e-07
-1.319839e-08
6.0743761e-07
-1.3733943e-08
6.1488864e-07
-1.3741488e-08
6.2618958e-07
-1.1664626e-08
6.3375834e-07
-6.2108228e-09
5.9982029e-07
-4.0123976e-10
4.5674133e-07
1.761859e-07
9.206523e-10
1.3640764e-07
6.5569614e-09
4.0314515e-07
1.3259148e-08
5.8260342e-07
1.6430074e-08
6.4432097e-07
1.6605679e-08
6.4157358e-07
1.5893958e-08
6.2664986e-07
1.5113384e-08
6.1617977e-07
1.428798e-08
6.0958297e-07
1.337127e-08
6.0476208e-07
1.2370495e-08
6.0091708e-07
1.1307024e-08
5.9778576e-07
1.0198968e-08
5.9521988e-07
9.0602875e-09
5.9311038e-07
7.9017579e-09
5.9137651e-07
6.731558e-09
5.8995854e-07
5.5557618e-09
5.8881182e-07
4.3787919e-09
5.8790278e-07
3.2038249e-09
5.8720639e-07
2.0331541e-09
5.8670444e-07
8.6851883e-10
5.8638441e-07
-2.8858928e-10
5.8623878e-07
-1.4366342e-09
5.8626457e-07
-2.573741e-09
5.8646334e-07
-3.6973857e-09
5.8684119e-07
-4.8040565e-09
5.874092e-07
-5.8888718e-09
5.8818414e-07
-6.9451444e-09
5.8918967e-07
-7.9638778e-09
5.904581e-07
-8.9331902e-09
5.9203323e-07
-9.8376704e-09
5.9397464e-07
-1.0657474e-08
5.9636377e-07
-1.1368189e-08
5.993135e-07
-1.1947684e-08
6.0300403e-07
-1.2396649e-08
6.0788657e-07
-1.2690452e-08
6.1518245e-07
-1.2357957e-08
6.2585709e-07
-9.9786745e-09
6.3137905e-07
-4.7631098e-09
5.9460473e-07
4.2794794e-11
4.5193543e-07
1.7622869e-07
6.2286939e-10
1.36325e-07
5.2605874e-09
3.9967009e-07
1.1481844e-08
5.7702221e-07
1.4879079e-08
6.4106563e-07
1.5437773e-08
6.4099795e-07
1.4988743e-08
6.270816e-07
1.4384199e-08
6.1678072e-07
1.3699053e-08
6.1026807e-07
1.2897742e-08
6.055635e-07
1.1989449e-08
6.018254e-07
1.099868e-08
5.9877654e-07
9.9467869e-09
5.9627179e-07
8.8504961e-09
5.9420668e-07
7.7229427e-09
5.9250408e-07
6.5743529e-09
5.9110715e-07
5.4126148e-09
5.8997358e-07
4.2437813e-09
5.8907163e-07
3.0725187e-09
5.8837767e-07
1.9025053e-09
5.8787447e-07
7.367936e-10
5.8755014e-07
-4.2185461e-10
5.8739744e-07
-1.5706466e-09
5.8741338e-07
-2.7064346e-09
5.8759914e-07
-3.8253789e-09
5.8796015e-07
-4.9225776e-09
5.8850641e-07
-5.9916509e-09
5.8925323e-07
-7.024267e-09
5.902223e-07
-8.0095955e-09
5.9144345e-07
-8.9336663e-09
5.9295731e-07
-9.7786732e-09
5.9481966e-07
-1.0522029e-08
5.9710714e-07
-1.1136332e-08
5.9992782e-07
-1.1597106e-08
6.0346482e-07
-1.1898784e-08
6.0818826e-07
-1.1989498e-08
6.1527317e-07
-1.1371783e-08
6.2523938e-07
-8.7605101e-09
6.2876779e-07
-3.7663774e-09
5.896106e-07
2.3234943e-10
4.4793672e-07
1.7646104e-07
4.4242775e-10
1.3640473e-07
4.316968e-09
3.9703278e-07
1.0151526e-08
5.7191816e-07
1.3736463e-08
6.3766224e-07
1.4632337e-08
6.4009631e-07
1.4418205e-08
6.2727999e-07
1.3963379e-08
6.1723152e-07
1.3389424e-08
6.1084168e-07
1.2674393e-08
6.0627859e-07
1.183123e-08
6.026686e-07
1.0888082e-08
5.9971972e-07
9.8695904e-09
5.9729031e-07
8.795113e-09
5.9528119e-07
7.679888e-09
5.9361933e-07
6.535884e-09
5.9225118e-07
5.3724811e-09
5.9113701e-07
4.1970414e-09
5.902471e-07
3.0154072e-09
5.8955934e-07
1.8323374e-09
5.8905757e-07
6.5189659e-10
5.8873061e-07
-5.2218636e-10
5.8857156e-07
-1.6861763e-09
5.885774e-07
-2.835986e-09
5.8874898e-07
-3.9668217e-09
5.8909102e-07
-5.0727912e-09
5.8961241e-07
-6.1464619e-09
5.9032694e-07
-7.1783512e-09
5.9125423e-07
-8.1563339e-09
5.9242146e-07
-9.0649224e-09
5.9386593e-07
-9.8844575e-09
5.9563923e-07
-1.0590116e-08
5.9781283e-07
-1.1151746e-08
6.0048948e-07
-1.1541474e-08
6.0385457e-07
-1.1743559e-08
6.0839037e-07
-1.1671433e-08
6.1520107e-07
-1.0799379e-08
6.2436734e-07
-7.9731735e-09
6.259416e-07
-3.1403406e-09
5.8477779e-07
2.3920156e-10
4.4455719e-07
1.7670023e-07
3.6722378e-10
1.3653905e-07
3.6997825e-09
3.9495752e-07
9.2696246e-09
5.671515e-07
1.3062499e-08
6.3408814e-07
1.4287983e-08
6.3887523e-07
1.4292093e-08
6.2726093e-07
1.3959073e-08
6.1755978e-07
1.3462512e-08
6.1133755e-07
1.2800206e-08
6.069409e-07
1.1991274e-08
6.034776e-07
1.1067871e-08
6.0064317e-07
1.0057801e-08
5.9830042e-07
8.9827612e-09
5.9635628e-07
7.859705e-09
5.9474243e-07
6.7019421e-09
5.9340899e-07
5.5199531e-09
5.9231904e-07
4.3220391e-09
5.9144506e-07
3.1148718e-09
5.9076655e-07
1.9039615e-09
5.9026852e-07
6.9406696e-10
5.8994055e-07
-5.1043304e-10
5.897761e-07
-1.7051885e-09
5.897722e-07
-2.8855216e-09
5.8992936e-07
-4.0460664e-09
5.902516e-07
-5.1803686e-09
5.9074676e-07
-6.2804299e-09
5.9142704e-07
-7.3361721e-09
5.9231001e-07
-8.3348033e-09
5.9342013e-07
-9.2600182e-09
5.9479119e-07
-1.0091026e-08
5.9647028e-07
-1.0801468e-08
5.9852331e-07
-1.1358917e-08
6.0104697e-07
-1.1730677e-08
6.0422637e-07
-1.188433e-08
6.0854406e-07
-1.1684583e-08
6.1500136e-07
-1.0564555e-08
6.2324735e-07
-7.5034982e-09
6.2288058e-07
-2.7684435e-09
5.8004276e-07
1.4241404e-10
4.4164635e-07
1.7684264e-07
3.7624076e-10
1.3664529e-07
3.349045e-09
3.9321259e-07
8.7612501e-09
5.6258761e-07
1.2818507e-08
6.3027748e-07
1.4403183e-08
6.3729885e-07
1.4627126e-08
6.2701934e-07
1.4393068e-08
6.177874e-07
1.3941218e-08
6.1178831e-07
1.3299519e-08
6.0758259e-07
1.2496282e-08
6.0428091e-07
1.1567763e-08
6.0157175e-07
1.0544551e-08
5.9932368e-07
9.4502038e-09
5.9745067e-07
8.302897e-09
5.9588978e-07
7.1168164e-09
5.9459511e-07
5.9031209e-09
5.9353278e-07
4.6706735e-09
5.9267755e-07
3.426637e-09
5.9201063e-07
2.176964e-09
5.9151824e-07
9.2681695e-10
5.9119074e-07
-3.1905899e-10
5.9102202e-07
-1.5559869e-09
5.9100917e-07
-2.7790034e-09
5.9115242e-07
-3.982505e-09
5.9145515e-07
-5.1598527e-09
5.9192415e-07
-6.302917e-09
5.9257014e-07
-7.4015297e-09
5.9340866e-07
-8.4428162e-09
5.9446146e-07
-9.410327e-09
5.9575874e-07
-1.0282874e-08
5.9734287e-07
-1.1033277e-08
5.9927376e-07
-1.1627317e-08
6.0164105e-07
-1.2025791e-08
6.0462489e-07
-1.2171778e-08
6.0869009e-07
-1.1866591e-08
6.1469622e-07
-1.0492242e-08
6.2187305e-07
-7.1785032e-09
6.1956688e-07
-2.5240706e-09
5.7538836e-07
2.4389519e-11
4.3909789e-07
1.7686703e-07
4.3782204e-10
1.3667554e-07
3.1736827e-09
3.9164511e-07
8.475663e-09
5.5814762e-07
1.2842518e-08
6.2617049e-07
1.4830783e-08
6.353132e-07
1.5294874e-08
6.2652968e-07
1.5151303e-08
6.179214e-07
1.4723006e-08
6.1221505e-07
1.4080726e-08
6.0822491e-07
1.3265497e-08
6.0509624e-07
1.2317671e-08
6.0251962e-07
1.127011e-08
6.0037128e-07
1.0147708e-08
5.985731e-07
8.9693948e-09
5.9706813e-07
7.7498154e-09
5.9581472e-07
6.5004489e-09
5.9478218e-07
5.2304151e-09
5.9394761e-07
3.9471051e-09
5.9329396e-07
2.6566841e-09
5.9280869e-07
1.3645097e-09
5.9248294e-07
7.5497984e-11
5.9231105e-07
-1.2055394e-09
5.9229023e-07
-2.4735533e-09
5.9242046e-07
-3.7229178e-09
5.9270454e-07
-4.9470498e-09
5.9314831e-07
-6.1379651e-09
5.9376109e-07
-7.2857294e-09
5.9455645e-07
-8.3777603e-09
5.9555352e-07
-9.397899e-09
5.9677891e-07
-1.0325054e-08
5.9827005e-07
-1.1131652e-08
6.0008039e-07
-1.1781836e-08
6.0229126e-07
-1.2228171e-08
6.0507125e-07
-1.2382976e-08
6.0884493e-07
-1.197781e-08
6.1429109e-07
-1.0351248e-08
6.2024652e-07
-6.8127129e-09
6.1602838e-07
-2.3026275e-09
5.708783e-07
-8.9625226e-11
4.3688488e-07
1.7677739e-07
5.1580072e-10
1.3661901e-07
3.0713624e-09
3.9019235e-07
8.2259042e-09
5.5384204e-07
1.2883686e-08
6.21771e-07
1.5297334e-08
6.3288809e-07
1.6030576e-08
6.2575856e-07
1.5989521e-08
6.1794842e-07
1.5585295e-08
6.1261715e-07
1.4941394e-08
6.0886896e-07
1.4115038e-08
6.0592273e-07
1.3150862e-08
6.0348383e-07
1.2083627e-08
6.0143852e-07
1.0939223e-08
5.9971751e-07
9.7370602e-09
5.9827029e-07
8.4920216e-09
5.9705976e-07
7.2157196e-09
5.9605848e-07
5.9173813e-09
5.9524595e-07
4.6045059e-09
5.9460684e-07
3.2833723e-09
5.9412982e-07
1.9594532e-09
5.9380686e-07
6.3776663e-10
5.9363274e-07
-6.7679903e-10
5.936048e-07
-1.9791633e-09
5.9372282e-07
-3.2637285e-09
5.939891e-07
-4.5240188e-09
5.944086e-07
-5.7522469e-09
5.9498932e-07
-6.9387684e-09
5.9574298e-07
-8.071352e-09
5.9668611e-07
-9.1341864e-09
5.9784175e-07
-1.0106346e-08
5.9924222e-07
-1.095984e-08
6.0093389e-07
-1.1656824e-08
6.0298825e-07
-1.2140444e-08
6.0555488e-07
-1.2290866e-08
6.0899537e-07
-1.1778803e-08
6.1377904e-07
-9.9306944e-09
6.1839843e-07
-6.2644667e-09
6.1236217e-07
-2.0279428e-09
5.6664178e-07
-1.5367239e-10
4.3501058e-07
1.7662372e-07
5.7877578e-10
1.3649522e-07
2.9564194e-09
3.8886363e-07
7.8510607e-09
5.4976789e-07
1.2687052e-08
6.1718216e-07
1.5489793e-08
6.3005711e-07
1.6510933e-08
6.2468634e-07
1.6601931e-08
6.1783856e-07
1.6247201e-08
6.1296911e-07
1.5624435e-08
6.0949201e-07
1.4809131e-08
6.0673822e-07
1.3850672e-08
6.044423e-07
1.278567e-08
6.025035e-07
1.1641e-08
6.0086216e-07
1.0436596e-08
5.9947467e-07
9.1876231e-09
5.9830871e-07
7.9058758e-09
5.973402e-07
6.6007385e-09
5.9655106e-07
5.2798689e-09
5.9592768e-07
3.9497136e-09
5.9545995e-07
2.6159182e-09
5.9514063e-07
1.2836703e-09
5.9496496e-07
-4.1989189e-11
5.9493043e-07
-1.3558589e-09
5.9503667e-07
-2.6522602e-09
5.9528548e-07
-3.9246924e-09
5.95681e-07
-5.165403e-09
5.9623e-07
-6.3648377e-09
5.9694239e-07
-7.5108757e-09
5.9783212e-07
-8.5877587e-09
5.9891861e-07
-9.574408e-09
6.0022884e-07
-1.0442024e-08
6.0180148e-07
-1.1150215e-08
6.0369642e-07
-1.1632855e-08
6.060375e-07
-1.1743447e-08
6.0910594e-07
-1.1116794e-08
6.1315237e-07
-9.1156336e-09
6.1639726e-07
-5.4809696e-09
6.087275e-07
-1.678035e-09
5.6283883e-07
-1.6575717e-10
4.3349828e-07
1.7645796e-07
6.0820377e-10
1.3634014e-07
2.782023e-09
3.8770286e-07
7.2694444e-09
5.4606919e-07
1.2087244e-08
6.1259917e-07
1.5169803e-08
6.2693439e-07
1.6467515e-08
6.2332817e-07
1.6724369e-08
6.1755917e-07
1.6461889e-08
6.1322826e-07
1.5901502e-08
6.1005275e-07
1.5136145e-08
6.0750379e-07
1.4220284e-08
6.0535815e-07
1.3192586e-08