/*--------------------------------*- C++ -*----------------------------------*\
  =========                 |
  \\      /  F ield         | OpenFOAM: The Open Source CFD Toolbox
   \\    /   O peration     | Website:  https://openfoam.org
    \\  /    A nd           | Version:  10
     \\/     M anipulation  |
\*---------------------------------------------------------------------------*/
FoamFile
{
    format      ascii;
    class       surfaceScalarField;
    location    "0.05";
    object      phi_0;
}
// * * * * * * * * * * * * * * * * * * * * * * * * * * * * * * * * * * * * * //

dimensions      [1 0 -1 0 0 0 0];

internalField   nonuniform List<scalar> 
7860
(
3.981528e-08
5.2889307e-07
1.2133722e-08
5.9638909e-07
7.3695208e-09
5.7347196e-07
5.4345641e-09
5.7064268e-07
4.0496567e-09
5.700926e-07
3.1375007e-09
5.6961982e-07
2.4981046e-09
5.6934704e-07
2.0216615e-09
5.6918408e-07
1.6556517e-09
5.6907363e-07
1.3673779e-09
5.6899589e-07
1.1349313e-09
5.6894005e-07
9.434686e-10
5.6889906e-07
7.8258807e-10
5.6886847e-07
6.447589e-10
5.6884542e-07
5.2438134e-10
5.6882796e-07
4.1717898e-10
5.6881479e-07
3.1979085e-10
5.6880497e-07
2.2948847e-10
5.6879788e-07
1.4397251e-10
5.6879309e-07
6.1218089e-11
5.6879033e-07
-2.0649091e-11
5.6878944e-07
-1.0346139e-10
5.6879039e-07
-1.891189e-10
5.6879323e-07
-2.796948e-10
5.6879815e-07
-3.7757077e-10
5.6880546e-07
-4.8560255e-10
5.6881561e-07
-6.0734453e-10
5.6882933e-07
-7.4736711e-10
5.6884761e-07
-9.1172342e-10
5.6887195e-07
-1.1086643e-09
5.6890454e-07
-1.3498211e-09
5.6894876e-07
-1.652195e-09
5.6900999e-07
-2.0410547e-09
5.6909648e-07
-2.5566466e-09
5.6922322e-07
-3.281727e-09
5.6943273e-07
-4.3734914e-09
5.6979943e-07
-5.9272075e-09
5.7026141e-07
-9.430129e-09
5.7221064e-07
-2.9474408e-08
5.8875204e-07
5.3923353e-07
5.9479247e-08
4.6941574e-07
3.6446237e-08
6.1942134e-07
2.2425513e-08
5.8749242e-07
1.6045999e-08
5.770222e-07
1.2083392e-08
5.7405521e-07
9.4046873e-09
5.7229853e-07
7.4846209e-09
5.7126711e-07
6.0544135e-09
5.7061429e-07
4.9577578e-09
5.7017029e-07
4.0940908e-09
5.6985956e-07
3.3977426e-09
5.696364e-07
2.8242986e-09
5.6947251e-07
2.342539e-09
5.6935024e-07
1.9298702e-09
5.6925809e-07
1.5695031e-09
5.6918833e-07
1.2486191e-09
5.6913567e-07
9.5714591e-10
5.6909644e-07
6.8690952e-10
5.6906812e-07
4.3102308e-10
5.6904898e-07
1.8342341e-10
5.6903793e-07
-6.150208e-11
5.6903437e-07
-3.0924202e-10
5.6903813e-07
-5.6547715e-10
5.6904947e-07
-8.3641787e-10
5.690691e-07
-1.129197e-09
5.6909824e-07
-1.4523699e-09
5.6913879e-07
-1.8165873e-09
5.6919355e-07
-2.2355485e-09
5.6926657e-07
-2.7274094e-09
5.6936381e-07
-3.3169308e-09
5.6949406e-07
-4.0389295e-09
5.6967076e-07
-4.9443406e-09
5.699154e-07
-6.1106317e-09
5.7026277e-07
-7.6577712e-09
5.7077037e-07
-9.7904687e-09
5.7156543e-07
-1.2917659e-08
5.7292662e-07
-1.7857338e-08
5.7520109e-07
-2.7891901e-08
5.8224521e-07
-4.5546378e-08
6.0640652e-07
4.9368715e-07
5.9708976e-08
4.0971166e-07
5.0071577e-08
6.2905847e-07
3.2991618e-08
6.0457138e-07
2.4445885e-08
5.8556787e-07
1.895524e-08
5.7954587e-07
1.4975113e-08
5.7627866e-07
1.2021268e-08
5.7422096e-07
9.7828012e-09
5.7285276e-07
8.0452147e-09
5.7190788e-07
6.664624e-09
5.7124015e-07
5.5444039e-09
5.7075663e-07
4.6173905e-09
5.7039952e-07
3.8355431e-09
5.7013209e-07
3.1636957e-09
5.6992994e-07
2.5754775e-09
5.6977655e-07
2.0506056e-09
5.6966055e-07
1.573048e-09
5.69574e-07
1.1297312e-09
5.6951144e-07
7.0959819e-10
5.6946912e-07
3.0288761e-10
5.6944465e-07
-9.945155e-11
5.6943671e-07
-5.0627219e-10
5.6944495e-07
-9.2672947e-10
5.6946993e-07
-1.3708106e-09
5.6951318e-07
-1.849948e-09
5.6957738e-07
-2.3777935e-09
5.6966664e-07
-2.971248e-09
5.69787e-07
-3.6518969e-09
5.6994723e-07
-4.4480927e-09
5.7016001e-07
-5.3980628e-09
5.7044403e-07
-6.5546279e-09
5.7082733e-07
-7.9929067e-09
5.7135368e-07
-9.8236263e-09
5.720935e-07
-1.2210646e-08
5.7315739e-07
-1.5389842e-08
5.7474462e-07
-1.9727425e-08
5.7726421e-07
-2.6195737e-08
5.816694e-07
-3.8406195e-08
5.9445567e-07
-4.7743684e-08
6.1574401e-07
4.4594347e-07
5.4483112e-08
3.5523807e-07
5.680492e-08
6.2673881e-07
3.9865289e-08
6.2150903e-07
3.0212532e-08
5.9522021e-07
2.4089745e-08
5.856687e-07
1.9419546e-08
5.8094887e-07
1.5808237e-08
5.7783227e-07
1.2994628e-08
5.7566637e-07
1.0765083e-08
5.7413743e-07
8.9669187e-09
5.7303832e-07
7.4915265e-09
5.7223202e-07
6.2598986e-09
5.7163115e-07
5.2138434e-09
5.7117814e-07
4.3098347e-09
5.7083395e-07
3.5146657e-09
5.7057173e-07
2.8024454e-09
5.7037277e-07
2.1524828e-09
5.7022397e-07
1.5477538e-09
5.7011617e-07
9.7375812e-10
5.7004312e-07
4.1762869e-10
5.7000078e-07
-1.3260071e-10
5.6998695e-07
-6.8864473e-10
5.70001e-07
-1.2625964e-09
5.7004389e-07
-1.8675938e-09
5.7011818e-07
-2.5185851e-09
5.7022837e-07
-3.2332751e-09
5.7038133e-07
-4.0333572e-09
5.7058709e-07
-4.94618e-09
5.7086005e-07
-6.0070719e-09
5.712209e-07
-7.262662e-09
5.7169963e-07
-8.7755324e-09
5.723402e-07
-1.0630697e-08
5.7320885e-07
-1.2946123e-08
5.7440892e-07
-1.5885755e-08
5.7609702e-07
-1.9651619e-08
5.7851049e-07
-2.451425e-08
5.8212684e-07
-3.1708727e-08
5.8886388e-07
-4.4239822e-08
6.0698676e-07
-4.5947425e-08
6.1745162e-07
3.9999605e-07
4.7487192e-08
3.0776678e-07
5.9173141e-08
6.1506018e-07
4.4518846e-08
6.361606e-07
3.4074216e-08
6.0566364e-07
2.7631501e-08
5.9211141e-07
2.2685015e-08
5.8589539e-07
1.8742482e-08
5.8177481e-07
1.5585509e-08
5.7882334e-07
1.3027572e-08
5.7669537e-07
1.0928117e-08
5.7513777e-07
9.1811689e-09
5.7397897e-07
7.7061031e-09
5.7310622e-07
6.4415294e-09
5.7244272e-07
5.3402317e-09
5.7193525e-07
4.3653574e-09
5.715466e-07
3.4876389e-09
5.7125049e-07
2.6833302e-09
5.7102828e-07
1.9326494e-09
5.7086685e-07
1.2185799e-09
5.7075719e-07
5.2591366e-10
5.7069345e-07
-1.5955318e-10
5.7067242e-07
-8.5173977e-10
5.7069319e-07
-1.564981e-09
5.7075713e-07
-2.3147642e-09
5.7086797e-07
-3.1185608e-09
5.7103217e-07
-3.9968327e-09
5.712596e-07
-4.9743014e-09
5.7156456e-07
-6.0815985e-09
5.7196735e-07
-7.3574467e-09
5.7249676e-07
-8.8516065e-09
5.7319379e-07
-1.0628759e-08
5.7411736e-07
-1.2773058e-08
5.7535315e-07
-1.5394743e-08
5.7703061e-07
-1.8640536e-08
5.7934282e-07
-2.2686301e-08
5.8255626e-07
-2.7833469e-08
5.8727401e-07
-3.5611296e-08
5.9664171e-07
-4.7225397e-08
6.1860087e-07
-4.2407722e-08
6.1263395e-07
3.5758833e-07
3.9782024e-08
2.6800915e-07
5.7818058e-08
5.9704016e-07
4.7113133e-08
6.4686314e-07
3.650265e-08
6.1627159e-07
2.9910392e-08
5.9870347e-07
2.4928575e-08
5.9087728e-07
2.0876476e-08
5.8582692e-07
1.7556031e-08
5.8214379e-07
1.481191e-08
5.7943949e-07
1.252077e-08
5.7742892e-07
1.058578e-08
5.7591396e-07
8.9310729e-09
5.7476093e-07
7.4971828e-09
5.7387661e-07
6.2370713e-09
5.7319537e-07
5.113121e-09
5.7267056e-07
4.0948334e-09
5.7226878e-07
3.1570213e-09
5.719661e-07
2.2783886e-09
5.7174549e-07
1.4403973e-09
5.7159518e-07
6.2633453e-10
5.7150751e-07
-1.7948918e-10
5.7147824e-07
-9.9246662e-10
5.7150617e-07
-1.828406e-09
5.7159307e-07
-2.7042727e-09
5.7174384e-07
-3.639012e-09
5.7196691e-07
-4.6545181e-09
5.7227511e-07
-5.7768173e-09
5.7268686e-07
-7.0375477e-09
5.7322808e-07
-8.4758192e-09
5.7393503e-07
-1.0140603e-08
5.7485858e-07
-1.2093887e-08
5.7607064e-07
-1.4414255e-08
5.7767352e-07
-1.7201131e-08
5.7981749e-07
-2.0582311e-08
5.82724e-07
-2.471959e-08
5.8669354e-07
-3.0009267e-08
5.9256369e-07
-3.802215e-08
6.0465459e-07
-4.7506223e-08
6.2808494e-07
-3.7601933e-08
6.0272966e-07
3.199864e-07
3.2238377e-08
2.3580634e-07
5.3786503e-08
5.7552108e-07
4.7623619e-08
6.5302593e-07
3.7634549e-08
6.2625635e-07
3.1121246e-08
6.0521605e-07
2.6290291e-08
5.9570834e-07
2.2296436e-08
5.8982081e-07
1.8952094e-08
5.8548814e-07
1.6137296e-08
5.8225429e-07
1.3748359e-08
5.7981786e-07
1.1700662e-08
5.7796166e-07
9.9264881e-09
5.7653511e-07
8.371403e-09
5.754317e-07
6.9912245e-09
5.7457555e-07
5.7497868e-09
5.73912e-07
4.6171404e-09
5.7340143e-07
3.5680806e-09
5.7301516e-07
2.5809485e-09
5.7273263e-07
1.6366403e-09
5.7253949e-07
7.1776527e-10
5.7242639e-07
-1.9209617e-10
5.7238811e-07
-1.1090738e-09
5.7242315e-07
-2.0496807e-09
5.7253368e-07
-3.0315079e-09
5.7272567e-07
-4.0739795e-09
5.7300939e-07
-5.1992219e-09
5.7340036e-07
-6.4330906e-09
5.7392073e-07
-7.8064169e-09
5.7460141e-07
-9.3565234e-09
5.7548514e-07
-1.1129089e-08
5.7663115e-07
-1.3180666e-08
5.7812222e-07
-1.5581762e-08
5.8007462e-07
-1.8419176e-08
5.8265491e-07
-2.1797788e-08
5.8610262e-07
-2.5863372e-08
5.9075913e-07
-3.1103168e-08
5.9780349e-07
-3.8843056e-08
6.1239448e-07
-4.5547635e-08
6.3478952e-07
-3.2206189e-08
5.8938822e-07
2.8778021e-07
2.5497691e-08
2.1035849e-07
4.8365108e-08
5.5270098e-07
4.6437101e-08
6.5495912e-07
3.7658313e-08
6.3502886e-07
3.1430227e-08
6.1144245e-07
2.6885208e-08
6.0025344e-07
2.3083079e-08
5.9362301e-07
1.9829114e-08
5.8874211e-07
1.7038607e-08
5.850448e-07
1.4630686e-08
5.8222578e-07
1.2535571e-08
5.8005678e-07
1.0695852e-08
5.7837483e-07
9.0640611e-09
5.770635e-07
7.6006593e-09
5.7603895e-07
6.2725151e-09
5.7524014e-07
5.0515869e-09
5.7462236e-07
3.9138061e-09
5.7415294e-07
2.8381336e-09
5.738083e-07
1.8057506e-09
5.7357188e-07
7.9934705e-10
5.734328e-07
-1.9751976e-10
5.7338498e-07
-1.2010249e-09
5.7342666e-07
-2.2276707e-09
5.7356033e-07
-3.294896e-09
5.737929e-07
-4.4217279e-09
5.7413622e-07
-5.6295116e-09
5.7460815e-07
-6.9427487e-09
5.7523397e-07
-8.390084e-09
5.7604875e-07
-1.0005477e-08
5.7710054e-07
-1.1829562e-08
5.7845523e-07
-1.3911424e-08
5.8020409e-07
-1.6310937e-08
5.8247413e-07
-1.9099251e-08
5.8544322e-07
-2.235585e-08
5.8935922e-07
-2.6215638e-08
5.9461892e-07
-3.1230776e-08
6.0281863e-07
-3.8277145e-08
6.1944086e-07
-4.2138776e-08
6.3865116e-07
-2.6837355e-08
5.740868e-07
2.6094286e-07
1.9813815e-08
1.906129e-07
4.2491485e-08
5.3009487e-07
4.4081744e-08
6.5338323e-07
3.6844896e-08
6.4225766e-07
3.1045726e-08
6.1723839e-07
2.6854049e-08
6.0444504e-07
2.3330549e-08
5.9714662e-07
2.0252256e-08
5.9182042e-07
1.7560614e-08
5.8773644e-07
1.5197811e-08
5.8458859e-07
1.3110052e-08
5.8214454e-07
1.1251332e-08
5.8023356e-07
9.5823027e-09
5.7873253e-07
8.069219e-09
5.7755204e-07
6.6830583e-09
5.7662631e-07
5.3986644e-09
5.7590676e-07
4.1939829e-09
5.7535763e-07
3.0493814e-09
5.7495291e-07
1.9470352e-09
5.7467423e-07
8.7036945e-10
5.7450947e-07
-1.9646081e-10
5.7445181e-07
-1.2690635e-09
5.7449927e-07
-2.3633027e-09
5.7465457e-07
-3.4957971e-09
5.7492539e-07
-4.6844461e-09
5.7532487e-07
-5.9490009e-09
5.758727e-07
-7.3116963e-09
5.7659667e-07
-8.7979641e-09
5.7753502e-07
-1.0437253e-08
5.7873983e-07
-1.2263904e-08
5.8028189e-07
-1.4318181e-08
5.8225837e-07
-1.6647724e-08
5.8480368e-07
-1.9306804e-08
5.8810231e-07
-2.2353107e-08
5.9240552e-07
-2.5923124e-08
5.9818894e-07
-3.0589227e-08
6.0748473e-07
-3.6660054e-08
6.2551169e-07
-3.7939287e-08
6.3993039e-07
-2.1847997e-08
5.5799551e-07
2.3909486e-07
1.5191262e-08
1.7551888e-07
3.670292e-08
5.0868648e-07
4.0994365e-08
6.4912007e-07
3.5432171e-08
6.4781074e-07
3.01666e-08
6.2249859e-07
2.6350245e-08
6.0826098e-07
2.314732e-08
6.0034972e-07
2.0298004e-08
5.9466977e-07
1.7757496e-08
5.9027695e-07
1.5488087e-08
5.86858e-07
1.3451061e-08
5.8418157e-07
1.1611629e-08
5.8207299e-07
9.9388759e-09
5.8040528e-07
8.4053921e-09
5.7908553e-07
6.9868801e-09
5.7804482e-07
5.6616992e-09
5.7723194e-07
4.4104247e-09
5.7660891e-07
3.2154156e-09
5.7614792e-07
2.0603967e-09
5.7582925e-07
9.3005671e-10
5.7563981e-07
-1.9033746e-10
5.7557221e-07
-1.315317e-09
5.7562425e-07
-2.459588e-09
5.7579885e-07
-3.6384094e-09
5.7610422e-07
-4.8679808e-09
5.7655445e-07
-6.1658481e-09
5.7717057e-07
-7.5513284e-09
5.7798216e-07
-9.0459565e-09
5.7902965e-07
-1.0673971e-08
5.8036785e-07
-1.2462794e-08
5.8207071e-07
-1.4443484e-08
5.8423906e-07
-1.6651423e-08
5.8701162e-07
-1.9124975e-08
5.9057586e-07
-2.1906202e-08
5.9518675e-07
-2.5140859e-08
6.014236e-07
-2.9363754e-08
6.1170763e-07
-3.4291193e-08
6.3043913e-07
-3.3391685e-08
6.3903089e-07
-1.7403282e-08
5.4200711e-07
2.2169158e-07
1.1528201e-08
1.6414087e-07
3.1292323e-08
4.8906861e-07
3.7502177e-08
6.429581e-07
3.3596445e-08
6.5170754e-07
2.8943776e-08
6.2714319e-07
2.5507445e-08
6.1169625e-07
2.2637862e-08
6.0321952e-07
2.0045168e-08
5.9726253e-07
1.7688168e-08
5.9263396e-07
1.5545227e-08
5.8900094e-07
1.3590811e-08
5.8613599e-07
1.1800315e-08
5.8386349e-07
1.0150877e-08
5.8205473e-07
8.6214165e-09
5.8061499e-07
7.1925596e-09
5.7947368e-07
5.8464947e-09
5.7857801e-07
4.5667951e-09
5.7788861e-07
3.338203e-09
5.7737651e-07
2.1463903e-09
5.7702107e-07
9.7770811e-10
5.768085e-07
-1.8106848e-10
5.7673099e-07
-1.3429963e-09
5.7678618e-07
-2.5212236e-09
5.7697708e-07
-3.7292434e-09
5.7731224e-07
-4.9811456e-09
5.7780636e-07
-6.2918614e-09
5.7848129e-07
-7.6773974e-09
5.7936769e-07
-9.1550457e-09
5.8050731e-07
-1.0743585e-08
5.8195639e-07
-1.2463462e-08
5.8379059e-07
-1.4336858e-08
5.8611246e-07
-1.6387728e-08
5.890625e-07
-1.8640261e-08
5.928284e-07
-2.1126024e-08
5.9767252e-07
-2.3999051e-08
6.0429663e-07
-2.7702984e-08
6.1541157e-07
-3.1419329e-08
6.3415548e-07
-2.8795336e-08
6.364069e-07
-1.3556268e-08
5.2676805e-07
2.0813532e-07
8.6814583e-09
1.5569457e-07
2.6406451e-08
4.7155055e-07
3.3850576e-08
6.3558885e-07
3.1477128e-08
6.5407412e-07
2.7489012e-08
6.3112012e-07
2.4432171e-08
6.1475105e-07
2.1892583e-08
6.0575932e-07
1.9566916e-08
5.995883e-07
1.7410886e-08
5.9479e-07
1.5414942e-08
5.9099689e-07
1.3564766e-08
5.8798617e-07
1.1844694e-08
5.8558356e-07
1.0239182e-08
5.8366024e-07
8.7331136e-09
5.8212106e-07
7.3119284e-09
5.8089487e-07
5.9616988e-09
5.7992824e-07
4.6691534e-09
5.7918116e-07
3.4216355e-09
5.7862404e-07
2.2070171e-09
5.7823569e-07
1.0135835e-09
5.7800193e-07
-1.7010057e-10
5.7791468e-07
-1.3553332e-09
5.7797142e-07
-2.5534218e-09
5.7817517e-07
-3.7758198e-09
5.7853464e-07
-5.0342504e-09
5.7906479e-07
-6.3408072e-09
5.7978785e-07
-7.7080208e-09
5.8073491e-07
-9.1488749e-09
5.8194816e-07
-1.0676775e-08
5.8348429e-07
-1.2305491e-08
5.8541931e-07
-1.4048954e-08
5.8785593e-07
-1.5920719e-08
5.9093426e-07
-1.7932654e-08
5.9484034e-07
-2.0109405e-08
5.9984927e-07
-2.2606072e-08
6.067933e-07
-2.5737011e-08
6.1854251e-07
-2.8258993e-08
6.3667746e-07
-2.4354455e-08
6.3250237e-07
-1.0291037e-08
5.1270463e-07
1.9784429e-07
6.4949384e-09
1.495409e-07
2.2089885e-08
4.5624687e-07
3.0212678e-08
6.27578e-07
2.9190222e-08
6.5509438e-07
2.5891245e-08
6.3440453e-07
2.3211024e-08
6.1742783e-07
2.098887e-08
6.079816e-07
1.8928961e-08
6.0164837e-07
1.6980566e-08
5.9673841e-07
1.5142484e-08
5.9283497e-07
1.3409784e-08
5.8971888e-07
1.177453e-08
5.8721882e-07
1.022766e-08
5.8520712e-07
8.7594891e-09
5.8358924e-07
7.359974e-09
5.8229439e-07
6.0189508e-09
5.8126927e-07
4.7263017e-09
5.8047381e-07
3.4720484e-09
5.7987829e-07
2.2463915e-09
5.7946135e-07
1.0397103e-09
5.7920862e-07
-1.5746494e-10
5.7911186e-07
-1.354493e-09
5.7916845e-07
-2.5606657e-09
5.7938135e-07
-3.7852399e-09
5.7975922e-07
-5.0374482e-09
5.80317e-07
-6.3264756e-09
5.8107689e-07
-7.6613868e-09
5.8206983e-07
-9.0509863e-09
5.8333777e-07
-1.0503601e-08
5.8493691e-07
-1.2026827e-08
5.8694254e-07
-1.3627106e-08
5.8945621e-07
-1.5308743e-08
5.9261591e-07
-1.7073307e-08
5.966049e-07
-1.894083e-08
6.017168e-07
-2.1056878e-08
6.0890935e-07
-2.3585598e-08
6.2107123e-07
-2.4989343e-08
6.3808121e-07
-2.019798e-08
6.2771101e-07
-7.5534275e-09
5.0006009e-07
1.9029088e-07
4.8209082e-09
1.4516306e-07
1.8322807e-08
4.4314566e-07
2.6698706e-08
6.1936371e-07
2.6828238e-08
6.5497056e-07
2.4221453e-08
6.3699305e-07
2.1913944e-08
6.1972998e-07
1.999179e-08
6.0990367e-07
1.8188293e-08
6.0345208e-07
1.6446172e-08
5.9848057e-07
1.476941e-08
5.9451174e-07
1.3160732e-08
5.9132756e-07
1.1618788e-08
5.8876077e-07
1.014015e-08
5.8668576e-07
8.719968e-09
5.8500943e-07
7.3523327e-09
5.8366203e-07
6.0306182e-09
5.8259099e-07
4.7477507e-09
5.8175668e-07
3.4964041e-09
5.8112965e-07
2.2691385e-09
5.8068862e-07
1.0584932e-09
5.8041927e-07
-1.4295029e-10
5.803133e-07
-1.3425205e-09
5.8036802e-07
-2.5474113e-09
5.8058624e-07
-3.7646222e-09
5.8097644e-07
-5.000875e-09
5.8155326e-07
-6.2624867e-09
5.823385e-07
-7.5551853e-09
5.8336253e-07
-8.8838488e-09
5.8466644e-07
-1.0252149e-08
5.8630522e-07
-1.1662135e-08
5.8835253e-07
-1.3113648e-08
5.9090773e-07
-1.4603063e-08
5.9410533e-07
-1.6123752e-08
5.981256e-07
-1.7692246e-08
6.032853e-07
-1.9433255e-08
6.1065037e-07
-2.1355251e-08
6.2299323e-07
-2.1753629e-08
6.3847959e-07
-1.6404245e-08
6.2236163e-07
-5.2819168e-09
4.8893776e-07
1.8500896e-07
3.5357063e-09
1.4214641e-07
1.5057978e-08
4.3215469e-07
2.3374926e-08
6.1127167e-07
2.4461473e-08
6.5390125e-07
2.2532023e-08
6.3890023e-07
2.0592045e-08
6.216621e-07
1.8950667e-08
6.1154461e-07
1.7389108e-08
6.0501391e-07
1.5846098e-08
6.0002364e-07
1.4328486e-08
5.9602935e-07
1.284508e-08
5.9281097e-07
1.1400077e-08
5.9020578e-07
9.994882e-09
5.8809096e-07
8.6288841e-09
5.8637543e-07
7.2998919e-09
5.8499103e-07
6.0045374e-09
5.8388635e-07
4.7386153e-09
5.8302261e-07
3.4973537e-09
5.8237091e-07
2.2756281e-09
5.8191035e-07
1.0681284e-09
5.8162677e-07
-1.3050153e-10
5.8151194e-07
-1.3255442e-09
5.8156307e-07
-2.5220877e-09
5.8178279e-07
-3.7248897e-09
5.8217924e-07
-4.9382157e-09
5.8276659e-07
-6.1656293e-09
5.8356592e-07
-7.4097214e-09
5.8460663e-07
-8.6717609e-09
5.8592848e-07
-9.9512443e-09
5.875847e-07
-1.1245357e-08
5.8964665e-07
-1.2548273e-08
5.9221065e-07
-1.3849831e-08
5.9540689e-07
-1.5137182e-08
5.9941295e-07
-1.642352e-08
6.0457164e-07
-1.7803797e-08
6.1203065e-07
-1.9139342e-08
6.2432878e-07
-1.8669378e-08
6.3800964e-07
-1.3029945e-08
6.167222e-07
-3.4314575e-09
4.7933928e-07
1.815775e-07
2.5464658e-09
1.4016324e-07
1.2247433e-08
4.2313056e-07
2.028628e-08
6.0353384e-07
2.2145163e-08
6.5207512e-07
2.0859416e-08
6.4015966e-07
1.927811e-08
6.2323252e-07
1.7897986e-08
6.1292378e-07
1.6561038e-08
6.0635118e-07
1.5205979e-08
6.0137879e-07
1.3841062e-08
5.9739427e-07
1.2479863e-08
5.9417217e-07
1.1131259e-08
5.9155438e-07
9.8008028e-09
5.8942142e-07
8.4915827e-09
5.8768465e-07
7.20472e-09
5.8627789e-07
5.9398075e-09
5.8515126e-07
4.6952962e-09
5.8426712e-07
3.4688202e-09
5.8359739e-07
2.2574676e-09
5.831217e-07
1.058008e-09
5.8282623e-07
-1.3290652e-10
5.8270285e-07
-1.3185609e-09
5.8274873e-07
-2.5019936e-09
5.8296623e-07
-3.6857963e-09
5.8336305e-07
-4.8718882e-09
5.8395268e-07
-6.0612406e-09
5.8475527e-07
-7.253541e-09
5.8579893e-07
-8.4467785e-09
5.8712172e-07
-9.6367365e-09
5.8877466e-07
-1.0816376e-08
5.9082629e-07
-1.1975044e-08
5.9336932e-07
-1.3097311e-08
5.9652916e-07
-1.4165803e-08
6.0048145e-07
-1.5190103e-08
6.0559594e-07
-1.623145e-08
6.13072e-07
-1.7025265e-08
6.251226e-07
-1.5840766e-08
6.3682514e-07
-1.0127629e-08
6.1100907e-07
-1.981172e-09
4.7119283e-07
1.7959632e-07
1.7889966e-09
1.389562e-07
9.855422e-09
4.1589541e-07
1.7473631e-08
5.963037e-07
1.9931693e-08
6.4967016e-07
1.9235872e-08
6.4082629e-07
1.7997854e-08
6.2445658e-07
1.685935e-08
6.1406068e-07
1.5728116e-08
6.0748275e-07
1.4546833e-08
6.0256018e-07
1.3324447e-08
5.9861667e-07
1.2078357e-08
5.9541825e-07
1.0821502e-08
5.9281123e-07
9.5630546e-09
5.9067986e-07
8.3093692e-09
5.8893833e-07
7.0645209e-09
5.8752274e-07
5.830773e-09
5.8638501e-07
4.6090005e-09
5.8548889e-07
3.3990567e-09
5.8480733e-07
2.2000908e-09
5.8432067e-07
1.0108242e-09
5.840155e-07
-1.7019786e-10
5.8388387e-07
-1.3443734e-09
5.839229e-07
-2.512808e-09
5.8413466e-07
-3.6760618e-09
5.845263e-07
-4.8338686e-09
5.8511049e-07
-5.9848077e-09
5.8590621e-07
-7.125915e-09
5.8694004e-07
-8.252218e-09
5.8824802e-07
-9.3561889e-09
5.8987863e-07
-1.0427085e-08
5.9189719e-07
-1.1450075e-08
5.9439231e-07
-1.2405398e-08
5.9748448e-07
-1.3272439e-08
6.0134849e-07
-1.4056837e-08
6.0638034e-07
-1.4787329e-08
6.1380249e-07
-1.5103988e-08
6.2543926e-07
-1.3363757e-08
6.3508491e-07
-7.7405212e-09
6.0538584e-07
-9.2482234e-10
4.6437713e-07
1.7867149e-07
1.2204712e-09
1.3831952e-07
7.8613536e-09
4.1024127e-07
1.4986295e-08
5.8966269e-07
1.788737e-08
6.4684874e-07
1.7711232e-08
6.409735e-07
1.6793465e-08
6.2535807e-07
1.5876178e-08
6.1497566e-07
1.4930215e-08
6.0842899e-07
1.3905303e-08
6.0358522e-07
1.2811114e-08
5.9971086e-07
1.1668424e-08
5.9656094e-07
1.0493874e-08
5.9398578e-07
9.299927e-09
5.9187381e-07
8.0958777e-09
5.9014238e-07
6.8884493e-09
5.8873017e-07
5.6822973e-09
5.8759116e-07
4.4804716e-09
5.8669072e-07
3.2848228e-09
5.8600298e-07
2.0963608e-09
5.8550913e-07
9.15574e-10
5.8519629e-07
-2.5727607e-10
5.8505672e-07
-1.421877e-09
5.850875e-07
-2.5775861e-09
5.8529037e-07
-3.723132e-09
5.8567185e-07
-4.8562879e-09
5.8624365e-07
-5.9734958e-09
5.8702342e-07
-7.0694315e-09
5.8803597e-07
-8.1364922e-09
5.8931508e-07
-9.164205e-09
5.9090635e-07
-1.0138539e-08
5.9287152e-07
-1.1040956e-08
5.9529472e-07
-1.1847893e-08
5.9829142e-07
-1.2536185e-08
6.0203678e-07
-1.3107079e-08
6.0695124e-07
-1.3560386e-08
6.142558e-07
-1.3473129e-08
6.25352e-07
-1.1320772e-08
6.3293255e-07
-5.8851612e-09
5.9995023e-07
-2.4787648e-10
4.5873985e-07
1.784236e-07
8.1198481e-10
1.3808219e-07
6.2568069e-09
4.0592532e-07
1.2886106e-08
5.8361842e-07
1.6105499e-08
6.4374257e-07
1.6374495e-08
6.4068064e-07
1.5747991e-08
6.2596755e-07
1.5029254e-08
6.1569145e-07
1.4245137e-08
6.0921322e-07
1.3354608e-08
6.0447587e-07
1.236888e-08
6.0069661e-07
1.1312174e-08
5.9761766e-07
1.0204718e-08
5.9509325e-07
9.0620653e-09
5.9301647e-07
7.896198e-09
5.9130826e-07
6.7162033e-09
5.8991017e-07
5.5288421e-09
5.8877853e-07
4.3390615e-09
5.8788051e-07
3.150445e-09
5.8719161e-07
1.9656117e-09
5.8669398e-07
7.8657467e-10
5.8637534e-07
-3.8492879e-10
5.8622824e-07
-1.5471214e-09
5.8624971e-07
-2.6978691e-09
5.8644113e-07
-3.8343477e-09
5.8680834e-07
-4.9526757e-09
5.8736199e-07
-6.0474975e-09
5.8811825e-07
-7.1115032e-09
5.8909999e-07
-8.1348677e-09
5.9033846e-07
-9.1045948e-09
5.9187609e-07
-1.0003787e-08
5.9377072e-07
-1.0810617e-08
5.9610156e-07
-1.1497992e-08
5.989788e-07
-1.2040199e-08
6.02579e-07
-1.243293e-08
6.0734397e-07
-1.2648328e-08
6.144712e-07
-1.2223438e-08
6.2492711e-07
-9.7625295e-09
6.3047165e-07
-4.5334502e-09
5.9472115e-07
1.4529215e-10
4.5406112e-07
1.7856889e-07
5.4348805e-10
1.3809651e-07
5.0369384e-09
4.0266876e-07
1.1234855e-08
5.7810506e-07
1.4698864e-08
6.404308e-07
1.5353117e-08
6.4001198e-07
1.4987713e-08
6.2631672e-07
1.4440905e-08
6.1623477e-07
1.3789996e-08
6.0986399e-07
1.3005739e-08
6.0526021e-07
1.2102431e-08
6.0159996e-07
1.1108124e-08
5.9861199e-07
1.0046608e-08
5.9615479e-07
8.9363561e-09
5.9412675e-07
7.7917604e-09
5.9245288e-07
6.6239501e-09
5.9107801e-07
5.4414604e-09
5.8996105e-07
4.2508097e-09
5.8907119e-07
3.0570008e-09
5.8838544e-07
1.8639602e-09
5.8788704e-07
6.7492987e-10
5.8756439e-07
-5.0717258e-10
5.8741037e-07
-1.6794108e-09
5.8742197e-07
-2.8384835e-09
5.8760023e-07
-3.9803665e-09
5.8795025e-07
-5.0999152e-09
5.8848156e-07
-6.1904149e-09
5.8920878e-07
-7.2430588e-09
5.9015266e-07
-8.2463393e-09
5.9134176e-07
-9.1853104e-09
5.9281508e-07
-1.0040769e-08
5.9462621e-07
-1.0788159e-08
5.9684898e-07
-1.1397168e-08
5.9958783e-07
-1.1838955e-08
6.030208e-07
-1.2100859e-08
6.076059e-07
-1.2122423e-08
6.1449278e-07
-1.1407011e-08
6.2421172e-07
-8.6882067e-09
6.2775286e-07
-3.6340474e-09
5.8966701e-07
2.7492278e-10
4.5015217e-07
1.7884381e-07
3.9997316e-10
1.3823292e-07
4.1850531e-09
4.0017565e-07
1.0062486e-08
5.7299939e-07
1.375986e-08
6.3692526e-07
1.4772288e-08
6.3899558e-07
1.4644099e-08
6.2642958e-07
1.4238979e-08
6.1663574e-07
1.3686752e-08
6.1041575e-07
1.2974876e-08
6.0597213e-07
1.2122847e-08
6.0245204e-07
1.1162889e-08
5.9957199e-07
1.0122225e-08
5.9719549e-07
9.0219562e-09
5.9522706e-07
7.8784953e-09
5.9359638e-07
6.7046024e-09
5.9225194e-07
5.5101866e-09
5.9115551e-07
4.3029575e-09
5.9027846e-07
3.0889799e-09
5.8959946e-07
1.8731497e-09
5.8910292e-07
6.5961097e-10
5.8877797e-07
-5.4786491e-10
5.8861788e-07
-1.74552e-09
5.8861967e-07
-2.929246e-09
5.8878399e-07
-4.0942137e-09
5.8911525e-07
-5.2344603e-09
5.8962185e-07
-6.3424193e-09
5.9031678e-07
-7.4083674e-09
5.9121865e-07
-8.4197723e-09
5.9235321e-07
-9.360474e-09
5.9375582e-07
-1.0209724e-08
5.954755e-07
-1.0941014e-08
5.975803e-07
-1.1521404e-08
6.0016826e-07
-1.1917945e-08
6.0341738e-07
-1.210451e-08
6.077925e-07
-1.1976048e-08
6.1436435e-07
-1.0993169e-08
6.2322887e-07
-8.0194737e-09
6.2477919e-07
-3.0800792e-09
5.8472764e-07
2.3802401e-10
4.4683408e-07
1.7908183e-07
3.6311201e-10
1.3838439e-07
3.6552937e-09
3.9817223e-07
9.3297638e-09
5.6815931e-07
1.3299781e-08
6.3317987e-07
1.4682349e-08
6.3761506e-07
1.478193e-08
6.2631313e-07
1.4489549e-08
6.1692265e-07
1.3999502e-08
6.1090499e-07
1.3324739e-08
6.0664691e-07
1.2492537e-08
6.0328431e-07
1.1539329e-08
6.0052526e-07
1.0495395e-08
5.9823948e-07
9.3839775e-09
5.9633853e-07
8.2229916e-09
5.9475742e-07
7.0263368e-09
5.9344864e-07
5.804845e-09
5.9237705e-07
4.5670109e-09
5.9151634e-07
3.3195952e-09
5.9084692e-07
2.0681263e-09
5.9035443e-07
8.1733177e-10
5.9002881e-07
-4.2847514e-10
5.8986374e-07
-1.6650346e-09
5.8985627e-07
-2.8877715e-09
5.9000678e-07
-4.0914272e-09
5.9031895e-07
-5.2696462e-09
5.9080011e-07
-6.4145029e-09
5.9146168e-07
-7.5159326e-09
5.9232012e-07
-8.5610466e-09
5.9339837e-07
-9.5332458e-09
5.9472807e-07
-1.0411083e-08
5.9635338e-07
-1.1166972e-08
5.9833624e-07
-1.1766083e-08
6.0076741e-07
-1.21701e-08
6.0382144e-07
-1.2332393e-08
6.0795484e-07
-1.2088024e-08
6.1412003e-07
-1.0841749e-08
6.2198263e-07
-7.5987773e-09
6.2153626e-07
-2.7382623e-09
5.7986716e-07
1.1987623e-10
4.4397595e-07
1.792017e-07
4.0276561e-10
1.3847799e-07
3.3658696e-09
3.9644926e-07
8.9119102e-09
5.6347749e-07
1.320396e-08
6.2913165e-07
1.4993778e-08
6.3582436e-07
1.5330482e-08
6.259533e-07
1.5132511e-08
6.1711264e-07
1.4675587e-08
6.1136072e-07
1.4010079e-08
6.0731247e-07
1.317407e-08
6.0412042e-07
1.2207991e-08
6.0149139e-07
1.1144599e-08
5.9930291e-07
1.0008688e-08
5.9747448e-07
8.8191272e-09
5.9594701e-07
7.5904703e-09
5.9467734e-07
6.334051e-09
5.936335e-07
5.0587875e-09
5.9279164e-07
3.7718224e-09
5.9213392e-07
2.4790386e-09
5.9164725e-07
1.185493e-09
5.9132239e-07
-1.0420207e-10
5.9115347e-07
-1.3855266e-09
5.9113763e-07
-2.6536938e-09
5.9127498e-07
-3.9032939e-09
5.9156859e-07
-5.1278949e-09
5.9202475e-07
-6.3195781e-09
5.926534e-07
-7.4683708e-09
5.9346895e-07
-8.5615358e-09
5.9449157e-07
-9.582634e-09
5.957492e-07
-1.05102e-08
5.9728098e-07
-1.1316244e-08
5.9914232e-07
-1.1964548e-08
6.0141576e-07
-1.2409955e-08
6.0426689e-07
-1.2578473e-08
6.0812339e-07
-1.223485e-08
6.1377645e-07
-1.0727246e-08
6.2047507e-07
-7.2283239e-09
6.1803738e-07
-2.4802026e-09
5.7511907e-07
-2.7295451e-13
4.4149601e-07
1.7920142e-07
4.8051799e-10
1.3848137e-07
3.2117836e-09
3.9488863e-07
8.6231437e-09
5.5892778e-07
1.324127e-08
6.2476035e-07
1.5467749e-08
6.3358451e-07
1.6065065e-08
6.2532171e-07
1.5962794e-08
6.1720306e-07
1.5528884e-08
6.1179299e-07
1.4862439e-08
6.0797908e-07
1.4015538e-08
6.0496744e-07
1.3032488e-08
6.0247447e-07
1.1947982e-08
6.0038743e-07
1.0787887e-08
5.9863459e-07
9.5716289e-09
5.9716329e-07
8.314082e-09
5.959349e-07
7.0268024e-09
5.9492079e-07
5.7189031e-09
5.9409955e-07
4.3977188e-09
5.9345512e-07
3.0693273e-09
5.9297565e-07
1.7389768e-09
5.9265275e-07
4.1145376e-10
5.92481e-07
-9.0857765e-10
5.9245767e-07
-2.2162361e-09
5.9258265e-07
-3.5060829e-09
5.9285845e-07
-4.7717438e-09
5.9329042e-07
-6.0054594e-09
5.9388712e-07
-7.197525e-09
5.9466103e-07
-8.3355592e-09
5.9562961e-07
-9.4035169e-09
5.9681717e-07
-1.0380192e-08
5.9825767e-07
-1.1237394e-08
5.9999954e-07
-1.1937473e-08
6.0211585e-07
-1.2427089e-08
6.0475652e-07
-1.2601382e-08
6.0829771e-07
-1.2157662e-08
6.1333275e-07
-1.0410448e-08
6.1872789e-07
-6.7321604e-09
6.1435912e-07
-2.2128541e-09
5.7059977e-07
-1.0352566e-10
4.3938667e-07
1.7909789e-07
5.5874127e-10
1.3839969e-07
3.0915831e-09
3.9346007e-07
8.2761302e-09
5.5457949e-07
1.3136205e-08
6.2013746e-07
1.5782733e-08
6.3090706e-07
1.6663088e-08
6.2439367e-07
1.6679088e-08
6.1717062e-07
1.6283894e-08
6.1218604e-07
1.563038e-08
6.0863289e-07
1.4787115e-08
6.0581087e-07
1.3802495e-08
6.0345911e-07
1.2712922e-08
6.0147699e-07
1.154517e-08
5.9980232e-07
1.0319124e-08
5.9838932e-07
9.0499102e-09
5.972041e-07
7.7492569e-09
5.9622143e-07
6.4264395e-09
5.9542235e-07
5.0889664e-09
5.9479258e-07
3.7431029e-09
5.943215e-07
2.3942918e-09
5.9400155e-07
1.0475088e-09
5.9382777e-07
-2.9241324e-10
5.9379758e-07
-1.6204634e-09
5.9391068e-07
-2.9311255e-09
5.9416909e-07
-4.2180189e-09
5.9457729e-07
-5.4734605e-09
5.9514255e-07
-6.6879081e-09
5.9587546e-07
-7.8492028e-09
5.9679089e-07
-8.9415219e-09
5.9790947e-07
-9.9437349e-09
5.9925987e-07
-1.0827173e-08
6.0088296e-07
-1.155224e-08
6.0284091e-07
-1.2056921e-08
6.0526119e-07
-1.2208008e-08
6.0844879e-07
-1.1654944e-08
6.1277968e-07
-9.7239505e-09
6.1679689e-07
-6.0107616e-09
6.1064593e-07
-1.8811933e-09
5.664702e-07
-1.4945165e-10
4.376549e-07
1.7894843e-07
6.1009104e-10
1.3826367e-07
2.9348575e-09
3.921903e-07
7.7464283e-09
5.505698e-07
1.2670661e-08
6.1543646e-07
1.5650509e-08
6.2788132e-07
1.6814895e-08
6.2317052e-07
1.6983458e-08
6.1698164e-07
1.6664968e-08
6.1250189e-07
1.6060261e-08
6.0923801e-07
1.5254755e-08
6.0661656e-07
1.4301321e-08
6.0441253e-07
1.3238188e-08
6.0254009e-07
1.2093201e-08
6.0094727e-07
1.088692e-08
5.9959556e-07
9.6349217e-09
5.9845606e-07
8.3492874e-09
5.9750703e-07
7.0396141e-09
5.9673198e-07
5.7137271e-09
5.9611842e-07
4.3782126e-09
5.9565697e-07
3.0388372e-09
5.9534088e-07
1.7008977e-09
5.9516567e-07
3.6953598e-10
5.951289e-07
-9.4995178e-10
5.9523013e-07
-2.2517923e-09
5.9547089e-07
-3.5293872e-09
5.9585485e-07
-4.7748758e-09
5.96388e-07
-5.9785716e-09
5.9707911e-07
-7.1281748e-09
5.9794046e-07
-8.2076558e-09
5.9898892e-07
-9.1955034e-09
6.0024768e-07
-1.0062102e-08
6.0174952e-07
-1.0765461e-08
6.0354423e-07
-1.123602e-08
6.0573172e-07
-1.1321395e-08
6.0853412e-07
-1.0655615e-08
6.1211387e-07
-8.6310161e-09
6.1477227e-07
-5.0688511e-09
6.0708374e-07
-1.4869418e-09
5.6288826e-07
-1.4375775e-10
4.363117e-07
1.7880467e-07
6.234113e-10
1.3811289e-07
2.7168692e-09
3.9112134e-07
7.008664e-09
5.4704787e-07
1.1762504e-08
6.1089628e-07
1.4922683e-08
6.2466981e-07
1.6335271e-08
6.2169454e-07
1.6684775e-08
6.1660969e-07
1.6489165e-08
6.1269449e-07
1.5980047e-08
6.0974757e-07
1.5256685e-08
6.0734013e-07
1.4376355e-08