/*--------------------------------*- C++ -*----------------------------------*\
  =========                 |
  \\      /  F ield         | OpenFOAM: The Open Source CFD Toolbox
   \\    /   O peration     | Website:  https://openfoam.org
    \\  /    A nd           | Version:  10
     \\/     M anipulation  |
\*---------------------------------------------------------------------------*/
FoamFile
{
    format      ascii;
    class       volScalarField;
    location    "0.05";
    object      TporMedia;
}
// * * * * * * * * * * * * * * * * * * * * * * * * * * * * * * * * * * * * * //

dimensions      [0 0 0 1 0 0 0];

internalField   nonuniform List<scalar> 
4000
(
-4.2242856e-07
2.1798544e-07
-1.354878e-05
-1.5498883e-05
-2.9254441e-05
-2.5389717e-05
-2.5280262e-05
-2.5076733e-05
-2.4885033e-05
-2.4220182e-05
-2.3987393e-05
-2.3745957e-05
-2.3857714e-05
-2.4088017e-05
-2.3494294e-05
-2.3390061e-05
-2.3152939e-05
-2.3199546e-05
-2.3183991e-05
-2.3361892e-05
-2.3229792e-05
-2.3292371e-05
-2.3398193e-05
-2.3319472e-05
-2.3539296e-05
-2.3662404e-05
-2.3764164e-05
-2.361797e-05
-2.4051752e-05
-2.4590641e-05
-2.4655115e-05
-2.512454e-05
-2.4779456e-05
-2.5535216e-05
-2.6656863e-05
-2.6724918e-05
-2.6904809e-05
-2.7558096e-05
-2.8463748e-05
-2.9268356e-05
-3.7356757e-08
2.4290466e-17
-5.1306012e-15
1.3349551e-13
5.7408518e-13
1.1138491e-12
1.0253014e-12
1.0188386e-12
9.901328e-13
9.6913349e-13
9.2895466e-13
9.4556929e-13
9.1276652e-13
9.2184154e-13
8.9018732e-13
8.8653956e-13
8.7063426e-13
8.931387e-13
8.8605974e-13
8.8362062e-13
8.594359e-13
8.860513e-13
8.8515341e-13
9.029354e-13
9.0271092e-13
9.0509172e-13
9.1401218e-13
9.2477606e-13
9.5971861e-13
9.6832984e-13
1.0075522e-12
1.0205296e-12
1.0162335e-12
1.0972558e-12
1.1460048e-12
1.1446549e-12
1.2040816e-12
1.2588951e-12
1.3514379e-12
1.376819e-12
-1.4585299e-08
-5.5752036e-18
-5.2695198e-25
2.0329412e-22
-2.7887927e-21
-2.9381735e-20
-4.3807669e-20
-4.0990001e-20
-3.8332585e-20
-3.8155647e-20
-3.5678066e-20
-3.6183422e-20
-3.4380194e-20
-3.437474e-20
-3.3140784e-20
-3.2466275e-20
-3.1921029e-20
-3.2976348e-20
-3.2671943e-20
-3.2318063e-20
-3.0922172e-20
-3.2375832e-20
-3.2449402e-20
-3.3866219e-20
-3.3886783e-20
-3.3628755e-20
-3.3752932e-20
-3.5155575e-20
-3.6154411e-20
-3.67708e-20
-3.7955848e-20
-4.0063565e-20
-4.0376777e-20
-4.4624858e-20
-4.7687705e-20
-4.8209195e-20
-5.2270604e-20
-5.5674993e-20
-6.1714614e-20
-6.4254881e-20
-7.5227145e-09
3.5715444e-19
1.8322899e-29
5.0210505e-32
7.4029145e-30
2.3383902e-28
1.7495051e-27
1.612488e-27
1.4280753e-27
1.4340329e-27
1.3198082e-27
1.3142823e-27
1.2433421e-27
1.2653004e-27
1.19996e-27
1.1600756e-27
1.1547553e-27
1.1864093e-27
1.1430232e-27
1.1421112e-27
1.1334955e-27
1.1321472e-27
1.1803199e-27
1.21562e-27
1.2250094e-27
1.2205063e-27
1.2436208e-27
1.2513375e-27
1.3443164e-27
1.3771691e-27
1.4231119e-27
1.5158813e-27
1.5781947e-27
1.7541049e-27
1.9152462e-27
1.9559215e-27
2.2275221e-27
2.4254409e-27
2.8111348e-27
2.8779422e-27
-4.5176949e-09
6.3027755e-20
2.373619e-30
2.0454553e-40
3.3250548e-36
-6.5760483e-37
-3.7763472e-35
-6.5581327e-35
-5.2632419e-35
-5.2036881e-35
-4.8120177e-35
-4.6562264e-35
-4.3492151e-35
-4.3642704e-35
-4.1700571e-35
-4.1210167e-35
-3.9934854e-35
-4.2164893e-35
-3.9220338e-35
-4.0057209e-35
-3.9289246e-35
-3.9400386e-35
-4.0849277e-35
-4.222469e-35
-4.3410516e-35
-4.2590687e-35
-4.3037003e-35
-4.4231484e-35
-4.8878629e-35
-4.9875483e-35
-5.2516504e-35
-5.5479118e-35
-5.8161131e-35
-6.653237e-35
-7.5126099e-35
-7.7278035e-35
-8.9842274e-35
-1.0322945e-34
-1.2503631e-34
-1.2562565e-34
-2.9628053e-09
1.8966768e-20
8.151905e-31
3.2802818e-41
1.6502803e-45
9.1543211e-46
2.971234e-43
2.8584056e-42
1.9565676e-42
1.8251411e-42
1.6645323e-42
1.597109e-42
1.5028493e-42
1.4632291e-42
1.4033761e-42
1.410651e-42
1.341185e-42
1.4206787e-42
1.3114516e-42
1.3257539e-42
1.3200377e-42
1.3141531e-42
1.3802929e-42
1.4199988e-42
1.4389027e-42
1.4298595e-42
1.4443705e-42
1.4975879e-42
1.6861242e-42
1.7280872e-42
1.8374586e-42
1.9516069e-42
2.0947081e-42
2.4878839e-42
2.8278376e-42
2.9918238e-42
3.5931263e-42
4.2924569e-42
5.1220014e-42
5.2369591e-42
-2.0433261e-09
7.2441803e-21
8.9671119e-30
2.1247425e-40
3.0063645e-50
-9.0509795e-55
-9.1828105e-52
-9.1878378e-50
-7.6343742e-50
-6.1597477e-50
-5.4697444e-50
-5.2021945e-50
-4.8958559e-50
-4.7380081e-50
-4.5783443e-50
-4.5570462e-50
-4.2235505e-50
-4.6822885e-50
-4.1976605e-50
-4.2211785e-50
-4.2218773e-50
-4.253403e-50
-4.4669725e-50
-4.5028595e-50
-4.6983752e-50
-4.6266327e-50
-4.785619e-50
-4.8860111e-50
-5.4922761e-50
-5.7144774e-50
-6.1506444e-50
-6.6879226e-50
-7.2215521e-50
-8.7625554e-50
-1.0211203e-49
-1.0923152e-49
-1.3784762e-49
-1.6793156e-49
-2.0881879e-49
-2.0183893e-49
-1.4620811e-09
3.1947769e-21
-6.3418292e-32
-1.0338491e-42
-6.2379067e-53
8.1116203e-62
1.3580989e-60
1.341221e-57
3.4114919e-57
2.0408429e-57
1.71776e-57
1.6087531e-57
1.5310442e-57
1.471701e-57
1.3963312e-57
1.4093062e-57
1.3002262e-57
1.4536954e-57
1.2937574e-57
1.3082224e-57
1.3139772e-57
1.2990363e-57
1.3903223e-57
1.3731356e-57
1.4198967e-57
1.4389394e-57
1.4735325e-57
1.5195506e-57
1.7422503e-57
1.8003071e-57
1.9469623e-57
2.1590807e-57
2.3550294e-57
2.9874499e-57
3.4359439e-57
3.7525806e-57
5.0185891e-57
6.2541769e-57
7.9365437e-57
7.3310137e-57
-1.0723796e-09
1.5513605e-21
-1.1089806e-32
-1.4165083e-43
-4.4786764e-54
-6.6619803e-63
-1.1492807e-69
-8.063894e-66
-1.6275034e-64
-6.7061148e-65
-5.314547e-65
-4.8600675e-65
-4.6080295e-65
-4.4852742e-65
-4.2047225e-65
-4.2285402e-65
-3.8498313e-65
-4.265834e-65
-3.8177169e-65
-3.8310751e-65
-3.8101502e-65
-3.8524052e-65
-4.1041712e-65
-4.093452e-65
-4.215134e-65
-4.195496e-65
-4.320068e-65
-4.47494e-65
-5.1884766e-65
-5.3868527e-65
-5.9483815e-65
-6.7602983e-65
-7.3744238e-65
-9.4936346e-65
-1.1425756e-64
-1.2473259e-64
-1.779174e-64
-2.2095646e-64
-2.7795669e-64
-2.8095326e-64
-7.6489906e-10
7.6818867e-22
-2.7814981e-33
-3.1528505e-44
-5.9816252e-55
-1.4326801e-64
8.2703099e-74
2.245058e-74
6.2991789e-72
2.4712963e-72
1.584279e-72
1.4089585e-72
1.3604435e-72
1.2992087e-72
1.211928e-72
1.2248251e-72
1.1011145e-72
1.2260948e-72
1.1000397e-72
1.0962376e-72
1.0950066e-72
1.1056913e-72
1.1928516e-72
1.1646966e-72
1.2169099e-72
1.2109958e-72
1.2448582e-72
1.3037389e-72
1.5105749e-72
1.5686502e-72
1.7557476e-72
2.0124365e-72
2.2190135e-72
2.915196e-72
3.5921337e-72
3.9726209e-72
5.9547757e-72
7.2454934e-72
9.3202244e-72
9.3901378e-72
-5.0497276e-10
3.600042e-22
-7.696067e-34
-8.9604639e-45
-1.1285692e-55
-1.070929e-65
4.9867003e-75
-4.1017948e-83
-1.3302647e-79
-1.0373395e-79
-4.6581921e-80
-3.9883019e-80
-3.8239228e-80
-3.6898265e-80
-3.4143551e-80
-3.4161229e-80
-3.0778004e-80
-3.4801281e-80
-3.0883128e-80
-2.9886732e-80
-2.9847554e-80
-3.0836744e-80
-3.2899691e-80
-3.1863397e-80
-3.353332e-80
-3.3952127e-80
-3.438827e-80
-3.6869025e-80
-4.2982158e-80
-4.4596062e-80
-5.0239223e-80
-5.7542187e-80
-6.5118539e-80
-8.5182885e-80
-1.0923255e-79
-1.2416644e-79
-1.89156e-79
-2.2525304e-79
-2.7457929e-79
-1.6345153e-79
-3.23275e-10
1.6412912e-22
-2.2512668e-34
-3.4494069e-45
-3.1269408e-56
-1.5318008e-66
7.2303573e-76
-6.6337293e-85
1.3024917e-87
4.7612965e-87
1.2893461e-87
1.0437508e-87
9.8821132e-88
9.431974e-88
8.7046502e-88
8.5962416e-88
7.8507343e-88
8.7931276e-88
7.7989137e-88
7.683847e-88
7.3896745e-88
7.7886719e-88
8.1192679e-88
8.0171306e-88
8.5192042e-88
8.6422042e-88
8.7186702e-88
9.4803988e-88
1.1048882e-87
1.1566695e-87
1.2957668e-87
1.5113531e-87
1.7543866e-87
2.3346697e-87
3.0359916e-87
3.6859256e-87
5.6775159e-87
6.4217321e-87
6.4557598e-87
1.6792188e-87
-2.195703e-10
7.956635e-23
-7.3370877e-35
-3.8669158e-45
-2.691505e-56
-7.8397481e-67
6.1882136e-76
-3.8953401e-85
1.9057328e-93
-1.7687815e-94
-3.1173141e-95
-2.274585e-95
-2.1727928e-95
-2.0418483e-95
-1.8822561e-95
-1.8551087e-95
-1.6923096e-95
-1.8866242e-95
-1.6854491e-95
-1.6449825e-95
-1.5684118e-95
-1.6682012e-95
-1.7289574e-95
-1.7232409e-95
-1.8309946e-95
-1.8475488e-95
-1.8958218e-95
-2.0335666e-95
-2.4083716e-95
-2.5449733e-95
-2.8629657e-95
-3.3767557e-95
-4.0027131e-95
-5.3960873e-95
-7.2319776e-95
-9.4106814e-95
-1.5038648e-94
-1.5906183e-94
-1.1672394e-94
-1.6118551e-95
-1.6555624e-10
4.3538148e-23
-2.7868797e-35
4.5932712e-46
2.5738053e-57
4.8585267e-68
6.0975539e-77
-2.8705968e-86
7.8389914e-95
2.4966379e-102
6.8387929e-103
4.3665751e-103
4.066371e-103
3.8642993e-103
3.552253e-103
3.5048257e-103
3.2296282e-103
3.5894364e-103
3.193069e-103
3.1176563e-103
2.9779787e-103
3.1681655e-103
3.2707372e-103
3.2651121e-103
3.4783028e-103
3.5060786e-103
3.5763094e-103
3.8761201e-103
4.5648741e-103
4.8217392e-103
5.4682497e-103
6.4640207e-103
7.7718414e-103
1.0551833e-102
1.4607352e-102
1.9455551e-102
3.1993818e-102
3.1589698e-102
1.841226e-102
3.074965e-103
-1.3835435e-10
2.7262744e-23
-1.2506023e-35
6.9807979e-47
3.2465977e-58
4.2012883e-69
9.5017599e-79
-3.5659038e-88
5.9536175e-97
-1.1180497e-104
-1.7212537e-110
-8.9328805e-111
-8.3245108e-111
-7.9390613e-111
-7.3594194e-111
-7.2404626e-111
-6.6977004e-111
-7.5490398e-111
-6.6302933e-111
-6.4823003e-111
-6.278641e-111
-6.5760506e-111
-6.8576307e-111
-6.7526539e-111
-7.196987e-111
-7.2255864e-111
-7.3276227e-111
-7.9099977e-111
-9.149347e-111
-9.6993833e-111
-1.0955181e-110
-1.2758429e-110
-1.4945473e-110
-2.0369386e-110
-2.7886681e-110
-3.6186862e-110
-5.7803775e-110
-5.2528235e-110
-3.120668e-110
1.0000342e-110
-1.2521597e-10
1.921216e-23
-6.5464067e-36
1.9303425e-47
7.6356869e-59
7.1001628e-70
7.2075336e-80
-2.2901514e-89
2.5608677e-98
-4.0784255e-106
2.9367642e-113
3.4557166e-118
3.024562e-118
3.0165973e-118
2.8552379e-118
2.8566054e-118
2.6257102e-118
3.0892585e-118
2.6851872e-118
2.5865462e-118
2.4892421e-118
2.6483541e-118
2.6844184e-118
2.6825496e-118
2.7141257e-118
2.6946475e-118
2.6357954e-118
2.799582e-118
3.1607005e-118
3.2509407e-118
3.507776e-118
3.9669442e-118
4.3556587e-118
5.5399529e-118
7.0252603e-118
7.9640254e-118
1.0681282e-117
8.7182976e-118
7.2414156e-118
1.073145e-118
-1.194851e-10
1.480893e-23
-3.8888447e-36
7.1433327e-48
2.5042208e-59
1.7722759e-70
1.0425441e-80
-3.0781572e-90
2.5410313e-99
-3.4193544e-107
-1.586827e-114
-2.0251499e-121
6.2831413e-125
6.0132608e-125
5.4534382e-125
5.4825747e-125
4.6109612e-125
5.3464506e-125
5.3458581e-125
5.3980764e-125
5.6801596e-125
6.6302936e-125
6.6872626e-125
8.4690648e-125
8.4584902e-125
1.0522101e-124
1.317855e-124
1.8807148e-124
-6.3237097e-124
-4.0213567e-124
-1.5389504e-124
-1.0589074e-124
-8.5785602e-125
-7.9584998e-125
-6.2544291e-125
-4.184282e-125
-3.1726407e-125
-1.8688596e-125
-2.4414561e-125
1.01398e-126
-1.1774972e-10
1.2188809e-23
-2.5523502e-36
3.174072e-48
1.0715962e-59
6.2489687e-71
2.4893123e-81
-8.1554537e-91
5.6096596e-100
-5.180356e-108
-1.4552651e-115
-7.1851858e-123
-4.9525898e-130
4.4891643e-132
4.5049922e-132
4.990367e-132
4.4235734e-132
5.6364111e-132
5.6667413e-132
6.2115643e-132
6.5006043e-132
8.5129707e-132
9.4035426e-132
1.2425847e-131
1.2502743e-131
1.6575033e-131
1.814433e-131
2.496583e-131
-8.129657e-131
-5.4555541e-131
-1.820785e-131
-1.1268474e-131
-8.3299672e-132
-6.8736762e-132
-5.0280038e-132
-4.0755087e-132
5.9958488e-132
6.5165899e-133
6.0397017e-133
1.2143302e-134
-1.1846368e-10
1.0595712e-23
-1.8247458e-36
1.6158386e-48
6.0995987e-60
3.2424135e-71
9.9201644e-82
-5.535661e-91
3.738156e-100
-1.9828635e-108
1.1112843e-115
-3.8094299e-123
1.0163499e-130
-2.5890354e-138
-1.031066e-139
-1.0902815e-139
-9.3417342e-140
-1.1291953e-139
-1.122745e-139
-1.2170214e-139
-1.265181e-139
-1.6396622e-139
-1.8152717e-139
-2.4227981e-139
-2.4562542e-139
-3.3038493e-139
-3.6940804e-139
-5.2782766e-139
1.8087085e-138
1.3119744e-138
4.8656987e-139
3.4388317e-139
3.0980527e-139
3.975564e-139
9.8615511e-139
-7.8177508e-139
-8.6792845e-138
-1.6144935e-140
-7.1678227e-141
2.1578132e-142
-1.2107388e-10
9.730218e-24
-1.4204826e-36
9.3536117e-49
5.1620514e-60
2.7898228e-71
7.2541919e-82
1.3862834e-90
-1.1662198e-99
3.6740335e-108
-2.3146895e-116
1.4470637e-124
-8.6672256e-133
5.0368304e-141
5.593807e-148
6.1295029e-148
5.174279e-148
6.2020387e-148
6.1493668e-148
6.6277961e-148
6.897024e-148
8.9655153e-148
9.9331829e-148
1.332693e-147
1.3650874e-147
1.8529845e-147
2.1071293e-147
3.0499626e-147
-1.0728607e-146
-8.0335351e-147
-3.1228557e-147
-2.3319716e-147
-2.2781598e-147
-3.2978276e-147
-1.016835e-146
1.1316227e-146
1.4329786e-145
1.5414688e-148
5.1521399e-149
5.0368558e-150
-1.2526081e-10
9.4599312e-24
-1.2100035e-36
6.2277637e-49
1.0083775e-59
5.9871536e-71
1.3877277e-81
3.7515239e-91
-5.9881716e-100
1.2696083e-108
-3.5405743e-117
1.0481879e-125
-3.0930197e-134
9.0331865e-143
-2.620601e-151
-1.7681506e-156
-1.4904751e-156
-1.7848549e-156
-1.7704506e-156
-1.9062671e-156
-1.9895343e-156
-2.5940862e-156
-2.8819242e-156
-3.889679e-156
-4.0048717e-156
-5.4672166e-156
-6.2744809e-156
-9.1730877e-156
3.2753955e-155
2.4901501e-155
9.9020749e-156
7.6049545e-156
7.7434794e-156
1.1870779e-155
4.0491444e-155
-5.2738752e-155
-7.3987903e-154
-7.1207888e-157
-3.1895708e-157
1.0791563e-157
-1.3041221e-10
9.6917471e-24
-1.1274778e-36
4.815472e-49
-1.0204086e-59
-6.3766057e-71
-1.2510406e-81
-1.6868429e-91
2.7324967e-99
-4.3211739e-108
8.0778955e-117
-1.6744687e-125
3.5450847e-134
-7.5281015e-143
1.602087e-151
-3.4170397e-160
3.1906526e-165
3.8294754e-165
3.8160027e-165
4.1247341e-165
4.318774e-165
5.6489695e-165
6.3032454e-165
8.5386608e-165
8.8171634e-165
1.2084615e-164
1.3924505e-164
2.0454825e-164
-7.3187935e-164
-5.6032231e-164
-2.240992e-164
-1.7392619e-164
-1.7941205e-164
-2.8119334e-164
-1.0005709e-163
1.3952109e-163
2.1036983e-162
2.2271687e-165
2.690787e-165
1.8543424e-165
-1.3556177e-10
1.0315861e-23
-1.1362489e-36
4.3053172e-49
-4.8495812e-60
-2.5674809e-71
-3.7283038e-82
-3.2094875e-92
-3.4030612e-100
4.1604584e-109
-6.8868744e-118
1.3649657e-126
-2.8258858e-135
5.9277177e-144
-1.2583494e-152
2.6994494e-161
-5.8531732e-170
-8.367604e-174
-8.4101064e-174
-9.1466969e-174
-9.6313984e-174
-1.2644424e-173
-1.4178537e-173
-1.9257275e-173
-1.9884528e-173
-2.723178e-173
-3.1382344e-173
-4.5897215e-173
1.6385516e-172
1.2463528e-172
4.9437251e-173
3.8049051e-173
3.8857252e-173
6.0248466e-173
2.12574e-172
-2.9791765e-172
-4.7152799e-171
-6.5541868e-174
-1.8229025e-172
2.8520034e-173
-1.3973512e-10
1.1174972e-23
-1.2113379e-36
4.355432e-49
-1.558853e-59
-5.6987119e-71
-5.5661551e-82
-3.3464762e-92
7.3422954e-101
-6.7482449e-110
1.2807832e-118
-3.5506293e-127
1.0655185e-135
-3.2981832e-144
1.0475849e-152
-3.4086915e-161
1.1366662e-169
-3.8648135e-178
2.8978175e-182
3.1910743e-182
3.3962019e-182
4.4786617e-182
5.0507212e-182
6.8421833e-182
7.0379499e-182
9.5770796e-182
1.0922242e-181
1.5732401e-181
-5.5100495e-181
-4.080671e-181
-1.5720663e-181
-1.1659468e-181
-1.1388546e-181
-1.6750696e-181
-5.5179647e-181
7.2480125e-181
1.1870627e-179
2.7825643e-182
-1.641914e-180
4.6533522e-181
-1.4241539e-10
1.2066533e-23
-1.3280611e-36
4.8043513e-49
3.9164451e-60
9.6600843e-72
6.4298166e-83
2.8227753e-93
-1.7238144e-102
1.1655056e-111
-3.4936448e-120
4.3204432e-128
-7.57731e-136
1.5414571e-143
-3.9189965e-151
1.2293258e-158
-4.9138034e-166
2.4924335e-173
-1.6132595e-180
1.2882558e-187
-3.4382511e-189
-4.686116e-189
-5.2237995e-189
-6.7901868e-189
-5.7956686e-189
-6.3101348e-189
-5.5765366e-189
-6.242317e-189
1.6542147e-188
9.5417367e-189
2.8432534e-189
1.6571072e-189
1.2661189e-189
1.4633411e-189
3.643843e-189
-3.722314e-189
-6.2039043e-188
-9.6515611e-190
-7.889347e-189
9.8410557e-189
-1.4375545e-10
1.2805737e-23
-1.458328e-36
5.5134428e-49
1.8243342e-60
3.3369685e-72
1.6530185e-83
5.5817298e-94
-1.8888453e-103
9.7828185e-113
-8.9448211e-121
-3.701551e-129
-1.4445405e-137
-5.6396735e-146
-2.1541509e-154
-8.0651464e-163
-2.9747553e-171
-1.0727276e-179
-4.4618351e-188
3.0205067e-196
-1.2290927e-197
-1.6780861e-197
-1.8747047e-197
-2.4459073e-197
-2.1079456e-197
-2.3186158e-197
-2.0745949e-197
-2.3690867e-197
6.443161e-197
3.8350739e-197
1.1885932e-197
7.3129376e-198
6.0257005e-198
7.7442271e-198
2.3369962e-197
-3.3192129e-197
-6.1532108e-196
-4.8380052e-198
-3.2413944e-197
3.5989793e-196
-1.4434656e-10
1.3313749e-23
-1.5772377e-36
6.2762753e-49
1.4604679e-60
2.2573435e-72
9.3590985e-84
2.6227269e-94
-6.9582868e-104
3.042539e-113
4.8283165e-121
9.661419e-130
1.9258073e-138
3.9158124e-147
7.9578871e-156
1.6143807e-164
3.275935e-173
6.6507918e-182
1.3503303e-190
2.7444229e-199
-2.4432537e-206
-3.4223099e-206
-3.8317803e-206
-5.0072226e-206
-4.3300931e-206
-4.7754777e-206
-4.2920985e-206
-4.9240064e-206
1.3467629e-205
8.0684929e-206
2.5236802e-206
1.5732335e-206
1.3140231e-206
1.7263842e-206
5.4208537e-206
-8.3155112e-206
-1.6620291e-204
-1.3362153e-206
-1.5139574e-205
4.857216e-203
-1.4478925e-10
1.3638148e-23
-1.6735151e-36
6.8461144e-49
1.5404136e-60
2.3032745e-72
9.0386721e-84
2.3094636e-94
-6.2423792e-104
2.6097812e-113
1.8601629e-121
3.0099886e-130
4.9063337e-139
8.2419529e-148
1.4007169e-156
2.3955142e-165
4.1210083e-174
7.1250336e-183
1.2367691e-191
2.1578055e-200
3.7747514e-209
-5.9957906e-215
-6.7333335e-215
-8.8203049e-215
-7.6273962e-215
-8.4130925e-215
-7.5438458e-215
-8.6443001e-215
2.358265e-214
1.4082086e-214
4.3851027e-215
2.7162678e-215
2.2559965e-215
2.9425657e-215
9.2347457e-215
-1.4596195e-214
-3.1928657e-213
-3.2579874e-215
-1.042407e-213
-4.680904e-210
-1.4541456e-10
1.3881856e-23
-1.751427e-36
7.0967711e-49
2.1309742e-60
3.522403e-72
1.4743641e-83
3.7999861e-94
-1.3452128e-103
6.13385e-113
4.8787561e-121
8.3085919e-130
1.4268354e-138
2.5509605e-147
4.6456223e-156
8.563577e-165
1.5967307e-173
3.0021327e-182
5.698588e-191
1.0879831e-199
2.087466e-208
4.0156488e-217
-1.28944e-223
-1.7000675e-223
-1.468426e-223
-1.6139323e-223
-1.4413708e-223
-1.6400013e-223
4.4314806e-223
2.6175275e-223
8.0340346e-224
4.8911343e-224
3.9808154e-224
5.0654879e-224
1.5553982e-223
-2.4826848e-223
-6.0977314e-222
-9.3052418e-224
-1.5749231e-221
2.341631e-217
-1.4625432e-10
1.4120689e-23
-1.8219915e-36
7.1127062e-49
5.4914748e-60
1.1485986e-71
5.7441959e-83
1.6501074e-93
-1.053115e-102
5.9516329e-112
1.0188195e-119
2.2609304e-128
5.0323597e-137
1.1777878e-145
2.8297193e-154
6.918267e-163
1.7190244e-171
4.3307361e-180
1.1036335e-188
2.8377714e-197
7.3371849e-206
1.8982264e-214
7.0381986e-223
-2.4400499e-229
-3.8017445e-232
-4.1571157e-232
-3.6752765e-232
-4.1351999e-232
1.0985958e-231
6.3791648e-232
1.9145285e-232
1.1334268e-232
8.9116174e-233
1.0901987e-232
3.2237296e-232
-5.174205e-232
-1.4794103e-230
-4.0891196e-232
-4.9604085e-228
-9.1244006e-225
-1.4716402e-10
1.4373565e-23
-1.8928784e-36
7.0688691e-49
-6.5461039e-60
-2.0114151e-71
-1.3392338e-82
-4.7102435e-93
1.2017166e-101
-9.5071104e-111
4.3699274e-118
1.5844558e-126
5.6922036e-135
2.1740499e-143
8.6232784e-152
3.5179512e-160
1.4654191e-168
6.2353742e-177
2.6922668e-185
1.1725808e-193
4.3006717e-202
-2.0130629e-208
1.1873796e-215
-6.3980828e-221
9.1003864e-228
-1.3498657e-233
3.7713437e-239
-1.7375108e-240
4.5202321e-240
2.5541651e-240
7.3951753e-241
4.2082622e-241
3.1543644e-241
3.6403198e-241
1.0259892e-240
-1.6609103e-240
-5.9221972e-239
-4.1851869e-240
1.3427041e-235
3.4690425e-232
-1.4797189e-10
1.4619106e-23
-1.9644225e-36
7.0850772e-49
-2.1766165e-60
-1.199855e-71
-1.1827329e-82
-5.5505869e-93
-1.3420613e-101
1.6711445e-110
-2.0606296e-118
-1.7280158e-126
-1.3851545e-134
-1.2124286e-142
-1.1211597e-150
-1.0904625e-158
-1.1332251e-166
-1.907427e-174
-2.5487694e-181
-9.384951e-188
-4.3337207e-194
-2.7172246e-200
-1.5779128e-206
-6.3718995e-213
-2.2652657e-219
-5.7403183e-226
-1.1427393e-232
-1.7309896e-239
-1.7624572e-246
2.3501212e-248
6.4602839e-249
3.4607135e-249
2.406737e-249
2.5401743e-249
6.7023761e-249
-1.1273342e-248
-6.0256981e-247
1.6824995e-246
-2.4755192e-243
-1.2975007e-239
-1.4857454e-10
1.4826617e-23
-2.0316474e-36
7.194204e-49
-1.4653682e-60
-2.1919528e-71
-3.57528e-82
-2.4179685e-92
-3.0289056e-101
6.6506817e-110
-6.1372658e-118
-5.201755e-125
-2.7784252e-132
-1.9404913e-139
-1.9458173e-146
-2.3969554e-153
-3.7471151e-160
-7.2821884e-167
-2.2694902e-173
-8.6039768e-180
-3.9689383e-186
-2.4678018e-192
-1.4301612e-198
-5.8097417e-205
-2.0870541e-211
-5.3635885e-218
-1.0997116e-224
-1.7200049e-231
-1.8527112e-238
-1.571404e-245
-1.0470058e-252
1.7566155e-256
9.7413314e-257
8.2466759e-257
1.9120215e-256
-4.007864e-256
8.9716625e-254
-2.7853631e-254
4.298442e-251
5.1116925e-247
-1.4895875e-10
1.4978557e-23
-2.0887253e-36
7.3742183e-49
-1.2354947e-60
1.0080466e-70
3.1115711e-81
3.2410186e-91
3.7490687e-100
-1.6419028e-108
1.530727e-116
-3.6727528e-124
1.0413283e-131
-2.8813641e-139
7.7656704e-147
-2.0412824e-154
5.2184366e-162
-1.3195864e-169
3.3200844e-177
-8.2921238e-185
2.1459336e-192
7.9814695e-201
3.5284849e-206
1.3698459e-212
4.9431996e-219
1.2461665e-225
2.5166046e-232
3.8349844e-239
3.8495715e-246
3.2263662e-253
2.060423e-260
-5.1630765e-264
-3.0506882e-264
-2.7555623e-264
-6.408642e-264
1.076081e-263
-1.4867139e-261
3.3846761e-262
-8.0565839e-259
-2.1619263e-254
-1.49172e-10
1.5076396e-23
-2.1324993e-36
7.5837522e-49
-1.1614688e-60
1.9252e-71
1.3977647e-81
2.3655225e-91
3.1277952e-100
-3.226461e-108
3.6768821e-116
-6.5778438e-124
1.3053873e-131
-2.6073213e-139
5.2186739e-147
-1.0432937e-154
2.0913454e-162
-4.2086555e-170
8.4894302e-178
-1.7236026e-185
3.4651033e-193
-7.00528e-201
1.4071982e-208
-2.8436906e-216
5.6876173e-224
-1.1866091e-231
1.881906e-239
-1.152726e-246
-5.4133397e-254
-5.3988963e-261
-3.0777452e-268
1.0376191e-271
6.1271432e-272
5.5469993e-272
1.2419701e-271
-1.7953317e-271
1.9686783e-269
-4.1710603e-270
1.630179e-266
9.8736737e-262
-1.4927995e-10
1.5134021e-23
-2.1634524e-36
7.7854122e-49
-1.1522013e-60
1.3365256e-71
4.6850845e-81
1.3375491e-90
2.2555847e-99
-7.514713e-107
1.2101402e-114
-2.4644043e-122
5.4769466e-130
-1.2148847e-137
2.7184081e-145
-6.2031265e-153
1.4137653e-160
-3.3020753e-168
7.715791e-176
-1.8460459e-183
4.41638e-191
-1.0428477e-198
2.4799607e-206
-5.8939421e-214
1.4003964e-221
-3.3304885e-229
7.7596971e-237
-1.7925258e-244
4.1109265e-252
-9.357868e-260
2.0974309e-267
-4.6523121e-275
-1.3514664e-279
-1.1801217e-279
-2.4664775e-279
3.0979827e-279
-2.771802e-277
5.7294185e-278
-3.5718041e-274
-4.544663e-269
-1.4933678e-10
1.5167849e-23
-2.1844961e-36
7.9569211e-49
-1.1691038e-60
1.1846228e-71
-3.7947261e-81
-1.8661854e-90
-4.2151537e-99
4.631297e-105
-1.1111273e-112
3.0476313e-120
-8.9363706e-128
2.6549763e-135
-7.9915386e-143
2.4747221e-150
-7.6872866e-158
2.3971258e-165
-7.5231914e-173
2.4084036e-180
-7.6871209e-188
2.4662325e-195
-7.8736081e-203
2.5140996e-210
-7.83178e-218
2.4946891e-225
-7.8257701e-233
2.3961953e-240
-7.3367565e-248
2.2188725e-255
-6.6530115e-263
1.9300447e-270
-5.4793413e-278
1.5458006e-285
6.3638407e-287
-6.5659571e-287
4.6938249e-285
-8.948913e-286
7.9485911e-282
2.1859906e-276
-1.4937523e-10
1.5190378e-23
-2.1991082e-36
8.0920918e-49
-1.1927726e-60
1.143125e-71
-1.8087694e-81
-1.5552356e-90
-4.7697997e-99
-4.9979262e-106
1.8884374e-113
-7.3025424e-121
3.031699e-128
-1.2665291e-135
5.3971562e-143
-2.3514032e-150
1.0396751e-157
-4.4762775e-165
1.9886196e-172
-8.9811126e-180
4.0166967e-187
-1.7851733e-194
7.8790045e-202
-3.4989327e-209
1.523802e-216
-6.5599711e-224
2.755614e-231
-1.193421e-238
5.0980206e-246
-2.1090092e-253
8.6520563e-261
-3.5240334e-268
1.3812535e-275
-5.2583096e-283
1.8070832e-290
1.7865429e-294
-9.4181452e-293
1.5302477e-293
-1.7552605e-289
-1.0801994e-283
-1.4940945e-10
1.5208511e-23
-2.2100466e-36
8.1953835e-49
-1.2141801e-60
1.1333254e-71
-1.3909659e-81
-2.1946082e-90
-8.9800791e-99
-8.4222155e-106
4.4284298e-113
-2.2962905e-120
1.2652215e-127
-7.1776905e-135
3.9599089e-142
-2.1752107e-149
1.2743062e-156
-7.2637183e-164
4.0656024e-171
-2.2661022e-178
1.2784277e-185
-7.2325664e-193
3.9839483e-200
-2.2715439e-207
1.2874697e-214
-7.2272321e-222
4.1180622e-229
-2.279576e-236
1.2410704e-243
-6.5090341e-251
3.4382133e-258
-1.7467016e-265
9.0265666e-273
-4.394518e-280
1.8728519e-287
-6.2152301e-295
2.1288704e-300
-2.7685282e-301
3.4243046e-297
5.4109264e-291
-1.4944297e-10
1.5224905e-23
-2.2189691e-36
8.2751422e-49
-1.2306331e-60
1.1290515e-71
-1.2052806e-81
-4.2547728e-90
-2.2604372e-98
-2.532003e-105
1.6094564e-112
-1.0161411e-119
6.3789534e-127
-3.9969733e-134
2.5767674e-141
-1.603495e-148
1.0363896e-155
-6.5881303e-163
4.1751506e-170
-2.6263363e-177
1.6242308e-184
-1.0273909e-191
6.6056137e-199
-4.0544606e-206
2.5143945e-213
-1.6064861e-220
9.6929759e-228
-6.0514469e-235
3.6777584e-242
-2.2225899e-249
1.3034671e-256
-7.6043419e-264
4.5854299e-271
-2.5646183e-278
1.2731261e-285
-4.7287929e-293
1.1226695e-300
-1.5709352e-308
-3.1339912e-305
-2.8139866e-298
-1.4947494e-10
1.5239985e-23
-2.2266452e-36
8.338951e-49
-1.2426237e-60
1.1231836e-71
-1.0882944e-81
-4.5736524e-89
-3.0971467e-97
-5.014356e-104
3.2798309e-111
-2.0738055e-118
1.2927032e-125
-8.3621916e-133
5.3789876e-140
-3.4973005e-147
2.2417724e-154
-1.4973506e-161
9.698219e-169
-6.0714503e-176
3.8774028e-183
-2.4213125e-190
1.5392865e-197
-9.9391521e-205
6.2288104e-212
-3.8585362e-219
2.3981345e-226
-1.4722576e-233
9.0653009e-241
-5.5221589e-248
3.3591314e-255
-1.9939435e-262
1.1504808e-269
-6.6529666e-277
3.3541834e-284
-1.2763477e-291
3.0884317e-299
-5.6949221e-307
-3.299417e-312
1.473592e-305
-1.4950397e-10
1.5253508e-23
-2.2333477e-36
8.3919436e-49
-1.2515835e-60
1.1157548e-71
-1.0023535e-81
5.3822043e-90
4.6143478e-98
1.1126559e-104
-7.4331805e-112
4.6091425e-119
-2.8403414e-126
1.776772e-133
-1.1399919e-140
7.167833e-148
-4.5357674e-155
2.8072491e-162
-1.7535623e-169
1.1249649e-176
-7.2750562e-184
4.5563005e-191
-2.8585557e-198
1.835293e-205
-1.138984e-212
6.5551615e-220
-4.1480197e-227
2.5477124e-234
-1.564956e-241
9.4372156e-249
-5.627483e-256
3.319909e-263
-1.9551566e-270
1.129339e-277
-5.7353623e-285
2.1178433e-292
-5.0909292e-300
9.4207178e-308
1.0943752e-313
-1.4348867e-312
-1.4952933e-10
1.5265273e-23
-2.2391625e-36
8.4370209e-49
-1.2587375e-60
1.1083778e-71
-9.3701176e-82
2.5935619e-90
2.8484e-98
1.6237135e-104
-1.0753959e-111
6.9943089e-119
-4.5127106e-126
2.827124e-133
-1.7547472e-140
1.1070376e-147
-6.8811195e-155
4.2812647e-162
-2.705048e-169
1.676819e-176
-1.0024764e-183
6.0664777e-191
-3.6990758e-198
2.275492e-205
-1.4090945e-212
8.7529007e-220
-5.3779285e-227
3.3137575e-234
-2.0642069e-241
1.225071e-248
-7.4883834e-256
4.6315077e-263
-2.7506256e-270
1.5596427e-277
-7.8949869e-285
2.9520924e-292
-7.1739071e-300
1.3180905e-307
6.1356829e-313
-7.1371633e-313
-1.4955101e-10
1.5275308e-23
-2.2441489e-36
8.4757186e-49
-1.2648093e-60
1.1021589e-71
-8.8742649e-82
1.7390821e-90
2.5009723e-98
2.9305936e-104
-1.9812506e-111
1.2335073e-118
-7.6540806e-126
4.8196698e-133
-3.0068874e-140
1.9602276e-147
-1.2100086e-154
7.4434201e-162
-4.7002343e-169
2.9206047e-176
-1.8149513e-183
1.1479276e-190
-7.3198912e-198
4.654836e-205
-2.8342978e-212
1.7593331e-219
-1.0788266e-226
6.4171758e-234
-3.8244328e-241
2.4257576e-248
-1.4819801e-255
8.6486912e-263
-4.9854087e-270
2.9216705e-277
-1.5254249e-284
5.7912171e-292
-1.4083443e-299
2.6208112e-307
6.0830119e-313
7.85188e-315
-1.4956948e-10
1.5283812e-23
-2.2483927e-36
8.5089595e-49
-1.2701264e-60
1.0974093e-71
-8.4998174e-82
1.337537e-90
2.5850178e-98
1.6492428e-103
-1.1775583e-110
7.4177021e-118
-4.9191357e-125
3.057117e-132
-1.8545829e-139
1.1685404e-146
-7.3577619e-154
4.6256958e-161
-2.970741e-168
1.8532741e-175
-1.1570739e-182
7.2316758e-190
-4.5976238e-197
2.9795339e-204
-1.839499e-211
1.1550993e-218
-7.2667094e-226
4.4863854e-233
-2.707673e-240
1.6426452e-247
-9.8854585e-255
6.147863e-262
-3.8149397e-269
2.1753869e-276
-1.1615767e-283
4.5028571e-291
-1.100073e-298
2.0777885e-306
2.5917216e-313
1.896911e-313
-1.4958521e-10
1.5291022e-23
-2.2519953e-36
8.5374454e-49
-1.2748148e-60
1.0939619e-71
-8.2162072e-82
1.1114565e-90
3.0225756e-98
-1.3316466e-103
9.3859371e-111
-6.1471825e-118
3.9071945e-125
-2.4863977e-132
1.6044565e-139
-1.0346913e-146
6.8045871e-154
-4.2514165e-161
2.6978913e-168
-1.7100521e-175
1.0875378e-182
-6.8721696e-190
4.5763489e-197
-3.0337558e-204
1.9235931e-211
-1.2043007e-218
7.4314094e-226
-4.7485921e-233
3.0535858e-240
-1.9587194e-247
1.268443e-254
-7.5564254e-262
4.6232057e-269
-2.7117847e-276
1.4573028e-283
-5.629678e-291
1.3917905e-298
-2.6680046e-306
8.3043878e-315
-2.4642728e-313
-1.4959864e-10
1.5297159e-23
-2.255059e-36
8.5618355e-49
-1.2789295e-60
1.0914814e-71
-7.997564e-82
9.6990583e-91
4.1155262e-98
-3.119158e-104
2.2348312e-111
-1.4978004e-118
1.0031928e-125
-6.6777498e-133
4.3718272e-140
-2.8767658e-147
1.8723907e-154
-1.1998683e-161
7.9490575e-169
-5.3012392e-176
3.3898268e-183
-2.1896695e-190
1.4660059e-197
-9.7438455e-205
6.4513525e-212
-4.1930039e-219
2.6648815e-226
-1.6951698e-233
1.0838661e-240
-6.9588754e-248
4.3925076e-255
-2.9159294e-262
1.8882219e-269
-1.1482228e-276
6.2132225e-284
-2.4427923e-291
6.2012525e-299
-1.1840064e-306
1.8281525e-313
-9.7290285e-314
-1.4961019e-10
1.5302413e-23
-2.2576743e-36
8.5827288e-49
-1.2825186e-60
1.089682e-71
-7.8266533e-82
8.729436e-91
7.2646629e-98
-5.1210028e-104
3.807301e-111
-2.6256303e-118
1.9071327e-125
-1.2940205e-132
8.8142626e-140
-5.9707793e-147
4.1196764e-154
-2.7751483e-161
1.8999668e-168
-1.2906727e-175
8.4925709e-183
-5.7239918e-190
3.8116781e-197
-2.5837457e-204
1.7495577e-211
-1.1419745e-218
7.4134238e-226
-4.7327403e-233
3.0938445e-240
-2.0226336e-247
1.335967e-254
-8.8976021e-262
5.5974212e-269
-3.5446089e-276
1.9886268e-283
-7.846187e-291
2.0063816e-298
-3.8511814e-306
-4.527544e-313
-7.7771984e-314
-1.4962013e-10
1.5306923e-23
-2.2599156e-36
8.600665e-49
-1.2856379e-60
1.0883448e-71
-7.6903521e-82
8.034824e-91
2.9937665e-97
-1.1618738e-103
9.1661435e-111
-6.2561016e-118
4.4525181e-125
-3.1960996e-132
2.2542783e-139
-1.5504507e-146
1.0666024e-153
-7.3519608e-161
5.0586429e-168
-3.4971849e-175
2.3416697e-182
-1.640037e-189
1.1307312e-196
-7.770281e-204
5.1781822e-211
-3.6202847e-218
2.4737014e-225
-1.6517998e-232
1.1246657e-239
-7.4513479e-247
4.9020124e-254
-3.2480202e-261
2.2252783e-268
-1.4078684e-275
7.8609204e-283
-3.1927067e-290
8.1020446e-298
-1.5935805e-305
3.7660134e-314
3.8789059e-313
-1.4962871e-10