/*--------------------------------*- C++ -*----------------------------------*\
  =========                 |
  \\      /  F ield         | OpenFOAM: The Open Source CFD Toolbox
   \\    /   O peration     | Website:  https://openfoam.org
    \\  /    A nd           | Version:  10
     \\/     M anipulation  |
\*---------------------------------------------------------------------------*/
FoamFile
{
    format      ascii;
    class       volScalarField;
    location    "0.05";
    object      TporMedia_0;
}
// * * * * * * * * * * * * * * * * * * * * * * * * * * * * * * * * * * * * * //

dimensions      [0 0 0 1 0 0 0];

internalField   nonuniform List<scalar> 
4000
(
-3.9108253e-07
2.0076253e-07
-1.2383117e-05
-1.566935e-05
-3.2202094e-05
-2.6479943e-05
-2.6336347e-05
-2.592373e-05
-2.5709559e-05
-2.52829e-05
-2.4949615e-05
-2.5093339e-05
-2.4035236e-05
-2.4325275e-05
-2.4270384e-05
-2.4324405e-05
-2.3805113e-05
-2.3916531e-05
-2.3893205e-05
-2.360708e-05
-2.4005226e-05
-2.3867529e-05
-2.3811514e-05
-2.3575933e-05
-2.3980103e-05
-2.4238729e-05
-2.4202524e-05
-2.4100554e-05
-2.4149416e-05
-2.5320222e-05
-2.4806788e-05
-2.5347661e-05
-2.5388144e-05
-2.6333668e-05
-2.6519193e-05
-2.7998448e-05
-2.8045078e-05
-2.8923844e-05
-2.9557306e-05
-2.9901351e-05
-3.4255366e-08
2.0500926e-17
-4.3090421e-15
1.2650131e-13
6.2149361e-13
1.1988355e-12
1.1120879e-12
1.0698733e-12
1.0568834e-12
1.0372002e-12
1.0241338e-12
1.0162894e-12
9.565866e-13
9.708285e-13
9.1492946e-13
9.2922189e-13
9.1857915e-13
9.3286896e-13
9.1442073e-13
8.9766653e-13
9.2062597e-13
9.3125966e-13
8.9824234e-13
9.0781807e-13
9.3665424e-13
9.2115452e-13
9.5017509e-13
9.5480563e-13
9.4815777e-13
1.0178358e-12
1.0106783e-12
1.0203902e-12
1.0549111e-12
1.1228163e-12
1.1560073e-12
1.2411935e-12
1.2730005e-12
1.3397784e-12
1.3894945e-12
1.4438822e-12
-1.3341528e-08
-4.6405227e-18
-4.0617818e-25
1.7666355e-22
-2.8224718e-21
-3.1333194e-20
-4.9097664e-20
-4.3100854e-20
-4.1317336e-20
-4.1222956e-20
-3.9348361e-20
-3.9593531e-20
-3.6882404e-20
-3.7247054e-20
-3.450474e-20
-3.518356e-20
-3.4869233e-20
-3.5235635e-20
-3.4084016e-20
-3.3782307e-20
-3.4737554e-20
-3.4349003e-20
-3.3897022e-20
-3.395715e-20
-3.4763221e-20
-3.4670515e-20
-3.5598314e-20
-3.6169616e-20
-3.6912539e-20
-3.8813798e-20
-3.930944e-20
-4.1226326e-20
-4.2902578e-20
-4.5604907e-20
-4.9042429e-20
-5.3509092e-20
-5.6430443e-20
-6.0310381e-20
-6.4685783e-20
-6.8955479e-20
-6.8691413e-09
2.991087e-19
1.4051005e-29
4.0073759e-32
6.9570111e-30
2.3656522e-28
2.0625775e-27
1.7529118e-27
1.6283697e-27
1.5808896e-27
1.5041501e-27
1.5195174e-27
1.3992107e-27
1.4112176e-27
1.2741475e-27
1.28646e-27
1.265662e-27
1.2973226e-27
1.2345216e-27
1.2447318e-27
1.2646045e-27
1.2445128e-27
1.2216897e-27
1.22684e-27
1.2682901e-27
1.2602372e-27
1.3052586e-27
1.3513901e-27
1.3761912e-27
1.4762934e-27
1.4978424e-27
1.565714e-27
1.6836053e-27
1.8147292e-27
2.0027681e-27
2.259361e-27
2.4106465e-27
2.666072e-27
2.9795691e-27
3.1792169e-27
-4.1135394e-09
5.251845e-20
1.8049388e-30
1.4293118e-40
2.3702492e-36
-6.1982054e-37
-4.4230442e-35
-7.5840317e-35
-6.1191206e-35
-5.8278634e-35
-5.4712078e-35
-5.4558475e-35
-5.1239645e-35
-5.0928115e-35
-4.4890352e-35
-4.544939e-35
-4.5051049e-35
-4.5365713e-35
-4.2832552e-35
-4.3334545e-35
-4.4731369e-35
-4.3429344e-35
-4.2282831e-35
-4.3273426e-35
-4.4076565e-35
-4.4778743e-35
-4.5850336e-35
-4.8127162e-35
-4.9426932e-35
-5.286186e-35
-5.5753786e-35
-5.7930672e-35
-6.3027111e-35
-7.0330194e-35
-7.7645239e-35
-9.0156929e-35
-1.0101546e-34
-1.1659968e-34
-1.3031236e-34
-1.420008e-34
-2.6822512e-09
1.5653485e-20
6.1112305e-31
2.2545577e-41
1.0849716e-45
8.0021293e-46
3.2884457e-43
3.5300633e-42
2.3199917e-42
2.075232e-42
1.930645e-42
1.908963e-42
1.7781267e-42
1.7414188e-42
1.548527e-42
1.531049e-42
1.5243573e-42
1.5698428e-42
1.4363958e-42
1.4325651e-42
1.5006559e-42
1.4678477e-42
1.4528762e-42
1.4563832e-42
1.4645229e-42
1.5333791e-42
1.5400425e-42
1.6463417e-42
1.6911657e-42
1.7970482e-42
1.9734253e-42
2.0302803e-42
2.2361675e-42
2.5949534e-42
2.9577932e-42
3.5022757e-42
4.0156113e-42
4.8507449e-42
5.5858917e-42
6.0864937e-42
-1.83866e-09
5.9133176e-21
6.1684187e-30
1.3375864e-40
1.7396171e-50
-7.3414345e-55
-9.5138374e-52
-1.152922e-49
-9.5166016e-50
-7.0867241e-50
-6.5171995e-50
-6.3710151e-50
-5.8353158e-50
-5.6636754e-50
-5.1641782e-50
-5.0068022e-50
-5.0080502e-50
-5.1031836e-50
-4.6775932e-50
-4.6575503e-50
-4.8411399e-50
-4.6883984e-50
-4.6286081e-50
-4.728443e-50
-4.7038408e-50
-5.0220322e-50
-5.1071563e-50
-5.3475316e-50
-5.4938129e-50
-6.0144627e-50
-6.5824933e-50
-6.7919739e-50
-7.6889051e-50
-9.2058735e-50
-1.0574002e-49
-1.2988459e-49
-1.5365922e-49
-1.9265382e-49
-2.2388767e-49
-2.3997651e-49
-1.3124617e-09
2.5920974e-21
-4.6725682e-32
-6.9539712e-43
-3.8460118e-53
4.6903113e-62
1.3094443e-60
1.6197313e-57
4.4285363e-57
2.3676764e-57
2.1523026e-57
2.0346163e-57
1.8449556e-57
1.7910562e-57
1.5681216e-57
1.5971237e-57
1.5678973e-57
1.5658579e-57
1.4490277e-57
1.4145859e-57
1.4667156e-57
1.4400947e-57
1.4069993e-57
1.4744316e-57
1.4369359e-57
1.5757722e-57
1.5809778e-57
1.6875708e-57
1.7378394e-57
1.9264233e-57
2.0954857e-57
2.1951941e-57
2.5127741e-57
3.0068259e-57
3.5862613e-57
4.5967231e-57
5.675536e-57
7.3706209e-57
8.5531469e-57
9.0735943e-57
-9.5867857e-10
1.251766e-21
-8.1383061e-33
-9.454898e-44
-2.7363107e-54
-3.722917e-63
-1.0295792e-69
-9.1563257e-66
-2.3523865e-64
-8.0642106e-65
-6.6301157e-65
-6.1932384e-65
-5.6686369e-65
-5.5115308e-65
-4.7837516e-65
-4.7591506e-65
-4.6921698e-65
-4.6724454e-65
-4.3106423e-65
-4.1805555e-65
-4.3669676e-65
-4.3054307e-65
-4.1107811e-65
-4.3610773e-65
-4.2195307e-65
-4.6513477e-65
-4.7047009e-65
-5.0601024e-65
-5.2209248e-65
-5.8762505e-65
-6.5130355e-65
-6.6935381e-65
-7.9304842e-65
-9.4178565e-65
-1.1605725e-64
-1.5467593e-64
-1.9824895e-64
-2.5825337e-64
-3.0305745e-64
-3.6996425e-64
-6.7257874e-10
6.0857639e-22
-2.0103891e-33
-2.061304e-44
-3.5832197e-55
-7.9693788e-65
4.2572449e-74
2.3967354e-74
9.9930129e-72
3.0315866e-72
1.9966756e-72
1.8513896e-72
1.6915418e-72
1.6333022e-72
1.419694e-72
1.3847356e-72
1.371416e-72
1.3594115e-72
1.2429641e-72
1.1886591e-72
1.2634918e-72
1.2361347e-72
1.2019324e-72
1.2345346e-72
1.2175597e-72
1.345322e-72
1.3765064e-72
1.468256e-72
1.5012015e-72
1.6980236e-72
1.9491805e-72
2.0199639e-72
2.3838082e-72
2.8871184e-72
3.6837709e-72
4.9979882e-72
6.5192414e-72
8.4591163e-72
9.8638868e-72
1.1256443e-71
-4.3550034e-10
2.7823254e-22
-5.4301302e-34
-5.6776929e-45
-6.5735058e-56
-5.8213876e-66
2.5170187e-75
-3.7398538e-83
-2.1030572e-79
-1.3250009e-79
-5.8631208e-80
-5.1870799e-80
-4.8023907e-80
-4.5570374e-80
-3.9527682e-80
-3.8826996e-80
-3.7507895e-80
-3.6957962e-80
-3.3464933e-80
-3.2532925e-80
-3.4915236e-80
-3.3898393e-80
-3.3012593e-80
-3.3673699e-80
-3.3458169e-80
-3.699695e-80
-3.7382979e-80
-3.9919001e-80
-4.1326056e-80
-4.6998143e-80
-5.4601905e-80
-5.6672749e-80
-6.8722121e-80
-8.39439e-80
-1.081401e-79
-1.5605427e-79
-2.0532452e-79
-2.6056391e-79
-2.7955738e-79
-1.7139508e-79
-2.7813841e-10
1.2558961e-22
-1.5672014e-34
-2.1318791e-45
-1.7822094e-56
-8.1595138e-67
3.6137055e-76
-3.1484267e-85
1.9673767e-87
5.5871672e-87
1.5374389e-87
1.2657755e-87
1.1500671e-87
1.0862125e-87
9.4130431e-88
9.3244727e-88
8.9062605e-88
8.8005888e-88
8.0146518e-88
7.764564e-88
8.280642e-88
8.0223855e-88
7.7371377e-88
7.9486056e-88
7.8449266e-88
8.740648e-88
8.7936347e-88
9.5198649e-88
9.8622536e-88
1.1319447e-87
1.3215152e-87
1.3962403e-87
1.7377351e-87
2.1437208e-87
2.8876156e-87
4.3302323e-87
5.9235368e-87
7.2175233e-87
6.0636142e-87
1.6016199e-87
-1.9165674e-10
6.1483952e-23
-5.1321349e-35
-2.1864031e-45
-1.4018547e-56
-3.8013344e-67
2.8879177e-76
-1.724467e-85
7.8523608e-94
-1.8473206e-94
-3.4591828e-95
-2.6030956e-95
-2.3116735e-95
-2.193692e-95
-1.9004071e-95
-1.8785027e-95
-1.8012716e-95
-1.7592687e-95
-1.63637e-95
-1.5544392e-95
-1.6597195e-95
-1.6300583e-95
-1.5369789e-95
-1.604196e-95
-1.5562945e-95
-1.752536e-95
-1.7513954e-95
-1.9181596e-95
-1.9943732e-95
-2.2686804e-95
-2.6913955e-95
-2.8518159e-95
-3.6070193e-95
-4.5520896e-95
-6.3656152e-95
-9.9020289e-95
-1.4052455e-94
-1.6168842e-94
-1.0165081e-94
-1.5674828e-95
-1.4762267e-10
3.4424228e-23
-1.9902916e-35
3.2548764e-46
1.6656964e-57
2.9040301e-68
3.2697238e-77
-1.4417223e-86
3.6842789e-95
3.7337501e-102
7.8606821e-103
4.9977228e-103
4.3928844e-103
4.2186288e-103
3.6307114e-103
3.5998551e-103
3.4320891e-103
3.3861321e-103
3.163403e-103
2.9776651e-103
3.2175348e-103
3.1334282e-103
2.9441176e-103
3.114885e-103
3.0049017e-103
3.3681415e-103
3.3665554e-103
3.6704514e-103
3.7658664e-103
4.3070897e-103
5.1011482e-103
5.4057073e-103
6.8460217e-103
8.6169395e-103
1.206341e-102
1.9303439e-102
2.7282425e-102
2.9759313e-102
1.5768716e-102
4.3759185e-103
-1.2601027e-10
2.2160953e-23
-9.2064764e-36
4.9906484e-47
2.0931716e-58
2.487511e-69
5.326979e-79
-1.8415055e-88
2.9092986e-97
-6.7518329e-105
-2.7334834e-110
-1.3215402e-110
-1.1328286e-110
-1.1199863e-110
-9.5841747e-111
-9.5344046e-111
-9.2142568e-111
-9.2234294e-111
-8.6025074e-111
-8.1252175e-111
-8.8516384e-111
-8.4609738e-111
-7.8528174e-111
-8.2768295e-111
-7.9383363e-111
-8.674017e-111
-8.6314248e-111
-9.2809516e-111
-9.3712466e-111
-1.0552121e-110
-1.2193094e-110
-1.2783055e-110
-1.5439274e-110
-1.906731e-110
-2.541335e-110
-3.8129431e-110
-4.8321417e-110
-4.8802799e-110
-2.8590748e-110
8.4785721e-111
-1.1611293e-10
1.602947e-23
-4.9757674e-36
1.4196952e-47
5.040997e-59
4.3299571e-70
4.2497541e-80
-1.2386193e-89
1.3401874e-98
-3.2728775e-106
-4.8966492e-113
2.0713576e-117
1.4510346e-117
1.495349e-117
1.5002147e-117
1.5231059e-117
1.3826964e-117
1.3882855e-117
1.3554665e-117
1.2136804e-117
1.3049895e-117
1.2239983e-117
1.1002724e-117
1.0579113e-117
9.4279631e-118
9.6938974e-118
9.1116353e-118
8.7861111e-118
8.1827298e-118
8.1672098e-118
8.5419859e-118
8.1917533e-118
9.0084301e-118
9.3967846e-118
1.0789333e-117
1.2335125e-117
1.1146332e-117
9.1115436e-118
7.6068804e-118
7.9587663e-119
-1.1239126e-10
1.2633014e-23
-3.0416713e-36
5.3522162e-48
1.7132548e-59
1.1466021e-70
6.6715658e-81
-1.8578706e-90
1.5420083e-99
-2.9793133e-107
-7.9669739e-115
-3.6785456e-122
8.0013942e-125
8.7347008e-125
8.7356483e-125
9.2821676e-125
8.7040988e-125
8.8099193e-125
9.2666429e-125
8.1810224e-125
9.0960956e-125
8.9396751e-125
8.4777429e-125
8.2087084e-125
7.5672916e-125
8.1826051e-125
7.6999452e-125
7.874503e-125
7.7719924e-125
7.8312602e-125
8.3407728e-125
8.226863e-125
9.9779552e-125
1.1135695e-124
1.5830559e-124
1.6122297e-123
-7.4609099e-125
-2.6155902e-125
-2.348097e-125
7.2715275e-127
-1.1203814e-10
1.0609308e-23
-2.0484807e-36
2.4028342e-48
7.7616112e-60
4.4554223e-71
1.801645e-81
-6.0784527e-91
4.4648784e-100
-4.1814465e-108
-2.3117868e-115
-1.1326681e-121
2.478455e-128
-1.2909861e-131
-1.0735036e-131
-8.4118734e-132
-7.1912599e-132
-6.901821e-132
-6.8055737e-132
-5.7070805e-132
-6.1128104e-132
-5.6660166e-132
-5.3718148e-132
-5.2804596e-132
-4.7563148e-132
-5.3855093e-132
-5.2592034e-132
-6.0023872e-132
-6.1873345e-132
-7.0750439e-132
-9.5373203e-132
-1.3473523e-131
-7.2055215e-131
3.1617158e-131
1.5207106e-131
1.0736246e-130
-1.4853455e-131
9.1510102e-133
3.7883786e-133
8.6460452e-135
-1.1381705e-10
9.4207602e-24
-1.5046385e-36
1.2417713e-48
4.8612239e-60
2.6679021e-71
8.4586841e-82
-6.7832564e-91
5.3358008e-100
-2.3660057e-108
2.6857104e-116
-2.7417333e-124
2.6141517e-132
9.4378144e-140
9.4803636e-140
7.2883703e-140
6.1272069e-140
5.7904684e-140
5.6526867e-140
4.7154758e-140
5.0380608e-140
4.6773736e-140
4.4267143e-140
4.4091276e-140
3.9661595e-140
4.5790774e-140
4.529092e-140
5.2973988e-140
5.6235854e-140
6.6966515e-140
9.5603393e-140
1.45054e-139
8.5981177e-139
-4.4798347e-139
-2.9519068e-139
-3.5788257e-138
5.8580186e-139
-1.3281851e-140
-3.2232576e-141
1.5196837e-142
-1.1725677e-10
8.8578216e-24
-1.2090237e-36
7.4201399e-49
4.8115302e-60
2.7700613e-71
7.422946e-82
4.8976199e-91
-5.4122873e-100
1.3640403e-108
-4.9450111e-117
1.8499011e-125
-6.821664e-134
2.470107e-142
-3.4118925e-148
-2.5899688e-148
-2.167818e-148
-2.0433329e-148
-1.9874075e-148
-1.6566138e-148
-1.770772e-148
-1.6494746e-148
-1.5702419e-148
-1.5661151e-148
-1.4188736e-148
-1.6510406e-148
-1.6519473e-148
-1.9555338e-148
-2.1155466e-148
-2.5703248e-148
-3.7675625e-148
-5.9283604e-148
-3.6904021e-147
2.0783768e-147
1.5609474e-147
2.3237855e-146
-4.3645414e-147
7.8513349e-149
1.9565274e-149
3.2274362e-150
-1.2194e-10
8.8189791e-24
-1.0677324e-36
5.2006653e-49
1.2254048e-59
7.4689273e-71
1.6798571e-81
3.3932067e-91
-7.9058872e-100
1.350093e-108
-2.8361236e-117
6.4424448e-126
-1.4786087e-134
3.3897839e-143
-7.7611009e-152
5.9219039e-157
4.9585241e-157
4.6845001e-157
4.5666559e-157
3.8101907e-157
4.0924358e-157
3.8216422e-157
3.6530536e-157
3.6518646e-157
3.3278088e-157
3.8915297e-157
3.9170339e-157
4.6674312e-157
5.0871431e-157
6.2369657e-157
9.2479193e-157
1.4782803e-156
9.4111629e-156
-5.478456e-156
-4.3677112e-156
-7.1582897e-155
1.4660855e-155
-2.6999507e-157
-1.2427013e-157
5.9596793e-158
-1.2710491e-10
9.2153288e-24
-1.0319519e-36
4.2925461e-49
-1.9563931e-59
-1.0833228e-70
-1.852406e-81
-2.1289778e-91
1.0347575e-99
-1.3308305e-108
2.2350092e-117
-4.3025617e-126
8.5366172e-135
-1.7056384e-143
3.4305729e-152
-6.9575586e-161
-1.01223e-165
-9.6485008e-166
-9.4422823e-166
-7.9225805e-166
-8.5524863e-166
-8.0090831e-166
-7.6850036e-166
-7.7153514e-166
-7.0348371e-166
-8.2389066e-166
-8.3079985e-166
-9.8997151e-166
-1.0786973e-165
-1.3185564e-165
-1.9544848e-165
-3.1190952e-165
-1.9836741e-164
1.1575713e-164
9.3196957e-165
1.5641408e-163
-3.383844e-164
7.5341004e-166
1.6390371e-165
9.2902805e-166
-1.3177096e-10
9.9282573e-24
-1.0734277e-36
4.1135262e-49
4.3146489e-59
1.7436519e-70
2.0410505e-81
1.5974934e-91
-2.6329137e-100
2.6223215e-109
-4.6540154e-118
1.0677008e-126
-2.5795776e-135
6.3753169e-144
-1.6026597e-152
4.1051118e-161
-1.0689919e-169
2.5438972e-174
2.5223547e-174
2.135236e-174
2.3200393e-174
2.1816253e-174
2.1018817e-174
2.1107649e-174
1.9244493e-174
2.2470549e-174
2.2535392e-174
2.6622322e-174
2.8668316e-174
3.4466756e-174
5.0123415e-174
7.8103134e-174
4.8332373e-173
-2.7286041e-173
-2.109759e-173
-3.4032804e-172
7.5987838e-173
-2.471852e-174
3.0275079e-173
1.3921389e-173
-1.3516689e-10
1.0788804e-23
-1.1699482e-36
4.4290062e-49
3.0955474e-60
8.438134e-72
6.6510867e-83
3.8003266e-93
-2.2034549e-102
1.6783792e-111
-4.3584102e-120
2.286333e-128
-1.3536415e-136
8.4040502e-145
-5.5567487e-153
3.8870617e-161
-2.8489367e-169
2.1869556e-177
-2.0044182e-182
-1.7386841e-182
-1.9245305e-182
-1.8316686e-182
-1.7616887e-182
-1.7626496e-182
-1.5910834e-182
-1.8095973e-182
-1.759043e-182
-1.9847204e-182
-2.0432282e-182
-2.3100915e-182
-3.1054587e-182
-4.4453744e-182
-2.4908875e-181
1.2493788e-181
8.3837107e-182
1.1634952e-180
-2.6249756e-181
1.9668505e-182
1.7050855e-181
2.4200869e-181
-1.3710214e-10
1.1600732e-23
-1.2961812e-36
5.1061096e-49
1.5431577e-60
3.0241312e-72
1.7191319e-83
7.4966338e-94
-2.3432413e-103
1.3816478e-112
-1.0290132e-120
-7.3718944e-129
-4.9108532e-137
-3.20245e-145
-1.994694e-153
-1.1928239e-161
-6.9100422e-170
-3.9064821e-178
-2.171904e-186
-9.5654725e-191
-1.0523854e-190
-9.9989354e-191
-9.6307767e-191
-9.7053048e-191
-8.8595358e-191
-1.0254194e-190
-1.022189e-190
-1.1852417e-190
-1.2764354e-190
-1.5320749e-190
-2.2278335e-190
-3.5451544e-190
-2.3098379e-189
1.4784973e-189
1.7145328e-189
5.0930578e-187
3.5867519e-188
1.6939216e-190
6.8997351e-190
6.2449238e-189
-1.3796914e-10
1.2219557e-23
-1.4238628e-36
5.959766e-49
1.2132997e-60
1.9290487e-72
8.8288594e-84
3.1191368e-94
-7.1297628e-104
3.4826481e-113
3.8881911e-121
8.8435429e-130
2.0226701e-138
4.6959416e-147
1.0848765e-155
2.4940671e-164
5.7054738e-173
1.3023567e-181
2.9700523e-190
4.5909152e-199
-2.405249e-199
-2.2839402e-199
-2.20599e-199
-2.2288552e-199
-2.0452006e-199
-2.3769034e-199
-2.3842856e-199
-2.7842659e-199
-3.0290232e-199
-3.6833401e-199
-5.4315389e-199
-8.8232374e-199
-5.9016018e-198
3.9157777e-198
4.8393834e-198
1.6045056e-195
1.2295912e-196
5.2682528e-199
2.8198685e-198
3.8353256e-196
-1.3838696e-10
1.2621279e-23
-1.5318474e-36
6.6991749e-49
1.2195113e-60
1.7974572e-72
7.4827469e-84
2.3256791e-94
-4.9468841e-104
2.2283179e-113
1.0262038e-121
1.6681176e-130
2.7695157e-139
4.7207435e-148
8.1010772e-157
1.3944735e-165
2.4122238e-174
4.1900174e-183
7.3065821e-192
1.277144e-200
-3.9985799e-208
-4.0140624e-208
-3.8838356e-208
-3.9327419e-208
-3.6115431e-208
-4.20571e-208
-4.2186845e-208
-4.93176e-208
-5.3559516e-208
-6.5121142e-208
-9.6016477e-208
-1.5581494e-207
-1.0409312e-206
6.9128679e-207
8.6206363e-207
2.9655877e-204
2.4706561e-205
1.2537201e-207
1.5185679e-206
-1.3808778e-202
-1.3882858e-10
1.2882013e-23
-1.6152426e-36
7.0771257e-49
1.4935408e-60
2.3303482e-72
9.9585776e-84
2.9974307e-94
-7.3644696e-104
3.4622221e-113
1.4991964e-121
2.36982e-130
3.8512852e-139
6.4727763e-148
1.1064074e-156
1.9097307e-165
3.3257167e-174
5.8411323e-183
1.0323897e-191
1.8355661e-200
3.274328e-209
-6.6061947e-217
-6.9670393e-217
-7.0641503e-217
-6.4775005e-217
-7.5320487e-217
-7.5283335e-217
-8.7596664e-217
-9.4455264e-217
-1.1390102e-216
-1.6619833e-216
-2.6600483e-216
-1.7472902e-215
1.1372436e-215
1.3953065e-215
4.8615204e-213
4.4703324e-214
3.1668031e-216
1.4712948e-214
8.2316079e-210
-1.3947095e-10
1.3094766e-23
-1.6825736e-36
7.100637e-49
2.479646e-60
4.67302e-72
2.3006052e-83
7.4050143e-94
-2.6326588e-103
1.4641833e-112
9.0680341e-121
1.7446726e-129
3.4449638e-138
7.1073826e-147
1.502185e-155
3.228893e-164
7.0327879e-173
1.5501425e-181
3.450444e-190
7.7423946e-199
1.7465548e-207
3.9575737e-216
7.3977363e-225
-1.5988154e-225
-1.4655017e-225
-1.6928052e-225
-1.6829171e-225
-1.938967e-225
-2.0623896e-225
-2.4453551e-225
-3.5016173e-225
-5.4725684e-225
-3.4986277e-224
2.1954302e-224
2.6077139e-224
9.0948802e-222
9.5057328e-223
1.1122952e-224
5.4468295e-222
-3.404628e-217
-1.4025337e-10
1.330936e-23
-1.7447867e-36
6.9737962e-49
1.6170943e-59
4.2275111e-71
2.6742018e-82
1.0126483e-92
-7.0413389e-102
5.2200749e-111
8.7710238e-119
2.5511694e-127
7.5810001e-136
2.3821368e-144
7.7289674e-153
2.5659083e-161
8.7014477e-170
2.998091e-178
1.0451198e-186
3.6918348e-195
1.3099268e-203
4.6794822e-212
1.6717117e-220
5.9285019e-229
-5.2096434e-234
-5.9579279e-234
-5.8644885e-234
-6.6506003e-234
-6.9368291e-234
-8.0213358e-234
-1.1147292e-233
-1.6850629e-233
-1.0316853e-232
6.1482281e-233
6.9778324e-233
2.4350972e-230
3.0477505e-231
7.5844436e-233
-2.1326036e-229
1.2517902e-224
-1.4101957e-10
1.3526571e-23
-1.8070758e-36
6.8806592e-49
-3.5249833e-60
-1.5089537e-71
-1.3617199e-82
-6.6256847e-93
1.9400843e-101
-2.1431042e-110
7.0202811e-118
4.1300741e-126
2.4399027e-134
1.5547958e-142
1.0410624e-150
7.2157806e-159
5.1622522e-167
3.771836e-175
2.8150077e-183
2.1105218e-191
1.5239649e-199
7.3207096e-208
-1.3534761e-215
-9.3139459e-223
-4.1570597e-230
-1.7105724e-237
-4.3416749e-242
-4.7779498e-242
-4.8330896e-242
-5.3799776e-242
-7.1522884e-242
-1.0239118e-241
-5.8920501e-241
3.2721774e-241
3.4885468e-241
1.2311717e-238
2.079503e-239
2.7380836e-240
4.082717e-237
-4.5989486e-232
-1.4163972e-10
1.3722907e-23
-1.8678466e-36
6.8953963e-49
-1.7822918e-60
-1.6276435e-71
-2.3259804e-82
-1.5739049e-92
-4.8918073e-101
8.9449808e-110
-1.0489658e-117
-2.5055698e-125
-5.4953892e-133
-1.4160778e-140
-4.1134969e-148
-1.3251303e-155
-4.7137263e-163
-1.7343266e-170
-6.8403874e-178
-2.8174397e-185
-1.2015364e-192
-5.2409901e-200
-2.2194045e-207
-9.505799e-215
-3.9077909e-222
-1.5732126e-229
-5.8329461e-237
-2.0261205e-244
-1.5295939e-249
-1.5377776e-249
-1.8244872e-249
-2.3672672e-249
-1.1604606e-248
5.6317692e-249
5.436492e-249
2.0773011e-246
9.5506886e-247
-5.8801994e-248
-6.8349351e-245
1.7679116e-239
-1.4206411e-10
1.3876991e-23
-1.9222216e-36
7.0110737e-49
-1.3568936e-60
-6.6705942e-71
-1.6913877e-81
-1.7033985e-91
-2.8488729e-100
9.5645329e-109
-9.454569e-117
3.2099605e-124
-1.3167245e-131
4.8755307e-139
-1.6906895e-146
5.6300506e-154
-1.8322023e-161
5.7994683e-169
-1.8055214e-176
5.5934084e-184
-1.6921677e-191
5.1855152e-199
-1.6016239e-206
4.9240783e-214
-1.5291919e-221
4.8719386e-229
-1.5731597e-236
5.1375827e-244
-1.7514759e-251
5.5505943e-257
7.0843927e-257
1.0094743e-256
5.3553915e-256
-3.1496429e-256
-3.1758899e-256
-8.6676187e-254
-1.9290262e-254
7.3346111e-256
1.2015961e-252
-7.2641611e-247
-1.4231449e-10
1.3982679e-23
-1.9661442e-36
7.1862809e-49
-1.2171597e-60
3.3923103e-71
1.7727764e-81
2.8041644e-91
4.4914095e-100
-3.1112458e-108
3.4310425e-116
-6.2940886e-124
1.2739415e-131
-2.5666403e-139
5.1177148e-147
-1.0330315e-154
2.0669539e-162
-4.1596608e-170
8.329364e-178
-1.6619934e-185
3.3463626e-193
-6.6706968e-201
1.3359338e-208
-2.6699467e-216
5.3983676e-224
-1.0742182e-231
2.1413654e-239
-4.35334e-247
8.9001468e-255
-1.8284985e-262
-1.4456091e-264
-2.0814389e-264
-1.1110833e-263
6.5033042e-264
6.3484868e-264
1.5169901e-261
2.5912477e-262
-8.6315026e-264
-2.3495921e-260
3.2761812e-254
-1.4244643e-10
1.4047942e-23
-1.9985438e-36
7.3761966e-49
-1.1819496e-60
1.7566229e-71
2.5422595e-81
6.5405763e-91
1.2236282e-99
-2.0448709e-107
2.992443e-115
-5.8057036e-123
1.2063134e-130
-2.5514746e-138
5.448833e-146
-1.173699e-153
2.5303944e-161
-5.4862458e-169
1.1950725e-176
-2.6234527e-184
5.7786534e-192
-1.260662e-199
2.7445339e-207
-6.0184425e-215
1.3143831e-222
-2.8839603e-230
6.250982e-238
-1.3385531e-245
2.8393852e-253
-6.0950538e-261
1.2694333e-268
4.291307e-272
2.3015681e-271
-1.2962086e-271
-1.1920682e-271
-2.5327692e-269
-3.5197057e-270
1.1105772e-271
5.1544669e-268
-1.4977191e-261
-1.4251489e-10
1.4086727e-23
-2.0211092e-36
7.5488277e-49
-1.1894561e-60
1.4331107e-71
1.6016062e-79
6.785768e-89
1.6223752e-97
-8.9983637e-105
1.9475695e-112
-4.9142232e-120
1.3490507e-127
-3.7433514e-135
1.0480213e-142
-2.9739313e-150
8.5761428e-158
-2.4415715e-165
7.1603268e-173
-2.0968169e-180
6.1219039e-188
-1.7883131e-195
5.108905e-203
-1.5024113e-210
4.3320815e-218
-1.2436724e-225
3.5522681e-233
-9.9877244e-241
2.7612429e-248
-7.6251178e-256
2.0913606e-263
-5.51655e-271
8.4366696e-279
3.2592706e-279
2.8373434e-279
5.0375012e-277
5.6400694e-278
-1.6435675e-279
-1.2515835e-275
7.2235789e-269
-1.4255727e-10
1.4111578e-23
-2.0367623e-36
7.6897556e-49
-1.2111194e-60
1.3411446e-71
-3.7455308e-81
-2.5950456e-90
-8.1938471e-99
1.8492159e-104
-6.2517474e-112
2.2687987e-119
-8.6899764e-127
3.4232062e-134
-1.3523793e-141
5.487739e-149
-2.2183846e-156
9.224514e-164
-3.6714867e-171
1.5269449e-178
-6.3303925e-186
2.6323484e-193
-1.053537e-200
4.3211279e-208
-1.7627938e-215
7.1381675e-223
-2.9062144e-230
1.1366611e-237
-4.4060873e-245
1.7064684e-252
-6.440298e-260
2.3959899e-267
-8.6517284e-275
2.9899091e-282
-9.2003517e-287
-1.2752662e-284
-1.0991145e-285
2.7083577e-287
3.4481694e-283
-3.6331961e-276
-1.4259222e-10
1.4130436e-23
-2.0482212e-36
7.7985832e-49
-1.2332549e-60
1.313992e-71
-2.3311085e-81
-2.6235518e-90
-1.0862372e-98
-2.5629251e-105
1.2724616e-112
-6.4057888e-120
3.4146055e-127
-1.7896501e-134
9.8432248e-142
-5.3548337e-149
2.9603869e-156
-1.5904922e-163
8.8761342e-171
-4.7663967e-178
2.6164396e-185
-1.4730967e-192
8.1395893e-200
-4.5235834e-207
2.4164035e-214
-1.295556e-221
6.9876344e-229
-3.7605955e-236
2.0280321e-243
-1.0349431e-250
5.1415706e-258
-2.5204564e-265
1.2187933e-272
-5.6465347e-280
2.3569555e-287
4.0853496e-292
2.4475248e-293
-4.7796752e-295
-1.0798582e-290
1.7887191e-283
-1.4262568e-10
1.4146897e-23
-2.0573208e-36
7.8819416e-49
-1.2508312e-60
1.3021435e-71
-1.8730408e-81
-3.5225429e-90
-1.8755447e-98
-3.830638e-105
2.2735465e-112
-1.4005937e-119
8.9752868e-127
-5.5174731e-134
3.5920779e-141
-2.3261194e-148
1.4901207e-155
-9.6014147e-163
6.2360505e-170
-4.0513615e-177
2.640643e-184
-1.6672187e-191
1.0368732e-198
-6.5954394e-206
4.1232433e-213
-2.5742751e-220
1.5844234e-227
-9.4566635e-235
5.6585765e-242
-3.4317064e-249
2.0385415e-256
-1.198248e-263
6.992458e-271
-3.842604e-278
1.846087e-285
-6.7837076e-293
1.0292285e-300
8.6805379e-303
4.0212586e-298
-9.2562346e-291
-1.426578e-10
1.4161932e-23
-2.0650189e-36
7.947547e-49
-1.2635043e-60
1.2908242e-71
-1.624863e-81
-5.9173676e-90
-3.9100671e-98
-1.1231421e-104
7.3582994e-112
-4.9421483e-119
3.1800781e-126
-2.1705985e-133
1.4472118e-140
-9.5065986e-148
6.1651431e-155
-4.0333184e-162
2.6559888e-169
-1.7700234e-176
1.1659218e-183
-7.7448977e-191
4.9952587e-198
-3.3207862e-205
2.1728822e-212
-1.3915989e-219
8.8172441e-227
-5.605648e-234
3.4973386e-241
-2.1801632e-248
1.3569031e-255
-8.3829058e-263
5.0766062e-270
-2.9489217e-277
1.5402182e-284
-5.8659316e-292
1.4561849e-299
-2.6561751e-307
-1.6931906e-305
4.7837574e-298
-1.4268724e-10
1.4175472e-23
-2.0717028e-36
8.0012501e-49
-1.2726585e-60
1.2781791e-71
-1.4568272e-81
-2.0736465e-89
-1.6992514e-97
-9.6167015e-104
6.3374187e-111
-3.9908031e-118
2.5864398e-125
-1.6705044e-132
1.0868271e-139
-6.9153991e-147
4.358937e-154
-2.7462593e-161
1.830347e-168
-1.1596972e-175
7.2523588e-183
-4.7104968e-190
3.0095738e-197
-1.9681279e-204
1.2450236e-211
-7.8951477e-219
4.9973969e-226
-3.0907974e-233
1.914884e-240
-1.1230692e-247
6.7836199e-255
-4.2039959e-262
2.6191459e-269
-1.485759e-276
7.7439851e-284
-2.9596554e-291
7.0919688e-299
-1.2912775e-306
6.18702e-313
-2.6478156e-305
-1.4271317e-10
1.4187324e-23
-2.0775048e-36
8.0465848e-49
-1.2797329e-60
1.2658591e-71
-1.3344393e-81
1.3482337e-89
1.3471043e-97
-1.0295694e-102
6.959825e-110
-4.3371461e-117
2.7011401e-124
-1.706432e-131
1.0876287e-138
-6.7541478e-146
4.3407873e-153
-2.800477e-160
1.7531582e-167
-1.1018128e-174
6.8111514e-182
-4.210822e-189
2.6916994e-196
-1.6532848e-203
9.9941648e-211
-6.3349829e-218
3.9238524e-225
-2.430276e-232
1.5165183e-239
-9.1612249e-247
5.6799091e-254
-3.3969835e-261
1.9864603e-268
-1.1512348e-275
5.9112179e-283
-2.2629641e-290
5.4840074e-298
-1.0105614e-305
6.422111e-314
6.0827957e-313
-1.4273543e-10
1.4197475e-23
-2.0824922e-36
8.0854272e-49
-1.2856433e-60
1.255334e-71
-1.2439832e-81
5.1337948e-90
6.3224874e-98
-6.6250692e-104
4.4351161e-111
-2.7608368e-118
1.7479996e-125
-1.1158286e-132
7.2593793e-140
-4.5556974e-147
2.9230363e-154
-1.844819e-161
1.169437e-168
-7.328681e-176
4.6268873e-183
-2.9410245e-190
1.8622809e-197
-1.1619656e-204
7.3834509e-212
-4.6835863e-219
2.774788e-226
-1.7337615e-233
1.0439571e-240
-6.419692e-248
3.890258e-255
-2.3971164e-262
1.4163607e-269
-8.044336e-277
4.1685265e-284
-1.5942285e-291
3.8571756e-299
-7.0925121e-307
3.4841673e-313
-1.1336684e-312
-1.4275431e-10
1.4206077e-23
-2.0867423e-36
8.118811e-49
-1.2908174e-60
1.2470659e-71
-1.1769548e-81
3.2528706e-90
5.0017204e-98
-4.6302156e-104
3.1656019e-111
-1.9895545e-118
1.2750184e-125
-8.2337422e-133
5.3526982e-140
-3.3636265e-147
2.1661353e-154
-1.3735026e-161
8.6323004e-169
-5.6500295e-176
3.5693018e-183
-2.2775223e-190
1.4217725e-197
-9.1208609e-205
5.8407548e-212
-3.7140709e-219
2.3415783e-226
-1.4483115e-233
8.8242952e-241
-5.4357548e-248
3.3393095e-255
-1.987705e-262
1.2371191e-269
-7.1581762e-277
3.8229443e-284
-1.4590964e-291
3.6372606e-299
-6.6989127e-307
-4.106841e-313
-4.7060969e-314
-1.427704e-10
1.4213366e-23
-2.0903523e-36
8.1474635e-49
-1.2954115e-60
1.2408724e-71
-1.1268956e-81
2.4354652e-90
4.6802305e-98
-2.6608402e-104
1.9291128e-111
-1.2570671e-118
8.4145599e-126
-5.2483171e-133
3.4731367e-140
-2.2448514e-147
1.4553048e-154
-9.4508718e-162
5.9833165e-169
-3.8752581e-176
2.4872245e-183
-1.6306983e-190
1.0867417e-197
-7.0145281e-205
4.6695395e-212
-2.9579166e-219
1.8976772e-226
-1.1562017e-233
7.6196893e-241
-4.7424984e-248
2.982032e-255
-1.8249687e-262
1.1192268e-269
-6.707527e-277
3.562258e-284
-1.3743582e-291
3.4814718e-299
-6.5333126e-307
-1.6926202e-313
1.4497915e-313
-1.427841e-10
1.4219559e-23
-2.0934197e-36
8.1720077e-49
-1.2994727e-60
1.2362624e-71
-1.0888561e-81
1.9934322e-90
4.9817668e-98
-2.4926306e-104
1.7861947e-111
-1.1953372e-118
8.0568948e-126
-5.3167092e-133
3.5317208e-140
-2.3542419e-147
1.5141552e-154
-1.0335418e-161
6.9901118e-169
-4.8397978e-176
3.1376807e-183
-2.0537536e-190
1.3842263e-197
-9.120294e-205
5.9089539e-212
-3.8930616e-219
2.5169406e-226
-1.6461216e-233
1.0520506e-240
-6.6685796e-248
4.1884367e-255
-2.6745453e-262
1.7285843e-269
-1.0876771e-276
5.9704923e-284
-2.415652e-291
6.1614246e-299
-1.1696882e-306
-2.4473077e-313
-3.4112292e-313
-1.4279582e-10
1.4224848e-23
-2.096035e-36
8.1930344e-49
-1.3030334e-60
1.232776e-71
-1.0594674e-81
1.7213954e-90
5.880427e-98
-2.5171547e-104
1.8654352e-111
-1.2344206e-118
8.701358e-126
-5.9734589e-133
4.0028553e-140
-2.6763955e-147
1.883835e-154
-1.2793037e-161
8.4288371e-169
-5.6896183e-176
3.9138983e-183
-2.6735388e-190
1.8383552e-197
-1.2214167e-204
7.8774035e-212
-5.4469768e-219
3.5459988e-226
-2.3946538e-233
1.6068698e-240
-1.0745548e-247
7.159025e-255
-4.7357375e-262
3.0283789e-269
-1.8837035e-276
1.0494449e-283
-4.2627557e-291
1.0799608e-298
-2.0571837e-306
2.7528517e-313
-2.2054667e-313
-1.4280592e-10
1.4229386e-23
-2.0982742e-36
8.2110771e-49
-1.306139e-60
1.2301006e-71
-1.0362263e-81
1.5370798e-90
7.2867809e-98
-2.0521629e-104
1.5475797e-111
-1.0658256e-118
7.5588077e-126
-5.1790409e-133
3.5645415e-140
-2.5071238e-147
1.8430847e-154
-1.2728628e-161
8.9375383e-169
-6.1646849e-176
4.3651896e-183
-3.0412313e-190
2.0655322e-197
-1.418323e-204
9.8249083e-212
-6.7892114e-219
4.5653367e-226
-3.0844472e-233
2.05594e-240
-1.3616946e-247
8.7821635e-255
-5.8061922e-262
3.8856583e-269
-2.4933362e-276
1.3889478e-283
-5.6227877e-291
1.4425804e-298
-2.7689418e-306
-4.8207605e-313
-3.3410328e-313
-1.4281461e-10
1.4233289e-23
-2.1001975e-36
8.2265991e-49
-1.3088388e-60
1.2279963e-71
-1.017563e-81
1.4079723e-90
9.6580954e-98
-3.6493779e-104
2.7675408e-111
-2.0468987e-118
1.4255464e-125
-9.7812847e-133
6.9307092e-140
-4.9145928e-147
3.5234047e-154
-2.5397669e-161
1.8096571e-168
-1.3157125e-175
9.3774836e-183
-6.3754107e-190
4.6531813e-197
-3.2592674e-204
2.3224704e-211
-1.5963097e-218
1.10878e-225
-7.4173319e-233
5.2303916e-240
-3.5915747e-247
2.5401118e-254
-1.735596e-261
1.1473683e-268
-7.4411893e-276
4.2476445e-283
-1.7569695e-290
4.5702533e-298
-8.7759004e-306
-3.8305545e-313