/*--------------------------------*- C++ -*----------------------------------*\
  =========                 |
  \\      /  F ield         | OpenFOAM: The Open Source CFD Toolbox
   \\    /   O peration     | Website:  https://openfoam.org
    \\  /    A nd           | Version:  10
     \\/     M anipulation  |
\*---------------------------------------------------------------------------*/
FoamFile
{
    format      ascii;
    class       volVectorField;
    location    "0.05";
    object      U;
}
// * * * * * * * * * * * * * * * * * * * * * * * * * * * * * * * * * * * * * //

dimensions      [0 1 -1 0 0 0 0];

internalField   nonuniform List<vector> 
4000
(
(0 0.018604553 0.47774767)
(0 0.023449809 0.50885115)
(0 0.0081137936 0.50052698)
(0 0.0055633672 0.50033762)
(0 0.0042011245 0.50025754)
(0 0.0032015522 0.50016873)
(0 0.0025043656 0.50011928)
(0 0.0020052931 0.50008958)
(0 0.0016302894 0.50006914)
(0 0.0013393866 0.50005464)
(0 0.0011080999 0.50004418)
(0 0.00092000852 0.50003648)
(0 0.00076379953 0.50003071)
(0 0.00063145454 0.50002635)
(0 0.0005171153 0.50002305)
(0 0.00041638125 0.50002055)
(0 0.0003258531 0.50001868)
(0 0.00024282298 0.50001734)
(0 0.0001650568 0.50001643)
(0 9.0634372e-05 0.50001591)
(0 1.7826526e-05 0.50001574)
(0 -5.5014595e-05 0.50001592)
(0 -0.00012954728 0.50001647)
(0 -0.00020753341 0.5000174)
(0 -0.00029095236 0.50001879)
(0 -0.00038213244 0.50002073)
(0 -0.00048392559 0.50002333)
(0 -0.00059995015 0.50002679)
(0 -0.00073494293 0.50003139)
(0 -0.00089529485 0.50003753)
(0 -0.0010899096 0.50004583)
(0 -0.0013315817 0.50005727)
(0 -0.001639251 0.5000733)
(0 -0.0020435084 0.50009645)
(0 -0.0026006417 0.50013442)
(0 -0.0033938514 0.50020246)
(0 -0.0044891441 0.50027305)
(0 -0.0065132024 0.50043618)
(0 -0.017582188 0.50674233)
(0 -0.013549371 0.47977758)
(0 0.037340223 0.44807981)
(0 0.050770402 0.53231034)
(0 0.021790638 0.50804199)
(0 0.015970381 0.5035809)
(0 0.012244069 0.50242361)
(0 0.0093460338 0.50162029)
(0 0.0073567512 0.50115221)
(0 0.00591409 0.50086012)
(0 0.0048185543 0.50066115)
(0 0.0039651832 0.5005214)
(0 0.0032846694 0.50042086)
(0 0.0027298229 0.50034694)
(0 0.0022680945 0.50029172)
(0 0.0018762746 0.50025008)
(0 0.0015373173 0.50021853)
(0 0.0012383731 0.5001947)
(0 0.00096948751 0.50017694)
(0 0.00072271183 0.50016412)
(0 0.00049147517 0.50015546)
(0 0.00027012085 0.50015047)
(0 5.354841e-05 0.50014887)
(0 -0.00016309998 0.5001506)
(0 -0.00038471315 0.50015576)
(0 -0.00061648551 0.50016467)
(0 -0.00086424348 0.5001779)
(0 -0.0011348288 0.50019628)
(0 -0.0014366029 0.50022109)
(0 -0.0017801452 0.50025415)
(0 -0.0021792583 0.50029812)
(0 -0.0026524715 0.50035693)
(0 -0.0032254383 0.50043661)
(0 -0.0039349376 0.50054673)
(0 -0.0048346488 0.50070252)
(0 -0.0060052305 0.50092977)
(0 -0.0075963563 0.50129015)
(0 -0.0098864646 0.50191091)
(0 -0.012876402 0.50283573)
(0 -0.017187827 0.50608504)
(0 -0.038517248 0.52524642)
(0 -0.027774912 0.45037128)
(0 0.039745483 0.41012378)
(0 0.061103973 0.5493338)
(0 0.031644121 0.52186315)
(0 0.024056169 0.51009183)
(0 0.018886146 0.50658835)
(0 0.014675931 0.50451919)
(0 0.011717706 0.50325743)
(0 0.0094980663 0.50244043)
(0 0.0077806208 0.5018802)
(0 0.0064289152 0.50148571)
(0 0.0053421459 0.50120092)
(0 0.0044503976 0.50099101)
(0 0.00370465 0.500834)
(0 0.0030693091 0.50071542)
(0 0.0025179113 0.5006255)
(0 0.0020303273 0.50055754)
(0 0.0015908454 0.50050686)
(0 0.0011868426 0.50047025)
(0 0.00080783256 0.5004455)
(0 0.0004447532 0.50043122)
(0 8.9411663e-05 0.50042662)
(0 -0.00026600033 0.50043151)
(0 -0.00062934041 0.50044621)
(0 -0.0010089442 0.50047162)
(0 -0.0014141308 0.50050932)
(0 -0.0018557953 0.50056173)
(0 -0.0023471769 0.50063239)
(0 -0.0029049071 0.50072648)
(0 -0.0035504951 0.5008515)
(0 -0.0043124718 0.50101852)
(0 -0.005229632 0.50124429)
(0 -0.0063565881 0.50155521)
(0 -0.0077715065 0.50199382)
(0 -0.0095798913 0.50262911)
(0 -0.011955513 0.50360112)
(0 -0.015290057 0.50519808)
(0 -0.019457448 0.50787265)
(0 -0.024736861 0.51640178)
(0 -0.046985424 0.53915221)
(0 -0.030657185 0.41530367)
(0 0.034610138 0.36233343)
(0 0.063362563 0.55471391)
(0 0.038836091 0.53742186)
(0 0.029619012 0.51849304)
(0 0.023648408 0.51197245)
(0 0.018828203 0.50847858)
(0 0.015305359 0.50623296)
(0 0.01254777 0.50471642)
(0 0.010365347 0.50365983)
(0 0.008620129 0.50290748)
(0 0.0071983449 0.50235948)
(0 0.0060198432 0.50195304)
(0 0.0050264493 0.50164767)
(0 0.0041746583 0.50141625)
(0 0.0034315029 0.5012403)
(0 0.0027715221 0.50110701)
(0 0.0021745897 0.50100746)
(0 0.0016243689 0.50093542)
(0 0.0011071759 0.50088667)
(0 0.0006111105 0.50085848)
(0 0.00012536715 0.50084936)
(0 -0.00036037064 0.5008589)
(0 -0.00085648222 0.50088773)
(0 -0.0013739447 0.50093761)
(0 -0.0019249651 0.50101156)
(0 -0.002523711 0.50111426)
(0 -0.0031872356 0.50125252)
(0 -0.0039367063 0.50143619)
(0 -0.0047990997 0.5016795)
(0 -0.0058095432 0.50200322)
(0 -0.0070144598 0.50243827)
(0 -0.0084768773 0.50303217)
(0 -0.010285377 0.50386047)
(0 -0.012548591 0.50504074)
(0 -0.015403385 0.50677367)
(0 -0.01925678 0.50945881)
(0 -0.024091051 0.51428688)
(0 -0.030391111 0.5282021)
(0 -0.049667066 0.54424346)
(0 -0.028169537 0.37322706)
(0 0.027216027 0.31583978)
(0 0.061679606 0.55063007)
(0 0.043822986 0.55138923)
(0 0.033311129 0.52745062)
(0 0.026816991 0.51770307)
(0 0.021831192 0.51287857)
(0 0.018044507 0.50967261)
(0 0.014972348 0.50742155)
(0 0.012491164 0.50582017)
(0 0.010470365 0.50466088)
(0 0.0087977742 0.50380564)
(0 0.0073939831 0.50316549)
(0 0.0061985795 0.50268114)
(0 0.0051648767 0.50231208)
(0 0.004256686 0.50203025)
(0 0.0034454924 0.50181603)
(0 0.0027083733 0.50165559)
(0 0.0020264649 0.50153924)
(0 0.0013837898 0.50146034)
(0 0.00076633271 0.5014146)
(0 0.00016129369 0.50139969)
(0 -0.00044357888 0.50141493)
(0 -0.0010606068 0.50146134)
(0 -0.0017027668 0.50154165)
(0 -0.0023843882 0.50166063)
(0 -0.0031219392 0.50182554)
(0 -0.0039349936 0.502047)
(0 -0.004847471 0.50234013)
(0 -0.0058892812 0.50272656)
(0 -0.007098537 0.50323745)
(0 -0.0085241003 0.50391813)
(0 -0.010229289 0.50483605)
(0 -0.01230222 0.5060953)
(0 -0.014849343 0.5078528)
(0 -0.017960344 0.51033787)
(0 -0.022001228 0.51402466)
(0 -0.027258263 0.52111789)
(0 -0.034645521 0.53923385)
(0 -0.049576482 0.54201351)
(0 -0.023752204 0.33197937)
(0 0.0196127 0.27666733)
(0 0.057194586 0.54051427)
(0 0.046286884 0.56248325)
(0 0.035550825 0.53649226)
(0 0.028774322 0.52345376)
(0 0.02385389 0.51732934)
(0 0.019998166 0.51326339)
(0 0.016785788 0.51032768)
(0 0.014146636 0.50819555)
(0 0.011957511 0.50662482)
(0 0.010116153 0.50545)
(0 0.0085499807 0.50456127)
(0 0.0072009442 0.50388308)
(0 0.0060229586 0.50336278)
(0 0.004979478 0.50296329)
(0 0.0040410513 0.5026583)
(0 0.0031835486 0.50242906)
(0 0.0023867936 0.50226232)
(0 0.001633469 0.50214896)
(0 0.00090822712 0.50208305)
(0 0.00019695339 0.50206134)
(0 -0.00051390315 0.50208289)
(0 -0.0012379641 0.50214909)
(0 -0.0019895038 0.50226373)
(0 -0.0027841551 0.50243336)
(0 -0.0036396761 0.50266794)
(0 -0.0045768707 0.50298188)
(0 -0.0056207225 0.50339554)
(0 -0.0068018299 0.50393764)
(0 -0.0081583589 0.50464885)
(0 -0.0097381145 0.50558719)
(0 -0.01160026 0.50683629)
(0 -0.013826169 0.50852111)
(0 -0.016520678 0.51082644)
(0 -0.019740753 0.51399986)
(0 -0.023785427 0.518652)
(0 -0.029247753 0.5281118)
(0 -0.037163971 0.54859031)
(0 -0.047339991 0.53490624)
(0 -0.018674732 0.29608411)
(0 0.012846778 0.24457513)
(0 0.050843542 0.52651015)
(0 0.046311937 0.57021811)
(0 0.036519595 0.54529773)
(0 0.02973546 0.5291697)
(0 0.025024051 0.52167699)
(0 0.021253393 0.51684033)
(0 0.018040801 0.51329356)
(0 0.015356125 0.51067057)
(0 0.013088737 0.50870823)
(0 0.011151567 0.50722195)
(0 0.0094814598 0.50608569)
(0 0.0080254284 0.5052109)
(0 0.006740602 0.50453481)
(0 0.0055922033 0.50401258)
(0 0.0045515485 0.5036119)
(0 0.0035946701 0.5033095)
(0 0.0027011799 0.50308881)
(0 0.0018533223 0.50293831)
(0 0.0010351812 0.50285049)
(0 0.00023200552 0.50282119)
(0 -0.00057041419 0.50284924)
(0 -0.0013863529 0.50293637)
(0 -0.0022306874 0.50308738)
(0 -0.0031195633 0.50331053)
(0 -0.004071089 0.50361833)
(0 -0.005106153 0.50402871)
(0 -0.0062493989 0.50456678)
(0 -0.0075303845 0.50526751)
(0 -0.0089852107 0.50617963)
(0 -0.010658419 0.50737166)
(0 -0.012602995 0.50894029)
(0 -0.0148893 0.51102589)
(0 -0.01761588 0.51383252)
(0 -0.020818586 0.51763581)
(0 -0.024735701 0.52329867)
(0 -0.030175011 0.53510282)
(0 -0.037827827 0.55575763)
(0 -0.043439105 0.52442121)
(0 -0.013643951 0.26566788)
(0 0.0075256014 0.21818926)
(0 0.043709681 0.5100494)
(0 0.044503361 0.57448501)
(0 0.036428737 0.55337179)
(0 0.029874375 0.53473148)
(0 0.025459165 0.52582919)
(0 0.021896863 0.52030108)
(0 0.018796849 0.51622398)
(0 0.016156766 0.51316127)
(0 0.013885955 0.51084011)
(0 0.011915654 0.5090629)
(0 0.010193344 0.50769105)
(0 0.008672923 0.50662588)
(0 0.0073164851 0.50579669)
(0 0.0060924863 0.50515226)
(0 0.0049742807 0.50465526)
(0 0.0039391507 0.50427856)
(0 0.0029674174 0.50400263)
(0 0.0020416754 0.50381382)
(0 0.0011461325 0.50370318)
(0 0.0002660312 0.50366575)
(0 -0.00061289425 0.50370009)
(0 -0.0015049658 0.50380826)
(0 -0.0024250207 0.50399596)
(0 -0.0033890055 0.50427299)
(0 -0.0044145647 0.5046541)
(0 -0.005521721 0.50516029)
(0 -0.0067336705 0.50582074)
(0 -0.0080776524 0.50667562)
(0 -0.0095861599 0.50778028)
(0 -0.011298763 0.50921166)
(0 -0.013261038 0.51107713)
(0 -0.015529554 0.51352878)
(0 -0.018189229 0.51678206)
(0 -0.021261745 0.52115552)
(0 -0.024956597 0.52786144)
(0 -0.030189953 0.54172388)
(0 -0.036948647 0.56042614)
(0 -0.038571637 0.51160569)
(0 -0.0092070528 0.23991638)
(0 0.0037555385 0.19690522)
(0 0.036618276 0.49246815)
(0 0.041545581 0.57559114)
(0 0.035527204 0.5602824)
(0 0.029390021 0.53996429)
(0 0.025309179 0.52969817)
(0 0.022030671 0.52355721)
(0 0.019122354 0.51903813)
(0 0.01659508 0.51559739)
(0 0.014380826 0.51295997)
(0 0.012429254 0.51092125)
(0 0.010698782 0.50933369)
(0 0.0091513429 0.50809134)
(0 0.0077550482 0.50711755)
(0 0.0064825302 0.50635621)
(0 0.0053100756 0.50576603)
(0 0.0042170265 0.50531673)
(0 0.0031851344 0.50498637)
(0 0.0021979912 0.5047595)
(0 0.0012405176 0.50462595)
(0 0.00029850027 0.50458003)
(0 -0.00064185099 0.50462008)
(0 -0.001594369 0.50474845)
(0 -0.0025732919 0.50497157)
(0 -0.0035937638 0.50530054)
(0 -0.0046722968 0.50575197)
(0 -0.0058272972 0.50634938)
(0 -0.0070796701 0.5071252)
(0 -0.0084534169 0.50812374)
(0 -0.0099763607 0.50940546)
(0 -0.011681807 0.51105365)
(0 -0.013607196 0.51318379)
(0 -0.015794852 0.51595589)
(0 -0.018311954 0.51958996)
(0 -0.021172215 0.52446475)
(0 -0.024588168 0.5321865)
(0 -0.029477965 0.54759944)
(0 -0.034962893 0.56263179)
(0 -0.03334086 0.497519)
(0 -0.0056428138 0.21850869)
(0 0.0013011878 0.18025158)
(0 0.030044106 0.47491932)
(0 0.037964393 0.57412416)
(0 0.03402888 0.5658301)
(0 0.028464455 0.54474309)
(0 0.024730888 0.53323111)
(0 0.021766114 0.52654556)
(0 0.019094822 0.52167242)
(0 0.016726356 0.51792214)
(0 0.014612789 0.51501785)
(0 0.012720118 0.51275327)
(0 0.011017092 0.51097566)
(0 0.0094739669 0.50957447)
(0 0.0080652429 0.50846905)
(0 0.0067682113 0.50759984)
(0 0.005562644 0.50692266)
(0 0.0044304885 0.50640489)
(0 0.0033554482 0.5060227)
(0 0.0023226074 0.50575924)
(0 0.0013180701 0.50560336)
(0 0.00032861813 0.50554878)
(0 -0.00065861976 0.50559367)
(0 -0.001656541 0.50574055)
(0 -0.0026783263 0.50599646)
(0 -0.0037378345 0.50637348)
(0 -0.0048499328 0.50688966)
(0 -0.0060308614 0.50757042)
(0 -0.0072986472 0.50845061)
(0 -0.0086734723 0.50957753)
(0 -0.01017794 0.51101523)
(0 -0.011838447 0.51285125)
(0 -0.01368418 0.51520631)
(0 -0.015744522 0.51824453)
(0 -0.01806886 0.52218775)
(0 -0.020668406 0.52749606)
(0 -0.023772282 0.53615527)
(0 -0.028202153 0.55250494)
(0 -0.032244426 0.5626915)
(0 -0.02814355 0.48313157)
(0 -0.0029714159 0.20122723)
(0 -0.00016851204 0.16748528)
(0 0.024225442 0.45819285)
(0 0.034124189 0.57072635)
(0 0.032103289 0.57000173)
(0 0.027234057 0.54900614)
(0 0.023854563 0.53641756)
(0 0.021205106 0.52923986)
(0 0.0187913 0.52408936)
(0 0.016608913 0.52009715)
(0 0.014625327 0.51697722)
(0 0.012820281 0.51452529)
(0 0.011171744 0.51258657)
(0 0.0096578577 0.51104815)
(0 0.0082593194 0.50982709)
(0 0.0069581735 0.5088617)
(0 0.0057379191 0.50810597)
(0 0.0045834106 0.50752564)
(0 0.0034806359 0.50709562)
(0 0.0024165168 0.50679801)
(0 0.0013786878 0.50662095)
(0 0.00035527123 0.5065577)
(0 -0.00066534052 0.50660628)
(0 -0.0016947619 0.50676934)
(0 -0.002744766 0.50705431)
(0 -0.0038275712 0.50747397)
(0 -0.004956042 0.50804736)
(0 -0.0061439018 0.50880118)
(0 -0.0074059637 0.50977184)
(0 -0.0087583241 0.51100853)
(0 -0.01021827 0.51257744)
(0 -0.01180526 0.51456849)
(0 -0.013540513 0.51710502)
(0 -0.015442179 0.52035228)
(0 -0.017543854 0.52453598)
(0 -0.019858423 0.53021847)
(0 -0.022626844 0.53969733)
(0 -0.026498394 0.55635423)
(0 -0.02908898 0.56102645)
(0 -0.02322606 0.4691587)
(0 -0.0010734323 0.18762207)
(0 -0.00095310097 0.15780295)
(0 0.0192517 0.44274458)
(0 0.030271132 0.56597098)
(0 0.029893434 0.57287912)
(0 0.02579859 0.55272113)
(0 0.02277916 0.53926566)
(0 0.020432798 0.53164015)
(0 0.01828121 0.5262743)
(0 0.016298416 0.52210141)
(0 0.014462158 0.51881485)
(0 0.012763616 0.51621388)
(0 0.011188765 0.51414392)
(0 0.0097228277 0.51249133)
(0 0.0083522033 0.51117225)
(0 0.0070635083 0.510124)
(0 0.0058439651 0.5092996)
(0 0.0046814328 0.50866391)
(0 0.0035643519 0.50819102)
(0 0.0024816896 0.5078624)
(0 0.0014228407 0.50766571)
(0 0.00037751043 0.50759389)
(0 -0.00066439938 0.50764484)
(0 -0.0017129712 0.50782124)
(0 -0.002778328 0.50813077)
(0 -0.0038708139 0.50858661)
(0 -0.0050010782 0.50920833)
(0 -0.006180155 0.51002332)
(0 -0.0074195278 0.5110688)
(0 -0.0087311879 0.5123948)
(0 -0.010127302 0.51406846)
(0 -0.011620752 0.5161805)
(0 -0.013225243 0.51885486)
(0 -0.014949167 0.52225596)
(0 -0.016812971 0.52661835)
(0 -0.018834084 0.53262048)
(0 -0.021249841 0.54276559)
(0 -0.024491651 0.55914268)
(0 -0.025731514 0.55805079)
(0 -0.018735067 0.45606099)
(0 0.00021515313 0.17712638)
(0 -0.0012901912 0.15054257)
(0 0.015106189 0.42881336)
(0 0.026558172 0.56033787)
(0 0.027520148 0.57459054)
(0 0.024235614 0.55586894)
(0 0.02158144 0.54178398)
(0 0.019520484 0.53375739)
(0 0.017625717 0.528226)
(0 0.01584609 0.52392601)
(0 0.014165499 0.52051786)
(0 0.012584475 0.51780417)
(0 0.011095822 0.51563213)
(0 0.0096909525 0.51388852)
(0 0.0083613549 0.51248956)
(0 0.0070978833 0.51137251)
(0 0.0058913151 0.51049013)
(0 0.0047324657 0.50980699)
(0 0.0036122658 0.50929682)
(0 0.0025218214 0.50894081)
(0 0.0014524153 0.50872631)
(0 0.00039548313 0.50864611)
(0 -0.00065740755 0.50869798)
(0 -0.0017146506 0.5088846)
(0 -0.002784573 0.50921369)
(0 -0.0038755198 0.50969856)
(0 -0.0049958358 0.51035896)
(0 -0.006153835 0.51122241)
(0 -0.0073577228 0.51232626)
(0 -0.0086155409 0.51372055)
(0 -0.009934695 0.51547229)
(0 -0.011322057 0.51767185)
(0 -0.012784422 0.52044213)
(0 -0.014321758 0.52394558)
(0 -0.015944079 0.52843134)
(0 -0.017674541 0.53469669)
(0 -0.019727471 0.54532597)
(0 -0.022299686 0.5609171)
(0 -0.022350428 0.55413585)
(0 -0.014739506 0.44411742)
(0 0.0010509773 0.16922314)
(0 -0.0013546095 0.14519202)
(0 0.011704667 0.41650382)
(0 0.023067123 0.55421671)
(0 0.025079251 0.57528723)
(0 0.022606314 0.55844412)
(0 0.020322002 0.5439786)
(0 0.01852819 0.535606)
(0 0.016878275 0.52995033)
(0 0.015298128 0.52556961)
(0 0.013774796 0.52208062)
(0 0.012316147 0.51928786)
(0 0.010920714 0.51704129)
(0 0.0095852335 0.51522902)
(0 0.008305641 0.51376811)
(0 0.0070766217 0.51259639)
(0 0.0058922463 0.51166701)
(0 0.0047461432 0.51094466)
(0 0.0036316792 0.51040315)
(0 0.0025421036 0.5100236)
(0 0.0014706315 0.5097933)
(0 0.0004104978 0.50970496)
(0 -0.00064498627 0.50975626)
(0 -0.0017024476 0.50994979)
(0 -0.0027683543 0.5102932)
(0 -0.0038490146 0.51079967)
(0 -0.0049504752 0.51148877)
(0 -0.0060784026 0.51238775)
(0 -0.0072378905 0.51353349)
(0 -0.008433305 0.51497535)
(0 -0.0096677482 0.51677938)
(0 -0.010942783 0.51903458)
(0 -0.012259051 0.52186151)
(0 -0.013609468 0.52542027)
(0 -0.014996148 0.5299797)
(0 -0.016447066 0.53644665)
(0 -0.018135016 0.5473614)
(0 -0.020028793 0.56176148)
(0 -0.019074734 0.54959967)
(0 -0.011253984 0.43347776)
(0 0.0015555986 0.16348069)
(0 -0.0012651343 0.14134069)
(0 0.0089357375 0.40582833)
(0 0.019835638 0.54791069)
(0 0.022643587 0.57512386)
(0 0.020957255 0.56045475)
(0 0.019046139 0.5458553)
(0 0.017503124 0.53720209)
(0 0.016082275 0.5314578)
(0 0.014692904 0.52703619)
(0 0.013323475 0.52350281)
(0 0.011987311 0.52066167)
(0 0.010687712 0.51836613)
(0 0.0094259343 0.51650627)
(0 0.0082017494 0.51500058)
(0 0.0070132401 0.51378799)
(0 0.0058574649 0.51282244)
(0 0.0047306688 0.51206917)
(0 0.0036285389 0.51150232)
(0 0.0025464088 0.51110319)
(0 0.0014794066 0.51085918)
(0 0.00042257088 0.51076298)
(0 -0.0006290285 0.51081221)
(0 -0.0016802377 0.51100932)
(0 -0.002735667 0.51136175)
(0 -0.003799617 0.51188236)
(0 -0.004875909 0.51259026)
(0 -0.0059677009 0.51351205)
(0 -0.0070772085 0.51468371)
(0 -0.0082054669 0.51615334)
(0 -0.009351778 0.51798536)
(0 -0.01051316 0.52026661)
(0 -0.011684965 0.52311435)
(0 -0.012854431 0.52668649)
(0 -0.014018052 0.53127522)
(0 -0.015206127 0.53787734)
(0 -0.016535792 0.54887538)
(0 -0.017772462 0.56178409)
(0 -0.016001127 0.54470295)
(0 -0.0082693903 0.42419056)
(0 0.0018092712 0.15952427)
(0 -0.0010964584 0.13865468)
(0 0.006692281 0.39673465)
(0 0.016881642 0.5416446)
(0 0.020269598 0.57424549)
(0 0.019322831 0.5619199)
(0 0.017783902 0.54742095)
(0 0.016477295 0.53856257)
(0 0.015267905 0.5327622)
(0 0.014057452 0.52833372)
(0 0.012835063 0.52478814)
(0 0.011617884 0.52192624)
(0 0.010413195 0.51960505)
(0 0.009226081 0.51771712)
(0 0.0080595997 0.51618279)
(0 0.0069148182 0.51494247)
(0 0.0057914714 0.51395119)
(0 0.0046882008 0.51317506)
(0 0.0036028607 0.51258876)
(0 0.0025327658 0.512174)
(0 0.001474888 0.51191835)
(0 0.00042602391 0.5118146)
(0 -0.00061703567 0.51186029)
(0 -0.0016573938 0.5120577)
(0 -0.0026978539 0.51241394)
(0 -0.0037407851 0.5129414)
(0 -0.0047878996 0.51365849)
(0 -0.0058400187 0.51459089)
(0 -0.0068967368 0.51577331)
(0 -0.0079561172 0.51725218)
(0 -0.0090141455 0.51908979)
(0 -0.010064016 0.52137019)
(0 -0.01109668 0.5242068)
(0 -0.012094918 0.52775586)
(0 -0.013051592 0.53233471)
(0 -0.013996705 0.53900342)
(0 -0.014984302 0.54989212)
(0 -0.015614553 0.56110802)
(0 -0.013211477 0.53965365)
(0 -0.0057776546 0.41622654)
(0 0.0018627129 0.157009)
(0 -0.00089321265 0.13686622)
(0 0.0048877556 0.38912774)
(0 0.014220228 0.53557876)
(0 0.018005873 0.57278539)
(0 0.017731108 0.56287005)
(0 0.016554701 0.54868513)
(0 0.015470704 0.53970432)
(0 0.014454607 0.5338791)
(0 0.013409304 0.5294729)
(0 0.012324487 0.52594332)
(0 0.011219862 0.52308537)
(0 0.010106071 0.52075962)
(0 0.0089914985 0.51886146)
(0 0.0078820443 0.5173134)
(0 0.0067814004 0.51605758)
(0 0.005691691 0.51505042)
(0 0.0046137301 0.51425906)
(0 0.0035473658 0.51365896)
(0 0.0024917578 0.51323232)
(0 0.0014456133 0.51296704)
(0 0.00040739637 0.51285602)
(0 -0.00062446425 0.51289675)
(0 -0.0016514114 0.51309129)
(0 -0.0026745362 0.51344635)
(0 -0.0036943896 0.51397368)
(0 -0.0047107193 0.51469084)
(0 -0.0057221968 0.51562234)
(0 -0.0067260424 0.51680134)
(0 -0.0077176752 0.51827233)
(0 -0.0086901711 0.52009508)
(0 -0.0096334707 0.52235045)
(0 -0.010534926 0.52514779)
(0 -0.011373784 0.52864252)
(0 -0.012140724 0.53317704)
(0 -0.012864229 0.53984581)
(0 -0.013535163 0.55045539)
(0 -0.013633804 0.5598661)
(0 -0.010779655 0.53461635)
(0 -0.0037754623 0.4094994)
(0 0.0017539563 0.15560284)
(0 -0.00068221219 0.13576093)
(0 0.0034589284 0.38288341)
(0 0.011873193 0.52982154)
(0 0.015903931 0.57086845)
(0 0.016216253 0.56334987)
(0 0.015381199 0.54966255)
(0 0.014505204 0.54064406)
(0 0.01366425 0.53482477)
(0 0.012768834 0.53046635)
(0 0.011809645 0.52697766)
(0 0.010808145 0.52414575)
(0 0.0097779517 0.52183443)
(0 0.0087303998 0.51994222)
(0 0.007673921 0.51839402)
(0 0.0066145465 0.51713393)
(0 0.0055565397 0.51611996)
(0 0.0045026707 0.51532045)
(0 0.0034545928 0.51471177)
(0 0.002413147 0.51427676)
(0 0.0013786303 0.51400371)
(0 0.0003510402 0.51388567)
(0 -0.00066968525 0.5139201)
(0 -0.0016834592 0.51410879)
(0 -0.0026897995 0.51445796)
(0 -0.0036875929 0.51497865)
(0 -0.0046747994 0.51568738)
(0 -0.0056481456 0.51660731)
(0 -0.0066027155 0.51776986)
(0 -0.0075315708 0.5192173)
(0 -0.0084252017 0.52100663)
(0 -0.0092706602 0.52321524)
(0 -0.010052308 0.5259484)
(0 -0.010746471 0.52936184)
(0 -0.011342067 0.53382153)
(0 -0.011866617 0.54043002)
(0 -0.012253824 0.55062461)
(0 -0.011906604 0.55819343)
(0 -0.008766185 0.52971494)
(0 -0.0022486217 0.40389314)
(0 0.0015185775 0.15498564)
(0 -0.0004806404 0.13516312)
(0 0.0023614643 0.37785266)
(0 0.0098713981 0.52443322)
(0 0.014029163 0.56861029)
(0 0.014835703 0.56341761)
(0 0.014310576 0.55037446)
(0 0.013626292 0.54139896)
(0 0.012941828 0.53561618)
(0 0.012178897 0.53132873)
(0 0.011330155 0.52790341)
(0 0.010418544 0.52511752)
(0 0.0094605384 0.52283777)
(0 0.0084702853 0.52096608)
(0 0.0074585373 0.51942998)
(0 0.0064334482 0.51817574)
(0 0.0054011983 0.51716313)
(0 0.0043662962 0.51636186)
(0 0.0033319946 0.51574934)
(0 0.0023006214 0.51530915)
(0 0.0012738776 0.51503002)
(0 0.0002531154 0.51490521)
(0 -0.00076039655 0.51493213)
(0 -0.0017652255 0.51511229)
(0 -0.0027595088 0.51545137)
(0 -0.0037406772 0.51595957)
(0 -0.0047051312 0.51665226)
(0 -0.005647901 0.51755107)
(0 -0.0065622029 0.51868549)
(0 -0.0074390262 0.52009535)
(0 -0.0082665786 0.52183467)
(0 -0.0090292518 0.52397709)
(0 -0.0097087762 0.52662387)
(0 -0.010278996 0.52993223)
(0 -0.010726205 0.5342896)
(0 -0.011077613 0.54078524)
(0 -0.011218802 0.55046548)
(0 -0.010503462 0.55621117)
(0 -0.007200796 0.52502011)
(0 -0.0011731892 0.3992653)
(0 0.0011918785 0.15487743)
(0 -0.00029988061 0.13492309)
(0 0.0015640848 0.37386032)
(0 0.0082475763 0.51942226)
(0 0.012462654 0.56610651)
(0 0.013679467 0.56313648)
(0 0.013429395 0.55084747)
(0 0.012918449 0.54198788)
(0 0.012369422 0.53627223)
(0 0.011717848 0.53207807)
(0 0.010959856 0.52873699)
(0 0.010120022 0.52601538)
(0 0.0092178679 0.52378264)
(0 0.00827031 0.52194445)
(0 0.0072902637 0.52043126)
(0 0.0062878088 0.51919178)
(0 0.0052708116 0.51818772)
(0 0.0042452806 0.51739031)
(0 0.0032158307 0.51677814)
(0 0.0021860448 0.51633561)
(0 0.0011588015 0.51605196)
(0 0.00013658105 0.5159207)
(0 -0.0008782456 0.5159392)
(0 -0.0018831395 0.51610867)
(0 -0.0028751095 0.51643417)
(0 -0.003850405 0.516925)
(0 -0.0048041658 0.51759529)
(0 -0.0057300524 0.51846499)
(0 -0.0066197642 0.51956146)
(0 -0.0074625736 0.52092188)
(0 -0.0082447872 0.52259704)
(0 -0.0089484059 0.52465651)
(0 -0.0095526999 0.52719751)
(0 -0.010029519 0.53037969)
(0 -0.010360688 0.53460923)
(0 -0.010570755 0.54094415)
(0 -0.010504304 0.55003621)
(0 -0.0094755284 0.55400554)
(0 -0.0060717304 0.52053899)
(0 -0.00050223728 0.39543152)
(0 0.00083994762 0.15502975)
(0 -0.00014658934 0.13490868)
(0 0.0010408904 0.3707068)
(0 0.0070183368 0.51474406)
(0 0.011282162 0.56341461)
(0 0.012853986 0.5625582)
(0 0.012852109 0.55110914)
(0 0.012494645 0.5424329)
(0 0.012055498 0.53681604)
(0 0.011489058 0.53273741)
(0 0.010796925 0.52950016)
(0 0.01000577 0.52685931)
(0 0.0091384725 0.5246872)
(0 0.0082146298 0.52289373)
(0 0.0072491181 0.5214127)
(0 0.0062536979 0.52019554)
(0 0.0052376377 0.51920611)
(0 0.0042081611 0.51841736)
(0 0.0031709668 0.51780915)
(0 0.0021306212 0.51736678)
(0 0.0010909167 0.51708011)
(0 5.519806e-05 0.51694289)
(0 -0.00097333062 0.5169525)
(0 -0.0019913068 0.5171098)
(0 -0.0029949133 0.51741926)
(0 -0.0039795505 0.51788921)
(0 -0.0049394665 0.51853242)
(0 -0.0058673638 0.51936709)
(0 -0.0067538834 0.5204183)
(0 -0.0075870584 0.52172035)
(0 -0.0083518168 0.52332049)
(0 -0.0090282608 0.52528394)
(0 -0.009593362 0.5277035)
(0 -0.010017564 0.53074145)
(0 -0.010276111 0.53481842)
(0 -0.010383096 0.5409425)
(0 -0.010141912 0.54937586)
(0 -0.0088241542 0.55161404)
(0 -0.0053157615 0.51622973)
(0 -0.00015238984 0.39221588)
(0 0.00052057821 0.15525311)
(0 -2.302163e-05 0.13500333)
(0 0.00076043058 0.36818311)
(0 0.0061616694 0.51031391)
(0 0.010521877 0.56054041)
(0 0.012434867 0.56170527)
(0 0.0126742 0.55118082)
(0 0.012451834 0.54275923)
(0 0.012092978 0.53727606)
(0 0.01158132 0.53333518)
(0 0.010926641 0.53021949)
(0 0.010158307 0.52767362)
(0 0.0093027182 0.52557347)
(0 0.0083818739 0.52383382)
(0 0.0074122982 0.52239236)
(0 0.0064070869 0.52120354)
(0 0.0053765531 0.52023362)
(0 0.0043288018 0.51945741)
(0 0.0032703015 0.51885615)
(0 0.0022063065 0.51841616)
(0 0.0011412414 0.5181279)
(0 7.9039178e-05 0.51798547)
(0 -0.00097654458 0.51798622)
(0 -0.0020216177 0.51813076)
(0 -0.0030518538 0.51842289)
(0 -0.0040621581 0.51886999)
(0 -0.0050462864 0.51948346)
(0 -0.005996436 0.52027965)
(0 -0.0069027149 0.52128128)
(0 -0.0077524918 0.5225196)
(0 -0.0085299426 0.52403805)
(0 -0.009214009 0.5258971)
(0 -0.0097796698 0.52818461)
(0 -0.010196439 0.53106418)
(0 -0.010431039 0.5349632)
(0 -0.010474198 0.54081533)
(0 -0.010079189 0.54849956)
(0 -0.0084715859 0.54902939)
(0 -0.0048162295 0.51202981)
(0 -2.3842558e-05 0.38947108)
(0 0.00026060949 0.15542539)
(0 7.1506785e-05 0.13511135)
(0 0.00067664827 0.36609703)
(0 0.0056039682 0.50603773)
(0 0.010131128 0.55744334)
(0 0.01240771 0.56056264)
(0 0.01290654 0.55106963)
(0 0.012808187 0.54299129)
(0 0.012501463 0.53768351)
(0 0.012015219 0.53390207)
(0 0.011371247 0.53092284)
(0 0.010602316 0.52848311)
(0 0.0097381757 0.52646341)
(0 0.0088027342 0.52478422)
(0 0.0078137553 0.52338765)
(0 0.0067852447 0.52223154)
(0 0.0057281648 0.52128471)
(0 0.0046511545 0.52052397)
(0 0.0035611392 0.51993203)
(0 0.0024637795 0.51949625)
(0 0.0013638712 0.51920779)
(0 0.0002656868 0.51906108)
(0 -0.00082671588 0.51905354)
(0 -0.0019091726 0.51918547)
(0 -0.0029771254 0.51946012)
(0 -0.0040252932 0.51988391)
(0 -0.0050472937 0.52046688)
(0 -0.0060352265 0.52122358)
(0 -0.0069791477 0.52217431)
(0 -0.0078663148 0.52334719)
(0 -0.008680735 0.52478159)
(0 -0.0094009803 0.5265329)
(0 -0.01000046 0.52868325)
(0 -0.010447769 0.53139445)
(0 -0.010699392 0.53508748)
(0 -0.010708326 0.54058951)
(0 -0.010165845 0.54740351)
(0 -0.0082626169 0.54622544)
(0 -0.0044275382 0.50789493)
(0 -2.4154347e-05 0.38708495)
(0 7.0833349e-05 0.15549672)
(0 0.00013785008 0.13516734)
(0 0.0007271787 0.36429887)
(0 0.0052299469 0.50185277)
(0 0.0099632257 0.55406827)
(0 0.012634804 0.55908755)
(0 0.013429484 0.55076389)
(0 0.013457638 0.5431448)
(0 0.013185954 0.53806458)
(0 0.012705467 0.53446371)
(0 0.012054973 0.53163241)
(0 0.011271559 0.5293066)
(0 0.010387864 0.52737291)
(0 0.0094291709 0.52575834)
(0 0.0084140847 0.52441)
(0 0.0073571227 0.52328935)
(0 0.0062695556 0.52236798)
(0 0.0051602691 0.52162473)
(0 0.0040363982 0.52104384)
(0 0.0029037957 0.52061374)
(0 0.0017674385 0.5203263)
(0 0.00063176349 0.52017633)
(0 -0.00049903596 0.52016134)
(0 -0.0016206969 0.52028138)
(0 -0.0027286071 0.52053918)
(0 -0.0038174971 0.52094025)
(0 -0.0048810728 0.5214934)
(0 -0.005911595 0.52221138)
(0 -0.0068993721 0.52311215)
(0 -0.0078319223 0.52422067)
(0 -0.008693436 0.52557205)
(0 -0.0094626537 0.52721621)
(0 -0.010111759 0.52922861)
(0 -0.010607759 0.53176413)
(0 -0.010895507 0.53521888)
(0 -0.010880217 0.54027714)
(0 -0.010186667 0.54608064)
(0 -0.0080053597 0.54319828)
(0 -0.0040202416 0.5038415)
(0 -7.3526193e-05 0.38499287)
(0 -3.8266423e-05 0.15546109)
(0 0.00017689167 0.1351424)
(0 0.00084117091 0.36269872)
(0 0.0049151798 0.49776147)
(0 0.0098121478 0.55039432)
(0 0.012878433 0.55723876)
(0 0.014003028 0.55023723)
(0 0.014175374 0.54321864)
(0 0.01394161 0.53843004)
(0 0.013465625 0.5350314)
(0 0.012808306 0.5323568)
(0 0.012012219 0.53015)
(0 0.011112442 0.52830561)
(0 0.010135282 0.52675801)
(0 0.0090999633 0.52545976)
(0 0.0080212837 0.52437619)
(0 0.0069106462 0.52348173)
(0 0.0057770389 0.52275732)
(0 0.0046276883 0.52218871)
(0 0.0034685457 0.52176541)
(0 0.0023046909 0.52148001)
(0 0.0011406602 0.52132772)
(0 -1.9268666e-05 0.52130613)
(0 -0.0011707872 0.52141513)
(0 -0.0023092726 0.52165695)
(0 -0.0034295102 0.52203632)
(0 -0.0045253402 0.52256084)
(0 -0.0055892312 0.52324161)
(0 -0.006611788 0.52409427)
(0 -0.0075808643 0.52514065)
(0 -0.0084808412 0.52641145)
(0 -0.0092907046 0.52795067)
(0 -0.0099814947 0.52982583)
(0 -0.010517455 0.53217843)
(0 -0.010831249 0.53535863)
(0 -0.010779776 0.53987558)
(0 -0.0099326517 0.54454163)
(0 -0.0075337153 0.54000107)
(0 -0.003513447 0.49996136)
(0 -0.00011649348 0.38319227)
(0 -8.3488492e-05 0.15534754)
(0 0.00019157774 0.13504173)
(0 0.00095462824 0.3612669)
(0 0.0045650779 0.49384017)
(0 0.0094844189 0.54647715)
(0 0.012879176 0.55501366)
(0 0.014339378 0.54946303)
(0 0.014681816 0.54319272)
(0 0.014510635 0.53876811)
(0 0.014059768 0.53559541)
(0 0.013415122 0.53308563)
(0 0.012625877 0.53100201)
(0 0.011729375 0.5292495)
(0 0.010752934 0.52777065)
(0 0.0097164382 0.52652389)
(0 0.0086349978 0.52547864)
(0 0.0075201938 0.52461225)
(0 0.0063811604 0.52390775)
(0 0.005225259 0.52335241)
(0 0.0040585855 0.52293682)
(0 0.0028863716 0.52265427)
(0 0.0017133066 0.52250035)
(0 0.00054381618 0.52247281)
(0 -0.00061767184 0.52257137)
(0 -0.0017664425 0.52279782)
(0 -0.0028972274 0.52315617)
(0 -0.0040038734 0.52365289)
(0 -0.0050789025 0.52429747)
(0 -0.0061130136 0.52510332)
(0 -0.0070941819 0.52608911)
(0 -0.0080066869 0.52728094)
(0 -0.0088294144 0.52871634)
(0 -0.0095321176 0.5304534)
(0 -0.010075214 0.53261361)
(0 -0.010380263 0.53548236)
(0 -0.010266696 0.53937547)
(0 -0.0092777534 0.5428299)
(0 -0.0067673278 0.53675211)
(0 -0.0028942887 0.49639403)
(0 -0.00012440527 0.38170377)
(0 -8.8000858e-05 0.15520165)
(0 0.00018749353 0.13489393)
(0 0.0010254674 0.36001525)
(0 0.0041403006 0.49021569)
(0 0.0088697171 0.54246003)
(0 0.012452133 0.55247455)
(0 0.014206023 0.54843414)
(0 0.01473837 0.54303585)
(0 0.014667762 0.53904617)
(0 0.014279348 0.53612541)