/*--------------------------------*- C++ -*----------------------------------*\
  =========                 |
  \\      /  F ield         | OpenFOAM: The Open Source CFD Toolbox
   \\    /   O peration     | Website:  https://openfoam.org
    \\  /    A nd           | Version:  10
     \\/     M anipulation  |
\*---------------------------------------------------------------------------*/
FoamFile
{
    format      ascii;
    class       volVectorField;
    location    "0.05";
    object      U_0;
}
// * * * * * * * * * * * * * * * * * * * * * * * * * * * * * * * * * * * * * //

dimensions      [0 1 -1 0 0 0 0];

internalField   nonuniform List<vector> 
4000
(
(0 0.018602176 0.47774881)
(0 0.023445551 0.50885045)
(0 0.0081101862 0.50052709)
(0 0.0055599968 0.50033768)
(0 0.0041977087 0.50025753)
(0 0.0031982447 0.50016869)
(0 0.0025012569 0.50011924)
(0 0.0020024143 0.50008953)
(0 0.0016276553 0.50006909)
(0 0.0013370026 0.50005459)
(0 0.0011059646 0.50004413)
(0 0.00091811616 0.50003643)
(0 0.00076214221 0.50003066)
(0 0.00063002368 0.5000263)
(0 0.00051590257 0.500023)
(0 0.00041537939 0.5000205)
(0 0.00032505638 0.50001864)
(0 0.00024222766 0.5000173)
(0 0.00016466129 0.50001639)
(0 9.0439461e-05 0.50001586)
(0 1.783548e-05 0.5000157)
(0 -5.4795831e-05 0.50001588)
(0 -0.0001291101 0.50001642)
(0 -0.00020686659 0.50001735)
(0 -0.00029004206 0.50001874)
(0 -0.00038096245 0.50002067)
(0 -0.00048247759 0.50002327)
(0 -0.00059820438 0.50002673)
(0 -0.00073287912 0.50003132)
(0 -0.00089289364 0.50003746)
(0 -0.0010871547 0.50004576)
(0 -0.001328463 0.50005719)
(0 -0.0016357696 0.50007323)
(0 -0.0020396811 0.50009638)
(0 -0.0025965119 0.50013436)
(0 -0.0033895387 0.50020244)
(0 -0.0044848575 0.50027312)
(0 -0.0065087452 0.50043631)
(0 -0.017577183 0.50674152)
(0 -0.013546671 0.47977901)
(0 0.03733344 0.44808772)
(0 0.05075711 0.53230891)
(0 0.021778323 0.50804166)
(0 0.015959429 0.50358118)
(0 0.012233032 0.5024234)
(0 0.0093354936 0.5016199)
(0 0.0073469226 0.50115174)
(0 0.0059050368 0.50085961)
(0 0.0048103137 0.50066062)
(0 0.0039577618 0.50052087)
(0 0.0032780522 0.50042034)
(0 0.002723983 0.50034643)
(0 0.0022630002 0.50029124)
(0 0.0018718927 0.50024961)
(0 0.0015336166 0.50021808)
(0 0.001235327 0.50019427)
(0 0.00096707485 0.50017652)
(0 0.00072091836 0.50016371)
(0 0.0004902942 0.50015505)
(0 0.00026955376 0.50015005)
(0 5.3604965e-05 0.50014845)
(0 -0.0001624012 0.50015015)
(0 -0.00038334457 0.50015529)
(0 -0.00061441071 0.50016418)
(0 -0.00086141721 0.50017737)
(0 -0.0011311975 0.50019573)
(0 -0.0014321055 0.5002205)
(0 -0.0017747149 0.50025351)
(0 -0.0021728255 0.50029743)
(0 -0.0026449677 0.50035621)
(0 -0.0032168027 0.50043586)
(0 -0.0039251267 0.50054595)
(0 -0.0048236525 0.50070176)
(0 -0.0059930892 0.50092907)
(0 -0.0075831691 0.50128955)
(0 -0.0098725209 0.50191057)
(0 -0.01286246 0.50283604)
(0 -0.017172807 0.50608493)
(0 -0.038501364 0.52524461)
(0 -0.027766855 0.45038146)
(0 0.039734807 0.41014571)
(0 0.06108034 0.54933481)
(0 0.031620288 0.52186091)
(0 0.024036076 0.51009182)
(0 0.01886622 0.50658758)
(0 0.014657115 0.50451792)
(0 0.011700297 0.50325595)
(0 0.0094821228 0.50243883)
(0 0.0077661842 0.50187857)
(0 0.0064159714 0.50148409)
(0 0.0053306471 0.50119935)
(0 0.0044402803 0.5009895)
(0 0.0036958448 0.50083255)
(0 0.0030617471 0.50071404)
(0 0.0025115297 0.50062418)
(0 0.0020250725 0.50055627)
(0 0.0015866755 0.50050563)
(0 0.0011837287 0.50046903)
(0 0.00080576026 0.50044429)
(0 0.00044372311 0.50042999)
(0 8.9439978e-05 0.50042537)
(0 -0.00026488119 0.50043022)
(0 -0.00062708142 0.50044485)
(0 -0.0010054798 0.50047018)
(0 -0.0014093788 0.50050778)
(0 -0.0018496573 0.50056007)
(0 -0.0023395396 0.50063061)
(0 -0.0028956448 0.50072457)
(0 -0.0035394736 0.50084945)
(0 -0.0042995551 0.50101634)
(0 -0.0052146928 0.50124199)
(0 -0.0063395224 0.50155284)
(0 -0.0077522601 0.50199147)
(0 -0.0095584973 0.50262691)
(0 -0.011932077 0.50359923)
(0 -0.015264955 0.50519689)
(0 -0.019431993 0.50787271)
(0 -0.024708031 0.51639993)
(0 -0.046956569 0.53915275)
(0 -0.030643696 0.41533182)
(0 0.034596266 0.3623776)
(0 0.063327227 0.55472319)
(0 0.0387972 0.53741624)
(0 0.029587427 0.51849125)
(0 0.023618057 0.51197043)
(0 0.018799854 0.50847568)
(0 0.015279353 0.50622966)
(0 0.012524131 0.50471293)
(0 0.010344086 0.50365631)
(0 0.0086011728 0.50290403)
(0 0.0071815833 0.50235616)
(0 0.0060051518 0.50194988)
(0 0.005013701 0.50164466)
(0 0.0041637326 0.5014134)
(0 0.003422292 0.50123758)
(0 0.0027639357 0.5011044)
(0 0.0021685572 0.50100492)
(0 0.0016198414 0.50093294)
(0 0.0011041277 0.5008842)
(0 0.00060953927 0.50085599)
(0 0.00012529517 0.50084681)
(0 -0.00035889595 0.50085626)
(0 -0.00085338758 0.50088496)
(0 -0.0013691307 0.50093466)
(0 -0.0019183058 0.5010084)
(0 -0.002515054 0.50111085)
(0 -0.003176403 0.50124883)
(0 -0.0039234973 0.5014322)
(0 -0.0047832949 0.5016752)
(0 -0.0057909128 0.50199862)
(0 -0.0069927768 0.50243339)
(0 -0.0084519355 0.50302711)
(0 -0.010257024 0.50385538)
(0 -0.012516795 0.50503587)
(0 -0.015368198 0.5067694)
(0 -0.019218587 0.50945583)
(0 -0.024051289 0.51428512)
(0 -0.030343955 0.52819644)
(0 -0.049622634 0.54425261)
(0 -0.028150638 0.37328402)
(0 0.027199683 0.31591365)
(0 0.061631645 0.5506559)
(0 0.04376545 0.55137959)
(0 0.033264887 0.52744445)
(0 0.026774349 0.51769858)
(0 0.021791845 0.51287302)
(0 0.01800874 0.50966643)
(0 0.014940125 0.50741517)
(0 0.012462408 0.50581384)
(0 0.010444893 0.50465475)
(0 0.0087753742 0.50379979)
(0 0.0073744374 0.50315996)
(0 0.0061816769 0.50267592)
(0 0.0051504241 0.50230715)
(0 0.0042445149 0.50202559)
(0 0.0034354631 0.50181158)
(0 0.0027003774 0.50165129)
(0 0.002020427 0.50153503)
(0 0.0013796679 0.50145616)
(0 0.00076411945 0.5014104)
(0 0.00016101666 0.50139539)
(0 -0.00044185616 0.50141047)
(0 -0.0010567838 0.50145664)
(0 -0.001696705 0.50153664)
(0 -0.0023759104 0.50165524)
(0 -0.0031108282 0.50181971)
(0 -0.0039209925 0.50204066)
(0 -0.0048302843 0.50233323)
(0 -0.0058685788 0.50271907)
(0 -0.0070739618 0.50322937)
(0 -0.0084952824 0.5039095)
(0 -0.010195865 0.50482699)
(0 -0.012263865 0.50608604)
(0 -0.014805873 0.50784375)
(0 -0.017911688 0.51032968)
(0 -0.021947654 0.51401825)
(0 -0.027200509 0.5211113)
(0 -0.034574986 0.53922244)
(0 -0.049514027 0.54204043)
(0 -0.023728061 0.33207631)
(0 0.019594482 0.2767776)
(0 0.057133472 0.54056708)
(0 0.046207318 0.56247053)
(0 0.035486132 0.5364781)
(0 0.028717166 0.5234447)
(0 0.023801937 0.51731968)
(0 0.019951399 0.51325296)
(0 0.016744073 0.51031714)
(0 0.014109734 0.50818528)
(0 0.011925064 0.50661501)
(0 0.010087797 0.50544075)
(0 0.0085253631 0.50455259)
(0 0.0071797381 0.50387497)
(0 0.0060048734 0.50335518)
(0 0.0049642653 0.50295614)
(0 0.0040285077 0.5026515)
(0 0.0031735173 0.50242253)
(0 0.0023791646 0.50225596)
(0 0.0016281793 0.50214266)
(0 0.00090526095 0.50207672)
(0 0.0001963428 0.50205485)
(0 -0.00051207749 0.50207614)
(0 -0.0012335713 0.50214197)
(0 -0.0019823612 0.50225612)
(0 -0.0027740257 0.50242514)
(0 -0.0036262665 0.50265901)
(0 -0.0045598288 0.50297211)
(0 -0.0055996369 0.50338484)
(0 -0.0067762306 0.50392594)
(0 -0.0081277222 0.50463612)
(0 -0.0097018757 0.50557345)
(0 -0.011557832 0.50682169)
(0 -0.013776967 0.50850594)
(0 -0.016464247 0.51081125)
(0 -0.019676798 0.51398566)
(0 -0.023713893 0.51863948)
(0 -0.029167626 0.5280958)
(0 -0.037064951 0.54857219)
(0 -0.047257319 0.53496276)
(0 -0.018645432 0.29623251)
(0 0.012827104 0.24472865)
(0 0.050768855 0.52660247)
(0 0.046207063 0.57020516)
(0 0.036432204 0.54527133)
(0 0.029661178 0.52915284)
(0 0.02495779 0.52166119)
(0 0.021194387 0.51682388)
(0 0.017988737 0.51327729)
(0 0.015310511 0.51065499)
(0 0.013048958 0.50869357)
(0 0.011117045 0.50720828)
(0 0.0094516611 0.50607302)
(0 0.0079998714 0.50519916)
(0 0.0067188701 0.5045239)
(0 0.0055739466 0.50400238)
(0 0.0045364842 0.50360226)
(0 0.0035825807 0.50330029)
(0 0.0026919126 0.50307987)
(0 0.0018467873 0.50292948)
(0 0.001031351 0.50284161)
(0 0.00023091522 0.50281211)
(0 -0.00056866606 0.50283978)
(0 -0.0013816021 0.50292636)
(0 -0.0022227017 0.50307664)
(0 -0.003108038 0.50329888)
(0 -0.0040556426 0.5036056)
(0 -0.005086322 0.5040147)
(0 -0.006224633 0.50455134)
(0 -0.0075000426 0.50525048)
(0 -0.0089485598 0.50616092)
(0 -0.010614641 0.50735126)
(0 -0.012551204 0.50891831)
(0 -0.014828544 0.51100264)
(0 -0.017545298 0.51380871)
(0 -0.02073752 0.51761273)
(0 -0.024643399 0.52327597)
(0 -0.030067684 0.53507145)
(0 -0.037695343 0.55573334)
(0 -0.043334141 0.52452186)
(0 -0.01360932 0.26588012)
(0 0.007504854 0.21839316)
(0 0.043620902 0.51019605)
(0 0.044369924 0.57447669)
(0 0.036314129 0.55332858)
(0 0.029779977 0.53470227)
(0 0.02537682 0.52580445)
(0 0.021824438 0.52027639)
(0 0.018733689 0.51620006)
(0 0.016102011 0.51313876)
(0 0.013838639 0.51081923)
(0 0.011874911 0.50904368)
(0 0.010158398 0.50767342)
(0 0.0086430983 0.50660972)
(0 0.0072912075 0.50578181)
(0 0.0060712813 0.50513845)
(0 0.0049567684 0.50464231)
(0 0.0039250408 0.50426624)
(0 0.002956505 0.50399072)
(0 0.0020338376 0.50380209)
(0 0.0011413263 0.50369141)
(0 0.00026429327 0.50365369)
(0 -0.00061144712 0.50368751)
(0 -0.0015001336 0.50379491)
(0 -0.0024165163 0.50398158)
(0 -0.0033764489 0.50425732)
(0 -0.004397475 0.50463687)
(0 -0.005499507 0.50514122)
(0 -0.0067056206 0.50579956)
(0 -0.0080429231 0.50665206)
(0 -0.0095437652 0.50775414)
(0 -0.01124757 0.50918282)
(0 -0.013199774 0.51104561)
(0 -0.015456789 0.51349487)
(0 -0.018103533 0.51674655)
(0 -0.021161896 0.5211198)
(0 -0.024840599 0.52782291)
(0 -0.030050461 0.54167012)
(0 -0.036778004 0.56039794)
(0 -0.038442418 0.5117677)
(0 -0.0091668244 0.24020585)
(0 0.0037339904 0.1971661)
(0 0.03651469 0.4926863)
(0 0.041380347 0.57559422)
(0 0.035380816 0.56021766)
(0 0.029272242 0.53991678)
(0 0.025208933 0.52966071)
(0 0.021943742 0.52352148)
(0 0.019047491 0.51900422)
(0 0.016530911 0.51556602)
(0 0.01432592 0.51293132)
(0 0.012382372 0.51089523)
(0 0.010658845 0.50931011)
(0 0.0091174336 0.50806994)
(0 0.0077264034 0.50709804)
(0 0.006458527 0.50633826)
(0 0.0052902196 0.50574931)
(0 0.0042009416 0.50530093)
(0 0.0031725545 0.50497117)
(0 0.0021887537 0.50474457)
(0 0.0012345602 0.50461098)
(0 0.00029585885 0.50456469)
(0 -0.0006410411 0.50460406)
(0 -0.0015898697 0.50473139)
(0 -0.002564757 0.50495312)
(0 -0.0035807305 0.50528032)
(0 -0.0046541744 0.50572959)
(0 -0.0058033523 0.50632443)
(0 -0.0070490092 0.50709726)
(0 -0.0084149652 0.5080924)
(0 -0.0099288375 0.50937032)
(0 -0.011623703 0.51101441)
(0 -0.013536765 0.5131403)
(0 -0.015710058 0.51590829)
(0 -0.018210626 0.51953905)
(0 -0.02105228 0.52441157)
(0 -0.024445719 0.53212479)
(0 -0.029301688 0.54751549)
(0 -0.034749949 0.56260354)
(0 -0.03318555 0.49776202)
(0 -0.0055965962 0.2188893)
(0 0.0012786927 0.18057566)
(0 0.029924704 0.47522811)
(0 0.037764146 0.57414709)
(0 0.033846395 0.56573913)
(0 0.02832004 0.54466999)
(0 0.024611041 0.53317603)
(0 0.021663839 0.52649534)
(0 0.019007909 0.52162578)
(0 0.016652741 0.51787974)
(0 0.014550449 0.5149797)
(0 0.012667351 0.51271911)
(0 0.010972453 0.51094508)
(0 0.0094362546 0.50954702)
(0 0.0080334729 0.50844427)
(0 0.0067415895 0.50757725)
(0 0.0055405451 0.5069018)
(0 0.0044124382 0.5063853)
(0 0.0033411099 0.50600395)
(0 0.0023117725 0.5057409)
(0 0.0013106522 0.505585)
(0 0.00032465053 0.50552996)
(0 -0.00065898374 0.50557396)
(0 -0.0016530236 0.50571948)
(0 -0.0026705186 0.50597356)
(0 -0.0037251852 0.50634824)
(0 -0.0048317327 0.50686153)
(0 -0.0060062232 0.50753882)
(0 -0.0072664788 0.50841493)
(0 -0.0086324441 0.50953713)
(0 -0.010126443 0.51096947)
(0 -0.011774543 0.51279954)
(0 -0.013605568 0.51514818)
(0 -0.015648444 0.51817984)
(0 -0.017952211 0.5221171)
(0 -0.020527899 0.52741943)
(0 -0.023601384 0.53606141)
(0 -0.027985472 0.55238241)
(0 -0.031985812 0.56266821)
(0 -0.027960255 0.4834771)
(0 -0.0029178926 0.2017136)
(0 -0.00019261651 0.16788102)
(0 0.024088617 0.45861299)
(0 0.033885691 0.5707787)
(0 0.031881018 0.5698798)
(0 0.027060321 0.54889886)
(0 0.023714031 0.53633872)
(0 0.021087351 0.52917102)
(0 0.018692676 0.52402686)
(0 0.016526438 0.52004128)
(0 0.014556262 0.51692774)
(0 0.012762374 0.5144816)
(0 0.011123124 0.51254796)
(0 0.0096169986 0.5110139)
(0 0.0082249879 0.50979649)
(0 0.0069293836 0.50883409)
(0 0.0057138987 0.50808068)
(0 0.0045635749 0.50750209)
(0 0.0034645685 0.5070732)
(0 0.002403956 0.50677617)
(0 0.0013695184 0.50659911)
(0 0.00034952071 0.50653532)
(0 -0.00066750219 0.50658278)
(0 -0.0016930169 0.50674411)
(0 -0.0027386407 0.50702672)
(0 -0.0038164219 0.50744337)
(0 -0.0049390355 0.508013)
(0 -0.0061199889 0.50876227)
(0 -0.0073738433 0.50972753)
(0 -0.0087163975 0.51095788)
(0 -0.010164579 0.51251947)
(0 -0.011737407 0.51450219)
(0 -0.013455588 0.51702945)
(0 -0.015336614 0.5202668)
(0 -0.017413439 0.52444067)
(0 -0.019698246 0.53011127)
(0 -0.022427038 0.53956088)
(0 -0.026239434 0.55618421)
(0 -0.028782202 0.5610133)
(0 -0.023012374 0.46962937)
(0 -0.001009556 0.18823105)
(0 -0.00097976599 0.15828456)
(0 0.019094705 0.44329808)
(0 0.029991238 0.56606259)
(0 0.029628869 0.57272111)
(0 0.025594239 0.55256975)
(0 0.022618272 0.53915564)
(0 0.020300878 0.53154786)
(0 0.018172585 0.52619249)
(0 0.016208936 0.52202952)
(0 0.014388257 0.51875217)
(0 0.012702413 0.51615931)
(0 0.011137913 0.51409632)
(0 0.0096804412 0.51244962)
(0 0.0083167739 0.51113541)
(0 0.0070338371 0.51009111)
(0 0.0058191164 0.50926979)
(0 0.0046606983 0.50863637)
(0 0.0035472246 0.50816499)
(0 0.0024678465 0.50783717)
(0 0.0014121315 0.50764053)
(0 0.00036995239 0.50756807)
(0 -0.0006686224 0.50761763)
(0 -0.0017135026 0.50779189)
(0 -0.002774629 0.50809847)
(0 -0.0038621468 0.50855049)
(0 -0.0049864827 0.50916745)
(0 -0.0061584159 0.50997663)
(0 -0.0073891304 0.51101513)
(0 -0.0086902597 0.51233287)
(0 -0.010073533 0.51399683)
(0 -0.011551278 0.51609762)
(0 -0.013136533 0.51875912)
(0 -0.014836823 0.52214598)
(0 -0.016671582 0.52649316)
(0 -0.018656724 0.53247467)
(0 -0.021022732 0.54257482)
(0 -0.024191007 0.55891543)
(0 -0.025375336 0.55805179)
(0 -0.018487936 0.45667911)
(0 0.00029288643 0.17787884)
(0 -0.0013201123 0.15113044)
(0 0.014925098 0.42952335)
(0 0.026234511 0.56047787)
(0 0.027212651 0.5743902)
(0 0.024001388 0.55566198)
(0 0.021402403 0.54163402)
(0 0.019377449 0.53363619)
(0 0.017510377 0.52812122)
(0 0.015752907 0.52383551)
(0 0.014090007 0.52044015)
(0 0.012523109 0.51773747)
(0 0.011045719 0.51557472)
(0 0.0096498397 0.51383886)
(0 0.0083274204 0.51244626)
(0 0.0070696938 0.51133432)
(0 0.0058677533 0.51045592)
(0 0.0047126848 0.50977571)
(0 0.0035956571 0.50926752)
(0 0.0025079915 0.50891255)
(0 0.0014411719 0.50869819)
(0 0.00038682834 0.50861724)
(0 -0.00066327926 0.50866745)
(0 -0.0017173454 0.50885145)
(0 -0.0027834871 0.50917691)
(0 -0.0038698195 0.50965706)
(0 -0.0049844302 0.51031153)
(0 -0.0061353378 0.51116771)
(0 -0.0073304006 0.51226277)
(0 -0.008577243 0.51364655)
(0 -0.0098827598 0.51538582)
(0 -0.011253169 0.51757067)
(0 -0.012694447 0.52032377)
(0 -0.014205519 0.52380764)
(0 -0.015795013 0.52827117)
(0 -0.017483472 0.53450388)
(0 -0.019476501 0.54506842)
(0 -0.021961026 0.56062192)
(0 -0.021946325 0.55415257)
(0 -0.014456652 0.4449029)
(0 0.0011428011 0.17014414)
(0 -0.0013873131 0.14590906)
(0 0.01149602 0.41739368)
(0 0.022699691 0.55441265)
(0 0.024730672 0.57503663)
(0 0.022344717 0.55816859)
(0 0.020128036 0.54377897)
(0 0.018377653 0.53545005)
(0 0.016759802 0.52981885)
(0 0.015204715 0.52545796)
(0 0.013701056 0.52198618)
(0 0.0122578 0.51920795)
(0 0.010874358 0.51697346)
(0 0.0095481779 0.51517115)
(0 0.0082757493 0.51371836)
(0 0.0070522066 0.51255314)
(0 0.0058719938 0.51162879)
(0 0.0047290569 0.51091018)
(0 0.0036170404 0.51037118)
(0 0.0025294429 0.509993)
(0 0.0014597114 0.50976295)
(0 0.00040130288 0.50967376)
(0 -0.00065225149 0.50972309)
(0 -0.0017073515 0.50991348)
(0 -0.0027702252 0.5102525)
(0 -0.0038469178 0.51075323)
(0 -0.0049431804 0.51143508)
(0 -0.0060643398 0.51232513)
(0 -0.0072150907 0.51346002)
(0 -0.0083993202 0.5148888)
(0 -0.0096195456 0.51667717)
(0 -0.010876591 0.51891368)
(0 -0.012170146 0.52171845)
(0 -0.013491946 0.52525135)
(0 -0.014842468 0.52977991)
(0 -0.016245871 0.53619891)
(0 -0.017864786 0.54702501)
(0 -0.019659532 0.56138783)
(0 -0.018629934 0.54963151)
(0 -0.010937683 0.43444552)
(0 0.0016553041 0.16459641)
(0 -0.0012981818 0.14220748)
(0 0.0086998084 0.40691993)
(0 0.019429187 0.54816851)
(0 0.022258788 0.57481424)
(0 0.020671404 0.56009733)
(0 0.018839434 0.5455961)
(0 0.017346907 0.53700559)
(0 0.015962184 0.53129605)
(0 0.014600549 0.52690102)
(0 0.013252552 0.52339009)
(0 0.011932815 0.52056762)
(0 0.010645687 0.51828745)
(0 0.0093932526 0.51644015)
(0 0.0081759332 0.51494464)
(0 0.0069923395 0.51374017)
(0 0.005839966 0.5127809)
(0 0.0047154268 0.51203229)
(0 0.0036147287 0.51146859)
(0 0.0025334903 0.51107122)
(0 0.0014671013 0.5108276)
(0 0.00041085059 0.51073046)
(0 -0.00063994554 0.51077739)
(0 -0.0016898782 0.51097078)
(0 -0.0027432872 0.51131797)
(0 -0.003804174 0.51183169)
(0 -0.004876022 0.51253085)
(0 -0.0059615975 0.51344183)
(0 -0.0070626549 0.51460027)
(0 -0.008179676 0.51605391)
(0 -0.0093112886 0.51786665)
(0 -0.010453682 0.5201247)
(0 -0.011601137 0.52294465)
(0 -0.012739562 0.52648375)
(0 -0.01386375 0.53103156)
(0 -0.014999285 0.53756784)
(0 -0.016252693 0.54845055)
(0 -0.017385176 0.56132456)
(0 -0.015532649 0.54474951)
(0 -0.0079312534 0.42534848)
(0 0.0019046558 0.16085482)
(0 -0.0011255954 0.13968539)
(0 0.006435895 0.39804592)
(0 0.016448338 0.54196957)
(0 0.019857755 0.57387017)
(0 0.019016505 0.56146972)
(0 0.01756505 0.54709359)
(0 0.016314838 0.5383202)
(0 0.01514516 0.53256688)
(0 0.013964741 0.52817291)
(0 0.012765121 0.52465583)
(0 0.011564963 0.52181741)
(0 0.010372757 0.51951539)
(0 0.0091945463 0.51764304)
(0 0.0080341512 0.51612125)
(0 0.0068932551 0.51489088)
(0 0.0057720989 0.51390732)
(0 0.0046697472 0.51313688)
(0 0.0035844159 0.51255447)
(0 0.0025137374 0.51214189)
(0 0.0014549714 0.51188681)
(0 0.00040518676 0.51178201)
(0 -0.00063855778 0.51182504)
(0 -0.0016790874 0.51201809)
(0 -0.0027189085 0.51236815)
(0 -0.0037600574 0.51288744)
(0 -0.0048038644 0.51359413)
(0 -0.0058507017 0.51451358)
(0 -0.0068996271 0.51568011)
(0 -0.0079480566 0.51713964)
(0 -0.0089911798 0.51895381)
(0 -0.01002123 0.52120587)
(0 -0.011027953 0.52400829)
(0 -0.011992546 0.5275162)
(0 -0.012906194 0.53204286)
(0 -0.013794076 0.5386268)
(0 -0.014700546 0.54937414)
(0 -0.015229592 0.56056207)
(0 -0.012748523 0.53971771)
(0 -0.0054400002 0.41757338)
(0 0.001939267 0.15855875)
(0 -0.00091362575 0.13806564)
(0 0.0046244425 0.39067005)
(0 0.013781786 0.53597581)
(0 0.017584033 0.57234334)
(0 0.017413363 0.5623222)
(0 0.016327761 0.5482838)
(0 0.015304398 0.53941166)
(0 0.014330983 0.53364742)
(0 0.013317284 0.52928482)
(0 0.012255671 0.5257907)
(0 0.011167694 0.52296173)
(0 0.010065395 0.52065948)
(0 0.0089582821 0.51878031)
(0 0.0078531617 0.51724745)
(0 0.0067544417 0.51600365)
(0 0.0056648272 0.51500576)
(0 0.0045856078 0.51422124)
(0 0.0035170281 0.5136258)
(0 0.0024585881 0.51320181)
(0 0.0014092969 0.51293727)
(0 0.00036790038 0.5128251)
(0 -0.00066689768 0.51286278)
(0 -0.0016962537 0.51305227)
(0 -0.0027209491 0.51340014)
(0 -0.0037411814 0.51391791)
(0 -0.0047562834 0.51462284)
(0 -0.0057644274 0.51553902)
(0 -0.006762221 0.51669913)
(0 -0.0077443317 0.51814699)
(0 -0.0087028906 0.51994155)
(0 -0.0096266792 0.52216264)
(0 -0.01050166 0.52491841)
(0 -0.011305093 0.52836271)
(0 -0.012025776 0.53283247)
(0 -0.012688246 0.53939819)
(0 -0.013275626 0.54984554)
(0 -0.013282008 0.55924115)
(0 -0.010361159 0.5347033)
(0 -0.0034643155 0.4110243)
(0 0.0017992223 0.15735265)
(0 -0.00069013704 0.13712265)
(0 0.0032065674 0.38465819)
(0 0.011461138 0.53029205)
(0 0.015502611 0.57036498)
(0 0.015911291 0.56270709)
(0 0.015165377 0.54918503)
(0 0.014352345 0.54029791)
(0 0.013555898 0.53455486)
(0 0.012692078 0.53025052)
(0 0.0117547 0.52680529)
(0 0.010767572 0.52400864)
(0 0.0097459726 0.52172571)
(0 0.008702598 0.51985626)
(0 0.0076469415 0.51832616)
(0 0.0065858571 0.51708028)
(0 0.0055242581 0.51607721)
(0 0.004465428 0.51528573)
(0 0.0034114346 0.51468251)
(0 0.002363462 0.51425063)
(0 0.0013221014 0.51397849)
(0 0.000287619 0.5138592)
(0 -0.00073978949 0.5138902)
(0 -0.0017597683 0.51407316)
(0 -0.0027715409 0.51441413)
(0 -0.00377365 0.51492385)
(0 -0.0047636404 0.51561846)
(0 -0.0057377218 0.51652062)
(0 -0.0066903224 0.51766108)
(0 -0.0076136723 0.51908127)
(0 -0.008497187 0.52083716)
(0 -0.0093265295 0.52300478)
(0 -0.010084439 0.52568791)
(0 -0.010744764 0.52904018)
(0 -0.011293809 0.53342103)
(0 -0.011756395 0.53990941)
(0 -0.012060191 0.54992852)
(0 -0.011628665 0.55750003)
(0 -0.0084322519 0.52982546)
(0 -0.0019861291 0.40558155)
(0 0.001524489 0.15689655)
(0 -0.00047445801 0.13666892)
(0 0.0021395063 0.37984709)
(0 0.0095232128 0.52496727)
(0 0.013695364 0.56805149)
(0 0.01459173 0.5626875)
(0 0.014151859 0.54982167)
(0 0.01353073 0.54099799)
(0 0.012890094 0.53530812)
(0 0.012155736 0.53108701)
(0 0.011324301 0.52771438)
(0 0.010421733 0.52497079)
(0 0.0094665374 0.52272477)
(0 0.0084744817 0.52087986)
(0 0.0074575241 0.51936487)
(0 0.0064247238 0.51812707)
(0 0.0053829488 0.51712699)
(0 0.0043372275 0.51633489)
(0 0.0032912125 0.51572861)
(0 0.0022475468 0.515292)
(0 0.0012081885 0.51501398)
(0 0.00017471331 0.51488787)
(0 -0.00085140153 0.51491105)
(0 -0.001868508 0.51508493)
(0 -0.0028745039 0.51541493)
(0 -0.0038665324 0.51591091)
(0 -0.0048406319 0.51658778)
(0 -0.0057913629 0.51746653)
(0 -0.0067113172 0.51857581)
(0 -0.0075906528 0.51995439)
(0 -0.0084164681 0.52165492)
(0 -0.0091716083 0.52374931)
(0 -0.0098359609 0.52633684)
(0 -0.010380512 0.52957199)
(0 -0.01078763 0.53383472)
(0 -0.011081971 0.54019279)
(0 -0.011142445 0.54968835)
(0 -0.010341239 0.55545254)
(0 -0.0069765313 0.52513724)
(0 -0.00097862913 0.40108603)
(0 0.0011577447 0.15689967)
(0 -0.00028046312 0.13654374)
(0 0.001390969 0.37604401)
(0 0.0079968092 0.51999056)
(0 0.012252333 0.56548759)
(0 0.013564735 0.56232341)
(0 0.013399141 0.55022161)
(0 0.012949275 0.54153385)
(0 0.012439087 0.53592981)
(0 0.011808588 0.53181618)
(0 0.011059279 0.52853817)
(0 0.01021944 0.52586638)
(0 0.0093110213 0.52367288)
(0 0.0083527594 0.52186548)
(0 0.0073588429 0.52037632)
(0 0.0063402737 0.51915537)
(0 0.0053055813 0.51816531)
(0 0.0042612481 0.51737812)
(0 0.0032122314 0.51677289)
(0 0.002162363 0.51633438)
(0 0.0011147076 0.51605207)
(0 7.1892849e-05 0.51591955)
(0 -0.00096358411 0.51593418)
(0 -0.0019890581 0.51609704)
(0 -0.0030013952 0.51641292)
(0 -0.0039966635 0.51689072)
(0 -0.0049697575 0.51754399)
(0 -0.005913995 0.51839192)
(0 -0.0068205856 0.51946085)
(0 -0.0076780958 0.52078664)
(0 -0.0084718469 0.52241833)
(0 -0.009182334 0.52442331)
(0 -0.0097868885 0.52689606)
(0 -0.010254411 0.52999254)
(0 -0.010561232 0.53410989)
(0 -0.010726864 0.54028572)
(0 -0.010584175 0.54917752)
(0 -0.0094546332 0.55316783)
(0 -0.0059594724 0.5206252)
(0 -0.00037685082 0.39734462)
(0 0.00078338726 0.15711183)
(0 -0.00011710241 0.13660668)
(0 0.00092995885 0.3730341)
(0 0.0068804947 0.51529733)
(0 0.011238086 0.56270836)
(0 0.012931996 0.56165305)
(0 0.013022884 0.55041064)
(0 0.012722929 0.54193151)
(0 0.012312645 0.53644814)
(0 0.011755172 0.53246588)
(0 0.011059386 0.52930252)
(0 0.010256243 0.52671893)
(0 0.0093713214 0.52459122)
(0 0.0084260761 0.52283213)
(0 0.0074365966 0.52137762)
(0 0.0064154788 0.52018071)
(0 0.0053725498 0.51920648)
(0 0.0043154023 0.51842877)
(0 0.0032499755 0.51782807)
(0 0.0021809861 0.51739014)
(0 0.0011123166 0.51710508)
(0 4.736136e-05 0.51696679)
(0 -0.0010106513 0.51697264)
(0 -0.0020583428 0.51712337)
(0 -0.0030918749 0.51742315)
(0 -0.0041066072 0.51787985)
(0 -0.005096705 0.51850563)
(0 -0.0060547175 0.51931778)
(0 -0.0069710197 0.5203402)
(0 -0.0078331862 0.52160561)
(0 -0.0086254412 0.52315916)
(0 -0.0093266701 0.52506332)
(0 -0.009912019 0.52740725)
(0 -0.010349204 0.53034794)
(0 -0.010606555 0.53429372)
(0 -0.010687677 0.54022858)
(0 -0.010374445 0.54842694)
(0 -0.0089302849 0.55066539)
(0 -0.0052853807 0.51623906)
(0 -8.2694693e-05 0.39419089)
(0 0.0004568365 0.15734994)
(0 1.1911557e-05 0.13673845)
(0 0.00071496079 0.37060397)
(0 0.0061228983 0.51079536)
(0 0.010644595 0.5596955)
(0 0.012725273 0.56067934)
(0 0.013077824 0.55040471)
(0 0.01291042 0.54221897)
(0 0.012567821 0.53689596)
(0 0.012051013 0.53306805)
(0 0.011379424 0.53003649)
(0 0.010587061 0.52755438)
(0 0.0097030446 0.52550285)
(0 0.0087510565 0.52380032)
(0 0.0077486463 0.52238715)
(0 0.0067095621 0.52121974)
(0 0.0056445067 0.52026579)
(0 0.00456181 0.51950114)
(0 0.0034680556 0.51890779)
(0 0.0023685387 0.51847254)
(0 0.0012676745 0.5181862)
(0 0.00016935128 0.51804303)
(0 -0.00092274754 0.51804039)
(0 -0.002004816 0.51817874)
(0 -0.0030726218 0.51846163)
(0 -0.0041211644 0.51889595)
(0 -0.0051442799 0.51949242)
(0 -0.0061342114 0.52026644)
(0 -0.0070810493 0.52123942)
(0 -0.0079720019 0.52244079)
(0 -0.0087908923 0.52391157)
(0 -0.0095158935 0.52570897)
(0 -0.01012045 0.52791615)
(0 -0.010571703 0.53068905)
(0 -0.01082845 0.53443663)
(0 -0.010864022 0.54005785)
(0 -0.010398879 0.54744591)
(0 -0.0086397513 0.54793179)
(0 -0.0048102588 0.51192825)
(0 9.2237208e-06 0.39149302)
(0 0.0002007316 0.1575094)
(0 0.00010662268 0.13684869)
(0 0.00068734749 0.36857115)
(0 0.0056210992 0.5064062)
(0 0.010361629 0.55639962)
(0 0.012854976 0.5593719)
(0 0.013496268 0.55020314)
(0 0.013455052 0.54241938)
(0 0.013155065 0.53730464)
(0 0.012653015 0.53365269)
(0 0.011982963 0.53076629)
(0 0.011182485 0.52839529)
(0 0.010283817 0.52642709)
(0 0.0093122429 0.52478668)
(0 0.0082863049 0.52341933)
(0 0.0072204463 0.52228515)
(0 0.0061258441 0.52135459)
(0 0.0050112266 0.5206056)
(0 0.0038835274 0.52002174)
(0 0.0027483631 0.51959092)
(0 0.0016104507 0.51930466)
(0 0.00047395703 0.51915759)
(0 -0.00065718911 0.51914717)
(0 -0.0017789715 0.51927357)
(0 -0.0028869938 0.51953977)
(0 -0.0039761526 0.51995172)
(0 -0.0050402527 0.5205188)
(0 -0.0060715761 0.52125454)
(0 -0.0070603417 0.52217788)
(0 -0.0079938839 0.52331499)
(0 -0.0088561354 0.52470251)
(0 -0.0096253126 0.5263921)
(0 -0.01027361 0.52846015)
(0 -0.010767478 0.53105756)
(0 -0.011055043 0.53457788)
(0 -0.011066567 0.539797)
(0 -0.010453905 0.54623254)
(0 -0.0083913607 0.54495709)
(0 -0.004381453 0.50768497)
(0 -9.1280782e-06 0.3891565)
(0 2.4832073e-05 0.15755795)
(0 0.00016791493 0.13688494)
(0 0.00077395591 0.3668066)
(0 0.0052453406 0.50210663)
(0 0.010193677 0.55278606)
(0 0.013108829 0.55768928)
(0 0.014073034 0.54978798)
(0 0.014167496 0.5425416)
(0 0.013902743 0.53769368)
(0 0.013405608 0.5342385)
(0 0.012729381 0.53150703)
(0 0.011916024 0.5292534)
(0 0.011000332 0.52737294)
(0 0.010008681 0.52579792)
(0 0.0089602713 0.52447909)
(0 0.0078699092 0.52338041)
(0 0.0067489784 0.52247527)
(0 0.0056063867 0.52174374)
(0 0.0044492358 0.52117094)
(0 0.0032833128 0.52074591)
(0 0.0021135066 0.52046089)
(0 0.00094414937 0.52031091)
(0 -0.0002206863 0.52029353)
(0 -0.0013768795 0.52040872)
(0 -0.0025199705 0.52065892)
(0 -0.0036448644 0.52104924)
(0 -0.0047454601 0.52158778)
(0 -0.0058142195 0.52228633)
(0 -0.0068416528 0.52316141)
(0 -0.0078154338 0.52423598)
(0 -0.0087197685 0.52554219)
(0 -0.0095332389 0.52712576)
(0 -0.010227002 0.5290554)
(0 -0.010765913 0.53147133)
(0 -0.011086829 0.53473173)
(0 -0.011071653 0.53945187)
(0 -0.010309471 0.54479271)
(0 -0.0079922459 0.54177584)
(0 -0.0038878899 0.5035766)
(0 -6.017945e-05 0.38713832)
(0 -6.4598632e-05 0.15750499)
(0 0.00019819589 0.13683439)
(0 0.00089946354 0.36524469)
(0 0.0048796651 0.49795015)
(0 0.0099242931 0.54888438)
(0 0.013214661 0.55561492)
(0 0.014518486 0.54913371)
(0 0.014771231 0.54257434)
(0 0.014557631 0.53806116)
(0 0.014077742 0.53482437)
(0 0.01340761 0.53225575)
(0 0.012594638 0.53012396)
(0 0.011675823 0.52833414)
(0 0.010678445 0.52682666)
(0 0.0096222936 0.52555809)
(0 0.0085224534 0.5244965)
(0 0.0073904671 0.52361822)
(0 0.0062353882 0.52290549)
(0 0.0050644635 0.52234498)
(0 0.0038836405 0.52192681)
(0 0.0026979789 0.52164398)
(0 0.0015119829 0.52149192)
(0 0.00032988902 0.52146829)
(0 -0.00084405188 0.5215729)
(0 -0.0020052827 0.52180774)
(0 -0.0031486644 0.52217711)
(0 -0.0042681279 0.52268796)
(0 -0.0053562344 0.5233504)
(0 -0.0064036723 0.52417865)
(0 -0.0073983465 0.52519244)
(0 -0.0083245374 0.52641934)
(0 -0.0091610082 0.52789871)
(0 -0.009877802 0.52969032)
(0 -0.01043693 0.53191747)
(0 -0.010764525 0.53488314)
(0 -0.010699953 0.53901516)
(0 -0.0097927884 0.54315869)
(0 -0.0073155249 0.5384882)
(0 -0.0032830813 0.49973696)
(0 -9.4737482e-05 0.38544829)
(0 -9.1922998e-05 0.15738761)
(0 0.00020314919 0.13671594)
(0 0.0010039005 0.36387371)
(0 0.0044566575 0.49405499)
(0 0.0093966438 0.54481378)
(0 0.012940761 0.55318958)
(0 0.014560272 0.54822526)
(0 0.014995202 0.54248965)
(0 0.0148674 0.53838152)
(0 0.014437273 0.53538687)
(0 0.013803818 0.5329897)
(0 0.013020664 0.53098452)
(0 0.012126956 0.52928862)
(0 0.011151036 0.52785114)
(0 0.010113473 0.52663486)
(0 0.0090298066 0.52561213)
(0 0.0079119116 0.52476229)
(0 0.0067691348 0.52406975)
(0 0.005609 0.52352272)
(0 0.0044377359 0.52311244)
(0 0.0032606872 0.5228326)
(0 0.002082643 0.52267904)
(0 0.00090812195 0.52264957)
(0 -0.00025836217 0.52274385)
(0 -0.0014120163 0.52296344)
(0 -0.0025474835 0.52331192)
(0 -0.0036585239 0.5237951)
(0 -0.0047375573 0.52442149)
(0 -0.0057751476 0.52520303)
(0 -0.0067590988 0.52615622)
(0 -0.0076733632 0.52730388)
(0 -0.008496402 0.52867849)
(0 -0.0091969907 0.53032953)
(0 -0.0097335357 0.5323578)
(0 -0.010023807 0.53499639)
(0 -0.0098808145 0.53847829)
(0 -0.0088516311 0.5413967)
(0 -0.0063448753 0.53524839)
(0 -0.0025906116 0.49631912)
(0 -9.1888784e-05 0.38410172)
(0 -8.3483085e-05 0.15725449)
(0 0.00019101717 0.13656544)
(0 0.001055492 0.36271004)
(0 0.0039694113 0.49056292)
(0 0.0085677452 0.54076843)
(0 0.012182048 0.55052218)
(0 0.01404317 0.54707621)
(0 0.014669451 0.5422564)
(0 0.014666586 0.5386141)