/*--------------------------------*- C++ -*----------------------------------*\
  =========                 |
  \\      /  F ield         | OpenFOAM: The Open Source CFD Toolbox
   \\    /   O peration     | Website:  https://openfoam.org
    \\  /    A nd           | Version:  10
     \\/     M anipulation  |
\*---------------------------------------------------------------------------*/
FoamFile
{
    format      ascii;
    class       surfaceScalarField;
    location    "0.28";
    object      phi;
}
// * * * * * * * * * * * * * * * * * * * * * * * * * * * * * * * * * * * * * //

dimensions      [1 0 -1 0 0 0 0];

internalField   nonuniform List<scalar> 
7860
(
3.989601e-08
5.2881203e-07
1.2192743e-08
5.9641107e-07
7.4279214e-09
5.7347257e-07
5.4994414e-09
5.7063619e-07
4.1150157e-09
5.7009211e-07
3.2011567e-09
5.6962152e-07
2.5591547e-09
5.6934964e-07
2.0793167e-09
5.6918746e-07
1.7093143e-09
5.6907762e-07
1.4166241e-09
5.690003e-07
1.1794509e-09
5.6894477e-07
9.8303184e-10
5.6890401e-07
8.1702357e-10
5.6887359e-07
6.7393603e-10
5.6885067e-07
5.4819626e-10
5.6883332e-07
4.3554382e-10
5.6882023e-07
3.3262532e-10
5.6881049e-07
2.3671367e-10
5.6880348e-07
1.455062e-10
5.6879878e-07
5.697214e-11
5.687961e-07
-3.0771006e-11
5.6879531e-07
-1.1956521e-10
5.6879636e-07
-2.1131651e-10
5.6879932e-07
-3.0810208e-10
5.6880435e-07
-4.1230234e-10
5.6881177e-07
-5.2676387e-10
5.6882203e-07
-6.5502033e-10
5.6883583e-07
-8.0160519e-10
5.6885416e-07
-9.7251237e-10
5.6887849e-07
-1.1759028e-09
5.6891098e-07
-1.4232777e-09
5.6895497e-07
-1.7314482e-09
5.6901577e-07
-2.125392e-09
5.6910156e-07
-2.6449902e-09
5.6922722e-07
-3.3726564e-09
5.6943531e-07
-4.4639395e-09
5.6979894e-07
-6.0092374e-09
5.7025298e-07
-9.5082157e-09
5.7220669e-07
-2.9576085e-08
5.8877563e-07
5.3913185e-07
5.9672558e-08
4.6913947e-07
3.6666023e-08
6.1941761e-07
2.2628195e-08
5.875104e-07
1.6253603e-08
5.7701079e-07
1.2290532e-08
5.7405518e-07
9.6062688e-09
5.7230578e-07
7.67747e-09
5.7127844e-07
6.2361006e-09
5.7062883e-07
5.1265646e-09
5.7018715e-07
4.2487897e-09
5.6987807e-07
3.5374415e-09
5.6965612e-07
2.9483516e-09
5.694931e-07
2.450475e-09
5.6937147e-07
2.0213369e-09
5.6927981e-07
1.644223e-09
5.6921043e-07
1.3063563e-09
5.6915809e-07
9.9768022e-10
5.6911917e-07
7.1001664e-10
5.6909114e-07
4.3646042e-10
5.6907233e-07
1.7092044e-10
5.6906164e-07
-9.2249103e-11
5.6905848e-07
-3.5857093e-10
5.6906268e-07
-6.3375658e-10
5.690745e-07
-9.2403786e-10
5.6909464e-07
-1.2365533e-09
5.6912429e-07
-1.5798394e-09
5.6916532e-07
-1.9644927e-09
5.6922049e-07
-2.4041087e-09
5.6929378e-07
-2.9166698e-09
5.6939105e-07
-3.5266679e-09
5.6952098e-07
-4.2685211e-09
5.6969682e-07
-5.1925938e-09
5.6993985e-07
-6.3755097e-09
5.7028447e-07
-7.9359845e-09
5.707877e-07
-1.0077239e-08
5.7157656e-07
-1.3205395e-08
5.729271e-07
-1.8135217e-08
5.751828e-07
-2.8177431e-08
5.8224891e-07
-4.5803294e-08
6.0640149e-07
4.9332855e-07
6.0008886e-08
4.0913058e-07
5.0487343e-08
6.2893915e-07
3.3370731e-08
6.0462701e-07
2.4817733e-08
5.8556378e-07
1.9323301e-08
5.7954961e-07
1.5331546e-08
5.7629754e-07
1.2360753e-08
5.7424923e-07
1.0101568e-08
5.7288802e-07
8.340617e-09
5.719481e-07
6.9347782e-09
5.7128391e-07
5.7879735e-09
5.7080292e-07
4.8334384e-09
5.7044763e-07
4.023409e-09
5.701815e-07
3.3229004e-09
5.6998031e-07
2.7056495e-09
5.6982768e-07
2.1514248e-09
5.6971232e-07
1.6442015e-09
5.6962639e-07
1.1708811e-09
5.6956446e-07
7.2035698e-10
5.6952286e-07
2.8280192e-10
5.694992e-07
-1.5090984e-10
5.6949219e-07
-5.8970842e-10
5.6950148e-07
-1.0428215e-09
5.6952762e-07
-1.5202945e-09
5.6957211e-07
-2.0335934e-09
5.6963758e-07
-2.5963643e-09
5.6972809e-07
-3.2254447e-09
5.6984957e-07
-3.9422753e-09
5.7001061e-07
-4.774949e-09
5.7022373e-07
-5.7612751e-09
5.705073e-07
-6.9534377e-09
5.7088899e-07
-8.4256336e-09
5.7141204e-07
-1.028726e-08
5.721461e-07
-1.2700186e-08
5.7320062e-07
-1.5897566e-08
5.7477394e-07
-2.0241286e-08
5.7727082e-07
-2.6709496e-08
5.8165101e-07
-3.8948962e-08
5.9448837e-07
-4.816792e-08
6.1562045e-07
4.4516063e-07
5.4879121e-08
3.5425146e-07
5.7452292e-08
6.2636598e-07
4.0467643e-08
6.2161166e-07
3.0778839e-08
5.9525259e-07
2.4643118e-08
5.8568533e-07
1.9952344e-08
5.8098831e-07
1.6312964e-08
5.7788861e-07
1.3466522e-08
5.7573446e-07
1.1200904e-08
5.7421372e-07
9.3644047e-09
5.7312041e-07
7.8491419e-09
5.7231819e-07
6.5766275e-09
5.7172015e-07
5.4890164e-09
5.7126911e-07
4.542997e-09
5.7092633e-07
3.7054761e-09
5.706652e-07
2.9505974e-09
5.704672e-07
2.2576449e-09
5.7031934e-07
1.6095245e-09
5.7021258e-07
9.9163245e-10
5.7014075e-07
3.9097545e-10
5.7009985e-07
-2.045524e-10
5.7008772e-07
-8.0680997e-10
5.7010374e-07
-1.4280301e-09
5.7014884e-07
-2.081474e-09
5.7022555e-07
-2.7821819e-09
5.7033829e-07
-3.547901e-09
5.7049381e-07
-4.4002924e-09
5.7070196e-07
-5.3665646e-09
5.7097688e-07
-6.4817534e-09
5.7133891e-07
-7.7919826e-09
5.7181753e-07
-9.3590308e-09
5.7245603e-07
-1.1266717e-08
5.7331973e-07
-1.3631304e-08
5.7451069e-07
-1.6614133e-08
5.7618345e-07
-2.0412973e-08
5.7857278e-07
-2.5294497e-08
5.8215234e-07
-3.2518686e-08
5.888752e-07
-4.510226e-08
6.0707195e-07
-4.6550224e-08
6.1706842e-07
3.9861041e-07
4.7965846e-08
3.0628562e-07
6.0076689e-08
6.1425514e-07
4.5400297e-08
6.3628805e-07
3.4875474e-08
6.0577741e-07
2.8399948e-08
5.9216086e-07
2.3419673e-08
5.8596859e-07
1.9434307e-08
5.8187398e-07
1.6229113e-08
5.7893965e-07
1.3619577e-08
5.7682326e-07
1.1466293e-08
5.7527369e-07
9.6641346e-09
5.7412034e-07
8.1330643e-09
5.7325122e-07
6.8120599e-09
5.7259011e-07
5.6541107e-09
5.7208428e-07
4.6224429e-09
5.7169687e-07
3.6877717e-09
5.7140187e-07
2.82626e-09
5.7118085e-07
2.0179799e-09
5.7102086e-07
1.2457285e-09
5.70913e-07
4.9408214e-10
5.708515e-07
-2.5139631e-10
5.708332e-07
-1.0048673e-09
5.7085721e-07
-1.7809054e-09
5.7092488e-07
-2.5952212e-09
5.7103987e-07
-3.4654779e-09
5.7120855e-07
-4.4122748e-09
5.7144061e-07
-5.4603875e-09
5.7175007e-07
-6.6403773e-09
5.7215687e-07
-7.9907176e-09
5.7268925e-07
-9.5606684e-09
5.7338748e-07
-1.1414052e-08
5.7430942e-07
-1.3633676e-08
5.7553935e-07
-1.6327841e-08
5.7720485e-07
-1.9640146e-08
5.7949576e-07
-2.374085e-08
5.8267348e-07
-2.8932877e-08
5.8734437e-07
-3.6793098e-08
5.9673542e-07
-4.8465616e-08
6.1874447e-07
-4.3195284e-08
6.1179808e-07
3.5541513e-07
4.0336153e-08
2.6594946e-07
5.8994328e-08
5.9559696e-07
4.8330338e-08
6.4695204e-07
3.7588289e-08
6.1651946e-07
3.0929065e-08
5.9882008e-07
2.5894133e-08
5.9100352e-07
2.1780086e-08
5.8598803e-07
1.8392073e-08
5.8232767e-07
1.5577438e-08
5.7963789e-07
1.3214132e-08
5.77637e-07
1.1206218e-08
5.7612826e-07
9.4784057e-09
5.7497903e-07
7.9715547e-09
5.7409696e-07
6.6387626e-09
5.7341707e-07
5.4424043e-09
5.7289323e-07
4.3518642e-09
5.7249241e-07
3.3417563e-09
5.7219096e-07
2.3905248e-09
5.719721e-07
1.4793264e-09
5.718242e-07
5.9110895e-10
5.7173972e-07
-2.901779e-10
5.7171448e-07
-1.1803008e-09
5.7174733e-07
-2.0954452e-09
5.7184002e-07
-3.0529436e-09
5.7199737e-07
-4.0720814e-09
5.7222769e-07
-5.1750432e-09
5.7254357e-07
-6.3880644e-09
5.7296309e-07
-7.742866e-09
5.7351167e-07
-9.2784518e-09
5.7422484e-07
-1.1043417e-08
5.7515245e-07
-1.3098979e-08
5.7636498e-07
-1.5522402e-08
5.7796278e-07
-1.8411084e-08
5.8009353e-07
-2.1889195e-08
5.8297387e-07
-2.6112516e-08
5.8689681e-07
-3.1490594e-08
5.9272245e-07
-3.9656903e-08
6.0490173e-07
-4.9174527e-08
6.2826209e-07
-3.8579619e-08
6.0120317e-07
3.1683551e-07
3.2862826e-08
2.3308664e-07
5.5250318e-08
5.7320947e-07
4.9232586e-08
6.5296978e-07
3.9061801e-08
6.2669024e-07
3.2430902e-08
6.0545098e-07
2.7518961e-08
5.9591546e-07
2.3438844e-08
5.9006814e-07
2.0002979e-08
5.8576353e-07
1.7094814e-08
5.8254606e-07
1.4612128e-08
5.8011968e-07
1.2471135e-08
5.7826925e-07
1.0604586e-08
5.7684558e-07
8.9582421e-09
5.7574331e-07
7.4879135e-09
5.748874e-07
6.1572724e-09
5.7422387e-07
4.9360954e-09
5.7371358e-07
3.7988201e-09
5.7332824e-07
2.7233686e-09
5.7304755e-07
1.6901715e-09
5.7285739e-07
6.8133636e-10
5.7274855e-07
-3.2008395e-10
5.727159e-07
-1.3307658e-09
5.7275801e-07
-2.3677806e-09
5.7287703e-07
-3.4492781e-09
5.7307886e-07
-4.5952279e-09
5.7337364e-07
-5.8282669e-09
5.7377661e-07
-7.1746959e-09
5.7430952e-07
-8.6656812e-09
5.7500266e-07
-1.0338704e-08
5.7589786e-07
-1.2239336e-08
5.7705308e-07
-1.4423631e-08
5.7854927e-07
-1.6961012e-08
5.8050016e-07
-1.9936321e-08
5.8306884e-07
-2.345033e-08
5.8648788e-07
-2.764446e-08
5.9109094e-07
-3.3037187e-08
5.9811517e-07
-4.1013493e-08
6.1287804e-07
-4.7690228e-08
6.3493883e-07
-3.3377337e-08
5.8689028e-07
2.8345817e-07
2.6189143e-08
2.068975e-07
5.0133075e-08
5.4926554e-07
4.8494006e-08
6.5460884e-07
3.949143e-08
6.3569282e-07
3.3077775e-08
6.1186463e-07
2.8412307e-08
6.0058093e-07
2.4493128e-08
5.9398732e-07
2.111838e-08
5.8913828e-07
1.8207181e-08
5.8545726e-07
1.5680307e-08
5.8264656e-07
1.3468622e-08
5.8048093e-07
1.151495e-08
5.7879925e-07
9.7717777e-09
5.7748648e-07
8.1993168e-09
5.7645986e-07
6.7640388e-09
5.7565915e-07
5.4374014e-09
5.7504022e-07
4.1947609e-09
5.7457088e-07
3.014448e-09
5.7422786e-07
1.8769711e-09
5.7399487e-07
7.6431244e-10
5.7386121e-07
-3.4070754e-10
5.7382092e-07
-1.4550269e-09
5.7387233e-07
-2.5959345e-09
5.7401794e-07
-3.7816731e-09
5.742646e-07
-5.032082e-09
5.7462404e-07
-6.3693116e-09
5.7511384e-07
-7.8186363e-09
5.7575884e-07
-9.4094012e-09
5.7659342e-07
-1.117613e-08
5.7766459e-07
-1.3159795e-08
5.7903674e-07
-1.5409463e-08
5.8079894e-07
-1.7984417e-08
5.8307511e-07
-2.095411e-08
5.8603853e-07
-2.4393727e-08
5.8992749e-07
-2.8438809e-08
5.9513602e-07
-3.3694683e-08
6.0337105e-07
-4.1065957e-08
6.2024931e-07
-4.4800047e-08
6.3867291e-07
-2.8205741e-08
5.7029598e-07
2.5525243e-07
2.0571068e-08
1.8632643e-07
4.4583636e-08
5.2525297e-07
4.6643475e-08
6.52549e-07
3.9153679e-08
6.4318261e-07
3.3084247e-08
6.1793407e-07
2.8717995e-08
6.0494718e-07
2.5038461e-08
5.9766686e-07
2.1804026e-08
5.9237271e-07
1.8959374e-08
5.8830191e-07
1.6448455e-08
5.8515748e-07
1.4217772e-08
5.8271162e-07
1.2221145e-08
5.8079588e-07
1.0418796e-08
5.7928883e-07
8.7763712e-09
5.7810229e-07
7.2641183e-09
5.771714e-07
5.8560739e-09
5.7644826e-07
4.5293234e-09
5.7589763e-07
3.2633355e-09
5.7549385e-07
2.039355e-09
5.7521885e-07
8.3984587e-10
5.7506072e-07
-3.5202848e-10
5.750128e-07
-1.5529019e-09
5.7507321e-07
-2.7797027e-09
5.7524474e-07
-4.0501544e-09
5.7553505e-07
-5.3833012e-09
5.7595719e-07
-6.800073e-09
5.7653061e-07
-8.3239034e-09
5.7728267e-07
-9.9814142e-09
5.7825093e-07
-1.1803182e-08
5.7948636e-07
-1.3824534e-08
5.810581e-07
-1.6086457e-08
5.8306086e-07
-1.8636798e-08
5.8562545e-07
-2.1528661e-08
5.889304e-07
-2.481606e-08
5.9321489e-07
-2.8645235e-08
5.9896519e-07
-3.3663624e-08
6.0838944e-07
-4.0147613e-08
6.267333e-07
-4.1162047e-08
6.3968735e-07
-2.3418211e-08
5.5255214e-07
2.3183422e-07
1.6015664e-08
1.7031077e-07
3.9144432e-08
5.021242e-07
4.4119234e-08
6.475742e-07
3.8290274e-08
6.4901157e-07
3.2654454e-08
6.2356988e-07
2.8592085e-08
6.0900955e-07
2.5184018e-08
6.0107492e-07
2.2136293e-08
5.9542044e-07
1.9405018e-08
5.9103318e-07
1.6954138e-08
5.8760836e-07
1.4744678e-08
5.8492108e-07
1.2741042e-08
5.8279951e-07
1.091132e-08
5.8111855e-07
9.2269939e-09
5.7978661e-07
7.6625913e-09
5.787358e-07
6.1952681e-09
5.7791559e-07
4.8043806e-09
5.7728851e-07
3.4710585e-09
5.7682717e-07
2.1777837e-09
5.7651213e-07
9.079817e-10
5.7633052e-07
-3.5437465e-10
5.7627515e-07
-1.6251528e-09
5.7634398e-07
-2.9204516e-09
5.7654004e-07
-4.2569926e-09
5.7687159e-07
-5.6525186e-09
5.7735272e-07
-7.126209e-09
5.780043e-07
-8.6991069e-09
5.7885557e-07
-1.0394557e-08
5.7994638e-07
-1.2238663e-08
5.8133047e-07
-1.4260706e-08
5.8308014e-07
-1.6493508e-08
5.8529367e-07
-1.8973818e-08
5.8810576e-07
-2.1739774e-08
5.9169635e-07
-2.4831847e-08
5.9630697e-07
-2.8418959e-08
6.025523e-07
-3.3128379e-08
6.1309886e-07
-3.8553386e-08
6.3215831e-07
-3.7218724e-08
6.3835269e-07
-1.9184151e-08
5.3451757e-07
2.1265007e-07
1.2423968e-08
1.578868e-07
3.4114563e-08
4.8043361e-07
4.1250499e-08
6.4043827e-07
3.7079375e-08
6.531827e-07
3.1942534e-08
6.2870672e-07
2.8169308e-08
6.1278277e-07
2.5033439e-08
6.0421079e-07
2.2192432e-08
5.9826145e-07
1.9601216e-08
5.936244e-07
1.7239211e-08
5.8997036e-07
1.5079783e-08
5.870805e-07
1.3096623e-08
5.8478267e-07
1.1265094e-08
5.8295008e-07
9.5623453e-09
5.8148936e-07
7.9672603e-09
5.8033089e-07
6.4603298e-09
5.7942252e-07
5.0234717e-09
5.7872537e-07
3.6398034e-09
5.7821084e-07
2.2933864e-09
5.7785854e-07
9.6895566e-10
5.7765495e-07
-3.4835758e-10
5.7759247e-07
-1.6733043e-09
5.7766893e-07
-3.0208038e-09
5.7788754e-07
-4.4062247e-09
5.7825701e-07
-5.8456633e-09
5.7879216e-07
-7.3562171e-09
5.7951485e-07
-8.9562442e-09
5.804556e-07
-1.0665596e-08
5.8165574e-07
-1.2505825e-08
5.8317069e-07
-1.4500348e-08
5.8507466e-07
-1.6674478e-08
5.8746779e-07
-1.90551e-08
5.9048638e-07
-2.1667705e-08
5.9430896e-07
-2.4546491e-08
5.9918575e-07
-2.7886049e-08
6.0589186e-07
-3.2231644e-08
6.1744445e-07
-3.6525415e-08
6.3645208e-07
-3.3271358e-08
6.3509863e-07
-1.5565247e-08
5.1681146e-07
1.9708482e-07
9.6573641e-09
1.4822944e-07
2.9646343e-08
4.6044464e-07
3.8283924e-08
6.3180069e-07
3.5659153e-08
6.5580747e-07
3.1059669e-08
6.3330621e-07
2.7554033e-08
6.1628841e-07
2.4673295e-08
6.0709153e-07
2.204122e-08
6.0089352e-07
1.9601841e-08
5.9606378e-07
1.7345189e-08
5.9222701e-07
1.5254652e-08
5.8917104e-07
1.331165e-08
5.8672568e-07
1.1497849e-08
5.8476388e-07
9.7955261e-09
5.8319169e-07
8.1876774e-09
5.8193873e-07
6.6580837e-09
5.8095211e-07
5.1913011e-09
5.8019215e-07
3.772587e-09
5.7962955e-07
2.3877785e-09
5.7924335e-07
1.0231416e-09
5.7901959e-07
-3.3479934e-10
5.7895041e-07
-1.6994407e-09
5.7903357e-07
-3.0842874e-09
5.7927239e-07
-4.5031335e-09
5.7967586e-07
-5.9702314e-09
5.8025925e-07
-7.5004449e-09
5.8104506e-07
-9.1093719e-09
5.8206453e-07
-1.081342e-08
5.8335978e-07
-1.2629838e-08
5.8498711e-07
-1.4576703e-08
5.8702153e-07
-1.6672754e-08
5.8956385e-07
-1.8936466e-08
5.927501e-07
-2.1383343e-08
5.9675583e-07
-2.4047523e-08
6.0184993e-07
-2.7145379e-08
6.0898972e-07
-3.1091581e-08
6.2139065e-07
-3.4267838e-08
6.3962833e-07
-2.95251e-08
6.3035589e-07
-1.2556866e-08
4.9984322e-07
1.8452795e-07
7.5670287e-09
1.4066241e-07
2.5787435e-08
4.4222423e-07
3.5390371e-08
6.2219776e-07
3.4139468e-08
6.5705837e-07
3.0088856e-08
6.3735682e-07
2.6826255e-08
6.1955101e-07
2.4173271e-08
6.0974451e-07
2.1740438e-08
6.0332635e-07
1.9454174e-08
5.9835004e-07
1.7310131e-08
5.9437106e-07
1.5299428e-08
5.9118174e-07
1.3409686e-08
5.8861542e-07
1.1627789e-08
5.8654578e-07
9.9404241e-09
5.8487905e-07
8.3342757e-09
5.8354488e-07
6.7961905e-09
5.824902e-07
5.3132797e-09
5.8167506e-07
3.8729511e-09
5.8106988e-07
2.4628899e-09
5.8065341e-07
1.0710029e-09
5.8041147e-07
-3.1466275e-10
5.8033607e-07
-1.7060129e-09
5.8042492e-07
-3.1150089e-09
5.8068138e-07
-4.5537614e-09
5.8111461e-07
-6.0346093e-09
5.817401e-07
-7.5701748e-09
5.8258063e-07
-9.1733818e-09
5.8366773e-07
-1.0857422e-08
5.8504382e-07
-1.2635664e-08
5.8676535e-07
-1.4521534e-08
5.889074e-07
-1.6528216e-08
5.9157053e-07
-1.8667304e-08
5.9488918e-07
-2.09473e-08
5.9903583e-07
-2.3407395e-08
6.0431003e-07
-2.6277321e-08
6.1185964e-07
-2.9809263e-08
6.2492259e-07
-3.1942309e-08
6.4176138e-07
-2.6102304e-08
6.2451588e-07
-1.0112364e-08
4.8385328e-07
1.7441559e-07
6.0123892e-09
1.3465003e-07
2.2516061e-08
4.2572057e-07
3.2671702e-08
6.1204212e-07
3.2600764e-08
6.5712931e-07
2.9090186e-08
6.408674e-07
2.6046144e-08
6.2259505e-07
2.3588705e-08
6.1220195e-07
2.1337666e-08
6.0557739e-07
1.9198411e-08
6.0048929e-07
1.716748e-08
5.9640199e-07
1.5241496e-08
5.9310773e-07
1.3412831e-08
5.9044408e-07
1.1672497e-08
5.8828611e-07
1.0010825e-08
5.8654072e-07
8.4176679e-09
5.8513804e-07
6.8826125e-09
5.8402525e-07
5.3951348e-09
5.8316254e-07
3.9447007e-09
5.8252031e-07
2.5208178e-09
5.8207729e-07
1.113051e-09
5.8181924e-07
-2.8898841e-10
5.8173811e-07
-1.6956678e-09
5.818316e-07
-3.1173652e-09
5.8210308e-07
-4.5644932e-09
5.8256174e-07
-6.0475062e-09
5.8322311e-07
-7.5768825e-09
5.8411001e-07
-9.1630678e-09
5.8525392e-07
-1.081637e-08
5.8669713e-07
-1.25468e-08
5.8849578e-07
-1.4363897e-08
5.9072449e-07
-1.6276346e-08
5.9348298e-07
-1.8290444e-08
5.9690328e-07
-2.0410774e-08
6.0115616e-07
-2.2685135e-08
6.0658439e-07
-2.5345475e-08
6.1451998e-07
-2.8465294e-08
6.2804241e-07
-2.9663034e-08
6.4295912e-07
-2.3058245e-08
6.179111e-07
-8.1632979e-09
4.6895833e-07
1.6625229e-07
4.8707423e-09
1.2977929e-07
1.9773673e-08
4.1081765e-07
3.017619e-08
6.0163961e-07
3.1095391e-08
6.5621011e-07
2.8103163e-08
6.4385962e-07
2.5255997e-08
6.2544222e-07
2.2961729e-08
6.1449622e-07
2.0870959e-08
6.0766816e-07
1.8867831e-08
6.0249242e-07
1.6945797e-08
5.9832402e-07
1.5104931e-08
5.9494859e-07
1.3341045e-08
5.9220797e-07
1.1648263e-08
5.8997889e-07
1.0019797e-08
5.8816919e-07
8.4481255e-09
5.8670971e-07
6.9251964e-09
5.8554818e-07
5.442596e-09
5.8464514e-07
3.9916867e-09
5.8397122e-07
2.5637021e-09
5.8350528e-07
1.1498116e-09
5.8323313e-07
-2.5883968e-10
5.8314676e-07
-1.6711028e-09
5.8324386e-07
-3.0958039e-09
5.8352778e-07
-4.541715e-09
5.8400765e-07
-6.0175091e-09
5.8469891e-07
-7.5316897e-09
5.8562419e-07
-9.0924886e-09
5.8681472e-07
-1.0707722e-08
5.8831236e-07
-1.2384607e-08
5.9017267e-07
-1.4129574e-08
5.9246946e-07
-1.5947843e-08
5.9530124e-07
-1.784194e-08
5.9879738e-07
-1.9815336e-08
6.0312955e-07
-2.1926176e-08
6.0869523e-07
-2.4396597e-08
6.169904e-07
-2.7118436e-08
6.3076425e-07
-2.7502131e-08
6.4334281e-07
-2.0402299e-08
6.1081126e-07
-6.6340202e-09
4.5519005e-07
1.5961827e-07
4.0397289e-09
1.2573957e-07
1.7487794e-08
3.973696e-07
2.7917804e-08
5.9120961e-07
2.9653985e-08
6.5447393e-07
2.7150995e-08
6.4636261e-07
2.4483012e-08
6.281102e-07
2.2322493e-08
6.1665674e-07
2.0369397e-08
6.0962126e-07
1.8489009e-08
6.0437281e-07
1.6668716e-08
6.0014431e-07
1.4910265e-08
5.9670704e-07
1.3211806e-08
5.9390643e-07
1.1569685e-08
5.9162101e-07
9.9792972e-09
5.8975958e-07
8.4352207e-09
5.8825379e-07
6.9313697e-09
5.8705203e-07
5.4611572e-09
5.8611535e-07
4.0176386e-09
5.8541474e-07
2.5936293e-09
5.8492929e-07
1.1817983e-09
5.8464496e-07
-2.2525735e-10
5.8455382e-07
-1.6349484e-09
5.8465355e-07
-3.0546341e-09
5.8494747e-07
-4.4915553e-09
5.8544457e-07
-5.9527556e-09
5.8616011e-07
-7.4449789e-09
5.8711641e-07
-8.9745429e-09
5.8834428e-07
-1.0547185e-08
5.89885e-07
-1.2167886e-08
5.9179337e-07
-1.38407e-08
5.9414227e-07
-1.5568312e-08
5.9702886e-07
-1.7350844e-08
6.0057991e-07
-1.9192966e-08
6.0497168e-07
-2.1163258e-08
6.1066552e-07
-2.3462692e-08
6.1928984e-07
-2.5808459e-08
6.3311002e-07
-2.5499374e-08
6.4303373e-07
-1.8115946e-08
6.0342784e-07
-5.45016e-09
4.4252427e-07
1.5416811e-07
3.4366732e-09
1.2230291e-07
1.5584616e-08
3.8522167e-07
2.5889932e-08
5.809043e-07
2.8291973e-08
6.5207189e-07
2.6245562e-08
6.4840902e-07
2.3743089e-08
6.3061267e-07
2.1691314e-08
6.1870851e-07
1.9854205e-08
6.1145837e-07
1.8082369e-08
6.0614464e-07
1.6355147e-08
6.0187154e-07
1.4674482e-08
5.9838771e-07
1.3039971e-08
5.9554094e-07
1.1449467e-08
5.9321152e-07
9.8999447e-09
5.913091e-07
8.3876e-09
5.8976613e-07
6.9079391e-09
5.8853169e-07
5.4559117e-09
5.8756738e-07
4.0260442e-09
5.8684461e-07
2.6125619e-09
5.8634277e-07
1.2094955e-09
5.8604803e-07
-1.892244e-10
5.8595254e-07
-1.5896809e-09
5.8605401e-07
-2.9978875e-09
5.8635567e-07
-4.419698e-09
5.8686638e-07
-5.8607079e-09
5.8760112e-07
-7.3261375e-09
5.8858184e-07
-8.820699e-09
5.8983884e-07
-1.0348451e-08
5.9141275e-07
-1.1912654e-08
5.9335757e-07
-1.3515624e-08
5.9574524e-07
-1.5158309e-08
5.9867154e-07
-1.6839594e-08
6.0226119e-07
-1.8567095e-08
6.0669918e-07
-2.0418631e-08
6.1251706e-07
-2.2564271e-08
6.2143548e-07
-2.4560241e-08
6.3510599e-07
-2.3671616e-08
6.421451e-07
-1.6165214e-08
5.9592143e-07
-4.543307e-09
4.3090236e-07
1.496248e-07
2.9969449e-09
1.1930598e-07
1.3995673e-08
3.7422297e-07
2.4074722e-08
5.7082527e-07
2.701452e-08
6.491321e-07
2.5391261e-08
6.5003228e-07
2.304426e-08
6.3295967e-07
2.1081063e-08
6.2067171e-07
1.9340269e-08
6.1319916e-07
1.7663098e-08
6.0782182e-07
1.6019776e-08
6.0351486e-07
1.4411236e-08
5.9999625e-07
1.2837838e-08
5.9711434e-07
1.1298377e-08
5.9475098e-07
9.7909213e-09
5.9281655e-07
8.3128669e-09
5.9124418e-07
6.8609731e-09
5.8998359e-07
5.4314507e-09
5.889969e-07
4.0200737e-09
5.8825598e-07
2.6222937e-09
5.8774055e-07
1.2333475e-09
5.8743697e-07
-1.5164055e-10
5.8733753e-07
-1.5375614e-09
5.8743993e-07
-2.9292257e-09
5.8774734e-07
-4.3312628e-09
5.8826842e-07
-5.7480138e-09
5.8901787e-07
-7.1834137e-09
5.9001724e-07
-8.6408657e-09
5.9129629e-07
-1.0123117e-08
5.92895e-07
-1.1632153e-08
5.9486661e-07
-1.3169094e-08
5.9728218e-07
-1.4733797e-08
6.0023624e-07
-1.6324887e-08
6.0385228e-07
-1.7954114e-08
6.083284e-07
-1.9706413e-08
6.1426936e-07
-2.1713223e-08
6.2344229e-07
-2.3387287e-08
6.3678005e-07
-2.2020043e-08
6.4077786e-07
-1.4509073e-08
5.8841046e-07
-3.8535631e-09
4.2024685e-07
1.4577124e-07
2.6717055e-09
1.1663429e-07
1.2661224e-08
3.6423348e-07
2.2449435e-08
5.6103708e-07
2.5820275e-08
6.4576127e-07
2.4587713e-08
6.5126484e-07
2.2389255e-08
6.3515813e-07
2.0499163e-08
6.225618e-07
1.8837579e-08
6.1486075e-07
1.7242151e-08
6.0941724e-07
1.5673713e-08
6.0508329e-07
1.4131247e-08
6.0153871e-07
1.2615346e-08
5.9863024e-07
1.1125335e-08
5.9624099e-07
9.6599846e-09
5.942819e-07
8.2175522e-09
5.9268662e-07
6.7957549e-09
5.9140538e-07
5.3918141e-09
5.9040084e-07
4.0025392e-09
5.8964526e-07
2.6244254e-09
5.8911866e-07
1.2537541e-09
5.8880764e-07
-1.1330571e-10
5.8870459e-07
-1.4805991e-09
5.8880722e-07
-2.8518866e-09
5.8911862e-07
-4.2307414e-09
5.8964727e-07
-5.6204434e-09
5.9040757e-07
-7.0238694e-09
5.9142066e-07
-8.4433844e-09
5.9271581e-07
-9.8807457e-09
5.9433236e-07
-1.1337041e-08
5.963229e-07
-1.2812624e-08
5.9875777e-07
-1.4306784e-08
6.017304e-07
-1.5818662e-08
6.0536416e-07
-1.7364812e-08
6.0987455e-07
-1.9034563e-08
6.1593911e-07
-2.0915058e-08
6.2532278e-07
-2.2294749e-08
6.3815974e-07
-2.0535969e-08
6.3901908e-07
-1.310502e-08
5.8097951e-07
-3.3305223e-09
4.1047235e-07
1.4244072e-07
2.4252149e-09
1.1420909e-07
1.1531359e-08
3.5512737e-07
2.0990524e-08
5.5157795e-07
2.4704267e-08
6.4204753e-07
2.3831761e-08
6.5213735e-07
2.177738e-08
6.372125e-07
1.9949162e-08
6.2439002e-07
1.8352428e-08
6.1645748e-07
1.6827152e-08
6.1094252e-07
1.5325147e-08
6.065853e-07
1.384274e-08
6.0302112e-07
1.2380363e-08
6.0009262e-07
1.0937573e-08
5.9768378e-07
9.513554e-09
5.9570592e-07
8.1071494e-09
5.9409302e-07
6.7167875e-09
5.9279574e-07
5.3404817e-09
5.9177715e-07
3.975883e-09
5.9100986e-07
2.6203567e-09
5.9047419e-07
1.2710709e-09
5.9015693e-07
-7.4911354e-11
5.9005057e-07
-1.4205344e-09
5.9015285e-07
-2.7686638e-09
5.9046675e-07
-4.1219802e-09
5.9100059e-07
-5.4828856e-09
5.9176847e-07
-6.853407e-09
5.9279119e-07
-8.2351089e-09
5.9409751e-07
-9.6290303e-09
5.9572629e-07
-1.1035666e-08
5.9772954e-07
-1.2454937e-08
6.0017704e-07
-1.3885966e-08
6.0316143e-07
-1.5329007e-08
6.068072e-07
-1.6805624e-08
6.1135117e-07
-1.840652e-08
6.1754e-07
-2.0170803e-08
6.2708706e-07
-2.1282105e-08
6.3927104e-07
-1.9205367e-08
6.3694234e-07
-1.1912904e-08
5.7368705e-07
-2.9331794e-09
4.0149263e-07
1.3950754e-07
2.2320932e-09
1.1197702e-07
1.0565624e-08
3.4679388e-07
1.9675932e-08
5.4246768e-07
2.3659946e-08
6.3806353e-07
2.3118941e-08
6.5267835e-07
2.1205953e-08
6.3912549e-07
1.9431977e-08
6.2616399e-07
1.7888404e-08
6.1800105e-07
1.6423167e-08
6.1240776e-07
1.4979927e-08
6.0802854e-07
1.3551874e-08
6.0444917e-07
1.2138984e-08
6.015055e-07
1.0740845e-08
5.9908191e-07
9.3568413e-09
5.9708993e-07
7.9861923e-09
5.9546367e-07
6.6278371e-09
5.941541e-07
5.2803949e-09
5.9312459e-07
3.9421867e-09
5.9234807e-07
2.6112903e-09
5.9180509e-07
1.2856115e-09
5.9148261e-07
-3.7038015e-11
5.9137322e-07
-1.3588381e-09
5.9147465e-07
-2.6819112e-09
5.9178983e-07
-4.0081976e-09
5.9232688e-07
-5.3393887e-09
5.9309967e-07
-6.6768457e-09
5.9412864e-07
-8.0215356e-09
5.954422e-07
-9.3740013e-09
5.9707875e-07
-1.0734382e-08
5.9908992e-07
-1.2102413e-08
6.0154507e-07
-1.3477351e-08
6.0453637e-07
-1.4860988e-08
6.0819084e-07
-1.6279739e-08
6.1276992e-07
-1.7822584e-08
6.1908285e-07
-1.9478574e-08
6.2874305e-07
-2.0345344e-08
6.4013781e-07
-1.8012004e-08
6.34609e-07
-1.0896856e-08
5.665719e-07
-2.6290802e-09
3.9322485e-07
1.3687846e-07
2.0748555e-09
1.0990219e-07
9.7319122e-09
3.3913688e-07
1.8486127e-08
5.3371351e-07
2.268047e-08
6.3386921e-07
2.2444463e-08
6.5291436e-07
2.0671324e-08
6.4089863e-07
1.894686e-08
6.2788845e-07
1.7447193e-08
6.1950072e-07
1.6033352e-08
6.138216e-07
1.4642084e-08
6.0941981e-07
1.3263142e-08
6.0582812e-07
1.1895832e-08
6.0287281e-07
1.0539637e-08
6.0043811e-07
9.1939991e-09
5.9843556e-07
7.8583556e-09
5.9679931e-07
6.5319976e-09
5.9548046e-07
5.2139964e-09
5.9444259e-07
3.9031957e-09
5.9365887e-07
2.5982449e-09
5.9311004e-07
1.2976542e-09
5.927832e-07
-1.3644928e-13
5.9267101e-07
-1.2967204e-09
5.9277123e-07
-2.5935657e-09
5.9308667e-07
-3.892024e-09
5.9362533e-07
-5.1932266e-09
5.9440087e-07
-6.4980266e-09
5.9543344e-07
-7.8069611e-09
5.9675113e-07
-9.1202528e-09
5.9839204e-07
-1.0437862e-08
6.0040753e-07
-1.1759517e-08
6.0286672e-07
-1.3084823e-08
6.0586168e-07
-1.441739e-08
6.0952341e-07
-1.5788037e-08
6.1414057e-07
-1.7281033e-08
6.2057584e-07
-1.8834792e-08
6.3029681e-07
-1.947858e-08
6.407816e-07
-1.6939381e-08
6.320698e-07
-1.0025816e-08
5.5965834e-07
-2.3931111e-09
3.8559215e-07
1.3448534e-07
1.9418314e-09
1.0796039e-07
9.0051049e-09
3.3207367e-07
1.7404403e-08
5.2531427e-07
2.1759405e-08
6.2951423e-07
2.1803775e-08
6.5286999e-07
2.0169544e-08
6.4253286e-07
1.8492099e-08
6.295659e-07
1.7029203e-08
6.2096362e-07
1.5659485e-08
6.1519132e-07
1.4314265e-08
6.1076503e-07
1.2979722e-08
6.0716266e-07
1.1654327e-08
6.0419821e-07
1.0337375e-08
6.0175506e-07
9.0282745e-09
5.9974466e-07
7.7265648e-09
5.9810102e-07
6.4317679e-09
5.9677525e-07
5.143282e-09
5.9573108e-07
3.8603499e-09
5.949418e-07
2.58207e-09
5.9438832e-07
1.3074327e-09
5.9405784e-07
3.5372545e-11
5.9394307e-07
-1.2351646e-09
5.9404177e-07
-2.5051842e-09
5.9435669e-07
-3.7755587e-09
5.9489571e-07
-5.0469826e-09
5.9567229e-07
-6.3199323e-09
5.9670639e-07
-7.59465e-09
5.9802585e-07
-8.8711721e-09
5.9966856e-07
-1.0149408e-08
6.0168576e-07
-1.1429198e-08
6.0414651e-07
-1.2710645e-08
6.0714312e-07
-1.3999341e-08
6.108121e-07
-1.5329847e-08
6.1547107e-07
-1.6778961e-08
6.2202496e-07
-1.8235054e-08
6.3175291e-07
-1.8675164e-08
6.4122171e-07
-1.5971924e-08
6.2936656e-07
-9.2736628e-09
5.5296008e-07
-2.2062996e-09
3.7852478e-07
1.3227905e-07
1.8254802e-09
1.0613495e-07
8.3657174e-09
3.2553351e-07
1.6416753e-08
5.172633e-07
2.0891056e-08
6.2503997e-07
2.1192851e-08
6.525682e-07
1.9696765e-08
6.4402894e-07
1.80655e-08
6.3119716e-07
1.6634026e-08
6.2239509e-07
1.5302383e-08
6.1652296e-07
1.3998098e-08
6.1206931e-07
1.2703778e-08
6.0845698e-07
1.1416933e-08
6.0548505e-07
1.0136621e-08
6.0303537e-07
8.8621573e-09
6.0101913e-07
7.5931078e-09
5.9937007e-07
6.3291321e-09
5.9803923e-07
5.069857e-09
5.9699035e-07
3.8148216e-09
5.9619683e-07
2.5634708e-09
5.9563967e-07
1.3151746e-09
5.9530613e-07
6.9265871e-11
5.9518898e-07
-1.1749168e-09
5.9528595e-07
-2.4179801e-09
5.9559975e-07
-3.6604313e-09
5.9613816e-07
-4.902639e-09
5.969145e-07
-6.1448113e-09
5.9794856e-07
-7.3870009e-09
5.9926804e-07
-8.6291573e-09
6.0091072e-07
-9.8712267e-09
6.0292783e-07
-1.1113235e-08
6.0538852e-07
-1.235589e-08
6.0838578e-07
-1.3606817e-08
6.1206303e-07
-1.490352e-08
6.1676778e-07
-1.6312868e-08
6.234343e-07
-1.767472e-08
6.3311476e-07
-1.7928417e-08
6.4147541e-07
-1.5095604e-08
6.2653375e-07
-8.618883e-09
5.4648336e-07
-2.0546475e-09
3.7196055e-07
1.302244e-07
1.7210824e-09
1.0441391e-07
7.7986772e-09
3.1945601e-07
1.5511565e-08
5.095505e-07
2.0070557e-08
6.2048102e-07
2.0608296e-08
6.5203047e-07
1.9249464e-08
6.4538777e-07
1.7664696e-08
6.3278193e-07
1.6260763e-08
6.2379902e-07
1.4962208e-08
6.1782151e-07
1.3694472e-08
6.1333705e-07
1.2436707e-08
6.0971474e-07
1.1185367e-08
6.0673639e-07
9.9392389e-09
6.042815e-07
8.6975166e-09
6.0226085e-07
7.4597398e-09
6.0060785e-07
6.225639e-09
5.9927333e-07
4.9949922e-09
5.98221e-07
3.7675527e-09
5.9742427e-07
2.5430254e-09
5.9686419e-07
1.3210711e-09
5.9652809e-07
1.0132956e-10
5.9640872e-07
-1.1165492e-09
5.9650383e-07
-2.3328716e-09
5.9681608e-07
-3.5478678e-09
5.9735316e-07
-4.7616684e-09
5.981283e-07
-5.974299e-09
5.9916119e-07
-7.1857035e-09
6.0047944e-07
-8.3958153e-09
6.0212083e-07
-9.6046728e-09
6.0413669e-07
-1.0812534e-08
6.0659638e-07
-1.2020774e-08
6.0959402e-07
-1.323903e-08
6.1328129e-07
-1.4506857e-08
6.180356e-07
-1.5879079e-08
6.2480653e-07
-1.7149292e-08
6.3438497e-07
-1.7232071e-08
6.4155819e-07
-1.4298186e-08
6.2359986e-07
-8.0440373e-09
5.4022921e-07
-1.9280551e-09
3.6584457e-07
1.2829634e-07
1.6257682e-09
1.027882e-07
7.292288e-09
3.1378961e-07
1.4679224e-08
5.0216367e-07
1.929383e-08
6.1586647e-07
2.0047343e-08
6.5127697e-07
1.8824536e-08
6.4661057e-07
1.7287339e-08
6.3431912e-07
1.5908245e-08
6.2517812e-07
1.4638692e-08
6.1909106e-07
1.3403755e-08
6.1457199e-07
1.2179339e-08
6.1093916e-07
1.0960769e-08
6.0795496e-07
9.7465442e-09
6.0549573e-07
8.5357202e-09
6.0347167e-07
7.3277796e-09
6.0181579e-07
6.1224753e-09
6.0047863e-07
4.9196779e-09
5.994238e-07
3.719289e-09
5.9862466e-07
2.5212028e-09
5.9806228e-07
1.3252977e-09
5.9772399e-07
1.3144543e-10
5.9760257e-07
-1.060469e-09
5.9769574e-07
-2.2505267e-09
5.9800613e-07
-3.4387554e-09
5.9854138e-07
-4.6251195e-09
5.9931466e-07
-5.809529e-09
6.003456e-07
-6.9918786e-09
6.0166179e-07
-8.1721338e-09
6.0330109e-07
-9.3504572e-09
6.0531501e-07
-1.0527364e-08
6.0777329e-07
-1.1704932e-08
6.1077159e-07
-1.2894721e-08
6.1447107e-07
-1.4137402e-08
6.1927828e-07
-1.5474006e-08
6.2614313e-07
-1.6654646e-08
6.3556561e-07
-1.6580496e-08
6.4148404e-07
-1.356922e-08
6.2058859e-07
-7.5351468e-09
5.3419513e-07
-1.8193902e-09
3.6012881e-07
1.2647695e-07
1.5378292e-09
1.0125043e-07
6.8373985e-09
3.0849017e-07
1.3911741e-08
4.9508946e-07
1.855747e-08
6.1122081e-07
1.9507785e-08
6.5032667e-07
1.8419319e-08
6.4769903e-07
1.693121e-08
6.3580722e-07
1.5575185e-08
6.2653414e-07
1.4331302e-08
6.2033495e-07
1.3125953e-08
6.1577733e-07