/*--------------------------------*- C++ -*----------------------------------*\
  =========                 |
  \\      /  F ield         | OpenFOAM: The Open Source CFD Toolbox
   \\    /   O peration     | Website:  https://openfoam.org
    \\  /    A nd           | Version:  10
     \\/     M anipulation  |
\*---------------------------------------------------------------------------*/
FoamFile
{
    format      ascii;
    class       surfaceScalarField;
    location    "0.28";
    object      phi_0;
}
// * * * * * * * * * * * * * * * * * * * * * * * * * * * * * * * * * * * * * //

dimensions      [1 0 -1 0 0 0 0];

internalField   nonuniform List<scalar> 
7860
(
3.989601e-08
5.2881203e-07
1.2192743e-08
5.9641107e-07
7.4279216e-09
5.7347257e-07
5.4994418e-09
5.7063619e-07
4.1150162e-09
5.7009211e-07
3.2011573e-09
5.6962152e-07
2.5591555e-09
5.6934964e-07
2.0793176e-09
5.6918746e-07
1.7093154e-09
5.6907762e-07
1.4166254e-09
5.6900029e-07
1.1794525e-09
5.6894477e-07
9.8303362e-10
5.6890401e-07
8.1702556e-10
5.6887359e-07
6.7393829e-10
5.6885067e-07
5.4819876e-10
5.6883332e-07
4.3554659e-10
5.6882023e-07
3.3262832e-10
5.6881049e-07
2.3671693e-10
5.6880348e-07
1.4550972e-10
5.6879878e-07
5.6975889e-11
5.687961e-07
-3.0767029e-11
5.6879531e-07
-1.1956104e-10
5.6879636e-07
-2.1131215e-10
5.6879932e-07
-3.0809755e-10
5.6880435e-07
-4.1229762e-10
5.6881177e-07
-5.2675904e-10
5.6882203e-07
-6.5501541e-10
5.6883583e-07
-8.0160021e-10
5.6885416e-07
-9.7250733e-10
5.6887849e-07
-1.1758978e-09
5.6891098e-07
-1.4232727e-09
5.6895497e-07
-1.7314433e-09
5.6901577e-07
-2.1253872e-09
5.6910156e-07
-2.6449856e-09
5.6922722e-07
-3.3726521e-09
5.6943531e-07
-4.4639355e-09
5.6979894e-07
-6.0092341e-09
5.7025298e-07
-9.5082128e-09
5.722067e-07
-2.9576082e-08
5.8877563e-07
5.3913185e-07
5.9672558e-08
4.6913947e-07
3.6666023e-08
6.1941761e-07
2.2628196e-08
5.875104e-07
1.6253604e-08
5.7701078e-07
1.2290534e-08
5.7405518e-07
9.6062706e-09
5.7230578e-07
7.6774723e-09
5.7127844e-07
6.2361035e-09
5.7062883e-07
5.1265681e-09
5.7018715e-07
4.2487938e-09
5.6987807e-07
3.5374463e-09
5.6965612e-07
2.9483571e-09
5.694931e-07
2.4504813e-09
5.6937147e-07
2.0213439e-09
5.692798e-07
1.6442307e-09
5.6921043e-07
1.3063649e-09
5.6915809e-07
9.9768957e-10
5.6911916e-07
7.1002675e-10
5.6909114e-07
4.3647132e-10
5.6907233e-07
1.7093207e-10
5.6906164e-07
-9.2236794e-11
5.6905848e-07
-3.5855798e-10
5.6906268e-07
-6.3374301e-10
5.690745e-07
-9.2402375e-10
5.6909463e-07
-1.2365387e-09
5.6912429e-07
-1.5798244e-09
5.6916532e-07
-1.9644774e-09
5.6922048e-07
-2.4040932e-09
5.6929378e-07
-2.9166543e-09
5.6939105e-07
-3.5266523e-09
5.6952098e-07
-4.2685057e-09
5.6969682e-07
-5.1925787e-09
5.6993985e-07
-6.375495e-09
5.7028447e-07
-7.9359704e-09
5.707877e-07
-1.0077226e-08
5.7157656e-07
-1.3205383e-08
5.729271e-07
-1.8135206e-08
5.7518281e-07
-2.8177421e-08
5.8224891e-07
-4.5803285e-08
6.0640149e-07
4.9332856e-07
6.0008886e-08
4.0913058e-07
5.0487344e-08
6.2893915e-07
3.3370732e-08
6.0462701e-07
2.4817735e-08
5.8556378e-07
1.9323304e-08
5.7954961e-07
1.5331549e-08
5.7629754e-07
1.2360757e-08
5.7424923e-07
1.0101573e-08
5.7288802e-07
8.3406228e-09
5.719481e-07
6.9347851e-09
5.7128391e-07
5.7879815e-09
5.7080292e-07
4.8334477e-09
5.7044763e-07
4.0234195e-09
5.701815e-07
3.3229122e-09
5.6998031e-07
2.7056627e-09
5.6982768e-07
2.1514393e-09
5.6971231e-07
1.6442173e-09
5.6962639e-07
1.1708982e-09
5.6956446e-07
7.2037548e-10
5.6952285e-07
2.8282165e-10
5.6949919e-07
-1.5088891e-10
5.6949219e-07
-5.8968635e-10
5.6950148e-07
-1.0427984e-09
5.6952762e-07
-1.5202704e-09
5.6957211e-07
-2.0335685e-09
5.6963758e-07
-2.5963387e-09
5.6972809e-07
-3.2254187e-09
5.6984956e-07
-3.9422488e-09
5.7001061e-07
-4.7749223e-09
5.7022373e-07
-5.7612485e-09
5.705073e-07
-6.9534113e-09
5.7088899e-07
-8.4256076e-09
5.7141204e-07
-1.0287235e-08
5.721461e-07
-1.2700161e-08
5.7320063e-07
-1.5897544e-08
5.7477394e-07
-2.0241264e-08
5.7727082e-07
-2.6709477e-08
5.8165102e-07
-3.8948943e-08
5.9448838e-07
-4.8167906e-08
6.1562046e-07
4.4516066e-07
5.4879121e-08
3.5425146e-07
5.7452293e-08
6.2636598e-07
4.0467644e-08
6.2161166e-07
3.0778841e-08
5.9525259e-07
2.4643121e-08
5.8568533e-07
1.9952348e-08
5.8098831e-07
1.6312969e-08
5.7788861e-07
1.3466528e-08
5.7573446e-07
1.1200911e-08
5.7421372e-07
9.3644143e-09
5.731204e-07
7.8491531e-09
5.7231818e-07
6.5766405e-09
5.7172014e-07
5.4890312e-09
5.7126911e-07
4.5430137e-09
5.7092633e-07
3.7054947e-09
5.706652e-07
2.950618e-09
5.7046719e-07
2.2576674e-09
5.7031934e-07
1.609549e-09
5.7021258e-07
9.916588e-10
5.7014074e-07
3.9100364e-10
5.7009985e-07
-2.0452247e-10
5.7008771e-07
-8.067784e-10
5.7010373e-07
-1.427997e-09
5.7014883e-07
-2.0814395e-09
5.7022555e-07
-2.7821462e-09
5.7033829e-07
-3.5478643e-09
5.7049381e-07
-4.4002549e-09
5.7070196e-07
-5.3665266e-09
5.7097688e-07
-6.4817151e-09
5.7133891e-07
-7.7919443e-09
5.7181753e-07
-9.3589928e-09
5.7245603e-07
-1.126668e-08
5.7331973e-07
-1.3631267e-08
5.7451069e-07
-1.6614098e-08
5.7618346e-07
-2.041294e-08
5.7857279e-07
-2.5294466e-08
5.8215235e-07
-3.2518656e-08
5.8887521e-07
-4.5102232e-08
6.0707195e-07
-4.6550206e-08
6.1706843e-07
3.9861045e-07
4.7965846e-08
3.0628562e-07
6.007669e-08
6.1425514e-07
4.5400298e-08
6.3628805e-07
3.4875477e-08
6.0577741e-07
2.8399951e-08
5.9216085e-07
2.3419678e-08
5.8596858e-07
1.9434313e-08
5.8187398e-07
1.6229122e-08
5.7893965e-07
1.3619587e-08
5.7682325e-07
1.1466305e-08
5.7527369e-07
9.664149e-09
5.7412034e-07
8.133081e-09
5.7325121e-07
6.8120791e-09
5.7259011e-07
5.6541324e-09
5.7208428e-07
4.6224671e-09
5.7169686e-07
3.6877985e-09
5.7140186e-07
2.8262893e-09
5.7118085e-07
2.0180119e-09
5.7102086e-07
1.245763e-09
5.7091299e-07
4.9411915e-10
5.7085149e-07
-2.5135696e-10
5.7083319e-07
-1.0048258e-09
5.708572e-07
-1.7808618e-09
5.7092487e-07
-2.5951757e-09
5.7103986e-07
-3.4654308e-09
5.7120854e-07
-4.4122264e-09
5.714406e-07
-5.460338e-09
5.7175007e-07
-6.6403269e-09
5.7215687e-07
-7.9906668e-09
5.7268925e-07
-9.5606176e-09
5.7338748e-07
-1.1414001e-08
5.7430942e-07
-1.3633626e-08
5.7553935e-07
-1.6327792e-08
5.7720485e-07
-1.9640099e-08
5.7949576e-07
-2.3740805e-08
5.8267349e-07
-2.8932835e-08
5.8734438e-07
-3.6793058e-08
5.9673543e-07
-4.8465578e-08
6.1874447e-07
-4.3195261e-08
6.1179811e-07
3.5541519e-07
4.0336153e-08
2.6594946e-07
5.8994328e-08
5.9559696e-07
4.8330339e-08
6.4695204e-07
3.7588292e-08
6.1651945e-07
3.0929068e-08
5.9882008e-07
2.5894139e-08
5.9100351e-07
2.1780094e-08
5.8598802e-07
1.8392083e-08
5.8232766e-07
1.557745e-08
5.7963789e-07
1.3214146e-08
5.7763699e-07
1.1206235e-08
5.7612825e-07
9.4784261e-09
5.7497902e-07
7.9715781e-09
5.7409695e-07
6.6387892e-09
5.7341706e-07
5.4424342e-09
5.7289322e-07
4.3518973e-09
5.724924e-07
3.3417928e-09
5.7219095e-07
2.3905646e-09
5.7197209e-07
1.4793694e-09
5.7182419e-07
5.9115514e-10
5.7173971e-07
-2.9012868e-10
5.7171447e-07
-1.1802487e-09
5.7174732e-07
-2.0953905e-09
5.7184001e-07
-3.0528865e-09
5.7199736e-07
-4.0720222e-09
5.7222768e-07
-5.1749822e-09
5.7254356e-07
-6.388002e-09
5.7296309e-07
-7.7428025e-09
5.7351167e-07
-9.2783876e-09
5.7422484e-07
-1.1043352e-08
5.7515245e-07
-1.3098915e-08
5.7636498e-07
-1.5522339e-08
5.7796278e-07
-1.8411022e-08
5.8009354e-07
-2.1889135e-08
5.8297388e-07
-2.6112459e-08
5.8689682e-07
-3.149054e-08
5.9272246e-07
-3.965685e-08
6.0490174e-07
-4.9174479e-08
6.282621e-07
-3.8579593e-08
6.0120323e-07
3.168356e-07
3.2862825e-08
2.3308664e-07
5.5250317e-08
5.7320947e-07
4.9232587e-08
6.5296977e-07
3.9061802e-08
6.2669024e-07
3.2430906e-08
6.0545097e-07
2.7518967e-08
5.9591545e-07
2.3438852e-08
5.9006813e-07
2.000299e-08
5.8576352e-07
1.7094828e-08
5.8254605e-07
1.4612145e-08
5.8011967e-07
1.2471155e-08
5.7826924e-07
1.060461e-08
5.7684557e-07
8.9582698e-09
5.7574329e-07
7.4879451e-09
5.7488739e-07
6.1573081e-09
5.7422385e-07
4.9361351e-09
5.7371357e-07
3.7988638e-09
5.7332822e-07
2.7234165e-09
5.7304753e-07
1.6902234e-09
5.7285738e-07
6.8139217e-10
5.7274854e-07
-3.200244e-10
5.7271589e-07
-1.3307027e-09
5.72758e-07
-2.3677142e-09
5.7287702e-07
-3.4492086e-09
5.7307885e-07
-4.5951558e-09
5.7337363e-07
-5.8281925e-09
5.737766e-07
-7.1746197e-09
5.7430951e-07
-8.6656036e-09
5.7500265e-07
-1.0338625e-08
5.7589786e-07
-1.2239257e-08
5.7705308e-07
-1.4423552e-08
5.7854928e-07
-1.6960934e-08
5.8050016e-07
-1.9936245e-08
5.8306885e-07
-2.3450256e-08
5.8648789e-07
-2.7644389e-08
5.9109095e-07
-3.3037119e-08
5.9811519e-07
-4.1013425e-08
6.1287805e-07
-4.7690168e-08
6.3493884e-07
-3.3377308e-08
5.8689037e-07
2.8345829e-07
2.6189142e-08
2.068975e-07
5.0133073e-08
5.4926554e-07
4.8494005e-08
6.5460884e-07
3.9491431e-08
6.3569281e-07
3.3077778e-08
6.1186462e-07
2.8412313e-08
6.0058091e-07
2.4493137e-08
5.9398731e-07
2.1118391e-08
5.8913827e-07
1.8207196e-08
5.8545724e-07
1.5680326e-08
5.8264654e-07
1.3468645e-08
5.8048092e-07
1.1514978e-08
5.7879923e-07
9.7718096e-09
5.7748646e-07
8.1993534e-09
5.7645984e-07
6.7640803e-09
5.7565913e-07
5.4374479e-09
5.750402e-07
4.1948122e-09
5.7457086e-07
3.0145043e-09
5.7422784e-07
1.8770322e-09
5.7399485e-07
7.6437835e-10
5.7386119e-07
-3.4063707e-10
5.7382091e-07
-1.4549521e-09
5.7387232e-07
-2.5958557e-09
5.7401793e-07
-3.7815906e-09
5.7426459e-07
-5.0319962e-09
5.7462403e-07
-6.369223e-09
5.7511383e-07
-7.8185453e-09
5.7575884e-07
-9.4093084e-09
5.7659342e-07
-1.1176036e-08
5.7766459e-07
-1.31597e-08
5.7903674e-07
-1.5409369e-08
5.8079894e-07
-1.7984324e-08
5.8307512e-07
-2.0954018e-08
5.8603854e-07
-2.4393637e-08
5.8992751e-07
-2.8438722e-08
5.9513603e-07
-3.3694599e-08
6.0337106e-07
-4.1065874e-08
6.2024932e-07
-4.4799977e-08
6.3867295e-07
-2.8205708e-08
5.702961e-07
2.5525258e-07
2.0571066e-08
1.8632643e-07
4.4583633e-08
5.2525297e-07
4.6643472e-08
6.52549e-07
3.9153679e-08
6.431826e-07
3.3084249e-08
6.1793405e-07
2.8718e-08
6.0494716e-07
2.5038469e-08
5.9766684e-07
2.1804038e-08
5.923727e-07
1.895939e-08
5.8830189e-07
1.6448475e-08
5.8515746e-07
1.4217797e-08
5.827116e-07
1.2221176e-08
5.8079585e-07
1.0418832e-08
5.7928881e-07
8.7764128e-09
5.7810226e-07
7.2641657e-09
5.7717137e-07
5.8561271e-09
5.7644824e-07
4.5293826e-09
5.758976e-07
3.2634006e-09
5.7549382e-07
2.0394258e-09
5.7521883e-07
8.3992239e-10
5.7506069e-07
-3.5194651e-10
5.7501277e-07
-1.5528148e-09
5.7507318e-07
-2.7796107e-09
5.7524472e-07
-4.0500579e-09
5.7553503e-07
-5.3832007e-09
5.7595717e-07
-6.7999691e-09
5.7653059e-07
-8.3237966e-09
5.7728266e-07
-9.9813051e-09
5.7825092e-07
-1.1803072e-08
5.7948635e-07
-1.3824423e-08
5.8105809e-07
-1.6086345e-08
5.8306087e-07
-1.8636687e-08
5.8562546e-07
-2.1528552e-08
5.8893041e-07
-2.4815954e-08
5.9321491e-07
-2.8645132e-08
5.9896521e-07
-3.3663523e-08
6.0838945e-07
-4.0147513e-08
6.2673331e-07
-4.1161965e-08
6.396874e-07
-2.3418175e-08
5.5255231e-07
2.3183441e-07
1.6015661e-08
1.7031077e-07
3.9144427e-08
5.0212421e-07
4.4119229e-08
6.475742e-07
3.8290271e-08
6.4901156e-07
3.2654454e-08
6.2356987e-07
2.8592089e-08
6.0900953e-07
2.5184026e-08
6.010749e-07
2.2136305e-08
5.9542042e-07
1.9405035e-08
5.9103316e-07
1.695416e-08
5.8760833e-07
1.4744706e-08
5.8492105e-07
1.2741076e-08
5.8279948e-07
1.091136e-08
5.8111852e-07
9.2270405e-09
5.7978658e-07
7.6626446e-09
5.7873577e-07
6.1953283e-09
5.7791556e-07
4.8044478e-09
5.7728848e-07
3.4711326e-09
5.7682714e-07
2.1778646e-09
5.7651209e-07
9.080694e-10
5.7633049e-07
-3.5428053e-10
5.7627512e-07
-1.6250525e-09
5.7634396e-07
-2.9203456e-09
5.7654001e-07
-4.2568812e-09
5.7687157e-07
-5.6524023e-09
5.773527e-07
-7.1260886e-09
5.7800428e-07
-8.6989829e-09
5.7885556e-07
-1.0394431e-08
5.7994637e-07
-1.2238535e-08
5.8133046e-07
-1.4260576e-08
5.8308014e-07
-1.6493377e-08
5.8529367e-07
-1.8973689e-08
5.8810577e-07
-2.1739646e-08
5.9169636e-07
-2.4831723e-08
5.9630698e-07
-2.8418837e-08
6.0255233e-07
-3.3128259e-08
6.1309887e-07
-3.8553268e-08
6.3215832e-07
-3.7218632e-08
6.3835276e-07
-1.9184113e-08
5.3451779e-07
2.1265029e-07
1.2423966e-08
1.5788681e-07
3.4114556e-08
4.8043362e-07
4.1250491e-08
6.4043826e-07
3.7079369e-08
6.5318268e-07
3.1942532e-08
6.2870671e-07
2.8169309e-08
6.1278275e-07
2.5033446e-08
6.0421077e-07
2.2192443e-08
5.9826142e-07
1.9601233e-08
5.9362437e-07
1.7239233e-08
5.8997033e-07
1.5079813e-08
5.8708047e-07
1.3096659e-08
5.8478264e-07
1.1265138e-08
5.8295004e-07
9.5623968e-09
5.8148932e-07
7.9673196e-09
5.8033085e-07
6.4603972e-09
5.7942248e-07
5.0235472e-09
5.7872533e-07
3.639887e-09
5.782108e-07
2.293478e-09
5.778585e-07
9.6905511e-10
5.7765491e-07
-3.482506e-10
5.7759243e-07
-1.67319e-09
5.7766889e-07
-3.0206827e-09
5.7788751e-07
-4.4060974e-09
5.7825698e-07
-5.8455302e-09
5.7879213e-07
-7.3560789e-09
5.7951483e-07
-8.9561018e-09
5.8045558e-07
-1.066545e-08
5.8165572e-07
-1.2505676e-08
5.8317068e-07
-1.4500198e-08
5.8507466e-07
-1.6674327e-08
5.874678e-07
-1.905495e-08
5.9048639e-07
-2.1667557e-08
5.9430897e-07
-2.4546345e-08
5.9918577e-07
-2.7885907e-08
6.0589189e-07
-3.2231501e-08
6.1744447e-07
-3.6525278e-08
6.364521e-07
-3.3271254e-08
6.3509874e-07
-1.5565206e-08
5.1681174e-07
1.9708509e-07
9.6573605e-09
1.4822945e-07
2.9646333e-08
4.6044465e-07
3.8283912e-08
6.3180069e-07
3.5659143e-08
6.5580745e-07
3.1059664e-08
6.3330619e-07
2.7554032e-08
6.1628838e-07
2.4673299e-08
6.070915e-07
2.204123e-08
6.0089349e-07
1.9601857e-08
5.9606374e-07
1.7345212e-08
5.9222697e-07
1.5254683e-08
5.89171e-07
1.3311688e-08
5.8672563e-07
1.1497897e-08
5.8476383e-07
9.7955823e-09
5.8319164e-07
8.1877427e-09
5.8193869e-07
6.6581583e-09
5.8095206e-07
5.1913852e-09
5.801921e-07
3.7726804e-09
5.796295e-07
2.3878812e-09
5.792433e-07
1.0232534e-09
5.7901954e-07
-3.3467871e-10
5.7895036e-07
-1.6993116e-09
5.7903353e-07
-3.0841503e-09
5.7927235e-07
-4.502989e-09
5.7967582e-07
-5.9700801e-09
5.8025922e-07
-7.5002876e-09
5.8104504e-07
-9.1092095e-09
5.820645e-07
-1.0813254e-08
5.8335976e-07
-1.2629668e-08
5.849871e-07
-1.4576531e-08
5.8702152e-07
-1.6672581e-08
5.8956385e-07
-1.8936293e-08
5.927501e-07
-2.1383172e-08
5.9675585e-07
-2.4047355e-08
6.0184996e-07
-2.7145213e-08
6.0898974e-07
-3.1091415e-08
6.2139067e-07
-3.426768e-08
6.3962836e-07
-2.9524984e-08
6.3035604e-07
-1.2556821e-08
4.9984358e-07
1.8452827e-07
7.5670243e-09
1.4066243e-07
2.5787423e-08
4.4222426e-07
3.5390355e-08
6.2219776e-07
3.4139453e-08
6.5705835e-07
3.0088846e-08
6.3735679e-07
2.682625e-08
6.1955098e-07
2.4173272e-08
6.0974448e-07
2.1740446e-08
6.0332632e-07
1.9454189e-08
5.9835e-07
1.7310154e-08
5.9437101e-07
1.529946e-08
5.9118169e-07
1.3409727e-08
5.8861536e-07
1.162784e-08
5.8654572e-07
9.9404849e-09
5.8487899e-07
8.334347e-09
5.8354482e-07
6.7962725e-09
5.8249014e-07
5.3133725e-09
5.81675e-07
3.8730547e-09
5.8106982e-07
2.4630043e-09
5.8065335e-07
1.0711277e-09
5.8041142e-07
-3.1452767e-10
5.8033602e-07
-1.705868e-09
5.8042487e-07
-3.1148547e-09
5.8068133e-07
-4.5535986e-09
5.8111457e-07
-6.0344386e-09
5.8174006e-07
-7.5699969e-09
5.8258059e-07
-9.1731978e-09
5.836677e-07
-1.0857233e-08
5.850438e-07
-1.2635471e-08
5.8676534e-07
-1.4521338e-08
5.8890739e-07
-1.6528019e-08
5.9157053e-07
-1.8667106e-08
5.9488919e-07
-2.0947104e-08
5.9903585e-07
-2.3407202e-08
6.0431005e-07
-2.6277129e-08
6.1185967e-07
-2.9809072e-08
6.2492261e-07
-3.1942129e-08
6.4176142e-07
-2.6102175e-08
6.2451609e-07
-1.0112316e-08
4.8385372e-07
1.7441595e-07
6.0123838e-09
1.3465005e-07
2.2516045e-08
4.2572061e-07
3.267168e-08
6.1204213e-07
3.2600743e-08
6.5712929e-07
2.9090171e-08
6.4086736e-07
2.6046135e-08
6.2259501e-07
2.3588703e-08
6.1220191e-07
2.1337671e-08
6.0557735e-07
1.9198425e-08
6.0048924e-07
1.7167502e-08
5.9640193e-07
1.5241528e-08
5.9310767e-07
1.3412873e-08
5.9044402e-07
1.1672551e-08
5.8828604e-07
1.001089e-08
5.8654065e-07
8.417745e-09
5.8513797e-07
6.8827019e-09
5.8402518e-07
5.3952366e-09
5.8316247e-07
3.9448148e-09
5.8252024e-07
2.5209443e-09
5.8207722e-07
1.1131897e-09
5.8181917e-07
-2.8883799e-10
5.8173804e-07
-1.6955061e-09
5.8183154e-07
-3.1171927e-09
5.8210302e-07
-4.5643106e-09
5.8256168e-07
-6.0473144e-09
5.8322306e-07
-7.5766824e-09
5.8410996e-07
-9.1628603e-09
5.8525388e-07
-1.0816156e-08
5.8669709e-07
-1.2546582e-08
5.8849576e-07
-1.4363675e-08
5.9072448e-07
-1.6276122e-08
5.9348297e-07
-1.829022e-08
5.9690329e-07
-2.0410551e-08
6.0115618e-07
-2.2684914e-08
6.0658442e-07
-2.5345255e-08
6.1452001e-07
-2.8465074e-08
6.2804243e-07
-2.966283e-08
6.4295918e-07
-2.3058103e-08
6.1791136e-07
-8.1632464e-09
4.6895886e-07
1.662527e-07
4.8707358e-09
1.2977932e-07
1.9773653e-08
4.108177e-07
3.0176162e-08
6.0163963e-07
3.1095363e-08
6.5621009e-07
2.8103141e-08
6.4385958e-07
2.5255982e-08
6.2544217e-07
2.2961722e-08
6.1449617e-07
2.087096e-08
6.0766811e-07
1.8867841e-08
6.0249236e-07
1.6945817e-08
5.9832396e-07
1.5104963e-08
5.9494852e-07
1.3341089e-08
5.9220789e-07
1.164832e-08
5.8997881e-07
1.0019866e-08
5.8816911e-07
8.4482085e-09
5.8670963e-07
6.9252932e-09
5.8554809e-07
5.442707e-09
5.8464505e-07
3.9918118e-09
5.8397114e-07
2.5638414e-09
5.8350519e-07
1.1499647e-09
5.8323305e-07
-2.5867303e-10
5.8314668e-07
-1.6709231e-09
5.8324379e-07
-3.0956119e-09
5.8352771e-07
-4.5415113e-09
5.8400758e-07
-6.0172946e-09
5.8469885e-07
-7.5314655e-09
5.8562413e-07
-9.0922558e-09
5.8681467e-07
-1.0707482e-08
5.8831232e-07
-1.2384361e-08
5.9017264e-07
-1.4129324e-08
5.9246944e-07
-1.594759e-08
5.9530124e-07
-1.7841686e-08
5.9879738e-07
-1.9815082e-08
6.0312957e-07
-2.1925925e-08
6.0869526e-07
-2.4396345e-08
6.1699043e-07
-2.7118184e-08
6.3076427e-07
-2.7501902e-08
6.4334289e-07
-2.0402142e-08
6.108116e-07
-6.6339644e-09
4.5519069e-07
1.5961874e-07
4.0397211e-09
1.2573961e-07
1.748777e-08
3.9736967e-07
2.7917768e-08
5.9120964e-07
2.9653948e-08
6.5447391e-07
2.7150965e-08
6.4636257e-07
2.448299e-08
6.2811015e-07
2.2322479e-08
6.1665668e-07
2.0369392e-08
6.096212e-07
1.8489015e-08
6.0437274e-07
1.6668733e-08
6.0014424e-07
1.4910296e-08
5.9670696e-07
1.321185e-08
5.9390634e-07
1.1569743e-08
5.9162092e-07
9.9793703e-09
5.8975948e-07
8.4353093e-09
5.8825369e-07
6.931474e-09
5.8705193e-07
5.4612775e-09
5.8611525e-07
4.0177751e-09
5.8541464e-07
2.5937819e-09
5.8492919e-07
1.1819667e-09
5.8464486e-07
-2.2507351e-10
5.8455372e-07
-1.6347496e-09
5.8465346e-07
-3.054421e-09
5.8494738e-07
-4.4913289e-09
5.8544449e-07
-5.9525167e-09
5.8616003e-07
-7.4447287e-09
5.8711634e-07
-8.9742826e-09
5.8834422e-07
-1.0546916e-08
5.8988495e-07
-1.216761e-08
5.9179333e-07
-1.3840418e-08
5.9414225e-07
-1.5568027e-08
5.9702885e-07
-1.7350557e-08
6.0057991e-07
-1.9192679e-08
6.0497169e-07
-2.1162973e-08
6.1066555e-07
-2.3462405e-08
6.1928986e-07
-2.5808173e-08
6.3311004e-07
-2.5499118e-08
6.4303384e-07
-1.8115773e-08
6.0342825e-07
-5.4500995e-09
4.4252501e-07
1.5416864e-07
3.436664e-09
1.2230296e-07
1.5584586e-08
3.8522176e-07
2.5889886e-08
5.8090435e-07
2.8291926e-08
6.5207187e-07
2.6245522e-08
6.4840897e-07
2.3743058e-08
6.3061261e-07
2.1691293e-08
6.1870844e-07
1.9854194e-08
6.114583e-07
1.808237e-08
6.0614456e-07
1.6355161e-08
6.0187145e-07
1.467451e-08
5.9838761e-07
1.3040015e-08
5.9554083e-07
1.1449526e-08
5.9321141e-07
9.9000212e-09
5.9130898e-07
8.3876939e-09
5.8976601e-07
6.9080508e-09
5.8853157e-07
5.4560416e-09
5.8756726e-07
4.0261924e-09
5.8684449e-07
2.6127283e-09
5.8634265e-07
1.2096799e-09
5.8604791e-07
-1.8902234e-10
5.8595242e-07
-1.5894618e-09
5.860539e-07
-2.997652e-09
5.8635557e-07
-4.4194472e-09
5.8686629e-07
-5.8604428e-09
5.8760103e-07
-7.3258592e-09
5.8858176e-07
-8.820409e-09
5.8983877e-07
-1.0348151e-08
5.914127e-07
-1.1912345e-08
5.9335753e-07
-1.3515309e-08
5.9574521e-07
-1.5157989e-08
5.9867153e-07
-1.6839272e-08
6.0226119e-07
-1.8566772e-08
6.066992e-07
-2.0418308e-08
6.1251709e-07
-2.2563946e-08
6.214355e-07
-2.4559918e-08
6.3510601e-07
-2.3671329e-08
6.4214525e-07
-1.6165023e-08
5.9592195e-07
-4.5432412e-09
4.3090323e-07
1.496254e-07
2.996934e-09
1.1930604e-07
1.3995637e-08
3.7422309e-07
2.4074667e-08
5.7082534e-07
2.7014461e-08
6.4913208e-07
2.5391209e-08
6.5003222e-07
2.3044219e-08
6.329596e-07
2.1081032e-08
6.2067163e-07
1.9340251e-08
6.1319908e-07
1.7663092e-08
6.0782172e-07
1.6019785e-08
6.0351475e-07
1.4411261e-08
5.9999613e-07
1.283788e-08
5.9711422e-07
1.1298438e-08
5.9475085e-07
9.7910006e-09
5.9281642e-07
8.3129658e-09
5.9124405e-07
6.8610922e-09
5.8998345e-07
5.4315902e-09
5.8899676e-07
4.0202339e-09
5.8825584e-07
2.6224746e-09
5.8774041e-07
1.2335488e-09
5.8743684e-07
-1.5141919e-10
5.8733739e-07
-1.5373206e-09
5.874398e-07
-2.9289663e-09
5.8774721e-07
-4.3309858e-09
5.882683e-07
-5.7477204e-09
5.8901776e-07
-7.1831052e-09
5.9001714e-07
-8.6405435e-09
5.9129621e-07
-1.0122783e-08
5.9289494e-07
-1.1631809e-08
5.9486655e-07
-1.3168742e-08
5.9728215e-07
-1.4733439e-08
6.0023622e-07
-1.6324526e-08
6.0385228e-07
-1.7953751e-08
6.0832842e-07
-1.9706048e-08
6.1426938e-07
-2.1712855e-08
6.2344231e-07
-2.3386923e-08
6.3678008e-07
-2.2019724e-08
6.4077805e-07
-1.4508864e-08
5.8841109e-07
-3.8534915e-09
4.2024786e-07
1.457719e-07
2.6716929e-09
1.1663436e-07
1.2661182e-08
3.6423363e-07
2.2449368e-08
5.6103718e-07
2.5820202e-08
6.4576126e-07
2.4587647e-08
6.5126478e-07
2.23892e-08
6.3515804e-07
2.049912e-08
6.2256171e-07
1.883755e-08
6.1486065e-07
1.7242137e-08
6.0941713e-07
1.5673716e-08
6.0508317e-07
1.4131268e-08
6.0153858e-07
1.2615386e-08
5.986301e-07
1.1125395e-08
5.9624084e-07
9.660066e-09
5.9428175e-07
8.2176557e-09
5.9268646e-07
6.795881e-09
5.9140522e-07
5.3919633e-09
5.9040068e-07
4.0027118e-09
5.8964509e-07
2.6246213e-09
5.891185e-07
1.2539732e-09
5.8880748e-07
-1.1306384e-10
5.8870443e-07
-1.4803352e-09
5.8880707e-07
-2.8516017e-09
5.8911848e-07
-4.2304364e-09
5.8964714e-07
-5.6201195e-09
5.9040745e-07
-7.0235281e-09
5.9142055e-07
-8.4430274e-09
5.9271571e-07
-9.8803748e-09
5.9433228e-07
-1.1336658e-08
5.9632284e-07
-1.2812231e-08
5.9875772e-07
-1.4306384e-08
6.0173038e-07
-1.5818258e-08
6.0536415e-07
-1.7364405e-08
6.0987457e-07
-1.9034153e-08
6.1593913e-07
-2.0914643e-08
6.253228e-07
-2.229434e-08
6.3815977e-07
-2.0535614e-08
6.3901932e-07
-1.310479e-08
5.8098026e-07
-3.3304443e-09
4.1047351e-07
1.4244146e-07
2.4252003e-09
1.1420918e-07
1.153131e-08
3.5512756e-07
2.0990444e-08
5.5157807e-07
2.4704177e-08
6.4204754e-07
2.3831678e-08
6.5213727e-07
2.177731e-08
6.3721241e-07
1.9949106e-08
6.2438991e-07
1.8352388e-08
6.1645737e-07
1.6827128e-08
6.1094239e-07
1.5325142e-08
6.0658516e-07
1.3842754e-08
6.0302097e-07
1.2380399e-08
6.0009245e-07
1.0937632e-08
5.976836e-07
9.5136369e-09
5.9570575e-07
8.107257e-09
5.9409284e-07
6.7169206e-09
5.9279556e-07
5.3406408e-09
5.9177696e-07
3.9760683e-09
5.9100967e-07
2.6205683e-09
5.90474e-07
1.2713087e-09
5.9015674e-07
-7.4647432e-11
5.9005038e-07
-1.4202461e-09
5.9015267e-07
-2.7683516e-09
5.9046658e-07
-4.1216451e-09
5.9100043e-07
-5.4825289e-09
5.9176833e-07
-6.8530303e-09
5.9279105e-07
-8.234714e-09
5.9409739e-07
-9.6286193e-09
5.9572619e-07
-1.1035241e-08
5.9772946e-07
-1.24545e-08
6.0017698e-07
-1.3885521e-08
6.031614e-07
-1.5328555e-08
6.0680719e-07
-1.6805168e-08
6.1135118e-07
-1.840606e-08
6.1754002e-07
-2.0170337e-08
6.2708707e-07
-2.1281647e-08
6.3927108e-07
-1.9204974e-08
6.3694265e-07
-1.1912652e-08
5.7368794e-07
-2.9330945e-09
4.0149395e-07
1.3950837e-07
2.2320763e-09
1.1197713e-07
1.0565566e-08
3.4679411e-07
1.9675837e-08
5.4246784e-07
2.3659838e-08
6.3806355e-07
2.3118839e-08
6.5267827e-07
2.1205866e-08
6.3912538e-07
1.9431906e-08
6.2616387e-07
1.788835e-08
6.1800092e-07
1.6423131e-08
6.1240761e-07
1.4979912e-08
6.0802838e-07
1.3551881e-08
6.04449e-07
1.2139015e-08
6.0150532e-07
1.0740902e-08
5.9908172e-07
9.3569249e-09
5.9708972e-07
7.9863037e-09
5.9546346e-07
6.6279769e-09
5.9415388e-07
5.2805639e-09
5.9312437e-07
3.9423851e-09
5.9234784e-07
2.6115182e-09
5.9180486e-07
1.2858688e-09
5.9148239e-07
-3.6749933e-11
5.91373e-07
-1.3585238e-09
5.9147444e-07
-2.6815698e-09
5.9178963e-07
-4.0078301e-09
5.9232669e-07
-5.3389966e-09
5.930995e-07
-6.6764308e-09
5.9412849e-07
-8.0210998e-09
5.9544206e-07
-9.3735468e-09
5.9707863e-07
-1.0733911e-08
5.9908982e-07
-1.2101928e-08
6.01545e-07
-1.3476856e-08
6.0453632e-07
-1.4860485e-08
6.0819082e-07
-1.627923e-08
6.1276992e-07
-1.7822068e-08
6.1908286e-07
-1.947805e-08
6.2874306e-07
-2.0344833e-08
6.4013787e-07
-1.8011569e-08
6.3460938e-07
-1.089658e-08
5.6657295e-07
-2.6289879e-09
3.9322636e-07
1.3687938e-07
2.0748362e-09
1.0990232e-07
9.7318454e-09
3.3913716e-07
1.8486016e-08
5.3371372e-07
2.268034e-08
6.3386925e-07
2.2444339e-08
6.5291427e-07
2.0671216e-08
6.408985e-07
1.894677e-08
6.2788832e-07
1.7447122e-08
6.1950057e-07
1.6033302e-08
6.1382143e-07
1.4642057e-08
6.0941962e-07
1.326314e-08
6.0582792e-07
1.1895857e-08
6.028726e-07
1.053969e-08
6.0043789e-07
9.1940825e-09
5.9843533e-07
7.85847e-09
5.9679907e-07
6.532144e-09
5.9548021e-07
5.2141753e-09
5.9444234e-07
3.9034075e-09
5.9365861e-07
2.5984895e-09
5.9310978e-07
1.2979305e-09
5.9278295e-07
1.6732674e-13
5.9267077e-07
-1.2963799e-09
5.9277099e-07
-2.5931932e-09
5.9308644e-07
-3.8916218e-09
5.9362512e-07
-5.1927964e-09
5.9440067e-07
-6.4975703e-09
5.9543326e-07
-7.8064809e-09
5.9675097e-07
-9.1197512e-09
5.983919e-07
-1.0437342e-08
6.0040741e-07
-1.175898e-08
6.0286664e-07
-1.3084273e-08
6.0586162e-07
-1.441683e-08
6.0952338e-07
-1.578747e-08
6.1414056e-07
-1.7280457e-08
6.2057585e-07
-1.8834207e-08
6.3029681e-07
-1.9478011e-08
6.4078167e-07
-1.6938902e-08
6.3207027e-07
-1.0025514e-08
5.5965956e-07
-2.3930108e-09
3.8559386e-07
1.3448637e-07
1.9418094e-09
1.0796054e-07
9.0050279e-09
3.3207401e-07
1.7404272e-08
5.2531454e-07
2.175925e-08
6.295143e-07
2.1803625e-08
6.528699e-07
2.0169412e-08
6.4253271e-07
1.8491988e-08
6.2956574e-07
1.7029112e-08
6.2096344e-07
1.5659419e-08
6.1519112e-07
1.4314224e-08
6.1076482e-07
1.2979709e-08
6.0716243e-07
1.1654344e-08
6.0419797e-07
1.0337424e-08
6.0175481e-07
9.0283567e-09
5.997444e-07
7.7266817e-09
5.9810075e-07
6.4319205e-09
5.9677497e-07
5.143471e-09
5.9573079e-07
3.8605757e-09
5.9494151e-07
2.5823328e-09
5.9438803e-07
1.3077329e-09
5.9405755e-07
3.5710792e-11
5.9394279e-07
-1.2347922e-09
5.9404149e-07
-2.5047777e-09
5.9435643e-07
-3.7751189e-09
5.9489546e-07
-5.0465111e-09
5.9567206e-07
-6.3194312e-09
5.9670618e-07
-7.5941217e-09
5.9802566e-07
-8.8706191e-09
5.996684e-07
-1.0148834e-08
6.0168563e-07
-1.1428604e-08
6.0414641e-07
-1.2710036e-08
6.0714305e-07
-1.399872e-08
6.1081206e-07
-1.5329215e-08
6.1547106e-07
-1.6778317e-08
6.2202495e-07
-1.8234401e-08
6.3175289e-07
-1.8674532e-08
6.412218e-07
-1.5971395e-08
6.2936714e-07
-9.273333e-09
5.529615e-07
-2.2061908e-09
3.7852671e-07
1.3228018e-07
1.8254553e-09
1.0613513e-07
8.3656292e-09
3.2553392e-07
1.6416602e-08
5.1726364e-07
2.0890874e-08
6.2504006e-07
2.1192672e-08
6.5256811e-07
1.9696606e-08
6.4402877e-07
1.8065364e-08
6.3119698e-07
1.6633913e-08
6.2239489e-07
1.5302297e-08
6.1652274e-07
1.399804e-08
6.1206907e-07
1.2703752e-08
6.0845672e-07
1.141694e-08
6.0548478e-07
1.0136664e-08
6.0303508e-07
8.8622372e-09
6.0101882e-07
7.5932263e-09
5.9936976e-07
6.3292905e-09
5.980389e-07
5.070056e-09
5.9699002e-07
3.8150619e-09
5.961965e-07
2.5637526e-09
5.9563933e-07
1.3154979e-09
5.953058e-07
6.9630142e-11
5.9518865e-07
-1.1745127e-09
5.9528564e-07
-2.4175372e-09
5.9559945e-07
-3.659951e-09
5.9613788e-07
-4.9021232e-09
5.9691423e-07
-6.1442619e-09
5.9794832e-07
-7.3864205e-09
5.9926782e-07
-8.6285487e-09
6.0091053e-07
-9.8705928e-09
6.0292767e-07
-1.1112579e-08
6.0538839e-07
-1.2355215e-08
6.0838568e-07
-1.3606128e-08
6.1206297e-07
-1.4902818e-08
6.1676775e-07
-1.6312151e-08
6.2343428e-07
-1.7673991e-08
6.3311473e-07
-1.7927716e-08
6.4147553e-07
-1.5095023e-08
6.2653444e-07
-8.618523e-09
5.46485e-07
-2.0545297e-09
3.7196272e-07
1.3022565e-07
1.7210542e-09
1.0441412e-07
7.7985764e-09
3.194565e-07
1.551139e-08
5.0955092e-07
2.0070344e-08
6.2048116e-07
2.0608083e-08
6.5203038e-07
1.9249273e-08
6.4538758e-07
1.7664531e-08
6.3278172e-07
1.6260625e-08
6.237988e-07
1.4962099e-08
6.1782127e-07
1.3694395e-08
6.1333678e-07
1.2436665e-08
6.0971445e-07
1.1185362e-08
6.0673608e-07
9.9392736e-09
6.0428117e-07
8.6975926e-09
6.022605e-07
7.4598589e-09
6.0060749e-07
6.2258025e-09
5.9927296e-07
4.9952009e-09
5.9822062e-07
3.7678074e-09
5.9742389e-07
2.5433263e-09
5.9686382e-07
1.3214183e-09
5.9652771e-07
1.0172257e-10
5.9640835e-07
-1.1161115e-09
5.9650347e-07
-2.3323903e-09
5.9681573e-07
-3.5473444e-09
5.9735283e-07
-4.7611048e-09
5.9812799e-07
-5.9736976e-09
5.9916091e-07
-7.1850668e-09
6.0047919e-07
-8.3951464e-09
6.0212061e-07
-9.6039749e-09
6.041365e-07
-1.0811811e-08
6.0659623e-07
-1.2020029e-08
6.095939e-07
-1.3238267e-08
6.1328121e-07
-1.4506077e-08
6.1803556e-07
-1.5878281e-08
6.2480649e-07
-1.7148483e-08
6.3438493e-07
-1.7231295e-08
6.4155834e-07
-1.4297548e-08
6.2360069e-07
-8.0436447e-09
5.402311e-07
-1.9279276e-09
3.65847e-07
1.2829772e-07
1.6257365e-09
1.0278844e-07
7.2921735e-09
3.1379018e-07
1.4679023e-08
5.0216418e-07
1.9293581e-08
6.1586666e-07
2.0047092e-08
6.5127688e-07
1.8824309e-08
6.4661036e-07
1.7287141e-08
6.3431888e-07
1.5908078e-08
6.2517786e-07
1.4638558e-08
6.1909079e-07
1.3403656e-08
6.1457168e-07
1.2179279e-08
6.1093883e-07
1.096075e-08
6.0795461e-07
9.7465687e-09
6.0549535e-07
8.5357907e-09
6.0347128e-07
7.3278979e-09
6.0181538e-07
6.1226429e-09
6.0047822e-07
4.9198959e-09
5.9942337e-07
3.7195582e-09
5.9862423e-07
2.5215235e-09
5.9806185e-07
1.3256698e-09
5.9772357e-07
1.3186868e-10
5.9760215e-07
-1.0599957e-09
5.9769534e-07
-2.2500045e-09
5.9800574e-07
-3.438186e-09
5.9854101e-07
-4.6245049e-09
5.9931431e-07
-5.8088717e-09
6.0034528e-07
-6.9911814e-09
6.016615e-07
-8.1713998e-09
6.0330083e-07
-9.34969e-09
6.0531479e-07
-1.0526567e-08
6.077731e-07
-1.170411e-08
6.1077144e-07
-1.2893877e-08
6.1447098e-07
-1.4136538e-08
6.1927822e-07
-1.547312e-08
6.2614307e-07
-1.6653748e-08
6.3556556e-07
-1.657964e-08
6.4148423e-07
-1.356852e-08
6.2058957e-07
-7.5347192e-09
5.341973e-07
-1.8192523e-09
3.6013154e-07
1.2647847e-07
1.5377937e-09
1.0125071e-07
6.8372688e-09
3.0849084e-07
1.3911511e-08
4.9509007e-07
1.8557182e-08
6.1122106e-07
1.9507492e-08
6.5032659e-07
1.841905e-08
6.476988e-07
1.6930974e-08
6.3580696e-07
1.5574983e-08
6.2653385e-07
1.4331137e-08
6.2033463e-07
1.3125827e-08
6.1577699e-07
1.1932005e-08