/*--------------------------------*- C++ -*----------------------------------*\
  =========                 |
  \\      /  F ield         | OpenFOAM: The Open Source CFD Toolbox
   \\    /   O peration     | Website:  https://openfoam.org
    \\  /    A nd           | Version:  10
     \\/     M anipulation  |
\*---------------------------------------------------------------------------*/
FoamFile
{
    format      ascii;
    class       volScalarField;
    location    "0.28";
    object      TporMedia_0;
}
// * * * * * * * * * * * * * * * * * * * * * * * * * * * * * * * * * * * * * //

dimensions      [0 0 0 1 0 0 0];

internalField   nonuniform List<scalar> 
4000
(
0.00033080292
0.00019555144
0.00018695535
0.00017720386
0.00017941288
0.00017299433
0.00018305956
0.00019588497
0.00016872633
0.00018635209
0.00019249887
0.00017858326
0.00016315569
0.00019197465
0.00018758903
0.00018576491
0.00017835596
0.00019035848
0.00020679306
0.00018146835
0.00018310301
0.00021922778
0.00016926023
0.00018215343
0.00018589807
0.00017625702
0.00017807128
0.00017270453
0.00019160599
0.00017909999
0.00016699705
0.00019294583
0.00018009688
0.00017915758
0.00018818541
0.00017565424
0.00015960538
0.00018629488
0.00016917893
0.00018999554
0.00017696478
1.29035e-10
5.7270939e-11
4.7377018e-11
5.2273174e-11
5.0573709e-11
6.363761e-11
6.254865e-11
5.7130167e-11
5.4015343e-11
6.3420547e-11
5.9794335e-11
5.7351793e-11
5.9180612e-11
5.855313e-11
6.8894802e-11
6.7771659e-11
5.3038876e-11
6.3912263e-11
5.9427792e-11
5.7402705e-11
5.9202866e-11
5.5876354e-11
6.0002182e-11
6.2278814e-11
6.0524536e-11
5.2793495e-11
5.6870095e-11
5.4483107e-11
5.3390162e-11
6.3720193e-11
6.3392879e-11
4.7664456e-11
5.8396367e-11
6.2667341e-11
5.3420151e-11
5.6937807e-11
5.4585815e-11
5.2835278e-11
5.9867288e-11
0.00015323032
5.2034728e-11
3.5683584e-17
1.3020393e-17
1.3794641e-17
1.5070711e-17
1.6036243e-17
2.1840687e-17
1.6810223e-17
1.6486331e-17
2.034131e-17
1.6312303e-17
1.7020122e-17
1.7177741e-17
1.7642903e-17
2.1561136e-17
1.9685876e-17
1.6815698e-17
1.8980548e-17
1.7057034e-17
1.7497631e-17
1.6518005e-17
1.5616975e-17
1.8423097e-17
2.013308e-17
2.0182982e-17
1.4681405e-17
1.7078974e-17
1.7041006e-17
1.7095792e-17
1.893752e-17
2.2522659e-17
1.4654529e-17
1.7483109e-17
1.7878298e-17
1.62894e-17
1.6559334e-17
1.6063059e-17
1.4892883e-17
1.9724273e-17
0.00015142146
3.4751545e-11
1.1430055e-17
8.9167442e-24
4.1825943e-24
4.3175237e-24
5.7689366e-24
6.1663213e-24
5.7592302e-24
5.0054346e-24
5.3225727e-24
4.6345124e-24
5.4289817e-24
4.5474934e-24
5.4080574e-24
6.3758209e-24
5.687795e-24
4.7386189e-24
5.3250723e-24
5.3723102e-24
4.9313905e-24
4.1175383e-24
5.8370429e-24
5.1058973e-24
5.8402484e-24
4.9308483e-24
4.2233863e-24
4.4514136e-24
4.6579394e-24
4.981492e-24
5.2364835e-24
7.4204789e-24
4.7934694e-24
4.9662474e-24
6.5864597e-24
4.8724553e-24
5.4802795e-24
4.567734e-24
4.3956355e-24
5.6781145e-24
0.00020751935
5.1896065e-11
1.4844583e-17
4.8516813e-24
2.6239674e-30
1.210789e-30
1.496658e-30
1.7741737e-30
1.8302479e-30
1.4624496e-30
1.6931849e-30
1.4746814e-30
1.5112312e-30
1.4399048e-30
1.4548028e-30
1.8118082e-30
1.6510682e-30
1.4013611e-30
1.9333049e-30
1.3233983e-30
1.559641e-30
1.0675818e-30
1.8475146e-30
1.4160036e-30
1.6181884e-30
1.3753085e-30
1.3591239e-30
1.2697722e-30
1.3494482e-30
1.6031178e-30
1.5770819e-30
2.6724722e-30
1.5271173e-30
1.5740111e-30
1.9086229e-30
1.5999344e-30
1.3911096e-30
1.4696102e-30
1.2974202e-30
1.6814447e-30
0.00030481674
8.2989219e-11
2.2342015e-17
6.4797467e-24
1.776428e-30
9.8075867e-37
4.3860404e-37
4.6849333e-37
5.3655097e-37
3.7469051e-37
5.0342239e-37
4.3355895e-37
4.3283067e-37
4.5275062e-37
4.2717461e-36
4.4733597e-37
5.21427e-37
4.0969597e-37
5.9616255e-37
4.8903834e-37
4.9176997e-37
2.9558162e-37
5.6494341e-37
3.472794e-37
4.7850601e-37
3.9821546e-37
4.4019205e-37
4.038995e-37
4.0105147e-37
4.0466933e-37
4.8180425e-37
7.578182e-37
5.3233438e-37
4.759928e-37
4.994749e-37
5.3355992e-37
-2.0221915e-36
4.3929369e-37
3.5654617e-37
5.1510408e-37
-0.0013076228
-7.4664375e-10
-2.2133403e-16
-7.0852593e-23
-2.3962786e-29
-7.0159992e-36
-1.8886559e-42
5.262291e-44
1.4701196e-43
1.3684875e-43
1.8159043e-43
1.3108149e-43
1.389368e-43
6.9481198e-42
1.3917743e-41
9.8066303e-44
1.8238147e-43
-9.3481155e-45
2.4664e-43
1.5612646e-43
6.0923959e-44
9.6594357e-44
2.0630906e-43
7.4051461e-44
1.4071534e-43
1.2981021e-43
1.2014954e-43
1.3427489e-43
1.30643e-43
1.3963628e-43
1.726629e-43
2.4391115e-43
4.4075178e-43
1.3541403e-43
1.471519e-43
2.2068048e-43
-3.4619283e-42
1.4190771e-43
1.2023121e-43
1.5425014e-43
-0.00016362636
9.7918754e-11
2.9628151e-17
6.9679547e-24
2.2706672e-30
6.4687531e-37
2.1231488e-43
-9.8287257e-50
4.6425087e-50
4.7093853e-50
2.5714612e-49
1.3628995e-49
6.3262642e-50
-1.2312e-47
1.4482248e-47
-1.6927945e-49
-3.1638557e-49
-1.1859727e-49
-4.2557324e-49
3.7280169e-50
-3.1003178e-49
3.0534604e-50
8.4421784e-50
-1.4413202e-50
4.1154173e-50
9.2103823e-50
3.7355671e-50
8.787134e-50
7.8549346e-50
3.5890473e-50
9.683406e-50
5.1285264e-50
4.6374546e-49
4.039827e-50
4.0778908e-50
1.5400741e-49
-3.6290913e-48
6.6600806e-50
5.8775939e-50
4.0373646e-50
-8.1184815e-05
1.1304804e-11
9.5740962e-18
2.4537659e-24
7.600219e-31
2.249629e-37
6.8802421e-44
2.1705008e-50
2.9312074e-56
4.1191242e-56
6.5501452e-55
4.0292908e-55
4.8783042e-56
-1.4594917e-53
9.4771855e-52
-1.8852177e-54
-9.1310023e-55
8.0458268e-55
-5.9509295e-55
-1.3911857e-55
-9.2684714e-55
1.8427005e-56
5.4173366e-56
-8.2097845e-56
1.4808872e-56
9.7480912e-56
1.711992e-56
1.0519674e-55
1.1419884e-55
1.5441629e-56
7.5689181e-56
-7.0896065e-57
8.1817985e-55
2.6937484e-56
1.5707101e-56
3.777513e-55
-2.292684e-53
7.3457328e-56
1.0193423e-55
1.2006357e-56
-4.7281055e-05
2.9643978e-12
-1.2198415e-18
-2.7020263e-25
-7.8705342e-32
-2.1806739e-38
-6.2372905e-45
-1.7788188e-51
-5.3180585e-58
6.3382345e-62
1.0343683e-60
1.0988671e-60
7.0469613e-62
4.6176874e-59
1.6158019e-57
-3.7868609e-60
-3.3386436e-60
1.3186432e-58
-1.027221e-60
-2.6866828e-61
-2.4852399e-60
-7.9718115e-62
4.471654e-62
-1.010414e-61
8.3170394e-63
1.2132063e-61
2.0335467e-62
4.6136126e-61
1.7172e-61
2.5728775e-62
1.0276285e-61
-3.9846064e-62
2.6309266e-60
2.9035587e-62
1.3289625e-62
4.1135138e-61
-6.524422e-59
1.3673558e-61
1.8720996e-61
3.2912876e-63
-3.1630265e-05
1.1589034e-12
-1.55639e-19
-3.3061104e-26
-7.6186567e-33
-2.461181e-39
-7.0565975e-46
-2.2036638e-52
-5.9947349e-59
-1.5213231e-65
1.3767815e-66
2.4539613e-66
1.3571133e-67
7.6745696e-65
3.9953663e-63
-8.5098752e-66
3.8566956e-65
2.560768e-64
-8.7539099e-67
-2.9085931e-67
-4.0304692e-66
-2.099446e-67
8.0198742e-68
-1.4999001e-67
8.2260243e-69
1.3458636e-67
2.4827552e-68
1.0223542e-66
4.2288596e-67
2.9808289e-68
4.0241671e-67
-8.1894058e-68
3.8803912e-66
4.0132506e-68
2.5634263e-68
7.0032441e-67
-1.5990056e-64
4.7278738e-67
6.8866862e-67
9.0382133e-70
-2.2832338e-05
5.3219992e-13
-3.2695018e-20
-6.5160613e-27
-1.1320689e-33
-3.1140818e-40
-7.7446313e-47
-2.1685649e-53
-5.3182144e-60
-1.3492523e-66
1.7060316e-72
3.9218473e-72
1.6535651e-73
1.869787e-70
5.9418014e-69
-2.8485081e-71
1.7084097e-70
4.7057323e-70
-1.6222039e-72
-5.0546107e-73
-6.4265108e-72
-3.5467395e-73
-7.2741596e-73
-1.50426e-73
2.5705276e-74
1.3308641e-73
4.1370882e-74
1.9072371e-72
1.102285e-72
5.5836676e-74
7.1779527e-73
-1.0074473e-73
-1.4162078e-69
8.3485841e-74
3.9077395e-74
2.2667864e-72
-2.5908698e-70
2.8383842e-72
6.7123502e-73
2.7318208e-76
-1.6939061e-05
2.6775095e-13
-9.2543496e-21
-2.6283859e-27
-3.4157382e-34
-7.47613e-41
-2.5815868e-47
-7.5396502e-54
-2.115829e-60
-6.5090663e-67
-1.8924416e-73
4.241785e-78
-4.0321862e-78
3.9675336e-76
7.8331344e-75
-3.2675526e-77
-4.5867658e-75
1.0429776e-75
-2.2232548e-78
-1.0224999e-78
-1.3058316e-76
2.5362212e-78
-8.1554659e-79
-3.7072596e-79
3.7637019e-80
2.6411849e-79
6.0634519e-80
6.9100242e-78
7.2526644e-78
1.7098872e-79
1.289208e-78
-9.5377759e-80
-3.1904905e-75
9.9096661e-80
3.4304006e-80
1.1429056e-77
-3.1520905e-76
3.7459482e-78
9.7980535e-79
8.8950197e-83
-1.2979786e-05
1.4688415e-13
-3.0946336e-21
3.2145937e-27
3.676463e-34
6.7588273e-41
1.827703e-47
4.9039285e-54
1.3646761e-60
3.6018285e-67
9.7363891e-74
2.5278426e-80
-5.7224609e-83
5.9693771e-82
9.0736936e-81
-4.1295828e-83
-8.1055767e-81
3.3515026e-81
-3.4659142e-84
-3.8162624e-84
-1.8816909e-82
1.2815609e-83
-2.1512479e-84
-1.4178638e-84
6.4310965e-86
7.4248627e-85
7.2395813e-86
1.5268153e-83
1.1197577e-83
2.0684711e-85
5.0922255e-84
-1.3054522e-85
-9.6622333e-81
8.2504188e-86
1.41866e-85
1.8157344e-83
-3.9610917e-82
-2.7728394e-83
1.4122178e-84
2.8908041e-89
-1.0165389e-05
8.4870926e-14
-1.2031308e-21
1.6411087e-28
1.5025213e-35
2.3548233e-42
6.3257681e-49
1.7351637e-55
5.7832646e-62
1.4651777e-68
4.3558705e-75
1.4098228e-81
9.3908008e-89
1.0310631e-87
1.8504707e-86
-3.9248718e-89
-1.0878911e-86
6.4940203e-87
-4.6462754e-90
-6.2860255e-90
-3.799486e-88
1.6336798e-89
-6.2776515e-90
-2.7186431e-90
8.3072806e-92
1.9530717e-90
1.5471324e-91
2.3172024e-89
2.9451351e-89
2.6586432e-91
1.2057803e-89
-2.129663e-91
-2.1300214e-86
6.2442327e-92
2.0877108e-91
2.6566774e-89
-1.8135581e-87
-4.8366324e-89
1.8875134e-90
1.0365524e-95
-7.9379263e-06
5.0362775e-14
-4.9360552e-22
2.9656274e-29
2.2933111e-36
2.7770993e-43
7.0414965e-50
1.8335008e-56
5.7803737e-63
1.6426918e-69
4.497155e-76
1.371503e-82
4.1171374e-89
1.2948498e-93
2.4885413e-92
-5.7573189e-95
8.2504525e-92
1.1183031e-92
-5.6783614e-96
-1.318214e-95
-5.059611e-94
2.6948155e-95
-8.9569173e-96
-7.7315765e-96
1.6900786e-97
-4.0775723e-96
3.9438843e-97
3.3180375e-95
4.8522368e-95
3.0614203e-97
1.8811257e-95
-8.9545695e-98
8.8368864e-92
4.7891172e-97
3.7996057e-97
2.8457329e-95
-5.1319636e-93
-5.0822977e-95
4.985746e-96
4.7926778e-102
-6.3048363e-06
3.09166e-14
-2.185053e-22
6.8669513e-30
5.1662926e-37
4.8262156e-44
1.0309235e-50
2.9491776e-57
9.751769e-64
2.8151442e-70
8.8758926e-77
2.7825722e-83
8.0601997e-90
2.4831476e-96
1.4367232e-97
-1.0584353e-100
1.4374826e-97
-2.1404764e-97
-4.4750409e-101
-4.1255265e-101
-9.0434379e-100
4.2182096e-101
-9.9400989e-102
-1.0567483e-101
4.3423356e-103
-8.1305039e-102
8.1314935e-103
4.4931229e-101
1.8986348e-100
4.1070134e-101
4.2250154e-101
-7.1525795e-104
1.3523515e-97
7.3468542e-103
-1.2033444e-101
4.3544421e-101
-1.1295006e-98
-1.4541043e-100
5.9467544e-102
3.5394291e-108
-5.0720606e-06
1.9568433e-14
-1.0291502e-22
1.9770227e-30
1.4135992e-37
1.0259406e-44
1.7149682e-51
4.9030121e-58
1.5409828e-64
4.1034295e-71
9.7003745e-78
2.7288823e-84
8.0800849e-91
3.4818522e-97
-1.6080026e-101
-2.6447087e-106
1.3185075e-103
-2.8436101e-103
-2.0107051e-106
-1.3146589e-106
-3.6083309e-105
5.0647502e-107
-9.8553996e-108
-1.4345633e-106
6.6471783e-109
-2.3316045e-107
2.2551869e-108
5.8853356e-107
4.4009935e-106
4.1620982e-107
4.169543e-107
1.4479303e-109
2.6302139e-103
1.4769798e-108
-1.8642063e-107
8.2034823e-107
-2.5733981e-104
-2.080569e-106
1.5900865e-107
1.6242828e-114
-4.1164692e-06
1.2653361e-14
-5.0244234e-23
6.360876e-31
5.2616143e-38
3.0183619e-45
4.2083048e-52
1.0983862e-58
2.9820402e-65
8.8305504e-72
2.4804468e-78
1.8229246e-85
-8.3025025e-91
-1.9120498e-96
-2.4653695e-102
-2.6103719e-108
2.0738482e-109
-4.2018023e-109
-2.8255541e-112
-1.551886e-112
-7.3033381e-111
7.2045378e-113
-1.9725441e-113
-1.8446859e-112
2.0052138e-114
-3.5208381e-113
5.2802132e-114
6.0979427e-113
3.841897e-112
4.571881e-113
1.5501507e-112
5.202773e-115
8.3311528e-109
6.0498189e-114
-3.1989406e-113
7.2751552e-113
-4.0586523e-110
-3.3216622e-112
-9.6802471e-112
-3.7176882e-118
-3.3749249e-06
8.3437124e-15
-2.557978e-23
2.2019592e-31
2.8300951e-38
1.2739241e-45
1.4596398e-52
3.8436236e-59
1.0605226e-65
2.9171644e-72
8.5731548e-79
1.9919853e-85
6.2798178e-92
1.8494776e-98
8.2355729e-105
9.93773e-111
2.9352301e-115
-7.9825166e-115
-4.8406189e-118
-4.2659167e-117
-1.3634712e-116
1.3294033e-118
-2.8324632e-119
-1.9738124e-118
5.6760589e-120
-1.3414363e-118
2.0491255e-119
9.2714385e-119
6.3445015e-118
4.3204141e-119
2.2504531e-118
1.1753345e-120
1.4914402e-114
9.6935816e-120
-5.1215485e-119
8.7367986e-119
-1.3347343e-115
-1.150763e-117
-9.7032446e-117
-3.5454638e-123
-2.7854162e-06
5.6038733e-15
-1.3473499e-23
8.2848817e-32
9.7883083e-38
3.6224777e-45
3.2685198e-52
8.2326215e-59
2.2916939e-65
7.7175554e-72
2.4453176e-78
7.0366316e-85
1.7712468e-91
5.1519079e-98
1.3389647e-104
3.3950825e-111
6.4207127e-118
-4.768774e-120
-9.8135021e-124
-7.0897968e-123
4.0871402e-121
2.1154774e-124
-5.4743905e-125
-2.2742795e-124
1.3789352e-125
-2.622115e-124
3.6218168e-125
1.4765405e-124
1.9913211e-123
7.6191786e-125
3.8089037e-124
8.6682941e-127
1.9808523e-120
3.9165141e-125
-5.3334976e-125
1.2631758e-124
-1.7571164e-121
-3.4401242e-123
-1.8048364e-122
-6.3116065e-129
-2.3189519e-06
3.8190235e-15
-7.303861e-24
3.2853415e-32
-2.7846219e-39
-8.7638504e-47
-5.9511786e-54
-1.235239e-60
-4.1418733e-67
-9.9831816e-74
-3.0961522e-80
-8.0009452e-87
-2.129219e-93
-5.7515098e-100
-2.4387567e-106
-1.4565764e-112
-1.8264107e-118
-4.3392956e-124
-2.9169387e-129
-9.0982246e-129
6.6492759e-127
5.5594176e-130
-4.9183674e-131
-2.7681461e-130
3.3124833e-131
-3.1309524e-130
5.3596249e-131
1.9918786e-130
4.8432336e-129
5.8300904e-130
3.8538948e-130
3.2364577e-133
1.7797255e-126
8.5543048e-131
-1.3343181e-130
1.6764413e-130
-2.6327546e-127
-3.648891e-129
-4.558713e-128
-1.6165897e-134
-1.938295e-06
2.6369856e-15
-4.0500553e-24
1.3654848e-32
-4.7475145e-40
-1.3062732e-47
-6.7580058e-55
-1.218986e-61
-4.5587244e-68
-1.2894257e-74
-3.2091995e-81
-9.6297284e-88
-3.0725491e-94
-8.4696625e-101
-2.1775926e-107
-4.2159963e-114
2.5922282e-120
1.2933645e-125
5.048438e-130
-2.732171e-134
2.4185117e-132
7.0681504e-136
-7.3784467e-137
-2.6458611e-136
1.0905762e-136
-3.8295961e-136
6.3492773e-137
2.0716463e-136
6.0184121e-135
9.1299034e-136
5.7505858e-136
7.9158112e-138
7.1017588e-132
1.9196331e-136
-1.8396314e-136
2.771124e-136
-3.4167563e-133
-1.0751516e-134
-2.2654077e-133
-8.5285537e-140
-1.6318646e-06
1.8435261e-15
-2.2979093e-24
5.9143825e-33
-1.0918549e-40
-2.7033336e-48
-1.0977224e-55
-1.6115325e-62
-4.2661091e-69
-1.1870911e-75
-2.9306517e-82
-9.842214e-89
-2.7221802e-95
-6.3631336e-102
-6.6497998e-109
2.6045897e-114
5.4013981e-120
1.2759356e-125
4.7460795e-131
7.2558946e-137
7.8062e-138
9.9643676e-142
-1.3725362e-142
-2.9792985e-142
1.7491672e-142
-4.1251008e-142
1.3331857e-142
2.661705e-142
6.0703523e-141
1.3698216e-141
7.715633e-142
5.8498224e-143
4.0896689e-137
2.6579655e-142
-2.0060376e-142
3.2744384e-142
-5.0363636e-139
-5.9011019e-140
-6.9758092e-139
-2.8154294e-145
-1.3811199e-06
1.303772e-15
-1.3284061e-24
2.6608762e-33
-3.018276e-41
-7.0281035e-49
-2.3259739e-56
-2.7628052e-63
-7.6043428e-70
-3.0228898e-76
-9.301249e-83
-2.7664651e-89
-8.8958763e-96
-2.070143e-102
3.0259561e-108
5.1772114e-114
1.1110877e-119
2.8973013e-125
1.5685587e-130
-1.5496655e-135
3.8047371e-140
6.479732e-146
-2.8174896e-148
-2.9351817e-148
6.4229317e-148
-7.9374965e-148
3.2726438e-148
4.2003792e-148
7.1958437e-147
1.82232e-147
1.3026635e-147
5.6846848e-149
5.1260437e-143
5.1445128e-148
-2.5607855e-148
4.4634293e-148
-1.6965263e-144
-1.0434271e-145
-1.1550493e-144
-4.5824045e-151
-1.1738248e-06
9.3117748e-16
-7.8235288e-25
1.2321725e-33
-9.1845358e-42
-2.0816254e-49
-5.5442101e-57
-4.8079899e-64
-1.5187869e-70
-4.8514841e-77
-1.3923538e-83
-4.4226319e-90
-1.2520475e-96
-3.718695e-103
-1.0212929e-109
-3.075725e-116
-5.6467697e-122
-6.3868386e-128
2.4783857e-133
2.0247114e-138
-2.3730316e-143
-5.0374663e-148
-2.1650242e-153
-4.1753707e-154
7.9163575e-154
-1.1411987e-153
3.8117678e-154
5.1905637e-154
-3.8099522e-152
2.8545639e-153
3.1412713e-153
1.2318252e-154
8.0501995e-149
-6.1480035e-152
-3.9992003e-154
1.3428712e-153
-1.3403552e-149
-8.3091866e-151
-7.2802003e-150
-2.9134143e-156
-1.0031556e-06
6.7324412e-16
-4.6938847e-25
5.8830141e-34
-3.0410734e-42
-7.2433336e-50
-1.5788018e-57
-1.0922407e-64
-3.0987342e-71
-1.1665091e-77
-3.9845387e-84
-1.094703e-90
-3.1712448e-97
-8.6915595e-104
-4.2118191e-110
-8.2004785e-116
-5.7215369e-121
2.6339441e-126
-8.1617378e-132
-2.7242698e-137
5.9586874e-142
-7.6185822e-148
-7.2190549e-152
-5.273381e-157
-2.1795439e-158
-3.4167934e-159
6.1612979e-160
8.6209638e-160
-2.0503055e-157
1.0309937e-158
4.8767077e-159
-2.0447794e-159
-1.2377474e-153
-1.1796181e-157
-5.4858999e-160
2.4010268e-159
-4.1008971e-155
-1.3716521e-156
-1.0655176e-154
-3.0007243e-161
-8.6000916e-07
4.8995408e-16
-2.8539326e-25
2.8782051e-34
-1.0726869e-42
-2.8816201e-50
-5.2963173e-58
-2.8456904e-65
-7.274786e-72
-2.7653655e-78
-9.6054728e-85
-2.9543515e-91
-9.1316207e-98
-2.8835629e-104
-9.5878851e-111
-4.2740012e-117
1.9469005e-123
-2.1585707e-128
-6.2553e-134
7.4362171e-140
1.7428168e-145
2.9385862e-151
-1.6530212e-156
-6.3461499e-161
-5.5523453e-164
-7.0753938e-165
-4.0761015e-164
1.0350672e-165
-1.0827269e-162
-8.2524551e-163
2.3809909e-164
-9.0772094e-165
-2.2281509e-159
-1.9669088e-163
-1.7623294e-165
9.7349471e-165
-7.6902492e-161
-1.6294452e-162
7.4840911e-160
2.4165582e-166
-7.4023079e-07
3.5980409e-16
-1.7617312e-25
1.4426466e-34
-3.9830647e-43
-1.543284e-50
-2.4159692e-58
-1.0338034e-65
-2.3234542e-72
-1.150214e-78
-4.4513038e-85
-1.2199906e-91
-4.43767e-98
-1.4344622e-104
-3.6800916e-111
-7.8023526e-117
-9.4552867e-123
8.0432717e-129
-5.6004101e-134
-2.5471255e-139
-1.1261157e-144
3.5523166e-150
2.5443434e-154
3.7400841e-160
4.4126172e-165
-1.3779188e-170
-1.5320212e-169
8.3539055e-171
-4.6653389e-168
-1.5823903e-168
7.0685163e-170
-1.9493574e-170
-5.56307e-165
-7.9849464e-169
-7.4536556e-171
3.5999883e-170
-2.7884875e-166
2.117782e-168
2.1323367e-165
6.6308064e-172
-6.389595e-07
2.6613121e-16
-1.1013841e-25
7.3882651e-35
-1.5406837e-43
-1.8541191e-50
-2.4851928e-58
-8.3918225e-66
-1.3344873e-72
-5.6722636e-79
-2.0870681e-85
-7.2324606e-92
-2.2395801e-98
-6.0504585e-105
-2.1074982e-111
1.2272066e-118
1.2446714e-121
6.0960319e-127
2.0195552e-132
-9.6549677e-138
-8.5860633e-143
-5.8428099e-148
-1.9984472e-152
8.8661915e-158
-9.1665857e-163
-3.5894023e-168
3.1349981e-173
2.5266353e-176
-1.1708227e-173
-4.3113469e-174
2.0866824e-174
-3.340478e-176
-1.2244037e-170
-6.0957323e-174
-1.2658676e-176
-1.9228995e-175
-5.3270524e-172
5.2625786e-174
3.1516049e-171
1.203032e-177
-5.5331204e-07
1.9835602e-16
-6.9740334e-26
3.862844e-35
-6.2037459e-44
3.7322567e-51
4.4228588e-59
1.1571391e-66
1.5524605e-73
8.1039557e-80
2.8482992e-86
8.9608594e-93
2.4076781e-99
7.1084118e-106
2.1674117e-112
7.4711526e-119
3.096943e-125
-3.423593e-131
-2.7293471e-136
7.8257424e-142
4.1870958e-147
8.2787582e-153
2.5791114e-157
5.1444709e-163
-1.7554494e-168
8.3390476e-174
-7.9864744e-178
2.36594e-181
-5.5434987e-179
-8.2959492e-179
6.2195011e-180
-1.4791469e-181
-5.8936815e-176
-1.7486981e-179
-3.5988792e-181
3.2727603e-180
-1.2571543e-177
9.9660718e-180
-3.8290178e-177
-1.0002109e-183
-4.8076941e-07
1.4877704e-16
-4.463851e-26
2.0557574e-35
-2.5826988e-44
4.8533469e-52
5.1169438e-60
1.107127e-67
1.0870259e-74
3.8939481e-81
1.8414045e-87
5.7748739e-94
2.0896554e-100
6.5358782e-107
1.9343077e-113
7.3606404e-120
1.2075389e-125
2.2610536e-131
-7.4838784e-137
8.005666e-142
-3.081093e-147
9.001388e-153
2.9959277e-158
1.623631e-163
8.06955e-169
-3.8129164e-174
-9.2238712e-180
1.4498402e-185
-2.3686639e-184
3.1973049e-184
3.7592537e-185
-5.8158105e-185
-1.9596452e-180
-7.3422822e-185
-6.4827803e-187
1.1745311e-185
-6.7993173e-183
5.2502566e-185
-3.4061223e-182
-1.2568712e-188
-4.187061e-07
1.1218854e-16
-2.8859607e-26
1.1123351e-35
-1.107654e-44
1.0817204e-52
1.046292e-60
1.8070645e-68
1.2960161e-75
4.807574e-82
1.9676038e-88
6.8565486e-95
2.0986423e-101
7.6870908e-108
2.3614273e-114
6.7333973e-121
2.069893e-128
1.0629469e-132
-5.143142e-138
2.1456725e-142
1.664041e-147
3.1000382e-153
-8.8999249e-159
-4.4875817e-164
-3.3777716e-169
-9.0142931e-175
6.5612235e-180
-4.8451216e-185
-3.2058333e-189
9.2311766e-190
-6.437844e-191
-1.1433934e-191
3.113998e-186
-2.184686e-190
1.6261206e-192
-2.5367595e-191
-3.3508524e-188
1.0502816e-189
-9.4338793e-187
-3.3904551e-193
-3.6566854e-07
8.5107411e-17
-1.8838973e-26
6.1130867e-36
-4.8756515e-45
2.9212865e-53
2.6412686e-61
3.8164165e-69
2.1840373e-76
8.5277956e-83
3.2532306e-89
1.2376819e-95
4.7220184e-102
1.2401279e-108
4.165207e-115
1.8344109e-121
-2.3353468e-127
2.9228393e-132
-6.8127803e-137
-4.2237549e-142
-1.267881e-147
-5.1022895e-153
3.9594423e-158
2.9672461e-163
-9.8874383e-167
-2.6475759e-172
4.4687456e-178
-1.2832224e-183
-3.3420603e-189
6.1361232e-194
-3.4294354e-196
2.3537871e-196
2.1631155e-191
-5.7618355e-196
1.0570776e-197
-9.9115878e-197
6.0169674e-193
-1.0620628e-194
1.5263303e-192
4.1805446e-199
-3.1985485e-07
6.4850711e-17
-1.2399291e-26
3.4054536e-36
-2.2008513e-45
8.7894214e-54
7.6922602e-62
9.2949239e-70
4.1717553e-77
1.164599e-83
5.0501431e-90
1.8292984e-96
5.5960925e-103
1.4721012e-109
4.5026524e-116
1.7527944e-122
3.7533994e-129
5.3703541e-135
-1.4249706e-140
2.1335602e-144
-2.2111463e-150
-3.0147366e-155
-1.3773181e-160
2.0078366e-165
-9.7814502e-171
-4.3499054e-176
-1.5741003e-181
-3.2784208e-187
5.4960048e-192
2.0142754e-197
7.3193006e-202
-2.4594054e-203
7.4479319e-197
-1.339591e-201
3.4409307e-203
-4.1238246e-202
-6.3953581e-199
-4.6669601e-199
7.6876536e-198
2.9403225e-204
-2.8052629e-07
4.9676886e-17
-8.2313056e-27
1.9229292e-36
-1.0149276e-45
2.8462484e-54
2.4921522e-62
2.554387e-70
8.9716075e-78
2.1312708e-84
1.1631414e-90
4.6983136e-97
1.3827486e-103
4.7428906e-110
1.4672523e-116
4.2788022e-123
9.8152046e-130
-1.5053016e-135
-1.5357804e-140
3.6450646e-146
-2.2383697e-151
2.8175262e-156
-8.4514694e-162
-3.6840404e-167
1.1050386e-172
-3.6324082e-178
1.5219121e-183
8.493953e-189
1.6901341e-194
7.0992143e-200
1.0306426e-204
1.5721819e-206
-9.0492551e-201
3.5430263e-206
3.0915908e-208
-2.9147214e-207
-1.152184e-203
6.2777902e-203
-2.63831e-203
-9.5054578e-210
-2.4644831e-07
3.8205174e-17
-5.5031303e-27
1.0984383e-36
-4.7750999e-46
9.7747913e-55
9.0478385e-63
7.9529656e-71
2.2102479e-78
3.7855849e-85
1.7390837e-91
5.9604377e-98
1.9408319e-104
7.0941741e-111
2.2804087e-117
6.1766001e-124
1.8771867e-130
6.1087053e-136
-2.7438032e-141
-5.9463723e-145
5.2656396e-150
-5.1194515e-156
-9.0729549e-161
-4.8661133e-166
1.344599e-171
3.4249865e-177
1.2405051e-182
3.5228483e-188
-5.1015617e-194
-2.4695688e-199
-1.1960122e-204
-3.8403058e-209
4.409385e-206
-1.1163343e-210
4.7574722e-213
-2.0145172e-212
-4.5909908e-209
-1.1855477e-208
2.4144354e-209
5.7110199e-216
-2.1697152e-07
2.9514193e-17
-3.7063745e-27
6.3482009e-37
-2.2887527e-46
3.5123491e-55
3.6771189e-63
2.8063262e-71
6.2565557e-79
8.5481195e-86
4.5400107e-92
1.5782194e-98
4.8489361e-105
1.7354669e-111
5.1879395e-118
1.4622547e-124
1.304946e-131
-9.8569507e-137
-1.1890121e-141
-5.3981107e-147
9.210541e-153
9.476204e-158
2.7786392e-163
-1.3977821e-168
1.2035296e-172
7.5510081e-178
2.2567191e-183
5.2774191e-189
4.2245093e-194
1.3543917e-199
6.577179e-204
-2.2939223e-209
1.4557078e-211
-1.6997083e-216
9.1378946e-219
-6.6423791e-218
-1.1068436e-214
-3.2399418e-214
-4.9825488e-215
-1.9883876e-221
-1.9134704e-07
2.2888812e-17
-2.5130241e-27
3.7076289e-37
-1.1162972e-46
1.314057e-55
1.8041655e-63
1.2127939e-71
2.1928792e-79
2.166673e-86
1.1313721e-92
5.1828715e-99
1.642659e-105
5.7830875e-112
1.8212036e-118
5.2835802e-125
1.4602147e-131
7.0555228e-138
1.9420935e-142
-5.1067073e-148
5.2005551e-153
-2.6691498e-158
-3.6362797e-163
1.3588429e-168
-6.7952019e-174
-7.0153107e-179
6.7579736e-184
1.4912065e-188
3.8543646e-194
1.3989131e-199
-4.9435769e-205
-1.2074907e-209
6.4701812e-215
1.4774584e-220
-1.1826155e-224
-7.928316e-223
2.5840882e-220
-3.7056112e-218
1.6639171e-220
5.8702053e-227
-1.6905827e-07
1.7815619e-17
-1.714384e-27
2.1869519e-37
-5.5320048e-47
5.0771579e-56
1.2671953e-63
7.5824336e-72
1.1168241e-79
8.5389531e-87
3.8119823e-93
1.5653769e-99
4.3905213e-106
1.3942107e-112
5.1603955e-119
1.7293373e-125
-1.7338546e-132
7.8505286e-137
-4.5949788e-142
-4.0099463e-147
-2.2237708e-152
3.2207979e-156
1.873008e-161
1.4638472e-165
2.8790343e-171
1.7596868e-176
6.3647339e-182
2.0820585e-187
-6.5943036e-193
2.6748e-198
-5.1255694e-203
1.0415076e-208
2.3264138e-213
-2.2398086e-218
-4.6386358e-224
-4.9723168e-228
7.8865202e-226
3.2378798e-223
-2.4927246e-226
-1.3681151e-232
-1.495945e-07
1.3916845e-17
-1.176575e-27
1.3018856e-37
-2.7818995e-47
2.0201955e-56
-2.3248062e-63
-1.2556977e-71
-1.5356714e-79
-9.1708524e-87
-4.9645573e-93
-2.1261002e-99
-7.6726991e-106
-2.3535531e-112
-7.3407949e-119
-2.4709249e-125
-7.5197477e-132
-2.0249965e-138
-3.639529e-145
-1.1483533e-149
5.3087872e-155
-1.1560082e-160
3.2008798e-166
-3.125374e-171
-1.5917039e-176
-1.2943906e-182
1.8718403e-187
1.0334039e-192
2.7042898e-198
2.3622252e-203
-6.3496458e-209
1.2473593e-214
-8.8305158e-219
-7.4589863e-224
2.8856346e-229
-1.6485013e-233
-2.0353037e-231
2.1243078e-228
5.3167783e-232
1.805635e-238
-1.3258908e-07
1.0908733e-17
-8.1210547e-28
7.8208279e-38
-1.4185866e-47
8.2543076e-57
-1.1085995e-64
-5.5018409e-73
-5.5788136e-81
-2.6716665e-88
-9.1635547e-95
-4.5267918e-101
-1.4182618e-107
-4.8616007e-114
-1.3590571e-120
-6.4104409e-127
-6.533757e-134
-1.8003384e-139
1.6539533e-144
-4.5959165e-149
1.9324937e-154
6.5379382e-160
1.1194679e-164
-7.5969229e-170
8.0171396e-175
1.9270195e-179
-4.2046843e-185
2.1061419e-190
2.4185798e-195
8.2960188e-201
4.0619937e-206
3.6106983e-211
3.0182211e-216
5.7234266e-221
2.9663763e-226
2.3669169e-231
1.159617e-236
-9.4594275e-234
-3.0016432e-238
-8.2380806e-245
-1.1767864e-07
8.5771811e-18
-5.6349267e-28
4.7367619e-38
-7.3288347e-48
3.4525025e-57
-2.1676795e-65
-1.002163e-73
-8.6755292e-82
-3.2252006e-89
-9.0783577e-96
-5.8597025e-102
-1.8300219e-108
-5.1959607e-115
-1.4944176e-121
-4.586522e-128
-1.3843339e-134
-4.1591024e-140
5.0893147e-145
-1.9480458e-148
-1.1542171e-153
3.2105222e-159
5.9806014e-165
-2.6199398e-170
3.3590246e-176
-3.0569922e-181
-7.9671086e-187
4.726323e-192
1.2495769e-197
3.7208395e-203
-2.7515701e-209
-9.624485e-214
-4.9140839e-219
7.0327039e-225
-1.2964523e-228
2.2421221e-233
-2.6446904e-238
6.8262992e-240
1.7446567e-243
7.005331e-250
-1.0460278e-07
6.7655395e-18
-3.930282e-28
2.892033e-38
-3.8335084e-48
1.4759933e-57
-5.4626593e-66
-2.3959096e-74
-1.7715292e-82
-5.0274967e-90
-1.314862e-96
-1.0800011e-102
-3.5163641e-109
-1.3401679e-115
-4.2725829e-122
-1.3219091e-128
-3.8614606e-135
-1.3529421e-141
-3.6598138e-148
3.8806679e-154
1.3781104e-159
-5.7344503e-164
-3.5463493e-169
-7.6969987e-174
-1.3774669e-179
-3.9484167e-183
5.342549e-188
-3.3522392e-193
-5.9470468e-198
-3.3003354e-203
4.88545e-208
-1.292127e-212
-2.1206857e-218
-5.4601376e-224
1.3190202e-229
6.3271009e-235
1.4492065e-240
-1.8173251e-245
2.866307e-249
6.8264915e-256
-9.3080453e-08
5.3507633e-18
-2.7539951e-28
1.7787274e-38
-2.0282678e-48
6.4360481e-58
-1.5670489e-66
-6.6771091e-75
-4.2502598e-83
-9.7446978e-91
-1.6695797e-97
-9.6350536e-104
-3.5572236e-110
-1.3775868e-116
-4.5238774e-123
-1.4208324e-129
-4.6647684e-136
-1.438539e-142
-4.3262979e-149
-1.147296e-155
1.8334639e-161
-4.0870091e-167
4.5523619e-172
3.8933656e-176
-6.4064978e-182
-5.8365954e-187
1.843774e-192
-5.9376797e-198
-2.0532422e-203
2.5474627e-208
3.968343e-213
3.0917871e-218
3.9764375e-224
5.1690219e-230
1.2887507e-234
-6.8119041e-240
-7.8157181e-245
1.6476713e-250
9.6138021e-255
2.5564639e-261
-8.29481e-08
4.2438198e-18
-1.9387059e-28
1.1018047e-38
-1.0849102e-48
2.8582923e-58
-4.8947323e-67
-2.0797391e-75
-1.1521977e-83
-2.1658221e-91
-2.7470982e-98
-1.4568415e-104
-6.0856645e-111
-1.6613963e-117
-5.0947658e-124
-1.8086533e-130
-5.0322004e-137
-1.5230946e-143
-3.0855037e-150
-1.4014416e-155
5.094016e-161
3.7427335e-166
3.6627927e-171
3.2687802e-175
4.8262949e-180
1.5067247e-185
-9.5485396e-191
-4.4177306e-195
-2.4620068e-200
-7.9232075e-205
1.1062044e-210
3.5799633e-216
7.7733102e-222
4.4791056e-227
-4.2006869e-232
2.3488812e-237
-3.0345475e-243
-1.5157406e-248
1.7366408e-254
1.9909726e-259
-7.4002017e-08
3.3744985e-18
-1.3706953e-28
6.8707812e-39
-5.8626646e-49
1.2912146e-58
-1.6168767e-67
-7.0470654e-76
-3.434606e-84
-5.2670021e-92
-5.0245233e-99
-2.589512e-105
-1.0017808e-111
-2.9658171e-118
-9.3315547e-125
-2.6549341e-131
-8.7854689e-138
-2.3949299e-144
-8.4735669e-151
-7.5302524e-157
-5.4794251e-161
-2.4179926e-166
9.050749e-172
7.3916686e-177
7.9383609e-182
8.6716416e-187
1.2032129e-191
9.2900712e-197
-3.935385e-201
5.2251618e-205
-1.8900045e-210
-3.6070112e-216
5.4300871e-222
-1.7972777e-227
5.1532014e-232
-4.9943304e-236
-7.9364645e-242
-2.4987608e-247
-2.1172549e-252
-3.2201514e-258
-6.608111e-08
2.6892578e-18
-9.7288952e-29
4.3113344e-39
-3.1988334e-49
5.925318e-59
-5.5959029e-68
-2.640721e-76
-1.1409382e-84
-1.4454088e-92
-1.0748059e-99
-5.7052469e-106
-3.1591208e-112
-1.1912087e-118
-3.7965996e-125
-1.0848358e-131
-3.2152912e-138
-9.2468344e-145
-3.0917145e-151
1.5276882e-158
6.4986604e-163
-3.406692e-168
5.3198923e-174
-1.0420185e-178
-3.6314419e-184
2.8703798e-189
-1.7529964e-194
-1.4813963e-199
-2.8725767e-204
-1.0310451e-209
2.8294194e-214
6.859505e-220
1.8537317e-225
-8.7609688e-231
1.3130146e-235
-1.936132e-241
1.9475606e-246
-2.5829217e-249
-4.174023e-255
2.8765223e-260
-5.9077337e-08
2.1484184e-18
-6.9333479e-29
2.7220832e-39
-1.7618324e-49
2.7606426e-59
-2.0114837e-68
-1.10297e-76
-4.273354e-85
-4.514962e-93
-2.6976984e-100
-1.1911095e-106
-5.4065462e-113
-1.5239822e-119
-4.3065134e-126
-1.3555298e-132
-4.204564e-139
-1.2547186e-145
-2.8416356e-152
-4.9562683e-158
2.2763784e-163
-3.4404111e-169
-1.2361554e-174
-3.7118244e-180
7.0859688e-186
7.1479847e-191
9.8357293e-196
-2.4681765e-201
1.9397467e-206
1.3249095e-211
-2.2794461e-217
-9.4049132e-223
1.9390676e-228
6.6593641e-234
1.2897686e-239
2.9156423e-245
-2.0514053e-250
-8.4332145e-255
-1.6958406e-260
4.3702894e-266
-5.2862719e-08
1.719931e-18
-4.958794e-29
1.7283897e-39
-9.7880325e-50
1.3039628e-59
-7.4642302e-69
-5.446085e-77
-1.9111013e-85
-1.7080918e-93
-7.554207e-101
-2.9869552e-107
-1.4416984e-113
-5.8477752e-120
-1.8383101e-126
-6.3116829e-133
-1.8966139e-139
-6.5469524e-146
-1.9714839e-152
6.9115098e-158
4.2857925e-163
-2.6372981e-168
-1.179653e-173
-4.680487e-179