/*--------------------------------*- C++ -*----------------------------------*\
  =========                 |
  \\      /  F ield         | OpenFOAM: The Open Source CFD Toolbox
   \\    /   O peration     | Website:  https://openfoam.org
    \\  /    A nd           | Version:  10
     \\/     M anipulation  |
\*---------------------------------------------------------------------------*/
FoamFile
{
    format      ascii;
    class       volScalarField;
    location    "0.28";
    object      TporMedia;
}
// * * * * * * * * * * * * * * * * * * * * * * * * * * * * * * * * * * * * * //

dimensions      [0 0 0 1 0 0 0];

internalField   nonuniform List<scalar> 
4000
(
0.00033339265
0.00017198913
0.00019344042
0.00018080107
0.00019347174
0.00018060096
0.00019239349
0.00017421234
0.0001769696
0.0001757394
0.00016211804
0.00017369942
0.00019213663
0.00018878376
0.00018857249
0.0001846012
0.00017539012
0.00019080333
0.0001755545
0.0002016857
0.00017117706
0.00019429723
0.00019445238
0.00018497445
0.00019080167
0.00016556973
0.00017175646
0.00019100552
0.00019594414
0.00018172148
0.00019607418
0.00016879156
0.00017533804
0.00017735121
0.00019824669
0.00019033503
0.00020170562
0.00016868121
0.00019294041
0.0001804337
0.0001694895
1.1053144e-10
6.1427838e-11
5.6332583e-11
6.8431387e-11
4.9780814e-11
6.7880001e-11
5.6161136e-11
5.8316119e-11
5.2391443e-11
5.9368884e-11
5.8773513e-11
7.1952259e-11
6.2422876e-11
6.0462417e-11
5.6316823e-11
5.5785161e-11
6.1022392e-11
7.0117539e-11
5.4037559e-11
5.3049553e-11
6.2140833e-11
6.1128788e-11
5.5615492e-11
5.008973e-11
4.5633706e-11
5.2141486e-11
6.0399154e-11
6.493463e-11
5.8010225e-11
5.3081006e-11
6.7737693e-11
5.2094438e-11
5.165109e-11
6.7431851e-11
6.8390503e-11
7.8600859e-11
5.1127527e-11
5.3964444e-11
5.618175e-11
0.00015323788
5.3807853e-11
3.0420396e-17
1.6785777e-17
2.1904728e-17
1.5355048e-17
1.9049989e-17
1.6560044e-17
1.7069104e-17
1.6191669e-17
1.7505705e-17
1.7773602e-17
2.3832956e-17
1.6950351e-17
1.9709166e-17
1.4590458e-17
1.8113154e-17
1.8511592e-17
2.6020129e-17
1.6395603e-17
1.4968222e-17
1.8738971e-17
1.8381831e-17
1.6459121e-17
1.6640344e-17
1.3551866e-17
1.4310624e-17
2.0927291e-17
1.5545554e-17
2.0612252e-17
1.7982462e-17
1.890179e-17
1.4846973e-17
1.827912e-17
2.00997e-17
2.3995666e-17
2.3712125e-17
1.6376059e-17
1.6877099e-17
1.7281656e-17
0.00015020562
3.4139174e-11
1.1501178e-17
7.8380626e-24
6.4232838e-24
4.612546e-24
5.5777545e-24
4.5066275e-24
5.4571428e-24
4.8541505e-24
5.2936415e-24
5.6649438e-24
7.4844243e-24
5.9270018e-24
5.7173876e-24
4.7858048e-24
5.3148196e-24
6.2827397e-24
8.2049981e-24
4.5716367e-24
4.9279637e-24
5.1871548e-24
5.4233874e-24
5.6901242e-24
5.7555512e-24
3.9545397e-24
4.7226905e-24
5.9147526e-24
4.496529e-24
5.8216888e-24
5.6485283e-24
6.1306551e-24
3.8139011e-24
5.3047372e-24
7.0483505e-24
6.9167884e-24
7.1474799e-24
4.6484007e-24
5.0619756e-24
5.0029649e-24
0.00016732361
3.5962273e-11
1.2334698e-17
3.9955856e-24
2.9866726e-30
1.5719799e-30
1.7038887e-30
1.270353e-30
1.4451272e-30
1.3323135e-30
1.8424516e-30
1.7086844e-30
2.1826953e-30
1.6145281e-30
1.4850473e-30
1.6811971e-30
1.4242261e-30
1.7848173e-30
2.5132401e-30
1.3796781e-30
1.464821e-30
1.5331814e-30
1.858036e-30
1.6273818e-30
1.6703692e-30
1.1016137e-30
1.2776776e-30
1.9043438e-30
1.4124475e-30
1.7507275e-30
1.88624e-30
1.5567352e-30
1.2859104e-30
1.4873737e-30
2.5121681e-30
2.6919309e-30
2.23265e-30
1.3119915e-30
1.5630993e-30
1.3330204e-30
0.00026190466
6.3342541e-11
1.6818315e-17
5.5658912e-24
1.8411999e-30
1.1446726e-36
5.7353154e-37
3.4638507e-37
4.7095318e-37
3.4555413e-37
5.3706356e-37
5.612893e-37
6.7827054e-37
4.9693123e-37
4.3958539e-37
4.1378285e-37
4.3899427e-37
5.0164649e-37
9.4092858e-37
4.0437744e-37
4.240927e-37
5.0948127e-37
4.9338687e-37
5.3821546e-37
4.9957455e-37
3.2015235e-37
3.7801534e-37
5.3669016e-37
4.1997872e-37
6.4184981e-37
5.5616861e-37
4.6279682e-37
4.5455743e-37
4.4173851e-37
6.7673721e-37
8.2321007e-37
6.8150679e-37
4.5638804e-37
4.3687319e-37
4.2396812e-37
0.0014040027
4.8127979e-10
1.6173815e-16
4.9013421e-23
1.5698088e-29
4.5361076e-36
1.8244128e-42
1.0293005e-44
1.290075e-43
1.1311087e-43
1.4599662e-43
1.8678964e-43
1.7465649e-43
1.4357253e-43
1.3755851e-43
1.2000918e-43
1.1771824e-43
1.5120819e-43
6.8301451e-43
1.4579929e-43
1.3278997e-43
1.5965597e-43
1.792404e-43
1.5755693e-43
1.4223476e-43
9.9054853e-44
1.089956e-43
1.724268e-43
1.548289e-43
2.9760824e-43
1.7807054e-43
1.4288711e-43
1.5486032e-43
1.1060141e-43
2.0102948e-43
2.3220277e-43
1.9491285e-43
1.3254499e-43
1.4551486e-43
1.1243305e-43
-0.00028973232
7.955067e-10
2.0939197e-16
6.6718386e-23
2.1542888e-29
7.7756156e-36
2.3048973e-42
4.9102735e-49
4.3016389e-50
4.4527086e-50
1.924208e-50
7.9549011e-50
5.0465541e-50
4.7517955e-50
4.3446701e-50
-1.034539e-50
1.6067013e-50
2.6535368e-50
9.4517304e-49
1.1643997e-49
4.793447e-50
6.601542e-50
9.1497036e-50
5.1094318e-50
4.3355807e-50
-2.2298533e-48
2.9984794e-50
5.0630907e-50
8.9351332e-50
2.0685388e-49
4.8080409e-50
4.7334988e-50
4.979492e-50
-2.0000509e-51
6.5431632e-50
5.7503696e-50
5.4516907e-50
8.4127068e-50
5.2911192e-50
3.3190819e-50
-9.8047954e-05
1.9123586e-11
1.0312727e-17
2.4238833e-24
7.1729829e-31
2.0265944e-37
6.7731093e-44
2.1815345e-50
2.301673e-56
5.5022108e-56
-2.3251199e-56
6.7286714e-56
1.8875838e-56
2.4514865e-56
5.2316945e-56
-4.2548783e-56
-4.4048863e-56
-1.0592087e-56
1.7946267e-54
-5.8606166e-55
3.2600595e-56
5.7211968e-56
1.1783584e-55
2.3046713e-56
4.1296144e-56
-4.1108693e-54
1.4352179e-56
-4.750865e-56
3.0542316e-55
2.0727279e-55
1.9830752e-56
1.4697537e-56
1.9954314e-56
-1.3584003e-55
2.4418907e-56
-1.9878962e-55
2.3905531e-56
7.6666944e-56
4.9151669e-56
1.0199002e-56
-5.2829553e-05
3.9580398e-12
-5.9777044e-18
-1.2364679e-24
-3.2873238e-31
-9.3427162e-38
-2.5960758e-44
-7.0252414e-51
-2.1161136e-57
6.1865477e-62
-5.3606645e-62
9.0300799e-62
2.1316393e-62
1.7588254e-62
1.8667692e-61
-1.3757334e-61
-1.3075773e-61
-7.3139914e-62
2.2284364e-60
-1.6096161e-60
-3.5474418e-61
4.9628702e-62
3.2740353e-61
2.0939271e-62
6.5460743e-62
-2.173062e-59
2.1530829e-62
-2.0172161e-61
3.0520887e-61
2.1711158e-60
3.6917228e-62
6.6303764e-63
1.4268615e-62
-4.2200296e-61
1.0110362e-62
-4.3289714e-61
1.4389803e-62
-9.2038212e-60
6.1680129e-62
2.8770581e-63
-3.5301016e-05
1.4860095e-12
-2.6547307e-19
-5.5664855e-26
-1.3033134e-32
-3.7329534e-39
-1.2405739e-45
-3.4149e-52
-1.0832428e-58
-3.0187636e-65
-1.3240934e-67
2.0851208e-67
4.9481603e-68
4.4383228e-68
5.9438998e-67
-2.2125816e-67
-1.8766527e-67
-9.8157472e-68
4.0232999e-66
-3.511002e-66
-4.8842399e-67
3.6890854e-67
4.8641027e-67
6.9537534e-68
1.6242215e-67
-3.2229059e-65
2.1671372e-68
-3.1526901e-67
7.8105748e-67
8.2201365e-66
5.3689246e-68
6.5825203e-69
1.1770834e-68
-1.1133372e-66
6.8738706e-69
-7.3471905e-67
1.4784988e-68
-2.0185355e-65
8.2288814e-68
8.2901636e-70
-2.5753065e-05
6.7547909e-13
-4.7620078e-20
-1.0964044e-26
-2.192124e-33
-6.0259097e-40
-1.581201e-46
-4.4743565e-53
-1.3216969e-59
-3.9591694e-66
-1.745606e-72
4.5533165e-73
3.9701058e-74
8.3177644e-74
8.1767567e-73
-4.509793e-73
-3.32036e-73
-2.1489042e-73
6.1169353e-72
-8.2267999e-72
-1.0359302e-72
6.6652501e-73
6.5113778e-73
1.1161502e-73
1.7288819e-73
-2.0595773e-70
2.3286349e-74
-2.659797e-72
7.4285554e-73
3.6842355e-71
2.5491035e-73
1.2586983e-74
2.7399052e-74
-1.4763847e-72
4.1925225e-75
-1.069451e-72
1.8317229e-74
-1.7438453e-71
1.2842293e-73
2.2703941e-76
-1.8475642e-05
3.2207194e-13
-1.2489959e-20
-4.6101291e-27
-6.8034179e-34
-1.7503364e-40
-4.678682e-47
-1.2051603e-53
-3.8543641e-60
-1.0027172e-66
-3.3622713e-73
4.7334374e-79
4.5214167e-80
2.9596042e-79
3.0976399e-78
-5.6905422e-79
-3.7892258e-79
-3.6817724e-79
1.2046705e-77
-1.0553707e-77
-4.4365816e-78
1.5954364e-78
7.4098621e-79
1.4922725e-79
-7.4957945e-78
-2.3606098e-76
2.6319977e-80
-7.3736017e-78
8.8922236e-79
5.3910361e-77
3.2024706e-79
3.7562158e-80
4.7514949e-80
-2.0568376e-78
5.6679596e-81
-1.937162e-78
2.34851e-80
-3.9300292e-77
1.5392137e-79
6.3366233e-83
-1.3948225e-05
1.7232469e-13
-4.1215925e-21
8.8077011e-27
1.108387e-33
2.0722586e-40
6.7257642e-47
1.8262225e-53
4.7238211e-60
1.6600773e-66
5.1634723e-73
1.3156493e-79
1.5391876e-85
1.2608502e-84
1.532439e-83
-4.645191e-85
-3.4468717e-85
-2.9751289e-84
3.8514118e-83
-2.2239361e-82
-1.4500521e-83
3.7672594e-84
1.3169455e-84
2.1631516e-85
-2.0703494e-83
-3.1931272e-82
5.909174e-86
-1.5050441e-83
1.2588806e-84
1.1301318e-82
5.2481498e-85
1.2785949e-85
7.2862057e-86
-6.1989805e-84
1.3250571e-86
-1.7372996e-84
2.8960589e-86
-6.1751502e-83
1.3309043e-85
2.1428385e-89
-1.0938271e-05
9.9412802e-14
-1.5462043e-21
2.3252798e-28
2.2713196e-35
3.6939984e-42
9.0977791e-49
2.7127635e-55
6.3466575e-62
1.7374861e-68
4.6014022e-75
1.411795e-81
4.1454832e-88
3.1790719e-90
3.4870077e-89
-2.1706024e-90
-4.4333048e-91
-4.1647727e-90
1.1573244e-88
-5.7185114e-88
-2.0415529e-88
1.1850895e-89
2.4191076e-90
2.4903318e-91
-3.9413955e-89
-4.5047066e-88
1.037834e-91
-6.367503e-89
1.8589677e-90
1.8473944e-88
1.2626256e-90
1.6785644e-91
7.5448496e-92
-8.7407514e-90
7.5865497e-92
-1.3716737e-90
2.3442503e-92
-1.0061835e-88
2.2614276e-91
6.3006037e-96
-8.4001618e-06
5.7538134e-14
-6.1061197e-22
3.9619501e-29
3.3497295e-36
4.0693822e-43
1.1060117e-49
3.0692376e-56
9.0160264e-63
2.6488321e-69
8.685519e-76
2.2412094e-82
4.1884373e-89
-1.6246793e-95
6.8003539e-95
-4.6024424e-96
-4.8490169e-97
-4.602614e-96
2.5500841e-94
-4.7919434e-93
-2.4395171e-94
1.7062777e-95
5.1885736e-96
2.8662241e-97
-4.7194432e-95
-2.1092729e-93
1.4178044e-97
-7.1740657e-95
6.1337519e-96
3.0466207e-94
1.5923828e-96
2.1984842e-97
6.9494877e-98
-1.0720501e-95
1.0970401e-97
-1.5856775e-96
5.0466633e-98
-1.5818799e-94
3.836205e-97
2.2201888e-102
-6.7358649e-06
3.5432415e-14
-2.700737e-22
9.2034671e-30
7.2288281e-37
6.9555056e-44
1.5347441e-50
5.5347632e-57
1.7512643e-63
5.3578134e-70
1.365432e-76
3.487328e-83
9.8631138e-90
2.6035628e-96
9.312788e-101
-8.2505883e-102
-8.2867025e-103
-5.4509149e-102
3.6432973e-100
-6.6894479e-99
-4.7707001e-100
1.5460438e-101
7.9638876e-102
1.4026161e-102
-5.5375028e-101
-3.6250167e-99
3.1690122e-103
-9.9938449e-101
1.4523478e-101
3.9100669e-100
2.6202948e-102
4.5883805e-103
1.6725876e-103
-1.2974864e-101
9.8098631e-104
-5.8053157e-102
7.3728038e-104
-2.7584425e-100
-7.0709214e-103
4.5240823e-109
-5.3791447e-06
2.2138046e-14
-1.2447961e-22
2.5816086e-30
1.9649519e-37
1.4836311e-44
2.7606826e-51
8.4521972e-58
2.3386193e-64
5.6647663e-71
1.4828104e-77
4.4498519e-84
1.3458716e-90
3.5691015e-97
1.3101985e-103
-3.6703825e-107
-1.3198931e-108
-1.0099782e-107
7.4329697e-106
-1.1346194e-104
-1.0293211e-105
1.5159795e-107
3.7074387e-107
8.0445771e-108
-2.3588699e-106
-7.9910989e-105
3.8525389e-109
-1.5896678e-106
3.0358405e-107
4.633394e-106
4.7086951e-108
4.9442115e-109
2.9585231e-109
-1.852035e-107
3.6191058e-109
-1.0037145e-107
1.1805745e-109
-3.3958258e-106
-2.7016988e-108
-6.852443e-115
-4.3528745e-06
1.4245322e-14
-6.0467763e-23
8.179143e-31
6.981737e-38
4.1474131e-45
6.6359462e-52
1.6920882e-58
5.2761362e-65
1.3224795e-71
3.639372e-78
1.0254682e-84
3.4882328e-91
1.0436689e-97
3.109145e-104
9.4544294e-111
-1.2532691e-114
-2.2739722e-113
9.648401e-112
-1.8227264e-110
-5.4029342e-111
3.2042879e-113
7.1311996e-113
1.0877864e-113
5.6358561e-111
-1.4346782e-110
6.2258886e-115
-4.4744651e-112
8.0574682e-113
4.0576894e-112
4.5323182e-114
2.1010591e-114
3.5181438e-115
-1.6749798e-113
6.5449599e-115
-1.2045989e-113
1.228179e-115
-2.8941281e-111
-1.1969593e-113
-3.6789623e-120
-3.5611999e-06
9.3354368e-15
-3.0446232e-23
2.8107786e-31
3.7388414e-38
1.8069392e-45
2.1291646e-52
5.7449526e-59
1.7598741e-65
4.9767604e-72
1.3919582e-78
4.1348177e-85
1.2483747e-91
3.0518003e-98
7.3089963e-105
6.0011134e-113
-4.2190193e-117
-2.8640894e-119
2.9361692e-117
-1.6792652e-116
-1.4296228e-116
3.3193767e-119
7.2633977e-119
1.5270926e-119
5.7152436e-117
-5.0235654e-116
6.1303433e-121
-7.8792459e-118
1.2674899e-118
4.4816734e-118
-7.479927e-120
5.0447455e-120
4.9820404e-121
-1.9880908e-119
1.1319847e-120
-2.9468632e-119
1.5452318e-121
-3.5826073e-117
1.0624827e-118
2.8806893e-125
-2.9378803e-06
6.247701e-15
-1.59498e-23
1.0436696e-31
1.3411624e-37
5.2684333e-45
4.5786905e-52
1.3182201e-58
4.6122065e-65
1.3385214e-71
3.9387357e-78
1.1461283e-84
2.7840364e-91
9.4942065e-98
3.1802571e-104
1.8933338e-110
1.4998761e-116
1.7400083e-122
9.3133091e-123
-2.1361154e-122
-2.9958284e-122
3.4964226e-125
6.671158e-125
3.015547e-125
9.7927829e-123
-5.2093398e-122
7.5955676e-127
-7.1642354e-124
1.4301841e-124
-6.4490791e-124
-1.1467318e-125
7.9100021e-126
5.0230733e-127
-4.7156274e-125
1.4259397e-126
-2.7922745e-125
1.0804922e-126
-9.140703e-123
7.6159306e-124
2.3950292e-130
-2.4386807e-06
4.2459019e-15
-8.5919729e-24
4.09446e-32
-3.9235626e-39
-1.3368326e-46
-9.7776369e-54
-2.1079583e-60
-6.8663414e-67
-1.8524188e-73
-4.5787761e-80
-1.3663553e-86
-4.2662563e-93
-1.3669826e-99
-3.3654617e-106
-9.9800337e-113
-9.9957852e-119
-1.3026543e-124
1.059691e-128
-7.6773846e-128
-4.5301583e-128
5.8411686e-131
1.2172892e-130
4.5082829e-131
1.3090017e-128
-5.3050674e-128
8.6435956e-133
-6.3829371e-130
1.8789838e-130
-1.466426e-129
-1.1999293e-131
2.2319676e-131
7.1494459e-133
-6.200281e-131
2.3288841e-132
-4.4469704e-131
1.2227396e-132
-3.3783299e-128
2.3267899e-129
8.4913954e-136
-2.0372577e-06
2.9221827e-15
-4.7470087e-24
1.697976e-32
-6.157954e-40
-1.800854e-47
-9.8648374e-55
-1.7966258e-61
-5.8025005e-68
-1.5720919e-74
-3.9530934e-81
-1.115043e-87
-2.9041838e-94
-8.7493445e-101
-2.4402024e-107
-6.1060239e-114
4.0218366e-120
2.6402456e-125
4.1974888e-131
-1.8550143e-133
-7.9581126e-134
8.2018936e-137
2.7898078e-136
8.0637268e-137
1.1950248e-134
-8.8704082e-134
2.9407109e-138
-1.0321243e-135
2.3450401e-136
-1.7148611e-135
-2.6996675e-137
3.725e-137
9.129965e-139
-2.956398e-136
2.9247071e-138
-5.6121898e-137
3.4316632e-138
-1.0852579e-133
5.8036493e-135
1.5991038e-141
-1.7119499e-06
2.0364871e-15
-2.6778288e-24
7.3060576e-33
-1.4234895e-40
-3.713962e-48
-1.5899502e-55
-2.4899705e-62
-6.7526146e-69
-1.9516437e-75
-5.2373156e-82
-1.4901939e-88
-4.0580136e-95
-1.0764126e-101
-2.4302441e-108
5.0459945e-116
3.2778087e-120
6.5510977e-126
1.5395834e-131
3.2028257e-137
-9.8026141e-140
7.310231e-143
3.8604729e-142
1.4973375e-142
4.0964583e-140
-8.5446038e-140
4.0973882e-144
-1.0435997e-141
8.1697392e-141
-2.5820717e-141
-4.1703625e-143
4.4371141e-143
1.1724349e-144
-4.2562854e-142
2.868072e-144
-1.00132e-142
1.047324e-143
-3.8010727e-139
2.6987653e-140
7.5078116e-147
-1.4485164e-06
1.4392129e-15
-1.5465044e-24
3.2682263e-33
-3.9332336e-41
-9.6476917e-49
-3.3418168e-56
-4.0302905e-63
-1.1903039e-69
-3.8900483e-76
-9.8277995e-83
-2.6897181e-89
-7.4360833e-96
-2.1517554e-102
-4.9405561e-109
2.0088175e-115
5.6764896e-121
2.1969389e-126
3.6045428e-132
4.6711296e-138
8.2985005e-144
8.8250668e-149
5.043139e-148
2.7599141e-148
7.6497797e-146
-2.2840326e-145
5.6044956e-150
-1.0457591e-147
9.2443505e-147
-9.7640457e-147
1.6566224e-148
7.3078755e-149
1.7312455e-150
-5.7925007e-148
4.2558737e-150
-1.246005e-148
1.1477939e-149
-5.245178e-145
3.1143544e-145
7.9953413e-152
-1.23029e-06
1.0267424e-15
-9.0781608e-25
1.5082572e-33
-1.1947612e-41
-2.8726256e-49
-8.1906741e-57
-7.7749072e-64
-2.8679731e-70
-8.1793426e-77
-2.3248941e-83
-6.7135244e-90
-2.1548377e-96
-6.1856698e-103
-1.2556912e-109
2.756743e-115
8.4275877e-121
4.5245907e-126
7.0284928e-132
1.2902833e-137
-1.6919843e-142
-1.3981276e-147
-1.4707929e-152
2.9207509e-154
2.0874152e-151
-3.9992968e-151
1.2473055e-155
-9.554467e-154
1.2105434e-152
-2.0898667e-152
2.3363179e-154
2.2830923e-154
1.8812719e-156
-2.029009e-153
9.555142e-156
-8.8270448e-155
1.6965837e-155
-2.6022932e-150
1.1360035e-150
3.9149005e-157
-1.0508324e-06
7.3999124e-16
-5.4282881e-25
7.1641495e-34
-3.9116224e-42
-9.6902711e-50
-2.2654091e-57
-1.6439788e-64
-4.6165631e-71
-1.7259977e-77
-4.701199e-84
-1.5386986e-90
-4.5231144e-97
-1.1694084e-103
1.2332799e-108
2.0044837e-114
4.0576277e-120
-1.8613207e-125
-3.5596498e-131
-1.8262489e-136
-3.1805919e-141
-4.2916791e-146
-7.585176e-151
-2.0183824e-155
4.4828537e-157
-1.2692213e-155
-1.6670691e-162
-1.5088723e-159
7.1223342e-157
-2.8303974e-158
3.9253765e-160
2.9200846e-160
5.1121516e-162
-9.8130816e-159
1.1823397e-161
-2.4860407e-160
-8.3573022e-160
3.064474e-155
3.8857782e-156
1.1634753e-162
-9.0023687e-07
5.3801829e-16
-3.2925938e-25
3.4941044e-34
-1.3743158e-42
-3.9317106e-50
-7.5368395e-58
-4.2136589e-65
-1.1030006e-71
-4.3416738e-78
-1.3163477e-84
-4.138979e-91
-1.2549417e-97
-3.8416698e-104
-1.1473686e-110
-5.0428105e-117
-3.7646547e-123
-2.7762527e-129
-4.60544e-135
-1.0143033e-140
-1.5062547e-145
4.5585379e-151
-1.209067e-155
-5.1234589e-160
7.6838073e-163
-2.6704321e-161
2.2830116e-165
-3.4999621e-165
1.756555e-162
-4.4899299e-164
5.3595158e-166
4.9333784e-166
7.0550648e-168
-2.4924966e-164
3.156859e-167
-3.0673542e-166
-7.6470446e-166
2.8523693e-161
1.3576704e-161
4.3720626e-168
-7.7463619e-07
3.9451934e-16
-2.0271261e-25
1.7447358e-34
-5.0722141e-43
-2.0501634e-50
-3.3645041e-58
-1.5070917e-65
-2.920209e-72
-1.1685416e-78
-3.4457488e-85
-1.0676251e-91
-2.9480328e-98
-8.0206639e-105
-2.4095009e-111
5.2481324e-115
-8.4782795e-120
2.4022054e-125
-2.8464525e-130
-9.0244229e-136
-1.8319909e-141
-4.513218e-147
-1.7223372e-152
-6.9468462e-158
1.5441491e-162
7.6722382e-166
3.8491022e-171
-1.8798667e-170
4.3745118e-168
-1.5375259e-169
1.6454339e-171
1.1211213e-171
-1.7860417e-173
-4.6486215e-170
6.9772401e-173
-9.7501957e-172
-1.7331785e-171
1.3273577e-166
5.188776e-167
1.6678095e-173
-6.6841373e-07
2.9148181e-16
-1.2647143e-25
8.9080955e-35
-1.9541461e-43
-2.24667e-50
-3.177116e-58
-1.1008528e-65
-1.8655497e-72
-7.2411283e-79
-3.0252653e-85
-8.4802481e-92
-2.5151124e-98
-7.3557302e-105
-2.6286066e-111
-7.9975074e-118
-2.8474506e-124
-1.2961335e-130
-1.2334021e-135
-5.3252207e-141
3.9582199e-146
-1.299243e-151
-8.2451902e-157
-1.1958182e-161
-2.3615762e-167
3.0875292e-170
6.7246404e-176
-3.2020031e-176
8.2401725e-174
-2.2960637e-174
7.1054981e-177
2.5596945e-177
-1.0237263e-178
-2.9418904e-175
9.7302397e-179
-3.4745684e-177
-1.7762523e-176
4.6174723e-172
2.878424e-172
1.0603647e-178
-5.7835534e-07
2.168209e-16
-7.9856585e-26
4.6384414e-35
-7.8272651e-44
4.7819484e-51
5.9087244e-59
1.6328217e-66
2.2843184e-73
1.1233716e-79
3.7014155e-86
1.0876703e-92
4.1096354e-99
1.2844277e-105
4.4134907e-112
8.2645312e-119
2.6054385e-124
5.8143671e-130
-6.2697355e-134
1.0063415e-138
4.2323061e-143
-2.7228404e-147
7.4801246e-153
5.8360625e-158
5.7051287e-163
1.7597792e-167
5.7970598e-173
1.272042e-178
-1.3329086e-178
-3.2707236e-180
-2.4387071e-182
3.7022614e-183
-7.7834013e-184
-5.9663513e-181
2.1092453e-184
-2.4601463e-182
-4.158291e-181
4.0875653e-177
9.6936914e-178
3.0153416e-184
-5.0220797e-07
1.6241211e-16
-5.1014874e-26
2.4618545e-35
-3.2448361e-44
6.3673242e-52
7.0135818e-60
1.5715496e-67
1.5015612e-74
5.8815389e-81
2.0644429e-87
6.6466888e-94
1.9002114e-100
6.3167509e-107
2.0206784e-113
6.8034758e-120
-1.5407427e-126
9.9433939e-131
1.7176638e-136
-2.934253e-141
-2.4962496e-146
-1.9982759e-151
-1.4047835e-156
-2.8658176e-162
-4.9185704e-168
1.4732317e-172
7.2586786e-178
-1.9664072e-183
-5.386251e-184
-5.9375449e-186
-3.9448102e-188
3.1381287e-188
2.8918446e-189
-1.1596991e-186
6.7211149e-190
-4.0952116e-188
-8.6645188e-187
5.3254725e-183
1.9164989e-183
8.4516168e-190
-4.37015e-07
1.2233462e-16
-3.2913101e-26
1.3277242e-35
-1.3844475e-44
1.4180482e-52
1.4372305e-60
2.6348451e-68
2.0507862e-75
7.1406188e-82
2.6168162e-88
8.8099487e-95
2.9791302e-101
1.1541854e-107
3.7617372e-114
2.1239996e-120
-2.612794e-125
-1.8983407e-130
2.1911574e-134
1.5533559e-139
3.5018957e-145
5.0589206e-150
-7.5310004e-155
-7.9476648e-160
1.088934e-165
-1.2765187e-170
-1.2308624e-175
-1.093338e-180
3.8548505e-185
-3.6334163e-190
-3.4321247e-193
2.1037216e-193
9.9846955e-195
-3.7695049e-192
-3.976743e-195
-1.2909716e-193
-3.4111028e-192
1.3960145e-188
4.3942643e-189
1.8595062e-195
-3.812627e-07
9.265891e-17
-2.1438353e-26
7.2777648e-36
-6.0791945e-45
3.8142095e-53
3.5988043e-61
5.431933e-69
3.2383055e-76
1.0270709e-82
5.5788135e-89
2.1407288e-95
8.3385223e-102
2.8314377e-108
9.8903678e-115
2.1568252e-121
-2.0684318e-127
1.4428386e-131
-7.2482045e-137
1.3978763e-142
1.5107997e-147
-2.0230749e-153
-5.8209606e-158
-3.8805241e-162
-1.2006158e-167
-3.4620176e-173
1.1720306e-178
5.6290591e-184
-1.9226552e-189
1.7049933e-194
-8.5819303e-199
3.8923356e-199
-1.232183e-200
-1.5078336e-196
-3.802445e-200
-9.858168e-199
-7.7614002e-198
3.6584705e-194
7.4318165e-195
2.9598582e-201
-3.3356969e-07
7.0583874e-17
-1.4097014e-26
4.047869e-36
-2.7371519e-45
1.1429926e-53
1.0486984e-61
1.3247236e-69
6.0429494e-77
2.029266e-83
8.4167314e-90
2.4983149e-96
7.3769048e-103
2.0187418e-109
5.5977716e-116
1.8900436e-122
5.3094805e-129
4.164932e-134
-1.322213e-138
2.4619041e-143
-4.9477137e-148
-8.9891109e-154
9.2726288e-159
-3.7996594e-163
3.0604995e-168
4.2651822e-173
8.9036674e-178
3.9409285e-183
-1.0863308e-188
-4.6906285e-194
-7.3665952e-200
-3.3381129e-205
-4.0001765e-206
-3.0065699e-202
-8.0661034e-206
-7.5583492e-204
-4.2201162e-203
-2.087983e-199
-4.8436215e-201
-4.8667944e-208
-2.924104e-07
5.4016182e-17
-9.3433842e-27
2.2804218e-36
-1.2585126e-45
3.6907497e-54
3.3770179e-62
3.6109089e-70
1.3203595e-77
3.0573225e-84
1.7538327e-90
5.6220238e-97
1.7614427e-103
5.2615734e-110
1.9419671e-116
5.0085084e-123
1.8723638e-129
2.8251293e-136
8.5729198e-142
-2.0510843e-147
1.515092e-152
2.4181837e-157
8.7531979e-163
3.1548406e-168
1.8762857e-173
4.8005604e-178
-7.5015816e-183
1.8965288e-188
1.3645297e-194
-1.4299177e-199
-4.0491729e-205
2.5248872e-210
-3.8947252e-211
1.7403087e-207
1.7302904e-211
-1.7153877e-209
1.9579267e-208
-7.1022737e-205
-5.5298421e-206
-2.5805833e-212
-2.5678169e-07
4.1504828e-17
-6.2384458e-27
1.3001935e-36
-5.9055317e-46
1.2646063e-54
1.2202042e-62
1.1244188e-70
3.2572019e-78
5.8338719e-85
4.7212822e-91
1.9415518e-97
6.7393627e-104
2.046914e-110
6.3041169e-117
1.9843289e-123
7.1932016e-130
1.0753398e-135
-2.2802858e-141
9.2095475e-147
-4.8258645e-152
1.4817055e-157
5.2280259e-163
1.893621e-168
-2.1535183e-173
1.2587697e-178
7.5954242e-184
2.7620696e-189
6.3231228e-195
-7.4640556e-200
-3.6629565e-205
-2.1713774e-210
-1.3176906e-215
-4.7253008e-211
-6.2180996e-217
2.9097492e-215
1.2935954e-213
-1.1125642e-210
2.1281938e-211
6.3916115e-218
-2.2600221e-07
3.2044884e-17
-4.1975767e-27
7.5024252e-37
-2.8253881e-46
4.5351242e-55
4.9723001e-63
3.9491042e-71
9.2484146e-79
1.2141212e-85
6.8970469e-92
2.1695718e-98
6.884184e-105
2.1679193e-111
7.5310985e-118
2.2729358e-124
8.3990169e-131
1.7554454e-137
5.2750686e-143
2.5112442e-148
1.572343e-153
5.8843376e-159
-2.4440865e-164
2.7878858e-170
-1.3542063e-175
2.7575667e-181
6.3895942e-186
1.4016998e-191
3.5689256e-197
-5.6900224e-203
1.6470047e-207
-2.9270903e-213
-3.3313143e-218
-7.4815819e-217
-2.5665329e-222
8.604524e-219
1.2341161e-217
3.0971563e-216
-1.212428e-217
-2.7016136e-224
-1.9928338e-07
2.483313e-17
-2.8425996e-27
4.3746474e-37
-1.3748861e-46
1.6896975e-55
2.41742e-63
1.6963688e-71
3.1681199e-79
3.3837156e-86
1.8157924e-92
9.0261207e-99
3.0335936e-105
1.0569427e-111
3.4723998e-118
1.167256e-124
3.1803547e-131
1.3805278e-137
-3.9797298e-144
1.9331814e-149
1.0130542e-154
-4.4788379e-160
-9.8996309e-166
1.3862628e-171
-1.5687853e-177
-1.6529292e-182
-1.4540821e-187
-2.4650121e-192
-7.7950306e-198
-1.7846921e-203
4.3642484e-209
9.7960343e-215
1.3381903e-220
-5.8422203e-222
2.5187468e-227
2.4698901e-224
6.2259925e-223
2.9193795e-221
2.708676e-223
1.037025e-229
-1.7602082e-07
1.9319769e-17
-1.9374876e-27
2.5766384e-37
-6.7994724e-47
6.516443e-56
1.7322657e-63
1.0822924e-71
1.6581168e-79
1.3719826e-86
8.0827885e-93
4.4758115e-99
1.6814778e-105
4.9156127e-112
1.5137777e-118
5.1803797e-125
1.7196125e-131
3.2526917e-138
-5.6150397e-143
9.9819787e-148
-2.356429e-153
-9.5135614e-159
-6.7197586e-164
-5.3590475e-169
-2.0084635e-174
9.8612669e-180
4.5263393e-185
2.1831598e-190
5.1573377e-196
-1.1605868e-199
8.6168862e-206
-1.1155205e-211
-7.197144e-217
-7.3579087e-222
-1.6200572e-227
2.7966185e-230
-1.8613382e-228
6.6789695e-227
-3.4217345e-229
-1.0688399e-235
-1.5572049e-07
1.5085137e-17
-1.3285992e-27
1.5322308e-37
-3.4132263e-47
2.5847441e-56
-3.3624265e-63
-1.8922513e-71
-2.3853331e-79
-1.4945147e-86
-5.759275e-93
-2.6751765e-99
-1.0384503e-105
-3.085076e-112
-1.0556152e-118
-3.1832332e-125
-1.0553489e-131
-1.3992829e-138
4.0733908e-143
3.9478233e-148
-5.6352554e-153
2.5946534e-158
8.5676068e-163
6.406693e-168
-8.8541195e-174
6.2525159e-177
-4.1939755e-181
-4.7520732e-186
-4.8631138e-191
1.5878673e-195
-9.0512245e-201
-2.1495135e-206
-1.9785028e-211
-1.0666002e-216
-5.890817e-222
-4.9792377e-227
-1.5042647e-232
2.4650858e-232
7.0870992e-235
3.0931247e-241
-1.3798502e-07
1.181755e-17
-9.1619649e-28
9.1919833e-38
-1.7377168e-47
1.0541321e-56
-1.5045449e-64
-7.8165314e-73
-8.3419986e-81
-3.9770474e-88
-1.2433902e-94
-6.113697e-101
-1.8402679e-107
-4.7654926e-114
-1.3300566e-120
-4.1574387e-127
-1.2797176e-133
-1.2259636e-140
1.5688565e-145
-1.9691884e-150
3.6415261e-155
1.4104283e-159
-2.3769695e-165
-1.3260839e-170
5.2339604e-176
5.0504766e-181
7.0384785e-187
4.3836187e-192
-1.7056622e-196
4.1718691e-201
1.029327e-206
-1.284722e-211
-1.0807312e-216
4.8207593e-221
-2.7174434e-226
-3.1385284e-229
2.0152854e-234
-6.2851122e-238
-8.9312007e-241
-1.4302223e-247
-1.224509e-07
9.2883071e-18
-6.3524298e-28
5.5611246e-38
-8.9634515e-48
4.3993441e-57
-2.8761651e-65
-1.3831201e-73
-1.2460869e-81
-4.6807521e-89
-1.3959912e-95
-6.5707172e-102
-2.0842432e-108
-8.494195e-115
-2.609392e-121
-9.6312846e-128
-3.1309372e-134
-7.1292888e-140
7.2033186e-145
-1.1967807e-149
4.5286241e-154
-7.4794047e-160
-2.8799464e-165
7.6423639e-171
-2.8053228e-175
2.8011563e-181
1.40228e-186
2.354998e-191
8.3785867e-197
2.0422121e-202
-4.0360005e-207
-9.3487767e-213
8.4873893e-219
4.601499e-223
1.9954679e-228
7.1501705e-234
1.5971771e-239
7.9920824e-244
-2.4878414e-245
-7.2290214e-252
-1.0881025e-07
7.3226928e-18
-4.4271806e-28
3.3914489e-38
-4.6816645e-48
1.8770231e-57
-7.2333026e-66
-3.3094889e-74
-2.5463976e-82
-7.6576371e-90
-1.8708728e-96
-1.9045343e-102
-7.612647e-109
-2.505768e-115
-8.7192566e-122
-2.4598732e-128
-7.76504e-135
-2.6350867e-141
-4.7114756e-148
-1.0791287e-153
2.1027298e-159
-7.4107786e-165
4.1385935e-170
1.8671057e-174
1.2628074e-179
-3.1683926e-185
6.0904902e-190
-4.4576102e-195
1.0665098e-200
-3.3240206e-206
-6.7136937e-212
1.6738143e-217
8.4898208e-223
-8.7084331e-228
5.4108362e-232
1.7773001e-237
3.7780753e-243
6.6343321e-249
-8.1470613e-251
-3.8503077e-257
-9.6827986e-08
5.7894235e-18
-3.1001613e-28
2.0837107e-38
-2.4731237e-48
8.172488e-58
-2.0756847e-66
-9.1941557e-75
-6.0915717e-83
-1.4395332e-90
-2.6661279e-97
-1.7886313e-103
-7.3116207e-110
-2.2253214e-116
-6.5834105e-123
-2.1116698e-129
-8.7232008e-136
-2.4468218e-142
-1.2036079e-148
-6.9631874e-154
-2.660145e-159
-7.2684487e-165
8.1833126e-170
-4.4500538e-175
1.0129575e-180
1.5653353e-185
-1.0194059e-190
1.0988432e-196
2.5214385e-202
-4.8436555e-208
6.1857435e-213
-1.6652229e-218
-7.3624052e-224
1.5693884e-229
5.3824479e-235
2.0298265e-240
3.4025045e-246
1.6933961e-251
-4.8894681e-256
6.9816473e-262
-8.6269847e-08
4.5900708e-18
-2.1811043e-28
1.2896052e-38
-1.3213871e-48
3.6235446e-58
-6.4578049e-67
-2.8539948e-75
-1.6414091e-83
-3.1976161e-91
-4.4037894e-98
-3.8802782e-104
-1.3405644e-110
-5.0997225e-117
-1.6786309e-123
-6.2752025e-130
-1.6986604e-136
-5.7838379e-143
-1.9890852e-149
-5.0371161e-155
3.0954893e-160
-1.2801007e-165
-2.4272872e-171
-2.4626755e-176
1.0745786e-181
-3.6143659e-187
-1.326131e-192
-4.8178921e-198
-5.5523016e-203
5.346823e-208
9.7704065e-214
-3.420018e-218
-8.5581516e-223
-1.7121953e-228
-1.12995e-233
1.2233843e-238
-1.2378476e-243
-1.9534092e-248
-3.8898487e-254
-4.6475924e-260
-7.6945414e-08
3.648423e-18
-1.5410874e-28
8.034299e-39
-7.1313834e-49
1.6344166e-58
-2.1307481e-67
-9.682847e-76
-4.9067688e-84
-7.8921045e-92
-8.1265115e-99
-3.9673932e-105
-2.3752368e-111
-7.3537335e-118
-2.2041521e-124
-6.3151839e-131
-1.9998827e-137
-5.1831376e-144
-5.0407709e-150
-1.9499345e-155
-1.2341456e-160
2.7884765e-165
-9.9036907e-171
1.5553492e-176
1.5930764e-181
-2.0238276e-186
4.1623373e-192
-5.2356592e-197
-2.6906957e-202
2.0031758e-207
1.2142026e-212
7.8741577e-218
-2.0126386e-222
-2.0857307e-227
1.4074829e-232
-1.2280756e-237
-3.0402618e-243
-9.7371168e-249
4.0981744e-254
3.6710327e-260
-6.871838e-08
2.9073934e-18
-1.0934845e-28
5.0383262e-39
-3.8876619e-49
7.4905363e-59
-7.3613068e-68
-3.605683e-76
-1.6250206e-84
-2.1520966e-92
-1.7031619e-99
-7.6838258e-106
-4.1707116e-112
-1.4375583e-118
-4.2628694e-125
-1.1131191e-131
-4.0403219e-138
-1.2507505e-144
-2.8331627e-151
1.1456821e-157
1.2701261e-162
8.2976326e-167
3.4440449e-172
1.0965552e-177
6.5037013e-183
-8.4469935e-189
-4.5751148e-194
-1.6667821e-199
-7.8375161e-205
1.1147876e-209
-5.428107e-215
-4.2243241e-220
1.3721811e-225
-7.0737369e-230
-5.1053759e-235
-7.0614859e-240
3.9003343e-245
-6.334434e-250
-2.8016417e-255
-5.0845158e-261
-6.1424998e-08
2.3220117e-18
-7.7887844e-29
3.1785231e-39
-2.1387301e-49
3.4845968e-59
-2.6415936e-68
-1.5065081e-76
-6.0789778e-85
-6.7086699e-93
-4.0344132e-100
-1.8221251e-106
-8.8410291e-113
-2.5600351e-119
-9.582734e-126
-2.346634e-132
-6.4805995e-139
-2.2338612e-145
-5.5378684e-152
-8.7737298e-158
7.0851699e-163
3.6642255e-168
1.8093414e-173
-3.9850895e-179
-3.2130099e-184
7.3900433e-189
-4.3511166e-194
1.5150167e-199
2.8852855e-205
1.8295882e-210
4.6714999e-216
-1.9069717e-221
-4.0741715e-227
9.7078307e-233
-7.5193861e-238
7.5008296e-242
1.9950408e-247
5.5759116e-253
-6.8455593e-258
-5.0630848e-264
-5.4959828e-08
1.8584609e-18
-5.5681336e-29
2.0168111e-39
-1.1869978e-49
1.6437468e-59
-9.7825144e-69
-7.4062253e-77
-2.6984097e-85
-2.5060035e-93
-1.1603116e-100
-4.4604916e-107
-2.4684021e-113
-7.9929071e-120
-2.2401181e-126
-7.2147186e-133
-1.9086954e-139
-6.3788315e-146
-1.7970457e-152
-4.0661366e-159
7.2721975e-166
6.9732759e-171
2.4708487e-176
6.0927368e-182