/*--------------------------------*- C++ -*----------------------------------*\
  =========                 |
  \\      /  F ield         | OpenFOAM: The Open Source CFD Toolbox
   \\    /   O peration     | Website:  https://openfoam.org
    \\  /    A nd           | Version:  10
     \\/     M anipulation  |
\*---------------------------------------------------------------------------*/
FoamFile
{
    format      ascii;
    class       volVectorField;
    location    "0.28";
    object      U;
}
// * * * * * * * * * * * * * * * * * * * * * * * * * * * * * * * * * * * * * //

dimensions      [0 1 -1 0 0 0 0];

internalField   nonuniform List<vector> 
4000
(
(0 0.018637467 0.47773156)
(0 0.023510014 0.50886061)
(0 0.0081668598 0.50052521)
(0 0.005614619 0.50033634)
(0 0.0042546319 0.50025746)
(0 0.0032549457 0.50016898)
(0 0.0025560889 0.50011969)
(0 0.0020545769 0.50009013)
(0 0.0016765707 0.50006981)
(0 0.0013822271 0.50005539)
(0 0.0011471735 0.50004499)
(0 0.00095507139 0.50003733)
(0 0.00079466651 0.5000316)
(0 0.00065798331 0.50002727)
(0 0.00053919354 0.50002399)
(0 0.00043391662 0.50002151)
(0 0.0003387653 0.50001967)
(0 0.00025103773 0.50001834)
(0 0.00016850129 0.50001744)
(0 8.9234277e-05 0.50001694)
(0 1.1503337e-05 0.50001679)
(0 -6.6343425e-05 0.50001699)
(0 -0.00014596811 0.50001755)
(0 -0.00022913518 0.5000185)
(0 -0.00031782206 0.50001991)
(0 -0.00041434965 0.50002185)
(0 -0.00052155436 0.50002446)
(0 -0.00064302725 0.50002793)
(0 -0.00078346193 0.50003252)
(0 -0.0009491843 0.50003863)
(0 -0.0011490038 0.50004688)
(0 -0.0013955787 0.50005824)
(0 -0.001707655 0.50007414)
(0 -0.0021155814 0.50009709)
(0 -0.0026752716 0.50013481)
(0 -0.0034688344 0.50020237)
(0 -0.0045610459 0.50027142)
(0 -0.0065852262 0.50043364)
(0 -0.017659665 0.50675408)
(0 -0.013590233 0.47975558)
(0 0.037432711 0.44796925)
(0 0.050955785 0.53232616)
(0 0.021969347 0.5080429)
(0 0.016135666 0.50357319)
(0 0.012416102 0.50242317)
(0 0.0095159669 0.501623)
(0 0.0075206246 0.50115662)
(0 0.006069885 0.50086594)
(0 0.0049645506 0.50066802)
(0 0.0041000891 0.50052903)
(0 0.0034075503 0.50042906)
(0 0.0028399869 0.50035556)
(0 0.0023650255 0.50030067)
(0 0.0019595827 0.50025927)
(0 0.0016066985 0.50022793)
(0 0.0012935782 0.50020427)
(0 0.0010102972 0.50018666)
(0 0.00074891807 0.50017399)
(0 0.00050286724 0.50016548)
(0 0.00026647574 0.50016065)
(0 3.46235e-05 0.50015922)
(0 -0.00019756828 0.50016112)
(0 -0.00043500828 0.50016647)
(0 -0.00068290633 0.50017557)
(0 -0.00094709215 0.50018898)
(0 -0.0012343945 0.50020753)
(0 -0.0015531367 0.50023247)
(0 -0.0019138247 0.50026558)
(0 -0.0023301387 0.5003095)
(0 -0.002820418 0.5003681)
(0 -0.0034100371 0.50044735)
(0 -0.0041353713 0.5005567)
(0 -0.0050494985 0.50071125)
(0 -0.0062322832 0.50093659)
(0 -0.0078326084 0.50129435)
(0 -0.01012626 0.50191049)
(0 -0.013107337 0.50282505)
(0 -0.017426719 0.50608114)
(0 -0.038759469 0.52526814)
(0 -0.027894883 0.4502162)
(0 0.039888315 0.4098205)
(0 0.061428217 0.54930815)
(0 0.031983842 0.52188197)
(0 0.024355584 0.51008056)
(0 0.019193712 0.50658859)
(0 0.014977239 0.50452811)
(0 0.012006795 0.50327144)
(0 0.0097719739 0.50245844)
(0 0.0080365354 0.50190113)
(0 0.0066648335 0.50150876)
(0 0.005556648 0.50122555)
(0 0.0046424451 0.50101681)
(0 0.0038734874 0.50086066)
(0 0.0032143797 0.50074275)
(0 0.0026387883 0.50065337)
(0 0.0021266608 0.50058586)
(0 0.001662321 0.5005356)
(0 0.0012331498 0.50049939)
(0 0.00082864078 0.50047507)
(0 0.00043969596 0.50046124)
(0 5.8074849e-05 0.50045715)
(0 -0.00032408326 0.50046258)
(0 -0.00071468601 0.50047786)
(0 -0.0011221119 0.50050388)
(0 -0.0015557052 0.50054217)
(0 -0.0020263597 0.50059513)
(0 -0.0025472727 0.50066624)
(0 -0.0031349764 0.5007606)
(0 -0.0038107997 0.50088558)
(0 -0.0046029815 0.50105212)
(0 -0.0055498756 0.50127674)
(0 -0.0067054612 0.50158559)
(0 -0.008146938 0.50202076)
(0 -0.0099783933 0.50265067)
(0 -0.012372642 0.503615)
(0 -0.01571764 0.50519907)
(0 -0.019873974 0.50785378)
(0 -0.025187634 0.51641215)
(0 -0.047418091 0.53912717)
(0 -0.030854091 0.41487937)
(0 0.034791633 0.36172995)
(0 0.063839048 0.55456331)
(0 0.039380563 0.53747139)
(0 0.030083525 0.51849264)
(0 0.024112736 0.51197734)
(0 0.019279707 0.50849951)
(0 0.015736254 0.50626434)
(0 0.012954219 0.50475555)
(0 0.01074364 0.50370454)
(0 0.0089678261 0.50295626)
(0 0.0075137465 0.50241122)
(0 0.0063017371 0.50200696)
(0 0.0052739937 0.50170317)
(0 0.0043872604 0.50147296)
(0 0.0036087213 0.50129795)
(0 0.002912994 0.50116547)
(0 0.0022799734 0.50106668)
(0 0.0016933003 0.50099542)
(0 0.0011392352 0.5009475)
(0 0.00060579992 0.50092024)
(0 8.2094898e-05 0.50091216)
(0 -0.00044229926 0.50092285)
(0 -0.00097786229 0.50095294)
(0 -0.001535663 0.50100415)
(0 -0.0021279792 0.50107945)
(0 -0.0027690152 0.50118344)
(0 -0.0034758086 0.50132283)
(0 -0.0042694355 0.50150729)
(0 -0.0051766741 0.50175083)
(0 -0.0062323023 0.50207392)
(0 -0.0074821866 0.50250703)
(0 -0.0089885574 0.50309717)
(0 -0.010838783 0.50391905)
(0 -0.013139421 0.50508904)
(0 -0.016026129 0.50680662)
(0 -0.019901472 0.50946719)
(0 -0.024733317 0.51427454)
(0 -0.031115216 0.52824681)
(0 -0.050321156 0.5440714)
(0 -0.028438917 0.37237922)
(0 0.027424316 0.31484306)
(0 0.062315054 0.55024057)
(0 0.044614795 0.55146769)
(0 0.033982247 0.52748819)
(0 0.027464249 0.5177225)
(0 0.022455318 0.51291992)
(0 0.018636894 0.50973156)
(0 0.015528173 0.50749278)
(0 0.013006174 0.50590011)
(0 0.010942071 0.5047471)
(0 0.0092244833 0.50389635)
(0 0.0077745592 0.50325941)
(0 0.0065323132 0.50277735)
(0 0.0054513208 0.50240998)
(0 0.0044955346 0.50212948)
(0 0.0036364899 0.50191641)
(0 0.0028512436 0.50175709)
(0 0.0021208576 0.50164192)
(0 0.0014292389 0.50156436)
(0 0.00076222879 0.50152018)
(0 0.0001068639 0.50150705)
(0 -0.00054928504 0.50152433)
(0 -0.0012187156 0.50157301)
(0 -0.0019145729 0.50165578)
(0 -0.0026513334 0.50177731)
(0 -0.0034455754 0.50194477)
(0 -0.0043169244 0.50216856)
(0 -0.0052892639 0.50246355)
(0 -0.0063923435 0.50285101)
(0 -0.0076639372 0.50336158)
(0 -0.0091523073 0.5040399)
(0 -0.010919889 0.5049525)
(0 -0.013053517 0.50620221)
(0 -0.015656986 0.5079439)
(0 -0.018818148 0.51040395)
(0 -0.022898506 0.51405436)
(0 -0.028179535 0.52114501)
(0 -0.035709667 0.5393262)
(0 -0.050478558 0.54155418)
(0 -0.024086909 0.33055595)
(0 0.019837969 0.27519748)
(0 0.057990245 0.53974641)
(0 0.047364234 0.56256481)
(0 0.036477972 0.53660465)
(0 0.029636435 0.52350722)
(0 0.024676398 0.51740343)
(0 0.020774463 0.51336319)
(0 0.017509933 0.51044476)
(0 0.014814309 0.50832448)
(0 0.012566662 0.50676213)
(0 0.010665468 0.50559314)
(0 0.0090387344 0.5047084)
(0 0.0076288444 0.50403296)
(0 0.0063899387 0.5035146)
(0 0.0052855589 0.50311662)
(0 0.0042862377 0.50281297)
(0 0.0033677479 0.50258511)
(0 0.0025097546 0.50241996)
(0 0.0016947355 0.50230851)
(0 0.00090710544 0.50224492)
(0 0.00013248934 0.50222596)
(0 -0.00064294424 0.50225075)
(0 -0.0014330981 0.50232064)
(0 -0.0022525247 0.50243935)
(0 -0.0031171177 0.50261333)
(0 -0.0040448621 0.50285238)
(0 -0.005056731 0.50317062)
(0 -0.0061777884 0.50358806)
(0 -0.0074385818 0.50413287)
(0 -0.008877038 0.50484501)
(0 -0.010540421 0.50578146)
(0 -0.012487023 0.50702452)
(0 -0.014797057 0.50869736)
(0 -0.017572303 0.51098159)
(0 -0.020866739 0.51411958)
(0 -0.024976643 0.51872966)
(0 -0.030511443 0.52822944)
(0 -0.038632987 0.54872374)
(0 -0.048511017 0.53398275)
(0 -0.019067669 0.29393608)
(0 0.013083247 0.24255452)
(0 0.051799111 0.52520037)
(0 0.047709965 0.57024855)
(0 0.037757554 0.54552508)
(0 0.030850858 0.52928877)
(0 0.026073942 0.52180184)
(0 0.022238344 0.51699816)
(0 0.018953991 0.51347375)
(0 0.016193698 0.51086529)
(0 0.01384966 0.50891284)
(0 0.011835382 0.5074331)
(0 0.010088279 0.50630104)
(0 0.0085557322 0.5054289)
(0 0.0071949929 0.50475454)
(0 0.0059712639 0.50423361)
(0 0.0048557295 0.50383416)
(0 0.0038242043 0.50353322)
(0 0.0028560192 0.50331442)
(0 0.0019330891 0.50316641)
(0 0.0010391335 0.50308179)
(0 0.00015901175 0.50305647)
(0 -0.00072190085 0.5030893)
(0 -0.0016183001 0.50318201)
(0 -0.0025454881 0.50333932)
(0 -0.0035200277 0.50356937)
(0 -0.0045604208 0.50388444)
(0 -0.0056879031 0.50430213)
(0 -0.0069273864 0.50484708)
(0 -0.0083085736 0.50555354)
(0 -0.0098675335 0.5064693)
(0 -0.011648459 0.5076615)
(0 -0.013703595 0.50922502)
(0 -0.016102448 0.5112978)
(0 -0.018940308 0.51407922)
(0 -0.022248543 0.51783808)
(0 -0.026267984 0.52346722)
(0 -0.031851692 0.53537477)
(0 -0.039762841 0.55589626)
(0 -0.044896552 0.52282088)
(0 -0.014091385 0.26264194)
(0 0.0077701861 0.21554062)
(0 0.044826156 0.50800968)
(0 0.046256147 0.57438089)
(0 0.038035982 0.55375149)
(0 0.031288506 0.53496074)
(0 0.026768914 0.52603056)
(0 0.023117198 0.52053876)
(0 0.019921194 0.51648863)
(0 0.01718235 0.51344209)
(0 0.014813453 0.51113114)
(0 0.012746074 0.50936007)
(0 0.010928162 0.50799159)
(0 0.0093138176 0.5069281)
(0 0.0078650753 0.50609967)
(0 0.0065501939 0.50545571)
(0 0.0053422198 0.50495936)
(0 0.0042180459 0.50458386)
(0 0.0031575449 0.50430994)
(0 0.0021428178 0.50412415)
(0 0.0011575439 0.50401771)
(0 0.00018641202 0.50398571)
(0 -0.0007854291 0.50402679)
(0 -0.0017728992 0.504143)
(0 -0.0027914491 0.50433997)
(0 -0.0038576462 0.50462736)
(0 -0.0049897504 0.50501968)
(0 -0.0062083767 0.50553753)
(0 -0.00753726 0.50620953)
(0 -0.0090040808 0.50707499)
(0 -0.010641632 0.50818808)
(0 -0.012489491 0.50962405)
(0 -0.014592789 0.51148793)
(0 -0.017007724 0.51392862)
(0 -0.019815954 0.51715484)
(0 -0.023033437 0.52147966)
(0 -0.026882731 0.52818205)
(0 -0.03235466 0.54221998)
(0 -0.03940721 0.56050133)
(0 -0.040331004 0.50908042)
(0 -0.0097087604 0.23585318)
(0 0.0040050259 0.1935558)
(0 0.037899904 0.48948662)
(0 0.043687852 0.5752401)
(0 0.037564842 0.56084539)
(0 0.031155091 0.54036149)
(0 0.026914983 0.53001178)
(0 0.023514829 0.52390231)
(0 0.020480904 0.5194132)
(0 0.017827187 0.51598851)
(0 0.015489719 0.51335971)
(0 0.013418174 0.51132498)
(0 0.011571202 0.50973845)
(0 0.0099106458 0.50849547)
(0 0.0084042717 0.50752038)
(0 0.0070242541 0.50675781)
(0 0.0057463251 0.50616702)
(0 0.0045492063 0.50571818)
(0 0.0034139827 0.50538966)
(0 0.0023235439 0.50516624)
(0 0.0012620784 0.50503793)
(0 0.00021461636 0.50499917)
(0 -0.0008334254 0.50504837)
(0 -0.0018966944 0.50518788)
(0 -0.0029902741 0.50542411)
(0 -0.0041301823 0.50576802)
(0 -0.0053338283 0.50623596)
(0 -0.006620528 0.50685105)
(0 -0.0080120872 0.5076451)
(0 -0.0095333579 0.50866144)
(0 -0.011212935 0.50995916)
(0 -0.013084682 0.51161957)
(0 -0.015186113 0.51375535)
(0 -0.017559865 0.51652224)
(0 -0.020270081 0.52013129)
(0 -0.023324621 0.52496273)
(0 -0.026965526 0.53273943)
(0 -0.032207135 0.54839039)
(0 -0.037999157 0.56254244)
(0 -0.035417654 0.49378812)
(0 -0.0062011262 0.21324687)
(0 0.0015511708 0.17613279)
(0 0.031500045 0.470761)
(0 0.040533268 0.57338568)
(0 0.036560011 0.56659884)
(0 0.030638313 0.5453789)
(0 0.026672542 0.53370507)
(0 0.023543863 0.52703287)
(0 0.020711034 0.52218915)
(0 0.018183392 0.5184521)
(0 0.015917472 0.51555202)
(0 0.013878849 0.51328677)
(0 0.012036088 0.5115057)
(0 0.010358896 0.51009979)
(0 0.0088210167 0.50898952)
(0 0.007398923 0.50811619)
(0 0.0060715036 0.50743624)
(0 0.0048197873 0.50691753)
(0 0.0036265376 0.50653658)
(0 0.0024758805 0.50627681)
(0 0.0013529411 0.50612727)
(0 0.00024350229 0.50608183)
(0 -0.0008663468 0.50613876)
(0 -0.0019905759 0.50630063)
(0 -0.003143487 0.50657448)
(0 -0.0043401171 0.5069723)
(0 -0.0055965724 0.50751193)
(0 -0.0069303953 0.5082184)
(0 -0.0083609706 0.50912593)
(0 -0.009909864 0.51028082)
(0 -0.01160108 0.51174564)
(0 -0.01346234 0.51360573)
(0 -0.015523708 0.51597857)
(0 -0.017815808 0.51902272)
(0 -0.020385579 0.52294915)
(0 -0.023240259 0.52823484)
(0 -0.026660355 0.53703982)
(0 -0.031570388 0.55365869)
(0 -0.035909634 0.56230625)
(0 -0.030556065 0.47788524)
(0 -0.0035914855 0.19460334)
(0 7.6790127e-05 0.16252414)
(0 0.025870862 0.45259945)
(0 0.037160635 0.56943315)
(0 0.03519244 0.57098931)
(0 0.029878357 0.5499635)
(0 0.026174629 0.53711447)
(0 0.023306678 0.52991309)
(0 0.020688097 0.52478507)
(0 0.01830836 0.52079917)
(0 0.01613909 0.51767516)
(0 0.014158997 0.51521448)
(0 0.012345225 0.51326497)
(0 0.010674698 0.51171538)
(0 0.0091268051 0.51048403)
(0 0.0076822943 0.50951012)
(0 0.0063233617 0.50874829)
(0 0.0050335737 0.50816479)
(0 0.0037976462 0.50773486)
(0 0.0026012367 0.50744091)
(0 0.00143071 0.50727126)
(0 0.00027290673 0.50721938)
(0 -0.00088510616 0.50728342)
(0 -0.0020563138 0.50746613)
(0 -0.0032539304 0.507775)
(0 -0.0044917062 0.50822282)
(0 -0.0057841467 0.50882847)
(0 -0.0071467432 0.50961836)
(0 -0.0085962195 0.51062837)
(0 -0.010150714 0.51190675)
(0 -0.011829709 0.51351823)
(0 -0.013654993 0.51555045)
(0 -0.015649779 0.51812317)
(0 -0.017834701 0.52139459)
(0 -0.02024213 0.52557914)
(0 -0.022885653 0.53128182)
(0 -0.02608334 0.54103069)
(0 -0.030575002 0.55793396)
(0 -0.033431934 0.56018794)
(0 -0.025998041 0.46206075)
(0 -0.0017655459 0.17946283)
(0 -0.0007179165 0.15190644)
(0 0.021108533 0.43543377)
(0 0.033820302 0.56393142)
(0 0.033605181 0.57408962)
(0 0.028975905 0.55409459)
(0 0.025520809 0.54026422)
(0 0.022886915 0.53255346)
(0 0.020479053 0.52719297)
(0 0.018255104 0.52301366)
(0 0.016195665 0.51970955)
(0 0.01429001 0.51708734)
(0 0.01252238 0.51499562)
(0 0.010875879 0.51332248)
(0 0.0093348773 0.5119853)
(0 0.0078840925 0.51092228)
(0 0.0065089282 0.51008704)
(0 0.005195512 0.50944489)
(0 0.0039306196 0.50897026)
(0 0.0027015973 0.50864489)
(0 0.001496236 0.50845662)
(0 0.00030263481 0.50839865)
(0 -0.00089095326 0.50846903)
(0 -0.0020963196 0.50867062)
(0 -0.0033253892 0.50901127)
(0 -0.0045904394 0.50950424)
(0 -0.0059042171 0.51016915)
(0 -0.0072800577 0.51103324)
(0 -0.0087319953 0.5121334)
(0 -0.010274841 0.51351894)
(0 -0.011923909 0.51525569)
(0 -0.013695648 0.51743232)
(0 -0.015607209 0.52016896)
(0 -0.01767106 0.52362154)
(0 -0.019908662 0.52801574)
(0 -0.022346211 0.53410984)
(0 -0.025325429 0.54468105)
(0 -0.029336138 0.56120677)
(0 -0.030797612 0.55658268)
(0 -0.021897166 0.4467529)
(0 -0.00056497052 0.16723815)
(0 -0.0010700412 0.14358236)
(0 0.017203921 0.41947812)
(0 0.030667877 0.55733978)
(0 0.031916159 0.57602093)
(0 0.028005036 0.55776454)
(0 0.024784632 0.54318019)
(0 0.022351036 0.53497669)
(0 0.02013955 0.52941875)
(0 0.018069405 0.52509156)
(0 0.016124228 0.5216458)
(0 0.014301399 0.51889285)
(0 0.012590767 0.5166836)
(0 0.010980471 0.51490649)
(0 0.0094590762 0.5134788)
(0 0.008014805 0.51233851)
(0 0.0066360032 0.51143885)
(0 0.0053112354 0.51074474)
(0 0.0040293149 0.51023015)
(0 0.0027793192 0.50987649)
(0 0.0015505488 0.50967133)
(0 0.00033246929 0.50960766)
(0 -0.00088536145 0.5096835)
(0 -0.0021134218 0.50990179)
(0 -0.003362241 0.51027055)
(0 -0.0046425406 0.51080335)
(0 -0.0059652684 0.51152016)
(0 -0.0073416317 0.5124487)
(0 -0.0087830994 0.51362625)
(0 -0.010301411 0.51510254)
(0 -0.011908206 0.51694373)
(0 -0.013615358 0.51923855)
(0 -0.015434866 0.52210621)
(0 -0.017372713 0.52569962)
(0 -0.019443496 0.53026595)
(0 -0.021690898 0.53673059)
(0 -0.024459861 0.54797078)
(0 -0.0279555 0.56352097)
(0 -0.028177247 0.55185217)
(0 -0.018327617 0.43222638)
(0 0.00016867261 0.15738327)
(0 -0.0011531452 0.1370005)
(0 0.014079539 0.40481284)
(0 0.027783415 0.55003253)
(0 0.030213425 0.5769307)
(0 0.02701817 0.56097982)
(0 0.024019094 0.54588635)
(0 0.021750927 0.53720978)
(0 0.019714787 0.53147553)
(0 0.017789606 0.52703613)
(0 0.01595689 0.52348131)
(0 0.014219643 0.52062461)
(0 0.012571889 0.51832009)
(0 0.011005689 0.51645716)
(0 0.0095129938 0.51495357)
(0 0.0080849953 0.51374756)
(0 0.0067126244 0.51279248)
(0 0.0053866656 0.51205319)
(0 0.0040978542 0.51150358)
(0 0.0028369534 0.51112491)
(0 0.0015947749 0.51090465)
(0 0.00036217992 0.51083573)
(0 -0.00086992689 0.51091612)
(0 -0.0021106685 0.51114879)
(0 -0.0033691513 0.51154184)
(0 -0.0046545425 0.51210894)
(0 -0.0059760398 0.5128702)
(0 -0.0073428439 0.5138534)
(0 -0.0087640826 0.51509588)
(0 -0.010248774 0.51664725)
(0 -0.011805437 0.51857344)
(0 -0.013442203 0.52096263)
(0 -0.015166908 0.52393216)
(0 -0.016980708 0.52763252)
(0 -0.018895228 0.53234347)
(0 -0.02097429 0.53915823)
(0 -0.023543847 0.55089339)
(0 -0.026515568 0.56495909)
(0 -0.025682101 0.5463142)
(0 -0.015301045 0.41862917)
(0 0.00057351481 0.14943539)
(0 -0.0010855583 0.13172109)
(0 0.011624741 0.39142923)
(0 0.025194759 0.54230336)
(0 0.028555798 0.5769732)
(0 0.026048712 0.56376009)
(0 0.023259566 0.54840559)
(0 0.021125116 0.53928118)
(0 0.019240217 0.53338074)
(0 0.01744694 0.52885532)
(0 0.015720714 0.5252182)
(0 0.014067745 0.52228069)
(0 0.012484954 0.51990031)
(0 0.010967316 0.5179678)
(0 0.009509398 0.5164017)
(0 0.0081048054 0.51514081)
(0 0.006746659 0.51413889)
(0 0.0054276939 0.51336102)
(0 0.0041403932 0.51278123)
(0 0.002877098 0.51238083)
(0 0.0016300696 0.5121473)
(0 0.0003915325 0.51207355)
(0 -0.00084628159 0.51215757)
(0 -0.0020911601 0.5124023)
(0 -0.0033508218 0.51281584)
(0 -0.0046329452 0.51341181)
(0 -0.0059450913 0.51421025)
(0 -0.0072946375 0.51523879)
(0 -0.0086886528 0.51653448)
(0 -0.010133836 0.51814651)
(0 -0.011636157 0.5201402)
(0 -0.013200824 0.52260277)
(0 -0.014832495 0.52564921)
(0 -0.016529094 0.52942941)
(0 -0.018302587 0.53426646)
(0 -0.020237036 0.54140937)
(0 -0.022618952 0.55345651)
(0 -0.025077417 0.56562559)
(0 -0.023374873 0.54023461)
(0 -0.012787833 0.4060231)
(0 0.0007586666 0.14300022)
(0 -0.0009437201 0.12739851)
(0 0.0097207554 0.37926121)
(0 0.022898459 0.53437266)
(0 0.026978481 0.57629349)
(0 0.025115413 0.56613259)
(0 0.022527294 0.55075859)
(0 0.020500281 0.54121859)
(0 0.018742301 0.53515398)
(0 0.017065905 0.53056017)
(0 0.015437772 0.52686181)
(0 0.013865078 0.52386238)
(0 0.012346594 0.52142256)
(0 0.010879365 0.51943459)
(0 0.0094598746 0.51781786)
(0 0.0080836188 0.51651193)
(0 0.0067455098 0.51547108)
(0 0.0054399439 0.51466082)
(0 0.004160944 0.51405544)
(0 0.0029022818 0.51363643)
(0 0.001657563 0.51339137)
(0 0.00042029747 0.51331323)
(0 -0.00081602239 0.51339998)
(0 -0.002057915 0.51365455)
(0 -0.0033117932 0.51408493)
(0 -0.0045839578 0.51470463)
(0 -0.0058804883 0.51553345)
(0 -0.007207158 0.5165987)
(0 -0.0085692853 0.51793697)
(0 -0.0099716637 0.5195968)
(0 -0.011418267 0.52164274)
(0 -0.012912117 0.52416082)
(0 -0.014455593 0.5272636)
(0 -0.016044849 0.53110318)
(0 -0.017694714 0.53605535)
(0 -0.019507331 0.54350158)
(0 -0.021713238 0.55567754)
(0 -0.023683076 0.56563048)
(0 -0.021283638 0.53382487)
(0 -0.010735478 0.39440765)
(0 0.00080444497 0.13774438)
(0 -0.00077512022 0.12377169)
(0 0.00825493 0.36821185)
(0 0.020874253 0.52639988)
(0 0.025499377 0.57501938)
(0 0.02422708 0.56812691)
(0 0.021833442 0.55296234)
(0 0.019893588 0.54304669)
(0 0.018239821 0.53681503)
(0 0.01666497 0.53216315)
(0 0.015125445 0.52841942)
(0 0.013627449 0.52537316)
(0 0.012170792 0.52288741)
(0 0.010753913 0.5208559)
(0 0.0093746295 0.51919884)
(0 0.0080298553 0.51785651)
(0 0.0067159244 0.51678383)
(0 0.005428608 0.51594678)
(0 0.0041632492 0.51532003)
(0 0.0029148809 0.5148853)
(0 0.0016783216 0.51463034)
(0 0.0004482575 0.5145482)
(0 -0.00078065696 0.51463686)
(0 -0.0020137702 0.51489918)
(0 -0.0032563025 0.51534305)
(0 -0.0045133154 0.51598175)
(0 -0.0057895863 0.51683477)
(0 -0.0070895176 0.517929)
(0 -0.0084169845 0.51930047)
(0 -0.0097752706 0.520997)
(0 -0.01116685 0.52308229)
(0 -0.012593189 0.52564112)
(0 -0.01405515 0.52878392)
(0 -0.015548414 0.53266855)
(0 -0.017092399 0.53773043)
(0 -0.018803433 0.54545133)
(0 -0.020844274 0.5575789)
(0 -0.02235912 0.56507865)
(0 -0.019413515 0.52724692)
(0 -0.0090812168 0.3837423)
(0 0.00076735524 0.13339544)
(0 -0.0006077446 0.12065037)
(0 0.0071280747 0.35817223)
(0 0.019094127 0.51849712)
(0 0.024124366 0.57325985)
(0 0.02338619 0.56977239)
(0 0.021182483 0.55502976)
(0 0.019315141 0.54478593)
(0 0.017745495 0.53838223)
(0 0.016257576 0.53367689)
(0 0.014797004 0.52989914)
(0 0.013367394 0.52681779)
(0 0.011968989 0.52429696)
(0 0.010601105 0.52223171)
(0 0.0092624186 0.52054298)
(0 0.007950871 0.51917169)
(0 0.0066638879 0.51807338)
(0 0.0053983489 0.51721452)
(0 0.0041507016 0.51657016)
(0 0.0029170647 0.51612233)
(0 0.0016933234 0.51585895)
(0 0.00047521392 0.51577317)
(0 -0.00074156567 0.51586297)
(0 -0.0019613131 0.51613118)
(0 -0.0031881873 0.5165855)
(0 -0.0044261637 0.51723897)
(0 -0.005678904 0.51811074)
(0 -0.0069496701 0.51922722)
(0 -0.0082411821 0.52062383)
(0 -0.0095555699 0.52234772)
(0 -0.010894235 0.52446173)
(0 -0.012257601 0.52704949)
(0 -0.013645634 0.53021991)
(0 -0.01505466 0.5341404)
(0 -0.016509669 0.5393102)
(0 -0.018136143 0.54727298)
(0 -0.020021795 0.55918499)
(0 -0.02112003 0.56406481)
(0 -0.017755273 0.5206214)
(0 -0.0077603402 0.37396412)
(0 0.00068580825 0.12973806)
(0 -0.0004565139 0.11789928)
(0 0.0062576073 0.34903285)
(0 0.017527953 0.51074088)
(0 0.022851567 0.57110622)
(0 0.022591392 0.57109703)
(0 0.020574606 0.55697026)
(0 0.018769998 0.54645244)
(0 0.017267452 0.53987173)
(0 0.015853175 0.53511326)
(0 0.014462296 0.53130915)
(0 0.013094605 0.52820158)
(0 0.011750326 0.52565419)
(0 0.010429258 0.52356311)
(0 0.0091305818 0.52184984)
(0 0.0078529447 0.52045586)
(0 0.0065945854 0.5193372)
(0 0.0053532547 0.51846083)
(0 0.0041263038 0.51780217)
(0 0.0029107662 0.51734353)
(0 0.0017034449 0.51707304)
(0 0.00050099212 0.51698394)
(0 -0.00069997777 0.51707424)
(0 -0.0019028408 0.51734667)
(0 -0.0031108332 0.51780877)
(0 -0.0043270003 0.51847334)
(0 -0.0055540705 0.51935915)
(0 -0.006794381 0.52049214)
(0 -0.0080497551 0.52190717)
(0 -0.0093214748 0.52365074)
(0 -0.010610221 0.52578498)
(0 -0.011915782 0.52839246)
(0 -0.013237717 0.53158144)
(0 -0.014573902 0.53553281)
(0 -0.015955259 0.54081069)
(0 -0.017510806 0.54897863)
(0 -0.019249827 0.5605205)
(0 -0.019971274 0.56267168)
(0 -0.016291651 0.51403581)
(0 -0.0067116384 0.3649996)
(0 0.00058498176 0.12660569)
(0 -0.0003278935 0.11542418)
(0 0.0055777908 0.34068981)
(0 0.016146793 0.50318122)
(0 0.021674709 0.56863418)
(0 0.021839317 0.57212689)
(0 0.020007422 0.55879049)
(0 0.018259738 0.54805844)
(0 0.016810439 0.54129728)
(0 0.01545813 0.53648306)
(0 0.014128415 0.53265722)
(0 0.012816401 0.52952994)
(0 0.011521947 0.52696252)
(0 0.010245055 0.52485186)
(0 0.008985146 0.52311984)
(0 0.0077413252 0.52170831)
(0 0.0065124152 0.52057374)
(0 0.005296834 0.5196835)
(0 0.0040926569 0.51901337)
(0 0.002897672 0.51854592)
(0 0.0017094565 0.51826946)
(0 0.00052544525 0.51817733)
(0 -0.00065695961 0.51826755)
(0 -0.0018403425 0.51854277)
(0 -0.003027155 0.51901039)
(0 -0.0042196629 0.51968293)
(0 -0.0054198318 0.52057881)
(0 -0.0066292681 0.52172354)
(0 -0.0078491215 0.52315148)
(0 -0.0090800801 0.52490858)
(0 -0.010322383 0.5270564)
(0 -0.011575494 0.52967667)
(0 -0.012838939 0.53287803)
(0 -0.014112832 0.53685851)
(0 -0.015433872 0.54224529)
(0 -0.0169289 0.55057822)
(0 -0.018528484 0.56160916)
(0 -0.018912144 0.56096973)
(0 -0.01500182 0.50755159)
(0 -0.0058805119 0.35677207)
(0 0.00048061902 0.12387163)
(0 -0.00022321536 0.11316063)
(0 0.005038143 0.33304813)
(0 0.014924552 0.49584899)
(0 0.020585549 0.56590616)
(0 0.021125827 0.57288588)
(0 0.019477209 0.56049489)
(0 0.017783693 0.54961273)
(0 0.016376798 0.54267026)
(0 0.015076472 0.53779578)
(0 0.013800289 0.53395046)
(0 0.012538161 0.53080809)
(0 0.011289317 0.52822555)
(0 0.010053757 0.52610014)
(0 0.0088309646 0.52435395)
(0 0.0076203175 0.52292904)
(0 0.0064210376 0.52178222)
(0 0.0052320417 0.52088115)
(0 0.0040519718 0.52020193)
(0 0.0028792274 0.51972735)
(0 0.0017120256 0.51944589)
(0 0.00054845653 0.51935098)
(0 -0.00061341252 0.51944065)
(0 -0.0017754999 0.51971748)
(0 -0.0029396043 0.52018869)
(0 -0.0041073515 0.52086659)
(0 -0.0052800975 0.52176928)
(0 -0.0064588871 0.52292189)
(0 -0.0076443828 0.52435835)
(0 -0.0088368823 0.52612418)
(0 -0.010036395 0.52828053)
(0 -0.011242288 0.53090854)
(0 -0.012454334 0.53411845)
(0 -0.013675352 0.53812862)
(0 -0.014947275 0.54362474)
(0 -0.016389342 0.55207964)
(0 -0.017855438 0.56247299)
(0 -0.017938132 0.55901796)
(0 -0.013864282 0.50121024)
(0 -0.0052202918 0.34920638)
(0 0.00038192542 0.12144104)
(0 -0.00014095083 0.11106523)
(0 0.0046010085 0.32602314)
(0 0.013838554 0.48876149)
(0 0.01957542 0.56297368)
(0 0.020446803 0.57339578)
(0 0.018979758 0.56208637)
(0 0.017339876 0.55112128)
(0 0.015967234 0.54399984)
(0 0.014710533 0.5390596)
(0 0.013481189 0.53519525)
(0 0.012263722 0.53204088)
(0 0.011056514 0.52944682)
(0 0.0098594199 0.52731032)
(0 0.0086718724 0.52555352)
(0 0.0074933876 0.52411856)
(0 0.0063234453 0.52296242)
(0 0.0051613224 0.52205302)
(0 0.004006096 0.52136667)
(0 0.0028566508 0.52088638)
(0 0.0017117244 0.52060075)
(0 0.00056993878 0.52050329)
(0 -0.00057007965 0.52059202)
(0 -0.0017096994 0.52086947)
(0 -0.0028501955 0.52134272)
(0 -0.0039926727 0.52202386)
(0 -0.005138013 0.52293073)
(0 -0.0062868422 0.52408814)
(0 -0.0074394872 0.52552969)
(0 -0.0085960122 0.52730062)
(0 -0.0097563491 0.52946179)
(0 -0.010919935 0.53209407)
(0 -0.012086988 0.53531056)
(0 -0.013263308 0.53935259)
(0 -0.01449522 0.54495734)
(0 -0.015889493 0.55348898)
(0 -0.017227022 0.56313195)
(0 -0.017042661 0.55686525)
(0 -0.012858599 0.49503845)
(0 -0.0046924332 0.34223183)
(0 0.00029373041 0.11924413)
(0 -7.8190417e-05 0.10910896)
(0 0.0042389721 0.31954075)
(0 0.012869517 0.48192657)
(0 0.018636107 0.55987941)
(0 0.019798544 0.5736765)
(0 0.018510905 0.56356677)
(0 0.016925647 0.55258777)
(0 0.015581407 0.54529319)
(0 0.014361444 0.54028145)
(0 0.013173153 0.53639717)
(0 0.011995724 0.5332327)
(0 0.010826504 0.53062968)
(0 0.0096651032 0.52848481)
(0 0.0085108407 0.52672012)
(0 0.0073632767 0.52527769)
(0 0.0062220419 0.52411458)
(0 0.0050866652 0.52319885)
(0 0.0039565487 0.52250699)
(0 0.0028309536 0.52202214)
(0 0.0017090316 0.52173302)
(0 0.00058984318 0.5216332)
(0 -0.00052754713 0.52172072)
(0 -0.0016440628 0.52199801)
(0 -0.0027605455 0.52247205)
(0 -0.0038776994 0.52315475)
(0 -0.0049960461 0.52406373)
(0 -0.0061159096 0.52522356)
(0 -0.0072374 0.52666762)
(0 -0.0083604656 0.52844097)
(0 -0.009485065 0.53060434)
(0 -0.010610817 0.53323866)
(0 -0.011738536 0.5364612)
(0 -0.012877094 0.54053817)
(0 -0.014076165 0.54624925)
(0 -0.015425895 0.55481083)
(0 -0.016638996 0.56360397)
(0 -0.016218304 0.55455188)
(0 -0.011966283 0.4890521)
(0 -0.0042660012 0.33578368)
(0 0.00021801725 0.11723025)
(0 -3.1567693e-05 0.10727218)
(0 0.0039324666 0.31353677)
(0 0.012001253 0.4753457)
(0 0.017760268 0.55665894)
(0 0.019177932 0.57374639)
(0 0.01806683 0.56493739)
(0 0.016538135 0.5540142)
(0 0.015218349 0.54655581)
(0 0.014029523 0.54146708)
(0 0.012877333 0.53756103)
(0 0.011735902 0.53438746)
(0 0.010601378 0.53177725)
(0 0.0094730614 0.52962596)
(0 0.0083501255 0.52785542)
(0 0.007232112 0.52640751)
(0 0.0061187256 0.52523925)
(0 0.0050096623 0.52431878)
(0 0.0039045606 0.52362269)
(0 0.0028029677 0.52313423)
(0 0.0017043578 0.5228422)
(0 0.0006081393 0.5227402)
(0 -0.0004862767 0.52282627)
(0 -0.0015794612 0.52310279)
(0 -0.0026719145 0.52357665)
(0 -0.0037640353 0.52425961)
(0 -0.0048560792 0.52516913)
(0 -0.0059481625 0.5263296)
(0 -0.0070402701 0.52777428)
(0 -0.0081323183 0.52954816)
(0 -0.0092243589 0.53171197)
(0 -0.010316267 0.53434707)
(0 -0.011409557 0.5375762)
(0 -0.012516129 0.54169163)
(0 -0.013687819 0.54750482)
(0 -0.014994777 0.55604861)
(0 -0.016087062 0.56390503)
(0 -0.015457584 0.55211105)
(0 -0.011171151 0.48325934)
(0 -0.0039167612 0.32980382)
(0 0.00015499078 0.11536309)
(0 2.1993561e-06 0.10554128)
(0 0.0036677324 0.30795602)
(0 0.011220245 0.46901609)
(0 0.016941569 0.55334212)
(0 0.018582453 0.57362243)
(0 0.017644187 0.56619932)
(0 0.016174509 0.55540132)
(0 0.014876748 0.54779178)
(0 0.013714557 0.54262128)
(0 0.012594252 0.53869097)
(0 0.011485315 0.5355086)
(0 0.010382554 0.53289233)
(0 0.0092849085 0.53073601)
(0 0.0081914001 0.52896109)
(0 0.0071015119 0.52750919)
(0 0.0060149679 0.52633719)
(0 0.0049315674 0.52541322)
(0 0.0038511139 0.52471392)
(0 0.0027733668 0.5242226)
(0 0.0016980453 0.52392812)
(0 0.00062482618 0.52382411)
(0 -0.00044660798 0.52390858)
(0 -0.0015165551 0.52418389)
(0 -0.0025852569 0.52465684)
(0 -0.0036528832 0.52533909)
(0 -0.0047195006 0.52624798)
(0 -0.0057850918 0.5274078)
(0 -0.0068495838 0.52885175)
(0 -0.007912919 0.5306249)
(0 -0.0089752798 0.53278809)
(0 -0.010036843 0.53542347)
(0 -0.011099903 0.53866047)
(0 -0.012179214 0.54281785)
(0 -0.013327525 0.54872692)
(0 -0.014592394 0.55720491)
(0 -0.015567175 0.56404946)
(0 -0.014753466 0.54957011)
(0 -0.010459335 0.47766289)
(0 -0.0036261081 0.32424079)
(0 0.00010382069 0.11361673)
(0 2.6030222e-05 0.10390632)
(0 0.0034351772 0.30275116)
(0 0.01051521 0.46293213)
(0 0.016174641 0.54995417)
(0 0.018010134 0.57332049)
(0 0.017240153 0.56735371)
(0 0.015832125 0.556749)
(0 0.014555138 0.54900407)
(0 0.013416001 0.54374795)
(0 0.012324004 0.53979052)
(0 0.01124453 0.53659914)
(0 0.010170935 0.53397748)
(0 0.0091017579 0.53181705)
(0 0.0080358723 0.5300388)
(0 0.0069726802 0.52858399)
(0 0.005911888 0.5274093)
(0 0.0048533507 0.52648278)
(0 0.0037969814 0.52578107)
(0 0.0027426909 0.5252875)
(0 0.0016903803 0.52499095)
(0 0.00063992824 0.52488506)
(0 -0.00040877613 0.52496785)
(0 -0.0014558246 0.52524163)
(0 -0.0025012677 0.52571314)
(0 -0.00354511 0.52639398)
(0 -0.0045872907 0.52730141)
(0 -0.0056277149 0.52845969)
(0 -0.0066663006 0.52990205)
(0 -0.0077030535 0.53167368)
(0 -0.0087383039 0.53383569)
(0 -0.0097725564 0.5364714)
(0 -0.010808939 0.53971808)
(0 -0.011864805 0.5439206)
(0 -0.012992526 0.54991731)
(0 -0.014215231 0.55828169)
(0 -0.015075711 0.56405015)
(0 -0.014099608 0.54695176)
(0 -0.0098191186 0.47226177)
(0 -0.0033799991 0.31904942)
(0 6.3148058e-05 0.11197271)
(0 4.2373838e-05 0.10235955)
(0 0.0032281217 0.29788165)
(0 0.0098766939 0.45708647)
(0 0.015454964 0.54651643)
(0 0.017459446 0.57285545)
(0 0.016852399 0.56840191)
(0 0.015508598 0.5580566)
(0 0.014252023 0.55019475)
(0 0.01313312 0.5448503)
(0 0.012066396 0.54086272)
(0 0.011013767 0.53766168)
(0 0.0099670437 0.53503497)