/*--------------------------------*- C++ -*----------------------------------*\
  =========                 |
  \\      /  F ield         | OpenFOAM: The Open Source CFD Toolbox
   \\    /   O peration     | Website:  https://openfoam.org
    \\  /    A nd           | Version:  10
     \\/     M anipulation  |
\*---------------------------------------------------------------------------*/
FoamFile
{
    format      ascii;
    class       volVectorField;
    location    "0.28";
    object      U_0;
}
// * * * * * * * * * * * * * * * * * * * * * * * * * * * * * * * * * * * * * //

dimensions      [0 1 -1 0 0 0 0];

internalField   nonuniform List<vector> 
4000
(
(0 0.018637467 0.47773156)
(0 0.023510014 0.50886061)
(0 0.00816686 0.50052521)
(0 0.0056146192 0.50033634)
(0 0.0042546323 0.50025746)
(0 0.0032549462 0.50016898)
(0 0.0025560894 0.50011969)
(0 0.0020545777 0.50009013)
(0 0.0016765716 0.50006981)
(0 0.0013822281 0.50005539)
(0 0.0011471748 0.50004499)
(0 0.00095507283 0.50003733)
(0 0.00079466818 0.5000316)
(0 0.00065798519 0.50002727)
(0 0.00053919563 0.50002399)
(0 0.00043391894 0.50002151)
(0 0.00033876784 0.50001967)
(0 0.00025104047 0.50001834)
(0 0.00016850427 0.50001744)
(0 8.9237473e-05 0.50001694)
(0 1.1506741e-05 0.50001679)
(0 -6.6339848e-05 0.50001699)
(0 -0.00014596437 0.50001755)
(0 -0.00022913127 0.5000185)
(0 -0.00031781798 0.50001991)
(0 -0.00041434546 0.50002185)
(0 -0.00052155008 0.50002446)
(0 -0.0006430229 0.50002793)
(0 -0.00078345753 0.50003252)
(0 -0.00094917989 0.50003863)
(0 -0.0011489995 0.50004688)
(0 -0.0013955743 0.50005824)
(0 -0.0017076507 0.50007414)
(0 -0.0021155773 0.50009709)
(0 -0.0026752677 0.50013481)
(0 -0.0034688308 0.50020237)
(0 -0.0045610427 0.50027142)
(0 -0.0065852232 0.50043364)
(0 -0.017659662 0.50675408)
(0 -0.013590232 0.47975558)
(0 0.037432711 0.44796925)
(0 0.050955785 0.53232616)
(0 0.021969347 0.5080429)
(0 0.016135666 0.50357319)
(0 0.012416103 0.50242317)
(0 0.0095159683 0.501623)
(0 0.0075206264 0.50115662)
(0 0.0060698873 0.50086594)
(0 0.0049645535 0.50066802)
(0 0.0041000924 0.50052903)
(0 0.0034075542 0.50042906)
(0 0.0028399914 0.50035556)
(0 0.0023650307 0.50030067)
(0 0.0019595886 0.50025927)
(0 0.001606705 0.50022793)
(0 0.0012935853 0.50020427)
(0 0.0010103051 0.50018666)
(0 0.00074892663 0.50017399)
(0 0.00050287649 0.50016548)
(0 0.00026648563 0.50016065)
(0 3.4634027e-05 0.50015922)
(0 -0.00019755717 0.50016112)
(0 -0.00043499661 0.50016647)
(0 -0.00068289415 0.50017557)
(0 -0.00094707952 0.50018898)
(0 -0.0012343815 0.50020753)
(0 -0.0015531234 0.50023247)
(0 -0.0019138111 0.50026558)
(0 -0.002330125 0.5003095)
(0 -0.0028204043 0.5003681)
(0 -0.0034100234 0.50044735)
(0 -0.0041353578 0.5005567)
(0 -0.0050494854 0.50071125)
(0 -0.0062322705 0.50093659)
(0 -0.0078325963 0.50129435)
(0 -0.010126249 0.50191049)
(0 -0.013107327 0.50282505)
(0 -0.01742671 0.50608114)
(0 -0.03875946 0.52526814)
(0 -0.027894878 0.4502162)
(0 0.039888315 0.4098205)
(0 0.061428218 0.54930815)
(0 0.031983843 0.52188197)
(0 0.024355586 0.51008056)
(0 0.019193714 0.50658859)
(0 0.014977241 0.50452811)
(0 0.012006798 0.50327144)
(0 0.0097719777 0.50245844)
(0 0.00803654 0.50190113)
(0 0.006664839 0.50150876)
(0 0.0055566545 0.50122555)
(0 0.0046424527 0.50101681)
(0 0.003873496 0.50086066)
(0 0.0032143895 0.50074275)
(0 0.0026387993 0.50065337)
(0 0.0021266729 0.50058586)
(0 0.0016623343 0.50053559)
(0 0.0012331643 0.50049939)
(0 0.00082865645 0.50047507)
(0 0.00043971278 0.50046124)
(0 5.8092725e-05 0.50045715)
(0 -0.00032406434 0.50046258)
(0 -0.00071466614 0.50047786)
(0 -0.0011220912 0.50050387)
(0 -0.0015556837 0.50054217)
(0 -0.0020263375 0.50059513)
(0 -0.00254725 0.50066624)
(0 -0.0031349532 0.5007606)
(0 -0.0038107764 0.50088558)
(0 -0.0046029581 0.50105212)
(0 -0.0055498523 0.50127674)
(0 -0.0067054381 0.50158559)
(0 -0.0081469155 0.50202076)
(0 -0.0099783715 0.50265067)
(0 -0.012372621 0.503615)
(0 -0.01571762 0.50519907)
(0 -0.019873957 0.50785378)
(0 -0.025187617 0.51641216)
(0 -0.047418076 0.53912717)
(0 -0.030854085 0.41487938)
(0 0.034791633 0.36172995)
(0 0.063839048 0.55456331)
(0 0.039380564 0.53747139)
(0 0.030083526 0.51849264)
(0 0.024112738 0.51197734)
(0 0.01927971 0.50849951)
(0 0.015736258 0.50626433)
(0 0.012954225 0.50475554)
(0 0.010743647 0.50370454)
(0 0.0089678338 0.50295626)
(0 0.0075137556 0.50241122)
(0 0.0063017477 0.50200695)
(0 0.0052740059 0.50170317)
(0 0.0043872742 0.50147295)
(0 0.0036087368 0.50129795)
(0 0.0029130112 0.50116547)
(0 0.0022799924 0.50106668)
(0 0.0016933209 0.50099541)
(0 0.0011392576 0.5009475)
(0 0.0006058239 0.50092023)
(0 8.2120457e-05 0.50091215)
(0 -0.0004422722 0.50092285)
(0 -0.00097783384 0.50095294)
(0 -0.0015356333 0.50100415)
(0 -0.0021279483 0.50107945)
(0 -0.0027689834 0.50118344)
(0 -0.003475776 0.50132283)
(0 -0.0042694022 0.50150729)
(0 -0.0051766405 0.50175083)
(0 -0.0062322685 0.50207392)
(0 -0.0074821529 0.50250703)
(0 -0.0089885241 0.50309717)
(0 -0.01083875 0.50391905)
(0 -0.01313939 0.50508904)
(0 -0.016026099 0.50680663)
(0 -0.019901444 0.50946719)
(0 -0.024733291 0.51427455)
(0 -0.031115189 0.52824681)
(0 -0.050321134 0.54407141)
(0 -0.028438908 0.37237925)
(0 0.027424316 0.31484306)
(0 0.062315054 0.55024057)
(0 0.044614796 0.55146769)
(0 0.033982248 0.52748819)
(0 0.027464252 0.5177225)
(0 0.022455321 0.51291992)
(0 0.018636899 0.50973155)
(0 0.01552818 0.50749278)
(0 0.013006182 0.50590011)
(0 0.01094208 0.50474709)
(0 0.0092244949 0.50389635)
(0 0.0077745728 0.5032594)
(0 0.0065323289 0.50277735)
(0 0.0054513387 0.50240997)
(0 0.0044955547 0.50212948)
(0 0.0036365123 0.50191641)
(0 0.0028512683 0.50175708)
(0 0.0021208846 0.50164192)
(0 0.0014292682 0.50156436)
(0 0.00076226024 0.50152017)
(0 0.00010689748 0.50150705)
(0 -0.00054924945 0.50152433)
(0 -0.0012186782 0.50157301)
(0 -0.0019145337 0.50165577)
(0 -0.0026512926 0.50177731)
(0 -0.0034455333 0.50194477)
(0 -0.0043168812 0.50216856)
(0 -0.00528922 0.50246355)
(0 -0.006392299 0.50285101)
(0 -0.0076638924 0.50336158)
(0 -0.0091522626 0.5040399)
(0 -0.010919845 0.50495251)
(0 -0.013053474 0.50620221)
(0 -0.015656944 0.50794391)
(0 -0.018818107 0.51040395)
(0 -0.022898468 0.51405437)
(0 -0.0281795 0.52114502)
(0 -0.035709631 0.5393262)
(0 -0.05047853 0.5415542)
(0 -0.024086899 0.330556)
(0 0.019837969 0.27519748)
(0 0.057990245 0.53974641)
(0 0.047364234 0.5625648)
(0 0.036477974 0.53660465)
(0 0.029636438 0.52350722)
(0 0.024676402 0.51740343)
(0 0.020774468 0.51336319)
(0 0.017509941 0.51044476)
(0 0.014814319 0.50832448)
(0 0.012566674 0.50676212)
(0 0.010665482 0.50559314)
(0 0.0090387509 0.50470839)
(0 0.0076288636 0.50403295)
(0 0.0063899606 0.50351459)
(0 0.0052855837 0.50311661)
(0 0.0042862654 0.50281296)
(0 0.0033677786 0.5025851)
(0 0.0025097881 0.50241996)
(0 0.0016947719 0.50230851)
(0 0.00090714468 0.50224491)
(0 0.0001325313 0.50222596)
(0 -0.00064289969 0.50225075)
(0 -0.0014330512 0.50232063)
(0 -0.0022524756 0.50243934)
(0 -0.0031170666 0.50261333)
(0 -0.0040448092 0.50285237)
(0 -0.0050566767 0.50317062)
(0 -0.0061777329 0.50358806)
(0 -0.0074385256 0.50413287)
(0 -0.0088769815 0.50484501)
(0 -0.010540365 0.50578146)
(0 -0.012486967 0.50702452)
(0 -0.014797002 0.50869736)
(0 -0.017572249 0.51098159)
(0 -0.020866687 0.51411959)
(0 -0.024976594 0.51872967)
(0 -0.030511396 0.52822945)
(0 -0.03863294 0.54872374)
(0 -0.048510982 0.53398279)
(0 -0.019067658 0.29393615)
(0 0.013083247 0.24255452)
(0 0.05179911 0.52520037)
(0 0.047709964 0.57024855)
(0 0.037757554 0.54552508)
(0 0.03085086 0.52928876)
(0 0.026073946 0.52180184)
(0 0.02223835 0.51699815)
(0 0.018953999 0.51347375)
(0 0.016193709 0.51086528)
(0 0.013849673 0.50891284)
(0 0.011835398 0.50743309)
(0 0.010088299 0.50630103)
(0 0.0085557548 0.50542889)
(0 0.007195019 0.50475453)
(0 0.0059712935 0.5042336)
(0 0.0048557627 0.50383415)
(0 0.003824241 0.50353321)
(0 0.0028560595 0.50331441)
(0 0.001933133 0.5031664)
(0 0.0010391809 0.50308178)
(0 0.00015906249 0.50305646)
(0 -0.00072184689 0.50308929)
(0 -0.0016182431 0.503182)
(0 -0.0025454284 0.50333931)
(0 -0.0035199655 0.50356936)
(0 -0.0045603563 0.50388444)
(0 -0.0056878368 0.50430213)
(0 -0.0069273187 0.50484708)
(0 -0.0083085049 0.50555354)
(0 -0.0098674643 0.5064693)
(0 -0.01164839 0.50766151)
(0 -0.013703526 0.50922502)
(0 -0.01610238 0.51129781)
(0 -0.018940242 0.51407923)
(0 -0.022248479 0.51783809)
(0 -0.026267923 0.52346723)
(0 -0.031851632 0.53537478)
(0 -0.039762781 0.55589627)
(0 -0.044896511 0.52282094)
(0 -0.014091374 0.26264203)
(0 0.0077701854 0.21554062)
(0 0.044826154 0.50800967)
(0 0.046256146 0.57438089)
(0 0.038035982 0.55375149)
(0 0.031288508 0.53496073)
(0 0.026768917 0.52603055)
(0 0.023117204 0.52053875)
(0 0.019921202 0.51648862)
(0 0.017182362 0.51344208)
(0 0.014813468 0.51113113)
(0 0.012746092 0.50936006)
(0 0.010928184 0.50799158)
(0 0.0093138436 0.50692808)
(0 0.0078651054 0.50609965)
(0 0.0065502282 0.50545569)
(0 0.0053422585 0.50495935)
(0 0.0042180889 0.50458384)
(0 0.0031575923 0.50430992)
(0 0.0021428694 0.50412414)
(0 0.0011575998 0.50401769)
(0 0.000186472 0.5039857)
(0 -0.0007853652 0.50402678)
(0 -0.0017728316 0.50414299)
(0 -0.0027913781 0.50433996)
(0 -0.0038575721 0.50462735)
(0 -0.0049896736 0.50501967)
(0 -0.0062082976 0.50553753)
(0 -0.0075371791 0.50620953)
(0 -0.0090039986 0.50707499)
(0 -0.010641549 0.50818808)
(0 -0.012489408 0.50962405)
(0 -0.014592706 0.51148793)
(0 -0.017007642 0.51392862)
(0 -0.019815874 0.51715485)
(0 -0.02303336 0.52147967)
(0 -0.026882656 0.52818206)
(0 -0.032354586 0.54221999)
(0 -0.039407137 0.56050135)
(0 -0.040330957 0.50908051)
(0 -0.0097087491 0.2358533)
(0 0.0040050251 0.19355581)
(0 0.037899902 0.48948662)
(0 0.043687849 0.5752401)
(0 0.03756484 0.56084538)
(0 0.031155091 0.54036148)
(0 0.026914986 0.53001177)
(0 0.023514835 0.52390229)
(0 0.020480913 0.51941318)
(0 0.017827199 0.51598849)
(0 0.015489735 0.5133597)
(0 0.013418194 0.51132496)
(0 0.011571227 0.50973843)
(0 0.0099106751 0.50849546)
(0 0.0084043058 0.50752037)
(0 0.0070242932 0.50675779)
(0 0.0057463694 0.506167)
(0 0.0045492558 0.50571816)
(0 0.0034140373 0.50538964)
(0 0.0023236037 0.50516622)
(0 0.0012621432 0.50503791)
(0 0.00021468608 0.50499915)
(0 -0.00083335099 0.50504835)
(0 -0.0018966156 0.50518787)
(0 -0.0029901911 0.5054241)
(0 -0.0041300956 0.505768)
(0 -0.0053337384 0.50623595)
(0 -0.0066204352 0.50685105)
(0 -0.0080119921 0.50764509)
(0 -0.0095332611 0.50866144)
(0 -0.011212838 0.50995916)
(0 -0.013084584 0.51161958)
(0 -0.015186015 0.51375535)
(0 -0.017559768 0.51652225)
(0 -0.020269986 0.52013131)
(0 -0.023324529 0.52496275)
(0 -0.026965436 0.53273944)
(0 -0.032207046 0.5483904)
(0 -0.03799907 0.56254247)
(0 -0.035417601 0.49378825)
(0 -0.0062011145 0.21324702)
(0 0.0015511697 0.17613279)
(0 0.031500041 0.470761)
(0 0.040533263 0.57338568)
(0 0.036560008 0.56659884)
(0 0.030638312 0.54537889)
(0 0.026672543 0.53370506)
(0 0.023543868 0.52703286)
(0 0.020711042 0.52218914)
(0 0.018183405 0.51845208)
(0 0.015917489 0.515552)
(0 0.01387887 0.51328674)
(0 0.012036115 0.51150568)
(0 0.010358928 0.51009976)
(0 0.0088210547 0.5089895)
(0 0.0073989669 0.50811616)
(0 0.0060715535 0.50743622)
(0 0.0048198433 0.5069175)
(0 0.0036265998 0.50653655)
(0 0.0024759488 0.50627679)
(0 0.0013530153 0.50612724)
(0 0.00024358228 0.5060818)
(0 -0.00086626127 0.50613873)
(0 -0.0019904851 0.50630061)
(0 -0.0031433913 0.50657446)
(0 -0.0043400169 0.50697229)
(0 -0.0055964683 0.50751192)
(0 -0.0069302877 0.50821839)
(0 -0.0083608602 0.50912592)
(0 -0.0099097514 0.51028082)
(0 -0.011600966 0.51174564)
(0 -0.013462225 0.51360573)
(0 -0.015523593 0.51597858)
(0 -0.017815695 0.51902273)
(0 -0.020385468 0.52294916)
(0 -0.02324015 0.52823485)
(0 -0.026660249 0.53703984)
(0 -0.031570282 0.5536587)
(0 -0.035909534 0.56230631)
(0 -0.030556007 0.47788541)
(0 -0.0035914733 0.19460352)
(0 7.6788878e-05 0.16252414)
(0 0.025870857 0.45259945)
(0 0.037160627 0.56943314)
(0 0.035192433 0.5709893)
(0 0.029878354 0.54996348)
(0 0.026174628 0.53711445)
(0 0.023306681 0.52991307)
(0 0.020688104 0.52478505)
(0 0.018308372 0.52079914)
(0 0.016139108 0.51767513)
(0 0.01415902 0.51521446)
(0 0.012345254 0.51326494)
(0 0.010674733 0.51171535)
(0 0.009126847 0.510484)
(0 0.007682343 0.50951009)
(0 0.0063234174 0.50874826)
(0 0.0050336365 0.50816476)
(0 0.0037977162 0.50773483)
(0 0.0026013137 0.50744088)
(0 0.0014307941 0.50727123)
(0 0.00027299754 0.50721935)
(0 -0.00088500884 0.50728339)
(0 -0.0020562103 0.5074661)
(0 -0.003253821 0.50777498)
(0 -0.0044915916 0.50822279)
(0 -0.0057840273 0.50882845)
(0 -0.0071466197 0.50961835)
(0 -0.0085960925 0.51062836)
(0 -0.010150584 0.51190674)
(0 -0.011829578 0.51351822)
(0 -0.01365486 0.51555045)
(0 -0.015649647 0.51812318)
(0 -0.017834569 0.5213946)
(0 -0.020242 0.52557916)
(0 -0.022885527 0.53128184)
(0 -0.026083215 0.54103071)
(0 -0.030574876 0.55793397)
(0 -0.03343182 0.56018802)
(0 -0.025997977 0.46206097)
(0 -0.001765533 0.17946304)
(0 -0.00071791792 0.15190645)
(0 0.021108527 0.43543378)
(0 0.033820292 0.56393141)
(0 0.033605171 0.5740896)
(0 0.028975899 0.55409457)
(0 0.025520807 0.5402642)
(0 0.022886916 0.53255344)
(0 0.020479059 0.52719294)
(0 0.018255115 0.52301363)
(0 0.016195682 0.51970952)
(0 0.014290034 0.51708731)
(0 0.01252241 0.51499559)
(0 0.010875917 0.51332245)
(0 0.0093349228 0.51198526)
(0 0.0078841459 0.51092224)
(0 0.0065089897 0.510087)
(0 0.0051955817 0.50944485)
(0 0.0039306976 0.50897022)
(0 0.0027016835 0.50864485)
(0 0.0014963304 0.50845659)
(0 0.00030273706 0.50839861)
(0 -0.0008908434 0.50846899)
(0 -0.0020962024 0.50867059)
(0 -0.0033252653 0.50901124)
(0 -0.0045903092 0.50950421)
(0 -0.0059040813 0.51016912)
(0 -0.007279917 0.51103322)
(0 -0.0087318504 0.51213339)
(0 -0.010274693 0.51351893)
(0 -0.011923759 0.51525569)
(0 -0.013695496 0.51743232)
(0 -0.015607057 0.52016897)
(0 -0.017670909 0.52362155)
(0 -0.019908513 0.52801576)
(0 -0.022346065 0.53410986)
(0 -0.025325284 0.54468107)
(0 -0.029335992 0.56120679)
(0 -0.030797483 0.55658279)
(0 -0.021897096 0.44675318)
(0 -0.00056495686 0.1672384)
(0 -0.0010700428 0.14358237)
(0 0.017203913 0.41947813)
(0 0.030667863 0.55733978)
(0 0.031916144 0.57602091)
(0 0.028005026 0.55776452)
(0 0.024784626 0.54318016)
(0 0.022351035 0.53497667)
(0 0.020139554 0.52941871)
(0 0.018069415 0.52509153)
(0 0.016124245 0.52164576)
(0 0.014301423 0.51889281)
(0 0.012590799 0.51668356)
(0 0.010980512 0.51490645)
(0 0.0094591252 0.51347876)
(0 0.008014863 0.51233846)
(0 0.0066360705 0.51143881)
(0 0.0053113122 0.51074469)
(0 0.0040294013 0.51023011)
(0 0.002779415 0.50987645)
(0 0.001550654 0.50967128)
(0 0.00033258363 0.50960762)
(0 -0.00088523826 0.50968346)
(0 -0.0021132902 0.50990175)
(0 -0.0033621015 0.51027051)
(0 -0.0046423938 0.51080331)
(0 -0.0059651149 0.51152013)
(0 -0.0073414724 0.51244867)
(0 -0.0087829351 0.51362623)
(0 -0.010301243 0.51510253)
(0 -0.011908035 0.51694372)
(0 -0.013615185 0.51923855)
(0 -0.015434692 0.52210621)
(0 -0.01737254 0.52569964)
(0 -0.019443325 0.53026597)
(0 -0.02169073 0.53673062)
(0 -0.024459692 0.5479708)
(0 -0.027955331 0.563521)
(0 -0.028177102 0.55185232)
(0 -0.018327541 0.43222673)
(0 0.00016868708 0.15738356)
(0 -0.0011531469 0.13700051)
(0 0.014079529 0.40481287)
(0 0.027783396 0.55003254)
(0 0.030213405 0.57693068)
(0 0.027018154 0.56097979)
(0 0.024019083 0.54588633)
(0 0.021750921 0.53720974)
(0 0.019714788 0.5314755)
(0 0.017789614 0.52703609)
(0 0.015956905 0.52348127)
(0 0.014219667 0.52062456)
(0 0.012571922 0.51832004)
(0 0.011005731 0.51645711)
(0 0.009513046 0.51495351)
(0 0.0080850579 0.5137475)
(0 0.0067126976 0.51279242)
(0 0.0053867496 0.51205313)
(0 0.0040979491 0.51150352)
(0 0.0028370592 0.51112485)
(0 0.0015948915 0.5109046)
(0 0.00036230705 0.51083568)
(0 -0.00086978955 0.51091607)
(0 -0.0021105215 0.51114874)
(0 -0.0033689951 0.51154179)
(0 -0.0046543777 0.5121089)
(0 -0.0059758673 0.51287016)
(0 -0.0073426645 0.51385337)
(0 -0.0087638973 0.51509586)
(0 -0.010248584 0.51664723)
(0 -0.011805243 0.51857343)
(0 -0.013442007 0.52096263)
(0 -0.01516671 0.52393216)
(0 -0.016980511 0.52763254)
(0 -0.018895033 0.53234349)
(0 -0.020974097 0.53915825)
(0 -0.023543652 0.55089341)
(0 -0.026515374 0.56495913)
(0 -0.025681939 0.5463144)
(0 -0.015300961 0.4186296)
(0 0.00057353013 0.14943573)
(0 -0.00108556 0.13172111)
(0 0.011624728 0.39142926)
(0 0.025194735 0.54230337)
(0 0.028555772 0.57697318)
(0 0.02604869 0.56376006)
(0 0.02325955 0.54840555)
(0 0.021125106 0.53928114)
(0 0.019240214 0.53338069)
(0 0.017446945 0.52885527)
(0 0.015720727 0.52521815)
(0 0.014067768 0.52228063)
(0 0.012484987 0.51990025)
(0 0.01096736 0.51796774)
(0 0.009509453 0.51640163)
(0 0.0081048723 0.51514074)
(0 0.006746738 0.51413882)
(0 0.0054277852 0.51336095)
(0 0.004140497 0.51278116)
(0 0.0028772142 0.51238076)
(0 0.0016301981 0.51214723)
(0 0.00039167313 0.51207349)
(0 -0.00084612921 0.5121575)
(0 -0.0020909965 0.51240224)
(0 -0.0033506476 0.51281578)
(0 -0.0046327612 0.51341176)
(0 -0.0059448982 0.51421021)
(0 -0.0072944363 0.51523875)
(0 -0.0086884446 0.51653445)
(0 -0.010133622 0.51814649)
(0 -0.011635938 0.52014018)
(0 -0.013200602 0.52260277)
(0 -0.014832272 0.52564922)
(0 -0.016528871 0.52942942)
(0 -0.018302365 0.53426648)
(0 -0.020236816 0.5414094)
(0 -0.022618729 0.55345652)
(0 -0.025077197 0.56562565)
(0 -0.023374693 0.54023487)
(0 -0.012787741 0.40602361)
(0 0.00075868267 0.14300061)
(0 -0.000943722 0.12739854)
(0 0.0097207394 0.37926126)
(0 0.02289843 0.53437268)
(0 0.026978447 0.57629347)
(0 0.025115383 0.56613256)
(0 0.022527271 0.55075855)
(0 0.020500265 0.54121854)
(0 0.018742293 0.53515393)
(0 0.017065906 0.53056011)
(0 0.015437782 0.52686175)
(0 0.013865099 0.52386231)
(0 0.012346627 0.52142248)
(0 0.010879409 0.51943451)
(0 0.0094599323 0.51781779)
(0 0.0080836898 0.51651185)
(0 0.0067455945 0.515471)
(0 0.0054400426 0.51466074)
(0 0.0041610569 0.51405536)
(0 0.0029024088 0.51363635)
(0 0.0016577041 0.51339129)
(0 0.00042045241 0.51331315)
(0 -0.00081585406 0.5133999)
(0 -0.0020577338 0.51365448)
(0 -0.0033115998 0.51408486)
(0 -0.004583753 0.51470457)
(0 -0.005880273 0.5155334)
(0 -0.0072069334 0.51659866)
(0 -0.0085690524 0.51793693)
(0 -0.0099714238 0.51959678)
(0 -0.011418021 0.52164272)
(0 -0.012911868 0.52416081)
(0 -0.014455341 0.5272636)
(0 -0.016044596 0.53110319)
(0 -0.017694463 0.53605538)
(0 -0.01950708 0.54350161)
(0 -0.021712984 0.55567756)
(0 -0.023682827 0.56563056)
(0 -0.021283438 0.53382519)
(0 -0.010735377 0.39440825)
(0 0.00080446173 0.13774482)
(0 -0.00077512219 0.12377173)
(0 0.0082549107 0.36821191)
(0 0.020874217 0.5263999)
(0 0.025499334 0.57501936)
(0 0.024227041 0.56812687)
(0 0.02183341 0.55296229)
(0 0.019893565 0.54304663)
(0 0.018239807 0.53681497)
(0 0.016664965 0.53216309)
(0 0.015125452 0.52841934)
(0 0.013627468 0.52537308)
(0 0.012170824 0.52288733)
(0 0.010753959 0.52085581)
(0 0.0093746892 0.51919874)
(0 0.0080299301 0.51785641)
(0 0.0067160147 0.51678373)
(0 0.0054287141 0.51594669)
(0 0.0041633714 0.51531993)
(0 0.0029150192 0.51488521)
(0 0.0016784759 0.51463025)
(0 0.00044842751 0.51454811)
(0 -0.00078047168 0.51463677)
(0 -0.0020135702 0.5148991)
(0 -0.0032560885 0.51534297)
(0 -0.0045130884 0.51598168)
(0 -0.0057893471 0.51683471)
(0 -0.0070892675 0.51792895)
(0 -0.0084167247 0.51930042)
(0 -0.0097750026 0.52099697)
(0 -0.011166576 0.52308226)
(0 -0.01259291 0.52564111)
(0 -0.014054867 0.52878393)
(0 -0.01554813 0.53266856)
(0 -0.017092115 0.53773046)
(0 -0.018803149 0.54545135)
(0 -0.020843985 0.55757892)
(0 -0.022358841 0.56507876)
(0 -0.019413295 0.52724732)
(0 -0.0090811065 0.38374301)
(0 0.0007673726 0.13339593)
(0 -0.00060774668 0.12065042)
(0 0.0071280519 0.35817232)
(0 0.019094083 0.51849716)
(0 0.024124312 0.57325983)
(0 0.02338614 0.56977234)
(0 0.021182442 0.5550297)
(0 0.019315109 0.54478586)
(0 0.017745473 0.53838216)
(0 0.016257565 0.53367681)
(0 0.014797005 0.52989906)
(0 0.013367409 0.5268177)
(0 0.011969019 0.52429687)
(0 0.01060115 0.52223161)
(0 0.0092624798 0.52054287)
(0 0.0079509492 0.51917158)
(0 0.0066639836 0.51807326)
(0 0.0053984625 0.5172144)
(0 0.0041508333 0.51657005)
(0 0.0029172147 0.51612222)
(0 0.0016934915 0.51585884)
(0 0.00047539983 0.51577306)
(0 -0.00074136236 0.51586287)
(0 -0.001961093 0.51613108)
(0 -0.0031879513 0.5165854)
(0 -0.0044259127 0.51723889)
(0 -0.005678639 0.51811067)
(0 -0.0069493925 0.51922715)
(0 -0.0082408933 0.52062378)
(0 -0.0095552714 0.52234768)
(0 -0.010893928 0.52446171)
(0 -0.012257289 0.52704948)
(0 -0.013645318 0.53021991)
(0 -0.015054341 0.53414042)
(0 -0.016509349 0.53931023)
(0 -0.018135822 0.547273)
(0 -0.020021469 0.55918501)
(0 -0.021119717 0.56406496)
(0 -0.01775503 0.5206219)
(0 -0.0077602192 0.37396494)
(0 0.0006858262 0.12973861)
(0 -0.0004565161 0.11789934)
(0 0.0062575803 0.34903297)
(0 0.0175279 0.51074094)
(0 0.022851501 0.5711062)
(0 0.022591329 0.57109697)
(0 0.020574553 0.5569702)
(0 0.018769956 0.54645237)
(0 0.01726742 0.53987165)
(0 0.015853156 0.53511317)
(0 0.014462291 0.53130905)
(0 0.013094615 0.52820147)
(0 0.011750352 0.52565407)
(0 0.010429302 0.52356299)
(0 0.0091306438 0.52184972)
(0 0.0078530258 0.52045573)
(0 0.0065946863 0.51933707)
(0 0.0053533757 0.51846069)
(0 0.0041264453 0.51780203)
(0 0.0029109282 0.5173434)
(0 0.0017036274 0.51707291)
(0 0.00050119488 0.51698381)
(0 -0.0006997553 0.51707412)
(0 -0.0019025994 0.51734655)
(0 -0.0031105736 0.51780866)
(0 -0.0043267235 0.51847324)
(0 -0.0055537778 0.51935907)
(0 -0.0067940736 0.52049206)
(0 -0.0080494347 0.52190711)
(0 -0.009321143 0.52365068)
(0 -0.01060988 0.52578494)
(0 -0.011915433 0.52839244)
(0 -0.013237363 0.53158144)
(0 -0.014573545 0.53553282)
(0 -0.0159549 0.54081072)
(0 -0.017510443 0.54897865)
(0 -0.019249459 0.56052053)
(0 -0.019970924 0.56267187)
(0 -0.016291383 0.51403641)
(0 -0.0067115057 0.36500055)
(0 0.00058500025 0.12660631)
(0 -0.00032789578 0.11542426)
(0 0.0055777593 0.34068996)
(0 0.01614673 0.5031813)
(0 0.02167463 0.56863417)
(0 0.021839239 0.57212683)
(0 0.020007355 0.55879041)
(0 0.018259683 0.54805836)
(0 0.016810397 0.54129718)
(0 0.015458101 0.53648295)
(0 0.014128402 0.5326571)
(0 0.012816405 0.52952982)
(0 0.011521969 0.52696239)
(0 0.010245097 0.52485172)
(0 0.0089852081 0.52311969)
(0 0.0077414088 0.52170816)
(0 0.0065125209 0.52057359)
(0 0.0052969624 0.51968335)
(0 0.0040928082 0.51901322)
(0 0.0028978465 0.51854577)
(0 0.0017096541 0.51826931)
(0 0.00052566592 0.51817718)
(0 -0.00065671665 0.5182674)
(0 -0.0018400783 0.51854264)
(0 -0.0030268701 0.51901026)
(0 -0.0042193585 0.51968281)
(0 -0.0054195091 0.5205787)
(0 -0.0066289286 0.52172345)
(0 -0.0078487668 0.5231514)
(0 -0.0090797122 0.52490852)
(0 -0.010322004 0.52705635)
(0 -0.011575106 0.52967664)
(0 -0.012838544 0.53287802)
(0 -0.014112432 0.53685852)
(0 -0.01543347 0.54224531)
(0 -0.016928492 0.55057823)
(0 -0.018528071 0.56160919)
(0 -0.018911754 0.56096997)
(0 -0.015001525 0.50755231)
(0 -0.0058803665 0.35677315)
(0 0.00048063802 0.12387232)
(0 -0.00022321775 0.11316072)
(0 0.0050381065 0.3330483)
(0 0.014924479 0.4958491)
(0 0.020585454 0.56590616)
(0 0.021125732 0.57288581)
(0 0.019477126 0.5604948)
(0 0.017783623 0.54961264)
(0 0.016376742 0.54267015)
(0 0.015076432 0.53779566)
(0 0.013800266 0.53395033)
(0 0.012538157 0.53080795)
(0 0.011289333 0.5282254)
(0 0.010053796 0.52609998)
(0 0.0088310261 0.52435378)
(0 0.0076204029 0.52292887)
(0 0.0064211479 0.52178204)
(0 0.0052321773 0.52088097)
(0 0.0040521332 0.52020175)
(0 0.0028794147 0.51972717)
(0 0.0017122389 0.51944571)
(0 0.00054869637 0.51935081)
(0 -0.00061314756 0.51944048)
(0 -0.0017752114 0.51971732)
(0 -0.0029392924 0.52018855)
(0 -0.0041070172 0.52086645)
(0 -0.0052797424 0.52176916)
(0 -0.0064585127 0.52292178)
(0 -0.007643991 0.52435825)
(0 -0.008836475 0.52612411)
(0 -0.010035974 0.52828047)
(0 -0.011241856 0.5309085)
(0 -0.012453894 0.53411844)
(0 -0.013674906 0.53812863)
(0 -0.014946825 0.54362475)
(0 -0.016388885 0.55207964)
(0 -0.017854975 0.56247303)
(0 -0.017937698 0.55901826)
(0 -0.013863959 0.50121109)
(0 -0.0052201328 0.34920762)
(0 0.00038194494 0.12144181)
(0 -0.00014095332 0.11106535)
(0 0.0046009665 0.32602336)
(0 0.013838468 0.48876163)
(0 0.019575306 0.56297369)
(0 0.020446688 0.5733957)
(0 0.018979655 0.56208627)
(0 0.017339789 0.55112116)
(0 0.015967162 0.54399972)
(0 0.01471048 0.53905946)
(0 0.013481154 0.5351951)
(0 0.012263709 0.53204072)
(0 0.011056523 0.52944665)
(0 0.0098594541 0.52731014)
(0 0.0086719323 0.52555333)
(0 0.0074934744 0.52411836)
(0 0.0063235598 0.52296222)
(0 0.0051614653 0.52205281)
(0 0.0040062678 0.52136646)
(0 0.0028568514 0.52088617)
(0 0.0017119533 0.52060054)
(0 0.00057019993 0.52050309)
(0 -0.00056979021 0.52059183)
(0 -0.0017093858 0.52086929)
(0 -0.0028498546 0.52134255)
(0 -0.0039923064 0.5220237)
(0 -0.0051376228 0.52293059)
(0 -0.0062864301 0.52408801)
(0 -0.007439055 0.52552958)
(0 -0.0085955622 0.52730053)
(0 -0.0097558837 0.52946172)
(0 -0.010919456 0.53209402)
(0 -0.0120865 0.53531054)
(0 -0.013262812 0.53935259)
(0 -0.014494717 0.54495735)
(0 -0.015888981 0.55348897)
(0 -0.017226504 0.56313201)
(0 -0.01704218 0.55686562)
(0 -0.012858243 0.49503945)
(0 -0.0046922594 0.34223324)
(0 0.00029375047 0.11924498)
(0 -7.8193015e-05 0.10910909)
(0 0.004238924 0.31954102)
(0 0.012869417 0.48192675)
(0 0.018635973 0.55987944)
(0 0.019798406 0.57367642)
(0 0.018510781 0.56356665)
(0 0.01692554 0.55258764)
(0 0.015581318 0.54529305)
(0 0.014361375 0.54028129)
(0 0.013173105 0.53639699)
(0 0.0119957 0.53323251)
(0 0.010826505 0.53062948)
(0 0.0096651319 0.5284846)
(0 0.0085108981 0.5267199)
(0 0.007363364 0.52527747)
(0 0.0062221602 0.52411435)
(0 0.0050868152 0.52319862)
(0 0.0039567311 0.52250675)
(0 0.0028311685 0.5220219)
(0 0.0017092787 0.52173279)
(0 0.00059012443 0.52163298)
(0 -0.00052723411 0.52172049)
(0 -0.0016437207 0.52199779)
(0 -0.002760173 0.52247185)
(0 -0.0038772984 0.52315456)
(0 -0.0049956181 0.52406356)
(0 -0.0061154565 0.52522341)
(0 -0.007236924 0.52666749)
(0 -0.0083599691 0.52844086)
(0 -0.0094845506 0.53060425)
(0 -0.010610287 0.5332386)
(0 -0.011737994 0.53646117)
(0 -0.012876543 0.54053817)
(0 -0.014075605 0.54624925)
(0 -0.015425323 0.55481082)
(0 -0.016638419 0.56360404)
(0 -0.016217772 0.55455234)
(0 -0.011965893 0.48905326)
(0 -0.0042658117 0.33578527)
(0 0.00021803788 0.11723119)
(0 -3.1570402e-05 0.10727234)
(0 0.0039324119 0.3135371)
(0 0.012001137 0.47534594)
(0 0.017760112 0.55665898)
(0 0.019177768 0.5737463)
(0 0.01806668 0.56493725)
(0 0.016538005 0.55401405)
(0 0.015218239 0.54655564)
(0 0.014029435 0.5414669)
(0 0.01287727 0.53756083)
(0 0.011735865 0.53438725)
(0 0.010601369 0.53177702)
(0 0.009473083 0.52962572)
(0 0.008350179 0.52785516)
(0 0.0072321989 0.52640725)
(0 0.0061188471 0.52523898)
(0 0.0050098193 0.52431851)
(0 0.0039047536 0.52362242)
(0 0.0028031972 0.52313396)
(0 0.0017046236 0.52284193)
(0 0.00060844185 0.52273994)
(0 -0.0004859385 0.52282601)
(0 -0.0015790888 0.52310255)
(0 -0.0026715083 0.52357642)
(0 -0.003763597 0.52425939)
(0 -0.0048556104 0.52516893)
(0 -0.0059476653 0.52632942)
(0 -0.0070397468 0.52777412)
(0 -0.0081317714 0.52954803)
(0 -0.0092237912 0.53171187)
(0 -0.010315681 0.534347)
(0 -0.011408957 0.53757616)
(0 -0.012515517 0.54169161)
(0 -0.013687196 0.54750481)
(0 -0.014994139 0.55604859)
(0 -0.01608642 0.56390512)
(0 -0.015456998 0.5521116)
(0 -0.011170724 0.48326069)
(0 -0.0039165548 0.32980562)
(0 0.00015501199 0.11536413)
(0 2.1965375e-06 0.10554147)
(0 0.0036676704 0.3079564)
(0 0.011220112 0.46901638)
(0 0.016941386 0.55334219)
(0 0.018582259 0.57362234)
(0 0.017644008 0.56619917)
(0 0.016174352 0.55540115)
(0 0.014876614 0.54779159)
(0 0.013714448 0.54262107)
(0 0.01259417 0.53869074)
(0 0.011485262 0.53550836)
(0 0.010382533 0.53289208)
(0 0.0092849212 0.53073574)
(0 0.0081914484 0.52896081)
(0 0.0071015974 0.52750889)
(0 0.0060150919 0.52633688)
(0 0.0049317308 0.52541291)
(0 0.0038513176 0.52471361)
(0 0.0027736111 0.52422229)
(0 0.0016983302 0.52392782)
(0 0.00062515172 0.52382381)
(0 -0.00044624253 0.52390829)
(0 -0.0015161509 0.52418361)
(0 -0.0025848148 0.52465657)
(0 -0.003652405 0.52533884)
(0 -0.004718988 0.52624775)
(0 -0.0057845469 0.52740759)
(0 -0.0068490092 0.52885157)
(0 -0.0079123174 0.53062474)
(0 -0.0089746542 0.53278796)
(0 -0.010036196 0.53542338)
(0 -0.011099239 0.53866042)
(0 -0.012178536 0.54281782)
(0 -0.013326832 0.5487269)
(0 -0.014591684 0.55720488)
(0 -0.015566462 0.56404958)
(0 -0.014752819 0.54957078)
(0 -0.010458869 0.47766444)
(0 -0.0036258837 0.32424281)
(0 0.00010384253 0.11361788)
(0 2.6027303e-05 0.10390654)
(0 0.0034351072 0.30275162)
(0 0.010515058 0.46293249)
(0 0.01617443 0.54995427)
(0 0.018009906 0.5733204)
(0 0.01723994 0.56735354)
(0 0.015831938 0.55674881)
(0 0.014554977 0.54900386)
(0 0.013415868 0.54374772)
(0 0.0123239 0.53979027)
(0 0.011244459 0.53659886)
(0 0.010170899 0.53397719)
(0 0.0091017597 0.53181674)
(0 0.0080359137 0.53003848)
(0 0.0069727629 0.52858366)
(0 0.0059120135 0.52740896)
(0 0.00485352 0.52648243)
(0 0.0037971954 0.52578071)
(0 0.0027429502 0.52528714)
(0 0.0016906849 0.5249906)
(0 0.00064027806 0.52488472)
(0 -0.00040838177 0.52496752)
(0 -0.0014553867 0.52524131)
(0 -0.0025007874 0.52571283)
(0 -0.0035445891 0.52639369)
(0 -0.004586731 0.52730115)
(0 -0.0056271188 0.52845945)
(0 -0.0066656707 0.52990184)
(0 -0.0077023928 0.5316735)
(0 -0.0087376155 0.53383554)
(0 -0.0097718439 0.53647128)
(0 -0.010808206 0.539718)
(0 -0.011864054 0.54392056)
(0 -0.012991757 0.54991727)
(0 -0.014214442 0.55828165)
(0 -0.015074921 0.5640503)
(0 -0.014098896 0.54695255)
(0 -0.0098186088 0.47226355)
(0 -0.0033797555 0.31905168)
(0 6.3170573e-05 0.11197398)
(0 4.2370816e-05 0.10235981)
(0 0.003228043 0.29788219)
(0 0.0098765203 0.45708691)
(0 0.01545472 0.54651658)
(0 0.017459181 0.57285535)
(0 0.016852149 0.56840172)
(0 0.015508376 0.55805638)
(0 0.014251831 0.55019451)
(0 0.013132958 0.54485004)
(0 0.012066267 0.54086243)
(0 0.011013675 0.53766137)
(0 0.0099669907 0.53503464)