/*--------------------------------*- C++ -*----------------------------------*\
  =========                 |
  \\      /  F ield         | OpenFOAM: The Open Source CFD Toolbox
   \\    /   O peration     | Website:  https://openfoam.org
    \\  /    A nd           | Version:  10
     \\/     M anipulation  |
\*---------------------------------------------------------------------------*/
FoamFile
{
    format      ascii;
    class       surfaceScalarField;
    location    "0.03";
    object      phi;
}
// * * * * * * * * * * * * * * * * * * * * * * * * * * * * * * * * * * * * * //

dimensions      [1 0 -1 0 0 0 0];

internalField   nonuniform List<scalar> 
7860
(
4.2978452e-08
5.2572958e-07
1.2100918e-08
5.9958536e-07
6.9580786e-09
5.738506e-07
5.4073752e-09
5.7025842e-07
4.1065955e-09
5.7000847e-07
3.1957728e-09
5.6961849e-07
2.5561413e-09
5.6934728e-07
2.0778854e-09
5.6918589e-07
1.7084563e-09
5.6907705e-07
1.4160441e-09
5.6900002e-07
1.17905e-09
5.689446e-07
9.8276172e-10
5.6890389e-07
8.1685917e-10
5.6887349e-07
6.7386425e-10
5.6885058e-07
5.4821065e-10
5.6883324e-07
4.3564239e-10
5.6882015e-07
3.3280938e-10
5.6881041e-07
2.3698734e-10
5.688034e-07
1.4587627e-10
5.6879869e-07
5.7449258e-11
5.68796e-07
-3.0172102e-11
5.687952e-07
-1.1883017e-10
5.6879623e-07
-2.1042732e-10
5.6879917e-07
-3.0703467e-10
5.6880418e-07
-4.1102811e-10
5.6881157e-07
-5.2524911e-10
5.688218e-07
-6.5322526e-10
5.6883556e-07
-7.9948323e-10
5.6885384e-07
-9.7000878e-10
5.6887812e-07
-1.1729517e-09
5.6891054e-07
-1.4197925e-09
5.6895444e-07
-1.7272441e-09
5.6901506e-07
-2.1198742e-09
5.6910025e-07
-2.6377343e-09
5.6922549e-07
-3.3635841e-09
5.694335e-07
-4.3993892e-09
5.6974347e-07
-5.6727351e-09
5.6998104e-07
-9.4383825e-09
5.7247337e-07
-3.2635938e-08
5.9190533e-07
5.36072e-07
5.8461915e-08
4.6726767e-07
3.6842387e-08
6.2120489e-07
2.2751748e-08
5.8794124e-07
1.6273327e-08
5.7673684e-07
1.2268323e-08
5.7401347e-07
9.5871126e-09
5.722997e-07
7.6660235e-09
5.7126837e-07
6.2282245e-09
5.7062369e-07
5.12078e-09
5.701845e-07
4.2444868e-09
5.6987632e-07
3.5342148e-09
5.6965487e-07
2.9459474e-09
5.6949215e-07
2.4487301e-09
5.6937071e-07
2.0201426e-09
5.6927917e-07
1.6435075e-09
5.6920987e-07
1.3060743e-09
5.6915758e-07
9.9780702e-10
5.6911868e-07
7.1054459e-10
5.6909066e-07
4.3739692e-10
5.6907183e-07
1.722872e-10
5.6906111e-07
-9.0415789e-11
5.690579e-07
-3.562203e-10
5.6906204e-07
-6.3082167e-10
5.6907377e-07
-9.20433e-10
5.6909379e-07
-1.2321715e-09
5.6912331e-07
-1.5745488e-09
5.6916418e-07
-1.9581321e-09
5.6921914e-07
-2.3964818e-09
5.6929219e-07
-2.9075382e-09
5.6938917e-07
-3.5157383e-09
5.6951874e-07
-4.2554275e-09
5.6969413e-07
-5.1769044e-09
5.6993654e-07
-6.3563928e-09
5.7027974e-07
-7.9110353e-09
5.7078014e-07
-1.0050459e-08
5.7157292e-07
-1.3211829e-08
5.7290484e-07
-1.8216914e-08
5.7498612e-07
-2.8394863e-08
5.8265132e-07
-4.5477573e-08
6.0898804e-07
4.9059442e-07
5.9019212e-08
4.0824846e-07
5.0172071e-08
6.3005203e-07
3.3278509e-08
6.048348e-07
2.4744913e-08
5.8527044e-07
1.9278581e-08
5.794798e-07
1.5303012e-08
5.7627527e-07
1.2339995e-08
5.7423139e-07
1.0085937e-08
5.7287775e-07
8.3290158e-09
5.7194142e-07
6.9261163e-09
5.7127922e-07
5.7814687e-09
5.7079952e-07
4.8285817e-09
5.7044504e-07
4.0198558e-09
5.7017944e-07
3.3204166e-09
5.6997861e-07
2.7040783e-09
5.6982621e-07
2.1506643e-09
5.69711e-07
1.6441923e-09
5.6962515e-07
1.1715976e-09
5.6956326e-07
7.2180295e-10
5.6952163e-07
2.8500798e-10
5.6949791e-07
-1.4788599e-10
5.6949079e-07
-5.8578074e-10
5.6949993e-07
-1.0378734e-09
5.6952587e-07
-1.5141748e-09
5.695701e-07
-2.0261106e-09
5.6963525e-07
-2.5872781e-09
5.6972535e-07
-3.2144554e-09
5.6984632e-07
-3.9290082e-09
5.7000675e-07
-4.758935e-09
5.702191e-07
-5.7419254e-09
5.7050173e-07
-6.9299974e-09
5.708822e-07
-8.3972002e-09
5.7140374e-07
-1.025312e-08
5.7213566e-07
-1.2659041e-08
5.7318606e-07
-1.5845238e-08
5.7475912e-07
-2.0174303e-08
5.7723391e-07
-2.6643028e-08
5.8145485e-07
-3.8849047e-08
5.9485734e-07
-4.7561937e-08
6.1770093e-07
4.4303249e-07
5.4483609e-08
3.5376485e-07
5.7348775e-08
6.2718687e-07
4.0347252e-08
6.2183632e-07
3.06299e-08
5.9498779e-07
2.4559558e-08
5.8555015e-07
1.9903839e-08
5.8093099e-07
1.6278927e-08
5.778563e-07
1.3441849e-08
5.7571482e-07
1.1182844e-08
5.7420042e-07
9.3509465e-09
5.7311111e-07
7.839048e-09
5.7231142e-07
6.5690877e-09
5.71715e-07
5.4834773e-09
5.7126505e-07
4.5390829e-09
5.70923e-07
3.7029329e-09
5.7066236e-07
2.9492586e-09
5.7046467e-07
2.25741e-09
5.70317e-07
1.6103457e-09
5.7021032e-07
9.9350664e-10
5.7013847e-07
3.9394011e-10
5.7009747e-07
-2.0041977e-10
5.7008515e-07
-8.0138924e-10
5.701009e-07
-1.4211556e-09
5.7014563e-07
-2.0729284e-09
5.7022187e-07
-2.7716864e-09
5.70334e-07
-3.5351009e-09
5.7048876e-07
-4.3847379e-09
5.7069596e-07
-5.3476825e-09
5.7096969e-07
-6.4588059e-09
5.7133022e-07
-7.7640136e-09
5.7180694e-07
-9.3247681e-09
5.7244296e-07
-1.1224363e-08
5.7330334e-07
-1.3578612e-08
5.7448991e-07
-1.6547555e-08
5.76155e-07
-2.0319095e-08
5.7853066e-07
-2.5153709e-08
5.8206852e-07
-3.2409074e-08
5.8871021e-07
-4.5089391e-08
6.0753765e-07
-4.6058135e-08
6.1866968e-07
3.9697435e-07
4.7814655e-08
3.0595019e-07
6.009665e-08
6.1490487e-07
4.5376501e-08
6.3655647e-07
3.4766931e-08
6.0559736e-07
2.8320997e-08
5.9199608e-07
2.3364508e-08
5.8588748e-07
1.9392697e-08
5.8182811e-07
1.6198293e-08
5.7890923e-07
1.3596594e-08
5.7680212e-07
1.1448949e-08
5.7525876e-07
9.6510244e-09
5.7410934e-07
8.1232045e-09
5.7324282e-07
6.8047663e-09
5.7258349e-07
5.6489102e-09
5.7207886e-07
4.6190101e-09
5.7169226e-07
3.6858903e-09
5.7139779e-07
2.8257975e-09
5.7117709e-07
2.0188711e-09
5.7101725e-07
1.2479658e-09
5.7090937e-07
4.9771008e-10
5.7084773e-07
-2.4628173e-10
5.7082914e-07
-9.9811549e-10
5.7085273e-07
-1.7723068e-09
5.7091982e-07
-2.5844996e-09
5.7103406e-07
-3.4522772e-09
5.7120178e-07
-4.3961401e-09
5.7143262e-07
-5.4407387e-09
5.7174056e-07
-6.6164722e-09
5.7214543e-07
-7.9615975e-09
5.7267535e-07
-9.5250822e-09
5.7337042e-07
-1.1370361e-08
5.7428824e-07
-1.3579607e-08
5.7551258e-07
-1.6260448e-08
5.7717075e-07
-1.9556436e-08
5.7945099e-07
-2.3632371e-08
5.8260659e-07
-2.8793306e-08
5.8722945e-07
-3.6719049e-08
5.9663596e-07
-4.8450679e-08
6.1926928e-07
-4.2746432e-08
6.1296543e-07
3.5422792e-07
4.0256363e-08
2.6569383e-07
5.8993907e-08
5.9616733e-07
4.8325484e-08
6.4722489e-07
3.7522592e-08
6.1640025e-07
3.0871822e-08
5.9864685e-07
2.5847503e-08
5.9091179e-07
2.1741181e-08
5.8593443e-07
1.8361019e-08
5.8228939e-07
1.5552981e-08
5.7961016e-07
1.3195042e-08
5.776167e-07
1.1191458e-08
5.7611293e-07
9.4671219e-09
5.7496716e-07
7.9631045e-09
5.740875e-07
6.6326748e-09
5.7340929e-07
5.4383416e-09
5.7288659e-07
4.3495972e-09
5.7248653e-07
3.3411427e-09
5.7218555e-07
2.3914955e-09
5.7196689e-07
1.4818762e-09
5.7181899e-07
5.9529225e-10
5.7173431e-07
-2.8424813e-10
5.7170868e-07
-1.1724488e-09
5.7174094e-07
-2.0854274e-09
5.718328e-07
-3.04044e-09
5.7198907e-07
-4.0566812e-09
5.7221802e-07
-5.1562246e-09
5.7253217e-07
-6.365168e-09
5.729495e-07
-7.7150601e-09
5.7349532e-07
-9.2446883e-09
5.7420498e-07
-1.1002371e-08
5.7512811e-07
-1.304903e-08
5.763349e-07
-1.5461581e-08
5.7792513e-07
-1.8337079e-08
5.8004625e-07
-2.1800107e-08
5.8291401e-07
-2.6003013e-08
5.868095e-07
-3.1357559e-08
5.92584e-07
-3.9568005e-08
6.048464e-07
-4.9080751e-08
6.2878203e-07
-3.8202021e-08
6.020867e-07
3.160259e-07
3.2816912e-08
2.3287692e-07
5.5230232e-08
5.7375401e-07
4.921216e-08
6.5324296e-07
3.9006111e-08
6.266063e-07
3.2380541e-08
6.0527242e-07
2.7478681e-08
5.9581366e-07
2.3404915e-08
5.900082e-07
1.9974527e-08
5.8571978e-07
1.7071321e-08
5.8251336e-07
1.4593129e-08
5.8009489e-07
1.245603e-08
5.7825002e-07
1.0592791e-08
5.768304e-07
8.9492691e-09
5.7573103e-07
7.4813707e-09
5.7487719e-07
6.1528644e-09
5.742151e-07
4.9336149e-09
5.7370578e-07
3.7981382e-09
5.7332102e-07
2.7244263e-09
5.7304061e-07
1.6929738e-09
5.7285044e-07
6.8594968e-10
5.7274134e-07
-3.1353137e-10
5.7270817e-07
-1.3220794e-09
5.7274948e-07
-2.3566943e-09
5.7286742e-07
-3.4354456e-09
5.7306783e-07
-4.5782091e-09
5.7336079e-07
-5.8075101e-09
5.7376147e-07
-7.1495152e-09
5.742915e-07
-8.6352305e-09
5.7498103e-07
-1.030195e-08
5.758717e-07
-1.219502e-08
5.7702118e-07
-1.4370257e-08
5.7851013e-07
-1.6896865e-08
5.8045174e-07
-1.9859236e-08
5.8300862e-07
-2.3357287e-08
5.8641207e-07
-2.7528711e-08
5.9098092e-07
-3.2897004e-08
5.9795229e-07
-4.089638e-08
6.1284578e-07
-4.7551872e-08
6.3543752e-07
-3.3086604e-08
5.8762143e-07
2.8293929e-07
2.6149705e-08
2.0672721e-07
5.0115628e-08
5.4978808e-07
4.8475e-08
6.5488359e-07
3.9442104e-08
6.356392e-07
3.3027607e-08
6.1168692e-07
2.8373255e-08
6.0046801e-07
2.4461598e-08
5.9391985e-07
2.1091945e-08
5.8908943e-07
1.818508e-08
5.8542023e-07
1.5662124e-08
5.8261785e-07
1.345389e-08
5.8045826e-07
1.150325e-08
5.7878104e-07
9.7627495e-09
5.7747153e-07
8.1926583e-09
5.7644728e-07
6.7595147e-09
5.7564824e-07
5.4348443e-09
5.7503045e-07
4.1940683e-09
5.745618e-07
3.0155798e-09
5.7421909e-07
1.8799474e-09
5.7398608e-07
7.6921311e-10
5.7385207e-07
-3.3374179e-10
5.7381112e-07
-1.4457893e-09
5.7386153e-07
-2.5841469e-09
5.7400577e-07
-3.7669785e-09
5.7425066e-07
-5.0140318e-09
5.7460784e-07
-6.3473513e-09
5.7509479e-07
-7.7920864e-09
5.7573624e-07
-9.3774347e-09
5.7656638e-07
-1.113775e-08
5.7763201e-07
-1.3113792e-08
5.7899722e-07
-1.5354353e-08
5.807507e-07
-1.7918409e-08
5.830158e-07
-2.0874748e-08
5.8596496e-07
-2.4296929e-08
5.8983425e-07
-2.8318179e-08
5.9500217e-07
-3.3554675e-08
6.0318879e-07
-4.0944594e-08
6.202357e-07
-4.4660865e-08
6.3915379e-07
-2.798332e-08
5.7094389e-07
2.5495597e-07
2.0519617e-08
1.8620759e-07
4.4566611e-08
5.2574109e-07
4.6634528e-08
6.5281567e-07
3.9116763e-08
6.4315696e-07
3.3038929e-08
6.1776475e-07
2.8681364e-08
6.0482557e-07
2.5009002e-08
5.9759221e-07
2.1779302e-08
5.9231913e-07
1.8938663e-08
5.8826087e-07
1.643131e-08
5.851252e-07
1.4203749e-08
5.8268582e-07
1.2209894e-08
5.8077489e-07
1.0410027e-08
5.7927139e-07
8.7698459e-09
5.7808746e-07
7.2596545e-09
5.7715844e-07
5.8535447e-09
5.7643656e-07
4.5286565e-09
5.7588669e-07
3.264513e-09
5.7548324e-07
2.0424137e-09
5.7520818e-07
8.448782e-10
5.7504961e-07
-3.4487245e-10
5.7500087e-07
-1.5434092e-09
5.7506007e-07
-2.7675924e-09
5.7522996e-07
-4.0350708e-09
5.7551814e-07
-5.3648025e-09
5.7593757e-07
-6.7776191e-09
5.765076e-07
-8.2968386e-09
5.7725546e-07
-9.9489447e-09
5.7821849e-07
-1.176435e-08
5.7944742e-07
-1.3778176e-08
5.8101104e-07
-1.6031128e-08
5.8300365e-07
-1.8570743e-08
5.8555541e-07
-2.1449561e-08
5.8884378e-07
-2.472009e-08
5.9310478e-07
-2.8528284e-08
5.9881037e-07
-3.3535671e-08
6.0819618e-07
-4.0037836e-08
6.2673786e-07
-4.1038532e-08
6.4015449e-07
-2.3246554e-08
5.5315191e-07
2.3170942e-07
1.595354e-08
1.7025405e-07
3.9122654e-08
5.0257198e-07
4.41155e-08
6.4782283e-07
3.826446e-08
6.49008e-07
3.261686e-08
6.2341235e-07
2.8560358e-08
6.0888207e-07
2.5158118e-08
6.0099445e-07
2.2114183e-08
5.9536307e-07
1.9386246e-08
5.9098881e-07
1.6938423e-08
5.8757302e-07
1.4731699e-08
5.8489254e-07
1.2730536e-08
5.8277605e-07
1.0903061e-08
5.8109887e-07
9.2207996e-09
5.7976972e-07
7.658328e-09
5.7872091e-07
6.1928469e-09
5.7790205e-07
4.8037587e-09
5.7727578e-07
3.4722407e-09
5.7681476e-07
2.1808229e-09
5.7649959e-07
9.1298113e-10
5.7631745e-07
-3.4725913e-10
5.7626111e-07
-1.6157077e-09
5.7632852e-07
-2.9084012e-09
5.7652265e-07
-4.2419923e-09
5.7685173e-07
-5.6341462e-09
5.7732972e-07
-7.1039534e-09
5.7797741e-07
-8.6723542e-09
5.7882386e-07
-1.0362571e-08
5.799087e-07
-1.2200564e-08
5.8128541e-07
-1.4215445e-08
5.8302592e-07
-1.6439827e-08
5.8522803e-07
-1.8910253e-08
5.8802584e-07
-2.1664449e-08
5.9159797e-07
-2.474156e-08
5.9618189e-07
-2.8311612e-08
6.0238042e-07
-3.3016527e-08
6.1290109e-07
-3.8458139e-08
6.3217947e-07
-3.7113929e-08
6.3881028e-07
-1.9052569e-08
5.3509055e-07
2.1265685e-07
1.2361365e-08
1.5789269e-07
3.4091455e-08
4.8084189e-07
4.1248834e-08
6.4066545e-07
3.7060965e-08
6.5319587e-07
3.1911764e-08
6.2856155e-07
2.8142643e-08
6.126512e-07
2.5011681e-08
6.0412542e-07
2.2173645e-08
5.982011e-07
1.9584983e-08
5.9357747e-07
1.7225388e-08
5.8993262e-07
1.5068207e-08
5.8704972e-07
1.308714e-08
5.8475712e-07
1.125756e-08
5.8292845e-07
9.5566422e-09
5.8147064e-07
7.9633038e-09
5.8031425e-07
6.4580692e-09
5.7940728e-07
5.0228938e-09
5.7871095e-07
3.6409347e-09
5.7819672e-07
2.2962943e-09
5.7784423e-07
9.7375181e-10
5.7763999e-07
-3.4151493e-10
5.7757638e-07
-1.6642064e-09
5.7765121e-07
-3.0091866e-09
5.7786763e-07
-4.3917641e-09
5.782343e-07
-5.8279678e-09
5.7876593e-07
-7.3348193e-09
5.7948426e-07
-8.9305921e-09
5.8041963e-07
-1.063504e-08
5.8161315e-07
-1.2469606e-08
5.8311998e-07
-1.4457591e-08
5.8501391e-07
-1.6624173e-08
5.8739461e-07
-1.8996108e-08
5.9039777e-07
-2.159849e-08
5.9420035e-07
-2.4464263e-08
5.9904766e-07
-2.779023e-08
6.0570639e-07
-3.2136103e-08
6.1724696e-07
-3.644594e-08
6.3648931e-07
-3.318794e-08
6.3555228e-07
-1.5468236e-08
5.1737085e-07
1.9718861e-07
9.6014896e-09
1.482912e-07
2.9627418e-08
4.6081596e-07
3.8285549e-08
6.3200732e-07
3.5647139e-08
6.5583428e-07
3.1034926e-08
6.3317377e-07
2.7531766e-08
6.1615435e-07
2.4655314e-08
6.0700187e-07
2.2025742e-08
6.0083067e-07
1.9588318e-08
5.9601489e-07
1.7333492e-08
5.9218744e-07
1.5244705e-08
5.8913851e-07
1.3303382e-08
5.8669844e-07
1.1491191e-08
5.8474064e-07
9.7904227e-09
5.8317141e-07
8.1840922e-09
5.8192058e-07
6.6560037e-09
5.8093537e-07
5.1907416e-09
5.8017621e-07
3.7735944e-09
5.7961386e-07
2.3904332e-09
5.792274e-07
1.0275612e-09
5.7900286e-07
-3.2845775e-10
5.789324e-07
-1.6909772e-09
5.7901373e-07
-3.0734556e-09
5.7925011e-07
-4.4896365e-09
5.7965048e-07
-5.953717e-09
5.8023001e-07
-7.4805008e-09
5.8101105e-07
-9.0855207e-09
5.8202465e-07
-1.0785114e-08
5.8331275e-07
-1.2596451e-08
5.8493131e-07
-1.4537532e-08
5.8695499e-07
-1.6627009e-08
5.8948409e-07
-1.8883253e-08
5.9265402e-07
-2.1321356e-08
5.9663846e-07
-2.3974397e-08
6.017007e-07
-2.7062065e-08
6.0879406e-07
-3.1013033e-08
6.2119793e-07
-3.4206547e-08
6.3968282e-07
-2.9465049e-08
6.3081078e-07
-1.2489514e-08
5.0039531e-07
1.846991e-07
7.5207723e-09
1.4077043e-07
2.5775216e-08
4.4256152e-07
3.5396565e-08
6.2238597e-07
3.4134182e-08
6.5709666e-07
3.0070387e-08
6.3723756e-07
2.6808302e-08
6.1941644e-07
2.4158787e-08
6.0965138e-07
2.1728052e-08
6.0326141e-07
1.9443269e-08
5.9829968e-07
1.7300563e-08
5.9433015e-07
1.5291164e-08
5.9114791e-07
1.3402705e-08
5.885869e-07
1.1622073e-08
5.8652127e-07
9.9359657e-09
5.8485751e-07
8.3310796e-09
5.8352546e-07
6.7942766e-09
5.8247217e-07
5.3126883e-09
5.816578e-07
3.8737463e-09
5.810528e-07
2.4651624e-09
5.8063598e-07
1.0748733e-09
5.8039315e-07
-3.0904145e-10
5.8031631e-07
-1.698453e-09
5.8040314e-07
-3.1052852e-09
5.8065694e-07
-4.5416084e-09
5.8108681e-07
-6.0197191e-09
5.8170812e-07
-7.5521939e-09
5.8254352e-07
-9.15191e-09
5.8362437e-07
-1.0832011e-08
5.8499285e-07
-1.2605814e-08
5.8670512e-07
-1.4486695e-08
5.8883587e-07
-1.6487786e-08
5.9148518e-07
-1.86206e-08
5.9478683e-07
-2.089326e-08
5.9891112e-07
-2.3344241e-08
6.0415168e-07
-2.620752e-08
6.1165734e-07
-2.974843e-08
6.2473884e-07
-3.1900366e-08
6.4183476e-07
-2.6064678e-08
6.2497509e-07
-1.006914e-08
4.8439977e-07
1.7462996e-07
5.9767156e-09
1.3479371e-07
2.2510696e-08
4.2602754e-07
3.2681966e-08
6.122147e-07
3.2601921e-08
6.5717671e-07
2.9078155e-08
6.4076133e-07
2.6032666e-08
6.2246193e-07
2.3577688e-08
6.1210636e-07
2.1328269e-08
6.0551083e-07
1.9190024e-08
6.0043792e-07
1.7159973e-08
5.963602e-07
1.5234879e-08
5.9307301e-07
1.3407122e-08
5.9041466e-07
1.1667716e-08
5.8826068e-07
1.0007e-08
5.8651823e-07
8.4148358e-09
5.8511763e-07
6.8808188e-09
5.8400619e-07
5.39444e-09
5.8314418e-07
3.9451823e-09
5.8250206e-07
2.522574e-09
5.8205859e-07
1.1162029e-09
5.8179952e-07
-2.8429448e-10
5.8171681e-07
-1.6892586e-09
5.818081e-07
-3.1090387e-09
5.8207672e-07
-4.5540168e-09
5.8253179e-07
-6.0346167e-09
5.8318872e-07
-7.5612847e-09
5.8407019e-07
-9.1444355e-09
5.8520752e-07
-1.0794348e-08
5.8664276e-07
-1.2521003e-08
5.8843177e-07
-1.4333919e-08
5.9064879e-07
-1.6241761e-08
5.9339302e-07
-1.825077e-08
5.9679584e-07
-2.0365209e-08
6.0102555e-07
-2.2632541e-08
6.0641901e-07
-2.528959e-08
6.1431438e-07
-2.8421778e-08
6.2787103e-07
-2.9639497e-08
6.4305248e-07
-2.3039979e-08
6.1837558e-07
-8.138851e-09
4.6949864e-07
1.6649111e-07
4.8456537e-09
1.2994806e-07
1.9774659e-08
4.1109853e-07
3.0189845e-08
6.0179951e-07
3.1102238e-08
6.5626432e-07
2.8097195e-08
6.4376637e-07
2.5246885e-08
6.2531224e-07
2.2954083e-08
6.1439916e-07
2.0864446e-08
6.0760046e-07
1.8861866e-08
6.024405e-07
1.6940268e-08
5.982818e-07
1.5099891e-08
5.9491338e-07
1.333655e-08
5.92178e-07
1.1644367e-08
5.8995286e-07
1.0016555e-08
5.8814604e-07
8.4455996e-09
5.8668858e-07
6.923452e-09
5.8552834e-07
5.4417087e-09
5.8462592e-07
3.9917439e-09
5.8395203e-07
2.5648061e-09
5.8348553e-07
1.1520815e-09
5.8321225e-07
-2.5526584e-10
5.8312416e-07
-1.6660674e-09
5.832189e-07
-3.0891287e-09
5.8349978e-07
-4.5332001e-09
5.8397586e-07
-6.0069338e-09
5.8466245e-07
-7.5188143e-09
5.8558207e-07
-9.0770557e-09
5.8676576e-07
-1.0689461e-08
5.8825516e-07
-1.236324e-08
5.9010555e-07
-1.4104825e-08
5.9239037e-07
-1.5919445e-08
5.9520764e-07
-1.7809577e-08
5.9868597e-07
-1.9778422e-08
6.029944e-07
-2.1884168e-08
6.0852476e-07
-2.4354213e-08
6.1678443e-07
-2.7090871e-08
6.3060769e-07
-2.7494819e-08
6.4345643e-07
-2.0399803e-08
6.1128056e-07
-6.6236778e-09
4.5572252e-07
1.5986743e-07
4.0243145e-09
1.2592374e-07
1.7494339e-08
3.9762851e-07
2.793433e-08
5.9135952e-07
2.9665746e-08
6.545329e-07
2.7150474e-08
6.4628164e-07
2.4477924e-08
6.2798479e-07
2.2317958e-08
6.1655913e-07
2.0365553e-08
6.0955287e-07
1.8485301e-08
6.0432075e-07
1.6665038e-08
6.0010206e-07
1.4906699e-08
5.9667172e-07
1.3208435e-08
5.9387627e-07
1.1566591e-08
5.915947e-07
9.9765599e-09
5.8973607e-07
8.4329191e-09
5.8823222e-07
6.9295849e-09
5.8703167e-07
5.4599756e-09
5.8609553e-07
4.017154e-09
5.8539485e-07
2.5939454e-09
5.8490873e-07
1.1830304e-09
5.8462316e-07
-2.229809e-10
5.8453017e-07
-1.6314859e-09
5.8462741e-07
-3.0498302e-09
5.8491813e-07
-4.4852413e-09
5.8541127e-07
-5.9447507e-09
5.8612196e-07
-7.4350933e-09
5.8707241e-07
-8.9625813e-09
5.8829325e-07
-1.0532953e-08
5.8982554e-07
-1.2151196e-08
5.9172379e-07
-1.3821385e-08
5.9406056e-07
-1.5546231e-08
5.9693249e-07
-1.73258e-08
6.0046554e-07
-1.9164531e-08
6.0483313e-07
-2.1131431e-08
6.1049166e-07
-2.3432946e-08
6.1908594e-07
-2.5795187e-08
6.3296993e-07
-2.5505939e-08
6.4316718e-07
-1.8125889e-08
6.0390051e-07
-5.4499847e-09
4.4304661e-07
1.5441745e-07
3.4293789e-09
1.2249436e-07
1.559562e-08
3.8546226e-07
2.5908848e-08
5.8104629e-07
2.8307913e-08
6.5213384e-07
2.624984e-08
6.4833972e-07
2.3741633e-08
6.30493e-07
2.1689567e-08
6.186112e-07
1.9852739e-08
6.113897e-07
1.8080686e-08
6.0609281e-07
1.6353139e-08
6.0182961e-07
1.4672241e-08
5.9835262e-07
1.3037601e-08
5.9551091e-07
1.1447066e-08
5.9318524e-07
9.8976093e-09
5.9128553e-07
8.3854221e-09
5.8974441e-07
6.9060103e-09
5.8851108e-07
5.4543252e-09
5.8754722e-07
4.0248971e-09
5.8682428e-07
2.6119568e-09
5.8632167e-07
1.2095426e-09
5.8602558e-07
-1.8840694e-10
5.8592812e-07
-1.5879671e-09
5.8602697e-07
-2.9951435e-09
5.863253e-07
-4.4157832e-09
5.8683191e-07
-5.8554773e-09
5.8756166e-07
-7.3194448e-09
5.8853638e-07
-8.812402e-09
5.8978621e-07
-1.0338418e-08
5.9135155e-07
-1.190077e-08
5.9328615e-07
-1.3501807e-08
5.956616e-07
-1.5142507e-08
5.9857319e-07
-1.6821688e-08
6.0214472e-07
-1.8546781e-08
6.0655822e-07
-2.0396403e-08
6.1234128e-07
-2.2546174e-08
6.2123571e-07
-2.4559614e-08
6.3498337e-07
-2.3689808e-08
6.4229737e-07
-1.6184672e-08
5.9639537e-07
-4.5501187e-09
4.3141206e-07
1.4986733e-07
2.9959925e-09
1.1949837e-07
1.4009905e-08
3.7444835e-07
2.4095472e-08
5.7096073e-07
2.7033858e-08
6.4919545e-07
2.5399665e-08
6.4997391e-07
2.3046043e-08
6.3284662e-07
2.1081781e-08
6.2057546e-07
1.9340878e-08
6.131306e-07
1.7663182e-08
6.077705e-07
1.6019226e-08
6.0347356e-07
1.4410145e-08
5.999617e-07
1.2836318e-08
5.9708473e-07
1.1296539e-08
5.9472502e-07
9.788868e-09
5.927932e-07
8.3106985e-09
5.9122258e-07
6.858787e-09
5.8996299e-07
5.4293431e-09
5.8897666e-07
4.0181422e-09
5.8823548e-07
2.6206382e-09
5.8771918e-07
1.2320718e-09
5.8741414e-07
-1.5242861e-10
5.8731262e-07
-1.5377504e-09
5.8741229e-07
-2.9287014e-09
5.8771626e-07
-4.3299092e-09
5.8823312e-07
-5.7457161e-09
5.8897746e-07
-7.180062e-09
5.8997073e-07
-8.6363603e-09
5.912425e-07
-1.0117375e-08
5.9283257e-07
-1.1625116e-08
5.9479389e-07
-1.3160738e-08
5.9719722e-07
-1.4724133e-08
6.0013658e-07
-1.6313843e-08
6.0373443e-07
-1.7941491e-08
6.0818587e-07
-1.9693151e-08
6.1409294e-07
-2.1705761e-08
6.2324832e-07
-2.339773e-08
6.3667534e-07
-2.2047793e-08
6.4094743e-07
-1.453557e-08
5.8888315e-07
-3.8649481e-09
4.2074144e-07
1.4600238e-07
2.6753688e-09
1.16823e-07
1.2677521e-08
3.644462e-07
2.2471423e-08
5.6116682e-07
2.5842193e-08
6.4582468e-07
2.4599538e-08
6.5121656e-07
2.2393859e-08
6.350523e-07
2.050202e-08
6.224673e-07
1.8839961e-08
6.1479266e-07
1.7243744e-08
6.0936672e-07
1.5674403e-08
6.050429e-07
1.413112e-08
6.0150498e-07
1.2614516e-08
5.9860134e-07
1.1123915e-08
5.9621562e-07
9.6580829e-09
5.9425903e-07
8.2152708e-09
5.9266539e-07
6.7931925e-09
5.9138507e-07
5.3890669e-09
5.9038079e-07
3.9997028e-09
5.8962484e-07
2.6215953e-09
5.8909729e-07
1.2510272e-09
5.8878471e-07
-1.1583167e-10
5.8867948e-07
-1.4828262e-09
5.8877929e-07
-2.8537174e-09
5.8908715e-07
-4.2320804e-09
5.8961148e-07
-5.6212004e-09
5.9036658e-07
-7.0239634e-09
5.9137349e-07
-8.4427482e-09
5.9266129e-07
-9.8793328e-09
5.9426915e-07
-1.1334832e-08
5.9624938e-07
-1.2809636e-08
5.9867202e-07
-1.4303064e-08
6.0163001e-07
-1.5814166e-08
6.0524553e-07
-1.735943e-08
6.0973113e-07
-1.9029625e-08
6.1576314e-07
-2.0917236e-08
6.2513593e-07
-2.2314801e-08
6.3807291e-07
-2.0571486e-08
6.3920412e-07
-1.3136678e-08
5.8144834e-07
-3.3447599e-09
4.1094952e-07
1.4265762e-07
2.4319554e-09
1.1439105e-07
1.1548733e-08
3.5532942e-07
2.101318e-08
5.5170238e-07
2.4727974e-08
6.4210989e-07
2.3846309e-08
6.5209823e-07
2.1784374e-08
6.3711423e-07
1.9953828e-08
6.2429784e-07
1.8356288e-08
6.163902e-07
1.6829999e-08
6.1089301e-07
1.532686e-08
6.0654604e-07
1.3843389e-08
6.0298845e-07
1.2380057e-08
6.0006467e-07
1.0936425e-08
5.9765925e-07
9.5116701e-09
5.9568379e-07
8.1046297e-09
5.9407243e-07
6.7137287e-09
5.9277597e-07
5.3369771e-09
5.9175754e-07
3.9720239e-09
5.9098979e-07
2.6162333e-09
5.9045308e-07
1.2667729e-09
5.9013417e-07
-7.9294857e-11
5.9002554e-07
-1.4249189e-09
5.9012491e-07
-2.7729651e-09
5.9043519e-07
-4.1261194e-09
5.9096463e-07
-5.4867915e-09
5.9172726e-07
-6.85702e-09
5.9274372e-07
-8.2383854e-09
5.9404265e-07
-9.6319487e-09
5.9566271e-07
-1.1038233e-08
5.9765567e-07
-1.2457193e-08
6.0009098e-07
-1.3887974e-08
6.0306079e-07
-1.533073e-08
6.0668829e-07
-1.6807035e-08
6.1120744e-07
-1.8409283e-08
6.1736539e-07
-2.0181684e-08
6.2690834e-07
-2.1310466e-08
6.3920169e-07
-1.9247144e-08
6.371408e-07
-1.1948297e-08
5.741495e-07
-2.9490436e-09
4.0195027e-07
1.3970858e-07
2.2406378e-09
1.1215041e-07
1.0583297e-08
3.4698676e-07
1.9698754e-08
5.4258692e-07
2.3684738e-08
6.381239e-07
2.3135573e-08
6.5264739e-07
2.1214921e-08
6.3903488e-07
1.9438133e-08
6.2607463e-07
1.7893459e-08
6.1793487e-07
1.6427023e-08
6.1235944e-07
1.4982453e-08
6.0799061e-07
1.3553116e-08
6.0441779e-07
1.2139042e-08
6.0147874e-07
1.0739824e-08
5.9905847e-07
9.3548424e-09
5.9706877e-07
7.9833102e-09
5.9544396e-07
6.6241633e-09
5.9413512e-07
5.2760176e-09
5.9310568e-07
3.9371917e-09
5.9232862e-07
2.6057613e-09
5.9178451e-07
1.2796305e-09
5.914603e-07
-4.3387329e-11
5.9134856e-07
-1.3654867e-09
5.9144701e-07
-2.6887832e-09
5.9175849e-07
-4.0152268e-09
5.9229108e-07
-5.346518e-09
5.9305855e-07
-6.6840304e-09
5.9408123e-07
-8.0287472e-09
5.9538737e-07
-9.3812332e-09
5.970152e-07
-1.0741654e-08
5.9901609e-07
-1.2109776e-08
6.0145911e-07
-1.3484865e-08
6.0443588e-07
-1.4868614e-08
6.0807204e-07
-1.6287526e-08
6.1262635e-07
-1.783248e-08
6.1891034e-07
-1.949732e-08
6.2857317e-07
-2.0380891e-08
6.4008526e-07
-1.8058773e-08
6.3481868e-07
-1.0934805e-08
5.6702553e-07
-2.6456739e-09
3.9366114e-07
1.370629e-07
2.0842327e-09
1.1006618e-07
9.7493203e-09
3.3932168e-07
1.8508705e-08
5.3382754e-07
2.2705754e-08
6.3392685e-07
2.2462621e-08
6.5289053e-07
2.0681889e-08
6.4081562e-07
1.8954216e-08
6.278023e-07
1.7453185e-08
6.194359e-07
1.603799e-08
6.1377464e-07
1.4645226e-08
6.0938338e-07
1.3264806e-08
6.0579821e-07
1.1896101e-08
6.0284745e-07
1.0538605e-08
6.0041596e-07
9.1917578e-09
5.9841562e-07
7.8549913e-09
5.9678073e-07
6.5275947e-09
5.9546252e-07
5.2086358e-09
5.9442464e-07
3.8969563e-09
5.936403e-07
2.5912034e-09
5.9309026e-07
1.2898831e-09
5.9276162e-07
-8.5717868e-12
5.9264702e-07
-1.3057324e-09
5.9274417e-07
-2.6030981e-09
5.9305585e-07
-3.9020216e-09
5.9359e-07
-5.2036417e-09
5.9436017e-07
-6.5088235e-09
5.9538641e-07
-7.8181195e-09
5.9669667e-07
-9.1317724e-09
5.9832885e-07
-1.0449767e-08
6.0033408e-07
-1.1771854e-08
6.0278119e-07
-1.3097636e-08
6.0576166e-07
-1.4430633e-08
6.0940504e-07
-1.5801836e-08
6.1399755e-07
-1.7297573e-08
6.2040608e-07
-1.886068e-08
6.3013628e-07
-1.9520373e-08
6.4074495e-07
-1.6990118e-08
6.3228843e-07
-1.0065418e-08
5.6010083e-07
-2.4098155e-09
3.8600554e-07
1.3465309e-07
1.9513592e-09
1.0811482e-07
9.0218805e-09
3.3225115e-07
1.7426426e-08
5.2542299e-07
2.1784714e-08
6.2956856e-07
2.1822993e-08
6.5285225e-07
2.0181379e-08
6.4245723e-07
1.8500407e-08
6.2948328e-07
1.7035912e-08
6.209004e-07
1.5664708e-08
6.1514584e-07
1.4317848e-08
6.1073024e-07
1.2981651e-08
6.0713441e-07
1.1654667e-08
6.0417443e-07
1.0336205e-08
6.0173443e-07
9.0256715e-09
5.9972615e-07
7.722606e-09
5.980838e-07
6.4265279e-09
5.9675859e-07
5.1368336e-09
5.9571434e-07
3.8527643e-09
5.9492437e-07
2.5734169e-09
5.9436961e-07
1.2977808e-09
5.9403726e-07
2.4789469e-11
5.9392001e-07
-1.2466226e-09
5.9401558e-07
-2.5174579e-09
5.9432669e-07
-3.7885958e-09
5.9486114e-07
-5.0607399e-09
5.9563231e-07
-6.3343778e-09
5.9666005e-07
-7.6097654e-09
5.9797205e-07
-8.8869562e-09
5.9960604e-07
-1.0165881e-08
6.0161301e-07
-1.1446394e-08
6.0406171e-07
-1.2728586e-08
6.0704385e-07
-1.4017965e-08
6.1069442e-07
-1.534936e-08
6.1532895e-07
-1.6801739e-08
6.2185846e-07
-1.8267484e-08
6.3160203e-07
-1.8722439e-08
6.4119991e-07
-1.602584e-08
6.2959183e-07
-9.3142635e-09
5.5338925e-07
-2.2227285e-09
3.78914e-07
1.3243036e-07
1.8347207e-09
1.062801e-07
8.3816569e-09
3.2570422e-07
1.6438021e-08
5.1736663e-07
2.0916048e-08
6.2509054e-07
2.121276e-08
6.5255554e-07
1.97096e-08
6.4396039e-07
1.8074556e-08
6.3111832e-07
1.6641272e-08
6.2233368e-07
1.5308024e-08
6.1647909e-07
1.4001971e-08
6.1203629e-07
1.2705837e-08
6.0843054e-07
1.141722e-08
6.0546305e-07
1.0135197e-08
6.0301645e-07
8.8590848e-09
6.0100226e-07
7.5884511e-09
5.9935443e-07
6.3229552e-09
5.9802409e-07
5.0622231e-09
5.9697507e-07
3.8057938e-09
5.961808e-07
2.5531114e-09
5.9562229e-07
1.3035452e-09
5.9528682e-07
5.6425926e-11
5.9516713e-07
-1.1889105e-09
5.9526092e-07
-2.4330743e-09
5.9557085e-07
-3.6765772e-09
5.9610464e-07
-4.9197949e-09
5.9687553e-07
-6.1629443e-09
5.979032e-07
-7.4060897e-09
5.992152e-07
-8.6491942e-09
6.0084915e-07
-9.8922208e-09
6.0285604e-07
-1.1135203e-08
6.0530469e-07
-1.2378823e-08
6.0828747e-07
-1.3630641e-08
6.1194623e-07
-1.4928522e-08
6.1662683e-07
-1.6341574e-08
6.2327151e-07
-1.7713215e-08
6.3297367e-07
-1.7980584e-08
6.4146728e-07
-1.5152127e-08
6.2676337e-07
-8.6600476e-09
5.4689717e-07
-2.0705949e-09
3.7232455e-07
1.3035976e-07
1.7297852e-09
1.0455031e-07
7.8137016e-09
3.196203e-07
1.5531969e-08
5.0964836e-07
2.0095008e-08
6.205275e-07
2.0628623e-08
6.5202192e-07
1.9263087e-08
6.4532593e-07
1.7674346e-08
6.3270706e-07
1.6268408e-08
6.2373962e-07
1.4968135e-08
6.1777936e-07
1.3698513e-08
6.1330591e-07
1.2438785e-08
6.0969027e-07
1.1185496e-08
6.0671634e-07
9.9374618e-09
6.0426448e-07
8.6938796e-09
6.0224584e-07
7.454293e-09
6.0059402e-07
6.2184343e-09
5.9925995e-07
4.9860826e-09
5.9820742e-07
3.7569926e-09
5.9740989e-07
2.5308696e-09
5.9684841e-07
1.3073749e-09
5.9651032e-07
8.614815e-11
5.9638835e-07
-1.1331628e-09
5.9648023e-07
-2.3508656e-09
5.9678856e-07
-3.5671939e-09
5.9732097e-07
-4.7822834e-09
5.9809062e-07
-5.9961662e-09
5.9911708e-07
-7.2087943e-09
6.0042783e-07
-8.4201114e-09
6.0206047e-07
-9.6301674e-09
6.0406609e-07
-1.0839222e-08
6.0651374e-07
-1.2048613e-08
6.0949686e-07
-1.3267933e-08
6.1316555e-07
-1.4537195e-08
6.1789609e-07
-1.5913494e-08
6.2464781e-07
-1.7193501e-08
6.3425367e-07
-1.7288699e-08
6.4156247e-07
-1.4356929e-08
6.238316e-07
-8.085513e-09
5.4062576e-07
-1.9434464e-09
3.6618248e-07
1.2841632e-07
1.6338171e-09
1.0291649e-07
7.3064064e-09
3.1394771e-07
1.469874e-08
5.0225603e-07
1.9317622e-08
6.1590862e-07
2.0067901e-08
6.5127164e-07
1.8838795e-08
6.4655503e-07
1.7297475e-08
6.3424838e-07
1.5916193e-08
6.251209e-07
1.464481e-08
6.1905075e-07
1.3407871e-08
6.1454285e-07
1.2181348e-08
6.1091679e-07
1.0960658e-08
6.0793703e-07
9.7443331e-09
6.0548081e-07
8.5314385e-09
6.0345874e-07
7.3214625e-09
6.0180399e-07
6.1141619e-09
6.0046725e-07
4.9094106e-09
5.9941217e-07
3.707113e-09
5.9861219e-07
2.507166e-09
5.9804836e-07
1.3094495e-09
5.9770804e-07
1.138372e-10
5.9758397e-07
-1.0797862e-09
5.9767385e-07
-2.2715017e-09
5.9798027e-07
-3.461338e-09
5.9851081e-07
-4.6492625e-09
5.9927854e-07
-5.8351887e-09
6.0030301e-07
-7.0190165e-09
6.0161166e-07
-8.2007175e-09
6.0324217e-07
-9.380461e-09
6.0524584e-07
-1.0558757e-08
6.0769204e-07
-1.1737638e-08
6.1067575e-07
-1.2928644e-08
6.1435656e-07
-1.4173e-08
6.1914045e-07
-1.5513999e-08
6.2598881e-07
-1.6704331e-08
6.3544401e-07
-1.6641297e-08
6.4149944e-07
-1.3629953e-08
6.2082026e-07
-7.5768237e-09
5.3457263e-07
-1.8342417e-09
3.604399e-07
1.2658208e-07
1.5451974e-09
1.013713e-07
6.8506782e-09
3.0864223e-07
1.3930411e-08
4.9517629e-07
1.8580574e-08
6.1125845e-07
1.9528467e-08
6.5032375e-07
1.843412e-08
6.4764938e-07
1.6941773e-08
6.3574073e-07
1.5583381e-08
6.2647929e-07
1.4337549e-08
6.2029658e-07
1.3130084e-08
6.1575032e-07
1.1933967e-08
6.1211291e-07
1.0743435e-08