/*--------------------------------*- C++ -*----------------------------------*\
  =========                 |
  \\      /  F ield         | OpenFOAM: The Open Source CFD Toolbox
   \\    /   O peration     | Website:  https://openfoam.org
    \\  /    A nd           | Version:  10
     \\/     M anipulation  |
\*---------------------------------------------------------------------------*/
FoamFile
{
    format      ascii;
    class       volScalarField;
    location    "0.03";
    object      T;
}
// * * * * * * * * * * * * * * * * * * * * * * * * * * * * * * * * * * * * * //

dimensions      [0 0 0 1 0 0 0];

internalField   nonuniform List<scalar> 
4000
(
302.75021
299.67204
299.99368
300.00065
299.99995
300
300
300
300
300
300
300
300
300
300
300
300
300
300
300
300
300
300
300
300
300
300
300
300
300
300
300
300
300
300
300
300
300
300
300
308.87703
299.06162
299.81833
299.99949
300.00058
299.99999
300
300
300
300
300
300
300
300
300
300
300
300
300
300
300
300
300
300
300
300
300
300
300
300
300
300
300
300
300
300
300
300
300
300
315.06151
299.17468
299.48555
299.9747
300.00298
300.00022
299.99999
300
300
300
300
300
300
300
300
300
300
300
300
300
300
300
300
300
300
300
300
300
300
300
300
300
300
300
300
300
300
300
300
300
320.84981
300.16135
299.12465
299.90254
300.0051
300.00118
300.00001
299.99999
300
300
300
300
300
300
300
300
300
300
300
300
300
300
300
300
300
300
300
300
300
300
300
300
300
300
300
300
300
300
300
300
325.95922
301.86568
298.8752
299.77509
300.00095
300.00322
300.00017
299.99998
300
300
300
300
300
300
300
300
300
300
300
300
300
300
300
300
300
300
300
300
300
300
300
300
300
300
300
300
300
300
300
300
330.19822
304.02613
298.83336
299.60672
299.98321
300.00592
300.00065
299.99998
299.99999
300
300
300
300
300
300
300
300
300
300
300
300
300
300
300
300
300
300
300
300
300
300
300
300
300
300
300
300
300
300
300
333.49395
306.38018
299.03409
299.42748
299.94693
300.0079
300.00163
300.00001
299.99998
300
300
300
300
300
300
300
300
300
300
300
300
300
300
300
300
300
300
300
300
300
300
300
300
300
300
300
300
300
300
300
335.90293
308.7238
299.46131
299.27011
299.89166
300.0072
300.00309
300.00014
299.99997
300
300
300
300
300
300
300
300
300
300
300
300
300
300
300
300
300
300
300
300
300
300
300
300
300
300
300
300
300
300
300
337.5692
310.92749
300.07079
299.16022
299.82125
300.00194
300.00484
300.00044
299.99996
299.99999
300
300
300
300
300
300
300
300
300
300
300
300
300
300
300
300
300
300
300
300
300
300
300
300
300
300
300
300
300
300
338.67141
312.92515
300.80991
299.11285
299.74222
299.99084
300.00646
300.00093
299.99997
299.99999
300
300
300
300
300
300
300
300
300
300
300
300
300
300
300
300
300
300
300
300
300
300
300
300
300
300
300
300
300
300
339.38234
314.69584
301.62979
299.13327
299.66194
299.97347
300.00743
300.00162
300.00002
299.99998
300
300
300
300
300
300
300
300
300
300
300
300
300
300
300
300
300
300
300
300
300
300
300
300
300
300
300
300
300
300
339.84476
316.24676
302.49087
299.21961
299.58725
299.95023
300.00725
300.00247
300.00012
299.99997
300
300
300
300
300
300
300
300
300
300
300
300
300
300
300
300
300
300
300
300
300
300
300
300
300
300
300
300
300
300
340.16261
317.59991
303.36425
299.36576
299.52369
299.92212
300.00549
300.00338
300.00029
299.99996
299.99999
300
300
300
300
300
300
300
300
300
300
300
300
300
300
300
300
300
300
300
300
300
300
300
300
300
300
300
300
300
340.4037
318.78285
304.23042
299.56371
299.47521
299.89053
300.00187
300.00422
300.00054
299.99997
299.99999
300
300
300
300
300
300
300
300
300
300
300
300
300
300
300
300
300
300
300
300
300
300
300
300
300
300
300
300
300
340.60784
319.82321
305.07731
299.8051
299.44434
299.85702
299.99625
300.00487
300.00085
299.99999
299.99998
300
300
300
300
300
300
300
300
300
300
300
300
300
300
300
300
300
300
300
300
300
300
300
300
300
300
300
300
300
340.7959
320.74586
305.89805
300.08207
299.43241
299.82313
299.98863
300.00519
300.00122
300.00003
299.99998
300
300
300
300
300
300
300
300
300
300
300
300
300
300
300
300
300
300
300
300
300
300
300
300
300
300
300
300
300
340.9773
321.57191
306.68931
300.38765
299.43983
299.7903
299.97915
300.00507
300.00162
300.0001
299.99998
300
300
300
300
300
300
300
300
300
300
300
300
300
300
300
300
300
300
300
300
300
300
300
300
300
300
300
300
300
341.15518
322.31852
307.44992
300.7159
299.46639
299.75979
299.96804
300.0044
300.00203
300.00019
299.99998
299.99999
300
300
300
300
300
300
300
300
300
300
300
300
300
300
300
300
300
300
300
300
300
300
300
300
300
300
300
300
341.32971
322.99931
308.18002
301.06183
299.51144
299.73269
299.95556
300.00312
300.0024
300.0003
299.99998
299.99999
300
300
300
300
300
300
300
300
300
300
300
300
300
300
300
300
300
300
300
300
300
300
300
300
300
300
300
300
341.49996
323.62492
308.88039
301.4213
299.57409
299.7099
299.94207
300.00118
300.00271
300.00044
299.99999
299.99999
300
300
300
300
300
300
300
300
300
300
300
300
300
300
300
300
300
300
300
300
300
300
300
300
300
300
300
300
341.6648
324.2036
309.55218
301.79087
299.65325
299.69214
299.92792
299.99856
300.00291
300.0006
300.00001
299.99999
300
300
300
300
300
300
300
300
300
300
300
300
300
300
300
300
300
300
300
300
300
300
300
300
300
300
300
300
341.82332
324.7418
310.19665
302.16771
299.74779
299.67997
299.91346
299.99526
300.00297
300.00076
300.00004
299.99999
300
300
300
300
300
300
300
300
300
300
300
300
300
300
300
300
300
300
300
300
300
300
300
300
300
300
300
300
341.97494
325.24455
310.81508
302.54944
299.85653
299.6738
299.89906
299.99133
300.00287
300.00093
300.00007
299.99999
300
300
300
300
300
300
300
300
300
300
300
300
300
300
300
300
300
300
300
300
300
300
300
300
300
300
300
300
342.11942
325.7159
311.40872
302.93409
299.9783
299.67394
299.88507
299.9868
300.00257
300.0011
300.00012
299.99999
300
300
300
300
300
300
300
300
300
300
300
300
300
300
300
300
300
300
300
300
300
300
300
300
300
300
300
300
342.25678
326.15913
311.97879
303.32001
300.11196
299.68056
299.87182
299.98174
300.00205
300.00125
300.00017
299.99999
299.99999
300
300
300
300
300
300
300
300
300
300
300
300
300
300
300
300
300
300
300
300
300
300
300
300
300
300
300
342.38721
326.57701
312.52642
303.70584
300.25642
299.69377
299.8596
299.97624
300.00131
300.00137
300.00023
300
299.99999
300
300
300
300
300
300
300
300
300
300
300
300
300
300
300
300
300
300
300
300
300
300
300
300
300
300
300
342.51104
326.97185
313.05272
304.09041
300.41062
299.71359
299.84872
299.97037
300.00032
300.00145
300.00029
300.00001
299.99999
300
300
300
300
300
300
300
300
300
300
300
300
300
300
300
300
300
300
300
300
300
300
300
300
300
300
300
342.62866
327.3457
313.55874
304.47277
300.57359
299.73998
299.83941
299.96424
299.9991
300.00149
300.00036
300.00002
299.99999
300
300
300
300
300
300
300
300
300
300
300
300
300
300
300
300
300
300
300
300
300
300
300
300
300
300
300
342.74047
327.70032
314.04547
304.85212
300.74439
299.77284
299.83191
299.95794
299.99762
300.00147
300.00043
300.00004
299.99999
300
300
300
300
300
300
300
300
300
300
300
300
300
300
300
300
300
300
300
300
300
300
300
300
300
300
300
342.84689
328.03732
314.51389
305.22781
300.92216
299.81205
299.82642
299.95159
299.99592
300.00139
300.00049
300.00005
300
300
300
300
300
300
300
300
300
300
300
300
300
300
300
300
300
300
300
300
300
300
300
300
300
300
300
300
342.94832
328.3581
314.96492
305.5993
301.10609
299.85742
299.82311
299.94528
299.99399
300.00123
300.00056
300.00007
300
300
300
300
300
300
300
300
300
300
300
300
300
300
300
300
300
300
300
300
300
300
300
300
300
300
300
300
343.04514
328.66394
315.39944
305.96615
301.29543
299.90877
299.82213
299.93913
299.99185
300.00099
300.00061
300.0001
300
300
300
300
300
300
300
300
300
300
300
300
300
300
300
300
300
300
300
300
300
300
300
300
300
300
300
300
343.13769
328.95598
315.8183
306.32802
301.4895
299.96587
299.82361
299.93324
299.98953
300.00066
300.00065
300.00012
300
300
300
300
300
300
300
300
300
300
300
300
300
300
300
300
300
300
300
300
300
300
300
300
300
300
300
300
343.22629
329.23527
316.22229
306.68463
301.68765
300.02851
299.82763
299.92771
299.98705
300.00025
300.00068
300.00015
300.00001
300
300
300
300
300
300
300
300
300
300
300
300
300
300
300
300
300
300
300
300
300
300
300
300
300
300
300
343.31122
329.50273
316.61219
307.03578
301.88931
300.09643
299.8343
299.92265
299.98444
299.99974
300.00068
300.00017
300.00001
300
300
300
300
300
300
300
300
300
300
300
300
300
300
300
300
300
300
300
300
300
300
300
300
300
300
300
343.39274
329.75921
316.98871
307.38131
302.09394
300.1694
299.84365
299.91813
299.98172
299.99915
300.00067
300.0002
300.00002
300
300
300
300
300
300
300
300
300
300
300
300
300
300
300
300
300
300
300
300
300
300
300
300
300
300
300
343.47109
330.00547
317.35255
307.72112
302.30105
300.24716
299.85575
299.91427
299.97893
299.99846
300.00063
300.00022
300.00003
300
300
300
300
300
300
300
300
300
300
300
300
300
300
300
300
300
300
300
300
300
300
300
300
300
300
300
343.54649
330.24221
317.70435
308.05515
302.5102
300.32947
299.87061
299.91113
299.9761
299.99768
300.00057
300.00025
300.00004
300
300
300
300
300
300
300
300
300
300
300
300
300
300
300
300
300
300
300
300
300
300
300
300
300
300
300
343.61911
330.47005
318.04472
308.38336
302.72097
300.41607
299.88825
299.90879
299.97327
299.99681
300.00047
300.00027
300.00005
300
300
300
300
300
300
300
300
300
300
300
300
300
300
300
300
300
300
300
300
300
300
300
300
300
300
300
343.68915
330.68955
318.37423
308.70574
302.933
300.50672
299.90867
299.90734
299.97048
299.99587
300.00035
300.00028
300.00005
300
300
300
300
300
300
300
300
300
300
300
300
300
300
300
300
300
300
300
300
300
300
300
300
300
300
300
343.75674
330.90123
318.69343
309.02232
303.14594
300.60119
299.93185
299.90684
299.96776
299.99485
300.00019
300.00029
300.00006
300.00001
300
300
300
300
300
300
300
300
300
300
300
300
300
300
300
300
300
300
300
300
300
300
300
300
300
300
343.82204
331.10557
319.00282
309.33312
303.3595
300.69924
299.95777
299.90734
299.96515
299.99376
299.99999
300.00029
300.00007
300.00001
300
300
300
300
300
300
300
300
300
300
300
300
300
300
300
300
300
300
300
300
300
300
300
300
300
300
343.88517
331.30298
319.30287
309.63821
303.57339
300.80064
299.98641
299.9089
299.96269
299.99262
299.99976
300.00029
300.00008
300.00001
300
300
300
300
300
300
300
300
300
300
300
300
300
300
300
300
300
300
300
300
300
300
300
300
300
300
343.94627
331.49388
319.59404
309.93765
303.78736
300.90517
300.01772
299.91158
299.96041
299.99142
299.9995
300.00028
300.00009
300.00001
300
300
300
300
300
300
300
300
300
300
300
300
300
300
300
300
300
300
300
300
300
300
300
300
300
300
344.00543
331.67861
319.87675
310.23152
304.00118
301.01262
300.05167
299.91541
299.95835
299.99019
299.99919
300.00025
300.0001
300.00002
300
300
300
300
300
300
300
300
300
300
300
300
300
300
300
300
300
300
300
300
300
300
300
300
300
300
344.06275
331.85751
320.15138
310.5199
304.21466
301.12279
300.08819
299.92044
299.95655
299.98894
299.99886
300.00022
300.00011
300.00002
300
300
300
300
300
300
300
300
300
300
300
300
300
300
300
300
300
300
300
300
300
300
300
300
300
300
344.11834
332.03089
320.41831
310.80288
304.42759
301.23547
300.12723
299.92669
299.95504
299.98767
299.99848
300.00017
300.00012
300.00002
300
300
300
300
300
300
300
300
300
300
300
300
300
300
300
300
300
300
300
300
300
300
300
300
300
300
344.17228
332.19902
320.67789
311.08057
304.63983
301.35049
300.16874
299.93421
299.95386
299.98639
299.99808
300.00011
300.00012
300.00003
300
300
300
300
300
300
300
300
300
300
300
300
300
300
300
300
300
300
300
300
300
300
300
300
300
300
344.22465
332.36218
320.93043
311.35306
304.85121
301.46765
300.21265
299.943
299.95304
299.98514
299.99764
300.00004
300.00012
300.00003
300
300
300
300
300
300
300
300
300
300
300
300
300
300
300
300
300
300
300
300
300
300
300
300
300
300
344.27553
332.5206
321.17625
311.62046
305.0616
301.58679
300.2589
299.9531
299.95261
299.98391
299.99717
299.99995
300.00012
300.00003
300
300
300
300
300
300
300
300
300
300
300
300
300
300
300
300
300
300
300
300
300
300
300
300
300
300
344.32498
332.67451
321.41564
311.88288
305.27088
301.70774
300.30741
299.96451
299.9526
299.98272
299.99667
299.99985
300.00011
300.00004
300.00001
300
300
300
300
300
300
300
300
300
300
300
300
300
300
300
300
300
300
300
300
300
300
300
300
300
344.37307
332.82413
321.64887
312.14042
305.47895
301.83035
300.35812
299.97725
299.95304
299.98158
299.99616
299.99974
300.00011
300.00004
300.00001
300
300
300
300
300
300
300
300
300
300
300
300
300
300
300
300
300
300
300
300
300
300
300
300
300
344.41987
332.96965
321.87619
312.39319
305.68571
301.95446
300.41095
299.99132
299.95396
299.98052
299.99562
299.99961
300.00009
300.00004
300.00001
300
300
300
300
300
300
300
300
300
300
300
300
300
300
300
300
300
300
300
300
300
300
300
300
300
344.46543
333.11125
322.09785
312.6413
305.89107
302.07994
300.46584
300.00674
299.95537
299.97955
299.99507
299.99947
300.00008
300.00005
300.00001
300
300
300
300
300
300
300
300
300
300
300
300
300
300
300
300
300
300
300
300
300
300
300
300
300
344.50979
333.24912
322.31407
312.88486
306.09497
302.20665
300.52272
300.02349
299.95732
299.97868
299.9945
299.99931
300.00006
300.00005
300.00001
300
300
300
300
300
300
300
300
300
300
300
300
300
300
300
300
300
300
300
300
300
300
300
300
300
344.55303
333.3834
322.52507
313.12397
306.29733
302.33447
300.5815
300.04159
299.95981
299.97792
299.99393
299.99914
300.00003
300.00005
300.00001
300
300
300
300
300
300
300
300
300
300
300
300
300
300
300
300
300
300
300
300
300
300
300
300
300
344.59518
333.51427
322.73106
313.35874
306.4981
302.46326
300.64212
300.06102
299.96287
299.97729
299.99336
299.99895
300
300.00005
300.00001
300
300
300
300
300
300
300
300
300
300
300
300
300
300
300
300
300
300
300
300
300
300
300
300
300
344.63628
333.64185
322.93222
313.58927
306.69724
302.59293
300.70451
300.08177
299.96652
299.97682
299.99279
299.99875
299.99996
300.00005
300.00001
300
300
300
300
300
300
300
300
300
300
300
300
300
300
300
300
300
300
300
300
300
300
300
300
300
344.67639
333.76628
323.12875
313.81567
306.89469
302.72335
300.7686
300.10385
299.97078
299.9765
299.99223
299.99854
299.99992
300.00004
300.00002
300
300
300
300
300
300
300
300
300
300
300
300
300
300
300
300
300
300
300
300
300
300
300
300
300
344.71553
333.8877
323.32081
314.03804
307.09042
302.85444
300.83431
300.12723
299.97566
299.97636
299.99168
299.99832
299.99987
300.00004
300.00002
300
300
300
300
300
300
300
300
300
300
300
300
300
300
300
300
300
300
300
300
300
300
300
300
300
344.75375
334.00622
323.50857
314.25647
307.28441
302.98608
300.90158
300.1519
299.98118
299.97641
299.99115
299.99809
299.99982
300.00003
300.00002
300
300
300
300
300
300
300
300
300
300
300
300
300
300
300
300
300
300
300
300
300
300
300
300
300
344.79109
334.12195
323.69219
314.47107
307.47662
303.1182
300.97034
300.17786
299.98735
299.97666
299.99066
299.99785
299.99976
300.00003
300.00002
300
300
300
300
300
300
300
300
300
300
300
300
300
300
300
300
300
300
300
300
300
300
300
300
300
344.82757
334.23501
323.87181
314.68193
307.66704
303.2507
301.04053
300.20507
299.99419
299.97713
299.99019
299.9976
299.99969
300.00002
300.00002
300
300
300
300
300
300
300
300
300
300
300
300
300
300
300
300
300
300
300
300
300
300
300
300
300
344.86324
334.3455
324.04758
314.88913
307.85565
303.38351
301.11207
300.23353
300.0017
299.97783
299.98977
299.99735
299.99962
300
300.00002
300.00001
300
300
300
300
300
300
300
300
300
300
300
300
300
300
300
300
300
300
300
300
300
300
300
300
344.89811
334.45352
324.21963
315.09278
308.04244
303.51655
301.1849
300.26321
300.00989
299.97878
299.98939
299.99709
299.99954
299.99999
300.00002
300.00001
300
300
300
300
300
300
300
300
300
300
300
300
300
300
300
300
300
300
300
300
300
300
300
300
344.93223
334.55915
324.3881
315.29297
308.22741
303.64975
301.25897
300.29409
300.01877
299.97998
299.98906
299.99683
299.99946
299.99998
300.00002
300.00001
300
300
300
300
300
300
300
300
300
300
300
300
300
300
300
300
300
300
300
300
300
300
300
300
344.96561
334.66249
324.5531
315.48976
308.41054
303.78304
301.3342
300.32616
300.02835
299.98144
299.98879
299.99657
299.99937
299.99996
300.00001
300.00001
300
300
300
300
300
300
300
300
300
300
300
300
300
300
300
300
300
300
300
300
300
300
300
300
344.99828
334.76361
324.71475
315.68326
308.59184
303.91637
301.41055
300.35939
300.03863
299.98319
299.98859
299.99632
299.99927
299.99994
300.00001
300.00001
300
300
300
300
300
300
300
300
300
300
300
300
300
300
300
300
300
300
300
300
300
300
300
300
345.03028
334.8626
324.87316
315.87355
308.7713
304.04966
301.48795
300.39376
300.04962
299.98523
299.98847
299.99607
299.99917
299.99991
300.00001
300.00001
300
300
300
300
300
300
300
300
300
300
300
300
300
300
300
300
300
300
300
300
300
300
300
300
345.06162
334.95953
325.02844
316.0607
308.94894
304.18287
301.56635
300.42924
300.06132
299.98757
299.98842
299.99582
299.99907
299.99989
300.00001
300.00001
300
300
300
300
300
300
300
300
300
300
300
300
300
300
300
300
300
300
300
300
300
300
300
300
345.09232
335.05447
325.18069
316.24479
309.12475
304.31595
301.6457
300.46582
300.07373
299.99021
299.98846
299.99559
299.99896
299.99986
300
300.00001
300
300
300
300
300
300
300
300
300
300
300
300
300
300
300
300
300
300
300
300
300
300
300
300
345.12241
335.1475
325.33002
316.4259
309.29875
304.44884
301.72593
300.50346
300.08686
299.99318
299.98859
299.99537
299.99885
299.99983
300
300.00001
300
300
300
300
300
300
300
300
300
300
300
300
300
300
300
300
300
300
300
300
300
300
300
300
345.15191
335.23868
325.47652
316.60411
309.47094
304.58151
301.80701
300.54214
300.1007
299.99648
299.98883
299.99517
299.99874
299.9998
299.99999
300.00001
300
300
300
300
300
300
300
300
300
300
300
300
300
300
300
300
300
300
300
300
300
300
300
300
345.18084
335.32807
325.62027
316.77949
309.64134
304.71391
301.88888
300.58184
300.11526
300.00011
299.98917
299.99498
299.99863
299.99976
299.99999
300.00001
300
300
300
300
300
300
300
300
300
300
300
300
300
300
300
300
300
300
300
300
300
300
300
300
345.20922
335.41573
325.76136
316.95211
309.80996
304.84601
301.97149
300.62253
300.13053
300.00409
299.98962
299.99481
299.99851
299.99973
299.99998
300
300
300
300
300
300
300
300
300
300
300
300
300
300
300
300
300
300
300
300
300
300
300
300
300
345.23706
335.50173
325.89989
317.12203
309.97682
304.97777
302.05481
300.66419
300.14651
300.00842
299.99019
299.99467
299.99839
299.99969
299.99997
300
300
300
300
300
300
300
300
300
300
300
300
300
300
300
300
300
300
300
300
300
300
300
300
300
345.26438
335.5861
326.03592
317.28933
310.14192
305.10916
302.13877
300.70679
300.1632
300.01311
299.99089
299.99456
299.99828
299.99964
299.99996
300
300
300
300
300
300
300
300
300
300
300
300
300
300
300
300
300
300
300
300
300
300
300
300
300
345.29121
335.66891
326.16953
317.45407
310.3053
305.24015
302.22336
300.75032
300.18059
300.01817
299.99173
299.99447
299.99816
299.9996
299.99995
300
300
300
300
300
300
300
300
300
300
300
300
300
300
300
300
300
300
300
300
300
300
300
300
300
345.31755
335.75022
326.3008
317.61632
310.46696
305.3707
302.30851
300.79473
300.19869
300.02359
299.9927
299.99442
299.99805
299.99955
299.99994
300
300
300
300
300
300
300
300
300
300
300
300
300
300
300
300
300
300
300
300
300
300
300
300
300
345.34343
335.83007
326.42981
317.77614
310.62694
305.50081
302.39421
300.84002
300.21748
300.0294
299.99382
299.99441
299.99794
299.99951
299.99993
300
300
300
300
300
300
300
300
300
300
300
300
300
300
300
300
300
300
300
300
300
300
300
300
300
345.36886
335.90851
326.55663
317.93359
310.78524
305.63044
302.4804
300.88615
300.23697
300.03559
299.99508
299.99444
299.99784
299.99946
299.99991
299.99999
300
300
300
300
300
300
300
300
300
300
300
300
300
300
300
300
300
300
300
300
300
300
300
300
345.39385
335.98558
326.68132
318.08875
310.9419
305.75958
302.56705
300.93311
300.25714
300.04217
299.99651
299.99451
299.99774
299.99941
299.9999
299.99999
300
300
300
300
300
300
300
300
300
300
300
300
300
300
300
300
300
300
300
300
300
300
300
300
345.41843
336.06134
326.80395
318.24166
311.09694
305.88821
302.65414
300.98086
300.27799
300.04914
299.9981
299.99462
299.99765
299.99936
299.99988
299.99999
300
300
300
300
300
300
300
300
300
300
300
300
300
300
300
300
300
300
300
300
300
300
300
300
345.44259
336.13582
326.92459
318.39239
311.25038
306.01631
302.74162
301.02939
300.29952
300.0565
299.99985
299.99479
299.99757
299.9993
299.99986
299.99999
300
300
300
300
300
300
300
300
300
300
300
300
300
300
300
300
300
300
300
300
300
300
300
300
345.46636
336.20907
327.0433
318.54099
311.40224
306.14387
302.82948
301.07868
300.32172
300.06426
300.00178
299.99501
299.9975
299.99925
299.99985
299.99998
300
300
300
300
300
300
300
300
300
300
300
300
300
300
300
300
300
300
300
300
300
300
300
300
345.48975
336.28112
327.16013
318.68753
311.55256
306.27088
302.91767
301.1287
300.34458
300.07243
300.00388
299.99528
299.99744
299.9992
299.99983
299.99998
300
300
300
300
300
300
300
300
300
300
300
300
300
300
300
300
300
300
300
300
300
300
300
300
345.51277
336.35202
327.27515
318.83205
311.70137
306.39734
303.00619
301.17943
300.36809
300.08101
300.00617
299.99562
299.99739
299.99915
299.99981
299.99997
300
300
300
300
300
300
300
300
300
300
300
300
300
300
300
300
300
300
300
300
300
300
300
300
345.53544
336.42181
327.38842
318.97463
311.84868
306.52323
303.09499
301.23085
300.39226
300.08999
300.00865
299.99602
299.99736
299.9991
299.99979
299.99997
300
300
300
300
300
300
300
300
300
300
300
300
300
300
300
300
300
300
300
300
300
300
300
300
345.55778
336.49054
327.50001
319.11531
311.99453
306.64855
303.18406
301.28295
300.41706
300.09938
300.01132
299.99648
299.99734
299.99905
299.99977
299.99996
300
300
300
300
300
300
300
300
300
300
300
300
300
300
300
300
300
300
300
300
300
300
300
300
345.57979
336.55825
327.60996
319.25416
312.13897
306.77331
303.27339
301.33571
300.44251
300.10918
300.01418
299.99702
299.99733
299.999
299.99975
299.99995
300
300
300
300
300
300
300
300
300
300
300
300
300
300
300
300
300
300
300
300
300
300
300
300
345.60149
336.62497
327.71835
319.39124
312.28201
306.8975
303.36295
301.3891
300.46858
300.11941
300.01725
299.99763
299.99735
299.99895
299.99972
299.99995
299.99999
300
300
300
300
300
300
300
300
300
300
300
300
300
300
300
300
300
300
300
300
300
300
300
345.62289
336.69075
327.82524
319.52661
312.42371
307.02113
303.45273
301.44312
300.49527
300.13004
300.02053
299.99831
299.99739
299.99891
299.9997
299.99994
299.99999
300
300
300
300
300
300
300
300
300
300
300
300
300
300
300
300
300
300
300
300
300
300
300
345.64399
336.75561
327.93067
319.66032
312.56409
307.14421
303.54271
301.49775
300.52258
300.1411
300.02401
299.99908
299.99745
299.99887
299.99968
299.99993
299.99999
300
300
300
300
300
300
300
300
300
300
300
300
300
300
300
300
300
300
300
300
300
300
300
345.66482
336.81958
328.03469
319.79243
312.7032
307.26675
303.63289
301.55297
300.55051
300.15258
300.02771
299.99993
299.99753
299.99884
299.99965
299.99993
299.99999
300
300
300
300
300
300
300
300
300
300
300
300
300
300
300
300
300
300
300
300
300
300
300
345.68536
336.8827
328.13735
319.92299
312.84105
307.38874
303.72324
301.60877
300.57903
300.16447
300.03163
300.00086
299.99764
299.99881
299.99963
299.99992
299.99999
300
300
300
300
300
300
300
300
300
300
300
300
300
300
300
300
300
300
300
300
300
300
300
345.70565
336.94501
328.23875
320.05213
312.97781
307.51031
303.81386
301.6652
300.60819
300.17681
300.03578
300.00189
299.99777
299.99878
299.99961
299.99991
299.99998
300
300
300
300
300
300
300
300
300
300
300
300
300
300
300
300
300
300
300
300
300
300
300
345.72564
337.00638
328.33862
320.17942
313.1129
307.63088
303.90424
301.7219
300.63778
300.18949
300.04012
300.00299
299.99793
299.99876
299.99958
299.9999
299.99998
300
300
300
300
300
300
300
300
300
300
300
300
300
300
300
300
300
300
300
300
300
300
300
345.74555
337.06758
328.43865
320.30755
313.24963
307.7537
303.99703
301.78069
300.66882
300.203
300.04485
300.00424
299.99813
299.99875
299.99956
299.99989
299.99998
300
300
300
300
300
300
300
300
300
300
300
300
300
300
300
300
300
300
300
300
300
300
300
345.76461
337.12416
328.5289
320.4215
313.37027
307.86163
304.07848
301.83234
300.69618
300.21496
300.04907
300.00538
299.99832
299.99874
299.99954
299.99988
299.99998
300
300
300
300
300
300
300
300
300
300
300
300
300
300
300
300
300
300
300
300
300
300
300
345.79084
337.21002
328.67244
320.60817
313.57232
308.04588
304.22007
301.92382
300.74565
300.23714
300.05716
300.00766
299.99875
299.99875
299.99951
299.99987
299.99997
300
300
300
300
300
300
300
300
300
300
300
300
300
300
300
300
300
300
300
300
300
300
300
)
;

boundaryField
{
    wall
    {
        type            fixedValue;
        value           uniform 350;
    }
    sides
    {
        type            zeroGradient;
    }
    frontAndBack
    {
        type            empty;
    }
    inlet
    {
        type            fixedValue;
        value           uniform 300;
    }
    outlet
    {
        type            zeroGradient;
    }
}


// ************************************************************************* //
