/*--------------------------------*- C++ -*----------------------------------*\
  =========                 |
  \\      /  F ield         | OpenFOAM: The Open Source CFD Toolbox
   \\    /   O peration     | Website:  https://openfoam.org
    \\  /    A nd           | Version:  10
     \\/     M anipulation  |
\*---------------------------------------------------------------------------*/
FoamFile
{
    format      ascii;
    class       volVectorField;
    location    "0.03";
    object      U;
}
// * * * * * * * * * * * * * * * * * * * * * * * * * * * * * * * * * * * * * //

dimensions      [0 1 -1 0 0 0 0];

internalField   nonuniform List<vector> 
4000
(
(0 0.016387199 0.47633097)
(0 0.022568639 0.51041129)
(0 0.0094575174 0.50059817)
(0 0.0055123249 0.50022474)
(0 0.004182087 0.50023677)
(0 0.0032403715 0.50016744)
(0 0.0025495626 0.50011821)
(0 0.002049835 0.50008907)
(0 0.0016733299 0.50006915)
(0 0.00137992 0.50005492)
(0 0.0011454682 0.50004462)
(0 0.00095379814 0.50003704)
(0 0.00079372095 0.50003135)
(0 0.00065729671 0.50002706)
(0 0.00053871975 0.50002381)
(0 0.00043362495 0.50002135)
(0 0.00033863601 0.50001952)
(0 0.00025105954 0.5000182)
(0 0.00016866988 0.50001731)
(0 8.9552099e-05 0.50001681)
(0 1.1978895e-05 0.50001666)
(0 -6.569654e-05 0.50001685)
(0 -0.00014513235 0.5000174)
(0 -0.00022808669 0.50001834)
(0 -0.00031652788 0.50001973)
(0 -0.00041276768 0.50002166)
(0 -0.00051963154 0.50002424)
(0 -0.00064069652 0.50002767)
(0 -0.00078063824 0.50003221)
(0 -0.00094575829 0.50003827)
(0 -0.0011448268 0.50004643)
(0 -0.0013904089 0.50005766)
(0 -0.0017011219 0.50007329)
(0 -0.002107551 0.50009596)
(0 -0.0026617801 0.5001337)
(0 -0.0034157008 0.50018852)
(0 -0.0044825279 0.50019261)
(0 -0.0074746904 0.50048017)
(0 -0.017198423 0.50802662)
(0 -0.012232152 0.4787079)
(0 0.034167376 0.44480141)
(0 0.049235905 0.53555769)
(0 0.023596249 0.50850002)
(0 0.015822773 0.50327185)
(0 0.012358011 0.50236296)
(0 0.0095090512 0.50161786)
(0 0.0075040971 0.5011506)
(0 0.0060573856 0.50086223)
(0 0.0049559382 0.50066588)
(0 0.0040937296 0.5005275)
(0 0.0034027755 0.50042788)
(0 0.0028363973 0.50035461)
(0 0.002362349 0.50029987)
(0 0.0019576358 0.50025859)
(0 0.0016053566 0.50022732)
(0 0.0012927575 0.50020371)
(0 0.0010099442 0.50018614)
(0 0.00074900248 0.50017349)
(0 0.00050337785 0.50016499)
(0 0.00026742009 0.50016015)
(0 3.6027491e-05 0.5001587)
(0 -0.00019566461 0.50016057)
(0 -0.00043255311 0.50016587)
(0 -0.0006798285 0.50017491)
(0 -0.00094329485 0.50018824)
(0 -0.0012297555 0.50020669)
(0 -0.0015475024 0.5002315)
(0 -0.0019070025 0.50026446)
(0 -0.0023218872 0.50030819)
(0 -0.0028104326 0.50036657)
(0 -0.0033979361 0.50044552)
(0 -0.0041206326 0.50055445)
(0 -0.0050310589 0.50070807)
(0 -0.0062101278 0.50093208)
(0 -0.0078168158 0.50129115)
(0 -0.010080987 0.5018732)
(0 -0.012869421 0.50261216)
(0 -0.018563693 0.50639538)
(0 -0.037887617 0.52797429)
(0 -0.025888954 0.44800699)
(0 0.037577535 0.40642211)
(0 0.059885934 0.5519748)
(0 0.033039628 0.52247878)
(0 0.023869298 0.50981963)
(0 0.019157234 0.50654394)
(0 0.0149638 0.50452552)
(0 0.011978481 0.50326461)
(0 0.0097530747 0.50245488)
(0 0.0080229019 0.50189919)
(0 0.006654464 0.5015074)
(0 0.0055488142 0.50122453)
(0 0.004636534 0.50101599)
(0 0.0038690687 0.50085997)
(0 0.0032111591 0.50074214)
(0 0.0026365626 0.50065281)
(0 0.0021252929 0.50058532)
(0 0.0016617227 0.50053506)
(0 0.0012332712 0.50049885)
(0 0.00082946294 0.5004745)
(0 0.00044123018 0.50046063)
(0 6.0363683e-05 0.50045647)
(0 -0.00032097386 0.50046182)
(0 -0.00071067112 0.50047699)
(0 -0.0011170727 0.50050288)
(0 -0.001549481 0.50054101)
(0 -0.0020187477 0.50059378)
(0 -0.0025380173 0.50066467)
(0 -0.0031237558 0.50075877)
(0 -0.0037972097 0.50088346)
(0 -0.0045865109 0.50104966)
(0 -0.0055298857 0.50127392)
(0 -0.0066812592 0.50158237)
(0 -0.0081171566 0.50201681)
(0 -0.0099401428 0.50264531)
(0 -0.012342521 0.50361458)
(0 -0.015683291 0.50517882)
(0 -0.019497122 0.50767322)
(0 -0.025925366 0.51686231)
(0 -0.046680097 0.54156847)
(0 -0.029431096 0.41240066)
(0 0.033328996 0.3591809)
(0 0.062613107 0.55602539)
(0 0.040118353 0.5379581)
(0 0.02963464 0.51829154)
(0 0.024074953 0.51191457)
(0 0.019239073 0.50848273)
(0 0.015694527 0.50625271)
(0 0.012928563 0.50474939)
(0 0.010724454 0.50370063)
(0 0.0089532436 0.50295355)
(0 0.0075027412 0.50240927)
(0 0.0062934087 0.50200545)
(0 0.0052677523 0.50170195)
(0 0.0043826956 0.50147191)
(0 0.0036055479 0.50129701)
(0 0.0029110187 0.50116459)
(0 0.0022790708 0.50106581)
(0 0.0016933989 0.50099452)
(0 0.0011403068 0.50094655)
(0 0.00060785778 0.50091919)
(0 8.5196807e-05 0.50091098)
(0 -0.00043806284 0.50092151)
(0 -0.00097237443 0.50095139)
(0 -0.0015287579 0.50100233)
(0 -0.0021194327 0.50107732)
(0 -0.0027585433 0.50118093)
(0 -0.0034630508 0.50131985)
(0 -0.0042539343 0.50150377)
(0 -0.0051578477 0.50174667)
(0 -0.006209408 0.50206902)
(0 -0.0074542376 0.50250125)
(0 -0.0089544292 0.50309039)
(0 -0.010796952 0.50391108)
(0 -0.013082912 0.5050785)
(0 -0.0159645 0.50679587)
(0 -0.019855266 0.50943746)
(0 -0.024356942 0.51413872)
(0 -0.031574313 0.52866205)
(0 -0.049814138 0.54570167)
(0 -0.027645842 0.37035147)
(0 0.026198859 0.31333849)
(0 0.061203782 0.55102885)
(0 0.045267486 0.55192519)
(0 0.033679651 0.52733231)
(0 0.027435218 0.51759886)
(0 0.022404102 0.51286781)
(0 0.01859211 0.50970468)
(0 0.015498855 0.50747658)
(0 0.012983021 0.5058892)
(0 0.010924382 0.50473954)
(0 0.0092109927 0.50389085)
(0 0.0077642572 0.5032552)
(0 0.0065245438 0.502774)
(0 0.0054456048 0.5024072)
(0 0.0044915354 0.50212707)
(0 0.0036339764 0.50191423)
(0 0.0028500647 0.50175502)
(0 0.0021209268 0.50163988)
(0 0.0014305225 0.50156227)
(0 0.00076474338 0.50151796)
(0 0.00011068139 0.50150463)
(0 -0.00054405198 0.50152162)
(0 -0.0012119214 0.50156992)
(0 -0.0019060104 0.5016522)
(0 -0.0026407231 0.50177314)
(0 -0.0034325636 0.50193985)
(0 -0.0043010613 0.50216272)
(0 -0.0052699789 0.50245658)
(0 -0.0063689077 0.50284263)
(0 -0.0076354294 0.50335144)
(0 -0.009117494 0.50402751)
(0 -0.010877214 0.50493712)
(0 -0.013001856 0.50618296)
(0 -0.015589043 0.50791805)
(0 -0.018735188 0.51036424)
(0 -0.022843827 0.51397726)
(0 -0.027882105 0.52103256)
(0 -0.036014185 0.53973528)
(0 -0.050073511 0.54266267)
(0 -0.023624868 0.3292472)
(0 0.018609482 0.27434018)
(0 0.056894476 0.54034314)
(0 0.047949057 0.56309275)
(0 0.036280149 0.53652958)
(0 0.029612934 0.5233477)
(0 0.024632712 0.5173232)
(0 0.020736773 0.5133205)
(0 0.017481862 0.51041649)
(0 0.014790629 0.50830485)
(0 0.012548059 0.50674825)
(0 0.010650867 0.50558288)
(0 0.0090273779 0.50470053)
(0 0.0076201705 0.50402671)
(0 0.0063834948 0.50350945)
(0 0.0052810184 0.5031122)
(0 0.0042833689 0.50280902)
(0 0.0033663969 0.50258144)
(0 0.0025098343 0.5024164)
(0 0.0016962153 0.50230491)
(0 0.00091000904 0.50224116)
(0 0.00013690232 0.50222191)
(0 -0.00063689006 0.50224626)
(0 -0.0014252343 0.50231555)
(0 -0.0022426128 0.5024335)
(0 -0.003104839 0.50260652)
(0 -0.0040298156 0.50284436)
(0 -0.0050384114 0.50316108)
(0 -0.0061555629 0.50357661)
(0 -0.0074116526 0.504119)
(0 -0.0088444254 0.50482803)
(0 -0.010500903 0.50576043)
(0 -0.012438937 0.50699798)
(0 -0.014739857 0.50866354)
(0 -0.017501 0.51093726)
(0 -0.020776163 0.51405142)
(0 -0.024912383 0.5186137)
(0 -0.030276577 0.52815609)
(0 -0.038802442 0.54917208)
(0 -0.048134593 0.53485148)
(0 -0.018770289 0.29314672)
(0 0.011898966 0.24196101)
(0 0.050744761 0.52574344)
(0 0.048211298 0.57081715)
(0 0.037609007 0.54553681)
(0 0.030820827 0.52913184)
(0 0.026037539 0.52171151)
(0 0.022207442 0.51694727)
(0 0.018928732 0.51343776)
(0 0.016171656 0.51083925)
(0 0.013831763 0.50889375)
(0 0.011820857 0.50741864)
(0 0.010076739 0.50628981)
(0 0.0085467698 0.50541991)
(0 0.007188252 0.50474712)
(0 0.005966476 0.50422725)
(0 0.0048526943 0.50382849)
(0 0.003822787 0.50352796)
(0 0.0028561463 0.50330935)
(0 0.0019347413 0.50316131)
(0 0.0010423452 0.50307648)
(0 0.00016388161 0.50305075)
(0 -0.00071522581 0.50308298)
(0 -0.0016096349 0.50317488)
(0 -0.0025345747 0.50333112)
(0 -0.0035065255 0.50355981)
(0 -0.0045439065 0.50387318)
(0 -0.0056678499 0.50428872)
(0 -0.006903149 0.50483095)
(0 -0.0082793548 0.50553397)
(0 -0.0098323705 0.50644534)
(0 -0.011606254 0.5076319)
(0 -0.013652729 0.50918796)
(0 -0.016042337 0.51125111)
(0 -0.018867722 0.51401983)
(0 -0.022153441 0.51775061)
(0 -0.026188932 0.52333275)
(0 -0.031653099 0.5353416)
(0 -0.039823 0.55635728)
(0 -0.044564939 0.5235357)
(0 -0.013928632 0.26209972)
(0 0.0067151003 0.21509983)
(0 0.043849703 0.50852357)
(0 0.046675937 0.57493151)
(0 0.037921367 0.55382196)
(0 0.031252751 0.53481688)
(0 0.026735645 0.52593505)
(0 0.023089094 0.52048331)
(0 0.019897777 0.5164486)
(0 0.017162111 0.51341211)
(0 0.014796692 0.51110831)
(0 0.012732186 0.50934232)
(0 0.010916957 0.50797754)
(0 0.0093049852 0.5069167)
(0 0.0078583556 0.50609016)
(0 0.0065453846 0.50544751)
(0 0.0053391635 0.50495204)
(0 0.0042166383 0.50457706)
(0 0.0031577337 0.50430336)
(0 0.0021445999 0.50411754)
(0 0.0011609666 0.50401082)
(0 0.00019158521 0.5039783)
(0 -0.00077834749 0.5040186)
(0 -0.0017637139 0.50413375)
(0 -0.0027798925 0.50432934)
(0 -0.0038433708 0.50461498)
(0 -0.0049723298 0.50500509)
(0 -0.0061872859 0.50552018)
(0 -0.0075118666 0.50618871)
(0 -0.0089736179 0.50704982)
(0 -0.010605157 0.5081574)
(0 -0.012445972 0.50958641)
(0 -0.014540635 0.51144142)
(0 -0.016945905 0.51387075)
(0 -0.019742206 0.51708193)
(0 -0.022935433 0.52137455)
(0 -0.02679311 0.52803322)
(0 -0.032188396 0.54220804)
(0 -0.039400359 0.56093983)
(0 -0.040071444 0.50967734)
(0 -0.0096739389 0.23546526)
(0 0.0031270045 0.19328287)
(0 0.037010795 0.49000624)
(0 0.044023551 0.57575708)
(0 0.037482769 0.56095382)
(0 0.031121787 0.54022937)
(0 0.026885283 0.52990786)
(0 0.023488714 0.52384055)
(0 0.020459159 0.51936933)
(0 0.017808619 0.51595515)
(0 0.015474139 0.51333368)
(0 0.013405159 0.51130435)
(0 0.01156061 0.50972183)
(0 0.0099022051 0.50848179)
(0 0.0083977947 0.50750883)
(0 0.0070195899 0.50674777)
(0 0.0057433563 0.506158)
(0 0.0045478601 0.50570976)
(0 0.0034142303 0.50538149)
(0 0.0023253998 0.50515801)
(0 0.0012656028 0.50502936)
(0 0.00021992783 0.50498994)
(0 -0.00082616225 0.50503818)
(0 -0.0018872797 0.50517638)
(0 -0.0029784395 0.50541092)
(0 -0.0041155845 0.50575267)
(0 -0.0053160513 0.50621792)
(0 -0.0065990637 0.50682964)
(0 -0.0079863277 0.50761949)
(0 -0.0095025785 0.50863061)
(0 -0.011176225 0.50992179)
(0 -0.013041047 0.511574)
(0 -0.015134081 0.51369943)
(0 -0.017498155 0.516453)
(0 -0.020197422 0.52004345)
(0 -0.023228674 0.52483753)
(0 -0.026874725 0.53257556)
(0 -0.032074376 0.54838848)
(0 -0.037955898 0.56295535)
(0 -0.035232755 0.49431724)
(0 -0.0062678913 0.21302262)
(0 0.00087142225 0.17601484)
(0 0.030699066 0.47130966)
(0 0.040778608 0.57387884)
(0 0.036504914 0.56673953)
(0 0.030611807 0.54526186)
(0 0.026647568 0.53359306)
(0 0.02352082 0.52696365)
(0 0.020691849 0.52214084)
(0 0.018166899 0.51841516)
(0 0.01590337 0.51552286)
(0 0.013866978 0.5132634)
(0 0.012026343 0.51148664)
(0 0.010351056 0.5100839)
(0 0.008814957 0.50897598)
(0 0.0073945344 0.50810431)
(0 0.0060687051 0.50742549)
(0 0.0048185364 0.50690744)
(0 0.0036268281 0.50652676)
(0 0.0024777441 0.5062669)
(0 0.0013564494 0.50611692)
(0 0.00024877974 0.5060707)
(0 -0.00085913327 0.50612647)
(0 -0.0019812272 0.50628679)
(0 -0.003131741 0.50655863)
(0 -0.004325644 0.50695391)
(0 -0.0055789779 0.50749036)
(0 -0.0069092024 0.50819289)
(0 -0.0083356116 0.50909553)
(0 -0.0098796778 0.51024436)
(0 -0.011565237 0.51170162)
(0 -0.013419944 0.51355227)
(0 -0.015473539 0.51591322)
(0 -0.017756602 0.51894194)
(0 -0.020317034 0.5228461)
(0 -0.023151025 0.52809072)
(0 -0.026574658 0.5368661)
(0 -0.03146701 0.55366812)
(0 -0.035846482 0.56270657)
(0 -0.030436134 0.47838676)
(0 -0.0037264389 0.19453177)
(0 -0.00040749247 0.16251807)
(0 0.025159758 0.45317217)
(0 0.037316943 0.56991037)
(0 0.035157983 0.57115873)
(0 0.029859009 0.54986637)
(0 0.026153758 0.5369985)
(0 0.023287036 0.52983775)
(0 0.020672022 0.52473288)
(0 0.018294352 0.52075909)
(0 0.016126836 0.51764322)
(0 0.014148566 0.51518866)
(0 0.012336552 0.51324371)
(0 0.010667642 0.51169751)
(0 0.0091213038 0.51046866)
(0 0.0076782797 0.50949654)
(0 0.0063207901 0.50873591)
(0 0.0050324313 0.50815311)
(0 0.0037979482 0.50772344)
(0 0.0026030305 0.50742935)
(0 0.0014340772 0.50725917)
(0 0.00027797437 0.50720637)
(0 -0.00087817265 0.50726907)
(0 -0.0020473206 0.50744997)
(0 -0.003242628 0.50775654)
(0 -0.0044777872 0.50820144)
(0 -0.0057672482 0.50880347)
(0 -0.0071264339 0.50958888)
(0 -0.0085719903 0.51059337)
(0 -0.010121991 0.51186492)
(0 -0.011795786 0.51346793)
(0 -0.013615122 0.5154896)
(0 -0.015603034 0.51804914)
(0 -0.017779857 0.52130343)
(0 -0.020179519 0.52546286)
(0 -0.022805367 0.53112325)
(0 -0.026005528 0.54085463)
(0 -0.03049551 0.55795792)
(0 -0.033360796 0.56058476)
(0 -0.025933604 0.462551)
(0 -0.001939914 0.1795021)
(0 -0.0010326636 0.15197823)
(0 0.020485998 0.43601448)
(0 0.033897287 0.56439562)
(0 0.033588062 0.57428199)
(0 0.028963712 0.55401875)
(0 0.025503096 0.54014785)
(0 0.02287034 0.53247378)
(0 0.020465996 0.527138)
(0 0.018243613 0.52297132)
(0 0.016185411 0.51967552)
(0 0.014281181 0.51705958)
(0 0.012514925 0.51497255)
(0 0.01086973 0.51330293)
(0 0.0093300264 0.51196835)
(0 0.0078805109 0.51090718)
(0 0.0065066082 0.51007318)
(0 0.0051944665 0.50943175)
(0 0.0039308837 0.50895736)
(0 0.0027032325 0.50863178)
(0 0.0014993313 0.50844289)
(0 0.00030731746 0.50838386)
(0 -0.00088452294 0.50845271)
(0 -0.0020879569 0.50865228)
(0 -0.0033148629 0.50899033)
(0 -0.0045774701 0.50948005)
(0 -0.0058884814 0.51014094)
(0 -0.0072611792 0.51100009)
(0 -0.008709536 0.51209417)
(0 -0.010248321 0.51347224)
(0 -0.011892756 0.51519979)
(0 -0.013659258 0.51736503)
(0 -0.015564921 0.52008756)
(0 -0.017621647 0.52352177)
(0 -0.019852771 0.52788869)
(0 -0.022275824 0.533941)
(0 -0.025257402 0.5445079)
(0 -0.029277157 0.56124606)
(0 -0.030728654 0.55697951)
(0 -0.021879412 0.44723577)
(0 -0.00075555086 0.16735007)
(0 -0.0012533942 0.14371317)
(0 0.016663462 0.42005451)
(0 0.03067863 0.55779405)
(0 0.031914623 0.57623137)
(0 0.028000296 0.55770911)
(0 0.024769875 0.54306542)
(0 0.022337424 0.5348937)
(0 0.020129301 0.52936166)
(0 0.018060277 0.52504768)
(0 0.01611594 0.5216103)
(0 0.014294184 0.51886365)
(0 0.012584567 0.51665914)
(0 0.010975274 0.5148856)
(0 0.0094549085 0.51346055)
(0 0.008011671 0.51232213)
(0 0.0066339261 0.51142373)
(0 0.0053102511 0.5107303)
(0 0.0040294752 0.51021592)
(0 0.0027806969 0.50986198)
(0 0.0015532385 0.50965609)
(0 0.00033659578 0.50959122)
(0 -0.00087964592 0.50966537)
(0 -0.0021059447 0.50988142)
(0 -0.0033527922 0.51024733)
(0 -0.004630873 0.51077658)
(0 -0.005951101 0.51148903)
(0 -0.0073246458 0.51241222)
(0 -0.0087629303 0.51358324)
(0 -0.01027767 0.51505156)
(0 -0.01188044 0.51688299)
(0 -0.013583091 0.51916582)
(0 -0.015397678 0.5220187)
(0 -0.017329411 0.52559276)
(0 -0.019394855 0.53013006)
(0 -0.021631084 0.53655454)
(0 -0.024403255 0.54780391)
(0 -0.027914942 0.56357595)
(0 -0.028117376 0.55225132)
(0 -0.018346831 0.43270384)
(0 -2.036179e-05 0.15754408)
(0 -0.0012435644 0.1371762)
(0 0.013611654 0.4053776)
(0 0.027741338 0.55048086)
(0 0.030225474 0.57715661)
(0 0.027020569 0.56094392)
(0 0.024007443 0.54577488)
(0 0.021740432 0.53712425)
(0 0.019707247 0.53141665)
(0 0.017782719 0.52699111)
(0 0.015950495 0.52344482)
(0 0.014213988 0.52059441)
(0 0.012566914 0.51829462)
(0 0.011001425 0.51643525)
(0 0.0095094921 0.51493429)
(0 0.0080822851 0.51373015)
(0 0.0067107522 0.51277629)
(0 0.005385685 0.51203765)
(0 0.0040978305 0.51148818)
(0 0.0028379678 0.51110916)
(0 0.0015969248 0.51088807)
(0 0.0003655857 0.51081781)
(0 -0.00086512332 0.51089635)
(0 -0.0021043084 0.51112659)
(0 -0.0033610474 0.51151656)
(0 -0.0046444808 0.51207986)
(0 -0.0059637819 0.51283646)
(0 -0.0073281269 0.513814)
(0 -0.0087466119 0.51504959)
(0 -0.010228245 0.5165926)
(0 -0.011781509 0.51850861)
(0 -0.01341451 0.52088537)
(0 -0.015135258 0.52383962)
(0 -0.016944005 0.52751982)
(0 -0.018854243 0.53220042)
(0 -0.02092535 0.53897773)
(0 -0.023499457 0.55073581)
(0 -0.026491302 0.56503091)
(0 -0.025634703 0.54671775)
(0 -0.01534751 0.41910253)
(0 0.00039758957 0.14962834)
(0 -0.0011157095 0.1319278)
(0 0.011219327 0.39197743)
(0 0.02511252 0.54274889)
(0 0.028578959 0.57721298)
(0 0.02605725 0.56374322)
(0 0.023251078 0.54829929)
(0 0.021117805 0.53919413)
(0 0.019235266 0.53332042)
(0 0.017442191 0.52880953)
(0 0.015716141 0.52518109)
(0 0.014063577 0.52224983)
(0 0.012481142 0.51987415)
(0 0.010963933 0.51794517)
(0 0.009506512 0.51638166)
(0 0.0081024659 0.51512261)
(0 0.0067449305 0.51412186)
(0 0.0054266429 0.51334459)
(0 0.0041400948 0.51276487)
(0 0.0028776386 0.51236403)
(0 0.0016315473 0.51212955)
(0 0.0003940616 0.51205435)
(0 -0.00084257078 0.51213636)
(0 -0.0020861236 0.5123785)
(0 -0.0033442953 0.51278877)
(0 -0.0046247473 0.51338073)
(0 -0.0059350241 0.51417427)
(0 -0.0072824901 0.51519688)
(0 -0.0086741956 0.51648541)
(0 -0.010116841 0.51808878)
(0 -0.011616389 0.52007199)
(0 -0.013178012 0.52252183)
(0 -0.014806637 0.52555264)
(0 -0.016499234 0.52931205)
(0 -0.018269374 0.534118)
(0 -0.02019872 0.54122723)
(0 -0.02258663 0.55331099)
(0 -0.025067198 0.5657153)
(0 -0.02334103 0.54064328)
(0 -0.01285311 0.4064918)
(0 0.00060174797 0.14321087)
(0 -0.00093878917 0.12762374)
(0 0.0093681495 0.37978956)
(0 0.022787352 0.53481698)
(0 0.027010134 0.57654551)
(0 0.025128896 0.56613411)
(0 0.022521939 0.55065918)
(0 0.020496028 0.54113114)
(0 0.018739708 0.53509272)
(0 0.017063141 0.530514)
(0 0.015434909 0.52682446)
(0 0.013862293 0.52383123)
(0 0.012343858 0.52139604)
(0 0.010876784 0.51941154)
(0 0.0094575304 0.51779735)
(0 0.0080815762 0.51649319)
(0 0.0067438465 0.51545345)
(0 0.0054387358 0.51464372)
(0 0.0041602726 0.51403832)
(0 0.0029022361 0.51361878)
(0 0.0016582399 0.51337268)
(0 0.00042180392 0.51329296)
(0 -0.00081356839 0.51337758)
(0 -0.0020543842 0.5136294)
(0 -0.0033070436 0.51405636)
(0 -0.0045778383 0.51467186)
(0 -0.0058728384 0.5154956)
(0 -0.0071978139 0.51655472)
(0 -0.0085580754 0.51788562)
(0 -0.0099584277 0.51953659)
(0 -0.01140286 0.52157186)
(0 -0.012894345 0.52407702)
(0 -0.014435587 0.52716396)
(0 -0.016021809 0.53098232)
(0 -0.017669107 0.5359032)
(0 -0.019479016 0.54332033)
(0 -0.021692301 0.5555461)
(0 -0.023684864 0.56573825)
(0 -0.021263164 0.53423783)
(0 -0.010812716 0.3948696)
(0 0.00066845272 0.13796108)
(0 -0.00075295753 0.12400546)
(0 0.0079463332 0.36871875)
(0 0.020743675 0.52684345)
(0 0.025536913 0.57528195)
(0 0.024244429 0.56814595)
(0 0.021831189 0.55287113)
(0 0.019892155 0.54295986)
(0 0.018239296 0.53675329)
(0 0.01666399 0.53211698)
(0 0.015124133 0.52838219)
(0 0.013625909 0.52534205)
(0 0.012169018 0.52286085)
(0 0.010752035 0.52083272)
(0 0.0093727334 0.51917811)
(0 0.0080280195 0.51783748)
(0 0.0067142352 0.51676584)
(0 0.0054271472 0.51592924)
(0 0.0041621019 0.51530239)
(0 0.0029141364 0.51486704)
(0 0.0016780739 0.51461094)
(0 0.00044860566 0.51452711)
(0 -0.00077960712 0.51461352)
(0 -0.002011904 0.51487297)
(0 -0.0032534983 0.51531327)
(0 -0.0045094495 0.51594763)
(0 -0.0057845314 0.51679542)
(0 -0.0070831503 0.51788338)
(0 -0.0084091824 0.51924733)
(0 -0.0097659277 0.52093487)
(0 -0.011155896 0.52300938)
(0 -0.012580487 0.52555523)
(0 -0.014040906 0.52868208)
(0 -0.015531991 0.53254519)
(0 -0.017074084 0.53757605)
(0 -0.018784376 0.54527301)
(0 -0.020833841 0.55746268)
(0 -0.022371159 0.56520376)
(0 -0.019405456 0.52766239)
(0 -0.0091649617 0.38419494)
(0 0.00065184374 0.13361006)
(0 -0.00057986655 0.12088515)
(0 0.0068558707 0.35865749)
(0 0.018951437 0.51893973)
(0 0.024165245 0.57353141)
(0 0.023406475 0.56980805)
(0 0.021183277 0.55494769)
(0 0.019316237 0.54470058)
(0 0.017746749 0.53832041)
(0 0.016258167 0.53363102)
(0 0.014797055 0.52986235)
(0 0.013366935 0.52678703)
(0 0.011968041 0.52427064)
(0 0.010599809 0.52220867)
(0 0.009260862 0.5205223)
(0 0.0079491399 0.51915262)
(0 0.0066620729 0.51805526)
(0 0.0053965343 0.51719677)
(0 0.0041489735 0.51655223)
(0 0.0029155106 0.51610369)
(0 0.0016920333 0.51583907)
(0 0.00047427891 0.51575151)
(0 -0.00074205171 0.51583896)
(0 -0.001961249 0.51610418)
(0 -0.0031874695 0.51655482)
(0 -0.0044246921 0.51720384)
(0 -0.0056765794 0.51807027)
(0 -0.0069464022 0.51918036)
(0 -0.0082368882 0.52056937)
(0 -0.0095501847 0.5222842)
(0 -0.010887745 0.52438741)
(0 -0.012249912 0.52696218)
(0 -0.013636982 0.53011657)
(0 -0.015044565 0.53401536)
(0 -0.016498283 0.5391548)
(0 -0.018125601 0.54709919)
(0 -0.020020917 0.55908456)
(0 -0.021140788 0.56420606)
(0 -0.017758207 0.52103721)
(0 -0.0078463532 0.37440504)
(0 0.00058904036 0.12994529)
(0 -0.00042957525 0.11812958)
(0 0.0060155036 0.34949704)
(0 0.017378661 0.51118181)
(0 0.022893438 0.57138535)
(0 0.022613817 0.57114842)
(0 0.020578311 0.55689801)
(0 0.018773289 0.54636933)
(0 0.01727021 0.53981019)
(0 0.015855125 0.53506794)
(0 0.014463513 0.53127305)
(0 0.013095057 0.52817143)
(0 0.011750059 0.52562836)
(0 0.010428415 0.52354047)
(0 0.0091292475 0.52182947)
(0 0.007851209 0.52043699)
(0 0.0065925393 0.5193192)
(0 0.0053509823 0.5184431)
(0 0.0041238897 0.51778418)
(0 0.0029082946 0.51732475)
(0 0.001701001 0.51705293)
(0 0.00049865915 0.51696196)
(0 -0.00070211733 0.51704981)
(0 -0.0019046978 0.51731916)
(0 -0.0031123194 0.5177775)
(0 -0.0043280354 0.51843753)
(0 -0.0055545777 0.51931791)
(0 -0.0067942957 0.52044445)
(0 -0.0080490251 0.52185182)
(0 -0.0093200635 0.5235863)
(0 -0.010608156 0.52570974)
(0 -0.011913001 0.52830428)
(0 -0.013234447 0.5314772)
(0 -0.014569807 0.53540675)
(0 -0.015950418 0.5406553)
(0 -0.017508063 0.54881066)
(0 -0.019257551 0.56043598)
(0 -0.019999426 0.56282753)
(0 -0.016303951 0.51444962)
(0 -0.0067967608 0.36542656)
(0 0.0005045882 0.12680214)
(0 -0.00030519733 0.11564627)
(0 0.0053607427 0.34113383)
(0 0.015994884 0.5036194)
(0 0.021715544 0.56891957)
(0 0.021863212 0.57219309)
(0 0.020013818 0.55872848)
(0 0.018264865 0.54797824)
(0 0.016814444 0.54123638)
(0 0.015461226 0.5364385)
(0 0.014130602 0.53262202)
(0 0.012817595 0.52950063)
(0 0.011522216 0.52693743)
(0 0.010244534 0.52482984)
(0 0.0089839141 0.52309999)
(0 0.0077394735 0.52168988)
(0 0.0065100315 0.52055609)
(0 0.0052939999 0.51966605)
(0 0.0040894537 0.51899556)
(0 0.0028941793 0.51852724)
(0 0.0017057539 0.51824936)
(0 0.00052160879 0.51815528)
(0 -0.00066085789 0.51824297)
(0 -0.0018442242 0.51851504)
(0 -0.0030309444 0.51897882)
(0 -0.0042232951 0.51964674)
(0 -0.0054232471 0.52053714)
(0 -0.0066324209 0.52167537)
(0 -0.0078519814 0.52309564)
(0 -0.0090826289 0.52484365)
(0 -0.010324675 0.5269807)
(0 -0.011577489 0.52958808)
(0 -0.012840829 0.53277336)
(0 -0.0141144 0.53673198)
(0 -0.015435189 0.54209077)
(0 -0.016933297 0.55041707)
(0 -0.018543899 0.56154034)
(0 -0.018946575 0.56113844)
(0 -0.015021867 0.50796107)
(0 -0.0059625399 0.35718302)
(0 0.0004140416 0.12405515)
(0 -0.00020595649 0.11337227)
(0 0.0048421611 0.33347296)
(0 0.014772806 0.49628317)
(0 0.020623722 0.56619656)
(0 0.021150653 0.57296593)
(0 0.019486018 0.56044335)
(0 0.017790304 0.54953602)
(0 0.01638181 0.54261032)
(0 0.015080507 0.53775216)
(0 0.013803252 0.53391635)
(0 0.012539934 0.53077983)
(0 0.011289978 0.52820141)
(0 0.010053428 0.52607897)
(0 0.0088297171 0.52433485)
(0 0.0076182396 0.52291128)
(0 0.0064182116 0.52176514)
(0 0.0052285443 0.52086419)
(0 0.0040478796 0.52018454)
(0 0.0028746144 0.519709)
(0 0.0017069656 0.51942606)
(0 0.00054301936 0.51932913)
(0 -0.00061916459 0.51941619)
(0 -0.001781498 0.5196898)
(0 -0.0029457818 0.52015711)
(0 -0.004113655 0.52083034)
(0 -0.0052864798 0.5217275)
(0 -0.0064653151 0.52287358)
(0 -0.0076508403 0.52430236)
(0 -0.0088433608 0.52605913)
(0 -0.010042961 0.52820476)
(0 -0.011248917 0.53081995)
(0 -0.012461165 0.53401375)
(0 -0.013682261 0.53800208)
(0 -0.014954385 0.54347182)
(0 -0.016400296 0.55192607)
(0 -0.017877717 0.56241937)
(0 -0.017977901 0.55919762)
(0 -0.013890608 0.50161316)
(0 -0.0052978618 0.34959951)
(0 0.00032670975 0.12161047)
(0 -0.00012911694 0.11126539)
(0 0.0044229505 0.32642982)
(0 0.013688839 0.48919036)
(0 0.019609727 0.56326792)
(0 0.020472133 0.57348867)
(0 0.018990676 0.56204532)
(0 0.017347654 0.55104853)
(0 0.015973047 0.54394116)
(0 0.014715311 0.53901708)
(0 0.013484747 0.53516238)
(0 0.012265921 0.53201384)
(0 0.011057432 0.52942382)
(0 0.009859159 0.5272902)
(0 0.0086704964 0.52553539)
(0 0.0074909778 0.52410167)
(0 0.006320076 0.52294614)
(0 0.0051570643 0.52203678)
(0 0.0040010197 0.52134993)
(0 0.0028508235 0.52086861)
(0 0.0017052125 0.52058143)
(0 0.00056281209 0.52048187)
(0 -0.00057777103 0.52056794)
(0 -0.0017178984 0.52084211)
(0 -0.0028588366 0.52131141)
(0 -0.0040017117 0.52198784)
(0 -0.0051474109 0.52288914)
(0 -0.0062965727 0.52404001)
(0 -0.0074495417 0.52547388)
(0 -0.0086063847 0.52723577)
(0 -0.0097671064 0.52938627)
(0 -0.010931062 0.53200578)
(0 -0.012098563 0.53520614)
(0 -0.013275273 0.53922641)
(0 -0.014507799 0.54480663)
(0 -0.015906512 0.55334351)
(0 -0.017255441 0.56309282)
(0 -0.017086982 0.55705386)
(0 -0.012889952 0.49543267)
(0 -0.0047648705 0.34260556)
(0 0.00024766871 0.11939901)
(0 -7.1165111e-05 0.1092974)
(0 0.0040763562 0.31993022)
(0 0.012723044 0.48234894)
(0 0.018665743 0.56017639)
(0 0.019824043 0.5737812)
(0 0.018523626 0.56353611)
(0 0.016934323 0.5525194)
(0 0.015587848 0.54523604)
(0 0.01436679 0.54024016)
(0 0.013177146 0.53636567)
(0 0.011998213 0.53320705)
(0 0.010827555 0.53060801)
(0 0.0096647971 0.52846593)
(0 0.0085092312 0.52670315)
(0 0.0073604357 0.5252619)
(0 0.0062180344 0.52409932)
(0 0.0050815545 0.52318356)
(0 0.0039503982 0.52249112)
(0 0.0028238242 0.52200519)
(0 0.0017009836 0.52171445)
(0 0.00058093752 0.52161248)
(0 -0.00053726395 0.52169727)
(0 -0.0016545366 0.52197123)
(0 -0.0027717186 0.52244126)
(0 -0.0038895323 0.52311922)
(0 -0.0050085035 0.52402261)
(0 -0.0061289671 0.52517589)
(0 -0.007251051 0.52661227)
(0 -0.008374701 0.5283766)
(0 -0.0094999421 0.53052934)
(0 -0.010626323 0.53315093)
(0 -0.011754689 0.5363573)
(0 -0.01289388 0.54041267)
(0 -0.014093943 0.54610124)
(0 -0.015448581 0.5546738)
(0 -0.016672953 0.56357843)
(0 -0.016266538 0.55474741)
(0 -0.012001638 0.48943562)
(0 -0.0043331475 0.33613674)
(0 0.00017920432 0.11737062)
(0 -2.8503782e-05 0.10744925)
(0 0.0037833149 0.31390994)
(0 0.011858777 0.4757605)
(0 0.017784785 0.55695768)
(0 0.019203343 0.57386188)
(0 0.018081064 0.5649169)
(0 0.016547498 0.55395053)
(0 0.01522528 0.54650042)
(0 0.014035289 0.54142713)
(0 0.012881623 0.53753102)
(0 0.011738562 0.53436335)
(0 0.010602455 0.53175706)
(0 0.009472609 0.52960851)
(0 0.0083481877 0.5278398)
(0 0.0072287493 0.526393)
(0 0.0061139924 0.52522522)
(0 0.0050036135 0.52430466)
(0 0.0038972514 0.52360793)
(0 0.0027944524 0.52311832)
(0 0.001694691 0.52282462)
(0 0.00059737364 0.52272042)
(0 -0.00049809693 0.52280371)
(0 -0.0015922832 0.52307685)
(0 -0.0026856868 0.52354667)
(0 -0.0037787197 0.52422484)
(0 -0.0048716409 0.52512875)
(0 -0.0059645752 0.52628265)
(0 -0.0070575241 0.52771964)
(0 -0.0081503976 0.52948452)
(0 -0.009243304 0.53163774)
(0 -0.010336061 0.53426012)
(0 -0.011430162 0.53747302)
(0 -0.012537557 0.54156707)
(0 -0.013710587 0.54735992)
(0 -0.015022826 0.5559202)
(0 -0.01612608 0.56389209)
(0 -0.015509233 0.55231144)
(0 -0.011209697 0.48363028)
(0 -0.0039788119 0.33013516)
(0 0.00012183716 0.11548924)
(0 2.1703558e-06 0.10570762)
(0 0.003530446 0.30831369)
(0 0.011082215 0.46942241)
(0 0.016960814 0.55364172)
(0 0.018607583 0.57374773)
(0 0.017659678 0.56618872)
(0 0.016184406 0.55534262)
(0 0.014884067 0.54773839)
(0 0.013720624 0.54258278)
(0 0.01259873 0.53866255)
(0 0.011488049 0.53548615)
(0 0.010383563 0.53287379)
(0 0.0092842232 0.53072015)
(0 0.0081890516 0.52894702)
(0 0.0070975476 0.52749618)
(0 0.0060094305 0.5263246)
(0 0.004924502 0.52540048)
(0 0.0038425676 0.5247005)
(0 0.0027633867 0.52420798)
(0 0.0016866807 0.52391178)
(0 0.00061212392 0.5238055)
(0 -0.00046060634 0.52388715)
(0 -0.0015317984 0.52415904)
(0 -0.0026016963 0.5246279)
(0 -0.0036704794 0.52530533)
(0 -0.0047382164 0.52620858)
(0 -0.0058048958 0.52736181)
(0 -0.0068704596 0.52879808)
(0 -0.0079348406 0.53056223)
(0 -0.0089982661 0.53271483)
(0 -0.010060868 0.53533747)
(0 -0.011124878 0.53855818)
(0 -0.012205168 0.54269447)
(0 -0.013355137 0.54858548)
(0 -0.01462559 0.55708515)
(0 -0.015610902 0.56404803)
(0 -0.014808169 0.54977337)
(0 -0.010500457 0.47801949)
(0 -0.0036834784 0.32454956)
(0 7.5040716e-05 0.11372911)
(0 2.3695145e-05 0.10406272)
(0 0.0033084422 0.30309408)
(0 0.010381874 0.46332927)
(0 0.016188698 0.55025381)
(0 0.018034845 0.57345464)
(0 0.017256688 0.56735267)
(0 0.015842459 0.5566955)
(0 0.014562779 0.54895289)
(0 0.013422282 0.54371102)
(0 0.01232859 0.5397638)
(0 0.011247265 0.53657848)
(0 0.010171805 0.53396073)
(0 0.0091007701 0.53180296)
(0 0.0080330449 0.53002647)
(0 0.0069680458 0.52857267)
(0 0.0059054771 0.52739836)
(0 0.0048451982 0.52647165)
(0 0.0037871258 0.52576921)
(0 0.0027311725 0.52527439)
(0 0.0016772429 0.52497607)
(0 0.00062521432 0.52486788)
(0 -0.00042502737 0.5249478)
(0 -0.0014735631 0.52521811)
(0 -0.0025204448 0.52568549)
(0 -0.0035656835 0.52636147)
(0 -0.0046092189 0.52726323)
(0 -0.0056509589 0.5284149)
(0 -0.0066908337 0.52984955)
(0 -0.0077288377 0.53161217)
(0 -0.0087653335 0.53376358)
(0 -0.0098007909 0.5363865)
(0 -0.010838248 0.5396168)
(0 -0.011895227 0.54379861)
(0 -0.013024902 0.54977962)
(0 -0.014253439 0.55817055)
(0 -0.015123909 0.56405909)
(0 -0.014157129 0.54715591)
(0 -0.00986237 0.47260239)
(0 -0.0034332216 0.31933491)
(0 3.7731539e-05 0.11207179)
(0 3.8397571e-05 0.10250686)
(0 0.0031108403 0.29821048)
(0 0.009748174 0.45747387)
(0 0.015464092 0.54681538)
(0 0.017483652 0.57299752)
(0 0.016869816 0.56841009)
(0 0.015519327 0.55800848)
(0 0.014259954 0.55014599)
(0 0.013139562 0.54481505)
(0 0.012071038 0.54083779)
(0 0.011016451 0.53764295)