/*--------------------------------*- C++ -*----------------------------------*\
  =========                 |
  \\      /  F ield         | OpenFOAM: The Open Source CFD Toolbox
   \\    /   O peration     | Website:  https://openfoam.org
    \\  /    A nd           | Version:  10
     \\/     M anipulation  |
\*---------------------------------------------------------------------------*/
FoamFile
{
    format      ascii;
    class       surfaceScalarField;
    location    "0.02";
    object      phi;
}
// * * * * * * * * * * * * * * * * * * * * * * * * * * * * * * * * * * * * * //

dimensions      [1 0 -1 0 0 0 0];

internalField   nonuniform List<scalar> 
7860
(
3.901402e-08
5.2969748e-07
1.1843383e-08
5.9587439e-07
7.1385933e-09
5.7341268e-07
5.1612183e-09
5.7068519e-07
3.7985849e-09
5.7007039e-07
2.9228057e-09
5.6958352e-07
2.3163025e-09
5.6931422e-07
1.8692274e-09
5.6915478e-07
1.5290213e-09
5.690479e-07
1.2627751e-09
5.6897393e-07
1.0488164e-09
5.6892164e-07
8.7271233e-10
5.6888378e-07
7.2449852e-10
5.6885588e-07
5.9707995e-10
5.6883509e-07
4.8527384e-10
5.6881947e-07
3.851933e-10
5.6880774e-07
2.9383899e-10
5.6879901e-07
2.0882013e-10
5.6879268e-07
1.2815659e-10
5.6878832e-07
5.0132266e-11
5.6878568e-07
-2.6823203e-11
5.6878461e-07
-1.0423563e-10
5.6878507e-07
-1.8368283e-10
5.687871e-07
-2.6689843e-10
5.6879087e-07
-3.5589826e-10
5.6879666e-07
-4.531412e-10
5.688049e-07
-5.6175126e-10
5.6881627e-07
-6.8583883e-10
5.6883175e-07
-8.3098183e-10
5.6885281e-07
-1.00497e-09
5.6888166e-07
-1.219037e-09
5.6892175e-07
-1.4899995e-09
5.6897865e-07
-1.8434656e-09
5.6906116e-07
-2.3202693e-09
5.6918451e-07
-3.0040074e-09
5.6939146e-07
-4.066192e-09
5.6976992e-07
-5.6458377e-09
5.702874e-07
-9.1105537e-09
5.721725e-07
-2.873442e-08
5.8833169e-07
5.3997358e-07
5.8124838e-08
4.7160526e-07
3.5078144e-08
6.18909e-07
2.1371607e-08
5.8711571e-07
1.510973e-08
5.7694716e-07
1.1272229e-08
5.7390792e-07
8.7175334e-09
5.7213822e-07
6.9092846e-09
5.7112248e-07
5.5782444e-09
5.7048583e-07
4.5668441e-09
5.7005931e-07
3.7747512e-09
5.6976604e-07
3.137632e-09
5.6955877e-07
2.6126481e-09
5.6940877e-07
2.1701886e-09
5.6929835e-07
1.789219e-09
5.6921606e-07
1.4544014e-09
5.691543e-07
1.1542464e-09
5.6910791e-07
8.7989637e-10
5.6907337e-07
6.2429614e-10
5.6904829e-07
3.8160563e-10
5.6903102e-07
1.4676359e-10
5.6902053e-07
-8.4857389e-11
5.6901624e-07
-3.1774845e-10
5.6901797e-07
-5.5655157e-10
5.6902592e-07
-8.0636933e-10
5.690407e-07
-1.073131e-09
5.6906343e-07
-1.3640701e-09
5.6909585e-07
-1.688384e-09
5.691406e-07
-2.0581884e-09
5.6920157e-07
-2.4899576e-09
5.6928459e-07
-3.006762e-09
5.6939848e-07
-3.6418725e-09
5.6955687e-07
-4.4451102e-09
5.697819e-07
-5.4941541e-09
5.7011021e-07
-6.9114709e-09
5.7060183e-07
-8.9050871e-09
5.7138508e-07
-1.1896325e-08
5.7276117e-07
-1.6728142e-08
5.7511923e-07
-2.6526286e-08
5.8197066e-07
-4.4114163e-08
6.0591958e-07
4.9585942e-07
5.7483634e-08
4.1421229e-07
4.7348362e-08
6.2903997e-07
3.0941965e-08
6.0350855e-07
2.273691e-08
5.8515121e-07
1.7505273e-08
5.7913969e-07
1.377046e-08
5.7587305e-07
1.1032481e-08
5.7386047e-07
8.9794745e-09
5.7253885e-07
7.3971377e-09
5.7164166e-07
6.1441859e-09
5.71019e-07
5.1275424e-09
5.7057542e-07
4.2835686e-09
5.7025276e-07
3.5676058e-09
5.7001433e-07
2.9476071e-09
5.6983607e-07
2.4000032e-09
5.6970191e-07
1.9070105e-09
5.6960091e-07
1.4548331e-09
5.6952556e-07
1.0324226e-09
5.6947071e-07
6.3059152e-10
5.6943286e-07
2.4134903e-10
5.6940978e-07
-1.4262183e-10
5.6940022e-07
-5.2842065e-10
5.6940378e-07
-9.2337119e-10
5.6942087e-07
-1.3354932e-09
5.6945283e-07
-1.7740558e-09
5.69502e-07
-2.2502976e-09
5.695721e-07
-2.7784097e-09
5.6966872e-07
-3.3769439e-09
5.6980011e-07
-4.0709049e-09
5.6997856e-07
-4.8949532e-09
5.7022253e-07
-5.8983457e-09
5.7056027e-07
-7.1529433e-09
5.710365e-07
-8.7675802e-09
5.7172486e-07
-1.0907775e-08
5.7274204e-07
-1.3814262e-08
5.7429158e-07
-1.787236e-08
5.7681927e-07
-2.4037621e-08
5.812845e-07
-3.5682102e-08
5.9361514e-07
-4.5262351e-08
6.1549983e-07
4.5059708e-07
5.1283993e-08
3.6308834e-07
5.2335407e-08
6.2800915e-07
3.6486988e-08
6.1932644e-07
2.7570767e-08
5.9406254e-07
2.1911643e-08
5.8479922e-07
1.7649247e-08
5.8013555e-07
1.4388864e-08
5.7712086e-07
1.186693e-08
5.7506079e-07
9.8744867e-09
5.7363411e-07
8.2664663e-09
5.7262703e-07
6.9416677e-09
5.7190023e-07
5.8277711e-09
5.7136666e-07
4.8726008e-09
5.709695e-07
4.0378851e-09
5.706708e-07
3.2949564e-09
5.7044485e-07
2.6218532e-09
5.7027402e-07
2.0013141e-09
5.7014611e-07
1.4193598e-09
5.7005267e-07
8.6425593e-10
5.6998797e-07
3.2572409e-10
5.6994832e-07
-2.0567805e-10
5.6993163e-07
-7.3911812e-10
5.6993723e-07
-1.2840205e-09
5.6996579e-07
-1.8506292e-09
5.7001945e-07
-2.4506662e-09
5.7010205e-07
-3.0981689e-09
5.7021961e-07
-3.8106112e-09
5.7038117e-07
-4.6104663e-09
5.7059998e-07
-5.5274485e-09
5.7089555e-07
-6.6018216e-09
5.7129692e-07
-7.889226e-09
5.7184768e-07
-9.4673568e-09
5.7261464e-07
-1.1447153e-08
5.7370467e-07
-1.398924e-08
5.7528413e-07
-1.7300071e-08
5.7760242e-07
-2.1663822e-08
5.8118303e-07
-2.8196287e-08
5.8781697e-07
-3.9685925e-08
6.0510479e-07
-4.2168304e-08
6.1798222e-07
4.0842878e-07
4.3329253e-08
3.2007041e-07
5.2648832e-08
6.1877132e-07
3.9414257e-08
6.3251159e-07
3.0292714e-08
6.0317147e-07
2.4630277e-08
5.9046223e-07
2.0303833e-08
5.8446229e-07
1.6875859e-08
5.8054885e-07
1.4132409e-08
5.7780425e-07
1.1900609e-08
5.7586592e-07
1.0055542e-08
5.744721e-07
8.5044846e-09
5.734513e-07
7.1780811e-09
5.7269307e-07
6.024481e-09
5.7212311e-07
5.0043974e-09
5.7169089e-07
4.0875812e-09
5.7136167e-07
3.2503105e-09
5.711113e-07
2.4735579e-09
5.7092287e-07
1.7416424e-09
5.7078459e-07
1.041211e-09
5.7068841e-07
3.6044212e-10
5.706291e-07
-3.1158414e-10
5.7060367e-07
-9.8547904e-10
5.7061113e-07
-1.6721004e-09
5.7065242e-07
-2.383124e-09
5.7073048e-07
-3.1317117e-09
5.7085064e-07
-3.9333279e-09
5.7102124e-07
-4.8067966e-09
5.7125465e-07
-5.7757172e-09
5.715689e-07
-6.8703805e-09
5.7199023e-07
-8.1304455e-09
5.7255699e-07
-9.6087067e-09
5.7332595e-07
-1.1375591e-08
5.7438154e-07
-1.3525474e-08
5.7585456e-07
-1.6190613e-08
5.7794928e-07
-1.9540616e-08
5.8095243e-07
-2.3853608e-08
5.8549603e-07
-3.0400609e-08
5.9436398e-07
-4.0411636e-08
6.1511583e-07
-3.7063595e-08
6.1463419e-07
3.7136519e-07
3.4488553e-08
2.8634261e-07
4.9001994e-08
6.0453723e-07
4.000238e-08
6.4146041e-07
3.1472477e-08
6.1167555e-07
2.6102394e-08
5.958315e-07
2.1993184e-08
5.8857194e-07
1.8630524e-08
5.8391155e-07
1.5844365e-08
5.8059041e-07
1.3507532e-08
5.7820276e-07
1.1523577e-08
5.7645607e-07
9.8168226e-09
5.7515806e-07
8.3284535e-09
5.7418145e-07
7.012648e-09
5.7343893e-07
5.8332368e-09
5.7287031e-07
4.7613596e-09
5.7243356e-07
3.7736592e-09
5.7209901e-07
2.8508758e-09
5.7184566e-07
1.9767577e-09
5.7165872e-07
1.1371977e-09
5.7152798e-07
3.1953083e-10
5.7144678e-07
-4.8803648e-10
5.7141124e-07
-1.2969784e-09
5.7142008e-07
-2.1189659e-09
5.7147441e-07
-2.966383e-09
5.7157791e-07
-3.8529194e-09
5.7173719e-07
-4.7942566e-09
5.7196259e-07
-5.8089107e-09
5.7226931e-07
-6.9192992e-09
5.726793e-07
-8.153076e-09
5.7322401e-07
-9.5448591e-09
5.7394878e-07
-1.1138648e-08
5.7491975e-07
-1.2990786e-08
5.7623368e-07
-1.5172381e-08
5.7803616e-07
-1.7779014e-08
5.8055593e-07
-2.0941075e-08
5.841145e-07
-2.494412e-08
5.8949909e-07
-3.0934824e-08
6.003547e-07
-3.8099641e-08
6.2228065e-07
-3.0288519e-08
6.0682307e-07
3.4107668e-07
2.5628184e-08
2.6227345e-07
4.2602613e-08
5.8827692e-07
3.8499328e-08
6.4555264e-07
3.153218e-08
6.1859272e-07
2.6809326e-08
6.0054777e-07
2.3125234e-08
5.9225633e-07
1.9981511e-08
5.8705539e-07
1.7267992e-08
5.8330395e-07
1.4913861e-08
5.805569e-07
1.2856461e-08
5.7851348e-07
1.1041894e-08
5.7697264e-07
9.4259303e-09
5.7579743e-07
7.9719951e-09
5.7489287e-07
6.6496224e-09
5.7419269e-07
5.4333572e-09
5.7364983e-07
4.3017428e-09
5.7323063e-07
3.2364549e-09
5.7291096e-07
2.2215686e-09
5.7267362e-07
1.2429322e-09
5.7250663e-07
2.876248e-10
5.7240209e-07
-6.5651382e-10
5.7235539e-07
-1.6013354e-09
5.7236491e-07
-2.5588126e-09
5.724319e-07
-3.5414638e-09
5.7256057e-07
-4.5628136e-09
5.7275855e-07
-5.6378885e-09
5.7303767e-07
-6.7837722e-09
5.734152e-07
-8.0202419e-09
5.7391578e-07
-9.3704602e-09
5.7457424e-07
-1.0861717e-08
5.7544005e-07
-1.2526319e-08
5.7658436e-07
-1.4403048e-08
5.7811042e-07
-1.6535958e-08
5.8016908e-07
-1.8974962e-08
5.8299494e-07
-2.1793131e-08
5.8693268e-07
-2.5216043e-08
5.9292201e-07
-2.9928751e-08
6.0506741e-07
-3.3372194e-08
6.2572411e-07
-2.2523478e-08
5.9597437e-07
3.1855321e-07
1.758453e-08
2.4705703e-07
3.5009852e-08
5.7217602e-07
3.5618569e-08
6.4500777e-07
3.0980042e-08
6.2313771e-07
2.7218941e-08
6.0428896e-07
2.4104399e-08
5.9537065e-07
2.1284799e-08
5.8987537e-07
1.8722632e-08
5.8586616e-07
1.6410223e-08
5.8286932e-07
1.4323577e-08
5.8060013e-07
1.2434064e-08
5.7886216e-07
1.071426e-08
5.7751724e-07
9.1385459e-09
5.764686e-07
7.6836507e-09
5.756476e-07
6.3287848e-09
5.7500471e-07
5.0554432e-09
5.7450398e-07
3.8471093e-09
5.741193e-07
2.6889103e-09
5.7383182e-07
1.5672616e-09
5.7362829e-07
4.695176e-10
5.7349985e-07
-6.1637439e-10
5.7344129e-07
-1.702191e-09
5.7345074e-07
-2.7997462e-09
5.7352946e-07
-3.9212072e-09
5.7368204e-07
-5.0793936e-09
5.7391674e-07
-6.2880665e-09
5.7424635e-07
-7.5621811e-09
5.7468933e-07
-8.9180818e-09
5.7527169e-07
-1.0373562e-08
5.7602973e-07
-1.194766e-08
5.7701416e-07
-1.3659864e-08
5.7829658e-07
-1.5529417e-08
5.7997999e-07
-1.7570947e-08
5.8221062e-07
-1.9784555e-08
5.8520856e-07
-2.2175764e-08
5.893239e-07
-2.4834603e-08
5.9558086e-07
-2.7739089e-08
6.0797191e-07
-2.7308167e-08
6.2529319e-07
-1.4797712e-08
5.8346392e-07
3.0375551e-07
1.09922e-08
2.3885465e-07
2.7457112e-08
5.5760169e-07
3.2077089e-08
6.4051869e-07
3.0147544e-08
6.2490915e-07
2.7548537e-08
6.0684669e-07
2.5080948e-08
5.9783722e-07
2.2653961e-08
5.923033e-07
2.0307219e-08
5.8821303e-07
1.809157e-08
5.8508498e-07
1.6021743e-08
5.8266997e-07
1.4095398e-08
5.8078851e-07
1.2302652e-08
5.7930999e-07
1.0629698e-08
5.7814156e-07
9.061372e-09
5.7721593e-07
7.5824262e-09
5.7648366e-07
6.178137e-09
5.7590828e-07
4.834563e-09
5.7546288e-07
3.5385819e-09
5.7512781e-07
2.2778113e-09
5.7488907e-07
1.0404632e-09
5.747372e-07
-1.8485523e-10
5.7466662e-07
-1.4093169e-09
5.7467521e-07
-2.644056e-09
5.7476421e-07
-3.9003533e-09
5.7493834e-07
-5.1897741e-09
5.7520617e-07
-6.5242506e-09
5.7558084e-07
-7.9160452e-09
5.7608113e-07
-9.3775285e-09
5.7673318e-07
-1.0920654e-08
5.7757286e-07
-1.2555903e-08
5.7864942e-07
-1.429002e-08
5.800307e-07
-1.6122817e-08
5.8181279e-07
-1.8041018e-08
5.8412883e-07
-2.0001083e-08
5.8716863e-07
-2.1942445e-08
5.9126527e-07
-2.3774267e-08
5.9741269e-07
-2.4713583e-08
6.0891124e-07
-2.0947764e-08
6.2152739e-07
-8.2172044e-09
5.7073338e-07
2.9553832e-07
6.2342808e-09
2.3537598e-07
2.0709255e-08
5.4533701e-07
2.8248492e-08
6.3313194e-07
2.8930318e-08
6.2400022e-07
2.7567418e-08
6.0814404e-07
2.5786304e-08
5.9961626e-07
2.3804038e-08
5.942873e-07
2.173926e-08
5.9027806e-07
1.9688756e-08
5.8713548e-07
1.7700841e-08
5.8465789e-07
1.5797414e-08
5.8269195e-07
1.3985343e-08
5.8112207e-07
1.2262755e-08
5.7986416e-07
1.062309e-08
5.7885561e-07
9.0573142e-09
5.7804945e-07
7.5552304e-09
5.7741037e-07
6.1062269e-09
5.769119e-07
4.6996691e-09
5.7653438e-07
3.3250829e-09
5.7626366e-07
1.9722122e-09
5.7609008e-07
6.3098575e-10
5.7600786e-07
-7.0852131e-10
5.7601472e-07
-2.0561308e-09
5.7611183e-07
-3.4215915e-09
5.7630381e-07
-4.8145635e-09
5.7659916e-07
-6.2445076e-09
5.7701079e-07
-7.7203759e-09
5.7755701e-07
-9.2500286e-09
5.7826285e-07
-1.0839219e-08
5.7916206e-07
-1.2489851e-08
5.8030006e-07
-1.41968e-08
5.8173766e-07
-1.5942586e-08
5.8355859e-07
-1.7690416e-08
5.8587667e-07
-1.936482e-08
5.8884305e-07
-2.0845563e-08
5.9274602e-07
-2.1865938e-08
5.9843308e-07
-2.1077958e-08
6.0812327e-07
-1.5063481e-08
6.1551292e-07
-3.5351896e-09
5.592051e-07
2.9200315e-07
3.3467002e-09
2.3451539e-07
1.5193872e-08
5.3572958e-07
2.4251049e-08
6.2421261e-07
2.6976287e-08
6.210045e-07
2.6785516e-08
6.0825182e-07
2.5707666e-08
6.0069087e-07
2.421812e-08
5.9577921e-07
2.2507406e-08
5.9198915e-07
2.0703347e-08
5.8893954e-07
1.888019e-08
5.8648105e-07
1.7080001e-08
5.8449215e-07
1.532452e-08
5.8287757e-07
1.3623234e-08
5.8156545e-07
1.1978241e-08
5.8050061e-07
1.0387124e-08
5.7964057e-07
8.8447986e-09
5.7895271e-07
7.3446467e-09
5.7841206e-07
5.879211e-09
5.7799983e-07
4.4406173e-09
5.7770226e-07
3.020824e-09
5.7750989e-07
1.6117571e-09
5.7741693e-07
2.0541609e-10
5.7742107e-07
-1.2060409e-09
5.775233e-07
-2.6301822e-09
5.7772797e-07
-4.0740564e-09
5.7804304e-07
-5.5440407e-09
5.7848079e-07
-7.0451702e-09
5.7905815e-07
-8.5803236e-09
5.7979801e-07
-1.0148847e-08
5.807306e-07
-1.1744316e-08
5.8189554e-07
-1.3350972e-08
5.8334433e-07
-1.4937201e-08
5.8514483e-07
-1.6447778e-08
5.8738726e-07
-1.7786813e-08
5.9018209e-07
-1.8787826e-08
5.9374705e-07
-1.9063807e-08
5.9870907e-07
-1.7072206e-08
6.0613168e-07
-1.0153502e-08
6.0859423e-07
-8.977276e-10
5.4994934e-07
2.9110543e-07
2.0057601e-09
2.3473289e-07
1.1094356e-08
5.2872462e-07
2.0209503e-08
6.1522847e-07
2.4120081e-08
6.1682798e-07
2.4895446e-08
6.0739045e-07
2.4494285e-08
6.0108784e-07
2.3525777e-08
5.9675021e-07
2.2227743e-08
5.9328763e-07
2.0744074e-08
5.9042321e-07
1.9166215e-08
5.8805891e-07
1.7551157e-08
5.8610721e-07
1.5932871e-08
5.8449586e-07
1.4330916e-08
5.8316742e-07
1.275553e-08
5.82076e-07
1.1210884e-08
5.8118523e-07
9.6972447e-09
5.8046636e-07
8.2123776e-09
5.7989693e-07
6.7524744e-09
5.7945974e-07
5.3127718e-09
5.7914197e-07
3.8879728e-09
5.7893469e-07
2.4725368e-09
5.7883238e-07
1.0609244e-09
5.788327e-07
-3.521864e-10
5.7893642e-07
-1.7717052e-09
5.7914749e-07
-3.2014997e-09
5.7947284e-07
-4.6445172e-09
5.7992381e-07
-6.1014952e-09
5.8051514e-07
-7.5701982e-09
5.8126672e-07
-9.0437548e-09
5.8220416e-07
-1.0508167e-08
5.8335996e-07
-1.1938689e-08
5.8477486e-07
-1.3293272e-08
5.8649942e-07
-1.4504052e-08
5.8859805e-07
-1.5464844e-08
5.911429e-07
-1.5986662e-08
5.9426888e-07
-1.5643622e-08
5.9836604e-07
-1.306244e-08
6.0355051e-07
-6.4540178e-09
6.0198582e-07
2.476464e-10
5.4324769e-07
2.913531e-07
1.6868029e-09
2.351227e-07
8.3622869e-09
5.2393549e-07
1.638895e-08
6.0736478e-07
2.0621377e-08
6.1237951e-07
2.2051706e-08
6.0588546e-07
2.2232165e-08
6.0090284e-07
2.1764753e-08
5.9721969e-07
2.0896488e-08
5.9415631e-07
1.977277e-08
5.9154693e-07
1.8492571e-08
5.8933911e-07
1.7121631e-08
5.8747816e-07
1.5702642e-08
5.8591486e-07
1.4263118e-08
5.8460695e-07
1.2820225e-08
5.8351891e-07
1.1384093e-08
5.8262137e-07
9.9600731e-09
5.8189039e-07
8.5502764e-09
5.8130674e-07
7.1546488e-09
5.8085537e-07
5.7717307e-09
5.805249e-07
4.3992113e-09
5.8030722e-07
3.0343489e-09
5.8019725e-07
1.6743305e-09
5.8019272e-07
3.1663067e-10
5.8029413e-07
-1.04061e-09
5.8050474e-07
-2.3985891e-09
5.8083083e-07
-3.7561275e-09
5.8128136e-07
-5.1099753e-09
5.8186899e-07
-6.4532104e-09
5.8260997e-07
-7.7735683e-09
5.8352453e-07
-9.0509973e-09
5.846374e-07
-1.0254205e-08
5.8597808e-07
-1.1335057e-08
5.8758028e-07
-1.2220209e-08
5.8948321e-07
-1.280297e-08
5.9172567e-07
-1.290062e-08
5.9436654e-07
-1.2124302e-08
5.9758974e-07
-9.4789776e-09
6.009052e-07
-3.9982898e-09
5.9650515e-07
4.0803197e-10
5.3884138e-07
2.9176114e-07
1.8484062e-09
2.3530999e-07
6.7398664e-09
5.2078299e-07
1.3110589e-08
6.012207e-07
1.703068e-08
6.0831529e-07
1.8777599e-08
6.0408292e-07
1.9381987e-08
6.0029423e-07
1.9336273e-08
5.9726679e-07
1.8859935e-08
5.9463296e-07
1.8086769e-08
5.9232011e-07
1.7113438e-08
5.9031244e-07
1.6007811e-08
5.885838e-07
1.4817008e-08
5.8710567e-07
1.357361e-08
5.8585036e-07
1.229982e-08
5.8479271e-07
1.1010489e-08
5.8391071e-07
9.7152539e-09
5.8318563e-07
8.4200722e-09
5.8260193e-07
7.1283457e-09
5.8214711e-07
5.8417502e-09
5.8181151e-07
4.5608723e-09
5.8158811e-07
3.2857179e-09
5.8147241e-07
2.0161515e-09
5.814623e-07
7.5230147e-10
5.8155799e-07
-5.0494769e-10
5.81762e-07
-1.7533933e-09
5.8207929e-07
-2.9890761e-09
5.8251705e-07
-4.2052028e-09
5.8308513e-07
-5.3910527e-09
5.8379583e-07
-6.5304193e-09
5.8466391e-07
-7.5994071e-09
5.8570639e-07
-8.5634082e-09
5.8694209e-07
-9.3729505e-09
5.8838984e-07
-9.9568843e-09
5.9006716e-07
-1.0217345e-08
5.9198614e-07
-1.0000938e-08
5.9415014e-07
-9.0043208e-09
5.9659313e-07
-6.6315614e-09
5.9853245e-07
-2.5456397e-09
5.9241924e-07
2.0099402e-10
5.3609476e-07
2.9196215e-07
2.1066113e-09
2.3524968e-07
5.8659044e-09
5.1868388e-07
1.058112e-08
5.9679866e-07
1.3869742e-08
6.0495041e-07
1.5649819e-08
6.0226626e-07
1.6496466e-08
5.9944414e-07
1.6752048e-08
5.9701198e-07
1.6586406e-08
5.9479881e-07
1.6112023e-08
5.9279451e-07
1.5415056e-08
5.9100942e-07
1.4559506e-08
5.8943936e-07
1.3592506e-08
5.8807268e-07
1.2548499e-08
5.8689437e-07
1.1452434e-08
5.8588878e-07
1.0322239e-08
5.8504091e-07
9.1706502e-09
5.8433723e-07
8.006623e-09
5.8376597e-07
6.8363941e-09
5.8331735e-07
5.6643117e-09
5.829836e-07
4.4934958e-09
5.8275893e-07
3.3263866e-09
5.8263953e-07
2.1652328e-09
5.8262346e-07
1.0125496e-09
5.8271068e-07
-1.2836763e-10
5.8290293e-07
-1.2529523e-09
5.8320388e-07
-2.3546348e-09
5.8361874e-07
-3.4241009e-09
5.841546e-07
-4.4481876e-09
5.8481992e-07
-5.408549e-09
5.8562428e-07
-6.2799003e-09
5.8657775e-07
-7.0276923e-09
5.8768989e-07
-7.6054328e-09
5.8896759e-07
-7.9503697e-09
5.904121e-07
-7.9805508e-09
5.9201633e-07
-7.5820592e-09
5.9375166e-07
-6.5506225e-09
5.955617e-07
-4.5940051e-09
5.9657584e-07
-1.7532461e-09
5.8957849e-07
-3.60443e-11
5.3437757e-07
2.9192612e-07
2.2883312e-09
2.3502754e-07
5.4060091e-09
5.1719499e-07
8.8056588e-09
5.9373891e-07
1.1406704e-08
6.0232201e-07
1.3038126e-08
6.0061274e-07
1.3966973e-08
5.9851271e-07
1.4397098e-08
5.9658219e-07
1.4444481e-08
5.9475155e-07
1.4195659e-08
5.9304334e-07
1.3721358e-08
5.9148373e-07
1.3077447e-08
5.9008328e-07
1.2307431e-08
5.888427e-07
1.144474e-08
5.8775707e-07
1.0514843e-08
5.8681868e-07
9.5370237e-09
5.8601874e-07
8.5258136e-09
5.8534845e-07
7.492154e-09
5.8479963e-07
6.4443316e-09
5.8436518e-07
5.3887385e-09
5.840392e-07
4.3305033e-09
5.8381718e-07
3.2740336e-09
5.8369601e-07
2.2235074e-09
5.83674e-07
1.1833421e-09
5.8375085e-07
1.5866585e-10
5.8392761e-07
-8.4410692e-10
5.8420666e-07
-1.8167431e-09
5.8459139e-07
-2.7484077e-09
5.8508628e-07
-3.6248191e-09
5.8569634e-07
-4.4272013e-09
5.8642667e-07
-5.1310328e-09
5.872816e-07
-5.7045296e-09
5.8826339e-07
-6.1072157e-09
5.8937028e-07
-6.2880862e-09
5.9059298e-07
-6.1843757e-09
5.9191263e-07
-5.720057e-09
5.9328735e-07
-4.7767022e-09
5.9461836e-07
-3.2441772e-09
5.9504333e-07
-1.3186168e-09
5.8765294e-07
-1.7048643e-10
5.3322945e-07
2.9175564e-07
2.3631327e-09
2.3474286e-07
5.1282958e-09
5.160482e-07
7.6313343e-09
5.9159794e-07
9.6384135e-09
6.0031578e-07
1.1041109e-08
5.9919699e-07
1.1941289e-08
5.9761068e-07
1.2442035e-08
5.9608157e-07
1.2613764e-08
5.9457989e-07
1.2517598e-08
5.9313952e-07
1.2207565e-08
5.9179377e-07
1.1729349e-08
5.905615e-07
1.1120564e-08
5.894515e-07
1.041157e-08
5.8846608e-07
9.6265899e-09
5.8760367e-07
8.7848008e-09
5.8686054e-07
7.9013334e-09
5.8623192e-07
6.9881479e-09
5.8571283e-07
6.0547883e-09
5.8529855e-07
5.1090286e-09
5.8498497e-07
4.1574345e-09
5.8476878e-07
3.2058606e-09
5.8464759e-07
2.2599104e-09
5.8461995e-07
1.3253799e-09
5.8468539e-07
4.0869374e-10
5.8484431e-07
-4.8257106e-10
5.8509793e-07
-1.3392668e-09
5.8544809e-07
-2.1499629e-09
5.8589698e-07
-2.9003681e-09
5.8644676e-07
-3.5725867e-09
5.870989e-07
-4.1443485e-09
5.8785337e-07
-4.5882311e-09
5.8870729e-07
-4.8711794e-09
5.8965324e-07
-4.9544593e-09
5.9067627e-07
-4.7938923e-09
5.9175207e-07
-4.3434754e-09
5.9283694e-07
-3.5451993e-09
5.9382009e-07
-2.3759434e-09
5.9387408e-07
-1.0447824e-09
5.8632179e-07
-2.0362688e-10
5.3238831e-07
2.9155202e-07
2.3632882e-09
2.3446184e-07
4.9128027e-09
5.1511171e-07
6.855132e-09
5.9002279e-07
8.4080207e-09
5.9877698e-07
9.5736115e-09
5.9802319e-07
1.0386277e-08
5.9679667e-07
1.0888601e-08
5.9557928e-07
1.1118486e-08
5.9435004e-07
1.1115765e-08
5.9314226e-07
1.0919282e-08
5.9199026e-07
1.0564439e-08
5.9091635e-07
1.0082121e-08
5.8993382e-07
9.4985296e-09
5.8904968e-07
8.8355143e-09
5.882667e-07
8.1111051e-09
5.8758496e-07
7.3401096e-09
5.8700293e-07
6.5347082e-09
5.8651824e-07
5.7050133e-09
5.8612825e-07
4.8595816e-09
5.8583041e-07
4.0058805e-09
5.8562249e-07
3.150718e-09
5.8550276e-07
2.3006467e-09
5.8547003e-07
1.4623577e-09
5.8552369e-07
6.4306366e-10
5.8566361e-07
-1.4908057e-10
5.8589009e-07
-9.0458491e-10
5.8620361e-07
-1.6121651e-09
5.8660457e-07
-2.2582844e-09
5.8709288e-07
-2.8267344e-09
5.8766735e-07
-3.298251e-09
5.8832489e-07
-3.6503022e-09
5.8905935e-07
-3.8572409e-09
5.8986019e-07
-3.8912339e-09
5.9071028e-07
-3.7234869e-09
5.9158433e-07
-3.3288266e-09
5.9244229e-07
-2.6847292e-09
5.9317601e-07
-1.7993824e-09
5.9298875e-07
-8.3557979e-10
5.85358e-07
-1.8110125e-10
5.3173384e-07
2.9137093e-07
2.3296812e-09
2.3421376e-07
4.7183344e-09
5.1433024e-07
6.3099597e-09
5.8879613e-07
7.5336275e-09
5.9757269e-07
8.4893704e-09
5.9706161e-07
9.1944395e-09
5.9609056e-07
9.6610532e-09
5.9511268e-07
9.906766e-09
5.9410435e-07
9.9556177e-09
5.9309341e-07
9.8341846e-09
5.921117e-07
9.5687669e-09
5.9118178e-07
9.1837511e-09
5.9031885e-07
8.7008998e-09
5.8953254e-07
8.139173e-09
5.8882843e-07
7.514847e-09
5.8820929e-07
6.8417934e-09
5.8767599e-07
6.1318318e-09
5.8722821e-07
5.3951077e-09
5.8686498e-07
4.6404696e-09
5.8658505e-07
3.8758341e-09
5.8638713e-07
3.1085361e-09
5.8627007e-07
2.3456652e-09
5.8623291e-07
1.5943949e-09
5.8627497e-07
8.6230269e-10
5.8639571e-07
1.5769451e-10
5.865947e-07
-5.1008067e-10
5.8687139e-07
-1.1303341e-09
5.8722483e-07
-1.6907177e-09
5.8765328e-07
-2.1770854e-09
5.8815373e-07
-2.5733412e-09
5.8872116e-07
-2.8616211e-09
5.8934764e-07
-3.0227824e-09
5.9002136e-07
-3.0376884e-09
5.9072519e-07
-2.8888318e-09
5.9143549e-07
-2.5640788e-09
5.9211755e-07
-2.0584414e-09
5.9267038e-07
-1.3863754e-09
5.9231669e-07
-6.5844206e-10
5.8463007e-07
-1.4183459e-10
5.3121724e-07
2.9122911e-07
2.2892604e-09
2.3400417e-07
4.5409749e-09
5.1367914e-07
5.8937043e-09
5.8780506e-07
6.8782798e-09
5.966097e-07
7.6608123e-09
5.9627443e-07
8.2600081e-09
5.954905e-07
8.6754272e-09
5.9469726e-07
8.9131569e-09
5.9386664e-07
8.9865836e-09
5.9302e-07
8.9131588e-09
5.9218513e-07
8.7118047e-09
5.9138314e-07
8.4012365e-09
5.9062942e-07
7.9990359e-09
5.8993475e-07
7.5211997e-09
5.8930628e-07
6.981997e-09
5.887485e-07
6.3940222e-09
5.8826397e-07
5.7683577e-09
5.8785388e-07
5.1148014e-09
5.8751855e-07
4.4421218e-09
5.8725774e-07
3.7583269e-09
5.8707094e-07
3.0709328e-09
5.8695747e-07
2.3872302e-09
5.8691662e-07
1.714545e-09
5.8694766e-07
1.0604908e-09
5.8704977e-07
4.3321135e-10
5.8722199e-07
-1.5839357e-10
5.87463e-07
-7.0447267e-10
5.8777092e-07
-1.194125e-09
5.8814294e-07
-1.6152454e-09
5.8857486e-07
-1.9547256e-09
5.8906065e-07
-2.1987463e-09
5.8959166e-07
-2.3334132e-09
5.9015603e-07
-2.3460197e-09
5.9073781e-07
-2.2266296e-09
5.9131611e-07
-1.9706149e-09
5.9186154e-07
-1.5802426e-09
5.9228002e-07
-1.068273e-09
5.9180473e-07
-5.0753445e-10
5.8406934e-07
-1.0514663e-10
5.3081486e-07
2.9112397e-07
2.2534722e-09
2.3382858e-07
4.385741e-09
5.1314113e-07
5.5568284e-09
5.8699345e-07
6.3611747e-09
5.9582838e-07
7.0035897e-09
5.9562812e-07
7.5075322e-09
5.949858e-07
7.8683291e-09
5.9433646e-07
8.0861339e-09
5.9364886e-07
8.1676279e-09
5.9293851e-07
8.1238513e-09
5.9222892e-07
7.9680918e-09
5.9153891e-07
7.7144233e-09
5.908831e-07
7.3767756e-09
5.902724e-07
6.9683778e-09
5.8971468e-07
6.5014793e-09
5.8921541e-07
5.9872564e-09
5.887782e-07
5.4358435e-09
5.884053e-07
4.8564422e-09
5.8809796e-07
4.2574776e-09
5.8785671e-07
3.6467804e-09
5.8768164e-07
3.0317821e-09
5.8757248e-07
2.4197141e-09
5.875287e-07
1.8178032e-09
5.8754958e-07
1.2334592e-09
5.8763412e-07
6.7444674e-10
5.8778101e-07
1.4902781e-10
5.8798843e-07
-3.3392416e-10
5.8825388e-07
-7.648841e-10
5.8857391e-07
-1.1337392e-09
5.8894372e-07
-1.4299694e-09
5.8935688e-07
-1.6430487e-09
5.8980475e-07
-1.7630849e-09
5.9027608e-07
-1.7818827e-09
5.9075661e-07
-1.694285e-09
5.9122852e-07
-1.4996837e-09
5.9166695e-07
-1.2027726e-09
5.9198311e-07
-8.1360085e-10
5.9141557e-07
-3.8250989e-10
5.8363826e-07
-7.6235187e-11
5.305086e-07
2.9104774e-07
2.2244356e-09
2.3368068e-07
4.2548458e-09
5.1269949e-07
5.2782125e-09
5.8632856e-07
5.9406283e-09
5.9519034e-07
6.4690288e-09
5.9509639e-07
6.8901715e-09
5.9456397e-07
7.1984168e-09
5.9402821e-07
7.391069e-09
5.9345622e-07
7.4707852e-09
5.9285881e-07
7.4442619e-09
5.9225545e-07
7.320645e-09
5.9166253e-07
7.1103655e-09
5.9109339e-07
6.8243095e-09
5.9055847e-07
6.4732655e-09
5.9006573e-07
6.0675898e-09
5.8962109e-07
5.6170351e-09
5.8922876e-07
5.130696e-09
5.8889165e-07
4.6170337e-09
5.8861163e-07
4.083955e-09
5.883898e-07
3.5389241e-09
5.8822668e-07
2.9890933e-09
5.8812231e-07
2.4414422e-09
5.8807636e-07
1.9029158e-09
5.8808811e-07
1.3805543e-09
5.8815649e-07
8.8160652e-10
5.8827997e-07
4.1361125e-10
5.8845643e-07
-1.5555634e-11
5.8868306e-07
-3.9770872e-10
5.8895607e-07
-7.2447332e-10
5.892705e-07
-9.8747542e-10
5.8961989e-07
-1.1787758e-09
5.8999606e-07
-1.2914342e-09
5.9038875e-07
-1.3203194e-09
5.9078551e-07
-1.2631665e-09
5.9117137e-07
-1.1213852e-09
5.9152518e-07
-9.0018731e-10
5.9176192e-07
-6.0766529e-10
5.9112305e-07
-2.8135484e-10
5.8331196e-07
-5.4233553e-11
5.3028149e-07
2.9099352e-07
2.2008473e-09
2.3355536e-07
4.1464059e-09
5.1233822e-07
5.0473705e-09
5.8578564e-07
5.5945842e-09
5.9466878e-07
6.0289365e-09
5.946592e-07
6.3788072e-09
5.9421346e-07
6.6386317e-09
5.9376837e-07
6.8044733e-09
5.9329039e-07
6.8766531e-09
5.9278663e-07
6.8589906e-09
5.9227312e-07
6.7576586e-09
5.9176387e-07
6.5803012e-09
5.9127075e-07
6.3353458e-09
5.9080343e-07
6.0315036e-09
5.9036958e-07
5.6774348e-09
5.8997517e-07
5.2815438e-09
5.8962466e-07
4.851875e-09
5.8932132e-07
4.3960821e-09
5.8906743e-07
3.9214504e-09
5.8886444e-07
3.4349529e-09
5.8871319e-07
2.9433292e-09
5.8861395e-07
2.4531733e-09
5.8856652e-07
1.9710241e-09
5.8857027e-07
1.5034466e-09
5.8862408e-07
1.0570974e-09
5.8872633e-07
6.3876133e-10
5.8887478e-07
2.5534752e-10
5.8906648e-07
-8.616554e-11
5.8929759e-07
-3.7886769e-10
5.8956321e-07
-6.1615629e-10
5.8985719e-07
-7.9206526e-10
5.9017198e-07
-9.017734e-10
5.9049846e-07
-9.4219444e-10
5.9082594e-07
-9.1275382e-10
5.9114194e-07
-8.1579584e-10
5.9142823e-07
-6.5638162e-10
5.9160252e-07
-4.4136036e-10
5.9090804e-07
-2.0027231e-10
5.8307088e-07
-3.7088632e-11
5.3011831e-07
2.9095644e-07
2.1811056e-09
2.33449e-07
4.0566544e-09
5.1204333e-07
4.856442e-09
5.8534361e-07
5.3087715e-09
5.9424323e-07
5.664665e-09
5.9430088e-07
5.9532635e-09
5.9392428e-07
6.169376e-09
5.9355225e-07
6.3086422e-09
5.9315114e-07
6.370075e-09
5.9272521e-07
6.3556187e-09
5.9228758e-07
6.2693437e-09
5.9185016e-07
6.1167981e-09
5.9142331e-07
5.904461e-09
5.9101577e-07
5.6393184e-09
5.9063473e-07
5.3285551e-09
5.9028594e-07
4.9793454e-09
5.8997388e-07
4.5987257e-09
5.8970195e-07
4.1935299e-09
5.8947263e-07
3.770372e-09
5.8928761e-07
3.3356622e-09
5.891479e-07
2.8956434e-09
5.8905397e-07
2.4564399e-09
5.8900573e-07
2.0241072e-09
5.8900261e-07
1.6046759e-09
5.8904352e-07
1.2041803e-09
5.8912683e-07
8.286621e-10
5.892503e-07
4.8413752e-10
5.8941101e-07
1.7652268e-10
5.8960521e-07
-8.8512873e-11
5.8982825e-07
-3.0575275e-10
5.9007444e-07
-4.7073181e-10
5.9033697e-07
-5.801286e-10
5.9060787e-07
-6.322013e-10
5.9087802e-07
-6.2732267e-10
5.9113707e-07
-5.681949e-10
5.9136911e-07
-4.5950315e-10
5.9149384e-07
-3.0724247e-10
5.9075579e-07
-1.352079e-10
5.8289885e-07
-2.3301733e-11
5.3000641e-07
2.9093315e-07
2.1641921e-09
2.333589e-07
3.9818439e-09
5.1180336e-07
4.6982757e-09
5.8498468e-07
5.0719847e-09
5.9389719e-07
5.3619819e-09
5.9400878e-07
5.597896e-09
5.9368781e-07
5.7750122e-09
5.9337512e-07
5.8889644e-09
5.930372e-07
5.9380769e-09
5.926761e-07
5.9230931e-09
5.9230258e-07
5.8466131e-09
5.9192664e-07
5.7126264e-09
5.915573e-07
5.5260896e-09
5.9120232e-07
5.2925789e-09
5.9086825e-07
5.0180216e-09
5.9056051e-07
4.7084987e-09
5.9028341e-07
4.3701113e-09
5.9004035e-07
4.0088979e-09
5.8983385e-07
3.6307918e-09
5.8966572e-07
3.2416085e-09
5.8953709e-07
2.8470509e-09
5.8944854e-07
2.4527276e-09
5.8940006e-07
2.0641717e-09
5.8939117e-07
1.6868558e-09
5.8942084e-07
1.3261939e-09
5.894875e-07
9.8752192e-10
5.8958898e-07
6.7604928e-10
5.8972249e-07
3.967733e-10
5.8988449e-07
1.5434577e-10
5.9007069e-07
-4.7114156e-11
5.9027591e-07
-2.0425831e-10
5.9049412e-07
-3.1481296e-10
5.9071843e-07
-3.7790599e-10
5.9094112e-07
-3.9440772e-10
5.9115358e-07
-3.6706113e-10
5.9134177e-07
-3.0011022e-10
5.9142689e-07
-1.9889997e-10
5.9065459e-07
-8.2769953e-11
5.8278273e-07
-1.2037821e-11
5.2993569e-07
2.9092112e-07
2.1495679e-09
2.3328288e-07
3.9189804e-09
5.1160918e-07
4.5666026e-09
5.8469427e-07
4.8749246e-09
5.9361726e-07
5.1093642e-09
5.9377251e-07
5.2999867e-09
5.9349667e-07
5.442597e-09
5.9323249e-07
5.5330379e-09
5.9294677e-07
5.5693183e-09
5.9263983e-07
5.5514312e-09
5.9232047e-07
5.4809595e-09
5.9199712e-07
5.3607437e-09
5.9167752e-07
5.1945616e-09
5.9136851e-07
4.9868509e-09
5.9107597e-07
4.7424823e-09
5.9080488e-07
4.4665831e-09
5.9055932e-07
4.1644071e-09
5.9034253e-07
3.8412452e-09
5.9015702e-07
3.5023686e-09
5.900046e-07
3.1529956e-09
5.8988648e-07
2.7982768e-09
5.8980326e-07
2.4432887e-09
5.8975506e-07
2.0930316e-09
5.8974144e-07
1.7524224e-09
5.8976146e-07
1.4262782e-09
5.8981365e-07
1.1192817e-09
5.8989599e-07
8.3592546e-10
5.9000585e-07
5.8042505e-10
5.9014e-07
3.5660007e-10
5.9029452e-07
1.6771553e-10
5.904648e-07
1.6289497e-11
5.9064555e-07
-9.6131281e-11
5.9083086e-07
-1.6921537e-10
5.9101421e-07
-2.0405874e-10
5.9118843e-07
-2.0326851e-10
5.9134099e-07
-1.7065154e-10
5.9139428e-07
-1.1108494e-10
5.9059503e-07
-4.047955e-11
5.8271214e-07
-2.6327786e-12
5.2989785e-07
2.9091849e-07
2.1369128e-09
2.3321903e-07
3.8658264e-09
5.1145344e-07
4.456312e-09
5.8446073e-07
4.7100287e-09
5.9339249e-07
4.8974953e-09
5.9358342e-07
5.0491924e-09
5.9334447e-07
5.1614505e-09
5.9312021e-07
5.2304242e-09
5.928778e-07
5.2540321e-09
5.9261623e-07
5.2318155e-09
5.9234269e-07
5.1646621e-09
5.9206428e-07
5.0545712e-09
5.9178762e-07
4.9044139e-09
5.9151867e-07
4.7177158e-09