/*--------------------------------*- C++ -*----------------------------------*\
  =========                 |
  \\      /  F ield         | OpenFOAM: The Open Source CFD Toolbox
   \\    /   O peration     | Website:  https://openfoam.org
    \\  /    A nd           | Version:  10
     \\/     M anipulation  |
\*---------------------------------------------------------------------------*/
FoamFile
{
    format      ascii;
    class       surfaceScalarField;
    location    "0.02";
    object      phi_0;
}
// * * * * * * * * * * * * * * * * * * * * * * * * * * * * * * * * * * * * * //

dimensions      [1 0 -1 0 0 0 0];

internalField   nonuniform List<scalar> 
7860
(
3.8938618e-08
5.2977379e-07
1.1803246e-08
5.9583823e-07
7.1082393e-09
5.7340289e-07
5.1333496e-09
5.7068271e-07
3.7758548e-09
5.7006526e-07
2.905539e-09
5.6957806e-07
2.3033794e-09
5.6930988e-07
1.8597618e-09
5.6915133e-07
1.5222837e-09
5.6904518e-07
1.2581074e-09
5.6897187e-07
1.0456658e-09
5.6892013e-07
8.7062957e-10
5.6888272e-07
7.2312388e-10
5.6885518e-07
5.9613028e-10
5.6883467e-07
4.8453021e-10
5.6881927e-07
3.8449029e-10
5.6880771e-07
2.9305567e-10
5.687991e-07
2.0787321e-10
5.6879284e-07
1.2699543e-10
5.6878854e-07
4.8735634e-11
5.6878592e-07
-2.8448885e-11
5.6878484e-07
-1.0605589e-10
5.6878527e-07
-1.8563339e-10
5.6878724e-07
-2.6888187e-10
5.6879091e-07
-3.577787e-10
5.6879656e-07
-4.547367e-10
5.6880462e-07
-5.6282457e-10
5.6881576e-07
-6.8608587e-10
5.6883093e-07
-8.3001872e-10
5.6885161e-07
-1.0023199e-09
5.6887998e-07
-1.2141174e-09
5.6891948e-07
-1.4821201e-09
5.6897569e-07
-1.8318631e-09
5.6905744e-07
-2.3040932e-09
5.6917994e-07
-2.9822665e-09
5.693859e-07
-4.0389431e-09
5.6976442e-07
-5.6155662e-09
5.7028439e-07
-9.0738784e-09
5.721661e-07
-2.8667093e-08
5.8830105e-07
5.4004091e-07
5.7926856e-08
4.7188795e-07
3.4909377e-08
6.1884178e-07
2.1260812e-08
5.8704738e-07
1.5018468e-08
5.7692511e-07
1.1201253e-08
5.7388249e-07
8.6650647e-09
5.7211425e-07
6.8715664e-09
5.7110339e-07
5.5522342e-09
5.7047067e-07
4.5497854e-09
5.7004764e-07
3.7642836e-09
5.6975738e-07
3.1318414e-09
5.6955258e-07
2.6100065e-09
5.6940456e-07
2.1694952e-09
5.692957e-07
1.7895449e-09
5.6921462e-07
1.4550394e-09
5.6915378e-07
1.1546688e-09
5.6910808e-07
8.797217e-10
5.6907405e-07
6.2326383e-10
5.6904931e-07
3.7955777e-10
5.6903225e-07
1.4363265e-10
5.6902185e-07
-8.9053364e-11
5.6901754e-07
-3.2290644e-10
5.6901913e-07
-5.6247715e-10
5.6902682e-07
-8.1276556e-10
5.6904121e-07
-1.0795795e-09
5.6906338e-07
-1.370005e-09
5.6909506e-07
-1.6930579e-09
5.6913882e-07
-2.0606289e-09
5.6919851e-07
-2.4889156e-09
5.692799e-07
-3.0006548e-09
5.6939173e-07
-3.6287281e-09
5.6954756e-07
-4.4225157e-09
5.6976949e-07
-5.4593003e-09
5.7009424e-07
-6.8613451e-09
5.7058199e-07
-8.8363533e-09
5.7136091e-07
-1.1807181e-08
5.7273525e-07
-1.6620951e-08
5.7509816e-07
-2.637568e-08
5.8192084e-07
-4.3926974e-08
6.0585235e-07
4.9611394e-07
5.7155081e-08
4.1483564e-07
4.7005622e-08
6.2898388e-07
3.0719358e-08
6.0331788e-07
2.2568592e-08
5.8507475e-07
1.7380121e-08
5.7907113e-07
1.3681581e-08
5.7581281e-07
1.0972011e-08
5.7381297e-07
8.9407817e-09
5.7250191e-07
7.3744651e-09
5.7161396e-07
6.1329032e-09
5.7099895e-07
5.124022e-09
5.7056147e-07
4.2849935e-09
5.702436e-07
3.5718188e-09
5.7000888e-07
2.9529758e-09
5.6983348e-07
2.4053077e-09
5.6970146e-07
1.9113549e-09
5.6960205e-07
1.4575781e-09
5.6952784e-07
1.0331362e-09
5.6947376e-07
6.2901348e-10
5.6943638e-07
2.3736682e-10
5.6941351e-07
-1.4898142e-10
5.694039e-07
-5.3699234e-10
5.6940715e-07
-9.338422e-10
5.6942368e-07
-1.3473821e-09
5.6945476e-07
-1.7866783e-09
5.6950269e-07
-2.262717e-09
5.695711e-07
-2.7893703e-09
5.6966548e-07
-3.3847821e-09
5.6979393e-07
-4.0734363e-09
5.6996857e-07
-4.8893338e-09
5.7020763e-07
-5.880919e-09
5.7053916e-07
-7.1190566e-09
5.7100764e-07
-8.7114464e-09
5.7168663e-07
-1.0822711e-08
5.7269327e-07
-1.3692621e-08
5.7423083e-07
-1.7706983e-08
5.7674962e-07
-2.3823238e-08
5.8121443e-07
-3.5371904e-08
5.9346951e-07
-4.4930958e-08
6.1541141e-07
4.5118299e-07
5.0811978e-08
3.6420189e-07
5.1771588e-08
6.2803813e-07
3.6111301e-08
6.1894253e-07
2.7306498e-08
5.9387465e-07
2.1721515e-08
5.8465667e-07
1.7517078e-08
5.8001736e-07
1.4300743e-08
5.7702931e-07
1.1810984e-08
5.7499167e-07
9.8411631e-09
5.7358379e-07
8.2485307e-09
5.7259159e-07
6.9336606e-09
5.7187635e-07
5.8256011e-09
5.7135167e-07
4.8732331e-09
5.7096126e-07
4.039084e-09
5.7066763e-07
3.2950903e-09
5.7044546e-07
2.6197494e-09
5.702774e-07
1.9961522e-09
5.7015145e-07
1.4105949e-09
5.7005933e-07
8.5156553e-10
5.6999542e-07
3.0897273e-10
5.6995611e-07
-2.2645035e-10
5.6993933e-07
-7.6369959e-10
5.6994441e-07
-1.312016e-09
5.69972e-07
-1.8814289e-09
5.7002418e-07
-2.4833969e-09
5.7010466e-07
-3.131621e-09
5.7021934e-07
-3.843136e-09
5.70377e-07
-4.6398337e-09
5.7059064e-07
-5.550653e-09
5.7087939e-07
-6.6148233e-09
5.7127181e-07
-7.8866247e-09
5.7181097e-07
-9.4419743e-09
5.72563e-07
-1.1389442e-08
5.7363411e-07
-1.3887076e-08
5.7519091e-07
-1.7138681e-08
5.7748245e-07
-2.1425499e-08
5.8103645e-07
-2.7855461e-08
5.876444e-07
-3.9174722e-08
6.0478878e-07
-4.1656589e-08
6.1789328e-07
4.095264e-07
4.2685701e-08
3.2191542e-07
5.1827431e-08
6.1899127e-07
3.8871623e-08
6.3184301e-07
2.9945802e-08
6.0278771e-07
2.4396216e-08
5.9020697e-07
2.0147689e-08
5.8426616e-07
1.6774918e-08
5.8040209e-07
1.4068952e-08
5.7769765e-07
1.1861565e-08
5.7579119e-07
1.0031582e-08
5.7442158e-07
8.4888912e-09
5.7341905e-07
7.1660521e-09
5.7267451e-07
6.0126002e-09
5.7211472e-07
4.9902425e-09
5.7169e-07
4.0694486e-09
5.7136626e-07
3.2270197e-09
5.7111983e-07
2.4443132e-09
5.7093416e-07
1.7059369e-09
5.7079771e-07
9.9876219e-10
5.7070261e-07
3.1115032e-10
5.7064373e-07
-3.676527e-10
5.7061814e-07
-1.0480964e-09
5.7062486e-07
-1.740864e-09
5.7066478e-07
-2.4574211e-09
5.7074074e-07
-3.2106628e-09
5.7085791e-07
-4.0156996e-09
5.7102438e-07
-4.8908735e-09
5.7125219e-07
-5.859119e-09
5.7155889e-07
-6.9497954e-09
5.7197008e-07
-8.2012519e-09
5.7252328e-07
-9.6644335e-09
5.7327416e-07
-1.1407207e-08
5.7430578e-07
-1.3520178e-08
5.7574709e-07
-1.6130564e-08
5.778013e-07
-1.9401908e-08
5.807538e-07
-2.359979e-08
5.8523434e-07
-2.9961574e-08
5.9400619e-07
-3.9669823e-08
6.1449704e-07
-3.6286835e-08
6.145103e-07
3.7323958e-07
3.3615232e-08
2.8930617e-07
4.7915343e-08
6.0505942e-07
3.9344808e-08
6.4036106e-07
3.1140227e-08
6.1096292e-07
2.593113e-08
5.954146e-07
2.1912323e-08
5.8828533e-07
1.8605677e-08
5.8370878e-07
1.5852266e-08
5.8045106e-07
1.3532697e-08
5.7811077e-07
1.1555744e-08
5.7639855e-07
9.8490886e-09
5.7512571e-07
8.3562087e-09
5.741674e-07
7.0328148e-09
5.7343812e-07
5.8437698e-09
5.7287905e-07
4.7609172e-09
5.7244913e-07
3.7613811e-09
5.7211938e-07
2.8262332e-09
5.7186932e-07
1.9394525e-09
5.716845e-07
1.087098e-09
5.7155497e-07
2.5663122e-10
5.7147421e-07
-5.6363773e-10
5.7143842e-07
-1.3850833e-09
5.7144631e-07
-2.219264e-09
5.7149897e-07
-3.0784207e-09
5.7159991e-07
-3.9760485e-09
5.7175555e-07
-4.927551e-09
5.7197589e-07
-5.951039e-09
5.7227568e-07
-7.0683352e-09
5.726762e-07
-8.3062067e-09
5.7320796e-07
-9.6979453e-09
5.7391503e-07
-1.1285517e-08
5.7486174e-07
-1.3122242e-08
5.7614251e-07
-1.5274429e-08
5.7789929e-07
-1.7830037e-08
5.8035692e-07
-2.090905e-08
5.8383282e-07
-2.4765104e-08
5.890904e-07
-3.0453247e-08
5.9969434e-07
-3.7103507e-08
6.2114731e-07
-2.9150035e-08
6.0655684e-07
3.4408955e-07
2.4529235e-08
2.6671256e-07
4.1293809e-08
5.8919601e-07
3.7822052e-08
6.4382026e-07
3.13621e-08
6.1735874e-07
2.6860003e-08
5.9990739e-07
2.3274e-08
5.9187162e-07
2.0180094e-08
5.8680285e-07
1.7488122e-08
5.8314306e-07
1.5138476e-08
5.8046042e-07
1.3075043e-08
5.7846199e-07
1.1247906e-08
5.7695286e-07
9.6153407e-09
5.7579998e-07
8.1423132e-09
5.7491116e-07
6.7993347e-09
5.7422204e-07
5.5615727e-09
5.736869e-07
4.4079655e-09
5.7327299e-07
3.3204381e-09
5.7295685e-07
2.2832199e-09
5.7272173e-07
1.2822547e-09
5.7255594e-07
3.0468282e-10
5.7245179e-07
-6.6162236e-10
5.7240473e-07
-1.6284833e-09
5.7241318e-07
-2.6078332e-09
5.7247833e-07
-3.6121329e-09
5.7260422e-07
-4.654811e-09
5.7279824e-07
-5.7507348e-09
5.7307183e-07
-6.9167257e-09
5.7344168e-07
-8.172136e-09
5.7393162e-07
-9.5394387e-09
5.7457527e-07
-1.1044812e-08
5.7542041e-07
-1.2718689e-08
5.7653563e-07
-1.4596796e-08
5.7802063e-07
-1.671811e-08
5.8002061e-07
-1.9123196e-08
5.8276202e-07
-2.187042e-08
5.8658006e-07
-2.5129106e-08
5.923491e-07
-2.9408972e-08
6.0397422e-07
-3.2113549e-08
6.238519e-07
-2.1035159e-08
5.9547846e-07
3.230544e-07
1.6382584e-08
2.5306378e-07
3.3561391e-08
5.7356301e-07
3.496784e-08
6.4245637e-07
3.1019385e-08
6.2118328e-07
2.754562e-08
6.0335601e-07
2.4543482e-08
5.9487385e-07
2.1774112e-08
5.8957278e-07
1.9229658e-08
5.8568757e-07
1.6916093e-08
5.8277399e-07
1.4816837e-08
5.8056125e-07
1.2907772e-08
5.7886193e-07
1.1164165e-08
5.7754359e-07
9.5620035e-09
5.7651333e-07
8.0790211e-09
5.7570503e-07
6.6950602e-09
5.7507087e-07
5.3920166e-09
5.7457605e-07
4.1536301e-09
5.7419525e-07
2.9651912e-09
5.7391018e-07
1.8132197e-09
5.7370792e-07
6.8513953e-10
5.7357988e-07
-4.3106107e-10
5.7352094e-07
-1.5471261e-09
5.7352926e-07
-2.6748315e-09
5.7360604e-07
-3.8262965e-09
5.7375569e-07
-5.0142646e-09
5.7398622e-07
-6.2523755e-09
5.7430995e-07
-7.5553831e-09
5.747447e-07
-8.9392975e-09
5.7531554e-07
-1.0421355e-08
5.7605734e-07
-1.2019663e-08
5.7701873e-07
-1.3752082e-08
5.7826806e-07
-1.5634934e-08
5.7990349e-07
-1.7678081e-08
5.8206377e-07
-1.987211e-08
5.8495605e-07
-2.2203851e-08
5.8891181e-07
-2.4691447e-08
5.948367e-07
-2.7082014e-08
6.0636479e-07
-2.5824501e-08
6.225944e-07
-1.3185281e-08
5.8283925e-07
3.0986913e-07
9.9091964e-09
2.4619004e-07
2.5974681e-08
5.5953932e-07
3.1378491e-08
6.3712412e-07
3.0215162e-08
6.2214734e-07
2.7959444e-08
6.0556476e-07
2.5635622e-08
5.971975e-07
2.3280283e-08
5.9192934e-07
2.0969562e-08
5.8799843e-07
1.876819e-08
5.8497537e-07
1.669857e-08
5.8263088e-07
1.4763317e-08
5.8079719e-07
1.2955532e-08
5.7935139e-07
1.1263297e-08
5.7820558e-07
9.6727005e-09
5.7729564e-07
8.1693498e-09
5.7657423e-07
6.7391221e-09
5.7600628e-07
5.3685138e-09
5.7556587e-07
4.0447321e-09
5.7523397e-07
2.7556523e-09
5.7499701e-07
1.4896985e-09
5.7484584e-07
2.3566059e-10
5.7477499e-07
-1.0174665e-09
5.7478239e-07
-2.2806478e-09
5.7486923e-07
-3.5649774e-09
5.7504003e-07
-4.881804e-09
5.7530305e-07
-6.2427938e-09
5.7567095e-07
-7.6598599e-09
5.7616177e-07
-9.1448869e-09
5.7680058e-07
-1.0709129e-08
5.7762159e-07
-1.2362005e-08
5.7867161e-07
-1.4108604e-08
5.8001466e-07
-1.5945802e-08
5.817407e-07
-1.7855794e-08
5.8397377e-07
-1.9786755e-08
5.8688703e-07
-2.1656866e-08
5.9078193e-07
-2.330919e-08
5.9648904e-07
-2.376671e-08
6.0682232e-07
-1.9338937e-08
6.1816664e-07
-6.8188058e-09
5.7031913e-07
3.0305034e-07
5.4834354e-09
2.4359402e-07
1.9320844e-08
5.4793717e-07
2.7353518e-08
6.2915486e-07
2.8684274e-08
6.2055522e-07
2.7683219e-08
6.0649877e-07
2.6090231e-08
5.9878982e-07
2.4223573e-08
5.9379795e-07
2.2237562e-08
5.8998468e-07
2.0240677e-08
5.8697225e-07
1.8288509e-08
5.8458305e-07
1.640809e-08
5.8267762e-07
1.460963e-08
5.8114986e-07
1.2893602e-08
5.7992161e-07
1.1255139e-08
5.7893411e-07
9.6864661e-09
5.7814291e-07
8.1783532e-09
5.775144e-07
6.7209571e-09
5.7702327e-07
5.3042723e-09
5.7665066e-07
3.9183576e-09
5.7638294e-07
2.5534268e-09
5.7621078e-07
1.1998414e-09
5.7612858e-07
-1.51906e-10
5.7613415e-07
-1.511217e-09
5.7622855e-07
-2.8873937e-09
5.7641621e-07
-4.2895936e-09
5.7670526e-07
-5.7267052e-09
5.7710807e-07
-7.2069903e-09
5.7764207e-07
-8.7374435e-09
5.7833104e-07
-1.0322709e-08
5.7920686e-07
-1.1963185e-08
5.803121e-07
-1.3651723e-08
5.8170321e-07
-1.5367756e-08
5.8345674e-07
-1.706993e-08
5.8567595e-07
-1.8676429e-08
5.8849353e-07
-2.0047774e-08
5.9215328e-07
-2.0879337e-08
5.9732061e-07
-1.9764798e-08
6.057078e-07
-1.3489768e-08
6.1189162e-07
-2.601954e-09
5.5943134e-07
3.004484e-07
3.0191856e-09
2.4315048e-07
1.4038802e-08
5.3908272e-07
2.3078375e-08
6.2016766e-07
2.6156141e-08
6.171976e-07
2.6285657e-08
6.0629285e-07
2.5430739e-08
5.9964331e-07
2.4105927e-08
5.951251e-07
2.2525709e-08
5.9156521e-07
2.0825438e-08
5.8867251e-07
1.9085311e-08
5.8632318e-07
1.7352049e-08
5.8441089e-07
1.5650866e-08
5.8285105e-07
1.3993944e-08
5.8157854e-07
1.2385473e-08
5.8054259e-07
1.0824695e-08
5.7970369e-07
9.3078714e-09
5.7903124e-07
7.8295004e-09
5.7850165e-07
6.3830727e-09
5.780971e-07
4.9615424e-09
5.7780447e-07
3.5576167e-09
5.7761471e-07
2.1639247e-09
5.7752228e-07
7.7315236e-10
5.7752493e-07
-6.2184924e-10
5.7762356e-07
-2.0279192e-09
5.7782229e-07
-3.4512883e-09
5.7812864e-07
-4.8974369e-09
5.7855422e-07
-6.3703405e-09
5.7911498e-07
-7.8716126e-09
5.7983232e-07
-9.3990637e-09
5.8073432e-07
-1.0944347e-08
5.8185739e-07
-1.2489344e-08
5.8324822e-07
-1.3999486e-08
5.8496689e-07
-1.5415465e-08
5.8709194e-07
-1.6637486e-08
5.8971557e-07
-1.7488759e-08
5.9300457e-07
-1.7583821e-08
5.9741568e-07
-1.5488288e-08
6.0361228e-07
-8.7994573e-09
6.052028e-07
-4.8083931e-10
5.5111273e-07
2.9996757e-07
2.04879e-09
2.4343226e-07
1.0279325e-08
5.3283122e-07
1.8846102e-08
6.1167901e-07
2.2746095e-08
6.130512e-07
2.3738568e-08
6.0522877e-07
2.3558645e-08
5.9982106e-07
2.2782354e-08
5.9590355e-07
2.1651187e-08
5.926967e-07
2.0310902e-08
5.9001279e-07
1.8856197e-08
5.8777789e-07
1.7347252e-08
5.8591984e-07
1.5820993e-08
5.8437732e-07
1.4299553e-08
5.8309999e-07
1.2795326e-08
5.8204682e-07
1.1314306e-08
5.8118472e-07
9.8582977e-09
5.8048725e-07
8.4263866e-09
5.7993357e-07
7.0159141e-09
5.7950758e-07
5.6231427e-09
5.7919725e-07
4.2437143e-09
5.7899415e-07
2.8729784e-09
5.7889303e-07
1.5062645e-09
5.7889165e-07
1.3912767e-10
5.789907e-07
-1.2324342e-09
5.7919386e-07
-2.61124e-09
5.7950745e-07
-3.99919e-09
5.7994218e-07
-5.3957563e-09
5.8051156e-07
-6.7972651e-09
5.8123384e-07
-8.1951821e-09
5.8213225e-07
-9.5735969e-09
5.8323582e-07
-1.0905615e-08
5.8458024e-07
-1.2147103e-08
5.8620839e-07
-1.3227953e-08
5.881728e-07
-1.4041401e-08
5.9052902e-07
-1.4401781e-08
5.9336496e-07
-1.3920757e-08
5.9693467e-07
-1.1443692e-08
6.0113522e-07
-5.4475043e-09
5.9920662e-07
3.1097545e-10
5.4535427e-07
3.0027856e-07
1.9516541e-09
2.4370063e-07
7.9097022e-09
5.2867942e-07
1.5051688e-08
6.046821e-07
1.8976225e-08
6.0894743e-07
2.0485845e-08
6.0366239e-07
2.083969e-08
5.9946467e-07
2.0553033e-08
5.9619181e-07
1.9855617e-08
5.933944e-07
1.8888292e-08
5.9098012e-07
1.7749326e-08
5.8891686e-07
1.6505248e-08
5.8716393e-07
1.5200374e-08
5.856822e-07
1.3864014e-08
5.8443636e-07
1.2515069e-08
5.8339578e-07
1.1165263e-08
5.8253454e-07
9.8213783e-09
5.8183115e-07
8.4868046e-09
5.8126815e-07
7.1626386e-09
5.8083175e-07
5.8484703e-09
5.8051143e-07
4.5429646e-09
5.8029966e-07
3.2443105e-09
5.8019169e-07
1.950607e-09
5.8018536e-07
6.6024814e-10
5.8028107e-07
-6.2764032e-10
5.8048176e-07
-1.913443e-09
5.8079326e-07
-3.1947293e-09
5.8122348e-07
-4.4671258e-09
5.8178396e-07
-5.7224592e-09
5.8248918e-07
-6.9471239e-09
5.8335692e-07
-8.1197346e-09
5.8440843e-07
-9.2078054e-09
5.8566832e-07
-1.016275e-08
5.8716334e-07
-1.091203e-08
5.8892209e-07
-1.1352534e-08
5.9096954e-07
-1.1317323e-08
5.9332976e-07
-1.0477396e-08
5.9609476e-07
-8.0746339e-09
5.9873247e-07
-3.3675949e-09
5.944996e-07
2.7971961e-10
5.4170696e-07
3.005583e-07
2.1787632e-09
2.4372598e-07
6.5832115e-09
5.2597419e-07
1.2011733e-08
5.9947868e-07
1.5467871e-08
6.0538436e-07
1.7164026e-08
6.0192701e-07
1.7863343e-08
5.9876289e-07
1.7951774e-08
5.9610435e-07
1.7618057e-08
5.9372831e-07
1.6985713e-08
5.9161247e-07
1.6146526e-08
5.8975605e-07
1.5166394e-08
5.8814407e-07
1.40922e-08
5.867564e-07
1.295706e-08
5.8557151e-07
1.1784067e-08
5.8456878e-07
1.0589094e-08
5.8372952e-07
9.3828105e-09
5.8303744e-07
8.1721782e-09
5.8247879e-07
6.9615499e-09
5.8204239e-07
5.7535024e-09
5.8171949e-07
4.5494794e-09
5.8150369e-07
3.3503131e-09
5.8139086e-07
2.156676e-09
5.8137901e-07
9.6949651e-10
5.8146826e-07
-2.0955492e-10
5.8166082e-07
-1.3773778e-09
5.8196109e-07
-2.529257e-09
5.8237537e-07
-3.6575397e-09
5.8291225e-07
-4.7507092e-09
5.8358236e-07
-5.7918821e-09
5.843981e-07
-6.756791e-09
5.8537335e-07
-7.6110426e-09
5.8652258e-07
-8.3066467e-09
5.8785896e-07
-8.7763861e-09
5.8939184e-07
-8.9299054e-09
5.9112307e-07
-8.6360225e-09
5.9303588e-07
-7.6559915e-09
5.9511474e-07
-5.5798379e-09
5.9665633e-07
-2.2089047e-09
5.9112867e-07
4.6696943e-11
5.3945137e-07
3.00605e-07
2.4102499e-09
2.4353868e-07
5.8958264e-09
5.2413876e-07
9.8206139e-09
5.958421e-07
1.2627164e-08
6.0252769e-07
1.4267606e-08
6.00262e-07
1.512851e-08
5.9789992e-07
1.5456268e-08
5.9577708e-07
1.5386992e-08
5.9379771e-07
1.5019463e-08
5.9198001e-07
1.4431916e-08
5.9034361e-07
1.368408e-08
5.8889191e-07
1.2821029e-08
5.8761946e-07
1.1876384e-08
5.8651616e-07
1.0874988e-08
5.8557018e-07
9.8350404e-09
5.8476948e-07
8.7697619e-09
5.8410272e-07
7.6886875e-09
5.8355987e-07
6.5986792e-09
5.831324e-07
5.5047222e-09
5.8281345e-07
4.4105709e-09
5.8259785e-07
3.31929e-09
5.8248215e-07
2.2337387e-09
5.8246457e-07
1.1570319e-09
5.8254498e-07
9.3028956e-11
5.8272483e-07
-9.5312554e-10
5.8300726e-07
-1.9744065e-09
5.8339665e-07
-2.961099e-09
5.8389895e-07
-3.8998222e-09
5.8452109e-07
-4.7723214e-09
5.8527061e-07
-5.5539443e-09
5.8615498e-07
-6.2116967e-09
5.8718035e-07
-6.702183e-09
5.8834945e-07
-6.9686387e-09
5.8965831e-07
-6.9389901e-09
5.9109343e-07
-6.5213249e-09
5.9261823e-07
-5.56642e-09
5.9415984e-07
-3.8954313e-09
5.9498535e-07
-1.5950413e-09
5.888283e-07
-1.4704886e-10
5.3800339e-07
3.0045797e-07
2.5369757e-09
2.4324294e-07
5.5217679e-09
5.2278605e-07
8.3583193e-09
5.9332842e-07
1.0545205e-08
6.0032588e-07
1.1998954e-08
5.9879346e-07
1.2881826e-08
5.9701547e-07
1.3327987e-08
5.9533113e-07
1.3424664e-08
5.937011e-07
1.3244261e-08
5.9216042e-07
1.2848434e-08
5.9073944e-07
1.2287484e-08
5.8945287e-07
1.1601591e-08
5.8830536e-07
1.082229e-08
5.8729547e-07
9.974067e-09
5.8641841e-07
9.0757795e-09
5.8566777e-07
8.1418827e-09
5.8503663e-07
7.1834542e-09
5.8451831e-07
6.2090436e-09
5.8410682e-07
5.2253778e-09
5.8379713e-07
4.2379576e-09
5.8358528e-07
3.2515753e-09
5.8346854e-07
2.2707884e-09
5.8344536e-07
1.3003733e-09
5.835154e-07
3.4577348e-10
5.8367944e-07
-5.8634133e-10
5.8393938e-07
-1.4876092e-09
5.8429793e-07
-2.3472315e-09
5.8475858e-07
-3.1512328e-09
5.853251e-07
-3.8815718e-09
5.8600096e-07
-4.5151226e-09
5.8678854e-07
-5.0225391e-09
5.8768777e-07
-5.3673249e-09
5.8869425e-07
-5.5050434e-09
5.8979603e-07
-5.3830273e-09
5.9097142e-07
-4.9429575e-09
5.9217817e-07
-4.1050648e-09
5.9332196e-07
-2.8126705e-09
5.9369297e-07
-1.2418084e-09
5.8725744e-07
-2.2497919e-10
5.3698657e-07
3.00233e-07
2.5659342e-09
2.4292655e-07
5.2666055e-09
5.2170976e-07
7.4047941e-09
5.9152486e-07
9.0936229e-09
5.9863979e-07
1.032035e-08
5.9755744e-07
1.1142326e-08
5.9619231e-07
1.1620536e-08
5.94853e-07
1.1804921e-08
5.9351676e-07
1.1744447e-08
5.9222091e-07
1.1484639e-08
5.9099926e-07
1.1065415e-08
5.8987211e-07
1.052054e-08
5.8885025e-07
9.8778809e-09
5.8793814e-07
9.1600946e-09
5.8713621e-07
8.3854162e-09
5.8644246e-07
7.5684548e-09
5.858536e-07
6.7209281e-09
5.8536585e-07
5.8523199e-09
5.8497544e-07
4.9704594e-09
5.8467899e-07
4.0820349e-09
5.8447371e-07
3.1930563e-09
5.8435753e-07
2.3092847e-09
5.8432914e-07
1.4366496e-09
5.8438804e-07
5.8165895e-10
5.8453444e-07
-2.4812864e-10
5.8476918e-07
-1.0437151e-09
5.8509353e-07
-1.7940423e-09
5.8550892e-07
-2.4854982e-09
5.8601656e-07
-3.1013279e-09
5.866168e-07
-3.6210623e-09
5.8730829e-07
-4.020042e-09
5.8808676e-07
-4.2692924e-09
5.8894351e-07
-4.3360621e-09
5.8986281e-07
-4.1847706e-09
5.9082014e-07
-3.7816879e-09
5.917751e-07
-3.0914319e-09
5.9263171e-07
-2.1082411e-09
5.9270979e-07
-9.9369185e-10
5.861429e-07
-2.2069235e-10
5.3621358e-07
3.0001232e-07
2.5402794e-09
2.4263686e-07
5.0483313e-09
5.2081966e-07
6.7552475e-09
5.9015274e-07
8.0757719e-09
5.9732947e-07
9.0878612e-09
5.9653882e-07
9.813175e-09
5.9546609e-07
1.0272887e-08
5.9439333e-07
1.0492286e-08
5.9329738e-07
1.0502141e-08
5.9221106e-07
1.033435e-08
5.9116706e-07
1.0019153e-08
5.9018731e-07
9.5836913e-09
5.8928572e-07
9.0515264e-09
5.8847031e-07
8.4426842e-09
5.8774506e-07
7.7739605e-09
5.8711119e-07
7.0593517e-09
5.8656821e-07
6.3105253e-09
5.8611468e-07
5.5372868e-09
5.8574869e-07
4.7480227e-09
5.8546827e-07
3.9501164e-09
5.8527163e-07
3.1503366e-09
5.8515732e-07
2.3552065e-09
5.8512428e-07
1.5713631e-09
5.8517189e-07
8.0591085e-10
5.852999e-07
6.6787517e-11
5.8550831e-07
-6.368702e-10
5.8579719e-07
-1.2943654e-09
5.8616642e-07
-1.8930443e-09
5.8661525e-07
-2.4180096e-09
5.8714177e-07
-2.8518788e-09
5.8774216e-07
-3.1747703e-09
5.8840966e-07
-3.3646606e-09
5.8913341e-07
-3.3985249e-09
5.8989669e-07
-3.253913e-09
5.9067554e-07
-2.9132034e-09
5.914344e-07
-2.3648543e-09
5.9208337e-07
-1.6182701e-09
5.9196321e-07
-7.8955879e-10
5.853142e-07
-1.8184555e-10
5.3560588e-07
2.9983048e-07
2.4966947e-09
2.4238894e-07
4.8485795e-09
5.200788e-07
6.2739978e-09
5.8905924e-07
7.3274445e-09
5.9628925e-07
8.1572408e-09
5.9570385e-07
8.7792913e-09
5.9484329e-07
9.1965811e-09
5.9397606e-07
9.4198071e-09
5.9307418e-07
9.4669872e-09
5.9216389e-07
9.3595615e-09
5.9127449e-07
9.119648e-09
5.9042723e-07
8.7683709e-09
5.89637e-07
8.3250234e-09
5.8891367e-07
7.8067349e-09
5.8826336e-07
7.2284492e-09
5.8768948e-07
6.6030827e-09
5.8719359e-07
5.9417801e-09
5.8677599e-07
5.2542142e-09
5.8643626e-07
4.5489018e-09
5.8617359e-07
3.8335193e-09
5.8598702e-07
3.1152113e-09
5.8587563e-07
2.4008922e-09
5.8583861e-07
1.6975391e-09
5.8587525e-07
1.0124791e-09
5.8598497e-07
3.536708e-10
5.8616712e-07
-2.7002537e-10
5.864209e-07
-8.4860866e-10
5.8674501e-07
-1.3706802e-09
5.8713733e-07
-1.8234052e-09
5.8759451e-07
-2.1924314e-09
5.881112e-07
-2.4621893e-09
5.8867943e-07
-2.6164527e-09
5.8928768e-07
-2.6396192e-09
5.8991986e-07
-2.5183671e-09
5.9055429e-07
-2.2447521e-09
5.9116079e-07
-1.818077e-09
5.9165671e-07
-1.249368e-09
5.9139451e-07
-6.1483952e-10
5.8467968e-07
-1.3870746e-10
5.3512976e-07
2.9969178e-07
2.4543138e-09
2.4218122e-07
4.6709531e-09
5.1946639e-07
5.8912458e-09
5.8816869e-07
6.745961e-09
5.9544949e-07
7.4269299e-09
5.9501849e-07
7.9527342e-09
5.9431683e-07
8.3194466e-09
5.9360936e-07
8.5298372e-09
5.928638e-07
8.5936443e-09
5.9210009e-07
8.5247818e-09
5.9134336e-07
8.3390137e-09
5.9061301e-07
8.0524068e-09
5.8992361e-07
7.6804053e-09
5.8928568e-07
7.2373234e-09
5.8870644e-07
6.7361318e-09
5.8819068e-07
6.1884344e-09
5.8774129e-07
5.6045645e-09
5.8735987e-07
4.9937521e-09
5.8704708e-07
4.3643288e-09
5.8680302e-07
3.7239534e-09
5.866274e-07
3.0798438e-09
5.8651975e-07
2.439009e-09
5.8647945e-07
1.8084774e-09
5.8650579e-07
1.1955169e-09
5.8659794e-07
6.0784235e-10
5.8675481e-07
5.3801344e-11
5.8697494e-07
-4.5746486e-10
5.8725629e-07
-9.1600731e-10
5.8759588e-07
-1.3108995e-09
5.8798941e-07
-1.6305474e-09
5.8843086e-07
-1.8629869e-09
5.8891187e-07
-1.9965263e-09
5.8942123e-07
-2.0208896e-09
5.8994423e-07
-1.9286843e-09
5.904621e-07
-1.7173776e-09
5.9094949e-07
-1.3904435e-09
5.9132978e-07
-9.572354e-10
5.9096131e-07
-4.6855785e-10
5.8419101e-07
-1.0266193e-10
5.3476387e-07
2.9958913e-07
2.4189804e-09
2.4200712e-07
4.5196559e-09
5.1896397e-07
5.5767896e-09
5.8744038e-07
6.2771255e-09
5.9476561e-07
6.8369499e-09
5.9445485e-07
7.2777379e-09
5.9387545e-07
7.5934816e-09
5.9329363e-07
7.7829262e-09
5.9267437e-07
7.8507027e-09
5.9203232e-07
7.8055325e-09
5.9138854e-07
7.6584261e-09
5.9076012e-07
7.4214061e-09
5.9016064e-07
7.1066407e-09
5.8960045e-07
6.7258958e-09
5.890872e-07
6.2902305e-09
5.8862635e-07
5.8098666e-09
5.8822167e-07
5.2941769e-09
5.8787556e-07
4.7517534e-09
5.8758951e-07
4.190525e-09
5.8736425e-07
3.6179051e-09
5.8720003e-07
3.040955e-09
5.8709671e-07
2.466553e-09
5.8705386e-07
1.9015619e-09
5.8707079e-07
1.3529883e-09
5.8714652e-07
8.2812581e-10
5.8727968e-07
3.346665e-10
5.8746841e-07
-1.1921748e-10
5.8771018e-07
-5.2485119e-10
5.8800152e-07
-8.7317457e-10
5.8833774e-07
-1.1549111e-09
5.887126e-07
-1.3609755e-09
5.8911795e-07
-1.4830665e-09
5.8954332e-07
-1.5145877e-09
5.8997576e-07
-1.4518353e-09
5.9039935e-07
-1.2951233e-09
5.9079279e-07
-1.0492229e-09
5.9108389e-07
-7.2184001e-10
5.9063394e-07
-3.4951254e-10
5.838187e-07
-7.4857451e-11
5.3448922e-07
2.9951428e-07
2.3903723e-09
2.4186035e-07
4.3941026e-09
5.1855356e-07
5.3168986e-09
5.8684619e-07
5.8930242e-09
5.9420734e-07
6.3531086e-09
5.9399142e-07
6.7201468e-09
5.9350786e-07
6.9877882e-09
5.9302599e-07
7.1528656e-09
5.9250931e-07
7.2169625e-09
5.9196824e-07
7.185307e-09
5.914202e-07
7.0654524e-09
5.9087998e-07
6.8662864e-09
5.9035982e-07
6.5972902e-09
5.8986945e-07
6.2680227e-09
5.8941647e-07
5.8877922e-09
5.8900659e-07
5.4654721e-09
5.8864399e-07
5.0094232e-09
5.8833162e-07
4.5274938e-09
5.8807145e-07
4.0270707e-09
5.8786468e-07
3.5151643e-09
5.8771194e-07
2.998515e-09
5.8761336e-07
2.4837069e-09
5.8756868e-07
1.9772832e-09
5.8757722e-07
1.4858528e-09
5.8763795e-07
1.0161806e-09
5.8774936e-07
5.7524836e-10
5.8790935e-07
1.7027861e-10
5.8811516e-07
-1.9130333e-10
5.8836311e-07
-5.0200945e-10
5.8864845e-07
-7.5446527e-10
5.8896506e-07
-9.4181773e-10
5.8930531e-07
-1.0582492e-09
5.8965976e-07
-1.0996488e-09
5.9001717e-07
-1.0645331e-09
5.9036424e-07
-9.5463229e-10
5.9068289e-07
-7.7491359e-10
5.9090418e-07
-5.3196797e-10
5.90391e-07
-2.540431e-10
5.8354078e-07
-5.3317735e-11
5.3428851e-07
2.9946097e-07
2.366722e-09
2.4173626e-07
4.290563e-09
5.1821903e-07
5.102433e-09
5.8636293e-07
5.5766952e-09
5.9375217e-07
5.9536857e-09
5.9361149e-07
6.2570351e-09
5.9320399e-07
6.4806165e-09
5.9280241e-07
6.6204569e-09
5.9236948e-07
6.6763703e-09
5.9191233e-07
6.6512735e-09
5.914453e-07
6.5502476e-09
5.9098102e-07
6.3797983e-09
5.9053027e-07
6.147255e-09
5.90102e-07
5.8603201e-09
5.8970341e-07
5.5267552e-09
5.8934016e-07
5.1541788e-09
5.8901658e-07
4.7499541e-09
5.8873585e-07
4.3211437e-09
5.8850026e-07
3.8745145e-09
5.8831132e-07
3.416575e-09
5.8816989e-07
2.9536348e-09
5.8807631e-07
2.4918737e-09
5.8803044e-07
2.0374135e-09
5.8803169e-07
1.5963814e-09
5.8807899e-07
1.1749592e-09
5.8817079e-07
7.7940489e-10
5.8830491e-07
4.1603618e-10
5.8847853e-07
9.1169068e-11
5.8868799e-07
-1.8901755e-10
5.8892865e-07
-4.1871138e-10
5.8919477e-07
-5.9275494e-10
5.8947936e-07
-7.0710066e-10
5.8977412e-07
-7.5930092e-10
5.9006938e-07
-7.4916188e-10
5.9035411e-07
-6.7905917e-10
5.906128e-07
-5.5373817e-10
5.9077886e-07
-3.7902146e-10
5.9021629e-07
-1.7757607e-10
5.8333934e-07
-3.6119333e-11
5.3414706e-07
2.9942486e-07
2.3466532e-09
2.4163145e-07
4.2047025e-09
5.1794704e-07
4.9253062e-09
5.8597088e-07
5.3153489e-09
5.9338223e-07
5.6225891e-09
5.9330163e-07
5.8710025e-09
5.9295509e-07
6.0548882e-09
5.9261852e-07
6.1700489e-09
5.9225433e-07
6.2153113e-09
5.9186707e-07
6.1920852e-09
5.9146854e-07
6.1037054e-09
5.910694e-07
5.9548916e-09
5.9067909e-07
5.7512771e-09
5.9030562e-07
5.4990336e-09
5.8995566e-07
5.2045892e-09
5.8963462e-07
4.8744314e-09
5.8934674e-07
4.5149797e-09
5.8909531e-07
4.1325153e-09
5.8888274e-07
3.7331537e-09
5.8871069e-07
3.322848e-09
5.885802e-07
2.907412e-09
5.8849175e-07
2.4925546e-09
5.8844531e-07
2.0839164e-09
5.8844034e-07
1.6871004e-09
5.8847582e-07
1.3076886e-09
5.885502e-07
9.5123681e-10
5.8866137e-07
6.2323616e-10
5.8880654e-07
3.2903595e-10
5.889822e-07
7.3707336e-11
5.8918398e-07
-1.3814823e-10
5.8940663e-07
-3.0266225e-10
5.8964388e-07
-4.170389e-10
5.898885e-07
-4.7992353e-10
5.9013227e-07
-4.9183742e-10
5.9036603e-07
-4.5537556e-10
5.9057635e-07
-3.7490089e-10
5.906984e-07
-2.5564492e-10
5.9009704e-07
-1.1606175e-10
5.8319977e-07
-2.2118969e-11
5.3405312e-07
2.9940275e-07
2.3293877e-09
2.4154323e-07
4.1328829e-09
5.1772691e-07
4.7783471e-09
5.8565388e-07
5.0984627e-09
5.9308303e-07
5.3469106e-09
5.9305083e-07
5.5479855e-09
5.9275356e-07
5.6964994e-09
5.9247e-07
5.7883387e-09
5.921625e-07
5.8218214e-09
5.918336e-07
5.7973936e-09
5.9149297e-07
5.7171692e-09
5.9114963e-07
5.5845418e-09
5.9081173e-07
5.4038231e-09
5.9048635e-07
5.1799394e-09
5.9017956e-07
4.9181896e-09
5.8989637e-07
4.6240636e-09
5.8964087e-07
4.3031146e-09
5.8941627e-07
3.9608759e-09
5.8922498e-07
3.6028139e-09
5.8906876e-07
3.2343073e-09
5.8894872e-07
2.8606445e-09
5.8886542e-07
2.487031e-09
5.8881893e-07
2.1185997e-09
5.8880877e-07
1.7604165e-09
5.8883401e-07
1.4174745e-09
5.8889315e-07
1.09467e-09
5.8898418e-07
7.9675181e-10
5.8910447e-07
5.2823871e-10
5.8925072e-07
2.9329616e-10
5.8941893e-07
9.5567609e-11
5.8960436e-07
-6.2035331e-11
5.8980149e-07
-1.7759019e-10
5.9000406e-07
-2.5044681e-10
5.9020514e-07
-2.8149345e-10
5.9039709e-07
-2.7329691e-10
5.9056816e-07
-2.2979395e-10
5.906549e-07
-1.5574918e-10
5.9002301e-07
-6.6350176e-11
5.8311038e-07
-1.0624105e-11
5.339974e-07
2.9939213e-07
2.3144842e-09
2.4146934e-07
4.0723718e-09
5.1755016e-07
4.655649e-09
5.8539895e-07
4.9174672e-09
5.9284275e-07
5.1162218e-09
5.9284993e-07
5.2765433e-09
5.9259279e-07
5.3937855e-09
5.9235275e-07
5.4640767e-09
5.9209222e-07
5.4855189e-09
5.9181216e-07
5.4579589e-09
5.9152054e-07
5.3826665e-09
5.9122493e-07
5.2620579e-09
5.9093234e-07
5.0994234e-09
5.9064899e-07
4.8986859e-09
5.903803e-07
4.6641995e-09
5.9013087e-07
4.4005887e-09
5.8990449e-07
4.1126277e-09
5.8970424e-07
3.8051538e-09
5.8953246e-07
3.483009e-09
5.8939091e-07
3.1510045e-09
5.8928073e-07
2.8138993e-09
5.8920254e-07
2.4763891e-09
5.8915645e-07
2.1430968e-09
5.8914207e-07
1.8185605e-09
5.8915855e-07
1.5072124e-09
5.8920451e-07
1.2133428e-09
5.8927806e-07
9.410445e-10
5.8937677e-07
6.9413162e-10
5.8949764e-07
4.760305e-10
5.8963704e-07
2.8963917e-10
5.8979076e-07
1.3715809e-10
5.8995398e-07
1.9902027e-11
5.9012133e-07
-6.1910624e-11
5.9028696e-07
-1.0932202e-10
5.9044451e-07
-1.2473137e-10
5.9058357e-07
-1.116627e-10
5.9064184e-07
-7.4576445e-11
5.8998593e-07
-2.6189727e-11
5.83062e-07
-8.8878336e-13
5.3397211e-07
2.9939125e-07
2.3016258e-09
2.4140782e-07
4.0211306e-09
5.174099e-07
4.5525825e-09
5.8519571e-07
4.7655702e-09
5.9265182e-07
4.9222127e-09
5.9269131e-07
5.0474655e-09
5.9246712e-07
5.1372115e-09
5.92263e-07
5.1878941e-09
5.9204155e-07
5.1975752e-09
5.9180249e-07
5.1657454e-09
5.9155237e-07
5.0930979e-09
5.9129759e-07
4.9813334e-09
5.9104411e-07
4.8329567e-09
5.9079737e-07
4.6510879e-09
5.9056217e-07