/*--------------------------------*- C++ -*----------------------------------*\
  =========                 |
  \\      /  F ield         | OpenFOAM: The Open Source CFD Toolbox
   \\    /   O peration     | Website:  https://openfoam.org
    \\  /    A nd           | Version:  10
     \\/     M anipulation  |
\*---------------------------------------------------------------------------*/
FoamFile
{
    format      ascii;
    class       volVectorField;
    location    "0.02";
    object      U;
}
// * * * * * * * * * * * * * * * * * * * * * * * * * * * * * * * * * * * * * //

dimensions      [0 1 -1 0 0 0 0];

internalField   nonuniform List<vector> 
4000
(
(0 0.018531428 0.47797986)
(0 0.023101903 0.50866468)
(0 0.0077048389 0.5005308)
(0 0.0053219628 0.50034928)
(0 0.0039699899 0.50025365)
(0 0.002992325 0.50016241)
(0 0.0023254208 0.5001136)
(0 0.0018544654 0.50008443)
(0 0.0015041565 0.50006456)
(0 0.0012346347 0.50005069)
(0 0.0010215163 0.50004082)
(0 0.00084864809 0.50003364)
(0 0.0007050834 0.50002833)
(0 0.00058318916 0.50002436)
(0 0.00047748321 0.50002137)
(0 0.00038392173 0.50001912)
(0 0.00029943851 0.50001745)
(0 0.00022163659 0.50001623)
(0 0.00014857442 0.5000154)
(0 7.8611678e-05 0.50001489)
(0 1.0291227e-05 0.50001469)
(0 -5.7760401e-05 0.50001478)
(0 -0.00012692007 0.50001518)
(0 -0.00019865661 0.50001591)
(0 -0.00027463479 0.50001703)
(0 -0.00035684384 0.50001862)
(0 -0.00044776893 0.50002081)
(0 -0.00055063512 0.50002378)
(0 -0.00066976797 0.50002781)
(0 -0.00081114835 0.5000333)
(0 -0.00098331112 0.5000409)
(0 -0.0011988178 0.50005161)
(0 -0.00147663 0.50006699)
(0 -0.0018475708 0.50008961)
(0 -0.0023694386 0.50012713)
(0 -0.0031346117 0.50019722)
(0 -0.0042147446 0.50028063)
(0 -0.0061132298 0.50043979)
(0 -0.01721002 0.50658068)
(0 -0.013431969 0.479984)
(0 0.036842941 0.44915684)
(0 0.049513329 0.5318386)
(0 0.020550572 0.50792739)
(0 0.015155292 0.50358617)
(0 0.011467652 0.50236556)
(0 0.0086720058 0.50155154)
(0 0.0067924098 0.50108983)
(0 0.0054442461 0.50080433)
(0 0.0044304434 0.5006125)
(0 0.0036467691 0.50048003)
(0 0.0030244622 0.5003862)
(0 0.0025175854 0.50031819)
(0 0.0020950276 0.50026805)
(0 0.0017349838 0.50023064)
(0 0.0014217366 0.50020254)
(0 0.0011436642 0.50018143)
(0 0.00089193533 0.50016571)
(0 0.00065963188 0.50015429)
(0 0.00044113997 0.50014644)
(0 0.00023170988 0.50014168)
(0 2.7118083e-05 0.50013974)
(0 -0.00017661489 0.50014055)
(0 -0.00038347475 0.50014419)
(0 -0.00059770794 0.50015096)
(0 -0.00082411772 0.50016135)
(0 -0.001068429 0.50017615)
(0 -0.0013377758 0.50019657)
(0 -0.0016413939 0.50022437)
(0 -0.001991641 0.50026217)
(0 -0.0024055487 0.50031393)
(0 -0.0029073087 0.50038578)
(0 -0.0035325243 0.50048761)
(0 -0.0043345816 0.50063552)
(0 -0.0053944809 0.50085624)
(0 -0.0068617183 0.5012119)
(0 -0.0090340307 0.5018431)
(0 -0.011968878 0.50282751)
(0 -0.015955137 0.50599515)
(0 -0.037206612 0.52479701)
(0 -0.027197815 0.45145443)
(0 0.038683388 0.41267802)
(0 0.058662221 0.54891812)
(0 0.029343137 0.52136347)
(0 0.022522777 0.50994522)
(0 0.017471516 0.50637825)
(0 0.013484983 0.50429852)
(0 0.010741712 0.50305959)
(0 0.0086993439 0.50226607)
(0 0.00713244 0.50173049)
(0 0.0059062837 0.50135999)
(0 0.0049221046 0.5010968)
(0 0.004113225 0.5009057)
(0 0.003433748 0.50076465)
(0 0.0028509434 0.50065932)
(0 0.0023409576 0.50058011)
(0 0.0018859983 0.50052053)
(0 0.0014724404 0.50047613)
(0 0.0010895387 0.50044383)
(0 0.00072852383 0.50042158)
(0 0.0003819408 0.50040804)
(0 4.3141993e-05 0.50040247)
(0 -0.00029414123 0.50040464)
(0 -0.00063618117 0.5004148)
(0 -0.00098963731 0.50043374)
(0 -0.0013620048 0.50046286)
(0 -0.0017621588 0.50050439)
(0 -0.0022010768 0.50056163)
(0 -0.0026928522 0.50063952)
(0 -0.0032561713 0.50074539)
(0 -0.0039165042 0.50089026)
(0 -0.0047094275 0.50109111)
(0 -0.0056863871 0.50137508)
(0 -0.0069236638 0.50178683)
(0 -0.0085265192 0.50239869)
(0 -0.010662764 0.50335262)
(0 -0.013745566 0.50496368)
(0 -0.017770272 0.50772046)
(0 -0.022433034 0.51597914)
(0 -0.044429515 0.53867755)
(0 -0.029448074 0.41802049)
(0 0.03303845 0.36733813)
(0 0.059509588 0.55487843)
(0 0.035051353 0.53618496)
(0 0.027148614 0.51792569)
(0 0.021493498 0.51146104)
(0 0.017063339 0.50797915)
(0 0.013891193 0.5057919)
(0 0.011414534 0.50433542)
(0 0.0094655324 0.50333869)
(0 0.0079095515 0.50264182)
(0 0.0066384833 0.50214256)
(0 0.0055788436 0.50177788)
(0 0.0046780931 0.5015075)
(0 0.0038976563 0.50130481)
(0 0.0032088769 0.5011519)
(0 0.0025900178 0.50103656)
(0 0.0020241875 0.50095037)
(0 0.001497897 0.50088753)
(0 0.0010000212 0.50084411)
(0 0.00052101752 0.50081757)
(0 5.2334663e-05 0.5008065)
(0 -0.00041410904 0.50081044)
(0 -0.00088639084 0.50082988)
(0 -0.001373034 0.50086627)
(0 -0.0018835488 0.50092227)
(0 -0.0024290659 0.50100205)
(0 -0.003023164 0.50111185)
(0 -0.0036830024 0.50126088)
(0 -0.0044309277 0.50146279)
(0 -0.0052967938 0.50173798)
(0 -0.0063211249 0.50211743)
(0 -0.0075602555 0.50264957)
(0 -0.0090967978 0.50341313)
(0 -0.011037003 0.50453247)
(0 -0.013502735 0.50621455)
(0 -0.016915204 0.50889899)
(0 -0.021411874 0.51374554)
(0 -0.026586742 0.52708379)
(0 -0.045541932 0.5441766)
(0 -0.026277106 0.37863722)
(0 0.025108431 0.3242935)
(0 0.056213735 0.55207224)
(0 0.038119299 0.54906512)
(0 0.02964624 0.52604716)
(0 0.023814852 0.51666787)
(0 0.019436827 0.51193345)
(0 0.016166332 0.50885305)
(0 0.013497823 0.50672956)
(0 0.011343088 0.5052487)
(0 0.0095785741 0.50419619)
(0 0.0081045063 0.50343238)
(0 0.0068530324 0.50286909)
(0 0.0057727427 0.50244818)
(0 0.0048245705 0.50213057)
(0 0.0039787105 0.50188966)
(0 0.0032119707 0.50170707)
(0 0.0025059285 0.50157008)
(0 0.0018455931 0.50146981)
(0 0.0012184026 0.50140026)
(0 0.00061343949 0.50135752)
(0 2.0846461e-05 0.50133939)
(0 -0.00056872822 0.50134514)
(0 -0.0011646126 0.50137549)
(0 -0.0017765699 0.50143267)
(0 -0.0024153578 0.50152067)
(0 -0.0030933499 0.50164581)
(0 -0.0038253324 0.50181746)
(0 -0.0046295479 0.5020494)
(0 -0.0055291029 0.50236178)
(0 -0.0065539781 0.50278442)
(0 -0.0077434835 0.50336187)
(0 -0.0091491297 0.5041617)
(0 -0.010845605 0.50529087)
(0 -0.012931289 0.50691606)
(0 -0.015468353 0.50928059)
(0 -0.018816767 0.51290022)
(0 -0.023396547 0.51978467)
(0 -0.028900582 0.53697459)
(0 -0.043557486 0.54294068)
(0 -0.021053449 0.34135699)
(0 0.01675688 0.2896584)
(0 0.049897913 0.54406732)
(0 0.038339146 0.55876271)
(0 0.030521555 0.53368703)
(0 0.024916171 0.52157314)
(0 0.020870899 0.5157312)
(0 0.01771228 0.5119103)
(0 0.015030617 0.50921227)
(0 0.012806533 0.50729386)
(0 0.010931451 0.50590521)
(0 0.0093254801 0.50488244)
(0 0.0079334875 0.50411896)
(0 0.0067104517 0.50354251)
(0 0.0056209929 0.50310367)
(0 0.0046371527 0.50276831)
(0 0.003736418 0.50251253)
(0 0.0029003765 0.50231954)
(0 0.0021136631 0.5021776)
(0 0.0013631242 0.50207865)
(0 0.00063713597 0.50201744)
(0 -7.4909807e-05 0.50199097)
(0 -0.00078313199 0.50199822)
(0 -0.0014975923 0.50204012)
(0 -0.0022287244 0.50211959)
(0 -0.0029878388 0.50224191)
(0 -0.0037876539 0.50241536)
(0 -0.0046429556 0.50265216)
(0 -0.0055714087 0.50297008)
(0 -0.0065945563 0.50339481)
(0 -0.0077392508 0.50396376)
(0 -0.0090394377 0.50473195)
(0 -0.010536364 0.50578069)
(0 -0.01228746 0.50723466)
(0 -0.014378986 0.50928833)
(0 -0.016823938 0.51221004)
(0 -0.019876442 0.51661781)
(0 -0.024175595 0.52539526)
(0 -0.029184341 0.54465972)
(0 -0.039047632 0.53747939)
(0 -0.014791047 0.3110159)
(0 0.0090619717 0.26368067)
(0 0.041486287 0.53303011)
(0 0.036018202 0.5647434)
(0 0.030211838 0.54037323)
(0 0.025263836 0.52601319)
(0 0.021740518 0.51919122)
(0 0.018841081 0.51480026)
(0 0.01626852 0.51165381)
(0 0.014063679 0.50937477)
(0 0.0121427 0.50769558)
(0 0.01045319 0.50644)
(0 0.008955704 0.50548998)
(0 0.0076146599 0.50476403)
(0 0.0064009987 0.50420563)
(0 0.0052905659 0.50377508)
(0 0.0042630302 0.50344416)
(0 0.0033011392 0.50319284)
(0 0.0023900307 0.50300691)
(0 0.001516641 0.50287654)
(0 0.00066919622 0.50279529)
(0 -0.0001631981 0.50275941)
(0 -0.00099100293 0.50276762)
(0 -0.0018245872 0.50282098)
(0 -0.0026745951 0.50292297)
(0 -0.0035523497 0.50307994)
(0 -0.0044702492 0.50330172)
(0 -0.0054422311 0.50360278)
(0 -0.0064842893 0.50400386)
(0 -0.007614999 0.50453455)
(0 -0.0088562056 0.50523724)
(0 -0.010234252 0.50617339)
(0 -0.011778168 0.50743242)
(0 -0.01352249 0.50914719)
(0 -0.015532728 0.51152545)
(0 -0.017781687 0.51485984)
(0 -0.020393922 0.51991284)
(0 -0.024074903 0.53020932)
(0 -0.027549216 0.54944409)
(0 -0.032468207 0.5291693)
(0 -0.0082001427 0.2881901)
(0 0.0030465723 0.24542293)
(0 0.03215367 0.5203107)
(0 0.032082884 0.56673071)
(0 0.029214709 0.54542428)
(0 0.025296296 0.52976171)
(0 0.022426584 0.52221022)
(0 0.019887599 0.51744334)
(0 0.017507416 0.5139897)
(0 0.015379566 0.51143982)
(0 0.013456243 0.50952803)
(0 0.011716538 0.50807645)
(0 0.010137793 0.50696228)
(0 0.0086957786 0.50609987)
(0 0.0073692396 0.505429)
(0 0.0061389855 0.50490663)
(0 0.0049878676 0.50450174)
(0 0.0039006251 0.50419198)
(0 0.0028635854 0.50396134)
(0 0.0018643475 0.50379862)
(0 0.00089148045 0.5036964)
(0 -6.5768039e-05 0.50365031)
(0 -0.001017796 0.50365881)
(0 -0.0019748918 0.50372303)
(0 -0.0029475032 0.50384688)
(0 -0.0039465244 0.50403742)
(0 -0.0049835386 0.5043056)
(0 -0.0060710696 0.50466732)
(0 -0.0072227895 0.50514515)
(0 -0.0084536047 0.50577082)
(0 -0.0097795213 0.50658904)
(0 -0.011218138 0.50766361)
(0 -0.012786065 0.50908665)
(0 -0.014493139 0.51099088)
(0 -0.016374842 0.51358077)
(0 -0.018373741 0.51716561)
(0 -0.020476343 0.52263238)
(0 -0.023311855 0.53368326)
(0 -0.024564731 0.55080974)
(0 -0.024712735 0.51881944)
(0 -0.0024403641 0.27227428)
(0 -0.00064583092 0.23403214)
(0 0.023019586 0.50719765)
(0 0.027511388 0.56487867)
(0 0.027843389 0.54823443)
(0 0.025223977 0.53255651)
(0 0.023085918 0.52469389)
(0 0.02096485 0.51977555)
(0 0.018838336 0.51616892)
(0 0.016837355 0.51344835)
(0 0.014955425 0.51137046)
(0 0.013202345 0.50976676)
(0 0.011572207 0.50851711)
(0 0.010053223 0.5075368)
(0 0.0086326764 0.50676521)
(0 0.0072970941 0.50615821)
(0 0.0060332704 0.50568357)
(0 0.0048286354 0.50531768)
(0 0.0036713436 0.50504342)
(0 0.0025502379 0.50484869)
(0 0.0014547582 0.50472536)
(0 0.00037478379 0.50466863)
(0 -0.00069954774 0.50467674)
(0 -0.0017779883 0.50475082)
(0 -0.0028703318 0.50489498)
(0 -0.0039865712 0.50511673)
(0 -0.0051369892 0.50542759)
(0 -0.0063322013 0.50584414)
(0 -0.0075830572 0.50638961)
(0 -0.0089003626 0.50709616)
(0 -0.010294001 0.50800836)
(0 -0.011772346 0.50918849)
(0 -0.013340131 0.51072558)
(0 -0.014985117 0.51274438)
(0 -0.016708139 0.51542916)
(0 -0.018436817 0.51908747)
(0 -0.020019569 0.52463876)
(0 -0.021898443 0.53540653)
(0 -0.020879707 0.54881182)
(0 -0.016876791 0.50745104)
(0 0.0014053908 0.26252722)
(0 -0.0020556283 0.2281315)
(0 0.015062363 0.49498064)
(0 0.022943958 0.55985433)
(0 0.026054116 0.54860721)
(0 0.024864132 0.5342412)
(0 0.023490789 0.52657503)
(0 0.021823025 0.52173702)
(0 0.020007396 0.51813182)
(0 0.01819233 0.5153462)
(0 0.016411219 0.51317501)
(0 0.014699756 0.51146921)
(0 0.013067814 0.51011874)
(0 0.01151616 0.50904463)
(0 0.010040807 0.50818898)
(0 0.0086345371 0.50750883)
(0 0.0072887319 0.5069722)
(0 0.0059941736 0.50655535)
(0 0.0047414998 0.50624079)
(0 0.0035214313 0.506016)
(0 0.0023248803 0.50587249)
(0 0.0011429421 0.5058052)
(0 -3.3145545e-05 0.5058122)
(0 -0.0012120326 0.50589455)
(0 -0.002402304 0.50605642)
(0 -0.0036124838 0.50630539)
(0 -0.0048509854 0.50665307)
(0 -0.006125961 0.50711595)
(0 -0.0074449133 0.50771683)
(0 -0.0088141177 0.50848672)
(0 -0.01023725 0.5094678)
(0 -0.011713546 0.51071746)
(0 -0.013236507 0.51231609)
(0 -0.014777296 0.51437373)
(0 -0.016302667 0.51704245)
(0 -0.017738539 0.52060294)
(0 -0.018814537 0.52588887)
(0 -0.019714661 0.53538179)
(0 -0.016962068 0.54420479)
(0 -0.010020485 0.4964263)
(0 0.0030217896 0.25769988)
(0 -0.0018350531 0.22587347)
(0 0.0090439196 0.48468871)
(0 0.018677335 0.55275665)
(0 0.023640276 0.54685508)
(0 0.023812061 0.5348191)
(0 0.023188482 0.52782376)
(0 0.022005314 0.52327633)
(0 0.020558672 0.51981044)
(0 0.018998501 0.51706188)
(0 0.017392129 0.51487206)
(0 0.015794426 0.51311842)
(0 0.014229453 0.51170704)
(0 0.012709677 0.51056853)
(0 0.011239588 0.50965047)
(0 0.0098185066 0.50891304)
(0 0.0084428665 0.50832601)
(0 0.0071073611 0.50786648)
(0 0.0058057114 0.50751736)
(0 0.0045311271 0.50726625)
(0 0.0032765934 0.50710463)
(0 0.0020350196 0.50702737)
(0 0.00079933406 0.50703243)
(0 -0.00043742848 0.50712078)
(0 -0.0016820579 0.50729642)
(0 -0.0029410142 0.50756667)
(0 -0.0042202611 0.50794274)
(0 -0.0055249461 0.50844031)
(0 -0.0068587352 0.50908071)
(0 -0.0082230002 0.50989243)
(0 -0.0096152285 0.5109133)
(0 -0.011026161 0.51219326)
(0 -0.012438672 0.51379979)
(0 -0.013812972 0.51582345)
(0 -0.015086984 0.51837941)
(0 -0.01618831 0.5216952)
(0 -0.016778361 0.52642758)
(0 -0.01677409 0.53400297)
(0 -0.013116036 0.53818757)
(0 -0.0049211763 0.48703879)
(0 0.0029338972 0.25604614)
(0 -0.00087753191 0.22551517)
(0 0.0052754546 0.47682846)
(0 0.014861762 0.5449184)
(0 0.02057884 0.54367669)
(0 0.021827792 0.53443675)
(0 0.021876972 0.52844743)
(0 0.021193505 0.52435679)
(0 0.020157851 0.52114176)
(0 0.018913398 0.51852081)
(0 0.017551762 0.51638346)
(0 0.016139914 0.5146371)
(0 0.01471378 0.51320765)
(0 0.013295802 0.51203786)
(0 0.011898232 0.51108288)
(0 0.010526791 0.5103077)
(0 0.0091830851 0.50968504)
(0 0.0078660148 0.50919384)
(0 0.0065727765 0.50881808)
(0 0.0052995064 0.50854598)
(0 0.0040417228 0.50836933)
(0 0.0027946196 0.50828314)
(0 0.0015532901 0.50828533)
(0 0.00031291918 0.5083767)
(0 -0.0009310306 0.50856093)
(0 -0.0021824973 0.50884468)
(0 -0.0034445769 0.5092384)
(0 -0.0047190794 0.50975621)
(0 -0.0060055976 0.51041711)
(0 -0.007300549 0.51124591)
(0 -0.008595536 0.51227459)
(0 -0.0098740492 0.513544)
(0 -0.011109586 0.5151064)
(0 -0.012255821 0.51703001)
(0 -0.013231859 0.51939405)
(0 -0.013962777 0.52235448)
(0 -0.014110495 0.52635366)
(0 -0.013389263 0.53184327)
(0 -0.0095927002 0.53199357)
(0 -0.0018401973 0.48000115)
(0 0.0020109319 0.25595978)
(0 9.4328945e-05 0.22581312)
(0 0.0034844276 0.47132879)
(0 0.011648191 0.53758111)
(0 0.017176167 0.53989759)
(0 0.019075216 0.53334642)
(0 0.019655181 0.52850399)
(0 0.019441374 0.52497396)
(0 0.018817718 0.52208994)
(0 0.017917094 0.5196694)
(0 0.016842636 0.51764647)
(0 0.01566656 0.51595884)
(0 0.0144332 0.51455335)
(0 0.013172427 0.51338617)
(0 0.011902949 0.51242133)
(0 0.010636154 0.51162975)
(0 0.0093784583 0.5109881)
(0 0.0081328661 0.51047789)
(0 0.006900095 0.51008481)
(0 0.005679349 0.50979813)
(0 0.0044688772 0.50961027)
(0 0.0032663856 0.50951653)
(0 0.0020693708 0.50951488)
(0 0.00087542335 0.50960589)
(0 -0.0003176427 0.50979277)
(0 -0.0015109315 0.51008131)
(0 -0.0027045764 0.51048064)
(0 -0.003897212 0.51100285)
(0 -0.0050844617 0.51166395)
(0 -0.0062583136 0.51248424)
(0 -0.0074053456 0.51348895)
(0 -0.0085036655 0.51470899)
(0 -0.0095200258 0.51618113)
(0 -0.010405091 0.51795048)
(0 -0.011072101 0.52006427)
(0 -0.011440881 0.52260454)
(0 -0.011230184 0.52581166)
(0 -0.010069358 0.52944182)
(0 -0.006651808 0.52655589)
(0 -0.00044547603 0.47523839)
(0 0.0010492574 0.25633514)
(0 0.00074522591 0.22610183)
(0 0.0030044702 0.46771939)
(0 0.0091658927 0.53155533)
(0 0.013915891 0.53620783)
(0 0.016032153 0.53185072)
(0 0.016958517 0.52811169)
(0 0.017127053 0.52517417)
(0 0.016865523 0.52266551)
(0 0.016291346 0.52049479)
(0 0.015505815 0.51863364)
(0 0.01458008 0.51704749)
(0 0.013562375 0.51570291)
(0 0.012486847 0.51456943)
(0 0.011376717 0.51362046)
(0 0.010247715 0.5128334)
(0 0.0091102127 0.51218943)
(0 0.0079707769 0.51167319)
(0 0.0068333166 0.5112725)
(0 0.0056999116 0.51097803)
(0 0.00457144 0.5107831)
(0 0.0034480661 0.51068345)
(0 0.0023296458 0.51067716)
(0 0.0012161347 0.51076451)
(0 0.00010773378 0.51094811)
(0 -0.00099415902 0.51123288)
(0 -0.002086973 0.51162602)
(0 -0.0031663954 0.51213742)
(0 -0.0042248593 0.51277969)
(0 -0.0052509682 0.51356821)
(0 -0.0062277429 0.51452124)
(0 -0.0071302334 0.51565981)
(0 -0.007922212 0.51700644)
(0 -0.0085547521 0.51858504)
(0 -0.0089471132 0.52041623)
(0 -0.0090181148 0.52252203)
(0 -0.0085667153 0.5249844)
(0 -0.007251545 0.52718234)
(0 -0.0044532417 0.52233975)
(0 -8.9731507e-05 0.47223892)
(0 0.0004208959 0.2566292)
(0 0.0010630285 0.22616249)
(0 0.0031314381 0.46539247)
(0 0.0074305628 0.52707856)
(0 0.011195795 0.53301793)
(0 0.013206322 0.53023225)
(0 0.014293058 0.52742949)
(0 0.014718881 0.52505188)
(0 0.01473233 0.52292589)
(0 0.014428873 0.52102777)
(0 0.013897586 0.51935737)
(0 0.013203317 0.51790278)
(0 0.012393529 0.51664735)
(0 0.011503367 0.51557281)
(0 0.010558256 0.5146615)
(0 0.0095765736 0.5138973)
(0 0.0085714407 0.51326604)
(0 0.0075521222 0.51275573)
(0 0.0065250911 0.51235657)
(0 0.0054948421 0.51206085)
(0 0.0044645309 0.51186294)
(0 0.0034364948 0.51175915)
(0 0.0024126904 0.5117477)
(0 0.0013951459 0.51182864)
(0 0.00038622875 0.51200387)
(0 -0.00061065693 0.51227722)
(0 -0.0015907586 0.51265406)
(0 -0.0025474007 0.51314186)
(0 -0.0034708754 0.51374972)
(0 -0.0043477158 0.51448821)
(0 -0.0051592014 0.51536903)
(0 -0.0058797175 0.51640425)
(0 -0.006473863 0.51760446)
(0 -0.0068964552 0.5189766)
(0 -0.007080203 0.52052106)
(0 -0.0069515732 0.52222159)
(0 -0.0063836976 0.52405624)
(0 -0.0051280363 0.52526474)
(0 -0.002975622 0.51935542)
(0 -0.00017010434 0.47039973)
(0 0.000126395 0.25669063)
(0 0.0011693929 0.22601648)
(0 0.0033773194 0.46381968)
(0 0.0063209033 0.52394646)
(0 0.0091728094 0.53046232)
(0 0.010906191 0.52869574)
(0 0.012004 0.52661555)
(0 0.012560619 0.5247233)
(0 0.01275131 0.52295593)
(0 0.012644942 0.52132843)
(0 0.012313082 0.519859)
(0 0.011810764 0.51855194)
(0 0.011180957 0.5174035)
(0 0.010457008 0.51640553)
(0 0.0096643388 0.51554815)
(0 0.0088222624 0.51482114)
(0 0.0079453479 0.5142148)
(0 0.0070445596 0.51372043)
(0 0.0061281633 0.51333063)
(0 0.0052024605 0.51303942)
(0 0.0042723893 0.51284226)
(0 0.0033420331 0.5127361)
(0 0.002415059 0.51271934)
(0 0.0014951563 0.51279182)
(0 0.00058639556 0.51295476)
(0 -0.00030626253 0.5132108)
(0 -0.0011765196 0.51356369)
(0 -0.0020161891 0.51401845)
(0 -0.0028144196 0.5145809)
(0 -0.0035569773 0.51525731)
(0 -0.0042251107 0.51605372)
(0 -0.0047945535 0.51697485)
(0 -0.0052335477 0.51802221)
(0 -0.005503243 0.51919104)
(0 -0.0055521638 0.52046827)
(0 -0.0053215973 0.52181937)
(0 -0.0047395983 0.52316766)
(0 -0.0036580695 0.52373958)
(0 -0.0020595257 0.51733921)
(0 -0.00031048496 0.4692213)
(0 3.2460546e-05 0.2565836)
(0 0.0011838338 0.22575911)
(0 0.003525849 0.4626539)
(0 0.0056414378 0.52177511)
(0 0.0077807755 0.52849264)
(0 0.0091921981 0.52734879)
(0 0.010207388 0.52579153)
(0 0.01079592 0.52429446)
(0 0.011079088 0.52284196)
(0 0.01109901 0.52146499)
(0 0.010909265 0.52019132)
(0 0.010553608 0.51903516)
(0 0.010068377 0.5180016)
(0 0.009483235 0.5170901)
(0 0.0088218986 0.51629701)
(0 0.0081032015 0.51561709)
(0 0.0073420075 0.51504455)
(0 0.0065500405 0.51457371)
(0 0.0057365968 0.51419945)
(0 0.0049091556 0.51391739)
(0 0.0040739046 0.51372412)
(0 0.0032362003 0.51361722)
(0 0.0024009808 0.51359532)
(0 0.0015731626 0.51365806)
(0 0.00075801531 0.51380606)
(0 -3.8421607e-05 0.51404086)
(0 -0.00080891207 0.51436471)
(0 -0.0015445454 0.51478046)
(0 -0.0022341798 0.51529112)
(0 -0.0028638686 0.51589937)
(0 -0.0034160978 0.5166068)
(0 -0.0038692842 0.51741267)
(0 -0.0041967577 0.51831228)
(0 -0.0043672589 0.51929404)
(0 -0.0043439537 0.52033771)
(0 -0.004085281 0.5214038)
(0 -0.0035546446 0.52239554)
(0 -0.0026796837 0.52256936)
(0 -0.0015050296 0.51597059)
(0 -0.00036880335 0.46838755)
(0 1.9884539e-05 0.25641089)
(0 0.00117568 0.22547471)
(0 0.0035497314 0.46171656)
(0 0.0052080869 0.52021081)
(0 0.0068460069 0.52698488)
(0 0.0079641962 0.52621987)
(0 0.008855151 0.52502968)
(0 0.0094143437 0.523842)
(0 0.0097295065 0.52265348)
(0 0.0098200015 0.52149725)
(0 0.0097239748 0.52040407)
(0 0.0094742525 0.51939291)
(0 0.0090999616 0.51847418)
(0 0.0086261803 0.51765249)
(0 0.0080739053 0.51692878)
(0 0.0074605274 0.51630168)
(0 0.0068003387 0.51576864)
(0 0.0061050689 0.51532652)
(0 0.0053843954 0.5149722)
(0 0.004646415 0.51470279)
(0 0.0038980721 0.51451588)
(0 0.0031455501 0.51440967)
(0 0.0023946348 0.51438302)
(0 0.001651062 0.51443542)
(0 0.00092085449 0.51456698)
(0 0.00021067759 0.51477832)
(0 -0.00047181578 0.51507039)
(0 -0.00111759 0.51544423)
(0 -0.0017158377 0.51590062)
(0 -0.0022536082 0.51643947)
(0 -0.0027153548 0.51705913)
(0 -0.0030827867 0.51775525)
(0 -0.0033345907 0.51851943)
(0 -0.0034470087 0.51933694)
(0 -0.0033950519 0.52018518)
(0 -0.0031523296 0.52102662)
(0 -0.0027028434 0.5217632)
(0 -0.0020189195 0.52168352)
(0 -0.0011493663 0.51500028)
(0 -0.00034442162 0.46774646)
(0 2.4633242e-05 0.2562395)
(0 0.0011701401 0.22521123)
(0 0.0034978927 0.46093394)
(0 0.0048972769 0.51901574)
(0 0.0061964229 0.52581363)
(0 0.0070760958 0.52529228)
(0 0.0078366977 0.5243604)
(0 0.0083374058 0.52341066)
(0 0.0086480976 0.52243738)
(0 0.0087712357 0.52146953)
(0 0.008733225 0.5205367)
(0 0.0085574802 0.51965912)
(0 0.0082664242 0.51884981)
(0 0.0078804554 0.51811646)
(0 0.0074174524 0.51746308)
(0 0.0068928472 0.51689115)
(0 0.0063198124 0.51640055)
(0 0.0057095537 0.51599022)
(0 0.0050716386 0.51565868)
(0 0.0044143319 0.51540429)
(0 0.0037449226 0.51522556)
(0 0.0030700381 0.51512123)
(0 0.0023959452 0.51509036)
(0 0.0017288415 0.51513238)
(0 0.0010751369 0.51524696)
(0 0.00044174533 0.51543401)
(0 -0.00016365382 0.51569342)
(0 -0.00073231512 0.51602486)
(0 -0.0012541679 0.51642739)
(0 -0.0017176277 0.516899)
(0 -0.0021093861 0.51743588)
(0 -0.0024144841 0.51803156)
(0 -0.0026164894 0.51867589)
(0 -0.0026981511 0.51935342)
(0 -0.0026432547 0.52004225)
(0 -0.0024366449 0.52070938)
(0 -0.0020733609 0.52126263)
(0 -0.0015470585 0.52101251)
(0 -0.00089379351 0.51427681)
(0 -0.00028074607 0.46723837)
(0 2.5707482e-05 0.25609818)
(0 0.0011701753 0.22498502)
(0 0.0034215696 0.46027819)
(0 0.0046475827 0.51805993)
(0 0.0057129327 0.52488382)
(0 0.0064069784 0.52453337)
(0 0.0070487662 0.52378809)
(0 0.0074824433 0.52302112)
(0 0.0077699941 0.52222116)
(0 0.0079025462 0.52141115)
(0 0.0078983097 0.52061748)
(0 0.007773254 0.51985959)
(0 0.0075441454 0.51915123)
(0 0.007227111 0.51850165)
(0 0.0068369518 0.51791668)
(0 0.0063869717 0.51739969)
(0 0.0058889468 0.51695235)
(0 0.0053532351 0.51657516)
(0 0.0047889574 0.5162679)
(0 0.0042042138 0.51602999)
(0 0.0036063176 0.51586066)
(0 0.0030020318 0.51575914)
(0 0.0023978057 0.51572469)
(0 0.0018000067 0.51575668)
(0 0.001215144 0.51585451)
(0 0.0006500932 0.5160175)
(0 0.00011229214 0.51624478)
(0 -0.00039007387 0.51653501)
(0 -0.00084787349 0.51688609)
(0 -0.0012510055 0.51729472)
(0 -0.0015883731 0.51775586)
(0 -0.0018480353 0.51826203)
(0 -0.0020176297 0.5188026)
(0 -0.0020850645 0.51936286)
(0 -0.0020402279 0.51992309)
(0 -0.0018753225 0.52045523)
(0 -0.0015908176 0.52087382)
(0 -0.0011885865 0.52050163)
(0 -0.00069209523 0.51372071)
(0 -0.00021272971 0.46683873)
(0 2.2023355e-05 0.25599127)
(0 0.0011727017 0.22479537)
(0 0.0033491221 0.45973381)
(0 0.004436734 0.51727928)
(0 0.0053304375 0.52413269)
(0 0.0058800643 0.52391099)
(0 0.0064198766 0.52330516)
(0 0.0067883248 0.52267984)
(0 0.0070449118 0.52201913)
(0 0.0071736545 0.52134023)
(0 0.007187394 0.52066569)
(0 0.007096548 0.52001313)
(0 0.0069134008 0.51939592)
(0 0.0066504454 0.51882376)
(0 0.0063196923 0.51830342)
(0 0.0059323756 0.51783943)
(0 0.005498792 0.51743461)
(0 0.0050282882 0.51709058)
(0 0.0045293301 0.51680809)
(0 0.0040096255 0.51658734)
(0 0.0034762758 0.51642815)
(0 0.0029359444 0.51633015)
(0 0.0023950314 0.51629279)
(0 0.0018598483 0.51631542)
(0 0.0013367865 0.51639723)
(0 0.00083247946 0.51653718)
(0 0.00035394409 0.51673383)
(0 -9.1322001e-05 0.5169852)
(0 -0.0004952196 0.51728844)
(0 -0.00084909617 0.5176395)
(0 -0.0011438366 0.51803277)
(0 -0.0013700758 0.51846054)
(0 -0.0015186562 0.51891251)
(0 -0.0015813301 0.51937535)
(0 -0.0015520463 0.51983204)
(0 -0.0014274425 0.52025892)
(0 -0.0012103785 0.52057596)
(0 -0.00090518519 0.52011213)
(0 -0.00052699534 0.51329097)
(0 -0.000155439 0.46653121)
(0 1.692473e-05 0.25591316)
(0 0.0011752261 0.22463626)
(0 0.0032891136 0.45928586)
(0 0.0042584714 0.51663929)
(0 0.0050180305 0.52352022)
(0 0.0054529317 0.52339911)
(0 0.0059068918 0.52290051)
(0 0.0062158535 0.5223864)
(0 0.0064393807 0.52183796)
(0 0.0065571734 0.52126768)
(0 0.0065787208 0.52069434)
(0 0.0065104558 0.52013342)
(0 0.0063612513 0.51959728)
(0 0.0061406449 0.51909541)
(0 0.0058582472 0.51863488)
(0 0.0055234042 0.5182208)
(0 0.0051449748 0.5178567)
(0 0.0047312424 0.51754491)
(0 0.0042899088 0.51728688)
(0 0.003828145 0.51708338)
(0 0.0033526783 0.51693468)
(0 0.002869902 0.51684072)
(0 0.0023859953 0.51680112)
(0 0.0019070477 0.51681525)
(0 0.0014391777 0.51688217)
(0 0.00098864187 0.5170006)
(0 0.00056192627 0.51716877)
(0 0.00016579431 0.5173843)
(0 -0.00019268322 0.51764394)
(0 -0.00050618233 0.51794332)
(0 -0.00076727939 0.5182767)
(0 -0.00096872007 0.51863661)
(0 -0.0011037805 0.51901352)
(0 -0.0011669595 0.51939572)
(0 -0.0011548338 0.51976884)
(0 -0.0010665683 0.52011283)
(0 -0.00090587588 0.52035157)
(0 -0.00067756419 0.51981722)
(0 -0.00039195821 0.51296273)
(0 -0.00011084274 0.46630041)
(0 1.2502084e-05 0.25585701)
(0 0.0011768754 0.22450185)
(0 0.0032406425 0.45891901)
(0 0.0041096553 0.51611601)
(0 0.0047603935 0.52301939)
(0 0.0051020576 0.52297784)
(0 0.0054837756 0.52256334)
(0 0.0057398732 0.5221376)
(0 0.005930993 0.52168021)
(0 0.0060342302 0.52119992)
(0 0.0060570668 0.52071223)
(0 0.0060031394 0.52023044)
(0 0.0058787896 0.51976566)
(0 0.005691221 0.51932678)
(0 0.0054480484 0.51892075)
(0 0.0051569651 0.51855285)
(0 0.0048255022 0.51822697)
(0 0.0044609014 0.51794588)
(0 0.0040700612 0.51771145)
(0 0.0036595367 0.51752484)
(0 0.0032355785 0.51738668)
(0 0.0028041936 0.51729711)
(0 0.0023712217 0.51725592)
(0 0.0019424146 0.5172625)
(0 0.0015235142 0.51731587)
(0 0.0011203186 0.51741463)
(0 0.00073873078 0.51755684)
(0 0.00038477391 0.51773991)
(0 6.4569278e-05 0.51796045)
(0 -0.00021574105 0.51821407)
(0 -0.00045014574 0.51849519)
(0 -0.00063305209 0.51879684)
(0 -0.00075956029 0.51911049)
(0 -0.00082607184 0.519426)
(0 -0.00083083515 0.51973138)
(0 -0.00077438849 0.52000947)
(0 -0.00066056825 0.5201869)
(0 -0.00049411829 0.51959772)
(0 -0.00028259128 0.5127172)
(0 -7.6226855e-05 0.46613195)
(0 9.2450021e-06 0.25581773)
(0 0.001177701 0.22438785)
(0 0.0032006691 0.45861918)
(0 0.0039863667 0.51568947)
(0 0.0045475767 0.52261022)
(0 0.0048122738 0.52263186)
(0 0.0051329134 0.52228414)
(0 0.0053425274 0.52192935)
(0 0.0055031535 0.52154623)
(0 0.0055903037 0.52114065)
(0 0.0056103161 0.52072532)
(0 0.0055648911 0.52031155)
(0 0.0054585229 0.51990912)
(0 0.0052966063 0.51952615)
(0 0.0050851335 0.5191692)
(0 0.0048303899 0.51884346)
(0 0.0045387214 0.51855291)
(0 0.0042163933 0.51830054)
(0 0.0038695091 0.51808846)
(0 0.0035039778 0.51791809)
(0 0.0031255169 0.51779026)
(0 0.0027396767 0.51770531)
(0 0.0023518811 0.51766313)
(0 0.0019674717 0.51766317)
(0 0.0015917513 0.51770445)
(0 0.001230018 0.51778554)
(0 0.00088758095 0.51790444)
(0 0.0005697507 0.51805854)
(0 0.00028179445 0.51824447)
(0 2.8839145e-05 0.51845801)
(0 -0.00018426539 0.51869391)
(0 -0.00035320992 0.51894586)
(0 -0.00047444303 0.51920635)
(0 -0.00054565891 0.5194667)
(0 -0.00056615139 0.51971696)
(0 -0.0005371562 0.51994224)
(0 -0.00046231022 0.52007118)
(0 -0.00034614115 0.5194391)
(0 -0.00019449323 0.51253881)
(0 -4.8709102e-05 0.46601353)
(0 6.941029e-06 0.25579183)
(0 0.0011779981 0.22429116)
(0 0.0031668602 0.45837461)
(0 0.003884138 0.51534263)
(0 0.0043714201 0.52227686)
(0 0.0045720344 0.52234899)
(0 0.0048408255 0.5220548)
(0 0.0050097914 0.52175744)
(0 0.0051423946 0.52143523)
(0 0.0052131784 0.52109182)
(0 0.0052278805 0.52073758)
(0 0.0051868731 0.52038211)
(0 0.0050933186 0.52003388)
(0 0.004951228 0.51970016)
(0 0.0047652948 0.51938701)
(0 0.0045406268 0.51909935)
(0 0.004282537 0.51884109)
(0 0.0039964022 0.51861524)
(0 0.0036875704 0.51842403)
(0 0.0033613085 0.51826902)
(0 0.0030227799 0.51815117)
(0 0.0026770434 0.51807094)
(0 0.0023290655 0.51802831)
(0 0.0019837385 0.5180228)
(0 0.0016458968 0.51805348)
(0 0.001320326 0.51811893)
(0 0.0010117574 0.51821721)
(0 0.0007248394 0.51834576)
(0 0.00046408247 0.51850138)
(0 0.00023375891 0.5186801)
(0 3.77791e-05 0.51887716)
(0 -0.00012053045 0.51908689)
(0 -0.00023860335 0.51930279)
(0 -0.00031500003 0.51951749)
(0 -0.0003496474 0.51972273)
(0 -0.00034408611 0.51990543)
(0 -0.00030162589 0.51999573)
(0 -0.00022650087 0.51932996)
(0 -0.00012350927 0.51241471)
(0 -2.6416499e-05 0.46593522)
(0 5.3008339e-06 0.25577683)
(0 0.0011780053 0.2242094)
(0 0.0031378751 0.45817587)
(0 0.0037988718 0.51506142)
(0 0.0042249583 0.52200643)
(0 0.004371956 0.52211924)
(0 0.0045966301 0.52186832)
(0 0.0047301876 0.52161778)
(0 0.0048374376 0.52134579)
(0 0.0048923329 0.52105423)
(0 0.0049003477 0.52075161)
(0 0.0048609519 0.520446)
(0 0.0047763578 0.52014471)
(0 0.0046495276 0.51985416)
(0 0.0044841258 0.51957982)
(0 0.004284289 0.51932628)
(0 0.0040544444 0.51909723)
(0 0.003799178 0.51889562)
(0 0.0035231398 0.51872369)
(0 0.0032309809 0.51858303)
(0 0.0029273159 0.51847468)
(0 0.0026167037 0.51839918)
(0 0.0023036393 0.51835658)
(0 0.0019925518 0.51834648)
(0 0.0016878019 0.51836799)
(0 0.0013936726 0.51841978)
(0 0.0011143485 0.51850001)
(0 0.00085387706 0.51860626)
(0 0.00061610891 0.51873557)
(0 0.00040460368 0.51888429)
(0 0.00022251971 0.51904814)
(0 7.2435985e-05 0.51922215)
(0 -4.3793106e-05 0.5194007)
(0 -0.00012530048 0.51957758)
(0 -0.00017237423 0.51974592)
(0 -0.0001866295 0.5198941)
(0 -0.00017101431 0.51995342)
(0 -0.0001294168 0.51926111)
(0 -6.6167257e-05 0.51233461)
(0 -8.3077619e-06 0.46588912)
(0 4.1018161e-06 0.25577083)
(0 0.0011778576 0.22414053)
(0 0.0031129328 0.45801546)
(0 0.0037272656 0.51483451)
(0 0.004102484 0.52178845)