/*--------------------------------*- C++ -*----------------------------------*\
  =========                 |
  \\      /  F ield         | OpenFOAM: The Open Source CFD Toolbox
   \\    /   O peration     | Website:  https://openfoam.org
    \\  /    A nd           | Version:  10
     \\/     M anipulation  |
\*---------------------------------------------------------------------------*/
FoamFile
{
    format      ascii;
    class       volVectorField;
    location    "0.02";
    object      U_0;
}
// * * * * * * * * * * * * * * * * * * * * * * * * * * * * * * * * * * * * * //

dimensions      [0 1 -1 0 0 0 0];

internalField   nonuniform List<vector> 
4000
(
(0 0.018496813 0.47799314)
(0 0.023048702 0.50865309)
(0 0.0076712884 0.50053163)
(0 0.005295811 0.50034865)
(0 0.0039477968 0.50025267)
(0 0.0029746349 0.5001615)
(0 0.0023119607 0.50011286)
(0 0.0018444843 0.50008383)
(0 0.0014969213 0.50006408)
(0 0.0012295266 0.50005031)
(0 0.001018004 0.50004053)
(0 0.0008462884 0.50003343)
(0 0.00070351785 0.50002818)
(0 0.00058213262 0.50002426)
(0 0.00047671284 0.50002131)
(0 0.00038326681 0.5000191)
(0 0.00029877181 0.50001744)
(0 0.00022086734 0.50001624)
(0 0.00014764301 0.50001542)
(0 7.748614e-05 0.50001492)
(0 8.9650278e-06 0.50001472)
(0 -5.9269195e-05 0.5000148)
(0 -0.00012856782 0.50001518)
(0 -0.00020037155 0.5000159)
(0 -0.00027631338 0.50001699)
(0 -0.00035834501 0.50001855)
(0 -0.00044890665 0.50002069)
(0 -0.00055116929 0.50002361)
(0 -0.00066939365 0.50002757)
(0 -0.00080948426 0.50003298)
(0 -0.00097988894 0.50004048)
(0 -0.0011930783 0.50005107)
(0 -0.0014679307 0.50006633)
(0 -0.0018351847 0.50008881)
(0 -0.0023526368 0.50012617)
(0 -0.0031131124 0.50019619)
(0 -0.0041892059 0.5002799)
(0 -0.0060820173 0.50044049)
(0 -0.017162447 0.50657053)
(0 -0.013401514 0.47999722)
(0 0.036726396 0.44926434)
(0 0.049327338 0.53179198)
(0 0.020432657 0.50790653)
(0 0.015069756 0.50357839)
(0 0.011396832 0.50235498)
(0 0.0086175728 0.50154141)
(0 0.0067530297 0.50108173)
(0 0.0054165705 0.50079785)
(0 0.0044117727 0.50060745)
(0 0.0036348872 0.50047623)
(0 0.003017495 0.50038344)
(0 0.0025140213 0.50031626)
(0 0.0020936728 0.50026679)
(0 0.0017349078 0.50022991)
(0 0.0014222249 0.50020221)
(0 0.0011441779 0.5001814)
(0 0.00089207783 0.50016591)
(0 0.00065912323 0.50015464)
(0 0.00043979774 0.50014688)
(0 0.00022943595 0.50014215)
(0 2.3891115e-05 0.50014021)
(0 -0.00018074203 0.50014095)
(0 -0.00038837238 0.50014448)
(0 -0.00060316163 0.50015107)
(0 -0.0008298153 0.50016121)
(0 -0.0010739409 0.50017569)
(0 -0.001342529 0.50019567)
(0 -0.001644637 0.5002229)
(0 -0.0019924032 0.50025999)
(0 -0.002402591 0.50031087)
(0 -0.0028990705 0.50038163)
(0 -0.0035170776 0.50048216)
(0 -0.004309648 0.5006286)
(0 -0.0053574019 0.50084772)
(0 -0.0068093551 0.50120159)
(0 -0.0089647167 0.5018322)
(0 -0.011884549 0.50281953)
(0 -0.015846586 0.50597889)
(0 -0.037038056 0.52475099)
(0 -0.027090882 0.45156402)
(0 0.038500001 0.4130036)
(0 0.058316382 0.54884943)
(0 0.029091137 0.52127008)
(0 0.022364508 0.50991157)
(0 0.017343199 0.50634276)
(0 0.013390827 0.50426607)
(0 0.010677403 0.50303385)
(0 0.0086568146 0.50224581)
(0 0.0071062675 0.50171507)
(0 0.0058920183 0.50134865)
(0 0.0049161147 0.50108879)
(0 0.0041127002 0.50090032)
(0 0.0034365276 0.50076134)
(0 0.0028553815 0.50065761)
(0 0.0023458165 0.50057962)
(0 0.0018903607 0.50052095)
(0 0.001475641 0.5004772)
(0 0.0010911134 0.50044535)
(0 0.00072817329 0.50042337)
(0 0.00037950323 0.50040994)
(0 3.858119e-05 0.50040434)
(0 -0.0003007412 0.50040633)
(0 -0.00064461334 0.50041616)
(0 -0.00099955674 0.50043459)
(0 -0.0013729057 0.50046299)
(0 -0.0017733379 0.50050354)
(0 -0.0022115829 0.50055949)
(0 -0.0027014183 0.50063571)
(0 -0.0032611256 0.50073942)
(0 -0.0039156613 0.50088156)
(0 -0.0046999546 0.50107899)
(0 -0.0056646333 0.50135876)
(0 -0.0068851004 0.50176558)
(0 -0.008465728 0.502372)
(0 -0.010572256 0.50331985)
(0 -0.013619356 0.50492757)
(0 -0.017612175 0.50768812)
(0 -0.022202149 0.5159034)
(0 -0.044106711 0.53859724)
(0 -0.02926833 0.4183425)
(0 0.032786284 0.3680151)
(0 0.058978517 0.55482878)
(0 0.03460935 0.53596261)
(0 0.026896708 0.51782617)
(0 0.021294352 0.51137566)
(0 0.01692279 0.50790575)
(0 0.013797402 0.50573445)
(0 0.011353128 0.50429128)
(0 0.0094277735 0.50330597)
(0 0.007888192 0.50261838)
(0 0.0066279522 0.50212644)
(0 0.0055750185 0.50176747)
(0 0.0046778967 0.50150149)
(0 0.003898812 0.50130214)
(0 0.0032097163 0.50115174)
(0 0.0025893316 0.50103825)
(0 0.0020211163 0.50095338)
(0 0.0014918527 0.50089144)
(0 0.00099063125 0.50084856)
(0 0.00050808373 0.50082225)
(0 3.5817819e-05 0.50081112)
(0 -0.000434099 0.50081472)
(0 -0.00090959222 0.50083349)
(0 -0.0013990114 0.50086888)
(0 -0.0019116617 0.50092345)
(0 -0.0024584148 0.50100128)
(0 -0.0030525146 0.50110847)
(0 -0.0037106805 0.50125407)
(0 -0.0044546716 0.5014515)
(0 -0.00531356 0.50172088)
(0 -0.0063268403 0.50209291)
(0 -0.0075494292 0.50261566)
(0 -0.0090621466 0.50336768)
(0 -0.010969574 0.50447366)
(0 -0.013389031 0.50614035)
(0 -0.016739587 0.50881187)
(0 -0.021177798 0.51365189)
(0 -0.026196122 0.5268964)
(0 -0.045032042 0.54408527)
(0 -0.026009421 0.3793096)
(0 0.024718244 0.32545664)
(0 0.055451381 0.55209457)
(0 0.037460868 0.54865427)
(0 0.029306245 0.52582343)
(0 0.023563419 0.51650134)
(0 0.019269337 0.51179883)
(0 0.016058164 0.50875003)
(0 0.013428314 0.50665283)
(0 0.011300187 0.50519353)
(0 0.0095524625 0.50415783)
(0 0.0080882323 0.50340693)
(0 0.0068416871 0.50285347)
(0 0.0057627989 0.50243997)
(0 0.0048135245 0.50212789)
(0 0.0039647954 0.50189105)
(0 0.0031939515 0.50171144)
(0 0.002482959 0.50157654)
(0 0.0018171169 0.50147768)
(0 0.0011840834 0.50140897)
(0 0.00057311386 0.50136658)
(0 -2.5496428e-05 0.50134835)
(0 -0.00062096086 0.50135356)
(0 -0.0012224632 0.50138288)
(0 -0.0018396002 0.50143847)
(0 -0.0024829261 0.50152422)
(0 -0.0031645484 0.50164626)
(0 -0.0038988949 0.50181373)
(0 -0.0047037178 0.50204007)
(0 -0.0056014386 0.50234503)
(0 -0.0066210744 0.50275785)
(0 -0.0078006085 0.50332242)
(0 -0.0091896176 0.50410547)
(0 -0.010859882 0.50521302)
(0 -0.01290704 0.5068116)
(0 -0.015386307 0.50914402)
(0 -0.018647439 0.51272882)
(0 -0.023132712 0.5195721)
(0 -0.028354157 0.53660023)
(0 -0.042801028 0.54285326)
(0 -0.020601084 0.34257797)
(0 0.016167861 0.29156751)
(0 0.048836187 0.5441922)
(0 0.037486336 0.55806182)
(0 0.030170624 0.533257)
(0 0.024709015 0.52129097)
(0 0.020768825 0.51552123)
(0 0.017672366 0.51175604)
(0 0.015026705 0.50910226)
(0 0.012823741 0.5072182)
(0 0.010958414 0.50585522)
(0 0.0093549633 0.50485157)
(0 0.0079606578 0.50410225)
(0 0.0067320407 0.50353621)
(0 0.0056348332 0.50310499)
(0 0.0046418126 0.50277514)
(0 0.0037309674 0.50252329)
(0 0.0028842299 0.50233304)
(0 0.0020864748 0.50219289)
(0 0.0013247155 0.50209499)
(0 0.00058745255 0.50203419)
(0 -0.00013582302 0.50200755)
(0 -0.00085514699 0.50201406)
(0 -0.0015804894 0.50205459)
(0 -0.0023221763 0.50213198)
(0 -0.0030913755 0.50225133)
(0 -0.0039006043 0.50242066)
(0 -0.0047643595 0.50265185)
(0 -0.0056998835 0.50296216)
(0 -0.0067280928 0.50337661)
(0 -0.0078748932 0.50393166)
(0 -0.0091728424 0.50468111)
(0 -0.01066111 0.50570471)
(0 -0.012393344 0.50712484)
(0 -0.014451893 0.5091342)
(0 -0.016841501 0.51199921)
(0 -0.019794257 0.5163309)
(0 -0.023961185 0.52497981)
(0 -0.028512973 0.5439509)
(0 -0.037943676 0.53734643)
(0 -0.014046554 0.31309703)
(0 0.0083502372 0.2667165)
(0 0.040071029 0.53324532)
(0 0.035041047 0.56357293)
(0 0.029967098 0.53960405)
(0 0.025241671 0.52557194)
(0 0.02184362 0.51889999)
(0 0.019001921 0.51459996)
(0 0.016456965 0.51152016)
(0 0.014262273 0.50928962)
(0 0.01233934 0.50764511)
(0 0.010640973 0.50641447)
(0 0.0091302496 0.50548234)
(0 0.007773238 0.50476918)
(0 0.0065419525 0.50421989)
(0 0.0054129006 0.50379577)
(0 0.0043661759 0.50346934)
(0 0.0033847951 0.50322105)
(0 0.0024540653 0.50303705)
(0 0.0015610243 0.50290775)
(0 0.00069396484 0.50282687)
(0 -0.00015796961 0.50279072)
(0 -0.0010052156 0.50279804)
(0 -0.0018581142 0.50284982)
(0 -0.0027272719 0.50294944)
(0 -0.003623949 0.50310302)
(0 -0.0045604369 0.50332009)
(0 -0.0055504997 0.50361464)
(0 -0.0066098453 0.50400677)
(0 -0.0077565906 0.50452512)
(0 -0.0090118221 0.50521078)
(0 -0.010400643 0.5061233)
(0 -0.011950272 0.50734959)
(0 -0.013691191 0.50901847)
(0 -0.015683849 0.51133282)
(0 -0.017894272 0.51458004)
(0 -0.020409601 0.5194888)
(0 -0.0239251 0.52947427)
(0 -0.026772368 0.54817908)
(0 -0.030941882 0.52887387)
(0 -0.0072489244 0.29148352)
(0 0.0024459394 0.24985707)
(0 0.030419886 0.52060782)
(0 0.031059746 0.56487061)
(0 0.029104612 0.54413277)
(0 0.025504041 0.52910352)
(0 0.022786376 0.52183096)
(0 0.020304941 0.51720327)
(0 0.017950829 0.51384297)
(0 0.015828438 0.51135702)
(0 0.013897497 0.50948911)
(0 0.012142919 0.50806798)
(0 0.010544635 0.50697496)
(0 0.0090802248 0.50612727)
(0 0.0077295239 0.50546663)
(0 0.00647401 0.50495131)
(0 0.0052969651 0.5045512)
(0 0.0041834024 0.50424459)
(0 0.0031198242 0.5040159)
(0 0.0020939389 0.50385421)
(0 0.0010943902 0.50375228)
(0 0.00011046881 0.50370584)
(0 -0.0008681914 0.50371337)
(0 -0.0018518506 0.50377593)
(0 -0.0028509238 0.5038973)
(0 -0.0038762552 0.5040843)
(0 -0.0049393455 0.50434752)
(0 -0.0060525886 0.50470232)
(0 -0.0072294337 0.50517051)
(0 -0.00848443 0.50578263)
(0 -0.0098329797 0.50658175)
(0 -0.011291562 0.50762913)
(0 -0.012875302 0.50901323)
(0 -0.014590381 0.51086098)
(0 -0.016465741 0.51336772)
(0 -0.018441922 0.51683132)
(0 -0.020453462 0.52205947)
(0 -0.023091878 0.53251304)
(0 -0.023668072 0.54880471)
(0 -0.022827627 0.51830543)
(0 -0.0015949062 0.27699087)
(0 -0.00089786844 0.23983857)
(0 0.021164529 0.50767226)
(0 0.026473302 0.56219863)
(0 0.027710761 0.54626657)
(0 0.025490558 0.53161911)
(0 0.023539277 0.52420615)
(0 0.021493435 0.51948712)
(0 0.019411487 0.51600442)
(0 0.017430288 0.51336554)
(0 0.015553048 0.51134241)
(0 0.013795336 0.50977581)
(0 0.012154083 0.50855148)
(0 0.010619635 0.50758856)
(0 0.0091805722 0.50682893)
(0 0.007824294 0.50623012)
(0 0.0065382119 0.505761)
(0 0.0053101954 0.50539874)
(0 0.0041287255 0.50512673)
(0 0.0029828948 0.5049332)
(0 0.0018623461 0.50481024)
(0 0.00075712577 0.50475318)
(0 -0.00034247777 0.50476028)
(0 -0.0014460668 0.5048326)
(0 -0.0025632872 0.50497411)
(0 -0.0037039603 0.50519206)
(0 -0.0048781612 0.50549758)
(0 -0.0060962479 0.50590663)
(0 -0.0073687136 0.50644157)
(0 -0.008705873 0.5071332)
(0 -0.010116911 0.50802412)
(0 -0.011608949 0.50917349)
(0 -0.013185139 0.51066551)
(0 -0.01483041 0.51261756)
(0 -0.0165372 0.51520064)
(0 -0.018236017 0.51870083)
(0 -0.019720865 0.5239088)
(0 -0.021371488 0.53376219)
(0 -0.019825922 0.54608033)
(0 -0.014889746 0.50689579)
(0 0.0018419051 0.26860238)
(0 -0.0018955596 0.2350138)
(0 0.013423426 0.4958672)
(0 0.021869924 0.55646198)
(0 0.025629577 0.54595827)
(0 0.024858738 0.53298463)
(0 0.023703908 0.52594138)
(0 0.022149924 0.52136842)
(0 0.020418586 0.5179203)
(0 0.018659083 0.51523749)
(0 0.016915726 0.51313525)
(0 0.015229196 0.51147612)
(0 0.013612643 0.51015769)
(0 0.012069383 0.50910582)
(0 0.010597093 0.50826569)
(0 0.0091898111 0.50759636)
(0 0.0078398748 0.50706723)
(0 0.0065388106 0.50665546)
(0 0.0052778574 0.50634419)
(0 0.0040482382 0.50612132)
(0 0.0028412988 0.50597862)
(0 0.0016485247 0.50591117)
(0 0.00046152161 0.50591708)
(0 -0.00072799374 0.50599737)
(0 -0.0019282326 0.50615602)
(0 -0.0031473089 0.50640032)
(0 -0.004393171 0.50674144)
(0 -0.0056734312 0.50719517)
(0 -0.0069949203 0.5077833)
(0 -0.008363064 0.50853528)
(0 -0.0097804772 0.509491)
(0 -0.011244801 0.51070419)
(0 -0.012747361 0.51224933)
(0 -0.014257336 0.51422775)
(0 -0.015732128 0.5167755)
(0 -0.017101317 0.52013925)
(0 -0.018058635 0.52499243)
(0 -0.018716378 0.53335161)
(0 -0.015741952 0.54102134)
(0 -0.0082985064 0.49622999)
(0 0.0029854202 0.26480253)
(0 -0.0014000133 0.23341063)
(0 0.0079380068 0.48624912)
(0 0.017561434 0.54903687)
(0 0.022747273 0.54372292)
(0 0.023263502 0.53325373)
(0 0.022867619 0.52700383)
(0 0.021841908 0.522781)
(0 0.020525258 0.51950514)
(0 0.019065641 0.51688331)
(0 0.017540265 0.51478015)
(0 0.016007558 0.51308632)
(0 0.014495116 0.51171698)
(0 0.013018163 0.51060841)
(0 0.011583192 0.50971183)
(0 0.010191151 0.50898986)
(0 0.0088397718 0.50841391)
(0 0.0075248123 0.5079622)
(0 0.0062408873 0.5076184)
(0 0.0049819776 0.50737062)
(0 0.0037417527 0.50721067)
(0 0.0025137523 0.50713361)
(0 0.0012915091 0.50713745)
(0 6.8657178e-05 0.50722309)
(0 -0.0011609731 0.50739434)
(0 -0.0024031709 0.50765816)
(0 -0.0036631539 0.50802524)
(0 -0.0049452289 0.50851045)
(0 -0.0062520513 0.50913391)
(0 -0.0075837688 0.50992233)
(0 -0.0089364121 0.51091087)
(0 -0.010298881 0.51214539)
(0 -0.011651352 0.51368663)
(0 -0.012952689 0.51561525)
(0 -0.014133235 0.51802968)
(0 -0.015120693 0.52111358)
(0 -0.015574566 0.52536182)
(0 -0.015357735 0.53177618)
(0 -0.0118062 0.5349944)
(0 -0.0037502966 0.48759606)
(0 0.0025991932 0.26372311)
(0 -0.00038328485 0.23330647)
(0 0.0048165141 0.47919497)
(0 0.013777545 0.54139897)
(0 0.019280427 0.54039071)
(0 0.020716483 0.53263344)
(0 0.020964499 0.52742355)
(0 0.020460733 0.52369629)
(0 0.019584026 0.52069918)
(0 0.018474436 0.51822848)
(0 0.017229433 0.51619688)
(0 0.015917592 0.5145257)
(0 0.014577895 0.51315065)
(0 0.013235226 0.5120207)
(0 0.011903869 0.51109512)
(0 0.010591292 0.5103417)
(0 0.0093005623 0.50973509)
(0 0.008031823 0.50925555)
(0 0.0067833446 0.50888799)
(0 0.0055522107 0.50862125)
(0 0.0043347939 0.50844754)
(0 0.0031270844 0.50836207)
(0 0.0019249418 0.50836285)
(0 0.00072431264 0.5084506)
(0 -0.00047856825 0.50862878)
(0 -0.0016867818 0.50890358)
(0 -0.0029025059 0.50928489)
(0 -0.0041265585 0.50978583)
(0 -0.0053573467 0.51042402)
(0 -0.0065899262 0.51122225)
(0 -0.0078143328 0.51220952)
(0 -0.0090123731 0.51342226)
(0 -0.010155127 0.51490574)
(0 -0.011195533 0.51671757)
(0 -0.012049798 0.51892125)
(0 -0.012639739 0.52162732)
(0 -0.01265734 0.5251403)
(0 -0.011805082 0.52963019)
(0 -0.008347864 0.52921459)
(0 -0.0012838792 0.48146004)
(0 0.001616593 0.26381636)
(0 0.00049738518 0.23358162)
(0 0.003548217 0.47444583)
(0 0.010725771 0.53470177)
(0 0.015734189 0.53677932)
(0 0.017635645 0.5314204)
(0 0.018348753 0.52729984)
(0 0.018298165 0.52414051)
(0 0.017830935 0.52149093)
(0 0.017074097 0.5192385)
(0 0.016130623 0.5173378)
(0 0.015071997 0.51573995)
(0 0.013944159 0.5144013)
(0 0.012778491 0.51328433)
(0 0.011595274 0.51235745)
(0 0.01040738 0.51159461)
(0 0.0092225504 0.51097461)
(0 0.008044976 0.51048046)
(0 0.0068764367 0.51009891)
(0 0.0057170971 0.50981997)
(0 0.00456609 0.50963654)
(0 0.0034219531 0.50954419)
(0 0.0022829867 0.50954098)
(0 0.0011475823 0.50962739)
(0 1.4307052e-05 0.50980637)
(0 -0.0011170048 0.51008325)
(0 -0.0022455792 0.5104664)
(0 -0.0033691714 0.51096685)
(0 -0.0044822794 0.51159909)
(0 -0.0055757478 0.51238124)
(0 -0.0066349258 0.51333543)
(0 -0.00763688 0.51448809)
(0 -0.0085471856 0.51586937)
(0 -0.0093167543 0.51751419)
(0 -0.0098615265 0.51945622)
(0 -0.01009897 0.52174007)
(0 -0.0097937926 0.52450586)
(0 -0.0086106507 0.52740282)
(0 -0.0056355432 0.52444208)
(0 -0.00034171269 0.47748041)
(0 0.00076281516 0.26413979)
(0 0.0010207601 0.23372769)
(0 0.0033479039 0.47139853)
(0 0.0085057034 0.52950388)
(0 0.012621188 0.53346332)
(0 0.014590262 0.5299264)
(0 0.01556642 0.52678842)
(0 0.015847865 0.52419685)
(0 0.015710733 0.52192305)
(0 0.01526254 0.5199279)
(0 0.014598686 0.51819899)
(0 0.013787202 0.51671319)
(0 0.012875868 0.51544536)
(0 0.011899006 0.51437092)
(0 0.010880546 0.51346754)
(0 0.0098370955 0.51271563)
(0 0.0087799405 0.51209859)
(0 0.0077165517 0.51160265)
(0 0.0066516982 0.51121677)
(0 0.0055882732 0.51093244)
(0 0.0045279246 0.51074349)
(0 0.0034715542 0.51064599)
(0 0.0024197331 0.5106381)
(0 0.0013731141 0.51072005)
(0 0.00033261504 0.51089412)
(0 -0.00069965285 0.51116483)
(0 -0.0017203893 0.51153845)
(0 -0.002724543 0.51202386)
(0 -0.0037038265 0.51263209)
(0 -0.0046461744 0.51337636)
(0 -0.0055340643 0.51427197)
(0 -0.0063424519 0.51533578)
(0 -0.0070356284 0.51658465)
(0 -0.0075663224 0.51803406)
(0 -0.0078606273 0.51969395)
(0 -0.0078395961 0.52156221)
(0 -0.0073468277 0.52366037)
(0 -0.0061038848 0.5253992)
(0 -0.0037404408 0.52092141)
(0 -0.00020463089 0.47503201)
(0 0.00027004827 0.26429258)
(0 0.0012447127 0.23364277)
(0 0.0035370188 0.46941584)
(0 0.0070461288 0.52579164)
(0 0.010221744 0.53071189)
(0 0.012004129 0.52840742)
(0 0.013065173 0.52606263)
(0 0.013540992 0.52398356)
(0 0.013631952 0.52207674)
(0 0.013420151 0.5203498)
(0 0.012985235 0.51881321)
(0 0.012387023 0.5174635)
(0 0.011670573 0.51629045)
(0 0.01086986 0.51528076)
(0 0.010010009 0.51442049)
(0 0.0091095196 0.51369632)
(0 0.0081818745 0.51309618)
(0 0.0072368226 0.51260967)
(0 0.0062813762 0.51222809)
(0 0.0053205895 0.5119446)
(0 0.0043581792 0.51175409)
(0 0.0033970365 0.51165321)
(0 0.0024396641 0.51164029)
(0 0.0014886081 0.51171533)
(0 0.00054678373 0.51187993)
(0 -0.00038193447 0.51213744)
(0 -0.0012923375 0.51249246)
(0 -0.0021773177 0.5129514)
(0 -0.0030269068 0.5135219)
(0 -0.0038275441 0.51421258)
(0 -0.0045607455 0.51503255)
(0 -0.0052017526 0.51599045)
(0 -0.0057171462 0.5170925)
(0 -0.0060648052 0.51833975)
(0 -0.006185918 0.51972531)
(0 -0.0060138956 0.52122152)
(0 -0.0054559264 0.52278001)
(0 -0.0043275077 0.52374896)
(0 -0.0025396431 0.51850296)
(0 -0.00031943121 0.47351152)
(0 7.0003198e-05 0.2642313)
(0 0.001305309 0.23339784)
(0 0.0037274815 0.46802101)
(0 0.0061500296 0.52322808)
(0 0.0085401755 0.52855598)
(0 0.010029935 0.52702302)
(0 0.011051955 0.52526969)
(0 0.011604522 0.52361959)
(0 0.011827469 0.5220444)
(0 0.011775424 0.520574)
(0 0.01150968 0.5192322)
(0 0.011079254 0.51802844)
(0 0.010523445 0.51696332)
(0 0.0098734278 0.51603242)
(0 0.0091534615 0.51522886)
(0 0.0083822942 0.51454475)
(0 0.0075743128 0.51397224)
(0 0.0067405313 0.51350406)
(0 0.0058894059 0.51313387)
(0 0.0050275103 0.51285646)
(0 0.0041600996 0.51266785)
(0 0.0032915936 0.51256529)
(0 0.0024260023 0.51254733)
(0 0.0015673344 0.51261375)
(0 0.0007199759 0.51276552)
(0 -0.00011086357 0.51300481)
(0 -0.00091871371 0.51333473)
(0 -0.0016953084 0.51375932)
(0 -0.0024299339 0.51428318)
(0 -0.0031087744 0.51491096)
(0 -0.0037139457 0.51564668)
(0 -0.00422274 0.51649252)
(0 -0.0046062144 0.51744706)
(0 -0.0048294526 0.51850218)
(0 -0.0048490565 0.51964095)
(0 -0.0046154038 0.52082621)
(0 -0.0040786753 0.52197857)
(0 -0.0031387283 0.52245912)
(0 -0.0018158567 0.51687341)
(0 -0.00040914515 0.4724887)
(0 1.9413026e-05 0.26405475)
(0 0.0013070593 0.23309046)
(0 0.0037960583 0.46694112)
(0 0.0055971036 0.52142173)
(0 0.0074130987 0.52690138)
(0 0.0086063603 0.52583878)
(0 0.0095242684 0.52450675)
(0 0.01007424 0.52319812)
(0 0.010356101 0.52190626)
(0 0.010399592 0.52066682)
(0 0.010249142 0.51950928)
(0 0.0099425296 0.51845009)
(0 0.0095120049 0.51749684)
(0 0.0089845485 0.51665146)
(0 0.0083821761 0.51591242)
(0 0.0077226706 0.51527629)
(0 0.0070202908 0.51473877)
(0 0.0062864502 0.51429537)
(0 0.0055303294 0.51394189)
(0 0.004759418 0.51367466)
(0 0.0039799908 0.51349074)
(0 0.0031975329 0.51338803)
(0 0.0024171274 0.51336527)
(0 0.0016438226 0.51342208)
(0 0.00088299231 0.51355888)
(0 0.00014071591 0.51377682)
(0 -0.0005758379 0.5140776)
(0 -0.0012579618 0.51446331)
(0 -0.001894951 0.51493596)
(0 -0.0024736246 0.51549705)
(0 -0.0029777091 0.51614674)
(0 -0.0033875249 0.51688268)
(0 -0.003679407 0.51769854)
(0 -0.0038261519 0.51858137)
(0 -0.0037975305 0.51950984)
(0 -0.0035604539 0.52044651)
(0 -0.003091059 0.521305)
(0 -0.0023452198 0.52147572)
(0 -0.0013668261 0.51574214)
(0 -0.00040892545 0.471729)
(0 1.7633758e-05 0.26385393)
(0 0.0012999817 0.23278846)
(0 0.0037629698 0.46605331)
(0 0.0052216208 0.52007683)
(0 0.0066449025 0.52562311)
(0 0.0075850274 0.52485714)
(0 0.0083783968 0.52382196)
(0 0.0088834862 0.52277798)
(0 0.0091775126 0.52171971)
(0 0.0092707387 0.52068007)
(0 0.0091941767 0.51968898)
(0 0.0089754691 0.51876569)
(0 0.0086398979 0.51792162)
(0 0.0082098041 0.51716274)
(0 0.00770428 0.51649133)
(0 0.0071394141 0.51590728)
(0 0.0065286322 0.51540913)
(0 0.0058831054 0.5149947)
(0 0.0052121682 0.51466157)
(0 0.0045237207 0.51440746)
(0 0.0038246058 0.51423038)
(0 0.0031209607 0.51412879)
(0 0.0024185487 0.51410167)
(0 0.001723076 0.5141485)
(0 0.001040502 0.51426924)
(0 0.00037736251 0.51446422)
(0 -0.00025893298 0.51473396)
(0 -0.00085974478 0.51507895)
(0 -0.0014148837 0.51549924)
(0 -0.0019123364 0.51599397)
(0 -0.0023379257 0.51656061)
(0 -0.0026752887 0.51719397)
(0 -0.0029058639 0.51788505)
(0 -0.00300948 0.51861908)
(0 -0.0029660216 0.51937421)
(0 -0.0027554811 0.52011671)
(0 -0.0023684405 0.52076415)
(0 -0.001790464 0.52073012)
(0 -0.0010583165 0.51491505)
(0 -0.00034916823 0.47113258)
(0 2.1028442e-05 0.26367667)
(0 0.0012975376 0.2325226)
(0 0.0036844221 0.46531131)
(0 0.0049321802 0.51901982)
(0 0.0060872373 0.52461593)
(0 0.0068266858 0.52405197)
(0 0.0075002149 0.52322961)
(0 0.0079440511 0.52238929)
(0 0.0082245495 0.52152012)
(0 0.0083383621 0.52064925)
(0 0.0083068121 0.5198042)
(0 0.0081492602 0.51900433)
(0 0.007884879 0.51826266)
(0 0.0075315782 0.51758739)
(0 0.0071053813 0.51698323)
(0 0.0066203589 0.51645243)
(0 0.0060887023 0.51599561)
(0 0.00552092 0.51561239)
(0 0.0049260904 0.51530184)
(0 0.0043121367 0.51506279)
(0 0.0036861065 0.51489406)
(0 0.0030544465 0.51479464)
(0 0.0024232705 0.5147637)
(0 0.0017986204 0.51480066)
(0 0.001186718 0.51490511)
(0 0.00059422395 0.51507673)
(0 2.8462583e-05 0.51531514)
(0 -0.00050232633 0.51561963)
(0 -0.00098877434 0.51598881)
(0 -0.0014202655 0.51642022)
(0 -0.0017848184 0.51690963)
(0 -0.0020692192 0.51745032)
(0 -0.0022593215 0.51803219)
(0 -0.0023407238 0.51864055)
(0 -0.002300542 0.51925511)
(0 -0.0021277556 0.51984698)
(0 -0.0018204274 0.52034047)
(0 -0.0013769883 0.52016281)
(0 -0.00082215586 0.51428558)
(0 -0.00027261076 0.47066147)
(0 1.9685503e-05 0.26353722)
(0 0.0012988662 0.23229853)
(0 0.0036008639 0.4646948)
(0 0.0046916143 0.51816329)
(0 0.0056541212 0.52380705)
(0 0.0062372006 0.52339164)
(0 0.0068053564 0.52272663)
(0 0.0071857362 0.52204387)
(0 0.0074405883 0.52132693)
(0 0.0075577668 0.52059691)
(0 0.0075520627 0.51987776)
(0 0.0074365138 0.51918752)
(0 0.007225324 0.51853936)
(0 0.0069325209 0.51794244)
(0 0.0065712433 0.51740284)
(0 0.0061535017 0.51692433)
(0 0.005690082 0.51650899)
(0 0.005190592 0.51615776)
(0 0.0046635857 0.51587083)
(0 0.0041167319 0.51564792)
(0 0.0035570071 0.51548855)
(0 0.0029908979 0.51539211)
(0 0.0024246057 0.51535797)
(0 0.0018642505 0.51538551)
(0 0.0013160667 0.51547407)
(0 0.00078659641 0.51562287)
(0 0.0002828584 0.51583084)
(0 -0.00018751633 0.51609646)
(0 -0.00061610435 0.51641736)
(0 -0.00099372194 0.51679008)
(0 -0.0013104646 0.51720947)
(0 -0.0015558602 0.51766821)
(0 -0.0017193274 0.51815612)
(0 -0.0017908798 0.51865956)
(0 -0.0017625479 0.51916069)
(0 -0.0016289318 0.51963526)
(0 -0.0013916664 0.52001361)
(0 -0.0010537466 0.51972992)
(0 -0.00063098845 0.51379948)
(0 -0.00020346608 0.47029574)
(0 1.5502009e-05 0.26343294)
(0 0.0013010373 0.2321112)
(0 0.0035288878 0.46418749)
(0 0.0044886262 0.51746293)
(0 0.0053036806 0.52314978)
(0 0.0057632036 0.52284878)
(0 0.0062417643 0.52230365)
(0 0.0065625941 0.52174415)
(0 0.0067872154 0.52114993)
(0 0.0068980358 0.52053688)
(0 0.0069056525 0.51992518)
(0 0.0068184879 0.51933095)
(0 0.006646893 0.51876665)
(0 0.0064016749 0.51824159)
(0 0.0060934316 0.51776246)
(0 0.0057322381 0.51733387)
(0 0.0053274577 0.51695885)
(0 0.0048876923 0.51663926)
(0 0.0044208141 0.51637609)
(0 0.0039340528 0.51616977)
(0 0.003434116 0.51602031)
(0 0.0029273274 0.51592745)
(0 0.0024197758 0.51589075)
(0 0.0019174635 0.51590958)
(0 0.0014264517 0.51598312)
(0 0.0009529953 0.51611026)
(0 0.00050366071 0.51628951)
(0 8.5396703e-05 0.51651878)
(0 -0.00029437815 0.51679516)
(0 -0.00062783993 0.51711462)
(0 -0.00090687861 0.51747167)
(0 -0.0011233202 0.51785895)
(0 -0.0012693369 0.51826685)
(0 -0.0013381639 0.51868318)
(0 -0.0013250652 0.51909271)
(0 -0.0012279541 0.51947514)
(0 -0.0010499709 0.51976534)
(0 -0.00079541229 0.51940089)
(0 -0.00047483519 0.51342631)
(0 -0.00014832241 0.4700183)
(0 1.1261519e-05 0.26335643)
(0 0.0013025593 0.23195381)
(0 0.0034705291 0.46377252)
(0 0.0043190732 0.51689086)
(0 0.0050159067 0.52261329)
(0 0.005375571 0.5224021)
(0 0.0057784582 0.52195031)
(0 0.0060455708 0.5214884)
(0 0.0062391805 0.52099361)
(0 0.0063383662 0.52047757)
(0 0.0063511336 0.51995708)
(0 0.0062826261 0.51944614)
(0 0.0061402962 0.51895613)
(0 0.0059323706 0.51849597)
(0 0.0056672998 0.51807243)
(0 0.0053534298 0.51769052)
(0 0.0049987765 0.5173538)
(0 0.0046109201 0.5170647)
(0 0.0041969764 0.51682479)
(0 0.0037636243 0.51663496)
(0 0.0033171692 0.51649562)
(0 0.002863629 0.51640679)
(0 0.0024088337 0.51636816)
(0 0.0019585274 0.51637915)
(0 0.0015184675 0.51643883)
(0 0.0010945136 0.51654592)
(0 0.00069269759 0.51669865)
(0 0.0003192586 0.51689463)
(0 -1.9353937e-05 0.51713069)
(0 -0.00031653934 0.51740259)
(0 -0.00056570056 0.51770485)
(0 -0.00076051855 0.51803046)
(0 -0.000895241 0.51837067)
(0 -0.00096537385 0.51871481)
(0 -0.00096827384 0.51905014)
(0 -0.00090372617 0.51935949)
(0 -0.00077534293 0.51958105)
(0 -0.00058767399 0.51915415)
(0 -0.00034829373 0.51314477)
(0 -0.00010550642 0.46981292)
(0 8.0473494e-06 0.26330117)
(0 0.001303204 0.23182091)
(0 0.0034229056 0.46343393)
(0 0.0041787921 0.51642501)
(0 0.0047788631 0.52217538)
(0 0.0050563787 0.5220352)
(0 0.0053951758 0.52165715)
(0 0.0056146264 0.52127333)
(0 0.0057782931 0.52085951)
(0 0.0058632112 0.52042404)
(0 0.0058758442 0.51998075)
(0 0.005819043 0.51954165)
(0 0.0056981206 0.51911685)
(0 0.0055192832 0.51871462)
(0 0.0052892137 0.5183415)
(0 0.0050147648 0.51800255)
(0 0.0047027278 0.51770157)
(0 0.0043597024 0.5174413)
(0 0.0039920314 0.51722365)
(0 0.0036057867 0.51704986)
(0 0.0032067909 0.51692059)
(0 0.0028006622 0.51683607)
(0 0.0023928733 0.51679613)
(0 0.0019888148 0.51680021)
(0 0.0015938566 0.51684737)
(0 0.0012133997 0.51693624)
(0 0.00085290915 0.51706493)
(0 0.00051791943 0.51723094)
(0 0.00021400258 0.51743101)
(0 -5.3315771e-05 0.51766096)
(0 -0.00027869605 0.51791555)
(0 -0.00045726072 0.51818832)
(0 -0.000584815 0.51847148)
(0 -0.00065842304 0.51875585)
(0 -0.00067678019 0.51903082)
(0 -0.00064067912 0.51928175)
(0 -0.00055371432 0.51944922)
(0 -0.00042036353 0.51897364)
(0 -0.00024639795 0.5129376)
(0 -7.1712396e-05 0.46966541)
(0 5.8514072e-06 0.26326267)
(0 0.0013032288 0.23170857)
(0 0.0033830657 0.4631581)
(0 0.0040628541 0.51604661)
(0 0.0045832192 0.52181881)
(0 0.0047924614 0.5217351)
(0 0.0050767873 0.52141591)
(0 0.0052543013 0.52109511)
(0 0.0053899904 0.5207476)
(0 0.005459626 0.52037915)
(0 0.0054688017 0.52000114)
(0 0.0054187819 0.51962375)
(0 0.0053133216 0.51925584)
(0 0.0051570685 0.51890489)
(0 0.0049552781 0.51857702)
(0 0.0047135409 0.51827713)
(0 0.0044375673 0.51800902)
(0 0.0041330501 0.51777559)
(0 0.0038055807 0.51757892)
(0 0.0034606089 0.51742043)
(0 0.0031034348 0.51730098)
(0 0.0027392227 0.51722094)
(0 0.002373028 0.51718024)
(0 0.0020098306 0.51717838)
(0 0.0016545658 0.51721444)
(0 0.0013121472 0.51728703)
(0 0.00098747361 0.51739426)
(0 0.00068541175 0.51753363)
(0 0.00041074892 0.51770196)
(0 0.00016809706 0.51789527)
(0 -3.8233426e-05 0.51810871)
(0 -0.00020447479 0.51833645)
(0 -0.00032758134 0.51857165)
(0 -0.00040567243 0.51880651)
(0 -0.00043828239 0.51903221)
(0 -0.00042670033 0.51923613)
(0 -0.00037428518 0.51936061)
(0 -0.00028529725 0.51884688)
(0 -0.00016437549 0.51279055)
(0 -4.4462659e-05 0.46956422)
(0 4.372939e-06 0.2632377)
(0 0.0013029167 0.23161382)
(0 0.0033491435 0.46293408)
(0 0.0039665346 0.51574007)
(0 0.0044210553 0.52152965)
(0 0.0045732392 0.52149122)
(0 0.0048111725 0.52121942)
(0 0.0049519929 0.52094986)
(0 0.0050620796 0.52065692)
(0 0.0051164213 0.52034437)
(0 0.0051201671 0.52002154)
(0 0.005073494 0.51969702)
(0 0.0049790344 0.51937852)
(0 0.0048402468 0.51907267)
(0 0.0046612483 0.51878508)
(0 0.00444658 0.51852036)
(0 0.0042010167 0.51828219)
(0 0.003929434 0.51807344)
(0 0.0036367179 0.51789627)
(0 0.0033277092 0.51775219)
(0 0.003007176 0.51764217)
(0 0.0026798051 0.51756667)
(0 0.0023502059 0.51752571)
(0 0.0020229196 0.51751885)
(0 0.0017024276 0.51754521)
(0 0.0013931536 0.51760347)
(0 0.0010994513 0.51769178)
(0 0.00082557352 0.51780774)
(0 0.00057561638 0.51794835)
(0 0.00035342552 0.51810993)
(0 0.00016248209 0.51828806)
(0 5.7056541e-06 0.51847756)
(0 -0.00011469677 0.51867254)
(0 -0.00019755098 0.51886635)
(0 -0.00024289528 0.5190517)
(0 -0.00025221408 0.51921757)
(0 -0.0002285454 0.51930765)
(0 -0.00017584361 0.5187639)
(0 -9.8159471e-05 0.51269214)
(0 -2.2268267e-05 0.46950024)
(0 3.3843212e-06 0.26322384)
(0 0.0013024455 0.23153423)
(0 0.003320062 0.46275321)
(0 0.0038859435 0.5154928)
(0 0.0042858539 0.52129657)
(0 0.0043901645 0.5212948)
(0 0.0045885375 0.52106148)
(0 0.0046973819 0.52083385)
(0 0.0047843711 0.52058604)
(0 0.0048240125 0.52032022)
(0 0.0048212767 0.52004405)
(0 0.0047756028 0.51976478)
(0 0.0046888226 0.51948904)
(0 0.0045634942 0.51922268)
(0 0.0044028349 0.51897072)
(0 0.004210523 0.51873743)
(0 0.0039905352 0.51852627)
(0 0.0037470246 0.51834002)
(0 0.0034842305 0.51818079)
(0 0.0032064166 0.51805013)
(0 0.0029178312 0.51794905)
(0 0.0026226832 0.51787808)
(0 0.0023251297 0.51783728)
(0 0.0020292677 0.51782631)
(0 0.0017391267 0.51784434)
(0 0.0014586548 0.51789012)
(0 0.001191695 0.51796193)
(0 0.00094194623 0.51805752)
(0 0.00071290501 0.51817413)
(0 0.00050777916 0.5183084)
(0 0.00032938698 0.51845638)
(0 0.00018000221 0.51861354)
(0 6.1226893e-05 0.5187748)
(0 -2.623172e-05 0.51893457)
(0 -8.2693404e-05 0.51908675)
(0 -0.00010965855 0.51922166)
(0 -0.00010982592 0.51928406)
(0 -8.6793326e-05 0.51871664)
(0 -4.4554813e-05 0.51263332)
(0 -4.2113323e-06 0.46946619)
(0 2.741885e-06 0.26321917)
(0 0.0013019055 0.23146772)
(0 0.0032950973 0.46260854)
(0 0.0038180849 0.51529478)