/*--------------------------------*- C++ -*----------------------------------*\
  =========                 |
  \\      /  F ield         | OpenFOAM: The Open Source CFD Toolbox
   \\    /   O peration     | Website:  https://openfoam.org
    \\  /    A nd           | Version:  10
     \\/     M anipulation  |
\*---------------------------------------------------------------------------*/
FoamFile
{
    format      ascii;
    class       surfaceScalarField;
    location    "0.17";
    object      phi;
}
// * * * * * * * * * * * * * * * * * * * * * * * * * * * * * * * * * * * * * //

dimensions      [1 0 -1 0 0 0 0];

internalField   nonuniform List<scalar> 
7860
(
3.9895435e-08
5.2881259e-07
1.2192317e-08
5.9641091e-07
7.4274919e-09
5.7347256e-07
5.498961e-09
5.7063623e-07
4.1145325e-09
5.700921e-07
3.2006931e-09
5.6962149e-07
2.5587255e-09
5.693496e-07
2.0789364e-09
5.691874e-07
1.7089962e-09
5.6907754e-07
1.4163802e-09
5.6900021e-07
1.1792922e-09
5.6894467e-07
9.8296803e-10
5.689039e-07
8.1706332e-10
5.6887348e-07
6.7408679e-10
5.6885054e-07
5.4846423e-10
5.6883319e-07
4.3593395e-10
5.6882009e-07
3.3314124e-10
5.6881035e-07
2.3735768e-10
5.6880334e-07
1.4627922e-10
5.6879863e-07
5.7873603e-11
5.6879596e-07
-2.9743079e-11
5.6879517e-07
-1.1841405e-10
5.6879622e-07
-2.1004703e-10
5.6879919e-07
-3.0672063e-10
5.6880423e-07
-4.1081687e-10
5.6881165e-07
-5.251839e-10
5.6882193e-07
-6.5335692e-10
5.6883574e-07
-7.998711e-10
5.6885408e-07
-9.7072203e-10
5.6887842e-07
-1.1740725e-09
5.6891093e-07
-1.4214254e-09
5.6895494e-07
-1.7295943e-09
5.6901576e-07
-2.1235598e-09
5.6910157e-07
-2.6432061e-09
5.6922726e-07
-3.3709481e-09
5.6943537e-07
-4.4623531e-09
5.6979905e-07
-6.0078836e-09
5.702532e-07
-9.5070151e-09
5.7220683e-07
-2.9574639e-08
5.8877537e-07
5.3913328e-07
5.9671211e-08
4.6914139e-07
3.6664454e-08
6.1941766e-07
2.2626709e-08
5.8751031e-07
1.6252058e-08
5.7701088e-07
1.2288985e-08
5.7405517e-07
9.6047759e-09
5.7230569e-07
7.6760807e-09
5.7127829e-07
6.2348603e-09
5.7062862e-07
5.1255141e-09
5.7018689e-07
4.2479665e-09
5.6987776e-07
3.5368795e-09
5.6965576e-07
2.9480814e-09
5.694927e-07
2.4505235e-09
5.6937103e-07
2.0217273e-09
5.6927934e-07
1.6449748e-09
5.6920994e-07
1.3074852e-09
5.6915758e-07
9.9919763e-10
5.6911864e-07
7.1193004e-10
5.6909061e-07
4.3877292e-10
5.6907179e-07
1.7363084e-10
5.690611e-07
-8.9146457e-11
5.6905795e-07
-3.5508615e-10
5.6906216e-07
-6.2990441e-10
5.6907401e-07
-9.1983765e-10
5.6909416e-07
-1.2320292e-09
5.6912384e-07
-1.5750203e-09
5.6916492e-07
-1.9594126e-09
5.6922013e-07
-2.3988065e-09
5.6929347e-07
-2.9111897e-09
5.693908e-07
-3.5210594e-09
5.695208e-07
-4.2628397e-09
5.6969672e-07
-5.1869015e-09
5.6993982e-07
-6.3698764e-09
5.7028454e-07
-7.930491e-09
5.7078787e-07
-1.0071977e-08
5.7157685e-07
-1.320048e-08
5.7292755e-07
-1.8130784e-08
5.7518351e-07
-2.8173206e-08
5.8224926e-07
-4.579974e-08
6.0640191e-07
4.9333354e-07
6.0006842e-08
4.0913457e-07
5.0484422e-08
6.2894008e-07
3.3367978e-08
6.0462675e-07
2.4814975e-08
5.8556388e-07
1.9320546e-08
5.795496e-07
1.5328887e-08
5.7629735e-07
1.2358275e-08
5.742489e-07
1.0099348e-08
5.7288755e-07
8.3387231e-09
5.7194751e-07
6.9332753e-09
5.712832e-07
5.78692e-09
5.7080211e-07
4.8328869e-09
5.7044673e-07
4.0234059e-09
5.7018051e-07
3.3234858e-09
5.6997926e-07
2.7068572e-09
5.6982657e-07
2.1532817e-09
5.6971116e-07
1.6467278e-09
5.6962519e-07
1.1740897e-09
5.6956324e-07
7.2425369e-10
5.6952163e-07
2.8738503e-10
5.6949797e-07
-1.4564966e-10
5.6949098e-07
-5.8378815e-10
5.695003e-07
-1.036266e-09
5.6952648e-07
-1.5131366e-09
5.6957103e-07
-2.025874e-09
5.6963658e-07
-2.5881327e-09
5.6972718e-07
-3.2167584e-09
5.6984875e-07
-3.9332004e-09
5.7000992e-07
-4.7655605e-09
5.7022316e-07
-5.7516573e-09
5.7050689e-07
-6.9436845e-09
5.7088874e-07
-8.4158497e-09
5.7141199e-07
-1.0277562e-08
5.7214625e-07
-1.2690707e-08
5.7320102e-07
-1.588846e-08
5.7477461e-07
-2.0232739e-08
5.7727183e-07
-2.670157e-08
5.8165234e-07
-3.894124e-08
5.9448893e-07
-4.8162274e-08
6.1562294e-07
4.4517127e-07
5.4876476e-08
3.5425813e-07
5.7447816e-08
6.2636875e-07
4.0463312e-08
6.2161124e-07
3.0774647e-08
5.9525254e-07
2.4638957e-08
5.8568529e-07
1.9948329e-08
5.8098798e-07
1.6309217e-08
5.7788801e-07
1.3463151e-08
5.7573361e-07
1.1198009e-08
5.7421265e-07
9.3620793e-09
5.7311913e-07
7.8474697e-09
5.7231672e-07
6.5756845e-09
5.7171852e-07
5.48887e-09
5.7126733e-07
4.5437056e-09
5.7092442e-07
3.7070886e-09
5.7066318e-07
2.9531534e-09
5.7046509e-07
2.2611738e-09
5.7031717e-07
1.6140455e-09
5.7021037e-07
9.971545e-10
5.7013852e-07
3.9749667e-10
5.7009763e-07
-1.9704484e-10
5.7008552e-07
-7.9833999e-10
5.701016e-07
-1.4186329e-09
5.7014678e-07
-2.0711961e-09
5.702236e-07
-2.7710817e-09
5.7033647e-07
-3.5360486e-09
5.7049214e-07
-4.38777e-09
5.7070047e-07
-5.3534664e-09
5.7097561e-07
-6.4681863e-09
5.7133788e-07
-7.7780663e-09
5.7181677e-07
-9.3448988e-09
5.7245557e-07
-1.1252517e-08
5.733196e-07
-1.3617199e-08
5.7451093e-07
-1.6600307e-08
5.7618413e-07
-2.0399644e-08
5.7857394e-07
-2.5281894e-08
5.8215408e-07
-3.2506645e-08
5.8887709e-07
-4.5090497e-08
6.0707278e-07
-4.6542544e-08
6.1707499e-07
3.9862872e-07
4.7962698e-08
3.062955e-07
6.0070536e-08
6.1426095e-07
4.5394025e-08
6.3628774e-07
3.4869554e-08
6.0577701e-07
2.8394138e-08
5.9216071e-07
2.3414068e-08
5.8596805e-07
1.9429068e-08
5.8187301e-07
1.6224385e-08
5.789383e-07
1.3615491e-08
5.7682155e-07
1.146297e-08
5.7527165e-07
9.6616883e-09
5.74118e-07
8.1315954e-09
5.7324861e-07
6.8116583e-09
5.7258727e-07
5.6548543e-09
5.7208123e-07
4.6243975e-09
5.7169364e-07
3.6909901e-09
5.713985e-07
2.830782e-09
5.7117738e-07
2.0238321e-09
5.7101732e-07
1.2529232e-09
5.7090943e-07
5.0261773e-10
5.7084793e-07
-2.4153589e-10
5.7082968e-07
-9.9371292e-10
5.7085377e-07
-1.7685026e-09
5.7092156e-07
-2.5816308e-09
5.7103672e-07
-3.4507762e-09
5.7120561e-07
-4.3965536e-09
5.7143792e-07
-5.4437541e-09
5.7174767e-07
-6.6229552e-09
5.7215481e-07
-7.9726466e-09
5.7268758e-07
-9.5421048e-09
5.7338623e-07
-1.1395169e-08
5.7430864e-07
-1.3614665e-08
5.755391e-07
-1.6308911e-08
5.7720518e-07
-1.9621532e-08
5.7949675e-07
-2.3722829e-08
5.8267524e-07
-2.8915649e-08
5.873469e-07
-3.6776192e-08
5.9673763e-07
-4.8449409e-08
6.1874599e-07
-4.3185701e-08
6.1181128e-07
3.5544302e-07
4.0332553e-08
2.6596303e-07
5.8986426e-08
5.9560714e-07
4.8321759e-08
6.469524e-07
3.7580277e-08
6.1651848e-07
3.0921309e-08
5.9881967e-07
2.5886659e-08
5.910027e-07
2.177309e-08
5.8598658e-07
1.8385736e-08
5.8232565e-07
1.5571927e-08
5.7963536e-07
1.3209601e-08
5.7763398e-07
1.1202809e-08
5.761248e-07
9.476247e-09
5.7497517e-07
7.9707603e-09
5.7409275e-07
6.6394316e-09
5.7341256e-07
5.4446206e-09
5.7288845e-07
4.3556954e-09
5.7248742e-07
3.3472538e-09
5.7218582e-07
2.3977228e-09
5.7196685e-07
1.4882417e-09
5.7181891e-07
6.0174077e-10
5.7173443e-07
-2.7784865e-10
5.7170927e-07
-1.1663117e-09
5.7174224e-07
-2.0798526e-09
5.7183511e-07
-3.0358227e-09
5.7199269e-07
-4.0535269e-09
5.7222332e-07
-5.1551691e-09
5.7253956e-07
-6.3670045e-09
5.7295951e-07
-7.7207738e-09
5.7350858e-07
-9.2555011e-09
5.742223e-07
-1.1019801e-08
5.7515053e-07
-1.3074913e-08
5.7636375e-07
-1.5498121e-08
5.7796231e-07
-1.8386843e-08
5.800939e-07
-2.186528e-08
5.8297518e-07
-2.6089256e-08
5.8689922e-07
-3.1468068e-08
5.9272571e-07
-3.9634383e-08
6.0490394e-07
-4.9153624e-08
6.2826523e-07
-3.8568268e-08
6.0122592e-07
3.1687475e-07
3.2858799e-08
2.3310435e-07
5.5240597e-08
5.7322545e-07
4.9221339e-08
6.5297166e-07
3.9051269e-08
6.2668853e-07
3.2420844e-08
6.0545009e-07
2.750929e-08
5.9591426e-07
2.3429776e-08
5.900661e-07
1.9994738e-08
5.8576069e-07
1.7087605e-08
5.8254249e-07
1.4606139e-08
5.8011544e-07
1.246654e-08
5.782644e-07
1.0601542e-08
5.7684017e-07
8.9568899e-09
5.757374e-07
7.4883751e-09
5.7488107e-07
6.1596515e-09
5.7421717e-07
4.9404758e-09
5.737066e-07
3.8052657e-09
5.7332103e-07
2.7319227e-09
5.730402e-07
1.7008561e-09
5.7284997e-07
6.9415189e-10
5.7274114e-07
-3.0515921e-10
5.7270858e-07
-1.313776e-09
5.7275085e-07
-2.3487928e-09
5.7287012e-07
-3.4283822e-09
5.7307228e-07
-4.5725376e-09
5.7336747e-07
-5.8039191e-09
5.7377094e-07
-7.1488516e-09
5.7430444e-07
-8.6385252e-09
5.7499825e-07
-1.0310445e-08
5.7589422e-07
-1.2210207e-08
5.7705029e-07
-1.4393888e-08
5.7854743e-07
-1.6930935e-08
5.8049935e-07
-1.9906215e-08
5.8306918e-07
-2.3420536e-08
5.864895e-07
-2.7615334e-08
5.9109401e-07
-3.3008601e-08
5.9811898e-07
-4.0984647e-08
6.1287999e-07
-4.7664454e-08
6.3494504e-07
-3.3364358e-08
5.8692583e-07
2.8351039e-07
2.6184689e-08
2.069198e-07
5.0121442e-08
5.4928886e-07
4.8479722e-08
6.546134e-07
3.9477891e-08
6.3569033e-07
3.306499e-08
6.1186299e-07
2.8400057e-08
6.0057919e-07
2.4481623e-08
5.9398453e-07
2.1107891e-08
5.8913442e-07
1.8197954e-08
5.8545243e-07
1.5672568e-08
5.8264083e-07
1.3462579e-08
5.8047438e-07
1.1510791e-08
5.7879196e-07
9.7696725e-09
5.7747852e-07
8.1994126e-09
5.7645133e-07
6.7664607e-09
5.7565013e-07
5.4422513e-09
5.7503081e-07
4.2021164e-09
5.7456116e-07
3.0243626e-09
5.7421795e-07
1.8894729e-09
5.7398486e-07
7.7940392e-10
5.7385121e-07
-3.2305027e-10
5.7381103e-07
-1.4348544e-09
5.7386266e-07
-2.5733245e-09
5.7400859e-07
-3.7567306e-09
5.7425569e-07
-5.0049399e-09
5.7461568e-07
-6.3401308e-09
5.7510613e-07
-7.7876057e-09
5.7575192e-07
-9.376738e-09
5.7658739e-07
-1.114208e-08
5.7765956e-07
-1.312463e-08
5.7903284e-07
-1.5373485e-08
5.8079628e-07
-1.7947952e-08
5.8307382e-07
-2.0917514e-08
5.8603874e-07
-2.4357403e-08
5.8992939e-07
-2.8403099e-08
5.9513971e-07
-3.3659193e-08
6.0337507e-07
-4.1030105e-08
6.202509e-07
-4.4769254e-08
6.3868419e-07
-2.8191252e-08
5.7034782e-07
2.5531914e-07
2.0566163e-08
1.8635381e-07
4.4569971e-08
5.2528529e-07
4.6625771e-08
6.5255766e-07
3.9136585e-08
6.4317949e-07
3.3068233e-08
6.1793133e-07
2.8702719e-08
6.049447e-07
2.5024097e-08
5.9766315e-07
2.179089e-08
5.9236763e-07
1.8947759e-08
5.8829556e-07
1.6438626e-08
5.8514996e-07
1.4209975e-08
5.8270304e-07
1.2215603e-08
5.8078633e-07
1.041571e-08
5.7927842e-07
8.7759148e-09
5.7809112e-07
7.2664404e-09
5.771596e-07
5.8612957e-09
5.7643595e-07
4.5375385e-09
5.7588492e-07
3.2746084e-09
5.7548088e-07
2.0537211e-09
5.7520575e-07
8.5731035e-10
5.7504762e-07
-3.314911e-10
5.7499983e-07
-1.5293483e-09
5.7506051e-07
-2.753221e-09
5.7523246e-07
-4.020865e-09
5.7552333e-07
-5.3513568e-09
5.7594617e-07
-6.765659e-09
5.7652044e-07
-8.2872379e-09
5.7727349e-07
-9.9427481e-09
5.782429e-07
-1.1762799e-08
5.7947961e-07
-1.3782749e-08
5.8105279e-07
-1.6043616e-08
5.8305715e-07
-1.8593278e-08
5.8562348e-07
-2.1484875e-08
5.8893034e-07
-2.477247e-08
5.9321699e-07
-2.8602123e-08
5.9896936e-07
-3.3620314e-08
6.0839326e-07
-4.0104094e-08
6.2673468e-07
-4.1126088e-08
6.3970619e-07
-2.3402295e-08
5.5262403e-07
2.3191685e-07
1.6010258e-08
1.7034375e-07
3.9128574e-08
5.0216729e-07
4.4097701e-08
6.4758863e-07
3.826902e-08
6.4900814e-07
3.2634629e-08
6.2356569e-07
2.8573266e-08
6.0900606e-07
2.5166312e-08
6.0107011e-07
2.2120055e-08
5.9541388e-07
1.939059e-08
5.9102502e-07
1.6941831e-08
5.8759872e-07
1.4734778e-08
5.8491009e-07
1.273381e-08
5.8278729e-07
1.090699e-08
5.8110524e-07
9.2257687e-09
5.7977234e-07
7.6646459e-09
5.7872072e-07
6.2007453e-09
5.7789985e-07
4.8133911e-09
5.7727228e-07
3.4836798e-09
5.7681059e-07
2.1940593e-09
5.7649537e-07
9.2792065e-10
5.7631375e-07
-3.3079885e-10
5.7625855e-07
-1.5980024e-09
5.7632772e-07
-2.8898255e-09
5.7652429e-07
-4.2230263e-09
5.7685653e-07
-5.6153852e-09
5.7733853e-07
-7.0861192e-09
5.7799117e-07
-8.656309e-09
5.7884368e-07
-1.0349337e-08
5.7993592e-07
-1.2191345e-08
5.8132162e-07
-1.4211648e-08
5.830731e-07
-1.6443105e-08
5.8528861e-07
-1.8922501e-08
5.8810288e-07
-2.1688016e-08
5.9169585e-07
-2.4780163e-08
5.9630913e-07
-2.8367516e-08
6.0255672e-07
-3.3076272e-08
6.1310202e-07
-3.8501538e-08
6.3215995e-07
-3.7177415e-08
6.3838206e-07
-1.9166826e-08
5.3461344e-07
2.1275002e-07
1.2417991e-08
1.57926e-07
3.4096308e-08
4.8048938e-07
4.1224684e-08
6.4046043e-07
3.7053296e-08
6.5317949e-07
3.191823e-08
6.2870073e-07
2.814635e-08
6.1277794e-07
2.5011838e-08
6.0420462e-07
2.2172571e-08
5.9825315e-07
1.9583493e-08
5.936141e-07
1.7223983e-08
5.8995823e-07
1.5067382e-08
5.8706669e-07
1.3087349e-08
5.8476733e-07
1.1259217e-08
5.8293337e-07
9.5601018e-09
5.8147146e-07
7.9688527e-09
5.8031197e-07
6.4659247e-09
5.7940278e-07
5.0331987e-09
5.78705e-07
3.6537544e-09
5.7819003e-07
2.3116145e-09
5.7783751e-07
9.9147452e-10
5.7763389e-07
-3.2157452e-10
5.775716e-07
-1.6423245e-09
5.7764847e-07
-2.9857364e-09
5.778677e-07
-4.3672209e-09
5.7823802e-07
-5.8029167e-09
5.7877423e-07
-7.3099644e-09
5.7949822e-07
-8.906765e-09
5.8044048e-07
-1.0613213e-08
5.8164237e-07
-1.2450903e-08
5.8315931e-07
-1.4443293e-08
5.8506549e-07
-1.6615735e-08
5.8746105e-07
-1.8995156e-08
5.904823e-07
-2.1607102e-08
5.943078e-07
-2.4485778e-08
5.9918781e-07
-2.7825237e-08
6.0589618e-07
-3.2169689e-08
6.1744647e-07
-3.6464539e-08
6.364548e-07
-3.322444e-08
6.3514196e-07
-1.554646e-08
5.1693546e-07
1.9720356e-07
9.6507308e-09
1.4827554e-07
2.9625444e-08
4.6051518e-07
3.8253326e-08
6.318328e-07
3.5627518e-08
6.5580529e-07
3.103013e-08
6.3329807e-07
2.7526255e-08
6.162818e-07
2.4647172e-08
6.070837e-07
2.2017147e-08
6.0088318e-07
1.9580274e-08
5.9605097e-07
1.7326539e-08
5.9221196e-07
1.5239297e-08
5.8915393e-07
1.3299933e-08
5.8670669e-07
1.1490082e-08
5.8474322e-07
9.7919789e-09
5.8316956e-07
8.1885834e-09
5.8191537e-07
6.6636351e-09
5.8092773e-07
5.2016486e-09
5.8016699e-07
3.7878386e-09
5.7960384e-07
2.4079982e-09
5.7921735e-07
1.0483492e-09
5.7899354e-07
-3.046298e-10
5.7892458e-07
-1.6643813e-09
5.7900822e-07
-3.0444574e-09
5.7924777e-07
-4.4586993e-09
5.7965226e-07
-5.9214079e-09
5.8023693e-07
-7.4474954e-09
5.810243e-07
-9.0526082e-09
5.820456e-07
-1.0753203e-08
5.8334297e-07
-1.2566575e-08
5.8497268e-07
-1.451085e-08
5.8700976e-07
-1.660481e-08
5.8955501e-07
-1.8866978e-08
5.9274446e-07
-2.1312922e-08
5.9675374e-07
-2.3976735e-08
6.0185162e-07
-2.7074038e-08
6.0899348e-07
-3.1018651e-08
6.2139108e-07
-3.4197166e-08
6.3963331e-07
-2.947223e-08
6.3041703e-07
-1.2536503e-08
4.9999973e-07
1.8466706e-07
7.5596447e-09
1.4071622e-07
2.5763608e-08
4.4231185e-07
3.5354436e-08
6.2224232e-07
3.4101471e-08
6.5705826e-07
3.0053227e-08
6.3734625e-07
2.6792878e-08
6.1954213e-07
2.4141915e-08
6.0973467e-07
2.1711489e-08
6.033136e-07
1.9428147e-08
5.9833432e-07
1.7287493e-08
5.9435262e-07
1.5280609e-08
5.9116081e-07
1.3395077e-08
5.8859222e-07
1.1617742e-08
5.8652055e-07
9.9352489e-09
5.8485205e-07
8.3342384e-09
5.8351638e-07
6.8015116e-09
5.8246045e-07
5.324133e-09
5.8164437e-07
3.8894624e-09
5.8103851e-07
2.485136e-09
5.8062167e-07
1.0990106e-09
5.8037967e-07
-2.809176e-10
5.8030451e-07
-1.6666063e-09
5.8039391e-07
-3.0700696e-09
5.8065124e-07
-4.5034714e-09
5.8108566e-07
-5.9792046e-09
5.8171267e-07
-7.5099458e-09
5.8255504e-07
-9.1086738e-09
5.8364432e-07
-1.0788635e-08
5.8502293e-07
-1.2563251e-08
5.867473e-07
-1.4446001e-08
5.8889251e-07
-1.6450119e-08
5.9155913e-07
-1.8587255e-08
5.948816e-07
-2.0865981e-08
5.9903247e-07
-2.3325358e-08
6.04311e-07
-2.6194163e-08
6.1186228e-07
-2.9724134e-08
6.2492105e-07
-3.1860989e-08
6.4177017e-07
-2.6043053e-08
6.2459909e-07
-1.0090267e-08
4.8404694e-07
1.7457679e-07
6.0041534e-09
1.3471245e-07
2.2488989e-08
4.2582779e-07
3.2629819e-08
6.1210197e-07
3.2555523e-08
6.571326e-07
2.9047515e-08
6.4085419e-07
2.600629e-08
6.2258333e-07
2.3551315e-08
6.1218964e-07
2.1303096e-08
6.0556182e-07
1.916723e-08
6.0047018e-07
1.714022e-08
5.9637963e-07
1.5218641e-08
5.9308239e-07
1.3394821e-08
5.9041604e-07
1.1659732e-08
5.8825564e-07
1.0003655e-08
5.8650813e-07
8.4163949e-09
5.8510364e-07
6.8874881e-09
5.8398936e-07
5.406358e-09
5.8312549e-07
3.9624172e-09
5.8248245e-07
2.5451187e-09
5.8203897e-07
1.143972e-09
5.8178081e-07
-2.5146891e-10
5.8169995e-07
-1.6516287e-09
5.8179407e-07
-3.0669443e-09
5.8206655e-07
-4.5078875e-09
5.825266e-07
-5.9849733e-09
5.8318975e-07
-7.5087405e-09
5.8407881e-07
-9.0896959e-09
5.8522528e-07
-1.0738208e-08
5.8667144e-07
-1.2464349e-08
5.8847344e-07
-1.4277715e-08
5.9070588e-07
-1.6187049e-08
5.9346846e-07
-1.8198714e-08
5.9689326e-07
-2.0317358e-08
6.0115111e-07
-2.2590541e-08
6.0658418e-07
-2.5249083e-08
6.1452082e-07
-2.8366638e-08
6.2803861e-07
-2.957012e-08
6.4297365e-07
-2.2992102e-08
6.1802107e-07
-8.1392694e-09
4.6919411e-07
1.6643752e-07
4.8615495e-09
1.2985135e-07
1.9743007e-08
4.1094727e-07
3.0127688e-08
6.0171792e-07
3.1041939e-08
6.5621845e-07
2.8052386e-08
6.4384367e-07
2.5208676e-08
6.25427e-07
2.2917403e-08
6.1448091e-07
2.0829932e-08
6.0764929e-07
1.8830722e-08
6.0246939e-07
1.6913204e-08
5.9829715e-07
1.5077398e-08
5.949182e-07
1.3319067e-08
5.9217437e-07
1.1632288e-08
5.8994242e-07
1.0010218e-08
5.881302e-07
8.4452859e-09
5.8666857e-07
6.92938e-09
5.8550527e-07
5.4540299e-09
5.8460084e-07
4.0105385e-09
5.8392595e-07
2.5900791e-09
5.8345943e-07
1.1837594e-09
5.8318713e-07
-2.1733817e-10
5.8310104e-07
-1.6221285e-09
5.8319886e-07
-3.039503e-09
5.8348393e-07
-4.4782993e-09
5.839654e-07
-5.9472573e-09
5.8465871e-07
-7.4549479e-09
5.855865e-07
-9.0096708e-09
5.8678e-07
-1.061931e-08
5.8828108e-07
-1.229115e-08
5.9014528e-07
-1.4031684e-08
5.9244641e-07
-1.5846198e-08
5.9528298e-07
-1.7737293e-08
5.9878436e-07
-1.9708495e-08
6.0312231e-07
-2.1817574e-08
6.0869326e-07
-2.4285412e-08
6.1698866e-07
-2.7004809e-08
6.30758e-07
-2.7396576e-08
6.4336541e-07
-2.0328676e-08
6.1095317e-07
-6.6078374e-09
4.5547327e-07
1.5982968e-07
4.029472e-09
1.2582241e-07
1.7453159e-08
3.975247e-07
2.7861952e-08
5.9130994e-07
2.9591267e-08
6.5448931e-07
2.7090939e-08
6.4634391e-07
2.4427115e-08
6.2809077e-07
2.2270223e-08
6.166378e-07
2.0320981e-08
6.0959854e-07
1.8445109e-08
6.0434526e-07
1.663e-08
6.0011225e-07
1.487734e-08
5.9667086e-07
1.3185225e-08
5.9386649e-07
1.1549948e-08
5.915777e-07
9.9668478e-09
5.897133e-07
8.4304413e-09
5.8820497e-07
6.934581e-09
5.8700113e-07
5.4726166e-09
5.8606281e-07
4.037538e-09
5.8536102e-07
2.6220942e-09
5.8487488e-07
1.2188862e-09
5.8459034e-07
-1.795579e-10
5.8449949e-07
-1.5807192e-09
5.8460002e-07
-2.9920285e-09
5.8489524e-07
-4.4207994e-09
5.8539417e-07
-5.8741489e-09
5.8611206e-07
-7.3588956e-09
5.8707125e-07
-8.881432e-09
5.8830254e-07
-1.044757e-08
5.8984722e-07
-1.2062366e-08
5.9176007e-07
-1.3729943e-08
5.9411399e-07
-1.5453061e-08
5.9700609e-07
-1.7231927e-08
6.0056323e-07
-1.9071238e-08
6.0496162e-07
-2.1039045e-08
6.1066107e-07
-2.3335006e-08
6.1928462e-07
-2.5678293e-08
6.3310129e-07
-2.5380025e-08
6.4306715e-07
-1.8034185e-08
6.0360733e-07
-5.4215841e-09
4.4286067e-07
1.544081e-07
3.4252453e-09
1.223978e-07
1.5545607e-08
3.8540567e-07
2.5825938e-08
5.8103062e-07
2.8218839e-08
6.5209667e-07
2.617493e-08
6.4838773e-07
2.367738e-08
6.3058825e-07
2.1629975e-08
6.1868519e-07
1.9797365e-08
6.1143115e-07
1.803072e-08
6.0611191e-07
1.630943e-08
6.0183354e-07
1.4635372e-08
5.9834492e-07
1.3008083e-08
5.9549378e-07
1.1425357e-08
5.9316042e-07
9.8841067e-09
5.9125455e-07
8.3804618e-09
5.8970862e-07
6.9098605e-09
5.8847173e-07
5.4671829e-09
5.8750549e-07
4.0468838e-09
5.8678132e-07
2.6431157e-09
5.8627864e-07
1.2498348e-09
5.8598362e-07
-1.3910374e-10
5.8588843e-07
-1.52986e-09
5.8599077e-07
-2.928526e-09
5.862939e-07
-4.3410353e-09
5.8680668e-07
-5.7730639e-09
5.8754409e-07
-7.2299139e-09
5.885281e-07
-8.7163803e-09
5.89789e-07
-1.0236604e-08
5.9136744e-07
-1.1793926e-08
5.9331739e-07
-1.3390743e-08
5.957108e-07
-1.5028082e-08
5.9864343e-07
-1.6704925e-08
6.0224007e-07
-1.8428872e-08
6.0668557e-07
-2.0277043e-08
6.1250924e-07
-2.2418225e-08
6.214258e-07
-2.4411832e-08
6.350949e-07
-2.3537211e-08
6.4219253e-07
-1.6074594e-08
5.9614471e-07
-4.5120905e-09
4.3129817e-07
1.4989601e-07
2.9842401e-09
1.194143e-07
1.3951862e-08
3.7443962e-07
2.4001732e-08
5.7098202e-07
2.6929722e-08
6.4916906e-07
2.5308632e-08
6.5000874e-07
2.2967369e-08
6.3292943e-07
2.1009403e-08
6.2064313e-07
1.9273855e-08
6.131667e-07
1.7602639e-08
6.0778313e-07
1.5966086e-08
6.034701e-07
1.4365063e-08
5.9994594e-07
1.2799861e-08
5.9705898e-07
1.1269214e-08
5.9469107e-07
9.7711188e-09
5.9275265e-07
8.3029014e-09
5.9117684e-07
6.8612464e-09
5.8991338e-07
5.4422885e-09
5.8892444e-07
4.0417239e-09
5.8818189e-07
2.6549245e-09
5.8766544e-07
1.2770462e-09
5.873615e-07
-9.6869245e-11
5.8726234e-07
-1.4717959e-09
5.873657e-07
-2.8526307e-09
5.8767474e-07
-4.2440898e-09
5.8819814e-07
-5.6506023e-09
5.889506e-07
-7.0761926e-09
5.8995369e-07
-8.5243542e-09
5.9123717e-07
-9.9979245e-09
5.9284101e-07
-1.1498978e-08
5.9481845e-07
-1.3028721e-08
5.9724055e-07
-1.4587103e-08
6.0020181e-07
-1.6172848e-08
6.0382581e-07
-1.7797633e-08
6.0831036e-07
-1.9545519e-08
6.1425712e-07
-2.154679e-08
6.2342707e-07
-2.3218791e-08
6.367669e-07
-2.1869212e-08
6.4084295e-07
-1.4408813e-08
5.8868431e-07
-3.8194551e-09
4.2070881e-07
1.4607655e-07
2.6576196e-09
1.1675756e-07
1.2612155e-08
3.6448694e-07
2.2366528e-08
5.6122919e-07
2.5722463e-08
6.4581366e-07
2.4491529e-08
6.5123962e-07
2.2299663e-08
6.3512119e-07
2.0415795e-08
6.2252697e-07
1.876032e-08
6.1482218e-07
1.7171711e-08
6.0937174e-07
1.5610978e-08
6.0503083e-07
1.4077041e-08
6.0147988e-07
1.2570418e-08
5.985656e-07
1.1090365e-08
5.9617112e-07
9.6355787e-09
5.9420743e-07
8.2042373e-09
5.9260818e-07
6.7939778e-09
5.9132364e-07
5.4019389e-09
5.9031648e-07
4.0248454e-09
5.8955898e-07
2.6591062e-09
5.8903118e-07
1.3009155e-09
5.8871969e-07
-5.3649288e-11
5.8861691e-07
-1.4085203e-09
5.8872057e-07
-2.7675547e-09
5.8903377e-07
-4.1344179e-09
5.89565e-07
-5.5124859e-09
5.9032867e-07
-6.9047332e-09
5.9134593e-07
-8.3136227e-09
5.9264606e-07
-9.7410101e-09
5.942684e-07
-1.118808e-08
5.9626552e-07
-1.2655281e-08
5.9870775e-07
-1.4142005e-08
6.0168854e-07
-1.5647492e-08
6.053313e-07
-1.7188147e-08
6.0985101e-07
-1.8852254e-08
6.1592123e-07
-2.0726046e-08
6.2530087e-07
-2.2104178e-08
6.3814503e-07
-2.0367235e-08
6.39106e-07
-1.2994294e-08
5.8131137e-07
-3.2932729e-09
4.1100779e-07
1.4278328e-07
2.4096444e-09
1.1434894e-07
1.1476549e-08
3.5542222e-07
2.0896713e-08
5.5181091e-07
2.459198e-08
6.4211911e-07
2.3720322e-08
6.5211125e-07
2.1673416e-08
6.3716797e-07
1.9852553e-08
6.243478e-07
1.8262922e-08
6.1641181e-07
1.674544e-08
6.1088922e-07
1.5252186e-08
6.0652409e-07
1.3779433e-08
6.0295263e-07
1.2327533e-08
6.000175e-07
1.0895967e-08
5.9760269e-07
9.4838383e-09
5.9561956e-07
8.0899055e-09
5.9400211e-07
6.7125102e-09
5.9270104e-07
5.3495762e-09
5.9167942e-07
3.9986629e-09
5.9090989e-07
2.6570429e-09
5.903728e-07
1.3217907e-09
5.9005494e-07
-1.0126755e-11
5.8994882e-07
-1.3417595e-09
5.900522e-07
-2.676066e-09
5.9036808e-07
-4.0158288e-09
5.9090476e-07
-5.363555e-09
5.9167639e-07
-6.7213769e-09
5.9270376e-07
-8.0909655e-09
5.9401564e-07
-9.4734665e-09
5.956509e-07
-1.086948e-08
5.9766153e-07
-1.227903e-08
6.001173e-07
-1.3701353e-08
6.0311086e-07
-1.5136795e-08
6.0676674e-07
-1.6606681e-08
6.113209e-07
-1.8200502e-08
6.1751505e-07
-1.9956837e-08
6.270572e-07
-2.1067314e-08
6.3925551e-07
-1.9017137e-08
6.3705583e-07
-1.1790818e-08
5.7408505e-07
-2.8925338e-09
4.021095e-07
1.3989074e-07
2.2149348e-09
1.121352e-07
1.0504561e-08
3.4713515e-07
1.9570158e-08
5.4274758e-07
2.3531612e-08
6.381586e-07
2.2990399e-08
6.5265247e-07
2.108578e-08
6.3907244e-07
1.9320437e-08
6.2611308e-07
1.7785108e-08
6.1794713e-07
1.6328767e-08
6.1234556e-07
1.4895444e-08
6.0795741e-07
1.3478295e-08
6.0436978e-07
1.2077209e-08
6.0141858e-07
1.069169e-08
5.9898821e-07
9.321037e-09
5.9699021e-07
7.9643778e-09
5.9535877e-07
6.620558e-09
5.9404485e-07
5.2881004e-09
5.9301187e-07
3.9652277e-09
5.9223277e-07
2.6499174e-09
5.9168811e-07
1.3399737e-09
5.9136489e-07
3.3108517e-11
5.9125569e-07
-1.2729743e-09
5.9135829e-07
-2.5804941e-09
5.916756e-07
-3.8915043e-09
5.9221577e-07
-5.2078085e-09
5.929927e-07
-6.5308809e-09
5.9402683e-07
-7.8618034e-09
5.9534657e-07
-9.2012342e-09
5.9699033e-07
-1.0549425e-08
5.9900972e-07
-1.1906227e-08
6.014741e-07
-1.3271016e-08
6.0447565e-07
-1.4645667e-08
6.0814139e-07
-1.6056243e-08
6.1273147e-07
-1.7590369e-08
6.1904918e-07
-1.9237094e-08
6.2870392e-07
-2.0104031e-08
6.4012244e-07
-1.7802573e-08
6.3475437e-07
-1.0762464e-08
5.6704494e-07
-2.5847843e-09
3.9393182e-07
1.3730596e-07
2.056005e-09
1.1008059e-07
9.6640561e-09
3.3953008e-07
1.8367258e-08
5.3404709e-07
2.2534396e-08
6.3399267e-07
2.2296811e-08
6.5289014e-07
2.0532931e-08
6.4083615e-07
1.8818531e-08
6.2782741e-07
1.7328412e-08
6.1943724e-07
1.592471e-08
6.1374927e-07
1.4544659e-08
6.0933746e-07
1.3178007e-08
6.0573643e-07
1.1823967e-08
6.0277262e-07
1.0481931e-08
6.0033024e-07
9.1512498e-09
5.9832089e-07
7.8312623e-09
5.9667876e-07
6.5211597e-09
5.9535496e-07
5.2199096e-09
5.9431312e-07
3.9262506e-09
5.9352642e-07
2.6387249e-09
5.9297564e-07
1.3557316e-09
5.9264788e-07
7.5596696e-11
5.9253582e-07
-1.2033629e-09
5.9263724e-07
-2.4827531e-09
5.9295499e-07
-3.7640399e-09
5.9349706e-07
-5.048472e-09
5.9427713e-07
-6.3370241e-09
5.9531538e-07
-7.6303566e-09
5.966399e-07
-8.9288157e-09
5.9828879e-07
-1.0232484e-08
6.0031339e-07
-1.1541212e-08
6.0278283e-07
-1.2854736e-08
6.0578917e-07
-1.4176726e-08
6.0946338e-07
-1.5537525e-08
6.1409227e-07
-1.7019933e-08
6.2053159e-07
-1.8563046e-08
6.3024704e-07
-1.9208282e-08
6.4076768e-07
-1.670693e-08
6.3225302e-07
-9.8781199e-09
5.6021613e-07
-2.3449117e-09
3.8639862e-07
1.3496105e-07
1.9211823e-09
1.0816103e-07
8.9298847e-09
3.3252484e-07
1.727123e-08
5.2570897e-07
2.1593773e-08
6.2967166e-07
2.163484e-08
6.5284924e-07
2.0010735e-08
6.4246007e-07
1.8344945e-08
6.2949311e-07
1.6893083e-08
6.2088909e-07
1.5534905e-08
6.1510745e-07
1.420235e-08
6.1067002e-07
1.2881631e-08
6.0705715e-07
1.1571123e-08
6.0408313e-07
1.0270023e-08
6.0163134e-07
8.9776415e-09
5.9961328e-07
7.6934139e-09
5.9796298e-07
6.4167545e-09
5.9663162e-07
5.1469515e-09
5.9558293e-07
3.8831353e-09
5.9479024e-07
2.6242908e-09
5.9423448e-07
1.369293e-09
5.9390288e-07
1.1696092e-10
5.9378815e-07
-1.1338897e-09
5.9388809e-07
-2.3843766e-09
5.9420547e-07
-3.6354995e-09
5.9474818e-07
-4.8880807e-09
5.9552971e-07
-6.142727e-09
5.9657003e-07
-7.3998124e-09
5.9789698e-07
-8.6595053e-09
5.9954848e-07
-9.9218464e-09
6.0157573e-07
-1.1186807e-08
6.0404779e-07
-1.2454629e-08
6.07057e-07
-1.3730933e-08
6.1073968e-07
-1.5049662e-08
6.15411e-07
-1.6486078e-08
6.21968e-07
-1.7930091e-08
6.3169105e-07
-1.8373248e-08
6.4121084e-07
-1.5714516e-08
6.2959428e-07
-9.1116119e-09
5.5361323e-07
-2.1539422e-09
3.7944095e-07
1.328071e-07
1.8029234e-09
1.0635998e-07
8.2825311e-09
3.2604925e-07
1.6267988e-08
5.1772731e-07
2.0703919e-08
6.2523763e-07
2.1000287e-08
6.5255316e-07
1.9515151e-08
6.4394501e-07
1.7897296e-08
6.3111085e-07
1.6478541e-08
6.2230783e-07
1.5160014e-08
6.1642598e-07
1.3870004e-08
6.1196003e-07
1.2591204e-08
6.0833595e-07
1.1321028e-08
6.0535331e-07
1.0058428e-08
6.0289394e-07
8.8026151e-09
6.0086909e-07
7.553045e-09
5.9921255e-07
6.3092632e-09
5.978754e-07
5.0707793e-09
5.9682141e-07
3.8370136e-09
5.9602401e-07
2.6072904e-09
5.954642e-07
1.3808568e-09
5.9512931e-07
1.5692085e-10
5.9501209e-07
-1.0653061e-09
5.9511032e-07
-2.2865599e-09
5.9542673e-07
-3.5074801e-09
5.959691e-07
-4.7285704e-09
5.967508e-07
-5.950177e-09
5.9779163e-07
-7.1724927e-09
5.991193e-07
-8.3956077e-09
6.0077159e-07
-9.6196076e-09
6.0279973e-07
-1.084466e-08
6.0527284e-07
-1.2071616e-08
6.0828395e-07
-1.3308085e-08
6.1197615e-07
-1.4590805e-08
6.1669372e-07
-1.5985091e-08
6.2336229e-07
-1.733338e-08
6.3303934e-07
-1.759208e-08
6.4146954e-07
-1.4811184e-08
6.2681339e-07
-8.4413732e-09
5.4724342e-07
-1.9978737e-09
3.7299745e-07
1.3080923e-07
1.6965057e-09
1.0466564e-07
7.7068911e-09
3.2004352e-07
1.5345837e-08
5.1009283e-07
1.9859833e-08
6.2072598e-07
2.0389578e-08
6.5202386e-07
1.9042449e-08
6.4529194e-07
1.7473017e-08
6.3268014e-07
1.6083705e-08
6.2369711e-07
1.4800037e-08
6.1770965e-07
1.3548366e-08
6.132117e-07
1.2307993e-08
6.0957632e-07
1.1075281e-08
6.0658602e-07
9.8489052e-09
6.0412032e-07
8.6279475e-09
6.0209005e-07
7.4118316e-09
6.0042867e-07
6.200167e-09
5.9908706e-07
4.9926081e-09
5.9802897e-07
3.7887828e-09
5.9722783e-07
2.5882684e-09
5.9666472e-07
1.3905969e-09
5.9632698e-07
1.9527644e-10
5.9620741e-07
-9.9817667e-10
5.9630377e-07
-2.1902051e-09
5.9661875e-07
-3.3811781e-09
5.9716007e-07
-4.5713692e-09
5.9794099e-07
-5.7609497e-09
5.9898121e-07
-6.9500114e-09
6.0030836e-07
-8.1386366e-09
6.0196022e-07
-9.3270116e-09
6.039881e-07
-1.0515546e-08
6.0646137e-07
-1.1705758e-08
6.0947416e-07
-1.2907215e-08
6.1317761e-07
-1.4158546e-08
6.1794505e-07
-1.5513074e-08
6.2471681e-07
-1.676821e-08
6.3429447e-07
-1.6858333e-08
6.4155966e-07
-1.3984579e-08
6.2393963e-07
-7.8499099e-09
5.4110875e-07
-1.8666006e-09
3.6701414e-07
1.2894263e-07
1.5990572e-09
1.030691e-07
7.1912374e-09
3.1445671e-07
1.4495079e-08
5.0279422e-07
1.9057296e-08
6.1616664e-07
1.9799756e-08
6.5128203e-07
1.8589314e-08
6.4650218e-07
1.7069548e-08
6.3419973e-07
1.5707214e-08
6.250594e-07
1.4454534e-08
6.1896233e-07
1.3237648e-08
6.1442859e-07
1.203269e-08
6.1078128e-07
1.08349e-08
6.0778381e-07
9.6426607e-09
6.0531256e-07
8.4549103e-09
6.032778e-07
7.2710085e-09
6.0161257e-07
6.0905812e-09
6.0026749e-07
4.913369e-09
5.9920618e-07
3.7391415e-09
5.9840206e-07
2.5676595e-09
5.978362e-07
1.3986661e-09
5.9749597e-07
2.3189558e-10
5.9737418e-07
-9.3290704e-10
5.9746858e-07
-2.0959655e-09
5.9778181e-07
-3.257453e-09
5.9832156e-07
-4.4174841e-09
5.9910102e-07
-5.5761216e-09
6.0013985e-07
-6.7334154e-09
6.0146565e-07
-7.8894879e-09
6.0311629e-07
-9.0446576e-09
6.0514327e-07
-1.01996e-08
6.0761632e-07
-1.1356533e-08
6.1063109e-07
-1.2526877e-08
6.1434795e-07
-1.3750219e-08
6.1916839e-07
-1.5066213e-08
6.2603281e-07
-1.6230238e-08
6.354585e-07
-1.6166201e-08
6.4149562e-07
-1.3224126e-08
6.2099756e-07
-7.3231874e-09
5.3520781e-07
-1.7529832e-09
3.6144393e-07
1.2718965e-07
1.5088672e-09
1.0156313e-07
6.7263881e-09
3.0924539e-07
1.3707639e-08
4.9581906e-07
1.8292761e-08
6.1158498e-07
1.9228422e-08
6.5034723e-07
1.8152858e-08
6.4757756e-07
1.6684449e-08
6.3566793e-07
1.5347579e-08
6.2639622e-07
1.4122793e-08
6.2018712e-07
1.2937696e-08
6.1561369e-07
1.1765562e-08
6.1195341e-07
1.0600463e-08
6.0894891e-07