/*--------------------------------*- C++ -*----------------------------------*\
  =========                 |
  \\      /  F ield         | OpenFOAM: The Open Source CFD Toolbox
   \\    /   O peration     | Website:  https://openfoam.org
    \\  /    A nd           | Version:  10
     \\/     M anipulation  |
\*---------------------------------------------------------------------------*/
FoamFile
{
    format      ascii;
    class       surfaceScalarField;
    location    "0.17";
    object      phi_0;
}
// * * * * * * * * * * * * * * * * * * * * * * * * * * * * * * * * * * * * * //

dimensions      [1 0 -1 0 0 0 0];

internalField   nonuniform List<scalar> 
7860
(
3.9895406e-08
5.2881262e-07
1.2192295e-08
5.964109e-07
7.427468e-09
5.7347257e-07
5.4989336e-09
5.7063623e-07
4.1145039e-09
5.700921e-07
3.2006645e-09
5.6962148e-07
2.5586974e-09
5.6934959e-07
2.0789094e-09
5.691874e-07
1.708971e-09
5.6907754e-07
1.4163574e-09
5.6900021e-07
1.1792721e-09
5.6894467e-07
9.8295114e-10
5.689039e-07
8.1704998e-10
5.6887347e-07
6.7407738e-10
5.6885054e-07
5.48459e-10
5.6883318e-07
4.3593315e-10
5.6882009e-07
3.3314507e-10
5.6881035e-07
2.3736628e-10
5.6880333e-07
1.4629269e-10
5.6879863e-07
5.7892001e-11
5.6879595e-07
-2.9719777e-11
5.6879517e-07
-1.1838592e-10
5.6879622e-07
-2.1001416e-10
5.6879918e-07
-3.0668324e-10
5.6880422e-07
-4.1077514e-10
5.6881165e-07
-5.2513812e-10
5.6882192e-07
-6.5330748e-10
5.6883573e-07
-7.9981838e-10
5.6885408e-07
-9.7066648e-10
5.6887842e-07
-1.1740147e-09
5.6891092e-07
-1.421366e-09
5.6895493e-07
-1.729534e-09
5.6901576e-07
-2.1234994e-09
5.6910157e-07
-2.6431465e-09
5.6922726e-07
-3.3708903e-09
5.6943537e-07
-4.462299e-09
5.6979905e-07
-6.0078369e-09
5.7025321e-07
-9.5069733e-09
5.7220684e-07
-2.9574588e-08
5.8877536e-07
5.3913333e-07
5.9671143e-08
4.6914149e-07
3.6664372e-08
6.1941767e-07
2.262663e-08
5.8751031e-07
1.6251974e-08
5.7701089e-07
1.2288898e-08
5.7405517e-07
9.604689e-09
5.7230569e-07
7.6759958e-09
5.7127829e-07
6.2347793e-09
5.7062862e-07
5.1254389e-09
5.7018688e-07
4.2478985e-09
5.6987775e-07
3.5368202e-09
5.6965575e-07
2.9480321e-09
5.6949269e-07
2.4504853e-09
5.6937102e-07
2.0217013e-09
5.6927932e-07
1.6449618e-09
5.6920992e-07
1.307486e-09
5.6915756e-07
9.992127e-10
5.6911862e-07
7.1195986e-10
5.6909059e-07
4.3881776e-10
5.6907177e-07
1.7369084e-10
5.6906108e-07
-8.9071337e-11
5.6905793e-07
-3.5499614e-10
5.6906214e-07
-6.2979983e-10
5.6907399e-07
-9.197191e-10
5.6909414e-07
-1.2318974e-09
5.6912383e-07
-1.5748761e-09
5.691649e-07
-1.959257e-09
5.6922011e-07
-2.3986409e-09
5.6929346e-07
-2.9110155e-09
5.6939079e-07
-3.5208783e-09
5.6952079e-07
-4.2626536e-09
5.6969671e-07
-5.1867127e-09
5.6993982e-07
-6.3696873e-09
5.7028454e-07
-7.9303046e-09
5.7078788e-07
-1.0071796e-08
5.7157686e-07
-1.3200309e-08
5.7292757e-07
-1.8130629e-08
5.7518353e-07
-2.8173057e-08
5.8224927e-07
-4.5799614e-08
6.0640192e-07
4.9333372e-07
6.0006739e-08
4.0913477e-07
5.0484273e-08
6.2894014e-07
3.3367834e-08
6.0462674e-07
2.4814828e-08
5.8556389e-07
1.9320395e-08
5.7954961e-07
1.5328736e-08
5.7629735e-07
1.2358128e-08
5.742489e-07
1.0099208e-08
5.7288754e-07
8.3385938e-09
5.7194749e-07
6.9331586e-09
5.7128318e-07
5.7868185e-09
5.7080209e-07
4.8328027e-09
5.704467e-07
4.0233409e-09
5.7018048e-07
3.3234418e-09
5.6997922e-07
2.7068357e-09
5.6982653e-07
2.1532839e-09
5.6971111e-07
1.6467547e-09
5.6962515e-07
1.174142e-09
5.695632e-07
7.2433195e-10
5.6952158e-07
2.8748941e-10
5.6949792e-07
-1.4551926e-10
5.6949094e-07
-5.8363206e-10
5.6950026e-07
-1.0360848e-09
5.6952644e-07
-1.5129313e-09
5.6957099e-07
-2.0256458e-09
5.6963654e-07
-2.587883e-09
5.6972714e-07
-3.2164892e-09
5.6984872e-07
-3.9329138e-09
5.7000988e-07
-4.765259e-09
5.7022314e-07
-5.7513437e-09
5.7050687e-07
-6.9433622e-09
5.7088873e-07
-8.4155223e-09
5.7141198e-07
-1.0277234e-08
5.7214625e-07
-1.2690383e-08
5.7320102e-07
-1.5888146e-08
5.7477463e-07
-2.0232441e-08
5.7727186e-07
-2.6701291e-08
5.8165238e-07
-3.8940966e-08
5.9448894e-07
-4.8162072e-08
6.1562303e-07
4.4517164e-07
5.4876343e-08
3.5425847e-07
5.7447591e-08
6.263689e-07
4.046309e-08
6.2161123e-07
3.0774428e-08
5.9525255e-07
2.4638735e-08
5.856853e-07
1.9948107e-08
5.8098798e-07
1.6309001e-08
5.77888e-07
1.3462946e-08
5.7573359e-07
1.1197819e-08
5.7421262e-07
9.3619082e-09
5.7311909e-07
7.8473207e-09
5.7231667e-07
6.5755609e-09
5.7171846e-07
5.4887745e-09
5.7126727e-07
4.5436407e-09
5.7092436e-07
3.7070565e-09
5.7066311e-07
2.9531558e-09
5.7046501e-07
2.2612121e-09
5.7031709e-07
1.6141209e-09
5.7021029e-07
9.9726755e-10
5.7013843e-07
3.976477e-10
5.7009754e-07
-1.968559e-10
5.7008544e-07
-7.9811362e-10
5.7010151e-07
-1.41837e-09
5.7014669e-07
-2.070898e-09
5.7022352e-07
-2.7707502e-09
5.7033639e-07
-3.5356857e-09
5.7049207e-07
-4.3873784e-09
5.7070041e-07
-5.3530493e-09
5.7097556e-07
-6.4677471e-09
5.7133784e-07
-7.7776093e-09
5.7181673e-07
-9.3444284e-09
5.7245555e-07
-1.1252039e-08
5.7331959e-07
-1.3616719e-08
5.7451093e-07
-1.6599831e-08
5.7618414e-07
-2.039918e-08
5.7857397e-07
-2.5281452e-08
5.8215413e-07
-3.2506219e-08
5.8887715e-07
-4.5090077e-08
6.070728e-07
-4.6542268e-08
6.1707522e-07
3.9862938e-07
4.7962541e-08
3.0629599e-07
6.0070229e-08
6.1426124e-07
4.5393708e-08
6.3628774e-07
3.486925e-08
6.0577701e-07
2.8393833e-08
5.9216072e-07
2.3413764e-08
5.8596805e-07
1.9428774e-08
5.8187299e-07
1.6224106e-08
5.7893826e-07
1.3615232e-08
5.7682149e-07
1.1462737e-08
5.7527159e-07
9.6614851e-09
5.7411793e-07
8.1314264e-09
5.7324852e-07
6.8115271e-09
5.7258717e-07
5.6547643e-09
5.7208112e-07
4.6243514e-09
5.7169352e-07
3.6909903e-09
5.7139837e-07
2.8308305e-09
5.7117725e-07
2.0239302e-09
5.7101719e-07
1.2530719e-09
5.7090929e-07
5.0281736e-10
5.708478e-07
-2.4128538e-10
5.7082954e-07
-9.9341212e-10
5.7085364e-07
-1.7681527e-09
5.7092143e-07
-2.5812336e-09
5.710366e-07
-3.4503338e-09
5.7120549e-07
-4.3960688e-09
5.7143781e-07
-5.4432305e-09
5.7174757e-07
-6.6223968e-09
5.7215472e-07
-7.972058e-09
5.726875e-07
-9.5414915e-09
5.7338617e-07
-1.1394537e-08
5.7430859e-07
-1.3614021e-08
5.7553907e-07
-1.6308263e-08
5.7720517e-07
-1.9620887e-08
5.7949676e-07
-2.3722198e-08
5.8267529e-07
-2.8915041e-08
5.8734698e-07
-3.6775589e-08
5.9673769e-07
-4.8448826e-08
6.1874603e-07
-4.3185353e-08
6.1181174e-07
3.5544402e-07
4.0332375e-08
2.6596371e-07
5.8986036e-08
5.9560765e-07
4.8321331e-08
6.4695243e-07
3.7579871e-08
6.1651845e-07
3.0920907e-08
5.9881968e-07
2.5886262e-08
5.9100269e-07
2.1772705e-08
5.8598655e-07
1.8385372e-08
5.8232559e-07
1.5571589e-08
5.7963528e-07
1.3209296e-08
5.7763388e-07
1.1202543e-08
5.7612468e-07
9.4760247e-09
5.7497504e-07
7.9705865e-09
5.740926e-07
6.6393106e-09
5.7341239e-07
5.4445558e-09
5.7288828e-07
4.35569e-09
5.7248724e-07
3.3473101e-09
5.7218563e-07
2.3978426e-09
5.7196666e-07
1.4884262e-09
5.7181871e-07
6.0199055e-10
5.7173423e-07
-2.7753371e-10
5.7170906e-07
-1.1659323e-09
5.7174204e-07
-2.0794102e-09
5.7183491e-07
-3.0353194e-09
5.7199251e-07
-4.0529654e-09
5.7222314e-07
-5.154553e-09
5.7253939e-07
-6.3663381e-09
5.7295936e-07
-7.7200621e-09
5.7350844e-07
-9.2547498e-09
5.7422218e-07
-1.1019017e-08
5.7515043e-07
-1.3074104e-08
5.7636368e-07
-1.5497294e-08
5.7796226e-07
-1.8386008e-08
5.8009389e-07
-2.1864448e-08
5.829752e-07
-2.6088438e-08
5.8689928e-07
-3.1467268e-08
5.9272581e-07
-3.9633575e-08
6.04904e-07
-4.9152868e-08
6.2826533e-07
-3.8567854e-08
6.0122673e-07
3.1687617e-07
3.2858602e-08
2.3310523e-07
5.5240121e-08
5.7322625e-07
4.9220783e-08
6.5297177e-07
3.9050742e-08
6.2668847e-07
3.2420331e-08
6.0545009e-07
2.7508785e-08
5.9591424e-07
2.3429287e-08
5.9006605e-07
1.9994275e-08
5.857606e-07
1.7087176e-08
5.8254238e-07
1.4605751e-08
5.801153e-07
1.24662e-08
5.7826423e-07
1.0601257e-08
5.7683998e-07
8.9566654e-09
5.7573719e-07
7.4882163e-09
5.7488084e-07
6.1595625e-09
5.7421693e-07
4.9404605e-09
5.7370634e-07
3.8053269e-09
5.7332076e-07
2.7320628e-09
5.7303992e-07
1.7010764e-09
5.7284969e-07
6.9445325e-10
5.7274086e-07
-3.0477691e-10
5.7270829e-07
-1.3133136e-09
5.7275058e-07
-2.3482519e-09
5.7286985e-07
-3.4277654e-09
5.7307202e-07
-4.571848e-09
5.7336722e-07
-5.8031611e-09
5.7377071e-07
-7.1480303e-09
5.7430423e-07
-8.6376466e-09
5.7499806e-07
-1.0309516e-08
5.7589405e-07
-1.2209236e-08
5.7705015e-07
-1.4392883e-08
5.7854732e-07
-1.6929907e-08
5.8049928e-07
-1.9905173e-08
5.8306915e-07
-2.3419494e-08
5.8648952e-07
-2.7614305e-08
5.9109409e-07
-3.300758e-08
5.9811908e-07
-4.0983606e-08
6.1288003e-07
-4.7663516e-08
6.3494524e-07
-3.3363882e-08
5.869271e-07
2.8351229e-07
2.6184473e-08
2.069209e-07
5.0120878e-08
5.4929002e-07
4.8479024e-08
6.5461365e-07
3.9477221e-08
6.3569025e-07
3.3064346e-08
6.1186295e-07
2.8399427e-08
6.0057916e-07
2.4481014e-08
5.9398446e-07
2.1107314e-08
5.891343e-07
1.8197419e-08
5.8545227e-07
1.5672083e-08
5.8264064e-07
1.3462154e-08
5.8047416e-07
1.1510433e-08
5.787917e-07
9.7693881e-09
5.7747824e-07
8.199208e-09
5.7645102e-07
6.7663411e-09
5.756498e-07
5.4422211e-09
5.7503046e-07
4.2021792e-09
5.745608e-07
3.0245211e-09
5.7421758e-07
1.8897289e-09
5.7398448e-07
7.7975843e-10
5.7385083e-07
-3.2259734e-10
5.7381065e-07
-1.4343039e-09
5.7386228e-07
-2.5726783e-09
5.7400822e-07
-3.7559917e-09
5.7425533e-07
-5.0041121e-09
5.7461534e-07
-6.3392189e-09
5.7510581e-07
-7.7866158e-09
5.7575162e-07
-9.3756771e-09
5.7658712e-07
-1.1140956e-08
5.7765933e-07
-1.3123453e-08
5.7903265e-07
-1.5372264e-08
5.8079613e-07
-1.7946699e-08
5.8307372e-07
-2.0916242e-08
5.8603869e-07
-2.4356127e-08
5.8992941e-07
-2.8401832e-08
5.9513979e-07
-3.3657919e-08
6.0337517e-07
-4.1028805e-08
6.2025091e-07
-4.4768127e-08
6.3868456e-07
-2.8190718e-08
5.7034969e-07
2.5532157e-07
2.0565928e-08
1.8635516e-07
4.4569314e-08
5.2528688e-07
4.6624914e-08
6.5255811e-07
3.9135749e-08
6.4317938e-07
3.3067437e-08
6.1793125e-07
2.8701945e-08
6.0494465e-07
2.5023349e-08
5.9766305e-07
2.1790182e-08
5.9236747e-07
1.8947102e-08
5.8829535e-07
1.6438031e-08
5.8514971e-07
1.4209451e-08
5.8270274e-07
1.221516e-08
5.8078599e-07
1.0415355e-08
5.7927804e-07
8.7756555e-09
5.7809072e-07
7.2662827e-09
5.7715917e-07
5.8612451e-09
5.764355e-07
4.537599e-09
5.7588445e-07
3.2747834e-09
5.7548039e-07
2.0540126e-09
5.7520525e-07
8.5771969e-10
5.7504712e-07
-3.3096387e-10
5.7499933e-07
-1.5287042e-09
5.7506002e-07
-2.7524621e-09
5.7523198e-07
-4.0199946e-09
5.7552287e-07
-5.3503792e-09
5.7594573e-07
-6.7645799e-09
5.7652001e-07
-8.2860641e-09
5.7727311e-07
-9.9414876e-09
5.7824254e-07
-1.1761461e-08
5.794793e-07
-1.3781345e-08
5.8105253e-07
-1.6042157e-08
5.8305695e-07
-1.8591777e-08
5.8562334e-07
-2.1483347e-08
5.8893026e-07
-2.4770932e-08
5.9321699e-07
-2.8600585e-08
5.9896944e-07
-3.3618753e-08
6.0839333e-07
-4.0102508e-08
6.2673467e-07
-4.1124766e-08
6.3970682e-07
-2.3401705e-08
5.5262662e-07
2.3191986e-07
1.6010002e-08
1.7034537e-07
3.9127819e-08
5.0216939e-07
4.4096669e-08
6.4758937e-07
3.8267992e-08
6.4900802e-07
3.2633656e-08
6.2356556e-07
2.8572326e-08
6.0900598e-07
2.5165406e-08
6.0106998e-07
2.2119196e-08
5.9541368e-07
1.9389793e-08
5.9102475e-07
1.6941109e-08
5.8759839e-07
1.4734141e-08
5.8490971e-07
1.2733268e-08
5.8278686e-07
1.0906552e-08
5.8110476e-07
9.2254445e-09
5.7977183e-07
7.664442e-09
5.7872017e-07
6.2006678e-09
5.7789927e-07
4.813445e-09
5.7727167e-07
3.4838688e-09
5.7680997e-07
2.1943861e-09
5.7649474e-07
9.2838664e-10
5.7631312e-07
-3.3019347e-10
5.7625791e-07
-1.5972586e-09
5.7632709e-07
-2.8889456e-09
5.7652367e-07
-4.2220139e-09
5.7685593e-07
-5.6142452e-09
5.7733796e-07
-7.0848579e-09
5.7799063e-07
-8.6549341e-09
5.7884318e-07
-1.0347858e-08
5.7993547e-07
-1.2189771e-08
5.8132122e-07
-1.4209993e-08
5.8307275e-07
-1.6441382e-08
5.8528834e-07
-1.8920724e-08
5.8810268e-07
-2.1686202e-08
5.9169574e-07
-2.4778331e-08
5.9630912e-07
-2.8365673e-08
6.0255679e-07
-3.3074384e-08
6.1310204e-07
-3.8499639e-08
6.3215992e-07
-3.7175887e-08
6.3838306e-07
-1.9166181e-08
5.3461692e-07
2.1275368e-07
1.2417711e-08
1.579279e-07
3.4095447e-08
4.8049208e-07
4.1223459e-08
6.4046153e-07
3.7052047e-08
6.5317941e-07
3.1917051e-08
6.2870052e-07
2.8145218e-08
6.127778e-07
2.5010749e-08
6.0420444e-07
2.217154e-08
5.9825289e-07
1.9582535e-08
5.9361376e-07
1.7223113e-08
5.8995781e-07
1.5066613e-08
5.8706621e-07
1.3086692e-08
5.8476678e-07
1.1258684e-08
5.8293277e-07
9.5597013e-09
5.8147081e-07
7.9685932e-09
5.8031128e-07
6.4658131e-09
5.7940205e-07
5.0332407e-09
5.7870424e-07
3.6539546e-09
5.7818926e-07
2.3119759e-09
5.7783672e-07
9.9199889e-10
5.7763309e-07
-3.2088682e-10
5.775708e-07
-1.6414745e-09
5.7764767e-07
-2.9847265e-09
5.7786692e-07
-4.3660551e-09
5.7823726e-07
-5.8016005e-09
5.787735e-07
-7.3085046e-09
5.7949753e-07
-8.9051703e-09
5.8043985e-07
-1.0611493e-08
5.8164179e-07
-1.244907e-08
5.8315879e-07
-1.4441362e-08
5.8506504e-07
-1.661372e-08
5.8746069e-07
-1.8993073e-08
5.9048203e-07
-2.1604971e-08
5.9430764e-07
-2.4483618e-08
5.9918777e-07
-2.7823049e-08
6.0589622e-07
-3.2167434e-08
6.1744643e-07
-3.6462298e-08
6.3645478e-07
-3.3222698e-08
6.3514346e-07
-1.5545758e-08
5.1693998e-07
1.9720792e-07
9.6504226e-09
1.4827776e-07
2.9624467e-08
4.6051857e-07
3.8251887e-08
6.3183438e-07
3.5626017e-08
6.5580526e-07
3.1028713e-08
6.3329778e-07
2.7524902e-08
6.1628161e-07
2.4645874e-08
6.0708347e-07
2.2015919e-08
6.0088284e-07
1.9579133e-08
5.9605054e-07
1.7325502e-08
5.9221145e-07
1.5238377e-08
5.8915333e-07
1.3299146e-08
5.8670601e-07
1.1489438e-08
5.8474248e-07
9.7914892e-09
5.8316876e-07
8.1882575e-09
5.8191451e-07
6.6634811e-09
5.8092683e-07
5.2016731e-09
5.8016605e-07
3.7880465e-09
5.7960288e-07
2.4083933e-09
5.7921637e-07
1.0489336e-09
5.7899255e-07
-3.0385552e-10
5.7892359e-07
-1.6634181e-09
5.7900724e-07
-3.0433079e-09
5.7924681e-07
-4.4573678e-09
5.7965132e-07
-5.9199003e-09
5.8023603e-07
-7.4458193e-09
5.8102345e-07
-9.0507732e-09
5.820448e-07
-1.075122e-08
5.8334224e-07
-1.2564458e-08
5.8497203e-07
-1.4508613e-08
5.870092e-07
-1.6602471e-08
5.8955455e-07
-1.8864554e-08
5.9274412e-07
-2.1310436e-08
5.9675352e-07
-2.3974206e-08
6.0185154e-07
-2.707146e-08
6.0899347e-07
-3.1015985e-08
6.2139095e-07
-3.4194554e-08
6.3963335e-07
-2.9470259e-08
6.3041917e-07
-1.2535741e-08
5.0000546e-07
1.8467218e-07
7.559305e-09
1.407188e-07
2.5762504e-08
4.4231603e-07
3.535276e-08
6.2224449e-07
3.4099685e-08
6.5705834e-07
3.0051536e-08
6.3734587e-07
2.6791272e-08
6.1954185e-07
2.4140378e-08
6.0973437e-07
2.1710036e-08
6.0331319e-07
1.9426796e-08
5.9833378e-07
1.7286264e-08
5.9435198e-07
1.5279518e-08
5.9116008e-07
1.3394138e-08
5.8859139e-07
1.161697e-08
5.8651964e-07
9.9346554e-09
5.8485107e-07
8.3338342e-09
5.8351533e-07
6.8013057e-09
5.8245936e-07
5.3241329e-09
5.8164323e-07
3.889674e-09
5.8103734e-07
2.4855635e-09
5.8062048e-07
1.0996566e-09
5.8037846e-07
-2.800523e-10
5.803033e-07
-1.6655226e-09
5.8039271e-07
-3.0687702e-09
5.8065006e-07
-4.5019608e-09
5.8108451e-07
-5.9774893e-09
5.8171156e-07
-7.5080342e-09
5.8255399e-07
-9.106576e-09
5.8364334e-07
-1.0786363e-08
5.8502202e-07
-1.256082e-08
5.8674649e-07
-1.4443428e-08
5.8889181e-07
-1.6447421e-08
5.9155854e-07
-1.8584454e-08
5.9488115e-07
-2.08631e-08
5.9903217e-07
-2.3322417e-08
6.0431085e-07
-2.6191147e-08
6.118622e-07
-2.9721009e-08
6.2492082e-07
-3.1857971e-08
6.4177031e-07
-2.6040836e-08
6.2460203e-07
-1.0089437e-08
4.8405406e-07
1.7458274e-07
6.0037781e-09
1.3471542e-07
2.2487745e-08
4.2583288e-07
3.2627881e-08
6.1210485e-07
3.2553415e-08
6.5713286e-07
2.9045509e-08
6.408537e-07
2.6004393e-08
6.2258294e-07
2.3549506e-08
6.1218925e-07
2.1301387e-08
6.0556131e-07
1.9165642e-08
6.0046953e-07
1.7138773e-08
5.9637885e-07
1.5217353e-08
5.9308149e-07
1.339371e-08
5.9041504e-07
1.1658813e-08
5.8825454e-07
1.0002941e-08
5.8650694e-07
8.4158989e-09
5.8510237e-07
6.8872197e-09
5.8398804e-07
5.4063258e-09
5.8312412e-07
3.9626278e-09
5.8248104e-07
2.545577e-09
5.8203753e-07
1.1446809e-09
5.8177936e-07
-2.5050811e-10
5.8169848e-07
-1.6504169e-09
5.8179261e-07
-3.0654841e-09
5.8206512e-07
-4.5061838e-09
5.8252521e-07
-5.9830328e-09
5.8318841e-07
-7.5065723e-09
5.8407753e-07
-9.087311e-09
5.8522408e-07
-1.073562e-08
5.8667033e-07
-1.2461574e-08
5.8847244e-07
-1.427477e-08
5.90705e-07
-1.6183955e-08
5.9346773e-07
-1.8195494e-08
5.9689269e-07
-2.0314038e-08
6.0115071e-07
-2.2587138e-08
6.0658395e-07
-2.5245574e-08
6.1452063e-07
-2.8363003e-08
6.2803824e-07
-2.9566659e-08
6.4297397e-07
-2.2989617e-08
6.1802499e-07
-8.1383652e-09
4.6920281e-07
1.6644438e-07
4.8611345e-09
1.2985475e-07
1.9741609e-08
4.1095338e-07
3.0125462e-08
6.0172166e-07
3.103947e-08
6.5621895e-07
2.8050022e-08
6.4384306e-07
2.5206448e-08
6.2542647e-07
2.2915286e-08
6.1448041e-07
2.0827932e-08
6.0764866e-07
1.8828863e-08
6.024686e-07
1.6911509e-08
5.982962e-07
1.5075887e-08
5.9491712e-07
1.331776e-08
5.9217316e-07
1.1631201e-08
5.899411e-07
1.0009367e-08
5.8812878e-07
8.4446831e-09
5.8666706e-07
6.9290373e-09
5.8550368e-07
5.4539568e-09
5.845992e-07
4.0107425e-09
5.8392425e-07
2.5905658e-09
5.8345771e-07
1.1845324e-09
5.8318539e-07
-2.1627733e-10
5.8309929e-07
-1.6207805e-09
5.8319712e-07
-3.0378705e-09
5.8348221e-07
-4.4763872e-09
5.8396373e-07
-5.9450728e-09
5.846571e-07
-7.4525006e-09
5.8558496e-07
-9.0069727e-09
5.8677855e-07
-1.0616375e-08
5.8827974e-07
-1.2287996e-08
5.9014406e-07
-1.402833e-08
5.9244534e-07
-1.5842667e-08
5.9528206e-07
-1.7733609e-08
5.9878363e-07
-1.9704686e-08
6.0312179e-07
-2.1813655e-08
6.0869292e-07
-2.428135e-08
6.1698833e-07
-2.7000607e-08
6.307575e-07
-2.739263e-08
6.4336599e-07
-2.0325902e-08
6.1095826e-07
-6.6068509e-09
4.5548376e-07
1.5983753e-07
4.029013e-09
1.258263e-07
1.7451592e-08
3.9753197e-07
2.7859408e-08
5.9131469e-07
2.9588393e-08
6.5449015e-07
2.7088167e-08
6.463432e-07
2.4424511e-08
6.2809007e-07
2.2267755e-08
6.1663716e-07
2.0318653e-08
6.0959777e-07
1.8442945e-08
6.043443e-07
1.6628025e-08
6.0011112e-07
1.4875578e-08
5.9666956e-07
1.3183695e-08
5.9386505e-07
1.154867e-08
5.9157612e-07
9.9658382e-09
5.8971161e-07
8.4297149e-09
5.8820318e-07
6.9341506e-09
5.8699924e-07
5.4724926e-09
5.8606086e-07
4.0377291e-09
5.8535902e-07
2.6226066e-09
5.8487283e-07
1.2197242e-09
5.8458827e-07
-1.7839252e-10
5.8449741e-07
-1.5792267e-09
5.8459795e-07
-2.9902114e-09
5.848932e-07
-4.4186628e-09
5.8539218e-07
-5.8717004e-09
5.8611013e-07
-7.3561452e-09
5.8706941e-07
-8.8783924e-09
5.883008e-07
-1.0444257e-08
5.898456e-07
-1.2058797e-08
5.917586e-07
-1.372614e-08
5.9411268e-07
-1.5449047e-08
5.9700497e-07
-1.722773e-08
6.0056231e-07
-1.9066886e-08
6.0496094e-07
-2.1034549e-08
6.1066058e-07
-2.3330327e-08
6.1928411e-07
-2.5673464e-08
6.3310064e-07
-2.5375549e-08
6.4306808e-07
-1.8031095e-08
6.0361381e-07
-5.4205064e-09
4.4287317e-07
1.5441702e-07
3.4247382e-09
1.2240222e-07
1.5543855e-08
3.8541424e-07
2.5823044e-08
5.8103656e-07
2.8215513e-08
6.5209795e-07
2.6171698e-08
6.4838693e-07
2.3674347e-08
6.3058735e-07
2.162711e-08
6.1868439e-07
1.9794666e-08
6.1143021e-07
1.8028212e-08
6.0611076e-07
1.630714e-08
6.0183219e-07
1.4633324e-08
5.9834338e-07
1.3006302e-08
5.9549207e-07
1.1423862e-08
5.9315856e-07
9.882917e-09
5.9125255e-07
8.3795934e-09
5.897065e-07
6.9093275e-09
5.8846951e-07
5.466997e-09
5.8750319e-07
4.0470547e-09
5.8677896e-07
2.6436504e-09
5.8627623e-07
1.2507382e-09
5.8598118e-07
-1.3782934e-10
5.8588598e-07
-1.5282144e-09
5.8598834e-07
-2.9265116e-09
5.8629149e-07
-4.3386573e-09
5.8680432e-07
-5.7703301e-09
5.8754181e-07
-7.2268348e-09
5.8852591e-07
-8.7129691e-09
5.8978693e-07
-1.0232877e-08
5.9136551e-07
-1.1789902e-08
5.9331563e-07
-1.3386445e-08
5.9570922e-07
-1.5023537e-08
5.9864206e-07
-1.670016e-08
6.0223893e-07
-1.8423918e-08
6.066847e-07
-2.0271905e-08
6.1250857e-07
-2.2412857e-08
6.2142506e-07
-2.4406309e-08
6.3509409e-07
-2.3532155e-08
6.4219392e-07
-1.6071161e-08
5.9615281e-07
-4.5109124e-09
4.3131292e-07
1.4990611e-07
2.9836811e-09
1.1941932e-07
1.3949907e-08
3.7444966e-07
2.3998454e-08
5.7098934e-07
2.6925894e-08
6.4917091e-07
2.530488e-08
6.5000786e-07
2.2963852e-08
6.3292829e-07
2.100609e-08
6.2064213e-07
1.9270739e-08
6.1316557e-07
1.7599743e-08
6.0778176e-07
1.5963441e-08
6.0346849e-07
1.4362695e-08
5.9994412e-07
1.2797796e-08
5.9705697e-07
1.1267474e-08
5.9468889e-07
9.7697247e-09
5.927503e-07
8.3018706e-09
5.9117436e-07
6.8605945e-09
5.8991079e-07
5.4420284e-09
5.8892175e-07
4.0418662e-09
5.8817912e-07
2.6554773e-09
5.8766262e-07
1.278015e-09
5.8735864e-07
-9.5481643e-11
5.8725947e-07
-1.4699884e-09
5.8736284e-07
-2.8504059e-09
5.8767191e-07
-4.2414527e-09
5.8819537e-07
-5.6475607e-09
5.8894791e-07
-7.0727574e-09
5.8995111e-07
-8.5205391e-09
5.9123471e-07
-9.9937469e-09
5.9283872e-07
-1.1494458e-08
5.9481634e-07
-1.3023883e-08
5.9723865e-07
-1.4581974e-08
6.0020015e-07
-1.6167458e-08
6.0382442e-07
-1.7792013e-08
6.0830925e-07
-1.9539665e-08
6.1425622e-07
-2.1540657e-08
6.2342605e-07
-2.3212504e-08
6.3676594e-07
-2.1863524e-08
6.4084494e-07
-1.4405007e-08
5.8869429e-07
-3.8181676e-09
4.2072608e-07
1.4608794e-07
2.6570048e-09
1.1676323e-07
1.2609981e-08
3.6449863e-07
2.2362829e-08
5.6123811e-07
2.5718077e-08
6.4581622e-07
2.4487195e-08
6.5123868e-07
2.22956e-08
6.3511977e-07
2.0411978e-08
6.2252572e-07
1.8756734e-08
6.1482081e-07
1.716838e-08
6.0937011e-07
1.5607935e-08
6.0502894e-07
1.4074314e-08
6.0147774e-07
1.2568035e-08
5.9856324e-07
1.108835e-08
5.9616857e-07
9.6339535e-09
5.942047e-07
8.2030218e-09
5.9260529e-07
6.7931887e-09
5.9132062e-07
5.4015906e-09
5.9031335e-07
4.0249496e-09
5.8955576e-07
2.659672e-09
5.890279e-07
1.3019493e-09
5.8871637e-07
-5.2144601e-11
5.8861357e-07
-1.4065421e-09
5.8871724e-07
-2.7651058e-09
5.8903047e-07
-4.131503e-09
5.8956177e-07
-5.5091129e-09
5.9032552e-07
-6.9009131e-09
5.9134291e-07
-8.3093697e-09
5.9264317e-07
-9.7363421e-09
5.9426569e-07
-1.1183018e-08
5.9626301e-07
-1.264985e-08
5.9870548e-07
-1.4136234e-08
6.0168654e-07
-1.5641414e-08
6.053296e-07
-1.718179e-08
6.0984963e-07
-1.8845608e-08
6.1592004e-07
-2.0719064e-08
6.252995e-07
-2.209705e-08
6.3814392e-07
-2.0360857e-08
6.3910875e-07
-1.2990084e-08
5.8132352e-07
-3.2918668e-09
4.1102786e-07
1.4279607e-07
2.4089704e-09
1.1435533e-07
1.1474136e-08
3.5543574e-07
2.0892554e-08
5.5182166e-07
2.4586979e-08
6.4212255e-07
2.3715337e-08
6.5211029e-07
2.1668739e-08
6.3716624e-07
1.9848171e-08
6.2434625e-07
1.8258812e-08
6.1641017e-07
1.6741624e-08
6.108873e-07
1.5248697e-08
6.0652187e-07
1.3776304e-08
6.0295014e-07
1.2324793e-08
6.0001476e-07
1.0893643e-08
5.9759972e-07
9.4819532e-09
5.9561639e-07
8.0884807e-09
5.9399876e-07
6.7115641e-09
5.9269753e-07
5.3491244e-09
5.9167579e-07
3.9987185e-09
5.9090617e-07
2.6576159e-09
5.90369e-07
1.3228889e-09
5.9005109e-07
-8.4976761e-12
5.8994495e-07
-1.3396013e-09
5.9004834e-07
-2.6733789e-09
5.9036425e-07
-4.0126169e-09
5.90901e-07
-5.3598258e-09
5.9167273e-07
-6.7171415e-09
5.9270022e-07
-8.0862385e-09
5.9401227e-07
-9.4682661e-09
5.9564771e-07
-1.0863828e-08
5.9765857e-07
-1.2272953e-08
6.001146e-07
-1.369488e-08
6.0310846e-07
-1.5129961e-08
6.0676468e-07
-1.6599511e-08
6.1131918e-07
-1.8192977e-08
6.1751351e-07
-1.9948918e-08
6.2705544e-07
-2.1059263e-08
6.3925427e-07
-1.9010008e-08
6.370595e-07
-1.1786169e-08
5.7409968e-07
-2.8909999e-09
4.0213269e-07
1.3990507e-07
2.2141983e-09
1.1214239e-07
1.0501891e-08
3.4715072e-07
1.9565497e-08
5.4276042e-07
2.3525933e-08
6.381631e-07
2.298469e-08
6.5265155e-07
2.1080417e-08
6.3907035e-07
1.9315422e-08
6.2611118e-07
1.7780413e-08
6.1794517e-07
1.632441e-08
6.1234331e-07
1.489146e-08
6.0795482e-07
1.3474718e-08
6.0436688e-07
1.2074072e-08
6.014154e-07
1.068902e-08
5.9898477e-07
9.3188601e-09
5.9698655e-07
7.962717e-09
5.953549e-07
6.619433e-09
5.9404082e-07
5.2875282e-09
5.9300769e-07
3.9652227e-09
5.9222847e-07
2.6504906e-09
5.9168373e-07
1.341133e-09
5.9136045e-07
3.4859484e-11
5.9125123e-07
-1.2706288e-09
5.9135383e-07
-2.5775548e-09
5.9167118e-07
-3.8879755e-09
5.9221142e-07
-5.2036976e-09
5.9298845e-07
-6.5261987e-09
5.9402272e-07
-7.8565646e-09
5.9534263e-07
-9.1954571e-09
5.9698661e-07
-1.0543132e-08
5.9900625e-07
-1.1899445e-08
6.0147092e-07
-1.3263776e-08
6.0447279e-07
-1.4638003e-08
6.0813891e-07
-1.6048178e-08
6.1272936e-07
-1.7581875e-08
6.190472e-07
-1.9228141e-08
6.2870171e-07
-2.009497e-08
6.401211e-07
-1.7794628e-08
6.3475915e-07
-1.0757339e-08
5.6706239e-07
-2.5831136e-09
3.9395847e-07
1.3732196e-07
2.0552025e-09
1.1008865e-07
9.661108e-09
3.3954793e-07
1.8362053e-08
5.3406231e-07
2.2527971e-08
6.3399844e-07
2.2290297e-08
6.5288931e-07
2.0526801e-08
6.4083367e-07
1.881281e-08
6.278251e-07
1.7323066e-08
6.1943491e-07
1.5919751e-08
6.1374662e-07
1.4540124e-08
6.0933444e-07
1.3173933e-08
6.0573307e-07
1.1820388e-08
6.0276895e-07
1.0478876e-08
6.0032628e-07
9.1487471e-09
5.9831668e-07
7.8293364e-09
5.9667431e-07
6.5198319e-09
5.9535032e-07
5.2191984e-09
5.9430833e-07
3.9261714e-09
5.935215e-07
2.63929e-09
5.9297061e-07
1.3569504e-09
5.9264279e-07
7.7475838e-11
5.925307e-07
-1.2008207e-09
5.9263213e-07
-2.4795474e-09
5.929499e-07
-3.760174e-09
5.9349205e-07
-5.0439528e-09
5.9427223e-07
-6.3318621e-09
5.9531063e-07
-7.6245662e-09
5.9663534e-07
-8.9224152e-09
5.9828446e-07
-1.0225496e-08
6.0030933e-07
-1.1533664e-08
6.0277908e-07
-1.2846659e-08
6.0578579e-07
-1.4168156e-08
6.094604e-07
-1.5528478e-08
6.1408968e-07
-1.7010372e-08
6.205291e-07
-1.8552958e-08
6.3024429e-07
-1.9198117e-08
6.4076625e-07
-1.6698099e-08
6.3225914e-07
-9.8724835e-09
5.6023678e-07
-2.3430952e-09
3.8642908e-07
1.3497886e-07
1.9203108e-09
1.0817003e-07
8.9266372e-09
3.3254523e-07
1.7265432e-08
5.2572688e-07
2.1586533e-08
6.2967894e-07
2.1627435e-08
6.5284858e-07
2.0003751e-08
6.4245717e-07
1.8338439e-08
6.2949031e-07
1.6887012e-08
6.2088632e-07
1.5529279e-08
6.1510436e-07
1.4197204e-08
6.1066652e-07
1.2877005e-08
6.0705327e-07
1.1567052e-08
6.040789e-07
1.0266541e-08
6.0162679e-07
8.974776e-09
5.9960844e-07
7.6911914e-09
5.979579e-07
6.4151981e-09
5.9662632e-07
5.1460809e-09
5.9557744e-07
3.8829672e-09
5.9478461e-07
2.6248389e-09
5.9422874e-07
1.3705679e-09
5.9389706e-07
1.1896975e-10
5.937823e-07
-1.1311423e-09
5.9388224e-07
-2.3808899e-09
5.9419965e-07
-3.6312758e-09
5.9474244e-07
-4.8831261e-09
5.9552408e-07
-6.1370513e-09
5.9656456e-07
-7.3934293e-09
5.9789171e-07
-8.6524328e-09
5.9954346e-07
-9.9141069e-09
6.01571e-07
-1.1178427e-08
6.040434e-07
-1.2445642e-08
6.07053e-07
-1.3721372e-08
6.1073613e-07
-1.5039538e-08
6.1540784e-07
-1.6475345e-08
6.219649e-07
-1.7918757e-08
6.3168771e-07
-1.8361882e-08
6.4120938e-07
-1.5704727e-08
6.2960198e-07
-9.1054243e-09
5.5363747e-07
-2.1519709e-09
3.7947562e-07
1.3282689e-07
1.8019797e-09
1.0637002e-07
8.2789624e-09
3.2607245e-07
1.626155e-08
5.1774826e-07
2.0695787e-08
6.2524669e-07
2.09919e-08
6.5255277e-07
1.950722e-08
6.4394164e-07
1.7889918e-08
6.3110749e-07
1.6471668e-08
6.2230455e-07
1.515365e-08
6.1642238e-07
1.3864184e-08
6.1195599e-07
1.2585969e-08
6.0833148e-07
1.1316415e-08
6.0534845e-07
1.0054472e-08
6.0288874e-07
8.799347e-09
6.0086357e-07
7.5504922e-09
5.9920675e-07
6.3074501e-09
5.9786936e-07
5.0697271e-09
5.9681517e-07
3.8367403e-09
5.960176e-07
2.6078109e-09
5.9545767e-07
1.382183e-09
5.9512269e-07
1.5906098e-10
5.9500542e-07
-1.0623461e-09
5.9510365e-07
-2.2827782e-09
5.9542008e-07
-3.5028779e-09
5.9596254e-07
-4.7231527e-09
5.9674436e-07
-5.9439525e-09
5.9778536e-07
-7.1654744e-09
5.9911324e-07
-8.3878127e-09
6.007658e-07
-9.6110576e-09
6.0279425e-07
-1.0835382e-08
6.0526773e-07
-1.2061641e-08
6.0827926e-07
-1.3297446e-08
6.1197194e-07
-1.4579505e-08
6.166899e-07
-1.5973074e-08
6.2335847e-07
-1.7320687e-08
6.3303532e-07
-1.7579408e-08
6.414681e-07
-1.4800361e-08
6.2682293e-07
-8.4345937e-09
5.4727171e-07
-1.9957388e-09
3.7303677e-07
1.3083115e-07
1.695487e-09
1.046768e-07
7.7029783e-09
3.2006982e-07
1.5338705e-08
5.1011721e-07
1.9850729e-08
6.2073712e-07
2.038011e-08
6.5202385e-07
1.9033471e-08
6.4528807e-07
1.7464673e-08
6.3267614e-07
1.6075946e-08
6.2369325e-07
1.4792858e-08
6.1770547e-07
1.3541801e-08
6.1320705e-07
1.2302086e-08
6.095712e-07
1.107007e-08
6.0658047e-07
9.844427e-09
6.0411438e-07
8.624234e-09
6.0208376e-07
7.4089119e-09
6.0042207e-07
6.198067e-09
5.990802e-07
4.9913502e-09
5.9802188e-07
3.7883863e-09
5.9722056e-07
2.5887495e-09
5.9665731e-07
1.3919686e-09
5.9631947e-07
1.9754859e-10
5.9619984e-07
-9.9499703e-10
5.9629619e-07
-2.1861146e-09
5.966112e-07
-3.3761767e-09
5.971526e-07
-4.5654604e-09
5.9793364e-07
-5.7541409e-09
5.9897404e-07
-6.9423142e-09
6.0030141e-07
-8.1300669e-09
6.0195355e-07
-9.3175899e-09
6.0398177e-07
-1.0505298e-08
6.0645544e-07
-1.1694715e-08
6.0946868e-07
-1.2895405e-08
6.1317263e-07
-1.4145963e-08
6.1794046e-07
-1.5499655e-08
6.2471216e-07
-1.6754034e-08
6.342897e-07
-1.6844247e-08
6.4155831e-07
-1.3972641e-08
6.2395133e-07
-7.8424963e-09
5.4114156e-07
-1.8642932e-09
3.6705856e-07
1.2896686e-07
1.5979604e-09
1.0308148e-07
7.186957e-09
3.1448645e-07
1.44872e-08
5.0282243e-07
1.9047135e-08
6.1618018e-07
1.9789104e-08
6.5128254e-07
1.857918e-08
6.4649778e-07
1.7060138e-08
6.34195e-07
1.569848e-08
6.2505486e-07
1.444646e-08
6.189575e-07
1.3230266e-08
6.1442324e-07
1.2026044e-08
6.1077542e-07
1.0829032e-08
6.0777748e-07
9.6376078e-09
6.053058e-07
8.4507059e-09
6.0327066e-07
7.2676831e-09
6.016051e-07
6.0881617e-09
6.0025972e-07
4.9118792e-09
5.9919817e-07
3.738602e-09
5.9839384e-07
2.5680876e-09
5.9782782e-07
1.4000763e-09
5.9748748e-07
2.3429924e-10
5.9736562e-07
-9.2950167e-10
5.9745999e-07
-2.0915533e-09
5.9777325e-07
-3.2520322e-09
5.9831308e-07
-4.4110565e-09
5.9909266e-07
-5.5686927e-09
6.0013167e-07
-6.7249951e-09
6.0145771e-07
-7.8800901e-09
6.0310864e-07
-9.0343012e-09
6.0513598e-07
-1.0188309e-08
6.0760944e-07
-1.1344336e-08
6.106247e-07
-1.2513799e-08
6.1434209e-07
-1.3736241e-08
6.191629e-07
-1.5051267e-08
6.2602719e-07
-1.6214452e-08
6.3545288e-07
-1.6150586e-08
6.4149445e-07
-1.321099e-08
6.2101173e-07
-7.315096e-09
5.3524567e-07
-1.7504942e-09
3.6149396e-07
1.2721636e-07
1.5076898e-09
1.0157683e-07
6.721716e-09
3.092789e-07
1.3698956e-08
4.9585155e-07
1.8281455e-08
6.1160131e-07
1.9216475e-08
6.5034842e-07
1.8141453e-08
6.4757261e-07
1.6673865e-08
6.3566238e-07
1.533777e-08
6.263909e-07
1.4113735e-08
6.2018153e-07
1.2929419e-08
6.1560756e-07
1.1758108e-08
6.1194673e-07