/*--------------------------------*- C++ -*----------------------------------*\
  =========                 |
  \\      /  F ield         | OpenFOAM: The Open Source CFD Toolbox
   \\    /   O peration     | Website:  https://openfoam.org
    \\  /    A nd           | Version:  10
     \\/     M anipulation  |
\*---------------------------------------------------------------------------*/
FoamFile
{
    format      ascii;
    class       volVectorField;
    location    "0.17";
    object      U;
}
// * * * * * * * * * * * * * * * * * * * * * * * * * * * * * * * * * * * * * //

dimensions      [0 1 -1 0 0 0 0];

internalField   nonuniform List<vector> 
4000
(
(0 0.018637217 0.47773168)
(0 0.023509554 0.50886054)
(0 0.0081664488 0.50052523)
(0 0.0056142167 0.50033635)
(0 0.0042542113 0.50025746)
(0 0.0032545304 0.50016898)
(0 0.0025556973 0.50011968)
(0 0.0020542223 0.50009012)
(0 0.001676265 0.5000698)
(0 0.0013819813 0.50005538)
(0 0.0011469978 0.50004498)
(0 0.00095497472 0.50003731)
(0 0.000794657 0.50003158)
(0 0.000658068 0.50002725)
(0 0.00053937842 0.50002397)
(0 0.00043420657 0.50002149)
(0 0.00033916407 0.50001964)
(0 0.00025154794 0.50001831)
(0 0.00016912434 0.50001742)
(0 8.9970301e-05 0.50001691)
(0 1.2351337e-05 0.50001676)
(0 -6.538578e-05 0.50001696)
(0 -0.00014490455 0.50001753)
(0 -0.00022797058 0.50001848)
(0 -0.00031656266 0.50001989)
(0 -0.00041300317 0.50002184)
(0 -0.00052012982 0.50002445)
(0 -0.00064153509 0.50002792)
(0 -0.0007819141 0.50003251)
(0 -0.00094759425 0.50003863)
(0 -0.0011473866 0.50004688)
(0 -0.0013939511 0.50005824)
(0 -0.0017060361 0.50007414)
(0 -0.0021139924 0.5000971)
(0 -0.002673737 0.50013483)
(0 -0.0034673919 0.5002024)
(0 -0.0045597473 0.50027147)
(0 -0.0065840111 0.50043369)
(0 -0.017658452 0.50675392)
(0 -0.013589618 0.47975592)
(0 0.037432024 0.44797007)
(0 0.050954389 0.53232607)
(0 0.021967967 0.50804292)
(0 0.016134361 0.50357326)
(0 0.012414735 0.50242317)
(0 0.0095146223 0.50162297)
(0 0.0075193529 0.50115656)
(0 0.006068725 0.50086585)
(0 0.0049635397 0.50066791)
(0 0.0040992619 0.50052889)
(0 0.0034069382 0.5004289)
(0 0.0028396183 0.50035539)
(0 0.0023649256 0.50030048)
(0 0.0019597736 0.50025907)
(0 0.001607199 0.50022771)
(0 0.0012944036 0.50020404)
(0 0.0010114596 0.50018643)
(0 0.00075042577 0.50017376)
(0 0.00050472488 0.50016525)
(0 0.00026868408 0.50016041)
(0 3.7179679e-05 0.50015899)
(0 -0.00019467119 0.50016089)
(0 -0.00043178131 0.50016625)
(0 -0.00067936438 0.50017537)
(0 -0.00094325438 0.50018879)
(0 -0.0012302842 0.50020736)
(0 -0.0015487815 0.50023231)
(0 -0.0019092566 0.50026545)
(0 -0.0023253941 0.50030939)
(0 -0.0028155382 0.50036803)
(0 -0.0034050682 0.50044731)
(0 -0.0041303647 0.50055669)
(0 -0.0050445124 0.50071129)
(0 -0.0062273829 0.50093668)
(0 -0.0078278636 0.50129449)
(0 -0.010121769 0.5019107)
(0 -0.013103286 0.50282541)
(0 -0.017422825 0.50608138)
(0 -0.038755805 0.52526798)
(0 -0.027893142 0.45021853)
(0 0.039887281 0.40982275)
(0 0.061425819 0.54930843)
(0 0.03198125 0.52188191)
(0 0.024353232 0.51008069)
(0 0.019191268 0.5065886)
(0 0.014974841 0.50452801)
(0 0.012004526 0.50327126)
(0 0.0097698977 0.50245818)
(0 0.0080347166 0.5019008)
(0 0.0066633313 0.50150836)
(0 0.0055555161 0.5012251)
(0 0.0046417323 0.5010163)
(0 0.0038732372 0.50086011)
(0 0.0032146302 0.50074216)
(0 0.0026395721 0.50065274)
(0 0.0021280045 0.5005852)
(0 0.0016642454 0.50053492)
(0 0.0012356694 0.5004987)
(0 0.00083176398 0.50047437)
(0 0.0004434244 0.50046055)
(0 6.2403781e-05 0.50045646)
(0 -0.00031916527 0.50046191)
(0 -0.00070919752 0.50047722)
(0 -0.0011160782 0.50050327)
(0 -0.0015491587 0.50054161)
(0 -0.0020193399 0.50059461)
(0 -0.0025398266 0.50066579)
(0 -0.0031271583 0.50076021)
(0 -0.0038026716 0.50088527)
(0 -0.0045946133 0.5010519)
(0 -0.0055413455 0.50127662)
(0 -0.006696856 0.50158557)
(0 -0.0081383552 0.50202086)
(0 -0.009969944 0.50265091)
(0 -0.012364438 0.5036154)
(0 -0.01570983 0.50519968)
(0 -0.019866878 0.50785467)
(0 -0.025180553 0.51641256)
(0 -0.047411782 0.53912802)
(0 -0.030851358 0.41488562)
(0 0.034790353 0.36173438)
(0 0.063835582 0.5545646)
(0 0.039376463 0.53747121)
(0 0.030079891 0.51849276)
(0 0.02410904 0.51197735)
(0 0.019276086 0.50849932)
(0 0.015732824 0.50626396)
(0 0.012951073 0.50475501)
(0 0.01074087 0.50370386)
(0 0.0089655168 0.50295544)
(0 0.0075119757 0.50241029)
(0 0.0063005754 0.50200591)
(0 0.0052735043 0.50170203)
(0 0.0043874985 0.50147173)
(0 0.0036097342 0.50129665)
(0 0.0029148207 0.50116412)
(0 0.0022826442 0.50106528)
(0 0.0016968366 0.50099399)
(0 0.0011436496 0.50094606)
(0 0.00061109526 0.50091881)
(0 8.8264858e-05 0.50091074)
(0 -0.00043527067 0.50092147)
(0 -0.0009700011 0.50095162)
(0 -0.0015270051 0.50100289)
(0 -0.0021185707 0.50107828)
(0 -0.0027589126 0.50118238)
(0 -0.0034650787 0.50132188)
(0 -0.0042581558 0.50150648)
(0 -0.005164933 0.50175018)
(0 -0.0062201992 0.50207344)
(0 -0.0074698328 0.50250676)
(0 -0.0089760756 0.50309712)
(0 -0.010826309 0.50391924)
(0 -0.013127113 0.5050895)
(0 -0.016014142 0.50680741)
(0 -0.019890001 0.50946838)
(0 -0.024722722 0.514276)
(0 -0.031104289 0.52824738)
(0 -0.050311997 0.54407486)
(0 -0.028435368 0.3723914)
(0 0.027422884 0.3148503)
(0 0.062310504 0.55024372)
(0 0.044608908 0.55146748)
(0 0.033977023 0.52748815)
(0 0.027459081 0.51772247)
(0 0.022450266 0.51291958)
(0 0.018632102 0.50973091)
(0 0.015523766 0.50749186)
(0 0.013002276 0.50589894)
(0 0.010938793 0.5047457)
(0 0.0092219281 0.50389475)
(0 0.0077728209 0.50325761)
(0 0.0065314759 0.50277539)
(0 0.0054514582 0.50240787)
(0 0.00449671 0.50212726)
(0 0.0036387556 0.50191409)
(0 0.0028546403 0.50175469)
(0 0.0021254146 0.50163948)
(0 0.0014349733 0.5015619)
(0 0.00076914532 0.50151772)
(0 0.00011495474 0.50150463)
(0 -0.00054004016 0.50152197)
(0 -0.0012083504 0.50157073)
(0 -0.0019031341 0.50165362)
(0 -0.0026388812 0.5017753)
(0 -0.0034321837 0.50194293)
(0 -0.0043026806 0.50216692)
(0 -0.0052742695 0.50246215)
(0 -0.0063767141 0.50284987)
(0 -0.0076478027 0.50336074)
(0 -0.0091358126 0.50403939)
(0 -0.010903194 0.50495237)
(0 -0.013036795 0.50620248)
(0 -0.015640439 0.50794464)
(0 -0.018801982 0.51040523)
(0 -0.022882954 0.51405625)
(0 -0.028164841 0.5211469)
(0 -0.035694251 0.53932713)
(0 -0.05046645 0.54156229)
(0 -0.024082754 0.33057583)
(0 0.019836448 0.27520805)
(0 0.057984627 0.53975242)
(0 0.047356318 0.56256485)
(0 0.036470791 0.53660428)
(0 0.029629523 0.52350706)
(0 0.024669666 0.51740288)
(0 0.020768067 0.51336218)
(0 0.017504038 0.51044333)
(0 0.014809071 0.50832267)
(0 0.01256222 0.50675997)
(0 0.010661953 0.50559066)
(0 0.0090362641 0.50470563)
(0 0.0076275262 0.50402993)
(0 0.0063898664 0.50351135)
(0 0.0052868131 0.50311319)
(0 0.0042888851 0.50280938)
(0 0.0033718408 0.50258141)
(0 0.0025153307 0.50241619)
(0 0.0017018174 0.50230471)
(0 0.00091570018 0.50224112)
(0 0.00014258803 0.50222222)
(0 -0.00063136607 0.50224709)
(0 -0.0014200818 0.50231711)
(0 -0.0022381281 0.502436)
(0 -0.0031014154 0.5026102)
(0 -0.0040279457 0.50284951)
(0 -0.0050387095 0.50316807)
(0 -0.006158788 0.50358586)
(0 -0.0074187463 0.50413108)
(0 -0.0088565287 0.50484367)
(0 -0.010519418 0.50578062)
(0 -0.012465722 0.50702424)
(0 -0.014775671 0.50869769)
(0 -0.017551076 0.51098262)
(0 -0.020845937 0.51412142)
(0 -0.024956513 0.51873226)
(0 -0.03049195 0.52823149)
(0 -0.038612539 0.54872558)
(0 -0.048495962 0.5339979)
(0 -0.019063097 0.29396521)
(0 0.013081661 0.24256892)
(0 0.051792439 0.5252104)
(0 0.0476998 0.57024936)
(0 0.037748007 0.54552421)
(0 0.030841867 0.52928833)
(0 0.026065237 0.52180101)
(0 0.02223006 0.51699667)
(0 0.018946338 0.51347168)
(0 0.016186869 0.51086267)
(0 0.013843823 0.50890972)
(0 0.011830697 0.50742952)
(0 0.010084892 0.50629704)
(0 0.0085537743 0.50542454)
(0 0.0071945797 0.50474987)
(0 0.0059724947 0.50422866)
(0 0.0048586868 0.50382899)
(0 0.0038289532 0.50352789)
(0 0.0028626068 0.50330899)
(0 0.0019415443 0.50316093)
(0 0.0010494661 0.50307631)
(0 0.00017121239 0.50305106)
(0 -0.00070786066 0.50308402)
(0 -0.0016024693 0.50317691)
(0 -0.0025279358 0.50333447)
(0 -0.0035008432 0.50356483)
(0 -0.0045397141 0.50388028)
(0 -0.0056658053 0.50429841)
(0 -0.0069040493 0.50484386)
(0 -0.0082841702 0.50555089)
(0 -0.0098422576 0.50646729)
(0 -0.011622526 0.50766021)
(0 -0.013677241 0.5092245)
(0 -0.016075922 0.51129815)
(0 -0.018913902 0.51408054)
(0 -0.022222585 0.51784053)
(0 -0.02624269 0.52347042)
(0 -0.031826643 0.53537669)
(0 -0.039736921 0.55590004)
(0 -0.044878606 0.52284578)
(0 -0.014086517 0.26268178)
(0 0.0077685246 0.21555934)
(0 0.044818425 0.50802503)
(0 0.046243518 0.5743832)
(0 0.038023631 0.55375003)
(0 0.031277031 0.53495983)
(0 0.026757891 0.52602933)
(0 0.023106699 0.52053669)
(0 0.019911471 0.51648575)
(0 0.017173637 0.51343847)
(0 0.014805951 0.51112684)
(0 0.012739975 0.50935514)
(0 0.010923641 0.5079861)
(0 0.0093110327 0.5069221)
(0 0.0078641652 0.50609323)
(0 0.0065512784 0.5054489)
(0 0.0053453989 0.50495226)
(0 0.0042233986 0.50457653)
(0 0.0031651289 0.50430246)
(0 0.0021526691 0.50411661)
(0 0.001169676 0.50401017)
(0 0.00020081534 0.50397826)
(0 -0.00076878664 0.5040195)
(0 -0.0017540742 0.50413596)
(0 -0.0027705217 0.50433326)
(0 -0.003834721 0.50462108)
(0 -0.0049649564 0.5050139)
(0 -0.0061818675 0.50553235)
(0 -0.0075092143 0.50620503)
(0 -0.0089747018 0.50707126)
(0 -0.010611147 0.50818521)
(0 -0.012458153 0.50962213)
(0 -0.014560875 0.51148707)
(0 -0.016975525 0.5139289)
(0 -0.019783808 0.51715643)
(0 -0.023001738 0.52148268)
(0 -0.026851593 0.52818561)
(0 -0.032323264 0.54222158)
(0 -0.03937545 0.56050857)
(0 -0.040310242 0.50911804)
(0 -0.0097036496 0.23590511)
(0 0.0040032688 0.19357933)
(0 0.037891074 0.48950873)
(0 0.043672531 0.57524487)
(0 0.037549218 0.56084334)
(0 0.031140653 0.54035986)
(0 0.026901237 0.53001002)
(0 0.023501734 0.52389951)
(0 0.02046875 0.51940934)
(0 0.017816251 0.51598368)
(0 0.01548024 0.51335398)
(0 0.013410378 0.51131842)
(0 0.011565296 0.50973115)
(0 0.0099068155 0.5084875)
(0 0.008402682 0.50751184)
(0 0.0070250473 0.50674877)
(0 0.00574962 0.50615759)
(0 0.0045550975 0.50570845)
(0 0.0034225397 0.50537972)
(0 0.0023348108 0.50515621)
(0 0.0012760732 0.5050279)
(0 0.00023132984 0.50498924)
(0 -0.00081402856 0.50503866)
(0 -0.0018746781 0.5051785)
(0 -0.0029657299 0.50541516)
(0 -0.0041032301 0.50575961)
(0 -0.0053046167 0.50622822)
(0 -0.0065892343 0.50684408)
(0 -0.0079789174 0.50763901)
(0 -0.009498547 0.50865635)
(0 -0.011176747 0.5099552)
(0 -0.013047406 0.51161685)
(0 -0.01514807 0.51375398)
(0 -0.01752139 0.51652236)
(0 -0.020231566 0.52013309)
(0 -0.023286515 0.52496626)
(0 -0.02692776 0.53274302)
(0 -0.032168585 0.54839168)
(0 -0.037961232 0.56255512)
(0 -0.035394129 0.49384167)
(0 -0.0061957655 0.2133122)
(0 0.0015493029 0.1761616)
(0 0.031490029 0.47079143)
(0 0.040515006 0.57339409)
(0 0.036540617 0.56659637)
(0 0.030620363 0.54537628)
(0 0.0266556 0.53370258)
(0 0.023527736 0.5270292)
(0 0.020696034 0.52218411)
(0 0.018169846 0.51844581)
(0 0.015905658 0.51554458)
(0 0.013869031 0.51327827)
(0 0.012028507 0.51149624)
(0 0.010353768 0.51008947)
(0 0.0088185359 0.50897847)
(0 0.0073992556 0.5081045)
(0 0.006074789 0.50742405)
(0 0.0048261371 0.50690494)
(0 0.0036360348 0.50652373)
(0 0.0024885784 0.50626383)
(0 0.0013688629 0.50611428)
(0 0.00026264004 0.50606897)
(0 -0.00084403129 0.50612616)
(0 -0.0019651537 0.50628844)
(0 -0.003115061 0.50656284)
(0 -0.0043088228 0.50696135)
(0 -0.0055625784 0.50750181)
(0 -0.0068939034 0.50820926)
(0 -0.0083222155 0.50911791)
(0 -0.0098691136 0.51027407)
(0 -0.011558635 0.5117403)
(0 -0.013418531 0.51360196)
(0 -0.0154789 0.51597652)
(0 -0.017770385 0.51902254)
(0 -0.020339993 0.52295108)
(0 -0.02319499 0.52823871)
(0 -0.026615079 0.53704305)
(0 -0.031523861 0.55365994)
(0 -0.035865223 0.56232679)
(0 -0.03052977 0.47795809)
(0 -0.0035858299 0.19468326)
(0 7.4807888e-05 0.16255878)
(0 0.025859526 0.45263989)
(0 0.037139147 0.5694466)
(0 0.035168738 0.5709867)
(0 0.029856272 0.54995958)
(0 0.026153941 0.537111)
(0 0.023287019 0.52990834)
(0 0.020669778 0.52477863)
(0 0.01829176 0.52079115)
(0 0.016124533 0.5176657)
(0 0.014146786 0.5152037)
(0 0.012335637 0.51325298)
(0 0.010667985 0.51170231)
(0 0.0091231903 0.51047002)
(0 0.0076819704 0.50949532)
(0 0.0063264911 0.50873284)
(0 0.0050402866 0.50814885)
(0 0.0038080403 0.50771858)
(0 0.0026153758 0.50742445)
(0 0.0014486239 0.50725479)
(0 0.00029458918 0.50720306)
(0 -0.00085969552 0.50726743)
(0 -0.0020272529 0.50745063)
(0 -0.0032213333 0.50776018)
(0 -0.0044557246 0.50820884)
(0 -0.0057449694 0.50881552)
(0 -0.0071045973 0.50960662)
(0 -0.0085513695 0.51061803)
(0 -0.010103462 0.51189798)
(0 -0.011780395 0.5135112)
(0 -0.01360399 0.51554536)
(0 -0.0155975 0.5181202)
(0 -0.017781581 0.52139394)
(0 -0.020188686 0.52558107)
(0 -0.022832367 0.53128578)
(0 -0.026029575 0.54103312)
(0 -0.03051965 0.55793571)
(0 -0.03338068 0.56021914)
(0 -0.025968879 0.46215644)
(0 -0.0017595388 0.17955859)
(0 -0.00072000328 0.15194753)
(0 0.021095699 0.43548607)
(0 0.033795261 0.56395156)
(0 0.033576588 0.57408732)
(0 0.028948987 0.5540891)
(0 0.025495746 0.54025946)
(0 0.022863156 0.53254741)
(0 0.020456882 0.52718487)
(0 0.018234951 0.52300361)
(0 0.016177903 0.51969773)
(0 0.014274986 0.51707388)
(0 0.012510411 0.51498066)
(0 0.010867254 0.5133062)
(0 0.0093298511 0.51196785)
(0 0.0078828876 0.51090385)
(0 0.0065117316 0.5100678)
(0 0.0052024746 0.50942504)
(0 0.0039418553 0.50894998)
(0 0.0027171819 0.50862438)
(0 0.0015162068 0.50843609)
(0 0.00032698845 0.50837829)
(0 -0.00086225881 0.50844906)
(0 -0.0020633687 0.50865125)
(0 -0.0032883072 0.50899271)
(0 -0.0045493938 0.50948671)
(0 -0.0058594179 0.51015286)
(0 -0.0072317577 0.51101843)
(0 -0.0086804899 0.51212028)
(0 -0.010220469 0.51350772)
(0 -0.01186705 0.51524661)
(0 -0.013636719 0.51742558)
(0 -0.015546674 0.5201648)
(0 -0.017609413 0.5236202)
(0 -0.019846482 0.52801748)
(0 -0.022283942 0.53411354)
(0 -0.025262099 0.54468227)
(0 -0.029271067 0.56120991)
(0 -0.030739091 0.55662774)
(0 -0.021864947 0.44687519)
(0 -0.00055857134 0.16735107)
(0 -0.0010722117 0.14363061)
(0 0.017189378 0.41954428)
(0 0.030638907 0.55736849)
(0 0.031882035 0.5760196)
(0 0.027972511 0.55775721)
(0 0.024754473 0.54317377)
(0 0.022322531 0.53496905)
(0 0.020112923 0.52940869)
(0 0.018045134 0.52507914)
(0 0.01610274 0.52163121)
(0 0.014283089 0.51887627)
(0 0.012575994 0.51666521)
(0 0.010969563 0.51488648)
(0 0.0094523245 0.51345738)
(0 0.008012463 0.51231587)
(0 0.006638285 0.51141524)
(0 0.0053183146 0.51072036)
(0 0.0040413235 0.51020525)
(0 0.0027963463 0.5098513)
(0 0.0015726403 0.50964608)
(0 0.00035962606 0.50958262)
(0 -0.00085318248 0.50965891)
(0 -0.002076311 0.50987791)
(0 -0.0033203345 0.51024763)
(0 -0.0045960221 0.51078165)
(0 -0.0059143692 0.51149996)
(0 -0.0072866311 0.51243025)
(0 -0.0087243248 0.51360983)
(0 -0.010239238 0.51508841)
(0 -0.011843056 0.51693215)
(0 -0.013547697 0.51922979)
(0 -0.015365208 0.52210052)
(0 -0.017301618 0.52569733)
(0 -0.0193716 0.53026724)
(0 -0.021618562 0.53673358)
(0 -0.024385787 0.54797042)
(0 -0.027879752 0.56352669)
(0 -0.028110957 0.55191465)
(0 -0.018292066 0.43237922)
(0 0.000175472 0.15751481)
(0 -0.001155373 0.13705673)
(0 0.014063053 0.40489507)
(0 0.027750092 0.55007197)
(0 0.030173068 0.5769312)
(0 0.026979183 0.56097041)
(0 0.023983024 0.54587783)
(0 0.021716943 0.53720019)
(0 0.019683026 0.5314632)
(0 0.017760583 0.52702095)
(0 0.015931091 0.52346353)
(0 0.014197514 0.52060443)
(0 0.012553836 0.51829774)
(0 0.010992082 0.51643285)
(0 0.0095041617 0.51492756)
(0 0.0080812259 0.51372009)
(0 0.0067141611 0.51276382)
(0 0.0053937067 0.51202361)
(0 0.0041105515 0.51147335)
(0 0.0028554112 0.51109432)
(0 0.0016190493 0.51087399)
(0 0.00039227669 0.51080528)
(0 -0.00083405081 0.51088619)
(0 -0.0020691088 0.51111969)
(0 -0.0033220546 0.51151387)
(0 -0.0046021085 0.51208241)
(0 -0.0059185214 0.51284543)
(0 -0.0072805476 0.51383071)
(0 -0.0086973685 0.51507558)
(0 -0.010178056 0.51662966)
(0 -0.011731181 0.51855887)
(0 -0.013364924 0.52095139)
(0 -0.015087174 0.52392456)
(0 -0.016899146 0.52762896)
(0 -0.018812523 0.53234395)
(0 -0.020890675 0.53915996)
(0 -0.023457748 0.55089114)
(0 -0.026428104 0.56496892)
(0 -0.025607449 0.54639805)
(0 -0.015261817 0.41881678)
(0 0.00058069 0.14958716)
(0 -0.001087817 0.13178622)
(0 0.011606066 0.39152993)
(0 0.02515661 0.54235596)
(0 0.028508442 0.5769766)
(0 0.026002322 0.56374843)
(0 0.023216668 0.54839445)
(0 0.02108483 0.53926924)
(0 0.019202562 0.53336572)
(0 0.017412458 0.52883695)
(0 0.015689951 0.52519672)
(0 0.014041203 0.52225636)
(0 0.012463088 0.51987339)
(0 0.010950542 0.51793857)
(0 0.0094980867 0.51637043)
(0 0.0080992807 0.51510781)
(0 0.0067471961 0.51410446)
(0 0.005434518 0.51332548)
(0 0.004153678 0.51274491)
(0 0.0028969646 0.51234406)
(0 0.0016565857 0.51211041)
(0 0.00042471032 0.51203691)
(0 -0.00080648423 0.51212151)
(0 -0.0020448433 0.5123672)
(0 -0.0032981423 0.51278204)
(0 -0.0045741187 0.5133797)
(0 -0.0058803921 0.51418019)
(0 -0.0072243996 0.51521115)
(0 -0.0086132699 0.51650964)
(0 -0.010053761 0.51812484)
(0 -0.011551902 0.52012206)
(0 -0.013112953 0.52258853)
(0 -0.014741637 0.52563925)
(0 -0.016435945 0.52942416)
(0 -0.018207861 0.53426568)
(0 -0.020140799 0.5414092)
(0 -0.022519436 0.55345217)
(0 -0.024977108 0.5656414)
(0 -0.023291172 0.54034415)
(0 -0.012744531 0.40624998)
(0 0.00076617181 0.14317401)
(0 -0.00094598633 0.1274736)
(0 0.0096996402 0.37938306)
(0 0.022854961 0.53444116)
(0 0.026923287 0.57630111)
(0 0.025060588 0.56611858)
(0 0.022476544 0.55074428)
(0 0.020452768 0.54120381)
(0 0.018697904 0.53513584)
(0 0.017025173 0.5305381)
(0 0.015401317 0.52683608)
(0 0.013833461 0.5238333)
(0 0.012320323 0.52139043)
(0 0.010858903 0.51939973)
(0 0.0094456381 0.5177806)
(0 0.0080759706 0.51647262)
(0 0.0067447594 0.51543008)
(0 0.0054463458 0.51461849)
(0 0.004174696 0.51401217)
(0 0.0029235236 0.51359261)
(0 0.0016863756 0.51334739)
(0 0.00045670076 0.5132695)
(0 -0.00077206848 0.51335691)
(0 -0.002006514 0.51361256)
(0 -0.0032531114 0.51404445)
(0 -0.004518226 0.51466608)
(0 -0.0058080025 0.51549727)
(0 -0.00712828 0.51656533)
(0 -0.0084844427 0.51790683)
(0 -0.0098813497 0.51957034)
(0 -0.01132304 0.52162038)
(0 -0.012812594 0.52414298)
(0 -0.014352463 0.52725072)
(0 -0.015938878 0.53109575)
(0 -0.017586627 0.53605274)
(0 -0.019396989 0.54349877)
(0 -0.021598795 0.555671)
(0 -0.02356869 0.5656545)
(0 -0.02119011 0.53396485)
(0 -0.010687662 0.39467867)
(0 0.00081222647 0.13794219)
(0 -0.00077737369 0.12385791)
(0 0.0082311202 0.36835775)
(0 0.020824833 0.52648737)
(0 0.025435436 0.57503283)
(0 0.024162691 0.56811054)
(0 0.021773701 0.55294423)
(0 0.019837816 0.54302848)
(0 0.018187736 0.53679324)
(0 0.016617111 0.53213683)
(0 0.01508249 0.52838882)
(0 0.013590021 0.52533865)
(0 0.012139456 0.52284935)
(0 0.010729184 0.52081463)
(0 0.0093569702 0.51915476)
(0 0.0080196712 0.51781002)
(0 0.0067135621 0.51673535)
(0 0.0054343536 0.51589674)
(0 0.0041773267 0.51526887)
(0 0.0029374506 0.51483347)
(0 0.0017094796 0.5145783)
(0 0.00048803297 0.51449641)
(0 -0.00073230056 0.5145858)
(0 -0.0019569388 0.51484935)
(0 -0.003191171 0.51529492)
(0 -0.0044401294 0.51593583)
(0 -0.0057086628 0.51679156)
(0 -0.007001246 0.51788901)
(0 -0.0083218266 0.51926419)
(0 -0.0096737606 0.52096495)
(0 -0.011059594 0.52305495)
(0 -0.012480857 0.52561897)
(0 -0.013938494 0.52876751)
(0 -0.01542827 0.53265835)
(0 -0.016969474 0.53772528)
(0 -0.018677356 0.54544506)
(0 -0.02071327 0.55757019)
(0 -0.022229319 0.56511348)
(0 -0.019309292 0.52742254)
(0 -0.0090284205 0.3840627)
(0 0.00077536055 0.13361948)
(0 -0.00060996863 0.12074901)
(0 0.0071013179 0.35834543)
(0 0.019038164 0.51860706)
(0 0.02405069 0.57328104)
(0 0.023311002 0.56975376)
(0 0.02111249 0.55500716)
(0 0.01924996 0.54476361)
(0 0.017684672 0.53835619)
(0 0.016201619 0.53364568)
(0 0.014746653 0.52986299)
(0 0.013323341 0.5267771)
(0 0.011931858 0.52425214)
(0 0.010571465 0.52218318)
(0 0.0092407836 0.52049117)
(0 0.0079376912 0.51911708)
(0 0.0066595497 0.51801644)
(0 0.0054031724 0.51715575)
(0 0.0041649393 0.51651007)
(0 0.0029408997 0.51606143)
(0 0.0017268688 0.51579777)
(0 0.00051850954 0.51571224)
(0 -0.00068855114 0.51580285)
(0 -0.0018986866 0.51607242)
(0 -0.0031161311 0.51652866)
(0 -0.0043449374 0.51718463)
(0 -0.005588845 0.51805948)
(0 -0.006851195 0.51917961)
(0 -0.008134787 0.52058046)
(0 -0.0094418297 0.52230916)
(0 -0.010773803 0.52442855)
(0 -0.012131202 0.52702225)
(0 -0.013514086 0.53019922)
(0 -0.014918864 0.53412673)
(0 -0.016370285 0.53930167)
(0 -0.017992552 0.54726233)
(0 -0.019872463 0.5591743)
(0 -0.020973366 0.56411345)
(0 -0.017639401 0.52083836)
(0 -0.0077020782 0.37433959)
(0 0.00069399118 0.12999076)
(0 -0.00045869497 0.11801176)
(0 0.0062276518 0.34923691)
(0 0.017464773 0.51087714)
(0 0.022767091 0.57113739)
(0 0.022504062 0.57107638)
(0 0.020492973 0.55694246)
(0 0.018694131 0.54642523)
(0 0.017196729 0.53984073)
(0 0.015788048 0.53507646)
(0 0.014403563 0.53126666)
(0 0.013043028 0.52815386)
(0 0.011706592 0.52560171)
(0 0.010393997 0.52350635)
(0 0.0091043587 0.52178931)
(0 0.0078362582 0.52039207)
(0 0.0065878643 0.51927072)
(0 0.0053568558 0.51839221)
(0 0.0041405103 0.517732)
(0 0.0029357862 0.51727239)
(0 0.0017394104 0.51700154)
(0 0.00054795583 0.51691268)
(0 -0.00064204041 0.51700385)
(0 -0.0018340362 0.51727779)
(0 -0.0030313497 0.51774205)
(0 -0.0042371102 0.51840942)
(0 -0.0054541306 0.5192987)
(0 -0.0066848344 0.52043581)
(0 -0.0079311314 0.52185563)
(0 -0.0091943896 0.52360464)
(0 -0.010475375 0.52574498)
(0 -0.011773956 0.5283592)
(0 -0.013089794 0.53155563)
(0 -0.01442084 0.53551481)
(0 -0.015797644 0.54079779)
(0 -0.017347761 0.54896262)
(0 -0.019080258 0.56050817)
(0 -0.019806181 0.56273756)
(0 -0.01616309 0.51430035)
(0 -0.0066474145 0.36543631)
(0 0.00059330244 0.12688971)
(0 -0.00033002042 0.11555202)
(0 0.0055443851 0.34092864)
(0 0.016075674 0.50334809)
(0 0.021578282 0.56867796)
(0 0.021738383 0.57210464)
(0 0.019912625 0.5587567)
(0 0.018171774 0.54802543)
(0 0.016728532 0.54126052)
(0 0.01538265 0.53643985)
(0 0.014060213 0.53260751)
(0 0.012756311 0.52947426)
(0 0.011470724 0.52690138)
(0 0.010203389 0.52478581)
(0 0.0089536586 0.52304946)
(0 0.0077205661 0.52163419)
(0 0.006502858 0.52049652)
(0 0.0052988747 0.51960381)
(0 0.0041066119 0.51893186)
(0 0.0029237768 0.51846326)
(0 0.0017478646 0.51818633)
(0 0.00057622307 0.51809443)
(0 -0.00059382725 0.51818558)
(0 -0.0017649589 0.51846247)
(0 -0.0029397142 0.51893247)
(0 -0.0041204479 0.51960813)
(0 -0.0053092173 0.52050789)
(0 -0.0065077225 0.52165725)
(0 -0.007717207 0.52309057)
(0 -0.0089384521 0.5248538)
(0 -0.01017179 0.52700848)
(0 -0.011416771 0.52963635)
(0 -0.012673034 0.5328461)
(0 -0.013940751 0.53683517)
(0 -0.015256094 0.54222684)
(0 -0.016744297 0.55055578)
(0 -0.01833662 0.56159572)
(0 -0.01872694 0.56105675)
(0 -0.01485945 0.50787053)
(0 -0.005809827 0.35727673)
(0 0.00048904764 0.12418983)
(0 -0.00022527789 0.11330549)
(0 0.0050010329 0.33332603)
(0 0.014844721 0.49605128)
(0 0.020475932 0.5659656)
(0 0.021009705 0.57286261)
(0 0.019367578 0.56045433)
(0 0.017682076 0.54957289)
(0 0.016282292 0.54262683)
(0 0.014989342 0.53774526)
(0 0.013721425 0.53389257)
(0 0.012468472 0.5307434)
(0 0.011229629 0.52815465)
(0 0.010004825 0.52602364)
(0 0.0087934685 0.5242725)
(0 0.0075948604 0.52284333)
(0 0.0064081411 0.52169294)
(0 0.0052321433 0.52078903)
(0 0.0040654235 0.52010769)
(0 0.0029062939 0.51963176)
(0 0.0017528852 0.51934971)
(0 0.00060319184 0.519255)
(0 -0.0005448059 0.51934566)
(0 -0.0016931207 0.51962429)
(0 -0.0028436501 0.52009814)
(0 -0.0039981129 0.5207795)
(0 -0.005157966 0.52168649)
(0 -0.0063243547 0.52284426)
(0 -0.0074980427 0.52428672)
(0 -0.0086794282 0.52605941)
(0 -0.0098686208 0.52822344)
(0 -0.011065085 0.53085997)
(0 -0.01226871 0.53407928)
(0 -0.01348235 0.53809878)
(0 -0.014747233 0.54359939)
(0 -0.016180905 0.55204965)
(0 -0.017639067 0.5624592)
(0 -0.017731009 0.55913053)
(0 -0.013706904 0.50159107)
(0 -0.0051426462 0.34978629)
(0 0.00039044134 0.12179652)
(0 -0.00014293789 0.11122889)
(0 0.0045599348 0.32634487)
(0 0.013749184 0.4890045)
(0 0.019451281 0.56305225)
(0 0.020313778 0.57337231)
(0 0.018853471 0.56203821)
(0 0.017222898 0.55107344)
(0 0.015858574 0.54394867)
(0 0.014610328 0.53900075)
(0 0.013390355 0.5351281)
(0 0.012183245 0.53196602)
(0 0.010987293 0.52936493)
(0 0.0098022776 0.52722208)
(0 0.0086275501 0.52545966)
(0 0.0074625443 0.52401985)
(0 0.0063066526 0.52285964)
(0 0.0051590621 0.52194698)
(0 0.0040187583 0.52125819)
(0 0.0028845313 0.52077631)
(0 0.0017550268 0.52048995)
(0 0.00062877172 0.52039264)
(0 -0.00049571256 0.52048242)
(0 -0.0016198954 0.52076182)
(0 -0.0027451459 0.52123794)
(0 -0.0038726751 0.52192289)
(0 -0.0050034735 0.52283452)
(0 -0.0061382743 0.52399764)
(0 -0.0072775128 0.52544586)
(0 -0.0084213614 0.52722441)
(0 -0.00956986 0.52939412)
(0 -0.010722551 0.53203591)
(0 -0.011879778 0.53526283)
(0 -0.013047328 0.53931488)
(0 -0.01427064 0.54492356)
(0 -0.01565477 0.55345025)
(0 -0.016983771 0.5631188)
(0 -0.016811685 0.55700832)
(0 -0.012684933 0.49548933)
(0 -0.0046073241 0.34289491)
(0 0.00030231949 0.11964021)
(0 -8.008855e-05 0.10929331)
(0 0.0041936683 0.31991147)
(0 0.01276973 0.48221618)
(0 0.018496017 0.55998109)
(0 0.019646765 0.5736539)
(0 0.018365982 0.56351018)
(0 0.016791433 0.55253065)
(0 0.01545689 0.54523308)
(0 0.014246607 0.5402131)
(0 0.013068924 0.53631955)
(0 0.011903162 0.53314639)
(0 0.010746585 0.53053545)
(0 0.0095987193 0.52838342)
(0 0.0084587975 0.52661238)
(0 0.0073262915 0.52516445)
(0 0.0062007391 0.52399672)
(0 0.0050815729 0.52307727)
(0 0.0039680978 0.52238261)
(0 0.0028594741 0.52189591)
(0 0.0017547553 0.5216059)
(0 0.00065289943 0.52150616)
(0 -0.00044713762 0.52159475)
(0 -0.0015463866 0.52187413)
(0 -0.0026457923 0.5223513)
(0 -0.003746171 0.52303816)
(0 -0.0048481596 0.52395237)
(0 -0.0059521964 0.52511849)
(0 -0.0070585082 0.52656992)
(0 -0.0081671585 0.52835169)
(0 -0.0092782218 0.53052452)
(0 -0.010391432 0.53316937)
(0 -0.011507729 0.53640342)
(0 -0.01263592 0.54049101)
(0 -0.013824592 0.54620529)
(0 -0.015162246 0.55476212)
(0 -0.016366326 0.56359272)
(0 -0.015961411 0.55473099)
(0 -0.011774971 0.48958195)
(0 -0.0041729195 0.33653853)
(0 0.0002266692 0.11767047)
(0 -3.3359526e-05 0.10747926)
(0 0.0038826574 0.31396217)
(0 0.011890116 0.47568841)
(0 0.017602697 0.55678824)
(0 0.019005405 0.57372601)
(0 0.017901119 0.56487156)
(0 0.016384638 0.55394635)
(0 0.015076111 0.54648539)
(0 0.013898354 0.54138794)
(0 0.012758153 0.5374716)
(0 0.011629841 0.53428829)
(0 0.010509491 0.53166918)
(0 0.0093963115 0.52950985)
(0 0.0082893845 0.52773216)
(0 0.007188158 0.52627806)
(0 0.0060922374 0.52510457)
(0 0.0050012171 0.52417989)
(0 0.0039146319 0.5234806)
(0 0.0028319227 0.52298999)
(0 0.0017524583 0.52269687)
(0 0.0006755379 0.52259487)
(0 -0.00039953879 0.52268204)
(0 -0.0014734563 0.52296079)
(0 -0.0025468279 0.52343802)
(0 -0.0036201699 0.52412551)
(0 -0.0046938593 0.52504073)
(0 -0.0057681341 0.5262081)
(0 -0.0068431033 0.52766085)
(0 -0.0079188057 0.52944399)
(0 -0.0089954167 0.53161823)
(0 -0.010072936 0.53426495)
(0 -0.011153003 0.53750668)
(0 -0.012247375 0.54163321)
(0 -0.01340661 0.54744871)
(0 -0.014699376 0.55598864)
(0 -0.015782262 0.56389723)
(0 -0.015172579 0.55233236)
(0 -0.010960753 0.48387788)
(0 -0.0038151879 0.33065977)
(0 0.00016369676 0.11585122)
(0 5.3620625e-07 0.10577325)
(0 0.0036131325 0.30844226)
(0 0.011096774 0.46941903)
(0 0.01676488 0.55350414)
(0 0.018387037 0.57360596)
(0 0.017455363 0.56612345)
(0 0.015999499 0.55532114)
(0 0.014714756 0.5477095)
(0 0.013565206 0.54252988)
(0 0.012458431 0.53858824)
(0 0.011364219 0.535395)
(0 0.010277319 0.53276879)
(0 0.0091965703 0.53060348)
(0 0.0081208984 0.52882056)
(0 0.0070496868 0.52736169)
(0 0.0059825549 0.52618381)
(0 0.0049191942 0.52525508)
(0 0.003859299 0.52455214)
(0 0.0028025167 0.52405834)
(0 0.0017484547 0.52376255)
(0 0.0006966749 0.52365843)
(0 -0.00035325637 0.52374401)
(0 -0.0014017564 0.52402167)
(0 -0.0024491871 0.52449823)
(0 -0.003495842 0.52518537)
(0 -0.0045419154 0.52610046)
(0 -0.0055875186 0.52726779)
(0 -0.00663271 0.52872057)
(0 -0.0076775616 0.53050384)
(0 -0.0087223872 0.53267845)
(0 -0.0097674979 0.53532658)
(0 -0.010815302 0.53857728)
(0 -0.011880325 0.54274611)
(0 -0.013013843 0.54865647)
(0 -0.014262218 0.55713234)
(0 -0.01522736 0.564047)
(0 -0.014438019 0.54984049)
(0 -0.010228331 0.47838072)
(0 -0.0035155117 0.32520793)
(0 0.00011257164 0.11415676)
(0 2.4524066e-05 0.10416549)
(0 0.0033754911 0.30330498)
(0 0.010378365 0.46340317)
(0 0.01597709 0.55015462)
(0 0.017789533 0.57330996)
(0 0.017025704 0.56726704)
(0 0.015633181 0.55665475)
(0 0.014371183 0.54890819)
(0 0.01324646 0.54364266)
(0 0.012169709 0.53967284)
(0 0.011106736 0.53646938)
(0 0.010050857 0.53383666)
(0 0.009000507 0.53166621)
(0 0.0079544563 0.52987904)
(0 0.0069120027 0.52841645)
(0 0.0058727425 0.52723517)
(0 0.0048364172 0.52630329)
(0 0.0038028251 0.52559745)
(0 0.0027717599 0.52510103)
(0 0.0017430049 0.52480292)
(0 0.00071631892 0.52469679)
(0 -0.00030853061 0.52478067)
(0 -0.0013317603 0.52505691)
(0 -0.0023535467 0.52553226)
(0 -0.003374024 0.52621836)
(0 -0.0043932649 0.52713248)
(0 -0.0054113101 0.5282989)
(0 -0.0064282156 0.52975085)
(0 -0.0074441234 0.5315335)
(0 -0.0084595025 0.53370796)
(0 -0.0094750007 0.53635757)
(0 -0.010493844 0.53961901)
(0 -0.011533049 0.54383318)
(0 -0.012643339 0.54983008)
(0 -0.013847059 0.5581952)
(0 -0.014697816 0.56405525)
(0 -0.013751251 0.54727879)
(0 -0.0095659107 0.47309039)
(0 -0.0032598329 0.32013865)
(0 7.193326e-05 0.11256888)
(0 4.1059433e-05 0.10264839)
(0 0.0031630442 0.29851034)
(0 0.0097253811 0.45763422)
(0 0.015234693 0.54676174)
(0 0.017211206 0.57285328)
(0 0.016609622 0.56830373)
(0 0.015283096 0.55794637)
(0 0.014043705 0.5500833)
(0 0.012941212 0.54472928)
(0 0.011891646 0.54072824)
(0 0.010857478 0.53751386)
(0 0.0098305094 0.53487488)