/*--------------------------------*- C++ -*----------------------------------*\
  =========                 |
  \\      /  F ield         | OpenFOAM: The Open Source CFD Toolbox
   \\    /   O peration     | Website:  https://openfoam.org
    \\  /    A nd           | Version:  10
     \\/     M anipulation  |
\*---------------------------------------------------------------------------*/
FoamFile
{
    format      ascii;
    class       volVectorField;
    location    "0.17";
    object      U_0;
}
// * * * * * * * * * * * * * * * * * * * * * * * * * * * * * * * * * * * * * //

dimensions      [0 1 -1 0 0 0 0];

internalField   nonuniform List<vector> 
4000
(
(0 0.018637204 0.47773169)
(0 0.02350953 0.50886054)
(0 0.0081664262 0.50052523)
(0 0.005614194 0.50033635)
(0 0.0042541868 0.50025746)
(0 0.0032545053 0.50016898)
(0 0.0025556724 0.50011968)
(0 0.0020541982 0.50009012)
(0 0.0016762421 0.5000698)
(0 0.0013819602 0.50005538)
(0 0.0011469789 0.50004498)
(0 0.0009549585 0.50003731)
(0 0.00079464376 0.50003158)
(0 0.00065805804 0.50002725)
(0 0.00053937202 0.50002397)
(0 0.00043420395 0.50002149)
(0 0.00033916543 0.50001964)
(0 0.00025155341 0.50001831)
(0 0.00016913406 0.50001742)
(0 8.9984303e-05 0.50001691)
(0 1.2369669e-05 0.50001676)
(0 -6.5363174e-05 0.50001696)
(0 -0.00014487775 0.50001753)
(0 -0.0002279397 0.50001848)
(0 -0.00031652791 0.50001989)
(0 -0.00041296474 0.50002184)
(0 -0.000520088 0.50002445)
(0 -0.00064149023 0.50002792)
(0 -0.00078186655 0.50003251)
(0 -0.00094754448 0.50003863)
(0 -0.0011473351 0.50004688)
(0 -0.0013938985 0.50005824)
(0 -0.0017059831 0.50007414)
(0 -0.0021139397 0.5000971)
(0 -0.0026736855 0.50013483)
(0 -0.0034673429 0.5002024)
(0 -0.0045597028 0.50027147)
(0 -0.006583969 0.5004337)
(0 -0.01765841 0.50675392)
(0 -0.013589596 0.47975593)
(0 0.037431989 0.44797012)
(0 0.050954318 0.53232607)
(0 0.021967894 0.50804292)
(0 0.016134291 0.50357326)
(0 0.01241466 0.50242317)
(0 0.0095145456 0.50162297)
(0 0.0075192772 0.50115656)
(0 0.0060686519 0.50086585)
(0 0.0049634709 0.5006679)
(0 0.0040991988 0.50052889)
(0 0.0034068821 0.5004289)
(0 0.0028395704 0.50035538)
(0 0.0023648871 0.50030047)
(0 0.0019597453 0.50025906)
(0 0.0016071818 0.5002277)
(0 0.0012943982 0.50020403)
(0 0.0010114665 0.50018643)
(0 0.00075044547 0.50017375)
(0 0.00050475769 0.50016524)
(0 0.00026873017 0.5001604)
(0 3.7239089e-05 0.50015898)
(0 -0.00019459856 0.50016088)
(0 -0.00043169572 0.50016624)
(0 -0.00067926624 0.50017536)
(0 -0.00094314422 0.50018878)
(0 -0.0012301627 0.50020735)
(0 -0.0015486496 0.50023231)
(0 -0.0019091153 0.50026544)
(0 -0.0023252446 0.50030939)
(0 -0.0028153819 0.50036803)
(0 -0.0034049066 0.5004473)
(0 -0.0041301996 0.50055669)
(0 -0.005044346 0.50071129)
(0 -0.0062272175 0.50093668)
(0 -0.0078277017 0.5012945)
(0 -0.010121614 0.50191071)
(0 -0.013103145 0.50282543)
(0 -0.017422688 0.50608139)
(0 -0.038755675 0.52526798)
(0 -0.027893081 0.45021862)
(0 0.039887229 0.40982287)
(0 0.061425697 0.54930845)
(0 0.031981116 0.52188191)
(0 0.024353108 0.5100807)
(0 0.019191136 0.5065886)
(0 0.014974708 0.50452801)
(0 0.012004395 0.50327125)
(0 0.0097697715 0.50245817)
(0 0.0080345981 0.50190079)
(0 0.0066632228 0.50150835)
(0 0.0055554198 0.50122508)
(0 0.0046416503 0.50101628)
(0 0.0038731714 0.50086009)
(0 0.0032145821 0.50074213)
(0 0.0026395431 0.50065272)
(0 0.0021279959 0.50058518)
(0 0.0016642581 0.50053489)
(0 0.0012357042 0.50049867)
(0 0.00083182135 0.50047434)
(0 0.00044350468 0.50046052)
(0 6.2507017e-05 0.50045644)
(0 -0.00031903927 0.50046189)
(0 -0.00070904914 0.50047719)
(0 -0.0011159082 0.50050324)
(0 -0.0015489679 0.50054158)
(0 -0.0020191295 0.50059459)
(0 -0.0025395982 0.50066577)
(0 -0.0031269136 0.50076019)
(0 -0.0038024127 0.50088526)
(0 -0.0045943425 0.50105188)
(0 -0.0055410654 0.50127661)
(0 -0.0066965698 0.50158556)
(0 -0.0081380664 0.50202086)
(0 -0.0099696564 0.50265092)
(0 -0.012364156 0.50361541)
(0 -0.015709558 0.5051997)
(0 -0.01986663 0.50785469)
(0 -0.025180302 0.51641257)
(0 -0.047411558 0.53912805)
(0 -0.03085126 0.41488584)
(0 0.034790289 0.36173461)
(0 0.063835408 0.55456467)
(0 0.039376254 0.53747121)
(0 0.030079703 0.51849277)
(0 0.024108844 0.51197736)
(0 0.019275889 0.50849931)
(0 0.015732631 0.50626395)
(0 0.012950887 0.504755)
(0 0.010740696 0.50370384)
(0 0.0089653575 0.50295542)
(0 0.0075118345 0.50241026)
(0 0.0063004551 0.50200587)
(0 0.0052734076 0.50170199)
(0 0.0043874276 0.50147168)
(0 0.0036096913 0.50129661)
(0 0.0029148074 0.50116407)
(0 0.0022826619 0.50106523)
(0 0.0016968865 0.50099394)
(0 0.0011437323 0.50094601)
(0 0.00061121134 0.50091875)
(0 8.8414346e-05 0.50091069)
(0 -0.00043508798 0.50092142)
(0 -0.00096978584 0.50095156)
(0 -0.0015267583 0.50100284)
(0 -0.0021182936 0.50107824)
(0 -0.0027586069 0.50118233)
(0 -0.0034647466 0.50132184)
(0 -0.0042577998 0.50150645)
(0 -0.005164556 0.50175015)
(0 -0.0062198045 0.50207342)
(0 -0.0074694243 0.50250674)
(0 -0.0089756576 0.5030971)
(0 -0.010825887 0.50391924)
(0 -0.013126691 0.50508951)
(0 -0.016013728 0.50680743)
(0 -0.0198896 0.50946842)
(0 -0.024722349 0.51427604)
(0 -0.031103899 0.52824739)
(0 -0.050311668 0.54407498)
(0 -0.02843524 0.37239184)
(0 0.027422813 0.31485067)
(0 0.062310278 0.55024388)
(0 0.044608612 0.55146747)
(0 0.033976757 0.52748816)
(0 0.027458813 0.51772248)
(0 0.022449997 0.51291957)
(0 0.018631838 0.50973089)
(0 0.015523513 0.50749184)
(0 0.013002038 0.5058989)
(0 0.010938576 0.50474565)
(0 0.0092217355 0.50389469)
(0 0.0077726566 0.50325755)
(0 0.0065313432 0.50277532)
(0 0.0054513605 0.5024078)
(0 0.0044966497 0.50212717)
(0 0.003638735 0.501914)
(0 0.0028546615 0.5017546)
(0 0.0021254788 0.50163939)
(0 0.0014350817 0.5015618)
(0 0.00076929841 0.50151763)
(0 0.00011515269 0.50150453)
(0 -0.00053979766 0.50152188)
(0 -0.0012080641 0.50157064)
(0 -0.0019028053 0.50165353)
(0 -0.0026385116 0.50177521)
(0 -0.0034317755 0.50194285)
(0 -0.0043022366 0.50216685)
(0 -0.0052737931 0.50246208)
(0 -0.0063762089 0.50284982)
(0 -0.0076472733 0.50336069)
(0 -0.0091352639 0.50403936)
(0 -0.010902632 0.50495235)
(0 -0.013036225 0.50620248)
(0 -0.015639869 0.50794465)
(0 -0.018801419 0.51040526)
(0 -0.022882407 0.51405631)
(0 -0.02816432 0.52114696)
(0 -0.035693698 0.53932715)
(0 -0.050466013 0.54156258)
(0 -0.024082603 0.33057655)
(0 0.019836374 0.27520858)
(0 0.05798435 0.53975272)
(0 0.047355925 0.56256486)
(0 0.03647043 0.53660427)
(0 0.029629169 0.52350707)
(0 0.024669314 0.51740287)
(0 0.020767722 0.51336216)
(0 0.017503707 0.51044329)
(0 0.014808761 0.50832261)
(0 0.012561937 0.5067599)
(0 0.010661701 0.50559058)
(0 0.0090360484 0.50470553)
(0 0.0076273513 0.50402982)
(0 0.0063897361 0.50351124)
(0 0.0052867308 0.50311306)
(0 0.0042888538 0.50280925)
(0 0.0033718628 0.50258128)
(0 0.0025154079 0.50241605)
(0 0.0017019511 0.50230457)
(0 0.00091589105 0.50224098)
(0 0.00014283636 0.50222207)
(0 -0.00063106064 0.50224695)
(0 -0.0014197202 0.50231697)
(0 -0.0022377119 0.50243587)
(0 -0.0031009468 0.50261008)
(0 -0.0040274274 0.50284939)
(0 -0.0050381448 0.50316796)
(0 -0.0061581811 0.50358576)
(0 -0.0074181019 0.504131)
(0 -0.0088558523 0.5048436)
(0 -0.010518715 0.50578057)
(0 -0.012465001 0.50702421)
(0 -0.014774938 0.50869768)
(0 -0.017550341 0.51098263)
(0 -0.020845209 0.51412147)
(0 -0.024955801 0.51873234)
(0 -0.030491255 0.52823155)
(0 -0.038611802 0.54872563)
(0 -0.048495415 0.53399844)
(0 -0.019062929 0.29396626)
(0 0.013081584 0.24256964)
(0 0.051792113 0.5252109)
(0 0.047699301 0.57024942)
(0 0.037747533 0.54552418)
(0 0.030841413 0.52928834)
(0 0.026064788 0.521801)
(0 0.022229621 0.51699664)
(0 0.018945918 0.51347162)
(0 0.016186475 0.51086259)
(0 0.013843462 0.50890962)
(0 0.011830376 0.5074294)
(0 0.010084617 0.5062969)
(0 0.0085535494 0.50542438)
(0 0.0071944103 0.5047497)
(0 0.0059723849 0.50422848)
(0 0.0048586403 0.5038288)
(0 0.0038289729 0.50352769)
(0 0.0028626949 0.50330878)
(0 0.0019417025 0.50316072)
(0 0.0010496954 0.5030761)
(0 0.00017151301 0.50305085)
(0 -0.00070748906 0.50308381)
(0 -0.0016020279 0.50317671)
(0 -0.0025274263 0.50333428)
(0 -0.0035002682 0.50356465)
(0 -0.0045390769 0.5038801)
(0 -0.0056651099 0.50429825)
(0 -0.0069033007 0.50484372)
(0 -0.0082833741 0.50555077)
(0 -0.0098414205 0.50646719)
(0 -0.011621655 0.50766013)
(0 -0.013676345 0.50922445)
(0 -0.01607501 0.51129813)
(0 -0.018912984 0.51408055)
(0 -0.022221673 0.51784058)
(0 -0.026241792 0.52347051)
(0 -0.031825744 0.53537674)
(0 -0.039735981 0.55590016)
(0 -0.04487795 0.52284667)
(0 -0.014086337 0.26268322)
(0 0.0077684445 0.21556027)
(0 0.044818051 0.50802579)
(0 0.046242903 0.57438333)
(0 0.038023024 0.55374998)
(0 0.031276459 0.53495982)
(0 0.02675733 0.52602931)
(0 0.023106151 0.52053664)
(0 0.019910948 0.51648566)
(0 0.017173146 0.51343835)
(0 0.014805502 0.5111267)
(0 0.012739574 0.50935497)
(0 0.010923295 0.5079859)
(0 0.009310749 0.50692188)
(0 0.0078639491 0.506093)
(0 0.0065511349 0.50544866)
(0 0.0053453322 0.504952)
(0 0.0042234123 0.50457626)
(0 0.0031652258 0.50430218)
(0 0.0021528511 0.50411632)
(0 0.0011699443 0.50400988)
(0 0.00020117037 0.50397797)
(0 -0.00076834525 0.50401922)
(0 -0.0017535477 0.50413568)
(0 -0.0027699122 0.504333)
(0 -0.0038340314 0.50462082)
(0 -0.0049641905 0.50501366)
(0 -0.0061810302 0.50553213)
(0 -0.0075083113 0.50620483)
(0 -0.0089737397 0.50707109)
(0 -0.010610134 0.50818507)
(0 -0.012457097 0.50962202)
(0 -0.014559785 0.51148699)
(0 -0.016974412 0.51392887)
(0 -0.019782684 0.51715644)
(0 -0.023000618 0.52148275)
(0 -0.026850482 0.5281857)
(0 -0.032322131 0.5422216)
(0 -0.039374292 0.5605088)
(0 -0.040309479 0.50911939)
(0 -0.0097034591 0.235907)
(0 0.0040031851 0.19358049)
(0 0.03789065 0.48950982)
(0 0.043671792 0.57524513)
(0 0.037548459 0.56084328)
(0 0.031139942 0.54035982)
(0 0.026900548 0.53000998)
(0 0.023501062 0.52389944)
(0 0.020468107 0.51940922)
(0 0.017815649 0.51598352)
(0 0.015479688 0.51335379)
(0 0.013409884 0.5113182)
(0 0.011564869 0.50973089)
(0 0.0099064631 0.50848722)
(0 0.0084024107 0.50751153)
(0 0.0070248628 0.50674844)
(0 0.0057495275 0.50615725)
(0 0.0045551011 0.50570809)
(0 0.0034226427 0.50537935)
(0 0.0023350155 0.50515583)
(0 0.0012763812 0.50502752)
(0 0.00023174164 0.50498886)
(0 -0.00081351334 0.50503828)
(0 -0.0018740608 0.50517813)
(0 -0.0029650129 0.50541481)
(0 -0.0041024167 0.50575927)
(0 -0.0053037113 0.50622789)
(0 -0.0065882424 0.50684378)
(0 -0.0079778456 0.50763874)
(0 -0.0094974028 0.50865612)
(0 -0.011175539 0.509955)
(0 -0.013046145 0.5116167)
(0 -0.015146766 0.51375388)
(0 -0.017520055 0.51652231)
(0 -0.020230215 0.5201331)
(0 -0.023285163 0.52496633)
(0 -0.026926406 0.5327431)
(0 -0.032167187 0.54839168)
(0 -0.037959842 0.56255554)
(0 -0.03539326 0.49384359)
(0 -0.0061955645 0.21331458)
(0 0.001549215 0.17616301)
(0 0.031489554 0.47079292)
(0 0.040514134 0.57339453)
(0 0.036539683 0.56659629)
(0 0.030619489 0.54537621)
(0 0.026654761 0.53370253)
(0 0.023526921 0.5270291)
(0 0.020695255 0.52218396)
(0 0.018169116 0.5184456)
(0 0.015904988 0.51554433)
(0 0.01386843 0.51327797)
(0 0.012027986 0.51149591)
(0 0.010353336 0.5100891)
(0 0.0088181996 0.50897807)
(0 0.0073990221 0.50810407)
(0 0.0060746642 0.5074236)
(0 0.0048261259 0.50690447)
(0 0.0036361409 0.50652325)
(0 0.0024888047 0.50626334)
(0 0.0013692113 0.50611378)
(0 0.00026311109 0.50606847)
(0 -0.00084343784 0.50612568)
(0 -0.0019644393 0.50628796)
(0 -0.0031142283 0.50656238)
(0 -0.0043078755 0.50696091)
(0 -0.0055615214 0.5075014)
(0 -0.0068927428 0.50820887)
(0 -0.0083209588 0.50911756)
(0 -0.0098677694 0.51027376)
(0 -0.011557213 0.51174004)
(0 -0.013417043 0.51360176)
(0 -0.015477358 0.51597637)
(0 -0.017768803 0.51902246)
(0 -0.020338386 0.52295108)
(0 -0.023193377 0.52823877)
(0 -0.026613448 0.53704309)
(0 -0.031522165 0.55365991)
(0 -0.035863588 0.56232748)
(0 -0.030528793 0.47796072)
(0 -0.0035856171 0.19468618)
(0 7.4715727e-05 0.16256047)
(0 0.025858993 0.45264185)
(0 0.03713813 0.56944728)
(0 0.035167608 0.57098662)
(0 0.029855208 0.54995946)
(0 0.02615293 0.53711091)
(0 0.02328604 0.52990821)
(0 0.020668843 0.52477842)
(0 0.018290883 0.52079089)
(0 0.016123728 0.51766537)
(0 0.014146063 0.51520332)
(0 0.012335008 0.51325255)
(0 0.01066746 0.51170185)
(0 0.009122778 0.51046951)
(0 0.0076816787 0.50949478)
(0 0.0063263266 0.50873228)
(0 0.005040255 0.50814826)
(0 0.0038081461 0.50771797)
(0 0.0026156222 0.50742383)
(0 0.001449013 0.50725416)
(0 0.00029512207 0.50720244)
(0 -0.00085901918 0.50726681)
(0 -0.0020264346 0.50745002)
(0 -0.0032203759 0.50775959)
(0 -0.0044546322 0.50820828)
(0 -0.0057437475 0.50881499)
(0 -0.0071032526 0.50960613)
(0 -0.0085499103 0.51061758)
(0 -0.010101898 0.51189758)
(0 -0.011778737 0.51351086)
(0 -0.013602251 0.51554508)
(0 -0.015595694 0.51812)
(0 -0.017779724 0.52139382)
(0 -0.020186795 0.52558105)
(0 -0.022830461 0.53128583)
(0 -0.02602763 0.54103312)
(0 -0.030517623 0.55793569)
(0 -0.033378783 0.56022021)
(0 -0.025967791 0.46215992)
(0 -0.0017593124 0.1795621)
(0 -0.00072009911 0.15194952)
(0 0.021095102 0.43548859)
(0 0.033794087 0.56395256)
(0 0.033575238 0.57408727)
(0 0.028947704 0.55408891)
(0 0.025494536 0.54025933)
(0 0.022861989 0.53254723)
(0 0.020455767 0.52718461)
(0 0.018233906 0.52300328)
(0 0.016176942 0.51969732)
(0 0.014274123 0.5170734)
(0 0.012509658 0.51498013)
(0 0.010866622 0.51330561)
(0 0.0093293506 0.51196722)
(0 0.0078825272 0.51090317)
(0 0.0065115191 0.51006709)
(0 0.0052024164 0.5094243)
(0 0.0039419565 0.50894922)
(0 0.0027174464 0.50862361)
(0 0.0015166371 0.50843531)
(0 0.00032758577 0.50837751)
(0 -0.00086149465 0.50844828)
(0 -0.0020624393 0.50865049)
(0 -0.0032872155 0.50899197)
(0 -0.0045481443 0.509486)
(0 -0.0058580166 0.51015219)
(0 -0.007230212 0.5110178)
(0 -0.0086788091 0.51211971)
(0 -0.010218663 0.51350722)
(0 -0.011865132 0.51524617)
(0 -0.013634704 0.51742523)
(0 -0.015544576 0.52016453)
(0 -0.017607249 0.52362004)
(0 -0.019844274 0.52801743)
(0 -0.022281705 0.53411355)
(0 -0.025259797 0.5446822)
(0 -0.029268674 0.56120991)
(0 -0.030736917 0.55662931)
(0 -0.021863739 0.44687965)
(0 -0.00055833027 0.16735523)
(0 -0.0010723101 0.14363293)
(0 0.017188708 0.41954745)
(0 0.03063756 0.5573699)
(0 0.031880438 0.57601961)
(0 0.027970976 0.55775695)
(0 0.024753033 0.54317357)
(0 0.022321148 0.53496882)
(0 0.020111604 0.52940837)
(0 0.018043897 0.52507872)
(0 0.016101602 0.5216307)
(0 0.014282065 0.51887568)
(0 0.012575098 0.51666456)
(0 0.010968809 0.51488576)
(0 0.0094517218 0.5134566)
(0 0.0080120223 0.51231504)
(0 0.0066380151 0.51141437)
(0 0.0053182227 0.51071945)
(0 0.0040414155 0.51020432)
(0 0.0027966266 0.50985035)
(0 0.0015731119 0.50964513)
(0 0.00036029043 0.50958166)
(0 -0.00085232533 0.50965796)
(0 -0.0020752626 0.50987697)
(0 -0.0033190981 0.51024672)
(0 -0.0045946024 0.51078078)
(0 -0.0059127728 0.51149913)
(0 -0.0072848661 0.51242948)
(0 -0.0087224012 0.51360912)
(0 -0.010237168 0.51508777)
(0 -0.011840852 0.5169316)
(0 -0.013545376 0.51922933)
(0 -0.015362786 0.52210017)
(0 -0.017299114 0.52569711)
(0 -0.019369037 0.53026714)
(0 -0.021615954 0.53673355)
(0 -0.024383084 0.54797026)
(0 -0.027876955 0.56352676)
(0 -0.028108483 0.55191685)
(0 -0.018290729 0.43238482)
(0 0.00017572769 0.15751966)
(0 -0.0011554726 0.13705941)
(0 0.0140623 0.40489899)
(0 0.027748555 0.55007389)
(0 0.030171195 0.5769313)
(0 0.02697736 0.56097007)
(0 0.023981319 0.54587756)
(0 0.021715314 0.5371999)
(0 0.019681475 0.53146279)
(0 0.017759129 0.52702043)
(0 0.015929753 0.5234629)
(0 0.014196308 0.52060372)
(0 0.012552778 0.51829694)
(0 0.010991186 0.51643198)
(0 0.0095034414 0.51492661)
(0 0.0080806918 0.51371909)
(0 0.0067138231 0.51276277)
(0 0.005393573 0.51202251)
(0 0.0041106287 0.51147222)
(0 0.0028557045 0.51109317)
(0 0.001619562 0.51087282)
(0 0.00039301066 0.51080412)
(0 -0.00083309535 0.51088503)
(0 -0.0020679334 0.51111855)
(0 -0.0033206625 0.51151276)
(0 -0.0046005048 0.51208134)
(0 -0.0059167131 0.51284441)
(0 -0.0072785434 0.51382976)
(0 -0.0086951793 0.51507471)
(0 -0.010175695 0.51662888)
(0 -0.011728662 0.51855818)
(0 -0.013362264 0.52095081)
(0 -0.015084393 0.52392411)
(0 -0.016896265 0.52762865)
(0 -0.018809566 0.53234379)
(0 -0.02088765 0.53915985)
(0 -0.023454594 0.55089088)
(0 -0.026424862 0.56496911)
(0 -0.025604653 0.54640103)
(0 -0.015260337 0.41882368)
(0 0.00058095893 0.14959277)
(0 -0.0010879164 0.13178931)
(0 0.01160522 0.3915347)
(0 0.025154864 0.54235849)
(0 0.028506261 0.57697685)
(0 0.026000172 0.563748)
(0 0.023214662 0.54839408)
(0 0.021082921 0.53926886)
(0 0.019200747 0.53336522)
(0 0.017410756 0.52883631)
(0 0.015688385 0.52519597)
(0 0.01403979 0.5222555)
(0 0.012461846 0.51987243)
(0 0.010949487 0.51793751)
(0 0.0094972316 0.51636929)
(0 0.0080986387 0.5151066)
(0 0.0067467782 0.51410319)
(0 0.0054343334 0.51332416)
(0 0.0041537342 0.51274355)
(0 0.0028972674 0.51234267)
(0 0.001657139 0.51210901)
(0 0.00042551639 0.5120355)
(0 -0.00080542493 0.51212012)
(0 -0.0020435322 0.51236582)
(0 -0.0032965828 0.5127807)
(0 -0.004572316 0.5133784)
(0 -0.0058783537 0.51417896)
(0 -0.0072221349 0.51520999)
(0 -0.0086107904 0.51650857)
(0 -0.01005108 0.51812387)
(0 -0.011549036 0.52012121)
(0 -0.013109921 0.52258782)
(0 -0.014738459 0.52563868)
(0 -0.016432644 0.52942375)
(0 -0.018204463 0.53426544)
(0 -0.020137305 0.54140898)
(0 -0.022515778 0.55345179)
(0 -0.024973376 0.56564178)
(0 -0.023288026 0.54034807)
(0 -0.012742893 0.40625837)
(0 0.00076645179 0.14318046)
(0 -0.00094608427 0.12747714)
(0 0.009698691 0.37938879)
(0 0.022852985 0.53444443)
(0 0.026920765 0.57630157)
(0 0.025058068 0.56611806)
(0 0.022474192 0.55074378)
(0 0.020450541 0.54120332)
(0 0.01869579 0.53513522)
(0 0.017023193 0.53053733)
(0 0.015399492 0.52683518)
(0 0.013831813 0.52383226)
(0 0.012318871 0.52138927)
(0 0.010857665 0.51939846)
(0 0.0094446291 0.51777924)
(0 0.0080752045 0.51647117)
(0 0.0067442484 0.51542856)
(0 0.0054461001 0.51461692)
(0 0.004174724 0.51401055)
(0 0.0029238317 0.51359096)
(0 0.0016869686 0.51334572)
(0 0.00045758125 0.51326783)
(0 -0.00077089971 0.51335525)
(0 -0.0020050582 0.51361092)
(0 -0.003251372 0.51404285)
(0 -0.0045162085 0.51466454)
(0 -0.0058057146 0.5154958)
(0 -0.0071257317 0.51656393)
(0 -0.0084816463 0.51790554)
(0 -0.00987832 0.51956917)
(0 -0.011319794 0.52161934)
(0 -0.012809152 0.52414209)
(0 -0.014348847 0.52725001)
(0 -0.015935113 0.53109523)
(0 -0.017582739 0.53605238)
(0 -0.01939297 0.54349841)
(0 -0.021594574 0.5556705)
(0 -0.023564419 0.56565514)
(0 -0.021186584 0.53396988)
(0 -0.01068585 0.39468872)
(0 0.00081251498 0.13794953)
(0 -0.00077746905 0.12386195)
(0 0.008230058 0.36836458)
(0 0.020822604 0.52649151)
(0 0.025432535 0.57503357)
(0 0.024159755 0.56810992)
(0 0.021770957 0.55294357)
(0 0.019835228 0.54302787)
(0 0.018185285 0.53679249)
(0 0.016614815 0.53213591)
(0 0.015080374 0.52838774)
(0 0.013588109 0.52533742)
(0 0.012137768 0.52284797)
(0 0.01072774 0.52081313)
(0 0.0093557864 0.51915315)
(0 0.0080187632 0.51780831)
(0 0.0067129433 0.51673356)
(0 0.0054340354 0.51589488)
(0 0.0041773183 0.51526695)
(0 0.0029377595 0.51483152)
(0 0.001710111 0.51457633)
(0 0.00048899004 0.51449443)
(0 -0.00073101664 0.51458383)
(0 -0.0019553291 0.5148474)
(0 -0.0031892387 0.51529302)
(0 -0.0044378803 0.51593399)
(0 -0.0057061048 0.5167898)
(0 -0.0069983896 0.51788734)
(0 -0.0083186848 0.51926264)
(0 -0.009670349 0.52096353)
(0 -0.011055931 0.52305368)
(0 -0.012476963 0.52561789)
(0 -0.013934394 0.52876662)
(0 -0.015423992 0.53265768)
(0 -0.016965041 0.53772478)
(0 -0.018672752 0.54544451)
(0 -0.020708424 0.55756955)
(0 -0.022224458 0.56511447)
(0 -0.019305352 0.52742889)
(0 -0.0090264156 0.38407462)
(0 0.0007756551 0.13362782)
(0 -0.00061006042 0.1207536)
(0 0.0071001329 0.35835349)
(0 0.019035656 0.51861223)
(0 0.024047371 0.57328214)
(0 0.023307599 0.56975306)
(0 0.021109303 0.55500633)
(0 0.019246964 0.54476284)
(0 0.017681841 0.53835528)
(0 0.016198969 0.53364458)
(0 0.014744211 0.52986169)
(0 0.013321131 0.52677563)
(0 0.011929904 0.52425052)
(0 0.010569788 0.52218141)
(0 0.0092394019 0.52048928)
(0 0.0079366216 0.51911507)
(0 0.0066588069 0.51801434)
(0 0.005402769 0.51715357)
(0 0.0041648855 0.51650782)
(0 0.0029412038 0.51605914)
(0 0.0017275367 0.51579545)
(0 0.00051954502 0.51570991)
(0 -0.00068714639 0.51580054)
(0 -0.0018969132 0.51607013)
(0 -0.0031139923 0.51652642)
(0 -0.004342439 0.51718246)
(0 -0.005585995 0.51805739)
(0 -0.0068480044 0.51917763)
(0 -0.0081312692 0.52057861)
(0 -0.0094380013 0.52230746)
(0 -0.010769683 0.52442703)
(0 -0.012126814 0.52702093)
(0 -0.013509455 0.53019812)
(0 -0.014914018 0.53412587)
(0 -0.016365247 0.53930099)
(0 -0.017987295 0.54726156)
(0 -0.019866924 0.55917352)
(0 -0.020967858 0.56411491)
(0 -0.017635009 0.52084625)
(0 -0.0076998627 0.3743536)
(0 0.00069428948 0.13000018)
(0 -0.00045878232 0.11801695)
(0 0.0062263347 0.34924634)
(0 0.017461961 0.5108835)
(0 0.022763311 0.57113896)
(0 0.022500137 0.57107561)
(0 0.020489285 0.55694141)
(0 0.018690676 0.54642427)
(0 0.017193471 0.53983964)
(0 0.015785 0.53507515)
(0 0.014400754 0.53126513)
(0 0.013040485 0.52815213)
(0 0.01170434 0.5255998)
(0 0.010392058 0.52350427)
(0 0.0091027539 0.52178709)
(0 0.0078350055 0.52038972)
(0 0.0065869797 0.51926826)
(0 0.005356353 0.51838966)
(0 0.0041404008 0.51772937)
(0 0.0029360791 0.51726972)
(0 0.0017401125 0.51699883)
(0 0.0005490713 0.51690997)
(0 -0.00064050922 0.51700115)
(0 -0.0018320893 0.51727511)
(0 -0.0030289903 0.51773942)
(0 -0.0042343439 0.51840687)
(0 -0.0054509657 0.51929624)
(0 -0.0066812819 0.52043348)
(0 -0.0079272053 0.52185344)
(0 -0.0091901072 0.52360263)
(0 -0.010470757 0.52574316)
(0 -0.011769025 0.5283576)
(0 -0.013084577 0.53155428)
(0 -0.014415369 0.53551373)
(0 -0.015791936 0.54079688)
(0 -0.017341778 0.54896158)
(0 -0.019073953 0.56050725)
(0 -0.019799967 0.56273961)
(0 -0.016158206 0.51431001)
(0 -0.0066449696 0.36545266)
(0 0.00059360247 0.12690031)
(0 -0.00033010253 0.11555789)
(0 0.0055429267 0.34093962)
(0 0.016072529 0.50335583)
(0 0.021573994 0.56868011)
(0 0.021733878 0.57210381)
(0 0.019908375 0.55875541)
(0 0.018167804 0.54802423)
(0 0.016724797 0.54125921)
(0 0.015379159 0.5364383)
(0 0.014056994 0.53260571)
(0 0.012753395 0.52947223)
(0 0.011468138 0.52689915)
(0 0.010201157 0.5247834)
(0 0.0089518032 0.52304688)
(0 0.0077191067 0.52163146)
(0 0.006501812 0.52049366)
(0 0.0052982571 0.51960085)
(0 0.0041064352 0.51892882)
(0 0.0029240512 0.51846016)
(0 0.0017485982 0.51818319)
(0 0.00057741924 0.51809127)
(0 -0.00059216448 0.51818243)
(0 -0.0017628281 0.51845935)
(0 -0.0029371196 0.51892941)
(0 -0.0041173945 0.51960515)
(0 -0.0053057132 0.52050502)
(0 -0.006503779 0.52165451)
(0 -0.0077128384 0.523088)
(0 -0.008933676 0.52485141)
(0 -0.010166627 0.52700631)
(0 -0.011411246 0.52963443)
(0 -0.012667176 0.53284446)
(0 -0.013934591 0.53683382)
(0 -0.015249644 0.54222565)
(0 -0.016737511 0.55055442)
(0 -0.018329472 0.56159468)
(0 -0.018719954 0.56105953)
(0 -0.014854031 0.50788223)
(0 -0.0058071341 0.35729567)
(0 0.00048934773 0.12420172)
(0 -0.00022535393 0.11331209)
(0 0.0049994241 0.33333875)
(0 0.014841212 0.4960606)
(0 0.020471088 0.56596846)
(0 0.021004557 0.57286176)
(0 0.019362699 0.56045276)
(0 0.017677527 0.54957142)
(0 0.016278023 0.54262526)
(0 0.014985355 0.53774343)
(0 0.01371775 0.53389047)
(0 0.012465141 0.53074104)
(0 0.011226671 0.52815206)
(0 0.010002266 0.52602084)
(0 0.0087913325 0.52426951)
(0 0.0075931687 0.52284017)
(0 0.0064069125 0.52168964)
(0 0.0052313939 0.52078561)
(0 0.0040651671 0.52010418)
(0 0.0029065415 0.51962818)
(0 0.0017536461 0.51934608)
(0 0.00060446984 0.51925135)
(0 -0.00054300578 0.51934202)
(0 -0.0016907962 0.51962069)
(0 -0.0028408055 0.52009459)
(0 -0.0039947524 0.52077603)
(0 -0.0051540977 0.52168315)
(0 -0.0063199896 0.52284106)
(0 -0.0074931954 0.5242837)
(0 -0.0086741166 0.5260566)
(0 -0.0098628664 0.52822087)
(0 -0.011058912 0.53085768)
(0 -0.01226215 0.53407729)
(0 -0.013475433 0.53809711)
(0 -0.014739967 0.54359786)
(0 -0.016173231 0.55204792)
(0 -0.017630991 0.56245805)
(0 -0.017723181 0.5591342)
(0 -0.013700904 0.50160509)
(0 -0.0051396868 0.34980812)
(0 0.00039074019 0.12180982)
(0 -0.00014300703 0.11123631)
(0 0.0045581666 0.32635951)
(0 0.01374528 0.48901563)
(0 0.019445828 0.56305597)
(0 0.020307918 0.57337147)
(0 0.018847891 0.56203632)
(0 0.017217703 0.55107165)
(0 0.01585371 0.5439468)
(0 0.01460579 0.5389986)
(0 0.013386173 0.53512565)
(0 0.012179452 0.53196328)
(0 0.010983921 0.52936193)
(0 0.0097993545 0.52721884)
(0 0.0086251012 0.52545621)
(0 0.0074605925 0.52401621)
(0 0.006305218 0.52285584)
(0 0.0051581621 0.52194305)
(0 0.0040184079 0.52125416)
(0 0.0028847425 0.52077219)
(0 0.0017558097 0.52048578)
(0 0.00063013232 0.52038844)
(0 -0.00049376946 0.52047822)
(0 -0.0016173678 0.52075766)
(0 -0.0027420361 0.52123384)
(0 -0.003868987 0.52191889)
(0 -0.0049992149 0.52283064)
(0 -0.0061334558 0.52399392)
(0 -0.007272149 0.52544234)
(0 -0.0084154702 0.52722112)
(0 -0.0095634631 0.52939109)
(0 -0.010715674 0.53203318)
(0 -0.011872451 0.53526045)
(0 -0.013039583 0.53931282)
(0 -0.014262474 0.54492161)
(0 -0.015646116 0.55344808)
(0 -0.016974678 0.56311757)
(0 -0.016802942 0.55701306)
(0 -0.012678304 0.49550599)
(0 -0.0046040798 0.34291993)
(0 0.00030261605 0.11965503)
(0 -8.01497e-05 0.10930161)
(0 0.0041917318 0.31992826)
(0 0.012765397 0.48222937)
(0 0.0184899 0.55998584)
(0 0.019640119 0.57365312)
(0 0.018359622 0.56350795)
(0 0.016785518 0.55252848)
(0 0.015451365 0.54523086)
(0 0.014241457 0.54021059)
(0 0.013064179 0.5363167)
(0 0.011898858 0.53314322)
(0 0.010742755 0.53053199)
(0 0.0095953922 0.52837969)
(0 0.0084560008 0.52660841)
(0 0.0073240495 0.52516028)
(0 0.0061990732 0.52399237)
(0 0.0050805021 0.52307277)
(0 0.0039676379 0.52237799)
(0 0.0028596386 0.52189119)
(0 0.0017555547 0.52160112)
(0 0.00065434176 0.52150135)
(0 -0.00044504723 0.52158995)
(0 -0.0015436459 0.52186936)
(0 -0.0026424018 0.52234659)
(0 -0.0037421343 0.52303355)
(0 -0.0048434837 0.52394789)
(0 -0.0059468917 0.52511419)
(0 -0.0070525885 0.52656582)
(0 -0.0081606414 0.52834784)
(0 -0.0092711291 0.53052096)
(0 -0.01038379 0.53316615)
(0 -0.011499568 0.53640057)
(0 -0.012627268 0.54048851)
(0 -0.013815439 0.54620285)
(0 -0.015152517 0.55475946)
(0 -0.016356122 0.56359144)
(0 -0.015951677 0.55473701)
(0 -0.011767661 0.48960159)
(0 -0.0041693719 0.33656708)
(0 0.00022696256 0.11768696)
(0 -3.3411421e-05 0.10748852)
(0 0.0038805437 0.31398133)
(0 0.01188532 0.47570393)
(0 0.017595857 0.55679421)
(0 0.018997897 0.57372534)
(0 0.017893895 0.56486893)
(0 0.016377924 0.55394374)
(0 0.015069852 0.54648276)
(0 0.013892528 0.54138502)
(0 0.012752787 0.5374683)
(0 0.011624972 0.53428463)
(0 0.010505154 0.5316652)
(0 0.0093925375 0.52950558)
(0 0.0082862024 0.52772763)
(0 0.0071855933 0.52627329)
(0 0.0060903132 0.52509961)
(0 0.0049999532 0.52417475)
(0 0.0039140457 0.52347532)
(0 0.0028320286 0.52298461)
(0 0.0017532678 0.52269142)
(0 0.00067706028 0.52258938)
(0 -0.00039729744 0.52267655)
(0 -0.0014704927 0.52295533)
(0 -0.0025431414 0.52343262)
(0 -0.0036157635 0.52412022)
(0 -0.0046887388 0.52503559)
(0 -0.005762309 0.52620314)
(0 -0.0068365868 0.52765612)
(0 -0.0079116148 0.52943952)
(0 -0.0089875726 0.53161407)
(0 -0.010064465 0.53426115)
(0 -0.011143934 0.53750329)
(0 -0.012237734 0.54163017)
(0 -0.013396376 0.54744569)
(0 -0.014688469 0.55598542)
(0 -0.015770847 0.56389595)
(0 -0.015161771 0.55233988)
(0 -0.01095271 0.48390087)
(0 -0.0038113185 0.3306922)
(0 0.0001639861 0.11586951)
(0 4.9522478e-07 0.10578356)
(0 0.0036108325 0.30846406)
(0 0.011091476 0.46943718)
(0 0.016757254 0.55351156)
(0 0.018378583 0.57360547)
(0 0.017447184 0.56612041)
(0 0.015991899 0.55531802)
(0 0.014707686 0.5477064)
(0 0.013558633 0.54252648)
(0 0.012452379 0.53858443)
(0 0.011358727 0.5353908)
(0 0.010272423 0.53276423)
(0 0.0091923035 0.53059859)
(0 0.0081172904 0.52881538)
(0 0.0070467648 0.52735626)
(0 0.005980343 0.52617816)
(0 0.0049177135 0.52524924)
(0 0.0038585679 0.52454614)
(0 0.0028025508 0.52405223)
(0 0.0017492666 0.52375636)
(0 0.00069827501 0.52365219)
(0 -0.00035086076 0.52373776)
(0 -0.0013985608 0.52401545)
(0 -0.0024451897 0.52449208)
(0 -0.0034910446 0.52517933)
(0 -0.0045363224 0.52609456)
(0 -0.0055811384 0.52726209)
(0 -0.0066255547 0.52871511)
(0 -0.0076696472 0.53049867)
(0 -0.0087137337 0.53267362)
(0 -0.0097581303 0.53532213)
(0 -0.010805249 0.53857325)
(0 -0.011869609 0.54274243)
(0 -0.013002429 0.54865277)
(0 -0.014250024 0.55712849)
(0 -0.015214628 0.56404576)
(0 -0.01442605 0.54984976)
(0 -0.010219499 0.47840747)
(0 -0.0035113018 0.32524464)
(0 0.00011285616 0.11417701)
(0 2.4495949e-05 0.10417693)
(0 0.0033729959 0.30332969)
(0 0.010372527 0.46342428)
(0 0.01596861 0.55016372)
(0 0.017780045 0.57330974)
(0 0.017016473 0.56726354)
(0 0.015624602 0.55665105)
(0 0.014363217 0.54890454)
(0 0.013239065 0.54363871)
(0 0.012162904 0.53966846)
(0 0.011100561 0.53646457)
(0 0.010045348 0.53383145)
(0 0.0089956984 0.53166065)
(0 0.0079503797 0.52987316)
(0 0.0069086863 0.52841029)
(0 0.0058702115 0.52722876)
(0 0.0048346938 0.52629667)
(0 0.0038019288 0.52559066)
(0 0.0027717075 0.52509411)
(0 0.0017438102 0.52479591)
(0 0.00071799344 0.52468972)
(0 -0.0003059783 0.52477359)
(0 -0.0013283244 0.52504985)
(0 -0.0023492238 0.52552527)
(0 -0.0033688143 0.52621147)
(0 -0.0043871716 0.52712575)
(0 -0.0054043398 0.52829238)
(0 -0.0064203787 0.52974458)
(0 -0.0074354343 0.53152753)
(0 -0.0084499798 0.53370235)
(0 -0.0094646679 0.53635238)
(0 -0.010482728 0.53961427)
(0 -0.011521165 0.54382878)
(0 -0.01263064 0.54982559)
(0 -0.013833465 0.55819065)
(0 -0.014683657 0.56405413)
(0 -0.013738032 0.54729008)
(0 -0.0095562301 0.47312134)
(0 -0.0032552637 0.32018006)
(0 7.2212123e-05 0.11259123)
(0 4.1046616e-05 0.10266106)
(0 0.0031603448 0.29853825)
(0 0.0097189637 0.45765865)
(0 0.015225291 0.54677279)
(0 0.017200591 0.57285343)
(0 0.016599237 0.56829975)
(0 0.015273439 0.55794201)
(0 0.014034755 0.55007903)
(0 0.012932915 0.54472472)
(0 0.011884015 0.54072321)
(0 0.010850552 0.53750837)