/*--------------------------------*- C++ -*----------------------------------*\
  =========                 |
  \\      /  F ield         | OpenFOAM: The Open Source CFD Toolbox
   \\    /   O peration     | Website:  https://openfoam.org
    \\  /    A nd           | Version:  10
     \\/     M anipulation  |
\*---------------------------------------------------------------------------*/
FoamFile
{
    format      ascii;
    class       surfaceScalarField;
    location    "0.16";
    object      phi;
}
// * * * * * * * * * * * * * * * * * * * * * * * * * * * * * * * * * * * * * //

dimensions      [1 0 -1 0 0 0 0];

internalField   nonuniform List<scalar> 
7860
(
3.9895183e-08
5.2881284e-07
1.2192112e-08
5.9641086e-07
7.4272779e-09
5.7347257e-07
5.4987166e-09
5.7063626e-07
4.1142792e-09
5.700921e-07
3.2004406e-09
5.6962148e-07
2.5584794e-09
5.6934959e-07
2.0787022e-09
5.6918739e-07
1.7087791e-09
5.6907752e-07
1.4161849e-09
5.6900018e-07
1.1791226e-09
5.6894464e-07
9.8282806e-10
5.6890387e-07
8.1695629e-10
5.6887344e-07
6.7401562e-10
5.6885051e-07
5.4843141e-10
5.6883315e-07
4.3594159e-10
5.6882005e-07
3.3319099e-10
5.6881031e-07
2.3745082e-10
5.6880329e-07
1.4641649e-10
5.6879859e-07
5.8055375e-11
5.6879591e-07
-2.9516948e-11
5.6879512e-07
-1.1814415e-10
5.6879618e-07
-2.0973441e-10
5.6879914e-07
-3.063669e-10
5.6880419e-07
-4.1042411e-10
5.6881161e-07
-5.2475473e-10
5.6882189e-07
-6.5289452e-10
5.688357e-07
-7.993792e-10
5.6885405e-07
-9.7020499e-10
5.688784e-07
-1.1735353e-09
5.6891091e-07
-1.4208738e-09
5.6895492e-07
-1.7290347e-09
5.6901575e-07
-2.1229999e-09
5.6910156e-07
-2.6426545e-09
5.6922727e-07
-3.3704142e-09
5.6943539e-07
-4.4618528e-09
5.6979908e-07
-6.0074536e-09
5.7025327e-07
-9.5066322e-09
5.7220688e-07
-2.9574189e-08
5.887753e-07
5.3913373e-07
5.9670599e-08
4.6914226e-07
3.6663713e-08
6.1941774e-07
2.2625987e-08
5.875103e-07
1.6251291e-08
5.7701096e-07
1.2288195e-08
5.740552e-07
9.6039871e-09
5.7230569e-07
7.6753122e-09
5.7127826e-07
6.2341294e-09
5.7062857e-07
5.1248364e-09
5.7018682e-07
4.247356e-09
5.6987766e-07
3.5363491e-09
5.6965565e-07
2.9476426e-09
5.6949258e-07
2.4501866e-09
5.693709e-07
2.0215014e-09
5.6927919e-07
1.6448677e-09
5.6920978e-07
1.3075033e-09
5.6915741e-07
9.9934618e-10
5.6911846e-07
7.1221287e-10
5.6909043e-07
4.3919252e-10
5.6907161e-07
1.7418828e-10
5.6906092e-07
-8.8451543e-11
5.6905776e-07
-3.5425557e-10
5.6906198e-07
-6.2894145e-10
5.6907383e-07
-9.1874712e-10
5.6909399e-07
-1.2308176e-09
5.6912368e-07
-1.5736956e-09
5.6916477e-07
-1.9579845e-09
5.6921999e-07
-2.3972865e-09
5.6929335e-07
-2.9095913e-09
5.693907e-07
-3.5193978e-09
5.6952071e-07
-4.2611325e-09
5.6969665e-07
-5.1851686e-09
5.6993979e-07
-6.3681408e-09
5.7028454e-07
-7.9287796e-09
5.707879e-07
-1.0070321e-08
5.7157693e-07
-1.3198918e-08
5.7292768e-07
-1.8129365e-08
5.7518372e-07
-2.817185e-08
5.8224936e-07
-4.5798606e-08
6.0640206e-07
4.9333512e-07
6.00059e-08
4.0913639e-07
5.0483055e-08
6.2894059e-07
3.3366657e-08
6.0462669e-07
2.4813622e-08
5.8556399e-07
1.9319157e-08
5.7954966e-07
1.5327503e-08
5.7629734e-07
1.2356927e-08
5.7424884e-07
1.0098066e-08
5.7288743e-07
8.3375341e-09
5.7194735e-07
6.9322028e-09
5.71283e-07
5.7859859e-09
5.7080187e-07
4.8321111e-09
5.7044645e-07
4.022806e-09
5.701802e-07
3.3230775e-09
5.6997892e-07
2.7066538e-09
5.698262e-07
2.1532944e-09
5.6971077e-07
1.6469655e-09
5.6962479e-07
1.1745592e-09
5.6956283e-07
7.2495929e-10
5.6952121e-07
2.8832865e-10
5.6949755e-07
-1.4446854e-10
5.6949056e-07
-5.823725e-10
5.6949989e-07
-1.0346213e-09
5.6952608e-07
-1.5112711e-09
5.6957064e-07
-2.0237986e-09
5.6963621e-07
-2.5858609e-09
5.6972683e-07
-3.2143069e-09
5.6984844e-07
-3.9305886e-09
5.7000963e-07
-4.7628113e-09
5.7022292e-07
-5.7487966e-09
5.705067e-07
-6.940742e-09
5.708886e-07
-8.4128591e-09
5.714119e-07
-1.0274562e-08
5.7214624e-07
-1.2687741e-08
5.7320108e-07
-1.5885582e-08
5.7477477e-07
-2.0230012e-08
5.7727211e-07
-2.6699022e-08
5.8165273e-07
-3.8938744e-08
5.9448909e-07
-4.8160444e-08
6.1562376e-07
4.4517468e-07
5.487525e-08
3.542612e-07
5.7445735e-08
6.2637011e-07
4.0461258e-08
6.2161115e-07
3.0772615e-08
5.9525263e-07
2.4636889e-08
5.8568539e-07
1.9946269e-08
5.8098796e-07
1.6307214e-08
5.7788789e-07
1.3461247e-08
5.757334e-07
1.1196241e-08
5.7421235e-07
9.3604818e-09
5.7311875e-07
7.8460744e-09
5.7231628e-07
6.5745201e-09
5.7171801e-07
5.487962e-09
5.7126676e-07
4.5430766e-09
5.709238e-07
3.706758e-09
5.7066252e-07
2.9531374e-09
5.7046439e-07
2.2614855e-09
5.7031644e-07
1.6146948e-09
5.7020962e-07
9.9814757e-10
5.7013775e-07
3.9883655e-10
5.7009686e-07
-1.9535869e-10
5.7008476e-07
-7.9631161e-10
5.7010084e-07
-1.4162701e-09
5.7014604e-07
-2.0685105e-09
5.7022288e-07
-2.7680886e-09
5.7033579e-07
-3.5327675e-09
5.7049151e-07
-4.3842243e-09
5.7069989e-07
-5.349684e-09
5.7097509e-07
-6.4641995e-09
5.7133744e-07
-7.7739121e-09
5.7181641e-07
-9.3406192e-09
5.7245531e-07
-1.124816e-08
5.7331944e-07
-1.3612818e-08
5.745109e-07
-1.6595963e-08
5.7618423e-07
-2.0395411e-08
5.7857421e-07
-2.5277853e-08
5.8215455e-07
-3.2502752e-08
5.8887763e-07
-4.5086666e-08
6.07073e-07
-4.6540025e-08
6.1707712e-07
3.9863465e-07
4.7961243e-08
3.0630004e-07
6.0067692e-08
6.1426371e-07
4.539108e-08
6.3628775e-07
3.4866718e-08
6.0577698e-07
2.8391289e-08
5.9216082e-07
2.3411236e-08
5.8596802e-07
1.9426318e-08
5.8187281e-07
1.622177e-08
5.7893795e-07
1.3613061e-08
5.7682106e-07
1.1460771e-08
5.7527104e-07
9.6597623e-09
5.7411728e-07
8.1299802e-09
5.7324779e-07
6.8103879e-09
5.7258635e-07
5.6539587e-09
5.7208023e-07
4.6239025e-09
5.7169258e-07
3.6909174e-09
5.7139738e-07
2.8311492e-09
5.7117621e-07
2.0246521e-09
5.7101612e-07
1.2542049e-09
5.709082e-07
5.0436529e-10
5.708467e-07
-2.3932292e-10
5.7082844e-07
-9.9103965e-10
5.7085256e-07
-1.765379e-09
5.7092037e-07
-2.5780719e-09
5.7103557e-07
-3.4468018e-09
5.7120452e-07
-4.392189e-09
5.7143689e-07
-5.4390301e-09
5.7174673e-07
-6.617908e-09
5.7215397e-07
-7.9673183e-09
5.7268685e-07
-9.5365437e-09
5.7338563e-07
-1.1389429e-08
5.7430819e-07
-1.3608809e-08
5.7553882e-07
-1.6303007e-08
5.7720509e-07
-1.9615657e-08
5.7949688e-07
-2.3717079e-08
5.8267564e-07
-2.8910097e-08
5.8734757e-07
-3.677069e-08
5.9673822e-07
-4.8444089e-08
6.187464e-07
-4.3182525e-08
6.1181555e-07
3.5545213e-07
4.03309e-08
2.6596927e-07
5.8982797e-08
5.956119e-07
4.8317771e-08
6.4695276e-07
3.7576484e-08
6.1651825e-07
3.0917555e-08
5.9881975e-07
2.588294e-08
5.9100263e-07
2.1769481e-08
5.8598627e-07
1.8382307e-08
5.8232512e-07
1.5568739e-08
5.7963463e-07
1.3206712e-08
5.7763307e-07
1.1200272e-08
5.7612372e-07
9.474109e-09
5.7497395e-07
7.9690646e-09
5.740914e-07
6.6382162e-09
5.7341108e-07
5.4439182e-09
5.7288687e-07
4.3555337e-09
5.7248576e-07
3.347655e-09
5.7218409e-07
2.3987038e-09
5.7196507e-07
1.4898137e-09
5.7181709e-07
6.0390941e-10
5.717326e-07
-2.7508352e-10
5.7170744e-07
-1.1629561e-09
5.7174043e-07
-2.0759185e-09
5.7183334e-07
-3.0313286e-09
5.7199098e-07
-4.0484973e-09
5.7222169e-07
-5.1496352e-09
5.7253803e-07
-6.3610043e-09
5.729581e-07
-7.7143522e-09
5.7350732e-07
-9.2487101e-09
5.742212e-07
-1.1012701e-08
5.7514962e-07
-1.306757e-08
5.7636306e-07
-1.549061e-08
5.7796186e-07
-1.8379249e-08
5.8009373e-07
-2.1857698e-08
5.8297533e-07
-2.6081798e-08
5.8689974e-07
-3.1460767e-08
5.9272654e-07
-3.9627006e-08
6.0490446e-07
-4.914671e-08
6.282661e-07
-3.8564473e-08
6.0123331e-07
3.1688765e-07
3.2856965e-08
2.3311247e-07
5.5236165e-08
5.7323286e-07
4.921616e-08
6.5297276e-07
3.9046342e-08
6.2668804e-07
3.2416041e-08
6.0545004e-07
2.7504553e-08
5.9591412e-07
2.3425183e-08
5.9006564e-07
1.9990376e-08
5.8575993e-07
1.7083548e-08
5.8254146e-07
1.4602458e-08
5.8011416e-07
1.2463298e-08
5.7826288e-07
1.0598798e-08
5.7683845e-07
8.9546966e-09
5.757355e-07
7.4867789e-09
5.74879e-07
6.1586925e-09
5.7421496e-07
4.940188e-09
5.7370427e-07
3.8056764e-09
5.733186e-07
2.7330529e-09
5.730377e-07
1.7027199e-09
5.7284742e-07
6.9675665e-10
5.7273856e-07
-3.0181315e-10
5.7270601e-07
-1.3096955e-09
5.7274831e-07
-2.3439918e-09
5.7286763e-07
-3.4228825e-09
5.7306987e-07
-4.5663683e-09
5.7336517e-07
-5.7971176e-09
5.7376878e-07
-7.1414631e-09
5.7430245e-07
-8.6306034e-09
5.7499646e-07
-1.0302052e-08
5.7589265e-07
-1.2201415e-08
5.7704899e-07
-1.4384776e-08
5.7854642e-07
-1.6921593e-08
5.8049868e-07
-1.9896741e-08
5.8306888e-07
-2.3411045e-08
5.8648963e-07
-2.7605947e-08
5.9109464e-07
-3.2999282e-08
5.9811987e-07
-4.0975137e-08
6.1288031e-07
-4.7655867e-08
6.3494683e-07
-3.3359986e-08
5.8693743e-07
2.8352767e-07
2.6182683e-08
2.0692999e-07
5.0116184e-08
5.492996e-07
4.8473208e-08
6.5461577e-07
3.947163e-08
6.3568958e-07
3.3058966e-08
6.1186269e-07
2.8394148e-08
6.0057894e-07
2.44759e-08
5.9398389e-07
2.1102457e-08
5.8913337e-07
1.81929e-08
5.8545101e-07
1.5667976e-08
5.8263909e-07
1.3458525e-08
5.8047233e-07
1.1507346e-08
5.7878963e-07
9.7668984e-09
5.7747595e-07
8.1973652e-09
5.7644853e-07
6.765188e-09
5.7564714e-07
5.441794e-09
5.7502766e-07
4.2025077e-09
5.7455789e-07
3.0256277e-09
5.7421457e-07
1.8916292e-09
5.7398142e-07
7.8246065e-10
5.7384773e-07
-3.19092e-10
5.7380756e-07
-1.430002e-09
5.7385922e-07
-2.5675938e-09
5.7400522e-07
-3.7501466e-09
5.7425243e-07
-4.9975365e-09
5.7461256e-07
-6.3319512e-09
5.7510319e-07
-7.7787027e-09
5.757492e-07
-9.3671743e-09
5.7658493e-07
-1.1131928e-08
5.7765741e-07
-1.3113973e-08
5.7903103e-07
-1.5362416e-08
5.8079486e-07
-1.7936575e-08
5.8307284e-07
-2.0905945e-08
5.8603825e-07
-2.4345775e-08
5.8992946e-07
-2.8391531e-08
5.9514039e-07
-3.3647557e-08
6.033759e-07
-4.1018211e-08
6.2025097e-07
-4.4758927e-08
6.3868755e-07
-2.8186339e-08
5.7036485e-07
2.5534133e-07
2.0563978e-08
1.8636626e-07
4.4563848e-08
5.2530007e-07
4.6617775e-08
6.5256192e-07
3.9128769e-08
6.4317855e-07
3.3060786e-08
6.1793066e-07
2.8695461e-08
6.0494426e-07
2.5017078e-08
5.9766227e-07
2.1784228e-08
5.9236622e-07
1.894156e-08
5.8829368e-07
1.6432988e-08
5.8514766e-07
1.4204987e-08
5.8270033e-07
1.2211347e-08
5.8078327e-07
1.0412259e-08
5.7927503e-07
8.7733347e-09
5.7808746e-07
7.2647876e-09
5.7715568e-07
5.8606183e-09
5.7643183e-07
4.5378756e-09
5.7588063e-07
3.2759901e-09
5.7547646e-07
2.0561683e-09
5.7520124e-07
8.6083467e-10
5.7504307e-07
-3.2688758e-10
5.7499528e-07
-1.5236733e-09
5.7505601e-07
-2.7464922e-09
5.7522804e-07
-4.0131104e-09
5.7551904e-07
-5.3426148e-09
5.7594207e-07
-6.755979e-09
5.7651656e-07
-8.2766801e-09
5.772699e-07
-9.9313843e-09
5.7823963e-07
-1.1750713e-08
5.7947673e-07
-1.3770035e-08
5.8105035e-07
-1.6030382e-08
5.8305521e-07
-1.8579642e-08
5.856221e-07
-2.147097e-08
5.8892958e-07
-2.475845e-08
5.9321694e-07
-2.8588084e-08
5.9897003e-07
-3.3606035e-08
6.0839385e-07
-4.0089569e-08
6.267345e-07
-4.1113952e-08
6.3971193e-07
-2.3396867e-08
5.5264776e-07
2.3194446e-07
1.6007876e-08
1.7035867e-07
3.9121532e-08
5.0218686e-07
4.4088066e-08
6.4759554e-07
3.8259408e-08
6.4900716e-07
3.2625526e-08
6.2356451e-07
2.8564455e-08
6.0900533e-07
2.5157806e-08
6.0106892e-07
2.2111984e-08
5.9541204e-07
1.938308e-08
5.9102259e-07
1.6934993e-08
5.8759574e-07
1.4728716e-08
5.8490661e-07
1.2728618e-08
5.8278336e-07
1.0902753e-08
5.811009e-07
9.2225626e-09
5.7976765e-07
7.6625365e-09
5.7871571e-07
6.1997886e-09
5.7789458e-07
4.8136327e-09
5.7726679e-07
3.4851551e-09
5.7680494e-07
2.1967932e-09
5.764896e-07
9.3192748e-10
5.7630793e-07
-3.2551579e-10
5.7625272e-07
-1.5914509e-09
5.7632194e-07
-2.8820247e-09
5.7651862e-07
-4.2140072e-09
5.7685103e-07
-5.6051906e-09
5.7733325e-07
-7.0748043e-09
5.7798617e-07
-8.6439418e-09
5.7883904e-07
-1.0335999e-08
5.7993169e-07
-1.2177129e-08
5.8131786e-07
-1.4196663e-08
5.8306989e-07
-1.6427471e-08
5.8528602e-07
-1.8906352e-08
5.8810098e-07
-2.1671506e-08
5.9169473e-07
-2.4763461e-08
5.963089e-07
-2.835068e-08
6.0255725e-07
-3.3058998e-08
6.1310217e-07
-3.8484134e-08
6.3215963e-07
-3.7163392e-08
6.3839119e-07
-1.9160889e-08
5.3464526e-07
2.1278357e-07
1.2415387e-08
1.5794362e-07
3.4088275e-08
4.8051456e-07
4.121324e-08
6.4047081e-07
3.7041624e-08
6.5317873e-07
3.1907206e-08
6.2869887e-07
2.813575e-08
6.1277678e-07
2.5001629e-08
6.0420304e-07
2.2162888e-08
5.9825078e-07
1.957448e-08
5.9361099e-07
1.721577e-08
5.8995445e-07
1.5060086e-08
5.870623e-07
1.3081078e-08
5.8476237e-07
1.1254069e-08
5.8292791e-07
9.5561632e-09
5.8146555e-07
7.9661991e-09
5.8030567e-07
6.4646203e-09
5.7939615e-07
5.0332963e-09
5.7869811e-07
3.6552952e-09
5.7818294e-07
2.3146278e-09
5.7783027e-07
9.9597769e-10
5.7762658e-07
-3.1557653e-10
5.7756428e-07
-1.6348392e-09
5.776412e-07
-2.9767842e-09
5.7786056e-07
-4.3568353e-09
5.7823108e-07
-5.7911451e-09
5.7876756e-07
-7.2968676e-09
5.7949189e-07
-8.8924186e-09
5.8043459e-07
-1.0597707e-08
5.8163698e-07
-1.2434343e-08
5.831545e-07
-1.4425799e-08
5.8506134e-07
-1.6597443e-08
5.8745766e-07
-1.8976217e-08
5.9047975e-07
-2.1587688e-08
5.943062e-07
-2.446607e-08
5.9918728e-07
-2.7805238e-08
6.0589641e-07
-3.2149045e-08
6.1744597e-07
-3.6443993e-08
6.3645458e-07
-3.3208429e-08
6.3515562e-07
-1.5539996e-08
5.1697682e-07
1.9724358e-07
9.6478704e-09
1.4829615e-07
2.9616329e-08
4.6054683e-07
3.8239883e-08
6.3184762e-07
3.5613498e-08
6.558051e-07
3.1016885e-08
6.3329542e-07
2.7513598e-08
6.1628005e-07
2.4635014e-08
6.0708163e-07
2.2005623e-08
6.0088017e-07
1.9569546e-08
5.9604707e-07
1.7316754e-08
5.9220724e-07
1.5230589e-08
5.8914846e-07
1.3292425e-08
5.8670054e-07
1.1483883e-08
5.8473645e-07
9.7871877e-09
5.8316225e-07
8.1852862e-09
5.8190758e-07
6.6619051e-09
5.8091953e-07
5.2015463e-09
5.8015847e-07
3.7894113e-09
5.7959507e-07
2.4112802e-09
5.792084e-07
1.0533613e-09
5.789845e-07
-2.9788055e-10
5.7891552e-07
-1.6559018e-09
5.7899922e-07
-3.0342688e-09
5.7923893e-07
-4.4468378e-09
5.7964365e-07
-5.9079245e-09
5.8022864e-07
-7.4324569e-09
5.8101643e-07
-9.0360976e-09
5.8203823e-07
-1.073532e-08
5.833362e-07
-1.2547435e-08
5.8496662e-07
-1.4490587e-08
5.8700449e-07
-1.6583574e-08
5.8955065e-07
-1.8844937e-08
5.9274111e-07
-2.1290272e-08
5.9675154e-07
-2.3953657e-08
6.0185066e-07
-2.7050467e-08
6.0899322e-07
-3.0994228e-08
6.2138973e-07
-3.4173193e-08
6.3963355e-07
-2.9454101e-08
6.3043653e-07
-1.2529475e-08
5.000522e-07
1.847141e-07
7.5564927e-09
1.4074012e-07
2.5753307e-08
4.4235093e-07
3.5338786e-08
6.2226265e-07
3.4084792e-08
6.570591e-07
3.0037425e-08
6.3734271e-07
2.6777861e-08
6.1953959e-07
2.4127533e-08
6.0973195e-07
2.1697866e-08
6.0330984e-07
1.9415464e-08
5.9832947e-07
1.7275917e-08
5.9434679e-07
1.527029e-08
5.9115409e-07
1.3386151e-08
5.8858467e-07
1.1610334e-08
5.8651227e-07
9.9294703e-09
5.8484311e-07
8.3301858e-09
5.8350686e-07
6.7992677e-09
5.8245045e-07
5.3237664e-09
5.8163397e-07
3.8910274e-09
5.8102781e-07
2.4886721e-09
5.8061076e-07
1.1045426e-09
5.8036863e-07
-2.7337999e-10
5.8029344e-07
-1.657069e-09
5.8038291e-07
-3.0585543e-09
5.8064041e-07
-4.4900161e-09
5.8107511e-07
-5.9638642e-09
5.8170249e-07
-7.4927925e-09
5.8254535e-07
-9.0897976e-09
5.8363523e-07
-1.0768144e-08
5.8501454e-07
-1.2541273e-08
5.8673974e-07
-1.4422683e-08
5.888859e-07
-1.6425625e-08
5.9155359e-07
-1.8561773e-08
5.9487726e-07
-2.0839725e-08
5.9902949e-07
-2.3298504e-08
6.0430944e-07
-2.6166569e-08
6.1186129e-07
-2.9695493e-08
6.2491866e-07
-3.1833273e-08
6.4177133e-07
-2.6022646e-08
6.246259e-07
-1.0082621e-08
4.8411217e-07
1.7463148e-07
6.0006722e-09
1.3473999e-07
2.2477383e-08
4.2587532e-07
3.2611729e-08
6.1212899e-07
3.2535843e-08
6.5713505e-07
2.9028782e-08
6.4084967e-07
2.598857e-08
6.2257977e-07
2.35344e-08
6.1218612e-07
2.1287088e-08
6.0555715e-07
1.9152328e-08
6.0046423e-07
1.7126608e-08
5.9637251e-07
1.5206487e-08
5.9307421e-07
1.338428e-08
5.9040688e-07
1.1650941e-08
5.882456e-07
9.9967384e-09
5.8649731e-07
8.4114617e-09
5.8509214e-07
6.8846308e-09
5.8397728e-07
5.4056541e-09
5.8311295e-07
3.9639282e-09
5.8246954e-07
2.5488902e-09
5.820258e-07
1.150033e-09
5.8176749e-07
-2.431055e-10
5.8168658e-07
-1.6409673e-09
5.8178077e-07
-3.0540065e-09
5.8205345e-07
-4.4927128e-09
5.8251381e-07
-5.9676198e-09
5.831774e-07
-7.4892855e-09
5.8406702e-07
-9.0682362e-09
5.8521418e-07
-1.0714861e-08
5.8666117e-07
-1.2439253e-08
5.8846414e-07
-1.4251029e-08
5.9069768e-07
-1.6158954e-08
5.9346152e-07
-1.8169415e-08
5.9688772e-07
-2.0287088e-08
6.0114716e-07
-2.2559459e-08
6.0658181e-07
-2.5216966e-08
6.1451879e-07
-2.8333302e-08
6.2803499e-07
-2.9538314e-08
6.4297634e-07
-2.2969231e-08
6.1805682e-07
-8.1309398e-09
4.6927388e-07
1.6650054e-07
4.8577006e-09
1.2988294e-07
1.9729969e-08
4.1100439e-07
3.0106909e-08
6.0175295e-07
3.1018888e-08
6.5622322e-07
2.8030314e-08
6.4383813e-07
2.5187872e-08
6.2542215e-07
2.2897611e-08
6.1447638e-07
2.081122e-08
6.0764355e-07
1.8813304e-08
6.0246215e-07
1.6897286e-08
5.9828853e-07
1.5063165e-08
5.9490833e-07
1.330669e-08
5.9216336e-07
1.162192e-08
5.8993037e-07
1.0001997e-08
5.8811723e-07
8.4393326e-09
5.866548e-07
6.9257981e-09
5.8549082e-07
5.452906e-09
5.8458584e-07
4.011942e-09
5.839105e-07
2.5940621e-09
5.8344367e-07
1.1903561e-09
5.8317119e-07
-2.0811149e-10
5.8308505e-07
-1.610274e-09
5.8318294e-07
-3.0250417e-09
5.8346822e-07
-4.4612717e-09
5.8395004e-07
-5.927724e-09
5.8464385e-07
-7.4329907e-09
5.8557229e-07
-8.9853929e-09
5.8676658e-07
-1.0592837e-08
5.8826861e-07
-1.226263e-08
5.9013393e-07
-1.400129e-08
5.9243634e-07
-1.5814125e-08
5.9527435e-07
-1.7703767e-08
5.9877736e-07
-1.9673762e-08
6.0311716e-07
-2.1781763e-08
6.0868981e-07
-2.4248223e-08
6.1698525e-07
-2.6966259e-08
6.3075303e-07
-2.7360299e-08
6.4337038e-07
-2.0303129e-08
6.1099965e-07
-6.5987494e-09
4.555695e-07
1.5990179e-07
4.025217e-09
1.2585849e-07
1.7438549e-08
3.9759266e-07
2.7838209e-08
5.9135444e-07
2.9564442e-08
6.5449723e-07
2.7065073e-08
6.4633738e-07
2.4402803e-08
6.2808435e-07
2.2247169e-08
6.1663201e-07
2.0299214e-08
6.095915e-07
1.842485e-08
6.0433651e-07
1.6611476e-08
6.001019e-07
1.4860757e-08
5.9665905e-07
1.3170769e-08
5.9385334e-07
1.1537789e-08
5.9156335e-07
9.9571376e-09
5.8969789e-07
8.4233133e-09
5.8818862e-07
6.9301504e-09
5.8698398e-07
5.4709797e-09
5.8604501e-07
4.0387727e-09
5.8534271e-07
2.6262595e-09
5.8485619e-07
1.2260221e-09
5.8457143e-07
-1.6943101e-10
5.844805e-07
-1.5676006e-09
5.8458111e-07
-2.9759379e-09
5.8487656e-07
-4.4017776e-09
5.8537588e-07
-5.8522586e-09
5.8609433e-07
-7.334222e-09
5.8705425e-07
-8.8540841e-09
5.8828645e-07
-1.0417681e-08
5.8983221e-07
-1.2030094e-08
5.9174634e-07
-1.3695473e-08
5.9410172e-07
-1.5416603e-08
5.9699548e-07
-1.7193724e-08
6.0055448e-07
-1.9031548e-08
6.0495498e-07
-2.0997955e-08
6.1065622e-07
-2.3292148e-08
6.1927945e-07
-2.5633967e-08
6.3309485e-07
-2.5338857e-08
6.4307527e-07
-1.8005726e-08
6.0366652e-07
-5.4116572e-09
4.4297543e-07
1.5449013e-07
3.4205474e-09
1.2243885e-07
1.5529278e-08
3.8548583e-07
2.5798937e-08
5.8108623e-07
2.8187807e-08
6.5210873e-07
2.6144778e-08
6.4838029e-07
2.3649088e-08
6.3057994e-07
2.1603234e-08
6.1867784e-07
1.9772153e-08
6.1142259e-07
1.800726e-08
6.0610141e-07
1.6287971e-08
6.0182119e-07
1.4616139e-08
5.9833088e-07
1.2991281e-08
5.954782e-07
1.1411171e-08
5.9314346e-07
9.8727038e-09
5.9123635e-07
8.3719884e-09
5.8968934e-07
6.9044435e-09
5.8845152e-07
5.4649289e-09
5.8748452e-07
4.0478797e-09
5.8675976e-07
2.647428e-09
5.8625664e-07
1.2575097e-09
5.8596135e-07
-1.2804077e-10
5.8586605e-07
-1.5154048e-09
5.8596847e-07
-2.9106962e-09
5.8627185e-07
-4.319871e-09
5.8678506e-07
-5.7486288e-09
5.8752309e-07
-7.2022962e-09
5.8850792e-07
-8.6856934e-09
5.8976984e-07
-1.0202988e-08
5.913495e-07
-1.1757548e-08
5.933009e-07
-1.3351798e-08
5.9569597e-07
-1.4986796e-08
5.9863048e-07
-1.6661557e-08
6.0222925e-07
-1.8383685e-08
6.0667711e-07
-2.0230069e-08
6.125026e-07
-2.2369046e-08
6.2141842e-07
-2.4361124e-08
6.3508693e-07
-2.3490697e-08
6.4220484e-07
-1.6042966e-08
5.9621879e-07
-4.5012416e-09
4.3143371e-07
1.4998889e-07
2.9790641e-09
1.1946086e-07
1.3933658e-08
3.7453349e-07
2.3971158e-08
5.7105054e-07
2.6894014e-08
6.4918642e-07
2.5273653e-08
6.5000053e-07
2.2934579e-08
6.3291889e-07
2.0978506e-08
6.2063389e-07
1.924477e-08
6.1315633e-07
1.7575585e-08
6.0777059e-07
1.5941332e-08
6.0345544e-07
1.4342854e-08
5.9992936e-07
1.2780421e-08
5.9704063e-07
1.1252744e-08
5.9467114e-07
9.7578002e-09
5.927313e-07
8.2928947e-09
5.9115424e-07
6.8546908e-09
5.8988973e-07
5.4393014e-09
5.8889991e-07
4.0424014e-09
5.8815666e-07
2.6593414e-09
5.876397e-07
1.2852557e-09
5.8733543e-07
-8.4835972e-11
5.8723614e-07
-1.4559306e-09
5.8733956e-07
-2.832948e-09
5.8764886e-07
-4.220628e-09
5.8817274e-07
-5.6234251e-09
5.8892589e-07
-7.0453896e-09
5.8992988e-07
-8.4900425e-09
5.912145e-07
-9.9602497e-09
5.9281971e-07
-1.1458114e-08
5.9479876e-07
-1.2984875e-08
5.9722273e-07
-1.4540512e-08
6.0018611e-07
-1.6123788e-08
6.0381252e-07
-1.7746361e-08
6.0829968e-07
-1.9492002e-08
6.1424824e-07
-2.1490587e-08
6.2341701e-07
-2.3161046e-08
6.3675739e-07
-2.1816861e-08
6.4086065e-07
-1.4373738e-08
5.8877567e-07
-3.8076004e-09
4.2086757e-07
1.4618129e-07
2.6519322e-09
1.1681019e-07
1.2591915e-08
3.6459617e-07
2.2332043e-08
5.6131262e-07
2.5681575e-08
6.4583765e-07
2.445114e-08
6.5123088e-07
2.2261806e-08
6.3510807e-07
2.0380226e-08
6.2251543e-07
1.8726893e-08
6.1480966e-07
1.7140632e-08
6.0935686e-07
1.5582535e-08
6.0501354e-07
1.40515e-08
6.0146039e-07
1.254802e-08
5.9854411e-07
1.1071329e-08
5.9614783e-07
9.6201005e-09
5.9418252e-07
8.1924916e-09
5.9258185e-07
6.786116e-09
5.912961e-07
5.3980897e-09
5.9028794e-07
4.0251149e-09
5.8952963e-07
2.6635778e-09
5.8900124e-07
1.3096496e-09
5.8868936e-07
-4.0613785e-11
5.885864e-07
-1.3911716e-09
5.8869012e-07
-2.7459021e-09
5.8900359e-07
-4.1084974e-09
5.8953533e-07
-5.4823598e-09
5.9029975e-07
-6.8704912e-09
5.9131801e-07
-8.2753839e-09
5.9261939e-07
-9.698924e-09
5.9424325e-07
-1.1142327e-08
5.9624217e-07
-1.2606075e-08
5.9868648e-07
-1.4089596e-08
6.0166963e-07
-1.5592168e-08
6.0531509e-07
-1.7130152e-08
6.0983767e-07
-1.879148e-08
6.1590957e-07
-2.0662057e-08
6.2528758e-07
-2.2038693e-08
6.3813402e-07
-2.0308521e-08
6.3913048e-07
-1.2955483e-08
5.8142263e-07
-3.2803293e-09
4.1119241e-07
1.4290096e-07
2.4034144e-09
1.1440826e-07
1.1454101e-08
3.5554861e-07
2.0857957e-08
5.5191145e-07
2.4545373e-08
6.4215126e-07
2.3673889e-08
6.5210232e-07
2.1629869e-08
6.3715191e-07
1.9811747e-08
6.2433349e-07
1.822464e-08
6.1639677e-07
1.6709868e-08
6.1087163e-07
1.5219625e-08
6.0650378e-07
1.3750172e-08
6.0292985e-07
1.230183e-08
5.9999246e-07
1.0874058e-08
5.975756e-07
9.4659351e-09
5.9559065e-07
8.0761961e-09
5.9397159e-07
6.7031587e-09
5.9266914e-07
5.3447226e-09
5.9164637e-07
3.9984237e-09
5.9087593e-07
2.6615108e-09
5.9033815e-07
1.3310338e-09
5.9001984e-07
3.9363451e-12
5.899135e-07
-1.3228548e-09
5.9001691e-07
-2.6523248e-09
5.9033306e-07
-3.9872836e-09
5.9087029e-07
-5.3302649e-09
5.9164273e-07
-6.6834304e-09
5.9267118e-07
-8.0484816e-09
5.9398444e-07
-9.4265966e-09
5.9562137e-07
-1.0818408e-08
5.9763398e-07
-1.2223977e-08
6.0009204e-07
-1.3642577e-08
6.0308823e-07
-1.5074593e-08
6.0674711e-07
-1.6541273e-08
6.1130435e-07
-1.8131697e-08
6.1749999e-07
-1.9884245e-08
6.2704013e-07
-2.0993338e-08
6.3924311e-07
-1.8951497e-08
6.3708864e-07
-1.1747958e-08
5.7421909e-07
-2.8784174e-09
4.0232287e-07
1.4002254e-07
2.2081325e-09
1.1220187e-07
1.0479729e-08
3.4728067e-07
1.952675e-08
5.4286766e-07
2.3478709e-08
6.3820064e-07
2.2937239e-08
6.5264381e-07
2.1035868e-08
6.3905307e-07
1.9273775e-08
6.2609551e-07
1.7741413e-08
6.1792913e-07
1.6288191e-08
6.1232486e-07
1.4858302e-08
6.0793367e-07
1.3444893e-08
6.0434325e-07
1.2047825e-08
6.0138952e-07
1.0666576e-08
5.9895685e-07
9.3004206e-09
5.969568e-07
7.9484604e-09
5.9532355e-07
6.6095162e-09
5.9400808e-07
5.2820858e-09
5.929738e-07
3.9643673e-09
5.9219365e-07
2.6543136e-09
5.916482e-07
1.3497045e-09
5.9132445e-07
4.822675e-11
5.9121498e-07
-1.2524411e-09
5.9131758e-07
-2.5545447e-09
5.9163517e-07
-3.8601644e-09
5.9217591e-07
-5.1711324e-09
5.929537e-07
-6.4889536e-09
5.93989e-07
-7.8147417e-09
5.9531023e-07
-9.1491889e-09
5.9695581e-07
-1.0492582e-08
5.9897737e-07
-1.184481e-08
6.0144427e-07
-1.3205291e-08
6.0444871e-07
-1.457593e-08
6.0811775e-07
-1.598268e-08
6.127111e-07
-1.7512703e-08
6.1903001e-07
-1.9155024e-08
6.2868245e-07
-2.0020764e-08
6.4010886e-07
-1.7729409e-08
6.3479728e-07
-1.0715225e-08
5.672049e-07
-2.5694125e-09
3.9417706e-07
1.3745313e-07
2.048602e-09
1.1015529e-07
9.6366537e-09
3.3969689e-07
1.8318795e-08
5.3418939e-07
2.2474582e-08
6.3404657e-07
2.2236189e-08
6.5288232e-07
2.0475917e-08
6.408131e-07
1.8765341e-08
6.2780598e-07
1.7278696e-08
6.1941576e-07
1.5878578e-08
6.1372498e-07
1.4502432e-08
6.0930982e-07
1.3140011e-08
6.0570567e-07
1.1790497e-08
6.0273904e-07
1.0453255e-08
6.0029409e-07
9.1276089e-09
5.9828245e-07
7.8128723e-09
5.9663829e-07
6.5082096e-09
5.9531275e-07
5.2125625e-09
5.9426945e-07
3.9246442e-09
5.9348157e-07
2.6429716e-09
5.9292987e-07
1.3659193e-09
5.926015e-07
9.1786224e-11
5.9248911e-07
-1.1811337e-09
5.925905e-07
-2.4544759e-09
5.9290851e-07
-3.7297323e-09
5.9345117e-07
-5.0081818e-09
5.9423215e-07
-6.2908302e-09
5.9527165e-07
-7.5783711e-09
5.9659777e-07
-8.8711856e-09
5.9824863e-07
-1.0169394e-08
6.0027558e-07
-1.1472885e-08
6.0274776e-07
-1.278144e-08
6.0575727e-07
-1.4098755e-08
6.0943506e-07
-1.5455015e-08
6.1406736e-07
-1.6932515e-08
6.2050751e-07
-1.8470565e-08
6.302205e-07
-1.9114874e-08
6.4075316e-07
-1.662561e-08
6.3230802e-07
-9.8261614e-09
5.6040545e-07
-2.3282033e-09
3.866791e-07
1.3512493e-07
1.9131517e-09
1.082445e-07
8.8997199e-09
3.327153e-07
1.7217283e-08
5.2587642e-07
2.1526395e-08
6.2973963e-07
2.1565969e-08
6.5284299e-07
1.9945824e-08
6.4243299e-07
1.8284497e-08
6.2946717e-07
1.6836688e-08
6.2086355e-07
1.5482621e-08
6.1507905e-07
1.4154496e-08
6.1063795e-07
1.2838551e-08
6.0702162e-07
1.1533129e-08
6.0404446e-07
1.0237399e-08
6.0158982e-07
8.9506412e-09
5.995692e-07
7.6722659e-09
5.9791666e-07
6.4016599e-09
5.9658335e-07
5.1380847e-09
5.9553302e-07
3.8806447e-09
5.9473901e-07
2.6282991e-09
5.9418222e-07
1.3798982e-09
5.938499e-07
1.3423418e-10
5.9373477e-07
-1.109901e-09
5.9383463e-07
-2.3536537e-09
5.9415226e-07
-3.5980507e-09
5.9469556e-07
-4.8439445e-09
5.9547804e-07
-6.0919735e-09
5.9651967e-07
-7.3425455e-09
5.9784834e-07
-8.5958651e-09
5.9950195e-07
-9.8520112e-09
6.0153173e-07
-1.1110996e-08
6.0400675e-07
-1.237311e-08
6.0701938e-07
-1.3643983e-08
6.1070593e-07
-1.4957357e-08
6.1538073e-07
-1.6387959e-08
6.2193811e-07
-1.7826208e-08
6.3165875e-07
-1.8268801e-08
6.4119576e-07
-1.5624375e-08
6.2966359e-07
-9.0545763e-09
5.5383566e-07
-2.1358168e-09
3.7976034e-07
1.3298911e-07
1.7942396e-09
1.06453e-07
8.2494047e-09
3.2626592e-07
1.6208108e-08
5.1792314e-07
2.0628283e-08
6.2532216e-07
2.0922325e-08
6.5254935e-07
1.9441487e-08
6.4391354e-07
1.7828799e-08
6.310797e-07
1.6414757e-08
6.2227756e-07
1.5100934e-08
6.1639288e-07
1.3815942e-08
6.1192294e-07
1.2542517e-08
6.0829504e-07
1.1278043e-08
6.0530893e-07
1.0021442e-08
6.0284642e-07
8.7718959e-09
6.0081875e-07
7.5288324e-09
5.9915973e-07
6.2917694e-09
5.9782042e-07
5.0601894e-09
5.967646e-07
3.8334866e-09
5.9596571e-07
2.6109595e-09
5.9540475e-07
1.3918306e-09
5.9506903e-07
1.752822e-10
5.9495132e-07
-1.0394996e-09
5.9504942e-07
-2.2532772e-09
5.9536604e-07
-3.4667176e-09
5.95909e-07
-4.6803545e-09
5.9669168e-07
-5.8945657e-09
5.9773389e-07
-7.1095781e-09
5.9906335e-07
-8.3255187e-09
6.0071789e-07
-9.542512e-09
6.0274872e-07
-1.0760769e-08
6.05225e-07
-1.1981186e-08
6.082398e-07
-1.3211373e-08
6.1193612e-07
-1.4487809e-08
6.1665717e-07
-1.5875264e-08
6.2332557e-07
-1.721705e-08
6.3300054e-07
-1.7475648e-08
6.4145435e-07
-1.4711526e-08
6.2689947e-07
-8.3788901e-09
5.4750302e-07
-1.9782514e-09
3.733597e-07
1.3101086e-07
1.6871446e-09
1.0476905e-07
7.6705976e-09
3.2028917e-07
1.5279549e-08
5.1032057e-07
1.9775205e-08
6.2082985e-07
2.0301627e-08
6.5202355e-07
1.8959113e-08
6.4525577e-07
1.739562e-08
6.3264299e-07
1.6011767e-08
6.2366138e-07
1.4733473e-08
6.1767117e-07
1.3487473e-08
6.1316894e-07
1.2253139e-08
6.0952938e-07
1.1026806e-08
6.0653527e-07
9.8071174e-09
6.0406611e-07
8.5931259e-09
6.0203274e-07
7.3842266e-09
6.0036863e-07
6.1800007e-09
5.9902464e-07
4.9800755e-09
5.9796453e-07
3.7840529e-09
5.9716173e-07
2.5914852e-09
5.9659731e-07
1.4018797e-09
5.9625863e-07
2.1472049e-10
5.9613848e-07
-9.7050149e-10
5.9623464e-07
-2.1542536e-09
5.9654979e-07
-3.3369325e-09
5.9709168e-07
-4.5188404e-09
5.9787358e-07
-5.7001799e-09
5.9891522e-07
-6.8810766e-09
6.0024425e-07
-8.0616495e-09
6.0189846e-07
-9.2421242e-09
6.0392919e-07
-1.0422955e-08
6.0640583e-07
-1.1605704e-08
6.0942255e-07
-1.2799917e-08
6.1313033e-07
-1.4043911e-08
6.1790116e-07
-1.5390478e-08
6.2467214e-07
-1.6638332e-08
6.3424839e-07
-1.6728927e-08
6.4154495e-07
-1.3874673e-08
6.2404522e-07
-7.7815955e-09
5.4140994e-07
-1.8454008e-09
3.6742351e-07
1.2916546e-07
1.5889964e-09
1.0318377e-07
7.1515657e-09
3.1473435e-07
1.4421888e-08
5.0305771e-07
1.89629e-08
6.1629291e-07
1.9700863e-08
6.5128648e-07
1.8495319e-08
6.4646103e-07
1.6982336e-08
6.3415573e-07
1.5626302e-08
6.2501735e-07
1.4379749e-08
6.1891773e-07
1.316926e-08
6.1437944e-07
1.1971072e-08
6.1072757e-07
1.0780404e-08
6.0772593e-07
9.595603e-09
6.0525091e-07
8.4155789e-09
6.0321277e-07
7.2396622e-09
6.0154454e-07
6.0674504e-09
6.0019685e-07
4.8986574e-09
5.9913332e-07
3.7330275e-09
5.9832736e-07
2.5702973e-09
5.9776004e-07
1.4101863e-09
5.9741874e-07
2.5240632e-10
5.9729626e-07
-9.0332154e-10
5.9739036e-07
-2.0572442e-09
5.9770371e-07
-3.2095608e-09
5.98244e-07
-4.360413e-09
5.9902444e-07
-5.5098935e-09
6.0006471e-07
-6.6580855e-09
6.0139244e-07
-7.8051468e-09
6.0304552e-07
-8.9514352e-09
6.0507548e-07
-1.009767e-08
6.0755207e-07
-1.1246112e-08
6.1057099e-07
-1.2408135e-08
6.1429236e-07
-1.3622954e-08
6.1911598e-07
-1.4929733e-08
6.2597892e-07
-1.608566e-08
6.3540432e-07
-1.6022788e-08
6.4148208e-07
-1.3103217e-08
6.2112565e-07
-7.2486457e-09
5.3555537e-07
-1.7301241e-09
3.6190499e-07
1.2743533e-07
1.4980871e-09
1.0169e-07
6.6831226e-09
3.0955828e-07
1.3627028e-08
4.9612252e-07
1.8187784e-08
6.1173708e-07
1.9117576e-08
6.5035791e-07
1.8047157e-08
6.4753119e-07
1.6586444e-08
6.3561615e-07
1.5256814e-08
6.2634691e-07
1.4039001e-08
6.2013554e-07
1.2861108e-08
6.1555734e-07
1.169655e-08