/*--------------------------------*- C++ -*----------------------------------*\
  =========                 |
  \\      /  F ield         | OpenFOAM: The Open Source CFD Toolbox
   \\    /   O peration     | Website:  https://openfoam.org
    \\  /    A nd           | Version:  10
     \\/     M anipulation  |
\*---------------------------------------------------------------------------*/
FoamFile
{
    format      ascii;
    class       surfaceScalarField;
    location    "0.16";
    object      phi_0;
}
// * * * * * * * * * * * * * * * * * * * * * * * * * * * * * * * * * * * * * //

dimensions      [1 0 -1 0 0 0 0];

internalField   nonuniform List<scalar> 
7860
(
3.9895142e-08
5.2881288e-07
1.219208e-08
5.9641085e-07
7.4272454e-09
5.7347257e-07
5.4986794e-09
5.7063626e-07
4.1142408e-09
5.7009211e-07
3.2004022e-09
5.6962148e-07
2.5584419e-09
5.6934959e-07
2.0786664e-09
5.6918739e-07
1.7087458e-09
5.6907752e-07
1.4161547e-09
5.6900018e-07
1.1790963e-09
5.6894464e-07
9.8280604e-10
5.6890387e-07
8.1693904e-10
5.6887344e-07
6.7400362e-10
5.688505e-07
5.4842503e-10
5.6883314e-07
4.3594115e-10
5.6882004e-07
3.3319671e-10
5.688103e-07
2.3746287e-10
5.6880329e-07
1.4643506e-10
5.6879858e-07
5.8080476e-11
5.6879591e-07
-2.9485272e-11
5.6879512e-07
-1.18106e-10
5.6879617e-07
-2.0968996e-10
5.6879914e-07
-3.0631637e-10
5.6880418e-07
-4.1036775e-10
5.6881161e-07
-5.2469294e-10
5.6882188e-07
-6.5282778e-10
5.688357e-07
-7.9930805e-10
5.6885404e-07
-9.7013001e-10
5.6887839e-07
-1.1734572e-09
5.689109e-07
-1.4207935e-09
5.6895492e-07
-1.7289531e-09
5.6901575e-07
-2.1229181e-09
5.6910156e-07
-2.6425738e-09
5.6922727e-07
-3.370336e-09
5.6943539e-07
-4.4617793e-09
5.6979909e-07
-6.0073903e-09
5.7025328e-07
-9.5065755e-09
5.7220689e-07
-2.957412e-08
5.8877529e-07
5.391338e-07
5.9670502e-08
4.691424e-07
3.6663598e-08
6.1941775e-07
2.2625875e-08
5.8751029e-07
1.6251172e-08
5.7701097e-07
1.2288073e-08
5.7405521e-07
9.603865e-09
5.7230569e-07
7.6751927e-09
5.7127826e-07
6.2340151e-09
5.7062856e-07
5.1247298e-09
5.7018681e-07
4.2472591e-09
5.6987765e-07
3.5362638e-09
5.6965564e-07
2.9475706e-09
5.6949256e-07
2.4501295e-09
5.6937088e-07
2.0214605e-09
5.6927917e-07
1.6448442e-09
5.6920976e-07
1.3074982e-09
5.6915739e-07
9.9936025e-10
5.6911844e-07
7.1224666e-10
5.690904e-07
4.3924647e-10
5.6907158e-07
1.7426257e-10
5.6906089e-07
-8.835689e-11
5.6905774e-07
-3.5414082e-10
5.6906196e-07
-6.2880703e-10
5.690738e-07
-9.1859374e-10
5.6909397e-07
-1.230646e-09
5.6912366e-07
-1.5735071e-09
5.6916474e-07
-1.9577805e-09
5.6921997e-07
-2.3970687e-09
5.6929333e-07
-2.9093614e-09
5.6939068e-07
-3.5191581e-09
5.695207e-07
-4.2608856e-09
5.6969664e-07
-5.1849174e-09
5.6993978e-07
-6.3678885e-09
5.7028453e-07
-7.9285303e-09
5.7078791e-07
-1.0070079e-08
5.7157694e-07
-1.319869e-08
5.729277e-07
-1.8129157e-08
5.7518375e-07
-2.8171649e-08
5.8224938e-07
-4.5798436e-08
6.0640208e-07
4.9333536e-07
6.0005753e-08
4.0913668e-07
5.0482843e-08
6.2894066e-07
3.3366452e-08
6.0462668e-07
2.4813412e-08
5.8556401e-07
1.9318942e-08
5.7954968e-07
1.5327287e-08
5.7629734e-07
1.2356717e-08
5.7424883e-07
1.0097865e-08
5.7288742e-07
8.3373463e-09
5.7194732e-07
6.9320318e-09
5.7128297e-07
5.785835e-09
5.7080183e-07
4.8319832e-09
5.7044641e-07
4.0227038e-09
5.7018016e-07
3.3230033e-09
5.6997887e-07
2.7066096e-09
5.6982615e-07
2.1532819e-09
5.6971072e-07
1.6469862e-09
5.6962473e-07
1.1746139e-09
5.6956277e-07
7.2504883e-10
5.6952115e-07
2.8845334e-10
5.6949749e-07
-1.4430868e-10
5.694905e-07
-5.8217784e-10
5.6949983e-07
-1.0343927e-09
5.6952602e-07
-1.5110095e-09
5.6957058e-07
-2.0235057e-09
5.6963615e-07
-2.5855385e-09
5.6972678e-07
-3.2139574e-09
5.6984839e-07
-3.9302148e-09
5.7000959e-07
-4.7624164e-09
5.7022288e-07
-5.7483843e-09
5.7050667e-07
-6.9403167e-09
5.7088858e-07
-8.4124258e-09
5.7141189e-07
-1.0274126e-08
5.7214623e-07
-1.268731e-08
5.7320109e-07
-1.5885162e-08
5.7477479e-07
-2.0229613e-08
5.7727215e-07
-2.6698648e-08
5.8165278e-07
-3.8938375e-08
5.9448911e-07
-4.8160172e-08
6.1562387e-07
4.4517519e-07
5.4875061e-08
3.5426167e-07
5.7445413e-08
6.2637032e-07
4.046094e-08
6.2161113e-07
3.0772301e-08
5.9525264e-07
2.4636569e-08
5.8568541e-07
1.994595e-08
5.8098796e-07
1.6306902e-08
5.7788788e-07
1.3460949e-08
5.7573337e-07
1.1195963e-08
5.7421231e-07
9.3602282e-09
5.731187e-07
7.8458501e-09
5.7231621e-07
6.5743295e-09
5.7171793e-07
5.4878089e-09
5.7126668e-07
4.5429644e-09
5.7092371e-07
3.7066895e-09
5.7066242e-07
2.9531152e-09
5.7046429e-07
2.2615115e-09
5.7031634e-07
1.6147704e-09
5.7020951e-07
9.9827391e-10
5.7013764e-07
3.990141e-10
5.7009675e-07
-1.9512987e-10
5.7008464e-07
-7.9603209e-10
5.7010073e-07
-1.4159409e-09
5.7014593e-07
-2.0681332e-09
5.7022278e-07
-2.7676654e-09
5.7033569e-07
-3.5323009e-09
5.7049141e-07
-4.3837179e-09
5.706998e-07
-5.3491418e-09
5.7097501e-07
-6.463626e-09
5.7133737e-07
-7.7733127e-09
5.7181635e-07
-9.3399999e-09
5.7245526e-07
-1.1247528e-08
5.7331942e-07
-1.361218e-08
5.7451089e-07
-1.659533e-08
5.7618424e-07
-2.0394793e-08
5.7857425e-07
-2.5277261e-08
5.8215462e-07
-3.2502179e-08
5.888777e-07
-4.50861e-08
6.0707303e-07
-4.6539652e-08
6.1707743e-07
3.9863554e-07
4.7961019e-08
3.0630075e-07
6.0067253e-08
6.1426414e-07
4.5390626e-08
6.3628774e-07
3.4866281e-08
6.0577698e-07
2.8390849e-08
5.9216084e-07
2.3410798e-08
5.8596801e-07
1.9425892e-08
5.8187278e-07
1.6221363e-08
5.789379e-07
1.3612681e-08
5.7682099e-07
1.1460425e-08
5.7527096e-07
9.6594559e-09
5.7411718e-07
8.1297192e-09
5.7324767e-07
6.8101773e-09
5.7258622e-07
5.6538031e-09
5.7208009e-07
4.6238056e-09
5.7169242e-07
3.6908826e-09
5.7139721e-07
2.8311791e-09
5.7117604e-07
2.0247487e-09
5.7101594e-07
1.2543696e-09
5.7090802e-07
5.0459868e-10
5.7084652e-07
-2.3902066e-10
5.7082826e-07
-9.906692e-10
5.7085238e-07
-1.7649417e-09
5.709202e-07
-2.5775698e-09
5.710354e-07
-3.4462378e-09
5.7120435e-07
-4.3915665e-09
5.7143674e-07
-5.4383536e-09
5.7174659e-07
-6.6171825e-09
5.7215384e-07
-7.96655e-09
5.7268674e-07
-9.5357394e-09
5.7338554e-07
-1.1388597e-08
5.7430812e-07
-1.3607957e-08
5.7553878e-07
-1.6302146e-08
5.7720508e-07
-1.9614799e-08
5.7949689e-07
-2.3716237e-08
5.8267569e-07
-2.8909281e-08
5.8734766e-07
-3.6769879e-08
5.967383e-07
-4.8443302e-08
6.1874645e-07
-4.3182055e-08
6.1181618e-07
3.5545348e-07
4.0330646e-08
2.6597023e-07
5.8982239e-08
5.9561264e-07
4.8317158e-08
6.4695281e-07
3.7575901e-08
6.1651822e-07
3.0916978e-08
5.9881976e-07
2.5882368e-08
5.9100262e-07
2.1768925e-08
5.8598622e-07
1.8381777e-08
5.8232504e-07
1.5568244e-08
5.7963452e-07
1.3206261e-08
5.7763294e-07
1.1199872e-08
5.7612357e-07
9.4737675e-09
5.7497377e-07
7.968788e-09
5.740912e-07
6.63801e-09
5.7341087e-07
5.4437874e-09
5.7288664e-07
4.3554823e-09
5.7248552e-07
3.3476864e-09
5.7218384e-07
2.3988206e-09
5.7196481e-07
1.4900176e-09
5.7181682e-07
6.0420134e-10
5.7173233e-07
-2.7470339e-10
5.7170717e-07
-1.1624885e-09
5.7174016e-07
-2.0753653e-09
5.7183307e-07
-3.030692e-09
5.7199073e-07
-4.0477809e-09
5.7222144e-07
-5.1488434e-09
5.725378e-07
-6.3601424e-09
5.7295789e-07
-7.7134267e-09
5.7350713e-07
-9.2477285e-09
5.7422104e-07
-1.1011671e-08
5.7514948e-07
-1.3066503e-08
5.7636295e-07
-1.5489516e-08
5.7796179e-07
-1.837814e-08
5.800937e-07
-2.1856589e-08
5.8297534e-07
-2.6080704e-08
5.868998e-07
-3.1459693e-08
5.9272665e-07
-3.9625918e-08
6.0490452e-07
-4.9145688e-08
6.2826622e-07
-3.8563912e-08
6.012344e-07
3.1688957e-07
3.2856685e-08
2.3311372e-07
5.5235486e-08
5.73234e-07
4.9215366e-08
6.5297293e-07
3.9045588e-08
6.2668797e-07
3.2415305e-08
6.0545004e-07
2.7503826e-08
5.959141e-07
2.3424478e-08
5.9006557e-07
1.9989704e-08
5.8575982e-07
1.7082922e-08
5.8254131e-07
1.4601886e-08
5.8011397e-07
1.246279e-08
5.7826266e-07
1.0598364e-08
5.768382e-07
8.9543432e-09
5.7573522e-07
7.4865132e-09
5.748787e-07
6.1585204e-09
5.7421464e-07
4.9401146e-09
5.7370392e-07
3.8057058e-09
5.7331824e-07
2.7331882e-09
5.7303733e-07
1.7029633e-09
5.7284705e-07
6.9710931e-10
5.7273819e-07
-3.0135101e-10
5.7270563e-07
-1.3091247e-09
5.7274793e-07
-2.3433142e-09
5.7286726e-07
-3.4221011e-09
5.7306952e-07
-4.5654872e-09
5.7336483e-07
-5.796142e-09
5.7376846e-07
-7.1403995e-09
5.7430215e-07
-8.6294594e-09
5.7499619e-07
-1.0300837e-08
5.7589241e-07
-1.2200138e-08
5.7704878e-07
-1.4383449e-08
5.7854626e-07
-1.692023e-08
5.8049857e-07
-1.9895355e-08
5.8306882e-07
-2.3409654e-08
5.8648964e-07
-2.7604568e-08
5.9109472e-07
-3.299791e-08
5.9811999e-07
-4.0973733e-08
6.1288034e-07
-4.7654596e-08
6.3494708e-07
-3.3359339e-08
5.8693914e-07
2.8353023e-07
2.6182376e-08
2.0693156e-07
5.0115379e-08
5.4930125e-07
4.8472212e-08
6.5461613e-07
3.9470673e-08
6.3568947e-07
3.3058045e-08
6.1186265e-07
2.8393244e-08
6.0057891e-07
2.4475024e-08
5.9398379e-07
2.1101624e-08
5.8913322e-07
1.8192122e-08
5.8545081e-07
1.5667266e-08
5.8263883e-07
1.3457894e-08
5.8047203e-07
1.1506805e-08
5.7878929e-07
9.7664555e-09
5.7747557e-07
8.197029e-09
5.7644812e-07
6.7649656e-09
5.756467e-07
5.4416916e-09
5.750272e-07
4.2025301e-09
5.7455741e-07
3.0257786e-09
5.7421408e-07
1.8919114e-09
5.7398091e-07
7.8287569e-10
5.7384722e-07
-3.1854389e-10
5.7380705e-07
-1.4293216e-09
5.7385871e-07
-2.5667834e-09
5.7400472e-07
-3.7492095e-09
5.7425194e-07
-4.9964774e-09
5.746121e-07
-6.3307761e-09
5.7510276e-07
-7.7774192e-09
5.7574879e-07
-9.3657912e-09
5.7658456e-07
-1.1130456e-08
5.7765708e-07
-1.3112424e-08
5.7903075e-07
-1.5360803e-08
5.8079464e-07
-1.7934914e-08
5.8307268e-07
-2.0904251e-08
5.8603816e-07
-2.4344069e-08
5.8992946e-07
-2.8389829e-08
5.9514048e-07
-3.3645842e-08
6.03376e-07
-4.1016453e-08
6.2025095e-07
-4.4757397e-08
6.3868803e-07
-2.8185612e-08
5.7036736e-07
2.5534462e-07
2.0563644e-08
1.8636817e-07
4.4562913e-08
5.2530233e-07
4.6616554e-08
6.5256257e-07
3.9127577e-08
6.431784e-07
3.305965e-08
6.1793056e-07
2.8694353e-08
6.049442e-07
2.5016005e-08
5.9766214e-07
2.1783208e-08
5.9236601e-07
1.8940608e-08
5.8829341e-07
1.6432119e-08
5.8514732e-07
1.4204213e-08
5.8269994e-07
1.2210682e-08
5.8078282e-07
1.0411712e-08
5.7927454e-07
8.7729152e-09
5.7808692e-07
7.2645044e-09
5.7715511e-07
5.8604785e-09
5.7643122e-07
4.537885e-09
5.7588e-07
3.2761533e-09
5.7547581e-07
2.0564884e-09
5.7520058e-07
8.613136e-10
5.750424e-07
-3.2624941e-10
5.7499461e-07
-1.5228767e-09
5.7505534e-07
-2.7455396e-09
5.7522739e-07
-4.0120056e-09
5.7551841e-07
-5.3413631e-09
5.7594145e-07
-6.7545872e-09
5.7651598e-07
-8.2751568e-09
5.7726936e-07
-9.9297396e-09
5.7823914e-07
-1.1748958e-08
5.794763e-07
-1.3768185e-08
5.8104998e-07
-1.6028452e-08
5.8305491e-07
-1.8577648e-08
5.8562188e-07
-2.1468933e-08
5.8892945e-07
-2.4756391e-08
5.9321692e-07
-2.8586018e-08
5.989701e-07
-3.3603929e-08
6.0839391e-07
-4.0087421e-08
6.2673445e-07
-4.1112154e-08
6.3971276e-07
-2.3396063e-08
5.5265127e-07
2.3194855e-07
1.6007513e-08
1.7036096e-07
3.9120458e-08
5.0218986e-07
4.4086597e-08
6.4759659e-07
3.8257943e-08
6.49007e-07
3.262414e-08
6.2356433e-07
2.8563112e-08
6.0900523e-07
2.5156509e-08
6.0106875e-07
2.2110751e-08
5.9541177e-07
1.9381929e-08
5.9102223e-07
1.6933942e-08
5.8759531e-07
1.4727779e-08
5.849061e-07
1.2727809e-08
5.8278279e-07
1.0902084e-08
5.8110026e-07
9.2220453e-09
5.7976696e-07
7.6621805e-09
5.7871497e-07
6.199602e-09
5.778938e-07
4.8136224e-09
5.7726598e-07
3.4853263e-09
5.7680411e-07
2.1971498e-09
5.7648876e-07
9.3247171e-10
5.7630707e-07
-3.2478324e-10
5.7625186e-07
-1.5905309e-09
5.7632109e-07
-2.8809198e-09
5.7651778e-07
-4.2127214e-09
5.7685021e-07
-5.60373e-09
5.7733246e-07
-7.0731765e-09
5.7798543e-07
-8.6421563e-09
5.7883834e-07
-1.0334067e-08
5.7993105e-07
-1.2175064e-08
5.8131729e-07
-1.4194481e-08
5.830694e-07
-1.642519e-08
5.8528562e-07
-1.890399e-08
5.8810068e-07
-2.1669085e-08
5.9169454e-07
-2.4761006e-08
5.9630884e-07
-2.83482e-08
6.025573e-07
-3.3056448e-08
6.1310216e-07
-3.8481558e-08
6.3215956e-07
-3.7161313e-08
6.3839251e-07
-1.9160009e-08
5.3464996e-07
2.1278854e-07
1.241499e-08
1.5794633e-07
3.4087052e-08
4.8051841e-07
4.1211498e-08
6.404724e-07
3.7039847e-08
6.5317861e-07
3.1905529e-08
6.2869859e-07
2.8134136e-08
6.1277661e-07
2.5000073e-08
6.0420281e-07
2.216141e-08
5.9825044e-07
1.9573102e-08
5.9361054e-07
1.7214509e-08
5.899539e-07
1.5058961e-08
5.8706165e-07
1.3080104e-08
5.8476164e-07
1.125326e-08
5.8292711e-07
9.555532e-09
5.8146468e-07
7.9657568e-09
5.8030475e-07
6.4643764e-09
5.7939518e-07
5.0332586e-09
5.786971e-07
3.6554699e-09
5.7818189e-07
2.3150193e-09
5.7782921e-07
9.9658866e-10
5.776255e-07
-3.1474502e-10
5.775632e-07
-1.633788e-09
5.7764013e-07
-2.9755158e-09
5.778595e-07
-4.3553544e-09
5.7823005e-07
-5.789458e-09
5.7876656e-07
-7.2949829e-09
5.7949095e-07
-8.8903467e-09
5.804337e-07
-1.0595461e-08
5.8163616e-07
-1.2431937e-08
5.8315377e-07
-1.4423251e-08
5.8506071e-07
-1.6594772e-08
5.8745714e-07
-1.8973444e-08
5.9047935e-07
-2.158484e-08
5.9430594e-07
-2.4463172e-08
5.9918717e-07
-2.780229e-08
6.0589641e-07
-3.2145994e-08
6.1744586e-07
-3.644095e-08
6.3645451e-07
-3.3206054e-08
6.3515762e-07
-1.5539037e-08
5.1698295e-07
1.9724951e-07
9.6474351e-09
1.482993e-07
2.9614943e-08
4.6055167e-07
3.8237839e-08
6.3184988e-07
3.5611366e-08
6.5580506e-07
3.1014871e-08
6.3329502e-07
2.7511673e-08
6.1627979e-07
2.4633164e-08
6.0708132e-07
2.2003867e-08
6.0087973e-07
1.9567908e-08
5.960465e-07
1.7315256e-08
5.9220655e-07
1.5229249e-08
5.8914766e-07
1.3291261e-08
5.8669963e-07
1.1482912e-08
5.8473545e-07
9.7864244e-09
5.8316117e-07
8.1847425e-09
5.8190643e-07
6.6615919e-09
5.8091833e-07
5.2014725e-09
5.8015721e-07
3.7895839e-09
5.7959378e-07
2.4117044e-09
5.7920709e-07
1.0540403e-09
5.7898317e-07
-2.9694534e-10
5.7891418e-07
-1.654711e-09
5.7899789e-07
-3.0328252e-09
5.7923762e-07
-4.4451461e-09
5.7964237e-07
-5.9059917e-09
5.8022741e-07
-7.4302922e-09
5.8101525e-07
-9.0337125e-09
5.8203712e-07
-1.0732728e-08
5.8333518e-07
-1.2544654e-08
5.849657e-07
-1.4487635e-08
5.8700369e-07
-1.6580472e-08
5.8954997e-07
-1.884171e-08
5.9274059e-07
-2.1286947e-08
5.9675117e-07
-2.3950262e-08
6.0185048e-07
-2.7046991e-08
6.0899314e-07
-3.0990617e-08
6.2138949e-07
-3.416964e-08
6.3963353e-07
-2.945141e-08
6.3043939e-07
-1.2528432e-08
5.0005997e-07
1.8472107e-07
7.5560139e-09
1.4074377e-07
2.5751742e-08
4.4235689e-07
3.5336408e-08
6.2226574e-07
3.4082258e-08
6.5705922e-07
3.0035025e-08
6.3734217e-07
2.677558e-08
6.1953921e-07
2.4125347e-08
6.0973155e-07
2.1695794e-08
6.0330929e-07
1.9413531e-08
5.9832876e-07
1.7274148e-08
5.9434593e-07
1.5268705e-08
5.911531e-07
1.3384772e-08
5.8858356e-07
1.1609179e-08
5.8651105e-07
9.9285547e-09
5.8484179e-07
8.329524e-09
5.8350546e-07
6.7988718e-09
5.8244898e-07
5.3236465e-09
5.8163244e-07
3.8911916e-09
5.8102624e-07
2.4891264e-09
5.8060915e-07
1.1052908e-09
5.80367e-07
-2.7233622e-10
5.8029181e-07
-1.65573e-09
5.8038129e-07
-3.0569227e-09
5.8063881e-07
-4.488097e-09
5.8107354e-07
-5.9616649e-09
5.8170098e-07
-7.490323e-09
5.8254391e-07
-9.0870703e-09
5.8363387e-07
-1.0765174e-08
5.8501328e-07
-1.2538078e-08
5.867386e-07
-1.4419284e-08
5.888849e-07
-1.6422046e-08
5.9155274e-07
-1.855804e-08
5.9487658e-07
-2.0835869e-08
5.99029e-07
-2.3294551e-08
6.0430916e-07
-2.6162497e-08
6.1186109e-07
-2.9691256e-08
6.2491825e-07
-3.1829164e-08
6.4177144e-07
-2.6019616e-08
6.2462984e-07
-1.0081486e-08
4.8412184e-07
1.7463959e-07
6.0001443e-09
1.347442e-07
2.2475622e-08
4.2588257e-07
3.2608984e-08
6.121331e-07
3.2532856e-08
6.5713542e-07
2.9025941e-08
6.4084898e-07
2.5985882e-08
6.2257923e-07
2.3531833e-08
6.121856e-07
2.1284656e-08
6.0555647e-07
1.9150059e-08
6.0046336e-07
1.7124531e-08
5.9637146e-07
1.5204626e-08
5.93073e-07
1.3382656e-08
5.9040553e-07
1.1649575e-08
5.8824413e-07
9.995648e-09
5.8649572e-07
8.4106629e-09
5.8509045e-07
6.8841372e-09
5.8397551e-07
5.405477e-09
5.831111e-07
3.9640767e-09
5.8246764e-07
2.5493711e-09
5.8202386e-07
1.150851e-09
5.8176552e-07
-2.4194826e-10
5.8168461e-07
-1.6394709e-09
5.8177881e-07
-3.0521736e-09
5.8205151e-07
-4.4905485e-09
5.8251192e-07
-5.9651319e-09
5.8317556e-07
-7.4864844e-09
5.8406526e-07
-9.0651353e-09
5.8521252e-07
-1.0711477e-08
5.8665962e-07
-1.2435604e-08
5.8846273e-07
-1.4247139e-08
5.9069643e-07
-1.6154847e-08
5.9346044e-07
-1.8165121e-08
5.9688685e-07
-2.0282642e-08
6.0114652e-07
-2.2554882e-08
6.065814e-07
-2.5212224e-08
6.1451843e-07
-2.8328367e-08
6.2803439e-07
-2.9533596e-08
6.4297667e-07
-2.2965833e-08
6.1806208e-07
-8.1297025e-09
4.6928571e-07
1.6650989e-07
4.8571179e-09
1.2988776e-07
1.9727992e-08
4.1101309e-07
3.0103757e-08
6.0175827e-07
3.1015393e-08
6.5622393e-07
2.8026968e-08
6.4383729e-07
2.518472e-08
6.2542142e-07
2.289461e-08
6.1447571e-07
2.0808381e-08
6.076427e-07
1.8810657e-08
6.0246108e-07
1.6894861e-08
5.9828726e-07
1.5060989e-08
5.9490688e-07
1.3304788e-08
5.9216173e-07
1.1620314e-08
5.899286e-07
1.0000707e-08
5.8811533e-07
8.438376e-09
5.8665278e-07
6.9251901e-09
5.8548869e-07
5.4526591e-09
5.8458363e-07
4.0120665e-09
5.8390823e-07
2.5945658e-09
5.8344136e-07
1.1912443e-09
5.8316884e-07
-2.0683595e-10
5.8308269e-07
-1.6086109e-09
5.8318058e-07
-3.0229934e-09
5.8346589e-07
-4.4588435e-09
5.8394777e-07
-5.9249238e-09
5.8464164e-07
-7.4298295e-09
5.8557017e-07
-8.9818847e-09
5.8676457e-07
-1.0588999e-08
5.8826674e-07
-1.2258483e-08
5.9013221e-07
-1.3996859e-08
5.924348e-07
-1.5809436e-08
5.9527302e-07
-1.7698853e-08
5.9877627e-07
-1.9668659e-08
6.0311633e-07
-2.1776488e-08
6.0868923e-07
-2.424273e-08
6.1698467e-07
-2.696055e-08
6.3075221e-07
-2.7354914e-08
6.4337103e-07
-2.0299332e-08
6.1100649e-07
-6.5973991e-09
4.5558377e-07
1.5991249e-07
4.0245739e-09
1.2586399e-07
1.7436336e-08
3.97603e-07
2.7834612e-08
5.913612e-07
2.9560379e-08
6.5449842e-07
2.7061157e-08
6.4633638e-07
2.4399122e-08
6.2808338e-07
2.2243678e-08
6.1663114e-07
2.0295915e-08
6.0959046e-07
1.8421775e-08
6.0433522e-07
1.6608659e-08
6.0010037e-07
1.4858227e-08
5.9665731e-07
1.3168553e-08
5.9385141e-07
1.1535912e-08
5.9156124e-07
9.9556205e-09
5.8969562e-07
8.4221759e-09
5.8818622e-07
6.9294093e-09
5.8698146e-07
5.4706489e-09
5.8604239e-07
4.0388637e-09
5.8534001e-07
2.6267811e-09
5.8485344e-07
1.2269804e-09
5.8456864e-07
-1.6803252e-10
5.844777e-07
-1.5657612e-09
5.8457831e-07
-2.9736597e-09
5.8487379e-07
-4.3990656e-09
5.8537317e-07
-5.8491209e-09
5.860917e-07
-7.3306701e-09
5.8705171e-07
-8.8501326e-09
5.8828404e-07
-1.0413349e-08
5.8982995e-07
-1.2025402e-08
5.9174426e-07
-1.3690447e-08
5.9409985e-07
-1.5411272e-08
5.9699385e-07
-1.7188124e-08
6.0055312e-07
-1.9025715e-08
6.0495392e-07
-2.0991899e-08
6.1065542e-07
-2.3285815e-08
6.1927859e-07
-2.56274e-08
6.330938e-07
-2.5332744e-08
6.4307638e-07
-1.8001494e-08
6.0367525e-07
-5.4101822e-09
4.4299246e-07
1.545023e-07
3.4198385e-09
1.2244511e-07
1.5526807e-08
3.8549802e-07
2.579485e-08
5.8109468e-07
2.818311e-08
6.5211055e-07
2.6140216e-08
6.4837915e-07
2.3644809e-08
6.3057868e-07
2.159919e-08
6.1867674e-07
1.9768337e-08
6.1142132e-07
1.8003706e-08
6.0609985e-07
1.6284714e-08
6.0181937e-07
1.4613211e-08
5.9832881e-07
1.2988711e-08
5.9547591e-07
1.1408987e-08
5.9314097e-07
9.8709295e-09
5.9123368e-07
8.3706446e-09
5.8968651e-07
6.9035486e-09
5.8844856e-07
5.4644984e-09
5.8748144e-07
4.0479262e-09
5.8675659e-07
2.6479615e-09
5.862534e-07
1.2585373e-09
5.8595807e-07
-1.2651492e-10
5.8586275e-07
-1.5133794e-09
5.8596518e-07
-2.9081728e-09
5.8626859e-07
-4.3168546e-09
5.8678185e-07
-5.7451274e-09
5.8751997e-07
-7.1983214e-09
5.8850491e-07
-8.6812603e-09
5.8976698e-07
-1.0198116e-08
5.9134681e-07
-1.1752259e-08
5.9329841e-07
-1.334612e-08
5.9569371e-07
-1.4980759e-08
5.9862849e-07
-1.6655199e-08
6.0222756e-07
-1.8377043e-08
6.0667576e-07
-2.0223145e-08
6.1250152e-07
-2.2361778e-08
6.2141722e-07
-2.4353609e-08
6.3508563e-07
-2.3483787e-08
6.4220656e-07
-1.6038261e-08
5.9622972e-07
-4.4996296e-09
4.3145383e-07
1.5000267e-07
2.9782843e-09
1.1946795e-07
1.3930907e-08
3.7454776e-07
2.3966533e-08
5.7106094e-07
2.6888613e-08
6.4918904e-07
2.5268366e-08
6.4999928e-07
2.2929624e-08
6.3291729e-07
2.0973838e-08
6.206325e-07
1.9240374e-08
6.1315479e-07
1.7571492e-08
6.0776874e-07
1.593758e-08
6.0345328e-07
1.4339479e-08
5.9992691e-07
1.2777455e-08
5.9703793e-07
1.1250215e-08
5.946682e-07
9.7557356e-09
5.9272816e-07
8.2913168e-09
5.9115092e-07
6.8536195e-09
5.8988625e-07
5.4387537e-09
5.8889631e-07
4.0423913e-09
5.8815295e-07
2.65988e-09
5.8763591e-07
1.2863511e-09
5.873316e-07
-8.3178676e-11
5.8723228e-07
-1.4537094e-09
5.8733571e-07
-2.830164e-09
5.8764504e-07
-4.2172857e-09
5.8816897e-07
-5.6195322e-09
5.8892221e-07
-7.0409578e-09
5.8992633e-07
-8.4850871e-09
5.912111e-07
-9.9547902e-09
5.9281651e-07
-1.1452175e-08
5.9479579e-07
-1.2978482e-08
5.9722002e-07
-1.45337e-08
6.001837e-07
-1.6116595e-08
6.0381045e-07
-1.7738824e-08
6.0829799e-07
-1.9484112e-08
6.1424681e-07
-2.1482278e-08
6.2341539e-07
-2.3152486e-08
6.3675584e-07
-2.1809082e-08
6.4086315e-07
-1.436852e-08
5.8878916e-07
-3.8058391e-09
4.2089115e-07
1.4619683e-07
2.6510767e-09
1.168182e-07
1.2588858e-08
3.6461276e-07
2.232683e-08
5.6132528e-07
2.5675396e-08
6.4584127e-07
2.444504e-08
6.5122954e-07
2.2256091e-08
6.3510608e-07
2.0374858e-08
6.2251369e-07
1.8721846e-08
6.148078e-07
1.7135936e-08
6.0935465e-07
1.5578231e-08
6.0501098e-07
1.4047626e-08
6.0145752e-07
1.254461e-08
5.9854095e-07
1.1068415e-08
5.961444e-07
9.6177097e-09
5.9417886e-07
8.1906491e-09
5.9257798e-07
6.7848434e-09
5.9129206e-07
5.3974055e-09
5.9028374e-07
4.0250344e-09
5.8952532e-07
2.6641134e-09
5.8899683e-07
1.3108105e-09
5.886849e-07
-3.8821385e-11
5.8858191e-07
-1.3887451e-09
5.8868563e-07
-2.7428417e-09
5.8899914e-07
-4.1048069e-09
5.8953094e-07
-5.4780467e-09
5.9029545e-07
-6.8655668e-09
5.9131385e-07
-8.2698636e-09
5.926154e-07
-9.6928273e-09
5.9423948e-07
-1.1135678e-08
5.9623864e-07
-1.2598903e-08
5.9868324e-07
-1.4081934e-08
6.0166673e-07
-1.5584057e-08
6.0531258e-07
-1.7121627e-08
6.0983556e-07
-1.8782519e-08
6.159077e-07
-2.0652595e-08
6.2528546e-07
-2.2028983e-08
6.3813222e-07
-2.0299795e-08
6.3913396e-07
-1.2949708e-08
5.8143907e-07
-3.2784066e-09
4.1121985e-07
1.4291843e-07
2.4024788e-09
1.1441727e-07
1.1450714e-08
3.555678e-07
2.0852104e-08
5.519267e-07
2.4538335e-08
6.4215611e-07
2.3666882e-08
6.5210095e-07
2.1623302e-08
6.3714947e-07
1.9805595e-08
6.2433134e-07
1.8218868e-08
6.1639452e-07
1.6704501e-08
6.1086902e-07
1.5214706e-08
6.0650078e-07
1.3745742e-08
6.0292648e-07
1.2297926e-08
5.9998876e-07
1.0870713e-08
5.9757161e-07
9.4631791e-09
5.9558639e-07
8.0740559e-09
5.9396711e-07
6.7016575e-09
5.9266446e-07
5.3438806e-09
5.9164152e-07
3.9982576e-09
5.9087094e-07
2.6620341e-09
5.9033306e-07
1.3322568e-09
5.9001468e-07
5.8661896e-12
5.899083e-07
-1.3202136e-09
5.9001171e-07
-2.6489721e-09
5.9032789e-07
-3.9832223e-09
5.9086519e-07
-5.3255018e-09
5.9163773e-07
-6.6779763e-09
5.9266633e-07
-8.0423515e-09
5.9397978e-07
-9.41981e-09
5.9561693e-07
-1.0810989e-08
5.9762982e-07
-1.2215955e-08
6.0008821e-07
-1.3633988e-08
6.0308477e-07
-1.5065476e-08
6.0674407e-07
-1.6531658e-08
6.1130174e-07
-1.8121553e-08
6.1749759e-07
-1.987351e-08
6.2703742e-07
-2.0982368e-08
6.3924108e-07
-1.894174e-08
6.3709333e-07
-1.1741579e-08
5.7423891e-07
-2.876321e-09
4.0235459e-07
1.4004211e-07
2.2071128e-09
1.1221198e-07
1.0475985e-08
3.4730276e-07
1.95202e-08
5.4288586e-07
2.3470727e-08
6.3820698e-07
2.2929224e-08
6.5264248e-07
2.1028348e-08
6.3905013e-07
1.9266748e-08
6.2609286e-07
1.7734832e-08
6.1792643e-07
1.6282077e-08
6.1232178e-07
1.4852699e-08
6.0793016e-07
1.3439845e-08
6.0433933e-07
1.2043372e-08
6.0138524e-07
1.0662752e-08
5.9895223e-07
9.2972572e-09
5.9695189e-07
7.9459867e-09
5.9531838e-07
6.607757e-09
5.9400269e-07
5.2810627e-09
5.9296821e-07
3.9640983e-09
5.9218791e-07
2.6548139e-09
5.9164234e-07
1.3509856e-09
5.913185e-07
5.0297268e-11
5.9120899e-07
-1.2495763e-09
5.9131158e-07
-2.5508837e-09
5.916292e-07
-3.8557093e-09
5.9217001e-07
-5.1658889e-09
5.9294791e-07
-6.4829315e-09
5.9398337e-07
-7.8079554e-09
5.953048e-07
-9.1416572e-09
5.9695063e-07
-1.0484329e-08
5.9897249e-07
-1.1835864e-08
6.0143974e-07
-1.3195688e-08
6.0444459e-07
-1.4565711e-08
6.0811409e-07
-1.5971869e-08
6.127079e-07
-1.7501253e-08
6.1902698e-07
-1.9142887e-08
6.2867905e-07
-2.0008415e-08
6.4010661e-07
-1.7718532e-08
6.3480345e-07
-1.0708194e-08
5.6722857e-07
-2.5671303e-09
3.9421353e-07
1.3747498e-07
2.0474944e-09
1.1016661e-07
9.6325273e-09
3.397222e-07
1.8311487e-08
5.3421095e-07
2.2465564e-08
6.340547e-07
2.2227057e-08
6.528811e-07
2.0467335e-08
6.408096e-07
1.8757339e-08
6.2780275e-07
1.7271218e-08
6.1941254e-07
1.5871637e-08
6.1372136e-07
1.4496073e-08
6.0930572e-07
1.313428e-08
6.0570113e-07
1.1785434e-08
6.0273408e-07
1.0448898e-08
6.0028877e-07
9.1239928e-09
5.9827679e-07
7.8100264e-09
5.9663234e-07
6.5061602e-09
5.9530655e-07
5.2113328e-09
5.9426304e-07
3.9242537e-09
5.9347498e-07
2.6434366e-09
5.9292316e-07
1.3672529e-09
5.9259469e-07
9.3998189e-11
5.9248225e-07
-1.1780369e-09
5.9258362e-07
-2.4504912e-09
5.9290166e-07
-3.7248603e-09
5.9344438e-07
-5.0024269e-09
5.9422548e-07
-6.2842009e-09
5.9526514e-07
-7.5708805e-09
5.9659148e-07
-8.8628517e-09
5.9824261e-07
-1.0160239e-08
6.0026988e-07
-1.1462938e-08
6.0274244e-07
-1.2770737e-08
6.0575239e-07
-1.4087333e-08
6.0943068e-07
-1.5442891e-08
6.1406346e-07
-1.691963e-08
6.2050371e-07
-1.845689e-08
6.3021631e-07
-1.910102e-08
6.4075074e-07
-1.661352e-08
6.3231595e-07
-9.818428e-09
5.6043348e-07
-2.3257236e-09
3.8672082e-07
1.3514925e-07
1.9119526e-09
1.0825713e-07
8.8951822e-09
3.3274418e-07
1.7209155e-08
5.2590178e-07
2.1516245e-08
6.2974988e-07
2.1555603e-08
6.52842e-07
1.9936063e-08
6.4242886e-07
1.8275413e-08
6.2946326e-07
1.6828216e-08
6.2085972e-07
1.5474765e-08
6.1507482e-07
1.4147301e-08
6.1063319e-07
1.2832065e-08
6.0701636e-07
1.1527394e-08
6.0403875e-07
1.0232455e-08
6.0158371e-07
8.9465235e-09
5.9956272e-07
7.6690062e-09
5.9790986e-07
6.3992859e-09
5.9657627e-07
5.1366208e-09
5.9552571e-07
3.8801119e-09
5.9473149e-07
2.6287151e-09
5.9417456e-07
1.3812774e-09
5.9384212e-07
1.3658789e-10
5.9372693e-07
-1.1065647e-09
5.9382677e-07
-2.3493303e-09
5.9414442e-07
-3.5927389e-09
5.9468779e-07
-4.837647e-09
5.9547039e-07
-6.0846971e-09
5.9651219e-07
-7.3343016e-09
5.9784108e-07
-8.5866698e-09
5.9949497e-07
-9.8418859e-09
6.015251e-07
-1.1099968e-08
6.0400052e-07
-1.2361213e-08
6.0701363e-07
-1.3631253e-08
6.1070072e-07
-1.49438e-08
6.15376e-07
-1.63735e-08
6.2193341e-07
-1.7810849e-08
6.3165366e-07
-1.8253311e-08
6.411932e-07
-1.5610974e-08
6.2967361e-07
-9.0460879e-09
5.5386859e-07
-2.1331279e-09
3.7980786e-07
1.3301612e-07
1.7929458e-09
1.0646707e-07
8.2444269e-09
3.2629875e-07
1.6199093e-08
5.1795279e-07
2.0616898e-08
6.2533491e-07
2.09106e-08
6.5254872e-07
1.943042e-08
6.4390875e-07
1.7818517e-08
6.3107499e-07
1.6405186e-08
6.2227302e-07
1.509207e-08
6.1638794e-07
1.3807826e-08
6.1191743e-07
1.2535199e-08
6.0828899e-07
1.1271568e-08
6.0530238e-07
1.0015851e-08
6.0283942e-07
8.7672249e-09
6.0081135e-07
7.5251146e-09
5.9915197e-07
6.2890338e-09
5.9781235e-07
5.0584616e-09
5.9675628e-07
3.8327889e-09
5.9595717e-07
2.6113109e-09
5.9539603e-07
1.393247e-09
5.9506019e-07
1.7777662e-10
5.949424e-07
-1.0359175e-09
5.9504046e-07
-2.2486007e-09
5.953571e-07
-3.4609436e-09
5.9590013e-07
-4.6734834e-09
5.9668293e-07
-5.886602e-09
5.9772531e-07
-7.1005309e-09
5.9905501e-07
-8.3154016e-09
6.0070984e-07
-9.5313442e-09
6.0274104e-07
-1.0748575e-08
6.0521775e-07
-1.1967998e-08
6.0823306e-07
-1.3197222e-08
6.1192995e-07
-1.4472688e-08
6.1665147e-07
-1.5859087e-08
6.2331981e-07
-1.7199856e-08
6.3299443e-07
-1.7458384e-08
6.4145173e-07
-1.4696712e-08
6.2691194e-07
-8.3695924e-09
5.4754147e-07
-1.9753416e-09
3.7341361e-07
1.3104078e-07
1.6857533e-09
1.0478468e-07
7.6651499e-09
3.2032638e-07
1.5269579e-08
5.1035504e-07
1.9762476e-08
6.208455e-07
2.028841e-08
6.5202344e-07
1.8946604e-08
6.4525026e-07
1.7384015e-08
6.3263737e-07
1.6000986e-08
6.2365601e-07
1.4723499e-08
6.1766543e-07
1.3478346e-08
6.1316259e-07
1.2244909e-08
6.0952243e-07
1.1019519e-08
6.0652777e-07
9.8008153e-09
6.0405813e-07
8.5878464e-09
6.0202432e-07
7.3800034e-09
6.0035981e-07
6.1768639e-09
5.9901549e-07
4.9780518e-09
5.9795509e-07
3.7831657e-09
5.9715205e-07
2.5917547e-09
5.9658744e-07
1.4033234e-09
5.9624862e-07
2.1735306e-10
5.9612837e-07
-9.6666829e-10
5.9622449e-07
-2.149211e-09
5.9653965e-07
-3.3306748e-09
5.970816e-07
-4.5113654e-09
5.9786362e-07
-5.6914891e-09
5.9890544e-07
-6.871176e-09
6.002347e-07
-8.0505496e-09
6.0188922e-07
-9.2298407e-09
6.0392033e-07
-1.0409509e-08
6.0639742e-07
-1.1591125e-08
6.0941467e-07
-1.2784229e-08
6.1312305e-07
-1.4027093e-08
6.1789433e-07
-1.5372428e-08
6.2466515e-07
-1.6619142e-08
6.3424114e-07
-1.6709745e-08
6.4154233e-07
-1.385834e-08
6.2406054e-07
-7.7714324e-09
5.4145456e-07
-1.8422586e-09
3.6748444e-07
1.2919852e-07
1.5875051e-09
1.0320108e-07
7.1456178e-09
3.1477639e-07
1.4410889e-08
5.0309758e-07
1.8948714e-08
6.1631194e-07
1.9686015e-08
6.5128706e-07
1.8481225e-08
6.4645475e-07
1.6969274e-08
6.3414906e-07
1.5614192e-08
6.2501103e-07
1.436856e-08
6.1891106e-07
1.3159026e-08
6.1437213e-07
1.1961844e-08
6.1071961e-07
1.0772229e-08
6.0771739e-07
9.5885234e-09
6.0524183e-07
8.4096327e-09
6.0320321e-07
7.2348838e-09
6.0153456e-07
6.0638706e-09
6.001865e-07
4.8963036e-09
5.9912266e-07
3.7319241e-09
5.9831643e-07
2.5704657e-09
5.977489e-07
1.4116456e-09
5.9740744e-07
2.5517291e-10
5.9728485e-07
-8.9923372e-10
5.9737889e-07
-2.0518238e-09
5.9769224e-07
-3.2027992e-09
5.9823257e-07
-4.3523047e-09
5.9901312e-07
-5.5004367e-09
6.0005357e-07
-6.6472819e-09
6.0138154e-07
-7.7930028e-09
6.0303494e-07
-8.9379622e-09
6.0506529e-07
-1.0082886e-08
6.0754234e-07
-1.1230039e-08
6.1056182e-07
-1.2390789e-08
6.142838e-07
-1.3604296e-08
6.1910784e-07
-1.4909651e-08
6.259705e-07
-1.6064309e-08
6.353958e-07
-1.6001538e-08
6.4147956e-07
-1.3085253e-08
6.2114425e-07
-7.2375592e-09
5.3560687e-07
-1.7267376e-09
3.6197361e-07
1.2747179e-07
1.4964937e-09
1.0170912e-07
6.6766436e-09
3.0960564e-07
1.3614924e-08
4.9616841e-07
1.817202e-08
6.1176e-07
1.9100949e-08
6.5035941e-07
1.8031323e-08
6.475241e-07
1.6571782e-08
6.356083e-07
1.5243247e-08
6.2633948e-07
1.4026483e-08
6.2012783e-07
1.2849667e-08
6.1554895e-07
1.1686234e-08
6.1188304e-07
1.0530241e-08