/*--------------------------------*- C++ -*----------------------------------*\
  =========                 |
  \\      /  F ield         | OpenFOAM: The Open Source CFD Toolbox
   \\    /   O peration     | Website:  https://openfoam.org
    \\  /    A nd           | Version:  10
     \\/     M anipulation  |
\*---------------------------------------------------------------------------*/
FoamFile
{
    format      ascii;
    class       volScalarField;
    location    "0.16";
    object      T;
}
// * * * * * * * * * * * * * * * * * * * * * * * * * * * * * * * * * * * * * //

dimensions      [0 0 0 1 0 0 0];

internalField   nonuniform List<scalar> 
4000
(
303.10134
299.34291
299.99042
300.00082
299.99993
300
300
300
300
300
300
300
300
300
300
300
300
300
300
300
300
300
300
300
300
300
300
300
300
300
300
300
300
300
300
300
300
300
300
300.00001
309.66339
298.49299
299.77922
300.00184
300.0008
299.99999
300
300
300
300
300
300
300
300
300
300
300
300
300
300
300
300
300
300
300
300
300
300
300
300
300
300
300
300
300
300
300
300
299.99999
300.00002
316.0041
298.68457
299.39223
299.9757
300.00406
300.00025
299.99999
300
300
300
300
300
300
300
300
300
300
300
300
300
300
300
300
300
300
300
300
300
300
300
300
300
300
300
300
300
300
299.99999
299.99999
300.00002
321.74199
299.84584
298.98484
299.89492
300.00716
300.00138
300
299.99999
300
300
300
300
300
300
300
300
300
300
300
300
300
300
300
300
300
300
300
300
300
300
300
300
300
300
300
300
299.99999
299.99999
299.99999
300.00003
326.67061
301.70028
298.71006
299.75316
300.00322
300.00378
300.00017
299.99998
300
300
300
300
300
300
300
300
300
300
300
300
300
300
300
300
300
300
300
300
300
300
300
300
300
300
299.99999
299.99999
299.99999
299.99998
299.99999
300.00004
330.68432
303.94757
298.66331
299.56837
299.98427
300.00696
300.00071
299.99996
299.99999
300
300
300
300
300
300
300
300
300
300
300
300
300
300
300
300
300
300
300
300
300
300
300
300
299.99999
299.99999
299.99999
299.99999
299.99998
300
300.00004
333.77339
306.33
298.87086
299.37381
299.94518
300.00937
300.0018
300
299.99998
299.99999
300
300
300
300
300
300
300
300
300
300
300
300
300
300
300
300
300
300
300
300
300
300
299.99999
299.99999
299.99999
299.99999
299.99998
299.99998
300
300.00004
336.02058
308.66302
299.30759
299.20398
299.88583
300.00889
300.00344
300.00014
299.99996
299.99999
300
300
300
300
300
300
300
300
300
300
300
300
300
300
300
300
300
300
300
300
300
299.99999
299.99999
299.99999
299.99999
299.99999
299.99998
299.99998
300.00001
300.00004
337.57246
310.83579
299.92374
299.08482
299.81058
300.00351
300.0054
300.00045
299.99995
299.99999
299.99999
300
300
300
300
300
300
300
300
300
300
300
300
300
300
300
300
300
300
300
299.99999
299.99999
299.99999
299.99999
299.99999
299.99998
299.99998
299.99998
300.00001
300.00004
338.60037
312.79557
300.66475
299.03077
299.72648
299.99192
300.00723
300.00099
299.99996
299.99998
299.99999
299.99999
300
300
300
300
300
300
300
300
300
300
300
300
300
300
300
300
300
299.99999
299.99999
299.99999
299.99999
299.99999
299.99999
299.99998
299.99998
299.99998
300.00002
300.00004
339.267
314.52947
301.48199
299.04623
299.64126
299.97371
300.00838
300.00174
300
299.99996
299.99999
299.99999
299.99999
300
300
300
300
300
300
300
300
300
300
300
300
300
300
300
299.99999
299.99999
299.99999
299.99999
299.99999
299.99999
299.99998
299.99998
299.99998
299.99999
300.00002
300.00004
339.70563
316.04873
302.33704
299.12851
299.56194
299.94933
300.00832
300.00267
300.00011
299.99995
299.99999
299.99999
299.99999
299.99999
300
300
300
300
300
300
300
300
300
300
300
300
300
299.99999
299.99999
299.99999
299.99999
299.99999
299.99999
299.99999
299.99998
299.99998
299.99998
299.99999
300.00002
300.00004
340.01286
317.37677
303.20227
299.2709
299.4941
299.91986
300.0066
300.00366
300.00029
299.99995
299.99998
299.99999
299.99999
299.99999
299.99999
299.99999
300
300
300
300
300
300
300
300
300
299.99999
299.99999
299.99999
299.99999
299.99999
299.99999
299.99999
299.99999
299.99999
299.99998
299.99998
299.99998
299.99999
300.00003
300.00004
340.25131
318.54107
304.05924
299.46497
299.44168
299.88677
300.00293
300.00459
300.00055
299.99995
299.99998
299.99999
299.99999
299.99999
299.99999
299.99999
299.99999
299.99999
300
300
300
300
300
299.99999
299.99999
299.99999
299.99999
299.99999
299.99999
299.99999
299.99999
299.99999
299.99999
299.99998
299.99998
299.99998
299.99998
300
300.00003
300.00004
340.45743
319.56844
304.89658
299.70216
299.40714
299.85166
299.99716
300.00532
300.00089
299.99997
299.99997
299.99999
299.99999
299.99999
299.99999
299.99999
299.99999
299.99999
299.99999
299.99999
299.99999
299.99999
299.99999
299.99999
299.99999
299.99999
299.99999
299.99999
299.99999
299.99999
299.99999
299.99999
299.99999
299.99998
299.99998
299.99997
299.99998
300
300.00003
300.00003
340.64994
320.48269
305.70787
299.9745
299.39171
299.81613
299.98933
300.00571
300.00128
300.00001
299.99996
299.99999
299.99999
299.99999
299.99999
299.99999
299.99999
299.99999
299.99999
299.99999
299.99999
299.99999
299.99999
299.99999
299.99999
299.99999
299.99999
299.99999
299.99999
299.99999
299.99999
299.99999
299.99999
299.99998
299.99998
299.99997
299.99998
300
300.00003
300.00003
340.83687
321.3038
306.49
300.27503
299.39573
299.78163
299.97955
300.00564
300.00171
300.00008
299.99996
299.99998
299.99999
299.99999
299.99999
299.99999
299.99999
299.99999
299.99999
299.99999
299.99999
299.99999
299.99999
299.99999
299.99999
299.99999
299.99999
299.99999
299.99999
299.99999
299.99999
299.99999
299.99998
299.99998
299.99998
299.99997
299.99998
300
300.00003
300.00003
341.02052
322.04794
307.2419
300.59782
299.41891
299.74945
299.96808
300.00501
300.00215
300.00017
299.99996
299.99998
299.99999
299.99999
299.99999
299.99999
299.99999
299.99999
299.99999
299.99999
299.99999
299.99999
299.99999
299.99999
299.99999
299.99999
299.99999
299.99999
299.99999
299.99999
299.99999
299.99999
299.99998
299.99998
299.99998
299.99997
299.99998
300.00001
300.00003
300.00003
341.20054
322.7279
307.96365
300.9379
299.46055
299.72068
299.95521
300.00375
300.00255
300.0003
299.99996
299.99998
299.99999
299.99999
299.99999
299.99999
299.99999
299.99999
299.99999
299.99999
299.99999
299.99999
299.99999
299.99999
299.99999
299.99999
299.99999
299.99999
299.99999
299.99999
299.99999
299.99999
299.99998
299.99998
299.99998
299.99997
299.99998
300.00001
300.00003
300.00003
341.37566
323.35362
308.65601
301.29115
299.51968
299.69622
299.94128
300.0018
300.00289
300.00044
299.99997
299.99998
299.99999
299.99999
299.99999
299.99999
299.99999
299.99999
299.99999
299.99999
299.99999
299.99999
299.99999
299.99999
299.99999
299.99999
299.99999
299.99999
299.99999
299.99999
299.99999
299.99998
299.99998
299.99998
299.99998
299.99997
299.99999
300.00001
300.00003
300.00003
341.54455
323.9328
309.31999
301.65415
299.59518
299.67677
299.92665
299.99916
300.00312
300.0006
299.99999
299.99997
299.99999
299.99999
299.99999
299.99999
299.99999
299.99999
299.99999
299.99999
299.99999
299.99999
299.99999
299.99999
299.99999
299.99999
299.99999
299.99999
299.99999
299.99999
299.99999
299.99998
299.99998
299.99998
299.99997
299.99998
299.99999
300.00001
300.00003
300.00003
341.70621
324.47141
309.95673
302.02404
299.68587
299.66289
299.9117
299.99583
300.00321
300.00078
300.00002
299.99997
299.99998
299.99999
299.99999
299.99999
299.99999
299.99999
299.99999
299.99999
299.99999
299.99999
299.99999
299.99999
299.99999
299.99999
299.99999
299.99999
299.99999
299.99999
299.99998
299.99998
299.99998
299.99998
299.99997
299.99998
299.99999
300.00002
300.00003
300.00003
341.86001
324.97415
310.56737
302.39841
299.79052
299.65498
299.89679
299.99185
300.00312
300.00096
300.00006
299.99997
299.99998
299.99999
299.99999
299.99999
299.99999
299.99999
299.99999
299.99999
299.99999
299.99999
299.99999
299.99999
299.99999
299.99999
299.99999
299.99999
299.99999
299.99999
299.99998
299.99998
299.99998
299.99998
299.99997
299.99998
299.99999
300.00002
300.00003
300.00003
342.00567
325.44475
311.15299
302.77526
299.90793
299.6533
299.88228
299.98726
300.00285
300.00113
300.0001
299.99997
299.99998
299.99999
299.99999
299.99999
299.99999
299.99999
299.99999
299.99999
299.99999
299.99999
299.99999
299.99999
299.99999
299.99999
299.99999
299.99999
299.99999
299.99999
299.99998
299.99998
299.99998
299.99998
299.99997
299.99998
299.99999
300.00002
300.00003
300.00003
342.1432
325.88624
311.71461
303.15286
300.03689
299.65803
299.86849
299.98214
300.00235
300.00129
300.00015
299.99998
299.99998
299.99999
299.99999
299.99999
299.99999
299.99999
299.99999
299.99999
299.99999
299.99999
299.99999
299.99999
299.99999
299.99999
299.99999
299.99999
299.99999
299.99998
299.99998
299.99998
299.99998
299.99998
299.99997
299.99998
300
300.00002
300.00003
300.00003
342.27276
326.30113
312.25318
303.52975
300.17626
299.66924
299.85574
299.97657
300.00162
300.00142
300.00021
299.99998
299.99998
299.99999
299.99999
299.99999
299.99999
299.99999
299.99999
299.99999
299.99999
299.99999
299.99999
299.99999
299.99999
299.99999
299.99999
299.99999
299.99999
299.99998
299.99998
299.99998
299.99998
299.99998
299.99997
299.99998
300
300.00002
300.00003
300.00003
342.39466
326.69153
312.76961
303.90467
300.32493
299.68693
299.8443
299.97064
300.00065
300.00151
300.00028
299.99999
299.99998
299.99998
299.99999
299.99999
299.99999
299.99999
299.99999
299.99999
299.99999
299.99999
299.99999
299.99999
299.99999
299.99999
299.99999
299.99999
299.99998
299.99998
299.99998
299.99998
299.99998
299.99997
299.99997
299.99998
300
300.00002
300.00003
300.00003
342.50923
327.05926
313.26471
304.27655
300.48183
299.71101
299.83443
299.96444
299.99944
300.00156
300.00035
300
299.99998
299.99998
299.99999
299.99999
299.99999
299.99999
299.99999
299.99999
299.99999
299.99999
299.99999
299.99999
299.99999
299.99999
299.99999
299.99999
299.99998
299.99998
299.99998
299.99998
299.99998
299.99997
299.99997
299.99998
300
300.00002
300.00003
300.00003
342.61682
327.40588
313.73925
304.64444
300.64596
299.74135
299.82634
299.9581
299.99799
300.00155
300.00042
300.00002
299.99998
299.99998
299.99999
299.99999
299.99999
299.99999
299.99999
299.99999
299.99999
299.99999
299.99999
299.99999
299.99999
299.99999
299.99999
299.99998
299.99998
299.99998
299.99998
299.99998
299.99998
299.99997
299.99997
299.99998
300
300.00002
300.00003
300.00003
342.71775
327.73273
314.19395
305.00754
300.81635
299.77777
299.82023
299.9517
299.99631
300.00147
300.00048
300.00003
299.99998
299.99998
299.99998
299.99999
299.99999
299.99999
299.99999
299.99999
299.99999
299.99999
299.99999
299.99999
299.99999
299.99999
299.99999
299.99998
299.99998
299.99998
299.99998
299.99998
299.99998
299.99997
299.99997
299.99998
300
300.00003
300.00003
300.00003
342.81233
328.04097
314.62944
305.36512
300.9921
299.82005
299.81626
299.94538
299.99441
300.00132
300.00055
300.00005
299.99998
299.99998
299.99998
299.99999
299.99999
299.99999
299.99999
299.99999
299.99999
299.99999
299.99999
299.99999
299.99999
299.99999
299.99998
299.99998
299.99998
299.99998
299.99998
299.99998
299.99998
299.99997
299.99997
299.99998
300
300.00003
300.00003
300.00003
342.90077
328.33157
315.04633
305.71656
301.17235
299.86794
299.81456
299.93922
299.99232
300.00109
300.0006
300.00008
299.99998
299.99998
299.99998
299.99998
299.99999
299.99999
299.99999
299.99999
299.99999
299.99999
299.99999
299.99999
299.99999
299.99998
299.99998
299.99998
299.99998
299.99998
299.99998
299.99998
299.99998
299.99997
299.99997
299.99998
300.00001
300.00003
300.00003
300.00003
342.98328
328.60537
315.44513
306.0613
301.35626
299.92116
299.81522
299.93334
299.99005
300.00078
300.00064
300.0001
299.99998
299.99998
299.99998
299.99998
299.99998
299.99998
299.99999
299.99999
299.99999
299.99999
299.99999
299.99999
299.99998
299.99998
299.99998
299.99998
299.99998
299.99998
299.99998
299.99998
299.99997
299.99997
299.99997
299.99999
300.00001
300.00003
300.00003
300.00004
343.05995
328.86301
315.8263
306.39881
301.54307
299.97939
299.81834
299.92784
299.98764
300.00039
300.00067
300.00012
299.99999
299.99998
299.99998
299.99998
299.99998
299.99998
299.99998
299.99998
299.99998
299.99998
299.99998
299.99998
299.99998
299.99998
299.99998
299.99998
299.99998
299.99998
299.99998
299.99998
299.99997
299.99997
299.99997
299.99999
300.00001
300.00003
300.00003
300.00004
343.13088
329.10499
316.1902
306.72865
301.73202
300.04231
299.82396
299.92281
299.98512
299.9999
300.00067
300.00015
299.99999
299.99998
299.99998
299.99998
299.99998
299.99998
299.99998
299.99998
299.99998
299.99998
299.99998
299.99998
299.99998
299.99998
299.99998
299.99998
299.99998
299.99998
299.99998
299.99998
299.99997
299.99997
299.99997
299.99999
300.00001
300.00003
300.00003
300.00004
343.19608
329.33167
316.53713
307.05035
301.92241
300.1096
299.8321
299.91835
299.98251
299.99934
300.00066
300.00017
300
299.99998
299.99998
299.99998
299.99998
299.99998
299.99998
299.99998
299.99998
299.99998
299.99998
299.99998
299.99998
299.99998
299.99998
299.99998
299.99998
299.99998
299.99998
299.99998
299.99997
299.99997
299.99998
299.99999
300.00001
300.00003
300.00003
300.00004
343.25551
329.54326
316.86731
307.36349
302.11355
300.18088
299.84278
299.91454
299.97986
299.99869
300.00063
300.0002
300.00001
299.99998
299.99998
299.99998
299.99998
299.99998
299.99998
299.99998
299.99998
299.99998
299.99998
299.99998
299.99998
299.99998
299.99998
299.99998
299.99998
299.99998
299.99998
299.99998
299.99997
299.99997
299.99998
299.99999
300.00001
300.00003
300.00004
300.00004
343.30912
329.73981
317.18083
307.66767
302.30478
300.2558
299.85596
299.91145
299.97721
299.99796
300.00056
300.00022
300.00001
299.99998
299.99998
299.99998
299.99998
299.99998
299.99998
299.99998
299.99998
299.99998
299.99998
299.99998
299.99998
299.99998
299.99998
299.99998
299.99998
299.99998
299.99998
299.99997
299.99997
299.99997
299.99998
299.99999
300.00001
300.00003
300.00004
300.00004
343.35683
329.92126
317.4777
307.96244
302.49546
300.33398
299.87162
299.90915
299.97458
299.99716
300.00047
300.00023
300.00002
299.99998
299.99998
299.99998
299.99998
299.99998
299.99998
299.99998
299.99998
299.99998
299.99998
299.99998
299.99998
299.99998
299.99998
299.99998
299.99998
299.99998
299.99998
299.99997
299.99997
299.99997
299.99998
299.99999
300.00001
300.00003
300.00004
300.00005
343.39855
330.0874
317.75783
308.24738
302.68496
300.41504
299.88968
299.90771
299.97202
299.99629
300.00036
300.00025
300.00003
299.99998
299.99998
299.99998
299.99998
299.99998
299.99998
299.99998
299.99998
299.99998
299.99998
299.99998
299.99998
299.99998
299.99998
299.99998
299.99998
299.99998
299.99998
299.99997
299.99997
299.99997
299.99998
299.99999
300.00001
300.00003
300.00004
300.00005
343.43419
330.23794
318.02101
308.52203
302.87266
300.49859
299.91008
299.90716
299.96956
299.99537
300.00021
300.00025
300.00004
299.99998
299.99998
299.99998
299.99998
299.99998
299.99998
299.99998
299.99998
299.99998
299.99998
299.99998
299.99998
299.99998
299.99998
299.99998
299.99998
299.99998
299.99998
299.99997
299.99997
299.99997
299.99998
299.99999
300.00001
300.00003
300.00004
300.00005
343.46372
330.37249
318.26693
308.78589
303.05796
300.58422
299.93271
299.90755
299.96725
299.9944
300.00003
300.00025
300.00005
299.99999
299.99998
299.99998
299.99998
299.99998
299.99998
299.99998
299.99998
299.99998
299.99998
299.99998
299.99998
299.99998
299.99998
299.99998
299.99998
299.99998
299.99998
299.99997
299.99997
299.99997
299.99998
299.99999
300.00001
300.00003
300.00004
300.00005
343.48715
330.49066
318.49515
309.03845
303.24024
300.67153
299.95747
299.90891
299.96511
299.9934
299.99982
300.00025
300.00005
299.99999
299.99998
299.99998
299.99998
299.99998
299.99998
299.99998
299.99998
299.99998
299.99998
299.99998
299.99998
299.99998
299.99998
299.99998
299.99998
299.99998
299.99997
299.99997
299.99997
299.99997
299.99998
299.99999
300.00001
300.00003
300.00004
300.00005
343.50459
330.59206
318.70519
309.27915
303.4189
300.76012
299.98423
299.91126
299.96319
299.99237
299.99959
300.00023
300.00006
299.99999
299.99998
299.99998
299.99998
299.99998
299.99998
299.99998
299.99998
299.99998
299.99998
299.99998
299.99998
299.99998
299.99998
299.99998
299.99998
299.99998
299.99997
299.99997
299.99997
299.99997
299.99998
299.99999
300.00002
300.00003
300.00004
300.00006
343.51625
330.67643
318.89649
309.50737
303.59333
300.84955
300.01284
299.91462
299.96151
299.99134
299.99933
300.00021
300.00007
299.99999
299.99998
299.99998
299.99998
299.99998
299.99998
299.99998
299.99998
299.99998
299.99998
299.99998
299.99998
299.99998
299.99998
299.99998
299.99998
299.99998
299.99997
299.99997
299.99997
299.99997
299.99998
300
300.00002
300.00003
300.00004
300.00006
343.52249
330.74369
319.06846
309.7225
303.76291
300.93941
300.04314
299.91897
299.9601
299.99031
299.99904
300.00017
300.00007
299.99999
299.99998
299.99998
299.99998
299.99998
299.99998
299.99998
299.99998
299.99998
299.99998
299.99998
299.99998
299.99998
299.99998
299.99998
299.99998
299.99997
299.99997
299.99997
299.99997
299.99997
299.99998
300
300.00002
300.00003
300.00005
300.00006
343.5238
330.79405
319.2206
309.92389
303.92704
301.02927
300.07498
299.92431
299.95899
299.98929
299.99873
300.00013
300.00007
300
299.99998
299.99998
299.99998
299.99998
299.99998
299.99998
299.99998
299.99998
299.99998
299.99998
299.99998
299.99998
299.99998
299.99998
299.99998
299.99997
299.99997
299.99997
299.99997
299.99997
299.99998
300
300.00002
300.00003
300.00005
300.00006
343.5208
330.82812
319.35251
310.1109
304.08511
301.11871
300.10816
299.93063
299.9582
299.98831
299.9984
300.00008
300.00007
300
299.99998
299.99998
299.99998
299.99998
299.99998
299.99998
299.99998
299.99998
299.99998
299.99998
299.99998
299.99998
299.99998
299.99998
299.99998
299.99997
299.99997
299.99997
299.99997
299.99997
299.99998
300
300.00002
300.00003
300.00005
300.00006
343.51424
330.84692
319.46402
310.28293
304.23652
301.20729
300.1425
299.93789
299.95775
299.98737
299.99805
300.00001
300.00007
300
299.99998
299.99998
299.99998
299.99998
299.99998
299.99998
299.99998
299.99998
299.99998
299.99998
299.99998
299.99998
299.99998
299.99998
299.99997
299.99997
299.99997
299.99997
299.99997
299.99997
299.99998
300
300.00002
300.00004
300.00005
300.00006
343.50495
330.85196
319.55526
310.4395
304.38071
301.29461
300.1778
299.94605
299.95766
299.98649
299.99769
299.99994
300.00007
300
299.99998
299.99998
299.99998
299.99998
299.99998
299.99998
299.99998
299.99998
299.99998
299.99998
299.99998
299.99998
299.99998
299.99998
299.99997
299.99997
299.99997
299.99997
299.99997
299.99997
299.99998
300
300.00002
300.00004
300.00005
300.00007
343.4938
330.84522
319.62677
310.58022
304.51717
301.38025
300.21386
299.95507
299.95793
299.98568
299.99733
299.99986
300.00006
300
299.99998
299.99998
299.99998
299.99998
299.99998
299.99998
299.99998
299.99998
299.99998
299.99998
299.99998
299.99998
299.99998
299.99997
299.99997
299.99997
299.99997
299.99997
299.99997
299.99997
299.99998
300
300.00002
300.00004
300.00005
300.00007
343.48162
330.829
319.67955
310.70495
304.64544
301.46385
300.25049
299.9649
299.95857
299.98495
299.99696
299.99977
300.00005
300
299.99998
299.99998
299.99998
299.99998
299.99998
299.99998
299.99998
299.99998
299.99998
299.99998
299.99998
299.99998
299.99997
299.99997
299.99997
299.99997
299.99997
299.99997
299.99997
299.99997
299.99998
300
300.00002
300.00004
300.00005
300.00007
343.4692
330.80584
319.71508
310.81377
304.76517
301.54503
300.28747
299.97547
299.95959
299.98431
299.99659
299.99967
300.00004
300
299.99998
299.99998
299.99998
299.99998
299.99998
299.99998
299.99998
299.99998
299.99998
299.99998
299.99998
299.99997
299.99997
299.99997
299.99997
299.99997
299.99997
299.99997
299.99997
299.99997
299.99998
300
300.00002
300.00004
300.00006
300.00007
343.45716
330.77833
319.73534
310.90709
304.87612
301.62348
300.32461
299.98672
299.96098
299.98377
299.99622
299.99957
300.00002
300
299.99998
299.99997
299.99997
299.99998
299.99998
299.99998
299.99998
299.99998
299.99998
299.99998
299.99997
299.99997
299.99997
299.99997
299.99997
299.99997
299.99997
299.99997
299.99997
299.99997
299.99998
300
300.00002
300.00004
300.00006
300.00007
343.44599
330.74892
319.7427
310.98561
304.97817
301.69894
300.36172
299.99858
299.96274
299.98334
299.99587
299.99946
300
300
299.99998
299.99997
299.99997
299.99997
299.99997
299.99997
299.99998
299.99997
299.99997
299.99997
299.99997
299.99997
299.99997
299.99997
299.99997
299.99997
299.99997
299.99997
299.99997
299.99997
299.99998
300
300.00002
300.00004
300.00006
300.00007
343.43599
330.71974
319.73983
311.05041
305.0714
301.77118
300.39862
300.01097
299.96485
299.98302
299.99553
299.99934
299.99998
300
299.99998
299.99997
299.99997
299.99997
299.99997
299.99997
299.99997
299.99997
299.99997
299.99997
299.99997
299.99997
299.99997
299.99997
299.99997
299.99997
299.99997
299.99997
299.99997
299.99997
299.99998
300
300.00002
300.00004
300.00006
300.00007
343.42727
330.69247
319.72955
311.10285
305.15603
301.84006
300.43517
300.02382
299.9673
299.98282
299.9952
299.99922
299.99996
300
299.99998
299.99997
299.99997
299.99997
299.99997
299.99997
299.99997
299.99997
299.99997
299.99997
299.99997
299.99997
299.99997
299.99997
299.99997
299.99997
299.99997
299.99997
299.99997
299.99997
299.99998
300
300.00002
300.00004
300.00006
300.00007
343.41977
330.66827
319.71465
311.14456
305.23245
301.90549
300.4712
300.03706
299.97008
299.98274
299.9949
299.9991
299.99993
300
299.99998
299.99997
299.99997
299.99997
299.99997
299.99997
299.99997
299.99997
299.99997
299.99997
299.99997
299.99997
299.99997
299.99997
299.99997
299.99997
299.99997
299.99997
299.99997
299.99997
299.99998
300
300.00002
300.00004
300.00006
300.00008
343.4133
330.6477
319.69774
311.17736
305.30121
301.96746
300.50661
300.05062
299.97316
299.98279
299.99462
299.99897
299.9999
299.99999
299.99998
299.99997
299.99997
299.99997
299.99997
299.99997
299.99997
299.99997
299.99997
299.99997
299.99997
299.99997
299.99997
299.99997
299.99997
299.99997
299.99997
299.99997
299.99997
299.99997
299.99998
300
300.00002
300.00004
300.00006
300.00008
343.40758
330.63081
319.68101
311.20317
305.36301
302.02603
300.5413
300.06444
299.97654
299.98296
299.99437
299.99885
299.99987
299.99999
299.99998
299.99997
299.99997
299.99997
299.99997
299.99997
299.99997
299.99997
299.99997
299.99997
299.99997
299.99997
299.99997
299.99997
299.99997
299.99997
299.99997
299.99997
299.99997
299.99997
299.99998
300
300.00002
300.00004
300.00006
300.00008
343.40225
330.61714
319.66619
311.2239
305.41863
302.0813
300.57519
300.07843
299.98018
299.98325
299.99415
299.99873
299.99984
299.99998
299.99998
299.99997
299.99997
299.99997
299.99997
299.99997
299.99997
299.99997
299.99997
299.99997
299.99997
299.99997
299.99997
299.99997
299.99997
299.99997
299.99997
299.99996
299.99997
299.99997
299.99998
300
300.00002
300.00004
300.00006
300.00008
343.39694
330.60587
319.65436
311.2413
305.46895
302.13346
300.60823
300.09256
299.98407
299.98367
299.99396
299.99861
299.9998
299.99998
299.99998
299.99997
299.99997
299.99997
299.99997
299.99997
299.99997
299.99997
299.99997
299.99997
299.99997
299.99997
299.99997
299.99997
299.99997
299.99997
299.99997
299.99996
299.99996
299.99997
299.99998
300
300.00002
300.00004
300.00007
300.00008
343.39129
330.59592
319.64596
311.25691
305.51484
302.18272
300.64039
300.10676
299.98818
299.9842
299.9938
299.99849
299.99976
299.99997
299.99998
299.99997
299.99997
299.99997
299.99997
299.99997
299.99997
299.99997
299.99997
299.99997
299.99997
299.99997
299.99997
299.99997
299.99997
299.99997
299.99996
299.99996
299.99996
299.99997
299.99998
300
300.00002
300.00005
300.00007
300.00008
343.385
330.58605
319.64078
311.27193
305.55717
302.22932
300.67166
300.121
299.99249
299.98485
299.99368
299.99838
299.99972
299.99996
299.99998
299.99997
299.99997
299.99997
299.99997
299.99997
299.99997
299.99997
299.99997
299.99997
299.99997
299.99997
299.99997
299.99997
299.99997
299.99997
299.99996
299.99996
299.99996
299.99997
299.99998
300
300.00002
300.00005
300.00007
300.00008
343.37786
330.57504
319.63799
311.28711
305.59671
302.27355
300.70205
300.13523
299.99698
299.98561
299.99359
299.99827
299.99968
299.99995
299.99997
299.99997
299.99997
299.99997
299.99997
299.99997
299.99997
299.99997
299.99997
299.99997
299.99997
299.99997
299.99997
299.99997
299.99997
299.99996
299.99996
299.99996
299.99996
299.99997
299.99998
300
300.00002
300.00005
300.00007
300.00008
343.36971
330.56175
319.63631
311.30277
305.63407
302.31567
300.73159
300.14941
300.00163
299.98647
299.99354
299.99817
299.99964
299.99994
299.99997
299.99997
299.99997
299.99997
299.99997
299.99997
299.99997
299.99997
299.99997
299.99997
299.99997
299.99997
299.99997
299.99997
299.99996
299.99996
299.99996
299.99996
299.99996
299.99997
299.99998
300
300.00002
300.00005
300.00007
300.00008
343.36053
330.54527
319.63411
311.31873
305.6697
302.35592
300.7603
300.16352
300.0064
299.98743
299.99353
299.99807
299.9996
299.99993
299.99997
299.99997
299.99997
299.99997
299.99997
299.99997
299.99997
299.99997
299.99997
299.99997
299.99997
299.99997
299.99996
299.99996
299.99996
299.99996
299.99996
299.99996
299.99996
299.99997
299.99998
300
300.00002
300.00005
300.00007
300.00008
343.35038
330.52499
319.62962
311.33442
305.70381
302.39445
300.78821
300.17753
300.0113
299.98847
299.99354
299.99798
299.99956
299.99992
299.99997
299.99997
299.99997
299.99996
299.99997
299.99997
299.99997
299.99997
299.99997
299.99996
299.99996
299.99996
299.99996
299.99996
299.99996
299.99996
299.99996
299.99996
299.99996
299.99997
299.99998
300
300.00002
300.00005
300.00007
300.00009
343.33939
330.50062
319.62113
311.34891
305.73637
302.43137
300.81533
300.19143
300.01629
299.98961
299.9936
299.99791
299.99952
299.99991
299.99996
299.99997
299.99996
299.99996
299.99996
299.99996
299.99996
299.99996
299.99996
299.99996
299.99996
299.99996
299.99996
299.99996
299.99996
299.99996
299.99996
299.99996
299.99996
299.99997
299.99998
300
300.00002
300.00005
300.00007
300.00009
343.32778
330.47219
319.60715
311.3611
305.76718
302.46667
300.84163
300.20517
300.02139
299.99084
299.9937
299.99784
299.99948
299.99989
299.99996
299.99996
299.99996
299.99996
299.99996
299.99996
299.99996
299.99996
299.99996
299.99996
299.99996
299.99996
299.99996
299.99996
299.99996
299.99996
299.99996
299.99996
299.99996
299.99997
299.99998
300
300.00002
300.00005
300.00007
300.00009
343.3158
330.44008
319.58653
311.36982
305.79591
302.50032
300.86707
300.21874
300.02656
299.99216
299.99384
299.99778
299.99945
299.99988
299.99996
299.99996
299.99996
299.99996
299.99996
299.99996
299.99996
299.99996
299.99996
299.99996
299.99996
299.99996
299.99996
299.99996
299.99996
299.99996
299.99996
299.99996
299.99996
299.99997
299.99998
300
300.00002
300.00005
300.00007
300.00009
343.30371
330.40491
319.5586
311.37392
305.82219
302.53224
300.89162
300.2321
300.03182
299.99358
299.99403
299.99774
299.99941
299.99987
299.99996
299.99996
299.99996
299.99996
299.99996
299.99996
299.99996
299.99996
299.99996
299.99996
299.99996
299.99996
299.99996
299.99996
299.99996
299.99996
299.99996
299.99996
299.99996
299.99997
299.99998
300
300.00002
300.00005
300.00008
300.00009
343.2918
330.36748
319.52316
311.37237
305.84569
302.56245
300.91527
300.24523
300.03714
299.9951
299.99427
299.99772
299.99938
299.99986
299.99995
299.99996
299.99996
299.99996
299.99996
299.99996
299.99996
299.99996
299.99996
299.99996
299.99996
299.99996
299.99996
299.99996
299.99996
299.99996
299.99996
299.99996
299.99996
299.99997
299.99998
300
300.00002
300.00005
300.00008
300.00009
343.28029
330.3287
319.48044
311.36427
305.86606
302.59103
300.93809
300.25812
300.04249
299.99669
299.99455
299.99771
299.99935
299.99985
299.99995
299.99996
299.99996
299.99996
299.99996
299.99996
299.99996
299.99996
299.99996
299.99996
299.99996
299.99996
299.99996
299.99996
299.99996
299.99996
299.99996
299.99996
299.99996
299.99997
299.99998
300
300.00002
300.00005
300.00008
300.00009
343.26941
330.28951
319.4311
311.34877
305.88293
302.61812
300.96021
300.27078
300.04784
299.99832
299.99486
299.99771
299.99933
299.99984
299.99995
299.99996
299.99996
299.99996
299.99996
299.99996
299.99996
299.99996
299.99996
299.99996
299.99996
299.99996
299.99996
299.99996
299.99996
299.99996
299.99996
299.99996
299.99996
299.99997
299.99998
300
300.00002
300.00005
300.00008
300.00009
343.25931
330.25081
319.37611
311.32517
305.89576
302.64389
300.98186
300.28328
300.05315
299.99994
299.99516
299.9977
299.9993
299.99982
299.99994
299.99996
299.99996
299.99996
299.99996
299.99996
299.99996
299.99996
299.99996
299.99996
299.99996
299.99996
299.99996
299.99996
299.99996
299.99996
299.99996
299.99996
299.99996
299.99997
299.99998
300
300.00002
300.00005
300.00008
300.00009
343.2501
330.21339
319.31666
311.29282
305.90372
302.6683
301.00328
300.2957
300.05839
300.00151
299.99542
299.99768
299.99926
299.9998
299.99993
299.99995
299.99995
299.99995
299.99995
299.99995
299.99995
299.99995
299.99995
299.99995
299.99995
299.99995
299.99995
299.99995
299.99995
299.99995
299.99995
299.99995
299.99996
299.99996
299.99998
300
300.00002
300.00005
300.00008
300.00009
343.24185
330.17792
319.25417
311.25133
305.9056
302.69097
301.02458
300.30816
300.06357
300.00298
299.99563
299.99762
299.99921
299.99978
299.99992
299.99994
299.99994
299.99994
299.99994
299.99994
299.99994
299.99994
299.99994
299.99994
299.99994
299.99994
299.99994
299.99994
299.99994
299.99995
299.99995
299.99995
299.99995
299.99996
299.99997
299.99999
300.00002
300.00005
300.00008
300.00009
343.23457
330.14495
319.19011
311.20061
305.8999
302.71104
301.04566
300.32075
300.06871
300.00435
299.99576
299.99754
299.99915
299.99976
299.99991
299.99993
299.99994
299.99993
299.99993
299.99993
299.99993
299.99993
299.99993
299.99993
299.99993
299.99993
299.99993
299.99994
299.99994
299.99994
299.99994
299.99994
299.99995
299.99996
299.99997
299.99999
300.00002
300.00006
300.00008