/*--------------------------------*- C++ -*----------------------------------*\
  =========                 |
  \\      /  F ield         | OpenFOAM: The Open Source CFD Toolbox
   \\    /   O peration     | Website:  https://openfoam.org
    \\  /    A nd           | Version:  10
     \\/     M anipulation  |
\*---------------------------------------------------------------------------*/
FoamFile
{
    format      ascii;
    class       volScalarField;
    location    "0.16";
    object      TporMedia;
}
// * * * * * * * * * * * * * * * * * * * * * * * * * * * * * * * * * * * * * //

dimensions      [0 0 0 1 0 0 0];

internalField   nonuniform List<scalar> 
4000
(
-4.8925354e-05
2.4500347e-05
0.00054403108
0.001034396
0.00064812953
0.00051980252
0.00089239181
0.0006201026
0.00082007591
0.0010702807
0.00077351066
0.00082582983
0.00087397181
0.00050599981
0.00064023259
0.00055280173
0.00059478956
0.00052240285
0.0011234365
0.00068635415
0.00057837306
0.00043853905
0.00084310147
0.0004265666
0.00053431327
0.00078865848
0.0008295714
0.00084575937
0.00083049213
0.00052474179
0.00081661368
0.00067983475
0.00064280733
0.00055769305
0.00048128336
0.00067353745
0.00048502948
0.00047050407
0.00053612979
0.00043860228
-5.0066905e-06
3.5391201e-13
2.4029944e-11
-6.3615259e-09
6.8294593e-10
3.4963567e-10
9.8108905e-10
6.37369e-10
7.3038359e-10
6.3759555e-10
5.0291746e-10
7.259117e-10
8.8894328e-10
3.6501123e-10
6.9384292e-10
3.9997774e-10
8.533486e-10
4.8730885e-10
6.6215236e-10
7.1818587e-10
3.9524304e-10
4.550657e-10
4.9342581e-10
3.703952e-10
4.8512246e-10
5.3942621e-10
4.9319409e-10
7.7409191e-10
6.1463578e-10
3.5252046e-10
7.5818753e-10
5.0489388e-10
5.9474278e-10
5.2326432e-10
3.4882826e-10
3.9655878e-10
3.891049e-10
3.6304289e-10
2.5605326e-10
2.7575998e-10
-2.062272e-06
-1.2799958e-13
3.1640767e-19
-8.993731e-16
-6.6110587e-16
1.1967593e-15
1.1301646e-15
5.4917446e-16
1.089255e-15
3.7017967e-16
6.3312625e-16
9.0131816e-16
8.3817994e-16
3.6876398e-16
6.6056379e-16
3.4295906e-16
6.9869575e-16
5.3582329e-16
6.8738199e-16
6.1882458e-16
3.7407209e-16
3.2647053e-16
5.4867067e-16
3.8847349e-16
3.7133231e-16
4.7882585e-16
4.7497203e-16
6.5068377e-16
8.4485607e-16
2.1838308e-16
6.4548627e-16
9.0497498e-16
3.8588597e-16
4.1833273e-16
3.6455856e-16
3.4319888e-16
4.2178886e-16
2.1370713e-16
2.1317965e-16
2.0998714e-16
-1.1296433e-06
7.4296715e-15
5.2221069e-23
-2.7493001e-23
4.1519976e-22
2.845186e-21
1.3107333e-21
3.8953529e-22
8.3818514e-22
3.4453451e-22
1.2433226e-21
5.2424783e-22
1.4060457e-21
2.1232458e-22
1.1161015e-21
4.0747119e-22
5.651647e-22
1.5522038e-21
4.5189458e-22
6.291227e-22
2.6623031e-22
1.9722903e-22
4.332816e-22
2.8964284e-22
2.8771336e-22
4.9888482e-22
3.6359318e-22
5.7118768e-22
4.6600325e-22
2.5921729e-22
5.4917858e-22
9.7440521e-22
4.2606727e-22
3.9790369e-22
2.318246e-22
2.0814466e-22
3.1187075e-22
1.5045822e-22
1.3577408e-22
1.4458887e-22
-7.2489104e-07
1.4996413e-15
8.2244546e-24
-2.159629e-31
2.6202582e-28
-1.5622066e-27
2.8581988e-27
6.7395773e-28
6.2423998e-28
2.8269782e-28
1.0644081e-27
5.13466e-28
3.0563799e-27
1.7023032e-28
9.0666582e-28
2.1656235e-28
5.3743885e-28
2.612671e-27
3.5833394e-28
8.4594107e-28
2.0550599e-28
1.4049826e-28
3.1725073e-28
3.1797872e-28
1.8900983e-28
3.5672757e-28
3.0622835e-28
5.1169684e-28
3.2136451e-28
2.0814609e-28
5.3854042e-28
7.9610191e-28
3.9375567e-28
2.9779895e-28
1.8662981e-28
1.8031985e-28
2.1260906e-28
1.5057007e-28
8.9468854e-29
9.8809399e-29
-5.1567962e-07
5.1790313e-16
3.5333402e-24
1.9831936e-32
1.5662181e-35
3.6699792e-34
8.1710301e-33
5.9909013e-34
5.7409093e-34
2.4247807e-34
9.9037832e-34
5.2751261e-34
1.8020175e-33
1.294203e-34
5.1063178e-34
1.8775766e-34
6.3816395e-34
3.4798074e-33
2.1142276e-34
6.4514967e-34
2.1732247e-34
1.6171763e-34
2.1263254e-34
1.9254076e-34
2.2271933e-34
3.2980334e-34
2.0538166e-34
3.931471e-34
2.8698352e-34
2.4718463e-34
5.1265666e-34
5.4562118e-34
3.5221141e-34
2.0225603e-34
1.1877993e-34
1.4443015e-34
9.3318069e-35
9.2367639e-35
5.36607e-35
7.447061e-35
-3.9465051e-07
2.3351815e-16
-1.7504812e-23
-6.0820359e-32
-1.1287641e-39
-5.1215318e-41
-7.10826e-39
5.8365396e-40
4.3477915e-40
2.8817097e-40
7.5844257e-40
4.0480402e-40
1.0425451e-39
1.4778068e-40
4.0803575e-40
2.8219656e-40
5.1458253e-40
2.263703e-39
1.9137988e-40
5.2203157e-40
1.5337067e-40
1.3826048e-40
1.6399335e-40
1.3304945e-40
1.7671715e-40
2.7507406e-40
1.9787412e-40
2.0641892e-40
1.8772919e-40
1.4368311e-40
5.8156892e-40
3.6433042e-40
3.1515565e-40
1.1786078e-40
7.033061e-41
8.5453767e-41
6.5055761e-41
5.4342562e-41
3.5588414e-41
4.4278631e-41
-3.1800649e-07
1.2401942e-16
-3.6836207e-25
-9.2592631e-34
-7.6654755e-42
1.1293555e-47
1.748569e-45
7.3814061e-46
2.5331154e-46
2.5172118e-46
6.5369792e-46
4.0729148e-46
8.309549e-46
1.0791194e-46
3.4765525e-46
2.4577313e-46
3.8248243e-46
1.6706914e-45
1.2990998e-46
2.7721796e-46
9.5915696e-47
1.1539983e-46
1.600304e-46
9.2784085e-47
1.6225267e-46
2.1293428e-46
1.1859935e-46
1.7995308e-46
1.0908448e-46
1.407555e-46
3.2030829e-46
2.975603e-46
2.2790893e-46
9.5674239e-47
4.1562581e-47
6.284667e-47
7.3298808e-47
2.8169979e-47
2.8248431e-47
2.9799329e-47
-2.6537641e-07
7.3459e-17
-8.5784906e-26
-1.7872821e-34
-8.1086661e-43
-1.1560357e-49
-1.9994351e-52
-2.0687377e-51
2.8240846e-52
1.4575513e-52
9.7909699e-52
3.6696765e-52
5.8112242e-52
7.3872073e-53
3.1715038e-52
1.5926858e-52
3.2322892e-52
1.4039109e-51
1.3648404e-52
1.7996006e-52
6.9088494e-53
9.1450339e-53
1.4058802e-52
8.4245659e-53
1.71079e-52
1.0381655e-52
9.0778761e-53
1.6704041e-52
8.992621e-53
8.48155e-53
2.0159743e-52
2.8844777e-52
1.0241625e-52
6.8741076e-53
2.9791128e-53
3.9829125e-53
5.6304844e-53
1.5819353e-53
1.9190698e-53
2.7550558e-53
-2.2586777e-07
4.6694107e-17
-2.9180496e-26
-5.8220652e-35
-1.6414455e-43
-4.9219235e-51
3.9961642e-58
1.040863e-57
1.5300098e-58
1.2357925e-58
6.5208877e-58
3.0824551e-58
3.9966623e-58
5.5761193e-58
2.2171606e-58
1.2687256e-58
2.3787933e-58
1.0565203e-57
1.7974078e-58
1.456955e-58
5.3019472e-59
7.8677955e-59
1.1491668e-58
8.6199626e-59
1.5170396e-58
7.4820502e-59
5.6848058e-59
1.605721e-58
6.3130375e-59
5.3201916e-59
1.6432163e-58
1.8494313e-58
8.1816812e-59
7.8468201e-59
1.9630914e-59
2.792373e-59
5.5661654e-59
1.0553289e-59
1.6178315e-59
2.3209474e-59
-1.9359862e-07
3.0986949e-17
-1.1958009e-26
-2.7872467e-35
-5.3987186e-44
-6.6537388e-52
4.2954752e-59
-2.3769139e-64
1.2255981e-64
2.1434499e-64
4.1140147e-64
3.0162639e-64
2.6680764e-64
5.2938722e-64
1.6715372e-64
1.7183356e-64
1.3996605e-64
8.8463396e-64
2.0001045e-64
1.4940659e-64
3.7673158e-65
9.0443814e-65
1.0317531e-64
8.9079048e-65
1.136994e-64
7.0578411e-65
5.6337095e-65
1.0594838e-64
5.3380269e-65
6.9434257e-65
1.5104676e-64
1.1554558e-64
8.2027177e-65
6.2350053e-65
1.9639618e-65
2.8508394e-65
4.7076877e-65
8.7313752e-66
1.5384669e-65
1.7354016e-65
-1.6569451e-07
2.1068387e-17
-5.4602932e-27
-2.383037e-35
-3.417105e-44
-2.1858052e-52
1.4670136e-59
-1.5866629e-66
-8.5939875e-70
1.711291e-70
4.6375083e-70
1.9940374e-70
2.3463336e-70
4.5417507e-70
2.5536123e-70
9.5766636e-71
1.6422116e-70
9.1028097e-70
2.7017441e-70
1.3947123e-70
2.3426703e-71
9.4320816e-71
5.7618994e-71
7.1759982e-71
1.7697765e-70
5.3048724e-71
5.0183089e-71
7.471861e-71
6.8992096e-71
4.5036679e-71
7.8415376e-71
7.1637881e-71
5.0277425e-71
7.5767381e-71
1.1486317e-71
1.9560453e-71
2.7995077e-71
5.0347478e-72
8.0362452e-72
1.3256494e-71
-1.4109553e-07
1.4518544e-17
-2.6738827e-27
1.9721415e-35
2.2297317e-44
8.4634571e-53
-1.1817817e-59
8.5143369e-67
-1.2308254e-72
9.7693401e-77
3.0814249e-76
2.1218471e-76
4.1979274e-76
9.5949631e-76
1.9009953e-76
1.0119272e-76
1.7497697e-76
1.0598289e-75
2.2494033e-76
1.3640501e-76
5.7160981e-77
1.0453148e-76
4.0333723e-77
5.1234005e-77
1.6417447e-76
5.8776852e-77
4.6264215e-77
5.4620884e-77
5.384973e-77
3.9640017e-77
8.1170809e-77
6.5143386e-77
4.0772055e-77
4.5535899e-77
2.3493288e-77
1.298381e-77
2.0476316e-77
3.5739432e-78
7.3529185e-78
1.1224897e-77
-1.195069e-07
1.0087602e-17
-1.374599e-27
1.9592973e-36
1.8472948e-45
4.5636173e-54
3.8965211e-61
-1.9349075e-68
7.9361145e-75
8.4617009e-81
2.6290138e-82
1.5178146e-82
7.2638329e-82
6.7294146e-82
2.6354534e-82
8.366772e-83
3.5064218e-82
1.2532402e-81
2.4879875e-82
1.7858417e-82
5.287019e-83
1.0508668e-82
6.4991342e-83
4.000685e-83
1.9521301e-82
5.9898013e-83
3.3256422e-83
4.7895974e-83
5.4192636e-83
3.0928046e-83
6.3922574e-83
6.0957485e-83
3.9339482e-83
5.9536135e-83
1.4060261e-83
1.2210705e-83
1.7160038e-83
1.9262744e-84
1.1539863e-83
1.3428143e-83
-1.0087462e-07
7.0549646e-18
-7.327731e-28
4.8537335e-37
4.0273706e-46
6.8938094e-55
1.5002038e-62
-5.8541021e-70
9.8962681e-77
9.7973974e-83
2.5804819e-88
3.3413589e-88
7.1275488e-88
3.6391471e-88
6.4923246e-88
8.6119177e-89
2.1344289e-88
1.250435e-87
2.5798921e-88
1.5453766e-88
3.3981642e-89
1.2877472e-88
7.2937248e-89
2.9099842e-89
2.6973665e-88
5.9849965e-89
4.0495881e-89
3.8846456e-89
3.7603077e-89
2.9429633e-89
9.2862962e-89
5.0346129e-89
2.7684457e-89
4.7304635e-89
9.0004135e-90
1.685554e-89
9.9878438e-90
1.5036381e-90
6.6268744e-90
1.9716256e-89
-8.5106288e-08
4.9701041e-18
-4.0257331e-28
1.5457858e-37
1.1945589e-46
1.4947861e-55
1.4803583e-63
-4.869229e-71
5.2823286e-78
6.6072734e-84
6.1063569e-90
4.8373462e-94
6.215377e-94
3.7918687e-94
6.8787548e-94
8.8863128e-95
1.7296812e-94
1.2327267e-93
2.9904094e-94
1.5157992e-94
3.8421818e-95
1.6317071e-94
6.6115263e-95
2.7695812e-95
3.1653948e-94
9.6330887e-95
3.5707661e-95
3.8577621e-95
5.2078147e-95
2.7192327e-95
6.4561e-95
3.4370887e-95
1.6420023e-95
4.1038699e-95
5.0133466e-96
3.1872237e-95
5.1286859e-96
8.6616664e-97
8.5364125e-96
8.9132352e-95
-7.1882689e-08
3.5265528e-18
-2.2682371e-28
5.6210956e-38
4.3249946e-47
4.1218177e-56
2.2880103e-64
-7.3807101e-72
4.8458531e-79
-2.5095395e-84
-2.2004166e-90
-2.5901753e-96
2.753969e-99
2.3792712e-100
6.7594384e-100
1.0379545e-100
1.4324042e-100
2.3806996e-99
2.56002e-100
2.1363824e-100
6.4358966e-101
1.6063786e-100
6.5679447e-101
4.1931966e-101
2.1844527e-100
1.1529157e-100
3.1410234e-101
2.889665e-101
4.0834658e-101
1.756801e-101
6.9562529e-101
3.099972e-101
1.912833e-101
3.5369582e-101
3.5006123e-102
2.7573677e-101
4.0121801e-102
8.9104484e-103
9.3473072e-102
1.9265529e-100
-6.0872955e-08
2.5214872e-18
-1.3065247e-28
2.2306603e-38
1.8752009e-47
1.4118629e-56
4.8973526e-65
-1.8125629e-72
8.9155463e-80
-5.1378034e-86
-4.809405e-92
-3.3974017e-98
-4.554585e-104
3.2276459e-106
5.6341088e-106
1.0948112e-106
1.5500227e-106
1.8159861e-105
1.8059898e-106
2.958699e-106
1.8587014e-106
3.161801e-106
5.330087e-107
4.202409e-107
2.0463921e-106
1.94987e-106
2.7450029e-107
2.081981e-107
6.1790543e-107
1.6759474e-107
8.2269231e-107
3.6605894e-107
1.5514001e-107
5.0654805e-107
2.7763686e-108
2.9416511e-107
2.4932195e-108
7.8602262e-109
9.6863945e-108
-8.1276228e-106
-5.1716721e-08
1.8163858e-18
-7.6732281e-29
9.4353832e-39
1.0175715e-47
6.2445356e-57
1.4477438e-65
-1.0463557e-72
3.8156894e-80
-1.0544092e-86
-1.1898174e-92
-1.5921721e-98
-3.5281211e-104
-3.3331772e-110
8.382068e-112
1.088122e-112
1.714875e-112
2.2740571e-111
1.6303104e-112
1.0950537e-111
1.2716052e-112
5.8704033e-112
3.0522307e-113
4.892704e-113
2.2456582e-112
2.8760503e-112
1.6956731e-113
4.3938704e-113
4.5346627e-113
2.5318745e-113
6.4395818e-113
3.4331516e-113
1.120179e-113
3.4075077e-113
2.0613895e-114
1.839465e-113
2.5622998e-114
4.8003768e-115
1.9359383e-113
2.3420139e-111
-4.4080564e-08
1.3176196e-18
-4.5833518e-29
4.193657e-39
8.9331882e-48
4.5962795e-57
7.5086687e-66
6.7848019e-73
-1.9313916e-80
2.8243355e-87
3.1910347e-93
2.1977118e-99
6.3053135e-105
1.8624596e-110
1.5955461e-116
1.2082522e-118
2.0365446e-118
3.5446515e-117
2.5956431e-118
1.6093496e-117
2.044016e-118
8.2618672e-118
4.1181415e-119
5.0012228e-119
1.2880812e-117
3.3021043e-118
1.3601928e-119
7.2515349e-119
1.6270874e-118
2.3164521e-119
5.7238582e-119
2.7465611e-119
2.2474783e-119
2.3565112e-119
2.1353631e-120
1.1936294e-119
2.7076156e-120
3.7190079e-121
2.3272695e-119
-1.3671177e-116
-3.7680735e-08
9.6180692e-19
-2.7783004e-29
1.939503e-39
-8.4416315e-48
-3.7419795e-57
-4.4792534e-66
-9.0990554e-74
2.1810015e-81
-2.0323171e-88
-7.800835e-94
-1.0637804e-99
-2.4986509e-105
-2.4463729e-111
-4.2688536e-117
-6.9810371e-123
3.6663924e-124
1.0720582e-122
6.0703926e-124
2.6127585e-123
5.1615586e-124
1.3117339e-123
4.5541444e-125
5.5709464e-125
1.5472837e-123
4.9491719e-124
4.774098e-125
6.2183568e-125
1.2172172e-124
4.9045805e-125
5.7821908e-125
2.7677478e-125
1.9692113e-125
2.0173336e-125
1.3963112e-126
1.0690941e-125
2.7484038e-126
4.0987525e-127
3.9223059e-125
1.1259768e-122
-3.2286317e-08
7.0582019e-19
-1.7054495e-29
9.2664832e-40
-7.5476222e-49
-2.9614333e-58
-2.6890621e-67
-2.4965446e-75
5.3164915e-83
-3.5637329e-90
7.922655e-96
6.6771487e-102
3.8722279e-107
4.0330322e-113
1.1924064e-118
4.1176262e-124
9.0049854e-130
1.7835427e-128
9.4770867e-130
3.1399624e-129
6.5043296e-130
1.2688662e-129
9.055725e-131
7.192002e-131
1.5928991e-129
7.5378491e-130
4.7583295e-131
5.9539897e-130
1.7521549e-130
3.499354e-130
8.4867299e-131
3.1986641e-131
3.166754e-131
4.7139303e-131
1.0526611e-132
1.1477861e-131
2.4810622e-132
6.8768915e-133
-2.7419761e-130
-6.9547032e-129
-2.7711785e-08
5.202621e-19
-1.0581528e-29
4.5486736e-40
-1.7615036e-49
-6.2866548e-59
-4.4508533e-68
-2.3565293e-76
4.7369257e-84
-2.2452162e-91
1.3098442e-97
1.385171e-103
1.2778485e-109
1.6917464e-115
2.6212762e-121
3.5996165e-127
7.0083898e-133
6.2076641e-134
1.0273543e-135
-6.8959432e-134
9.6025258e-136
1.9731081e-135
1.7046023e-136
6.4780335e-137
5.4469749e-135
1.1625961e-135
4.6451269e-137
8.8700891e-136
3.087478e-136
3.4026556e-136
7.110068e-137
1.3971533e-136
3.3624334e-137
4.9753754e-137
7.9371863e-139
1.0509499e-137
2.6294091e-138
6.6550706e-139
8.1580264e-136
2.5061999e-135
-2.3813377e-08
3.8485503e-19
-6.625624e-30
2.2842608e-40
-5.2332325e-50
-1.7517804e-59
-9.8988254e-69
-3.3328358e-77
6.9485894e-85
-2.505247e-92
7.2226184e-99
5.9947568e-105
1.5308492e-110
2.630426e-116
3.7845613e-122
1.5177812e-126
-1.6690087e-131
-3.4712991e-137
1.390481e-141
-1.1356544e-139
1.2254718e-141
5.5244293e-141
2.4326181e-142
2.1456107e-142
9.2589858e-141
2.0383823e-140
7.2979196e-143
2.3248263e-141
8.9933938e-142
2.7247968e-142
1.068086e-142
2.4307465e-142
5.9897666e-143
4.0783754e-143
1.1014832e-144
1.0712112e-143
4.6315245e-144
1.1508943e-144
-1.5189259e-141
-6.5954381e-142
-2.0477692e-08
2.8548894e-19
-4.1806594e-30
1.1694844e-40
-1.7587202e-50
-5.7160929e-60
-2.6339941e-69
-6.0123903e-78
1.5206861e-85
-4.2614344e-93
8.2628298e-100
1.1243433e-105
1.3034503e-111
5.7244594e-117
7.380665e-123
1.4719966e-128
2.8835637e-133
5.5116843e-139
1.9128924e-144
6.1495624e-144
4.1053334e-147
1.5192381e-146
3.3629465e-148
5.9483942e-148
-1.0440808e-145
4.304245e-146
8.8840924e-149
5.2447819e-147
1.2500541e-147
5.1864975e-148
2.7743164e-148
1.2730334e-147
8.2295685e-149
3.6798444e-149
1.7695249e-150
1.0259183e-149
1.0592705e-149
1.4808771e-150
2.481256e-147
1.6118049e-148
-1.7618188e-08
2.1226198e-19
-2.655512e-30
6.0880525e-41
-6.3924291e-51
-2.1081491e-60
-8.0781146e-70
-1.3133334e-78
5.8845198e-86
-1.359312e-93
1.5941549e-100
1.6142724e-105
3.9702339e-111
6.1162089e-117
2.8215113e-122
1.8877784e-127
4.7015404e-133
1.6961588e-138
1.9548019e-143
5.198616e-149
-3.8997036e-152
-4.4087551e-151
3.9080899e-154
1.9394231e-153
-1.63434e-151
1.0006503e-151
9.9118004e-155
1.150938e-151
9.2453028e-153
1.8244806e-153
2.9201818e-154
1.0143719e-153
1.2539232e-154
3.1911585e-155
2.5140694e-156
1.2843248e-155
2.9707249e-154
2.9915933e-155
-1.3586981e-153
-3.2410842e-155
-1.5162511e-08
1.5810106e-19
-1.696366e-30
3.2152959e-41
-2.4578817e-51
-8.7446205e-61
-2.836835e-70
-3.4040423e-79
-5.5240397e-86
1.0966912e-93
-9.8613578e-101
-1.8954625e-105
-6.5641639e-111
1.7260401e-115
7.8522004e-121
1.0116223e-124
1.2080524e-130
-1.2638059e-135
1.6670177e-140
-5.836765e-146
2.6671346e-151
-1.405038e-156
1.5462439e-159
7.7262082e-159
-2.3652562e-157
3.5281073e-157
3.3426579e-160
2.094985e-157
5.6474131e-158
1.798135e-159
3.3899643e-160
4.6611962e-159
2.1854274e-160
3.3897746e-161
3.9825833e-162
7.1663263e-161
4.0946399e-160
-1.1640078e-160
6.7895843e-160
7.2170397e-162
-1.3053171e-08
1.1794143e-19
-1.0890562e-30
1.7197171e-41
-9.8682487e-52
-4.1756656e-61
-1.1665382e-70
-1.0645109e-79
-2.126853e-87
3.6937519e-95
-2.2690099e-102
2.5121262e-108
5.168112e-114
4.9831214e-119
-8.3938236e-125
2.3929555e-130
-1.7322864e-133
-8.7193655e-139
-3.8597848e-144
-7.2927753e-150
2.3018268e-155
-2.286919e-160
4.5891801e-165
1.7333233e-164
4.4336196e-163
5.3508862e-162
-4.4703749e-165
3.2587778e-163
-3.9063842e-162
1.6877284e-164
7.2712344e-166
5.5387368e-165
4.6532559e-166
-1.3813168e-165
4.3793418e-167
-2.664884e-165
-2.9347638e-165
1.4077779e-165
-3.7824922e-166
-1.9029242e-168
-1.1240274e-08
8.8090469e-20
-7.0217617e-31
9.3009419e-42
-4.1014355e-52
-2.508748e-61
-6.1370531e-71
-4.357836e-80
-3.9157212e-88
6.1493076e-96
-2.9702065e-103
1.5315754e-109
1.9813772e-115
9.0609596e-121
1.7607944e-125
1.5074111e-130
-8.9101282e-136
3.3778714e-140
-7.6304624e-145
-5.7731201e-150
-3.8219477e-155
-5.237055e-160
2.1518114e-165
-7.1941292e-170
1.103333e-168
-3.301669e-167
1.4331373e-170
5.7185731e-169
-6.9807182e-168
-8.1991589e-170
8.9854849e-172
7.7061438e-171
6.0755882e-172
-2.2797066e-171
1.0835523e-172
-3.7972562e-171
-8.1537687e-171
-7.4966578e-171
2.7322868e-172
5.6351225e-174
-9.6818994e-09
6.5860775e-20
-4.5441444e-31
5.0798435e-42
-1.7541297e-52
-3.1155552e-61
-6.784377e-71
-3.829389e-80
-1.9758453e-88
2.9739006e-96
-1.0917949e-103
3.1488569e-110
2.1861707e-115
-4.129276e-120
1.8337012e-125
4.0048187e-129
-8.2449441e-135
-1.4691858e-139
1.2038782e-144
-1.1931355e-149
-5.0988923e-155
1.2272394e-159
-1.2547623e-164
5.8823307e-170
1.9904008e-174
-9.3155643e-173
9.4144549e-176
3.9704281e-174
2.2654888e-173
-1.2575047e-175
2.4881264e-177
1.6993973e-176
8.9455132e-178
-4.3299889e-177
1.3893358e-178
1.9190328e-176
-1.9738255e-176
3.2419393e-176
-1.5294684e-178
2.3135022e-180
-8.341969e-09
4.9279897e-20
-2.9500639e-31
2.7984607e-42
-7.6855983e-53
8.3083086e-62
1.6382637e-71
7.4918282e-81
2.4760462e-89
-3.8031972e-97
1.136045e-104
-2.7637106e-111
-2.0578456e-115
1.192275e-120
-2.0791991e-126
-5.659344e-131
2.2511711e-136
-1.3313269e-141
-2.9957588e-147
5.6836315e-153
1.3106615e-158
4.1031349e-164
-5.8776786e-170
-2.0586904e-176
-3.7379929e-180
-4.0820652e-178
6.2574571e-180
-1.4858619e-179
5.5298519e-179
-9.0377157e-181
5.6928402e-183
5.6136561e-182
1.9037764e-183
-1.0467331e-182
5.4409504e-184
9.5593552e-182
4.0863031e-182
-3.6072184e-182
2.2149377e-184
4.0715794e-187
-7.1901001e-09
3.6897902e-20
-1.9204149e-31
1.5534456e-42
-3.4374649e-53
1.181472e-62
2.1472027e-72
8.0813448e-82
1.8365333e-90
-3.1096431e-98
7.6691463e-106
-1.0824539e-112
2.2279397e-118
8.8731769e-124
-1.4897972e-129
9.6232169e-135
-5.3502787e-140
7.3082653e-146
-1.0676865e-151
1.760062e-157
-1.8279117e-163
4.1448676e-169
1.8744268e-174
-7.5226796e-180
2.0199417e-185
8.9926609e-184
-1.6514389e-185
8.0877327e-185
2.1049392e-184
5.5275519e-186
1.7549978e-187
-1.9954242e-187
-6.733117e-189
-2.0393394e-188
2.0424489e-189
1.3022058e-187
-9.0574012e-188
3.2879053e-188
-4.4456533e-189
5.0124464e-194
-6.2006467e-09
2.7645684e-20
-1.2531903e-31
8.6826962e-43
-1.565457e-53
2.8578598e-63
4.8799424e-73
1.5345308e-82
2.512977e-91
-5.5531921e-99
1.1358216e-106
-1.1216695e-113
5.8296122e-119
-2.3375896e-124
5.2606574e-130
-6.3973382e-136
7.9922408e-142
-5.9993084e-147
5.2284313e-152
-7.8146368e-158
2.1368543e-163
-7.5103609e-169
6.1682847e-175
-2.4859257e-180
4.6651316e-185
-1.1864239e-189
2.7326988e-191
-1.1939666e-190
-3.4749831e-190
-1.2950338e-191
-6.1567252e-193
3.8146081e-192
3.9299327e-193
-8.6742442e-194
-2.7139769e-195
-1.9758582e-193
1.1296881e-193
-5.801506e-194
-3.7818212e-195
4.5816518e-201
-5.3515901e-09
2.0730396e-20
-8.196734e-32
4.8835921e-43
-7.2440576e-54
8.2995408e-64
1.3608803e-73
3.6258653e-83
4.4274854e-92
-2.0206324e-99
3.5734985e-107
-2.7243129e-114
2.7252663e-120
-1.2239018e-125
2.4597169e-131
-8.0509781e-137
1.4512838e-142
-3.8871946e-148
3.598264e-154
-3.4855407e-160
8.0775227e-166
-7.6079234e-172
1.943665e-177
-4.8719128e-183
6.3068999e-189
-5.3867489e-195
9.7707144e-197
1.9518419e-195
3.8430681e-195
1.238664e-197
2.8072355e-198
-1.2411251e-197
-1.1102915e-198
2.2936487e-199
-2.1638862e-200
1.8911106e-199
-1.2426746e-199
8.6181692e-200
-1.8647752e-201
2.4352915e-208
-4.6242542e-09
1.5562509e-20
-5.3739048e-32
2.7631459e-43
-3.4009615e-54
2.6633434e-64
4.3031002e-74
9.8423437e-84
9.2172924e-93
7.2477333e-100
-1.1470369e-107
6.9427534e-115
-3.2644449e-121
3.2160305e-127
-3.8818166e-133
3.2408171e-139
-3.561181e-145
8.9420716e-151
-6.0575441e-157
1.6221454e-162
-1.6740795e-168
2.3065231e-174
-3.0614504e-180
2.7894043e-186
-5.0266695e-192
5.3487506e-198
-2.6537634e-202
-4.4320448e-201
-9.0269685e-201
-2.3530214e-203
-6.1706645e-204
-1.1577297e-202
3.8980588e-204
-4.913593e-205
-5.9405749e-205
-2.1550819e-205
7.8729489e-206
-8.4265936e-206
-7.5964663e-208
-4.2023108e-215
-4.0024127e-09
1.1701803e-20
-3.5323875e-32
1.5725022e-43
-1.6181429e-54
9.1317276e-65
1.5012653e-74
2.9852145e-84
2.1924952e-93
3.5534752e-101
-5.1533948e-109
2.3828444e-116
-7.761365e-123
1.0851117e-128
-9.3392478e-135
9.8577809e-141
-1.1926037e-146
8.5116645e-153
-1.491997e-158
1.6383244e-164
-1.1364105e-170
8.3879208e-177
-1.407535e-182
1.5714514e-188
-2.0028237e-194
3.1795524e-200
-9.5388495e-206
1.3275078e-206
1.4386544e-206
3.4841104e-209
1.9375716e-209
-8.4785967e-208
-5.4643026e-210
5.5177114e-211
2.040437e-210
4.5791121e-211
-4.2721836e-212
1.0336101e-211
-2.4002048e-214
-2.4398632e-221
-3.4719258e-09
8.8188516e-21
-2.329015e-32
9.0023406e-44
-7.7970807e-55
3.2887232e-65
5.7400502e-75
1.0042771e-84
5.8973639e-94
4.633046e-102
-6.3840101e-110
2.3641332e-117
-5.4212847e-124
4.1675407e-130
-4.238547e-136
6.8547481e-142
-4.7461604e-148
4.3071715e-154
-3.4783157e-160
3.3573852e-166
-2.5486324e-172
3.4077102e-178
-3.1611998e-184
2.4345545e-190
-1.6964782e-196
1.2567648e-202
-1.382189e-208
-1.2629806e-212
-2.6642294e-212
-4.3975364e-215
-2.4571725e-215
1.7073962e-212
3.8092488e-216
-1.5178999e-215
-1.924187e-216
-5.9490467e-217
2.4692842e-218
-1.1572937e-217
-4.6198222e-221
-5.5230001e-228
-3.0205028e-09
6.6670147e-21
-1.541354e-32
5.1863611e-44
-3.8037941e-55
1.2319333e-65
2.4305036e-75
3.7872221e-85
1.8094783e-94
8.5665916e-103
-1.1621426e-110
3.588312e-118
-6.4178866e-125
1.0034351e-130
-9.6218171e-137
4.709646e-143
-3.0055172e-149
3.4145408e-155
-2.9200724e-161
1.7462949e-167
-1.2058775e-173
9.3002257e-180
-7.7724001e-186
5.9173599e-192
-3.2491731e-198
2.2578104e-204
-1.2786293e-210
8.2822781e-217
3.729002e-218
3.4235068e-221
2.7968245e-221
-1.5790827e-217
-1.7839521e-220
3.0408916e-221
1.5755574e-222
4.9541477e-223
-1.3145399e-224
5.0458005e-223
-8.3375132e-228
-9.8580922e-235
-2.6373888e-09
5.0614229e-21
-1.0248768e-32
3.0088914e-44
-1.8789505e-55
4.7718304e-66
1.1820294e-75
1.6599028e-85
6.5505652e-95
2.0609125e-103
-2.9252676e-111
7.6906143e-119
-1.0817639e-125
5.9317722e-132
-3.5989822e-138
2.072655e-144
-1.0206075e-150
4.5529023e-157
-2.7322457e-163
1.1185172e-169
-9.6649534e-176
5.4553928e-182
-3.4255711e-188
1.6013358e-194
-8.9537447e-201
4.9003066e-207
-5.9171881e-213
5.8641728e-219
-5.9608445e-224
-2.3574086e-227
-3.1100708e-227
1.5865066e-223
2.4742622e-226
-7.2026925e-227
-1.3855872e-228
-1.8351925e-229
5.6269426e-231
-1.1764877e-227
-3.3994398e-234
-3.099093e-241
-2.3132342e-09
3.8636232e-21
-6.8552273e-33
1.7596432e-44
-9.4026386e-56
1.9045165e-66
7.4282507e-76
9.517239e-86
3.144645e-95
6.9990477e-104
-1.1007285e-111
2.4860146e-119
-2.6782239e-126
1.2161088e-132
-7.0013219e-139
3.9392882e-145
-1.87602e-151
1.2931971e-157
-6.1571836e-164
2.9524944e-170
-1.4330074e-176
9.5574942e-183
-6.1991113e-189
3.9296574e-195
-1.8451671e-201
1.1984229e-207
-6.4396386e-214
3.4194629e-220
-2.0221689e-226
1.4991074e-232
4.3274875e-233
-1.4598141e-229
-2.7030868e-232
5.3790449e-233
9.8548793e-235
7.5507355e-236
-2.7289715e-237
-3.4232318e-233
-5.6132389e-240
-4.0739052e-247
-2.0398617e-09
2.9699325e-21
-4.619805e-33
1.0387329e-44
-4.7710778e-56
7.8170418e-67
1.3716851e-75
1.6238043e-85
4.5499697e-95
7.4759039e-104
-1.5007165e-111
2.9926748e-119
-2.3935414e-126
8.2368971e-133
-4.0956158e-139
2.0603297e-145
-1.0548328e-151
5.5165722e-158
-1.9676079e-164
1.0618835e-170
-4.6134618e-177
2.3490869e-183
-1.2623676e-189
7.3096139e-196
-3.9506295e-202
1.8058277e-208
-9.5393986e-215
4.1219418e-221
-2.2378638e-227
1.3920955e-233
-3.6604202e-239
9.6615503e-236
1.8242678e-238
-3.1957075e-239
-5.8169635e-241
-2.7400184e-242
1.3355627e-243
-2.2131715e-238
-3.1052118e-245
-2.0605887e-252
-1.8102307e-09
2.3029367e-21
-3.1427362e-33
6.2003661e-45
-2.45835e-56
3.2975126e-67
-1.6266173e-76
-1.8031138e-86
-4.3351688e-96
-5.4370815e-105
1.8986223e-112
-3.4315258e-120
2.2529214e-127
-6.2911589e-134
2.8530956e-140
-1.0166774e-146
4.1800603e-153
-1.6476755e-159
6.1593202e-166
-2.065411e-172
9.0965369e-179
-3.6989903e-185
1.8209689e-191
-7.3226145e-198
2.876138e-204
-1.1133925e-210
5.2233303e-217
-2.3361715e-223
1.1651889e-229
-5.0708792e-236
2.4470468e-242
-5.4929671e-242
-9.0585679e-245
1.9083893e-245
2.5785123e-247
8.5879595e-249
4.2076695e-249
-1.6460409e-242
-2.1189864e-249
-1.3499236e-256
-1.6182289e-09
1.8048316e-21
-2.1629614e-33
3.7507075e-45
-1.2887131e-56
1.4300472e-67
-2.6885929e-77
-2.8321043e-87
-5.9099584e-97
-5.8039873e-106
-2.3541244e-112
3.8779849e-120
-2.1026685e-127
4.7027544e-134
-1.9346363e-140
7.0087549e-147
-2.264277e-153
6.6602397e-160
-2.8746164e-166
1.1810638e-172
-3.8178003e-179
1.3677936e-185
-5.478705e-192
2.4185459e-198
-9.9356763e-205
3.656205e-211
-1.7183154e-217
6.1882981e-224
-2.3469476e-230
1.0831831e-236
-4.4389924e-243
3.4197599e-248
4.98538e-251
-8.5346963e-252
-9.6553637e-254
-2.3712742e-255
5.9532764e-254
-1.9217362e-247
-2.3334099e-254
-1.5200079e-261
-1.4586128e-09
1.4325676e-21
-1.5099411e-33
2.305262e-45
-6.8896029e-57
6.3835069e-68
-6.7907922e-78
-6.9079063e-88
-1.2651263e-97
-9.9428122e-107
-2.2829679e-114
3.5433319e-122
-1.6076973e-129
2.936024e-136
-8.9076759e-143
3.1799639e-149
-8.4514702e-156
3.1950486e-162
-1.0106009e-168
3.5156855e-175
-1.2212981e-181
4.1501127e-188
-1.2686956e-194
4.2868233e-201
-1.9980332e-207
7.4425837e-214
-2.0763892e-220
7.2422227e-227
-2.3871889e-233
9.2365656e-240
-4.8996188e-246
2.1411371e-252
-2.6340768e-257
2.6764097e-258
3.0026632e-260
5.3678113e-262
2.4804113e-259
-9.2989283e-253
-1.1424683e-259
-7.0781778e-267
-1.3268985e-09
1.1541555e-21
-1.0722011e-33
1.4439019e-45
-3.7670485e-57
2.938765e-68
-2.0452669e-78
-2.0467877e-88
-3.3242458e-98
-2.1291261e-107
-2.2087384e-115
3.3667479e-123
-1.3116938e-130
1.9387781e-137
-5.4942243e-144
1.5866879e-150
-4.6012257e-157
1.244956e-163
-3.3583408e-170
9.0871544e-177
-3.0097601e-183
8.7436668e-190
-2.5006235e-196
7.8852524e-203
-1.9984627e-209
5.9191643e-216
-2.077372e-222
8.1206149e-229
-2.3846207e-235
9.3715228e-242
-3.3174893e-248
1.4988511e-254
-5.3027244e-261
-8.7230239e-265
-7.4167599e-267
-1.1816092e-268
2.6063428e-265
-1.0439869e-258
-1.2868993e-265
-8.5341581e-273
-1.2192654e-09
9.4586798e-22
-7.7680074e-34
9.2469745e-46
-2.1134858e-57
1.398919e-68
-6.882867e-79
-6.9272232e-89
-1.0084632e-98
-5.3531897e-108
-3.2627829e-116
4.9812945e-124
-1.690325e-131
2.2238069e-138
-5.6259778e-145
1.5310251e-151
-4.0679874e-158
1.0998292e-164
-2.7045119e-171
7.2077472e-178
-2.0435517e-184
5.7622947e-191
-1.6165208e-197
4.0671931e-204
-1.1721214e-210
3.316555e-217
-1.1365828e-223
3.2570089e-230
-1.060626e-236
3.6543804e-243
-9.6576233e-250
4.1219892e-256
-7.9109858e-263
6.8594781e-269
1.5131965e-273
2.2700319e-275
7.7524146e-271
-2.8909422e-264
-3.2362044e-271
-2.0382254e-278
-1.1324693e-09
7.9014878e-22
-5.7595431e-34
6.0760208e-46
-1.2210296e-57
6.9065766e-69
-2.5238404e-79
-2.6252272e-89
-3.4621821e-99
-1.5459977e-108
-6.3047487e-117
1.0114421e-124
-3.0085226e-132
3.1280447e-139
-7.6887392e-146
2.0583311e-152
-5.0538323e-159
1.2359685e-165
-2.9057205e-172
6.9488878e-179
-1.6654517e-185
4.4615727e-192
-1.1898248e-198
3.0547855e-205
-6.2044775e-212
5.1533624e-218
3.0889038e-224
3.1566009e-230
3.2924051e-236
2.8468949e-242
4.878778e-248
3.9474268e-254
6.5402374e-260
6.7895413e-266
4.382188e-270
-2.0342423e-276
6.2237312e-277
-2.6885357e-270
-2.9937413e-277
-1.9630694e-284
-1.0637645e-09
6.7404652e-22
-4.3831832e-34
4.1107498e-46
-7.2908633e-58
3.5482828e-69
-9.9713038e-80
-1.1107261e-89
-1.3414052e-99
-5.1065493e-109
-1.4933956e-117
2.7718661e-125
-7.3963231e-133
6.5893676e-140
-1.274546e-146
2.8001319e-153
-6.6996893e-160
1.6412901e-166
-3.5539765e-173
8.6054936e-180
-2.0793177e-186
5.5083673e-193
-5.1241561e-200
5.7059076e-205
3.1939639e-209
4.0532839e-215
3.5713068e-220
2.9639304e-226
1.6378557e-231
9.4359537e-237
1.4868923e-242
1.3864565e-248
2.8699126e-254
5.9671249e-260
4.6537325e-264
2.8007274e-271
-7.1105271e-277
-2.3264544e-276
-2.5614401e-283
-1.8123116e-290
-1.0108112e-09
5.8802478e-22
-3.4328324e-34
2.8730938e-46
-4.5156428e-58
1.9034152e-69
-4.2233564e-80
-5.2951956e-90
-5.9200124e-100
-1.9460846e-109
-4.2712971e-118
9.9867959e-126
-2.4933433e-133
1.9195787e-140
-3.7098437e-147
7.1951264e-154
-1.6098094e-160
3.5834401e-167
-8.7039192e-174
1.3686082e-180
-1.2779738e-186
3.0970721e-191
1.0400075e-196
1.283122e-201
1.4191006e-206
-1.4910744e-211
3.2773806e-215
7.1899044e-221
1.7127053e-226
7.749515e-232
4.8856023e-237
1.1951908e-242
2.266282e-248
2.2876107e-254
-2.7069829e-260
1.2738096e-266
-5.7188721e-273
-1.2130597e-277
-7.9396005e-286
-1.1313502e-293
-9.7159985e-10
5.2507788e-22
-2.7726386e-34
2.0805248e-46
-2.9105486e-58
1.0695251e-69
-1.9137394e-80
-2.9177862e-90
-3.0549179e-100
-8.7811943e-110
-1.500197e-118
5.6484367e-126
-1.3230137e-133
9.1072884e-141
-1.5671549e-147
3.1167951e-154
-6.9574868e-161
1.486351e-167
-3.2852376e-174
2.0307629e-180
3.4442285e-186
-1.0857627e-191
5.650075e-196
-2.1233596e-201
3.1233212e-207
-6.4358662e-213
1.7219783e-218
1.0391747e-223
1.0379333e-228
-8.6917244e-234
-2.7890882e-239
-1.9090814e-243