/*--------------------------------*- C++ -*----------------------------------*\
  =========                 |
  \\      /  F ield         | OpenFOAM: The Open Source CFD Toolbox
   \\    /   O peration     | Website:  https://openfoam.org
    \\  /    A nd           | Version:  10
     \\/     M anipulation  |
\*---------------------------------------------------------------------------*/
FoamFile
{
    format      ascii;
    class       volScalarField;
    location    "0.16";
    object      TporMedia_0;
}
// * * * * * * * * * * * * * * * * * * * * * * * * * * * * * * * * * * * * * //

dimensions      [0 0 0 1 0 0 0];

internalField   nonuniform List<scalar> 
4000
(
-4.6291848e-05
2.3346958e-05
0.00045947217
0.00097705435
0.00098142251
0.00066052154
0.00064922881
0.0005735245
0.0010827626
0.00064102478
0.00079857611
0.0011231157
0.00066972186
0.00088669931
0.00051263651
0.0005771429
0.0010298703
0.00096654095
0.0009408114
0.00060869136
0.0010198698
0.00064759851
0.00075389635
0.00090718198
0.00074805755
0.00055343682
0.00071370998
0.00054757026
0.00071195991
0.00048031422
0.00062951459
0.00073510099
0.00090727539
0.00066314153
0.00073354596
0.00056065783
0.00056512913
0.00063422408
0.00050221643
0.00051106745
-4.7885353e-06
3.2058666e-13
1.938805e-11
1.1419211e-09
1.0334705e-09
4.5154255e-10
5.586049e-10
6.7112379e-10
1.0439645e-09
5.3288433e-10
8.1073087e-10
1.6018262e-09
4.0127288e-10
5.7512257e-10
4.9064053e-10
4.5959142e-10
1.005176e-09
8.7366041e-10
7.8477891e-10
6.5274575e-10
6.2361777e-10
7.5404574e-10
6.17814e-10
6.3041414e-10
5.0320945e-10
4.8135398e-10
3.803495e-10
6.2451645e-10
6.0142713e-10
3.5027582e-10
3.9770159e-10
5.0162795e-10
7.3325441e-10
4.3649482e-10
9.586937e-10
4.7587658e-10
3.0776709e-10
4.3174002e-10
4.9147408e-10
5.0297888e-10
-1.9699417e-06
-1.2099886e-13
2.442364e-19
1.7588334e-16
-1.044855e-15
3.6015433e-16
9.4347619e-16
5.754376e-16
9.5903705e-16
4.9859876e-16
1.1214679e-15
1.279451e-15
3.1682525e-16
8.9276084e-16
4.6272835e-16
4.8922078e-16
4.7838003e-15
9.3155784e-16
7.7308584e-16
6.2083872e-16
5.0129632e-16
5.7963856e-16
8.3634967e-16
5.8242009e-16
5.823093e-16
5.0396881e-16
5.0248941e-16
5.7413013e-16
3.5578486e-16
3.4153583e-16
8.5071323e-16
3.997733e-16
1.4840764e-15
2.7435077e-16
9.8197363e-16
5.0746592e-16
4.0800098e-16
3.0143374e-16
4.0757532e-16
5.3273322e-16
-1.0807266e-06
6.7805312e-15
4.5683941e-23
5.120078e-24
5.596337e-22
-3.0116939e-21
6.6130733e-22
6.2038983e-22
8.5237397e-22
4.1654021e-22
1.1962937e-21
1.3856656e-21
2.9617081e-22
5.8699851e-22
3.6357846e-22
4.5115568e-22
3.6172546e-21
6.5962402e-22
1.2430147e-21
4.6668706e-22
6.9770183e-22
7.2333915e-22
5.0340306e-22
4.7682006e-22
4.4178662e-22
5.544281e-22
5.3217737e-22
6.5538938e-22
4.2991777e-22
3.9101949e-22
5.3255089e-22
2.5797874e-22
1.3445528e-21
2.3692219e-22
7.1934822e-22
4.4862059e-22
2.8191303e-22
2.1721474e-22
3.0283513e-22
4.3668957e-22
-6.9349274e-07
1.3713445e-15
7.1706984e-24
1.3150137e-31
4.1162005e-28
1.4384218e-27
1.2894302e-27
4.266891e-28
1.2008269e-27
2.8611798e-28
1.4273741e-27
9.5936969e-28
4.5979474e-28
5.3758398e-28
2.9187069e-28
3.6722739e-28
2.3592539e-27
1.2785368e-27
1.1168995e-27
4.2212926e-28
5.5217698e-28
7.0972048e-28
3.8689533e-28
3.8664658e-28
4.3802832e-28
3.9223523e-28
3.6501474e-28
6.2694565e-28
2.9907011e-28
3.6996142e-28
2.924552e-28
1.6167364e-28
1.3222395e-27
1.5407488e-28
4.8693245e-28
3.1371045e-28
1.6896055e-28
1.3918697e-28
1.9224932e-28
3.1405287e-28
-4.9339364e-07
4.7444649e-16
3.1147847e-24
1.6767906e-32
2.2667984e-35
-2.780726e-34
4.8259902e-33
3.516984e-34
1.112188e-33
2.1916583e-33
1.1947336e-33
1.2804908e-33
2.8156393e-34
4.9096488e-34
2.9720664e-34
3.5903127e-34
2.1638875e-33
1.3812316e-33
8.2781751e-34
9.0694714e-34
4.6771691e-34
7.4167812e-34
4.74546e-34
5.3770787e-34
2.461602e-34
2.8599313e-34
2.5030632e-34
4.1392524e-34
2.68975e-34
2.0218718e-34
3.3403418e-34
1.079366e-34
9.5367434e-34
1.5013881e-34
2.8681908e-34
2.3741918e-34
1.3842318e-34
7.7132534e-35
1.211625e-34
2.5552565e-34
-3.7730839e-07
2.1350831e-16
-1.5819488e-23
-5.2524281e-32
-9.2432467e-40
3.7881168e-41
-2.5513025e-39
2.5965056e-40
7.7872819e-40
1.7893293e-39
1.2702889e-39
8.6704443e-40
2.0063939e-40
7.3684123e-40
4.0490775e-40
3.8088303e-40
2.8229961e-39
8.1435381e-40
6.2699435e-40
8.1899578e-40
3.9436937e-40
5.2777653e-40
4.4539299e-40
4.1057477e-40
1.5167682e-40
4.0385548e-40
1.8340314e-40
3.2079948e-40
1.4475144e-40
1.2810593e-40
2.5198292e-40
6.2020426e-41
7.1768304e-40
1.2951972e-40
1.8766641e-40
1.6273733e-40
1.3807612e-40
3.9219715e-41
8.9532068e-41
2.5728738e-40
-3.0411927e-07
1.1346657e-16
-3.2277736e-25
-7.7603418e-34
-6.1516791e-42
-6.0886466e-48
5.4310709e-46
1.9098686e-46
6.927362e-46
1.1869184e-45
8.2427618e-46
6.5947106e-46
1.445453e-46
6.9170451e-46
3.7986411e-46
2.6759996e-46
2.030948e-45
6.887396e-46
7.4029494e-46
4.193923e-46
3.8905414e-46
4.8706725e-46
4.3094014e-46
4.4842712e-46
1.192528e-46
3.551853e-46
2.6345341e-46
4.0277401e-46
1.2063641e-46
1.2107704e-46
2.3242648e-46
3.3746595e-47
4.7102984e-46
1.4168671e-46
1.4586808e-46
1.027694e-46
8.2560987e-47
2.2398006e-47
6.4852113e-47
1.9231743e-46
-2.5368328e-07
6.7158964e-17
-7.5066282e-26
-1.4977123e-34
-6.4940408e-43
-8.9460142e-50
-5.9671514e-53
-3.8888716e-52
5.9218642e-52
9.8329856e-52
6.1267608e-52
1.2019313e-51
1.2479448e-52
3.9145361e-52
4.3700984e-52
1.603674e-52
1.7746553e-51
6.1251111e-52
1.0111719e-51
3.9764455e-52
2.4811549e-52
7.7731176e-52
2.7646965e-52
4.6442911e-52
1.207485e-52
1.7987881e-52
1.8609239e-52
3.1929698e-52
6.5963969e-53
1.0737801e-52
1.2545985e-52
3.2842515e-53
3.313424e-52
1.5403899e-52
9.4516587e-53
7.3235301e-53
3.9920892e-53
1.8327645e-53
5.9387384e-53
1.4932997e-52
-2.1596305e-07
4.2694221e-17
-2.5532501e-26
-4.874048e-35
-1.3166857e-43
-3.7914652e-51
2.8997846e-58
1.5261894e-58
4.079979e-58
1.0556481e-57
6.173259e-58
1.8028567e-57
8.7000642e-59
4.5465268e-58
3.8789604e-58
1.259881e-58
1.5849754e-57
5.6390936e-58
8.4404162e-58
2.6624225e-58
4.2222197e-58
9.4036006e-58
2.210961e-58
5.4150617e-58
8.9211152e-59
1.702433e-58
1.7172737e-58
2.7841263e-58
4.6081713e-59
1.2910113e-58
1.1604598e-58
2.7510287e-59
2.8301875e-58
1.1186472e-58
5.6487437e-59
5.6925978e-59
2.8856862e-59
1.0326756e-59
5.8223138e-59
1.0679404e-58
-1.8502347e-07
2.8317473e-17
-1.0450435e-26
-2.3282593e-35
-4.3164187e-44
-5.0730761e-52
3.0934453e-59
-3.561663e-65
4.3010158e-64
1.3985245e-63
3.9156797e-64
3.9737247e-63
1.3147999e-64
2.6493776e-64
4.5760324e-64
8.9652037e-65
2.1428416e-63
4.8435716e-64
7.6998647e-64
3.0504906e-64
3.7953643e-64
7.3847362e-64
2.3520036e-64
5.9069927e-64
1.2885798e-64
2.1754567e-64
1.8628545e-64
3.5566289e-64
3.9900218e-65
1.4089551e-64
9.9276729e-65
3.0360851e-65
2.8502241e-64
1.0885889e-64
4.6352708e-65
2.8908566e-65
1.3827782e-65
8.360431e-66
6.4878566e-65
8.504534e-65
-1.5834716e-07
1.92516e-17
-4.7709621e-27
-1.9953353e-35
-2.738518e-44
-1.6760596e-52
1.035122e-59
-1.0546191e-66
1.65615e-69
1.1160535e-69
3.7390683e-70
3.9130045e-69
1.489691e-70
3.4110419e-70
3.7928396e-70
7.1400389e-71
2.0080868e-69
3.371409e-70
8.0561781e-70
3.9796321e-70
4.8612607e-70
8.759014e-70
2.6213154e-70
3.9723571e-70
8.5331994e-71
2.2306413e-70
1.383053e-70
4.0390196e-70
2.4238341e-71
1.5701532e-70
7.6022439e-71
2.4495896e-71
1.9523038e-70
8.3603379e-71
2.6113776e-71
2.1433505e-71
1.1771751e-71
6.0819584e-72
4.525512e-71
6.6261882e-71
-1.3482528e-07
1.3264394e-17
-2.3363905e-27
1.645122e-35
1.7779129e-44
6.4841596e-53
-8.0754191e-60
5.34079e-67
-4.757763e-73
8.5961177e-76
3.3307504e-76
3.8578144e-75
1.0554773e-76
4.3456839e-76
2.6976763e-76
1.353278e-76
1.9891877e-75
9.033502e-76
8.2814016e-76
5.7860861e-76
6.0058498e-76
8.9490107e-76
1.3817777e-76
3.9754112e-76
8.4841499e-77
2.2507854e-76
9.6688531e-77
3.3645973e-76
3.4575477e-77
1.0931209e-76
1.0660166e-76
2.8560195e-77
1.6360969e-76
5.6606386e-77
2.7800758e-77
1.6080993e-77
1.755263e-77
4.1829341e-78
5.2573525e-77
5.9240553e-77
-1.1415004e-07
9.2116785e-18
-1.2004506e-27
1.6370357e-36
1.4763627e-45
3.4891275e-54
2.8889005e-61
-1.3201119e-68
4.832312e-75
6.7116817e-81
2.3546958e-82
4.1540883e-81
1.6825606e-82
4.6478277e-82
3.0852529e-82
1.8342851e-82
1.9920435e-81
8.1719375e-82
6.9924705e-82
6.5015749e-82
4.2538965e-82
6.5194744e-82
9.7002457e-83
6.458681e-82
7.7414114e-83
1.9194741e-82
7.2221361e-83
2.3770861e-82
4.701654e-83
8.5889162e-83
8.8247772e-83
2.1297549e-83
2.3623018e-82
5.8508982e-83
3.3886067e-83
9.7972987e-84
1.4263423e-83
4.189778e-84
4.0152616e-83
1.0544874e-82
-9.6354718e-08
6.4422664e-18
-6.398287e-28
4.0539996e-37
3.2170173e-46
5.2699917e-55
1.0970438e-62
-4.0595301e-70
7.3676562e-77
7.0222867e-83
2.4334164e-88
6.413296e-87
1.355311e-88
4.580659e-88
2.1055717e-88
2.4565432e-88
2.7386968e-87
1.9841853e-87
8.7057039e-88
5.0525313e-88
3.8604131e-88
1.3585675e-87
9.1521301e-89
6.4898538e-88
7.2158733e-89
2.0912331e-88
1.5054105e-88
2.2242925e-88
6.0747103e-89
8.6527292e-89
5.3256916e-89
1.4149242e-89
2.2537286e-88
4.788342e-89
1.9585503e-89
1.0873981e-89
1.274799e-89
3.4898343e-90
5.1642059e-89
1.0657623e-88
-8.1267182e-08
4.5365858e-18
-3.5136855e-28
1.2904835e-37
9.5408579e-47
1.1414707e-55
1.0877674e-63
-3.4485022e-71
3.3773587e-78
3.8507495e-83
4.0123377e-89
4.2901475e-93
3.0245758e-94
9.6433845e-94
3.570835e-94
3.3319707e-94
7.1535243e-93
2.2736652e-93
1.2457354e-93
7.2645447e-94
9.9748532e-94
8.9055535e-94
9.8937706e-95
8.5037205e-94
7.7086354e-95
2.0584893e-94
1.1741161e-94
2.6985502e-94
1.478027e-94
7.0379674e-95
5.9870087e-95
1.2795228e-95
1.9984372e-94
4.302293e-95
1.5591717e-95
8.4912783e-96
9.0464669e-96
3.2794159e-96
7.9962442e-95
2.0488339e-94
-6.8630396e-08
3.2182513e-18
-1.9792281e-28
4.6918479e-38
3.4530355e-47
3.1488533e-56
1.6751548e-64
-5.175731e-72
3.4074543e-79
1.6750496e-84
1.4582665e-90
2.3190374e-96
5.4785318e-100
1.2815722e-99
3.8790342e-100
2.6606227e-100
1.3395327e-98
2.4248615e-99
1.5704909e-99
5.6006296e-100
9.4684893e-100
1.0050362e-99
1.0100757e-100
6.6291907e-100
5.691076e-100
6.6382111e-100
2.353675e-100
3.8060278e-100
1.4132386e-100
1.5044361e-100
5.9506772e-101
1.3815121e-101
1.5356144e-100
4.0982698e-101
1.106401e-101
9.5053638e-102
1.191286e-101
3.112529e-102
1.0394328e-100
2.1474963e-100
-5.8110486e-08
2.3004702e-18
-1.1397616e-28
1.8610837e-38
1.496576e-47
1.0777715e-56
3.5736733e-65
-1.3044535e-72
5.8812605e-80
-3.1674661e-86
-3.3934264e-92
-8.2817118e-98
-5.3959955e-104
2.3640832e-105
5.1790415e-106
-6.0307732e-105
1.5466006e-104
1.0583694e-103
1.749274e-105
5.6901897e-106
1.2678491e-105
9.1902703e-106
1.2227615e-106
6.0947931e-106
5.904848e-106
1.6914792e-105
1.7721214e-106
2.3015999e-106
4.6376102e-106
1.5170485e-106
6.6959565e-107
1.9682627e-107
2.7122512e-106
4.9697345e-107
8.0019038e-108
9.6968637e-108
1.0856715e-107
2.8089218e-108
2.0315213e-106
7.6308452e-106
-4.9355002e-08
1.6564966e-18
-6.6909733e-29
7.8693492e-39
8.1140154e-48
4.7604859e-57
1.0570895e-65
-7.4914951e-73
2.5737901e-80
-7.3154342e-87
-1.0761099e-92
-1.2838681e-98
-2.7149917e-104
-2.5708509e-110
6.7188021e-112
-8.0442361e-111
2.010534e-110
1.5924618e-109
2.2228369e-111
2.2225885e-111
2.0108975e-111
1.1991156e-111
2.0686283e-112
7.6876389e-112
9.3754215e-112
2.3867071e-111
2.5295066e-112
2.4651147e-112
7.1524383e-112
1.1332112e-112
7.7788071e-113
1.7487363e-113
2.0285304e-112
4.1507315e-113
5.7695399e-114
8.2580359e-114
1.1598325e-113
2.5683205e-114
2.5134798e-112
-1.351494e-111
-4.2054151e-08
1.2011408e-18
-3.9949858e-29
3.4962577e-39
7.1067816e-48
3.4979888e-57
5.4676612e-66
5.2529968e-73
-1.418275e-80
1.8765184e-87
2.482891e-93
3.0127565e-99
2.7874978e-105
3.7976835e-111
1.1476762e-116
-2.2115544e-116
2.3271313e-116
1.67253e-115
3.0791444e-117
3.7525527e-117
1.4506879e-116
5.9064478e-117
1.4000488e-118
1.2382552e-117
2.9236626e-117
1.9379613e-117
4.5201756e-118
3.5248632e-118
7.7068392e-118
1.6210855e-118
1.2130795e-118
2.3891688e-119
2.7896293e-118
7.0614904e-119
9.6180394e-120
1.5637591e-119
9.6613918e-120
2.3816201e-120
3.6009118e-118
1.6110666e-117
-3.5936537e-08
8.7634663e-19
-2.4202925e-29
1.6161115e-39
-6.7434424e-48
-2.8598871e-57
-3.2793354e-66
-6.4005552e-74
1.44838e-81
-1.3048737e-88
-7.2260011e-94
-9.6485789e-100
-2.316865e-105
-6.130557e-111
-1.271194e-116
-2.5338082e-121
2.7916865e-122
2.9033651e-121
6.4314204e-123
6.053813e-123
2.1152387e-122
-2.1748789e-119
2.5134657e-124
1.0598795e-123
1.1328045e-122
2.0877032e-123
3.484009e-124
4.3450245e-124
1.2243178e-123
2.8347254e-124
2.6948661e-124
2.8206351e-125
3.0730582e-124
6.7493132e-125
7.5164573e-126
1.4345276e-125
7.4450117e-126
2.1904333e-126
1.7957512e-123
-1.0515489e-123
-3.0776321e-08
6.4267954e-19
-1.4846162e-29
7.7158999e-40
-6.0203457e-49
-2.2600565e-58
-1.9646166e-67
-1.738881e-75
3.5498311e-83
-2.2232883e-90
3.8842156e-96
4.3190928e-102
-7.6410972e-106
2.1804856e-110
1.7883757e-115
5.7574798e-121
1.1245155e-126
5.3891064e-127
-2.4774871e-127
1.7008152e-126
3.5505487e-128
-5.9113682e-125
4.663531e-130
-5.5320105e-129
2.8565823e-128
6.9213802e-129
4.2234584e-130
6.7356549e-130
2.5355161e-129
2.7380775e-130
3.0366465e-130
4.1318821e-131
3.3093045e-130
1.0404328e-130
8.5451894e-132
1.5818571e-131
1.3085175e-131
1.9986295e-132
1.0123057e-128
5.4474857e-130
-2.6400645e-08
4.733639e-19
-9.203925e-30
3.7844508e-40
-1.4031503e-49
-4.790266e-59
-3.2447574e-68
-1.6485122e-76
3.155725e-84
-1.4244773e-91
9.5960754e-98
1.7695755e-103
2.4965674e-109
5.742734e-115
2.5214848e-120
5.7716083e-125
1.704003e-130
1.7933805e-132
-7.7097035e-133
3.4838424e-132
4.8582657e-133
-8.7282045e-131
3.9492424e-136
1.3792168e-134
9.2283831e-134
1.7367425e-134
7.3486828e-136
5.4342257e-136
4.4097952e-135
6.5940126e-136
4.2675624e-136
9.4849645e-137
3.4199446e-136
1.8637762e-136
8.1621845e-138
2.418999e-137
1.1864504e-137
3.8965877e-138
-2.437104e-134
-2.098729e-136
-2.2671752e-08
3.4985094e-19
-5.7574552e-30
1.8986271e-40
-4.1640063e-50
-1.3329459e-59
-7.2080713e-69
-2.3222919e-77
4.6672322e-85
-1.5785414e-92
4.2220242e-99
4.8081499e-105
7.8697695e-111
-3.2458096e-115
-8.37089e-121
-1.4022028e-126
-2.4510964e-132
-1.1850066e-138
-2.9688907e-138
6.7475721e-138
3.8979357e-138
-1.0615577e-136
1.0351063e-139
1.801969e-140
4.4466787e-139
5.1944369e-140
9.8257597e-142
6.1697655e-141
4.0515078e-141
7.0019934e-142
3.7555557e-142
8.2705219e-143
3.0325339e-142
8.1286936e-142
6.0334632e-144
1.7038664e-143
2.6578099e-143
4.1395993e-144
5.0803418e-140
4.5651397e-143
-1.9481451e-08
2.5925297e-19
-3.6288144e-30
9.709599e-41
-1.3977746e-50
-4.3452895e-60
-1.9165924e-69
-4.190463e-78
1.0232119e-85
-2.7918097e-93
4.4664922e-100
3.6677121e-106
1.1169937e-111
-7.6951026e-117
-4.5470553e-122
3.1608192e-127
-7.0280185e-132
-1.4435442e-136
7.2599618e-142
1.1203357e-143
6.4928331e-144
-3.9978731e-141
4.7546415e-145
-3.4608438e-146
1.5288585e-144
1.2637001e-145
7.638e-147
1.2598196e-146
5.1553926e-147
1.0782807e-147
2.6048356e-146
7.967519e-149
5.6365754e-148
7.1797956e-148
5.8351154e-150
2.2038408e-149
1.0266069e-148
-2.1537602e-149
-4.7845064e-146
-1.0174061e-149
-1.6747395e-08
1.9253371e-19
-2.3021062e-30
5.0482586e-41
-5.0742129e-51
-1.6007687e-60
-5.8711096e-70
-9.144407e-79
3.9042878e-86
-8.6579067e-94
1.0008375e-100
4.1422074e-106
1.0562187e-111
1.6737302e-117
-4.7904668e-122
-1.8442939e-126
-6.6575874e-132
-2.0966291e-136
-5.8817363e-142
3.0831252e-147
-1.2785167e-148
-5.8598974e-146
-1.0564524e-149
-4.886101e-152
4.6882503e-150
2.7308132e-151
1.1003535e-152
1.2406766e-152
1.0221883e-152
-8.8586717e-153
2.5266294e-151
3.4581942e-154
1.0750862e-153
8.1488137e-154
6.2416676e-156
2.7649653e-155
3.9421484e-154
1.177741e-154
2.843573e-152
1.9865204e-156
-1.4401037e-08
1.432292e-19
-1.4685775e-30
2.6623921e-41
-1.9483998e-51
-6.6281307e-61
-2.0582181e-70
-2.3667122e-79
-3.2964936e-86
6.2055892e-94
-5.0122931e-101
-1.4615246e-105
-3.9265509e-111
8.6073977e-117
1.4705424e-121
3.410745e-127
7.7854609e-133
2.0017102e-138
1.1482313e-143
1.6490428e-149
4.8923015e-154
6.2301653e-151
5.0560729e-155
-4.2021501e-157
1.3250574e-155
-1.0108407e-156
1.9198193e-157
-1.2823882e-157
2.3720777e-158
-1.8494273e-158
7.3728363e-157
8.3621603e-160
4.6054213e-159
1.5963198e-159
6.5038881e-162
1.3879666e-160
7.3002123e-160
9.9874266e-160
-1.4370989e-158
-4.1160779e-163
-1.238698e-08
1.0670618e-19
-9.4144772e-31
1.4219084e-41
-7.8108586e-52
-3.1576784e-61
-8.4451821e-71
-7.3785521e-80
-1.4037521e-87
2.3232988e-95
-1.3437418e-102
1.1041332e-108
9.6053977e-115
-1.4210699e-120
2.6844055e-126
1.2203167e-131
-5.5586672e-136
4.6223761e-141
-1.6419685e-146
6.2579941e-152
-1.1598716e-157
8.6704087e-157
7.7670119e-161
1.8910458e-162
6.4301999e-161
1.9498922e-160
-1.1617235e-162
9.4598814e-163
3.2719888e-164
-4.1761214e-164
3.3955371e-162
1.03273e-165
3.8181974e-165
2.0537761e-165
7.3776749e-168
3.4670547e-166
5.4639249e-165
-1.3607998e-165
6.7631247e-165
1.5193118e-169
-1.0657736e-08
7.959191e-20
-6.0607365e-31
7.6782559e-42
-3.2414227e-52
-1.8911228e-61
-4.4284278e-71
-3.0126564e-80
-2.5975489e-88
3.9240598e-96
-1.7593138e-103
1.0182904e-109
5.1493276e-115
7.0534508e-120
6.8573267e-125
-3.7651792e-130
8.0879307e-136
-2.1949159e-141
1.0371158e-146
-4.672135e-152
1.9650714e-157
2.3036856e-161
-2.5918032e-166
4.0695029e-166
3.8012138e-166
9.1491014e-166
3.7179753e-168
-1.6886979e-167
4.8166896e-169
-1.1980376e-169
1.1713082e-167
1.076656e-170
3.7915621e-171
-1.3039306e-170
7.9922817e-174
4.447525e-172
-6.2237828e-170
6.9322939e-171
-3.6011861e-171
2.1513965e-175
-9.1726081e-09
5.9423935e-20
-3.9158851e-31
4.1866441e-42
-1.384086e-52
-2.3229176e-61
-4.8435893e-71
-2.6201257e-80
-1.2936501e-88
1.8656454e-96
-6.532418e-104
2.0468043e-110
2.4884242e-115
-2.1630239e-120
2.4849046e-126
8.7995538e-131
-1.4439373e-136
3.2467574e-142
-1.1880996e-147
-9.2576008e-153
1.9977432e-157
-1.1892014e-162
2.1973394e-167
-5.1260112e-172
-3.9226587e-171
-2.9683622e-171
2.6241958e-173
8.6251392e-173
1.8196042e-174
9.3245918e-175
1.3381633e-172
5.3110393e-176
2.2310137e-176
-1.228742e-176
-7.0814403e-179
2.8749579e-176
-6.5276068e-175
-2.0697587e-176
2.156619e-177
6.1119132e-182
-7.8970251e-09
4.4400614e-20
-2.5379338e-31
2.3023721e-42
-6.0535494e-53
6.3306512e-62
1.1950255e-71
5.2347502e-81
1.6572878e-89
-2.4264497e-97
6.8319487e-105
-1.3421158e-111
-3.9410537e-117
3.4905908e-122
-1.1976856e-127
1.0590261e-132
1.8636258e-137
-3.8453359e-143
6.2624403e-149
-2.8009595e-154
-7.5953621e-160
4.4445013e-165
-2.487993e-170
3.6597532e-175
7.3016422e-177
1.4273422e-176
-3.8976565e-179
-9.1682686e-178
-3.4718041e-180
6.3261743e-180
4.6086325e-178
-1.4268555e-181
-2.5281903e-181
-2.3573739e-181
-1.3964124e-184
6.2705429e-182
2.5983588e-180
2.3358865e-182
-1.3012009e-183
8.6767404e-189
-6.8017725e-09
3.3198159e-20
-1.6493137e-31
1.2758006e-42
-2.7028858e-53
8.9346325e-63
1.5544506e-72
5.6054417e-82
1.2216473e-90
-2.0025053e-98
4.7104933e-106
-6.7093308e-113
9.3729385e-119
-7.9916309e-124
1.1424238e-127
-1.6312917e-133
5.7191835e-139
-2.2939564e-144
9.2216808e-150
-2.2918537e-155
2.5522676e-161
-1.7301867e-166
2.2517854e-172
-3.1058483e-178
-1.2745405e-182
-7.3091685e-182
1.0226805e-184
-3.7670411e-183
2.2902064e-185
-1.0621361e-185
-1.5168394e-182
2.7837932e-187
-2.2858556e-186
-1.3003592e-186
1.7904108e-189
-1.5237314e-186
-2.7993674e-186
-1.7523296e-188
-3.0547286e-189
6.1928862e-196
-5.8620091e-09
2.4839884e-20
-1.0744448e-31
7.1179488e-43
-1.2287344e-53
2.1546036e-63
3.5222755e-73
1.0615064e-82
1.6679362e-91
-3.5553746e-99
6.9451121e-107
-6.462222e-114
2.6457128e-119
-5.1582301e-125
1.2841236e-130
-4.0691201e-136
3.7218414e-142
-9.0379146e-148
1.406011e-153
-1.8874582e-159
5.0388315e-165
-1.880686e-170
3.5312563e-176
-3.9847978e-182
1.5228999e-187
4.0972109e-187
-1.5366536e-190
4.8445518e-189
-3.3470961e-191
1.2859638e-191
2.0325089e-188
3.4933226e-192
-8.1034454e-192
1.9330187e-191
-4.6821672e-195
6.6545254e-192
1.3384945e-191
1.7595694e-194
-2.6461707e-195
-1.9358427e-202
-5.0567926e-09
1.8602938e-20
-7.015889e-32
3.9963238e-43
-5.6758002e-54
6.2432979e-64
9.799e-74
2.5026025e-83
2.9334344e-92
-1.2750382e-99
2.1811385e-107
-1.6089204e-114
1.4061868e-120
-6.2390866e-126
6.533942e-132
-4.5252506e-138
1.5458017e-143
-1.0735219e-149
9.4552556e-156
-9.2087996e-162
7.6924123e-168
-3.9675692e-173
6.9271736e-179
-9.0491539e-185
9.2617128e-191
-1.075209e-192
1.9913519e-196
-1.3575225e-194
2.6304633e-196
-2.9206699e-197
5.4057708e-193
-7.5265441e-197
1.2719115e-197
-4.513231e-197
9.2504567e-201
-1.0240265e-197
-1.3279018e-197
-1.91444e-200
-1.352836e-201
-1.3756485e-208
-4.3680108e-09
1.3949819e-20
-4.5924931e-32
2.2572166e-43
-2.6600905e-54
1.9995303e-64
3.0920442e-74
6.781274e-84
6.0940701e-93
4.6711656e-100
-7.0381633e-108
3.8850684e-115
-1.9210289e-121
1.8081316e-127
-4.042774e-133
3.9098056e-139
-3.7891199e-145
3.2373647e-151
-2.3271424e-157
2.070407e-163
-4.1822476e-169
3.4614023e-175
-5.1542306e-181
4.0655647e-187
-4.9242782e-193
2.6622327e-198
-9.0516246e-202
1.9002845e-200
-4.3701596e-202
6.1473593e-203
-3.3359644e-198
1.40749e-202
-2.825436e-202
-4.6251434e-202
-1.4752694e-206
9.2974631e-204
1.2849561e-203
1.2131257e-206
-4.6941759e-208
-4.936779e-215
-3.7800512e-09
1.0479653e-20
-3.0144896e-32
1.2825324e-43
-1.2636297e-54
6.8442991e-65
1.076406e-74
2.052547e-84
1.4474746e-93
2.2837565e-101
-3.1590448e-109
1.3834797e-116
-4.7559511e-123
7.9812507e-129
-7.1696979e-135
4.0336488e-141
-3.4070253e-147
4.7777339e-153
-9.4125059e-159
7.5547007e-165
-7.0360401e-171
6.1456052e-177
-5.794787e-183
5.7160002e-189
-9.6290009e-195
8.5902256e-201
-6.2942143e-207
-3.3448042e-206
4.366586e-208
-7.3017288e-209
3.0630994e-204
-3.1527316e-208
4.3759171e-207
6.8383789e-208
1.4473578e-212
-1.3683862e-209
-6.6907477e-210
-2.2310772e-212
-1.3207262e-214
-1.4584845e-221
-3.2792856e-09
7.8927276e-21
-1.9851927e-32
7.3319597e-44
-6.0802518e-55
2.4613513e-65
4.1080407e-75
6.8948194e-85
3.8899782e-94
2.9654658e-102
-3.9293082e-110
1.4066085e-117
-3.3199482e-124
2.777129e-130
-1.734619e-136
1.1811771e-142
-8.2921444e-149
6.6366505e-155
-3.4191895e-161
2.8532392e-167
-2.5759565e-173
1.9516349e-179
-1.5891047e-185
1.4022484e-191
-9.7299644e-198
6.0418481e-204
-5.6675608e-210
2.1665422e-212
-3.9618546e-214
6.4552904e-215
-2.1577313e-210
4.1327376e-214
-3.6546647e-213
-8.46969e-214
-1.7660739e-218
9.4762315e-216
5.6957688e-216
3.9892685e-218
-2.6929637e-221
-3.2781224e-228
-2.8539076e-09
5.9651618e-21
-1.3126828e-32
4.2193515e-44
-2.9629077e-55
9.2098801e-66
1.7353544e-75
2.59391e-85
1.1906611e-94
5.4316223e-103
-7.045322e-111
2.0409741e-118
-3.2505132e-125
2.4388963e-131
-1.8048608e-137
9.3550261e-144
-6.3337779e-150
4.2727044e-156
-2.2955687e-162
1.374354e-168
-1.2234301e-174
6.2769985e-181
-5.7845699e-187
3.0243103e-193
-1.7075701e-199
1.4444637e-205
-8.184733e-212
3.189433e-218
2.8953498e-220
-4.6909263e-221
2.2329313e-216
-3.4899324e-220
3.7234057e-219
9.8654542e-220
1.4890957e-224
-6.288749e-222
-2.6113795e-222
-4.0929132e-224
-5.8517125e-228
-6.4620373e-235
-2.4935403e-09
4.5292223e-21
-8.7243752e-33
2.4460871e-44
-1.4624628e-55
3.5649861e-66
8.4141595e-76
1.1337402e-85
4.299477e-95
1.3010449e-103
-1.757626e-111
4.4134881e-119
-5.4348504e-126
4.2861278e-132
-2.4073962e-138
1.282011e-144
-6.4192092e-151
3.8970578e-157
-2.2469106e-163
1.0576641e-169
-8.1647813e-176
3.5124529e-182
-1.7783303e-188
9.6648979e-195
-5.6016386e-201
3.3909751e-207
-2.6926565e-213
1.8618245e-219
-2.1099685e-225
2.9654859e-227
-2.0417838e-222
4.0061927e-226
-5.1004796e-225
-8.280959e-226
-1.0371825e-230
2.9784434e-228
1.0763727e-228
8.2582894e-230
-8.5806591e-235
-1.0259665e-241
-2.1892119e-09
3.4596145e-21
-5.8360342e-33
1.4301855e-44
-7.3165473e-56
1.4225792e-66
5.2547341e-76
6.4609046e-86
2.0526771e-95
4.3964815e-104
-6.661785e-112
1.4349608e-119
-1.4417862e-126
5.1005927e-133
-2.3125775e-139
1.0768711e-145
-4.6634211e-152
1.9456947e-158
-8.734016e-165
3.8324171e-171
-1.9817382e-177
1.0416735e-183
-4.4023167e-190
2.0175108e-196
-9.8931501e-203
5.7063837e-209
-2.5694495e-215
1.5467242e-221
-7.4904874e-228
-1.7037168e-233
1.1958219e-228
-2.3773665e-232
3.491247e-231
6.0890134e-232
4.7587567e-237
-1.0946166e-234
-4.6883373e-235
-3.1879228e-234
-5.5821292e-241
-4.3497502e-248
-1.9331013e-09
2.6627151e-21
-3.9358467e-33
8.4460865e-45
-3.7140371e-56
5.8421276e-67
9.1466154e-76
1.0393354e-85
2.800934e-95
4.4347623e-104
-8.649159e-112
1.6482459e-119
-1.2600144e-126
3.7638173e-133
-2.026038e-139
8.8578246e-146
-4.042722e-152
1.9093386e-158
-8.2807609e-165
3.3740352e-171
-1.2308969e-177
5.7983568e-184
-2.4179293e-190
9.7836286e-197
-4.6064603e-203
1.8635843e-209
-8.0563109e-216
4.2470321e-222
-2.1548525e-228
8.7998211e-235
-7.8087108e-235
1.5964799e-238
-2.0249139e-237
-2.8312112e-238
-1.5939494e-243
3.773092e-241
1.6467343e-241
3.0143962e-239
3.7630944e-246
2.4170238e-253
-1.7184434e-09
2.068716e-21
-2.6815016e-33
5.0477288e-45
-1.9159833e-56
2.4677328e-67
-1.2002194e-76
-1.2773771e-86
-2.9554351e-96
-3.5739115e-105
1.2161295e-112
-2.0890622e-120
1.338378e-127
-3.600475e-134
1.5790843e-140
-6.8601739e-147
2.5154747e-153
-9.1907307e-160
3.7789737e-166
-1.412965e-172
6.0730019e-179
-2.0356435e-185
1.0031249e-191
-3.5006743e-198
1.1823097e-204
-4.1743788e-211
1.5303355e-217
-5.7073888e-224
2.4304271e-230
-9.5404869e-237
3.1856156e-241
-6.1570409e-245
1.1277474e-243
1.2850614e-244
5.5847981e-250
-1.0360288e-247
-6.5934707e-248
-2.1867807e-244
-2.8630773e-251
-1.8282512e-258
-1.5394362e-09
1.6256627e-21
-1.8500063e-33
3.0600869e-45
-1.00658e-56
1.0727457e-67
-1.9613673e-77
-1.9838815e-87
-3.9858283e-97
-3.776929e-106
-1.3062575e-112
2.0582707e-120
-1.0572407e-127
2.5458462e-134
-9.4472523e-141
3.062435e-147
-1.0152928e-153
3.4264024e-160
-1.0767042e-166
4.1220291e-173
-1.5518352e-179
5.0683942e-186
-1.6723124e-192
6.6406955e-199
-2.232724e-205
9.2557e-212
-3.1561669e-218
1.1411551e-224
-4.5584652e-231
2.3500074e-237
-9.3129721e-244
4.4277877e-250
-4.6296774e-250
-7.0120396e-251
-1.6757481e-256
2.5799955e-254
2.1253105e-254
-8.2319769e-250
-9.9811582e-257
-6.4944489e-264
-1.3910862e-09
1.2949284e-21
-1.2959703e-33
1.8869926e-45
-5.3992882e-57
4.8058555e-68
-4.9551041e-78
-4.8409737e-88
-8.5406709e-98
-6.4778567e-107
-1.4564328e-114
2.1941364e-122
-9.4407407e-130
1.7644489e-136
-5.3430209e-143
1.5234815e-149
-5.1374129e-156
1.4843672e-162
-4.1348699e-169
1.2336513e-175
-3.9007524e-182
1.2122816e-188
-3.5049393e-195
1.1776211e-201
-3.5531757e-208
1.4014701e-214
-5.0556401e-221
1.9050378e-227
-7.3650608e-234
2.592208e-240
-7.8694632e-247
2.7365496e-253
2.0011362e-256
2.3923249e-257
3.8511174e-263
-6.2158305e-261
-4.8983551e-261
-9.5118373e-256
-1.1570429e-262
-7.6471514e-270
-1.2691465e-09
1.0478797e-21
-9.2453835e-34
1.1873323e-45
-2.9660437e-57
2.2235775e-68
-1.4978656e-78
-1.4398959e-88
-2.2545814e-98
-1.3947199e-107
-1.3891148e-115
2.0284764e-123
-7.6477753e-131
1.0495388e-137
-2.9171755e-144
6.9931125e-151
-1.7759308e-157
4.7193493e-164
-1.5169866e-170
4.1909195e-177
-1.3084977e-183
3.4502047e-190
-8.1114566e-197
2.4658252e-203
-7.796811e-210
2.3262602e-216
-7.3231946e-223
2.3888078e-229
-8.3735849e-236
2.8139691e-242
-8.7513195e-249
4.0795007e-255
-1.5895368e-261
-7.6212945e-264
-6.7976827e-270
1.3154228e-267
1.5559407e-267
-1.0852164e-261
-1.3509918e-268
-9.0519808e-276
-1.1700004e-09
8.6332532e-22
-6.7375935e-34
7.6493672e-46
-1.6743875e-57
1.0654543e-68
-5.0717878e-79
-4.9039884e-89
-6.8878675e-99
-3.5344251e-108
-2.0916625e-116
3.1208771e-124
-1.0049918e-131
1.3160318e-138
-3.2537248e-145
7.9193779e-152
-2.18852e-158
5.4937522e-165
-1.3627726e-171
3.4195047e-178
-8.3013308e-185
2.1274447e-191
-6.2189955e-198
1.8880506e-204
-4.6423111e-211
1.2483305e-217
-3.5445404e-224
1.35108e-230
-1.1889549e-237
2.4801769e-243
5.9865806e-249
4.0257467e-255
9.3234287e-262
8.2234584e-268
1.9335197e-273
-2.2505246e-274
9.4133883e-275
-1.6553059e-267
-1.9104901e-274
-1.2789961e-281
-1.0905868e-09
7.2562878e-22
-5.0312181e-34
5.0638033e-46
-9.7490039e-58
5.3039225e-69
-1.8751677e-79
-1.8738255e-89
-2.3861571e-99
-1.0308937e-108
-4.0817227e-117
6.4431623e-125
-1.862188e-132
1.9224433e-139
-4.0080458e-146
1.113125e-152
-2.3492869e-159
5.9904453e-166
-1.326247e-172
3.0919356e-179
-7.5912135e-186
2.0324411e-192
-4.7267312e-199
1.1575066e-205
-2.3285576e-212
2.4571253e-218
6.7733678e-226
-1.1013544e-229
-3.0311876e-235
3.7060344e-241
2.011046e-246
-1.402349e-251
-1.7049328e-257
-2.546896e-263
-6.2409321e-269
7.5776969e-276
4.6630394e-280
-1.9332603e-273
-2.4394266e-280
-1.599739e-287
-1.0283211e-09
6.2328387e-22
-3.8609292e-34
3.4566854e-46
-5.8763857e-58
2.7524701e-69
-7.4854963e-80
-8.0093427e-90
-9.348646e-100
-3.4472792e-109
-9.7873563e-118
1.7557354e-125
-4.5717127e-133
4.1935389e-140
-8.4932565e-147
1.8505026e-153
-4.4468263e-160
1.0030582e-166
-1.9747466e-173
4.5532494e-180
-9.276187e-187
-3.4488499e-192
-2.0493769e-198
3.0782124e-202
-9.9913758e-209
4.3257693e-213
-5.341691e-219
-2.5138796e-224
-3.8370458e-229
3.2426191e-235
3.519051e-240
-3.994739e-245
-1.0700834e-251
-3.8160057e-257
-2.1572668e-263
6.1162416e-270
-1.8925579e-276
-2.1758753e-279
-2.4227092e-286
-1.6201243e-293
-9.8099493e-10
5.4783676e-22
-3.0524623e-34
2.4411278e-46
-3.6800688e-58
1.494079e-69
-3.209925e-80
-3.8635384e-90
-4.1791782e-100
-1.3325884e-109
-2.8411493e-118
6.4375803e-126
-1.5620639e-133
1.1628919e-140
-2.0440464e-147
3.7683322e-154
-7.2878348e-161
2.5791869e-167
4.3854583e-173
1.0994932e-177
5.9235021e-182
-1.8015738e-186
-2.6760534e-192
1.065039e-197
-4.5381351e-203
3.9293807e-208
-1.2545563e-213
-1.2430278e-218
-8.6789255e-224
1.9136325e-229
4.0296792e-235
-3.6721014e-240
-7.4817918e-246
-1.0449028e-251
1.1736658e-257
-4.2571831e-264
1.719995e-270
2.6452289e-275
2.1194989e-283
8.518111e-291
-9.4669598e-10
4.930878e-22
-2.4910505e-34
1.7884281e-46
-2.4020015e-58
8.5093101e-70
-1.4753612e-80
-2.1561411e-90
-2.1869248e-100
-6.1050228e-110
-1.0138167e-118
3.7782891e-126
-8.6409326e-134
5.6846192e-141
-9.2298793e-148
1.6522693e-154
-2.7890451e-161
5.4171778e-168
-8.1618395e-175
3.9062353e-180
-7.4765878e-186
4.8301999e-191
-6.7986106e-197
2.6014379e-202
-1.3520563e-207
4.1917073e-213
-5.2673252e-219
5.7746991e-224
4.2511582e-230
-9.5212751e-235
9.0919119e-241
6.3287338e-246