/*--------------------------------*- C++ -*----------------------------------*\
  =========                 |
  \\      /  F ield         | OpenFOAM: The Open Source CFD Toolbox
   \\    /   O peration     | Website:  https://openfoam.org
    \\  /    A nd           | Version:  10
     \\/     M anipulation  |
\*---------------------------------------------------------------------------*/
FoamFile
{
    format      ascii;
    class       volVectorField;
    location    "0.16";
    object      U;
}
// * * * * * * * * * * * * * * * * * * * * * * * * * * * * * * * * * * * * * //

dimensions      [0 1 -1 0 0 0 0];

internalField   nonuniform List<vector> 
4000
(
(0 0.018637108 0.47773174)
(0 0.023509342 0.50886051)
(0 0.0081662459 0.50052524)
(0 0.0056140138 0.50033636)
(0 0.0042539938 0.50025746)
(0 0.0032543084 0.50016898)
(0 0.0025554784 0.50011968)
(0 0.0020540116 0.50009012)
(0 0.0016760671 0.50006979)
(0 0.0013818005 0.50005537)
(0 0.0011468378 0.50004497)
(0 0.00095483908 0.50003731)
(0 0.00079454881 0.50003158)
(0 0.00065799001 0.50002724)
(0 0.00053933301 0.50002396)
(0 0.00043419576 0.50002148)
(0 0.00033918952 0.50001963)
(0 0.00025161091 0.5000183)
(0 0.00016922573 0.50001741)
(0 9.0110584e-05 0.50001691)
(0 1.253065e-05 0.50001676)
(0 -6.516778e-05 0.50001696)
(0 -0.0001446486 0.50001752)
(0 -0.00022767785 0.50001847)
(0 -0.00031623476 0.50001988)
(0 -0.00041264215 0.50002183)
(0 -0.00051973824 0.50002444)
(0 -0.00064111601 0.50002791)
(0 -0.00078147104 0.5000325)
(0 -0.00094713131 0.50003862)
(0 -0.0011469085 0.50004688)
(0 -0.0013934632 0.50005824)
(0 -0.0017055445 0.50007414)
(0 -0.0021135041 0.5000971)
(0 -0.0026732602 0.50013483)
(0 -0.0034669392 0.5002024)
(0 -0.0045593364 0.50027148)
(0 -0.0065836231 0.50043371)
(0 -0.01765807 0.50675387)
(0 -0.013589428 0.47975603)
(0 0.037431718 0.44797047)
(0 0.050953745 0.53232604)
(0 0.021967302 0.50804293)
(0 0.01613372 0.5035733)
(0 0.012414047 0.50242318)
(0 0.0095139248 0.50162297)
(0 0.0075186664 0.50115655)
(0 0.0060680642 0.50086583)
(0 0.004962919 0.50066788)
(0 0.0040986942 0.50052885)
(0 0.0034064355 0.50042886)
(0 0.0028391911 0.50035533)
(0 0.0023645837 0.50030042)
(0 0.0019595254 0.500259)
(0 0.0016070519 0.50022764)
(0 0.0012943639 0.50020397)
(0 0.0010115324 0.50018636)
(0 0.00075061509 0.50017368)
(0 0.00050503352 0.50016516)
(0 0.00026911353 0.50016033)
(0 3.773033e-05 0.50015891)
(0 -0.00019400033 0.50016081)
(0 -0.00043099246 0.50016617)
(0 -0.00067846112 0.50017529)
(0 -0.00094224163 0.50018872)
(0 -0.0012291683 0.50020729)
(0 -0.0015475703 0.50023225)
(0 -0.0019079594 0.5002654)
(0 -0.0023240219 0.50030935)
(0 -0.0028141035 0.50036799)
(0 -0.0034035854 0.50044728)
(0 -0.0041288502 0.50055668)
(0 -0.0050429852 0.50071129)
(0 -0.0062258646 0.50093669)
(0 -0.0078263776 0.50129453)
(0 -0.010120349 0.50191076)
(0 -0.013101995 0.50282552)
(0 -0.017421574 0.50608145)
(0 -0.038754633 0.52526793)
(0 -0.027892592 0.45021929)
(0 0.039886813 0.40982381)
(0 0.061424708 0.54930857)
(0 0.031980018 0.52188189)
(0 0.024352089 0.51008078)
(0 0.019190053 0.50658863)
(0 0.014973615 0.50452801)
(0 0.012003321 0.50327122)
(0 0.0097687379 0.50245811)
(0 0.0080336269 0.5019007)
(0 0.0066623338 0.50150825)
(0 0.0055546309 0.50122496)
(0 0.0046409779 0.50101614)
(0 0.00387263 0.50085993)
(0 0.0032141849 0.50074196)
(0 0.0026393014 0.50065253)
(0 0.0021279192 0.50058498)
(0 0.0016643544 0.50053469)
(0 0.0012359795 0.50049846)
(0 0.00083228011 0.50047413)
(0 0.00044414927 0.5004603)
(0 6.333807e-05 0.50045622)
(0 -0.00031802313 0.50046168)
(0 -0.00070785123 0.50047699)
(0 -0.0011145338 0.50050304)
(0 -0.0015474245 0.50054139)
(0 -0.0020174266 0.50059441)
(0 -0.0025377476 0.50066561)
(0 -0.0031249294 0.50076005)
(0 -0.0038003114 0.50088513)
(0 -0.0045921431 0.50105179)
(0 -0.0055387896 0.50127654)
(0 -0.0066942424 0.50158552)
(0 -0.0081357154 0.50202085)
(0 -0.0099673148 0.50265095)
(0 -0.012361857 0.50361549)
(0 -0.015707348 0.50519984)
(0 -0.019864605 0.50785492)
(0 -0.025178264 0.51641266)
(0 -0.047409742 0.53912829)
(0 -0.030850477 0.41488766)
(0 0.034789768 0.36173645)
(0 0.063833979 0.55456522)
(0 0.039374534 0.53747115)
(0 0.030078147 0.51849285)
(0 0.024107226 0.51197741)
(0 0.01927426 0.5084993)
(0 0.015731031 0.50626388)
(0 0.012949348 0.50475487)
(0 0.010739249 0.50370367)
(0 0.0089640316 0.5029552)
(0 0.007510655 0.50241)
(0 0.0062994456 0.50200558)
(0 0.0052725892 0.50170166)
(0 0.0043868193 0.50147133)
(0 0.0036093094 0.50129622)
(0 0.0029146659 0.50116367)
(0 0.0022827723 0.50106481)
(0 0.0016972577 0.50099351)
(0 0.0011443708 0.50094557)
(0 0.0006121206 0.50091831)
(0 8.9595462e-05 0.50091025)
(0 -0.00043363677 0.50092098)
(0 -0.00096806916 0.50095114)
(0 -0.0015247836 0.50100243)
(0 -0.0021160714 0.50107785)
(0 -0.0027561508 0.50118197)
(0 -0.0034620734 0.50132151)
(0 -0.0042549293 0.50150615)
(0 -0.0051615118 0.50174989)
(0 -0.0062166137 0.50207321)
(0 -0.0074661176 0.50250658)
(0 -0.00897227 0.50309701)
(0 -0.010822457 0.50391922)
(0 -0.013123266 0.50508957)
(0 -0.016010355 0.50680759)
(0 -0.019886339 0.50946869)
(0 -0.02471931 0.51427641)
(0 -0.031100736 0.52824751)
(0 -0.050309007 0.54407596)
(0 -0.028434206 0.37239538)
(0 0.027422227 0.31485367)
(0 0.062308407 0.55024521)
(0 0.044606164 0.55146743)
(0 0.033974545 0.52748821)
(0 0.027456577 0.51772256)
(0 0.022447753 0.51291955)
(0 0.018629638 0.50973076)
(0 0.015521397 0.50749162)
(0 0.013000049 0.5058986)
(0 0.01093675 0.50474527)
(0 0.0092201076 0.50389425)
(0 0.0077712577 0.50325704)
(0 0.0065302015 0.50277476)
(0 0.005450501 0.50240718)
(0 0.0044960944 0.50212652)
(0 0.0036385024 0.50191331)
(0 0.002854767 0.50175388)
(0 0.0021259345 0.50163865)
(0 0.0014358961 0.50156105)
(0 0.00077047661 0.50151687)
(0 0.00011669627 0.50150377)
(0 -0.00053789082 0.50152113)
(0 -0.0012057999 0.50156991)
(0 -0.0019001933 0.50165282)
(0 -0.0026355655 0.50177454)
(0 -0.0034285128 0.50194222)
(0 -0.0042986792 0.50216627)
(0 -0.005269967 0.50246157)
(0 -0.0063721448 0.50284937)
(0 -0.0076430063 0.50336033)
(0 -0.0091308342 0.50403909)
(0 -0.010898084 0.50495218)
(0 -0.013031611 0.50620243)
(0 -0.015635246 0.50794474)
(0 -0.018796851 0.51040551)
(0 -0.022877965 0.51405674)
(0 -0.02816008 0.52114741)
(0 -0.035689204 0.53932733)
(0 -0.050462461 0.54156489)
(0 -0.024081373 0.33058235)
(0 0.019835754 0.27521294)
(0 0.057982052 0.53975524)
(0 0.04735266 0.56256495)
(0 0.036467422 0.53660422)
(0 0.029626215 0.52350714)
(0 0.024666366 0.51740282)
(0 0.020764831 0.51336195)
(0 0.01750093 0.51044295)
(0 0.01480615 0.50832215)
(0 0.012559538 0.50675931)
(0 0.010659558 0.50558989)
(0 0.0090342001 0.50470475)
(0 0.0076258332 0.50402895)
(0 0.0063885799 0.50351029)
(0 0.0052859643 0.50311205)
(0 0.0042885005 0.50280819)
(0 0.0033719424 0.50258017)
(0 0.0025159357 0.50241491)
(0 0.0017029381 0.5023034)
(0 0.00091734404 0.5022398)
(0 0.00014475745 0.5022209)
(0 -0.00062867368 0.50224579)
(0 -0.0014168744 0.50231584)
(0 -0.0022344191 0.50243477)
(0 -0.0030972235 0.50260903)
(0 -0.0040232955 0.50284841)
(0 -0.0050336313 0.50316706)
(0 -0.0061533181 0.50358495)
(0 -0.0074129273 0.5041303)
(0 -0.0088504096 0.50484302)
(0 -0.010513054 0.50578013)
(0 -0.012459177 0.50702393)
(0 -0.014769012 0.50869758)
(0 -0.017544385 0.51098274)
(0 -0.020839302 0.51412181)
(0 -0.024950021 0.51873292)
(0 -0.030485596 0.52823198)
(0 -0.038605801 0.54872603)
(0 -0.048490961 0.5340028)
(0 -0.019061556 0.2939748)
(0 0.013080945 0.24257555)
(0 0.051789404 0.52521508)
(0 0.047695143 0.57024985)
(0 0.037743578 0.54552397)
(0 0.030837618 0.52928836)
(0 0.02606103 0.52180091)
(0 0.02222594 0.51699633)
(0 0.018942384 0.51347111)
(0 0.016183153 0.5108619)
(0 0.013840408 0.50890877)
(0 0.011827641 0.5074284)
(0 0.01008225 0.50629577)
(0 0.0085515943 0.50542312)
(0 0.0071929053 0.50474833)
(0 0.0059713642 0.50422702)
(0 0.0048581327 0.50382726)
(0 0.0038290025 0.50352609)
(0 0.0028632808 0.50330714)
(0 0.0019428584 0.50315904)
(0 0.0010514298 0.50307441)
(0 0.00017382895 0.50304916)
(0 -0.0007045939 0.50308214)
(0 -0.0015985615 0.50317507)
(0 -0.0025234027 0.50333269)
(0 -0.003495707 0.50356313)
(0 -0.0045340041 0.50387868)
(0 -0.0056595576 0.50429694)
(0 -0.0068973075 0.50484254)
(0 -0.0082769851 0.50554974)
(0 -0.0098346878 0.50646633)
(0 -0.011614638 0.50765947)
(0 -0.013669109 0.50922402)
(0 -0.016067628 0.51129795)
(0 -0.01890554 0.51408065)
(0 -0.022214266 0.51784102)
(0 -0.02623449 0.52347118)
(0 -0.031818428 0.53537705)
(0 -0.039728321 0.55590105)
(0 -0.044872599 0.52285388)
(0 -0.014084858 0.26269497)
(0 0.0077677855 0.21556793)
(0 0.044814939 0.50803214)
(0 0.046237782 0.57438442)
(0 0.038017961 0.55374959)
(0 0.031271676 0.53495972)
(0 0.02675264 0.52602915)
(0 0.023101562 0.5205362)
(0 0.019906546 0.51648495)
(0 0.017169009 0.5134374)
(0 0.014801695 0.51112552)
(0 0.012736159 0.50935359)
(0 0.010920331 0.50798434)
(0 0.0093082869 0.50692015)
(0 0.0078620353 0.50609112)
(0 0.00654981 0.50544665)
(0 0.0053446311 0.50494988)
(0 0.0042233638 0.50457405)
(0 0.0031658528 0.50429991)
(0 0.0021541705 0.50411401)
(0 0.0011719666 0.50400754)
(0 0.00020389971 0.50397563)
(0 -0.00076491116 0.50401691)
(0 -0.0017494178 0.50413342)
(0 -0.0027651024 0.5043308)
(0 -0.0038285644 0.50461872)
(0 -0.0049580965 0.50501169)
(0 -0.0061743464 0.50553031)
(0 -0.0075010827 0.50620318)
(0 -0.0089660191 0.50706965)
(0 -0.010601982 0.50818386)
(0 -0.012448582 0.50962108)
(0 -0.014550985 0.51148635)
(0 -0.01696541 0.51392856)
(0 -0.01977358 0.51715651)
(0 -0.022991527 0.52148325)
(0 -0.026841443 0.52818637)
(0 -0.032312905 0.54222173)
(0 -0.039364846 0.56051063)
(0 -0.040303242 0.50913037)
(0 -0.0097018907 0.23592238)
(0 0.0040024997 0.19359006)
(0 0.03788713 0.48951891)
(0 0.043665635 0.57524725)
(0 0.037542121 0.56084271)
(0 0.031133999 0.54035951)
(0 0.02689478 0.53000971)
(0 0.023495432 0.52389883)
(0 0.02046271 0.51940826)
(0 0.017810577 0.51598224)
(0 0.015475018 0.51335221)
(0 0.013405689 0.51131635)
(0 0.011561217 0.5097288)
(0 0.0099034134 0.50848491)
(0 0.0084000185 0.50750902)
(0 0.0070231759 0.50674577)
(0 0.0057485869 0.50615443)
(0 0.0045549409 0.50570516)
(0 0.0034232901 0.50537633)
(0 0.0023364907 0.50515275)
(0 0.0012786969 0.50502441)
(0 0.00023490335 0.50498575)
(0 -0.00080950757 0.50503521)
(0 -0.0018692208 0.50517511)
(0 -0.0029593563 0.50541188)
(0 -0.0040959693 0.50575647)
(0 -0.0052965072 0.50622525)
(0 -0.0065803242 0.50684133)
(0 -0.0079692648 0.50763652)
(0 -0.0094882199 0.50865417)
(0 -0.011165823 0.50995335)
(0 -0.013035975 0.51161539)
(0 -0.015136232 0.51375295)
(0 -0.01750925 0.51652181)
(0 -0.020219254 0.5201331)
(0 -0.02327418 0.52496685)
(0 -0.026915385 0.53274365)
(0 -0.03215579 0.54839158)
(0 -0.037948492 0.56255889)
(0 -0.035386145 0.49385931)
(0 -0.006193908 0.21333401)
(0 0.0015484982 0.17617468)
(0 0.0314856 0.47080534)
(0 0.040506861 0.57339817)
(0 0.036531895 0.56659562)
(0 0.030612188 0.54537559)
(0 0.02664775 0.53370208)
(0 0.023520096 0.52702828)
(0 0.020688716 0.52218269)
(0 0.018162972 0.51844392)
(0 0.015899328 0.51554227)
(0 0.013863338 0.51327557)
(0 0.01202354 0.51149319)
(0 0.010349607 0.5100861)
(0 0.0088152492 0.50897482)
(0 0.0073969064 0.50810061)
(0 0.0060734307 0.50741995)
(0 0.0048258145 0.50690068)
(0 0.0036367834 0.50651934)
(0 0.0024904248 0.50625935)
(0 0.0013718244 0.50610976)
(0 0.00026672427 0.50606445)
(0 -0.00083882601 0.50612168)
(0 -0.0019588393 0.50628405)
(0 -0.0031076593 0.50655857)
(0 -0.0043003663 0.50695726)
(0 -0.0055531101 0.50749795)
(0 -0.0068834772 0.50820567)
(0 -0.0083108969 0.50911464)
(0 -0.0098569795 0.51027118)
(0 -0.011545774 0.51173785)
(0 -0.013405043 0.51359999)
(0 -0.015464898 0.51597509)
(0 -0.017755992 0.51902172)
(0 -0.020325354 0.52295096)
(0 -0.023180267 0.52823923)
(0 -0.026600166 0.53704338)
(0 -0.031508332 0.55365964)
(0 -0.035850217 0.56233306)
(0 -0.030520791 0.47798222)
(0 -0.0035838626 0.19471006)
(0 7.3966736e-05 0.16257441)
(0 0.025854564 0.45265826)
(0 0.037129648 0.56945298)
(0 0.035158183 0.57098598)
(0 0.029846326 0.54995843)
(0 0.026144481 0.5371102)
(0 0.023277845 0.52990711)
(0 0.020660998 0.52477677)
(0 0.018283513 0.52078872)
(0 0.016116935 0.51766274)
(0 0.014139944 0.51520026)
(0 0.012329652 0.51324909)
(0 0.010662946 0.51169804)
(0 0.0091191789 0.51046539)
(0 0.0076790579 0.50949039)
(0 0.006324739 0.50872765)
(0 0.0050397464 0.50814345)
(0 0.0038087533 0.50771302)
(0 0.002617373 0.50741878)
(0 0.0014519259 0.50724906)
(0 0.00029920572 0.50719733)
(0 -0.00085376533 0.50726174)
(0 -0.0020200214 0.50744504)
(0 -0.003212824 0.50775475)
(0 -0.0044459729 0.50820363)
(0 -0.005734023 0.50881059)
(0 -0.0070925159 0.50960202)
(0 -0.0085382258 0.51061383)
(0 -0.010089342 0.51189424)
(0 -0.011765397 0.513508)
(0 -0.013588227 0.51554275)
(0 -0.015581098 0.51811826)
(0 -0.017764679 0.52139275)
(0 -0.020171449 0.52558074)
(0 -0.022814956 0.53128613)
(0 -0.026011777 0.54103298)
(0 -0.030501077 0.55793537)
(0 -0.033363267 0.56022886)
(0 -0.025958867 0.46218831)
(0 -0.0017574468 0.17959082)
(0 -0.00072087589 0.15196596)
(0 0.021090137 0.43550967)
(0 0.033784288 0.56396096)
(0 0.033563973 0.57408685)
(0 0.028936994 0.55408737)
(0 0.025484425 0.54025825)
(0 0.022852226 0.53254579)
(0 0.020446431 0.5271825)
(0 0.018225135 0.52300054)
(0 0.016168855 0.51969401)
(0 0.014266829 0.51706956)
(0 0.012503257 0.51497581)
(0 0.010861205 0.51330085)
(0 0.0093250003 0.51196208)
(0 0.0078793152 0.51089769)
(0 0.0065095077 0.51006133)
(0 0.0052016578 0.50941831)
(0 0.0039424932 0.50894305)
(0 0.0027193104 0.50861731)
(0 0.00151985 0.50842895)
(0 0.00033215872 0.50837114)
(0 -0.00085556124 0.50844196)
(0 -0.0020551562 0.50864427)
(0 -0.0032786048 0.50898592)
(0 -0.0045382397 0.50948018)
(0 -0.0058468638 0.51014666)
(0 -0.0072178693 0.51101264)
(0 -0.0086653473 0.51211497)
(0 -0.010204167 0.51350298)
(0 -0.011849697 0.51524251)
(0 -0.013618441 0.5174222)
(0 -0.015527611 0.52016222)
(0 -0.017589719 0.52361854)
(0 -0.019826344 0.52801684)
(0 -0.022263506 0.53411355)
(0 -0.025241033 0.54468147)
(0 -0.029249122 0.56120978)
(0 -0.03071911 0.55664199)
(0 -0.021853832 0.44691611)
(0 -0.00055634522 0.16738922)
(0 -0.0010731056 0.14365213)
(0 0.017183135 0.41957395)
(0 0.030626321 0.55738172)
(0 0.031867113 0.57601967)
(0 0.027958167 0.5577548)
(0 0.02474101 0.54317199)
(0 0.022309593 0.53496694)
(0 0.020100568 0.52940572)
(0 0.018033532 0.52507531)
(0 0.016092042 0.52162659)
(0 0.014273432 0.51887093)
(0 0.012567505 0.51665922)
(0 0.010962358 0.5148799)
(0 0.0094465058 0.51345027)
(0 0.0080081221 0.51230831)
(0 0.006635501 0.51140729)
(0 0.0053171542 0.51071209)
(0 0.0040418405 0.51019674)
(0 0.002798582 0.50984262)
(0 0.0015766232 0.50963731)
(0 0.00036537112 0.50957383)
(0 -0.00084567336 0.50965018)
(0 -0.0020670499 0.50986932)
(0 -0.0033093475 0.51023926)
(0 -0.0045833499 0.51077359)
(0 -0.0059000675 0.51149229)
(0 -0.0072707712 0.51242306)
(0 -0.0087069937 0.51360322)
(0 -0.010220539 0.51508246)
(0 -0.01182311 0.51692697)
(0 -0.01352664 0.51922547)
(0 -0.015343195 0.52209716)
(0 -0.017278821 0.52569507)
(0 -0.019348223 0.53026615)
(0 -0.021594722 0.53673306)
(0 -0.024361036 0.54796877)
(0 -0.027854084 0.56352714)
(0 -0.028088216 0.55193466)
(0 -0.018279751 0.43243061)
(0 0.00017783049 0.15755939)
(0 -0.0011562754 0.13708163)
(0 0.014056041 0.4049317)
(0 0.027735735 0.55008993)
(0 0.030155572 0.57693217)
(0 0.026962154 0.56096723)
(0 0.0239671 0.54587531)
(0 0.021701715 0.53719747)
(0 0.019668506 0.53145949)
(0 0.017746952 0.52701622)
(0 0.015918518 0.52345786)
(0 0.014186153 0.52059791)
(0 0.012543828 0.51829043)
(0 0.010983555 0.51642484)
(0 0.009497232 0.51491891)
(0 0.0080759953 0.5137109)
(0 0.0067107183 0.51275417)
(0 0.0053921265 0.51201357)
(0 0.004110895 0.51146302)
(0 0.0028577256 0.51108379)
(0 0.0016233674 0.51086334)
(0 0.00039861687 0.5107946)
(0 -0.00082568462 0.51087558)
(0 -0.0020587279 0.51110923)
(0 -0.0033096858 0.51150367)
(0 -0.0045877945 0.51207257)
(0 -0.0059023216 0.51283604)
(0 -0.0072625383 0.51382189)
(0 -0.0086776437 0.51506744)
(0 -0.010156728 0.5166223)
(0 -0.01170838 0.5185524)
(0 -0.013340799 0.52094594)
(0 -0.015061895 0.52392024)
(0 -0.016872904 0.52762593)
(0 -0.018785534 0.53234224)
(0 -0.02086301 0.53915866)
(0 -0.023428856 0.55088849)
(0 -0.026398335 0.56497042)
(0 -0.025581728 0.54642517)
(0 -0.015248182 0.41888014)
(0 0.00058316759 0.14963874)
(0 -0.0010887147 0.13181488)
(0 0.011598192 0.39157452)
(0 0.025140304 0.54237967)
(0 0.028488078 0.57697895)
(0 0.025982244 0.56374444)
(0 0.023197929 0.54839099)
(0 0.021066996 0.53926574)
(0 0.019185588 0.53336115)
(0 0.017396527 0.52883116)
(0 0.015675253 0.52518983)
(0 0.01402791 0.52224846)
(0 0.012451355 0.51986456)
(0 0.010940512 0.5179289)
(0 0.0094898873 0.51636002)
(0 0.0080930256 0.51509676)
(0 0.006742984 0.51409286)
(0 0.0054324328 0.51331343)
(0 0.0041537881 0.5127325)
(0 0.0028993235 0.5123314)
(0 0.0016612314 0.51209761)
(0 0.00043166487 0.51202406)
(0 -0.00079721429 0.51210874)
(0 -0.0020332681 0.5123546)
(0 -0.0032842887 0.51276973)
(0 -0.004558031 0.5133678)
(0 -0.0058621327 0.51416882)
(0 -0.0072040497 0.51520043)
(0 -0.0085909297 0.51649971)
(0 -0.010029551 0.51811581)
(0 -0.011525963 0.52011408)
(0 -0.013085446 0.52258173)
(0 -0.014712746 0.52563377)
(0 -0.01640588 0.52942018)
(0 -0.018176845 0.53426315)
(0 -0.020108841 0.54140685)
(0 -0.022485909 0.55344837)
(0 -0.024942825 0.56564454)
(0 -0.02326222 0.54037988)
(0 -0.012729436 0.40632694)
(0 0.00076874754 0.14323323)
(0 -0.00094686699 0.12750643)
(0 0.0096908113 0.37943667)
(0 0.022836514 0.53447177)
(0 0.02689974 0.5763054)
(0 0.025037065 0.56611373)
(0 0.022454594 0.55073965)
(0 0.020431975 0.54119933)
(0 0.018678153 0.53513023)
(0 0.017006645 0.53053109)
(0 0.015384219 0.52682778)
(0 0.013817985 0.52382381)
(0 0.012306639 0.52137986)
(0 0.010847168 0.51938817)
(0 0.0094359935 0.51776818)
(0 0.0080685417 0.51645944)
(0 0.0067396555 0.51541625)
(0 0.0054436599 0.51460413)
(0 0.0041745047 0.5139974)
(0 0.0029258869 0.51357753)
(0 0.0016913374 0.51333214)
(0 0.00046428733 0.51325419)
(0 -0.00076184747 0.51334167)
(0 -0.0019936669 0.51359752)
(0 -0.0032376646 0.51402973)
(0 -0.0045002248 0.51465183)
(0 -0.0057875116 0.51548362)
(0 -0.0071053846 0.51655242)
(0 -0.0084592491 0.51789482)
(0 -0.0098539859 0.51955938)
(0 -0.011293656 0.52161061)
(0 -0.012781363 0.52413457)
(0 -0.014319583 0.52724385)
(0 -0.015904578 0.5310906)
(0 -0.017551129 0.53604913)
(0 -0.019360224 0.54349505)
(0 -0.021560098 0.55566595)
(0 -0.023529448 0.56566)
(0 -0.021157643 0.53401084)
(0 -0.010670954 0.39477097)
(0 0.00081487635 0.13800974)
(0 -0.00077822622 0.12389535)
(0 0.0082212449 0.36842158)
(0 0.020804031 0.52652614)
(0 0.025408363 0.57503974)
(0 0.024135292 0.56810483)
(0 0.021748105 0.55293817)
(0 0.019813672 0.54302281)
(0 0.018164853 0.5367864)
(0 0.016595656 0.53212839)
(0 0.01506269 0.52837888)
(0 0.013572086 0.52532734)
(0 0.012123572 0.52283677)
(0 0.010715524 0.52080092)
(0 0.0093456873 0.51914004)
(0 0.0080109038 0.51779442)
(0 0.0067074306 0.516719)
(0 0.0054309606 0.51587977)
(0 0.0041767572 0.51525141)
(0 0.0029397721 0.51481566)
(0 0.0017147418 0.51456027)
(0 0.00049626716 0.51447831)
(0 -0.00072108104 0.51456776)
(0 -0.0019427398 0.51483152)
(0 -0.0031740176 0.51527746)
(0 -0.0044200671 0.51591888)
(0 -0.005685758 0.5167753)
(0 -0.0069755871 0.51787359)
(0 -0.0082935248 0.51924978)
(0 -0.0096429508 0.52095173)
(0 -0.011026435 0.52304309)
(0 -0.012445532 0.52560867)
(0 -0.013901217 0.52875896)
(0 -0.015389286 0.53265176)
(0 -0.016928992 0.53772029)
(0 -0.018635222 0.54543959)
(0 -0.020668825 0.55756381)
(0 -0.022184636 0.56512217)
(0 -0.019272998 0.52748062)
(0 -0.0090099367 0.38417225)
(0 0.00077806076 0.13369615)
(0 -0.00061078312 0.12079155)
(0 0.0070903074 0.35842075)
(0 0.019014778 0.51865541)
(0 0.024019722 0.57329136)
(0 0.02327926 0.56974726)
(0 0.021082771 0.55499941)
(0 0.019222031 0.54475647)
(0 0.017658266 0.53834788)
(0 0.016176878 0.53363558)
(0 0.01472382 0.52985116)
(0 0.013302644 0.52676369)
(0 0.011913502 0.52423729)
(0 0.010555636 0.52216702)
(0 0.0092276509 0.52047386)
(0 0.0079274048 0.51909875)
(0 0.0066522411 0.51799724)
(0 0.0053989544 0.51713583)
(0 0.0041639056 0.51648958)
(0 0.0029431256 0.51604052)
(0 0.0017324105 0.5157766)
(0 0.0005274042 0.51569097)
(0 -0.00067628595 0.51578165)
(0 -0.0018830535 0.51605144)
(0 -0.0030971532 0.51650808)
(0 -0.0043226593 0.51716462)
(0 -0.0055633337 0.51804023)
(0 -0.0068225412 0.5191613)
(0 -0.0081031057 0.5205633)
(0 -0.0094072615 0.52229333)
(0 -0.010736515 0.52441427)
(0 -0.012091387 0.52700972)
(0 -0.013471971 0.53018868)
(0 -0.014874707 0.53411837)
(0 -0.016324273 0.53929492)
(0 -0.017944435 0.54725472)
(0 -0.019821648 0.55916656)
(0 -0.020922721 0.56412632)
(0 -0.017598936 0.52091054)
(0 -0.0076816509 0.37446843)
(0 0.00069671997 0.13007739)
(0 -0.00045946257 0.11805994)
(0 0.0062154205 0.34932512)
(0 0.017438558 0.51093663)
(0 0.022731833 0.57115205)
(0 0.022467473 0.57106919)
(0 0.020458607 0.55693272)
(0 0.018661942 0.5464163)
(0 0.017166369 0.53983071)
(0 0.015759625 0.53506444)
(0 0.014377334 0.53125266)
(0 0.013019241 0.52813806)
(0 0.011685467 0.52558426)
(0 0.010375736 0.52348742)
(0 0.0090891453 0.52176905)
(0 0.007824255 0.52037065)
(0 0.0065792144 0.5192483)
(0 0.0053516822 0.51836896)
(0 0.0041389162 0.51770809)
(0 0.0029378549 0.517248)
(0 0.0017452054 0.51697684)
(0 0.00055752042 0.51688785)
(0 -0.00062868356 0.51697907)
(0 -0.0018168856 0.51725325)
(0 -0.0030104254 0.51771794)
(0 -0.0042124548 0.51838594)
(0 -0.0054258108 0.51927605)
(0 -0.0066529415 0.52041421)
(0 -0.0078957832 0.52183531)
(0 -0.0091557309 0.52358582)
(0 -0.010433579 0.52572788)
(0 -0.011729224 0.52834407)
(0 -0.013042364 0.53154273)
(0 -0.014370982 0.53550432)
(0 -0.015745508 0.54078884)
(0 -0.017292995 0.54895243)
(0 -0.019022404 0.56049908)
(0 -0.019749019 0.56275575)
(0 -0.016118084 0.51438882)
(0 -0.0066248725 0.36558668)
(0 0.00059604025 0.12698722)
(0 -0.0003307329 0.11560641)
(0 0.0055308499 0.34103131)
(0 0.016046368 0.50342045)
(0 0.02153831 0.56869803)
(0 0.021696402 0.57209693)
(0 0.019873043 0.55874466)
(0 0.018134802 0.54801436)
(0 0.016693748 0.54124847)
(0 0.015350115 0.53642561)
(0 0.014030193 0.53259104)
(0 0.012729074 0.52945574)
(0 0.011446506 0.526881)
(0 0.010182409 0.52476374)
(0 0.008936113 0.52302588)
(0 0.0077066305 0.52160929)
(0 0.0064926871 0.52047048)
(0 0.0052926023 0.51957683)
(0 0.0041043505 0.51890412)
(0 0.0029256182 0.51843496)
(0 0.0017538799 0.51815767)
(0 0.00058646317 0.5180656)
(0 -0.00057933429 0.51815679)
(0 -0.0017462072 0.51843392)
(0 -0.0029167186 0.51890438)
(0 -0.0040932481 0.51958072)
(0 -0.005277878 0.5204814)
(0 -0.0064723345 0.52163191)
(0 -0.0076778888 0.52306664)
(0 -0.0088953509 0.52483153)
(0 -0.010125083 0.52698812)
(0 -0.011366667 0.52961818)
(0 -0.01261978 0.53283044)
(0 -0.013884622 0.53682212)
(0 -0.01519719 0.54221519)
(0 -0.016682167 0.55054252)
(0 -0.018271011 0.56158535)
(0 -0.018662665 0.56108154)
(0 -0.014809506 0.50797771)
(0 -0.0057849996 0.35745106)
(0 0.00049177838 0.12429922)
(0 -0.00022592685 0.11336671)
(0 0.0049861126 0.33344484)
(0 0.014812045 0.49613842)
(0 0.020430794 0.5659923)
(0 0.020961748 0.57285463)
(0 0.019322162 0.56043967)
(0 0.017639749 0.54955927)
(0 0.016242568 0.54261239)
(0 0.014952226 0.53772847)
(0 0.013687186 0.53387328)
(0 0.012437395 0.5307218)
(0 0.011201969 0.52813095)
(0 0.0099808148 0.52599804)
(0 0.0087733181 0.5242452)
(0 0.0075787585 0.52281453)
(0 0.0063962539 0.52166285)
(0 0.0052246149 0.52075787)
(0 0.0040623765 0.52007567)
(0 0.0029078289 0.51959909)
(0 0.0017590804 0.51931661)
(0 0.00061410818 0.51922169)
(0 -0.00052913501 0.51931237)
(0 -0.0016726847 0.51959125)
(0 -0.0028184559 0.52006558)
(0 -0.0039681967 0.52074767)
(0 -0.0051233886 0.52165566)
(0 -0.0062852042 0.52281468)
(0 -0.0074544365 0.52425868)
(0 -0.0086315137 0.52603319)
(0 -0.0098165776 0.52819933)
(0 -0.011009125 0.53083829)
(0 -0.012209089 0.53406036)
(0 -0.013419338 0.53808266)
(0 -0.01468087 0.54358446)
(0 -0.01611064 0.55203279)
(0 -0.017564938 0.56244767)
(0 -0.017658986 0.55916338)
(0 -0.013651602 0.5017196)
(0 -0.0051153644 0.34998721)
(0 0.00039315218 0.12191885)
(0 -0.00014351406 0.11129759)
(0 0.0045435496 0.32648165)
(0 0.013712846 0.48910854)
(0 0.019400494 0.56308699)
(0 0.020259216 0.57336439)
(0 0.018801554 0.56202059)
(0 0.017174593 0.5510568)
(0 0.015813352 0.54393143)
(0 0.014568123 0.53898102)
(0 0.013351435 0.53510559)
(0 0.012147909 0.53194092)
(0 0.010955813 0.52933748)
(0 0.0097749011 0.5271925)
(0 0.0086045007 0.52542818)
(0 0.0074440229 0.52398668)
(0 0.0062928368 0.52282503)
(0 0.0051501065 0.52191115)
(0 0.0040147951 0.52122139)
(0 0.0028856708 0.52073877)
(0 0.0017613547 0.5204519)
(0 0.00064035808 0.52035433)
(0 -0.00047882681 0.5204441)
(0 -0.0015976925 0.52072374)
(0 -0.0027176249 0.52120037)
(0 -0.0038398668 0.5218861)
(0 -0.0049654327 0.52279879)
(0 -0.0060950843 0.52396327)
(0 -0.0072292872 0.52541316)
(0 -0.0083682452 0.5271937)
(0 -0.0095120317 0.52936572)
(0 -0.010660224 0.53201016)
(0 -0.01181321 0.53524011)
(0 -0.012976781 0.53929509)
(0 -0.014196074 0.54490469)
(0 -0.015575547 0.55342924)
(0 -0.016900308 0.56310633)
(0 -0.016731242 0.55705087)
(0 -0.012623829 0.4956421)
(0 -0.00457742 0.34312527)
(0 0.00030499999 0.11977662)
(0 -8.0580686e-05 0.10937017)
(0 0.0041757391 0.32006825)
(0 0.012729422 0.48233944)
(0 0.01843907 0.56002544)
(0 0.019584928 0.57364646)
(0 0.018306844 0.56348928)
(0 0.016736474 0.55251047)
(0 0.015405561 0.54521258)
(0 0.014198764 0.54019)
(0 0.013024821 0.53629338)
(0 0.011863114 0.53311735)
(0 0.010710878 0.53050378)
(0 0.0095676153 0.52834938)
(0 0.0084325324 0.52657621)
(0 0.0073050779 0.52512642)
(0 0.0061847654 0.52395706)
(0 0.005071004 0.52303626)
(0 0.0039630754 0.52234049)
(0 0.002860118 0.52185294)
(0 0.0017611602 0.52156235)
(0 0.00066514309 0.5214623)
(0 -0.00042900451 0.52155084)
(0 -0.0015223366 0.52183045)
(0 -0.0026158171 0.52230813)
(0 -0.0037102929 0.52299581)
(0 -0.0048064252 0.52391115)
(0 -0.0059046816 0.52507873)
(0 -0.0070053199 0.52653195)
(0 -0.0081084358 0.52831587)
(0 -0.009214139 0.5304912)
(0 -0.010322201 0.53313895)
(0 -0.011433604 0.53637628)
(0 -0.01255714 0.54046691)
(0 -0.013741031 0.54618173)
(0 -0.01507319 0.55473636)
(0 -0.016272667 0.56357956)
(0 -0.01587184 0.5547851)
(0 -0.011707598 0.48976211)
(0 -0.0041402259 0.33680143)
(0 0.00022931048 0.11782218)
(0 -3.3753787e-05 0.10756501)
(0 0.0038631054 0.31414111)
(0 0.011845516 0.47583342)
(0 0.017539047 0.55684399)
(0 0.018935577 0.57371959)
(0 0.017833987 0.56484703)
(0 0.016322295 0.55392205)
(0 0.015018018 0.54646108)
(0 0.013844281 0.54136099)
(0 0.012708331 0.53744129)
(0 0.011584594 0.53425479)
(0 0.010469122 0.53163278)
(0 0.009361093 0.52947083)
(0 0.0082595645 0.52769078)
(0 0.0071639596 0.5262346)
(0 0.0060738593 0.52505932)
(0 0.0049888336 0.52413311)
(0 0.003908394 0.52343258)
(0 0.0028319594 0.52294101)
(0 0.0017588743 0.52264722)
(0 0.00068841917 0.52254484)
(0 -0.00038013107 0.52263191)
(0 -0.0014474838 0.52291087)
(0 -0.0025142733 0.52338862)
(0 -0.0035810441 0.52407695)
(0 -0.0046481982 0.52499337)
(0 -0.0057160032 0.52616228)
(0 -0.0067845992 0.52761694)
(0 -0.007854058 0.52940238)
(0 -0.008924591 0.53157932)
(0 -0.0099962374 0.53422917)
(0 -0.011070677 0.53747441)
(0 -0.012159627 0.54160401)
(0 -0.013313212 0.54741961)
(0 -0.01459956 0.55595749)
(0 -0.0156775 0.56388376)
(0 -0.015073133 0.55240008)
(0 -0.010886622 0.48408887)
(0 -0.0037795371 0.33095854)
(0 0.00016629085 0.1160195)
(0 2.569229e-07 0.10586867)
(0 0.0035918794 0.30864573)
(0 0.011047545 0.46958859)
(0 0.016693951 0.55357329)
(0 0.018308457 0.5736012)
(0 0.017379407 0.56609496)
(0 0.015928984 0.55529209)
(0 0.014649192 0.54768078)
(0 0.013504267 0.54249852)
(0 0.012402313 0.53855324)
(0 0.011313255 0.5353565)
(0 0.010231822 0.5327271)
(0 0.0091568244 0.53055889)
(0 0.0080871614 0.52877337)
(0 0.0070221913 0.52731221)
(0 0.0059615083 0.52613235)
(0 0.0049047795 0.52520192)
(0 0.003851676 0.5244976)
(0 0.0028018231 0.52400272)
(0 0.0017548054 0.52370616)
(0 0.00071016519 0.52360157)
(0 -0.00033255413 0.523687)
(0 -0.0013737919 0.52396484)
(0 -0.0024139314 0.52444191)
(0 -0.0034532922 0.52512991)
(0 -0.0044920938 0.52604623)
(0 -0.0055304766 0.52721518)
(0 -0.0065685301 0.52866998)
(0 -0.007606359 0.5304557)
(0 -0.0086443137 0.53263319)
(0 -0.0096827461 0.53528466)
(0 -0.010724102 0.53853908)
(0 -0.011782835 0.54271094)
(0 -0.012909718 0.5486209)
(0 -0.014150664 0.55709515)
(0 -0.015110539 0.56403367)
(0 -0.014327916 0.5499241)
(0 -0.010146934 0.47862625)
(0 -0.0034767351 0.32554618)
(0 0.00011511098 0.11434297)
(0 2.4380495e-05 0.10427139)
(0 0.0033524595 0.30353553)
(0 0.010324157 0.46360031)
(0 0.015898276 0.55023941)
(0 0.017701393 0.57330764)
(0 0.016940041 0.56723427)
(0 0.015553648 0.55662024)
(0 0.014297385 0.54887438)
(0 0.013177972 0.54360626)
(0 0.012106682 0.53963255)
(0 0.011049501 0.53642526)
(0 0.0099997373 0.53378904)
(0 0.0089557953 0.53161543)
(0 0.0079164181 0.52982541)
(0 0.0068808779 0.52836031)
(0 0.0058487459 0.52717684)
(0 0.0048197393 0.52624309)
(0 0.0037936335 0.52553572)
(0 0.0027702008 0.52503808)
(0 0.001749203 0.52473909)
(0 0.00073037956 0.5246324)
(0 -0.00028652292 0.52471607)
(0 -0.0013017418 0.52499244)
(0 -0.0023154742 0.52546828)
(0 -0.0033278782 0.52615524)
(0 -0.0043390512 0.52707062)
(0 -0.0053490617 0.52823872)
(0 -0.0063579958 0.52969278)
(0 -0.0073660281 0.531478)
(0 -0.0083736638 0.5336555)
(0 -0.0093815923 0.53630866)
(0 -0.01039307 0.539574)
(0 -0.011425005 0.54379107)
(0 -0.012527552 0.54978698)
(0 -0.013722745 0.55815125)
(0 -0.014567942 0.56404262)
(0 -0.013629679 0.5473808)
(0 -0.0094767179 0.47337451)
(0 -0.0032177603 0.32052026)
(0 7.441066e-05 0.11277443)
(0 4.1076367e-05 0.10276562)
(0 0.0031381584 0.29877073)
(0 0.0096658329 0.45786228)
(0 0.015147357 0.54686463)
(0 0.017112653 0.57285433)
(0 0.016513312 0.56826639)
(0 0.01519364 0.55790563)
(0 0.01396086 0.55004364)
(0 0.012864449 0.54468716)
(0 0.011821056 0.54068198)
(0 0.010793385 0.53746346)