/*--------------------------------*- C++ -*----------------------------------*\
  =========                 |
  \\      /  F ield         | OpenFOAM: The Open Source CFD Toolbox
   \\    /   O peration     | Website:  https://openfoam.org
    \\  /    A nd           | Version:  10
     \\/     M anipulation  |
\*---------------------------------------------------------------------------*/
FoamFile
{
    format      ascii;
    class       volVectorField;
    location    "0.16";
    object      U_0;
}
// * * * * * * * * * * * * * * * * * * * * * * * * * * * * * * * * * * * * * //

dimensions      [0 1 -1 0 0 0 0];

internalField   nonuniform List<vector> 
4000
(
(0 0.01863709 0.47773175)
(0 0.023509308 0.50886051)
(0 0.0081662151 0.50052524)
(0 0.005613983 0.50033636)
(0 0.0042539608 0.50025746)
(0 0.0032542746 0.50016898)
(0 0.002555445 0.50011968)
(0 0.0020539795 0.50009012)
(0 0.0016760368 0.50006979)
(0 0.0013817726 0.50005537)
(0 0.001146813 0.50004497)
(0 0.00095481787 0.50003731)
(0 0.00079453161 0.50003157)
(0 0.0006579772 0.50002724)
(0 0.00053932498 0.50002396)
(0 0.0004341928 0.50002148)
(0 0.00033919186 0.50001963)
(0 0.00025161874 0.5000183)
(0 0.0001692392 0.50001741)
(0 9.0129791e-05 0.5000169)
(0 1.2555607e-05 0.50001676)
(0 -6.5137101e-05 0.50001696)
(0 -0.0001446123 0.50001752)
(0 -0.00022763612 0.50001847)
(0 -0.00031618781 0.50001988)
(0 -0.00041259025 0.50002183)
(0 -0.0005196818 0.50002444)
(0 -0.00064105546 0.50002791)
(0 -0.00078140686 0.5000325)
(0 -0.00094706411 0.50003862)
(0 -0.001146839 0.50004688)
(0 -0.0013933921 0.50005824)
(0 -0.0017054728 0.50007414)
(0 -0.0021134327 0.5000971)
(0 -0.0026731903 0.50013483)
(0 -0.0034668728 0.5002024)
(0 -0.004559276 0.50027149)
(0 -0.006583566 0.50043371)
(0 -0.017658012 0.50675387)
(0 -0.013589398 0.47975605)
(0 0.037431669 0.44797053)
(0 0.050953643 0.53232603)
(0 0.0219672 0.50804293)
(0 0.016133621 0.5035733)
(0 0.012413941 0.50242319)
(0 0.009513817 0.50162297)
(0 0.0075185599 0.50115655)
(0 0.0060679612 0.50086583)
(0 0.0049628217 0.50066787)
(0 0.0040986046 0.50052885)
(0 0.0034063552 0.50042885)
(0 0.0028391218 0.50035532)
(0 0.0023645268 0.50030041)
(0 0.0019594822 0.500259)
(0 0.0016070235 0.50022763)
(0 0.0012943513 0.50020396)
(0 0.0010115363 0.50018635)
(0 0.00075063608 0.50017367)
(0 0.00050507206 0.50016515)
(0 0.00026916989 0.50016032)
(0 3.7804604e-05 0.50015889)
(0 -0.00019390823 0.5001608)
(0 -0.00043088288 0.50016616)
(0 -0.00067833453 0.50017528)
(0 -0.0009420987 0.50018871)
(0 -0.00122901 0.50020728)
(0 -0.0015473977 0.50023224)
(0 -0.0019077738 0.50026539)
(0 -0.0023238248 0.50030934)
(0 -0.0028138968 0.50036799)
(0 -0.0034033712 0.50044728)
(0 -0.0041286309 0.50055668)
(0 -0.0050427635 0.50071129)
(0 -0.0062256437 0.50093669)
(0 -0.0078261609 0.50129453)
(0 -0.010120141 0.50191077)
(0 -0.013101806 0.50282554)
(0 -0.017421389 0.50608146)
(0 -0.038754458 0.52526792)
(0 -0.027892509 0.45021941)
(0 0.039886739 0.40982397)
(0 0.061424535 0.54930859)
(0 0.031979827 0.52188189)
(0 0.024351912 0.51008079)
(0 0.019189865 0.50658864)
(0 0.014973425 0.50452801)
(0 0.012003133 0.50327121)
(0 0.0097685565 0.5024581)
(0 0.0080334553 0.50190069)
(0 0.0066621755 0.50150823)
(0 0.0055544889 0.50122494)
(0 0.0046408549 0.50101611)
(0 0.0038725285 0.5008599)
(0 0.003214107 0.50074193)
(0 0.002639249 0.5006525)
(0 0.0021278941 0.50058495)
(0 0.0016643578 0.50053466)
(0 0.0012360125 0.50049843)
(0 0.00083234344 0.5004741)
(0 0.00044424342 0.50046027)
(0 6.3463179e-05 0.50045619)
(0 -0.00031786721 0.50046164)
(0 -0.00070766501 0.50047695)
(0 -0.0011143181 0.50050301)
(0 -0.0015471804 0.50054136)
(0 -0.0020171558 0.50059438)
(0 -0.0025374518 0.50066558)
(0 -0.0031246109 0.50076002)
(0 -0.0037999729 0.50088511)
(0 -0.0045917877 0.50105177)
(0 -0.0055384208 0.50127652)
(0 -0.0066938641 0.50158551)
(0 -0.0081353324 0.50202085)
(0 -0.0099669324 0.50265095)
(0 -0.012361481 0.50361551)
(0 -0.015706986 0.50519987)
(0 -0.019864272 0.50785496)
(0 -0.025177928 0.51641268)
(0 -0.047409439 0.53912833)
(0 -0.030850345 0.41488796)
(0 0.034789677 0.36173677)
(0 0.063833731 0.55456531)
(0 0.039374236 0.53747114)
(0 0.030077878 0.51849287)
(0 0.024106945 0.51197743)
(0 0.019273977 0.5084993)
(0 0.015730753 0.50626387)
(0 0.012949079 0.50475485)
(0 0.010738995 0.50370364)
(0 0.0089637969 0.50295516)
(0 0.0075104442 0.50240995)
(0 0.0062992626 0.50200553)
(0 0.0052724375 0.50170161)
(0 0.0043867021 0.50147127)
(0 0.0036092295 0.50129616)
(0 0.0029146257 0.5011636)
(0 0.0022827737 0.50106474)
(0 0.0016973021 0.50099344)
(0 0.0011444594 0.5009455)
(0 0.00061225415 0.50091824)
(0 8.977414e-05 0.50091018)
(0 -0.00043341318 0.50092091)
(0 -0.00096780134 0.50095107)
(0 -0.0015244727 0.50100236)
(0 -0.0021157191 0.50107778)
(0 -0.0027557592 0.50118191)
(0 -0.0034616451 0.50132145)
(0 -0.0042544676 0.5015061)
(0 -0.0051610205 0.50174985)
(0 -0.0062160971 0.50207317)
(0 -0.0074655808 0.50250656)
(0 -0.0089717186 0.503097)
(0 -0.010821898 0.50391921)
(0 -0.013122706 0.50508958)
(0 -0.016009802 0.50680761)
(0 -0.019885803 0.50946874)
(0 -0.024718809 0.51427647)
(0 -0.031100212 0.52824753)
(0 -0.050308563 0.54407612)
(0 -0.028434032 0.37239596)
(0 0.027422126 0.31485419)
(0 0.062308084 0.55024544)
(0 0.044605741 0.55146742)
(0 0.033974163 0.52748822)
(0 0.027456191 0.51772257)
(0 0.022447366 0.51291954)
(0 0.018629257 0.50973074)
(0 0.015521029 0.50749158)
(0 0.012999702 0.50589855)
(0 0.010936429 0.50474521)
(0 0.0092198196 0.50389417)
(0 0.0077710072 0.50325696)
(0 0.0065299933 0.50277466)
(0 0.0054503393 0.50240708)
(0 0.0044959827 0.50212641)
(0 0.0036384441 0.5019132)
(0 0.0028547644 0.50175377)
(0 0.0021259898 0.50163853)
(0 0.0014360108 0.50156093)
(0 0.00077065153 0.50151674)
(0 0.00011693178 0.50150365)
(0 -0.00053759492 0.501521)
(0 -0.0012054445 0.50156979)
(0 -0.0018997799 0.5016527)
(0 -0.0026350962 0.50177443)
(0 -0.0034279905 0.50194212)
(0 -0.0042981073 0.50216617)
(0 -0.0052693496 0.50246148)
(0 -0.0063714869 0.5028493)
(0 -0.0076423136 0.50336027)
(0 -0.0091301132 0.50403904)
(0 -0.010897342 0.50495215)
(0 -0.013030856 0.50620242)
(0 -0.015634489 0.50794475)
(0 -0.018796101 0.51040555)
(0 -0.022877233 0.51405681)
(0 -0.02815938 0.52114748)
(0 -0.03568846 0.53932736)
(0 -0.05046187 0.54156527)
(0 -0.024081168 0.33058331)
(0 0.019835648 0.2752137)
(0 0.057981656 0.53975568)
(0 0.047352098 0.56256497)
(0 0.036466905 0.53660421)
(0 0.029625707 0.52350716)
(0 0.024665859 0.51740282)
(0 0.020764334 0.51336192)
(0 0.017500451 0.51044289)
(0 0.014805698 0.50832207)
(0 0.012559121 0.50675922)
(0 0.010659182 0.50558978)
(0 0.0090338729 0.50470462)
(0 0.0076255604 0.50402881)
(0 0.0063883667 0.50351013)
(0 0.0052858154 0.50311188)
(0 0.0042884197 0.50280801)
(0 0.0033719331 0.50257999)
(0 0.0025160004 0.50241472)
(0 0.0017030788 0.50230321)
(0 0.00091756191 0.50223961)
(0 0.00014505295 0.50222071)
(0 -0.00062830084 0.5022456)
(0 -0.0014164253 0.50231565)
(0 -0.0022338954 0.50243459)
(0 -0.003096628 0.50260886)
(0 -0.0040226315 0.50284825)
(0 -0.0050329032 0.5031669)
(0 -0.006152531 0.50358482)
(0 -0.0074120874 0.50413018)
(0 -0.0088495238 0.50484292)
(0 -0.010512131 0.50578006)
(0 -0.012458225 0.50702388)
(0 -0.014768041 0.50869756)
(0 -0.017543407 0.51098275)
(0 -0.02083833 0.51412187)
(0 -0.024949068 0.51873301)
(0 -0.030484661 0.52823205)
(0 -0.038604805 0.54872609)
(0 -0.04849022 0.53400352)
(0 -0.019061328 0.29397622)
(0 0.013080836 0.24257658)
(0 0.051788939 0.5252158)
(0 0.047694429 0.57024993)
(0 0.0377429 0.54552394)
(0 0.030836968 0.52928837)
(0 0.026060386 0.5218009)
(0 0.022225308 0.51699628)
(0 0.018941777 0.51347103)
(0 0.016182581 0.51086179)
(0 0.013839879 0.50890863)
(0 0.011827165 0.50742824)
(0 0.010081835 0.50629558)
(0 0.0085512467 0.50542292)
(0 0.007192632 0.50474811)
(0 0.0059711707 0.50422678)
(0 0.0048580239 0.50382701)
(0 0.0038289824 0.50352583)
(0 0.0028633526 0.50330686)
(0 0.0019430245 0.50315876)
(0 0.0010516917 0.50307413)
(0 0.00017418719 0.50304887)
(0 -0.00070413958 0.50308186)
(0 -0.0015980123 0.5031748)
(0 -0.0025227606 0.50333243)
(0 -0.0034949753 0.50356288)
(0 -0.0045331868 0.50387844)
(0 -0.0056586598 0.50429672)
(0 -0.0068963354 0.50484234)
(0 -0.008275946 0.50554956)
(0 -0.00983359 0.50646619)
(0 -0.011613491 0.50765936)
(0 -0.013667924 0.50922394)
(0 -0.016066416 0.51129791)
(0 -0.018904316 0.51408066)
(0 -0.022213045 0.51784108)
(0 -0.026233284 0.52347129)
(0 -0.031817217 0.5353771)
(0 -0.03972705 0.5559012)
(0 -0.044871709 0.52285508)
(0 -0.014084612 0.26269692)
(0 0.0077676727 0.21556925)
(0 0.044814406 0.50803323)
(0 0.046236905 0.57438461)
(0 0.038017095 0.55374952)
(0 0.031270859 0.53495971)
(0 0.026751837 0.52602913)
(0 0.023100777 0.52053613)
(0 0.019905791 0.51648484)
(0 0.017168298 0.51343725)
(0 0.014801038 0.51112533)
(0 0.012735568 0.50935336)
(0 0.010919814 0.50798408)
(0 0.0093078524 0.50691987)
(0 0.0078616913 0.50609081)
(0 0.0065495632 0.50544632)
(0 0.0053444872 0.50494954)
(0 0.0042233277 0.50457369)
(0 0.0031659284 0.50429954)
(0 0.0021543605 0.50411362)
(0 0.001172273 0.50400716)
(0 0.00020432316 0.50397525)
(0 -0.00076437083 0.50401652)
(0 -0.0017487619 0.50413304)
(0 -0.0027643334 0.50433044)
(0 -0.0038276858 0.50461837)
(0 -0.004957113 0.50501136)
(0 -0.006173264 0.50553)
(0 -0.0074999086 0.50620291)
(0 -0.0089647618 0.5070694)
(0 -0.010600651 0.50818365)
(0 -0.012447189 0.50962092)
(0 -0.014549543 0.51148623)
(0 -0.016963931 0.5139285)
(0 -0.019772081 0.51715651)
(0 -0.022990027 0.52148332)
(0 -0.026839949 0.52818648)
(0 -0.032311376 0.54222174)
(0 -0.039363277 0.56051093)
(0 -0.040302205 0.50913218)
(0 -0.0097016303 0.23592493)
(0 0.0040023822 0.19359171)
(0 0.037886527 0.48952047)
(0 0.043664582 0.57524762)
(0 0.037541038 0.56084262)
(0 0.031132985 0.54035947)
(0 0.026893796 0.53000967)
(0 0.02349447 0.52389874)
(0 0.020461786 0.5194081)
(0 0.017809707 0.51598203)
(0 0.015474214 0.51335196)
(0 0.013404965 0.51131605)
(0 0.011560582 0.50972846)
(0 0.009902878 0.50848453)
(0 0.0083995916 0.50750861)
(0 0.0070228655 0.50674533)
(0 0.0057483997 0.50615396)
(0 0.0045548825 0.50570467)
(0 0.0034233652 0.50537583)
(0 0.0023367026 0.50515224)
(0 0.0012790479 0.5050239)
(0 0.00023539446 0.50498524)
(0 -0.00080887653 0.5050347)
(0 -0.0018684513 0.50517461)
(0 -0.0029584509 0.50541139)
(0 -0.0040949321 0.505756)
(0 -0.0052953435 0.50622481)
(0 -0.0065790408 0.50684092)
(0 -0.0079678699 0.50763615)
(0 -0.0094867231 0.50865383)
(0 -0.011164236 0.50995306)
(0 -0.01303431 0.51161516)
(0 -0.015134503 0.51375279)
(0 -0.017507474 0.51652172)
(0 -0.020217448 0.52013309)
(0 -0.023272367 0.52496692)
(0 -0.026913561 0.53274373)
(0 -0.0321539 0.54839155)
(0 -0.037946605 0.56255943)
(0 -0.035384961 0.49386191)
(0 -0.0061936329 0.21333724)
(0 0.0015483751 0.17617669)
(0 0.031484925 0.47080747)
(0 0.040505619 0.57339879)
(0 0.036530566 0.56659551)
(0 0.030610943 0.54537549)
(0 0.026646554 0.53370201)
(0 0.023518931 0.52702815)
(0 0.020687599 0.52218248)
(0 0.01816192 0.51844365)
(0 0.015898356 0.51554194)
(0 0.013862461 0.51327518)
(0 0.01202277 0.51149274)
(0 0.010348954 0.51008561)
(0 0.0088147257 0.50897428)
(0 0.0073965207 0.50810004)
(0 0.0060731907 0.50741935)
(0 0.0048257267 0.50690005)
(0 0.0036368532 0.50651869)
(0 0.0024906562 0.50625869)
(0 0.0013722201 0.50610909)
(0 0.00026728557 0.50606378)
(0 -0.00083809921 0.50612102)
(0 -0.0019579484 0.5062834)
(0 -0.0031066073 0.50655794)
(0 -0.0042991576 0.50695665)
(0 -0.0055517507 0.50749737)
(0 -0.0068819746 0.50820513)
(0 -0.0083092604 0.50911415)
(0 -0.0098552199 0.51027075)
(0 -0.011543904 0.51173747)
(0 -0.013403077 0.51359969)
(0 -0.015462853 0.51597486)
(0 -0.017753884 0.51902158)
(0 -0.020323206 0.52295092)
(0 -0.023178101 0.5282393)
(0 -0.026597967 0.53704341)
(0 -0.031506037 0.55365958)
(0 -0.035847994 0.56233397)
(0 -0.030519459 0.47798578)
(0 -0.003583571 0.19471403)
(0 7.3838182e-05 0.16257681)
(0 0.025853808 0.45266107)
(0 0.037128202 0.56945396)
(0 0.035156576 0.57098588)
(0 0.029844813 0.54995826)
(0 0.026143041 0.53711009)
(0 0.023276449 0.52990694)
(0 0.02065966 0.52477651)
(0 0.018282253 0.52078837)
(0 0.016115771 0.51766231)
(0 0.014138892 0.51519975)
(0 0.012328726 0.51324853)
(0 0.01066216 0.51169741)
(0 0.0091185432 0.51046471)
(0 0.0076785839 0.50948966)
(0 0.0063244356 0.50872689)
(0 0.0050396212 0.50814265)
(0 0.0038088124 0.5077122)
(0 0.0026176211 0.50741794)
(0 0.0014523661 0.50724821)
(0 0.00029983982 0.50719648)
(0 -0.00085293734 0.5072609)
(0 -0.0020190009 0.50744422)
(0 -0.0032116143 0.50775395)
(0 -0.0044445787 0.50820285)
(0 -0.0057324508 0.50880985)
(0 -0.0070907741 0.50960134)
(0 -0.0085363246 0.5106132)
(0 -0.010087294 0.51189368)
(0 -0.011763216 0.51350751)
(0 -0.013585928 0.51554235)
(0 -0.015578701 0.51811795)
(0 -0.017762202 0.52139256)
(0 -0.020168917 0.52558067)
(0 -0.022812392 0.53128616)
(0 -0.02600915 0.54103294)
(0 -0.030498329 0.5579353)
(0 -0.033360686 0.56023028)
(0 -0.025957381 0.46219302)
(0 -0.0017571365 0.17959559)
(0 -0.00072100902 0.15196879)
(0 0.021089291 0.43551327)
(0 0.033782619 0.56396239)
(0 0.033562054 0.57408678)
(0 0.028935172 0.55408711)
(0 0.025482705 0.54025807)
(0 0.022850564 0.53254556)
(0 0.02044484 0.52718216)
(0 0.018223639 0.5230001)
(0 0.016167472 0.51969346)
(0 0.014265577 0.51706893)
(0 0.012502153 0.5149751)
(0 0.010860264 0.51330007)
(0 0.0093242353 0.51196123)
(0 0.0078787382 0.51089679)
(0 0.0065091289 0.51006038)
(0 0.005201486 0.50941732)
(0 0.0039425353 0.50894203)
(0 0.0027195718 0.50861627)
(0 0.0015203345 0.5084279)
(0 0.00033286826 0.50837009)
(0 -0.00085462631 0.50844091)
(0 -0.0020539973 0.50864324)
(0 -0.0032772252 0.50898491)
(0 -0.0045366446 0.50947921)
(0 -0.0058450604 0.51014574)
(0 -0.0072158665 0.51101177)
(0 -0.0086631563 0.51211417)
(0 -0.010201801 0.51350226)
(0 -0.011847172 0.51524188)
(0 -0.013615775 0.51742168)
(0 -0.015524823 0.52016182)
(0 -0.017586832 0.52361827)
(0 -0.019823385 0.52801671)
(0 -0.022260495 0.53411352)
(0 -0.025237923 0.54468132)
(0 -0.029245873 0.56120973)
(0 -0.030716145 0.55664408)
(0 -0.021852181 0.44692217)
(0 -0.00055601492 0.16739487)
(0 -0.0010732416 0.14365542)
(0 0.017182186 0.41957847)
(0 0.030624408 0.55738373)
(0 0.031864846 0.57601968)
(0 0.027955989 0.55775444)
(0 0.024738966 0.54317173)
(0 0.022307628 0.53496664)
(0 0.02009869 0.52940529)
(0 0.018031766 0.52507475)
(0 0.016090409 0.52162592)
(0 0.014271953 0.51887015)
(0 0.012566199 0.51665834)
(0 0.01096124 0.51487893)
(0 0.0094455923 0.51344922)
(0 0.008007426 0.5123072)
(0 0.0066350337 0.51140612)
(0 0.0053169256 0.51071088)
(0 0.0040418585 0.51019549)
(0 0.0027988529 0.50984134)
(0 0.0015771512 0.50963602)
(0 0.00036615872 0.50957253)
(0 -0.00084462555 0.50964889)
(0 -0.0020657432 0.50986804)
(0 -0.0033077853 0.51023802)
(0 -0.0045815376 0.51077239)
(0 -0.0058980127 0.51149115)
(0 -0.0072684837 0.51242199)
(0 -0.0087044857 0.51360222)
(0 -0.010217825 0.51508156)
(0 -0.011820207 0.51692618)
(0 -0.013523567 0.5192248)
(0 -0.015339975 0.52209664)
(0 -0.017275478 0.5256947)
(0 -0.019344786 0.53026595)
(0 -0.021591209 0.53673295)
(0 -0.024357379 0.54796849)
(0 -0.027850282 0.56352717)
(0 -0.028084841 0.5519376)
(0 -0.018277921 0.43243822)
(0 0.00017818041 0.15756599)
(0 -0.0011564121 0.13708544)
(0 0.014054977 0.40493729)
(0 0.027733555 0.55009266)
(0 0.030152916 0.57693232)
(0 0.02695957 0.56096676)
(0 0.023964685 0.54587494)
(0 0.021699405 0.53719707)
(0 0.019666302 0.53145895)
(0 0.01774488 0.52701552)
(0 0.015916602 0.52345703)
(0 0.014184416 0.52059695)
(0 0.012542291 0.51828935)
(0 0.010982236 0.51642366)
(0 0.0094961486 0.51491764)
(0 0.0080751617 0.51370955)
(0 0.0067101475 0.51275275)
(0 0.0053918295 0.5120121)
(0 0.0041108808 0.51146151)
(0 0.0028580011 0.51108224)
(0 0.0016239377 0.51086177)
(0 0.00039948498 0.51079303)
(0 -0.00082451778 0.51087401)
(0 -0.0020572635 0.51110768)
(0 -0.0033079273 0.51150215)
(0 -0.0045857475 0.5120711)
(0 -0.005899994 0.51283464)
(0 -0.0072599406 0.51382057)
(0 -0.0086747889 0.51506621)
(0 -0.010153632 0.51662119)
(0 -0.01170506 0.51855142)
(0 -0.013337277 0.5209451)
(0 -0.015058196 0.52391957)
(0 -0.016869054 0.52762544)
(0 -0.018781564 0.53234195)
(0 -0.020858931 0.53915843)
(0 -0.023424585 0.55088805)
(0 -0.026393922 0.5649706)
(0 -0.025577909 0.54642915)
(0 -0.015246155 0.41888953)
(0 0.00058353498 0.14964639)
(0 -0.00108885 0.13181926)
(0 0.011596999 0.39158131)
(0 0.025137832 0.54238328)
(0 0.02848499 0.5769793)
(0 0.025979201 0.56374383)
(0 0.023195089 0.54839048)
(0 0.021064293 0.53926522)
(0 0.019183014 0.53336047)
(0 0.017394108 0.52883031)
(0 0.015673017 0.52518882)
(0 0.014025882 0.5222473)
(0 0.012449558 0.51986327)
(0 0.010938966 0.51792748)
(0 0.0094886102 0.51635849)
(0 0.0080920345 0.51509513)
(0 0.0067422933 0.51409115)
(0 0.0054320545 0.51331166)
(0 0.0041537324 0.51273068)
(0 0.0028995983 0.51232954)
(0 0.0016618425 0.51209573)
(0 0.00043261575 0.51202217)
(0 -0.0007959222 0.51210685)
(0 -0.0020316358 0.51235273)
(0 -0.0032823194 0.51276791)
(0 -0.0045557305 0.51336603)
(0 -0.0058595094 0.51416712)
(0 -0.0072011144 0.51519883)
(0 -0.0085876963 0.51649821)
(0 -0.010026036 0.51811445)
(0 -0.011522186 0.52011287)
(0 -0.01308143 0.52258068)
(0 -0.014708517 0.52563292)
(0 -0.016401467 0.52941954)
(0 -0.018172282 0.53426273)
(0 -0.020104128 0.54140645)
(0 -0.02248095 0.55344775)
(0 -0.024937742 0.56564495)
(0 -0.023257918 0.54038514)
(0 -0.012727191 0.40633835)
(0 0.00076912912 0.14324201)
(0 -0.00094699896 0.12751144)
(0 0.0096894751 0.37944483)
(0 0.022833719 0.53447642)
(0 0.026896173 0.57630605)
(0 0.025033503 0.56611299)
(0 0.022451271 0.55073895)
(0 0.020428827 0.54119867)
(0 0.018675161 0.5351294)
(0 0.017003836 0.53053006)
(0 0.015381623 0.52682655)
(0 0.013815628 0.52382241)
(0 0.012304547 0.5213783)
(0 0.010845364 0.51938648)
(0 0.0094344968 0.51776636)
(0 0.0080673709 0.5164575)
(0 0.0067388264 0.51541422)
(0 0.005443186 0.51460203)
(0 0.0041743971 0.51399522)
(0 0.0029261546 0.51357532)
(0 0.0016919869 0.51332989)
(0 0.00046532297 0.51325193)
(0 -0.00076042391 0.51333942)
(0 -0.001991856 0.51359529)
(0 -0.0032354694 0.51402755)
(0 -0.0044976512 0.51464971)
(0 -0.0057845681 0.51548159)
(0 -0.0071020825 0.51655049)
(0 -0.0084556029 0.51789302)
(0 -0.0098500132 0.51955772)
(0 -0.011289378 0.52160913)
(0 -0.012776803 0.52413328)
(0 -0.01431477 0.52724278)
(0 -0.015899544 0.53108978)
(0 -0.017545905 0.53604854)
(0 -0.0193548 0.54349443)
(0 -0.021554373 0.55566513)
(0 -0.023523626 0.56566075)
(0 -0.021152817 0.53401762)
(0 -0.010668468 0.39478466)
(0 0.00081526835 0.13801976)
(0 -0.00077835305 0.12390105)
(0 0.008219752 0.36843128)
(0 0.020800882 0.52653203)
(0 0.025404264 0.57504078)
(0 0.024131146 0.56810397)
(0 0.021744234 0.55293726)
(0 0.019810021 0.54302196)
(0 0.018161392 0.53678539)
(0 0.016592408 0.53212715)
(0 0.015059688 0.52837741)
(0 0.01356936 0.52532567)
(0 0.012121149 0.52283493)
(0 0.010713429 0.52079891)
(0 0.0093439425 0.51913788)
(0 0.0080095289 0.51779213)
(0 0.0067064429 0.5167166)
(0 0.0054303749 0.51587728)
(0 0.004176586 0.51524884)
(0 0.0029400253 0.51481304)
(0 0.0017154269 0.51455762)
(0 0.00049738909 0.51447564)
(0 -0.00071951981 0.5145651)
(0 -0.0019407394 0.51482889)
(0 -0.0031715809 0.51527487)
(0 -0.0044171997 0.51591637)
(0 -0.0056824685 0.51677287)
(0 -0.0069718872 0.51787128)
(0 -0.0082894294 0.51924762)
(0 -0.0096384783 0.52094973)
(0 -0.011021607 0.52304129)
(0 -0.012440375 0.52560709)
(0 -0.013895759 0.52875764)
(0 -0.015383563 0.53265071)
(0 -0.016923033 0.53771947)
(0 -0.018629004 0.5454387)
(0 -0.020662247 0.55756278)
(0 -0.022178005 0.56512338)
(0 -0.0192676 0.52748919)
(0 -0.0090071862 0.3841885)
(0 0.00077845942 0.13370753)
(0 -0.0006109032 0.12079803)
(0 0.0070886448 0.35843219)
(0 0.01901124 0.51866275)
(0 0.024015038 0.57329292)
(0 0.023274461 0.56974627)
(0 0.02107828 0.55499825)
(0 0.019217813 0.5447554)
(0 0.017654276 0.53834666)
(0 0.016173137 0.53363409)
(0 0.014720363 0.52984941)
(0 0.013299504 0.52676171)
(0 0.011910708 0.52423511)
(0 0.010553215 0.52216465)
(0 0.0092256266 0.52047131)
(0 0.007925799 0.51909605)
(0 0.0066510725 0.51799442)
(0 0.0053982393 0.5171329)
(0 0.0041636577 0.51648657)
(0 0.0029433559 0.51603745)
(0 0.0017331274 0.51577349)
(0 0.00052861355 0.51568784)
(0 -0.00067458101 0.51577852)
(0 -0.0018808526 0.51604834)
(0 -0.0030944586 0.51650503)
(0 -0.0043194765 0.51716165)
(0 -0.0055596711 0.51803736)
(0 -0.0068184106 0.51915857)
(0 -0.0080985225 0.52056072)
(0 -0.0094022445 0.52229095)
(0 -0.010731087 0.5244121)
(0 -0.012085575 0.5270078)
(0 -0.013465805 0.53018705)
(0 -0.014868224 0.53411705)
(0 -0.0163175 0.53929383)
(0 -0.017937332 0.5472535)
(0 -0.019814125 0.5591653)
(0 -0.020915203 0.56412814)
(0 -0.017592916 0.52092119)
(0 -0.0076786108 0.37448756)
(0 0.00069712187 0.13009025)
(0 -0.00045957443 0.11806726)
(0 0.0062135757 0.34933852)
(0 0.017434596 0.51094565)
(0 0.022726503 0.57115426)
(0 0.022461945 0.5710681)
(0 0.020453419 0.55693125)
(0 0.018657085 0.54641497)
(0 0.017161787 0.53982922)
(0 0.015755333 0.53506266)
(0 0.014373369 0.5312506)
(0 0.013015638 0.52813573)
(0 0.011682258 0.5255817)
(0 0.01037295 0.52348463)
(0 0.0090868075 0.52176607)
(0 0.0078223891 0.5203675)
(0 0.0065778407 0.51924501)
(0 0.0053508183 0.51836555)
(0 0.0041385771 0.51770458)
(0 0.0029380526 0.51724442)
(0 0.0017459496 0.5169732)
(0 0.00055881773 0.5168842)
(0 -0.00062682915 0.51697542)
(0 -0.001814473 0.51724962)
(0 -0.0030074564 0.51771437)
(0 -0.0042089343 0.51838246)
(0 -0.0054217469 0.51927268)
(0 -0.006648346 0.52041099)
(0 -0.0078906714 0.52183226)
(0 -0.009150122 0.52358298)
(0 -0.010427496 0.52572528)
(0 -0.011722695 0.52834175)
(0 -0.013035421 0.53154074)
(0 -0.014363663 0.53550267)
(0 -0.015737833 0.54078741)
(0 -0.01728491 0.5489508)
(0 -0.019013838 0.5604976)
(0 -0.019740531 0.56275833)
(0 -0.016111387 0.51440188)
(0 -0.0066215174 0.36560902)
(0 0.00059644225 0.12700169)
(0 -0.00033083514 0.11561468)
(0 0.0055288108 0.34104689)
(0 0.016041942 0.50343142)
(0 0.021532272 0.56870106)
(0 0.021690065 0.57209575)
(0 0.019867073 0.55874285)
(0 0.018129228 0.54801271)
(0 0.016688504 0.54124668)
(0 0.015345208 0.53642351)
(0 0.014025662 0.53258861)
(0 0.012724955 0.52945301)
(0 0.011442835 0.526878)
(0 0.010179215 0.5247605)
(0 0.0089334248 0.52302242)
(0 0.0077044727 0.52160564)
(0 0.0064910817 0.52046666)
(0 0.0052915682 0.51957287)
(0 0.004103904 0.51890005)
(0 0.0029257725 0.51843081)
(0 0.0017546457 0.51815345)
(0 0.00058784838 0.51806135)
(0 -0.00057732494 0.51815254)
(0 -0.0017435719 0.5184297)
(0 -0.0029134582 0.51890022)
(0 -0.0040893669 0.51957666)
(0 -0.0052733836 0.52047746)
(0 -0.0064672381 0.52162813)
(0 -0.0076722056 0.52306305)
(0 -0.0088891001 0.52482817)
(0 -0.010118288 0.52698503)
(0 -0.011359355 0.5296154)
(0 -0.012611986 0.53282801)
(0 -0.013876383 0.53682007)
(0 -0.015188519 0.54221334)
(0 -0.016672993 0.55054041)
(0 -0.018261295 0.56158366)
(0 -0.018653119 0.56108508)
(0 -0.014802073 0.50799355)
(0 -0.0057813044 0.35747696)
(0 0.00049217793 0.12431545)
(0 -0.00022601803 0.113376)
(0 0.0049838677 0.33346286)
(0 0.014807115 0.49615163)
(0 0.020423981 0.56599633)
(0 0.020954514 0.57285341)
(0 0.019315318 0.56043745)
(0 0.017633374 0.54955723)
(0 0.016236587 0.54261024)
(0 0.014946636 0.53772598)
(0 0.013682026 0.53387042)
(0 0.012432704 0.53071861)
(0 0.011197784 0.52812745)
(0 0.0099771681 0.52599427)
(0 0.0087702396 0.52424118)
(0 0.0075762745 0.5228103)
(0 0.006394388 0.52165843)
(0 0.0052233875 0.52075329)
(0 0.004061805 0.52007097)
(0 0.0029079278 0.51959429)
(0 0.0017598613 0.51931175)
(0 0.00061558019 0.51921679)
(0 -0.00052696602 0.51930746)
(0 -0.0016698159 0.51958637)
(0 -0.0028148871 0.52006076)
(0 -0.0039639313 0.52074295)
(0 -0.0051184334 0.52165107)
(0 -0.0062795698 0.52281026)
(0 -0.0074481373 0.52425448)
(0 -0.0086245686 0.52602924)
(0 -0.0098090098 0.52819568)
(0 -0.011000962 0.53083498)
(0 -0.012200366 0.53405743)
(0 -0.013410092 0.53808013)
(0 -0.014671103 0.5435821)
(0 -0.016100266 0.55203013)
(0 -0.017553959 0.56244578)
(0 -0.017648288 0.55916809)
(0 -0.013643371 0.50173861)
(0 -0.0051113042 0.35001707)
(0 0.00039354719 0.12193701)
(0 -0.0001435925 0.111308)
(0 0.0045410875 0.32650239)
(0 0.013707368 0.4891243)
(0 0.019392835 0.56309223)
(0 0.020250993 0.57336317)
(0 0.018793737 0.56201793)
(0 0.017167325 0.5510543)
(0 0.01580655 0.54392886)
(0 0.014561775 0.53897809)
(0 0.013345577 0.53510226)
(0 0.012142584 0.53193722)
(0 0.01095106 0.52933343)
(0 0.0097707526 0.52718815)
(0 0.008600989 0.52542355)
(0 0.0074411759 0.52398181)
(0 0.0062906794 0.52281995)
(0 0.0051486604 0.5219059)
(0 0.004014079 0.52121599)
(0 0.0028857004 0.52073326)
(0 0.001762143 0.52044632)
(0 0.00064191505 0.5203487)
(0 -0.000476494 0.52043846)
(0 -0.0015945796 0.52071813)
(0 -0.0027137308 0.52119482)
(0 -0.0038351936 0.52188065)
(0 -0.004959986 0.52279348)
(0 -0.0060888735 0.52395814)
(0 -0.0072223259 0.52540826)
(0 -0.0083605512 0.52718907)
(0 -0.0095036276 0.52936141)
(0 -0.010651138 0.53200623)
(0 -0.011803475 0.5352366)
(0 -0.012966431 0.539292)
(0 -0.014185102 0.54490171)
(0 -0.015563852 0.55342592)
(0 -0.016887947 0.56310426)
(0 -0.016719293 0.557057)
(0 -0.012614734 0.4956647)
(0 -0.0045729703 0.34315952)
(0 0.00030538878 0.11979687)
(0 -8.0644432e-05 0.10938181)
(0 0.0041730487 0.32009201)
(0 0.01272335 0.48235809)
(0 0.018430488 0.56003213)
(0 0.019575615 0.57364531)
(0 0.018297947 0.56348611)
(0 0.016728213 0.55250743)
(0 0.01539785 0.54520951)
(0 0.014191577 0.54018657)
(0 0.013018193 0.5362895)
(0 0.011857089 0.53311306)
(0 0.010705496 0.53049912)
(0 0.0095629125 0.52834437)
(0 0.0084285415 0.5265709)
(0 0.0073018283 0.52512083)
(0 0.0061822831 0.52395125)
(0 0.0050693119 0.52303024)
(0 0.0039621934 0.52233432)
(0 0.0028600632 0.52184664)
(0 0.0017619467 0.52155596)
(0 0.00066678207 0.52145585)
(0 -0.00042650448 0.52154438)
(0 -0.0015189699 0.52182401)
(0 -0.0026115811 0.52230175)
(0 -0.0037051882 0.52298954)
(0 -0.0048004558 0.52390503)
(0 -0.0058978556 0.5250728)
(0 -0.0069976491 0.52652626)
(0 -0.0080999366 0.52831047)
(0 -0.0092048327 0.53048615)
(0 -0.010312114 0.5331343)
(0 -0.01142277 0.53637209)
(0 -0.012545588 0.54046314)
(0 -0.013728739 0.54617803)
(0 -0.015060046 0.5547323)
(0 -0.016258798 0.56357736)
(0 -0.015858535 0.55479291)
(0 -0.01169757 0.48978878)
(0 -0.004135362 0.33684053)
(0 0.00022969161 0.11784469)
(0 -3.3800417e-05 0.10757798)
(0 0.0038601758 0.31416821)
(0 0.011838803 0.47585536)
(0 0.017529462 0.55685239)
(0 0.01892507 0.57371858)
(0 0.017823896 0.5648433)
(0 0.016312934 0.55391839)
(0 0.015009301 0.54645744)
(0 0.013836169 0.54135697)
(0 0.012700854 0.53743679)
(0 0.011577799 0.53424984)
(0 0.010463049 0.53162741)
(0 0.00935578 0.52946508)
(0 0.0082550454 0.5276847)
(0 0.007160265 0.52622822)
(0 0.0060710163 0.52505268)
(0 0.0049868663 0.52412626)
(0 0.0039073232 0.52342555)
(0 0.0028318034 0.52293384)
(0 0.0017596484 0.52263994)
(0 0.000690136 0.52253749)
(0 -0.00037746148 0.52262454)
(0 -0.0014438542 0.52290352)
(0 -0.0025096793 0.52338133)
(0 -0.0035754845 0.52406977)
(0 -0.004641675 0.52498634)
(0 -0.0057085223 0.52615545)
(0 -0.0067761705 0.52761037)
(0 -0.0078446958 0.52939612)
(0 -0.0089143144 0.53157342)
(0 -0.0099850711 0.5342237)
(0 -0.011058652 0.53746943)
(0 -0.012146768 0.54159946)
(0 -0.013299478 0.54741505)
(0 -0.014584832 0.55595259)
(0 -0.015661989 0.56388147)
(0 -0.015058363 0.55240988)
(0 -0.01087559 0.48412011)
(0 -0.0037742347 0.33100299)
(0 0.00016666306 0.11604447)
(0 2.3042902e-07 0.10588309)
(0 0.0035886999 0.30867653)
(0 0.011040142 0.46961423)
(0 0.016683279 0.55358371)
(0 0.018296642 0.57360043)
(0 0.017368001 0.56609063)
(0 0.015918407 0.5552877)
(0 0.014639365 0.54767648)
(0 0.013495137 0.54249384)
(0 0.012393905 0.53854804)
(0 0.011305613 0.53535081)
(0 0.01022499 0.53272094)
(0 0.0091508418 0.53055232)
(0 0.0080820622 0.52876644)
(0 0.0070180068 0.52730496)
(0 0.0059582665 0.5261248)
(0 0.0049025055 0.52519414)
(0 0.0038503915 0.52448961)
(0 0.0028015474 0.52399458)
(0 0.0017555551 0.5236979)
(0 0.00071195437 0.52359323)
(0 -0.00032971387 0.52367863)
(0 -0.0013698915 0.52395648)
(0 -0.0024089644 0.5244336)
(0 -0.0034472551 0.52512171)
(0 -0.0044849861 0.52603819)
(0 -0.0055223016 0.52720735)
(0 -0.0065592948 0.52866241)
(0 -0.0075960749 0.53044845)
(0 -0.008632997 0.53262633)
(0 -0.0096704188 0.53527826)
(0 -0.010710792 0.5385332)
(0 -0.011768557 0.54270547)
(0 -0.012894415 0.54861533)
(0 -0.014134212 0.5570893)
(0 -0.015093248 0.56403134)
(0 -0.014311568 0.54993622)
(0 -0.010134822 0.47866262)
(0 -0.0034709697 0.32559652)
(0 0.00011547318 0.1143706)
(0 2.4377736e-05 0.10428737)
(0 0.0033490198 0.30357041)
(0 0.010316012 0.46363012)
(0 0.015886427 0.55025217)
(0 0.017688151 0.57330723)
(0 0.016927188 0.56722928)
(0 0.01554173 0.55661503)
(0 0.014286337 0.54886931)
(0 0.013167725 0.54360083)
(0 0.012097253 0.53962656)
(0 0.011040935 0.53641873)
(0 0.009992077 0.53378202)
(0 0.0089490803 0.53160795)
(0 0.0079106838 0.52981753)
(0 0.0068761561 0.52835207)
(0 0.0058450652 0.52716829)
(0 0.0048171252 0.52623428)
(0 0.0037921086 0.52552668)
(0 0.0027697853 0.52502887)
(0 0.0017499147 0.52472974)
(0 0.00073223403 0.52462297)
(0 -0.00028351232 0.52470659)
(0 -0.0012975639 0.52498296)
(0 -0.0023101202 0.52545885)
(0 -0.0033213419 0.52614591)
(0 -0.0043313291 0.52706145)
(0 -0.0053401538 0.52822976)
(0 -0.0063479054 0.52968409)
(0 -0.007354763 0.53146965)
(0 -0.0083612363 0.53364756)
(0 -0.0093680204 0.53630121)
(0 -0.010378376 0.53956708)
(0 -0.011409194 0.54378453)
(0 -0.012510547 0.54978026)
(0 -0.01370442 0.55814435)
(0 -0.014548726 0.56404033)
(0 -0.013611633 0.54739561)
(0 -0.00946345 0.4734166)
(0 -0.0032115072 0.32057705)
(0 7.4761897e-05 0.11280493)
(0 4.1101578e-05 0.10278329)
(0 0.0031344485 0.2988101)
(0 0.0096568948 0.45789674)
(0 0.015134237 0.54688011)
(0 0.017097859 0.57285441)
(0 0.016498875 0.5682607)
(0 0.015180249 0.55789947)
(0 0.013948473 0.55003767)
(0 0.01285298 0.54468087)
(0 0.011810512 0.54067511)
(0 0.010783809 0.53745599)
(0 0.009764679 0.53481266)