/*--------------------------------*- C++ -*----------------------------------*\
  =========                 |
  \\      /  F ield         | OpenFOAM: The Open Source CFD Toolbox
   \\    /   O peration     | Website:  https://openfoam.org
    \\  /    A nd           | Version:  10
     \\/     M anipulation  |
\*---------------------------------------------------------------------------*/
FoamFile
{
    format      ascii;
    class       surfaceScalarField;
    location    "0.18";
    object      phi;
}
// * * * * * * * * * * * * * * * * * * * * * * * * * * * * * * * * * * * * * //

dimensions      [1 0 -1 0 0 0 0];

internalField   nonuniform List<scalar> 
7860
(
3.9895637e-08
5.2881239e-07
1.2192462e-08
5.9641097e-07
7.4276393e-09
5.7347256e-07
5.4991286e-09
5.7063621e-07
4.1147051e-09
5.7009209e-07
3.2008642e-09
5.6962149e-07
2.558891e-09
5.693496e-07
2.0790921e-09
5.6918741e-07
1.7091384e-09
5.6907756e-07
1.4165058e-09
5.6900023e-07
1.1793979e-09
5.6894469e-07
9.8305126e-10
5.6890393e-07
8.1712155e-10
5.688735e-07
6.7411797e-10
5.6885057e-07
5.4846647e-10
5.6883322e-07
4.3590579e-10
5.6882012e-07
3.3308146e-10
5.6881038e-07
2.3726548e-10
5.6880337e-07
1.4615408e-10
5.6879867e-07
5.771539e-11
5.6879599e-07
-2.9934175e-11
5.687952e-07
-1.1863751e-10
5.6879626e-07
-2.1030189e-10
5.6879922e-07
-3.0700561e-10
5.6880426e-07
-4.1113024e-10
5.6881168e-07
-5.2552356e-10
5.6882195e-07
-6.5372044e-10
5.6883576e-07
-8.0025552e-10
5.688541e-07
-9.7112395e-10
5.6887844e-07
-1.174488e-09
5.6891094e-07
-1.4218504e-09
5.6895495e-07
-1.7300236e-09
5.6901577e-07
-2.1239878e-09
5.6910157e-07
-2.6436263e-09
5.6922725e-07
-3.3713535e-09
5.6943536e-07
-4.4627324e-09
5.6979903e-07
-6.0082096e-09
5.7025315e-07
-9.5073074e-09
5.722068e-07
-2.9575003e-08
5.8877545e-07
5.3913292e-07
5.9671672e-08
4.6914072e-07
3.6664987e-08
6.1941765e-07
2.2627218e-08
5.8751033e-07
1.6252595e-08
5.7701083e-07
1.2289535e-08
5.7405515e-07
9.605323e-09
5.723057e-07
7.676611e-09
5.7127831e-07
6.235361e-09
5.7062866e-07
5.125974e-09
5.7018694e-07
4.248375e-09
5.6987782e-07
3.5372273e-09
5.6965584e-07
2.9483598e-09
5.6949279e-07
2.450725e-09
5.6937114e-07
2.0218452e-09
5.6927945e-07
1.6450034e-09
5.6921006e-07
1.3074198e-09
5.6915771e-07
9.9903451e-10
5.6911877e-07
7.1166647e-10
5.6909074e-07
4.3840728e-10
5.6907193e-07
1.7316255e-10
5.6906124e-07
-8.9716884e-11
5.6905808e-07
-3.5575705e-10
5.690623e-07
-6.3067302e-10
5.6907414e-07
-9.2070003e-10
5.6909429e-07
-1.2329802e-09
5.6912396e-07
-1.5760535e-09
5.6916503e-07
-1.9605204e-09
5.6922023e-07
-2.39998e-09
5.6929356e-07
-2.9124186e-09
5.6939088e-07
-3.5223318e-09
5.6952086e-07
-4.2641425e-09
5.6969676e-07
-5.1882196e-09
5.6993984e-07
-6.3711926e-09
5.7028454e-07
-7.9317854e-09
5.7078785e-07
-1.0073227e-08
5.715768e-07
-1.3201656e-08
5.7292746e-07
-1.8131854e-08
5.7518335e-07
-2.8174238e-08
5.8224919e-07
-4.5800623e-08
6.0640183e-07
4.9333229e-07
6.000753e-08
4.0913321e-07
5.0485409e-08
6.2893977e-07
3.3368915e-08
6.0462682e-07
2.4815928e-08
5.8556382e-07
1.9321518e-08
5.7954956e-07
1.5329852e-08
5.7629737e-07
1.235921e-08
5.7424896e-07
1.0100231e-08
5.7288764e-07
8.3395359e-09
5.7194764e-07
6.9339994e-09
5.7128336e-07
5.7875392e-09
5.708023e-07
4.8333866e-09
5.7044695e-07
4.0237729e-09
5.7018075e-07
3.3237087e-09
5.6997952e-07
2.7069262e-09
5.6982684e-07
2.1531885e-09
5.6971144e-07
1.646466e-09
5.6962549e-07
1.1736546e-09
5.6956355e-07
7.2364248e-10
5.6952194e-07
2.8659656e-10
5.6949828e-07
-1.4661458e-10
5.6949129e-07
-5.8492679e-10
5.6950061e-07
-1.0375737e-09
5.6952678e-07
-1.5146067e-09
5.6957132e-07
-2.0274979e-09
5.6963685e-07
-2.5898993e-09
5.6972743e-07
-3.218655e-09
5.6984898e-07
-3.9352118e-09
5.7001012e-07
-4.7676692e-09
5.7022334e-07
-5.7538432e-09
5.7050703e-07
-6.9459252e-09
5.7088884e-07
-8.4181198e-09
5.7141204e-07
-1.0279833e-08
5.7214625e-07
-1.2692946e-08
5.7320096e-07
-1.5890629e-08
5.7477448e-07
-2.0234791e-08
5.7727162e-07
-2.670349e-08
5.8165205e-07
-3.8943131e-08
5.9448883e-07
-4.8163671e-08
6.1562237e-07
4.4516862e-07
5.4877354e-08
3.5425588e-07
5.7449315e-08
6.2636782e-07
4.0464774e-08
6.2161136e-07
3.0776082e-08
5.9525251e-07
2.4640411e-08
5.8568523e-07
1.994977e-08
5.8098801e-07
1.6310611e-08
5.7788811e-07
1.3464469e-08
5.7573378e-07
1.1199222e-08
5.7421288e-07
9.3631629e-09
5.7311942e-07
7.8484001e-09
5.7231706e-07
6.5764407e-09
5.717189e-07
5.4894329e-09
5.7126776e-07
4.5440588e-09
5.7092489e-07
3.7072177e-09
5.7066368e-07
2.9530465e-09
5.7046561e-07
2.2608216e-09
5.7031772e-07
1.6134411e-09
5.7021093e-07
9.9629356e-10
5.7013909e-07
3.9637754e-10
5.700982e-07
-1.9842114e-10
5.7008609e-07
-7.999697e-10
5.7010216e-07
-1.4205094e-09
5.7014732e-07
-2.0733101e-09
5.7022412e-07
-2.7734208e-09
5.7033696e-07
-3.5385973e-09
5.7049261e-07
-4.39051e-09
5.707009e-07
-5.3563761e-09
5.7097598e-07
-6.4712407e-09
5.713382e-07
-7.7812372e-09
5.7181702e-07
-9.3481541e-09
5.7245576e-07
-1.1255821e-08
5.733197e-07
-1.3620512e-08
5.7451094e-07
-1.6603583e-08
5.7618403e-07
-2.0402829e-08
5.7857373e-07
-2.5284931e-08
5.8215372e-07
-3.2509573e-08
5.8887669e-07
-4.5093386e-08
6.0707264e-07
-4.6544443e-08
6.1707342e-07
3.9862418e-07
4.7963731e-08
3.062922e-07
6.0072577e-08
6.1425899e-07
4.5396122e-08
6.362878e-07
3.4871561e-08
6.0577707e-07
2.8396145e-08
5.9216065e-07
2.3416053e-08
5.859681e-07
1.9430987e-08
5.8187318e-07
1.6226197e-08
5.7893857e-07
1.3617161e-08
5.7682192e-07
1.1464465e-08
5.7527212e-07
9.6629768e-09
5.7411855e-07
8.1326494e-09
5.7324923e-07
6.8124527e-09
5.7258795e-07
5.6553671e-09
5.7208198e-07
4.6246094e-09
5.7169444e-07
3.6908855e-09
5.7139934e-07
2.8303483e-09
5.7117825e-07
2.0230599e-09
5.7101822e-07
1.2518067e-09
5.7091034e-07
5.0115458e-10
5.7084885e-07
-2.4334459e-10
5.7083059e-07
-9.9586236e-10
5.7085468e-07
-1.7709844e-09
5.7092244e-07
-2.5844327e-09
5.7103757e-07
-3.4538821e-09
5.7120641e-07
-4.3999434e-09
5.7143867e-07
-5.4474038e-09
5.7174836e-07
-6.6268365e-09
5.7215542e-07
-7.976727e-09
5.7268809e-07
-9.5463475e-09
5.7338665e-07
-1.1399532e-08
5.7430894e-07
-1.3619103e-08
5.7553927e-07
-1.6313372e-08
5.7720521e-07
-1.9625958e-08
5.7949661e-07
-2.3727151e-08
5.8267492e-07
-2.8919817e-08
5.8734638e-07
-3.6780319e-08
5.9673719e-07
-4.8453402e-08
6.1874572e-07
-4.3188072e-08
6.1180809e-07
3.5543611e-07
4.0333723e-08
2.6595853e-07
5.898902e-08
5.9560374e-07
4.8324599e-08
6.4695222e-07
3.7582963e-08
6.1651869e-07
3.0923955e-08
5.9881966e-07
2.5889269e-08
5.9100278e-07
2.177561e-08
5.8598684e-07
1.8388117e-08
5.8232607e-07
1.5574122e-08
5.7963591e-07
1.3211569e-08
5.7763467e-07
1.1204512e-08
5.7612561e-07
9.4776484e-09
5.7497609e-07
7.9718288e-09
5.7409377e-07
6.6401393e-09
5.7341366e-07
5.4449432e-09
5.7288963e-07
4.3556129e-09
5.7248867e-07
3.3467501e-09
5.7218712e-07
2.3967862e-09
5.7196818e-07
1.4868643e-09
5.7182026e-07
5.9991944e-10
5.717358e-07
-2.8011278e-10
5.7171062e-07
-1.1690129e-09
5.7174358e-07
-2.0829805e-09
5.7183641e-07
-3.0393623e-09
5.7199395e-07
-4.0574583e-09
5.7222451e-07
-5.1594674e-09
5.7254067e-07
-6.3716399e-09
5.7296053e-07
-7.7257113e-09
5.7350949e-07
-9.2607003e-09
5.7422308e-07
-1.1025217e-08
5.7515116e-07
-1.3080494e-08
5.7636422e-07
-1.5503809e-08
5.7796259e-07
-1.8392576e-08
5.8009398e-07
-2.1870988e-08
5.8297503e-07
-2.6094857e-08
5.8689879e-07
-3.147354e-08
5.9272507e-07
-3.9639904e-08
6.0490355e-07
-4.9158792e-08
6.2826461e-07
-3.8571085e-08
6.0122039e-07
3.1686502e-07
3.2860095e-08
2.3309852e-07
5.5243755e-08
5.7322016e-07
4.9225024e-08
6.5297095e-07
3.905476e-08
6.2668895e-07
3.2424233e-08
6.0545018e-07
2.7512619e-08
5.959144e-07
2.3432988e-08
5.9006647e-07
1.9997772e-08
5.8576128e-07
1.7090405e-08
5.8254328e-07
1.4608654e-08
5.8011642e-07
1.2468722e-08
5.7826554e-07
1.0603349e-08
5.7684147e-07
8.9582832e-09
5.7573884e-07
7.4893201e-09
5.7488263e-07
6.1601185e-09
5.7421884e-07
4.94044e-09
5.7370835e-07
3.8047074e-09
5.7332285e-07
2.730827e-09
5.7304206e-07
1.6992135e-09
5.7285187e-07
6.91958e-10
5.7274305e-07
-3.0790333e-10
5.7271048e-07
-1.3170638e-09
5.7275274e-07
-2.352612e-09
5.7287196e-07
-3.4327151e-09
5.7307405e-07
-4.5773602e-09
5.7336915e-07
-5.8092019e-09
5.7377252e-07
-7.1545587e-09
5.7430588e-07
-8.6446146e-09
5.7499954e-07
-1.0316868e-08
5.7589533e-07
-1.221691e-08
5.770512e-07
-1.4400809e-08
5.7854812e-07
-1.6938007e-08
5.8049979e-07
-1.9913362e-08
5.8306933e-07
-2.3427675e-08
5.8648934e-07
-2.7622375e-08
5.9109349e-07
-3.3015573e-08
5.9811826e-07
-4.0991748e-08
6.1287973e-07
-4.7670848e-08
6.3494371e-07
-3.336759e-08
5.8691713e-07
2.8349743e-07
2.618611e-08
2.0691251e-07
5.0125184e-08
5.492812e-07
4.8484355e-08
6.5461179e-07
3.948233e-08
6.3569095e-07
3.3069244e-08
6.1186326e-07
2.8404215e-08
6.0057943e-07
2.4485632e-08
5.9398505e-07
2.1111677e-08
5.8913524e-07
1.8201451e-08
5.8545351e-07
1.5675715e-08
5.8264216e-07
1.3465319e-08
5.8047594e-07
1.1513074e-08
5.7879371e-07
9.7714506e-09
5.7748046e-07
8.2006452e-09
5.7645343e-07
6.7671124e-09
5.7565237e-07
5.4422922e-09
5.7503317e-07
4.2015228e-09
5.7456362e-07
3.0231164e-09
5.7422047e-07
1.8875622e-09
5.7398743e-07
7.7682323e-10
5.7385379e-07
-3.2630018e-10
5.7381361e-07
-1.4387662e-09
5.738652e-07
-2.5778842e-09
5.7401108e-07
-3.7619177e-09
5.7425809e-07
-5.0107266e-09
5.7461796e-07
-6.3464824e-09
5.7510827e-07
-7.7944803e-09
5.7575388e-07
-9.3840866e-09
5.7658915e-07
-1.1149846e-08
5.7766109e-07
-1.313275e-08
5.7903411e-07
-1.5381886e-08
5.8079725e-07
-1.7956556e-08
5.8307446e-07
-2.0926234e-08
5.8603901e-07
-2.4366139e-08
5.8992924e-07
-2.8411766e-08
5.9513911e-07
-3.3667885e-08
6.0337438e-07
-4.1038967e-08
6.2025081e-07
-4.4776922e-08
6.3868167e-07
-2.8194874e-08
5.7033508e-07
2.5530256e-07
2.0567714e-08
1.8634492e-07
4.4574324e-08
5.2527475e-07
4.6631456e-08
6.525547e-07
3.914213e-08
6.4318026e-07
3.3073498e-08
6.1793188e-07
2.8707834e-08
6.0494509e-07
2.5029023e-08
5.9766386e-07
2.1795543e-08
5.9236872e-07
1.8952059e-08
5.8829699e-07
1.6442503e-08
5.8515171e-07
1.4213362e-08
5.8270508e-07
1.221844e-08
5.8078863e-07
1.0417942e-08
5.7928096e-07
8.7774935e-09
5.7809388e-07
7.2673239e-09
5.7716254e-07
5.861449e-09
5.7643904e-07
4.536933e-09
5.7588813e-07
3.2732228e-09
5.7548418e-07
2.0515409e-09
5.7520911e-07
8.5432859e-10
5.75051e-07
-3.3527409e-10
5.7500321e-07
-1.5339246e-09
5.7506385e-07
-2.7585751e-09
5.7523573e-07
-4.0269734e-09
5.7552648e-07
-5.3581879e-09
5.7594918e-07
-6.7731731e-09
5.7652326e-07
-8.2953869e-09
5.772761e-07
-9.9514756e-09
5.7824524e-07
-1.177204e-08
5.7948166e-07
-1.379243e-08
5.810545e-07
-1.6053655e-08
5.8305848e-07
-1.8603583e-08
5.8562438e-07
-2.1495347e-08
5.8893077e-07
-2.4782993e-08
5.9321689e-07
-2.8612627e-08
5.9896875e-07
-3.3630965e-08
6.0839272e-07
-4.0114894e-08
6.2673474e-07
-4.1135077e-08
6.3970185e-07
-2.3406289e-08
5.5260629e-07
2.3189627e-07
1.6011952e-08
1.703331e-07
3.9133578e-08
5.0215335e-07
4.4104549e-08
6.475838e-07
3.8275843e-08
6.4900894e-07
3.2641072e-08
6.2356664e-07
2.8579485e-08
6.0900668e-07
2.5172294e-08
6.0107106e-07
2.2125704e-08
5.9541531e-07
1.9395816e-08
5.9102688e-07
1.694655e-08
5.8760098e-07
1.4738914e-08
5.8491271e-07
1.2737292e-08
5.8279025e-07
1.0909754e-08
5.811085e-07
9.2277603e-09
5.7977587e-07
7.6658156e-09
5.7872448e-07
6.2010521e-09
5.779038e-07
4.8128016e-09
5.7727638e-07
3.4821687e-09
5.7681481e-07
2.1916095e-09
5.7649967e-07
9.2452334e-10
5.7631809e-07
-3.3514407e-10
5.7626288e-07
-1.6032871e-09
5.76332e-07
-2.8960327e-09
5.7652847e-07
-4.2301297e-09
5.7686058e-07
-5.6233494e-09
5.773424e-07
-7.0948994e-09
5.7799481e-07
-8.6658507e-09
5.7884705e-07
-1.0359577e-08
5.7993896e-07
-1.2202207e-08
5.8132429e-07
-1.4223051e-08
5.8307534e-07
-1.6454955e-08
5.8529038e-07
-1.8934694e-08
5.8810412e-07
-2.1700437e-08
5.9169652e-07
-2.4792686e-08
5.9630914e-07
-2.8380098e-08
6.0255616e-07
-3.3089136e-08
6.1310176e-07
-3.8514455e-08
6.3216006e-07
-3.7187779e-08
6.3837517e-07
-1.917119e-08
5.345897e-07
2.1272508e-07
1.2419849e-08
1.5791342e-07
3.4102017e-08
4.8047147e-07
4.1232818e-08
6.4045312e-07
3.7061584e-08
6.5318015e-07
3.1926042e-08
6.2870216e-07
2.8153842e-08
6.1277887e-07
2.5019031e-08
6.0420587e-07
2.2179364e-08
5.9825497e-07
1.958978e-08
5.9361646e-07
1.722967e-08
5.8996109e-07
1.507238e-08
5.8707e-07
1.3091577e-08
5.8477106e-07
1.1262604e-08
5.8293747e-07
9.5625818e-09
5.814759e-07
7.9703699e-09
5.8031669e-07
6.4664318e-09
5.7940774e-07
5.032657e-09
5.7871016e-07
3.6521345e-09
5.7819534e-07
2.308896e-09
5.7784291e-07
9.8764664e-10
5.7763934e-07
-3.2651309e-10
5.7757704e-07
-1.6483652e-09
5.7765385e-07
-2.9928606e-09
5.7787297e-07
-4.3754e-09
5.7824312e-07
-5.8121114e-09
5.7877911e-07
-7.3201246e-09
5.7950282e-07
-8.91783e-09
5.8044475e-07
-1.0625111e-08
5.8164624e-07
-1.2463551e-08
5.8316273e-07
-1.4456597e-08
5.8506838e-07
-1.6629591e-08
5.8746337e-07
-1.9009447e-08
5.9048398e-07
-2.1621697e-08
5.9430877e-07
-2.450054e-08
5.9918798e-07
-2.7840164e-08
6.0589578e-07
-3.2185043e-08
6.1744664e-07
-3.6479762e-08
6.3645477e-07
-3.3236255e-08
6.3513167e-07
-1.5551208e-08
5.1690466e-07
1.9717387e-07
9.6527747e-09
1.4826084e-07
2.9631922e-08
4.6049268e-07
3.826288e-08
6.3182234e-07
3.5637475e-08
6.5580555e-07
3.1039524e-08
6.3330007e-07
2.7535211e-08
6.1628318e-07
2.4655751e-08
6.0708533e-07
2.2025249e-08
6.0088547e-07
1.9587777e-08
5.9605393e-07
1.7333335e-08
5.9221553e-07
1.5245285e-08
5.8915805e-07
1.3305023e-08
5.8671132e-07
1.149419e-08
5.8474831e-07
9.795032e-09
5.8317505e-07
8.1905173e-09
5.8192121e-07
6.6643957e-09
5.8093386e-07
5.2011915e-09
5.8017336e-07
3.7861295e-09
5.796104e-07
2.4050135e-09
5.7922402e-07
1.0440755e-09
5.7900028e-07
-3.1019482e-10
5.7893131e-07
-1.6712292e-09
5.7901488e-07
-3.0525683e-09
5.7925431e-07
-4.4680421e-09
5.7965859e-07
-5.9319395e-09
5.80243e-07
-7.4591607e-09
5.8103004e-07
-9.0653401e-09
5.8205093e-07
-1.0766922e-08
5.8334782e-07
-1.2581188e-08
5.8497699e-07
-1.4526254e-08
5.8701345e-07
-1.6620886e-08
5.8955801e-07
-1.8883597e-08
5.9274669e-07
-2.1329937e-08
5.9675511e-07
-2.3994005e-08
6.0185205e-07
-2.7091611e-08
6.0899339e-07
-3.103679e-08
6.2139182e-07
-3.4214902e-08
6.3963289e-07
-2.9485589e-08
6.3040235e-07
-1.2541665e-08
4.9996073e-07
1.8463221e-07
7.5619009e-09
1.4069916e-07
2.5770932e-08
4.4228409e-07
3.536556e-08
6.2222796e-07
3.4113321e-08
6.5705779e-07
3.0064443e-08
6.3734891e-07
2.6803517e-08
6.1954409e-07
2.4152079e-08
6.0973677e-07
2.1721084e-08
6.0331647e-07
1.9437037e-08
5.9833798e-07
1.7295556e-08
5.9435701e-07
1.5287731e-08
5.9116588e-07
1.3401155e-08
5.8859789e-07
1.1622683e-08
5.8652678e-07
9.9389703e-09
5.8485877e-07
8.336667e-09
5.8352351e-07
6.8025859e-09
5.8246794e-07
5.3238023e-09
5.8165214e-07
3.8876876e-09
5.8104651e-07
2.4818894e-09
5.8062982e-07
1.0942763e-09
5.8038789e-07
-2.8714364e-10
5.8031273e-07
-1.6743158e-09
5.8040205e-07
-3.0792418e-09
5.8065923e-07
-4.5140728e-09
5.8109342e-07
-5.9911886e-09
5.8172012e-07
-7.5232523e-09
5.825621e-07
-9.1232291e-09
5.8365091e-07
-1.0804351e-08
5.8502895e-07
-1.2580026e-08
5.8675267e-07
-1.4463721e-08
5.8889714e-07
-1.6468654e-08
5.9156294e-07
-1.8606459e-08
5.9488449e-07
-2.088569e-08
5.9903434e-07
-2.3345438e-08
6.043118e-07
-2.6214717e-08
6.1186267e-07
-2.9745381e-08
6.2492248e-07
-3.1881467e-08
6.4176897e-07
-2.6058073e-08
6.2457896e-07
-1.0095881e-08
4.8399854e-07
1.7453632e-07
6.0066492e-09
1.3469278e-07
2.2497245e-08
4.2579404e-07
3.2642677e-08
6.1208287e-07
3.256951e-08
6.5713099e-07
2.9060819e-08
6.4085755e-07
2.6018857e-08
6.2258603e-07
2.3563286e-08
6.1219234e-07
2.1314391e-08
6.0556536e-07
1.91777e-08
6.0047467e-07
1.7149726e-08
5.9638498e-07
1.5227057e-08
5.9308854e-07
1.3402032e-08
5.9042292e-07
1.1665632e-08
5.8826318e-07
1.0008151e-08
5.8651625e-07
8.4194062e-09
5.8511226e-07
6.8889446e-09
5.8399841e-07
5.4062025e-09
5.8313489e-07
3.9606049e-09
5.8249211e-07
2.5416178e-09
5.8204881e-07
1.1387632e-09
5.8179074e-07
-2.5839127e-10
5.8170988e-07
-1.6602571e-09
5.8180392e-07
-3.0772572e-09
5.8207623e-07
-4.5198493e-09
5.8253602e-07
-5.998534e-09
5.831988e-07
-7.5238351e-09
5.840874e-07
-9.1062443e-09
5.8523332e-07
-1.0756115e-08
5.8667882e-07
-1.2483503e-08
5.8848006e-07
-1.429799e-08
5.9071163e-07
-1.6208302e-08
5.9347325e-07
-1.8220784e-08
5.9689698e-07
-2.0340066e-08
6.0115362e-07
-2.2613766e-08
6.065855e-07
-2.5272984e-08
6.1452188e-07
-2.8391342e-08
6.2804084e-07
-2.9593592e-08
6.4297122e-07
-2.3008919e-08
6.1799429e-07
-8.1453855e-09
4.69135e-07
1.6639094e-07
4.8643131e-09
1.2982878e-07
1.9752289e-08
4.1090672e-07
3.0142464e-08
6.0169314e-07
3.1058329e-08
6.562152e-07
2.8068076e-08
6.4384775e-07
2.5223447e-08
6.2543063e-07
2.2931431e-08
6.1448435e-07
2.0843157e-08
6.0765364e-07
1.8842985e-08
6.0247484e-07
1.692435e-08
5.9830362e-07
1.5087286e-08
5.9492561e-07
1.3327569e-08
5.9218264e-07
1.1639287e-08
5.8995146e-07
1.001561e-08
5.8813992e-07
8.4489791e-09
5.8667889e-07
6.9312968e-09
5.8551609e-07
5.4541057e-09
5.8461208e-07
4.0087227e-09
5.8393749e-07
2.586335e-09
5.8347119e-07
1.1780644e-09
5.8319901e-07
-2.2499218e-10
5.8311294e-07
-1.631735e-09
5.8321066e-07
-3.05104e-09
5.8349554e-07
-4.4917296e-09
5.8397671e-07
-5.9625276e-09
5.846696e-07
-7.4719887e-09
5.8559687e-07
-9.0283956e-09
5.8678972e-07
-1.0639615e-08
5.8829004e-07
-1.2312915e-08
5.9015335e-07
-1.4054772e-08
5.9245349e-07
-1.5870453e-08
5.9528893e-07
-1.7762538e-08
5.9878906e-07
-1.9734538e-08
6.0312562e-07
-2.1844314e-08
6.0869527e-07
-2.4313063e-08
6.1699063e-07
-2.7033348e-08
6.3076112e-07
-2.7423321e-08
6.4336119e-07
-2.0347445e-08
6.1091841e-07
-6.6145114e-09
4.5540207e-07
1.5977643e-07
4.0325315e-09
1.2579663e-07
1.7463568e-08
3.9747647e-07
2.7878843e-08
5.9127843e-07
2.9610351e-08
6.5448381e-07
2.7109339e-08
6.463487e-07
2.4444397e-08
6.2809554e-07
2.2286586e-08
6.1664216e-07
2.0336394e-08
6.0960383e-07
1.8459404e-08
6.0435183e-07
1.6643005e-08
6.0012002e-07
1.48889e-08
5.9667971e-07
1.3195196e-08
5.9387634e-07
1.1558202e-08
5.9158845e-07
9.9732686e-09
5.8972486e-07
8.4349278e-09
5.8821723e-07
6.9370463e-09
5.8701397e-07
5.4729883e-09
5.8607613e-07
4.0357592e-09
5.8537472e-07
2.6181227e-09
5.8488883e-07
1.2126956e-09
5.8460444e-07
-1.879785e-10
5.8451361e-07
-1.5913646e-09
5.8461405e-07
-3.0048769e-09
5.8490905e-07
-4.4358123e-09
5.8540764e-07
-5.8912702e-09
5.8612506e-07
-7.3780513e-09
5.8708365e-07
-8.9025299e-09
5.883142e-07
-1.0470499e-08
5.8985801e-07
-1.2086996e-08
5.9176985e-07
-1.3756126e-08
5.9412262e-07
-1.5480628e-08
5.9701343e-07
-1.7260685e-08
6.0056912e-07
-1.9100985e-08
6.0496592e-07
-2.106971e-08
6.10664e-07
-2.3366849e-08
6.1928777e-07
-2.5711079e-08
6.3310535e-07
-2.5410348e-08
6.4306046e-07
-1.8055079e-08
6.0356314e-07
-5.4288759e-09
4.4277587e-07
1.5434755e-07
3.4286285e-09
1.2236844e-07
1.5557252e-08
3.8534879e-07
2.584516e-08
5.8099124e-07
2.8240932e-08
6.5208823e-07
2.6196399e-08
6.4839318e-07
2.3697515e-08
6.3059437e-07
2.1648984e-08
6.1869068e-07
1.981525e-08
6.1143757e-07
1.804731e-08
6.0611977e-07
1.6324536e-08
6.0184279e-07
1.4648821e-08
5.9835543e-07
1.301972e-08
5.9550544e-07
1.1435039e-08
5.9317313e-07
9.8917057e-09
5.9126819e-07
8.3858658e-09
5.8972307e-07
6.9129734e-09
5.8848686e-07
5.467924e-09
5.8752118e-07
4.0451892e-09
5.8679745e-07
2.6389374e-09
5.8629508e-07
1.243142e-09
5.8600023e-07
-1.4832517e-10
5.8590508e-07
-1.5416069e-09
5.8600733e-07
-2.9427771e-09
5.8631022e-07
-4.3577511e-09
5.8682261e-07
-5.7921861e-09
5.8755949e-07
-7.2513647e-09
5.8854282e-07
-8.7400619e-09
5.898029e-07
-1.0262398e-08
5.9138034e-07
-1.1821693e-08
5.9332915e-07
-1.3420324e-08
5.9572125e-07
-1.5059296e-08
5.986524e-07
-1.6737563e-08
6.0224739e-07
-1.8462727e-08
6.0669108e-07
-2.0312082e-08
6.1251335e-07
-2.245474e-08
6.2143043e-07
-2.444931e-08
6.3509992e-07
-2.3571444e-08
6.421826e-07
-1.6097801e-08
5.960895e-07
-4.5200618e-09
4.3119813e-07
1.4982749e-07
2.9879737e-09
1.1938099e-07
1.3964857e-08
3.7437301e-07
2.4023515e-08
5.7093347e-07
2.6955164e-08
6.4915685e-07
2.533356e-08
6.5001472e-07
2.2990735e-08
6.3293714e-07
2.10314e-08
6.2065e-07
1.9294527e-08
6.1317444e-07
1.7621814e-08
6.0779249e-07
1.5983559e-08
6.0348105e-07
1.4380644e-08
5.9995834e-07
1.281338e-08
5.970727e-07
1.1280514e-08
5.94706e-07
9.7800604e-09
5.9276864e-07
8.3093608e-09
5.9119377e-07
6.8651174e-09
5.899311e-07
5.4434818e-09
5.8894282e-07
4.0401678e-09
5.8820077e-07
2.6505651e-09
5.8768468e-07
1.2698475e-09
5.8738095e-07
-1.0692482e-10
5.8728185e-07
-1.4847081e-09
5.8738511e-07
-2.8683794e-09
5.8769389e-07
-4.2626352e-09
5.8821687e-07
-5.6718842e-09
5.8896874e-07
-7.10013e-09
5.8997107e-07
-8.5508443e-09
5.9125361e-07
-1.0026843e-08
5.9285634e-07
-1.1530176e-08
5.9483248e-07
-1.306203e-08
5.972531e-07
-1.4622328e-08
6.002127e-07
-1.6209767e-08
6.0383482e-07
-1.7836038e-08
6.0831735e-07
-1.9585421e-08
6.1426273e-07
-2.1588498e-08
6.234335e-07
-2.3261441e-08
6.3677286e-07
-2.1907715e-08
6.4082887e-07
-1.4434537e-08
5.8861632e-07
-3.8281687e-09
4.2059176e-07
1.4599932e-07
2.6617295e-09
1.1671987e-07
1.2626622e-08
3.6440943e-07
2.239112e-08
5.6117007e-07
2.5751621e-08
6.4579672e-07
2.4520344e-08
6.5124596e-07
2.2326676e-08
6.3513073e-07
2.044116e-08
6.225355e-07
1.8784124e-08
6.1483148e-07
1.7193789e-08
6.0938282e-07
1.5631109e-08
6.0504373e-07
1.4095019e-08
6.0149443e-07
1.2586057e-08
5.9858167e-07
1.1103494e-08
5.9618856e-07
9.6460436e-09
5.9422609e-07
8.2119038e-09
5.926279e-07
6.7987291e-09
5.9134428e-07
5.4036766e-09
5.9033787e-07
4.0234899e-09
5.8958095e-07
2.6545968e-09
5.8905358e-07
1.2932102e-09
5.8874234e-07
-6.4571196e-11
5.8863963e-07
-1.4226635e-09
5.887432e-07
-2.7848995e-09
5.8905613e-07
-4.1549253e-09
5.8958689e-07
-5.536095e-09
5.9034991e-07
-6.9313603e-09
5.9136634e-07
-8.3431609e-09
5.9266541e-07
-9.7733287e-09
5.9428651e-07
-1.1223024e-08
5.9628217e-07
-1.269267e-08
5.9872275e-07
-1.4181633e-08
6.0170166e-07
-1.5689124e-08
6.0534232e-07
-1.7231583e-08
6.0985981e-07
-1.8897555e-08
6.1592871e-07
-2.077351e-08
6.2530946e-07
-2.2152517e-08
6.3815187e-07
-2.0410394e-08
6.3908675e-07
-1.3022749e-08
5.8122867e-07
-3.3027908e-09
4.108718e-07
1.4269653e-07
2.4141555e-09
1.1430643e-07
1.1492613e-08
3.553325e-07
2.0924378e-08
5.5173963e-07
2.4625249e-08
6.4209636e-07
2.3753487e-08
6.521177e-07
2.1704531e-08
6.3717959e-07
1.9881702e-08
6.243583e-07
1.8290237e-08
6.1642294e-07
1.677077e-08
6.1090229e-07
1.5275294e-08
6.065392e-07
1.3800097e-08
6.0296963e-07
1.234555e-08
6.0003621e-07
1.0911152e-08
5.9762296e-07
9.4960241e-09
5.9564122e-07
8.0989454e-09
5.9402498e-07
6.7182765e-09
5.9272495e-07
5.3519609e-09
5.9170419e-07
3.9975781e-09
5.9093534e-07
2.6524204e-09
5.9039873e-07
1.3135817e-09
5.9008118e-07
-2.1949967e-11
5.8997516e-07
-1.3572e-09
5.9007845e-07
-2.6951088e-09
5.9039403e-07
-4.0384369e-09
5.9093022e-07
-5.3896673e-09
5.9170114e-07
-6.7509082e-09
5.9272758e-07
-8.1238058e-09
5.9403831e-07
-9.5094801e-09
5.9567218e-07
-1.0908505e-08
5.976812e-07
-1.2320878e-08
6.0013512e-07
-1.3745806e-08
6.0312659e-07
-1.5183609e-08
6.0678012e-07
-1.6655668e-08
6.1133187e-07
-1.8251779e-08
6.1752482e-07
-2.0010665e-08
6.2706834e-07
-2.1121897e-08
6.392631e-07
-1.9065367e-08
6.3703022e-07
-1.1822235e-08
5.7398554e-07
-2.9029192e-09
4.0195248e-07
1.3979361e-07
2.2198713e-09
1.120874e-07
1.0522357e-08
3.4703181e-07
1.9601177e-08
5.4266241e-07
2.3569415e-08
6.3812879e-07
2.3028414e-08
6.5265871e-07
2.1121496e-08
6.3908641e-07
1.9353826e-08
6.2612593e-07
1.7816349e-08
6.1796042e-07
1.6357727e-08
6.1236091e-07
1.4921877e-08
6.0797505e-07
1.3501959e-08
6.0438954e-07
1.2097886e-08
6.0144029e-07
1.0709179e-08
5.9901167e-07
9.3351588e-09
5.9701524e-07
7.9749727e-09
5.9538517e-07
6.627487e-09
5.9407243e-07
5.2912455e-09
5.9304043e-07
3.9644919e-09
5.9226209e-07
2.645225e-09
5.91718e-07
1.3312702e-09
5.9139513e-07
2.0361338e-11
5.9128607e-07
-1.2897768e-09
5.9138859e-07
-2.6013397e-09
5.917056e-07
-3.9163572e-09
5.9224524e-07
-5.2366084e-09
5.9302139e-07
-6.5635422e-09
5.9405451e-07
-7.8982142e-09
5.9537298e-07
-9.2412551e-09
5.9701522e-07
-1.0592889e-08
5.9903283e-07
-1.1952938e-08
6.0149517e-07
-1.3320747e-08
6.044944e-07
-1.4698165e-08
6.0815754e-07
-1.6111343e-08
6.1274505e-07
-1.7648248e-08
6.1906172e-07
-1.9297938e-08
6.2871803e-07
-2.0165453e-08
6.4013062e-07
-1.7856315e-08
6.3472108e-07
-1.0797085e-08
5.6692631e-07
-2.5960996e-09
3.937515e-07
1.3719751e-07
2.0613903e-09
1.1002698e-07
9.6837221e-09
3.3941158e-07
1.8401931e-08
5.3394612e-07
2.2577185e-08
6.3395439e-07
2.2340215e-08
6.5289574e-07
2.0573788e-08
6.4085272e-07
1.8856657e-08
6.2784301e-07
1.7364031e-08
6.1945304e-07
1.5957714e-08
6.1376723e-07
1.4574794e-08
6.0935797e-07
1.3205013e-08
6.0575932e-07
1.1847609e-08
6.0279769e-07
1.0501995e-08
6.0035728e-07
9.1675414e-09
5.9834969e-07
7.8436098e-09
5.967091e-07
6.5294128e-09
5.9538663e-07
5.22394e-09
5.943459e-07
3.925952e-09
5.9356008e-07
2.634013e-09
5.9300994e-07
1.3465451e-09
5.926826e-07
6.1894898e-11
5.9257072e-07
-1.2215945e-09
5.9267208e-07
-2.5055083e-09
5.9298951e-07
-3.7912859e-09
5.9353102e-07
-5.080151e-09
5.9431026e-07
-6.3730515e-09
5.9534741e-07
-7.6706199e-09
5.9667055e-07
-8.9731736e-09
5.9831778e-07
-1.0280766e-08
6.0034042e-07
-1.1593216e-08
6.0280762e-07
-1.2910227e-08
6.0581141e-07
-1.423545e-08
6.0948276e-07
-1.5599345e-08
6.1410894e-07
-1.7085087e-08
6.2054746e-07
-1.8631605e-08
6.3026455e-07
-1.9277174e-08
6.4077619e-07
-1.6766653e-08
6.3221056e-07
-9.9162011e-09
5.6007586e-07
-2.3572185e-09
3.8619251e-07
1.3484029e-07
1.9270399e-09
1.0810107e-07
8.9515661e-09
3.3238949e-07
1.7309873e-08
5.2559008e-07
2.164203e-08
6.2962331e-07
2.1684214e-08
6.5285367e-07
2.005732e-08
6.4247948e-07
1.8388352e-08
6.2951191e-07
1.693357e-08
6.2090781e-07
1.55724e-08
6.151284e-07
1.4236593e-08
6.1069378e-07
1.2912347e-08
6.0708357e-07
1.159806e-08
6.0411198e-07
1.0292953e-08
6.0166239e-07
8.9963561e-09
5.9964629e-07
7.7077287e-09
5.9799773e-07
6.4265078e-09
5.9666785e-07
5.1520043e-09
5.956204e-07
3.8833719e-09
5.9482871e-07
2.619618e-09
5.9427369e-07
1.3596412e-09
5.9394257e-07
1.0228275e-10
5.9382808e-07
-1.1536157e-09
5.9392798e-07
-2.4091492e-09
5.9424504e-07
-3.6652909e-09
5.9478716e-07
-4.922837e-09
5.955678e-07
-6.1823661e-09
5.9660694e-07
-7.4442231e-09
5.9793241e-07
-8.7085463e-09
5.995821e-07
-9.9753454e-09
6.0160722e-07
-1.1244558e-08
6.0407683e-07
-1.2516393e-08
6.0708324e-07
-1.3796458e-08
6.1076282e-07
-1.5118851e-08
6.1543133e-07
-1.6559226e-08
6.2198784e-07
-1.8007109e-08
6.3171243e-07
-1.8450282e-08
6.4121936e-07
-1.5780715e-08
6.2954099e-07
-9.1534188e-09
5.5344856e-07
-2.1673017e-09
3.792064e-07
1.3267299e-07
1.8092763e-09
1.0629309e-07
8.3063796e-09
3.2589521e-07
1.6310937e-08
5.1758821e-07
2.0758157e-08
6.2517744e-07
2.1056253e-08
6.5255578e-07
1.9568098e-08
6.439675e-07
1.794657e-08
6.3113335e-07
1.6524428e-08
6.2232994e-07
1.5202484e-08
6.1645035e-07
1.3908796e-08
6.1198747e-07
1.2626029e-08
6.0836634e-07
1.1351617e-08
6.0538639e-07
1.0084538e-08
6.0292947e-07
8.8240259e-09
6.009068e-07
7.5695593e-09
5.9925219e-07
6.3207078e-09
5.979167e-07
5.0770046e-09
5.9686411e-07
3.8378941e-09
5.9606782e-07
2.6027236e-09
5.9550886e-07
1.3707645e-09
5.9517453e-07
1.4124837e-10
5.9505759e-07
-1.0865889e-09
5.9515581e-07
-2.313458e-09
5.9547191e-07
-3.5399719e-09
5.9601367e-07
-4.7666075e-09
5.9679444e-07
-5.9936818e-09
5.9783401e-07
-7.2213577e-09
5.9916008e-07
-8.4496937e-09
6.0081043e-07
-9.6787433e-09
6.0283627e-07
-1.090864e-08
6.0530673e-07
-1.2140196e-08
6.083148e-07
-1.3381026e-08
6.1200365e-07
-1.4668056e-08
6.1671836e-07
-1.6067002e-08
6.2338678e-07
-1.741965e-08
6.3306508e-07
-1.7677965e-08
6.4147767e-07
-1.4884383e-08
6.2674741e-07
-8.4871837e-09
5.4705136e-07
-2.0123474e-09
3.7273156e-07
1.3066064e-07
1.7033768e-09
1.0459122e-07
7.7330641e-09
3.1986879e-07
1.5393444e-08
5.0993099e-07
1.9920596e-08
6.2065196e-07
2.04528e-08
6.5202389e-07
1.9102443e-08
6.4531771e-07
1.7528794e-08
6.327069e-07
1.6135567e-08
6.2372315e-07
1.4848002e-08
6.1773792e-07
1.359218e-08
6.1324329e-07
1.2347354e-08
6.0961116e-07
1.1109904e-08
6.0662384e-07
9.878534e-09
6.0416083e-07
8.6523485e-09
6.0213299e-07
7.4307957e-09
6.0047375e-07
6.2135099e-09
5.9913399e-07
5.0001697e-09
5.9807745e-07
3.7904274e-09
5.9727756e-07
2.5838844e-09
5.9671541e-07
1.3800965e-09
5.9637832e-07
1.7859658e-10
5.9625909e-07
-1.0210752e-09
5.9635549e-07
-2.2193351e-09
5.9667017e-07
-3.4165263e-09
5.9721086e-07
-4.6128944e-09
5.9799081e-07
-5.8085811e-09
5.990297e-07
-7.0036476e-09
6.0035515e-07
-8.1981436e-09
6.0200493e-07
-9.3922218e-09
6.0403035e-07
-1.0586256e-08
6.0650076e-07
-1.1781728e-08
6.0951027e-07
-1.2988221e-08
6.1321015e-07
-1.4244595e-08
6.1797474e-07
-1.5604564e-08
6.2474675e-07
-1.6864569e-08
6.3432509e-07
-1.6953818e-08
6.4156692e-07
-1.4065325e-08
6.2385892e-07
-7.9000131e-09
5.4088605e-07
-1.8822506e-09
3.667138e-07
1.2877839e-07
1.6064685e-09
1.0298648e-07
7.219898e-09
3.1425913e-07
1.4547716e-08
5.0260686e-07
1.9125161e-08
6.1607654e-07
1.9870945e-08
6.5127855e-07
1.8657088e-08
6.4653142e-07
1.7132515e-08
6.3423135e-07
1.5765672e-08
6.2508996e-07
1.4508556e-08
6.1899503e-07
1.3286993e-08
6.1446486e-07
1.2077044e-08
6.1082111e-07
1.0873967e-08
6.0782691e-07
9.6761701e-09
6.0535863e-07
8.4826166e-09
6.0332654e-07
7.2926915e-09
6.0166367e-07
6.1060457e-09
6.0032063e-07
4.9224448e-09
5.9926105e-07
3.7416829e-09
5.9845832e-07
2.5635451e-09
5.9789354e-07
1.3877984e-09
5.9755407e-07
2.142019e-10
5.9743269e-07
-9.574757e-10
5.9752716e-07
-2.1274316e-09
5.9784013e-07
-3.2958133e-09
5.9837924e-07
-4.4627069e-09
5.991577e-07
-5.6281456e-09
6.0019514e-07
-6.7921482e-09
6.0151915e-07
-7.9548039e-09
6.0316759e-07
-9.116397e-09
6.0519194e-07
-1.0277565e-08
6.0766193e-07
-1.1440493e-08
6.106732e-07
-1.2616633e-08
6.1438629e-07
-1.3845846e-08
6.1920395e-07
-1.5168146e-08
6.2606905e-07
-1.6337568e-08
6.3549451e-07
-1.6272072e-08
6.4150143e-07
-1.3312994e-08
6.2089984e-07
-7.3778836e-09
5.3495094e-07
-1.7698727e-09
3.6110579e-07
1.2700852e-07
1.5168401e-09
1.0147164e-07
6.7577043e-09
3.090226e-07
1.3765697e-08
4.9560317e-07
1.8368337e-08
6.1147636e-07
1.9308331e-08
6.5033918e-07
1.8229199e-08
6.4761043e-07
1.6755344e-08
6.3570506e-07
1.5413299e-08
6.2643197e-07
1.4183473e-08
6.2022486e-07
1.2993116e-08
6.1565522e-07
1.1815401e-08
6.1199883e-07