/*--------------------------------*- C++ -*----------------------------------*\
  =========                 |
  \\      /  F ield         | OpenFOAM: The Open Source CFD Toolbox
   \\    /   O peration     | Website:  https://openfoam.org
    \\  /    A nd           | Version:  10
     \\/     M anipulation  |
\*---------------------------------------------------------------------------*/
FoamFile
{
    format      ascii;
    class       surfaceScalarField;
    location    "0.18";
    object      phi_0;
}
// * * * * * * * * * * * * * * * * * * * * * * * * * * * * * * * * * * * * * //

dimensions      [1 0 -1 0 0 0 0];

internalField   nonuniform List<scalar> 
7860
(
3.9895617e-08
5.2881241e-07
1.2192447e-08
5.9641097e-07
7.4276236e-09
5.7347256e-07
5.4991109e-09
5.7063621e-07
4.1146868e-09
5.7009209e-07
3.2008461e-09
5.6962149e-07
2.5588736e-09
5.693496e-07
2.0790758e-09
5.6918741e-07
1.7091237e-09
5.6907756e-07
1.4164929e-09
5.6900022e-07
1.1793872e-09
5.6894469e-07
9.8304302e-10
5.6890392e-07
8.171161e-10
5.688735e-07
6.7411547e-10
5.6885057e-07
5.4846719e-10
5.6883321e-07
4.3590986e-10
5.6882012e-07
3.3308902e-10
5.6881038e-07
2.3727659e-10
5.6880337e-07
1.4616879e-10
5.6879866e-07
5.7733722e-11
5.6879599e-07
-2.9912236e-11
5.687952e-07
-1.1861199e-10
5.6879626e-07
-2.1027296e-10
5.6879922e-07
-3.069734e-10
5.6880426e-07
-4.1109493e-10
5.6881168e-07
-5.2548543e-10
5.6882195e-07
-6.5367972e-10
5.6883576e-07
-8.0021256e-10
5.688541e-07
-9.7107911e-10
5.6887844e-07
-1.1744418e-09
5.6891094e-07
-1.4218031e-09
5.6895495e-07
-1.729976e-09
5.6901577e-07
-2.1239404e-09
5.6910157e-07
-2.6435797e-09
5.6922725e-07
-3.3713087e-09
5.6943536e-07
-4.4626906e-09
5.6979903e-07
-6.0081737e-09
5.7025316e-07
-9.5072755e-09
5.7220681e-07
-2.9574965e-08
5.8877544e-07
5.3913296e-07
5.9671626e-08
4.6914079e-07
3.6664932e-08
6.1941766e-07
2.2627164e-08
5.8751033e-07
1.6252539e-08
5.7701084e-07
1.2289477e-08
5.7405516e-07
9.6052659e-09
5.723057e-07
7.6765559e-09
5.7127831e-07
6.2353093e-09
5.7062866e-07
5.1259269e-09
5.7018694e-07
4.2483337e-09
5.6987782e-07
3.5371927e-09
5.6965583e-07
2.948333e-09
5.6949278e-07
2.4507067e-09
5.6937113e-07
2.0218362e-09
5.6927944e-07
1.6450043e-09
5.6921004e-07
1.307431e-09
5.6915769e-07
9.9905644e-10
5.6911875e-07
7.1169944e-10
5.6909073e-07
4.3845145e-10
5.6907191e-07
1.7321798e-10
5.6906122e-07
-8.9650294e-11
5.6905807e-07
-3.5567949e-10
5.6906228e-07
-6.3058479e-10
5.6907412e-07
-9.2060164e-10
5.6909427e-07
-1.2328722e-09
5.6912395e-07
-1.5759367e-09
5.6916502e-07
-1.9603955e-09
5.6922022e-07
-2.3998481e-09
5.6929355e-07
-2.9122808e-09
5.6939087e-07
-3.5221895e-09
5.6952085e-07
-4.263997e-09
5.6969675e-07
-5.1880727e-09
5.6993984e-07
-6.3710462e-09
5.7028454e-07
-7.9316417e-09
5.7078785e-07
-1.0073088e-08
5.715768e-07
-1.3201526e-08
5.7292747e-07
-1.8131736e-08
5.7518337e-07
-2.8174125e-08
5.822492e-07
-4.5800528e-08
6.0640184e-07
4.9333243e-07
6.000746e-08
4.0913335e-07
5.0485307e-08
6.2893981e-07
3.3368817e-08
6.0462682e-07
2.4815828e-08
5.8556383e-07
1.9321416e-08
5.7954957e-07
1.5329752e-08
5.7629736e-07
1.2359113e-08
5.7424895e-07
1.010014e-08
5.7288763e-07
8.3394529e-09
5.7194762e-07
6.9339264e-09
5.7128334e-07
5.7874778e-09
5.7080228e-07
4.8333385e-09
5.7044692e-07
4.0237395e-09
5.7018072e-07
3.3236913e-09
5.6997949e-07
2.7069257e-09
5.6982681e-07
2.1532059e-09
5.6971141e-07
1.6465019e-09
5.6962546e-07
1.1737096e-09
5.6956352e-07
7.2371673e-10
5.695219e-07
2.8669024e-10
5.6949825e-07
-1.4650163e-10
5.6949126e-07
-5.8479485e-10
5.6950058e-07
-1.0374233e-09
5.6952675e-07
-1.5144387e-09
5.6957129e-07
-2.0273132e-09
5.6963682e-07
-2.5896993e-09
5.697274e-07
-3.218441e-09
5.6984896e-07
-3.9349855e-09
5.700101e-07
-4.7674326e-09
5.7022332e-07
-5.7535986e-09
5.7050701e-07
-6.945675e-09
5.7088883e-07
-8.4178668e-09
5.7141203e-07
-1.027958e-08
5.7214625e-07
-1.2692697e-08
5.7320097e-07
-1.5890389e-08
5.747745e-07
-2.0234564e-08
5.7727164e-07
-2.6703279e-08
5.8165208e-07
-3.8942924e-08
5.9448884e-07
-4.8163519e-08
6.1562244e-07
4.4516891e-07
5.4877262e-08
3.5425611e-07
5.744916e-08
6.2636792e-07
4.0464621e-08
6.2161135e-07
3.0775932e-08
5.9525251e-07
2.4640259e-08
5.8568524e-07
1.994962e-08
5.80988e-07
1.6310466e-08
5.778881e-07
1.3464333e-08
5.7573376e-07
1.1199098e-08
5.7421286e-07
9.3630533e-09
5.7311939e-07
7.8483075e-09
5.7231703e-07
6.5763675e-09
5.7171886e-07
5.4893811e-09
5.7126771e-07
4.5440301e-09
5.7092484e-07
3.7072138e-09
5.7066363e-07
2.9530686e-09
5.7046556e-07
2.2608707e-09
5.7031766e-07
1.6135179e-09
5.7021087e-07
9.9639845e-10
5.7013902e-07
3.9651067e-10
5.7009814e-07
-1.9825991e-10
5.7008603e-07
-7.9978081e-10
5.701021e-07
-1.4202936e-09
5.7014726e-07
-2.0730686e-09
5.7022406e-07
-2.7731549e-09
5.7033691e-07
-3.5383088e-09
5.7049256e-07
-4.3902009e-09
5.7070085e-07
-5.3560489e-09
5.7097594e-07
-6.4708981e-09
5.7133817e-07
-7.7808824e-09
5.71817e-07
-9.3477907e-09
5.7245574e-07
-1.1255453e-08
5.7331969e-07
-1.3620143e-08
5.7451094e-07
-1.660322e-08
5.7618404e-07
-2.0402476e-08
5.7857375e-07
-2.5284595e-08
5.8215376e-07
-3.2509251e-08
5.8887673e-07
-4.509307e-08
6.0707266e-07
-4.6544235e-08
6.170736e-07
3.9862467e-07
4.7963623e-08
3.0629254e-07
6.0072364e-08
6.142592e-07
4.5395903e-08
6.362878e-07
3.4871351e-08
6.0577706e-07
2.8395935e-08
5.9216066e-07
2.3415846e-08
5.8596809e-07
1.9430788e-08
5.8187316e-07
1.622601e-08
5.7893854e-07
1.361699e-08
5.7682188e-07
1.1464313e-08
5.7527206e-07
9.6628479e-09
5.7411849e-07
8.1325466e-09
5.7324916e-07
6.8123786e-09
5.7258788e-07
5.655324e-09
5.7208189e-07
4.6245996e-09
5.7169435e-07
3.6909105e-09
5.7139925e-07
2.8304095e-09
5.7117816e-07
2.0231582e-09
5.7101812e-07
1.2519428e-09
5.7091024e-07
5.0132853e-10
5.7084875e-07
-2.4313287e-10
5.7083049e-07
-9.9561347e-10
5.7085458e-07
-1.7706993e-09
5.7092235e-07
-2.5841129e-09
5.7103748e-07
-3.4535293e-09
5.7120633e-07
-4.3995599e-09
5.7143859e-07
-5.4469924e-09
5.7174828e-07
-6.6264004e-09
5.7215535e-07
-7.9762698e-09
5.7268804e-07
-9.5458732e-09
5.733866e-07
-1.1399046e-08
5.7430891e-07
-1.3618609e-08
5.7553926e-07
-1.6312877e-08
5.7720521e-07
-1.9625467e-08
5.7949663e-07
-2.3726673e-08
5.8267496e-07
-2.8919357e-08
5.8734645e-07
-3.6779866e-08
5.9673724e-07
-4.8452965e-08
6.1874576e-07
-4.3187813e-08
6.1180845e-07
3.5543686e-07
4.0333599e-08
2.65959e-07
5.8988749e-08
5.956041e-07
4.8324302e-08
6.4695224e-07
3.7582681e-08
6.1651867e-07
3.0923678e-08
5.9881966e-07
2.5888996e-08
5.9100277e-07
2.1775347e-08
5.8598681e-07
1.838787e-08
5.8232602e-07
1.5573896e-08
5.7963585e-07
1.3211368e-08
5.7763459e-07
1.120434e-08
5.7612552e-07
9.4775105e-09
5.7497599e-07
7.9717276e-09
5.7409366e-07
6.6400779e-09
5.7341354e-07
5.4449243e-09
5.728895e-07
4.3556386e-09
5.7248853e-07
3.346822e-09
5.7218697e-07
2.3969056e-09
5.7196804e-07
1.4870321e-09
5.7182011e-07
6.0013575e-10
5.7173565e-07
-2.7984809e-10
5.7171048e-07
-1.1687005e-09
5.7174343e-07
-2.0826217e-09
5.7183627e-07
-3.0389588e-09
5.7199381e-07
-4.0570122e-09
5.7222438e-07
-5.1589818e-09
5.7254055e-07
-6.371118e-09
5.7296042e-07
-7.7251571e-09
5.7350939e-07
-9.2601182e-09
5.74223e-07
-1.1024612e-08
5.7515109e-07
-1.3079872e-08
5.7636417e-07
-1.5503177e-08
5.7796256e-07
-1.839194e-08
5.8009397e-07
-2.1870356e-08
5.8297505e-07
-2.6094238e-08
5.8689884e-07
-3.1472937e-08
5.9272514e-07
-3.9639297e-08
6.049036e-07
-4.9158225e-08
6.2826469e-07
-3.8570775e-08
6.01221e-07
3.1686608e-07
3.2859958e-08
2.3309913e-07
5.5243424e-08
5.7322071e-07
4.9224637e-08
6.5297103e-07
3.9054394e-08
6.266889e-07
3.2423877e-08
6.0545017e-07
2.7512271e-08
5.9591438e-07
2.3432652e-08
5.9006643e-07
1.9997457e-08
5.8576121e-07
1.7090116e-08
5.8254319e-07
1.4608397e-08
5.8011631e-07
1.2468502e-08
5.7826541e-07
1.060317e-08
5.7684132e-07
8.9581496e-09
5.7573868e-07
7.4892359e-09
5.7488246e-07
6.1600869e-09
5.7421865e-07
4.9404637e-09
5.7370815e-07
3.8047884e-09
5.7332265e-07
2.730967e-09
5.7304186e-07
1.6994134e-09
5.7285166e-07
6.9221829e-10
5.7274284e-07
-3.0758291e-10
5.7271028e-07
-1.316684e-09
5.7275253e-07
-2.3521743e-09
5.7287176e-07
-3.4322216e-09
5.7307386e-07
-4.5768137e-09
5.7336897e-07
-5.8086056e-09
5.7377235e-07
-7.1539168e-09
5.7430573e-07
-8.6439317e-09
5.7499941e-07
-1.031615e-08
5.7589522e-07
-1.2216162e-08
5.7705111e-07
-1.4400039e-08
5.7854804e-07
-1.6937221e-08
5.8049974e-07
-1.991257e-08
5.8306932e-07
-2.3426885e-08
5.8648936e-07
-2.7621598e-08
5.9109355e-07
-3.3014805e-08
5.9811835e-07
-4.0990968e-08
6.1287976e-07
-4.7670147e-08
6.3494387e-07
-3.3367235e-08
5.8691808e-07
2.8349885e-07
2.6185959e-08
2.0691327e-07
5.012479e-08
5.49282e-07
4.8483868e-08
6.5461196e-07
3.9481863e-08
6.3569089e-07
3.3068797e-08
6.1186323e-07
2.8403779e-08
6.005794e-07
2.4485213e-08
5.9398499e-07
2.1111282e-08
5.8913514e-07
1.8201089e-08
5.8545339e-07
1.5675391e-08
5.8264201e-07
1.346504e-08
5.8047576e-07
1.1512846e-08
5.7879352e-07
9.771278e-09
5.7748025e-07
8.2005327e-09
5.764532e-07
6.7670638e-09
5.7565212e-07
5.4423108e-09
5.7503291e-07
4.201611e-09
5.7456335e-07
3.0232762e-09
5.7422019e-07
1.8877948e-09
5.7398715e-07
7.7712921e-10
5.7385351e-07
-3.2592107e-10
5.7381333e-07
-1.4383149e-09
5.7386492e-07
-2.5773623e-09
5.7401081e-07
-3.7613276e-09
5.7425783e-07
-5.0100715e-09
5.7461772e-07
-6.3457662e-09
5.7510804e-07
-7.7937079e-09
5.7575367e-07
-9.3832633e-09
5.7658896e-07
-1.1148978e-08
5.7766093e-07
-1.3131845e-08
5.7903397e-07
-1.5380952e-08
5.8079715e-07
-1.7955601e-08
5.8307439e-07
-2.0925268e-08
5.8603899e-07
-2.4365174e-08
5.8992927e-07
-2.841081e-08
5.9513919e-07
-3.3666929e-08
6.0337447e-07
-4.1037994e-08
6.2025083e-07
-4.4776082e-08
6.3868195e-07
-2.8194476e-08
5.7033648e-07
2.5530437e-07
2.056755e-08
1.8634585e-07
4.4573865e-08
5.2527586e-07
4.6630857e-08
6.5255501e-07
3.9141545e-08
6.4318018e-07
3.3072944e-08
6.1793182e-07
2.8707296e-08
6.0494504e-07
2.5028507e-08
5.9766378e-07
2.1795057e-08
5.9236859e-07
1.8951612e-08
5.8829683e-07
1.6442102e-08
5.8515152e-07
1.4213015e-08
5.8270485e-07
1.2218155e-08
5.8078838e-07
1.0417723e-08
5.7928068e-07
8.7773464e-09
5.7809358e-07
7.2672532e-09
5.7716221e-07
5.8614585e-09
5.764387e-07
4.5370259e-09
5.7588778e-07
3.2734012e-09
5.7548382e-07
2.0518064e-09
5.7520874e-07
8.5468184e-10
5.7505063e-07
-3.3483327e-10
5.7500284e-07
-1.5333972e-09
5.7506349e-07
-2.7579629e-09
5.7523537e-07
-4.0262792e-09
5.7552614e-07
-5.3574154e-09
5.7594885e-07
-6.7723267e-09
5.7652295e-07
-8.2944721e-09
5.7727582e-07
-9.9504988e-09
5.7824499e-07
-1.1771008e-08
5.7948144e-07
-1.3791352e-08
5.8105432e-07
-1.6052539e-08
5.8305834e-07
-1.8602441e-08
5.8562429e-07
-2.1494188e-08
5.8893074e-07
-2.4781832e-08
5.9321691e-07
-2.861147e-08
5.9896882e-07
-3.3629794e-08
6.0839279e-07
-4.0113709e-08
6.2673474e-07
-4.1134092e-08
6.3970234e-07
-2.3405851e-08
5.5260824e-07
2.3189852e-07
1.6011773e-08
1.7033422e-07
3.9133049e-08
5.0215481e-07
4.4103826e-08
6.4758431e-07
3.8275122e-08
6.4900886e-07
3.2640392e-08
6.2356654e-07
2.857883e-08
6.0900661e-07
2.5171665e-08
6.0107095e-07
2.2125112e-08
5.9541515e-07
1.939527e-08
5.9102667e-07
1.6946061e-08
5.8760073e-07
1.4738489e-08
5.8491242e-07
1.2736939e-08
5.8278993e-07
1.090948e-08
5.8110814e-07
9.227571e-09
5.7977548e-07
7.6657166e-09
5.7872407e-07
6.2010479e-09
5.7790337e-07
4.8128958e-09
5.7727593e-07
3.482364e-09
5.7681435e-07
2.1919077e-09
5.764992e-07
9.2492529e-10
5.7631761e-07
-3.3463849e-10
5.762624e-07
-1.602679e-09
5.7633153e-07
-2.895324e-09
5.7652802e-07
-4.2293235e-09
5.7686014e-07
-5.6224498e-09
5.7734198e-07
-7.0939115e-09
5.7799441e-07
-8.6647807e-09
5.7884668e-07
-1.0358432e-08
5.7993864e-07
-1.2200996e-08
5.81324e-07
-1.4221782e-08
5.830751e-07
-1.645364e-08
5.852902e-07
-1.8933343e-08
5.88104e-07
-2.1699064e-08
5.9169646e-07
-2.4791304e-08
5.9630915e-07
-2.8378713e-08
6.0255623e-07
-3.3087723e-08
6.131018e-07
-3.8513039e-08
6.3216006e-07
-3.7186644e-08
6.3837594e-07
-1.9170712e-08
5.345923e-07
2.1272781e-07
1.2419652e-08
1.5791474e-07
3.4101411e-08
4.8047335e-07
4.1231956e-08
6.4045389e-07
3.7060707e-08
6.5318009e-07
3.1925215e-08
6.28702e-07
2.815305e-08
6.1277877e-07
2.5018272e-08
6.0420573e-07
2.2178649e-08
5.9825477e-07
1.9589121e-08
5.936162e-07
1.7229077e-08
5.8996077e-07
1.5071863e-08
5.8706964e-07
1.3091145e-08
5.8477064e-07
1.1262264e-08
5.8293702e-07
9.5623417e-09
5.8147541e-07
7.9702357e-09
5.8031617e-07
6.4664084e-09
5.794072e-07
5.0327488e-09
5.7870959e-07
3.6523446e-09
5.7819475e-07
2.3092266e-09
5.7784231e-07
9.8809866e-10
5.7763874e-07
-3.2593959e-10
5.7757644e-07
-1.6476713e-09
5.7765326e-07
-2.9920486e-09
5.7787239e-07
-4.3744731e-09
5.7824257e-07
-5.8110743e-09
5.7877858e-07
-7.3189829e-09
5.7950232e-07
-8.9165907e-09
5.8044429e-07
-1.0623782e-08
5.8164583e-07
-1.2462142e-08
5.8316236e-07
-1.4455119e-08
5.8506808e-07
-1.6628054e-08
5.8746313e-07
-1.9007865e-08
5.9048381e-07
-2.1620085e-08
5.9430867e-07
-2.4498913e-08
5.9918798e-07
-2.7838522e-08
6.0589584e-07
-3.2183358e-08
6.1744664e-07
-3.6478094e-08
6.364548e-07
-3.3234962e-08
6.3513281e-07
-1.5550688e-08
5.1690803e-07
1.9717712e-07
9.6525577e-09
1.4826239e-07
2.9631234e-08
4.6049505e-07
3.8261865e-08
6.3182344e-07
3.5636418e-08
6.5580552e-07
3.1038527e-08
6.3329986e-07
2.7534262e-08
6.1628302e-07
2.4654843e-08
6.0708515e-07
2.2024394e-08
6.0088522e-07
1.9586987e-08
5.9605361e-07
1.7332623e-08
5.9221513e-07
1.5244662e-08
5.891576e-07
1.3304499e-08
5.8671081e-07
1.1493774e-08
5.8474774e-07
9.7947316e-09
5.8317445e-07
8.1903399e-09
5.8192057e-07
6.6643471e-09
5.8093319e-07
5.2012766e-09
5.8017266e-07
3.786352e-09
5.7960968e-07
2.4053759e-09
5.7922329e-07
1.0445791e-09
5.7899954e-07
-3.0954996e-10
5.7893057e-07
-1.6704441e-09
5.7901415e-07
-3.0516454e-09
5.7925359e-07
-4.4669851e-09
5.796579e-07
-5.9307533e-09
5.8024235e-07
-7.4578516e-09
5.8102942e-07
-9.0639158e-09
5.8205036e-07
-1.0765391e-08
5.833473e-07
-1.2579562e-08
5.8497653e-07
-1.4524543e-08
5.8701306e-07
-1.6619105e-08
5.8955769e-07
-1.8881759e-08
5.9274646e-07
-2.1328059e-08
5.9675497e-07
-2.3992103e-08
6.0185202e-07
-2.708968e-08
6.0899342e-07
-3.1034801e-08
6.2139176e-07
-3.421296e-08
6.3963296e-07
-2.9484128e-08
6.3040398e-07
-1.25411e-08
4.99965e-07
1.8463602e-07
7.5616609e-09
1.4070096e-07
2.5770153e-08
4.4228703e-07
3.5364377e-08
6.2222948e-07
3.4112061e-08
6.5705784e-07
3.0063251e-08
6.3734863e-07
2.6802387e-08
6.1954387e-07
2.4151e-08
6.0973653e-07
2.1720068e-08
6.0331615e-07
1.9436098e-08
5.9833758e-07
1.7294708e-08
5.9435652e-07
1.5286987e-08
5.9116532e-07
1.3400525e-08
5.8859727e-07
1.1622178e-08
5.8652609e-07
9.9385992e-09
5.8485803e-07
8.336438e-09
5.8352273e-07
6.8025056e-09
5.8246712e-07
5.3238763e-09
5.8165129e-07
3.88792e-09
5.8104563e-07
2.4822833e-09
5.8062893e-07
1.0948331e-09
5.8038699e-07
-2.8642348e-10
5.8031183e-07
-1.6734335e-09
5.8040116e-07
-3.0781998e-09
5.8065836e-07
-4.512875e-09
5.8109258e-07
-5.9898404e-09
5.8171931e-07
-7.5217608e-09
5.8256134e-07
-9.1216025e-09
5.836502e-07
-1.0802599e-08
5.850283e-07
-1.2578161e-08
5.8675209e-07
-1.4461755e-08
5.8889665e-07
-1.6466602e-08
5.9156254e-07
-1.8604337e-08
5.948842e-07
-2.0883517e-08
5.9903415e-07
-2.3343228e-08
6.0431173e-07
-2.6212459e-08
6.1186265e-07
-2.9743052e-08
6.2492235e-07
-3.1879226e-08
6.4176913e-07
-2.6056431e-08
6.2458118e-07
-1.0095267e-08
4.8400384e-07
1.7454075e-07
6.0063833e-09
1.3469486e-07
2.2496365e-08
4.2579761e-07
3.2641307e-08
6.1208489e-07
3.256802e-08
6.5713116e-07
2.9059402e-08
6.4085719e-07
2.6017519e-08
6.2258574e-07
2.3562013e-08
6.1219204e-07
2.1313191e-08
6.0556497e-07
1.9176591e-08
6.0047418e-07
1.7148723e-08
5.9638439e-07
1.5226173e-08
5.9308787e-07
1.340128e-08
5.9042216e-07
1.1665025e-08
5.8826235e-07
1.0007698e-08
5.8651535e-07
8.4191162e-09
5.8511131e-07
6.8888253e-09
5.8399741e-07
5.4062603e-09
5.8313385e-07
3.9608446e-09
5.8249105e-07
2.5420427e-09
5.8204773e-07
1.1393754e-09
5.8178965e-07
-2.5759148e-10
5.8170879e-07
-1.6592707e-09
5.8180284e-07
-3.0760868e-09
5.8207518e-07
-4.5184991e-09
5.8253499e-07
-5.9970099e-09
5.8319782e-07
-7.5221446e-09
5.8408647e-07
-9.1043965e-09
5.8523245e-07
-1.0754121e-08
5.8667802e-07
-1.2481375e-08
5.8847935e-07
-1.4295742e-08
5.9071102e-07
-1.6205951e-08
5.9347275e-07
-1.8218347e-08
5.9689659e-07
-2.0337564e-08
6.0115337e-07
-2.2611211e-08
6.0658538e-07
-2.5270361e-08
6.145218e-07
-2.8388636e-08
6.2804063e-07
-2.9591026e-08
6.4297152e-07
-2.3007081e-08
6.1799724e-07
-8.1447169e-09
4.6914147e-07
1.6639603e-07
4.8640181e-09
1.2983117e-07
1.9751298e-08
4.1091102e-07
3.0140887e-08
6.0169577e-07
3.1056581e-08
6.5621554e-07
2.8066402e-08
6.4384731e-07
2.5221872e-08
6.2543024e-07
2.2929937e-08
6.1448397e-07
2.084175e-08
6.0765316e-07
1.8841684e-08
6.0247424e-07
1.6923171e-08
5.9830291e-07
1.5086245e-08
5.9492479e-07
1.3326679e-08
5.9218173e-07
1.1638562e-08
5.8995046e-07
1.0015062e-08
5.8813885e-07
8.4486178e-09
5.8667775e-07
6.9311307e-09
5.855149e-07
5.4541418e-09
5.8461084e-07
4.0089666e-09
5.8393622e-07
2.5867905e-09
5.834699e-07
1.1787338e-09
5.8319771e-07
-2.2410816e-10
5.8311164e-07
-1.6306373e-09
5.8320937e-07
-3.0497314e-09
5.8349427e-07
-4.4902145e-09
5.8397547e-07
-5.9608121e-09
5.8466842e-07
-7.470081e-09
5.8559574e-07
-9.0263057e-09
5.8678867e-07
-1.0637355e-08
5.8828907e-07
-1.2310498e-08
5.9015249e-07
-1.4052213e-08
5.9245274e-07
-1.586777e-08
5.952883e-07
-1.7759752e-08
5.9878858e-07
-1.973167e-08
6.0312529e-07
-2.1841375e-08
6.0869509e-07
-2.4310029e-08
6.1699045e-07
-2.7030223e-08
6.3076082e-07
-2.7420398e-08
6.4336169e-07
-2.0345395e-08
6.1092223e-07
-6.6137821e-09
4.5540986e-07
1.5978225e-07
4.0322044e-09
1.2579936e-07
1.7462456e-08
3.9748159e-07
2.7877039e-08
5.9128178e-07
2.9608312e-08
6.544844e-07
2.7107373e-08
6.4634819e-07
2.4442552e-08
6.2809502e-07
2.2284841e-08
6.1664168e-07
2.0334752e-08
6.0960325e-07
1.8457884e-08
6.0435111e-07
1.6641626e-08
6.0011916e-07
1.4887679e-08
5.9667874e-07
1.319415e-08
5.9387525e-07
1.1557344e-08
5.9158727e-07
9.9726121e-09
5.8972359e-07
8.4344837e-09
5.8821588e-07
6.9368243e-09
5.8701256e-07
5.4729964e-09
5.8607467e-07
4.0360035e-09
5.8537322e-07
2.6186078e-09
5.848873e-07
1.2134241e-09
5.8460289e-07
-1.870056e-10
5.8451206e-07
-1.5901481e-09
5.8461251e-07
-3.0034197e-09
5.8490754e-07
-4.4341188e-09
5.8540617e-07
-5.8893471e-09
5.8612365e-07
-7.3759073e-09
5.870823e-07
-8.9001755e-09
5.8831294e-07
-1.0467947e-08
5.8985684e-07
-1.2084261e-08
5.917688e-07
-1.3753225e-08
5.941217e-07
-1.547758e-08
5.9701266e-07
-1.7257512e-08
6.0056851e-07
-1.909771e-08
6.0496548e-07
-2.106634e-08
6.1066372e-07
-2.3363357e-08
6.1928747e-07
-2.570749e-08
6.3310495e-07
-2.5407035e-08
6.4306124e-07
-1.8052798e-08
6.03568e-07
-5.4280792e-09
4.4278514e-07
1.5435417e-07
3.4282662e-09
1.2237155e-07
1.5556006e-08
3.8535483e-07
2.5843104e-08
5.8099543e-07
2.823857e-08
6.5208912e-07
2.6194103e-08
6.4839259e-07
2.3695363e-08
6.3059371e-07
2.1646953e-08
6.1869008e-07
1.9813342e-08
6.1143686e-07
1.8045543e-08
6.0611891e-07
1.6322931e-08
6.0184178e-07
1.4647398e-08
5.9835427e-07
1.3018495e-08
5.9550416e-07
1.1434029e-08
5.9317174e-07
9.8909247e-09
5.9126669e-07
8.385326e-09
5.8972148e-07
6.9126853e-09
5.884852e-07
5.4678966e-09
5.8751946e-07
4.0454294e-09
5.8679568e-07
2.6394505e-09
5.8629328e-07
1.243931e-09
5.8599841e-07
-1.4725891e-10
5.8590325e-07
-1.540264e-09
5.8600552e-07
-2.9411603e-09
5.8630844e-07
-4.3558653e-09
5.8682088e-07
-5.7900382e-09
5.8755782e-07
-7.2489638e-09
5.8854123e-07
-8.7374192e-09
5.898014e-07
-1.0259528e-08
5.9137895e-07
-1.1818611e-08
5.9332789e-07
-1.3417047e-08
5.9572014e-07
-1.5055846e-08
5.9865146e-07
-1.6733963e-08
6.0224662e-07
-1.8459e-08
6.0669052e-07
-2.0308232e-08
6.1251295e-07
-2.2450736e-08
6.2142997e-07
-2.4445209e-08
6.3509943e-07
-2.3567705e-08
6.4218373e-07
-1.6095268e-08
5.9609556e-07
-4.519191e-09
4.3120906e-07
1.4983498e-07
2.9875733e-09
1.1938452e-07
1.3963465e-08
3.743801e-07
2.4021183e-08
5.7093864e-07
2.6952441e-08
6.4915815e-07
2.5330893e-08
6.5001408e-07
2.2988235e-08
6.329363e-07
2.1029048e-08
6.2064925e-07
1.9292318e-08
6.1317359e-07
1.7619769e-08
6.0779146e-07
1.59817e-08
6.0347984e-07
1.4378992e-08
5.9995698e-07
1.2811954e-08
5.9707119e-07
1.1279332e-08
5.9470436e-07
9.7791372e-09
5.9276688e-07
8.3087103e-09
5.911919e-07
6.8647515e-09
5.8992916e-07
5.4434103e-09
5.889408e-07
4.0403985e-09
5.881987e-07
2.6511038e-09
5.8768257e-07
1.270698e-09
5.8737882e-07
-1.0576092e-10
5.8727971e-07
-1.4832312e-09
5.8738299e-07
-2.8665922e-09
5.876918e-07
-4.2605424e-09
5.8821483e-07
-5.6694933e-09
5.8896677e-07
-7.0974504e-09
5.8996918e-07
-8.547888e-09
5.9125183e-07
-1.0023624e-08
5.9285469e-07
-1.1526712e-08
5.9483098e-07
-1.305834e-08
5.9725176e-07
-1.4618435e-08
6.0021155e-07
-1.6205695e-08
6.0383388e-07
-1.7831811e-08
6.0831664e-07
-1.9581038e-08
6.1426217e-07
-2.1583927e-08
6.2343286e-07
-2.3256776e-08
6.3677227e-07
-2.1903511e-08
6.4083047e-07
-1.443173e-08
5.8862378e-07
-3.8272168e-09
4.2060455e-07
1.4600776e-07
2.6612881e-09
1.1672388e-07
1.2625071e-08
3.6441768e-07
2.2388486e-08
5.6117637e-07
2.5748498e-08
6.4579853e-07
2.4517258e-08
6.5124528e-07
2.2323782e-08
6.351297e-07
2.0438445e-08
6.2253457e-07
1.8781578e-08
6.1483046e-07
1.7191431e-08
6.0938161e-07
1.5628964e-08
6.0504231e-07
1.409311e-08
6.0149283e-07
1.2584404e-08
5.985799e-07
1.1102116e-08
5.9618664e-07
9.6449585e-09
5.9422404e-07
8.2111264e-09
5.9262574e-07
6.7982722e-09
5.9134201e-07
5.4035512e-09
5.9033552e-07
4.0237046e-09
5.8957854e-07
2.6551582e-09
5.8905112e-07
1.2941226e-09
5.8873985e-07
-6.3305558e-11
5.8863714e-07
-1.4210448e-09
5.8874073e-07
-2.7829303e-09
5.8905368e-07
-4.1526105e-09
5.8958451e-07
-5.533442e-09
5.903476e-07
-6.928379e-09
5.9136412e-07
-8.339864e-09
5.9266332e-07
-9.7697313e-09
5.9428456e-07
-1.1219144e-08
5.9628039e-07
-1.2688529e-08
5.9872115e-07
-1.4177253e-08
6.0170027e-07
-1.5684533e-08
6.0534116e-07
-1.7226802e-08
6.0985891e-07
-1.889258e-08
6.1592795e-07
-2.0768308e-08
6.2530859e-07
-2.2147231e-08
6.381512e-07
-2.0405682e-08
6.3908892e-07
-1.3019645e-08
5.8123774e-07
-3.3017509e-09
4.1088665e-07
1.4270601e-07
2.4136703e-09
1.1431096e-07
1.149089e-08
3.5534207e-07
2.0921412e-08
5.5174724e-07
2.4621683e-08
6.4209879e-07
2.3749932e-08
6.5211701e-07
2.1701195e-08
6.3717834e-07
1.9878578e-08
6.2435716e-07
1.8287312e-08
6.1642173e-07
1.6768061e-08
6.1090086e-07
1.5272828e-08
6.0653754e-07
1.3797898e-08
6.0296776e-07
1.2343641e-08
6.0003416e-07
1.0909554e-08
5.9762073e-07
9.4947556e-09
5.9563884e-07
8.0980228e-09
5.9402247e-07
6.717714e-09
5.9272232e-07
5.3517705e-09
5.9170146e-07
3.9977693e-09
5.9093254e-07
2.6530008e-09
5.9039589e-07
1.3145563e-09
5.900783e-07
-2.0578588e-11
5.8997228e-07
-1.3554317e-09
5.9007558e-07
-2.6929458e-09
5.903912e-07
-4.0358841e-09
5.9092745e-07
-5.3867321e-09
5.9169845e-07
-6.747601e-09
5.9272499e-07
-8.1201395e-09
5.9403586e-07
-9.5054707e-09
5.9566989e-07
-1.0904171e-08
5.9767909e-07
-1.2316242e-08
6.0013322e-07
-1.3740893e-08
6.0312492e-07
-1.5178446e-08
6.0677872e-07
-1.6650277e-08
6.1133074e-07
-1.8246148e-08
6.1752382e-07
-2.0004767e-08
6.2706721e-07
-2.1115929e-08
6.3926236e-07
-1.9060102e-08
6.3703309e-07
-1.1818808e-08
5.7399645e-07
-2.9017844e-09
4.0196963e-07
1.3980423e-07
2.2193395e-09
1.1209249e-07
1.0520446e-08
3.4704284e-07
1.9597849e-08
5.426715e-07
2.356536e-08
6.3813197e-07
2.3024335e-08
6.5265804e-07
2.1117663e-08
6.390849e-07
1.9350244e-08
6.2612453e-07
1.7813e-08
6.1795897e-07
1.6354626e-08
6.1235923e-07
1.4919051e-08
6.0797312e-07
1.3499436e-08
6.0438738e-07
1.209569e-08
6.014379e-07
1.0707334e-08
5.9900909e-07
9.3336832e-09
5.9701249e-07
7.973885e-09
5.9538227e-07
6.6268028e-09
5.940694e-07
5.2909778e-09
5.9303729e-07
3.9646514e-09
5.9225887e-07
2.6458199e-09
5.9171472e-07
1.3323064e-09
5.9139181e-07
2.1841905e-11
5.9128274e-07
-1.287851e-09
5.9138527e-07
-2.5989708e-09
5.9170232e-07
-3.9135499e-09
5.9224202e-07
-5.2333701e-09
5.9301827e-07
-6.5598834e-09
5.940515e-07
-7.8941483e-09
5.9537012e-07
-9.2367987e-09
5.9701254e-07
-1.0588062e-08
5.9903035e-07
-1.1947763e-08
6.0149292e-07
-1.331525e-08
6.0449241e-07
-1.4692375e-08
6.0815584e-07
-1.6105279e-08
6.1274364e-07
-1.7641893e-08
6.1906044e-07
-1.9291272e-08
6.2871658e-07
-2.0158738e-08
6.4012982e-07
-1.7850449e-08
6.347248e-07
-1.0793309e-08
5.6693931e-07
-2.5948629e-09
3.9377118e-07
1.3720937e-07
2.0608094e-09
1.100327e-07
9.6816081e-09
3.3942423e-07
1.8398208e-08
5.339569e-07
2.257259e-08
6.3395848e-07
2.2335554e-08
6.5289514e-07
2.05694e-08
6.4085094e-07
1.8852563e-08
6.2784132e-07
1.7360208e-08
6.1945132e-07
1.5954175e-08
6.1376527e-07
1.4571567e-08
6.0935573e-07
1.3202129e-08
6.0575681e-07
1.1845094e-08
6.0279494e-07
1.0499872e-08
6.0035431e-07
9.1658331e-09
5.9834653e-07
7.8423355e-09
5.9670576e-07
6.5285892e-09
5.9538315e-07
5.2235815e-09
5.943423e-07
3.9260703e-09
5.9355638e-07
2.6346173e-09
5.9300617e-07
1.347642e-09
5.9267879e-07
6.3488335e-11
5.9256689e-07
-1.2195033e-09
5.9266826e-07
-2.502921e-09
5.9298573e-07
-3.7882068e-09
5.9352731e-07
-5.0765876e-09
5.9430665e-07
-6.3690142e-09
5.9534393e-07
-7.6661224e-09
5.9666723e-07
-8.9682328e-09
5.9831465e-07
-1.0275402e-08
6.0033752e-07
-1.1587453e-08
6.0280497e-07
-1.2904092e-08
6.0580905e-07
-1.4228973e-08
6.0948072e-07
-1.5592541e-08
6.1410721e-07
-1.7077933e-08
6.2054583e-07
-1.8624095e-08
6.3026275e-07
-1.9269643e-08
6.4077537e-07
-1.6760135e-08
6.3221529e-07
-9.9120479e-09
5.6009122e-07
-2.3558732e-09
3.8621501e-07
1.3485349e-07
1.926407e-09
1.0810747e-07
8.9492332e-09
3.3240394e-07
1.730572e-08
5.2560279e-07
2.1636844e-08
6.2962849e-07
2.1678907e-08
6.528532e-07
2.0052312e-08
6.4247739e-07
1.8383685e-08
6.2950987e-07
1.6929219e-08
6.2090577e-07
1.5568374e-08
6.1512612e-07
1.4232921e-08
6.1069118e-07
1.2909061e-08
6.0708067e-07
1.1595188e-08
6.0410881e-07
1.0290521e-08
6.0165898e-07
8.9943873e-09
5.9964266e-07
7.706244e-09
5.9799391e-07
6.4255256e-09
5.9666386e-07
5.1515401e-09
5.9561628e-07
3.8834385e-09
5.9482448e-07
2.6202256e-09
5.9426938e-07
1.3607974e-09
5.9393821e-07
1.0399219e-10
5.938237e-07
-1.1513512e-09
5.9392361e-07
-2.4063308e-09
5.9424071e-07
-3.6619223e-09
5.947829e-07
-4.9189255e-09
5.9556365e-07
-6.1779222e-09
5.9660293e-07
-7.4392604e-09
5.9792857e-07
-8.703082e-09
5.9957847e-07
-9.9694001e-09
6.0160384e-07
-1.1238157e-08
6.0407373e-07
-1.2509563e-08
6.0708046e-07
-1.3789229e-08
6.1076039e-07
-1.5111236e-08
6.1542922e-07
-1.6551194e-08
6.2198578e-07
-1.7998672e-08
6.3171022e-07
-1.8441861e-08
6.4121856e-07
-1.5773491e-08
6.2954692e-07
-9.1488592e-09
5.5346659e-07
-2.1658409e-09
3.7923199e-07
1.3268765e-07
1.8085889e-09
1.0630024e-07
8.303811e-09
3.2591167e-07
1.6306317e-08
5.1760309e-07
2.0752324e-08
6.2518389e-07
2.1050233e-08
6.5255551e-07
1.95624e-08
6.4396508e-07
1.7941267e-08
6.3113092e-07
1.651949e-08
6.2232754e-07
1.5197917e-08
6.1644769e-07
1.3904631e-08
6.1198447e-07
1.2622297e-08
6.0836301e-07
1.1348349e-08
6.0538276e-07
1.0081762e-08
6.0292556e-07
8.8217664e-09
6.0090266e-07
7.5678388e-09
5.9924783e-07
6.319546e-09
5.9791216e-07
5.0764184e-09
5.9685941e-07
3.8378974e-09
5.96063e-07
2.6033277e-09
5.9550395e-07
1.3719778e-09
5.9516956e-07
1.4307656e-10
5.950526e-07
-1.0841433e-09
5.9515083e-07
-2.3103953e-09
5.9546696e-07
-3.5362957e-09
5.960088e-07
-4.7623244e-09
5.9678968e-07
-5.9888019e-09
5.978294e-07
-7.2158946e-09
5.9915566e-07
-8.4436646e-09
6.0080624e-07
-9.672169e-09
6.0283234e-07
-1.0901545e-08
6.053031e-07
-1.213261e-08
6.0831152e-07
-1.3372977e-08
6.1200075e-07
-1.4659552e-08
6.1671579e-07
-1.6058006e-08
6.2338424e-07
-1.7410199e-08
6.3306242e-07
-1.7668576e-08
6.4147694e-07
-1.4876395e-08
6.2675474e-07
-8.4821872e-09
5.4707238e-07
-2.0107643e-09
3.7276057e-07
1.3067689e-07
1.702632e-09
1.0459918e-07
7.7302423e-09
3.1988747e-07
1.5388318e-08
5.0994831e-07
1.9914056e-08
6.2065989e-07
2.0445993e-08
6.520239e-07
1.9095981e-08
6.4531494e-07
1.7522785e-08
6.3270401e-07
1.612998e-08
6.2372032e-07
1.4842838e-08
6.1773483e-07
1.3587468e-08
6.1323984e-07
1.2343129e-08
6.0960735e-07
1.1106198e-08
6.0661969e-07
9.8753762e-09
6.0415638e-07
8.6497657e-09
6.0212827e-07
7.4288118e-09
6.0046879e-07
6.2121458e-09
5.9912882e-07
4.9994436e-09
5.9807211e-07
3.7903545e-09
5.9727209e-07
2.584477e-09
5.9670983e-07
1.3813641e-09
5.9637268e-07
1.8054578e-10
5.9625342e-07
-1.018441e-09
5.9634981e-07
-2.2160155e-09
5.9666454e-07
-3.4125239e-09
5.9720531e-07
-4.6082153e-09
5.9798537e-07
-5.803235e-09
5.9902442e-07
-6.9976475e-09
6.0035007e-07
-8.1915066e-09
6.020001e-07
-9.3849687e-09
6.040258e-07
-1.0578412e-08
6.0649654e-07
-1.1773321e-08
6.0950643e-07
-1.2979279e-08
6.1320671e-07
-1.423512e-08
6.1797163e-07
-1.5594514e-08
6.2474363e-07
-1.6854011e-08
6.3432191e-07
-1.694338e-08
6.4156631e-07
-1.4056512e-08
6.2386787e-07
-7.8945478e-09
5.4091041e-07
-1.8805383e-09
3.6674656e-07
1.2879635e-07
1.6056637e-09
1.0299533e-07
7.2168048e-09
3.1428027e-07
1.4542044e-08
5.0262692e-07
1.911785e-08
6.1608621e-07
1.9863274e-08
6.5127894e-07
1.8649781e-08
6.4652829e-07
1.7125724e-08
6.3422794e-07
1.5759368e-08
6.2508665e-07
1.4502733e-08
6.1899147e-07
1.3281679e-08
6.144609e-07
1.2072275e-08
6.1081675e-07
1.0869777e-08
6.0782219e-07
9.6725906e-09
6.0535357e-07
8.4796757e-09
6.0332118e-07
7.2904144e-09
6.0165805e-07
6.1044548e-09
6.0031478e-07
4.9215594e-09
5.9925501e-07
3.7415195e-09
5.9845213e-07
2.5641172e-09
5.9788723e-07
1.3891165e-09
5.9754768e-07
2.1627368e-10
5.9742626e-07
-9.5464579e-10
5.9752073e-07
-2.1238421e-09
5.9783373e-07
-3.2914661e-09
5.9837293e-07
-4.4576071e-09
5.9915151e-07
-5.622302e-09
6.0018912e-07
-6.7855735e-09
6.0151334e-07
-7.9475143e-09
6.0316204e-07
-9.1084128e-09
6.051867e-07
-1.0268911e-08
6.0765704e-07
-1.1431197e-08
6.1066872e-07
-1.2606721e-08
6.1438224e-07
-1.3835313e-08
6.1920022e-07
-1.5156947e-08
6.2606527e-07
-1.6325806e-08
6.3549077e-07
-1.6260497e-08
6.41501e-07
-1.3303294e-08
6.2091067e-07
-7.3719163e-09
5.3497904e-07
-1.7680241e-09
3.6114266e-07
1.2702832e-07
1.5159725e-09
1.0148145e-07
6.7543209e-09
3.0904646e-07
1.3759436e-08
4.956263e-07
1.8360189e-08
6.1148802e-07
1.9299712e-08
6.5034006e-07
1.8220961e-08
6.476069e-07
1.674769e-08
6.3570106e-07
1.5406203e-08
6.2642809e-07
1.4176923e-08
6.2022075e-07
1.2987139e-08
6.1565068e-07
1.1810033e-08
6.1199386e-07