/*--------------------------------*- C++ -*----------------------------------*\
  =========                 |
  \\      /  F ield         | OpenFOAM: The Open Source CFD Toolbox
   \\    /   O peration     | Website:  https://openfoam.org
    \\  /    A nd           | Version:  10
     \\/     M anipulation  |
\*---------------------------------------------------------------------------*/
FoamFile
{
    format      ascii;
    class       volScalarField;
    location    "0.18";
    object      TporMedia_0;
}
// * * * * * * * * * * * * * * * * * * * * * * * * * * * * * * * * * * * * * //

dimensions      [0 0 0 1 0 0 0];

internalField   nonuniform List<scalar> 
4000
(
-0.00010075794
4.4144525e-05
0.00029204403
0.00038552579
0.00034267716
0.00040678374
0.00043635382
0.0003900556
0.0003643666
0.00033711833
0.00030376607
0.00036759718
0.00037734817
0.00038634612
0.00039271934
0.00037730369
0.00033300813
0.00048413782
0.0003576441
0.00043696097
0.00031976279
0.00039948426
0.0003389349
0.00035256798
0.00036214779
0.00038531756
0.00037186233
0.00033058755
0.00036839961
0.0003576147
0.00033223694
0.00037653833
0.00038249815
0.00033236601
0.00036765415
0.0003821364
0.00044362137
0.00035317411
0.0003688177
0.00032512485
-1.0150228e-05
1.1768552e-12
2.2728765e-11
2.8003496e-10
1.9761401e-10
2.1057033e-10
2.3776392e-10
1.8953524e-10
1.9204577e-10
2.204387e-10
1.4621098e-10
1.9283212e-10
1.8353655e-10
2.0695905e-10
1.5780426e-10
1.8149102e-10
2.2781442e-10
3.0703823e-10
1.6504509e-10
1.9369519e-10
2.4480653e-10
1.8766948e-10
1.6689353e-10
2.0455169e-10
1.2947792e-10
2.048525e-10
1.6087442e-10
1.7743849e-10
2.2746305e-10
2.177334e-10
1.5967802e-10
1.8098556e-10
2.5154312e-10
1.2590182e-10
2.3529881e-10
1.6770761e-10
1.9547169e-10
1.7305548e-10
1.6019429e-10
1.7196206e-10
-4.1051503e-06
-4.1673852e-13
5.6537939e-19
6.6625132e-17
3.5368661e-16
1.49076e-16
1.3142996e-16
9.7184944e-17
1.6378531e-16
1.1108364e-16
1.0151929e-16
1.9326995e-16
9.1197398e-17
1.2322533e-16
7.1792329e-17
1.0461405e-16
9.2335919e-17
1.5461317e-16
8.8117537e-17
1.1601322e-16
1.5669771e-16
9.6497218e-17
8.283802e-17
9.7592473e-17
7.0009236e-17
9.5123029e-17
1.5000544e-16
1.3351007e-16
1.6506583e-16
1.1439673e-16
1.0295211e-16
9.6263188e-17
1.4276155e-16
8.5357198e-17
1.2196198e-16
7.5564519e-17
1.1709879e-16
9.8635491e-17
1.0509152e-16
1.0109496e-16
-2.2400466e-06
2.924311e-14
4.0198502e-22
3.8305396e-24
8.9396931e-22
1.0373752e-22
7.166016e-23
6.8467699e-23
8.6331492e-23
6.896016e-23
4.8274902e-23
9.8171817e-23
3.9910004e-23
1.2910831e-22
4.7786604e-23
5.7602957e-23
6.0197112e-23
7.9057878e-23
5.1584801e-23
5.4222237e-23
9.6302023e-23
4.7240673e-23
4.5347029e-23
5.6684961e-23
6.2503464e-23
5.8462228e-23
7.3024401e-23
6.4915121e-23
7.6789053e-23
8.7234654e-23
5.6917062e-23
5.2149198e-23
7.2545705e-23
5.1012933e-23
8.6801136e-23
4.4255022e-23
6.1346223e-23
4.8264865e-23
5.1617514e-23
5.4797168e-23
-1.4322114e-06
5.8809903e-15
6.3186503e-23
1.4446032e-30
5.4508256e-28
2.2314612e-28
6.2859694e-29
5.6682173e-29
5.0707935e-29
3.2191215e-29
3.2363029e-29
6.7832812e-29
2.0985542e-29
8.1769617e-29
3.4824161e-29
3.3478217e-29
4.7710639e-29
5.1623498e-29
2.882961e-29
3.2207451e-29
6.3819212e-29
2.318891e-29
3.5043688e-29
3.2116322e-29
3.8627103e-29
4.2288037e-29
4.9155067e-29
3.9723765e-29
5.2525342e-29
5.4794879e-29
2.4012999e-29
2.7463047e-29
4.1425966e-29
3.2879005e-29
5.260685e-29
3.1667746e-29
2.8276788e-29
2.8331281e-29
2.9373129e-29
3.3802251e-29
-1.0157584e-06
2.0157361e-15
2.6755045e-23
2.9325688e-31
5.3962943e-35
-1.1741656e-34
4.6099952e-35
3.3685471e-35
3.4184619e-35
1.6854259e-35
1.9340794e-35
4.9145182e-35
2.0571566e-35
5.9502094e-35
3.0608288e-35
2.2437076e-35
4.0800443e-35
2.6449287e-35
2.1001085e-35
1.876121e-35
3.3858578e-35
1.4773566e-35
2.4580295e-35
1.6240454e-35
1.7781272e-35
2.5868695e-35
2.3648746e-35
2.3989242e-35
3.1012679e-35
4.3685395e-35
1.2360697e-35
1.8456693e-35
2.008695e-35
1.9958878e-35
2.9601887e-35
1.6406733e-35
1.3608011e-35
1.4957373e-35
1.7824197e-35
2.1767793e-35
-7.7483746e-07
9.0155758e-16
-1.4694789e-22
-9.9850742e-31
-3.526895e-38
4.0837438e-41
9.4158557e-41
1.9149574e-41
2.6881719e-41
1.0170455e-41
2.4202815e-41
3.9266013e-41
3.1131363e-41
3.3036529e-41
2.0121463e-41
1.700401e-41
2.8951654e-41
1.2755657e-41
1.3137259e-41
1.9804315e-41
1.9176885e-41
9.0214998e-42
1.5128577e-41
1.2579283e-41
1.0385573e-41
1.2933751e-41
1.2329065e-41
1.4106836e-41
2.764901e-41
2.4595924e-41
7.277231e-42
8.1268127e-42
1.0246265e-41
1.3115138e-41
1.6592868e-41
6.3055855e-42
8.000938e-42
7.1478835e-42
1.2798805e-41
1.2676847e-41
-6.2332978e-07
4.7677161e-16
-2.7938169e-24
-1.3737961e-32
-2.2184784e-40
1.269234e-46
-6.8732341e-47
1.5896584e-47
2.1626013e-47
6.9818179e-48
1.4491586e-47
2.0750634e-47
1.7374243e-47
3.2052205e-47
1.4690513e-47
8.6570514e-48
1.7508887e-47
7.516594e-48
6.9975879e-48
1.2695462e-47
1.0943514e-47
6.3195645e-48
7.6091252e-48
7.527228e-48
5.6736597e-48
6.4767354e-48
1.1704687e-47
1.285138e-47
1.7152524e-47
2.0387935e-47
4.4219867e-48
5.2789611e-48
5.2473127e-48
6.9687517e-48
1.0632842e-47
3.1384577e-48
3.8557207e-48
5.3706349e-48
5.9806855e-48
9.6011964e-48
-5.1949861e-07
2.8148419e-16
-6.4354136e-25
-2.6195088e-33
-2.3104446e-41
-4.9756338e-48
2.2648427e-53
1.6146592e-53
1.3625891e-53
4.8388827e-54
8.9654728e-54
1.4360724e-53
1.2614865e-53
1.8933306e-53
1.1442405e-53
8.0169035e-54
1.2167896e-53
4.9542372e-54
8.718419e-54
1.0152255e-53
5.1910069e-54
3.9656485e-54
5.3355938e-54
7.984355e-54
4.7801451e-54
3.3215133e-54
7.4070491e-54
9.3676047e-54
1.450691e-53
1.221884e-53
2.0654969e-54
4.0228558e-54
4.4248058e-54
6.0194905e-54
7.0120449e-54
1.5423356e-54
2.5252924e-54
2.4829552e-54
3.2180064e-54
4.9452866e-54
-4.419478e-07
1.7846102e-16
-2.1796243e-25
-8.4941834e-34
-4.6730827e-42
-2.6488951e-49
4.3012085e-56
-4.3764139e-59
8.4734989e-60
2.6016271e-60
5.9695429e-60
1.5545804e-59
5.9869042e-60
1.6443163e-59
5.8283098e-60
4.4716434e-60
1.4519085e-59
3.222859e-60
6.5825366e-60
6.0630844e-60
3.7853612e-60
3.1318849e-60
2.930442e-60
4.6305118e-60
2.964088e-60
2.7010077e-60
4.9462186e-60
5.3599116e-60
1.0570038e-59
7.3823394e-60
1.2069021e-60
3.1547805e-60
2.3955241e-60
4.4383202e-60
4.0631119e-60
8.8911236e-61
2.0163468e-60
1.3420223e-60
2.6225689e-60
2.9671462e-60
-3.7862604e-07
1.1817051e-16
-8.8893933e-26
-4.0217494e-34
-1.5134456e-42
-3.5684578e-50
4.6151431e-57
-4.6959182e-63
6.5171984e-66
1.838199e-66
3.821677e-66
1.2787447e-65
4.0311231e-66
1.1182947e-65
4.1721447e-66
3.0344464e-66
1.1949367e-65
2.6764427e-66
4.5545724e-66
3.312169e-66
2.4221629e-66
1.8263642e-66
2.2821227e-66
2.3837978e-66
1.916931e-66
1.6452143e-66
2.7648816e-66
3.3828869e-66
6.0055152e-66
3.8042701e-66
9.3240723e-67
2.6624704e-66
1.2094179e-66
3.5740114e-66
2.310555e-66
5.7155726e-67
1.0221364e-66
6.9459602e-67
1.3524777e-66
1.8336474e-66
-3.2417494e-07
8.027614e-17
-4.0474456e-26
-3.4499408e-34
-9.6036759e-43
-1.1803967e-50
1.7193173e-57
-4.3759189e-64
-2.7801944e-70
1.3667448e-72
1.905421e-72
8.2504346e-72
2.5215356e-72
5.0765274e-72
2.7524386e-72
2.9291188e-72
7.0852263e-72
1.7956997e-72
4.1019519e-72
3.0068913e-72
1.9579571e-72
1.8484248e-72
1.4373365e-72
1.522798e-72
2.0028609e-72
9.6622629e-73
1.7372094e-72
2.9021284e-72
3.9911167e-72
1.8119154e-72
6.3690586e-73
1.395e-72
9.2342e-73
1.6233115e-72
1.4165516e-72
2.7560181e-73
5.8904369e-73
5.3626674e-73
6.4281507e-73
9.3217786e-73
-2.7618382e-07
5.529718e-17
-1.9785622e-26
2.8379432e-34
6.2128433e-43
4.5600026e-51
-1.7987708e-57
2.8385745e-64
1.4957595e-69
1.2885984e-75
1.2087627e-78
4.2965178e-78
1.8455195e-78
2.6525494e-78
3.2990273e-78
1.7318045e-78
6.0548808e-78
1.1461486e-78
3.0264418e-78
1.7362797e-78
1.60301e-78
1.2046765e-78
7.6304593e-79
1.3279021e-78
1.3767352e-78
4.1592471e-79
1.2224682e-78
1.9667557e-78
2.5182187e-78
1.4948829e-78
5.1258593e-79
8.189973e-79
5.1694975e-79
1.0662831e-78
8.6800534e-79
2.141492e-79
4.1716718e-79
2.5155069e-79
4.3461245e-79
5.3049691e-79
-2.3406879e-07
3.8421562e-17
-1.0158287e-26
2.8037965e-35
5.1133411e-44
2.4396795e-52
3.245629e-59
-3.5696102e-66
9.6234618e-72
4.6724619e-78
4.1091018e-84
2.3864882e-84
9.8358069e-85
1.8239792e-84
2.3161286e-84
1.2519623e-84
4.2108196e-84
5.4778399e-85
1.5527243e-84
1.0575455e-84
9.4918158e-85
7.4588231e-85
4.2772977e-85
8.5325929e-85
8.5928245e-85
2.5076482e-85
6.5145244e-85
1.1115303e-84
1.7294898e-84
7.9409776e-85
2.9353224e-85
5.4147392e-85
2.6616046e-85
4.5586761e-85
5.2164433e-85
9.0186516e-86
2.0568394e-85
1.298723e-85
1.8791357e-85
4.2116088e-85
-1.9785407e-07
2.6903603e-17
-5.4173916e-27
6.941555e-36
1.1147558e-44
3.6806416e-53
1.4826488e-60
-1.272258e-67
8.8291709e-74
4.8599014e-80
3.5314721e-86
1.5004379e-90
7.2585411e-91
1.3656924e-90
1.5113535e-90
6.8542961e-91
2.2802377e-90
3.0489845e-91
7.9080119e-91
6.7049454e-91
7.6796654e-91
4.0477163e-91
2.8994172e-91
4.6624874e-91
3.976845e-91
1.476657e-91
3.5163182e-91
6.73507e-91
1.4007019e-90
4.4573307e-91
1.6641073e-91
3.9206831e-91
1.8494378e-91
2.529023e-91
4.8510942e-91
4.5704055e-92
1.1169893e-91
8.5089207e-92
9.726665e-92
2.9397078e-91
-1.6708958e-07
1.8972578e-17
-2.9776451e-27
2.2101746e-36
3.3017086e-45
7.9596981e-54
1.4953192e-61
-1.0065393e-68
2.5071055e-75
1.724184e-81
8.3696964e-88
5.3238423e-94
5.8905533e-97
9.3636606e-97
1.1591029e-96
4.6055778e-97
1.963203e-96
1.9098831e-97
5.4691028e-97
6.7850639e-97
4.7531875e-97
1.997438e-97
1.618116e-97
2.891512e-97
2.3439501e-97
7.2391937e-98
1.7778577e-97
3.2988567e-97
7.0553255e-97
2.5785653e-97
7.7277221e-98
2.5703282e-97
1.0275515e-97
1.2714734e-97
2.5219756e-97
3.1414303e-98
7.3531447e-98
4.5555245e-98
5.3206173e-98
2.5078522e-97
-1.4134913e-07
1.3487716e-17
-1.680161e-27
8.0437825e-37
1.1971798e-45
2.1989709e-54
2.3284359e-62
-1.5904274e-69
2.4704583e-76
2.4824643e-82
1.1316283e-88
6.3995212e-95
4.7649204e-101
5.3322058e-103
5.0200353e-103
2.8859173e-103
1.5401473e-102
1.0064305e-103
2.7482564e-103
4.2421801e-103
2.6337153e-103
1.8903208e-103
1.1057258e-103
1.9096746e-103
1.1189128e-103
4.5870116e-104
9.5673896e-104
1.8709856e-103
3.7425162e-103
1.0853786e-103
4.5973006e-104
1.2417824e-103
5.3903951e-104
5.2405292e-104
1.3662779e-103
1.9407791e-104
3.0552229e-104
2.4078716e-104
2.8206892e-104
1.5450372e-103
-1.1991286e-07
9.6645279e-18
-9.6954315e-28
3.1946909e-37
5.1957196e-46
7.5377303e-55
4.9971898e-63
-4.0479173e-70
4.3006047e-77
1.6898957e-82
1.1349579e-88
5.9171258e-95
3.2438561e-101
2.4608015e-107
2.8060036e-109
2.5802801e-109
9.9706942e-109
7.5094784e-110
1.7156968e-109
2.2549499e-109
2.0069654e-109
1.018634e-109
5.0644611e-110
8.9642646e-110
6.3320578e-110
4.5666458e-110
9.2089574e-110
9.1019386e-110
2.0727411e-109
6.0994995e-110
1.9528714e-110
7.0061529e-110
2.8297617e-110
2.6118924e-110
6.142979e-110
9.8633117e-111
2.8768344e-110
1.5727586e-110
2.0002831e-110
9.5511912e-110
-1.0210274e-07
6.9815483e-18
-5.708764e-28
1.3541192e-37
2.8359056e-46
3.3517405e-55
1.4902444e-63
-2.4855238e-70
1.8678512e-77
-2.1996606e-83
-1.3563247e-89
-8.6276266e-96
-5.3001403e-102
-3.582843e-108
-2.2334806e-114
2.1786677e-115
8.3040394e-115
3.7653084e-116
1.1187845e-115
1.1928775e-115
1.2968828e-115
5.1278303e-116
3.3962073e-116
4.4164982e-116
4.315019e-116
3.4661172e-116
5.7720379e-116
6.8460115e-116
1.6645896e-115
2.9905219e-116
1.0846254e-116
4.1205271e-116
1.3766469e-116
2.4953609e-116
2.4968832e-116
5.4160726e-117
1.955185e-116
7.909919e-117
1.1732716e-116
7.0300464e-116
-8.7251266e-08
5.0813923e-18
-3.4208802e-28
6.0339896e-38
2.5197939e-46
2.4976408e-55
7.8163167e-64
1.0873401e-70
-6.6149363e-78
3.4418161e-84
1.7046535e-90
1.6536791e-96
1.0033431e-102
9.3318013e-109
5.0649096e-115
4.0895421e-121
6.818802e-121
2.2021192e-122
5.5079253e-122
6.0407736e-122
6.4905765e-122
3.6183003e-122
2.0455024e-122
3.3611162e-122
2.8413502e-122
1.8431776e-122
2.9258246e-122
4.3306591e-122
1.1997918e-121
2.1399826e-122
5.9671059e-123
2.1141594e-122
1.0402832e-122
1.1420591e-122
1.7169476e-122
3.7000037e-123
1.086166e-122
4.0019503e-123
6.0526323e-123
6.2839958e-122
-7.4823684e-08
3.7245725e-18
-2.0819213e-28
2.7998724e-38
-2.2305662e-46
-1.9040484e-55
-4.37361e-64
-1.5933437e-71
7.582555e-79
-1.8152912e-85
-1.4555969e-91
-9.1273668e-98
-5.7616042e-104
-3.4265457e-110
-2.103679e-116
-1.4346774e-122
3.8788498e-127
1.5292386e-128
4.0488786e-128
4.1001719e-128
4.9251939e-128
2.8513244e-128
1.3356346e-128
2.1109956e-128
2.2697824e-128
1.1242246e-128
1.3576175e-128
2.5266892e-128
6.1990058e-128
1.0771147e-128
3.5421707e-129
1.0356294e-128
4.4928626e-129
6.7249337e-129
1.126571e-128
1.8618893e-129
4.6931919e-129
1.977399e-129
4.7881565e-129
6.6540747e-128
-6.4368734e-08
2.7476239e-18
-1.2846437e-28
1.3438416e-38
-2.0753702e-47
-1.5662472e-56
-2.724325e-65
-4.747733e-73
2.0688269e-80
-2.9971302e-87
-3.4134177e-93
-2.0722483e-99
-1.1569523e-105
-1.0322029e-111
-5.1877964e-118
-3.5108575e-124
-2.1461136e-130
8.1175464e-135
3.1113358e-134
3.7209383e-134
3.136701e-134
1.8371723e-134
6.8675114e-135
1.7861196e-134
1.3177868e-134
9.3794168e-135
9.4030182e-135
1.1792356e-134
3.554938e-134
7.860261e-135
3.43341e-135
8.7815348e-135
2.8626038e-135
6.1518817e-135
6.6052415e-135
9.653732e-136
3.6338009e-135
1.0982031e-135
2.0712966e-135
2.1381659e-133
-5.5519761e-08
2.038293e-18
-8.022698e-29
6.636022e-39
-4.8911349e-48
-3.3558108e-57
-4.5439244e-66
-4.5478803e-74
1.8075543e-81
-1.8016023e-88
-5.8815296e-94
-4.5366204e-100
-2.3093182e-106
-1.7480471e-112
-1.5514676e-118
-9.74648e-125
-7.6280285e-131
-4.4549408e-137
2.1028435e-140
2.3586269e-140
1.8414858e-140
1.5140555e-140
4.3266417e-141
1.3768006e-140
7.190443e-141
5.8555784e-141
5.0608712e-141
8.249673e-141
1.8925248e-140
4.9653794e-141
1.6336344e-141
4.1008104e-141
1.7959301e-141
5.5430368e-141
3.5002002e-141
5.5461563e-142
1.491191e-141
7.1748566e-142
1.5676253e-141
-9.3424405e-139
-4.7995298e-08
1.5196682e-18
-5.0638891e-29
3.3573511e-39
-1.4660369e-48
-9.4308432e-58
-1.0190084e-66
-6.4996697e-75
2.7355401e-82
-2.0466646e-89
9.7267055e-95
5.5462947e-101
3.3098583e-107
2.2632155e-113
3.3606999e-119
2.7641259e-125
1.9721882e-131
1.0643468e-137
1.00258e-143
1.5889329e-146
1.5287871e-146
1.0380286e-146
2.9717717e-147
1.1483169e-146
2.8691481e-147
5.1569218e-147
3.1053623e-147
5.7301319e-147
1.0764902e-146
3.174567e-147
1.0467641e-147
2.121408e-147
1.1619794e-147
3.5303129e-147
3.2681269e-147
3.454642e-148
6.9247107e-148
7.2945613e-148
1.5960789e-147
1.0177716e-144
-4.1568888e-08
1.1380627e-18
-3.2268865e-29
1.7349884e-39
-4.9703989e-49
-3.1051785e-58
-2.7326776e-67
-1.182988e-75
6.0663052e-83
-3.4837846e-90
2.7639611e-96
1.8088634e-102
1.5093705e-108
9.5724613e-115
7.1460233e-121
5.2134031e-127
3.9275286e-133
3.2181849e-139
3.5179009e-145
2.3476951e-151
8.7482356e-153
7.6212576e-153
2.6490059e-153
9.314767e-153
2.7317305e-153
4.329461e-153
1.9961555e-153
3.526468e-153
8.7751708e-153
1.5589804e-153
6.2376455e-154
1.5982925e-153
7.2041869e-154
2.369345e-153
1.8969972e-153
1.8028287e-154
4.399774e-154
3.342413e-154
3.3658012e-153
-1.4913577e-150
-3.6052146e-08
8.55414e-19
-2.0731734e-29
9.1311703e-40
-1.8257465e-49
-1.1594425e-58
-8.4713968e-68
-2.6082051e-76
2.5659455e-83
-1.2153862e-90
4.1005005e-97
2.2656726e-103
1.9336624e-109
1.5215815e-115
1.0419915e-121
9.6761334e-128
7.5265755e-134
5.7549133e-140
3.2113763e-146
2.7143342e-152
3.1519675e-158
6.0010979e-159
1.3726602e-159
8.2681576e-159
1.8409682e-159
2.9558319e-159
1.5040306e-159
2.2211943e-159
4.4753626e-159
1.1877914e-159
6.4589333e-160
8.5175775e-160
4.3351786e-160
1.0999237e-159
7.5036253e-160
1.9802662e-160
2.2667664e-160
3.9210233e-160
4.3362159e-159
7.8851555e-157
-3.1304389e-08
6.4509027e-19
-1.3418822e-29
4.8840874e-40
-7.1058859e-50
-4.8805921e-59
-3.0154335e-68
-6.8467582e-77
-1.5148059e-83
5.8891906e-91
-1.0357213e-97
-9.6384335e-104
-7.5304899e-110
-6.6781858e-116
-5.9222818e-122
-4.187226e-128
-2.4806629e-134
-3.8384167e-140
-2.7558923e-146
-2.9253683e-152
-2.1322335e-158
-1.0849351e-164
9.6754466e-166
7.2720893e-165
1.490442e-165
2.3645621e-165
1.2126272e-165
1.3521901e-165
3.9586409e-165
8.412896e-166
4.7258209e-166
4.9657414e-166
3.1585826e-166
8.426113e-166
4.187926e-166
1.2886354e-166
1.4561067e-166
2.8884061e-166
2.6421592e-164
-2.9438392e-163
-2.7205496e-08
4.8781842e-19
-8.7415802e-30
2.6498488e-40
-2.8915273e-50
-2.3753477e-59
-1.2625307e-68
-2.1778835e-77
-7.6022418e-85
2.5151179e-92
-3.4539929e-99
-3.8712326e-105
-2.4379785e-111
-1.7975014e-117
-2.1929698e-123
-1.7302729e-129
-2.4005168e-135
-1.4018626e-141
-8.9997355e-148
-8.0218616e-154
-1.2946977e-159
-1.1733733e-165
-1.3853329e-172
5.0355382e-171
1.4081719e-171
2.7348678e-171
7.7157447e-172
7.3964173e-172
3.2249794e-171
4.1406139e-172
3.3522544e-172
3.68672e-172
1.5745003e-172
6.4752521e-172
4.1473997e-172
1.4544164e-172
8.8075842e-173
1.7600358e-172
1.1842999e-169
1.0605224e-169
-2.3660552e-08
3.6977565e-19
-5.7277037e-30
1.4560266e-40
-1.2200081e-50
-1.4741823e-59
-6.8559412e-69
-9.1846545e-78
-1.5249437e-85
4.6805529e-93
-4.4757932e-100
-9.475529e-106
-8.4321757e-112
-8.8891551e-118
-8.0755829e-124
-7.9415765e-130
-6.7977609e-136
-1.1706078e-141
-1.1126217e-147
-6.9200874e-154
-7.8014527e-160
-5.2904684e-166
-3.8390934e-172
4.55744e-177
1.1471552e-177
1.7943027e-177
1.2548764e-177
5.5427838e-178
2.5138934e-177
3.4741562e-178
2.3858176e-178
1.9780167e-178
8.8115447e-179
5.4546138e-178
2.3388752e-178
1.2514151e-178
7.7230731e-179
1.2573382e-178
-1.0085206e-175
-4.0191024e-176
-2.0588645e-08
2.8085996e-19
-3.772002e-30
8.0911381e-41
-5.3038667e-51
-2.0885838e-59
-8.6392324e-69
-9.1872633e-78
-8.7716318e-86
2.5183042e-93
-1.8427023e-100
4.6411505e-106
5.6384726e-112
5.4659957e-118
7.184355e-124
1.2424922e-129
1.148885e-135
1.1878845e-141
1.0339552e-147
7.4736855e-154
6.5659354e-160
4.9080133e-166
5.5465736e-172
6.7749389e-178
1.5463217e-183
1.7044147e-183
1.3325517e-183
4.6150829e-184
1.568446e-183
3.9282192e-184
1.827534e-184
2.1646838e-184
5.0840752e-185
3.4750371e-184
1.6882347e-184
8.5881669e-185
8.0782499e-185
1.7490451e-184
-5.0279001e-181
2.0683236e-182
-1.7923983e-08
2.1369796e-19
-2.4953205e-30
4.5420493e-41
-2.3656788e-51
4.3363621e-60
1.6224323e-69
1.3932777e-78
8.5531383e-87
-2.525815e-94
1.4330098e-101
-9.3612897e-108
-1.1773184e-113
-1.9761539e-119
-1.6208761e-125
-1.5007811e-131
-1.6510923e-137
-1.6143959e-143
-1.0900809e-149
-1.0820449e-155
-1.1829363e-161
-8.6376746e-168
-1.0030281e-173
-7.0954867e-180
-7.8897946e-186
1.2782626e-189
1.0666138e-189
5.8694626e-190
1.6109299e-189
3.0640662e-190
1.2956578e-190
1.9652361e-190
3.2784962e-191
1.9607604e-190
1.4023092e-190
5.273896e-191
7.9014566e-191
2.3344785e-190
8.717986e-187
-1.226749e-187
-1.5608979e-08
1.6281843e-19
-1.6571999e-30
2.5727335e-41
-1.0786989e-51
6.6947761e-61
2.3078351e-70
1.6289305e-79
6.873912e-88
-2.283075e-95
1.0695991e-102
-4.1156432e-109
-3.4746624e-115
-5.1591527e-121
-3.2415983e-127
-4.2739664e-133
-3.2919773e-139
-3.4665431e-145
-3.3668284e-151
-3.8158143e-157
-2.8134989e-163
-6.584133e-169
-8.2858555e-175
-1.1942925e-180
-8.2358945e-187
-1.0613037e-192
1.0248446e-195
4.948778e-196
1.2562592e-195
4.128521e-196
1.1633353e-196
1.2934256e-196
2.6751838e-197
1.3936446e-196
1.1688567e-196
5.4824461e-197
6.9967225e-197
2.8983985e-196
8.1384023e-192
-6.5413863e-194
-1.359611e-08
1.2419134e-19
-1.1043446e-30
1.469008e-41
-5.0141297e-52
1.6741518e-61
5.4230674e-71
3.1910853e-80
9.6441228e-89
-4.1427892e-96
1.6447596e-103
-3.9590185e-110
-5.0566035e-116
-5.5797927e-122
-1.222266e-127
-8.5119069e-134
-8.4942296e-140
-6.9997835e-146
-1.1333652e-151
-1.413687e-157
-1.7180457e-163
-2.1067887e-169
-2.1895842e-175
-3.9403491e-181
-4.3829397e-187
-5.4878328e-193
-6.1607373e-199
3.5582173e-202
1.8451373e-201
6.1241841e-202
8.7504675e-203
7.6097805e-203
1.5254162e-203
7.316594e-203
6.7728476e-203
5.7614318e-203
7.856322e-203
-2.4087848e-202
-4.4137537e-196
-1.6175212e-200
-1.1845085e-08
9.4812064e-20
-7.3809019e-31
8.4482212e-42
-2.3702926e-52
4.9897889e-62
1.553141e-71
7.7293789e-81
1.7441182e-89
-1.6540824e-96
5.5894122e-104
-1.0328013e-110
-1.8320426e-116
-1.4599999e-122
-2.1253067e-128
-2.9955816e-134
-4.4991113e-140
-3.1902881e-146
-3.7116599e-152
-1.0563052e-157
-1.1423938e-163
-2.1217956e-169
-2.2355463e-175
-3.6433787e-181
-5.3859776e-187
-5.4224079e-193
-4.5791707e-199
-4.4482883e-205
1.3525332e-207
7.8105309e-208
6.4993005e-209
5.5785228e-209
1.6792799e-209
5.2111135e-209
1.0718337e-208
9.2847322e-209
7.4764194e-209
-5.8152171e-208
-7.8344352e-202
-2.8230643e-207
-1.0321558e-08
7.2435852e-20
-4.9457905e-31
4.889985e-42
-1.1375013e-52
1.6397719e-62
5.0371509e-72
2.1472129e-81
3.7029509e-90
4.3608499e-97
-1.310697e-104
1.4944476e-111
1.1169754e-116
2.0968106e-122
3.6238493e-128
4.701449e-134
8.3787141e-140
9.3311316e-146
1.5726486e-151
1.8156883e-157
1.8562407e-163
3.2280561e-169
1.0361164e-174
1.3598028e-180
1.294952e-186
3.0499863e-192
6.6770452e-198
1.1204558e-203
1.7034786e-209
1.7172468e-213
1.2777186e-214
5.4733912e-215
1.4523921e-215
3.8759541e-215
1.7841465e-214
1.1773157e-214
7.5084955e-215
7.5354882e-214
-4.3233331e-208
-4.2662946e-214
-8.9960208e-09
5.5372993e-20
-3.3214203e-31
2.8467739e-42
-5.5323801e-53
5.7488534e-63
1.802709e-72
6.6636685e-82
8.979549e-91
2.5512006e-98
-6.8603875e-106
6.3058679e-113
-1.3231964e-118
-1.9800974e-124
-2.7085389e-130
-3.3340281e-136
-6.074639e-142
-2.1004884e-147
-1.3766099e-152
-1.8912814e-158
-3.518325e-164
-3.4939817e-170
-4.2337497e-176
-1.5677342e-181
-1.4387537e-187
-2.4446596e-193
-2.9591244e-199
-3.6897024e-205
-6.504603e-211
-5.1740668e-217
1.2807646e-220
5.3356312e-221
1.245571e-221
3.8538346e-221
1.5473894e-220
2.7681237e-220
2.2255672e-220
8.6270565e-219
-2.524321e-214
-8.00496e-221
-7.8433401e-09
4.2354096e-20
-2.2350252e-31
1.6660065e-42
-2.7234601e-53
2.1142823e-63
7.0839388e-73
2.2991354e-82
2.4705198e-91
3.4783555e-99
-8.9022671e-107
6.4939303e-114
-6.7363971e-120
-2.3597605e-125
-3.8069615e-130
-7.0267062e-136
-8.0387272e-142
-1.6325107e-147
-4.648094e-153
8.3147991e-159
1.4105619e-164
1.4276631e-170
2.7914147e-176
3.8693276e-182
1.0456168e-187
2.4024352e-193
2.704015e-199
4.9732612e-205
1.2651188e-210
1.6246165e-216
2.0206784e-222
5.5584222e-227
1.3958561e-227
1.5394453e-226
5.0001944e-226
5.8271537e-226
8.391668e-225
1.0334789e-224
-1.1657753e-220
-2.1198589e-227
-6.8421127e-09
3.2417683e-20
-1.5068401e-31
9.7976429e-43
-1.3556209e-53
8.0730207e-64
3.0955373e-73
8.926469e-83
7.7676657e-92
6.5633387e-100
-1.6506886e-107
9.4485128e-115
-5.3772427e-121
-9.7603254e-127
1.5931144e-131
2.3273114e-137
6.5507627e-143
1.1356906e-148
2.4775044e-154
2.8773849e-160
1.4037767e-165
1.5874437e-171
5.7980114e-177
9.4034106e-183
3.6941769e-188
5.8068982e-194
1.120002e-199
1.5212845e-205
3.4140217e-211
5.7988447e-217
1.1022721e-222
1.1497344e-228
1.4479898e-233
1.4174363e-232
1.5752137e-231
1.5696007e-231
5.8828466e-230
1.5771532e-230
-3.9553841e-227
-6.1236772e-234
-5.9734024e-09
2.4833652e-20
-1.017833e-31
5.7886205e-43
-6.8170672e-54
3.1794316e-64
1.5716399e-73
4.0751953e-83
2.9173704e-92
1.6382233e-100
-4.1889492e-108
2.1017335e-115
-6.1383566e-122
-2.1753719e-127
-2.8512389e-133
3.0991119e-138
-1.2209593e-143
-3.1580871e-148
-6.0217123e-154
-2.0794727e-159
9.6439924e-165
5.4653409e-170
4.1849264e-175
9.8407489e-181
2.1363028e-186
4.962392e-192
2.8031666e-197
5.1552346e-203
6.4772391e-209
1.2847545e-214
1.2111358e-220
1.0129755e-226
8.674765e-233
2.690637e-238
1.4321428e-237
9.4050192e-237
2.8739805e-235
2.0447188e-236
-9.1076161e-234
-1.4144058e-240
-5.2209077e-09
1.9046449e-20
-6.889337e-32
3.4355391e-43
-3.4613517e-54
1.2856047e-64
1.0837562e-73
2.5580583e-83
1.5267309e-92
6.0306175e-101
-1.7216405e-108
7.1251527e-116
-1.6024147e-122
3.3343834e-127
4.5210651e-133
1.1268676e-138
2.2070459e-143
1.4810928e-148
-5.3161576e-154
-1.5494353e-159
1.1602481e-164
2.2009225e-170
-3.6661788e-175
-5.3638847e-181
-1.208126e-186
-1.8075412e-192
-5.1931751e-198
-1.6048058e-203
-2.4105002e-209
-5.1558569e-215
-8.4380823e-221
-7.8401881e-227
-1.3239564e-232
-2.4600625e-238
3.3730653e-243
3.5550431e-242
-3.875721e-241
2.6623526e-242
-1.8847184e-240
-2.9057556e-247
-4.570319e-09
1.4631819e-20
-4.6740589e-32
2.0483796e-43
-1.7738815e-54
5.3198259e-65
1.0392204e-72
2.2613296e-82
1.1385821e-91
3.3017468e-100
-1.2351814e-107
4.4648673e-115
-7.2419316e-122
-9.1361444e-127
-3.0294735e-132
6.4467444e-138
2.4829792e-143
-2.7389935e-148
-1.0802047e-153
2.0589625e-159
-3.8830214e-165
-6.1239988e-171
5.6673976e-176
1.893697e-181
1.4852569e-186
3.6022348e-192
1.3265612e-197
3.9484977e-200
6.5918251e-206
-2.4267641e-211
-6.4694954e-217
-1.9006704e-222
-2.7546369e-228
-4.4111831e-234
-1.4613437e-239
4.3242569e-244
2.6968339e-246
2.9749608e-248
-3.5466171e-247
-5.5619423e-254
-4.0090777e-09
1.1265962e-20
-3.1801412e-32
1.2272865e-43
-9.1746785e-55
2.2480856e-65
-1.5685989e-74
-3.1903009e-84
-1.3709692e-93
-3.0189467e-102
2.0800357e-109
-6.6230356e-117
8.0868338e-124
-1.6547393e-129
-3.8749027e-135
1.7958416e-140
-8.6576698e-146
4.3446402e-151
-1.1524545e-156
2.2838057e-162
9.6759548e-168
-3.1340312e-172
1.0128761e-177
4.1408934e-183
-1.8555562e-188
1.0187521e-192
1.836948e-198
3.0486147e-204
-1.3535989e-209
-2.9242915e-215
-5.1650086e-221
-8.8800682e-227
-4.3709897e-232
-4.3311579e-238
-2.4339583e-243
3.485129e-249
-4.850825e-252
2.0698694e-254
-5.4102198e-254
-8.1853998e-261
-3.5260377e-09
8.7007245e-21
-2.171295e-32
7.3926456e-44
-4.7895505e-55
9.6870088e-66
-2.9143166e-75
-5.6222208e-85
-2.0853169e-94
-3.5695116e-103
-1.2523151e-109
3.6947016e-117
-3.8022941e-124
2.6089793e-130
-1.0498873e-135
1.7023015e-141
-1.1078942e-146
1.8024704e-152
3.496817e-158
-2.2176243e-163
7.729694e-169
-1.0589177e-173
3.9813635e-179
-2.6311645e-184
-8.6549178e-189
6.3816388e-194
-4.1475235e-199
-3.1301166e-204
-5.719339e-210
-2.6452283e-215
-1.31841e-219
-2.6044183e-225
-7.0414849e-230
2.1210237e-235
1.8064719e-240
-4.797516e-246
1.1892901e-250
1.1576858e-256
-8.1880071e-261
-1.2831664e-267
-3.1114298e-09
6.746474e-21
-1.489022e-32
4.4800422e-44
-2.5247323e-55
4.2525532e-66
-7.4850733e-76
-1.3925839e-85
-4.5042098e-95
-6.1156083e-104
-2.3331771e-111
6.3413502e-119
-5.4403772e-126
3.8829762e-132
3.9445926e-137
-1.86537e-142
7.6111202e-148
-7.697608e-154
2.1592636e-159
-3.508199e-165
5.3756051e-171
2.3947679e-176
-6.8722699e-182
-2.005872e-186
-1.812323e-191
6.2130763e-197
-1.2800143e-202
2.2353355e-207
3.9544701e-213
-1.0217712e-218
6.6444565e-224
1.3424424e-229
1.7538215e-235
1.0764411e-240
-7.8754999e-246
1.174845e-251
-1.4911613e-256
-1.9911176e-263
-1.1320258e-267
-1.746214e-274
-2.7566098e-09
5.258082e-21
-1.0268138e-32
2.7341408e-44
-1.3448096e-55
1.9014955e-66
-2.2178472e-76
-4.0564017e-86
-1.155643e-95
-1.2704296e-104
-2.2096688e-112
5.7832213e-120
-4.2048441e-127
1.6627439e-133
-6.9909454e-139
2.5386349e-144
-4.417113e-150
1.0247345e-155
-1.8136438e-161
3.1128844e-167
-1.2176035e-171
2.0935146e-177
-8.4489449e-183
-1.0009133e-187
4.1483571e-193
6.567177e-198
-1.756706e-203
2.0003324e-208
-3.0166251e-214
-1.3719779e-219
-3.0983239e-225
4.3580493e-230
9.7106928e-236
-4.8383862e-241
9.6493244e-247
-1.32208e-252
2.4440842e-258
1.3451085e-264
1.6074591e-271
1.1825427e-278
-2.4539741e-09
4.1245848e-21
-7.130141e-33
1.6825409e-44
-7.2456691e-56
8.6617401e-67
-7.1765997e-77
-1.3209958e-86
-3.3473186e-96
-3.0194776e-105
-3.0790382e-113
8.0514989e-121
-4.8377448e-128
1.6909254e-134
-3.8886912e-140
6.2195e-146
-5.1917089e-151
4.1795962e-157
-5.7475667e-163
4.2427193e-168
-5.4305691e-174
3.9523845e-180
-7.9954534e-186
1.0953064e-191
-1.6222837e-197
1.7664667e-203
-1.7960785e-211
-8.329608e-214
6.8064152e-219
6.0661342e-224
-8.4020201e-230
1.0092511e-235
3.1865077e-240
9.4734179e-246
-1.2225149e-251
1.1460335e-257
-1.6607655e-263
-6.768052e-270
-8.5369871e-277
-5.9136526e-284
-2.196835e-09
3.2612661e-21
-4.9939878e-33
1.0457053e-44
-3.9543097e-56
4.0225609e-67
-2.4761272e-77
-4.7216181e-87
-1.0749646e-96
-8.0741559e-106
-5.4515128e-114
1.4523582e-121
-7.7122375e-129
2.0026855e-135
-1.7607112e-141
2.5566995e-147
-2.7854653e-153
5.814997e-159
-9.4305394e-165
1.7052092e-170
-1.3387614e-176
1.234185e-182
-6.9546984e-188
1.0172733e-193
-9.9378559e-200
2.0999764e-205
-3.332041e-211
4.3739274e-217
-5.6028271e-223
7.5999635e-229
-1.960586e-234
3.3745353e-239
-4.853805e-245
7.0756066e-251
-3.7182546e-257
1.8630694e-263
-2.2083585e-270
-3.4959097e-276
-4.5267234e-283
-3.5714062e-290
-1.9793158e-09
2.6034833e-21
-3.5349029e-33
6.5761836e-45
-2.189714e-56
1.9067726e-67
-9.0025652e-78
-1.849758e-87
-3.8199872e-97
-2.4190224e-106
-1.1611657e-114
3.4720744e-122
-1.6119209e-129
3.1159149e-136
-2.1936271e-142
3.409985e-148
-2.2353103e-154
2.0023729e-160
-1.1187859e-166
1.8106371e-172
-1.1650951e-178
9.8347715e-185
-6.3843622e-191
8.5085982e-197
-9.7053309e-203
1.3767101e-208
-2.1889928e-214
2.2758766e-220
-9.051863e-226
8.3749454e-232
-7.02486e-238
1.1617071e-243
-1.3131518e-249
2.1814483e-255
-1.1843972e-261
5.4090687e-268
-3.3923524e-274
-1.7665123e-280
-1.9777652e-287
-1.3576996e-294
-1.796283e-09
2.1020536e-21
-2.5341273e-33
4.1939247e-45
-1.2329354e-56
9.2410185e-68
-3.4281304e-78
-8.0359125e-88
-1.5206422e-97
-8.2152022e-107
-2.9178871e-115
1.067163e-122
-4.3247932e-130
6.2218587e-137
-3.5433376e-143
2.9938119e-149
-2.1857103e-155
1.8051301e-161
-1.4783642e-167
1.0981334e-173
-1.1195981e-179
7.5614475e-186
-7.9053323e-192
1.0215903e-197
-1.1695778e-203
7.956225e-210
-1.238681e-215
1.7167345e-221
-1.8596742e-227
2.6559247e-233
-3.0943301e-239
3.8360047e-245
-3.950422e-251
4.4044571e-257
-3.0169905e-263
1.2854119e-269
-7.7598675e-276
-2.9924621e-282
-3.1234874e-289
-2.2470753e-296
-1.6432625e-09
1.7196069e-21
-1.8442549e-33
2.719102e-45
-7.0757719e-57
4.5884118e-68
-1.3632409e-78
-4.0036256e-88
-7.0158173e-98
-3.2670726e-107
-8.9210941e-116
5.0820013e-123
-1.9122302e-130
2.465472e-137
-1.1844998e-143
9.6143926e-150
-4.666532e-156
3.2517488e-162
-1.6676344e-168
1.0523413e-174
-4.863779e-181
2.5588622e-187
-1.2455455e-193
1.143086e-199
-5.7436768e-206
6.2176019e-212
-4.9764442e-218
3.8409137e-224
-4.7955776e-230
5.3839616e-236
-5.2882341e-242
5.4912765e-248
-5.6720277e-254
2.3412984e-260
-1.1648039e-266