/*--------------------------------*- C++ -*----------------------------------*\
  =========                 |
  \\      /  F ield         | OpenFOAM: The Open Source CFD Toolbox
   \\    /   O peration     | Website:  https://openfoam.org
    \\  /    A nd           | Version:  10
     \\/     M anipulation  |
\*---------------------------------------------------------------------------*/
FoamFile
{
    format      ascii;
    class       volScalarField;
    location    "0.18";
    object      TporMedia;
}
// * * * * * * * * * * * * * * * * * * * * * * * * * * * * * * * * * * * * * //

dimensions      [0 0 0 1 0 0 0];

internalField   nonuniform List<scalar> 
4000
(
-0.00010403792
4.5765261e-05
0.0002813394
0.00047353656
0.00037390447
0.00035539504
0.00046613956
0.00054934754
0.00036410527
0.00033798225
0.00032186072
0.000382374
0.00038977668
0.00032191269
0.00030743473
0.00036312296
0.00044929071
0.00029128355
0.00036347451
0.0005184036
0.00031171651
0.00036080727
0.0004110453
0.00035496301
0.00034076278
0.00031824777
0.00034979007
0.00037983099
0.00034804789
0.00045631296
0.00044163496
0.00038594292
0.0003694657
0.00036049694
0.00036299584
0.00032285684
0.00034481061
0.00033200353
0.00037714445
0.00030341455
-1.0606843e-05
1.2775214e-12
2.2787108e-11
3.3721274e-10
2.0231513e-10
1.9066681e-10
2.2509134e-10
3.6037693e-10
2.0952313e-10
2.1760194e-10
1.4919817e-10
2.1964e-10
2.300834e-10
1.5367821e-10
2.023027e-10
1.7132997e-10
2.4419456e-10
1.4623855e-10
1.55032e-10
2.8835138e-10
1.5662333e-10
2.5611946e-10
2.0882501e-10
2.0007829e-10
1.5708448e-10
1.9631616e-10
1.7792692e-10
2.2861594e-10
2.0494017e-10
2.5701548e-10
1.898615e-10
1.667321e-10
1.7466386e-10
1.9725912e-10
1.5576434e-10
2.1219941e-10
1.8902209e-10
1.926614e-10
1.9609316e-10
1.5759233e-10
-4.2987551e-06
-4.8097224e-13
6.027294e-19
7.3458427e-17
3.2491119e-16
1.4153222e-16
2.0582335e-16
1.9143033e-16
1.2484044e-16
1.3524507e-16
9.3279114e-17
1.6700838e-16
1.3976313e-16
8.2049174e-17
1.5223301e-16
9.9433802e-17
1.0701307e-16
7.9613527e-17
1.2723115e-16
1.7564542e-16
7.9788235e-17
1.2834803e-16
1.3587949e-16
1.0561367e-16
8.7675751e-17
1.0329586e-16
1.2426288e-16
2.0152143e-16
1.0741051e-16
1.2747514e-16
1.3270777e-16
7.7752896e-17
1.265852e-16
1.529594e-16
7.9655005e-17
1.1769268e-16
9.3009526e-17
1.247683e-16
9.2432769e-17
8.3411081e-17
-2.3401989e-06
3.2519187e-14
4.6851783e-22
4.330977e-24
-1.4091911e-21
9.0701241e-23
9.0090357e-23
1.171293e-22
7.2273647e-23
9.1277625e-23
6.171438e-23
8.2418934e-23
6.7317273e-23
6.5249805e-23
1.2561527e-22
5.2977089e-23
8.4756349e-23
4.6001382e-23
7.0397725e-23
9.9169166e-23
4.6849544e-23
8.6288333e-23
6.2937489e-23
5.9844892e-23
4.4666435e-23
7.2636852e-23
9.5880574e-23
9.6750794e-23
6.1504944e-23
8.2256291e-23
6.8701852e-23
5.2397164e-23
5.8130424e-23
8.8900416e-23
4.7191333e-23
6.194505e-23
5.729073e-23
5.8043638e-23
4.4761831e-23
6.2110114e-23
-1.4991505e-06
6.4282905e-15
7.2207862e-23
1.7229582e-30
-9.6323431e-28
8.062893e-29
5.2618941e-29
5.8939319e-29
5.1058576e-29
7.1440711e-29
4.3672711e-29
4.7896958e-29
4.1615318e-29
4.2196007e-29
7.0433252e-29
3.1768703e-29
5.0956072e-29
3.4826131e-29
4.6906881e-29
7.0095318e-29
3.4524841e-29
5.2486167e-29
4.4315436e-29
3.2973431e-29
3.0669467e-29
4.0710748e-29
6.8727736e-29
6.8912563e-29
2.7748171e-29
3.6597951e-29
5.0877828e-29
3.6194322e-29
4.1313753e-29
4.2162449e-29
1.9301526e-29
4.0589412e-29
3.8740116e-29
3.6656511e-29
2.0903369e-29
3.1493348e-29
-1.0622252e-06
2.2051786e-15
3.0600081e-23
3.5122558e-31
-1.0989051e-34
-5.1676831e-35
7.6407065e-35
3.2558197e-35
3.8193043e-35
6.4506185e-35
1.7875931e-35
3.4664519e-35
2.8467778e-35
4.3723715e-35
4.6741137e-35
2.0444273e-35
3.2250838e-35
1.8525875e-35
4.962981e-35
3.9550181e-35
1.5647604e-35
3.056307e-35
2.8834453e-35
1.7342577e-35
1.4160564e-35
2.2942608e-35
3.78718e-35
5.8872984e-35
1.6017335e-35
2.1548456e-35
2.7987206e-35
2.3179123e-35
2.6551603e-35
2.466758e-35
1.3505776e-35
2.87743e-35
2.7251465e-35
3.4102063e-35
1.0325887e-35
1.7816856e-35
-8.1082316e-07
9.8686475e-16
-1.728227e-22
-1.2290271e-30
-4.5218037e-38
2.1466255e-41
-7.7368667e-40
2.8486193e-41
2.6179797e-41
3.7661727e-41
1.8039369e-41
1.6401845e-41
1.64378e-41
2.6718953e-41
2.7722543e-41
9.8446307e-42
1.6439961e-41
1.0815409e-41
2.5819574e-41
2.3101726e-41
9.1954388e-42
1.8044261e-41
2.1835993e-41
1.4187364e-41
8.0063685e-42
1.3614207e-41
2.2998938e-41
3.9117178e-41
9.069304e-42
1.7440835e-41
1.6822352e-41
1.2658143e-41
1.5602109e-41
1.8858805e-41
7.7455337e-42
1.3591759e-41
1.2659827e-41
1.58235e-41
5.5999437e-42
1.013775e-41
-6.5206502e-07
5.2175058e-16
-3.1914303e-24
-1.6412293e-32
-2.7480651e-40
2.1501716e-46
7.1603052e-46
2.6877826e-47
1.7875955e-47
1.9421979e-47
1.6096509e-47
1.0752883e-47
1.0481994e-47
2.3209287e-47
1.9403004e-47
1.3452626e-47
1.1489936e-47
9.9249333e-48
1.5942115e-47
2.1885489e-47
7.2447271e-48
1.3780338e-47
1.7810689e-47
8.4673838e-48
8.9470324e-48
8.0793325e-48
1.1234181e-47
2.2178445e-47
5.213007e-48
1.2942142e-47
9.7344711e-48
6.2242225e-48
9.9322606e-48
1.0893595e-47
3.4899024e-48
1.0562422e-47
5.4767418e-48
8.6060693e-48
2.3332988e-48
7.5311688e-48
-5.433634e-07
3.078922e-16
-7.3797246e-25
-3.1518915e-33
-2.9023128e-41
-7.1255803e-48
-2.5127577e-52
4.6833285e-53
7.8666538e-54
1.060858e-53
1.090826e-53
6.956829e-54
7.1119166e-54
1.0183453e-53
1.0272504e-53
7.6082303e-54
9.4019895e-54
6.1905836e-54
8.9910704e-54
1.9042358e-53
6.3800355e-54
9.3382184e-54
1.1197367e-53
4.8120618e-54
4.9860598e-54
6.1314778e-54
1.1083125e-53
1.5510745e-53
3.7349128e-54
1.33756e-53
7.0074752e-54
3.2060182e-54
7.6058522e-54
5.3618706e-54
2.3875637e-54
5.9669042e-54
3.0148616e-54
5.7394453e-54
1.2158742e-54
3.7674284e-54
-4.6200006e-07
1.9517494e-16
-2.4937025e-25
-1.0138397e-33
-5.8423979e-42
-3.3539848e-49
6.5985984e-56
-7.6383564e-59
5.6866097e-60
9.0547661e-60
5.8460946e-60
4.0925305e-60
5.0323692e-60
6.8295374e-60
5.3564504e-60
6.2208426e-60
5.4690117e-60
6.0367181e-60
6.3566293e-60
1.180768e-59
4.6444844e-60
5.8071597e-60
7.3531247e-60
2.9917244e-60
2.5205146e-60
3.1545994e-60
7.2401189e-60
8.749946e-60
2.4877105e-60
9.0601709e-60
3.7227538e-60
2.0146637e-60
5.2413084e-60
3.5135572e-60
1.0923719e-60
3.0726534e-60
1.598406e-60
3.3117159e-60
8.2049581e-61
1.6336177e-60
-3.9598598e-07
1.2925993e-16
-1.0166066e-25
-4.8195393e-34
-1.8992788e-42
-4.6491435e-50
6.7976829e-57
-4.4218247e-63
3.9518807e-66
7.3186537e-66
3.8725924e-66
3.2090216e-66
4.4178133e-66
6.5113973e-66
3.7752973e-66
4.4210736e-66
4.869553e-66
3.9843274e-66
4.1179897e-66
5.942988e-66
2.4747049e-66
4.0675324e-66
5.365237e-66
2.335872e-66
1.204533e-66
3.1339862e-66
5.2053505e-66
8.9196489e-66
2.586762e-66
4.0143539e-66
1.9469768e-66
1.2661243e-66
3.3252223e-66
2.3506361e-66
8.4525415e-67
1.79802e-66
8.403072e-67
2.1449822e-66
4.8529808e-67
1.0616592e-66
-3.3896317e-07
8.7754054e-17
-4.6273538e-26
-4.1355315e-34
-1.2036358e-42
-1.5451693e-50
2.3288123e-57
-6.9378994e-64
-5.8751898e-70
5.8078769e-72
3.0872561e-72
1.9493704e-72
2.8172801e-72
6.4392952e-72
2.6389739e-72
3.6152161e-72
3.39993e-72
2.4834886e-72
2.3525158e-72
3.5306518e-72
1.3027544e-72
2.4905428e-72
4.1029492e-72
2.4571176e-72
8.6759593e-73
2.6702653e-72
3.0747263e-72
8.8989415e-72
1.711157e-72
2.7259311e-72
1.5086118e-72
7.6418306e-73
2.2510715e-72
1.4875951e-72
5.5707765e-73
8.9716993e-73
7.9241826e-73
9.2919821e-73
2.5563827e-73
5.41385e-73
-2.8869137e-07
6.0421647e-17
-2.2596949e-26
3.390262e-34
7.7694359e-43
5.9588753e-51
-1.9923031e-57
3.2007103e-64
-8.0714752e-69
-5.2102036e-75
2.3042288e-78
1.2103031e-78
1.5711501e-78
3.6017873e-78
2.4985575e-78
1.9441601e-78
2.0427885e-78
2.037551e-78
1.4914537e-78
2.4891039e-78
1.2850522e-78
1.7752745e-78
3.1749137e-78
2.0706633e-78
5.6547569e-79
2.3341406e-78
2.2872874e-78
4.0159922e-78
2.2726882e-78
1.7149856e-78
8.529052e-79
5.6954411e-79
1.0030612e-78
1.0204828e-78
3.8742275e-79
4.8339419e-79
3.7184653e-79
6.6457627e-79
1.3207332e-79
2.6578436e-79
-2.4469103e-07
4.1975763e-17
-1.1598147e-26
3.3421788e-35
6.369488e-44
3.1751693e-52
4.6690124e-59
-5.3327267e-66
8.0066112e-72
6.0956494e-78
7.1316797e-84
6.1754744e-85
9.1181393e-85
2.7818589e-84
1.5021613e-84
1.1398269e-84
1.182811e-84
1.232848e-84
1.0297213e-84
1.2754441e-84
1.0970841e-84
1.1977765e-84
2.6625933e-84
1.0081874e-84
5.084695e-85
1.3901339e-84
1.0560754e-84
1.8950632e-84
2.0525218e-84
8.2950144e-85
4.2867239e-85
4.0107767e-85
6.8946182e-85
4.9163945e-85
3.2079659e-85
2.7991187e-85
2.1551866e-85
3.8134528e-85
8.8492782e-86
1.7078366e-85
-2.0678079e-07
2.9381345e-17
-6.1814834e-27
8.2812234e-36
1.3896314e-44
4.7969302e-53
1.9986372e-60
-1.7309452e-67
9.1820062e-74
5.9922586e-80
2.6779537e-86
4.305208e-91
4.2325646e-91
3.0727125e-90
1.2467376e-90
7.6532809e-91
5.6793514e-91
1.3981491e-90
6.2931415e-91
1.2263643e-90
6.8042884e-91
6.9063828e-91
1.3445657e-90
7.3768465e-91
3.6205674e-91
1.2769713e-90
6.5442215e-91
1.1855511e-90
1.7644359e-90
3.5377272e-91
2.6969285e-91
2.285836e-91
3.8303165e-91
2.9947078e-91
1.7667886e-91
1.3809617e-91
1.2376995e-91
2.2171731e-91
4.0848433e-92
9.263568e-92
-1.7460245e-07
2.0713421e-17
-3.3961656e-27
2.6324618e-36
4.1073817e-45
1.0350945e-53
2.026338e-61
-1.5255346e-68
4.431217e-75
2.9616098e-81
2.4356691e-87
1.6258616e-93
2.5883029e-97
1.9842224e-96
8.2643926e-97
3.466204e-97
3.9517304e-97
7.9461697e-97
4.6284712e-97
7.0039023e-97
4.2781448e-97
5.4707377e-97
8.9857922e-97
4.4180459e-97
1.9536064e-97
7.2259751e-97
4.0460467e-97
1.0217814e-96
1.3057466e-96
2.1394645e-97
1.6098758e-97
1.4292645e-97
2.1863934e-97
2.3360756e-97
8.8611131e-98
6.6995812e-98
8.5159738e-98
1.237515e-97
2.232707e-98
7.6820915e-98
-1.4774903e-07
1.4728339e-17
-1.9162974e-27
9.5821929e-37
1.4902809e-45
2.8632722e-54
3.1988658e-62
-2.251027e-69
3.7350329e-76
2.7116066e-82
1.5281187e-88
8.6650551e-95
4.4107391e-101
1.1990028e-102
4.0925978e-103
2.217943e-103
2.2277743e-103
5.7064469e-103
3.363375e-103
4.4421417e-103
3.0725573e-103
3.0763806e-103
7.4991694e-103
2.7560385e-103
9.8540627e-104
4.4055447e-103
2.3866666e-103
6.7680013e-103
1.0501121e-102
1.1915478e-103
1.2932757e-103
8.8900622e-104
1.0030004e-103
1.0274948e-103
4.7262034e-104
4.6096191e-104
5.9673703e-104
6.4557025e-104
1.5138145e-104
4.3216483e-104
-1.2533448e-07
1.055215e-17
-1.1056753e-27
3.8053805e-37
6.4725618e-46
9.8084477e-55
6.8036079e-63
-5.711503e-70
6.0454095e-77
9.848519e-83
8.0055833e-89
4.6858552e-95
3.5474736e-101
1.7719407e-107
2.5962386e-109
1.030498e-109
1.06534e-109
3.5184555e-109
1.4337925e-109
2.1390199e-109
1.5019221e-109
3.2073455e-109
5.4040328e-109
1.6976603e-109
5.4195665e-110
2.1818284e-109
1.1237785e-109
3.3046923e-109
4.1044535e-109
7.8130724e-110
7.0630806e-110
3.7810176e-110
5.3876515e-110
4.9325246e-110
3.1696142e-110
1.820005e-110
3.3473301e-110
3.108304e-110
1.4001185e-110
2.8459141e-110
-1.0672602e-07
7.6230601e-18
-6.5098568e-28
1.612344e-37
3.5212664e-46
4.3476248e-55
2.020679e-63
-4.1198502e-70
3.1719987e-77
-7.942593e-83
-9.8300948e-89
-5.8020187e-95
-3.6566904e-101
-2.0785298e-107
-1.2612181e-113
8.5246029e-116
9.6418091e-116
1.8954251e-115
1.222988e-115
9.3002881e-116
7.6028034e-116
2.1459736e-115
2.8368886e-115
1.0740697e-115
3.1485515e-116
1.0798426e-115
7.9785138e-116
1.6275358e-115
2.6499103e-115
5.1999518e-116
4.4115103e-116
2.089744e-116
3.5749957e-116
2.0818742e-116
1.9412261e-116
8.6130454e-117
1.6155148e-116
1.6672615e-116
8.18135e-117
1.690146e-116
-9.1202877e-08
5.5483421e-18
-3.9006688e-28
7.1833318e-38
3.1319972e-46
3.2398113e-55
1.0588644e-63
1.7234773e-70
-1.0924864e-77
5.5853549e-84
3.6470389e-90
2.44636e-96
1.9897694e-102
1.1664137e-108
8.8335051e-115
5.148474e-121
8.8756263e-122
1.5059491e-121
6.2582697e-122
5.1096098e-122
3.8997928e-122
1.3280043e-121
2.6848506e-121
4.6405514e-122
2.1451796e-122
4.8075643e-122
5.0604742e-122
8.6436306e-122
1.6866553e-121
3.9131489e-122
2.1489333e-122
9.5050313e-123
1.8508384e-122
1.3326332e-122
1.0756169e-122
4.1135595e-123
8.3306622e-123
1.3062069e-122
4.9120009e-123
2.5695044e-122
-7.8225981e-08
4.0676296e-18
-2.3743649e-28
3.3340896e-38
-2.755277e-46
-2.4550502e-55
-5.885775e-64
-2.2486167e-71
1.1160672e-78
-2.7835035e-85
-1.7970681e-91
-7.2626076e-98
-6.2904178e-104
-3.4251957e-110
-2.1429508e-116
-1.7500219e-122
4.9878964e-128
9.7447165e-128
4.0468864e-128
3.5803055e-128
2.8872965e-128
8.4024099e-128
1.2292205e-127
2.7758164e-128
1.293284e-128
2.0829073e-128
7.5258283e-128
4.0978552e-128
8.6049726e-128
3.0988857e-128
1.6908281e-128
6.8383752e-129
1.0908961e-128
7.338116e-129
5.2333224e-129
2.3581565e-129
3.8241489e-129
8.1340482e-129
4.5625363e-129
3.3682367e-128
-6.729725e-08
3.0008724e-18
-1.4650829e-28
1.6001087e-38
-2.5793944e-47
-2.0319095e-56
-3.6899772e-65
-6.7021335e-73
2.987542e-80
-4.6074769e-87
-4.8939482e-93
-3.7777132e-99
-2.1968189e-105
-1.3414079e-111
-9.7203078e-118
-5.7713796e-124
-5.2547553e-130
8.8305032e-134
4.7820856e-134
2.1801812e-134
2.0057008e-134
7.6606265e-134
8.2192733e-134
1.3568934e-134
6.5424605e-135
2.0455716e-134
5.4721237e-134
2.6566194e-134
4.7446881e-134
1.7190792e-134
8.3166321e-135
4.4846876e-135
6.7243723e-135
4.0465207e-135
2.8662611e-135
1.3660954e-135
2.1459698e-135
6.2490803e-135
5.7983402e-135
7.4484347e-134
-5.8057681e-08
2.2266783e-18
-9.151516e-29
7.9018786e-39
-6.0779765e-48
-4.3541003e-57
-6.1582816e-66
-6.4347497e-74
2.7665187e-81
-3.1513974e-88
-9.5329537e-94
-9.0342318e-100
-6.0121879e-106
-4.9031264e-112
-2.7727652e-118
-1.7746855e-124
-1.1232485e-130
-5.5796914e-137
3.5463017e-140
1.3720215e-140
1.5781333e-140
4.4881708e-140
5.4654945e-140
1.2718356e-140
2.8633217e-141
1.9788306e-140
5.1092504e-140
1.6570932e-140
3.7697199e-140
8.3863675e-141
4.7995268e-141
2.1127092e-141
4.1811584e-141
2.058314e-141
1.3587186e-141
9.1937884e-142
1.2191433e-141
3.1747804e-141
3.9367217e-141
1.0823076e-139
-5.0198646e-08
1.6604921e-18
-5.7773697e-29
3.9981859e-39
-1.8212083e-48
-1.2232092e-57
-1.3784745e-66
-9.1526344e-75
3.9625451e-82
-3.0629639e-89
5.1442692e-95
3.0342811e-101
3.6985021e-107
2.1769178e-113
2.0391601e-119
1.0079852e-125
5.4042355e-132
3.413394e-138
2.3443113e-144
8.0887814e-147
8.9504868e-147
3.379142e-146
5.045919e-146
1.012187e-146
1.8206731e-147
8.7522743e-147
3.3203006e-146
1.4894803e-146
2.4343032e-146
7.2544604e-147
3.9577032e-147
1.3436983e-147
1.904781e-147
1.1587702e-147
7.4239969e-148
4.8873627e-148
8.5250035e-148
1.5750119e-147
4.9541656e-147
-1.5781563e-145
-4.3487668e-08
1.2438793e-18
-3.6824626e-29
2.0666392e-39
-6.17793e-49
-4.0303303e-58
-3.7022405e-67
-1.6735663e-75
8.9973395e-83
-5.6542316e-90
4.7388444e-96
3.0891038e-102
2.3470727e-108
1.9870237e-114
1.4444036e-120
2.8601478e-126
2.2023883e-132
1.80083e-138
9.1929129e-145
5.6304533e-151
7.2953516e-153
3.1542464e-152
3.9996339e-152
6.3434519e-153
1.5495847e-153
3.9250504e-153
1.7449907e-152
9.9682261e-153
1.5769634e-152
5.6246656e-153
2.4716643e-153
6.7426534e-154
1.2996947e-153
7.0451662e-154
3.661379e-154
2.6008907e-154
7.6001375e-154
1.1494396e-153
3.796133e-153
4.2278288e-151
-3.77298e-08
9.3537585e-19
-2.3669663e-29
1.0880185e-39
-2.2698586e-49
-1.5043939e-58
-1.1465683e-67
-3.6874423e-76
3.7696859e-83
-1.8345058e-90
6.2961608e-97
4.2596392e-103
4.1558134e-109
4.813482e-115
3.3275402e-121
2.8565735e-127
1.735561e-133
1.2389098e-139
1.0404366e-145
5.6188946e-152
3.5345213e-158
2.1664714e-158
3.1711583e-158
4.3721903e-159
9.5768458e-160
4.1709336e-159
9.62668e-159
6.529021e-159
1.1187166e-158
3.5847973e-159
1.4205343e-159
4.8800038e-160
9.8454432e-160
5.5358907e-160
1.5805186e-160
1.2372741e-160
4.8084054e-160
7.7759593e-160
3.7493157e-159
-2.2147595e-157
-3.2771086e-08
7.0567816e-19
-1.5326085e-29
5.8216341e-40
-8.8358946e-50
-6.3352878e-59
-4.0852531e-68
-9.6652173e-77
-2.1723743e-83
8.8984602e-91
-1.8208843e-97
-1.9462745e-103
-1.9421956e-109
-1.8494441e-115
-3.3695958e-121
-2.5044348e-127
-2.6944972e-133
-3.6646053e-139
-1.9083958e-145
-1.4696432e-151
-7.8314771e-158
-3.7318715e-164
4.1315222e-164
2.9259489e-165
1.5793875e-165
3.3073615e-165
7.536175e-165
4.4877336e-165
6.5953113e-165
2.1268438e-165
9.9877481e-166
3.4422679e-166
5.1047e-166
3.2953812e-166
8.5240277e-167
7.0685946e-167
2.7156243e-166
4.6165297e-166
6.2045946e-165
8.5083486e-164
-2.8492974e-08
5.3394535e-19
-9.990079e-30
3.1602302e-40
-3.5970834e-50
-3.0857026e-59
-1.7111328e-68
-3.077233e-77
-1.1332879e-84
4.0200425e-92
-5.7752971e-99
-1.4945985e-104
-1.3240741e-110
-1.1042228e-116
-7.9110593e-123
-8.4485968e-129
-9.7065872e-135
-6.0794985e-141
-6.1403171e-147
-4.1519281e-153
-2.4959807e-159
-1.8352896e-165
3.9797335e-170
1.587219e-171
1.1786739e-171
2.7693727e-171
6.0551426e-171
2.4463093e-171
4.3851692e-171
1.4902506e-171
6.2027011e-172
2.4330063e-172
2.850359e-172
2.1051621e-172
6.4346866e-173
3.9575328e-173
3.0949456e-172
3.8487859e-172
-1.9504514e-170
-3.3517276e-170
-2.4791425e-08
4.0498978e-19
-6.5497738e-30
1.737432e-40
-1.5183621e-50
-1.9165703e-59
-9.2954399e-69
-1.2987188e-77
-2.2629978e-85
7.2786411e-93
-7.6351914e-100
-5.3118518e-105
-2.8809851e-111
-2.7396145e-117
-3.8811891e-123
-2.9562214e-129
-1.784881e-135
-2.1600048e-141
-1.6460257e-147
-4.0297631e-153
-2.9287912e-159
-1.9151275e-165
-3.0855142e-171
-1.0919448e-177
7.3326066e-178
2.6964856e-177
5.6309092e-177
1.42728e-177
3.2410304e-177
1.0025545e-177
4.4813144e-178
1.3753225e-178
2.1240546e-178
1.8286064e-178
3.2343371e-179
2.9713617e-179
3.7604838e-178
2.8358833e-178
3.7585869e-176
1.2329551e-176
-2.1584101e-08
3.0783626e-19
-4.3167006e-30
9.6620988e-41
-6.605622e-51
-2.7416388e-59
-1.1827371e-68
-1.3114681e-77
-1.3011989e-85
3.9361065e-93
-3.0241111e-100
7.617883e-106
4.2391546e-112
4.3222501e-118
3.9166352e-124
3.5208331e-130
7.4179455e-136
1.0275701e-141
9.8519028e-148
1.0939506e-153
9.1513918e-160
9.4805119e-166
7.5731672e-172
6.2689975e-178
1.4570176e-183
2.0801421e-183
3.7329972e-183
9.4418994e-184
2.5309561e-183
8.497736e-184
4.3983544e-184
1.3730569e-184
1.2591104e-184
2.0427395e-184
3.0255809e-185
2.2242798e-185
4.6207716e-184
3.4598492e-184
-4.2624345e-182
-7.1291527e-183
-1.8799642e-08
2.3439161e-19
-2.8578535e-30
5.4277493e-41
-2.9481728e-51
5.6129238e-60
2.1908934e-69
1.9625514e-78
1.2518846e-86
-3.8196828e-94
2.3699896e-101
-1.6268903e-107
-2.384961e-113
-4.4217265e-119
-6.6237597e-125
-5.3151764e-131
-1.2407984e-136
-1.176399e-142
-1.2684258e-148
-9.0747964e-155
-2.2937953e-160
-1.7857097e-166
-1.3379315e-172
-1.1530286e-178
-1.3989788e-184
1.4780985e-189
5.4183465e-189
6.4574665e-190
1.5105922e-189
8.6910485e-190
3.5332101e-190
9.5962336e-191
1.481881e-190
1.4425071e-190
2.2296637e-191
1.8665241e-191
2.7106367e-190
2.9804792e-190
5.1834929e-188
1.0463277e-188
-1.638113e-08
1.7874162e-19
-1.8997572e-30
3.0771983e-41
-1.3453859e-51
8.686205e-61
3.1220971e-70
2.297161e-79
1.006465e-87
-3.4197516e-95
1.6889091e-102
-6.1478581e-109
-4.7508675e-115
-6.7256527e-121
-6.7738461e-127
-5.688274e-133
-7.4434797e-139
-1.4923203e-144
-1.3021038e-150
-1.3252046e-156
-1.5089758e-162
-2.3218707e-168
-1.4981442e-174
-1.1509162e-180
-1.0062954e-186
-1.7394244e-192
6.0156803e-195
6.7143295e-196
1.5047429e-195
7.772252e-196
2.994478e-196
1.9039188e-196
9.0414953e-197
8.7801099e-197
1.3278223e-197
1.4685468e-197
2.4458999e-196
8.091655e-196
3.7219421e-193
8.0495341e-195
-1.4277026e-08
1.3646303e-19
-1.2672711e-30
1.7587725e-41
-6.259154e-52
2.1754302e-61
7.3480554e-71
4.5072295e-80
1.4249069e-88
-6.4419119e-96
2.5985908e-103
-7.4379428e-110
-7.9628702e-116
-8.5137854e-122
-5.6747822e-128
-6.9378531e-134
-2.0836089e-139
-3.776298e-145
-3.1042214e-151
-3.4856215e-157
-4.82778e-163
-5.1015997e-169
-4.6742784e-175
-5.132168e-181
-8.5475127e-187
-6.5490104e-193
-3.9632981e-199
5.6664833e-202
2.1219085e-201
5.0821791e-202
4.23229e-202
1.9351128e-202
8.8738012e-203
1.4763883e-202
1.330437e-203
1.3765141e-203
1.9543839e-202
1.6273526e-201
5.404138e-199
2.2578658e-201
-1.244605e-08
1.0428523e-19
-8.4792951e-31
1.0125829e-41
-2.9619886e-52
6.4922165e-62
2.1070952e-71
1.0925393e-80
2.5651569e-89
-2.5932746e-96
9.090241e-104
-1.5009117e-110
-2.5354591e-116
-3.0033106e-122
-4.3629647e-128
-5.024942e-134
-2.2902864e-139
-3.0996586e-145
-3.9384482e-151
-3.9284018e-157
-3.050284e-163
-5.0621348e-169
-6.1244673e-175
-6.5732621e-181
-9.3568298e-187
-8.6289878e-193
-8.6775628e-199
-9.7591309e-205
2.6587763e-207
5.1978457e-208
4.4365768e-208
1.3259448e-208
1.352665e-208
1.1557134e-208
9.1138804e-210
2.3289699e-209
3.8937056e-208
1.5776248e-206
-4.7886751e-204
4.5660153e-208
-1.0851622e-08
7.9754512e-20
-5.688413e-31
5.867745e-42
-1.4229336e-52
2.1357034e-62
6.8435149e-72
3.0392166e-81
5.4539698e-90
6.633203e-97
-2.0921407e-104
2.6046416e-111
4.7342171e-117
5.2634635e-123
4.7670259e-129
4.8931604e-135
1.1924625e-140
1.7137864e-146
1.8349502e-152
5.2559903e-158
7.6194652e-164
6.3770903e-170
7.7881913e-176
1.1995677e-181
1.2864069e-187
3.3235372e-193
2.5096079e-199
2.8656188e-205
5.5402945e-211
5.6008841e-214
3.2952376e-214
3.8252181e-214
1.035321e-214
1.0326977e-214
6.8472217e-216
2.3286152e-215
2.9815585e-214
6.9257659e-212
-5.4645257e-210
6.2295494e-215
-9.4635341e-09
6.1031864e-20
-3.8248386e-31
3.4201938e-42
-6.9285776e-53
7.4962985e-63
2.4521015e-72
9.4452464e-82
1.3256547e-90
3.8859547e-98
-1.0963633e-105
1.0959337e-112
-2.1134943e-118
-4.5909894e-124
-5.7024718e-129
-1.8633306e-134
-4.0845697e-140
-5.6929811e-146
-1.0894164e-151
-1.8690458e-157
-2.1112284e-163
-5.1833636e-169
-4.2764151e-175
-1.2146917e-180
-1.4485589e-186
-2.8386785e-192
-3.431262e-198
-9.4568313e-204
-8.7695967e-210
-7.188543e-216
3.7507183e-220
4.7143054e-220
1.4102217e-220
7.8808346e-221
5.6216024e-222
3.4418023e-221
3.986587e-220
1.6879433e-217
-3.3529104e-216
7.4893004e-222
-8.2554607e-09
4.6731558e-20
-2.5770531e-31
2.0041786e-42
-3.4149023e-53
2.7599856e-63
9.6493118e-73
3.2618218e-82
3.6458506e-91
5.3132776e-99
-1.4150843e-106
1.0237281e-113
-8.3970656e-120
-1.1792998e-125
-1.7908639e-131
-4.3189912e-137
-1.1329568e-142
-1.6021412e-148
-1.8660349e-153
-2.9838937e-159
-6.2886259e-165
-2.3386253e-170
-2.4931422e-176
-4.3228686e-182
-1.2195941e-187
-1.617376e-193
-2.5256768e-199
-2.1630903e-205
-2.770801e-211
-2.8960857e-217
-5.0569578e-223
3.357245e-226
9.1542243e-227
6.8539048e-227
3.4695651e-228
4.8499872e-227
1.1573451e-225
-1.4092971e-221
-1.3570157e-222
7.0916939e-229
-7.2050314e-09
3.5804932e-20
-1.739659e-31
1.180196e-42
-1.7019025e-53
1.0551136e-63
4.2228571e-73
1.2681178e-82
1.1486854e-91
1.0048008e-99
-2.6620345e-107
1.7054473e-114
-9.0587971e-121
-1.2384129e-126
-3.8816172e-132
-6.5517399e-138
2.2787165e-142
-6.0853236e-148
-1.331859e-153
-1.2659648e-158
-1.1507913e-163
-5.8240989e-168
-8.8502265e-174
-8.1253674e-180
-1.1193047e-185
-1.8246495e-191
-2.7776817e-197
-5.9465546e-203
-7.9970337e-209
-1.2622381e-214
-1.3191114e-220
-1.3194863e-226
-4.4052282e-233
6.4184446e-233
4.4741268e-234
4.1749571e-233
3.1320641e-231
-1.9286375e-227
-4.530787e-229
2.5536786e-236
-6.2927193e-09
2.7454859e-20
-1.1765694e-31
6.9819323e-43
-8.5690298e-54
4.1601131e-64
2.150149e-73
5.805177e-83
4.3245039e-92
2.519146e-100
-6.7872114e-108
3.3850777e-115
-1.2205229e-121
-1.5031989e-127
-2.1841238e-133
-4.149273e-139
-5.2352804e-144
-1.6106617e-149
-2.8747512e-155
4.631139e-160
6.2762538e-166
1.8976374e-171
3.8649007e-177
8.5487338e-183
2.6558958e-188
6.4644622e-194
8.4393958e-200
1.2115515e-205
1.4543299e-211
2.1772287e-217
2.8026574e-223
3.9220703e-229
3.4855551e-235
8.600736e-239
2.3000417e-239
7.8818564e-239
-4.3678467e-237
-1.7253851e-233
-1.1595733e-235
-8.6926886e-243
-5.5014784e-09
2.1074412e-20
-7.9730561e-32
4.1489538e-43
-4.3561187e-54
1.6838767e-64
1.4903828e-73
3.6624568e-83
2.2733357e-92
9.3499021e-101
-2.8251343e-108
1.2166776e-115
-2.9186273e-122
7.1726572e-128
1.547402e-133
-1.0430788e-138
-3.7930745e-144
-1.226493e-149
5.1604619e-155
7.7150932e-161
-4.4145718e-166
-5.8844061e-172
-1.1930667e-177
-1.0844261e-182
-3.3574549e-188
-2.0762259e-193
-4.0182552e-199
-1.0827082e-204
-1.1047169e-209
-6.9754258e-216
-1.3651354e-221
-5.5593893e-227
-9.4690858e-233
-7.0118456e-238
-5.6985179e-243
-2.6169516e-244
1.614405e-242
-1.8067104e-239
-2.3401739e-242
-2.8417384e-249
-4.8165037e-09
1.6200872e-20
-5.4150345e-32
2.4766341e-43
-2.2349132e-54
6.9751214e-65
1.8860808e-72
4.2728491e-82
2.2374854e-91
6.7421318e-100
-2.5701739e-107
9.604401e-115
-2.0601925e-121
1.350035e-126
-4.4383225e-131
-1.2977917e-136
-3.7738636e-142
-1.644085e-146
-9.2459125e-152
1.2014319e-156
2.3094024e-162
-1.9395371e-167
-1.1079219e-172
-5.205792e-178
-1.0813686e-183
-3.9113157e-188
-5.8716625e-194
-1.0700753e-199
-2.0724729e-205
4.3163396e-210
4.7964567e-216
5.87866e-222
4.8109302e-228
1.6483643e-233
2.2791514e-239
-6.3387756e-245
-2.529035e-247
-1.7798331e-245
-4.1446595e-249
-5.9225445e-256
-4.2247394e-09
1.2479802e-20
-3.6874515e-32
1.4853566e-43
-1.1570321e-54
2.9499578e-65
-2.1190958e-74
-4.4857459e-84
-2.0042656e-93
-4.5837289e-102
3.2468725e-109
-1.0787191e-116
1.4959841e-123
-1.7225287e-129
-1.7346158e-134
2.9971925e-140
-8.082606e-145
2.0996605e-150
1.4145786e-155
-3.8021424e-161
-1.1716343e-166
-5.1699886e-172
-1.0644436e-177
-6.4993003e-183
1.782776e-188
1.2059586e-193
1.3319105e-199
1.1847922e-205
-2.1256998e-211
4.1271414e-216
4.0512933e-221
5.4875703e-227
9.2094604e-232
1.9556199e-237
1.4653089e-242
7.8025458e-248
2.3998391e-252
-1.1583458e-251
-6.31858e-256
-1.0412332e-262
-3.7146815e-09
9.6399608e-21
-2.5192121e-32
8.9541071e-44
-6.0447252e-55
1.2719022e-65
-3.9584189e-75
-7.9479155e-85
-3.0636909e-94
-5.4494959e-103
-2.7342008e-109
8.3097595e-117
-8.6095825e-124
7.942595e-130
-2.6305186e-135
-1.9050238e-140
-5.6345929e-146
-5.499279e-151
-6.8689653e-156
-1.0036024e-160
-6.0977535e-165
-2.1461886e-170
2.6065876e-175
-6.3356784e-181
-1.9382867e-186
-2.0966907e-191
-3.6862641e-197
-7.4705778e-203
-8.9077784e-208
2.6630494e-213
3.1175599e-219
4.6604725e-225
7.1107614e-231
2.1927307e-236
-4.7656773e-242
1.9005379e-247
-1.5003883e-252
-7.8504961e-258
-1.0232126e-262
-1.5914568e-269
-3.2761768e-09
7.4735439e-21
-1.7280947e-32
5.4288537e-44
-3.1877832e-55
5.5854037e-66
-1.018264e-75
-1.9715512e-85
-6.6249697e-95
-9.3591933e-104
-3.6760604e-111
1.031581e-118
-9.2589845e-126
6.1581463e-132
2.5964553e-137
-6.2858427e-143
-3.8385788e-148
-2.1282703e-153
5.3447411e-159
-5.5484487e-164
-2.8051896e-169
9.4254384e-175
-1.4681066e-180
1.7100105e-185
-1.1894602e-190
-3.6199966e-196
2.0847176e-200
1.3557831e-205
1.5627885e-210
1.6578145e-215
5.7323098e-221
7.4072059e-227
3.9920969e-232
-9.1999346e-238
3.7238449e-243
-3.2748113e-249
8.9946677e-255
4.674885e-261
6.3076055e-268
4.6389396e-275
-2.9002746e-09
5.821444e-21
-1.191511e-32
3.3134416e-44
-1.6981069e-55
2.4972138e-66
-3.0185382e-76
-5.7466001e-86
-1.7002668e-95
-1.9393464e-104
-3.4590298e-112
9.3467087e-120
-6.9704098e-127
3.8385271e-133
-1.2419877e-138
4.5380861e-144
-4.8323687e-149
8.8685022e-155
-2.4404121e-160
1.4540692e-165
-2.4099303e-171
5.7447077e-177
-1.381457e-182
-3.7370867e-187
9.16126e-193
-1.6687364e-198
-1.3235845e-203
3.8986326e-207
-1.5459297e-212
5.2873145e-218
1.9405276e-223
3.0857704e-229
3.9439203e-234
9.6980134e-240
-1.021545e-245
8.6623071e-252
-1.6076424e-257
-8.5507322e-264
-1.1214429e-270
-8.4511914e-278
-2.5790644e-09
4.5616864e-21
-8.2683334e-33
2.0381554e-44
-9.1452089e-56
1.136872e-66
-9.7635338e-77
-1.8703567e-86
-4.9210873e-96
-4.6061587e-105
-4.8816818e-113
1.312656e-120
-8.2188704e-128
2.9105951e-134
-2.8788398e-140
5.8797683e-146
-1.7834308e-151
2.7797059e-157
-2.7628312e-162
4.7916825e-168
-7.5059566e-174
8.8399936e-180
-2.4699974e-185
5.5719028e-191
-5.4244193e-197
7.8541902e-203
-1.0828443e-208
-1.4008388e-212
3.6547633e-217
9.883459e-222
2.3084795e-227
4.9400795e-233
-3.0013639e-238
5.0779658e-244
-7.4708835e-250
5.0511595e-256
-5.3959236e-262
-2.9445758e-268
-3.3116113e-275
-2.4232906e-282
-2.3055863e-09
3.6010711e-21
-5.783752e-33
1.2653835e-44
-4.9857095e-56
5.2731455e-67
-3.364334e-77
-6.6794226e-87
-1.5780987e-96
-1.2290364e-105
-8.5770061e-114
2.4149205e-121
-1.2996536e-128
4.0976191e-135
-4.2755786e-141
5.3763717e-147
-4.8104428e-153
3.8949946e-159
-3.0201135e-165
3.7260199e-171
-9.3266324e-177
1.6446569e-182
-1.3540055e-188
3.2558142e-194
-2.7084692e-199
1.7979075e-204
-2.259336e-210
2.2247822e-216
-3.0966338e-222
-1.9303971e-227
-3.4851974e-233
-6.8964346e-239
1.1407117e-243
-2.5777535e-249
3.6031552e-255
-2.6936537e-261
2.8980085e-267
1.2399838e-273
1.3111327e-280
8.9142669e-288
-2.073722e-09
2.8683637e-21
-4.0857076e-33
7.9433983e-45
-2.7558777e-56
2.494588e-67
-1.2206263e-77
-2.6122454e-87
-5.5962345e-97
-3.671415e-106
-1.8201387e-114
5.6997906e-122
-2.7448149e-129
5.2526616e-136
-3.6554314e-142
5.7288371e-148
-5.0014104e-154
4.9052443e-160
-4.8273626e-166
5.6036183e-172
-5.6136036e-178
7.5196667e-184
-8.3263497e-190
8.1747102e-196
-1.4104081e-201
1.7624974e-207
-1.6881674e-213
2.7651039e-219
-2.8494412e-225
2.7256777e-231
-1.5300757e-236
1.697991e-241
-3.4017169e-246
1.0904717e-251
-6.8224585e-258
3.2973133e-264
-2.4451085e-270
-1.0239795e-276
-1.202309e-283
-8.6945079e-291
-1.8781024e-09
2.3092291e-21
-2.9207022e-33
5.0523636e-45
-1.5475423e-56
1.2054656e-67
-4.6337055e-78
-1.1323672e-87
-2.2222791e-97
-1.2427993e-106
-4.5736215e-115
1.7485507e-122
-7.5941089e-130
1.2292926e-136
-5.3050199e-143
4.5613472e-149
-3.582766e-155
2.2830564e-161
-1.4787396e-167
2.4899204e-173
-2.2595883e-179
1.7668255e-185
-1.5500332e-191
1.1989198e-197
-6.6808798e-204
6.5873272e-210
-4.8071773e-216
9.9003519e-222
-8.4079599e-228
3.0477711e-233
-2.640945e-239
5.1093967e-245
-6.7546898e-251
4.3836082e-257
-1.5422842e-263
5.422289e-270
-2.5066433e-276
-1.389807e-282
-1.6153187e-289
-1.1474834e-296
-1.7140501e-09
1.8823301e-21
-2.1176686e-33
3.2637658e-45
-8.8485228e-57
5.9618427e-68
-1.8348633e-78
-5.6290352e-88
-1.02233e-97
-4.927818e-107
-1.3904519e-115
8.4311177e-123
-3.2254615e-130
4.332356e-137
-1.6469853e-143
9.5066677e-150
-9.1393349e-156
6.8114625e-162
-3.8535068e-168
2.1608041e-174
-1.3858603e-180
9.2741479e-187
-5.7709938e-193
3.0502983e-199
-2.1520665e-205
1.0992933e-211
-7.2659336e-218
7.719741e-224
-5.7713712e-230
5.8207383e-236
-7.4431704e-242
8.7708858e-248
-2.2858556e-253