/*--------------------------------*- C++ -*----------------------------------*\
  =========                 |
  \\      /  F ield         | OpenFOAM: The Open Source CFD Toolbox
   \\    /   O peration     | Website:  https://openfoam.org
    \\  /    A nd           | Version:  10
     \\/     M anipulation  |
\*---------------------------------------------------------------------------*/
FoamFile
{
    format      ascii;
    class       volVectorField;
    location    "0.18";
    object      U;
}
// * * * * * * * * * * * * * * * * * * * * * * * * * * * * * * * * * * * * * //

dimensions      [0 1 -1 0 0 0 0];

internalField   nonuniform List<vector> 
4000
(
(0 0.018637306 0.47773164)
(0 0.023509713 0.50886057)
(0 0.0081665885 0.50052522)
(0 0.005614356 0.50033635)
(0 0.00425436 0.50025746)
(0 0.0032546813 0.50016898)
(0 0.0025558451 0.50011968)
(0 0.0020543632 0.50009012)
(0 0.0016763956 0.5000698)
(0 0.0013820987 0.50005538)
(0 0.0011470991 0.50004498)
(0 0.00095505749 0.50003732)
(0 0.0007947189 0.50003159)
(0 0.00065810706 0.50002726)
(0 0.00053939288 0.50002397)
(0 0.000434195 0.50002149)
(0 0.00033912527 0.50001965)
(0 0.00025148102 0.50001832)
(0 0.00016902873 0.50001743)
(0 8.9845723e-05 0.50001692)
(0 1.2197797e-05 0.50001677)
(0 -6.5567979e-05 0.50001697)
(0 -0.0001451147 0.50001753)
(0 -0.00022820774 0.50001849)
(0 -0.00031682549 0.50001989)
(0 -0.00041328999 0.50002184)
(0 -0.00052043865 0.50002445)
(0 -0.00064186356 0.50002792)
(0 -0.00078225941 0.50003251)
(0 -0.00094795323 0.50003863)
(0 -0.0011477557 0.50004688)
(0 -0.0013943262 0.50005824)
(0 -0.0017064126 0.50007414)
(0 -0.0021143651 0.5000971)
(0 -0.0026740998 0.50013482)
(0 -0.0034677354 0.50020239)
(0 -0.0045600588 0.50027146)
(0 -0.0065843048 0.50043368)
(0 -0.017658753 0.50675397)
(0 -0.013589774 0.47975584)
(0 0.037432262 0.4479698)
(0 0.050954866 0.5323261)
(0 0.021968435 0.5080429)
(0 0.016134811 0.50357323)
(0 0.012415215 0.50242316)
(0 0.0095151071 0.50162297)
(0 0.0075198278 0.50115657)
(0 0.0060691794 0.50086587)
(0 0.0049639631 0.50066793)
(0 0.0040996446 0.50052892)
(0 0.0034072715 0.50042894)
(0 0.0028398943 0.50035543)
(0 0.0023651373 0.50030053)
(0 0.0019599146 0.50025912)
(0 0.0016072639 0.50022776)
(0 0.0012943879 0.5002041)
(0 0.0010113594 0.50018649)
(0 0.0007502384 0.50017382)
(0 0.00050444838 0.50016531)
(0 0.0002683175 0.50016047)
(0 3.6722932e-05 0.50015905)
(0 -0.00019521709 0.50016095)
(0 -0.00043241445 0.50016631)
(0 -0.0006800818 0.50017542)
(0 -0.00094405211 0.50018884)
(0 -0.0012311571 0.50020741)
(0 -0.0015497236 0.50023236)
(0 -0.0019102605 0.50026549)
(0 -0.0023264514 0.50030942)
(0 -0.0028166391 0.50036805)
(0 -0.0034062017 0.50044732)
(0 -0.0041315184 0.5005567)
(0 -0.0050456722 0.50071129)
(0 -0.0062285328 0.50093666)
(0 -0.0078289861 0.50129447)
(0 -0.01012284 0.50191066)
(0 -0.013104259 0.50282533)
(0 -0.017423769 0.50608133)
(0 -0.03875671 0.52526803)
(0 -0.027893579 0.45021796)
(0 0.039887632 0.40982199)
(0 0.061426628 0.54930833)
(0 0.031982126 0.52188191)
(0 0.024354037 0.51008063)
(0 0.01919212 0.50658857)
(0 0.014975698 0.50452802)
(0 0.012005364 0.50327128)
(0 0.0097707002 0.50245823)
(0 0.0080354651 0.50190087)
(0 0.0066640094 0.50150845)
(0 0.0055561089 0.5012252)
(0 0.0046422262 0.50101642)
(0 0.0038736201 0.50086024)
(0 0.0032148911 0.5007423)
(0 0.0026397017 0.5006529)
(0 0.0021279949 0.50058536)
(0 0.0016640902 0.50053509)
(0 0.0012353637 0.50049887)
(0 0.00083130433 0.50047455)
(0 0.00044280914 0.50046072)
(0 6.1632747e-05 0.50045664)
(0 -0.00032009055 0.50046209)
(0 -0.00071027375 0.50047739)
(0 -0.0011173004 0.50050343)
(0 -0.0015505202 0.50054176)
(0 -0.002020832 0.50059476)
(0 -0.002541439 0.50066592)
(0 -0.0031288786 0.50076032)
(0 -0.0038044855 0.50088537)
(0 -0.0045965044 0.50105197)
(0 -0.005543295 0.50127667)
(0 -0.0066988431 0.50158559)
(0 -0.0081403561 0.50202086)
(0 -0.0099719313 0.50265087)
(0 -0.012366384 0.50361532)
(0 -0.015711697 0.50519955)
(0 -0.019868589 0.50785446)
(0 -0.025182275 0.51641247)
(0 -0.047413338 0.53912783)
(0 -0.03085204 0.41488409)
(0 0.034790779 0.36173289)
(0 0.06383674 0.55456415)
(0 0.039377837 0.53747124)
(0 0.030081125 0.51849268)
(0 0.024110316 0.5119773)
(0 0.019277366 0.50849932)
(0 0.015734075 0.50626402)
(0 0.01295227 0.50475512)
(0 0.010741987 0.50370401)
(0 0.0089665305 0.50295563)
(0 0.0075128648 0.5024105)
(0 0.0063013202 0.50200616)
(0 0.0052740872 0.5017023)
(0 0.0043879038 0.50147203)
(0 0.0036099485 0.50129697)
(0 0.0029148323 0.50116446)
(0 0.0022824438 0.50106563)
(0 0.0016964171 0.50099435)
(0 0.0011430059 0.50094643)
(0 0.0006102249 0.50091917)
(0 8.7167494e-05 0.50091111)
(0 -0.00043659295 0.50092183)
(0 -0.00097154379 0.50095197)
(0 -0.0015287612 0.50100323)
(0 -0.0021205306 0.5010786)
(0 -0.0027610641 0.50118267)
(0 -0.003467407 0.50132215)
(0 -0.0042606433 0.50150672)
(0 -0.0051675593 0.50175038)
(0 -0.006222941 0.5020736)
(0 -0.0074726634 0.50250687)
(0 -0.0089789657 0.50309717)
(0 -0.010829226 0.50391924)
(0 -0.013130016 0.50508943)
(0 -0.016016995 0.50680726)
(0 -0.019892753 0.50946812)
(0 -0.024725285 0.51427567)
(0 -0.031106958 0.52824727)
(0 -0.050314258 0.54407404)
(0 -0.028436252 0.37238841)
(0 0.027423351 0.31484788)
(0 0.062312008 0.55024264)
(0 0.044610864 0.5514675)
(0 0.033978779 0.5274881)
(0 0.027460847 0.5177224)
(0 0.02245203 0.51291959)
(0 0.018633825 0.50973101)
(0 0.015525413 0.50749204)
(0 0.013003813 0.50589919)
(0 0.01094019 0.50474601)
(0 0.009223157 0.50389512)
(0 0.0077738555 0.50325804)
(0 0.0065322926 0.50277586)
(0 0.0054520366 0.50240839)
(0 0.0044970318 0.50212781)
(0 0.0036388053 0.50191467)
(0 0.0028544057 0.50175529)
(0 0.0021248859 0.5016401)
(0 0.0014341438 0.50156253)
(0 0.00076801144 0.50151835)
(0 0.00011351596 0.50150526)
(0 -0.00054178132 0.50152259)
(0 -0.0012103882 0.50157134)
(0 -0.0019054593 0.5016542)
(0 -0.0026414815 0.50177585)
(0 -0.0034350431 0.50194344)
(0 -0.0043057798 0.50216739)
(0 -0.0052775856 0.50246256)
(0 -0.0063802203 0.50285022)
(0 -0.0076514687 0.50336102)
(0 -0.0091396039 0.50403959)
(0 -0.010907072 0.50495247)
(0 -0.013040718 0.50620249)
(0 -0.015644356 0.50794453)
(0 -0.018805843 0.51040498)
(0 -0.0228867 0.51405585)
(0 -0.028168411 0.5211465)
(0 -0.035698032 0.53932695)
(0 -0.050469445 0.54156034)
(0 -0.024083789 0.33057094)
(0 0.019836936 0.27520454)
(0 0.057986464 0.53975039)
(0 0.047358924 0.56256476)
(0 0.036473179 0.5366043)
(0 0.029631858 0.52350699)
(0 0.024671986 0.51740292)
(0 0.020770331 0.51336235)
(0 0.017506201 0.51044362)
(0 0.01481109 0.50832306)
(0 0.012564058 0.50676046)
(0 0.010663573 0.50559124)
(0 0.0090376349 0.50470629)
(0 0.0076286176 0.50403066)
(0 0.0063906521 0.50351215)
(0 0.0052872702 0.50311404)
(0 0.0042889941 0.50281028)
(0 0.0033715858 0.50258235)
(0 0.0025146994 0.50241715)
(0 0.0017008012 0.50230568)
(0 0.00091429425 0.5022421)
(0 0.00014079148 0.50222319)
(0 -0.00063355028 0.50224806)
(0 -0.0014226467 0.50231805)
(0 -0.0022410624 0.5024369)
(0 -0.0031047039 0.50261106)
(0 -0.0040315686 0.50285031)
(0 -0.0050426429 0.50316879)
(0 -0.0061630033 0.5035865)
(0 -0.0074232105 0.50413163)
(0 -0.008861204 0.50484411)
(0 -0.010524262 0.50578095)
(0 -0.012470687 0.50702443)
(0 -0.014780705 0.50869773)
(0 -0.01755612 0.51098248)
(0 -0.020850924 0.51412108)
(0 -0.024961381 0.51873173)
(0 -0.030496706 0.52823108)
(0 -0.038617575 0.54872521)
(0 -0.048499697 0.53399423)
(0 -0.019064239 0.29395802)
(0 0.013082163 0.24256417)
(0 0.051794598 0.52520705)
(0 0.047703114 0.570249)
(0 0.037751148 0.54552436)
(0 0.030844868 0.52928831)
(0 0.026068197 0.52180108)
(0 0.022232948 0.51699693)
(0 0.018949096 0.5134721)
(0 0.016189443 0.51086324)
(0 0.013846169 0.50891043)
(0 0.011832771 0.50743036)
(0 0.010086655 0.506298)
(0 0.0085551885 0.50542559)
(0 0.0071956138 0.50475101)
(0 0.0059731206 0.50422989)
(0 0.0048588806 0.50383028)
(0 0.0038286953 0.50352923)
(0 0.002861882 0.50331037)
(0 0.0019403419 0.50316233)
(0 0.00104778 0.50307773)
(0 0.00016904096 0.50305247)
(0 -0.00071051405 0.50308541)
(0 -0.0016055964 0.50317827)
(0 -0.0025315234 0.50333578)
(0 -0.0035048731 0.50356607)
(0 -0.0045441628 0.50388143)
(0 -0.005670644 0.50429947)
(0 -0.0069092438 0.5048448)
(0 -0.0082896808 0.5055517)
(0 -0.0098480392 0.50646795)
(0 -0.011628528 0.50766069)
(0 -0.013683406 0.5092248)
(0 -0.01608219 0.51129823)
(0 -0.018920201 0.51408038)
(0 -0.022228833 0.51784008)
(0 -0.026248831 0.52346979)
(0 -0.03183278 0.53537636)
(0 -0.039743329 0.55589924)
(0 -0.044883074 0.52283971)
(0 -0.014087738 0.26267193)
(0 0.0077690442 0.2155532)
(0 0.044820902 0.50801995)
(0 0.046247596 0.57438232)
(0 0.038027653 0.55375033)
(0 0.031280817 0.53495991)
(0 0.026761591 0.52602947)
(0 0.023110304 0.52053706)
(0 0.019914913 0.51648634)
(0 0.017176851 0.51343927)
(0 0.014808884 0.51112783)
(0 0.012742574 0.5093563)
(0 0.010925859 0.50798741)
(0 0.0093128264 0.50692356)
(0 0.0078654963 0.50609482)
(0 0.0065521132 0.50545059)
(0 0.0053457086 0.50495404)
(0 0.0042231597 0.50457838)
(0 0.003164323 0.50430436)
(0 0.002151283 0.50411854)
(0 0.0011677021 0.50401211)
(0 0.00019825147 0.5039802)
(0 -0.000771937 0.50402142)
(0 -0.0017578017 0.50413783)
(0 -0.0027748112 0.50433507)
(0 -0.0038395512 0.50462279)
(0 -0.0049702999 0.5050155)
(0 -0.0061876908 0.50553382)
(0 -0.0075154774 0.50620635)
(0 -0.0089813582 0.5070724)
(0 -0.010618144 0.50818615)
(0 -0.012465431 0.50962284)
(0 -0.014568367 0.51148751)
(0 -0.01698316 0.51392907)
(0 -0.019791504 0.51715627)
(0 -0.023009396 0.52148216)
(0 -0.026859183 0.52818494)
(0 -0.032330989 0.54222139)
(0 -0.039383334 0.56050696)
(0 -0.04031543 0.50910883)
(0 -0.0097049371 0.23589224)
(0 0.0040038139 0.19357166)
(0 0.037893875 0.48950148)
(0 0.043677432 0.57524317)
(0 0.037554254 0.56084379)
(0 0.031145362 0.54036011)
(0 0.026905792 0.53001025)
(0 0.023506165 0.52390003)
(0 0.020472979 0.51941015)
(0 0.017820202 0.51598475)
(0 0.015483849 0.5133553)
(0 0.013413584 0.51131997)
(0 0.011568044 0.5097329)
(0 0.0099090541 0.50848945)
(0 0.0084043662 0.50751394)
(0 0.0070261374 0.50675102)
(0 0.0057500822 0.50615996)
(0 0.0045549036 0.50571091)
(0 0.0034216679 0.50538225)
(0 0.0023332454 0.50515878)
(0 0.0012738046 0.50503049)
(0 0.00022835529 0.50499183)
(0 -0.00081770568 0.50504121)
(0 -0.0018790474 0.50518099)
(0 -0.0029707743 0.50541757)
(0 -0.0041089255 0.5057619)
(0 -0.0053109317 0.50623036)
(0 -0.0065961304 0.50684606)
(0 -0.0079863487 0.50764078)
(0 -0.00950646 0.5086579)
(0 -0.01118508 0.50995647)
(0 -0.013056092 0.51161783)
(0 -0.015157032 0.51375463)
(0 -0.017530546 0.51652265)
(0 -0.020240821 0.52013296)
(0 -0.023295757 0.52496569)
(0 -0.026937003 0.53274242)
(0 -0.032178109 0.54839164)
(0 -0.037970684 0.56255222)
(0 -0.03540003 0.4938285)
(0 -0.0061971217 0.21329597)
(0 0.0015498786 0.17615226)
(0 0.031493176 0.47078153)
(0 0.040520794 0.5733912)
(0 0.036546807 0.5665969)
(0 0.030626154 0.54537678)
(0 0.026661146 0.53370296)
(0 0.023533117 0.5270299)
(0 0.020701168 0.52218519)
(0 0.018174644 0.51844722)
(0 0.015910046 0.51554631)
(0 0.013872938 0.51328028)
(0 0.012031869 0.51149852)
(0 0.010356527 0.51009199)
(0 0.0088206374 0.50898119)
(0 0.0074006544 0.50810741)
(0 0.0060754455 0.50742711)
(0 0.0048260187 0.50690812)
(0 0.0036351157 0.506527)
(0 0.0024868398 0.50626715)
(0 0.0013662934 0.50611763)
(0 0.00025923567 0.50607232)
(0 -0.00084826719 0.50612947)
(0 -0.0019702099 0.50629168)
(0 -0.0031209185 0.50656597)
(0 -0.0043154547 0.50696434)
(0 -0.0055699493 0.50750462)
(0 -0.0069019698 0.50821184)
(0 -0.0083309254 0.50912024)
(0 -0.0098784063 0.51027611)
(0 -0.011568441 0.51174201)
(0 -0.013428773 0.51360329)
(0 -0.015489491 0.51597743)
(0 -0.017781233 0.51902299)
(0 -0.020350986 0.52295101)
(0 -0.02320601 0.52823814)
(0 -0.026626203 0.53704263)
(0 -0.031535402 0.55366)
(0 -0.035876334 0.562322)
(0 -0.030536391 0.47794011)
(0 -0.0035872656 0.19466336)
(0 7.54152e-05 0.16254762)
(0 0.025863054 0.45262683)
(0 0.037145896 0.56944208)
(0 0.035176232 0.57098721)
(0 0.029863323 0.54996042)
(0 0.026160634 0.5371116)
(0 0.023293492 0.52990927)
(0 0.020675951 0.52478002)
(0 0.018297531 0.52079297)
(0 0.016129816 0.51766791)
(0 0.0141515 0.51520627)
(0 0.012339709 0.51325588)
(0 0.010671347 0.51170551)
(0 0.0091257816 0.51047348)
(0 0.0076837382 0.50949901)
(0 0.0063273897 0.50873672)
(0 0.0050402784 0.50815288)
(0 0.0038070952 0.50772273)
(0 0.0026134718 0.50742867)
(0 0.0014457473 0.50725904)
(0 0.00029073474 0.50720731)
(0 -0.0008645248 0.50727163)
(0 -0.0020330451 0.50745474)
(0 -0.0032280677 0.50776416)
(0 -0.0044633712 0.50821265)
(0 -0.0057534893 0.5088191)
(0 -0.0071139416 0.50960994)
(0 -0.0085614801 0.51062103)
(0 -0.010114271 0.51190061)
(0 -0.011791824 0.51351343)
(0 -0.013615952 0.51554712)
(0 -0.015609898 0.51812145)
(0 -0.01779431 0.52139462)
(0 -0.020201619 0.52558111)
(0 -0.022845384 0.53128531)
(0 -0.026042834 0.54103301)
(0 -0.030533433 0.55793576)
(0 -0.033393551 0.56021176)
(0 -0.02597625 0.46213274)
(0 -0.0017610669 0.17953469)
(0 -0.00071936812 0.15193437)
(0 0.021099657 0.4354693)
(0 0.033803057 0.5639449)
(0 0.033585547 0.57408767)
(0 0.028957495 0.55409035)
(0 0.025503764 0.54026037)
(0 0.022870879 0.53254862)
(0 0.020464243 0.52718664)
(0 0.018241834 0.52300591)
(0 0.01618421 0.51970051)
(0 0.014280626 0.5170771)
(0 0.012515299 0.5149843)
(0 0.010871313 0.5133102)
(0 0.0093330135 0.51197217)
(0 0.0078850921 0.51090845)
(0 0.0065129263 0.51007264)
(0 0.005202616 0.50943006)
(0 0.003940909 0.50895515)
(0 0.0027151223 0.50862964)
(0 0.0015130175 0.50844139)
(0 0.00032266274 0.5083836)
(0 -0.00086771848 0.5084543)
(0 -0.0020699499 0.50865639)
(0 -0.0032959875 0.50899769)
(0 -0.0045581407 0.50949148)
(0 -0.0058691884 0.51015736)
(0 -0.007242498 0.5110226)
(0 -0.0086921356 0.51212407)
(0 -0.010232944 0.51351108)
(0 -0.011880268 0.51524946)
(0 -0.013650584 0.51742788)
(0 -0.015561076 0.52016647)
(0 -0.017624233 0.52362119)
(0 -0.019861579 0.5280177)
(0 -0.022299206 0.53411326)
(0 -0.025277773 0.5446826)
(0 -0.02928733 0.56120974)
(0 -0.03075384 0.55661697)
(0 -0.021873118 0.44684479)
(0 -0.00056020027 0.16732283)
(0 -0.0010715562 0.14361526)
(0 0.017193824 0.41952322)
(0 0.03064785 0.55735913)
(0 0.031892634 0.57601958)
(0 0.027982694 0.55775895)
(0 0.024764018 0.54317509)
(0 0.022331684 0.53497063)
(0 0.02012164 0.52941092)
(0 0.018053287 0.52508201)
(0 0.016110217 0.52163466)
(0 0.014289786 0.51888026)
(0 0.012581817 0.51666969)
(0 0.010974426 0.5148914)
(0 0.009456149 0.51346269)
(0 0.0080151804 0.51232153)
(0 0.0066398365 0.51142118)
(0 0.0053186508 0.51072653)
(0 0.0040404048 0.5102116)
(0 0.0027941433 0.50985776)
(0 0.0015691339 0.50965261)
(0 0.00035480746 0.50958914)
(0 -0.00085931165 0.50966537)
(0 -0.0020837379 0.50988424)
(0 -0.0033290354 0.51025378)
(0 -0.0046059618 0.51078755)
(0 -0.0059255009 0.51150554)
(0 -0.0072988961 0.51243544)
(0 -0.0087376523 0.51361456)
(0 -0.010253545 0.51509262)
(0 -0.011858246 0.51693576)
(0 -0.013563664 0.51923273)
(0 -0.01538183 0.52210272)
(0 -0.017318762 0.52569871)
(0 -0.019389111 0.53026772)
(0 -0.021636352 0.53673364)
(0 -0.024404183 0.5479713)
(0 -0.02789875 0.56352602)
(0 -0.028127721 0.55189959)
(0 -0.018301111 0.43234111)
(0 0.0001737424 0.15748184)
(0 -0.0011547065 0.13703894)
(0 0.014068053 0.40486907)
(0 0.027760296 0.55005925)
(0 0.0301855 0.57693053)
(0 0.026991279 0.5609727)
(0 0.023994325 0.54587969)
(0 0.021727731 0.53720224)
(0 0.019693287 0.53146597)
(0 0.017770182 0.52702448)
(0 0.015939901 0.52346776)
(0 0.014205418 0.52060931)
(0 0.012560728 0.5183032)
(0 0.010997866 0.51643885)
(0 0.0095087505 0.51493402)
(0 0.0080845421 0.51372696)
(0 0.0067161384 0.51277104)
(0 0.0053942892 0.5120311)
(0 0.0041096944 0.51148105)
(0 0.0028530809 0.51110217)
(0 0.001615223 0.51088191)
(0 0.00038694367 0.51081321)
(0 -0.00084089006 0.51089405)
(0 -0.0020774414 0.5111274)
(0 -0.0033318556 0.51152136)
(0 -0.0046133404 0.51208961)
(0 -0.0059311337 0.51285225)
(0 -0.0072944766 0.51383708)
(0 -0.008712537 0.51508142)
(0 -0.010194373 0.51663488)
(0 -0.011748542 0.51856338)
(0 -0.013383211 0.52095511)
(0 -0.015106255 0.52392741)
(0 -0.016918872 0.52763082)
(0 -0.018832728 0.53234482)
(0 -0.020911303 0.53916051)
(0 -0.0234792 0.55089269)
(0 -0.026450113 0.5649674)
(0 -0.025626388 0.5463777)
(0 -0.015271824 0.41876985)
(0 0.00057886836 0.14954904)
(0 -0.001087149 0.13176575)
(0 0.011611687 0.3914983)
(0 0.025168203 0.54233917)
(0 0.028522916 0.57697496)
(0 0.026016593 0.56375131)
(0 0.023229981 0.54839699)
(0 0.021097481 0.53927186)
(0 0.019214577 0.53336914)
(0 0.017423697 0.52884126)
(0 0.015700274 0.52520187)
(0 0.014050479 0.52226227)
(0 0.012471199 0.51987999)
(0 0.01095738 0.51794579)
(0 0.0095035542 0.51637821)
(0 0.0081032922 0.51511608)
(0 0.0067496771 0.51411314)
(0 0.005435406 0.51333449)
(0 0.0041529223 0.51275417)
(0 0.0028945267 0.51235349)
(0 0.0016524394 0.51211994)
(0 0.00041884222 0.51204644)
(0 -0.00081407503 0.51213097)
(0 -0.0020541443 0.51237649)
(0 -0.0033091276 0.51279108)
(0 -0.0045867486 0.5133884)
(0 -0.0058946127 0.51418846)
(0 -0.0072401425 0.51521889)
(0 -0.0086304517 0.51651676)
(0 -0.010072283 0.51813124)
(0 -0.011571651 0.52012764)
(0 -0.013133801 0.52259319)
(0 -0.014763438 0.52564289)
(0 -0.016458534 0.52942665)
(0 -0.018231067 0.53426707)
(0 -0.02016461 0.54141044)
(0 -0.022544308 0.55345446)
(0 -0.025002427 0.56563857)
(0 -0.023312469 0.5403174)
(0 -0.012755603 0.40619306)
(0 0.00076427241 0.14313029)
(0 -0.00094532513 0.12745014)
(0 0.0097059501 0.37934502)
(0 0.022868085 0.53441949)
(0 0.026940033 0.5762981)
(0 0.02507732 0.56612207)
(0 0.022492152 0.55074766)
(0 0.020467538 0.54120714)
(0 0.018711906 0.53514002)
(0 0.017038271 0.53054332)
(0 0.015413353 0.52684228)
(0 0.013844291 0.52384039)
(0 0.012329817 0.52139833)
(0 0.010866941 0.51940836)
(0 0.0094521121 0.51778989)
(0 0.0080807853 0.51648247)
(0 0.0067478322 0.51544041)
(0 0.0054476066 0.51462922)
(0 0.0041740879 0.5140232)
(0 0.0029210029 0.51360384)
(0 0.0016819122 0.51335874)
(0 0.0004502782 0.51328086)
(0 -0.00078045286 0.5133682)
(0 -0.0020168484 0.51362367)
(0 -0.0032653695 0.51405527)
(0 -0.0045323662 0.51467652)
(0 -0.0058239678 0.51550721)
(0 -0.0071459974 0.51657465)
(0 -0.008503823 0.51791544)
(0 -0.009902287 0.51957812)
(0 -0.011345411 0.52162721)
(0 -0.012836261 0.52414875)
(0 -0.014377268 0.52725531)
(0 -0.01596464 0.53109902)
(0 -0.017613175 0.53605483)
(0 -0.019424364 0.54350092)
(0 -0.021627479 0.5556741)
(0 -0.023597645 0.56564983)
(0 -0.021213971 0.53393048)
(0 -0.010699913 0.39461048)
(0 0.00081026576 0.13789234)
(0 -0.00077672674 0.12383114)
(0 0.0082381871 0.36831247)
(0 0.020839642 0.52645991)
(0 0.025454701 0.57502796)
(0 0.024182196 0.56811463)
(0 0.021791921 0.55294862)
(0 0.01985499 0.54303268)
(0 0.018203986 0.53679833)
(0 0.016632309 0.53214311)
(0 0.015096462 0.52839623)
(0 0.013602609 0.5253471)
(0 0.012150516 0.52285874)
(0 0.010738585 0.52082488)
(0 0.0093645923 0.51916576)
(0 0.0080254094 0.51782168)
(0 0.0067173249 0.51674758)
(0 0.0054360631 0.51590943)
(0 0.0041769193 0.5152819)
(0 0.0029348772 0.51484675)
(0 0.0017047053 0.51459172)
(0 0.00048103811 0.51450986)
(0 -0.00074152099 0.51459917)
(0 -0.0019683742 0.51486251)
(0 -0.0032047947 0.51530777)
(0 -0.0044558986 0.51594824)
(0 -0.0057265178 0.51680341)
(0 -0.0070211096 0.51790016)
(0 -0.0083436041 0.51927453)
(0 -0.0096973389 0.52097434)
(0 -0.011084841 0.52306325)
(0 -0.012507625 0.52562607)
(0 -0.013966611 0.52877324)
(0 -0.015457543 0.53266258)
(0 -0.016999737 0.53772828)
(0 -0.018708713 0.54544836)
(0 -0.020746191 0.55757414)
(0 -0.022262262 0.56510632)
(0 -0.019335947 0.52737922)
(0 -0.0090419693 0.38398186)
(0 0.00077335477 0.13356293)
(0 -0.00060934222 0.12071857)
(0 0.0071092079 0.35829199)
(0 0.019054827 0.51857281)
(0 0.024072744 0.57327375)
(0 0.023333618 0.56975842)
(0 0.021133671 0.55501277)
(0 0.019269854 0.54476887)
(0 0.017703457 0.53836234)
(0 0.016219182 0.53365318)
(0 0.014762806 0.52987179)
(0 0.01333791 0.52678709)
(0 0.011944686 0.52426323)
(0 0.010582407 0.52219525)
(0 0.0092497101 0.52050412)
(0 0.007944486 0.51913079)
(0 0.0066641118 0.51803081)
(0 0.0054054157 0.51717065)
(0 0.0041647931 0.51652538)
(0 0.0029383088 0.51607703)
(0 0.0017217934 0.51581353)
(0 0.00051092625 0.51572805)
(0 -0.00069865022 0.51581858)
(0 -0.0019112925 0.51608792)
(0 -0.0031312177 0.51654381)
(0 -0.0043624609 0.51719929)
(0 -0.0056087435 0.51807351)
(0 -0.0068733878 0.51919286)
(0 -0.0081591742 0.52059278)
(0 -0.0094682917 0.52232041)
(0 -0.0108022 0.52443857)
(0 -0.012161376 0.52703089)
(0 -0.013545853 0.53020631)
(0 -0.014952015 0.53413213)
(0 -0.016404671 0.53930584)
(0 -0.018028345 0.54726707)
(0 -0.019910079 0.55917909)
(0 -0.021010677 0.56410308)
(0 -0.0176691 0.52078462)
(0 -0.0077170495 0.37424461)
(0 0.00069195504 0.12992689)
(0 -0.00045809441 0.11797726)
(0 0.0062364297 0.34917429)
(0 0.01748347 0.51083498)
(0 0.022792222 0.57112701)
(0 0.022530156 0.57108152)
(0 0.020517494 0.55694948)
(0 0.018717094 0.54643177)
(0 0.017218365 0.53984814)
(0 0.015808267 0.53508537)
(0 0.014422165 0.53127706)
(0 0.013059823 0.52816563)
(0 0.011721409 0.52561472)
(0 0.010406677 0.52352049)
(0 0.0091147612 0.52180446)
(0 0.0078442558 0.5204081)
(0 0.0065933462 0.51928749)
(0 0.0053597273 0.5184096)
(0 0.0041406933 0.51774986)
(0 0.0029332187 0.51729061)
(0 0.0017340475 0.51701995)
(0 0.0005397698 0.51693116)
(0 -0.00065306091 0.51702224)
(0 -0.0018478846 0.51729594)
(0 -0.0030480007 0.51775981)
(0 -0.0042565197 0.51842664)
(0 -0.0054762354 0.51931521)
(0 -0.0067095508 0.52045145)
(0 -0.0079583551 0.52187024)
(0 -0.0092239951 0.52361804)
(0 -0.010507215 0.52575699)
(0 -0.011807862 0.52836966)
(0 -0.013125571 0.53156433)
(0 -0.01445827 0.53552165)
(0 -0.015836599 0.54080342)
(0 -0.017388484 0.5489691)
(0 -0.019123063 0.56051377)
(0 -0.019848269 0.56272312)
(0 -0.016196104 0.51423456)
(0 -0.0066639349 0.36532557)
(0 0.00059124903 0.12681784)
(0 -0.00032945042 0.11551304)
(0 0.0055541141 0.34085574)
(0 0.016096599 0.50329679)
(0 0.0216068 0.56866373)
(0 0.021768353 0.57211013)
(0 0.019940903 0.55876536)
(0 0.018198191 0.54803351)
(0 0.016753368 0.54126941)
(0 0.015405845 0.53645039)
(0 0.014081558 0.53261974)
(0 0.012775599 0.52948804)
(0 0.01148777 0.52691658)
(0 0.010218022 0.5248023)
(0 0.0089657244 0.52306709)
(0 0.0077299264 0.52165283)
(0 0.0065093921 0.52051601)
(0 0.0053024789 0.519624)
(0 0.0041072 0.5189526)
(0 0.0029212799 0.51848441)
(0 0.0017422315 0.51820772)
(0 0.00056742259 0.51811589)
(0 -0.00060581139 0.51820697)
(0 -0.001780124 0.5184836)
(0 -0.0029580352 0.51895318)
(0 -0.0041418816 0.51962824)
(0 -0.0053336999 0.52052722)
(0 -0.0065351683 0.52167561)
(0 -0.0077475082 0.52310778)
(0 -0.008971478 0.52486966)
(0 -0.010207387 0.5270228)
(0 -0.011454761 0.52964893)
(0 -0.012713212 0.53285672)
(0 -0.013982891 0.53684375)
(0 -0.015300101 0.54223428)
(0 -0.016790485 0.55056433)
(0 -0.018385144 0.56160206)
(0 -0.018774244 0.56103728)
(0 -0.014896071 0.50779094)
(0 -0.0058280234 0.35714845)
(0 0.00048698752 0.12410922)
(0 -0.00022474299 0.11326158)
(0 0.0050117756 0.33324164)
(0 0.014868079 0.49598946)
(0 0.020508169 0.56594663)
(0 0.02104398 0.57286828)
(0 0.019400066 0.56046484)
(0 0.017712367 0.5495828)
(0 0.016310708 0.54263744)
(0 0.01501586 0.53775767)
(0 0.013745831 0.53390688)
(0 0.012490545 0.53075946)
(0 0.011249167 0.52817232)
(0 0.010021644 0.52604276)
(0 0.0088074014 0.52429292)
(0 0.0076057581 0.52286489)
(0 0.0064158723 0.52171546)
(0 0.005236595 0.52081236)
(0 0.0040665013 0.52013166)
(0 0.0029039217 0.51965619)
(0 0.0017470042 0.51937443)
(0 0.00059376749 0.51927982)
(0 -0.00055779553 0.51937041)
(0 -0.0017096777 0.51964878)
(0 -0.0028637499 0.52012217)
(0 -0.0040217149 0.52080287)
(0 -0.0051850064 0.52170902)
(0 -0.0063547468 0.52286571)
(0 -0.0075316762 0.5243069)
(0 -0.0087161687 0.5260781)
(0 -0.0099083088 0.52824041)
(0 -0.011107536 0.53087501)
(0 -0.012313708 0.53409213)
(0 -0.013529667 0.53810944)
(0 -0.014796817 0.54360905)
(0 -0.016233135 0.55206061)
(0 -0.017693878 0.56246613)
(0 -0.017783997 0.55910493)
(0 -0.013747442 0.50149573)
(0 -0.0051626447 0.34963857)
(0 0.00038838271 0.12170639)
(0 -0.00014244314 0.11117957)
(0 0.0045717539 0.32624765)
(0 0.013775192 0.48893066)
(0 0.019487592 0.56302754)
(0 0.020352817 0.57337791)
(0 0.01889066 0.56205081)
(0 0.017257522 0.5510855)
(0 0.015890986 0.54396131)
(0 0.014640548 0.5390153)
(0 0.013418171 0.53514477)
(0 0.012208418 0.53198467)
(0 0.011009607 0.52938538)
(0 0.009821535 0.52724417)
(0 0.0086435716 0.52548321)
(0 0.0074751691 0.52404468)
(0 0.0063157388 0.52288557)
(0 0.0051644872 0.52197382)
(0 0.0040204192 0.52128576)
(0 0.0028823448 0.52080441)
(0 0.0017489261 0.52051839)
(0 0.00061871678 0.52042121)
(0 -0.00050974892 0.52051093)
(0 -0.0016379196 0.52079006)
(0 -0.0027671362 0.5212657)
(0 -0.0038985947 0.52194994)
(0 -0.0050332595 0.52286064)
(0 -0.0061718401 0.52402259)
(0 -0.0073147473 0.52546942)
(0 -0.0084621276 0.52724632)
(0 -0.0096139944 0.52941415)
(0 -0.010769863 0.53205379)
(0 -0.011930044 0.53527831)
(0 -0.013100325 0.53932802)
(0 -0.014326364 0.54493588)
(0 -0.015713659 0.553464)
(0 -0.017045476 0.56312616)
(0 -0.016870855 0.55697535)
(0 -0.012729718 0.49537613)
(0 -0.0046292505 0.34272565)
(0 0.00030026884 0.11953971)
(0 -7.9639926e-05 0.10923807)
(0 0.0042066267 0.31979999)
(0 0.012798617 0.48212865)
(0 0.01853678 0.5599495)
(0 0.019691062 0.57365912)
(0 0.018408402 0.5635251)
(0 0.016830891 0.55254523)
(0 0.015493749 0.54524807)
(0 0.01428094 0.5402301)
(0 0.013100523 0.5363389)
(0 0.011931776 0.53316795)
(0 0.010771982 0.53055903)
(0 0.0096206886 0.52840883)
(0 0.008477147 0.52663943)
(0 0.0073408489 0.52519294)
(0 0.006211352 0.52402644)
(0 0.0050881092 0.52310803)
(0 0.0039704454 0.52241419)
(0 0.002857542 0.5219281)
(0 0.0017484694 0.52163848)
(0 0.00064221161 0.52153892)
(0 -0.0004622594 0.52162747)
(0 -0.001565953 0.52190657)
(0 -0.0026697876 0.52238322)
(0 -0.0037745619 0.52306933)
(0 -0.0048808857 0.52398254)
(0 -0.0059891733 0.5251474)
(0 -0.0070996251 0.52659729)
(0 -0.0082122778 0.52837727)
(0 -0.0093271779 0.53054804)
(0 -0.01044403 0.53319054)
(0 -0.011563742 0.53642196)
(0 -0.012695132 0.54050712)
(0 -0.013887061 0.5462208)
(0 -0.015228457 0.55477907)
(0 -0.01643557 0.56360024)
(0 -0.016027293 0.55468928)
(0 -0.01182435 0.48944856)
(0 -0.0041968999 0.33634549)
(0 0.00022463198 0.11755871)
(0 -3.2964546e-05 0.10741756)
(0 0.0038968189 0.31383484)
(0 0.011922125 0.47558535)
(0 0.017648314 0.55674849)
(0 0.01905549 0.57373046)
(0 0.017949342 0.56488902)
(0 0.016429472 0.55396385)
(0 0.015117908 0.54650311)
(0 0.013937246 0.54140775)
(0 0.012793942 0.53749399)
(0 0.011662265 0.53431313)
(0 0.010538303 0.53169627)
(0 0.0094212873 0.52953898)
(0 0.0083103204 0.52776312)
(0 0.0072048702 0.52631062)
(0 0.0061045633 0.52513852)
(0 0.0050090146 0.52421499)
(0 0.00391778 0.52351663)
(0 0.0028303219 0.52302672)
(0 0.0017460278 0.52273406)
(0 0.00066422059 0.52263228)
(0 -0.00041578097 0.52271943)
(0 -0.0014946395 0.5229979)
(0 -0.0025729437 0.5234746)
(0 -0.0036511892 0.52416129)
(0 -0.0047297264 0.52507544)
(0 -0.0058087681 0.52624144)
(0 -0.006888396 0.52769255)
(0 -0.0079686211 0.52947374)
(0 -0.0090495893 0.53164573)
(0 -0.01013127 0.53428989)
(0 -0.011215268 0.53752878)
(0 -0.012313375 0.5416528)
(0 -0.013476471 0.54746799)
(0 -0.014773612 0.5560092)
(0 -0.015859729 0.56390461)
(0 -0.015245731 0.55228036)
(0 -0.011015092 0.48372179)
(0 -0.0038413495 0.3304405)
(0 0.00016167805 0.11572723)
(0 8.68163e-07 0.10570452)
(0 0.0036285614 0.30829738)
(0 0.011132155 0.46929845)
(0 0.016815777 0.55345478)
(0 0.018443472 0.57360915)
(0 0.017510003 0.56614369)
(0 0.016050297 0.55534202)
(0 0.014762022 0.54773038)
(0 0.013609136 0.54255288)
(0 0.012498847 0.53861406)
(0 0.011400848 0.53542354)
(0 0.010309901 0.53279981)
(0 0.0092248695 0.53063676)
(0 0.0081446984 0.52885587)
(0 0.0070687932 0.52739879)
(0 0.0059967947 0.52622245)
(0 0.004928416 0.52529501)
(0 0.0038633728 0.52459311)
(0 0.002801334 0.52410011)
(0 0.0017419274 0.52380485)
(0 0.00068473706 0.523701)
(0 -0.00037065004 0.52378659)
(0 -0.0014246291 0.52406398)
(0 -0.0024775385 0.52453999)
(0 -0.003529649 0.52522629)
(0 -0.0045811288 0.52614024)
(0 -0.0056320632 0.52730612)
(0 -0.0066824825 0.52875713)
(0 -0.0077324302 0.5305383)
(0 -0.0087821891 0.53271049)
(0 -0.0098320378 0.53535583)
(0 -0.010884355 0.53860348)
(0 -0.011953721 0.54276979)
(0 -0.013091784 0.54868018)
(0 -0.014345226 0.55715696)
(0 -0.015313773 0.56405385)
(0 -0.014519029 0.54977648)
(0 -0.010288013 0.47819918)
(0 -0.0035439831 0.32495979)
(0 0.00011057649 0.11401955)
(0 2.4781324e-05 0.10408912)
(0 0.0033922527 0.3031407)
(0 0.010417382 0.46326287)
(0 0.016033719 0.55009405)
(0 0.017852918 0.57331132)
(0 0.017087418 0.56729026)
(0 0.015690574 0.5566795)
(0 0.014424491 0.54893272)
(0 0.013295945 0.54366931)
(0 0.012215221 0.53970253)
(0 0.011147996 0.53650206)
(0 0.010087592 0.53387208)
(0 0.0090324686 0.53170412)
(0 0.0079814181 0.52991919)
(0 0.0069337599 0.52845858)
(0 0.0058891126 0.52727901)
(0 0.0048472396 0.52634856)
(0 0.003807961 0.52564389)
(0 0.002771092 0.52514836)
(0 0.001736437 0.52485087)
(0 0.00070377603 0.52474507)
(0 -0.00032710213 0.52482899)
(0 -0.001356392 0.52510498)
(0 -0.0023842473 0.52557978)
(0 -0.0034107785 0.526265)
(0 -0.0044360329 0.52717792)
(0 -0.0054600246 0.5283428)
(0 -0.0064827808 0.52979287)
(0 -0.0075044147 0.53157328)
(0 -0.0085253635 0.53374514)
(0 -0.009546241 0.53639176)
(0 -0.010570248 0.53964996)
(0 -0.011614483 0.54386163)
(0 -0.012730089 0.54985893)
(0 -0.013939628 0.55822433)
(0 -0.014793937 0.56406111)
(0 -0.013840737 0.54720088)
(0 -0.0096313339 0.47288043)
(0 -0.0032907449 0.31985879)
(0 6.9966989e-05 0.11241738)
(0 4.1227991e-05 0.10256374)
(0 0.0031812038 0.29832466)
(0 0.0097683086 0.45747181)
(0 0.015297531 0.54668816)
(0 0.017282178 0.57285213)
(0 0.016679114 0.56833015)
(0 0.015347765 0.55797553)
(0 0.014103673 0.55011203)
(0 0.012996808 0.54476007)
(0 0.011942756 0.54076228)
(0 0.010903822 0.53755118)
(0 0.0098718038 0.5349152)