/*--------------------------------*- C++ -*----------------------------------*\
  =========                 |
  \\      /  F ield         | OpenFOAM: The Open Source CFD Toolbox
   \\    /   O peration     | Website:  https://openfoam.org
    \\  /    A nd           | Version:  10
     \\/     M anipulation  |
\*---------------------------------------------------------------------------*/
FoamFile
{
    format      ascii;
    class       volVectorField;
    location    "0.18";
    object      U_0;
}
// * * * * * * * * * * * * * * * * * * * * * * * * * * * * * * * * * * * * * //

dimensions      [0 1 -1 0 0 0 0];

internalField   nonuniform List<vector> 
4000
(
(0 0.018637297 0.47773165)
(0 0.023509697 0.50886057)
(0 0.0081665737 0.50052522)
(0 0.0056143413 0.50033635)
(0 0.0042543443 0.50025746)
(0 0.0032546654 0.50016898)
(0 0.0025558295 0.50011968)
(0 0.0020543484 0.50009012)
(0 0.001676382 0.5000698)
(0 0.0013820866 0.50005538)
(0 0.0011470887 0.50004498)
(0 0.00095504919 0.50003732)
(0 0.0007947129 0.50003159)
(0 0.00065810359 0.50002726)
(0 0.00053939213 0.50002397)
(0 0.00043419713 0.50002149)
(0 0.0003391304 0.50001965)
(0 0.00025148924 0.50001832)
(0 0.00016904009 0.50001743)
(0 8.986025e-05 0.50001692)
(0 1.2215503e-05 0.50001677)
(0 -6.5547122e-05 0.50001697)
(0 -0.00014509078 0.50001753)
(0 -0.00022818088 0.50001849)
(0 -0.00031679584 0.50001989)
(0 -0.00041325774 0.50002184)
(0 -0.00052040401 0.50002445)
(0 -0.00064182682 0.50002792)
(0 -0.00078222085 0.50003251)
(0 -0.00094791322 0.50003863)
(0 -0.0011477146 0.50004688)
(0 -0.0013942845 0.50005824)
(0 -0.0017063708 0.50007414)
(0 -0.0021143238 0.5000971)
(0 -0.0026740596 0.50013482)
(0 -0.0034676974 0.50020239)
(0 -0.0045600245 0.50027146)
(0 -0.0065842725 0.50043368)
(0 -0.017658721 0.50675396)
(0 -0.013589758 0.47975585)
(0 0.037432238 0.44796983)
(0 0.050954817 0.5323261)
(0 0.021968386 0.5080429)
(0 0.016134764 0.50357323)
(0 0.012415165 0.50242316)
(0 0.0095150565 0.50162297)
(0 0.0075197784 0.50115657)
(0 0.0060691323 0.50086587)
(0 0.0049639196 0.50066793)
(0 0.0040996057 0.50052892)
(0 0.0034072381 0.50042894)
(0 0.0028398673 0.50035542)
(0 0.0023651174 0.50030052)
(0 0.0019599025 0.50025911)
(0 0.0016072602 0.50022776)
(0 0.0012943931 0.50020409)
(0 0.001011374 0.50018649)
(0 0.00075026251 0.50017381)
(0 0.00050448228 0.5001653)
(0 0.00026836129 0.50016047)
(0 3.6776587e-05 0.50015904)
(0 -0.0001951537 0.50016095)
(0 -0.00043234154 0.5001663)
(0 -0.00067999971 0.50017541)
(0 -0.00094396131 0.50018884)
(0 -0.0012310582 0.5002074)
(0 -0.0015496172 0.50023235)
(0 -0.0019101474 0.50026548)
(0 -0.0023263327 0.50030942)
(0 -0.0028165158 0.50036805)
(0 -0.003406075 0.50044732)
(0 -0.0041313898 0.5005567)
(0 -0.0050455431 0.50071129)
(0 -0.006228405 0.50093666)
(0 -0.0078288616 0.50129447)
(0 -0.010122721 0.50191066)
(0 -0.013104152 0.50282534)
(0 -0.017423665 0.50608133)
(0 -0.038756612 0.52526803)
(0 -0.027893533 0.45021803)
(0 0.039887596 0.40982207)
(0 0.061426545 0.54930834)
(0 0.031982034 0.52188191)
(0 0.024353953 0.51008064)
(0 0.019192031 0.50658857)
(0 0.014975609 0.50452801)
(0 0.012005277 0.50327128)
(0 0.0097706173 0.50245822)
(0 0.0080353883 0.50190086)
(0 0.0066639405 0.50150844)
(0 0.0055560496 0.50122519)
(0 0.0046421778 0.5010164)
(0 0.003873584 0.50086023)
(0 0.0032148686 0.50074228)
(0 0.0026396937 0.50065288)
(0 0.0021280023 0.50058535)
(0 0.0016641135 0.50053507)
(0 0.0012354036 0.50049885)
(0 0.0008313611 0.50047453)
(0 0.00044288297 0.50046071)
(0 6.1723605e-05 0.50045662)
(0 -0.00031998284 0.50046207)
(0 -0.00071014956 0.50047737)
(0 -0.0011171604 0.50050341)
(0 -0.001550365 0.50054174)
(0 -0.0020206627 0.50059474)
(0 -0.0025412568 0.5006659)
(0 -0.0031286848 0.50076031)
(0 -0.0038042818 0.50088536)
(0 -0.0045962925 0.50105196)
(0 -0.005543077 0.50127666)
(0 -0.0066986214 0.50158559)
(0 -0.0081401333 0.50202086)
(0 -0.0099717105 0.50265088)
(0 -0.012366168 0.50361533)
(0 -0.01571149 0.50519957)
(0 -0.0198684 0.50785449)
(0 -0.025182086 0.51641248)
(0 -0.047413169 0.53912785)
(0 -0.030851967 0.41488426)
(0 0.034790735 0.36173305)
(0 0.06383662 0.5545642)
(0 0.039377694 0.53747124)
(0 0.030080996 0.51849268)
(0 0.024110183 0.5119773)
(0 0.019277232 0.50849932)
(0 0.015733945 0.50626401)
(0 0.012952146 0.5047551)
(0 0.010741872 0.50370399)
(0 0.0089664274 0.5029556)
(0 0.0075127755 0.50241048)
(0 0.006301247 0.50200613)
(0 0.0052740319 0.50170227)
(0 0.0043878682 0.50147199)
(0 0.0036099339 0.50129694)
(0 0.0029148401 0.50116442)
(0 0.0022824749 0.5010656)
(0 0.0016964723 0.50099432)
(0 0.0011430857 0.50094639)
(0 0.00061032952 0.50091913)
(0 8.7296946e-05 0.50091107)
(0 -0.00043643894 0.5009218)
(0 -0.00097136575 0.50095193)
(0 -0.00152856 0.50100319)
(0 -0.0021203073 0.50107857)
(0 -0.00276082 0.50118264)
(0 -0.0034671439 0.50132212)
(0 -0.0042603632 0.5015067)
(0 -0.0051672644 0.50175036)
(0 -0.0062226339 0.50207359)
(0 -0.0074723471 0.50250686)
(0 -0.0089786434 0.50309717)
(0 -0.010828901 0.50391924)
(0 -0.013129694 0.50508944)
(0 -0.016016679 0.50680727)
(0 -0.019892449 0.50946815)
(0 -0.024725003 0.51427571)
(0 -0.031106665 0.52824728)
(0 -0.050314011 0.54407413)
(0 -0.028436156 0.37238874)
(0 0.027423302 0.31484813)
(0 0.062311851 0.55024275)
(0 0.04461066 0.55146749)
(0 0.033978595 0.5274881)
(0 0.027460662 0.5177224)
(0 0.022451846 0.51291959)
(0 0.018633645 0.509731)
(0 0.015525242 0.50749202)
(0 0.013003655 0.50589916)
(0 0.010940047 0.50474598)
(0 0.009223033 0.50389508)
(0 0.0077737531 0.50325799)
(0 0.0065322144 0.50277581)
(0 0.0054519847 0.50240833)
(0 0.0044970081 0.50212774)
(0 0.0036388117 0.50191461)
(0 0.0028544433 0.50175523)
(0 0.0021249558 0.50164003)
(0 0.0014342468 0.50156246)
(0 0.00076814772 0.50151828)
(0 0.00011368557 0.50150519)
(0 -0.0005415787 0.50152252)
(0 -0.0012101532 0.50157127)
(0 -0.0019051931 0.50165413)
(0 -0.0026411854 0.50177579)
(0 -0.003434719 0.50194339)
(0 -0.0043054299 0.50216734)
(0 -0.0052772124 0.50246251)
(0 -0.0063798269 0.50285019)
(0 -0.0076510584 0.50336099)
(0 -0.0091391806 0.50403957)
(0 -0.01090664 0.50495246)
(0 -0.013040282 0.50620249)
(0 -0.015643922 0.50794455)
(0 -0.018805415 0.51040501)
(0 -0.022886286 0.5140559)
(0 -0.028168017 0.52114654)
(0 -0.035697617 0.53932697)
(0 -0.050469118 0.54156056)
(0 -0.024083676 0.33057148)
(0 0.019836884 0.27520491)
(0 0.057986272 0.5397506)
(0 0.047358651 0.56256477)
(0 0.036472929 0.5366043)
(0 0.029631613 0.52350699)
(0 0.024671744 0.51740291)
(0 0.020770095 0.51336233)
(0 0.017505976 0.51044359)
(0 0.014810882 0.50832302)
(0 0.01256387 0.5067604)
(0 0.010663409 0.50559118)
(0 0.0090374983 0.50470621)
(0 0.0076285119 0.50403058)
(0 0.0063905801 0.50351206)
(0 0.0052872344 0.50311394)
(0 0.0042889966 0.50281018)
(0 0.0033716284 0.50258224)
(0 0.0025147833 0.50241705)
(0 0.0017009273 0.50230558)
(0 0.00091446306 0.502242)
(0 0.00014100301 0.50222309)
(0 -0.00063329643 0.50224795)
(0 -0.0014223513 0.50231795)
(0 -0.0022407269 0.5024368)
(0 -0.0031043299 0.50261096)
(0 -0.0040311585 0.50285022)
(0 -0.0050421993 0.50316871)
(0 -0.0061625294 0.50358644)
(0 -0.0074227101 0.50413157)
(0 -0.0088606813 0.50484406)
(0 -0.010523721 0.50578091)
(0 -0.012470135 0.50702441)
(0 -0.014780146 0.50869772)
(0 -0.017555561 0.5109825)
(0 -0.020850372 0.51412112)
(0 -0.024960843 0.51873179)
(0 -0.030496182 0.52823113)
(0 -0.038617022 0.54872526)
(0 -0.048499288 0.53399463)
(0 -0.019064114 0.29395881)
(0 0.013082109 0.24256466)
(0 0.051794372 0.5252074)
(0 0.047702766 0.57024904)
(0 0.037750818 0.54552434)
(0 0.030844553 0.52928831)
(0 0.026067887 0.52180107)
(0 0.022232646 0.5169969)
(0 0.018948808 0.51347205)
(0 0.016189177 0.51086318)
(0 0.013845928 0.50891035)
(0 0.01183256 0.50743027)
(0 0.010086478 0.50629789)
(0 0.0085550501 0.50542548)
(0 0.0071955173 0.50475089)
(0 0.0059730691 0.50422975)
(0 0.0048588767 0.50383014)
(0 0.003828741 0.50352909)
(0 0.0028619789 0.50331022)
(0 0.0019404912 0.50316218)
(0 0.0010479823 0.50307757)
(0 0.00016929633 0.50305231)
(0 -0.00071020603 0.50308526)
(0 -0.0016052368 0.50317812)
(0 -0.0025311137 0.50333563)
(0 -0.0035044153 0.50356593)
(0 -0.0045436597 0.50388131)
(0 -0.0056700988 0.50429935)
(0 -0.0069086605 0.5048447)
(0 -0.0082890638 0.50555161)
(0 -0.0098473935 0.50646788)
(0 -0.011627859 0.50766064)
(0 -0.01368272 0.50922477)
(0 -0.016081494 0.51129823)
(0 -0.018919503 0.5140804)
(0 -0.022228143 0.51784014)
(0 -0.026248154 0.52346986)
(0 -0.031832105 0.5353764)
(0 -0.039742626 0.55589933)
(0 -0.044882584 0.52284038)
(0 -0.014087604 0.26267301)
(0 0.0077689889 0.21555384)
(0 0.044820641 0.50802048)
(0 0.046247167 0.57438241)
(0 0.038027229 0.5537503)
(0 0.031280418 0.53495989)
(0 0.026761202 0.52602945)
(0 0.023109926 0.52053702)
(0 0.019914553 0.51648628)
(0 0.017176517 0.51343918)
(0 0.014808581 0.51112772)
(0 0.012742308 0.50935617)
(0 0.010925635 0.50798727)
(0 0.0093126492 0.50692339)
(0 0.0078653701 0.50609464)
(0 0.0065520416 0.50545041)
(0 0.0053456948 0.50495384)
(0 0.0042232062 0.50457818)
(0 0.0031644317 0.50430415)
(0 0.0021514553 0.50411833)
(0 0.0011679388 0.5040119)
(0 0.00019855273 0.50397999)
(0 -0.00077157169 0.50402121)
(0 -0.0017573735 0.50413763)
(0 -0.0027743218 0.50433487)
(0 -0.0038390031 0.5046226)
(0 -0.0049696962 0.50501533)
(0 -0.0061870354 0.50553366)
(0 -0.0075147747 0.5062062)
(0 -0.0089806135 0.50707228)
(0 -0.010617363 0.50818605)
(0 -0.012464621 0.50962276)
(0 -0.014567534 0.51148747)
(0 -0.016982314 0.51392905)
(0 -0.019790653 0.51715629)
(0 -0.023008551 0.52148222)
(0 -0.026858347 0.52818502)
(0 -0.03233014 0.54222141)
(0 -0.03938247 0.56050714)
(0 -0.040314862 0.50910984)
(0 -0.0097047958 0.23589365)
(0 0.004003756 0.19357246)
(0 0.037893579 0.48950224)
(0 0.043676915 0.57524335)
(0 0.037553723 0.56084374)
(0 0.031144866 0.54036008)
(0 0.026905313 0.53001022)
(0 0.0235057 0.52389997)
(0 0.020472536 0.51941005)
(0 0.01781979 0.51598463)
(0 0.015483475 0.51335516)
(0 0.013413254 0.5113198)
(0 0.011567765 0.50973271)
(0 0.0099088311 0.50848923)
(0 0.0084042043 0.50751371)
(0 0.0070260408 0.50675077)
(0 0.0057500546 0.5061597)
(0 0.0045549481 0.50571064)
(0 0.0034217868 0.50538197)
(0 0.0023334403 0.50515849)
(0 0.0012740766 0.50503021)
(0 0.00022870448 0.50499155)
(0 -0.00081727977 0.50504094)
(0 -0.001878546 0.50518072)
(0 -0.0029701994 0.50541731)
(0 -0.0041082799 0.50576165)
(0 -0.005310219 0.50623013)
(0 -0.0065953549 0.50684584)
(0 -0.0079855157 0.50764059)
(0 -0.0095055755 0.50865773)
(0 -0.011184151 0.50995634)
(0 -0.013055126 0.51161773)
(0 -0.015156038 0.51375457)
(0 -0.017529532 0.51652262)
(0 -0.020239798 0.52013298)
(0 -0.023294737 0.52496576)
(0 -0.026935986 0.53274249)
(0 -0.032177063 0.54839165)
(0 -0.037969648 0.56255254)
(0 -0.035399384 0.49382995)
(0 -0.0061969729 0.21329775)
(0 0.0015498176 0.17615324)
(0 0.031492843 0.47078257)
(0 0.040520182 0.5733915)
(0 0.036546153 0.56659684)
(0 0.030625542 0.54537672)
(0 0.026660561 0.53370292)
(0 0.02353255 0.52702981)
(0 0.020700629 0.52218506)
(0 0.018174142 0.51844706)
(0 0.01590959 0.51554612)
(0 0.013872534 0.51328006)
(0 0.012031525 0.51149827)
(0 0.010356249 0.51009171)
(0 0.0088204324 0.50898089)
(0 0.0074005266 0.50810709)
(0 0.0060753994 0.50742677)
(0 0.0048260577 0.50690777)
(0 0.0036352425 0.50652664)
(0 0.0024870565 0.50626679)
(0 0.0013666012 0.50611727)
(0 0.00025963472 0.50607195)
(0 -0.0008477773 0.50612911)
(0 -0.0019696306 0.50629133)
(0 -0.0031202519 0.50656563)
(0 -0.0043147039 0.50696401)
(0 -0.0055691185 0.50750431)
(0 -0.0069010637 0.50821156)
(0 -0.0083299501 0.50911999)
(0 -0.0098773686 0.51027589)
(0 -0.011567349 0.51174183)
(0 -0.013427635 0.51360315)
(0 -0.015488317 0.51597734)
(0 -0.017780032 0.51902295)
(0 -0.020349772 0.52295103)
(0 -0.023204795 0.52823821)
(0 -0.026624979 0.53704268)
(0 -0.031534136 0.55366)
(0 -0.035875117 0.56232253)
(0 -0.030535667 0.47794208)
(0 -0.0035871082 0.19466554)
(0 7.5350994e-05 0.16254879)
(0 0.025862679 0.45262821)
(0 0.037145181 0.56944255)
(0 0.035175438 0.57098715)
(0 0.029862576 0.54996032)
(0 0.026159926 0.53711153)
(0 0.023292808 0.52990916)
(0 0.0206753 0.52477986)
(0 0.018296925 0.52079277)
(0 0.016129264 0.51766766)
(0 0.01415101 0.51520598)
(0 0.01233929 0.51325556)
(0 0.010671006 0.51170516)
(0 0.0091255253 0.5104731)
(0 0.0076835724 0.5094986)
(0 0.0063273195 0.5087363)
(0 0.0050403078 0.50815244)
(0 0.0038072273 0.50772227)
(0 0.0026137091 0.50742821)
(0 0.0014460912 0.50725858)
(0 0.00029118566 0.50720685)
(0 -0.00086396733 0.50727117)
(0 -0.0020323825 0.50745429)
(0 -0.0032273025 0.50776373)
(0 -0.0044625068 0.50821223)
(0 -0.0057525302 0.50881872)
(0 -0.0071128934 0.50960958)
(0 -0.0085603493 0.5106207)
(0 -0.010113065 0.51190033)
(0 -0.011790552 0.51351319)
(0 -0.013614624 0.51554694)
(0 -0.015608524 0.51812132)
(0 -0.017792903 0.52139456)
(0 -0.020200192 0.52558112)
(0 -0.022843951 0.53128537)
(0 -0.026041377 0.54103304)
(0 -0.030531922 0.55793576)
(0 -0.033392142 0.56021258)
(0 -0.025975443 0.46213534)
(0 -0.0017608995 0.17953731)
(0 -0.00071943525 0.15193576)
(0 0.021099236 0.43547107)
(0 0.033802229 0.5639456)
(0 0.033584596 0.57408763)
(0 0.028956592 0.55409021)
(0 0.025502914 0.54026026)
(0 0.022870061 0.53254848)
(0 0.020463464 0.52718644)
(0 0.018241108 0.52300566)
(0 0.016183548 0.5197002)
(0 0.014280037 0.51707675)
(0 0.012514793 0.51498389)
(0 0.010870898 0.51330975)
(0 0.0093326968 0.5119717)
(0 0.0078848807 0.51090794)
(0 0.0065128258 0.5100721)
(0 0.0052026312 0.50942951)
(0 0.0039410436 0.50895458)
(0 0.002715379 0.50862906)
(0 0.001513398 0.50844081)
(0 0.0003231677 0.50838301)
(0 -0.00086708953 0.50845373)
(0 -0.0020691985 0.50865583)
(0 -0.0032951163 0.50899714)
(0 -0.0045571534 0.50949096)
(0 -0.00586809 0.51015687)
(0 -0.0072412947 0.51102215)
(0 -0.0086908347 0.51212366)
(0 -0.010231554 0.51351072)
(0 -0.011878799 0.51524916)
(0 -0.013649046 0.51742764)
(0 -0.015559481 0.5201663)
(0 -0.017622596 0.52362109)
(0 -0.019859915 0.52801769)
(0 -0.022297527 0.5341133)
(0 -0.025276052 0.54468258)
(0 -0.029285548 0.56120977)
(0 -0.030752227 0.55661816)
(0 -0.021872225 0.44684813)
(0 -0.00056002189 0.16732592)
(0 -0.0010716255 0.14361688)
(0 0.017193351 0.41952545)
(0 0.030646899 0.55736012)
(0 0.031891507 0.57601957)
(0 0.027981611 0.55775875)
(0 0.024763004 0.54317494)
(0 0.022330712 0.53497045)
(0 0.020120716 0.52941067)
(0 0.018052425 0.52508169)
(0 0.016109429 0.52163428)
(0 0.014289084 0.51887982)
(0 0.012581211 0.5166692)
(0 0.010973925 0.51489086)
(0 0.009455762 0.51346211)
(0 0.0080149151 0.51232091)
(0 0.0066396992 0.51142052)
(0 0.005318647 0.51072585)
(0 0.0040405388 0.5102109)
(0 0.0027944182 0.50985705)
(0 0.0015695517 0.50965189)
(0 0.00035536892 0.50958842)
(0 -0.0008586068 0.50966466)
(0 -0.0020828913 0.50988355)
(0 -0.0033280498 0.51025311)
(0 -0.0046048413 0.51078691)
(0 -0.005924251 0.51150493)
(0 -0.0072975234 0.51243488)
(0 -0.0087361649 0.51361405)
(0 -0.010251952 0.51509217)
(0 -0.011856559 0.51693538)
(0 -0.013561894 0.51923242)
(0 -0.015379992 0.52210249)
(0 -0.01731687 0.52569857)
(0 -0.019387182 0.53026769)
(0 -0.021634396 0.53673365)
(0 -0.024402165 0.54797122)
(0 -0.02789667 0.56352612)
(0 -0.028125888 0.55190125)
(0 -0.018300122 0.43234529)
(0 0.00017393176 0.15748545)
(0 -0.0011547772 0.13704082)
(0 0.01406752 0.40487182)
(0 0.027759209 0.5500606)
(0 0.030184175 0.5769306)
(0 0.02698999 0.56097244)
(0 0.023993121 0.54587948)
(0 0.021726583 0.53720201)
(0 0.019692196 0.53146566)
(0 0.017769164 0.52702409)
(0 0.015938969 0.52346729)
(0 0.014204586 0.52060877)
(0 0.012560007 0.5183026)
(0 0.010997266 0.51643819)
(0 0.0095082822 0.51493331)
(0 0.0080842136 0.51372621)
(0 0.006715957 0.51277024)
(0 0.005394261 0.51203027)
(0 0.0041098243 0.51148021)
(0 0.0028533724 0.51110131)
(0 0.0016156787 0.51088104)
(0 0.00038756441 0.51081234)
(0 -0.00084010444 0.51089319)
(0 -0.0020764926 0.51112656)
(0 -0.0033307465 0.51152054)
(0 -0.0046120754 0.51208883)
(0 -0.0059297187 0.51285151)
(0 -0.0072929189 0.51383639)
(0 -0.0087108455 0.51508079)
(0 -0.010192558 0.51663432)
(0 -0.011746615 0.5185629)
(0 -0.013381186 0.52095472)
(0 -0.015104146 0.52392711)
(0 -0.016916696 0.52763064)
(0 -0.018830504 0.53234474)
(0 -0.020909037 0.53916047)
(0 -0.023476848 0.55089254)
(0 -0.026447705 0.56496759)
(0 -0.025624318 0.54637994)
(0 -0.015270731 0.41877499)
(0 0.0005790678 0.14955322)
(0 -0.0010872201 0.13176791)
(0 0.011611087 0.39150165)
(0 0.025166965 0.54234095)
(0 0.028521372 0.57697513)
(0 0.026015071 0.563751)
(0 0.023228561 0.54839671)
(0 0.021096132 0.53927157)
(0 0.019213297 0.53336876)
(0 0.017422503 0.52884078)
(0 0.015699179 0.5252013)
(0 0.014049499 0.52226162)
(0 0.012470347 0.51987926)
(0 0.010956668 0.517945)
(0 0.0095029927 0.51637735)
(0 0.0081028905 0.51511517)
(0 0.0067494437 0.51411218)
(0 0.0054353476 0.5133335)
(0 0.0041530444 0.51275315)
(0 0.0028948335 0.51235245)
(0 0.0016529336 0.51211889)
(0 0.00041952514 0.51204539)
(0 -0.00081320347 0.51212993)
(0 -0.0020530857 0.51237548)
(0 -0.0033078851 0.5127901)
(0 -0.0045853269 0.51338745)
(0 -0.0058930181 0.51418756)
(0 -0.0072383828 0.51521806)
(0 -0.0086285365 0.51651599)
(0 -0.010070224 0.51813055)
(0 -0.01156946 0.52012705)
(0 -0.013131493 0.5225927)
(0 -0.01476103 0.52564251)
(0 -0.016456043 0.5294264)
(0 -0.018228514 0.53426694)
(0 -0.020161995 0.54141033)
(0 -0.022541582 0.55345423)
(0 -0.024999658 0.56563891)
(0 -0.023310143 0.54032035)
(0 -0.012754394 0.40619929)
(0 0.00076448044 0.14313507)
(0 -0.00094539586 0.12745263)
(0 0.0097052754 0.37934906)
(0 0.022866683 0.53442179)
(0 0.026938244 0.57629841)
(0 0.025075533 0.56612169)
(0 0.022490485 0.55074729)
(0 0.020465961 0.54120677)
(0 0.018710413 0.53513955)
(0 0.017036877 0.53054274)
(0 0.015412074 0.5268416)
(0 0.013843145 0.52383961)
(0 0.012328817 0.52139746)
(0 0.010866101 0.51940741)
(0 0.0094514438 0.51778887)
(0 0.0080802993 0.51648139)
(0 0.0067475375 0.51543928)
(0 0.0054475111 0.51462804)
(0 0.0041741977 0.51402199)
(0 0.0029213227 0.51360261)
(0 0.0016824452 0.51335749)
(0 0.00045102612 0.51327962)
(0 -0.00077949003 0.51336696)
(0 -0.0020156722 0.51362245)
(0 -0.0032639832 0.51405409)
(0 -0.0045307747 0.51467538)
(0 -0.0058221778 0.51550613)
(0 -0.0071440174 0.51657365)
(0 -0.0085016631 0.51791452)
(0 -0.0098999595 0.51957729)
(0 -0.01134293 0.52162648)
(0 -0.012833642 0.52414814)
(0 -0.014374528 0.52725484)
(0 -0.015961801 0.53109869)
(0 -0.017610255 0.53605463)
(0 -0.019421358 0.54350072)
(0 -0.021624336 0.55567379)
(0 -0.023594479 0.56565037)
(0 -0.021211366 0.53393426)
(0 -0.010698576 0.39461794)
(0 0.00081048069 0.13789779)
(0 -0.00077679631 0.12383398)
(0 0.0082374306 0.36831729)
(0 0.020838059 0.52646283)
(0 0.025452641 0.57502847)
(0 0.02418011 0.56811419)
(0 0.021789973 0.55294814)
(0 0.019853154 0.54303221)
(0 0.01820225 0.53679776)
(0 0.016630688 0.53214242)
(0 0.015094976 0.52839542)
(0 0.013601274 0.52534617)
(0 0.012149349 0.5228577)
(0 0.010737599 0.52082375)
(0 0.0093638022 0.51916455)
(0 0.0080248263 0.5178204)
(0 0.0067169588 0.51674623)
(0 0.0054359227 0.51590803)
(0 0.0041770116 0.51528047)
(0 0.0029352074 0.51484529)
(0 0.0017052772 0.51459025)
(0 0.00048185363 0.51450839)
(0 -0.00074046157 0.51459771)
(0 -0.0019670723 0.51486108)
(0 -0.0032032537 0.51530637)
(0 -0.0044541236 0.51594689)
(0 -0.0057245158 0.51680212)
(0 -0.0070188897 0.51789896)
(0 -0.0083411772 0.51927341)
(0 -0.009694718 0.52097333)
(0 -0.011082041 0.52306236)
(0 -0.012504663 0.52562532)
(0 -0.013963507 0.52877264)
(0 -0.015454317 0.53266215)
(0 -0.016996408 0.53772799)
(0 -0.018705271 0.54544804)
(0 -0.020742585 0.55757374)
(0 -0.022258661 0.56510714)
(0 -0.019333038 0.52738398)
(0 -0.0090404908 0.3839907)
(0 0.00077357492 0.13356912)
(0 -0.00060940998 0.1207218)
(0 0.0071083624 0.35829768)
(0 0.019053043 0.51857646)
(0 0.024070384 0.57327452)
(0 0.023331198 0.56975791)
(0 0.021131404 0.55501216)
(0 0.019267725 0.54476829)
(0 0.017701449 0.53836166)
(0 0.016217307 0.53365235)
(0 0.014761085 0.52987082)
(0 0.013336362 0.52678599)
(0 0.011943329 0.52426201)
(0 0.010581257 0.52219392)
(0 0.0092487814 0.5205027)
(0 0.0079437915 0.51912929)
(0 0.0066636627 0.51802923)
(0 0.0054052216 0.51716901)
(0 0.0041648616 0.51652369)
(0 0.002938646 0.51607532)
(0 0.0017224035 0.5158118)
(0 0.00051181164 0.51572632)
(0 -0.00069748896 0.51581686)
(0 -0.0019098568 0.51608623)
(0 -0.0031295107 0.51654216)
(0 -0.004360488 0.5171977)
(0 -0.0056065121 0.51807198)
(0 -0.0068709074 0.51919142)
(0 -0.0081564563 0.52059146)
(0 -0.0094653502 0.5223192)
(0 -0.010799051 0.52443751)
(0 -0.012158037 0.52702998)
(0 -0.013542345 0.53020557)
(0 -0.014948362 0.53413158)
(0 -0.01640089 0.53930542)
(0 -0.018024417 0.54726659)
(0 -0.01990596 0.55917861)
(0 -0.021006599 0.56410425)
(0 -0.017665859 0.52079052)
(0 -0.0077154161 0.374255)
(0 0.00069217886 0.12993388)
(0 -0.00045815979 0.11798092)
(0 0.006235488 0.34918096)
(0 0.017481467 0.51083947)
(0 0.02278953 0.57112812)
(0 0.022527361 0.57108096)
(0 0.020514868 0.55694872)
(0 0.018714635 0.54643105)
(0 0.01721605 0.53984732)
(0 0.015806106 0.53508439)
(0 0.01442018 0.53127591)
(0 0.013058036 0.52816433)
(0 0.011719838 0.52561329)
(0 0.010405341 0.52351893)
(0 0.0091136752 0.52180279)
(0 0.007843434 0.52040634)
(0 0.0065928011 0.51928565)
(0 0.0053594692 0.51840769)
(0 0.0041407309 0.5177479)
(0 0.0029335587 0.5172886)
(0 0.0017346947 0.51701793)
(0 0.00054072711 0.51692913)
(0 -0.00065179265 0.51702023)
(0 -0.0018463065 0.51729396)
(0 -0.0030461161 0.51775787)
(0 -0.0042543339 0.51842477)
(0 -0.005473756 0.51931342)
(0 -0.0067067878 0.52044976)
(0 -0.0079553207 0.52186866)
(0 -0.0092207038 0.5236166)
(0 -0.010503684 0.52575571)
(0 -0.01180411 0.52836855)
(0 -0.01312162 0.53156342)
(0 -0.014454146 0.53552094)
(0 -0.015832316 0.54080285)
(0 -0.017384016 0.54896844)
(0 -0.019118377 0.56051321)
(0 -0.019843671 0.56272475)
(0 -0.016192503 0.51424178)
(0 -0.0066621326 0.36533767)
(0 0.00059147522 0.1268257)
(0 -0.00032951296 0.11551719)
(0 0.0055530692 0.34086351)
(0 0.016094355 0.50330226)
(0 0.021603743 0.56866525)
(0 0.02176514 0.57210954)
(0 0.019937871 0.55876442)
(0 0.018195359 0.54803262)
(0 0.016750707 0.54126843)
(0 0.015403363 0.53644923)
(0 0.014079277 0.53261839)
(0 0.012773543 0.52948652)
(0 0.011485959 0.52691491)
(0 0.010216477 0.52480048)
(0 0.0089644605 0.52306515)
(0 0.0077289599 0.52165078)
(0 0.0065087364 0.52051386)
(0 0.0053021456 0.51962178)
(0 0.0041071985 0.51895032)
(0 0.0029216178 0.51848208)
(0 0.0017429142 0.51820537)
(0 0.00056845352 0.51811354)
(0 -0.00060443098 0.51820463)
(0 -0.001778395 0.51848129)
(0 -0.0029559608 0.51895092)
(0 -0.0041394671 0.51962605)
(0 -0.0053309532 0.52052512)
(0 -0.0065320995 0.52167363)
(0 -0.0077441301 0.52310593)
(0 -0.0089678059 0.52486796)
(0 -0.010203438 0.52702127)
(0 -0.011450557 0.52964759)
(0 -0.012708775 0.5328556)
(0 -0.013978248 0.53684286)
(0 -0.015295263 0.54223352)
(0 -0.016785419 0.55056345)
(0 -0.018379833 0.56160143)
(0 -0.018769077 0.56103947)
(0 -0.014892077 0.50779967)
(0 -0.0058260384 0.35716247)
(0 0.00048721501 0.12411804)
(0 -0.00022480227 0.11326626)
(0 0.0050106207 0.33325064)
(0 0.014865572 0.49599606)
(0 0.020504711 0.56594865)
(0 0.021040302 0.57286766)
(0 0.01939658 0.56046371)
(0 0.017709116 0.54958171)
(0 0.01630766 0.54263628)
(0 0.015013018 0.5377563)
(0 0.01374322 0.53390531)
(0 0.012488188 0.53075769)
(0 0.011247087 0.52817037)
(0 0.010019863 0.52604066)
(0 0.0088059373 0.52429068)
(0 0.0076046277 0.52286251)
(0 0.0064150903 0.52171299)
(0 0.0052361739 0.52080979)
(0 0.0040664516 0.52012902)
(0 0.0029042518 0.5196535)
(0 0.0017477203 0.51937171)
(0 0.00059487346 0.5192771)
(0 -0.00055629791 0.5193677)
(0 -0.001707789 0.5196461)
(0 -0.002861473 0.52011954)
(0 -0.0040190552 0.52080033)
(0 -0.0051819718 0.52170657)
(0 -0.0063513477 0.52286339)
(0 -0.0075279258 0.52430473)
(0 -0.0087120828 0.52607609)
(0 -0.009903906 0.5282386)
(0 -0.011102837 0.53087342)
(0 -0.01230874 0.53409078)
(0 -0.013524454 0.53810834)
(0 -0.014791366 0.54360805)
(0 -0.016227406 0.55205948)
(0 -0.01768788 0.56246545)
(0 -0.01777821 0.55910779)
(0 -0.013743021 0.50150618)
(0 -0.0051604632 0.3496547)
(0 0.00038861067 0.12171625)
(0 -0.00014249865 0.11118483)
(0 0.0045704817 0.32625803)
(0 0.013772398 0.48893854)
(0 0.019483694 0.56303018)
(0 0.020348625 0.5733773)
(0 0.018886666 0.56204945)
(0 0.017253803 0.55108419)
(0 0.015887505 0.54395992)
(0 0.014637306 0.5390137)
(0 0.01341519 0.53514294)
(0 0.012205726 0.53198262)
(0 0.011007228 0.52938313)
(0 0.009819491 0.52724174)
(0 0.008641883 0.52548062)
(0 0.007473854 0.52404195)
(0 0.0063148131 0.52288272)
(0 0.0051639647 0.52197087)
(0 0.0040203114 0.52128273)
(0 0.0028826607 0.52080132)
(0 0.0017496729 0.52051526)
(0 0.00061989893 0.52041808)
(0 -0.00050812911 0.5205078)
(0 -0.0016358622 0.52078697)
(0 -0.0027646439 0.52126267)
(0 -0.0038956726 0.52194699)
(0 -0.0050299155 0.5228578)
(0 -0.0061680848 0.52401989)
(0 -0.007310594 0.52546687)
(0 -0.0084575928 0.52724397)
(0 -0.0096090973 0.52941201)
(0 -0.010764626 0.53205189)
(0 -0.011924493 0.53527668)
(0 -0.013094486 0.53932666)
(0 -0.014320238 0.54493461)
(0 -0.0157072 0.55346258)
(0 -0.017038723 0.56312544)
(0 -0.016864394 0.55697903)
(0 -0.012724834 0.49538853)
(0 -0.0046268585 0.34274413)
(0 0.00030049664 0.1195507)
(0 -7.9691133e-05 0.10924397)
(0 0.0042052303 0.3198119)
(0 0.012795512 0.48213801)
(0 0.0185324 0.55995288)
(0 0.019686302 0.57365856)
(0 0.018403842 0.56352349)
(0 0.016826648 0.55254364)
(0 0.015489786 0.54524643)
(0 0.014277251 0.54022824)
(0 0.013097132 0.53633678)
(0 0.011928711 0.53316559)
(0 0.010769269 0.53055644)
(0 0.0096183514 0.52840603)
(0 0.0084752075 0.52663645)
(0 0.0073393265 0.52518981)
(0 0.0062102639 0.52402317)
(0 0.0050874703 0.52310464)
(0 0.0039702681 0.52241071)
(0 0.0028578365 0.52192456)
(0 0.0017492436 0.5216349)
(0 0.00064347066 0.52153533)
(0 -0.00046051251 0.52162388)
(0 -0.0015637179 0.52190302)
(0 -0.0026670665 0.52237973)
(0 -0.0037713596 0.52306593)
(0 -0.00487721 0.52397926)
(0 -0.0059850347 0.52514426)
(0 -0.0070950371 0.52659434)
(0 -0.0082072571 0.52837452)
(0 -0.0093217442 0.53054552)
(0 -0.010438207 0.53318829)
(0 -0.011557555 0.53642001)
(0 -0.012688607 0.54050544)
(0 -0.013880193 0.5462192)
(0 -0.015221195 0.55477731)
(0 -0.016427993 0.56359952)
(0 -0.016020099 0.55469392)
(0 -0.011818965 0.48946317)
(0 -0.0041942836 0.33636656)
(0 0.00022485907 0.11757093)
(0 -3.3010715e-05 0.10742415)
(0 0.0038952909 0.31384845)
(0 0.011918681 0.47559638)
(0 0.017643409 0.55675274)
(0 0.019050103 0.57372998)
(0 0.017944154 0.56488714)
(0 0.016424647 0.55396196)
(0 0.015113409 0.54650118)
(0 0.013933062 0.54140558)
(0 0.012790096 0.53749153)
(0 0.011658786 0.53431041)
(0 0.010535219 0.53169329)
(0 0.0094186245 0.52953578)
(0 0.0083081015 0.52775972)
(0 0.007203116 0.52630704)
(0 0.0061032923 0.52513479)
(0 0.0050082429 0.52421113)
(0 0.0039175211 0.52351267)
(0 0.0028305868 0.52302268)
(0 0.0017468253 0.52272997)
(0 0.00066555677 0.52262818)
(0 -0.00041390243 0.52271533)
(0 -0.0014922175 0.52299384)
(0 -0.0025699802 0.5234706)
(0 -0.0036476883 0.52415738)
(0 -0.0047256956 0.52507166)
(0 -0.0058042178 0.52623783)
(0 -0.0068833396 0.52768912)
(0 -0.0079630754 0.52947054)
(0 -0.0090435743 0.53164279)
(0 -0.010124809 0.53428724)
(0 -0.011208388 0.53752644)
(0 -0.0123061 0.54165075)
(0 -0.013468789 0.54746599)
(0 -0.014765469 0.55600707)
(0 -0.015851252 0.56390393)
(0 -0.015237744 0.55228614)
(0 -0.011009166 0.48373888)
(0 -0.0038384947 0.33046443)
(0 0.00016190395 0.11574079)
(0 8.2790646e-07 0.10571187)
(0 0.0036268946 0.30831288)
(0 0.011128345 0.46931136)
(0 0.0168103 0.55346007)
(0 0.018437397 0.57360881)
(0 0.017504118 0.56614151)
(0 0.016044824 0.55533976)
(0 0.01475693 0.54772811)
(0 0.013604405 0.54255037)
(0 0.012494497 0.53861123)
(0 0.011396912 0.53542041)
(0 0.010306408 0.53279641)
(0 0.0092218459 0.5306331)
(0 0.0081421693 0.52885198)
(0 0.0070667808 0.52739471)
(0 0.0059953187 0.5262182)
(0 0.0049274935 0.52529061)
(0 0.0038630186 0.5245886)
(0 0.0028015601 0.52409551)
(0 0.0017427435 0.5238002)
(0 0.00068615013 0.52369632)
(0 -0.00036863556 0.52378191)
(0 -0.0014220114 0.52405934)
(0 -0.0024743187 0.52453542)
(0 -0.0035258307 0.52522183)
(0 -0.004576719 0.52613591)
(0 -0.0056270719 0.52730196)
(0 -0.0066769229 0.52875317)
(0 -0.0077263188 0.53053459)
(0 -0.0087755459 0.53270706)
(0 -0.0098248866 0.53535272)
(0 -0.010876723 0.53860071)
(0 -0.011945629 0.54276731)
(0 -0.013083212 0.54867771)
(0 -0.014336119 0.5571544)
(0 -0.015304316 0.56405324)
(0 -0.014510183 0.54978359)
(0 -0.010281505 0.47821905)
(0 -0.0035408756 0.32498686)
(0 0.00011080073 0.11403456)
(0 2.4748108e-05 0.1040973)
(0 0.0033904394 0.30315828)
(0 0.010413176 0.4632779)
(0 0.016027619 0.55010055)
(0 0.017846089 0.57331118)
(0 0.017080766 0.56728777)
(0 0.015684384 0.55667683)
(0 0.014418741 0.54893005)
(0 0.013290609 0.5436664)
(0 0.012210316 0.53969928)
(0 0.011143556 0.53649847)
(0 0.010083647 0.53386819)
(0 0.0090290466 0.53169996)
(0 0.0079785458 0.52991477)
(0 0.0069314608 0.52845394)
(0 0.0058874076 0.52727418)
(0 0.004846147 0.52634358)
(0 0.0038074967 0.52563878)
(0 0.002771269 0.52514315)
(0 0.001737266 0.52484559)
(0 0.00070526497 0.52473976)
(0 -0.00032494792 0.52482369)
(0 -0.0013535699 0.52509971)
(0 -0.0023807575 0.52557458)
(0 -0.0034066238 0.5262599)
(0 -0.0044312197 0.52717297)
(0 -0.0054545621 0.52833804)
(0 -0.0064766818 0.52978832)
(0 -0.0074976951 0.53156899)
(0 -0.0085180432 0.53374115)
(0 -0.0095383433 0.53638812)
(0 -0.010561799 0.53964669)
(0 -0.011605501 0.54385865)
(0 -0.012720545 0.54985592)
(0 -0.01392947 0.5582213)
(0 -0.014783416 0.56406063)
(0 -0.013830964 0.54720952)
(0 -0.0096241983 0.4729034)
(0 -0.00328737 0.31988932)
(0 7.0188954e-05 0.11243395)
(0 4.1203154e-05 0.10257282)
(0 0.0031792365 0.29834455)
(0 0.0097636774 0.45748922)
(0 0.015290757 0.54669606)
(0 0.017274525 0.57285226)
(0 0.016671617 0.56832731)
(0 0.015340784 0.55797238)
(0 0.014097198 0.55010891)
(0 0.012990805 0.54475671)
(0 0.01193724 0.54075856)
(0 0.010898826 0.53754709)