/*--------------------------------*- C++ -*----------------------------------*\
  =========                 |
  \\      /  F ield         | OpenFOAM: The Open Source CFD Toolbox
   \\    /   O peration     | Website:  https://openfoam.org
    \\  /    A nd           | Version:  10
     \\/     M anipulation  |
\*---------------------------------------------------------------------------*/
FoamFile
{
    format      ascii;
    class       surfaceScalarField;
    location    "0.26";
    object      phi;
}
// * * * * * * * * * * * * * * * * * * * * * * * * * * * * * * * * * * * * * //

dimensions      [1 0 -1 0 0 0 0];

internalField   nonuniform List<scalar> 
7860
(
3.9895995e-08
5.2881204e-07
1.2192742e-08
5.9641106e-07
7.4279231e-09
5.7347257e-07
5.4994448e-09
5.7063619e-07
4.1150211e-09
5.700921e-07
3.2011644e-09
5.6962151e-07
2.5591653e-09
5.6934964e-07
2.0793304e-09
5.6918746e-07
1.7093315e-09
5.6907761e-07
1.4166452e-09
5.6900029e-07
1.1794762e-09
5.6894476e-07
9.8306165e-10
5.68904e-07
8.1705805e-10
5.6887359e-07
6.7397539e-10
5.6885066e-07
5.4824064e-10
5.6883331e-07
4.3559333e-10
5.6882022e-07
3.3267993e-10
5.6881048e-07
2.3677339e-10
5.6880347e-07
1.4557094e-10
5.6879877e-07
5.7041792e-11
5.6879609e-07
-3.0696663e-11
5.687953e-07
-1.1948641e-10
5.6879635e-07
-2.1123363e-10
5.6879931e-07
-3.0801546e-10
5.6880435e-07
-4.1221239e-10
5.6881177e-07
-5.2667113e-10
5.6882203e-07
-6.5492535e-10
5.6883583e-07
-8.0150863e-10
5.6885416e-07
-9.7241489e-10
5.6887849e-07
-1.1758052e-09
5.6891098e-07
-1.4231807e-09
5.6895497e-07
-1.7313528e-09
5.6901577e-07
-2.1252992e-09
5.6910156e-07
-2.6449011e-09
5.6922723e-07
-3.3725721e-09
5.6943531e-07
-4.4638619e-09
5.6979895e-07
-6.0091713e-09
5.7025299e-07
-9.5081559e-09
5.722067e-07
-2.9576002e-08
5.887756e-07
5.3913193e-07
5.9672539e-08
4.691395e-07
3.6666017e-08
6.1941758e-07
2.26282e-08
5.8751039e-07
1.6253613e-08
5.7701078e-07
1.2290549e-08
5.7405517e-07
9.6062933e-09
5.7230577e-07
7.6775033e-09
5.7127843e-07
6.2361439e-09
5.7062882e-07
5.1266189e-09
5.7018714e-07
4.2488562e-09
5.6987805e-07
3.537521e-09
5.696561e-07
2.948445e-09
5.6949308e-07
2.450583e-09
5.6937145e-07
2.0214599e-09
5.6927978e-07
1.6443615e-09
5.6921041e-07
1.3065107e-09
5.6915807e-07
9.9785037e-10
5.6911914e-07
7.1020257e-10
5.6909112e-07
4.3666186e-10
5.6907231e-07
1.7113694e-10
5.6906162e-07
-9.2018181e-11
5.6905846e-07
-3.5832636e-10
5.6906266e-07
-6.3349937e-10
5.6907449e-07
-9.2376918e-10
5.6909462e-07
-1.2362745e-09
5.6912427e-07
-1.579552e-09
5.6916531e-07
-1.9641985e-09
5.6922047e-07
-2.4038096e-09
5.6929377e-07
-2.9163681e-09
5.6939105e-07
-3.5263657e-09
5.6952098e-07
-4.268221e-09
5.6969682e-07
-5.1922986e-09
5.6993985e-07
-6.3752223e-09
5.7028448e-07
-7.9357084e-09
5.7078771e-07
-1.0076978e-08
5.7157658e-07
-1.3205154e-08
5.7292712e-07
-1.8135e-08
5.7518284e-07
-2.817722e-08
5.8224892e-07
-4.5803106e-08
6.0640149e-07
4.9332882e-07
6.0008869e-08
4.0913063e-07
5.0487329e-08
6.2893912e-07
3.3370733e-08
6.0462698e-07
2.4817746e-08
5.8556376e-07
1.9323326e-08
5.7954959e-07
1.5331584e-08
5.7629751e-07
1.2360806e-08
5.7424921e-07
1.0101639e-08
5.7288799e-07
8.3407064e-09
5.7194807e-07
6.9348883e-09
5.7128387e-07
5.788106e-09
5.7080288e-07
4.8335947e-09
5.7044759e-07
4.0235903e-09
5.7018145e-07
3.3231076e-09
5.6998027e-07
2.7058834e-09
5.6982763e-07
2.1516858e-09
5.6971227e-07
1.6444897e-09
5.6962634e-07
1.1711964e-09
5.6956441e-07
7.2069901e-10
5.6952281e-07
2.8316988e-10
5.6949915e-07
-1.5051702e-10
5.6949214e-07
-5.8929205e-10
5.6950144e-07
-1.0423832e-09
5.6952758e-07
-1.5198364e-09
5.6957207e-07
-2.0331178e-09
5.6963755e-07
-2.5958738e-09
5.6972806e-07
-3.2249424e-09
5.6984954e-07
-3.9417643e-09
5.7001059e-07
-4.774433e-09
5.7022371e-07
-5.7607581e-09
5.705073e-07
-6.9529238e-09
5.7088899e-07
-8.4251276e-09
5.7141205e-07
-1.0286767e-08
5.7214612e-07
-1.2699711e-08
5.7320066e-07
-1.5897116e-08
5.7477398e-07
-2.0240867e-08
5.7727087e-07
-2.6709109e-08
5.8165108e-07
-3.894858e-08
5.9448839e-07
-4.8167637e-08
6.1562055e-07
4.4516119e-07
5.4879106e-08
3.5425153e-07
5.7452267e-08
6.2636596e-07
4.0467637e-08
6.2161161e-07
3.077885e-08
5.9525255e-07
2.4643146e-08
5.8568529e-07
1.9952392e-08
5.8098827e-07
1.6313033e-08
5.7788856e-07
1.3466616e-08
5.757344e-07
1.1201025e-08
5.7421366e-07
9.3645567e-09
5.7312034e-07
7.8493262e-09
5.7231811e-07
6.5768462e-09
5.7172007e-07
5.4892713e-09
5.7126903e-07
4.5432895e-09
5.7092625e-07
3.7058071e-09
5.7066511e-07
2.9509678e-09
5.7046711e-07
2.2580548e-09
5.7031925e-07
1.6099738e-09
5.702125e-07
9.9212041e-10
5.7014066e-07
3.9150114e-10
5.7009977e-07
-2.0399051e-10
5.7008764e-07
-8.0621378e-10
5.7010366e-07
-1.4274021e-09
5.7014876e-07
-2.0808169e-09
5.7022549e-07
-2.7814991e-09
5.7033823e-07
-3.5471962e-09
5.7049376e-07
-4.39957e-09
5.7070192e-07
-5.3658292e-09
5.7097685e-07
-6.4810101e-09
5.713389e-07
-7.7912371e-09
5.7181753e-07
-9.3582891e-09
5.7245604e-07
-1.1265986e-08
5.7331975e-07
-1.363059e-08
5.7451072e-07
-1.6613444e-08
5.7618351e-07
-2.0412317e-08
5.7857286e-07
-2.5293884e-08
5.8215244e-07
-3.2518103e-08
5.888753e-07
-4.5101688e-08
6.0707198e-07
-4.6549853e-08
6.1706871e-07
3.9861133e-07
4.7965829e-08
3.062857e-07
6.0076651e-08
6.1425514e-07
4.5400277e-08
6.3628799e-07
3.4875477e-08
6.0577735e-07
2.8399973e-08
5.9216079e-07
2.3419724e-08
5.8596851e-07
1.9434388e-08
5.818739e-07
1.6229227e-08
5.7893956e-07
1.3619728e-08
5.7682316e-07
1.1466483e-08
5.7527358e-07
9.6643683e-09
5.7412023e-07
8.133344e-09
5.7325109e-07
6.8123878e-09
5.7258998e-07
5.6544887e-09
5.7208415e-07
4.6228725e-09
5.7169673e-07
3.6882537e-09
5.7140172e-07
2.8267948e-09
5.7118071e-07
2.0185674e-09
5.7102072e-07
1.2463679e-09
5.7091286e-07
4.947721e-10
5.7085136e-07
-2.5065768e-10
5.7083307e-07
-1.0040826e-09
5.7085709e-07
-1.7800777e-09
5.7092476e-07
-2.5943543e-09
5.7103976e-07
-3.4645761e-09
5.7120846e-07
-4.4113431e-09
5.7144053e-07
-5.4594315e-09
5.7175e-07
-6.6394029e-09
5.7215682e-07
-7.9897318e-09
5.7268922e-07
-9.5596784e-09
5.7338747e-07
-1.1413065e-08
5.7430943e-07
-1.3632701e-08
5.7553939e-07
-1.6326887e-08
5.7720491e-07
-1.9639224e-08
5.7949585e-07
-2.3739969e-08
5.826736e-07
-2.8932045e-08
5.8734452e-07
-3.6792288e-08
5.9673554e-07
-4.8464842e-08
6.1874453e-07
-4.3194834e-08
6.117987e-07
3.554165e-07
4.0336132e-08
2.6594957e-07
5.8994274e-08
5.95597e-07
4.8330297e-08
6.4695196e-07
3.7588277e-08
6.1651937e-07
3.0929081e-08
5.9881999e-07
2.5894182e-08
5.9100341e-07
2.1780172e-08
5.8598791e-07
1.8392201e-08
5.8232753e-07
1.5577612e-08
5.7963775e-07
1.3214357e-08
5.7763684e-07
1.1206498e-08
5.7612808e-07
9.4787441e-09
5.7497885e-07
7.9719544e-09
5.7409677e-07
6.6392261e-09
5.7341687e-07
5.4429334e-09
5.7289302e-07
4.3524601e-09
5.724922e-07
3.3424196e-09
5.7219075e-07
2.3912554e-09
5.7197189e-07
1.4801232e-09
5.7182399e-07
5.919705e-10
5.7173951e-07
-2.8925397e-10
5.7171429e-07
-1.1793177e-09
5.7174715e-07
-2.0944068e-09
5.7183985e-07
-3.0518546e-09
5.7199721e-07
-4.0709471e-09
5.7222755e-07
-5.1738699e-09
5.7254345e-07
-6.3868591e-09
5.7296299e-07
-7.7416361e-09
5.735116e-07
-9.2772059e-09
5.7422479e-07
-1.1042164e-08
5.7515243e-07
-1.3097729e-08
5.7636499e-07
-1.5521165e-08
5.7796282e-07
-1.840987e-08
5.8009362e-07
-2.1888018e-08
5.8297399e-07
-2.6111388e-08
5.8689697e-07
-3.1489515e-08
5.9272264e-07
-3.9655835e-08
6.0490186e-07
-4.9173545e-08
6.2826224e-07
-3.8579098e-08
6.0120426e-07
3.168374e-07
3.2862798e-08
2.3308677e-07
5.5250242e-08
5.7320956e-07
4.9232517e-08
6.5296969e-07
3.9061765e-08
6.2669012e-07
3.2430902e-08
6.0545085e-07
2.7519e-08
5.9591532e-07
2.3438928e-08
5.9006798e-07
2.0003114e-08
5.8576335e-07
1.7095006e-08
5.8254585e-07
1.4612383e-08
5.8011946e-07
1.2471457e-08
5.7826901e-07
1.060498e-08
5.7684532e-07
8.9587122e-09
5.7574304e-07
7.4884623e-09
5.7488712e-07
6.1579023e-09
5.7422358e-07
4.9368079e-09
5.7371329e-07
3.7996158e-09
5.7332794e-07
2.7242476e-09
5.7304725e-07
1.6911327e-09
5.728571e-07
6.8237787e-10
5.7274827e-07
-3.1896495e-10
5.7271563e-07
-1.3295731e-09
5.7275776e-07
-2.3665188e-09
5.7287679e-07
-3.4479529e-09
5.7307864e-07
-4.5938458e-09
5.7337344e-07
-5.8268354e-09
5.7377644e-07
-7.1732234e-09
5.7430938e-07
-8.6641768e-09
5.7500255e-07
-1.0337178e-08
5.7589779e-07
-1.2237799e-08
5.7705305e-07
-1.4422095e-08
5.7854929e-07
-1.6959489e-08
5.8050022e-07
-1.9934824e-08
5.8306895e-07
-2.3448873e-08
5.8648804e-07
-2.7643058e-08
5.9109116e-07
-3.303583e-08
5.9811541e-07
-4.101214e-08
6.1287817e-07
-4.7689035e-08
6.3493913e-07
-3.3376752e-08
5.8689197e-07
2.8346065e-07
2.6189105e-08
2.0689767e-07
5.0132972e-08
5.4926569e-07
4.8493898e-08
6.5460876e-07
3.949136e-08
6.3569266e-07
3.3077749e-08
6.1186446e-07
2.8412327e-08
6.0058074e-07
2.4493202e-08
5.939871e-07
2.1118515e-08
5.8913803e-07
1.8207385e-08
5.8545698e-07
1.5680587e-08
5.8264626e-07
1.3468983e-08
5.8048061e-07
1.1515398e-08
5.7879891e-07
9.7723166e-09
5.7748612e-07
8.1999508e-09
5.7645949e-07
6.7647707e-09
5.7565876e-07
5.4382334e-09
5.7503983e-07
4.1956936e-09
5.7457048e-07
3.0154816e-09
5.7422747e-07
1.8781044e-09
5.7399448e-07
7.6554334e-10
5.7386083e-07
-3.3938238e-10
5.7382056e-07
-1.4536118e-09
5.7387199e-07
-2.594435e-09
5.7401762e-07
-3.7800958e-09
5.742643e-07
-5.0304346e-09
5.7462378e-07
-6.367603e-09
5.7511361e-07
-7.8168762e-09
5.7575865e-07
-9.4076005e-09
5.7659328e-07
-1.1174301e-08
5.7766449e-07
-1.315795e-08
5.790367e-07
-1.5407616e-08
5.8079895e-07
-1.7982582e-08
5.8307518e-07
-2.0952303e-08
5.8603867e-07
-2.4391964e-08
5.899277e-07
-2.8437103e-08
5.951363e-07
-3.3693014e-08
6.0337132e-07
-4.1064295e-08
6.2024945e-07
-4.4798641e-08
6.3867348e-07
-2.8205096e-08
5.7029843e-07
2.5525555e-07
2.0571019e-08
1.8632666e-07
4.45835e-08
5.2525322e-07
4.6643317e-08
6.5254894e-07
3.9153563e-08
6.4318241e-07
3.3084183e-08
6.1793384e-07
2.8717986e-08
6.0494693e-07
2.5038515e-08
5.9766658e-07
2.1804153e-08
5.923724e-07
1.8959582e-08
5.8830155e-07
1.6448752e-08
5.8515709e-07
1.4218166e-08
5.827112e-07
1.2221642e-08
5.8079543e-07
1.0419402e-08
5.7928836e-07
8.7770897e-09
5.781018e-07
7.2649535e-09
5.771709e-07
5.8570281e-09
5.7644775e-07
4.5303979e-09
5.7589711e-07
3.2645303e-09
5.7549333e-07
2.0406689e-09
5.7521834e-07
8.4127652e-10
5.7506022e-07
-3.5048485e-10
5.7501232e-07
-1.5512503e-09
5.7507275e-07
-2.7779494e-09
5.7524432e-07
-4.0483072e-09
5.7553466e-07
-5.3813689e-09
5.7595684e-07
-6.7980659e-09
5.765303e-07
-8.3218329e-09
5.7728242e-07
-9.979293e-09
5.7825074e-07
-1.1801024e-08
5.7948623e-07
-1.3822354e-08
5.8105803e-07
-1.608427e-08
5.8306087e-07
-1.8634622e-08
5.8562553e-07
-2.1526513e-08
5.8893056e-07
-2.481396e-08
5.9321515e-07
-2.8643193e-08
5.9896553e-07
-3.3661605e-08
6.0838974e-07
-4.0145616e-08
6.2673346e-07
-4.1160425e-08
6.3968829e-07
-2.341751e-08
5.5255551e-07
2.3183804e-07
1.6015601e-08
1.7031106e-07
3.9144255e-08
5.0212457e-07
4.4119016e-08
6.4757418e-07
3.8290097e-08
6.4901133e-07
3.2654339e-08
6.235696e-07
2.8592035e-08
6.0900924e-07
2.5184042e-08
6.0107457e-07
2.2136401e-08
5.9542004e-07
1.9405221e-08
5.9103273e-07
1.6954446e-08
5.8760786e-07
1.4745099e-08
5.8492055e-07
1.2741584e-08
5.8279895e-07
1.0911989e-08
5.8111796e-07
9.2277957e-09
5.7978599e-07
7.6635302e-09
5.7873516e-07
6.1963471e-09
5.7791494e-07
4.8056013e-09
5.7728786e-07
3.4724211e-09
5.7682651e-07
2.179287e-09
5.7651148e-07
9.0962305e-10
5.7632989e-07
-3.5259951e-10
5.7627454e-07
-1.6232495e-09
5.763434e-07
-2.9184274e-09
5.7653949e-07
-4.2548561e-09
5.7687109e-07
-5.6502801e-09
5.7735226e-07
-7.1238802e-09
5.780039e-07
-8.6967009e-09
5.7885524e-07
-1.0392089e-08
5.7994612e-07
-1.2236148e-08
5.8133028e-07
-1.4258161e-08
5.8308004e-07
-1.6490951e-08
5.8529366e-07
-1.8971269e-08
5.8810585e-07
-2.1737252e-08
5.9169654e-07
-2.4829376e-08
5.9630727e-07
-2.8416542e-08
6.025527e-07
-3.3125972e-08
6.1309917e-07
-3.8551031e-08
6.3215852e-07
-3.7216881e-08
6.3835414e-07
-1.9183396e-08
5.3452203e-07
2.1265464e-07
1.242389e-08
1.5788718e-07
3.4114337e-08
4.8043413e-07
4.1250205e-08
6.4043832e-07
3.707912e-08
6.5318241e-07
3.1942351e-08
6.2870637e-07
2.8169201e-08
6.1278239e-07
2.5033418e-08
6.0421035e-07
2.2192508e-08
5.9826095e-07
1.9601403e-08
5.9362384e-07
1.7239518e-08
5.8996975e-07
1.5080222e-08
5.8707984e-07
1.3097202e-08
5.8478197e-07
1.1265822e-08
5.8294934e-07
9.5632278e-09
5.8148859e-07
7.9683025e-09
5.8033009e-07
6.4615354e-09
5.794217e-07
5.0248427e-09
5.7872455e-07
3.6413403e-09
5.7821002e-07
2.2950879e-09
5.7785773e-07
9.7081883e-10
5.7765415e-07
-3.4633736e-10
5.775917e-07
-1.6711333e-09
5.776682e-07
-3.0184902e-09
5.7788685e-07
-4.4037783e-09
5.7825638e-07
-5.8430957e-09
5.7879158e-07
-7.3535415e-09
5.7951435e-07
-8.9534755e-09
5.8045517e-07
-1.0662751e-08
5.816554e-07
-1.2502921e-08
5.8317045e-07
-1.4497405e-08
5.8507453e-07
-1.6671516e-08
5.8746777e-07
-1.9052141e-08
5.9048648e-07
-2.1664774e-08
5.9430918e-07
-2.4543609e-08
5.9918611e-07
-2.7883215e-08
6.058923e-07
-3.2228807e-08
6.1744476e-07
-3.6522677e-08
6.3645239e-07
-3.3269286e-08
6.3510075e-07
-1.5564435e-08
5.1681718e-07
1.9709021e-07
9.6572687e-09
1.4822992e-07
2.9646059e-08
4.6044536e-07
3.8283538e-08
6.3180085e-07
3.5658801e-08
6.5580715e-07
3.1059401e-08
6.3330577e-07
2.7553853e-08
6.1628793e-07
2.4673212e-08
6.0709099e-07
2.204125e-08
6.0089291e-07
1.9601997e-08
5.9606309e-07
1.7345485e-08
5.9222626e-07
1.5255099e-08
5.8917023e-07
1.3312259e-08
5.8672481e-07
1.149863e-08
5.8476296e-07
9.7964851e-09
5.8319073e-07
8.1888213e-09
5.8193775e-07
6.6594167e-09
5.8095111e-07
5.1928258e-09
5.8019114e-07
3.7743041e-09
5.7962854e-07
2.3896867e-09
5.7924235e-07
1.0252379e-09
5.790186e-07
-3.3251995e-10
5.7894946e-07
-1.6969852e-09
5.7903266e-07
-3.081665e-09
5.7927153e-07
-4.5003551e-09
5.7967507e-07
-5.96731e-09
5.8025854e-07
-7.4973954e-09
5.8104443e-07
-9.106211e-09
5.8206399e-07
-1.0810167e-08
5.8335936e-07
-1.2626512e-08
5.849868e-07
-1.4573326e-08
5.8702134e-07
-1.666935e-08
5.8956379e-07
-1.8933059e-08
5.9275019e-07
-2.137996e-08
5.9675608e-07
-2.4044189e-08
6.0185034e-07
-2.7142081e-08
6.0899019e-07
-3.1088272e-08
6.2139095e-07
-3.4264689e-08
6.3962881e-07
-2.9522787e-08
6.3035885e-07
-1.255599e-08
4.9985038e-07
1.8453422e-07
7.5669135e-09
1.4066301e-07
2.5787084e-08
4.422252e-07
3.5389875e-08
6.2219807e-07
3.4138995e-08
6.5705803e-07
3.0088478e-08
6.3735628e-07
2.682598e-08
6.1955043e-07
2.4173108e-08
6.0974386e-07
2.1740403e-08
6.0332561e-07
1.9454284e-08
5.9834921e-07
1.73104e-08
5.9437014e-07
1.5299871e-08
5.9118076e-07
1.3410314e-08
5.8861436e-07
1.1628614e-08
5.8654467e-07
9.9414544e-09
5.8487789e-07
8.3355185e-09
5.8354369e-07
6.7976509e-09
5.8248898e-07
5.3149609e-09
5.8167383e-07
3.8748541e-09
5.8106864e-07
2.4650136e-09
5.8065219e-07
1.0733441e-09
5.8041027e-07
-3.1210948e-10
5.8033491e-07
-1.7032553e-09
5.8042381e-07
-3.112057e-09
5.8068033e-07
-4.5506274e-09
5.8111364e-07
-6.0313077e-09
5.8173922e-07
-7.566722e-09
5.8257985e-07
-9.1697967e-09
5.8366706e-07
-1.0853725e-08
5.8504328e-07
-1.2631878e-08
5.8676495e-07
-1.4517684e-08
5.8890715e-07
-1.6524328e-08
5.9157044e-07
-1.8663405e-08
5.9488926e-07
-2.0943421e-08
5.9903609e-07
-2.340356e-08
6.0431047e-07
-2.6273507e-08
6.1186014e-07
-2.9805434e-08
6.2492287e-07
-3.1938719e-08
6.4176209e-07
-2.6099735e-08
6.2451986e-07
-1.0111419e-08
4.8386206e-07
1.744228e-07
6.0122515e-09
1.3465078e-07
2.2515631e-08
4.2572185e-07
3.2671076e-08
6.1204264e-07
3.2600144e-08
6.5712896e-07
2.9089673e-08
6.4086675e-07
2.6045751e-08
6.2259435e-07
2.358844e-08
6.1220117e-07
2.1337546e-08
6.0557651e-07
1.9198456e-08
6.004883e-07
1.7167706e-08
5.9640089e-07
1.524192e-08
5.9310654e-07
1.3413467e-08
5.9044282e-07
1.1673358e-08
5.8828477e-07
1.001192e-08
5.8653933e-07
8.4190058e-09
5.851366e-07
6.8841996e-09
5.8402378e-07
5.3969749e-09
5.8316105e-07
3.9467953e-09
5.8251882e-07
2.5231659e-09
5.8207582e-07
1.1156495e-09
5.8181779e-07
-2.8614564e-10
5.817367e-07
-1.6925891e-09
5.8183025e-07
-3.1140615e-09
5.821018e-07
-4.5609779e-09
5.8256055e-07
-6.0437954e-09
5.8322203e-07
-7.5729946e-09
5.8410905e-07
-9.1590235e-09
5.8525309e-07
-1.0812193e-08
5.8669645e-07
-1.2542515e-08
5.8849527e-07
-1.4359531e-08
5.9072416e-07
-1.6271929e-08
5.9348284e-07
-1.8286007e-08
5.9690334e-07
-2.040635e-08
6.0115644e-07
-2.2680745e-08
6.0658487e-07
-2.534109e-08
6.1452048e-07
-2.8460893e-08
6.2804268e-07
-2.9658968e-08
6.4296016e-07
-2.30554e-08
6.1791629e-07
-8.1622747e-09
4.6896894e-07
1.6626052e-07
4.870579e-09
1.2978021e-07
1.9773153e-08
4.108193e-07
3.0175412e-08
6.016404e-07
3.1094596e-08
6.5620978e-07
2.8102485e-08
6.4385886e-07
2.5255458e-08
6.2544138e-07
2.2961336e-08
6.1449529e-07
2.0870731e-08
6.0766711e-07
1.8867789e-08
6.0249124e-07
1.6945961e-08
5.9832272e-07
1.510532e-08
5.9494718e-07
1.3341674e-08
5.9220646e-07
1.1649148e-08
5.899773e-07
1.0020948e-08
5.8816753e-07
8.449554e-09
5.8670799e-07
6.9269089e-09
5.8554643e-07
5.4445972e-09
5.8464337e-07
3.9939786e-09
5.8396944e-07
2.5662841e-09
5.8350351e-07
1.1526802e-09
5.8323139e-07
-2.5569068e-10
5.8314507e-07
-1.6676825e-09
5.8324224e-07
-3.0921243e-09
5.8352624e-07
-4.5377908e-09
5.8400622e-07
-6.0133578e-09
5.846976e-07
-7.5273318e-09
5.8562302e-07
-9.087947e-09
5.8681371e-07
-1.0703022e-08
5.8831153e-07
-1.2379778e-08
5.9017203e-07
-1.4124645e-08
5.9246903e-07
-1.5942847e-08
5.9530104e-07
-1.7836911e-08
5.9879741e-07
-1.981031e-08
6.0312984e-07
-2.1921172e-08
6.0869573e-07
-2.4391577e-08
6.1699089e-07
-2.7113408e-08
6.3076451e-07
-2.7497549e-08
6.4334431e-07
-2.0399157e-08
6.108179e-07
-6.6329094e-09
4.5520269e-07
1.5962762e-07
4.0395367e-09
1.257407e-07
1.7487172e-08
3.9737171e-07
2.7916849e-08
5.9121075e-07
2.9652982e-08
6.5447365e-07
2.7150118e-08
6.4636172e-07
2.4482296e-08
6.281092e-07
2.2321943e-08
6.1665565e-07
2.0369033e-08
6.0962002e-07
1.8488856e-08
6.0437142e-07
1.6668796e-08
6.0014278e-07
1.49106e-08
5.9670538e-07
1.3212413e-08
5.9390465e-07
1.1570581e-08
5.9161913e-07
9.9804962e-09
5.8975761e-07
8.4367339e-09
5.8825176e-07
6.9332055e-09
5.8704995e-07
5.4633212e-09
5.8611325e-07
4.0201335e-09
5.8541263e-07
2.5964548e-09
5.8492719e-07
1.1849509e-09
5.846429e-07
-2.2178427e-10
5.8455181e-07
-1.6311646e-09
5.8465162e-07
-3.0505525e-09
5.8494563e-07
-4.4871921e-09
5.8544286e-07
-5.9481299e-09
5.8615854e-07
-7.4401131e-09
5.87115e-07
-8.9694624e-09
5.8834306e-07
-1.0541918e-08
5.8988398e-07
-1.2162463e-08
5.9179258e-07
-1.3835155e-08
5.9414172e-07
-1.5562681e-08
5.9702856e-07
-1.7345165e-08
6.0057989e-07
-1.9187278e-08
6.0497195e-07
-2.1157575e-08
6.1066603e-07
-2.3456969e-08
6.1929028e-07
-2.5802744e-08
6.3311028e-07
-2.5494235e-08
6.430358e-07
-1.811248e-08
6.0343615e-07
-5.4489517e-09
4.4253916e-07
1.5417866e-07
3.4364485e-09
1.2230427e-07
1.5583877e-08
3.8522433e-07
2.5888774e-08
5.8090588e-07
2.8290726e-08
6.5207171e-07
2.6244447e-08
6.48408e-07
2.3742158e-08
6.3061149e-07
2.1690575e-08
6.1870723e-07
1.9853676e-08
6.1145692e-07
1.8082077e-08
6.0614302e-07
1.6355119e-08
6.0186974e-07
1.467474e-08
5.9838576e-07
1.3040537e-08
5.9553885e-07
1.145036e-08
5.9320931e-07
9.9011802e-09
5.9130679e-07
8.3891908e-09
5.8976375e-07
6.9098953e-09
5.8852925e-07
5.4582398e-09
5.875649e-07
4.0287477e-09
5.8684212e-07
2.6156409e-09
5.863403e-07
1.2129465e-09
5.8604559e-07
-1.8540822e-10
5.8595016e-07
-1.5855101e-09
5.8605172e-07
-2.9933759e-09
5.863535e-07
-4.4148633e-09
5.8686435e-07
-5.855571e-09
5.8759925e-07
-7.3207228e-09
5.8858016e-07
-8.8150343e-09
5.8983737e-07
-1.0342568e-08
5.9141152e-07
-1.1906585e-08
5.9335659e-07
-1.3509407e-08
5.9574454e-07
-1.5151983e-08
5.9867114e-07
-1.6833202e-08
6.0226111e-07
-1.8560678e-08
6.0669942e-07
-2.0412196e-08
6.1251755e-07
-2.2557773e-08
6.2143586e-07
-2.4553773e-08
6.3510628e-07
-2.366587e-08
6.4214789e-07
-1.6161397e-08
5.9593167e-07
-4.5419907e-09
4.3091976e-07
1.4963667e-07
2.9966837e-09
1.1930762e-07
1.3994803e-08
3.7422627e-07
2.4073334e-08
5.708274e-07
2.7012989e-08
6.4913207e-07
2.5389866e-08
6.5003112e-07
2.3043076e-08
6.3295827e-07
2.1080097e-08
6.2067021e-07
1.9339541e-08
6.1319748e-07
1.7662637e-08
6.0781992e-07
1.6019611e-08
6.0351276e-07
1.4411394e-08
5.9999397e-07
1.2838343e-08
5.971119e-07
1.129925e-08
5.947484e-07
9.7921804e-09
5.9281386e-07
8.314527e-09
5.912414e-07
6.8630457e-09
5.8998073e-07
5.4339436e-09
5.8899401e-07
4.0229913e-09
5.8825307e-07
2.6256364e-09
5.8773765e-07
1.2371122e-09
5.8743411e-07
-1.4746112e-10
5.8733474e-07
-1.5329784e-09
5.8743724e-07
-2.9242542e-09
5.8774477e-07
-4.3259217e-09
5.8826601e-07
-5.742326e-09
5.8901565e-07
-7.1774057e-09
5.9001523e-07
-8.6345678e-09
5.9129453e-07
-1.0116563e-08
5.9289351e-07
-1.1625381e-08
5.9486541e-07
-1.3162143e-08
5.9728131e-07
-1.4726712e-08
6.0023571e-07
-1.6317713e-08
6.0385211e-07
-1.7946893e-08
6.083286e-07
-1.9699147e-08
6.142698e-07
-2.1705867e-08
6.2344258e-07
-2.3379995e-08
6.3678041e-07
-2.2013639e-08
6.4078154e-07
-1.4504874e-08
5.8842291e-07
-3.8521283e-09
4.2026701e-07
1.4578454e-07
2.671404e-09
1.1663625e-07
1.2660207e-08
3.6423753e-07
2.2447784e-08
5.6103988e-07
2.5818417e-08
6.4576145e-07
2.4585989e-08
6.5126354e-07
2.238777e-08
6.3515649e-07
2.0497928e-08
6.2256005e-07
1.8836613e-08
6.1485879e-07
1.7241485e-08
6.0941505e-07
1.567338e-08
6.0508087e-07
1.4131277e-08
6.0153608e-07
1.2615766e-08
5.9862741e-07
1.1126168e-08
5.96238e-07
9.6612525e-09
5.9427878e-07
8.2192715e-09
5.9268338e-07
6.7979387e-09
5.9140206e-07
5.3944717e-09
5.9039747e-07
4.0056759e-09
5.8964187e-07
2.6280423e-09
5.8911528e-07
1.2578483e-09
5.8880431e-07
-1.0874167e-10
5.8870133e-07
-1.4755772e-09
5.8880408e-07
-2.8464231e-09
5.8911562e-07
-4.2248565e-09
5.8964445e-07
-5.6141618e-09
5.9040495e-07
-7.01722e-09
5.9141829e-07
-8.4364002e-09
5.9271371e-07
-9.8734637e-09
5.9433057e-07
-1.1329502e-08
5.9632145e-07
-1.2804871e-08
5.9875668e-07
-1.4298866e-08
6.017297e-07
-1.5810629e-08
6.0536387e-07
-1.7356706e-08
6.0987468e-07
-1.902638e-08
6.1593947e-07
-2.0906758e-08
6.2532296e-07
-2.2286556e-08
6.3816021e-07
-2.052885e-08
6.3902383e-07
-1.3100407e-08
5.8099446e-07
-3.3289585e-09
4.1049556e-07
1.4245558e-07
2.4248687e-09
1.1421142e-07
1.1530178e-08
3.5513231e-07
2.0988577e-08
5.5158155e-07
2.4702033e-08
6.4204802e-07
2.3829655e-08
6.5213592e-07
2.1775544e-08
6.3721059e-07
1.9947612e-08
6.2438798e-07
1.8351181e-08
6.1645522e-07
1.6826242e-08
6.1093999e-07
1.532461e-08
6.065825e-07
1.384261e-08
6.0301808e-07
1.238067e-08
6.0008935e-07
1.0938345e-08
5.9768032e-07
9.5148137e-09
5.9570231e-07
8.1089159e-09
5.9408928e-07
6.719076e-09
5.927919e-07
5.343303e-09
5.9177325e-07
3.9792434e-09
5.9100593e-07
2.6242581e-09
5.9047027e-07
1.2755108e-09
5.9015306e-07
-6.9939868e-11
5.9004678e-07
-1.4150456e-09
5.9014918e-07
-2.7626743e-09
5.9046325e-07
-4.1155115e-09
5.9099728e-07
-5.4759644e-09
5.9176541e-07
-6.8460645e-09
5.9278839e-07
-8.2273809e-09
5.9409503e-07
-9.6209572e-09
5.9572415e-07
-1.1027292e-08
5.9772778e-07
-1.244631e-08
6.0017569e-07
-1.3877138e-08
6.0316053e-07
-1.5320032e-08
6.0680677e-07
-1.6796545e-08
6.1135119e-07
-1.8397325e-08
6.1754025e-07
-2.0161463e-08
6.2708709e-07
-2.1272927e-08
6.3927167e-07
-1.9197472e-08
6.3694837e-07
-1.1907843e-08
5.7370483e-07
-2.9314761e-09
4.0151919e-07
1.3952411e-07
2.2316978e-09
1.1197977e-07
1.0564261e-08
3.4679985e-07
1.9673651e-08
5.4247225e-07
2.3657285e-08
6.3806443e-07
2.3116395e-08
6.5267681e-07
2.1203709e-08
6.3912327e-07
1.9430059e-08
6.2616163e-07
1.7886828e-08
6.1799845e-07
1.6421969e-08
6.1240485e-07
1.4979147e-08
6.0802532e-07
1.3551549e-08
6.0444568e-07
1.2139149e-08
6.0150175e-07
1.074153e-08
5.9907794e-07
9.3580729e-09
5.9708577e-07
7.9879919e-09
5.9545936e-07
6.6302219e-09
5.9414967e-07
5.2833775e-09
5.9312009e-07
3.9457748e-09
5.9234353e-07
2.6154865e-09
5.9180056e-07
1.2904134e-09
5.9147813e-07
-3.1634383e-11
5.9136882e-07
-1.3528531e-09
5.914704e-07
-2.6753595e-09
5.9178575e-07
-4.0011023e-09
5.9232303e-07
-5.3317786e-09
5.9309608e-07
-6.6687546e-09
5.9412537e-07
-8.0130022e-09
5.9543927e-07
-9.3650693e-09
5.9707622e-07
-1.0725099e-08
5.9908781e-07
-1.2092832e-08
6.0154343e-07
-1.3467528e-08
6.0453522e-07
-1.4850981e-08
6.0819022e-07
-1.626959e-08
6.127698e-07
-1.7812275e-08
6.1908294e-07
-1.9468091e-08
6.2874291e-07
-2.0335091e-08
6.4013867e-07
-1.8003267e-08
6.3461655e-07
-1.0891308e-08
5.6659287e-07
-2.6272264e-09
3.9325511e-07
1.3689688e-07
2.0744064e-09
1.0990543e-07
9.7303473e-09
3.3914403e-07
1.8483475e-08
5.3371923e-07
2.2677324e-08
6.3387063e-07
2.244141e-08
6.5291273e-07
2.0668607e-08
6.4089607e-07
1.8944514e-08
6.2788572e-07
1.7445233e-08
6.1949773e-07
1.6031815e-08
6.1381827e-07
1.4641015e-08
6.0941612e-07
1.3262583e-08
6.0582411e-07
1.189582e-08
6.0286852e-07
1.0540206e-08
6.0043356e-07
9.1951797e-09
5.9843079e-07
7.8601715e-09
5.9679437e-07
6.5344686e-09
5.9547538e-07
5.2171368e-09
5.9443742e-07
3.9070144e-09
5.9365365e-07
2.6027453e-09
5.9310483e-07
1.3028324e-09
5.9277804e-07
5.7052228e-12
5.9266595e-07
-1.2902107e-09
5.9276632e-07
-2.5864138e-09
5.9308196e-07
-3.8842568e-09
5.9362087e-07
-5.1848751e-09
5.943967e-07
-6.4891274e-09
5.9542962e-07
-7.797556e-09
5.967477e-07
-9.1103889e-09
5.9838905e-07
-1.0427591e-08
6.0040501e-07
-1.1748896e-08
6.0286473e-07
-1.3073912e-08
6.0586024e-07
-1.4406252e-08
6.0952256e-07
-1.5776712e-08
6.1414026e-07
-1.7269498e-08
6.2057572e-07
-1.8823056e-08
6.3029647e-07
-1.9467155e-08
6.4078277e-07
-1.6929731e-08
6.3207913e-07
-1.0019742e-08
5.5968289e-07
-2.391096e-09
3.8562646e-07
1.3450579e-07
1.9413236e-09
1.0796417e-07
9.0033167e-09
3.3208219e-07
1.7401334e-08
5.2532135e-07
2.1755712e-08
6.2951631e-07
2.1800144e-08
6.528683e-07
2.0166282e-08
6.4252992e-07
1.8489259e-08
6.2956274e-07
1.7026798e-08
6.209602e-07
1.5657555e-08
6.1518751e-07
1.4312857e-08
6.1076082e-07
1.2978883e-08
6.0715808e-07
1.1654099e-08
6.041933e-07
1.0337797e-08
6.0174986e-07
9.0293778e-09
5.9973921e-07
7.7283777e-09
5.9809537e-07
6.4343125e-09
5.9676944e-07
5.1465749e-09
5.9572516e-07
3.8644017e-09
5.9493583e-07
2.5868854e-09
5.9438234e-07
1.3130114e-09
5.9405192e-07
4.170877e-11
5.9393725e-07
-1.2280904e-09
5.9403611e-07
-2.4973904e-09
5.9435126e-07
-3.7670709e-09
5.9489055e-07
-5.0378337e-09
5.9566746e-07
-6.3101612e-09
5.9670195e-07
-7.5843019e-09
5.9802184e-07
-8.8602977e-09
5.9966505e-07
-1.0138064e-08
6.0168278e-07
-1.1417444e-08
6.0414411e-07
-1.2698548e-08
6.0714134e-07
-1.3986966e-08
6.1081098e-07
-1.5317231e-08
6.1547053e-07
-1.6766077e-08
6.2202457e-07
-1.8221944e-08
6.3175234e-07
-1.8662462e-08
6.4122329e-07
-1.5961283e-08
6.2937795e-07
-9.2670206e-09
5.5298862e-07
-2.2041121e-09
3.7856356e-07
1.3230167e-07
1.8249085e-09
1.0613934e-07
8.3636834e-09
3.2554359e-07
1.6413224e-08
5.1727197e-07
2.0886748e-08
6.2504287e-07
2.1188561e-08
6.525665e-07
1.9692879e-08
6.440256e-07
1.8062092e-08
6.3119352e-07
1.6631109e-08
6.2239118e-07
1.5299998e-08
6.1651862e-07
1.3996295e-08
6.1206452e-07
1.270261e-08
6.0845177e-07
1.1416446e-08
6.0547946e-07
1.0136857e-08
6.0302945e-07
8.8631536e-09
6.0101292e-07
7.5948951e-09
5.9936362e-07
6.3317355e-09
5.980326e-07
5.0732954e-09
5.969836e-07
3.8191076e-09
5.9619001e-07
2.5686105e-09
5.9563284e-07
1.3211675e-09
5.9529936e-07
7.610427e-11
5.9518232e-07
-1.1672477e-09
5.9527947e-07
-2.4095017e-09
5.9559351e-07
-3.6511716e-09
5.9613222e-07
-4.8926329e-09
5.9690892e-07
-6.1341005e-09
5.9794341e-07
-7.3756336e-09
5.9926338e-07
-8.6171881e-09
6.009066e-07
-9.8587159e-09
6.0292431e-07
-1.1100248e-08
6.0538564e-07
-1.2342498e-08
6.0838359e-07
-1.3593089e-08
6.1206157e-07
-1.488949e-08
6.1676693e-07
-1.6298505e-08
6.2343358e-07
-1.7660106e-08
6.3311394e-07
-1.7914325e-08
6.4147751e-07
-1.5083892e-08
6.2654751e-07
-8.6116271e-09
5.4651636e-07
-2.0522759e-09
3.720042e-07
1.302494e-07
1.7204412e-09
1.04419e-07
7.7963727e-09
3.1946786e-07
1.5507523e-08
5.0956102e-07
2.0065561e-08
6.2048493e-07
2.0603262e-08
6.5202882e-07
1.9244866e-08
6.4538398e-07
1.7660638e-08
6.3277774e-07
1.6257259e-08
6.2379456e-07
1.4959298e-08
6.1781658e-07
1.3692212e-08
6.1333161e-07
1.2435154e-08
6.0970882e-07
1.1184571e-08
6.0673004e-07
9.9392487e-09
6.0427477e-07
8.6983721e-09
6.0225379e-07
7.4614758e-09
6.0060052e-07
6.2282837e-09
5.9926579e-07
4.998567e-09
5.9821332e-07
3.7720723e-09
5.9741651e-07
2.5484972e-09
5.9685641e-07
1.3274953e-09
5.9652036e-07
1.0869913e-10
5.9640111e-07
-1.1082496e-09
5.9649642e-07
-2.3236641e-09
5.9680892e-07
-3.537782e-09
5.9734634e-07
-4.7507416e-09
5.9812188e-07
-5.9625757e-09
5.9915525e-07
-7.1732353e-09
6.0047404e-07
-8.3826607e-09
6.0211603e-07
-9.5908965e-09
6.0413254e-07
-1.0798207e-08
6.0659295e-07
-1.2005972e-08
6.0959136e-07
-1.3223824e-08
6.1327942e-07
-1.4491277e-08
6.1803438e-07
-1.5863095e-08
6.248054e-07
-1.7133036e-08
6.3438388e-07
-1.7216468e-08
6.4156094e-07
-1.4285313e-08
6.2361636e-07
-8.0361198e-09
5.4026716e-07
-1.9254873e-09
3.6589357e-07
1.2832391e-07
1.6250519e-09
1.0279406e-07
7.2896871e-09
3.1380346e-07
1.4674617e-08
5.0217632e-07
1.9288065e-08
6.1587161e-07
2.0041469e-08
6.5127544e-07
1.881913e-08
6.4660632e-07
1.728254e-08
6.3431432e-07
1.5904071e-08
6.2517302e-07
1.4635182e-08
6.1908547e-07
1.3400968e-08
6.1456582e-07
1.2177338e-08
6.1093245e-07
1.0959612e-08
6.0794777e-07
9.7462811e-09
6.054881e-07
8.536397e-09
6.0346368e-07
7.329435e-09
6.0180748e-07
6.1251408e-09
6.0047009e-07
4.923378e-09
5.9941508e-07
3.7240404e-09
5.9861584e-07
2.5270147e-09
5.9805344e-07
1.3321712e-09
5.977152e-07
1.3937389e-10
5.9759391e-07
-1.0515011e-09
5.9768729e-07
-2.2405424e-09
5.9799797e-07
-3.427786e-09
5.9853358e-07
-4.6132044e-09
5.993073e-07
-5.7967157e-09
6.0033876e-07
-6.9782221e-09
6.0165554e-07
-8.1576966e-09
6.032955e-07
-9.3353087e-09
6.0531015e-07
-1.051158e-08
6.0776922e-07
-1.1688594e-08
6.1076837e-07
-1.2877901e-08
6.1446873e-07
-1.4120128e-08
6.1927661e-07
-1.5456247e-08
6.2614152e-07
-1.6636596e-08
6.3556423e-07
-1.6563253e-08
6.414876e-07
-1.3555092e-08
6.206082e-07
-7.5265165e-09
5.3423859e-07
-1.8166135e-09
3.6018367e-07
1.265073e-07
1.5370316e-09
1.0125715e-07
6.8344732e-09
3.085063e-07
1.3906511e-08
4.9510456e-07
1.8550851e-08
6.1122742e-07
1.9500968e-08
6.5032536e-07
1.8412997e-08
6.4769428e-07
1.6925569e-08
6.3580174e-07
1.5570248e-08
6.2652834e-07
1.4327107e-08
6.2032861e-07
1.3122563e-08
6.1577037e-07
1.1929571e-08