/*--------------------------------*- C++ -*----------------------------------*\
  =========                 |
  \\      /  F ield         | OpenFOAM: The Open Source CFD Toolbox
   \\    /   O peration     | Website:  https://openfoam.org
    \\  /    A nd           | Version:  10
     \\/     M anipulation  |
\*---------------------------------------------------------------------------*/
FoamFile
{
    format      ascii;
    class       surfaceScalarField;
    location    "0.26";
    object      phi_0;
}
// * * * * * * * * * * * * * * * * * * * * * * * * * * * * * * * * * * * * * //

dimensions      [1 0 -1 0 0 0 0];

internalField   nonuniform List<scalar> 
7860
(
3.9895995e-08
5.2881204e-07
1.2192742e-08
5.9641106e-07
7.4279229e-09
5.7347257e-07
5.4994447e-09
5.7063619e-07
4.1150212e-09
5.700921e-07
3.2011646e-09
5.6962151e-07
2.5591656e-09
5.6934964e-07
2.079331e-09
5.6918746e-07
1.7093324e-09
5.6907761e-07
1.4166464e-09
5.6900029e-07
1.1794778e-09
5.6894476e-07
9.830635e-10
5.68904e-07
8.170603e-10
5.6887359e-07
6.7397806e-10
5.6885066e-07
5.4824371e-10
5.6883331e-07
4.3559678e-10
5.6882022e-07
3.3268382e-10
5.6881048e-07
2.367777e-10
5.6880347e-07
1.4557569e-10
5.6879877e-07
5.7046921e-11
5.6879609e-07
-3.0691167e-11
5.687953e-07
-1.1948057e-10
5.6879635e-07
-2.1122743e-10
5.6879931e-07
-3.0800894e-10
5.6880435e-07
-4.122056e-10
5.6881176e-07
-5.2666412e-10
5.6882203e-07
-6.5491811e-10
5.6883583e-07
-8.0150123e-10
5.6885416e-07
-9.7240738e-10
5.6887849e-07
-1.1757977e-09
5.6891098e-07
-1.4231733e-09
5.6895497e-07
-1.7313454e-09
5.6901577e-07
-2.125292e-09
5.6910156e-07
-2.6448941e-09
5.6922723e-07
-3.3725656e-09
5.6943531e-07
-4.4638559e-09
5.6979895e-07
-6.0091663e-09
5.7025299e-07
-9.5081515e-09
5.722067e-07
-2.9575996e-08
5.887756e-07
5.3913193e-07
5.9672538e-08
4.691395e-07
3.6666016e-08
6.1941758e-07
2.2628199e-08
5.8751039e-07
1.6253613e-08
5.7701077e-07
1.229055e-08
5.7405517e-07
9.6062939e-09
5.7230577e-07
7.6775046e-09
5.7127843e-07
6.2361459e-09
5.7062882e-07
5.1266219e-09
5.7018713e-07
4.24886e-09
5.6987805e-07
3.5375259e-09
5.696561e-07
2.948451e-09
5.6949308e-07
2.4505901e-09
5.6937145e-07
2.0214683e-09
5.6927978e-07
1.6443711e-09
5.6921041e-07
1.3065215e-09
5.6915807e-07
9.9786254e-10
5.6911914e-07
7.1021603e-10
5.6909112e-07
4.3667659e-10
5.6907231e-07
1.7115292e-10
5.6906162e-07
-9.2001018e-11
5.6905846e-07
-3.5830809e-10
5.6906266e-07
-6.3348003e-10
5.6907448e-07
-9.2374886e-10
5.6909462e-07
-1.2362533e-09
5.6912427e-07
-1.5795301e-09
5.6916531e-07
-1.964176e-09
5.6922047e-07
-2.4037866e-09
5.6929377e-07
-2.9163448e-09
5.6939105e-07
-3.5263423e-09
5.6952097e-07
-4.2681978e-09
5.6969682e-07
-5.1922757e-09
5.6993985e-07
-6.3752e-09
5.7028448e-07
-7.935687e-09
5.7078771e-07
-1.0076958e-08
5.7157658e-07
-1.3205135e-08
5.7292712e-07
-1.8134983e-08
5.7518284e-07
-2.8177204e-08
5.8224892e-07
-4.5803093e-08
6.0640149e-07
4.9332884e-07
6.0008867e-08
4.0913064e-07
5.0487327e-08
6.2893912e-07
3.3370731e-08
6.0462698e-07
2.4817746e-08
5.8556376e-07
1.9323326e-08
5.7954959e-07
1.5331585e-08
5.7629751e-07
1.2360808e-08
5.742492e-07
1.0101642e-08
5.7288798e-07
8.3407111e-09
5.7194807e-07
6.9348947e-09
5.7128387e-07
5.7881141e-09
5.7080288e-07
4.8336047e-09
5.7044759e-07
4.0236023e-09
5.7018145e-07
3.3231217e-09
5.6998026e-07
2.7058997e-09
5.6982763e-07
2.1517042e-09
5.6971226e-07
1.6445104e-09
5.6962633e-07
1.1712192e-09
5.6956441e-07
7.2072402e-10
5.695228e-07
2.8319702e-10
5.6949914e-07
-1.5048783e-10
5.6949214e-07
-5.8926092e-10
5.6950143e-07
-1.0423503e-09
5.6952757e-07
-1.5198018e-09
5.6957207e-07
-2.0330817e-09
5.6963755e-07
-2.5958364e-09
5.6972806e-07
-3.224904e-09
5.6984954e-07
-3.941725e-09
5.7001059e-07
-4.7743932e-09
5.7022371e-07
-5.7607181e-09
5.705073e-07
-6.952884e-09
5.7088899e-07
-8.4250883e-09
5.7141206e-07
-1.0286728e-08
5.7214612e-07
-1.2699674e-08
5.7320066e-07
-1.5897081e-08
5.7477399e-07
-2.0240835e-08
5.7727088e-07
-2.670908e-08
5.8165108e-07
-3.8948552e-08
5.9448839e-07
-4.8167616e-08
6.1562056e-07
4.4516122e-07
5.4879103e-08
3.5425153e-07
5.7452263e-08
6.2636596e-07
4.0467634e-08
6.2161161e-07
3.0778848e-08
5.9525255e-07
2.4643145e-08
5.8568529e-07
1.9952392e-08
5.8098826e-07
1.6313036e-08
5.7788856e-07
1.346662e-08
5.757344e-07
1.1201032e-08
5.7421365e-07
9.3645653e-09
5.7312033e-07
7.8493373e-09
5.7231811e-07
6.5768601e-09
5.7172006e-07
5.489288e-09
5.7126902e-07
4.5433093e-09
5.7092624e-07
3.70583e-09
5.7066511e-07
2.9509939e-09
5.704671e-07
2.2580841e-09
5.7031924e-07
1.6100062e-09
5.7021249e-07
9.9215604e-10
5.7014065e-07
3.9153988e-10
5.7009976e-07
-2.0394881e-10
5.7008763e-07
-8.0616921e-10
5.7010365e-07
-1.4273548e-09
5.7014876e-07
-2.0807672e-09
5.7022548e-07
-2.7814473e-09
5.7033823e-07
-3.5471425e-09
5.7049376e-07
-4.3995147e-09
5.7070191e-07
-5.3657727e-09
5.7097685e-07
-6.4809528e-09
5.7133889e-07
-7.7911795e-09
5.7181753e-07
-9.3582317e-09
5.7245604e-07
-1.1265929e-08
5.7331975e-07
-1.3630534e-08
5.7451073e-07
-1.661339e-08
5.7618351e-07
-2.0412266e-08
5.7857286e-07
-2.5293836e-08
5.8215245e-07
-3.2518058e-08
5.8887531e-07
-4.5101645e-08
6.0707198e-07
-4.6549825e-08
6.1706874e-07
3.986114e-07
4.7965827e-08
3.0628571e-07
6.0076646e-08
6.1425514e-07
4.5400272e-08
6.3628798e-07
3.4875474e-08
6.0577734e-07
2.8399972e-08
5.9216079e-07
2.3419724e-08
5.8596851e-07
1.943439e-08
5.8187389e-07
1.6229232e-08
5.7893956e-07
1.3619735e-08
5.7682315e-07
1.1466494e-08
5.7527357e-07
9.6643823e-09
5.7412022e-07
8.1333615e-09
5.7325108e-07
6.8124092e-09
5.7258997e-07
5.6545142e-09
5.7208414e-07
4.6229021e-09
5.7169672e-07
3.6882875e-09
5.7140171e-07
2.8268329e-09
5.711807e-07
2.0186098e-09
5.7102071e-07
1.2464145e-09
5.7091285e-07
4.9482291e-10
5.7085135e-07
-2.5060292e-10
5.7083305e-07
-1.004024e-09
5.7085707e-07
-1.7800155e-09
5.7092475e-07
-2.5942888e-09
5.7103975e-07
-3.4645077e-09
5.7120845e-07
-4.4112721e-09
5.7144052e-07
-5.4593583e-09
5.7175e-07
-6.6393281e-09
5.7215682e-07
-7.9896558e-09
5.7268922e-07
-9.559602e-09
5.7338747e-07
-1.1412989e-08
5.7430943e-07
-1.3632626e-08
5.7553939e-07
-1.6326813e-08
5.7720491e-07
-1.9639152e-08
5.7949585e-07
-2.37399e-08
5.8267361e-07
-2.893198e-08
5.8734453e-07
-3.6792225e-08
5.9673555e-07
-4.8464783e-08
6.1874454e-07
-4.31948e-08
6.1179875e-07
3.554166e-07
4.0336129e-08
2.6594958e-07
5.8994266e-08
5.9559701e-07
4.8330291e-08
6.4695196e-07
3.7588272e-08
6.1651936e-07
3.0929078e-08
5.9881998e-07
2.5894181e-08
5.9100341e-07
2.1780174e-08
5.859879e-07
1.8392206e-08
5.8232752e-07
1.557762e-08
5.7963774e-07
1.3214369e-08
5.7763683e-07
1.1206514e-08
5.7612807e-07
9.4787653e-09
5.7497883e-07
7.9719805e-09
5.7409676e-07
6.6392573e-09
5.7341686e-07
5.4429699e-09
5.7289301e-07
4.3525021e-09
5.7249218e-07
3.342467e-09
5.7219073e-07
2.3913082e-09
5.7197187e-07
1.4801815e-09
5.7182397e-07
5.9203406e-10
5.717395e-07
-2.8918533e-10
5.7171427e-07
-1.1792441e-09
5.7174713e-07
-2.0943286e-09
5.7183983e-07
-3.0517721e-09
5.719972e-07
-4.0708609e-09
5.7222754e-07
-5.1737803e-09
5.7254344e-07
-6.3867667e-09
5.7296298e-07
-7.7415416e-09
5.7351159e-07
-9.2771098e-09
5.7422479e-07
-1.1042067e-08
5.7515243e-07
-1.3097632e-08
5.7636499e-07
-1.5521069e-08
5.7796283e-07
-1.8409776e-08
5.8009362e-07
-2.1887926e-08
5.82974e-07
-2.61113e-08
5.8689699e-07
-3.1489431e-08
5.9272266e-07
-3.9655752e-08
6.0490187e-07
-4.9173469e-08
6.2826225e-07
-3.8579057e-08
6.0120434e-07
3.1683754e-07
3.2862793e-08
2.3308679e-07
5.5250233e-08
5.7320957e-07
4.9232507e-08
6.5296968e-07
3.9061757e-08
6.2669011e-07
3.2430896e-08
6.0545084e-07
2.7518997e-08
5.9591531e-07
2.3438929e-08
5.9006797e-07
2.0003119e-08
5.8576333e-07
1.7095015e-08
5.8254584e-07
1.4612397e-08
5.8011944e-07
1.2471476e-08
5.7826899e-07
1.0605005e-08
5.768453e-07
8.958743e-09
5.7574302e-07
7.4884995e-09
5.748871e-07
6.157946e-09
5.7422356e-07
4.9368583e-09
5.7371327e-07
3.799673e-09
5.7332792e-07
2.7243115e-09
5.7304723e-07
1.6912033e-09
5.7285708e-07
6.8245506e-10
5.7274825e-07
-3.1888144e-10
5.7271561e-07
-1.3294834e-09
5.7275774e-07
-2.3664234e-09
5.7287677e-07
-3.4478523e-09
5.7307863e-07
-4.5937404e-09
5.7337342e-07
-5.8267257e-09
5.7377642e-07
-7.1731102e-09
5.7430937e-07
-8.6640608e-09
5.7500254e-07
-1.033706e-08
5.7589779e-07
-1.223768e-08
5.7705305e-07
-1.4421975e-08
5.7854929e-07
-1.6959371e-08
5.8050022e-07
-1.9934708e-08
5.8306896e-07
-2.344876e-08
5.8648805e-07
-2.7642949e-08
5.9109118e-07
-3.3035724e-08
5.9811543e-07
-4.1012035e-08
6.1287818e-07
-4.7688942e-08
6.3493916e-07
-3.3376706e-08
5.868921e-07
2.8346084e-07
2.61891e-08
2.0689769e-07
5.0132959e-08
5.4926571e-07
4.8493884e-08
6.5460876e-07
3.9491349e-08
6.3569265e-07
3.307774e-08
6.1186445e-07
2.8412322e-08
6.0058072e-07
2.4493201e-08
5.9398709e-07
2.1118519e-08
5.8913802e-07
1.8207394e-08
5.8545696e-07
1.5680602e-08
5.8264624e-07
1.3469005e-08
5.8048059e-07
1.1515426e-08
5.7879888e-07
9.7723522e-09
5.7748609e-07
8.199994e-09
5.7645946e-07
6.7648219e-09
5.7565873e-07
5.4382926e-09
5.750398e-07
4.195761e-09
5.7457045e-07
3.0155572e-09
5.7422743e-07
1.8781881e-09
5.7399445e-07
7.6563502e-10
5.738608e-07
-3.3928296e-10
5.7382053e-07
-1.453505e-09
5.7387196e-07
-2.5943212e-09
5.7401759e-07
-3.7799755e-09
5.7426428e-07
-5.0303084e-09
5.7462376e-07
-6.3674716e-09
5.7511359e-07
-7.8167404e-09
5.7575864e-07
-9.4074612e-09
5.7659326e-07
-1.1174159e-08
5.7766449e-07
-1.3157806e-08
5.790367e-07
-1.5407472e-08
5.8079895e-07
-1.7982439e-08
5.8307519e-07
-2.0952161e-08
5.8603868e-07
-2.4391826e-08
5.8992772e-07
-2.843697e-08
5.9513632e-07
-3.3692883e-08
6.0337135e-07
-4.1064165e-08
6.2024946e-07
-4.4798531e-08
6.3867353e-07
-2.8205045e-08
5.7029862e-07
2.5525579e-07
2.0571012e-08
1.8632668e-07
4.4583484e-08
5.2525325e-07
4.6643298e-08
6.5254895e-07
3.9153547e-08
6.431824e-07
3.308417e-08
6.1793383e-07
2.8717977e-08
6.0494692e-07
2.5038511e-08
5.9766655e-07
2.1804155e-08
5.9237237e-07
1.895959e-08
5.8830153e-07
1.6448768e-08
5.8515706e-07
1.4218189e-08
5.8271117e-07
1.2221673e-08
5.807954e-07
1.0419442e-08
5.7928832e-07
8.7771388e-09
5.7810176e-07
7.2650119e-09
5.7717086e-07
5.8570962e-09
5.7644771e-07
4.5304758e-09
5.7589707e-07
3.2646179e-09
5.7549329e-07
2.0407662e-09
5.752183e-07
8.4138339e-10
5.7506018e-07
-3.5036873e-10
5.7501228e-07
-1.5511253e-09
5.7507271e-07
-2.777816e-09
5.7524428e-07
-4.048166e-09
5.7553463e-07
-5.3812206e-09
5.7595681e-07
-6.7979113e-09
5.7653028e-07
-8.3216729e-09
5.772824e-07
-9.9791286e-09
5.7825072e-07
-1.1800856e-08
5.7948621e-07
-1.3822184e-08
5.8105802e-07
-1.60841e-08
5.8306087e-07
-1.8634452e-08
5.8562554e-07
-2.1526345e-08
5.8893057e-07
-2.4813796e-08
5.9321517e-07
-2.8643033e-08
5.9896556e-07
-3.3661447e-08
6.0838976e-07
-4.014546e-08
6.2673348e-07
-4.1160297e-08
6.3968836e-07
-2.3417455e-08
5.5255578e-07
2.3183834e-07
1.6015594e-08
1.703111e-07
3.9144234e-08
5.0212461e-07
4.411899e-08
6.4757419e-07
3.8290075e-08
6.4901131e-07
3.2654321e-08
6.2356958e-07
2.8592022e-08
6.0900922e-07
2.5184035e-08
6.0107454e-07
2.21364e-08
5.9542001e-07
1.9405228e-08
5.910327e-07
1.6954461e-08
5.8760783e-07
1.4745123e-08
5.849205e-07
1.2741617e-08
5.827989e-07
1.0912033e-08
5.8111791e-07
9.2278502e-09
5.7978595e-07
7.6635957e-09
5.7873511e-07
6.1964239e-09
5.7791488e-07
4.8056896e-09
5.772878e-07
3.4725209e-09
5.7682646e-07
2.1793982e-09
5.7651142e-07
9.0974558e-10
5.7632983e-07
-3.5246602e-10
5.7627449e-07
-1.6231055e-09
5.7634335e-07
-2.9182734e-09
5.7653945e-07
-4.2546928e-09
5.7687105e-07
-5.6501082e-09
5.7735223e-07
-7.1237008e-09
5.7800387e-07
-8.6965149e-09
5.7885521e-07
-1.0391897e-08
5.799461e-07
-1.2235952e-08
5.8133027e-07
-1.4257962e-08
5.8308003e-07
-1.6490751e-08
5.8529366e-07
-1.897107e-08
5.8810586e-07
-2.1737055e-08
5.9169656e-07
-2.4829182e-08
5.9630729e-07
-2.8416352e-08
6.0255273e-07
-3.3125784e-08
6.1309919e-07
-3.8550846e-08
6.3215854e-07
-3.7216736e-08
6.3835425e-07
-1.9183335e-08
5.3452237e-07
2.12655e-07
1.2423882e-08
1.5788722e-07
3.4114312e-08
4.8043419e-07
4.1250172e-08
6.4043834e-07
3.707909e-08
6.5318239e-07
3.1942327e-08
6.2870634e-07
2.8169182e-08
6.1278236e-07
2.5033406e-08
6.0421032e-07
2.2192503e-08
5.9826091e-07
1.9601407e-08
5.936238e-07
1.7239531e-08
5.899697e-07
1.5080246e-08
5.8707979e-07
1.3097237e-08
5.8478191e-07
1.1265869e-08
5.8294928e-07
9.5632868e-09
5.8148853e-07
7.9683744e-09
5.8033002e-07
6.4616206e-09
5.7942164e-07
5.0249412e-09
5.7872448e-07
3.6414523e-09
5.7820995e-07
2.2952133e-09
5.7785766e-07
9.7095746e-10
5.7765409e-07
-3.4618582e-10
5.7759163e-07
-1.6709694e-09
5.7766814e-07
-3.0183145e-09
5.7788679e-07
-4.4035916e-09
5.7825632e-07
-5.8428989e-09
5.7879153e-07
-7.3533356e-09
5.7951431e-07
-8.9532617e-09
5.8045514e-07
-1.066253e-08
5.8165537e-07
-1.2502696e-08
5.8317043e-07
-1.4497176e-08
5.8507451e-07
-1.6671285e-08
5.8746777e-07
-1.905191e-08
5.9048648e-07
-2.1664544e-08
5.9430919e-07
-2.4543383e-08
5.9918613e-07
-2.7882993e-08
6.0589234e-07
-3.2228585e-08
6.1744478e-07
-3.6522462e-08
6.3645241e-07
-3.3269123e-08
6.3510091e-07
-1.556437e-08
5.1681762e-07
1.9709063e-07
9.6572586e-09
1.4822997e-07
2.9646029e-08
4.6044544e-07
3.8283496e-08
6.3180088e-07
3.5658761e-08
6.5580713e-07
3.1059367e-08
6.3330574e-07
2.7553826e-08
6.162879e-07
2.4673193e-08
6.0709095e-07
2.2041239e-08
6.0089286e-07
1.9601996e-08
5.9606304e-07
1.7345495e-08
5.922262e-07
1.5255121e-08
5.8917016e-07
1.3312294e-08
5.8672474e-07
1.1498678e-08
5.8476289e-07
9.7965482e-09
5.8319066e-07
8.1888993e-09
5.8193767e-07
6.6595099e-09
5.8095103e-07
5.1929346e-09
5.8019106e-07
3.7744285e-09
5.7962845e-07
2.3898267e-09
5.7924226e-07
1.0253932e-09
5.7901852e-07
-3.3234959e-10
5.7894938e-07
-1.6968004e-09
5.7903259e-07
-3.0814664e-09
5.7927146e-07
-4.5001435e-09
5.79675e-07
-5.9670865e-09
5.8025848e-07
-7.4971611e-09
5.8104438e-07
-9.1059673e-09
5.8206394e-07
-1.0809915e-08
5.8335932e-07
-1.2626254e-08
5.8498677e-07
-1.4573064e-08
5.8702132e-07
-1.6669084e-08
5.8956379e-07
-1.8932793e-08
5.9275019e-07
-2.1379695e-08
5.967561e-07
-2.4043927e-08
6.0185037e-07
-2.7141822e-08
6.0899023e-07
-3.1088012e-08
6.2139097e-07
-3.4264442e-08
6.3962884e-07
-2.9522604e-08
6.3035908e-07
-1.255592e-08
4.9985094e-07
1.8453471e-07
7.5669017e-09
1.4066308e-07
2.5787047e-08
4.4222531e-07
3.5389823e-08
6.2219811e-07
3.4138943e-08
6.5705801e-07
3.0088433e-08
6.3735624e-07
2.6825944e-08
6.1955039e-07
2.417308e-08
6.0974381e-07
2.1740385e-08
6.0332556e-07
1.9454277e-08
5.9834915e-07
1.7310406e-08
5.9437007e-07
1.529989e-08
5.9118068e-07
1.3410349e-08
5.8861428e-07
1.1628664e-08
5.8654458e-07
9.9415209e-09
5.848778e-07
8.3356021e-09
5.8354359e-07
6.7977521e-09
5.8248888e-07
5.31508e-09
5.8167373e-07
3.8749912e-09
5.8106854e-07
2.4651687e-09
5.8065209e-07
1.073517e-09
5.8041017e-07
-3.1191927e-10
5.8033481e-07
-1.7030483e-09
5.8042372e-07
-3.1118339e-09
5.8068024e-07
-4.5503892e-09
5.8111356e-07
-6.0310554e-09
5.8173914e-07
-7.5664571e-09
5.8257978e-07
-9.1695206e-09
5.8366701e-07
-1.085344e-08
5.8504324e-07
-1.2631585e-08
5.8676492e-07
-1.4517385e-08
5.8890712e-07
-1.6524025e-08
5.9157043e-07
-1.8663101e-08
5.9488927e-07
-2.0943118e-08
5.9903611e-07
-2.3403259e-08
6.0431051e-07
-2.6273208e-08
6.1186018e-07
-2.9805133e-08
6.249229e-07
-3.1938436e-08
6.4176215e-07
-2.6099532e-08
6.2452017e-07
-1.0111344e-08
4.8386275e-07
1.7442337e-07
6.0122376e-09
1.3465086e-07
2.2515587e-08
4.2572199e-07
3.2671011e-08
6.120427e-07
3.2600078e-08
6.5712894e-07
2.9089616e-08
6.408667e-07
2.6045702e-08
6.225943e-07
2.3588402e-08
6.1220112e-07
2.1337519e-08
6.0557644e-07
1.9198441e-08
6.0048822e-07
1.7167706e-08
5.9640081e-07
1.5241936e-08
5.9310645e-07
1.3413499e-08
5.9044272e-07
1.1673408e-08
5.8828467e-07
1.0011989e-08
5.8653922e-07
8.4190947e-09
5.8513649e-07
6.8843086e-09
5.8402366e-07
5.3971044e-09
5.8316093e-07
3.9469454e-09
5.825187e-07
2.5233368e-09
5.820757e-07
1.1158407e-09
5.8181767e-07
-2.8593433e-10
5.8173659e-07
-1.6923584e-09
5.8183014e-07
-3.1138122e-09
5.821017e-07
-4.560711e-09
5.8256046e-07
-6.0435122e-09
5.8322194e-07
-7.5726965e-09
5.8410897e-07
-9.1587122e-09
5.8525302e-07
-1.081187e-08
5.8669639e-07
-1.2542183e-08
5.8849523e-07
-1.4359192e-08
5.9072413e-07
-1.6271584e-08
5.9348282e-07
-1.828566e-08
5.9690334e-07
-2.0406003e-08
6.0115645e-07
-2.2680401e-08
6.065849e-07
-2.5340745e-08
6.1452052e-07
-2.8460547e-08
6.280427e-07
-2.9658647e-08
6.4296025e-07
-2.3055175e-08
6.179167e-07
-8.1621932e-09
4.6896977e-07
1.6626117e-07
4.870563e-09
1.2978031e-07
1.9773101e-08
4.1081948e-07
3.0175333e-08
6.0164049e-07
3.1094513e-08
6.5620976e-07
2.8102411e-08
6.438588e-07
2.5255396e-08
6.2544132e-07
2.2961285e-08
6.1449523e-07
2.0870692e-08
6.0766703e-07
1.8867765e-08
6.0249115e-07
1.6945953e-08
5.9832262e-07
1.510533e-08
5.9494707e-07
1.3341704e-08
5.9220634e-07
1.1649198e-08
5.8997717e-07
1.002102e-08
5.881674e-07
8.4496476e-09
5.8670786e-07
6.9270255e-09
5.8554628e-07
5.4447372e-09
5.8464322e-07
3.9941423e-09
5.839693e-07
2.5664715e-09
5.8350337e-07
1.1528909e-09
5.8323125e-07
-2.5545697e-10
5.8314494e-07
-1.6674264e-09
5.8324211e-07
-3.0918468e-09
5.8352612e-07
-4.537493e-09
5.840061e-07
-6.0130411e-09
5.8469749e-07
-7.5269977e-09
5.8562292e-07
-9.0875974e-09
5.8681362e-07
-1.0702659e-08
5.8831146e-07
-1.2379403e-08
5.9017197e-07
-1.4124262e-08
5.9246899e-07
-1.5942457e-08
5.9530101e-07
-1.7836517e-08
5.987974e-07
-1.9809916e-08
6.0312985e-07
-2.1920779e-08
6.0869577e-07
-2.4391182e-08
6.1699092e-07
-2.7113012e-08
6.3076453e-07
-2.7497187e-08
6.4334442e-07
-2.0398907e-08
6.1081842e-07
-6.6328209e-09
4.5520368e-07
1.5962835e-07
4.039518e-09
1.2574081e-07
1.748711e-08
3.9737193e-07
2.7916754e-08
5.9121088e-07
2.965288e-08
6.5447364e-07
2.7150026e-08
6.4636165e-07
2.4482216e-08
6.2810912e-07
2.2321877e-08
6.1665556e-07
2.0368981e-08
6.0961993e-07
1.8488821e-08
6.0437131e-07
1.6668779e-08
6.0014266e-07
1.4910603e-08
5.9670525e-07
1.3212438e-08
5.9390451e-07
1.1570629e-08
5.9161898e-07
9.9805688e-09
5.8975746e-07
8.4368319e-09
5.8825159e-07
6.9333296e-09
5.8704979e-07
5.4634719e-09
5.8611308e-07
4.0203111e-09
5.8541246e-07
2.5966593e-09
5.8492702e-07
1.1851822e-09
5.8464273e-07
-2.2152673e-10
5.8455164e-07
-1.6308815e-09
5.8465146e-07
-3.0502448e-09
5.8494548e-07
-4.486861e-09
5.8544272e-07
-5.947777e-09
5.8615841e-07
-7.4397401e-09
5.8711489e-07
-8.9690712e-09
5.8834295e-07
-1.0541511e-08
5.898839e-07
-1.2162043e-08
5.9179251e-07
-1.3834724e-08
5.9414167e-07
-1.5562242e-08
5.9702853e-07
-1.7344721e-08
6.0057988e-07
-1.9186832e-08
6.0497196e-07
-2.1157128e-08
6.1066606e-07
-2.3456519e-08
6.1929031e-07
-2.5802293e-08
6.331103e-07
-2.5493828e-08
6.4303596e-07
-1.8112204e-08
6.034368e-07
-5.4488554e-09
4.4254033e-07
1.5417949e-07
3.436427e-09
1.2230441e-07
1.5583805e-08
3.852246e-07
2.5888661e-08
5.8090606e-07
2.8290602e-08
6.5207171e-07
2.6244333e-08
6.4840792e-07
2.3742059e-08
6.3061139e-07
2.1690491e-08
6.1870713e-07
1.9853609e-08
6.1145681e-07
1.8082028e-08
6.0614289e-07
1.635509e-08
6.018696e-07
1.4674735e-08
5.983856e-07
1.3040557e-08
5.9553869e-07
1.1450405e-08
5.9320913e-07
9.9012531e-09
5.9130661e-07
8.3892925e-09
5.8976355e-07
6.9100265e-09
5.8852905e-07
5.4584012e-09
5.875647e-07
4.0289396e-09
5.8684192e-07
2.6158634e-09
5.8634009e-07
1.2131994e-09
5.8604539e-07
-1.8512542e-10
5.8594997e-07
-1.5851981e-09
5.8605154e-07
-2.9930358e-09
5.8635332e-07
-4.4144965e-09
5.8686418e-07
-5.855179e-09
5.8759909e-07
-7.3203075e-09
5.8858001e-07
-8.814598e-09
5.8983724e-07
-1.0342113e-08
5.9141141e-07
-1.1906114e-08
5.9335651e-07
-1.3508923e-08
5.9574448e-07
-1.5151489e-08
5.986711e-07
-1.6832702e-08
6.0226109e-07
-1.8560174e-08
6.0669944e-07
-2.041169e-08
6.1251758e-07
-2.255726e-08
6.2143588e-07
-2.4553262e-08
6.351063e-07
-2.3665415e-08
6.4214811e-07
-1.6161093e-08
5.9593247e-07
-4.5418858e-09
4.3092112e-07
1.4963761e-07
2.9966591e-09
1.1930778e-07
1.399472e-08
3.742266e-07
2.40732e-08
5.7082762e-07
2.7012839e-08
6.4913209e-07
2.5389726e-08
6.5003103e-07
2.3042953e-08
6.3295816e-07
2.1079992e-08
6.2067009e-07
1.9339455e-08
6.1319735e-07
1.7662571e-08
6.0781977e-07
1.6019569e-08
6.035126e-07
1.4411378e-08
5.9999379e-07
1.2838354e-08
5.9711171e-07
1.1299291e-08
5.947482e-07
9.7922526e-09
5.9281365e-07
8.3146315e-09
5.9124117e-07
6.8631835e-09
5.899805e-07
5.4341156e-09
5.8899377e-07
4.0231978e-09
5.8825284e-07
2.6258776e-09
5.8773741e-07
1.2373878e-09
5.8743388e-07
-1.4715156e-10
5.8733451e-07
-1.5326357e-09
5.8743702e-07
-2.9238794e-09
5.8774456e-07
-4.3255163e-09
5.8826581e-07
-5.7418917e-09
5.8901546e-07
-7.1769447e-09
5.9001507e-07
-8.6340824e-09
5.9129438e-07
-1.0116056e-08
5.9289338e-07
-1.1624855e-08
5.948653e-07
-1.3161602e-08
5.9728123e-07
-1.4726158e-08
6.0023565e-07
-1.6317151e-08
6.0385209e-07
-1.7946326e-08
6.0832861e-07
-1.9698575e-08
6.1426983e-07
-2.1705286e-08
6.234426e-07
-2.3379418e-08
6.3678044e-07
-2.2013131e-08
6.4078182e-07
-1.450454e-08
5.8842388e-07
-3.852014e-09
4.202686e-07
1.4578559e-07
2.6713758e-09
1.1663645e-07
1.2660112e-08
3.6423794e-07
2.2447627e-08
5.6104017e-07
2.5818238e-08
6.457615e-07
2.458582e-08
6.5126345e-07
2.2387621e-08
6.3515636e-07
2.0497799e-08
6.2255991e-07
1.8836504e-08
6.1485864e-07
1.72414e-08
6.0941488e-07
1.5673322e-08
6.0508068e-07
1.4131247e-08
6.0153587e-07
1.2615767e-08
5.9862719e-07
1.1126203e-08
5.9623776e-07
9.6613224e-09
5.9427853e-07
8.2193778e-09
5.9268312e-07
6.7980826e-09
5.914018e-07
5.3946541e-09
5.903972e-07
4.0058972e-09
5.8964159e-07
2.6283028e-09
5.8911501e-07
1.2581477e-09
5.8880404e-07
-1.0840377e-10
5.8870106e-07
-1.4752017e-09
5.8880382e-07
-2.8460112e-09
5.8911537e-07
-4.2244098e-09
5.8964421e-07
-5.613682e-09
5.9040474e-07
-7.0167095e-09
5.9141809e-07
-8.4358616e-09
5.9271353e-07
-9.8728998e-09
5.9433042e-07
-1.1328916e-08
5.9632132e-07
-1.2804267e-08
5.9875658e-07
-1.4298246e-08
6.0172963e-07
-1.5809999e-08
6.0536384e-07
-1.7356069e-08
6.0987468e-07
-1.9025735e-08
6.1593949e-07
-2.0906102e-08
6.2532296e-07
-2.2285908e-08
6.3816024e-07
-2.0528285e-08
6.390242e-07
-1.310004e-08
5.8099564e-07
-3.3288339e-09
4.1049739e-07
1.4245676e-07
2.4248367e-09
1.1421165e-07
1.1530069e-08
3.551328e-07
2.0988394e-08
5.5158192e-07
2.4701821e-08
6.420481e-07
2.3829451e-08
6.5213581e-07
2.1775363e-08
6.3721044e-07
1.9947454e-08
6.2438782e-07
1.8351047e-08
6.1645505e-07
1.6826134e-08
6.1093979e-07
1.5324532e-08
6.0658228e-07
1.3842564e-08
6.0301784e-07
1.238066e-08
6.0008909e-07
1.0938372e-08
5.9768005e-07
9.5148798e-09
5.9570202e-07
8.1090229e-09
5.9408898e-07
6.7192252e-09
5.9279159e-07
5.3434955e-09
5.9177293e-07
3.9794798e-09
5.9100561e-07
2.6245386e-09
5.9046995e-07
1.2758352e-09
5.9015274e-07
-6.9572037e-11
5.9004647e-07
-1.4146353e-09
5.9014888e-07
-2.7622226e-09
5.9046296e-07
-4.1150203e-09
5.9099701e-07
-5.4754355e-09
5.9176515e-07
-6.8455005e-09
5.9278816e-07
-8.2267846e-09
5.9409482e-07
-9.6203316e-09
5.9572397e-07
-1.102664e-08
5.9772763e-07
-1.2445636e-08
6.0017557e-07
-1.3876447e-08
6.0316044e-07
-1.5319328e-08
6.0680672e-07
-1.679583e-08
6.1135118e-07
-1.83966e-08
6.1754026e-07
-2.0160725e-08
6.2708709e-07
-2.12722e-08
6.3927172e-07
-1.9196844e-08
6.3694884e-07
-1.1907439e-08
5.7370623e-07
-2.9313403e-09
4.0152129e-07
1.3952542e-07
2.2316617e-09
1.1198004e-07
1.0564136e-08
3.4680044e-07
1.967344e-08
5.4247271e-07
2.3657035e-08
6.3806454e-07
2.3116152e-08
6.526767e-07
2.1203491e-08
6.391231e-07
1.9429867e-08
6.2616144e-07
1.7886664e-08
6.1799825e-07
1.6421834e-08
6.1240462e-07
1.4979046e-08
6.0802507e-07
1.3551484e-08
6.044454e-07
1.2139124e-08
6.0150145e-07
1.0741546e-08
5.9907762e-07
9.3581334e-09
5.9708543e-07
7.9880983e-09
5.9545901e-07
6.6303757e-09
5.9414932e-07
5.2835798e-09
5.9311973e-07
3.9460263e-09
5.9234316e-07
2.6157875e-09
5.9180019e-07
1.2907639e-09
5.9147776e-07
-3.1234905e-11
5.9136846e-07
-1.3524056e-09
5.9147005e-07
-2.6748653e-09
5.9178542e-07
-4.0005633e-09
5.9232271e-07
-5.3311969e-09
5.9309578e-07
-6.6681328e-09
5.9412509e-07
-8.0123433e-09
5.9543903e-07
-9.3643767e-09
5.97076e-07
-1.0724376e-08
5.9908763e-07
-1.2092083e-08
6.0154328e-07
-1.3466758e-08
6.0453512e-07
-1.4850195e-08
6.0819016e-07
-1.626879e-08
6.1276978e-07
-1.781146e-08
6.1908293e-07
-1.9467261e-08
6.2874289e-07
-2.0334277e-08
6.4013873e-07
-1.8002572e-08
6.3461714e-07
-1.0890866e-08
5.6659453e-07
-2.6270786e-09
3.932575e-07
1.3689834e-07
2.0743656e-09
1.0990574e-07
9.7302045e-09
3.3914473e-07
1.848323e-08
5.337198e-07
2.2677031e-08
6.3387079e-07
2.2441123e-08
6.5291261e-07
2.0668347e-08
6.4089587e-07
1.8944284e-08
6.278855e-07
1.7445034e-08
6.194975e-07
1.603165e-08
6.13818e-07
1.4640887e-08
6.0941583e-07
1.3262495e-08
6.0582379e-07
1.1895777e-08
6.0286817e-07
1.054021e-08
6.0043319e-07
9.1952325e-09
5.9843041e-07
7.8602757e-09
5.9679397e-07
6.5346259e-09
5.9547496e-07
5.2173483e-09
5.94437e-07
3.9072812e-09
5.9365323e-07
2.6030676e-09
5.931044e-07
1.3032102e-09
5.9277762e-07
6.1380226e-12
5.9266554e-07
-1.2897238e-09
5.9276591e-07
-2.5858743e-09
5.9308157e-07
-3.8836665e-09
5.936205e-07
-5.1842365e-09
5.9439635e-07
-6.4884431e-09
5.954293e-07
-7.7968294e-09
5.9674741e-07
-9.1096236e-09
5.983888e-07
-1.0426791e-08
6.004048e-07
-1.1748066e-08
6.0286455e-07
-1.3073057e-08
6.0586011e-07
-1.4405377e-08
6.0952248e-07
-1.5775819e-08
6.1414022e-07
-1.7268586e-08
6.205757e-07
-1.8822126e-08
6.3029643e-07
-1.9466248e-08
6.4078285e-07
-1.6928962e-08
6.3207985e-07
-1.0019258e-08
5.5968482e-07
-2.3909352e-09
3.8562918e-07
1.3450741e-07
1.9412778e-09
1.0796453e-07
9.0031549e-09
3.32083e-07
1.7401055e-08
5.2532204e-07
2.1755372e-08
6.2951654e-07
2.1799806e-08
6.5286818e-07
2.0165974e-08
6.4252969e-07
1.8488985e-08
6.2956249e-07
1.702656e-08
6.2095993e-07
1.5657354e-08
6.1518721e-07
1.4312698e-08
6.1076049e-07
1.297877e-08
6.0715772e-07
1.1654035e-08
6.0419291e-07
1.0337785e-08
6.0174944e-07
9.0294207e-09
5.9973877e-07
7.728478e-09
5.9809491e-07
6.4344721e-09
5.9676897e-07
5.1467952e-09
5.9572468e-07
3.8646836e-09
5.9493534e-07
2.5872296e-09
5.9438185e-07
1.3134177e-09
5.9405143e-07
4.2176876e-11
5.9393678e-07
-1.2275616e-09
5.9403565e-07
-2.4968024e-09
5.9435081e-07
-3.7664257e-09
5.9489012e-07
-5.0371336e-09
5.9566706e-07
-6.3094095e-09
5.9670158e-07
-7.5835019e-09
5.9802151e-07
-8.8594535e-09
5.9966475e-07
-1.013718e-08
6.0168252e-07
-1.1416524e-08
6.041439e-07
-1.2697599e-08
6.0714118e-07
-1.3985992e-08
6.1081087e-07
-1.5316236e-08
6.1547046e-07
-1.6765058e-08
6.2202452e-07
-1.8220904e-08
6.3175227e-07
-1.8661452e-08
6.412234e-07
-1.5960435e-08
6.2937883e-07
-9.26649e-09
5.5299088e-07
-2.2039375e-09
3.7856663e-07
1.3230347e-07
1.8248574e-09
1.0613976e-07
8.3635007e-09
3.2554454e-07
1.6412904e-08
5.1727281e-07
2.0886355e-08
6.2504317e-07
2.1188166e-08
6.5256638e-07
1.9692517e-08
6.4402533e-07
1.8061769e-08
6.3119323e-07
1.6630825e-08
6.2239087e-07
1.5299756e-08
6.1651828e-07
1.39961e-08
6.1206414e-07
1.2702465e-08
6.0845135e-07
1.1416357e-08
6.0547902e-07
1.0136826e-08
6.0302897e-07
8.863184e-09
6.0101241e-07
7.5949894e-09
5.993631e-07
6.331896e-09
5.9803206e-07
5.0735236e-09
5.9698305e-07
3.8194047e-09
5.9618946e-07
2.5689771e-09
5.9563228e-07
1.3216037e-09
5.952988e-07
7.6609515e-11
5.9518177e-07
-1.1666743e-09
5.9527893e-07
-2.4088618e-09
5.95593e-07
-3.6504673e-09
5.9613173e-07
-4.8918669e-09
5.9690846e-07
-6.1332759e-09
5.9794298e-07
-7.3747542e-09
5.9926298e-07
-8.6162582e-09
6.0090625e-07
-9.8577401e-09
6.02924e-07
-1.1099232e-08
6.0538539e-07
-1.2341447e-08
6.083834e-07
-1.3592008e-08
6.1206143e-07
-1.4888382e-08
6.1676684e-07
-1.6297368e-08
6.2343351e-07
-1.7658946e-08
6.3311385e-07
-1.7913204e-08
6.4147766e-07
-1.5082957e-08
6.2654859e-07
-8.6110472e-09
5.4651897e-07
-2.0520866e-09
3.7200767e-07
1.3025138e-07
1.7203844e-09
1.0441948e-07
7.7961671e-09
3.1946897e-07
1.550716e-08
5.0956202e-07
2.0065109e-08
6.2048533e-07
2.0602802e-08
6.5202871e-07
1.9244442e-08
6.4538368e-07
1.7660258e-08
6.3277741e-07
1.6256923e-08
6.237942e-07
1.495901e-08
6.1781619e-07
1.3691976e-08
6.1333118e-07
1.2434974e-08
6.0970835e-07
1.1184453e-08
6.0672954e-07
9.9391953e-09
6.0427423e-07
8.6983871e-09
6.0225322e-07
7.461562e-09
6.0059993e-07
6.2284435e-09
5.9926518e-07
4.9988023e-09
5.9821269e-07
3.7723843e-09
5.9741588e-07
2.5488867e-09
5.9685578e-07
1.3279625e-09
5.9651973e-07
1.0924353e-10
5.9640049e-07
-1.107629e-09
5.9649581e-07
-2.322969e-09
5.9680834e-07
-3.5370145e-09
5.9734577e-07
-4.7499046e-09
5.9812135e-07
-5.9616726e-09
5.9915475e-07
-7.1722701e-09
6.0047358e-07
-8.381638e-09
6.0211562e-07
-9.5898213e-09
6.0413219e-07
-1.0797085e-08
6.0659265e-07
-1.2004809e-08
6.0959112e-07
-1.3222626e-08
6.1327925e-07
-1.4490046e-08
6.1803426e-07
-1.5861828e-08
6.2480529e-07
-1.7131744e-08
6.3438377e-07
-1.7215225e-08
6.4156114e-07
-1.4284285e-08
6.2361765e-07
-8.0354866e-09
5.4027017e-07
-1.9252822e-09
3.6589746e-07
1.283261e-07
1.6249887e-09
1.027946e-07
7.2894564e-09
3.1380476e-07
1.4674206e-08
5.0217751e-07
1.9287547e-08
6.1587212e-07
2.0040937e-08
6.5127535e-07
1.8818635e-08
6.4660598e-07
1.7282095e-08
6.3431394e-07
1.5903677e-08
6.2517262e-07
1.4634841e-08
6.1908503e-07
1.3400685e-08
6.1456533e-07
1.2177119e-08
6.1093192e-07
1.095946e-08
6.0794719e-07
9.7462015e-09
6.0548749e-07
8.5363933e-09
6.0346303e-07
7.3295105e-09
6.0180681e-07
6.1252982e-09
6.0046939e-07
4.9236192e-09
5.9941437e-07
3.7243671e-09
5.9861513e-07
2.5274276e-09
5.9805272e-07
1.3326707e-09
5.9771449e-07
1.3995947e-10
5.975932e-07
-1.0508304e-09
5.976866e-07
-2.2397884e-09
5.9799729e-07
-3.4269509e-09
5.9853294e-07
-4.6122913e-09
5.9930669e-07
-5.7957281e-09
6.0033819e-07
-6.9771643e-09
6.0165502e-07
-8.1565735e-09
6.0329503e-07
-9.3341256e-09
6.0530974e-07
-1.0510343e-08
6.0776887e-07
-1.1687309e-08
6.1076809e-07
-1.2876575e-08
6.1446851e-07
-1.4118761e-08
6.1927644e-07
-1.5454839e-08
6.2614137e-07
-1.6635161e-08
6.3556409e-07
-1.6561878e-08
6.4148786e-07
-1.3553963e-08
6.2060973e-07
-7.5258259e-09
5.3424203e-07
-1.8163917e-09
3.6018803e-07
1.2650971e-07
1.5369615e-09
1.0125778e-07
6.8342151e-09
3.085078e-07
1.3906047e-08
4.9510597e-07
1.855026e-08
6.1122807e-07
1.9500355e-08
6.5032529e-07
1.8412423e-08
6.476939e-07
1.6925051e-08
6.358013e-07
1.5569787e-08
6.2652788e-07
1.4326705e-08
6.2032811e-07
1.3122227e-08
6.1576981e-07
1.1929305e-08
6.1212484e-07
1.0742077e-08