/*--------------------------------*- C++ -*----------------------------------*\
  =========                 |
  \\      /  F ield         | OpenFOAM: The Open Source CFD Toolbox
   \\    /   O peration     | Website:  https://openfoam.org
    \\  /    A nd           | Version:  10
     \\/     M anipulation  |
\*---------------------------------------------------------------------------*/
FoamFile
{
    format      ascii;
    class       volScalarField;
    location    "0.26";
    object      T;
}
// * * * * * * * * * * * * * * * * * * * * * * * * * * * * * * * * * * * * * //

dimensions      [0 0 0 1 0 0 0];

internalField   nonuniform List<scalar> 
4000
(
303.10135
299.3429
299.99042
300.00082
299.99993
300
300
300
300
300
300
300
300
300
300
300
300
300
300
300
300
300
300
300
300
300
300
300
300
300
300
300
300
300
300
300
300
300
300
300
309.66347
298.49296
299.77921
300.00184
300.0008
299.99999
300
300
300
300
300
300
300
300
300
300
300
300
300
300
300
300
300
300
300
300
300
300
300
300
300
300
300
300
300
300
300
300
300
300
316.00432
298.68457
299.39219
299.9757
300.00406
300.00025
299.99999
300
300
300
300
300
300
300
300
300
300
300
300
300
300
300
300
300
300
300
300
300
300
300
300
300
300
300
300
300
300
300
300
300
321.74242
299.84596
298.98477
299.89491
300.00716
300.00139
300
299.99999
300
300
300
300
300
300
300
300
300
300
300
300
300
300
300
300
300
300
300
300
300
300
300
300
300
300
300
300
300
300
300
300
326.67132
301.7006
298.70996
299.75311
300.00323
300.00379
300.00017
299.99998
300
300
300
300
300
300
300
300
300
300
300
300
300
300
300
300
300
300
300
300
300
300
300
300
300
300
300
300
300
300
300
300
330.68537
303.94824
298.66324
299.56827
299.98427
300.00697
300.00072
299.99997
299.99999
300
300
300
300
300
300
300
300
300
300
300
300
300
300
300
300
300
300
300
300
300
300
300
300
300
300
300
300
300
300
300
333.7748
306.33115
298.87089
299.37364
299.94516
300.00939
300.00181
300
299.99998
300
300
300
300
300
300
300
300
300
300
300
300
300
300
300
300
300
300
300
300
300
300
300
300
300
300
300
300
300
300
300
336.02238
308.66479
299.30783
299.20375
299.88577
300.00891
300.00346
300.00014
299.99997
300
300
300
300
300
300
300
300
300
300
300
300
300
300
300
300
300
300
300
300
300
300
300
300
300
300
300
300
300
300
300
337.57466
310.83833
299.92432
299.08453
299.81046
300.00352
300.00542
300.00046
299.99996
299.99999
300
300
300
300
300
300
300
300
300
300
300
300
300
300
300
300
300
300
300
300
300
300
300
300
300
300
300
300
300
300
338.60298
312.79904
300.66583
299.03047
299.72628
299.99192
300.00725
300.001
299.99996
299.99998
300
300
300
300
300
300
300
300
300
300
300
300
300
300
300
300
300
300
300
300
300
300
300
300
300
300
300
300
300
300
339.27007
314.53401
301.48374
299.04598
299.64095
299.97368
300.00841
300.00176
300.00001
299.99997
300
300
300
300
300
300
300
300
300
300
300
300
300
300
300
300
300
300
300
300
300
300
300
300
300
300
300
300
300
300
339.70924
316.05452
302.33966
299.12839
299.56151
299.94924
300.00835
300.00269
300.00012
299.99996
300
300
300
300
300
300
300
300
300
300
300
300
300
300
300
300
300
300
300
300
300
300
300
300
300
300
300
300
300
300
340.01711
317.38402
303.20598
299.27102
299.49354
299.91971
300.00662
300.00368
300.0003
299.99996
299.99999
300
300
300
300
300
300
300
300
300
300
300
300
300
300
300
300
300
300
300
300
300
300
300
300
300
300
300
300
300
340.25635
318.55001
304.0643
299.46547
299.44101
299.88652
300.00294
300.00462
300.00057
299.99996
299.99999
300
300
300
300
300
300
300
300
300
300
300
300
300
300
300
300
300
300
300
300
300
300
300
300
300
300
300
300
300
340.46341
319.57933
304.90327
299.7032
299.40637
299.8513
299.99715
300.00535
300.0009
299.99998
299.99998
300
300
300
300
300
300
300
300
300
300
300
300
300
300
300
300
300
300
300
300
300
300
300
300
300
300
300
300
300
340.65705
320.49583
305.71652
299.97628
299.39088
299.81562
299.98928
300.00575
300.0013
300.00003
299.99998
300
300
300
300
300
300
300
300
300
300
300
300
300
300
300
300
300
300
300
300
300
300
300
300
300
300
300
300
300
340.8453
321.31956
306.50098
300.27779
299.39489
299.78095
299.97946
300.00568
300.00174
300.0001
299.99997
300
300
300
300
300
300
300
300
300
300
300
300
300
300
300
300
300
300
300
300
300
300
300
300
300
300
300
300
300
341.03049
322.06674
307.25562
300.60183
299.41814
299.74858
299.96791
300.00505
300.00218
300.00019
299.99997
299.99999
300
300
300
300
300
300
300
300
300
300
300
300
300
300
300
300
300
300
300
300
300
300
300
300
300
300
300
300
341.21228
322.75021
307.98061
300.94349
299.45995
299.71961
299.95494
300.00378
300.00259
300.00031
299.99998
299.99999
300
300
300
300
300
300
300
300
300
300
300
300
300
300
300
300
300
300
300
300
300
300
300
300
300
300
300
300
341.38943
323.37997
308.67673
301.2987
299.51939
299.69493
299.94088
300.00182
300.00293
300.00046
299.99999
299.99999
300
300
300
300
300
300
300
300
300
300
300
300
300
300
300
300
300
300
300
300
300
300
300
300
300
300
300
300
341.56065
323.96379
309.34511
301.66408
299.59538
299.67527
299.9261
299.99915
300.00316
300.00063
300.00001
299.99999
300
300
300
300
300
300
300
300
300
300
300
300
300
300
300
300
300
300
300
300
300
300
300
300
300
300
300
300
341.72497
324.50774
309.98694
302.03686
299.68675
299.66118
299.91097
299.99578
300.00326
300.00081
300.00004
299.99998
300
300
300
300
300
300
300
300
300
300
300
300
300
300
300
300
300
300
300
300
300
300
300
300
300
300
300
300
341.88181
325.01659
310.60346
302.41469
299.79235
299.65309
299.89585
299.99174
300.00318
300.00099
300.00007
299.99998
300
300
300
300
300
300
300
300
300
300
300
300
300
300
300
300
300
300
300
300
300
300
300
300
300
300
300
300
342.03095
325.49418
311.19585
302.79565
299.91099
299.65128
299.88109
299.98708
300.0029
300.00117
300.00012
299.99999
300
300
300
300
300
300
300
300
300
300
300
300
300
300
300
300
300
300
300
300
300
300
300
300
300
300
300
300
342.17245
325.94364
311.76524
303.1781
300.04155
299.65595
299.86702
299.98186
300.0024
300.00133
300.00017
299.99999
299.99999
300
300
300
300
300
300
300
300
300
300
300
300
300
300
300
300
300
300
300
300
300
300
300
300
300
300
300
342.30656
326.36761
312.31271
303.56068
300.18294
299.66719
299.85396
299.97616
300.00166
300.00147
300.00024
300
299.99999
300
300
300
300
300
300
300
300
300
300
300
300
300
300
300
300
300
300
300
300
300
300
300
300
300
300
300
342.43366
326.76837
312.83929
303.94225
300.33412
299.68503
299.84219
299.97008
300.00067
300.00157
300.0003
300.00001
299.99999
300
300
300
300
300
300
300
300
300
300
300
300
300
300
300
300
300
300
300
300
300
300
300
300
300
300
300
342.55418
327.14788
313.34596
304.32184
300.49411
299.70942
299.83196
299.9637
299.99943
300.00162
300.00038
300.00002
299.99999
300
300
300
300
300
300
300
300
300
300
300
300
300
300
300
300
300
300
300
300
300
300
300
300
300
300
300
342.66859
327.5079
313.83365
304.69864
300.66198
299.74028
299.82351
299.95713
299.99793
300.00161
300.00045
300.00003
299.99999
300
300
300
300
300
300
300
300
300
300
300
300
300
300
300
300
300
300
300
300
300
300
300
300
300
300
300
342.77734
327.84998
314.30328
305.07201
300.83688
299.77747
299.81704
299.95048
299.99619
300.00154
300.00052
300.00005
299.99999
300
300
300
300
300
300
300
300
300
300
300
300
300
300
300
300
300
300
300
300
300
300
300
300
300
300
300
342.88085
328.17553
314.75569
305.44137
301.018
299.82082
299.81273
299.94385
299.99422
300.00139
300.00059
300.00008
300
300
300
300
300
300
300
300
300
300
300
300
300
300
300
300
300
300
300
300
300
300
300
300
300
300
300
300
342.97953
328.48581
315.19173
305.80628
301.20459
299.87013
299.81071
299.93736
299.99202
300.00116
300.00065
300.0001
300
300
300
300
300
300
300
300
300
300
300
300
300
300
300
300
300
300
300
300
300
300
300
300
300
300
300
300
343.07374
328.78197
315.61217
306.16636
301.39596
299.92521
299.81113
299.9311
299.98964
300.00084
300.0007
300.00013
300
300
300
300
300
300
300
300
300
300
300
300
300
300
300
300
300
300
300
300
300
300
300
300
300
300
300
300
343.16382
329.06504
316.01778
306.52133
301.59148
299.9858
299.81407
299.92518
299.98707
300.00042
300.00073
300.00015
300.00001
300
300
300
300
300
300
300
300
300
300
300
300
300
300
300
300
300
300
300
300
300
300
300
300
300
300
300
343.25005
329.33595
316.40927
306.87096
301.79055
300.05168
299.81963
299.9197
299.98437
299.99992
300.00074
300.00018
300.00001
300
300
300
300
300
300
300
300
300
300
300
300
300
300
300
300
300
300
300
300
300
300
300
300
300
300
300
343.33272
329.59554
316.78732
307.21505
301.99264
300.1226
299.82786
299.91475
299.98155
299.99931
300.00073
300.00021
300.00002
300
300
300
300
300
300
300
300
300
300
300
300
300
300
300
300
300
300
300
300
300
300
300
300
300
300
300
343.41205
329.84457
317.15259
307.55349
302.19725
300.19831
299.8388
299.91043
299.97864
299.99862
300.0007
300.00024
300.00003
300
300
300
300
300
300
300
300
300
300
300
300
300
300
300
300
300
300
300
300
300
300
300
300
300
300
300
343.48826
330.08372
317.50567
307.88617
302.40391
300.27855
299.85249
299.90681
299.97569
299.99782
300.00064
300.00026
300.00004
300
300
300
300
300
300
300
300
300
300
300
300
300
300
300
300
300
300
300
300
300
300
300
300
300
300
300
343.56154
330.3136
317.84714
308.21302
302.61221
300.36308
299.86893
299.90399
299.97272
299.99694
300.00055
300.00028
300.00005
300
300
300
300
300
300
300
300
300
300
300
300
300
300
300
300
300
300
300
300
300
300
300
300
300
300
300
343.63206
330.53478
318.17754
308.53402
302.82177
300.45163
299.88813
299.90202
299.96978
299.99597
300.00043
300.0003
300.00006
300
300
300
300
300
300
300
300
300
300
300
300
300
300
300
300
300
300
300
300
300
300
300
300
300
300
300
343.69997
330.74776
318.49737
308.84914
303.03222
300.54398
299.91007
299.90098
299.96691
299.99493
300.00027
300.00031
300.00007
300
300
300
300
300
300
300
300
300
300
300
300
300
300
300
300
300
300
300
300
300
300
300
300
300
300
300
343.76541
330.953
318.8071
309.15839
303.24324
300.63988
299.93472
299.90093
299.96413
299.99381
300.00008
300.00032
300.00008
300.00001
300
300
300
300
300
300
300
300
300
300
300
300
300
300
300
300
300
300
300
300
300
300
300
300
300
300
343.82851
331.15089
319.10717
309.46178
303.45453
300.73908
299.96206
299.90193
299.96149
299.99263
299.99985
300.00032
300.00009
300.00001
300
300
300
300
300
300
300
300
300
300
300
300
300
300
300
300
300
300
300
300
300
300
300
300
300
300
343.88936
331.34182
319.39798
309.75935
303.66582
300.84136
299.99204
299.90401
299.95902
299.9914
299.99958
300.0003
300.0001
300.00001
300
300
300
300
300
300
300
300
300
300
300
300
300
300
300
300
300
300
300
300
300
300
300
300
300
300
343.94807
331.52612
319.67991
310.05112
303.87686
300.9465
300.02461
299.90724
299.95677
299.99013
299.99927
300.00028
300.00011
300.00002
300
300
300
300
300
300
300
300
300
300
300
300
300
300
300
300
300
300
300
300
300
300
300
300
300
300
344.00473
331.70409
319.95332
310.33714
304.0874
301.05428
300.05972
299.91163
299.95476
299.98883
299.99893
300.00025
300.00012
300.00002
300
300
300
300
300
300
300
300
300
300
300
300
300
300
300
300
300
300
300
300
300
300
300
300
300
300
344.05942
331.876
320.21853
310.61747
304.29725
301.16448
300.09731
299.91724
299.95303
299.9875
299.99855
300.0002
300.00012
300.00002
300
300
300
300
300
300
300
300
300
300
300
300
300
300
300
300
300
300
300
300
300
300
300
300
300
300
344.1122
332.0421
320.47584
310.89214
304.50618
301.2769
300.1373
299.92407
299.95162
299.98618
299.99814
300.00015
300.00013
300.00003
300
300
300
300
300
300
300
300
300
300
300
300
300
300
300
300
300
300
300
300
300
300
300
300
300
300
344.16313
332.20261
320.72551
311.16121
304.71403
301.39133
300.17962
299.93216
299.95056
299.98486
299.99769
300.00008
300.00013
300.00003
300
300
300
300
300
300
300
300
300
300
300
300
300
300
300
300
300
300
300
300
300
300
300
300
300
300
344.21227
332.35772
320.96781
311.42474
304.92061
301.50759
300.22421
299.94152
299.94988
299.98357
299.99722
299.99999
300.00013
300.00004
300
300
300
300
300
300
300
300
300
300
300
300
300
300
300
300
300
300
300
300
300
300
300
300
300
300
344.25965
332.50761
321.20296
311.68277
305.12577
301.62549
300.27098
299.95217
299.94961
299.98232
299.99671
299.99989
300.00012
300.00004
300.00001
300
300
300
300
300
300
300
300
300
300
300
300
300
300
300
300
300
300
300
300
300
300
300
300
300
344.30533
332.65243
321.43116
311.93535
305.32936
301.74484
300.31985
299.9641
299.94977
299.98111
299.99618
299.99978
300.00012
300.00004
300.00001
300
300
300
300
300
300
300
300
300
300
300
300
300
300
300
300
300
300
300
300
300
300
300
300
300
344.34932
332.79231
321.6526
312.18253
305.53123
301.86546
300.37073
299.97732
299.9504
299.97998
299.99563
299.99965
300.00011
300.00005
300.00001
300
300
300
300
300
300
300
300
300
300
300
300
300
300
300
300
300
300
300
300
300
300
300
300
300
344.39166
332.92736
321.86745
312.42434
305.73126
301.98718
300.42353
299.99183
299.95151
299.97893
299.99507
299.9995
300.00009
300.00005
300.00001
300
300
300
300
300
300
300
300
300
300
300
300
300
300
300
300
300
300
300
300
300
300
300
300
300
344.43235
333.05767
322.07585
312.66083
305.9293
302.10984
300.47818
300.00763
299.95314
299.97798
299.99449
299.99935
300.00007
300.00005
300.00001
300
300
300
300
300
300
300
300
300
300
300
300
300
300
300
300
300
300
300
300
300
300
300
300
300
344.4714
333.18332
322.27792
312.89201
306.12524
302.23327
300.53457
300.0247
299.95529
299.97714
299.9939
299.99917
300.00004
300.00005
300.00001
300
300
300
300
300
300
300
300
300
300
300
300
300
300
300
300
300
300
300
300
300
300
300
300
300
344.50882
333.30436
322.47377
313.11791
306.31896
302.35731
300.59261
300.04303
299.958
299.97642
299.99332
299.99899
300.00001
300.00005
300.00001
300
300
300
300
300
300
300
300
300
300
300
300
300
300
300
300
300
300
300
300
300
300
300
300
300
344.5446
333.42083
322.66349
313.33855
306.51034
302.4818
300.6522
300.06261
299.96127
299.97585
299.99273
299.99879
299.99998
300.00005
300.00001
300
300
300
300
300
300
300
300
300
300
300
300
300
300
300
300
300
300
300
300
300
300
300
300
300
344.57873
333.53275
322.84713
313.55393
306.69928
302.60658
300.71326
300.0834
299.96511
299.97544
299.99216
299.99858
299.99994
300.00005
300.00002
300
300
300
300
300
300
300
300
300
300
300
300
300
300
300
300
300
300
300
300
300
300
300
300
300
344.61119
333.6401
323.02474
313.76405
306.88565
302.73152
300.77568
300.1054
299.96955
299.9752
299.9916
299.99835
299.99989
300.00004
300.00002
300
300
300
300
300
300
300
300
300
300
300
300
300
300
300
300
300
300
300
300
300
300
300
300
300
344.64197
333.74288
323.19636
313.9689
307.06936
302.85645
300.83936
300.12857
299.97459
299.97513
299.99106
299.99812
299.99983
300.00004
300.00002
300
300
300
300
300
300
300
300
300
300
300
300
300
300
300
300
300
300
300
300
300
300
300
300
300
344.67104
333.84105
323.36197
314.16846
307.25028
302.98122
300.90421
300.15287
299.98024
299.97527
299.99054
299.99788
299.99977
300.00003
300.00002
300
300
300
300
300
300
300
300
300
300
300
300
300
300
300
300
300
300
300
300
300
300
300
300
300
344.69837
333.93456
323.52157
314.36268
307.42831
303.10571
300.97011
300.17829
299.9865
299.97561
299.99006
299.99764
299.99971
300.00002
300.00002
300
300
300
300
300
300
300
300
300
300
300
300
300
300
300
300
300
300
300
300
300
300
300
300
300
344.72394
334.02334
323.67511
314.55153
307.60333
303.22975
301.03697
300.20477
299.99338
299.97618
299.98962
299.99738
299.99964
300.00001
300.00002
300.00001
300
300
300
300
300
300
300
300
300
300
300
300
300
300
300
300
300
300
300
300
300
300
300
300
344.74771
334.10731
323.82255
314.73495
307.77523
303.3532
301.10469
300.23228
300.00087
299.97697
299.98923
299.99713
299.99956
300
300.00002
300.00001
300
300
300
300
300
300
300
300
300
300
300
300
300
300
300
300
300
300
300
300
300
300
300
300
344.76967
334.1864
323.9638
314.91285
307.94389
303.47593
301.17315
300.26078
300.00899
299.978
299.98888
299.99688
299.99948
299.99998
300.00002
300.00001
300
300
300
300
300
300
300
300
300
300
300
300
300
300
300
300
300
300
300
300
300
300
300
300
344.78978
334.2605
324.09877
315.08517
308.10918
303.59778
301.24225
300.29022
300.01772
299.97928
299.9886
299.99662
299.99939
299.99996
300.00002
300.00001
300
300
300
300
300
300
300
300
300
300
300
300
300
300
300
300
300
300
300
300
300
300
300
300
344.80804
334.32953
324.22735
315.2518
308.27097
303.71861
301.31187
300.32056
300.02706
299.98082
299.98838
299.99637
299.9993
299.99994
300.00001
300.00001
300
300
300
300
300
300
300
300
300
300
300
300
300
300
300
300
300
300
300
300
300
300
300
300
344.82445
334.39342
324.34943
315.41262
308.42914
303.83828
301.38192
300.35174
300.037
299.98262
299.98823
299.99613
299.99921
299.99992
300.00001
300.00001
300
300
300
300
300
300
300
300
300
300
300
300
300
300
300
300
300
300
300
300
300
300
300
300
344.83901
334.45209
324.46486
315.5675
308.58353
303.95663
301.45228
300.38371
300.04753
299.9847
299.98816
299.99589
299.99911
299.9999
300.00001
300.00001
300
300
300
300
300
300
300
300
300
300
300
300
300
300
300
300
300
300
300
300
300
300
300
300
344.85176
334.50549
324.57351
315.71632
308.73401
304.07352
301.52282
300.41641
300.05864
299.98704
299.98817
299.99567
299.99901
299.99987
300
300.00001
300
300
300
300
300
300
300
300
300
300
300
300
300
300
300
300
300
300
300
300
300
300
300
300
344.86271
334.5536
324.67525
315.85891
308.88043
304.18881
301.59345
300.44979
300.07031
299.98967
299.98827
299.99546
299.9989
299.99984
300
300.00001
300
300
300
300
300
300
300
300
300
300
300
300
300
300
300
300
300
300
300
300
300
300
300
300
344.87195
334.59644
324.76995
315.99512
309.02261
304.30233
301.66405
300.48378
300.08254
299.99258
299.98846
299.99527
299.9988
299.99981
299.99999
300.00001
300
300
300
300
300
300
300
300
300
300
300
300
300
300
300
300
300
300
300
300
300
300
300
300
344.87953
334.63407
324.85751
316.12478
309.16041
304.41393
301.73449
300.51833
300.09529
299.99577
299.98875
299.99509
299.99869
299.99978
299.99999
300.00001
300
300
300
300
300
300
300
300
300
300
300
300
300
300
300
300
300
300
300
300
300
300
300
300
344.88556
334.66659
324.93785
316.24773
309.29366
304.52346
301.80466
300.55337
300.10856
299.99924
299.98914
299.99494
299.99858
299.99974
299.99998
300
300
300
300
300
300
300
300
300
300
300
300
300
300
300
300
300
300
300
300
300
300
300
300
300
344.89014
334.69416
325.01092
316.36382
309.42217
304.63077
301.87444
300.58883
300.12231
300.003
299.98964
299.99482
299.99848
299.99971
299.99997
300
300
300
300
300
300
300
300
300
300
300
300
300
300
300
300
300
300
300
300
300
300
300
300
300
344.89341
334.71699
325.07673
316.4729
309.5458
304.73569
301.94371
300.62464
300.13652
300.00704
299.99026
299.99472
299.99837
299.99967
299.99996
300
300
300
300
300
300
300
300
300
300
300
300
300
300
300
300
300
300
300
300
300
300
300
300
300
344.8955
334.73536
325.13535
316.57486
309.66436
304.83808
302.01236
300.66074
300.15117
300.01136
299.99098
299.99464
299.99827
299.99963
299.99995
300
300
300
300
300
300
300
300
300
300
300
300
300
300
300
300
300
300
300
300
300
300
300
300
300
344.89657
334.74957
325.1869
316.66959
309.77771
304.93779
302.08026
300.69705
300.16623
300.01595
299.99182
299.99461
299.99818
299.99959
299.99994
300
300
300
300
300
300
300
300
300
300
300
300
300
300
300
300
300
300
300
300
300
300
300
300
300
344.89677
334.76002
325.23159
316.75705
309.88569
305.03466
302.1473
300.73351
300.18167
300.02081
299.99278
299.9946
299.99808
299.99955
299.99993
300
300
300
300
300
300
300
300
300
300
300
300
300
300
300
300
300
300
300
300
300
300
300
300
300
344.89627
334.76711
325.2697
316.83724
309.9882
305.12855
302.21336
300.77004
300.19746
300.02593
299.99386
299.99463
299.998
299.9995
299.99992
299.99999
300
300
300
300
300
300
300
300
300
300
300
300
300
300
300
300
300
300
300
300
300
300
300
300
344.89522
334.7713
325.30159
316.91022
310.08512
305.21935
302.27834
300.80658
300.21357
300.03131
299.99506
299.99471
299.99792
299.99946
299.99991
299.99999
300
300
300
300
300
300
300
300
300
300
300
300
300
300
300
300
300
300
300
300
300
300
300
300
344.89379
334.77307
325.32772
316.97613
310.17639
305.30692
302.34213
300.84306
300.22996
300.03694
299.99639
299.99482
299.99785
299.99942
299.99989
299.99999
300
300
300
300
300
300
300
300
300
300
300
300
300
300
300
300
300
300
300
300
300
300
300
300
344.8921
334.77289
325.3486
317.03516
310.26199
305.39118
302.40463
300.8794
300.24661
300.0428
299.99784
299.99497
299.99779
299.99938
299.99988
299.99999
300
300
300
300
300
300
300
300
300
300
300
300
300
300
300
300
300
300
300
300
300
300
300
300
344.8903
334.77125
325.36483
317.0876
310.34193
305.47203
302.46576
300.91555
300.26348
300.04888
299.99941
299.99517
299.99774
299.99933
299.99986
299.99998
300
300
300
300
300
300
300
300
300
300
300
300
300
300
300
300
300
300
300
300
300
300
300
300
344.88848
334.76862
325.37704
317.13383
310.41629
305.54943
302.52542
300.95143
300.28054
300.05519
300.0011
299.99542
299.9977
299.99929
299.99985
299.99998
300
300
300
300
300
300
300
300
300
300
300
300
300
300
300
300
300
300
300
300
300
300
300
300
344.88673
334.76541
325.38591
317.17427
310.48519
305.62334
302.58356
300.98701
300.29776
300.0617
300.00291
299.99571
299.99767
299.99925
299.99983
299.99997
300
300
300
300
300
300
300
300
300
300
300
300
300
300
300
300
300
300
300
300
300
300
300
300
344.88511
334.76199
325.39214
317.20946
310.54881
305.69375
302.64011
301.02221
300.3151
300.0684
300.00485
299.99605
299.99766
299.99922
299.99982
299.99997
300
300
300
300
300
300
300
300
300
300
300
300
300
300
300
300
300
300
300
300
300
300
300
300
344.88364
334.75868
325.39642
317.23997
310.60739
305.76071
302.69504
301.05699
300.33254
300.07528
300.00689
299.99644
299.99766
299.99918
299.9998
299.99997
300
300
300
300
300
300
300
300
300
300
300
300
300
300
300
300
300
300
300
300
300
300
300
300
344.88235
334.75572
325.39938
317.26642
310.66123
305.82426
302.7483
301.09132
300.35004
300.08233
300.00906
299.99688
299.99767
299.99915
299.99978
299.99996
300
300
300
300
300
300
300
300
300
300
300
300
300
300
300
300
300
300
300
300
300
300
300
300
344.88122
334.75326
325.40164
317.28946
310.71068
305.88451
302.79989
301.12514
300.36759
300.08954
300.01133
299.99737
299.9977
299.99912
299.99977
299.99995
299.99999
300
300
300
300
300
300
300
300
300
300
300
300
300
300
300
300
300
300
300
300
300
300
300
344.8802
334.75137
325.40371
317.30976
310.75612
305.94157
302.8498
301.15844
300.38515
300.0969
300.01371
299.99791
299.99775
299.99909
299.99975
299.99995
299.99999
300
300
300
300
300
300
300
300
300
300
300
300
300
300
300
300
300
300
300
300
300
300
300
344.87925
334.75005
325.40599
317.32797
310.79799
305.99562
302.89807
301.19118
300.40269
300.10439
300.0162
299.9985
299.99781
299.99907
299.99973
299.99994
299.99999
300
300
300
300
300
300
300
300
300
300
300
300
300
300
300
300
300
300
300
300
300
300
300
344.8783
334.74923
325.40881
317.34468
310.83672
306.04682
302.94471
301.22335
300.42021
300.112
300.01879
299.99914
299.99789
299.99905
299.99972
299.99994
299.99999
300
300
300
300
300
300
300
300
300
300
300
300
300
300
300
300
300
300
300
300
300
300
300
344.87728
334.74876
325.41235
317.36044
310.87278
306.09538
302.98977
301.25493
300.43768
300.11972
300.02148
299.99983
299.99799
299.99904
299.9997
299.99993
299.99999
300
300
300
300
300
300
300
300
300
300
300
300
300
300
300
300
300
300
300
300
300
300
300
344.87613
334.74847
325.41667
317.37574
310.90663
306.14156
303.03334
301.28595
300.4551
300.12755
300.02426
300.00057
299.99811
299.99903
299.99969
299.99993
299.99999
300
300
300
300
300
300
300
300
300
300
300
300
300
300
300
300
300
300
300
300
300
300
300
344.87476
334.74808
325.42166
317.39085
310.93856
306.18539
303.0753
301.31625
300.47235
300.13542
300.02712
300.00136
299.99824
299.99902
299.99967
299.99992
299.99999
300
300
300
300
300
300
300
300
300
300
300
300
300
300
300
300
300
300
300
300
300
300
300
344.87325
334.7476
325.42743
317.40647
310.96969
306.2281
303.11674
301.34664
300.48994
300.1436
300.03016
300.00222
299.9984
299.99902
299.99966
299.99991
299.99998
300
300
300
300
300
300
300
300
300
300
300
300
300
300
300
300
300
300
300
300
300
300
300
344.8712
334.74615
325.43261
317.42041
310.99641
306.26462
303.15237
301.37293
300.50525
300.15076
300.03284
300.003
299.99855
299.99903
299.99965
299.99991
299.99998
300
300
300
300
300
300
300
300
300
300
300
300
300
300
300
300
300
300
300
300
300
300
300
344.87023
334.74533
325.44226
317.44512
311.04022
306.32353
303.21074
301.41703
300.53159
300.16344
300.03776
300.00449
299.99887
299.99905
299.99963
299.9999
299.99998
300
300
300
300
300
300
300
300
300
300
300
300
300
300
300
300
300
300
300
300
300
300
300
)
;

boundaryField
{
    wall
    {
        type            fixedValue;
        value           uniform 350;
    }
    sides
    {
        type            zeroGradient;
    }
    frontAndBack
    {
        type            empty;
    }
    inlet
    {
        type            fixedValue;
        value           uniform 300;
    }
    outlet
    {
        type            zeroGradient;
    }
}


// ************************************************************************* //
