/*--------------------------------*- C++ -*----------------------------------*\
  =========                 |
  \\      /  F ield         | OpenFOAM: The Open Source CFD Toolbox
   \\    /   O peration     | Website:  https://openfoam.org
    \\  /    A nd           | Version:  10
     \\/     M anipulation  |
\*---------------------------------------------------------------------------*/
FoamFile
{
    format      ascii;
    class       volVectorField;
    location    "0.26";
    object      U;
}
// * * * * * * * * * * * * * * * * * * * * * * * * * * * * * * * * * * * * * //

dimensions      [0 1 -1 0 0 0 0];

internalField   nonuniform List<vector> 
4000
(
(0 0.01863746 0.47773156)
(0 0.023510008 0.50886061)
(0 0.0081668613 0.50052521)
(0 0.0056146213 0.50033634)
(0 0.0042546358 0.50025746)
(0 0.0032549515 0.50016898)
(0 0.0025560969 0.50011969)
(0 0.0020545876 0.50009013)
(0 0.0016765843 0.50006981)
(0 0.0013822439 0.50005539)
(0 0.0011471939 0.50004499)
(0 0.00095509563 0.50003733)
(0 0.00079469481 0.5000316)
(0 0.00065801581 0.50002727)
(0 0.00053923037 0.50002399)
(0 0.00043395793 0.50002151)
(0 0.00033881108 0.50001967)
(0 0.00025108797 0.50001834)
(0 0.00016855602 0.50001744)
(0 8.929335e-05 0.50001694)
(0 1.1566617e-05 0.50001679)
(0 -6.6276113e-05 0.50001699)
(0 -0.00014589708 0.50001755)
(0 -0.00022906072 0.5000185)
(0 -0.00031774446 0.50001991)
(0 -0.0004142694 0.50002185)
(0 -0.00052147189 0.50002446)
(0 -0.00064294312 0.50002793)
(0 -0.00078337669 0.50003252)
(0 -0.00094909861 0.50003863)
(0 -0.0011489184 0.50004688)
(0 -0.0013954942 0.50005824)
(0 -0.0017075723 0.50007414)
(0 -0.0021155014 0.50009709)
(0 -0.0026751954 0.50013481)
(0 -0.0034687635 0.50020237)
(0 -0.0045609825 0.50027143)
(0 -0.0065851671 0.50043364)
(0 -0.0176596 0.50675407)
(0 -0.013590197 0.4797556)
(0 0.037432697 0.44796925)
(0 0.050955772 0.53232616)
(0 0.021969349 0.5080429)
(0 0.016135672 0.50357319)
(0 0.012416114 0.50242316)
(0 0.0095159851 0.501623)
(0 0.0075206499 0.50115662)
(0 0.0060699186 0.50086594)
(0 0.0049645935 0.50066802)
(0 0.0041001421 0.50052902)
(0 0.0034076144 0.50042905)
(0 0.0028400628 0.50035555)
(0 0.002365114 0.50030066)
(0 0.0019596842 0.50025927)
(0 0.0016068135 0.50022792)
(0 0.0012937069 0.50020426)
(0 0.0010104398 0.50018666)
(0 0.00074907463 0.50017398)
(0 0.00050303757 0.50016547)
(0 0.00026665951 0.50016064)
(0 3.4820255e-05 0.50015921)
(0 -0.00019735914 0.50016111)
(0 -0.00043478759 0.50016646)
(0 -0.00068267502 0.50017556)
(0 -0.00094685134 0.50018897)
(0 -0.0012341454 0.50020753)
(0 -0.0015528809 0.50023246)
(0 -0.0019135637 0.50026558)
(0 -0.0023298744 0.50030949)
(0 -0.0028201522 0.5003681)
(0 -0.003409772 0.50044735)
(0 -0.0041351093 0.5005567)
(0 -0.0050492421 0.50071125)
(0 -0.0062320351 0.5009366)
(0 -0.0078323716 0.50129436)
(0 -0.010126038 0.5019105)
(0 -0.013107139 0.50282507)
(0 -0.017426529 0.50608115)
(0 -0.03875928 0.52526813)
(0 -0.027894786 0.45021631)
(0 0.039888301 0.40982051)
(0 0.061428199 0.54930815)
(0 0.03198384 0.52188197)
(0 0.024355592 0.51008056)
(0 0.019193729 0.50658858)
(0 0.014977266 0.5045281)
(0 0.012006835 0.50327142)
(0 0.009772028 0.50245842)
(0 0.0080366053 0.50190111)
(0 0.006664921 0.50150874)
(0 0.0055567544 0.50122553)
(0 0.0046425719 0.50101678)
(0 0.0038736356 0.50086064)
(0 0.0032145503 0.50074273)
(0 0.0026389821 0.50065334)
(0 0.0021268783 0.50058583)
(0 0.0016625624 0.50053557)
(0 0.0012334151 0.50049936)
(0 0.00082892984 0.50047504)
(0 0.00044000821 0.50046121)
(0 5.8409444e-05 0.50045712)
(0 -0.00032372729 0.50046256)
(0 -0.00071431008 0.50047784)
(0 -0.0011217176 0.50050386)
(0 -0.0015552945 0.50054215)
(0 -0.0020259346 0.50059511)
(0 -0.0025468358 0.50066623)
(0 -0.0031345304 0.50076059)
(0 -0.0038103477 0.50088558)
(0 -0.0046025269 0.50105212)
(0 -0.0055494218 0.50127675)
(0 -0.0067050122 0.50158559)
(0 -0.0081464981 0.50202077)
(0 -0.0099779671 0.50265069)
(0 -0.012372234 0.50361503)
(0 -0.015717256 0.50519911)
(0 -0.019873628 0.50785383)
(0 -0.02518729 0.51641218)
(0 -0.047417775 0.53912721)
(0 -0.030853949 0.41487967)
(0 0.034791621 0.36172997)
(0 0.063839025 0.55456332)
(0 0.039380552 0.53747139)
(0 0.030083528 0.51849263)
(0 0.024112754 0.51197733)
(0 0.01927974 0.50849949)
(0 0.015736305 0.50626431)
(0 0.012954291 0.50475551)
(0 0.010743735 0.50370451)
(0 0.0089679461 0.50295622)
(0 0.007513894 0.50241118)
(0 0.006301914 0.50200691)
(0 0.0052742017 0.50170312)
(0 0.0043875008 0.5014729)
(0 0.0036089953 0.5012979)
(0 0.0029133023 0.50116542)
(0 0.0022803164 0.50106662)
(0 0.001693678 0.50099536)
(0 0.0011396474 0.50094744)
(0 0.00060624573 0.50092018)
(0 8.2573273e-05 0.5009121)
(0 -0.0004417898 0.5009228)
(0 -0.00097732369 0.5009529)
(0 -0.0015350975 0.50100411)
(0 -0.0021273896 0.50107942)
(0 -0.0027684046 0.50118341)
(0 -0.0034751805 0.5013228)
(0 -0.0042687938 0.50150727)
(0 -0.0051760232 0.50175082)
(0 -0.0062316468 0.50207392)
(0 -0.0074815317 0.50250704)
(0 -0.0089879086 0.50309719)
(0 -0.010838146 0.50391908)
(0 -0.013138803 0.50508908)
(0 -0.016025536 0.50680668)
(0 -0.019900912 0.50946726)
(0 -0.024732804 0.51427463)
(0 -0.031114689 0.52824684)
(0 -0.050320709 0.54407156)
(0 -0.028438741 0.37237981)
(0 0.027424307 0.3148431)
(0 0.062315024 0.55024059)
(0 0.04461477 0.55146768)
(0 0.033982241 0.52748817)
(0 0.027464263 0.51772248)
(0 0.022455352 0.51291989)
(0 0.018636952 0.50973151)
(0 0.015528258 0.50749273)
(0 0.01300629 0.50590005)
(0 0.01094222 0.50474703)
(0 0.0092246693 0.50389628)
(0 0.0077747845 0.50325932)
(0 0.0065325799 0.50277726)
(0 0.0054516309 0.50240989)
(0 0.0044958894 0.50212939)
(0 0.0036368905 0.50191632)
(0 0.0028516905 0.50175699)
(0 0.002121351 0.50164183)
(0 0.0014297784 0.50156427)
(0 0.00076281346 0.50152009)
(0 0.00010749228 0.50150696)
(0 -0.00054861487 0.50152425)
(0 -0.0012180062 0.50157293)
(0 -0.0019138272 0.50165571)
(0 -0.002650555 0.50177725)
(0 -0.0034447685 0.50194472)
(0 -0.0043160935 0.50216852)
(0 -0.0052884142 0.50246352)
(0 -0.0063914806 0.50285099)
(0 -0.0076630673 0.50336158)
(0 -0.0091514371 0.50403991)
(0 -0.010919026 0.50495253)
(0 -0.013052668 0.50620226)
(0 -0.01565616 0.50794397)
(0 -0.018817353 0.51040404)
(0 -0.022897751 0.51405448)
(0 -0.02817883 0.52114513)
(0 -0.035708933 0.53932626)
(0 -0.05047798 0.54155458)
(0 -0.024086712 0.33055691)
(0 0.01983796 0.27519755)
(0 0.057990206 0.53974643)
(0 0.04736419 0.56256479)
(0 0.036477951 0.53660462)
(0 0.029636438 0.52350718)
(0 0.024676427 0.51740337)
(0 0.020774522 0.51336312)
(0 0.017510027 0.51044468)
(0 0.014814441 0.50832438)
(0 0.012566837 0.50676202)
(0 0.01066569 0.50559302)
(0 0.0090390057 0.50470827)
(0 0.0076291684 0.50403282)
(0 0.0063903178 0.50351446)
(0 0.0052859951 0.50311647)
(0 0.0042867322 0.50281282)
(0 0.0033683015 0.50258496)
(0 0.0025103675 0.50241982)
(0 0.0016954072 0.50230837)
(0 0.00090783485 0.50224478)
(0 0.00013327474 0.50222583)
(0 -0.00064210527 0.50225062)
(0 -0.0014322087 0.50232052)
(0 -0.0022515886 0.50243924)
(0 -0.0031161394 0.50261324)
(0 -0.0040438465 0.5028523)
(0 -0.0050556841 0.50317055)
(0 -0.0061767164 0.50358801)
(0 -0.0074374919 0.50413285)
(0 -0.0088759379 0.504845)
(0 -0.010539319 0.50578148)
(0 -0.012485928 0.50702457)
(0 -0.014795978 0.50869743)
(0 -0.01757125 0.51098169)
(0 -0.020865723 0.51411972)
(0 -0.024975674 0.51872983)
(0 -0.030510516 0.52822958)
(0 -0.038632025 0.54872385)
(0 -0.048510312 0.53398348)
(0 -0.019067461 0.29393746)
(0 0.013083236 0.24255462)
(0 0.051799058 0.52520042)
(0 0.047709895 0.57024853)
(0 0.037757509 0.54552503)
(0 0.030850844 0.5292887)
(0 0.026073959 0.52180176)
(0 0.022238397 0.51699805)
(0 0.018954087 0.51347363)
(0 0.016193842 0.51086515)
(0 0.013849856 0.50891269)
(0 0.011835635 0.50743293)
(0 0.010088594 0.50630085)
(0 0.0085561117 0.5054287)
(0 0.0071954404 0.50475434)
(0 0.0059717818 0.5042334)
(0 0.0048563195 0.50383394)
(0 0.0038248673 0.503533)
(0 0.0028567556 0.50331421)
(0 0.0019338984 0.5031662)
(0 0.0010400143 0.50308159)
(0 0.00015996211 0.50305627)
(0 -0.00072088384 0.50308912)
(0 -0.0016172201 0.50318184)
(0 -0.0025443498 0.50333916)
(0 -0.0035188364 0.50356923)
(0 -0.0045591825 0.50388432)
(0 -0.0056866249 0.50430204)
(0 -0.0069260759 0.50484701)
(0 -0.0083072395 0.50555349)
(0 -0.0098661849 0.50646928)
(0 -0.011647106 0.50766153)
(0 -0.013702248 0.50922507)
(0 -0.016101117 0.5112979)
(0 -0.018939007 0.51407936)
(0 -0.022247285 0.51783827)
(0 -0.026266776 0.52346744)
(0 -0.031850512 0.53537492)
(0 -0.039761636 0.55589648)
(0 -0.044895726 0.52282207)
(0 -0.01409117 0.26264381)
(0 0.0077701715 0.21554076)
(0 0.044826086 0.50800976)
(0 0.046256045 0.57438086)
(0 0.038035905 0.55375142)
(0 0.031288466 0.53496064)
(0 0.02676891 0.52603044)
(0 0.023117239 0.52053861)
(0 0.019921285 0.51648846)
(0 0.017182499 0.5134419)
(0 0.014813665 0.51113093)
(0 0.012746354 0.50935983)
(0 0.010928516 0.50799134)
(0 0.0093142506 0.50692783)
(0 0.0078655904 0.50609939)
(0 0.006550794 0.50545542)
(0 0.0053429071 0.50495907)
(0 0.0042188216 0.50458356)
(0 0.0031584095 0.50430964)
(0 0.0021437707 0.50412386)
(0 0.0011585837 0.50401743)
(0 0.00018753637 0.50398544)
(0 -0.00078422353 0.50402653)
(0 -0.0017716168 0.50414276)
(0 -0.0027900952 0.50433975)
(0 -0.0038562271 0.50462716)
(0 -0.0049882733 0.50501951)
(0 -0.0062068498 0.5055374)
(0 -0.0075356925 0.50620943)
(0 -0.0090024827 0.50707493)
(0 -0.010640014 0.50818806)
(0 -0.012487865 0.50962407)
(0 -0.014591167 0.511488)
(0 -0.01700612 0.51392874)
(0 -0.019814381 0.51715502)
(0 -0.023031912 0.5214799)
(0 -0.026881257 0.52818231)
(0 -0.032353196 0.54222014)
(0 -0.039405751 0.56050173)
(0 -0.040330064 0.5090822)
(0 -0.0097085406 0.23585559)
(0 0.0040050065 0.19355599)
(0 0.037899814 0.48948677)
(0 0.043687708 0.57524007)
(0 0.03756472 0.56084528)
(0 0.031155013 0.54036136)
(0 0.02691495 0.53001162)
(0 0.023514848 0.52390211)
(0 0.020480982 0.51941297)
(0 0.017827333 0.51598825)
(0 0.01548994 0.51335943)
(0 0.013418477 0.51132467)
(0 0.011571593 0.50973812)
(0 0.0099111296 0.50849512)
(0 0.0084048531 0.50752002)
(0 0.0070249366 0.50675743)
(0 0.0057471115 0.50616664)
(0 0.0045500981 0.50571779)
(0 0.0034149804 0.50538927)
(0 0.0023246471 0.50516585)
(0 0.0012632855 0.50503756)
(0 0.00021592469 0.50499881)
(0 -0.00083201969 0.50504803)
(0 -0.0018951962 0.50518756)
(0 -0.0029886897 0.50542382)
(0 -0.004128519 0.50576776)
(0 -0.0053320944 0.50623574)
(0 -0.0066187332 0.50685087)
(0 -0.008010242 0.50764496)
(0 -0.0095314739 0.50866135)
(0 -0.011211025 0.50995912)
(0 -0.013082759 0.5116196)
(0 -0.015184192 0.51375543)
(0 -0.01755796 0.51652239)
(0 -0.02026821 0.52013152)
(0 -0.023322802 0.52496303)
(0 -0.026963753 0.53273972)
(0 -0.032205355 0.54839056)
(0 -0.037997433 0.56254311)
(0 -0.035416603 0.49379063)
(0 -0.0062008993 0.21324989)
(0 0.001551146 0.17613303)
(0 0.031499929 0.47076123)
(0 0.040533074 0.57338567)
(0 0.036559832 0.56659871)
(0 0.030638186 0.54537873)
(0 0.026672469 0.53370486)
(0 0.02354385 0.52703262)
(0 0.02071109 0.52218886)
(0 0.018183528 0.51845176)
(0 0.015917695 0.51555165)
(0 0.013879167 0.51328636)
(0 0.01203651 0.51150527)
(0 0.010359427 0.51009933)
(0 0.0088216624 0.50898905)
(0 0.0073996877 0.5081157)
(0 0.0060723903 0.50743575)
(0 0.0048207981 0.50691702)
(0 0.0036276735 0.50653608)
(0 0.0024771408 0.50627631)
(0 0.0013543242 0.50612678)
(0 0.00024500518 0.50608136)
(0 -0.00086472847 0.50613831)
(0 -0.0019888478 0.50630021)
(0 -0.0031416561 0.5065741)
(0 -0.0043381917 0.50697196)
(0 -0.0055945622 0.50751164)
(0 -0.0069283112 0.50821815)
(0 -0.0083588247 0.50912574)
(0 -0.0099076697 0.5102807)
(0 -0.011598852 0.51174558)
(0 -0.013460094 0.51360575)
(0 -0.015521459 0.51597867)
(0 -0.017813575 0.51902289)
(0 -0.02038338 0.52294942)
(0 -0.023238115 0.52823518)
(0 -0.026658247 0.53704013)
(0 -0.03156826 0.55365889)
(0 -0.035907636 0.56230731)
(0 -0.030554904 0.47788863)
(0 -0.0035912482 0.194607)
(0 7.6760244e-05 0.16252445)
(0 0.025870715 0.45259978)
(0 0.03716038 0.56943317)
(0 0.035192189 0.57098914)
(0 0.029878166 0.54996327)
(0 0.026174502 0.5371142)
(0 0.02330662 0.52991277)
(0 0.020688119 0.5247847)
(0 0.018308473 0.52079875)
(0 0.016139306 0.51767469)
(0 0.014159323 0.51521398)
(0 0.012345671 0.51326443)
(0 0.010675271 0.51171481)
(0 0.0091275119 0.51048343)
(0 0.0076831397 0.50950951)
(0 0.0063243494 0.50874766)
(0 0.0050347062 0.50816416)
(0 0.0037989247 0.50773423)
(0 0.0026026607 0.50744028)
(0 0.0014322778 0.50727064)
(0 0.00027461497 0.50721879)
(0 -0.00088326225 0.50728285)
(0 -0.0020543406 0.50746559)
(0 -0.0032518357 0.50777451)
(0 -0.0044894996 0.50822238)
(0 -0.0057818389 0.50882809)
(0 -0.0071443468 0.50961804)
(0 -0.0085937482 0.51062813)
(0 -0.010148183 0.51190658)
(0 -0.011827135 0.51351814)
(0 -0.013652393 0.51555045)
(0 -0.015647173 0.51812327)
(0 -0.017832107 0.52139479)
(0 -0.020239571 0.52557945)
(0 -0.022883148 0.53128222)
(0 -0.026080858 0.54103101)
(0 -0.030572494 0.55793422)
(0 -0.033429652 0.5601895)
(0 -0.025996768 0.46206515)
(0 -0.0017652945 0.17946717)
(0 -0.00071795093 0.15190684)
(0 0.021108351 0.43543425)
(0 0.033819976 0.5639315)
(0 0.033604841 0.57408941)
(0 0.028975632 0.5540943)
(0 0.025520613 0.54026388)
(0 0.022886798 0.53255306)
(0 0.020479027 0.5271925)
(0 0.018255183 0.52301314)
(0 0.016195862 0.51970897)
(0 0.014290335 0.51708671)
(0 0.012522842 0.51499495)
(0 0.010876488 0.51332177)
(0 0.0093356407 0.51198456)
(0 0.0078850161 0.51092151)
(0 0.0065100165 0.51008626)
(0 0.0051967679 0.5094441)
(0 0.0039320448 0.50896947)
(0 0.0027031914 0.5086441)
(0 0.0014979973 0.50845586)
(0 0.0003045596 0.50839791)
(0 -0.0008888702 0.50846832)
(0 -0.0020940853 0.50866996)
(0 -0.0033230126 0.50901065)
(0 -0.004587931 0.50950369)
(0 -0.0059015891 0.51016866)
(0 -0.007277324 0.51103284)
(0 -0.0087291716 0.51213308)
(0 -0.010271945 0.51351871)
(0 -0.011920958 0.51525557)
(0 -0.013692662 0.5174323)
(0 -0.01560421 0.52016907)
(0 -0.01766807 0.52362177)
(0 -0.019905706 0.5280161)
(0 -0.022343307 0.53411027)
(0 -0.025322531 0.54468136)
(0 -0.029333216 0.56120715)
(0 -0.030795031 0.55658489)
(0 -0.021895773 0.44675849)
(0 -0.0005647024 0.16724324)
(0 -0.0010700795 0.14358287)
(0 0.017203696 0.41947879)
(0 0.030667465 0.55733994)
(0 0.031915711 0.57602069)
(0 0.028004661 0.55776418)
(0 0.024784347 0.54317977)
(0 0.022350842 0.53497621)
(0 0.020139461 0.52941818)
(0 0.018069435 0.52509092)
(0 0.016124392 0.52164509)
(0 0.01430171 0.51889208)
(0 0.012591236 0.51668278)
(0 0.010981109 0.51490562)
(0 0.0094598904 0.51347789)
(0 0.0080158032 0.51233757)
(0 0.0066371908 0.51143789)
(0 0.0053126161 0.51074376)
(0 0.0040308906 0.51022918)
(0 0.0027810898 0.50987553)
(0 0.0015525125 0.50967038)
(0 0.00033462226 0.50960675)
(0 -0.00088302497 0.50968263)
(0 -0.0021109097 0.50990097)
(0 -0.0033595629 0.51026979)
(0 -0.0046397083 0.51080266)
(0 -0.0059622956 0.51151956)
(0 -0.0073385338 0.51244818)
(0 -0.008779894 0.51362584)
(0 -0.010298118 0.51510224)
(0 -0.011904844 0.51694355)
(0 -0.013611951 0.51923851)
(0 -0.015431437 0.52210631)
(0 -0.017369289 0.52569987)
(0 -0.019440103 0.53026635)
(0 -0.02168755 0.53673106)
(0 -0.024456498 0.54797108)
(0 -0.027952128 0.56352152)
(0 -0.028174349 0.55185519)
(0 -0.018326093 0.43223331)
(0 0.00016895862 0.15738915)
(0 -0.0011531865 0.13700114)
(0 0.014079265 0.40481375)
(0 0.027782903 0.55003282)
(0 0.030212847 0.57693044)
(0 0.027017668 0.56097937)
(0 0.024018698 0.54588585)
(0 0.021750636 0.53720919)
(0 0.019714615 0.53147485)
(0 0.01778957 0.52703535)
(0 0.015957006 0.52348046)
(0 0.014219926 0.52062368)
(0 0.012572353 0.5183191)
(0 0.011006345 0.5164561)
(0 0.0095138516 0.51495247)
(0 0.0080860635 0.51374642)
(0 0.0067139094 0.51279132)
(0 0.0053881718 0.51205201)
(0 0.0040995839 0.5115024)
(0 0.002838907 0.51112374)
(0 0.0015969504 0.5109035)
(0 0.00036457334 0.51083462)
(0 -0.00086732181 0.51091505)
(0 -0.0021078603 0.51114778)
(0 -0.0033661507 0.5115409)
(0 -0.0046513624 0.51210809)
(0 -0.0059726954 0.51286945)
(0 -0.0073393524 0.51385276)
(0 -0.0087604634 0.51509537)
(0 -0.010245049 0.51664687)
(0 -0.011801628 0.5185732)
(0 -0.013438336 0.52096255)
(0 -0.015163009 0.52393224)
(0 -0.016976806 0.52763279)
(0 -0.018891352 0.53234391)
(0 -0.020970449 0.53915871)
(0 -0.02353997 0.55089368)
(0 -0.026511707 0.56495988)
(0 -0.025678866 0.5463182)
(0 -0.015299375 0.41863761)
(0 0.00057381838 0.14944214)
(0 -0.0010856021 0.13172188)
(0 0.011624409 0.39143043)
(0 0.025194131 0.54230383)
(0 0.028555067 0.57697293)
(0 0.026048056 0.56375955)
(0 0.023259033 0.54840497)
(0 0.021124705 0.53928047)
(0 0.019239941 0.53337992)
(0 0.017446818 0.5288544)
(0 0.015720764 0.52521718)
(0 0.014067985 0.52227957)
(0 0.012485398 0.51989911)
(0 0.010967979 0.51796654)
(0 0.0095102911 0.51640037)
(0 0.0081059381 0.51513945)
(0 0.0067480386 0.51413749)
(0 0.0054293259 0.51335961)
(0 0.0041422804 0.51277981)
(0 0.002879241 0.51237942)
(0 0.0016324667 0.51214591)
(0 0.00039417944 0.51207221)
(0 -0.00084339153 0.51215628)
(0 -0.0020880362 0.51240109)
(0 -0.0033474758 0.5128147)
(0 -0.0046293913 0.51341078)
(0 -0.0059413462 0.51420934)
(0 -0.0072907203 0.515238)
(0 -0.0086845849 0.51653384)
(0 -0.010129641 0.51814603)
(0 -0.01163186 0.52013989)
(0 -0.013196454 0.52260264)
(0 -0.01482808 0.52564928)
(0 -0.016524667 0.52942968)
(0 -0.018298179 0.53426692)
(0 -0.020232648 0.54140985)
(0 -0.022614506 0.55345678)
(0 -0.025073026 0.56562672)
(0 -0.023371275 0.54023977)
(0 -0.012786002 0.40603323)
(0 0.00075898641 0.14300791)
(0 -0.0009437661 0.12739949)
(0 0.0097203592 0.37926277)
(0 0.022897698 0.53437335)
(0 0.026977569 0.57629322)
(0 0.025114572 0.56613194)
(0 0.022526595 0.55075785)
(0 0.020499723 0.54121775)
(0 0.018741896 0.53515301)
(0 0.017065674 0.53055907)
(0 0.015437736 0.5268606)
(0 0.013865257 0.52386105)
(0 0.012347005 0.52142114)
(0 0.010880022 0.51943309)
(0 0.0094607933 0.5178163)
(0 0.0080848093 0.51651031)
(0 0.0067469807 0.51546942)
(0 0.0054417015 0.51465914)
(0 0.0041629919 0.51405375)
(0 0.0029046211 0.51363475)
(0 0.001660192 0.51338972)
(0 0.00042321183 0.51331162)
(0 -0.00081282987 0.51339844)
(0 -0.0020544543 0.51365309)
(0 -0.0033080772 0.51408357)
(0 -0.004580002 0.51470339)
(0 -0.0058763109 0.51553234)
(0 -0.0072027802 0.51659774)
(0 -0.0085647305 0.51793618)
(0 -0.009966958 0.5195962)
(0 -0.011413439 0.52164233)
(0 -0.012907197 0.52416063)
(0 -0.014450613 0.52726363)
(0 -0.016039845 0.53110345)
(0 -0.017689718 0.53605583)
(0 -0.019502335 0.54350204)
(0 -0.021708164 0.55567782)
(0 -0.023678108 0.56563206)
(0 -0.021279649 0.53383138)
(0 -0.010733468 0.39441966)
(0 0.00080477938 0.13775309)
(0 -0.00077516808 0.12377288)
(0 0.0082544608 0.36821384)
(0 0.020873339 0.52640086)
(0 0.025498255 0.57501915)
(0 0.024226022 0.56812615)
(0 0.021832544 0.55296145)
(0 0.019892853 0.54304569)
(0 0.018239259 0.53681389)
(0 0.016664604 0.53216186)
(0 0.0151253 0.52841799)
(0 0.013627546 0.5253716)
(0 0.012171151 0.52288574)
(0 0.010754552 0.52085413)
(0 0.0093755624 0.51919699)
(0 0.0080310956 0.51785459)
(0 0.006717482 0.51678187)
(0 0.0054304904 0.51594479)
(0 0.0041654608 0.51531803)
(0 0.0029174233 0.51488331)
(0 0.0016811933 0.51462839)
(0 0.000451454 0.51454629)
(0 -0.00077714329 0.51463502)
(0 -0.0020099501 0.51489744)
(0 -0.0032521899 0.51534142)
(0 -0.0045089272 0.51598026)
(0 -0.0057849424 0.51683344)
(0 -0.0070846411 0.51792784)
(0 -0.0084119011 0.5192995)
(0 -0.0097700091 0.52099625)
(0 -0.011161442 0.52308176)
(0 -0.012587668 0.52564084)
(0 -0.014049551 0.52878391)
(0 -0.015542776 0.53266881)
(0 -0.017086754 0.53773091)
(0 -0.018797764 0.54545174)
(0 -0.020838508 0.55757919)
(0 -0.022353525 0.56508079)
(0 -0.019409102 0.52725501)
(0 -0.0090790093 0.3837564)
(0 0.00076770269 0.13340526)
(0 -0.00060779423 0.1206518)
(0 0.0071275238 0.35817474)
(0 0.01909304 0.51849849)
(0 0.024123001 0.5732597)
(0 0.023384875 0.56977151)
(0 0.02118135 0.5550287)
(0 0.019314196 0.54478476)
(0 0.017744746 0.5383809)
(0 0.016257047 0.53367537)
(0 0.014796723 0.52989747)
(0 0.013367386 0.52681596)
(0 0.011969277 0.52429501)
(0 0.010601707 0.52222964)
(0 0.0092633527 0.52054081)
(0 0.0079521517 0.51916945)
(0 0.006665527 0.51807108)
(0 0.0054003548 0.51721218)
(0 0.0041530797 0.51656781)
(0 0.0029198171 0.51611999)
(0 0.0016964491 0.51585665)
(0 0.00047870809 0.51577092)
(0 -0.00073771094 0.51586081)
(0 -0.0019571094 0.51612912)
(0 -0.0031836495 0.51658357)
(0 -0.0044213102 0.5172372)
(0 -0.0056737566 0.51810915)
(0 -0.0069442537 0.51922582)
(0 -0.0082355252 0.52062266)
(0 -0.0095497037 0.52234679)
(0 -0.010888194 0.52446107)
(0 -0.012251421 0.52704911)
(0 -0.013639356 0.53021983)
(0 -0.015048325 0.53414063)
(0 -0.016503307 0.53931065)
(0 -0.018129729 0.54727332)
(0 -0.020015268 0.55918532)
(0 -0.021113753 0.56406765)
(0 -0.017750399 0.5206313)
(0 -0.0077579151 0.37398053)
(0 0.00068616749 0.12974909)
(0 -0.00045656528 0.11790101)
(0 0.0062569654 0.34903597)
(0 0.01752667 0.51074272)
(0 0.022849926 0.57110618)
(0 0.022589779 0.57109602)
(0 0.020573194 0.55696901)
(0 0.018768803 0.54645107)
(0 0.01726648 0.53987017)
(0 0.015852451 0.5351115)
(0 0.014461851 0.5313072)
(0 0.013094467 0.52819946)
(0 0.011750519 0.52565191)
(0 0.010429805 0.5235607)
(0 0.009131502 0.52184732)
(0 0.0078542549 0.52045324)
(0 0.0065962991 0.51933452)
(0 0.0053553816 0.5184581)
(0 0.0041288505 0.51779943)
(0 0.0029137354 0.5173408)
(0 0.0017068359 0.51707034)
(0 0.00050480034 0.51698131)
(0 -0.00069576086 0.5170717)
(0 -0.0018982277 0.51734425)
(0 -0.0031058397 0.5178065)
(0 -0.0043216463 0.51847125)
(0 -0.0055483796 0.51935726)
(0 -0.0067883803 0.52049047)
(0 -0.0080434756 0.52190576)
(0 -0.0093149506 0.5236496)
(0 -0.01060349 0.52578414)
(0 -0.011908883 0.52839195)
(0 -0.013230695 0.53158127)
(0 -0.014566802 0.53553299)
(0 -0.015948107 0.5408111)
(0 -0.017503568 0.54897889)
(0 -0.019242464 0.56052091)
(0 -0.019964254 0.56267538)
(0 -0.016286277 0.51404777)
(0 -0.0067089756 0.36501856)
(0 0.00058535175 0.12661803)
(0 -0.00032794668 0.11542624)
(0 0.0055770484 0.34069365)
(0 0.016145288 0.50318363)
(0 0.021672752 0.56863431)
(0 0.021837358 0.57212576)
(0 0.020005686 0.55878902)
(0 0.018258251 0.54805684)
(0 0.016809205 0.54129547)
(0 0.015457174 0.53648102)
(0 0.014127772 0.53265496)
(0 0.012816102 0.52952748)
(0 0.01152202 0.52695988)
(0 0.010245525 0.52484906)
(0 0.0089860349 0.52311691)
(0 0.0077426522 0.52170527)
(0 0.0065141952 0.52057063)
(0 0.0052990786 0.51968034)
(0 0.0040953736 0.51901018)
(0 0.0029008645 0.51854274)
(0 0.0017131246 0.51826632)
(0 0.00052958466 0.51817426)
(0 -0.00065235813 0.51826458)
(0 -0.0018352926 0.51853994)
(0 -0.0030216732 0.51900772)
(0 -0.0042137706 0.51968046)
(0 -0.0054135545 0.52057657)
(0 -0.0066226352 0.52172156)
(0 -0.0078421666 0.52314979)
(0 -0.0090728403 0.5249072)
(0 -0.010314899 0.52705536)
(0 -0.011567809 0.52967599)
(0 -0.012831102 0.53287775)
(0 -0.01410489 0.53685861)
(0 -0.01542585 0.54224561)
(0 -0.016920752 0.55057836)
(0 -0.018520203 0.56160968)
(0 -0.018904317 0.56097445)
(0 -0.014995902 0.50756588)
(0 -0.0058775913 0.35679383)
(0 0.00048099922 0.1238854)
(0 -0.0002232704 0.11316308)
(0 0.0050372899 0.33305281)
(0 0.0149228 0.49585211)
(0 0.020583234 0.56590654)
(0 0.021123473 0.57288462)
(0 0.019475095 0.56049318)
(0 0.017781864 0.54961087)
(0 0.016375256 0.54266818)
(0 0.015075245 0.53779343)
(0 0.013799412 0.53394786)
(0 0.012537668 0.53080526)
(0 0.01128924 0.52822251)
(0 0.010054126 0.52609691)
(0 0.0088318025 0.52435056)
(0 0.007621646 0.52292553)
(0 0.0064228742 0.52177862)
(0 0.0052343993 0.52087749)
(0 0.0040548593 0.52019824)
(0 0.0028826493 0.51972367)
(0 0.0017159824 0.51944225)
(0 0.00055294508 0.51934742)
(0 -0.00060840283 0.5194372)
(0 -0.0017699842 0.51971418)
(0 -0.0029335996 0.52018558)
(0 -0.0041008804 0.5208637)
(0 -0.0052731876 0.52176665)
(0 -0.0064515704 0.52291954)
(0 -0.0076366955 0.52435633)
(0 -0.0088288646 0.52612252)
(0 -0.010028091 0.52827925)
(0 -0.011233745 0.53090768)
(0 -0.012445604 0.53411803)
(0 -0.013666487 0.53812862)
(0 -0.014938294 0.54362494)
(0 -0.016380192 0.55207964)
(0 -0.017846152 0.56247367)
(0 -0.017929428 0.5590239)
(0 -0.013857774 0.50122717)
(0 -0.005217093 0.34923124)
(0 0.0003823158 0.12145638)
(0 -0.00014100785 0.11106812)
(0 0.0046000341 0.3260288)
(0 0.013836525 0.48876545)
(0 0.019572702 0.56297438)
(0 0.020443996 0.57339441)
(0 0.018977208 0.56208438)
(0 0.017337652 0.55111911)
(0 0.015965336 0.54399744)
(0 0.014708987 0.5390569)
(0 0.013480035 0.53519226)
(0 0.012262998 0.53203762)
(0 0.011056255 0.52944332)
(0 0.009859659 0.52730661)
(0 0.0086726364 0.52554963)
(0 0.0074947004 0.52411452)
(0 0.0063253264 0.52295828)
(0 0.0051637868 0.5220488)
(0 0.0040091541 0.52136242)
(0 0.0028603077 0.52088213)
(0 0.00171598 0.52059654)
(0 0.00057479644 0.52049917)
(0 -0.00056463545 0.52058803)
(0 -0.0017036892 0.52086564)
(0 -0.0028436312 0.5213391)
(0 -0.0039855798 0.52202049)
(0 -0.0051304213 0.52292765)
(0 -0.0062787863 0.52408538)
(0 -0.0074310061 0.5255273)
(0 -0.0085871496 0.52729863)
(0 -0.0097471528 0.52946023)
(0 -0.010910456 0.53209297)
(0 -0.012077283 0.53530996)
(0 -0.01325343 0.53935244)
(0 -0.014485183 0.54495738)
(0 -0.015879241 0.55348882)
(0 -0.017216636 0.56313287)
(0 -0.017033004 0.55687262)
(0 -0.01285145 0.49505835)
(0 -0.0046889354 0.34226009)
(0 0.00029413115 0.11926116)
(0 -7.8249465e-05 0.10911235)
(0 0.0042378651 0.31954753)
(0 0.01286718 0.48193153)
(0 0.018632936 0.55988052)
(0 0.019795221 0.57367504)
(0 0.018507855 0.56356447)
(0 0.016922966 0.55258526)
(0 0.015579097 0.54529043)
(0 0.014359529 0.54027836)
(0 0.013171676 0.53639374)
(0 0.011994728 0.53322897)
(0 0.010826027 0.53062568)
(0 0.0096651814 0.52848056)
(0 0.008511505 0.52671566)
(0 0.0073645536 0.52527307)
(0 0.0062239536 0.52410983)
(0 0.0050892287 0.52319402)
(0 0.0039597761 0.52250211)
(0 0.0028348516 0.52201726)
(0 0.0017136008 0.52172819)
(0 0.00059508432 0.52162846)
(0 -0.00052164724 0.52171611)
(0 -0.0016375231 0.52199358)
(0 -0.0027533817 0.52246785)
(0 -0.0038699386 0.52315083)
(0 -0.00498772 0.52406013)
(0 -0.0061070551 0.52522033)
(0 -0.0072280593 0.52666479)
(0 -0.0083506857 0.5284386)
(0 -0.0094748976 0.53060244)
(0 -0.010600318 0.53323728)
(0 -0.011727765 0.53646038)
(0 -0.012866107 0.54053785)
(0 -0.014064969 0.54624909)
(0 -0.015414431 0.55481048)
(0 -0.01662741 0.5636052)
(0 -0.016207614 0.55456094)
(0 -0.011958439 0.48907531)
(0 -0.0042621831 0.33581568)
(0 0.00021842878 0.11724913)
(0 -3.1628745e-05 0.10727613)
(0 0.0039312153 0.31354485)
(0 0.011998574 0.47535184)
(0 0.017756591 0.55666058)
(0 0.019174026 0.57374485)
(0 0.018063207 0.56493475)
(0 0.01653493 0.55401131)
(0 0.015215564 0.54655264)
(0 0.014027182 0.54146355)
(0 0.012875481 0.53755712)
(0 0.011734586 0.5343832)
(0 0.010600642 0.53177267)
(0 0.0094729433 0.52962111)
(0 0.0083506605 0.52785033)
(0 0.0072333299 0.52640223)
(0 0.0061206513 0.52523382)
(0 0.0050123151 0.52431325)
(0 0.0039079544 0.5236171)
(0 0.0028071109 0.52312864)
(0 0.001709252 0.52283666)
(0 0.00061378279 0.52273476)
(0 -0.00047989483 0.52282097)
(0 -0.0015723581 0.5230977)
(0 -0.00266411 0.52357181)
(0 -0.0037555579 0.52425508)
(0 -0.0048469625 0.52516495)
(0 -0.0059384461 0.52632583)
(0 -0.0070299993 0.52777096)
(0 -0.0081215436 0.52954534)
(0 -0.0092131358 0.53170969)
(0 -0.010304655 0.53434537)
(0 -0.011397622 0.53757511)
(0 -0.012503926 0.54169107)
(0 -0.01367535 0.54750439)
(0 -0.014981984 0.55604806)
(0 -0.016074165 0.56390667)
(0 -0.015445773 0.55212204)
(0 -0.011162555 0.48328626)
(0 -0.0039126006 0.32983992)
(0 0.00015541364 0.11538397)
(0 2.1364022e-06 0.10554587)
(0 0.003666324 0.30796557)
(0 0.011217189 0.46902361)
(0 0.016937327 0.55334443)
(0 0.01857789 0.57362086)
(0 0.017639913 0.56619632)
(0 0.016170704 0.55539798)
(0 0.01487342 0.54778816)
(0 0.013711727 0.54261725)
(0 0.012591968 0.53868652)
(0 0.011483627 0.53550376)
(0 0.010381511 0.53288713)
(0 0.0092845543 0.53073049)
(0 0.0081917728 0.5289553)
(0 0.0071026447 0.52750318)
(0 0.0060168885 0.526331)
(0 0.0049342978 0.52540692)
(0 0.00385467 0.52470755)
(0 0.0027777585 0.52421622)
(0 0.0017032754 0.52392179)
(0 0.00063089249 0.52381788)
(0 -0.00043971567 0.52390251)
(0 -0.0015088536 0.52417805)
(0 -0.0025767683 0.52465127)
(0 -0.0036436374 0.52533386)
(0 -0.0047095334 0.52624314)
(0 -0.0057744455 0.52740342)
(0 -0.0068383069 0.52884787)
(0 -0.0079010658 0.53062157)
(0 -0.0089629098 0.53278536)
(0 -0.010024021 0.53542139)
(0 -0.011086698 0.53865906)
(0 -0.012165683 0.542817)
(0 -0.01331366 0.54872617)
(0 -0.014578145 0.55720412)
(0 -0.015552849 0.56405161)
(0 -0.014740439 0.54958334)
(0 -0.010449925 0.47769394)
(0 -0.0036215819 0.32428137)
(0 0.0001042555 0.11363978)
(0 2.5965573e-05 0.10391162)
(0 0.0034335984 0.3027624)
(0 0.010511737 0.46294126)
(0 0.016169771 0.54995729)
(0 0.018004833 0.57331893)
(0 0.01723514 0.56735031)
(0 0.015827638 0.55674517)
(0 0.014551191 0.54899994)
(0 0.013412612 0.54374338)
(0 0.012321222 0.53978548)
(0 0.011242413 0.53659364)
(0 0.010169535 0.53397158)
(0 0.0091011234 0.53181079)
(0 0.0080360456 0.53003223)
(0 0.0069736982 0.52857717)
(0 0.0059137818 0.52740228)
(0 0.0048561448 0.52647562)
(0 0.003800694 0.52577382)
(0 0.0027473337 0.52528024)
(0 0.0016959574 0.52498373)
(0 0.00064643768 0.52487796)
(0 -0.0004013443 0.52496092)
(0 -0.0014474875 0.52523494)
(0 -0.0024920488 0.52570676)
(0 -0.0035350408 0.52638797)
(0 -0.0045764091 0.52729584)
(0 -0.0056160662 0.52845461)
(0 -0.0066539366 0.52989753)
(0 -0.0076900322 0.53166977)
(0 -0.0087246892 0.53383244)
(0 -0.0097584179 0.53646887)
(0 -0.010794349 0.53971628)
(0 -0.01184982 0.54391939)
(0 -0.012977133 0.54991617)
(0 -0.014199389 0.55828066)
(0 -0.015059829 0.56405293)
(0 -0.014085265 0.54696754)
(0 -0.009808828 0.4722974)
(0 -0.003375083 0.31909492)
(0 6.3595372e-05 0.11199811)
(0 4.2307839e-05 0.10236565)
(0 0.0032263582 0.29789479)
(0 0.0098727628 0.45709746)
(0 0.015449398 0.54652056)
(0 0.017453319 0.57285395)
(0 0.016846553 0.56839808)
(0 0.015503337 0.55805221)
(0 0.014247371 0.55019004)
(0 0.013129094 0.54484512)
(0 0.012063047 0.540857)
(0 0.011011157 0.53765546)