/*--------------------------------*- C++ -*----------------------------------*\
  =========                 |
  \\      /  F ield         | OpenFOAM: The Open Source CFD Toolbox
   \\    /   O peration     | Website:  https://openfoam.org
    \\  /    A nd           | Version:  10
     \\/     M anipulation  |
\*---------------------------------------------------------------------------*/
FoamFile
{
    format      ascii;
    class       volVectorField;
    location    "0.26";
    object      U_0;
}
// * * * * * * * * * * * * * * * * * * * * * * * * * * * * * * * * * * * * * //

dimensions      [0 1 -1 0 0 0 0];

internalField   nonuniform List<vector> 
4000
(
(0 0.01863746 0.47773156)
(0 0.023510007 0.50886061)
(0 0.0081668611 0.50052521)
(0 0.0056146212 0.50033634)
(0 0.0042546358 0.50025746)
(0 0.0032549516 0.50016898)
(0 0.0025560972 0.50011969)
(0 0.0020545881 0.50009013)
(0 0.001676585 0.50006981)
(0 0.0013822449 0.50005539)
(0 0.0011471952 0.50004499)
(0 0.00095509713 0.50003733)
(0 0.00079469661 0.5000316)
(0 0.00065801798 0.50002727)
(0 0.00053923289 0.50002399)
(0 0.0004339608 0.50002151)
(0 0.00033881431 0.50001966)
(0 0.00025109158 0.50001834)
(0 0.00016855999 0.50001744)
(0 8.9297693e-05 0.50001694)
(0 1.1571288e-05 0.50001679)
(0 -6.6271136e-05 0.50001699)
(0 -0.00014589179 0.50001755)
(0 -0.00022905513 0.5000185)
(0 -0.00031773863 0.50001991)
(0 -0.00041426333 0.50002185)
(0 -0.00052146564 0.50002446)
(0 -0.00064293669 0.50002793)
(0 -0.00078337015 0.50003252)
(0 -0.000949092 0.50003863)
(0 -0.0011489118 0.50004688)
(0 -0.0013954876 0.50005824)
(0 -0.0017075659 0.50007414)
(0 -0.0021154952 0.50009709)
(0 -0.0026751895 0.50013481)
(0 -0.003468758 0.50020237)
(0 -0.0045609776 0.50027143)
(0 -0.0065851626 0.50043364)
(0 -0.017659595 0.50675407)
(0 -0.013590194 0.4797556)
(0 0.037432697 0.44796925)
(0 0.050955771 0.53232616)
(0 0.021969348 0.5080429)
(0 0.016135672 0.50357319)
(0 0.012416114 0.50242316)
(0 0.0095159854 0.501623)
(0 0.0075206508 0.50115662)
(0 0.0060699201 0.50086593)
(0 0.0049645956 0.50066801)
(0 0.004100145 0.50052902)
(0 0.0034076182 0.50042905)
(0 0.0028400676 0.50035555)
(0 0.0023651198 0.50030066)
(0 0.001959691 0.50025926)
(0 0.0016068214 0.50022792)
(0 0.0012937159 0.50020426)
(0 0.0010104499 0.50018665)
(0 0.0007490859 0.50017398)
(0 0.00050304996 0.50016547)
(0 0.00026667301 0.50016064)
(0 3.4834827e-05 0.50015921)
(0 -0.00019734356 0.50016111)
(0 -0.00043477106 0.50016646)
(0 -0.00068265758 0.50017556)
(0 -0.00094683311 0.50018897)
(0 -0.0012341265 0.50020753)
(0 -0.0015528614 0.50023246)
(0 -0.0019135437 0.50026558)
(0 -0.002329854 0.50030949)
(0 -0.0028201317 0.5003681)
(0 -0.0034097516 0.50044735)
(0 -0.004135089 0.5005567)
(0 -0.0050492222 0.50071126)
(0 -0.0062320159 0.5009366)
(0 -0.0078323532 0.50129436)
(0 -0.010126021 0.5019105)
(0 -0.013107123 0.50282507)
(0 -0.017426514 0.50608115)
(0 -0.038759266 0.52526813)
(0 -0.02789478 0.45021632)
(0 0.0398883 0.40982051)
(0 0.061428198 0.54930815)
(0 0.031983838 0.52188197)
(0 0.024355591 0.51008056)
(0 0.019193728 0.50658858)
(0 0.014977267 0.5045281)
(0 0.012006836 0.50327142)
(0 0.0097720303 0.50245842)
(0 0.0080366088 0.50190111)
(0 0.0066649258 0.50150874)
(0 0.0055567608 0.50122553)
(0 0.0046425798 0.50101678)
(0 0.0038736453 0.50086064)
(0 0.0032145618 0.50074272)
(0 0.0026389955 0.50065334)
(0 0.0021268935 0.50058583)
(0 0.0016625796 0.50053557)
(0 0.0012334342 0.50049936)
(0 0.00082895086 0.50047504)
(0 0.00044003114 0.50046121)
(0 5.8434221e-05 0.50045712)
(0 -0.00032370075 0.50046256)
(0 -0.00071428189 0.50047784)
(0 -0.0011216879 0.50050385)
(0 -0.0015552634 0.50054215)
(0 -0.0020259022 0.50059511)
(0 -0.0025468024 0.50066623)
(0 -0.0031344962 0.50076059)
(0 -0.003810313 0.50088558)
(0 -0.0046024918 0.50105212)
(0 -0.0055493867 0.50127675)
(0 -0.0067049774 0.5015856)
(0 -0.0081464639 0.50202077)
(0 -0.009977934 0.50265069)
(0 -0.012372202 0.50361503)
(0 -0.015717226 0.50519911)
(0 -0.019873602 0.50785383)
(0 -0.025187264 0.51641218)
(0 -0.047417751 0.53912721)
(0 -0.030853939 0.41487969)
(0 0.03479162 0.36172998)
(0 0.063839022 0.55456332)
(0 0.039380549 0.53747139)
(0 0.030083526 0.51849263)
(0 0.024112753 0.51197733)
(0 0.01927974 0.50849949)
(0 0.015736306 0.50626431)
(0 0.012954294 0.50475551)
(0 0.01074374 0.5037045)
(0 0.0089679526 0.50295621)
(0 0.0075139026 0.50241118)
(0 0.0063019249 0.5020069)
(0 0.0052742151 0.50170312)
(0 0.0043875169 0.5014729)
(0 0.003609014 0.50129789)
(0 0.0029133238 0.50116541)
(0 0.0022803408 0.50106662)
(0 0.0016937052 0.50099536)
(0 0.0011396773 0.50094744)
(0 0.00060627843 0.50092018)
(0 8.2608659e-05 0.5009121)
(0 -0.00044175186 0.5009228)
(0 -0.00097728331 0.50095289)
(0 -0.0015350549 0.5010041)
(0 -0.0021273449 0.50107941)
(0 -0.0027683581 0.50118341)
(0 -0.0034751325 0.5013228)
(0 -0.0042687446 0.50150727)
(0 -0.0051759731 0.50175082)
(0 -0.0062315962 0.50207392)
(0 -0.0074814811 0.50250704)
(0 -0.0089878584 0.50309719)
(0 -0.010838097 0.50391908)
(0 -0.013138755 0.50508908)
(0 -0.01602549 0.50680668)
(0 -0.019900868 0.50946727)
(0 -0.024732764 0.51427463)
(0 -0.031114649 0.52824685)
(0 -0.050320675 0.54407158)
(0 -0.028438728 0.37237986)
(0 0.027424305 0.31484311)
(0 0.06231502 0.55024059)
(0 0.044614765 0.55146767)
(0 0.033982238 0.52748817)
(0 0.02746426 0.51772247)
(0 0.022455351 0.51291988)
(0 0.018636953 0.50973151)
(0 0.015528261 0.50749272)
(0 0.013006295 0.50590004)
(0 0.010942228 0.50474702)
(0 0.00922468 0.50389627)
(0 0.0077747983 0.50325932)
(0 0.006532597 0.50277726)
(0 0.0054516514 0.50240988)
(0 0.0044959136 0.50212938)
(0 0.0036369184 0.50191631)
(0 0.0028517222 0.50175698)
(0 0.0021213864 0.50164182)
(0 0.0014298176 0.50156426)
(0 0.00076285632 0.50152008)
(0 0.00010753872 0.50150696)
(0 -0.00054856499 0.50152424)
(0 -0.0012179531 0.50157293)
(0 -0.001913771 0.5016557)
(0 -0.0026504961 0.50177725)
(0 -0.0034447071 0.50194472)
(0 -0.00431603 0.50216851)
(0 -0.0052883491 0.50246352)
(0 -0.0063914143 0.50285099)
(0 -0.0076630002 0.50336157)
(0 -0.0091513698 0.50403991)
(0 -0.010918959 0.50495254)
(0 -0.013052602 0.50620226)
(0 -0.015656096 0.50794398)
(0 -0.018817291 0.51040405)
(0 -0.022897693 0.51405449)
(0 -0.028178775 0.52114514)
(0 -0.035708876 0.53932626)
(0 -0.050477936 0.54155461)
(0 -0.024086697 0.33055698)
(0 0.019837958 0.27519756)
(0 0.0579902 0.53974644)
(0 0.047364183 0.56256478)
(0 0.036477946 0.53660462)
(0 0.029636435 0.52350717)
(0 0.024676425 0.51740337)
(0 0.020774522 0.51336312)
(0 0.017510029 0.51044467)
(0 0.014814447 0.50832437)
(0 0.012566846 0.50676201)
(0 0.010665702 0.50559302)
(0 0.0090390222 0.50470826)
(0 0.0076291892 0.50403281)
(0 0.0063903429 0.50351445)
(0 0.0052860248 0.50311646)
(0 0.0042867667 0.50281281)
(0 0.0033683408 0.50258495)
(0 0.0025104115 0.5024198)
(0 0.001695456 0.50230835)
(0 0.00090788844 0.50224477)
(0 0.00013333291 0.50222582)
(0 -0.00064204271 0.50225061)
(0 -0.0014321419 0.50232051)
(0 -0.0022515179 0.50243923)
(0 -0.0031160651 0.50261323)
(0 -0.0040437691 0.50285229)
(0 -0.005055604 0.50317055)
(0 -0.0061766341 0.50358801)
(0 -0.007437408 0.50413284)
(0 -0.0088758529 0.504845)
(0 -0.010539234 0.50578148)
(0 -0.012485843 0.50702457)
(0 -0.014795894 0.50869743)
(0 -0.017571168 0.5109817)
(0 -0.020865644 0.51411973)
(0 -0.024975599 0.51872984)
(0 -0.030510444 0.52822959)
(0 -0.038631951 0.54872386)
(0 -0.048510258 0.53398354)
(0 -0.019067445 0.29393756)
(0 0.013083234 0.24255463)
(0 0.051799051 0.52520043)
(0 0.047709885 0.57024852)
(0 0.037757501 0.54552502)
(0 0.030850838 0.5292887)
(0 0.026073955 0.52180175)
(0 0.022238396 0.51699804)
(0 0.018954089 0.51347362)
(0 0.016193848 0.51086514)
(0 0.013849866 0.50891267)
(0 0.011835649 0.50743292)
(0 0.010088613 0.50630084)
(0 0.0085561361 0.50542869)
(0 0.0071954703 0.50475433)
(0 0.0059718173 0.50423338)
(0 0.0048563608 0.50383393)
(0 0.0038249146 0.50353299)
(0 0.0028568088 0.50331419)
(0 0.0019339575 0.50316618)
(0 0.0010400793 0.50308157)
(0 0.0001600328 0.50305626)
(0 -0.00072080766 0.5030891)
(0 -0.0016171387 0.50318182)
(0 -0.0025442635 0.50333915)
(0 -0.0035187456 0.50356922)
(0 -0.0045590878 0.50388431)
(0 -0.0056865268 0.50430203)
(0 -0.006925975 0.504847)
(0 -0.0083071364 0.50555349)
(0 -0.0098660805 0.50646928)
(0 -0.011647001 0.50766153)
(0 -0.013702143 0.50922508)
(0 -0.016101014 0.5112979)
(0 -0.018938906 0.51407937)
(0 -0.022247187 0.51783828)
(0 -0.026266682 0.52346746)
(0 -0.03185042 0.53537493)
(0 -0.039761542 0.5558965)
(0 -0.044895662 0.52282216)
(0 -0.014091153 0.26264396)
(0 0.0077701692 0.21554078)
(0 0.044826078 0.50800978)
(0 0.046256032 0.57438086)
(0 0.038035893 0.55375141)
(0 0.031288457 0.53496064)
(0 0.026768904 0.52603043)
(0 0.023117236 0.5205386)
(0 0.019921286 0.51648845)
(0 0.017182504 0.51344188)
(0 0.014813675 0.51113091)
(0 0.01274637 0.50935981)
(0 0.010928538 0.50799132)
(0 0.0093142786 0.50692781)
(0 0.007865625 0.50609937)
(0 0.0065508354 0.5054554)
(0 0.0053429555 0.50495905)
(0 0.0042188773 0.50458354)
(0 0.0031584723 0.50430962)
(0 0.0021438407 0.50412384)
(0 0.0011586608 0.5040174)
(0 0.00018762044 0.50398542)
(0 -0.0007841328 0.50402651)
(0 -0.0017715197 0.50414274)
(0 -0.0027899922 0.50433973)
(0 -0.0038561186 0.50462715)
(0 -0.0049881599 0.50501949)
(0 -0.0062067322 0.50553739)
(0 -0.0075355714 0.50620942)
(0 -0.0090023589 0.50707492)
(0 -0.010639889 0.50818806)
(0 -0.012487739 0.50962407)
(0 -0.014591041 0.511488)
(0 -0.017005995 0.51392875)
(0 -0.019814258 0.51715503)
(0 -0.023031793 0.52147991)
(0 -0.026881142 0.52818232)
(0 -0.032353082 0.54222015)
(0 -0.039405637 0.56050176)
(0 -0.04032999 0.50908234)
(0 -0.0097085229 0.23585578)
(0 0.0040050038 0.19355601)
(0 0.037899803 0.48948679)
(0 0.043687691 0.57524007)
(0 0.037564704 0.56084527)
(0 0.031155001 0.54036135)
(0 0.026914941 0.5300116)
(0 0.023514843 0.5239021)
(0 0.020480982 0.51941295)
(0 0.017827338 0.51598823)
(0 0.015489951 0.5133594)
(0 0.013418493 0.51132464)
(0 0.011571617 0.50973809)
(0 0.0099111609 0.50849509)
(0 0.0084048922 0.50751999)
(0 0.0070249838 0.5067574)
(0 0.0057471671 0.50616661)
(0 0.0045501622 0.50571776)
(0 0.0034150532 0.50538923)
(0 0.0023247284 0.50516582)
(0 0.0012633753 0.50503753)
(0 0.0002160228 0.50499878)
(0 -0.0008319136 0.505048)
(0 -0.0018950825 0.50518754)
(0 -0.0029885689 0.50542379)
(0 -0.0041283916 0.50576773)
(0 -0.0053319611 0.50623572)
(0 -0.0066185947 0.50685085)
(0 -0.0080100992 0.50764494)
(0 -0.0095313277 0.50866134)
(0 -0.011210877 0.50995912)
(0 -0.01308261 0.51161959)
(0 -0.015184042 0.51375544)
(0 -0.017557812 0.5165224)
(0 -0.020268063 0.52013153)
(0 -0.02332266 0.52496305)
(0 -0.026963614 0.53273974)
(0 -0.032205216 0.54839057)
(0 -0.037997298 0.56254316)
(0 -0.03541652 0.49379083)
(0 -0.0062008809 0.21325012)
(0 0.0015511431 0.17613306)
(0 0.031499916 0.47076125)
(0 0.040533052 0.57338567)
(0 0.036559811 0.56659869)
(0 0.030638169 0.54537871)
(0 0.026672456 0.53370484)
(0 0.023543841 0.5270326)
(0 0.020711087 0.52218884)
(0 0.01818353 0.51845174)
(0 0.015917705 0.51555162)
(0 0.013879184 0.51328633)
(0 0.012036535 0.51150523)
(0 0.010359461 0.5100993)
(0 0.0088217054 0.50898901)
(0 0.0073997403 0.50811566)
(0 0.0060724528 0.50743571)
(0 0.0048208707 0.50691698)
(0 0.0036277561 0.50653603)
(0 0.0024772336 0.50627627)
(0 0.001354427 0.50612674)
(0 0.0002451178 0.50608132)
(0 -0.00086460637 0.50613827)
(0 -0.0019887167 0.50630018)
(0 -0.0031415165 0.50657407)
(0 -0.0043380442 0.50697193)
(0 -0.0055944076 0.50751161)
(0 -0.0069281503 0.50821813)
(0 -0.0083586586 0.50912572)
(0 -0.0099074994 0.51028068)
(0 -0.011598679 0.51174557)
(0 -0.013459918 0.51360575)
(0 -0.015521284 0.51597867)
(0 -0.0178134 0.5190229)
(0 -0.020383208 0.52294944)
(0 -0.023237946 0.52823521)
(0 -0.026658082 0.53704015)
(0 -0.031568093 0.55365891)
(0 -0.035907479 0.56230739)
(0 -0.030554813 0.47788889)
(0 -0.0035912289 0.19460728)
(0 7.6757022e-05 0.16252449)
(0 0.025870699 0.45259982)
(0 0.037160352 0.56943317)
(0 0.03519216 0.57098912)
(0 0.029878142 0.54996325)
(0 0.026174483 0.53711418)
(0 0.023306606 0.52991275)
(0 0.020688111 0.52478467)
(0 0.018308473 0.52079871)
(0 0.016139313 0.51767465)
(0 0.014159339 0.51521394)
(0 0.012345697 0.51326438)
(0 0.010675307 0.51171476)
(0 0.0091275583 0.51048338)
(0 0.0076831972 0.50950946)
(0 0.0063244184 0.50874761)
(0 0.0050347869 0.5081641)
(0 0.0037990173 0.50773417)
(0 0.0026027651 0.50744023)
(0 0.001432394 0.50727059)
(0 0.00027474261 0.50721874)
(0 -0.00088312347 0.50728281)
(0 -0.0020541912 0.50746555)
(0 -0.0032516762 0.50777447)
(0 -0.0044893308 0.50822234)
(0 -0.0057816617 0.50882805)
(0 -0.007144162 0.50961801)
(0 -0.008593557 0.5106281)
(0 -0.010147987 0.51190657)
(0 -0.011826935 0.51351813)
(0 -0.01365219 0.51555045)
(0 -0.015646969 0.51812327)
(0 -0.017831904 0.52139481)
(0 -0.02023937 0.52557947)
(0 -0.022882952 0.53128225)
(0 -0.026080663 0.54103103)
(0 -0.030572297 0.55793424)
(0 -0.033429472 0.56018962)
(0 -0.025996667 0.4620655)
(0 -0.0017652742 0.17946751)
(0 -0.0007179544 0.15190689)
(0 0.021108331 0.43543431)
(0 0.03381994 0.56393151)
(0 0.033604803 0.57408939)
(0 0.0289756 0.55409427)
(0 0.025520587 0.54026386)
(0 0.022886777 0.53255303)
(0 0.020479014 0.52719247)
(0 0.018255178 0.52301309)
(0 0.016195866 0.51970893)
(0 0.014290349 0.51708666)
(0 0.012522867 0.51499489)
(0 0.010876525 0.51332171)
(0 0.0093356897 0.5119845)
(0 0.007885078 0.51092145)
(0 0.0065100917 0.51008619)
(0 0.0051968567 0.50944404)
(0 0.0039321473 0.5089694)
(0 0.0027033077 0.50864404)
(0 0.0014981272 0.50845579)
(0 0.00030470286 0.50839785)
(0 -0.00088871394 0.50846826)
(0 -0.0020939166 0.5086699)
(0 -0.0033228321 0.5090106)
(0 -0.0045877395 0.50950364)
(0 -0.0059013876 0.51016862)
(0 -0.0072771136 0.5110328)
(0 -0.0087289534 0.51213305)
(0 -0.01027172 0.51351869)
(0 -0.011920729 0.51525555)
(0 -0.01369243 0.5174323)
(0 -0.015603976 0.52016907)
(0 -0.017667836 0.52362178)
(0 -0.019905474 0.52801612)
(0 -0.022343079 0.53411031)
(0 -0.025322303 0.54468138)
(0 -0.029332986 0.56120718)
(0 -0.030794827 0.55658506)
(0 -0.021895663 0.44675893)
(0 -0.00056468077 0.16724363)
(0 -0.0010700832 0.14358293)
(0 0.017203673 0.41947887)
(0 0.030667422 0.55733997)
(0 0.031915662 0.57602067)
(0 0.028004618 0.55776415)
(0 0.024784311 0.54317974)
(0 0.022350814 0.53497617)
(0 0.02013944 0.52941814)
(0 0.018069424 0.52509087)
(0 0.016124392 0.52164503)
(0 0.014301721 0.51889202)
(0 0.012591259 0.51668271)
(0 0.010981145 0.51490555)
(0 0.0094599414 0.51347782)
(0 0.008015869 0.51233749)
(0 0.0066372719 0.51143781)
(0 0.0053127129 0.51074368)
(0 0.0040310032 0.5102291)
(0 0.0027812182 0.50987545)
(0 0.0015526567 0.5096703)
(0 0.00033478195 0.50960667)
(0 -0.00088285021 0.50968255)
(0 -0.0021107204 0.5099009)
(0 -0.0033593599 0.51026973)
(0 -0.0046394925 0.5108026)
(0 -0.005962068 0.51151951)
(0 -0.0073382957 0.51244814)
(0 -0.0087796466 0.51362581)
(0 -0.010297863 0.51510222)
(0 -0.011904583 0.51694353)
(0 -0.013611686 0.5192385)
(0 -0.01543117 0.52210631)
(0 -0.017369021 0.52569989)
(0 -0.019439837 0.53026638)
(0 -0.021687288 0.53673109)
(0 -0.024456234 0.5479711)
(0 -0.027951863 0.56352156)
(0 -0.028174121 0.55185542)
(0 -0.018325972 0.43223386)
(0 0.00016898161 0.15738962)
(0 -0.0011531905 0.13700121)
(0 0.014079237 0.40481385)
(0 0.02778285 0.55003286)
(0 0.030212786 0.57693042)
(0 0.027017613 0.56097933)
(0 0.024018651 0.54588581)
(0 0.021750597 0.53720914)
(0 0.019714585 0.5314748)
(0 0.017789551 0.52703529)
(0 0.015956999 0.52348039)
(0 0.014219933 0.5206236)
(0 0.012572373 0.51831902)
(0 0.011006381 0.51645602)
(0 0.0095139041 0.51495238)
(0 0.0080861329 0.51374633)
(0 0.0067139963 0.51279122)
(0 0.0053882766 0.51205191)
(0 0.0040997068 0.5115023)
(0 0.0028390481 0.51112365)
(0 0.0015971096 0.51090341)
(0 0.00036475041 0.51083452)
(0 -0.00086712734 0.51091496)
(0 -0.0021076491 0.5111477)
(0 -0.0033659235 0.51154083)
(0 -0.0046511203 0.51210802)
(0 -0.0059724395 0.51286938)
(0 -0.0073390842 0.51385271)
(0 -0.0087601843 0.51509532)
(0 -0.01024476 0.51664684)
(0 -0.011801332 0.51857318)
(0 -0.013438035 0.52096254)
(0 -0.015162705 0.52393225)
(0 -0.0169765 0.5276328)
(0 -0.018891049 0.53234394)
(0 -0.020970147 0.53915874)
(0 -0.023539665 0.55089369)
(0 -0.026511403 0.56495994)
(0 -0.025678611 0.54631851)
(0 -0.015299243 0.41863827)
(0 0.00057384269 0.14944268)
(0 -0.0010856062 0.13172197)
(0 0.011624377 0.39143056)
(0 0.025194068 0.54230388)
(0 0.028554992 0.57697291)
(0 0.026047986 0.5637595)
(0 0.023258974 0.54840492)
(0 0.021124654 0.53928041)
(0 0.019239901 0.53337985)
(0 0.01744679 0.52885432)
(0 0.01572075 0.5252171)
(0 0.014067986 0.52227948)
(0 0.012485416 0.51989902)
(0 0.010968014 0.51796643)
(0 0.0095103442 0.51640027)
(0 0.0081060104 0.51513934)
(0 0.006748131 0.51413738)
(0 0.0054294386 0.51335949)
(0 0.0041424139 0.5127797)
(0 0.0028793954 0.51237931)
(0 0.0016326417 0.5121458)
(0 0.00039437493 0.5120721)
(0 -0.00084317606 0.51215617)
(0 -0.0020878015 0.51240098)
(0 -0.0033472226 0.51281461)
(0 -0.0046291209 0.51341069)
(0 -0.0059410598 0.51420926)
(0 -0.0072904194 0.51523794)
(0 -0.0086842711 0.51653379)
(0 -0.010129316 0.51814598)
(0 -0.011631527 0.52013985)
(0 -0.013196113 0.52260263)
(0 -0.014827736 0.52564928)
(0 -0.01652432 0.5294297)
(0 -0.018297833 0.53426696)
(0 -0.020232303 0.54140988)
(0 -0.022614156 0.5534568)
(0 -0.02507268 0.56562681)
(0 -0.023370991 0.54024017)
(0 -0.012785857 0.40603403)
(0 0.00075901195 0.14300852)
(0 -0.00094377038 0.12739959)
(0 0.0097203208 0.37926294)
(0 0.022897623 0.53437343)
(0 0.026977477 0.57629321)
(0 0.025114485 0.56613189)
(0 0.02252652 0.55075779)
(0 0.020499659 0.54121768)
(0 0.018741844 0.53515294)
(0 0.017065636 0.53055898)
(0 0.015437712 0.5268605)
(0 0.01386525 0.52386095)
(0 0.012347017 0.52142102)
(0 0.010880054 0.51943296)
(0 0.0094608462 0.51781617)
(0 0.0080848841 0.51651018)
(0 0.0067470782 0.51546929)
(0 0.0054418222 0.514659)
(0 0.0041631362 0.51405361)
(0 0.0029047891 0.51363461)
(0 0.0016603837 0.51338958)
(0 0.00042342684 0.51331149)
(0 -0.00081259202 0.51339831)
(0 -0.0020541943 0.51365296)
(0 -0.0033077961 0.51408345)
(0 -0.004579701 0.51470328)
(0 -0.0058759914 0.51553225)
(0 -0.0072024438 0.51659766)
(0 -0.0085643791 0.51793611)
(0 -0.0099665936 0.51959614)
(0 -0.011413064 0.52164229)
(0 -0.012906813 0.5241606)
(0 -0.014450224 0.52726363)
(0 -0.016039453 0.53110347)
(0 -0.017689326 0.53605586)
(0 -0.019501942 0.54350207)
(0 -0.021707764 0.55567783)
(0 -0.023677715 0.56563218)
(0 -0.021279332 0.53383189)
(0 -0.010733308 0.39442061)
(0 0.00080480603 0.13775377)
(0 -0.0007751725 0.123773)
(0 0.0082544159 0.36821405)
(0 0.02087325 0.52640098)
(0 0.025498144 0.57501914)
(0 0.024225915 0.56812608)
(0 0.021832451 0.55296138)
(0 0.019892772 0.54304561)
(0 0.018239192 0.5368138)
(0 0.016664552 0.53216176)
(0 0.015125265 0.52841787)
(0 0.013627531 0.52537147)
(0 0.012171157 0.52288561)
(0 0.01075458 0.52085398)
(0 0.0093756142 0.51919684)
(0 0.0080311721 0.51785444)
(0 0.0067175843 0.51678171)
(0 0.0054306189 0.51594463)
(0 0.0041656161 0.51531787)
(0 0.0029176055 0.51488315)
(0 0.0016814024 0.51462822)
(0 0.00045168963 0.51454614)
(0 -0.00077688163 0.51463487)
(0 -0.0020096632 0.5148973)
(0 -0.0032518788 0.51534129)
(0 -0.0045085932 0.51598013)
(0 -0.0057845871 0.51683332)
(0 -0.0070842662 0.51792774)
(0 -0.0084115087 0.51929942)
(0 -0.0097696015 0.52099618)
(0 -0.011161021 0.52308171)
(0 -0.012587237 0.52564081)
(0 -0.014049113 0.5287839)
(0 -0.015542334 0.53266882)
(0 -0.01708631 0.53773094)
(0 -0.018797318 0.54545177)
(0 -0.020838053 0.5575792)
(0 -0.022353082 0.56508095)
(0 -0.019408751 0.52725564)
(0 -0.0090788335 0.38375751)
(0 0.00076773033 0.13340603)
(0 -0.0006077988 0.12065195)
(0 0.0071274719 0.358175)
(0 0.019092936 0.51849864)
(0 0.024122869 0.5732597)
(0 0.023384745 0.56977143)
(0 0.021181234 0.55502862)
(0 0.019314095 0.54478466)
(0 0.017744661 0.53838079)
(0 0.01625698 0.53367525)
(0 0.014796675 0.52989733)
(0 0.01336736 0.52681582)
(0 0.011969274 0.52429485)
(0 0.010601729 0.52222947)
(0 0.0092634021 0.52054063)
(0 0.0079522291 0.51916926)
(0 0.0066656333 0.51807089)
(0 0.0054004909 0.51721199)
(0 0.004153246 0.51656762)
(0 0.0029200139 0.5161198)
(0 0.0016966763 0.51585646)
(0 0.00047896547 0.51577074)
(0 -0.00073742398 0.51586063)
(0 -0.0019567937 0.51612895)
(0 -0.0031833062 0.51658341)
(0 -0.0044209407 0.51723705)
(0 -0.0056733625 0.51810901)
(0 -0.0069438372 0.5192257)
(0 -0.0082350882 0.52062256)
(0 -0.0095492489 0.52234671)
(0 -0.010887724 0.52446101)
(0 -0.012250939 0.52704907)
(0 -0.013638865 0.53021981)
(0 -0.015047828 0.53414064)
(0 -0.016502807 0.53931068)
(0 -0.018129224 0.54727334)
(0 -0.020014752 0.55918534)
(0 -0.021113255 0.56406787)
(0 -0.017750012 0.52063207)
(0 -0.0077577218 0.37398182)
(0 0.00068619603 0.12974996)
(0 -0.00045657 0.11790119)
(0 0.0062569056 0.34903629)
(0 0.017526548 0.51074292)
(0 0.022849768 0.57110619)
(0 0.022589622 0.57109594)
(0 0.020573054 0.55696891)
(0 0.01876868 0.54645096)
(0 0.017266374 0.53987005)
(0 0.015852365 0.53511136)
(0 0.014461787 0.53130705)
(0 0.013094427 0.52819929)
(0 0.011750506 0.52565172)
(0 0.01042982 0.5235605)
(0 0.0091315477 0.52184711)
(0 0.0078543321 0.52045303)
(0 0.0065964089 0.5193343)
(0 0.0053555249 0.51845788)
(0 0.0041290279 0.5177992)
(0 0.0029139472 0.51734058)
(0 0.0017070821 0.51707012)
(0 0.00050508064 0.51698109)
(0 -0.00069544703 0.51707149)
(0 -0.0018978812 0.51734404)
(0 -0.0031054619 0.51780631)
(0 -0.0043212385 0.51847107)
(0 -0.0055479437 0.5193571)
(0 -0.0067879186 0.52049033)
(0 -0.0080429902 0.52190564)
(0 -0.0093144444 0.5236495)
(0 -0.010602965 0.52578406)
(0 -0.011908344 0.5283919)
(0 -0.013230145 0.53158125)
(0 -0.014566244 0.535533)
(0 -0.015947544 0.54081112)
(0 -0.017502996 0.5489789)
(0 -0.019241881 0.56052093)
(0 -0.019963697 0.56267566)
(0 -0.016285849 0.51404871)
(0 -0.0067087633 0.36502005)
(0 0.00058538112 0.12661901)
(0 -0.00032795152 0.11542645)
(0 0.0055769799 0.34069404)
(0 0.016145148 0.50318389)
(0 0.021672567 0.56863434)
(0 0.02183717 0.57212567)
(0 0.020005516 0.5587889)
(0 0.018258101 0.54805671)
(0 0.016809075 0.54129533)
(0 0.015457067 0.53648086)
(0 0.01412769 0.53265478)
(0 0.012816047 0.52952729)
(0 0.011521995 0.52695967)
(0 0.010245532 0.52484884)
(0 0.0089860754 0.52311667)
(0 0.007742728 0.52170502)
(0 0.0065143076 0.52057037)
(0 0.0052992287 0.51968008)
(0 0.004095562 0.51900992)
(0 0.0029010917 0.51854248)
(0 0.0017133905 0.51826606)
(0 0.00052988911 0.518174)
(0 -0.0006520158 0.51826433)
(0 -0.0018349133 0.5185397)
(0 -0.0030212583 0.5190075)
(0 -0.0042133217 0.51968025)
(0 -0.0054130735 0.52057638)
(0 -0.0066221245 0.52172139)
(0 -0.0078416287 0.52314964)
(0 -0.0090722782 0.52490708)
(0 -0.010314316 0.52705526)
(0 -0.011567209 0.52967593)
(0 -0.012830487 0.53287771)
(0 -0.014104265 0.53685861)
(0 -0.015425217 0.54224562)
(0 -0.016920109 0.55057836)
(0 -0.018519547 0.56160971)
(0 -0.018903696 0.56097482)
(0 -0.014995431 0.50756701)
(0 -0.0058773582 0.35679555)
(0 0.00048102937 0.12388649)
(0 -0.00022327538 0.11316332)
(0 0.0050372119 0.33305327)
(0 0.014922638 0.49585243)
(0 0.020583018 0.56590659)
(0 0.02112325 0.57288452)
(0 0.019474892 0.56049304)
(0 0.017781684 0.54961072)
(0 0.016375099 0.54266801)
(0 0.015075113 0.53779324)
(0 0.013799307 0.53394765)
(0 0.012537594 0.53080503)
(0 0.0112892 0.52822226)
(0 0.010054121 0.52609665)
(0 0.0088318358 0.52435029)
(0 0.007621719 0.52292525)
(0 0.0064229883 0.52177832)
(0 0.0052345556 0.52087719)
(0 0.0040550587 0.52019794)
(0 0.0028828922 0.51972337)
(0 0.0017162689 0.51944195)
(0 0.00055327492 0.51934713)
(0 -0.00060803027 0.51943692)
(0 -0.00176957 0.51971391)
(0 -0.002933145 0.52018532)
(0 -0.0041003872 0.52086346)
(0 -0.0052726579 0.52176642)
(0 -0.0064510067 0.52291934)
(0 -0.0076361006 0.52435615)
(0 -0.0088282418 0.52612237)
(0 -0.010027443 0.52827913)
(0 -0.011233077 0.53090759)
(0 -0.012444919 0.53411798)
(0 -0.013665789 0.53812861)
(0 -0.014937585 0.54362494)
(0 -0.016379469 0.55207963)
(0 -0.017845416 0.56247372)
(0 -0.017928736 0.55902436)
(0 -0.013857255 0.50122851)
(0 -0.0052168376 0.34923321)
(0 0.00038234672 0.12145759)
(0 -0.00014101295 0.11106841)
(0 0.0045999458 0.32602936)
(0 0.013836339 0.48876585)
(0 0.019572451 0.56297447)
(0 0.020443733 0.5733943)
(0 0.018976966 0.56208421)
(0 0.017337437 0.55111894)
(0 0.015965146 0.54399725)
(0 0.014708826 0.53905669)
(0 0.013479905 0.53519202)
(0 0.012262903 0.53203736)
(0 0.011056197 0.52944304)
(0 0.009859641 0.52730631)
(0 0.0086726607 0.52554931)
(0 0.0074947691 0.5241142)
(0 0.006325441 0.52295794)
(0 0.0051639487 0.52204846)
(0 0.0040093643 0.52136207)
(0 0.0028605666 0.52088178)
(0 0.0017162878 0.5205962)
(0 0.00057515297 0.52049883)
(0 -0.00056423085 0.5205877)
(0 -0.0017032377 0.52086533)
(0 -0.0028431341 0.5213388)
(0 -0.003985039 0.52202021)
(0 -0.0051298391 0.52292739)
(0 -0.0062781653 0.52408514)
(0 -0.0074303494 0.52552709)
(0 -0.0085864606 0.52729846)
(0 -0.0097464352 0.52946009)
(0 -0.010909714 0.53209287)
(0 -0.012076521 0.53530989)
(0 -0.013252652 0.53935242)
(0 -0.014484391 0.54495737)
(0 -0.015878429 0.55348879)
(0 -0.017215812 0.56313293)
(0 -0.017032236 0.5568732)
(0 -0.012850879 0.49505992)
(0 -0.004688656 0.34226233)
(0 0.00029416285 0.11926251)
(0 -7.8254702e-05 0.10911267)
(0 0.0042377656 0.31954819)
(0 0.012866968 0.48193202)
(0 0.018632646 0.55988065)
(0 0.019794914 0.57367493)
(0 0.018507569 0.56356428)
(0 0.016922711 0.55258506)
(0 0.015578871 0.54529021)
(0 0.014359335 0.54027811)
(0 0.013171517 0.53639347)
(0 0.011994607 0.53322867)
(0 0.010825948 0.53062535)
(0 0.0096651472 0.52848022)
(0 0.008511518 0.5267153)
(0 0.0073646161 0.5252727)
(0 0.0062240674 0.52410944)
(0 0.0050893954 0.52319362)
(0 0.0039599967 0.52250171)
(0 0.0028351268 0.52201686)
(0 0.0017139307 0.52172779)
(0 0.0005954689 0.52162807)
(0 -0.0005212087 0.52171573)
(0 -0.0016370318 0.52199322)
(0 -0.002752839 0.5224675)
(0 -0.0038693466 0.5231505)
(0 -0.0049870811 0.52405983)
(0 -0.0061063722 0.52522005)
(0 -0.0072273356 0.52666455)
(0 -0.0083499249 0.52843839)
(0 -0.0094741037 0.53060228)
(0 -0.010599495 0.53323716)
(0 -0.011726918 0.53646029)
(0 -0.012865241 0.5405378)
(0 -0.014064084 0.54624906)
(0 -0.015413523 0.55481043)
(0 -0.016626489 0.56360528)
(0 -0.016206762 0.55456164)
(0 -0.011957813 0.48907715)
(0 -0.004261878 0.33581821)
(0 0.0002184613 0.11725063)
(0 -3.1634084e-05 0.10727651)
(0 0.0039311036 0.31354562)
(0 0.011998333 0.47535245)
(0 0.017756257 0.55666076)
(0 0.019173668 0.57374474)
(0 0.018062871 0.56493454)
(0 0.016534628 0.55401107)
(0 0.015215297 0.54655239)
(0 0.01402695 0.54146327)
(0 0.012875288 0.53755681)
(0 0.011734436 0.53438286)
(0 0.010600538 0.53177231)
(0 0.0094728898 0.52962072)
(0 0.0083506596 0.52784992)
(0 0.0072333843 0.5264018)
(0 0.0061207629 0.52523338)
(0 0.0050124857 0.5243128)
(0 0.0039081852 0.52361665)
(0 0.0028074026 0.52312818)
(0 0.0017096049 0.5228362)
(0 0.00061419681 0.52273431)
(0 -0.00047942041 0.52282054)
(0 -0.0015718244 0.52309728)
(0 -0.0026635186 0.52357141)
(0 -0.0037549109 0.5242547)
(0 -0.0048462625 0.5251646)
(0 -0.0059376962 0.52632551)
(0 -0.0070292029 0.52777067)
(0 -0.0081207048 0.52954509)
(0 -0.0092122588 0.53170949)
(0 -0.010303745 0.53434522)
(0 -0.011396684 0.53757501)
(0 -0.012502964 0.541691)
(0 -0.013674364 0.54750434)
(0 -0.014980969 0.55604799)
(0 -0.016073139 0.56390678)
(0 -0.015444831 0.5521229)
(0 -0.011161868 0.48328839)
(0 -0.003912268 0.32984278)
(0 0.00015544702 0.11538563)
(0 2.130956e-06 0.1055463)
(0 0.0036661991 0.30796648)
(0 0.011216915 0.46902434)
(0 0.016936945 0.55334467)
(0 0.018577475 0.57362075)
(0 0.017639521 0.56619607)
(0 0.01617035 0.55539771)
(0 0.014873104 0.54778787)
(0 0.013711452 0.54261693)
(0 0.012591736 0.53868616)
(0 0.011483443 0.53550337)
(0 0.010381379 0.53288671)
(0 0.0092844781 0.53073005)
(0 0.0081917552 0.52895483)
(0 0.0071026886 0.52750269)
(0 0.0060169962 0.5263305)
(0 0.0049344711 0.5254064)
(0 0.0038549104 0.52470703)
(0 0.0027780668 0.5242157)
(0 0.001703652 0.52392127)
(0 0.00063133735 0.52381737)
(0 -0.00043920325 0.52390202)
(0 -0.0015082748 0.52417756)
(0 -0.0025761248 0.52465081)
(0 -0.0036429314 0.52533342)
(0 -0.0047087677 0.52624274)
(0 -0.0057736233 0.52740305)
(0 -0.006837432 0.52884754)
(0 -0.0079001424 0.53062128)
(0 -0.0089619426 0.53278512)
(0 -0.010023015 0.5354212)
(0 -0.011085658 0.53865893)
(0 -0.012164615 0.54281691)
(0 -0.013312562 0.54872609)
(0 -0.014577014 0.55720403)
(0 -0.015551709 0.56405176)
(0 -0.0147394 0.54958437)
(0 -0.010449172 0.4776964)
(0 -0.0036212199 0.3242846)
(0 0.00010428978 0.11364161)
(0 2.5960032e-05 0.10391212)
(0 0.0034334591 0.30276345)
(0 0.010511428 0.46294213)
(0 0.016169335 0.54995761)
(0 0.018004354 0.57331882)
(0 0.017234684 0.56735003)
(0 0.015827225 0.55674486)
(0 0.014550821 0.54899961)
(0 0.013412287 0.54374301)
(0 0.012320947 0.53978507)
(0 0.011242191 0.53659319)
(0 0.010169371 0.5339711)
(0 0.0091010208 0.53181028)
(0 0.0080360082 0.5300317)
(0 0.0069737291 0.52857661)
(0 0.0059138837 0.5274017)
(0 0.0048563197 0.52647503)
(0 0.0038009434 0.52577323)
(0 0.0027476587 0.52527964)
(0 0.0016963585 0.52498314)
(0 0.00064691483 0.52487737)
(0 -0.00040079175 0.52496035)
(0 -0.0014468607 0.52523439)
(0 -0.0024913496 0.52570623)
(0 -0.0035342715 0.52638747)
(0 -0.0045755727 0.52729537)
(0 -0.005615166 0.52845419)
(0 -0.0066529767 0.52989714)
(0 -0.0076890171 0.53166943)
(0 -0.008723624 0.53383216)
(0 -0.0097573079 0.53646864)
(0 -0.0107932 0.53971611)
(0 -0.011848637 0.54391926)
(0 -0.012975913 0.54991606)
(0 -0.014198131 0.55828055)
(0 -0.015058564 0.56405313)
(0 -0.01408412 0.54696878)
(0 -0.0098080048 0.47230022)
(0 -0.0033746896 0.31909854)
(0 6.3630587e-05 0.11200013)
(0 4.2302228e-05 0.10236622)
(0 0.0032262034 0.29789602)
(0 0.0098724152 0.4570985)
(0 0.015448902 0.54652097)
(0 0.01745277 0.57285385)
(0 0.016846025 0.56839777)
(0 0.015502857 0.55805186)
(0 0.014246941 0.55018966)
(0 0.013128714 0.5448447)
(0 0.012062722 0.54085654)
(0 0.011010891 0.53765496)
(0 0.0099650287 0.53502774)
(0 0.0089232416 0.53286335)