/*--------------------------------*- C++ -*----------------------------------*\
  =========                 |
  \\      /  F ield         | OpenFOAM: The Open Source CFD Toolbox
   \\    /   O peration     | Website:  https://openfoam.org
    \\  /    A nd           | Version:  10
     \\/     M anipulation  |
\*---------------------------------------------------------------------------*/
FoamFile
{
    format      ascii;
    class       surfaceScalarField;
    location    "0.2";
    object      phi;
}
// * * * * * * * * * * * * * * * * * * * * * * * * * * * * * * * * * * * * * //

dimensions      [1 0 -1 0 0 0 0];

internalField   nonuniform List<scalar> 
7860
(
3.9895841e-08
5.2881219e-07
1.2192628e-08
5.9641101e-07
7.4278113e-09
5.7347256e-07
5.4993235e-09
5.7063619e-07
4.1149044e-09
5.7009209e-07
3.2010596e-09
5.6962149e-07
2.5590772e-09
5.6934961e-07
2.079264e-09
5.6918743e-07
1.7092914e-09
5.6907758e-07
1.4166354e-09
5.6900025e-07
1.1795004e-09
5.6894472e-07
9.8312309e-10
5.6890396e-07
8.1715968e-10
5.6887354e-07
6.7411967e-10
5.6885061e-07
5.4842952e-10
5.6883326e-07
4.3582829e-10
5.6882017e-07
3.3296204e-10
5.6881043e-07
2.3710315e-10
5.6880342e-07
1.4594838e-10
5.6879871e-07
5.7466273e-11
5.6879604e-07
-3.0226225e-11
5.6879525e-07
-1.1897159e-10
5.687963e-07
-2.1067657e-10
5.6879926e-07
-3.07419e-10
5.688043e-07
-4.1157988e-10
5.6881172e-07
-5.2600644e-10
5.6882199e-07
-6.5423304e-10
5.6883579e-07
-8.0079378e-10
5.6885413e-07
-9.7168322e-10
5.6887846e-07
-1.1750631e-09
5.6891096e-07
-1.4224352e-09
5.6895496e-07
-1.7306117e-09
5.6901577e-07
-2.1245714e-09
5.6910156e-07
-2.6441967e-09
5.6922724e-07
-3.3719015e-09
5.6943534e-07
-4.4632425e-09
5.6979899e-07
-6.0086454e-09
5.7025308e-07
-9.5076927e-09
5.7220676e-07
-2.9575452e-08
5.8877551e-07
5.3913247e-07
5.9672171e-08
4.6914002e-07
3.666559e-08
6.1941759e-07
2.2627802e-08
5.8751035e-07
1.6253211e-08
5.7701078e-07
1.2290162e-08
5.7405514e-07
9.6059394e-09
5.7230572e-07
7.6771993e-09
5.7127835e-07
6.2359052e-09
5.7062872e-07
5.1264596e-09
5.7018702e-07
4.2487888e-09
5.6987792e-07
3.5375574e-09
5.6965595e-07
2.9485955e-09
5.6949292e-07
2.4508566e-09
5.6937128e-07
2.0218644e-09
5.692796e-07
1.6449032e-09
5.6921022e-07
1.3071944e-09
5.6915787e-07
9.9867945e-10
5.6911894e-07
7.1117881e-10
5.6909092e-07
4.3778541e-10
5.6907211e-07
1.7240629e-10
5.6906142e-07
-9.0606201e-11
5.6905826e-07
-3.5677663e-10
5.6906247e-07
-6.3181849e-10
5.6907431e-07
-9.2196549e-10
5.6909445e-07
-1.2343581e-09
5.6912411e-07
-1.5775349e-09
5.6916517e-07
-1.9620944e-09
5.6922035e-07
-2.401634e-09
5.6929367e-07
-2.9141385e-09
5.6939097e-07
-3.5241015e-09
5.6952092e-07
-4.2659437e-09
5.696968e-07
-5.1900321e-09
5.6993986e-07
-6.3729933e-09
5.7028453e-07
-7.9335474e-09
5.707878e-07
-1.007492e-08
5.7157671e-07
-1.3203241e-08
5.7292731e-07
-1.8133284e-08
5.7518312e-07
-2.8175596e-08
5.8224907e-07
-4.5801751e-08
6.0640167e-07
4.9333072e-07
6.0008301e-08
4.0913173e-07
5.0486525e-08
6.2893937e-07
3.3369988e-08
6.0462688e-07
2.4817019e-08
5.8556375e-07
1.9322624e-08
5.7954954e-07
1.5330939e-08
5.762974e-07
1.2360247e-08
5.7424905e-07
1.0101192e-08
5.7288778e-07
8.3403956e-09
5.7194782e-07
6.9347355e-09
5.7128358e-07
5.788131e-09
5.7080256e-07
4.8338156e-09
5.7044724e-07
4.0240227e-09
5.7018107e-07
3.3237649e-09
5.6997986e-07
2.7067765e-09
5.6982721e-07
2.1528232e-09
5.6971183e-07
1.6458773e-09
5.6962589e-07
1.1728374e-09
5.6956396e-07
7.2259373e-10
5.6952235e-07
2.8531595e-10
5.694987e-07
-1.4812485e-10
5.694917e-07
-5.8666202e-10
5.6950101e-07
-1.0395265e-09
5.6952717e-07
-1.5167671e-09
5.6957169e-07
-2.0298532e-09
5.696372e-07
-2.592434e-09
5.6972775e-07
-3.2213508e-09
5.6984927e-07
-3.9380473e-09
5.7001037e-07
-4.7706204e-09
5.7022354e-07
-5.7568827e-09
5.7050719e-07
-6.9490221e-09
5.7088894e-07
-8.4212397e-09
5.7141208e-07
-1.0282937e-08
5.7214622e-07
-1.269599e-08
5.7320085e-07
-1.5893562e-08
5.7477428e-07
-2.023755e-08
5.772713e-07
-2.670605e-08
5.8165162e-07
-3.894562e-08
5.9448864e-07
-4.8165484e-08
6.1562153e-07
4.4516524e-07
5.487836e-08
3.5425338e-07
5.7451019e-08
6.2636671e-07
4.0466448e-08
6.2161145e-07
3.0777726e-08
5.9525247e-07
2.4642066e-08
5.856852e-07
1.9951395e-08
5.8098807e-07
1.6312162e-08
5.7788828e-07
1.3465907e-08
5.7573403e-07
1.1200513e-08
5.7421321e-07
9.3642731e-09
5.7311982e-07
7.8493003e-09
5.7231753e-07
6.5771041e-09
5.7171943e-07
5.4898358e-09
5.7126834e-07
4.5441802e-09
5.7092552e-07
3.7070399e-09
5.7066435e-07
2.9525551e-09
5.7046631e-07
2.2600055e-09
5.7031844e-07
1.6122925e-09
5.7021167e-07
9.9480808e-10
5.7013983e-07
3.9455453e-10
5.7009895e-07
-2.0057877e-10
5.7008684e-07
-8.0245529e-10
5.7010289e-07
-1.4233126e-09
5.7014803e-07
-2.0764167e-09
5.7022479e-07
-2.7768126e-09
5.703376e-07
-3.5422523e-09
5.7049319e-07
-4.394402e-09
5.7070142e-07
-5.3604748e-09
5.7097644e-07
-6.4755116e-09
5.7133858e-07
-7.7856413e-09
5.7181731e-07
-9.3526477e-09
5.7245595e-07
-1.1260355e-08
5.7331978e-07
-1.3625033e-08
5.745109e-07
-1.660803e-08
5.7618385e-07
-2.0407128e-08
5.7857338e-07
-2.5289006e-08
5.8215318e-07
-3.251347e-08
5.8887609e-07
-4.5097191e-08
6.0707236e-07
-4.654693e-08
6.1707127e-07
3.9861831e-07
4.7964932e-08
3.0628847e-07
6.0074914e-08
6.1425674e-07
4.5398531e-08
6.3628783e-07
3.4873864e-08
6.0577714e-07
2.8398436e-08
5.9216062e-07
2.34183e-08
5.8596821e-07
1.9433132e-08
5.8187345e-07
1.6228189e-08
5.7893898e-07
1.3618953e-08
5.7682245e-07
1.1466014e-08
5.7527276e-07
9.6642435e-09
5.741193e-07
8.1335984e-09
5.7325008e-07
6.8130522e-09
5.7258889e-07
5.6555892e-09
5.7208298e-07
4.6244306e-09
5.7169551e-07
3.6902863e-09
5.7140046e-07
2.8293137e-09
5.7117941e-07
2.0215794e-09
5.7101941e-07
1.2498744e-09
5.7091154e-07
4.9876925e-10
5.7085006e-07
-2.4617937e-10
5.7083178e-07
-9.9913811e-10
5.7085585e-07
-1.7746876e-09
5.7092358e-07
-2.5885449e-09
5.7103865e-07
-3.4583796e-09
5.7120743e-07
-4.4047972e-09
5.714396e-07
-5.4525799e-09
5.717492e-07
-6.6322951e-09
5.7215615e-07
-7.982423e-09
5.7268871e-07
-9.5522299e-09
5.7338712e-07
-1.1405544e-08
5.7430926e-07
-1.3625182e-08
5.7553942e-07
-1.6319448e-08
5.7720517e-07
-1.9631954e-08
5.7949635e-07
-2.3732973e-08
5.826744e-07
-2.8925396e-08
5.873456e-07
-3.6785803e-08
5.9673649e-07
-4.8458663e-08
6.1874522e-07
-4.3191195e-08
6.118038e-07
3.5542711e-07
4.0335093e-08
2.659534e-07
5.8992014e-08
5.9559984e-07
4.8327875e-08
6.4695196e-07
3.7586059e-08
6.1651895e-07
3.092699e-08
5.9881969e-07
2.5892238e-08
5.9100296e-07
2.1778444e-08
5.8598724e-07
1.8390752e-08
5.8232667e-07
1.5576499e-08
5.796367e-07
1.3213634e-08
5.7763563e-07
1.1206215e-08
5.7612672e-07
9.4789445e-09
5.7497735e-07
7.9726777e-09
5.7409515e-07
6.6405056e-09
5.7341515e-07
5.4447969e-09
5.7289121e-07
4.3549292e-09
5.7249032e-07
3.3455098e-09
5.7218883e-07
2.3949755e-09
5.7196994e-07
1.4844756e-09
5.7182204e-07
5.9695077e-10
5.7173758e-07
-2.836573e-10
5.7171239e-07
-1.173123e-09
5.7174531e-07
-2.0876396e-09
5.7183809e-07
-3.0445476e-09
5.7199556e-07
-4.0631403e-09
5.7222602e-07
-5.1656103e-09
5.7254207e-07
-6.3782011e-09
5.7296179e-07
-7.7326414e-09
5.7351059e-07
-9.2679432e-09
5.7422401e-07
-1.1032709e-08
5.7515189e-07
-1.3088166e-08
5.7636472e-07
-1.5511584e-08
5.7796284e-07
-1.8400368e-08
5.8009395e-07
-2.1878703e-08
5.8297468e-07
-2.6102383e-08
5.8689808e-07
-3.1480848e-08
5.9272406e-07
-3.9647225e-08
6.0490287e-07
-4.9165601e-08
6.2826359e-07
-3.85748e-08
6.01213e-07
3.1685231e-07
3.2861621e-08
2.3309182e-07
5.5247428e-08
5.7321407e-07
4.9229298e-08
6.5297009e-07
3.9058802e-08
6.2668944e-07
3.242814e-08
6.0545035e-07
2.7516429e-08
5.9591467e-07
2.3436625e-08
5.9006704e-07
2.0001157e-08
5.8576214e-07
1.7093466e-08
5.8254439e-07
1.4611326e-08
5.8011777e-07
1.2470944e-08
5.782671e-07
1.0605065e-08
5.7684323e-07
8.9594442e-09
5.7574077e-07
7.4898825e-09
5.7488471e-07
6.1600452e-09
5.7422105e-07
4.9397005e-09
5.7371067e-07
3.8032776e-09
5.7332525e-07
2.72869e-09
5.7304453e-07
1.6963592e-09
5.7285437e-07
6.8838365e-10
5.7274556e-07
-3.1219322e-10
5.7271297e-07
-1.3220572e-09
5.7275517e-07
-2.3582893e-09
5.7287432e-07
-3.439049e-09
5.7307632e-07
-4.5843156e-09
5.7337129e-07
-5.8167356e-09
5.7377449e-07
-7.1626196e-09
5.7430768e-07
-8.6531434e-09
5.7500112e-07
-1.0325798e-08
5.7589666e-07
-1.2226164e-08
5.7705225e-07
-1.4410304e-08
5.7854886e-07
-1.694765e-08
5.8050019e-07
-1.9923053e-08
5.8306935e-07
-2.34373e-08
5.8648893e-07
-2.7631815e-08
5.9109259e-07
-3.3024865e-08
5.9811711e-07
-4.1001148e-08
6.1287915e-07
-4.7679269e-08
6.3494171e-07
-3.3371853e-08
5.8690558e-07
2.8348046e-07
2.6187789e-08
2.0690408e-07
5.0129562e-08
5.4927235e-07
4.8489756e-08
6.5460991e-07
3.9487494e-08
6.3569169e-07
3.3074175e-08
6.1186367e-07
2.8409001e-08
6.0057984e-07
2.4490202e-08
5.9398584e-07
2.1115936e-08
5.891364e-07
1.8205312e-08
5.8545502e-07
1.56791e-08
5.8264398e-07
1.3468155e-08
5.8047805e-07
1.1515295e-08
5.7879609e-07
9.7729968e-09
5.7748307e-07
8.2014646e-09
5.7645624e-07
6.7671601e-09
5.7565536e-07
5.4415313e-09
5.750363e-07
4.1999241e-09
5.7456686e-07
3.0206591e-09
5.7422379e-07
1.8842338e-09
5.7399079e-07
7.7261974e-10
5.7385717e-07
-3.3137409e-10
5.7381696e-07
-1.4446969e-09
5.738685e-07
-2.584649e-09
5.7401428e-07
-3.7694848e-09
5.7426115e-07
-5.019055e-09
5.7462086e-07
-6.3555215e-09
5.7511096e-07
-7.8041702e-09
5.7575632e-07
-9.3943575e-09
5.7659131e-07
-1.1160619e-08
5.7766292e-07
-1.3143935e-08
5.7903557e-07
-1.5393387e-08
5.8079831e-07
-1.7968264e-08
5.8307506e-07
-2.0938032e-08
5.8603912e-07
-2.4377892e-08
5.8992879e-07
-2.8423359e-08
5.9513806e-07
-3.3679443e-08
6.033732e-07
-4.1050675e-08
6.2025038e-07
-4.478701e-08
6.3867805e-07
-2.8199644e-08
5.7031822e-07
2.5528081e-07
2.0569553e-08
1.8633459e-07
4.4579447e-08
5.2526254e-07
4.6638119e-08
6.5255125e-07
3.9148612e-08
6.4318119e-07
3.3079632e-08
6.1793264e-07
2.8713756e-08
6.0494572e-07
2.5034677e-08
5.9766492e-07
2.1800818e-08
5.9237026e-07
1.8956853e-08
5.8829898e-07
1.6446723e-08
5.8515411e-07
1.4216923e-08
5.8270785e-07
1.2221264e-08
5.8079174e-07
1.0419958e-08
5.7928438e-07
8.7786408e-09
5.7809756e-07
7.2675489e-09
5.7716645e-07
5.8607076e-09
5.7644314e-07
4.5351907e-09
5.7589238e-07
3.2704543e-09
5.7548853e-07
2.0477308e-09
5.7521352e-07
8.4947147e-10
5.7505543e-07
-3.4117354e-10
5.7500761e-07
-1.5408513e-09
5.7506817e-07
-2.7665034e-09
5.7523993e-07
-4.0358671e-09
5.7553052e-07
-5.3679998e-09
5.7595299e-07
-6.7838452e-09
5.7652681e-07
-8.3068499e-09
5.7727933e-07
-9.9636492e-09
5.782481e-07
-1.1784833e-08
5.7948411e-07
-1.3805739e-08
5.8105648e-07
-1.6067368e-08
5.8305994e-07
-1.8617576e-08
5.8562527e-07
-2.1509483e-08
5.8893103e-07
-2.4797119e-08
5.9321643e-07
-2.8626647e-08
5.9896759e-07
-3.3645095e-08
6.0839165e-07
-4.0129136e-08
6.2673443e-07
-4.1146885e-08
6.396958e-07
-2.341154e-08
5.5258287e-07
2.3186927e-07
1.6013967e-08
1.7032069e-07
3.9139497e-08
5.0213711e-07
4.4112616e-08
6.4757817e-07
3.8283858e-08
6.4900993e-07
3.2648617e-08
6.2356788e-07
2.8586727e-08
6.0900761e-07
2.5179203e-08
6.0107245e-07
2.2132158e-08
5.9541731e-07
1.9401694e-08
5.9102944e-07
1.6951746e-08
5.8760406e-07
1.4743327e-08
5.8491627e-07
1.2740832e-08
5.8279424e-07
1.0912339e-08
5.8111287e-07
9.2293175e-09
5.7978058e-07
7.6662833e-09
5.7872948e-07
6.2003787e-09
5.7790904e-07
4.8109463e-09
5.7728181e-07
3.4791015e-09
5.7682037e-07
2.1873117e-09
5.7650531e-07
9.1898762e-10
5.7632375e-07
-3.4191319e-10
5.7626851e-07
-1.6112734e-09
5.7633753e-07
-2.9052075e-09
5.7653386e-07
-4.2404524e-09
5.7686576e-07
-5.6347667e-09
5.7734731e-07
-7.1073453e-09
5.7799938e-07
-8.6792467e-09
5.7885123e-07
-1.0373831e-08
5.7994269e-07
-1.2217217e-08
5.8132749e-07
-1.4238698e-08
5.8307796e-07
-1.6471111e-08
5.8529235e-07
-1.8951218e-08
5.8810538e-07
-2.1717172e-08
5.9169698e-07
-2.4809461e-08
5.9630872e-07
-2.8396854e-08
6.0255498e-07
-3.3106168e-08
6.1310096e-07
-3.8531457e-08
6.3215971e-07
-3.7201373e-08
6.3836571e-07
-1.9176915e-08
5.3455841e-07
2.1269236e-07
1.2422065e-08
1.578987e-07
3.4108801e-08
4.8045052e-07
4.1242446e-08
6.4044458e-07
3.7071369e-08
6.53181e-07
3.1935235e-08
6.28704e-07
2.8162615e-08
6.1278023e-07
2.5027393e-08
6.0420767e-07
2.2187182e-08
5.9825752e-07
1.9596917e-08
5.9361971e-07
1.7236e-08
5.8996497e-07
1.5077789e-08
5.8707448e-07
1.3095962e-08
5.8477607e-07
1.1265868e-08
5.8294296e-07
9.5646432e-09
5.8148181e-07
7.9711564e-09
5.8032297e-07
6.4658833e-09
5.7941432e-07
5.0307259e-09
5.7871697e-07
3.6487854e-09
5.7820231e-07
2.3041066e-09
5.7784999e-07
9.8140732e-10
5.7764645e-07
-3.3419837e-10
5.7758411e-07
-1.6574791e-09
5.7766082e-07
-3.0033719e-09
5.7787975e-07
-4.3872632e-09
5.7824965e-07
-5.8252673e-09
5.7878531e-07
-7.3344993e-09
5.7950862e-07
-8.9333352e-09
5.8045007e-07
-1.0641643e-08
5.81651e-07
-1.2480994e-08
5.8316684e-07
-1.4474819e-08
5.8507178e-07
-1.6648446e-08
5.8746598e-07
-1.9028775e-08
5.9048571e-07
-2.164132e-08
5.9430953e-07
-2.4520276e-08
5.9918767e-07
-2.7860005e-08
6.0589471e-07
-3.2205328e-08
6.1744628e-07
-3.6499763e-08
6.3645415e-07
-3.3251723e-08
6.3511767e-07
-1.5557425e-08
5.1686412e-07
1.9713493e-07
9.6552224e-09
1.4824358e-07
2.9639657e-08
4.6046626e-07
3.8274243e-08
6.3181008e-07
3.5649287e-08
6.5580595e-07
3.1050636e-08
6.3330264e-07
2.7545759e-08
6.162851e-07
2.4665788e-08
6.0708764e-07
2.2034641e-08
6.0088866e-07
1.9596367e-08
5.9605798e-07
1.734098e-08
5.9222036e-07
1.5251855e-08
5.891636e-07
1.3310398e-08
5.8671752e-07
1.1498262e-08
5.847551e-07
9.7977051e-09
5.8318236e-07
8.1917095e-09
5.8192896e-07
6.6640378e-09
5.8094199e-07
5.1992284e-09
5.8018177e-07
3.78252e-09
5.7961902e-07
2.3997308e-09
5.7923278e-07
1.0371076e-09
5.7900907e-07
-3.1884506e-10
5.7894007e-07
-1.6815434e-09
5.7902351e-07
-3.0645128e-09
5.7926272e-07
-4.4815671e-09
5.7966671e-07
-5.9469794e-09
5.8025072e-07
-7.4756336e-09
5.8103727e-07
-9.0831477e-09
5.8205758e-07
-1.0785949e-08
5.833538e-07
-1.2601305e-08
5.849822e-07
-1.4547311e-08
5.8701779e-07
-1.6642723e-08
5.8956139e-07
-1.8906034e-08
5.9274902e-07
-2.1352772e-08
5.9675626e-07
-2.4017051e-08
6.0185195e-07
-2.7114925e-08
6.0899258e-07
-3.106071e-08
6.2139207e-07
-3.4238163e-08
6.396316e-07
-2.950305e-08
6.3038256e-07
-1.254841e-08
4.9990947e-07
1.8458652e-07
7.5646135e-09
1.4067908e-07
2.5779714e-08
4.4225138e-07
3.5378851e-08
6.2221107e-07
3.4127445e-08
6.5705736e-07
3.0077776e-08
6.3735228e-07
2.6816116e-08
6.1954675e-07
2.4164044e-08
6.0973971e-07
2.1732287e-08
6.0332042e-07
1.9447301e-08
5.9834297e-07
1.7304719e-08
5.9436294e-07
1.5295645e-08
5.9117267e-07
1.3407684e-08
5.8860548e-07
1.1627705e-08
5.8653508e-07
9.9423763e-09
5.8486769e-07
8.3383634e-09
5.8353298e-07
6.8024936e-09
5.8247786e-07
5.321858e-09
5.8166241e-07
3.8838436e-09
5.8105704e-07
2.476114e-09
5.806405e-07
1.0865544e-09
5.8039863e-07
-2.9681024e-10
5.8032343e-07
-1.6859084e-09
5.8041261e-07
-3.0927242e-09
5.8066954e-07
-4.5293911e-09
5.8110337e-07
-6.008271e-09
5.817296e-07
-7.5420087e-09
5.8257101e-07
-9.1435508e-09
5.8365912e-07
-1.0826111e-08
5.8503636e-07
-1.260308e-08
5.8675916e-07
-1.4487904e-08
5.8890261e-07
-1.6493786e-08
5.9156727e-07
-1.863234e-08
5.9488757e-07
-2.0912096e-08
5.9903602e-07
-2.3372185e-08
6.0431204e-07
-2.6241933e-08
6.1186233e-07
-2.9773348e-08
6.2492348e-07
-3.1908278e-08
6.4176653e-07
-2.6077673e-08
6.2455195e-07
-1.0103207e-08
4.8393501e-07
1.7448331e-07
6.0096625e-09
1.3466955e-07
2.2507184e-08
4.2575413e-07
3.2658107e-08
6.1206031e-07
3.2586254e-08
6.5712923e-07
2.907671e-08
6.408618e-07
2.6033816e-08
6.2258964e-07
2.3577462e-08
6.1219607e-07
2.1327668e-08
6.0557022e-07
1.9189883e-08
6.0048075e-07
1.7160632e-08
5.9639219e-07
1.5236519e-08
5.9309679e-07
1.3409897e-08
5.904321e-07
1.1671763e-08
5.8827321e-07
1.0012425e-08
5.8652703e-07
8.421717e-09
5.8512368e-07
6.8892023e-09
5.8401037e-07
5.4043347e-09
5.8314728e-07
3.9565568e-09
5.8250481e-07
2.5353523e-09
5.8206171e-07
1.1302617e-09
5.8180372e-07
-2.691289e-10
5.8172282e-07
-1.6732119e-09
5.8181669e-07
-3.0923908e-09
5.8208872e-07
-4.5371038e-09
5.8254809e-07
-6.0178313e-09
5.8321033e-07
-7.545077e-09
5.8409825e-07
-9.1293118e-09
5.8524336e-07
-1.0780869e-08
5.8668791e-07
-1.2509783e-08
5.8848808e-07
-1.4325616e-08
5.9071845e-07
-1.6237075e-08
5.9347873e-07
-1.8250481e-08
5.9690098e-07
-2.0370441e-08
6.0115598e-07
-2.264465e-08
6.0658625e-07
-2.5304579e-08
6.1452226e-07
-2.8423803e-08
6.280427e-07
-2.9624275e-08
6.42967e-07
-2.303083e-08
6.1795851e-07
-8.1533581e-09
4.6905754e-07
1.6632996e-07
4.8676639e-09
1.2980204e-07
1.9763504e-08
4.1085861e-07
3.0160263e-08
6.0166377e-07
3.1078031e-08
6.562115e-07
2.8086897e-08
6.4385291e-07
2.5241115e-08
6.2543541e-07
2.2948134e-08
6.1448905e-07
2.0858802e-08
6.0765955e-07
1.8857361e-08
6.0248219e-07
1.693725e-08
5.983123e-07
1.5098524e-08
5.9493551e-07
1.3336974e-08
5.9219365e-07
1.1646704e-08
5.8996348e-07
1.0020903e-08
5.8815283e-07
8.4520269e-09
5.8669256e-07
6.9319987e-09
5.855304e-07
5.4523796e-09
5.846269e-07
4.0045057e-09
5.8395269e-07
2.5795841e-09
5.8348663e-07
1.1687568e-09
5.8321455e-07
-2.3685875e-10
5.8312844e-07
-1.6461418e-09
5.8322598e-07
-3.067947e-09
5.8351052e-07
-4.5110748e-09
5.8399121e-07
-5.984227e-09
5.8468348e-07
-7.4959359e-09
5.8560996e-07
-9.0544613e-09
5.8680188e-07
-1.0667647e-08
5.883011e-07
-1.2342739e-08
5.9016317e-07
-1.408619e-08
5.924619e-07
-1.5903245e-08
5.9529578e-07
-1.779646e-08
5.9879419e-07
-1.9769325e-08
6.0312884e-07
-2.1879821e-08
6.0869675e-07
-2.434956e-08
6.16992e-07
-2.7070792e-08
6.3076394e-07
-2.745823e-08
6.4335444e-07
-2.0371867e-08
6.1087214e-07
-6.6232044e-09
4.5530887e-07
1.5970675e-07
4.036257e-09
1.2576597e-07
1.7476188e-08
3.9741907e-07
2.7899263e-08
5.9124098e-07
2.9633376e-08
6.5447744e-07
2.7131501e-08
6.4635476e-07
2.4465163e-08
6.2810173e-07
2.230617e-08
6.1664804e-07
2.0354733e-08
6.0961099e-07
1.8476274e-08
6.0436065e-07
1.6658176e-08
6.001304e-07
1.4902165e-08
5.9669152e-07
1.3206365e-08
5.9388945e-07
1.1567102e-08
5.9160274e-07
9.9797461e-09
5.8974019e-07
8.4388489e-09
5.8823346e-07
6.9382976e-09
5.8703095e-07
5.4714771e-09
5.8609372e-07
4.031414e-09
5.8539275e-07
2.6108939e-09
5.8490715e-07
1.2025555e-09
5.8462289e-07
-2.0103483e-10
5.8453203e-07
-1.6073191e-09
5.8463226e-07
-3.0236881e-09
5.8492689e-07
-4.4574147e-09
5.8542494e-07
-5.915574e-09
5.8614164e-07
-7.404942e-09
5.8709933e-07
-8.9318679e-09
5.8832881e-07
-1.050212e-08
5.8987135e-07
-1.2120709e-08
5.9178176e-07
-1.3791716e-08
5.941329e-07
-1.5517856e-08
5.9702192e-07
-1.7299281e-08
6.0057562e-07
-1.914067e-08
6.0497023e-07
-2.1110375e-08
6.1066645e-07
-2.3408821e-08
6.1929044e-07
-2.5754034e-08
6.3310915e-07
-2.5449876e-08
6.4305028e-07
-1.8082233e-08
6.035045e-07
-5.4383684e-09
4.4266501e-07
1.5426838e-07
3.4327652e-09
1.2233342e-07
1.5571416e-08
3.8528089e-07
2.5868473e-08
5.8094428e-07
2.8267679e-08
6.5207833e-07
2.6222354e-08
6.4840005e-07
2.3721809e-08
6.3060225e-07
2.167184e-08
6.18698e-07
1.9836643e-08
6.1144618e-07
1.8067008e-08
6.0613029e-07
1.6342285e-08
6.0185512e-07
1.4664391e-08
5.9836942e-07
1.3032899e-08
5.9552095e-07
1.1445637e-08
5.9319001e-07
9.8995526e-09
5.9128627e-07
8.390812e-09
5.897422e-07
6.9148919e-09
5.8850687e-07
5.4667108e-09
5.875419e-07
4.0407634e-09
5.868187e-07
2.6312421e-09
5.8631667e-07
1.232144e-09
5.8602199e-07
-1.6263407e-10
5.859268e-07
-1.5592098e-09
5.8602884e-07
-2.9636316e-09
5.8633131e-07
-4.3817887e-09
5.868431e-07
-5.8193115e-09
5.8757916e-07
-7.2814555e-09
5.8856147e-07
-8.7729681e-09
5.8982032e-07
-1.0297942e-08
5.9139633e-07
-1.185967e-08
5.9334349e-07
-1.3460501e-08
5.9573373e-07
-1.5101412e-08
5.9866283e-07
-1.6781326e-08
6.0225553e-07
-1.8507847e-08
6.0669675e-07
-2.0358495e-08
6.125171e-07
-2.2502812e-08
6.2143476e-07
-2.4498353e-08
6.3510469e-07
-2.3616017e-08
6.4216795e-07
-1.6127932e-08
5.9601641e-07
-4.5304364e-09
4.3106751e-07
1.4973795e-07
2.9925577e-09
1.1934112e-07
1.3980711e-08
3.7429329e-07
2.4050014e-08
5.7087542e-07
2.6986063e-08
6.4914242e-07
2.5363803e-08
6.5002228e-07
2.3019035e-08
6.3294699e-07
2.1057964e-08
6.2065906e-07
1.9319374e-08
6.1318477e-07
1.7644709e-08
6.0780495e-07
1.6004224e-08
6.0349561e-07
1.4398825e-08
5.9997482e-07
1.2828845e-08
5.9709093e-07
1.1293051e-08
5.947258e-07
9.7894816e-09
5.9278984e-07
8.3155008e-09
5.9121618e-07
6.8678351e-09
5.8995453e-07
5.4426611e-09
5.8896707e-07
4.0357175e-09
5.8822564e-07
2.64242e-09
5.8770997e-07
1.2579685e-09
5.8740644e-07
-1.2255e-10
5.8730732e-07
-1.5040645e-09
5.8741035e-07
-2.8914241e-09
5.8771867e-07
-4.2892969e-09
5.8824097e-07
-5.7020629e-09
5.8899193e-07
-7.1336956e-09
5.8999311e-07
-8.587637e-09
5.9127426e-07
-1.0066672e-08
5.9287536e-07
-1.1572822e-08
5.9484964e-07
-1.3107243e-08
5.9726815e-07
-1.4669825e-08
6.0022542e-07
-1.6259233e-08
6.0384494e-07
-1.7887179e-08
6.083247e-07
-1.9638229e-08
6.1426815e-07
-2.1643351e-08
6.2343988e-07
-2.3317195e-08
6.3677853e-07
-2.1957797e-08
6.4080855e-07
-1.4467907e-08
5.8852652e-07
-3.8395087e-09
4.2043912e-07
1.4589844e-07
2.6667956e-09
1.1667463e-07
1.2644322e-08
3.6431641e-07
2.2421121e-08
5.6109917e-07
2.5787139e-08
6.4577659e-07
2.4555414e-08
6.5125399e-07
2.2359509e-08
6.3514285e-07
2.0471913e-08
6.2254665e-07
1.8812866e-08
6.1484382e-07
1.7220287e-08
6.0939753e-07
1.5655063e-08
6.0506083e-07
1.4116149e-08
6.0151373e-07
1.2604108e-08
5.9860297e-07
1.1118234e-08
5.9621167e-07
9.657266e-09
5.9425081e-07
8.2194257e-09
5.9265402e-07
6.8023942e-09
5.9137157e-07
5.4033557e-09
5.9036611e-07
4.0190808e-09
5.8960992e-07
2.6460253e-09
5.8908302e-07
1.2804304e-09
5.8877203e-07
-8.1576491e-11
5.8866933e-07
-1.4438814e-09
5.8877266e-07
-2.8102877e-09
5.8908508e-07
-4.1844106e-09
5.8961509e-07
-5.5695727e-09
5.9037709e-07
-6.9686936e-09
5.9139223e-07
-8.3841805e-09
5.9268975e-07
-9.8178321e-09
5.9430901e-07
-1.1270776e-08
5.9630258e-07
-1.2743404e-08
5.9874078e-07
-1.4235044e-08
6.0171706e-07
-1.5744877e-08
6.0535477e-07
-1.7289386e-08
6.0986921e-07
-1.8957462e-08
6.1593622e-07
-2.083588e-08
6.253183e-07
-2.2215651e-08
6.381583e-07
-2.0466484e-08
6.3905938e-07
-1.3059636e-08
5.8111968e-07
-3.3151792e-09
4.1069466e-07
1.4258326e-07
2.4197382e-09
1.1425525e-07
1.1512325e-08
3.552246e-07
2.095822e-08
5.5165394e-07
2.4665889e-08
6.4206917e-07
2.3793973e-08
6.5212589e-07
2.1742478e-08
6.371943e-07
1.9917176e-08
6.2437194e-07
1.8323361e-08
6.1643764e-07
1.6801319e-08
6.1091958e-07
1.5302948e-08
6.065592e-07
1.3824548e-08
6.0299213e-07
1.2366521e-08
6.0006099e-07
1.0928388e-08
5.976498e-07
9.5092985e-09
5.956699e-07
8.1080576e-09
5.9405526e-07
6.7230543e-09
5.9275657e-07
5.3522611e-09
5.917369e-07
3.9932867e-09
5.9096889e-07
2.6434536e-09
5.9043286e-07
1.2998858e-09
5.901156e-07
-4.0398966e-11
5.9000961e-07
-1.3803904e-09
5.9011265e-07
-2.7230004e-09
5.9042769e-07
-4.0709553e-09
5.9096305e-07
-5.426704e-09
5.9173284e-07
-6.7923204e-09
5.9275784e-07
-8.1694151e-09
5.9406684e-07
-9.5590727e-09
5.9569867e-07
-1.0961831e-08
5.9770534e-07
-1.2377654e-08
6.001566e-07
-1.3805707e-08
6.0314511e-07
-1.524628e-08
6.0679534e-07
-1.6720829e-08
6.1134376e-07
-1.8319551e-08
6.1753495e-07
-2.0081348e-08
6.270801e-07
-2.1193134e-08
6.3927009e-07
-1.9128002e-08
6.3699425e-07
-1.186294e-08
5.7385461e-07
-2.9164407e-09
4.0174816e-07
1.3966682e-07
2.2260047e-09
1.1202966e-07
1.0544254e-08
3.4690725e-07
1.9639221e-08
5.4255978e-07
2.3615718e-08
6.3809301e-07
2.3074954e-08
6.5266666e-07
2.1165192e-08
6.3910401e-07
1.9394607e-08
6.261425e-07
1.7854388e-08
6.1797785e-07
1.6392819e-08
6.1238115e-07
1.4953679e-08
6.0799834e-07
1.3530139e-08
6.0441567e-07
1.212214e-08
6.0146899e-07
1.0729232e-08
5.9904271e-07
9.350761e-09
5.9704837e-07
7.9859055e-09
5.9542011e-07
6.6335614e-09
5.9410891e-07
5.2923034e-09
5.9307816e-07
3.9604068e-09
5.9230079e-07
2.6359023e-09
5.9175736e-07
1.3166483e-09
5.9143485e-07
4.1299643e-13
5.9132585e-07
-1.3150518e-09
5.9142811e-07
-2.6319002e-09
5.9174454e-07
-3.9521278e-09
5.9228327e-07
-5.2774779e-09
5.9305819e-07
-6.6093624e-09
5.9408973e-07
-7.9487989e-09
5.9540628e-07
-9.2963798e-09
5.9704625e-07
-1.0652291e-08
5.9906125e-07
-1.2016316e-08
6.0152063e-07
-1.3387758e-08
6.0451655e-07
-1.4768437e-08
6.0817602e-07
-1.6184617e-08
6.1275994e-07
-1.7724714e-08
6.1907504e-07
-1.9377792e-08
6.2873317e-07
-2.0245567e-08
6.4013787e-07
-1.792607e-08
6.3467475e-07
-1.0841925e-08
5.6677047e-07
-2.6108382e-09
3.9351707e-07
1.3705598e-07
2.0681089e-09
1.0996204e-07
9.7079878e-09
3.3926842e-07
1.8444565e-08
5.3382417e-07
2.2629731e-08
6.3390828e-07
2.2393502e-08
6.5290292e-07
2.0623929e-08
6.4087353e-07
1.8903387e-08
6.2786302e-07
1.740757e-08
6.1947367e-07
1.5997884e-08
6.1379083e-07
1.4611236e-08
6.0938499e-07
1.3237367e-08
6.0578954e-07
1.1875546e-08
6.0283081e-07
1.0525214e-08
6.0039304e-07
9.1857741e-09
5.9838781e-07
7.8566167e-09
5.9674927e-07
6.5369872e-09
5.9542854e-07
5.2259083e-09
5.9438924e-07
3.9221741e-09
5.9360452e-07
2.6243827e-09
5.9305515e-07
1.3309903e-09
5.9272825e-07
4.0378922e-11
5.9261646e-07
-1.2490708e-09
5.9271756e-07
-2.5389092e-09
5.9303437e-07
-3.8305377e-09
5.935749e-07
-5.125141e-09
5.9435279e-07
-6.4236273e-09
5.9538821e-07
-7.7265887e-09
5.9670924e-07
-9.0343013e-09
5.9835396e-07
-1.0346777e-08
6.0037372e-07
-1.1663795e-08
6.0283765e-07
-1.2985012e-08
6.0583777e-07
-1.4314058e-08
6.0950507e-07
-1.5681547e-08
6.1412742e-07
-1.7171141e-08
6.2056464e-07
-1.8721551e-08
6.3028358e-07
-1.9366992e-08
6.4078331e-07
-1.6844139e-08
6.321519e-07
-9.9655101e-09
5.5989184e-07
-2.3732579e-09
3.8592482e-07
1.3468272e-07
1.9343782e-09
1.0802822e-07
8.9783942e-09
3.3222563e-07
1.7357509e-08
5.254462e-07
2.1701444e-08
6.2956489e-07
2.1744996e-08
6.5285943e-07
2.0114663e-08
6.4250379e-07
1.8441732e-08
6.2953592e-07
1.6983249e-08
6.2093215e-07
1.5618234e-08
6.1515585e-07
1.427821e-08
6.1072502e-07
1.294936e-08
6.0711839e-07
1.1630113e-08
6.0415006e-07
1.0319722e-08
6.0170343e-07
9.0175496e-09
5.9968998e-07
7.723087e-09
5.9804373e-07
6.4358061e-09
5.9671582e-07
5.1550526e-09
5.9566999e-07
3.8800154e-09
5.9487956e-07
2.6097383e-09
5.9432543e-07
1.343156e-09
5.9399483e-07
7.9147367e-11
5.9388047e-07
-1.1834082e-09
5.9398012e-07
-2.4455669e-09
5.9429653e-07
-3.7082619e-09
5.948376e-07
-4.9722485e-09
5.9561678e-07
-6.2380632e-09
5.9665403e-07
-7.5060077e-09
5.9797718e-07
-8.7761764e-09
5.9962413e-07
-1.0048535e-08
6.0164608e-07
-1.1322978e-08
6.0411209e-07
-1.2599665e-08
6.0711445e-07
-1.3884192e-08
6.107896e-07
-1.521086e-08
6.1545409e-07
-1.6655834e-08
6.2200961e-07
-1.8108134e-08
6.3173588e-07
-1.8550688e-08
6.4122586e-07
-1.5866582e-08
6.2946779e-07
-9.2075483e-09
5.532328e-07
-2.1847255e-09
3.78902e-07
1.32498e-07
1.8172699e-09
1.062116e-07
8.3359734e-09
3.2570834e-07
1.6364014e-08
5.1741951e-07
2.0825105e-08
6.2510448e-07
2.1125335e-08
6.525593e-07
1.9633466e-08
6.4399559e-07
1.8007368e-08
6.3116197e-07
1.6580944e-08
6.2235856e-07
1.5254618e-08
6.1648218e-07
1.3956169e-08
6.1202347e-07
1.2668226e-08
6.0840633e-07
1.1388257e-08
6.0543003e-07
1.0115273e-08
6.0297642e-07
8.8485395e-09
6.0095671e-07
7.5875719e-09
5.993047e-07
6.3319755e-09
5.9797142e-07
5.0813204e-09
5.9692065e-07
3.8350881e-09
5.9612579e-07
2.592664e-09
5.9556785e-07
1.3533577e-09
5.9523413e-07
1.1643985e-10
5.9511739e-07
-1.1188136e-09
5.9521537e-07
-2.3530727e-09
5.9553079e-07
-3.5869085e-09
5.9607143e-07
-4.8207545e-09
5.9685062e-07
-6.0548834e-09
5.9788816e-07
-7.2894123e-09
5.9921171e-07
-8.5243536e-09
6.0085907e-07
-9.7597141e-09
6.0288144e-07
-1.0995579e-08
6.0534795e-07
-1.2232714e-08
6.0835159e-07
-1.3478733e-08
6.1203562e-07
-1.4770816e-08
6.1674617e-07
-1.6175195e-08
6.2341399e-07
-1.7532807e-08
6.3309349e-07
-1.7789897e-08
6.4148295e-07
-1.4979319e-08
6.2665722e-07
-8.546502e-09
5.4679999e-07
-2.0312401e-09
3.7238673e-07
1.3046675e-07
1.7120618e-09
1.0450028e-07
7.7656368e-09
3.1965641e-07
1.5452427e-08
5.0973432e-07
1.9995788e-08
6.2056196e-07
2.0531048e-08
6.520242e-07
1.9176726e-08
6.4534984e-07
1.7597841e-08
6.3274081e-07
1.6199677e-08
6.2375672e-07
1.4907126e-08
6.1777473e-07
1.3645938e-08
6.1328466e-07
1.2395306e-08
6.0965696e-07
1.1151642e-08
6.0667369e-07
9.9136836e-09
6.0421438e-07
8.6805721e-09
6.0218983e-07
7.451792e-09
6.0053348e-07
6.2270154e-09
5.991962e-07
5.0059598e-09
5.981417e-07
3.7883163e-09
5.9734343e-07
2.5737261e-09
5.9678244e-07
1.361785e-09
5.9644608e-07
1.5206651e-10
5.963271e-07
-1.0558473e-09
5.9642328e-07
-2.2623305e-09
5.9673728e-07
-3.4676821e-09
5.9727678e-07
-4.6721026e-09
5.9805504e-07
-5.875687e-09
5.9909174e-07
-7.0784485e-09
6.0041447e-07
-8.2803883e-09
6.0206101e-07
-9.4816098e-09
6.0408266e-07
-1.0682436e-08
6.0654878e-07
-1.1884299e-08
6.0955345e-07
-1.3096804e-08
6.1324812e-07
-1.4359116e-08
6.1800849e-07
-1.5725449e-08
6.2478032e-07
-1.699098e-08
6.3435902e-07
-1.7078273e-08
6.4157024e-07
-1.4170058e-08
6.23749e-07
-7.9649055e-09
5.4059483e-07
-1.9026982e-09
3.6632453e-07
1.2856406e-07
1.6158817e-09
1.0288526e-07
7.2556723e-09
3.1401851e-07
1.4613098e-08
5.0237876e-07
1.9209353e-08
6.1596674e-07
1.9959285e-08
6.512745e-07
1.8741247e-08
6.4656781e-07
1.7210714e-08
6.3427128e-07
1.5838196e-08
6.2512922e-07
1.4575417e-08
6.1903751e-07
1.3347815e-08
6.1451226e-07
1.2131365e-08
6.1087341e-07
1.0921352e-08
6.0788371e-07
9.7162209e-09
6.0541951e-07
8.5149719e-09
6.0339107e-07
7.3170286e-09
6.0173142e-07
6.1220813e-09
6.0039114e-07
4.929936e-09
5.9933385e-07
3.7404278e-09
5.9853294e-07
2.5533825e-09
5.9796949e-07
1.3686087e-09
5.9763085e-07
1.8590778e-10
5.9750981e-07
-9.9490827e-10
5.976041e-07
-2.1739929e-09
5.9791636e-07
-3.3514479e-09
5.9845424e-07
-4.5273124e-09
5.9923091e-07
-5.7015709e-09
6.00266e-07
-6.8741924e-09
6.0158709e-07
-8.045215e-09
6.0323203e-07
-9.2148714e-09
6.0525232e-07
-1.0383746e-08
6.0771765e-07
-1.1553975e-08
6.1072368e-07
-1.2737055e-08
6.144312e-07
-1.3973205e-08
6.1924464e-07
-1.53029e-08
6.2611002e-07
-1.6478425e-08
6.3553455e-07
-1.6410102e-08
6.4150192e-07
-1.342829e-08
6.2076719e-07
-7.4487529e-09
5.346153e-07
-1.7919631e-09
3.6066774e-07
1.2677209e-07
1.5270184e-09
1.0135922e-07
6.7969122e-09
3.087508e-07
1.3837997e-08
4.9533985e-07
1.8462332e-08
6.1134366e-07
1.9407753e-08
6.5032939e-07
1.8324268e-08
6.4765123e-07
1.6843669e-08
6.357518e-07
1.5495124e-08
6.2647774e-07
1.4258875e-08
6.2027376e-07
1.3061734e-08
6.157094e-07
1.1876753e-08