/*--------------------------------*- C++ -*----------------------------------*\
  =========                 |
  \\      /  F ield         | OpenFOAM: The Open Source CFD Toolbox
   \\    /   O peration     | Website:  https://openfoam.org
    \\  /    A nd           | Version:  10
     \\/     M anipulation  |
\*---------------------------------------------------------------------------*/
FoamFile
{
    format      ascii;
    class       surfaceScalarField;
    location    "0.2";
    object      phi_0;
}
// * * * * * * * * * * * * * * * * * * * * * * * * * * * * * * * * * * * * * //

dimensions      [1 0 -1 0 0 0 0];

internalField   nonuniform List<scalar> 
7860
(
3.9895832e-08
5.288122e-07
1.2192621e-08
5.9641101e-07
7.4278041e-09
5.7347256e-07
5.4993154e-09
5.7063619e-07
4.1148962e-09
5.7009209e-07
3.2010516e-09
5.6962149e-07
2.5590697e-09
5.6934961e-07
2.0792573e-09
5.6918743e-07
1.7092856e-09
5.6907758e-07
1.4166307e-09
5.6900025e-07
1.179497e-09
5.6894472e-07
9.8312123e-10
5.6890396e-07
8.1715943e-10
5.6887354e-07
6.7412114e-10
5.6885061e-07
5.4843286e-10
5.6883326e-07
4.3583356e-10
5.6882016e-07
3.3296934e-10
5.6881043e-07
2.3711248e-10
5.6880342e-07
1.4595977e-10
5.6879871e-07
5.7479704e-11
5.6879604e-07
-3.0210765e-11
5.6879525e-07
-1.1895417e-10
5.687963e-07
-2.1065729e-10
5.6879926e-07
-3.0739789e-10
5.688043e-07
-4.1155708e-10
5.6881172e-07
-5.2598216e-10
5.6882199e-07
-6.5420739e-10
5.6883579e-07
-8.00767e-10
5.6885413e-07
-9.7165554e-10
5.6887846e-07
-1.1750347e-09
5.6891096e-07
-1.4224065e-09
5.6895496e-07
-1.7305829e-09
5.6901577e-07
-2.1245429e-09
5.6910156e-07
-2.6441689e-09
5.6922724e-07
-3.3718749e-09
5.6943534e-07
-4.4632178e-09
5.6979899e-07
-6.0086243e-09
5.7025308e-07
-9.5076741e-09
5.7220676e-07
-2.9575429e-08
5.8877551e-07
5.3913249e-07
5.9672149e-08
4.6914005e-07
3.6665564e-08
6.1941759e-07
2.2627778e-08
5.8751035e-07
1.6253185e-08
5.7701078e-07
1.2290136e-08
5.7405514e-07
9.6059139e-09
5.7230572e-07
7.6771753e-09
5.7127835e-07
6.2358835e-09
5.7062872e-07
5.1264407e-09
5.7018702e-07
4.2487735e-09
5.6987792e-07
3.5375461e-09
5.6965595e-07
2.9485888e-09
5.6949291e-07
2.4508549e-09
5.6937127e-07
2.0218681e-09
5.692796e-07
1.6449126e-09
5.6921021e-07
1.3072098e-09
5.6915787e-07
9.9870104e-10
5.6911893e-07
7.1120666e-10
5.6909091e-07
4.3781962e-10
5.690721e-07
1.7244683e-10
5.6906141e-07
-9.0559409e-11
5.6905825e-07
-3.5672372e-10
5.6906247e-07
-6.3175971e-10
5.690743e-07
-9.2190113e-10
5.6909444e-07
-1.2342886e-09
5.6912411e-07
-1.5774606e-09
5.6916516e-07
-1.9620159e-09
5.6922035e-07
-2.401552e-09
5.6929367e-07
-2.9140535e-09
5.6939096e-07
-3.5240144e-09
5.6952092e-07
-4.2658554e-09
5.696968e-07
-5.1899435e-09
5.6993986e-07
-6.3729055e-09
5.7028453e-07
-7.9334618e-09
5.707878e-07
-1.0074838e-08
5.7157671e-07
-1.3203164e-08
5.7292732e-07
-1.8133215e-08
5.7518313e-07
-2.817553e-08
5.8224907e-07
-4.5801696e-08
6.0640167e-07
4.933308e-07
6.0008267e-08
4.0913179e-07
5.0486476e-08
6.2893938e-07
3.3369942e-08
6.0462688e-07
2.4816973e-08
5.8556375e-07
1.9322578e-08
5.7954954e-07
1.5330894e-08
5.762974e-07
1.2360205e-08
5.7424904e-07
1.0101153e-08
5.7288777e-07
8.340362e-09
5.7194781e-07
6.9347079e-09
5.7128357e-07
5.7881105e-09
5.7080255e-07
4.8338029e-09
5.7044722e-07
4.0240186e-09
5.7018106e-07
3.3237701e-09
5.6997984e-07
2.7067916e-09
5.6982719e-07
2.1528485e-09
5.6971181e-07
1.6459133e-09
5.6962587e-07
1.1728841e-09
5.6956394e-07
7.226515e-10
5.6952233e-07
2.8538466e-10
5.6949868e-07
-1.4804537e-10
5.6949168e-07
-5.8657198e-10
5.6950099e-07
-1.0394263e-09
5.6952715e-07
-1.5166573e-09
5.6957167e-07
-2.0297344e-09
5.6963718e-07
-2.592307e-09
5.6972773e-07
-3.2212165e-09
5.6984926e-07
-3.9379067e-09
5.7001036e-07
-4.7704747e-09
5.7022353e-07
-5.7567332e-09
5.7050718e-07
-6.9488704e-09
5.7088894e-07
-8.4210874e-09
5.7141208e-07
-1.0282786e-08
5.7214622e-07
-1.2695842e-08
5.7320085e-07
-1.589342e-08
5.7477429e-07
-2.0237417e-08
5.7727132e-07
-2.6705927e-08
5.8165164e-07
-3.89455e-08
5.9448865e-07
-4.8165396e-08
6.1562157e-07
4.451654e-07
5.4878317e-08
3.5425349e-07
5.7450945e-08
6.2636676e-07
4.0466376e-08
6.2161144e-07
3.0777656e-08
5.9525247e-07
2.4641996e-08
5.856852e-07
1.9951327e-08
5.8098807e-07
1.6312098e-08
5.7788827e-07
1.3465849e-08
5.7573402e-07
1.1200462e-08
5.742132e-07
9.364231e-09
5.731198e-07
7.8492685e-09
5.7231751e-07
6.5770837e-09
5.7171941e-07
5.4898279e-09
5.7126831e-07
4.5441857e-09
5.7092549e-07
3.7070598e-09
5.7066432e-07
2.95259e-09
5.7046628e-07
2.2600557e-09
5.703184e-07
1.6123585e-09
5.7021164e-07
9.9489007e-10
5.701398e-07
3.9465243e-10
5.7009891e-07
-2.0046516e-10
5.700868e-07
-8.0232631e-10
5.7010285e-07
-1.4231688e-09
5.7014799e-07
-2.0762588e-09
5.7022476e-07
-2.7766416e-09
5.7033757e-07
-3.5420692e-09
5.7049316e-07
-4.3942081e-09
5.7070139e-07
-5.3602716e-09
5.7097642e-07
-6.4753008e-09
5.7133856e-07
-7.7854248e-09
5.718173e-07
-9.3524277e-09
5.7245594e-07
-1.1260134e-08
5.7331978e-07
-1.3624813e-08
5.745109e-07
-1.6607814e-08
5.7618386e-07
-2.040692e-08
5.785734e-07
-2.5288809e-08
5.821532e-07
-3.2513282e-08
5.8887611e-07
-4.5097008e-08
6.0707237e-07
-4.654681e-08
6.1707137e-07
3.9861859e-07
4.796488e-08
3.0628863e-07
6.0074812e-08
6.1425684e-07
4.5398427e-08
6.3628783e-07
3.4873766e-08
6.0577713e-07
2.8398339e-08
5.9216062e-07
2.3418205e-08
5.859682e-07
1.9433043e-08
5.8187343e-07
1.6228107e-08
5.7893896e-07
1.3618881e-08
5.7682242e-07
1.1465954e-08
5.7527273e-07
9.6641978e-09
5.7411926e-07
8.133568e-09
5.7325004e-07
6.8130386e-09
5.7258884e-07
5.6555937e-09
5.7208293e-07
4.6244543e-09
5.7169545e-07
3.69033e-09
5.714004e-07
2.8293781e-09
5.7117936e-07
2.021665e-09
5.7101935e-07
1.2499814e-09
5.7091148e-07
4.9889752e-10
5.7085e-07
-2.4602997e-10
5.7083173e-07
-9.9896808e-10
5.7085579e-07
-1.7744976e-09
5.7092352e-07
-2.588336e-09
5.710386e-07
-3.4581528e-09
5.7120738e-07
-4.4045542e-09
5.7143956e-07
-5.4523222e-09
5.7174916e-07
-6.6320247e-09
5.7215612e-07
-7.9821421e-09
5.7268868e-07
-9.551941e-09
5.733871e-07
-1.140525e-08
5.7430925e-07
-1.3624885e-08
5.7553942e-07
-1.6319153e-08
5.7720517e-07
-1.9631663e-08
5.7949637e-07
-2.3732691e-08
5.8267442e-07
-2.8925127e-08
5.8734564e-07
-3.6785539e-08
5.9673653e-07
-4.845841e-08
6.1874524e-07
-4.3191045e-08
6.1180401e-07
3.5542755e-07
4.0335034e-08
2.6595363e-07
5.8991884e-08
5.9560001e-07
4.8327734e-08
6.4695197e-07
3.7585926e-08
6.1651893e-07
3.092686e-08
5.9881969e-07
2.5892113e-08
5.9100295e-07
2.1778326e-08
5.8598722e-07
1.8390643e-08
5.8232664e-07
1.5576404e-08
5.7963666e-07
1.3213554e-08
5.7763558e-07
1.1206152e-08
5.7612667e-07
9.4789015e-09
5.7497729e-07
7.9726562e-09
5.7409509e-07
6.6405072e-09
5.7341508e-07
5.444823e-09
5.7289114e-07
4.354981e-09
5.7249024e-07
3.345588e-09
5.7218875e-07
2.3950808e-09
5.7196986e-07
1.4846082e-09
5.7182195e-07
5.9711066e-10
5.717375e-07
-2.8347037e-10
5.7171231e-07
-1.1729096e-09
5.7174523e-07
-2.0874006e-09
5.7183801e-07
-3.0442841e-09
5.7199548e-07
-4.0628539e-09
5.7222595e-07
-5.1653028e-09
5.7254201e-07
-6.3778745e-09
5.7296173e-07
-7.7322983e-09
5.7351055e-07
-9.2675863e-09
5.7422397e-07
-1.1032342e-08
5.7515186e-07
-1.3087791e-08
5.763647e-07
-1.5511205e-08
5.7796283e-07
-1.839999e-08
5.8009396e-07
-2.1878329e-08
5.829747e-07
-2.610202e-08
5.8689812e-07
-3.1480496e-08
5.9272412e-07
-3.9646874e-08
6.049029e-07
-4.9165274e-08
6.2826364e-07
-3.8574622e-08
6.0121336e-07
3.1685292e-07
3.2861555e-08
2.3309211e-07
5.5247268e-08
5.7321433e-07
4.9229112e-08
6.5297013e-07
3.9058628e-08
6.2668941e-07
3.2427972e-08
6.0545034e-07
2.7516267e-08
5.9591465e-07
2.3436472e-08
5.9006701e-07
2.0001017e-08
5.8576209e-07
1.7093342e-08
5.8254434e-07
1.4611221e-08
5.801177e-07
1.2470861e-08
5.7826703e-07
1.0605007e-08
5.7684314e-07
8.9594121e-09
5.7574068e-07
7.4898791e-09
5.7488461e-07
6.1600721e-09
5.7422095e-07
4.9397592e-09
5.7371056e-07
3.8033691e-09
5.7332514e-07
2.728815e-09
5.7304441e-07
1.6965182e-09
5.7285425e-07
6.8857651e-10
5.7274544e-07
-3.1196675e-10
5.7271285e-07
-1.3217978e-09
5.7275506e-07
-2.357998e-09
5.7287421e-07
-3.4387272e-09
5.7307621e-07
-4.5839651e-09
5.7337119e-07
-5.8163586e-09
5.737744e-07
-7.1622186e-09
5.7430759e-07
-8.6527213e-09
5.7500105e-07
-1.0325358e-08
5.758966e-07
-1.222571e-08
5.7705221e-07
-1.440984e-08
5.7854883e-07
-1.6947181e-08
5.8050017e-07
-1.9922583e-08
5.8306936e-07
-2.3436835e-08
5.8648896e-07
-2.763136e-08
5.9109264e-07
-3.3024418e-08
5.9811717e-07
-4.1000697e-08
6.1287918e-07
-4.7678866e-08
6.3494181e-07
-3.337165e-08
5.8690614e-07
2.8348127e-07
2.6187716e-08
2.0690445e-07
5.0129371e-08
5.4927274e-07
4.8489521e-08
6.5460999e-07
3.9487271e-08
6.3569165e-07
3.3073963e-08
6.1186365e-07
2.8408797e-08
6.0057982e-07
2.4490009e-08
5.939858e-07
2.1115758e-08
5.8913634e-07
1.8205155e-08
5.8545494e-07
1.5678965e-08
5.8264389e-07
1.3468047e-08
5.8047794e-07
1.1515216e-08
5.7879597e-07
9.772951e-09
5.7748295e-07
8.2014535e-09
5.7645611e-07
6.7671858e-09
5.7565521e-07
5.4415955e-09
5.7503615e-07
4.2000282e-09
5.7456671e-07
3.0208039e-09
5.7422363e-07
1.8844198e-09
5.7399064e-07
7.7284693e-10
5.7385701e-07
-3.3110598e-10
5.7381681e-07
-1.4443886e-09
5.7386834e-07
-2.5843019e-09
5.7401413e-07
-3.7691004e-09
5.7426101e-07
-5.0186354e-09
5.7462073e-07
-6.3550693e-09
5.7511084e-07
-7.8036883e-09
5.7575621e-07
-9.3938495e-09
5.7659121e-07
-1.1160088e-08
5.7766284e-07
-1.3143387e-08
5.7903551e-07
-1.5392825e-08
5.8079826e-07
-1.7967695e-08
5.8307504e-07
-2.093746e-08
5.8603912e-07
-2.4377325e-08
5.8992882e-07
-2.8422801e-08
5.9513812e-07
-3.3678888e-08
6.0337326e-07
-4.1050115e-08
6.2025041e-07
-4.4786528e-08
6.3867822e-07
-2.8199418e-08
5.7031903e-07
2.5528186e-07
2.0569472e-08
1.8633504e-07
4.4579223e-08
5.2526307e-07
4.6637828e-08
6.525514e-07
3.914833e-08
6.4318114e-07
3.3079367e-08
6.179326e-07
2.8713502e-08
6.0494568e-07
2.5034437e-08
5.9766487e-07
2.1800597e-08
5.9237018e-07
1.8956656e-08
5.8829888e-07
1.6446554e-08
5.8515399e-07
1.4216785e-08
5.8270771e-07
1.2221162e-08
5.8079159e-07
1.0419895e-08
5.7928421e-07
8.778619e-09
5.7809739e-07
7.2675711e-09
5.7716626e-07
5.8607759e-09
5.7644294e-07
4.5353065e-09
5.7589217e-07
3.2706187e-09
5.7548832e-07
2.0479445e-09
5.7521331e-07
8.497345e-10
5.7505522e-07
-3.4086155e-10
5.750074e-07
-1.5404912e-09
5.7506797e-07
-2.7660966e-09
5.7523973e-07
-4.0354154e-09
5.7553033e-07
-5.3675057e-09
5.7595282e-07
-6.7833116e-09
5.7652664e-07
-8.3062803e-09
5.7727918e-07
-9.9630475e-09
5.7824798e-07
-1.1784203e-08
5.79484e-07
-1.3805087e-08
5.8105639e-07
-1.6066699e-08
5.8305988e-07
-1.8616897e-08
5.8562524e-07
-2.1508798e-08
5.8893102e-07
-2.4796438e-08
5.9321646e-07
-2.8625973e-08
5.9896765e-07
-3.3644418e-08
6.083917e-07
-4.0128456e-08
6.2673445e-07
-4.1146322e-08
6.3969609e-07
-2.3411291e-08
5.52584e-07
2.3187056e-07
1.6013879e-08
1.7032123e-07
3.9139238e-08
5.0213782e-07
4.4112263e-08
6.4757841e-07
3.8283509e-08
6.4900988e-07
3.264829e-08
6.2356781e-07
2.8586415e-08
6.0900756e-07
2.5178908e-08
6.0107237e-07
2.2131886e-08
5.9541721e-07
1.940145e-08
5.9102932e-07
1.6951535e-08
5.8760391e-07
1.4743154e-08
5.8491609e-07
1.2740701e-08
5.8279405e-07
1.0912254e-08
5.8111266e-07
9.2292814e-09
5.7978036e-07
7.6662992e-09
5.7872924e-07
6.200449e-09
5.7790879e-07
4.8110727e-09
5.7728155e-07
3.4792853e-09
5.7682011e-07
2.1875537e-09
5.7650504e-07
9.1928798e-10
5.7632348e-07
-3.415549e-10
5.7626824e-07
-1.6108581e-09
5.7633728e-07
-2.9047367e-09
5.7653361e-07
-4.2399282e-09
5.7686552e-07
-5.6341919e-09
5.7734708e-07
-7.1067233e-09
5.7799917e-07
-8.6785814e-09
5.7885104e-07
-1.0373127e-08
5.7994252e-07
-1.2216479e-08
5.8132735e-07
-1.4237932e-08
5.8307784e-07
-1.6470324e-08
5.8529227e-07
-1.8950416e-08
5.8810533e-07
-2.1716363e-08
5.9169697e-07
-2.4808653e-08
5.9630875e-07
-2.8396049e-08
6.0255505e-07
-3.3105352e-08
6.1310101e-07
-3.8530646e-08
6.3215974e-07
-3.7200727e-08
6.3836617e-07
-1.9176644e-08
5.3455991e-07
2.1269392e-07
1.2421967e-08
1.5789935e-07
3.4108503e-08
4.8045143e-07
4.1242023e-08
6.4044495e-07
3.707094e-08
6.5318096e-07
3.1934835e-08
6.2870391e-07
2.8162236e-08
6.1278016e-07
2.5027034e-08
6.0420758e-07
2.218685e-08
5.9825739e-07
1.9596618e-08
5.9361955e-07
1.723574e-08
5.8996478e-07
1.5077574e-08
5.8707426e-07
1.3095796e-08
5.8477582e-07
1.1265756e-08
5.829427e-07
9.5645886e-09
5.8148152e-07
7.9711627e-09
5.8032267e-07
6.4659531e-09
5.79414e-07
5.0308614e-09
5.7871664e-07
3.6489881e-09
5.7820198e-07
2.3043773e-09
5.7784965e-07
9.8174648e-10
5.7764612e-07
-3.3379126e-10
5.7758378e-07
-1.657005e-09
5.7766049e-07
-3.0028325e-09
5.7787944e-07
-4.3866611e-09
5.7824935e-07
-5.8246053e-09
5.7878502e-07
-7.3337813e-09
5.7950835e-07
-8.9325656e-09
5.8044982e-07
-1.0640827e-08
5.8165078e-07
-1.2480137e-08
5.8316666e-07
-1.4473928e-08
5.8507163e-07
-1.6647528e-08
5.8746587e-07
-1.9027838e-08
5.9048564e-07
-2.1640372e-08
5.9430951e-07
-2.4519326e-08
5.991877e-07
-2.7859054e-08
6.0589477e-07
-3.2204359e-08
6.1744631e-07
-3.649881e-08
6.3645419e-07
-3.3250989e-08
6.3511835e-07
-1.5557131e-08
5.1686605e-07
1.9713679e-07
9.6551141e-09
1.4824433e-07
2.9639315e-08
4.6046742e-07
3.8273743e-08
6.3181061e-07
3.5648769e-08
6.5580592e-07
3.105015e-08
6.3330251e-07
2.7545301e-08
6.16285e-07
2.4665355e-08
6.0708752e-07
2.203424e-08
6.0088851e-07
1.9596005e-08
5.9605778e-07
1.7340664e-08
5.9222012e-07
1.5251591e-08
5.8916333e-07
1.3310191e-08
5.8671722e-07
1.1498117e-08
5.8475477e-07
9.7976272e-09
5.8318201e-07
8.1917022e-09
5.8192859e-07
6.6641043e-09
5.809416e-07
5.1993711e-09
5.8018138e-07
3.7827407e-09
5.7961861e-07
2.4000306e-09
5.7923236e-07
1.0374869e-09
5.7900866e-07
-3.1838663e-10
5.7893965e-07
-1.681007e-09
5.7902311e-07
-3.0639002e-09
5.7926233e-07
-4.480881e-09
5.7966633e-07
-5.9462232e-09
5.8025037e-07
-7.4748114e-09
5.8103694e-07
-9.0822646e-09
5.8205728e-07
-1.0785011e-08
5.8335353e-07
-1.2600318e-08
5.8498196e-07
-1.4546283e-08
5.870176e-07
-1.6641661e-08
5.8956124e-07
-1.8904947e-08
5.9274893e-07
-2.135167e-08
5.9675623e-07
-2.4015943e-08
6.0185198e-07
-2.7113808e-08
6.0899264e-07
-3.1059569e-08
6.2139207e-07
-3.4237057e-08
6.3963168e-07
-2.9502223e-08
6.3038351e-07
-1.2548091e-08
4.9991192e-07
1.845887e-07
7.564493e-09
1.4067996e-07
2.5779326e-08
4.4225281e-07
3.5378264e-08
6.222118e-07
3.4126823e-08
6.5705737e-07
3.0077191e-08
6.3735212e-07
2.6815566e-08
6.1954662e-07
2.4163525e-08
6.0973956e-07
2.1731806e-08
6.0332023e-07
1.9446865e-08
5.9834272e-07
1.7304336e-08
5.9436265e-07
1.5295322e-08
5.9117235e-07
1.3407428e-08
5.8860512e-07
1.1627521e-08
5.8653468e-07
9.9422692e-09
5.8486727e-07
8.3383379e-09
5.8353252e-07
6.8025532e-09
5.8247738e-07
5.3220056e-09
5.8166192e-07
3.8840811e-09
5.8105654e-07
2.476443e-09
5.8064e-07
1.0869752e-09
5.8039813e-07
-2.9629801e-10
5.8032293e-07
-1.6853058e-09
5.8041212e-07
-3.0920333e-09
5.8066906e-07
-4.5286147e-09
5.8110291e-07
-6.0074128e-09
5.8172916e-07
-7.5410734e-09
5.825706e-07
-9.142544e-09
5.8365875e-07
-1.0825039e-08
5.8503602e-07
-1.260195e-08
5.8675887e-07
-1.4486724e-08
5.8890237e-07
-1.6492565e-08
5.9156708e-07
-1.8631088e-08
5.9488745e-07
-2.0910823e-08
5.9903596e-07
-2.33709e-08
6.0431205e-07
-2.6240631e-08
6.1186237e-07
-2.9772015e-08
6.2492346e-07
-3.1907005e-08
6.4176667e-07
-2.6076745e-08
6.2455325e-07
-1.0102861e-08
4.8393804e-07
1.7448584e-07
6.0095282e-09
1.3467057e-07
2.2506742e-08
4.2575588e-07
3.2657423e-08
6.120613e-07
3.2585514e-08
6.5712929e-07
2.907601e-08
6.408616e-07
2.603316e-08
6.2258946e-07
2.3576844e-08
6.1219588e-07
2.1327094e-08
6.0556998e-07
1.9189362e-08
6.0048046e-07
1.7160172e-08
5.9639184e-07
1.5236128e-08
5.9309639e-07
1.3409583e-08
5.9043166e-07
1.1671532e-08
5.8827273e-07
1.0012283e-08
5.8652651e-07
8.421668e-09
5.8512314e-07
6.889251e-09
5.840098e-07
5.4044844e-09
5.8314669e-07
3.9568098e-09
5.8250421e-07
2.5357102e-09
5.820611e-07
1.1307251e-09
5.8180311e-07
-2.6856017e-10
5.8172221e-07
-1.6725391e-09
5.818161e-07
-3.0916161e-09
5.8208813e-07
-4.5362303e-09
5.8254752e-07
-6.0168631e-09
5.832098e-07
-7.5440191e-09
5.8409775e-07
-9.1281703e-09
5.852429e-07
-1.0779651e-08
5.866875e-07
-1.2508496e-08
5.8848772e-07
-1.4324269e-08
5.9071815e-07
-1.6235678e-08
5.9347849e-07
-1.8249045e-08
5.9690082e-07
-2.0368979e-08
6.011559e-07
-2.2643169e-08
6.0658624e-07
-2.530307e-08
6.1452227e-07
-2.8422258e-08
6.2804264e-07
-2.962282e-08
6.4296723e-07
-2.3029794e-08
6.1796023e-07
-8.1529816e-09
4.6906122e-07
1.6633285e-07
4.8675141e-09
1.2980322e-07
1.9763005e-08
4.1086073e-07
3.0159472e-08
6.0166506e-07
3.1077158e-08
6.5621164e-07
2.8086065e-08
6.4385266e-07
2.5240337e-08
6.2543517e-07
2.2947403e-08
6.1448881e-07
2.0858122e-08
6.0765926e-07
1.8856742e-08
6.0248184e-07
1.6936702e-08
5.9831188e-07
1.5098055e-08
5.9493504e-07
1.3336593e-08
5.9219313e-07
1.1646418e-08
5.8996291e-07
1.0020718e-08
5.8815221e-07
8.4519488e-09
5.8669191e-07
6.9320321e-09
5.8552972e-07
5.4525283e-09
5.8462619e-07
4.0047726e-09
5.8395197e-07
2.5799709e-09
5.834859e-07
1.1692643e-09
5.8321382e-07
-2.3623065e-10
5.8312771e-07
-1.6453943e-09
5.8322526e-07
-3.0670825e-09
5.8350982e-07
-4.5100967e-09
5.8399054e-07
-5.9831396e-09
5.8468284e-07
-7.4947446e-09
5.8560936e-07
-9.0531729e-09
5.8680133e-07
-1.066627e-08
5.883006e-07
-1.234128e-08
5.9016273e-07
-1.408466e-08
5.9246153e-07
-1.5901656e-08
5.9529549e-07
-1.7794823e-08
5.9879398e-07
-1.9767652e-08
6.0312873e-07
-2.187812e-08
6.0869671e-07
-2.4347818e-08
6.1699197e-07
-2.7069012e-08
6.3076384e-07
-2.7456577e-08
6.433548e-07
-2.0370713e-08
6.1087436e-07
-6.6227939e-09
4.5531331e-07
1.5971006e-07
4.0360899e-09
1.2576732e-07
1.7475625e-08
3.974216e-07
2.7898354e-08
5.9124263e-07
2.9632352e-08
6.5447771e-07
2.7130519e-08
6.4635447e-07
2.4464246e-08
6.2810143e-07
2.2305309e-08
6.1664775e-07
2.0353931e-08
6.0961063e-07
1.8475543e-08
6.0436022e-07
1.6657526e-08
6.001299e-07
1.4901606e-08
5.9669096e-07
1.3205906e-08
5.9388883e-07
1.1566751e-08
5.9160206e-07
9.9795108e-09
5.8973946e-07
8.4387354e-09
5.8823268e-07
6.938311e-09
5.8703014e-07
5.4716217e-09
5.8609288e-07
4.031693e-09
5.853919e-07
2.6113095e-09
5.8490628e-07
1.2031087e-09
5.8462202e-07
-2.0034413e-10
5.8453116e-07
-1.6064922e-09
5.8463141e-07
-3.0227273e-09
5.8492606e-07
-4.4563236e-09
5.8542413e-07
-5.9143574e-09
5.8614087e-07
-7.4036059e-09
5.8709861e-07
-8.9304193e-09
5.8832814e-07
-1.0500567e-08
5.8987075e-07
-1.2119062e-08
5.9178122e-07
-1.3789985e-08
5.9413245e-07
-1.5516053e-08
5.9702156e-07
-1.729742e-08
6.0057535e-07
-1.9138764e-08
6.0497007e-07
-2.110843e-08
6.1066638e-07
-2.3406821e-08
6.1929036e-07
-2.5751995e-08
6.3310901e-07
-2.5448006e-08
6.4305081e-07
-1.8080952e-08
6.0350731e-07
-5.4379203e-09
4.4267027e-07
1.5427214e-07
3.4325792e-09
1.2233497e-07
1.5570782e-08
3.8528389e-07
2.5867432e-08
5.8094635e-07
2.8266487e-08
6.5207875e-07
2.62212e-08
6.4839972e-07
2.3720732e-08
6.3060187e-07
2.1670831e-08
6.1869764e-07
1.9835704e-08
6.1144576e-07
1.8066149e-08
6.0612978e-07
1.6341519e-08
6.0185453e-07
1.4663729e-08
5.9836874e-07
1.3032352e-08
5.955202e-07
1.1445212e-08
5.931892e-07
9.8992588e-09
5.9128541e-07
8.3906563e-09
5.8974128e-07
6.9148802e-09
5.8850592e-07
5.4668479e-09
5.8754091e-07
4.041053e-09
5.8681769e-07
2.6316865e-09
5.8631565e-07
1.2327447e-09
5.8602096e-07
-1.6187718e-10
5.8592578e-07
-1.558298e-09
5.8602783e-07
-2.9625673e-09
5.8633033e-07
-4.3805757e-09
5.8684214e-07
-5.8179548e-09
5.8757825e-07
-7.2799617e-09
5.8856061e-07
-8.7713448e-09
5.8981952e-07
-1.0296199e-08
5.913956e-07
-1.1857816e-08
5.9334284e-07
-1.3458549e-08
5.9573318e-07
-1.5099375e-08
5.9866238e-07
-1.6779218e-08
6.0225519e-07
-1.8505682e-08
6.0669653e-07
-2.0356277e-08
6.1251697e-07
-2.2500523e-08
6.2143461e-07
-2.4496027e-08
6.3510452e-07
-2.3613911e-08
6.4216869e-07
-1.6126511e-08
5.9601991e-07
-4.5299467e-09
4.3107371e-07
1.4974219e-07
2.992351e-09
1.1934289e-07
1.3980001e-08
3.7429682e-07
2.4048829e-08
5.7087799e-07
2.6984684e-08
6.4914304e-07
2.5362455e-08
6.5002192e-07
2.3017776e-08
6.3294652e-07
2.1056787e-08
6.2065863e-07
1.9318278e-08
6.1318427e-07
1.7643706e-08
6.0780435e-07
1.6003327e-08
6.0349491e-07
1.4398047e-08
5.9997402e-07
1.2828196e-08
5.9709005e-07
1.1292542e-08
5.9472485e-07
9.7891202e-09
5.9278883e-07
8.3152956e-09
5.9121511e-07
6.8677927e-09
5.8995342e-07
5.4427868e-09
5.8896592e-07
4.0360157e-09
5.8822446e-07
2.6428932e-09
5.8770877e-07
1.2586185e-09
5.8740523e-07
-1.2172309e-10
5.8730612e-07
-1.5030619e-09
5.8740917e-07
-2.8902484e-09
5.8771751e-07
-4.2879521e-09
5.8823985e-07
-5.7005543e-09
5.8899085e-07
-7.1320302e-09
5.8999209e-07
-8.585823e-09
5.9127331e-07
-1.0064719e-08
5.928745e-07
-1.1570742e-08
5.9484886e-07
-1.3105047e-08
5.9726749e-07
-1.4667529e-08
6.0022486e-07
-1.6256852e-08
6.0384451e-07
-1.7884727e-08
6.0832441e-07
-1.9635707e-08
6.1426795e-07
-2.1640742e-08
6.2343964e-07
-2.3314553e-08
6.3677833e-07
-2.1955433e-08
6.4080957e-07
-1.4466335e-08
5.8853081e-07
-3.8389734e-09
4.2044635e-07
1.4590322e-07
2.6665667e-09
1.1667664e-07
1.2643527e-08
3.6432054e-07
2.2419777e-08
5.6110231e-07
2.578555e-08
6.4577746e-07
2.4553847e-08
6.512536e-07
2.2358045e-08
6.3514228e-07
2.0470546e-08
6.2254611e-07
1.8811594e-08
6.1484322e-07
1.7219121e-08
6.0939683e-07
1.5654018e-08
6.0506001e-07
1.4115239e-08
6.015128e-07
1.2603344e-08
5.9860195e-07
1.1117628e-08
5.9621057e-07
9.6568269e-09
5.9424963e-07
8.2191627e-09
5.9265277e-07
6.8023148e-09
5.9137027e-07
5.4034658e-09
5.9036477e-07
4.0193852e-09
5.8960854e-07
2.6465271e-09
5.8908163e-07
1.2811315e-09
5.8877063e-07
-8.0675568e-11
5.8866793e-07
-1.442782e-09
5.8877127e-07
-2.8089925e-09
5.8908372e-07
-4.1829236e-09
5.8961378e-07
-5.5678996e-09
5.9037583e-07
-6.9668418e-09
5.9139103e-07
-8.3821587e-09
5.9268863e-07
-9.815651e-09
5.9430799e-07
-1.1268447e-08
5.9630166e-07
-1.2740941e-08
5.9873998e-07
-1.4232464e-08
6.0171639e-07
-1.5742194e-08
6.0535424e-07
-1.7286616e-08
6.0986883e-07
-1.8954603e-08
6.1593594e-07
-2.0832915e-08
6.2531795e-07
-2.2212662e-08
6.3815807e-07
-2.0463838e-08
6.3906075e-07
-1.3057899e-08
5.8112487e-07
-3.3145944e-09
4.1070304e-07
1.4258862e-07
2.4194853e-09
1.1425753e-07
1.1511438e-08
3.5522939e-07
2.09567e-08
5.5165774e-07
2.4664067e-08
6.4207036e-07
2.379216e-08
6.521255e-07
2.1740781e-08
6.3719361e-07
1.9915595e-08
6.2437128e-07
1.832189e-08
6.1643693e-07
1.679997e-08
6.1091875e-07
1.5301736e-08
6.0655824e-07
1.3823489e-08
6.0299105e-07
1.2365626e-08
6.0005981e-07
1.0927671e-08
5.9764852e-07
9.5087704e-09
5.9566853e-07
8.1077277e-09
5.9405382e-07
6.7229307e-09
5.9275506e-07
5.3523506e-09
5.9173535e-07
3.9935944e-09
5.909673e-07
2.6439832e-09
5.9043124e-07
1.3006396e-09
5.9011397e-07
-3.9419989e-11
5.9000799e-07
-1.3791881e-09
5.9011104e-07
-2.721577e-09
5.9042611e-07
-4.069315e-09
5.9096152e-07
-5.424853e-09
5.9173137e-07
-6.7902663e-09
5.9275644e-07
-8.1671674e-09
5.9406553e-07
-9.5566425e-09
5.9569746e-07
-1.0959231e-08
5.9770425e-07
-1.2374899e-08
6.0015565e-07
-1.3802814e-08
6.031443e-07
-1.5243265e-08
6.067947e-07
-1.6717708e-08
6.1134327e-07
-1.8316318e-08
6.1753455e-07
-2.007799e-08
6.2707962e-07
-2.1189764e-08
6.3926985e-07
-1.9125049e-08
6.3699603e-07
-1.1861024e-08
5.7386085e-07
-2.9158023e-09
4.0175782e-07
1.3967282e-07
2.2257262e-09
1.1203224e-07
1.0543266e-08
3.4691279e-07
1.963751e-08
5.4256434e-07
2.3613638e-08
6.3809458e-07
2.3072866e-08
6.5266628e-07
2.1163234e-08
6.3910319e-07
1.9392784e-08
6.2614171e-07
1.7852693e-08
6.1797702e-07
1.6391264e-08
6.1238018e-07
1.495228e-08
6.0799723e-07
1.3528911e-08
6.0441442e-07
1.2121099e-08
6.0146762e-07
1.072839e-08
5.9904123e-07
9.3501315e-09
5.9704679e-07
7.9854983e-09
5.9541845e-07
6.6333855e-09
5.9410718e-07
5.2923664e-09
5.9307637e-07
3.9607144e-09
5.9229895e-07
2.6364586e-09
5.917555e-07
1.3174559e-09
5.9143298e-07
1.4719436e-12
5.9132397e-07
-1.3137405e-09
5.9142625e-07
-2.6303398e-09
5.9174271e-07
-3.950323e-09
5.922815e-07
-5.275435e-09
5.9305648e-07
-6.6070895e-09
5.940881e-07
-7.9463059e-09
5.9540475e-07
-9.2936786e-09
5.9704484e-07
-1.0649396e-08
5.9905997e-07
-1.2013241e-08
6.0151949e-07
-1.3384521e-08
6.0451558e-07
-1.4765058e-08
6.0817523e-07
-1.6181108e-08
6.1275932e-07
-1.7721068e-08
6.1907451e-07
-1.9374001e-08
6.2873256e-07
-2.0241779e-08
6.4013763e-07
-1.7922783e-08
6.3467703e-07
-1.0839815e-08
5.6677788e-07
-2.6101422e-09
3.9352815e-07
1.3706268e-07
2.0678029e-09
1.0996494e-07
9.7068915e-09
3.392748e-07
1.8442644e-08
5.3382959e-07
2.2627367e-08
6.3391031e-07
2.2391107e-08
6.5290257e-07
2.0621677e-08
6.4087256e-07
1.8901293e-08
6.2786207e-07
1.7405625e-08
6.1947268e-07
1.5996098e-08
6.137897e-07
1.4609625e-08
6.093837e-07
1.3235951e-08
6.0578809e-07
1.1874339e-08
6.0282923e-07
1.0524232e-08
6.0039134e-07
9.1850289e-09
5.9838599e-07
7.8561205e-09
5.9674736e-07
6.5367498e-09
5.9542655e-07
5.225938e-09
5.9438718e-07
3.9224773e-09
5.9360241e-07
2.6249642e-09
5.9305301e-07
1.3318533e-09
5.9272609e-07
4.1524702e-11
5.926143e-07
-1.2476435e-09
5.9271542e-07
-2.5372027e-09
5.9303227e-07
-3.8285564e-09
5.9357285e-07
-5.1228914e-09
5.9435081e-07
-6.4211179e-09
5.9538632e-07
-7.7238299e-09
5.9670746e-07
-9.0313057e-09
5.9835231e-07
-1.0343559e-08
6.0037222e-07
-1.1660371e-08
6.0283631e-07
-1.29814e-08
6.0583661e-07
-1.4310279e-08
6.0950411e-07
-1.5677612e-08
6.1412665e-07
-1.716704e-08
6.2056394e-07
-1.8717283e-08
6.302828e-07
-1.9362748e-08
6.4078309e-07
-1.6840489e-08
6.3215477e-07
-9.9631907e-09
5.5990058e-07
-2.3725002e-09
3.8593745e-07
1.3469018e-07
1.9340432e-09
1.0803148e-07
8.9771797e-09
3.3223294e-07
1.7355359e-08
5.2545261e-07
2.1698766e-08
6.2956747e-07
2.1742258e-08
6.5285914e-07
2.0112082e-08
6.4250266e-07
1.8439334e-08
6.2953479e-07
1.6981023e-08
6.2093099e-07
1.5616189e-08
6.1515454e-07
1.4276364e-08
6.1072353e-07
1.2947732e-08
6.0711673e-07
1.162872e-08
6.0414824e-07
1.0318581e-08
6.0170148e-07
9.0166734e-09
5.996879e-07
7.7224889e-09
5.9804154e-07
6.4354969e-09
5.9671354e-07
5.1550414e-09
5.9566763e-07
3.8803095e-09
5.9487714e-07
2.6103429e-09
5.9432298e-07
1.3440747e-09
5.9399235e-07
8.0381678e-11
5.9387799e-07
-1.1818588e-09
5.9397766e-07
-2.4437048e-09
5.9429412e-07
-3.7060917e-09
5.9483524e-07
-4.9697768e-09
5.956145e-07
-6.2352987e-09
5.9665185e-07
-7.5029614e-09
5.9797512e-07
-8.7728614e-09
5.9962221e-07
-1.0044967e-08
6.0164432e-07
-1.1319173e-08
6.0411051e-07
-1.2595643e-08
6.0711308e-07
-1.3879975e-08
6.1078844e-07
-1.5206457e-08
6.1545314e-07
-1.665123e-08
6.2200871e-07
-1.8103341e-08
6.3173491e-07
-1.8545944e-08
6.4122569e-07
-1.5862539e-08
6.2947137e-07
-9.2050025e-09
5.5324304e-07
-2.1839021e-09
3.7891635e-07
1.3250628e-07
1.816904e-09
1.0621525e-07
8.334631e-09
3.2571669e-07
1.6361614e-08
5.1742704e-07
2.0822081e-08
6.2510772e-07
2.1122217e-08
6.5255911e-07
1.9630518e-08
6.4399429e-07
1.800463e-08
6.3116063e-07
1.6578404e-08
6.2235721e-07
1.5252284e-08
6.1648066e-07
1.3954059e-08
6.1202175e-07
1.2666362e-08
6.0840442e-07
1.1386656e-08
6.0542795e-07
1.0113952e-08
6.0297418e-07
8.8475154e-09
6.0095434e-07
7.5868578e-09
5.993022e-07
6.3315832e-09
5.9796881e-07
5.0812598e-09
5.9691796e-07
3.8353672e-09
5.9612303e-07
2.5932889e-09
5.9556505e-07
1.3543324e-09
5.9523131e-07
1.1776637e-10
5.9511456e-07
-1.1171355e-09
5.9521256e-07
-2.3510454e-09
5.9552803e-07
-3.5845365e-09
5.9606873e-07
-4.8180444e-09
5.9684801e-07
-6.0518443e-09
5.9788565e-07
-7.2860555e-09
5.9920933e-07
-8.5206927e-09
6.0085685e-07
-9.755765e-09
6.028794e-07
-1.099136e-08
6.0534611e-07
-1.2228245e-08
6.0834996e-07
-1.3474035e-08
6.1203423e-07
-1.4765898e-08
6.16745e-07
-1.6170041e-08
6.2341285e-07
-1.752744e-08
6.3309231e-07
-1.778461e-08
6.4148286e-07
-1.497485e-08
6.2666161e-07
-8.5437123e-09
5.4681191e-07
-2.0303469e-09
3.7240299e-07
1.3047593e-07
1.7116631e-09
1.0450437e-07
7.7641562e-09
3.1966591e-07
1.5449755e-08
5.097431e-07
1.9992386e-08
6.2056597e-07
2.0527509e-08
6.5202415e-07
1.9173368e-08
6.4534835e-07
1.7594724e-08
6.3273922e-07
1.6196788e-08
6.2375513e-07
1.4904471e-08
6.1777298e-07
1.3643535e-08
6.1328269e-07
1.2393178e-08
6.0965478e-07
1.1149808e-08
6.0667132e-07
9.9121632e-09
6.0421183e-07
8.6793817e-09
6.0218712e-07
7.4509464e-09
6.0053063e-07
6.2265275e-09
5.9919323e-07
5.0058404e-09
5.9813864e-07
3.7885744e-09
5.973403e-07
2.5743682e-09
5.9677926e-07
1.3628158e-09
5.9644286e-07
1.5348847e-10
5.9632389e-07
-1.0540341e-09
5.9642008e-07
-2.260128e-09
5.9673412e-07
-3.4650948e-09
5.972737e-07
-4.6691372e-09
5.9805205e-07
-5.8723527e-09
5.9908886e-07
-7.074757e-09
6.0041174e-07
-8.2763536e-09
6.0205845e-07
-9.4772485e-09
6.0408029e-07
-1.0677767e-08
6.0654663e-07
-1.1879344e-08
6.0955154e-07
-1.3091583e-08
6.1324647e-07
-1.4353634e-08
6.1800705e-07
-1.571969e-08
6.2477891e-07
-1.6984985e-08
6.343576e-07
-1.7072395e-08
6.4157027e-07
-1.4165127e-08
6.2375434e-07
-7.9618535e-09
5.4060863e-07
-1.9017309e-09
3.6634287e-07
1.285742e-07
1.6154482e-09
1.0288982e-07
7.2540428e-09
3.1402929e-07
1.4610131e-08
5.0238896e-07
1.9205536e-08
6.1597164e-07
1.9955282e-08
6.5127465e-07
1.8737434e-08
6.4656613e-07
1.7207174e-08
6.3426942e-07
1.583492e-08
6.2512737e-07
1.4572405e-08
6.1903549e-07
1.3345087e-08
6.1451001e-07
1.2128944e-08
6.1087092e-07
1.091926e-08
6.07881e-07
9.7144773e-09
6.0541661e-07
8.5135952e-09
6.03388e-07
7.3160346e-09
6.0172819e-07
6.1214842e-09
6.0038778e-07
4.9297475e-09
5.9933038e-07
3.7406576e-09
5.9852939e-07
2.554038e-09
5.9796588e-07
1.3696953e-09
5.9762721e-07
1.8742836e-10
5.9750615e-07
-9.9295313e-10
5.9760047e-07
-2.171605e-09
5.9791277e-07
-3.3486314e-09
5.9845072e-07
-4.5240739e-09
5.9922749e-07
-5.6979199e-09
6.0026271e-07
-6.8701406e-09
6.0158396e-07
-8.0407769e-09
6.0322908e-07
-9.2100641e-09
6.0524958e-07
-1.0378589e-08
6.0771515e-07
-1.154849e-08
6.1072144e-07
-1.2731262e-08
6.1442924e-07
-1.3967108e-08
6.192429e-07
-1.529648e-08
6.2610828e-07
-1.6471745e-08
6.3553287e-07
-1.6403583e-08
6.4150211e-07
-1.3422862e-08
6.2077362e-07
-7.4454193e-09
5.3463119e-07
-1.7909175e-09
3.6068836e-07
1.2678328e-07
1.5265483e-09
1.013643e-07
6.7951224e-09
3.0876299e-07
1.3834709e-08
4.9535165e-07
1.8458063e-08
6.1134959e-07
1.9403239e-08
6.503298e-07
1.8319952e-08
6.4764934e-07
1.6839661e-08
6.3574963e-07
1.5491417e-08
6.2647559e-07
1.4255467e-08
6.2027144e-07
1.3058645e-08
6.1570683e-07
1.1874007e-08
6.1205556e-07