/*--------------------------------*- C++ -*----------------------------------*\
  =========                 |
  \\      /  F ield         | OpenFOAM: The Open Source CFD Toolbox
   \\    /   O peration     | Website:  https://openfoam.org
    \\  /    A nd           | Version:  10
     \\/     M anipulation  |
\*---------------------------------------------------------------------------*/
FoamFile
{
    format      ascii;
    class       volScalarField;
    location    "0.2";
    object      T;
}
// * * * * * * * * * * * * * * * * * * * * * * * * * * * * * * * * * * * * * //

dimensions      [0 0 0 1 0 0 0];

internalField   nonuniform List<scalar> 
4000
(
303.10135
299.34291
299.99042
300.00082
299.99993
300
300
300
300
300
300
300
300
300
300
300
300
300
300
300
300
300
300
300
300
300
300
300
300
300
300
300
300
300
300
300
300
300
300
300
309.66346
298.49297
299.77921
300.00184
300.0008
299.99999
300
300
300
300
300
300
300
300
300
300
300
300
300
300
300
300
300
300
300
300
300
300
300
300
300
300
300
300
300
300
300
300
300
300
316.00428
298.68458
299.3922
299.9757
300.00406
300.00025
299.99999
300
300
300
300
300
300
300
300
300
300
300
300
300
300
300
300
300
300
300
300
300
300
300
300
300
300
300
300
300
300
300
300
300
321.74234
299.84594
298.98479
299.89491
300.00716
300.00139
300
299.99999
300
300
300
300
300
300
300
300
300
300
300
300
300
300
300
300
300
300
300
300
300
300
300
300
300
300
300
300
300
300
300
300
326.67118
301.70054
298.70999
299.75312
300.00323
300.00379
300.00017
299.99998
300
300
300
300
300
300
300
300
300
300
300
300
300
300
300
300
300
300
300
300
300
300
300
300
300
300
300
300
300
300
300
300
330.68515
303.94811
298.66326
299.56829
299.98427
300.00697
300.00072
299.99997
299.99999
300
300
300
300
300
300
300
300
300
300
300
300
300
300
300
300
300
300
300
300
300
300
300
300
300
300
300
300
300
300
300
333.77451
306.33092
298.87089
299.37368
299.94517
300.00938
300.00181
300
299.99998
300
300
300
300
300
300
300
300
300
300
300
300
300
300
300
300
300
300
300
300
300
300
300
300
300
300
300
300
300
300
300
336.02201
308.66443
299.30779
299.2038
299.88578
300.00891
300.00346
300.00014
299.99997
300
300
300
300
300
300
300
300
300
300
300
300
300
300
300
300
300
300
300
300
300
300
300
300
300
300
300
300
300
300
300
337.5742
310.83782
299.92421
299.0846
299.81049
300.00353
300.00542
300.00046
299.99996
299.99999
300
300
300
300
300
300
300
300
300
300
300
300
300
300
300
300
300
300
300
300
300
300
300
300
300
300
300
300
300
300
338.60244
312.79832
300.66562
299.03054
299.72632
299.99192
300.00725
300.001
299.99996
299.99998
300
300
300
300
300
300
300
300
300
300
300
300
300
300
300
300
300
300
300
300
300
300
300
300
300
300
300
300
300
300
339.26942
314.53306
301.48338
299.04604
299.64102
299.97369
300.00841
300.00176
300.00001
299.99997
300
300
300
300
300
300
300
300
300
300
300
300
300
300
300
300
300
300
300
300
300
300
300
300
300
300
300
300
300
300
339.70847
316.0533
302.33912
299.12842
299.5616
299.94927
300.00835
300.00269
300.00012
299.99996
300
300
300
300
300
300
300
300
300
300
300
300
300
300
300
300
300
300
300
300
300
300
300
300
300
300
300
300
300
300
340.01619
317.38248
303.2052
299.271
299.49366
299.91974
300.00662
300.00368
300.0003
299.99996
299.99999
300
300
300
300
300
300
300
300
300
300
300
300
300
300
300
300
300
300
300
300
300
300
300
300
300
300
300
300
300
340.25525
318.54809
304.06322
299.46537
299.44116
299.88658
300.00294
300.00462
300.00057
299.99996
299.99999
300
300
300
300
300
300
300
300
300
300
300
300
300
300
300
300
300
300
300
300
300
300
300
300
300
300
300
300
300
340.4621
319.57697
304.90183
299.70298
299.40654
299.85138
299.99716
300.00535
300.0009
299.99998
299.99998
300
300
300
300
300
300
300
300
300
300
300
300
300
300
300
300
300
300
300
300
300
300
300
300
300
300
300
300
300
340.65548
320.49297
305.71464
299.9759
299.39106
299.81573
299.98929
300.00575
300.0013
300.00003
299.99998
300
300
300
300
300
300
300
300
300
300
300
300
300
300
300
300
300
300
300
300
300
300
300
300
300
300
300
300
300
340.84344
321.3161
306.49858
300.27719
299.39508
299.7811
299.97948
300.00568
300.00174
300.0001
299.99997
300
300
300
300
300
300
300
300
300
300
300
300
300
300
300
300
300
300
300
300
300
300
300
300
300
300
300
300
300
341.02828
322.06259
307.2526
300.60095
299.41831
299.74878
299.96795
300.00505
300.00218
300.00019
299.99997
299.99999
300
300
300
300
300
300
300
300
300
300
300
300
300
300
300
300
300
300
300
300
300
300
300
300
300
300
300
300
341.20966
322.74525
307.97685
300.94226
299.46009
299.71985
299.955
300.00377
300.00258
300.00031
299.99998
299.99999
300
300
300
300
300
300
300
300
300
300
300
300
300
300
300
300
300
300
300
300
300
300
300
300
300
300
300
300
341.38635
323.37408
308.67211
301.29702
299.51946
299.69522
299.94097
300.00182
300.00292
300.00046
299.99999
299.99999
300
300
300
300
300
300
300
300
300
300
300
300
300
300
300
300
300
300
300
300
300
300
300
300
300
300
300
300
341.55705
323.95683
309.33947
301.66186
299.59534
299.67561
299.92623
299.99916
300.00316
300.00062
300.00001
299.99999
300
300
300
300
300
300
300
300
300
300
300
300
300
300
300
300
300
300
300
300
300
300
300
300
300
300
300
300
341.72077
324.49955
309.98012
302.03397
299.68656
299.66157
299.91114
299.9958
300.00325
300.0008
300.00004
299.99998
300
300
300
300
300
300
300
300
300
300
300
300
300
300
300
300
300
300
300
300
300
300
300
300
300
300
300
300
341.87693
325.00699
310.59527
302.411
299.79194
299.65352
299.89606
299.99177
300.00317
300.00099
300.00007
299.99998
300
300
300
300
300
300
300
300
300
300
300
300
300
300
300
300
300
300
300
300
300
300
300
300
300
300
300
300
342.02529
325.48296
311.18608
302.791
299.91029
299.65174
299.88136
299.98713
300.00289
300.00116
300.00012
299.99999
300
300
300
300
300
300
300
300
300
300
300
300
300
300
300
300
300
300
300
300
300
300
300
300
300
300
300
300
342.1659
325.93058
311.75365
303.17231
300.04048
299.65643
299.86736
299.98193
300.00239
300.00133
300.00017
299.99999
299.99999
300
300
300
300
300
300
300
300
300
300
300
300
300
300
300
300
300
300
300
300
300
300
300
300
300
300
300
342.29902
326.35246
312.29903
303.55355
300.1814
299.66767
299.85437
299.97626
300.00165
300.00146
300.00024
300
299.99999
300
300
300
300
300
300
300
300
300
300
300
300
300
300
300
300
300
300
300
300
300
300
300
300
300
300
300
342.42499
326.75083
312.82322
303.93355
300.33199
299.68547
299.84268
299.97021
300.00067
300.00156
300.0003
300.00001
299.99999
300
300
300
300
300
300
300
300
300
300
300
300
300
300
300
300
300
300
300
300
300
300
300
300
300
300
300
342.54423
327.12765
313.32717
304.31131
300.49124
299.70979
299.83254
299.96388
299.99943
300.00161
300.00037
300.00002
299.99999
300
300
300
300
300
300
300
300
300
300
300
300
300
300
300
300
300
300
300
300
300
300
300
300
300
300
300
342.65719
327.48461
313.81176
304.68599
300.65823
299.74053
299.82418
299.95736
299.99795
300.0016
300.00045
300.00003
299.99999
300
300
300
300
300
300
300
300
300
300
300
300
300
300
300
300
300
300
300
300
300
300
300
300
300
300
300
342.7643
327.82324
314.27787
305.0569
300.83204
299.77753
299.8178
299.95077
299.99622
300.00153
300.00052
300.00005
299.99999
300
300
300
300
300
300
300
300
300
300
300
300
300
300
300
300
300
300
300
300
300
300
300
300
300
300
300
342.86596
328.14489
314.7263
305.42344
301.01187
299.82063
299.81356
299.94422
299.99427
300.00138
300.00058
300.00007
300
300
300
300
300
300
300
300
300
300
300
300
300
300
300
300
300
300
300
300
300
300
300
300
300
300
300
300
342.96255
328.45079
315.15783
305.78511
301.19692
299.8696
299.81163
299.93781
299.9921
300.00115
300.00064
300.0001
300
300
300
300
300
300
300
300
300
300
300
300
300
300
300
300
300
300
300
300
300
300
300
300
300
300
300
300
343.05441
328.742
315.57319
306.14149
301.38648
299.92422
299.81211
299.93164
299.98974
300.00083
300.00069
300.00012
300
300
300
300
300
300
300
300
300
300
300
300
300
300
300
300
300
300
300
300
300
300
300
300
300
300
300
300
343.14183
329.01951
315.97307
306.49225
301.57987
299.98424
299.81509
299.92582
299.98722
300.00042
300.00072
300.00015
300.00001
300
300
300
300
300
300
300
300
300
300
300
300
300
300
300
300
300
300
300
300
300
300
300
300
300
300
300
343.22508
329.28417
316.35812
306.83709
301.77646
300.04939
299.82067
299.92045
299.98456
299.99992
300.00073
300.00018
300.00001
300
300
300
300
300
300
300
300
300
300
300
300
300
300
300
300
300
300
300
300
300
300
300
300
300
300
300
343.30438
329.53674
316.72895
307.17576
301.97567
300.11941
299.82888
299.91563
299.98179
299.99933
300.00072
300.00021
300.00002
300
300
300
300
300
300
300
300
300
300
300
300
300
300
300
300
300
300
300
300
300
300
300
300
300
300
300
343.37991
329.77789
317.08612
307.50807
302.17695
300.19401
299.83975
299.91144
299.97895
299.99864
300.00069
300.00023
300.00003
300
300
300
300
300
300
300
300
300
300
300
300
300
300
300
300
300
300
300
300
300
300
300
300
300
300
300
343.45185
330.00821
317.43014
307.83385
302.37978
300.27292
299.85332
299.90796
299.97607
299.99786
300.00063
300.00026
300.00004
300
300
300
300
300
300
300
300
300
300
300
300
300
300
300
300
300
300
300
300
300
300
300
300
300
300
300
343.52031
330.22819
317.76147
308.15294
302.58369
300.35584
299.86956
299.90527
299.97319
299.997
300.00054
300.00028
300.00005
300
300
300
300
300
300
300
300
300
300
300
300
300
300
300
300
300
300
300
300
300
300
300
300
300
300
300
343.58541
330.43827
318.08055
308.46523
302.78823
300.44249
299.88847
299.90343
299.97035
299.99606
300.00042
300.00029
300.00006
300
300
300
300
300
300
300
300
300
300
300
300
300
300
300
300
300
300
300
300
300
300
300
300
300
300
300
343.64722
330.6388
318.38774
308.7706
302.99299
300.53259
299.91001
299.90252
299.96758
299.99505
300.00026
300.0003
300.00007
300
300
300
300
300
300
300
300
300
300
300
300
300
300
300
300
300
300
300
300
300
300
300
300
300
300
300
343.70579
330.83009
318.68338
309.06895
303.19754
300.62584
299.93413
299.90259
299.96493
299.99397
300.00007
300.00031
300.00008
300.00001
300
300
300
300
300
300
300
300
300
300
300
300
300
300
300
300
300
300
300
300
300
300
300
300
300
300
343.76115
331.01235
318.96774
309.36017
303.40153
300.72197
299.96079
299.90368
299.96242
299.99284
299.99985
300.0003
300.00009
300.00001
300
300
300
300
300
300
300
300
300
300
300
300
300
300
300
300
300
300
300
300
300
300
300
300
300
300
343.81331
331.18577
319.24107
309.64417
303.60459
300.82069
299.98992
299.90584
299.9601
299.99166
299.99959
300.00029
300.00009
300.00001
300
300
300
300
300
300
300
300
300
300
300
300
300
300
300
300
300
300
300
300
300
300
300
300
300
300
343.86225
331.35044
319.50353
309.92086
303.80637
300.92171
300.02143
299.9091
299.958
299.99045
299.99929
300.00027
300.0001
300.00002
300
300
300
300
300
300
300
300
300
300
300
300
300
300
300
300
300
300
300
300
300
300
300
300
300
300
343.90796
331.50642
319.75528
310.19012
304.00653
301.02476
300.05524
299.91349
299.95616
299.98923
299.99897
300.00024
300.00011
300.00002
300
300
300
300
300
300
300
300
300
300
300
300
300
300
300
300
300
300
300
300
300
300
300
300
300
300
343.95037
331.6537
319.99638
310.45183
304.20476
301.12956
300.09126
299.91902
299.95461
299.98799
299.99861
300.00019
300.00012
300.00002
300
300
300
300
300
300
300
300
300
300
300
300
300
300
300
300
300
300
300
300
300
300
300
300
300
300
343.98945
331.79222
320.22688
310.70587
304.40073
301.23583
300.12937
299.92572
299.95338
299.98677
299.99822
300.00013
300.00012
300.00003
300
300
300
300
300
300
300
300
300
300
300
300
300
300
300
300
300
300
300
300
300
300
300
300
300
300
344.02512
331.92186
320.44674
310.95209
304.59414
301.34328
300.16948
299.93357
299.9525
299.98556
299.9978
300.00007
300.00012
300.00003
300
300
300
300
300
300
300
300
300
300
300
300
300
300
300
300
300
300
300
300
300
300
300
300
300
300
344.05734
332.04248
320.65589
311.19033
304.78468
301.45165
300.21144
299.9426
299.95199
299.98439
299.99736
299.99998
300.00012
300.00003
300
300
300
300
300
300
300
300
300
300
300
300
300
300
300
300
300
300
300
300
300
300
300
300
300
300
344.08603
332.15389
320.8542
311.42039
304.97203
301.56066
300.25515
299.95277
299.95189
299.98327
299.9969
299.99989
300.00011
300.00004
300.00001
300
300
300
300
300
300
300
300
300
300
300
300
300
300
300
300
300
300
300
300
300
300
300
300
300
344.11117
332.25586
321.04148
311.64206
305.15589
301.67003
300.30047
299.96409
299.95221
299.98222
299.99642
299.99978
300.00011
300.00004
300.00001
300
300
300
300
300
300
300
300
300
300
300
300
300
300
300
300
300
300
300
300
300
300
300
300
300
344.13274
332.34819
321.2175
311.8551
305.33595
301.77948
300.34725
299.97653
299.95297
299.98124
299.99592
299.99966
300.00009
300.00004
300.00001
300
300
300
300
300
300
300
300
300
300
300
300
300
300
300
300
300
300
300
300
300
300
300
300
300
344.15077
332.43068
321.38198
312.05924
305.51188
301.88873
300.39535
299.99006
299.95419
299.98036
299.99542
299.99953
300.00008
300.00004
300.00001
300
300
300
300
300
300
300
300
300
300
300
300
300
300
300
300
300
300
300
300
300
300
300
300
300
344.16532
332.50318
321.53464
312.25418
305.68337
301.9975
300.44463
300.00464
299.95588
299.97958
299.99492
299.99939
300.00006
300.00004
300.00001
300
300
300
300
300
300
300
300
300
300
300
300
300
300
300
300
300
300
300
300
300
300
300
300
300
344.17651
332.5656
321.67515
312.4396
305.85008
302.10551
300.49492
300.02024
299.95805
299.97893
299.99441
299.99923
300.00003
300.00004
300.00001
300
300
300
300
300
300
300
300
300
300
300
300
300
300
300
300
300
300
300
300
300
300
300
300
300
344.18452
332.61799
321.80323
312.61516
306.01167
302.21247
300.54605
300.03681
299.96071
299.97841
299.99392
299.99907
300
300.00004
300.00001
300
300
300
300
300
300
300
300
300
300
300
300
300
300
300
300
300
300
300
300
300
300
300
300
300
344.18958
332.66051
321.91862
312.78051
306.16781
302.3181
300.59788
300.0543
299.96386
299.97803
299.99344
299.9989
299.99997
300.00004
300.00001
300
300
300
300
300
300
300
300
300
300
300
300
300
300
300
300
300
300
300
300
300
300
300
300
300
344.19199
332.6935
322.02113
312.93531
306.31813
302.42211
300.65022
300.07265
299.9675
299.97781
299.99297
299.99872
299.99993
300.00004
300.00001
300
300
300
300
300
300
300
300
300
300
300
300
300
300
300
300
300
300
300
300
300
300
300
300
300
344.19207
332.71746
322.1107
313.07921
306.46231
302.52423
300.70291
300.0918
299.97163
299.97775
299.99254
299.99853
299.99989
300.00003
300.00001
300
300
300
300
300
300
300
300
300
300
300
300
300
300
300
300
300
300
300
300
300
300
300
300
300
344.19019
332.7331
322.18742
313.21194
306.60001
302.62416
300.75578
300.11168
299.97623
299.97786
299.99213
299.99834
299.99984
300.00003
300.00001
300
300
300
300
300
300
300
300
300
300
300
300
300
300
300
300
300
300
300
300
300
300
300
300
300
344.18677
332.74127
322.25153
313.33329
306.73091
302.72165
300.80864
300.13222
299.98131
299.97815
299.99175
299.99815
299.99979
300.00002
300.00001
300
300
300
300
300
300
300
300
300
300
300
300
300
300
300
300
300
300
300
300
300
300
300
300
300
344.18219
332.74299
322.3035
313.44313
306.85473
302.81642
300.86133
300.15335
299.98684
299.97863
299.99142
299.99795
299.99974
300.00001
300.00001
300
300
300
300
300
300
300
300
300
300
300
300
300
300
300
300
300
300
300
300
300
300
300
300
300
344.17684
332.73937
322.34403
313.54146
306.97124
302.90823
300.91368
300.17499
299.99281
299.9793
299.99113
299.99776
299.99968
300
300.00001
300
300
300
300
300
300
300
300
300
300
300
300
300
300
300
300
300
300
300
300
300
300
300
300
300
344.17108
332.73158
322.37402
313.62843
307.08024
302.99686
300.96553
300.19706
299.9992
299.98016
299.99089
299.99757
299.99962
299.99999
300.00001
300
300
300
300
300
300
300
300
300
300
300
300
300
300
300
300
300
300
300
300
300
300
300
300
300
344.16522
332.7208
322.39459
313.70436
307.18165
303.08211
301.01672
300.2195
300.00599
299.98121
299.9907
299.99739
299.99955
299.99998
300.00001
300
300
300
300
300
300
300
300
300
300
300
300
300
300
300
300
300
300
300
300
300
300
300
300
300
344.15952
332.70817
322.40703
313.76975
307.27543
303.16381
301.06712
300.24221
300.01315
299.98246
299.99057
299.99721
299.99949
299.99996
300.00001
300
300
300
300
300
300
300
300
300
300
300
300
300
300
300
300
300
300
300
300
300
300
300
300
300
344.15417
332.69473
322.41277
313.82527
307.36167
303.24186
301.11658
300.26512
300.02066
299.98389
299.9905
299.99704
299.99942
299.99995
300.00001
300
300
300
300
300
300
300
300
300
300
300
300
300
300
300
300
300
300
300
300
300
300
300
300
300
344.1493
332.68138
322.41333
313.87179
307.44055
303.31615
301.16499
300.28816
300.0285
299.98552
299.9905
299.99689
299.99935
299.99993
300.00001
300
300
300
300
300
300
300
300
300
300
300
300
300
300
300
300
300
300
300
300
300
300
300
300
300
344.14495
332.66883
322.41022
313.9103
307.51237
303.38667
301.21225
300.31126
300.03664
299.98733
299.99056
299.99674
299.99928
299.99991
300
300
300
300
300
300
300
300
300
300
300
300
300
300
300
300
300
300
300
300
300
300
300
300
300
300
344.14111
332.65758
322.40488
313.94194
307.57753
303.45344
301.25828
300.33436
300.04504
299.98932
299.99069
299.99661
299.99921
299.99989
300
300
300
300
300
300
300
300
300
300
300
300
300
300
300
300
300
300
300
300
300
300
300
300
300
300
344.1377
332.64792
322.39865
313.96791
307.63652
303.51652
301.30303
300.35739
300.05368
299.99149
299.99088
299.9965
299.99914
299.99987
299.99999
300
300
300
300
300
300
300
300
300
300
300
300
300
300
300
300
300
300
300
300
300
300
300
300
300
344.1346
332.6399
322.39263
313.98945
307.68994
303.57604
301.34645
300.3803
300.06253
299.99382
299.99115
299.9964
299.99907
299.99984
299.99999
300
300
300
300
300
300
300
300
300
300
300
300
300
300
300
300
300
300
300
300
300
300
300
300
300
344.13164
332.63337
322.38768
314.00774
307.73841
303.63217
301.38852
300.40305
300.07158
299.99631
299.99149
299.99632
299.999
299.99982
299.99999
300
300
300
300
300
300
300
300
300
300
300
300
300
300
300
300
300
300
300
300
300
300
300
300
300
344.12865
332.628
322.38436
314.0239
307.78263
303.68511
301.42924
300.42558
300.08078
299.99896
299.9919
299.99626
299.99894
299.9998
299.99998
300
300
300
300
300
300
300
300
300
300
300
300
300
300
300
300
300
300
300
300
300
300
300
300
300
344.12543
332.62329
322.3829
314.03888
307.82327
303.73511
301.46864
300.44788
300.09012
300.00175
299.99237
299.99622
299.99888
299.99977
299.99997
300
300
300
300
300
300
300
300
300
300
300
300
300
300
300
300
300
300
300
300
300
300
300
300
300
344.12182
332.61867
322.38321
314.05346
307.861
303.78241
301.50674
300.46991
300.09957
300.00467
299.99292
299.99621
299.99882
299.99975
299.99997
300
300
300
300
300
300
300
300
300
300
300
300
300
300
300
300
300
300
300
300
300
300
300
300
300
344.11765
332.61349
322.38491
314.06817
307.89642
303.8273
301.54359
300.49164
300.10911
300.00772
299.99353
299.99621
299.99877
299.99972
299.99996
300
300
300
300
300
300
300
300
300
300
300
300
300
300
300
300
300
300
300
300
300
300
300
300
300
344.11283
332.60715
322.38739
314.08328
307.93004
303.87002
301.57924
300.51307
300.11873
300.0109
299.99421
299.99624
299.99872
299.9997
299.99995
300
300
300
300
300
300
300
300
300
300
300
300
300
300
300
300
300
300
300
300
300
300
300
300
300
344.10726
332.59906
322.38981
314.09883
307.96229
303.91082
301.61374
300.53417
300.1284
300.01418
299.99496
299.99629
299.99868
299.99968
299.99995
300
300
300
300
300
300
300
300
300
300
300
300
300
300
300
300
300
300
300
300
300
300
300
300
300
344.10094
332.58878
322.39126
314.11457
307.99345
303.94993
301.64716
300.55494
300.13811
300.01756
299.99577
299.99637
299.99864
299.99965
299.99994
299.99999
300
300
300
300
300
300
300
300
300
300
300
300
300
300
300
300
300
300
300
300
300
300
300
300
344.09387
332.57596
322.39078
314.13006
308.02365
303.98751
301.67956
300.57537
300.14783
300.02104
299.99664
299.99647
299.99861
299.99963
299.99993
299.99999
300
300
300
300
300
300
300
300
300
300
300
300
300
300
300
300
300
300
300
300
300
300
300
300
344.08612
332.56044
322.38746
314.14467
308.05292
304.02371
301.71097
300.59545
300.15756
300.02461
299.99757
299.9966
299.99858
299.99961
299.99992
299.99999
300
300
300
300
300
300
300
300
300
300
300
300
300
300
300
300
300
300
300
300
300
300
300
300
344.07778
332.54217
322.38053
314.15765
308.08112
304.05863
301.74145
300.61517
300.16728
300.02826
299.99856
299.99675
299.99856
299.99958
299.99991
299.99999
300
300
300
300
300
300
300
300
300
300
300
300
300
300
300
300
300
300
300
300
300
300
300
300
344.06898
332.52129
322.36938
314.16821
308.108
304.09229
301.77104
300.63454
300.17697
300.03197
299.9996
299.99692
299.99855
299.99956
299.9999
299.99999
300
300
300
300
300
300
300
300
300
300
300
300
300
300
300
300
300
300
300
300
300
300
300
300
344.05985
332.49804
322.35364
314.17555
308.1332
304.12467
301.79976
300.65355
300.18663
300.03575
300.00069
299.99712
299.99855
299.99955
299.9999
299.99998
300
300
300
300
300
300
300
300
300
300
300
300
300
300
300
300
300
300
300
300
300
300
300
300
344.05055
332.47279
322.33317
314.17895
308.15628
304.15571
301.82762
300.6722
300.19625
300.03958
300.00183
299.99734
299.99855
299.99953
299.99989
299.99998
300
300
300
300
300
300
300
300
300
300
300
300
300
300
300
300
300
300
300
300
300
300
300
300
344.04121
332.44596
322.30807
314.17785
308.17676
304.18523
301.85462
300.6905
300.20581
300.04346
300.00302
299.99758
299.99856
299.99951
299.99988
299.99998
300
300
300
300
300
300
300
300
300
300
300
300
300
300
300
300
300
300
300
300
300
300
300
300
344.03199
332.41802
322.27861
314.17184
308.19416
304.21304
301.88068
300.70841
300.2153
300.04737
300.00425
299.99784
299.99858
299.9995
299.99987
299.99998
300
300
300
300
300
300
300
300
300
300
300
300
300
300
300
300
300
300
300
300
300
300
300
300
344.02301
332.38943
322.24526
314.16073
308.20806
304.2389
301.90573
300.72591
300.2247
300.05132
300.00552
299.99813
299.99861
299.99949
299.99986
299.99997
300
300
300
300
300
300
300
300
300
300
300
300
300
300
300
300
300
300
300
300
300
300
300
300
344.01437
332.36066
322.20856
314.14451
308.21814
304.26254
301.92963
300.74293
300.234
300.05529
300.00683
299.99844
299.99864
299.99948
299.99986
299.99997
300
300
300
300
300
300
300
300
300
300
300
300
300
300
300
300
300
300
300
300
300
300
300
300
344.00618
332.33213
322.16913
314.12334
308.2242
304.28376
301.95225
300.7594
300.24315
300.05928
300.00818
299.99877
299.99869
299.99947
299.99985
299.99997
299.99999
300
300
300
300
300
300
300
300
300
300
300
300
300
300
300
300
300
300
300
300
300
300
300
343.9985
332.30421
322.12758
314.09749
308.2262
304.30245
301.9735
300.77527
300.25212
300.06327
300.00958
299.99914
299.99875
299.99947
299.99984
299.99997
299.99999
300
300
300
300
300
300
300
300
300
300
300
300
300
300
300
300
300
300
300
300
300
300
300
343.99139
332.27724
322.08454
314.06727
308.22423
304.31862
301.99336
300.79048
300.26088
300.06724
300.011
299.99953
299.99882
299.99947
299.99984
299.99996
299.99999
300
300
300
300
300
300
300
300
300
300
300
300
300
300
300
300
300
300
300
300
300
300
300
343.98489
332.25148
322.04054
314.03299
308.21842
304.33242
302.01192
300.80508
300.26944
300.0712
300.01246
299.99994
299.9989
299.99947
299.99983
299.99996
299.99999
300
300
300
300
300
300
300
300
300
300
300
300
300
300
300
300
300
300
300
300
300
300
300
343.97902
332.22717
321.99612
313.99489
308.20883
304.34404
302.0294
300.81918
300.27782
300.07513
300.01393
300.00038
299.99899
299.99948
299.99983
299.99996
299.99999
300
300
300
300
300
300
300
300
300
300
300
300
300
300
300
300
300
300
300
300
300
300
300
343.97376
332.20443
321.95178
313.95335
308.19565
304.35378
302.04607
300.83292
300.28606
300.07902
300.0154
300.00081
299.99908
299.99949
299.99983
299.99996
299.99999
300
300
300
300
300
300
300
300
300
300
300
300
300
300
300
300
300
300
300
300
300
300
300
343.96919
332.18347
321.90758
313.90739
308.17745
304.36124
302.06245
300.84695
300.29455
300.08304
300.01691
300.00125
299.99917
299.99949
299.99982
299.99995
299.99999
300
300
300
300
300
300
300
300
300
300
300
300
300
300
300
300
300
300
300
300
300
300
300
343.96507
332.16467
321.86725
313.86398
308.15951
304.36761
302.07712
300.85938
300.30198
300.08652
300.01821
300.00163
299.99924
299.99949
299.99982
299.99995
299.99999
300
300
300
300
300
300
300
300
300
300
300
300
300
300
300
300
300
300
300
300
300
300
300
343.96161
332.14208
321.80736
313.78473
308.11356
304.36824
302.09987
300.88173
300.31591
300.093
300.02052
300.00222
299.99932
299.99948
299.9998
299.99994
299.99999
300
300
300
300
300
300
300
300
300
300
300
300
300
300
300
300
300
300
300
300
300
300
300
)
;

boundaryField
{
    wall
    {
        type            fixedValue;
        value           uniform 350;
    }
    sides
    {
        type            zeroGradient;
    }
    frontAndBack
    {
        type            empty;
    }
    inlet
    {
        type            fixedValue;
        value           uniform 300;
    }
    outlet
    {
        type            zeroGradient;
    }
}


// ************************************************************************* //
