/*--------------------------------*- C++ -*----------------------------------*\
  =========                 |
  \\      /  F ield         | OpenFOAM: The Open Source CFD Toolbox
   \\    /   O peration     | Website:  https://openfoam.org
    \\  /    A nd           | Version:  10
     \\/     M anipulation  |
\*---------------------------------------------------------------------------*/
FoamFile
{
    format      ascii;
    class       volVectorField;
    location    "0.2";
    object      U;
}
// * * * * * * * * * * * * * * * * * * * * * * * * * * * * * * * * * * * * * //

dimensions      [0 1 -1 0 0 0 0];

internalField   nonuniform List<vector> 
4000
(
(0 0.018637393 0.4777316)
(0 0.023509884 0.50886059)
(0 0.0081667525 0.50052522)
(0 0.0056145184 0.50033634)
(0 0.0042545322 0.50025746)
(0 0.0032548546 0.50016898)
(0 0.0025560125 0.50011968)
(0 0.0020545203 0.50009013)
(0 0.001676538 0.5000698)
(0 0.0013822225 0.50005539)
(0 0.0011472007 0.50004499)
(0 0.00095513372 0.50003732)
(0 0.00079476688 0.50003159)
(0 0.00065812423 0.50002726)
(0 0.00053937712 0.50002398)
(0 0.00043414445 0.5000215)
(0 0.00033903853 0.50001966)
(0 0.00025135705 0.50001833)
(0 0.00016886689 0.50001743)
(0 8.9645795e-05 0.50001693)
(0 1.1959926e-05 0.50001678)
(0 -6.5843141e-05 0.50001698)
(0 -0.00014542612 0.50001754)
(0 -0.00022855395 0.50001849)
(0 -0.0003172046 0.5000199)
(0 -0.00041369959 0.50002185)
(0 -0.00052087586 0.50002446)
(0 -0.00064232508 0.50002793)
(0 -0.00078274138 0.50003252)
(0 -0.00094845135 0.50003863)
(0 -0.001148265 0.50004688)
(0 -0.0013948413 0.50005824)
(0 -0.0017069271 0.50007414)
(0 -0.0021148721 0.50009709)
(0 -0.0026745912 0.50013482)
(0 -0.0034681986 0.50020238)
(0 -0.0045604766 0.50027145)
(0 -0.0065846964 0.50043366)
(0 -0.017659136 0.50675401)
(0 -0.013589963 0.47975573)
(0 0.03743251 0.44796948)
(0 0.050955391 0.53232613)
(0 0.021968975 0.5080429)
(0 0.016135328 0.5035732)
(0 0.012415765 0.50242316)
(0 0.0095156567 0.50162298)
(0 0.0075203591 0.50115659)
(0 0.0060696787 0.5008659)
(0 0.0049644172 0.50066797)
(0 0.0041000412 0.50052897)
(0 0.0034075997 0.50042899)
(0 0.002840144 0.50035548)
(0 0.0023652996 0.50030059)
(0 0.0019599816 0.50025919)
(0 0.0016072289 0.50022784)
(0 0.0012942452 0.50020417)
(0 0.0010111046 0.50018657)
(0 0.00074986817 0.50017389)
(0 0.00050396072 0.50016539)
(0 0.00026771162 0.50016055)
(0 3.5999355e-05 0.50015913)
(0 -0.00019605662 0.50016103)
(0 -0.0004333667 0.50016638)
(0 -0.00068114231 0.50017549)
(0 -0.00094521494 0.50018891)
(0 -0.001232415 0.50020747)
(0 -0.0015510678 0.50023241)
(0 -0.0019116808 0.50026554)
(0 -0.002327936 0.50030946)
(0 -0.0028181748 0.50036808)
(0 -0.0034077734 0.50044734)
(0 -0.0041331093 0.50055671)
(0 -0.005047263 0.50071128)
(0 -0.0062301019 0.50093664)
(0 -0.0078305104 0.50129443)
(0 -0.010124286 0.50191059)
(0 -0.013105566 0.50282522)
(0 -0.017425026 0.50608125)
(0 -0.038757878 0.52526808)
(0 -0.027894125 0.45021721)
(0 0.039888014 0.40982113)
(0 0.061427536 0.54930822)
(0 0.03198313 0.52188194)
(0 0.024354962 0.51008058)
(0 0.019193094 0.50658856)
(0 0.014976669 0.50452804)
(0 0.012006302 0.50327134)
(0 0.0097715825 0.50245831)
(0 0.008036269 0.50190097)
(0 0.0066647141 0.50150858)
(0 0.0055566955 0.50122535)
(0 0.0046426775 0.50101658)
(0 0.0038739207 0.50086042)
(0 0.0032150276 0.5007425)
(0 0.0026396623 0.50065311)
(0 0.0021277699 0.50058558)
(0 0.0016636718 0.50053531)
(0 0.0012347462 0.5004991)
(0 0.00083048427 0.50047478)
(0 0.00044178504 0.50046096)
(0 6.04054e-05 0.50045688)
(0 -0.00032151814 0.50046232)
(0 -0.00071189629 0.50047761)
(0 -0.0011191103 0.50050364)
(0 -0.0015525073 0.50054196)
(0 -0.0020229842 0.50059494)
(0 -0.0025437412 0.50066608)
(0 -0.0031313135 0.50076046)
(0 -0.0038070332 0.50088549)
(0 -0.0045991422 0.50105206)
(0 -0.0055459973 0.50127673)
(0 -0.0067015815 0.50158561)
(0 -0.0081430985 0.50202084)
(0 -0.0099746409 0.50265081)
(0 -0.012369023 0.50361521)
(0 -0.015714216 0.50519937)
(0 -0.019870881 0.50785419)
(0 -0.025184566 0.51641235)
(0 -0.047415365 0.53912755)
(0 -0.030852911 0.41488207)
(0 0.03479126 0.3617312)
(0 0.063838054 0.55456365)
(0 0.039379414 0.5374713)
(0 0.030082541 0.51849262)
(0 0.024111777 0.51197728)
(0 0.019278818 0.50849937)
(0 0.015735478 0.50626413)
(0 0.01295359 0.50475528)
(0 0.010743192 0.50370422)
(0 0.0089675912 0.50295589)
(0 0.0075137534 0.50241081)
(0 0.0063020119 0.5020065)
(0 0.0052745597 0.50170268)
(0 0.0043881375 0.50147243)
(0 0.0036099264 0.5012974)
(0 0.0029145403 0.50116491)
(0 0.0022818706 0.5010661)
(0 0.0016955544 0.50099483)
(0 0.0011418484 0.50094691)
(0 0.00060877032 0.50091966)
(0 8.5416844e-05 0.50091159)
(0 -0.00043863551 0.5009223)
(0 -0.00097387079 0.50095242)
(0 -0.0015313618 0.50100366)
(0 -0.0021233906 0.50107901)
(0 -0.0027641659 0.50118305)
(0 -0.0034707294 0.50132249)
(0 -0.0042641615 0.50150701)
(0 -0.0051712448 0.50175062)
(0 -0.0062267615 0.50207379)
(0 -0.0074765827 0.50250699)
(0 -0.0089829434 0.50309722)
(0 -0.010833217 0.5039192)
(0 -0.013133969 0.50508931)
(0 -0.016020857 0.50680703)
(0 -0.019896459 0.50946776)
(0 -0.024728714 0.51427522)
(0 -0.031110499 0.5282471)
(0 -0.050317218 0.54407292)
(0 -0.028437396 0.37238447)
(0 0.027423895 0.31484513)
(0 0.062313733 0.55024144)
(0 0.044613116 0.55146756)
(0 0.0339808 0.52748809)
(0 0.027462873 0.51772237)
(0 0.022454038 0.51291968)
(0 0.018635765 0.5097312)
(0 0.015527241 0.50749233)
(0 0.013005484 0.50589956)
(0 0.010941666 0.50474646)
(0 0.0092244016 0.50389564)
(0 0.0077748356 0.50325862)
(0 0.0065329787 0.50277651)
(0 0.0054524024 0.50240908)
(0 0.0044970546 0.50212854)
(0 0.0036384664 0.50191544)
(0 0.0028536898 0.5017561)
(0 0.0021237817 0.50164092)
(0 0.0014326442 0.50156336)
(0 0.00076611322 0.50151919)
(0 0.00011122019 0.50150608)
(0 -0.00054446946 0.5015234)
(0 -0.001213459 0.50157212)
(0 -0.0019088988 0.50165494)
(0 -0.002645271 0.50177655)
(0 -0.0034391596 0.50194409)
(0 -0.0043101956 0.50216797)
(0 -0.0052822682 0.50246307)
(0 -0.0063851326 0.50285064)
(0 -0.0076565684 0.50336134)
(0 -0.0091448437 0.50403981)
(0 -0.0109124 0.50495257)
(0 -0.013046076 0.50620245)
(0 -0.015649678 0.50794434)
(0 -0.018811059 0.51040461)
(0 -0.022891732 0.51405528)
(0 -0.028173176 0.52114592)
(0 -0.035703039 0.53932668)
(0 -0.050473377 0.54155772)
(0 -0.024085141 0.33056449)
(0 0.019837515 0.27520053)
(0 0.057988592 0.53974809)
(0 0.047361937 0.56256472)
(0 0.03647594 0.5366044)
(0 0.029634546 0.52350699)
(0 0.02467464 0.51740305)
(0 0.020772895 0.51336265)
(0 0.017508618 0.51044406)
(0 0.014813304 0.50832363)
(0 0.012566021 0.50676115)
(0 0.010665239 0.50559205)
(0 0.0090389615 0.50470719)
(0 0.0076295677 0.50403166)
(0 0.0063911924 0.50351322)
(0 0.0052873721 0.50311517)
(0 0.0042886333 0.50281147)
(0 0.0033707431 0.50258358)
(0 0.0025133602 0.50241842)
(0 0.0016989561 0.50230696)
(0 0.00091193894 0.50224339)
(0 0.00013792703 0.50222447)
(0 -0.00063691775 0.5022493)
(0 -0.0014265053 0.50231926)
(0 -0.0022453949 0.50243806)
(0 -0.0031094872 0.50261215)
(0 -0.0040367742 0.50285131)
(0 -0.0050482362 0.5031697)
(0 -0.006168944 0.5035873)
(0 -0.0074294523 0.50413229)
(0 -0.0088676947 0.50484463)
(0 -0.010530942 0.5057813)
(0 -0.012477494 0.5070246)
(0 -0.014787567 0.50869769)
(0 -0.017562956 0.51098222)
(0 -0.020857646 0.51412055)
(0 -0.024967905 0.51873094)
(0 -0.03050304 0.52823047)
(0 -0.038624233 0.54872466)
(0 -0.048504605 0.53398932)
(0 -0.019065738 0.29394855)
(0 0.013082765 0.24255871)
(0 0.051797118 0.52520322)
(0 0.047706966 0.57024865)
(0 0.037754796 0.54552463)
(0 0.030848341 0.52928839)
(0 0.026071602 0.52180129)
(0 0.022236239 0.51699736)
(0 0.018952199 0.51347274)
(0 0.016192291 0.51086407)
(0 0.013848702 0.50891144)
(0 0.011834934 0.50743152)
(0 0.010088396 0.5062993)
(0 0.0085564623 0.50542703)
(0 0.0071963792 0.50475256)
(0 0.0059733422 0.50423153)
(0 0.0048585286 0.503832)
(0 0.0038277457 0.50353102)
(0 0.0028603167 0.50331219)
(0 0.001938149 0.50316418)
(0 0.0010449538 0.50307958)
(0 0.00016558235 0.50305431)
(0 -0.00071459803 0.50308721)
(0 -0.0016102918 0.50318002)
(0 -0.0025368096 0.50333745)
(0 -0.0035107227 0.50356765)
(0 -0.0045505414 0.50388289)
(0 -0.0056775101 0.50430079)
(0 -0.006916549 0.50484596)
(0 -0.0082973695 0.50555267)
(0 -0.0098560484 0.50646871)
(0 -0.011636787 0.50766123)
(0 -0.013691838 0.50922508)
(0 -0.016090712 0.51129823)
(0 -0.018928717 0.51408006)
(0 -0.022237234 0.51783939)
(0 -0.026257043 0.52346884)
(0 -0.031840935 0.53537582)
(0 -0.039751791 0.55589807)
(0 -0.044888944 0.52283163)
(0 -0.014089343 0.26265896)
(0 0.0077696709 0.21554611)
(0 0.04482381 0.50801411)
(0 0.046252361 0.57438138)
(0 0.038032345 0.5537508)
(0 0.031285219 0.53496013)
(0 0.026765869 0.52602978)
(0 0.023114438 0.52053767)
(0 0.019918814 0.51648723)
(0 0.017180437 0.51344041)
(0 0.014812085 0.51112921)
(0 0.012745323 0.5093579)
(0 0.010928095 0.50798921)
(0 0.0093144936 0.50692553)
(0 0.0078665458 0.50609694)
(0 0.0065525025 0.50545285)
(0 0.0053454016 0.50495641)
(0 0.0042221273 0.50458083)
(0 0.0031625433 0.50430687)
(0 0.0021487412 0.50412108)
(0 0.001164391 0.50401467)
(0 0.00019417141 0.50398273)
(0 -0.00077677816 0.50402391)
(0 -0.001763388 0.50414025)
(0 -0.0027811187 0.50433738)
(0 -0.0038465479 0.50462497)
(0 -0.0049779456 0.50501753)
(0 -0.006195937 0.50553566)
(0 -0.007524267 0.50620796)
(0 -0.0089906259 0.50707377)
(0 -0.010627816 0.50818724)
(0 -0.012475425 0.50962362)
(0 -0.014578592 0.51148795)
(0 -0.016993521 0.51392912)
(0 -0.019801888 0.5171559)
(0 -0.023019673 0.52148131)
(0 -0.02686931 0.52818391)
(0 -0.032341231 0.54222098)
(0 -0.039393726 0.56050469)
(0 -0.040322242 0.50909659)
(0 -0.0097066299 0.23587529)
(0 0.004004471 0.19356276)
(0 0.037897182 0.48949309)
(0 0.043683186 0.57524128)
(0 0.037560157 0.56084444)
(0 0.031150866 0.54036056)
(0 0.026911088 0.53001072)
(0 0.023511278 0.52390085)
(0 0.020477807 0.51941134)
(0 0.017824648 0.51598628)
(0 0.01548783 0.51335715)
(0 0.013417022 0.5113221)
(0 0.011570866 0.50973529)
(0 0.0099111954 0.50849207)
(0 0.0084057686 0.50751677)
(0 0.0070267504 0.50675402)
(0 0.0057498631 0.5061631)
(0 0.0045538178 0.50571417)
(0 0.0034196891 0.50538559)
(0 0.0023303555 0.50516216)
(0 0.0012699946 0.50503389)
(0 0.00022362479 0.5049952)
(0 -0.00082334809 0.50504453)
(0 -0.0018855839 0.50518421)
(0 -0.0029781776 0.50542066)
(0 -0.004117159 0.50576482)
(0 -0.0053199493 0.50623308)
(0 -0.0066058761 0.50684852)
(0 -0.0079967568 0.50764297)
(0 -0.0095174551 0.50865976)
(0 -0.011196577 0.50995797)
(0 -0.013067996 0.51161892)
(0 -0.015169238 0.51375528)
(0 -0.017542944 0.51652281)
(0 -0.020253281 0.52013257)
(0 -0.023308129 0.52496472)
(0 -0.026949307 0.53274142)
(0 -0.03219071 0.54839137)
(0 -0.037983119 0.56254819)
(0 -0.035407769 0.49381105)
(0 -0.0061989023 0.21327461)
(0 0.0015505714 0.1761414)
(0 0.031496909 0.47077002)
(0 0.040527623 0.57338791)
(0 0.036554097 0.56659767)
(0 0.030632955 0.54537756)
(0 0.026667629 0.53370365)
(0 0.023539364 0.52703098)
(0 0.020707071 0.52218675)
(0 0.018180089 0.51844922)
(0 0.015914937 0.5155487)
(0 0.013877182 0.51328305)
(0 0.012035383 0.51150162)
(0 0.010359235 0.51009539)
(0 0.0088224719 0.50898485)
(0 0.0074015562 0.50811129)
(0 0.0060753646 0.50743117)
(0 0.0048249144 0.50691233)
(0 0.0036329567 0.50653132)
(0 0.0024836048 0.50627153)
(0 0.0013619709 0.50612203)
(0 0.00025382442 0.50607669)
(0 -0.0008547582 0.50613377)
(0 -0.001977761 0.50629586)
(0 -0.0031294992 0.50656998)
(0 -0.0043250238 0.50696814)
(0 -0.0055804545 0.50750816)
(0 -0.0069133474 0.50821507)
(0 -0.0083431008 0.50912311)
(0 -0.0098912936 0.51027857)
(0 -0.011581943 0.51174401)
(0 -0.013442783 0.51360479)
(0 -0.015503888 0.51597836)
(0 -0.017795891 0.5190233)
(0 -0.020365756 0.52295063)
(0 -0.023220731 0.52823712)
(0 -0.026640978 0.5370418)
(0 -0.031550639 0.55365979)
(0 -0.035890926 0.56231544)
(0 -0.030545061 0.47791632)
(0 -0.0035891468 0.19463719)
(0 7.6145189e-05 0.16253459)
(0 0.025867259 0.45261158)
(0 0.037153896 0.56943688)
(0 0.035185098 0.57098799)
(0 0.029871644 0.54996163)
(0 0.026168499 0.53711259)
(0 0.02330105 0.52991068)
(0 0.020683097 0.52478202)
(0 0.018304132 0.52079552)
(0 0.016135762 0.51767095)
(0 0.014156684 0.51520978)
(0 0.012344035 0.51325981)
(0 0.010674728 0.51170982)
(0 0.0091281389 0.51047812)
(0 0.0076850037 0.50950393)
(0 0.0063275055 0.50874188)
(0 0.0050391969 0.50815822)
(0 0.0038047799 0.5077282)
(0 0.0026098974 0.50743422)
(0 0.0014408996 0.50726462)
(0 0.00028461137 0.50721286)
(0 -0.00087191472 0.50727709)
(0 -0.0020416801 0.50746005)
(0 -0.0032379143 0.50776927)
(0 -0.0044743835 0.50821749)
(0 -0.0057656086 0.50882363)
(0 -0.0071270967 0.50961408)
(0 -0.008575587 0.51062472)
(0 -0.010129233 0.5119038)
(0 -0.011807531 0.51351605)
(0 -0.013632284 0.51554911)
(0 -0.015626719 0.51812275)
(0 -0.017811476 0.52139516)
(0 -0.02021896 0.52558079)
(0 -0.02286274 0.53128431)
(0 -0.026060409 0.5410325)
(0 -0.030551592 0.55793544)
(0 -0.033410423 0.56020174)
(0 -0.025985884 0.46210144)
(0 -0.0017630659 0.17950328)
(0 -0.00071860397 0.15191896)
(0 0.021104396 0.43544965)
(0 0.033812342 0.56393718)
(0 0.033596194 0.57408827)
(0 0.028967583 0.55409209)
(0 0.025513235 0.54026177)
(0 0.022879951 0.53255044)
(0 0.020472822 0.52718916)
(0 0.018249771 0.52300911)
(0 0.016191377 0.51970432)
(0 0.014286901 0.51708149)
(0 0.012520574 0.5149892)
(0 0.010875487 0.51331556)
(0 0.0093359971 0.51197795)
(0 0.0078868071 0.51091457)
(0 0.006513306 0.51007906)
(0 0.0052016058 0.50943671)
(0 0.0039384663 0.50896196)
(0 0.0027112173 0.50863655)
(0 0.001507633 0.50844834)
(0 0.00031579486 0.50839051)
(0 -0.0008760607 0.50846111)
(0 -0.0020797435 0.50866303)
(0 -0.0033071959 0.50900408)
(0 -0.0045707133 0.50949755)
(0 -0.0058830604 0.51016304)
(0 -0.0072575902 0.51102782)
(0 -0.0087083544 0.51212875)
(0 -0.010250181 0.51351514)
(0 -0.011898402 0.51525284)
(0 -0.013669478 0.51743049)
(0 -0.015580579 0.52016824)
(0 -0.017644183 0.52362202)
(0 -0.019881785 0.52801752)
(0 -0.022319519 0.53411242)
(0 -0.025298509 0.54468256)
(0 -0.029308715 0.56120904)
(0 -0.030773138 0.55660243)
(0 -0.021883781 0.44680474)
(0 -0.00056232901 0.16728574)
(0 -0.0010707649 0.14359721)
(0 0.01719917 0.41949843)
(0 0.030658548 0.55734819)
(0 0.031905286 0.57601976)
(0 0.027994824 0.5577613)
(0 0.024775351 0.54317702)
(0 0.022342499 0.53497295)
(0 0.020131867 0.52941406)
(0 0.018062761 0.52508597)
(0 0.016118791 0.52163937)
(0 0.014297324 0.51888566)
(0 0.012588194 0.51667573)
(0 0.010979528 0.514898)
(0 0.0094598752 0.51346979)
(0 0.0080174416 0.51232906)
(0 0.0066405566 0.51142906)
(0 0.0053177672 0.51073469)
(0 0.0040378686 0.51021996)
(0 0.0027899195 0.50986625)
(0 0.0015632019 0.50966114)
(0 0.0003471614 0.50959764)
(0 -0.000868663 0.50967375)
(0 -0.0020947704 0.50989242)
(0 -0.0033417095 0.51026167)
(0 -0.0046202223 0.51079506)
(0 -0.0059412767 0.51151258)
(0 -0.0073160999 0.51244193)
(0 -0.0087561806 0.51362041)
(0 -0.010273278 0.51509772)
(0 -0.011879049 0.51694004)
(0 -0.013585385 0.5192361)
(0 -0.015404302 0.52210508)
(0 -0.017341801 0.52569995)
(0 -0.019412508 0.53026778)
(0 -0.021659984 0.53673312)
(0 -0.024428476 0.54797186)
(0 -0.027923685 0.56352456)
(0 -0.028149617 0.55187936)
(0 -0.018312894 0.43229097)
(0 0.00017148237 0.15743859)
(0 -0.0011538973 0.13701797)
(0 0.014074088 0.40483836)
(0 0.027772552 0.55004432)
(0 0.030200401 0.57692998)
(0 0.027005751 0.56097574)
(0 0.024007808 0.54588231)
(0 0.021740547 0.53720516)
(0 0.0197054 0.53146984)
(0 0.017781416 0.52702934)
(0 0.015950089 0.52347351)
(0 0.014214406 0.52061589)
(0 0.012568377 0.51831054)
(0 0.011004047 0.51644687)
(0 0.009513349 0.51494264)
(0 0.0080874576 0.5137361)
(0 0.0067172846 0.5127806)
(0 0.0053935949 0.512041)
(0 0.0041071035 0.51149121)
(0 0.0028485528 0.51111248)
(0 0.0016087333 0.51089228)
(0 0.00037848413 0.51082354)
(0 -0.00085131134 0.51090425)
(0 -0.0020897993 0.51113736)
(0 -0.0033461079 0.51153098)
(0 -0.0046294273 0.51209879)
(0 -0.0059489779 0.51286088)
(0 -0.0073139826 0.51384505)
(0 -0.0087335915 0.51508863)
(0 -0.010216844 0.51664122)
(0 -0.01177228 0.51856874)
(0 -0.01340805 0.52095939)
(0 -0.01513201 0.5239305)
(0 -0.016945337 0.52763259)
(0 -0.018859678 0.53234524)
(0 -0.020938659 0.53916051)
(0 -0.023507479 0.55089397)
(0 -0.02647895 0.56496467)
(0 -0.025651085 0.54635047)
(0 -0.015284843 0.41870822)
(0 0.00057648615 0.14949909)
(0 -0.0010863311 0.13174152)
(0 0.011618496 0.3914608)
(0 0.02518218 0.54231936)
(0 0.028540333 0.57697326)
(0 0.026033738 0.5637551)
(0 0.023245936 0.54840048)
(0 0.021112587 0.53927554)
(0 0.019228844 0.53337387)
(0 0.017436941 0.52884715)
(0 0.015712307 0.52520883)
(0 0.014061128 0.52227021)
(0 0.012480309 0.51988884)
(0 0.010964807 0.51795545)
(0 0.0095091692 0.51638858)
(0 0.0081069821 0.51512706)
(0 0.006751345 0.51412463)
(0 0.0054349711 0.51334639)
(0 0.0041503209 0.51276637)
(0 0.0028897122 0.51236588)
(0 0.0016453826 0.51213241)
(0 0.00040953229 0.51205888)
(0 -0.00082563115 0.51214325)
(0 -0.0020679207 0.5123885)
(0 -0.0033250797 0.51280271)
(0 -0.0046048122 0.51339951)
(0 -0.0059147043 0.51419892)
(0 -0.0072621585 0.5152286)
(0 -0.0086542684 0.51652557)
(0 -0.010097757 0.51813903)
(0 -0.011598618 0.52013429)
(0 -0.013162079 0.52259858)
(0 -0.014792823 0.52564687)
(0 -0.016488799 0.52942908)
(0 -0.018261976 0.53426803)
(0 -0.020196139 0.54141118)
(0 -0.022577042 0.55345655)
(0 -0.02503555 0.56563397)
(0 -0.0233402 0.54028173)
(0 -0.012769991 0.40611841)
(0 0.00076178418 0.14307302)
(0 -0.00094450735 0.12742229)
(0 0.0097136206 0.37929979)
(0 0.022883962 0.5343938)
(0 0.026960254 0.57629477)
(0 0.025097498 0.56612663)
(0 0.02251094 0.55075221)
(0 0.020485259 0.54121174)
(0 0.018728624 0.53514576)
(0 0.017053802 0.53055041)
(0 0.015427486 0.52685063)
(0 0.013856835 0.5238499)
(0 0.012340597 0.5214089)
(0 0.010875798 0.51941988)
(0 0.0094589028 0.51780225)
(0 0.0080853831 0.51649556)
(0 0.006750128 0.51545411)
(0 0.0054475098 0.5146434)
(0 0.0041715263 0.51403774)
(0 0.0029159231 0.51361861)
(0 0.0016742801 0.51337361)
(0 0.00044007962 0.5132957)
(0 -0.00079321251 0.51338287)
(0 -0.0020321429 0.51363803)
(0 -0.003283152 0.51406918)
(0 -0.0045525687 0.51468984)
(0 -0.0058465004 0.51551979)
(0 -0.0071707485 0.51658636)
(0 -0.0085306588 0.51792612)
(0 -0.0099310515 0.51958762)
(0 -0.011375926 0.52163538)
(0 -0.012868328 0.52415546)
(0 -0.014410663 0.52726039)
(0 -0.015999114 0.53110231)
(0 -0.01764849 0.53605652)
(0 -0.019460563 0.54350267)
(0 -0.021665176 0.55567705)
(0 -0.02363547 0.56564264)
(0 -0.021245001 0.5338848)
(0 -0.010715816 0.39452119)
(0 0.00080769032 0.13782709)
(0 -0.00077591655 0.12379926)
(0 0.0082468066 0.36825848)
(0 0.020857617 0.52642724)
(0 0.025478041 0.57502241)
(0 0.024205799 0.56811995)
(0 0.021813938 0.55295445)
(0 0.019875685 0.5430384)
(0 0.018223484 0.53680525)
(0 0.016650431 0.53215159)
(0 0.015112977 0.52840619)
(0 0.013617304 0.5253584)
(0 0.012163198 0.52287127)
(0 0.010749077 0.52083852)
(0 0.0093727355 0.51918039)
(0 0.008031063 0.51783716)
(0 0.0067203673 0.51676377)
(0 0.0054363929 0.51592619)
(0 0.0041744551 0.51529909)
(0 0.0029295583 0.51486422)
(0 0.001696492 0.51460932)
(0 0.00046991223 0.51452743)
(0 -0.00075555597 0.51461655)
(0 -0.0019852921 0.51487955)
(0 -0.0032245471 0.5153243)
(0 -0.0044784135 0.5159641)
(0 -0.0057516996 0.51681843)
(0 -0.0070488388 0.51791417)
(0 -0.0083737367 0.51928736)
(0 -0.0097297067 0.52098581)
(0 -0.011119252 0.52307321)
(0 -0.012543863 0.52563434)
(0 -0.014004433 0.52877964)
(0 -0.015496676 0.53266694)
(0 -0.01703995 0.53773097)
(0 -0.018750128 0.5454514)
(0 -0.020789402 0.55757796)
(0 -0.022305244 0.56509569)
(0 -0.01937057 0.52732179)
(0 -0.0090595451 0.38387616)
(0 0.00077071043 0.13348898)
(0 -0.00060854601 0.12068219)
(0 0.0071188629 0.35822808)
(0 0.019075112 0.51853193)
(0 0.024099543 0.57326529)
(0 0.023361074 0.56976445)
(0 0.021159356 0.55502011)
(0 0.019293924 0.54477595)
(0 0.0177261 0.53837065)
(0 0.016240233 0.53366326)
(0 0.014782014 0.52988357)
(0 0.01335504 0.52680044)
(0 0.011959524 0.524278)
(0 0.010594761 0.52221131)
(0 0.0092594014 0.52052132)
(0 0.0079513599 0.51914898)
(0 0.0066680334 0.51804983)
(0 0.0054062719 0.51719033)
(0 0.0041624927 0.51654557)
(0 0.0029327829 0.51609755)
(0 0.001712996 0.51583421)
(0 0.00049883499 0.51574871)
(0 -0.00071403451 0.51583904)
(0 -0.0019299445 0.51610801)
(0 -0.0031530874 0.51656333)
(0 -0.004387473 0.51721805)
(0 -0.0056367971 0.51809131)
(0 -0.0069043557 0.51920952)
(0 -0.0081929025 0.5206081)
(0 -0.0095046 0.52233418)
(0 -0.010840881 0.52445062)
(0 -0.012202198 0.52704101)
(0 -0.013588552 0.53021429)
(0 -0.0149963 0.53413781)
(0 -0.016450324 0.53930981)
(0 -0.018075573 0.54727173)
(0 -0.019959399 0.55918375)
(0 -0.021059305 0.56408802)
(0 -0.017707638 0.52071353)
(0 -0.0077364596 0.37412058)
(0 0.00068925811 0.12984341)
(0 -0.00045731752 0.1179359)
(0 0.0062472055 0.34909922)
(0 0.017506297 0.5107845)
(0 0.022822846 0.57111482)
(0 0.022561931 0.57108817)
(0 0.02054733 0.55695859)
(0 0.018744982 0.54644048)
(0 0.017244556 0.53985808)
(0 0.015832619 0.53509729)
(0 0.01444441 0.53129093)
(0 0.013079701 0.5281813)
(0 0.011738686 0.52563203)
(0 0.010421141 0.52353929)
(0 0.009126217 0.52182457)
(0 0.0078525325 0.52042935)
(0 0.0065982949 0.51930971)
(0 0.0053612223 0.51843259)
(0 0.0041386328 0.51777344)
(0 0.0029275253 0.51731457)
(0 0.001724668 0.51704411)
(0 0.00052667663 0.51695531)
(0 -0.00066987001 0.51704619)
(0 -0.0018683854 0.51731947)
(0 -0.0030721427 0.51778271)
(0 -0.0042842248 0.51844869)
(0 -0.0055073976 0.51933619)
(0 -0.0067440356 0.52047114)
(0 -0.0079959993 0.52188841)
(0 -0.0092646064 0.52363447)
(0 -0.010550572 0.52577147)
(0 -0.011853717 0.52838195)
(0 -0.013173638 0.5315742)
(0 -0.01450824 0.53552895)
(0 -0.015888282 0.54080904)
(0 -0.017442174 0.54897574)
(0 -0.019179134 0.56051918)
(0 -0.019903073 0.56270251)
(0 -0.016238909 0.51414774)
(0 -0.0066853452 0.36518113)
(0 0.00058851382 0.12672394)
(0 -0.00032869731 0.11546617)
(0 0.0055660955 0.34076812)
(0 0.016122214 0.50323518)
(0 0.021641646 0.56864687)
(0 0.021804952 0.57211723)
(0 0.019975418 0.55877649)
(0 0.018230387 0.54804416)
(0 0.016783552 0.54128125)
(0 0.015433908 0.53646442)
(0 0.014107215 0.532636)
(0 0.012798569 0.52950635)
(0 0.011507796 0.52693677)
(0 0.010234871 0.52482418)
(0 0.0089791836 0.52309048)
(0 0.007739808 0.52167753)
(0 0.0065155322 0.52054181)
(0 0.0053047389 0.5196507)
(0 0.0041054668 0.51897999)
(0 0.0029154663 0.51851225)
(0 0.0017322768 0.5182358)
(0 0.0005532932 0.51814399)
(0 -0.00062412153 0.51823484)
(0 -0.0018025926 0.51851102)
(0 -0.0029846116 0.5189799)
(0 -0.0041724857 0.51965402)
(0 -0.0053682215 0.52055181)
(0 -0.0065734663 0.52169876)
(0 -0.0077894103 0.52312923)
(0 -0.0090167807 0.52488915)
(0 -0.010255855 0.52704009)
(0 -0.01150613 0.52966376)
(0 -0.012767177 0.53286882)
(0 -0.014039129 0.53685303)
(0 -0.015358458 0.54224196)
(0 -0.016851341 0.55057332)
(0 -0.018448659 0.56160806)
(0 -0.018835791 0.56100984)
(0 -0.01494352 0.50768609)
(0 -0.0058516007 0.35698134)
(0 0.00048422497 0.12400396)
(0 -0.00022401778 0.11320861)
(0 0.0050250479 0.33313996)
(0 0.014896748 0.49591503)
(0 0.020547661 0.56592401)
(0 0.021085949 0.5728756)
(0 0.019439839 0.56047828)
(0 0.017749409 0.54959575)
(0 0.016345375 0.5426515)
(0 0.015048084 0.53777412)
(0 0.013775316 0.53392585)
(0 0.012516983 0.53078076)
(0 0.011272281 0.52819575)
(0 0.010041179 0.52606813)
(0 0.0088231264 0.52432)
(0 0.0076174674 0.52289346)
(0 0.0064233863 0.5217453)
(0 0.0052397611 0.52084322)
(0 0.0040651944 0.52016331)
(0 0.0028980445 0.51968838)
(0 0.0017364877 0.51940691)
(0 0.0005785698 0.51931234)
(0 -0.00057768383 0.5194027)
(0 -0.0017342358 0.51968058)
(0 -0.0028929297 0.5201532)
(0 -0.0040554347 0.52083287)
(0 -0.0052231523 0.52173769)
(0 -0.006397172 0.52289278)
(0 -0.0075782003 0.52433208)
(0 -0.0087665776 0.5261011)
(0 -0.0099623544 0.52826096)
(0 -0.011164937 0.5308928)
(0 -0.012374144 0.53410687)
(0 -0.013592802 0.53812113)
(0 -0.014862546 0.54361926)
(0 -0.016301918 0.55207237)
(0 -0.01776558 0.56247251)
(0 -0.017852896 0.55906919)
(0 -0.013799939 0.50137034)
(0 -0.0051885557 0.34944633)
(0 0.00038560085 0.12158872)
(0 -0.00014175026 0.11111989)
(0 0.0045864034 0.32613026)
(0 0.013807197 0.48884153)
(0 0.019532187 0.56299791)
(0 0.020400748 0.57338516)
(0 0.01893632 0.56206682)
(0 0.017300002 0.55110115)
(0 0.015930673 0.54397794)
(0 0.014677425 0.53903452)
(0 0.013451934 0.53516682)
(0 0.012238737 0.53200935)
(0 0.01103618 0.52941247)
(0 0.0098440861 0.52727345)
(0 0.0086618498 0.52551443)
(0 0.0074889506 0.52407759)
(0 0.0063248277 0.52291992)
(0 0.0051687163 0.52200934)
(0 0.0040196503 0.52132219)
(0 0.0028764695 0.52084147)
(0 0.0017378665 0.52055579)
(0 0.0006024238 0.52045868)
(0 -0.00053129067 0.52054817)
(0 -0.0016646934 0.52082677)
(0 -0.0027990953 0.52130158)
(0 -0.003935657 0.52198469)
(0 -0.0050753088 0.52289393)
(0 -0.0062187248 0.52405412)
(0 -0.0073662798 0.52549885)
(0 -0.0085180844 0.52727334)
(0 -0.0096741156 0.52943843)
(0 -0.010833852 0.53207501)
(0 -0.011997563 0.53529615)
(0 -0.013171035 0.53934259)
(0 -0.01440022 0.54494918)
(0 -0.015791188 0.55347896)
(0 -0.01712616 0.56313262)
(0 -0.016947757 0.55692968)
(0 -0.012787692 0.49522745)
(0 -0.0046576626 0.34250562)
(0 0.00029747363 0.11940853)
(0 -7.8984674e-05 0.10917102)
(0 0.0042227418 0.31966506)
(0 0.012834259 0.48202275)
(0 0.018586968 0.55991145)
(0 0.019745591 0.5736659)
(0 0.018460632 0.56354398)
(0 0.016879456 0.55256403)
(0 0.015539044 0.5452677)
(0 0.014323006 0.54025248)
(0 0.013139057 0.53636443)
(0 0.011966424 0.53319645)
(0 0.010802419 0.53059023)
(0 0.0096466148 0.52844249)
(0 0.0084982921 0.52667528)
(0 0.0073569701 0.52523071)
(0 0.0062222363 0.52406584)
(0 0.0050935742 0.52314875)
(0 0.0039703394 0.52245594)
(0 0.0028517449 0.52197058)
(0 0.001736893 0.52168138)
(0 0.00062479945 0.52158192)
(0 -0.00048553002 0.52167024)
(0 -0.0015950708 0.52194879)
(0 -0.0027047078 0.52242454)
(0 -0.0038152034 0.52310942)
(0 -0.0049271312 0.52402104)
(0 -0.0060408677 0.52518395)
(0 -0.0071565751 0.52663155)
(0 -0.0082742517 0.52840887)
(0 -0.0093939051 0.53057661)
(0 -0.010515201 0.53321573)
(0 -0.011639003 0.53644343)
(0 -0.012774149 0.54052513)
(0 -0.013969859 0.5462378)
(0 -0.015315611 0.55479768)
(0 -0.016526088 0.5636064)
(0 -0.016112892 0.55463184)
(0 -0.011888257 0.48927362)
(0 -0.004227982 0.33609476)
(0 0.00022182826 0.11741284)
(0 -3.2353529e-05 0.10734244)
(0 0.0039144905 0.3136804)
(0 0.011961719 0.4754604)
(0 0.017704617 0.55670041)
(0 0.0191173 0.57373628)
(0 0.018008882 0.56491104)
(0 0.016484826 0.55398631)
(0 0.015169451 0.5465262)
(0 0.013985085 0.54143373)
(0 0.012837782 0.53752346)
(0 0.011701729 0.53434592)
(0 0.010573041 0.53173209)
(0 0.0094509786 0.52957755)
(0 0.0083346731 0.52780415)
(0 0.0072236223 0.5263538)
(0 0.0061174842 0.52518353)
(0 0.0050159062 0.52426151)
(0 0.0039184764 0.52356432)
(0 0.0028246905 0.52307525)
(0 0.0017339693 0.52278308)
(0 0.00064566973 0.52268145)
(0 -0.00044085478 0.52276837)
(0 -0.0015262312 0.52304627)
(0 -0.0026110122 0.52352201)
(0 -0.0036956559 0.52420736)
(0 -0.004780474 0.52511979)
(0 -0.0058656398 0.52628367)
(0 -0.0069511945 0.52773226)
(0 -0.0080371083 0.52951054)
(0 -0.0091234859 0.53167922)
(0 -0.010210253 0.53431965)
(0 -0.011298975 0.53755446)
(0 -0.012401485 0.54167489)
(0 -0.013569085 0.54748938)
(0 -0.014871332 0.55603193)
(0 -0.015960988 0.56390999)
(0 -0.015340762 0.55220912)
(0 -0.011085413 0.48351731)
(0 -0.0038752731 0.33015593)
(0 0.00015887022 0.11556542)
(0 1.4265342e-06 0.10562059)
(0 0.0036478833 0.30812128)
(0 0.011176036 0.46915194)
(0 0.016878754 0.55339488)
(0 0.018513296 0.57361341)
(0 0.017577651 0.56616911)
(0 0.016113205 0.55536867)
(0 0.014820511 0.54775747)
(0 0.013663383 0.54258297)
(0 0.012548571 0.53864797)
(0 0.011445655 0.53546114)
(0 0.010349416 0.53284079)
(0 0.0092587478 0.53068081)
(0 0.0081726279 0.52890266)
(0 0.0070904924 0.52744799)
(0 0.0060120151 0.52627371)
(0 0.0049369431 0.52534796)
(0 0.0038650261 0.5246474)
(0 0.0027959676 0.52415535)
(0 0.0017294302 0.52386067)
(0 0.00066503385 0.52375702)
(0 -0.00039759876 0.5238424)
(0 -0.0014588256 0.52411919)
(0 -0.002518947 0.52459419)
(0 -0.003578195 0.52527906)
(0 -0.004636697 0.52619114)
(0 -0.0056944969 0.52735472)
(0 -0.0067515824 0.528803)
(0 -0.007807954 0.530581)
(0 -0.0088638508 0.53274956)
(0 -0.0099195059 0.53539083)
(0 -0.010977259 0.53863407)
(0 -0.012051762 0.54279668)
(0 -0.013195153 0.54870673)
(0 -0.014454518 0.5571843)
(0 -0.015426736 0.56405785)
(0 -0.014624272 0.54968916)
(0 -0.010365256 0.47796161)
(0 -0.0035809232 0.32463798)
(0 0.00010776919 0.11384047)
(0 2.5276511e-05 0.10399558)
(0 0.0034133213 0.30294059)
(0 0.010465901 0.46309205)
(0 0.016103961 0.55002031)
(0 0.01793154 0.57331328)
(0 0.017164034 0.56731935)
(0 0.015761866 0.55671096)
(0 0.014490682 0.5489644)
(0 0.013357285 0.54370405)
(0 0.012271456 0.53974144)
(0 0.011198715 0.53654505)
(0 0.010132395 0.53391883)
(0 0.0090709897 0.53175428)
(0 0.0080133235 0.5299724)
(0 0.0069587486 0.52851447)
(0 0.0059069181 0.52733719)
(0 0.0048576307 0.52640865)
(0 0.0038107418 0.52570548)
(0 0.0027661031 0.52521104)
(0 0.0017235545 0.52491423)
(0 0.0006829137 0.52480868)
(0 -0.00035599384 0.52489243)
(0 -0.0013933241 0.5251678)
(0 -0.0024291911 0.52564154)
(0 -0.0034636653 0.52632523)
(0 -0.0044967516 0.52723616)
(0 -0.0055284208 0.52839857)
(0 -0.0065586556 0.52984567)
(0 -0.0075875243 0.53162264)
(0 -0.0086154183 0.53379056)
(0 -0.0096429027 0.53643276)
(0 -0.010673144 0.53968622)
(0 -0.011723351 0.54389417)
(0 -0.012845212 0.54989151)
(0 -0.01406156 0.55825677)
(0 -0.014919625 0.56406304)
(0 -0.013957015 0.54709495)
(0 -0.0097160318 0.47260589)
(0 -0.0033308805 0.31949608)
(0 6.716554e-05 0.11221963)
(0 4.1647063e-05 0.10245975)
(0 0.0032041181 0.29809802)
(0 0.0098218339 0.45727367)
(0 0.015375667 0.54659832)
(0 0.017370432 0.57285092)
(0 0.016765619 0.56836313)
(0 0.015428337 0.55801246)
(0 0.014178384 0.55014898)
(0 0.013065983 0.5448001)
(0 0.012006176 0.54080682)
(0 0.010961065 0.53760021)