/*--------------------------------*- C++ -*----------------------------------*\
  =========                 |
  \\      /  F ield         | OpenFOAM: The Open Source CFD Toolbox
   \\    /   O peration     | Website:  https://openfoam.org
    \\  /    A nd           | Version:  10
     \\/     M anipulation  |
\*---------------------------------------------------------------------------*/
FoamFile
{
    format      ascii;
    class       volVectorField;
    location    "0.2";
    object      U_0;
}
// * * * * * * * * * * * * * * * * * * * * * * * * * * * * * * * * * * * * * //

dimensions      [0 1 -1 0 0 0 0];

internalField   nonuniform List<vector> 
4000
(
(0 0.018637389 0.4777316)
(0 0.023509877 0.50886059)
(0 0.0081667456 0.50052522)
(0 0.0056145116 0.50033634)
(0 0.0042545251 0.50025746)
(0 0.0032548474 0.50016898)
(0 0.0025560057 0.50011968)
(0 0.002054514 0.50009013)
(0 0.0016765325 0.5000698)
(0 0.0013822179 0.50005539)
(0 0.0011471972 0.50004499)
(0 0.00095513143 0.50003732)
(0 0.00079476597 0.50003159)
(0 0.00065812478 0.50002726)
(0 0.00053937925 0.50002398)
(0 0.00043414824 0.5000215)
(0 0.00033904406 0.50001966)
(0 0.00025136436 0.50001833)
(0 0.00016887601 0.50001743)
(0 8.9656709e-05 0.50001693)
(0 1.1972623e-05 0.50001678)
(0 -6.5828692e-05 0.50001698)
(0 -0.00014541 0.50001754)
(0 -0.00022853621 0.50001849)
(0 -0.0003171853 0.5000199)
(0 -0.00041367891 0.50002185)
(0 -0.00052085393 0.50002446)
(0 -0.00064230205 0.50002793)
(0 -0.00078271747 0.50003252)
(0 -0.00094842674 0.50003863)
(0 -0.00114824 0.50004688)
(0 -0.001394816 0.50005824)
(0 -0.001706902 0.50007414)
(0 -0.0021148474 0.50009709)
(0 -0.0026745673 0.50013482)
(0 -0.0034681761 0.50020238)
(0 -0.0045604564 0.50027145)
(0 -0.0065846775 0.50043366)
(0 -0.017659117 0.50675401)
(0 -0.013589954 0.47975573)
(0 0.037432498 0.44796949)
(0 0.050955368 0.53232613)
(0 0.021968952 0.5080429)
(0 0.016135306 0.5035732)
(0 0.012415742 0.50242316)
(0 0.0095156339 0.50162298)
(0 0.0075203373 0.50115659)
(0 0.0060696585 0.50086589)
(0 0.0049643993 0.50066797)
(0 0.0041000262 0.50052896)
(0 0.003407588 0.50042899)
(0 0.0028401361 0.50035548)
(0 0.0023652959 0.50030059)
(0 0.0019599825 0.50025918)
(0 0.0016072347 0.50022783)
(0 0.0012942561 0.50020417)
(0 0.0010111208 0.50018657)
(0 0.0007498899 0.50017389)
(0 0.000503988 0.50016538)
(0 0.00026774449 0.50016055)
(0 3.6037751e-05 0.50015912)
(0 -0.00019601277 0.50016103)
(0 -0.00043331757 0.50016638)
(0 -0.00068108814 0.50017549)
(0 -0.00094515603 0.50018891)
(0 -0.0012323518 0.50020747)
(0 -0.0015510006 0.50023241)
(0 -0.0019116101 0.50026553)
(0 -0.0023278625 0.50030946)
(0 -0.0028180991 0.50036808)
(0 -0.0034076962 0.50044734)
(0 -0.0041330314 0.50055671)
(0 -0.0050471854 0.50071128)
(0 -0.0062300256 0.50093664)
(0 -0.0078304364 0.50129443)
(0 -0.010124216 0.5019106)
(0 -0.013105503 0.50282522)
(0 -0.017424966 0.50608126)
(0 -0.038757821 0.52526807)
(0 -0.027894098 0.45021724)
(0 0.039887997 0.40982117)
(0 0.061427496 0.54930822)
(0 0.031983087 0.52188194)
(0 0.024354923 0.51008058)
(0 0.019193053 0.50658856)
(0 0.014976628 0.50452804)
(0 0.012006263 0.50327133)
(0 0.0097715466 0.5024583)
(0 0.0080362371 0.50190096)
(0 0.0066646871 0.50150857)
(0 0.0055566742 0.50122534)
(0 0.0046426628 0.50101658)
(0 0.0038739132 0.50086041)
(0 0.003215028 0.50074249)
(0 0.0026396711 0.5006531)
(0 0.0021277876 0.50058557)
(0 0.0016636987 0.5005353)
(0 0.0012347826 0.50049909)
(0 0.00083053023 0.50047477)
(0 0.00044184065 0.50046095)
(0 6.0470578e-05 0.50045686)
(0 -0.00032144357 0.50046231)
(0 -0.00071181261 0.5004776)
(0 -0.0011190179 0.50050363)
(0 -0.0015524067 0.50054195)
(0 -0.002022876 0.50059493)
(0 -0.0025436262 0.50066607)
(0 -0.0031311925 0.50076046)
(0 -0.0038069071 0.50088548)
(0 -0.0045990122 0.50105206)
(0 -0.0055458647 0.50127672)
(0 -0.0067014476 0.50158561)
(0 -0.0081429648 0.50202084)
(0 -0.0099745091 0.50265081)
(0 -0.012368895 0.50361521)
(0 -0.015714094 0.50519938)
(0 -0.019870771 0.5078542)
(0 -0.025184455 0.51641236)
(0 -0.047415267 0.53912756)
(0 -0.030852868 0.41488216)
(0 0.034791239 0.36173128)
(0 0.063837996 0.55456368)
(0 0.039379346 0.5374713)
(0 0.030082481 0.51849262)
(0 0.024111715 0.51197728)
(0 0.019278757 0.50849937)
(0 0.015735419 0.50626412)
(0 0.012953536 0.50475527)
(0 0.010743144 0.50370421)
(0 0.0089675501 0.50295587)
(0 0.0075137207 0.50241079)
(0 0.0063019887 0.50200648)
(0 0.005274547 0.50170266)
(0 0.0043881363 0.50147241)
(0 0.0036099374 0.50129738)
(0 0.0029145643 0.50116489)
(0 0.002281908 0.50106608)
(0 0.0016956054 0.50099481)
(0 0.0011419134 0.50094689)
(0 0.00060884941 0.50091964)
(0 8.5509883e-05 0.50091157)
(0 -0.0004385288 0.50092228)
(0 -0.00097375078 0.5009524)
(0 -0.0015312291 0.50100364)
(0 -0.0021232459 0.50107899)
(0 -0.00276401 0.50118303)
(0 -0.0034705634 0.50132247)
(0 -0.0042639867 0.501507)
(0 -0.0051710625 0.50175061)
(0 -0.0062265734 0.50207378)
(0 -0.0074763905 0.50250698)
(0 -0.008982749 0.50309722)
(0 -0.010833022 0.50391921)
(0 -0.013133777 0.50508932)
(0 -0.01602067 0.50680704)
(0 -0.01989628 0.50946778)
(0 -0.024728549 0.51427525)
(0 -0.031110328 0.52824711)
(0 -0.050317075 0.54407297)
(0 -0.02843734 0.37238466)
(0 0.027423871 0.31484525)
(0 0.062313658 0.55024149)
(0 0.044613018 0.55146756)
(0 0.033980714 0.52748809)
(0 0.027462786 0.51772237)
(0 0.022453953 0.51291967)
(0 0.018635684 0.50973119)
(0 0.015527165 0.50749231)
(0 0.013005417 0.50589954)
(0 0.010941608 0.50474644)
(0 0.009224355 0.50389561)
(0 0.0077748019 0.5032586)
(0 0.0065329591 0.50277648)
(0 0.0054523982 0.50240905)
(0 0.0044970669 0.50212851)
(0 0.0036384959 0.50191541)
(0 0.0028537372 0.50175606)
(0 0.0021238476 0.50164088)
(0 0.0014327288 0.50156332)
(0 0.00076621662 0.50151915)
(0 0.00011134231 0.50150604)
(0 -0.00054432894 0.50152336)
(0 -0.0012133006 0.50157208)
(0 -0.0019087232 0.50165491)
(0 -0.0026450793 0.50177652)
(0 -0.0034389528 0.50194406)
(0 -0.0043099752 0.50216794)
(0 -0.0052820357 0.50246304)
(0 -0.0063848898 0.50285063)
(0 -0.0076563174 0.50336133)
(0 -0.0091445869 0.5040398)
(0 -0.010912139 0.50495257)
(0 -0.013045815 0.50620246)
(0 -0.015649419 0.50794435)
(0 -0.018810806 0.51040463)
(0 -0.022891489 0.51405531)
(0 -0.028172946 0.52114595)
(0 -0.035702798 0.53932669)
(0 -0.050473188 0.54155784)
(0 -0.024085076 0.3305648)
(0 0.01983749 0.2752007)
(0 0.0579885 0.53974819)
(0 0.047361807 0.56256472)
(0 0.036475821 0.5366044)
(0 0.029634431 0.52350699)
(0 0.024674528 0.51740305)
(0 0.020772788 0.51336263)
(0 0.017508518 0.51044404)
(0 0.014813214 0.50832361)
(0 0.012565943 0.50676112)
(0 0.010665176 0.50559201)
(0 0.0090389147 0.50470715)
(0 0.007629539 0.50403161)
(0 0.0063911834 0.50351317)
(0 0.0052873841 0.50311512)
(0 0.0042886674 0.50281142)
(0 0.0033708001 0.50258352)
(0 0.0025134408 0.50241836)
(0 0.0016990606 0.5023069)
(0 0.00091206755 0.50224333)
(0 0.00013807956 0.50222441)
(0 -0.00063674162 0.50224925)
(0 -0.0014263062 0.5023192)
(0 -0.0022451737 0.502438)
(0 -0.0031092452 0.5026121)
(0 -0.0040365128 0.50285127)
(0 -0.005047957 0.50316966)
(0 -0.0061686492 0.50358726)
(0 -0.007429144 0.50413226)
(0 -0.0088673755 0.5048446)
(0 -0.010530615 0.50578128)
(0 -0.012477161 0.50702459)
(0 -0.014787233 0.5086977)
(0 -0.017562625 0.51098223)
(0 -0.020857321 0.51412058)
(0 -0.024967591 0.51873098)
(0 -0.030502735 0.5282305)
(0 -0.038623914 0.54872468)
(0 -0.04850437 0.53398955)
(0 -0.019065666 0.29394901)
(0 0.013082739 0.24255894)
(0 0.051797008 0.52520339)
(0 0.047706799 0.57024866)
(0 0.037754638 0.54552462)
(0 0.030848192 0.52928838)
(0 0.026071457 0.52180128)
(0 0.0222361 0.51699734)
(0 0.018952069 0.51347271)
(0 0.016192174 0.51086403)
(0 0.013848601 0.50891139)
(0 0.01183485 0.50743146)
(0 0.010088333 0.50629924)
(0 0.008556422 0.50542696)
(0 0.0071963632 0.50475249)
(0 0.0059733523 0.50423145)
(0 0.004858566 0.50383192)
(0 0.0038278115 0.50353093)
(0 0.0028604118 0.50331211)
(0 0.0019382737 0.50316409)
(0 0.0010451084 0.50307949)
(0 0.00016576678 0.50305422)
(0 -0.00071438427 0.50308713)
(0 -0.0016100495 0.50317994)
(0 -0.0025365398 0.50333737)
(0 -0.0035104267 0.50356757)
(0 -0.0045502211 0.50388283)
(0 -0.0056771675 0.50430073)
(0 -0.0069161866 0.50484591)
(0 -0.0082969899 0.50555263)
(0 -0.0098556548 0.50646868)
(0 -0.011636383 0.50766121)
(0 -0.013691427 0.50922507)
(0 -0.016090298 0.51129824)
(0 -0.018928305 0.51408008)
(0 -0.022236829 0.51783943)
(0 -0.026256648 0.52346889)
(0 -0.031840544 0.53537585)
(0 -0.039751385 0.55589813)
(0 -0.044888664 0.52283201)
(0 -0.014089267 0.26265958)
(0 0.0077696436 0.21554642)
(0 0.044823683 0.50801436)
(0 0.046252153 0.57438142)
(0 0.038032141 0.55375078)
(0 0.031285029 0.53496012)
(0 0.026765685 0.52602976)
(0 0.023114262 0.52053764)
(0 0.01991865 0.51648719)
(0 0.017180289 0.51344036)
(0 0.014811956 0.51112914)
(0 0.012745215 0.50935782)
(0 0.010928012 0.50798912)
(0 0.0093144385 0.50692543)
(0 0.0078665204 0.50609684)
(0 0.0065525085 0.50545274)
(0 0.0053454409 0.50495629)
(0 0.0042222011 0.50458071)
(0 0.0031626526 0.50430675)
(0 0.0021488866 0.50412096)
(0 0.0011645726 0.50401455)
(0 0.00019438923 0.50398261)
(0 -0.00077652461 0.50402379)
(0 -0.0017630996 0.50414013)
(0 -0.0027807968 0.50433727)
(0 -0.003846194 0.50462487)
(0 -0.0049775619 0.50501743)
(0 -0.0061955258 0.50553557)
(0 -0.0075238311 0.50620789)
(0 -0.0089901687 0.50707371)
(0 -0.010627341 0.50818719)
(0 -0.012474936 0.50962358)
(0 -0.014578094 0.51148793)
(0 -0.016993018 0.51392913)
(0 -0.019801385 0.51715592)
(0 -0.023019177 0.52148136)
(0 -0.026868824 0.52818396)
(0 -0.03234074 0.54222101)
(0 -0.039393229 0.5605048)
(0 -0.040321917 0.50909718)
(0 -0.0097065499 0.2358761)
(0 0.0040044423 0.19356315)
(0 0.037897038 0.48949346)
(0 0.043682935 0.57524136)
(0 0.0375599 0.5608444)
(0 0.031150627 0.54036054)
(0 0.026910861 0.53001069)
(0 0.02351106 0.52390081)
(0 0.020477603 0.51941128)
(0 0.017824463 0.51598621)
(0 0.015487668 0.51335706)
(0 0.013416886 0.511322)
(0 0.01157076 0.50973518)
(0 0.0099111221 0.50849194)
(0 0.0084057307 0.50751663)
(0 0.0070267502 0.50675387)
(0 0.0057499025 0.50616295)
(0 0.0045538985 0.50571401)
(0 0.0034198121 0.50538543)
(0 0.0023305217 0.505162)
(0 0.0012702042 0.50503373)
(0 0.0002238777 0.50499504)
(0 -0.00082305241 0.50504437)
(0 -0.0018852464 0.50518406)
(0 -0.0029777998 0.50542051)
(0 -0.0041167427 0.50576469)
(0 -0.0053194969 0.50623295)
(0 -0.0066053903 0.50684841)
(0 -0.007996241 0.50764287)
(0 -0.009516913 0.50865967)
(0 -0.011196013 0.5099579)
(0 -0.013067414 0.51161888)
(0 -0.015168644 0.51375526)
(0 -0.017542343 0.51652281)
(0 -0.020252679 0.52013259)
(0 -0.023307533 0.52496478)
(0 -0.026948716 0.53274147)
(0 -0.032190107 0.54839139)
(0 -0.037982526 0.56254839)
(0 -0.035407401 0.49381189)
(0 -0.0061988184 0.21327564)
(0 0.0015505409 0.17614187)
(0 0.031496745 0.47077052)
(0 0.040527324 0.57338806)
(0 0.036553779 0.56659763)
(0 0.030632659 0.54537752)
(0 0.026667349 0.53370361)
(0 0.023539096 0.52703093)
(0 0.02070682 0.52218667)
(0 0.018179861 0.51844912)
(0 0.015914736 0.51554859)
(0 0.013877012 0.51328291)
(0 0.012035249 0.51150147)
(0 0.010359139 0.51009522)
(0 0.0088224179 0.50898468)
(0 0.0074015468 0.50811111)
(0 0.0060754021 0.50743098)
(0 0.0048250005 0.50691213)
(0 0.0036330929 0.50653111)
(0 0.0024837919 0.50627133)
(0 0.0013622093 0.50612182)
(0 0.00025411409 0.50607648)
(0 -0.00085441787 0.50613357)
(0 -0.0019773711 0.50629566)
(0 -0.0031290614 0.50656979)
(0 -0.0043245401 0.50696796)
(0 -0.0055799276 0.50750799)
(0 -0.0069127806 0.50821493)
(0 -0.0083424978 0.50912298)
(0 -0.0098906587 0.51027846)
(0 -0.011581281 0.51174392)
(0 -0.013442099 0.51360472)
(0 -0.015503188 0.51597833)
(0 -0.017795181 0.5190233)
(0 -0.020365043 0.52295066)
(0 -0.023220023 0.52823718)
(0 -0.02664027 0.53704185)
(0 -0.031549911 0.55365981)
(0 -0.035890231 0.56231576)
(0 -0.03054465 0.47791746)
(0 -0.0035890582 0.19463844)
(0 7.611284e-05 0.16253516)
(0 0.025867073 0.45261225)
(0 0.037153545 0.5694371)
(0 0.03518471 0.57098795)
(0 0.02987128 0.54996157)
(0 0.026168158 0.53711254)
(0 0.023300724 0.52991061)
(0 0.020682792 0.52478192)
(0 0.018303854 0.52079539)
(0 0.016135515 0.51767081)
(0 0.014156474 0.51520961)
(0 0.012343867 0.51325962)
(0 0.010674605 0.51170961)
(0 0.009128065 0.5104779)
(0 0.0076849819 0.5095037)
(0 0.0063275384 0.50874163)
(0 0.0050392868 0.50815797)
(0 0.0038049284 0.50772794)
(0 0.0026101054 0.50743396)
(0 0.0014411677 0.50726435)
(0 0.00028493957 0.5072126)
(0 -0.00087152708 0.50727683)
(0 -0.0020412343 0.50745981)
(0 -0.0032374119 0.50776903)
(0 -0.0044738271 0.50821727)
(0 -0.0057650011 0.50882342)
(0 -0.0071264418 0.50961389)
(0 -0.0085748888 0.51062456)
(0 -0.010128496 0.51190366)
(0 -0.011806762 0.51351594)
(0 -0.013631487 0.51554903)
(0 -0.015625901 0.5181227)
(0 -0.017810645 0.52139515)
(0 -0.020218124 0.52558082)
(0 -0.022861906 0.53128437)
(0 -0.026059568 0.54103254)
(0 -0.030550726 0.55793547)
(0 -0.033409621 0.56020222)
(0 -0.025985427 0.46210294)
(0 -0.0017629717 0.17950478)
(0 -0.00071863801 0.15191963)
(0 0.021104186 0.4354505)
(0 0.033811932 0.56393751)
(0 0.033595726 0.57408824)
(0 0.028967142 0.554092)
(0 0.025512823 0.54026169)
(0 0.022879558 0.53255035)
(0 0.020472453 0.52718904)
(0 0.018249434 0.52300895)
(0 0.016191077 0.51970414)
(0 0.014286645 0.51708128)
(0 0.012520365 0.51498896)
(0 0.010875332 0.51331531)
(0 0.0093358984 0.51197768)
(0 0.0078867689 0.51091428)
(0 0.0065133314 0.51007875)
(0 0.0052016973 0.50943639)
(0 0.0039386257 0.50896164)
(0 0.002711446 0.50863623)
(0 0.0015079316 0.50844801)
(0 0.00031616328 0.50839018)
(0 -0.00087562304 0.50846079)
(0 -0.0020792379 0.50866272)
(0 -0.0033066244 0.50900378)
(0 -0.0045700785 0.50949727)
(0 -0.0058823655 0.51016278)
(0 -0.0072568394 0.51102759)
(0 -0.0087075524 0.51212854)
(0 -0.010249334 0.51351496)
(0 -0.011897514 0.51525269)
(0 -0.013668557 0.51743038)
(0 -0.015579632 0.52016817)
(0 -0.017643218 0.523622)
(0 -0.019880812 0.52801755)
(0 -0.022318544 0.53411248)
(0 -0.025297518 0.54468258)
(0 -0.029307696 0.56120909)
(0 -0.030772222 0.55660313)
(0 -0.021883277 0.44680665)
(0 -0.00056222862 0.16728751)
(0 -0.0010708003 0.143598)
(0 0.017198933 0.41949952)
(0 0.030658075 0.55734867)
(0 0.031904728 0.57601974)
(0 0.027994291 0.55776119)
(0 0.024774855 0.54317692)
(0 0.022342029 0.53497283)
(0 0.020131425 0.52941391)
(0 0.018062356 0.52508578)
(0 0.016118429 0.52163915)
(0 0.014297012 0.5188854)
(0 0.012587938 0.51667544)
(0 0.010979334 0.51489769)
(0 0.0094597462 0.51346945)
(0 0.0080173826 0.5123287)
(0 0.0066405709 0.51142868)
(0 0.0053178578 0.51073431)
(0 0.0040380375 0.51021957)
(0 0.0027901684 0.50986585)
(0 0.0015635314 0.50966074)
(0 0.00034757168 0.50959724)
(0 -0.00086817258 0.50967336)
(0 -0.0020942012 0.50989204)
(0 -0.0033410638 0.5102613)
(0 -0.0046195029 0.51079471)
(0 -0.0059404872 0.51151226)
(0 -0.0073152449 0.51244163)
(0 -0.0087552653 0.51362014)
(0 -0.010272308 0.5150975)
(0 -0.011878031 0.51693986)
(0 -0.013584327 0.51923595)
(0 -0.015403212 0.52210499)
(0 -0.017340689 0.52569991)
(0 -0.019411382 0.5302678)
(0 -0.021658851 0.53673316)
(0 -0.024427316 0.54797186)
(0 -0.027922499 0.56352464)
(0 -0.02814858 0.55188034)
(0 -0.018312337 0.43229336)
(0 0.00017158911 0.15744064)
(0 -0.0011539337 0.13701889)
(0 0.014073819 0.40483971)
(0 0.027772009 0.55004497)
(0 0.030199742 0.57692999)
(0 0.027005113 0.5609756)
(0 0.024007216 0.54588218)
(0 0.021739987 0.53720502)
(0 0.019704874 0.53146965)
(0 0.017780933 0.5270291)
(0 0.015949656 0.52347324)
(0 0.014214031 0.52061557)
(0 0.012568066 0.51831019)
(0 0.011003806 0.51644649)
(0 0.0095131837 0.51494223)
(0 0.0080873725 0.51373567)
(0 0.0067172838 0.51278015)
(0 0.0053936815 0.51204053)
(0 0.0041072801 0.51149073)
(0 0.0028488211 0.51111199)
(0 0.0016090943 0.51089179)
(0 0.00037893804 0.51082306)
(0 -0.0008507652 0.51090377)
(0 -0.0020891624 0.5111369)
(0 -0.0033453826 0.51153054)
(0 -0.0046286167 0.51209837)
(0 -0.005948086 0.51286049)
(0 -0.0073130143 0.51384469)
(0 -0.0087325525 0.5150883)
(0 -0.010215741 0.51664094)
(0 -0.011771121 0.51856851)
(0 -0.013406843 0.52095921)
(0 -0.015130763 0.52393038)
(0 -0.016944061 0.52763253)
(0 -0.018858383 0.53234525)
(0 -0.020937349 0.53916053)
(0 -0.023506131 0.55089393)
(0 -0.026477581 0.56496482)
(0 -0.025649916 0.54635178)
(0 -0.015284229 0.41871115)
(0 0.00057659882 0.14950146)
(0 -0.0010863682 0.13174259)
(0 0.011618192 0.39146245)
(0 0.025181558 0.54232022)
(0 0.02853956 0.57697333)
(0 0.02603298 0.56375492)
(0 0.023245233 0.54840031)
(0 0.021111924 0.53927536)
(0 0.019228222 0.53337363)
(0 0.017436368 0.52884686)
(0 0.015711791 0.52520849)
(0 0.014060679 0.52226983)
(0 0.012479933 0.51988841)
(0 0.010964512 0.51795498)
(0 0.0095089606 0.51638808)
(0 0.0081068654 0.51512653)
(0 0.0067513245 0.51412408)
(0 0.0054350505 0.51334583)
(0 0.0041505031 0.51276579)
(0 0.0028899992 0.5123653)
(0 0.0016457757 0.51213182)
(0 0.00041003168 0.51205829)
(0 -0.00082502609 0.51214268)
(0 -0.0020672115 0.51238794)
(0 -0.0033242689 0.51280217)
(0 -0.0046039031 0.51339899)
(0 -0.0059137013 0.51419844)
(0 -0.0072610669 0.51522815)
(0 -0.0086530946 0.51652518)
(0 -0.010096508 0.51813868)
(0 -0.011597302 0.520134)
(0 -0.013160705 0.52259835)
(0 -0.014791402 0.52564671)
(0 -0.016487341 0.529429)
(0 -0.018260493 0.53426801)
(0 -0.020194632 0.54141117)
(0 -0.022575483 0.55345648)
(0 -0.025033979 0.56563422)
(0 -0.02333889 0.54028345)
(0 -0.012769313 0.40612196)
(0 0.0007619021 0.14307574)
(0 -0.00094454465 0.12742352)
(0 0.0097132774 0.37930178)
(0 0.022883255 0.53439493)
(0 0.026959355 0.5762949)
(0 0.025096602 0.56612641)
(0 0.022510108 0.55075199)
(0 0.020484478 0.54121151)
(0 0.018727891 0.53514548)
(0 0.017053126 0.53055007)
(0 0.015426877 0.52685023)
(0 0.013856301 0.52384944)
(0 0.012340148 0.52140839)
(0 0.010875441 0.51941933)
(0 0.0094586438 0.51780166)
(0 0.0080852285 0.51649494)
(0 0.006750083 0.51545346)
(0 0.0054475785 0.51464273)
(0 0.004171712 0.51403705)
(0 0.0029162282 0.51361791)
(0 0.0016747059 0.51337291)
(0 0.00044062657 0.513295)
(0 -0.00079254496 0.51338218)
(0 -0.0020313564 0.51363736)
(0 -0.0032822491 0.51406854)
(0 -0.0045515531 0.51468922)
(0 -0.0058453768 0.51551922)
(0 -0.0071695227 0.51658582)
(0 -0.0085293376 0.51792563)
(0 -0.0099296428 0.51958719)
(0 -0.011374439 0.52163503)
(0 -0.012866772 0.52415517)
(0 -0.01440905 0.52726018)
(0 -0.015997455 0.53110219)
(0 -0.017646797 0.53605648)
(0 -0.019458835 0.54350262)
(0 -0.021663383 0.55567695)
(0 -0.023633678 0.56564301)
(0 -0.021243536 0.53388699)
(0 -0.010715067 0.39452543)
(0 0.00080781263 0.13783019)
(0 -0.00077595381 0.12380067)
(0 0.0082464201 0.36826086)
(0 0.020856814 0.52642868)
(0 0.025477001 0.57502265)
(0 0.024204748 0.5681197)
(0 0.02181296 0.55295417)
(0 0.019874769 0.54303812)
(0 0.018222625 0.53680491)
(0 0.016649637 0.53215118)
(0 0.015112261 0.52840571)
(0 0.013616674 0.52535786)
(0 0.012162664 0.52287067)
(0 0.010748648 0.52083787)
(0 0.009372418 0.51917969)
(0 0.008030864 0.51783643)
(0 0.0067202926 0.516763)
(0 0.0054364472 0.51592539)
(0 0.004174642 0.51529828)
(0 0.0029298806 0.5148634)
(0 0.0016969513 0.51460849)
(0 0.00047050912 0.5145266)
(0 -0.00075482199 0.51461574)
(0 -0.0019844227 0.51487876)
(0 -0.003223545 0.51532353)
(0 -0.0044772826 0.51596336)
(0 -0.005750445 0.51681774)
(0 -0.0070474667 0.51791353)
(0 -0.0083722545 0.51928678)
(0 -0.0097281229 0.5209853)
(0 -0.011117576 0.52307277)
(0 -0.012542106 0.52563398)
(0 -0.014002607 0.52877938)
(0 -0.015494795 0.53266677)
(0 -0.017038024 0.53773088)
(0 -0.018748152 0.5454513)
(0 -0.020787349 0.55757782)
(0 -0.02230321 0.56509624)
(0 -0.019368937 0.52732454)
(0 -0.0090587173 0.38388117)
(0 0.00077083634 0.13349248)
(0 -0.00060858295 0.12068381)
(0 0.007118429 0.35823091)
(0 0.019074204 0.51853373)
(0 0.024098345 0.57326565)
(0 0.023359849 0.56976416)
(0 0.021158212 0.55501976)
(0 0.019292855 0.54477561)
(0 0.017725098 0.53837024)
(0 0.016239307 0.53366278)
(0 0.014781177 0.52988301)
(0 0.013354301 0.5267998)
(0 0.011958895 0.52427729)
(0 0.010594249 0.52221054)
(0 0.0092590167 0.5205205)
(0 0.0079511092 0.51914812)
(0 0.0066679232 0.51804892)
(0 0.0054063076 0.5171894)
(0 0.0041626783 0.51654461)
(0 0.0029331215 0.51609658)
(0 0.0017134896 0.51583324)
(0 0.00049948434 0.51574774)
(0 -0.00071322985 0.51583808)
(0 -0.0019289862 0.51610707)
(0 -0.0031519784 0.51656242)
(0 -0.0043862174 0.51721718)
(0 -0.0056354002 0.51809049)
(0 -0.0069028242 0.51920875)
(0 -0.0081912444 0.5206074)
(0 -0.0095028244 0.52233357)
(0 -0.010838999 0.52445009)
(0 -0.01220022 0.52704058)
(0 -0.013586492 0.53021396)
(0 -0.014994172 0.53413759)
(0 -0.016448139 0.53930967)
(0 -0.018073322 0.54727156)
(0 -0.019957057 0.55918358)
(0 -0.021057006 0.56408878)
(0 -0.017705822 0.52071693)
(0 -0.0077355457 0.37412646)
(0 0.00068938692 0.12984737)
(0 -0.00045735392 0.11793774)
(0 0.0062467201 0.34910254)
(0 0.017505273 0.51078673)
(0 0.022821475 0.57111535)
(0 0.022560511 0.57108785)
(0 0.020545998 0.55695816)
(0 0.018743741 0.54644006)
(0 0.017243394 0.5398576)
(0 0.015831544 0.53509672)
(0 0.014443435 0.53129027)
(0 0.013078839 0.52818055)
(0 0.011737948 0.52563121)
(0 0.010420536 0.52353839)
(0 0.0091257554 0.52182361)
(0 0.0078522222 0.52042834)
(0 0.0065981429 0.51930865)
(0 0.0053612347 0.5184315)
(0 0.0041388142 0.51777232)
(0 0.0029278791 0.51731344)
(0 0.0017251965 0.51704297)
(0 0.00052738099 0.51695418)
(0 -0.00066899027 0.51704506)
(0 -0.001867332 0.51731837)
(0 -0.0030709185 0.51778164)
(0 -0.0042828342 0.51844766)
(0 -0.0055058462 0.51933522)
(0 -0.0067423307 0.52047024)
(0 -0.0079941493 0.52188758)
(0 -0.0092626212 0.52363373)
(0 -0.010548463 0.52577083)
(0 -0.011851496 0.52838142)
(0 -0.013171321 0.53157378)
(0 -0.014505841 0.53552866)
(0 -0.015885811 0.54080883)
(0 -0.017439617 0.54897548)
(0 -0.019176475 0.56051898)
(0 -0.019900484 0.56270355)
(0 -0.016236893 0.51415188)
(0 -0.0066843374 0.36518796)
(0 0.00058864492 0.12672839)
(0 -0.00032873303 0.11546825)
(0 0.0055655547 0.34077201)
(0 0.016121063 0.50323791)
(0 0.021640083 0.5686476)
(0 0.021803312 0.57211689)
(0 0.019973874 0.55877597)
(0 0.018228949 0.54804365)
(0 0.016782209 0.54128068)
(0 0.015432665 0.53646375)
(0 0.014106086 0.53263522)
(0 0.012797567 0.52950547)
(0 0.011506934 0.5269358)
(0 0.01023416 0.52482314)
(0 0.0089786342 0.52308937)
(0 0.007739429 0.52167635)
(0 0.0065153313 0.52054058)
(0 0.0053047227 0.51964943)
(0 0.0041056404 0.51897869)
(0 0.0029158338 0.51851093)
(0 0.0017328407 0.51823447)
(0 0.00055405499 0.51814267)
(0 -0.00062316221 0.51823353)
(0 -0.0018014375 0.51850973)
(0 -0.0029832638 0.51897865)
(0 -0.0041709495 0.51965282)
(0 -0.005366503 0.52055067)
(0 -0.006571573 0.5216977)
(0 -0.0077873512 0.52312825)
(0 -0.0090145665 0.52488828)
(0 -0.010253498 0.52703932)
(0 -0.011503643 0.52966311)
(0 -0.012764576 0.5328683)
(0 -0.01403643 0.53685266)
(0 -0.015355669 0.54224166)
(0 -0.016848445 0.55057297)
(0 -0.018445649 0.56160785)
(0 -0.018832885 0.5610112)
(0 -0.014941287 0.50769108)
(0 -0.0058504911 0.35698925)
(0 0.00048435791 0.12400895)
(0 -0.00022405264 0.11321097)
(0 0.0050244475 0.33314448)
(0 0.014895457 0.49591833)
(0 0.020545887 0.56592499)
(0 0.021084065 0.57287525)
(0 0.019438055 0.56047765)
(0 0.017747751 0.54959513)
(0 0.016343827 0.54265082)
(0 0.015046652 0.53777333)
(0 0.013774013 0.53392495)
(0 0.012515824 0.53077975)
(0 0.01127128 0.52819463)
(0 0.010040349 0.52606692)
(0 0.0088224773 0.52431871)
(0 0.0076170095 0.5228921)
(0 0.0064231282 0.52174388)
(0 0.0052397101 0.52084176)
(0 0.0040653561 0.52016181)
(0 0.0028984235 0.51968686)
(0 0.0017370869 0.51940537)
(0 0.00057939145 0.51931081)
(0 -0.00057664034 0.51940118)
(0 -0.0017329727 0.51967909)
(0 -0.0028914492 0.52015175)
(0 -0.0040537417 0.52083148)
(0 -0.0052212531 0.52173637)
(0 -0.0063950745 0.52289154)
(0 -0.0075759142 0.52433094)
(0 -0.008764114 0.52610007)
(0 -0.0099597262 0.52826004)
(0 -0.011162158 0.53089202)
(0 -0.012371231 0.53410624)
(0 -0.013589773 0.53812065)
(0 -0.014859405 0.54361886)
(0 -0.016298645 0.5520719)
(0 -0.017762184 0.5624723)
(0 -0.017849645 0.55907095)
(0 -0.013797469 0.5013763)
(0 -0.0051873364 0.34945541)
(0 0.00038573532 0.12159429)
(0 -0.0001417841 0.11112256)
(0 0.0045857392 0.32613548)
(0 0.013805754 0.48884549)
(0 0.01953018 0.56299921)
(0 0.020398592 0.57338481)
(0 0.018934268 0.56206607)
(0 0.017298096 0.55110041)
(0 0.015928896 0.54397715)
(0 0.014675781 0.5390336)
(0 0.013450436 0.53516577)
(0 0.012237402 0.53200817)
(0 0.011035024 0.52941118)
(0 0.0098431206 0.52727205)
(0 0.0086610877 0.52551295)
(0 0.0074884026 0.52407603)
(0 0.0063245032 0.52291828)
(0 0.0051686233 0.52200766)
(0 0.0040197954 0.52132046)
(0 0.0028768577 0.52083971)
(0 0.0017385009 0.52055402)
(0 0.00060330692 0.52045691)
(0 -0.00053015905 0.52054642)
(0 -0.0016633151 0.52082505)
(0 -0.002797473 0.52129991)
(0 -0.0039337955 0.52198307)
(0 -0.0050732146 0.52289239)
(0 -0.0062164064 0.52405267)
(0 -0.0073637472 0.5254975)
(0 -0.0085153495 0.52727212)
(0 -0.0096711918 0.52943735)
(0 -0.010830755 0.53207408)
(0 -0.01199431 0.53529539)
(0 -0.013167643 0.53934199)
(0 -0.014396692 0.54494864)
(0 -0.015787501 0.55347835)
(0 -0.01712234 0.56313241)
(0 -0.016944131 0.55693192)
(0 -0.012784965 0.49523452)
(0 -0.0046563255 0.34251601)
(0 0.00029760944 0.11941474)
(0 -7.9017331e-05 0.10917402)
(0 0.0042220096 0.31967108)
(0 0.012832649 0.48202746)
(0 0.018584705 0.55991313)
(0 0.019743134 0.57366558)
(0 0.01845828 0.5635431)
(0 0.016877271 0.55256314)
(0 0.015537011 0.54526676)
(0 0.014321125 0.54025141)
(0 0.013137342 0.53636322)
(0 0.011964893 0.53319509)
(0 0.010801087 0.53058875)
(0 0.0096454974 0.52844088)
(0 0.0084974022 0.52667357)
(0 0.0073563195 0.52522891)
(0 0.0062218353 0.52406396)
(0 0.0050934316 0.52314682)
(0 0.0039704624 0.52245396)
(0 0.002852139 0.52196857)
(0 0.0017375621 0.52167935)
(0 0.00062574587 0.52157989)
(0 -0.00048430589 0.52166823)
(0 -0.0015935704 0.52194681)
(0 -0.002702934 0.52242261)
(0 -0.0038131611 0.52310755)
(0 -0.0049248272 0.52401925)
(0 -0.0060383106 0.52518227)
(0 -0.0071537755 0.52662999)
(0 -0.008271222 0.52840744)
(0 -0.0093906597 0.53057534)
(0 -0.010511756 0.53321462)
(0 -0.011635376 0.5364425)
(0 -0.012770359 0.54052438)
(0 -0.013965905 0.5462371)
(0 -0.015311467 0.55479691)
(0 -0.016521804 0.56360622)
(0 -0.016108856 0.55463465)
(0 -0.011885252 0.48928193)
(0 -0.0042265191 0.33610658)
(0 0.00022196524 0.11741974)
(0 -3.2384743e-05 0.10734581)
(0 0.0039136857 0.3136873)
(0 0.011959927 0.47546597)
(0 0.017702074 0.55670254)
(0 0.019114509 0.57373599)
(0 0.018006196 0.56491002)
(0 0.016482331 0.55398525)
(0 0.015167132 0.5465251)
(0 0.013982939 0.54143249)
(0 0.012835824 0.53752206)
(0 0.011699977 0.53434436)
(0 0.010571514 0.53173038)
(0 0.0094496908 0.52957572)
(0 0.0083336393 0.52780219)
(0 0.0072228554 0.52635174)
(0 0.0061169955 0.52518139)
(0 0.0050157052 0.5242593)
(0 0.003918571 0.52356206)
(0 0.0028250869 0.52307294)
(0 0.0017346718 0.52278076)
(0 0.00064668119 0.52267912)
(0 -0.00043953367 0.52276607)
(0 -0.0015246016 0.523044)
(0 -0.002609077 0.52351979)
(0 -0.00369342 0.52420521)
(0 -0.0047779444 0.52511773)
(0 -0.0058628254 0.52628173)
(0 -0.0069481062 0.52773045)
(0 -0.0080337592 0.52950887)
(0 -0.0091198909 0.53167772)
(0 -0.01020643 0.53431833)
(0 -0.011294942 0.53755335)
(0 -0.012397258 0.54167396)
(0 -0.013564662 0.54748849)
(0 -0.014866687 0.55603099)
(0 -0.015956197 0.56390987)
(0 -0.015336283 0.55221259)
(0 -0.011082107 0.48352701)
(0 -0.0038736762 0.33016934)
(0 0.00015900823 0.11557308)
(0 1.397049e-06 0.10562436)
(0 0.0036470012 0.30812915)
(0 0.011174046 0.46915848)
(0 0.016875904 0.55339754)
(0 0.018510138 0.57361319)
(0 0.017574593 0.56616793)
(0 0.016110363 0.55536743)
(0 0.014817873 0.54775619)
(0 0.013660942 0.54258154)
(0 0.012546342 0.53864636)
(0 0.011443659 0.53545935)
(0 0.01034767 0.53283884)
(0 0.0092572695 0.53067871)
(0 0.0081714328 0.52890043)
(0 0.0070895943 0.52744565)
(0 0.0060114263 0.52627127)
(0 0.004936674 0.52534544)
(0 0.0038650853 0.52464482)
(0 0.0027963621 0.52415273)
(0 0.0017301649 0.52385803)
(0 0.00066611185 0.52375437)
(0 -0.00039617631 0.52383977)
(0 -0.0014570596 0.5241166)
(0 -0.0025168402 0.52459165)
(0 -0.0035757523 0.5252766)
(0 -0.0046339254 0.52618878)
(0 -0.0056914055 0.52735249)
(0 -0.0067481825 0.5288009)
(0 -0.0078042591 0.53057906)
(0 -0.0088598766 0.53274781)
(0 -0.00991527 0.53538929)
(0 -0.010972781 0.53863275)
(0 -0.012047059 0.54279554)
(0 -0.013190216 0.54870562)
(0 -0.014449323 0.55718316)
(0 -0.015421391 0.56405782)
(0 -0.014619312 0.54969341)
(0 -0.010361625 0.47797287)
(0 -0.0035791838 0.32465314)
(0 0.00010790811 0.11384895)
(0 2.5249121e-05 0.10399979)
(0 0.003412357 0.30294955)
(0 0.010463697 0.46309969)
(0 0.016100776 0.55002359)
(0 0.017927977 0.57331317)
(0 0.017160563 0.56731801)
(0 0.015758638 0.5567095)
(0 0.014487688 0.54896291)
(0 0.013354517 0.5437024)
(0 0.012268927 0.53973959)
(0 0.011196446 0.53654301)
(0 0.010130406 0.5339166)
(0 0.0090692993 0.53175189)
(0 0.0080119481 0.52996986)
(0 0.0069577032 0.5285118)
(0 0.0059062159 0.52733442)
(0 0.0048572829 0.52640579)
(0 0.0038107581 0.52570255)
(0 0.002766491 0.52520807)
(0 0.0017243195 0.52491122)
(0 0.00068405946 0.52480567)
(0 -0.00035446575 0.52488944)
(0 -0.0013914142 0.52516485)
(0 -0.0024269019 0.52563864)
(0 -0.0034610018 0.52632242)
(0 -0.0044937206 0.52723346)
(0 -0.0055250317 0.52839599)
(0 -0.0065549199 0.52984325)
(0 -0.0075834559 0.5316204)
(0 -0.0086110332 0.53378853)
(0 -0.0096382196 0.53643094)
(0 -0.010668183 0.53968465)
(0 -0.011718127 0.54389278)
(0 -0.012839713 0.54989014)
(0 -0.014055764 0.55825542)
(0 -0.014913678 0.56406312)
(0 -0.013951536 0.54710009)
(0 -0.0097120499 0.47261889)
(0 -0.0033289898 0.31951316)
(0 6.730515e-05 0.11222898)
(0 4.1622253e-05 0.10246444)
(0 0.0032030667 0.29810818)
(0 0.0098193972 0.45728254)
(0 0.015372118 0.54660233)
(0 0.017366425 0.57285095)
(0 0.016761692 0.56836161)
(0 0.01542468 0.55801074)
(0 0.014174996 0.55014725)
(0 0.013062852 0.54479821)
(0 0.012003315 0.54080471)
(0 0.010958495 0.53759788)