/*--------------------------------*- C++ -*----------------------------------*\
  =========                 |
  \\      /  F ield         | OpenFOAM: The Open Source CFD Toolbox
   \\    /   O peration     | Website:  https://openfoam.org
    \\  /    A nd           | Version:  10
     \\/     M anipulation  |
\*---------------------------------------------------------------------------*/
FoamFile
{
    format      ascii;
    class       surfaceScalarField;
    location    "0.22";
    object      phi;
}
// * * * * * * * * * * * * * * * * * * * * * * * * * * * * * * * * * * * * * //

dimensions      [1 0 -1 0 0 0 0];

internalField   nonuniform List<scalar> 
7860
(
3.9895942e-08
5.2881209e-07
1.2192704e-08
5.9641104e-07
7.4278882e-09
5.7347256e-07
5.4994093e-09
5.7063618e-07
4.1149903e-09
5.7009209e-07
3.2011413e-09
5.696215e-07
2.559152e-09
5.6934962e-07
2.0793291e-09
5.6918744e-07
1.7093443e-09
5.6907759e-07
1.4166738e-09
5.6900027e-07
1.1795222e-09
5.6894474e-07
9.8312649e-10
5.6890398e-07
8.1714304e-10
5.6887356e-07
6.7408154e-10
5.6885064e-07
5.4836875e-10
5.6883328e-07
4.3574394e-10
5.6882019e-07
3.3285345e-10
5.6881045e-07
2.3696993e-10
5.6880345e-07
1.4579033e-10
5.6879874e-07
5.7283607e-11
5.6879607e-07
-3.0433114e-11
5.6879528e-07
-1.1920204e-10
5.6879633e-07
-2.1092959e-10
5.6879929e-07
-3.0769325e-10
5.6880433e-07
-4.118738e-10
5.6881174e-07
-5.2631816e-10
5.6882201e-07
-6.5456037e-10
5.6883581e-07
-8.0113418e-10
5.6885415e-07
-9.7203387e-10
5.6887848e-07
-1.1754208e-09
5.6891097e-07
-1.4227965e-09
5.6895497e-07
-1.7309726e-09
5.6901577e-07
-2.1249274e-09
5.6910156e-07
-2.6445427e-09
5.6922723e-07
-3.3722323e-09
5.6943532e-07
-4.4635491e-09
5.6979897e-07
-6.0089065e-09
5.7025304e-07
-9.5079236e-09
5.7220673e-07
-2.9575727e-08
5.8877556e-07
5.391322e-07
5.9672409e-08
4.6913968e-07
3.666587e-08
6.1941758e-07
2.2628068e-08
5.8751036e-07
1.6253486e-08
5.7701077e-07
1.2290436e-08
5.7405514e-07
9.6062019e-09
5.7230574e-07
7.6774408e-09
5.7127838e-07
6.2361172e-09
5.7062877e-07
5.1266343e-09
5.7018708e-07
4.2489192e-09
5.6987798e-07
3.5376369e-09
5.6965602e-07
2.9486183e-09
5.69493e-07
2.4508177e-09
5.6937136e-07
2.0217594e-09
5.6927969e-07
1.6447283e-09
5.6921031e-07
1.3069468e-09
5.6915797e-07
9.9835704e-10
5.6911904e-07
7.1078021e-10
5.6909102e-07
4.3731016e-10
5.6907221e-07
1.7185478e-10
5.6906152e-07
-9.1232786e-11
5.6905836e-07
-3.5747614e-10
5.6906257e-07
-6.3258793e-10
5.690744e-07
-9.2280095e-10
5.6909454e-07
-1.2352548e-09
5.691242e-07
-1.5784869e-09
5.6916524e-07
-1.9630951e-09
5.6922042e-07
-2.4026759e-09
5.6929373e-07
-2.9152126e-09
5.6939101e-07
-3.5251984e-09
5.6952096e-07
-4.2670524e-09
5.6969682e-07
-5.1911406e-09
5.6993986e-07
-6.3740882e-09
5.7028451e-07
-7.934613e-09
5.7078776e-07
-1.0075938e-08
5.7157665e-07
-1.3204191e-08
5.7292722e-07
-1.8134138e-08
5.7518298e-07
-2.8176407e-08
5.82249e-07
-4.580243e-08
6.0640158e-07
4.9332977e-07
6.0008666e-08
4.0913102e-07
5.0487046e-08
6.289392e-07
3.337048e-08
6.0462693e-07
2.481751e-08
5.8556374e-07
1.9323113e-08
5.7954954e-07
1.5331407e-08
5.7629744e-07
1.2360679e-08
5.7424911e-07
1.0101573e-08
5.7288787e-07
8.3407122e-09
5.7194794e-07
6.9349758e-09
5.7128372e-07
5.7882839e-09
5.7080272e-07
4.8338711e-09
5.7044741e-07
4.023972e-09
5.7018126e-07
3.3236004e-09
5.6998006e-07
2.7064919e-09
5.6982742e-07
2.1524134e-09
5.6971205e-07
1.6453386e-09
5.6962612e-07
1.1721674e-09
5.6956419e-07
7.2179172e-10
5.6952259e-07
2.8438241e-10
5.6949893e-07
-1.4918789e-10
5.6949193e-07
-5.8785097e-10
5.6950124e-07
-1.0408363e-09
5.6952739e-07
-1.5181912e-09
5.6957189e-07
-2.0313832e-09
5.6963739e-07
-2.5940603e-09
5.6972792e-07
-3.2230619e-09
5.6984942e-07
-3.9398302e-09
5.700105e-07
-4.7724602e-09
5.7022364e-07
-5.7587631e-09
5.7050726e-07
-6.9509248e-09
5.7088898e-07
-8.4231443e-09
5.7141208e-07
-1.0284821e-08
5.7214619e-07
-1.2697828e-08
5.7320077e-07
-1.5895324e-08
5.7477414e-07
-2.02392e-08
5.772711e-07
-2.6707577e-08
5.8165136e-07
-3.8947102e-08
5.9448852e-07
-4.8166565e-08
6.1562104e-07
4.451632e-07
5.4878835e-08
3.5425219e-07
5.7451819e-08
6.2636621e-07
4.0467223e-08
6.2161152e-07
3.0778474e-08
5.9525248e-07
2.4642805e-08
5.8568521e-07
1.9952104e-08
5.8098814e-07
1.6312817e-08
5.778884e-07
1.3466487e-08
5.757342e-07
1.1201e-08
5.7421342e-07
9.3646494e-09
5.7312007e-07
7.8495497e-09
5.7231782e-07
6.5772121e-09
5.7171975e-07
5.4897895e-09
5.7126868e-07
4.5439687e-09
5.7092589e-07
3.706654e-09
5.7066474e-07
2.9519874e-09
5.7046672e-07
2.2592504e-09
5.7031886e-07
1.6113467e-09
5.702121e-07
9.9367018e-10
5.7014026e-07
3.9322519e-10
5.7009938e-07
-2.0209665e-10
5.7008726e-07
-8.0415673e-10
5.701033e-07
-1.4251904e-09
5.7014842e-07
-2.0784614e-09
5.7022516e-07
-2.7790125e-09
5.7033794e-07
-3.5445935e-09
5.704935e-07
-4.3968681e-09
5.707017e-07
-5.3630472e-09
5.7097667e-07
-6.4781693e-09
5.7133877e-07
-7.7883609e-09
5.7181745e-07
-9.3554033e-09
5.7245602e-07
-1.1263118e-08
5.733198e-07
-1.3627771e-08
5.7451084e-07
-1.6610708e-08
5.761837e-07
-2.0409705e-08
5.7857314e-07
-2.5291437e-08
5.8215283e-07
-3.2515787e-08
5.8887571e-07
-4.5099448e-08
6.0707218e-07
-4.65484e-08
6.1707e-07
3.986148e-07
4.7965498e-08
3.062867e-07
6.0076017e-08
6.142557e-07
4.5399654e-08
6.3628788e-07
3.4874923e-08
6.0577721e-07
2.8399471e-08
5.9216066e-07
2.3419292e-08
5.8596832e-07
1.9434051e-08
5.8187364e-07
1.6229007e-08
5.7893924e-07
1.3619646e-08
5.7682278e-07
1.1466558e-08
5.7527316e-07
9.6646178e-09
5.7411976e-07
8.1337833e-09
5.7325058e-07
6.8130306e-09
5.7258944e-07
5.6553463e-09
5.7208357e-07
4.6239542e-09
5.7169613e-07
3.6895663e-09
5.7140111e-07
2.8283429e-09
5.7118008e-07
2.020353e-09
5.7102009e-07
1.2483904e-09
5.7091222e-07
4.9702832e-10
5.7085074e-07
-2.4817349e-10
5.7083246e-07
-1.001379e-09
5.708565e-07
-1.7771659e-09
5.7092421e-07
-2.5912483e-09
5.7103925e-07
-3.4612926e-09
5.7120798e-07
-4.4079017e-09
5.7144011e-07
-5.4558544e-09
5.7174965e-07
-6.6357153e-09
5.7215653e-07
-7.9859614e-09
5.7268901e-07
-9.5558559e-09
5.7338734e-07
-1.1409224e-08
5.7430939e-07
-1.3628878e-08
5.7553945e-07
-1.6323121e-08
5.7720508e-07
-1.9635557e-08
5.7949614e-07
-2.3736453e-08
5.8267404e-07
-2.8928716e-08
5.8734509e-07
-3.6789053e-08
5.9673605e-07
-4.846177e-08
6.187449e-07
-4.319303e-08
6.1180125e-07
3.5542177e-07
4.0335742e-08
2.6595097e-07
5.8993434e-08
5.9559801e-07
4.8329416e-08
6.469519e-07
3.7587495e-08
6.1651913e-07
3.0928375e-08
5.9881978e-07
2.5893566e-08
5.9100313e-07
2.1779677e-08
5.8598753e-07
1.8391855e-08
5.8232707e-07
1.5577441e-08
5.796372e-07
1.3214385e-08
5.7763621e-07
1.1206748e-08
5.7612739e-07
9.4792363e-09
5.7497809e-07
7.9727057e-09
5.7409597e-07
6.640251e-09
5.7341602e-07
5.4442439e-09
5.7289214e-07
4.3540651e-09
5.7249128e-07
3.3443251e-09
5.7218982e-07
2.3934641e-09
5.7197095e-07
1.4826347e-09
5.7182305e-07
5.9478111e-10
5.7173859e-07
-2.8615135e-10
5.7171339e-07
-1.1759335e-09
5.7174628e-07
-2.090755e-09
5.7183903e-07
-3.0479526e-09
5.7199644e-07
-4.0668158e-09
5.7222685e-07
-5.1695336e-09
5.7254283e-07
-6.3823455e-09
5.7296246e-07
-7.7369765e-09
5.7351117e-07
-9.2724349e-09
5.7422447e-07
-1.1037319e-08
5.7515223e-07
-1.3092853e-08
5.7636492e-07
-1.5516301e-08
5.779629e-07
-1.8405067e-08
5.8009385e-07
-2.1883328e-08
5.829744e-07
-2.6106872e-08
5.8689758e-07
-3.1485184e-08
5.927234e-07
-3.9651549e-08
6.0490241e-07
-4.9169604e-08
6.2826295e-07
-3.8576971e-08
6.0120862e-07
3.168448e-07
3.2862349e-08
2.3308864e-07
5.5249179e-08
5.732112e-07
4.9231322e-08
6.5296976e-07
3.9060695e-08
6.2668976e-07
3.2429941e-08
6.0545053e-07
2.7518152e-08
5.9591492e-07
2.3438229e-08
5.9006745e-07
2.0002599e-08
5.857627e-07
1.7094708e-08
5.8254509e-07
1.4612331e-08
5.8011859e-07
1.2471679e-08
5.7826804e-07
1.06055e-08
5.7684427e-07
8.9595517e-09
5.7574191e-07
7.4896399e-09
5.7488594e-07
6.159433e-09
5.7422234e-07
4.9387027e-09
5.7371201e-07
3.8018826e-09
5.7332664e-07
2.7268899e-09
5.7304594e-07
1.6941504e-09
5.7285579e-07
6.8576673e-10
5.7274697e-07
-3.1521325e-10
5.7271437e-07
-1.325471e-09
5.7275654e-07
-2.362083e-09
5.7287564e-07
-3.4432042e-09
5.7307756e-07
-4.5888094e-09
5.7337245e-07
-5.8215406e-09
5.7377556e-07
-7.1677036e-09
5.7430862e-07
-8.6584699e-09
5.7500193e-07
-1.0331325e-08
5.7589732e-07
-1.2231847e-08
5.7705275e-07
-1.4416092e-08
5.7854917e-07
-1.695349e-08
5.8050029e-07
-1.9928885e-08
5.8306924e-07
-2.3443057e-08
5.8648857e-07
-2.763743e-08
5.9109195e-07
-3.3030362e-08
5.9811634e-07
-4.100668e-08
6.1287873e-07
-4.76842e-08
6.3494047e-07
-3.3374333e-08
5.8689875e-07
2.8347047e-07
2.6188596e-08
2.0690007e-07
5.0131664e-08
5.4926816e-07
4.8492333e-08
6.5460909e-07
3.9489933e-08
6.3569215e-07
3.3076472e-08
6.1186399e-07
2.8411192e-08
6.005802e-07
2.4492246e-08
5.939864e-07
2.1117781e-08
5.8913716e-07
1.8206913e-08
5.8545596e-07
1.5680412e-08
5.8264509e-07
1.3469139e-08
5.8047932e-07
1.1515914e-08
5.787975e-07
9.7732194e-09
5.7748461e-07
8.2012625e-09
5.7645789e-07
6.7665095e-09
5.7565709e-07
5.4404132e-09
5.7503811e-07
4.198324e-09
5.7456873e-07
3.0185674e-09
5.742257e-07
1.8816458e-09
5.7399271e-07
7.6953572e-10
5.7385908e-07
-3.3494847e-10
5.7381885e-07
-1.4487509e-09
5.7387034e-07
-2.5891665e-09
5.7401605e-07
-3.7744442e-09
5.7426284e-07
-5.0244295e-09
5.7462244e-07
-6.3612788e-09
5.7511241e-07
-7.8102725e-09
5.7575762e-07
-9.4007617e-09
5.7659242e-07
-1.1167276e-08
5.7766384e-07
-1.3150793e-08
5.7903627e-07
-1.5400385e-08
5.8079876e-07
-1.7975339e-08
5.8307525e-07
-2.0945115e-08
5.8603902e-07
-2.4384906e-08
5.8992836e-07
-2.8430237e-08
5.9513728e-07
-3.368626e-08
6.0337236e-07
-4.1057544e-08
6.2025001e-07
-4.4792895e-08
6.3867583e-07
-2.820241e-08
5.7030827e-07
2.5526806e-07
2.0570444e-08
1.8632965e-07
4.4581921e-08
5.2525672e-07
4.664132e-08
6.525497e-07
3.9151698e-08
6.4318177e-07
3.3082516e-08
6.1793317e-07
2.8716496e-08
6.0494622e-07
2.5037239e-08
5.9766566e-07
2.1803141e-08
5.9237126e-07
1.8958881e-08
5.8830022e-07
1.6448405e-08
5.8515557e-07
1.4218212e-08
5.8270951e-07
1.2222117e-08
5.8079359e-07
1.0420337e-08
5.7928639e-07
8.7785126e-09
5.7809972e-07
7.2668852e-09
5.7716872e-07
5.8594856e-09
5.7644551e-07
4.5333929e-09
5.7589482e-07
3.268069e-09
5.7549102e-07
2.0447521e-09
5.7521603e-07
8.4589935e-10
5.7505794e-07
-3.4533304e-10
5.7501009e-07
-1.545586e-09
5.7507059e-07
-2.7717949e-09
5.7524226e-07
-4.0416907e-09
5.7553274e-07
-5.3743245e-09
5.7595507e-07
-6.7906336e-09
5.7652872e-07
-8.3140584e-09
5.7728104e-07
-9.9712278e-09
5.7824959e-07
-1.1792725e-08
5.7948534e-07
-1.3813884e-08
5.8105742e-07
-1.6075696e-08
5.8306057e-07
-1.8626015e-08
5.8562557e-07
-2.1517951e-08
5.8893095e-07
-2.4805529e-08
5.9321594e-07
-2.8634943e-08
5.989667e-07
-3.3653406e-08
6.0839082e-07
-4.0137464e-08
6.2673407e-07
-4.115375e-08
6.3969211e-07
-2.3414575e-08
5.5256909e-07
2.3185348e-07
1.6014952e-08
1.7031473e-07
3.9142376e-08
5.0212935e-07
4.4116519e-08
6.4757558e-07
3.8287705e-08
6.4901058e-07
3.2652198e-08
6.2356868e-07
2.8590114e-08
6.090083e-07
2.5182373e-08
6.010734e-07
2.2135042e-08
5.9541859e-07
1.9404229e-08
5.9103103e-07
1.695387e-08
5.8760593e-07
1.4744986e-08
5.8491839e-07
1.2741976e-08
5.827966e-07
1.0912923e-08
5.8111544e-07
9.2293025e-09
5.7978334e-07
7.6656363e-09
5.7873239e-07
6.1990727e-09
5.7791207e-07
4.8089606e-09
5.7728493e-07
3.4764221e-09
5.7682356e-07
2.1839311e-09
5.7650852e-07
9.1490526e-10
5.7632696e-07
-3.4669086e-10
5.7627168e-07
-1.6167328e-09
5.7634064e-07
-2.911328e-09
5.7653686e-07
-4.247206e-09
5.7686862e-07
-5.6421181e-09
5.7734998e-07
-7.115252e-09
5.7800185e-07
-8.6876589e-09
5.7885345e-07
-1.0382692e-08
5.7994462e-07
-1.2226461e-08
5.8132911e-07
-1.4248255e-08
5.8307922e-07
-1.6480904e-08
5.8529322e-07
-1.8961162e-08
5.8810583e-07
-2.1727176e-08
5.9169697e-07
-2.4819424e-08
5.9630819e-07
-2.8406744e-08
6.0255402e-07
-3.3116157e-08
6.1310023e-07
-3.8541368e-08
6.3215928e-07
-3.7209252e-08
6.3835999e-07
-1.9180216e-08
5.3454006e-07
2.1267327e-07
1.2423156e-08
1.5789162e-07
3.4112123e-08
4.8044045e-07
4.1247135e-08
6.4044059e-07
3.70761e-08
6.5318161e-07
3.1939636e-08
6.2870513e-07
2.816676e-08
6.1278118e-07
2.5031274e-08
6.0420888e-07
2.2190726e-08
5.9825914e-07
1.9600047e-08
5.9362171e-07
1.7238648e-08
5.8996732e-07
1.5079892e-08
5.8707715e-07
1.3097461e-08
5.8477903e-07
1.1266712e-08
5.8294619e-07
9.5647868e-09
5.8148526e-07
7.9705609e-09
5.8032661e-07
6.4645172e-09
5.7941812e-07
5.0285648e-09
5.7872088e-07
3.6458127e-09
5.7820631e-07
2.300313e-09
5.7785402e-07
9.7679161e-10
5.7765048e-07
-3.396295e-10
5.775881e-07
-1.6637108e-09
5.7766472e-07
-3.0103812e-09
5.7788353e-07
-4.3950189e-09
5.7825325e-07
-5.8337297e-09
5.7878869e-07
-7.3436204e-09
5.7951174e-07
-8.9430587e-09
5.8045288e-07
-1.0651905e-08
5.8165347e-07
-1.249172e-08
5.8316892e-07
-1.448593e-08
5.8507343e-07
-1.6659853e-08
5.8746714e-07
-1.9040385e-08
5.9048636e-07
-2.1653025e-08
5.9430961e-07
-2.4531971e-08
5.9918713e-07
-2.7871686e-08
6.0589373e-07
-3.2217194e-08
6.1744574e-07
-3.6511388e-08
6.3645347e-07
-3.3260663e-08
6.3510927e-07
-1.5561001e-08
5.168404e-07
1.9711226e-07
9.6564364e-09
1.4823522e-07
2.9643468e-08
4.604535e-07
3.8279814e-08
6.3180429e-07
3.565504e-08
6.5580638e-07
3.1055998e-08
6.3330417e-07
2.7550789e-08
6.1628638e-07
2.4670498e-08
6.0708917e-07
2.2038955e-08
6.0089068e-07
1.9600196e-08
5.9606047e-07
1.7344247e-08
5.9222327e-07
1.5254486e-08
5.8916691e-07
1.3312327e-08
5.8672119e-07
1.149943e-08
5.8475909e-07
9.7980597e-09
5.8318663e-07
8.1912062e-09
5.8193347e-07
6.6626401e-09
5.8094668e-07
5.1969079e-09
5.8018662e-07
3.7792568e-09
5.7962396e-07
2.3955139e-09
5.7923776e-07
1.0319348e-09
5.7901406e-07
-3.2496698e-10
5.78945e-07
-1.6885985e-09
5.7902835e-07
-3.0724757e-09
5.792674e-07
-4.4904033e-09
5.7967118e-07
-5.9566446e-09
5.8025494e-07
-7.4860743e-09
5.8104117e-07
-9.0943008e-09
5.8206111e-07
-1.0797742e-08
5.8335691e-07
-1.2613656e-08
5.8498483e-07
-1.4560131e-08
5.870199e-07
-1.6655912e-08
5.8956292e-07
-1.8919484e-08
5.9274993e-07
-2.1366365e-08
5.9675649e-07
-2.4030677e-08
6.0185144e-07
-2.7128617e-08
6.0899167e-07
-3.1074664e-08
6.2139179e-07
-3.4251646e-08
6.3963046e-07
-2.9513114e-08
6.3037074e-07
-1.2552283e-08
4.9987956e-07
1.8455998e-07
7.5659684e-09
1.4066931e-07
2.578407e-08
4.422355e-07
3.5385407e-08
6.2220301e-07
3.413437e-08
6.5705742e-07
3.008426e-08
6.3735427e-07
2.6822175e-08
6.1954847e-07
2.4169715e-08
6.0974163e-07
2.1737494e-08
6.033229e-07
1.9451946e-08
5.9834602e-07
1.730871e-08
5.9436651e-07
1.52989e-08
5.9117672e-07
1.3410128e-08
5.8860996e-07
1.162927e-08
5.8653995e-07
9.9430023e-09
5.848729e-07
8.3379997e-09
5.8353847e-07
6.8010981e-09
5.8248358e-07
5.3193979e-09
5.8166832e-07
3.8802957e-09
5.8106306e-07
2.4714649e-09
5.8064659e-07
1.0808007e-09
5.8040473e-07
-3.0366196e-10
5.8032947e-07
-1.693841e-09
5.8041853e-07
-3.1017102e-09
5.8067527e-07
-4.5393923e-09
5.8110886e-07
-6.0192387e-09
5.8173478e-07
-7.5538835e-09
5.8257581e-07
-9.1562628e-09
5.8366349e-07
-1.083958e-08
5.8504023e-07
-1.2617214e-08
5.8676247e-07
-1.4502603e-08
5.8890529e-07
-1.6508939e-08
5.9156926e-07
-1.8647827e-08
5.9488882e-07
-2.0927784e-08
5.9903644e-07
-2.3387965e-08
6.0431163e-07
-2.6257881e-08
6.1186159e-07
-2.9789622e-08
6.2492353e-07
-3.1923778e-08
6.4176461e-07
-2.6088941e-08
6.245359e-07
-1.0107408e-08
4.8389803e-07
1.7445257e-07
6.0111776e-09
1.346582e-07
2.2512143e-08
4.2573466e-07
3.2665765e-08
6.1204947e-07
3.2594517e-08
6.5712867e-07
2.9084494e-08
6.4086428e-07
2.6041072e-08
6.2259188e-07
2.3584246e-08
6.1219846e-07
2.133391e-08
6.0557324e-07
1.9195474e-08
6.0048445e-07
1.7165468e-08
5.9639651e-07
1.5240507e-08
5.9310168e-07
1.3412953e-08
5.9043752e-07
1.1673808e-08
5.8827909e-07
1.0013392e-08
5.8653331e-07
8.4215477e-09
5.8513031e-07
6.8878489e-09
5.8401728e-07
5.4017595e-09
5.8315441e-07
3.9527328e-09
5.8251209e-07
2.5302635e-09
5.8206906e-07
1.123903e-09
5.8181109e-07
-2.7675086e-10
5.8173012e-07
-1.6820792e-09
5.8182386e-07
-3.1024738e-09
5.8209567e-07
-4.548361e-09
5.8255475e-07
-6.0302092e-09
5.8321663e-07
-7.5585102e-09
5.8410411e-07
-9.1437232e-09
5.852487e-07
-1.0796169e-08
5.8669267e-07
-1.2525871e-08
5.8849217e-07
-1.4342381e-08
5.907218e-07
-1.6254394e-08
5.9348127e-07
-1.8268219e-08
5.9690264e-07
-2.0388453e-08
6.0115668e-07
-2.2662834e-08
6.0658601e-07
-2.5323051e-08
6.145218e-07
-2.8442647e-08
6.2804313e-07
-2.9641969e-08
6.4296393e-07
-2.3043399e-08
6.1793733e-07
-8.157924e-09
4.6901256e-07
1.6629465e-07
4.8693595e-09
1.2978892e-07
1.9769134e-08
4.1083505e-07
3.016915e-08
6.0164956e-07
3.1087814e-08
6.5621003e-07
2.8096181e-08
6.438559e-07
2.5249753e-08
6.2543831e-07
2.2956203e-08
6.1449201e-07
2.0866238e-08
6.076632e-07
1.8864045e-08
6.0248664e-07
1.6943067e-08
5.9831749e-07
1.5103368e-08
5.9494138e-07
1.3340748e-08
5.9220014e-07
1.1649323e-08
5.8997051e-07
1.0022289e-08
5.8816035e-07
8.4521149e-09
5.8670049e-07
6.9307339e-09
5.8553866e-07
5.4497188e-09
5.8463542e-07
4.0004178e-09
5.8396139e-07
2.57405e-09
5.8349543e-07
1.1617697e-09
5.8322337e-07
-2.4529292e-10
5.8313718e-07
-1.6560043e-09
5.8323457e-07
-3.079206e-09
5.8351887e-07
-4.5236855e-09
5.8399923e-07
-5.9981312e-09
5.8469107e-07
-7.511062e-09
5.8561705e-07
-9.0707247e-09
5.8680837e-07
-1.068495e-08
5.883069e-07
-1.236097e-08
5.9016819e-07
-1.4105226e-08
5.9246606e-07
-1.5922952e-08
5.95299e-07
-1.7816687e-08
5.9879638e-07
-1.9789913e-08
6.031299e-07
-2.1900685e-08
6.0869678e-07
-2.4370851e-08
6.1699197e-07
-2.7092478e-08
6.3076475e-07
-2.7478315e-08
6.4334977e-07
-2.0385847e-08
6.1084486e-07
-6.6281785e-09
4.5525489e-07
1.5966647e-07
4.0381538e-09
1.2575085e-07
1.748256e-08
3.9739083e-07
2.7909518e-08
5.9122273e-07
2.9644879e-08
6.5447469e-07
2.7142508e-08
6.4635826e-07
2.4475393e-08
6.2810541e-07
2.2315713e-08
6.1665169e-07
2.036354e-08
6.0961537e-07
1.8484216e-08
6.0436597e-07
1.6665124e-08
6.0013658e-07
1.4908e-08
5.966985e-07
1.321098e-08
5.9389716e-07
1.15704e-08
5.9161109e-07
9.9816405e-09
5.8974911e-07
8.4392657e-09
5.8824286e-07
6.9371748e-09
5.8704075e-07
5.4687658e-09
5.8610383e-07
4.0270781e-09
5.8540308e-07
2.6049109e-09
5.849176e-07
1.1949165e-09
5.8463336e-07
-2.1032465e-10
5.8454242e-07
-1.6182405e-09
5.8464248e-07
-3.0362074e-09
5.8493684e-07
-4.4714836e-09
5.854345e-07
-5.9311295e-09
5.8615072e-07
-7.4219065e-09
5.8710782e-07
-8.9501488e-09
5.8833661e-07
-1.052161e-08
5.8987836e-07
-1.2141287e-08
5.9178787e-07
-1.3813247e-08
5.9413802e-07
-1.5540191e-08
5.9702594e-07
-1.7322257e-08
6.0057844e-07
-1.9164116e-08
6.0497176e-07
-2.1134225e-08
6.1066689e-07
-2.3433256e-08
6.19291e-07
-2.5778859e-08
6.3311036e-07
-2.5472568e-08
6.4304348e-07
-1.8097748e-08
6.0347004e-07
-5.4437967e-09
4.4260094e-07
1.5422267e-07
3.4348841e-09
1.2231608e-07
1.5578606e-08
3.8524734e-07
2.5880244e-08
5.8092127e-07
2.8281118e-08
6.5207386e-07
2.6235327e-08
6.4840403e-07
2.3733865e-08
6.3060686e-07
2.1683072e-08
6.1870248e-07
1.9847019e-08
6.1145143e-07
1.8076391e-08
6.061366e-07
1.6350532e-08
6.0186244e-07
1.4671371e-08
5.9837766e-07
1.3038491e-08
5.9553004e-07
1.1449732e-08
5.9319985e-07
9.9020548e-09
5.9129679e-07
8.3916379e-09
5.8975328e-07
6.9139718e-09
5.8851842e-07
5.4639892e-09
5.8755381e-07
4.036199e-09
5.8683087e-07
2.6248084e-09
5.8632899e-07
1.2238298e-09
5.8603434e-07
-1.7282482e-10
5.8593908e-07
-1.5712576e-09
5.8604092e-07
-2.9775009e-09
5.8634308e-07
-4.397428e-09
5.8685443e-07
-5.8366531e-09
5.8758995e-07
-7.3004154e-09
5.8857158e-07
-8.793446e-09
5.8982964e-07
-1.0319822e-08
5.9140473e-07
-1.1882819e-08
5.9335086e-07
-1.3484772e-08
5.9573997e-07
-1.5126643e-08
5.9866781e-07
-1.6807336e-08
6.0225914e-07
-1.8534458e-08
6.0669888e-07
-2.0385667e-08
6.1251809e-07
-2.2530743e-08
6.2143608e-07
-2.4526638e-08
6.3510625e-07
-2.3641556e-08
6.421584e-07
-1.6145119e-08
5.959736e-07
-4.5363665e-09
4.3099218e-07
1.4968631e-07
2.9949193e-09
1.1932129e-07
1.3988801e-08
3.7425373e-07
2.4063464e-08
5.7084683e-07
2.7001676e-08
6.4913572e-07
2.5379011e-08
6.5002668e-07
2.3033176e-08
6.3295268e-07
2.1071123e-08
6.2066453e-07
1.9331538e-08
6.1319101e-07
1.7655736e-08
6.078124e-07
1.6013957e-08
6.0350422e-07
1.4407118e-08
5.999845e-07
1.2835563e-08
5.9710159e-07
1.1298075e-08
5.9473734e-07
9.7927021e-09
5.9280216e-07
8.3168255e-09
5.9122915e-07
6.867186e-09
5.8996806e-07
5.4399752e-09
5.8898102e-07
4.030948e-09
5.8823989e-07
2.635536e-09
5.877244e-07
1.2489558e-09
5.8742092e-07
-1.3368893e-10
5.8732172e-07
-1.5173101e-09
5.8742454e-07
-2.9067392e-09
5.8773251e-07
-4.306627e-09
5.8825432e-07
-5.7213355e-09
5.8900465e-07
-7.1548204e-09
5.9000507e-07
-8.6105058e-09
5.9128532e-07
-1.0091159e-08
5.9288539e-07
-1.1598784e-08
5.9485849e-07
-1.3134519e-08
5.972757e-07
-1.4698239e-08
6.0023153e-07
-1.6288588e-08
6.0384949e-07
-1.7917295e-08
6.0832759e-07
-1.9669092e-08
6.1426989e-07
-2.1675164e-08
6.2344215e-07
-2.334929e-08
6.3678037e-07
-2.1986441e-08
6.4079555e-07
-1.4486914e-08
5.8847408e-07
-3.845989e-09
4.2035126e-07
1.4584032e-07
2.6694205e-09
1.1665202e-07
1.2653399e-08
3.6427008e-07
2.2436423e-08
5.6106407e-07
2.5805179e-08
6.4576705e-07
2.457315e-08
6.512587e-07
2.2376023e-08
6.3514979e-07
2.0487262e-08
6.2255328e-07
1.882706e-08
6.1485122e-07
1.7233183e-08
6.0940627e-07
1.5666488e-08
6.0507092e-07
1.4125941e-08
6.0152505e-07
1.2612119e-08
5.9861541e-07
1.112433e-08
5.9622513e-07
9.6613272e-09
5.9426516e-07
8.2213489e-09
5.9266913e-07
6.8020922e-09
5.9138732e-07
5.4007577e-09
5.9038236e-07
4.0141337e-09
5.8962652e-07
2.6386932e-09
5.8909984e-07
1.2706958e-09
5.8878892e-07
-9.371268e-11
5.8868613e-07
-1.4584004e-09
5.8878922e-07
-2.8271509e-09
5.8910126e-07
-4.2035604e-09
5.8963073e-07
-5.5909321e-09
5.9039203e-07
-6.9921659e-09
5.914063e-07
-8.4096495e-09
5.9270281e-07
-9.8451623e-09
5.943209e-07
-1.1299812e-08
5.9631314e-07
-1.2773974e-08
5.9874986e-07
-1.4266956e-08
6.0172452e-07
-1.5777919e-08
6.0536045e-07
-1.7323377e-08
6.0987305e-07
-1.8992419e-08
6.1593893e-07
-2.0871994e-08
6.2532172e-07
-2.2251934e-08
6.3816031e-07
-2.0498513e-08
6.3904213e-07
-1.3080621e-08
5.8105618e-07
-3.3222581e-09
4.105929e-07
1.4251806e-07
2.4226469e-09
1.1422955e-07
1.152248e-08
3.5517063e-07
2.097556e-08
5.5161132e-07
2.4686632e-08
6.4205611e-07
2.3814559e-08
6.5213077e-07
2.1761681e-08
6.3720265e-07
1.9935007e-08
6.2437995e-07
1.8339852e-08
6.1644637e-07
1.6816331e-08
6.109298e-07
1.531629e-08
6.0657096e-07
1.3836044e-08
6.030053e-07
1.2376006e-08
6.0007545e-07
1.0935715e-08
5.9766542e-07
9.5143357e-09
5.9568654e-07
8.1106898e-09
5.9407278e-07
6.7231844e-09
5.9277482e-07
5.34981e-09
5.9175573e-07
3.9881941e-09
5.9098813e-07
2.6356783e-09
5.9045236e-07
1.2894064e-09
5.9013519e-07
-5.3583179e-11
5.9002912e-07
-1.3962624e-09
5.901319e-07
-2.74152e-09
5.9044652e-07
-4.0920622e-09
5.9098127e-07
-5.4503168e-09
5.9175028e-07
-6.8183363e-09
5.9277432e-07
-8.1977099e-09
5.9408218e-07
-9.589501e-09
5.9571269e-07
-1.0994227e-08
5.9771786e-07
-1.2411831e-08
6.0016747e-07
-1.3841459e-08
6.0315414e-07
-1.528338e-08
6.0680237e-07
-1.6759099e-08
6.1134877e-07
-1.8359044e-08
6.1753888e-07
-2.0122215e-08
6.270849e-07
-2.1234013e-08
6.3927211e-07
-1.9163719e-08
6.3697183e-07
-1.1886073e-08
5.7377854e-07
-2.9241676e-09
4.0163099e-07
1.3959389e-07
2.2292177e-09
1.1200054e-07
1.0555585e-08
3.4684471e-07
1.9658802e-08
5.4250851e-07
2.3639461e-08
6.3807562e-07
2.3098741e-08
6.5267149e-07
2.1187433e-08
6.3911393e-07
1.9415241e-08
6.2615213e-07
1.7873471e-08
6.1798814e-07
1.6410216e-08
6.1239305e-07
1.4969188e-08
6.0801199e-07
1.3543564e-08
6.0443092e-07
1.2133301e-08
6.0148571e-07
1.0737966e-08
5.9906076e-07
9.3569235e-09
5.9706758e-07
7.9893692e-09
5.9544033e-07
6.6342184e-09
5.9412997e-07
5.2900656e-09
5.9309988e-07
3.9552062e-09
5.9232299e-07
2.6276918e-09
5.9177987e-07
1.3054017e-09
5.9145748e-07
-1.3875796e-11
5.913484e-07
-1.3323607e-09
5.9145039e-07
-2.6521909e-09
5.9176635e-07
-3.975338e-09
5.9230442e-07
-5.3035221e-09
5.9307846e-07
-6.6381318e-09
5.9410893e-07
-7.9801615e-09
5.9542421e-07
-9.3301805e-09
5.9706271e-07
-1.0688353e-08
5.9907604e-07
-1.2054438e-08
6.0153355e-07
-1.3427718e-08
6.0452742e-07
-1.4809998e-08
6.0818465e-07
-1.6227608e-08
6.1276638e-07
-1.7769222e-08
6.1908049e-07
-1.9423904e-08
6.2873958e-07
-2.029148e-08
6.4013969e-07
-1.79658e-08
6.3464615e-07
-1.0867387e-08
5.6668013e-07
-2.6192626e-09
3.9338286e-07
1.3697463e-07
2.0716473e-09
1.0992914e-07
9.7205997e-09
3.3919629e-07
1.84666e-08
5.3376299e-07
2.2656796e-08
6.3388564e-07
2.2420869e-08
6.5290744e-07
2.064959e-08
6.4088518e-07
1.8927179e-08
6.2787453e-07
1.742957e-08
6.1948575e-07
1.6017966e-08
6.1380465e-07
1.4629184e-08
6.0940077e-07
1.3252968e-08
6.0580714e-07
1.1888602e-08
6.0285008e-07
1.0535548e-08
6.0041381e-07
9.1932261e-09
5.984099e-07
7.8610469e-09
5.9677251e-07
6.5382764e-09
5.9545274e-07
5.2239585e-09
5.944142e-07
3.9169092e-09
5.9363004e-07
2.6157491e-09
5.9308103e-07
1.3189574e-09
5.9275427e-07
2.4939598e-11
5.9264241e-07
-1.2679018e-09
5.9274323e-07
-2.5610913e-09
5.9305954e-07
-3.8560059e-09
5.9359933e-07
-5.1538058e-09
5.9437626e-07
-6.4553741e-09
5.954105e-07
-7.7612779e-09
5.9673011e-07
-9.0717683e-09
5.983732e-07
-1.0386833e-08
6.003911e-07
-1.1706227e-08
6.0285295e-07
-1.3029582e-08
6.0585078e-07
-1.4360517e-08
6.0951558e-07
-1.5729737e-08
6.141356e-07
-1.7221184e-08
6.2057194e-07
-1.8773436e-08
6.3029183e-07
-1.9418412e-08
6.4078466e-07
-1.688823e-08
6.3211597e-07
-9.9934932e-09
5.5978539e-07
-2.3824292e-09
3.857718e-07
1.345922e-07
1.9382638e-09
1.0799116e-07
8.9923968e-09
3.3214277e-07
1.7382229e-08
5.2537374e-07
2.1732176e-08
6.2953596e-07
2.1776356e-08
6.5286329e-07
2.0144162e-08
6.4251734e-07
1.8469071e-08
6.295496e-07
1.7008521e-08
6.2094629e-07
1.5641327e-08
6.1517185e-07
1.4298896e-08
6.107432e-07
1.2967406e-08
6.0713862e-07
1.1645306e-08
6.0417218e-07
1.0331867e-08
6.0172725e-07
9.0264716e-09
5.997153e-07
7.7286328e-09
5.9807035e-07
6.4378443e-09
5.9674353e-07
5.1534747e-09
5.9569857e-07
3.8747367e-09
5.9490878e-07
2.6006976e-09
5.9435507e-07
1.3303173e-09
5.9402465e-07
6.2498963e-11
5.9391023e-07
-1.2038522e-09
5.9400958e-07
-2.4697668e-09
5.9432545e-07
-3.7361513e-09
5.9486572e-07
-5.0037344e-09
5.9564385e-07
-6.2730257e-09
5.9667979e-07
-7.5442997e-09
5.9800139e-07
-8.8176243e-09
5.9964652e-07
-1.0092939e-08
6.0166641e-07
-1.1370111e-08
6.0413012e-07
-1.2649274e-08
6.0712994e-07
-1.3936021e-08
6.1080233e-07
-1.5264768e-08
6.1546434e-07
-1.6711972e-08
6.2201914e-07
-1.8166361e-08
6.3174622e-07
-1.8608119e-08
6.4122642e-07
-1.5915406e-08
6.2942326e-07
-9.2382543e-09
5.5310824e-07
-2.1946938e-09
3.7872824e-07
1.3239751e-07
1.8215253e-09
1.0616996e-07
8.3514838e-09
3.2561353e-07
1.6391666e-08
5.1733424e-07
2.0859874e-08
6.250681e-07
2.1161135e-08
6.5256208e-07
1.9667259e-08
6.4401118e-07
1.8038679e-08
6.3117816e-07
1.6609877e-08
6.2237509e-07
1.5281078e-08
6.1650065e-07
1.3979918e-08
6.1204436e-07
1.2689014e-08
6.0842953e-07
1.140585e-08
6.0545534e-07
1.012946e-08
6.0300364e-07
8.8591295e-09
6.0098563e-07
7.5943973e-09
5.9933508e-07
6.334892e-09
5.9800303e-07
5.0802084e-09
5.9695325e-07
3.8298532e-09
5.9615914e-07
2.5832373e-09
5.9560168e-07
1.3396967e-09
5.9526819e-07
9.8528846e-11
5.951514e-07
-1.1409635e-09
5.9524907e-07
-2.3794224e-09
5.9556391e-07
-3.6173908e-09
5.9610368e-07
-4.8552734e-09
5.9688173e-07
-6.0933142e-09
5.9791783e-07
-7.3316011e-09
5.9923967e-07
-8.5701178e-09
6.0088504e-07
-9.8088427e-09
6.0290514e-07
-1.1047833e-08
6.0536911e-07
-1.2287826e-08
6.0836993e-07
-1.353644e-08
6.1205094e-07
-1.4831001e-08
6.167589e-07
-1.6238035e-08
6.2342618e-07
-1.7597986e-08
6.3310617e-07
-1.7853881e-08
6.4148232e-07
-1.503327e-08
6.2660265e-07
-8.580144e-09
5.4665511e-07
-2.0420564e-09
3.7219015e-07
1.3035545e-07
1.7167107e-09
1.0445363e-07
7.7827791e-09
3.195483e-07
1.5483276e-08
5.0963455e-07
2.0034994e-08
6.2051681e-07
2.0571771e-08
6.5202538e-07
1.921531e-08
6.453676e-07
1.7633591e-08
6.3275986e-07
1.6232698e-08
6.2377598e-07
1.4937343e-08
6.17796e-07
1.3673107e-08
6.1330859e-07
1.2419157e-08
6.0968348e-07
1.1171923e-08
6.0670258e-07
9.9301649e-09
6.042454e-07
8.6930466e-09
6.0222275e-07
7.4600768e-09
6.0056805e-07
6.2309529e-09
5.9923216e-07
5.0054184e-09
5.9817879e-07
3.7831914e-09
5.9738136e-07
2.5639403e-09
5.9682094e-07
1.3472889e-09
5.9648484e-07
1.3283908e-10
5.9636585e-07
-1.0797981e-09
5.9646171e-07
-2.2909671e-09
5.9677508e-07
-3.500937e-09
5.9731365e-07
-4.7098776e-09
5.9809067e-07
-5.9178531e-09
5.9912581e-07
-7.1248456e-09
6.0044667e-07
-8.3308255e-09
6.0209102e-07
-9.5358659e-09
6.0411018e-07
-1.074026e-08
6.065735e-07
-1.1945411e-08
6.0957508e-07
-1.3160937e-08
6.1326647e-07
-1.4426181e-08
6.1802415e-07
-1.579564e-08
6.2479564e-07
-1.7063765e-08
6.3437429e-07
-1.7149384e-08
6.4156793e-07
-1.4229556e-08
6.2368282e-07
-8.001708e-09
5.4042726e-07
-1.9144149e-09
3.6610286e-07
1.2844103e-07
1.6209488e-09
1.0283311e-07
7.2745776e-09
3.1389563e-07
1.4647424e-08
5.0226266e-07
1.9253422e-08
6.1591134e-07
2.0005451e-08
6.5127347e-07
1.878516e-08
6.4658786e-07
1.7251409e-08
6.3429358e-07
1.5875768e-08
6.2515161e-07
1.4609815e-08
6.1906196e-07
1.337879e-08
6.1453962e-07
1.215863e-08
6.1090364e-07
1.0944634e-08
6.0791657e-07
9.7352716e-09
6.0545476e-07
8.5295674e-09
6.0342845e-07
7.3269702e-09
6.0177065e-07
6.1271971e-09
6.0043193e-07
4.9300821e-09
5.993759e-07
3.7354883e-09
5.9857596e-07
2.5432709e-09
5.9801315e-07
1.3532682e-09
5.9767484e-07
1.6531133e-10
5.9755381e-07
-1.0207568e-09
5.9764778e-07
-2.2050583e-09
5.9795938e-07
-3.387663e-09
5.9849626e-07
-4.5685775e-09
5.9927158e-07
-5.7477537e-09
6.0030498e-07
-6.9251273e-09
6.0162404e-07
-8.1007036e-09
6.032666e-07
-9.2746831e-09
6.0528416e-07
-1.0447618e-08
6.0774644e-07
-1.1621616e-08
6.1074908e-07
-1.28082e-08
6.1445305e-07
-1.4047798e-08
6.1926374e-07
-1.5381141e-08
6.2612898e-07
-1.6559515e-08
6.3555266e-07
-1.6488953e-08
6.4149737e-07
-1.3493782e-08
6.2068765e-07
-7.488952e-09
5.3442243e-07
-1.8046342e-09
3.6041854e-07
1.266364e-07
1.5325293e-09
1.0130108e-07
6.8177186e-09
3.0861156e-07
1.3876099e-08
4.9520539e-07
1.851172e-08
6.1127636e-07
1.9459922e-08
6.5032543e-07
1.8374095e-08
6.4767365e-07
1.6889863e-08
6.3577777e-07
1.5537752e-08
6.2650371e-07
1.4297914e-08
6.203018e-07
1.3096936e-08
6.157406e-07
1.1907811e-08
6.1209276e-07
1.0724659e-08