/*--------------------------------*- C++ -*----------------------------------*\
  =========                 |
  \\      /  F ield         | OpenFOAM: The Open Source CFD Toolbox
   \\    /   O peration     | Website:  https://openfoam.org
    \\  /    A nd           | Version:  10
     \\/     M anipulation  |
\*---------------------------------------------------------------------------*/
FoamFile
{
    format      ascii;
    class       surfaceScalarField;
    location    "0.22";
    object      phi_0;
}
// * * * * * * * * * * * * * * * * * * * * * * * * * * * * * * * * * * * * * //

dimensions      [1 0 -1 0 0 0 0];

internalField   nonuniform List<scalar> 
7860
(
3.9895938e-08
5.2881209e-07
1.2192701e-08
5.9641104e-07
7.4278851e-09
5.7347256e-07
5.4994058e-09
5.7063619e-07
4.114987e-09
5.7009209e-07
3.2011382e-09
5.696215e-07
2.5591493e-09
5.6934962e-07
2.0793269e-09
5.6918744e-07
1.7093427e-09
5.6907759e-07
1.416673e-09
5.6900027e-07
1.1795222e-09
5.6894474e-07
9.8312742e-10
5.6890398e-07
8.1714493e-10
5.6887356e-07
6.7408449e-10
5.6885063e-07
5.4837278e-10
5.6883328e-07
4.3574911e-10
5.6882019e-07
3.3285979e-10
5.6881045e-07
2.3697743e-10
5.6880344e-07
1.4579904e-10
5.6879874e-07
5.7293499e-11
5.6879607e-07
-3.0422088e-11
5.6879528e-07
-1.1918989e-10
5.6879633e-07
-2.109164e-10
5.6879929e-07
-3.0767909e-10
5.6880432e-07
-4.1185868e-10
5.6881174e-07
-5.2630226e-10
5.6882201e-07
-6.5454373e-10
5.6883581e-07
-8.0111698e-10
5.6885415e-07
-9.7201624e-10
5.6887848e-07
-1.1754029e-09
5.6891097e-07
-1.4227785e-09
5.6895496e-07
-1.7309546e-09
5.6901577e-07
-2.1249098e-09
5.6910156e-07
-2.6445256e-09
5.6922723e-07
-3.372216e-09
5.6943532e-07
-4.463534e-09
5.6979897e-07
-6.0088937e-09
5.7025304e-07
-9.5079123e-09
5.7220673e-07
-2.9575714e-08
5.8877556e-07
5.3913221e-07
5.9672399e-08
4.691397e-07
3.6665858e-08
6.1941758e-07
2.2628057e-08
5.8751036e-07
1.6253475e-08
5.7701077e-07
1.2290426e-08
5.7405514e-07
9.6061918e-09
5.7230573e-07
7.677432e-09
5.7127838e-07
6.2361099e-09
5.7062876e-07
5.1266288e-09
5.7018707e-07
4.248916e-09
5.6987798e-07
3.5376362e-09
5.6965602e-07
2.9486205e-09
5.6949299e-07
2.4508228e-09
5.6937136e-07
2.0217678e-09
5.6927969e-07
1.6447401e-09
5.6921031e-07
1.306962e-09
5.6915797e-07
9.9837589e-10
5.6911904e-07
7.1080273e-10
5.6909102e-07
4.3733636e-10
5.6907221e-07
1.7188458e-10
5.6906152e-07
-9.1199422e-11
5.6905836e-07
-3.5743934e-10
5.6906257e-07
-6.3254785e-10
5.690744e-07
-9.2275781e-10
5.6909453e-07
-1.2352088e-09
5.6912419e-07
-1.5784384e-09
5.6916524e-07
-1.9630444e-09
5.6922042e-07
-2.4026233e-09
5.6929372e-07
-2.9151587e-09
5.6939101e-07
-3.5251434e-09
5.6952095e-07
-4.2669971e-09
5.6969682e-07
-5.1910856e-09
5.6993986e-07
-6.3740339e-09
5.7028451e-07
-7.9345604e-09
5.7078776e-07
-1.0075888e-08
5.7157665e-07
-1.3204144e-08
5.7292723e-07
-1.8134097e-08
5.7518299e-07
-2.8176368e-08
5.82249e-07
-4.5802397e-08
6.0640158e-07
4.9332981e-07
6.000865e-08
4.0913105e-07
5.0487025e-08
6.289392e-07
3.337046e-08
6.0462693e-07
2.481749e-08
5.8556374e-07
1.9323094e-08
5.7954954e-07
1.5331389e-08
5.7629744e-07
1.2360663e-08
5.7424911e-07
1.0101559e-08
5.7288787e-07
8.3407021e-09
5.7194793e-07
6.9349694e-09
5.7128371e-07
5.7882819e-09
5.7080271e-07
4.8338739e-09
5.704474e-07
4.02398e-09
5.7018125e-07
3.3236139e-09
5.6998005e-07
2.7065113e-09
5.6982741e-07
2.1524387e-09
5.6971204e-07
1.6453702e-09
5.6962611e-07
1.1722053e-09
5.6956418e-07
7.2183591e-10
5.6952257e-07
2.8443287e-10
5.6949892e-07
-1.4913132e-10
5.6949192e-07
-5.8778848e-10
5.6950122e-07
-1.0407682e-09
5.6952738e-07
-1.5181176e-09
5.6957188e-07
-2.0313048e-09
5.6963738e-07
-2.5939774e-09
5.6972791e-07
-3.2229752e-09
5.6984941e-07
-3.9397403e-09
5.7001049e-07
-4.7723679e-09
5.7022364e-07
-5.758669e-09
5.7050725e-07
-6.95083e-09
5.7088898e-07
-8.4230498e-09
5.7141208e-07
-1.0284728e-08
5.7214619e-07
-1.2697737e-08
5.7320077e-07
-1.5895237e-08
5.7477415e-07
-2.0239119e-08
5.7727111e-07
-2.6707502e-08
5.8165137e-07
-3.894703e-08
5.9448853e-07
-4.8166512e-08
6.1562107e-07
4.451633e-07
5.4878815e-08
3.5425224e-07
5.7451786e-08
6.2636623e-07
4.0467191e-08
6.2161152e-07
3.0778444e-08
5.9525248e-07
2.4642776e-08
5.8568521e-07
1.9952076e-08
5.8098814e-07
1.6312792e-08
5.7788839e-07
1.3466467e-08
5.7573419e-07
1.1200984e-08
5.7421341e-07
9.3646387e-09
5.7312006e-07
7.8495453e-09
5.723178e-07
6.5772147e-09
5.7171973e-07
5.4897997e-09
5.7126867e-07
4.5439868e-09
5.7092587e-07
3.7066806e-09
5.7066472e-07
2.9520228e-09
5.704667e-07
2.2592948e-09
5.7031884e-07
1.6114002e-09
5.7021208e-07
9.9373286e-10
5.7014024e-07
3.9329697e-10
5.7009936e-07
-2.0201594e-10
5.7008724e-07
-8.0406739e-10
5.7010328e-07
-1.4250928e-09
5.701484e-07
-2.078356e-09
5.7022515e-07
-2.7788999e-09
5.7033792e-07
-3.5444744e-09
5.7049349e-07
-4.3967433e-09
5.7070168e-07
-5.3629177e-09
5.7097666e-07
-6.4780361e-09
5.7133876e-07
-7.7882251e-09
5.7181744e-07
-9.3552661e-09
5.7245602e-07
-1.1262981e-08
5.733198e-07
-1.3627636e-08
5.7451084e-07
-1.6610576e-08
5.7618371e-07
-2.0409578e-08
5.7857315e-07
-2.5291317e-08
5.8215285e-07
-3.2515673e-08
5.8887573e-07
-4.5099337e-08
6.0707219e-07
-4.6548329e-08
6.1707006e-07
3.9861497e-07
4.7965474e-08
3.0628678e-07
6.0075971e-08
6.1425574e-07
4.5399608e-08
6.3628788e-07
3.487488e-08
6.0577721e-07
2.8399429e-08
5.9216066e-07
2.3419253e-08
5.8596831e-07
1.9434015e-08
5.8187363e-07
1.6228977e-08
5.7893923e-07
1.3619622e-08
5.7682277e-07
1.1466542e-08
5.7527314e-07
9.6646098e-09
5.7411973e-07
8.1337846e-09
5.7325056e-07
6.813042e-09
5.7258941e-07
5.6553685e-09
5.7208354e-07
4.6239876e-09
5.716961e-07
3.6896115e-09
5.7140107e-07
2.8284001e-09
5.7118005e-07
2.0204224e-09
5.7102005e-07
1.2484721e-09
5.7091219e-07
4.9712228e-10
5.7085071e-07
-2.4806757e-10
5.7083243e-07
-1.0012614e-09
5.7085647e-07
-1.7770372e-09
5.7092418e-07
-2.591109e-09
5.7103922e-07
-3.4611437e-09
5.7120796e-07
-4.407744e-09
5.7144009e-07
-5.4556889e-09
5.7174963e-07
-6.6355433e-09
5.7215652e-07
-7.9857842e-09
5.72689e-07
-9.555675e-09
5.7338733e-07
-1.1409041e-08
5.7430939e-07
-1.3628695e-08
5.7553945e-07
-1.6322939e-08
5.7720509e-07
-1.9635379e-08
5.7949615e-07
-2.3736282e-08
5.8267406e-07
-2.8928553e-08
5.8734512e-07
-3.6788894e-08
5.9673607e-07
-4.8461619e-08
6.1874492e-07
-4.319294e-08
6.1180138e-07
3.5542203e-07
4.0335715e-08
2.6595108e-07
5.8993375e-08
5.9559809e-07
4.8329351e-08
6.469519e-07
3.7587435e-08
6.1651912e-07
3.0928318e-08
5.9881977e-07
2.5893513e-08
5.9100312e-07
2.1779629e-08
5.8598751e-07
1.8391813e-08
5.8232705e-07
1.5577408e-08
5.7963717e-07
1.3214362e-08
5.7763618e-07
1.1206735e-08
5.7612736e-07
9.4792351e-09
5.7497806e-07
7.9727173e-09
5.7409593e-07
6.6402763e-09
5.7341598e-07
5.4442836e-09
5.7289209e-07
4.3541198e-09
5.7249124e-07
3.3443951e-09
5.7218977e-07
2.3935498e-09
5.719709e-07
1.4827361e-09
5.7182301e-07
5.9489814e-10
5.7173854e-07
-2.8601897e-10
5.7171334e-07
-1.1757862e-09
5.7174624e-07
-2.0905934e-09
5.7183898e-07
-3.0477774e-09
5.719964e-07
-4.0666281e-09
5.7222681e-07
-5.1693344e-09
5.7254279e-07
-6.3821363e-09
5.7296243e-07
-7.7367588e-09
5.7351114e-07
-9.2722102e-09
5.7422445e-07
-1.103709e-08
5.7515221e-07
-1.309262e-08
5.7636492e-07
-1.5516068e-08
5.779629e-07
-1.8404835e-08
5.8009385e-07
-2.18831e-08
5.8297441e-07
-2.6106652e-08
5.8689761e-07
-3.1484972e-08
5.9272344e-07
-3.9651338e-08
6.0490243e-07
-4.9169409e-08
6.2826299e-07
-3.8576866e-08
6.0120884e-07
3.1684517e-07
3.2862318e-08
2.3308878e-07
5.5249105e-08
5.7321132e-07
4.9231237e-08
6.5296977e-07
3.9060616e-08
6.2668974e-07
3.2429867e-08
6.0545052e-07
2.7518083e-08
5.959149e-07
2.3438166e-08
5.9006743e-07
2.0002544e-08
5.8576267e-07
1.7094663e-08
5.8254505e-07
1.4612297e-08
5.8011855e-07
1.2471659e-08
5.78268e-07
1.0605494e-08
5.7684422e-07
8.9595622e-09
5.7574186e-07
7.4896674e-09
5.7488588e-07
6.1594782e-09
5.7422228e-07
4.9387665e-09
5.7371195e-07
3.8019654e-09
5.7332657e-07
2.7269921e-09
5.7304587e-07
1.6942721e-09
5.7285573e-07
6.8590781e-10
5.7274691e-07
-3.1505307e-10
5.727143e-07
-1.3252922e-09
5.7275648e-07
-2.3618864e-09
5.7287558e-07
-3.4429908e-09
5.7307751e-07
-4.5885802e-09
5.733724e-07
-5.821297e-09
5.7377551e-07
-7.1674474e-09
5.7430858e-07
-8.6582027e-09
5.750019e-07
-1.0331049e-08
5.758973e-07
-1.2231564e-08
5.7705273e-07
-1.4415805e-08
5.7854916e-07
-1.6953201e-08
5.8050029e-07
-1.9928597e-08
5.8306925e-07
-2.3442775e-08
5.8648859e-07
-2.7637155e-08
5.9109199e-07
-3.3030094e-08
5.9811638e-07
-4.100641e-08
6.1287875e-07
-4.7683961e-08
6.3494054e-07
-3.3374213e-08
5.8689909e-07
2.8347095e-07
2.6188561e-08
2.0690024e-07
5.0131574e-08
5.4926834e-07
4.8492224e-08
6.5460912e-07
3.948983e-08
6.3569213e-07
3.3076376e-08
6.1186398e-07
2.8411102e-08
6.0058018e-07
2.4492164e-08
5.9398637e-07
2.1117709e-08
5.8913712e-07
1.8206853e-08
5.8545591e-07
1.5680366e-08
5.8264504e-07
1.346911e-08
5.8047925e-07
1.1515902e-08
5.7879743e-07
9.7732271e-09
5.7748453e-07
8.2012908e-09
5.7645781e-07
6.7665594e-09
5.7565701e-07
5.4404856e-09
5.7503802e-07
4.1984195e-09
5.7456864e-07
3.0186863e-09
5.7422561e-07
1.8817884e-09
5.7399262e-07
7.6970191e-10
5.7385899e-07
-3.3475904e-10
5.7381876e-07
-1.4485388e-09
5.7387025e-07
-2.5889327e-09
5.7401597e-07
-3.7741898e-09
5.7426276e-07
-5.0241557e-09
5.7462236e-07
-6.3609874e-09
5.7511234e-07
-7.8099653e-09
5.7575756e-07
-9.4004408e-09
5.7659237e-07
-1.1166944e-08
5.776638e-07
-1.3150452e-08
5.7903624e-07
-1.5400038e-08
5.8079874e-07
-1.797499e-08
5.8307524e-07
-2.0944766e-08
5.8603903e-07
-2.4384562e-08
5.8992839e-07
-2.84299e-08
5.9513733e-07
-3.3685928e-08
6.033724e-07
-4.105721e-08
6.2025003e-07
-4.479261e-08
6.3867594e-07
-2.8202277e-08
5.7030875e-07
2.5526868e-07
2.0570405e-08
1.8632986e-07
4.4581815e-08
5.2525697e-07
4.6641184e-08
6.5254977e-07
3.9151568e-08
6.4318174e-07
3.3082396e-08
6.1793315e-07
2.8716383e-08
6.0494619e-07
2.5037135e-08
5.9766562e-07
2.1803049e-08
5.9237121e-07
1.8958804e-08
5.8830015e-07
1.6448345e-08
5.8515549e-07
1.4218171e-08
5.8270943e-07
1.2222098e-08
5.807935e-07
1.0420341e-08
5.7928629e-07
8.7785403e-09
5.7809961e-07
7.2669388e-09
5.7716861e-07
5.859566e-09
5.764454e-07
4.5335008e-09
5.758947e-07
3.268205e-09
5.754909e-07
2.0449164e-09
5.7521591e-07
8.460918e-10
5.7505782e-07
-3.4511275e-10
5.7500997e-07
-1.5453386e-09
5.7507048e-07
-2.7715213e-09
5.7524215e-07
-4.0413922e-09
5.7553263e-07
-5.3740027e-09
5.7595497e-07
-6.7902904e-09
5.7652863e-07
-8.3136959e-09
5.7728096e-07
-9.9708485e-09
5.7824952e-07
-1.1792332e-08
5.7948528e-07
-1.3813479e-08
5.8105738e-07
-1.6075284e-08
5.8306055e-07
-1.8625599e-08
5.8562556e-07
-2.1517535e-08
5.8893096e-07
-2.4805117e-08
5.9321597e-07
-2.8634538e-08
5.9896675e-07
-3.3653001e-08
6.0839087e-07
-4.013706e-08
6.2673409e-07
-4.1153418e-08
6.3969229e-07
-2.3414429e-08
5.5256977e-07
2.3185425e-07
1.6014909e-08
1.7031499e-07
3.9142252e-08
5.0212968e-07
4.4116352e-08
6.4757568e-07
3.8287541e-08
6.4901055e-07
3.2652047e-08
6.2356864e-07
2.8589973e-08
6.0900826e-07
2.5182243e-08
6.0107335e-07
2.2134927e-08
5.9541852e-07
1.940413e-08
5.9103095e-07
1.6953792e-08
5.8760583e-07
1.474493e-08
5.8491829e-07
1.2741945e-08
5.8279649e-07
1.0912919e-08
5.8111532e-07
9.2293279e-09
5.797832e-07
7.6656921e-09
5.7873225e-07
6.1991602e-09
5.7791193e-07
4.8090807e-09
5.7728478e-07
3.4765752e-09
5.7682341e-07
2.1841176e-09
5.7650837e-07
9.1512518e-10
5.7632681e-07
-3.4643801e-10
5.7627153e-07
-1.6164478e-09
5.7634049e-07
-2.9110119e-09
5.7653672e-07
-4.2468603e-09
5.7686848e-07
-5.6417445e-09
5.7734986e-07
-7.1148528e-09
5.7800174e-07
-8.6872364e-09
5.7885335e-07
-1.0382249e-08
5.7994453e-07
-1.2226001e-08
5.8132903e-07
-1.4247782e-08
5.8307916e-07
-1.648042e-08
5.8529318e-07
-1.8960673e-08
5.8810581e-07
-2.1726685e-08
5.9169697e-07
-2.4818937e-08
5.9630822e-07
-2.8406262e-08
6.0255407e-07
-3.3115671e-08
6.1310028e-07
-3.8540888e-08
6.3215931e-07
-3.7208871e-08
6.3836028e-07
-1.9180056e-08
5.3454095e-07
2.1267419e-07
1.2423109e-08
1.5789192e-07
3.4111979e-08
4.8044087e-07
4.1246933e-08
6.4044076e-07
3.7075897e-08
6.5318158e-07
3.1939449e-08
6.2870508e-07
2.8166585e-08
6.1278113e-07
2.5031113e-08
6.0420882e-07
2.2190582e-08
5.9825905e-07
1.9599923e-08
5.9362161e-07
1.7238548e-08
5.8996721e-07
1.5079819e-08
5.8707702e-07
1.3097417e-08
5.8477889e-07
1.12667e-08
5.8294603e-07
9.5648079e-09
5.8148509e-07
7.9706176e-09
5.8032644e-07
6.4646109e-09
5.7941793e-07
5.0286966e-09
5.787207e-07
3.6459832e-09
5.7820612e-07
2.3005226e-09
5.7785383e-07
9.770403e-10
5.7765029e-07
-3.3934221e-10
5.7758791e-07
-1.6633857e-09
5.7766453e-07
-3.0100195e-09
5.7788335e-07
-4.3946223e-09
5.7825308e-07
-5.8333001e-09
5.7878854e-07
-7.3431603e-09
5.795116e-07
-8.9425709e-09
5.8045276e-07
-1.0651392e-08
5.8165336e-07
-1.2491187e-08
5.8316883e-07
-1.448538e-08
5.8507336e-07
-1.6659291e-08
5.874671e-07
-1.9039814e-08
5.9048634e-07
-2.1652452e-08
5.9430961e-07
-2.45314e-08
5.9918717e-07
-2.7871117e-08
6.0589379e-07
-3.2216617e-08
6.1744578e-07
-3.6510825e-08
6.3645352e-07
-3.3260231e-08
6.3510968e-07
-1.5560829e-08
5.1684155e-07
1.9711336e-07
9.6563834e-09
1.4823558e-07
2.9643303e-08
4.6045404e-07
3.8279572e-08
6.3180453e-07
3.5654792e-08
6.5580635e-07
3.1055769e-08
6.3330409e-07
2.7550575e-08
6.1628632e-07
2.4670301e-08
6.0708909e-07
2.2038777e-08
6.0089058e-07
1.9600043e-08
5.9606034e-07
1.734412e-08
5.9222313e-07
1.5254391e-08
5.8916675e-07
1.3312266e-08
5.8672101e-07
1.1499405e-08
5.8475889e-07
9.7980744e-09
5.8318643e-07
8.1912621e-09
5.8193325e-07
6.6627388e-09
5.8094646e-07
5.1970508e-09
5.8018638e-07
3.7794448e-09
5.7962373e-07
2.3957473e-09
5.7923753e-07
1.0322136e-09
5.7901383e-07
-3.2464319e-10
5.7894477e-07
-1.6882306e-09
5.7902812e-07
-3.0720651e-09
5.7926718e-07
-4.4899517e-09
5.7967097e-07
-5.9561544e-09
5.8025474e-07
-7.4855482e-09
5.8104099e-07
-9.0937418e-09
5.8206095e-07
-1.0797154e-08
5.8335677e-07
-1.2613043e-08
5.8498472e-07
-1.4559497e-08
5.8701981e-07
-1.6655262e-08
5.8956286e-07
-1.8918824e-08
5.927499e-07
-2.1365699e-08
5.9675649e-07
-2.4030012e-08
6.0185148e-07
-2.7127951e-08
6.0899173e-07
-3.1073988e-08
6.2139181e-07
-3.4250994e-08
6.3963052e-07
-2.9512629e-08
6.3037132e-07
-1.2552096e-08
4.9988101e-07
1.8456127e-07
7.5659089e-09
1.4066973e-07
2.578388e-08
4.4223618e-07
3.5385122e-08
6.2220335e-07
3.413407e-08
6.5705741e-07
3.0083981e-08
6.3735417e-07
2.6821917e-08
6.1954838e-07
2.4169476e-08
6.0974153e-07
2.1737278e-08
6.0332278e-07
1.9451757e-08
5.9834586e-07
1.7308553e-08
5.9436633e-07
1.5298779e-08
5.9117652e-07
1.3410046e-08
5.8860975e-07
1.162923e-08
5.8653971e-07
9.9430078e-09
5.8487265e-07
8.3380527e-09
5.835382e-07
6.8012006e-09
5.8248331e-07
5.3195514e-09
5.8166803e-07
3.8805011e-09
5.8106278e-07
2.4717228e-09
5.806463e-07
1.081111e-09
5.8040444e-07
-3.0329953e-10
5.8032918e-07
-1.6934275e-09
5.8041825e-07
-3.1012471e-09
5.80675e-07
-4.5388816e-09
5.8110861e-07
-6.0186829e-09
5.8173454e-07
-7.5532856e-09
5.8257559e-07
-9.1556263e-09
5.8366329e-07
-1.0838909e-08
5.8504005e-07
-1.2616513e-08
5.8676232e-07
-1.4501877e-08
5.8890517e-07
-1.6508193e-08
5.9156918e-07
-1.8647068e-08
5.9488877e-07
-2.0927017e-08
5.9903644e-07
-2.3387196e-08
6.0431166e-07
-2.6257106e-08
6.1186164e-07
-2.9788834e-08
6.2492354e-07
-3.1923029e-08
6.4176472e-07
-2.6088398e-08
6.2453669e-07
-1.0107206e-08
4.8389982e-07
1.7445406e-07
6.0111108e-09
1.3465869e-07
2.2511925e-08
4.257355e-07
3.266543e-08
6.1204993e-07
3.2594157e-08
6.5712869e-07
2.9084157e-08
6.4086416e-07
2.604076e-08
6.2259177e-07
2.3583958e-08
6.1219834e-07
2.1333648e-08
6.0557309e-07
1.9195244e-08
6.0048427e-07
1.7165275e-08
5.963963e-07
1.5240355e-08
5.9310144e-07
1.3412845e-08
5.9043725e-07
1.167375e-08
5.882788e-07
1.0013385e-08
5.8653301e-07
8.4215956e-09
5.8512999e-07
6.8879536e-09
5.8401695e-07
5.4019227e-09
5.8315406e-07
3.9529556e-09
5.8251174e-07
2.5305465e-09
5.8206871e-07
1.1242465e-09
5.8181074e-07
-2.7634755e-10
5.8172977e-07
-1.681617e-09
5.8182352e-07
-3.1019544e-09
5.8209534e-07
-4.5477864e-09
5.8255444e-07
-6.0295824e-09
5.8321634e-07
-7.5578343e-09
5.8410384e-07
-9.1430021e-09
5.8524846e-07
-1.0795407e-08
5.8669246e-07
-1.2525074e-08
5.8849199e-07
-1.4341553e-08
5.9072165e-07
-1.6253542e-08
5.9348117e-07
-1.826735e-08
5.9690258e-07
-2.0387573e-08
6.0115666e-07
-2.2661949e-08
6.0658603e-07
-2.5322155e-08
6.1452184e-07
-2.8441736e-08
6.2804312e-07
-2.9641115e-08
6.429641e-07
-2.3042794e-08
6.1793836e-07
-8.1577045e-09
4.6901473e-07
1.6629636e-07
4.8692845e-09
1.2978948e-07
1.9768886e-08
4.1083607e-07
3.016876e-08
6.0165016e-07
3.1087386e-08
6.5621008e-07
2.8095777e-08
6.4385576e-07
2.524938e-08
6.2543816e-07
2.2955857e-08
6.1449186e-07
2.0865924e-08
6.0766302e-07
1.8863767e-08
6.0248643e-07
1.6942831e-08
5.9831724e-07
1.5103179e-08
5.9494109e-07
1.3340611e-08
5.9219982e-07
1.1649241e-08
5.8997017e-07
1.0022267e-08
5.8815999e-07
8.4521551e-09
5.8670011e-07
6.9308389e-09
5.8553827e-07
5.4498907e-09
5.8463501e-07
4.0006578e-09
5.8396097e-07
2.5743589e-09
5.8349501e-07
1.1621477e-09
5.8322295e-07
-2.448463e-10
5.8313677e-07
-1.6554901e-09
5.8323416e-07
-3.078626e-09
5.8351848e-07
-4.5230421e-09
5.8399885e-07
-5.9974273e-09
5.8469072e-07
-7.5103013e-09
5.8561672e-07
-9.0699115e-09
5.8680807e-07
-1.0684089e-08
5.8830663e-07
-1.2360067e-08
5.9016796e-07
-1.4104287e-08
5.9246587e-07
-1.5921983e-08
5.9529886e-07
-1.7815697e-08
5.9879629e-07
-1.9788909e-08
6.0312987e-07
-2.189967e-08
6.086968e-07
-2.4369819e-08
6.1699199e-07
-2.709143e-08
6.3076473e-07
-2.7477348e-08
6.4335001e-07
-2.0385175e-08
6.1084619e-07
-6.6279394e-09
4.552575e-07
1.5966842e-07
4.0380695e-09
1.2575151e-07
1.7482278e-08
3.9739206e-07
2.7909066e-08
5.9122352e-07
2.9644374e-08
6.544748e-07
2.7142027e-08
6.4635809e-07
2.4474948e-08
6.2810523e-07
2.2315302e-08
6.166515e-07
2.0363165e-08
6.0961516e-07
1.8483883e-08
6.0436571e-07
1.6664839e-08
6.0013628e-07
1.4907769e-08
5.9669816e-07
1.3210808e-08
5.9389678e-07
1.1570291e-08
5.9161069e-07
9.981599e-09
5.8974868e-07
8.4392951e-09
5.8824241e-07
6.9372781e-09
5.8704028e-07
5.468945e-09
5.8610334e-07
4.0273349e-09
5.8540258e-07
2.6052462e-09
5.849171e-07
1.1953307e-09
5.8463286e-07
-2.0983219e-10
5.8454193e-07
-1.6176709e-09
5.84642e-07
-3.0355624e-09
5.8493637e-07
-4.4707658e-09
5.8543406e-07
-5.9303423e-09
5.861503e-07
-7.4210537e-09
5.8710743e-07
-8.9492351e-09
5.8833625e-07
-1.0520641e-08
5.8987804e-07
-1.2140268e-08
5.9178759e-07
-1.3812186e-08
5.9413779e-07
-1.5539095e-08
5.9702577e-07
-1.7321133e-08
6.0057833e-07
-1.9162973e-08
6.0497171e-07
-2.1133066e-08
6.1066689e-07
-2.3432073e-08
6.19291e-07
-2.5777661e-08
6.3311032e-07
-2.5471476e-08
6.4304383e-07
-1.8097003e-08
6.0347172e-07
-5.443536e-09
4.4260403e-07
1.5422488e-07
3.4347897e-09
1.2231683e-07
1.5578287e-08
3.852488e-07
2.5879723e-08
5.8092227e-07
2.8280526e-08
6.5207404e-07
2.6234757e-08
6.4840384e-07
2.3733339e-08
6.3060664e-07
2.1682585e-08
6.1870225e-07
1.9846574e-08
6.1145117e-07
1.8075994e-08
6.0613629e-07
1.635019e-08
6.0186209e-07
1.467109e-08
5.9837726e-07
1.3038277e-08
5.955296e-07
1.1449591e-08
5.9319938e-07
9.9019896e-09
5.9129628e-07
8.3916532e-09
5.8975275e-07
6.9140708e-09
5.8851787e-07
5.4641744e-09
5.8755324e-07
4.0364723e-09
5.8683029e-07
2.6251708e-09
5.863284e-07
1.2242817e-09
5.8603375e-07
-1.7228388e-10
5.859385e-07
-1.5706288e-09
5.8604034e-07
-2.9767862e-09
5.8634253e-07
-4.3966301e-09
5.868539e-07
-5.8357755e-09
5.8758944e-07
-7.2994625e-09
5.8857111e-07
-8.7924228e-09
5.8982921e-07
-1.0318734e-08
5.9140435e-07
-1.1881674e-08
5.9335053e-07
-1.3483576e-08
5.9573969e-07
-1.5125405e-08
5.986676e-07
-1.6806064e-08
6.0225899e-07
-1.8533162e-08
6.0669881e-07
-2.0384348e-08
6.1251807e-07
-2.2529392e-08
6.2143604e-07
-2.4525275e-08
6.351062e-07
-2.3640328e-08
6.4215888e-07
-1.6144294e-08
5.9597568e-07
-4.5360818e-09
4.3099582e-07
1.496888e-07
2.9948136e-09
1.1932216e-07
1.3988441e-08
3.7425546e-07
2.4062867e-08
5.7084807e-07
2.7000985e-08
6.49136e-07
2.5378341e-08
6.5002647e-07
2.3032556e-08
6.3295241e-07
2.107055e-08
6.2066426e-07
1.9331013e-08
6.131907e-07
1.7655267e-08
6.0781203e-07
1.601355e-08
6.035038e-07
1.440678e-08
5.9998403e-07
1.2835301e-08
5.9710107e-07
1.1297894e-08
5.9473678e-07
9.7926083e-09
5.9280156e-07
8.3168228e-09
5.9122853e-07
6.8672778e-09
5.8996741e-07
5.4401646e-09
5.8898035e-07
4.031237e-09
5.8823921e-07
2.6359258e-09
5.8772371e-07
1.2494469e-09
5.8742023e-07
-1.3309679e-10
5.8732104e-07
-1.5166182e-09
5.8742387e-07
-2.9059497e-09
5.8773186e-07
-4.3057427e-09
5.8825369e-07
-5.7203602e-09
5.8900406e-07
-7.1537589e-09
5.9000451e-07
-8.6093635e-09
5.9128481e-07
-1.0089942e-08
5.9288493e-07
-1.15975e-08
5.9485809e-07
-1.3133176e-08
5.9727537e-07
-1.4696846e-08
6.0023127e-07
-1.6287154e-08
6.038493e-07
-1.7915829e-08
6.0832748e-07
-1.9667595e-08
6.1426984e-07
-2.1673627e-08
6.2344207e-07
-2.3347744e-08
6.3678032e-07
-2.1985065e-08
6.407962e-07
-1.4486003e-08
5.8847662e-07
-3.845678e-09
4.2035549e-07
1.4584312e-07
2.6693027e-09
1.1665301e-07
1.2652993e-08
3.6427211e-07
2.2435741e-08
5.610656e-07
2.5804378e-08
6.4576746e-07
2.4572366e-08
6.5125847e-07
2.2375296e-08
6.3514946e-07
2.048659e-08
6.2255296e-07
1.8826444e-08
6.1485085e-07
1.723263e-08
6.0940585e-07
1.5666006e-08
6.0507043e-07
1.4125538e-08
6.015245e-07
1.2611801e-08
5.9861481e-07
1.1124104e-08
5.9622448e-07
9.6611994e-09
5.9426447e-07
8.2213238e-09
5.9266841e-07
6.8021737e-09
5.9138656e-07
5.4009492e-09
5.9038158e-07
4.0144374e-09
5.8962573e-07
2.6391109e-09
5.8909904e-07
1.2712278e-09
5.8878811e-07
-9.306655e-11
5.8868533e-07
-1.4576414e-09
5.8878844e-07
-2.8262812e-09
5.891005e-07
-4.2025831e-09
5.8962999e-07
-5.5898512e-09
5.9039133e-07
-6.9909865e-09
5.9140565e-07
-8.4083776e-09
5.927022e-07
-9.8438047e-09
5.9432036e-07
-1.1298377e-08
5.9631266e-07
-1.2772469e-08
5.9874946e-07
-1.4265392e-08
6.0172419e-07
-1.5776306e-08
6.0536021e-07
-1.7321723e-08
6.098729e-07
-1.8990725e-08
6.1593884e-07
-2.0870249e-08
6.253216e-07
-2.2250187e-08
6.3816026e-07
-2.0496976e-08
6.3904299e-07
-1.3079616e-08
5.8105926e-07
-3.3219185e-09
4.1059779e-07
1.425212e-07
2.4225158e-09
1.1423068e-07
1.1522025e-08
3.55173e-07
2.0974786e-08
5.5161319e-07
2.4685708e-08
6.4205666e-07
2.3813645e-08
6.5213053e-07
2.1760832e-08
6.3720225e-07
1.9934223e-08
6.2437956e-07
1.8339132e-08
6.1644594e-07
1.6815683e-08
6.109293e-07
1.5315723e-08
6.0657039e-07
1.3835565e-08
6.0300466e-07
1.2375624e-08
6.0007475e-07
1.0935437e-08
5.9766467e-07
9.5141677e-09
5.9568574e-07
8.1106374e-09
5.9407194e-07
6.7232519e-09
5.9277395e-07
5.3500011e-09
5.9175483e-07
3.9885115e-09
5.9098721e-07
2.6361238e-09
5.9045143e-07
1.2899808e-09
5.9013426e-07
-5.2880188e-11
5.9002819e-07
-1.3954321e-09
5.9013099e-07
-2.7405645e-09
5.9044563e-07
-4.0909848e-09
5.9098041e-07
-5.4491219e-09
5.9174946e-07
-6.8170292e-09
5.9277356e-07
-8.1962971e-09
5.9408147e-07
-9.58799e-09
5.9571205e-07
-1.0992626e-08
5.977173e-07
-1.241015e-08
6.0016698e-07
-1.3839707e-08
6.0315375e-07
-1.5281569e-08
6.0680207e-07
-1.6757239e-08
6.1134857e-07
-1.8357131e-08
6.1753873e-07
-2.0120243e-08
6.2708471e-07
-2.1232047e-08
6.3927206e-07
-1.9162006e-08
6.3697295e-07
-1.1884965e-08
5.7378222e-07
-2.9237968e-09
4.0163663e-07
1.395974e-07
2.2290725e-09
1.1200183e-07
1.0555076e-08
3.4684747e-07
1.9657924e-08
5.4251076e-07
2.36384e-08
6.3807636e-07
2.3097681e-08
6.5267125e-07
2.1186446e-08
6.3911345e-07
1.941433e-08
6.2615166e-07
1.7872635e-08
6.1798764e-07
1.6409461e-08
6.1239247e-07
1.4968524e-08
6.0801132e-07
1.3542999e-08
6.0443018e-07
1.2132845e-08
6.0148491e-07
1.0737627e-08
5.9905989e-07
9.3567084e-09
5.9706666e-07
7.9892836e-09
5.9543936e-07
6.6342675e-09
5.9412896e-07
5.2902534e-09
5.9309884e-07
3.9555358e-09
5.9232193e-07
2.6281651e-09
5.917788e-07
1.3060197e-09
5.914564e-07
-1.3113089e-11
5.9134733e-07
-1.3314546e-09
5.9144933e-07
-2.6511437e-09
5.9176532e-07
-3.9741533e-09
5.9230342e-07
-5.3022043e-09
5.9307752e-07
-6.6366867e-09
5.9410804e-07
-7.9785959e-09
5.9542338e-07
-9.3285025e-09
5.9706195e-07
-1.0686571e-08
5.9907536e-07
-1.2052564e-08
6.0153298e-07
-1.3425761e-08
6.0452695e-07
-1.4807971e-08
6.0818428e-07
-1.6225519e-08
6.1276612e-07
-1.7767068e-08
6.1908028e-07
-1.942168e-08
6.2873932e-07
-2.0289273e-08
6.4013965e-07
-1.7963896e-08
6.3464757e-07
-1.0866169e-08
5.6668449e-07
-2.6188584e-09
3.9338931e-07
1.3697855e-07
2.0714868e-09
1.099306e-07
9.7200309e-09
3.3919948e-07
1.846561e-08
5.3376569e-07
2.2655583e-08
6.3388661e-07
2.2419646e-08
6.529072e-07
2.0648447e-08
6.4088462e-07
1.8926124e-08
6.2787397e-07
1.7428601e-08
6.1948516e-07
1.6017089e-08
6.1380398e-07
1.4628409e-08
6.094e-07
1.3252306e-08
6.0580628e-07
1.1888063e-08
6.0284915e-07
1.053514e-08
6.0041281e-07
9.1929561e-09
5.9840884e-07
7.860922e-09
5.9677139e-07
6.5383022e-09
5.9545158e-07
5.2241395e-09
5.9441301e-07
3.9172489e-09
5.9362882e-07
2.6162498e-09
5.930798e-07
1.3196204e-09
5.9275303e-07
2.5764743e-11
5.9264118e-07
-1.2669156e-09
5.9274201e-07
-2.5599464e-09
5.9305835e-07
-3.8547059e-09
5.9359818e-07
-5.1523557e-09
5.9437516e-07
-6.4537799e-09
5.9540946e-07
-7.7595468e-09
5.9672915e-07
-9.0699089e-09
5.9837232e-07
-1.0384855e-08
6.0039031e-07
-1.1704141e-08
6.0285226e-07
-1.30274e-08
6.058502e-07
-1.4358252e-08
6.0951513e-07
-1.5727397e-08
6.1413526e-07
-1.7218764e-08
6.2057165e-07
-1.8770936e-08
6.3029149e-07
-1.9415943e-08
6.4078466e-07
-1.6886119e-08
6.3211775e-07
-9.992155e-09
5.5979053e-07
-2.3819892e-09
3.8577915e-07
1.3459656e-07
1.9380871e-09
1.079928e-07
8.9917634e-09
3.3214645e-07
1.7381115e-08
5.2537694e-07
2.1730794e-08
6.2953722e-07
2.177495e-08
6.5286308e-07
2.0142844e-08
6.4251669e-07
1.8467854e-08
6.2954895e-07
1.7007403e-08
6.2094561e-07
1.5640313e-08
6.1517107e-07
1.4297997e-08
6.1074232e-07
1.2966634e-08
6.0713765e-07
1.1644671e-08
6.0417111e-07
1.0331379e-08
6.017261e-07
9.0261381e-09
5.9971408e-07
7.7284614e-09
5.9806907e-07
6.4378412e-09
5.967422e-07
5.153645e-09
5.956972e-07
3.8750842e-09
5.9490738e-07
2.6012252e-09
5.9435365e-07
1.3310262e-09
5.9402323e-07
6.3389388e-11
5.9390882e-07
-1.2027814e-09
5.9400818e-07
-2.4685179e-09
5.9432408e-07
-3.7347281e-09
5.9486439e-07
-5.0021421e-09
5.9564258e-07
-6.2712705e-09
5.9667859e-07
-7.5423895e-09
5.9800027e-07
-8.8155681e-09
5.9964549e-07
-1.0090747e-08
6.0166549e-07
-1.1367795e-08
6.0412931e-07
-1.2646847e-08
6.0712926e-07
-1.3933495e-08
6.1080178e-07
-1.5262151e-08
6.1546392e-07
-1.6709258e-08
6.2201875e-07
-1.8163556e-08
6.3174579e-07
-1.8605363e-08
6.4122647e-07
-1.5913069e-08
6.2942545e-07
-9.2367864e-09
5.5311424e-07
-2.1942156e-09
3.7873658e-07
1.3240234e-07
1.8213311e-09
1.0617181e-07
8.3507802e-09
3.2561775e-07
1.6390416e-08
5.1733802e-07
2.0858307e-08
6.2506969e-07
2.1159525e-08
6.5256192e-07
1.9665743e-08
6.4401044e-07
1.803728e-08
6.3117739e-07
1.6608591e-08
6.2237429e-07
1.527991e-08
6.1649975e-07
1.397888e-08
6.1204335e-07
1.2688118e-08
6.0842841e-07
1.1405108e-08
6.0545412e-07
1.012888e-08
6.0300233e-07
8.8587229e-09
6.0098424e-07
7.5941715e-09
5.9933362e-07
6.3348539e-09
5.9800152e-07
5.0803636e-09
5.9695169e-07
3.8302059e-09
5.9615754e-07
2.5837907e-09
5.9560007e-07
1.3404526e-09
5.9526657e-07
9.9487389e-11
5.9514978e-07
-1.1398031e-09
5.9524747e-07
-2.3780628e-09
5.9556234e-07
-3.6158357e-09
5.9610217e-07
-4.8535282e-09
5.9688027e-07
-6.0913856e-09
5.9791645e-07
-7.3294972e-09
5.9923838e-07
-8.5678483e-09
6.0088385e-07
-9.8064184e-09
6.0290406e-07
-1.1045266e-08
6.0536816e-07
-1.2285131e-08
6.0836912e-07
-1.3533629e-08
6.1205028e-07
-1.4828081e-08
6.1675837e-07
-1.6234998e-08
6.2342567e-07
-1.7594849e-08
6.3310564e-07
-1.7850811e-08
6.4148243e-07
-1.503069e-08
6.2660533e-07
-8.5785363e-09
5.4666209e-07
-2.0415375e-09
3.7219958e-07
1.303608e-07
1.7164979e-09
1.0445571e-07
7.7819994e-09
3.1955311e-07
1.5481877e-08
5.0963898e-07
2.0033221e-08
6.2051879e-07
2.0569934e-08
6.5202529e-07
1.9213573e-08
6.4536676e-07
1.7631987e-08
6.3275895e-07
1.6231223e-08
6.2377505e-07
1.4936002e-08
6.1779498e-07
1.3671912e-08
6.1330744e-07
1.2418121e-08
6.096822e-07
1.1171058e-08
6.0670118e-07
9.9294825e-09
6.042439e-07
8.6925567e-09
6.0222116e-07
7.4597881e-09
6.0056639e-07
6.230873e-09
5.9923043e-07
5.0055535e-09
5.9817701e-07
3.7835464e-09
5.9737955e-07
2.5645186e-09
5.968191e-07
1.3480926e-09
5.9648299e-07
1.3386871e-10
5.9636401e-07
-1.0785434e-09
5.9645989e-07
-2.2894898e-09
5.9677329e-07
-3.499241e-09
5.9731192e-07
-4.7079684e-09
5.98089e-07
-5.9157378e-09
5.9912422e-07
-7.1225327e-09
6.0044517e-07
-8.328325e-09
6.0208964e-07
-9.5331896e-09
6.0410892e-07
-1.073742e-08
6.0657239e-07
-1.1942423e-08
6.0957412e-07
-1.3157814e-08
6.1326567e-07
-1.4422928e-08
6.1802348e-07
-1.579225e-08
6.2479499e-07
-1.7060263e-08
6.3437365e-07
-1.7145974e-08
6.4156814e-07
-1.4226711e-08
6.2368607e-07
-7.9999496e-09
5.4043533e-07
-1.9138525e-09
3.6611348e-07
1.2844695e-07
1.6207161e-09
1.0283545e-07
7.2737156e-09
3.1390112e-07
1.4645864e-08
5.0226783e-07
1.9251424e-08
6.1591378e-07
2.0003362e-08
6.5127347e-07
1.8783178e-08
6.4658691e-07
1.7249577e-08
6.3429251e-07
1.5874084e-08
6.2515053e-07
1.4608281e-08
6.1906078e-07
1.337742e-08
6.145383e-07
1.2157438e-08
6.1090218e-07
1.0943633e-08
6.0791499e-07
9.734473e-09
6.0545306e-07
8.5289828e-09
6.0342665e-07
7.3266092e-09
6.0176876e-07
6.1270681e-09
6.0042997e-07
4.9301918e-09
5.9937389e-07
3.7358423e-09
5.985739e-07
2.543873e-09
5.9801107e-07
1.3541206e-09
5.9767275e-07
1.664151e-10
5.9755171e-07
-1.0194025e-09
5.976457e-07
-2.2034558e-09
5.9795734e-07
-3.3858163e-09
5.9849428e-07
-4.5664924e-09
5.9926967e-07
-5.7454374e-09
6.0030316e-07
-6.9225887e-09
6.0162232e-07
-8.0979533e-09
6.03265e-07
-9.2717333e-09
6.052827e-07
-1.0444482e-08
6.0774514e-07
-1.1618309e-08
6.1074795e-07
-1.2804737e-08
6.144521e-07
-1.4044181e-08
6.1926293e-07
-1.5377363e-08
6.2612818e-07
-1.6555614e-08
6.3555191e-07
-1.6485174e-08
6.414977e-07
-1.3490651e-08
6.2069155e-07
-7.4870315e-09
5.3443171e-07
-1.8040259e-09
3.6043048e-07
1.2664292e-07
1.5322755e-09
1.0130369e-07
6.8167676e-09
3.0861779e-07
1.3874363e-08
4.9521139e-07
1.8509476e-08
6.1127934e-07
1.9457556e-08
6.5032556e-07
1.8371838e-08
6.4767259e-07
1.6887776e-08
6.3577654e-07
1.5535833e-08
6.2650247e-07
1.4296165e-08
6.2030045e-07
1.3095371e-08
6.157391e-07
1.1906444e-08