/*--------------------------------*- C++ -*----------------------------------*\
  =========                 |
  \\      /  F ield         | OpenFOAM: The Open Source CFD Toolbox
   \\    /   O peration     | Website:  https://openfoam.org
    \\  /    A nd           | Version:  10
     \\/     M anipulation  |
\*---------------------------------------------------------------------------*/
FoamFile
{
    format      ascii;
    class       volScalarField;
    location    "0.22";
    object      T;
}
// * * * * * * * * * * * * * * * * * * * * * * * * * * * * * * * * * * * * * //

dimensions      [0 0 0 1 0 0 0];

internalField   nonuniform List<scalar> 
4000
(
303.10135
299.3429
299.99042
300.00082
299.99993
300
300
300
300
300
300
300
300
300
300
300
300
300
300
300
300
300
300
300
300
300
300
300
300
300
300
300
300
300
300
300
300
300
300
300
309.66347
298.49297
299.77921
300.00184
300.0008
299.99999
300
300
300
300
300
300
300
300
300
300
300
300
300
300
300
300
300
300
300
300
300
300
300
300
300
300
300
300
300
300
300
300
300
300
316.0043
298.68457
299.39219
299.9757
300.00406
300.00025
299.99999
300
300
300
300
300
300
300
300
300
300
300
300
300
300
300
300
300
300
300
300
300
300
300
300
300
300
300
300
300
300
300
300
300
321.74239
299.84595
298.98478
299.89491
300.00716
300.00139
300
299.99999
300
300
300
300
300
300
300
300
300
300
300
300
300
300
300
300
300
300
300
300
300
300
300
300
300
300
300
300
300
300
300
300
326.67127
301.70058
298.70997
299.75312
300.00323
300.00379
300.00017
299.99998
300
300
300
300
300
300
300
300
300
300
300
300
300
300
300
300
300
300
300
300
300
300
300
300
300
300
300
300
300
300
300
300
330.68529
303.94819
298.66325
299.56828
299.98427
300.00697
300.00072
299.99997
299.99999
300
300
300
300
300
300
300
300
300
300
300
300
300
300
300
300
300
300
300
300
300
300
300
300
300
300
300
300
300
300
300
333.77469
306.33106
298.87089
299.37366
299.94517
300.00938
300.00181
300
299.99998
300
300
300
300
300
300
300
300
300
300
300
300
300
300
300
300
300
300
300
300
300
300
300
300
300
300
300
300
300
300
300
336.02224
308.66465
299.30781
299.20377
299.88577
300.00891
300.00346
300.00014
299.99997
300
300
300
300
300
300
300
300
300
300
300
300
300
300
300
300
300
300
300
300
300
300
300
300
300
300
300
300
300
300
300
337.57448
310.83813
299.92428
299.08456
299.81047
300.00353
300.00542
300.00046
299.99996
299.99999
300
300
300
300
300
300
300
300
300
300
300
300
300
300
300
300
300
300
300
300
300
300
300
300
300
300
300
300
300
300
338.60276
312.79876
300.66575
299.0305
299.72629
299.99192
300.00725
300.001
299.99996
299.99998
300
300
300
300
300
300
300
300
300
300
300
300
300
300
300
300
300
300
300
300
300
300
300
300
300
300
300
300
300
300
339.26981
314.53363
301.4836
299.046
299.64097
299.97368
300.00841
300.00176
300.00001
299.99997
300
300
300
300
300
300
300
300
300
300
300
300
300
300
300
300
300
300
300
300
300
300
300
300
300
300
300
300
300
300
339.70893
316.05403
302.33945
299.1284
299.56154
299.94925
300.00835
300.00269
300.00012
299.99996
300
300
300
300
300
300
300
300
300
300
300
300
300
300
300
300
300
300
300
300
300
300
300
300
300
300
300
300
300
300
340.01674
317.3834
303.20567
299.27101
299.49359
299.91972
300.00662
300.00368
300.0003
299.99996
299.99999
300
300
300
300
300
300
300
300
300
300
300
300
300
300
300
300
300
300
300
300
300
300
300
300
300
300
300
300
300
340.2559
318.54923
304.06387
299.46543
299.44107
299.88654
300.00294
300.00462
300.00057
299.99996
299.99999
300
300
300
300
300
300
300
300
300
300
300
300
300
300
300
300
300
300
300
300
300
300
300
300
300
300
300
300
300
340.46287
319.57836
304.90268
299.70311
299.40644
299.85133
299.99715
300.00535
300.0009
299.99998
299.99998
300
300
300
300
300
300
300
300
300
300
300
300
300
300
300
300
300
300
300
300
300
300
300
300
300
300
300
300
300
340.65639
320.49465
305.71575
299.97613
299.39095
299.81566
299.98929
300.00575
300.0013
300.00003
299.99998
300
300
300
300
300
300
300
300
300
300
300
300
300
300
300
300
300
300
300
300
300
300
300
300
300
300
300
300
300
340.84452
321.31813
306.49999
300.27754
299.39496
299.78101
299.97947
300.00568
300.00174
300.0001
299.99997
300
300
300
300
300
300
300
300
300
300
300
300
300
300
300
300
300
300
300
300
300
300
300
300
300
300
300
300
300
341.02955
322.06501
307.25437
300.60147
299.41821
299.74866
299.96793
300.00505
300.00218
300.00019
299.99997
299.99999
300
300
300
300
300
300
300
300
300
300
300
300
300
300
300
300
300
300
300
300
300
300
300
300
300
300
300
300
341.21117
322.74813
307.97904
300.94298
299.46001
299.71971
299.95497
300.00378
300.00259
300.00031
299.99998
299.99999
300
300
300
300
300
300
300
300
300
300
300
300
300
300
300
300
300
300
300
300
300
300
300
300
300
300
300
300
341.38812
323.37748
308.67479
301.298
299.51942
299.69505
299.94092
300.00182
300.00293
300.00046
299.99999
299.99999
300
300
300
300
300
300
300
300
300
300
300
300
300
300
300
300
300
300
300
300
300
300
300
300
300
300
300
300
341.55911
323.96084
309.34273
301.66315
299.59536
299.67541
299.92616
299.99915
300.00316
300.00063
300.00001
299.99999
300
300
300
300
300
300
300
300
300
300
300
300
300
300
300
300
300
300
300
300
300
300
300
300
300
300
300
300
341.72317
324.50425
309.98405
302.03563
299.68667
299.66135
299.91104
299.99579
300.00325
300.0008
300.00004
299.99998
300
300
300
300
300
300
300
300
300
300
300
300
300
300
300
300
300
300
300
300
300
300
300
300
300
300
300
300
341.87971
325.01248
310.59997
302.41312
299.79217
299.65327
299.89594
299.99175
300.00318
300.00099
300.00007
299.99998
300
300
300
300
300
300
300
300
300
300
300
300
300
300
300
300
300
300
300
300
300
300
300
300
300
300
300
300
342.0285
325.48935
311.19166
302.79366
299.91069
299.65148
299.8812
299.9871
300.0029
300.00117
300.00012
299.99999
300
300
300
300
300
300
300
300
300
300
300
300
300
300
300
300
300
300
300
300
300
300
300
300
300
300
300
300
342.16962
325.938
311.76025
303.17562
300.0411
299.65615
299.86716
299.98189
300.0024
300.00133
300.00017
299.99999
299.99999
300
300
300
300
300
300
300
300
300
300
300
300
300
300
300
300
300
300
300
300
300
300
300
300
300
300
300
342.30329
326.36106
312.30681
303.55761
300.18228
299.66739
299.85413
299.97621
300.00166
300.00146
300.00024
300
299.99999
300
300
300
300
300
300
300
300
300
300
300
300
300
300
300
300
300
300
300
300
300
300
300
300
300
300
300
342.42989
326.76076
312.83233
303.93849
300.3332
299.68522
299.8424
299.97014
300.00067
300.00156
300.0003
300.00001
299.99999
300
300
300
300
300
300
300
300
300
300
300
300
300
300
300
300
300
300
300
300
300
300
300
300
300
300
300
342.54985
327.13908
313.33779
304.31727
300.49287
299.70958
299.83221
299.96378
299.99943
300.00161
300.00038
300.00002
299.99999
300
300
300
300
300
300
300
300
300
300
300
300
300
300
300
300
300
300
300
300
300
300
300
300
300
300
300
342.66363
327.49774
313.82412
304.69314
300.66035
299.74038
299.8238
299.95723
299.99794
300.00161
300.00045
300.00003
299.99999
300
300
300
300
300
300
300
300
300
300
300
300
300
300
300
300
300
300
300
300
300
300
300
300
300
300
300
342.77165
327.83829
314.29218
305.06541
300.83477
299.77749
299.81737
299.95061
299.99621
300.00153
300.00052
300.00005
299.99999
300
300
300
300
300
300
300
300
300
300
300
300
300
300
300
300
300
300
300
300
300
300
300
300
300
300
300
342.87436
328.16212
314.74282
305.43352
301.01531
299.82073
299.81309
299.94401
299.99424
300.00138
300.00059
300.00007
300
300
300
300
300
300
300
300
300
300
300
300
300
300
300
300
300
300
300
300
300
300
300
300
300
300
300
300
342.97212
328.47046
315.17684
305.79698
301.20122
299.8699
299.81111
299.93755
299.99206
300.00115
300.00064
300.0001
300
300
300
300
300
300
300
300
300
300
300
300
300
300
300
300
300
300
300
300
300
300
300
300
300
300
300
300
343.06531
328.76443
315.59502
306.15541
301.39179
299.92477
299.81156
299.93133
299.98968
300.00083
300.00069
300.00012
300
300
300
300
300
300
300
300
300
300
300
300
300
300
300
300
300
300
300
300
300
300
300
300
300
300
300
300
343.15423
329.04504
315.99807
306.5085
301.58635
299.98511
299.81452
299.92546
299.98714
300.00042
300.00072
300.00015
300.00001
300
300
300
300
300
300
300
300
300
300
300
300
300
300
300
300
300
300
300
300
300
300
300
300
300
300
300
343.23917
329.31318
316.38668
306.85597
301.78432
300.05067
299.82009
299.92003
299.98445
299.99992
300.00074
300.00018
300.00001
300
300
300
300
300
300
300
300
300
300
300
300
300
300
300
300
300
300
300
300
300
300
300
300
300
300
300
343.32039
329.56967
316.7615
307.19763
301.98511
300.12118
299.82831
299.91514
299.98165
299.99932
300.00073
300.00021
300.00002
300
300
300
300
300
300
300
300
300
300
300
300
300
300
300
300
300
300
300
300
300
300
300
300
300
300
300
343.39808
329.81522
317.12314
307.53331
302.18822
300.19639
299.83922
299.91087
299.97878
299.99863
300.0007
300.00023
300.00003
300
300
300
300
300
300
300
300
300
300
300
300
300
300
300
300
300
300
300
300
300
300
300
300
300
300
300
343.47247
330.05049
317.47216
307.86287
302.39315
300.27603
299.85285
299.90732
299.97586
299.99784
300.00064
300.00026
300.00004
300
300
300
300
300
300
300
300
300
300
300
300
300
300
300
300
300
300
300
300
300
300
300
300
300
300
300
343.54369
330.27602
317.80909
308.18622
302.59946
300.35983
299.86921
299.90456
299.97293
299.99697
300.00054
300.00028
300.00005
300
300
300
300
300
300
300
300
300
300
300
300
300
300
300
300
300
300
300
300
300
300
300
300
300
300
300
343.61192
330.49235
318.13442
308.50328
302.80674
300.44753
299.88827
299.90265
299.97004
299.99601
300.00042
300.0003
300.00006
300
300
300
300
300
300
300
300
300
300
300
300
300
300
300
300
300
300
300
300
300
300
300
300
300
300
300
343.67725
330.6999
318.4486
308.81399
303.0146
300.53885
299.91003
299.90167
299.96721
299.99498
300.00027
300.00031
300.00007
300
300
300
300
300
300
300
300
300
300
300
300
300
300
300
300
300
300
300
300
300
300
300
300
300
300
300
343.73981
330.89907
318.75203
309.11829
303.22268
300.63354
299.93445
299.90168
299.96449
299.99388
300.00007
300.00031
300.00008
300.00001
300
300
300
300
300
300
300
300
300
300
300
300
300
300
300
300
300
300
300
300
300
300
300
300
300
300
343.79967
331.09021
319.04508
309.41616
303.43063
300.73134
299.96148
299.90272
299.96191
299.99273
299.99985
300.00031
300.00009
300.00001
300
300
300
300
300
300
300
300
300
300
300
300
300
300
300
300
300
300
300
300
300
300
300
300
300
300
343.8569
331.27359
319.3281
309.70757
303.63816
300.83199
299.99107
299.90484
299.95951
299.99152
299.99958
300.0003
300.0001
300.00001
300
300
300
300
300
300
300
300
300
300
300
300
300
300
300
300
300
300
300
300
300
300
300
300
300
300
343.91156
331.44947
319.60137
309.99248
303.84495
300.93524
300.02315
299.90808
299.95733
299.99028
299.99928
300.00028
300.00011
300.00002
300
300
300
300
300
300
300
300
300
300
300
300
300
300
300
300
300
300
300
300
300
300
300
300
300
300
343.96369
331.61806
319.86517
310.27089
304.05072
301.04083
300.05766
299.91247
299.9554
299.98901
299.99895
300.00024
300.00011
300.00002
300
300
300
300
300
300
300
300
300
300
300
300
300
300
300
300
300
300
300
300
300
300
300
300
300
300
344.0133
331.77951
320.11971
310.54275
304.25522
301.14853
300.09452
299.91805
299.95375
299.98773
299.99858
300.0002
300.00012
300.00002
300
300
300
300
300
300
300
300
300
300
300
300
300
300
300
300
300
300
300
300
300
300
300
300
300
300
344.0604
331.93395
320.36519
310.80805
304.45818
301.2581
300.13364
299.92482
299.95243
299.98645
299.99817
300.00014
300.00012
300.00003
300
300
300
300
300
300
300
300
300
300
300
300
300
300
300
300
300
300
300
300
300
300
300
300
300
300
344.10499
332.08145
320.60176
311.06675
304.65936
301.36929
300.17493
299.9328
299.95145
299.98518
299.99774
300.00007
300.00013
300.00003
300
300
300
300
300
300
300
300
300
300
300
300
300
300
300
300
300
300
300
300
300
300
300
300
300
300
344.14705
332.22207
320.82954
311.3188
304.85853
301.48187
300.21829
299.942
299.95085
299.98395
299.99728
299.99999
300.00012
300.00003
300
300
300
300
300
300
300
300
300
300
300
300
300
300
300
300
300
300
300
300
300
300
300
300
300
300
344.18656
332.3558
321.0486
311.56416
305.05545
301.59561
300.26363
299.95243
299.95066
299.98276
299.9968
299.99989
300.00012
300.00004
300.00001
300
300
300
300
300
300
300
300
300
300
300
300
300
300
300
300
300
300
300
300
300
300
300
300
300
344.22346
332.48263
321.259
311.80276
305.2499
301.71028
300.31082
299.96407
299.9509
299.98163
299.99629
299.99978
300.00011
300.00004
300.00001
300
300
300
300
300
300
300
300
300
300
300
300
300
300
300
300
300
300
300
300
300
300
300
300
300
344.25773
332.60247
321.46073
312.03452
305.44166
301.82565
300.35976
299.97692
299.95159
299.98057
299.99577
299.99966
300.0001
300.00004
300.00001
300
300
300
300
300
300
300
300
300
300
300
300
300
300
300
300
300
300
300
300
300
300
300
300
300
344.28931
332.71525
321.65376
312.25934
305.63051
301.9415
300.41034
299.99097
299.95276
299.9796
299.99523
299.99952
300.00008
300.00005
300.00001
300
300
300
300
300
300
300
300
300
300
300
300
300
300
300
300
300
300
300
300
300
300
300
300
300
344.31816
332.82083
321.83803
312.47713
305.81623
302.0576
300.46242
300.00618
299.95442
299.97873
299.99469
299.99937
300.00006
300.00005
300.00001
300
300
300
300
300
300
300
300
300
300
300
300
300
300
300
300
300
300
300
300
300
300
300
300
300
344.34423
332.91907
322.01341
312.68773
305.99859
302.17372
300.51589
300.02255
299.95658
299.97798
299.99415
299.9992
300.00004
300.00005
300.00001
300
300
300
300
300
300
300
300
300
300
300
300
300
300
300
300
300
300
300
300
300
300
300
300
300
344.3675
333.00982
322.17977
312.89102
306.17737
302.28965
300.57061
300.04003
299.95927
299.97736
299.9936
299.99903
300.00001
300.00005
300.00001
300
300
300
300
300
300
300
300
300
300
300
300
300
300
300
300
300
300
300
300
300
300
300
300
300
344.38795
333.09291
322.33692
313.0868
306.35235
302.40515
300.62645
300.05859
299.96248
299.97689
299.99307
299.99884
299.99997
300.00005
300.00001
300
300
300
300
300
300
300
300
300
300
300
300
300
300
300
300
300
300
300
300
300
300
300
300
300
344.40559
333.1682
322.48466
313.27488
306.52329
302.52
300.68328
300.0782
299.96623
299.97657
299.99255
299.99864
299.99993
300.00004
300.00001
300
300
300
300
300
300
300
300
300
300
300
300
300
300
300
300
300
300
300
300
300
300
300
300
300
344.42045
333.23557
322.62277
313.45504
306.68994
302.63398
300.74095
300.09879
299.97052
299.97642
299.99205
299.99844
299.99989
300.00004
300.00002
300
300
300
300
300
300
300
300
300
300
300
300
300
300
300
300
300
300
300
300
300
300
300
300
300
344.43261
333.29497
322.75101
313.62705
306.85206
302.74685
300.79932
300.12033
299.97535
299.97645
299.99158
299.99823
299.99984
300.00003
300.00002
300
300
300
300
300
300
300
300
300
300
300
300
300
300
300
300
300
300
300
300
300
300
300
300
300
344.44218
333.3464
322.86917
313.79065
307.00939
302.85839
300.85825
300.14276
299.98071
299.97667
299.99113
299.99801
299.99978
300.00002
300.00002
300
300
300
300
300
300
300
300
300
300
300
300
300
300
300
300
300
300
300
300
300
300
300
300
300
344.44929
333.38993
322.97703
313.94557
307.16167
302.96836
300.91757
300.16603
299.98661
299.97709
299.99073
299.99779
299.99972
300.00002
300.00002
300
300
300
300
300
300
300
300
300
300
300
300
300
300
300
300
300
300
300
300
300
300
300
300
300
344.45413
333.42576
323.07444
314.09155
307.30864
303.07654
300.97715
300.19006
299.99303
299.97771
299.99037
299.99757
299.99966
300.00001
300.00002
300
300
300
300
300
300
300
300
300
300
300
300
300
300
300
300
300
300
300
300
300
300
300
300
300
344.45693
333.45421
323.16132
314.22832
307.45001
303.18268
301.03682
300.21479
299.99997
299.97855
299.99006
299.99735
299.99959
299.99999
300.00002
300
300
300
300
300
300
300
300
300
300
300
300
300
300
300
300
300
300
300
300
300
300
300
300
300
344.45792
333.47567
323.23768
314.35566
307.58554
303.28657
301.09644
300.24016
300.00741
299.9796
299.9898
299.99713
299.99952
299.99998
300.00001
300.00001
300
300
300
300
300
300
300
300
300
300
300
300
300
300
300
300
300
300
300
300
300
300
300
300
344.45738
333.4907
323.30363
314.47335
307.71495
303.38797
301.15584
300.26608
300.01533
299.98087
299.9896
299.99692
299.99944
299.99996
300.00001
300.00001
300
300
300
300
300
300
300
300
300
300
300
300
300
300
300
300
300
300
300
300
300
300
300
300
344.45559
333.49992
323.35943
314.58128
307.83802
303.48666
301.21488
300.2925
300.02372
299.98237
299.98947
299.99672
299.99936
299.99994
300.00001
300.00001
300
300
300
300
300
300
300
300
300
300
300
300
300
300
300
300
300
300
300
300
300
300
300
300
344.45283
333.50409
323.40548
314.67937
307.95453
303.58244
301.2734
300.31932
300.03255
299.98409
299.9894
299.99652
299.99928
299.99992
300.00001
300.00001
300
300
300
300
300
300
300
300
300
300
300
300
300
300
300
300
300
300
300
300
300
300
300
300
344.44938
333.50398
323.44233
314.76766
308.0643
303.67511
301.33126
300.34648
300.0418
299.98604
299.98941
299.99634
299.9992
299.9999
300
300.00001
300
300
300
300
300
300
300
300
300
300
300
300
300
300
300
300
300
300
300
300
300
300
300
300
344.44551
333.50046
323.47069
314.84629
308.1672
303.76448
301.38831
300.37389
300.05144
299.98821
299.9895
299.99617
299.99911
299.99988
300
300.00001
300
300
300
300
300
300
300
300
300
300
300
300
300
300
300
300
300
300
300
300
300
300
300
300
344.44146
333.49436
323.49142
314.91556
308.26317
303.8504
301.44442
300.40149
300.06145
299.99061
299.98966
299.99602
299.99903
299.99985
300
300.00001
300
300
300
300
300
300
300
300
300
300
300
300
300
300
300
300
300
300
300
300
300
300
300
300
344.43741
333.48653
323.5055
314.97586
308.35221
303.93274
301.49947
300.42918
300.07179
299.99322
299.98991
299.99588
299.99894
299.99983
299.99999
300
300
300
300
300
300
300
300
300
300
300
300
300
300
300
300
300
300
300
300
300
300
300
300
300
344.43354
333.47772
323.514
315.02774
308.43438
304.0114
301.55334
300.45691
300.08245
299.99604
299.99024
299.99577
299.99886
299.9998
299.99999
300
300
300
300
300
300
300
300
300
300
300
300
300
300
300
300
300
300
300
300
300
300
300
300
300
344.42994
333.46864
323.51806
315.07189
308.50986
304.08634
301.60594
300.4846
300.09338
299.99907
299.99066
299.99567
299.99878
299.99977
299.99998
300
300
300
300
300
300
300
300
300
300
300
300
300
300
300
300
300
300
300
300
300
300
300
300
300
344.42668
333.45985
323.51882
315.1091
308.5789
304.15752
301.65718
300.51219
300.10456
300.00229
299.99117
299.9956
299.9987
299.99974
299.99997
300
300
300
300
300
300
300
300
300
300
300
300
300
300
300
300
300
300
300
300
300
300
300
300
300
344.42378
333.45178
323.51741
315.14028
308.64183
304.22498
301.70699
300.53962
300.11595
300.00571
299.99176
299.99556
299.99862
299.99971
299.99996
300
300
300
300
300
300
300
300
300
300
300
300
300
300
300
300
300
300
300
300
300
300
300
300
300
344.42119
333.44473
323.51485
315.16637
308.69908
304.28879
301.75534
300.56683
300.12754
300.00931
299.99244
299.99554
299.99855
299.99968
299.99996
300
300
300
300
300
300
300
300
300
300
300
300
300
300
300
300
300
300
300
300
300
300
300
300
300
344.41886
333.43882
323.51205
315.18838
308.75112
304.34906
301.80219
300.59378
300.13929
300.01308
299.99321
299.99555
299.99849
299.99965
299.99995
300
300
300
300
300
300
300
300
300
300
300
300
300
300
300
300
300
300
300
300
300
300
300
300
300
344.41667
333.43402
323.50972
315.20727
308.79852
304.40594
301.84753
300.62041
300.15117
300.01701
299.99406
299.99559
299.99843
299.99962
299.99994
300
300
300
300
300
300
300
300
300
300
300
300
300
300
300
300
300
300
300
300
300
300
300
300
300
344.4145
333.43015
323.50839
315.22397
308.84184
304.45963
301.89136
300.64671
300.16316
300.0211
299.99501
299.99566
299.99837
299.99959
299.99993
299.99999
300
300
300
300
300
300
300
300
300
300
300
300
300
300
300
300
300
300
300
300
300
300
300
300
344.41221
333.42693
323.50836
315.23932
308.88168
304.51035
301.93372
300.67264
300.17523
300.02533
299.99603
299.99576
299.99833
299.99956
299.99992
299.99999
300
300
300
300
300
300
300
300
300
300
300
300
300
300
300
300
300
300
300
300
300
300
300
300
344.40967
333.42397
323.50968
315.254
308.91864
304.55833
301.97465
300.69817
300.18736
300.0297
299.99714
299.99589
299.99829
299.99953
299.99991
299.99999
300
300
300
300
300
300
300
300
300
300
300
300
300
300
300
300
300
300
300
300
300
300
300
300
344.40675
333.42084
323.5122
315.26856
308.95327
304.60384
302.01419
300.72329
300.19954
300.03419
299.99832
299.99606
299.99826
299.9995
299.9999
299.99999
300
300
300
300
300
300
300
300
300
300
300
300
300
300
300
300
300
300
300
300
300
300
300
300
344.40335
333.41705
323.51556
315.28333
308.98607
304.64713
302.0524
300.748
300.21173
300.0388
299.99959
299.99625
299.99823
299.99947
299.99989
299.99998
300
300
300
300
300
300
300
300
300
300
300
300
300
300
300
300
300
300
300
300
300
300
300
300
344.39938
333.41217
323.51923
315.29846
309.01746
304.68844
302.08935
300.77227
300.22393
300.04352
300.00092
299.99648
299.99822
299.99945
299.99988
299.99998
300
300
300
300
300
300
300
300
300
300
300
300
300
300
300
300
300
300
300
300
300
300
300
300
344.39478
333.40578
323.52257
315.3139
309.04776
304.72802
302.12512
300.79612
300.23612
300.04833
300.00234
299.99674
299.99822
299.99942
299.99986
299.99998
300
300
300
300
300
300
300
300
300
300
300
300
300
300
300
300
300
300
300
300
300
300
300
300
344.38955
333.39756
323.52489
315.32941
309.07719
304.76605
302.15978
300.81953
300.24829
300.05323
300.00382
299.99703
299.99822
299.9994
299.99985
299.99997
300
300
300
300
300
300
300
300
300
300
300
300
300
300
300
300
300
300
300
300
300
300
300
300
344.38369
333.38727
323.52547
315.34461
309.10584
304.80272
302.19338
300.84252
300.26041
300.05821
300.00537
299.99736
299.99824
299.99938
299.99984
299.99997
300
300
300
300
300
300
300
300
300
300
300
300
300
300
300
300
300
300
300
300
300
300
300
300
344.37725
333.37478
323.52366
315.35898
309.1337
304.83812
302.22598
300.86507
300.27249
300.06325
300.00698
299.99771
299.99827
299.99936
299.99983
299.99997
300
300
300
300
300
300
300
300
300
300
300
300
300
300
300
300
300
300
300
300
300
300
300
300
344.3703
333.36006
323.51889
315.37192
309.16064
304.87235
302.25763
300.88719
300.28449
300.06837
300.00866
299.9981
299.99831
299.99934
299.99982
299.99996
299.99999
300
300
300
300
300
300
300
300
300
300
300
300
300
300
300
300
300
300
300
300
300
300
300
344.36292
333.34321
323.51073
315.38281
309.18645
304.90543
302.28837
300.90889
300.29642
300.07353
300.0104
299.99852
299.99836
299.99933
299.99981
299.99996
299.99999
300
300
300
300
300
300
300
300
300
300
300
300
300
300
300
300
300
300
300
300
300
300
300
344.35523
333.3244
323.4989
315.39105
309.21084
304.93734
302.31821
300.93014
300.30827
300.07875
300.01219
299.99897
299.99842
299.99932
299.9998
299.99996
299.99999
300
300
300
300
300
300
300
300
300
300
300
300
300
300
300
300
300
300
300
300
300
300
300
344.34733
333.30388
323.48329
315.39608
309.23346
304.96801
302.34717
300.95097
300.32001
300.084
300.01403
299.99945
299.99849
299.99931
299.99979
299.99995
299.99999
300
300
300
300
300
300
300
300
300
300
300
300
300
300
300
300
300
300
300
300
300
300
300
344.33934
333.28195
323.46396
315.39745
309.25396
304.99736
302.37524
300.97135
300.33164
300.08927
300.01592
299.99996
299.99858
299.99931
299.99978
299.99995
299.99999
300
300
300
300
300
300
300
300
300
300
300
300
300
300
300
300
300
300
300
300
300
300
300
344.33137
333.25899
323.44111
315.39481
309.27194
305.02526
302.40243
300.99131
300.34316
300.09458
300.01786
300.0005
299.99867
299.99931
299.99977
299.99994
299.99999
300
300
300
300
300
300
300
300
300
300
300
300
300
300
300
300
300
300
300
300
300
300
300
344.32353
333.23532
323.4151
315.38807
309.2871
305.05151
302.42862
301.01076
300.35451
300.09988
300.01983
300.00106
299.99878
299.99931
299.99977
299.99994
299.99999
300
300
300
300
300
300
300
300
300
300
300
300
300
300
300
300
300
300
300
300
300
300
300
344.31601
333.21135
323.38597
315.37664
309.29898
305.07626
302.45431
301.03016
300.366
300.10532
300.02189
300.00167
299.9989
299.99932
299.99976
299.99994
299.99999
300
300
300
300
300
300
300
300
300
300
300
300
300
300
300
300
300
300
300
300
300
300
300
344.30865
333.18805
323.35717
315.36369
309.30775
305.09721
302.47644
301.04697
300.37599
300.11008
300.02371
300.00221
299.99902
299.99933
299.99975
299.99993
299.99999
300
300
300
300
300
300
300
300
300
300
300
300
300
300
300
300
300
300
300
300
300
300
300
344.30151
333.15676
323.30845
315.33265
309.31281
305.12671
302.51125
301.0746
300.39289
300.11835
300.02696
300.00322
299.99924
299.99935
299.99975
299.99993
299.99998
300
300
300
300
300
300
300
300
300
300
300
300
300
300
300
300
300
300
300
300
300
300
300
)
;

boundaryField
{
    wall
    {
        type            fixedValue;
        value           uniform 350;
    }
    sides
    {
        type            zeroGradient;
    }
    frontAndBack
    {
        type            empty;
    }
    inlet
    {
        type            fixedValue;
        value           uniform 300;
    }
    outlet
    {
        type            zeroGradient;
    }
}


// ************************************************************************* //
