/*--------------------------------*- C++ -*----------------------------------*\
  =========                 |
  \\      /  F ield         | OpenFOAM: The Open Source CFD Toolbox
   \\    /   O peration     | Website:  https://openfoam.org
    \\  /    A nd           | Version:  10
     \\/     M anipulation  |
\*---------------------------------------------------------------------------*/
FoamFile
{
    format      ascii;
    class       volVectorField;
    location    "0.22";
    object      U;
}
// * * * * * * * * * * * * * * * * * * * * * * * * * * * * * * * * * * * * * //

dimensions      [0 1 -1 0 0 0 0];

internalField   nonuniform List<vector> 
4000
(
(0 0.018637437 0.47773158)
(0 0.023509966 0.50886061)
(0 0.0081668263 0.50052522)
(0 0.0056145903 0.50033634)
(0 0.0042546071 0.50025746)
(0 0.003254928 0.50016898)
(0 0.0025560811 0.50011969)
(0 0.0020545815 0.50009013)
(0 0.0016765896 0.5000698)
(0 0.0013822624 0.50005539)
(0 0.001147227 0.50004499)
(0 0.00095514459 0.50003733)
(0 0.00079476085 0.5000316)
(0 0.00065809998 0.50002727)
(0 0.00053933349 0.50002398)
(0 0.00043408055 0.50002151)
(0 0.00033895363 0.50001966)
(0 0.00025125067 0.50001833)
(0 0.00016873884 0.50001744)
(0 8.9496037e-05 0.50001693)
(0 1.1788724e-05 0.50001678)
(0 -6.6035332e-05 0.50001698)
(0 -0.00014563853 0.50001754)
(0 -0.00022878558 0.5000185)
(0 -0.00031745418 0.50001991)
(0 -0.00041396561 0.50002185)
(0 -0.00052115654 0.50002446)
(0 -0.00064261833 0.50002793)
(0 -0.00078304488 0.50003252)
(0 -0.00094876246 0.50003863)
(0 -0.0011485808 0.50004688)
(0 -0.0013951584 0.50005824)
(0 -0.001707242 0.50007414)
(0 -0.0021151806 0.50009709)
(0 -0.0026748886 0.50013482)
(0 -0.0034684777 0.50020238)
(0 -0.0045607274 0.50027144)
(0 -0.0065849306 0.50043365)
(0 -0.017659367 0.50675405)
(0 -0.01359008 0.47975566)
(0 0.03743263 0.44796933)
(0 0.050955638 0.53232615)
(0 0.021969222 0.5080429)
(0 0.016135561 0.50357318)
(0 0.012416007 0.50242316)
(0 0.0095158942 0.50162298)
(0 0.0075205816 0.5011566)
(0 0.0060698788 0.50086591)
(0 0.0049645879 0.50066799)
(0 0.004100176 0.50052899)
(0 0.0034076925 0.50042902)
(0 0.0028401896 0.50035552)
(0 0.002365293 0.50030063)
(0 0.0019599187 0.50025923)
(0 0.0016071062 0.50022788)
(0 0.0012940597 0.50020422)
(0 0.0010108542 0.50018661)
(0 0.00074955129 0.50017394)
(0 0.00050357658 0.50016543)
(0 0.00026726018 0.5001606)
(0 3.5481309e-05 0.50015917)
(0 -0.00019663982 0.50016107)
(0 -0.00043401278 0.50016642)
(0 -0.00068184825 0.50017553)
(0 -0.00094597689 0.50018894)
(0 -0.0012332283 0.5002075)
(0 -0.001551927 0.50023244)
(0 -0.0019125795 0.50026556)
(0 -0.0023288671 0.50030948)
(0 -0.0028191302 0.5003681)
(0 -0.0034087441 0.50044735)
(0 -0.0041340853 0.50055671)
(0 -0.0050482331 0.50071127)
(0 -0.0062310534 0.50093662)
(0 -0.0078314299 0.5012944)
(0 -0.010125155 0.50191055)
(0 -0.013106348 0.50282514)
(0 -0.017425776 0.5060812)
(0 -0.03875858 0.5252681)
(0 -0.027894457 0.45021676)
(0 0.039888197 0.40982073)
(0 0.061427963 0.54930817)
(0 0.031983594 0.52188195)
(0 0.024355383 0.51008055)
(0 0.019193529 0.50658856)
(0 0.014977093 0.50452806)
(0 0.0120067 0.50327137)
(0 0.0097719417 0.50245836)
(0 0.0080365774 0.50190104)
(0 0.0066649606 0.50150866)
(0 0.0055568699 0.50122544)
(0 0.0046427705 0.50101668)
(0 0.003873924 0.50086053)
(0 0.003214934 0.50074261)
(0 0.0026394657 0.50065323)
(0 0.0021274652 0.50058571)
(0 0.0016632553 0.50053545)
(0 0.0012342152 0.50049924)
(0 0.00082983722 0.50047492)
(0 0.00044102194 0.50046109)
(0 5.9527305e-05 0.50045701)
(0 -0.00032250874 0.50046245)
(0 -0.00071299559 0.50047773)
(0 -0.0011203132 0.50050376)
(0 -0.0015538073 0.50054206)
(0 -0.0020243732 0.50059503)
(0 -0.0025452101 0.50066617)
(0 -0.0031328514 0.50076054)
(0 -0.003808628 0.50088554)
(0 -0.0046007801 0.5010521)
(0 -0.0055476632 0.50127675)
(0 -0.0067032584 0.50158561)
(0 -0.0081447676 0.50202081)
(0 -0.0099762806 0.50265076)
(0 -0.012370612 0.50361513)
(0 -0.015715726 0.50519925)
(0 -0.01987225 0.50785402)
(0 -0.025185928 0.51641227)
(0 -0.047416574 0.53912738)
(0 -0.030853433 0.41488086)
(0 0.034791488 0.36173041)
(0 0.063838673 0.55456343)
(0 0.039380149 0.53747134)
(0 0.030083191 0.51849261)
(0 0.024112435 0.51197728)
(0 0.01927946 0.50849942)
(0 0.01573608 0.50626421)
(0 0.012954137 0.50475539)
(0 0.010743665 0.50370436)
(0 0.0089679736 0.50295605)
(0 0.0075140309 0.50241099)
(0 0.0063021712 0.5020067)
(0 0.0052745888 0.5017029)
(0 0.0043880259 0.50147267)
(0 0.0036096651 0.50129765)
(0 0.0029141221 0.50116517)
(0 0.0022812898 0.50106637)
(0 0.0016948071 0.50099511)
(0 0.0011409324 0.50094719)
(0 0.00060768544 0.50091993)
(0 8.4164593e-05 0.50091186)
(0 -0.00044005173 0.50092257)
(0 -0.0009754456 0.50095268)
(0 -0.0015330879 0.5010039)
(0 -0.0021252587 0.50107923)
(0 -0.0027661647 0.50118325)
(0 -0.0034728456 0.50132267)
(0 -0.0042663797 0.50150716)
(0 -0.0051735477 0.50175074)
(0 -0.0062291296 0.50207387)
(0 -0.0074789943 0.50250703)
(0 -0.0089853745 0.50309723)
(0 -0.010835641 0.50391916)
(0 -0.013136356 0.50508921)
(0 -0.016023176 0.50680687)
(0 -0.019898674 0.50946753)
(0 -0.024730756 0.51427494)
(0 -0.031112598 0.52824698)
(0 -0.050318972 0.54407225)
(0 -0.028438074 0.37238213)
(0 0.027424153 0.31484383)
(0 0.062314549 0.55024088)
(0 0.044614172 0.55146761)
(0 0.033981736 0.5274881)
(0 0.027463795 0.51772239)
(0 0.022454936 0.51291976)
(0 0.01863661 0.50973133)
(0 0.015528009 0.50749251)
(0 0.013006153 0.50589979)
(0 0.010942214 0.50474673)
(0 0.009224809 0.50389595)
(0 0.0077750847 0.50325897)
(0 0.0065330533 0.50277689)
(0 0.0054522886 0.50240949)
(0 0.0044967405 0.50212897)
(0 0.003637942 0.50191589)
(0 0.0028529475 0.50175656)
(0 0.0021228164 0.50164139)
(0 0.0014314528 0.50156383)
(0 0.00076469515 0.50151966)
(0 0.00010957739 0.50150655)
(0 -0.00054633256 0.50152385)
(0 -0.0012155354 0.50157255)
(0 -0.0019111791 0.50165535)
(0 -0.002647743 0.50177693)
(0 -0.0034418085 0.50194444)
(0 -0.004313004 0.50216827)
(0 -0.0052852159 0.50246333)
(0 -0.0063881969 0.50285085)
(0 -0.0076597237 0.50336149)
(0 -0.0091480617 0.50403989)
(0 -0.010915649 0.50495258)
(0 -0.013049324 0.50620239)
(0 -0.015652884 0.50794419)
(0 -0.018814184 0.51040435)
(0 -0.022894732 0.51405491)
(0 -0.028176004 0.52114555)
(0 -0.035705998 0.53932649)
(0 -0.050475695 0.54155615)
(0 -0.024085935 0.33056068)
(0 0.01983779 0.27519863)
(0 0.057989603 0.53974702)
(0 0.04736336 0.56256472)
(0 0.036477229 0.53660448)
(0 0.029635784 0.52350704)
(0 0.02467584 0.51740317)
(0 0.020774028 0.51336285)
(0 0.017509651 0.51044434)
(0 0.014814209 0.50832399)
(0 0.012566771 0.50676157)
(0 0.010665809 0.50559253)
(0 0.0090393287 0.50470773)
(0 0.0076297121 0.50403224)
(0 0.0063910961 0.50351385)
(0 0.0052870198 0.50311584)
(0 0.0042880125 0.50281216)
(0 0.0033698439 0.50258429)
(0 0.0025121758 0.50241914)
(0 0.0016974826 0.50230769)
(0 0.00091017547 0.50224411)
(0 0.00013587575 0.50222518)
(0 -0.00063925144 0.50225)
(0 -0.0014291128 0.50231993)
(0 -0.0022482645 0.50243869)
(0 -0.0031126037 0.50261274)
(0 -0.0040401193 0.50285185)
(0 -0.0050517881 0.50317018)
(0 -0.0061726777 0.5035877)
(0 -0.0074333394 0.50413262)
(0 -0.0088717034 0.50484486)
(0 -0.010535038 0.50578144)
(0 -0.012481637 0.50702463)
(0 -0.014791718 0.50869761)
(0 -0.017567066 0.510982)
(0 -0.020861665 0.51412017)
(0 -0.024971785 0.51873042)
(0 -0.030506787 0.52823006)
(0 -0.038628154 0.54872428)
(0 -0.048507485 0.5339864)
(0 -0.019066611 0.29394297)
(0 0.013083053 0.24255612)
(0 0.051798321 0.52520143)
(0 0.047708797 0.57024851)
(0 0.037756514 0.5455248)
(0 0.030849955 0.52928849)
(0 0.026073158 0.52180147)
(0 0.02223771 0.51699766)
(0 0.018953546 0.51347315)
(0 0.016193478 0.51086458)
(0 0.013849696 0.50891204)
(0 0.011835704 0.50743222)
(0 0.010088915 0.50630008)
(0 0.0085567054 0.50542787)
(0 0.007196324 0.50475346)
(0 0.0059729698 0.50423248)
(0 0.0048578235 0.503833)
(0 0.0038266957 0.50353204)
(0 0.0028589132 0.50331324)
(0 0.0019363869 0.50316523)
(0 0.0010428319 0.50308063)
(0 0.000163103 0.50305534)
(0 -0.00071742852 0.50308822)
(0 -0.0016134633 0.50318099)
(0 -0.0025403079 0.50333837)
(0 -0.0035145296 0.5035685)
(0 -0.0045546349 0.50388368)
(0 -0.005681864 0.50430148)
(0 -0.0069211331 0.50484656)
(0 -0.0083021495 0.50555316)
(0 -0.0098609862 0.50646907)
(0 -0.011641841 0.50766145)
(0 -0.013696961 0.50922515)
(0 -0.016095856 0.51129813)
(0 -0.018933826 0.51407977)
(0 -0.022242244 0.51783889)
(0 -0.026261914 0.52346819)
(0 -0.031845746 0.53537542)
(0 -0.039756755 0.55589731)
(0 -0.044892374 0.52282684)
(0 -0.014090272 0.26265133)
(0 0.0077699741 0.21554275)
(0 0.044825208 0.50801135)
(0 0.046254641 0.57438098)
(0 0.038034572 0.55375108)
(0 0.031287284 0.53496032)
(0 0.026767845 0.52603004)
(0 0.02311631 0.52053808)
(0 0.019920534 0.5164878)
(0 0.017181961 0.51344112)
(0 0.014813373 0.51113005)
(0 0.012746339 0.50935886)
(0 0.010928806 0.50799027)
(0 0.0093148696 0.50692669)
(0 0.0078665599 0.50609819)
(0 0.0065521318 0.50545416)
(0 0.0053446274 0.50495778)
(0 0.0042209348 0.50458224)
(0 0.0031609218 0.50430831)
(0 0.0021466844 0.50412253)
(0 0.0011618969 0.50401611)
(0 0.00019124285 0.50398416)
(0 -0.00078013423 0.5040253)
(0 -0.0017671596 0.50414158)
(0 -0.0027852895 0.50433865)
(0 -0.0038510965 0.50462616)
(0 -0.0049828461 0.50501861)
(0 -0.0062011585 0.50553662)
(0 -0.007529774 0.5062088)
(0 -0.0089963781 0.50707445)
(0 -0.010633769 0.50818775)
(0 -0.012481528 0.50962394)
(0 -0.014584792 0.51148807)
(0 -0.016999761 0.51392902)
(0 -0.019808102 0.51715555)
(0 -0.023025785 0.52148068)
(0 -0.0268753 0.52818318)
(0 -0.032347254 0.54222063)
(0 -0.039399802 0.56050326)
(0 -0.040326206 0.50908937)
(0 -0.0097076036 0.23586535)
(0 0.0040047927 0.19355853)
(0 0.037898783 0.48948912)
(0 0.043685958 0.57524043)
(0 0.037562981 0.56084483)
(0 0.031153471 0.54036089)
(0 0.026913561 0.53001108)
(0 0.023513622 0.52390141)
(0 0.020479966 0.5194121)
(0 0.017826571 0.51598723)
(0 0.015489471 0.51335826)
(0 0.013418337 0.51132337)
(0 0.011571816 0.50973671)
(0 0.0099117443 0.50849361)
(0 0.0084058851 0.50751842)
(0 0.0070264075 0.50675576)
(0 0.0057490382 0.50616492)
(0 0.0045524932 0.50571604)
(0 0.003417852 0.50538749)
(0 0.0023279981 0.50516408)
(0 0.0012671143 0.50503581)
(0 0.00022022424 0.5049971)
(0 -0.00082726103 0.50504638)
(0 -0.0018899957 0.50518599)
(0 -0.0029830693 0.50542235)
(0 -0.0041225063 0.50576641)
(0 -0.0053257219 0.50623453)
(0 -0.0066120385 0.50684982)
(0 -0.0080032679 0.50764409)
(0 -0.0095242682 0.50866068)
(0 -0.01120364 0.50995868)
(0 -0.013075252 0.51161939)
(0 -0.015176624 0.51375548)
(0 -0.017550395 0.51652272)
(0 -0.02026072 0.52013216)
(0 -0.023315471 0.52496398)
(0 -0.026956564 0.53274067)
(0 -0.032198097 0.54839106)
(0 -0.037990366 0.56254571)
(0 -0.035412255 0.49380078)
(0 -0.0061999224 0.21326212)
(0 0.0015509142 0.1761362)
(0 0.03149873 0.47076454)
(0 0.040530934 0.57338641)
(0 0.036557611 0.56659814)
(0 0.030636202 0.54537808)
(0 0.026670685 0.53370415)
(0 0.02354226 0.52703171)
(0 0.020709747 0.52218774)
(0 0.018182484 0.51845044)
(0 0.015916996 0.51555015)
(0 0.013878856 0.51328469)
(0 0.012036625 0.51150345)
(0 0.010360003 0.51009738)
(0 0.0088227293 0.50898699)
(0 0.0074012713 0.50811355)
(0 0.0060745109 0.50743352)
(0 0.0048234709 0.50691476)
(0 0.0036309081 0.50653379)
(0 0.0024809416 0.50627402)
(0 0.0013586895 0.50612452)
(0 0.00024992762 0.50607914)
(0 -0.00085926191 0.50613617)
(0 -0.0019828565 0.50629817)
(0 -0.0031351651 0.50657219)
(0 -0.0043312322 0.5069702)
(0 -0.0055871713 0.50751006)
(0 -0.0069205321 0.50821678)
(0 -0.0083507063 0.50912459)
(0 -0.0098992665 0.5102798)
(0 -0.011590224 0.51174496)
(0 -0.013451306 0.51360544)
(0 -0.015512583 0.51597868)
(0 -0.017804682 0.51902326)
(0 -0.020374555 0.52295017)
(0 -0.023229446 0.52823629)
(0 -0.026649671 0.5370411)
(0 -0.031559545 0.55365947)
(0 -0.035899403 0.56231144)
(0 -0.030550071 0.47790237)
(0 -0.0035902221 0.19462192)
(0 7.6509965e-05 0.16252833)
(0 0.025869324 0.45260428)
(0 0.037157801 0.56943446)
(0 0.035189402 0.57098849)
(0 0.029875648 0.54996239)
(0 0.026172241 0.53711328)
(0 0.023304592 0.52991162)
(0 0.020686378 0.52478328)
(0 0.018307081 0.52079708)
(0 0.016138316 0.51767279)
(0 0.014158785 0.51521187)
(0 0.01234563 0.51326213)
(0 0.010675768 0.51171235)
(0 0.0091285817 0.51048083)
(0 0.0076848123 0.50950678)
(0 0.0063266488 0.50874485)
(0 0.0050376505 0.50816129)
(0 0.0038025257 0.50773133)
(0 0.0026069239 0.50743738)
(0 0.0014372022 0.50726777)
(0 0.00028019267 0.50721598)
(0 -0.00087704562 0.50728014)
(0 -0.0020475065 0.507463)
(0 -0.0032444123 0.50777208)
(0 -0.0044815219 0.50822013)
(0 -0.005773349 0.50882606)
(0 -0.0071353933 0.50961627)
(0 -0.0085843866 0.51062664)
(0 -0.010138475 0.51190541)
(0 -0.011817149 0.51351731)
(0 -0.013642202 0.51554999)
(0 -0.015636858 0.51812322)
(0 -0.01782175 0.52139518)
(0 -0.020229269 0.52558031)
(0 -0.02287299 0.53128345)
(0 -0.026070722 0.54103193)
(0 -0.030562177 0.557935)
(0 -0.033420197 0.56019568)
(0 -0.025991434 0.46208312)
(0 -0.0017642075 0.17948499)
(0 -0.0007182188 0.15191152)
(0 0.02110674 0.43544019)
(0 0.033816902 0.56393355)
(0 0.033601397 0.57408872)
(0 0.028972476 0.55409314)
(0 0.025517781 0.5402627)
(0 0.022884245 0.53255163)
(0 0.020476808 0.52719074)
(0 0.018253368 0.52301107)
(0 0.016194512 0.51970662)
(0 0.014289509 0.51708409)
(0 0.012522592 0.51499209)
(0 0.010876861 0.51331871)
(0 0.0093366765 0.51198132)
(0 0.0078867501 0.51091813)
(0 0.006512477 0.51008276)
(0 0.0051999761 0.50944053)
(0 0.0039360149 0.50896586)
(0 0.0027079305 0.50864049)
(0 0.0015035048 0.50845228)
(0 0.00031082746 0.5083944)
(0 -0.00088185759 0.50846492)
(0 -0.0020863516 0.50866671)
(0 -0.003314589 0.5090076)
(0 -0.0045788567 0.50950086)
(0 -0.005891911 0.5101661)
(0 -0.0072670969 0.51103059)
(0 -0.0087184576 0.51213118)
(0 -0.010260813 0.51351719)
(0 -0.011909487 0.51525447)
(0 -0.013680933 0.51743166)
(0 -0.015592313 0.52016891)
(0 -0.017656099 0.52362215)
(0 -0.019893771 0.52801705)
(0 -0.022331488 0.53411157)
(0 -0.025310646 0.54468218)
(0 -0.029321146 0.5612083)
(0 -0.030784287 0.55659371)
(0 -0.021889907 0.44678135)
(0 -0.00056354533 0.16726419)
(0 -0.0010703628 0.14358846)
(0 0.017201834 0.41948645)
(0 0.030663835 0.55734301)
(0 0.031911508 0.57602004)
(0 0.028000749 0.55776269)
(0 0.024780835 0.54317828)
(0 0.022347666 0.53497445)
(0 0.020136672 0.52941602)
(0 0.018067112 0.52508838)
(0 0.016122605 0.5216422)
(0 0.014300526 0.51888887)
(0 0.012590715 0.51667928)
(0 0.010981304 0.51490187)
(0 0.0094608499 0.51347393)
(0 0.0080175667 0.51233342)
(0 0.006639791 0.51143361)
(0 0.0053160781 0.51073938)
(0 0.0040352312 0.51022475)
(0 0.0027863178 0.50987109)
(0 0.0015586284 0.50966598)
(0 0.0003416176 0.50960243)
(0 -0.00087516683 0.50967844)
(0 -0.0021022145 0.50989697)
(0 -0.0033500653 0.51026601)
(0 -0.0046294515 0.51079915)
(0 -0.0059513318 0.51151638)
(0 -0.007326924 0.51244537)
(0 -0.0087677075 0.51362345)
(0 -0.010285432 0.51510031)
(0 -0.011891746 0.51694212)
(0 -0.013598532 0.51923763)
(0 -0.015417798 0.52210601)
(0 -0.017355536 0.52570022)
(0 -0.019426358 0.53026736)
(0 -0.021673878 0.53673237)
(0 -0.024442659 0.54797175)
(0 -0.027938142 0.56352328)
(0 -0.028162234 0.55186729)
(0 -0.018319647 0.43226177)
(0 0.00017018903 0.15741349)
(0 -0.0011534825 0.13700775)
(0 0.014077114 0.40482344)
(0 0.027778647 0.55003719)
(0 0.030207776 0.57692993)
(0 0.02701287 0.56097752)
(0 0.024014383 0.54588396)
(0 0.021746725 0.53720704)
(0 0.019711152 0.53147224)
(0 0.017786641 0.52703228)
(0 0.015954693 0.52347696)
(0 0.014218305 0.52061979)
(0 0.012571491 0.51831486)
(0 0.011006304 0.51645156)
(0 0.0095146861 0.51494766)
(0 0.0080878193 0.5137414)
(0 0.0067166242 0.51278612)
(0 0.0053918746 0.5120467)
(0 0.0041042948 0.51149702)
(0 0.0028446369 0.51111835)
(0 0.0016037007 0.51089816)
(0 0.00037233575 0.51082937)
(0 -0.00085856506 0.51090996)
(0 -0.0020981373 0.5111429)
(0 -0.003355499 0.51153629)
(0 -0.0046398298 0.5121038)
(0 -0.0059603395 0.51286554)
(0 -0.0073262407 0.51384929)
(0 -0.0087466728 0.51509239)
(0 -0.010230666 0.51664444)
(0 -0.011786748 0.51857137)
(0 -0.013423061 0.52096137)
(0 -0.015147452 0.52393176)
(0 -0.016961087 0.52763306)
(0 -0.018875601 0.53234493)
(0 -0.020954708 0.53915995)
(0 -0.023523952 0.55089417)
(0 -0.026495628 0.56496256)
(0 -0.02566528 0.5463343)
(0 -0.015292289 0.4186724)
(0 0.00057511969 0.14947015)
(0 -0.001085908 0.13172967)
(0 0.011621932 0.39144251)
(0 0.025189172 0.54230982)
(0 0.028549004 0.57697269)
(0 0.026042226 0.5637573)
(0 0.023253776 0.54840262)
(0 0.021119933 0.53927786)
(0 0.019235686 0.53337678)
(0 0.017443175 0.52885071)
(0 0.015717826 0.52521298)
(0 0.014065836 0.52227491)
(0 0.012484117 0.51989403)
(0 0.010967634 0.51796109)
(0 0.0095109447 0.51639461)
(0 0.0081076429 0.51513342)
(0 0.0067508379 0.51413126)
(0 0.0054332533 0.51335323)
(0 0.0041473594 0.51277335)
(0 0.002885485 0.51237294)
(0 0.0016398783 0.51213948)
(0 0.00040275053 0.51206589)
(0 -0.00083367975 0.51215013)
(0 -0.0020772138 0.51239519)
(0 -0.0033355838 0.51280912)
(0 -0.0046164819 0.51340557)
(0 -0.0059274827 0.51420458)
(0 -0.0072759768 0.51523376)
(0 -0.0086690463 0.51653018)
(0 -0.010113403 0.518143)
(0 -0.011615028 0.52013757)
(0 -0.013179141 0.52260109)
(0 -0.014810412 0.52564854)
(0 -0.016506777 0.52942983)
(0 -0.018280203 0.53426791)
(0 -0.020214599 0.54141093)
(0 -0.022596067 0.55345709)
(0 -0.025054661 0.56563068)
(0 -0.023356103 0.54026066)
(0 -0.012778206 0.40607514)
(0 0.00076035249 0.1430399)
(0 -0.00094407955 0.1274086)
(0 0.0097175143 0.37927762)
(0 0.022891951 0.53438136)
(0 0.02697038 0.57629343)
(0 0.02510755 0.56612927)
(0 0.022520237 0.55075494)
(0 0.020493946 0.5412146)
(0 0.018736718 0.53514927)
(0 0.017061194 0.53055468)
(0 0.015434058 0.5268556)
(0 0.013862478 0.52385551)
(0 0.012345213 0.5214151)
(0 0.010879296 0.51942661)
(0 0.0094612024 0.51780944)
(0 0.0080864135 0.51650314)
(0 0.0067498294 0.51546201)
(0 0.0054458333 0.51465155)
(0 0.0041684344 0.51404606)
(0 0.0029113902 0.51362703)
(0 0.0016682921 0.51338204)
(0 0.00043263512 0.51330407)
(0 -0.00080210304 0.51339109)
(0 -0.0020424561 0.51364602)
(0 -0.003294852 0.51407686)
(0 -0.0045656065 0.51469712)
(0 -0.0058608144 0.5155266)
(0 -0.0071862638 0.5165926)
(0 -0.0085472876 0.51793171)
(0 -0.0099486934 0.51959247)
(0 -0.011394468 0.52163943)
(0 -0.012887646 0.52415861)
(0 -0.01443062 0.52726257)
(0 -0.016019558 0.53110342)
(0 -0.017669276 0.5360567)
(0 -0.019481716 0.54350286)
(0 -0.021687039 0.55567795)
(0 -0.023657247 0.56563772)
(0 -0.021262758 0.5338579)
(0 -0.010724884 0.39446954)
(0 0.00080620276 0.13778941)
(0 -0.00077548714 0.12378351)
(0 0.0082512063 0.36823189)
(0 0.020866711 0.52641132)
(0 0.025489794 0.57502002)
(0 0.024217629 0.56812303)
(0 0.021824907 0.5529579)
(0 0.01988591 0.54304191)
(0 0.018233009 0.53680946)
(0 0.016659149 0.53215667)
(0 0.015120758 0.52841209)
(0 0.013624025 0.52536505)
(0 0.012168749 0.52287861)
(0 0.010753357 0.52084648)
(0 0.0093756549 0.51918889)
(0 0.0080325423 0.51784612)
(0 0.0067203392 0.51677311)
(0 0.0054348023 0.51593582)
(0 0.0041712593 0.51530893)
(0 0.0029247275 0.51487418)
(0 0.0016900095 0.5146193)
(0 0.00046177491 0.51453735)
(0 -0.00076533796 0.5146263)
(0 -0.0019966946 0.51488904)
(0 -0.0032375319 0.51533344)
(0 -0.0044929281 0.51597278)
(0 -0.0057676775 0.51682656)
(0 -0.007066199 0.51792165)
(0 -0.0083923838 0.51929409)
(0 -0.0097495314 0.5209917)
(0 -0.011140131 0.52307816)
(0 -0.012565661 0.52563826)
(0 -0.014026999 0.52878243)
(0 -0.015519845 0.53266851)
(0 -0.017063579 0.53773156)
(0 -0.018774284 0.54545219)
(0 -0.020814413 0.55757919)
(0 -0.022329938 0.56508864)
(0 -0.019390344 0.52728809)
(0 -0.0090695535 0.38381515)
(0 0.00076917619 0.13344631)
(0 -0.00060811749 0.12066414)
(0 0.007123817 0.35819647)
(0 0.019085428 0.51851189)
(0 0.024113109 0.57326147)
(0 0.023374914 0.56976795)
(0 0.021172235 0.55502439)
(0 0.019305905 0.54478024)
(0 0.017737257 0.53837567)
(0 0.016250464 0.53366927)
(0 0.014791175 0.52989054)
(0 0.013362994 0.52680828)
(0 0.011966151 0.52428664)
(0 0.010599947 0.52222067)
(0 0.0092630468 0.52053131)
(0 0.0079533762 0.51915951)
(0 0.0066683454 0.5180608)
(0 0.0054048175 0.51720165)
(0 0.0041592235 0.51655713)
(0 0.0029276648 0.51610925)
(0 0.0017060089 0.51584595)
(0 0.00048997391 0.51576038)
(0 -0.0007247601 0.51585053)
(0 -0.0019425096 0.5161192)
(0 -0.0031674519 0.51657412)
(0 -0.0044035811 0.51722833)
(0 -0.0056545772 0.51810096)
(0 -0.0069237206 0.51921842)
(0 -0.0082137491 0.52061615)
(0 -0.00952681 0.52234127)
(0 -0.010864321 0.52445663)
(0 -0.01222672 0.52704585)
(0 -0.013613992 0.53021784)
(0 -0.015022477 0.53413998)
(0 -0.016477106 0.53931097)
(0 -0.018103071 0.54727327)
(0 -0.019987893 0.55918527)
(0 -0.021087191 0.56407827)
(0 -0.017729611 0.52067195)
(0 -0.0077475019 0.37404914)
(0 0.00068768512 0.1297953)
(0 -0.00045689179 0.11791528)
(0 0.0062527624 0.34906193)
(0 0.017517963 0.51075962)
(0 0.022838427 0.57110918)
(0 0.022578036 0.57109204)
(0 0.020562382 0.55696384)
(0 0.018758962 0.54644569)
(0 0.017257566 0.53986403)
(0 0.015844567 0.53510437)
(0 0.014455138 0.53129911)
(0 0.013089061 0.52819049)
(0 0.011746543 0.52564215)
(0 0.010427369 0.52355023)
(0 0.0091307059 0.52183624)
(0 0.0078551837 0.52044165)
(0 0.0065990244 0.51932252)
(0 0.0053599607 0.5184458)
(0 0.0041353254 0.51778694)
(0 0.002922133 0.51732825)
(0 0.0017171671 0.51705784)
(0 0.00051706004 0.51696897)
(0 -0.0006815939 0.51705964)
(0 -0.0018821914 0.5173326)
(0 -0.0030879885 0.51779539)
(0 -0.0043020514 0.51846079)
(0 -0.0055271286 0.51934757)
(0 -0.0067655776 0.52048168)
(0 -0.0080192414 0.52189798)
(0 -0.0092894209 0.52364295)
(0 -0.010576815 0.52577873)
(0 -0.011881228 0.52838787)
(0 -0.01320224 0.53157865)
(0 -0.01453774 0.53553187)
(0 -0.015918558 0.54081094)
(0 -0.017473384 0.54897819)
(0 -0.019211474 0.5605209)
(0 -0.019934447 0.5626894)
(0 -0.016263277 0.5140971)
(0 -0.0066975165 0.36509809)
(0 0.00058690875 0.12666988)
(0 -0.00032827591 0.11544269)
(0 0.0055723041 0.34072442)
(0 0.016135366 0.50320467)
(0 0.021659458 0.5686389)
(0 0.021823596 0.5721214)
(0 0.019992932 0.55878285)
(0 0.018246632 0.54805045)
(0 0.01679866 0.54128829)
(0 0.015447799 0.53647272)
(0 0.014119721 0.53264555)
(0 0.012809525 0.52951706)
(0 0.011517053 0.52694854)
(0 0.010242292 0.52483691)
(0 0.0089846455 0.52310405)
(0 0.0077432024 0.52169181)
(0 0.0065167655 0.52055669)
(0 0.0053037335 0.51966605)
(0 0.0041021613 0.51899568)
(0 0.0029098163 0.51852815)
(0 0.0017242544 0.51825176)
(0 0.00054288882 0.51815988)
(0 -0.00063690093 0.51825052)
(0 -0.001817722 0.51852634)
(0 -0.0030020469 0.51899472)
(0 -0.0041921646 0.51966819)
(0 -0.005390063 0.52056517)
(0 -0.0065973707 0.52171118)
(0 -0.0078152589 0.52314055)
(0 -0.0090444368 0.52489924)
(0 -0.010285163 0.5270488)
(0 -0.011536919 0.52967095)
(0 -0.012799254 0.53287435)
(0 -0.014072289 0.53685687)
(0 -0.0153926 0.54224482)
(0 -0.016886668 0.55057689)
(0 -0.018485237 0.56160987)
(0 -0.018870973 0.56099261)
(0 -0.014970497 0.50762509)
(0 -0.0058649969 0.35688545)
(0 0.00048259259 0.1239434)
(0 -0.00022360209 0.11318195)
(0 0.0050319579 0.33308904)
(0 0.014911533 0.49587799)
(0 0.020567939 0.56591315)
(0 0.021107433 0.57287996)
(0 0.01946013 0.56048589)
(0 0.017768216 0.54960331)
(0 0.01636285 0.5426598)
(0 0.015064166 0.5377838)
(0 0.013789826 0.53393697)
(0 0.012529743 0.5307932)
(0 0.011283125 0.5282094)
(0 0.010049958 0.52608286)
(0 0.0088297044 0.5243357)
(0 0.0076217243 0.52290998)
(0 0.0064252188 0.52176251)
(0 0.0052390829 0.52086098)
(0 0.0040619367 0.52018146)
(0 0.0028921567 0.51970677)
(0 0.0017279373 0.51942539)
(0 0.00056734549 0.51933075)
(0 -0.00059157794 0.51942088)
(0 -0.0017507759 0.51969836)
(0 -0.0029120689 0.52017043)
(0 -0.0040771081 0.52084937)
(0 -0.0052472747 0.5217533)
(0 -0.0064236374 0.52290734)
(0 -0.0076068825 0.52434541)
(0 -0.0087973303 0.52611304)
(0 -0.0099950118 0.52827135)
(0 -0.011199314 0.53090149)
(0 -0.012410034 0.53411369)
(0 -0.013629993 0.5381261)
(0 -0.01490096 0.54362332)
(0 -0.016341797 0.55207725)
(0 -0.017806819 0.56247425)
(0 -0.01789223 0.559047)
(0 -0.013829753 0.50129757)
(0 -0.005203273 0.34933621)
(0 0.00038394419 0.12152107)
(0 -0.00014134164 0.11108972)
(0 0.0045940659 0.32607123)
(0 0.013823772 0.48879697)
(0 0.019555183 0.56298352)
(0 0.020425396 0.57338955)
(0 0.018959734 0.56207583)
(0 0.017321696 0.5511102)
(0 0.015950812 0.5439877)
(0 0.01469597 0.53904578)
(0 0.013468701 0.5351797)
(0 0.012253529 0.53202373)
(0 0.011048818 0.52942823)
(0 0.009854405 0.52729044)
(0 0.008669701 0.52553252)
(0 0.007494202 0.52409662)
(0 0.0063273653 0.52293974)
(0 0.0051684445 0.52202979)
(0 0.0040164926 0.52134309)
(0 0.0028703688 0.52086266)
(0 0.0017287851 0.52057709)
(0 0.00059034609 0.52047992)
(0 -0.00054636204 0.52056916)
(0 -0.0016827347 0.52084733)
(0 -0.0028200592 0.52132153)
(0 -0.0039594762 0.52200384)
(0 -0.0051018935 0.52291209)
(0 -0.0062479635 0.52407109)
(0 -0.0073980385 0.52551446)
(0 -0.0085522078 0.5272874)
(0 -0.0097104268 0.52945077)
(0 -0.010872154 0.53208544)
(0 -0.012037634 0.5353045)
(0 -0.013212658 0.53934895)
(0 -0.014443346 0.54495471)
(0 -0.015836093 0.55348535)
(0 -0.017172514 0.56313408)
(0 -0.016991614 0.55690158)
(0 -0.012820588 0.49514137)
(0 -0.0046737982 0.34237977)
(0 0.00029579448 0.11933316)
(0 -7.8584855e-05 0.10913698)
(0 0.0042312099 0.31959697)
(0 0.012852791 0.48196958)
(0 0.018612953 0.55989278)
(0 0.019773754 0.57367012)
(0 0.018487546 0.56355454)
(0 0.016904393 0.5525748)
(0 0.015562174 0.54527913)
(0 0.014344314 0.54026554)
(0 0.013158355 0.5363793)
(0 0.0119835 0.53321302)
(0 0.010817075 0.53060835)
(0 0.0096586726 0.52846201)
(0 0.0085075887 0.52669604)
(0 0.007363361 0.52525254)
(0 0.0062255961 0.52408857)
(0 0.0050937974 0.5231722)
(0 0.0039673409 0.52247992)
(0 0.0028454605 0.5219949)
(0 0.0017272797 0.52170584)
(0 0.00061183647 0.52160632)
(0 -0.00050184187 0.52169438)
(0 -0.0016147082 0.52197247)
(0 -0.0027276237 0.52244755)
(0 -0.0038413282 0.52313154)
(0 -0.0049563712 0.52404207)
(0 -0.0060731057 0.52520368)
(0 -0.0071916699 0.52664976)
(0 -0.008312039 0.52842536)
(0 -0.0094341975 0.53059119)
(0 -0.010557788 0.53322818)
(0 -0.011683651 0.53645357)
(0 -0.012820638 0.54053315)
(0 -0.014018174 0.54624511)
(0 -0.015366051 0.55480579)
(0 -0.016578046 0.56360732)
(0 -0.016161665 0.55459677)
(0 -0.011924495 0.48917253)
(0 -0.0042456349 0.33595155)
(0 0.00022012767 0.11732906)
(0 -3.1964835e-05 0.10730413)
(0 0.0039238195 0.31360218)
(0 0.011982388 0.47539742)
(0 0.017733884 0.55667662)
(0 0.019149358 0.57374006)
(0 0.018039705 0.5649233)
(0 0.016513399 0.55399907)
(0 0.015195929 0.54653956)
(0 0.014009484 0.54144882)
(0 0.012859911 0.53754057)
(0 0.011721361 0.53436494)
(0 0.010589962 0.53175286)
(0 0.009464993 0.5295999)
(0 0.0083456039 0.5278279)
(0 0.0072313119 0.52637877)
(0 0.0061217953 0.52520952)
(0 0.0050167226 0.52428831)
(0 0.0039157039 0.52359173)
(0 0.0028182572 0.52310305)
(0 0.001723826 0.52281106)
(0 0.00063179092 0.52270938)
(0 -0.00045847135 0.52279604)
(0 -0.0015475634 0.52307344)
(0 -0.0026360135 0.52354844)
(0 -0.0037242547 0.52423283)
(0 -0.0048125734 0.52514406)
(0 -0.0059011174 0.52630651)
(0 -0.0069899021 0.52775342)
(0 -0.0080788729 0.5295298)
(0 -0.0091681098 0.53169635)
(0 -0.010257514 0.53433443)
(0 -0.011348627 0.53756671)
(0 -0.012453308 0.5416849)
(0 -0.013623106 0.54749883)
(0 -0.014927855 0.55604199)
(0 -0.016019072 0.56391005)
(0 -0.015394875 0.55216588)
(0 -0.011125271 0.48339937)
(0 -0.0038945445 0.32999361)
(0 0.00015714903 0.11547252)
(0 1.8010677e-06 0.1055776)
(0 0.0036581312 0.30803176)
(0 0.011199033 0.4690778)
(0 0.016911615 0.55336502)
(0 0.018549658 0.57361644)
(0 0.017612828 0.56618321)
(0 0.016145841 0.55538372)
(0 0.014850729 0.54777305)
(0 0.013691229 0.54260037)
(0 0.012573859 0.53866761)
(0 0.011468142 0.53548292)
(0 0.010368869 0.53286453)
(0 0.0092749562 0.53070632)
(0 0.0081853993 0.52892975)
(0 0.0070996552 0.52747645)
(0 0.0060174194 0.52630332)
(0 0.0049384616 0.5253785)
(0 0.0038625547 0.52467862)
(0 0.0027894265 0.52418704)
(0 0.0017187632 0.52389258)
(0 0.00065021006 0.52378889)
(0 -0.00041658526 0.523874)
(0 -0.0014819548 0.52415026)
(0 -0.0025461729 0.52462446)
(0 -0.003609445 0.52530828)
(0 -0.0046718712 0.52621905)
(0 -0.0057334682 0.52738106)
(0 -0.0067941965 0.5288275)
(0 -0.0078540296 0.53060341)
(0 -0.0089131805 0.53276963)
(0 -0.0099718551 0.53540831)
(0 -0.011032371 0.53864878)
(0 -0.012109426 0.54280906)
(0 -0.013255435 0.54871871)
(0 -0.014517712 0.55719653)
(0 -0.015491505 0.56405667)
(0 -0.014684174 0.54963644)
(0 -0.010409027 0.47782481)
(0 -0.0036019173 0.32445464)
(0 0.00010602838 0.11373768)
(0 2.5633026e-05 0.10394747)
(0 0.0034245488 0.30283852)
(0 0.010491428 0.46300528)
(0 0.016140753 0.5499833)
(0 0.017972646 0.57331517)
(0 0.017204046 0.56733542)
(0 0.01579903 0.5567286)
(0 0.014525066 0.54898252)
(0 0.013388969 0.54372407)
(0 0.012300259 0.53976391)
(0 0.01122438 0.53656991)
(0 0.010154673 0.53394588)
(0 0.0090896508 0.53178331)
(0 0.0080281605 0.5300032)
(0 0.0069695754 0.5285468)
(0 0.0059135716 0.52737082)
(0 0.0048599719 0.52644332)
(0 0.0038086564 0.52574095)
(0 0.0027595021 0.52524704)
(0 0.0017123747 0.52495049)
(0 0.0006671179 0.52484494)
(0 -0.00037641577 0.52492841)
(0 -0.0014183549 0.52520321)
(0 -0.0024587861 0.5256761)
(0 -0.0034977515 0.52635865)
(0 -0.0045352268 0.52726815)
(0 -0.0055711542 0.52842884)
(0 -0.0066054871 0.52987393)
(0 -0.0076382653 0.53164861)
(0 -0.008669852 0.53381397)
(0 -0.0097007835 0.53645332)
(0 -0.010734207 0.53970379)
(0 -0.011787396 0.54390933)
(0 -0.012912352 0.54990646)
(0 -0.014132054 0.5582714)
(0 -0.014991673 0.56406016)
(0 -0.014023185 0.5470313)
(0 -0.0097640251 0.47244804)
(0 -0.0033537049 0.31928965)
(0 6.5406467e-05 0.11210613)
(0 4.198075e-05 0.10240603)
(0 0.0032163889 0.29798201)
(0 0.0098501037 0.45717266)
(0 0.015416749 0.54655296)
(0 0.017416754 0.57285121)
(0 0.016810987 0.56838129)
(0 0.015470535 0.55803304)
(0 0.014217398 0.55017)
(0 0.013101927 0.54482308)
(0 0.012038881 0.54083247)
(0 0.01099026 0.53762852)