/*--------------------------------*- C++ -*----------------------------------*\
  =========                 |
  \\      /  F ield         | OpenFOAM: The Open Source CFD Toolbox
   \\    /   O peration     | Website:  https://openfoam.org
    \\  /    A nd           | Version:  10
     \\/     M anipulation  |
\*---------------------------------------------------------------------------*/
FoamFile
{
    format      ascii;
    class       volVectorField;
    location    "0.22";
    object      U_0;
}
// * * * * * * * * * * * * * * * * * * * * * * * * * * * * * * * * * * * * * //

dimensions      [0 1 -1 0 0 0 0];

internalField   nonuniform List<vector> 
4000
(
(0 0.018637435 0.47773158)
(0 0.023509962 0.5088606)
(0 0.0081668233 0.50052522)
(0 0.0056145874 0.50033634)
(0 0.0042546041 0.50025746)
(0 0.0032549252 0.50016898)
(0 0.0025560786 0.50011969)
(0 0.0020545793 0.50009013)
(0 0.001676588 0.5000698)
(0 0.0013822613 0.50005539)
(0 0.0011472266 0.50004499)
(0 0.000955145 0.50003733)
(0 0.0007947621 0.5000316)
(0 0.00065810211 0.50002727)
(0 0.00053933656 0.50002398)
(0 0.0004340846 0.50002151)
(0 0.00033895869 0.50001966)
(0 0.00025125676 0.50001833)
(0 0.00016874596 0.50001744)
(0 8.950421e-05 0.50001693)
(0 1.1797917e-05 0.50001678)
(0 -6.6025147e-05 0.50001698)
(0 -0.00014562739 0.50001754)
(0 -0.00022877357 0.5000185)
(0 -0.00031744132 0.5000199)
(0 -0.00041395198 0.50002185)
(0 -0.00052114225 0.50002446)
(0 -0.00064260347 0.50002793)
(0 -0.00078302958 0.50003252)
(0 -0.00094874683 0.50003863)
(0 -0.001148565 0.50004688)
(0 -0.0013951426 0.50005824)
(0 -0.0017072264 0.50007414)
(0 -0.0021151653 0.50009709)
(0 -0.0026748739 0.50013482)
(0 -0.003468464 0.50020238)
(0 -0.0045607151 0.50027144)
(0 -0.0065849191 0.50043365)
(0 -0.017659356 0.50675404)
(0 -0.013590074 0.47975567)
(0 0.037432625 0.44796933)
(0 0.050955628 0.53232615)
(0 0.021969212 0.5080429)
(0 0.016135552 0.50357319)
(0 0.012415998 0.50242316)
(0 0.009515885 0.50162298)
(0 0.0075205732 0.5011566)
(0 0.0060698717 0.50086591)
(0 0.0049645823 0.50066799)
(0 0.0041001722 0.50052899)
(0 0.0034076908 0.50042902)
(0 0.0028401902 0.50035552)
(0 0.0023652962 0.50030062)
(0 0.0019599247 0.50025922)
(0 0.001607115 0.50022787)
(0 0.0012940716 0.50020421)
(0 0.0010108692 0.50018661)
(0 0.00074956948 0.50017394)
(0 0.00050359799 0.50016543)
(0 0.00026728481 0.5001606)
(0 3.550908e-05 0.50015917)
(0 -0.00019660896 0.50016107)
(0 -0.00043397898 0.50016642)
(0 -0.00068181164 0.50017553)
(0 -0.00094593766 0.50018894)
(0 -0.0012331868 0.5002075)
(0 -0.0015518833 0.50023244)
(0 -0.001912534 0.50026556)
(0 -0.0023288202 0.50030948)
(0 -0.0028190823 0.5003681)
(0 -0.0034086956 0.50044735)
(0 -0.0041340367 0.50055671)
(0 -0.005048185 0.50071127)
(0 -0.0062310063 0.50093662)
(0 -0.0078313845 0.5012944)
(0 -0.010125112 0.50191055)
(0 -0.01310631 0.50282515)
(0 -0.017425739 0.50608121)
(0 -0.038758546 0.5252681)
(0 -0.027894441 0.45021678)
(0 0.03988819 0.40982074)
(0 0.061427946 0.54930817)
(0 0.031983575 0.52188195)
(0 0.024355366 0.51008056)
(0 0.019193511 0.50658856)
(0 0.014977076 0.50452806)
(0 0.012006684 0.50327137)
(0 0.0097719286 0.50245836)
(0 0.008036567 0.50190103)
(0 0.0066649533 0.50150865)
(0 0.0055568661 0.50122543)
(0 0.0046427708 0.50101668)
(0 0.0038739287 0.50086053)
(0 0.0032149434 0.50074261)
(0 0.0026394801 0.50065322)
(0 0.0021274849 0.5005857)
(0 0.0016632803 0.50053544)
(0 0.0012342457 0.50049923)
(0 0.0008298733 0.50047491)
(0 0.00044106355 0.50046109)
(0 5.9574385e-05 0.500457)
(0 -0.00032245637 0.50046244)
(0 -0.00071293812 0.50047773)
(0 -0.0011202508 0.50050375)
(0 -0.0015537404 0.50054206)
(0 -0.0020243022 0.50059503)
(0 -0.0025451355 0.50066616)
(0 -0.0031327737 0.50076053)
(0 -0.0038085478 0.50088554)
(0 -0.004600698 0.5010521)
(0 -0.0055475801 0.50127675)
(0 -0.006703175 0.50158561)
(0 -0.0081446848 0.50202082)
(0 -0.0099761996 0.50265076)
(0 -0.012370534 0.50361513)
(0 -0.015715652 0.50519925)
(0 -0.019872183 0.50785402)
(0 -0.025185861 0.51641227)
(0 -0.047416515 0.53912739)
(0 -0.030853407 0.41488092)
(0 0.034791479 0.36173044)
(0 0.063838648 0.55456343)
(0 0.039380118 0.53747134)
(0 0.030083164 0.51849261)
(0 0.024112409 0.51197728)
(0 0.019279434 0.50849941)
(0 0.015736057 0.5062642)
(0 0.012954116 0.50475538)
(0 0.010743649 0.50370435)
(0 0.0089679617 0.50295604)
(0 0.0075140242 0.50241098)
(0 0.0063021704 0.50200669)
(0 0.0052745943 0.50170289)
(0 0.0043880383 0.50147266)
(0 0.0036096847 0.50129764)
(0 0.0029141493 0.50116516)
(0 0.0022813248 0.50106636)
(0 0.0016948501 0.50099509)
(0 0.0011409835 0.50094718)
(0 0.00060774457 0.50091992)
(0 8.4231658e-05 0.50091185)
(0 -0.00043997693 0.50092255)
(0 -0.00097536334 0.50095266)
(0 -0.0015329986 0.50100389)
(0 -0.0021251627 0.50107922)
(0 -0.0027660627 0.50118324)
(0 -0.0034727382 0.50132266)
(0 -0.0042662678 0.50150716)
(0 -0.005173432 0.50175074)
(0 -0.0062290111 0.50207387)
(0 -0.007478874 0.50250703)
(0 -0.0089852537 0.50309723)
(0 -0.010835521 0.50391916)
(0 -0.013136238 0.50508922)
(0 -0.016023062 0.50680688)
(0 -0.019898566 0.50946754)
(0 -0.024730656 0.51427495)
(0 -0.031112496 0.52824699)
(0 -0.050318886 0.54407228)
(0 -0.028438041 0.37238225)
(0 0.027424142 0.31484389)
(0 0.062314515 0.5502409)
(0 0.044614128 0.5514676)
(0 0.033981698 0.5274881)
(0 0.027463758 0.51772239)
(0 0.0224549 0.51291975)
(0 0.018636577 0.50973133)
(0 0.01552798 0.5074925)
(0 0.013006129 0.50589978)
(0 0.010942196 0.50474672)
(0 0.0092247982 0.50389594)
(0 0.0077750816 0.50325895)
(0 0.0065330588 0.50277687)
(0 0.0054523032 0.50240947)
(0 0.0044967648 0.50212895)
(0 0.0036379765 0.50191587)
(0 0.0028529925 0.50175653)
(0 0.002122872 0.50164137)
(0 0.0014315192 0.50156381)
(0 0.00076477241 0.50151963)
(0 0.00010966532 0.50150652)
(0 -0.00054623423 0.50152383)
(0 -0.0012154271 0.50157253)
(0 -0.0019110611 0.50165533)
(0 -0.0026476162 0.50177691)
(0 -0.0034416735 0.50194442)
(0 -0.0043128617 0.50216826)
(0 -0.0052850673 0.50246331)
(0 -0.0063880431 0.50285084)
(0 -0.007659566 0.50336149)
(0 -0.0091479015 0.50403989)
(0 -0.010915488 0.50495259)
(0 -0.013049163 0.50620239)
(0 -0.015652726 0.5079442)
(0 -0.018814031 0.51040437)
(0 -0.022894585 0.51405493)
(0 -0.028175866 0.52114557)
(0 -0.035705854 0.5393265)
(0 -0.050475582 0.54155623)
(0 -0.024085896 0.33056087)
(0 0.019837778 0.27519871)
(0 0.05798956 0.53974706)
(0 0.0473633 0.56256472)
(0 0.036477176 0.53660448)
(0 0.029635733 0.52350703)
(0 0.024675792 0.51740317)
(0 0.020773983 0.51336284)
(0 0.017509612 0.51044433)
(0 0.014814176 0.50832397)
(0 0.012566745 0.50676155)
(0 0.010665792 0.5055925)
(0 0.0090393222 0.5047077)
(0 0.0076297165 0.50403221)
(0 0.0063911122 0.50351382)
(0 0.0052870482 0.50311581)
(0 0.0042880539 0.50281213)
(0 0.0033698987 0.50258426)
(0 0.0025122443 0.50241911)
(0 0.0016975648 0.50230766)
(0 0.00091027152 0.50224408)
(0 0.00013598545 0.50222515)
(0 -0.00063912839 0.50224997)
(0 -0.0014289769 0.5023199)
(0 -0.0022481163 0.50243866)
(0 -0.003112444 0.50261271)
(0 -0.004039949 0.50285183)
(0 -0.0050516084 0.50317015)
(0 -0.0061724897 0.50358769)
(0 -0.0074331446 0.50413261)
(0 -0.0088715033 0.50484485)
(0 -0.010534834 0.50578143)
(0 -0.012481432 0.50702463)
(0 -0.014791513 0.50869761)
(0 -0.017566864 0.51098201)
(0 -0.020861467 0.51412019)
(0 -0.024971595 0.51873045)
(0 -0.030506604 0.52823008)
(0 -0.038627963 0.5487243)
(0 -0.048507345 0.53398654)
(0 -0.019066568 0.29394324)
(0 0.013083041 0.24255623)
(0 0.05179827 0.5252015)
(0 0.047708719 0.57024851)
(0 0.037756442 0.54552479)
(0 0.030849888 0.52928848)
(0 0.026073094 0.52180146)
(0 0.022237651 0.51699765)
(0 0.018953494 0.51347313)
(0 0.016193434 0.51086456)
(0 0.013849661 0.50891201)
(0 0.01183568 0.50743218)
(0 0.010088904 0.50630004)
(0 0.0085567074 0.50542783)
(0 0.0071963405 0.50475342)
(0 0.0059730016 0.50423244)
(0 0.0048578713 0.50383295)
(0 0.0038267601 0.50353199)
(0 0.0028589945 0.50331319)
(0 0.0019364853 0.50316518)
(0 0.0010429474 0.50308058)
(0 0.00016323552 0.50305529)
(0 -0.00071727942 0.50308817)
(0 -0.0016132981 0.50318094)
(0 -0.0025401274 0.50333833)
(0 -0.0035143348 0.50356846)
(0 -0.0045544267 0.50388364)
(0 -0.0056816439 0.50430145)
(0 -0.0069209026 0.50484653)
(0 -0.0083019102 0.50555314)
(0 -0.0098607401 0.50646906)
(0 -0.01164159 0.50766144)
(0 -0.013696708 0.50922515)
(0 -0.016095602 0.51129814)
(0 -0.018933575 0.51407979)
(0 -0.022241999 0.51783892)
(0 -0.026261675 0.52346823)
(0 -0.031845512 0.53537544)
(0 -0.039756514 0.55589735)
(0 -0.044892208 0.52282707)
(0 -0.014090227 0.2626517)
(0 0.007769961 0.21554289)
(0 0.044825148 0.50801147)
(0 0.046254544 0.57438099)
(0 0.038034478 0.55375107)
(0 0.031287198 0.53496031)
(0 0.026767764 0.52603002)
(0 0.023116234 0.52053806)
(0 0.019920466 0.51648777)
(0 0.017181902 0.51344109)
(0 0.014813327 0.51113)
(0 0.012746306 0.50935881)
(0 0.010928788 0.50799022)
(0 0.0093148677 0.50692663)
(0 0.0078665755 0.50609813)
(0 0.006552166 0.5054541)
(0 0.005344681 0.50495771)
(0 0.0042210085 0.50458217)
(0 0.003161016 0.50430824)
(0 0.0021467994 0.50412246)
(0 0.0011620327 0.50401604)
(0 0.00019139927 0.50398409)
(0 -0.0007799576 0.50402523)
(0 -0.0017669635 0.50414152)
(0 -0.0027850746 0.50433859)
(0 -0.003850864 0.5046261)
(0 -0.0049825973 0.50501856)
(0 -0.0062008949 0.50553658)
(0 -0.0075294974 0.50620876)
(0 -0.0089960906 0.50707442)
(0 -0.010633472 0.50818773)
(0 -0.012481226 0.50962393)
(0 -0.014584485 0.51148807)
(0 -0.016999453 0.51392903)
(0 -0.019807797 0.51715557)
(0 -0.023025486 0.52148072)
(0 -0.026875008 0.52818322)
(0 -0.032346961 0.54222065)
(0 -0.039399507 0.56050333)
(0 -0.040326014 0.50908972)
(0 -0.0097075566 0.23586584)
(0 0.0040047787 0.19355871)
(0 0.037898714 0.48948928)
(0 0.043685839 0.57524047)
(0 0.037562861 0.56084481)
(0 0.031153361 0.54036087)
(0 0.026913458 0.53001106)
(0 0.023513526 0.52390138)
(0 0.02047988 0.51941206)
(0 0.017826496 0.51598718)
(0 0.01548941 0.51335821)
(0 0.013418292 0.51132331)
(0 0.011571789 0.50973664)
(0 0.0099117367 0.50849354)
(0 0.0084058984 0.50751834)
(0 0.0070264429 0.50675568)
(0 0.0057490969 0.50616483)
(0 0.0045525759 0.50571595)
(0 0.0034179591 0.5053874)
(0 0.0023281301 0.50516399)
(0 0.0012672711 0.50503572)
(0 0.00022040577 0.50499701)
(0 -0.00082705527 0.50504629)
(0 -0.0018897665 0.50518591)
(0 -0.0029828176 0.50542227)
(0 -0.0041222332 0.50576633)
(0 -0.0053254292 0.50623446)
(0 -0.0066117278 0.50684976)
(0 -0.0080029414 0.50764404)
(0 -0.009523928 0.50866064)
(0 -0.011203289 0.50995865)
(0 -0.013074893 0.51161937)
(0 -0.01517626 0.51375548)
(0 -0.017550029 0.51652273)
(0 -0.020260356 0.52013218)
(0 -0.023315112 0.52496402)
(0 -0.02695621 0.53274071)
(0 -0.032197738 0.54839108)
(0 -0.037990015 0.56254583)
(0 -0.035412038 0.49380128)
(0 -0.0061998732 0.21326273)
(0 0.0015508992 0.17613642)
(0 0.031498651 0.47076477)
(0 0.040530792 0.57338647)
(0 0.036557461 0.56659812)
(0 0.030636064 0.54537805)
(0 0.026670556 0.53370413)
(0 0.02354214 0.52703167)
(0 0.020709639 0.52218769)
(0 0.018182389 0.51845038)
(0 0.015916918 0.51555008)
(0 0.013878796 0.51328461)
(0 0.012036586 0.51150336)
(0 0.010359987 0.51009728)
(0 0.0088227386 0.50898688)
(0 0.0074013067 0.50811344)
(0 0.0060745737 0.50743341)
(0 0.0048235619 0.50691464)
(0 0.0036310281 0.50653367)
(0 0.0024810909 0.50627391)
(0 0.0013588682 0.5061244)
(0 0.00025013556 0.50607903)
(0 -0.00085902528 0.50613606)
(0 -0.0019825919 0.50629807)
(0 -0.0031348738 0.50657208)
(0 -0.0043309156 0.50697011)
(0 -0.0055868311 0.50750997)
(0 -0.0069201703 0.5082167)
(0 -0.0083503253 0.50912453)
(0 -0.0098988689 0.51027975)
(0 -0.011589813 0.51174492)
(0 -0.013450884 0.51360541)
(0 -0.015512154 0.51597867)
(0 -0.01780425 0.51902326)
(0 -0.020374124 0.5229502)
(0 -0.02322902 0.52823634)
(0 -0.026649248 0.53704114)
(0 -0.031559113 0.55365949)
(0 -0.035898993 0.56231163)
(0 -0.030549829 0.47790304)
(0 -0.0035901703 0.19462266)
(0 7.6493936e-05 0.16252859)
(0 0.025869235 0.45260459)
(0 0.037157632 0.56943456)
(0 0.035189217 0.57098847)
(0 0.029875477 0.54996235)
(0 0.026172083 0.53711324)
(0 0.023304444 0.52991158)
(0 0.020686243 0.52478321)
(0 0.018306963 0.520797)
(0 0.016138217 0.5176727)
(0 0.014158708 0.51521176)
(0 0.012345578 0.51326202)
(0 0.010675743 0.51171222)
(0 0.0091285851 0.51048069)
(0 0.0076848462 0.50950665)
(0 0.0063267147 0.50874471)
(0 0.0050377494 0.50816114)
(0 0.0038026585 0.50773118)
(0 0.002607091 0.50743723)
(0 0.0014374037 0.50726762)
(0 0.00028042842 0.50721583)
(0 -0.00087677619 0.50727999)
(0 -0.0020472043 0.50746286)
(0 -0.0032440786 0.50777195)
(0 -0.0044811583 0.50822001)
(0 -0.0057729574 0.50882595)
(0 -0.007134976 0.50961617)
(0 -0.0085839463 0.51062655)
(0 -0.010138015 0.51190534)
(0 -0.011816672 0.51351725)
(0 -0.013641712 0.51554996)
(0 -0.015636358 0.5181232)
(0 -0.017821246 0.52139518)
(0 -0.020228765 0.52558034)
(0 -0.02287249 0.53128349)
(0 -0.02607022 0.54103196)
(0 -0.030561664 0.55793502)
(0 -0.033419725 0.56019598)
(0 -0.025991166 0.46208401)
(0 -0.0017641526 0.17948588)
(0 -0.0007182358 0.15191184)
(0 0.021106638 0.43544059)
(0 0.033816704 0.56393371)
(0 0.033601172 0.5740887)
(0 0.028972266 0.55409308)
(0 0.025517587 0.54026265)
(0 0.022884064 0.53255157)
(0 0.020476643 0.52719066)
(0 0.018253222 0.52301097)
(0 0.016194389 0.5197065)
(0 0.014289411 0.51708397)
(0 0.012522522 0.51499195)
(0 0.010876822 0.51331856)
(0 0.0093366717 0.51198116)
(0 0.0078867807 0.51091796)
(0 0.0065125446 0.51008258)
(0 0.0052000821 0.50944035)
(0 0.0039361602 0.50896567)
(0 0.0027081157 0.5086403)
(0 0.00150373 0.50845209)
(0 0.00031109248 0.50839422)
(0 -0.00088155329 0.50846474)
(0 -0.0020860091 0.50866654)
(0 -0.0033142096 0.50900743)
(0 -0.0045784422 0.50950071)
(0 -0.0058914636 0.51016596)
(0 -0.0072666192 0.51103046)
(0 -0.0087179526 0.51213107)
(0 -0.010260284 0.5135171)
(0 -0.011908937 0.5152544)
(0 -0.013680367 0.51743161)
(0 -0.015591736 0.52016889)
(0 -0.017655515 0.52362215)
(0 -0.019893185 0.52801708)
(0 -0.022330905 0.53411162)
(0 -0.025310057 0.54468221)
(0 -0.029320544 0.56120834)
(0 -0.030783748 0.55659413)
(0 -0.021889612 0.44678249)
(0 -0.00056348685 0.16726523)
(0 -0.0010703806 0.14358883)
(0 0.017201717 0.41948696)
(0 0.030663605 0.55734323)
(0 0.031911238 0.57602002)
(0 0.028000493 0.55776262)
(0 0.0247806 0.54317821)
(0 0.022347447 0.53497437)
(0 0.02013647 0.52941593)
(0 0.018066932 0.52508826)
(0 0.016122452 0.52164206)
(0 0.014300403 0.51888871)
(0 0.012590624 0.51667911)
(0 0.01098125 0.51490168)
(0 0.0094608343 0.51347373)
(0 0.0080175919 0.51233321)
(0 0.006639859 0.51143339)
(0 0.0053161903 0.51073916)
(0 0.0040353889 0.51022452)
(0 0.0027865215 0.50987086)
(0 0.0015588782 0.50966575)
(0 0.00034191352 0.5096022)
(0 -0.00087482548 0.50967822)
(0 -0.0021018288 0.50989675)
(0 -0.0033496368 0.51026581)
(0 -0.0046289821 0.51079896)
(0 -0.0059508239 0.5115162)
(0 -0.0073263806 0.51244522)
(0 -0.0087671318 0.51362331)
(0 -0.010284828 0.5151002)
(0 -0.011891117 0.51694203)
(0 -0.013597884 0.51923756)
(0 -0.015417135 0.52210598)
(0 -0.017354864 0.52570021)
(0 -0.019425682 0.53026739)
(0 -0.021673202 0.53673242)
(0 -0.024441971 0.54797177)
(0 -0.027937443 0.56352335)
(0 -0.028161625 0.55186788)
(0 -0.018319322 0.43226319)
(0 0.0001702512 0.15741471)
(0 -0.001153501 0.13700819)
(0 0.014076981 0.40482409)
(0 0.027778381 0.55003749)
(0 0.030207454 0.57692992)
(0 0.027012561 0.56097744)
(0 0.0240141 0.54588388)
(0 0.021746461 0.53720694)
(0 0.019710908 0.53147212)
(0 0.017786424 0.52703214)
(0 0.015954506 0.52347679)
(0 0.014218152 0.5206196)
(0 0.012571376 0.51831465)
(0 0.01100623 0.51645133)
(0 0.0095146569 0.51494742)
(0 0.0080878369 0.51374114)
(0 0.0067166908 0.51278586)
(0 0.005391992 0.51204643)
(0 0.0041044643 0.51149674)
(0 0.0028448592 0.51111807)
(0 0.0016039762 0.51089788)
(0 0.00037266418 0.51082909)
(0 -0.00085818431 0.51090969)
(0 -0.0020977054 0.51114264)
(0 -0.0033550176 0.51153604)
(0 -0.004639301 0.51210357)
(0 -0.0059597661 0.51286532)
(0 -0.0073256257 0.5138491)
(0 -0.00874602 0.51509222)
(0 -0.010229979 0.5166443)
(0 -0.011786032 0.51857126)
(0 -0.013422322 0.52096128)
(0 -0.015146694 0.52393171)
(0 -0.016960316 0.52763305)
(0 -0.018874825 0.53234496)
(0 -0.020953928 0.53915999)
(0 -0.023523154 0.55089417)
(0 -0.026494823 0.56496268)
(0 -0.025664596 0.54633509)
(0 -0.015291932 0.41867414)
(0 0.0005751854 0.14947155)
(0 -0.001085927 0.13173018)
(0 0.01162178 0.3914433)
(0 0.025188865 0.54231023)
(0 0.028548624 0.57697271)
(0 0.026041856 0.5637572)
(0 0.023253436 0.54840251)
(0 0.021119617 0.53927774)
(0 0.019235395 0.53337664)
(0 0.017442913 0.52885053)
(0 0.015717599 0.52521278)
(0 0.014065648 0.52227468)
(0 0.012483972 0.51989378)
(0 0.010967538 0.51796082)
(0 0.0095108985 0.51639432)
(0 0.0081076502 0.51513311)
(0 0.0067509013 0.51413094)
(0 0.0054333746 0.5133529)
(0 0.0041475402 0.51277302)
(0 0.0028857262 0.51237261)
(0 0.0016401803 0.51213914)
(0 0.0004031132 0.51206555)
(0 -0.00083325707 0.51214981)
(0 -0.0020767324 0.51239487)
(0 -0.0033350454 0.51280882)
(0 -0.0046158889 0.51340529)
(0 -0.005926838 0.51420432)
(0 -0.0072752839 0.51523352)
(0 -0.0086683093 0.51652997)
(0 -0.010112626 0.51814283)
(0 -0.011614217 0.52013742)
(0 -0.013178301 0.52260098)
(0 -0.014809549 0.52564848)
(0 -0.016505898 0.52942981)
(0 -0.018279315 0.53426793)
(0 -0.020213703 0.54141096)
(0 -0.022595146 0.55345707)
(0 -0.02505374 0.56563085)
(0 -0.023355338 0.54026168)
(0 -0.012777811 0.40607723)
(0 0.0007604214 0.1430415)
(0 -0.00094409876 0.1274092)
(0 0.0097173415 0.37927858)
(0 0.022891599 0.53438189)
(0 0.026969935 0.57629348)
(0 0.02510711 0.56612914)
(0 0.022519831 0.55075481)
(0 0.02049357 0.54121446)
(0 0.018736371 0.5351491)
(0 0.017060881 0.53055447)
(0 0.015433785 0.52685536)
(0 0.01386225 0.52385524)
(0 0.012345034 0.5214148)
(0 0.010879172 0.51942628)
(0 0.0094611355 0.51780909)
(0 0.0080864075 0.51650277)
(0 0.0067498872 0.51546163)
(0 0.0054459571 0.51465116)
(0 0.0041686259 0.51404566)
(0 0.0029116504 0.51362663)
(0 0.0016686216 0.51338164)
(0 0.00043303384 0.51330367)
(0 -0.00080163582 0.5133907)
(0 -0.0020419217 0.51364564)
(0 -0.0032942523 0.5140765)
(0 -0.0045649441 0.51469678)
(0 -0.0058600925 0.51552628)
(0 -0.0071854862 0.51659231)
(0 -0.0085464587 0.51793145)
(0 -0.0099478182 0.51959226)
(0 -0.011393552 0.52163925)
(0 -0.012886696 0.52415847)
(0 -0.014429642 0.52726248)
(0 -0.016018559 0.53110338)
(0 -0.017668265 0.53605671)
(0 -0.01948069 0.54350287)
(0 -0.021685982 0.55567792)
(0 -0.023656198 0.56563797)
(0 -0.021261904 0.53385921)
(0 -0.010724449 0.39447203)
(0 0.00080627446 0.13779123)
(0 -0.00077550653 0.12378419)
(0 0.0082510104 0.36823304)
(0 0.020866308 0.52641201)
(0 0.025489276 0.57502011)
(0 0.024217108 0.56812288)
(0 0.021824427 0.55295773)
(0 0.019885465 0.54304174)
(0 0.018232598 0.53680925)
(0 0.016658778 0.53215642)
(0 0.015120431 0.5284118)
(0 0.01362375 0.52536473)
(0 0.012168531 0.52287826)
(0 0.0107532 0.52084609)
(0 0.009375563 0.51918848)
(0 0.0080325196 0.51784569)
(0 0.0067203889 0.51677266)
(0 0.0054349268 0.51593536)
(0 0.0041714605 0.51530846)
(0 0.0029250068 0.5148737)
(0 0.0016903674 0.51461882)
(0 0.00046221152 0.51453688)
(0 -0.00076482341 0.51462584)
(0 -0.0019961035 0.5148886)
(0 -0.0032368662 0.51533301)
(0 -0.0044921908 0.51597237)
(0 -0.0057668718 0.51682618)
(0 -0.0070653291 0.51792131)
(0 -0.0083914546 0.51929378)
(0 -0.0097485484 0.52099143)
(0 -0.0111391 0.52307794)
(0 -0.012564589 0.52563809)
(0 -0.014025894 0.52878232)
(0 -0.015518714 0.53266846)
(0 -0.01706243 0.53773155)
(0 -0.018773113 0.54545217)
(0 -0.020813205 0.55757915)
(0 -0.02232875 0.565089)
(0 -0.019389395 0.52728973)
(0 -0.0090690737 0.38381809)
(0 0.00076925026 0.13344837)
(0 -0.00060813694 0.12066493)
(0 0.0071235957 0.35819785)
(0 0.01908497 0.51851276)
(0 0.024112508 0.57326163)
(0 0.023374303 0.56976778)
(0 0.021171669 0.55502419)
(0 0.019305381 0.54478002)
(0 0.017736773 0.53837542)
(0 0.016250025 0.53366898)
(0 0.014790787 0.5298902)
(0 0.013362665 0.5268079)
(0 0.011965886 0.52428622)
(0 0.010599751 0.52222022)
(0 0.0092629252 0.52053083)
(0 0.0079533329 0.519159)
(0 0.0066683839 0.51806027)
(0 0.0054049406 0.51720111)
(0 0.0041594334 0.51655657)
(0 0.002927963 0.5161087)
(0 0.0017063962 0.5158454)
(0 0.00049045029 0.51575983)
(0 -0.00072419529 0.51584999)
(0 -0.0019418579 0.51611868)
(0 -0.0031667154 0.51657361)
(0 -0.0044027628 0.51722785)
(0 -0.0056536808 0.51810051)
(0 -0.0069227505 0.51921801)
(0 -0.0082127106 0.52061578)
(0 -0.0095257091 0.52234095)
(0 -0.010863164 0.52445637)
(0 -0.012225515 0.52704564)
(0 -0.013612747 0.53021769)
(0 -0.015021201 0.5341399)
(0 -0.016475805 0.53931094)
(0 -0.018101739 0.54727322)
(0 -0.019986518 0.55918522)
(0 -0.02108585 0.56407876)
(0 -0.017728557 0.52067397)
(0 -0.0077469729 0.37405258)
(0 0.00068776123 0.12979762)
(0 -0.00045691122 0.11791618)
(0 0.0062525133 0.34906356)
(0 0.017517442 0.5107607)
(0 0.022837734 0.57110941)
(0 0.022577322 0.57109185)
(0 0.020561718 0.55696358)
(0 0.018758348 0.54644543)
(0 0.017256999 0.53986374)
(0 0.015844051 0.53510402)
(0 0.014454681 0.53129871)
(0 0.01308867 0.52819004)
(0 0.011746224 0.52564166)
(0 0.010427129 0.5235497)
(0 0.0091305494 0.52183567)
(0 0.0078551156 0.52044105)
(0 0.0065990484 0.5193219)
(0 0.0053600801 0.51844517)
(0 0.0041355427 0.5177863)
(0 0.0029224499 0.5173276)
(0 0.0017175845 0.51705719)
(0 0.00051757812 0.51696832)
(0 -0.00068097582 0.51705901)
(0 -0.0018814749 0.51733198)
(0 -0.0030871758 0.51779479)
(0 -0.0043011456 0.51846022)
(0 -0.0055261338 0.51934704)
(0 -0.0067644986 0.5204812)
(0 -0.0080180838 0.52189755)
(0 -0.0092881914 0.52364257)
(0 -0.010575521 0.5257784)
(0 -0.011879877 0.52838762)
(0 -0.013200841 0.53157846)
(0 -0.014536302 0.53553176)
(0 -0.015917088 0.54081088)
(0 -0.017471874 0.54897811)
(0 -0.019209915 0.56052085)
(0 -0.019932939 0.56269006)
(0 -0.016262109 0.51409955)
(0 -0.0066969338 0.36510209)
(0 0.0005869866 0.12667249)
(0 -0.00032829531 0.11544372)
(0 0.0055720249 0.34072634)
(0 0.016134778 0.503206)
(0 0.021658663 0.56863924)
(0 0.021822767 0.5721212)
(0 0.019992156 0.55878254)
(0 0.018245915 0.54805014)
(0 0.016797998 0.54128795)
(0 0.015447196 0.53647231)
(0 0.014119184 0.53264509)
(0 0.012809063 0.52951654)
(0 0.011516673 0.52694797)
(0 0.010242 0.52483629)
(0 0.0089844482 0.52310339)
(0 0.0077431044 0.52169113)
(0 0.0065167712 0.52055598)
(0 0.0053038465 0.51966532)
(0 0.0041023844 0.51899493)
(0 0.0029101514 0.51852739)
(0 0.0017247027 0.518251)
(0 0.00054345051 0.51815913)
(0 -0.00063622649 0.51824978)
(0 -0.0018169363 0.51852561)
(0 -0.0030011524 0.51899402)
(0 -0.0041911647 0.51966752)
(0 -0.0053889619 0.52056455)
(0 -0.0065961735 0.5217106)
(0 -0.0078139719 0.52314003)
(0 -0.0090430668 0.52489879)
(0 -0.010283718 0.52704841)
(0 -0.011535408 0.52967064)
(0 -0.012797686 0.53287412)
(0 -0.014070674 0.53685672)
(0 -0.015390943 0.54224472)
(0 -0.01688496 0.55057676)
(0 -0.018483475 0.56160982)
(0 -0.018869284 0.56099347)
(0 -0.014969205 0.50762804)
(0 -0.0058643558 0.35689007)
(0 0.00048267199 0.12394632)
(0 -0.00022362141 0.11318313)
(0 0.0050316462 0.33309128)
(0 0.014910869 0.49587961)
(0 0.020567032 0.56591361)
(0 0.021106474 0.57287975)
(0 0.019459228 0.56048552)
(0 0.017767383 0.54960294)
(0 0.016362081 0.5426594)
(0 0.015063464 0.53778333)
(0 0.0137892 0.53393643)
(0 0.0125292 0.5307926)
(0 0.011282675 0.52820874)
(0 0.010049607 0.52608215)
(0 0.0088294596 0.52433494)
(0 0.007621591 0.52290919)
(0 0.0064252018 0.52176169)
(0 0.0052391863 0.52086013)
(0 0.0040621636 0.52018059)
(0 0.0028925093 0.5197059)
(0 0.001728417 0.51942451)
(0 0.00056795258 0.51932988)
(0 -0.00059084399 0.51942002)
(0 -0.0017499167 0.51969752)
(0 -0.0029110868 0.52016962)
(0 -0.0040760069 0.5208486)
(0 -0.0052460588 0.52175258)
(0 -0.0064223123 0.52290667)
(0 -0.0076054547 0.5243448)
(0 -0.0087958074 0.5261125)
(0 -0.0099934022 0.52827089)
(0 -0.011197627 0.53090111)
(0 -0.01240828 0.5341134)
(0 -0.013628182 0.5381259)
(0 -0.014899097 0.54362316)
(0 -0.01633987 0.55207706)
(0 -0.017804834 0.56247421)
(0 -0.017890343 0.5590481)
(0 -0.013828326 0.50130109)
(0 -0.005202569 0.3493415)
(0 0.00038402502 0.12152433)
(0 -0.00014136084 0.11109106)
(0 0.0045937191 0.32607384)
(0 0.013823026 0.48879893)
(0 0.019554151 0.56298414)
(0 0.020424293 0.57338933)
(0 0.018958689 0.5620754)
(0 0.017320732 0.55110976)
(0 0.015949922 0.54398722)
(0 0.014695157 0.53904523)
(0 0.013467972 0.53517908)
(0 0.012252896 0.53202304)
(0 0.011048288 0.52942746)
(0 0.0098539866 0.52728962)
(0 0.0086694012 0.52553165)
(0 0.0074940271 0.52409571)
(0 0.0063273206 0.52293879)
(0 0.0051685346 0.52202881)
(0 0.0040167209 0.52134209)
(0 0.0028707379 0.52086165)
(0 0.0017292965 0.52057608)
(0 0.00059100038 0.52047891)
(0 -0.00054556539 0.52056817)
(0 -0.0016817972 0.52084636)
(0 -0.0028189836 0.52132059)
(0 -0.0039582661 0.52200294)
(0 -0.0051005538 0.52291124)
(0 -0.0062464999 0.52407031)
(0 -0.0073964581 0.52551374)
(0 -0.0085505186 0.52728677)
(0 -0.0097086378 0.52945022)
(0 -0.010870275 0.53208498)
(0 -0.012035677 0.53530414)
(0 -0.013210633 0.53934869)
(0 -0.014441255 0.54495449)
(0 -0.015833924 0.55348509)
(0 -0.017170285 0.56313406)
(0 -0.016989511 0.55690297)
(0 -0.012819015 0.49514553)
(0 -0.0046730265 0.34238581)
(0 0.00029587669 0.11933678)
(0 -7.8603872e-05 0.10913849)
(0 0.0042308256 0.31959998)
(0 0.012851954 0.48197193)
(0 0.018611784 0.55989359)
(0 0.01977249 0.5736699)
(0 0.018486341 0.56355403)
(0 0.01690328 0.55257428)
(0 0.015561147 0.54527857)
(0 0.014343375 0.5402649)
(0 0.013157512 0.53637858)
(0 0.011982763 0.53321222)
(0 0.010816455 0.53060748)
(0 0.009658177 0.52846107)
(0 0.0085072257 0.52669504)
(0 0.0073631376 0.5252515)
(0 0.0062255182 0.52408748)
(0 0.00509387 0.52317108)
(0 0.0039675678 0.52247878)
(0 0.0028458447 0.52199374)
(0 0.001727823 0.52170468)
(0 0.00061253964 0.52160517)
(0 -0.0005009793 0.52169324)
(0 -0.0016136877 0.52197135)
(0 -0.0027264481 0.52244647)
(0 -0.0038400013 0.52313051)
(0 -0.0049548981 0.52404109)
(0 -0.0060714926 0.52520277)
(0 -0.0071899242 0.52664892)
(0 -0.0083101691 0.52842461)
(0 -0.0094322132 0.53059053)
(0 -0.0105557 0.53322763)
(0 -0.011681471 0.53645314)
(0 -0.012818377 0.54053282)
(0 -0.014015834 0.54624482)
(0 -0.015363617 0.55480546)
(0 -0.016575548 0.56360734)
(0 -0.016159328 0.5545985)
(0 -0.011922763 0.48917741)
(0 -0.0042447907 0.33595843)
(0 0.00022021126 0.1173331)
(0 -3.1983611e-05 0.10730584)
(0 0.0039233948 0.31360565)
(0 0.011981452 0.4754002)
(0 0.017732563 0.55667766)
(0 0.019147915 0.57373986)
(0 0.018038321 0.56492271)
(0 0.01651212 0.55399845)
(0 0.015194749 0.54653891)
(0 0.014008402 0.54144809)
(0 0.012858938 0.53753974)
(0 0.011720508 0.53436402)
(0 0.010589239 0.53175186)
(0 0.0094644096 0.52959883)
(0 0.0083451686 0.52782676)
(0 0.0072310323 0.52637757)
(0 0.0061216779 0.52520827)
(0 0.0050167729 0.52428703)
(0 0.0039159263 0.52359042)
(0 0.002818655 0.52310172)
(0 0.0017244014 0.52280973)
(0 0.00063254464 0.52270806)
(0 -0.00045753953 0.52279473)
(0 -0.001546455 0.52307215)
(0 -0.0026347312 0.5235472)
(0 -0.0037228027 0.52423164)
(0 -0.0048109568 0.52514293)
(0 -0.0058993428 0.52630545)
(0 -0.0069879773 0.52775245)
(0 -0.008076807 0.52952892)
(0 -0.009165913 0.53169558)
(0 -0.010255198 0.53433378)
(0 -0.011346203 0.53756618)
(0 -0.012450789 0.54168448)
(0 -0.013620491 0.54749844)
(0 -0.014925129 0.55604157)
(0 -0.016016281 0.56391012)
(0 -0.015392284 0.55216801)
(0 -0.011123367 0.48340506)
(0 -0.003893623 0.3300014)
(0 0.00015723397 0.11547699)
(0 1.78265e-06 0.10557951)
(0 0.0036576634 0.30803574)
(0 0.011197989 0.46908108)
(0 0.016910128 0.55336632)
(0 0.018548016 0.57361627)
(0 0.017611243 0.56618254)
(0 0.016144374 0.55538299)
(0 0.014849376 0.54777229)
(0 0.013689989 0.54259953)
(0 0.012572741 0.53866666)
(0 0.011467158 0.53548186)
(0 0.010368031 0.53286339)
(0 0.0092742738 0.53070509)
(0 0.0081848819 0.52892845)
(0 0.0070993111 0.52747508)
(0 0.0060172559 0.52630189)
(0 0.0049384847 0.52537703)
(0 0.0038627693 0.52467713)
(0 0.0027898361 0.52418552)
(0 0.0017193705 0.52389106)
(0 0.00065101603 0.52378738)
(0 -0.00041558071 0.5238725)
(0 -0.0014807531 0.52414879)
(0 -0.0025447769 0.52462304)
(0 -0.0036078587 0.52530691)
(0 -0.0046701003 0.52621775)
(0 -0.0057315195 0.52737984)
(0 -0.0067920781 0.52882637)
(0 -0.0078517512 0.53060238)
(0 -0.0089107528 0.53276873)
(0 -0.0099692902 0.53540753)
(0 -0.011029682 0.53864814)
(0 -0.012106624 0.54280854)
(0 -0.013252517 0.54871821)
(0 -0.014514665 0.55719602)
(0 -0.015488394 0.56405681)
(0 -0.014681307 0.54963904)
(0 -0.010406937 0.4778314)
(0 -0.0036009133 0.32446343)
(0 0.00010611467 0.11374263)
(0 2.5615121e-05 0.10394962)
(0 0.003424035 0.30284307)
(0 0.010490266 0.46300913)
(0 0.016139084 0.54998492)
(0 0.017970784 0.57331505)
(0 0.017202238 0.56733466)
(0 0.015797354 0.55672776)
(0 0.014523521 0.54898164)
(0 0.013387552 0.5437231)
(0 0.012298979 0.53976283)
(0 0.01122325 0.53656871)
(0 0.010153705 0.53394457)
(0 0.0090888569 0.53178192)
(0 0.0080275502 0.53000172)
(0 0.0069691578 0.52854525)
(0 0.0059133546 0.52736921)
(0 0.0048599621 0.52644166)
(0 0.0038088593 0.52573925)
(0 0.0027599216 0.52524532)
(0 0.0017130137 0.52494876)
(0 0.00066797785 0.52484322)
(0 -0.00037533486 0.5249267)
(0 -0.0014170544 0.52520154)
(0 -0.0024572689 0.52567447)
(0 -0.0034960216 0.52635709)
(0 -0.0045332902 0.52726666)
(0 -0.0055690178 0.52842744)
(0 -0.0066031596 0.52987263)
(0 -0.0076357567 0.53164743)
(0 -0.0086671736 0.53381292)
(0 -0.0096979482 0.53645241)
(0 -0.010731229 0.53970302)
(0 -0.011784285 0.54390869)
(0 -0.012909103 0.54990583)
(0 -0.014128657 0.55827078)
(0 -0.014988215 0.56406039)
(0 -0.014020019 0.54703442)
(0 -0.0097617333 0.47245564)
(0 -0.0033526133 0.31929954)
(0 6.5494073e-05 0.11211159)
(0 4.1963554e-05 0.10240844)
(0 0.0032158259 0.29798719)
(0 0.0098488143 0.45717716)
(0 0.01541488 0.54655496)
(0 0.017414651 0.57285116)
(0 0.01680893 0.56838043)
(0 0.015468626 0.55803206)
(0 0.014215638 0.55016899)
(0 0.013100312 0.54482197)
(0 0.012037421 0.54083124)
(0 0.010988968 0.53762715)
(0 0.0099467532 0.53499764)