/*--------------------------------*- C++ -*----------------------------------*\
  =========                 |
  \\      /  F ield         | OpenFOAM: The Open Source CFD Toolbox
   \\    /   O peration     | Website:  https://openfoam.org
    \\  /    A nd           | Version:  10
     \\/     M anipulation  |
\*---------------------------------------------------------------------------*/
FoamFile
{
    format      ascii;
    class       surfaceScalarField;
    location    "0.15";
    object      phi;
}
// * * * * * * * * * * * * * * * * * * * * * * * * * * * * * * * * * * * * * //

dimensions      [1 0 -1 0 0 0 0];

internalField   nonuniform List<scalar> 
7860
(
3.9894779e-08
5.2881325e-07
1.2191806e-08
5.9641076e-07
7.4269593e-09
5.7347258e-07
5.4983508e-09
5.7063631e-07
4.1138975e-09
5.7009212e-07
3.2000563e-09
5.6962148e-07
2.5581007e-09
5.6934958e-07
2.0783371e-09
5.6918737e-07
1.7084348e-09
5.690775e-07
1.415868e-09
5.6900016e-07
1.178839e-09
5.6894461e-07
9.8258306e-10
5.6890383e-07
8.167546e-10
5.688734e-07
6.7386141e-10
5.6885046e-07
5.4832834e-10
5.6883309e-07
4.3589268e-10
5.6881999e-07
3.3319873e-10
5.6881025e-07
2.3751709e-10
5.6880324e-07
1.4654264e-10
5.6879853e-07
5.824205e-11
5.6879585e-07
-2.9269653e-11
5.6879506e-07
-1.1783672e-10
5.6879612e-07
-2.0936806e-10
5.6879908e-07
-3.0594347e-10
5.6880413e-07
-4.099461e-10
5.6881156e-07
-5.2422536e-10
5.6882184e-07
-6.5231778e-10
5.6883565e-07
-7.9875981e-10
5.6885401e-07
-9.6954849e-10
5.6887836e-07
-1.1728481e-09
5.6891087e-07
-1.4201634e-09
5.689549e-07
-1.7283097e-09
5.6901573e-07
-2.1222701e-09
5.6910156e-07
-2.6419317e-09
5.6922727e-07
-3.3697108e-09
5.694354e-07
-4.4611897e-09
5.6979912e-07
-6.0068801e-09
5.7025336e-07
-9.5061145e-09
5.7220693e-07
-2.9573546e-08
5.8877518e-07
5.3913437e-07
5.9669669e-08
4.691436e-07
3.6662619e-08
6.194178e-07
2.2624932e-08
5.8751027e-07
1.6250169e-08
5.7701107e-07
1.2287036e-08
5.7405525e-07
9.6028239e-09
5.723057e-07
7.6741709e-09
5.7127823e-07
6.2330343e-09
5.7062851e-07
5.1238092e-09
5.7018673e-07
4.2464161e-09
5.6987755e-07
3.5355143e-09
5.6965551e-07
2.9469288e-09
5.6949242e-07
2.4496082e-09
5.6937072e-07
2.0210708e-09
5.6927899e-07
1.6445958e-09
5.6920957e-07
1.3073994e-09
5.6915719e-07
9.9941751e-10
5.6911823e-07
7.1246504e-10
5.6909019e-07
4.396294e-10
5.6907136e-07
1.7481186e-10
5.6906067e-07
-8.7641093e-11
5.6905752e-07
-3.5326008e-10
5.6906174e-07
-6.2776467e-10
5.6907359e-07
-9.1739489e-10
5.6909376e-07
-1.2292977e-09
5.6912346e-07
-1.5720182e-09
5.6916456e-07
-1.9561619e-09
5.692198e-07
-2.3953334e-09
5.6929318e-07
-2.9075248e-09
5.6939055e-07
-3.517238e-09
5.6952059e-07
-4.2589023e-09
5.6969656e-07
-5.1828944e-09
5.6993973e-07
-6.3658528e-09
5.7028452e-07
-7.9265137e-09
5.7078793e-07
-1.0068118e-08
5.7157701e-07
-1.3196832e-08
5.7292784e-07
-1.8127459e-08
5.7518398e-07
-2.8170003e-08
5.8224948e-07
-4.5797025e-08
6.064022e-07
4.9333734e-07
6.0004504e-08
4.0913914e-07
5.0481043e-08
6.2894126e-07
3.336473e-08
6.0462657e-07
2.4811649e-08
5.8556415e-07
1.931713e-08
5.7954977e-07
1.5325473e-08
5.7629735e-07
1.235494e-08
5.7424877e-07
1.0096162e-08
5.7288729e-07
8.335749e-09
5.7194714e-07
6.9305699e-09
5.7128273e-07
5.7845355e-09
5.7080155e-07
4.8308705e-09
5.7044608e-07
4.0217996e-09
5.7017979e-07
3.3223267e-09
5.6997847e-07
2.7061772e-09
5.6982572e-07
2.1531077e-09
5.6971026e-07
1.6470813e-09
5.6962426e-07
1.1749871e-09
5.6956228e-07
7.2570602e-10
5.6952064e-07
2.8939765e-10
5.6949698e-07
-1.4307697e-10
5.6948999e-07
-5.8066137e-10
5.6949932e-07
-1.0325969e-09
5.6952552e-07
-1.5089433e-09
5.695701e-07
-2.0211808e-09
5.696357e-07
-2.58297e-09
5.6972635e-07
-3.211164e-09
5.6984799e-07
-3.9272186e-09
5.7000923e-07
-4.7592434e-09
5.7022257e-07
-5.7450648e-09
5.7050641e-07
-6.9368851e-09
5.7088838e-07
-8.4089217e-09
5.7141176e-07
-1.0270594e-08
5.7214619e-07
-1.2683804e-08
5.7320114e-07
-1.5881743e-08
5.7477495e-07
-2.0226358e-08
5.7727245e-07
-2.6695585e-08
5.8165321e-07
-3.8935342e-08
5.9448924e-07
-4.8157924e-08
6.1562478e-07
4.4517942e-07
5.4873464e-08
3.5426575e-07
5.744269e-08
6.2637206e-07
4.045827e-08
6.2161097e-07
3.0769665e-08
5.9525275e-07
2.4633884e-08
5.8568555e-07
1.9943268e-08
5.8098797e-07
1.6304282e-08
5.7788775e-07
1.3458441e-08
5.7573313e-07
1.1193612e-08
5.7421197e-07
9.3580778e-09
5.7311826e-07
7.8439384e-09
5.7231569e-07
6.5726912e-09
5.7171733e-07
5.4864752e-09
5.71266e-07
4.5419628e-09
5.7092298e-07
3.706044e-09
5.7066164e-07
2.9528457e-09
5.7046346e-07
2.2616344e-09
5.7031547e-07
1.6152981e-09
5.7020862e-07
9.992151e-10
5.7013673e-07
4.0037341e-10
5.7009582e-07
-1.9335191e-10
5.7008371e-07
-7.9383908e-10
5.7009981e-07
-1.4133406e-09
5.7014502e-07
-2.065138e-09
5.702219e-07
-2.7642921e-09
5.7033485e-07
-3.528571e-09
5.7049062e-07
-4.3796577e-09
5.7069908e-07
-5.344783e-09
5.7097436e-07
-6.4590055e-09
5.7133679e-07
-7.7684733e-09
5.7181587e-07
-9.3349907e-09
5.724549e-07
-1.1242404e-08
5.7331918e-07
-1.3607006e-08
5.7451079e-07
-1.6590177e-08
5.7618431e-07
-2.038975e-08
5.7857452e-07
-2.5272422e-08
5.8215512e-07
-3.2497486e-08
5.8887828e-07
-4.5081441e-08
6.0707319e-07
-4.6536576e-08
6.1707992e-07
3.9864284e-07
4.7959139e-08
3.0630674e-07
6.0063552e-08
6.1426771e-07
4.538681e-08
6.3628769e-07
3.4862614e-08
6.0577693e-07
2.8387163e-08
5.92161e-07
2.3407127e-08
5.85968e-07
1.9422312e-08
5.8187257e-07
1.6217941e-08
5.789375e-07
1.3609476e-08
5.7682043e-07
1.1457493e-08
5.7527025e-07
9.656847e-09
5.7411633e-07
8.1274795e-09
5.7324669e-07
6.8083481e-09
5.7258514e-07
5.6524206e-09
5.7207891e-07
4.6229016e-09
5.7169116e-07
3.6904837e-09
5.7139587e-07
2.8313069e-09
5.7117464e-07
2.0254199e-09
5.710145e-07
1.2555958e-09
5.7090655e-07
5.0638627e-10
5.7084503e-07
-2.3667075e-10
5.7082677e-07
-9.8776134e-10
5.708509e-07
-1.761486e-09
5.7091875e-07
-2.5735819e-09
5.71034e-07
-3.4417395e-09
5.7120301e-07
-4.3865859e-09
5.7143547e-07
-5.432925e-09
5.7174541e-07
-6.611347e-09
5.7215278e-07
-7.9603558e-09
5.726858e-07
-9.529242e-09
5.7338476e-07
-1.138186e-08
5.7430751e-07
-1.3601052e-08
5.7553837e-07
-1.6295155e-08
5.7720489e-07
-1.9607813e-08
5.7949697e-07
-2.3709369e-08
5.8267608e-07
-2.8902616e-08
5.8734837e-07
-3.6763234e-08
5.9673889e-07
-4.8436833e-08
6.1874679e-07
-4.317819e-08
6.1182127e-07
3.5546465e-07
4.0328519e-08
2.6597841e-07
5.8977539e-08
5.9561882e-07
4.8312003e-08
6.4695321e-07
3.7571009e-08
6.165179e-07
3.0912137e-08
5.9881987e-07
2.5877564e-08
5.9100258e-07
2.1764248e-08
5.8598588e-07
1.8377312e-08
5.8232444e-07
1.5564064e-08
5.7963368e-07
1.3202435e-08
5.7763187e-07
1.1196464e-08
5.761223e-07
9.4708359e-09
5.7497232e-07
7.9663839e-09
5.7408959e-07
6.6361794e-09
5.7340911e-07
5.4425699e-09
5.7288476e-07
4.3549118e-09
5.7248353e-07
3.3477902e-09
5.7218177e-07
2.39962e-09
5.7196267e-07
1.4915274e-09
5.7181464e-07
6.0643003e-10
5.7173013e-07
-2.7175423e-10
5.7170496e-07
-1.158824e-09
5.7173797e-07
-2.0709973e-09
5.7183092e-07
-3.02564e-09
5.7198864e-07
-4.0420715e-09
5.7221944e-07
-5.142511e-09
5.7253591e-07
-6.3532295e-09
5.7295613e-07
-7.7059839e-09
5.7350553e-07
-9.2398153e-09
5.7421963e-07
-1.1003356e-08
5.751483e-07
-1.3057864e-08
5.7636202e-07
-1.5480641e-08
5.7796115e-07
-1.8369127e-08
5.8009338e-07
-2.1847552e-08
5.8297539e-07
-2.6071775e-08
5.869003e-07
-3.145091e-08
5.927275e-07
-3.9616993e-08
6.0490498e-07
-4.9137278e-08
6.2826707e-07
-3.8559299e-08
6.0124329e-07
3.1690535e-07
3.2854332e-08
2.3312431e-07
5.5229768e-08
5.7324361e-07
4.9208689e-08
6.5297429e-07
3.9039246e-08
6.2668731e-07
3.2409125e-08
6.0544999e-07
2.7497722e-08
5.9591398e-07
2.3418544e-08
5.9006506e-07
1.9984044e-08
5.8575894e-07
1.7077625e-08
5.825401e-07
1.4597037e-08
5.8011246e-07
1.2458466e-08
5.7826087e-07
1.0594634e-08
5.7683615e-07
8.951271e-09
5.7573295e-07
7.4841545e-09
5.7487623e-07
6.1569239e-09
5.7421199e-07
4.9393214e-09
5.7370113e-07
3.8057497e-09
5.7331534e-07
2.7340954e-09
5.7303433e-07
1.7047523e-09
5.7284398e-07
6.9979076e-10
5.7273509e-07
-2.9777445e-10
5.7270252e-07
-1.3046585e-09
5.7274485e-07
-2.3379724e-09
5.7286424e-07
-3.4159062e-09
5.7306657e-07
-4.5584707e-09
5.73362e-07
-5.7883447e-09
5.7376578e-07
-7.1318719e-09
5.7429966e-07
-8.6202619e-09
5.7499392e-07
-1.029104e-08
5.7589041e-07
-1.2189824e-08
5.7704708e-07
-1.437271e-08
5.7854491e-07
-1.690917e-08
5.804976e-07
-1.9884091e-08
5.830683e-07
-2.3398321e-08
5.8648962e-07
-2.7593309e-08
5.9109529e-07
-3.2986679e-08
5.9812087e-07
-4.0962209e-08
6.1288051e-07
-4.7644148e-08
6.3494901e-07
-3.3354025e-08
5.8695317e-07
2.8355133e-07
2.6179804e-08
2.069448e-07
5.0108614e-08
5.4931514e-07
4.8463832e-08
6.5461911e-07
3.9462629e-08
6.3568846e-07
3.3050308e-08
6.1186229e-07
2.8385647e-08
6.0057864e-07
2.446765e-08
5.9398306e-07
2.1094594e-08
5.8913199e-07
1.8185547e-08
5.8544915e-07
1.5661243e-08
5.8263677e-07
1.3452516e-08
5.804696e-07
1.1502154e-08
5.7878652e-07
9.7626076e-09
5.774725e-07
8.1940504e-09
5.7644478e-07
6.7629142e-09
5.7564313e-07
5.4406166e-09
5.7502343e-07
4.2024721e-09
5.7455348e-07
3.0267691e-09
5.7421003e-07
1.8939729e-09
5.7397678e-07
7.8602155e-10
5.7384304e-07
-3.1430971e-10
5.7380285e-07
-1.4240048e-09
5.7385455e-07
-2.5603994e-09
5.7400063e-07
-3.7417841e-09
5.7424796e-07
-4.9880468e-09
5.7460827e-07
-6.3213874e-09
5.7509912e-07
-7.7671308e-09
5.757454e-07
-9.3546733e-09
5.7658146e-07
-1.1118591e-08
5.7765433e-07
-1.3099906e-08
5.790284e-07
-1.534774e-08
5.8079274e-07
-1.7921426e-08
5.8307129e-07
-2.0890475e-08
5.8603735e-07
-2.4330162e-08
5.8992931e-07
-2.8375931e-08
5.9514105e-07
-3.3631795e-08
6.0337674e-07
-4.100202e-08
6.2025073e-07
-4.4744821e-08
6.3869181e-07
-2.8179635e-08
5.7038798e-07
2.5537169e-07
2.0560846e-08
1.8638431e-07
4.4555054e-08
5.2532142e-07
4.6606287e-08
6.5256799e-07
3.9117551e-08
6.4317713e-07
3.3050102e-08
6.1792971e-07
2.8685039e-08
6.0494371e-07
2.500698e-08
5.9766112e-07
2.1774612e-08
5.9236436e-07
1.8932569e-08
5.8829119e-07
1.6424752e-08
5.8514458e-07
1.4197626e-08
5.8269673e-07
1.2204971e-08
5.8077917e-07
1.0406966e-08
5.792705e-07
8.769212e-09
5.7808254e-07
7.2619115e-09
5.7715043e-07
5.8590538e-09
5.7642629e-07
4.5376762e-09
5.7587486e-07
3.2771978e-09
5.7547051e-07
2.0588131e-09
5.7519516e-07
8.6493512e-10
5.7503692e-07
-3.2132554e-10
5.7498911e-07
-1.516656e-09
5.7504988e-07
-2.7380388e-09
5.7522201e-07
-4.0032533e-09
5.7551317e-07
-5.3314e-09
5.7593641e-07
-6.7434666e-09
5.7651119e-07
-8.262945e-09
5.7726488e-07
-9.9165165e-09
5.7823504e-07
-1.1734818e-08
5.7947263e-07
-1.3753235e-08
5.8104682e-07
-1.6012815e-08
5.8305232e-07
-1.8561462e-08
5.8561994e-07
-2.1452354e-08
5.8892824e-07
-2.4739599e-08
5.9321655e-07
-2.8569126e-08
5.9897058e-07
-3.3586664e-08
6.0839428e-07
-4.0069773e-08
6.2673384e-07
-4.1097361e-08
6.397194e-07
-2.3389451e-08
5.5268007e-07
2.3198224e-07
1.6004468e-08
1.7038026e-07
3.911144e-08
5.0221509e-07
4.4074249e-08
6.476054e-07
3.8245632e-08
6.4900568e-07
3.2612488e-08
6.2356281e-07
2.8551825e-08
6.0900436e-07
2.5145594e-08
6.0106735e-07
2.2100362e-08
5.9540959e-07
1.9372217e-08
5.9101933e-07
1.6925039e-08
5.8759176e-07
1.4719807e-08
5.8490196e-07
1.2720882e-08
5.827781e-07
1.0896302e-08
5.8109508e-07
9.2174988e-09
5.7976134e-07
7.6589476e-09
5.7870898e-07
6.1977499e-09
5.7788749e-07
4.8132065e-09
5.772594e-07
3.4863904e-09
5.7679732e-07
2.1997258e-09
5.7648183e-07
9.3657945e-10
5.7630006e-07
-3.1913599e-10
5.7624483e-07
-1.583349e-09
5.7631409e-07
-2.872221e-09
5.7651088e-07
-4.202537e-09
5.7684349e-07
-5.5921047e-09
5.7732598e-07
-7.0601695e-09
5.7797925e-07
-8.6278416e-09
5.7883255e-07
-1.0318534e-08
5.7992573e-07
-1.2158418e-08
5.8131251e-07
-1.4176844e-08
5.8306524e-07
-1.6406699e-08
5.8528218e-07
-1.8884802e-08
5.8809804e-07
-2.1649377e-08
5.9169281e-07
-2.4740977e-08
5.9630815e-07
-2.8327916e-08
6.0255752e-07
-3.3035533e-08
6.1310189e-07
-3.8460384e-08
6.3215869e-07
-3.71442e-08
6.3840322e-07
-1.9152765e-08
5.3468864e-07
2.1282948e-07
1.2411666e-08
1.5796908e-07
3.4076784e-08
4.8055081e-07
4.1196857e-08
6.4048567e-07
3.7024923e-08
6.5317755e-07
3.1891441e-08
6.2869622e-07
2.8120584e-08
6.1277521e-07
2.4987e-08
6.0420094e-07
2.2148977e-08
5.9824761e-07
1.9561481e-08
5.9360683e-07
1.7203853e-08
5.8994939e-07
1.5049408e-08
5.870564e-07
1.3071783e-08
5.8475572e-07
1.1246287e-08
5.8292058e-07
9.5500085e-09
5.8145762e-07
7.9617729e-09
5.8029722e-07
6.4620088e-09
5.7938725e-07
5.0325711e-09
5.7868884e-07
3.656513e-09
5.7817338e-07
2.3178305e-09
5.7782051e-07
1.0011919e-09
5.776167e-07
-3.0833964e-10
5.7755436e-07
-1.6255843e-09
5.7763133e-07
-2.9655321e-09
5.7785083e-07
-4.3436238e-09
5.7822158e-07
-5.7760292e-09
5.7875838e-07
-7.2799206e-09
5.7948315e-07
-8.8737325e-09
5.8042636e-07
-1.0577393e-08
5.8162939e-07
-1.2412533e-08
5.8314765e-07
-1.4402646e-08
5.8505536e-07
-1.657312e-08
5.8745265e-07
-1.8950918e-08
5.9047584e-07
-2.1561641e-08
5.9430354e-07
-2.443951e-08
5.9918602e-07
-2.7778164e-08
6.0589617e-07
-3.2120964e-08
6.1744469e-07
-3.6415922e-08
6.3645365e-07
-3.3186492e-08
6.3517379e-07
-1.5531139e-08
5.1703328e-07
1.9729834e-07
9.6437936e-09
1.4832586e-07
2.9603314e-08
4.6059235e-07
3.822067e-08
6.3186883e-07
3.5593469e-08
6.5580472e-07
3.0997972e-08
6.3329162e-07
2.7495521e-08
6.1627764e-07
2.4617628e-08
6.0707883e-07
2.1989105e-08
6.0087614e-07
1.9554114e-08
5.9604182e-07
1.7302603e-08
5.922009e-07
1.5217895e-08
5.8914111e-07
1.328135e-08
5.8669227e-07
1.1474573e-08
5.8472735e-07
9.7797742e-09
5.8315242e-07
8.1798826e-09
5.8189711e-07
6.6586093e-09
5.8090852e-07
5.2004397e-09
5.8014701e-07
3.790559e-09
5.7958326e-07
2.4147307e-09
5.7919634e-07
1.0591462e-09
5.7897228e-07
-2.8974654e-10
5.7890325e-07
-1.6454217e-09
5.7898701e-07
-3.0214635e-09
5.7922687e-07
-4.4317468e-09
5.7963186e-07
-5.8906069e-09
5.8021724e-07
-7.4129916e-09
5.8100553e-07
-9.0145846e-09
5.8202796e-07
-1.0711881e-08
5.8332668e-07
-1.2522215e-08
5.8495799e-07
-1.4463753e-08
5.8699689e-07
-1.6555317e-08
5.8954421e-07
-1.8815474e-08
5.9273599e-07
-2.1259855e-08
5.9674792e-07
-2.3922526e-08
6.0184869e-07
-2.7018524e-08
6.0899217e-07
-3.096097e-08
6.2138714e-07
-3.4140402e-08
6.3963308e-07
-2.9429234e-08
6.3046262e-07
-1.2519834e-08
5.0012388e-07
1.847785e-07
7.5520111e-09
1.4077451e-07
2.5738621e-08
4.4240704e-07
3.5316451e-08
6.2229173e-07
3.4060999e-08
6.5706019e-07
3.0014897e-08
6.3733761e-07
2.6756451e-08
6.1953605e-07
2.4107008e-08
6.0972828e-07
2.1678386e-08
6.0330476e-07
1.939727e-08
5.9832294e-07
1.7259228e-08
5.9433894e-07
1.5255304e-08
5.9114503e-07
1.3373049e-08
5.8857452e-07
1.1599281e-08
5.8650112e-07
9.9206107e-09
5.8483109e-07
8.3236481e-09
5.8349407e-07
6.7951621e-09
5.8243701e-07
5.3221849e-09
5.8161999e-07
3.8920439e-09
5.810134e-07
2.4923425e-09
5.8059604e-07
1.1109041e-09
5.8035372e-07
-2.6430873e-10
5.8027846e-07
-1.6452885e-09
5.8036799e-07
-3.0440848e-09
5.8062567e-07
-4.4728984e-09
5.8106068e-07
-5.9441603e-09
5.8168851e-07
-7.4705865e-09
5.8253196e-07
-9.065197e-09
5.8362257e-07
-1.074128e-08
5.8500277e-07
-1.2512303e-08
5.8672901e-07
-1.4391788e-08
5.8887638e-07
-1.6393015e-08
5.9154544e-07
-1.8527687e-08
5.9487067e-07
-2.080444e-08
5.9902467e-07
-2.3262248e-08
6.043065e-07
-2.6129135e-08
6.1185906e-07
-2.9656449e-08
6.2491445e-07
-3.1795324e-08
6.4177196e-07
-2.5994626e-08
6.2466192e-07
-1.0072123e-08
4.8420138e-07
1.7470638e-07
5.9957346e-09
1.3477957e-07
2.2460864e-08
4.2594351e-07
3.2585954e-08
6.1216762e-07
3.250781e-08
6.5713843e-07
2.900212e-08
6.4084315e-07
2.5963353e-08
6.2257476e-07
2.3510309e-08
6.1218132e-07
2.1264249e-08
6.0555083e-07
1.9131004e-08
6.0045618e-07
1.7107045e-08
5.963629e-07
1.5188904e-08
5.9306317e-07
1.3368878e-08
5.9039455e-07
1.1637902e-08
5.882321e-07
9.9862246e-09
5.8648276e-07
8.4036156e-09
5.8507668e-07
6.8795753e-09
5.8396105e-07
5.4034922e-09
5.8309607e-07
3.9647434e-09
5.8245215e-07
2.5527461e-09
5.8200804e-07
1.1569734e-09
5.8174949e-07
-2.3305733e-10
5.8166849e-07
-1.6278087e-09
5.8176274e-07
-3.0377562e-09
5.8203562e-07
-4.473412e-09
5.8249633e-07
-5.9453327e-09
5.8316043e-07
-7.4641004e-09
5.8405072e-07
-9.040267e-09
5.8519873e-07
-1.0684249e-08
5.8664675e-07
-1.2406165e-08
5.8845093e-07
-1.4215662e-08
5.9068587e-07
-1.6121533e-08
5.9345131e-07
-1.8130202e-08
5.9687933e-07
-2.0246384e-08
6.0114085e-07
-2.2517462e-08
6.0657758e-07
-2.5173356e-08
6.1451495e-07
-2.8287811e-08
6.2802891e-07
-2.9494722e-08
6.4297887e-07
-2.2937796e-08
6.1810499e-07
-8.1194951e-09
4.6938308e-07
1.6658689e-07
4.8522552e-09
1.2992826e-07
1.9711438e-08
4.1108625e-07
3.0077342e-08
6.0180301e-07
3.09861e-08
6.5622987e-07
2.7998943e-08
6.4383015e-07
2.5158317e-08
6.2541531e-07
2.2869477e-08
6.1447015e-07
2.0784585e-08
6.0763572e-07
1.8788446e-08
6.0245232e-07
1.6874477e-08
5.9827687e-07
1.5042648e-08
5.94895e-07
1.3288686e-08
5.9214851e-07
1.1606629e-08
5.8991415e-07
9.9895996e-09
5.8809979e-07
8.4299848e-09
5.8663629e-07
6.9196364e-09
5.854714e-07
5.4500452e-09
5.8456566e-07
4.0124756e-09
5.8388972e-07
2.5980622e-09
5.8342245e-07
1.1978734e-09
5.8314968e-07
-1.9704803e-10
5.8306342e-07
-1.5956577e-09
5.8316135e-07
-3.006889e-09
5.8344685e-07
-4.4396229e-09
5.8392906e-07
-5.9026445e-09
5.8462345e-07
-7.404572e-09
5.8555265e-07
-8.9537541e-09
5.8674792e-07
-1.0558126e-08
5.8825112e-07
-1.2225026e-08
5.9011783e-07
-1.3961002e-08
5.9242185e-07
-1.5771396e-08
5.952617e-07
-1.7658879e-08
5.9876682e-07
-1.9627033e-08
6.0310901e-07
-2.1733346e-08
6.0868389e-07
-2.4197688e-08
6.1697929e-07
-2.6913608e-08
6.3074483e-07
-2.7310532e-08
6.4337579e-07
-2.0267986e-08
6.1106245e-07
-6.5862575e-09
4.5570135e-07
1.6000063e-07
4.0192128e-09
1.2591016e-07
1.7417815e-08
3.9768995e-07
2.7804473e-08
5.9141801e-07
2.952634e-08
6.5450836e-07
2.7028367e-08
6.4632795e-07
2.4368321e-08
6.2807525e-07
2.2214463e-08
6.16624e-07
2.0268297e-08
6.0958189e-07
1.8396011e-08
6.0432461e-07
1.6585012e-08
6.0008787e-07
1.4836935e-08
5.9664308e-07
1.3149831e-08
5.9383561e-07
1.1519955e-08
5.9154403e-07
9.9426027e-09
5.8967715e-07
8.4122506e-09
5.8816665e-07
6.9227096e-09
5.8696094e-07
5.4672876e-09
5.8602108e-07
4.0389334e-09
5.8531808e-07
2.6303543e-09
5.8483103e-07
1.2341094e-09
5.8454593e-07
-1.5731585e-10
5.8445484e-07
-1.551446e-09
5.8455548e-07
-2.9557567e-09
5.8485116e-07
-4.3776082e-09
5.8535092e-07
-5.824166e-09
5.8607001e-07
-7.3022995e-09
5.8703078e-07
-8.8184547e-09
5.8826407e-07
-1.0378499e-08
5.8981116e-07
-1.1987547e-08
5.9172687e-07
-1.3649781e-08
5.9408408e-07
-1.5368025e-08
5.9697995e-07
-1.7142563e-08
6.0054136e-07
-1.897813e-08
6.0494457e-07
-2.094237e-08
6.1064813e-07
-2.3233871e-08
6.1927079e-07
-2.5573382e-08
6.3308434e-07
-2.5282336e-08
6.4308474e-07
-1.7966547e-08
6.0374666e-07
-5.39801e-09
4.4313281e-07
1.5460262e-07
3.4139356e-09
1.2249755e-07
1.550614e-08
3.8560049e-07
2.5760623e-08
5.8116561e-07
2.8143787e-08
6.5212573e-07
2.6102051e-08
6.4836951e-07
2.360903e-08
6.3056813e-07
2.1565372e-08
6.1866763e-07
1.9736423e-08
6.1141084e-07
1.7973951e-08
6.0608708e-07
1.6257406e-08
6.0180441e-07
1.4588608e-08
5.9831188e-07
1.2967047e-08
5.9545717e-07
1.1390473e-08
5.931206e-07
9.8557548e-09
5.9121186e-07
8.3589767e-09
5.8966342e-07
6.8955328e-09
5.8842438e-07
5.4602584e-09
5.8745636e-07
4.0475644e-09
5.8673077e-07
2.651559e-09
5.8622704e-07
1.2661541e-09
5.8593133e-07
-1.1484057e-10
5.8583583e-07
-1.497631e-09
5.8593827e-07
-2.8883569e-09
5.8624188e-07
-4.2930012e-09
5.8675556e-07
-5.7172917e-09
5.874943e-07
-7.166585e-09
5.8848008e-07
-8.6457331e-09
5.8974322e-07
-1.0158937e-08
5.9132437e-07
-1.17096e-08
5.9327754e-07
-1.3300184e-08
5.9567467e-07
-1.4931787e-08
5.9861155e-07
-1.6603475e-08
6.0221304e-07
-1.8322855e-08
6.0666395e-07
-2.0166501e-08
6.1249178e-07
-2.2302139e-08
6.2140643e-07
-2.429177e-08
6.3507397e-07
-2.3426792e-08
6.4221977e-07
-1.5999396e-08
5.9631926e-07
-4.4863274e-09
4.3161974e-07
1.5011629e-07
2.9717991e-09
1.1952732e-07
1.3907903e-08
3.7466764e-07
2.392783e-08
5.7114827e-07
2.6843428e-08
6.4921092e-07
2.522416e-08
6.4998862e-07
2.2888228e-08
6.3290388e-07
2.0934843e-08
6.2062098e-07
1.9203643e-08
6.1314205e-07
1.753727e-08
6.0775346e-07
1.5906176e-08
6.0343551e-07
1.4311171e-08
5.9990688e-07
1.2752495e-08
5.9701585e-07
1.1228833e-08
5.9464427e-07
9.7381344e-09
5.9270256e-07
8.277678e-09
5.9112388e-07
6.8441006e-09
5.8985796e-07
5.4334895e-09
5.8886697e-07
4.0414944e-09
5.8812276e-07
2.6634405e-09
5.8760509e-07
1.2944372e-09
5.8730034e-07
-7.0521313e-11
5.8720079e-07
-1.4364578e-09
5.8730421e-07
-2.8083189e-09
5.8761374e-07
-4.1908725e-09
5.8813811e-07
-5.5886026e-09
5.8889203e-07
-7.0055912e-09
5.8989707e-07
-8.4453926e-09
5.9118302e-07
-9.9109086e-09
5.9278988e-07
-1.140428e-08
5.9477091e-07
-1.2926785e-08
5.9719717e-07
-1.4478449e-08
6.0016321e-07
-1.6058086e-08
6.0379268e-07
-1.7677334e-08
6.082832e-07
-1.9419563e-08
6.1423401e-07
-2.1414091e-08
6.2340096e-07
-2.3082027e-08
6.367419e-07
-2.1744897e-08
6.4088264e-07
-1.4325398e-08
5.8889976e-07
-3.7913068e-09
4.2108565e-07
1.4632498e-07
2.6439722e-09
1.168852e-07
1.2563322e-08
3.6475213e-07
2.2283236e-08
5.6143154e-07
2.5623728e-08
6.4587151e-07
2.4394072e-08
6.5121815e-07
2.220838e-08
6.3508936e-07
2.0330057e-08
6.2249924e-07
1.8679729e-08
6.1479238e-07
1.7096727e-08
6.0933646e-07
1.5542256e-08
6.0498998e-07
1.4015185e-08
6.0143395e-07
1.2515974e-08
5.9851506e-07
1.1043826e-08
5.9611641e-07
9.5973893e-09
5.94149e-07
8.1747908e-09
5.9254648e-07
6.773617e-09
5.9125913e-07
5.390957e-09
5.9024963e-07
4.0234864e-09
5.8949023e-07
2.6675657e-09
5.8896101e-07
1.3193401e-09
5.8864856e-07
-2.5159957e-11
5.8854529e-07
-1.3699222e-09
5.8864897e-07
-2.7188506e-09
5.8896267e-07
-4.0756665e-09
5.8949493e-07
-5.4438029e-09
5.9026016e-07
-6.8262947e-09
5.9127956e-07
-8.225669e-09
5.9258239e-07
-9.6438494e-09
5.9420806e-07
-1.1082092e-08
5.9620915e-07
-1.254092e-08
5.98656e-07
-1.4019811e-08
6.016421e-07
-1.5518096e-08
6.0529097e-07
-1.7052079e-08
6.0981718e-07
-1.8709209e-08
6.1589114e-07
-2.0574941e-08
6.2526669e-07
-2.1949048e-08
6.3811601e-07
-2.0227775e-08
6.3916136e-07
-1.2901974e-08
5.8157396e-07
-3.2625454e-09
4.1144622e-07
1.4306244e-07
2.3947211e-09
1.1449265e-07
1.1422441e-08
3.5572893e-07
2.080318e-08
5.5205466e-07
2.4479522e-08
6.4219664e-07
2.3608375e-08
6.5208923e-07
2.1568515e-08
6.3712896e-07
1.9754299e-08
6.2431338e-07
1.8170744e-08
6.1637593e-07
1.665974e-08
6.1084747e-07
1.5173647e-08
6.0647607e-07
1.3708704e-08
6.0289889e-07
1.2265198e-08
5.9995857e-07
1.0842554e-08
5.9753906e-07
9.4398225e-09
5.9555173e-07
8.0557088e-09
5.9393059e-07
6.6885013e-09
5.9262634e-07
5.3360721e-09
5.9160206e-07
3.9959297e-09
5.9083038e-07
2.6652964e-09
5.9029164e-07
1.3411955e-09
5.8997266e-07
2.0544044e-11
5.8986594e-07
-1.2997556e-09
5.8996927e-07
-2.6227191e-09
5.9028564e-07
-3.951185e-09
5.9082339e-07
-5.2877185e-09
5.915967e-07
-6.6345145e-09
5.9262635e-07
-7.9933109e-09
5.9394119e-07
-9.3653248e-09
5.9558008e-07
-1.0751231e-08
5.9759505e-07
-1.2151134e-08
6.000559e-07
-1.3564363e-08
6.0305533e-07
-1.4991349e-08
6.0671795e-07
-1.6453244e-08
6.1127908e-07
-1.8038562e-08
6.1747646e-07
-1.9785405e-08
6.2701353e-07
-2.0892045e-08
6.3922265e-07
-1.8861199e-08
6.3713052e-07
-1.1688852e-08
5.7440161e-07
-2.8590315e-09
4.026164e-07
1.4020341e-07
2.1986714e-09
1.1229654e-07
1.0444763e-08
3.4748814e-07
1.9465479e-08
5.430386e-07
2.3404061e-08
6.3825997e-07
2.2862341e-08
6.5263098e-07
2.0965658e-08
6.3902534e-07
1.9208208e-08
6.2607072e-07
1.7680029e-08
6.179041e-07
1.6231154e-08
6.1229635e-07
1.4806002e-08
6.0790122e-07
1.3397713e-08
6.0430718e-07
1.2006107e-08
6.0135017e-07
1.063063e-08
5.9891453e-07
9.2705234e-09
5.9691184e-07
7.92486e-09
5.9527626e-07
6.59243e-09
5.9395877e-07
5.2717027e-09
5.9292278e-07
3.9608483e-09
5.9214123e-07
2.6577932e-09
5.915947e-07
1.3602908e-09
5.9127016e-07
6.6001877e-11
5.9116023e-07
-1.2274226e-09
5.9126269e-07
-2.522255e-09
5.9158047e-07
-3.8206053e-09
5.9212174e-07
-5.124337e-09
5.9290043e-07
-6.434989e-09
5.93937e-07
-7.7537119e-09
5.9525991e-07
-9.081238e-09
5.969076e-07
-1.0417898e-08
5.9893171e-07
-1.1763625e-08
6.0140163e-07
-1.3117897e-08
6.044096e-07
-1.4482661e-08
6.0808272e-07
-1.588372e-08
6.1268013e-07
-1.7407597e-08
6.1900033e-07
-1.9043283e-08
6.2864922e-07
-1.9906737e-08
6.400861e-07
-1.7628744e-08
6.3485252e-07
-1.0650077e-08
5.6742295e-07
-2.5483147e-09
3.9451464e-07
1.3765509e-07
2.0383419e-09
1.102612e-07
9.5981365e-09
3.3993455e-07
1.825048e-08
5.3439182e-07
2.2390295e-08
6.3412262e-07
2.2150901e-08
6.5287054e-07
2.0395849e-08
6.4078005e-07
1.8690742e-08
6.2777568e-07
1.7209007e-08
6.1938582e-07
1.5813893e-08
6.1369147e-07
1.4443142e-08
6.0927198e-07
1.3086517e-08
6.0566381e-07
1.1743157e-08
6.0269353e-07
1.0412393e-08
6.002453e-07
9.0935165e-09
5.9823071e-07
7.7858087e-09
5.9658396e-07
6.4884036e-09
5.9525617e-07
5.200214e-09
5.9421097e-07
3.9199254e-09
5.9342152e-07
2.6460282e-09
5.9286859e-07
1.3768712e-09
5.9253932e-07
1.1072774e-10
5.9242638e-07
-1.1541343e-09
5.9252755e-07
-2.4193772e-09
5.9284571e-07
-3.6865214e-09
5.9338889e-07
-4.9568766e-09
5.9417078e-07
-6.2314822e-09
5.9521161e-07
-7.511069e-09
5.965395e-07
-8.7960586e-09
5.9819259e-07
-1.0086615e-08
6.0022227e-07
-1.1382676e-08
6.0269769e-07
-1.2684082e-08
6.0571101e-07
-1.3994561e-08
6.0939319e-07
-1.5344086e-08
6.1402966e-07
-1.6814261e-08
6.2047051e-07
-1.8344677e-08
6.3017964e-07
-1.8986967e-08
6.4072839e-07
-1.6513722e-08
6.3237928e-07
-9.7545066e-09
5.6066373e-07
-2.3052864e-09
3.8706542e-07
1.353498e-07
1.9020648e-09
1.0836265e-07
8.8573965e-09
3.3298645e-07
1.7141344e-08
5.2611449e-07
2.1431576e-08
6.298355e-07
2.1469215e-08
6.5283324e-07
1.9854817e-08
6.4239407e-07
1.819988e-08
6.2943043e-07
1.6757812e-08
6.2082786e-07
1.5409493e-08
6.150398e-07
1.4087499e-08
6.1059397e-07
1.27781e-08
6.0697321e-07
1.1479595e-08
6.0399203e-07
1.0191118e-08
6.0153377e-07
8.9119159e-09
5.9950992e-07
7.6413653e-09
5.9785451e-07
6.3788226e-09
5.9651872e-07
5.1235202e-09
5.9546627e-07
3.8745355e-09
5.946705e-07
2.6308019e-09
5.9411233e-07
1.3911449e-09
5.9377898e-07
1.5433274e-10
5.9366319e-07
-1.0808675e-09
5.9376275e-07
-2.3156274e-09
5.9408047e-07
-3.5510008e-09
5.9462426e-07
-4.7878698e-09
5.9540765e-07
-6.0269054e-09
5.9645065e-07
-7.2685518e-09
5.9778115e-07
-8.5130536e-09
5.9943709e-07
-9.760534e-09
6.0146975e-07
-1.1011056e-08
6.0394821e-07
-1.2264967e-08
6.0696492e-07
-1.3527916e-08
6.1065614e-07
-1.4833367e-08
6.1533511e-07
-1.6255311e-08
6.2189245e-07
-1.7684856e-08
6.3160918e-07
-1.8125812e-08
6.4116935e-07
-1.5500367e-08
6.2975383e-07
-8.975934e-09
5.541393e-07
-2.1109751e-09
3.8020046e-07
1.3323883e-07
1.7823017e-09
1.0658446e-07
8.2030139e-09
3.2657416e-07
1.6123935e-08
5.1820139e-07
2.0521988e-08
6.2544133e-07
2.0812959e-08
6.5254285e-07
1.933838e-08
6.4386825e-07
1.7733103e-08
6.3103547e-07
1.6325746e-08
6.2223518e-07
1.5018515e-08
6.1634704e-07
1.3740475e-08
6.1187202e-07
1.2474425e-08
6.0823926e-07
1.1217709e-08
6.0524875e-07
9.9692095e-09
6.0278227e-07
8.7280743e-09
6.0075105e-07
7.4936986e-09
5.9908889e-07
6.2655692e-09
5.9774685e-07
5.0431405e-09
5.966887e-07
3.8257804e-09
5.9588786e-07
2.6127632e-09
5.9532534e-07
1.4032883e-09
5.9498845e-07
1.9651637e-10
5.9486996e-07
-1.0083893e-09
5.9496766e-07
-2.2122138e-09
5.9528429e-07
-3.415649e-09
5.958277e-07
-4.6192559e-09
5.9661126e-07
-5.8234429e-09
5.9765483e-07
-7.0284717e-09
5.9898617e-07
-8.2345079e-09
6.0064313e-07
-9.4417198e-09
6.0267696e-07
-1.0650369e-08
6.0515686e-07
-1.1861409e-08
6.0817596e-07
-1.3082445e-08
6.1187718e-07
-1.4349605e-08
6.1660227e-07
-1.5726912e-08
6.2326976e-07
-1.7058856e-08
6.3294112e-07
-1.7316319e-08
6.4142681e-07
-1.4574464e-08
6.2701198e-07
-8.2927635e-09
5.478576e-07
-1.9513794e-09
3.7385908e-07
1.3128745e-07
1.6743355e-09
1.0491495e-07
7.6198718e-09
3.2063842e-07
1.5186505e-08
5.1064396e-07
1.9656437e-08
6.2097619e-07
2.0178432e-08
6.5202174e-07
1.8842666e-08
6.452036e-07
1.7287704e-08
6.3259014e-07
1.5911608e-08
6.2361122e-07
1.4640858e-08
6.1761779e-07
1.3402725e-08
6.1311015e-07
1.2176683e-08
6.094653e-07
1.095903e-08
6.064664e-07
9.74837e-09
6.0399293e-07
8.5437195e-09
6.019557e-07
7.3444413e-09
6.0028817e-07
6.1500869e-09
5.989412e-07
4.9602563e-09
5.9787853e-07
3.7745271e-09
5.9707359e-07
2.5924294e-09
5.9650744e-07
1.4134503e-09
5.9616743e-07
2.370551e-10
5.9604635e-07
-9.3728474e-10
5.96142e-07
-2.110056e-09
5.9645707e-07
-3.2816766e-09
5.9699932e-07
-4.4524731e-09
5.9778205e-07
-5.6226752e-09
5.9882503e-07
-6.7924405e-09
6.0015594e-07
-7.9619244e-09
6.0181261e-07
-9.1313942e-09
6.0384643e-07
-1.0301353e-08
6.0632682e-07
-1.1473419e-08
6.0934803e-07
-1.2657104e-08
6.1306086e-07
-1.3890295e-08
6.1783546e-07
-1.5225052e-08
6.2460451e-07
-1.6461857e-08
6.3417793e-07
-1.6551953e-08
6.4151691e-07
-1.372359e-08
6.2418361e-07
-7.6874729e-09
5.4182148e-07
-1.8163924e-09
3.67988e-07
1.2947106e-07
1.5753e-09
1.033453e-07
7.0962326e-09
3.1512887e-07
1.4319305e-08
5.0343167e-07
1.8830612e-08
6.1647072e-07
1.9562553e-08
6.5129106e-07
1.8364211e-08
6.4640154e-07
1.6860984e-08
6.3409302e-07
1.5513915e-08
6.2495821e-07
1.4275978e-08
6.1885573e-07
1.3074376e-08
6.1431176e-07
1.1885491e-08
6.1065419e-07
1.0704514e-08
6.0764738e-07
9.5297512e-09
6.051677e-07
8.3600757e-09
6.0312538e-07
7.194787e-09
6.0145346e-07
6.0334539e-09
6.0010253e-07
4.8757652e-09
5.9903622e-07
3.7214434e-09
5.9822791e-07
2.5702059e-09
5.9765868e-07
1.421756e-09
5.9731588e-07
2.7579037e-10
5.9719232e-07
-8.679847e-10
5.9728577e-07
-2.0098311e-09
5.9759891e-07
-3.1499649e-09
5.9813945e-07
-4.2885468e-09
5.9892064e-07
-5.4256928e-09
5.9996218e-07
-6.5615136e-09
6.0129176e-07
-7.6961994e-09
6.029473e-07
-8.8301467e-09
6.0498038e-07
-9.9641222e-09
6.074608e-07
-1.1100434e-08
6.1048434e-07
-1.2250385e-08
6.1421081e-07
-1.3452685e-08
6.1903776e-07
-1.4745815e-08
6.2589764e-07
-1.588942e-08
6.3532153e-07
-1.5826821e-08
6.4145431e-07
-1.2937115e-08
6.2129391e-07
-7.1460018e-09
5.3603037e-07
-1.6988706e-09
3.6254086e-07
1.2777219e-07
1.4834921e-09
1.0186842e-07
6.622906e-09
3.1000265e-07
1.3514211e-08
4.9655296e-07
1.8040875e-08
6.1195112e-07
1.8962792e-08
6.5037088e-07
1.7899983e-08
6.4746397e-07
1.6450359e-08
6.3554223e-07
1.5131052e-08
6.262774e-07
1.3923061e-08
6.2006372e-07
1.2755188e-08
6.1547964e-07
1.1601047e-08
6.1180833e-07
1.0454678e-08