/*--------------------------------*- C++ -*----------------------------------*\
  =========                 |
  \\      /  F ield         | OpenFOAM: The Open Source CFD Toolbox
   \\    /   O peration     | Website:  https://openfoam.org
    \\  /    A nd           | Version:  10
     \\/     M anipulation  |
\*---------------------------------------------------------------------------*/
FoamFile
{
    format      ascii;
    class       surfaceScalarField;
    location    "0.15";
    object      phi_0;
}
// * * * * * * * * * * * * * * * * * * * * * * * * * * * * * * * * * * * * * //

dimensions      [1 0 -1 0 0 0 0];

internalField   nonuniform List<scalar> 
7860
(
3.989472e-08
5.2881331e-07
1.2191761e-08
5.9641075e-07
7.4269123e-09
5.7347258e-07
5.498297e-09
5.7063631e-07
4.1138416e-09
5.7009212e-07
3.2000003e-09
5.6962148e-07
2.5580456e-09
5.6934958e-07
2.0782841e-09
5.6918737e-07
1.7083851e-09
5.690775e-07
1.4158224e-09
5.6900015e-07
1.1787984e-09
5.6894461e-07
9.8254823e-10
5.6890382e-07
8.1672621e-10
5.6887339e-07
6.7384009e-10
5.6885045e-07
5.4831455e-10
5.6883309e-07
4.3588688e-10
5.6881999e-07
3.3320127e-10
5.6881024e-07
2.3752822e-10
5.6880323e-07
1.4656258e-10
5.6879852e-07
5.8270865e-11
5.6879584e-07
-2.923195e-11
5.6879505e-07
-1.1779016e-10
5.6879611e-07
-2.0931283e-10
5.6879907e-07
-3.0587989e-10
5.6880412e-07
-4.0987447e-10
5.6881155e-07
-5.2414618e-10
5.6882183e-07
-6.5223163e-10
5.6883565e-07
-7.9866736e-10
5.68854e-07
-9.6945058e-10
5.6887835e-07
-1.1727457e-09
5.6891087e-07
-1.4200575e-09
5.6895489e-07
-1.7282016e-09
5.6901573e-07
-2.1221614e-09
5.6910156e-07
-2.6418241e-09
5.6922727e-07
-3.3696061e-09
5.6943541e-07
-4.4610909e-09
5.6979913e-07
-6.0067948e-09
5.7025337e-07
-9.5060378e-09
5.7220694e-07
-2.9573452e-08
5.8877516e-07
5.3913446e-07
5.9669531e-08
4.6914379e-07
3.6662455e-08
6.1941782e-07
2.2624773e-08
5.8751026e-07
1.625e-08
5.7701108e-07
1.2286861e-08
5.7405526e-07
9.6026488e-09
5.723057e-07
7.6739991e-09
5.7127823e-07
6.2328693e-09
5.706285e-07
5.1236542e-09
5.7018671e-07
4.2462741e-09
5.6987753e-07
3.5353878e-09
5.6965549e-07
2.9468202e-09
5.6949239e-07
2.4495195e-09
5.6937069e-07
2.021004e-09
5.6927897e-07
1.6445524e-09
5.6920954e-07
1.3073806e-09
5.6915716e-07
9.9942455e-10
5.691182e-07
7.1249876e-10
5.6909015e-07
4.3969037e-10
5.6907133e-07
1.7490038e-10
5.6906063e-07
-8.7525017e-11
5.6905748e-07
-3.5311663e-10
5.690617e-07
-6.2759439e-10
5.6907355e-07
-9.1719861e-10
5.6909372e-07
-1.2290765e-09
5.6912343e-07
-1.5717735e-09
5.6916453e-07
-1.9558955e-09
5.6921977e-07
-2.3950475e-09
5.6929315e-07
-2.9072218e-09
5.6939053e-07
-3.5169208e-09
5.6952057e-07
-4.2585743e-09
5.6969654e-07
-5.1825594e-09
5.6993972e-07
-6.3655154e-09
5.7028451e-07
-7.9261792e-09
5.7078794e-07
-1.0067793e-08
5.7157702e-07
-1.3196523e-08
5.7292786e-07
-1.8127176e-08
5.7518402e-07
-2.816973e-08
5.822495e-07
-4.5796794e-08
6.0640222e-07
4.9333767e-07
6.0004295e-08
4.0913955e-07
5.0480741e-08
6.2894137e-07
3.3364439e-08
6.0462656e-07
2.4811351e-08
5.8556417e-07
1.9316824e-08
5.7954979e-07
1.5325166e-08
5.7629735e-07
1.235464e-08
5.7424876e-07
1.0095874e-08
5.7288727e-07
8.3354781e-09
5.7194711e-07
6.9303215e-09
5.7128269e-07
5.7843141e-09
5.708015e-07
4.8306799e-09
5.7044603e-07
4.0216435e-09
5.7017973e-07
3.3222083e-09
5.699784e-07
2.7060992e-09
5.6982565e-07
2.1530724e-09
5.6971018e-07
1.6470906e-09
5.6962418e-07
1.1750425e-09
5.695622e-07
7.2580839e-10
5.6952056e-07
2.8954761e-10
5.6949689e-07
-1.4287933e-10
5.6948991e-07
-5.8041644e-10
5.6949924e-07
-1.0323056e-09
5.6952544e-07
-1.5086069e-09
5.6957002e-07
-2.0208012e-09
5.6963562e-07
-2.5825497e-09
5.6972627e-07
-3.2107059e-09
5.6984792e-07
-3.9267264e-09
5.7000917e-07
-4.7587213e-09
5.7022252e-07
-5.7445177e-09
5.7050636e-07
-6.9363188e-09
5.7088835e-07
-8.4083425e-09
5.7141174e-07
-1.027001e-08
5.7214618e-07
-1.2683223e-08
5.7320115e-07
-1.5881176e-08
5.7477497e-07
-2.0225818e-08
5.772725e-07
-2.6695077e-08
5.8165328e-07
-3.8934839e-08
5.9448926e-07
-4.8157552e-08
6.1562494e-07
4.4518012e-07
5.4873194e-08
3.5426644e-07
5.744223e-08
6.2637235e-07
4.0457818e-08
6.2161095e-07
3.0769218e-08
5.9525277e-07
2.4633429e-08
5.8568558e-07
1.9942813e-08
5.8098797e-07
1.6303837e-08
5.7788773e-07
1.3458014e-08
5.7573309e-07
1.1193212e-08
5.7421191e-07
9.3577102e-09
5.7311819e-07
7.8436102e-09
5.723156e-07
6.5724083e-09
5.7171723e-07
5.4862427e-09
5.7126589e-07
4.5417852e-09
5.7092286e-07
3.7059253e-09
5.7066151e-07
2.9527893e-09
5.7046332e-07
2.2616428e-09
5.7031532e-07
1.6153737e-09
5.7020847e-07
9.9935918e-10
5.7013657e-07
4.0058683e-10
5.7009567e-07
-1.9306898e-10
5.7008356e-07
-7.9348719e-10
5.7009966e-07
-1.4129209e-09
5.7014487e-07
-2.0646524e-09
5.7022176e-07
-2.7637433e-09
5.7033471e-07
-3.5279624e-09
5.7049049e-07
-4.3789937e-09
5.7069895e-07
-5.3440685e-09
5.7097425e-07
-6.4582467e-09
5.713367e-07
-7.7676771e-09
5.7181579e-07
-9.3341651e-09
5.7245483e-07
-1.1241558e-08
5.7331913e-07
-1.3606151e-08
5.7451077e-07
-1.6589324e-08
5.7618432e-07
-2.0388914e-08
5.7857456e-07
-2.527162e-08
5.8215521e-07
-3.2496707e-08
5.8887837e-07
-4.5080668e-08
6.0707322e-07
-4.6536065e-08
6.1708033e-07
3.9864405e-07
4.795882e-08
3.0630775e-07
6.0062926e-08
6.1426831e-07
4.5386163e-08
6.3628769e-07
3.4861991e-08
6.0577693e-07
2.8386537e-08
5.9216103e-07
2.3406503e-08
5.85968e-07
1.9421703e-08
5.8187253e-07
1.6217358e-08
5.7893743e-07
1.3608929e-08
5.7682034e-07
1.145699e-08
5.7527013e-07
9.6563978e-09
5.7411619e-07
8.1270914e-09
5.7324653e-07
6.8080279e-09
5.7258496e-07
5.6521743e-09
5.7207871e-07
4.6227345e-09
5.7169095e-07
3.6904001e-09
5.7139565e-07
2.8313106e-09
5.7117441e-07
2.0255136e-09
5.7101427e-07
1.2557815e-09
5.7090631e-07
5.0666511e-10
5.7084478e-07
-2.3629849e-10
5.7082652e-07
-9.8729634e-10
5.7085065e-07
-1.7609297e-09
5.7091851e-07
-2.5729368e-09
5.7103376e-07
-3.4410091e-09
5.7120278e-07
-4.3857746e-09
5.7143526e-07
-5.4320382e-09
5.7174522e-07
-6.6103916e-09
5.721526e-07
-7.9593394e-09
5.7268565e-07
-9.5281737e-09
5.7338463e-07
-1.138075e-08
5.7430741e-07
-1.3599913e-08
5.755383e-07
-1.6293999e-08
5.7720486e-07
-1.9606656e-08
5.7949698e-07
-2.370823e-08
5.8267614e-07
-2.890151e-08
5.8734848e-07
-3.676213e-08
5.9673899e-07
-4.8435757e-08
6.1874685e-07
-4.3177546e-08
6.1182212e-07
3.554665e-07
4.0328158e-08
2.6597978e-07
5.8976743e-08
5.9561987e-07
4.8311129e-08
6.4695328e-07
3.7570178e-08
6.1651785e-07
3.0911314e-08
5.9881989e-07
2.5876746e-08
5.9100257e-07
2.1763452e-08
5.8598583e-07
1.837655e-08
5.8232434e-07
1.5563349e-08
5.7963354e-07
1.3201779e-08
5.776317e-07
1.1195877e-08
5.7612209e-07
9.4703275e-09
5.7497208e-07
7.9659627e-09
5.7408932e-07
6.6358531e-09
5.7340882e-07
5.4423451e-09
5.7288445e-07
4.354794e-09
5.724832e-07
3.3477842e-09
5.7218142e-07
2.3997292e-09
5.7196232e-07
1.4917544e-09
5.7181428e-07
6.0677622e-10
5.7172976e-07
-2.7128832e-10
5.7170459e-07
-1.1582391e-09
5.717376e-07
-2.0702953e-09
5.7183056e-07
-3.0248237e-09
5.7198829e-07
-4.0411452e-09
5.722191e-07
-5.1414802e-09
5.7253559e-07
-6.352101e-09
5.7295584e-07
-7.7047658e-09
5.7350526e-07
-9.2385172e-09
5.742194e-07
-1.1001989e-08
5.751481e-07
-1.3056441e-08
5.7636186e-07
-1.5479177e-08
5.7796103e-07
-1.8367638e-08
5.8009332e-07
-2.1846055e-08
5.829754e-07
-2.6070294e-08
5.8690037e-07
-3.1449451e-08
5.9272764e-07
-3.9615509e-08
6.0490505e-07
-4.9135879e-08
6.2826722e-07
-3.8558529e-08
6.0124477e-07
3.1690798e-07
3.2853932e-08
2.331261e-07
5.5228798e-08
5.7324524e-07
4.9207556e-08
6.5297452e-07
3.9038169e-08
6.266872e-07
3.2408075e-08
6.0544998e-07
2.7496683e-08
5.9591396e-07
2.3417533e-08
5.9006498e-07
1.9983078e-08
5.8575879e-07
1.7076719e-08
5.825399e-07
1.4596205e-08
5.8011221e-07
1.2457721e-08
5.7826058e-07
1.0593987e-08
5.7683582e-07
8.9507333e-09
5.7573257e-07
7.483735e-09
5.7487582e-07
6.1566305e-09
5.7421156e-07
4.939161e-09
5.7370067e-07
3.8057279e-09
5.7331486e-07
2.7342166e-09
5.7303383e-07
1.7050197e-09
5.7284348e-07
7.0020624e-10
5.7273457e-07
-2.9721028e-10
5.72702e-07
-1.3039464e-09
5.7274434e-07
-2.3371144e-09
5.7286373e-07
-3.4149058e-09
5.7306608e-07
-4.5573329e-09
5.7336153e-07
-5.7870759e-09
5.7376534e-07
-7.1304801e-09
5.7429924e-07
-8.6187568e-09
5.7499354e-07
-1.0289433e-08
5.7589007e-07
-1.2188128e-08
5.7704679e-07
-1.4370941e-08
5.7854467e-07
-1.6907344e-08
5.8049743e-07
-1.9882228e-08
5.830682e-07
-2.3396443e-08
5.8648961e-07
-2.7591441e-08
5.9109537e-07
-3.2984812e-08
5.9812101e-07
-4.0960291e-08
6.1288053e-07
-4.7642406e-08
6.3494933e-07
-3.3353136e-08
5.869555e-07
2.8355484e-07
2.6179367e-08
2.0694704e-07
5.0107466e-08
5.493175e-07
4.8462409e-08
6.5461962e-07
3.9461263e-08
6.3568829e-07
3.3048994e-08
6.1186223e-07
2.8384354e-08
6.005786e-07
2.4466394e-08
5.9398294e-07
2.1093396e-08
5.8913179e-07
1.8184423e-08
5.8544887e-07
1.5660211e-08
5.8263642e-07
1.3451591e-08
5.804692e-07
1.1501349e-08
5.7878606e-07
9.7619356e-09
5.7747199e-07
8.1935222e-09
5.7644423e-07
6.7625396e-09
5.7564254e-07
5.4404036e-09
5.7502281e-07
4.2024274e-09
5.7455283e-07
3.0268982e-09
5.7420936e-07
1.8942795e-09
5.739761e-07
7.8650804e-10
5.7384234e-07
-3.1364246e-10
5.7380216e-07
-1.4231575e-09
5.7385385e-07
-2.5593744e-09
5.7399995e-07
-3.7405852e-09
5.7424729e-07
-4.9866797e-09
5.7460763e-07
-6.3198596e-09
5.7509851e-07
-7.7654515e-09
5.7574483e-07
-9.3528538e-09
5.7658094e-07
-1.1116644e-08
5.7765386e-07
-1.3097848e-08
5.79028e-07
-1.5345588e-08
5.8079241e-07
-1.79192e-08
5.8307105e-07
-2.0888196e-08
5.860372e-07
-2.4327858e-08
5.8992927e-07
-2.8373623e-08
5.9514114e-07
-3.3629458e-08
6.0337685e-07
-4.0999615e-08
6.2025068e-07
-4.4742721e-08
6.3869244e-07
-2.8178633e-08
5.7039141e-07
2.5537621e-07
2.0560372e-08
1.8638704e-07
4.455372e-08
5.2532466e-07
4.6604544e-08
6.5256892e-07
3.9115849e-08
6.4317692e-07
3.304848e-08
6.1792957e-07
2.8683456e-08
6.0494363e-07
2.5005444e-08
5.9766095e-07
2.1773147e-08
5.9236409e-07
1.8931197e-08
5.8829082e-07
1.6423491e-08
5.8514413e-07
1.4196494e-08
5.8269619e-07
1.2203985e-08
5.8077857e-07
1.0406139e-08
5.7926983e-07
8.7685577e-09
5.7808181e-07
7.261441e-09
5.7714966e-07
5.8587767e-09
5.7642547e-07
4.5376004e-09
5.7587401e-07
3.2773296e-09
5.7546963e-07
2.0591572e-09
5.7519427e-07
8.6549422e-10
5.7503601e-07
-3.2055018e-10
5.749882e-07
-1.515665e-09
5.7504897e-07
-2.7368347e-09
5.7522112e-07
-4.0018403e-09
5.755123e-07
-5.3297845e-09
5.7593557e-07
-6.7416569e-09
5.7651039e-07
-8.2609516e-09
5.7726413e-07
-9.9143521e-09
5.7823434e-07
-1.1732497e-08
5.7947201e-07
-1.3750776e-08
5.8104628e-07
-1.6010237e-08
5.8305187e-07
-1.8558789e-08
5.856196e-07
-2.144961e-08
5.8892802e-07
-2.4736814e-08
5.9321648e-07
-2.8566319e-08
5.9897064e-07
-3.358379e-08
6.0839432e-07
-4.0066829e-08
6.2673372e-07
-4.1094888e-08
6.397205e-07
-2.3388342e-08
5.5268487e-07
2.3198786e-07
1.6003952e-08
1.7038352e-07
3.9109908e-08
5.0221938e-07
4.4072153e-08
6.476069e-07
3.8243542e-08
6.4900546e-07
3.261051e-08
6.2356255e-07
2.8549907e-08
6.0900422e-07
2.5143737e-08
6.0106712e-07
2.2098593e-08
5.9540923e-07
1.937056e-08
5.9101885e-07
1.6923516e-08
5.8759117e-07
1.471844e-08
5.8490127e-07
1.2719687e-08
5.8277732e-07
1.0895297e-08
5.8109422e-07
9.2166984e-09
5.7976041e-07
7.6583648e-09
5.7870799e-07
6.1973956e-09
5.7788644e-07
4.81309e-09
5.7725831e-07
3.4865189e-09
5.767962e-07
2.2001048e-09
5.7648068e-07
9.3721253e-10
5.762989e-07
-3.182474e-10
5.7624366e-07
-1.5822054e-09
5.7631293e-07
-2.8708249e-09
5.7650974e-07
-4.2008929e-09
5.7684237e-07
-5.5902196e-09
5.773249e-07
-7.0580528e-09
5.7797822e-07
-8.6255048e-09
5.7883158e-07
-1.0315991e-08
5.7992483e-07
-1.2155687e-08
5.813117e-07
-1.4173942e-08
5.8306453e-07
-1.6403651e-08
5.8528158e-07
-1.8881632e-08
5.8809758e-07
-2.1646114e-08
5.916925e-07
-2.4737654e-08
5.9630801e-07
-2.8324544e-08
6.0255753e-07
-3.3032048e-08
6.1310182e-07
-3.8456849e-08
6.3215852e-07
-3.7141337e-08
6.3840498e-07
-1.915155e-08
5.3469508e-07
2.1283631e-07
1.2411103e-08
1.5797293e-07
3.407504e-08
4.8055632e-07
4.1194371e-08
6.4048793e-07
3.7022389e-08
6.5317738e-07
3.1889049e-08
6.2869582e-07
2.8118282e-08
6.1277498e-07
2.4984778e-08
6.0420063e-07
2.2146862e-08
5.9824715e-07
1.95595e-08
5.9360621e-07
1.7202033e-08
5.8994864e-07
1.5047771e-08
5.8705553e-07
1.3070351e-08
5.8475474e-07
1.1245078e-08
5.829195e-07
9.5490396e-09
5.8145645e-07
7.9610589e-09
5.8029597e-07
6.4615623e-09
5.7938594e-07
5.0324027e-09
5.7868747e-07
3.6566312e-09
5.7817197e-07
2.3182415e-09
5.7781907e-07
1.0018999e-09
5.7761524e-07
-3.0733256e-10
5.7755289e-07
-1.6242784e-09
5.7762987e-07
-2.96393e-09
5.7784939e-07
-4.3417304e-09
5.7822017e-07
-5.7738518e-09
5.7875702e-07
-7.2774694e-09
5.7948184e-07
-8.8710202e-09
5.8042513e-07
-1.0574435e-08
5.8162824e-07
-1.2409348e-08
5.8314662e-07
-1.4399256e-08
5.8505444e-07
-1.6569549e-08
5.8745187e-07
-1.8947195e-08
5.9047522e-07
-2.1557798e-08
5.9430311e-07
-2.4435583e-08
5.991858e-07
-2.7774151e-08
6.058961e-07
-3.2116791e-08
6.1744446e-07
-3.641174e-08
6.3645347e-07
-3.3183216e-08
6.3517646e-07
-1.5529814e-08
5.1704168e-07
1.973065e-07
9.6431772e-09
1.4833035e-07
2.9601339e-08
4.6059926e-07
3.8217755e-08
6.3187206e-07
3.5590432e-08
6.5580467e-07
3.0995104e-08
6.3329105e-07
2.7492779e-08
6.1627728e-07
2.461499e-08
6.0707842e-07
2.1986595e-08
6.0087554e-07
1.9551766e-08
5.9604104e-07
1.7300445e-08
5.9219996e-07
1.5215952e-08
5.8914002e-07
1.3279647e-08
5.8669105e-07
1.1473131e-08
5.8472601e-07
9.7786116e-09
5.8315097e-07
8.1790164e-09
5.8189557e-07
6.6580538e-09
5.809069e-07
5.2002069e-09
5.8014532e-07
3.7906584e-09
5.7958152e-07
2.4151698e-09
5.7919456e-07
1.0599298e-09
5.7897048e-07
-2.8861575e-10
5.7890144e-07
-1.6439437e-09
5.789852e-07
-3.0196408e-09
5.7922508e-07
-4.4295844e-09
5.7963011e-07
-5.8881127e-09
5.8021555e-07
-7.4101763e-09
5.810039e-07
-9.011462e-09
5.8202642e-07
-1.0708468e-08
5.8332525e-07
-1.2518532e-08
5.8495668e-07
-1.4459823e-08
5.8699573e-07
-1.6551168e-08
5.8954322e-07
-1.8811137e-08
5.9273519e-07
-2.1255366e-08
5.9674733e-07
-2.391792e-08
6.0184835e-07
-2.7013786e-08
6.0899197e-07
-3.0956024e-08
6.213867e-07
-3.4135514e-08
6.3963296e-07
-2.9425517e-08
6.3046646e-07
-1.2518391e-08
5.0013455e-07
1.8478811e-07
7.551334e-09
1.4077972e-07
2.5736393e-08
4.4241557e-07
3.5313063e-08
6.2229615e-07
3.4057391e-08
6.5706036e-07
3.0011482e-08
6.3733683e-07
2.6753206e-08
6.1953552e-07
2.4103896e-08
6.0972773e-07
2.1675429e-08
6.0330401e-07
1.9394504e-08
5.9832197e-07
1.7256686e-08
5.9433778e-07
1.5253014e-08
5.9114369e-07
1.3371039e-08
5.8857302e-07
1.1597573e-08
5.8649948e-07
9.9192264e-09
5.8482931e-07
8.3226063e-09
5.8349219e-07
6.7944787e-09
5.8243503e-07
5.3218733e-09
5.8161792e-07
3.8921152e-09
5.8101128e-07
2.4928049e-09
5.8059387e-07
1.1117636e-09
5.8035152e-07
-2.6304909e-10
5.8027625e-07
-1.6436281e-09
5.8036578e-07
-3.042026e-09
5.8062348e-07
-4.4704462e-09
5.8105853e-07
-5.9413229e-09
5.8168642e-07
-7.4673753e-09
5.8252995e-07
-9.0616265e-09
5.8362067e-07
-1.0737369e-08
5.8500099e-07
-1.2508072e-08
5.8672738e-07
-1.4387264e-08
5.8887492e-07
-1.6388226e-08
5.9154418e-07
-1.8522668e-08
5.9486963e-07
-2.0799231e-08
5.990239e-07
-2.3256881e-08
6.04306e-07
-2.6123579e-08
6.1185866e-07
-2.9650639e-08
6.2491376e-07
-3.1789661e-08
6.4177198e-07
-2.5990435e-08
6.2466723e-07
-1.0070551e-08
4.8421467e-07
1.7471756e-07
5.9949893e-09
1.3478556e-07
2.2458359e-08
4.2595386e-07
3.2582045e-08
6.1217349e-07
3.2503561e-08
6.5713894e-07
2.899808e-08
6.4084217e-07
2.5959533e-08
6.2257401e-07
2.3506658e-08
6.121806e-07
2.1260786e-08
6.0554989e-07
1.9127767e-08
6.0045499e-07
1.7104069e-08
5.9636148e-07
1.5186223e-08
5.9306154e-07
1.3366519e-08
5.9039272e-07
1.1635893e-08
5.882301e-07
9.9845876e-09
5.8648062e-07
8.4023719e-09
5.850744e-07
6.8787427e-09
5.8395866e-07
5.4030859e-09
5.8309358e-07
3.9647755e-09
5.8244959e-07
2.5532261e-09
5.8200542e-07
1.1579082e-09
5.8174684e-07
-2.3166384e-10
5.8166582e-07
-1.6259555e-09
5.8176007e-07
-3.0354452e-09
5.8203297e-07
-4.4706482e-09
5.8249373e-07
-5.9421243e-09
5.831579e-07
-7.4604592e-09
5.8404829e-07
-9.0362083e-09
5.8519642e-07
-1.0679791e-08
5.8664457e-07
-1.2401332e-08
5.8844892e-07
-1.4210482e-08
5.9068407e-07
-1.6116037e-08
5.9344974e-07
-1.8124427e-08
5.9687802e-07
-2.0240373e-08
6.0113984e-07
-2.2511244e-08
6.0657687e-07
-2.5166881e-08
6.145143e-07
-2.8281038e-08
6.2802792e-07
-2.9488213e-08
6.4297916e-07
-2.2933093e-08
6.1811211e-07
-8.1177813e-09
4.6939935e-07
1.6659978e-07
4.851434e-09
1.2993511e-07
1.9708629e-08
4.1109868e-07
3.0072859e-08
6.0181061e-07
3.0981131e-08
6.5623088e-07
2.7994192e-08
6.4382894e-07
2.5153843e-08
6.2541428e-07
2.2865217e-08
6.1446922e-07
2.078055e-08
6.0763456e-07
1.8784676e-08
6.0245086e-07
1.6871012e-08
5.9827514e-07
1.5039524e-08
5.9489303e-07
1.3285934e-08
5.9214631e-07
1.1604279e-08
5.8991176e-07
9.9876757e-09
5.8809722e-07
8.4285105e-09
5.8663357e-07
6.9186314e-09
5.8546854e-07
5.4495261e-09
5.8456269e-07
4.0124561e-09
5.8388666e-07
2.598553e-09
5.8341932e-07
1.1988824e-09
5.8314651e-07
-1.9551599e-10
5.8306022e-07
-1.593601e-09
5.8315815e-07
-3.004309e-09
5.8344368e-07
-4.4365243e-09
5.8392595e-07
-5.8990355e-09
5.8462041e-07
-7.4004645e-09
5.8554972e-07
-8.949164e-09
5.8674511e-07
-1.0553074e-08
5.8824848e-07
-1.2219535e-08
5.9011538e-07
-1.3955102e-08
5.9241964e-07
-1.576512e-08
5.9525975e-07
-1.7652267e-08
5.9876517e-07
-1.9620131e-08
6.0310771e-07
-2.1726175e-08
6.0868292e-07
-2.4190182e-08
6.1697831e-07
-2.6905764e-08
6.307435e-07
-2.7303097e-08
6.4337649e-07
-2.0262725e-08
6.1107174e-07
-6.584387e-09
4.5572102e-07
1.6001539e-07
4.0183083e-09
1.2591798e-07
1.7414674e-08
3.9770473e-07
2.7799359e-08
5.9142766e-07
2.9520567e-08
6.5451004e-07
2.702281e-08
6.4632651e-07
2.4363104e-08
6.2807387e-07
2.2209514e-08
6.166228e-07
2.0263618e-08
6.0958046e-07
1.8391643e-08
6.0432284e-07
1.6580998e-08
6.0008578e-07
1.4833314e-08
5.9664071e-07
1.3146637e-08
5.9383299e-07
1.151722e-08
5.9154118e-07
9.9403544e-09
5.8967409e-07
8.410514e-09
5.8816341e-07
6.9215062e-09
5.8695754e-07
5.4666358e-09
5.8601756e-07
4.0388482e-09
5.8531445e-07
2.6308479e-09
5.8482732e-07
1.2351907e-09
5.8454217e-07
-1.5564105e-10
5.8445105e-07
-1.5491751e-09
5.8455169e-07
-2.9528904e-09
5.8484739e-07
-4.3741508e-09
5.8534721e-07
-5.8201254e-09
5.8606638e-07
-7.2976876e-09
5.8702728e-07
-8.8132875e-09
5.8826071e-07
-1.0372798e-08
5.8980799e-07
-1.1981335e-08
5.9172392e-07
-1.364309e-08
5.9408139e-07
-1.536089e-08
5.9697755e-07
-1.7135028e-08
6.0053931e-07
-1.8970239e-08
6.0494292e-07
-2.0934136e-08
6.1064681e-07
-2.3225212e-08
6.1926938e-07
-2.5564352e-08
6.3308264e-07
-2.5273888e-08
6.4308603e-07
-1.796068e-08
6.0375853e-07
-5.3959668e-09
4.431563e-07
1.5461942e-07
3.4129407e-09
1.2250642e-07
1.5502636e-08
3.8561791e-07
2.5754818e-08
5.8117767e-07
2.813712e-08
6.521283e-07
2.6095585e-08
6.4836786e-07
2.3602972e-08
6.3056634e-07
2.1559648e-08
6.186661e-07
1.973102e-08
6.1140909e-07
1.7968912e-08
6.0608495e-07
1.6252776e-08
6.0180192e-07
1.4584429e-08
5.9830906e-07
1.2963357e-08
5.9545406e-07
1.1387306e-08
5.9311723e-07
9.853141e-09
5.9120825e-07
8.3569429e-09
5.896596e-07
6.8941025e-09
5.8842038e-07
5.4594516e-09
5.8745221e-07
4.0473978e-09
5.867265e-07
2.6520459e-09
5.8622267e-07
1.2673048e-09
5.8592691e-07
-1.1301925e-10
5.8583137e-07
-1.4951354e-09
5.859338e-07
-2.8851869e-09
5.8623745e-07
-4.2891604e-09
5.8675118e-07
-5.7127874e-09
5.8749001e-07
-7.1614287e-09
5.8847592e-07
-8.6399406e-09
5.8973923e-07
-1.0152529e-08
5.9132058e-07
-1.1702603e-08
5.9327399e-07
-1.3292628e-08
5.9567142e-07
-1.492371e-08
5.9860864e-07
-1.6594921e-08
6.0221052e-07
-1.8313869e-08
6.0666186e-07
-2.0157083e-08
6.1249003e-07
-2.2292195e-08
6.2140449e-07
-2.428143e-08
6.3507187e-07
-2.3417238e-08
6.4222184e-07
-1.599287e-08
5.9633416e-07
-4.484095e-09
4.3164753e-07
1.5013533e-07
2.9707072e-09
1.1953736e-07
1.3904006e-08
3.7468802e-07
2.3921267e-08
5.7116312e-07
2.683577e-08
6.4921462e-07
2.5216674e-08
6.4998679e-07
2.2881223e-08
6.329016e-07
2.0928247e-08
6.2061903e-07
1.919743e-08
6.1313991e-07
1.753148e-08
6.077509e-07
1.5900857e-08
6.0343254e-07
1.430637e-08
5.9990355e-07
1.2748251e-08
5.9701218e-07
1.1225182e-08
5.946403e-07
9.7351104e-09
5.9269832e-07
8.2753092e-09
5.911194e-07
6.8424122e-09
5.8985328e-07
5.4325033e-09
5.8886212e-07
4.0412284e-09
5.8811777e-07
2.6639097e-09
5.8759999e-07
1.2956531e-09
5.8729516e-07
-6.8550596e-11
5.8719558e-07
-1.4337274e-09
5.8729898e-07
-2.8048276e-09
5.8760855e-07
-4.1866229e-09
5.8813298e-07
-5.5836011e-09
5.8888699e-07
-6.9998487e-09
5.8989217e-07
-8.4389244e-09
5.911783e-07
-9.9037351e-09
5.9278539e-07
-1.1396427e-08
5.9476669e-07
-1.2918284e-08
5.9719327e-07
-1.4469338e-08
6.0015969e-07
-1.6048411e-08
6.0378959e-07
-1.7667138e-08
6.0828059e-07
-1.9408829e-08
6.1423172e-07
-2.140272e-08
6.2339838e-07
-2.3070243e-08
6.3673939e-07
-2.1734135e-08
6.4088573e-07
-1.4318155e-08
5.8891818e-07
-3.7888686e-09
4.2111824e-07
1.4634646e-07
2.6427775e-09
1.1689653e-07
1.2558998e-08
3.6477583e-07
2.2275847e-08
5.614496e-07
2.5614974e-08
6.4587663e-07
2.4385445e-08
6.5121619e-07
2.2200311e-08
6.3508651e-07
2.0322484e-08
6.224968e-07
1.8672611e-08
6.1478978e-07
1.70901e-08
6.0933342e-07
1.5536171e-08
6.0498647e-07
1.400969e-08
6.0143003e-07
1.2511112e-08
5.9851076e-07
1.1039637e-08
5.9611177e-07
9.5939068e-09
5.9414405e-07
8.1720459e-09
5.9254127e-07
6.7716367e-09
5.9125369e-07
5.3897645e-09
5.9024399e-07
4.0231015e-09
5.8948444e-07
2.6680047e-09
5.8895509e-07
1.320616e-09
5.8864255e-07
-2.3037614e-11
5.8853923e-07
-1.3669474e-09
5.8864289e-07
-2.7150207e-09
5.8895662e-07
-4.0709826e-09
5.8948894e-07
-5.4382703e-09
5.9025428e-07
-6.8199229e-09
5.9127382e-07
-8.2184725e-09
5.9257685e-07
-9.6358478e-09
5.9420277e-07
-1.107331e-08
5.9620415e-07
-1.253139e-08
5.9865135e-07
-1.400957e-08
6.0163787e-07
-1.5507191e-08
6.0528721e-07
-1.7040549e-08
6.0981395e-07
-1.869702e-08
6.1588819e-07
-2.056199e-08
6.2526335e-07
-2.1935677e-08
6.3811308e-07
-2.0215696e-08
6.3916575e-07
-1.2893955e-08
5.8159644e-07
-3.259885e-09
4.1148417e-07
1.4308657e-07
2.3934183e-09
1.145054e-07
1.1417657e-08
3.5575633e-07
2.079489e-08
5.5207641e-07
2.4469561e-08
6.4220349e-07
2.3598476e-08
6.5208721e-07
2.1559255e-08
6.3712546e-07
1.9745635e-08
6.2431033e-07
1.8162619e-08
6.163728e-07
1.6652182e-08
6.1084386e-07
1.5166711e-08
6.0647194e-07
1.370244e-08
6.028943e-07
1.2259651e-08
5.9995355e-07
1.0837766e-08
5.9753366e-07
9.4358295e-09
5.9554599e-07
8.0525434e-09
5.9392455e-07
6.6861922e-09
5.9262004e-07
5.3346441e-09
5.9159554e-07
3.995404e-09
5.9082368e-07
2.6656908e-09
5.902848e-07
1.3425245e-09
5.8996572e-07
2.2818622e-11
5.8985894e-07
-1.2965275e-09
5.8996224e-07
-2.6185333e-09
5.9027862e-07
-3.9460411e-09
5.9081645e-07
-5.28162e-09
5.9158985e-07
-6.6274693e-09
5.9261967e-07
-7.9853319e-09
5.9393471e-07
-9.3564301e-09
5.9557386e-07
-1.0741444e-08
5.9758916e-07
-1.2140486e-08
6.000504e-07
-1.3552891e-08
6.0305027e-07
-1.4979099e-08
6.0671342e-07
-1.6440246e-08
6.112751e-07
-1.8024764e-08
6.1747271e-07
-1.9770711e-08
6.270093e-07
-2.0876935e-08
6.3921931e-07
-1.884769e-08
6.371365e-07
-1.1679994e-08
5.7442875e-07
-2.8561324e-09
4.0266031e-07
1.4023044e-07
2.1972558e-09
1.1231083e-07
1.0439483e-08
3.4751966e-07
1.9456212e-08
5.4306455e-07
2.3392775e-08
6.3826893e-07
2.285103e-08
6.5262898e-07
2.0955069e-08
6.3902111e-07
1.9198328e-08
6.2606696e-07
1.7670784e-08
6.1790033e-07
1.6222564e-08
6.1229209e-07
1.4798123e-08
6.0789639e-07
1.3390597e-08
6.0430182e-07
1.1999803e-08
6.0134434e-07
1.0625179e-08
5.9890828e-07
9.2659642e-09
5.969052e-07
7.9212268e-09
5.9526929e-07
6.5897529e-09
5.9395151e-07
5.2700077e-09
5.9291528e-07
3.9601582e-09
5.9213353e-07
2.6581272e-09
5.9158683e-07
1.3616649e-09
5.9126218e-07
6.8428875e-11
5.9115217e-07
-1.2239332e-09
5.912546e-07
-2.517697e-09
5.9157239e-07
-3.814976e-09
5.9211372e-07
-5.1176378e-09
5.9289252e-07
-6.4272255e-09
5.9392926e-07
-7.7448949e-09
5.9525238e-07
-9.0713831e-09
5.9690035e-07
-1.0407027e-08
5.9892481e-07
-1.1751767e-08
6.0139514e-07
-1.3105088e-08
6.044036e-07
-1.4468944e-08
6.0807728e-07
-1.5869114e-08
6.1267527e-07
-1.7392029e-08
6.1899562e-07
-1.9026673e-08
6.2864394e-07
-1.9889728e-08
6.4008236e-07
-1.7613683e-08
6.3486046e-07
-1.0640314e-08
5.6745538e-07
-2.5451608e-09
3.9456516e-07
1.3768528e-07
2.0368096e-09
1.1027718e-07
9.5923241e-09
3.3997065e-07
1.8240152e-08
5.3442255e-07
2.2377559e-08
6.341341e-07
2.2138028e-08
6.5286868e-07
2.0383781e-08
6.40775e-07
1.8679511e-08
6.2777107e-07
1.7198523e-08
6.1938131e-07
1.5804164e-08
6.1368645e-07
1.4434223e-08
6.0926633e-07
1.3078462e-08
6.0565758e-07
1.1736017e-08
6.0268679e-07
1.0406211e-08
6.0023809e-07
9.088332e-09
5.9822308e-07
7.7816573e-09
5.9657596e-07
6.4853163e-09
5.9524786e-07
5.1982183e-09
5.9420238e-07
3.9190451e-09
5.934127e-07
2.646284e-09
5.9285959e-07
1.3782806e-09
5.9253018e-07
1.1330556e-10
5.9241715e-07
-1.1503766e-09
5.9251828e-07
-2.414431e-09
5.9283644e-07
-3.6803817e-09
5.9337967e-07
-4.949542e-09
5.9416168e-07
-6.2229554e-09
5.9520267e-07
-7.5013575e-09
5.9653078e-07
-8.7851751e-09
5.9818417e-07
-1.0074578e-08
6.0021421e-07
-1.1369511e-08
6.0269007e-07
-1.2669823e-08
6.0570391e-07
-1.3979246e-08
6.093867e-07
-1.5327723e-08
6.1402374e-07
-1.6796753e-08
6.2046465e-07
-1.8325968e-08
6.3017316e-07
-1.896789e-08
6.4072428e-07
-1.6496983e-08
6.3238955e-07
-9.7437689e-09
5.6070216e-07
-2.301862e-09
3.8712325e-07
1.3538342e-07
1.9004127e-09
1.0838047e-07
8.851015e-09
3.3302763e-07
1.712987e-08
5.2615062e-07
2.1417256e-08
6.2984998e-07
2.1454621e-08
6.5283168e-07
1.9841111e-08
6.4238811e-07
1.8187152e-08
6.2942484e-07
1.6745958e-08
6.2082247e-07
1.5398509e-08
6.1503391e-07
1.4077436e-08
6.105874e-07
1.2769014e-08
6.0696601e-07
1.1471537e-08
6.0398426e-07
1.0184133e-08
6.0152549e-07
8.9060438e-09
5.9950117e-07
7.6366423e-09
5.9784536e-07
6.3752806e-09
5.9650922e-07
5.1211875e-09
5.9545647e-07
3.8734371e-09
5.9466045e-07
2.6309599e-09
5.9410207e-07
1.3925783e-09
5.9376856e-07
1.5705828e-10
5.9365267e-07
-1.0768361e-09
5.9375217e-07
-2.3102789e-09
5.9406988e-07
-3.544327e-09
5.9461372e-07
-4.779866e-09
5.9539721e-07
-6.0175706e-09
5.9644037e-07
-7.2578894e-09
5.977711e-07
-8.5010722e-09
5.9942735e-07
-9.7472479e-09
6.0146038e-07
-1.0996486e-08
6.0393931e-07
-1.2249143e-08
6.0695656e-07
-1.351087e-08
6.1064842e-07
-1.4815088e-08
6.1532796e-07
-1.6235681e-08
6.2188524e-07
-1.7663856e-08
6.3160133e-07
-1.8104489e-08
6.4116491e-07
-1.5481817e-08
6.2976688e-07
-8.964151e-09
5.541845e-07
-2.1072646e-09
3.8026636e-07
1.3327615e-07
1.7805271e-09
1.0660428e-07
8.1960252e-09
3.2662098e-07
1.6111225e-08
5.1824362e-07
2.0505943e-08
6.2545932e-07
2.0796474e-08
6.5254175e-07
1.9322865e-08
6.438613e-07
1.7718723e-08
6.3102873e-07
1.6312385e-08
6.2222877e-07
1.5006153e-08
6.1634015e-07
1.3729158e-08
6.118644e-07
1.246421e-08
6.0823095e-07
1.1208646e-08
6.0523983e-07
9.9613452e-09
6.0277279e-07
8.7214487e-09
6.0074107e-07
7.4883477e-09
5.9907847e-07
6.2615254e-09
5.9773604e-07
5.0404325e-09
5.9667756e-07
3.824434e-09
5.9587645e-07
2.6128016e-09
5.953137e-07
1.4047323e-09
5.9497663e-07
1.9938451e-10
5.9485801e-07
-1.0040807e-09
5.9495564e-07
-2.2064503e-09
5.9527225e-07
-3.4084191e-09
5.9581569e-07
-4.6105505e-09
5.9659935e-07
-5.8132566e-09
5.9764308e-07
-7.0168028e-09
5.9897465e-07
-8.2213596e-09
6.0063191e-07
-9.4271007e-09
6.0266612e-07
-1.0634294e-08
6.051465e-07
-1.1843902e-08
6.0816617e-07
-1.3063528e-08
6.1186805e-07
-1.4329247e-08
6.1659368e-07
-1.5704971e-08
6.2326097e-07
-1.7035364e-08
6.3293173e-07
-1.7292568e-08
6.4142212e-07
-1.4553967e-08
6.2702827e-07
-8.279862e-09
5.4791039e-07
-1.9473675e-09
3.7393387e-07
1.3132878e-07
1.6724364e-09
1.0493694e-07
7.6122374e-09
3.2069146e-07
1.5172463e-08
5.1069304e-07
1.9638521e-08
6.2099828e-07
2.0159876e-08
6.5202132e-07
1.8825157e-08
6.4519559e-07
1.7271505e-08
6.3258208e-07
1.5896593e-08
6.2360362e-07
1.4626986e-08
6.1760976e-07
1.3390038e-08
6.1310136e-07
1.2165235e-08
6.0945576e-07
1.0948872e-08
6.0645619e-07
9.7395471e-09
6.0398212e-07
8.5362712e-09
6.0194434e-07
7.3384034e-09
6.0027633e-07
6.1454914e-09
5.9892895e-07
4.9571321e-09
5.9786592e-07
3.7729003e-09
5.9706068e-07
2.5923242e-09
5.9649428e-07
1.414889e-09
5.9615407e-07
2.4005829e-10
5.9603285e-07
-9.326978e-10
5.961284e-07
-2.1038676e-09
5.9644342e-07
-3.273871e-09
5.9698569e-07
-4.4430362e-09
5.9776851e-07
-5.6115961e-09
5.9881164e-07
-6.7797115e-09
6.0014276e-07
-7.9475417e-09
6.0179974e-07
-9.115359e-09
6.0383394e-07
-1.0283673e-08
6.0631481e-07
-1.1454109e-08
6.0933661e-07
-1.2636173e-08
6.1305011e-07
-1.3867689e-08
6.178252e-07
-1.5200605e-08
6.2459388e-07
-1.6435668e-08
6.3416679e-07
-1.6525584e-08
6.4151203e-07
-1.3701004e-08
6.2420369e-07
-7.6733778e-09
5.4188276e-07
-1.8120633e-09
3.6807255e-07
1.2951672e-07
1.5732754e-09
1.0336963e-07
7.0879131e-09
3.1518878e-07
1.4303834e-08
5.0348842e-07
1.8810669e-08
6.1649756e-07
1.9541735e-08
6.5129158e-07
1.8344515e-08
6.4639238e-07
1.6842787e-08
6.3408345e-07
1.5497088e-08
6.2494923e-07
1.4260459e-08
6.1884639e-07
1.3060196e-08
6.1430162e-07
1.1872702e-08
6.1064325e-07
1.0693166e-08
6.0763572e-07
9.5198864e-09
6.0515539e-07
8.3517328e-09
6.031125e-07
7.1880003e-09
6.0144006e-07
6.0282545e-09
6.000887e-07
4.8721814e-09
5.99022e-07
3.7195014e-09
5.9821336e-07
2.5699306e-09
5.9764385e-07
1.4231709e-09
5.9730083e-07
2.789183e-10
5.971771e-07
-8.6312147e-10
5.9727043e-07
-2.0032111e-09
5.9758351e-07
-3.1415672e-09
5.9812405e-07
-4.2783521e-09
5.989053e-07
-5.4136833e-09
5.9994697e-07
-6.5476738e-09
6.0127675e-07
-7.6805174e-09
6.0293258e-07
-8.8126145e-09
6.0496604e-07
-9.9447377e-09
6.0744694e-07
-1.1079201e-08
6.1047107e-07
-1.2227296e-08
6.1419821e-07
-1.3427657e-08
6.1902556e-07
-1.4718662e-08
6.2588489e-07
-1.5860319e-08
6.3530845e-07
-1.5797639e-08
6.4144935e-07
-1.2912295e-08
6.2131835e-07
-7.1306362e-09
5.3610111e-07
-1.694208e-09
3.6263612e-07
1.2782251e-07
1.4813416e-09
1.0189528e-07
6.6138618e-09
3.1007013e-07
1.3497208e-08
4.9661828e-07
1.8018741e-08
6.1198343e-07
1.8939512e-08
6.5037262e-07
1.7877893e-08
6.4745361e-07
1.6429977e-08
6.3553094e-07
1.5112248e-08
6.2626685e-07
1.3905749e-08
6.2005289e-07
1.2739386e-08
6.1546799e-07
1.1586804e-08
6.1179584e-07