/*--------------------------------*- C++ -*----------------------------------*\
  =========                 |
  \\      /  F ield         | OpenFOAM: The Open Source CFD Toolbox
   \\    /   O peration     | Website:  https://openfoam.org
    \\  /    A nd           | Version:  10
     \\/     M anipulation  |
\*---------------------------------------------------------------------------*/
FoamFile
{
    format      ascii;
    class       volScalarField;
    location    "0.15";
    object      T;
}
// * * * * * * * * * * * * * * * * * * * * * * * * * * * * * * * * * * * * * //

dimensions      [0 0 0 1 0 0 0];

internalField   nonuniform List<scalar> 
4000
(
303.10133
299.34292
299.99042
300.00082
299.99993
300
300
300
300
300
300
300
300
300
300
300
300
300
300
300
300
300
300
300
300
300
300
300
300
300
300
300
300
300
300
300
300
300
300
300
309.66334
298.49301
299.77923
300.00184
300.0008
299.99999
300
300
300
300
300
300
300
300
300
300
300
300
300
300
300
300
300
300
300
300
300
300
300
300
300
300
300
300
300
300
300
300
300
300
316.00397
298.68459
299.39226
299.9757
300.00406
300.00025
299.99999
300
300
300
300
300
300
300
300
300
300
300
300
300
300
300
300
300
300
300
300
300
300
300
300
300
300
300
300
300
300
300
300
300
321.74176
299.84581
298.9849
299.89494
300.00716
300.00139
300
299.99999
300
300
300
300
300
300
300
300
300
300
300
300
300
300
300
300
300
300
300
300
300
300
300
300
300
300
300
300
300
300
300
300
326.67024
301.70014
298.71013
299.7532
300.00323
300.00379
300.00017
299.99998
300
300
300
300
300
300
300
300
300
300
300
300
300
300
300
300
300
300
300
300
300
300
300
300
300
300
300
300
300
300
300
300
330.68381
303.94728
298.66338
299.56844
299.98428
300.00696
300.00072
299.99997
299.99999
300
300
300
300
300
300
300
300
300
300
300
300
300
300
300
300
300
300
300
300
300
300
300
300
300
300
300
300
300
300
300
333.77271
306.32948
298.87088
299.37391
299.94521
300.00938
300.00181
300
299.99998
300
300
300
300
300
300
300
300
300
300
300
300
300
300
300
300
300
300
300
300
300
300
300
300
300
300
300
300
300
300
300
336.01975
308.66221
299.30751
299.20412
299.88588
300.0089
300.00345
300.00014
299.99997
300
300
300
300
300
300
300
300
300
300
300
300
300
300
300
300
300
300
300
300
300
300
300
300
300
300
300
300
300
300
300
337.57146
310.83463
299.92351
299.08499
299.81067
300.00353
300.00541
300.00046
299.99996
299.99999
300
300
300
300
300
300
300
300
300
300
300
300
300
300
300
300
300
300
300
300
300
300
300
300
300
300
300
300
300
300
338.59919
312.794
300.6643
299.03095
299.72661
299.99195
300.00724
300.001
299.99996
299.99998
300
300
300
300
300
300
300
300
300
300
300
300
300
300
300
300
300
300
300
300
300
300
300
300
300
300
300
300
300
300
339.26562
314.52741
301.48123
299.04639
299.64144
299.97375
300.00839
300.00176
300.00001
299.99997
300
300
300
300
300
300
300
300
300
300
300
300
300
300
300
300
300
300
300
300
300
300
300
300
300
300
300
300
300
300
339.70401
316.04612
302.33589
299.12861
299.56217
299.94939
300.00833
300.00268
300.00012
299.99996
300
300
300
300
300
300
300
300
300
300
300
300
300
300
300
300
300
300
300
300
300
300
300
300
300
300
300
300
300
300
340.01095
317.37352
303.20063
299.27088
299.49439
299.91996
300.00662
300.00367
300.0003
299.99996
299.99999
300
300
300
300
300
300
300
300
300
300
300
300
300
300
300
300
300
300
300
300
300
300
300
300
300
300
300
300
300
340.24906
318.53708
304.05701
299.46479
299.44203
299.88691
300.00295
300.0046
300.00056
299.99996
299.99999
300
300
300
300
300
300
300
300
300
300
300
300
300
300
300
300
300
300
300
300
300
300
300
300
300
300
300
300
300
340.45475
319.5636
304.89363
299.70174
299.40753
299.85186
299.9972
300.00533
300.0009
299.99998
299.99998
300
300
300
300
300
300
300
300
300
300
300
300
300
300
300
300
300
300
300
300
300
300
300
300
300
300
300
300
300
340.64676
320.47685
305.70406
299.97375
299.39212
299.81639
299.98938
300.00572
300.00129
300.00003
299.99998
300
300
300
300
300
300
300
300
300
300
300
300
300
300
300
300
300
300
300
300
300
300
300
300
300
300
300
300
300
340.8331
321.29682
306.48518
300.27385
299.39614
299.78197
299.97963
300.00565
300.00172
300.00009
299.99997
300
300
300
300
300
300
300
300
300
300
300
300
300
300
300
300
300
300
300
300
300
300
300
300
300
300
300
300
300
341.01607
322.03964
307.23588
300.59609
299.41929
299.74987
299.96819
300.00502
300.00216
300.00019
299.99997
299.99999
300
300
300
300
300
300
300
300
300
300
300
300
300
300
300
300
300
300
300
300
300
300
300
300
300
300
300
300
341.19528
322.71807
307.95623
300.93549
299.46085
299.72119
299.95536
300.00376
300.00256
300.00031
299.99998
299.99999
300
300
300
300
300
300
300
300
300
300
300
300
300
300
300
300
300
300
300
300
300
300
300
300
300
300
300
300
341.36947
323.34201
308.64695
301.2879
299.51984
299.69683
299.94148
300.00183
300.00289
300.00045
299.99999
299.99999
300
300
300
300
300
300
300
300
300
300
300
300
300
300
300
300
300
300
300
300
300
300
300
300
300
300
300
300
341.5373
323.91915
309.30904
301.64987
299.59514
299.67747
299.92692
299.9992
300.00312
300.00062
300.00001
299.99999
300
300
300
300
300
300
300
300
300
300
300
300
300
300
300
300
300
300
300
300
300
300
300
300
300
300
300
300
341.69772
324.45542
309.94358
302.01851
299.68554
299.66368
299.91205
299.99589
300.00321
300.00079
300.00003
299.99999
300
300
300
300
300
300
300
300
300
300
300
300
300
300
300
300
300
300
300
300
300
300
300
300
300
300
300
300
341.85008
324.95546
310.55168
302.39141
299.78979
299.65583
299.89723
299.99193
300.00313
300.00097
300.00007
299.99999
300
300
300
300
300
300
300
300
300
300
300
300
300
300
300
300
300
300
300
300
300
300
300
300
300
300
300
300
341.99407
325.42295
311.13438
302.7665
299.90667
299.65421
299.88283
299.98737
300.00285
300.00114
300.00012
299.99999
300
300
300
300
300
300
300
300
300
300
300
300
300
300
300
300
300
300
300
300
300
300
300
300
300
300
300
300
342.12965
325.86086
311.69265
303.14204
300.03495
299.65897
299.86916
299.98229
300.00236
300.0013
300.00017
299.99999
299.99999
300
300
300
300
300
300
300
300
300
300
300
300
300
300
300
300
300
300
300
300
300
300
300
300
300
300
300
342.25694
326.27164
312.22738
303.51651
300.17347
299.67017
299.85654
299.97677
300.00164
300.00142
300.00023
300
299.99999
300
300
300
300
300
300
300
300
300
300
300
300
300
300
300
300
300
300
300
300
300
300
300
300
300
300
300
342.37619
326.65731
312.7394
303.88861
300.32107
299.68779
299.84524
299.97091
300.00068
300.00152
300.00029
300.00001
299.99999
300
300
300
300
300
300
300
300
300
300
300
300
300
300
300
300
300
300
300
300
300
300
300
300
300
300
300
342.48768
327.0196
313.22948
304.25722
300.47668
299.71174
299.83552
299.96479
299.99948
300.00156
300.00036
300.00002
299.99999
300
300
300
300
300
300
300
300
300
300
300
300
300
300
300
300
300
300
300
300
300
300
300
300
300
300
300
342.59169
327.35994
313.69828
304.62133
300.63925
299.74187
299.82758
299.95854
299.99804
300.00155
300.00043
300.00003
299.99999
300
300
300
300
300
300
300
300
300
300
300
300
300
300
300
300
300
300
300
300
300
300
300
300
300
300
300
342.68847
327.67956
314.14642
304.98008
300.80777
299.77798
299.82162
299.95225
299.99639
300.00147
300.00049
300.00005
300
300
300
300
300
300
300
300
300
300
300
300
300
300
300
300
300
300
300
300
300
300
300
300
300
300
300
300
342.77821
327.97944
314.57444
305.33268
300.98129
299.81982
299.81779
299.94605
299.99452
300.00132
300.00056
300.00007
300
300
300
300
300
300
300
300
300
300
300
300
300
300
300
300
300
300
300
300
300
300
300
300
300
300
300
300
342.86106
328.2604
314.98281
305.67841
301.15891
299.86713
299.81621
299.94003
299.99247
300.0011
300.00061
300.00009
300
300
300
300
300
300
300
300
300
300
300
300
300
300
300
300
300
300
300
300
300
300
300
300
300
300
300
300
342.93709
328.52304
315.37189
306.01663
301.33974
299.91959
299.81698
299.9343
299.99025
300.00079
300.00065
300.00012
300
300
300
300
300
300
300
300
300
300
300
300
300
300
300
300
300
300
300
300
300
300
300
300
300
300
300
300
343.00634
328.76779
315.74196
306.34672
301.52296
299.97687
299.82017
299.92897
299.98791
300.0004
300.00067
300.00014
300.00001
300
300
300
300
300
300
300
300
300
300
300
300
300
300
300
300
300
300
300
300
300
300
300
300
300
300
300
343.06876
328.99486
316.0932
306.6681
301.70775
300.03861
299.82582
299.92412
299.98546
299.99993
300.00068
300.00016
300.00001
300
300
300
300
300
300
300
300
300
300
300
300
300
300
300
300
300
300
300
300
300
300
300
300
300
300
300
343.12429
329.20433
316.42568
306.98021
301.89334
300.10444
299.83394
299.91986
299.98294
299.99938
300.00066
300.00019
300.00002
300
300
300
300
300
300
300
300
300
300
300
300
300
300
300
300
300
300
300
300
300
300
300
300
300
300
300
343.17284
329.39609
316.73933
307.28246
302.07896
300.17397
299.84451
299.91624
299.98039
299.99875
300.00063
300.00021
300.00003
300
300
300
300
300
300
300
300
300
300
300
300
300
300
300
300
300
300
300
300
300
300
300
300
300
300
300
343.21433
329.56986
317.03399
307.57429
302.26388
300.24679
299.85751
299.91336
299.97784
299.99804
300.00057
300.00023
300.00003
300
300
300
300
300
300
300
300
300
300
300
300
300
300
300
300
300
300
300
300
300
300
300
300
300
300
300
343.2487
329.72528
317.30932
307.85508
302.44735
300.32248
299.87287
299.91127
299.97534
299.99727
300.00048
300.00024
300.00004
300
300
300
300
300
300
300
300
300
300
300
300
300
300
300
300
300
300
300
300
300
300
300
300
300
300
300
343.27594
329.86188
317.56491
308.12421
302.62866
300.40061
299.89051
299.91002
299.97292
299.99645
300.00036
300.00026
300.00005
300
300
300
300
300
300
300
300
300
300
300
300
300
300
300
300
300
300
300
300
300
300
300
300
300
300
300
343.29615
329.97921
317.80019
308.38099
302.80708
300.48075
299.91034
299.90966
299.97062
299.99557
300.00022
300.00026
300.00006
300
300
300
300
300
300
300
300
300
300
300
300
300
300
300
300
300
300
300
300
300
300
300
300
300
300
300
343.30955
330.07687
318.01453
308.62471
302.98189
300.56243
299.93223
299.91021
299.96848
299.99466
300.00005
300.00026
300.00006
300.00001
300
300
300
300
300
300
300
300
300
300
300
300
300
300
300
300
300
300
300
300
300
300
300
300
300
300
343.31652
330.15468
318.20727
308.85464
303.15238
300.6452
299.95605
299.91171
299.96652
299.99372
299.99985
300.00025
300.00007
300.00001
300
300
300
300
300
300
300
300
300
300
300
300
300
300
300
300
300
300
300
300
300
300
300
300
300
300
343.3176
330.21276
318.37775
309.07
303.31783
300.7286
299.98164
299.91416
299.96479
299.99276
299.99963
300.00024
300.00008
300.00001
300
300
300
300
300
300
300
300
300
300
300
300
300
300
300
300
300
300
300
300
300
300
300
300
300
300
343.31354
330.25165
318.52545
309.27004
303.47752
300.81216
300.00884
299.91755
299.9633
299.99181
299.99938
300.00021
300.00008
300.00001
300
300
300
300
300
300
300
300
300
300
300
300
300
300
300
300
300
300
300
300
300
300
300
300
300
300
343.30521
330.27244
318.6501
309.45404
303.63078
300.89541
300.03746
299.92189
299.96209
299.99087
299.99911
300.00018
300.00009
300.00002
300
300
300
300
300
300
300
300
300
300
300
300
300
300
300
300
300
300
300
300
300
300
300
300
300
300
343.29361
330.27684
318.75173
309.62138
303.77693
300.97788
300.06731
299.92714
299.96117
299.98995
299.99882
300.00014
300.00009
300.00002
300
300
300
300
300
300
300
300
300
300
300
300
300
300
300
300
300
300
300
300
300
300
300
300
300
300
343.27983
330.26712
318.83087
309.77161
303.91537
301.05914
300.09819
299.93327
299.96057
299.98908
299.99852
300.00009
300.00009
300.00002
300
300
300
300
300
300
300
300
300
300
300
300
300
300
300
300
300
300
300
300
300
300
300
300
300
300
343.26489
330.24607
318.88859
309.90448
304.04557
301.13874
300.12989
299.94024
299.9603
299.98825
299.99821
300.00003
300.00009
300.00002
300
300
300
300
300
300
300
300
300
300
300
300
300
300
300
300
300
300
300
300
300
300
300
300
300
300
343.24978
330.21681
318.92655
310.02006
304.1671
301.2163
300.16221
299.94801
299.96036
299.98749
299.99789
299.99996
300.00008
300.00002
300
300
300
300
300
300
300
300
300
300
300
300
300
300
300
300
300
300
300
300
300
300
300
300
300
300
343.23527
330.18256
318.94703
310.11875
304.27966
301.29146
300.19495
299.9565
299.96076
299.98679
299.99756
299.99989
300.00008
300.00003
300
300
300
300
300
300
300
300
300
300
300
300
300
300
300
300
300
300
300
300
300
300
300
300
300
300
343.22197
330.14639
318.9528
310.20133
304.38312
301.3639
300.22789
299.96566
299.96151
299.98618
299.99723
299.99981
300.00007
300.00003
300
300
300
300
300
300
300
300
300
300
300
300
300
300
300
300
300
300
300
300
300
300
300
300
300
300
343.2102
330.11095
318.94701
310.26899
304.47751
301.43338
300.26087
299.97543
299.96258
299.98566
299.99691
299.99972
300.00006
300.00003
300.00001
300
300
300
300
300
300
300
300
300
300
300
300
300
300
300
300
300
300
300
300
300
300
300
300
300
343.20007
330.07828
318.933
310.32327
304.56307
301.49972
300.2937
299.98572
299.96399
299.98523
299.9966
299.99963
300.00004
300.00003
300.00001
300
300
300
300
300
300
300
300
300
300
300
300
300
300
300
300
300
300
300
300
300
300
300
300
300
343.19147
330.04972
318.91405
310.366
304.6402
301.56281
300.32622
299.99647
299.9657
299.9849
299.99629
299.99953
300.00003
300.00003
300.00001
300
300
300
300
300
300
300
300
300
300
300
300
300
300
300
300
300
300
300
300
300
300
300
300
300
343.18412
330.02584
318.89319
310.39925
304.7095
301.62263
300.35832
300.00761
299.96772
299.98468
299.996
299.99943
300.00001
300.00003
300.00001
300
300
300
300
300
300
300
300
300
300
300
300
300
300
300
300
300
300
300
300
300
300
300
300
300
343.17762
330.00648
318.87297
310.42515
304.77172
301.6792
300.38987
300.01907
299.97002
299.98456
299.99573
299.99932
299.99998
300.00002
300.00001
300
300
300
300
300
300
300
300
300
300
300
300
300
300
300
300
300
300
300
300
300
300
300
300
300
343.17151
329.99092
318.85526
310.44584
304.82769
301.73264
300.4208
300.03079
299.97259
299.98455
299.99548
299.99922
299.99996
300.00002
300.00001
300
300
300
300
300
300
300
300
300
300
300
300
300
300
300
300
300
300
300
300
300
300
300
300
300
343.16534
329.97797
318.84122
310.46323
304.87836
301.78312
300.45103
300.04271
299.9754
299.98465
299.99526
299.99911
299.99994
300.00002
300.00001
300
300
300
300
300
300
300
300
300
300
300
300
300
300
300
300
300
300
300
300
300
300
300
300
300
343.1587
329.96621
318.83113
310.47894
304.92465
301.83086
300.48054
300.05476
299.97843
299.98484
299.99505
299.99901
299.99991
300.00001
300.00001
300
300
300
300
300
300
300
300
300
300
300
300
300
300
300
300
300
300
300
300
300
300
300
300
300
343.15126
329.9541
318.82455
310.49417
304.96742
301.87611
300.50931
300.06691
299.98166
299.98514
299.99487
299.99891
299.99988
300.00001
300.00001
300
300
300
300
300
300
300
300
300
300
300
300
300
300
300
300
300
300
300
300
300
300
300
300
300
343.14282
329.9402
318.82032
310.50958
305.00742
301.91912
300.53733
300.0791
299.98507
299.98552
299.99472
299.99881
299.99985
300
300.00001
300
300
300
300
300
300
300
300
300
300
300
300
300
300
300
300
300
300
300
300
300
300
300
300
300
343.13328
329.92326
318.81675
310.52533
305.04519
301.9601
300.56461
300.0913
299.98863
299.986
299.9946
299.99871
299.99982
300
300.00001
300
300
300
300
300
300
300
300
300
300
300
300
300
300
300
300
300
300
300
300
300
300
300
300
300
343.12266
329.90238
318.81185
310.54107
305.08105
301.9992
300.59114
300.10347
299.99234
299.98657
299.9945
299.99862
299.99979
299.99999
300.00001
300
300
300
300
300
300
300
300
300
300
300
300
300
300
300
300
300
300
300
300
300
300
300
300
300
343.1111
329.87705
318.80354
310.55603
305.11512
302.03653
300.61692
300.11561
299.99619
299.98724
299.99444
299.99853
299.99976
299.99999
300.00001
300
300
300
300
300
300
300
300
300
300
300
300
300
300
300
300
300
300
300
300
300
300
300
300
300
343.09882
329.84717
318.78988
310.56916
305.14737
302.07213
300.64192
300.12768
300.00018
299.988
299.99442
299.99845
299.99972
299.99998
300
300
300
300
300
300
300
300
300
300
300
300
300
300
300
300
300
300
300
300
300
300
300
300
300
300
343.08611
329.81307
318.76924
310.57923
305.17763
302.10604
300.66612
300.13965
300.0043
299.98887
299.99444
299.99839
299.99969
299.99997
300
300
300
300
300
300
300
300
300
300
300
300
300
300
300
300
300
300
300
300
300
300
300
300
300
300
343.07329
329.7754
318.74053
310.58491
305.20572
302.13835
300.68953
300.15151
300.00853
299.98984
299.9945
299.99833
299.99966
299.99996
300
300
300
300
300
300
300
300
300
300
300
300
300
300
300
300
300
300
300
300
300
300
300
300
300
300
343.06066
329.73508
318.7032
310.58484
305.23137
302.16922
300.71222
300.16321
300.01284
299.99089
299.99459
299.99828
299.99963
299.99995
300
300
300
300
300
300
300
300
300
300
300
300
300
300
300
300
300
300
300
300
300
300
300
300
300
300
343.04851
329.6932
318.65732
310.57763
305.2542
302.19888
300.73432
300.17475
300.01716
299.99197
299.9947
299.99823
299.9996
299.99994
300
300
300
300
300
300
300
300
300
300
300
300
300
300
300
300
300
300
300
300
300
300
300
300
300
300
343.03709
329.65088
318.60353
310.56192
305.27353
302.22749
300.75604
300.18614
300.02143
299.99303
299.99479
299.99818
299.99957
299.99993
300
300
300
300
300
300
300
300
300
300
300
300
300
300
300
300
300
300
300
300
300
300
300
300
300
300
343.02658
329.60922
318.54299
310.53648
305.2883
302.255
300.77755
300.19741
300.02559
299.99401
299.99485
299.99811
299.99954
299.99993
299.99999
300
300
300
300
300
300
300
300
300
300
300
300
300
300
300
300
300
300
300
300
300
300
300
300
300
343.0171
329.56921
318.47729
310.50033
305.29698
302.28098
300.79896
300.20865
300.02962
299.99486
299.99484
299.99802
299.9995
299.99992
299.99999
300
300
300
300
300
300
300
300
300
300
300
300
300
300
300
300
300
300
300
300
300
300
300
300
300
343.0087
329.53166
318.40833
310.45301
305.29767
302.30443
300.82012
300.2199
300.03354
299.9956
299.99476
299.99791
299.99945
299.9999
299.99999
300
300
300
300
300
300
300
300
300
300
300
300
300
300
300
300
300
300
300
300
300
300
300
300
300
343.0014
329.49721
318.33819
310.39479
305.28838
302.32383
300.84058
300.23121
300.03745
299.99625
299.99462
299.99776
299.9994
299.99989
299.99999
300
300
300
300
300
300
300
300
300
300
300
300
300
300
300
300
300
300
300
300
300
300
300
300
300
342.99517
329.46628
318.26897
310.32687
305.26748
302.33725
300.85948
300.24248
300.04147
299.99692
299.99446
299.99761
299.99934
299.99988
299.99999
300
300
300
300
300
300
300
300
300
300
300
300
300
300
300
300
300
300
300
300
300
300
300
300
300
342.98993
329.43912
318.20268
310.25134
305.2341
302.34272
300.87568
300.25348
300.04573
299.99775
299.99435
299.99746
299.99929
299.99987
299.99999
300
300
300
300
300
300
300
300
300
300
300
300
300
300
300
300
300
300
300
300
300
300
300
300
300
342.98562
329.4158
318.14107
310.17112
305.18854
302.33869
300.88792
300.2638
300.0503
299.99889
299.99439
299.99736
299.99924
299.99986
299.99999
300
300
300
300
300
300
300
300
300
300
300
300
300
300
300
300
300
300
300
300
300
300
300
300
300
342.98212
329.39624
318.08553
310.08957
305.13241
302.32441
300.89506
300.27293
300.05516
300.00045
299.99464
299.99733
299.99921
299.99985
299.99999
300
300
300
300
300
300
300
300
300
300
300
300
300
300
300
300
300
300
300
300
300
300
300
300
300
342.97936
329.38023
318.037
310.01017
305.06846
302.30024
300.89638
300.28033
300.06016
300.00248
299.99518
299.99741
299.9992
299.99984
299.99999
300
300
300
300
300
300
300
300
300
300
300
300
300
300
300
300
300
300
300
300
300
300
300
300
300
342.97723
329.36748
317.99591
309.93602
305.00028
302.26764
300.89178
300.28558
300.06507
300.00492
299.99601
299.99761
299.99923
299.99984
299.99998
300
300
300
300
300
300
300
300
300
300
300
300
300
300
300
300
300
300
300
300
300
300
300
300
300
342.97564
329.35763
317.96227
309.86957
304.93168
302.22897
300.88182
300.28844
300.06962
300.00763
299.99709
299.99792
299.99929
299.99985
299.99998
300
300
300
300
300
300
300
300
300
300
300
300
300
300
300
300
300
300
300
300
300
300
300
300
300
342.9745
329.35029
317.93566
309.81239
304.86624
302.1871
300.8676
300.28894
300.07354
300.01044
299.99835
299.99832
299.99938
299.99986
299.99998
300
300
300
300
300
300
300
300
300
300
300
300
300
300
300
300
300
300
300
300
300
300
300
300
300
342.97374
329.34505
317.91537
309.76512
304.8068
302.14488
300.85059
300.28736
300.07665
300.01312
299.99967
299.99878
299.9995
299.99988
299.99998
300
300
300
300
300
300
300
300
300
300
300
300
300
300
300
300
300
300
300
300
300
300
300
300
300
342.97329
329.3415
317.9005
309.72758
304.75524
302.10483
300.83234
300.28415
300.07886
300.0155
300.00094
299.99925
299.99962
299.9999
299.99998
300
300
300
300
300
300
300
300
300
300
300
300
300
300
300
300
300
300
300
300
300
300
300
300
300
342.97307
329.3393
317.89007
309.69892
304.71244
302.06879
300.81425
300.27985
300.08018
300.01746
300.00208
299.99969
299.99974
299.99992
299.99999
300
300
300
300
300
300
300
300
300
300
300
300
300
300
300
300
300
300
300
300
300
300
300
300
300
342.97304
329.3381
317.88311
309.67788
304.67834
302.03788
300.7974
300.275
300.08074
300.01896
300.00304
300.00008
299.99986
299.99995
299.99999
300
300
300
300
300
300
300
300
300
300
300
300
300
300
300
300
300
300
300
300
300
300
300
300
300
342.97314
329.33764
317.87875
309.66303
304.65221
302.01246
300.78252
300.27006
300.08068
300.02001
300.00378
300.0004
299.99996
299.99997
299.99999
300
300
300
300
300
300
300
300
300
300
300
300
300
300
300
300
300
300
300
300
300
300
300
300
300
342.97334
329.3377
317.87624
309.65292
304.63288
301.99236
300.76994
300.26539
300.0802
300.02066
300.00431
300.00065
300.00004
299.99999
300
300
300
300
300
300
300
300
300
300
300
300
300
300
300
300
300
300
300
300
300
300
300
300
300
300
342.9736
329.3381
317.87499
309.64628
304.61903
301.97698
300.7597
300.26122
300.07948
300.021
300.00467
300.00083
300.0001
300
300
300
300
300
300
300
300
300
300
300
300
300
300
300
300
300
300
300
300
300
300
300
300
300
300
300
342.97391
329.33873
317.87456
309.64204
304.60934
301.96555
300.75165
300.25765
300.07865
300.02113
300.0049
300.00095
300.00014
300.00001
300
300
300
300
300
300
300
300
300
300
300
300
300
300
300
300
300
300
300
300
300
300
300
300
300
300
342.97426
329.3395
317.87464
309.63938
304.60264
301.95722
300.74546
300.25472
300.07783
300.02111
300.00502
300.00103
300.00018
300.00002
300
300
300
300
300
300
300
300
300
300
300
300
300
300
300
300
300
300
300
300
300
300
300
300
300
300
342.97463
329.34035
317.87503
309.63772
304.59801
301.9512
300.7408
300.25237
300.07708
300.02103
300.00508
300.00108
300.0002
300.00003
300
300
300
300
300
300
300
300
300
300
300
300
300
300
300
300
300
300
300
300
300
300
300
300
300
300
342.97503
329.34127
317.87561
309.6367
304.59475
301.94684
300.73731
300.25053
300.07644
300.02091
300.0051
300.0011
300.00021
300.00003
300
300
300
300
300
300
300
300
300
300
300
300
300
300
300
300
300
300
300
300
300
300
300
300
300
300
342.97546
329.34226
317.87633
309.63608
304.59239
301.94364
300.7347
300.24911
300.07591
300.02079
300.0051
300.00112
300.00022
300.00004
300.00001
300
300
300
300
300
300
300
300
300
300
300
300
300
300
300
300
300
300
300
300
300
300
300
300
300
342.97592
329.34332
317.87716
309.63573
304.59062
301.94122
300.73272
300.24801
300.07548
300.02068
300.0051
300.00113
300.00022
300.00004
300.00001
300
300
300
300
300
300
300
300
300
300
300
300
300
300
300
300
300
300
300
300
300
300
300
300
300
342.97646
329.34447
317.87812
309.6356
304.58926
301.93934
300.7312
300.24716
300.07514
300.02058
300.00508
300.00113
300.00023
300.00004
300.00001
300
300
300
300
300
300
300
300
300
300
300
300
300
300
300
300
300
300
300
300
300
300
300
300
300
342.9771
329.34582
317.87926
309.6357
304.58822
301.93784
300.72998
300.24648
300.07487
300.02051
300.00507
300.00113
300.00023
300.00004
300.00001
300
300
300
300
300
300
300
300
300
300
300
300
300
300
300
300
300
300
300
300
300
300
300
300
300
342.97789
329.3472
317.88038
309.63589
304.58745
301.9367
300.72906
300.24598
300.07467
300.02045
300.00506
300.00113
300.00023
300.00004
300.00001
300
300
300
300
300
300
300
300
300
300
300
300
300
300
300
300
300
300
300
300
300
300
300
300
300
342.9796
329.35042
317.88299
309.63684
304.58677
301.93535
300.72794
300.24536
300.07443
300.02039
300.00505
300.00114
300.00023
300.00004
300.00001
300
300
300
300
300
300
300
300
300
300
300
300
300
300
300
300
300
300
300
300
300
300
300
300
300
)
;

boundaryField
{
    wall
    {
        type            fixedValue;
        value           uniform 350;
    }
    sides
    {
        type            zeroGradient;
    }
    frontAndBack
    {
        type            empty;
    }
    inlet
    {
        type            fixedValue;
        value           uniform 300;
    }
    outlet
    {
        type            zeroGradient;
    }
}


// ************************************************************************* //
