/*--------------------------------*- C++ -*----------------------------------*\
  =========                 |
  \\      /  F ield         | OpenFOAM: The Open Source CFD Toolbox
   \\    /   O peration     | Website:  https://openfoam.org
    \\  /    A nd           | Version:  10
     \\/     M anipulation  |
\*---------------------------------------------------------------------------*/
FoamFile
{
    format      ascii;
    class       volVectorField;
    location    "0.15";
    object      U;
}
// * * * * * * * * * * * * * * * * * * * * * * * * * * * * * * * * * * * * * //

dimensions      [0 1 -1 0 0 0 0];

internalField   nonuniform List<vector> 
4000
(
(0 0.018636931 0.47773183)
(0 0.023509015 0.50886047)
(0 0.0081659462 0.50052525)
(0 0.005613711 0.50033637)
(0 0.0042536669 0.50025747)
(0 0.0032539719 0.50016898)
(0 0.0025551432 0.50011968)
(0 0.0020536851 0.50009012)
(0 0.0016757558 0.50006979)
(0 0.0013815104 0.50005537)
(0 0.0011465744 0.50004497)
(0 0.00095460726 0.5000373)
(0 0.00079435297 0.50003157)
(0 0.00065783402 0.50002724)
(0 0.00053922032 0.50002395)
(0 0.0004341293 0.50002147)
(0 0.0003391717 0.50001962)
(0 0.00025164364 0.50001829)
(0 0.00016931046 0.5000174)
(0 9.0248175e-05 0.50001689)
(0 1.2721431e-05 0.50001674)
(0 -6.4923972e-05 0.50001694)
(0 -0.00014435255 0.50001751)
(0 -0.00022733089 0.50001846)
(0 -0.0003158388 0.50001987)
(0 -0.00041219971 0.50002182)
(0 -0.00051925246 0.50002443)
(0 -0.00064059073 0.5000279)
(0 -0.00078091077 0.5000325)
(0 -0.00094654129 0.50003862)
(0 -0.0011462948 0.50004687)
(0 -0.0013928329 0.50005823)
(0 -0.0017049057 0.50007414)
(0 -0.002112866 0.5000971)
(0 -0.0026726336 0.50013483)
(0 -0.0034663411 0.50020241)
(0 -0.0045587903 0.5002715)
(0 -0.0065831041 0.50043373)
(0 -0.017657538 0.5067538)
(0 -0.013589153 0.47975618)
(0 0.037431243 0.44797104)
(0 0.050952777 0.53232599)
(0 0.021966334 0.50804295)
(0 0.016132783 0.50357337)
(0 0.01241304 0.50242321)
(0 0.0095128993 0.50162297)
(0 0.0075176508 0.50115654)
(0 0.0060670789 0.5008658)
(0 0.004961984 0.50066784)
(0 0.0040978277 0.5005288)
(0 0.0034056537 0.5004288)
(0 0.0028385089 0.50035526)
(0 0.0023640144 0.50030034)
(0 0.0019590807 0.50025892)
(0 0.0016067422 0.50022755)
(0 0.001294198 0.50020387)
(0 0.0010115174 0.50018625)
(0 0.00075075687 0.50017357)
(0 0.00050533616 0.50016505)
(0 0.00026957963 0.50016022)
(0 3.8360809e-05 0.50015879)
(0 -0.00019320614 0.5001607)
(0 -0.00043003707 0.50016606)
(0 -0.00067734869 0.50017519)
(0 -0.00094097815 0.50018862)
(0 -0.0012277617 0.5002072)
(0 -0.0015460304 0.50023217)
(0 -0.001906298 0.50026532)
(0 -0.002322253 0.50030928)
(0 -0.0028122435 0.50036794)
(0 -0.003401653 0.50044724)
(0 -0.0041268671 0.50055665)
(0 -0.0050409763 0.50071128)
(0 -0.0062238587 0.5009367)
(0 -0.0078244058 0.50129456)
(0 -0.010118456 0.50191083)
(0 -0.013100265 0.50282566)
(0 -0.017419886 0.50608154)
(0 -0.038753014 0.52526784)
(0 -0.027891812 0.45022032)
(0 0.039886107 0.40982536)
(0 0.061423064 0.54930879)
(0 0.031978223 0.52188189)
(0 0.024350425 0.51008092)
(0 0.019188283 0.50658871)
(0 0.014971822 0.50452802)
(0 0.012001549 0.50327118)
(0 0.0097670218 0.50245803)
(0 0.0080319998 0.50190058)
(0 0.0066608266 0.50150809)
(0 0.0055532713 0.50122477)
(0 0.0046397912 0.50101593)
(0 0.0038716389 0.50085969)
(0 0.0032134095 0.5007417)
(0 0.0026387593 0.50065226)
(0 0.0021276256 0.50058469)
(0 0.0016643216 0.50053438)
(0 0.0012362174 0.50049815)
(0 0.00083279577 0.50047381)
(0 0.00044494719 0.50045998)
(0 6.4419904e-05 0.5004559)
(0 -0.0003166585 0.50046135)
(0 -0.0007062079 0.50047667)
(0 -0.0011126189 0.50050274)
(0 -0.0015452481 0.5005411)
(0 -0.0020150022 0.50059414)
(0 -0.0025350917 0.50066535)
(0 -0.0031220623 0.50075982)
(0 -0.0037972568 0.50088494)
(0 -0.0045889288 0.50105162)
(0 -0.0055354475 0.50127641)
(0 -0.0066908088 0.50158544)
(0 -0.0081322323 0.50202083)
(0 -0.0099638309 0.50265099)
(0 -0.012358423 0.5036156)
(0 -0.015704032 0.50520005)
(0 -0.019861551 0.50785526)
(0 -0.025175169 0.51641279)
(0 -0.047406939 0.53912862)
(0 -0.030849248 0.41489042)
(0 0.034788906 0.36173949)
(0 0.06383163 0.55456614)
(0 0.03937173 0.5374711)
(0 0.030075617 0.51849303)
(0 0.024104594 0.51197754)
(0 0.019271604 0.50849931)
(0 0.015728414 0.5062638)
(0 0.012946816 0.5047547)
(0 0.010736852 0.50370342)
(0 0.0089618116 0.50295488)
(0 0.0075086523 0.50240962)
(0 0.0062976964 0.50200514)
(0 0.0052711261 0.50170117)
(0 0.0043856713 0.50147079)
(0 0.0036085018 0.50129565)
(0 0.0029142204 0.50116306)
(0 0.0022827068 0.50106418)
(0 0.0016975864 0.50099286)
(0 0.0011451041 0.50094491)
(0 0.00061326499 0.50091764)
(0 9.1153495e-05 0.50090958)
(0 -0.00043166658 0.50092032)
(0 -0.00096569254 0.50095049)
(0 -0.0015220105 0.5010018)
(0 -0.0021129163 0.50107724)
(0 -0.0027526326 0.5011814)
(0 -0.0034582156 0.50132098)
(0 -0.0042507608 0.50150568)
(0 -0.0051570664 0.50174948)
(0 -0.0062119308 0.50207287)
(0 -0.0074612424 0.50250633)
(0 -0.0089672539 0.50309685)
(0 -0.010817359 0.50391916)
(0 -0.013118154 0.50508964)
(0 -0.0160053 0.5068078)
(0 -0.01988143 0.50946909)
(0 -0.024714712 0.51427694)
(0 -0.031095917 0.52824766)
(0 -0.050304909 0.54407741)
(0 -0.028432599 0.37240078)
(0 0.027421275 0.3148586)
(0 0.062305357 0.5502474)
(0 0.044602186 0.5514674)
(0 0.03397096 0.52748834)
(0 0.027452955 0.51772273)
(0 0.022444115 0.51291956)
(0 0.018626058 0.50973061)
(0 0.01551794 0.50749132)
(0 0.012996778 0.50589818)
(0 0.010933722 0.50474473)
(0 0.0092173749 0.50389359)
(0 0.0077688679 0.50325629)
(0 0.0065281976 0.50277392)
(0 0.0054489213 0.50240627)
(0 0.0044949724 0.50212554)
(0 0.0036378669 0.50191228)
(0 0.0028546418 0.5017528)
(0 0.0021263385 0.50163753)
(0 0.0014368433 0.50155991)
(0 0.00077197574 0.50151571)
(0 0.0001187509 0.50150262)
(0 -0.00053528233 0.50151998)
(0 -0.0012026448 0.50156879)
(0 -0.0018965043 0.50165173)
(0 -0.0026313612 0.5017735)
(0 -0.0034238179 0.50194124)
(0 -0.0042935245 0.50216536)
(0 -0.0052643898 0.50246075)
(0 -0.0063661892 0.50284866)
(0 -0.0076367234 0.50335974)
(0 -0.0091242829 0.50403863)
(0 -0.010891331 0.50495188)
(0 -0.01302473 0.50620231)
(0 -0.015628326 0.50794483)
(0 -0.018789985 0.51040584)
(0 -0.02287126 0.51405736)
(0 -0.028153652 0.52114804)
(0 -0.035682348 0.53932756)
(0 -0.050457005 0.54156837)
(0 -0.024079477 0.33059122)
(0 0.019834758 0.27522009)
(0 0.057978326 0.53975936)
(0 0.047347372 0.56256515)
(0 0.036462562 0.53660419)
(0 0.029621446 0.52350733)
(0 0.024661601 0.51740281)
(0 0.02076015 0.51336169)
(0 0.017496416 0.51044247)
(0 0.014801884 0.50832147)
(0 0.012555589 0.50675846)
(0 0.010655991 0.50558887)
(0 0.009031076 0.50470358)
(0 0.0076232057 0.50402765)
(0 0.0063864971 0.50350887)
(0 0.0052844685 0.50311053)
(0 0.004287628 0.50280658)
(0 0.0033717234 0.5025785)
(0 0.0025163941 0.50241319)
(0 0.0017040918 0.50230164)
(0 0.00091920442 0.50223802)
(0 0.0001473294 0.50221912)
(0 -0.00062539186 0.50224402)
(0 -0.0014128913 0.5023141)
(0 -0.0022297501 0.50243309)
(0 -0.0030918915 0.50260742)
(0 -0.0040173307 0.50284689)
(0 -0.0050270717 0.50316565)
(0 -0.0061462098 0.50358368)
(0 -0.0074053247 0.50412918)
(0 -0.0088423758 0.50484208)
(0 -0.010504662 0.50577941)
(0 -0.012450508 0.50702344)
(0 -0.014760155 0.50869736)
(0 -0.017535449 0.51098282)
(0 -0.020830406 0.51412227)
(0 -0.024941279 0.51873373)
(0 -0.030477 0.52823258)
(0 -0.038596632 0.54872655)
(0 -0.048484124 0.5340094)
(0 -0.019059449 0.29398788)
(0 0.013079921 0.24258522)
(0 0.051785028 0.52522188)
(0 0.047688428 0.57025061)
(0 0.037737201 0.5455237)
(0 0.030831506 0.52928848)
(0 0.026054973 0.52180085)
(0 0.022219996 0.51699593)
(0 0.01893666 0.5134704)
(0 0.016177747 0.51086092)
(0 0.013835404 0.50890753)
(0 0.011823118 0.50742692)
(0 0.010078281 0.50629408)
(0 0.0085482449 0.50542124)
(0 0.0071902345 0.50474629)
(0 0.0059694233 0.50422483)
(0 0.0048569662 0.50382495)
(0 0.0038286473 0.50352368)
(0 0.0028637665 0.50330465)
(0 0.001944207 0.5031565)
(0 0.0010536556 0.50307184)
(0 0.00017693843 0.50304658)
(0 -0.00070060212 0.50307958)
(0 -0.0015936972 0.50317256)
(0 -0.0025176838 0.50333025)
(0 -0.0034891605 0.50356079)
(0 -0.0045266658 0.50387647)
(0 -0.0056514726 0.50429489)
(0 -0.0068885306 0.50484068)
(0 -0.0082675812 0.5055481)
(0 -0.009824732 0.50646495)
(0 -0.011604216 0.50765838)
(0 -0.01365832 0.50922326)
(0 -0.016056576 0.51129756)
(0 -0.018894352 0.5140807)
(0 -0.022203089 0.51784158)
(0 -0.026223428 0.5234721)
(0 -0.031807294 0.53537743)
(0 -0.039716607 0.55590231)
(0 -0.044864386 0.52286484)
(0 -0.014082592 0.26271294)
(0 0.0077667298 0.21558041)
(0 0.044809925 0.50804244)
(0 0.046229529 0.57438623)
(0 0.038009814 0.55374902)
(0 0.031263987 0.53495965)
(0 0.026745094 0.526029)
(0 0.023094169 0.52053561)
(0 0.019899435 0.51648394)
(0 0.017162297 0.51343602)
(0 0.014795481 0.51112379)
(0 0.012730539 0.50935154)
(0 0.01091539 0.507982)
(0 0.0093041025 0.50691756)
(0 0.0078586781 0.5060883)
(0 0.0065473414 0.50544363)
(0 0.005343104 0.5049467)
(0 0.0042228226 0.50457073)
(0 0.003166333 0.50429648)
(0 0.0021556987 0.50411051)
(0 0.0011745604 0.504004)
(0 0.00020756753 0.50397208)
(0 -0.0007601701 0.50401338)
(0 -0.0017436142 0.50412996)
(0 -0.0027582566 0.50432744)
(0 -0.0038207072 0.50461549)
(0 -0.0049492691 0.50500863)
(0 -0.0061646011 0.50552746)
(0 -0.007490483 0.50620059)
(0 -0.0089546405 0.50706735)
(0 -0.010589912 0.50818191)
(0 -0.012435921 0.50961952)
(0 -0.014537846 0.51148523)
(0 -0.016951915 0.51392794)
(0 -0.019759875 0.51715647)
(0 -0.022977789 0.52148386)
(0 -0.02682773 0.52818726)
(0 -0.032298843 0.54222176)
(0 -0.039350382 0.56051328)
(0 -0.040293667 0.50914707)
(0 -0.0096994886 0.23594593)
(0 0.0040014008 0.19360564)
(0 0.03788147 0.48953361)
(0 0.043655733 0.57525073)
(0 0.037531938 0.56084188)
(0 0.031124458 0.54035912)
(0 0.026885519 0.53000939)
(0 0.023486378 0.52389799)
(0 0.02045401 0.51940687)
(0 0.01780237 0.51598036)
(0 0.015467419 0.51334988)
(0 0.01339881 0.51131361)
(0 0.011555157 0.50972568)
(0 0.0098982649 0.50848145)
(0 0.0083958628 0.50750526)
(0 0.007020085 0.50674175)
(0 0.0057466229 0.50615019)
(0 0.0045541559 0.50570074)
(0 0.0034237261 0.50537177)
(0 0.0023381795 0.50514809)
(0 0.0012816598 0.5050197)
(0 0.00023915095 0.50498103)
(0 -0.00080397509 0.50503052)
(0 -0.0018624147 0.5051705)
(0 -0.002951299 0.50540739)
(0 -0.0040866953 0.50575215)
(0 -0.005286063 0.50622116)
(0 -0.006568769 0.50683751)
(0 -0.0079566709 0.50763303)
(0 -0.0094746732 0.50865106)
(0 -0.011151424 0.50995068)
(0 -0.013020837 0.51161323)
(0 -0.015120484 0.51375136)
(0 -0.017493033 0.51652087)
(0 -0.020202737 0.5201329)
(0 -0.023257562 0.52496744)
(0 -0.026898639 0.5327443)
(0 -0.032138396 0.54839121)
(0 -0.037931094 0.56256381)
(0 -0.035375214 0.49388326)
(0 -0.0061913688 0.21336378)
(0 0.0015473484 0.17619362)
(0 0.031479258 0.4708254)
(0 0.040495184 0.57340406)
(0 0.036519401 0.56659462)
(0 0.030600483 0.5453747)
(0 0.026636508 0.53370149)
(0 0.023509141 0.52702712)
(0 0.020678199 0.52218083)
(0 0.018153055 0.51844144)
(0 0.015890147 0.51553922)
(0 0.013855019 0.51327199)
(0 0.012016199 0.51148913)
(0 0.010343348 0.51008161)
(0 0.0088101682 0.50896994)
(0 0.007393086 0.5080954)
(0 0.0060709429 0.50741446)
(0 0.0048247196 0.50689496)
(0 0.0036371305 0.50651344)
(0 0.0024922512 0.50625332)
(0 0.0013751555 0.50610366)
(0 0.00027157353 0.50605833)
(0 -0.00083245719 0.5061156)
(0 -0.0019509623 0.50627806)
(0 -0.0030982985 0.50655274)
(0 -0.0042895593 0.50695165)
(0 -0.0055409085 0.50749261)
(0 -0.0068699471 0.50820067)
(0 -0.0082961191 0.50911006)
(0 -0.0098410504 0.51026708)
(0 -0.011528806 0.5117343)
(0 -0.013387164 0.51359708)
(0 -0.015446255 0.5159729)
(0 -0.017736742 0.51902033)
(0 -0.020305692 0.52295051)
(0 -0.023160405 0.52823967)
(0 -0.026579959 0.53704355)
(0 -0.031487191 0.55365893)
(0 -0.035829701 0.56234134)
(0 -0.030508486 0.47801504)
(0 -0.0035811697 0.19474666)
(0 7.2766584e-05 0.16259701)
(0 0.025847472 0.45268469)
(0 0.037116053 0.56946217)
(0 0.035143083 0.57098502)
(0 0.029832108 0.54995689)
(0 0.026130955 0.53710921)
(0 0.023264716 0.52990555)
(0 0.020648406 0.52477435)
(0 0.018271646 0.52078552)
(0 0.016105947 0.51765882)
(0 0.01412998 0.51519567)
(0 0.012320843 0.51324391)
(0 0.010655414 0.51169232)
(0 0.0091130298 0.5104592)
(0 0.0076743873 0.50948377)
(0 0.006321629 0.50872069)
(0 0.0050382665 0.50813619)
(0 0.0038089598 0.50770554)
(0 0.0026193093 0.50741114)
(0 0.0014556221 0.50724132)
(0 0.00030467851 0.50718957)
(0 -0.00084651284 0.50725402)
(0 -0.0020110004 0.50743744)
(0 -0.0032020601 0.50774733)
(0 -0.0044335068 0.50819647)
(0 -0.0057199108 0.50880377)
(0 -0.0070768302 0.50959563)
(0 -0.0085210559 0.51060794)
(0 -0.010070795 0.51188895)
(0 -0.011745597 0.51350339)
(0 -0.013567317 0.51553892)
(0 -0.015559241 0.5181153)
(0 -0.017742052 0.5213908)
(0 -0.020148272 0.52557992)
(0 -0.022791442 0.53128623)
(0 -0.02598763 0.5410324)
(0 -0.030475757 0.55793451)
(0 -0.033339431 0.56024179)
(0 -0.025945131 0.46223171)
(0 -0.0017545799 0.17963487)
(0 -0.00072211698 0.15199256)
(0 0.021082202 0.43554358)
(0 0.033768608 0.56397446)
(0 0.033545951 0.57408623)
(0 0.028919875 0.554085)
(0 0.025468267 0.54025667)
(0 0.022836612 0.53254369)
(0 0.020431475 0.52717939)
(0 0.018211047 0.52299646)
(0 0.016155811 0.51968905)
(0 0.014254992 0.5170638)
(0 0.012492776 0.51496931)
(0 0.010852216 0.5132937)
(0 0.0093176235 0.51195434)
(0 0.0078736588 0.51088945)
(0 0.0065056648 0.51005265)
(0 0.0051997074 0.50940927)
(0 0.0039424996 0.50893374)
(0 0.0027213235 0.5086078)
(0 0.0015239052 0.50841931)
(0 0.00033827625 0.50836147)
(0 -0.00084737589 0.50843233)
(0 -0.0020449135 0.50863477)
(0 -0.0032663311 0.50897664)
(0 -0.0045239783 0.50947121)
(0 -0.0058306751 0.51013811)
(0 -0.0071998318 0.51100459)
(0 -0.0086455582 0.51210753)
(0 -0.010182743 0.51349625)
(0 -0.011826776 0.5152366)
(0 -0.013594179 0.51741724)
(0 -0.015502187 0.52015832)
(0 -0.017563334 0.52361585)
(0 -0.019799242 0.52801549)
(0 -0.022235878 0.53411308)
(0 -0.025212421 0.54467987)
(0 -0.029219168 0.56120909)
(0 -0.030691724 0.55666105)
(0 -0.021838567 0.44697192)
(0 -0.00055329277 0.16744138)
(0 -0.0010743708 0.14368311)
(0 0.017174244 0.41961652)
(0 0.030608362 0.55740067)
(0 0.031845827 0.5760198)
(0 0.027937721 0.55775146)
(0 0.024721825 0.54316962)
(0 0.022291146 0.53496417)
(0 0.020082925 0.52940177)
(0 0.018016921 0.52507019)
(0 0.016076662 0.52162042)
(0 0.014259467 0.51886379)
(0 0.012555121 0.51665119)
(0 0.010951707 0.51487107)
(0 0.0094377231 0.51344074)
(0 0.0080013285 0.51229817)
(0 0.0066308012 0.51139662)
(0 0.0053146369 0.51070099)
(0 0.0040415787 0.5101853)
(0 0.0028006328 0.50983093)
(0 0.0015810275 0.50962547)
(0 0.00037215348 0.50956194)
(0 -0.00083650461 0.50963834)
(0 -0.0020555038 0.50985762)
(0 -0.0032954508 0.51022782)
(0 -0.0045671475 0.51076252)
(0 -0.0058816235 0.5114817)
(0 -0.0072501694 0.51241307)
(0 -0.0086843391 0.51359394)
(0 -0.010195958 0.51507404)
(0 -0.011796751 0.51691952)
(0 -0.013498675 0.51921913)
(0 -0.01531382 0.52209209)
(0 -0.017248258 0.52569144)
(0 -0.019316737 0.53026408)
(0 -0.021562464 0.53673173)
(0 -0.024327382 0.54796588)
(0 -0.027819009 0.5635271)
(0 -0.028057014 0.5519615)
(0 -0.01826282 0.43250077)
(0 0.00018106372 0.15762038)
(0 -0.0011575439 0.13711744)
(0 0.014046073 0.40498422)
(0 0.027715277 0.55011564)
(0 0.030130647 0.57693358)
(0 0.026937915 0.5609628)
(0 0.023944446 0.54587189)
(0 0.021680043 0.53719383)
(0 0.019647816 0.53145454)
(0 0.017727483 0.52700988)
(0 0.015900494 0.52345026)
(0 0.014169778 0.52058915)
(0 0.012529287 0.51828062)
(0 0.010971016 0.51641408)
(0 0.0094868459 0.51490732)
(0 0.0080678963 0.51369857)
(0 0.0067050229 0.51274121)
(0 0.0053889341 0.5120001)
(0 0.0041102876 0.51144914)
(0 0.0028597678 0.51106961)
(0 0.0016281066 0.51084897)
(0 0.00040608233 0.51078017)
(0 -0.00081548103 0.51086119)
(0 -0.0020457932 0.51109501)
(0 -0.0032940462 0.51148973)
(0 -0.004569496 0.51205906)
(0 -0.0058814309 0.51282309)
(0 -0.0072391442 0.51380963)
(0 -0.0086518576 0.51505602)
(0 -0.010128685 0.51661187)
(0 -0.011678241 0.51854312)
(0 -0.013308748 0.52093796)
(0 -0.015028146 0.52391375)
(0 -0.016837701 0.52762113)
(0 -0.018749157 0.5323392)
(0 -0.020825545 0.53915613)
(0 -0.023389533 0.55088406)
(0 -0.026357612 0.56497165)
(0 -0.025546402 0.54646166)
(0 -0.015229418 0.41896675)
(0 0.00058656047 0.14970936)
(0 -0.0010899657 0.13185602)
(0 0.011587019 0.39163838)
(0 0.025117104 0.54241357)
(0 0.028459108 0.5769823)
(0 0.025953705 0.5637388)
(0 0.02317131 0.54838623)
(0 0.021041661 0.53926102)
(0 0.01916145 0.53335499)
(0 0.017373828 0.52882338)
(0 0.015654243 0.52518057)
(0 0.014008814 0.52223784)
(0 0.012434376 0.51985271)
(0 0.010925835 0.51791593)
(0 0.0094776796 0.51634606)
(0 0.008083435 0.51508192)
(0 0.0067361395 0.51407729)
(0 0.0054284445 0.51329724)
(0 0.0041527476 0.51271583)
(0 0.0029013036 0.51231437)
(0 0.0016662862 0.51208035)
(0 0.00043982932 0.51200671)
(0 -0.00078592421 0.51209143)
(0 -0.0020188565 0.51233747)
(0 -0.0032667804 0.51275294)
(0 -0.0045374721 0.51335148)
(0 -0.0058385919 0.51415313)
(0 -0.0071776192 0.51518555)
(0 -0.0085617268 0.51648578)
(0 -0.0099977187 0.51810304)
(0 -0.011491672 0.52010263)
(0 -0.013048893 0.52257179)
(0 -0.014674162 0.52562555)
(0 -0.016365531 0.52941393)
(0 -0.018135018 0.53425881)
(0 -0.020065532 0.54140269)
(0 -0.022440238 0.55344218)
(0 -0.024895884 0.56564784)
(0 -0.023222418 0.54042809)
(0 -0.012708647 0.40643225)
(0 0.00077226798 0.14331434)
(0 -0.00094808063 0.12755346)
(0 0.0096783053 0.37951338)
(0 0.022810301 0.53451548)
(0 0.026866284 0.57631149)
(0 0.025003675 0.56610685)
(0 0.022423464 0.55073322)
(0 0.02040249 0.54119325)
(0 0.018650126 0.53512264)
(0 0.016980308 0.53052162)
(0 0.015359847 0.52681658)
(0 0.013795824 0.52381103)
(0 0.012286913 0.52136563)
(0 0.010830079 0.51937265)
(0 0.0094217244 0.5177515)
(0 0.0080572545 0.51644175)
(0 0.0067314919 0.5153977)
(0 0.0054387414 0.51458486)
(0 0.0041729327 0.51397755)
(0 0.0029277429 0.51355726)
(0 0.0016966829 0.51331159)
(0 0.00047316349 0.51323352)
(0 -0.00074941965 0.51332104)
(0 -0.0019776878 0.51357708)
(0 -0.0032181565 0.51400965)
(0 -0.0044772329 0.51463229)
(0 -0.0057611051 0.5154648)
(0 -0.0070756582 0.5165345)
(0 -0.0084263243 0.517878)
(0 -0.0098180124 0.51954386)
(0 -0.011254813 0.52159661)
(0 -0.012739859 0.5241223)
(0 -0.014275665 0.52723356)
(0 -0.015858532 0.53108256)
(0 -0.017503235 0.53604312)
(0 -0.019310372 0.54348879)
(0 -0.021507345 0.5556578)
(0 -0.023475672 0.5656663)
(0 -0.021112972 0.53407304)
(0 -0.01064793 0.39489741)
(0 0.00081848772 0.13810232)
(0 -0.00077938449 0.12394889)
(0 0.008207282 0.3685128)
(0 0.020774512 0.52658145)
(0 0.025369945 0.57504952)
(0 0.024096452 0.56809672)
(0 0.021711861 0.55292971)
(0 0.019779496 0.54301503)
(0 0.018132449 0.5367771)
(0 0.016565232 0.53211696)
(0 0.015034543 0.52836544)
(0 0.013546487 0.52531207)
(0 0.012100762 0.52281985)
(0 0.010695723 0.5207825)
(0 0.0093290943 0.51912028)
(0 0.0079976953 0.51777349)
(0 0.0066977611 0.51669706)
(0 0.0054249631 0.515857)
(0 0.0041745436 0.51522796)
(0 0.0029414328 0.51479171)
(0 0.0017203465 0.51453599)
(0 0.00050586379 0.51445387)
(0 -0.00070746556 0.51454335)
(0 -0.001925101 0.51480732)
(0 -0.0031523742 0.51525365)
(0 -0.0043944619 0.51589567)
(0 -0.0056562593 0.51675288)
(0 -0.0069422903 0.51785218)
(0 -0.0082565542 0.51922962)
(0 -0.0096024607 0.52093304)
(0 -0.010982612 0.52302611)
(0 -0.012398595 0.52559366)
(0 -0.013851424 0.52874621)
(0 -0.015336943 0.53264154)
(0 -0.016874358 0.53771214)
(0 -0.018578061 0.5454307)
(0 -0.020608199 0.55755356)
(0 -0.022123359 0.5651326)
(0 -0.019223023 0.52755931)
(0 -0.0089844552 0.38432244)
(0 0.00078172665 0.13380126)
(0 -0.00061186958 0.12085229)
(0 0.0070747685 0.3585283)
(0 0.018981637 0.51872432)
(0 0.023975833 0.57330595)
(0 0.023234324 0.56973797)
(0 0.021040752 0.55498852)
(0 0.01918257 0.54474661)
(0 0.017620948 0.53833655)
(0 0.016141875 0.53362186)
(0 0.014691448 0.52983513)
(0 0.013273197 0.52674557)
(0 0.011887239 0.52421727)
(0 0.010532796 0.52214529)
(0 0.0092084476 0.52045059)
(0 0.0079120292 0.51907414)
(0 0.0066408609 0.51797147)
(0 0.0053917141 0.5171091)
(0 0.0041609277 0.51646207)
(0 0.0029445099 0.51601243)
(0 0.0017382354 0.51574812)
(0 0.0005377252 0.51566229)
(0 -0.00066143509 0.51575297)
(0 -0.0018636624 0.51602297)
(0 -0.0030732354 0.51648004)
(0 -0.0042942537 0.51713723)
(0 -0.005530506 0.51801371)
(0 -0.0067853856 0.51913591)
(0 -0.008061747 0.52053928)
(0 -0.0093618565 0.52227097)
(0 -0.010687255 0.52439383)
(0 -0.012038498 0.52699149)
(0 -0.013415723 0.53017299)
(0 -0.01481542 0.5341055)
(0 -0.016262167 0.53928409)
(0 -0.017879135 0.5472426)
(0 -0.019752298 0.5591541)
(0 -0.020853229 0.5641422)
(0 -0.017543186 0.52100848)
(0 -0.0076534824 0.37464525)
(0 0.00070040688 0.1301962)
(0 -0.00046046197 0.1181286)
(0 0.0061981921 0.349451)
(0 0.017401457 0.51102135)
(0 0.022681925 0.57117275)
(0 0.022415743 0.57105887)
(0 0.020410092 0.55691897)
(0 0.018616541 0.54640392)
(0 0.017123551 0.53981696)
(0 0.015719507 0.53504806)
(0 0.014340247 0.53123367)
(0 0.0129855 0.52811669)
(0 0.011655352 0.52556073)
(0 0.010349501 0.52346193)
(0 0.0090670205 0.52174182)
(0 0.0078064453 0.52034189)
(0 0.0065659001 0.51921823)
(0 0.0053430194 0.51833779)
(0 0.004135038 0.51767602)
(0 0.0029388709 0.51721526)
(0 0.0017512031 0.51694362)
(0 0.00056856372 0.5168544)
(0 -0.00061255298 0.5169456)
(0 -0.00179565 0.51721998)
(0 -0.0029840919 0.51768511)
(0 -0.0041810565 0.51835382)
(0 -0.0053894086 0.51924489)
(0 -0.0066116261 0.52038428)
(0 -0.007849677 0.52180689)
(0 -0.0091049905 0.52355922)
(0 -0.010378398 0.52570342)
(0 -0.011669831 0.52832207)
(0 -0.01297904 0.53152358)
(0 -0.014304052 0.53548825)
(0 -0.015675135 0.5407747)
(0 -0.017218659 0.5489364)
(0 -0.01894342 0.56048438)
(0 -0.019670547 0.56277858)
(0 -0.016056049 0.51450904)
(0 -0.0065937841 0.36579323)
(0 0.00059971776 0.12712098)
(0 -0.00033163038 0.1156838)
(0 0.005511824 0.34117767)
(0 0.016004948 0.50352342)
(0 0.021481801 0.56872635)
(0 0.021637128 0.57208579)
(0 0.019817248 0.55872761)
(0 0.018082745 0.54799893)
(0 0.016644789 0.54123188)
(0 0.0153043 0.53640616)
(0 0.013987859 0.53256864)
(0 0.012690557 0.52943066)
(0 0.011412106 0.52685348)
(0 0.010152395 0.52473402)
(0 0.0089107303 0.52299419)
(0 0.0076860973 0.52157587)
(0 0.006477196 0.52043557)
(0 0.0052823207 0.51954066)
(0 0.004099422 0.51886694)
(0 0.0029261623 0.518397)
(0 0.0017599936 0.51811916)
(0 0.00059822017 0.51802678)
(0 -0.00056188387 0.51811792)
(0 -0.0017230374 0.51839525)
(0 -0.0028878276 0.51886618)
(0 -0.0040586611 0.51954326)
(0 -0.0052376486 0.52044497)
(0 -0.0064265469 0.52159682)
(0 -0.0076266604 0.52303321)
(0 -0.0088388344 0.52480009)
(0 -0.01006347 0.52695903)
(0 -0.011300187 0.52959181)
(0 -0.012548719 0.53280721)
(0 -0.0138093 0.53680222)
(0 -0.015117697 0.54219699)
(0 -0.016597831 0.55052188)
(0 -0.018181419 0.56156845)
(0 -0.0185744 0.56111305)
(0 -0.014740644 0.50812353)
(0 -0.00575076 0.35769069)
(0 0.00049542115 0.12444929)
(0 -0.00022670674 0.11345364)
(0 0.0049651857 0.33361406)
(0 0.014765928 0.49626234)
(0 0.020367061 0.56602995)
(0 0.020894125 0.57284302)
(0 0.019258241 0.56041883)
(0 0.017580256 0.5495402)
(0 0.016186771 0.54259243)
(0 0.014900082 0.53770546)
(0 0.01363903 0.53384699)
(0 0.012393584 0.53069249)
(0 0.011162817 0.52809891)
(0 0.0099466084 0.52596354)
(0 0.0087443153 0.52420849)
(0 0.0075551899 0.52277588)
(0 0.0063783237 0.52162253)
(0 0.0052125013 0.52071613)
(0 0.0040562332 0.52003278)
(0 0.0029077855 0.5195553)
(0 0.0017652437 0.51927219)
(0 0.00062656161 0.5191769)
(0 -0.00051033105 0.51926748)
(0 -0.0016474938 0.51954654)
(0 -0.0027868661 0.52002134)
(0 -0.0039302228 0.52070421)
(0 -0.0050790739 0.52161329)
(0 -0.0062346233 0.52277375)
(0 -0.0073976977 0.52421954)
(0 -0.0085687617 0.52599622)
(0 -0.009747997 0.52816491)
(0 -0.010934942 0.53080685)
(0 -0.012129588 0.53403236)
(0 -0.013334826 0.53805817)
(0 -0.01459134 0.54356135)
(0 -0.016015275 0.55200674)
(0 -0.017463705 0.56242866)
(0 -0.017560064 0.55920553)
(0 -0.013575338 0.50189466)
(0 -0.0050777455 0.35026359)
(0 0.00039673982 0.1220867)
(0 -0.00014415834 0.11139496)
(0 0.0045206218 0.32667632)
(0 0.013661633 0.48925637)
(0 0.019328878 0.56313593)
(0 0.020182384 0.57335274)
(0 0.018728592 0.56199549)
(0 0.017106817 0.55103343)
(0 0.015749959 0.54390753)
(0 0.014508968 0.53895392)
(0 0.013296839 0.53507486)
(0 0.012098244 0.53190684)
(0 0.010911411 0.52930035)
(0 0.0097360592 0.52715263)
(0 0.0085714898 0.52538585)
(0 0.0074170848 0.52394219)
(0 0.0062721858 0.52277866)
(0 0.0051359308 0.52186321)
(0 0.0040072579 0.52117214)
(0 0.0028849114 0.5206885)
(0 0.0017674902 0.5204009)
(0 0.00065348216 0.52030288)
(0 -0.00045864228 0.5203925)
(0 -0.0015703988 0.52067229)
(0 -0.002683198 0.52114939)
(0 -0.0037983081 0.52183592)
(0 -0.004916772 0.52274976)
(0 -0.0060393824 0.52391576)
(0 -0.007166639 0.52536756)
(0 -0.0082987825 0.52715042)
(0 -0.0094359274 0.5293252)
(0 -0.010577695 0.53197287)
(0 -0.011724532 0.53520655)
(0 -0.012882232 0.53926518)
(0 -0.014095532 0.54487568)
(0 -0.015468056 0.55339693)
(0 -0.016786341 0.5630854)
(0 -0.016620753 0.55710587)
(0 -0.01253956 0.49585036)
(0 -0.0045361967 0.34344236)
(0 0.00030851587 0.11996378)
(0 -8.1067715e-05 0.10947892)
(0 0.0041507136 0.32029116)
(0 0.012672697 0.48251444)
(0 0.018358871 0.56008789)
(0 0.019497968 0.57363535)
(0 0.018223859 0.5634594)
(0 0.0166595 0.55248203)
(0 0.015333757 0.54518406)
(0 0.014131865 0.5401582)
(0 0.012963123 0.5362576)
(0 0.011806999 0.53307786)
(0 0.010660691 0.53046093)
(0 0.0095236657 0.52830349)
(0 0.0083951003 0.52652761)
(0 0.0072744141 0.52507541)
(0 0.0061610928 0.52390398)
(0 0.0050545192 0.52298141)
(0 0.0039539503 0.52228419)
(0 0.0028585013 0.52179549)
(0 0.001767179 0.52150405)
(0 0.00067890229 0.52140346)
(0 -0.00040742049 0.52149178)
(0 -0.0014928653 0.5217715)
(0 -0.0025784194 0.52224963)
(0 -0.0036649539 0.52293812)
(0 -0.0047531573 0.52385465)
(0 -0.0058435276 0.52502382)
(0 -0.006936356 0.52647905)
(0 -0.0080317751 0.52826544)
(0 -0.0091299358 0.53044372)
(0 -0.010230656 0.53309494)
(0 -0.011334975 0.53633626)
(0 -0.012451662 0.54043058)
(0 -0.013628443 0.54614573)
(0 -0.014952418 0.55469688)
(0 -0.016144816 0.563557)
(0 -0.015748829 0.55485541)
(0 -0.011614693 0.4900079)
(0 -0.0040951749 0.3371635)
(0 0.00023274097 0.11803031)
(0 -3.4057035e-05 0.10768612)
(0 0.0038358885 0.31439532)
(0 0.011782845 0.47603917)
(0 0.017449525 0.55692243)
(0 0.018837514 0.57370973)
(0 0.017739929 0.56481188)
(0 0.016235136 0.55388772)
(0 0.014936922 0.54642718)
(0 0.013768852 0.54132378)
(0 0.012638822 0.53739977)
(0 0.011521394 0.5342092)
(0 0.010412584 0.5315835)
(0 0.0093115351 0.5294182)
(0 0.0082172734 0.52763517)
(0 0.0071291926 0.52617635)
(0 0.0060468455 0.52499878)
(0 0.0049697762 0.52407062)
(0 0.0038974724 0.52336847)
(0 0.0028293307 0.5228756)
(0 0.0017646756 0.52258085)
(0 0.00070276703 0.52247782)
(0 -0.00035713864 0.5225646)
(0 -0.0014157686 0.52284361)
(0 -0.0024737786 0.52332177)
(0 -0.0035317349 0.5240109)
(0 -0.0045900655 0.52492852)
(0 -0.0056490664 0.52609907)
(0 -0.0067089098 0.52755584)
(0 -0.0077697036 0.52934387)
(0 -0.0088316999 0.53152392)
(0 -0.0098949856 0.53417745)
(0 -0.010961294 0.53742692)
(0 -0.012042284 0.54156016)
(0 -0.013187489 0.54737538)
(0 -0.01446429 0.55590988)
(0 -0.015534558 0.56385995)
(0 -0.014936603 0.55248844)
(0 -0.010784424 0.48437689)
(0 -0.0037304361 0.33137023)
(0 0.00016962463 0.11625033)
(0 1.6952978e-07 0.10600317)
(0 0.0035623805 0.30893453)
(0 0.010978475 0.46982898)
(0 0.016594327 0.55367051)
(0 0.018198255 0.57359347)
(0 0.017273155 0.56605404)
(0 0.015830581 0.55525093)
(0 0.014557861 0.54764063)
(0 0.013419469 0.54245513)
(0 0.012324243 0.53850523)
(0 0.011242295 0.53530404)
(0 0.010168334 0.5326706)
(0 0.0091011303 0.53049875)
(0 0.0080395502 0.52870997)
(0 0.0069829231 0.52724594)
(0 0.0059308158 0.52606356)
(0 0.0048828702 0.52513098)
(0 0.0038387347 0.52442487)
(0 0.0027980142 0.52392855)
(0 0.0017602754 0.52363088)
(0 0.00072504283 0.52352554)
(0 -0.00030815621 0.52361058)
(0 -0.0013397779 0.52388839)
(0 -0.0023702237 0.52436582)
(0 -0.0033998324 0.52505459)
(0 -0.0044288463 0.5259721)
(0 -0.0054574314 0.52714271)
(0 -0.0064857074 0.52859967)
(0 -0.0075138129 0.53038807)
(0 -0.0085421376 0.53256881)
(0 -0.0095710815 0.53522416)
(0 -0.010603136 0.53848297)
(0 -0.011652654 0.54265831)
(0 -0.012769723 0.54856705)
(0 -0.013999629 0.55703836)
(0 -0.014951255 0.5640091)
(0 -0.014176831 0.55003355)
(0 -0.010034763 0.4789616)
(0 -0.0034233614 0.32601245)
(0 0.00011833905 0.11459834)
(0 2.4546946e-05 0.10442037)
(0 0.003320592 0.30386249)
(0 0.010248223 0.46387962)
(0 0.015787728 0.5503585)
(0 0.01757796 0.5733031)
(0 0.016820403 0.56718709)
(0 0.015442869 0.55657123)
(0 0.014194813 0.54882698)
(0 0.013082914 0.54355581)
(0 0.012019254 0.53957719)
(0 0.010970074 0.53636509)
(0 0.0099286709 0.5337245)
(0 0.0088934109 0.53154693)
(0 0.0078630033 0.52975338)
(0 0.0068366917 0.52828514)
(0 0.0058140205 0.52709894)
(0 0.0047946832 0.52616285)
(0 0.0037784348 0.5254535)
(0 0.0027650295 0.52495427)
(0 0.0017542142 0.52465403)
(0 0.00074571421 0.52454647)
(0 -0.00026073649 0.52462963)
(0 -0.0012653881 0.52490587)
(0 -0.0022684517 0.52538199)
(0 -0.0032701007 0.52606965)
(0 -0.0042704512 0.5269862)
(0 -0.0052695935 0.52815594)
(0 -0.0062676402 0.52961218)
(0 -0.0072647965 0.53140013)
(0 -0.0082616047 0.53358099)
(0 -0.0092588005 0.53623817)
(0 -0.010259675 0.539508)
(0 -0.011280983 0.54372823)
(0 -0.012372107 0.54972199)
(0 -0.013554629 0.5580842)
(0 -0.014391019 0.56401792)
(0 -0.013462971 0.54751468)
(0 -0.0093538742 0.47376268)
(0 -0.0031598897 0.32104643)
(0 7.7526606e-05 0.11305626)
(0 4.1540414e-05 0.10293023)
(0 0.00310384 0.29913967)
(0 0.0095825535 0.45818512)
(0 0.015025024 0.54700903)
(0 0.016974837 0.57285422)
(0 0.016379025 0.56821246)
(0 0.015069281 0.55784765)
(0 0.013845974 0.54998789)
(0 0.012758185 0.54462865)
(0 0.011723432 0.54061834)
(0 0.010704745 0.53739464)
(0 0.00969394 0.53474713)