/*--------------------------------*- C++ -*----------------------------------*\
  =========                 |
  \\      /  F ield         | OpenFOAM: The Open Source CFD Toolbox
   \\    /   O peration     | Website:  https://openfoam.org
    \\  /    A nd           | Version:  10
     \\/     M anipulation  |
\*---------------------------------------------------------------------------*/
FoamFile
{
    format      ascii;
    class       volVectorField;
    location    "0.15";
    object      U_0;
}
// * * * * * * * * * * * * * * * * * * * * * * * * * * * * * * * * * * * * * //

dimensions      [0 1 -1 0 0 0 0];

internalField   nonuniform List<vector> 
4000
(
(0 0.018636906 0.47773184)
(0 0.023508967 0.50886046)
(0 0.0081659018 0.50052525)
(0 0.0056136665 0.50033637)
(0 0.0042536189 0.50025747)
(0 0.0032539227 0.50016898)
(0 0.0025550944 0.50011968)
(0 0.0020536377 0.50009012)
(0 0.0016757108 0.50006979)
(0 0.0013814686 0.50005537)
(0 0.0011465366 0.50004497)
(0 0.0009545742 0.5000373)
(0 0.00079432525 0.50003157)
(0 0.00065781224 0.50002723)
(0 0.00053920495 0.50002395)
(0 0.00043412074 0.50002147)
(0 0.0003391703 0.50001962)
(0 0.00025164967 0.50001829)
(0 0.00016932414 0.5000174)
(0 9.0269608e-05 0.50001689)
(0 1.2750679e-05 0.50001674)
(0 -6.4886945e-05 0.50001694)
(0 -0.00014430782 0.50001751)
(0 -0.00022727869 0.50001846)
(0 -0.00031577941 0.50001987)
(0 -0.00041213347 0.50002182)
(0 -0.00051917986 0.50002443)
(0 -0.0006405123 0.5000279)
(0 -0.00078082717 0.5000325)
(0 -0.00094645332 0.50003862)
(0 -0.0011462034 0.50004687)
(0 -0.001392739 0.50005823)
(0 -0.0017048105 0.50007414)
(0 -0.0021127709 0.5000971)
(0 -0.0026725403 0.50013483)
(0 -0.003466252 0.50020241)
(0 -0.004558709 0.5002715)
(0 -0.0065830269 0.50043374)
(0 -0.01765746 0.50675379)
(0 -0.013589113 0.4797562)
(0 0.037431174 0.44797113)
(0 0.050952633 0.53232598)
(0 0.021966188 0.50804296)
(0 0.016132642 0.50357338)
(0 0.012412889 0.50242321)
(0 0.0095127449 0.50162297)
(0 0.0075174979 0.50115654)
(0 0.0060669305 0.5008658)
(0 0.0049618431 0.50066783)
(0 0.0040976969 0.5005288)
(0 0.0034055354 0.50042879)
(0 0.0028384053 0.50035525)
(0 0.0023639274 0.50030033)
(0 0.0019590122 0.5002589)
(0 0.0016066935 0.50022753)
(0 0.0012941705 0.50020385)
(0 0.0010115122 0.50018624)
(0 0.00075077472 0.50017355)
(0 0.00050537774 0.50016504)
(0 0.00026964533 0.5001602)
(0 3.845076e-05 0.50015878)
(0 -0.00019309201 0.50016069)
(0 -0.00042989908 0.50016605)
(0 -0.00067718744 0.50017517)
(0 -0.0009407945 0.5001886)
(0 -0.0012275567 0.50020719)
(0 -0.0015458055 0.50023215)
(0 -0.001906055 0.50026531)
(0 -0.0023219938 0.50030927)
(0 -0.0028119705 0.50036793)
(0 -0.003401369 0.50044723)
(0 -0.0041265753 0.50055665)
(0 -0.0050406802 0.50071128)
(0 -0.0062235627 0.50093671)
(0 -0.0078241146 0.50129457)
(0 -0.010118176 0.50191084)
(0 -0.013100009 0.50282568)
(0 -0.017419636 0.50608155)
(0 -0.038752776 0.52526783)
(0 -0.027891699 0.45022047)
(0 0.039886002 0.4098256)
(0 0.061422817 0.54930882)
(0 0.031977951 0.52188188)
(0 0.024350173 0.51008094)
(0 0.019188016 0.50658872)
(0 0.01497155 0.50452802)
(0 0.012001281 0.50327118)
(0 0.0097667619 0.50245802)
(0 0.0080317531 0.50190057)
(0 0.0066605976 0.50150807)
(0 0.0055530642 0.50122475)
(0 0.0046396095 0.50101589)
(0 0.003871486 0.50085966)
(0 0.0032132884 0.50074167)
(0 0.0026386726 0.50065221)
(0 0.0021275755 0.50058464)
(0 0.0016643099 0.50053434)
(0 0.0012362456 0.5004981)
(0 0.000832865 0.50047376)
(0 0.00044505806 0.50045993)
(0 6.457274e-05 0.50045585)
(0 -0.00031646385 0.50046131)
(0 -0.00070597201 0.50047662)
(0 -0.0011123427 0.50050269)
(0 -0.001544933 0.50054106)
(0 -0.0020146502 0.5005941)
(0 -0.0025347051 0.50066532)
(0 -0.0031216439 0.50075979)
(0 -0.0037968102 0.50088491)
(0 -0.004588458 0.5010516)
(0 -0.0055349571 0.50127639)
(0 -0.0066903042 0.50158543)
(0 -0.0081317196 0.50202083)
(0 -0.0099633174 0.50265099)
(0 -0.012357916 0.50361562)
(0 -0.015703542 0.50520008)
(0 -0.019861099 0.5078553)
(0 -0.025174711 0.51641281)
(0 -0.047406526 0.53912867)
(0 -0.030849067 0.41489083)
(0 0.034788776 0.36173995)
(0 0.063831276 0.55456628)
(0 0.039371306 0.53747109)
(0 0.030075234 0.51849306)
(0 0.024104195 0.51197756)
(0 0.019271202 0.50849931)
(0 0.015728017 0.50626379)
(0 0.012946431 0.50475468)
(0 0.010736487 0.50370338)
(0 0.0089614727 0.50295484)
(0 0.0075083454 0.50240956)
(0 0.0062974268 0.50200508)
(0 0.0052708987 0.5017011)
(0 0.0043854903 0.50147072)
(0 0.0036083709 0.50129557)
(0 0.0029141429 0.50116298)
(0 0.0022826853 0.50106409)
(0 0.0016976231 0.50099276)
(0 0.0011452004 0.50094481)
(0 0.00061342207 0.50091754)
(0 9.1371721e-05 0.50090948)
(0 -0.00043138737 0.50092022)
(0 -0.0009653531 0.50095039)
(0 -0.0015216122 0.5010017)
(0 -0.002112461 0.50107715)
(0 -0.0027521232 0.50118131)
(0 -0.0034576554 0.5013209)
(0 -0.0042501539 0.5015056)
(0 -0.0051564176 0.50174942)
(0 -0.0062112459 0.50207282)
(0 -0.007460528 0.50250629)
(0 -0.0089665174 0.50309682)
(0 -0.010816609 0.50391915)
(0 -0.013117401 0.50508965)
(0 -0.016004554 0.50680783)
(0 -0.019880705 0.50946915)
(0 -0.024714032 0.51427701)
(0 -0.031095204 0.52824768)
(0 -0.050304303 0.54407762)
(0 -0.028432362 0.37240159)
(0 0.027421131 0.31485934)
(0 0.062304896 0.55024773)
(0 0.044601583 0.55146739)
(0 0.033970417 0.52748835)
(0 0.027452406 0.51772276)
(0 0.022443562 0.51291956)
(0 0.018625513 0.50973059)
(0 0.015517413 0.50749127)
(0 0.012996279 0.50589811)
(0 0.010933259 0.50474465)
(0 0.0092169551 0.5038935)
(0 0.0077684985 0.50325618)
(0 0.0065278851 0.50277379)
(0 0.0054486713 0.50240613)
(0 0.0044947898 0.50212539)
(0 0.003637756 0.50191212)
(0 0.0028546061 0.50175264)
(0 0.0021263809 0.50163737)
(0 0.0014369659 0.50155974)
(0 0.00077217982 0.50151554)
(0 0.00011903714 0.50150245)
(0 -0.00053491408 0.50151981)
(0 -0.0012021954 0.50156862)
(0 -0.0018959757 0.50165157)
(0 -0.0026307558 0.50177335)
(0 -0.0034231393 0.5019411)
(0 -0.0042927769 0.50216523)
(0 -0.0052635787 0.50246062)
(0 -0.0063653208 0.50284855)
(0 -0.0076358052 0.50335964)
(0 -0.0091233234 0.50403856)
(0 -0.01089034 0.50495183)
(0 -0.013023718 0.50620229)
(0 -0.015627307 0.50794484)
(0 -0.018788972 0.51040589)
(0 -0.022870269 0.51405745)
(0 -0.028152701 0.52114814)
(0 -0.035681332 0.53932759)
(0 -0.050456196 0.54156889)
(0 -0.024079195 0.33059254)
(0 0.019834607 0.27522117)
(0 0.057977761 0.53975999)
(0 0.04734657 0.56256517)
(0 0.036461825 0.53660419)
(0 0.029620721 0.52350736)
(0 0.024660877 0.51740281)
(0 0.020759438 0.51336165)
(0 0.017495728 0.5104424)
(0 0.014801232 0.50832137)
(0 0.012554984 0.50675834)
(0 0.010655442 0.50558872)
(0 0.0090305927 0.50470341)
(0 0.0076227955 0.50402746)
(0 0.0063861672 0.50350867)
(0 0.0052842251 0.50311031)
(0 0.0042874765 0.50280635)
(0 0.0033716682 0.50257825)
(0 0.0025164389 0.50241293)
(0 0.0017042392 0.50230138)
(0 0.0009194562 0.50223776)
(0 0.00014768642 0.50221885)
(0 -0.00062492969 0.50224376)
(0 -0.0014123251 0.50231385)
(0 -0.002229082 0.50243284)
(0 -0.0030911246 0.50260718)
(0 -0.0040164693 0.50284667)
(0 -0.0050261211 0.50316543)
(0 -0.0061451765 0.50358349)
(0 -0.0074042166 0.50412901)
(0 -0.008841202 0.50484194)
(0 -0.010503433 0.50577929)
(0 -0.012449235 0.50702336)
(0 -0.014758853 0.50869732)
(0 -0.017534133 0.51098283)
(0 -0.020829092 0.51412233)
(0 -0.024939986 0.51873384)
(0 -0.030475727 0.52823266)
(0 -0.038595272 0.54872662)
(0 -0.048483109 0.53401038)
(0 -0.019059135 0.29398982)
(0 0.013079766 0.24258668)
(0 0.051784364 0.52522291)
(0 0.047687409 0.57025072)
(0 0.037736233 0.54552365)
(0 0.030830577 0.52928849)
(0 0.026054052 0.52180084)
(0 0.022219091 0.51699587)
(0 0.018935788 0.5134703)
(0 0.016176921 0.51086077)
(0 0.013834637 0.50890735)
(0 0.011822423 0.50742671)
(0 0.010077667 0.50629383)
(0 0.0085477225 0.50542097)
(0 0.007189812 0.50474598)
(0 0.0059691084 0.50422451)
(0 0.0048567655 0.50382461)
(0 0.0038285662 0.50352332)
(0 0.0028638094 0.50330428)
(0 0.0019443774 0.50315612)
(0 0.0010539556 0.50307146)
(0 0.00017736908 0.5030462)
(0 -0.00070004079 0.5030792)
(0 -0.0015930064 0.50317219)
(0 -0.002516866 0.50332989)
(0 -0.0034882194 0.50356045)
(0 -0.0045256063 0.50387614)
(0 -0.0056503012 0.50429458)
(0 -0.006887255 0.5048404)
(0 -0.0082662107 0.50554785)
(0 -0.0098232774 0.50646474)
(0 -0.01160269 0.50765821)
(0 -0.013656736 0.50922314)
(0 -0.01605495 0.5112975)
(0 -0.018892703 0.5140807)
(0 -0.022201439 0.51784165)
(0 -0.02622179 0.52347223)
(0 -0.031805643 0.53537748)
(0 -0.039714866 0.55590249)
(0 -0.044863164 0.52286646)
(0 -0.014082253 0.26271561)
(0 0.0077665701 0.2155823)
(0 0.044809165 0.508044)
(0 0.046228277 0.5743865)
(0 0.038008577 0.55374893)
(0 0.031262819 0.53495964)
(0 0.026743948 0.52602898)
(0 0.023093045 0.52053552)
(0 0.019898352 0.51648379)
(0 0.017161273 0.51343581)
(0 0.01479453 0.51112353)
(0 0.012729675 0.50935124)
(0 0.010914627 0.50798165)
(0 0.0093034509 0.50691717)
(0 0.0078581484 0.50608788)
(0 0.0065469428 0.50544318)
(0 0.0053428442 0.50494623)
(0 0.0042227081 0.50457024)
(0 0.0031663692 0.50429598)
(0 0.0021558896 0.50410999)
(0 0.0011749088 0.50400348)
(0 0.00020807469 0.50397156)
(0 -0.00075950401 0.50401286)
(0 -0.0017427905 0.50412944)
(0 -0.002757278 0.50432694)
(0 -0.0038195779 0.50461501)
(0 -0.0049479948 0.50500817)
(0 -0.0061631892 0.50552703)
(0 -0.0074889425 0.5062002)
(0 -0.0089529821 0.507067)
(0 -0.010588148 0.50818161)
(0 -0.012434066 0.50961928)
(0 -0.014535916 0.51148505)
(0 -0.016949929 0.51392783)
(0 -0.019757854 0.51715645)
(0 -0.022975759 0.52148394)
(0 -0.026825699 0.52818738)
(0 -0.032296756 0.54222175)
(0 -0.039348231 0.56051367)
(0 -0.04029224 0.50914955)
(0 -0.0096991286 0.23594944)
(0 0.004001235 0.19360799)
(0 0.037880612 0.48953583)
(0 0.043654229 0.57525125)
(0 0.037530393 0.56084175)
(0 0.03112301 0.54035906)
(0 0.026884113 0.53000935)
(0 0.023485002 0.52389787)
(0 0.020452686 0.51940666)
(0 0.017801118 0.51598008)
(0 0.015466258 0.51334954)
(0 0.013397755 0.5113132)
(0 0.011554223 0.50972522)
(0 0.0098974649 0.50848094)
(0 0.0083952092 0.50750471)
(0 0.0070195885 0.50674115)
(0 0.0057462925 0.50614956)
(0 0.0045539994 0.50570009)
(0 0.0034237497 0.5053711)
(0 0.0023383879 0.50514741)
(0 0.0012820564 0.50501901)
(0 0.00023973751 0.50498033)
(0 -0.00080319831 0.50502982)
(0 -0.001861449 0.50516981)
(0 -0.0029501474 0.50540672)
(0 -0.0040853625 0.50575151)
(0 -0.0052845554 0.50622054)
(0 -0.0065670948 0.50683694)
(0 -0.0079548403 0.5076325)
(0 -0.0094726985 0.50865059)
(0 -0.011149319 0.50995028)
(0 -0.013018618 0.51161289)
(0 -0.015118171 0.51375111)
(0 -0.017490646 0.51652071)
(0 -0.0202003 0.52013285)
(0 -0.023255104 0.5249675)
(0 -0.026896158 0.53274437)
(0 -0.032135812 0.54839114)
(0 -0.037928503 0.56256452)
(0 -0.035373583 0.49388682)
(0 -0.0061909877 0.21336821)
(0 0.0015471756 0.17619648)
(0 0.031478296 0.47082844)
(0 0.040493411 0.57340495)
(0 0.036517504 0.56659447)
(0 0.030598707 0.54537457)
(0 0.026634802 0.5337014)
(0 0.023507476 0.52702695)
(0 0.0206766 0.52218056)
(0 0.018151545 0.51844107)
(0 0.015888745 0.51553876)
(0 0.013853744 0.51327146)
(0 0.012015069 0.51148852)
(0 0.010342378 0.51008095)
(0 0.0088093718 0.50896922)
(0 0.0073924755 0.50809463)
(0 0.0060705288 0.50741365)
(0 0.004824511 0.50689411)
(0 0.0036371345 0.50651257)
(0 0.0024924734 0.50625243)
(0 0.0013756 0.50610276)
(0 0.00027224235 0.50605742)
(0 -0.0008315635 0.5061147)
(0 -0.001949845 0.50627717)
(0 -0.0030969608 0.50655187)
(0 -0.0042880063 0.50695081)
(0 -0.0055391472 0.50749181)
(0 -0.0068679866 0.50819992)
(0 -0.0082939708 0.50910937)
(0 -0.009838728 0.51026646)
(0 -0.011526325 0.51173376)
(0 -0.013384544 0.51359663)
(0 -0.015443516 0.51597255)
(0 -0.017733907 0.5190201)
(0 -0.020302789 0.52295042)
(0 -0.023157467 0.52823971)
(0 -0.026576962 0.53704355)
(0 -0.031484047 0.5536588)
(0 -0.035826643 0.56234255)
(0 -0.030506648 0.47801991)
(0 -0.0035807654 0.19475211)
(0 7.2586805e-05 0.16260043)
(0 0.025846396 0.45268871)
(0 0.037113989 0.56946356)
(0 0.035140791 0.57098487)
(0 0.029829951 0.54995665)
(0 0.026128902 0.53710906)
(0 0.023262722 0.52990531)
(0 0.020646493 0.52477399)
(0 0.01826984 0.52078504)
(0 0.016104271 0.51765824)
(0 0.014128456 0.515195)
(0 0.01231949 0.51324315)
(0 0.010654249 0.51169147)
(0 0.0091120691 0.51045828)
(0 0.0076736447 0.5094828)
(0 0.0063211165 0.50871966)
(0 0.0050379942 0.50813512)
(0 0.0038089362 0.50770444)
(0 0.0026195409 0.50741001)
(0 0.0014561134 0.50724018)
(0 0.00030543228 0.50718842)
(0 -0.00084549578 0.50725288)
(0 -0.0020097212 0.50743631)
(0 -0.0032005222 0.50774623)
(0 -0.0044317154 0.5081954)
(0 -0.0057178737 0.50880275)
(0 -0.0070745574 0.50959467)
(0 -0.0085185597 0.51060705)
(0 -0.01006809 0.51188814)
(0 -0.011742702 0.51350268)
(0 -0.013564251 0.51553833)
(0 -0.015556028 0.51811484)
(0 -0.017738718 0.52139048)
(0 -0.020144849 0.52557976)
(0 -0.022787961 0.53128621)
(0 -0.025984047 0.54103228)
(0 -0.030471989 0.55793435)
(0 -0.033335875 0.56024369)
(0 -0.025943077 0.46223816)
(0 -0.0017541496 0.17964143)
(0 -0.00072230225 0.15199659)
(0 0.021080999 0.43554873)
(0 0.033766227 0.56397651)
(0 0.033543217 0.57408613)
(0 0.028917279 0.55408464)
(0 0.025465817 0.54025644)
(0 0.022834243 0.53254338)
(0 0.020429204 0.52717893)
(0 0.018208905 0.52299586)
(0 0.016153824 0.51968832)
(0 0.014253184 0.51706295)
(0 0.012491169 0.51496835)
(0 0.010850829 0.51329264)
(0 0.0093164747 0.5119532)
(0 0.0078727637 0.51088823)
(0 0.0065050371 0.51005137)
(0 0.0051993586 0.50940794)
(0 0.0039424392 0.50893236)
(0 0.002721559 0.50860639)
(0 0.001524442 0.50841789)
(0 0.00033911757 0.50836004)
(0 -0.00084622882 0.5084309)
(0 -0.0020434617 0.50863336)
(0 -0.0032645779 0.50897526)
(0 -0.0045219293 0.50946988)
(0 -0.0058283384 0.51013683)
(0 -0.0071972182 0.51100338)
(0 -0.0086426811 0.5121064)
(0 -0.010179619 0.51349523)
(0 -0.011823424 0.5152357)
(0 -0.013590621 0.51741647)
(0 -0.01549845 0.52015771)
(0 -0.017559445 0.52361541)
(0 -0.019795237 0.52801525)
(0 -0.022231786 0.53411297)
(0 -0.025208172 0.54467958)
(0 -0.029214707 0.56120895)
(0 -0.030687635 0.55666385)
(0 -0.021836282 0.44698022)
(0 -0.00055283491 0.16744916)
(0 -0.0010745589 0.1436878)
(0 0.017172897 0.41962299)
(0 0.030605636 0.55740355)
(0 0.031842598 0.57601981)
(0 0.027934621 0.55775095)
(0 0.024718917 0.54316926)
(0 0.022288349 0.53496375)
(0 0.020080249 0.52940118)
(0 0.018014398 0.52506943)
(0 0.016074323 0.52161951)
(0 0.014257338 0.51886273)
(0 0.012553226 0.51665001)
(0 0.010950067 0.51486977)
(0 0.0094363595 0.51343933)
(0 0.0080002583 0.51229667)
(0 0.0066300396 0.51139504)
(0 0.0053141969 0.51069935)
(0 0.004041471 0.51018361)
(0 0.0028008659 0.50982921)
(0 0.0015816077 0.50962372)
(0 0.00037308466 0.50956018)
(0 -0.00083522079 0.50963658)
(0 -0.0020538681 0.50985589)
(0 -0.0032934664 0.51022612)
(0 -0.0045648202 0.51076087)
(0 -0.0058789617 0.51148011)
(0 -0.0072471846 0.51241157)
(0 -0.0086810456 0.51359254)
(0 -0.010192374 0.51507276)
(0 -0.011792896 0.51691838)
(0 -0.013494574 0.51921815)
(0 -0.015309501 0.52209129)
(0 -0.017243752 0.52569085)
(0 -0.019312083 0.53026372)
(0 -0.021557683 0.53673148)
(0 -0.024322381 0.5479654)
(0 -0.027813782 0.56352703)
(0 -0.028052352 0.55196546)
(0 -0.018260285 0.43251122)
(0 0.00018154818 0.15762948)
(0 -0.0011577317 0.13712286)
(0 0.014044564 0.4049922)
(0 0.027712173 0.55011954)
(0 0.030126866 0.57693379)
(0 0.026934241 0.56096212)
(0 0.023941013 0.54587138)
(0 0.02167676 0.53719329)
(0 0.01964468 0.5314538)
(0 0.017724529 0.52700894)
(0 0.015897755 0.52344913)
(0 0.014167285 0.52058786)
(0 0.012527065 0.51827917)
(0 0.01096909 0.5164125)
(0 0.0094852382 0.51490561)
(0 0.0080666258 0.51369675)
(0 0.0067041067 0.5127393)
(0 0.0053883866 0.51199811)
(0 0.0041101208 0.51144709)
(0 0.0028599913 0.51106751)
(0 0.0016287274 0.51084685)
(0 0.00040710534 0.51077803)
(0 -0.00081405366 0.51085905)
(0 -0.0020439619 0.5110929)
(0 -0.0032918138 0.51148766)
(0 -0.0045668684 0.51205704)
(0 -0.0058784169 0.51282115)
(0 -0.0072357555 0.51380779)
(0 -0.0086481094 0.51505429)
(0 -0.010124596 0.51661029)
(0 -0.011673833 0.5185417)
(0 -0.013304047 0.52093673)
(0 -0.015023182 0.52391273)
(0 -0.01683251 0.52762036)
(0 -0.018743779 0.53233868)
(0 -0.02081999 0.53915568)
(0 -0.023383686 0.55088333)
(0 -0.026351539 0.56497177)
(0 -0.02554112 0.54646705)
(0 -0.015226607 0.41897966)
(0 0.00058706812 0.1497199)
(0 -0.0010901497 0.13186225)
(0 0.011585328 0.39164808)
(0 0.025113585 0.54241872)
(0 0.028454715 0.5769828)
(0 0.025949381 0.56373794)
(0 0.02316728 0.54838551)
(0 0.021037825 0.53926031)
(0 0.019157795 0.53335407)
(0 0.017370388 0.52882223)
(0 0.015651055 0.52517919)
(0 0.01400591 0.52223627)
(0 0.012431786 0.51985095)
(0 0.010923586 0.51791401)
(0 0.0094757952 0.51634399)
(0 0.0080819366 0.51507974)
(0 0.0067350457 0.51407499)
(0 0.0054277712 0.51329485)
(0 0.0041525083 0.51271337)
(0 0.0029015088 0.51231186)
(0 0.0016669443 0.5120778)
(0 0.0004409457 0.51200415)
(0 -0.00078434658 0.51208886)
(0 -0.0020168175 0.51233493)
(0 -0.0032642826 0.51275044)
(0 -0.0045345212 0.51334904)
(0 -0.0058351967 0.51415079)
(0 -0.0071737918 0.51518331)
(0 -0.0085574829 0.51648368)
(0 -0.0099930777 0.5181011)
(0 -0.011486657 0.52010088)
(0 -0.013043532 0.52257026)
(0 -0.014668487 0.52562426)
(0 -0.01635958 0.52941292)
(0 -0.018128831 0.53425809)
(0 -0.020059109 0.54140199)
(0 -0.022433445 0.55344116)
(0 -0.02488888 0.56564824)
(0 -0.023216464 0.54043522)
(0 -0.012705532 0.40644795)
(0 0.00077279378 0.14332646)
(0 -0.00094825782 0.12756057)
(0 0.0096764143 0.37952503)
(0 0.022806326 0.53452211)
(0 0.026861212 0.5763124)
(0 0.024998617 0.5661058)
(0 0.022418753 0.55073224)
(0 0.020398029 0.54119233)
(0 0.018645885 0.5351215)
(0 0.01697632 0.53052021)
(0 0.015356153 0.52681491)
(0 0.01379246 0.52380913)
(0 0.01228391 0.52136353)
(0 0.010827466 0.51937036)
(0 0.0094195279 0.51774904)
(0 0.0080554976 0.51643914)
(0 0.0067301952 0.51539496)
(0 0.0054379222 0.51458202)
(0 0.0041726058 0.51397462)
(0 0.0029279203 0.51355427)
(0 0.0016973737 0.51330856)
(0 0.00047437423 0.51323047)
(0 -0.00074768525 0.51331798)
(0 -0.0019754289 0.51357405)
(0 -0.0032153753 0.51400667)
(0 -0.0044739346 0.51462938)
(0 -0.0057572984 0.51546198)
(0 -0.0070713553 0.51653181)
(0 -0.0084215411 0.51787546)
(0 -0.009812769 0.51954151)
(0 -0.011249134 0.52159447)
(0 -0.012733773 0.52412041)
(0 -0.014269206 0.52723195)
(0 -0.01585174 0.53108128)
(0 -0.01749615 0.53604213)
(0 -0.019302976 0.54348776)
(0 -0.021499495 0.55565648)
(0 -0.023467645 0.56566713)
(0 -0.021106286 0.53408225)
(0 -0.010644479 0.39491628)
(0 0.00081902593 0.13811615)
(0 -0.0007795519 0.12395698)
(0 0.0082051722 0.36852665)
(0 0.020770038 0.52658985)
(0 0.025364123 0.57505099)
(0 0.024090572 0.56809547)
(0 0.021706378 0.55292842)
(0 0.019774329 0.54301386)
(0 0.01812755 0.53677571)
(0 0.016560631 0.53211525)
(0 0.015030283 0.52836344)
(0 0.013542606 0.52530981)
(0 0.012097295 0.52281734)
(0 0.010692701 0.52077977)
(0 0.0093265468 0.51911736)
(0 0.0079956467 0.5177704)
(0 0.0066962336 0.51669383)
(0 0.0054239758 0.51585364)
(0 0.0041741124 0.51522451)
(0 0.0029415711 0.51478818)
(0 0.0017210645 0.51453241)
(0 0.00050716919 0.51445027)
(0 -0.00070556818 0.51453974)
(0 -0.00192261 0.51480373)
(0 -0.0031492909 0.51525011)
(0 -0.0043907912 0.51589221)
(0 -0.0056520093 0.51674953)
(0 -0.0069374731 0.51784897)
(0 -0.0082511857 0.51922658)
(0 -0.0095965612 0.5209302)
(0 -0.010976207 0.52302352)
(0 -0.012391713 0.52559134)
(0 -0.013844102 0.52874421)
(0 -0.015329223 0.53263991)
(0 -0.016866275 0.53771081)
(0 -0.018569579 0.54542925)
(0 -0.020599175 0.5575519)
(0 -0.022114209 0.56513403)
(0 -0.01921554 0.52757098)
(0 -0.0089806353 0.38434487)
(0 0.00078227159 0.13381697)
(0 -0.00061202448 0.12086146)
(0 0.0070724224 0.35854464)
(0 0.018976616 0.51873478)
(0 0.023969184 0.57330814)
(0 0.023227524 0.56973654)
(0 0.021034399 0.55498686)
(0 0.019176608 0.54474513)
(0 0.017615312 0.53833485)
(0 0.016136586 0.53361981)
(0 0.014686554 0.52983275)
(0 0.013268739 0.52674289)
(0 0.011883254 0.52421431)
(0 0.010529318 0.52214207)
(0 0.0092055068 0.52044715)
(0 0.0079096527 0.51907051)
(0 0.0066390723 0.51796768)
(0 0.0053905341 0.51710516)
(0 0.0041603737 0.51645802)
(0 0.0029445965 0.51600829)
(0 0.0017389741 0.51574392)
(0 0.00053912469 0.51565806)
(0 -0.00065936903 0.51574873)
(0 -0.0018609271 0.51601876)
(0 -0.0030698314 0.51647587)
(0 -0.0042901849 0.51713315)
(0 -0.0055257799 0.51800975)
(0 -0.0067800137 0.5191321)
(0 -0.0080557448 0.52053567)
(0 -0.0093552443 0.52226758)
(0 -0.010680058 0.5243907)
(0 -0.012030746 0.52698868)
(0 -0.013407454 0.53017054)
(0 -0.014806676 0.53410346)
(0 -0.016252979 0.53928234)
(0 -0.017869444 0.54724064)
(0 -0.019741972 0.55915208)
(0 -0.020842849 0.56414441)
(0 -0.017534836 0.52102301)
(0 -0.0076492595 0.37467167)
(0 0.00070095327 0.13021395)
(0 -0.00046060178 0.11813897)
(0 0.0061955933 0.34947011)
(0 0.017395838 0.51103421)
(0 0.022674368 0.57117587)
(0 0.022407917 0.57105727)
(0 0.020402761 0.55691687)
(0 0.018609686 0.54640205)
(0 0.01711709 0.5398149)
(0 0.015713452 0.53504561)
(0 0.014334646 0.53123084)
(0 0.012980399 0.52811352)
(0 0.01165079 0.52555725)
(0 0.010345514 0.52345816)
(0 0.0090636407 0.5217378)
(0 0.0078037014 0.52033765)
(0 0.0065638173 0.51921379)
(0 0.00534162 0.51833319)
(0 0.0041343406 0.5176713)
(0 0.0029388915 0.51721043)
(0 0.0017519546 0.51693873)
(0 0.00057005581 0.51684946)
(0 -0.0006103132 0.51694065)
(0 -0.0017926586 0.51721505)
(0 -0.0029803484 0.51768024)
(0 -0.0041765636 0.51834904)
(0 -0.0053841725 0.51924023)
(0 -0.0066056575 0.52037979)
(0 -0.0078429907 0.52180261)
(0 -0.009097606 0.52355519)
(0 -0.01037034 0.52569968)
(0 -0.01166113 0.52831869)
(0 -0.012969734 0.53152059)
(0 -0.014294183 0.53548571)
(0 -0.015664726 0.54077242)
(0 -0.017207627 0.54893383)
(0 -0.018931657 0.56048199)
(0 -0.019658823 0.5627818)
(0 -0.016046756 0.51452689)
(0 -0.0065891236 0.3658241)
(0 0.00060026083 0.12714097)
(0 -0.00033175252 0.11569548)
(0 0.0055089568 0.34119989)
(0 0.015998679 0.50353905)
(0 0.021473247 0.56873061)
(0 0.021628165 0.57208407)
(0 0.019808823 0.558725)
(0 0.018074892 0.54799659)
(0 0.016637407 0.54122938)
(0 0.015297393 0.53640325)
(0 0.013981475 0.5325653)
(0 0.012684743 0.52942693)
(0 0.011406904 0.5268494)
(0 0.010147844 0.52472962)
(0 0.0089068624 0.52298951)
(0 0.0076829437 0.52157095)
(0 0.0064747836 0.52043043)
(0 0.0052806729 0.51953534)
(0 0.0040985589 0.51886147)
(0 0.0029261011 0.51839141)
(0 0.0017607485 0.51811348)
(0 0.00059980233 0.51802106)
(0 -0.00055946607 0.51811218)
(0 -0.0017197786 0.51838953)
(0 -0.0028837258 0.51886051)
(0 -0.0040537174 0.51953769)
(0 -0.0052318681 0.52043953)
(0 -0.0064199386 0.52159156)
(0 -0.0076192377 0.52302817)
(0 -0.0088306157 0.52479532)
(0 -0.010054479 0.52695459)
(0 -0.011290453 0.52958775)
(0 -0.012538279 0.53280359)
(0 -0.013798198 0.53679907)
(0 -0.015105941 0.54219407)
(0 -0.016585316 0.55051858)
(0 -0.018168077 0.56156569)
(0 -0.01856121 0.56111754)
(0 -0.014730326 0.50814521)
(0 -0.0057456275 0.35772653)
(0 0.0004959569 0.12447172)
(0 -0.00022680844 0.11346676)
(0 0.0049620353 0.33363975)
(0 0.014758952 0.49628115)
(0 0.020357419 0.56603563)
(0 0.020883905 0.57284121)
(0 0.019248594 0.56041565)
(0 0.017571288 0.54953731)
(0 0.016178366 0.54258943)
(0 0.014892229 0.53770201)
(0 0.013631778 0.53384306)
(0 0.012386981 0.53068814)
(0 0.011156907 0.52809417)
(0 0.0099414314 0.52595843)
(0 0.0087399067 0.52420307)
(0 0.0075515815 0.52277019)
(0 0.0063755435 0.52161659)
(0 0.005210574 0.52070999)
(0 0.0040551802 0.52002647)
(0 0.0029076251 0.51954886)
(0 0.0017659915 0.51926565)
(0 0.00062823016 0.5191703)
(0 -0.00050773183 0.51926085)
(0 -0.0016439568 0.51953993)
(0 -0.0027823877 0.52001478)
(0 -0.0039248021 0.52069775)
(0 -0.005072714 0.52160698)
(0 -0.0062273313 0.52276762)
(0 -0.0073894849 0.52421365)
(0 -0.0085596446 0.52599062)
(0 -0.0097379975 0.52815966)
(0 -0.010924088 0.53080201)
(0 -0.012117916 0.534028)
(0 -0.013322375 0.53805432)
(0 -0.014578104 0.54355766)
(0 -0.016001125 0.55200259)
(0 -0.01744863 0.56242554)
(0 -0.017545281 0.55921157)
(0 -0.013563911 0.50192069)
(0 -0.0050721072 0.35030494)
(0 0.00039726499 0.12211179)
(0 -0.00014423639 0.11140964)
(0 0.0045171741 0.32670586)
(0 0.013653891 0.4892788)
(0 0.019318049 0.56314331)
(0 0.020170778 0.57335091)
(0 0.018717588 0.56199164)
(0 0.017096609 0.55102987)
(0 0.01574042 0.54390393)
(0 0.01450007 0.53894985)
(0 0.013288628 0.53507027)
(0 0.012090771 0.53190177)
(0 0.01090472 0.52929485)
(0 0.0097301932 0.52714674)
(0 0.0085664847 0.5253796)
(0 0.0074129734 0.52393564)
(0 0.0062689972 0.52277184)
(0 0.0051336906 0.52185616)
(0 0.0040059887 0.5211649)
(0 0.0028846327 0.52068111)
(0 0.0017682189 0.5203934)
(0 0.00065523216 0.52029531)
(0 -0.00045585926 0.52038489)
(0 -0.0015665738 0.52066469)
(0 -0.0026783252 0.52114184)
(0 -0.0037923843 0.52182846)
(0 -0.0049097978 0.52274245)
(0 -0.0060313621 0.52390864)
(0 -0.0071575815 0.5253607)
(0 -0.0082887012 0.52714387)
(0 -0.0094248416 0.52931902)
(0 -0.01056563 0.53196714)
(0 -0.011711521 0.53520134)
(0 -0.012868311 0.53926048)
(0 -0.014080674 0.54487108)
(0 -0.015452113 0.5533918)
(0 -0.016769372 0.56308194)
(0 -0.016604242 0.55711378)
(0 -0.012526934 0.49588135)
(0 -0.0045300195 0.34348982)
(0 0.00030902787 0.11999176)
(0 -8.1118224e-05 0.10949531)
(0 0.0041469552 0.32032499)
(0 0.012664127 0.48254098)
(0 0.01834675 0.5600973)
(0 0.01948484 0.57363359)
(0 0.018211352 0.56345482)
(0 0.016647916 0.5524777)
(0 0.015322962 0.54517975)
(0 0.014121814 0.54015342)
(0 0.012953857 0.53625225)
(0 0.011798569 0.53307198)
(0 0.010653144 0.53045458)
(0 0.009517043 0.5282967)
(0 0.0083894396 0.52652043)
(0 0.0072697489 0.5250679)
(0 0.0061574528 0.52389617)
(0 0.0050519308 0.52297335)
(0 0.0039524369 0.52227591)
(0 0.0028580834 0.52178705)
(0 0.0017678748 0.52149548)
(0 0.00068072735 0.5213948)
(0 -0.00040445272 0.52148308)
(0 -0.0014887436 0.5217628)
(0 -0.0025731356 0.52224098)
(0 -0.0036585018 0.52292956)
(0 -0.0047455345 0.52384623)
(0 -0.005834735 0.5250156)
(0 -0.0069263986 0.5264711)
(0 -0.0080206628 0.52825781)
(0 -0.009117684 0.53043649)
(0 -0.010217286 0.53308818)
(0 -0.011320517 0.53633005)
(0 -0.012436142 0.54042488)
(0 -0.013611814 0.54614003)
(0 -0.014934512 0.55469062)
(0 -0.016125784 0.56355323)
(0 -0.015730449 0.55486555)
(0 -0.011600775 0.49004449)
(0 -0.0040884259 0.33721772)
(0 0.00023323776 0.11806142)
(0 -3.4075332e-05 0.10770436)
(0 0.0038318067 0.31443389)
(0 0.011773382 0.47607037)
(0 0.017436002 0.55693426)
(0 0.018822719 0.57370814)
(0 0.017725763 0.56480649)
(0 0.016222031 0.55388249)
(0 0.014924745 0.54642205)
(0 0.013757535 0.54131819)
(0 0.012628399 0.53739356)
(0 0.011511916 0.53420241)
(0 0.010404098 0.53157619)
(0 0.0093040844 0.52941042)
(0 0.008210895 0.52762697)
(0 0.0071239199 0.52616778)
(0 0.0060427087 0.52498988)
(0 0.004966802 0.52406144)
(0 0.0038956847 0.52335906)
(0 0.0028287508 0.52286601)
(0 0.001765323 0.5225711)
(0 0.00070465891 0.52246798)
(0 -0.00035398688 0.5225547)
(0 -0.0014113434 0.5228337)
(0 -0.0024680686 0.52331189)
(0 -0.0035247309 0.52400111)
(0 -0.004581761 0.52491887)
(0 -0.005639458 0.52608962)
(0 -0.0066979982 0.52754666)
(0 -0.0077574935 0.52933503)
(0 -0.0088182016 0.53151548)
(0 -0.0098802157 0.53416952)
(0 -0.010945276 0.53741955)
(0 -0.012025034 0.54155329)
(0 -0.013168934 0.5473684)
(0 -0.014444245 0.55590234)
(0 -0.015513288 0.56385592)
(0 -0.014916208 0.55250123)
(0 -0.010769117 0.48441977)
(0 -0.0037230826 0.33143189)
(0 0.00017010465 0.11628483)
(0 1.8903596e-07 0.10602342)
(0 0.0035579633 0.30897834)
(0 0.010968054 0.46986543)
(0 0.016579287 0.55368516)
(0 0.018181639 0.57359218)
(0 0.017257165 0.56604775)
(0 0.015815799 0.55524464)
(0 0.014544162 0.54763454)
(0 0.013406764 0.5424486)
(0 0.012312554 0.53849804)
(0 0.011231673 0.53529623)
(0 0.010158825 0.53266222)
(0 0.0090927766 0.53048986)
(0 0.0080323887 0.52870062)
(0 0.0069769869 0.52723618)
(0 0.0059261345 0.52605345)
(0 0.0048794704 0.52512058)
(0 0.0038366406 0.5244142)
(0 0.0027972477 0.52391767)
(0 0.0017608569 0.52361985)
(0 0.00072699122 0.52351439)
(0 -0.00030482342 0.52359935)
(0 -0.0013350445 0.52387713)
(0 -0.0023640748 0.52435459)
(0 -0.0033922548 0.52504343)
(0 -0.004419829 0.52596109)
(0 -0.0054469659 0.52713189)
(0 -0.0064737884 0.52858912)
(0 -0.0075004391 0.53037786)
(0 -0.0085273126 0.53255902)
(0 -0.009554815 0.53521488)
(0 -0.010585444 0.53847428)
(0 -0.011633537 0.54265008)
(0 -0.01274908 0.54855857)
(0 -0.013977263 0.55702938)
(0 -0.014927565 0.56400488)
(0 -0.014154272 0.55004942)
(0 -0.010017966 0.47901154)
(0 -0.0034153707 0.32608229)
(0 0.00011880129 0.1146365)
(0 2.4610725e-05 0.10444278)
(0 0.003315828 0.30391206)
(0 0.010236774 0.46392195)
(0 0.015771049 0.55037644)
(0 0.017559361 0.57330227)
(0 0.016802412 0.56717982)
(0 0.015426244 0.55656374)
(0 0.014179446 0.54881979)
(0 0.013068691 0.54354821)
(0 0.012006185 0.5395689)
(0 0.010958206 0.53635612)
(0 0.0099180495 0.53371492)
(0 0.0088840761 0.5315368)
(0 0.0078549907 0.52974276)
(0 0.0068300331 0.52827409)
(0 0.0058087446 0.52708751)
(0 0.004790816 0.52615108)
(0 0.003776 0.52544146)
(0 0.0027640495 0.52494199)
(0 0.0017547101 0.52464157)
(0 0.00074770643 0.52453387)
(0 -0.00025722814 0.52461694)
(0 -0.0012603444 0.52489314)
(0 -0.002261854 0.52536927)
(0 -0.0032619311 0.52605699)
(0 -0.0042606932 0.52697366)
(0 -0.0052582323 0.5281436)
(0 -0.0062546636 0.52960009)
(0 -0.0072501954 0.53138838)
(0 -0.0082453743 0.53356966)
(0 -0.0092409417 0.53622736)
(0 -0.010240193 0.53949778)
(0 -0.01125986 0.54371842)
(0 -0.01234921 0.54971177)
(0 -0.013529755 0.5580736)
(0 -0.014364724 0.56401357)
(0 -0.013438092 0.54753412)
(0 -0.009335487 0.47382049)
(0 -0.0031512291 0.32112526)
(0 7.797072e-05 0.11309837)
(0 4.1655773e-05 0.10295497)
(0 0.0030987189 0.2991956)
(0 0.009570007 0.45823405)
(0 0.015006578 0.54703078)
(0 0.016954084 0.57285402)
(0 0.016358848 0.56820414)
(0 0.015050637 0.55783879)
(0 0.013828783 0.54997942)
(0 0.012742309 0.54461982)
(0 0.011708863 0.5406088)
(0 0.010691525 0.53738438)
(0 0.009682113 0.53473622)