/*--------------------------------*- C++ -*----------------------------------*\
  =========                 |
  \\      /  F ield         | OpenFOAM: The Open Source CFD Toolbox
   \\    /   O peration     | Website:  https://openfoam.org
    \\  /    A nd           | Version:  10
     \\/     M anipulation  |
\*---------------------------------------------------------------------------*/
FoamFile
{
    format      ascii;
    class       surfaceScalarField;
    location    "0.08";
    object      phi;
}
// * * * * * * * * * * * * * * * * * * * * * * * * * * * * * * * * * * * * * //

dimensions      [1 0 -1 0 0 0 0];

internalField   nonuniform List<scalar> 
7860
(
3.9878004e-08
5.2883007e-07
1.2179063e-08
5.9640669e-07
7.4139201e-09
5.7347288e-07
5.4835206e-09
5.706381e-07
4.0985676e-09
5.7009262e-07
3.1847413e-09
5.6962147e-07
2.5430664e-09
5.693493e-07
2.0638396e-09
5.6918684e-07
1.694696e-09
5.6907674e-07
1.4030747e-09
5.6899921e-07
1.1671528e-09
5.6894351e-07
9.7214436e-10
5.6890259e-07
8.0768495e-10
5.6887203e-07
6.6626595e-10
5.6884899e-07
5.4229736e-10
5.6883153e-07
4.3150325e-10
5.6881835e-07
3.3051576e-10
5.6880855e-07
2.365943e-10
5.6880148e-07
1.4742314e-10
5.6879673e-07
6.0958245e-11
5.6879402e-07
-2.4695575e-11
5.6879321e-07
-1.1139233e-10
5.6879425e-07
-2.0105307e-10
5.6879722e-07
-2.9577014e-10
5.6880227e-07
-3.9794066e-10
5.6880973e-07
-5.1043012e-10
5.6882005e-07
-6.3679361e-10
5.6883393e-07
-7.815896e-10
5.6885236e-07
-9.5084102e-10
5.6887682e-07
-1.1527435e-09
5.6890948e-07
-1.3988394e-09
5.6895368e-07
-1.7059908e-09
5.6901474e-07
-2.0992454e-09
5.6910085e-07
-2.6185633e-09
5.6922693e-07
-3.346416e-09
5.6943548e-07
-4.4387255e-09
5.6979995e-07
-5.9870658e-09
5.7025601e-07
-9.4878646e-09
5.722085e-07
-2.9550703e-08
5.8877058e-07
5.3915721e-07
5.9629907e-08
4.6920048e-07
3.6615981e-08
6.1942049e-07
2.2580361e-08
5.8750845e-07
1.620318e-08
5.7701528e-07
1.2238818e-08
5.7405698e-07
9.5546268e-09
5.7230566e-07
7.6269085e-09
5.7127702e-07
6.1875039e-09
5.7062624e-07
5.0806793e-09
5.7018357e-07
4.2062589e-09
5.6987363e-07
3.4988263e-09
5.6965094e-07
2.9141406e-09
5.6948727e-07
2.4210926e-09
5.6936508e-07
1.9971501e-09
5.6927293e-07
1.6255468e-09
5.6920314e-07
1.2934583e-09
5.6915044e-07
9.907839e-10
5.6911122e-07
7.0930441e-10
5.6908296e-07
4.4207517e-10
5.6906396e-07
1.8296636e-10
5.6905313e-07
-7.3706633e-11
5.6904988e-07
-3.3350649e-10
5.6905405e-07
-6.0218702e-10
5.690659e-07
-8.8602591e-10
5.6908611e-07
-1.1922126e-09
5.6911592e-07
-1.5293411e-09
5.6915718e-07
-1.9080739e-09
5.6921266e-07
-2.3420827e-09
5.6928637e-07
-2.8494397e-09
5.6938418e-07
-3.4547429e-09
5.6951478e-07
-4.1925383e-09
5.6969147e-07
-5.1133445e-09
5.6993555e-07
-6.293985e-09
5.702815e-07
-7.8534484e-09
5.7078639e-07
-9.9952459e-09
5.7157728e-07
-1.3126067e-08
5.7293078e-07
-1.8061254e-08
5.751912e-07
-2.8104353e-08
5.822516e-07
-4.5739878e-08
6.0640611e-07
4.9341734e-07
5.9943767e-08
4.0925749e-07
5.0394333e-08
6.2896989e-07
3.3282599e-08
6.0462002e-07
2.4728375e-08
5.8556949e-07
1.9232151e-08
5.7955321e-07
1.5240767e-08
5.7629705e-07
1.2272082e-08
5.7424571e-07
1.0016466e-08
5.7288186e-07
8.2603323e-09
5.719397e-07
6.8603969e-09
5.7127357e-07
5.7204442e-09
5.7079089e-07
4.7735871e-09
5.7043413e-07
3.9719528e-09
5.7016671e-07
3.2804592e-09
5.6996442e-07
2.6727555e-09
5.6981084e-07
2.1285303e-09
5.6969467e-07
1.6316853e-09
5.6960807e-07
1.1690531e-09
5.6954559e-07
7.2946189e-10
5.6950355e-07
3.0302031e-10
5.6947957e-07
-1.1946147e-10
5.6947236e-07
-5.4697942e-10
5.6948157e-07
-9.8883094e-10
5.6950775e-07
-1.4551374e-09
5.6955242e-07
-1.9574493e-09
5.6961823e-07
-2.5095081e-09
5.6970924e-07
-3.1282617e-09
5.6983141e-07
-3.8352785e-09
5.6999339e-07
-4.6588019e-09
5.702077e-07
-5.6368198e-09
5.704928e-07
-6.8217308e-09
5.7087639e-07
-8.2879891e-09
5.7140181e-07
-1.014531e-08
5.7213882e-07
-1.2555994e-08
5.7319708e-07
-1.5753738e-08
5.7477502e-07
-2.0101265e-08
5.772783e-07
-2.6574864e-08
5.816648e-07
-3.8812632e-08
5.9448937e-07
-4.8065068e-08
6.1565855e-07
4.4535227e-07
5.4794653e-08
3.5446429e-07
5.7310041e-08
6.2645485e-07
4.0329819e-08
6.2159992e-07
3.0644242e-08
5.95255e-07
2.4507131e-08
5.8569033e-07
1.9817324e-08
5.8098686e-07
1.6181451e-08
5.7788158e-07
1.3340549e-08
5.7572276e-07
1.1082213e-08
5.7419804e-07
9.2545277e-09
5.7310126e-07
7.7494153e-09
5.7229601e-07
6.4882157e-09
5.7169533e-07
5.4129306e-09
5.71242e-07
4.4801112e-09
5.7089724e-07
3.6565404e-09
5.7063441e-07
2.9162504e-09
5.7043496e-07
2.2384224e-09
5.7028589e-07
1.6058672e-09
5.7017815e-07
1.0038908e-09
5.7010552e-07
4.1941256e-10
5.7006405e-07
-1.5976095e-10
5.7005154e-07
-7.4557848e-10
5.7006739e-07
-1.350368e-09
5.7011254e-07
-1.9874945e-09
5.7018955e-07
-2.6721142e-09
5.7030285e-07
-3.422106e-09
5.7045923e-07
-4.2592836e-09
5.7066859e-07
-5.2110328e-09
5.7094514e-07
-6.3125987e-09
5.7130927e-07
-7.6103529e-09
5.7179056e-07
-9.1663715e-09
5.724324e-07
-1.1064829e-08
5.7330027e-07
-1.3422411e-08
5.744964e-07
-1.6401025e-08
5.7617569e-07
-2.0199316e-08
5.7857331e-07
-2.5084539e-08
5.8216353e-07
-3.231002e-08
5.8889028e-07
-4.4889953e-08
6.070693e-07
-4.6407115e-08
6.1717571e-07
3.9894515e-07
4.7865478e-08
3.0660114e-07
5.9881588e-08
6.1443987e-07
4.5201806e-08
6.3627929e-07
3.4687147e-08
6.0576946e-07
2.8212456e-08
5.9216502e-07
2.3234236e-08
5.8596508e-07
1.9254223e-08
5.8186159e-07
1.6057009e-08
5.7891998e-07
1.3457682e-08
5.7679737e-07
1.1316573e-08
5.7524237e-07
9.5283108e-09
5.7408427e-07
8.012634e-09
5.7321101e-07
6.7083237e-09
5.7254631e-07
5.5681919e-09
5.7203738e-07
4.5553063e-09
5.716473e-07
3.640239e-09
5.7135003e-07
2.7990233e-09
5.7112711e-07
2.0116116e-09
5.7096556e-07
1.2606885e-09
5.7085645e-07
5.3072209e-10
5.7079402e-07
-1.9283261e-10
5.7077509e-07
-9.2424678e-10
5.707988e-07
-1.6782119e-09
5.708665e-07
-2.4705668e-09
5.709819e-07
-3.3191187e-09
5.711514e-07
-4.2446311e-09
5.7138474e-07
-5.2720703e-09
5.7169603e-07
-6.4322212e-09
5.7210529e-07
-7.7638211e-09
5.7264087e-07
-9.316442e-09
5.7334318e-07
-1.1154279e-08
5.7427024e-07
-1.3360584e-08
5.7550657e-07
-1.6044175e-08
5.7717999e-07
-1.9349354e-08
5.7948087e-07
-2.3447546e-08
5.8267151e-07
-2.8640774e-08
5.8735675e-07
-3.6493899e-08
5.9674341e-07
-4.816646e-08
6.1874186e-07
-4.3012474e-08
6.1202172e-07
3.5593268e-07
4.0221887e-08
2.6638262e-07
5.87446e-08
5.9591955e-07
4.8060402e-08
6.4696314e-07
3.7335857e-08
6.164936e-07
3.0682065e-08
5.9881878e-07
2.5651053e-08
5.9099611e-07
2.1544718e-08
5.8596793e-07
1.8167686e-08
5.8229701e-07
1.5366747e-08
5.7959831e-07
1.3019524e-08
5.7758959e-07
1.1029784e-08
5.7607401e-07
9.3219642e-09
5.7491883e-07
7.8366844e-09
5.7403159e-07
6.5268259e-09
5.7334724e-07
5.3545713e-09
5.7281955e-07
4.2891331e-09
5.7241547e-07
3.3049708e-09
5.7211127e-07
2.3803875e-09
5.7189014e-07
1.4964085e-09
5.7174043e-07
6.3585687e-10
5.7165457e-07
-2.1744192e-10
5.7162839e-07
-1.0793814e-09
5.7166074e-07
-1.9662812e-09
5.717534e-07
-2.8956214e-09
5.7191124e-07
-3.8868538e-09
5.7214263e-07
-4.9623547e-09
5.7246024e-07
-6.1485832e-09
5.7288226e-07
-7.477524e-09
5.7343423e-07
-8.9884937e-09
5.7415184e-07
-1.0730457e-08
5.7508514e-07
-1.2765073e-08
5.7630486e-07
-1.5170126e-08
5.7791163e-07
-1.8043623e-08
5.8005349e-07
-2.1510611e-08
5.8294786e-07
-2.5728105e-08
5.86889e-07
-3.1101739e-08
5.9273039e-07
-3.9249931e-08
6.048916e-07
-4.8780071e-08
6.28272e-07
-3.8357958e-08
6.0159961e-07
3.1757472e-07
3.2735983e-08
2.3365119e-07
5.4944527e-08
5.7371514e-07
4.8880848e-08
6.5302684e-07
3.8733241e-08
6.2664053e-07
3.2114931e-08
6.0543697e-07
2.7209932e-08
5.9590113e-07
2.3140486e-08
5.9003738e-07
1.9719252e-08
5.8571824e-07
1.6828929e-08
5.8248863e-07
1.4366876e-08
5.8005164e-07
1.2248954e-08
5.7819193e-07
1.04076e-08
5.7676018e-07
8.7882878e-09
5.756509e-07
7.346575e-09
5.7478895e-07
6.0459098e-09
5.7412022e-07
4.8558708e-09
5.7360551e-07
3.7507199e-09
5.7321643e-07
2.7082212e-09
5.7293264e-07
1.70866e-09
5.7273999e-07
7.3400691e-10
5.7262922e-07
-2.3281961e-10
5.7259522e-07
-1.2086329e-09
5.7263656e-07
-2.2106494e-09
5.7275542e-07
-3.2571791e-09
5.7295777e-07
-4.368374e-09
5.7325383e-07
-5.5670825e-09
5.7365895e-07
-6.8798551e-09
5.7419503e-07
-8.3381546e-09
5.7489253e-07
-9.9798164e-09
5.757935e-07
-1.1850834e-08
5.7695616e-07
-1.4007758e-08
5.7846178e-07
-1.6520607e-08
5.8042447e-07
-1.9474933e-08
5.8300782e-07
-2.297261e-08
5.8644554e-07
-2.715587e-08
5.9107226e-07
-3.2534902e-08
5.9810942e-07
-4.0481504e-08
6.128382e-07
-4.7193312e-08
6.3498381e-07
-3.3118097e-08
5.875244e-07
2.8445663e-07
2.6050387e-08
2.0760668e-07
4.9769347e-08
5.500026e-07
4.805025e-08
6.5474674e-07
3.9073173e-08
6.3561666e-07
3.2681665e-08
6.118282e-07
2.8027808e-08
6.00555e-07
2.4123032e-08
5.9394217e-07
2.0767313e-08
5.8907397e-07
1.7878869e-08
5.8537708e-07
1.5377921e-08
5.8255259e-07
1.3194924e-08
5.8037493e-07
1.1272336e-08
5.7868277e-07
9.5623171e-09
5.7736092e-07
8.0247888e-09
5.7632648e-07
6.6259707e-09
5.7551904e-07
5.3371007e-09
5.7489438e-07
4.1333428e-09
5.7442018e-07
2.992858e-09
5.7407313e-07
1.8960017e-09
5.7383685e-07
8.246143e-10
5.7370061e-07
-2.3862168e-10
5.7365846e-07
-1.3107836e-09
5.7370872e-07
-2.4093084e-09
5.7385395e-07
-3.5526033e-09
5.7410107e-07
-4.7606967e-09
5.7446192e-07
-6.055962e-09
5.7495422e-07
-7.4639395e-09
5.7560301e-07
-9.014295e-09
5.7644289e-07
-1.0741939e-08
5.7752115e-07
-1.2688307e-08
5.7890253e-07
-1.4903019e-08
5.806765e-07
-1.7446013e-08
5.8296747e-07
-2.0387588e-08
5.8594939e-07
-2.3804255e-08
5.8986221e-07
-2.7831172e-08
5.9509918e-07
-3.306034e-08
6.0333859e-07
-4.0391777e-08
6.2016964e-07
-4.419406e-08
6.387861e-07
-2.7910112e-08
5.7124045e-07
2.5654651e-07
2.0420397e-08
1.8719367e-07
4.4159363e-08
5.2627289e-07
4.6097355e-08
6.5281084e-07
3.8630773e-08
6.4308207e-07
3.2594966e-08
6.1786349e-07
2.8247105e-08
6.0490285e-07
2.4586755e-08
5.9760254e-07
2.1376627e-08
5.922841e-07
1.8560535e-08
5.8819317e-07
1.6081697e-08
5.8503143e-07
1.3886139e-08
5.8257049e-07
1.1927268e-08
5.8064164e-07
1.0164935e-08
5.7912326e-07
8.5644643e-09
5.7792695e-07
7.0958283e-09
5.7698767e-07
5.7328268e-09
5.7625738e-07
4.4523432e-09
5.7570067e-07
3.2336718e-09
5.752918e-07
2.0579043e-09
5.7501262e-07
9.0736598e-10
5.7485115e-07
-2.3491197e-10
5.7480074e-07
-1.385696e-09
5.748595e-07
-2.5620553e-09
5.7503031e-07
-3.781872e-09
5.7532089e-07
-5.0643754e-09
5.7574443e-07
-6.4307183e-09
5.7632056e-07
-7.9046054e-09
5.770769e-07
-9.5129918e-09
5.7805127e-07
-1.1286862e-08
5.7929502e-07
-1.326204e-08
5.8087771e-07
-1.5480107e-08
5.8289456e-07
-1.798963e-08
5.8547699e-07
-2.0844724e-08
5.8880448e-07
-2.4100852e-08
5.9311834e-07
-2.7901748e-08
5.9890007e-07
-3.2876896e-08
6.0831374e-07
-3.9314143e-08
6.2660688e-07
-4.0440536e-08
6.3991249e-07
-2.3087053e-08
5.5388697e-07
2.3345946e-07
1.5852438e-08
1.7135037e-07
3.8656016e-08
5.0348202e-07
4.3459912e-08
6.4801094e-07
3.7646475e-08
6.4889425e-07
3.2057042e-08
6.2345208e-07
2.8022336e-08
6.0893748e-07
2.4639629e-08
6.0098528e-07
2.1622539e-08
5.953012e-07
1.8926664e-08
5.9088904e-07
1.6515016e-08
5.8744308e-07
1.4348054e-08
5.8473745e-07
1.2389722e-08
5.8259998e-07
1.0607702e-08
5.8090528e-07
8.9731272e-09
5.7956152e-07
7.4602306e-09
5.7850057e-07
6.0459223e-09
5.7767169e-07
4.7093547e-09
5.7703724e-07
3.4314874e-09
5.7656967e-07
2.1946586e-09
5.7624944e-07
9.8216847e-10
5.7606364e-07
-2.2212641e-10
5.7600503e-07
-1.4342079e-09
5.7607159e-07
-2.670297e-09
5.762664e-07
-3.947255e-09
5.7659784e-07
-5.2829933e-09
5.7708017e-07
-6.6968998e-09
5.7773447e-07
-8.2102803e-09
5.7859028e-07
-9.8468104e-09
5.7968781e-07
-1.1633008e-08
5.8108122e-07
-1.3598671e-08
5.8284337e-07
-1.5777248e-08
5.8507314e-07
-1.8206271e-08
5.8790602e-07
-2.0925077e-08
5.9152329e-07
-2.397548e-08
5.9616874e-07
-2.7520861e-08
6.0244546e-07
-3.2167483e-08
6.1296036e-07
-3.7543332e-08
6.3198273e-07
-3.6374745e-08
6.387439e-07
-1.8817402e-08
5.3632963e-07
2.1464206e-07
1.2247092e-08
1.591146e-07
3.3557258e-08
4.8218871e-07
4.0466223e-08
6.4110857e-07
3.6297098e-08
6.5306226e-07
3.1220071e-08
6.2852785e-07
2.7486567e-08
6.126708e-07
2.438402e-08
6.0408787e-07
2.158124e-08
5.9810399e-07
1.9033462e-08
5.9343682e-07
1.6718976e-08
5.8975757e-07
1.4610479e-08
5.8684595e-07
1.2681153e-08
5.845293e-07
1.0905923e-08
5.8268051e-07
9.2615666e-09
5.8120588e-07
7.7266649e-09
5.8003547e-07
6.281463e-09
5.7911689e-07
4.9076831e-09
5.7841102e-07
3.5882881e-09
5.7788906e-07
2.3072161e-09
5.7753052e-07
1.0491018e-09
5.7732176e-07
-2.010105e-10
5.7725514e-07
-1.4579553e-09
5.7732853e-07
-2.7367414e-09
5.7754518e-07
-4.0528438e-09
5.7791395e-07
-5.4224944e-09
5.7844982e-07
-6.8629689e-09
5.7917495e-07
-8.3928614e-09
5.8012017e-07
-1.0032333e-08
5.8132728e-07
-1.1803342e-08
5.8285223e-07
-1.3729819e-08
5.8476985e-07
-1.583772e-08
5.8718104e-07
-1.815478e-08
5.9022308e-07
-2.0707878e-08
5.9407639e-07
-2.3532078e-08
5.9899294e-07
-2.6812656e-08
6.0572603e-07
-3.1073399e-08
6.1722111e-07
-3.5320784e-08
6.3623012e-07
-3.2296822e-08
6.3571994e-07
-1.5161705e-08
5.1919451e-07
1.9948036e-07
9.4655241e-09
1.4966321e-07
2.9014319e-08
4.6266175e-07
3.7361738e-08
6.3277117e-07
3.4719351e-08
6.55704e-07
3.0193232e-08
6.3305226e-07
2.6742395e-08
6.1612127e-07
2.3905163e-08
6.0692514e-07
2.132044e-08
6.0068873e-07
1.8933914e-08
5.9582335e-07
1.6734366e-08
5.9195711e-07
1.4704384e-08
5.8887593e-07
1.2824834e-08
5.8640885e-07
1.1076922e-08
5.8442842e-07
9.4425437e-09
5.8284026e-07
7.9043954e-09
5.8157362e-07
6.4460244e-09
5.8057526e-07
5.0518126e-09
5.7980523e-07
3.706891e-09
5.7923399e-07
2.3970079e-09
5.788404e-07
1.1083683e-09
5.786104e-07
-1.7254739e-10
5.7853606e-07
-1.4591725e-09
5.7861516e-07
-2.7650527e-09
5.7885106e-07
-4.1040378e-09
5.7925293e-07
-5.4904647e-09
5.7983624e-07
-6.9393248e-09
5.8062381e-07
-8.4664039e-09
5.8164725e-07
-1.0088377e-08
5.8294925e-07
-1.1822861e-08
5.8458671e-07
-1.3688425e-08
5.8663541e-07
-1.5704443e-08
5.8919706e-07
-1.7890306e-08
5.9240894e-07
-2.0263048e-08
5.9644913e-07
-2.2856714e-08
6.0158661e-07
-2.5874128e-08
6.0874345e-07
-2.9711388e-08
6.2105837e-07
-3.2849502e-08
6.3936823e-07
-2.8410443e-08
6.3128088e-07
-1.2114297e-08
5.0289836e-07
1.8736606e-07
7.3588959e-09
1.4232231e-07
2.5073976e-08
4.4497454e-07
3.4316086e-08
6.2354342e-07
3.3021538e-08
6.5699877e-07
2.9057486e-08
6.370141e-07
2.5867967e-08
6.1931016e-07
2.3271362e-08
6.0952177e-07
2.0896854e-08
6.0306328e-07
1.8674449e-08
5.9804576e-07
1.6598561e-08
5.94033e-07
1.4659366e-08
5.9081513e-07
1.284389e-08
5.8822433e-07
1.1138549e-08
5.8613376e-07
9.5296545e-09
5.8444916e-07
8.0036073e-09
5.8309967e-07
6.5470493e-09
5.8203182e-07
5.1469546e-09
5.8120533e-07
3.790649e-09
5.8059029e-07
2.4657791e-09
5.8016527e-07
1.1602457e-09
5.7991593e-07
-1.3788806e-10
5.7983419e-07
-1.4405011e-09
5.7991777e-07
-2.7595286e-09
5.8017009e-07
-4.1070668e-09
5.8060047e-07
-5.4954665e-09
5.8122465e-07
-6.9374033e-09
5.8206574e-07
-8.4459154e-09
5.8315577e-07
-1.0034391e-08
5.8453773e-07
-1.17165e-08
5.8626882e-07
-1.3506103e-08
5.8842502e-07
-1.5416986e-08
5.9110794e-07
-1.7461708e-08
5.9445366e-07
-1.9650335e-08
5.9863776e-07
-2.2020443e-08
6.0395671e-07
-2.4783895e-08
6.115069e-07
-2.8181116e-08
6.2445559e-07
-3.0289784e-08
6.414769e-07
-2.483645e-08
6.2582755e-07
-9.6276493e-09
4.8768956e-07
1.7773841e-07
5.7867652e-09
1.3655907e-07
2.17137e-08
4.2908286e-07
3.1429783e-08
6.1384715e-07
3.1282448e-08
6.5714773e-07
2.7870894e-08
6.4042295e-07
2.4921575e-08
6.2225851e-07
2.2536559e-08
6.1190676e-07
2.0357034e-08
6.0524285e-07
1.8294473e-08
6.0010833e-07
1.6344395e-08
5.9598308e-07
1.4502344e-08
5.9265718e-07
1.2760063e-08
5.8996661e-07
1.1108107e-08
5.8778572e-07
9.5364568e-09
5.8602081e-07
8.0347195e-09
5.8460141e-07
6.5923247e-09
5.8347422e-07
5.1986675e-09
5.8259898e-07
3.8431948e-09
5.8194577e-07
2.5154444e-09
5.8149302e-07
1.2050484e-09
5.8122633e-07
-9.8288472e-11
5.8113753e-07
-1.4048214e-09
5.812243e-07
-2.724817e-09
5.8149009e-07
-4.0685805e-09
5.8194424e-07
-5.4464813e-09
5.8260255e-07
-6.8689499e-09
5.8348821e-07
-8.3464423e-09
5.8463326e-07
-9.8893572e-09
5.8608064e-07
-1.1507903e-08
5.8788737e-07
-1.3211954e-08
5.9012907e-07
-1.5010723e-08
5.9290671e-07
-1.6911488e-08
5.9635443e-07
-1.8920246e-08
6.0064652e-07
-2.108107e-08
6.0611754e-07
-2.3604036e-08
6.1402987e-07
-2.6561913e-08
6.2741347e-07
-2.7754541e-08
6.4266953e-07
-2.16287e-08
6.1970171e-07
-7.6325408e-09
4.7369341e-07
1.7010587e-07
4.6266573e-09
1.3196404e-07
1.8874282e-08
4.1487971e-07
2.8749712e-08
6.039983e-07
2.9552717e-08
6.563484e-07
2.6670946e-08
6.4330159e-07
2.3943658e-08
6.2498439e-07
2.1741522e-08
6.1410879e-07
1.9738081e-08
6.0724635e-07
1.7826575e-08
6.0201985e-07
1.5999929e-08
5.9780973e-07
1.4257034e-08
5.9440007e-07
1.2593058e-08
5.9163059e-07
1.1001699e-08
5.8937708e-07
9.4758735e-09
5.8754663e-07
8.0078781e-09
5.8606941e-07
6.5895751e-09
5.8489252e-07
5.2125495e-09
5.8397601e-07
3.8682291e-09
5.8329009e-07
2.5479672e-09
5.8281329e-07
1.2430944e-09
5.825312e-07
-5.5055345e-11
5.8243568e-07
-1.3551103e-09
5.8252436e-07
-2.6656826e-09
5.8280066e-07
-3.995317e-09
5.8327387e-07
-5.3524776e-09
5.8395971e-07
-6.7454893e-09
5.8488123e-07
-8.1824543e-09
5.8607023e-07
-9.6711341e-09
5.8756932e-07
-1.1218793e-08
5.8943503e-07
-1.2832042e-08
5.9174232e-07
-1.4516506e-08
5.9459118e-07
-1.6275642e-08
5.9811357e-07
-1.8113932e-08
6.0248481e-07
-2.0083107e-08
6.0808671e-07
-2.2380134e-08
6.163269e-07
-2.4911498e-08
6.2994483e-07
-2.5314691e-08
6.4307272e-07
-1.8795277e-08
6.1318229e-07
-6.0526282e-09
4.6095076e-07
1.6405324e-07
3.776434e-09
1.2823065e-07
1.6482643e-08
4.0222968e-07
2.6288457e-08
5.9422739e-07
2.7861266e-08
6.5478212e-07
2.5478908e-08
6.4568049e-07
2.2959631e-08
6.2750172e-07
2.0915126e-08
6.1615308e-07
1.9068248e-08
6.090933e-07
1.7296786e-08
6.0379133e-07
1.5588445e-08
5.9951807e-07
1.3943756e-08
5.9604476e-07
1.2360227e-08
5.9321412e-07
1.0833851e-08
5.9090346e-07
9.359815e-09
5.8902067e-07
7.9326103e-09
5.8749661e-07
6.5461687e-09
5.8627896e-07
5.1940075e-09
5.8532817e-07
3.8693571e-09
5.8461474e-07
2.5652647e-09
5.8411738e-07
1.2746787e-09
5.8382179e-07
-9.4907699e-12
5.8371985e-07
-1.2943286e-09
5.838092e-07
-2.586824e-09
5.8409316e-07
-3.8938523e-09
5.845809e-07
-5.2220969e-09
5.8528795e-07
-6.5779575e-09
5.8623709e-07
-7.9674435e-09
5.8745971e-07
-9.3960444e-09
5.8899793e-07
-1.0868582e-08
5.9090757e-07
-1.2389077e-08
5.9326281e-07
-1.3960424e-08
5.9616253e-07
-1.558353e-08
5.9973667e-07
-1.7263343e-08
6.0416462e-07
-1.9058812e-08
6.0988218e-07
-2.1143524e-08
6.1841161e-07
-2.3269012e-08
6.3207032e-07
-2.3009116e-08
6.4281283e-07
-1.6316576e-08
6.0648975e-07
-4.8128715e-09
4.4944705e-07
1.5924037e-07
3.1534356e-09
1.2513506e-07
1.4464349e-08
3.9098999e-07
2.4038024e-08
5.8469892e-07
2.6221872e-08
6.5260859e-07
2.4304865e-08
6.4759388e-07
2.1983773e-08
6.2982024e-07
2.0076582e-08
6.1805986e-07
1.8368123e-08
6.1080183e-07
1.6725193e-08
6.054343e-07
1.5128705e-08
6.0111456e-07
1.3579462e-08
5.9759401e-07
1.2076468e-08
5.9471711e-07
1.0617338e-08
5.9236259e-07
9.1989724e-09
5.9043904e-07
7.817615e-09
5.8887797e-07
6.4689273e-09
5.8762765e-07
5.1481008e-09
5.86649e-07
3.8499743e-09
5.8591286e-07
2.5691416e-09
5.8539821e-07
1.3000503e-09
5.8509088e-07
3.7085837e-11
5.8498282e-07
-1.2253432e-09
5.8507163e-07
-2.4927397e-09
5.8536056e-07
-3.7704213e-09
5.8585858e-07
-5.0634375e-09
5.8658097e-07
-6.3764615e-09
5.8755011e-07
-7.7136751e-09
5.8879693e-07
-9.0786444e-09
5.903629e-07
-1.0474199e-08
5.9230312e-07
-1.1902333e-08
5.9469095e-07
-1.3363926e-08
5.9762412e-07
-1.4858356e-08
6.012311e-07
-1.6392392e-08
6.0569866e-07
-1.8030564e-08
6.1152036e-07
-1.9914745e-08
6.2029579e-07
-2.1659385e-08
6.3381496e-07
-2.0854387e-08
6.4200783e-07
-1.4157907e-08
5.9979328e-07
-3.8442046e-09
4.3913335e-07
1.5539617e-07
2.6926548e-09
1.2251767e-07
1.2750207e-08
3.8102287e-07
2.1979234e-08
5.755278e-07
2.4638228e-08
6.4996485e-07
2.3151689e-08
6.4907691e-07
2.1022783e-08
6.3194585e-07
1.9237931e-08
6.1984407e-07
1.7652242e-08
6.1238758e-07
1.6126932e-08
6.0695965e-07
1.463551e-08
6.0260599e-07
1.3178017e-08
5.990515e-07
1.1754331e-08
5.961408e-07
1.0363183e-08
5.9375374e-07
9.0027525e-09
5.9179947e-07
7.6706712e-09
5.9021005e-07
6.3640312e-09
5.8893429e-07
5.0794578e-09
5.8793357e-07
3.8132053e-09
5.8717912e-07
2.5612585e-09
5.8665016e-07
1.3194342e-09
5.863327e-07
8.3481183e-11
5.8621877e-07
-1.1508366e-09
5.8630595e-07
-2.3876286e-09
5.8659735e-07
-3.6307956e-09
5.8710175e-07
-4.8839164e-09
5.8783409e-07
-6.1501397e-09
5.8881634e-07
-7.4320699e-09
5.9007886e-07
-8.731659e-09
5.9166249e-07
-1.0050122e-08
5.9362158e-07
-1.1387879e-08
5.9602871e-07
-1.274434e-08
5.9898058e-07
-1.4118142e-08
6.0260491e-07
-1.5518613e-08
6.0709913e-07
-1.7013417e-08
6.1301516e-07
-1.8706665e-08
6.2198904e-07
-2.0097165e-08
6.3520546e-07
-1.8852311e-08
6.4076298e-07
-1.2278094e-08
5.9321906e-07
-3.086204e-09
4.2994146e-07
1.5230996e-07
2.344441e-09
1.202674e-07
1.127961e-08
3.7220235e-07
2.0088188e-08
5.6679285e-07
2.3107878e-08
6.4696673e-07
2.2017935e-08
6.5016378e-07
2.0078513e-08
6.3388119e-07
1.8406195e-08
6.2151541e-07
1.693065e-08
6.1386316e-07
1.551329e-08
6.0837707e-07
1.4120439e-08
6.0399885e-07
1.2750663e-08
6.0042127e-07
1.1404274e-08
5.9748719e-07
1.0080782e-08
5.9507723e-07
8.779327e-09
5.9310092e-07
7.4986403e-09
5.9149074e-07
6.2369989e-09
5.9019593e-07
4.9922509e-09
5.8917832e-07
3.7618864e-09
5.8840948e-07
2.5431272e-09
5.8786892e-07
1.3330221e-09
5.8754281e-07
1.2855278e-10
5.8742324e-07
-1.0732769e-09
5.8750778e-07
-2.2753214e-09
5.8779939e-07
-3.4802027e-09
5.8830663e-07
-4.6901924e-09
5.8904408e-07
-5.9071048e-09
5.9003325e-07
-7.1321907e-09
5.9130394e-07
-8.36605e-09
5.9289635e-07
-9.6085829e-09
5.9486412e-07
-1.0858974e-08
5.972791e-07
-1.2115565e-08
6.0023717e-07
-1.3376794e-08
6.0386614e-07
-1.4654737e-08
6.0837708e-07
-1.6017277e-08
6.143777e-07
-1.7527007e-08
6.2349877e-07
-1.8589895e-08
6.3626835e-07
-1.6996122e-08
6.391692e-07
-1.0635537e-08
5.8685848e-07
-2.488349e-09
4.2179427e-07
1.4982162e-07
2.0719302e-09
1.1830915e-07
1.0001716e-08
3.6441711e-07
1.8340556e-08
5.5854703e-07
2.1625371e-08
6.4371147e-07
2.0900098e-08
6.5088687e-07
1.9150077e-08
6.356263e-07
1.7585122e-08
6.23079e-07
1.6210239e-08
6.1523804e-07
1.4892712e-08
6.0969467e-07
1.3592575e-08
6.05299e-07
1.2306509e-08
6.0170734e-07
1.1034991e-08
5.9875871e-07
9.7781049e-09
5.9633412e-07
8.5357376e-09
5.9434329e-07
7.307514e-09
5.9271896e-07
6.0927011e-09
5.9141075e-07
4.8901935e-09
5.9038083e-07
3.6985574e-09
5.8960112e-07
2.5161059e-09
5.8905137e-07
1.340986e-09
5.8871793e-07
1.7128284e-10
5.8859295e-07
-9.9488519e-10
5.8867395e-07
-2.1592517e-09
5.8896376e-07
-3.3233008e-09
5.8947068e-07
-4.4881522e-09
5.9020893e-07
-5.6544589e-09
5.9119956e-07
-6.8223106e-09
5.924718e-07
-7.991168e-09
5.940652e-07
-9.1598443e-09
5.9603279e-07
-1.0326524e-08
5.9844578e-07
-1.1488745e-08
6.013994e-07
-1.2645071e-08
6.0502246e-07
-1.3810045e-08
6.0954205e-07
-1.5048708e-08
6.1561637e-07
-1.6380492e-08
6.2483055e-07
-1.714115e-08
6.3702901e-07
-1.527536e-08
6.3730342e-07
-9.1921876e-09
5.807753e-07
-2.0102219e-09
4.1461231e-07
1.4781139e-07
1.8485054e-09
1.1659401e-07
8.8752564e-09
3.57571e-07
1.6714182e-08
5.5082485e-07
2.0184669e-08
6.4028048e-07
1.9794395e-08
6.5127638e-07
1.8235515e-08
6.3717941e-07
1.6776592e-08
6.2453606e-07
1.5495834e-08
6.1651871e-07
1.4271628e-08
6.1091896e-07
1.3059117e-08
6.0651153e-07
1.1852968e-08
6.0291349e-07
1.0653698e-08
5.9995798e-07
9.461868e-09
5.9752595e-07
8.2779929e-09
5.9552717e-07
7.1024529e-09
5.938945e-07
5.9353614e-09
5.9257784e-07
4.7765174e-09
5.9153967e-07
3.6254266e-09
5.9075221e-07
2.4813613e-09
5.9019544e-07
1.3434408e-09
5.8985585e-07
2.1072833e-10
5.8972566e-07
-9.1766872e-10
5.8980234e-07
-2.0424917e-09
5.9008858e-07
-3.1642218e-09
5.9059241e-07
-4.2829715e-09
5.9132769e-07
-5.3983859e-09
5.9231497e-07
-6.5095557e-09
5.9358297e-07
-7.6149691e-09
5.9517062e-07
-8.7125153e-09
5.9713034e-07
-9.799528e-09
5.9953279e-07
-1.0872895e-08
6.0247276e-07
-1.1931441e-08
6.0608101e-07
-1.299154e-08
6.1060215e-07
-1.4112449e-08
6.1673727e-07
-1.5270633e-08
6.2598874e-07
-1.5753046e-08
6.3751142e-07
-1.3679421e-08
6.3522979e-07
-7.9157679e-09
5.7501165e-07
-1.6209899e-09
4.0831753e-07
1.461904e-07
1.655513e-09
1.1509153e-07
7.8677069e-09
3.515821e-07
1.5190541e-08
5.4364748e-07
1.8780854e-08
6.3674193e-07
1.8698092e-08
6.513605e-07
1.7333054e-08
6.3853784e-07
1.5981725e-08
6.2588495e-07
1.4791072e-08
6.1770916e-07
1.3655122e-08
6.12055e-07
1.2525883e-08
6.076408e-07
1.1396121e-08
6.0404325e-07
1.0266377e-08
6.0108772e-07
9.1376842e-09
5.9865464e-07
8.0111425e-09
5.9665371e-07
6.8878073e-09
5.9501784e-07
5.7685385e-09
5.9369711e-07
4.6539298e-09
5.9265428e-07
3.5443111e-09
5.9186183e-07
2.439798e-09
5.9129995e-07
1.340365e-09
5.9095529e-07
2.4593668e-10
5.9082009e-07
-8.4351161e-10
5.9089179e-07
-1.92785e-09
5.9117292e-07
-3.0066839e-09
5.9167125e-07
-4.0792503e-09
5.9240025e-07
-5.1443202e-09
5.9338004e-07
-6.2001204e-09
5.9463877e-07
-7.2442944e-09
5.9621479e-07
-8.273919e-09
5.9815997e-07
-9.2855607e-09
6.0054443e-07
-1.0275524e-08
6.0346273e-07
-1.1242875e-08
6.0704836e-07
-1.2204955e-08
6.1156423e-07
-1.3212626e-08
6.1774495e-07
-1.4201117e-08
6.2697723e-07
-1.4428127e-08
6.3773844e-07
-1.2199955e-08
6.3300162e-07
-6.7809917e-09
5.6959269e-07
-1.2982334e-09
4.0283478e-07
1.4489217e-07
1.4803465e-09
1.1378361e-07
6.9543364e-09
3.463805e-07
1.3755586e-08
5.3702586e-07
1.7411367e-08
6.3315275e-07
1.7610476e-08
6.5116567e-07
1.6442046e-08
6.3969887e-07
1.5201747e-08
6.2712216e-07
1.4099119e-08
6.1881144e-07
1.3047524e-08
6.1310669e-07
1.1997778e-08
6.0869058e-07
1.0941072e-08
6.0509996e-07
9.8780432e-09
6.0215075e-07
8.8102592e-09
5.9972242e-07
7.7394155e-09
5.9772455e-07
6.6672094e-09
5.9609005e-07
5.5951832e-09
5.9476914e-07
4.524641e-09
5.9372483e-07
3.4566427e-09
5.9292983e-07
2.3920451e-09
5.9236455e-07
1.3315721e-09
5.9201576e-07
2.7590115e-10
5.9187576e-07
-7.7423652e-10
5.9194193e-07
-1.8179537e-09
5.9221664e-07
-2.8540977e-09
5.9270739e-07
-3.8811488e-09
5.934273e-07
-4.8971224e-09
5.9439602e-07
-5.899494e-09
5.9564114e-07
-6.8851618e-09
5.9720046e-07
-7.8504643e-09
5.9912527e-07
-8.7912395e-09
6.0148521e-07
-9.7032137e-09
6.043747e-07
-1.0585559e-08
6.0793071e-07
-1.1455612e-08
6.1243429e-07
-1.235371e-08
6.1864305e-07
-1.3176814e-08
6.2780034e-07
-1.3170656e-08
6.3773228e-07
-1.0832295e-08
6.3066326e-07
-5.7699188e-09
5.6453031e-07
-1.0265015e-09
3.9809136e-07
1.4386567e-07
1.314977e-09
1.1265965e-07
6.1174134e-09
3.4190526e-07
1.2400289e-08
5.3096242e-07
1.6076959e-08
6.2956035e-07
1.6533651e-08
6.5071711e-07
1.5563759e-08
6.4066071e-07
1.4438785e-08
6.2824332e-07
1.3423401e-08
6.1982629e-07
1.2453052e-08
6.1407713e-07
1.1479369e-08
6.0966431e-07
1.0492455e-08
6.0608688e-07
9.4931897e-09
6.0315002e-07
8.4837775e-09
6.0073184e-07
7.4665599e-09
5.9874177e-07
6.4438738e-09
5.9711273e-07
5.4179044e-09
5.9579511e-07
4.3906028e-09
5.9475213e-07
3.3636794e-09
5.9395675e-07
2.3386437e-09
5.9338959e-07
1.3168733e-09
5.9303753e-07
2.9969994e-10
5.9289293e-07
-7.1149272e-10
5.9295313e-07
-1.7151656e-09
5.9322032e-07
-2.7095166e-09
5.9370175e-07
-3.6923773e-09
5.9441017e-07
-4.6611143e-09
5.9536475e-07
-5.6125503e-09
5.9659258e-07
-6.5429206e-09
5.9813083e-07
-7.4478787e-09
6.0003023e-07
-8.3225498e-09
6.0235988e-07
-9.1620513e-09
6.052142e-07
-9.9654493e-09
6.0873411e-07
-1.0749079e-08
6.1321792e-07
-1.1541199e-08
6.1943517e-07
-1.2204423e-08
6.2846356e-07
-1.1987335e-08
6.3751519e-07
-9.5760538e-09
6.2825198e-07
-4.8718646e-09
5.5982613e-07
-7.9699915e-10
3.9401649e-07
1.4306867e-07
1.1549203e-09
1.1171264e-07
5.3456448e-09
3.3810071e-07
1.1121021e-08
5.2545168e-07
1.4782448e-08
6.2600374e-07
1.547328e-08
6.5003933e-07
1.4702188e-08
6.414233e-07
1.3696711e-08
6.2924423e-07
1.2768408e-08
6.2075382e-07
1.1876568e-08
6.1496904e-07
1.0975588e-08
6.1056534e-07
1.0055092e-08
6.0700739e-07
9.1164023e-09
6.0408871e-07
8.1624834e-09
6.0168576e-07
7.1963917e-09
5.9970786e-07
6.2211178e-09
5.9808801e-07
5.2394644e-09
5.9677676e-07
4.2539782e-09
5.9573762e-07
3.2669523e-09
5.9494378e-07
2.2804706e-09
5.9437607e-07
1.2964793e-09
5.9402152e-07
3.1687417e-10
5.9387254e-07
-6.5640222e-10
5.939264e-07
-1.6212562e-09
5.9418517e-07
-2.5753359e-09
5.9465583e-07
-3.5159254e-09
5.9535076e-07
-4.4398421e-09
5.9628867e-07
-5.343349e-09
5.9749609e-07
-6.2220968e-09
5.9900958e-07
-7.0711067e-09
6.0087924e-07
-7.8848078e-09
6.0317358e-07
-8.6576696e-09
6.0598707e-07
-9.3884024e-09
6.0946484e-07
-1.0091398e-08
6.1392091e-07
-1.0781855e-08
6.2012562e-07
-1.1292583e-08
6.2897429e-07
-1.0887273e-08
6.3710988e-07
-8.4347319e-09
6.2579944e-07
-4.0822293e-09
5.5547362e-07
-6.0533702e-10
3.905396e-07
1.4246334e-07
9.9853147e-10
1.1093623e-07
4.6337596e-09
3.3491248e-07
9.9196441e-09
5.2048026e-07
1.353715e-08
6.2251443e-07
1.4439112e-08
6.4915648e-07
1.3864719e-08
6.4198905e-07
1.2981863e-08
6.3012176e-07
1.2140361e-08
6.2159429e-07
1.1324176e-08
6.1578527e-07
1.0492279e-08
6.113973e-07
9.6345068e-09
6.0786517e-07
8.7528466e-09
6.0497037e-07
7.8511462e-09
6.0258746e-07
6.933243e-09
6.0062577e-07
6.0027953e-09
5.9901846e-07
5.0631999e-09
5.9771636e-07
4.1175529e-09
5.9668326e-07
3.1686689e-09
5.9589267e-07
2.2191357e-09
5.953256e-07
1.2713924e-09
5.9496927e-07
3.2781809e-10
5.9481612e-07
-6.0916989e-10
5.9486339e-07
-1.5370113e-09
5.9511301e-07
-2.4528963e-09
5.9557171e-07
-3.3536567e-09
5.9625152e-07
-4.2356579e-09
5.9717067e-07
-5.0946996e-09
5.9835513e-07
-5.9259365e-09
5.9984082e-07
-6.7238294e-09
6.0167713e-07
-7.4821567e-09
6.0393191e-07
-8.1947306e-09
6.0669964e-07
-8.8596696e-09
6.1012978e-07
-9.4885906e-09
6.1454983e-07
-1.0083145e-08
6.2072018e-07
-1.0451132e-08
6.2934228e-07
-9.8810172e-09
6.3653977e-07
-7.4143234e-09
6.2333275e-07
-3.4007051e-09
5.5146001e-07
-4.4977418e-10
3.8758867e-07
1.4201357e-07
8.4653907e-10
1.1032236e-07
3.9820411e-09
3.3228348e-07
8.8031336e-09
5.1602674e-07
1.2354655e-08
6.1911698e-07
1.3444855e-08
6.4809264e-07
1.3062119e-08
6.4236338e-07
1.2303034e-08
6.308748e-07
1.1547116e-08
6.2234888e-07
1.0803045e-08
6.1652935e-07
1.0035984e-08
6.1216443e-07
9.2366901e-09