/*--------------------------------*- C++ -*----------------------------------*\
  =========                 |
  \\      /  F ield         | OpenFOAM: The Open Source CFD Toolbox
   \\    /   O peration     | Website:  https://openfoam.org
    \\  /    A nd           | Version:  10
     \\/     M anipulation  |
\*---------------------------------------------------------------------------*/
FoamFile
{
    format      ascii;
    class       surfaceScalarField;
    location    "0.08";
    object      phi_0;
}
// * * * * * * * * * * * * * * * * * * * * * * * * * * * * * * * * * * * * * //

dimensions      [1 0 -1 0 0 0 0];

internalField   nonuniform List<scalar> 
7860
(
3.9877018e-08
5.2883106e-07
1.2178326e-08
5.9640644e-07
7.4131751e-09
5.7347289e-07
5.4826806e-09
5.7063819e-07
4.0977072e-09
5.7009264e-07
3.1838892e-09
5.6962146e-07
2.5422361e-09
5.6934928e-07
2.0630436e-09
5.6918681e-07
1.6939446e-09
5.690767e-07
1.4023761e-09
5.6899916e-07
1.1665137e-09
5.6894345e-07
9.7157006e-10
5.6890252e-07
8.0718002e-10
5.6887196e-07
6.6583409e-10
5.6884891e-07
5.4194165e-10
5.6883146e-07
4.3122633e-10
5.6881828e-07
3.3031996e-10
5.6880846e-07
2.3648159e-10
5.688014e-07
1.4739531e-10
5.6879664e-07
6.1016994e-11
5.6879393e-07
-2.4548784e-11
5.6879312e-07
-1.1115613e-10
5.6879416e-07
-2.0072624e-10
5.6879713e-07
-2.9535176e-10
5.6880218e-07
-3.9743014e-10
5.6880964e-07
-5.098273e-10
5.6881996e-07
-6.3609903e-10
5.6883383e-07
-7.8080459e-10
5.6885227e-07
-9.4996824e-10
5.6887673e-07
-1.1517871e-09
5.6890939e-07
-1.3978054e-09
5.689536e-07
-1.7048881e-09
5.6901467e-07
-2.0980867e-09
5.691008e-07
-2.6173659e-09
5.6922689e-07
-3.345201e-09
5.6943546e-07
-4.437534e-09
5.6979998e-07
-5.9859993e-09
5.7025614e-07
-9.4868653e-09
5.7220857e-07
-2.9549427e-08
5.8877031e-07
5.3915849e-07
5.962756e-08
4.6920384e-07
3.6613261e-08
6.194206e-07
2.2577798e-08
5.875083e-07
1.6200506e-08
5.7701549e-07
1.2236101e-08
5.7405705e-07
9.5519364e-09
5.7230563e-07
7.6242912e-09
5.7127693e-07
6.1849986e-09
5.706261e-07
5.0783169e-09
5.7018338e-07
4.2040641e-09
5.6987341e-07
3.4968191e-09
5.6965069e-07
2.9123375e-09
5.69487e-07
2.4195072e-09
5.6936479e-07
1.9957933e-09
5.6927263e-07
1.6244279e-09
5.6920282e-07
1.2925853e-09
5.6915012e-07
9.901636e-10
5.6911089e-07
7.0894287e-10
5.6908262e-07
4.4197787e-10
5.6906361e-07
1.8313843e-10
5.6905277e-07
-7.3260483e-11
5.6904952e-07
-3.3278187e-10
5.6905368e-07
-6.0118002e-10
5.6906552e-07
-8.8473325e-10
5.6908574e-07
-1.190632e-09
5.6911554e-07
-1.5274716e-09
5.691568e-07
-1.9059164e-09
5.6921228e-07
-2.339641e-09
5.69286e-07
-2.8467208e-09
5.6938381e-07
-3.451759e-09
5.6951443e-07
-4.1893076e-09
5.6969115e-07
-5.1098936e-09
5.6993526e-07
-6.2903516e-09
5.7028126e-07
-7.8496859e-09
5.7078623e-07
-9.991425e-09
5.715772e-07
-1.3122291e-08
5.7293085e-07
-1.8057663e-08
5.7519151e-07
-2.8100726e-08
5.8225163e-07
-4.5736668e-08
6.0640625e-07
4.9342182e-07
5.994016e-08
4.092645e-07
5.0389241e-08
6.2897148e-07
3.3277845e-08
6.0461952e-07
2.4723614e-08
5.8556971e-07
1.9227345e-08
5.7955332e-07
1.5236024e-08
5.7629695e-07
1.2267482e-08
5.7424547e-07
1.0012074e-08
5.7288151e-07
8.2561976e-09
5.7193926e-07
6.8565605e-09
5.7127305e-07
5.7169394e-09
5.7079031e-07
4.7704407e-09
5.704335e-07
3.9691867e-09
5.7016605e-07
3.2780915e-09
5.6996372e-07
2.6708011e-09
5.6981011e-07
2.1270019e-09
5.6969392e-07
1.630594e-09
5.696073e-07
1.1684089e-09
5.695448e-07
7.2927386e-10
5.6950274e-07
3.0329722e-10
5.6947875e-07
-1.1871138e-10
5.6947153e-07
-5.4574828e-10
5.6948072e-07
-9.871114e-10
5.6950689e-07
-1.452923e-09
5.6955155e-07
-1.9547349e-09
5.6961735e-07
-2.5062909e-09
5.6970835e-07
-3.1245415e-09
5.6983053e-07
-3.8310597e-09
5.6999252e-07
-4.6540947e-09
5.7020685e-07
-5.6316423e-09
5.7049198e-07
-6.8161116e-09
5.7087562e-07
-8.2819705e-09
5.7140112e-07
-1.0138953e-08
5.7213824e-07
-1.2549382e-08
5.7319666e-07
-1.5746991e-08
5.7477481e-07
-2.0094549e-08
5.772784e-07
-2.6568264e-08
5.8166522e-07
-3.8805791e-08
5.9448916e-07
-4.8059809e-08
6.1566027e-07
4.4536201e-07
5.4789941e-08
3.5447611e-07
5.7302197e-08
6.264596e-07
4.0322336e-08
6.2159904e-07
3.0637036e-08
5.9525493e-07
2.4499936e-08
5.8569043e-07
1.9810253e-08
5.8098664e-07
1.6174621e-08
5.778811e-07
1.3334045e-08
5.7572208e-07
1.1076106e-08
5.741972e-07
9.248871e-09
5.7310029e-07
7.7442545e-09
5.7229493e-07
6.4835871e-09
5.7169417e-07
5.4088632e-09
5.7124077e-07
4.4766289e-09
5.7089596e-07
3.6536631e-09
5.7063308e-07
2.9139947e-09
5.7043359e-07
2.236803e-09
5.7028449e-07
1.6048976e-09
5.7017671e-07
1.0035836e-09
5.7010406e-07
4.1978022e-10
5.7006255e-07
-1.5870633e-10
5.7005002e-07
-7.4382489e-10
5.7006584e-07
-1.3479038e-09
5.7011097e-07
-1.9843088e-09
5.7018795e-07
-2.6681975e-09
5.7030124e-07
-3.4174515e-09
5.7045761e-07
-4.253888e-09
5.7066697e-07
-5.2048986e-09
5.7094353e-07
-6.3057362e-09
5.7130769e-07
-7.6027831e-09
5.7178903e-07
-9.1581295e-09
5.7243097e-07
-1.1055969e-08
5.7329896e-07
-1.341301e-08
5.7449528e-07
-1.6391196e-08
5.7617484e-07
-2.0189221e-08
5.7857284e-07
-2.5074383e-08
5.8216357e-07
-3.2299682e-08
5.8889052e-07
-4.4879175e-08
6.0706865e-07
-4.6399713e-08
6.1718081e-07
3.989623e-07
4.7859843e-08
3.0661874e-07
5.9870754e-08
6.144499e-07
4.5190958e-08
6.3627839e-07
3.4677017e-08
6.0576866e-07
2.8202504e-08
5.9216494e-07
2.3224505e-08
5.8596464e-07
1.9244863e-08
5.8186074e-07
1.6048128e-08
5.7891882e-07
1.3449365e-08
5.7679596e-07
1.1308888e-08
5.7524077e-07
9.5213112e-09
5.7408251e-07
8.0063638e-09
5.7320912e-07
6.7028173e-09
5.7254432e-07
5.5634774e-09
5.720353e-07
4.5514067e-09
5.7164515e-07
3.637174e-09
5.7134782e-07
2.7968102e-09
5.7112485e-07
2.0102666e-09
5.7096325e-07
1.2602276e-09
5.708541e-07
5.3116111e-10
5.7079162e-07
-1.9147716e-10
5.7077266e-07
-9.2195801e-10
5.7079632e-07
-1.6749726e-09
5.7086398e-07
-2.4663602e-09
5.7097934e-07
-3.3139289e-09
5.7114881e-07
-4.2384448e-09
5.7138213e-07
-5.2648781e-09
5.716934e-07
-6.4240201e-09
5.7210267e-07
-7.7546173e-09
5.7263829e-07
-9.3062547e-09
5.7334067e-07
-1.1143144e-08
5.7426786e-07
-1.3348563e-08
5.7550438e-07
-1.6031355e-08
5.7717808e-07
-1.9335866e-08
5.7947935e-07
-2.343359e-08
5.8267056e-07
-2.8626519e-08
5.8735649e-07
-3.6478914e-08
5.9674292e-07
-4.8151095e-08
6.1874084e-07
-4.3002902e-08
6.1203262e-07
3.559594e-07
4.0215435e-08
2.664069e-07
5.8730641e-08
5.9593723e-07
4.8045556e-08
6.469631e-07
3.7322217e-08
6.1649157e-07
3.0668917e-08
5.988182e-07
2.5638277e-08
5.909953e-07
2.1532483e-08
5.8596654e-07
1.8156122e-08
5.8229518e-07
1.535595e-08
5.7959614e-07
1.3009573e-08
5.7758714e-07
1.1020739e-08
5.7607134e-07
9.3138737e-09
5.7491599e-07
7.8295855e-09
5.7402861e-07
6.5207484e-09
5.7334414e-07
5.3495393e-09
5.7281636e-07
4.2851674e-09
5.7241219e-07
3.3020901e-09
5.7210793e-07
2.37861e-09
5.7188673e-07
1.4957526e-09
5.7173696e-07
6.3634215e-10
5.7165103e-07
-2.1579444e-10
5.7162479e-07
-1.0765491e-09
5.7165708e-07
-1.9622401e-09
5.7174967e-07
-2.8903466e-09
5.7190745e-07
-3.8803207e-09
5.7213878e-07
-4.9545402e-09
5.7245635e-07
-6.1394681e-09
5.7287833e-07
-7.4670953e-09
5.734303e-07
-8.9767482e-09
5.7414794e-07
-1.0717406e-08
5.7508133e-07
-1.2750747e-08
5.763012e-07
-1.5154583e-08
5.7790822e-07
-1.8026954e-08
5.8005045e-07
-2.1492959e-08
5.8294536e-07
-2.5709689e-08
5.8688729e-07
-3.1082599e-08
5.9272941e-07
-3.9229332e-08
6.0488965e-07
-4.875958e-08
6.2827108e-07
-3.834621e-08
6.0161925e-07
3.1761319e-07
3.2728788e-08
2.3368298e-07
5.492733e-08
5.7374311e-07
4.8861389e-08
6.5302907e-07
3.8715407e-08
6.2663683e-07
3.2098067e-08
6.0543542e-07
2.7193674e-08
5.9589971e-07
2.3124983e-08
5.9003524e-07
1.9704658e-08
5.8571551e-07
1.6815351e-08
5.8248544e-07
1.4354396e-08
5.800481e-07
1.2237637e-08
5.781881e-07
1.0397493e-08
5.7675613e-07
8.779429e-09
5.7564667e-07
7.3389921e-09
5.7478458e-07
6.0396257e-09
5.7411573e-07
4.850905e-09
5.7360092e-07
3.7470907e-09
5.7321175e-07
2.7059473e-09
5.7292788e-07
1.7077616e-09
5.7273514e-07
7.3450702e-10
5.7262429e-07
-2.3089502e-10
5.725902e-07
-1.2052546e-09
5.7263144e-07
-2.205785e-09
5.7275021e-07
-3.2507937e-09
5.7295246e-07
-4.3604309e-09
5.7324842e-07
-5.5575454e-09
5.7365346e-07
-6.8686899e-09
5.7418948e-07
-8.325333e-09
5.7488694e-07
-9.9653195e-09
5.7578793e-07
-1.1834657e-08
5.7695066e-07
-1.3989919e-08
5.7845646e-07
-1.650115e-08
5.8041945e-07
-1.9453943e-08
5.8300324e-07
-2.2950236e-08
5.8644165e-07
-2.7132317e-08
5.9106937e-07
-3.2509975e-08
5.9810706e-07
-4.0454307e-08
6.1283398e-07
-4.7167217e-08
6.3498399e-07
-3.3104193e-08
5.8755622e-07
2.84509e-07
2.6042494e-08
2.0764679e-07
4.974878e-08
5.5004368e-07
4.8025567e-08
6.5475314e-07
3.9050376e-08
6.3561101e-07
3.2660477e-08
6.1182502e-07
2.8007569e-08
6.0055263e-07
2.4103822e-08
5.93939e-07
2.0749303e-08
5.8907003e-07
1.7862175e-08
5.8537257e-07
1.5362625e-08
5.8254765e-07
1.3181087e-08
5.8036964e-07
1.1260003e-08
5.7867721e-07
9.5515186e-09
5.7735516e-07
8.0155485e-09
5.7632055e-07
6.6183064e-09
5.7551297e-07
5.331028e-09
5.748882e-07
4.1288771e-09
5.744139e-07
2.990017e-09
5.7406674e-07
1.8948065e-09
5.7383035e-07
8.2509071e-10
5.73694e-07
-2.364425e-10
5.7365173e-07
-1.3068648e-09
5.7370186e-07
-2.4036074e-09
5.7384695e-07
-3.5450725e-09
5.7409392e-07
-4.7512842e-09
5.7445463e-07
-6.0446137e-09
5.7494679e-07
-7.4506014e-09
5.7559546e-07
-8.9989167e-09
5.7643526e-07
-1.0724478e-08
5.7751349e-07
-1.2668734e-08
5.7889492e-07
-1.4881327e-08
5.8066905e-07
-1.7422224e-08
5.8296034e-07
-2.0361769e-08
5.8594279e-07
-2.377655e-08
5.8985644e-07
-2.7801722e-08
5.9509455e-07
-3.3028623e-08
6.0333396e-07
-4.035699e-08
6.2016235e-07
-4.4161907e-08
6.3878891e-07
-2.7894074e-08
5.7128839e-07
2.5661492e-07
2.0411819e-08
1.8724289e-07
4.4135257e-08
5.2633013e-07
4.6066828e-08
6.528238e-07
3.8602164e-08
6.4307442e-07
3.2568745e-08
6.1785789e-07
2.8222319e-08
6.0489904e-07
2.4563351e-08
5.9759799e-07
2.1354778e-08
5.922786e-07
1.854036e-08
5.8818699e-07
1.6063273e-08
5.8502474e-07
1.3869518e-08
5.825634e-07
1.1912483e-08
5.8063425e-07
1.0152007e-08
5.7911564e-07
8.5534065e-09
5.7791915e-07
7.0866492e-09
5.7697973e-07
5.7255342e-09
5.7624931e-07
4.4469472e-09
5.7569248e-07
3.2301868e-09
5.752835e-07
2.0563508e-09
5.7500419e-07
9.0777205e-10
5.7484258e-07
-2.3250979e-10
5.7479201e-07
-1.3812523e-09
5.748506e-07
-2.5555154e-09
5.7502121e-07
-3.7731728e-09
5.7531158e-07
-5.0534461e-09
5.7573491e-07
-6.417482e-09
5.7631083e-07
-7.8889819e-09
5.7706697e-07
-9.4949007e-09
5.7804118e-07
-1.1266228e-08
5.7928482e-07
-1.32388e-08
5.8086749e-07
-1.5454216e-08
5.8288447e-07
-1.7961074e-08
5.854672e-07
-2.0813539e-08
5.8879525e-07
-2.4067156e-08
5.9311005e-07
-2.7865554e-08
5.9889294e-07
-3.2837298e-08
6.0830571e-07
-3.9270775e-08
6.2659583e-07
-4.0401886e-08
6.3992002e-07
-2.3068894e-08
5.539554e-07
2.3354603e-07
1.5843162e-08
1.7140956e-07
3.862815e-08
5.0355874e-07
4.342289e-08
6.4803333e-07
3.761113e-08
6.4888485e-07
3.202498e-08
6.2344314e-07
2.7992364e-08
6.0893158e-07
2.4611492e-08
6.009789e-07
2.1596389e-08
5.9529371e-07
1.8902617e-08
5.9088076e-07
1.6493133e-08
5.8743422e-07
1.432837e-08
5.8472816e-07
1.2372252e-08
5.8259037e-07
1.0592449e-08
5.8089544e-07
8.9600874e-09
5.7955151e-07
7.4493981e-09
5.7849042e-07
6.0372931e-09
5.7766142e-07
4.7029298e-09
5.7702685e-07
3.4272756e-09
5.7655915e-07
2.1926781e-09
5.7623879e-07
9.8244876e-10
5.7605281e-07
-2.1954335e-10
5.75994e-07
-1.4292671e-09
5.7606033e-07
-2.66293e-09
5.7625488e-07
-3.9373802e-09
5.7658603e-07
-5.2705166e-09
5.7706804e-07
-6.6817162e-09
5.7772203e-07
-8.1922761e-09
5.7857753e-07
-9.825867e-09
5.7967477e-07
-1.1609008e-08
5.8106796e-07
-1.3571501e-08
5.8282999e-07
-1.5746813e-08
5.8505978e-07
-1.8172504e-08
5.878929e-07
-2.0887967e-08
5.9151072e-07
-2.3935091e-08
5.9615718e-07
-2.7476997e-08
6.0243485e-07
-3.2118849e-08
6.1294756e-07
-3.7490387e-08
6.3196737e-07
-3.6329137e-08
6.3875877e-07
-1.8797094e-08
5.3642336e-07
2.1474894e-07
1.2237088e-08
1.5918469e-07
3.352535e-08
4.8228854e-07
4.0422006e-08
6.4114372e-07
3.625402e-08
6.5305164e-07
3.1181258e-08
6.2851457e-07
2.7450693e-08
6.1266195e-07
2.4350563e-08
6.0407907e-07
2.1550296e-08
5.98094e-07
1.9005128e-08
5.9342593e-07
1.669329e-08
5.8974606e-07
1.4587447e-08
5.8683401e-07
1.2660761e-08
5.8451706e-07
1.0888148e-08
5.8266805e-07
9.2463801e-09
5.8119328e-07
7.7140406e-09
5.8002276e-07
6.2713798e-09
5.7910408e-07
4.9001288e-09
5.783981e-07
3.5832626e-09
5.7787602e-07
2.3047335e-09
5.7751732e-07
1.0491921e-09
5.7730836e-07
-1.983003e-10
5.772415e-07
-1.4525597e-09
5.7731459e-07
-2.7285762e-09
5.7753089e-07
-4.0418059e-09
5.7789926e-07
-5.408462e-09
5.784347e-07
-6.8458029e-09
5.7915937e-07
-8.372407e-09
5.8010413e-07
-1.0008424e-08
5.8131079e-07
-1.1775804e-08
5.8283534e-07
-1.3698478e-08
5.8475266e-07
-1.5802412e-08
5.8716372e-07
-1.8115365e-08
5.9020585e-07
-2.0664277e-08
5.9405963e-07
-2.3484258e-08
5.9897716e-07
-2.676013e-08
6.0571072e-07
-3.1014522e-08
6.1720195e-07
-3.5257242e-08
6.3621009e-07
-3.2243741e-08
6.3574527e-07
-1.5139159e-08
5.1931878e-07
1.9960978e-07
9.4547597e-09
1.4974525e-07
2.8978023e-08
4.6278871e-07
3.7309552e-08
6.328229e-07
3.4667465e-08
6.5569303e-07
3.0146661e-08
6.3303354e-07
2.669983e-08
6.1610839e-07
2.3865756e-08
6.0691318e-07
2.1284179e-08
6.006756e-07
1.8900865e-08
5.9580925e-07
1.6704528e-08
5.919424e-07
1.4677718e-08
5.8886082e-07
1.2801287e-08
5.8639349e-07
1.1056433e-08
5.8441291e-07
9.4250523e-09
5.8282466e-07
7.8898463e-09
5.8155797e-07
6.4343732e-09
5.8055955e-07
5.0430294e-09
5.7978944e-07
3.7009635e-09
5.7921809e-07
2.3939434e-09
5.7882434e-07
1.1081957e-09
5.785941e-07
-1.6977593e-10
5.7851947e-07
-1.4533805e-09
5.7859819e-07
-2.7561383e-09
5.7883365e-07
-4.0918733e-09
5.79235e-07
-5.4748962e-09
5.7981772e-07
-6.9201727e-09
5.8060465e-07
-8.4434643e-09
5.8162742e-07
-1.0061425e-08
5.8292875e-07
-1.1791653e-08
5.8456557e-07
-1.3652708e-08
5.8661372e-07
-1.5663964e-08
5.8917497e-07
-1.784483e-08
5.9238672e-07
-2.0212397e-08
5.964272e-07
-2.2800707e-08
6.0156547e-07
-2.5811899e-08
6.0872192e-07
-2.9641024e-08
6.2103108e-07
-3.2774307e-08
6.3934337e-07
-2.8349306e-08
6.3132027e-07
-1.2089372e-08
5.0305884e-07
1.8752041e-07
7.3473498e-09
1.424175e-07
2.5032894e-08
4.4513313e-07
3.4255087e-08
6.2361608e-07
3.2959685e-08
6.5698866e-07
2.9002056e-08
6.3698881e-07
2.5817848e-08
6.1929193e-07
2.3225336e-08
6.0950572e-07
2.0854741e-08
6.0304623e-07
1.8636255e-08
5.9802774e-07
1.6564226e-08
5.9401443e-07
1.4628793e-08
5.9079625e-07
1.281697e-08
5.8820531e-07
1.1115171e-08
5.8611471e-07
9.5097138e-09
5.8443012e-07
7.9870119e-09
5.8308067e-07
6.5337249e-09
5.8201284e-07
5.1368484e-09
5.8118632e-07
3.7837322e-09
5.805712e-07
2.4620496e-09
5.8014602e-07
1.1597298e-09
5.7989643e-07
-1.3513392e-10
5.7981433e-07
-1.4343888e-09
5.7989745e-07
-2.749937e-09
5.801492e-07
-4.0938408e-09
5.805789e-07
-5.4784154e-09
5.812023e-07
-6.9163008e-09
5.8204253e-07
-8.4204998e-09
5.8313162e-07
-1.0004366e-08
5.8451261e-07
-1.168154e-08
5.8624274e-07
-1.3465858e-08
5.8839804e-07
-1.5371091e-08
5.9108021e-07
-1.7409804e-08
5.9442543e-07
-1.9592109e-08
5.986095e-07
-2.1955493e-08
6.0392885e-07
-2.4710899e-08
6.1147732e-07
-2.8098004e-08
6.2441819e-07
-3.0201844e-08
6.4144721e-07
-2.4766601e-08
6.2588503e-07
-9.6001492e-09
4.8789239e-07
1.7792026e-07
5.7744329e-09
1.366689e-07
2.166738e-08
4.2927817e-07
3.1359041e-08
6.1394565e-07
3.120939e-08
6.5714003e-07
2.7805418e-08
6.403899e-07
2.4862979e-08
6.2223334e-07
2.2483217e-08
6.1188545e-07
2.0308529e-08
6.0522097e-07
1.8250713e-08
6.0008556e-07
1.6305239e-08
5.959599e-07
1.4467615e-08
5.9263387e-07
1.2729577e-08
5.8994335e-07
1.1081688e-08
5.877626e-07
9.5139439e-09
5.8599786e-07
8.0159744e-09
5.8457864e-07
6.5772355e-09
5.8345158e-07
5.1871525e-09
5.8257641e-07
3.8352047e-09
5.8192315e-07
2.5109648e-09
5.8147026e-07
1.2041008e-09
5.8120329e-07
-9.564435e-11
5.8111408e-07
-1.398485e-09
5.8120029e-07
-2.714647e-09
5.8146536e-07
-4.0543916e-09
5.8191865e-07
-5.428042e-09
5.8257595e-07
-6.845981e-09
5.8346047e-07
-8.3186156e-09
5.8460426e-07
-9.8562952e-09
5.8605029e-07
-1.1469181e-08
5.8785563e-07
-1.3167103e-08
5.9009596e-07
-1.4959239e-08
5.9287234e-07
-1.6852859e-08
5.9631905e-07
-1.8853978e-08
6.0061062e-07
-2.1006459e-08
6.0608134e-07
-2.3519226e-08
6.1399009e-07
-2.6464811e-08
6.2736377e-07
-2.7652755e-08
6.4263516e-07
-2.1549418e-08
6.1978169e-07
-7.6022097e-09
4.7394518e-07
1.7031805e-07
4.6135418e-09
1.3209035e-07
1.8822217e-08
4.1511755e-07
2.866821e-08
6.0412817e-07
2.9467136e-08
6.5634502e-07
2.6594167e-08
6.4325952e-07
2.3875613e-08
6.249504e-07
2.1680156e-08
6.140808e-07
1.968266e-08
6.0721853e-07
1.7776857e-08
6.0199138e-07
1.5955663e-08
5.9778109e-07
1.4217936e-08
5.943716e-07
1.2558849e-08
5.9160244e-07
1.097212e-08
5.8934933e-07
9.4506944e-09
5.8751929e-07
7.9869033e-09
5.8604243e-07
6.572647e-09
5.8486584e-07
5.1995513e-09
5.839495e-07
3.8590865e-09
5.8326362e-07
2.5426499e-09
5.827867e-07
1.2416178e-09
5.8250432e-07
-5.263036e-11
5.8240833e-07
-1.3486697e-09
5.8249633e-07
-2.6550648e-09
5.8277176e-07
-3.9803042e-09
5.8324389e-07
-5.3327938e-09
5.8392844e-07
-6.7207969e-09
5.8484848e-07
-8.1523506e-09
5.8603581e-07
-9.6351485e-09
5.8753309e-07
-1.1176386e-08
5.8939687e-07
-1.2782605e-08
5.9170218e-07
-1.445937e-08
5.9454911e-07
-1.6210101e-08
5.9806978e-07
-1.8039257e-08
6.0243978e-07
-1.9998199e-08
6.0804028e-07
-2.2282537e-08
6.1627443e-07
-2.4799232e-08
6.2988047e-07
-2.5197977e-08
6.430339e-07
-1.870579e-08
6.1328951e-07
-6.0191364e-09
4.6125853e-07
1.6429891e-07
3.7625066e-09
1.2837568e-07
1.6424263e-08
4.0251672e-07
2.6195095e-08
5.9439484e-07
2.7761781e-08
6.5478529e-07
2.5389524e-08
6.4562807e-07
2.2881146e-08
6.274567e-07
2.0845044e-08
6.1611667e-07
1.9005425e-08
6.0905822e-07
1.7240772e-08
6.0375606e-07
1.5538836e-08
5.9948303e-07
1.3900133e-08
5.9601031e-07
1.2322189e-08
5.9318038e-07
1.0801038e-08
5.9087048e-07
9.3319139e-09
5.8898841e-07
7.9093562e-09
5.8746499e-07
6.5273498e-09
5.8624784e-07
5.1794658e-09
5.8529739e-07
3.8589887e-09
5.845841e-07
2.5590205e-09
5.8408667e-07
1.272566e-09
5.8379078e-07
-7.4071012e-12
5.836883e-07
-1.2879308e-09
5.8377686e-07
-2.5759256e-09
5.8405975e-07
-3.8782011e-09
5.8454617e-07
-5.2013699e-09
5.8525161e-07
-6.5517543e-09
5.8619886e-07
-7.9352798e-09
5.8741934e-07
-9.3573461e-09
5.8895516e-07
-1.082268e-08
5.908622e-07
-1.2335202e-08
5.932147e-07
-1.3897712e-08
5.9611162e-07
-1.5511042e-08
5.9968311e-07
-1.7180048e-08
6.0410878e-07
-1.896312e-08
6.0982335e-07
-2.1032316e-08
6.1834363e-07
-2.3140558e-08
6.3198871e-07
-2.2876485e-08
6.4276983e-07
-1.6216094e-08
6.0662912e-07
-4.7758009e-09
4.4981824e-07
1.5952311e-07
3.1385707e-09
1.2530135e-07
1.4399008e-08
3.9133378e-07
2.3931628e-08
5.8491085e-07
2.6107073e-08
6.5262086e-07
2.4201573e-08
6.4752969e-07
2.1893881e-08
6.2976165e-07
1.9997147e-08
6.1801297e-07
1.8297492e-08
6.1075795e-07
1.6662629e-08
6.0539096e-07
1.5073605e-08
6.0107206e-07
1.3531235e-08
5.9755268e-07
1.2034568e-08
5.9467705e-07
1.0581282e-08
5.9232376e-07
9.1683457e-09
5.9040135e-07
7.7920737e-09
5.8884126e-07
6.4481973e-09
5.8759172e-07
5.1319768e-09
5.8661361e-07
3.8383187e-09
5.8587776e-07
2.5618833e-09
5.853631e-07
1.2971843e-09
5.8505548e-07
3.8675152e-11
5.8494681e-07
-1.2191649e-09
5.850347e-07
-2.481766e-09
5.8532236e-07
-3.7543674e-09
5.8581877e-07
-5.041932e-09
5.8653918e-07
-6.3490381e-09
5.8750597e-07
-7.6797632e-09
5.8875006e-07
-9.0375579e-09
5.9031296e-07
-1.0425125e-08
5.9224977e-07
-1.1844324e-08
5.946339e-07
-1.3295893e-08
5.9756319e-07
-1.4779086e-08
6.0116631e-07
-1.6300482e-08
6.0563018e-07
-1.792383e-08
6.114467e-07
-1.9789357e-08
6.2020916e-07
-2.1513978e-08
6.3371333e-07
-2.0705042e-08
6.4196089e-07
-1.4045691e-08
5.9996977e-07
-3.803063e-09
4.3957561e-07
1.5572005e-07
2.6765703e-09
1.2270799e-07
1.2677169e-08
3.8143189e-07
2.1858595e-08
5.7579185e-07
2.4506735e-08
6.4998901e-07
2.3033254e-08
6.489994e-07
2.0920608e-08
6.3187078e-07
1.9148621e-08
6.1978427e-07
1.7573526e-08
6.1233311e-07
1.6057697e-08
6.0690683e-07
1.4574897e-08
6.0255487e-07
1.3125225e-08
5.9900235e-07
1.1708636e-08
5.9609364e-07
1.0323958e-08
5.9370844e-07
8.9694693e-09
5.9175584e-07
7.6428941e-09
5.9016784e-07
6.341416e-09
5.888932e-07
5.0617469e-09
5.8789328e-07
3.8002236e-09
5.8713928e-07
2.5529105e-09
5.8661042e-07
1.3157021e-09
5.8629269e-07
8.4427009e-11
5.8617809e-07
-1.1450724e-09
5.862642e-07
-2.3768185e-09
5.865541e-07
-3.6146215e-09
5.8705657e-07
-4.8619588e-09
5.8778651e-07
-6.1218661e-09
5.8876588e-07
-7.3968208e-09
5.9002502e-07
-8.6886313e-09
5.9160477e-07
-9.9983505e-09
5.9355949e-07
-1.132622e-08
5.9596177e-07
-1.2671458e-08
5.9890843e-07
-1.4032506e-08
6.0252736e-07
-1.541838e-08
6.0701606e-07
-1.6895712e-08
6.1292403e-07
-1.8566908e-08
6.2188035e-07
-1.9934451e-08
6.3508088e-07
-1.8685805e-08
6.4071225e-07
-1.2153589e-08
5.9343755e-07
-3.0404969e-09
4.3046252e-07
1.5267955e-07
2.3266799e-09
1.2048477e-07
1.1198062e-08
3.7268585e-07
1.9952137e-08
5.6711729e-07
2.2958445e-08
6.4700577e-07
2.1883297e-08
6.5007122e-07
1.9963362e-08
6.3378637e-07
1.830668e-08
6.2143993e-07
1.6843768e-08
6.1379607e-07
1.5437448e-08
6.0831322e-07
1.4054458e-08
6.0393786e-07
1.269349e-08
6.0036332e-07
1.1354979e-08
5.9743215e-07
1.0038573e-08
5.9502485e-07
8.7435452e-09
5.9305087e-07
7.4687507e-09
5.9144263e-07
6.2125813e-09
5.9014937e-07
4.9729914e-09
5.8913287e-07
3.74757e-09
5.883647e-07
2.5336322e-09
5.8782436e-07
1.3283167e-09
5.87498e-07
1.2869467e-10
5.8737771e-07
-1.0681392e-09
5.8746103e-07
-2.2649427e-09
5.8775091e-07
-3.4642341e-09
5.8825586e-07
-4.6681683e-09
5.8899045e-07
-5.8784285e-09
5.8997614e-07
-7.096115e-09
5.9124271e-07
-8.321654e-09
5.9283031e-07
-9.5547457e-09
5.9479258e-07
-1.0794346e-08
5.9720137e-07
-1.2038544e-08
6.0015263e-07
-1.3285501e-08
6.0377431e-07
-1.4546823e-08
6.0827738e-07
-1.5889096e-08
6.1426631e-07
-1.7373213e-08
6.2336447e-07
-1.8410115e-08
6.3611778e-07
-1.6812562e-08
6.391147e-07
-1.0498553e-08
5.8712354e-07
-2.437716e-09
4.2240168e-07
1.5024184e-07
2.051892e-09
1.1855692e-07
9.9108234e-09
3.6498503e-07
1.8188089e-08
5.5894064e-07
2.1457035e-08
6.4376845e-07
2.0748501e-08
6.5077736e-07
1.9021546e-08
6.3550809e-07
1.7475341e-08
6.2298468e-07
1.6115356e-08
6.1515604e-07
1.4810547e-08
6.096181e-07
1.3521563e-08
6.0522686e-07
1.2245299e-08
6.0163958e-07
1.0982422e-08
5.9869503e-07
9.7332001e-09
5.9627407e-07
8.4976976e-09
5.9428637e-07
7.2756973e-09
5.9266463e-07
6.0666082e-09
5.9135846e-07
4.8694525e-09
5.9033003e-07
3.6829128e-09
5.8955124e-07
2.5054092e-09
5.8900186e-07
1.3351908e-09
5.8866822e-07
1.7044167e-10
5.8854246e-07
-9.9061746e-10
5.8862209e-07
-2.1496149e-09
5.8890991e-07
-3.3079183e-09
5.8941417e-07
-4.4665171e-09
5.9014905e-07
-5.6259152e-09
5.9113554e-07
-6.7860286e-09
5.9240282e-07
-7.9461135e-09
5.9399039e-07
-9.1047427e-09
5.9595121e-07
-1.0259819e-08
5.9835645e-07
-1.140856e-08
6.0130137e-07
-1.2549156e-08
6.0491491e-07
-1.3695499e-08
6.0942372e-07
-1.4911063e-08
6.1548187e-07
-1.6213657e-08
6.2466707e-07
-1.6945339e-08
6.3684946e-07
-1.5075651e-08
6.3724501e-07
-9.0431355e-09
5.8109103e-07
-1.95462e-09
4.1531317e-07
1.4828722e-07
1.8255127e-09
1.1687598e-07
8.7742626e-09
3.5823376e-07
1.6544643e-08
5.5129668e-07
1.9996941e-08
6.4035846e-07
1.962555e-08
6.5114785e-07
1.8093598e-08
6.3703389e-07
1.6656819e-08
6.2441949e-07
1.53934e-08
6.1641937e-07
1.418366e-08
6.1082793e-07
1.2983597e-08
6.0642695e-07
1.1788213e-08
6.0283497e-07
1.0598287e-08
5.9988496e-07
9.4146299e-09
5.9745773e-07
8.2379811e-09
5.9546302e-07
7.0689171e-09
5.938337e-07
5.907723e-09
5.9251965e-07
4.7543483e-09
5.914834e-07
3.608432e-09
5.9069716e-07
2.4693674e-09
5.9014093e-07
1.3363868e-09
5.898012e-07
2.0866212e-10
5.8967019e-07
-9.1458847e-10
5.8974534e-07
-2.033992e-09
5.9002931e-07
-3.1499027e-09
5.9053008e-07
-4.2622913e-09
5.9126144e-07
-5.370637e-09
5.9224388e-07
-6.4738353e-09
5.9350602e-07
-7.57014e-09
5.950867e-07
-8.6571595e-09
5.9703823e-07
-9.7318913e-09
5.9943118e-07
-1.079083e-08
6.0236031e-07
-1.1832317e-08
6.059564e-07
-1.287188e-08
6.1046329e-07
-1.3966959e-08
6.1657695e-07
-1.5092557e-08
6.2579266e-07
-1.5543245e-08
6.3730015e-07
-1.3465537e-08
6.351673e-07
-7.7559171e-09
5.7538141e-07
-1.5608693e-09
4.0911812e-07
1.4672635e-07
1.6288998e-09
1.1541192e-07
7.756103e-09
3.5235024e-07
1.5003886e-08
5.4420643e-07
1.8573979e-08
6.368438e-07
1.8512365e-08
6.512108e-07
1.7178263e-08
6.3836095e-07
1.5852638e-08
6.2574255e-07
1.4681857e-08
6.1758994e-07
1.3562126e-08
6.1194776e-07
1.2446572e-08
6.0754253e-07
1.1328449e-08
6.0395309e-07
1.0208651e-08
6.0100475e-07
9.088531e-09
5.9857785e-07
7.9694691e-09
5.9658209e-07
6.8527581e-09
5.9495041e-07
5.7394603e-09
5.9363295e-07
4.6303422e-09
5.9259252e-07
3.5258844e-09
5.9180162e-07
2.4263358e-09
5.9124048e-07
1.331794e-09
5.9089575e-07
2.423003e-10
5.9075968e-07
-8.4205226e-10
5.908297e-07
-1.9210119e-09
5.9110827e-07
-2.9940496e-09
5.9160312e-07
-4.0602504e-09
5.9232764e-07
-5.1182068e-09
5.9330184e-07
-6.1659314e-09
5.9455375e-07
-7.2008069e-09
5.9612158e-07
-8.2195906e-09
5.9805702e-07
-9.2184588e-09
6.0043005e-07
-1.0193247e-08
6.033351e-07
-1.114242e-08
6.0690557e-07
-1.2082274e-08
6.1140314e-07
-1.3061645e-08
6.1755632e-07
-1.4014568e-08
6.2674559e-07
-1.4207601e-08
6.3749318e-07
-1.1975217e-08
6.3293492e-07
-6.6127313e-09
5.7001893e-07
-1.2345663e-09
4.0373996e-07
1.4549179e-07
1.4495795e-09
1.1414692e-07
6.8321163e-09
3.4726409e-07
1.3552722e-08
5.3768018e-07
1.7186655e-08
6.3328115e-07
1.7409153e-08
6.5099271e-07
1.6275606e-08
6.3948662e-07
1.506458e-08
6.2695031e-07
1.3984346e-08
6.1866981e-07
1.295064e-08
6.1298156e-07
1.1915688e-08
6.0857752e-07
1.0871343e-08
6.0499744e-07
9.8187065e-09
6.0205739e-07
8.7597453e-09
5.9963681e-07
7.6964923e-09
5.9764534e-07
6.6309248e-09
5.9601598e-07
5.5648175e-09
5.9469906e-07
4.4996689e-09
5.9365767e-07
3.4367043e-09
5.9286458e-07
2.3769254e-09
5.9230026e-07
1.3211869e-09
5.9195149e-07
2.7029023e-10
5.9181058e-07
-7.7491104e-10
5.918749e-07
-1.8134023e-09
5.9214676e-07
-2.8438918e-09
5.9263361e-07
-3.8647013e-09
5.9334845e-07
-4.8736592e-09
5.943108e-07
-5.8680132e-09
5.955481e-07
-6.8443799e-09
5.9709794e-07
-7.7987453e-09
5.9901138e-07
-8.7265078e-09
6.0135782e-07
-9.6228501e-09
6.0423144e-07
-1.048622e-08
6.0776894e-07
-1.1332707e-08
6.1224963e-07
-1.2200487e-08
6.184241e-07
-1.2985711e-08
6.2753081e-07
-1.2944089e-08
6.3745156e-07
-1.0601606e-08
6.3059244e-07
-5.5970817e-09
5.650144e-07
-9.6114658e-10
3.9910402e-07
1.4453064e-07
1.2798128e-09
1.1307022e-07
5.9854128e-09
3.4291305e-07
1.2183482e-08
5.3171908e-07
1.5837189e-08
6.2971749e-07
1.6319317e-08
6.5051904e-07
1.538795e-08
6.4040942e-07
1.4295636e-08
6.2803862e-07
1.3305019e-08
6.1965987e-07
1.2354043e-08
6.1393263e-07
1.1396044e-08
6.0953557e-07
1.0421992e-08
6.059715e-07
9.4333557e-09
6.0304603e-07
8.432821e-09
6.0063735e-07
7.4231263e-09
5.9865503e-07
6.4069286e-09
5.9703218e-07
5.3866724e-09
5.9571932e-07
4.3645216e-09
5.9467982e-07
3.3423646e-09
5.9388674e-07
2.3218646e-09
5.9332076e-07
1.3045368e-09
5.9296881e-07
2.9184147e-10
5.9282328e-07
-7.1471157e-10
5.9288145e-07
-1.7134531e-09
5.9314551e-07
-2.70244e-09
5.936226e-07
-3.6793435e-09
5.9432535e-07
-4.6413404e-09
5.952728e-07
-5.5850202e-09
5.9649178e-07
-6.5063251e-09
5.9801925e-07
-7.4005349e-09
5.9990559e-07
-8.2622968e-09
6.0221958e-07
-9.0861168e-09
6.0505526e-07
-9.8702151e-09
6.0855304e-07
-1.0629493e-08
6.1300891e-07
-1.1389966e-08
6.1918458e-07
-1.2013927e-08
6.2815477e-07
-1.1760878e-08
6.3719852e-07
-9.3459077e-09
6.2817747e-07
-4.6997637e-09
5.6036826e-07
-7.3258911e-10
3.9513685e-07
1.4379805e-07
1.1155682e-09
1.1217421e-07
5.2059096e-09
3.3923903e-07
1.0894263e-08
5.2631564e-07
1.4532266e-08
6.2619124e-07
1.5250237e-08
6.4981468e-07
1.4520763e-08
6.4112988e-07
1.3550927e-08
6.2900367e-07
1.2649435e-08
6.2056056e-07
1.1778118e-08
6.1480403e-07
1.0893383e-08
6.1042036e-07
9.9859454e-09
6.0687894e-07
9.0578484e-09
6.0397413e-07
8.1126218e-09
6.0158257e-07
7.1537713e-09
5.9961389e-07
6.1846414e-09
5.9800131e-07
5.208315e-09
5.9669565e-07
4.227565e-09
5.9566057e-07
3.2448715e-09
5.9486944e-07
2.2624784e-09
5.9430315e-07
1.2824745e-09
5.9394882e-07
3.0688785e-10
5.9379886e-07
-6.6221043e-10
5.9385055e-07
-1.6225955e-09
5.9410589e-07
-2.5717755e-09
5.9457178e-07
-3.5068768e-09
5.9526046e-07
-4.4245314e-09
5.9619045e-07
-5.3207747e-09
5.9738803e-07
-6.1909679e-09
5.9888944e-07
-7.0297559e-09
6.0074438e-07
-7.8310735e-09
6.030209e-07
-8.5887338e-09
6.0581292e-07
-9.300498e-09
6.0926481e-07
-9.9791527e-09
6.1368756e-07
-1.0637611e-08
6.1984304e-07
-1.1108876e-08
6.2862604e-07
-1.0668247e-08
6.3675789e-07
-8.2128444e-09
6.2572207e-07
-3.9173754e-09
5.5607279e-07
-5.4491906e-10
3.9176439e-07
1.4325313e-07
9.5577901e-10
1.1145126e-07
4.4898445e-09
3.3618394e-07
9.6888508e-09
5.2145384e-07
1.3283252e-08
6.2273311e-07
1.4213608e-08
6.4890429e-07
1.3683129e-08
6.4165124e-07
1.283819e-08
6.2984307e-07
1.2024944e-08
6.2137274e-07
1.1229894e-08
6.1559912e-07
1.0414327e-08
6.1123599e-07
9.5694057e-09
6.0772388e-07
8.6979669e-09
6.0484557e-07
7.8044926e-09
6.0247605e-07
6.8933077e-09
6.0052507e-07
5.9684452e-09
5.9892617e-07
5.0335932e-09
5.976305e-07
4.0920807e-09
5.9660209e-07
3.1469138e-09
5.958146e-07
2.2008448e-09
5.9524922e-07
1.2564589e-09
5.9489321e-07
3.1627126e-10
5.9473905e-07
-6.1716986e-10
5.9478399e-07
-1.5411726e-09
5.950299e-07
-2.4527895e-09
5.9548339e-07
-3.3487012e-09
5.9615637e-07
-4.2250993e-09
5.9706685e-07
-5.0775731e-09
5.982405e-07
-5.9010101e-09
5.9971288e-07
-6.6895191e-09
6.0153289e-07
-7.4364051e-09
6.0376778e-07
-8.1348222e-09
6.0651134e-07
-8.7818832e-09
6.0991187e-07
-9.3874717e-09
6.1429315e-07
-9.9509239e-09
6.2040649e-07
-1.0280667e-08
6.2895578e-07
-9.6771362e-09
6.3615436e-07
-7.2088677e-09
6.232538e-07
-3.2502009e-09
5.5211413e-07
-3.9641225e-10
3.8891061e-07
1.4285672e-07
8.0184673e-10
1.1089144e-07
3.8391287e-09
3.3368559e-07
8.5760248e-09
5.1710914e-07
1.2105504e-08
6.1936678e-07
1.3224716e-08
6.4781256e-07
1.2887064e-08
6.4198004e-07
1.2167063e-08
6.3055679e-07
1.1439879e-08
6.2209855e-07
1.0716758e-08
6.1632224e-07
9.9654765e-09
6.1198734e-07
9.1783325e-09
6.0851104e-07
8.3591369e-09