/*--------------------------------*- C++ -*----------------------------------*\
  =========                 |
  \\      /  F ield         | OpenFOAM: The Open Source CFD Toolbox
   \\    /   O peration     | Website:  https://openfoam.org
    \\  /    A nd           | Version:  10
     \\/     M anipulation  |
\*---------------------------------------------------------------------------*/
FoamFile
{
    format      ascii;
    class       volScalarField;
    location    "0.08";
    object      T;
}
// * * * * * * * * * * * * * * * * * * * * * * * * * * * * * * * * * * * * * //

dimensions      [0 0 0 1 0 0 0];

internalField   nonuniform List<scalar> 
4000
(
303.10102
299.3432
299.99042
300.00082
299.99993
300
300
300
300
300
300
300
300
300
300
300
300
300
300
300
300
300
300
300
300
300
300
300
300
300
300
300
300
300
300
300
300
300
300
300
309.66142
298.49371
299.7795
300.00183
300.0008
299.99999
300
300
300
300
300
300
300
300
300
300
300
300
300
300
300
300
300
300
300
300
300
300
300
300
300
300
300
300
300
300
300
300
300
300
315.99905
298.68479
299.39321
299.97577
300.00404
300.00025
299.99999
300
300
300
300
300
300
300
300
300
300
300
300
300
300
300
300
300
300
300
300
300
300
300
300
300
300
300
300
300
300
300
300
300
321.73231
299.84382
298.98673
299.89535
300.00712
300.00138
300
299.99999
300
300
300
300
300
300
300
300
300
300
300
300
300
300
300
300
300
300
300
300
300
300
300
300
300
300
300
300
300
300
300
300
326.65483
301.69365
298.71251
299.75435
300.00323
300.00375
300.00017
299.99998
300
300
300
300
300
300
300
300
300
300
300
300
300
300
300
300
300
300
300
300
300
300
300
300
300
300
300
300
300
300
300
300
330.66121
303.93355
298.66532
299.57076
299.98449
300.00689
300.00071
299.99997
299.99999
300
300
300
300
300
300
300
300
300
300
300
300
300
300
300
300
300
300
300
300
300
300
300
300
300
300
300
300
300
300
300
333.74202
306.3055
298.87073
299.37772
299.94591
300.00928
300.00177
300
299.99998
300
300
300
300
300
300
300
300
300
300
300
300
300
300
300
300
300
300
300
300
300
300
300
300
300
300
300
300
300
300
300
335.98025
308.62482
299.30301
299.20943
299.88746
300.00883
300.00338
300.00014
299.99997
300
300
300
300
300
300
300
300
300
300
300
300
300
300
300
300
300
300
300
300
300
300
300
300
300
300
300
300
300
300
300
337.52243
310.78051
299.91185
299.09146
299.8136
300.0036
300.00528
300.00045
299.99996
299.99999
300
300
300
300
300
300
300
300
300
300
300
300
300
300
300
300
300
300
300
300
300
300
300
300
300
300
300
300
300
300
338.53948
312.71961
300.64218
299.0378
299.73136
299.99237
300.00706
300.00096
299.99997
299.99998
300
300
300
300
300
300
300
300
300
300
300
300
300
300
300
300
300
300
300
300
300
300
300
300
300
300
300
300
300
300
339.19332
314.42881
301.44482
299.05237
299.64841
299.97482
300.00817
300.00168
300.00001
299.99997
300
300
300
300
300
300
300
300
300
300
300
300
300
300
300
300
300
300
300
300
300
300
300
300
300
300
300
300
300
300
339.61615
315.91879
302.28082
299.13198
299.57166
299.95147
300.00812
300.00255
300.00011
299.99997
300
300
300
300
300
300
300
300
300
300
300
300
300
300
300
300
300
300
300
300
300
300
300
300
300
300
300
300
300
300
339.90314
317.21207
303.12187
299.26936
299.50653
299.92348
300.00651
300.00347
300.00028
299.99996
299.99999
300
300
300
300
300
300
300
300
300
300
300
300
300
300
300
300
300
300
300
300
300
300
300
300
300
300
300
300
300
340.11493
318.33492
303.94875
299.45552
299.45672
299.89236
300.00309
300.00432
300.00051
299.99997
299.99999
300
300
300
300
300
300
300
300
300
300
300
300
300
300
300
300
300
300
300
300
300
300
300
300
300
300
300
300
300
340.28512
319.31243
304.74912
299.68122
299.42442
299.85975
299.99778
300.00498
300.00081
299.99999
299.99998
300
300
300
300
300
300
300
300
300
300
300
300
300
300
300
300
300
300
300
300
300
300
300
300
300
300
300
300
300
340.42908
320.16609
305.5154
299.93777
299.41053
299.82724
299.99068
300.00532
300.00116
300.00002
299.99998
300
300
300
300
300
300
300
300
300
300
300
300
300
300
300
300
300
300
300
300
300
300
300
300
300
300
300
300
300
340.55213
320.91285
306.24297
300.21736
299.41501
299.79628
299.98197
300.00524
300.00153
300.00008
299.99998
300
300
300
300
300
300
300
300
300
300
300
300
300
300
300
300
300
300
300
300
300
300
300
300
300
300
300
300
300
340.65553
321.56519
306.92887
300.5131
299.43714
299.76809
299.97196
300.00466
300.00189
300.00016
299.99998
299.99999
300
300
300
300
300
300
300
300
300
300
300
300
300
300
300
300
300
300
300
300
300
300
300
300
300
300
300
300
340.73973
322.13176
307.57086
300.81888
299.4757
299.74368
299.961
300.00356
300.0022
300.00025
299.99998
299.99999
300
300
300
300
300
300
300
300
300
300
300
300
300
300
300
300
300
300
300
300
300
300
300
300
300
300
300
300
340.8051
322.61811
308.16688
301.12924
299.52914
299.72381
299.94948
300.00192
300.00245
300.00037
299.99999
299.99999
300
300
300
300
300
300
300
300
300
300
300
300
300
300
300
300
300
300
300
300
300
300
300
300
300
300
300
300
340.85169
323.02742
308.71469
301.43921
299.59568
299.70903
299.93781
299.99977
300.0026
300.00049
300
299.99999
300
300
300
300
300
300
300
300
300
300
300
300
300
300
300
300
300
300
300
300
300
300
300
300
300
300
300
300
340.87904
323.36116
309.21176
301.74417
299.67337
299.69967
299.92638
299.99716
300.00263
300.00061
300.00002
299.99999
300
300
300
300
300
300
300
300
300
300
300
300
300
300
300
300
300
300
300
300
300
300
300
300
300
300
300
300
340.88668
323.6198
309.65531
302.03975
299.76014
299.69586
299.91555
299.99417
300.00253
300.00072
300.00005
299.99999
300
300
300
300
300
300
300
300
300
300
300
300
300
300
300
300
300
300
300
300
300
300
300
300
300
300
300
300
340.87485
323.80366
310.04251
302.32186
299.85385
299.69755
299.90566
299.99088
300.00227
300.00083
300.00008
299.99999
300
300
300
300
300
300
300
300
300
300
300
300
300
300
300
300
300
300
300
300
300
300
300
300
300
300
300
300
340.84503
323.91392
310.37076
302.58666
299.95231
299.70454
299.89699
299.9874
300.00188
300.00091
300.00011
299.99999
300
300
300
300
300
300
300
300
300
300
300
300
300
300
300
300
300
300
300
300
300
300
300
300
300
300
300
300
340.80018
323.9535
310.63822
302.83073
300.05335
299.71643
299.88973
299.98385
300.00135
300.00097
300.00015
300
300
300
300
300
300
300
300
300
300
300
300
300
300
300
300
300
300
300
300
300
300
300
300
300
300
300
300
300
340.74452
323.9279
310.84422
303.05116
300.15484
299.73272
299.88403
299.98031
300.00069
300.001
300.00018
300
300
300
300
300
300
300
300
300
300
300
300
300
300
300
300
300
300
300
300
300
300
300
300
300
300
300
300
300
340.68309
323.84596
310.98985
303.24574
300.25481
299.7528
299.87997
299.97689
299.99993
300.00099
300.00021
300.00001
300
300
300
300
300
300
300
300
300
300
300
300
300
300
300
300
300
300
300
300
300
300
300
300
300
300
300
300
340.62117
323.72023
311.07842
303.41315
300.35153
299.77604
299.87759
299.97369
299.99909
300.00095
300.00024
300.00002
300
300
300
300
300
300
300
300
300
300
300
300
300
300
300
300
300
300
300
300
300
300
300
300
300
300
300
300
340.56352
323.56675
311.11584
303.55314
300.44359
299.80184
299.8769
299.97079
299.99819
300.00087
300.00026
300.00003
300
300
300
300
300
300
300
300
300
300
300
300
300
300
300
300
300
300
300
300
300
300
300
300
300
300
300
300
340.51364
323.40348
311.11064
303.66666
300.52994
299.82963
299.87789
299.96828
299.99727
300.00076
300.00028
300.00003
300
300
300
300
300
300
300
300
300
300
300
300
300
300
300
300
300
300
300
300
300
300
300
300
300
300
300
300
340.47326
323.24756
311.07349
303.75589
300.60986
299.85876
299.88044
299.96619
299.99634
300.00061
300.00029
300.00004
300
300
300
300
300
300
300
300
300
300
300
300
300
300
300
300
300
300
300
300
300
300
300
300
300
300
300
300
340.44224
323.11201
311.0161
303.82409
300.68293
299.88846
299.88426
299.9645
299.99542
300.00044
300.00029
300.00005
300
300
300
300
300
300
300
300
300
300
300
300
300
300
300
300
300
300
300
300
300
300
300
300
300
300
300
300
340.41887
323.0033
310.94952
303.87523
300.74903
299.9178
299.88885
299.9631
299.99452
300.00026
300.00029
300.00006
300
300
300
300
300
300
300
300
300
300
300
300
300
300
300
300
300
300
300
300
300
300
300
300
300
300
300
300
340.40061
322.92061
310.88238
303.91337
300.80828
299.94583
299.89359
299.96181
299.99361
300.00006
300.00029
300.00007
300.00001
300
300
300
300
300
300
300
300
300
300
300
300
300
300
300
300
300
300
300
300
300
300
300
300
300
300
300
340.38482
322.85733
310.81939
303.94191
300.86111
299.97183
299.89792
299.96041
299.99268
299.99987
300.00029
300.00008
300.00001
300
300
300
300
300
300
300
300
300
300
300
300
300
300
300
300
300
300
300
300
300
300
300
300
300
300
300
340.36947
322.80413
310.7609
303.96294
300.90814
299.99568
299.90162
299.95882
299.99169
299.99967
300.0003
300.00009
300.00001
300
300
300
300
300
300
300
300
300
300
300
300
300
300
300
300
300
300
300
300
300
300
300
300
300
300
300
340.35347
322.75236
310.70364
303.97684
300.95008
300.01797
299.90501
299.95713
299.99066
299.99946
300.0003
300.0001
300.00001
300
300
300
300
300
300
300
300
300
300
300
300
300
300
300
300
300
300
300
300
300
300
300
300
300
300
300
340.33671
322.69659
310.64272
303.98253
300.9875
300.03991
299.90903
299.95574
299.98968
299.99925
300.00031
300.00011
300.00002
300
300
300
300
300
300
300
300
300
300
300
300
300
300
300
300
300
300
300
300
300
300
300
300
300
300
300
340.31979
322.63555
310.57388
303.9781
301.02058
300.06287
299.91495
299.95523
299.98888
299.99904
300.00031
300.00013
300.00002
300
300
300
300
300
300
300
300
300
300
300
300
300
300
300
300
300
300
300
300
300
300
300
300
300
300
300
340.30363
322.57139
310.49551
303.96195
301.049
300.08784
299.92392
299.95624
299.98846
299.99885
300.00029
300.00013
300.00002
300
300
300
300
300
300
300
300
300
300
300
300
300
300
300
300
300
300
300
300
300
300
300
300
300
300
300
340.28911
322.50819
310.40934
303.93371
301.07212
300.1149
299.93649
299.9592
299.98858
299.99871
300.00025
300.00013
300.00002
300
300
300
300
300
300
300
300
300
300
300
300
300
300
300
300
300
300
300
300
300
300
300
300
300
300
300
340.27684
322.4502
310.31995
303.89482
301.08922
300.14309
299.95233
299.96414
299.9893
299.99864
300.00019
300.00012
300.00002
300
300
300
300
300
300
300
300
300
300
300
300
300
300
300
300
300
300
300
300
300
300
300
300
300
300
300
340.26706
322.40056
310.23326
303.8484
301.0999
300.17068
299.97019
299.97062
299.99058
299.99866
300.00013
300.0001
300.00002
300
300
300
300
300
300
300
300
300
300
300
300
300
300
300
300
300
300
300
300
300
300
300
300
300
300
300
340.2597
322.36079
310.15481
303.79859
301.10431
300.1957
299.98837
299.97789
299.99224
299.99876
300.00006
300.00008
300.00002
300
300
300
300
300
300
300
300
300
300
300
300
300
300
300
300
300
300
300
300
300
300
300
300
300
300
300
340.25444
322.33084
310.08849
303.74963
301.10322
300.21655
300.00516
299.98511
299.99405
299.99894
300.00001
300.00006
300.00001
300
300
300
300
300
300
300
300
300
300
300
300
300
300
300
300
300
300
300
300
300
300
300
300
300
300
300
340.25086
322.30948
310.03591
303.705
301.09794
300.23237
300.01931
299.99155
299.99579
299.99914
299.99997
300.00004
300.00001
300
300
300
300
300
300
300
300
300
300
300
300
300
300
300
300
300
300
300
300
300
300
300
300
300
300
300
340.24852
322.29495
309.9966
303.66693
301.09001
300.24316
300.03023
299.9968
299.99729
299.99936
299.99996
300.00002
300.00001
300
300
300
300
300
300
300
300
300
300
300
300
300
300
300
300
300
300
300
300
300
300
300
300
300
300
300
340.24703
322.28535
309.96862
303.63631
301.08096
300.24959
300.03797
300.00073
299.99848
299.99955
299.99995
300.00001
300
300
300
300
300
300
300
300
300
300
300
300
300
300
300
300
300
300
300
300
300
300
300
300
300
300
300
300
340.24607
322.27904
309.94937
303.61285
301.07202
300.25274
300.043
300.00345
299.99935
299.99971
299.99996
300
300
300
300
300
300
300
300
300
300
300
300
300
300
300
300
300
300
300
300
300
300
300
300
300
300
300
300
300
340.24543
322.27476
309.93623
303.5955
301.064
300.25371
300.04599
300.00522
299.99995
299.99983
299.99996
300
300
300
300
300
300
300
300
300
300
300
300
300
300
300
300
300
300
300
300
300
300
300
300
300
300
300
300
300
340.24496
322.27165
309.92705
303.58292
301.05729
300.25349
300.04763
300.0063
300.00034
299.99992
299.99997
300
300
300
300
300
300
300
300
300
300
300
300
300
300
300
300
300
300
300
300
300
300
300
300
300
300
300
300
300
340.24458
322.2692
309.92027
303.57375
301.05196
300.25274
300.04845
300.00693
300.00058
299.99998
299.99998
300
300
300
300
300
300
300
300
300
300
300
300
300
300
300
300
300
300
300
300
300
300
300
300
300
300
300
300
300
340.24425
322.26712
309.9149
303.56689
301.04782
300.25189
300.04884
300.0073
300.00073
300.00002
299.99999
300
300
300
300
300
300
300
300
300
300
300
300
300
300
300
300
300
300
300
300
300
300
300
300
300
300
300
300
300
340.24396
322.26529
309.91039
303.56154
301.04464
300.25114
300.04903
300.00753
300.00083
300.00004
299.99999
300
300
300
300
300
300
300
300
300
300
300
300
300
300
300
300
300
300
300
300
300
300
300
300
300
300
300
300
300
340.24369
322.26365
309.90647
303.55718
301.04216
300.25055
300.04914
300.00768
300.00089
300.00006
300
300
300
300
300
300
300
300
300
300
300
300
300
300
300
300
300
300
300
300
300
300
300
300
300
300
300
300
300
300
340.24344
322.26219
309.90303
303.5535
301.04018
300.2501
300.04924
300.00779
300.00094
300.00007
300
300
300
300
300
300
300
300
300
300
300
300
300
300
300
300
300
300
300
300
300
300
300
300
300
300
300
300
300
300
340.24321
322.2609
309.90002
303.55035
301.03855
300.24976
300.04933
300.00789
300.00098
300.00008
300
300
300
300
300
300
300
300
300
300
300
300
300
300
300
300
300
300
300
300
300
300
300
300
300
300
300
300
300
300
340.24302
322.25976
309.89739
303.54763
301.03718
300.24949
300.04941
300.00797
300.00101
300.00009
300
300
300
300
300
300
300
300
300
300
300
300
300
300
300
300
300
300
300
300
300
300
300
300
300
300
300
300
300
300
340.24284
322.25876
309.89512
303.54529
301.03602
300.24928
300.04949
300.00804
300.00104
300.0001
300.00001
300
300
300
300
300
300
300
300
300
300
300
300
300
300
300
300
300
300
300
300
300
300
300
300
300
300
300
300
300
340.24268
322.25789
309.89315
303.54327
301.03502
300.2491
300.04956
300.0081
300.00106
300.00011
300.00001
300
300
300
300
300
300
300
300
300
300
300
300
300
300
300
300
300
300
300
300
300
300
300
300
300
300
300
300
300
340.24255
322.25713
309.89145
303.54154
301.03417
300.24894
300.04962
300.00815
300.00108
300.00011
300.00001
300
300
300
300
300
300
300
300
300
300
300
300
300
300
300
300
300
300
300
300
300
300
300
300
300
300
300
300
300
340.24243
322.25647
309.88999
303.54005
301.03343
300.24881
300.04966
300.00819
300.0011
300.00012
300.00001
300
300
300
300
300
300
300
300
300
300
300
300
300
300
300
300
300
300
300
300
300
300
300
300
300
300
300
300
300
340.24233
322.25589
309.88872
303.53876
301.0328
300.24869
300.0497
300.00823
300.00111
300.00012
300.00001
300
300
300
300
300
300
300
300
300
300
300
300
300
300
300
300
300
300
300
300
300
300
300
300
300
300
300
300
300
340.24225
322.2554
309.88763
303.53766
301.03226
300.24859
300.04973
300.00826
300.00113
300.00012
300.00001
300
300
300
300
300
300
300
300
300
300
300
300
300
300
300
300
300
300
300
300
300
300
300
300
300
300
300
300
300
340.24218
322.25497
309.88668
303.53671
301.03179
300.2485
300.04976
300.00829
300.00114
300.00013
300.00001
300
300
300
300
300
300
300
300
300
300
300
300
300
300
300
300
300
300
300
300
300
300
300
300
300
300
300
300
300
340.24212
322.25461
309.88586
303.53588
301.03138
300.24842
300.04978
300.00831
300.00115
300.00013
300.00001
300
300
300
300
300
300
300
300
300
300
300
300
300
300
300
300
300
300
300
300
300
300
300
300
300
300
300
300
300
340.24208
322.2543
309.88515
303.53517
301.03104
300.24835
300.0498
300.00833
300.00115
300.00013
300.00001
300
300
300
300
300
300
300
300
300
300
300
300
300
300
300
300
300
300
300
300
300
300
300
300
300
300
300
300
300
340.24205
322.25405
309.88454
303.53455
301.03074
300.2483
300.04982
300.00834
300.00116
300.00013
300.00001
300
300
300
300
300
300
300
300
300
300
300
300
300
300
300
300
300
300
300
300
300
300
300
300
300
300
300
300
300
340.24204
322.25385
309.88402
303.53402
301.03047
300.24825
300.04983
300.00836
300.00116
300.00013
300.00001
300
300
300
300
300
300
300
300
300
300
300
300
300
300
300
300
300
300
300
300
300
300
300
300
300
300
300
300
300
340.24203
322.25369
309.88359
303.53357
301.03025
300.2482
300.04985
300.00837
300.00117
300.00013
300.00001
300
300
300
300
300
300
300
300
300
300
300
300
300
300
300
300
300
300
300
300
300
300
300
300
300
300
300
300
300
340.24204
322.25357
309.88322
303.53318
301.03006
300.24817
300.04986
300.00838
300.00117
300.00013
300.00001
300
300
300
300
300
300
300
300
300
300
300
300
300
300
300
300
300
300
300
300
300
300
300
300
300
300
300
300
300
340.24206
322.2535
309.88293
303.53285
301.02989
300.24814
300.04987
300.00839
300.00118
300.00014
300.00001
300
300
300
300
300
300
300
300
300
300
300
300
300
300
300
300
300
300
300
300
300
300
300
300
300
300
300
300
300
340.2421
322.25347
309.8827
303.53257
301.02975
300.24811
300.04988
300.0084
300.00118
300.00014
300.00001
300
300
300
300
300
300
300
300
300
300
300
300
300
300
300
300
300
300
300
300
300
300
300
300
300
300
300
300
300
340.24215
322.25348
309.88252
303.53235
301.02963
300.24809
300.04988
300.0084
300.00118
300.00014
300.00001
300
300
300
300
300
300
300
300
300
300
300
300
300
300
300
300
300
300
300
300
300
300
300
300
300
300
300
300
300
340.24221
322.25353
309.8824
303.53217
301.02954
300.24807
300.04989
300.00841
300.00118
300.00014
300.00001
300
300
300
300
300
300
300
300
300
300
300
300
300
300
300
300
300
300
300
300
300
300
300
300
300
300
300
300
300
340.24229
322.25362
309.88234
303.53202
301.02946
300.24805
300.04989
300.00841
300.00119
300.00014
300.00001
300
300
300
300
300
300
300
300
300
300
300
300
300
300
300
300
300
300
300
300
300
300
300
300
300
300
300
300
300
340.24238
322.25375
309.88233
303.53192
301.02939
300.24804
300.0499
300.00842
300.00119
300.00014
300.00001
300
300
300
300
300
300
300
300
300
300
300
300
300
300
300
300
300
300
300
300
300
300
300
300
300
300
300
300
300
340.24249
322.25393
309.88237
303.53186
301.02935
300.24803
300.04991
300.00842
300.00119
300.00014
300.00001
300
300
300
300
300
300
300
300
300
300
300
300
300
300
300
300
300
300
300
300
300
300
300
300
300
300
300
300
300
340.24261
322.25415
309.88246
303.53183
301.02931
300.24803
300.04991
300.00843
300.00119
300.00014
300.00001
300
300
300
300
300
300
300
300
300
300
300
300
300
300
300
300
300
300
300
300
300
300
300
300
300
300
300
300
300
340.24276
322.25441
309.8826
303.53184
301.0293
300.24803
300.04991
300.00843
300.00119
300.00014
300.00001
300
300
300
300
300
300
300
300
300
300
300
300
300
300
300
300
300
300
300
300
300
300
300
300
300
300
300
300
300
340.24293
322.25473
309.88279
303.53188
301.02929
300.24803
300.04992
300.00843
300.00119
300.00014
300.00001
300
300
300
300
300
300
300
300
300
300
300
300
300
300
300
300
300
300
300
300
300
300
300
300
300
300
300
300
300
340.24312
322.2551
309.88304
303.53196
301.0293
300.24803
300.04992
300.00843
300.00119
300.00014
300.00001
300
300
300
300
300
300
300
300
300
300
300
300
300
300
300
300
300
300
300
300
300
300
300
300
300
300
300
300
300
340.24333
322.25553
309.88335
303.53207
301.02933
300.24803
300.04992
300.00844
300.00119
300.00014
300.00001
300
300
300
300
300
300
300
300
300
300
300
300
300
300
300
300
300
300
300
300
300
300
300
300
300
300
300
300
300
340.24357
322.25602
309.88373
303.53222
301.02936
300.24804
300.04993
300.00844
300.0012
300.00014
300.00001
300
300
300
300
300
300
300
300
300
300
300
300
300
300
300
300
300
300
300
300
300
300
300
300
300
300
300
300
300
340.24385
322.25658
309.88416
303.53241
301.02942
300.24806
300.04993
300.00844
300.0012
300.00014
300.00001
300
300
300
300
300
300
300
300
300
300
300
300
300
300
300
300
300
300
300
300
300
300
300
300
300
300
300
300
300
340.24416
322.25722
309.88467
303.53264
301.02948
300.24807
300.04994
300.00844
300.0012
300.00014
300.00001
300
300
300
300
300
300
300
300
300
300
300
300
300
300
300
300
300
300
300
300
300
300
300
300
300
300
300
300
300
340.24452
322.25794
309.88526
303.53291
301.02957
300.24809
300.04994
300.00844
300.0012
300.00014
300.00001
300
300
300
300
300
300
300
300
300
300
300
300
300
300
300
300
300
300
300
300
300
300
300
300
300
300
300
300
300
340.24492
322.25877
309.88593
303.53323
301.02967
300.24811
300.04994
300.00844
300.0012
300.00014
300.00001
300
300
300
300
300
300
300
300
300
300
300
300
300
300
300
300
300
300
300
300
300
300
300
300
300
300
300
300
300
340.24537
322.2597
309.8867
303.5336
301.02978
300.24814
300.04995
300.00844
300.0012
300.00014
300.00001
300
300
300
300
300
300
300
300
300
300
300
300
300
300
300
300
300
300
300
300
300
300
300
300
300
300
300
300
300
340.24589
322.26075
309.88757
303.53403
301.02992
300.24816
300.04995
300.00844
300.0012
300.00014
300.00001
300
300
300
300
300
300
300
300
300
300
300
300
300
300
300
300
300
300
300
300
300
300
300
300
300
300
300
300
300
340.24648
322.26195
309.88857
303.53452
301.03007
300.2482
300.04995
300.00844
300.0012
300.00014
300.00001
300
300
300
300
300
300
300
300
300
300
300
300
300
300
300
300
300
300
300
300
300
300
300
300
300
300
300
300
300
340.24716
322.26332
309.88971
303.53508
301.03025
300.24824
300.04996
300.00844
300.0012
300.00014
300.00001
300
300
300
300
300
300
300
300
300
300
300
300
300
300
300
300
300
300
300
300
300
300
300
300
300
300
300
300
300
340.24794
322.26489
309.891
303.53572
301.03046
300.24828
300.04996
300.00844
300.0012
300.00014
300.00001
300
300
300
300
300
300
300
300
300
300
300
300
300
300
300
300
300
300
300
300
300
300
300
300
300
300
300
300
300
340.24886
322.26669
309.89249
303.53645
301.03069
300.24833
300.04997
300.00844
300.0012
300.00014
300.00001
300
300
300
300
300
300
300
300
300
300
300
300
300
300
300
300
300
300
300
300
300
300
300
300
300
300
300
300
300
340.24995
322.26879
309.89419
303.53729
301.03096
300.24838
300.04997
300.00844
300.00119
300.00014
300.00001
300
300
300
300
300
300
300
300
300
300
300
300
300
300
300
300
300
300
300
300
300
300
300
300
300
300
300
300
300
340.25127
322.27123
309.89615
303.53824
301.03126
300.24845
300.04998
300.00844
300.00119
300.00014
300.00001
300
300
300
300
300
300
300
300
300
300
300
300
300
300
300
300
300
300
300
300
300
300
300
300
300
300
300
300
300
340.25299
322.27429
309.89853
303.53937
301.03162
300.24852
300.04999
300.00844
300.00119
300.00014
300.00001
300
300
300
300
300
300
300
300
300
300
300
300
300
300
300
300
300
300
300
300
300
300
300
300
300
300
300
300
300
340.25504
322.27736
309.90083
303.54045
301.03196
300.24858
300.04999
300.00843
300.00119
300.00014
300.00001
300
300
300
300
300
300
300
300
300
300
300
300
300
300
300
300
300
300
300
300
300
300
300
300
300
300
300
300
300
340.26012
322.28531
309.90615
303.54283
301.03269
300.24873
300.05
300.00843
300.00119
300.00014
300.00001
300
300
300
300
300
300
300
300
300
300
300
300
300
300
300
300
300
300
300
300
300
300
300
300
300
300
300
300
300
)
;

boundaryField
{
    wall
    {
        type            fixedValue;
        value           uniform 350;
    }
    sides
    {
        type            zeroGradient;
    }
    frontAndBack
    {
        type            empty;
    }
    inlet
    {
        type            fixedValue;
        value           uniform 300;
    }
    outlet
    {
        type            zeroGradient;
    }
}


// ************************************************************************* //
