/*--------------------------------*- C++ -*----------------------------------*\
  =========                 |
  \\      /  F ield         | OpenFOAM: The Open Source CFD Toolbox
   \\    /   O peration     | Website:  https://openfoam.org
    \\  /    A nd           | Version:  10
     \\/     M anipulation  |
\*---------------------------------------------------------------------------*/
FoamFile
{
    format      ascii;
    class       volVectorField;
    location    "0.08";
    object      U;
}
// * * * * * * * * * * * * * * * * * * * * * * * * * * * * * * * * * * * * * //

dimensions      [0 1 -1 0 0 0 0];

internalField   nonuniform List<vector> 
4000
(
(0 0.018629628 0.47773546)
(0 0.023495399 0.50885844)
(0 0.0081535212 0.50052572)
(0 0.0056013719 0.50033673)
(0 0.0042404797 0.50025755)
(0 0.0032405077 0.50016898)
(0 0.002541807 0.50011963)
(0 0.0020407174 0.50009002)
(0 0.0016633587 0.50006965)
(0 0.001369862 0.5000552)
(0 0.0011358276 0.50004476)
(0 0.00094489453 0.50003707)
(0 0.00078578932 0.50003131)
(0 0.00065051904 0.50002696)
(0 0.00053323991 0.50002366)
(0 0.00042955707 0.50002117)
(0 0.0003360701 0.50001931)
(0 0.00025006487 0.50001797)
(0 0.00016929707 0.50001707)
(0 9.1833332e-05 0.50001655)
(0 1.5929662e-05 0.5000164)
(0 -6.0077812e-05 0.5000166)
(0 -0.00013786352 0.50001716)
(0 -0.00021920406 0.50001812)
(0 -0.00030609121 0.50001953)
(0 -0.00040086164 0.50002149)
(0 -0.00050636951 0.50002412)
(0 -0.0006262263 0.5000276)
(0 -0.00076514934 0.50003222)
(0 -0.00092949247 0.50003836)
(0 -0.0011280984 0.50004665)
(0 -0.0013736659 0.50005805)
(0 -0.0016849924 0.50007401)
(0 -0.0020924836 0.50009704)
(0 -0.0026521366 0.50013485)
(0 -0.0034463259 0.50020256)
(0 -0.004540118 0.50027203)
(0 -0.0065649486 0.50043447)
(0 -0.017638687 0.5067511)
(0 -0.013579402 0.4797615)
(0 0.037411024 0.44799578)
(0 0.050911424 0.53232329)
(0 0.021925094 0.50804352)
(0 0.016093402 0.50357586)
(0 0.012371013 0.50242402)
(0 0.0094703261 0.50162297)
(0 0.0074755961 0.50115602)
(0 0.0060262156 0.50086481)
(0 0.0049229447 0.50066644)
(0 0.0040611602 0.50052706)
(0 0.003371826 0.50042676)
(0 0.0028079271 0.50035297)
(0 0.0023370307 0.50029783)
(0 0.0019360001 0.50025621)
(0 0.0015878274 0.50022468)
(0 0.0012796741 0.50020086)
(0 0.0010015758 0.50018312)
(0 0.00074555761 0.50017034)
(0 0.00050501056 0.50016175)
(0 0.00027423098 0.50015685)
(0 4.8065879e-05 0.50015539)
(0 -0.0001783987 0.50015727)
(0 -0.00041010801 0.50016263)
(0 -0.00065230944 0.50017178)
(0 -0.00091087568 0.50018525)
(0 -0.0011926829 0.50020391)
(0 -0.0015061084 0.50022899)
(0 -0.0018617203 0.50026229)
(0 -0.0022732715 0.50030645)
(0 -0.0027591871 0.50036536)
(0 -0.003344943 0.50044499)
(0 -0.0040670378 0.50055481)
(0 -0.0049787095 0.50070996)
(0 -0.0061600119 0.50093605)
(0 -0.0077599844 0.50129471)
(0 -0.01005503 0.5019122)
(0 -0.013040929 0.50282954)
(0 -0.017360482 0.50608368)
(0 -0.03869486 0.52526386)
(0 -0.027863597 0.45025753)
(0 0.039855426 0.40989253)
(0 0.061351815 0.5493168)
(0 0.031901068 0.52188017)
(0 0.02427989 0.51008576)
(0 0.019113813 0.50659084)
(0 0.014896829 0.5045279)
(0 0.011927698 0.50326951)
(0 0.0096953813 0.50245499)
(0 0.0079636528 0.50189638)
(0 0.0065966907 0.50150289)
(0 0.0054941327 0.50121871)
(0 0.0045863344 0.50100911)
(0 0.0038244578 0.50085223)
(0 0.0031730174 0.50073368)
(0 0.0026055984 0.50064375)
(0 0.0021020749 0.50057578)
(0 0.0016467037 0.50052513)
(0 0.0012268032 0.5004886)
(0 0.00083180849 0.50046403)
(0 0.00045256418 0.50045002)
(0 8.0774687e-05 0.50044582)
(0 -0.00029147759 0.5004512)
(0 -0.00067216037 0.50046651)
(0 -0.001069715 0.50049264)
(0 -0.0014935562 0.50053113)
(0 -0.0019546563 0.50058438)
(0 -0.0024663029 0.50065591)
(0 -0.0030451318 0.5007508)
(0 -0.0037125936 0.50087649)
(0 -0.0044970708 0.50104391)
(0 -0.0054370879 0.50126963)
(0 -0.0065868259 0.50157984)
(0 -0.0080237466 0.50201673)
(0 -0.0098522829 0.50264881)
(0 -0.012245412 0.50361579)
(0 -0.015591925 0.50520368)
(0 -0.019755704 0.50786371)
(0 -0.025064759 0.51641411)
(0 -0.047304613 0.5391381)
(0 -0.030803753 0.41499127)
(0 0.034750729 0.36187163)
(0 0.063728603 0.55460381)
(0 0.039250111 0.53746576)
(0 0.02996754 0.51849824)
(0 0.023993154 0.51198123)
(0 0.019159921 0.50849875)
(0 0.015618755 0.50626001)
(0 0.01284069 0.50474816)
(0 0.010635797 0.50369454)
(0 0.0088671028 0.50294399)
(0 0.0074213911 0.50239697)
(0 0.0062188461 0.50199098)
(0 0.0052015205 0.5016857)
(0 0.0043260307 0.50145419)
(0 0.0035594469 0.50127807)
(0 0.0028762835 0.50114465)
(0 0.0022563415 0.50104506)
(0 0.0016831752 0.50097316)
(0 0.0011429644 0.50092473)
(0 0.00062365206 0.50089709)
(0 0.00011426306 0.50088877)
(0 -0.00039569885 0.50089936)
(0 -0.00091679522 0.50092949)
(0 -0.0014601811 0.5009809)
(0 -0.0020382306 0.50105659)
(0 -0.0026652562 0.50116116)
(0 -0.0033584193 0.50130135)
(0 -0.0041389402 0.50148689)
(0 -0.0050337656 0.50173182)
(0 -0.0060778729 0.50205667)
(0 -0.007317367 0.502492)
(0 -0.0088147523 0.50308489)
(0 -0.010657741 0.50391019)
(0 -0.012953411 0.50508449)
(0 -0.015837622 0.50680747)
(0 -0.019713892 0.50947541)
(0 -0.024553461 0.51428837)
(0 -0.030921448 0.52824562)
(0 -0.050152793 0.54412518)
(0 -0.028371718 0.37260006)
(0 0.027378495 0.31507436)
(0 0.062170216 0.55033966)
(0 0.044428178 0.55146077)
(0 0.033816818 0.52748963)
(0 0.027298918 0.5177272)
(0 0.022290581 0.51291792)
(0 0.01847573 0.50972343)
(0 0.015372866 0.50747954)
(0 0.012858948 0.5058825)
(0 0.010804745 0.50472567)
(0 0.0090986611 0.50387159)
(0 0.0076616528 0.50323174)
(0 0.0064335479 0.50274716)
(0 0.0053677579 0.50237761)
(0 0.0044280886 0.50209525)
(0 0.0035859434 0.50188059)
(0 0.0028182599 0.50171993)
(0 0.0021059909 0.50160367)
(0 0.0014329422 0.50152524)
(0 0.00078485768 0.50148041)
(0 0.00014867989 0.50146686)
(0 -0.00048811415 0.50148395)
(0 -0.0011381229 0.50153267)
(0 -0.0018145978 0.50161574)
(0 -0.0025321344 0.50173788)
(0 -0.0033074453 0.50190627)
(0 -0.0041603109 0.50213137)
(0 -0.0051147953 0.50242812)
(0 -0.0062008601 0.50281786)
(0 -0.0074565305 0.50333133)
(0 -0.0089303709 0.5040133)
(0 -0.01068516 0.50493045)
(0 -0.012808128 0.50618579)
(0 -0.015403764 0.50793457)
(0 -0.018560279 0.51040371)
(0 -0.022640042 0.51406538)
(0 -0.027925199 0.52115722)
(0 -0.035430163 0.53932207)
(0 -0.05025091 0.54168799)
(0 -0.024005766 0.33092171)
(0 0.019789597 0.27553471)
(0 0.057811881 0.53993581)
(0 0.0471143 0.56256511)
(0 0.036252324 0.53659589)
(0 0.029417868 0.52351015)
(0 0.024460179 0.51739898)
(0 0.020563469 0.51334943)
(0 0.017307192 0.51042331)
(0 0.014622546 0.50829648)
(0 0.012388058 0.50672839)
(0 0.010501978 0.50555439)
(0 0.0088920743 0.50466528)
(0 0.0075005016 0.50398605)
(0 0.0062812 0.50346442)
(0 0.0051975332 0.50306362)
(0 0.0042198743 0.50275758)
(0 0.0033238533 0.50252771)
(0 0.0024890061 0.50236091)
(0 0.0016976919 0.50224814)
(0 0.00093421288 0.50218355)
(0 0.00018408474 0.50216393)
(0 -0.00056663053 0.50218837)
(0 -0.0013319516 0.50225827)
(0 -0.0021265531 0.50237739)
(0 -0.0029664658 0.5025522)
(0 -0.0038698305 0.50279257)
(0 -0.0048578015 0.50311269)
(0 -0.0059556551 0.50353268)
(0 -0.0071941898 0.50408082)
(0 -0.0086116286 0.5047972)
(0 -0.010255596 0.50573901)
(0 -0.012184796 0.50698875)
(0 -0.014479866 0.50866985)
(0 -0.017243437 0.5109645)
(0 -0.020530169 0.51411604)
(0 -0.024636608 0.51874009)
(0 -0.030167351 0.52823105)
(0 -0.038254057 0.54872311)
(0 -0.048221439 0.53424197)
(0 -0.018975406 0.29448023)
(0 0.013033485 0.24301301)
(0 0.051588302 0.52551631)
(0 0.047390488 0.57027143)
(0 0.037459897 0.54550036)
(0 0.03056993 0.52928522)
(0 0.025798689 0.52179289)
(0 0.021970459 0.51697642)
(0 0.01869732 0.5134412)
(0 0.015951487 0.51082358)
(0 0.013624435 0.50886312)
(0 0.011629437 0.50737637)
(0 0.0099036184 0.5062382)
(0 0.0083940854 0.50536076)
(0 0.0070578573 0.50468184)
(0 0.0058599277 0.50415697)
(0 0.0047712963 0.50375418)
(0 0.0037676145 0.50345042)
(0 0.0028280673 0.5032293)
(0 0.0019344377 0.50307941)
(0 0.0010703214 0.50299336)
(0 0.00022045868 0.50296705)
(0 -0.0006298898 0.50299934)
(0 -0.0014955451 0.50309199)
(0 -0.0023919417 0.50324976)
(0 -0.0033357915 0.50348085)
(0 -0.0043457677 0.50379763)
(0 -0.0054433068 0.50421781)
(0 -0.0066535588 0.50476616)
(0 -0.0080065099 0.50547708)
(0 -0.0095385636 0.50639859)
(0 -0.011294323 0.50759806)
(0 -0.013326516 0.50917065)
(0 -0.01570509 0.51125468)
(0 -0.018526342 0.51405035)
(0 -0.021822762 0.51782766)
(0 -0.025833881 0.52347053)
(0 -0.031400885 0.53535522)
(0 -0.039272202 0.55591418)
(0 -0.044543482 0.52325868)
(0 -0.013989932 0.2633974)
(0 0.0077192646 0.21613516)
(0 0.044583521 0.50849271)
(0 0.045861286 0.57444853)
(0 0.037653848 0.55370689)
(0 0.030934274 0.53494393)
(0 0.026425881 0.52601391)
(0 0.022784409 0.52050613)
(0 0.01960322 0.51644144)
(0 0.016882994 0.51338272)
(0 0.014535579 0.51106113)
(0 0.01249229 0.50928075)
(0 0.010700733 0.50790418)
(0 0.0091146928 0.50683366)
(0 0.0076959378 0.50599918)
(0 0.0064124897 0.50535002)
(0 0.0052371884 0.50484924)
(0 0.0041467469 0.50446999)
(0 0.00312088 0.50419295)
(0 0.0021415484 0.50400465)
(0 0.0011923025 0.50389625)
(0 0.000257708 0.50386286)
(0 -0.00067720245 0.50390312)
(0 -0.0016274766 0.50401911)
(0 -0.0026087001 0.50421653)
(0 -0.0036375941 0.50450513)
(0 -0.0047325975 0.50489951)
(0 -0.0059145377 0.50542044)
(0 -0.0072074052 0.50609669)
(0 -0.0086391891 0.5069678)
(0 -0.010243048 0.50808821)
(0 -0.012059009 0.50953347)
(0 -0.014132756 0.51140902)
(0 -0.016520952 0.51386422)
(0 -0.019306433 0.51710903)
(0 -0.022506692 0.52145701)
(0 -0.026340062 0.52816839)
(0 -0.031778994 0.54216927)
(0 -0.038793697 0.56056226)
(0 -0.039913436 0.50975741)
(0 -0.0095990625 0.23685266)
(0 0.0039529396 0.19430004)
(0 0.03762517 0.49018121)
(0 0.043211705 0.57538134)
(0 0.037085222 0.56077987)
(0 0.030714751 0.54032282)
(0 0.026494024 0.52998272)
(0 0.02310808 0.52385507)
(0 0.020093325 0.51934714)
(0 0.017463174 0.51590678)
(0 0.015152459 0.51326439)
(0 0.013110557 0.5112178)
(0 0.011295715 0.50962095)
(0 0.0096694211 0.50836905)
(0 0.0081991455 0.50738625)
(0 0.0068567999 0.50661707)
(0 0.0056178922 0.50602064)
(0 0.0044609529 0.50556702)
(0 0.0033669028 0.5052345)
(0 0.0023184895 0.50500782)
(0 0.0012997745 0.50487694)
(0 0.00029566817 0.50483629)
(0 -0.00070852216 0.50488429)
(0 -0.0017275662 0.50502334)
(0 -0.0027766758 0.50525992)
(0 -0.0038720181 0.5056051)
(0 -0.0050311792 0.50607537)
(0 -0.0062736892 0.50669403)
(0 -0.0076216163 0.50749312)
(0 -0.0091001366 0.50851626)
(0 -0.010738233 0.50982286)
(0 -0.012570248 0.51149465)
(0 -0.014634311 0.51364477)
(0 -0.016973563 0.51642966)
(0 -0.019653535 0.52006204)
(0 -0.022683783 0.52492033)
(0 -0.026297726 0.53269574)
(0 -0.031487685 0.54830075)
(0 -0.037252318 0.56268028)
(0 -0.034934499 0.49477159)
(0 -0.0060833241 0.21452201)
(0 0.0014981996 0.17703984)
(0 0.031191733 0.47171514)
(0 0.039969454 0.57363589)
(0 0.035969312 0.56651495)
(0 0.030097277 0.54530832)
(0 0.02616194 0.53365699)
(0 0.023052955 0.5269663)
(0 0.020244575 0.52209915)
(0 0.017746367 0.51834249)
(0 0.015513371 0.51542558)
(0 0.013510793 0.51314567)
(0 0.011706733 0.51135189)
(0 0.01007051 0.50993498)
(0 0.0085755426 0.50881525)
(0 0.0071980209 0.50793379)
(0 0.0059165977 0.50724691)
(0 0.0047121063 0.5067223)
(0 0.0035671475 0.50633639)
(0 0.0024657113 0.50607253)
(0 0.0013928063 0.5059197)
(0 0.00033410815 0.50587176)
(0 -0.00072438741 0.505927)
(0 -0.0017967563 0.50608804)
(0 -0.0028974118 0.50636201)
(0 -0.0040415245 0.50676102)
(0 -0.0052453633 0.50730309)
(0 -0.0065266744 0.50801348)
(0 -0.0079050992 0.5089267)
(0 -0.0094025298 0.5100894)
(0 -0.011043371 0.51156456)
(0 -0.012855836 0.51343803)
(0 -0.014870656 0.51582787)
(0 -0.017119025 0.51889364)
(0 -0.019649501 0.52284833)
(0 -0.022470713 0.52816244)
(0 -0.025848892 0.53695013)
(0 -0.030687647 0.55352581)
(0 -0.03501914 0.56256409)
(0 -0.030005376 0.4792485)
(0 -0.0034652074 0.19618487)
(0 2.3746888e-05 0.16360791)
(0 0.025526182 0.45386487)
(0 0.03650192 0.56983418)
(0 0.034476277 0.57089363)
(0 0.029220326 0.54984992)
(0 0.025560973 0.53703853)
(0 0.022720175 0.52982111)
(0 0.020132477 0.52466502)
(0 0.017789108 0.52065517)
(0 0.015659973 0.51751084)
(0 0.013723293 0.51503256)
(0 0.011955689 0.5130678)
(0 0.010333668 0.51150507)
(0 0.00883627 0.51026241)
(0 0.0074439471 0.50927881)
(0 0.0061386563 0.50850868)
(0 0.0049037726 0.50791811)
(0 0.00372386 0.5074822)
(0 0.0025844558 0.50718324)
(0 0.0014718294 0.50700949)
(0 0.00037273741 0.50695441)
(0 -0.00072581947 0.50701613)
(0 -0.0018369045 0.50719747)
(0 -0.0029738136 0.50750604)
(0 -0.0041504014 0.50795476)
(0 -0.0053813076 0.50856275)
(0 -0.0066822021 0.50935668)
(0 -0.0080700434 0.51037279)
(0 -0.0095632822 0.51165974)
(0 -0.011181796 0.51328278)
(0 -0.012947865 0.51533016)
(0 -0.014885406 0.5179224)
(0 -0.017015706 0.52121909)
(0 -0.019372978 0.5254366)
(0 -0.021971236 0.53116602)
(0 -0.02510785 0.54087657)
(0 -0.029508822 0.55775785)
(0 -0.032386919 0.56061771)
(0 -0.025376422 0.46388306)
(0 -0.0016303586 0.18138208)
(0 -0.00076959335 0.15318231)
(0 0.02072358 0.43706638)
(0 0.033058377 0.56453179)
(0 0.03274813 0.57399317)
(0 0.028182899 0.55392634)
(0 0.024788894 0.54014914)
(0 0.022192058 0.53242828)
(0 0.019822967 0.52703557)
(0 0.017643561 0.52282764)
(0 0.01563265 0.51949954)
(0 0.013778874 0.51685669)
(0 0.012065878 0.51474714)
(0 0.010476332 0.51305868)
(0 0.008994244 0.51170835)
(0 0.0076040302 0.51063406)
(0 0.006290863 0.50978916)
(0 0.0050406936 0.50913875)
(0 0.003840168 0.50865706)
(0 0.0026765404 0.50832571)
(0 0.0015375391 0.50813245)
(0 0.00041121488 0.50807043)
(0 -0.00071420525 0.50813771)
(0 -0.0018505489 0.50833722)
(0 -0.0030097789 0.50867691)
(0 -0.0042042317 0.50917025)
(0 -0.0054467435 0.50983708)
(0 -0.0067507844 0.510705)
(0 -0.0081305822 0.5118113)
(0 -0.0096012253 0.5132058)
(0 -0.011178398 0.51495496)
(0 -0.012879016 0.51714815)
(0 -0.014720951 0.51990649)
(0 -0.016717431 0.52338781)
(0 -0.018891878 0.52781891)
(0 -0.021269186 0.53393369)
(0 -0.024163859 0.5444421)
(0 -0.028065544 0.56099222)
(0 -0.029586163 0.5572449)
(0 -0.021199577 0.44911981)
(0 -0.00042087709 0.16952828)
(0 -0.0011183275 0.14506738)
(0 0.016774062 0.4215386)
(0 0.029793238 0.55819494)
(0 0.030901534 0.57593945)
(0 0.027057411 0.55752968)
(0 0.023917393 0.54301202)
(0 0.021533674 0.53480846)
(0 0.019370655 0.52921522)
(0 0.017354671 0.52485457)
(0 0.015467765 0.52138106)
(0 0.01370651 0.51860444)
(0 0.012060087 0.51637486)
(0 0.010516194 0.51458032)
(0 0.0090630283 0.51313771)
(0 0.007688524 0.51198464)
(0 0.0063808159 0.51107401)
(0 0.0051283213 0.51037046)
(0 0.00391976 0.50984774)
(0 0.0027441587 0.50948708)
(0 0.0015908026 0.50927594)
(0 0.00044915922 0.50920725)
(0 -0.000691185 0.50927904)
(0 -0.0018406869 0.5094943)
(0 -0.0030098531 0.50986118)
(0 -0.0042094012 0.51039345)
(0 -0.0054503036 0.5111114)
(0 -0.0067438367 0.51204311)
(0 -0.0081015987 0.51322635)
(0 -0.0095355447 0.51471146)
(0 -0.011057632 0.51656533)
(0 -0.012680148 0.51887754)
(0 -0.014415804 0.52176854)
(0 -0.016271452 0.52539374)
(0 -0.01826357 0.52999939)
(0 -0.020432013 0.53647329)
(0 -0.023088641 0.54762502)
(0 -0.026458536 0.56327765)
(0 -0.026786122 0.5528157)
(0 -0.017547474 0.43523013)
(0 0.00032093197 0.16007988)
(0 -0.0011955818 0.1387136)
(0 0.013599798 0.40736729)
(0 0.026785323 0.55120522)
(0 0.029023151 0.57688497)
(0 0.025894616 0.56066643)
(0 0.022997589 0.54564831)
(0 0.02079548 0.53698613)
(0 0.018819714 0.53121534)
(0 0.016959998 0.52673773)
(0 0.015196822 0.52315145)
(0 0.013532218 0.52026821)
(0 0.011959465 0.51794102)
(0 0.01047019 0.51605875)
(0 0.0090559959 0.51453864)
(0 0.0077078107 0.5133185)
(0 0.0064163938 0.51235126)
(0 0.0051724285 0.51160143)
(0 0.0039666093 0.51104265)
(0 0.0027897072 0.51065595)
(0 0.0016325806 0.51042865)
(0 0.00048615909 0.51035361)
(0 -0.00065855241 0.51042878)
(0 -0.0018105802 0.5106572)
(0 -0.0029789297 0.51104711)
(0 -0.004172681 0.5116124)
(0 -0.0054009684 0.51237351)
(0 -0.0066729714 0.51335867)
(0 -0.0079978544 0.51460575)
(0 -0.0093847572 0.51616509)
(0 -0.010842429 0.51810344)
(0 -0.012379324 0.52051002)
(0 -0.014003952 0.52350375)
(0 -0.015718414 0.52723812)
(0 -0.017535836 0.53198838)
(0 -0.019512943 0.53879481)
(0 -0.021938143 0.55041747)
(0 -0.024769247 0.56470156)
(0 -0.024096611 0.5476561)
(0 -0.014430441 0.42236929)
(0 0.00073252438 0.15257714)
(0 -0.0011194115 0.13368357)
(0 0.011090083 0.39454992)
(0 0.024061214 0.54386416)
(0 0.027170335 0.57698936)
(0 0.024726248 0.56335653)
(0 0.022062998 0.54807786)
(0 0.020014586 0.53898687)
(0 0.018204625 0.53305123)
(0 0.016490072 0.52848336)
(0 0.014846374 0.52481128)
(0 0.013278634 0.5218447)
(0 0.011782957 0.51943966)
(0 0.010353919 0.51748623)
(0 0.0089857738 0.51590232)
(0 0.0076719172 0.5146262)
(0 0.0064053581 0.51361113)
(0 0.0051787975 0.51282178)
(0 0.0039847502 0.51223185)
(0 0.0028156415 0.5118224)
(0 0.0016638602 0.51158071)
(0 0.00052178247 0.5114996)
(0 -0.00061816932 0.51157702)
(0 -0.0017635917 0.51181599)
(0 -0.0029220054 0.51222472)
(0 -0.0041008951 0.51281711)
(0 -0.0053076454 0.51361353)
(0 -0.0065494936 0.5146421)
(0 -0.0078334194 0.5159405)
(0 -0.0091661107 0.51755872)
(0 -0.010553638 0.51956304)
(0 -0.01200139 0.52204189)
(0 -0.013514619 0.52511227)
(0 -0.015092207 0.52892734)
(0 -0.016746827 0.53380024)
(0 -0.018551567 0.54091048)
(0 -0.020752995 0.55282592)
(0 -0.023057835 0.56537316)
(0 -0.021578931 0.54204007)
(0 -0.011817767 0.41060694)
(0 0.00092273111 0.14662949)
(0 -0.00096616732 0.12963458)
(0 0.0091262401 0.38302742)
(0 0.021616184 0.53640055)
(0 0.025376789 0.57640339)
(0 0.023569396 0.56562759)
(0 0.021133084 0.55031814)
(0 0.019216316 0.540835)
(0 0.017550966 0.53474005)
(0 0.015968814 0.53010052)
(0 0.014438112 0.5263642)
(0 0.012964892 0.52333371)
(0 0.011547057 0.52086781)
(0 0.010181312 0.51885784)
(0 0.0088639017 0.51722247)
(0 0.0075901911 0.51590058)
(0 0.0063550693 0.5148459)
(0 0.0051529903 0.51402344)
(0 0.0039781037 0.5134071)
(0 0.002824363 0.51297806)
(0 0.0016856029 0.51272369)
(0 0.00055558272 0.51263681)
(0 -0.0005718991 0.51271536)
(0 -0.0017030558 0.5129623)
(0 -0.0028439898 0.51338576)
(0 -0.0040006721 0.51399951)
(0 -0.0051788669 0.51482373)
(0 -0.0063840564 0.51588625)
(0 -0.0076213061 0.51722434)
(0 -0.0088952218 0.51888744)
(0 -0.010209693 0.52094116)
(0 -0.011567723 0.52347295)
(0 -0.012972145 0.5265979)
(0 -0.014419977 0.53047122)
(0 -0.015925463 0.53545116)
(0 -0.017575446 0.54283325)
(0 -0.019560758 0.55486663)
(0 -0.021365727 0.5654071)
(0 -0.019259981 0.53618712)
(0 -0.0096560717 0.39995089)
(0 0.00097210499 0.14190795)
(0 -0.00078360154 0.12630912)
(0 0.00759569 0.37271072)
(0 0.019428683 0.52898284)
(0 0.023658934 0.57526087)
(0 0.022431285 0.56750972)
(0 0.020217388 0.55238272)
(0 0.018416623 0.5425514)
(0 0.016876798 0.53629871)
(0 0.015414295 0.53159947)
(0 0.013989221 0.52781561)
(0 0.012606733 0.52473714)
(0 0.011265762 0.52222469)
(0 0.0099645066 0.52017082)
(0 0.0087006548 0.51849489)
(0 0.0074711116 0.51713641)
(0 0.0062723079 0.51604964)
(0 0.0051001934 0.51519998)
(0 0.0039503586 0.51456166)
(0 0.0028181386 0.51411603)
(0 0.0016987047 0.51385058)
(0 0.00058711171 0.5137582)
(0 -0.00052154863 0.51383679)
(0 -0.0016321845 0.51408925)
(0 -0.0027495677 0.51452356)
(0 -0.0038782697 0.51515329)
(0 -0.0050225858 0.5159983)
(0 -0.0061864411 0.51708604)
(0 -0.0073732525 0.51845325)
(0 -0.0085858885 0.52014872)
(0 -0.0098264924 0.52223733)
(0 -0.011096244 0.5248055)
(0 -0.012396235 0.52796669)
(0 -0.01372276 0.53188111)
(0 -0.015092797 0.53695682)
(0 -0.016602799 0.54457487)
(0 -0.018379134 0.55656093)
(0 -0.019719458 0.5649126)
(0 -0.017144126 0.53026701)
(0 -0.0078819634 0.39036921)
(0 0.0009377511 0.1381451)
(0 -0.00060049059 0.12352089)
(0 0.006399104 0.36349967)
(0 0.017469436 0.52173261)
(0 0.02202126 0.57367696)
(0 0.021312985 0.5690328)
(0 0.019319021 0.55428089)
(0 0.017624638 0.54415224)
(0 0.01619436 0.53774227)
(0 0.014839819 0.53299035)
(0 0.013513021 0.52917161)
(0 0.01221685 0.52605805)
(0 0.010950726 0.52351099)
(0 0.0097138739 0.52142398)
(0 0.0085050046 0.51971698)
(0 0.0073222153 0.51833004)
(0 0.0061631887 0.51721792)
(0 0.0050251375 0.51634646)
(0 0.0039049063 0.5156902)
(0 0.0027990608 0.51523074)
(0 0.0017039861 0.51495571)
(0 0.00061592889 0.51485806)
(0 -0.0004688291 0.51493568)
(0 -0.0015539898 0.51519136)
(0 -0.0026430983 0.51563293)
(0 -0.0037394571 0.51627366)
(0 -0.0048460503 0.51713307)
(0 -0.0059654387 0.51823813)
(0 -0.0070996347 0.51962501)
(0 -0.008250069 0.52134186)
(0 -0.0094174975 0.52345278)
(0 -0.010601708 0.52604326)
(0 -0.011802568 0.5292257)
(0 -0.01301655 0.53316831)
(0 -0.01426376 0.53833088)
(0 -0.015645184 0.54614494)
(0 -0.017218851 0.55793215)
(0 -0.018134336 0.56398841)
(0 -0.015222074 0.52440766)
(0 -0.0064304267 0.3818075)
(0 0.00085869706 0.13513117)
(0 -0.00043303315 0.12113871)
(0 0.0054534344 0.3552943)
(0 0.015707154 0.51473617)
(0 0.020460732 0.57174917)
(0 0.020212103 0.57022531)
(0 0.01843724 0.55601821)
(0 0.016844833 0.54564894)
(0 0.015511668 0.53908319)
(0 0.01425505 0.53428232)
(0 0.013019736 0.5304382)
(0 0.011805386 0.52729998)
(0 0.010611559 0.52472825)
(0 0.0094381806 0.52261727)
(0 0.0082846896 0.5208874)
(0 0.0071501117 0.51947911)
(0 0.0060331478 0.51834762)
(0 0.0049320737 0.51745918)
(0 0.0038448195 0.51678864)
(0 0.0027690359 0.51631786)
(0 0.0017021942 0.51603461)
(0 0.00064162406 0.51593191)
(0 -0.00041531532 0.51600763)
(0 -0.0014712289 0.51626444)
(0 -0.0025285491 0.51670997)
(0 -0.0035894449 0.5173572)
(0 -0.0046557409 0.51822525)
(0 -0.0057288128 0.51934059)
(0 -0.0068094811 0.52073881)
(0 -0.0078979859 0.52246742)
(0 -0.0089939733 0.52458985)
(0 -0.010096156 0.52719075)
(0 -0.011203539 0.53038221)
(0 -0.012313408 0.53434322)
(0 -0.013448775 0.53958441)
(0 -0.014709705 0.5475509)
(0 -0.016086072 0.55900398)
(0 -0.016617876 0.56272086)
(0 -0.013477536 0.51870309)
(0 -0.0052404481 0.37420015)
(0 0.00076033815 0.13270551)
(0 -0.00028917735 0.11907252)
(0 0.0046921604 0.34800083)
(0 0.014111996 0.50805343)
(0 0.018970372 0.56955919)
(0 0.01912483 0.57111366)
(0 0.017569365 0.55759721)
(0 0.016078761 0.54704858)
(0 0.014833856 0.54033116)
(0 0.013667019 0.5354832)
(0 0.012517238 0.53162088)
(0 0.011380454 0.52846658)
(0 0.010256168 0.52587851)
(0 0.0091448014 0.52375136)
(0 0.008046337 0.52200569)
(0 0.0069605448 0.52058228)
(0 0.0058869655 0.5194367)
(0 0.004824776 0.51853556)
(0 0.0037728449 0.51785401)
(0 0.0027297761 0.51737416)
(0 0.001694003 0.51708392)
(0 0.00066382674 0.51697636)
(0 -0.00036242747 0.51704934)
(0 -0.0013863805 0.5173054)
(0 -0.0024094703 0.51775195)
(0 -0.0034328635 0.51840165)
(0 -0.0044573662 0.51927322)
(0 -0.0054833294 0.52039262)
(0 -0.0065105598 0.52179489)
(0 -0.0075383015 0.52352691)
(0 -0.0085652935 0.52565156)
(0 -0.0095893909 0.52825279)
(0 -0.010608954 0.53144319)
(0 -0.011622461 0.53541494)
(0 -0.012655132 0.54072592)
(0 -0.013800797 0.54879839)
(0 -0.014984456 0.5597994)
(0 -0.015172966 0.5611836)
(0 -0.011892117 0.51322015)
(0 -0.0042584983 0.36747728)
(0 0.00065798032 0.13074717)
(0 -0.00017161148 0.11726243)
(0 0.0040638209 0.34153469)
(0 0.012657453 0.50172483)
(0 0.017541997 0.56717502)
(0 0.018047513 0.57172189)
(0 0.016712263 0.55901808)
(0 0.015326461 0.5483545)
(0 0.014164263 0.54149317)
(0 0.013080947 0.53659938)
(0 0.012011673 0.53272448)
(0 0.010948593 0.52956129)
(0 0.0098910677 0.52696406)
(0 0.0088399174 0.52482746)
(0 0.0077955766 0.52307213)
(0 0.006758446 0.52163903)
(0 0.0057287791 0.520484)
(0 0.0047065279 0.51957394)
(0 0.0036913767 0.5188843)
(0 0.0026827663 0.51839738)
(0 0.0016799776 0.51810125)
(0 0.00068217406 0.51798902)
(0 -0.00031146074 0.51805852)
(0 -0.0013016748 0.51831216)
(0 -0.0022890276 0.51875713)
(0 -0.0032738058 0.51940575)
(0 -0.0042559261 0.52027634)
(0 -0.0052348543 0.52139436)
(0 -0.0062095286 0.52279431)
(0 -0.0071783444 0.52452252)
(0 -0.0081392699 0.52664134)
(0 -0.0090894383 0.52923427)
(0 -0.010026674 0.5324152)
(0 -0.010950772 0.53639121)
(0 -0.011888165 0.5417617)
(0 -0.01292166 0.54989163)
(0 -0.013916872 0.56034015)
(0 -0.013800536 0.55943832)
(0 -0.010448614 0.50800425)
(0 -0.0034403273 0.36156897)
(0 0.0005597039 0.12916603)
(0 -7.9856914e-05 0.11567031)
(0 0.0035298203 0.33582166)
(0 0.011321254 0.49577642)
(0 0.016168179 0.56465302)
(0 0.016977806 0.57207171)
(0 0.015863447 0.56027942)
(0 0.014587549 0.54956704)
(0 0.013505293 0.54257384)
(0 0.012500908 0.53763587)
(0 0.011507969 0.53375313)
(0 0.010515132 0.53058737)
(0 0.0095216371 0.52798725)
(0 0.0085286789 0.52584711)
(0 0.0075371322 0.52408752)
(0 0.0065479719 0.5226495)
(0 0.0055620806 0.5214891)
(0 0.0045800931 0.52057348)
(0 0.0036024092 0.51987832)
(0 0.0026292054 0.51938613)
(0 0.001660508 0.51908509)
(0 0.00069623914 0.51896838)
(0 -0.00026366149 0.51903376)
(0 -0.0012191753 0.51928353)
(0 -0.0021700934 0.51972463)
(0 -0.0031159341 0.52036908)
(0 -0.0040558425 0.52123476)
(0 -0.0049885182 0.52234666)
(0 -0.0059121479 0.52373876)
(0 -0.0068243865 0.52545688)
(0 -0.0077225156 0.52756291)
(0 -0.0086030214 0.53014004)
(0 -0.0094632178 0.53330425)
(0 -0.010304128 0.53727856)
(0 -0.011152238 0.54269629)
(0 -0.012075382 0.55083411)
(0 -0.012886711 0.56064671)
(0 -0.012501603 0.55753623)
(0 -0.0091330093 0.50308405)
(0 -0.0027516519 0.35640759)
(0 0.00046868914 0.12789515)
(0 -1.1745341e-05 0.11427317)
(0 0.0030622122 0.33079758)
(0 0.01008579 0.49022349)
(0 0.014843649 0.56203977)
(0 0.015915507 0.57218284)
(0 0.015021894 0.56137897)
(0 0.013862056 0.55068441)
(0 0.012859112 0.54357582)
(0 0.0119304 0.53859651)
(0 0.011010295 0.53471036)
(0 0.010084559 0.5315478)
(0 0.0091523912 0.52895053)
(0 0.0082154073 0.52681216)
(0 0.0072749657 0.5250531)
(0 0.0063326015 0.52361441)
(0 0.0053897796 0.52245226)
(0 0.0044477505 0.52153404)
(0 0.0035075499 0.52083564)
(0 0.002570003 0.52033975)
(0 0.0016357903 0.52003469)
(0 0.00070549796 0.51991367)
(0 -0.00022027428 0.51997441)
(0 -0.0011408408 0.52021906)
(0 -0.0020553263 0.52065433)
(0 -0.0029625842 0.52129192)
(0 -0.0038610932 0.5221493)
(0 -0.0047488894 0.52325098)
(0 -0.0056235036 0.52463044)
(0 -0.00648193 0.52633301)
(0 -0.0073208102 0.52842014)
(0 -0.0081360163 0.53097486)
(0 -0.0089243232 0.53411593)
(0 -0.009687724 0.53808256)
(0 -0.010451565 0.54353311)
(0 -0.011265765 0.55162922)
(0 -0.011898795 0.56073874)
(0 -0.011278731 0.55551979)
(0 -0.0079355312 0.49847509)
(0 -0.0021681465 0.3519282)
(0 0.00038545226 0.1268839)
(0 3.5607175e-05 0.11305789)
(0 0.0026418375 0.32640702)
(0 0.008938367 0.48507281)
(0 0.01356636 0.55937367)
(0 0.014863236 0.57207352)
(0 0.01418872 0.56231451)
(0 0.01315117 0.55170351)
(0 0.012228317 0.54450033)
(0 0.011372938 0.53948427)
(0 0.0105226 0.53559927)
(0 0.0096609821 0.53244545)
(0 0.0087873929 0.52985642)
(0 0.0079039552 0.52772469)
(0 0.0070125927 0.52597053)
(0 0.0061154164 0.52453495)
(0 0.0052144508 0.52337426)
(0 0.0043115152 0.52245606)
(0 0.0034082166 0.52175644)
(0 0.0025059539 0.52125827)
(0 0.0016059815 0.52094999)
(0 0.00070946249 0.52082484)
(0 -0.00018243103 0.52088049)
(0 -0.0010684384 0.52111896)
(0 -0.0019471128 0.52154673)
(0 -0.0028167375 0.52217517)
(0 -0.0036752207 0.52302135)
(0 -0.0045200264 0.52410929)
(0 -0.0053481113 0.52547198)
(0 -0.0061558732 0.52715424)
(0 -0.0069393397 0.52921709)
(0 -0.0076937793 0.5317435)
(0 -0.0084153699 0.53485555)
(0 -0.0091066965 0.53880818)
(0 -0.0097908296 0.54427516)
(0 -0.010497903 0.5522811)
(0 -0.010959895 0.56063561)
(0 -0.010136868 0.55342442)
(0 -0.0068510823 0.49418264)
(0 -0.0016743898 0.3480678)
(0 0.00031005612 0.12609198)
(0 6.5274673e-05 0.11201706)
(0 0.0022569295 0.32260105)
(0 0.0078713784 0.48032403)
(0 0.012338285 0.55668616)
(0 0.013827033 0.57176108)
(0 0.013367856 0.56308468)
(0 0.012457992 0.55262088)
(0 0.011616663 0.5453478)
(0 0.010832743 0.5403016)
(0 0.010049248 0.53642276)
(0 0.0092487353 0.53328321)
(0 0.0084308124 0.5307076)
(0 0.0075982314 0.52858709)
(0 0.0067535779 0.5268418)
(0 0.005899569 0.52541276)
(0 0.0050387795 0.52425641)
(0 0.0041735617 0.52334054)
(0 0.0033060399 0.5226415)
(0 0.0024381212 0.5221423)
(0 0.0015715616 0.52183151)
(0 0.00070802353 0.5217024)
(0 -0.00015082867 0.52175262)
(0 -0.0010032438 0.52198404)
(0 -0.0018472902 0.52240291)
(0 -0.002680769 0.52302027)
(0 -0.003501108 0.52385279)
(0 -0.0043052843 0.52492402)
(0 -0.0050897585 0.5262664)
(0 -0.0058503947 0.52792424)
(0 -0.0065826323 0.52995807)
(0 -0.0072811446 0.5324509)
(0 -0.0079414541 0.53552844)
(0 -0.0085662897 0.53946028)
(0 -0.0091754326 0.54492574)
(0 -0.0097783448 0.55279524)
(0 -0.010078699 0.56035696)
(0 -0.0090833507 0.55128007)
(0 -0.0058787703 0.49020397)
(0 -0.0012621378 0.34476435)
(0 0.00024294799 0.12548455)
(0 8.0313294e-05 0.11114559)
(0 0.0019021011 0.31933455)
(0 0.006882339 0.47597033)
(0 0.011165848 0.55400265)
(0 0.01281673 0.57126244)
(0 0.012566585 0.56368965)
(0 0.011788181 0.55343349)
(0 0.011029675 0.54611838)
(0 0.010315292 0.54105086)
(0 0.0095955245 0.53718382)
(0 0.0088528359 0.53406412)
(0 0.0080873641 0.53150699)
(0 0.0073026178 0.52940205)
(0 0.006501936 0.52766932)
(0 0.0056886697 0.5262499)
(0 0.0048659367 0.52510046)
(0 0.0040365897 0.52418901)
(0 0.0032032209 0.52349211)
(0 0.0023681868 0.522993)
(0 0.0015336804 0.52268034)
(0 0.00070179446 0.52254747)
(0 -0.00012538678 0.52259199)
(0 -0.00094569737 0.52281565)
(0 -0.0017567998 0.52322446)
(0 -0.0025560955 0.52382916)
(0 -0.0033406167 0.524646)
(0 -0.0041069401 0.52569803)
(0 -0.0048511127 0.52701714)
(0 -0.0055685409 0.52864708)
(0 -0.0062541236 0.5306478)
(0 -0.0069019721 0.53310238)
(0 -0.0075069291 0.53614031)
(0 -0.0080714111 0.54004416)
(0 -0.0086110508 0.54548911)
(0 -0.0091145596 0.55317907)
(0 -0.0092650342 0.55992299)
(0 -0.0081269744 0.54911227)
(0 -0.0050206521 0.48653009)
(0 -0.00092802651 0.34195534)
(0 0.00018505443 0.12502916)
(0 8.36605e-05 0.11043805)
(0 0.0015774729 0.31656324)
(0 0.0059736456 0.47199896)
(0 0.010059728 0.55134335)
(0 0.011845768 0.57059451)
(0 0.011795517 0.56413179)
(0 0.011149977 0.55413955)
(0 0.01047461 0.5468127)
(0 0.0098271942 0.54173471)
(0 0.0091674502 0.5378858)