/*--------------------------------*- C++ -*----------------------------------*\
  =========                 |
  \\      /  F ield         | OpenFOAM: The Open Source CFD Toolbox
   \\    /   O peration     | Website:  https://openfoam.org
    \\  /    A nd           | Version:  10
     \\/     M anipulation  |
\*---------------------------------------------------------------------------*/
FoamFile
{
    format      ascii;
    class       volVectorField;
    location    "0.08";
    object      U_0;
}
// * * * * * * * * * * * * * * * * * * * * * * * * * * * * * * * * * * * * * //

dimensions      [0 1 -1 0 0 0 0];

internalField   nonuniform List<vector> 
4000
(
(0 0.018629198 0.47773568)
(0 0.023494604 0.50885832)
(0 0.0081528063 0.50052575)
(0 0.0056006699 0.50033675)
(0 0.0042397364 0.50025755)
(0 0.0032397553 0.50016898)
(0 0.0025410675 0.50011963)
(0 0.002040003 0.50009001)
(0 0.0016626791 0.50006964)
(0 0.0013692251 0.50005519)
(0 0.00113524 0.50004475)
(0 0.00094436152 0.50003706)
(0 0.00078531524 0.5000313)
(0 0.00065010755 0.50002695)
(0 0.00053289398 0.50002365)
(0 0.00042927922 0.50002115)
(0 0.00033586254 0.50001929)
(0 0.00024992947 0.50001795)
(0 0.00016923551 0.50001705)
(0 9.1847149e-05 0.50001654)
(0 1.6020251e-05 0.50001638)
(0 -5.9909211e-05 0.50001658)
(0 -0.0001376158 0.50001714)
(0 -0.00021887627 0.5000181)
(0 -0.00030568268 0.50001952)
(0 -0.0004003721 0.50002147)
(0 -0.00050579912 0.5000241)
(0 -0.00062557589 0.50002758)
(0 -0.00076442071 0.5000322)
(0 -0.00092868859 0.50003835)
(0 -0.0011272238 0.50004664)
(0 -0.0013727272 0.50005804)
(0 -0.0016839991 0.500074)
(0 -0.0020914484 0.50009704)
(0 -0.002651077 0.50013485)
(0 -0.0034452737 0.50020256)
(0 -0.0045391207 0.50027205)
(0 -0.0065639624 0.50043451)
(0 -0.017637643 0.50675095)
(0 -0.013578856 0.4797618)
(0 0.037409826 0.44799723)
(0 0.050908994 0.53232311)
(0 0.021922706 0.50804353)
(0 0.01609115 0.50357599)
(0 0.012368633 0.50242405)
(0 0.0094679388 0.50162295)
(0 0.0074732581 0.50115598)
(0 0.0060239603 0.50086474)
(0 0.004920802 0.50066636)
(0 0.0040591544 0.50052697)
(0 0.0033699769 0.50042665)
(0 0.0028062506 0.50035285)
(0 0.0023355399 0.5002977)
(0 0.0019347056 0.50025608)
(0 0.0015867382 0.50022454)
(0 0.0012787978 0.50020071)
(0 0.0010009187 0.50018297)
(0 0.00074512543 0.50017019)
(0 0.00050480834 0.50016159)
(0 0.00027426338 0.50015669)
(0 4.833721e-05 0.50015522)
(0 -0.00017788443 0.50015711)
(0 -0.00040934714 0.50016246)
(0 -0.00065129877 0.50017161)
(0 -0.00090961273 0.50018509)
(0 -0.0011911661 0.50020374)
(0 -0.0015043379 0.50022882)
(0 -0.0018596979 0.50026213)
(0 -0.0022710019 0.50030629)
(0 -0.0027566785 0.50036521)
(0 -0.0033422086 0.50044484)
(0 -0.0040640971 0.50055468)
(0 -0.0049755906 0.50070986)
(0 -0.0061567539 0.50093598)
(0 -0.0077566363 0.50129468)
(0 -0.010051675 0.50191224)
(0 -0.013037738 0.50282971)
(0 -0.017357229 0.50608376)
(0 -0.038691614 0.5252636)
(0 -0.027862004 0.45025961)
(0 0.039853594 0.40989649)
(0 0.061347601 0.54931722)
(0 0.031896567 0.52188)
(0 0.024275836 0.51008599)
(0 0.019109578 0.50659091)
(0 0.01489261 0.50452785)
(0 0.011923581 0.50326938)
(0 0.00969142 0.50245479)
(0 0.0079598973 0.50189613)
(0 0.006593181 0.5015026)
(0 0.0054909011 0.50121838)
(0 0.0045834069 0.50100876)
(0 0.0038218557 0.50085185)
(0 0.0031707581 0.50073328)
(0 0.0026036963 0.50064334)
(0 0.0021005421 0.50057535)
(0 0.0016455505 0.50052468)
(0 0.0012260389 0.50048815)
(0 0.00083144132 0.50046357)
(0 0.000452602 0.50044955)
(0 8.1224944e-05 0.50044534)
(0 -0.00029060779 0.50045072)
(0 -0.00067086429 0.50046602)
(0 -0.0010679865 0.50049214)
(0 -0.0014913901 0.50053063)
(0 -0.001952049 0.50058388)
(0 -0.0024632529 0.5006554)
(0 -0.0030416407 0.50075031)
(0 -0.0037086675 0.500876)
(0 -0.0044927219 0.50104344)
(0 -0.0054323362 0.5012692)
(0 -0.0065817017 0.50157946)
(0 -0.0080182947 0.50201641)
(0 -0.0098465675 0.50264858)
(0 -0.01223951 0.50361568)
(0 -0.015585959 0.50520375)
(0 -0.019749973 0.50786406)
(0 -0.025058659 0.51641407)
(0 -0.047298854 0.53913852)
(0 -0.03080116 0.41499693)
(0 0.034748431 0.36187946)
(0 0.063722469 0.55460592)
(0 0.039242965 0.53746531)
(0 0.029961294 0.51849842)
(0 0.023986791 0.51198133)
(0 0.019153617 0.50849863)
(0 0.015612629 0.50625972)
(0 0.012834814 0.50474774)
(0 0.010630242 0.50369401)
(0 0.0088619225 0.50294337)
(0 0.0074166288 0.50239629)
(0 0.0062145371 0.50199024)
(0 0.0051976932 0.50168491)
(0 0.0043227082 0.50145336)
(0 0.0035566481 0.50127721)
(0 0.0028740243 0.50114376)
(0 0.0022546357 0.50104415)
(0 0.0016820349 0.50097222)
(0 0.001142401 0.50092378)
(0 0.00062367657 0.50089612)
(0 0.00011488621 0.50088778)
(0 -0.00039446641 0.50089836)
(0 -0.00091494303 0.50092848)
(0 -0.0014576991 0.50097987)
(0 -0.0020351098 0.50105555)
(0 -0.0026614891 0.50116011)
(0 -0.0033540013 0.50130031)
(0 -0.0041338705 0.50148586)
(0 -0.0050280494 0.50173081)
(0 -0.0060715234 0.5020557)
(0 -0.007310408 0.50249108)
(0 -0.0088072218 0.50308406)
(0 -0.010649695 0.50390949)
(0 -0.012944937 0.50508397)
(0 -0.015828821 0.50680719)
(0 -0.019704921 0.50947549)
(0 -0.024544662 0.51428874)
(0 -0.030911717 0.52824524)
(0 -0.050144151 0.54412766)
(0 -0.028368209 0.37261131)
(0 0.027375895 0.3150872)
(0 0.062162115 0.55034495)
(0 0.044417883 0.55146012)
(0 0.033807857 0.52748947)
(0 0.027290087 0.51772725)
(0 0.02228189 0.51291765)
(0 0.018467317 0.50972287)
(0 0.015364828 0.50747877)
(0 0.012851374 0.50588155)
(0 0.010797698 0.50472458)
(0 0.0090921962 0.50387039)
(0 0.007655812 0.50323044)
(0 0.0064283651 0.50274579)
(0 0.0053632601 0.50237618)
(0 0.0044242979 0.50209376)
(0 0.0035828784 0.50187906)
(0 0.0028159365 0.50171837)
(0 0.0021044238 0.50160207)
(0 0.0014321454 0.50152361)
(0 0.00078484507 0.50147875)
(0 0.00014946567 0.50146517)
(0 -0.0004865153 0.50148223)
(0 -0.0011356959 0.50153093)
(0 -0.0018113276 0.50161397)
(0 -0.0025280064 0.50173609)
(0 -0.0033024464 0.50190446)
(0 -0.0041544306 0.50212956)
(0 -0.0051080278 0.50242632)
(0 -0.0061932062 0.50281609)
(0 -0.0074480004 0.50332962)
(0 -0.0089209881 0.50401168)
(0 -0.010674965 0.50492897)
(0 -0.012797184 0.50618451)
(0 -0.015392171 0.50793358)
(0 -0.018548163 0.51040312)
(0 -0.022627585 0.51406533)
(0 -0.027912633 0.52115724)
(0 -0.035415962 0.53932126)
(0 -0.050239089 0.5416944)
(0 -0.02400146 0.33094049)
(0 0.019786829 0.27555352)
(0 0.057801837 0.53994607)
(0 0.047100418 0.56256468)
(0 0.036240032 0.536595)
(0 0.029406152 0.52350996)
(0 0.024448746 0.51739845)
(0 0.020552446 0.51334848)
(0 0.017296704 0.51042204)
(0 0.014612698 0.50829495)
(0 0.012378924 0.50672666)
(0 0.010493616 0.50555249)
(0 0.0088845333 0.50466325)
(0 0.0074938178 0.50398391)
(0 0.0062754024 0.50346219)
(0 0.0051926451 0.50306133)
(0 0.0042159151 0.50275522)
(0 0.00332084 0.5025253)
(0 0.0024869548 0.50235845)
(0 0.0016966186 0.50224563)
(0 0.00093413399 0.502181)
(0 0.0001850181 0.50216133)
(0 -0.0005646657 0.50218573)
(0 -0.0013289347 0.50225558)
(0 -0.0021224625 0.50237465)
(0 -0.0029612795 0.50254943)
(0 -0.0038635272 0.50278976)
(0 -0.004850362 0.50310988)
(0 -0.0059470646 0.50352986)
(0 -0.0071844405 0.50407804)
(0 -0.0086007228 0.50479449)
(0 -0.010243551 0.50573643)
(0 -0.012171649 0.50698636)
(0 -0.014465677 0.50866774)
(0 -0.017228314 0.5109628)
(0 -0.020514261 0.51411494)
(0 -0.024620096 0.51873965)
(0 -0.030150185 0.52823015)
(0 -0.038234586 0.54872209)
(0 -0.048206224 0.53425468)
(0 -0.018970425 0.2945084)
(0 0.013030624 0.24303869)
(0 0.051576358 0.52553359)
(0 0.047372631 0.57027201)
(0 0.037443593 0.54549834)
(0 0.030554821 0.52928448)
(0 0.02578411 0.52179196)
(0 0.02195646 0.51697491)
(0 0.018684059 0.51343925)
(0 0.015939082 0.51082128)
(0 0.013612965 0.50886054)
(0 0.011618964 0.50737357)
(0 0.0098941917 0.50623523)
(0 0.0083857416 0.50535765)
(0 0.0070506242 0.50467861)
(0 0.0058538274 0.50415365)
(0 0.004766347 0.50375078)
(0 0.0037638324 0.50344695)
(0 0.0028254683 0.50322576)
(0 0.0019330389 0.50307581)
(0 0.0010701415 0.5029897)
(0 0.00022151913 0.50296332)
(0 -0.00062756475 0.50299554)
(0 -0.0014919283 0.50308812)
(0 -0.0023870032 0.50324582)
(0 -0.0033294996 0.50347684)
(0 -0.0043380899 0.50379357)
(0 -0.0054342117 0.50421372)
(0 -0.0066430181 0.50476205)
(0 -0.0079945019 0.505473)
(0 -0.0095250766 0.50639458)
(0 -0.011279362 0.50759419)
(0 -0.013310106 0.50916703)
(0 -0.01568728 0.51125142)
(0 -0.018507237 0.51404763)
(0 -0.021802532 0.51782573)
(0 -0.025812655 0.52346922)
(0 -0.031378186 0.53535269)
(0 -0.039246719 0.55591356)
(0 -0.044524714 0.52328048)
(0 -0.01398436 0.26343683)
(0 0.007716341 0.21616859)
(0 0.044569699 0.50851934)
(0 0.045839083 0.57445131)
(0 0.037632808 0.55370342)
(0 0.030915165 0.53494217)
(0 0.026407689 0.52601232)
(0 0.022767024 0.52050384)
(0 0.019586823 0.51643857)
(0 0.016867718 0.5133794)
(0 0.0145215 0.51105746)
(0 0.012479471 0.50927681)
(0 0.01068922 0.50790002)
(0 0.0091045179 0.50682933)
(0 0.0076871242 0.50599471)
(0 0.0064050547 0.50534544)
(0 0.0052311462 0.50484456)
(0 0.0041421107 0.50446523)
(0 0.003117664 0.50418811)
(0 0.0021397693 0.50399973)
(0 0.0011919808 0.50389124)
(0 0.00025886853 0.50385776)
(0 -0.00067452974 0.50389792)
(0 -0.0016232568 0.50401381)
(0 -0.0026028932 0.50421113)
(0 -0.0036301561 0.50449962)
(0 -0.0047234814 0.50489391)
(0 -0.0059036954 0.50541476)
(0 -0.0071947898 0.50609096)
(0 -0.0086247585 0.50696208)
(0 -0.010226769 0.50808255)
(0 -0.012040865 0.50952797)
(0 -0.014112752 0.51140379)
(0 -0.016499116 0.51385941)
(0 -0.019282856 0.5171049)
(0 -0.022481556 0.52145384)
(0 -0.026313362 0.52816553)
(0 -0.031749758 0.54216437)
(0 -0.03876151 0.56056316)
(0 -0.039890987 0.50979155)
(0 -0.0095929389 0.23690526)
(0 0.0039499771 0.19434203)
(0 0.037609452 0.49021976)
(0 0.043184786 0.57538789)
(0 0.037058687 0.56077476)
(0 0.030690932 0.54031946)
(0 0.026471682 0.52998013)
(0 0.02308685 0.52385174)
(0 0.020073391 0.51934307)
(0 0.01744468 0.51590217)
(0 0.015135476 0.51325936)
(0 0.01309514 0.51121243)
(0 0.011281902 0.50961534)
(0 0.0096572341 0.50836323)
(0 0.0081885986 0.50738029)
(0 0.0068479016 0.50661097)
(0 0.0056106491 0.50601444)
(0 0.0044553722 0.50556073)
(0 0.0033629949 0.50522811)
(0 0.0023162695 0.50500133)
(0 0.0012992635 0.50487034)
(0 0.00029689427 0.50482956)
(0 -0.00070552285 0.50487743)
(0 -0.0017227497 0.50501634)
(0 -0.0027699901 0.50525277)
(0 -0.003863404 0.50559778)
(0 -0.0050205713 0.50606791)
(0 -0.0062610178 0.50668644)
(0 -0.0076068098 0.50748542)
(0 -0.0090831255 0.50850851)
(0 -0.010718955 0.50981514)
(0 -0.012548652 0.51148706)
(0 -0.014610371 0.51363746)
(0 -0.016947275 0.51642283)
(0 -0.019624966 0.52005601)
(0 -0.022653102 0.52491533)
(0 -0.026264695 0.53269044)
(0 -0.031450863 0.54829281)
(0 -0.03721277 0.5626843)
(0 -0.034908243 0.49482172)
(0 -0.006076653 0.21458963)
(0 0.0014952476 0.17709117)
(0 0.031174037 0.47176845)
(0 0.039937421 0.57364814)
(0 0.035936487 0.56650819)
(0 0.03006794 0.54530266)
(0 0.026134833 0.53365293)
(0 0.023027372 0.52696158)
(0 0.020220667 0.52209354)
(0 0.017724281 0.51833623)
(0 0.015493168 0.51541884)
(0 0.013492512 0.51313856)
(0 0.011690397 0.5113445)
(0 0.010056123 0.50992739)
(0 0.0085631051 0.5088075)
(0 0.007187527 0.50792591)
(0 0.0059080422 0.50723892)
(0 0.0047054872 0.5067142)
(0 0.0035624686 0.50632819)
(0 0.002462984 0.50606421)
(0 0.0013920514 0.50591124)
(0 0.00033535681 0.50586315)
(0 -0.00072109261 0.50591821)
(0 -0.0017913611 0.50607906)
(0 -0.0028898501 0.5063528)
(0 -0.0040317188 0.50675159)
(0 -0.0052332255 0.50729343)
(0 -0.0065121077 0.5080036)
(0 -0.0078880006 0.50891663)
(0 -0.0093827937 0.5100792)
(0 -0.011020894 0.51155432)
(0 -0.012830524 0.51342786)
(0 -0.014842438 0.51581795)
(0 -0.017087848 0.51888421)
(0 -0.019615395 0.52283978)
(0 -0.022433797 0.52815487)
(0 -0.025808583 0.53694129)
(0 -0.030642163 0.55351428)
(0 -0.034971585 0.56257328)
(0 -0.029975148 0.47931866)
(0 -0.0034579705 0.19626937)
(0 2.0896717e-05 0.16366937)
(0 0.02550636 0.453936)
(0 0.036464327 0.56985446)
(0 0.034436321 0.57088541)
(0 0.029184571 0.54984116)
(0 0.025528403 0.53703237)
(0 0.022689681 0.52981454)
(0 0.020104123 0.52465745)
(0 0.017763033 0.52064686)
(0 0.015636217 0.517502)
(0 0.013701875 0.51502333)
(0 0.011936601 0.51305829)
(0 0.010316893 0.51149536)
(0 0.0088217844 0.51025255)
(0 0.0074317255 0.50926884)
(0 0.0061286768 0.50849861)
(0 0.0048960198 0.50790794)
(0 0.003718328 0.50747191)
(0 0.0025811503 0.50717282)
(0 0.0014707695 0.50699891)
(0 0.00037395664 0.50694363)
(0 -0.00072227173 0.50700512)
(0 -0.0018309625 0.5071862)
(0 -0.0029653949 0.50749448)
(0 -0.004139407 0.50794288)
(0 -0.0053676224 0.50855053)
(0 -0.0066656962 0.50934413)
(0 -0.0080505744 0.51035992)
(0 -0.0095406992 0.51164662)
(0 -0.011155944 0.51326949)
(0 -0.012918592 0.51531684)
(0 -0.014852576 0.51790923)
(0 -0.016979205 0.52120638)
(0 -0.019332775 0.5254248)
(0 -0.021927347 0.53115492)
(0 -0.025059248 0.54086288)
(0 -0.02945358 0.55774233)
(0 -0.032330691 0.56063462)
(0 -0.025341985 0.46397766)
(0 -0.0016225346 0.18148537)
(0 -0.00077220225 0.15325476)
(0 0.020701427 0.4371587)
(0 0.033014712 0.56456283)
(0 0.03270014 0.57398389)
(0 0.028139738 0.5539136)
(0 0.02475008 0.54014007)
(0 0.022156043 0.53241931)
(0 0.019789665 0.52702553)
(0 0.017613082 0.52281679)
(0 0.015605004 0.51948814)
(0 0.01375404 0.51684491)
(0 0.012043813 0.51473511)
(0 0.010456985 0.51304648)
(0 0.0089775586 0.51169605)
(0 0.0075899544 0.51062167)
(0 0.0062793521 0.5097767)
(0 0.0050317143 0.50912621)
(0 0.0038337012 0.50864441)
(0 0.0026725833 0.50831291)
(0 0.0015361073 0.50811947)
(0 0.00041234369 0.50805721)
(0 -0.0007104595 0.50812419)
(0 -0.001844108 0.50832336)
(0 -0.0030005418 0.50866266)
(0 -0.0041920746 0.50915555)
(0 -0.0054315195 0.50982191)
(0 -0.0067323243 0.51068935)
(0 -0.0081086962 0.51179516)
(0 -0.0095757063 0.51318922)
(0 -0.011149027 0.51493803)
(0 -0.012845565 0.51713101)
(0 -0.014683203 0.51988935)
(0 -0.016675185 0.52337103)
(0 -0.018845019 0.52780295)
(0 -0.021217553 0.53391785)
(0 -0.024105897 0.54442208)
(0 -0.027999428 0.56097248)
(0 -0.029520556 0.55727248)
(0 -0.02116061 0.44924363)
(0 -0.00041246456 0.16965236)
(0 -0.0011205107 0.14515173)
(0 0.016749337 0.42165579)
(0 0.029742918 0.55823985)
(0 0.030844538 0.57592975)
(0 0.027005774 0.557512)
(0 0.023871475 0.54299904)
(0 0.021491484 0.53479635)
(0 0.019331882 0.52920211)
(0 0.017319368 0.52484061)
(0 0.015435892 0.52136657)
(0 0.013677994 0.51858963)
(0 0.012034833 0.51635986)
(0 0.010494103 0.51456523)
(0 0.0090440042 0.51312259)
(0 0.0076724787 0.51196949)
(0 0.0063676753 0.51105885)
(0 0.0051180289 0.51035524)
(0 0.0039122791 0.50983244)
(0 0.0027394755 0.50947163)
(0 0.0015889272 0.50926027)
(0 0.00045012764 0.5091913)
(0 -0.00068730948 0.50926272)
(0 -0.0018338126 0.50947754)
(0 -0.0029998586 0.5098439)
(0 -0.0041961347 0.51037558)
(0 -0.0054335817 0.51109288)
(0 -0.0067234444 0.51202389)
(0 -0.0080772901 0.51320644)
(0 -0.0095070454 0.51469086)
(0 -0.011024642 0.51654411)
(0 -0.012642349 0.51885584)
(0 -0.014372874 0.52174659)
(0 -0.016223078 0.52537194)
(0 -0.018209509 0.52997817)
(0 -0.020371851 0.53645125)
(0 -0.02302023 0.54759702)
(0 -0.026380422 0.56325363)
(0 -0.026710379 0.55285731)
(0 -0.017503572 0.43538838)
(0 0.00032990376 0.16022693)
(0 -0.0011971197 0.13881088)
(0 0.013572238 0.4075134)
(0 0.026727679 0.55126757)
(0 0.028956095 0.57687569)
(0 0.025833357 0.5606428)
(0 0.022943633 0.54563021)
(0 0.020746421 0.53697)
(0 0.018774938 0.53119841)
(0 0.016919453 0.52671999)
(0 0.015160399 0.52313326)
(0 0.013499772 0.52024982)
(0 0.01193083 0.51792257)
(0 0.010445207 0.51604032)
(0 0.0090345146 0.51452029)
(0 0.0076896984 0.51330023)
(0 0.0064015393 0.51233305)
(0 0.0051607461 0.51158323)
(0 0.0039580408 0.51102439)
(0 0.0027842241 0.51063755)
(0 0.0016301856 0.51041002)
(0 0.00048688756 0.51033464)
(0 -0.00065463042 0.51040936)
(0 -0.0018033587 0.51063723)
(0 -0.0029682655 0.51102646)
(0 -0.0041583911 0.51159098)
(0 -0.0053828286 0.51235122)
(0 -0.0066507148 0.51333543)
(0 -0.0079711701 0.51458152)
(0 -0.0093532915 0.51613984)
(0 -0.010805788 0.51807722)
(0 -0.012337075 0.52048294)
(0 -0.013955642 0.52347604)
(0 -0.015663589 0.52721022)
(0 -0.017474075 0.53196059)
(0 -0.019443486 0.53876482)
(0 -0.02185821 0.55037967)
(0 -0.024678018 0.56467332)
(0 -0.024009929 0.54771548)
(0 -0.014381123 0.42256756)
(0 0.00074201301 0.15274952)
(0 -0.0011200702 0.13379497)
(0 0.01105941 0.39472942)
(0 0.023995488 0.54394795)
(0 0.027092087 0.5769816)
(0 0.024654153 0.56332584)
(0 0.022000012 0.54805316)
(0 0.019957942 0.53896559)
(0 0.018153318 0.53302959)
(0 0.01644389 0.52846105)
(0 0.014805108 0.5247887)
(0 0.013242041 0.5218221)
(0 0.011750784 0.51941721)
(0 0.010325926 0.51746399)
(0 0.0089617447 0.51588032)
(0 0.0076516635 0.51460443)
(0 0.0063887236 0.51358953)
(0 0.005165661 0.51280029)
(0 0.0039750272 0.51221035)
(0 0.0028092858 0.51180077)
(0 0.0016608646 0.51155883)
(0 0.00052218036 0.51147734)
(0 -0.00061430169 0.51155422)
(0 -0.0017561337 0.51179249)
(0 -0.0029107906 0.51220038)
(0 -0.0040857073 0.51279177)
(0 -0.0052882154 0.51358705)
(0 -0.0065254965 0.51461435)
(0 -0.0078044714 0.51591138)
(0 -0.0091317672 0.51752817)
(0 -0.010513393 0.51953105)
(0 -0.011954678 0.52200853)
(0 -0.013460829 0.52507776)
(0 -0.015030704 0.52889211)
(0 -0.01667695 0.53376435)
(0 -0.018472111 0.5408705)
(0 -0.020660534 0.5527763)
(0 -0.022952426 0.56534089)
(0 -0.021480477 0.54212124)
(0 -0.011762485 0.41085123)
(0 0.00093272643 0.14682982)
(0 -0.00096575093 0.12976166)
(0 0.0090921416 0.38324526)
(0 0.021541522 0.53651024)
(0 0.025286145 0.57639846)
(0 0.023485207 0.56558863)
(0 0.021060044 0.55028513)
(0 0.01915137 0.54080723)
(0 0.017492629 0.53471266)
(0 0.015916642 0.53007274)
(0 0.014391758 0.52633643)
(0 0.012923988 0.52330623)
(0 0.011511234 0.52084077)
(0 0.010150235 0.51883128)
(0 0.0088372709 0.51719638)
(0 0.0075677518 0.51587492)
(0 0.0063366117 0.51482058)
(0 0.0051383516 0.51399833)
(0 0.0039671684 0.51338207)
(0 0.0028170638 0.51295294)
(0 0.0016819211 0.5126983)
(0 0.00055554631 0.51261099)
(0 -0.00056820719 0.51268888)
(0 -0.0016954992 0.51293498)
(0 -0.0028323801 0.51335739)
(0 -0.0039847574 0.51396988)
(0 -0.0051583302 0.51479264)
(0 -0.00635851 0.51585349)
(0 -0.0075902856 0.51718976)
(0 -0.008858181 0.5188509)
(0 -0.010165999 0.52090259)
(0 -0.011516655 0.52343234)
(0 -0.012912903 0.52655542)
(0 -0.014351706 0.53042726)
(0 -0.015847187 0.53540539)
(0 -0.017485413 0.54278095)
(0 -0.019454909 0.55480303)
(0 -0.021245188 0.56537103)
(0 -0.019148939 0.53629436)
(0 -0.0095942187 0.40024758)
(0 0.0009826651 0.1421392)
(0 -0.00078203576 0.12645383)
(0 0.007557782 0.37297237)
(0 0.019344139 0.52912335)
(0 0.023554639 0.57526027)
(0 0.022333727 0.56746119)
(0 0.020133273 0.55233939)
(0 0.018342692 0.54251551)
(0 0.016810992 0.53626432)
(0 0.015355855 0.53156518)
(0 0.013937612 0.52778177)
(0 0.012561426 0.52470403)
(0 0.011226247 0.52219242)
(0 0.0099303287 0.52013939)
(0 0.008671419 0.51846426)
(0 0.007446484 0.51710647)
(0 0.0062520166 0.51602025)
(0 0.0050840277 0.51517097)
(0 0.0039381678 0.51453282)
(0 0.0028098309 0.51408716)
(0 0.001694248 0.51382145)
(0 0.00058652783 0.51372856)
(0 -0.000518172 0.5138064)
(0 -0.0016246967 0.51405784)
(0 -0.0027377574 0.51449086)
(0 -0.0038618486 0.51511902)
(0 -0.0050011876 0.51596219)
(0 -0.0061596119 0.51704781)
(0 -0.007340442 0.51841264)
(0 -0.0085464394 0.52010551)
(0 -0.0097796323 0.52219133)
(0 -0.011041073 0.52475661)
(0 -0.012331739 0.52791499)
(0 -0.013647817 0.53182688)
(0 -0.015006038 0.53689915)
(0 -0.016501822 0.54450762)
(0 -0.018259273 0.55648099)
(0 -0.019583057 0.56487299)
(0 -0.017019773 0.5304047)
(0 -0.0078129003 0.39072499)
(0 0.00094898185 0.13841068)
(0 -0.00059789395 0.12368561)
(0 0.0063568926 0.3638112)
(0 0.017373997 0.52190928)
(0 0.021902052 0.57368233)
(0 0.021200832 0.56897323)
(0 0.019222882 0.55422491)
(0 0.017541133 0.54410631)
(0 0.01612076 0.53769941)
(0 0.01477495 0.53294838)
(0 0.013456103 0.52913072)
(0 0.012167154 0.52601849)
(0 0.01090757 0.52347282)
(0 0.0096766632 0.52138715)
(0 0.0084732307 0.51968135)
(0 0.0072954544 0.51829544)
(0 0.0061410991 0.51718414)
(0 0.0050074552 0.51631325)
(0 0.0038914418 0.51565731)
(0 0.002789695 0.51519789)
(0 0.0016986708 0.51492261)
(0 0.00061468066 0.5148244)
(0 -0.00046592063 0.51490114)
(0 -0.0015467624 0.51515562)
(0 -0.0026313166 0.51559563)
(0 -0.0037227975 0.51623445)
(0 -0.0048240972 0.51709157)
(0 -0.0059376713 0.51819397)
(0 -0.0070654133 0.51957782)
(0 -0.0082086197 0.52129128)
(0 -0.0093678968 0.5233985)
(0 -0.010542863 0.52598503)
(0 -0.01173322 0.52916348)
(0 -0.012935268 0.53310214)
(0 -0.014168703 0.53825906)
(0 -0.015533206 0.54605986)
(0 -0.017084721 0.55783336)
(0 -0.017981703 0.56394544)
(0 -0.015083914 0.52458021)
(0 -0.0063535528 0.3822292)
(0 0.00087065923 0.13543493)
(0 -0.00042972428 0.12132622)
(0 0.0054062969 0.35566233)
(0 0.015599794 0.51495468)
(0 0.020325423 0.5717622)
(0 0.020084268 0.57015305)
(0 0.018328286 0.55594691)
(0 0.016751331 0.54559073)
(0 0.015430121 0.5390302)
(0 0.014183763 0.53423136)
(0 0.012957614 0.5303892)
(0 0.011751454 0.52725313)
(0 0.010564935 0.5246835)
(0 0.0093981073 0.52257447)
(0 0.0082505305 0.52084632)
(0 0.0071213432 0.51943949)
(0 0.0060093517 0.51830916)
(0 0.0049129289 0.51742154)
(0 0.0038300947 0.51675149)
(0 0.0027585836 0.51628084)
(0 0.001695948 0.51599736)
(0 0.00063959443 0.51589405)
(0 -0.00041303823 0.51596876)
(0 -0.001464473 0.51622416)
(0 -0.0025170562 0.51666784)
(0 -0.0035728591 0.51731277)
(0 -0.0046335991 0.51817804)
(0 -0.0057005286 0.51929009)
(0 -0.0067743262 0.52068453)
(0 -0.0078550679 0.52240883)
(0 -0.0089422125 0.52452647)
(0 -0.010034255 0.52712213)
(0 -0.011129974 0.5303081)
(0 -0.012226402 0.53426334)
(0 -0.013345942 0.53949603)
(0 -0.014587081 0.5474449)
(0 -0.015937919 0.5588837)
(0 -0.016449176 0.56267462)
(0 -0.013325488 0.51891469)
(0 -0.0051553322 0.37469459)
(0 0.00077291697 0.13305174)
(0 -0.00028561308 0.119286)
(0 0.0046393635 0.34843249)
(0 0.013991774 0.50831969)
(0 0.018817974 0.56958156)
(0 0.018980494 0.57102683)
(0 0.017447073 0.55750758)
(0 0.015975085 0.54697552)
(0 0.014744438 0.54026615)
(0 0.013589531 0.53542182)
(0 0.012450196 0.53156265)
(0 0.011322594 0.52841154)
(0 0.010206376 0.5258265)
(0 0.0091021393 0.52370207)
(0 0.0080100273 0.52195876)
(0 0.0069299571 0.52053732)
(0 0.0058616011 0.5193933)
(0 0.0048042544 0.51849328)
(0 0.0037568924 0.51781243)
(0 0.0027182166 0.51733283)
(0 0.0016867512 0.51704239)
(0 0.00066088573 0.51693418)
(0 -0.00036096751 0.51700601)
(0 -0.0013803388 0.51726044)
(0 -0.0023985692 0.51770482)
(0 -0.0034167183 0.51835179)
(0 -0.0044354704 0.51922003)
(0 -0.0054550357 0.52033546)
(0 -0.0064750557 0.52173307)
(0 -0.0074945798 0.52345974)
(0 -0.0085121193 0.52557831)
(0 -0.0095252592 0.52817278)
(0 -0.010532065 0.53135589)
(0 -0.011530663 0.53531956)
(0 -0.012545443 0.54061848)
(0 -0.013668394 0.5486683)
(0 -0.014823181 0.55965496)
(0 -0.014989103 0.56113403)
(0 -0.011726745 0.51347467)
(0 -0.004165077 0.36805099)
(0 0.00067077609 0.13114032)
(0 -0.00016829863 0.11750552)
(0 0.0040045871 0.34203755)
(0 0.012523659 0.5020448)
(0 0.017371903 0.56720824)
(0 0.017886292 0.57161837)
(0 0.016576492 0.55890681)
(0 0.015212751 0.54826375)
(0 0.014067322 0.54141408)
(0 0.012997705 0.53652606)
(0 0.011940183 0.53265587)
(0 0.010887257 0.52949721)
(0 0.0098385179 0.52690412)
(0 0.0087950188 0.52477119)
(0 0.0077574031 0.52301899)
(0 0.006726257 0.52158847)
(0 0.005701995 0.52043547)
(0 0.00468471 0.51952689)
(0 0.0036742102 0.51883819)
(0 0.0026700476 0.51835166)
(0 0.0016716042 0.51805538)
(0 0.00067814106 0.51794245)
(0 -0.00031106356 0.51801067)
(0 -0.0012966595 0.51826244)
(0 -0.002279101 0.51870489)
(0 -0.0032585586 0.51935033)
(0 -0.0042348146 0.52021698)
(0 -0.0052071779 0.52133026)
(0 -0.0061743997 0.5227246)
(0 -0.0071346503 0.52444627)
(0 -0.0080856292 0.52655756)
(0 -0.0090241453 0.52914196)
(0 -0.009947652 0.53231345)
(0 -0.010855482 0.53627859)
(0 -0.011773004 0.54163273)
(0 -0.012780958 0.54973434)
(0 -0.013744185 0.56016898)
(0 -0.013603363 0.5593853)
(0 -0.010271384 0.50830504)
(0 -0.0033391787 0.36222794)
(0 0.00057199681 0.12961043)
(0 -7.7282513e-05 0.11594715)
(0 0.0034634616 0.33640355)
(0 0.011173627 0.4961559)
(0 0.015980409 0.56469837)
(0 0.016799952 0.57194918)
(0 0.015714575 0.56014295)
(0 0.014464342 0.54945556)
(0 0.013401493 0.54247847)
(0 0.012412612 0.53754905)
(0 0.011432697 0.53367301)
(0 0.010450919 0.53051341)
(0 0.0094668409 0.52791881)
(0 0.0084819602 0.52578345)
(0 0.0074974152 0.52402789)
(0 0.0065144078 0.52259316)
(0 0.005534013 0.52143534)
(0 0.0045570289 0.52052159)
(0 0.0035839964 0.51982765)
(0 0.0026152158 0.51933601)
(0 0.0016508242 0.51903488)
(0 0.000690849 0.51891742)
(0 -0.00026466889 0.51898139)
(0 -0.0012156066 0.51922904)
(0 -0.0021616437 0.51966727)
(0 -0.0031021749 0.52030804)
(0 -0.0040362011 0.52116914)
(0 -0.0049622519 0.52227548)
(0 -0.0058783077 0.52366093)
(0 -0.0067817704 0.5253712)
(0 -0.0076696133 0.52746807)
(0 -0.0085379439 0.53003467)
(0 -0.0093836247 0.53318696)
(0 -0.010207093 0.53714709)
(0 -0.011033547 0.54254345)
(0 -0.011928594 0.55064676)
(0 -0.012705293 0.56044655)
(0 -0.012294154 0.55747959)
(0 -0.0089465421 0.50343372)
(0 -0.0026443622 0.35715688)
(0 0.00047953973 0.12839447)
(0 -1.0333929e-05 0.1145883)
(0 0.0029883562 0.33146635)
(0 0.0099248005 0.49066775)
(0 0.014639179 0.56209819)
(0 0.015722185 0.57203887)
(0 0.01486101 0.56121368)
(0 0.013730436 0.55054904)
(0 0.012749554 0.54346194)
(0 0.011838105 0.53849468)
(0 0.010932196 0.53461769)
(0 0.010018294 0.53146325)
(0 0.009096037 0.52887312)
(0 0.0081674213 0.52674081)
(0 0.0072341284 0.52498682)
(0 0.0062979641 0.52355221)
(0 0.0053606162 0.52239324)
(0 0.0044235208 0.52147734)
(0 0.0034878699 0.52078045)
(0 0.0025546237 0.52028531)
(0 0.0016245822 0.51998023)
(0 0.00069844254 0.51985842)
(0 -0.00022308892 0.51991761)
(0 -0.0011392179 0.52015988)
(0 -0.0020489535 0.52059191)
(0 -0.0029510206 0.5212253)
(0 -0.0038437478 0.52207743)
(0 -0.0047249918 0.52317269)
(0 -0.0055920631 0.52454439)
(0 -0.0064416802 0.5262377)
(0 -0.007270141 0.5283139)
(0 -0.0080728889 0.53085587)
(0 -0.0088461638 0.53398222)
(0 -0.0095912424 0.53793087)
(0 -0.010331976 0.54335439)
(0 -0.011115987 0.55140942)
(0 -0.011712464 0.56050787)
(0 -0.011065414 0.55545946)
(0 -0.0077438137 0.49887535)
(0 -0.0020575741 0.35277133)
(0 0.00039404715 0.12744054)
(0 3.5530506e-05 0.11341602)
(0 0.002560746 0.32717002)
(0 0.0087655494 0.48558626)
(0 0.013347517 0.55944571)
(0 0.014656869 0.57190572)
(0 0.014017935 0.56211689)
(0 0.013013046 0.55154116)
(0 0.012114792 0.54436579)
(0 0.01127829 0.53936602)
(0 0.010443133 0.53549314)
(0 0.0095939269 0.53234976)
(0 0.0087305497 0.52976971)
(0 0.0078555919 0.52764552)
(0 0.006971361 0.52589755)
(0 0.006080281 0.52446693)
(0 0.0051846277 0.52331009)
(0 0.0042864249 0.52239468)
(0 0.0033874492 0.52169691)
(0 0.0024892434 0.52119968)
(0 0.0015931879 0.52089145)
(0 0.00070056174 0.52076549)
(0 -0.00018735266 0.52081944)
(0 -0.0010691833 0.52105528)
(0 -0.0019433658 0.52147943)
(0 -0.0028080531 0.52210315)
(0 -0.0036610021 0.52294339)
(0 -0.0044994939 0.52402402)
(0 -0.0053202588 0.52537779)
(0 -0.0061194056 0.52704933)
(0 -0.0068925934 0.52909937)
(0 -0.0076346204 0.53161065)
(0 -0.0083410526 0.53470489)
(0 -0.0090136227 0.53863528)
(0 -0.0096737247 0.54406903)
(0 -0.010349203 0.55202716)
(0 -0.010773662 0.56037313)
(0 -0.0099235038 0.5533606)
(0 -0.0066594888 0.49463417)
(0 -0.001564699 0.34900621)
(0 0.00031596068 0.12670626)
(0 6.3530309e-05 0.11242259)
(0 0.0021698575 0.32346448)
(0 0.0076896535 0.48090975)
(0 0.012109113 0.55677189)
(0 0.013611665 0.57156729)
(0 0.013190683 0.56285155)
(0 0.012316464 0.55242871)
(0 0.011501974 0.54519061)
(0 0.010738254 0.54016575)
(0 0.0099706286 0.53630252)
(0 0.0091828205 0.53317605)
(0 0.0083751561 0.53061149)
(0 0.0075509422 0.52850014)
(0 0.0067132051 0.52676229)
(0 0.0058650108 0.52533914)
(0 0.0050092082 0.52418734)
(0 0.0041483684 0.52327478)
(0 0.0032847944 0.52257793)
(0 0.0024205436 0.52207988)
(0 0.001557503 0.52176922)
(0 0.00069745474 0.52163928)
(0 -0.0001578239 0.52168765)
(0 -0.0010064688 0.52191619)
(0 -0.0018464307 0.52233105)
(0 -0.002675382 0.52294318)
(0 -0.0034906025 0.52376907)
(0 -0.0042888912 0.52483209)
(0 -0.0050664869 0.5261644)
(0 -0.0058189669 0.52781003)
(0 -0.0065413951 0.52982913)
(0 -0.0072279543 0.53230434)
(0 -0.0078734974 0.5353608)
(0 -0.0084797744 0.53926577)
(0 -0.0090647333 0.54469139)
(0 -0.0096355928 0.55250641)
(0 -0.00989855 0.56006288)
(0 -0.0088768752 0.55121328)
(0 -0.0056937669 0.49070634)
(0 -0.0011585474 0.34579682)
(0 0.00024618996 0.12615423)
(0 7.6901656e-05 0.11160211)
(0 0.0018115992 0.32030257)
(0 0.0066962244 0.47662975)
(0 0.010932283 0.55410163)
(0 0.012598209 0.57104083)
(0 0.01238815 0.56341843)
(0 0.011647708 0.55320911)
(0 0.010917725 0.54593697)
(0 0.010224364 0.54089657)
(0 0.0095207007 0.53704913)
(0 0.0087906231 0.53394548)
(0 0.0080351341 0.53140166)
(0 0.0072583743 0.5293076)
(0 0.006464167 0.52758361)
(0 0.0056562357 0.52617109)
(0 0.0048379849 0.52502692)
(0 0.0040124932 0.52411931)
(0 0.0031825357 0.52342496)
(0 0.0023506234 0.52292721)
(0 0.0015190835 0.52261479)
(0 0.00069013174 0.52248105)
(0 -0.00013403184 0.52252359)
(0 -0.00095112677 0.5227441)
(0 -0.0017586988 0.52314853)
(0 -0.0025540243 0.52374748)
(0 -0.0033339951 0.52455702)
(0 -0.0040950228 0.52559997)
(0 -0.0048329499 0.52690791)
(0 -0.0055429179 0.52852419)
(0 -0.0062194717 0.5305083)
(0 -0.0068562464 0.53294279)
(0 -0.0074474017 0.5359563)
(0 -0.0079942848 0.53982845)
(0 -0.0085105757 0.5452267)
(0 -0.0089827816 0.55285573)
(0 -0.0090972555 0.55959838)
(0 -0.0079347326 0.54904337)
(0 -0.0048492373 0.48708184)
(0 -0.00083615965 0.34307725)
(0 0.00018612769 0.12574921)
(0 7.8747326e-05 0.11094766)
(0 0.0014874869 0.31763694)
(0 0.0057893046 0.47273156)
(0 0.0098293946 0.55145454)
(0 0.011631449 0.57034371)
(0 0.01162222 0.56382065)
(0 0.011015935 0.55388132)
(0 0.010369854 0.54660615)
(0 0.0097435059 0.54156176)