/*--------------------------------*- C++ -*----------------------------------*\
  =========                 |
  \\      /  F ield         | OpenFOAM: The Open Source CFD Toolbox
   \\    /   O peration     | Website:  https://openfoam.org
    \\  /    A nd           | Version:  10
     \\/     M anipulation  |
\*---------------------------------------------------------------------------*/
FoamFile
{
    format      ascii;
    class       surfaceScalarField;
    location    "0.06";
    object      phi;
}
// * * * * * * * * * * * * * * * * * * * * * * * * * * * * * * * * * * * * * //

dimensions      [1 0 -1 0 0 0 0];

internalField   nonuniform List<scalar> 
7860
(
3.9851265e-08
5.2885692e-07
1.2159378e-08
5.9639955e-07
7.3943269e-09
5.734728e-07
5.4616587e-09
5.7064038e-07
4.0764357e-09
5.700929e-07
3.1630774e-09
5.6962101e-07
2.5221859e-09
5.6934853e-07
2.0440217e-09
5.6918579e-07
1.6761554e-09
5.6907548e-07
1.3859662e-09
5.6899779e-07
1.1515911e-09
5.6894197e-07
9.5821456e-10
5.6890096e-07
7.9545058e-10
5.6887035e-07
6.5577484e-10
5.6884725e-07
5.3358704e-10
5.6882976e-07
4.2460512e-10
5.6881655e-07
3.2545841e-10
5.6880672e-07
2.3340615e-10
5.6879962e-07
1.4613435e-10
5.6879484e-07
6.1602167e-11
5.687921e-07
-2.2081683e-11
5.6879125e-07
-1.0676682e-10
5.6879225e-07
-1.9437102e-10
5.6879517e-07
-2.8698441e-10
5.6880018e-07
-3.8700397e-10
5.6880759e-07
-4.9729833e-10
5.6881786e-07
-6.2143037e-10
5.6883171e-07
-7.6397246e-10
5.6885012e-07
-9.3097008e-10
5.6887458e-07
-1.1306521e-09
5.6890727e-07
-1.3746087e-09
5.6895155e-07
-1.6797699e-09
5.6901276e-07
-2.0712849e-09
5.6909912e-07
-2.5892395e-09
5.6922558e-07
-3.3162213e-09
5.6943462e-07
-4.4086982e-09
5.6980013e-07
-5.9598533e-09
5.7025883e-07
-9.4619966e-09
5.7220985e-07
-2.9517108e-08
5.8876287e-07
5.3919082e-07
5.956596e-08
4.6929188e-07
3.6542855e-08
6.194223e-07
2.2512485e-08
5.8750304e-07
1.6133276e-08
5.7701959e-07
1.216869e-08
5.7405749e-07
9.486013e-09
5.7230369e-07
7.5609192e-09
5.7127362e-07
6.1250057e-09
5.706217e-07
5.0222991e-09
5.7017819e-07
4.1524535e-09
5.6986764e-07
3.4499322e-09
5.6964449e-07
2.8704036e-09
5.6948049e-07
2.3826916e-09
5.6935806e-07
1.9642177e-09
5.6926573e-07
1.5981857e-09
5.691958e-07
1.2717542e-09
5.6914299e-07
9.7481626e-10
5.6910366e-07
6.9915452e-10
5.6907528e-07
4.3783265e-10
5.6905616e-07
1.8473346e-10
5.690452e-07
-6.5812757e-11
5.690418e-07
-3.1935315e-10
5.6904579e-07
-5.8162752e-10
5.6905745e-07
-8.5890348e-10
5.6907746e-07
-1.158367e-09
5.6910705e-07
-1.4886188e-09
5.6914812e-07
-1.8603421e-09
5.6920343e-07
-2.2872491e-09
5.6927703e-07
-2.7874784e-09
5.6937481e-07
-3.3857298e-09
5.6950552e-07
-4.1166962e-09
5.6968252e-07
-5.0311026e-09
5.6992717e-07
-6.206069e-09
5.7027409e-07
-7.7610143e-09
5.7078052e-07
-9.8999523e-09
5.7157356e-07
-1.3030505e-08
5.7293068e-07
-1.796907e-08
5.751974e-07
-2.8009808e-08
5.8225059e-07
-4.5655014e-08
6.0640807e-07
4.9353581e-07
5.9844813e-08
4.0944939e-07
5.0256378e-08
6.2901061e-07
3.3155904e-08
6.0460303e-07
2.4603316e-08
5.8557215e-07
1.9107622e-08
5.795532e-07
1.5119468e-08
5.7629185e-07
1.2155897e-08
5.742372e-07
9.9067672e-09
5.7287083e-07
8.1581086e-09
5.7192685e-07
6.7663698e-09
5.7125938e-07
5.6351347e-09
5.7077573e-07
4.6973646e-09
5.7041827e-07
3.9050781e-09
5.7015035e-07
3.2231193e-09
5.6994769e-07
2.6250914e-09
5.6979383e-07
2.0906598e-09
5.6967742e-07
1.6037217e-09
5.695906e-07
1.1511192e-09
5.6952789e-07
7.2170073e-10
5.6948558e-07
3.0560305e-10
5.694613e-07
-1.0633155e-10
5.6945373e-07
-5.2306557e-10
5.6946253e-07
-9.5386513e-10
5.6948825e-07
-1.4088265e-09
5.6953242e-07
-1.8994858e-09
5.6959771e-07
-2.439587e-09
5.6968822e-07
-3.0461039e-09
5.6980995e-07
-3.7406637e-09
5.6997159e-07
-4.5516128e-09
5.7018576e-07
-5.5171006e-09
5.7047101e-07
-6.6897658e-09
5.7085518e-07
-8.1444012e-09
5.7138181e-07
-9.9911972e-09
5.7212089e-07
-1.2393143e-08
5.7318247e-07
-1.558486e-08
5.7476528e-07
-1.9930506e-08
5.7727633e-07
-2.6404418e-08
5.8167131e-07
-3.8633011e-08
5.9447919e-07
-4.7925064e-08
6.1570013e-07
4.4561074e-07
5.4664414e-08
3.5478941e-07
5.7095863e-08
6.2658019e-07
4.0128979e-08
6.2156896e-07
3.0454021e-08
5.952469e-07
2.4320005e-08
5.8568723e-07
1.9636005e-08
5.8097586e-07
1.6008638e-08
5.7786456e-07
1.3178031e-08
5.7570144e-07
1.0931255e-08
5.7417362e-07
9.1160377e-09
5.730746e-07
7.6240286e-09
5.7226774e-07
6.3763617e-09
5.7166593e-07
5.3148944e-09
5.7121182e-07
4.3960837e-09
5.708665e-07
3.5866582e-09
5.7060325e-07
2.8606285e-09
5.7040345e-07
2.1971806e-09
5.7025404e-07
1.5791506e-09
5.7014592e-07
9.918852e-10
5.7007285e-07
4.2235554e-10
5.7003083e-07
-1.415735e-10
5.7001766e-07
-7.1179003e-10
5.7003275e-07
-1.3005636e-09
5.7007702e-07
-1.9212086e-09
5.7015307e-07
-2.5888448e-09
5.7026535e-07
-3.3213366e-09
5.7042071e-07
-4.1405155e-09
5.7062913e-07
-5.0738299e-09
5.709049e-07
-6.156648e-09
5.7126858e-07
-7.4355463e-09
5.7174991e-07
-8.9729143e-09
5.7239255e-07
-1.0853378e-08
5.7326227e-07
-1.3194248e-08
5.7446176e-07
-1.6158349e-08
5.7614657e-07
-1.9945779e-08
5.7855271e-07
-2.4825077e-08
5.8215563e-07
-3.2041291e-08
5.8888753e-07
-4.4604753e-08
6.0704265e-07
-4.6208453e-08
6.1730383e-07
3.9940229e-07
4.7708598e-08
3.0708808e-07
5.9583549e-08
6.1470868e-07
4.4908588e-08
6.3624264e-07
3.4418338e-08
6.0573657e-07
2.7952698e-08
5.9215287e-07
2.2984154e-08
5.8594442e-07
1.901717e-08
5.8183155e-07
1.583511e-08
5.788835e-07
1.3252355e-08
5.7675638e-07
1.1128801e-08
5.7519815e-07
9.3587378e-09
5.740378e-07
7.8616555e-09
5.7316302e-07
6.576167e-09
5.7249731e-07
5.4549805e-09
5.7198769e-07
4.461112e-09
5.7159712e-07
3.5651253e-09
5.7129944e-07
2.7430785e-09
5.7107609e-07
1.9749761e-09
5.7091402e-07
1.2435747e-09
5.7080425e-07
5.3342869e-10
5.7074098e-07
-1.6991095e-10
5.70721e-07
-8.8061591e-10
5.7074345e-07
-1.6132794e-09
5.7080969e-07
-2.3836505e-09
5.7092344e-07
-3.2094622e-09
5.7109116e-07
-4.1114299e-09
5.7132268e-07
-5.1145105e-09
5.7163221e-07
-6.2495336e-09
5.7203993e-07
-7.5553564e-09
5.725744e-07
-9.0817719e-09
5.7327633e-07
-1.0893332e-08
5.7420411e-07
-1.3073822e-08
5.7544276e-07
-1.5732798e-08
5.7712074e-07
-1.9015695e-08
5.7942947e-07
-2.3095869e-08
5.8263288e-07
-2.8274863e-08
5.8733463e-07
-3.610177e-08
5.9671444e-07
-4.7756688e-08
6.1869757e-07
-4.2753378e-08
6.1230052e-07
3.5664891e-07
4.0040978e-08
2.6705791e-07
5.83578e-08
5.9639925e-07
4.7656391e-08
6.4694297e-07
3.6972032e-08
6.1641971e-07
3.0337749e-08
5.9878705e-07
2.5322157e-08
5.9096005e-07
2.1234729e-08
5.8591899e-07
1.7878993e-08
5.8223924e-07
1.5100771e-08
5.795346e-07
1.2777166e-08
5.7752176e-07
1.0811556e-08
5.7600342e-07
9.1281035e-09
5.7484647e-07
7.6672512e-09
5.7395816e-07
6.3817825e-09
5.7327316e-07
5.2338466e-09
5.7274506e-07
4.1926752e-09
5.7234061e-07
3.2327877e-09
5.7203598e-07
2.3325795e-09
5.7181423e-07
1.4731928e-09
5.7166364e-07
6.3758493e-10
5.7157659e-07
-1.9027171e-10
5.7154886e-07
-1.0261179e-09
5.715793e-07
-1.8861201e-09
5.7166969e-07
-2.7876121e-09
5.7182493e-07
-3.7499154e-09
5.7205347e-07
-4.7953028e-09
5.7236807e-07
-5.9501719e-09
5.7278708e-07
-7.2465064e-09
5.7333627e-07
-8.7237081e-09
5.7405161e-07
-1.0430943e-08
5.7498356e-07
-1.2430228e-08
5.762034e-07
-1.479992e-08
5.7781246e-07
-1.7638844e-08
5.7995966e-07
-2.107341e-08
5.8286404e-07
-2.526276e-08
5.8682223e-07
-3.0608168e-08
5.9268004e-07
-3.8707417e-08
6.0481369e-07
-4.8229399e-08
6.2821955e-07
-3.803706e-08
6.0210818e-07
3.1861185e-07
3.2532966e-08
2.3454005e-07
5.4464703e-08
5.744806e-07
4.834791e-08
6.5305979e-07
3.8255313e-08
6.2651027e-07
3.1672101e-08
6.0536991e-07
2.6790917e-08
5.9584128e-07
2.2747884e-08
5.8996204e-07
1.9355597e-08
5.8563153e-07
1.6495476e-08
5.8239473e-07
1.4064243e-08
5.7995299e-07
1.1977342e-08
5.7809032e-07
1.0166927e-08
5.7665689e-07
8.5783091e-09
5.7554678e-07
7.1669727e-09
5.746845e-07
5.8963724e-09
5.7401566e-07
4.7361523e-09
5.7350083e-07
3.6606873e-09
5.7311145e-07
2.6478907e-09
5.7282703e-07
1.6782254e-09
5.7263331e-07
7.3386038e-10
5.7252095e-07
-2.0207246e-10
5.724848e-07
-1.1461641e-09
5.7252339e-07
-2.1154051e-09
5.7263893e-07
-3.1278834e-09
5.7283741e-07
-4.2035414e-09
5.7312913e-07
-5.3650432e-09
5.7352958e-07
-6.6387956e-09
5.7406084e-07
-8.0561802e-09
5.7475365e-07
-9.6550422e-09
5.7565047e-07
-1.1481511e-08
5.7681003e-07
-1.359245e-08
5.7831434e-07
-1.6058426e-08
5.8027843e-07
-1.8965868e-08
5.8286711e-07
-2.2418268e-08
5.8631644e-07
-2.6559526e-08
5.9096349e-07
-3.1889557e-08
5.9801007e-07
-3.976097e-08
6.126851e-07
-4.648685e-08
6.3494543e-07
-3.2734844e-08
5.8835618e-07
2.8587701e-07
2.582652e-08
2.0873386e-07
4.9191712e-08
5.5113615e-07
4.7370217e-08
6.5488373e-07
3.8459579e-08
6.3541798e-07
3.2124061e-08
6.117046e-07
2.7506037e-08
6.0045935e-07
2.3637237e-08
5.9383087e-07
2.0319882e-08
5.8894889e-07
1.7470681e-08
5.8524393e-07
1.5009064e-08
5.8241461e-07
1.2865057e-08
5.8023433e-07
1.098086e-08
5.7854109e-07
9.3085071e-09
5.7721914e-07
7.8079045e-09
5.761851e-07
6.4453413e-09
5.7537823e-07
5.1921919e-09
5.7475399e-07
4.0238076e-09
5.7427984e-07
2.918576e-09
5.7393226e-07
1.8571093e-09
5.7369478e-07
8.2152782e-10
5.7355654e-07
-2.0518827e-10
5.7351152e-07
-1.2398062e-09
5.7355801e-07
-2.2994443e-09
5.7369857e-07
-3.4021898e-09
5.7394016e-07
-4.5677575e-09
5.742947e-07
-5.818225e-09
5.7478005e-07
-7.1788718e-09
5.7542148e-07
-8.6791599e-09
5.7625394e-07
-1.0353886e-08
5.773252e-07
-1.2244501e-08
5.7870065e-07
-1.4400826e-08
5.8047067e-07
-1.6883261e-08
5.8276087e-07
-1.9763006e-08
5.8574685e-07
-2.3118396e-08
5.8967183e-07
-2.7084734e-08
5.9492983e-07
-3.2236589e-08
6.0316192e-07
-3.9465363e-08
6.1991388e-07
-4.3317526e-08
6.387976e-07
-2.7463953e-08
5.7250261e-07
2.5841306e-07
2.0176287e-08
1.8858444e-07
4.3478132e-08
5.2786494e-07
4.5251713e-08
6.5311669e-07
3.785781e-08
6.4280821e-07
3.1903896e-08
6.1765697e-07
2.7608519e-08
6.0475469e-07
2.3996362e-08
5.9744309e-07
2.08361e-08
5.9210916e-07
1.8070083e-08
5.8800995e-07
1.5640567e-08
5.8484413e-07
1.349316e-08
5.8238174e-07
1.1581073e-08
5.8045318e-07
9.864114e-09
5.789361e-07
8.3076807e-09
5.7774154e-07
6.8819128e-09
5.76804e-07
5.5608464e-09
5.7607505e-07
4.3216529e-09
5.7551903e-07
3.1439533e-09
5.7510997e-07
2.0091961e-09
5.7482953e-07
9.0008782e-10
5.7466565e-07
-1.999396e-10
5.7461154e-07
-1.3072349e-09
5.7466531e-07
-2.4384351e-09
5.7482978e-07
-3.6109805e-09
5.7511271e-07
-4.8436541e-09
5.7552737e-07
-6.1571688e-09
5.7609356e-07
-7.5748104e-09
5.7683913e-07
-9.1231587e-09
5.7780229e-07
-1.0832902e-08
5.7903494e-07
-1.2739691e-08
5.8060744e-07
-1.4885116e-08
5.826161e-07
-1.7318037e-08
5.8519379e-07
-2.0093439e-08
5.8852226e-07
-2.3268604e-08
5.92847e-07
-2.6984571e-08
5.986458e-07
-3.184633e-08
6.0802369e-07
-3.8154214e-08
6.2622176e-07
-3.9379971e-08
6.4002336e-07
-2.2577118e-08
5.5569976e-07
2.3583595e-07
1.5588103e-08
1.7303167e-07
3.7863906e-08
5.0563233e-07
4.2429304e-08
6.4856402e-07
3.6688591e-08
6.4854488e-07
3.121149e-08
6.2313151e-07
2.7251492e-08
6.0871448e-07
2.3932576e-08
6.007621e-07
2.0979308e-08
5.9506245e-07
1.8346382e-08
5.9064287e-07
1.599569e-08
5.8719482e-07
1.3887329e-08
5.844901e-07
1.1985163e-08
5.8235534e-07
1.0256962e-08
5.806643e-07
8.6740715e-09
5.7932443e-07
7.2110315e-09
5.7826704e-07
5.8451234e-09
5.7744096e-07
4.5559182e-09
5.7680824e-07
3.3248283e-09
5.7634106e-07
2.134672e-09
5.7601969e-07
9.6925201e-10
5.7583107e-07
-1.8705079e-10
5.7576785e-07
-1.349673e-09
5.7582793e-07
-2.5342684e-09
5.7601437e-07
-3.7571092e-09
5.7633555e-07
-5.0354987e-09
5.7680577e-07
-6.3882041e-09
5.7744627e-07
-7.8359091e-09
5.7828684e-07
-9.4016877e-09
5.7936807e-07
-1.1111509e-08
5.8074477e-07
-1.2994724e-08
5.8249066e-07
-1.50845e-08
5.8470587e-07
-1.7418386e-08
5.8752768e-07
-2.0036466e-08
5.9114034e-07
-2.2981956e-08
5.9579249e-07
-2.6411312e-08
6.0207516e-07
-3.090085e-08
6.1251322e-07
-3.612267e-08
6.3144359e-07
-3.5115807e-08
6.390165e-07
-1.8241611e-08
5.3882556e-07
2.1759434e-07
1.196218e-08
1.6111692e-07
3.2644973e-08
4.8500862e-07
3.9229819e-08
6.420006e-07
3.5127049e-08
6.5264389e-07
3.0196962e-08
6.2805777e-07
2.6566841e-08
6.1234406e-07
2.3547889e-08
6.0378116e-07
2.0825764e-08
5.9778461e-07
1.835609e-08
5.9311255e-07
1.611599e-08
5.8943492e-07
1.4077898e-08
5.8652819e-07
1.2215113e-08
5.8421813e-07
1.050285e-08
5.8237656e-07
8.9183007e-09
5.8090898e-07
7.4405392e-09
5.797448e-07
6.0503597e-09
5.7883115e-07
4.7300682e-09
5.7812853e-07
3.4632354e-09
5.7760789e-07
2.2344268e-09
5.772485e-07
1.0289227e-09
5.7703657e-07
-1.6756535e-10
5.7696434e-07
-1.3691792e-09
5.7702955e-07
-2.5902034e-09
5.772354e-07
-3.8453527e-09
5.775907e-07
-5.1500589e-09
5.7811047e-07
-6.520758e-09
5.7881697e-07
-7.9751718e-09
5.7974125e-07
-9.5325709e-09
5.8092547e-07
-1.1214032e-08
5.8242623e-07
-1.3042668e-08
5.843193e-07
-1.5043737e-08
5.8670695e-07
-1.7244585e-08
5.8972853e-07
-1.9672553e-08
5.9356831e-07
-2.2363047e-08
5.9848299e-07
-2.5488945e-08
6.0520106e-07
-2.9541549e-08
6.1656583e-07
-3.3612576e-08
6.3551461e-07
-3.0824002e-08
6.3622793e-07
-1.4516274e-08
5.2251784e-07
2.0307806e-07
9.1595013e-09
1.5202455e-07
2.7970303e-08
4.6627745e-07
3.589676e-08
6.3410733e-07
3.3308339e-08
6.5522981e-07
2.8967839e-08
6.3239294e-07
2.5656354e-08
6.1565448e-07
2.2927614e-08
6.0651001e-07
2.0443714e-08
6.0026857e-07
1.8152954e-08
5.9540332e-07
1.6043117e-08
5.9154476e-07
1.4096718e-08
5.884746e-07
1.2295038e-08
5.8601981e-07
1.0619868e-08
5.8405174e-07
9.0537874e-09
5.8247506e-07
7.5802374e-09
5.8121835e-07
6.1835388e-09
5.8022785e-07
4.8488609e-09
5.7946321e-07
3.5621277e-09
5.7889463e-07
2.3098869e-09
5.7850075e-07
1.0791536e-09
5.7826731e-07
-1.4276268e-10
5.7818626e-07
-1.3684368e-09
5.7825523e-07
-2.6105136e-09
5.7847748e-07
-3.8818878e-09
5.7886208e-07
-5.1958758e-09
5.7942446e-07
-6.5663739e-09
5.8018747e-07
-8.0079955e-09
5.8118287e-07
-9.5361707e-09
5.8245365e-07
-1.1167217e-08
5.8405728e-07
-1.2918394e-08
5.8607048e-07
-1.4807823e-08
5.8859638e-07
-1.685393e-08
5.9177464e-07
-1.9073659e-08
5.9578804e-07
-2.1499493e-08
6.0090882e-07
-2.4315412e-08
6.0801698e-07
-2.7886387e-08
6.2013681e-07
-3.082764e-08
6.3845587e-07
-2.6706711e-08
6.32107e-07
-1.1393361e-08
5.0720449e-07
1.9168471e-07
7.0307505e-09
1.4509303e-07
2.3884525e-08
4.4953068e-07
3.2597956e-08
6.2544259e-07
3.1339634e-08
6.5648819e-07
2.7604077e-08
6.3612153e-07
2.4597923e-08
6.1865882e-07
2.2140671e-08
6.0896732e-07
1.9890951e-08
6.0251838e-07
1.7784656e-08
5.9750962e-07
1.5815731e-08
5.9351369e-07
1.3974619e-08
5.9031571e-07
1.2249188e-08
5.8774525e-07
1.0626845e-08
5.8567408e-07
9.0949516e-09
5.8400696e-07
7.6409694e-09
5.8267234e-07
6.2525934e-09
5.8161622e-07
4.9178286e-09
5.8079798e-07
3.6250105e-09
5.8018745e-07
2.3627815e-09
5.7976298e-07
1.1200363e-09
5.7951006e-07
-1.1415352e-10
5.7942045e-07
-1.3506267e-09
5.794917e-07
-2.6002238e-09
5.7972708e-07
-3.8738717e-09
5.8013573e-07
-5.1826547e-09
5.8073325e-07
-6.5378643e-09
5.8154268e-07
-7.9510192e-09
5.8259603e-07
-9.4338424e-09
5.8393648e-07
-1.0998197e-08
5.8562164e-07
-1.2656015e-08
5.877283e-07
-1.4419103e-08
5.9035947e-07
-1.6298275e-08
5.9365382e-07
-1.8302563e-08
5.9779233e-07
-2.046508e-08
6.0307134e-07
-2.2971819e-08
6.1052372e-07
-2.6037869e-08
6.2320286e-07
-2.7929967e-08
6.4034797e-07
-2.288356e-08
6.2706059e-07
-8.8224526e-09
4.9314338e-07
1.8286226e-07
5.4338347e-09
1.398039e-07
2.0363223e-08
4.3474517e-07
2.9432522e-08
6.1644213e-07
2.9299439e-08
6.566255e-07
2.6163734e-08
6.3924858e-07
2.3450402e-08
6.2136931e-07
2.1242296e-08
6.1117538e-07
1.9215706e-08
6.045451e-07
1.7292346e-08
5.9943301e-07
1.5468333e-08
5.953377e-07
1.3740031e-08
5.9204401e-07
1.2100617e-08
5.8938466e-07
1.0542183e-08
5.8723252e-07
9.0562253e-09
5.8549292e-07
7.63381e-09
5.8409476e-07
6.265753e-09
5.8298428e-07
4.9427653e-09
5.8212097e-07
3.65555e-09
5.8147467e-07
2.3948593e-09
5.8102367e-07
1.151521e-09
5.807534e-07
-8.3558361e-11
5.8065553e-07
-1.3194009e-09
5.8072755e-07
-2.5649703e-09
5.8097265e-07
-3.8291737e-09
5.8139994e-07
-5.120849e-09
5.8202493e-07
-6.4487259e-09
5.8287056e-07
-7.8213538e-09
5.8396866e-07
-9.2469867e-09
5.8536211e-07
-1.0733427e-08
5.8710808e-07
-1.2287872e-08
5.8928275e-07
-1.3916646e-08
5.9198824e-07
-1.562424e-08
5.9536141e-07
-1.7414173e-08
5.9958227e-07
-1.9322072e-08
6.0497924e-07
-2.1524988e-08
6.1272664e-07
-2.4080706e-08
6.2575858e-07
-2.5036664e-08
6.4130393e-07
-1.9408681e-08
6.2143261e-07
-6.7309899e-09
4.8046569e-07
1.7613127e-07
4.2429827e-09
1.3575908e-07
1.7345805e-08
4.2183517e-07
2.6447325e-08
6.0743546e-07
2.7239808e-08
6.5584344e-07
2.4685963e-08
6.4179213e-07
2.2256122e-08
6.2379502e-07
2.0275629e-08
6.1315561e-07
1.8457656e-08
6.0636323e-07
1.6711086e-08
6.0117961e-07
1.503121e-08
5.9701758e-07
1.3418597e-08
5.9365663e-07
1.1870641e-08
5.9093262e-07
1.0383282e-08
5.8871988e-07
8.9515318e-09
5.8692467e-07
7.5696213e-09
5.8547667e-07
6.2311891e-09
5.8432272e-07
4.9294593e-09
5.834227e-07
3.6573891e-09
5.8274674e-07
2.4077841e-09
5.8227328e-07
1.1733847e-09
5.819878e-07
-5.3065806e-11
5.8188199e-07
-1.2787667e-09
5.8195325e-07
-2.5108063e-09
5.8220469e-07
-3.7560969e-09
5.8264523e-07
-5.0212946e-09
5.8329013e-07
-6.3126894e-09
5.8416196e-07
-7.6360623e-09
5.8529204e-07
-8.9965039e-09
5.8672256e-07
-1.0398196e-08
5.8850977e-07
-1.1844208e-08
5.9072876e-07
-1.3336177e-08
5.9348021e-07
-1.4873439e-08
5.9689868e-07
-1.6455933e-08
6.0116476e-07
-1.8121919e-08
6.0664523e-07
-2.0028511e-08
6.1463324e-07
-2.2081807e-08
6.2781188e-07
-2.2226757e-08
6.4144888e-07
-1.6293716e-08
6.1549957e-07
-5.0406952e-09
4.6921268e-07
1.7109058e-07
3.3517961e-09
1.3265811e-07
1.4758761e-08
4.1068375e-07
2.3657509e-08
5.9866487e-07
2.5194061e-08
6.5432602e-07
2.3196488e-08
6.4377805e-07
2.1044745e-08
6.2594109e-07
1.927387e-08
6.1492591e-07
1.7649279e-08
6.07988e-07
1.607078e-08
6.0275817e-07
1.4531055e-08
5.9855731e-07
1.3033573e-08
5.9515411e-07
1.1579097e-08
5.923871e-07
1.0166732e-08
5.9013225e-07
8.7944549e-09
5.8829695e-07
7.4592424e-09
5.8681189e-07
6.1572416e-09
5.8562472e-07
4.8839652e-09
5.8469598e-07
3.6344677e-09
5.8399624e-07
2.4035008e-09
5.8350425e-07
1.1856452e-09
5.8320566e-07
-2.4574483e-11
5.8309221e-07
-1.2325832e-09
5.8316126e-07
-2.443654e-09
5.8341577e-07
-3.6627872e-09
5.8386436e-07
-4.894579e-09
5.8452192e-07
-6.1430579e-09
5.8541044e-07
-7.4114881e-09
5.8656047e-07
-8.7021405e-09
5.8801321e-07
-1.0016032e-08
5.8982367e-07
-1.1352682e-08
5.9206541e-07
-1.2709754e-08
5.9483729e-07
-1.4082391e-08
5.9827132e-07
-1.5468263e-08
6.0255064e-07
-1.6906904e-08
6.0808388e-07
-1.852595e-08
6.1625228e-07
-2.0094662e-08
6.2938059e-07
-1.9552917e-08
6.4090714e-07
-1.3528008e-08
6.0947467e-07
-3.6786702e-09
4.5936334e-07
1.6741192e-07
2.6742056e-09
1.3027979e-07
1.2529185e-08
4.0116104e-07
2.1061684e-08
5.9030262e-07
2.3184912e-08
6.5223375e-07
2.1714131e-08
6.4523632e-07
1.9838459e-08
6.2780936e-07
1.8263596e-08
6.1649976e-07
1.6817967e-08
6.0943382e-07
1.5397609e-08
6.041786e-07
1.3992003e-08
5.9996293e-07
1.2606623e-08
5.9653949e-07
1.1245006e-08
5.9374872e-07
9.9089044e-09
5.9146835e-07
8.5988079e-09
5.8960705e-07
7.3140575e-09
5.8809664e-07
6.0530081e-09
5.8688578e-07
4.8132252e-09
5.8593577e-07
3.5916811e-09
5.8521779e-07
2.3849362e-09
5.84711e-07
1.1893028e-09
5.844013e-07
9.9467734e-13
5.8428052e-07
-1.1837313e-09
5.8434599e-07
-2.3684303e-09
5.8460047e-07
-3.5563146e-09
5.8505225e-07
-4.7500819e-09
5.8571569e-07
-5.9517128e-09
5.8661208e-07
-7.1622356e-09
5.87771e-07
-8.3814629e-09
5.8923244e-07
-9.6076985e-09
5.9104991e-07
-1.0837451e-08
5.9329517e-07
-1.2065042e-08
5.9606488e-07
-1.3282215e-08
5.9948849e-07
-1.4485095e-08
6.0375352e-07
-1.5712175e-08
6.0931096e-07
-1.705435e-08
6.1759446e-07
-1.8164246e-08
6.3049049e-07
-1.7052387e-08
6.3979528e-07
-1.1093218e-08
6.035155e-07
-2.5845542e-09
4.5085468e-07
1.6482736e-07
2.1447349e-09
1.2846622e-07
1.0593109e-08
3.9313404e-07
1.8652767e-08
5.82465e-07
2.123073e-08
6.4970233e-07
2.0255687e-08
6.4619871e-07
1.8656079e-08
6.2939968e-07
1.7267447e-08
6.178868e-07
1.598759e-08
6.1071383e-07
1.4714893e-08
6.054514e-07
1.3436032e-08
6.012418e-07
1.2157947e-08
5.9781758e-07
1.0886545e-08
5.9502012e-07
9.6258512e-09
5.9272905e-07
8.3785007e-09
5.9085441e-07
7.1458721e-09
5.8932927e-07
5.9282493e-09
5.881034e-07
4.7250215e-09
5.87139e-07
3.5348926e-09
5.8640792e-07
2.3560794e-09
5.8588981e-07
1.1864968e-09
5.8557088e-07
2.3932835e-11
5.8544309e-07
-1.1337911e-09
5.8550372e-07
-2.288634e-09
5.8575532e-07
-3.4421682e-09
5.8620579e-07
-4.5953746e-09
5.868689e-07
-5.7484156e-09
5.8776512e-07
-6.9003754e-09
5.8892296e-07
-8.0489709e-09
5.9038104e-07
-9.1902355e-09
5.9219117e-07
-1.0318185e-08
5.9442312e-07
-1.1424387e-08
5.9717109e-07
-1.2497908e-08
6.0056202e-07
-1.3533663e-08
6.0478928e-07
-1.456638e-08
6.1034368e-07
-1.5645586e-08
6.1867367e-07
-1.6329658e-08
6.3117457e-07
-1.4754403e-08
6.3822003e-07
-8.9733803e-09
5.9773448e-07
-1.7145701e-09
4.4359588e-07
1.6311278e-07
1.7174283e-09
1.2710644e-07
8.9007457e-09
3.8647053e-07
1.6425206e-08
5.7522393e-07
1.9349294e-08
6.4684437e-07
1.8837792e-08
6.4669824e-07
1.7514119e-08
6.3071199e-07
1.6304219e-08
6.1909435e-07
1.5177824e-08
6.1184032e-07
1.4041913e-08
6.0658743e-07
1.2881447e-08
6.0240229e-07
1.1704531e-08
5.989945e-07
1.0519156e-08
5.962055e-07
9.3313322e-09
5.9391688e-07
8.1455424e-09
5.920402e-07
6.9649215e-09
5.905099e-07
5.7914333e-09
5.8927689e-07
4.6260781e-09
5.8830436e-07
3.4691102e-09
5.8756489e-07
2.320248e-09
5.8703868e-07
1.1788728e-09
5.8671226e-07
4.4218515e-11
5.8657775e-07
-1.0844446e-09
5.8663239e-07
-2.2076233e-09
5.868785e-07
-3.3254019e-09
5.8732357e-07
-4.4372281e-09
5.8798073e-07
-5.5416723e-09
5.8886957e-07
-6.6361553e-09
5.9001745e-07
-7.7166461e-09
5.9146154e-07
-8.7773306e-09
5.9325186e-07
-9.8102351e-09
5.9545603e-07
-1.080477e-08
5.9816563e-07
-1.1748036e-08
6.0150529e-07
-1.2633954e-08
6.056752e-07
-1.3490972e-08
6.112007e-07
-1.4325527e-08
6.1950823e-07
-1.4624369e-08
6.3147341e-07
-1.268398e-08
6.3627965e-07
-7.1595431e-09
5.9221005e-07
-1.041146e-09
4.3747748e-07
1.6207163e-07
1.3629998e-09
1.2612037e-07
7.4187061e-09
3.8103856e-07
1.4379046e-08
5.6861646e-07
1.7559134e-08
6.4375388e-07
1.7475962e-08
6.4677086e-07
1.6424981e-08
6.3174933e-07
1.538655e-08
6.201295e-07
1.440152e-08
6.1282535e-07
1.3391092e-08
6.0759801e-07
1.2339901e-08
6.0345351e-07
1.1257028e-08
6.0007738e-07
1.0152302e-08
5.9731023e-07
9.0334755e-09
5.9503571e-07
7.9066273e-09
5.9316705e-07
6.7764105e-09
5.9164012e-07
5.6462528e-09
5.9040705e-07
4.5185743e-09
5.8943204e-07
3.3950129e-09
5.8868846e-07
2.2766413e-09
5.8815705e-07
1.1641732e-09
5.8782473e-07
5.8163179e-11
5.8768376e-07
-1.0408007e-09
5.8773135e-07
-2.1318996e-09
5.879696e-07
-3.2138767e-09
5.8840555e-07
-4.2848161e-09
5.8905168e-07
-5.3418984e-09
5.8992665e-07
-6.3811274e-09
5.9105668e-07
-7.3970267e-09
5.9247744e-07
-8.3823087e-09
5.9423715e-07
-9.327477e-09
5.964012e-07
-1.0220363e-08
5.9905852e-07
-1.1046829e-08
6.0233176e-07
-1.1800097e-08
6.0642847e-07
-1.2500691e-08
6.119013e-07
-1.3113495e-08
6.2012104e-07
-1.3075741e-08
6.3143566e-07
-1.0862636e-08
6.3406655e-07
-5.6475674e-09
5.8699499e-07
-5.4774099e-10
4.3237766e-07
1.6152388e-07
1.064925e-09
1.2544499e-07
6.1295061e-09
3.7670237e-07
1.2522021e-08
5.6265195e-07
1.5880122e-08
6.4051211e-07
1.6183405e-08
6.4645926e-07
1.5395415e-08
6.3252122e-07
1.4519544e-08
6.2100098e-07
1.3663533e-08
6.136812e-07
1.2766917e-08
6.084948e-07
1.1815288e-08
6.0440518e-07
1.0818539e-08
6.0107413e-07
9.7880856e-09
5.9834069e-07
8.7332074e-09
5.9609059e-07
7.6613768e-09
5.9423888e-07
6.5785716e-09
5.9272292e-07
5.4895052e-09
5.9149612e-07
4.3978558e-09
5.9052369e-07
3.3064969e-09
5.8977981e-07
2.2177197e-09
5.8924583e-07
1.1334437e-09
5.8890901e-07
5.5422155e-11
5.8876178e-07
-1.0145586e-09
5.8880133e-07
-2.0744773e-09
5.8902952e-07
-3.1218655e-09
5.8945294e-07
-4.153586e-09
5.900834e-07
-5.1655898e-09
5.9093866e-07
-6.1526507e-09
5.9204374e-07
-7.1080719e-09
5.9343286e-07
-8.0233687e-09
5.9515245e-07
-8.8878839e-09
5.9726572e-07
-9.6883586e-09
5.9985899e-07
-1.0410048e-08
6.0305345e-07
-1.1045916e-08
6.0706434e-07
-1.1608295e-08
6.1246368e-07
-1.2025509e-08
6.2053825e-07
-1.1706646e-08
6.311168e-07
-9.3085048e-09
6.3166841e-07
-4.4330296e-09
5.8211952e-07
-2.1314685e-10
4.2815777e-07
1.6131073e-07
8.1588179e-10
1.2502424e-07
5.0294189e-09
3.7331579e-07
1.0871307e-08
5.5731548e-07
1.4336296e-08
6.3719278e-07
1.4974158e-08
6.4581654e-07
1.4430454e-08
6.3304664e-07
1.370551e-08
6.2172039e-07
1.2965936e-08
6.1442042e-07
1.2171299e-08
6.0928962e-07
1.1309022e-08
6.052675e-07
1.038966e-08
6.0199349e-07
9.4259894e-09
5.9930435e-07
8.4286573e-09
5.9708792e-07
7.4063899e-09
5.9526115e-07
6.3663542e-09
5.9376296e-07
5.314417e-09
5.9254806e-07
4.2553854e-09
5.9158272e-07
3.1932431e-09
5.9084196e-07
2.1313762e-09
5.903077e-07
1.0727898e-09
5.8996759e-07
2.0318155e-11
5.8981425e-07
-1.0231704e-09
5.8984482e-07
-2.0545672e-09
5.9006091e-07
-3.0703074e-09
5.9046868e-07
-4.066147e-09
5.9107924e-07
-5.0369235e-09
5.9190943e-07
-5.9762985e-09
5.9298312e-07
-6.8764809e-09
5.9433304e-07
-7.7279282e-09
5.9600389e-07
-8.5190052e-09
5.9805679e-07
-9.2356455e-09
6.0057563e-07
-9.8628711e-09
6.0368067e-07
-1.0393808e-08
6.0759528e-07
-1.0833762e-08
6.1290363e-07
-1.1082478e-08
6.2078697e-07
-1.0540589e-08
6.3057491e-07
-8.0369168e-09
6.2916474e-07
-3.509194e-09
5.775918e-07
-2.026607e-11
4.2466885e-07
1.6129046e-07
6.1531737e-10
1.2480234e-07
4.1250217e-09
3.7071574e-07
9.4546718e-09
5.52567e-07
1.2962035e-08
6.3386239e-07
1.3873066e-08
6.4490631e-07
1.3545728e-08
6.3335456e-07
1.2957306e-08
6.2230233e-07
1.2321539e-08
6.1505562e-07
1.16169e-08
6.0999444e-07
1.0833001e-08
6.0605145e-07
9.9810115e-09
6.0284548e-07
9.0749546e-09
6.0021041e-07
8.126788e-09
5.9803608e-07
7.1464386e-09
5.962415e-07
6.1421946e-09
5.947672e-07
5.1209919e-09
5.9356926e-07
4.0886685e-09
5.9261504e-07
3.0502092e-09
5.9188042e-07
2.009979e-09
5.9134793e-07
9.7194831e-10
5.9100562e-07
-6.0090222e-11
5.9084629e-07
-1.0823087e-09
5.9086704e-07
-2.0906299e-09
5.9106924e-07
-3.0805068e-09
5.9145856e-07
-4.0466942e-09
5.9204542e-07
-4.9830057e-09
5.9284575e-07
-5.88206e-09
5.9388217e-07
-6.7350134e-09
5.95186e-07
-7.5312743e-09
5.9680015e-07
-8.2582078e-09
5.9878373e-07
-8.9009382e-09
6.0121836e-07
-9.4442407e-09
6.0422398e-07
-9.8814939e-09
6.0803253e-07
-1.0212836e-08
6.1323497e-07
-1.0318521e-08
6.2089265e-07
-9.6063935e-09
6.2986279e-07
-7.0582562e-09
6.266166e-07
-2.8582546e-09
5.733918e-07
5.5861542e-11
4.2175474e-07
1.6134632e-07
4.6723545e-10
1.2472037e-07
3.4271754e-09
3.6872169e-07
8.3075773e-09
5.4833742e-07
1.1807296e-08
6.3057229e-07
1.2928215e-08
6.4379506e-07
1.2783634e-08
6.3348063e-07
1.2315275e-08
6.2276383e-07
1.1770335e-08
6.1559976e-07
1.1142871e-08
6.1062202e-07
1.0424717e-08
6.0676966e-07
9.6278241e-09
6.0364238e-07
8.7675591e-09
6.0107068e-07
7.8572635e-09
5.9894638e-07
6.9080988e-09
5.9719067e-07
5.9294623e-09
5.9574584e-07
4.9293082e-09
5.9456942e-07
3.914422e-09
5.9362993e-07
2.8906834e-09
5.9290416e-07
1.8633146e-09
5.923753e-07
8.3711749e-10
5.9203183e-07
-1.8329686e-10
5.9186671e-07
-1.1932843e-09
5.9187704e-07
-2.1879421e-09
5.920639e-07
-3.1618785e-09
5.924325e-07
-4.1089725e-09
5.9299252e-07
-5.0221194e-09
5.937589e-07
-5.8929653e-09
5.9475302e-07
-6.7116325e-09
5.9600467e-07
-7.4664254e-09
5.9755495e-07
-8.1435502e-09
5.9946086e-07
-8.7270656e-09
6.0180188e-07
-9.2010845e-09
6.04698e-07
-9.5586613e-09
6.0839011e-07
-9.7957694e-09
6.1347208e-07
-9.7798574e-09
6.2087674e-07
-8.9343191e-09
6.2901725e-07
-6.3703985e-09
6.2405268e-07
-2.4452453e-09
5.6946665e-07
4.6403817e-11
4.192631e-07
1.6139272e-07
3.7633876e-10
1.2471701e-07
2.9412823e-09
3.6714551e-07
7.4618619e-09
5.4452672e-07
1.0933085e-08
6.2734368e-07
1.2214036e-08
6.4253601e-07
1.2220654e-08
6.3345877e-07
1.1855157e-08
6.2312277e-07
1.1386597e-08
6.1606734e-07
1.0821174e-08
6.1118748e-07
1.0153133e-08
6.0743775e-07
9.3956798e-09
6.0439986e-07
8.5658307e-09
6.0190054e-07
7.6784913e-09
5.9983374e-07
6.7461351e-09
5.9812304e-07
5.7792711e-09
5.9671272e-07
4.7868158e-09
5.9556189e-07
3.776406e-09
5.9464036e-07
2.7546905e-09
5.9392589e-07
1.7276024e-09
5.9340241e-07
7.0061539e-10
5.9305883e-07
-3.2101189e-10
5.9288836e-07
-1.3319973e-09
5.9288804e-07
-2.326795e-09
5.9305872e-07
-3.299352e-09
5.9340508e-07
-4.2428492e-09
5.9393604e-07
-5.1494278e-09
5.946655e-07
-6.0098948e-09
5.9561351e-07
-6.813417e-09
5.9680821e-07
-7.5471867e-09
5.9828874e-07
-8.1960946e-09
6.0010978e-07
-8.7427727e-09
6.0234857e-07
-9.1699624e-09
6.051252e-07
-9.4688956e-09
6.0868906e-07
-9.6296911e-09
6.1363289e-07
-9.5073415e-09
6.207544e-07
-8.5397836e-09
6.280497e-07
-5.9474046e-09
6.2146031e-07
-2.2177063e-09
5.6573696e-07
-1.4055866e-11
4.1705946e-07
1.6137866e-07
3.4251602e-10
1.2473416e-07
2.6557016e-09
3.6581185e-07
6.9260244e-09
5.4101089e-07
1.0390467e-08
6.2415344e-07
1.1813182e-08
6.4114931e-07
1.1952092e-08
6.333094e-07
1.1673798e-08
6.2339532e-07
1.1264651e-08
6.1647533e-07
1.074252e-08
6.1170952e-07
1.0105137e-08
6.0807516e-07
9.3677543e-09
6.0513727e-07
8.5494612e-09
6.0271887e-07
7.6669155e-09
6.0071631e-07
6.7339465e-09
5.9905604e-07
5.7621291e-09
5.9768457e-07
4.7612373e-09
5.9656282e-07
3.7396164e-09
5.9566201e-07
2.7045189e-09
5.9496102e-07
1.6624074e-09
5.9444455e-07
6.1923322e-10
5.9410204e-07
-4.1930152e-10
5.9392692e-07
-1.4474914e-09
5.9391626e-07
-2.4593721e-09
5.9407063e-07
-3.4484632e-09
5.943942e-07
-4.4074899e-09
5.948951e-07
-5.3280822e-09
5.9558612e-07
-6.2004417e-09
5.964859e-07
-7.0129784e-09
5.9762077e-07
-7.7519012e-09
5.9902769e-07
-8.4007727e-09
6.0075868e-07
-8.9405168e-09
6.0288835e-07
-9.3516657e-09
6.0553638e-07
-9.6211072e-09
6.0895852e-07
-9.727509e-09
6.1373932e-07
-9.5054555e-09
6.2053237e-07
-8.3987592e-09
6.2694302e-07
-5.7284274e-09
6.1879e-07
-2.1088949e-09
5.6211745e-07
-9.4928586e-11
4.150455e-07
1.6128373e-07
3.5706655e-10
1.2472538e-07
2.5338553e-09
3.6458316e-07
6.6648845e-09
5.3766233e-07
1.0187021e-08
6.2093313e-07
1.1776358e-08
6.3960884e-07
1.2051174e-08
6.3302817e-07
1.18498e-08
6.2359145e-07
1.1481452e-08
6.168423e-07
1.0980853e-08
6.122099e-07
1.0351976e-08
6.0870404e-07
9.6132016e-09
6.0587609e-07