/*--------------------------------*- C++ -*----------------------------------*\
  =========                 |
  \\      /  F ield         | OpenFOAM: The Open Source CFD Toolbox
   \\    /   O peration     | Website:  https://openfoam.org
    \\  /    A nd           | Version:  10
     \\/     M anipulation  |
\*---------------------------------------------------------------------------*/
FoamFile
{
    format      ascii;
    class       surfaceScalarField;
    location    "0.06";
    object      phi_0;
}
// * * * * * * * * * * * * * * * * * * * * * * * * * * * * * * * * * * * * * //

dimensions      [1 0 -1 0 0 0 0];

internalField   nonuniform List<scalar> 
7860
(
3.9848399e-08
5.288598e-07
1.2157304e-08
5.9639875e-07
7.392295e-09
5.7347276e-07
5.4594169e-09
5.7064059e-07
4.0741949e-09
5.700929e-07
3.1609122e-09
5.6962094e-07
2.5201247e-09
5.6934843e-07
2.0420879e-09
5.6918566e-07
1.6743652e-09
5.6907534e-07
1.3843296e-09
5.6899764e-07
1.1501138e-09
5.6894181e-07
9.5689985e-10
5.689008e-07
7.9429965e-10
5.6887018e-07
6.5478793e-10
5.6884709e-07
5.3276394e-10
5.688296e-07
4.2394554e-10
5.6881639e-07
3.2496245e-10
5.6880655e-07
2.330745e-10
5.6879946e-07
1.4596856e-10
5.6879467e-07
6.1604706e-11
5.6879193e-07
-2.1907299e-11
5.6879108e-07
-1.06416e-10
5.6879207e-07
-1.9383811e-10
5.6879499e-07
-2.8626277e-10
5.6879999e-07
-3.8608618e-10
5.6880739e-07
-4.9617643e-10
5.6881766e-07
-6.2009641e-10
5.6883149e-07
-7.6241892e-10
5.688499e-07
-9.2919081e-10
5.6887435e-07
-1.1286437e-09
5.6890704e-07
-1.3723718e-09
5.6895132e-07
-1.6773119e-09
5.6901254e-07
-2.0686233e-09
5.6909892e-07
-2.5864052e-09
5.692254e-07
-3.3132584e-09
5.6943449e-07
-4.4057094e-09
5.6980011e-07
-5.9571106e-09
5.7025908e-07
-9.4593515e-09
5.7220995e-07
-2.9513613e-08
5.8876202e-07
5.3919431e-07
5.9559077e-08
4.6930172e-07
3.6535092e-08
6.1942234e-07
2.2505396e-08
5.8750231e-07
1.6126073e-08
5.7701992e-07
1.2161562e-08
5.7405741e-07
9.4791321e-09
5.7230337e-07
7.5543864e-09
5.7127317e-07
6.1188933e-09
5.7062116e-07
5.0166526e-09
5.7017758e-07
4.1473003e-09
5.6986699e-07
3.4452876e-09
5.6964383e-07
2.8662744e-09
5.6947982e-07
2.3790795e-09
5.6935738e-07
1.9611212e-09
5.6926505e-07
1.5956022e-09
5.6919512e-07
1.2696813e-09
5.6914231e-07
9.7325307e-10
5.6910298e-07
6.9810232e-10
5.6907461e-07
4.3729557e-10
5.6905548e-07
1.84719e-10
5.6904451e-07
-6.529362e-11
5.6904109e-07
-3.1828572e-10
5.6904507e-07
-5.7999345e-10
5.690567e-07
-8.5668097e-10
5.6907668e-07
-1.1555316e-09
5.6910624e-07
-1.4851437e-09
5.6914728e-07
-1.8562002e-09
5.6920255e-07
-2.2824143e-09
5.6927612e-07
-2.7819286e-09
5.6937387e-07
-3.3794504e-09
5.6950456e-07
-4.1096857e-09
5.6968156e-07
-5.0233789e-09
5.6992624e-07
-6.1976804e-09
5.7027323e-07
-7.7520547e-09
5.7077978e-07
-9.8905711e-09
5.7157301e-07
-1.3020955e-08
5.7293049e-07
-1.7959726e-08
5.7519785e-07
-2.8000075e-08
5.822503e-07
-4.5646153e-08
6.064081e-07
4.9354816e-07
5.9834093e-08
4.0947013e-07
5.0241622e-08
6.2901469e-07
3.3142582e-08
6.0460083e-07
2.4590367e-08
5.855721e-07
1.9094915e-08
5.7955288e-07
1.5107268e-08
5.7629102e-07
1.2144372e-08
5.7423607e-07
9.896026e-09
5.728695e-07
8.1482176e-09
5.7192539e-07
6.7573667e-09
5.7125785e-07
5.6270376e-09
5.7077416e-07
4.6901783e-09
5.7041668e-07
3.8987989e-09
5.7014876e-07
3.2177393e-09
5.6994611e-07
2.6206016e-09
5.6979226e-07
2.0870526e-09
5.6967586e-07
1.6009926e-09
5.6958904e-07
1.1492683e-09
5.6952633e-07
7.2073382e-10
5.6948402e-07
3.0553228e-10
5.6945971e-07
-1.0548715e-10
5.6945211e-07
-5.2127995e-10
5.6946086e-07
-9.5110516e-10
5.6948652e-07
-1.4050523e-09
5.6953063e-07
-1.8946516e-09
5.6959585e-07
-2.4336426e-09
5.6968627e-07
-3.0389966e-09
5.6980791e-07
-3.7323415e-09
5.6996946e-07
-4.5420286e-09
5.7018356e-07
-5.5062192e-09
5.7046876e-07
-6.6775716e-09
5.7085291e-07
-8.1309104e-09
5.7137958e-07
-9.9764737e-09
5.7211879e-07
-1.2377324e-08
5.7318063e-07
-1.5568183e-08
5.7476387e-07
-1.991337e-08
5.7727568e-07
-2.6387042e-08
5.8167153e-07
-3.8614392e-08
5.9447765e-07
-4.7910352e-08
6.1570406e-07
4.4563781e-07
5.4650201e-08
3.5482473e-07
5.7072781e-08
6.2659322e-07
4.0107712e-08
6.2156487e-07
3.0434226e-08
5.9524536e-07
2.4300842e-08
5.8568628e-07
1.9617724e-08
5.8097415e-07
1.5991473e-08
5.7786232e-07
1.3162114e-08
5.7569886e-07
1.0916659e-08
5.7417084e-07
9.1027978e-09
5.7307171e-07
7.6121548e-09
5.722648e-07
6.3658466e-09
5.7166299e-07
5.3057207e-09
5.7120889e-07
4.3882299e-09
5.708636e-07
3.580103e-09
5.7060039e-07
2.8553541e-09
5.7040061e-07
2.1931755e-09
5.7025123e-07
1.576411e-09
5.701431e-07
9.9041697e-10
5.7007001e-07
4.2217493e-10
5.7002796e-07
-1.4043897e-10
5.7001473e-07
-7.0930143e-10
5.7002973e-07
-1.2966703e-09
5.700739e-07
-1.9158489e-09
5.7014981e-07
-2.5819464e-09
5.7026195e-07
-3.3128189e-09
5.7041714e-07
-4.1302917e-09
5.7062538e-07
-5.0618113e-09
5.7090098e-07
-6.14275e-09
5.712645e-07
-7.4196964e-09
5.717457e-07
-8.9550647e-09
5.7238828e-07
-1.0833521e-08
5.7325803e-07
-1.3172437e-08
5.7445771e-07
-1.6134734e-08
5.7614293e-07
-1.9920666e-08
5.785498e-07
-2.4798927e-08
5.8215394e-07
-3.2013728e-08
5.8888633e-07
-4.4574973e-08
6.070389e-07
-4.6187416e-08
6.173165e-07
3.994504e-07
4.7691356e-08
3.0714125e-07
5.9551193e-08
6.147371e-07
4.4877326e-08
6.3623736e-07
3.4390226e-08
6.0573183e-07
2.7926012e-08
5.921505e-07
2.2958896e-08
5.8594128e-07
1.8993616e-08
5.8182761e-07
1.5813397e-08
5.7887908e-07
1.3232543e-08
5.767517e-07
1.1110905e-08
5.7519335e-07
9.3427434e-09
5.7403296e-07
7.8475296e-09
5.731582e-07
6.5638668e-09
5.7249255e-07
5.4444611e-09
5.7198301e-07
4.452332e-09
5.7159252e-07
3.5580504e-09
5.712949e-07
2.7376852e-09
5.7107159e-07
1.9712535e-09
5.7090953e-07
1.2415265e-09
5.7079974e-07
5.3307446e-10
5.7073641e-07
-1.68535e-10
5.7071634e-07
-8.7745625e-10
5.7073865e-07
-1.608265e-09
5.7080471e-07
-2.3766931e-09
5.7091824e-07
-3.2004569e-09
5.7108571e-07
-4.1002572e-09
5.7131694e-07
-5.1010384e-09
5.7162617e-07
-6.2336231e-09
5.7203357e-07
-7.5368678e-09
5.7256775e-07
-9.0605748e-09
5.7326941e-07
-1.086932e-08
5.7419703e-07
-1.3046933e-08
5.7543565e-07
-1.5703039e-08
5.7711381e-07
-1.8983187e-08
5.7942308e-07
-2.3060944e-08
5.8262756e-07
-2.8237826e-08
5.8733083e-07
-3.60613e-08
5.967098e-07
-4.7713585e-08
6.1869119e-07
-4.2725715e-08
6.1232864e-07
3.5672468e-07
4.0020953e-08
2.6713204e-07
5.8315511e-08
5.9645055e-07
4.7613037e-08
6.4693866e-07
3.6933807e-08
6.1640975e-07
3.0302284e-08
5.9878191e-07
2.5288909e-08
5.909547e-07
2.1203949e-08
5.8591257e-07
1.7850805e-08
5.8223223e-07
1.5075195e-08
5.7952731e-07
1.2754175e-08
5.7751437e-07
1.0791089e-08
5.7599605e-07
9.1100846e-09
5.7483921e-07
7.6515967e-09
5.7395104e-07
6.3684118e-09
5.732662e-07
5.222688e-09
5.7273824e-07
4.1836703e-09
5.7233392e-07
3.2258949e-09
5.7202937e-07
2.3277767e-09
5.7180765e-07
1.4704788e-09
5.7165704e-07
6.369814e-10
5.7156991e-07
-1.887196e-10
5.7154204e-07
-1.0223405e-09
5.7157227e-07
-1.8800227e-09
5.7166239e-07
-2.7790747e-09
5.7181729e-07
-3.7387933e-09
5.7204543e-07
-4.7814276e-09
5.7235958e-07
-5.9333541e-09
5.7277809e-07
-7.2265399e-09
5.7332676e-07
-8.7003771e-09
5.7404158e-07
-1.0404033e-08
5.7497307e-07
-1.2399542e-08
5.7619254e-07
-1.4765301e-08
5.7780141e-07
-1.7600207e-08
5.7994872e-07
-2.1030801e-08
5.8285368e-07
-2.5216454e-08
5.8681321e-07
-3.0558017e-08
5.9267239e-07
-3.86511e-08
6.0480289e-07
-4.8171059e-08
6.2821115e-07
-3.8002501e-08
6.0216008e-07
3.1872218e-07
3.2510345e-08
2.3463816e-07
5.4411886e-08
5.7456321e-07
4.8290377e-08
6.5306019e-07
3.8204888e-08
6.2649304e-07
3.1626398e-08
6.0536002e-07
2.6748556e-08
5.9583259e-07
2.2708968e-08
5.8995218e-07
1.9320209e-08
5.8562099e-07
1.6463568e-08
5.8238395e-07
1.4035712e-08
5.7994223e-07
1.1952057e-08
5.7807971e-07
1.0144743e-08
5.7664653e-07
8.5590849e-09
5.755367e-07
7.150577e-09
5.7467471e-07
5.8826913e-09
5.7400613e-07
4.725094e-09
5.7349152e-07
3.6521854e-09
5.7310228e-07
2.6419067e-09
5.7281793e-07
1.6747501e-09
5.726242e-07
7.3291604e-10
5.7251174e-07
-2.0043176e-10
5.7247539e-07
-1.1418509e-09
5.7251369e-07
-2.1082976e-09
5.7262884e-07
-3.1178247e-09
5.7282682e-07
-4.190339e-09
5.7311795e-07
-5.3484695e-09
5.7351771e-07
-6.618589e-09
5.7404822e-07
-8.0320488e-09
5.7474022e-07
-9.6266699e-09
5.7563621e-07
-1.1448569e-08
5.7679497e-07
-1.3554611e-08
5.7829858e-07
-1.601539e-08
5.8026219e-07
-1.8917403e-08
5.8285074e-07
-2.2364288e-08
5.8630056e-07
-2.6500122e-08
5.9094905e-07
-3.1823779e-08
5.9799605e-07
-3.9685783e-08
6.1266489e-07
-4.6411492e-08
6.3493686e-07
-3.2693206e-08
5.8844179e-07
2.8602898e-07
2.5801432e-08
2.0885899e-07
4.9127715e-08
5.5125948e-07
4.7296403e-08
6.5489414e-07
3.8394606e-08
6.3539167e-07
3.2066442e-08
6.116873e-07
2.7453336e-08
6.0044574e-07
2.3589222e-08
5.9381633e-07
2.0276547e-08
5.8893367e-07
1.7431871e-08
5.8522863e-07
1.4974562e-08
5.8239954e-07
1.2834626e-08
5.8021965e-07
1.0954264e-08
5.7852689e-07
9.2855221e-09
5.7720545e-07
7.7883315e-09
5.761719e-07
6.4290106e-09
5.7536546e-07
5.1789677e-09
5.7474156e-07
4.0135908e-09
5.7426766e-07
2.9113063e-09
5.7392022e-07
1.852766e-09
5.7368274e-07
8.2013149e-10
5.7354438e-07
-2.035747e-10
5.734991e-07
-1.2350759e-09
5.735452e-07
-2.2914454e-09
5.7368521e-07
-3.3907228e-09
5.739261e-07
-4.5525744e-09
5.742798e-07
-5.7990275e-09
5.7476417e-07
-7.1553111e-09
5.754045e-07
-8.6508379e-09
5.7623575e-07
-1.0320359e-08
5.7730573e-07
-1.2205291e-08
5.786799e-07
-1.435543e-08
5.8044873e-07
-1.6831184e-08
5.8273795e-07
-1.9703799e-08
5.8572335e-07
-2.3051766e-08
5.8964853e-07
-2.7010398e-08
5.9490769e-07
-3.2152455e-08
6.0313811e-07
-3.9368276e-08
6.1988072e-07
-4.3223425e-08
6.3879201e-07
-2.741503e-08
5.726334e-07
2.5861395e-07
2.0148812e-08
1.8873974e-07
4.3402194e-08
5.2803949e-07
4.5159477e-08
6.5314395e-07
3.7775733e-08
6.4277143e-07
3.1832469e-08
6.1762889e-07
2.7544161e-08
6.0473401e-07
2.3938264e-08
5.974223e-07
2.0784082e-08
5.9208786e-07
1.8023833e-08
5.8798888e-07
1.5599706e-08
5.8482367e-07
1.3457306e-08
5.8236205e-07
1.1549866e-08
5.8043433e-07
9.837222e-09
5.7891809e-07
8.2848167e-09
5.7772431e-07
6.8628358e-09
5.7678744e-07
5.5453652e-09
5.7605903e-07
4.3096272e-09
5.755034e-07
3.1352946e-09
5.7509456e-07
2.0038686e-09
5.7481417e-07
8.9810831e-10
5.7465014e-07
-1.9849988e-10
5.7459571e-07
-1.3022488e-09
5.7464895e-07
-2.4297173e-09
5.7481268e-07
-3.5982842e-09
5.7509467e-07
-4.826668e-09
5.7550819e-07
-6.1355129e-09
5.7607301e-07
-7.5480332e-09
5.7681702e-07
-9.0907349e-09
5.7777845e-07
-1.0794232e-08
5.7900923e-07
-1.2694108e-08
5.8057978e-07
-1.4831895e-08
5.8258651e-07
-1.7256417e-08
5.8516247e-07
-2.0022683e-08
5.8848962e-07
-2.3188102e-08
5.9281395e-07
-2.689341e-08
5.98613e-07
-3.1741008e-08
6.0798571e-07
-3.8032266e-08
6.2617198e-07
-3.9265441e-08
6.4002519e-07
-2.2520661e-08
5.5588862e-07
2.3609329e-07
1.5558257e-08
1.7322055e-07
3.7775073e-08
5.0586987e-07
4.231642e-08
6.4861641e-07
3.6586696e-08
6.4849675e-07
3.1124192e-08
6.2308863e-07
2.7174108e-08
6.0868387e-07
2.3863441e-08
6.0073306e-07
2.0917937e-08
5.9503339e-07
1.8292238e-08
5.9061458e-07
1.5948176e-08
5.8716773e-07
1.384587e-08
5.8446436e-07
1.1949233e-08
5.8233097e-07
1.0226095e-08
5.8064123e-07
8.6478705e-09
5.7930254e-07
7.1891672e-09
5.7824614e-07
5.8273368e-09
5.7742087e-07
4.5420189e-09
5.7678872e-07
3.3146939e-09
5.7632188e-07
2.1282467e-09
5.7600062e-07
9.6654684e-10
5.7581185e-07
-1.8595714e-10
5.7574822e-07
-1.3446322e-09
5.7580763e-07
-2.5250595e-09
5.7599311e-07
-3.7434336e-09
5.7631305e-07
-5.0169747e-09
5.7678173e-07
-6.36436e-09
5.774204e-07
-7.8061762e-09
5.7825884e-07
-9.3653925e-09
5.7933767e-07
-1.1067868e-08
5.8071171e-07
-1.2942842e-08
5.8245476e-07
-1.5023372e-08
5.8466705e-07
-1.7346918e-08
5.8748602e-07
-1.9953539e-08
5.9109624e-07
-2.2886497e-08
5.9574691e-07
-2.6301478e-08
6.0202798e-07
-3.0771552e-08
6.1245578e-07
-3.5973035e-08
6.3137346e-07
-3.4979151e-08
6.390313e-07
-1.8177243e-08
5.3908672e-07
2.1791605e-07
1.1929911e-08
1.6134359e-07
3.2542008e-08
4.8532255e-07
3.9093902e-08
6.4208783e-07
3.5002509e-08
6.5258405e-07
3.0091621e-08
6.2799537e-07
2.6475066e-08
6.1229984e-07
2.3466858e-08
6.0374139e-07
2.0754503e-08
5.9774578e-07
1.8293746e-08
5.9307534e-07
1.6061676e-08
5.893998e-07
1.403079e-08
5.8649525e-07
1.2174478e-08
5.8418729e-07
1.0468056e-08
5.8234766e-07
8.8888153e-09
5.8088178e-07
7.4159286e-09
5.7971903e-07
6.0302848e-09
5.7880651e-07
4.7142798e-09
5.7810473e-07
3.4515706e-09
5.7758459e-07
2.226806e-09
5.7722539e-07
1.0253487e-09
5.770133e-07
-1.6700765e-10
5.7694058e-07
-1.36432e-09
5.7700494e-07
-2.5807841e-09
5.7720958e-07
-3.8310196e-09
5.7756329e-07
-5.1303543e-09
5.7808107e-07
-6.4951103e-09
5.7878516e-07
-7.942882e-09
5.7970661e-07
-9.4927992e-09
5.8088759e-07
-1.1165783e-08
5.8238469e-07
-1.2984778e-08
5.8427375e-07
-1.4974868e-08
5.8665714e-07
-1.7163232e-08
5.8967438e-07
-1.9577108e-08
5.9351012e-07
-2.2251789e-08
5.984216e-07
-2.5358765e-08
6.0513496e-07
-2.9385694e-08
6.1648271e-07
-3.343262e-08
6.3542039e-07
-3.0663434e-08
6.3626212e-07
-1.44434e-08
5.2286668e-07
2.0347265e-07
9.1246536e-09
1.5229498e-07
2.785166e-08
4.6668325e-07
3.5735262e-08
6.3424041e-07
3.3158282e-08
6.5515828e-07
2.884226e-08
6.3230563e-07
2.5548894e-08
6.1559207e-07
2.2833978e-08
6.0645642e-07
2.0362209e-08
6.0021761e-07
1.808229e-08
5.9535527e-07
1.5982034e-08
5.9150006e-07
1.4044079e-08
5.884332e-07
1.2249857e-08
5.8598151e-07
1.0581312e-08
5.840162e-07
9.021167e-09
5.8244193e-07
7.5529976e-09
5.811872e-07
6.1612488e-09
5.8019826e-07
4.8312044e-09
5.7943477e-07
3.5488956e-09
5.7886691e-07
2.3009722e-09
5.7847331e-07
1.0745479e-09
5.7823973e-07
-1.429691e-10
5.781581e-07
-1.3640528e-09
5.7822603e-07
-2.601242e-09
5.7844677e-07
-3.8673174e-09
5.7882936e-07
-5.1754693e-09
5.7938922e-07
-6.5394531e-09
5.8014915e-07
-7.9737217e-09
5.8114089e-07
-9.4935224e-09
5.8240739e-07
-1.1114964e-08
5.8400614e-07
-1.2855069e-08
5.8601386e-07
-1.4731698e-08
5.8853377e-07
-1.676301e-08
5.917057e-07
-1.8965731e-08
5.9571285e-07
-2.1371966e-08
6.0082783e-07
-2.4163568e-08
6.0792656e-07
-2.7701815e-08
6.2002096e-07
-3.0615078e-08
6.3833366e-07
-2.6520359e-08
6.321674e-07
-1.1310992e-08
5.0765732e-07
1.9216166e-07
6.9928981e-09
1.4541543e-07
2.3748447e-08
4.5004612e-07
3.2408302e-08
6.2563372e-07
3.11613e-08
6.5640526e-07
2.7456169e-08
6.3600321e-07
2.4473624e-08
6.1857265e-07
2.2033919e-08
6.0889619e-07
1.9799059e-08
6.0245257e-07
1.7705744e-08
5.974486e-07
1.5748076e-08
5.9345773e-07
1.3916702e-08
5.9026458e-07
1.2199724e-08
5.8769849e-07
1.0584768e-08
5.8563116e-07
9.0593935e-09
5.839673e-07
7.6112398e-09
5.8263536e-07
6.2281594e-09
5.8158135e-07
4.8983001e-09
5.8076463e-07
3.6101275e-09
5.8015508e-07
2.3524057e-09
5.7973104e-07
1.1141466e-09
5.7947799e-07
-1.154629e-10
5.7938771e-07
-1.3471436e-09
5.7945771e-07
-2.5916123e-09
5.7969124e-07
-3.8596617e-09
5.8009742e-07
-5.1622274e-09
5.8069179e-07
-6.5104315e-09
5.8149735e-07
-7.9155973e-09
5.8254605e-07
-9.3892186e-09
5.8388102e-07
-1.0942889e-08
5.8555981e-07
-1.2588225e-08
5.876592e-07
-1.4336666e-08
5.9028221e-07
-1.619863e-08
5.9356766e-07
-1.8182764e-08
5.9769698e-07
-2.0321419e-08
6.0296649e-07
-2.2797653e-08
6.104028e-07
-2.5823208e-08
6.2304652e-07
-2.7683209e-08
6.4019366e-07
-2.2669668e-08
6.2715386e-07
-8.7290602e-09
4.9371671e-07
1.8343261e-07
5.3920319e-09
1.401881e-07
2.0207898e-08
4.3539016e-07
2.9212376e-08
6.167045e-07
2.9090478e-08
6.565316e-07
2.5991766e-08
6.3909252e-07
2.3308442e-08
6.2125292e-07
2.1122259e-08
6.1108232e-07
1.9113605e-08
6.0446136e-07
1.7205541e-08
5.9935668e-07
1.539453e-08
5.9526874e-07
1.3677266e-08
5.9198184e-07
1.2047262e-08
5.893285e-07
1.0496913e-08
5.8718151e-07
9.0179772e-09
5.8544624e-07
7.6017455e-09
5.8405159e-07
6.23923e-09
5.8294386e-07
4.9213141e-09
5.8208255e-07
3.6388557e-09
5.8143754e-07
2.3827499e-09
5.8098715e-07
1.1439601e-09
5.8071679e-07
-8.6473658e-11
5.8061814e-07
-1.3174384e-09
5.8068868e-07
-2.5577555e-09
5.8093156e-07
-3.8161781e-09
5.8135584e-07
-5.1013723e-09
5.8197699e-07
-6.4218708e-09
5.8281785e-07
-7.7859914e-09
5.8391018e-07
-9.2017123e-09
5.8529674e-07
-1.0676502e-08
5.870346e-07
-1.2217155e-08
5.8919986e-07
-1.3829506e-08
5.9189457e-07
-1.551749e-08
5.9525565e-07
-1.7284009e-08
5.994635e-07
-1.9163429e-08
6.0484591e-07
-2.1329024e-08
6.1256839e-07
-2.3835974e-08
6.2555347e-07
-2.4755426e-08
6.4111311e-07
-1.9166122e-08
6.2156456e-07
-6.6247067e-09
4.811753e-07
1.7680791e-07
4.1956582e-09
1.3621531e-07
1.7169563e-08
4.2263109e-07
2.6195044e-08
6.0778286e-07
2.6998808e-08
6.5573891e-07
2.4489079e-08
6.4159107e-07
2.209647e-08
6.236411e-07
2.0142882e-08
6.1303564e-07
1.8346208e-08
6.062582e-07
1.6617341e-08
6.0108559e-07
1.4952204e-08
5.9693388e-07
1.3351863e-08
5.9358219e-07
1.1814176e-08
5.9086619e-07
1.0335482e-08
5.8866021e-07
8.9111256e-09
5.868706e-07
7.5356159e-09
5.8542711e-07
6.2028268e-09
5.8427666e-07
4.906186e-09
5.833792e-07
3.6388311e-09
5.827049e-07
2.393732e-09
5.8223225e-07
1.1637845e-09
5.8194674e-07
-5.8116455e-11
5.8184005e-07
-1.2790171e-09
5.8190958e-07
-2.5058452e-09
5.8215839e-07
-3.7453396e-09
5.8259534e-07
-5.0039622e-09
5.8323561e-07
-6.2877799e-09
5.8410167e-07
-7.6023093e-09
5.8522471e-07
-8.9523207e-09
5.8664675e-07
-1.0341601e-08
5.8842389e-07
-1.1772726e-08
5.9063098e-07
-1.324672e-08
5.9336856e-07
-1.4762177e-08
5.9677111e-07
-1.631812e-08
6.0101945e-07
-1.795094e-08
6.0647874e-07
-1.9813125e-08
6.1443058e-07
-2.1809205e-08
6.2754955e-07
-2.1912909e-08
6.4121682e-07
-1.6022842e-08
6.156745e-07
-4.9200687e-09
4.7007253e-07
1.7188785e-07
3.2970464e-09
1.3319616e-07
1.456042e-08
4.116524e-07
2.3372802e-08
5.9911099e-07
2.4921328e-08
6.5421084e-07
2.2975524e-08
6.4352424e-07
2.0868912e-08
6.2574166e-07
1.9130392e-08
6.1477355e-07
1.7530614e-08
6.0785817e-07
1.5972187e-08
6.0264407e-07
1.4448821e-08
5.9845725e-07
1.2964693e-08
5.9506632e-07
1.1521175e-08
5.9230971e-07
1.0117875e-08
5.9006351e-07
8.7531784e-09
5.882353e-07
7.424392e-09
5.867559e-07
6.1279387e-09
5.8557311e-07
4.8595655e-09
5.8464757e-07
3.6145331e-09
5.8394993e-07
2.3877799e-09
5.83459e-07
1.1740623e-09
5.8316046e-07
-3.1924428e-11
5.8304604e-07
-1.2354341e-09
5.8311309e-07
-2.4415602e-09
5.8336452e-07
-3.6551107e-09
5.8380889e-07
-4.8804675e-09
5.8446097e-07
-6.1214125e-09
5.8534262e-07
-7.380918e-09
5.8648422e-07
-8.6608988e-09
5.8792674e-07
-9.9619262e-09
5.8972492e-07
-1.128295e-08
5.9195201e-07
-1.2620907e-08
5.9470652e-07
-1.3970017e-08
5.9812022e-07
-1.5326691e-08
6.0237613e-07
-1.6727902e-08
6.0787995e-07
-1.8295819e-08
6.159985e-07
-1.9799247e-08
6.2905298e-07
-1.9211361e-08
6.4062894e-07
-1.3231787e-08
6.0969493e-07
-3.5438957e-09
4.6038464e-07
1.6834395e-07
2.6105187e-09
1.3090876e-07
1.230874e-08
4.0232318e-07
2.0746422e-08
5.9086006e-07
2.2883272e-08
6.5210724e-07
2.1472348e-08
6.4492162e-07
1.9650075e-08
6.2755606e-07
1.811318e-08
6.1630938e-07
1.6695782e-08
6.0927576e-07
1.5297643e-08
6.0404229e-07
1.3909768e-08
5.9984513e-07
1.2538579e-08
5.9643751e-07
1.1188372e-08
5.9365992e-07
9.8615021e-09
5.9139039e-07
8.5589383e-09
5.8953787e-07
7.2804018e-09
5.8803444e-07
6.0245608e-09
5.8682896e-07
4.7892456e-09
5.8588289e-07
3.5716605e-09
5.8516752e-07
2.3685757e-09
5.8466209e-07
1.1765003e-09
5.8435254e-07
-8.1616245e-12
5.842307e-07
-1.1889599e-09
5.8429389e-07
-2.3692531e-09
5.8454482e-07
-3.5520417e-09
5.8499168e-07
-4.7397894e-09
5.8564872e-07
-5.9342102e-09
5.8653705e-07
-7.1360195e-09
5.8768603e-07
-8.344649e-09
5.8913537e-07
-9.5579256e-09
5.909382e-07
-1.0771741e-08
5.9316583e-07
-1.1979613e-08
5.959144e-07
-1.3172227e-08
5.9931284e-07
-1.4344126e-08
6.0354803e-07
-1.5530542e-08
6.0906637e-07
-1.6816122e-08
6.1728409e-07
-1.7854021e-08
6.3009089e-07
-1.6691732e-08
6.3946665e-07
-1.0778665e-08
6.0378186e-07
-2.4389573e-09
4.5204494e-07
1.6590499e-07
2.0718641e-09
1.2919403e-07
1.0352764e-08
3.9450769e-07
1.8311709e-08
5.831443e-07
2.0905851e-08
6.4956308e-07
1.9998686e-08
6.4581504e-07
1.846045e-08
6.2908439e-07
1.7115007e-08
6.1765313e-07
1.5866338e-08
6.105246e-07
1.4617568e-08
6.0529117e-07
1.3357435e-08
6.0110528e-07
1.2094057e-08
5.9770089e-07
1.0834229e-08
5.9491975e-07
9.5826675e-09
5.9264195e-07
8.3425417e-09
5.90778e-07
7.1156547e-09
5.8926133e-07
5.9026377e-09
5.8804198e-07
4.7031746e-09
5.8708236e-07
3.5162273e-09
5.8635448e-07
2.3402467e-09
5.8583808e-07
1.1733675e-09
5.8551942e-07
1.3590904e-11
5.8539048e-07
-1.1410494e-09
5.8544854e-07
-2.2922923e-09
5.8569606e-07
-3.4414769e-09
5.8614087e-07
-4.5893298e-09
5.8679658e-07
-5.7357272e-09
5.8768345e-07
-6.8794221e-09
5.8882973e-07
-8.0177353e-09
5.9027369e-07
-9.146211e-09
5.9206668e-07
-1.0258236e-08
5.9427786e-07
-1.1344555e-08
5.9700072e-07
-1.2393128e-08
6.0036142e-07
-1.3397079e-08
6.0455198e-07
-1.4387327e-08
6.1005662e-07
-1.5406657e-08
6.1830342e-07
-1.6014834e-08
6.3069907e-07
-1.4387086e-08
6.3783891e-07
-8.652698e-09
5.9804748e-07
-1.5656988e-09
4.4495794e-07
1.6433928e-07
1.6369623e-09
1.2793869e-07
8.6459421e-09
3.8806893e-07
1.6066428e-08
5.7603293e-07
1.9009186e-08
6.466911e-07
1.8572137e-08
6.4623883e-07
1.7316349e-08
6.3032798e-07
1.6153743e-08
6.1881324e-07
1.5060653e-08
6.1161779e-07
1.3949755e-08
6.064022e-07
1.280855e-08
6.0224651e-07
1.1646489e-08
5.9886296e-07
1.047254e-08
5.960937e-07
9.2934616e-09
5.9382103e-07
8.1143127e-09
5.9195715e-07
6.9386897e-09
5.9043695e-07
5.7689358e-09
5.8921174e-07
4.6063752e-09
5.8824492e-07
3.4515474e-09
5.8750931e-07
2.3044309e-09
5.869852e-07
1.1646513e-09
5.866592e-07
3.1679696e-11
5.8652346e-07
-1.0949768e-09
5.865752e-07
-2.2155804e-09
5.8681667e-07
-3.3299565e-09
5.8725525e-07
-4.4372725e-09
5.879039e-07
-5.5357867e-09
5.8878197e-07
-6.6225657e-09
5.8991651e-07
-7.6931642e-09
5.9134429e-07
-8.7412716e-09
5.9311479e-07
-9.758296e-09
5.9529489e-07
-1.0732853e-08
5.9797528e-07
-1.1650988e-08
6.0127956e-07
-1.2504814e-08
6.0540581e-07
-1.3318795e-08
6.1087061e-07
-1.409287e-08
6.190775e-07
-1.4316323e-08
6.3092252e-07
-1.2325629e-08
6.3584822e-07
-6.8495022e-09
5.9257136e-07
-9.0011686e-10
4.3900856e-07
1.6343916e-07
1.2783571e-09
1.2705876e-07
7.1587241e-09
3.8286778e-07
1.4014284e-08
5.6955999e-07
1.7213458e-08
6.4358718e-07
1.7207493e-08
6.4623272e-07
1.6227916e-08
6.3129282e-07
1.5239118e-08
6.1979854e-07
1.4288491e-08
6.1256842e-07
1.3303504e-08
6.0738734e-07
1.2271619e-08
6.0327842e-07
1.120335e-08
5.9993123e-07
1.0109538e-08
5.9718751e-07
8.9987186e-09
5.9493186e-07
7.8775824e-09
5.9307829e-07
6.7512791e-09
5.9156326e-07
5.6236497e-09
5.9033937e-07
4.4974698e-09
5.893711e-07
3.3746917e-09
5.8863209e-07
2.2566747e-09
5.8810321e-07
1.1444023e-09
5.8777148e-07
3.8691e-11
5.8762917e-07
-1.0596079e-09
5.876735e-07
-2.1494039e-09
5.8790647e-07
-3.2291508e-09
5.88335e-07
-4.2966178e-09
5.8897137e-07
-5.3486357e-09
5.8983399e-07
-6.3808138e-09
5.9094869e-07
-7.3872233e-09
5.923507e-07
-8.3600507e-09
5.9408762e-07
-9.2891769e-09
5.9622402e-07
-1.0161669e-08
5.9884778e-07
-1.096242e-08
6.0208031e-07
-1.1683021e-08
6.0612642e-07
-1.2340427e-08
6.1152801e-07
-1.2894508e-08
6.1963158e-07
-1.2787118e-08
6.3081514e-07
-1.053141e-08
6.3359251e-07
-5.3670946e-09
5.8740705e-07
-4.2697496e-10
4.3406844e-07
1.6301218e-07
9.809835e-10
1.2648585e-07
5.8775622e-09
3.7875808e-07
1.2167577e-08
5.6373074e-07
1.5541024e-08
6.4033658e-07
1.5917894e-08
6.4584593e-07
1.5200467e-08
6.3199295e-07
1.4374547e-08
6.2061985e-07
1.3553155e-08
6.1338966e-07
1.2681848e-08
6.0825883e-07
1.1749065e-08
6.0421124e-07
1.0766151e-08
6.0091414e-07
9.7455554e-09
5.9820811e-07
8.6973768e-09
5.9598003e-07
7.6297466e-09
5.9414592e-07
6.5491849e-09
5.9264382e-07
5.46086e-09
5.9142769e-07
4.3688423e-09
5.9046312e-07
3.2763502e-09
5.8972458e-07
2.1859874e-09
5.8919358e-07
1.0999658e-09
5.888575e-07
2.0322482e-11
5.8870881e-07
-1.0508703e-09
5.8874469e-07
-2.1112934e-09
5.8896689e-07
-3.158157e-09
5.8938186e-07
-4.1879689e-09
5.9000118e-07
-5.19628e-09
5.908423e-07
-6.1774081e-09
5.9192982e-07
-7.1241322e-09
5.9329743e-07
-8.0273638e-09
5.9499085e-07
-8.8757546e-09
5.9707241e-07
-9.6552406e-09
5.9962726e-07
-1.0350117e-08
6.0277519e-07
-1.0951967e-08
6.0672827e-07
-1.1470579e-08
6.1204663e-07
-1.1832169e-08
6.1999318e-07
-1.1453679e-08
6.3043665e-07
-9.0248632e-09
6.311637e-07
-4.200066e-09
5.8258226e-07
-1.1987021e-10
4.2998825e-07
1.628923e-07
7.3868141e-10
1.2615748e-07
4.8022482e-09
3.755794e-07
1.0549544e-08
5.585234e-07
1.4022058e-08
6.3701709e-07
1.4722674e-08
6.4513935e-07
1.4243966e-08
6.3245248e-07
1.3567509e-08
6.2129064e-07
1.2862153e-08
6.1409468e-07
1.2092148e-08
6.0902902e-07
1.1247529e-08
6.0505591e-07
1.0340351e-08
6.0182132e-07
9.3844954e-09
5.9916396e-07
8.3915061e-09
5.9697302e-07
7.3708474e-09
5.9516657e-07
6.330296e-09
5.9368437e-07
5.2762279e-09
5.9248176e-07
4.2138821e-09
5.9152547e-07
3.1476159e-09
5.9079084e-07
2.0811477e-09
5.9026004e-07
1.0177888e-09
5.8992085e-07
-3.933195e-11
5.8976593e-07
-1.0870491e-09
5.8979241e-07
-2.1219406e-09
5.9000178e-07
-3.1400979e-09
5.9040002e-07
-4.1368885e-09
5.9099797e-07
-5.1066988e-09
5.9181211e-07
-6.0426624e-09
5.9286578e-07
-6.9363655e-09
5.9419113e-07
-7.7775325e-09
5.9583201e-07
-8.5536816e-09
5.9784855e-07
-9.2497725e-09
6.0032335e-07
-9.8496936e-09
6.0337511e-07
-1.0345289e-08
6.0722386e-07
-1.0740616e-08
6.1244195e-07
-1.0936973e-08
6.2018953e-07
-1.0346303e-08
6.2984598e-07
-7.8227894e-09
6.2864019e-07
-3.3382778e-09
5.7809775e-07
4.0224373e-11
4.2660975e-07
1.6293252e-07
5.517731e-10
1.2601098e-07
3.9412902e-09
3.7315192e-07
9.1943455e-09
5.538864e-07
1.2701917e-08
6.3369487e-07
1.3660768e-08
6.4418151e-07
1.33896e-08
6.327042e-07
1.2846924e-08
6.2182697e-07
1.2244281e-08
6.1469677e-07
1.1562598e-08
6.0971087e-07
1.07938e-08
6.0582475e-07
9.9507394e-09
6.0266438e-07
9.0487302e-09
6.0006597e-07
8.1007783e-09
5.9792097e-07
7.1176675e-09
5.9614969e-07
6.108382e-09
5.9469366e-07
5.080426e-09
5.9350972e-07
4.0401045e-09
5.9256579e-07
2.9927933e-09
5.9183816e-07
1.9431938e-09
5.9130965e-07
8.9557786e-10
5.9096847e-07
-1.4597731e-10
5.9080749e-07
-1.1773585e-09
5.9082379e-07
-2.1941852e-09
5.9101861e-07
-3.1915708e-09
5.9139741e-07
-4.1638735e-09
5.9197027e-07
-5.1044316e-09
5.9275267e-07
-6.005283e-09
5.9376664e-07
-6.8568713e-09
5.9504272e-07
-7.6477292e-09
5.9662287e-07
-8.3641625e-09
5.9856499e-07
-8.9900352e-09
6.0094923e-07
-9.5086028e-09
6.0389368e-07
-9.9116797e-09
6.0762694e-07
-1.0198931e-08
6.127292e-07
-1.0254837e-08
6.2024544e-07
-9.5001424e-09
6.2909128e-07
-6.9331779e-09
6.2607322e-07
-2.7555484e-09
5.7392012e-07
8.340442e-11
4.237708e-07
1.6301593e-07
4.2408777e-10
1.2598134e-07
3.3036912e-09
3.7128009e-07
8.1398197e-09
5.497346e-07
1.1642278e-08
6.304115e-07
1.2799961e-08
6.4303551e-07
1.2703156e-08
6.3278364e-07
1.2277039e-08
6.2224667e-07
1.1762651e-08
6.1521038e-07
1.1154408e-08
6.103192e-07
1.0446401e-08
6.0653281e-07
9.6526602e-09
6.0345814e-07
8.7901597e-09
6.0092848e-07
7.873502e-09
5.9883764e-07
6.9148405e-09
5.9710836e-07
5.9243511e-09
5.9568416e-07
4.9105979e-09
5.9452348e-07
3.8808463e-09
5.9359556e-07
2.8413586e-09
5.9287766e-07
1.7976701e-09
5.9235335e-07
7.5485047e-10
5.9201131e-07
-2.822457e-10
5.918446e-07
-1.3087347e-09
5.918503e-07
-2.3194581e-09
5.9202935e-07
-3.3087312e-09
5.923867e-07
-4.2700781e-09
5.9293163e-07
-5.1959485e-09
5.9367855e-07
-6.077416e-09
5.9464812e-07
-6.9038619e-09
5.9586918e-07
-7.6626281e-09
5.9738165e-07
-8.3386789e-09
5.9924105e-07
-8.9144985e-09
6.0152506e-07
-9.3721539e-09
6.0435134e-07
-9.7023235e-09
6.0795712e-07
-9.899749e-09
6.1292664e-07
-9.8354043e-09
6.201811e-07
-8.9430778e-09
6.2819896e-07
-6.343485e-09
6.2347363e-07
-2.4051321e-09
5.6998178e-07
4.7460551e-11
4.2131822e-07
1.6306338e-07
3.5795494e-10
1.2600408e-07
2.8871112e-09
3.6976859e-07
7.4100456e-09
5.459517e-07
1.0906645e-08
6.2716759e-07
1.2227964e-08
6.4173942e-07
1.227978e-08
6.3271855e-07
1.1952911e-08
6.2256765e-07
1.1509742e-08
6.1565258e-07
1.095656e-08
6.1087236e-07
1.0290447e-08
6.0719896e-07
9.5272982e-09
6.0422132e-07
8.6861255e-09
6.0176968e-07
7.7833036e-09
5.9974049e-07
6.8323988e-09
5.9805929e-07
5.8447352e-09
5.9667185e-07
4.8298345e-09
5.9553841e-07
3.795782e-09
5.9462963e-07
2.7495607e-09
5.9392391e-07
1.6973574e-09
5.9340558e-07
6.4484511e-10
5.9306385e-07
-4.0254994e-10
5.9289202e-07
-1.4393889e-09
5.9288716e-07
-2.4599596e-09
5.9304994e-07
-3.4580115e-09
5.9338477e-07
-4.4264715e-09
5.9390012e-07
-5.3571376e-09
5.9460924e-07
-6.2403412e-09
5.9553135e-07
-7.0645854e-09
5.9669345e-07
-7.816135e-09
5.9813323e-07
-8.4785845e-09
5.9990352e-07
-9.0327772e-09
6.0207927e-07
-9.4588802e-09
6.0477747e-07
-9.7443872e-09
6.0824264e-07
-9.8751336e-09
6.130574e-07
-9.7039292e-09
6.2000991e-07
-8.6719144e-09
6.2716696e-07
-6.0078079e-09
6.2080954e-07
-2.2223828e-09
5.6619637e-07
-2.9987349e-11
4.1912583e-07
1.6303339e-07
3.4869202e-10
1.2602268e-07
2.6665164e-09
3.6844753e-07
6.9922032e-09
5.424053e-07
1.0528689e-08
6.2391468e-07
1.2018328e-08
6.4028873e-07
1.2211026e-08
6.325169e-07
1.1968956e-08
6.2280438e-07
1.1577201e-08
6.1604313e-07
1.1056904e-08
6.1139251e-07
1.0410229e-08
6.0784566e-07
9.6558671e-09
6.0497572e-07
8.8152452e-09
6.0261034e-07
7.9066112e-09
6.0064916e-07
6.9448985e-09
5.9902104e-07
5.9424516e-09
5.9767433e-07
4.9095764e-09
5.9657132e-07
3.8549805e-09
5.9568427e-07
2.7861589e-09
5.9499276e-07
1.7097327e-09
5.9448204e-07
6.3175458e-10
5.9414186e-07
-4.4200834e-10
5.9396582e-07
-1.5058038e-09
5.9395099e-07
-2.5536204e-09
5.940978e-07
-3.5789125e-09
5.944101e-07
-4.5742982e-09
5.9489554e-07
-5.5312286e-09
5.9556621e-07
-6.4396089e-09
5.9643976e-07
-7.2873711e-09
5.9754124e-07
-8.0599706e-09
5.9890586e-07
-8.7397931e-09
6.0058338e-07
-9.3059456e-09
6.0264546e-07
-9.7359679e-09
6.0520752e-07
-1.0011234e-08
6.0851794e-07
-1.0100877e-08
6.1314708e-07
-9.8271338e-09
6.1973619e-07
-8.6275262e-09
6.2596738e-07
-5.8394612e-09
6.180215e-07
-2.1306687e-09
5.624876e-07
-1.1729509e-10
4.1711247e-07
1.6291609e-07
3.8233864e-10
1.2599719e-07
2.5900497e-09
3.6719806e-07
6.8200521e-09
5.3897583e-07
1.0476046e-08
6.205672e-07
1.2181236e-08
6.3863252e-07
1.2532173e-08
6.3215882e-07
1.2368153e-08
6.2296266e-07
1.2008263e-08
6.1640144e-07
1.149765e-08
6.1190287e-07
1.0847478e-08
6.0849584e-07
1.0080377e-08
6.0574287e-07
9.2204284e-09