/*--------------------------------*- C++ -*----------------------------------*\
  =========                 |
  \\      /  F ield         | OpenFOAM: The Open Source CFD Toolbox
   \\    /   O peration     | Website:  https://openfoam.org
    \\  /    A nd           | Version:  10
     \\/     M anipulation  |
\*---------------------------------------------------------------------------*/
FoamFile
{
    format      ascii;
    class       volScalarField;
    location    "0.06";
    object      T_0;
}
// * * * * * * * * * * * * * * * * * * * * * * * * * * * * * * * * * * * * * //

dimensions      [0 0 0 1 0 0 0];

internalField   nonuniform List<scalar> 
4000
(
303.10048
299.34368
299.99041
300.00081
299.99993
300
300
300
300
300
300
300
300
300
300
300
300
300
300
300
300
300
300
300
300
300
300
300
300
300
300
300
300
300
300
300
300
300
300
300.00001
309.65798
298.49496
299.77997
300.00181
300.00079
299.99999
300
300
300
300
300
300
300
300
300
300
300
300
300
300
300
300
300
300
300
300
300
300
300
300
300
300
300
300
300
300
300
300
299.99999
300.00001
315.99007
298.68517
299.3949
299.97589
300.004
300.00024
299.99999
300
300
300
300
300
300
300
300
300
300
300
300
300
300
300
300
300
300
300
300
300
300
300
300
300
300
300
300
300
300
299.99999
299.99999
300.00002
321.71467
299.8402
298.99004
299.89606
300.00705
300.00135
300
299.99999
300
300
300
300
300
300
300
300
300
300
300
300
300
300
300
300
300
300
300
300
300
300
300
300
300
300
300
299.99999
299.99999
299.99999
299.99999
300.00003
326.6253
301.68155
298.7169
299.7564
300.00323
300.00368
300.00016
299.99998
299.99999
300
300
300
300
300
300
300
300
300
300
300
300
300
300
300
300
300
300
300
300
300
300
300
300
299.99999
299.99999
299.99999
299.99999
299.99998
299.99999
300.00004
330.61665
303.90741
298.66899
299.57499
299.98484
300.00675
300.00068
299.99996
299.99999
300
300
300
300
300
300
300
300
300
300
300
300
300
300
300
300
300
300
300
300
300
300
300
299.99999
299.99999
299.99999
299.99999
299.99998
299.99998
299.99999
300.00004
333.67939
306.2589
298.87055
299.38476
299.94715
300.00908
300.00171
299.99999
299.99998
299.99999
299.99999
300
300
300
300
300
300
300
300
300
300
300
300
300
300
300
300
300
300
299.99999
299.99999
299.99999
299.99999
299.99999
299.99999
299.99999
299.99998
299.99998
300
300.00004
335.89626
308.5505
299.29454
299.21946
299.89033
300.00868
300.00324
300.00012
299.99996
299.99999
299.99999
299.99999
299.99999
299.99999
300
300
300
300
300
300
300
300
300
300
300
300
300
299.99999
299.99999
299.99999
299.99999
299.99999
299.99999
299.99999
299.99999
299.99998
299.99998
299.99998
300
300.00004
337.41276
310.67028
299.88935
299.10394
299.819
300.00372
300.00505
300.00041
299.99995
299.99998
299.99999
299.99999
299.99999
299.99999
299.99999
299.99999
299.99999
299.99999
299.99999
299.99999
299.99999
299.99999
299.99999
299.99999
299.99999
299.99999
299.99999
299.99999
299.99999
299.99999
299.99999
299.99999
299.99999
299.99999
299.99998
299.99998
299.99998
299.99998
300.00001
300.00004
338.39773
312.56398
300.59858
299.05139
299.74023
299.99312
300.00672
300.00088
299.99996
299.99997
299.99999
299.99999
299.99999
299.99999
299.99999
299.99999
299.99999
299.99999
299.99999
299.99999
299.99999
299.99999
299.99999
299.99999
299.99999
299.99999
299.99999
299.99999
299.99999
299.99999
299.99999
299.99999
299.99999
299.99999
299.99998
299.99998
299.99997
299.99998
300.00001
300.00004
339.00853
314.21633
301.37162
299.06475
299.66164
299.97672
300.00776
300.00154
299.99999
299.99996
299.99999
299.99999
299.99999
299.99999
299.99999
299.99999
299.99999
299.99999
299.99999
299.99999
299.99999
299.99999
299.99999
299.99999
299.99999
299.99999
299.99999
299.99999
299.99999
299.99999
299.99999
299.99999
299.99999
299.99998
299.99998
299.99998
299.99997
299.99998
300.00001
300.00003
339.36728
315.63457
302.16783
299.13982
299.58996
299.95522
300.00772
300.00231
300.00008
299.99996
299.99998
299.99999
299.99999
299.99999
299.99999
299.99999
299.99999
299.99999
299.99999
299.99999
299.99999
299.99999
299.99999
299.99999
299.99999
299.99999
299.99999
299.99999
299.99999
299.99999
299.99999
299.99999
299.99998
299.99998
299.99998
299.99997
299.99997
299.99998
300.00002
300.00003
339.55377
316.83549
302.95678
299.26822
299.53032
299.92989
300.00627
300.00312
300.00022
299.99995
299.99998
299.99999
299.99999
299.99999
299.99999
299.99999
299.99999
299.99999
299.99999
299.99999
299.99999
299.99999
299.99999
299.99999
299.99999
299.99999
299.99999
299.99999
299.99999
299.99999
299.99999
299.99998
299.99998
299.99998
299.99998
299.99997
299.99997
299.99999
300.00002
300.00002
339.61662
317.83708
303.71645
299.4397
299.48607
299.90237
300.00327
300.00385
300.00042
299.99995
299.99997
299.99999
299.99999
299.99999
299.99999
299.99999
299.99999
299.99999
299.99999
299.99999
299.99999
299.99999
299.99999
299.99999
299.99999
299.99999
299.99999
299.99999
299.99999
299.99999
299.99998
299.99998
299.99998
299.99998
299.99998
299.99997
299.99997
299.99999
300.00002
300.00001
339.59163
318.65469
304.43071
299.64365
299.45894
299.87433
299.99874
300.00438
300.00066
299.99997
299.99997
299.99998
299.99999
299.99999
299.99999
299.99999
299.99999
299.99999
299.99999
299.99999
299.99999
299.99999
299.99999
299.99999
299.99999
299.99999
299.99999
299.99999
299.99999
299.99998
299.99998
299.99998
299.99998
299.99998
299.99997
299.99997
299.99997
299.99999
300.00002
300.00001
339.51228
319.30054
305.08719
299.86969
299.44928
299.84737
299.99283
300.00463
300.00094
300
299.99996
299.99998
299.99998
299.99998
299.99999
299.99999
299.99999
299.99999
299.99999
299.99999
299.99999
299.99999
299.99999
299.99999
299.99999
299.99999
299.99999
299.99998
299.99998
299.99998
299.99998
299.99998
299.99998
299.99998
299.99997
299.99997
299.99997
299.99999
300.00002
300.00001
339.40797
319.78487
305.67582
300.10801
299.45635
299.82285
299.98584
300.00452
300.00121
300.00004
299.99996
299.99998
299.99998
299.99998
299.99998
299.99998
299.99998
299.99998
299.99998
299.99998
299.99998
299.99998
299.99998
299.99998
299.99998
299.99998
299.99998
299.99998
299.99998
299.99998
299.99998
299.99998
299.99998
299.99997
299.99997
299.99997
299.99997
299.99999
300.00002
300.00002
339.29822
320.11739
306.18832
300.34949
299.47862
299.80186
299.97812
300.00403
300.00147
300.00009
299.99996
299.99997
299.99998
299.99998
299.99998
299.99998
299.99998
299.99998
299.99998
299.99998
299.99998
299.99998
299.99998
299.99998
299.99998
299.99998
299.99998
299.99998
299.99998
299.99998
299.99998
299.99998
299.99998
299.99997
299.99997
299.99997
299.99997
300
300.00002
300.00003
339.19127
320.30841
306.61841
300.58586
299.51406
299.78522
299.97009
300.00317
300.00167
300.00016
299.99996
299.99997
299.99998
299.99998
299.99998
299.99998
299.99998
299.99998
299.99998
299.99998
299.99998
299.99998
299.99998
299.99998
299.99998
299.99998
299.99998
299.99998
299.99998
299.99998
299.99998
299.99997
299.99997
299.99997
299.99997
299.99997
299.99997
300
300.00002
300.00005
339.08818
320.36954
306.96224
300.80997
299.56038
299.7735
299.96217
300.00195
300.00182
300.00023
299.99997
299.99997
299.99998
299.99998
299.99998
299.99998
299.99998
299.99998
299.99998
299.99998
299.99998
299.99998
299.99998
299.99998
299.99998
299.99998
299.99998
299.99998
299.99998
299.99998
299.99997
299.99997
299.99997
299.99997
299.99997
299.99996
299.99997
300
300.00002
300.00006
338.98846
320.3148
307.21886
301.01596
299.61508
299.76697
299.95474
300.00045
300.00188
300.0003
299.99998
299.99997
299.99998
299.99998
299.99998
299.99998
299.99998
299.99998
299.99998
299.99998
299.99998
299.99998
299.99998
299.99998
299.99998
299.99998
299.99998
299.99998
299.99998
299.99998
299.99997
299.99997
299.99997
299.99997
299.99997
299.99996
299.99997
300
300.00003
300.00006
338.8935
320.16274
307.39064
301.1993
299.67537
299.76545
299.9481
299.99873
300.00185
300.00037
299.99999
299.99997
299.99998
299.99998
299.99998
299.99998
299.99998
299.99998
299.99998
299.99998
299.99998
299.99998
299.99998
299.99998
299.99998
299.99998
299.99998
299.99998
299.99998
299.99998
299.99998
299.99997
299.99997
299.99997
299.99997
299.99997
299.99998
300
300.00003
300.00007
338.80698
319.93898
307.48366
301.35684
299.73811
299.76816
299.94234
299.99687
300.00175
300.00043
300
299.99997
299.99998
299.99998
299.99998
299.99998
299.99998
299.99998
299.99998
299.99998
299.99998
299.99998
299.99998
299.99998
299.99998
299.99998
299.99998
299.99998
299.99998
299.99998
299.99998
299.99997
299.99997
299.99997
299.99997
299.99997
299.99998
300
300.00003
300.00007
338.73312
319.67617
307.50794
301.48684
299.79992
299.77374
299.93732
299.99493
300.00158
300.00049
300.00002
299.99997
299.99997
299.99997
299.99998
299.99998
299.99998
299.99998
299.99998
299.99998
299.99998
299.99998
299.99998
299.99998
299.99998
299.99998
299.99997
299.99997
299.99997
299.99997
299.99997
299.99997
299.99997
299.99997
299.99997
299.99997
299.99998
300
300.00003
300.00008
338.67468
319.4098
307.47724
301.58924
299.85787
299.7807
299.93279
299.99295
300.00137
300.00054
300.00003
299.99996
299.99996
299.99996
299.99997
299.99997
299.99997
299.99997
299.99997
299.99997
299.99997
299.99997
299.99997
299.99997
299.99997
299.99997
299.99996
299.99996
299.99996
299.99996
299.99996
299.99996
299.99996
299.99996
299.99996
299.99996
299.99998
300
300.00003
300.00008
338.63163
319.1705
307.40804
301.66592
299.91029
299.78802
299.92855
299.99094
300.00114
300.00059
300.00004
299.99995
299.99995
299.99995
299.99995
299.99995
299.99995
299.99995
299.99995
299.99995
299.99995
299.99995
299.99995
299.99995
299.99995
299.99995
299.99995
299.99995
299.99995
299.99995
299.99995
299.99995
299.99995
299.99995
299.99995
299.99996
299.99997
299.99999
300.00003
300.00009
338.60127
318.97684
307.31737
301.72072
299.95745
299.79586
299.92475
299.98895
300.00088
300.00064
300.00004
299.99993
299.99993
299.99993
299.99993
299.99993
299.99993
299.99993
299.99993
299.99993
299.99993
299.99993
299.99993
299.99993
299.99993
299.99993
299.99993
299.99993
299.99993
299.99993
299.99993
299.99993
299.99993
299.99993
299.99993
299.99994
299.99996
299.99998
300.00003
300.00009
338.57944
318.83243
307.22005
301.75894
300.00153
299.80574
299.92208
299.98711
300.0006
300.00067
300.00005
299.99991
299.99991
299.99991
299.99991
299.99991
299.99991
299.99991
299.99991
299.99991
299.99991
299.99991
299.99991
299.99991
299.99991
299.99991
299.99991
299.99991
299.99991
299.99991
299.99991
299.99991
299.99991
299.99991
299.99992
299.99992
299.99994
299.99997
300.00004
300.0001
338.56207
318.72869
307.12625
301.78623
300.04559
299.81992
299.92162
299.98568
300.00029
300.00069
300.00006
299.9999
299.9999
299.9999
299.9999
299.9999
299.9999
299.9999
299.9999
299.9999
299.9999
299.9999
299.9999
299.9999
299.9999
299.9999
299.9999
299.9999
299.9999
299.9999
299.9999
299.9999
299.9999
299.9999
299.9999
299.99991
299.99993
299.99997
300.00005
300.0001
338.54637
318.65156
307.04055
301.80718
300.09217
299.84037
299.92443
299.98494
299.99995
300.00066
300.00007
299.9999
299.99989
299.9999
299.9999
299.9999
299.9999
299.9999
299.9999
299.99991
299.99991
299.99991
299.99991
299.99991
299.99991
299.99991
299.99991
299.99991
299.9999
299.9999
299.9999
299.9999
299.9999
299.9999
299.9999
299.99991
299.99993
299.99998
300.00006
300.0001
338.53117
318.58821
306.9631
301.82422
300.14185
299.86755
299.93103
299.98512
299.99964
300.0006
300.00008
299.99992
299.99991
299.99991
299.99991
299.99991
299.99992
299.99992
299.99992
299.99992
299.99992
299.99992
299.99992
299.99992
299.99992
299.99992
299.99992
299.99992
299.99992
299.99991
299.99991
299.99991
299.99991
299.99991
299.99991
299.99991
299.99994
299.99999
300.00008
300.0001
338.51666
318.53104
306.89206
301.83757
300.19285
299.89995
299.94102
299.98628
299.99938
300.0005
300.00008
299.99994
299.99993
299.99993
299.99993
299.99993
299.99994
299.99994
299.99994
299.99994
299.99994
299.99994
299.99994
299.99994
299.99994
299.99994
299.99994
299.99994
299.99994
299.99993
299.99993
299.99993
299.99993
299.99992
299.99992
299.99993
299.99995
300.00001
300.00008
300.0001
338.50357
318.47798
306.82597
301.84613
300.24164
299.93443
299.95313
299.98821
299.99923
300.00037
300.00008
299.99996
299.99995
299.99996
299.99996
299.99996
299.99996
299.99996
299.99996
299.99996
299.99996
299.99996
299.99996
299.99996
299.99996
299.99996
299.99996
299.99996
299.99996
299.99996
299.99996
299.99995
299.99995
299.99995
299.99995
299.99995
299.99998
300.00003
300.00009
300.0001
338.49263
318.43037
306.76491
301.84878
300.28436
299.96733
299.96571
299.99058
299.99919
300.00025
300.00008
299.99999
299.99998
299.99998
299.99998
299.99998
299.99998
299.99998
299.99998
299.99998
299.99999
299.99999
299.99999
299.99999
299.99998
299.99998
299.99998
299.99998
299.99998
299.99998
299.99998
299.99998
299.99998
299.99997
299.99997
299.99998
300
300.00005
300.00009
300.0001
338.48413
318.39031
306.71025
301.84541
300.31821
299.99561
299.97722
299.99299
299.99925
300.00015
300.00007
300.00001
300
300
300
300
300
300
300
300
300
300
300
300
300
300
300
300
300
300
300
300
300
299.99999
299.99999
300
300.00002
300.00006
300.0001
300.0001
338.47791
318.35889
306.66363
301.83717
300.34225
300.01765
299.98666
299.99513
299.99937
300.00008
300.00005
300.00002
300.00001
300.00001
300.00001
300.00001
300.00001
300.00001
300.00001
300.00001
300.00001
300.00001
300.00001
300.00001
300.00001
300.00001
300.00001
300.00001
300.00001
300.00001
300.00001
300.00001
300.00001
300.00001
300.00001
300.00001
300.00003
300.00007
300.0001
300.0001
338.47355
318.33567
306.62595
301.82603
300.35731
300.03327
299.99369
299.99684
299.99951
300.00003
300.00004
300.00002
300.00002
300.00002
300.00002
300.00002
300.00002
300.00002
300.00002
300.00002
300.00002
300.00002
300.00002
300.00002
300.00002
300.00002
300.00002
300.00002
300.00002
300.00002
300.00002
300.00002
300.00002
300.00002
300.00002
300.00002
300.00004
300.00007
300.0001
300.0001
338.4705
318.31915
306.59698
301.8141
300.36538
300.04339
299.9985
299.99808
299.99964
300.00001
300.00003
300.00003
300.00002
300.00002
300.00002
300.00002
300.00002
300.00002
300.00002
300.00002
300.00002
300.00002
300.00002
300.00002
300.00002
300.00002
300.00002
300.00002
300.00002
300.00002
300.00002
300.00002
300.00002
300.00002
300.00002
300.00003
300.00004
300.00007
300.00009
300.0001
338.46831
318.30741
306.57548
301.80298
300.3688
300.04942
300.00155
299.99892
299.99975
300
300.00003
300.00002
300.00002
300.00002
300.00002
300.00002
300.00002
300.00002
300.00002
300.00002
300.00002
300.00002
300.00002
300.00002
300.00002
300.00002
300.00002
300.00002
300.00002
300.00002
300.00002
300.00002
300.00002
300.00002
300.00002
300.00003
300.00004
300.00007
300.00009
300.0001
338.46664
318.29876
306.55972
301.79357
300.36961
300.05277
300.00339
299.99946
299.99983
300
300.00002
300.00002
300.00002
300.00002
300.00002
300.00002
300.00002
300.00002
300.00002
300.00002
300.00002
300.00002
300.00002
300.00002
300.00002
300.00002
300.00002
300.00002
300.00002
300.00002
300.00002
300.00002
300.00002
300.00002
300.00002
300.00003
300.00004
300.00007
300.00009
300.0001
338.46526
318.292
306.54798
301.78609
300.36927
300.05457
300.00448
299.99979
299.99989
300
300.00002
300.00002
300.00002
300.00002
300.00002
300.00002
300.00002
300.00002
300.00002
300.00002
300.00002
300.00002
300.00002
300.00002
300.00002
300.00002
300.00002
300.00002
300.00002
300.00002
300.00002
300.00002
300.00002
300.00002
300.00002
300.00003
300.00004
300.00006
300.00009
300.0001
338.46409
318.28639
306.53891
301.78032
300.36863
300.05558
300.00513
300
299.99992
300
300.00002
300.00002
300.00002
300.00002
300.00002
300.00002
300.00002
300.00002
300.00002
300.00002
300.00002
300.00002
300.00002
300.00002
300.00002
300.00002
300.00002
300.00002
300.00002
300.00002
300.00002
300.00002
300.00002
300.00002
300.00002
300.00003
300.00004
300.00006
300.00009
300.0001
338.46306
318.28157
306.53157
301.77589
300.36806
300.05622
300.00555
300.00014
299.99995
300.00001
300.00002
300.00002
300.00002
300.00002
300.00002
300.00002
300.00002
300.00002
300.00002
300.00002
300.00002
300.00002
300.00002
300.00002
300.00002
300.00002
300.00002
300.00002
300.00002
300.00002
300.00002
300.00002
300.00002
300.00002
300.00002
300.00002
300.00004
300.00006
300.00009
300.0001
338.46214
318.27737
306.52541
301.7724
300.36766
300.05672
300.00586
300.00023
299.99997
300.00001
300.00002
300.00002
300.00002
300.00002
300.00002
300.00002
300.00002
300.00002
300.00002
300.00002
300.00002
300.00002
300.00002
300.00002
300.00002
300.00002
300.00002
300.00002
300.00002
300.00002
300.00002
300.00002
300.00002
300.00002
300.00002
300.00002
300.00004
300.00006
300.00009
300.0001
338.46134
318.27369
306.52014
301.76958
300.36741
300.05715
300.00611
300.00031
299.99998
300.00001
300.00002
300.00002
300.00002
300.00002
300.00002
300.00002
300.00002
300.00002
300.00002
300.00002
300.00002
300.00002
300.00002
300.00002
300.00002
300.00002
300.00002
300.00002
300.00002
300.00002
300.00002
300.00002
300.00002
300.00002
300.00002
300.00002
300.00004
300.00006
300.00009
300.0001
338.46064
318.2705
306.5156
301.76723
300.36726
300.05752
300.00632
300.00037
299.99999
300.00001
300.00002
300.00002
300.00002
300.00002
300.00002
300.00002
300.00002
300.00002
300.00002
300.00002
300.00002
300.00002
300.00002
300.00002
300.00002
300.00002
300.00002
300.00002
300.00002
300.00002
300.00002
300.00002
300.00002
300.00002
300.00002
300.00002
300.00004
300.00006
300.00009
300.0001
338.46002
318.26774
306.51169
301.76524
300.36715
300.05785
300.0065
300.00042
300
300.00001
300.00002
300.00002
300.00002
300.00002
300.00002
300.00002
300.00002
300.00002
300.00002
300.00002
300.00002
300.00002
300.00002
300.00002
300.00002
300.00002
300.00002
300.00002
300.00002
300.00002
300.00002
300.00002
300.00002
300.00002
300.00002
300.00002
300.00004
300.00006
300.00009
300.0001
338.45948
318.26535
306.50834
301.76353
300.36707
300.05813
300.00665
300.00046
300.00001
300.00001
300.00002
300.00002
300.00002
300.00002
300.00002
300.00002
300.00002
300.00002
300.00002
300.00002
300.00002
300.00002
300.00002
300.00002
300.00002
300.00002
300.00002
300.00002
300.00002
300.00002
300.00002
300.00002
300.00002
300.00002
300.00002
300.00002
300.00004
300.00006
300.00009
300.0001
338.45901
318.26328
306.50546
301.76207
300.36699
300.05836
300.00678
300.0005
300.00001
300.00001
300.00002
300.00002
300.00002
300.00002
300.00002
300.00002
300.00002
300.00002
300.00002
300.00002
300.00002
300.00002
300.00002
300.00002
300.00002
300.00002
300.00002
300.00002
300.00002
300.00002
300.00002
300.00002
300.00002
300.00002
300.00002
300.00002
300.00004
300.00006
300.00009
300.0001
338.4586
318.26149
306.50298
301.76082
300.36691
300.05856
300.00689
300.00053
300.00002
300.00001
300.00002
300.00002
300.00002
300.00002
300.00002
300.00002
300.00002
300.00002
300.00002
300.00002
300.00002
300.00002
300.00002
300.00002
300.00002
300.00002
300.00002
300.00002
300.00002
300.00002
300.00002
300.00002
300.00002
300.00002
300.00002
300.00002
300.00004
300.00006
300.00009
300.0001
338.45823
318.25993
306.50086
301.75974
300.36684
300.05872
300.00697
300.00055
300.00002
300.00001
300.00001
300.00002
300.00002
300.00002
300.00002
300.00002
300.00002
300.00002
300.00002
300.00002
300.00002
300.00002
300.00002
300.00002
300.00002
300.00002
300.00002
300.00002
300.00002
300.00002
300.00002
300.00002
300.00002
300.00002
300.00002
300.00002
300.00004
300.00006
300.00009
300.0001
338.45791
318.25857
306.49902
301.75882
300.36678
300.05886
300.00705
300.00057
300.00003
300.00001
300.00001
300.00002
300.00002
300.00002
300.00002
300.00002
300.00002
300.00002
300.00002
300.00002
300.00002
300.00002
300.00002
300.00002
300.00002
300.00002
300.00002
300.00002
300.00002
300.00002
300.00002
300.00002
300.00002
300.00002
300.00002
300.00002
300.00003
300.00006
300.00009
300.0001
338.45763
318.25738
306.49743
301.75802
300.36672
300.05897
300.00711
300.00059
300.00003
300.00001
300.00001
300.00001
300.00001
300.00001
300.00001
300.00001
300.00001
300.00001
300.00001
300.00001
300.00001
300.00001
300.00001
300.00001
300.00001
300.00001
300.00001
300.00002
300.00002
300.00002
300.00002
300.00002
300.00002
300.00002
300.00002
300.00002
300.00003
300.00006
300.00009
300.0001
338.45739
318.25634
306.49604
301.75733
300.36668
300.05907
300.00717
300.00061
300.00003
300.00001
300.00001
300.00001
300.00001
300.00001
300.00001
300.00001
300.00001
300.00001
300.00001
300.00001
300.00001
300.00001
300.00001
300.00001
300.00001
300.00001
300.00001
300.00001
300.00001
300.00001
300.00001
300.00001
300.00001
300.00002
300.00002
300.00002
300.00003
300.00006
300.00009
300.0001
338.45717
318.25543
306.49484
301.75674
300.36663
300.05915
300.00721
300.00062
300.00004
300.00001
300.00001
300.00001
300.00001
300.00001
300.00001
300.00001
300.00001
300.00001
300.00001
300.00001
300.00001
300.00001
300.00001
300.00001
300.00001
300.00001
300.00001
300.00001
300.00001
300.00001
300.00001
300.00001
300.00001
300.00001
300.00002
300.00002
300.00003
300.00006
300.00009
300.0001
338.45698
318.25463
306.49379
301.75622
300.3666
300.05922
300.00725
300.00063
300.00004
300.00001
300.00001
300.00001
300.00001
300.00001
300.00001
300.00001
300.00001
300.00001
300.00001
300.00001
300.00001
300.00001
300.00001
300.00001
300.00001
300.00001
300.00001
300.00001
300.00001
300.00001
300.00001
300.00001
300.00001
300.00001
300.00002
300.00002
300.00003
300.00006
300.00009
300.0001
338.45681
318.25393
306.49288
301.75577
300.36656
300.05928
300.00728
300.00064
300.00004
300.00001
300.00001
300.00001
300.00001
300.00001
300.00001
300.00001
300.00001
300.00001
300.00001
300.00001
300.00001
300.00001
300.00001
300.00001
300.00001
300.00001
300.00001
300.00001
300.00001
300.00001
300.00001
300.00001
300.00001
300.00001
300.00002
300.00002
300.00003
300.00006
300.00009
300.0001
338.45666
318.25332
306.49208
301.75538
300.36654
300.05934
300.00731
300.00065
300.00004
300.00001
300.00001
300.00001
300.00001
300.00001
300.00001
300.00001
300.00001
300.00001
300.00001
300.00001
300.00001
300.00001
300.00001
300.00001
300.00001
300.00001
300.00001
300.00001
300.00001
300.00001
300.00001
300.00001
300.00001
300.00001
300.00002
300.00002
300.00003
300.00006
300.00009
300.0001
338.45653
318.25278
306.49138
301.75503
300.36651
300.05938
300.00734
300.00065
300.00004
300.00001
300.00001
300.00001
300.00001
300.00001
300.00001
300.00001
300.00001
300.00001
300.00001
300.00001
300.00001
300.00001
300.00001
300.00001
300.00001
300.00001
300.00001
300.00001
300.00001
300.00001
300.00001
300.00001
300.00001
300.00001
300.00001
300.00002
300.00003
300.00006
300.00009
300.0001
338.45642
318.25231
306.49077
301.75473
300.36649
300.05942
300.00736
300.00066
300.00004
300.00001
300.00001
300.00001
300.00001
300.00001
300.00001
300.00001
300.00001
300.00001
300.00001
300.00001
300.00001
300.00001
300.00001
300.00001
300.00001
300.00001
300.00001
300.00001
300.00001
300.00001
300.00001
300.00001
300.00001
300.00001
300.00001
300.00002
300.00003
300.00006
300.00009
300.0001
338.45632
318.2519
306.49023
301.75447
300.36647
300.05946
300.00738
300.00066
300.00004
300.00001
300.00001
300.00001
300.00001
300.00001
300.00001
300.00001
300.00001
300.00001
300.00001
300.00001
300.00001
300.00001
300.00001
300.00001
300.00001
300.00001
300.00001
300.00001
300.00001
300.00001
300.00001
300.00001
300.00001
300.00001
300.00001
300.00002
300.00003
300.00006
300.00009
300.0001
338.45624
318.25154
306.48976
301.75424
300.36645
300.05949
300.00739
300.00067
300.00004
300.00001
300.00001
300.00001
300.00001
300.00001
300.00001
300.00001
300.00001
300.00001
300.00001
300.00001
300.00001
300.00001
300.00001
300.00001
300.00001
300.00001
300.00001
300.00001
300.00001
300.00001
300.00001
300.00001
300.00001
300.00001
300.00001
300.00002
300.00003
300.00006
300.00009
300.0001
338.45617
318.25123
306.48936
301.75405
300.36644
300.05951
300.00741
300.00067
300.00004
300.00001
300.00001
300.00001
300.00001
300.00001
300.00001
300.00001
300.00001
300.00001
300.00001
300.00001
300.00001
300.00001
300.00001
300.00001
300.00001
300.00001
300.00001
300.00001
300.00001
300.00001
300.00001
300.00001
300.00001
300.00001
300.00001
300.00002
300.00003
300.00006
300.00009
300.0001
338.45611
318.25096
306.489
301.75387
300.36642
300.05954
300.00742
300.00068
300.00004
300.00001
300.00001
300.00001
300.00001
300.00001
300.00001
300.00001
300.00001
300.00001
300.00001
300.00001
300.00001
300.00001
300.00001
300.00001
300.00001
300.00001
300.00001
300.00001
300.00001
300.00001
300.00001
300.00001
300.00001
300.00001
300.00001
300.00002
300.00003
300.00006
300.00009
300.0001
338.45607
318.25074
306.4887
301.75372
300.36641
300.05956
300.00743
300.00068
300.00004
300.00001
300.00001
300.00001
300.00001
300.00001
300.00001
300.00001
300.00001
300.00001
300.00001
300.00001
300.00001
300.00001
300.00001
300.00001
300.00001
300.00001
300.00001
300.00001
300.00001
300.00001
300.00001
300.00001
300.00001
300.00001
300.00001
300.00002
300.00003
300.00006
300.00009
300.0001
338.45603
318.25055
306.48843
301.75359
300.3664
300.05957
300.00744
300.00068
300.00005
300.00001
300.00001
300.00001
300.00001
300.00001
300.00001
300.00001
300.00001
300.00001
300.00001
300.00001
300.00001
300.00001
300.00001
300.00001
300.00001
300.00001
300.00001
300.00001
300.00001
300.00001
300.00001
300.00001
300.00001
300.00001
300.00001
300.00002
300.00003
300.00006
300.00009
300.0001
338.45601
318.25039
306.48821
301.75348
300.3664
300.05959
300.00745
300.00068
300.00005
300.00001
300.00001
300.00001
300.00001
300.00001
300.00001
300.00001
300.00001
300.00001
300.00001
300.00001
300.00001
300.00001
300.00001
300.00001
300.00001
300.00001
300.00001
300.00001
300.00001
300.00001
300.00001
300.00001
300.00001
300.00001
300.00001
300.00002
300.00003
300.00006
300.00009
300.00009
338.456
318.25027
306.48802
301.75338
300.36639
300.0596
300.00746
300.00069
300.00005
300.00001
300.00001
300.00001
300.00001
300.00001
300.00001
300.00001
300.00001
300.00001
300.00001
300.00001
300.00001
300.00001
300.00001
300.00001
300.00001
300.00001
300.00001
300.00001
300.00001
300.00001
300.00001
300.00001
300.00001
300.00001
300.00001
300.00002
300.00003
300.00006
300.00009
300.00009
338.45599
318.25018
306.48787
301.7533
300.36639
300.05962
300.00746
300.00069
300.00005
300.00001
300.00001
300.00001
300.00001
300.00001
300.00001
300.00001
300.00001
300.00001
300.00001
300.00001
300.00001
300.00001
300.00001
300.00001
300.00001
300.00001
300.00001
300.00001
300.00001
300.00001
300.00001
300.00001
300.00001
300.00001
300.00001
300.00002
300.00003
300.00006
300.00008
300.00009
338.456
318.25012
306.48775
301.75324
300.36638
300.05963
300.00747
300.00069
300.00005
300.00001
300.00001
300.00001
300.00001
300.00001
300.00001
300.00001
300.00001
300.00001
300.00001
300.00001
300.00001
300.00001
300.00001
300.00001
300.00001
300.00001
300.00001
300.00001
300.00001
300.00001
300.00001
300.00001
300.00001
300.00001
300.00001
300.00002
300.00003
300.00006
300.00008
300.00009
338.45602
318.25009
306.48765
301.75319
300.36638
300.05964
300.00747
300.00069
300.00005
300.00001
300.00001
300.00001
300.00001
300.00001
300.00001
300.00001
300.00001
300.00001
300.00001
300.00001
300.00001
300.00001
300.00001
300.00001
300.00001
300.00001
300.00001
300.00001
300.00001
300.00001
300.00001
300.00001
300.00001
300.00001
300.00001
300.00002
300.00003
300.00006
300.00008
300.00009
338.45605
318.25009
306.48759
301.75315
300.36638
300.05964
300.00748
300.00069
300.00005
300.00001
300.00001
300.00001
300.00001
300.00001
300.00001
300.00001
300.00001
300.00001
300.00001
300.00001
300.00001
300.00001
300.00001
300.00001
300.00001
300.00001
300.00001
300.00001
300.00001
300.00001
300.00001
300.00001
300.00001
300.00001
300.00001
300.00002
300.00003
300.00005
300.00008
300.00009
338.45609
318.25012
306.48755
301.75312
300.36638
300.05965
300.00748
300.00069
300.00005
300.00001
300.00001
300.00001
300.00001
300.00001
300.00001
300.00001
300.00001
300.00001
300.00001
300.00001
300.00001
300.00001
300.00001
300.00001
300.00001
300.00001
300.00001
300.00001
300.00001
300.00001
300.00001
300.00001
300.00001
300.00001
300.00001
300.00001
300.00003
300.00005
300.00008
300.00009
338.45614
318.25017
306.48754
301.7531
300.36639
300.05966
300.00749
300.00069
300.00005
300.00001
300.00001
300.00001
300.00001
300.00001
300.00001
300.00001
300.00001
300.00001
300.00001
300.00001
300.00001
300.00001
300.00001
300.00001
300.00001
300.00001
300.00001
300.00001
300.00001
300.00001
300.00001
300.00001
300.00001
300.00001
300.00001
300.00001
300.00003
300.00005
300.00008
300.00009
338.4562
318.25026
306.48755
301.75309
300.36639
300.05967
300.00749
300.00069
300.00004
300.00001
300.00001
300.00001
300.00001
300.00001
300.00001
300.00001
300.00001
300.00001
300.00001
300.00001
300.00001
300.00001
300.00001
300.00001
300.00001
300.00001
300.00001
300.00001
300.00001
300.00001
300.00001
300.00001
300.00001
300.00001
300.00001
300.00001
300.00003
300.00005
300.00008
300.00009
338.45628
318.25038
306.4876
301.7531
300.3664
300.05967
300.00749
300.00069
300.00004
300.00001
300.00001
300.00001
300.00001
300.00001
300.00001
300.00001
300.00001
300.00001
300.00001
300.00001
300.00001
300.00001
300.00001
300.00001
300.00001
300.00001
300.00001
300.00001
300.00001
300.00001
300.00001
300.00001
300.00001
300.00001
300.00001
300.00001
300.00003
300.00005
300.00008
300.00009
338.45637
318.25052
306.48767
301.75312
300.3664
300.05968
300.00749
300.00069
300.00004
300.00001
300.00001
300.00001
300.00001
300.00001
300.00001
300.00001
300.00001
300.00001
300.00001
300.00001
300.00001
300.00001
300.00001
300.00001
300.00001
300.00001
300.00001
300.00001
300.00001
300.00001
300.00001
300.00001
300.00001
300.00001
300.00001
300.00001
300.00003
300.00005
300.00008
300.00009
338.45647
318.2507
306.48776
301.75314
300.36641
300.05968
300.00749
300.00069
300.00004
300.00001
300.00001
300.00001