/*--------------------------------*- C++ -*----------------------------------*\
  =========                 |
  \\      /  F ield         | OpenFOAM: The Open Source CFD Toolbox
   \\    /   O peration     | Website:  https://openfoam.org
    \\  /    A nd           | Version:  10
     \\/     M anipulation  |
\*---------------------------------------------------------------------------*/
FoamFile
{
    format      ascii;
    class       volScalarField;
    location    "0.06";
    object      TporMedia;
}
// * * * * * * * * * * * * * * * * * * * * * * * * * * * * * * * * * * * * * //

dimensions      [0 0 0 1 0 0 0];

internalField   nonuniform List<scalar> 
4000
(
-7.8653081e-07
4.1018682e-07
-2.4305456e-05
-2.4163345e-05
-4.1231825e-05
-3.5983044e-05
-3.5494133e-05
-3.4862301e-05
-3.4818311e-05
-3.5600848e-05
-3.4342249e-05
-3.3890133e-05
-3.3868075e-05
-3.4479822e-05
-3.3797588e-05
-3.3766797e-05
-3.3950581e-05
-3.3876338e-05
-3.3815103e-05
-3.3148743e-05
-3.3626268e-05
-3.4069054e-05
-3.3485081e-05
-3.3683526e-05
-3.4495841e-05
-3.467298e-05
-3.535693e-05
-3.5197519e-05
-3.544811e-05
-3.5926482e-05
-3.5375424e-05
-3.6971668e-05
-3.6901722e-05
-3.692689e-05
-3.905719e-05
-3.8538541e-05
-3.8892784e-05
-4.0318197e-05
-4.0619858e-05
-4.143417e-05
-7.0959858e-08
8.7476783e-17
-1.7165777e-14
3.6627731e-13
1.3075639e-12
2.3251973e-12
2.0931084e-12
1.966054e-12
2.0835272e-12
2.0491692e-12
1.9489265e-12
1.9505076e-12
1.9088605e-12
1.9376133e-12
1.900246e-12
1.8411603e-12
1.870498e-12
1.9162121e-12
1.8109638e-12
1.8900263e-12
1.831343e-12
1.9277751e-12
1.8941743e-12
1.8393392e-12
1.9610887e-12
1.9998158e-12
1.9890668e-12
2.0660676e-12
2.0193727e-12
2.0755431e-12
2.0757451e-12
2.1929409e-12
2.2832596e-12
2.271599e-12
2.3805446e-12
2.4775827e-12
2.3874746e-12
2.6979868e-12
2.7417939e-12
2.8115443e-12
-2.8126011e-08
-2.2185207e-17
-3.3291634e-24
1.0373639e-21
-1.1134807e-20
-9.1981961e-20
-1.2380112e-19
-1.0667699e-19
-1.1699048e-19
-1.1233616e-19
-1.0644635e-19
-1.0492946e-19
-1.0369082e-19
-1.0434464e-19
-1.037855e-19
-9.979954e-20
-9.5462472e-20
-1.0049217e-19
-9.7344945e-20
-9.9018134e-20
-9.7398525e-20
-1.0158773e-19
-9.9872498e-20
-9.7638552e-20
-1.0645723e-19
-1.0728822e-19
-1.0880913e-19
-1.1155597e-19
-1.1249865e-19
-1.1521936e-19
-1.1798043e-19
-1.2936377e-19
-1.3210133e-19
-1.3550952e-19
-1.4144263e-19
-1.5258041e-19
-1.5114558e-19
-1.6899623e-19
-1.7690884e-19
-1.8935762e-19
-1.4743298e-08
1.3370441e-18
1.3117517e-28
4.7950849e-31
5.3019486e-29
1.2537972e-27
6.9909497e-27
6.0485484e-27
6.3808408e-27
6.0428387e-27
5.7351835e-27
5.6435623e-27
5.4427709e-27
5.5717684e-27
5.500312e-27
5.0499092e-27
4.9425664e-27
5.156193e-27
5.0115702e-27
5.0359587e-27
5.0170593e-27
5.3256233e-27
5.3384584e-27
5.092645e-27
5.6903719e-27
5.5947624e-27
5.8552778e-27
6.027677e-27
6.2393009e-27
6.5312986e-27
6.6615114e-27
7.2959866e-27
7.4311302e-27
7.767344e-27
8.2987673e-27
9.4370411e-27
9.4440097e-27
1.0777367e-26
1.0933935e-26
1.2446695e-26
-9.0039311e-09
2.4440752e-19
1.7891326e-29
2.9308395e-39
-2.3397485e-35
-6.2519252e-36
-2.3887973e-34
-3.7316121e-34
-3.4478454e-34
-3.220864e-34
-2.9859407e-34
-2.9191993e-34
-2.8211869e-34
-2.7928101e-34
-2.7849706e-34
-2.5724463e-34
-2.5391685e-34
-2.6293421e-34
-2.5187549e-34
-2.5350644e-34
-2.5645371e-34
-2.6760413e-34
-2.6683727e-34
-2.5623115e-34
-2.8878831e-34
-2.9258263e-34
-3.0488372e-34
-3.1350742e-34
-3.2636146e-34
-3.4849462e-34
-3.5820089e-34
-4.1005296e-34
-4.1161103e-34
-4.3757637e-34
-4.9773464e-34
-5.5733234e-34
-5.5974447e-34
-6.905279e-34
-6.7212471e-34
-7.9695806e-34
-6.0505973e-09
7.6501664e-20
6.5958951e-30
5.0722056e-40
-2.1563261e-44
1.5708373e-44
3.1887249e-42
2.4148605e-41
1.9032363e-41
1.6349911e-41
1.4967509e-41
1.4775187e-41
1.4412988e-41
1.4246449e-41
1.3931305e-41
1.2522102e-41
1.241628e-41
1.3369684e-41
1.23366e-41
1.242477e-41
1.3210182e-41
1.3130009e-41
1.3338092e-41
1.2934617e-41
1.4307646e-41
1.4489501e-41
1.5108378e-41
1.5889207e-41
1.7231376e-41
1.776357e-41
1.9208188e-41
2.1920318e-41
2.2148808e-41
2.4595411e-41
2.7990016e-41
3.1976989e-41
3.2905157e-41
4.1689024e-41
4.1327271e-41
5.0196974e-41
-4.3302848e-09
3.0920551e-20
-1.1110489e-28
-5.0926907e-39
-1.345224e-48
-2.8306601e-53
-1.7116629e-50
-1.1672954e-48
-1.0865704e-48
-8.4203524e-49
-7.2511216e-49
-7.3506528e-49
-7.0652781e-49
-7.0079791e-49
-6.8217803e-49
-6.0644088e-49
-5.9388379e-49
-6.5333439e-49
-5.9693251e-49
-6.0401265e-49
-6.2934921e-49
-6.2764437e-49
-6.3261327e-49
-6.2350624e-49
-6.8936256e-49
-7.0464678e-49
-7.348721e-49
-7.6704948e-49
-8.513148e-49
-9.0720607e-49
-9.6513425e-49
-1.145714e-48
-1.1503617e-48
-1.3341383e-48
-1.494718e-48
-1.8339083e-48
-1.8960532e-48
-2.4839871e-48
-2.448984e-48
-2.9954116e-48
-3.2170074e-09
1.4492153e-20
-5.5429108e-31
-1.7717637e-41
-2.0152645e-51
4.8281417e-60
4.4488384e-59
2.7287135e-56
7.1102113e-56
4.2509984e-56
3.4766005e-56
3.4663129e-56
3.340129e-56
3.2417776e-56
3.2344604e-56
2.8210206e-56
2.8145914e-56
3.0080471e-56
2.749619e-56
2.7659681e-56
2.9770568e-56
2.9720347e-56
2.938446e-56
2.9316596e-56
3.2926803e-56
3.3047193e-56
3.4441346e-56
3.6645187e-56
4.0879711e-56
4.3738941e-56
4.6983502e-56
5.5737181e-56
5.8617671e-56
6.8086155e-56
7.7844936e-56
1.0209652e-55
1.0582855e-55
1.4239636e-55
1.3737818e-55
1.6723722e-55
-2.4339694e-09
7.4221932e-21
-1.0594684e-31
-2.6950686e-42
-1.6238193e-52
-4.4689681e-61
-6.6179898e-68
-2.7499749e-64
-4.9192445e-63
-2.1870161e-63
-1.6051486e-63
-1.6112288e-63
-1.4847651e-63
-1.4466132e-63
-1.4463379e-63
-1.2891593e-63
-1.2692453e-63
-1.3861886e-63
-1.2292999e-63
-1.2378713e-63
-1.3665608e-63
-1.3340649e-63
-1.2993046e-63
-1.3138329e-63
-1.4969221e-63
-1.5430673e-63
-1.5608572e-63
-1.6715522e-63
-1.8609455e-63
-2.0364671e-63
-2.2104208e-63
-2.7189383e-63
-2.871189e-63
-3.4416471e-63
-3.9384779e-63
-5.3103205e-63
-5.6381225e-63
-7.715579e-63
-7.5232017e-63
-8.5761512e-63
-1.8509444e-09
4.0042547e-21
-2.9398748e-32
-6.7904281e-43
-2.4790678e-53
-1.0953251e-62
1.1243548e-71
1.3028195e-72
2.9305213e-70
1.1970206e-70
7.0854147e-71
6.9996201e-71
6.6258256e-71
6.3738513e-71
6.2213107e-71
5.5435019e-71
5.4399875e-71
5.9401175e-71
5.1596584e-71
5.3095426e-71
5.9431967e-71
5.7555242e-71
5.6609514e-71
5.6734451e-71
6.5291847e-71
6.6933536e-71
6.7433992e-71
7.3733446e-71
8.1716314e-71
9.1526502e-71
9.7961639e-71
1.2784832e-70
1.3426984e-70
1.6087608e-70
1.896128e-70
2.6087031e-70
2.9267696e-70
3.9770943e-70
3.8224416e-70
4.3096146e-70
-1.3791234e-09
2.1810149e-21
-9.5101784e-33
-2.3647461e-43
-5.7657537e-54
-9.9952217e-64
8.3379002e-73
-5.4173285e-81
-9.5395949e-78
-7.4540992e-78
-3.0066977e-78
-2.9436019e-78
-2.7889242e-78
-2.6798108e-78
-2.5783431e-78
-2.3533655e-78
-2.2444421e-78
-2.4211071e-78
-2.1112778e-78
-2.1238621e-78
-2.4022229e-78
-2.4138776e-78
-2.3188933e-78
-2.3027008e-78
-2.7235092e-78
-2.7090293e-78
-2.7906237e-78
-3.0988039e-78
-3.4250885e-78
-3.9178966e-78
-4.1610126e-78
-5.5296107e-78
-5.8217958e-78
-7.3771267e-78
-8.730141e-78
-1.254852e-77
-1.4385549e-77
-1.9431993e-77
-1.7979123e-77
-1.9975063e-77
-9.7429643e-10
1.1431369e-21
-3.2183974e-33
-1.2029058e-43
-2.1110937e-54
-1.8582242e-64
1.5917629e-73
-2.4312349e-82
1.4559689e-85
4.9910151e-85
1.3041704e-85
1.1962585e-85
1.1035713e-85
1.0623639e-85
1.001061e-85
9.3317714e-86
8.7294829e-86
9.3702738e-86
8.2203188e-86
8.3471959e-86
9.1548229e-86
9.3921574e-86
9.0263188e-86
8.9532841e-86
1.0585379e-85
1.0455168e-85
1.0998911e-85
1.2287174e-85
1.3525947e-85
1.5574436e-85
1.6958139e-85
2.2696873e-85
2.3965111e-85
3.1770313e-85
3.8472707e-85
5.713972e-85
6.6120714e-85
8.721385e-85
7.7001647e-85
6.1721236e-85
-6.591294e-10
5.7556851e-22
-1.1045456e-33
1.9978765e-42
2.6802992e-53
1.3767482e-63
-2.0841469e-72
2.1162719e-81
-1.61403e-89
-3.6288418e-92
-5.9254898e-93
-4.5421695e-93
-4.2245288e-93
-4.0536459e-93
-3.8474481e-93
-3.5801975e-93
-3.3341673e-93
-3.5412058e-93
-3.0319731e-93
-3.1423154e-93
-3.4524362e-93
-3.381483e-93
-3.3882977e-93
-3.3641766e-93
-3.9988926e-93
-3.9646723e-93
-4.2335049e-93
-4.54771e-93
-5.1781059e-93
-5.9398957e-93
-6.6232842e-93
-8.9256313e-93
-9.5424505e-93
-1.2804546e-92
-1.5800764e-92
-2.3944329e-92
-2.8515143e-92
-3.6413497e-92
-2.8220154e-92
-1.1151052e-92
-4.519916e-10
2.9353884e-22
-3.9841908e-34
8.7982224e-45
9.4905422e-56
3.1221135e-66
5.5057442e-75
-4.0668232e-84
1.7144682e-92
1.2125424e-99
2.806424e-100
1.7179417e-100
1.5529985e-100
1.4807104e-100
1.4071969e-100
1.3190519e-100
1.2285191e-100
1.2864206e-100
1.1198616e-100
1.1507543e-100
1.246726e-100
1.2273969e-100
1.2261536e-100
1.2206366e-100
1.432923e-100
1.4495417e-100
1.532722e-100
1.6483188e-100
1.8747694e-100
2.2125167e-100
2.4613543e-100
3.3290848e-100
3.5551832e-100
4.9503577e-100
6.3538438e-100
9.6981142e-100
1.1461377e-99
1.3615243e-99
8.5235329e-100
1.5399198e-100
-3.3006253e-10
1.5994301e-22
-1.5757191e-34
1.41255e-45
1.2829615e-56
2.9011598e-67
1.0505113e-76
-6.1625657e-86
1.5803001e-94
-6.0463545e-102
-1.4529942e-107
-6.381747e-108
-5.5970114e-108
-5.2028675e-108
-4.9312477e-108
-4.6560309e-108
-4.2963461e-108
-4.4706816e-108
-3.9636485e-108
-4.0239688e-108
-4.3218591e-108
-4.3850436e-108
-4.2886621e-108
-4.2786933e-108
-5.0709342e-108
-5.1025701e-108
-5.3601923e-108
-5.7216617e-108
-6.732014e-108
-7.8987465e-108
-8.9605221e-108
-1.2264929e-107
-1.3019484e-107
-1.8988434e-107
-2.4894843e-107
-3.7520662e-107
-4.2696284e-107
-4.6295345e-107
-2.1715162e-107
-2.5725725e-108
-2.607705e-10
9.5347812e-23
-6.9514342e-35
3.3957668e-46
2.7229627e-57
4.4878053e-68
7.3130708e-78
-3.7541799e-87
6.4000326e-96
-1.3231009e-103
6.9309428e-111
2.2181638e-115
1.8226863e-115
1.6618358e-115
1.5576531e-115
1.4678996e-115
1.3763674e-115
1.3971097e-115
1.2353271e-115
1.2517056e-115
1.3526407e-115
1.4026798e-115
1.3423785e-115
1.3787683e-115
1.6202893e-115
1.651853e-115
1.6921921e-115
1.8369422e-115
2.1678465e-115
2.5746581e-115
2.9397836e-115
3.975481e-115
4.4143386e-115
6.5811011e-115
9.0946027e-115
1.3617522e-114
1.5292708e-114
1.3854577e-114
5.2274646e-115
1.8837953e-115
-2.210493e-10
6.2162162e-23
-3.4115865e-35
1.0294023e-46
7.6863085e-58
9.7030138e-69
8.9336862e-79
-4.5126367e-88
5.5220333e-97
-6.1821635e-105
2.6892688e-112
-8.0415635e-120
-5.0241076e-123
-4.5121514e-123
-4.2015664e-123
-3.9869925e-123
-3.616437e-123
-3.725686e-123
-3.3113318e-123
-3.3999069e-123
-3.6125644e-123
-3.7120081e-123
-3.5820307e-123
-3.6475941e-123
-4.2908704e-123
-4.5060777e-123
-4.5299974e-123
-4.937259e-123
-5.8991112e-123
-7.0647025e-123
-8.1903844e-123
-1.1382116e-122
-1.2625065e-122
-1.9695343e-122
-2.8202045e-122
-4.4294408e-122
-4.7612551e-122
-3.6187634e-122
-1.3074587e-122
4.6538264e-123
-1.9750609e-10
4.3795991e-23
-1.8430171e-35
3.7005734e-47
2.7330227e-58
2.7485349e-69
1.6063821e-79
-9.4645811e-89
8.8472981e-98
-5.909803e-106
1.9277225e-113
-4.975922e-121
1.1614005e-128
1.0321173e-130
9.6903727e-131
9.1293286e-131
8.3474721e-131
8.4864288e-131
7.5831997e-131
7.7471397e-131
8.1908698e-131
8.5710204e-131
8.1779401e-131
8.3513867e-131
9.8695943e-131
1.0351658e-130
1.0356174e-130
1.1404412e-130
1.3800916e-130
1.6343268e-130
1.906452e-130
2.7110847e-130
3.0254462e-130
4.8651902e-130
7.2401882e-130
1.1700532e-129
1.2031587e-129
8.0637651e-130
3.7883376e-130
6.323452e-131
-1.8287814e-10
3.2873004e-23
-1.0839023e-35
1.531369e-47
1.1944922e-58
9.8291726e-70
3.9128862e-80
-3.8168432e-89
2.852005e-98
-1.2516211e-106
3.4050312e-114
-8.483339e-122
1.9043966e-129
-4.5303834e-137
-2.2085064e-138
-2.0707567e-138
-1.895901e-138
-1.9682111e-138
-1.7336466e-138
-1.7830197e-138
-1.8916488e-138
-1.9965999e-138
-1.8686848e-138
-1.9208659e-138
-2.2597489e-138
-2.333906e-138
-2.364541e-138
-2.5690713e-138
-3.106974e-138
-3.682334e-138
-4.2947081e-138
-5.9712165e-138
-6.7133641e-138
-1.0737502e-137
-1.6266597e-137
-2.5895807e-137
-2.5062412e-137
-1.5810536e-137
-1.5789692e-137
8.2750158e-139
-1.7352571e-10
2.5995093e-23
-6.8832522e-36
7.1787357e-48
6.3606962e-59
4.3555801e-70
1.2399193e-80
1.3907347e-88
-8.6173154e-98
2.6857137e-106
-8.0005809e-114
3.0146419e-121
-9.5602625e-129
2.9784331e-136
-9.3981693e-144
6.807243e-146
6.2522052e-146
6.4812963e-146
5.8576146e-146
5.9244987e-146
6.2657231e-146
6.6461802e-146
6.2344437e-146
6.3141251e-146
7.3378566e-146
7.5206849e-146
7.4686057e-146
7.9806993e-146
9.3337323e-146
1.0773409e-145
1.2293156e-145
1.6117007e-145
1.7832993e-145
2.6793775e-145
3.8156601e-145
5.5417868e-145
4.7265254e-145
3.0558894e-145
1.1058736e-144
1.3477377e-146
-1.6790568e-10
2.1538781e-23
-4.7021724e-36
3.7767608e-48
4.2417062e-59
2.4626127e-70
5.2456015e-81
3.1159048e-90
-1.6726541e-99
3.9793279e-108
-1.8834387e-115
2.2832078e-121
-3.3091859e-128
4.3163875e-135
-6.3113513e-142
1.059784e-148
-1.0981772e-152
-1.1311812e-152
-1.0253432e-152
-1.1835584e-152
-1.1081995e-152
-1.0286983e-152
-1.015047e-152
-8.8777426e-153
-1.0560482e-152
-9.5625604e-153
-8.5803004e-153
-8.6829748e-153
-9.0519198e-153
-9.0578529e-153
-9.1833415e-153
-1.0823295e-152
-1.0189091e-152
-1.2904512e-152
-1.4935515e-152
-1.5909198e-152
-1.0393272e-152
-7.0686505e-153
-8.8151614e-152
3.1543749e-154
-1.6553279e-10
1.8703692e-23
-3.4577785e-36
2.2180451e-48
4.2681029e-59
2.1802668e-70
3.6788174e-81
9.8192096e-91
-4.9245419e-100
9.6178043e-109
-8.7650218e-116
-3.8041363e-123
-2.4411483e-130
-1.7701889e-137
-1.2947296e-144
-9.2787401e-152
-7.7958272e-159
-8.5236485e-160
-8.2456664e-160
-9.5636933e-160
-9.3063459e-160
-8.6351179e-160
-9.5037388e-160
-7.9239186e-160
-1.0206426e-159
-9.8804953e-160
-8.6289619e-160
-9.1883433e-160
-1.0069295e-159
-1.0108315e-159
-1.1149487e-159
-1.4944553e-159
-1.6352636e-159
-3.2989697e-159
-4.621012e-158
1.5841904e-159
4.2159193e-160
2.3178676e-160
3.0847816e-159
9.9854223e-162
-1.6625242e-10
1.7077025e-23
-2.745594e-36
1.4496503e-48
-1.6875962e-58
-8.1237638e-70
-1.1725666e-80
-1.912635e-90
1.0276652e-99
-1.7870916e-108
6.0096489e-116
3.5309249e-123
4.5901719e-130
1.2187069e-136
5.6690937e-143
1.3701994e-148
-1.2723085e-154
5.9458851e-161
2.3198242e-166
2.4080026e-166
1.9603273e-166
1.9610757e-166
1.9613161e-166
1.6320537e-166
1.9912665e-166
2.5003867e-166
2.2076667e-166
4.0457463e-166
6.4519831e-166
-1.3435896e-165
-4.6389332e-166
-2.7604285e-166
-1.9299302e-166
-2.6573764e-166
-3.0654326e-165
1.4020188e-166
-8.0025876e-167
-7.9725631e-168
-5.2946237e-167
3.3326914e-169
-1.6976813e-10
1.6423002e-23
-2.3578421e-36
1.0509999e-48
-1.0156278e-59
-5.1253263e-71
-6.9723574e-82
-8.1936302e-92
6.190959e-101
-1.0811857e-109
1.1187012e-117
-2.4056219e-125
4.314089e-133
-6.9599575e-141
1.04601e-148
-3.5227357e-156
1.8398168e-162
-8.4244488e-169
-3.1068351e-174
-3.2164979e-174
-2.5816753e-174
-2.5895383e-174
-2.5769315e-174
-2.1645781e-174
-2.7026933e-174
-3.4822021e-174
-3.1632634e-174
-5.9872233e-174
-1.0190474e-173
2.2911203e-173
8.7023728e-174
6.0680549e-174
5.2225413e-174
1.0704159e-173
3.116539e-172
-3.5344548e-172
5.9669866e-174
1.3983875e-175
5.9886809e-175
9.2137259e-177
-1.7536581e-10
1.6572021e-23
-2.1812712e-36
8.4006208e-49
-3.5839359e-60
-2.1971902e-71
-3.135751e-82
-2.9743282e-92
8.7363951e-101
-1.8237237e-109
8.6040267e-118
-4.9781142e-126
2.8286085e-134
-1.550954e-142
8.3203332e-151
-4.3763607e-159
2.269835e-167
-1.121995e-175
1.6402011e-182
1.6367558e-182
1.3121715e-182
1.3185077e-182
1.3166976e-182
1.1169318e-182
1.4064634e-182
1.8364727e-182
1.6985269e-182
3.290012e-182
5.7500847e-182
-1.3444825e-181
-5.350689e-182
-3.996682e-182
-3.7717543e-182
-9.0194251e-182
-3.3231159e-180
5.1183376e-180
-8.0742627e-182
-1.1615147e-183
-6.099332e-183
2.0461996e-184
-1.8185089e-10
1.7346943e-23
-2.1483003e-36
7.3206834e-49
-1.8996885e-60
-1.6964792e-71
-2.7581017e-82
-2.2398806e-92
-2.3142334e-101
7.704541e-110
-2.2233796e-118
6.8253147e-127
-2.1323485e-135
6.6335057e-144
-2.0476446e-152
6.2891212e-161
-1.920172e-169
5.8611489e-178
-1.7858185e-186
-4.9943633e-191
-4.009121e-191
-4.0380212e-191
-4.0549659e-191
-3.4501749e-191
-4.3718908e-191
-5.7637328e-191
-5.3744836e-191
-1.0548693e-190
-1.8727048e-190
4.4611222e-190
1.8230153e-190
1.4070349e-190
1.3968635e-190
3.5986341e-190
1.4985735e-188
-2.6923792e-188
4.3997805e-190
5.8635595e-192
8.7465379e-191
3.8626257e-192
-1.8779773e-10
1.8508128e-23
-2.2101333e-36
6.8419493e-49
-1.3081016e-60
-1.9074253e-71
-3.3996667e-82
-2.2966915e-92
-9.7608022e-102
8.8179543e-110
-1.9289602e-118
4.3174487e-127
-1.0175989e-135
2.4320619e-144
-5.826746e-153
1.4021019e-161
-3.3829384e-170
8.1943704e-179
-1.9921667e-187
4.8624495e-196
9.8188376e-200
9.9292164e-200
1.0011784e-199
8.5600321e-200
1.0858929e-199
1.4385478e-199
1.3454554e-199
2.6538597e-199
4.729814e-199
-1.1334995e-198
-4.6658342e-199
-3.6422933e-199
-3.6812113e-199
-9.7760856e-199
-4.3058856e-197
8.340427e-197
-1.4561938e-198
-2.3565208e-200
-1.2968909e-197
6.974431e-200
-1.9209289e-10
1.9745936e-23
-2.3222653e-36
6.7220092e-49
-1.1042711e-60
-1.7590624e-71
-2.6788037e-82
-1.3436735e-92
-3.7550005e-102
8.3954551e-110
-1.6263361e-118
3.4416001e-127
-7.9980601e-136
1.9207582e-144
-4.679761e-153
1.1565752e-161
-2.8880812e-170
7.3022765e-179
-1.8595885e-187
4.7742658e-196
-1.2340828e-204
-2.5773778e-208
-2.6069749e-208
-2.2306962e-208
-2.8314662e-208
-3.7436097e-208
-3.4938708e-208
-6.8609846e-208
-1.2157501e-207
2.885339e-207
1.1756667e-207
9.087817e-208
9.0908362e-208
2.3943733e-207
1.0530695e-205
-2.0824522e-205
3.9916855e-207
1.0283366e-208
-1.8234871e-205
1.3332733e-207
-1.9443929e-10
2.0764056e-23
-2.4430173e-36
6.805731e-49
-1.1025002e-60
-9.590813e-72
-9.6268688e-83
-3.2332813e-93
-7.0634739e-103
2.8922553e-111
-5.4788366e-120
1.4588934e-128
-4.6844731e-137
1.6029249e-145
-5.6863265e-154
2.0711218e-162
-7.7559889e-171
2.9755497e-179
-1.1588324e-187
4.5797939e-196
-1.8266974e-204
6.9337066e-213
1.0529833e-216
9.0065449e-217
1.1339287e-216
1.4892482e-216
1.3710134e-216
2.6367163e-216
4.5591564e-216
-1.0489901e-215
-4.1356681e-216
-3.060398e-216
-2.9125951e-216
-7.2345312e-216
-2.9824399e-214
5.6886921e-214
-1.246447e-215
-8.0098533e-217
-1.3233737e-213
3.1107218e-215
-1.9538083e-10
2.1418799e-23
-2.5440128e-36
6.9913974e-49
-1.2647265e-60
-5.6999888e-72
-3.6040459e-83
-8.0137469e-94
-1.4573419e-103
1.9471089e-112
-3.685768e-121
2.0714979e-129
-2.3482251e-137
3.3368824e-145
-5.5186467e-153
1.0824863e-160
-2.4617302e-168
6.569016e-176
-2.0003776e-183
6.8086955e-191
-2.4752448e-198
9.3345931e-206
-3.5144649e-213
1.3256357e-220
-3.773339e-224
-4.5956623e-224
-3.5938063e-224
-5.9430499e-224
-8.5893691e-224
1.6466969e-223
5.3394979e-224
3.2906815e-224
2.5410678e-224
5.1114857e-224
1.6795414e-222
-2.7669713e-222
7.7190792e-224
-2.82556e-224
-7.6170752e-222
1.0453125e-222
-1.9583657e-10
2.1780613e-23
-2.6207102e-36
7.2221786e-49
-1.6031052e-60
-4.5345442e-72
-1.9802574e-83
-3.1189585e-94
-4.7514242e-104
3.3295791e-113
-6.064857e-122
-1.0106302e-129
-5.8262526e-138
-3.1387348e-146
-1.632662e-154
-8.2348744e-163
-4.0251555e-171
-1.9222285e-179
-9.0700448e-188
-4.2428943e-196
-1.9865982e-204
-8.7760331e-213
-5.718327e-221
3.5321107e-229
-1.7880307e-232
-2.2141176e-232
-1.7659991e-232
-3.0139411e-232
-4.5258505e-232
9.1426317e-232
3.1668208e-232
2.1433543e-232
1.8921498e-232
4.6948803e-232
2.3371368e-230
-7.1757481e-230
1.1842446e-231
-1.5225628e-232
-4.4403705e-230
6.6010058e-230
-1.9656693e-10
2.204582e-23
-2.6895944e-36
7.4782465e-49
-2.0624395e-60
-4.4392542e-72
-1.5241262e-83
-1.8871174e-94
-2.4096684e-104
1.1917191e-113
-2.0255921e-122
-7.7286319e-131
-1.9369237e-139
-4.8194472e-148
-1.199165e-156
-2.9729409e-165
-7.3335415e-174
-1.8036785e-182
-4.4243257e-191
-1.0833084e-199
-2.6542309e-208
-6.5130393e-217
-1.6043814e-225
-3.9540895e-234
-4.5350096e-241
-5.5154723e-241
-4.4257793e-241
-7.6174132e-241
-1.1579732e-240
2.3663739e-240
8.3400101e-241
5.7669263e-241
5.2519557e-241
1.3654817e-240
7.3384172e-239
-2.5055878e-238
4.2162834e-240
-5.1827629e-241
-3.1730772e-238
2.3053124e-236
-1.979062e-10
2.239233e-23
-2.7739035e-36
7.765543e-49
-2.3220129e-60
-4.5098758e-72
-1.3878756e-83
-1.514525e-94
-1.6691473e-104
7.2881803e-114
-1.1778598e-122
-3.1230115e-131
-5.9048512e-140
-1.1286999e-148
-2.1883021e-157
-4.2623184e-166
-8.3387086e-175
-1.636691e-183
-3.2253852e-192
-6.370105e-201
-1.2619298e-209
-2.5053412e-218
-4.9832662e-227
-9.9277135e-236
-1.9790731e-244
-1.1022464e-249
-8.8442268e-250
-1.521667e-249
-2.3099341e-249
4.7210616e-249
1.6621487e-249
1.1497864e-249
1.0458387e-249
2.7338526e-249
1.5029312e-247
-5.4278567e-247
1.0055947e-248
-1.5994679e-249
-3.4213741e-246
-2.7919057e-243
-1.9977955e-10
2.2896589e-23
-2.8899173e-36
8.1048755e-49
-2.1042154e-60
-4.3234049e-72
-1.3510691e-83
-1.454764e-94
-1.4708476e-104
6.8752625e-114
-1.1286779e-122
-2.8877544e-131
-5.3066149e-140
-9.9580755e-149
-1.9147253e-157
-3.7191893e-166
-7.2984513e-175
-1.4448815e-183
-2.8830194e-192
-5.7851775e-201
-1.1653456e-209
-2.3564015e-218
-4.7703439e-227
-9.659299e-236
-1.9545729e-244
-3.9415274e-253
-1.777629e-258
-3.0395324e-258
-4.5719254e-258
9.2528913e-258
3.2224891e-258
2.1962913e-258
1.9634924e-258
5.0401149e-258
2.7603345e-256
-1.0402364e-255
2.2430871e-257
-5.6999865e-258
-7.6513629e-254
2.0525412e-250
-2.0187325e-10
2.3530566e-23
-3.0404171e-36
8.518577e-49
-1.6942943e-60
-4.346606e-72
-1.5535745e-83
-1.8378249e-94
-1.8469184e-104
1.113611e-113
-2.0342844e-122
-6.3018324e-131
-1.3608648e-139
-3.0156524e-148
-6.8975349e-157
-1.6083247e-165
-3.8071916e-174
-9.132722e-183
-2.2127811e-191
-5.4014759e-200
-1.3272052e-208
-3.2703654e-217
-8.076662e-226
-1.9954242e-234
-4.3065998e-243
-1.8520746e-250
6.7992394e-257
-4.7329103e-263
-1.1300429e-266
2.1518146e-266
7.317669e-267
4.8643673e-267
4.215325e-267
1.0459282e-266
5.6159951e-265
-2.2042759e-264
5.8641836e-266
-2.9678123e-266
-1.2855368e-260
-1.1449345e-257
-2.0383359e-10
2.4202936e-23
-3.2147334e-36
9.014532e-49
-1.3779332e-60
-5.4480802e-72
-2.5043226e-83
-3.6014071e-94
-3.9223372e-104
3.7429448e-113
-8.3369012e-122
-3.8984494e-130
-1.1825796e-138
-3.6851685e-147
-1.1958193e-155
-3.9987391e-164
-1.3635255e-172
-4.7243179e-181
-1.6600926e-189
-5.9148732e-198
-2.1108773e-206
-9.8397657e-215
3.9045852e-222
-8.5313686e-229
2.2533131e-235
-6.5698265e-242
2.5893818e-248
-1.812285e-254
-1.9781777e-259
-9.4168074e-266
-1.9403595e-272
1.4911572e-275
1.2349319e-275
2.9215846e-275
1.5248593e-273
-6.2945908e-273
2.2278992e-274
-3.4250394e-274
6.6965846e-268
5.8118219e-265
-2.0541166e-10
2.4811987e-23
-3.3933406e-36
9.5755043e-49
-1.193226e-60
-1.0912873e-71
-7.3055062e-83
-1.4061049e-93
-1.8083715e-103
3.6746266e-112
-1.0871781e-120
-1.0578216e-128
-5.575703e-137
-3.0278066e-145
-1.7361938e-153
-1.0338219e-161
-6.3034512e-170
-3.9798143e-178
-1.9456447e-186
-1.3945884e-193
2.5899431e-200
-5.6227722e-207
1.0636658e-213
-2.1457669e-220
5.6407434e-227
-1.6403869e-233
6.4957531e-240
-4.5848879e-246
-5.0958656e-251
-2.4797394e-257
-5.2443889e-264
-6.6295504e-271
-5.1534013e-278
1.3187931e-283
6.7607787e-282
-3.0325585e-281
1.6389475e-282
6.8526086e-282
-2.0267307e-275
-3.0699675e-272
-2.065179e-10
2.5288268e-23
-3.5552605e-36
1.016069e-48
-1.1033892e-60
7.1855278e-71
8.1588192e-82
2.3091378e-92
3.8032916e-102
-3.8995187e-110
1.6447387e-118
9.335811e-126
1.2202396e-133
1.6412577e-141
2.4162392e-149
3.7231167e-157
7.8241926e-165
-2.7532137e-172
8.8127618e-179
-1.7700314e-185
3.5514227e-192
-7.2948793e-199
1.3422181e-205
-2.6421463e-212
6.775105e-219
-1.9479344e-225
7.6928293e-232
-5.5037994e-238
-6.2573069e-243
-3.1469236e-249
-6.9081595e-256
-9.0848268e-263
-7.484289e-270
-4.5142956e-277
-2.2547846e-284
-3.5426357e-289
2.5183042e-290
2.3771556e-288
5.4217803e-283
1.6214548e-279
-2.0719644e-10
2.5612162e-23
-3.6855209e-36
1.0718762e-48
-1.073524e-60
9.8926904e-72
2.4493135e-82
1.1246182e-92
2.5581448e-102
2.1275034e-110
-1.3657843e-118
4.095666e-126
1.3860885e-132
3.9076892e-139
5.0712944e-145
-2.7009522e-151
9.9156482e-158
-2.1681751e-164
4.338216e-171
-7.6739734e-178
1.2789436e-184
-2.0470692e-191
3.2051782e-198
-4.9540863e-205
8.9302269e-212
-1.7729131e-218
4.790706e-225
-2.0728869e-231
-1.4589689e-236
-7.3805806e-243
-1.7175554e-249
-2.1854707e-256
-1.7890163e-263
-1.1102518e-270
-7.0341983e-278
-2.2855715e-284
7.8668149e-292
-1.8266963e-296
-1.48004e-290
-9.2559534e-287
-2.0756038e-10
2.5805085e-23
-3.7791721e-36
1.1205359e-48
-1.0793474e-60
6.3798284e-72
8.4671623e-82
7.091025e-92
2.3860366e-101
1.1763488e-109
-1.2210128e-117
2.3603032e-125
-7.3691614e-133
2.3906654e-140
-7.7805521e-148
2.4206419e-155
-7.4711491e-163
2.3542222e-170
-8.5691483e-178
4.8530415e-185
-5.3684961e-192
7.8027384e-199
-1.1999417e-205
1.8774453e-212
-3.2805867e-219
6.3308528e-226
-1.703929e-232
7.0393085e-239
4.6870261e-244
2.321043e-250
5.0550795e-257
6.0346154e-264
4.464453e-271
2.5061343e-278
1.6173474e-285
5.4132492e-292
-2.264542e-299
-4.7988049e-305
4.3396126e-298
5.6265046e-294
-2.0773177e-10
2.5907441e-23
-3.8403345e-36
1.1596249e-48
-1.1040303e-60
5.4247475e-72
-4.2418638e-82
-7.7689835e-92
-4.1140379e-101
-2.0165593e-109
3.683471e-117
-7.3349331e-125
1.8065485e-132
-4.6301312e-140
1.2043933e-147
-3.1030251e-155
8.0063199e-163
-2.1111864e-170
5.5310561e-178
-1.4762432e-185
3.8982395e-193
-1.0249449e-200
2.6994291e-208
-7.1475796e-216
1.9096293e-223
-5.0456945e-231
1.3655597e-238
-5.468131e-246
-1.2185225e-251
-5.8441611e-258
-1.1893902e-264
-1.2576923e-271
-8.4110463e-279
-4.237225e-286
-2.8253418e-293
-9.8891808e-300
5.0791503e-307
1.1105216e-311
-1.375744e-305
-3.5379223e-301
-2.0780591e-10
2.5958543e-23
-3.8779094e-36
1.1890401e-48
-1.1358039e-60
5.1612817e-72
-2.1339229e-82
-1.4045933e-91
-1.2385039e-100
-7.2494685e-109
2.4369544e-116
-6.1753931e-124
1.7287856e-131
-5.061493e-139
1.5220991e-146
-4.6146311e-154
1.4336026e-161
-4.4560745e-169
1.398453e-176
-4.3019833e-184
1.3464105e-191
-4.2383242e-199
1.332531e-206
-4.2267019e-214
1.3405316e-221
-4.2053309e-229
1.2990989e-236
-3.9894635e-244
1.2306916e-251
-3.7683339e-259
1.1382436e-266
-3.3748667e-274
9.736297e-282
-2.66073e-289
6.4535026e-297
-1.1928483e-304
1.5159552e-312
-3.6201702e-313
6.571643e-313
2.3451381e-308
-2.0784204e-10
2.5986386e-23
-3.9011085e-36
1.210359e-48
-1.1670835e-60
5.1529081e-72
-1.7132124e-82
2.3159602e-91
3.6035769e-100
2.7823523e-108
-2.1505257e-115
7.8225983e-123
-2.9832903e-130
1.1983175e-137
-4.8351179e-145
1.9865113e-152
-8.2445678e-160
3.5695871e-167
-1.529536e-174
6.480418e-182
-2.8397356e-189
1.2059743e-196
-5.2224309e-204
2.2343704e-211
-9.3437566e-219
3.8566364e-226
-1.586402e-233
6.6002691e-241
-2.7402262e-248
1.0784502e-255
-4.2716474e-263
1.6793682e-270
-6.5702228e-278
2.662917e-285
-1.4564823e-292
1.0869023e-299
-7.0021789e-307
6.9227903e-313
-5.9791004e-313
1.4590685e-313
-2.0786915e-10
2.6006405e-23
-3.9168477e-36
1.2258153e-48
-1.1939893e-60
5.2317207e-72
-1.5848785e-82
7.8905742e-92
2.3559323e-100
2.4995928e-108
-4.4162799e-115
2.3485239e-122
-1.2926114e-129
7.1705202e-137
-4.1658193e-144
2.368144e-151
-1.3804252e-158
8.1824923e-166
-4.8181606e-173
2.8922101e-180
-1.7731067e-187
1.0214108e-194
-6.2405579e-202
3.7718521e-209
-2.1680812e-216
1.2641052e-223
-7.3440998e-231
4.1694869e-238
-2.3983686e-245
1.3295405e-252
-7.321709e-260
3.9044697e-267
-1.9509059e-274
8.9254873e-282
-3.3161121e-289
9.2625762e-297
-1.8908365e-304
3.8941551e-312
3.8923203e-313
1.6467232e-313
-2.0789727e-10
2.6024853e-23
-3.929177e-36
1.2374521e-48
-1.2154995e-60
5.3226423e-72
-1.53966e-82
5.5909197e-92
3.9958214e-100
5.9584326e-108
-2.0030022e-114
1.4903917e-121
-1.0950017e-128
7.786146e-136
-5.8180045e-143
4.3995545e-150
-3.1757834e-157
2.4425696e-164
-1.8930234e-171
1.4549027e-178
-1.1292761e-185
8.6495368e-193
-6.5988149e-200
5.0145894e-207
-3.7805472e-214
2.8052815e-221
-2.2045024e-228
1.655779e-235
-1.2308909e-242
9.051001e-250
-6.578479e-257
4.7766117e-264
-3.2431621e-271
2.0659714e-278
-1.0675992e-285
3.8278167e-293
-9.6957504e-301
2.1971479e-308
-1.4253703e-312
1.6633574e-312
-2.0792721e-10
2.6043027e-23
-3.9399204e-36
1.2467259e-48
-1.2322456e-60
5.3970119e-72
-1.5165809e-82
4.673602e-92
4.5858384e-99
1.0044838e-106
-3.4813528e-113
3.051209e-120
-2.6634207e-127
2.2128133e-134
-1.96869e-141
1.6817357e-148
-1.5534765e-155
1.4361992e-162
-1.2258259e-169
1.0909017e-176
-9.6439177e-184
8.315836e-191
-7.5560025e-198
6.6587686e-205
-5.4175423e-212
4.6728209e-219
-4.1028629e-226
3.4379011e-233
-3.0192461e-240
2.594941e-247
-2.2380646e-254
1.902994e-261
-1.4835329e-268
1.1629061e-275
-6.8487786e-283
2.7077526e-290
-7.1067503e-298
1.6520253e-305
1.1341956e-312
-1.5536083e-312
-2.0795716e-10
2.6060399e-23
-3.9496259e-36
1.2544877e-48
-1.2454256e-60
5.4503852e-72
-1.4970132e-82
4.1390942e-92
-4.8564593e-100
-1.601138e-107
4.1534494e-114
-3.792448e-121
3.4517361e-128
-3.0852468e-135
2.7487832e-142
-2.5292306e-149
2.2408752e-156
-2.0286483e-163
1.910567e-170
-1.7357461e-177
1.6765031e-184
-1.4805065e-191
1.3495218e-198
-1.188806e-205
1.1176099e-212
-1.014605e-219
8.9998906e-227
-8.348087e-234
7.3956075e-241
-6.7455352e-248
5.7603682e-255
-5.1748997e-262
4.2956834e-269
-3.3419075e-276
2.061334e-283
-8.3681316e-291
2.2667891e-298
-5.2356532e-306
2.0192359e-313
-1.7357826e-312
-2.0798512e-10
2.6076211e-23
-3.9583184e-36
1.2611593e-48
-1.2561241e-60
5.4879374e-72
-1.4775836e-82
3.764863e-92
-2.3598199e-100
-1.2250729e-107
2.2493576e-114
-2.0616228e-121
1.8270166e-128
-1.6152355e-135
1.4451045e-142
-1.2203676e-149
1.1093696e-156
-9.6686609e-164
8.6236004e-171
-7.522362e-178
6.5064107e-185
-5.6543189e-192
5.2058231e-199
-4.4973821e-206
3.7698609e-213
-3.3884381e-220
2.9312474e-227
-2.5935742e-234
2.3235554e-241
-1.960388e-248
1.7098277e-255
-1.4525344e-262
1.2120382e-269
-9.3904135e-277
5.9602558e-284
-2.3833254e-291
6.4748891e-299
-1.5055863e-306
-4.0032133e-314
7.346482e-313
-2.0801013e-10
2.6090081e-23
-3.9659369e-36
1.2669323e-48
-1.2650898e-60
5.5160935e-72
-1.4595035e-82
3.4852383e-92
-1.5713613e-100
-1.5654766e-107
2.6381563e-114
-2.4200808e-121
2.2064575e-128
-1.9870208e-135
1.7411634e-142
-1.5266034e-149
1.3312001e-156
-1.2558739e-163
1.0781309e-170
-9.4631668e-178
8.0620966e-185
-7.0749417e-192
6.4166841e-199
-5.5988892e-206
5.0741223e-213
-4.4547305e-220
3.96273e-227
-3.3909037e-234
2.9175483e-241
-2.499089e-248
2.1072648e-255
-1.75253e-262