/*--------------------------------*- C++ -*----------------------------------*\
  =========                 |
  \\      /  F ield         | OpenFOAM: The Open Source CFD Toolbox
   \\    /   O peration     | Website:  https://openfoam.org
    \\  /    A nd           | Version:  10
     \\/     M anipulation  |
\*---------------------------------------------------------------------------*/
FoamFile
{
    format      ascii;
    class       volScalarField;
    location    "0.06";
    object      TporMedia_0;
}
// * * * * * * * * * * * * * * * * * * * * * * * * * * * * * * * * * * * * * //

dimensions      [0 0 0 1 0 0 0];

internalField   nonuniform List<scalar> 
4000
(
-7.3050704e-07
3.8058293e-07
-2.3219202e-05
-2.2730264e-05
-3.8658141e-05
-3.4416346e-05
-3.415667e-05
-3.4310273e-05
-3.2712749e-05
-3.3796068e-05
-3.3589955e-05
-3.195676e-05
-3.2567621e-05
-3.2564508e-05
-3.1910585e-05
-3.2524654e-05
-3.1909541e-05
-3.2444938e-05
-3.147281e-05
-3.228766e-05
-3.1686543e-05
-3.2130464e-05
-3.2227055e-05
-3.1867951e-05
-3.2628632e-05
-3.3044381e-05
-3.322265e-05
-3.3334385e-05
-3.3743398e-05
-3.411271e-05
-3.3596589e-05
-3.5061597e-05
-3.4594012e-05
-3.5115909e-05
-3.6260822e-05
-3.6549635e-05
-3.7095286e-05
-3.7683362e-05
-3.8588443e-05
-3.968657e-05
-6.5781661e-08
7.5193451e-17
-1.5233458e-14
3.1909834e-13
1.157964e-12
2.0322966e-12
1.8954175e-12
1.8126545e-12
1.8565003e-12
1.8368385e-12
1.8359641e-12
1.7144224e-12
1.8070214e-12
1.7298732e-12
1.733475e-12
1.7159523e-12
1.681372e-12
1.7313339e-12
1.6696065e-12
1.7119636e-12
1.6166532e-12
1.6682795e-12
1.6905573e-12
1.6213278e-12
1.7199666e-12
1.7582012e-12
1.8451533e-12
1.7962406e-12
1.8707754e-12
1.8600521e-12
1.8614512e-12
1.9895673e-12
2.0443549e-12
2.0921097e-12
2.2022008e-12
2.1963958e-12
2.3023105e-12
2.3385937e-12
2.460668e-12
2.6585734e-12
-2.6037167e-08
-1.8859456e-17
-2.7404717e-24
8.3822422e-22
-9.1968942e-21
-7.7411993e-20
-1.0862087e-19
-9.8881545e-20
-1.0054774e-19
-9.8055621e-20
-9.4353401e-20
-9.3389213e-20
-9.3669106e-20
-8.9257307e-20
-8.6603023e-20
-8.6824131e-20
-8.4636001e-20
-8.8356458e-20
-8.5331293e-20
-8.8512111e-20
-8.2346609e-20
-8.4168177e-20
-8.5584039e-20
-8.2637704e-20
-8.9332776e-20
-9.1782064e-20
-9.4496867e-20
-9.802461e-20
-9.8517333e-20
-9.8936503e-20
-1.0030392e-19
-1.0902828e-19
-1.1294575e-19
-1.1740775e-19
-1.314076e-19
-1.2684582e-19
-1.3634324e-19
-1.4302371e-19
-1.5477566e-19
-1.6636817e-19
-1.3624381e-08
1.1452332e-18
1.0408076e-28
3.597462e-31
4.0698472e-29
9.8771111e-28
5.8779388e-27
5.3348774e-27
5.3370023e-27
4.9712001e-27
4.7951176e-27
4.6405644e-27
4.7343402e-27
4.3060507e-27
4.2749273e-27
4.436136e-27
4.0863793e-27
4.4266646e-27
4.1994666e-27
4.4567665e-27
4.1196794e-27
4.1758047e-27
4.3940921e-27
4.1468614e-27
4.4519828e-27
4.700179e-27
4.6933888e-27
4.8273073e-27
5.1290021e-27
5.1004552e-27
5.2591124e-27
5.8002385e-27
6.2282708e-27
6.5095932e-27
7.3543996e-27
7.1438183e-27
7.8163797e-27
8.899408e-27
9.3042576e-27
1.059111e-26
-8.3035933e-09
2.0840641e-19
1.4109597e-29
2.1411455e-39
-2.4867747e-35
-4.579379e-36
-1.8680485e-34
-3.009905e-34
-2.7397873e-34
-2.4394194e-34
-2.449465e-34
-2.3015807e-34
-2.322135e-34
-2.1476688e-34
-2.1297942e-34
-2.130449e-34
-1.9228164e-34
-2.1221862e-34
-2.0350289e-34
-2.1805259e-34
-2.0743239e-34
-2.0277851e-34
-2.1165109e-34
-1.9930414e-34
-2.1964234e-34
-2.3101741e-34
-2.3749348e-34
-2.3769802e-34
-2.6024633e-34
-2.6114962e-34
-2.7195537e-34
-3.0117866e-34
-3.2329193e-34
-3.513343e-34
-4.0460216e-34
-4.0932895e-34
-4.481633e-34
-5.227279e-34
-5.5073642e-34
-6.440067e-34
-5.567594e-09
6.4971582e-20
5.1691619e-30
3.6827215e-40
-2.1267257e-44
1.0723275e-44
2.3374622e-42
1.8136574e-41
1.3890175e-41
1.2224842e-41
1.1987087e-41
1.1196525e-41
1.0904722e-41
1.0081535e-41
1.0232429e-41
1.0173891e-41
9.2148419e-42
1.00076e-41
9.5634406e-42
1.0364798e-41
1.0001087e-41
9.7334196e-42
1.0243666e-41
9.4421347e-42
1.0712857e-41
1.1018747e-41
1.1330287e-41
1.1464094e-41
1.2797995e-41
1.3101644e-41
1.3792292e-41
1.5539742e-41
1.6694795e-41
1.8310899e-41
2.1348471e-41
2.2358394e-41
2.5568208e-41
3.027532e-41
3.265671e-41
3.7709073e-41
-3.972493e-09
2.6135083e-20
-1.0360009e-28
-4.3933706e-39
-1.0767738e-48
-1.8009997e-53
-1.1777061e-50
-8.2839145e-49
-7.6989166e-49
-5.9126283e-49
-5.5771129e-49
-5.2781695e-49
-5.0628343e-49
-4.7510431e-49
-4.6508216e-49
-4.7626083e-49
-4.3112077e-49
-4.5497489e-49
-4.3601113e-49
-4.7492705e-49
-4.5441751e-49
-4.4603201e-49
-4.8360487e-49
-4.2715479e-49
-4.9481581e-49
-5.1002239e-49
-5.196851e-49
-5.4904221e-49
-5.9827688e-49
-6.2047952e-49
-6.5524065e-49
-7.5601341e-49
-8.3445233e-49
-9.4058617e-49
-1.1027318e-48
-1.1889885e-48
-1.4497003e-48
-1.7052444e-48
-1.8979264e-48
-2.1065971e-48
-2.9380323e-09
1.2170806e-20
-4.310384e-31
-1.2725258e-41
-1.3420133e-51
2.9841583e-60
2.8571447e-59
1.8350002e-56
4.7336602e-56
2.7660513e-56
2.5504115e-56
2.437568e-56
2.2626977e-56
2.135514e-56
2.0613867e-56
2.1007214e-56
1.9041669e-56
2.0707002e-56
1.9326053e-56
2.0749976e-56
2.0008258e-56
1.9573953e-56
2.1273736e-56
1.8990115e-56
2.2029651e-56
2.2911164e-56
2.2930071e-56
2.5187033e-56
2.7592168e-56
2.8280629e-56
2.9969768e-56
3.7251819e-56
4.0741648e-56
4.584077e-56
5.4650987e-56
6.0879098e-56
7.4218445e-56
9.0427344e-56
1.0227747e-55
1.1045766e-55
-2.2126178e-09
6.190687e-21
-8.1621168e-32
-1.9136646e-42
-1.0683501e-52
-2.7492254e-61
-3.9636513e-68
-1.7347814e-64
-3.1521192e-63
-1.3425614e-63
-1.1120046e-63
-1.0831268e-63
-9.891029e-64
-9.1057846e-64
-8.8046052e-64
-8.9514195e-64
-8.0934344e-64
-8.6630065e-64
-8.090289e-64
-8.9873255e-64
-8.5785243e-64
-8.2692249e-64
-8.9372845e-64
-7.9974909e-64
-9.294173e-64
-9.8373917e-64
-1.0014279e-63
-1.0711824e-63
-1.2229607e-63
-1.2547964e-63
-1.3543905e-63
-1.7060373e-63
-1.8893369e-63
-2.1535167e-63
-2.6347118e-63
-3.0451393e-63
-3.862221e-63
-4.6003339e-63
-5.1818244e-63
-5.4453508e-63
-1.6742572e-09
3.3147325e-21
-2.2425564e-32
-4.7631677e-43
-1.6102194e-53
-6.62935e-63
6.3478521e-72
7.7362521e-73
1.7618546e-70
6.8158262e-71
4.6617576e-71
4.4619545e-71
4.1965503e-71
3.745253e-71
3.6266343e-71
3.5855086e-71
3.3647374e-71
3.5454357e-71
3.3562657e-71
3.6920749e-71
3.486471e-71
3.3411013e-71
3.6949687e-71
3.324086e-71
3.8426241e-71
4.0721978e-71
4.1315373e-71
4.4907373e-71
5.1130891e-71
5.2545168e-71
5.809815e-71
7.2687431e-71
8.177721e-71
9.6510144e-71
1.2120177e-70
1.4416621e-70
1.9367371e-70
2.2724957e-70
2.4866272e-70
2.5952081e-70
-1.235115e-09
1.7815711e-21
-7.140683e-33
-1.6279732e-43
-3.6722697e-54
-5.922081e-64
4.6134372e-73
-2.9441053e-81
-5.3005276e-78
-4.0137686e-78
-1.9235072e-78
-1.7970753e-78
-1.6703551e-78
-1.4846879e-78
-1.4366037e-78
-1.3855907e-78
-1.3154263e-78
-1.388878e-78
-1.3039251e-78
-1.4461973e-78
-1.3652352e-78
-1.2701354e-78
-1.443221e-78
-1.262179e-78
-1.4802148e-78
-1.6223811e-78
-1.6235198e-78
-1.7916768e-78
-2.0102649e-78
-2.1071542e-78
-2.3746642e-78
-3.0091417e-78
-3.4283324e-78
-4.0517116e-78
-5.2876029e-78
-6.4532379e-78
-9.0122973e-78
-1.027706e-77
-1.1316793e-77
-1.1210976e-77
-8.6008674e-10
9.1634794e-22
-2.3663369e-33
-8.0379441e-44
-1.303382e-54
-1.0658798e-64
8.5302191e-74
-1.2210497e-82
7.6143554e-86
2.6274369e-85
7.8168452e-86
6.885736e-86
6.2037451e-86
5.5605949e-86
5.3718735e-86
5.2077436e-86
4.9314719e-86
5.2147279e-86
4.8557407e-86
5.2337195e-86
5.0761051e-86
4.7442333e-86
5.3304068e-86
4.6562209e-86
5.5943231e-86
5.9777306e-86
6.1216792e-86
6.8518424e-86
7.5986141e-86
8.0283209e-86
9.0371968e-86
1.1689782e-85
1.3392222e-85
1.6447258e-85
2.2144235e-85
2.7319078e-85
3.9298746e-85
4.3068402e-85
4.4705374e-85
3.0628214e-85
-5.770397e-10
4.5529874e-22
-8.0019104e-34
-3.6728636e-42
-4.544538e-53
-2.1677595e-63
3.0461535e-72
-2.8980713e-81
2.08566e-89
-1.8334586e-92
-3.3193664e-93
-2.4958524e-93
-2.2408498e-93
-2.009685e-93
-1.9484289e-93
-1.8623866e-93
-1.7507641e-93
-1.8710887e-93
-1.7351584e-93
-1.854981e-93
-1.8103293e-93
-1.7149969e-93
-1.9224524e-93
-1.6793048e-93
-2.0272626e-93
-2.1429334e-93
-2.1847092e-93
-2.4943879e-93
-2.7787258e-93
-2.9373703e-93
-3.336313e-93
-4.3382039e-93
-5.1369499e-93
-6.2592138e-93
-8.7313366e-93
-1.1099716e-92
-1.5436047e-92
-1.6614176e-92
-1.5177667e-92
-4.8562521e-93
-3.9711823e-10
2.3204406e-22
-2.8808602e-34
6.0575786e-45
6.0169796e-56
1.840654e-66
3.1305538e-75
-2.1685087e-84
8.6402624e-93
5.7685208e-100
1.5114675e-100
9.0531737e-101
7.9793667e-101
7.1000162e-101
6.8570146e-101
6.4471237e-101
6.0403793e-101
6.5341235e-101
6.0358149e-101
6.4739774e-101
6.2747727e-101
5.8932591e-101
6.575442e-101
5.8182286e-101
7.0621624e-101
7.4574403e-101
7.7590933e-101
8.769823e-101
9.5943278e-101
1.0178593e-100
1.1977859e-100
1.6072123e-100
1.836041e-100
2.3607271e-100
3.2637994e-100
4.3103689e-100
5.9341108e-100
5.8812312e-100
4.1979088e-100
6.3264664e-101
-2.9348354e-10
1.2764414e-22
-1.1486268e-34
9.6909604e-46
8.1038337e-57
1.709885e-67
5.8969279e-77
-3.2596763e-86
7.9513247e-95
-2.8481641e-102
-7.0825109e-108
-3.1166347e-108
-2.6053057e-108
-2.3452372e-108
-2.2855479e-108
-2.1042241e-108
-2.0245727e-108
-2.1179167e-108
-1.9974925e-108
-2.1328636e-108
-2.0424693e-108
-1.9252021e-108
-2.1060852e-108
-1.8850975e-108
-2.3392311e-108
-2.4399374e-108
-2.5386924e-108
-2.9205846e-108
-3.1673691e-108
-3.375661e-108
-4.0986948e-108
-5.4002486e-108
-6.3056087e-108
-8.184968e-108
-1.1871013e-107
-1.6306811e-107
-2.1046054e-107
-1.8872762e-107
-1.0021836e-107
-1.1325489e-108
-2.353653e-10
7.725193e-23
-5.1369835e-35
2.3467061e-46
1.7356748e-57
2.6809652e-68
4.156467e-78
-2.0247641e-87
3.3044891e-96
-6.2970672e-104
2.8283579e-111
9.5471901e-116
7.5599421e-116
6.8271424e-116
6.6115769e-116
6.0385139e-116
5.6991976e-116
6.0367998e-116
5.6851596e-116
6.0184594e-116
5.7730831e-116
5.4876121e-116
5.8994586e-116
5.3818007e-116
6.6500155e-116
6.8717017e-116
7.3060712e-116
8.2257381e-116
9.1698051e-116
9.9190115e-116
1.2169668e-115
1.6141342e-115
1.9206153e-115
2.5808822e-115
3.9298915e-115
5.5887924e-115
6.911948e-115
5.2929185e-115
2.2883432e-115
4.132886e-115
-2.0242006e-10
5.1255699e-23
-2.5644383e-35
7.206455e-47
4.9715469e-58
5.8977098e-69
5.1538245e-79
-2.4913958e-88
2.92466e-97
-3.0292531e-105
1.0911662e-112
-2.8409638e-120
-1.8492607e-123
-1.6217709e-123
-1.5945633e-123
-1.4419911e-123
-1.3567684e-123
-1.4270006e-123
-1.3558391e-123
-1.4491294e-123
-1.3609393e-123
-1.2916261e-123
-1.3937662e-123
-1.2764781e-123
-1.5651536e-123
-1.6466385e-123
-1.7819466e-123
-1.9914651e-123
-2.2349605e-123
-2.4033609e-123
-2.9963866e-123
-3.976929e-123
-4.9118113e-123
-6.7015518e-123
-1.0798832e-122
-1.6096801e-122
-1.9453122e-122
-1.2453297e-122
-5.5312811e-123
8.0974921e-123
-1.8314302e-10
3.6769198e-23
-1.4127966e-35
2.6408447e-47
1.7944066e-58
1.6923197e-69
9.3429534e-80
-5.2836578e-89
4.7157857e-98
-2.9585287e-106
8.7913994e-114
-2.0698291e-121
4.5238855e-129
3.5385801e-131
3.4812965e-131
3.1172273e-131
2.9142361e-131
3.1360655e-131
2.9754277e-131
3.1452883e-131
2.9874776e-131
2.8266374e-131
2.9890519e-131
2.8058855e-131
3.4054395e-131
3.6110715e-131
3.8514959e-131
4.3577975e-131
4.8090099e-131
5.2598565e-131
6.5336928e-131
8.6197147e-131
1.0739909e-130
1.4951454e-130
2.4454856e-130
3.779815e-130
4.3141042e-130
2.5020038e-130
1.648257e-130
1.0234613e-130
-1.7138956e-10
2.8084478e-23
-8.4891425e-36
1.1207558e-47
7.9016116e-59
6.0555971e-70
2.2649779e-80
-2.0752545e-89
1.4674265e-98
-6.1835214e-107
1.8591472e-114
-5.2267303e-122
1.2782173e-129
-3.2514619e-137
-8.7876819e-139
-7.8615168e-139
-7.507102e-139
-8.1278404e-139
-7.5957897e-139
-8.1601599e-139
-7.751395e-139
-7.2489554e-139
-7.8071825e-139
-7.3096002e-139
-8.8006472e-139
-9.2935695e-139
-9.6056846e-139
-1.0991658e-138
-1.1666333e-138
-1.2648039e-138
-1.545406e-138
-2.0138063e-138
-2.469531e-138
-3.3483881e-138
-5.3918508e-138
-7.8745003e-138
-8.2628205e-138
-4.6323134e-138
-7.6886985e-138
1.3247094e-138
-1.6416517e-10
2.2583796e-23
-5.5151366e-36
5.4098951e-48
4.1868359e-59
2.654449e-70
7.0996371e-81
6.2589607e-88
-3.6508903e-97
1.1185793e-105
-5.4217719e-113
3.6513894e-120
-1.9428096e-127
1.0060935e-134
-5.4078164e-142
4.2707324e-146
4.2517229e-146
4.5198783e-146
4.4558469e-146
4.7147889e-146
4.4736227e-146
4.1060706e-146
4.3410695e-146
4.0181355e-146
4.7262099e-146
4.8135303e-146
4.7698753e-146
5.3050759e-146
5.4817841e-146
5.4976079e-146
6.370376e-146
7.6498865e-146
8.7919904e-146
1.0688208e-145
1.5134366e-145
1.8539927e-145
1.6272974e-145
9.388684e-146
5.7857245e-145
2.2625173e-146
-1.6028168e-10
1.903246e-23
-3.8596006e-36
2.9356272e-48
2.7632972e-59
1.492892e-70
3.0235657e-81
1.9040623e-90
-9.7397447e-100
2.348136e-108
-5.9091965e-115
-4.0480209e-122
-5.4208938e-129
-7.9905621e-136
-1.1338302e-142
-1.5802677e-149
5.872569e-153
6.1849279e-153
6.4877127e-153
7.2155001e-153
7.1221461e-153
6.5104628e-153
7.6558532e-153
7.5938012e-153
8.6258352e-153
9.5898479e-153
1.1682596e-152
1.8729505e-152
2.0302507e-152
3.9036593e-152
7.7586926e-152
-5.0512861e-152
-3.3502471e-152
-1.8889591e-152
-1.4706426e-152
-9.0060397e-153
-4.6192658e-153
-2.4671844e-153
-3.0634588e-152
5.7156551e-154
-1.5940731e-10
1.683235e-23
-2.9127495e-36
1.7785168e-48
2.7876822e-59
1.357595e-70
2.2387673e-81
6.1832485e-91
-3.081766e-100
6.2703627e-109
-1.3451051e-115
-5.2935744e-123
-3.2019974e-130
-2.2678434e-137
-1.7339993e-144
-1.5430963e-151
-1.3462182e-158
6.1651641e-160
6.8832161e-160
8.2362358e-160
8.6993921e-160
8.4103037e-160
1.0004108e-159
1.0141404e-159
1.1369729e-159
1.3421111e-159
1.4106535e-159
2.1875202e-159
2.5736465e-159
4.4599848e-159
7.5964796e-159
-4.6763068e-159
-3.007868e-159
-1.4738421e-159
-1.2089128e-159
-1.8586808e-159
4.2516214e-160
8.9299199e-161
7.0000269e-160
1.8676215e-161
-1.6138818e-10
1.5674945e-23
-2.3774683e-36
1.1985157e-48
-1.1073118e-58
-5.321836e-70
-7.8302142e-81
-1.3177284e-90
7.7242896e-100
-1.45108e-108
2.8853791e-116
-2.106084e-123
9.0601169e-131
-3.2399599e-138
1.0233242e-145
-3.0377277e-153
8.5140423e-161
-1.8957215e-167
-1.8127651e-167
-2.1135668e-167
-2.1908491e-167
-2.0853926e-167
-2.5027533e-167
-2.5159774e-167
-2.9314379e-167
-3.518178e-167
-3.876344e-167
-6.4452136e-167
-8.1385183e-167
-1.580546e-166
-3.1306955e-166
2.4439203e-166
2.4427675e-166
4.4762083e-166
-1.9848864e-166
-1.9037876e-166
-1.028078e-166
-2.2065335e-168
-8.7901577e-168
5.7686118e-169
-1.6581518e-10
1.5373888e-23
-2.0991363e-36
8.9526806e-49
-7.1613683e-60
-3.8540441e-71
-5.6165926e-82
-6.803703e-92
7.1454673e-101
-1.4154809e-109
9.1519665e-118
-7.7326883e-126
6.2112785e-134
-4.7211253e-142
3.4981144e-150
-2.5265089e-158
1.7787864e-166
-1.1075527e-174
1.2484089e-175
1.4503027e-175
1.4981971e-175
1.4314563e-175
1.7237843e-175
1.7451678e-175
2.0674496e-175
2.5009348e-175
2.8244132e-175
4.8180173e-175
6.3015054e-175
1.2843641e-174
2.7088782e-174
-2.2919316e-174
-2.5980231e-174
-5.7519887e-174
3.5726095e-174
5.2721304e-174
2.4120158e-174
2.4152806e-176
8.4725951e-176
1.4291617e-176
-1.7181008e-10
1.5775064e-23
-1.9917791e-36
7.3650816e-49
-2.7274641e-60
-1.9192564e-71
-3.042911e-82
-2.9231228e-92
-1.4159564e-100
3.557968e-109
-1.1978526e-117
4.4390334e-126
-1.6529806e-134
6.0803323e-143
-2.2026172e-151
7.9094284e-160
-2.8206327e-168
9.9962154e-177
-4.773261e-184
-5.1315817e-184
-5.3020074e-184
-5.0752223e-184
-6.1514247e-184
-6.253628e-184
-7.4786945e-184
-9.1161867e-184
-1.0440219e-183
-1.8060884e-183
-2.4095619e-183
-5.0311059e-183
-1.0982709e-182
9.665492e-183
1.1669257e-182
2.8399715e-182
-2.056231e-182
-3.7116382e-182
-1.7487837e-182
-1.4179967e-184
-8.8598724e-184
2.8343523e-184
-1.7807712e-10
1.6693236e-23
-2.0015595e-36
6.595133e-49
-1.5822304e-60
-1.6511947e-71
-2.889597e-82
-2.2466364e-92
-1.4537457e-101
5.8331346e-110
-1.3415858e-118
3.2426992e-127
-8.1565514e-136
2.0608895e-144
-5.1984923e-153
1.3110781e-161
-3.3043705e-170
8.3511335e-179
-2.1136002e-187
1.304868e-192
1.3512445e-192
1.2982331e-192
1.5766335e-192
1.6097027e-192
1.9352372e-192
2.3712473e-192
2.7337034e-192
4.7588292e-192
6.4073123e-192
1.3503851e-191
2.9869776e-191
-2.6817828e-191
-3.3276663e-191
-8.4675109e-191
6.6082616e-191
1.3208099e-190
6.6035384e-191
5.8428847e-193
1.9485201e-191
5.0392707e-192
-1.8329079e-10
1.787268e-23
-2.0860957e-36
6.3180039e-49
-1.205236e-60
-1.5775095e-71
-2.5709524e-82
-1.5149335e-92
-5.4789036e-102
3.3138354e-110
-6.3443e-119
1.31807e-127
-2.9429145e-136
6.7264726e-145
-1.5510331e-153
3.6060626e-162
-8.4562302e-171
1.9995134e-179
-4.7500687e-188
1.1368434e-196
-3.2534231e-201
-3.1363131e-201
-3.8260553e-201
-3.9063501e-201
-4.7071832e-201
-5.7751467e-201
-6.6557416e-201
-1.1579422e-200
-1.5557797e-200
-3.2760233e-200
-7.2175692e-200
6.4681513e-200
8.0317834e-200
2.0515869e-199
-1.6334171e-199
-3.3898535e-199
-1.8355541e-199
-2.2631912e-201
5.8946774e-199
9.0171182e-200
-1.8667239e-10
1.9011425e-23
-2.2049108e-36
6.3424185e-49
-1.1373424e-60
-1.0344333e-71
-1.1966322e-82
-4.8577322e-93
-1.324844e-102
4.584416e-111
-8.3844473e-120
1.9657402e-128
-5.2727741e-137
1.4781232e-145
-4.250501e-154
1.2475294e-162
-3.7314807e-171
1.1333721e-179
-3.4898696e-188
1.0863544e-196
-3.4079786e-205
9.8973259e-210
1.2111534e-209
1.2395349e-209
1.4856978e-209
1.8111088e-209
2.0741035e-209
3.5649082e-209
4.7190365e-209
9.7379323e-209
2.0972372e-208
-1.8243706e-208
-2.1994971e-208
-5.4086284e-208
4.1466074e-208
8.4568548e-208
5.0949337e-208
1.2093763e-209
5.2459635e-207
1.8289157e-207
-1.8831808e-10
1.9871522e-23
-2.3224032e-36
6.5397347e-49
-1.2851909e-60
-6.334507e-72
-4.6437775e-83
-1.2526732e-93
-2.9206788e-103
4.1322351e-112
-7.7984818e-121
3.1054446e-129
-1.7500196e-137
1.0910779e-145
-7.2683518e-154
5.1473492e-162
-3.8541744e-170
3.0293001e-178
-2.4701587e-186
2.0729296e-194
-1.7814359e-202
1.5475342e-210
-1.1854079e-217
-1.074053e-217
-1.264308e-217
-1.5021082e-217
-1.6585912e-217
-2.7053661e-217
-3.3732804e-217
-6.5041907e-217
-1.2922409e-216
1.0259963e-216
1.1167913e-216
2.4355653e-216
-1.6288283e-216
-3.0166641e-216
-2.1400721e-216
-2.8635531e-217
3.1340414e-215
4.8999849e-215
-1.8897804e-10
2.0397064e-23
-2.4191241e-36
6.8205038e-49
-1.6869265e-60
-5.056288e-72
-2.48465e-83
-4.6526341e-94
-9.5434357e-104
7.0319061e-113
-1.3695896e-121
1.7141346e-128
2.0087951e-136
2.0534734e-144
1.9476966e-152
1.715464e-160
1.4375285e-168
1.1564197e-176
8.9894197e-185
6.8775549e-193
5.1811096e-201
3.8840372e-209
2.9180793e-217
1.4008725e-225
-9.8570628e-226
-1.1964534e-225
-1.380448e-225
-2.3570782e-225
-3.177873e-225
-6.7866997e-225
-1.5556287e-224
1.5353683e-224
2.3802894e-224
1.2255208e-223
9.1565704e-224
5.7006379e-224
9.4479847e-224
-2.218963e-225
1.7066244e-223
2.198578e-222
-1.8951543e-10
2.071384e-23
-2.4979725e-36
7.1290466e-49
-2.4089071e-60
-5.2456073e-72
-1.9472196e-83
-2.7749176e-94
-4.9087054e-104
2.4288141e-113
-4.6984515e-122
-2.0766088e-130
-6.1709926e-139
-1.8167686e-147
-5.3167473e-156
-1.5359676e-164
-4.4019734e-173
-1.2507129e-181
-3.5400005e-190
-9.96848e-199
-2.8004265e-207
-7.7925052e-216
-2.1207064e-224
-5.6313704e-233
-2.814256e-234
-3.448154e-234
-4.008619e-234
-6.9362502e-234
-9.5198692e-234
-2.0710485e-233
-4.8781022e-233
4.9912777e-233
8.1008236e-233
4.4680742e-232
3.7464044e-232
2.7170894e-232
4.4248866e-232
-8.313933e-234
1.0477523e-231
3.0730239e-229
-1.9048338e-10
2.1008713e-23
-2.5769345e-36
7.4409982e-49
-3.130796e-60
-5.8578347e-72
-1.8712873e-83
-2.2661232e-94
-3.4247238e-104
1.4095598e-113
-2.6415569e-122
-6.9124788e-131
-1.3629681e-139
-2.7237645e-148
-5.4905041e-157
-1.1096415e-165
-2.2462705e-174
-4.5541317e-183
-9.2465177e-192
-1.8840298e-200
-3.8407866e-209
-7.8478733e-218
-1.6055528e-226
-3.2908606e-235
-6.4649409e-243
-7.10554e-243
-8.284002e-243
-1.4360333e-242
-1.9775097e-242
-4.3111357e-242
-1.0178231e-241
1.0484767e-241
1.7158962e-241
9.5987633e-241
8.3231803e-241
6.4468733e-241
1.1344759e-240
-2.5127141e-242
8.8726234e-240
-6.3700852e-236
-1.9200482e-10
2.1409241e-23
-2.6749971e-36
7.7607283e-49
-2.9713021e-60
-5.5814668e-72
-1.7407668e-83
-2.0054871e-94
-2.6738181e-104
1.1016042e-113
-2.0688786e-122
-4.7781988e-131
-8.5213514e-140
-1.5566338e-148
-2.904124e-157
-5.4632522e-166
-1.0355982e-174
-1.9757316e-183
-3.7978488e-192
-7.3384428e-201
-1.4210994e-209
-2.7597614e-218
-5.3761384e-227
-1.0481405e-235
-2.0405298e-244
-1.4217242e-251
-1.6070129e-251
-2.7720346e-251
-3.7977702e-251
-8.2153607e-251
-1.9234038e-250
1.9611322e-250
3.1741669e-250
1.7549052e-249
1.5210419e-249
1.2310317e-249
2.4649924e-249
-8.0537047e-251
1.3883595e-247
4.9299923e-243
-1.9387833e-10
2.1940042e-23
-2.8016329e-36
8.1126406e-49
-2.2256185e-60
-4.901499e-72
-1.682708e-83
-2.0564798e-94
-2.5879314e-104
1.2694574e-113
-2.5559495e-122
-6.6542615e-131
-1.3167872e-139
-2.6885101e-148
-5.6328001e-157
-1.2008137e-165
-2.5958709e-174
-5.6772383e-183
-1.2527841e-191
-2.7859985e-200
-6.2223451e-209
-1.3951739e-217
-3.1315952e-226
-7.032602e-235
-1.5736455e-243
-3.5035915e-252
-4.3499625e-260
-6.0824615e-260
-8.2145834e-260
-1.7549737e-259
-4.030172e-259
4.0223837e-259
6.334204e-259
3.3985605e-258
2.8955672e-258
2.4308085e-258
5.8425282e-258
-3.4273835e-259
7.0542327e-255
-2.9036149e-250
-1.9577146e-10
2.2543452e-23
-2.9533412e-36
8.5218247e-49
-1.6452175e-60
-5.0728747e-72
-2.1531471e-83
-3.0935072e-94
-3.9978884e-104
2.7825135e-113
-6.5107522e-122
-2.3556319e-130
-6.1931034e-139
-1.6867139e-147
-4.7643243e-156
-1.3786635e-164
-4.0691396e-173
-1.2190609e-181
-3.6976104e-190
-1.1324461e-198
-3.4971905e-207
-1.0830923e-215
-3.3667887e-224
-1.1212772e-232
-1.735151e-240
-2.6660898e-247
-5.1068476e-254
-8.2937059e-261
-1.4478936e-267
-5.0157929e-268
-1.1195174e-267
1.0809772e-267
1.6366812e-267
8.4153482e-267
6.9554556e-267
6.0915175e-267
1.8704405e-266
-2.5530855e-267
-6.6307138e-262
1.448689e-257
-1.97395e-10
2.3127365e-23
-3.1159074e-36
8.9937753e-49
-1.3198812e-60
-7.4441011e-72
-4.3971698e-83
-8.1823668e-94
-1.1865331e-103
1.4373273e-112
-4.2273715e-121
-2.7481892e-129
-1.170594e-137
-5.1874147e-146
-2.4056016e-154
-1.1552627e-162
-5.6936529e-171
-2.8642253e-179
-1.4728013e-187
-7.7137126e-196
-4.6067517e-204
-1.1022214e-211
-1.4672154e-218
-2.3072278e-225
-3.6483141e-232
-6.0095026e-239
-1.0426424e-245
-1.6043145e-252
-2.2714595e-259
-2.3624548e-266
-1.9538524e-273
4.6289781e-276
6.6558507e-276
3.2196643e-275
2.5655021e-275
2.3858178e-275
1.0429239e-274
-6.3375186e-275
1.7248101e-269
-7.0499499e-265
-1.9859811e-10
2.3612732e-23
-3.2704361e-36
9.5067473e-49
-1.1574634e-60
-2.7157296e-71
-2.5522805e-82
-6.7493354e-93
-1.1959205e-102
3.4795087e-111
-1.3791e-119
-2.7607978e-127
-2.5730896e-135
-2.4945158e-143
-2.5968633e-151
-2.8426058e-159
-3.2793172e-167
-4.2181441e-175
-9.6015572e-183
-7.0581325e-190
-1.0430358e-196
-1.6123658e-203
-2.5228488e-210
-3.7420715e-217
-4.8357585e-224
-5.508398e-231
-5.666413e-238
-4.6836799e-245
-3.2568888e-252
-1.8577183e-259
-8.6671939e-267
-3.3092304e-274
-1.0495183e-281
2.4836657e-283
1.9003606e-283
1.9849162e-283
1.6410526e-282
1.9502084e-282
-3.7681355e-277
3.6433814e-272
-1.9937491e-10
2.3962068e-23
-3.4007239e-36
1.0019479e-48
-1.0886628e-60
1.7393563e-71
3.1356201e-82
1.2927112e-92
3.0298494e-102
-7.5460149e-110
4.2782468e-118
-2.4857717e-125
-1.2249754e-132
-6.3256884e-140
-4.0611956e-147
-3.1604924e-154
-3.0405289e-161
-3.0992186e-168
-3.8705979e-175
-5.035825e-182
-8.0247761e-189
-1.2528653e-195
-1.9629974e-202
-2.9593107e-209
-3.8705541e-216
-4.5484962e-223
-4.7804282e-230
-4.0950337e-237
-2.9791371e-244
-1.7813982e-251
-8.8560029e-259
-3.6375381e-266
-1.2503699e-273
-3.5989309e-281
-9.8370802e-289
8.6286128e-291
-1.1698804e-289
-5.9096368e-290
6.5294032e-285
-1.9772375e-279
-1.9981282e-10
2.4181363e-23
-3.4986366e-36
1.0487647e-48
-1.073365e-60
8.004623e-72
4.1805059e-82
2.9726277e-92
9.8994124e-102
9.0588342e-110
-7.7749132e-118
1.6390025e-125
-6.239564e-133
2.463194e-140
-9.1771758e-148
3.237066e-155
-1.1457383e-162
3.9833517e-170
-1.3647781e-177
4.6171132e-185
-1.587253e-192
5.4190194e-200
-1.8238344e-207
6.3610898e-215
-2.0508811e-222
8.9090081e-230
-1.4538428e-237
2.0094142e-244
3.6605788e-252
5.5581372e-259
1.3633044e-266
1.0216814e-273
1.1396901e-281
1.3322586e-288
-1.7292508e-296
-2.7646209e-298
2.1518821e-297
1.1082608e-297
3.3130099e-293
1.0862191e-286
-2.0002913e-10
2.4303056e-23
-3.5650728e-36
1.0879723e-48
-1.0873502e-60
6.1599588e-72
-1.5253975e-81
-2.1341281e-91
-1.0745719e-100
-6.9089476e-109
9.6815654e-117
-1.8208099e-124
4.4056666e-132
-1.1194693e-139
2.8376925e-147
-7.1234885e-155
1.8089126e-162
-4.5496331e-170
1.1506851e-177
-2.9390577e-185
7.4547568e-193
-1.9107212e-200
4.9318612e-208
-1.2496543e-215
3.2200781e-223
-8.1766013e-231
2.0860598e-238
-5.3524011e-246
1.3549676e-253
-3.499855e-261
9.0055685e-269
-2.3310667e-276
6.1224071e-284
-1.6007241e-291
3.8158089e-299
4.6367482e-306
-3.2901486e-305
-2.2001741e-305
-1.6594933e-299
-6.3319584e-294
-2.0012574e-10
2.4365201e-23
-3.606935e-36
1.118483e-48
-1.1147986e-60
5.6230593e-72
-3.2259235e-82
-1.1373056e-91
-9.1255718e-101
-6.1653579e-109
1.4997695e-116
-3.3639953e-124
8.676074e-132
-2.323971e-139
6.2591849e-147
-1.7318505e-154
4.8202867e-162
-1.3625641e-169
3.9098446e-177
-1.1052341e-184
3.1518213e-192
-9.0453763e-200
2.5829287e-207
-7.3806896e-215
2.1309631e-222
-6.0899814e-230
1.7349845e-237
-4.8288239e-245
1.3325198e-252
-3.6759223e-260
1.0054065e-267
-2.7013572e-275
7.210027e-283
-1.8465624e-290
4.2776263e-298
-8.1458033e-306
4.5793125e-313
9.7724486e-314
1.7655066e-306
3.8734373e-301
-2.0017094e-10
2.4397956e-23
-3.6328159e-36
1.1410676e-48
-1.1453882e-60
5.5178262e-72
-2.2487317e-82
-7.0184594e-91
-9.3639971e-100
-7.8068145e-108
3.6369446e-115
-1.1480422e-122
3.8697257e-130
-1.3714863e-137
4.9635076e-145
-1.8001827e-152
6.6869878e-160
-2.5033575e-167
9.571821e-175
-3.5887612e-182
1.3624014e-189
-5.2923346e-197
2.026849e-204
-7.672606e-212
2.9550444e-219
-1.0977684e-226
4.0903391e-234
-1.5219504e-241
5.5996877e-249
-2.0133829e-256
7.1989307e-264
-2.4768039e-271
8.4311642e-279
-2.6196725e-286
7.2527988e-294
-1.3952054e-301
7.5263416e-310
2.5034932e-313
-1.125087e-312
-2.4788814e-308
-2.002009e-10
2.4419532e-23
-3.6498742e-36
1.1575221e-48
-1.1732524e-60
5.5678296e-72
-1.9797103e-82
1.7961926e-91
4.1700351e-100
4.5803086e-108
-4.2893633e-115
1.9725331e-122
-9.4358659e-130
4.7398671e-137
-2.4187221e-144
1.2471287e-151
-6.5707539e-159
3.4015413e-166
-1.82799e-173
9.6962563e-181
-5.2911727e-188
2.8092019e-195
-1.5320119e-202
8.2962074e-210
-4.4395866e-217
2.3904627e-224
-1.2422042e-231
6.3317023e-239
-3.2465108e-246
1.6419281e-253
-7.8920742e-261
3.8737707e-268
-1.8194795e-275
7.6439086e-283
-2.8742699e-290
8.7703807e-298
-2.2712196e-305
4.7064168e-313
-4.5018064e-313
-1.3569587e-313
-2.0022988e-10
2.4438236e-23
-3.6626904e-36
1.1697831e-48
-1.1960917e-60
5.6560655e-72
-1.8852009e-82
9.7830484e-92
4.2716811e-100
6.4092031e-108
-1.1275e-114
7.4754738e-122
-4.9727333e-129
3.3908777e-136
-2.3066995e-143
1.597298e-150
-1.1066788e-157
7.6160554e-165
-5.4246426e-172
3.9235082e-179
-2.809919e-186
2.0310284e-193
-1.4059549e-200
9.8022655e-208
-6.818402e-215
4.8972693e-222
-3.4876709e-229
2.4349287e-236
-1.6221083e-243
1.0639359e-250
-6.9024224e-258
4.2875024e-265
-2.7261482e-272
1.5908478e-279
-7.8407115e-287
2.7149473e-294
-6.7236635e-302
1.4728137e-309
-8.8097936e-313
1.5793621e-312
-2.0026065e-10
2.4456432e-23
-3.6735443e-36
1.1793807e-48
-1.2139265e-60
5.7345769e-72
-1.8401288e-82
7.4994868e-92
7.7070041e-100
1.6084959e-107
-3.1648003e-114
2.6477971e-121
-2.197999e-128
1.7726773e-135
-1.395735e-142
1.1814402e-149
-9.9154617e-157
8.0091087e-164
-6.6324485e-171
5.5019378e-178
-4.6609327e-185
3.7374644e-192
-3.1138141e-199
2.5657674e-206
-2.0949018e-213
1.7928663e-220
-1.3908057e-227
1.1235605e-234
-9.2911911e-242
7.5604528e-249
-6.0406034e-256
4.6086642e-263
-3.6756284e-270
2.5135017e-277
-1.3954662e-284
5.5036964e-292
-1.4161578e-299
3.1583469e-307
8.2518979e-313
6.1429889e-313
-2.002916e-10
2.4473932e-23
-3.6832536e-36
1.1872897e-48
-1.227812e-60
5.7911495e-72
-1.806413e-82
6.3650233e-92
2.439717e-98
7.2381899e-106
-1.5295687e-112
1.2536614e-119
-1.1157901e-126
1.0310389e-133
-8.5335527e-141
7.6082041e-148
-6.7189004e-155
5.8573296e-162
-5.0362649e-169
4.5969186e-176
-3.9697558e-183
3.6412117e-190
-3.1813864e-197
2.7255059e-204
-2.5261208e-211
2.2273848e-218
-1.946497e-225
1.6185366e-232
-1.4001276e-239
1.2045164e-246
-1.0071919e-253
8.0388785e-261
-6.3822129e-268
4.6851857e-275
-2.8282769e-282
1.1435726e-289
-3.0195309e-297
6.8421652e-305
-1.5380349e-312
1.3958979e-313
-2.0032078e-10
2.4490006e-23
-3.6919585e-36
1.1940285e-48
-1.2389126e-60
5.8293194e-72
-1.7750868e-82
5.6339199e-92
-7.9682452e-100
-3.4572105e-107
5.1541756e-114
-4.5140416e-121
3.7294214e-128
-3.0914328e-135
2.5983939e-142
-2.2936836e-149
1.9858238e-156
-1.7053913e-163
1.54258e-170
-1.3274974e-177
1.1208466e-184
-9.5821998e-192
7.9772724e-199
-6.9638933e-206
6.1021606e-213
-5.0001998e-220
4.259027e-227
-3.5970133e-234
3.1015563e-241
-2.5188195e-248
2.0916915e-255
-1.713215e-262
1.3846624e-269
-1.0714781e-276
6.4772015e-284
-2.704316e-291
7.1838943e-299
-1.6142239e-306
-1.013413e-312
-8.1402424e-313
-2.0034695e-10
2.4504188e-23
-3.6996192e-36
1.1998449e-48
-1.2481056e-60
5.8563251e-72
-1.7463674e-82
5.111387e-92
-3.920903e-100
-2.7849944e-107
3.8789602e-114
-3.4155923e-121
2.7917232e-128
-2.4426655e-135
2.1361736e-142
-1.8003429e-149
1.4920443e-156
-1.2257456e-163
9.9252472e-171
-8.4834124e-178
7.0561802e-185
-6.2046922e-192
5.0536873e-199
-4.1884072e-206
3.4597923e-213
-2.9281427e-220
2.336158e-227
-1.9784293e-234
1.6559342e-241
-1.3974797e-248
1.148002e-255
-9.5061862e-263
7.5804898e-270
-5.5786173e-277
3.4902132e-284
-1.4280448e-291
3.8064803e-299
-8.5513271e-307
-4.6220297e-313
1.4346403e-312
-2.0036978e-10
2.4516396e-23
-3.7062304e-36
1.2048624e-48
-1.2559263e-60
5.8777181e-72
-1.7217814e-82
4.7268962e-92
-2.6205169e-100
-3.9035275e-107
5.1384826e-114
-4.6515863e-121
3.7794287e-128
-3.254795e-135
2.67872e-142
-2.2757128e-149
1.9345184e-156
-1.6194791e-163
1.3624179e-170
-1.1723762e-177
9.9302857e-185
-8.1424677e-192
6.7884337e-199
-5.8299838e-206
5.160429e-213
-4.290982e-220
3.5680409e-227
-2.8439782e-234
2.3832291e-241
-2.0160341e-248
1.685896e-255
-1.3870398e-262