/*--------------------------------*- C++ -*----------------------------------*\
  =========                 |
  \\      /  F ield         | OpenFOAM: The Open Source CFD Toolbox
   \\    /   O peration     | Website:  https://openfoam.org
    \\  /    A nd           | Version:  10
     \\/     M anipulation  |
\*---------------------------------------------------------------------------*/
FoamFile
{
    format      ascii;
    class       volVectorField;
    location    "0.06";
    object      U;
}
// * * * * * * * * * * * * * * * * * * * * * * * * * * * * * * * * * * * * * //

dimensions      [0 1 -1 0 0 0 0];

internalField   nonuniform List<vector> 
4000
(
(0 0.018617948 0.47774119)
(0 0.023473983 0.50885509)
(0 0.0081345658 0.50052636)
(0 0.005583006 0.5003372)
(0 0.00422125 0.50025759)
(0 0.0032212608 0.5001689)
(0 0.0025231024 0.50011949)
(0 0.0020228351 0.50008983)
(0 0.0016465049 0.50006942)
(0 0.001354197 0.50005494)
(0 0.0011214706 0.50004448)
(0 0.00093193358 0.50003677)
(0 0.00077429005 0.500031)
(0 0.00064053082 0.50002664)
(0 0.00052480064 0.50002333)
(0 0.00042269741 0.50002083)
(0 0.00033081675 0.50001897)
(0 0.0002464431 0.50001762)
(0 0.00016733284 0.50001672)
(0 9.1554711e-05 0.5000162)
(0 1.7367848e-05 0.50001604)
(0 -5.6888308e-05 0.50001623)
(0 -0.00013288478 0.50001678)
(0 -0.00021239571 0.50001773)
(0 -0.00029741199 0.50001914)
(0 -0.0003902718 0.50002109)
(0 -0.00049383419 0.50002371)
(0 -0.00061172037 0.50002719)
(0 -0.00074866381 0.5000318)
(0 -0.00091104305 0.50003796)
(0 -0.0011077364 0.50004626)
(0 -0.0013514944 0.5000577)
(0 -0.0016611864 0.5000737)
(0 -0.0020673077 0.5000968)
(0 -0.0026259912 0.5001347)
(0 -0.00342 0.50020258)
(0 -0.0045148354 0.50027259)
(0 -0.0065395938 0.50043536)
(0 -0.017611402 0.50674696)
(0 -0.013565013 0.47976925)
(0 0.037378247 0.44803508)
(0 0.050845556 0.53231781)
(0 0.021861334 0.50804332)
(0 0.016034205 0.50357874)
(0 0.012309202 0.5024243)
(0 0.0094090648 0.50162212)
(0 0.0074163159 0.50115455)
(0 0.0059696596 0.50086283)
(0 0.0048697482 0.50066407)
(0 0.0040118009 0.50052442)
(0 0.0033266488 0.50042391)
(0 0.0027671842 0.50034996)
(0 0.0023009065 0.50029471)
(0 0.0019046296 0.50025301)
(0 0.0015613126 0.50022141)
(0 0.0012580966 0.50019753)
(0 0.00098500715 0.50017975)
(0 0.00073406784 0.50016691)
(0 0.00049867426 0.50015826)
(0 0.00027313211 0.50015331)
(0 5.2300719e-05 0.50015177)
(0 -0.00016872032 0.50015358)
(0 -0.00039486294 0.50015886)
(0 -0.00063136364 0.50016791)
(0 -0.00088408893 0.5001813)
(0 -0.001159916 0.50019988)
(0 -0.0014672338 0.50022489)
(0 -0.0018166366 0.50025814)
(0 -0.0022219237 0.5003023)
(0 -0.0027015927 0.50036126)
(0 -0.003281227 0.50044103)
(0 -0.0039974789 0.50055112)
(0 -0.0049038117 0.50070671)
(0 -0.0060805738 0.50093349)
(0 -0.0076770967 0.50129309)
(0 -0.0099707308 0.50191225)
(0 -0.012959638 0.50283323)
(0 -0.017276317 0.50608502)
(0 -0.03860952 0.5252562)
(0 -0.027821339 0.45031217)
(0 0.039804903 0.41000022)
(0 0.061236782 0.54932634)
(0 0.031780035 0.52187392)
(0 0.024172732 0.51009019)
(0 0.019003342 0.50659117)
(0 0.014788205 0.50452509)
(0 0.011823092 0.50326485)
(0 0.0095959045 0.50244885)
(0 0.0078703553 0.50188916)
(0 0.0065103247 0.50149489)
(0 0.0054152299 0.50121013)
(0 0.0045152781 0.50100011)
(0 0.0037615194 0.50084292)
(0 0.0031183887 0.50072415)
(0 0.0025594198 0.50063404)
(0 0.0020644572 0.50056592)
(0 0.0016177459 0.50051513)
(0 0.0012066072 0.50047847)
(0 0.00082048978 0.50045374)
(0 0.00045025994 0.50043956)
(0 8.7648928e-05 0.50043515)
(0 -0.00027523129 0.5004403)
(0 -0.00064631933 0.50045536)
(0 -0.0010340311 0.5004812)
(0 -0.0014477633 0.50051941)
(0 -0.0018984821 0.50057239)
(0 -0.0023994862 0.50064368)
(0 -0.002967447 0.50073841)
(0 -0.0036238843 0.50086404)
(0 -0.0043972944 0.50103158)
(0 -0.0053263739 0.50125767)
(0 -0.0064655488 0.50156861)
(0 -0.0078926483 0.50200673)
(0 -0.0097126328 0.50264076)
(0 -0.012098844 0.50361052)
(0 -0.015441409 0.50520305)
(0 -0.019608922 0.50787018)
(0 -0.02490583 0.51641037)
(0 -0.04715213 0.53914694)
(0 -0.030734395 0.41514078)
(0 0.034686702 0.36208563)
(0 0.063559864 0.55465814)
(0 0.039056448 0.53744923)
(0 0.029801439 0.51849935)
(0 0.023826428 0.51198041)
(0 0.018997132 0.50849212)
(0 0.015462775 0.50624954)
(0 0.012692989 0.50473481)
(0 0.010497788 0.5036791)
(0 0.0087397258 0.50292703)
(0 0.007305298 0.50237892)
(0 0.006114493 0.50197214)
(0 0.0051092121 0.5016663)
(0 0.004245968 0.50143438)
(0 0.0034917673 0.50125796)
(0 0.0028210924 0.50112428)
(0 0.0022137381 0.50102445)
(0 0.0016532728 0.50095228)
(0 0.0011259061 0.50090355)
(0 0.0006196225 0.50087555)
(0 0.00012349565 0.50086681)
(0 -0.00037291711 0.50087691)
(0 -0.00088012409 0.50090649)
(0 -0.0014092314 0.5009573)
(0 -0.0019725738 0.50103236)
(0 -0.0025844396 0.50113631)
(0 -0.0032619898 0.50127594)
(0 -0.0040264771 0.50146104)
(0 -0.0049049263 0.50170575)
(0 -0.0059324553 0.50203072)
(0 -0.0071553917 0.50246666)
(0 -0.0086365569 0.50306086)
(0 -0.010464134 0.50388848)
(0 -0.012745982 0.50506653)
(0 -0.015618433 0.5067951)
(0 -0.019486615 0.50947193)
(0 -0.024326856 0.51429241)
(0 -0.030665983 0.52822977)
(0 -0.049922245 0.54418598)
(0 -0.028276869 0.37289881)
(0 0.027305284 0.31542731)
(0 0.061945648 0.5504793)
(0 0.044147011 0.55143505)
(0 0.033577056 0.52747816)
(0 0.027066557 0.51772203)
(0 0.022065498 0.51290473)
(0 0.018261165 0.50970371)
(0 0.015170721 0.5074552)
(0 0.012670892 0.50585485)
(0 0.010631781 0.50469564)
(0 0.0089414695 0.50383988)
(0 0.007520677 0.50319885)
(0 0.0063090476 0.50271347)
(0 0.0052598753 0.50234336)
(0 0.0043369004 0.50206058)
(0 0.0035115017 0.50184558)
(0 0.0027606256 0.50168457)
(0 0.0020652602 0.50156792)
(0 0.001409267 0.50148901)
(0 0.00077846049 0.50144359)
(0 0.00015986377 0.50142931)
(0 -0.00045895841 0.50144554)
(0 -0.0010905163 0.50149327)
(0 -0.0017479776 0.50157524)
(0 -0.0024458641 0.50169621)
(0 -0.0032008323 0.50186342)
(0 -0.0040326344 0.5020874)
(0 -0.0049653465 0.5023832)
(0 -0.0060289975 0.50277233)
(0 -0.0072617561 0.50328572)
(0 -0.0087124375 0.50396841)
(0 -0.010444186 0.50488742)
(0 -0.012544752 0.50614624)
(0 -0.015119639 0.50790085)
(0 -0.018257781 0.51037915)
(0 -0.022323202 0.51405408)
(0 -0.02759973 0.52114726)
(0 -0.035054512 0.53928961)
(0 -0.049932975 0.54185039)
(0 -0.023888025 0.33142325)
(0 0.019710818 0.27605444)
(0 0.05753134 0.54021019)
(0 0.046732385 0.56253999)
(0 0.03592138 0.53655932)
(0 0.029108385 0.5234941)
(0 0.024163409 0.51737516)
(0 0.020282054 0.51331596)
(0 0.017043547 0.51038324)
(0 0.014378459 0.50825181)
(0 0.012164442 0.50668048)
(0 0.010299417 0.50550424)
(0 0.0087108829 0.50461365)
(0 0.0073407904 0.50393346)
(0 0.0061429633 0.50341121)
(0 0.0050807114 0.50300999)
(0 0.0041244038 0.50270357)
(0 0.0032497075 0.50247331)
(0 0.002436227 0.502306)
(0 0.001666415 0.50219255)
(0 0.00092468508 0.50212708)
(0 0.00019667738 0.50210634)
(0 -0.00053141239 0.50212942)
(0 -0.0012734669 0.50219773)
(0 -0.0020440279 0.50231504)
(0 -0.0028590024 0.50248789)
(0 -0.0037364257 0.50272622)
(0 -0.0046973759 0.50304435)
(0 -0.0057670976 0.50346254)
(0 -0.0069764195 0.50400931)
(0 -0.008363681 0.50472505)
(0 -0.0099767524 0.50566734)
(0 -0.011874724 0.50691921)
(0 -0.014138742 0.50860475)
(0 -0.016872638 0.51090727)
(0 -0.02013225 0.51407195)
(0 -0.024215194 0.51871158)
(0 -0.029720272 0.52818921)
(0 -0.037735217 0.54867676)
(0 -0.047808832 0.53456871)
(0 -0.01883744 0.29523691)
(0 0.012951326 0.24372631)
(0 0.051252232 0.52598327)
(0 0.046895744 0.57026697)
(0 0.037018333 0.54542526)
(0 0.030169423 0.52924764)
(0 0.025419561 0.52175245)
(0 0.021612967 0.51692337)
(0 0.018364364 0.51337939)
(0 0.015644823 0.51075597)
(0 0.013344702 0.50879154)
(0 0.011376962 0.5073022)
(0 0.009678436 0.50616245)
(0 0.0081960252 0.50528411)
(0 0.0068866529 0.50460469)
(0 0.0057152885 0.50407954)
(0 0.0046529658 0.50367649)
(0 0.0036754172 0.50337238)
(0 0.0027619453 0.50315068)
(0 0.0018944784 0.50299994)
(0 0.0010567787 0.50291267)
(0 0.00023376816 0.50288476)
(0 -0.00058909875 0.50291505)
(0 -0.0014264446 0.50300529)
(0 -0.0022935052 0.50316029)
(0 -0.0032068007 0.50338831)
(0 -0.0041848281 0.50370183)
(0 -0.0052488755 0.50411869)
(0 -0.0064239886 0.5046639)
(0 -0.0077401148 0.50537217)
(0 -0.0092337085 0.5062919)
(0 -0.010949569 0.50749103)
(0 -0.012940795 0.50906543)
(0 -0.01527778 0.51115433)
(0 -0.018058153 0.51395962)
(0 -0.021316187 0.51775367)
(0 -0.025290646 0.52340969)
(0 -0.030806742 0.53525925)
(0 -0.038588454 0.55586733)
(0 -0.044030254 0.5238253)
(0 -0.013833401 0.26446284)
(0 0.0076348635 0.21706834)
(0 0.044191949 0.50921854)
(0 0.04524208 0.57449542)
(0 0.037080876 0.5535812)
(0 0.03042618 0.53486975)
(0 0.02595229 0.52594821)
(0 0.022340707 0.52042604)
(0 0.019192464 0.51635044)
(0 0.016506741 0.51328494)
(0 0.01419397 0.51095902)
(0 0.012185189 0.50917606)
(0 0.010427702 0.50779816)
(0 0.0088751173 0.50672712)
(0 0.0074891519 0.50589258)
(0 0.0062378564 0.50524354)
(0 0.005094165 0.50474283)
(0 0.0040349363 0.50436341)
(0 0.0030400693 0.50408584)
(0 0.002091739 0.50389653)
(0 0.0011737333 0.50378655)
(0 0.00027087185 0.50375098)
(0 -0.00063154304 0.50378842)
(0 -0.0015482814 0.50390097)
(0 -0.0024946467 0.50409435)
(0 -0.0034870794 0.50437837)
(0 -0.0045437472 0.50476778)
(0 -0.0056852284 0.50528352)
(0 -0.0069353031 0.50595464)
(0 -0.0083218127 0.50682107)
(0 -0.0098778554 0.50793776)
(0 -0.011643549 0.50938098)
(0 -0.013664881 0.51125709)
(0 -0.015998847 0.5137167)
(0 -0.018729706 0.5169722)
(0 -0.021877286 0.52133906)
(0 -0.025655475 0.52805367)
(0 -0.031010493 0.54199503)
(0 -0.037924532 0.5605404)
(0 -0.039294443 0.51065222)
(0 -0.0094244652 0.23828224)
(0 0.0038674956 0.19547764)
(0 0.037177055 0.49124034)
(0 0.042456241 0.57552088)
(0 0.036359 0.56059431)
(0 0.030079845 0.54019258)
(0 0.025912256 0.52987971)
(0 0.022567159 0.52373848)
(0 0.019595709 0.5192178)
(0 0.017009985 0.51577016)
(0 0.014743068 0.51312366)
(0 0.012744092 0.51107508)
(0 0.010971028 0.50947771)
(0 0.009385252 0.50822617)
(0 0.007954263 0.50724419)
(0 0.0066500842 0.5064759)
(0 0.0054484055 0.50588016)
(0 0.0043279911 0.5054268)
(0 0.0032700349 0.50509392)
(0 0.0022575866 0.50486614)
(0 0.0012750335 0.50473332)
(0 0.00030762959 0.5046898)
(0 -0.00065895603 0.504734)
(0 -0.0016391183 0.50486829)
(0 -0.0026476839 0.50509918)
(0 -0.0037004277 0.50543781)
(0 -0.004814543 0.50590082)
(0 -0.0060091776 0.50651172)
(0 -0.0073060442 0.50730286)
(0 -0.0087300157 0.50831833)
(0 -0.010309849 0.50961817)
(0 -0.012079799 0.51128499)
(0 -0.014078159 0.5134331)
(0 -0.016348236 0.5162206)
(0 -0.018957026 0.51986355)
(0 -0.021916626 0.52473977)
(0 -0.025450228 0.53249887)
(0 -0.03051661 0.54802413)
(0 -0.036178225 0.56272108)
(0 -0.034204617 0.4960948)
(0 -0.0058901322 0.21637145)
(0 0.001413855 0.17848524)
(0 0.030684421 0.47318991)
(0 0.039065101 0.5739199)
(0 0.035066993 0.56626396)
(0 0.02931392 0.54509834)
(0 0.025456642 0.53350032)
(0 0.022403031 0.52680117)
(0 0.019650662 0.52192034)
(0 0.017208774 0.51815664)
(0 0.01503035 0.51523674)
(0 0.013080396 0.51295632)
(0 0.011326809 0.51116361)
(0 0.0097389138 0.50974867)
(0 0.0082902809 0.50863123)
(0 0.0069573327 0.50775195)
(0 0.0057190254 0.50706677)
(0 0.0045565438 0.50654313)
(0 0.0034528743 0.50615725)
(0 0.0023924182 0.5058923)
(0 0.0013606175 0.50573717)
(0 0.00034359853 0.50568561)
(0 -0.00067217191 0.50573586)
(0 -0.0017002796 0.50589051)
(0 -0.0027546297 0.50615672)
(0 -0.003849865 0.50654666)
(0 -0.0050017118 0.50707849)
(0 -0.0062273655 0.50777769)
(0 -0.0075459227 0.50867911)
(0 -0.0089787623 0.50982994)
(0 -0.01054983 0.51129389)
(0 -0.012286993 0.51315784)
(0 -0.014220907 0.51554128)
(0 -0.016382689 0.51860601)
(0 -0.018822321 0.52256914)
(0 -0.021550516 0.52789513)
(0 -0.02481553 0.53663602)
(0 -0.029485691 0.55312407)
(0 -0.03372116 0.5627169)
(0 -0.029158418 0.48111126)
(0 -0.0032521762 0.19851038)
(0 -5.6179227e-05 0.16534478)
(0 0.0249551 0.45584603)
(0 0.035434494 0.57032503)
(0 0.033373812 0.57057579)
(0 0.028264817 0.54953244)
(0 0.024715274 0.53680676)
(0 0.021948905 0.52959212)
(0 0.019432755 0.5244233)
(0 0.017159831 0.52040784)
(0 0.015097829 0.51726292)
(0 0.013224841 0.51478681)
(0 0.011517421 0.51282581)
(0 0.0099522712 0.51126757)
(0 0.0085087616 0.51002948)
(0 0.0071677469 0.50904999)
(0 0.0059116495 0.50828312)
(0 0.0047243461 0.50769462)
(0 0.0035909267 0.50725938)
(0 0.0024974723 0.5069595)
(0 0.0014308126 0.50678311)
(0 0.00037827979 0.50672355)
(0 -0.00067252782 0.50677889)
(0 -0.0017340503 0.50695189)
(0 -0.0028189325 0.50725016)
(0 -0.0039403425 0.50768666)
(0 -0.0051121981 0.50828062)
(0 -0.0063494131 0.50905892)
(0 -0.007668164 0.51005816)
(0 -0.0090861168 0.51132756)
(0 -0.010622382 0.51293317)
(0 -0.012298532 0.51496441)
(0 -0.014138047 0.51754349)
(0 -0.016161794 0.52083297)
(0 -0.018405185 0.52505367)
(0 -0.020882925 0.53078148)
(0 -0.023865199 0.54040349)
(0 -0.028048248 0.55721029)
(0 -0.030846121 0.56094262)
(0 -0.024404233 0.46640692)
(0 -0.0013959717 0.1842423)
(0 -0.00084076156 0.15523606)
(0 0.02008224 0.43965409)
(0 0.031811543 0.56530234)
(0 0.031420064 0.57361121)
(0 0.027029911 0.55346966)
(0 0.02378471 0.53981494)
(0 0.021286886 0.53211614)
(0 0.019008268 0.52671474)
(0 0.016915922 0.52250444)
(0 0.014986628 0.51917993)
(0 0.013209028 0.51654356)
(0 0.011566929 0.51444188)
(0 0.010043475 0.51276167)
(0 0.0086232511 0.51141919)
(0 0.0072913074 0.51035176)
(0 0.0060334905 0.5095123)
(0 0.004836441 0.50886555)
(0 0.0036875012 0.50838552)
(0 0.0025746249 0.5080536)
(0 0.0014862474 0.50785743)
(0 0.00041113781 0.50779)
(0 -0.00066173719 0.50784929)
(0 -0.0017434323 0.50803815)
(0 -0.002845098 0.50836447)
(0 -0.0039782032 0.50884173)
(0 -0.0051546548 0.50948983)
(0 -0.0063869246 0.51033654)
(0 -0.0076881722 0.51141945)
(0 -0.0090723626 0.51278895)
(0 -0.010554019 0.51451233)
(0 -0.012148872 0.5166802)
(0 -0.013873852 0.51941565)
(0 -0.015741274 0.52288026)
(0 -0.017775214 0.52730471)
(0 -0.019998722 0.53339445)
(0 -0.022689206 0.54376198)
(0 -0.026319929 0.56028019)
(0 -0.027783417 0.55781115)
(0 -0.020091595 0.4524365)
(0 -0.00016322727 0.17298641)
(0 -0.0011758624 0.14746877)
(0 0.016054157 0.42484344)
(0 0.028348184 0.55932824)
(0 0.029321067 0.57549988)
(0 0.025680622 0.55689795)
(0 0.022735936 0.54254142)
(0 0.020482293 0.53438909)
(0 0.01843265 0.52879596)
(0 0.016523058 0.52443883)
(0 0.014734248 0.52097544)
(0 0.013063055 0.51821176)
(0 0.011499168 0.51599598)
(0 0.010031147 0.51421495)
(0 0.0086481103 0.51278473)
(0 0.0073389213 0.51164226)
(0 0.0060926519 0.51074003)
(0 0.0048986374 0.51004231)
(0 0.0037464944 0.50952263)
(0 0.0026261298 0.50916201)
(0 0.001527701 0.50894776)
(0 0.00044155224 0.50887268)
(0 -0.00064183395 0.50893465)
(0 -0.0017319777 0.50913656)
(0 -0.0028383963 0.50948644)
(0 -0.0039707398 0.50999802)
(0 -0.0051388185 0.51069153)
(0 -0.0063526344 0.51159514)
(0 -0.007622383 0.51274686)
(0 -0.0089584901 0.51419748)
(0 -0.010371262 0.51601468)
(0 -0.011871202 0.51828931)
(0 -0.013469397 0.52114402)
(0 -0.015171101 0.52473871)
(0 -0.016992398 0.52932149)
(0 -0.018967548 0.53573455)
(0 -0.021361603 0.54668373)
(0 -0.024404029 0.56238382)
(0 -0.024702501 0.55369951)
(0 -0.016290716 0.43948095)
(0 0.00060499569 0.16420599)
(0 -0.0012353508 0.1415047)
(0 0.012790978 0.41151128)
(0 0.025120997 0.55279388)
(0 0.027162782 0.57639732)
(0 0.024267656 0.55981931)
(0 0.021620163 0.54500005)
(0 0.019586477 0.53643)
(0 0.017751486 0.53067482)
(0 0.016020349 0.52621034)
(0 0.01437372 0.52264381)
(0 0.012814351 0.51978268)
(0 0.011336533 0.51747749)
(0 0.0099332893 0.51561584)
(0 0.0085975798 0.51411413)
(0 0.0073216434 0.51290952)
(0 0.0060974949 0.51195453)
(0 0.0049170054 0.51121339)
(0 0.0037719979 0.51065949)
(0 0.0026543253 0.51027372)
(0 0.0015559013 0.51004325)
(0 0.00046870451 0.50996077)
(0 -0.00061519743 0.51002409)
(0 -0.0017037193 0.51023607)
(0 -0.002804688 0.51060478)
(0 -0.0039259017 0.51114392)
(0 -0.0050750807 0.51187381)
(0 -0.0062598253 0.51282259)
(0 -0.0074875208 0.51402821)
(0 -0.0087653082 0.51554127)
(0 -0.010099704 0.5174292)
(0 -0.011496636 0.51978233)
(0 -0.012962127 0.52272197)
(0 -0.01449574 0.52640663)
(0 -0.016108473 0.53110937)
(0 -0.017846529 0.53780439)
(0 -0.019942965 0.54915521)
(0 -0.022386821 0.56360882)
(0 -0.021714904 0.54893764)
(0 -0.013009992 0.4277031)
(0 0.0010474251 0.15745122)
(0 -0.0011399952 0.1369219)
(0 0.010179406 0.39966707)
(0 0.022155397 0.54600911)
(0 0.025003324 0.57646515)
(0 0.022824242 0.56224878)
(0 0.020472325 0.54720289)
(0 0.018638481 0.53825839)
(0 0.017001532 0.53236285)
(0 0.015440595 0.52782281)
(0 0.013933683 0.52418407)
(0 0.012487387 0.52125208)
(0 0.011099533 0.51887997)
(0 0.0097667775 0.51695647)
(0 0.0084852958 0.5153987)
(0 0.0072502528 0.51414439)
(0 0.0060562899 0.51314647)
(0 0.0048976059 0.5123694)
(0 0.0037681024 0.51178675)
(0 0.0026615091 0.51137943)
(0 0.0015714664 0.51113464)
(0 0.00049158231 0.51104503)
(0 -0.00058448406 0.51110836)
(0 -0.0016630361 0.51132741)
(0 -0.0027502196 0.51171013)
(0 -0.0038520154 0.51227009)
(0 -0.0049741311 0.51302737)
(0 -0.0061219011 0.5140098)
(0 -0.0073001197 0.51525486)
(0 -0.0085129551 0.51681255)
(0 -0.009763581 0.51874946)
(0 -0.01105399 0.52115491)
(0 -0.012385881 0.5241483)
(0 -0.013754364 0.5278878)
(0 -0.015167432 0.53267793)
(0 -0.016681643 0.53960936)
(0 -0.018481792 0.55117789)
(0 -0.020336941 0.56406362)
(0 -0.018886886 0.5437997)
(0 -0.010218205 0.41717633)
(0 0.0012715807 0.15234425)
(0 -0.00097021836 0.13339278)
(0 0.0080978719 0.38926339)
(0 0.019447615 0.53920892)
(0 0.022879703 0.57585465)
(0 0.021371557 0.56420886)
(0 0.019315613 0.54915954)
(0 0.017667436 0.53989225)
(0 0.016212215 0.53387337)
(0 0.01481132 0.52928306)
(0 0.013439045 0.52559858)
(0 0.012104091 0.52261919)
(0 0.010807037 0.52020035)
(0 0.0095475387 0.51823213)
(0 0.0083244355 0.51663259)
(0 0.0071354049 0.51534028)
(0 0.005977398 0.51430877)
(0 0.0048467101 0.51350303)
(0 0.0037391599 0.51289693)
(0 0.0026502417 0.51247162)
(0 0.0015752474 0.51221438)
(0 0.00050936254 0.51211792)
(0 -0.00055220543 0.51217994)
(0 -0.0016141926 0.5124031)
(0 -0.0026811232 0.51279515)
(0 -0.0037572471 0.51336937)
(0 -0.0048463864 0.5141454)
(0 -0.005951793 0.51515049)
(0 -0.0070759295 0.51642138)
(0 -0.0082203336 0.51800707)
(0 -0.0093852797 0.51997299)
(0 -0.010569407 0.52240698)
(0 -0.011770743 0.52542624)
(0 -0.012980991 0.52919028)
(0 -0.014206296 0.53403948)
(0 -0.01551004 0.54115689)
(0 -0.01701768 0.55276446)
(0 -0.018309297 0.56386119)
(0 -0.016255544 0.53850109)
(0 -0.0078646903 0.40790642)
(0 0.0013519862 0.14856887)
(0 -0.00077729476 0.1306713)
(0 0.0064319906 0.38022117)
(0 0.01698038 0.53256458)
(0 0.020815546 0.57469828)
(0 0.019924883 0.56572447)
(0 0.018166852 0.550876)
(0 0.016696018 0.54134626)
(0 0.015407876 0.53521969)
(0 0.014156296 0.53059958)
(0 0.012912035 0.52689202)
(0 0.011684625 0.5238858)
(0 0.010476917 0.52143817)
(0 0.0092910921 0.51944066)
(0 0.0081282192 0.51781239)
(0 0.0069881263 0.51649289)
(0 0.0058697765 0.51543653)
(0 0.0047713303 0.51460892)
(0 0.0036903447 0.51398442)
(0 0.0026239429 0.51354451)
(0 0.0015689634 0.51327664)
(0 0.0005220835 0.51317361)
(0 -0.00052001752 0.51323306)
(0 -0.0015605885 0.51345751)
(0 -0.0026026282 0.51385444)
(0 -0.0036487762 0.5144367)
(0 -0.00470113 0.51522337)
(0 -0.0057610712 0.51624093)
(0 -0.0068290118 0.51752512)
(0 -0.007904212 0.5191237)
(0 -0.0089844765 0.52110063)
(0 -0.010065619 0.52354195)
(0 -0.011142553 0.52656259)
(0 -0.012204444 0.53032511)
(0 -0.013256013 0.53520763)
(0 -0.014362602 0.54245572)
(0 -0.015584693 0.55393494)
(0 -0.016349517 0.56310895)
(0 -0.01384226 0.53320304)
(0 -0.0058950532 0.39985258)
(0 0.0013356633 0.14586531)
(0 -0.00059132204 0.12857852)
(0 0.0050842422 0.37244698)
(0 0.014733212 0.52619579)
(0 0.018827669 0.57310756)
(0 0.018498314 0.56682056)
(0 0.017040627 0.55235495)
(0 0.015743288 0.54263119)
(0 0.014609506 0.53641403)
(0 0.013496516 0.53178152)
(0 0.012372694 0.52807048)
(0 0.011247589 0.52505553)
(0 0.010126061 0.52259503)
(0 0.0090124773 0.52058202)
(0 0.0079097969 0.51893678)
(0 0.0068196948 0.51759991)
(0 0.0057428791 0.51652672)
(0 0.0046791544 0.51568357)
(0 0.0036276367 0.51504538)
(0 0.0025869314 0.51459404)
(0 0.0015553033 0.51431726)
(0 0.00053081703 0.51420792)
(0 -0.00048847538 0.51426364)
(0 -0.0015044375 0.51448677)
(0 -0.002518659 0.51488444)
(0 -0.00353231 0.51546902)
(0 -0.0045459412 0.51625889)
(0 -0.0055592887 0.51727964)
(0 -0.0065709997 0.51856585)
(0 -0.0075784104 0.52016385)
(0 -0.0085772707 0.52213592)
(0 -0.009561074 0.52456601)
(0 -0.010522135 0.52756682)
(0 -0.011447833 0.5313055)
(0 -0.01234147 0.53619695)
(0 -0.01326496 0.54351642)
(0 -0.014212847 0.55471519)
(0 -0.014496781 0.5619049)
(0 -0.011662058 0.52802146)
(0 -0.0042631837 0.39294379)
(0 0.0012508719 0.144019)
(0 -0.00042757355 0.12698658)
(0 0.0039795779 0.36584202)
(0 0.012689089 0.52018137)
(0 0.016930876 0.5711743)
(0 0.017106898 0.5675216)
(0 0.015950598 0.55359735)
(0 0.014825159 0.54375483)
(0 0.013834414 0.5374675)
(0 0.012849322 0.53283829)
(0 0.011837651 0.529141)
(0 0.010808556 0.52613334)
(0 0.0097687583 0.52367407)
(0 0.008724544 0.52165781)
(0 0.0076804955 0.52000613)
(0 0.0066398799 0.51866076)
(0 0.0056049149 0.51757802)
(0 0.0045768476 0.51672511)
(0 0.0035561813 0.51607757)
(0 0.0025428585 0.51561775)
(0 0.0015364445 0.51533365)
(0 0.00053628058 0.51521828)
(0 -0.00045831979 0.51526922)
(0 -0.0014479467 0.51548861)
(0 -0.0024329016 0.51588324)
(0 -0.0034130323 0.51646493)
(0 -0.0043875206 0.51725131)
(0 -0.0053546756 0.51826696)
(0 -0.0063116538 0.51954521)
(0 -0.007254206 0.52113086)
(0 -0.0081764247 0.52308431)
(0 -0.0090699793 0.52548729)
(0 -0.0099251328 0.52845033)
(0 -0.010728156 0.53214628)
(0 -0.011480857 0.53702325)
(0 -0.012236837 0.54435289)
(0 -0.012927492 0.55513719)
(0 -0.012784658 0.56033828)
(0 -0.0097285856 0.52303734)
(0 -0.0029371151 0.38708916)
(0 0.0011156281 0.14284634)
(0 -0.00029208387 0.1258034)
(0 0.0030666029 0.36030523)
(0 0.010838491 0.51456858)
(0 0.01514081 0.56897388)
(0 0.015766337 0.56785272)
(0 0.014908094 0.55460489)
(0 0.013952548 0.54472379)
(0 0.013094021 0.53839067)
(0 0.012225975 0.5337796)
(0 0.011317557 0.53011129)
(0 0.010377385 0.52712512)
(0 0.0094138924 0.52467957)
(0 0.0084350483 0.52267094)
(0 0.0074468413 0.52102217)
(0 0.006453914 0.51967624)
(0 0.0054597908 0.51859053)
(0 0.0044669837 0.51773309)
(0 0.003477227 0.51708016)
(0 0.0024916636 0.51661456)
(0 0.0015110363 0.51632461)
(0 0.00053585175 0.51620345)
(0 -0.00043342493 0.51624864)
(0 -0.0013962217 0.51646212)
(0 -0.0023516713 0.51685028)
(0 -0.003298436 0.51742438)
(0 -0.004234489 0.51820126)
(0 -0.0051569059 0.51920446)
(0 -0.0060615901 0.52046602)
(0 -0.0069430052 0.52202913)
(0 -0.0077939416 0.52395226)
(0 -0.0086047051 0.52631478)
(0 -0.0093640879 0.5292253)
(0 -0.010057897 0.53286299)
(0 -0.010686518 0.53770345)
(0 -0.01129197 0.54498324)
(0 -0.011748603 0.55523996)
(0 -0.011240855 0.55849214)
(0 -0.0080551139 0.51830654)
(0 -0.001895624 0.38218483)
(0 0.00094463382 0.14218131)
(0 -0.00018576064 0.12495937)
(0 0.002314683 0.35573291)
(0 0.0091816512 0.50938095)
(0 0.013475799 0.56657049)
(0 0.014492234 0.56784258)
(0 0.013920667 0.55538289)
(0 0.013130092 0.54554534)
(0 0.01239275 0.53919426)
(0 0.011630685 0.5346155)
(0 0.010816154 0.53098964)
(0 0.0099572055 0.52803749)
(0 0.009063797 0.5256167)
(0 0.0081453534 0.52362531)
(0 0.007209095 0.52198778)
(0 0.006260863 0.52064837)
(0 0.0053053241 0.51956556)
(0 0.0043461064 0.5187083)
(0 0.0033860394 0.51805354)
(0 0.0024273429 0.5175846)
(0 0.0014718227 0.51729012)
(0 0.00052104209 0.51716338)
(0 -0.00042348595 0.51720193)
(0 -0.001360133 0.51740748)
(0 -0.0022869736 0.51778605)
(0 -0.0032016017 0.51834831)
(0 -0.0041009135 0.51911028)
(0 -0.0049809017 0.52009449)
(0 -0.0058363923 0.52133165)
(0 -0.0066607826 0.52286338)
(0 -0.0074458302 0.52474619)
(0 -0.0081808295 0.5270571)
(0 -0.0088536295 0.52990319)
(0 -0.0094501595 0.53347024)
(0 -0.0099696266 0.53825441)
(0 -0.010441645 0.54542945)
(0 -0.010693018 0.55506972)
(0 -0.0098881404 0.55644575)
(0 -0.0066532686 0.51386574)
(0 -0.0011222557 0.37811863)
(0 0.00075277802 0.14187602)
(0 -0.00010648932 0.12439653)
(0 0.0017087925 0.35201587)
(0 0.0077295762 0.50462376)
(0 0.011959588 0.56402286)
(0 0.013302434 0.56752733)
(0 0.01299508 0.55594329)
(0 0.012360069 0.54622877)
(0 0.011732476 0.53988928)
(0 0.011065308 0.53535632)
(0 0.010334982 0.53178476)
(0 0.0095489779 0.52887772)
(0 0.0087185678 0.52649148)
(0 0.0078544547 0.52452587)
(0 0.0069649687 0.52290698)
(0 0.0060570289 0.52158039)
(0 0.0051363255 0.52050573)
(0 0.0042074882 0.51965285)
(0 0.0032743294 0.51899943)
(0 0.0023400369 0.51852931)
(0 0.0014073724 0.51823145)
(0 0.00047885132 0.51809929)
(0 -0.00044306693 0.51813033)
(0 -0.0013557993 0.5183261)
(0 -0.0022564634 0.51869221)
(0 -0.003141685 0.51923873)
(0 -0.004007384 0.51998089)
(0 -0.0048485729 0.52094016)
(0 -0.0056591047 0.52214601)
(0 -0.0064314243 0.52363846)
(0 -0.0071563975 0.52547216)
(0 -0.0078224764 0.5277219)
(0 -0.0084168806 0.53049369)
(0 -0.0089260951 0.53398024)
(0 -0.0093484396 0.53869125)
(0 -0.0097026297 0.54571554)
(0 -0.0097806653 0.55467776)
(0 -0.0087478246 0.55427402)
(0 -0.0055306486 0.50973239)
(0 -0.00059866263 0.37476222)
(0 0.00055999809 0.14179582)
(0 -4.9916685e-05 0.12406047)
(0 0.0012437069 0.34903523)
(0 0.0065028625 0.5002854)
(0 0.01062523 0.5613876)
(0 0.012224221 0.56695315)
(0 0.01214741 0.55630631)
(0 0.011653939 0.5467859)
(0 0.011124422 0.5404869)
(0 0.010541199 0.53601242)
(0 0.0098849724 0.53250581)
(0 0.0091627048 0.52965387)
(0 0.0083868803 0.52731103)
(0 0.0075693976 0.52537892)
(0 0.0067196572 0.52378532)
(0 0.0058456035 0.52247722)
(0 0.0049538825 0.52141538)
(0 0.004050044 0.52057064)
(0 0.0031387918 0.51992137)
(0 0.0022241819 0.51945197)
(0 0.0013098281 0.51915173)
(0 0.00039909 0.51901425)
(0 -0.00050473298 0.51903699)
(0 -0.0013982106 0.51922127)
(0 -0.0022776068 0.51957228)
(0 -0.0031386755 0.52009952)
(0 -0.0039764475 0.52081737)
(0 -0.0047850267 0.52174629)
(0 -0.0055573429 0.52291445)
(0 -0.0062849073 0.52436036)
(0 -0.0069576974 0.52613687)
(0 -0.0075632908 0.5283167)
(0 -0.0080882452 0.53100533)
(0 -0.0085197342 0.5344028)
(0 -0.0088553089 0.53902668)
(0 -0.0091052559 0.54586519)
(0 -0.0090407417 0.55411503)
(0 -0.0078417567 0.55204154)
(0 -0.0046859098 0.50590204)
(0 -0.00029417941 0.37197819)
(0 0.00038474291 0.14182687)
(0 -1.0149691e-05 0.12389503)
(0 0.00091773406 0.34665951)
(0 0.0055257432 0.49633469)
(0 0.0095163835 0.55871626)
(0 0.011302612 0.56617368)
(0 0.011416459 0.5564995)
(0 0.011047335 0.54723075)
(0 0.010603914 0.54099831)
(0 0.010093352 0.53659445)
(0 0.0094999703 0.53316291)
(0 0.0088304535 0.53037549)
(0 0.0080986099 0.52808437)
(0 0.0073175873 0.52619291)
(0 0.0064979117 0.5246307)
(0 0.0056485621 0.52334621)
(0 0.0047771092 0.52230143)
(0 0.0038899618 0.52146816)
(0 0.0029926305 0.52082556)
(0 0.0020899381 0.52035858)
(0 0.001186237 0.52005687)
(0 0.00028560979 0.51991418)
(0 -0.00060792814 0.51992796)
(0 -0.0014902271 0.52009928)
(0 -0.0023568206 0.52043294)
(0 -0.0032027083 0.52093777)
(0 -0.004022135 0.52162736)
(0 -0.0048083764 0.52252106)
(0 -0.0055534847 0.52364575)
(0 -0.0062480192 0.5250384)
(0 -0.0068809879 0.52675005)
(0 -0.0074389289 0.52885154)
(0 -0.007907372 0.53144825)
(0 -0.0082738669 0.53474803)
(0 -0.0085348206 0.53927243)
(0 -0.0086931786 0.54589961)
(0 -0.0085101084 0.55342349)
(0 -0.0071871771 0.54979091)
(0 -0.004101235 0.50234325)
(0 -0.00016239897 0.36963044)
(0 0.00023785397 0.14187976)
(0 1.9122286e-05 0.12384048)
(0 0.00072594646 0.34474687)
(0 0.0048137225 0.49271688)
(0 0.0086796122 0.55604426)
(0 0.010600296 0.56523994)
(0 0.010869405 0.55655302)
(0 0.010607216 0.54757872)
(0 0.01023704 0.5414354)
(0 0.0097862366 0.53711439)
(0 0.0092420294 0.53376824)
(0 0.0086114149 0.53105469)
(0 0.0079098719 0.52882335)
(0 0.0071519716 0.52697932)
(0 0.0063494824 0.52545416)
(0 0.0055124489 0.52419796)
(0 0.0046493365 0.52317402)
(0 0.0037673442 0.52235523)
(0 0.002872689 0.52172157)
(0 0.0019708394 0.52125858)
(0 0.0010667518 0.52095631)
(0 0.00016508512 0.52080867)
(0 -0.00072958249 0.52081308)
(0 -0.0016125417 0.5209704)
(0 -0.0024787563 0.52128497)
(0 -0.0033226322 0.52176498)
(0 -0.004137781 0.52242311)
(0 -0.0049167833 0.5232776)
(0 -0.0056509172 0.52435394)
(0 -0.0063298245 0.52568744)
(0 -0.0069414766 0.52732725)
(0 -0.00747121 0.52934231)
(0 -0.0079030043 0.53183819)
(0 -0.0082239655 0.53503062)
(0 -0.008428045 0.5394423)
(0 -0.0085081253 0.54583552)
(0 -0.0082181996 0.55262615)
(0 -0.006783209 0.54753024)
(0 -0.0037350402 0.4989954)
(0 -0.0001478997 0.36758951)
(0 0.00012421593 0.14189627)
(0 4.339975e-05 0.12383681)
(0 0.00065411507 0.34315447)
(0 0.0043577386 0.48935359)
(0 0.0081444221 0.55337583)
(0 0.010180373 0.56418403)
(0 0.010587684 0.55649109)
(0 0.010419177 0.54784514)
(0 0.010108158 0.54181205)
(0 0.0097012813 0.53758707)
(0 0.0091891941 0.53433726)
(0 0.0085802947 0.53170704)
(0 0.0078922055 0.52954326)
(0 0.0071411356 0.52775298)
(0 0.0063402001 0.52627001)
(0 0.0055004968 0.52504626)
(0 0.0046313125 0.52404653)
(0 0.0037405251 0.52324487)
(0 0.0028349207 0.52262219)
(0 0.0019204594 0.52216468)
(0 0.0010025364 0.52186281)
(0 8.621241e-05 0.52171071)
(0 -0.0008235568 0.52170578)
(0 -0.0017216944 0.52184864)
(0 -0.0026027961 0.52214318)
(0 -0.0034608836 0.52259691)
(0 -0.0042891508 0.52322155)
(0 -0.005079694 0.52403414)
(0 -0.0058232164 0.52505865)
(0 -0.006508598 0.52632858)
(0 -0.0071228194 0.52789092)
(0 -0.0076499797 0.52981253)
(0 -0.0080720661 0.53219898)
(0 -0.0083744721 0.53527302)
(0 -0.0085460158 0.53955421)
(0 -0.0085617326 0.54568313)
(0 -0.0081609411 0.55172029)
(0 -0.0065932444 0.54522933)
(0 -0.0035192205 0.49577994)
(0 -0.00019567064 0.36574862)
(0 4.2607403e-05 0.14184647)
(0 6.6154404e-05 0.12383102)
(0 0.00067549712 0.34175455)
(0 0.004112941 0.48615265)
(0 0.0078969928 0.55067468)
(0 0.010072687 0.56300334)
(0 0.010630616 0.55632186)
(0 0.010552035 0.54804263)
(0 0.010286197 0.5421446)