/*--------------------------------*- C++ -*----------------------------------*\
  =========                 |
  \\      /  F ield         | OpenFOAM: The Open Source CFD Toolbox
   \\    /   O peration     | Website:  https://openfoam.org
    \\  /    A nd           | Version:  10
     \\/     M anipulation  |
\*---------------------------------------------------------------------------*/
FoamFile
{
    format      ascii;
    class       volVectorField;
    location    "0.06";
    object      U_0;
}
// * * * * * * * * * * * * * * * * * * * * * * * * * * * * * * * * * * * * * //

dimensions      [0 1 -1 0 0 0 0];

internalField   nonuniform List<vector> 
4000
(
(0 0.018616694 0.4777418)
(0 0.023471705 0.50885472)
(0 0.0081325834 0.50052642)
(0 0.005581112 0.50033724)
(0 0.004219291 0.50025759)
(0 0.0032193242 0.50016888)
(0 0.0025212438 0.50011948)
(0 0.002021079 0.50008981)
(0 0.0016448679 0.5000694)
(0 0.0013526905 0.50005491)
(0 0.0011201015 0.50004445)
(0 0.00093070585 0.50003674)
(0 0.00077320572 0.50003097)
(0 0.00063959061 0.50002661)
(0 0.0005240046 0.5000233)
(0 0.00042204537 0.5000208)
(0 0.00033030864 0.50001894)
(0 0.00024607932 0.50001759)
(0 0.00016711437 0.50001668)
(0 9.1483341e-05 0.50001616)
(0 1.7446217e-05 0.500016)
(0 -5.6656638e-05 0.50001619)
(0 -0.00013249531 0.50001675)
(0 -0.00021184304 0.5000177)
(0 -0.00029668997 0.5000191)
(0 -0.00038937369 0.50002105)
(0 -0.00049275306 0.50002367)
(0 -0.00061044949 0.50002715)
(0 -0.00074719729 0.50003176)
(0 -0.00090937675 0.50003792)
(0 -0.0011058694 0.50004622)
(0 -0.0013494302 0.50005766)
(0 -0.0016589361 0.50007367)
(0 -0.0020648915 0.50009677)
(0 -0.0026234443 0.50013468)
(0 -0.0034173987 0.50020257)
(0 -0.0045123035 0.50027264)
(0 -0.0065370187 0.50043544)
(0 -0.017608585 0.50674652)
(0 -0.013563514 0.47977005)
(0 0.037374703 0.44803928)
(0 0.050838504 0.53231716)
(0 0.021854618 0.50804324)
(0 0.016028068 0.50357898)
(0 0.012302876 0.50242428)
(0 0.009402879 0.50162198)
(0 0.0074104094 0.50115436)
(0 0.005964095 0.50086259)
(0 0.0048645748 0.50066381)
(0 0.0040070508 0.50052413)
(0 0.0033223404 0.50042361)
(0 0.0027633267 0.50034966)
(0 0.0022975033 0.50029441)
(0 0.0019016806 0.50025271)
(0 0.0015588158 0.5002211)
(0 0.0012560497 0.50019723)
(0 0.00098340869 0.50017945)
(0 0.00073291784 0.50016661)
(0 0.00049797504 0.50015796)
(0 0.00027288876 0.500153)
(0 5.2521298e-05 0.50015146)
(0 -0.0001680245 0.50015326)
(0 -0.00039367733 0.50015852)
(0 -0.00062967052 0.50016757)
(0 -0.00088186792 0.50018094)
(0 -0.0011571444 0.5001995)
(0 -0.0014638879 0.5002245)
(0 -0.0018126927 0.50025774)
(0 -0.0022173601 0.50030188)
(0 -0.002696393 0.50036084)
(0 -0.0032753834 0.50044061)
(0 -0.0039909976 0.50055071)
(0 -0.0048967213 0.50070633)
(0 -0.0060729335 0.50093317)
(0 -0.0076689983 0.50129285)
(0 -0.0099623684 0.50191217)
(0 -0.01295146 0.50283353)
(0 -0.017267717 0.50608507)
(0 -0.038600657 0.52525532)
(0 -0.02781691 0.45031785)
(0 0.039799399 0.41001179)
(0 0.06122438 0.54932718)
(0 0.03176719 0.52187305)
(0 0.024161561 0.51009048)
(0 0.018991986 0.50659103)
(0 0.0147772 0.50452464)
(0 0.011812646 0.50326423)
(0 0.009586103 0.50244811)
(0 0.0078612767 0.50188834)
(0 0.0065020144 0.50149403)
(0 0.005407711 0.50120924)
(0 0.0045085595 0.50099921)
(0 0.0037556009 0.50084202)
(0 0.0031132647 0.50072325)
(0 0.0025550824 0.50063315)
(0 0.0020608987 0.50056503)
(0 0.0016149609 0.50051424)
(0 0.0012045935 0.50047758)
(0 0.00081924978 0.50045285)
(0 0.00044980147 0.50043865)
(0 8.7985619e-05 0.50043422)
(0 -0.00027407962 0.50043935)
(0 -0.00064432661 0.50045437)
(0 -0.0010311651 0.50048018)
(0 -0.0014439863 0.50051835)
(0 -0.0018937516 0.50057128)
(0 -0.0023937565 0.50064252)
(0 -0.0029606715 0.5007372)
(0 -0.0036160186 0.50086279)
(0 -0.0043883013 0.5010303)
(0 -0.0053162291 0.50125639)
(0 -0.00645425 0.50156736)
(0 -0.0078802287 0.50200556)
(0 -0.00969918 0.50263975)
(0 -0.012084486 0.50360975)
(0 -0.015426423 0.50520273)
(0 -0.019594084 0.5078706)
(0 -0.024889484 0.51640972)
(0 -0.047136192 0.53914762)
(0 -0.030727069 0.41515637)
(0 0.034679661 0.36210874)
(0 0.063541539 0.55466363)
(0 0.039035734 0.53744701)
(0 0.029784021 0.51849906)
(0 0.023809217 0.51197994)
(0 0.018980592 0.50849108)
(0 0.01544717 0.50624816)
(0 0.012678426 0.5047332)
(0 0.010484363 0.50367735)
(0 0.0087274847 0.5029252)
(0 0.0072942576 0.50237704)
(0 0.0061046529 0.50197025)
(0 0.0051005603 0.50166442)
(0 0.0042384864 0.50143251)
(0 0.0034854365 0.50125611)
(0 0.0028158947 0.50112244)
(0 0.0022096602 0.50102262)
(0 0.0016503077 0.50095045)
(0 0.0011240545 0.50090171)
(0 0.00061889393 0.50087369)
(0 0.00012390925 0.5008649)
(0 -0.00037133218 0.50087495)
(0 -0.00087732839 0.50090447)
(0 -0.0014051754 0.50095519)
(0 -0.0019671984 0.50103016)
(0 -0.0025776772 0.50113401)
(0 -0.0032537661 0.50127353)
(0 -0.004016714 0.50145852)
(0 -0.0048935463 0.50170314)
(0 -0.0059193876 0.50202803)
(0 -0.0071405808 0.50246394)
(0 -0.0086199737 0.50305819)
(0 -0.010445794 0.50388594)
(0 -0.012725979 0.50506428)
(0 -0.015596912 0.50679334)
(0 -0.019463903 0.50947102)
(0 -0.024303831 0.51429227)
(0 -0.030639519 0.52822754)
(0 -0.049897973 0.54419184)
(0 -0.028266756 0.37293013)
(0 0.027297146 0.31546562)
(0 0.061921077 0.55049381)
(0 0.044116714 0.55143142)
(0 0.033551763 0.52747616)
(0 0.027042477 0.51772077)
(0 0.022042574 0.51290271)
(0 0.018239679 0.50970111)
(0 0.015150797 0.50745226)
(0 0.012652628 0.5058517)
(0 0.010615203 0.50469238)
(0 0.008926575 0.50383658)
(0 0.0075074428 0.50319556)
(0 0.0062974386 0.50271021)
(0 0.0052498518 0.50234014)
(0 0.0043284234 0.5020574)
(0 0.0035045373 0.50184243)
(0 0.0027551479 0.50168145)
(0 0.0020612536 0.5015648)
(0 0.0014067281 0.50148587)
(0 0.00077739925 0.50144041)
(0 0.00016030458 0.50142606)
(0 -0.00045697616 0.50144219)
(0 -0.0010869379 0.50148981)
(0 -0.0017427328 0.50157163)
(0 -0.0024388676 0.50169243)
(0 -0.0031919851 0.50185945)
(0 -0.0040218252 0.50208322)
(0 -0.0049524551 0.50237883)
(0 -0.0060138994 0.50276777)
(0 -0.0072443301 0.503281)
(0 -0.0086925766 0.5039636)
(0 -0.01042181 0.50488263)
(0 -0.012519826 0.50614162)
(0 -0.015092228 0.50789664)
(0 -0.018228028 0.51037573)
(0 -0.022291434 0.51405191)
(0 -0.027566487 0.52114517)
(0 -0.035015322 0.53928509)
(0 -0.049899247 0.54186658)
(0 -0.02387533 0.3314761)
(0 0.019701963 0.27611115)
(0 0.057500417 0.54023913)
(0 0.046690939 0.56253583)
(0 0.035886264 0.53655406)
(0 0.029076205 0.5234912)
(0 0.024133133 0.51737159)
(0 0.020253871 0.51331157)
(0 0.0170176 0.51037838)
(0 0.014354822 0.50824671)
(0 0.012143099 0.50667526)
(0 0.010280324 0.50549902)
(0 0.0086939794 0.50460847)
(0 0.007326003 0.50392836)
(0 0.0061302183 0.50340621)
(0 0.0050699407 0.50300507)
(0 0.0041155495 0.50269873)
(0 0.003242725 0.50246852)
(0 0.0024310879 0.50230123)
(0 0.0016631086 0.50218776)
(0 0.00092322025 0.50212223)
(0 0.00019708322 0.50210138)
(0 -0.00052908548 0.50212432)
(0 -0.0012691467 0.50219243)
(0 -0.00203762 0.50230951)
(0 -0.0028503902 0.50248208)
(0 -0.003725471 0.50272009)
(0 -0.0046839208 0.50303788)
(0 -0.0057509668 0.50345572)
(0 -0.0069574255 0.50400215)
(0 -0.0083416316 0.50471759)
(0 -0.0099514631 0.50565967)
(0 -0.011846032 0.50691146)
(0 -0.014106526 0.50859715)
(0 -0.016836885 0.51090017)
(0 -0.02009307 0.51406593)
(0 -0.024172827 0.51870696)
(0 -0.029674387 0.52818304)
(0 -0.037680717 0.54866994)
(0 -0.047764718 0.53460182)
(0 -0.018822378 0.29531709)
(0 0.012941997 0.24380453)
(0 0.051214918 0.52603303)
(0 0.046841691 0.57026423)
(0 0.036971225 0.54541501)
(0 0.030127662 0.52924173)
(0 0.025380851 0.52174651)
(0 0.021577197 0.51691643)
(0 0.018331682 0.51337189)
(0 0.015615252 0.51074823)
(0 0.013318154 0.50878374)
(0 0.011353329 0.50729446)
(0 0.0096575952 0.50615485)
(0 0.0081778484 0.50527668)
(0 0.0068710182 0.50459745)
(0 0.0057020868 0.50407247)
(0 0.0046421058 0.50366956)
(0 0.0036668289 0.50336554)
(0 0.0027555819 0.50314389)
(0 0.0018903187 0.50299313)
(0 0.0010548282 0.50290578)
(0 0.00023406011 0.50287772)
(0 -0.00058650231 0.50290779)
(0 -0.0014214517 0.50299775)
(0 -0.0022859936 0.50315239)
(0 -0.0031966167 0.50337999)
(0 -0.0041717866 0.50369302)
(0 -0.0052327608 0.50410935)
(0 -0.0064045562 0.50465399)
(0 -0.0077170955 0.50536169)
(0 -0.0092068149 0.50628088)
(0 -0.010918509 0.50747958)
(0 -0.012905288 0.50905372)
(0 -0.015237567 0.51114264)
(0 -0.018013092 0.51394843)
(0 -0.021266308 0.51774375)
(0 -0.025235932 0.52340077)
(0 -0.030745509 0.53524632)
(0 -0.038516178 0.55585925)
(0 -0.043974949 0.52388332)
(0 -0.013816076 0.2645764)
(0 0.0076252025 0.21717117)
(0 0.04414817 0.50929654)
(0 0.045173997 0.5744972)
(0 0.037019448 0.55356427)
(0 0.030373086 0.53485893)
(0 0.025903935 0.52593877)
(0 0.0222964 0.52041558)
(0 0.019152303 0.51633938)
(0 0.016470664 0.51327372)
(0 0.014161783 0.51094787)
(0 0.012156689 0.50916513)
(0 0.010402677 0.50778753)
(0 0.0088533625 0.50671682)
(0 0.0074704798 0.50588261)
(0 0.0062221035 0.50523385)
(0 0.0050811961 0.50473338)
(0 0.0040246476 0.50435413)
(0 0.0030323903 0.50407665)
(0 0.0020866337 0.50388733)
(0 0.0011712015 0.50377726)
(0 0.00027094998 0.50374149)
(0 -0.00062878074 0.50377863)
(0 -0.0015427214 0.50389077)
(0 -0.0024861348 0.50408363)
(0 -0.0034754191 0.50436703)
(0 -0.0045286985 0.50475573)
(0 -0.0056665063 0.50527067)
(0 -0.0069125786 0.50594093)
(0 -0.0082947142 0.50680646)
(0 -0.0098459737 0.50792227)
(0 -0.011606449 0.5093647)
(0 -0.013622119 0.51124021)
(0 -0.015949977 0.51369956)
(0 -0.01867439 0.51695541)
(0 -0.021815404 0.5213235)
(0 -0.025586483 0.52803784)
(0 -0.030931037 0.5419723)
(0 -0.037832132 0.56053325)
(0 -0.039227214 0.51074457)
(0 -0.0094048405 0.23843552)
(0 0.0038576799 0.19560804)
(0 0.037126628 0.49135499)
(0 0.042372683 0.5755314)
(0 0.036280817 0.56056922)
(0 0.030013414 0.54017437)
(0 0.025852929 0.52986518)
(0 0.022513327 0.52372328)
(0 0.019547324 0.51920206)
(0 0.016966855 0.51575446)
(0 0.014704845 0.51310828)
(0 0.01271044 0.51106018)
(0 0.010941616 0.50946337)
(0 0.0093597728 0.5082124)
(0 0.0079324435 0.50723095)
(0 0.0066316907 0.50646313)
(0 0.0054332473 0.50586777)
(0 0.0043159222 0.50541467)
(0 0.0032609546 0.50508195)
(0 0.00225144 0.50485419)
(0 0.001271812 0.50472125)
(0 0.00030737163 0.50467747)
(0 -0.00065616375 0.50472127)
(0 -0.0016331388 0.50485501)
(0 -0.0026383278 0.50508519)
(0 -0.0036874503 0.50542295)
(0 -0.0047976409 0.50588496)
(0 -0.0059879856 0.50649471)
(0 -0.0072801326 0.50728458)
(0 -0.0086988895 0.5082987)
(0 -0.010272948 0.50959718)
(0 -0.012036506 0.51126267)
(0 -0.01402782 0.51340964)
(0 -0.016290153 0.51619638)
(0 -0.01889059 0.51983931)
(0 -0.021841452 0.52471631)
(0 -0.025364904 0.53247272)
(0 -0.030416019 0.54798841)
(0 -0.036063476 0.56271823)
(0 -0.034124726 0.49623223)
(0 -0.0058680516 0.21657097)
(0 0.0014041636 0.17864602)
(0 0.030626981 0.47335064)
(0 0.038964511 0.57394449)
(0 0.034969522 0.56622945)
(0 0.029231943 0.54506968)
(0 0.025384918 0.53347859)
(0 0.022338692 0.52677967)
(0 0.019593354 0.52189858)
(0 0.017158108 0.51813528)
(0 0.014985775 0.51521612)
(0 0.013041392 0.51293659)
(0 0.011292888 0.51114481)
(0 0.0097096374 0.50973078)
(0 0.0082652682 0.50861418)
(0 0.0069362634 0.50773561)
(0 0.0057016409 0.507051)
(0 0.0045426467 0.50652778)
(0 0.0034423272 0.50614214)
(0 0.0023851428 0.50587725)
(0 0.001356594 0.50572198)
(0 0.00034286606 0.5056701)
(0 -0.00066951423 0.50571982)
(0 -0.00169407 0.50587375)
(0 -0.0027446408 0.50613901)
(0 -0.0038357989 0.50652779)
(0 -0.0049831947 0.50705823)
(0 -0.0062039412 0.50775584)
(0 -0.007517046 0.50865548)
(0 -0.0089437932 0.50980436)
(0 -0.010508029 0.51126625)
(0 -0.01223752 0.51312814)
(0 -0.014162839 0.51550964)
(0 -0.016315009 0.51857282)
(0 -0.01874406 0.52253522)
(0 -0.021460853 0.52786085)
(0 -0.024711804 0.53659529)
(0 -0.029361142 0.5530721)
(0 -0.033581942 0.56272278)
(0 -0.029065014 0.48130569)
(0 -0.003227424 0.19876283)
(0 -6.5401454e-05 0.16553873)
(0 0.024890033 0.4560633)
(0 0.035315105 0.5703701)
(0 0.033254419 0.57053091)
(0 0.028164951 0.54948969)
(0 0.024629681 0.53677508)
(0 0.021873138 0.5295624)
(0 0.019365933 0.5243939)
(0 0.017101276 0.52037943)
(0 0.015046716 0.51723589)
(0 0.013180413 0.51476127)
(0 0.011478989 0.51280175)
(0 0.0099192326 0.5112449)
(0 0.0084806042 0.51000804)
(0 0.0071440464 0.5090296)
(0 0.0058920668 0.50826355)
(0 0.0047086234 0.50767567)
(0 0.0035788833 0.50724079)
(0 0.002489002 0.50694102)
(0 0.0014258817 0.5067645)
(0 0.00037692644 0.50670454)
(0 -0.00067019236 0.50675922)
(0 -0.0017278387 0.50693128)
(0 -0.002808577 0.50722832)
(0 -0.0039254883 0.50766328)
(0 -0.005092395 0.5082554)
(0 -0.0063241049 0.50903156)
(0 -0.0076366767 0.51002835)
(0 -0.009047646 0.51129502)
(0 -0.01057598 0.51289769)
(0 -0.012243095 0.51492585)
(0 -0.014072326 0.51750187)
(0 -0.016084375 0.52078862)
(0 -0.01831463 0.52500742)
(0 -0.020777762 0.53073275)
(0 -0.023741131 0.54034312)
(0 -0.027897137 0.55713881)
(0 -0.030680395 0.56096255)
(0 -0.024296253 0.46667138)
(0 -0.0013682328 0.18455475)
(0 -0.00084917122 0.1554665)
(0 0.020008647 0.4399395)
(0 0.031671322 0.5653753)
(0 0.031276046 0.57355517)
(0 0.026909771 0.55340852)
(0 0.023683783 0.53976981)
(0 0.021198877 0.53207576)
(0 0.018931498 0.52667578)
(0 0.01684929 0.5224674)
(0 0.014928954 0.51914519)
(0 0.013159252 0.51651116)
(0 0.011524115 0.51441171)
(0 0.010006823 0.51273352)
(0 0.0085920918 0.51139281)
(0 0.0072650962 0.51032685)
(0 0.0060117956 0.50948856)
(0 0.0048189356 0.50884266)
(0 0.0036739556 0.50836315)
(0 0.0025649009 0.50803144)
(0 0.0014802945 0.50783513)
(0 0.00040899177 0.50776723)
(0 -0.00065995356 0.5078257)
(0 -0.0017375056 0.50801337)
(0 -0.0028347189 0.50833812)
(0 -0.0039629574 0.50881341)
(0 -0.0051340113 0.50945913)
(0 -0.0063602208 0.51030301)
(0 -0.0076545948 0.51138267)
(0 -0.0090309267 0.51274847)
(0 -0.010503543 0.51446775)
(0 -0.012087952 0.5166312)
(0 -0.013800853 0.51936207)
(0 -0.015654306 0.52282231)
(0 -0.01767224 0.52724301)
(0 -0.019877363 0.53332691)
(0 -0.022543184 0.54367613)
(0 -0.026140058 0.56018585)
(0 -0.027589281 0.55785107)
(0 -0.019967718 0.45278497)
(0 -0.00013185405 0.17336672)
(0 -0.0011832399 0.14774065)
(0 0.015970828 0.4252098)
(0 0.028184903 0.55943731)
(0 0.029149786 0.57543197)
(0 0.025537928 0.55681349)
(0 0.022618306 0.54247855)
(0 0.020381391 0.53433511)
(0 0.018345688 0.52874521)
(0 0.016448343 0.52439137)
(0 0.01467015 0.52093157)
(0 0.013008145 0.51817138)
(0 0.011452209 0.51595881)
(0 0.0099911088 0.51418064)
(0 0.0086141463 0.51275286)
(0 0.0073103504 0.51161241)
(0 0.0060689395 0.51071177)
(0 0.0048793806 0.51001521)
(0 0.0037314093 0.50949626)
(0 0.0026150425 0.50913595)
(0 0.0015205421 0.50892158)
(0 0.00043835383 0.50884594)
(0 -0.00064093835 0.50890691)
(0 -0.0017267487 0.50910735)
(0 -0.0028284822 0.50945528)
(0 -0.0039556655 0.50996438)
(0 -0.0051179703 0.51065486)
(0 -0.0063252394 0.51155485)
(0 -0.0075874829 0.51270233)
(0 -0.0089149088 0.51414807)
(0 -0.010317568 0.51595974)
(0 -0.011805656 0.51822826)
(0 -0.013389931 0.52107641)
(0 -0.015075266 0.52466448)
(0 -0.016877408 0.52924081)
(0 -0.018829837 0.5356431)
(0 -0.021192662 0.54656585)
(0 -0.024193954 0.56226314)
(0 -0.024478418 0.5537655)
(0 -0.016149394 0.43992807)
(0 0.00064105753 0.16466328)
(0 -0.0012418143 0.14182543)
(0 0.012696328 0.41197253)
(0 0.024932469 0.55294786)
(0 0.026961944 0.57631681)
(0 0.024100484 0.55970595)
(0 0.021484739 0.54491431)
(0 0.019472331 0.53635889)
(0 0.01765439 0.53060972)
(0 0.015937814 0.52615049)
(0 0.01430356 0.52258929)
(0 0.012754693 0.51973317)
(0 0.011285799 0.51743246)
(0 0.0098901874 0.51557471)
(0 0.0085610681 0.51407629)
(0 0.0072908923 0.51287437)
(0 0.0060718591 0.51192148)
(0 0.0048960003 0.51118187)
(0 0.0037552813 0.51062896)
(0 0.0026416851 0.51024363)
(0 0.0015472469 0.51001306)
(0 0.00046406265 0.50992994)
(0 -0.00061568325 0.50999207)
(0 -0.0016997842 0.51020228)
(0 -0.0027959383 0.51056858)
(0 -0.0039118017 0.51110468)
(0 -0.0050549343 0.51183079)
(0 -0.00623275 0.51277502)
(0 -0.007452413 0.51397525)
(0 -0.0087207992 0.51548202)
(0 -0.010044104 0.51736268)
(0 -0.01142786 0.5197076)
(0 -0.012877633 0.52263817)
(0 -0.014392456 0.52631327)
(0 -0.015982714 0.53100576)
(0 -0.017693251 0.53768327)
(0 -0.019751301 0.54899821)
(0 -0.022146436 0.56345812)
(0 -0.021460203 0.54903543)
(0 -0.012849629 0.42826348)
(0 0.0010890407 0.15799636)
(0 -0.0011460924 0.1373011)
(0 0.010071419 0.40023803)
(0 0.021939871 0.54621692)
(0 0.024771432 0.57637109)
(0 0.022631492 0.56210033)
(0 0.020318738 0.54708838)
(0 0.018511425 0.53816607)
(0 0.016894997 0.53228056)
(0 0.015351068 0.52774846)
(0 0.013858313 0.52411735)
(0 0.012423796 0.5211923)
(0 0.011045759 0.51882627)
(0 0.0097212507 0.51690795)
(0 0.0084467644 0.51535449)
(0 0.0072177307 0.51410367)
(0 0.0060290153 0.51310846)
(0 0.0048750076 0.51233338)
(0 0.0037497766 0.51175201)
(0 0.0026472019 0.51134531)
(0 0.0015610633 0.51110046)
(0 0.00048510286 0.51101013)
(0 -0.00058688813 0.51107205)
(0 -0.0016610759 0.51128897)
(0 -0.0027434609 0.51166881)
(0 -0.0038398641 0.51222507)
(0 -0.0049558118 0.51297774)
(0 -0.0060964269 0.51395456)
(0 -0.0072662499 0.51519292)
(0 -0.0084691387 0.51674266)
(0 -0.0097078836 0.51867029)
(0 -0.010983987 0.521065)
(0 -0.01229856 0.52404623)
(0 -0.013646005 0.52777244)
(0 -0.015033338 0.53254723)
(0 -0.016515035 0.53945237)
(0 -0.018269415 0.55097437)
(0 -0.020068235 0.56387891)
(0 -0.018602549 0.54393397)
(0 -0.010037617 0.41786353)
(0 0.0013182928 0.15298977)
(0 -0.00097665638 0.1338413)
(0 0.0079743436 0.38995943)
(0 0.01920431 0.53947908)
(0 0.022616695 0.57574561)
(0 0.021153677 0.56401856)
(0 0.019144915 0.54900968)
(0 0.017529102 0.53977417)
(0 0.016098112 0.53377084)
(0 0.014716686 0.52919208)
(0 0.013360269 0.52551816)
(0 0.012038243 0.52254811)
(0 0.010751757 0.52013727)
(0 0.0095009643 0.51817576)
(0 0.0082851003 0.51658175)
(0 0.0071021616 0.51529387)
(0 0.005949363 0.5142658)
(0 0.0048232211 0.51346257)
(0 0.0037197461 0.51285811)
(0 0.0026346031 0.51243361)
(0 0.0015632419 0.51217637)
(0 0.00050099912 0.5120791)
(0 -0.00055676947 0.51213948)
(0 -0.0016146467 0.51236015)
(0 -0.0026769948 0.51274877)
(0 -0.0037478871 0.51331856)
(0 -0.0048309453 0.51408906)
(0 -0.0059291882 0.51508738)
(0 -0.0070447981 0.51635009)
(0 -0.0081789656 0.517926)
(0 -0.0093315299 0.51988032)
(0 -0.010500561 0.52230066)
(0 -0.011683369 0.52530413)
(0 -0.012870772 0.52905028)
(0 -0.014067529 0.53387762)
(0 -0.01533406 0.5409578)
(0 -0.0167889 0.55250702)
(0 -0.018017039 0.56363822)
(0 -0.015945166 0.53867489)
(0 -0.0076641502 0.40873193)
(0 0.0014011815 0.14932802)
(0 -0.00078445231 0.13120011)
(0 0.0062913826 0.38105765)
(0 0.016710167 0.53290443)
(0 0.0205235 0.57457201)
(0 0.019684576 0.56548503)
(0 0.017982115 0.55068367)
(0 0.01654976 0.54119753)
(0 0.015289548 0.53509381)
(0 0.014059723 0.53048995)
(0 0.012832803 0.52679656)
(0 0.011619251 0.52380256)
(0 0.010422649 0.52136521)
(0 0.0092457819 0.5193762)
(0 0.0080901866 0.51775486)
(0 0.006956061 0.51644087)
(0 0.0058426692 0.51538877)
(0 0.0047484217 0.51456428)
(0 0.0036710916 0.51394184)
(0 0.0026079939 0.51350297)
(0 0.001556144 0.51323519)
(0 0.0005123895 0.51313126)
(0 -0.00052642583 0.51318883)
(0 -0.0015633804 0.51341038)
(0 -0.0026012935 0.5138033)
(0 -0.0036426115 0.51438036)
(0 -0.0046892146 0.51516049)
(0 -0.0057422336 0.51617)
(0 -0.0068017809 0.51744441)
(0 -0.0078667459 0.5190312)
(0 -0.0089344659 0.52099399)
(0 -0.010000139 0.52341845)
(0 -0.011057867 0.52641918)
(0 -0.012095784 0.53015846)
(0 -0.013116856 0.53501119)
(0 -0.014182505 0.54220895)
(0 -0.01534596 0.55361683)
(0 -0.016041514 0.56284341)
(0 -0.013513027 0.53341759)
(0 -0.0056781744 0.40082489)
(0 0.0013827526 0.14674966)
(0 -0.00059896801 0.12919782)
(0 0.0049270903 0.37343833)
(0 0.014439377 0.52661088)
(0 0.018511301 0.57296073)
(0 0.018240643 0.56652426)
(0 0.016846686 0.55211286)
(0 0.015593646 0.54244698)
(0 0.014491084 0.53626195)
(0 0.013401721 0.5316515)
(0 0.012296361 0.52795891)
(0 0.011185738 0.52495953)
(0 0.010075591 0.52251191)
(0 0.0089709776 0.52050943)
(0 0.0078753827 0.5188727)
(0 0.0067908955 0.51754258)
(0 0.0057185573 0.5164746)
(0 0.0046584507 0.51563525)
(0 0.0036099315 0.5149996)
(0 0.0025718192 0.51454959)
(0 0.001542576 0.51427299)
(0 0.00052045588 0.51416268)
(0 -0.00049630458 0.51421628)
(0 -0.0015093798 0.51443606)
(0 -0.0025201619 0.51482909)
(0 -0.003529609 0.51540762)
(0 -0.0045380367 0.51618987)
(0 -0.0055449133 0.5172012)
(0 -0.0065485722 0.51847592)
(0 -0.0075459669 0.52005998)
(0 -0.0085323684 0.52201522)
(0 -0.0095006496 0.52442503)
(0 -0.010442287 0.52740153)
(0 -0.01134355 0.53111106)
(0 -0.01220577 0.53596365)
(0 -0.013086139 0.54321792)
(0 -0.013971755 0.55433133)
(0 -0.014183467 0.5615935)
(0 -0.011325392 0.52827682)
(0 -0.0040388106 0.39406736)
(0 0.0012904262 0.14503486)
(0 -0.00043501515 0.12770456)
(0 0.0038097646 0.36700038)
(0 0.012378098 0.52067531)
(0 0.016597564 0.57100293)
(0 0.016838402 0.56716101)
(0 0.015752531 0.55329882)
(0 0.014676074 0.54353094)
(0 0.013718989 0.53728692)
(0 0.012758768 0.53268661)
(0 0.01176621 0.52901263)
(0 0.010751868 0.52602426)
(0 0.0097234337 0.52358077)
(0 0.0086879404 0.52157731)
(0 0.0076505397 0.5199359)
(0 0.0066149466 0.51859865)
(0 0.0055837412 0.51752217)
(0 0.0045584755 0.51667385)
(0 0.0035399171 0.5160294)
(0 0.0025282459 0.51557124)
(0 0.0015232462 0.51528745)
(0 0.0005244702 0.51517103)
(0 -0.00046856293 0.51521957)
(0 -0.0014562327 0.51543514)
(0 -0.0024386212 0.51582445)
(0 -0.0034153415 0.51639917)
(0 -0.0043853172 0.51717673)
(0 -0.0053465676 0.51818148)
(0 -0.0062959165 0.5194464)
(0 -0.0072287211 0.52101585)
(0 -0.0081385919 0.52294965)
(0 -0.0090165997 0.5253288)
(0 -0.009852215 0.52826303)
(0 -0.0106306 0.53192369)
(0 -0.01135162 0.53675212)
(0 -0.012063909 0.54400083)
(0 -0.012691682 0.55468567)
(0 -0.012478221 0.55998051)
(0 -0.0093999292 0.52333397)
(0 -0.0027188894 0.38836359)
(0 0.0011427971 0.14399137)
(0 -0.00029854037 0.12662487)
(0 0.0028917038 0.3616387)
(0 0.010520795 0.51514339)
(0 0.014800522 0.56877484)
(0 0.015493853 0.56742236)
(0 0.014709432 0.554245)
(0 0.013805535 0.5444573)
(0 0.012981999 0.53818017)
(0 0.012139382 0.53360559)
(0 0.011250246 0.52996585)
(0 0.01032472 0.52700299)
(0 0.009372244 0.52457635)
(0 0.0084015597 0.52258297)
(0 0.0074192576 0.52094641)
(0 0.0064304585 0.51961013)
(0 0.0054390798 0.51853184)
(0 0.004447967 0.51767986)
(0 0.0034591453 0.51703061)
(0 0.0024740196 0.51656705)
(0 0.0014935741 0.51627754)
(0 0.00051854806 0.51615526)
(0 -0.00045036549 0.51619775)
(0 -0.0014123607 0.51640688)
(0 -0.002366326 0.51678895)
(0 -0.00331066 0.51735505)
(0 -0.0042430464 0.5181218)
(0 -0.0051602363 0.51911246)
(0 -0.0060577642 0.52035867)
(0 -0.0069296707 0.52190311)
(0 -0.0077682435 0.5238036)
(0 -0.0085631945 0.52613861)
(0 -0.0093025978 0.52901575)
(0 -0.0099712031 0.53261203)
(0 -0.01056769 0.53739437)
(0 -0.011129868 0.54457825)
(0 -0.011526225 0.55472338)
(0 -0.010954924 0.55809215)
(0 -0.0077530679 0.5186465)
(0 -0.0016989215 0.38360499)
(0 0.000956531 0.14344262)
(0 -0.00019058384 0.12588427)
(0 0.0021452582 0.35724338)
(0 0.0088725626 0.51003728)
(0 0.013141989 0.56634375)
(0 0.014223476 0.5673414)
(0 0.013723942 0.55495997)
(0 0.01298514 0.54523504)
(0 0.012283105 0.5389533)
(0 0.011546476 0.53441903)
(0 0.010750945 0.53082727)
(0 0.0099060949 0.5279027)
(0 0.0090228876 0.52550418)
(0 0.0081115515 0.5235307)
(0 0.0071799465 0.52190749)
(0 0.0062344326 0.52057937)
(0 0.0052801091 0.51950526)
(0 0.0043209717 0.51865441)
(0 0.0033601702 0.51800398)
(0 0.0024002105 0.51753746)
(0 0.001443161 0.51724357)
(0 0.00049083638 0.51711561)
(0 -0.00045500308 0.51715111)
(0 -0.0013924743 0.51735172)
(0 -0.0023193826 0.51772333)
(0 -0.0032330271 0.51827643)
(0 -0.0041299751 0.5190268)
(0 -0.0050058461 0.5199966)
(0 -0.0058550375 0.52121614)
(0 -0.0066704573 0.52272643)
(0 -0.0074432944 0.52458327)
(0 -0.0081621834 0.52686268)
(0 -0.0088142676 0.52967057)
(0 -0.0093844461 0.53319007)
(0 -0.0098705073 0.53790715)
(0 -0.010299711 0.5449739)
(0 -0.010495914 0.55449543)
(0 -0.0096389133 0.55601281)
(0 -0.0063976859 0.51425116)
(0 -0.00096190398 0.37967245)
(0 0.00074899261 0.14323193)
(0 -0.00010907434 0.12541872)
(0 0.0015570646 0.35369631)
(0 0.0074496599 0.50535966)
(0 0.011651652 0.56377308)
(0 0.01305005 0.56696082)
(0 0.012807085 0.55545989)
(0 0.012221554 0.54587522)
(0 0.011628888 0.53961798)
(0 0.010986743 0.53513768)
(0 0.010274581 0.53160607)
(0 0.0095014084 0.52873119)
(0 0.0086795519 0.52637086)
(0 0.0078205912 0.52442607)
(0 0.0069335654 0.5228238)
(0 0.006025977 0.5215103)
(0 0.0051040026 0.52044571)
(0 0.0041726802 0.51960026)
(0 0.003236172 0.51895187)
(0 0.0022979725 0.51848458)
(0 0.0013611199 0.51818745)
(0 0.00042839106 0.51805395)
(0 -0.00049749784 0.51808157)
(0 -0.0014136985 0.51827175)
(0 -0.0023170437 0.51862996)
(0 -0.0032038405 0.51916604)
(0 -0.004069644 0.51989494)
(0 -0.0049090409 0.52083773)
(0 -0.0057153812 0.52202336)
(0 -0.00648052 0.52349121)
(0 -0.0071946347 0.52529511)
(0 -0.0078453552 0.52750877)
(0 -0.008419055 0.5302369)
(0 -0.0089011005 0.53366932)
(0 -0.0092885001 0.538305)
(0 -0.0095999722 0.54521247)
(0 -0.0096287485 0.55405598)
(0 -0.0085557157 0.55381974)
(0 -0.0053396102 0.51016112)
(0 -0.00048490948 0.37642683)
(0 0.00054377318 0.14321856)
(0 -4.9492768e-05 0.12516693)
(0 0.0011218221 0.35086709)
(0 0.0062762975 0.50109294)
(0 0.010370913 0.56112271)
(0 0.012012154 0.56633297)
(0 0.011988171 0.55576895)
(0 0.011540303 0.54639102)
(0 0.011044746 0.54018583)
(0 0.010485443 0.53577248)
(0 0.0098454826 0.53231225)
(0 0.0091334406 0.52949755)
(0 0.0083630408 0.5271847)
(0 0.0075472094 0.52527662)
(0 0.00669617 0.52370215)
(0 0.005818541 0.52240909)
(0 0.0049215176 0.5213588)
(0 0.0040110976 0.52052255)
(0 0.0030923565 0.51987906)
(0 0.0021696658 0.51941291)
(0 0.0012469144 0.51911357)
(0 0.0003277158 0.51897465)
(0 -0.00058438354 0.51899361)
(0 -0.0014856991 0.51917166)
(0 -0.0023722167 0.51951383)
(0 -0.0032393716 0.52002933)
(0 -0.0040818167 0.5207322)
(0 -0.0048931988 0.52164242)
(0 -0.0056658851 0.52278756)
(0 -0.0063906948 0.52420535)
(0 -0.0070567729 0.5259477)
(0 -0.0076506485 0.52808613)
(0 -0.0081577226 0.53072466)
(0 -0.0085637752 0.53406039)
(0 -0.0088647404 0.5386008)
(0 -0.0090724714 0.54531736)
(0 -0.0089629327 0.55345467)
(0 -0.0077297143 0.55157322)
(0 -0.0045711899 0.50636251)
(0 -0.0002277549 0.37372445)
(0 0.00036079907 0.14328651)
(0 -5.7724813e-06 0.12506587)
(0 0.00083543537 0.34861203)
(0 0.0053749657 0.49719535)
(0 0.0093500702 0.55844108)
(0 0.011169358 0.56551296)
(0 0.011325812 0.55591658)
(0 0.010998226 0.54679739)
(0 0.010586769 0.54066887)
(0 0.010097436 0.53633533)
(0 0.0095164146 0.53295757)
(0 0.0088523156 0.53021319)
(0 0.0081205376 0.5279566)
(0 0.0073354777 0.52609271)
(0 0.006508628 0.52455236)
(0 0.0056497357 0.52328497)
(0 0.0047669719 0.52225328)
(0 0.0038672153 0.52142962)
(0 0.0029563486 0.52079356)
(0 0.0020394946 0.52033032)
(0 0.0011212558 0.52002972)
(0 0.00020593485 0.51988558)
(0 -0.00070224444 0.51989532)
(0 -0.0015989198 0.5200599)
(0 -0.0024793887 0.52038391)
(0 -0.0033383718 0.52087586)
(0 -0.0041697691 0.5215489)
(0 -0.0049664181 0.52242181)
(0 -0.0057198052 0.52352074)
(0 -0.0064197484 0.52488169)
(0 -0.0070543181 0.52655458)
(0 -0.007608803 0.5286088)
(0 -0.0080671816 0.53114801)
(0 -0.0084151366 0.53437702)
(0 -0.0086465387 0.53880863)
(0 -0.0087651155 0.54530892)
(0 -0.0085369276 0.55272665)
(0 -0.0071728295 0.54930297)
(0 -0.0040619465 0.50281026)
(0 -0.0001349984 0.3714259)
(0 0.00021041654 0.14334999)
(0 2.8199569e-05 0.12505088)
(0 0.00068782327 0.34677998)
(0 0.0047507056 0.49359854)
(0 0.008632794 0.55575068)
(0 0.010592207 0.56454429)
(0 0.010902598 0.55593055)
(0 0.010679569 0.54711023)
(0 0.010337616 0.54108086)
(0 0.0099026127 0.53684066)
(0 0.0093639292 0.53355684)
(0 0.0087311179 0.53089285)
(0 0.0080217001 0.52870096)
(0 0.0072517298 0.52688822)
(0 0.006434066 0.52538771)
(0 0.0055795769 0.52415069)
(0 0.0046973374 0.52314137)
(0 0.0037949984 0.52233329)
(0 0.0028791127 0.52170696)
(0 0.0019554003 0.52124823)
(0 0.0010290113 0.52094738)
(0 0.00010476106 0.52079841)
(0 -0.00081263401 0.52079873)
(0 -0.0017183273 0.52094906)
(0 -0.0026071277 0.5212535)
(0 -0.003473249 0.52171987)
(0 -0.0043100483 0.52236034)
(0 -0.0051097567 0.52319244)
(0 -0.0058631689 0.52424076)
(0 -0.0065592385 0.52553947)
(0 -0.0071850001 0.52713626)
(0 -0.007724463 0.52909829)
(0 -0.0081597267 0.53152884)
(0 -0.0084754159 0.53464014)
(0 -0.0086612887 0.53894674)
(0 -0.0087068559 0.54520259)
(0 -0.0083655232 0.55188345)
(0 -0.0068664411 0.54699872)
(0 -0.00375291 0.49943193)
(0 -0.0001457976 0.36940392)
(0 9.7012484e-05 0.14335821)
(0 5.7066983e-05 0.12506095)
(0 0.00065730555 0.345226)
(0 0.0043755905 0.49021317)
(0 0.0082294268 0.55303459)
(0 0.010332525 0.56344154)
(0 0.010795482 0.55582744)
(0 0.010667738 0.5473446)
(0 0.010379462 0.54143839)
(0 0.0099798698 0.53730661)
(0 0.009463577 0.53412865)
(0 0.0088424859 0.53155486)
(0 0.0081366897 0.52943549)
(0 0.0073640425 0.52768008)
(0 0.0065387968 0.52622434)
(0 0.0056728513 0.52502164)
(0 0.0047760451 0.52403788)
(0 0.0038566365 0.52324793)
(0 0.002921668 0.5226333)
(0 0.0019772691 0.52218059)
(0 0.0010289441 0.52188055)
(0 8.1822868e-05 0.52172742)
(0 -0.00085909443 0.5217186)
(0 -0.0017886929 0.52185458)
(0 -0.002701523 0.52213898)
(0 -0.0035915369 0.52257889)
(0 -0.0044518106 0.52318545)
(0 -0.005274242 0.52397488)
(0 -0.0060492142 0.52497009)
(0 -0.0067650839 0.52620317)
(0 -0.0074080261 0.52771932)
(0 -0.0079609041 0.52958309)
(0 -0.0084036784 0.53189692)
(0 -0.0087185953 0.53487855)
(0 -0.0088879532 0.53903775)
(0 -0.0088762137 0.54500669)
(0 -0.0084115649 0.55091015)
(0 -0.0067451919 0.54461492)
(0 -0.0035590636 0.49614851)
(0 -0.00020343213 0.36756378)
(0 1.8322683e-05 0.14328995)
(0 8.2940881e-05 0.1250472)
(0 0.0007091998 0.34383038)
(0 0.0041832489 0.48694663)
(0 0.0080916218 0.5502362)
(0 0.010383885 0.56217962)
(0 0.011029344 0.5556034)
(0 0.010999338 0.54751113)
(0 0.010750779 0.54175998)