/*--------------------------------*- C++ -*----------------------------------*\
  =========                 |
  \\      /  F ield         | OpenFOAM: The Open Source CFD Toolbox
   \\    /   O peration     | Website:  https://openfoam.org
    \\  /    A nd           | Version:  10
     \\/     M anipulation  |
\*---------------------------------------------------------------------------*/
FoamFile
{
    format      ascii;
    class       surfaceScalarField;
    location    "0.21";
    object      phi;
}
// * * * * * * * * * * * * * * * * * * * * * * * * * * * * * * * * * * * * * //

dimensions      [1 0 -1 0 0 0 0];

internalField   nonuniform List<scalar> 
7860
(
3.9895915e-08
5.2881212e-07
1.2192674e-08
5.9641104e-07
7.4278568e-09
5.7347256e-07
5.4993742e-09
5.7063619e-07
4.1149554e-09
5.7009209e-07
3.2011085e-09
5.696215e-07
2.5591225e-09
5.6934962e-07
2.0793041e-09
5.6918744e-07
1.7093248e-09
5.6907759e-07
1.4166607e-09
5.6900026e-07
1.1795165e-09
5.6894473e-07
9.831289e-10
5.6890397e-07
8.1715425e-10
5.6887355e-07
6.7410214e-10
5.6885062e-07
5.483992e-10
5.6883327e-07
4.3578466e-10
5.6882018e-07
3.3290471e-10
5.6881044e-07
2.370319e-10
5.6880343e-07
1.4586303e-10
5.6879873e-07
5.7366934e-11
5.6879606e-07
-3.0339342e-11
5.6879527e-07
-1.1909813e-10
5.6879632e-07
-2.1081602e-10
5.6879928e-07
-3.0757058e-10
5.6880432e-07
-4.1174271e-10
5.6881173e-07
-5.2617955e-10
5.68822e-07
-6.5441514e-10
5.688358e-07
-8.0098344e-10
5.6885414e-07
-9.718789e-10
5.6887847e-07
-1.175263e-09
5.6891097e-07
-1.4226374e-09
5.6895496e-07
-1.7308139e-09
5.6901577e-07
-2.1247711e-09
5.6910156e-07
-2.644391e-09
5.6922724e-07
-3.3720875e-09
5.6943533e-07
-4.4634154e-09
5.6979898e-07
-6.0087933e-09
5.7025305e-07
-9.5078254e-09
5.7220674e-07
-2.9575623e-08
5.8877555e-07
5.391323e-07
5.9672329e-08
4.6913979e-07
3.6665763e-08
6.194176e-07
2.2627962e-08
5.8751036e-07
1.6253376e-08
5.7701077e-07
1.2290327e-08
5.7405514e-07
9.6060982e-09
5.7230573e-07
7.6773471e-09
5.7127837e-07
6.236037e-09
5.7062875e-07
5.126571e-09
5.7018705e-07
4.2488757e-09
5.6987796e-07
3.537616e-09
5.6965599e-07
2.9486224e-09
5.6949296e-07
2.4508489e-09
5.6937133e-07
2.0218195e-09
5.6927965e-07
1.6448189e-09
5.6921027e-07
1.307069e-09
5.6915793e-07
9.9851175e-10
5.69119e-07
7.1096796e-10
5.6909098e-07
4.3753106e-10
5.6907217e-07
1.7210859e-10
5.6906148e-07
-9.0946659e-11
5.6905832e-07
-3.5715867e-10
5.6906253e-07
-6.3224046e-10
5.6907436e-07
-9.2242529e-10
5.690945e-07
-1.2348531e-09
5.6912416e-07
-1.5780617e-09
5.6916521e-07
-1.9626494e-09
5.6922039e-07
-2.4022129e-09
5.692937e-07
-2.9147364e-09
5.6939099e-07
-3.524713e-09
5.6952094e-07
-4.2665628e-09
5.6969681e-07
-5.1906519e-09
5.6993986e-07
-6.3736063e-09
5.7028452e-07
-7.934145e-09
5.7078778e-07
-1.0075492e-08
5.7157668e-07
-1.3203776e-08
5.7292726e-07
-1.8133768e-08
5.7518305e-07
-2.8176063e-08
5.8224904e-07
-4.5802155e-08
6.0640164e-07
4.9333015e-07
6.000853e-08
4.0913126e-07
5.0486847e-08
6.2893929e-07
3.3370285e-08
6.0462692e-07
2.4817314e-08
5.8556374e-07
1.9322918e-08
5.7954954e-07
1.5331223e-08
5.7629742e-07
1.2360512e-08
5.7424908e-07
1.0101429e-08
5.7288783e-07
8.3405967e-09
5.7194788e-07
6.9348943e-09
5.7128366e-07
5.7882411e-09
5.7080265e-07
4.8338712e-09
5.7044733e-07
4.0240187e-09
5.7018118e-07
3.3236969e-09
5.6997998e-07
2.7066407e-09
5.6982733e-07
2.1526167e-09
5.6971195e-07
1.6455978e-09
5.6962602e-07
1.1724835e-09
5.6956409e-07
7.2216491e-10
5.6952248e-07
2.8481235e-10
5.6949883e-07
-1.487022e-10
5.6949183e-07
-5.8731121e-10
5.6950114e-07
-1.0402448e-09
5.6952729e-07
-1.5175508e-09
5.6957181e-07
-2.0306977e-09
5.6963731e-07
-2.593334e-09
5.6972785e-07
-3.2222998e-09
5.6984936e-07
-3.9390381e-09
5.7001044e-07
-4.7716447e-09
5.702236e-07
-5.7579313e-09
5.7050723e-07
-6.9500848e-09
5.7088897e-07
-8.4223051e-09
5.7141208e-07
-1.0283993e-08
5.721462e-07
-1.2697021e-08
5.732008e-07
-1.5894553e-08
5.7477421e-07
-2.0238481e-08
5.7727119e-07
-2.6706916e-08
5.8165148e-07
-3.8946472e-08
5.9448859e-07
-4.8166114e-08
6.1562128e-07
4.4516403e-07
5.4878648e-08
3.5425262e-07
5.7451511e-08
6.2636643e-07
4.0466917e-08
6.2161152e-07
3.0778176e-08
5.9525248e-07
2.4642511e-08
5.856852e-07
1.9951824e-08
5.8098811e-07
1.6312562e-08
5.7788834e-07
1.3466267e-08
5.7573413e-07
1.1200821e-08
5.7421333e-07
9.3645195e-09
5.7311996e-07
7.8494759e-09
5.7231769e-07
6.5772004e-09
5.7171961e-07
5.4898454e-09
5.7126853e-07
4.5440967e-09
5.7092572e-07
3.706858e-09
5.7066457e-07
2.9522704e-09
5.7046654e-07
2.2596147e-09
5.7031867e-07
1.6117935e-09
5.7021191e-07
9.9420007e-10
5.7014008e-07
3.9383764e-10
5.7009919e-07
-2.0140306e-10
5.7008708e-07
-8.0338431e-10
5.7010312e-07
-1.4243424e-09
5.7014825e-07
-2.0775421e-09
5.7022501e-07
-2.7780272e-09
5.7033779e-07
-3.5435483e-09
5.7049337e-07
-4.3957702e-09
5.7070158e-07
-5.3619049e-09
5.7097658e-07
-6.4769918e-09
5.7133869e-07
-7.7871585e-09
5.718174e-07
-9.3541874e-09
5.7245599e-07
-1.1261902e-08
5.733198e-07
-1.3626568e-08
5.7451087e-07
-1.6609534e-08
5.7618377e-07
-2.0408578e-08
5.7857325e-07
-2.5290378e-08
5.8215299e-07
-3.2514785e-08
5.8887589e-07
-4.5098484e-08
6.0707229e-07
-4.6547775e-08
6.1707057e-07
3.9861626e-07
4.7965269e-08
3.0628737e-07
6.0075586e-08
6.1425612e-07
4.5399211e-08
6.3628789e-07
3.4874502e-08
6.0577719e-07
2.839906e-08
5.9216064e-07
2.3418901e-08
5.8596827e-07
1.9433692e-08
5.8187355e-07
1.6228694e-08
5.7893912e-07
1.3619389e-08
5.7682263e-07
1.1466367e-08
5.7527298e-07
9.6645013e-09
5.7411955e-07
8.1337499e-09
5.7325036e-07
6.8130875e-09
5.7258919e-07
5.6554997e-09
5.7208331e-07
4.6242092e-09
5.7169586e-07
3.6899271e-09
5.7140082e-07
2.8288124e-09
5.7117979e-07
2.020933e-09
5.7101979e-07
1.2490817e-09
5.7091193e-07
4.9783044e-10
5.7085044e-07
-2.4726245e-10
5.7083217e-07
-1.000362e-09
5.7085622e-07
-1.7760472e-09
5.7092394e-07
-2.5900335e-09
5.7103899e-07
-3.4599886e-09
5.7120775e-07
-4.4065165e-09
5.7143989e-07
-5.4543975e-09
5.7174946e-07
-6.6341975e-09
5.7215638e-07
-7.9843948e-09
5.7268888e-07
-9.554254e-09
5.7338725e-07
-1.1407602e-08
5.7430934e-07
-1.3627251e-08
5.7553945e-07
-1.6321508e-08
5.7720513e-07
-1.9633978e-08
5.7949624e-07
-2.3734933e-08
5.8267421e-07
-2.8927271e-08
5.8734533e-07
-3.6787647e-08
5.9673626e-07
-4.8460437e-08
6.1874508e-07
-4.319224e-08
6.1180238e-07
3.5542402e-07
4.0335476e-08
2.6595191e-07
5.8992872e-08
5.9559873e-07
4.8328805e-08
6.4695195e-07
3.7586923e-08
6.1651907e-07
3.0927824e-08
5.9881974e-07
2.5893041e-08
5.9100305e-07
2.1779195e-08
5.859874e-07
1.839143e-08
5.8232689e-07
1.5577088e-08
5.7963698e-07
1.3214117e-08
5.7763595e-07
1.1206575e-08
5.761271e-07
9.479169e-09
5.7497777e-07
7.9727535e-09
5.7409561e-07
6.6404219e-09
5.7341564e-07
5.4445445e-09
5.7289173e-07
4.3545007e-09
5.7249087e-07
3.3448995e-09
5.7218939e-07
2.3941798e-09
5.7197051e-07
1.4834927e-09
5.7182262e-07
5.9578072e-10
5.7173816e-07
-2.8501225e-10
5.7171296e-07
-1.1746586e-09
5.7174587e-07
-2.0893495e-09
5.7183863e-07
-3.0464234e-09
5.7199607e-07
-4.0651714e-09
5.722265e-07
-5.1677842e-09
5.7254251e-07
-6.3805029e-09
5.7296218e-07
-7.7350541e-09
5.7351093e-07
-9.2704478e-09
5.7422428e-07
-1.1035284e-08
5.7515209e-07
-1.3090788e-08
5.7636484e-07
-1.5514227e-08
5.7796288e-07
-1.8403006e-08
5.8009391e-07
-2.1881303e-08
5.8297454e-07
-2.6104912e-08
5.8689781e-07
-3.1483298e-08
5.9272371e-07
-3.9649678e-08
6.0490264e-07
-4.916788e-08
6.2826328e-07
-3.857603e-08
6.0121053e-07
3.1684799e-07
3.286205e-08
2.3308989e-07
5.5248479e-08
5.7321233e-07
4.9230516e-08
6.5296992e-07
3.9059939e-08
6.2668964e-07
3.2429223e-08
6.0545046e-07
2.7517469e-08
5.959148e-07
2.3437599e-08
5.9006727e-07
2.0002041e-08
5.8576245e-07
1.7094238e-08
5.8254478e-07
1.4611965e-08
5.8011823e-07
1.2471432e-08
5.7826763e-07
1.0605384e-08
5.7684381e-07
8.9595782e-09
5.7574142e-07
7.4898187e-09
5.748854e-07
6.1597722e-09
5.7422178e-07
4.9392091e-09
5.7371143e-07
3.8025609e-09
5.7332604e-07
2.7277433e-09
5.7304533e-07
1.6951802e-09
5.7285518e-07
6.869723e-10
5.7274636e-07
-3.1383433e-10
5.7271377e-07
-1.3239231e-09
5.7275595e-07
-2.3603724e-09
5.7287508e-07
-3.4413393e-09
5.7307703e-07
-4.5868004e-09
5.7337196e-07
-5.8193996e-09
5.7377511e-07
-7.165445e-09
5.7430822e-07
-8.6561097e-09
5.7500159e-07
-1.0328882e-08
5.7589705e-07
-1.222934e-08
5.7705255e-07
-1.4413544e-08
5.7854905e-07
-1.6950925e-08
5.8050026e-07
-1.9926329e-08
5.8306931e-07
-2.3440539e-08
5.8648875e-07
-2.7634981e-08
5.9109226e-07
-3.3027972e-08
5.981167e-07
-4.1004284e-08
6.1287896e-07
-4.768207e-08
6.3494107e-07
-3.3373254e-08
5.8690171e-07
2.8347473e-07
2.6188263e-08
2.0690166e-07
5.0130818e-08
5.4926981e-07
4.8491302e-08
6.5460944e-07
3.9488957e-08
6.3569198e-07
3.3075554e-08
6.1186386e-07
2.8410321e-08
6.0058004e-07
2.449144e-08
5.9398615e-07
2.1117063e-08
5.8913682e-07
1.8206302e-08
5.8545554e-07
1.5679927e-08
5.826446e-07
1.3468798e-08
5.8047876e-07
1.1515732e-08
5.7879688e-07
9.7732101e-09
5.7748394e-07
8.2014377e-09
5.7645717e-07
6.7668793e-09
5.7565634e-07
5.4409854e-09
5.7503732e-07
4.1991048e-09
5.7456792e-07
3.0195604e-09
5.7422487e-07
1.882853e-09
5.7399189e-07
7.7095647e-10
5.7385826e-07
-3.3331691e-10
5.7381804e-07
-1.4469135e-09
5.7386955e-07
-2.5871307e-09
5.7401529e-07
-3.7722197e-09
5.7426212e-07
-5.0220283e-09
5.7462177e-07
-6.3587153e-09
5.7511179e-07
-7.8075634e-09
5.7575707e-07
-9.3979261e-09
5.7659195e-07
-1.1164335e-08
5.7766346e-07
-1.314777e-08
5.7903598e-07
-1.5397307e-08
5.8079859e-07
-1.7972234e-08
5.8307519e-07
-2.0942013e-08
5.8603909e-07
-2.4381841e-08
5.8992858e-07
-2.8427238e-08
5.9513765e-07
-3.3683297e-08
6.0337276e-07
-4.1054568e-08
6.2025023e-07
-4.4790348e-08
6.3867685e-07
-2.8201205e-08
5.7031257e-07
2.5527353e-07
2.0570076e-08
1.8633162e-07
4.4580919e-08
5.2525903e-07
4.6640033e-08
6.5255034e-07
3.9150459e-08
6.4318155e-07
3.308136e-08
6.1793295e-07
2.8715403e-08
6.0494599e-07
2.5036224e-08
5.9766533e-07
2.1802231e-08
5.9237082e-07
1.8958101e-08
5.8829967e-07
1.6447776e-08
5.8515492e-07
1.4217754e-08
5.8270878e-07
1.2221849e-08
5.8079278e-07
1.0420275e-08
5.7928551e-07
8.7786707e-09
5.7809878e-07
7.2672754e-09
5.7716773e-07
5.8601175e-09
5.7644448e-07
4.5342737e-09
5.7589376e-07
3.2692035e-09
5.7548994e-07
2.0461424e-09
5.7521495e-07
8.4754511e-10
5.7505686e-07
-3.4343479e-10
5.7500902e-07
-1.543441e-09
5.7506956e-07
-2.7694115e-09
5.7524126e-07
-4.03908e-09
5.7553179e-07
-5.3715005e-09
5.7595419e-07
-6.787613e-09
5.7652791e-07
-8.3108604e-09
5.7728032e-07
-9.9678746e-09
5.7824897e-07
-1.1789242e-08
5.7948483e-07
-1.3810297e-08
5.8105704e-07
-1.6072036e-08
5.8306032e-07
-1.8622314e-08
5.8562547e-07
-2.1514245e-08
5.8893102e-07
-2.4801856e-08
5.9321619e-07
-2.8631328e-08
5.9896712e-07
-3.3649795e-08
6.0839123e-07
-4.0133856e-08
6.2673429e-07
-4.1150776e-08
6.3969377e-07
-2.3413252e-08
5.5257504e-07
2.3186027e-07
1.6014546e-08
1.7031712e-07
3.9141205e-08
5.0213244e-07
4.4114943e-08
6.4757662e-07
3.8286155e-08
6.4901033e-07
3.2650757e-08
6.2356834e-07
2.8588757e-08
6.0900799e-07
2.5181112e-08
6.0107297e-07
2.2133906e-08
5.9541802e-07
1.9403246e-08
5.9103033e-07
1.6953066e-08
5.876051e-07
1.4744384e-08
5.8491746e-07
1.2741598e-08
5.8279557e-07
1.0912788e-08
5.8111432e-07
9.2294275e-09
5.7978214e-07
7.6660351e-09
5.7873113e-07
6.1997566e-09
5.7791076e-07
4.8099382e-09
5.7728358e-07
3.4776991e-09
5.7682218e-07
2.1855103e-09
5.7650713e-07
9.1678655e-10
5.7632558e-07
-3.4451079e-10
5.7627032e-07
-1.6142603e-09
5.7633931e-07
-2.9085724e-09
5.7653557e-07
-4.24418e-09
5.768674e-07
-5.6388375e-09
5.7734884e-07
-7.1117359e-09
5.780008e-07
-8.6839293e-09
5.7885251e-07
-1.0378774e-08
5.7994381e-07
-1.2222384e-08
5.8132844e-07
-1.4244049e-08
5.830787e-07
-1.6476603e-08
5.8529288e-07
-1.8956804e-08
5.8810567e-07
-2.1722801e-08
5.9169701e-07
-2.4815076e-08
5.9630846e-07
-2.8402437e-08
6.0255449e-07
-3.3111818e-08
6.1310061e-07
-3.8537073e-08
6.3215954e-07
-3.7205836e-08
6.3836253e-07
-1.9178778e-08
5.3454798e-07
2.126815e-07
1.2422707e-08
1.5789447e-07
3.4110767e-08
4.8044448e-07
4.1245233e-08
6.404422e-07
3.7074186e-08
6.5318137e-07
3.193786e-08
6.2870466e-07
2.8165094e-08
6.1278076e-07
2.5029723e-08
6.0420834e-07
2.2189322e-08
5.9825842e-07
1.9598824e-08
5.9362083e-07
1.7237635e-08
5.8996629e-07
1.5079116e-08
5.8707598e-07
1.3096947e-08
5.8477774e-07
1.1266482e-08
5.8294478e-07
9.5648602e-09
5.8148376e-07
7.9709543e-09
5.8032503e-07
6.4652438e-09
5.7941647e-07
5.0296349e-09
5.7871919e-07
3.647233e-09
5.7820458e-07
2.302087e-09
5.7785228e-07
9.7891946e-10
5.7764875e-07
-3.3715126e-10
5.7758639e-07
-1.6608891e-09
5.7766304e-07
-3.0072266e-09
5.7788191e-07
-4.3915455e-09
5.7825171e-07
-5.8299553e-09
5.7878725e-07
-7.3395664e-09
5.7951041e-07
-8.9387501e-09
5.8045169e-07
-1.064737e-08
5.8165243e-07
-1.2486992e-08
5.8316806e-07
-1.4481043e-08
5.8507276e-07
-1.6654847e-08
5.8746668e-07
-1.90353e-08
5.9048612e-07
-2.1647909e-08
5.9430962e-07
-2.452687e-08
5.9918742e-07
-2.7866602e-08
6.0589422e-07
-3.2212042e-08
6.1744605e-07
-3.650635e-08
6.3645385e-07
-3.3256787e-08
6.3511297e-07
-1.5559445e-08
5.1685064e-07
1.9712205e-07
9.655936e-09
1.482386e-07
2.9641908e-08
4.6045863e-07
3.8277546e-08
6.3180662e-07
3.5652705e-08
6.5580621e-07
3.1053827e-08
6.3330353e-07
2.7548759e-08
6.1628582e-07
2.4668607e-08
6.0708849e-07
2.2037237e-08
6.0088979e-07
1.959869e-08
5.9605938e-07
1.7342985e-08
5.92222e-07
1.52535e-08
5.8916546e-07
1.3311646e-08
5.8671959e-07
1.1499078e-08
5.8475735e-07
9.7980603e-09
5.8318478e-07
8.191578e-09
5.8193151e-07
6.6633985e-09
5.8094465e-07
5.1980648e-09
5.8018452e-07
3.7808204e-09
5.7962183e-07
2.3974885e-09
5.7923561e-07
1.0343207e-09
5.7901191e-07
-3.2217316e-10
5.7894288e-07
-1.6854044e-09
5.7902627e-07
-3.0688928e-09
5.792654e-07
-4.4864474e-09
5.7966927e-07
-5.9523356e-09
5.8025314e-07
-7.481436e-09
5.8103951e-07
-9.0893613e-09
5.8205962e-07
-1.0792534e-08
5.833556e-07
-1.2608215e-08
5.8498374e-07
-1.4554496e-08
5.8701904e-07
-1.6650127e-08
5.8956231e-07
-1.8913597e-08
5.9274959e-07
-2.1360427e-08
5.9675645e-07
-2.4024737e-08
6.0185173e-07
-2.7122661e-08
6.0899214e-07
-3.1068608e-08
6.21392e-07
-3.4245803e-08
6.3963105e-07
-2.9508752e-08
6.3037592e-07
-1.2550599e-08
4.9989249e-07
1.8457145e-07
7.5654095e-09
1.4067327e-07
2.5782282e-08
4.4224191e-07
3.538273e-08
6.2220625e-07
3.413155e-08
6.5705739e-07
3.0081625e-08
6.3735344e-07
2.6819721e-08
6.1954772e-07
2.4167429e-08
6.0974079e-07
2.1735411e-08
6.0332181e-07
1.9450107e-08
5.9834468e-07
1.7307155e-08
5.9436495e-07
1.5297664e-08
5.9117495e-07
1.3409244e-08
5.8860801e-07
1.1628767e-08
5.8653783e-07
9.9429054e-09
5.8487064e-07
8.3383308e-09
5.8353609e-07
6.8018752e-09
5.824811e-07
5.3206347e-09
5.8166576e-07
3.8820017e-09
5.8106046e-07
2.4736454e-09
5.8064397e-07
1.0834566e-09
5.804021e-07
-3.005342e-10
5.8032687e-07
-1.6902495e-09
5.8041599e-07
-3.0976676e-09
5.8067282e-07
-4.534916e-09
5.8110652e-07
-6.0143505e-09
5.8173258e-07
-7.54861e-09
5.8257377e-07
-9.1506352e-09
5.8366164e-07
-1.0833634e-08
5.850386e-07
-1.261099e-08
5.8676109e-07
-1.4496145e-08
5.8890419e-07
-1.6502296e-08
5.9156846e-07
-1.8641052e-08
5.9488835e-07
-2.0920934e-08
5.9903634e-07
-2.3381089e-08
6.0431189e-07
-2.6250946e-08
6.11862e-07
-2.978256e-08
6.2492361e-07
-3.1917062e-08
6.4176555e-07
-2.6084058e-08
6.2454291e-07
-1.0105584e-08
4.8391402e-07
1.7446587e-07
6.0105519e-09
1.3466281e-07
2.2510103e-08
4.2574254e-07
3.2662629e-08
6.1205384e-07
3.2591143e-08
6.5712888e-07
2.9081322e-08
6.4086325e-07
2.6038123e-08
6.2259092e-07
2.3581502e-08
6.1219741e-07
2.1331401e-08
6.0557191e-07
1.9193248e-08
6.0048283e-07
1.7163569e-08
5.9639463e-07
1.5238976e-08
5.9309955e-07
1.3411826e-08
5.9043516e-07
1.1673119e-08
5.8827654e-07
1.0013169e-08
5.8653059e-07
8.4218163e-09
5.8512744e-07
6.8886292e-09
5.8401429e-07
5.4030674e-09
5.8315132e-07
3.9545794e-09
5.8250895e-07
2.532655e-09
5.8206589e-07
1.1268411e-09
5.8180792e-07
-2.7326983e-10
5.8172698e-07
-1.6780638e-09
5.8182078e-07
-3.0979378e-09
5.8209269e-07
-4.5433231e-09
5.825519e-07
-6.0246937e-09
5.8321395e-07
-7.5525463e-09
5.8410163e-07
-9.1373453e-09
5.8524644e-07
-1.0789417e-08
5.8669067e-07
-1.2518789e-08
5.8849047e-07
-1.4335018e-08
5.9072042e-07
-1.6246804e-08
5.9348025e-07
-1.8260462e-08
5.9690201e-07
-2.0380592e-08
6.0115646e-07
-2.2654914e-08
6.0658621e-07
-2.5315023e-08
6.1452211e-07
-2.8434473e-08
6.2804306e-07
-2.9634304e-08
6.4296538e-07
-2.3037954e-08
6.1794656e-07
-8.1559435e-09
4.69032e-07
1.6630992e-07
4.8686583e-09
1.2979426e-07
1.9766813e-08
4.1084461e-07
3.0165501e-08
6.0165531e-07
3.1083808e-08
6.562106e-07
2.8092387e-08
6.4385465e-07
2.5246232e-08
6.2543706e-07
2.2952927e-08
6.1449071e-07
2.0863237e-08
6.076616e-07
1.886137e-08
6.024847e-07
1.6940768e-08
5.9831523e-07
1.5101491e-08
5.9493882e-07
1.3339335e-08
5.9219732e-07
1.1648409e-08
5.8996746e-07
1.0021908e-08
5.8815709e-07
8.4522959e-09
5.8669705e-07
6.9314994e-09
5.8553509e-07
5.4510871e-09
5.8463174e-07
4.0024017e-09
5.8395763e-07
2.5766571e-09
5.8349164e-07
1.1650022e-09
5.8321957e-07
-2.4143835e-10
5.8313342e-07
-1.6515367e-09
5.8323088e-07
-3.0741402e-09
5.8351529e-07
-4.518042e-09
5.839958e-07
-5.9919362e-09
5.8468784e-07
-7.5043476e-09
5.8561404e-07
-9.0635287e-09
5.8680562e-07
-1.0677316e-08
5.8830446e-07
-1.2352947e-08
5.901661e-07
-1.4096869e-08
5.9246434e-07
-1.5914319e-08
5.952977e-07
-1.7807846e-08
5.9879553e-07
-1.9780932e-08
6.0312955e-07
-2.1891602e-08
6.0869688e-07
-2.4361601e-08
6.1699211e-07
-2.7083075e-08
6.3076453e-07
-2.7469618e-08
6.4335192e-07
-2.0379793e-08
6.1085674e-07
-6.6260227e-09
4.5527823e-07
1.596839e-07
4.0373681e-09
1.2575703e-07
1.7479928e-08
3.9740233e-07
2.7905297e-08
5.9123014e-07
2.9640156e-08
6.5447578e-07
2.7137998e-08
6.4635678e-07
2.4471211e-08
6.2810384e-07
2.2311827e-08
6.1665009e-07
2.0359972e-08
6.0961345e-07
1.8481023e-08
6.0436365e-07
1.6662362e-08
6.0013389e-07
1.490572e-08
5.9669547e-07
1.3209228e-08
5.9389381e-07
1.1569219e-08
5.9160747e-07
9.9810662e-09
5.8974524e-07
8.4393303e-09
5.8823879e-07
6.9379047e-09
5.8703651e-07
5.4701816e-09
5.8609946e-07
4.0291947e-09
5.8539862e-07
2.6077374e-09
5.8491309e-07
1.1984559e-09
5.8462885e-07
-2.060755e-10
5.8453795e-07
-1.613291e-09
5.846381e-07
-3.0305733e-09
5.8493258e-07
-4.4651869e-09
5.8543042e-07
-5.9241989e-09
5.8614685e-07
-7.4143767e-09
5.8710422e-07
-8.9420613e-09
5.8833331e-07
-1.0513013e-08
5.8987541e-07
-1.2132233e-08
5.9178532e-07
-1.3803797e-08
5.9413591e-07
-1.553041e-08
5.9702431e-07
-1.7312217e-08
6.0057734e-07
-1.9153892e-08
6.0497123e-07
-2.1123846e-08
6.1066683e-07
-2.3422644e-08
6.192909e-07
-2.5768099e-08
6.3310999e-07
-2.5462745e-08
6.4304657e-07
-1.8091033e-08
6.0348502e-07
-5.4414457e-09
4.4262865e-07
1.5424246e-07
3.434005e-09
1.2232318e-07
1.557563e-08
3.8526103e-07
2.5875387e-08
5.8093063e-07
2.8275587e-08
6.5207565e-07
2.6229998e-08
6.4840235e-07
2.3728924e-08
6.3060489e-07
2.1678484e-08
6.1870053e-07
1.9842801e-08
6.1144914e-07
1.8072604e-08
6.0613385e-07
1.6347236e-08
6.0185926e-07
1.4668624e-08
5.9837408e-07
1.3036345e-08
5.9552609e-07
1.1448234e-08
5.9319558e-07
9.9012455e-09
5.9129223e-07
8.3915534e-09
5.8974848e-07
6.9146418e-09
5.8851342e-07
5.4654372e-09
5.8754866e-07
4.0384421e-09
5.8682561e-07
2.6278572e-09
5.8632368e-07
1.2276884e-09
5.8602902e-07
-1.681593e-10
5.859338e-07
-1.5657947e-09
5.8603573e-07
-2.9712574e-09
5.8633804e-07
-4.3904275e-09
5.8684959e-07
-5.8289263e-09
5.8758535e-07
-7.2920003e-09
5.8856729e-07
-8.7843874e-09
5.898257e-07
-1.0310172e-08
5.914012e-07
-1.1872636e-08
5.9334778e-07
-1.3474122e-08
5.9573739e-07
-1.5115597e-08
5.9866579e-07
-1.6795973e-08
6.0225772e-07
-1.8522857e-08
6.0669811e-07
-2.0373846e-08
6.1251782e-07
-2.2518617e-08
6.2143567e-07
-2.4514382e-08
6.3510575e-07
-2.3630504e-08
6.4216269e-07
-1.6137684e-08
5.959922e-07
-4.5337995e-09
4.3102476e-07
1.4970866e-07
2.9939378e-09
1.1932942e-07
1.3985447e-08
3.7426991e-07
2.4057903e-08
5.7085848e-07
2.6995235e-08
6.4913841e-07
2.5372749e-08
6.5002482e-07
2.3027365e-08
6.3295025e-07
2.1065732e-08
6.2066216e-07
1.9326577e-08
6.1318829e-07
1.7651268e-08
6.0780916e-07
1.6010049e-08
6.0350048e-07
1.4403833e-08
5.9998029e-07
1.283296e-08
5.9709696e-07
1.1296205e-08
5.9473234e-07
9.7916118e-09
5.9279682e-07
8.316555e-09
5.9122354e-07
6.8677685e-09
5.8996221e-07
5.4414373e-09
5.8897499e-07
4.0333093e-09
5.8823374e-07
2.638809e-09
5.8771818e-07
1.2531456e-09
5.8741468e-07
-1.2858459e-10
5.8731553e-07
-1.5113009e-09
5.8741845e-07
-2.8998428e-09
5.8772658e-07
-4.2988686e-09
5.8824861e-07
-5.712748e-09
5.8899923e-07
-7.1454447e-09
5.8999999e-07
-8.6003904e-09
5.9128064e-07
-1.008036e-08
5.9288117e-07
-1.1587366e-08
5.9485479e-07
-1.3122552e-08
5.9727258e-07
-1.4685802e-08
6.0022904e-07
-1.6275768e-08
6.0384768e-07
-1.790417e-08
6.0832651e-07
-1.965567e-08
6.1426932e-07
-2.1661357e-08
6.2344136e-07
-2.3335387e-08
6.3677978e-07
-2.197405e-08
6.4080135e-07
-1.4478696e-08
5.8849685e-07
-3.8431849e-09
4.2038925e-07
1.4586547e-07
2.6683276e-09
1.1666131e-07
1.2649628e-08
3.6428907e-07
2.2430083e-08
5.6107841e-07
2.5797721e-08
6.457709e-07
2.4565831e-08
6.512567e-07
2.236922e-08
6.3514684e-07
2.0480957e-08
6.2255041e-07
1.8821253e-08
6.14848e-07
1.7227938e-08
6.0940247e-07
1.566188e-08
6.0506653e-07
1.4122039e-08
6.0152013e-07
1.2608987e-08
5.9861001e-07
1.1122027e-08
5.962193e-07
9.6599044e-09
5.9425894e-07
8.2208505e-09
5.9266259e-07
6.8025556e-09
5.913805e-07
5.4022129e-09
5.9037534e-07
4.0166029e-09
5.8961935e-07
2.6421911e-09
5.8909259e-07
1.2752286e-09
5.8878165e-07
-8.8146503e-11
5.8867891e-07
-1.4518104e-09
5.8878211e-07
-2.8195556e-09
5.8909433e-07
-4.1949864e-09
5.8962404e-07
-5.5814146e-09
5.9038566e-07
-6.9817488e-09
5.9140032e-07
-8.3983851e-09
5.9269728e-07
-9.8331113e-09
5.9431589e-07
-1.1287044e-08
5.9630872e-07
-1.2760565e-08
5.987461e-07
-1.4252991e-08
6.0172146e-07
-1.5763492e-08
6.0535818e-07
-1.7308567e-08
6.0987159e-07
-1.8977221e-08
6.1593797e-07
-2.0856325e-08
6.2532047e-07
-2.2236222e-08
6.3815968e-07
-2.0484662e-08
6.3904979e-07
-1.3071551e-08
5.8108374e-07
-3.3191958e-09
4.1063689e-07
1.4254627e-07
2.4214336e-09
1.1424013e-07
1.1518254e-08
3.5519279e-07
2.0968361e-08
5.5162878e-07
2.4678038e-08
6.4206141e-07
2.3806044e-08
6.5212868e-07
2.1753752e-08
6.371991e-07
1.9927664e-08
6.2437649e-07
1.8333085e-08
6.1644257e-07
1.6810204e-08
6.1092535e-07
1.5310885e-08
6.0656585e-07
1.3831437e-08
6.0299958e-07
1.2372269e-08
6.0006918e-07
1.0932912e-08
5.9765865e-07
9.5125229e-09
5.9567933e-07
8.109917e-09
5.940652e-07
6.7234933e-09
5.9276693e-07
5.3512341e-09
5.917476e-07
3.9907587e-09
5.9097983e-07
2.6394003e-09
5.9044395e-07
1.2942938e-09
5.9012675e-07
-4.7531571e-11
5.9002073e-07
-1.3890555e-09
5.9012363e-07
-2.7331771e-09
5.9043845e-07
-4.0826114e-09
5.9097348e-07
-5.4397954e-09
5.9174284e-07
-6.8067911e-09
5.9276731e-07
-8.1851971e-09
5.9407568e-07
-9.5760859e-09
5.9570678e-07
-1.0979984e-08
5.9771262e-07
-1.2396843e-08
6.0016296e-07
-1.3825817e-08
6.0315044e-07
-1.5267185e-08
6.0679955e-07
-1.6742429e-08
6.1134683e-07
-1.8341879e-08
6.1753742e-07
-2.010449e-08
6.2708308e-07
-2.1216317e-08
6.392715e-07
-1.9148279e-08
6.3698175e-07
-1.1876078e-08
5.7381154e-07
-2.9208255e-09
4.0168164e-07
1.3962545e-07
2.2278749e-09
1.1201255e-07
1.0550861e-08
3.4687044e-07
1.9650657e-08
5.4252955e-07
2.3629604e-08
6.380827e-07
2.3088881e-08
6.5266941e-07
2.1178229e-08
6.3910971e-07
1.9406722e-08
6.2614799e-07
1.7865619e-08
6.1798368e-07
1.6403092e-08
6.1238788e-07
1.496288e-08
6.0800607e-07
1.3538156e-08
6.0442431e-07
1.2128872e-08
6.0147847e-07
1.0734587e-08
5.9905294e-07
9.3546572e-09
5.9705926e-07
7.9882701e-09
5.9543158e-07
6.6343328e-09
5.9412087e-07
5.2914311e-09
5.930905e-07
3.9578513e-09
5.9231341e-07
2.6316358e-09
5.9177016e-07
1.3106548e-09
5.9144773e-07
-7.3129379e-12
5.913387e-07
-1.3244988e-09
5.9144082e-07
-2.643049e-09
5.91757e-07
-3.9649452e-09
5.9229537e-07
-5.2919179e-09
5.9306981e-07
-6.6253659e-09
5.9410076e-07
-7.9662937e-09
5.9541661e-07
-9.3152808e-09
5.9705577e-07
-1.0672501e-08
5.9906984e-07
-1.2037723e-08
6.0152818e-07
-1.3410239e-08
6.0452295e-07
-1.479186e-08
6.0818117e-07
-1.6208887e-08
6.1276386e-07
-1.7749882e-08
6.1907842e-07
-1.940391e-08
6.287371e-07
-2.0271611e-08
6.401392e-07
-1.794863e-08
6.3465877e-07
-1.085639e-08
5.667193e-07
-2.6156192e-09
3.9344087e-07
1.3700983e-07
2.0701655e-09
1.0994273e-07
9.7153324e-09
3.3922602e-07
1.8457417e-08
5.3378815e-07
2.2645538e-08
6.3389488e-07
2.2409502e-08
6.5290547e-07
2.0638947e-08
6.4088023e-07
1.8917332e-08
6.2786958e-07
1.7420493e-08
6.1948051e-07
1.6009716e-08
6.1379866e-07
1.4621855e-08
6.0939393e-07
1.3246654e-08
6.0579951e-07
1.1883388e-08
6.0284173e-07
1.0531512e-08
6.0040481e-07
9.1904362e-09
5.9840034e-07
7.8595642e-09
5.9676246e-07
6.538152e-09
5.9544228e-07
5.2252344e-09
5.9440341e-07
3.9196174e-09
5.9361902e-07
2.6199117e-09
5.9306987e-07
1.3245863e-09
5.9274306e-07
3.2036131e-11
5.9263125e-07
-1.259346e-09
5.927322e-07
-2.5510962e-09
5.9304875e-07
-3.8446019e-09
5.9358888e-07
-5.1410347e-09
5.9436625e-07
-6.4412884e-09
5.9540102e-07
-7.745941e-09
5.9672126e-07
-9.0552547e-09
5.9836508e-07
-1.0369228e-08
6.0038381e-07
-1.1687625e-08
6.0284658e-07
-1.301009e-08
6.0584542e-07
-1.4340245e-08
6.0951132e-07
-1.5708757e-08
6.1413237e-07
-1.7199445e-08
6.2056911e-07
-1.8750945e-08
6.302886e-07
-1.9396166e-08
6.4078442e-07
-1.6869181e-08
6.3213179e-07
-9.9814102e-09
5.5983153e-07
-2.3784628e-09
3.8583792e-07
1.3463137e-07
1.9366335e-09
1.0800649e-07
8.9865387e-09
3.3217698e-07
1.7371909e-08
5.2540359e-07
2.1719368e-08
6.2954781e-07
2.1763304e-08
6.5286157e-07
2.0131902e-08
6.4251158e-07
1.8457729e-08
6.2954373e-07
1.6998066e-08
6.2094017e-07
1.5631811e-08
6.1516491e-07
1.4290418e-08
6.1073532e-07
1.296007e-08
6.0712985e-07
1.1639203e-08
6.041626e-07
1.0327083e-08
6.0171694e-07
9.0230812e-09
5.9970434e-07
7.7267032e-09
5.9805883e-07
6.437432e-09
5.9673155e-07
5.1546262e-09
5.9568622e-07
3.8774879e-09
5.9489616e-07
2.6050737e-09
5.9434228e-07
1.3363324e-09
5.940118e-07
7.0156516e-11
5.9389742e-07
-1.1945609e-09
5.9399692e-07
-2.4588612e-09
5.9431305e-07
-3.723663e-09
5.9485368e-07
-4.9897069e-09
5.9563229e-07
-6.2575142e-09
5.9666882e-07
-7.5273714e-09
5.9799112e-07
-8.7993581e-09
5.9963707e-07
-1.0073425e-08
6.0165788e-07
-1.1349451e-08
6.041226e-07
-1.2627582e-08
6.0712355e-07
-1.391341e-08
6.1079715e-07
-1.5241303e-08
6.1546026e-07
-1.6687591e-08
6.2201539e-07
-1.8141127e-08
6.3174214e-07
-1.8583278e-08
6.4122658e-07
-1.5894318e-08
6.2944283e-07
-9.2249983e-09
5.5316221e-07
-2.1903826e-09
3.7880331e-07
1.3244098e-07
1.8197364e-09
1.0618721e-07
8.344984e-09
3.2565275e-07
1.6380102e-08
5.1736943e-07
2.0845357e-08
6.2508304e-07
2.1146207e-08
6.525608e-07
1.9653185e-08
6.4400455e-07
1.8025661e-08
6.3117123e-07
1.6597878e-08
6.2236795e-07
1.5270143e-08
6.1649265e-07
1.3970153e-08
6.1203531e-07
1.2680528e-08
6.0841948e-07
1.1398745e-08
6.0544438e-07
1.0123828e-08
6.0299185e-07
8.8550543e-09
6.0097311e-07
7.5919512e-09
5.9932194e-07
6.3341374e-09
5.9798936e-07
5.0811967e-09
5.9693916e-07
3.8326243e-09
5.9614473e-07
2.58782e-09
5.9558709e-07
1.3461076e-09
5.9525351e-07
1.067731e-10
5.9513676e-07
-1.1308936e-09
5.9523459e-07
-2.3675462e-09
5.955497e-07
-3.6037408e-09
5.9608987e-07
-4.8398946e-09
5.9686844e-07
-6.0762644e-09
5.9790519e-07
-7.312951e-09
5.9922781e-07
-8.5499506e-09
6.0087407e-07
-9.7872542e-09
6.0289518e-07
-1.1024931e-08
6.0536028e-07
-1.226373e-08
6.0836235e-07
-1.3511268e-08
6.1204469e-07
-1.4804808e-08
6.167538e-07
-1.6210748e-08
6.2342133e-07
-1.7569745e-08
6.3310114e-07
-1.7826212e-08
6.4148304e-07
-1.5009972e-08
6.2662659e-07
-8.5656228e-09
5.4671786e-07
-2.037378e-09
3.7227506e-07
1.3040361e-07
1.7147526e-09
1.0447299e-07
7.7755838e-09
3.1959308e-07
1.5470353e-08
5.096758e-07
2.0018596e-08
6.205354e-07
2.0554759e-08
6.5202475e-07
1.919921e-08
6.4536005e-07
1.7618696e-08
6.327517e-07
1.6218971e-08
6.2376767e-07
1.4924822e-08
6.177868e-07
1.3661901e-08
6.1329823e-07
1.2409384e-08
6.09672e-07
1.1163692e-08
6.0669007e-07
9.9235783e-09
6.0423197e-07
8.688194e-09
6.022085e-07
7.4570378e-09
6.0055309e-07
6.2297957e-09
5.992166e-07
5.0061998e-09
5.9816276e-07
3.7859559e-09
5.9736498e-07
2.5687201e-09
5.9680432e-07
1.3541037e-09
5.9646813e-07
1.4169603e-10
5.9634917e-07
-1.0689054e-09
5.9644519e-07
-2.2780577e-09
5.9675885e-07
-3.486044e-09
5.9729786e-07
-4.6930473e-09
5.9807545e-07
-5.8991458e-09
5.9911129e-07
-7.1043352e-09
6.00433e-07
-8.3085994e-09
6.0207833e-07
-9.512025e-09
6.040986e-07
-1.0714918e-08
6.0656317e-07
-1.1918694e-08
6.0956612e-07
-1.3132965e-08
6.1325896e-07
-1.4396997e-08
6.1801783e-07
-1.5765166e-08
6.247895e-07
-1.7032234e-08
6.3436821e-07
-1.7118638e-08
6.4156944e-07
-1.4203867e-08
6.2371182e-07
-7.9858242e-09
5.4049981e-07
-1.9093462e-09
3.6619858e-07
1.2849426e-07
1.6188104e-09
1.0285479e-07
7.2666298e-09
3.1394661e-07
1.4633023e-08
5.0231074e-07
1.923496e-08
6.1593419e-07
1.9986132e-08
6.5127374e-07
1.8766803e-08
6.4657933e-07
1.723442e-08
6.3428404e-07
1.5860115e-08
6.2514196e-07
1.4595526e-08
6.1905139e-07
1.3365977e-08
6.1452778e-07
1.2147419e-08
6.1089055e-07
1.0935144e-08
6.0790234e-07
9.7276118e-09
6.054395e-07
8.523836e-09
6.0341227e-07
7.3232539e-09
6.0175367e-07
6.1255707e-09
6.0041429e-07
4.9306077e-09
5.9935772e-07
3.7382154e-09
5.9855737e-07
2.5482357e-09
5.979943e-07
1.3604936e-09
5.9765587e-07
1.7480668e-10
5.9753485e-07
-1.008996e-09
5.9762899e-07
-2.1910508e-09
5.9794091e-07
-3.3714419e-09
5.9847825e-07
-4.5501904e-09
5.9925419e-07
-5.7272628e-09
6.0028836e-07
-6.9026096e-09
6.0160834e-07
-8.0762506e-09
6.0325197e-07
-9.2484004e-09
6.0527075e-07
-1.0419625e-08
6.0773439e-07
-1.1592045e-08
6.1073854e-07
-1.2777171e-08
6.1444409e-07
-1.401534e-08
6.19256e-07
-1.5347175e-08
6.2612134e-07
-1.652439e-08
6.3554542e-07
-1.6454864e-08
6.4149992e-07
-1.3465507e-08
6.2072246e-07
-7.471603e-09
5.3450591e-07
-1.7991516e-09
3.6052613e-07
1.2669511e-07
1.5301992e-09
1.0132529e-07
6.8089581e-09
3.0866941e-07
1.3860089e-08
4.9526117e-07
1.8490998e-08
6.1130418e-07
1.9438056e-08
6.5032691e-07
1.8353229e-08
6.4766411e-07
1.6870541e-08
6.3576668e-07
1.5519954e-08
6.2649254e-07
1.4281658e-08
6.2028968e-07
1.3082333e-08
6.1572711e-07
1.1894997e-08