/*--------------------------------*- C++ -*----------------------------------*\
  =========                 |
  \\      /  F ield         | OpenFOAM: The Open Source CFD Toolbox
   \\    /   O peration     | Website:  https://openfoam.org
    \\  /    A nd           | Version:  10
     \\/     M anipulation  |
\*---------------------------------------------------------------------------*/
FoamFile
{
    format      ascii;
    class       surfaceScalarField;
    location    "0.21";
    object      phi_0;
}
// * * * * * * * * * * * * * * * * * * * * * * * * * * * * * * * * * * * * * //

dimensions      [1 0 -1 0 0 0 0];

internalField   nonuniform List<scalar> 
7860
(
3.9895908e-08
5.2881212e-07
1.219267e-08
5.9641104e-07
7.4278519e-09
5.7347256e-07
5.4993688e-09
5.7063619e-07
4.1149501e-09
5.7009209e-07
3.2011034e-09
5.696215e-07
2.5591178e-09
5.6934962e-07
2.0793001e-09
5.6918744e-07
1.7093215e-09
5.6907759e-07
1.4166583e-09
5.6900026e-07
1.1795151e-09
5.6894473e-07
9.8312868e-10
5.6890397e-07
8.1715524e-10
5.6887355e-07
6.7410451e-10
5.6885062e-07
5.4840299e-10
5.6883327e-07
4.3578993e-10
5.6882018e-07
3.3291151e-10
5.6881044e-07
2.3704022e-10
5.6880343e-07
1.4587292e-10
5.6879873e-07
5.7378366e-11
5.6879605e-07
-3.0326377e-11
5.6879526e-07
-1.190837e-10
5.6879632e-07
-2.1080018e-10
5.6879928e-07
-3.0755339e-10
5.6880431e-07
-4.1172427e-10
5.6881173e-07
-5.2615997e-10
5.68822e-07
-6.5439462e-10
5.688358e-07
-8.009621e-10
5.6885414e-07
-9.7185692e-10
5.6887847e-07
-1.1752406e-09
5.6891097e-07
-1.4226148e-09
5.6895496e-07
-1.7307913e-09
5.6901577e-07
-2.1247488e-09
5.6910156e-07
-2.6443693e-09
5.6922724e-07
-3.3720668e-09
5.6943533e-07
-4.4633962e-09
5.6979898e-07
-6.008777e-09
5.7025306e-07
-9.5078109e-09
5.7220674e-07
-2.9575606e-08
5.8877555e-07
5.3913232e-07
5.9672314e-08
4.6913981e-07
3.6665745e-08
6.1941761e-07
2.2627945e-08
5.8751036e-07
1.6253358e-08
5.7701077e-07
1.2290309e-08
5.7405514e-07
9.6060817e-09
5.7230573e-07
7.6773319e-09
5.7127837e-07
6.2360238e-09
5.7062874e-07
5.12656e-09
5.7018705e-07
4.2488675e-09
5.6987795e-07
3.537611e-09
5.6965599e-07
2.9486209e-09
5.6949296e-07
2.4508513e-09
5.6937132e-07
2.0218261e-09
5.6927965e-07
1.6448299e-09
5.6921027e-07
1.3070845e-09
5.6915792e-07
9.9853197e-10
5.6911899e-07
7.1099294e-10
5.6909097e-07
4.3756086e-10
5.6907216e-07
1.7214315e-10
5.6906147e-07
-9.0907314e-11
5.6905831e-07
-3.5711479e-10
5.6906252e-07
-6.3219221e-10
5.6907435e-07
-9.2237286e-10
5.6909449e-07
-1.2347968e-09
5.6912416e-07
-1.578002e-09
5.6916521e-07
-1.9625866e-09
5.6922039e-07
-2.4021476e-09
5.692937e-07
-2.914669e-09
5.6939099e-07
-3.5246442e-09
5.6952094e-07
-4.2664932e-09
5.6969681e-07
-5.1905824e-09
5.6993986e-07
-6.3735377e-09
5.7028452e-07
-7.9340782e-09
5.7078778e-07
-1.0075428e-08
5.7157668e-07
-1.3203717e-08
5.7292727e-07
-1.8133715e-08
5.7518305e-07
-2.8176012e-08
5.8224904e-07
-4.5802113e-08
6.0640165e-07
4.9333021e-07
6.0008507e-08
4.0913131e-07
5.0486815e-08
6.289393e-07
3.3370254e-08
6.0462692e-07
2.4817283e-08
5.8556374e-07
1.9322888e-08
5.7954954e-07
1.5331193e-08
5.7629742e-07
1.2360484e-08
5.7424908e-07
1.0101405e-08
5.7288782e-07
8.3405769e-09
5.7194788e-07
6.9348793e-09
5.7128365e-07
5.7882316e-09
5.7080264e-07
4.8338677e-09
5.7044732e-07
4.0240219e-09
5.7018117e-07
3.3237072e-09
5.6997996e-07
2.7066586e-09
5.6982731e-07
2.1526424e-09
5.6971194e-07
1.6456316e-09
5.69626e-07
1.1725255e-09
5.6956408e-07
7.2221522e-10
5.6952247e-07
2.848709e-10
5.6949882e-07
-1.486355e-10
5.6949182e-07
-5.8723661e-10
5.6950112e-07
-1.0401626e-09
5.6952728e-07
-1.5174614e-09
5.6957179e-07
-2.0306017e-09
5.696373e-07
-2.5932319e-09
5.6972784e-07
-3.2221925e-09
5.6984935e-07
-3.9389263e-09
5.7001043e-07
-4.7715292e-09
5.7022359e-07
-5.7578133e-09
5.7050722e-07
-6.9499654e-09
5.7088896e-07
-8.4221856e-09
5.7141208e-07
-1.0283874e-08
5.7214621e-07
-1.2696906e-08
5.7320081e-07
-1.5894442e-08
5.7477422e-07
-2.0238377e-08
5.772712e-07
-2.6706821e-08
5.816515e-07
-3.8946379e-08
5.944886e-07
-4.8166046e-08
6.1562132e-07
4.4516416e-07
5.4878618e-08
3.542527e-07
5.7451461e-08
6.2636646e-07
4.0466868e-08
6.2161151e-07
3.0778129e-08
5.9525248e-07
2.4642465e-08
5.856852e-07
1.995178e-08
5.809881e-07
1.6312521e-08
5.7788834e-07
1.346623e-08
5.7573411e-07
1.1200791e-08
5.7421332e-07
9.3644959e-09
5.7311994e-07
7.8494602e-09
5.7231767e-07
6.5771936e-09
5.7171959e-07
5.4898483e-09
5.7126851e-07
4.54411e-09
5.709257e-07
3.7068822e-09
5.7066454e-07
2.9523061e-09
5.7046652e-07
2.259662e-09
5.7031865e-07
1.6118529e-09
5.7021189e-07
9.9427145e-10
5.7014005e-07
3.9392102e-10
5.7009917e-07
-2.0130783e-10
5.7008705e-07
-8.0327757e-10
5.7010309e-07
-1.4242246e-09
5.7014823e-07
-2.0774138e-09
5.7022498e-07
-2.7778891e-09
5.7033777e-07
-3.5434013e-09
5.7049335e-07
-4.3956155e-09
5.7070156e-07
-5.3617435e-09
5.7097656e-07
-6.4768251e-09
5.7133868e-07
-7.7869879e-09
5.7181739e-07
-9.3540145e-09
5.7245599e-07
-1.1261728e-08
5.733198e-07
-1.3626396e-08
5.7451087e-07
-1.6609366e-08
5.7618378e-07
-2.0408417e-08
5.7857327e-07
-2.5290225e-08
5.8215301e-07
-3.2514639e-08
5.8887591e-07
-4.5098343e-08
6.070723e-07
-4.6547683e-08
6.1707065e-07
3.9861648e-07
4.7965234e-08
3.0628748e-07
6.0075517e-08
6.1425618e-07
4.539914e-08
6.3628789e-07
3.4874436e-08
6.0577719e-07
2.8398995e-08
5.9216064e-07
2.3418839e-08
5.8596826e-07
1.9433635e-08
5.8187354e-07
1.6228643e-08
5.7893911e-07
1.3619345e-08
5.7682261e-07
1.1466333e-08
5.7527296e-07
9.6644779e-09
5.7411953e-07
8.1337383e-09
5.7325033e-07
6.8130889e-09
5.7258916e-07
5.6555149e-09
5.7208327e-07
4.6242391e-09
5.7169582e-07
3.6899723e-09
5.7140078e-07
2.8288733e-09
5.7117975e-07
2.02101e-09
5.7101975e-07
1.2491748e-09
5.7091189e-07
4.9793966e-10
5.708504e-07
-2.4713736e-10
5.7083213e-07
-1.0002214e-09
5.7085618e-07
-1.7758917e-09
5.709239e-07
-2.5898638e-09
5.7103895e-07
-3.4598058e-09
5.7120771e-07
-4.4063217e-09
5.7143986e-07
-5.4541921e-09
5.7174943e-07
-6.6339829e-09
5.7215635e-07
-7.9841728e-09
5.7268887e-07
-9.5540265e-09
5.7338724e-07
-1.1407371e-08
5.7430933e-07
-1.362702e-08
5.7553944e-07
-1.6321278e-08
5.7720513e-07
-1.9633752e-08
5.7949625e-07
-2.3734714e-08
5.8267423e-07
-2.8927063e-08
5.8734536e-07
-3.6787444e-08
5.9673629e-07
-4.8460242e-08
6.187451e-07
-4.3192125e-08
6.1180254e-07
3.5542435e-07
4.0335436e-08
2.6595207e-07
5.8992784e-08
5.9559885e-07
4.8328709e-08
6.4695196e-07
3.7586833e-08
6.1651906e-07
3.0927738e-08
5.9881974e-07
2.5892958e-08
5.9100304e-07
2.1779118e-08
5.8598738e-07
1.8391361e-08
5.8232686e-07
1.5577029e-08
5.7963695e-07
1.321407e-08
5.7763592e-07
1.1206542e-08
5.7612705e-07
9.4791507e-09
5.7497772e-07
7.9727518e-09
5.7409556e-07
6.6404379e-09
5.7341559e-07
5.4445792e-09
5.7289168e-07
4.3545549e-09
5.7249081e-07
3.3449738e-09
5.7218933e-07
2.3942746e-09
5.7197045e-07
1.4836081e-09
5.7182255e-07
5.9591684e-10
5.7173809e-07
-2.8485577e-10
5.717129e-07
-1.1744823e-09
5.717458e-07
-2.0891541e-09
5.7183857e-07
-3.0462098e-09
5.7199601e-07
-4.0649408e-09
5.7222644e-07
-5.167538e-09
5.7254246e-07
-6.3802428e-09
5.7296214e-07
-7.7347821e-09
5.7351089e-07
-9.270166e-09
5.7422425e-07
-1.1034995e-08
5.7515207e-07
-1.3090494e-08
5.7636483e-07
-1.5513931e-08
5.7796288e-07
-1.8402711e-08
5.8009391e-07
-2.1881013e-08
5.8297456e-07
-2.6104631e-08
5.8689785e-07
-3.1483026e-08
5.9272376e-07
-3.9649407e-08
6.0490267e-07
-4.9167628e-08
6.2826332e-07
-3.8575894e-08
6.012108e-07
3.1684846e-07
3.2862004e-08
2.3309009e-07
5.524837e-08
5.7321251e-07
4.9230389e-08
6.5296994e-07
3.9059821e-08
6.2668962e-07
3.242911e-08
6.0545045e-07
2.7517361e-08
5.9591479e-07
2.3437499e-08
5.9006724e-07
2.0001951e-08
5.8576241e-07
1.7094161e-08
5.8254474e-07
1.4611903e-08
5.8011817e-07
1.2471386e-08
5.7826757e-07
1.0605357e-08
5.7684375e-07
8.9595716e-09
5.7574134e-07
7.489834e-09
5.7488533e-07
6.1598107e-09
5.742217e-07
4.9392718e-09
5.7371135e-07
3.8026485e-09
5.7332595e-07
2.7278563e-09
5.7304524e-07
1.6953188e-09
5.7285509e-07
6.8713652e-10
5.7274627e-07
-3.1364485e-10
5.7271368e-07
-1.3237089e-09
5.7275587e-07
-2.3601344e-09
5.7287499e-07
-3.4410786e-09
5.7307695e-07
-4.5865184e-09
5.7337188e-07
-5.8190981e-09
5.7377504e-07
-7.165126e-09
5.7430816e-07
-8.6557754e-09
5.7500154e-07
-1.0328535e-08
5.7589701e-07
-1.2228984e-08
5.7705252e-07
-1.4413181e-08
5.7854903e-07
-1.6950558e-08
5.8050026e-07
-1.9925963e-08
5.8306932e-07
-2.3440178e-08
5.8648877e-07
-2.7634628e-08
5.910923e-07
-3.3027627e-08
5.9811675e-07
-4.1003937e-08
6.1287898e-07
-4.7681761e-08
6.3494114e-07
-3.3373098e-08
5.8690214e-07
2.8347536e-07
2.6188213e-08
2.0690191e-07
5.0130686e-08
5.4927008e-07
4.849114e-08
6.5460949e-07
3.9488804e-08
6.3569195e-07
3.307541e-08
6.1186384e-07
2.8410184e-08
6.0058001e-07
2.4491312e-08
5.9398611e-07
2.1116947e-08
5.8913678e-07
1.8206202e-08
5.8545548e-07
1.5679845e-08
5.8264453e-07
1.3468737e-08
5.8047868e-07
1.1515693e-08
5.7879679e-07
9.7731963e-09
5.7748384e-07
8.2014505e-09
5.7645707e-07
6.7669202e-09
5.7565623e-07
5.4410557e-09
5.7503721e-07
4.1992052e-09
5.745678e-07
3.0196917e-09
5.7422475e-07
1.8830154e-09
5.7399177e-07
7.7115001e-10
5.7385814e-07
-3.330926e-10
5.7381792e-07
-1.4466591e-09
5.7386943e-07
-2.5868473e-09
5.7401518e-07
-3.7719085e-09
5.7426201e-07
-5.021691e-09
5.7462167e-07
-6.358354e-09
5.751117e-07
-7.8071804e-09
5.7575699e-07
-9.3975242e-09
5.7659188e-07
-1.1163918e-08
5.776634e-07
-1.314734e-08
5.7903594e-07
-1.5396868e-08
5.8079856e-07
-1.797179e-08
5.8307518e-07
-2.0941568e-08
5.8603909e-07
-2.4381401e-08
5.899286e-07
-2.8426807e-08
5.951377e-07
-3.3682869e-08
6.0337282e-07
-4.1054138e-08
6.2025025e-07
-4.4789979e-08
6.3867699e-07
-2.8201032e-08
5.7031319e-07
2.5527433e-07
2.0570021e-08
1.8633193e-07
4.4580764e-08
5.2525939e-07
4.6639833e-08
6.5255043e-07
3.9150266e-08
6.4318151e-07
3.3081179e-08
6.1793292e-07
2.8715231e-08
6.0494596e-07
2.5036064e-08
5.9766528e-07
2.1802086e-08
5.9237075e-07
1.8957974e-08
5.8829959e-07
1.6447671e-08
5.8515483e-07
1.4217674e-08
5.8270868e-07
1.2221796e-08
5.8079267e-07
1.0420252e-08
5.7928538e-07
8.7786789e-09
5.7809864e-07
7.2673172e-09
5.7716759e-07
5.8601943e-09
5.7644433e-07
4.5343866e-09
5.7589361e-07
3.2693532e-09
5.7548979e-07
2.0463294e-09
5.7521479e-07
8.4776937e-10
5.750567e-07
-3.4317372e-10
5.7500886e-07
-1.5431438e-09
5.750694e-07
-2.7690794e-09
5.7524112e-07
-4.0387145e-09
5.7553165e-07
-5.3711036e-09
5.7595406e-07
-6.7871869e-09
5.7652779e-07
-8.310408e-09
5.7728021e-07
-9.967399e-09
5.7824887e-07
-1.1788746e-08
5.7948475e-07
-1.3809786e-08
5.8105698e-07
-1.6071513e-08
5.8306028e-07
-1.8621785e-08
5.8562545e-07
-2.1513714e-08
5.8893102e-07
-2.4801329e-08
5.9321622e-07
-2.8630808e-08
5.9896718e-07
-3.3649273e-08
6.0839128e-07
-4.0133333e-08
6.2673431e-07
-4.1150345e-08
6.39694e-07
-2.3413062e-08
5.5257591e-07
2.3186127e-07
1.6014485e-08
1.703175e-07
3.9141025e-08
5.0213293e-07
4.4114699e-08
6.4757679e-07
3.8285914e-08
6.4901029e-07
3.2650533e-08
6.2356829e-07
2.8588545e-08
6.0900795e-07
2.5180914e-08
6.0107291e-07
2.2133726e-08
5.9541794e-07
1.9403087e-08
5.9103023e-07
1.6952933e-08
5.8760499e-07
1.4744281e-08
5.8491733e-07
1.2741527e-08
5.8279542e-07
1.0912752e-08
5.8111416e-07
9.2294287e-09
5.7978197e-07
7.6660759e-09
5.7873094e-07
6.1998387e-09
5.7791057e-07
4.810063e-09
5.7728338e-07
3.4778674e-09
5.7682198e-07
2.1857226e-09
5.7650693e-07
9.1704289e-10
5.7632538e-07
-3.4421082e-10
5.7627012e-07
-1.6139175e-09
5.7633911e-07
-2.9081882e-09
5.7653539e-07
-4.2437561e-09
5.7686722e-07
-5.6383761e-09
5.7734868e-07
-7.1112396e-09
5.7800065e-07
-8.6834013e-09
5.7885237e-07
-1.0378218e-08
5.7994369e-07
-1.2221803e-08
5.8132833e-07
-1.4243449e-08
5.8307863e-07
-1.6475989e-08
5.8529282e-07
-1.895618e-08
5.8810564e-07
-2.1722173e-08
5.9169702e-07
-2.4814451e-08
5.963085e-07
-2.8401817e-08
6.0255455e-07
-3.3111191e-08
6.1310066e-07
-3.8536451e-08
6.3215957e-07
-3.7205342e-08
6.3836289e-07
-1.9178571e-08
5.3454914e-07
2.1268269e-07
1.2422638e-08
1.5789492e-07
3.4110559e-08
4.8044511e-07
4.124494e-08
6.4044245e-07
3.707389e-08
6.5318133e-07
3.1937585e-08
6.2870459e-07
2.8164834e-08
6.127807e-07
2.502948e-08
6.0420827e-07
2.2189101e-08
5.9825832e-07
1.9598628e-08
5.936207e-07
1.7237469e-08
5.8996615e-07
1.5078984e-08
5.8707581e-07
1.3096853e-08
5.8477755e-07
1.126643e-08
5.8294458e-07
9.5648516e-09
5.8148354e-07
7.970992e-09
5.803248e-07
6.4653298e-09
5.7941623e-07
5.0297708e-09
5.7871894e-07
3.6474198e-09
5.7820433e-07
2.3023253e-09
5.7785203e-07
9.7920936e-10
5.7764849e-07
-3.368102e-10
5.7758614e-07
-1.6604978e-09
5.776628e-07
-3.0067865e-09
5.7788168e-07
-4.3910586e-09
5.7825149e-07
-5.829424e-09
5.7878704e-07
-7.3389939e-09
5.7951022e-07
-8.9381398e-09
5.8045152e-07
-1.0646726e-08
5.8165228e-07
-1.2486318e-08
5.8316793e-07
-1.4480346e-08
5.8507265e-07
-1.6654131e-08
5.8746661e-07
-1.9034572e-08
5.9048608e-07
-2.1647175e-08
5.9430962e-07
-2.4526136e-08
5.9918746e-07
-2.7865869e-08
6.0589428e-07
-3.2211297e-08
6.1744608e-07
-3.650562e-08
6.3645389e-07
-3.3256226e-08
6.3511349e-07
-1.555922e-08
5.1685213e-07
1.9712347e-07
9.65586e-09
1.4823913e-07
2.9641669e-08
4.6045943e-07
3.8277198e-08
6.3180698e-07
3.5652345e-08
6.5580618e-07
3.1053491e-08
6.3330343e-07
2.7548444e-08
6.1628574e-07
2.4668313e-08
6.070884e-07
2.2036967e-08
6.0088966e-07
1.959845e-08
5.9605922e-07
1.734278e-08
5.9222182e-07
1.5253335e-08
5.8916526e-07
1.3311525e-08
5.8671936e-07
1.1499005e-08
5.847571e-07
9.7980385e-09
5.8318451e-07
8.1916099e-09
5.8193123e-07
6.6634866e-09
5.8094435e-07
5.1982107e-09
5.8018422e-07
3.7810255e-09
5.7962152e-07
2.3977534e-09
5.792353e-07
1.0346457e-09
5.790116e-07
-3.2178865e-10
5.7894257e-07
-1.6849613e-09
5.7902597e-07
-3.0683928e-09
5.7926511e-07
-4.4858926e-09
5.7966899e-07
-5.9517288e-09
5.8025288e-07
-7.4807805e-09
5.8103927e-07
-9.0886611e-09
5.820594e-07
-1.0791793e-08
5.8335541e-07
-1.2607439e-08
5.8498357e-07
-1.4553691e-08
5.870189e-07
-1.66493e-08
5.8956222e-07
-1.8912753e-08
5.9274954e-07
-2.1359574e-08
5.9675644e-07
-2.4023882e-08
6.0185176e-07
-2.7121802e-08
6.089922e-07
-3.1067732e-08
6.2139201e-07
-3.4244957e-08
6.3963112e-07
-2.950812e-08
6.3037666e-07
-1.2550356e-08
4.9989437e-07
1.8457312e-07
7.5653247e-09
1.4067388e-07
2.5782009e-08
4.422429e-07
3.538232e-08
6.2220676e-07
3.4131117e-08
6.5705738e-07
3.008122e-08
6.3735332e-07
2.6819342e-08
6.1954762e-07
2.4167074e-08
6.0974067e-07
2.1735085e-08
6.0332165e-07
1.9449816e-08
5.9834449e-07
1.7306905e-08
5.9436473e-07
1.5297461e-08
5.911747e-07
1.3409091e-08
5.8860773e-07
1.1628669e-08
5.8653752e-07
9.9428666e-09
5.8487031e-07
8.3383541e-09
5.8353574e-07
6.8019632e-09
5.8248074e-07
5.3207895e-09
5.8166539e-07
3.8822248e-09
5.8106008e-07
2.4739376e-09
5.8064359e-07
1.0838181e-09
5.8040172e-07
-3.001038e-10
5.8032649e-07
-1.6897513e-09
5.8041562e-07
-3.0971033e-09
5.8067246e-07
-4.534288e-09
5.8110617e-07
-6.0136618e-09
5.8173225e-07
-7.5478645e-09
5.8257347e-07
-9.1498371e-09
5.8366137e-07
-1.0832788e-08
5.8503836e-07
-1.2610103e-08
5.8676089e-07
-1.4495222e-08
5.8890402e-07
-1.6501345e-08
5.9156834e-07
-1.864008e-08
5.9488827e-07
-2.091995e-08
5.9903631e-07
-2.3380099e-08
6.0431191e-07
-2.6249946e-08
6.1186205e-07
-2.9781539e-08
6.2492361e-07
-3.191609e-08
6.4176567e-07
-2.6083351e-08
6.2454392e-07
-1.010532e-08
4.8391634e-07
1.744678e-07
6.010457e-09
1.3466352e-07
2.2509792e-08
4.2574376e-07
3.266215e-08
6.1205452e-07
3.2590625e-08
6.5712892e-07
2.9080835e-08
6.4086309e-07
2.6037669e-08
6.2259078e-07
2.3581077e-08
6.1219726e-07
2.133101e-08
6.0557172e-07
1.9192898e-08
6.004826e-07
1.7163267e-08
5.9639436e-07
1.5238727e-08
5.9309924e-07
1.3411635e-08
5.9043482e-07
1.1672991e-08
5.8827617e-07
1.0013109e-08
5.8653019e-07
8.4218275e-09
5.8512702e-07
6.8887148e-09
5.8401386e-07
5.4032296e-09
5.8315088e-07
3.95482e-09
5.8250849e-07
2.532975e-09
5.8206543e-07
1.1272407e-09
5.8180745e-07
-2.7279093e-10
5.8172652e-07
-1.6775067e-09
5.8182033e-07
-3.0973044e-09
5.8209226e-07
-4.5426162e-09
5.8255148e-07
-6.0239164e-09
5.8321355e-07
-7.5517028e-09
5.8410126e-07
-9.1364404e-09
5.8524611e-07
-1.0788456e-08
5.8669038e-07
-1.2517779e-08
5.8849021e-07
-1.4333966e-08
5.9072021e-07
-1.6245718e-08
5.9348009e-07
-1.8259349e-08
5.969019e-07
-2.0379462e-08
6.0115642e-07
-2.2653773e-08
6.0658622e-07
-2.5313864e-08
6.1452214e-07
-2.8433291e-08
6.2804303e-07
-2.9633194e-08
6.4296557e-07
-2.3037165e-08
6.1794789e-07
-8.1556571e-09
4.6903483e-07
1.6631214e-07
4.8685521e-09
1.2979509e-07
1.976646e-08
4.1084609e-07
3.0164945e-08
6.016562e-07
3.1083195e-08
6.5621069e-07
2.8091806e-08
6.4385446e-07
2.5245691e-08
6.2543688e-07
2.2952422e-08
6.1449052e-07
2.0862772e-08
6.0766137e-07
1.8860952e-08
6.0248442e-07
1.6940404e-08
5.983149e-07
1.5101188e-08
5.9493846e-07
1.3339099e-08
5.9219691e-07
1.1648246e-08
5.8996702e-07
1.0021822e-08
5.8815662e-07
8.4522912e-09
5.8669656e-07
6.9315796e-09
5.8553457e-07
5.4512549e-09
5.846312e-07
4.0026591e-09
5.8395709e-07
2.5770053e-09
5.8349108e-07
1.1654415e-09
5.8321902e-07
-2.4090826e-10
5.8313287e-07
-1.650917e-09
5.8323034e-07
-3.0734329e-09
5.8351477e-07
-4.5172498e-09
5.839953e-07
-5.9910629e-09
5.8468736e-07
-7.5033977e-09
5.8561359e-07
-9.0625075e-09
5.8680522e-07
-1.067623e-08
5.883041e-07
-1.2351802e-08
5.9016578e-07
-1.4095674e-08
5.9246408e-07
-1.5913083e-08
5.952975e-07
-1.7806576e-08
5.987954e-07
-1.977964e-08
6.0312948e-07
-2.1890293e-08
6.0869688e-07
-2.4360265e-08
6.1699211e-07
-2.7081714e-08
6.3076448e-07
-2.7468358e-08
6.4335221e-07
-2.0378916e-08
6.1085845e-07
-6.6257107e-09
4.5528162e-07
1.5968643e-07
4.0372494e-09
1.2575797e-07
1.7479529e-08
3.9740409e-07
2.7904655e-08
5.9123128e-07
2.9639436e-08
6.5447596e-07
2.7137309e-08
6.4635657e-07
2.4470571e-08
6.281036e-07
2.2311229e-08
6.1664986e-07
2.0359421e-08
6.0961318e-07
1.8480526e-08
6.0436332e-07
1.6661927e-08
6.001335e-07
1.4905355e-08
5.9669503e-07
1.320894e-08
5.9389333e-07
1.1569013e-08
5.9160695e-07
9.9809484e-09
5.8974468e-07
8.4393052e-09
5.882382e-07
6.9379763e-09
5.870359e-07
5.4703528e-09
5.8609882e-07
4.0294679e-09
5.8539797e-07
2.608114e-09
5.8491244e-07
1.1989364e-09
5.846282e-07
-2.0549143e-10
5.845373e-07
-1.6126045e-09
5.8463745e-07
-3.0297866e-09
5.8493195e-07
-4.464303e-09
5.8542982e-07
-5.9232217e-09
5.8614628e-07
-7.4133112e-09
5.8710368e-07
-8.9409133e-09
5.8833282e-07
-1.0511789e-08
5.8987497e-07
-1.2130941e-08
5.9178493e-07
-1.3802445e-08
5.9413559e-07
-1.5529008e-08
5.9702406e-07
-1.7310775e-08
6.0057716e-07
-1.915242e-08
6.0497113e-07
-2.1122349e-08
6.1066681e-07
-2.3421111e-08
6.1929087e-07
-2.5766541e-08
6.3310991e-07
-2.5461321e-08
6.4304699e-07
-1.809006e-08
6.0348719e-07
-5.4411052e-09
4.4263267e-07
1.5424532e-07
3.4338724e-09
1.2232426e-07
1.557518e-08
3.8526313e-07
2.5874651e-08
5.8093207e-07
2.8274746e-08
6.5207593e-07
2.6229186e-08
6.484021e-07
2.3728169e-08
6.306046e-07
2.1677781e-08
6.1870025e-07
1.9842152e-08
6.1144881e-07
1.8072016e-08
6.0613345e-07
1.634672e-08
6.018588e-07
1.4668187e-08
5.9837356e-07
1.3035996e-08
5.9552552e-07
1.1447978e-08
5.9319496e-07
9.9010899e-09
5.9129157e-07
8.391503e-09
5.8974779e-07
6.914701e-09
5.885127e-07
5.4656094e-09
5.8754792e-07
4.03873e-09
5.8682485e-07
2.6282625e-09
5.8632291e-07
1.2282116e-09
5.8602825e-07
-1.6751835e-10
5.8593303e-07
-1.5650373e-09
5.8603497e-07
-2.9703857e-09
5.863373e-07
-4.3894447e-09
5.8684888e-07
-5.8278368e-09
5.8758467e-07
-7.2908093e-09
5.8856665e-07
-8.7831013e-09
5.8982511e-07
-1.0308798e-08
5.9140067e-07
-1.1871183e-08
5.9334732e-07
-1.3472598e-08
5.95737e-07
-1.5114013e-08
5.9866548e-07
-1.6794341e-08
6.0225749e-07
-1.8521187e-08
6.0669798e-07
-2.0372141e-08
6.1251776e-07
-2.2516865e-08
6.2143559e-07
-2.4512607e-08
6.3510565e-07
-2.3628902e-08
6.4216329e-07
-1.6136606e-08
5.9599489e-07
-4.5334275e-09
4.3102949e-07
1.4971189e-07
2.9937899e-09
1.1933066e-07
1.398494e-08
3.7427238e-07
2.4057061e-08
5.7086027e-07
2.6994258e-08
6.4913883e-07
2.5371797e-08
6.5002455e-07
2.302648e-08
6.329499e-07
2.1064908e-08
6.2066182e-07
1.9325816e-08
6.131879e-07
1.7650577e-08
6.0780869e-07
1.600944e-08
6.0349994e-07
1.4403314e-08
5.9997969e-07
1.283254e-08
5.9709629e-07
1.1295891e-08
5.9473161e-07
9.7914115e-09
5.9279605e-07
8.3164736e-09
5.9122272e-07
6.867811e-09
5.8996136e-07
5.4416077e-09
5.8897412e-07
4.0336105e-09
5.8823285e-07
2.6392428e-09
5.8771727e-07
1.253713e-09
5.8741378e-07
-1.2788376e-10
5.8731463e-07
-1.5104679e-09
5.8741756e-07
-2.89888e-09
5.8772571e-07
-4.2977793e-09
5.8824778e-07
-5.7115369e-09
5.8899843e-07
-7.1441175e-09
5.8999924e-07
-8.598954e-09
5.9127995e-07
-1.0078822e-08
5.9288054e-07
-1.1585735e-08
5.9485423e-07
-1.312084e-08
5.972721e-07
-1.4684019e-08
6.0022865e-07
-1.6273925e-08
6.038474e-07
-1.790228e-08
6.0832633e-07
-1.9653733e-08
6.1426921e-07
-2.1659361e-08
6.2344122e-07
-2.3333373e-08
6.3677967e-07
-2.1972253e-08
6.4080217e-07
-1.4477503e-08
5.8850014e-07
-3.8427784e-09
4.2039476e-07
1.4586912e-07
2.6681633e-09
1.1666272e-07
1.264906e-08
3.6429197e-07
2.2429125e-08
5.6108061e-07
2.5796592e-08
6.457715e-07
2.456472e-08
6.512564e-07
2.2368186e-08
6.351464e-07
2.0479996e-08
6.2255e-07
1.8820365e-08
6.1484753e-07
1.7227131e-08
6.0940192e-07
1.5661165e-08
6.050659e-07
1.4121427e-08
6.0151942e-07
1.2608487e-08
5.9860923e-07
1.1121647e-08
5.9621845e-07
9.6596517e-09
5.9425804e-07
8.2207321e-09
5.9266164e-07
6.8025768e-09
5.9137952e-07
5.4023782e-09
5.9037432e-07
4.0169156e-09
5.8961831e-07
2.6426534e-09
5.8909153e-07
1.2758417e-09
5.8878059e-07
-8.7382716e-11
5.8867785e-07
-1.4508972e-09
5.8878107e-07
-2.8184952e-09
5.8909331e-07
-4.1937826e-09
5.8962306e-07
-5.5800722e-09
5.9038472e-07
-6.980274e-09
5.9139944e-07
-8.3967851e-09
5.9269646e-07
-9.8313947e-09
5.9431515e-07
-1.128522e-08
5.9630806e-07
-1.2758645e-08
5.9874553e-07
-1.4250988e-08
6.01721e-07
-1.5761418e-08
6.0535783e-07
-1.7306433e-08
6.0987135e-07
-1.8975027e-08
6.159378e-07
-2.0854059e-08
6.2532025e-07
-2.2233946e-08
6.3815955e-07
-2.0482653e-08
6.3905088e-07
-1.3070235e-08
5.8108772e-07
-3.3187518e-09
4.1064328e-07
1.4255036e-07
2.4212514e-09
1.1424174e-07
1.1517618e-08
3.5519617e-07
2.0967275e-08
5.5163144e-07
2.467674e-08
6.4206223e-07
2.3804755e-08
6.5212838e-07
2.175255e-08
6.3719858e-07
1.9926547e-08
6.2437599e-07
1.8332053e-08
6.1644203e-07
1.6809264e-08
6.1092471e-07
1.531005e-08
6.0656512e-07
1.3830718e-08
6.0299876e-07
1.2371676e-08
6.0006827e-07
1.0932455e-08
5.9765767e-07
9.5122093e-09
5.9567829e-07
8.1097545e-09
5.940641e-07
6.7234877e-09
5.9276578e-07
5.3513906e-09
5.9174641e-07
3.991081e-09
5.9097862e-07
2.6398909e-09
5.9044272e-07
1.2949541e-09
5.9012552e-07
-4.6701641e-11
5.9001951e-07
-1.3880568e-09
5.9012243e-07
-2.7320123e-09
5.9043727e-07
-4.0812843e-09
5.9097233e-07
-5.4383112e-09
5.9174175e-07
-6.8051563e-09
5.9276628e-07
-8.1834194e-09
5.9407472e-07
-9.5741745e-09
5.957059e-07
-1.0977949e-08
5.9771183e-07
-1.2394697e-08
6.0016228e-07
-1.3823572e-08
6.0314987e-07
-1.5264856e-08
6.0679911e-07
-1.6740027e-08
6.1134652e-07
-1.83394e-08
6.1753718e-07
-2.0101926e-08
6.2708278e-07
-2.1213752e-08
6.3927138e-07
-1.9146038e-08
6.3698316e-07
-1.1874627e-08
5.7381631e-07
-2.9203408e-09
4.0168899e-07
1.3963002e-07
2.2276736e-09
1.1201437e-07
1.0550151e-08
3.4687436e-07
1.9649431e-08
5.4253276e-07
2.3628117e-08
6.3808379e-07
2.3087391e-08
6.5266911e-07
2.1176836e-08
6.3910909e-07
1.940543e-08
6.2614738e-07
1.7864424e-08
6.1798303e-07
1.6402003e-08
6.1238714e-07
1.4961909e-08
6.0800521e-07
1.3537317e-08
6.0442335e-07
1.2128175e-08
6.0147742e-07
1.0734042e-08
5.9905181e-07
9.3542735e-09
5.9705806e-07
7.9880557e-09
5.9543031e-07
6.6342947e-09
5.9411954e-07
5.2915746e-09
5.9308913e-07
3.9581809e-09
5.9231201e-07
2.6321542e-09
5.9176875e-07
1.3113639e-09
5.9144631e-07
-6.4128255e-12
5.9133728e-07
-1.3234094e-09
5.9143942e-07
-2.6417726e-09
5.9175563e-07
-3.9634858e-09
5.9229405e-07
-5.2902807e-09
5.9306854e-07
-6.6235579e-09
5.9409956e-07
-7.9643231e-09
5.9541549e-07
-9.3131574e-09
5.9705474e-07
-1.0670236e-08
5.9906891e-07
-1.2035329e-08
6.0152737e-07
-1.340773e-08
6.0452227e-07
-1.4789251e-08
6.0818063e-07
-1.6206188e-08
6.1276346e-07
-1.7747089e-08
6.1907808e-07
-1.9401017e-08
6.2873671e-07
-2.026873e-08
6.4013909e-07
-1.7946138e-08
6.3466057e-07
-1.0854793e-08
5.6672496e-07
-2.6150907e-09
3.9344929e-07
1.3701493e-07
2.0699438e-09
1.0994479e-07
9.7145422e-09
3.3923054e-07
1.8456037e-08
5.3379197e-07
2.2643843e-08
6.338963e-07
2.2407788e-08
6.5290518e-07
2.063734e-08
6.408795e-07
1.8915842e-08
6.2786886e-07
1.7419115e-08
6.1947976e-07
1.6008459e-08
6.1379779e-07
1.4620732e-08
6.0939294e-07
1.3245678e-08
6.057984e-07
1.1882572e-08
6.0284052e-07
1.0530866e-08
6.0040351e-07
9.1899719e-09
5.9839895e-07
7.8592895e-09
5.96761e-07
6.5380746e-09
5.9544076e-07
5.2253602e-09
5.9440185e-07
3.9199514e-09
5.9361742e-07
2.620457e-09
5.9306825e-07
1.3253449e-09
5.9274143e-07
3.3008505e-11
5.9262962e-07
-1.2581609e-09
5.9273059e-07
-2.5497007e-09
5.9304717e-07
-3.8430004e-09
5.9358735e-07
-5.1392326e-09
5.9436477e-07
-6.4392931e-09
5.9539962e-07
-7.7437612e-09
5.9671995e-07
-9.052901e-09
5.9836387e-07
-1.0366712e-08
6.0038272e-07
-1.1684961e-08
6.0284562e-07
-1.3007291e-08
6.058446e-07
-1.4337329e-08
6.0951067e-07
-1.5705732e-08
6.1413186e-07
-1.7196305e-08
6.2056865e-07
-1.874769e-08
6.3028809e-07
-1.939294e-08
6.4078434e-07
-1.6866416e-08
6.3213404e-07
-9.9796551e-09
5.598382e-07
-2.3778875e-09
3.8584752e-07
1.3463704e-07
1.9363899e-09
1.0800881e-07
8.985661e-09
3.3218217e-07
1.737036e-08
5.2540812e-07
2.1717443e-08
6.2954962e-07
2.1761339e-08
6.5286133e-07
2.0130054e-08
6.4251073e-07
1.8456017e-08
6.2954287e-07
1.6996483e-08
6.2093929e-07
1.5630365e-08
6.1516391e-07
1.4289124e-08
6.1073418e-07
1.2958941e-08
6.0712859e-07
1.1638253e-08
6.0416121e-07
1.0326324e-08
6.0171544e-07
9.0225249e-09
5.9970275e-07
7.7263588e-09
5.9805716e-07
6.4373078e-09
5.9672981e-07
5.154729e-09
5.9568443e-07
3.8778229e-09
5.9489433e-07
2.6056449e-09
5.9434042e-07
1.3371418e-09
5.9400993e-07
7.120513e-11
5.9389556e-07
-1.1932743e-09
5.9399507e-07
-2.4573388e-09
5.9431123e-07
-3.7219092e-09
5.9485192e-07
-4.9877275e-09
5.9563059e-07
-6.2553168e-09
5.9666721e-07
-7.5249653e-09
5.979896e-07
-8.7967542e-09
5.9963566e-07
-1.0070636e-08
6.016566e-07
-1.1346491e-08
6.0412147e-07
-1.2624467e-08
6.0712258e-07
-1.3910157e-08
6.1079636e-07
-1.523792e-08
6.1545962e-07
-1.6684068e-08
6.220148e-07
-1.8137474e-08
6.317415e-07
-1.8579676e-08
6.4122654e-07
-1.5891255e-08
6.2944562e-07
-9.2230726e-09
5.5317002e-07
-2.1897573e-09
3.7881421e-07
1.3244729e-07
1.8194695e-09
1.0618982e-07
8.3440116e-09
3.2565868e-07
1.6378369e-08
5.1737477e-07
2.0843178e-08
6.2508532e-07
2.1143964e-08
6.5256062e-07
1.9651068e-08
6.4400358e-07
1.8023699e-08
6.3117021e-07
1.6596065e-08
6.2236692e-07
1.5268486e-08
6.1649149e-07
1.3968666e-08
6.12034e-07
1.2679227e-08
6.0841802e-07
1.1397645e-08
6.0544279e-07
1.0122941e-08
6.0299014e-07
8.8543933e-09
6.009713e-07
7.5915265e-09
5.9932003e-07
6.3339581e-09
5.9798738e-07
5.0812702e-09
5.9693711e-07
3.8329566e-09
5.9614264e-07
2.5884154e-09
5.9558496e-07
1.3469688e-09
5.9525137e-07
1.0790102e-10
5.9513462e-07
-1.1294997e-09
5.9523247e-07
-2.3658888e-09
5.9554762e-07
-3.6018241e-09
5.9608785e-07
-4.8377247e-09
5.9686649e-07
-6.0738492e-09
5.9790333e-07
-7.3103001e-09
5.9922605e-07
-8.5470757e-09
6.0087244e-07
-9.7841684e-09
6.0289369e-07
-1.1021649e-08
6.0535895e-07
-1.226027e-08
6.083612e-07
-1.3507646e-08
6.1204373e-07
-1.480103e-08
6.1675301e-07
-1.6206805e-08
6.2342057e-07
-1.7565656e-08
6.3310035e-07
-1.7822198e-08
6.4148309e-07
-1.5006589e-08
6.2663001e-07
-8.5635129e-09
5.4672695e-07
-2.0366995e-09
3.7228739e-07
1.3041059e-07
1.714461e-09
1.0447591e-07
7.7745088e-09
3.1959985e-07
1.5468419e-08
5.0968205e-07
2.0016139e-08
6.2053822e-07
2.0552207e-08
6.5202467e-07
1.9196792e-08
6.4535894e-07
1.7616456e-08
6.3275051e-07
1.6216902e-08
6.2376646e-07
1.4922929e-08
6.1778546e-07
1.3660199e-08
6.1329673e-07
1.240789e-08
6.0967033e-07
1.1162423e-08
6.0668826e-07
9.9225473e-09
6.0423002e-07
8.6874145e-09
6.0220643e-07
7.4565213e-09
6.0055092e-07
6.2295521e-09
5.9921435e-07
5.0062372e-09
5.9816043e-07
3.786281e-09
5.973626e-07
2.5693378e-09
5.9680191e-07
1.3550171e-09
5.964657e-07
1.4290632e-10
5.9634673e-07
-1.0673986e-09
5.9644278e-07
-2.2762569e-09
5.9675648e-07
-3.4839533e-09
5.9729555e-07
-4.6906731e-09
5.9807321e-07
-5.8964962e-09
5.9910915e-07
-7.1014202e-09
6.0043098e-07
-8.3054312e-09
6.0207645e-07
-9.5086174e-09
6.0409688e-07
-1.0711287e-08
6.0656162e-07
-1.1914857e-08
6.0956477e-07
-1.3128939e-08
6.1325781e-07
-1.4392788e-08
6.1801685e-07
-1.5760761e-08
6.2478855e-07
-1.7027667e-08
6.3436725e-07
-1.7114177e-08
6.4156959e-07
-1.4200135e-08
6.2371597e-07
-7.9835162e-09
5.4051033e-07
-1.9086112e-09
3.6621249e-07
1.2850198e-07
1.6184924e-09
1.0285805e-07
7.2654441e-09
3.1395431e-07
1.463087e-08
5.0231801e-07
1.9232197e-08
6.1593767e-07
1.9983239e-08
6.512738e-07
1.876405e-08
6.4657807e-07
1.7231869e-08
6.3428264e-07
1.585776e-08
6.2514056e-07
1.459337e-08
6.1904985e-07
1.3364036e-08
6.1452606e-07
1.214571e-08
6.1088866e-07
1.0933686e-08
6.0790028e-07
9.726419e-09
6.0543729e-07
8.5229228e-09
6.0340993e-07
7.3226328e-09
6.0175121e-07
6.1252525e-09
6.0041173e-07
4.9306015e-09
5.9935508e-07
3.7385283e-09
5.9855467e-07
2.5488734e-09
5.9799156e-07
1.3614595e-09
5.9765311e-07
1.761025e-10
5.9753209e-07
-1.0073704e-09
5.9762625e-07
-2.1890979e-09
5.9793821e-07
-3.3691658e-09
5.9847562e-07
-4.5475974e-09
5.9925164e-07
-5.7243613e-09
6.0028592e-07
-6.89941e-09
6.0160603e-07
-8.0727655e-09
6.032498e-07
-9.2446443e-09
6.0526876e-07
-1.0415615e-08
6.0773259e-07
-1.1587798e-08
6.1073695e-07
-1.2772705e-08
6.1444272e-07
-1.4010659e-08
6.1925481e-07
-1.5342265e-08
6.2612015e-07
-1.6519303e-08
6.3554429e-07
-1.6449918e-08
6.4150021e-07
-1.34614e-08
6.2072745e-07
-7.4690819e-09
5.3451801e-07
-1.7983567e-09
3.6054176e-07
1.2670362e-07
1.5298533e-09
1.0132893e-07
6.8076531e-09
3.0867813e-07
1.3857699e-08
4.9526959e-07
1.8487901e-08
6.113084e-07
1.9434785e-08
6.5032715e-07
1.8350105e-08
6.476627e-07
1.6867645e-08
6.3576505e-07
1.5517282e-08
6.2649091e-07
1.427921e-08
6.2028793e-07
1.3080127e-08
6.1572515e-07
1.189305e-08
6.1207573e-07
1.0712093e-08