/*--------------------------------*- C++ -*----------------------------------*\
  =========                 |
  \\      /  F ield         | OpenFOAM: The Open Source CFD Toolbox
   \\    /   O peration     | Website:  https://openfoam.org
    \\  /    A nd           | Version:  10
     \\/     M anipulation  |
\*---------------------------------------------------------------------------*/
FoamFile
{
    format      ascii;
    class       volScalarField;
    location    "0.21";
    object      TporMedia;
}
// * * * * * * * * * * * * * * * * * * * * * * * * * * * * * * * * * * * * * //

dimensions      [0 0 0 1 0 0 0];

internalField   nonuniform List<scalar> 
4000
(
-0.00035604136
0.00011264043
0.00040256329
0.00049270192
0.00045098818
0.00042531747
0.00048750597
0.00045780075
0.0004840916
0.00062630672
0.00041922233
0.00045753965
0.00041000788
0.0006702385
0.00056318527
0.00043027915
0.00044527929
0.00069120882
0.00049760061
0.00040625486
0.00054232965
0.00047995765
0.00062927289
0.0004406543
0.00046673348
0.00043378882
0.00045193851
0.00047203705
0.00037565722
0.00044436403
0.00050848725
0.00052817565
0.00044690171
0.00043218431
0.00043705087
0.00046769106
0.00043796244
0.00072842057
0.00075395028
0.00054420049
-3.3696639e-05
8.2919857e-12
7.7255976e-11
1.1963526e-09
3.4362738e-10
3.399919e-10
3.5529059e-10
2.7992978e-10
4.2751648e-10
3.5528681e-10
2.6347469e-10
3.718099e-10
2.2298819e-10
1.1791652e-09
3.14585e-10
3.8211707e-10
3.1939414e-10
3.7920293e-10
5.1763603e-10
3.4891517e-10
4.7847078e-10
3.9648575e-10
3.8230688e-10
4.1455929e-10
4.0833717e-10
4.0431291e-10
2.9642479e-10
2.7868199e-10
3.7621793e-10
4.2243986e-10
3.9620655e-10
5.9814934e-10
2.3608359e-10
2.579698e-10
3.5680328e-10
2.4921981e-10
3.4457847e-10
4.6946797e-10
4.3072122e-10
3.5341826e-10
-1.3329432e-05
-3.6261654e-12
6.067842e-18
5.7797701e-16
2.4844739e-16
2.8619489e-16
2.4700772e-16
2.4038324e-16
4.5398439e-16
7.8241917e-16
2.8409289e-16
3.1589629e-16
2.5201637e-16
8.9276439e-16
2.3887524e-16
3.0547864e-16
4.3045897e-16
3.9208481e-16
5.6216264e-16
2.4484468e-16
4.2550849e-16
2.5729337e-16
3.821449e-16
2.3199176e-16
2.651342e-16
3.2230317e-16
2.8870497e-16
2.00276e-16
3.3526248e-16
5.3103798e-16
3.2648872e-16
4.8899857e-16
1.8593654e-16
2.5939579e-16
2.8713866e-16
1.7001349e-16
2.5915313e-16
3.7098808e-16
3.8023241e-16
2.0434676e-16
-7.2248213e-06
3.2165301e-13
1.3690052e-20
1.0513299e-22
1.7451625e-21
2.5814335e-22
2.5235302e-22
2.3086413e-22
3.6565424e-22
4.5762552e-22
2.2682533e-22
3.6265266e-22
1.3766197e-22
1.0909069e-21
1.698608e-22
2.4959721e-22
8.5335305e-22
3.106373e-22
4.0687213e-22
3.8035647e-22
2.6888004e-22
1.8526771e-22
2.7224442e-22
1.5265037e-22
2.6797259e-22
2.7498933e-22
2.2701601e-22
1.6849812e-22
3.8860004e-22
2.9426701e-22
2.1225971e-22
5.0341489e-22
1.8088044e-22
2.5917691e-22
1.5082914e-22
1.5348251e-22
4.1641912e-22
2.5416481e-22
2.9216773e-22
1.6486713e-22
-4.5912478e-06
6.0846825e-14
2.0740268e-21
1.4540477e-28
1.1166591e-27
3.9017916e-28
2.489318e-28
1.8513624e-28
4.2292662e-28
8.5374182e-28
1.220308e-28
3.0781262e-28
1.1684334e-28
1.7412306e-27
1.1252612e-28
1.7194341e-28
5.5036411e-28
2.6415144e-28
4.1859604e-28
2.2870488e-28
2.3534541e-28
1.2710389e-28
1.8466371e-28
1.3157089e-28
1.9682269e-28
2.7327929e-28
1.4368377e-28
1.5654455e-28
3.5989708e-28
2.3512942e-28
1.297323e-28
4.0241965e-28
1.9763186e-28
2.3829558e-28
1.4721998e-28
2.0721265e-28
3.3667847e-28
1.3421498e-28
2.9543611e-28
1.3480599e-28
-3.2304477e-06
2.0462805e-14
8.5905758e-22
2.9650534e-29
3.1904546e-34
1.5364282e-33
2.2512128e-34
1.0929303e-34
3.7898105e-34
1.0504042e-33
1.3169663e-34
3.1995774e-34
1.4047931e-34
1.0507746e-33
1.0964421e-34
1.6166077e-34
4.0496195e-34
2.155988e-34
3.0841803e-34
2.039911e-34
4.9286508e-34
8.5643133e-35
1.3499377e-34
1.0155256e-34
1.8951433e-34
2.0556174e-34
1.6722659e-34
9.9783479e-35
4.4040003e-34
1.456665e-34
1.6604796e-34
3.1328224e-34
1.3262524e-34
1.993683e-34
1.3332806e-34
2.181687e-34
1.9123669e-34
7.538751e-35
2.4287195e-34
1.185545e-34
-2.4493731e-06
9.0570396e-15
-6.5738236e-21
-1.4084733e-28
-1.5705659e-35
-1.7165792e-37
2.8992754e-40
7.3251259e-41
4.4751278e-40
8.9080594e-40
1.031804e-40
2.9859654e-40
8.7965452e-41
1.0623354e-39
8.7637048e-41
9.4746835e-41
5.0325206e-40
1.9330122e-40
3.6399877e-40
1.398065e-40
3.8353227e-40
7.431764e-41
2.3566497e-40
8.1142781e-41
1.7086342e-40
2.0231211e-40
1.2729175e-40
8.1679846e-41
7.1153947e-40
8.5879817e-41
1.8931197e-40
2.4681594e-40
9.4032699e-41
1.8264062e-40
1.3627626e-40
2.1259752e-40
2.1126218e-40
6.7666227e-41
1.8872202e-40
8.7538767e-41
-1.9584523e-06
4.7323262e-15
-8.92361e-23
-1.3930338e-30
-6.8951279e-38
7.7751132e-43
5.0669267e-46
1.0014904e-46
3.3147501e-46
1.0492923e-45
6.7215893e-47
3.1679756e-46
6.5225488e-47
1.1937853e-45
4.661715e-47
6.328771e-47
5.545101e-46
1.1941481e-46
2.8696792e-46
2.144307e-46
3.038367e-46
5.5394522e-47
1.8577472e-46
1.2105641e-46
1.5228162e-46
2.6623008e-46
9.6050493e-47
6.4795032e-47
7.2940196e-46
5.1058603e-47
1.7387085e-46
2.8762928e-46
6.9858625e-47
1.3988319e-46
9.5602117e-47
1.6632449e-46
1.5295181e-46
3.8122826e-47
1.508974e-46
6.6048412e-47
-1.620481e-06
2.7563244e-15
-1.995801e-23
-2.5560447e-31
-7.0283093e-39
-3.277851e-45
2.4056927e-50
7.5308286e-53
3.1445966e-52
8.1587258e-52
6.6665918e-53
6.0967686e-52
5.1727606e-53
9.1023105e-52
4.0524513e-53
1.2880015e-52
3.7360372e-52
1.0747449e-52
2.9979893e-52
1.9084434e-52
2.800593e-52
4.9480379e-53
1.5723679e-52
7.9244365e-53
1.2418012e-52
1.9854397e-52
1.1026785e-52
5.1934402e-53
5.293024e-52
3.8076465e-53
1.0149846e-52
2.1298607e-52
5.0223948e-53
1.1579151e-52
7.0074265e-53
1.1918458e-52
1.2941067e-52
5.6797549e-53
1.1918181e-52
6.8233746e-53
-1.3684318e-06
1.7241819e-15
-6.6094956e-24
-7.9982541e-32
-1.3717948e-39
-2.2288986e-46
3.1259554e-52
6.041802e-58
2.8042492e-58
8.7086063e-58
4.6121989e-59
6.065985e-58
4.8309421e-59
4.9564973e-58
3.2672606e-59
9.8582422e-59
6.1373602e-58
6.7652197e-59
1.6231982e-58
2.0637794e-58
1.905125e-58
3.156881e-59
1.1841638e-58
6.4824356e-59
9.621462e-59
2.2807063e-58
1.0790451e-58
3.7408032e-59
3.8327808e-58
2.3494478e-59
6.4111813e-59
1.6997697e-58
3.9577922e-59
1.0151045e-58
4.8474032e-59
6.3393543e-59
1.4163616e-58
3.4318033e-59
1.0061839e-58
4.2421805e-59
-1.1640938e-06
1.1262404e-15
-2.6414709e-24
-3.7205592e-32
-4.3687409e-40
-3.146727e-47
1.9455733e-53
6.7965338e-59
4.9071585e-64
5.0093238e-64
4.6900323e-65
6.7403725e-64
4.1759079e-65
3.5930234e-64
1.8582893e-65
8.2515002e-65
6.4205337e-64
4.7664307e-65
1.8555308e-64
1.5895842e-64
1.7917623e-64
2.5065005e-65
1.2920184e-64
6.1805952e-65
7.0698083e-65
1.2558169e-64
8.3182142e-65
2.8369492e-65
2.8605041e-64
1.7403978e-65
5.5560951e-65
1.5574913e-64
2.2206726e-65
1.1728374e-64
4.4229499e-65
4.383851e-65
1.4755892e-64
3.0257284e-65
8.4794398e-65
2.6314905e-65
-9.9029549e-07
7.5531603e-16
-1.1786409e-24
-3.0737365e-32
-2.6529128e-40
-9.9724064e-48
6.4724368e-54
-1.8592074e-59
-1.7793159e-65
5.1639844e-70
4.7199036e-71
9.9944766e-70
2.3573676e-71
2.6144191e-70
1.7562762e-71
5.2641244e-71
5.2094572e-70
5.0449381e-71
1.9017204e-70
1.5054233e-70
1.3944655e-70
1.7501635e-71
1.1251834e-70
7.3932861e-71
3.7967953e-71
1.536873e-70
4.8841205e-71
3.1915037e-71
1.9962648e-70
1.7081802e-71
7.6505643e-71
1.4290376e-70
1.9348268e-71
8.2231266e-71
4.6544871e-71
3.9327147e-71
1.1629179e-70
2.8245291e-71
4.6357664e-71
3.0140125e-71
-8.3828307e-07
5.1398063e-16
-5.6548171e-25
2.546916e-32
1.7289836e-40
3.8897446e-48
1.4939188e-53
-1.0546866e-59
-1.3821992e-65
-1.3041555e-71
2.5940646e-77
9.2903777e-76
1.6527408e-77
2.2167019e-76
1.4847356e-77
4.5360093e-77
3.3339995e-76
3.3956279e-77
1.6446168e-76
2.228778e-76
9.528306e-77
1.3031874e-77
7.5143948e-77
4.9242364e-77
2.6057298e-77
1.2285109e-76
4.4422128e-77
2.7566854e-77
2.3689992e-76
9.7529181e-78
6.5988421e-77
1.1655791e-76
1.4112638e-77
4.8374762e-77
2.4583064e-77
2.6115063e-77
7.6593714e-77
2.071483e-77
2.985035e-77
2.8729718e-77
-7.0710186e-07
3.5328693e-16
-2.8545002e-25
2.4304361e-33
1.3609508e-41
1.9906435e-49
6.1607049e-56
-2.7646367e-62
-2.0387899e-67
-2.3775973e-73
-1.5596382e-79
6.6674331e-82
1.4205042e-83
3.0165805e-82
1.5793772e-83
2.7327249e-83
1.8357988e-82
2.2718195e-83
8.6429619e-83
1.9846148e-82
2.4260021e-82
1.4316091e-83
4.6262711e-83
3.0400005e-83
1.8232074e-83
1.2425666e-82
4.7003469e-83
2.2885667e-83
1.4353828e-82
6.2210792e-84
6.1888042e-83
8.6626383e-83
8.6564866e-84
4.8899212e-83
1.2847726e-83
1.7886271e-83
7.6328425e-83
1.4987594e-83
2.0261233e-83
2.9516689e-83
-5.9500374e-07
2.4481386e-16
-1.4963634e-25
5.8526169e-34
2.8743573e-42
2.9034631e-50
3.3313782e-57
-1.0545791e-63
-2.287438e-69
-1.7018791e-75
-1.1163654e-81
-5.9264289e-88
9.6060358e-90
1.9839648e-88
1.4362839e-89
1.5829798e-89
2.3699497e-88
1.7585605e-89
5.9031883e-89
2.5108056e-88
1.5316062e-88
1.0680473e-89
3.8843893e-89
2.2237713e-89
1.2966675e-89
9.2650257e-89
3.3874768e-89
1.468855e-89
1.3112091e-88
3.3580952e-90
3.9818495e-89
5.721549e-89
9.8741384e-90
2.2594856e-89
9.5220171e-90
1.0095668e-89
4.327504e-89
8.9216539e-90
8.0209634e-90
2.3586676e-89
-5.0050649e-07
1.7102435e-16
-8.0997744e-26
1.8178376e-34
8.2581366e-43
6.1104612e-51
3.353528e-58
-9.726231e-65
2.110174e-70
1.838169e-76
2.7519743e-82
2.8214642e-88
2.083032e-94
2.5353221e-94
1.0052377e-95
1.6490833e-95
1.3748082e-94
1.3773559e-95
5.7300672e-95
2.3559974e-94
1.1572381e-94
8.892601e-96
3.5954463e-95
1.1865326e-95
1.3545432e-95
5.0206919e-95
3.3547532e-95
1.161185e-95
8.184911e-95
2.1521537e-96
2.8771542e-95
2.6311954e-95
8.4185031e-96
1.6755815e-95
5.2939506e-96
9.2406007e-96
2.638643e-95
5.1957467e-96
7.1727597e-96
2.1860586e-95
-4.2185171e-07
1.2047135e-16
-4.5029301e-26
6.4824038e-35
2.9145681e-43
1.6172804e-51
5.1230866e-59
-1.0821743e-65
7.3903082e-72
5.0994236e-78
2.8969993e-84
3.8192658e-90
3.0587301e-96
1.7215235e-100
7.7453533e-102
1.0137407e-101
7.9480804e-101
2.1143145e-101
4.1481727e-101
2.0588194e-100
6.65476e-101
4.7805791e-102
2.5496594e-101
6.86076e-102
9.9585383e-102
5.1267581e-101
2.229146e-101
9.1552477e-102
5.745964e-101
1.3294211e-102
2.1728703e-101
2.5611772e-101
5.0273476e-102
8.6270602e-102
5.0827084e-102
5.8403596e-102
1.983712e-101
2.7424221e-102
4.8883512e-102
1.4819729e-101
-3.5690197e-07
8.5693609e-17
-2.5650259e-26
2.5256672e-35
1.2335411e-43
5.3774125e-52
1.0576717e-59
-3.1071885e-66
1.2943089e-72
1.2250143e-78
8.2604439e-85
7.7086262e-91
4.9198485e-97
3.7742244e-103
5.953648e-108
9.204397e-108
4.3128604e-107
1.8559103e-107
4.2783973e-107
2.2323772e-106
3.6882057e-107
3.4757173e-108
1.6533525e-107
5.6710809e-108
6.1077212e-108
3.1465365e-107
1.6618999e-107
8.1352048e-108
3.7035072e-107
8.5151504e-109
1.2425401e-107
1.5278477e-107
4.9276122e-108
1.0139653e-107
2.7198532e-108
2.9782321e-108
1.2408424e-107
2.212343e-108
4.0447567e-108
1.217726e-107
-3.0332441e-07
6.1514868e-17
-1.4932014e-26
1.0523539e-35
6.5970707e-44
2.3316653e-52
3.0744647e-60
-3.033089e-66
8.0193647e-73
1.2272929e-78
9.8816587e-85
1.9206365e-90
1.1363229e-96
1.2467184e-102
5.9254618e-109
8.1920468e-114
2.7766969e-113
1.237576e-113
4.3750815e-113
1.6660101e-112
2.7988576e-113
3.3966324e-114
1.6443486e-113
3.1890818e-114
5.1027579e-114
1.749723e-113
1.4596796e-113
4.3097441e-114
4.4130964e-113
5.8044211e-115
7.4252709e-114
1.2117877e-113
3.4036581e-114
8.2512293e-114
1.1851745e-114
2.5972817e-114
8.404979e-114
1.2198868e-114
4.2980849e-114
7.9087887e-114
-2.5881405e-07
4.4532067e-17
-8.855637e-27
4.6164059e-36
5.7782858e-44
1.6980611e-52
1.5822614e-60
4.8699526e-67
-1.0542405e-73
-2.7755503e-78
-2.2150867e-84
-1.5150989e-90
-1.253443e-96
-8.7629651e-103
-5.9960229e-109
-4.687898e-115
3.4888712e-119
9.6934758e-120
2.6359202e-119
1.0922306e-118
2.2769304e-119
2.7679131e-120
1.2326059e-119
2.630926e-120
3.2916745e-120
9.4136943e-120
9.4115647e-120
3.8104656e-120
2.3465422e-119
5.8120374e-121
4.654431e-120
3.6328217e-119
2.6722387e-120
5.9694467e-120
1.1665136e-120
1.1940424e-120
6.3582705e-120
9.9422245e-121
2.6492518e-120
5.2966723e-120
-2.2168881e-07
3.2495484e-17
-5.3421423e-27
2.1131301e-36
-4.716227e-44
-1.1916687e-52
-8.0607903e-61
-8.0643037e-68
1.2904428e-74
-1.858885e-80
-2.0278634e-86
-2.9434532e-92
-2.079791e-98
-1.5330908e-104
-1.9200683e-110
-1.6479316e-116
-1.4497164e-122
7.3990573e-126
1.9625728e-125
8.8095538e-125
1.8942514e-125
1.5973814e-126
8.3226956e-126
2.5999857e-126
2.4168678e-126
7.3539685e-126
6.8117183e-126
3.039349e-126
1.7980007e-125
4.4983898e-127
4.5096829e-126
2.4564006e-125
1.5323298e-126
4.9081155e-126
6.6286478e-127
1.0880077e-126
8.0646257e-126
5.3739213e-127
3.7361985e-126
3.3510517e-126
-1.906068e-07
2.3888992e-17
-3.2719545e-27
1.0018878e-36
-4.5000526e-45
-9.9937489e-54
-5.1187618e-62
-2.5665667e-69
3.4359858e-76
-2.3647325e-82
-2.3441135e-88
-2.1522556e-94
-2.4040527e-100
-1.7760907e-106
-1.5256205e-112
-1.1456693e-118
-7.3862949e-125
-5.110792e-131
1.4686267e-131
6.1685756e-131
1.4868429e-131
1.7813017e-132
7.6273892e-132
1.4164479e-132
2.0295177e-132
5.7852892e-132
6.0997174e-132
3.2081189e-132
1.0856521e-131
3.5071084e-133
2.4239438e-132
1.535757e-131
9.123313e-133
4.0497733e-132
5.0265335e-133
6.1261859e-133
6.3123098e-132
5.7217014e-133
2.9780475e-132
2.0479277e-132
-1.6446694e-07
1.7686727e-17
-2.0315876e-27
4.8979186e-37
-1.0474283e-45
-2.1061073e-54
-8.3569314e-63
-2.3754162e-70
3.0281916e-77
-1.0903954e-83
-2.3078658e-89
-1.7670461e-95
-1.192658e-101
-1.4102043e-107
-1.284097e-113
-3.6017438e-119
-3.9494153e-125
-5.4806813e-131
-3.3716154e-137
6.9037686e-137
1.0242094e-137
1.4636349e-138
7.7640222e-138
1.3632519e-138
1.1723475e-138
4.6165863e-138
3.8578428e-138
2.2760934e-138
6.6191841e-138
3.1739269e-139
1.6364999e-138
1.7701396e-137
5.8713749e-139
2.7647491e-138
3.3593658e-139
4.9156367e-139
1.0162731e-137
3.6787055e-139
2.0348907e-138
1.6546621e-138
-1.4229476e-07
1.3172076e-17
-1.2765377e-27
2.4564459e-37
-3.0971761e-46
-5.8091005e-55
-1.8267822e-63
-3.3501862e-71
4.4655308e-78
-1.0633477e-84
-1.8926498e-90
-1.7389114e-96
-1.394239e-102
-1.0679112e-108
-8.7638967e-115
-7.4277633e-121
-8.0817649e-127
-6.0642938e-133
-9.9602507e-139
6.6718006e-143
9.0263923e-144
1.4211734e-144
6.1885791e-144
9.4914938e-145
9.2934886e-145
5.3744932e-144
2.4102202e-144
2.3287853e-144
3.7869188e-144
2.4446191e-145
8.9725048e-145
1.681636e-143
4.475561e-145
2.4715884e-144
2.1670862e-145
3.2243176e-145
8.188568e-144
2.4251195e-145
1.3433252e-144
2.7286852e-144
-1.2346635e-07
9.8682212e-18
-8.1127434e-28
1.2609228e-37
-1.0396699e-46
-1.8920503e-55
-4.8313019e-64
-6.0954767e-72
1.0031322e-78
-1.7898526e-85
-6.3565683e-91
-4.7051411e-97
-4.0564531e-103
-4.0995029e-109
-1.3235655e-114
-1.2517861e-120
-1.0283638e-126
-8.5519928e-133
-6.9934146e-139
-1.2273289e-144
4.5562405e-150
1.2947049e-150
3.8149379e-150
8.5039285e-151
6.6862712e-151
3.8251499e-150
3.0950205e-150
1.3529651e-150
3.0710237e-150
1.3643408e-151
5.8597768e-151
1.1470691e-149
3.2711975e-151
1.5115508e-150
2.9870317e-151
2.2847264e-151
6.6913533e-150
1.5319521e-151
9.1611568e-151
4.7440995e-150
-1.0736204e-07
7.4309195e-18
-5.2073368e-28
6.6052914e-38
-3.7864991e-47
-6.9734619e-56
-1.4704365e-64
-1.3058241e-72
4.3532116e-79
-6.3721077e-86
1.921621e-91
1.3902724e-97
2.6773233e-103
1.7647822e-109
1.9476752e-115
2.1215977e-121
1.6881938e-127
1.1979675e-133
1.0264375e-139
8.9424952e-146
6.7693569e-152
1.161914e-156
4.1419818e-156
7.0629354e-157
5.6143078e-157
3.2694693e-156
2.2760389e-156
8.5051066e-157
2.2097805e-156
1.3863257e-157
5.4366137e-157
6.06812e-156
2.1370544e-157
1.3877471e-156
1.429293e-157
1.9996746e-157
5.7622237e-156
1.5748763e-157
6.3453552e-157
5.8414092e-156
-9.3553973e-08
5.6219493e-18
-3.3734212e-28
3.5243795e-38
-1.4646051e-47
-2.9154809e-56
-5.1774763e-65
-3.3734759e-73
-1.3302491e-79
1.5959247e-86
-3.3204725e-92
-2.7784745e-98
-3.1510671e-104
-2.8902085e-110
-2.8048684e-116
-2.357536e-122
-4.5016427e-128
-5.3056614e-134
-6.230233e-140
-4.9300222e-146
-3.4029231e-152
-2.9967765e-158
3.9300511e-162
5.9024335e-163
4.2216591e-163
3.6272344e-162
1.3455242e-162
1.0290553e-162
1.7857047e-162
9.5556544e-164
3.1941152e-163
3.9633856e-162
1.6701929e-163
1.0750853e-162
1.3889358e-163
3.047352e-163
3.538071e-162
1.1106872e-163
4.8467108e-163
-2.191279e-161
-8.1674953e-08
4.2717845e-18
-2.2036103e-28
1.9110945e-38
-5.9348143e-48
-1.4111691e-56
-2.1471779e-65
-1.0571289e-73
-1.0347686e-80
1.0600902e-87
-5.4591742e-94
-9.3461091e-100
-6.8189423e-106
-6.6972397e-112
-5.7499616e-118
-4.9263295e-124
-3.7562893e-130
-3.2159751e-136
-2.8940907e-142
-3.3825312e-148
-6.6956199e-154
-3.8950805e-160
-3.4276626e-166
5.7948386e-169
3.9814638e-169
2.8707675e-168
9.2370846e-169
8.0571133e-169
1.9815802e-168
7.0402944e-170
2.0473692e-169
2.9129772e-168
1.703511e-169
1.111925e-168
1.030445e-169
2.8430387e-169
3.7381628e-168
8.1361712e-170
5.3038347e-169
-3.5889381e-166
-7.1416246e-08
3.2583219e-18
-1.4504719e-28
1.0518098e-38
-2.499487e-48
-8.85405e-57
-1.1740369e-65
-4.4645895e-74
-2.0333391e-81
1.8899197e-88
-6.5324945e-95
-7.4080504e-101
-5.3088783e-107
-3.3761035e-113
-2.949881e-119
-2.4059538e-125
-2.3682869e-131
-3.037883e-137
-2.341397e-143
-1.4117888e-149
-1.4667748e-155
-1.0312574e-161
-1.1904121e-167
-1.1049479e-173
2.9135947e-175
2.3467898e-174
6.8879712e-175
7.0097028e-175
1.8164413e-174
5.724814e-176
1.9363838e-175
2.5738098e-174
1.2362957e-175
8.4770121e-175
6.8386194e-176
3.1628221e-175
2.58215e-174
5.7448064e-176
7.8369533e-175
1.5200865e-171
-6.2542974e-08
2.4943264e-18
-9.6138968e-29
5.866478e-39
-1.0868332e-48
-1.3853057e-56
-1.6268588e-65
-4.8971399e-74
-1.301465e-81
1.1873369e-88
-2.9330496e-95
-3.6865553e-101
-4.0172614e-107
-3.9047782e-113
-4.884957e-119
-5.5545739e-125
-4.3333066e-131
-5.2865418e-137
-6.5129811e-143
-3.3214404e-149
-4.3016491e-155
-2.5232014e-161
-3.5415571e-167
-2.4149796e-173
-2.0093466e-179
1.6283387e-180
4.2092966e-181
5.7142855e-181
1.4869799e-180
3.7877464e-182
2.0190786e-181
1.6901522e-180
7.5093234e-182
5.6170762e-181
3.9779038e-182
1.6551052e-181
1.8517961e-180
4.2117802e-182
4.5075263e-181
-1.269431e-177
-5.4839231e-08
1.9154927e-18
-6.4126137e-29
3.3119961e-39
-4.8588732e-49
2.3325361e-57
2.4684801e-66
5.9755055e-75
1.0227779e-82
-8.7756045e-90
1.7907008e-96
-2.9285101e-101
-2.2357143e-107
-1.3803089e-113
-7.1106367e-120
-8.2115108e-126
-5.3626568e-132
-4.1180503e-138
-4.9995796e-144
-5.4516521e-150
-4.3890369e-156
-6.0932182e-162
-4.7399055e-168
-3.6732961e-174
-5.1239379e-180
-2.7616331e-186
3.5780017e-187
6.1093717e-187
8.3392475e-187
2.2274462e-188
1.6283708e-187
8.9480372e-187
6.2477686e-188
3.8139146e-187
2.8920467e-188
1.2601616e-187
1.3971807e-186
2.5237158e-188
7.1959868e-187
6.7917473e-184
-4.8143073e-08
1.475376e-18
-4.3024567e-29
1.8907151e-39
-2.2254509e-49
3.750175e-58
3.6460563e-67
7.2084964e-76
8.4348914e-84
-8.4202199e-91
1.2029985e-97
-7.3469439e-103
-1.0906183e-108
-9.9423867e-115
-1.2901396e-120
-1.3232858e-126
-1.9780026e-132
-1.6214013e-138
-1.6649991e-144
-1.6042891e-150
-1.1402047e-156
-1.2115689e-162
-8.9443298e-169
-7.7871818e-175
-5.8683697e-181
-5.2027011e-187
-9.565299e-194
3.7937283e-193
6.0337683e-193
2.3268394e-194
7.3696146e-194
5.8194551e-193
4.692166e-194
2.7399798e-193
3.9613207e-194
8.6429096e-194
9.5624735e-193
2.834812e-194
3.3606232e-192
-6.590329e-190
-4.2311869e-08
1.1395643e-18
-2.9024366e-29
1.0904318e-39
-1.041548e-49
9.5025527e-59
8.65809e-68
1.4225492e-76
1.201028e-84
-1.5806564e-91
1.936479e-98
-4.8662663e-104
-3.2241427e-110
-2.4087806e-116
-1.6737604e-122
-1.3510511e-128
-1.0936949e-134
-9.8570355e-141
-8.9256472e-147
-5.2214993e-153
-3.5386588e-159
-2.5239811e-165
-2.6592294e-171
-1.6857618e-177
-2.0977189e-183
-2.0442872e-189
-2.3048318e-195
2.3086007e-199
3.3948695e-199
1.4422914e-200
5.7856159e-200
3.5636833e-199
2.8096533e-200
1.4000626e-199
2.665562e-200
5.5819017e-200
7.1343404e-199
1.9579201e-200
-3.9009063e-197
4.2321337e-196
-3.7223397e-08
8.8235025e-19
-1.9676523e-29
6.3479838e-40
-4.9682912e-50
2.8600724e-59
2.4994217e-68
3.4531407e-77
2.1440639e-85
-6.1672735e-92
6.7383802e-99
-3.7029142e-105
-2.8087488e-111
-2.9226558e-117
-2.2643965e-123
-1.1633399e-129
-1.3513401e-135
-8.0248987e-142
-6.6670018e-148
-4.2184309e-154
-2.868758e-160
-3.603142e-166
-3.6101681e-172
-2.5208424e-178
-1.277849e-184
-5.3326906e-191
-4.8121373e-197
-4.4653579e-203
1.6419588e-205
1.1726901e-206
3.3211748e-206
3.3820929e-205
1.7785565e-206
1.1845559e-205
1.5346044e-206
7.9708021e-206
4.7810042e-205
2.6777683e-206
-3.9836851e-203
-5.2377692e-202
-3.2773802e-08
6.8474674e-19
-1.3400308e-29
3.7273862e-40
-2.4112587e-50
9.4932021e-60
8.1766999e-69
9.6418823e-78
4.568034e-86
1.2617916e-92
-1.1089778e-99
4.5242933e-106
6.5866044e-112
9.5562738e-118
1.027887e-123
1.3413054e-129
1.5525655e-135
1.2497519e-141
8.6514326e-148
6.605739e-154
4.7868147e-160
3.3583719e-166
2.3856116e-172
2.3464575e-178
3.6855439e-184
2.7006021e-190
1.8513124e-196
1.1541965e-202
6.8218797e-209
6.8338091e-213
3.3052944e-212
2.5151946e-211
1.3797359e-212
9.4612287e-212
1.2181385e-212
6.8467671e-212
3.4282078e-211
3.250523e-212
4.0420749e-209
-6.8137791e-208
-2.8878608e-08
5.3246271e-19
-9.1640289e-30
2.2060177e-40
-1.1886456e-50
3.3649336e-60
2.9604885e-69
3.0140515e-78
1.1102508e-86
8.1656249e-94
-6.6312492e-101
1.9463544e-107
2.8120151e-113
3.7949897e-119
2.8403984e-125
2.3101241e-131
3.6093193e-137
3.0504932e-143
2.2821036e-149
2.2872606e-155
1.2643231e-161
1.0229355e-167
1.427117e-173
1.2703944e-179
1.0177773e-185
1.0804117e-191
6.7669989e-198
5.8424873e-204
5.4987049e-210
3.855437e-216
1.5518768e-218
1.569359e-217
7.7801849e-219
6.1328458e-218
8.1817135e-219
5.9905656e-218
2.9065883e-217
2.3201509e-218
5.5789176e-215
-5.856284e-214
-2.5461731e-08
4.1478108e-19
-6.2906137e-30
1.3151205e-40
-5.9428688e-51
1.2531859e-60
1.1814016e-69
1.0519084e-78
3.0797026e-87
1.1446714e-94
-8.4561445e-102
1.9153593e-108
3.1486994e-114
2.6377177e-120
3.0580317e-126
3.1251685e-132
2.7047346e-138
2.4926069e-144
1.8749719e-150
2.3304606e-156
3.0786801e-162
1.9641717e-168
1.4653431e-174
1.0862415e-180
6.9926662e-187
3.8618782e-193
3.3159184e-199
2.3907069e-205
1.629791e-211
1.6056431e-217
1.6331713e-223
1.3796137e-223
4.813602e-225
5.369571e-224
9.4199095e-225
4.3098032e-224
4.3252015e-223
2.5510206e-224
-3.5913678e-220
-2.1802379e-220
-2.2461996e-08
3.2362787e-19
-4.3331658e-30
7.8927126e-41
-3.0099266e-51
4.8533986e-61
5.2756474e-70
4.1574428e-79
9.7935331e-88
2.1591917e-95
-1.5549934e-102
3.1114353e-109
-5.824105e-115
-6.811293e-121
-7.611773e-127
-7.6539925e-133
-8.8012478e-139
-1.1185746e-144
-1.0951387e-150
-1.6435532e-156
-9.9143552e-163
-8.4992096e-169
-7.0234549e-175
-4.9305961e-181
-4.4469316e-187
-5.0222543e-193
-3.4992886e-199
-4.5731035e-205
-5.795532e-211
-4.8987131e-217
-2.9931116e-223
-1.3727135e-229
2.4651983e-231
3.8385374e-230
1.0537863e-230
6.9526658e-230
2.7127078e-229
1.3921438e-229
-2.6005548e-226
-5.4790328e-227
-1.982417e-08
2.5284603e-19
-2.9939804e-30
4.7658427e-41
-1.5425607e-51
1.9412672e-61
2.781645e-70
1.961897e-79
3.7803213e-88
5.5760571e-96
-3.9379638e-103
5.6180064e-110
-4.6187083e-115
-6.626598e-121
-1.1946536e-126
-1.4657249e-132
-2.3242636e-138
-2.0115244e-144
-1.6629099e-150
-1.9047374e-156
-1.3184891e-162
-1.6539375e-168
-1.9358227e-174
-1.362562e-180
-7.9307806e-187
-1.0927932e-192
-8.1660562e-199
-1.2959063e-204
-9.9840745e-211
-7.9823043e-217
-6.007285e-223
-6.1408719e-229
-5.1306477e-235
2.1179613e-236
7.6181809e-237
6.2739534e-236
2.1777376e-235
2.5812283e-235
-4.1202384e-232
-1.1182615e-233
-1.7503406e-08
1.977855e-19
-2.0744893e-30
2.8940772e-41
-7.9920662e-52
7.9814402e-62
2.1039028e-70
1.3457103e-79
2.1490884e-88
2.2348787e-96
-1.7981147e-103
2.1823822e-110
-2.413974e-116
-2.8816238e-122
-3.2099383e-128
-4.0507804e-134
-4.6506178e-140
-9.3341496e-146
-1.5321709e-151
-1.2286144e-157
-9.6663228e-164
-1.2414306e-169
-1.2512828e-175
-9.7761531e-182
-1.0096661e-187
-7.1438968e-194
-6.4333911e-200
-4.2901007e-206
-3.8937839e-212
-2.7155656e-218
-2.1648681e-224
-2.3235534e-230
-2.0222015e-236
1.0387306e-243
7.5932509e-243
4.3465068e-242
1.6296413e-241
2.7197401e-241
-2.7655305e-238
-2.135478e-240
-1.5459072e-08
1.5486991e-19
-1.4409644e-30
1.766468e-41
-4.1820447e-52
3.3597312e-62
-5.9066648e-70
-3.4718457e-79
-4.6541769e-88
-3.5504735e-96
3.5874383e-103
-3.6669614e-110
5.5811633e-116
1.0133289e-121
8.5720523e-128
7.9773102e-134
2.2879024e-139
2.2572795e-145
1.4890262e-151
2.5183189e-157
3.8297252e-163
4.3355045e-169
5.6272638e-175
6.5325214e-181
5.1520677e-187
4.4533088e-193
5.2514666e-199
1.0259441e-204
6.4314242e-211
1.0551116e-216
9.8477977e-223
6.5852465e-229
6.3672913e-235
4.7640982e-241
3.8089594e-247
2.8122955e-248
2.2984439e-247
4.5234209e-247
-1.6480335e-244
-3.3261201e-247
-1.3657997e-08
1.2137471e-19
-1.0031523e-30
1.0833143e-41
-2.2085582e-52
1.4440863e-62
-2.2892418e-71
-1.2536305e-80
-1.4254773e-89
-8.1953653e-98
1.6135935e-104
-1.4609017e-111
6.3617186e-118
8.877896e-124
8.0537399e-130
9.0388753e-135
1.2859342e-140
1.937447e-146
3.0356794e-152
3.1100226e-158
3.6063826e-164
3.2133449e-170
3.8130604e-176
5.9752128e-182
6.5093395e-188
4.9060833e-194
5.6335628e-200
6.5382001e-206
7.4409117e-212
6.3504703e-218
3.9643105e-224
3.4964937e-230
4.2186799e-236
5.2773571e-242
5.3097374e-248
1.3642321e-253
3.0229414e-253
7.0946518e-253
-6.3408969e-251
-4.8827774e-254
-1.2071033e-08
9.5202409e-20
-6.9979782e-31
6.6728283e-42
-1.1763319e-52
6.3238905e-63
-4.6227509e-72
-2.3952111e-81
-2.3335572e-90
-1.0372547e-98
-7.1058567e-105
5.6966755e-112
-2.1814917e-118
-2.6694917e-124
-1.8630822e-130
-4.5750139e-136
-6.6195151e-142
-1.4925727e-147
-1.9467506e-153
-1.8074098e-159
-1.490555e-165
-9.6186904e-172
-1.2116113e-177
-9.4469935e-184
-2.4302352e-189
-3.2362031e-195
-8.3323974e-201
-1.2462425e-206
-8.060771e-213
-9.3776675e-219
-1.012143e-224
-1.2306966e-230
-7.6051287e-237
-5.5390859e-243
-6.6375831e-249
-4.2042267e-254
1.9246012e-259
5.3079379e-259
-1.9314922e-257
-6.4411672e-261
-1.0672479e-08
7.4730323e-20
-4.8908805e-31
4.1268645e-42
-6.3150985e-53
2.816235e-63
-1.2271144e-72
-6.1164842e-82
-5.1658602e-91
-1.8108953e-99
-1.6483833e-106
1.1463964e-113
-2.9221727e-120
-7.7138378e-126
-2.930055e-131
-9.7358975e-137
-1.9236914e-142
-1.0498029e-147
-1.5136652e-153
-1.5904265e-159
-3.7065928e-165
-8.3263711e-171
-6.6988151e-177
-1.0373335e-182
-6.7473647e-189
-8.3703784e-195
-8.9584208e-201
-1.0933641e-206
-9.3542702e-213
-1.0562858e-218
-8.3058697e-225
-7.8339508e-231
-7.5341955e-237
-7.7572925e-243
-5.4191535e-249
-2.0992332e-254
-6.6312118e-260
3.4576483e-265
-6.5529887e-264
-7.0074049e-268
-9.4406008e-09
5.8707693e-20
-3.4243573e-31
2.562063e-42
-3.4155153e-53
1.2734523e-63
-3.7014628e-73
-1.8124115e-82
-1.3400588e-91
-3.7632138e-100
-1.6190339e-107
1.1305386e-114
-2.3308732e-121
6.7111805e-126
8.5264435e-132
2.6386351e-137
2.9550041e-143
1.401789e-148
2.2565819e-154
1.7286377e-159
1.7829041e-165
1.7842122e-171
2.3628755e-177
2.9773666e-183
3.9278843e-189
7.874795e-195
8.7772415e-201
2.0466283e-204
2.041067e-210
3.2988901e-216
6.2363258e-222
3.4569862e-228
3.2770194e-234
2.8020175e-240
5.7831982e-246
8.4105766e-252
1.3803465e-257
9.9638508e-264
8.9523339e-271
-8.0639058e-275
-8.3561599e-09
4.6161487e-20
-2.40179e-31
1.5964239e-42
-1.8602834e-53
5.8401245e-64
-1.2076612e-73
-5.9544745e-83
-3.8876937e-92
-8.8965176e-101
-2.2430232e-108
1.5232478e-115
-2.853696e-122
7.9508308e-128
1.1189444e-133
5.2589544e-139
5.5104799e-145
1.0667794e-150
2.0674949e-156
2.3975643e-162
7.8988255e-168
1.5394676e-173
2.349922e-179
5.8658692e-185
9.3285091e-191
2.6728064e-196
4.5435981e-202
4.5978151e-208
5.0675503e-214
8.5789501e-220
9.4266699e-226
9.5757277e-232
8.891067e-238
4.1093835e-243
4.4441208e-249
5.2969078e-255
7.1808386e-261
3.8230028e-267
7.3925854e-274
6.8454195e-281
-7.4026441e-09
3.6336202e-20
-1.6877128e-31
9.9834163e-43
-1.0201153e-53
2.7137974e-64
-4.1631591e-74
-2.1343409e-83
-1.2428123e-92
-2.3416067e-101
-3.9371177e-109
2.6934426e-116
-3.879495e-123
3.3990515e-129
-3.9010071e-134
-1.3304733e-139
-6.4941583e-145
-6.9880764e-151
-1.4930182e-156
-2.3055443e-162
-4.4531655e-168
-6.3527977e-174
-5.4665766e-179
-2.9873426e-184
-3.9945608e-190
-7.8591611e-196
-9.9832123e-202
-1.7716001e-207
-2.6204308e-213
-2.5234783e-219
-1.0683987e-224
-1.1141758e-230
-1.058663e-236
-1.269511e-242
-1.1303713e-248
-2.5230056e-253
-4.6474635e-257
-3.4106437e-263
-6.2489225e-270
-6.5182429e-277
-6.5651447e-09
2.8641732e-20
-1.1883589e-31
6.2661846e-43
-5.6312162e-54
1.276911e-64
-1.4977817e-74
-8.3446801e-84
-4.3767202e-93
-6.88919e-102
-8.0879435e-110
5.9981992e-117
-6.982825e-124
6.0277556e-130
3.6639639e-134
5.9091053e-140
2.9856931e-145
7.8584606e-151
1.9660075e-156
2.6794679e-162
6.2345601e-168
2.5717113e-173
4.4942196e-179
5.0445466e-184
5.5980282e-190
1.3942095e-195
1.9323765e-201
3.0545119e-207
4.2315421e-213
5.1823848e-216
6.6035489e-222
1.1707431e-227
1.0841184e-233
1.3468e-239
3.057885e-245
3.9998675e-251
1.1639623e-256
6.2786609e-263
1.2603258e-269
1.2861243e-276
-5.8307678e-09
2.2616428e-20
-8.3871165e-32
3.9481714e-43
-3.1291838e-54
6.0802682e-65
-5.5794188e-75
-3.6129303e-84
-1.7229862e-93
-2.2900798e-102
-1.9707476e-110
1.7618188e-117
-1.863627e-124
1.0204287e-130
-4.2115465e-136
-1.4332708e-141
3.2821777e-147
5.0153672e-153
1.1892885e-157
4.0758298e-163
5.3152178e-168
6.7059859e-174
6.0816326e-177
1.2845287e-182
3.3271996e-188
-8.8287795e-192
-1.4111249e-197
-2.0891535e-203
-9.7055219e-209
-7.3132732e-215
-7.8607928e-221
-7.219508e-227
-2.5512461e-232
-6.2930248e-238
2.7181165e-243
-7.4753138e-248
-1.7097234e-253
-8.9912779e-260
-1.6346204e-266
-1.525657e-273
-5.1879443e-09
1.7899203e-20
-5.9358533e-32
2.4980093e-43
-1.7506442e-54
2.9293678e-65
-2.1414798e-75
-1.8126741e-84
-7.940501e-94
-8.9980546e-103
-5.8746679e-111
8.3949596e-118
-7.7232554e-125
2.9279112e-131
-5.3411113e-136
-2.4141378e-141
1.0514208e-146
-2.3695149e-152
-8.5330536e-158
-1.3368345e-163
-1.821627e-169
7.4300824e-175
1.4579983e-180
3.6659635e-186
1.0517735e-191
2.1348956e-198
-1.6398179e-203
-6.3653806e-209
-1.8409554e-214
-1.596819e-219
-1.4872048e-225
-2.5817885e-231
-1.119233e-236