/*--------------------------------*- C++ -*----------------------------------*\
  =========                 |
  \\      /  F ield         | OpenFOAM: The Open Source CFD Toolbox
   \\    /   O peration     | Website:  https://openfoam.org
    \\  /    A nd           | Version:  10
     \\/     M anipulation  |
\*---------------------------------------------------------------------------*/
FoamFile
{
    format      ascii;
    class       volScalarField;
    location    "0.21";
    object      TporMedia_0;
}
// * * * * * * * * * * * * * * * * * * * * * * * * * * * * * * * * * * * * * //

dimensions      [0 0 0 1 0 0 0];

internalField   nonuniform List<scalar> 
4000
(
-0.00030787765
0.00010853712
0.00053239311
0.00057798232
0.00053255932
0.00046062098
0.00044275862
0.00039220362
0.00072647517
0.0006352319
0.00051153289
0.00063020418
0.00053882745
0.0005476976
0.00044202808
0.00049111933
0.00055936473
0.00073571609
0.00051373334
0.00051904915
0.00050691311
0.00053097761
0.00050694125
0.00062336974
0.00055794207
0.00047713914
0.00044724584
0.00041997867
0.00063252068
0.00051130218
0.00066481481
0.00044530899
0.00078777545
0.0004626855
0.000435967
0.00056131014
0.00057267294
0.00042506112
0.00058863101
0.00042440091
-3.1929544e-05
7.2119445e-12
1.1385824e-10
4.3736148e-10
6.0237425e-10
2.4867174e-10
3.156342e-10
1.9286934e-10
7.3130606e-10
3.889109e-10
7.1885511e-10
4.6122201e-10
3.5291915e-10
4.3678112e-10
3.5645458e-10
3.7336083e-10
4.4473348e-10
4.7213074e-10
2.9104195e-10
3.9529607e-10
3.8223106e-10
3.0502802e-10
5.6509413e-10
4.3604872e-10
4.3969708e-10
2.7589001e-10
3.9300903e-10
2.2081965e-10
6.3740399e-10
4.0773429e-10
4.3838915e-10
2.9563241e-10
5.4646667e-10
3.1451711e-10
2.5807441e-10
2.915465e-10
4.3474805e-10
3.793883e-10
4.3579404e-10
2.7745157e-10
-1.2722637e-05
-3.1577036e-12
8.1403485e-18
2.2115337e-16
5.3376336e-16
3.0957445e-16
2.2401134e-16
1.2865591e-16
6.6844629e-16
3.562647e-16
1.1660565e-15
3.6868379e-16
2.6636114e-16
4.112436e-16
3.5926709e-16
2.7183571e-16
3.2715196e-16
3.3770391e-16
4.030057e-16
2.4629152e-16
3.970055e-16
2.3685026e-16
4.2982653e-16
3.7666746e-16
4.8036786e-16
2.1326029e-16
7.0644913e-16
1.9484715e-16
3.8511736e-16
3.2653104e-16
2.7972861e-16
3.0065391e-16
5.3379236e-16
4.2619206e-16
1.6411062e-16
2.1470894e-16
2.8193588e-16
3.2473705e-16
2.8732234e-16
1.8429255e-16
-6.8963908e-06
2.8631015e-13
1.1712967e-20
3.5544616e-23
7.3507677e-22
1.8252302e-22
1.7152752e-22
1.0283059e-22
4.1611548e-22
2.9513876e-22
8.7402787e-22
2.5999686e-22
2.9424497e-22
2.6858225e-21
2.5275234e-22
3.845439e-22
3.1416066e-22
2.277365e-22
2.2032565e-22
1.3950228e-21
5.5254517e-22
2.0957064e-22
4.1099669e-22
2.7860778e-22
2.8830641e-22
1.2898929e-22
6.4381936e-22
1.7359416e-22
2.3809385e-22
4.0609849e-22
2.1692074e-22
3.5638306e-22
6.7964901e-22
2.8703945e-22
1.2806506e-22
3.2547116e-22
1.8275946e-22
3.3016709e-22
2.7755799e-22
1.6971683e-22
-4.3746331e-06
5.5613412e-14
1.8084342e-21
1.1898907e-28
7.9231168e-28
9.6196859e-28
2.6602483e-28
1.3149272e-28
4.0975646e-28
2.0509218e-28
8.0015431e-28
2.1340628e-28
3.374226e-28
2.3395398e-27
3.8410525e-28
3.7895667e-28
3.6251203e-28
2.2241549e-28
2.5425354e-28
1.4422492e-27
6.2297903e-28
1.4882762e-28
3.1499903e-28
3.1165263e-28
5.0246162e-28
1.7667879e-28
3.9641163e-28
1.7271128e-28
1.5431783e-28
2.4348547e-28
1.7425051e-28
3.2440907e-28
6.639502e-28
2.2852737e-28
8.1051606e-29
1.867427e-28
1.0724348e-28
1.8921229e-28
1.9014023e-28
1.0499782e-28
-3.0769506e-06
1.8628944e-14
7.261397e-22
2.4093807e-29
1.8812328e-34
-2.6125942e-33
3.0243906e-34
7.2081523e-35
5.3670358e-34
3.9303052e-34
8.963745e-34
1.7377245e-34
2.2795434e-34
1.7228335e-33
1.940841e-34
3.1478851e-34
3.0650213e-34
2.4773611e-34
3.234133e-34
1.9831459e-33
3.837744e-34
1.8894089e-34
2.905198e-34
2.6123515e-34
4.5975805e-34
1.1416035e-34
3.3223788e-34
1.3352106e-34
2.4075647e-34
1.8510732e-34
1.4846909e-34
3.9710716e-34
6.3241323e-34
2.2666531e-34
1.048334e-34
2.2716526e-34
7.8970815e-35
1.1111722e-34
1.5834955e-34
8.5528264e-35
-2.3365376e-06
8.2627977e-15
-5.7138505e-21
-1.1632726e-28
-1.2257766e-35
1.3042035e-38
5.350797e-40
4.9561374e-41
5.5469266e-40
3.2058556e-40
7.0385389e-40
1.6248941e-40
2.5138875e-40
2.1471879e-39
1.8620139e-40
3.304043e-40
2.58637e-40
2.6630086e-40
2.2303124e-40
1.6091677e-39
3.5375743e-40
1.7464933e-40
2.8744062e-40
1.5330201e-40
4.497962e-40
1.0126922e-40
3.8273845e-40
9.343866e-41
1.4338376e-40
1.0728083e-40
8.0555093e-41
3.6216916e-40
4.5253151e-40
1.8287477e-40
9.0656299e-41
1.8274346e-40
6.5900657e-41
9.611809e-41
1.283737e-40
5.9371634e-41
-1.8662498e-06
4.3000199e-15
-7.6827767e-23
-1.1440236e-30
-5.4517551e-38
1.8499109e-43
-8.1254287e-45
3.5246835e-47
4.3423357e-46
4.5499616e-46
5.296267e-46
1.3611543e-46
3.6367027e-46
1.5430655e-45
1.4109955e-46
2.8109512e-46
2.4960491e-46
2.4803735e-46
3.1685679e-46
1.9941123e-45
2.7440909e-46
2.0833527e-46
3.4858364e-46
1.6082932e-46
3.9333027e-46
9.2732399e-47
3.8701569e-46
1.6002418e-46
1.2615884e-46
7.2824889e-47
6.7606825e-47
3.0179036e-46
3.2924837e-46
3.4669164e-46
8.724328e-47
1.3695444e-46
5.1278735e-47
5.9632059e-47
9.8754144e-47
5.3106504e-47
-1.5450933e-06
2.5077702e-15
-1.7316943e-23
-2.0947372e-31
-5.5203197e-39
-2.49889e-45
3.2455398e-50
2.785346e-53
4.3804328e-52
4.6998147e-52
5.6555069e-52
2.2659217e-52
2.4325931e-52
1.1941827e-51
2.1111786e-52
2.4961693e-52
1.8477548e-52
2.2937627e-52
3.5756737e-52
1.2622594e-51
3.3010065e-52
1.8860728e-52
2.1906352e-52
1.0804756e-52
2.8941204e-52
1.6703094e-52
4.3950903e-52
1.5243558e-52
1.2415505e-52
1.6821187e-52
4.1834948e-53
3.0983865e-52
6.3071795e-52
2.9654913e-52
7.3854549e-53
8.1213184e-53
3.8899555e-53
4.471127e-53
6.3964697e-53
4.0315917e-53
-1.306337e-06
1.570687e-15
-5.7574705e-24
-6.7037022e-32
-1.0884512e-39
-1.6797243e-46
1.0050477e-52
1.4214344e-58
3.6512859e-58
2.5314641e-58
4.9285644e-58
1.8816358e-58
2.2190864e-58
1.1357163e-57
1.7291273e-58
2.2311568e-58
1.6632309e-58
3.4280992e-58
5.5361295e-58
1.1576073e-57
4.9337664e-58
2.0350243e-58
1.4728815e-58
1.1052642e-58
5.8676026e-58
1.5641262e-58
4.4620815e-58
1.0246792e-58
1.0840954e-58
1.2991602e-58
4.8063869e-59
1.8890831e-58
4.9346482e-58
2.7206394e-58
6.0293501e-59
5.1634798e-59
3.2398376e-59
3.1612383e-59
3.938535e-59
2.603166e-59
-1.1121582e-06
1.0281618e-15
-2.296664e-24
-3.0749954e-32
-3.4498379e-40
-2.2959079e-47
1.3007717e-53
2.9877399e-59
4.9714862e-64
2.0735685e-64
5.6444658e-64
2.1449696e-64
1.4828987e-64
7.2169139e-64
1.9058958e-64
2.4468656e-64
1.0366612e-64
4.0112044e-64
6.4884593e-64
9.4677817e-64
5.2234905e-64
2.427267e-64
1.2221915e-64
9.374334e-65
5.424929e-64
9.6614403e-65
4.4224525e-64
9.3494997e-65
7.5512438e-65
8.1254995e-65
5.6696187e-65
1.1924403e-64
4.0337638e-64
2.0729582e-64
4.3349561e-65
4.3414296e-65
2.1271707e-65
2.668426e-65
2.9162123e-65
2.123835e-65
-9.4601736e-07
6.8934822e-16
-1.0270162e-24
-2.5276086e-32
-2.0908769e-40
-7.5644069e-48
6.7839564e-54
-3.2223007e-59
-3.8765027e-65
1.0538609e-70
3.9738012e-70
2.6167936e-70
1.2296938e-70
3.8986838e-70
1.4264015e-70
2.2564472e-70
7.2513052e-71
4.4607814e-70
4.1959037e-70
1.1237051e-69
4.516191e-70
2.3032094e-70
8.5656408e-71
1.0138511e-70
4.6601563e-70
8.7153801e-71
6.0403055e-70
9.381076e-71
1.201161e-70
8.2143058e-71
4.7660396e-71
1.3062782e-70
2.7724666e-70
1.413171e-70
3.7752872e-71
3.4692522e-71
1.8402813e-71
1.869358e-71
4.1851484e-71
1.4238692e-71
-8.0164371e-07
4.6964804e-16
-4.9347008e-25
2.1353393e-32
1.3827978e-40
2.9849768e-48
-1.4482654e-53
8.1649768e-60
1.8958258e-65
1.2781396e-71
3.1096285e-76
2.3914819e-76
8.2921169e-77
5.8746703e-76
1.0618681e-76
2.2252288e-76
4.6798084e-77
3.7651535e-76
5.5386507e-76
7.2213422e-76
3.1016052e-76
1.7934838e-76
7.4116857e-77
5.3642351e-77
3.615774e-76
7.4198088e-77
4.0485885e-76
1.4703711e-76
1.0053008e-76
5.9530198e-77
2.7430091e-77
8.4298842e-77
2.6902813e-76
2.1653607e-76
2.7632801e-77
2.1193964e-77
1.4258907e-77
7.9091073e-78
3.9433333e-77
1.14977e-77
-6.7611994e-07
3.2296847e-16
-2.4922215e-25
2.0141242e-33
1.0826457e-41
1.5193575e-49
4.91636e-56
-2.4124199e-62
-6.4276038e-68
-6.5637921e-74
-4.3753591e-80
2.3948592e-82
1.1924301e-82
3.6361496e-82
6.3635175e-83
1.5721764e-82
4.2669741e-83
2.7395746e-82
4.041171e-82
7.7204966e-82
2.526784e-82
1.6004873e-82
8.5889433e-83
5.2846217e-83
3.7027305e-82
6.6012106e-83
2.3303138e-82
1.3559002e-82
8.36047e-83
4.54217e-83
1.5564741e-83
6.6200692e-83
2.1144633e-82
1.3888909e-82
2.8456317e-83
1.2385232e-83
9.3373629e-84
5.8719634e-84
3.0072758e-83
6.7102196e-84
-5.6896905e-07
2.2384136e-16
-1.3086272e-25
4.8761979e-34
2.2834956e-42
2.2147577e-50
2.4080266e-57
-6.8109699e-64
-1.4693798e-69
-1.0828148e-75
-9.3241846e-82
-3.9205386e-88
1.1735352e-88
7.782303e-88
3.6128258e-89
1.7857817e-88
3.0426931e-89
2.3568875e-88
3.5346632e-88
5.5266044e-88
1.3464609e-88
9.6799203e-89
6.0781329e-89
4.8275198e-89
2.8813171e-88
4.9094838e-89
1.5446065e-88
9.1359558e-89
4.5468535e-89
3.5175132e-89
1.2152128e-89
5.9952134e-89
1.1620923e-88
1.002312e-88
1.8529289e-89
8.7032851e-90
7.6194852e-90
5.696905e-90
1.5923343e-89
4.8305509e-90
-4.7888386e-07
1.565018e-16
-7.0871952e-26
1.522572e-34
6.5981215e-43
4.636013e-51
2.4058074e-58
-6.378049e-65
1.4349418e-70
6.9540776e-77
7.3483391e-83
5.7445918e-89
1.7068796e-94
6.2036679e-94
3.5812391e-95
1.3352089e-94
2.572673e-95
2.9391196e-94
3.3456534e-94
4.3297574e-94
8.6923288e-95
6.3058899e-95
6.0088881e-95
4.1525992e-95
2.221941e-94
4.2793714e-95
1.3065153e-94
8.3446387e-95
3.2179112e-95
3.1210402e-95
1.1986719e-95
2.8583604e-95
5.9800733e-95
6.7868252e-95
2.012557e-95
5.8015421e-96
5.0991908e-96
3.36113e-96
1.0357988e-95
2.5980838e-96
-4.0372654e-07
1.1032483e-16
-3.9445182e-26
5.4327218e-35
2.3393547e-43
1.2439159e-51
3.7883329e-59
-8.0371389e-66
5.8119124e-72
5.3970125e-78
3.333244e-84
2.3012047e-90
1.8897808e-96
4.4264438e-100
2.4775964e-101
1.742405e-100
1.3782608e-101
1.8564464e-100
2.9057257e-100
3.3616331e-100
6.2661802e-101
6.26476e-101
4.2350303e-101
3.020199e-101
2.9706914e-100
2.7849665e-101
7.2201155e-101
1.2494917e-100
2.9683079e-101
1.8180395e-101
8.4870038e-102
2.8026779e-101
4.9118639e-101
5.4909956e-101
1.9468862e-101
2.8820266e-102
4.6137315e-102
1.793014e-102
6.4283277e-102
1.5375883e-102
-3.4185273e-07
7.8542735e-17
-2.2493492e-26
2.1186766e-35
9.9081857e-44
4.1366992e-52
7.8347965e-60
-2.1417367e-66
8.6197338e-73
1.1481163e-78
1.2747186e-84
7.2916631e-91
4.5903741e-97
3.3882004e-103
2.4016396e-107
1.1331615e-106
1.0857651e-107
1.3404523e-106
2.232079e-106
2.6597175e-106
6.8686078e-107
3.2902078e-107
3.2441064e-107
1.8054044e-107
1.5376568e-106
1.8746818e-107
3.831751e-107
7.9677223e-107
1.9873263e-107
1.1906637e-107
7.9866516e-108
1.4861901e-107
2.8239838e-107
4.1250382e-107
8.9917986e-108
1.7119281e-108
3.2342287e-108
1.6610648e-108
3.8670466e-108
1.1023606e-108
-2.9045415e-07
5.6391341e-17
-1.3101008e-26
8.8370345e-36
5.2852297e-44
1.7846276e-52
2.2594444e-60
-1.7107474e-66
4.7444446e-73
1.1116554e-78
9.4842693e-85
1.0163174e-90
8.646176e-97
7.2648315e-103
4.7240732e-109
7.8178858e-113
6.8408619e-114
1.2683371e-112
2.3063935e-112
1.3116127e-112
8.2506483e-113
2.0664382e-113
2.3278635e-113
1.3175943e-113
1.0356929e-112
1.1101029e-113
2.927443e-113
5.1357118e-113
1.7969649e-113
6.8953642e-114
6.6639621e-114
9.3308608e-114
1.6011483e-113
3.1978598e-113
4.3500276e-114
1.194523e-114
1.5650599e-114
1.271914e-114
2.728285e-114
7.0354059e-115
-2.4788944e-07
4.0847424e-17
-7.7773981e-27
3.8806302e-36
4.644438e-44
1.3105713e-52
1.1622374e-60
3.7767046e-67
-7.3976066e-74
-1.3630717e-78
-9.8821261e-85
-9.4942441e-91
-6.2208561e-97
-1.399114e-102
-1.0838043e-108
-9.1078642e-115
3.1476098e-120
9.4091833e-119
1.3626016e-118
8.8532181e-119
1.0018407e-118
1.1513292e-119
1.8004164e-119
8.1295491e-120
1.3292556e-118
9.6131507e-120
2.8867858e-119
9.1774494e-119
1.2941264e-119
4.6778824e-120
5.1237628e-120
4.949899e-120
9.776342e-120
2.1286612e-119
3.8259935e-120
7.6182959e-121
9.6226178e-121
7.1159307e-121
1.726955e-120
5.0555042e-121
-2.1238132e-07
2.9814407e-17
-4.6935991e-27
1.7772672e-36
-3.8286219e-44
-9.2443153e-53
-6.0234431e-61
-6.168308e-68
9.8876556e-75
-6.3357495e-80
-7.309403e-86
-6.5481582e-92
-4.2003731e-98
-5.5445838e-104
-3.852097e-110
-2.6671212e-116
-1.5847494e-122
8.8884464e-125
1.0206333e-124
5.0768513e-125
8.7982019e-125
1.4658934e-125
9.4029537e-126
9.3445116e-126
1.6593095e-124
1.0531484e-125
2.093566e-125
7.5904186e-125
8.804649e-126
2.674758e-126
2.6571275e-126
4.2279571e-126
8.0483913e-126
1.5649712e-125
2.2587277e-126
3.7110891e-127
1.3559881e-126
3.9808647e-127
1.0770246e-126
5.1251658e-127
-1.8261682e-07
2.1924711e-17
-2.8760015e-27
8.4337934e-37
-3.6319489e-45
-7.7245171e-54
-3.7757456e-62
-1.81488e-69
2.4466362e-76
-1.6465328e-82
-1.2210481e-88
-1.0565319e-94
-8.3803678e-101
-7.6669633e-107
-6.5844811e-113
-7.6034414e-119
-4.6028402e-124
-3.5810417e-130
5.8386037e-131
5.5695103e-131
7.6056705e-131
1.1790917e-131
1.219072e-131
8.6253921e-132
1.226523e-130
7.7702957e-132
1.6311572e-131
7.1687694e-131
5.9503269e-132
1.7222018e-132
1.5623258e-132
2.8542206e-132
4.7509574e-132
1.5869919e-131
1.5541722e-132
2.8132105e-133
9.1056326e-133
3.8379517e-133
5.6535444e-133
6.1168689e-133
-1.5758563e-07
1.6235409e-17
-1.7865622e-27
4.1255657e-37
-8.4385692e-46
-1.6253662e-54
-6.1742731e-63
-1.7205894e-70
2.0454388e-77
-6.4437288e-84
-7.3751834e-90
-7.4513136e-96
-2.251889e-101
-1.9875734e-107
-1.2303663e-113
-9.3589178e-120
-4.9578317e-126
-4.3773106e-132
4.7842418e-137
3.3079218e-137
4.0673146e-137
8.1104043e-138
1.2411535e-137
6.2836123e-138
9.0622552e-137
4.3561028e-138
1.2315117e-137
6.7119664e-137
6.2314567e-138
1.0214095e-138
1.5567333e-138
1.8033874e-138
4.4539616e-138
1.1341236e-137
1.3669426e-138
1.805962e-139
5.4720972e-139
2.8522695e-139
3.9351299e-139
3.5911776e-139
-1.363826e-07
1.2098737e-17
-1.1235383e-27
2.0712438e-37
-2.5039991e-46
-4.5025212e-55
-1.3587622e-63
-2.4068543e-71
3.1836135e-78
-7.836117e-85
-1.4772828e-90
-9.5317915e-97
-4.7881631e-103
-4.0065613e-109
-2.9033515e-115
-3.3026867e-121
-3.150836e-127
-3.4248368e-133
-2.663306e-139
2.5647222e-143
3.4510666e-143
4.4926764e-144
1.4708459e-143
6.9446857e-144
6.1807259e-143
3.1749107e-144
2.0293779e-143
3.9666486e-143
9.3867034e-144
9.7718271e-145
1.7203357e-144
1.3224149e-144
3.3749609e-144
7.9090312e-144
1.0114897e-144
1.6961923e-145
3.4355136e-145
2.2927983e-145
2.127972e-145
6.0677628e-145
-1.1832483e-07
9.0646683e-18
-7.1422198e-28
1.0639318e-37
-8.4107879e-47
-1.4645817e-55
-3.5789225e-64
-4.293175e-72
6.9301119e-79
-1.1320889e-85
2.8558547e-91
2.4964976e-97
1.9955435e-103
1.1455319e-109
1.1164668e-115
8.3750034e-122
1.3332833e-127
1.0107099e-133
9.0168838e-140
8.4988498e-146
4.036246e-149
4.8706648e-150
1.4222887e-149
5.9691094e-150
7.2257844e-149
3.9381973e-150
2.1265081e-149
4.2087954e-149
5.2904016e-150
6.5983104e-151
2.2187082e-150
1.1757956e-150
2.2876218e-150
7.5032696e-150
1.2040191e-150
9.9463294e-152
1.8111288e-151
1.8141201e-151
1.4612309e-151
7.5584709e-151
-1.0290251e-07
6.827735e-18
-4.5869363e-28
5.5776739e-38
-3.066098e-47
-5.4083429e-56
-1.0939156e-64
-9.2761484e-73
2.5224303e-79
-3.5359818e-86
5.4049433e-92
5.7444425e-98
4.4954429e-104
2.7760651e-110
5.6400368e-116
5.3724015e-122
4.2790898e-128
2.9531177e-134
2.3761441e-140
1.8690928e-146
1.1377387e-152
4.5071171e-156
1.4472684e-155
3.8640091e-156
5.8878258e-155
3.790578e-156
1.8096242e-155
3.8282314e-155
3.9471712e-156
5.9159074e-157
3.21359e-156
7.9494909e-157
2.1444085e-156
7.0342574e-156
1.2528619e-156
1.5220593e-157
1.3695387e-157
1.2693801e-157
1.9131595e-157
2.7582819e-156
-8.9672522e-08
5.1665767e-18
-2.9725234e-28
2.9774236e-38
-1.1863296e-47
-2.2603296e-56
-3.8533687e-65
-2.4086517e-73
-8.8114463e-80
9.860059e-87
-4.6848807e-93
-4.9337024e-99
-3.8057865e-105
-2.5807758e-111
-1.6075322e-117
-1.9280853e-123
-1.2915086e-129
-1.2888198e-135
-7.8537942e-142
-7.2385287e-148
-5.5886262e-154
-4.8206282e-160
1.139551e-161
3.0742211e-162
4.5986731e-161
3.3524767e-162
1.6285841e-161
2.2935842e-161
2.6049515e-162
3.5694573e-163
2.2481827e-162
8.8841868e-163
1.811139e-162
4.9152055e-162
1.2619895e-162
1.4139414e-163
9.4351285e-164
8.4128715e-164
2.7771378e-163
-7.309401e-162
-7.8280149e-08
3.9260148e-18
-1.9423092e-28
1.6155982e-38
-4.8117271e-48
-1.098078e-56
-1.6017335e-65
-7.5331488e-74
-7.1213559e-81
6.9103732e-88
-3.0013493e-94
-8.518847e-100
-9.7272994e-106
-8.7446818e-112
-8.3658041e-118
-1.0521632e-123
-8.5478682e-130
-6.6257207e-136
-7.1905288e-142
-5.0440061e-148
-3.4399578e-154
-3.5554972e-160
-2.4717275e-166
2.2436068e-168
3.3424693e-167
4.2160216e-168
2.2328682e-167
1.8013984e-167
3.7123447e-168
1.8516077e-169
1.8022707e-168
6.8305957e-169
1.4800927e-168
2.8119092e-168
1.1282095e-168
8.817167e-170
7.8226104e-170
6.4729154e-170
3.5154385e-169
1.4433993e-167
-6.8446122e-08
2.9947435e-18
-1.2786688e-28
8.8941324e-39
-2.0272969e-48
-6.8740543e-57
-8.7352777e-66
-3.1912831e-74
-1.3885818e-81
1.1906714e-88
-4.2871935e-95
-4.919521e-101
-4.4596112e-107
-3.6614465e-113
-2.3984945e-119
-2.6610401e-125
-2.5967471e-131
-2.6687715e-137
-1.8029975e-143
-1.8189314e-149
-1.1798558e-155
-7.7649226e-162
-1.0314729e-167
-5.5906685e-174
3.4248997e-173
2.4723222e-174
1.7038849e-173
1.3350479e-173
2.2942999e-174
9.9400473e-176
1.8034767e-174
5.3831603e-175
1.6788981e-174
2.5953537e-174
9.6132551e-175
6.6660087e-176
7.1547085e-176
4.2232118e-176
2.8654051e-175
-2.7558819e-173
-5.9932001e-08
2.2923058e-18
-8.4760119e-29
4.9622494e-39
-8.8200144e-49
-1.0744889e-56
-1.2103315e-65
-3.4922398e-74
-8.9022514e-82
7.4069258e-89
-1.8646403e-95
-4.3325957e-101
-3.062173e-107
-1.9730758e-113
-1.935304e-119
-1.5630482e-125
-1.0255647e-131
-8.488835e-138
-7.0730714e-144
-5.4793862e-150
-5.7588868e-156
-6.4143422e-162
-6.4404787e-168
-9.8082822e-174
1.688853e-179
1.9971573e-180
1.5475828e-179
1.921521e-179
2.5724554e-180
5.5403179e-182
1.3807536e-180
4.0602346e-181
1.2224369e-180
1.6793887e-180
9.8039108e-181
4.3392307e-182
4.9281689e-182
3.9891944e-182
5.8464703e-181
1.7560504e-179
-5.2549322e-08
1.7603938e-18
-5.6544619e-29
2.8023723e-39
-3.9452297e-49
1.8159578e-57
1.84369e-66
4.2769013e-75
6.9902768e-83
-6.0255756e-90
9.5663627e-97
1.5092371e-102
9.1869185e-109
1.1801581e-114
9.0565537e-121
6.1745621e-127
5.3857708e-133
6.139335e-139
6.83367e-145
4.6950727e-151
4.7631066e-157
3.2200307e-163
2.5930421e-169
1.5830657e-175
2.2523427e-181
1.3331628e-186
1.1157786e-185
1.5293052e-185
2.3142049e-186
3.9193038e-188
9.707589e-187
3.5076286e-187
9.9358163e-187
1.1095011e-186
8.5639583e-187
4.6276891e-188
5.061343e-188
3.3267946e-188
1.6641247e-185
-1.0973653e-185
-4.6130015e-08
1.355867e-18
-3.7939606e-29
1.6000759e-39
-1.8079032e-49
2.9250605e-58
2.7291938e-67
5.1792091e-76
5.8512114e-84
-5.4006535e-91
7.4735187e-98
-1.1837787e-103
-9.9690531e-110
-5.17451e-116
-4.2912031e-122
-8.0159919e-128
-5.362012e-134
-3.5590513e-140
-2.3785368e-146
-3.3861694e-152
-4.3679801e-158
-3.8885969e-164
-2.9470139e-170
-2.5918494e-176
-1.8261438e-182
-9.7879852e-189
7.8199674e-192
1.3356505e-191
1.799145e-192
3.8151906e-194
7.6278223e-193
2.1943983e-193
1.0310084e-192
9.1860806e-193
9.7446e-193
2.8349742e-194
3.9317589e-194
3.9333028e-194
2.2650266e-191
7.4797495e-192
-4.0537446e-08
1.0470998e-18
-2.5592928e-29
9.2295674e-40
-8.4636085e-50
7.4168227e-59
6.4800758e-68
1.0228344e-76
8.2158344e-85
-1.0695409e-91
1.2974513e-98
-1.1923711e-104
-8.9649538e-111
-6.5285086e-117
-5.0236595e-123
-5.4993569e-129
-4.1635034e-135
-3.6242526e-141
-5.777566e-147
-3.6799177e-153
-4.5886466e-159
-3.0655567e-165
-2.2377782e-171
-1.3209162e-177
-8.527804e-184
-6.2846082e-190
-4.6165091e-196
1.1430075e-197
1.1029126e-198
2.2887832e-200
4.699215e-199
1.0861215e-199
6.4692639e-199
6.6694113e-199
4.7262194e-199
2.3586675e-200
3.7130091e-200
3.0000142e-200
-5.4396121e-197
-1.0473023e-197
-3.5653509e-08
8.1056409e-19
-1.7347274e-29
5.372746e-40
-4.0377713e-50
2.2330645e-59
1.8720023e-68
2.4847599e-77
1.4827573e-85
-5.2345067e-92
5.1310083e-99
-3.3049805e-105
-3.4643478e-111
-2.3628491e-117
-1.440997e-123
-1.5425655e-129
-1.8365582e-135
-1.8762507e-141
-1.6399109e-147
-1.1465325e-153
-6.7162134e-160
-6.0706387e-166
-4.4236758e-172
-9.0486e-178
-1.0750031e-183
-1.6222843e-189
-1.2885873e-195
-7.8364201e-202
7.9739851e-205
2.0107277e-206
3.021963e-205
6.7109992e-206
3.7146143e-205
6.9360297e-205
3.3983879e-205
1.6684053e-206
3.167648e-206
2.0786716e-206
-1.0264954e-201
2.7722913e-203
-3.1386967e-08
6.2890555e-19
-1.1812464e-29
3.154766e-40
-1.9599805e-50
7.4110787e-60
6.1301346e-69
6.9421808e-78
3.1583501e-86
7.305159e-93
-5.9249913e-100
2.6288614e-106
3.4831201e-112
2.9866259e-118
2.075304e-124
1.9327144e-130
1.8099273e-136
1.1179049e-142
8.9656143e-149
9.9599964e-155
6.7972959e-161
4.8886539e-167
6.143483e-173
3.6895627e-179
2.5548191e-185
2.2131827e-191
2.1118975e-197
1.7252066e-203
2.0520317e-209
1.5945658e-212
2.2054897e-211
3.8207554e-212
2.7263328e-211
4.9115169e-211
2.2129493e-211
7.9318383e-213
2.1989274e-212
3.6988264e-212
3.0046652e-207
2.7548137e-209
-2.7648747e-08
4.8886848e-19
-8.0757694e-30
1.8667519e-40
-9.6612268e-51
2.6280706e-60
2.2188535e-69
2.1702012e-78
7.6725505e-87
5.5183332e-94
-4.2036718e-101
1.3488206e-107
3.38385e-113
2.2505589e-119
2.933696e-125
2.4423297e-131
3.1846491e-137
2.096564e-143
1.1261266e-149
1.1463073e-155
1.4616617e-161
9.5772785e-168
6.7649187e-174
5.3842794e-180
4.2975915e-186
3.7982692e-192
3.4492221e-198
5.7387509e-204
5.5436744e-210
4.6914928e-216
1.6299745e-217
2.1819775e-218
1.6491794e-217
3.588496e-217
1.4203314e-217
9.9834926e-219
1.8575307e-218
3.0391844e-218
1.0957122e-212
1.6450669e-215
-2.4371429e-08
3.8068932e-19
-5.5418942e-30
1.1126502e-40
-4.8299887e-51
9.7877311e-61
8.857684e-70
7.5715325e-79
2.1279645e-87
7.6166081e-95
-5.1683175e-102
1.0934363e-108
1.6246731e-114
1.3369737e-120
1.2892167e-126
1.2521708e-132
8.8647319e-139
7.5557466e-145
7.716085e-151
6.9145228e-157
7.001786e-163
8.2291002e-169
7.2083736e-175
4.9076792e-181
3.9541807e-187
3.6855523e-193
3.4754209e-199
2.6978432e-205
2.4108565e-211
2.0901542e-217
4.5606483e-223
1.5973638e-224
1.2188566e-223
2.2477941e-223
1.0400676e-223
9.366744e-225
2.9905889e-224
3.7932055e-224
1.3214055e-218
6.0197472e-222
-2.1493356e-08
2.9689823e-19
-3.8158305e-30
6.6756528e-41
-2.4459937e-51
3.7910044e-61
3.9564756e-70
2.9943822e-79
6.7798108e-88
1.4656975e-95
-9.7146744e-103
1.6530492e-109
1.5451216e-114
1.4724047e-120
1.2477299e-126
2.1853831e-132
2.7417385e-138
3.1965189e-144
7.8556439e-150
5.0483603e-156
3.9032528e-162
3.6773386e-168
3.9388141e-174
2.7335899e-180
3.3404382e-186
3.1749536e-192
2.0235236e-198
2.1439137e-204
1.752014e-210
1.9031294e-216
1.1850193e-222
8.0547006e-229
7.5671661e-230
1.1379212e-229
6.5170121e-230
9.8255725e-231
2.6180645e-230
8.1028645e-230
3.4955041e-224
1.2316551e-228
-1.8963031e-08
2.318545e-19
-2.6353439e-30
4.0295171e-41
-1.2532622e-51
1.5163016e-61
2.0844752e-70
1.4137583e-79
2.6172674e-88
3.7285049e-96
-2.5216776e-103
3.4796017e-110
-8.9421923e-116
-1.3398046e-121
-1.3292516e-127
-1.9373128e-133
-2.713426e-139
-2.1543258e-145
-3.8705512e-151
-5.7364396e-157
-5.8970221e-163
-6.1702424e-169
-8.834706e-175
-6.0578608e-181
-6.1389269e-187
-7.0860449e-193
-8.0173404e-199
-4.6441192e-205
-3.5607318e-211
-5.4726453e-217
-4.6134823e-223
-3.3824218e-229
-1.7012973e-235
7.0053253e-236
8.065636e-236
7.6063359e-237
1.9602836e-236
5.1084307e-236
3.9723355e-230
2.2073047e-235
-1.6736914e-08
1.8126504e-19
-1.8250012e-30
2.4458182e-41
-6.491242e-52
6.2328406e-62
1.5741914e-70
9.6809111e-80
1.4858019e-88
1.4825512e-96
-1.1327436e-103
1.3044152e-110
-2.1784963e-116
-2.0336721e-122
-3.4369507e-128
-4.7801767e-134
-5.2656632e-140
-6.8828394e-146
-7.5516484e-152
-1.136577e-157
-1.6037896e-163
-1.9234535e-169
-1.6552371e-175
-1.2633889e-181
-1.3001528e-187
-1.2770345e-193
-1.3822279e-199
-7.8382765e-206
-5.8481568e-212
-3.9615875e-218
-3.6987572e-224
-2.4297708e-230
-1.5187376e-236
6.1935492e-242
5.266985e-242
6.0788513e-243
1.4570976e-241
7.2994295e-242
1.7503329e-236
4.2348426e-242
-1.4777005e-08
1.418522e-19
-1.2668933e-30
1.4920984e-41
-3.3954931e-52
2.6231556e-62
-4.6379774e-70
-2.6206491e-79
-3.3765903e-88
-2.4753627e-96
2.5142246e-103
-2.5150867e-110
1.5586179e-116
2.0193316e-122
2.3664821e-128
3.1228988e-134
2.1280575e-140
1.9925823e-146
2.6704917e-152
3.2641127e-158
2.4675655e-164
2.8243635e-170
5.8991145e-176
6.3366405e-182
4.3685026e-188
3.6505862e-194
5.2493605e-200
3.1957609e-206
3.021726e-212
5.4689439e-218
4.4262654e-224
3.9718034e-230
3.9906177e-236
3.9867523e-242
8.1456595e-248
4.4112503e-249
2.1308879e-247
1.8548338e-247
7.9856753e-243
7.6460605e-249
-1.3050549e-08
1.1110382e-19
-8.813904e-31
9.1451987e-42
-1.7923579e-52
1.127207e-62
-1.7232386e-71
-9.0720021e-81
-9.9146809e-90
-5.4818438e-98
1.0151284e-104
-8.6795483e-112
3.7019662e-118
4.8236243e-124
4.6429321e-130
8.7831669e-136
1.4873184e-141
1.7731526e-147
1.4271524e-153
1.6956981e-159
1.4638177e-165
2.1747543e-171
3.3729435e-177
4.363144e-183
3.0520798e-189
3.2022147e-195
3.0837697e-201
6.6743922e-207
5.0026281e-213
3.2437138e-219
2.6305436e-225
4.3049438e-231
3.0864939e-237
3.235202e-243
2.829316e-249
8.9751857e-255
2.3271325e-253
1.4579788e-253
2.4277253e-249
1.3828132e-255
-1.1529657e-08
8.7087895e-20
-6.1439821e-31
5.6292935e-42
-9.5414928e-53
4.93447e-63
-3.4759743e-72
-1.7312795e-81
-1.6238056e-90
-6.9366927e-99
-3.5165261e-105
2.6819976e-112
-7.7234274e-119
4.9220668e-124
1.5446227e-129
2.0199342e-135
2.798365e-141
3.0119019e-147
3.0562336e-153
1.6217327e-158
1.2461487e-164
1.3875483e-170
2.0876863e-176
4.1049854e-182
3.1420032e-188
2.9314232e-194
2.7252657e-200
2.4619426e-206
1.8853683e-212
2.1487446e-218
2.3767686e-224
2.5896997e-230
1.7798001e-236
3.6201254e-242
3.3173893e-248
4.549408e-254
4.2012342e-259
9.5142484e-260
9.3078859e-256
2.9893315e-262
-1.019031e-08
6.8315569e-20
-4.2907919e-31
3.4790355e-42
-5.1193473e-53
2.1965455e-63
-9.224968e-73
-4.4231983e-82
-3.5935109e-91
-1.2123176e-99
-1.0357589e-106
7.0210895e-114
-1.6204858e-120
-2.6933203e-124
-2.5465481e-130
-1.1475839e-135
-1.2110219e-141
-1.7611858e-147
-4.5247391e-153
-4.4957705e-159
-7.3528472e-165
-1.2203916e-170
-1.5419367e-176
-2.5757189e-182
-2.2812393e-188
-2.4192131e-194
-1.76818e-200
-2.7546977e-206
-2.3897083e-212
-3.4627744e-218
-3.2483431e-224
-3.7019356e-230
-2.6332369e-236
-2.1209881e-242
-3.7441942e-248
-4.5738689e-254
-1.5576602e-259
-4.5698984e-266
2.4592259e-262
6.2988708e-269
-9.011284e-09
5.3633831e-20
-3.0018795e-31
2.1582909e-42
-2.7671164e-53
9.9281852e-64
-2.7807978e-73
-1.3096715e-82
-9.3162511e-92
-2.5169439e-100
-1.0389388e-107
6.6747339e-115
-1.2767837e-121
1.6878098e-126
2.5067123e-132
2.1965248e-138
3.3911489e-144
4.6549566e-150
2.8556602e-155
2.7461186e-161
3.4780437e-167
1.0284678e-172
1.0506855e-178
1.4265008e-183
1.5122073e-189
1.3020025e-195
1.6604325e-201
1.4397551e-207
2.715648e-213
3.0222902e-219
3.5473478e-225
2.3595974e-231
4.2786601e-237
4.2154906e-243
1.1037191e-248
9.0119415e-255
2.4689471e-260
1.7454903e-266
5.4750821e-269
1.2411463e-275
-7.974147e-09
4.2146582e-20
-2.1038893e-31
1.3438603e-42
-1.5062376e-53
4.5512183e-64
-9.0677321e-74
-4.3004075e-83
-2.7032812e-92
-5.9527028e-101
-1.4585987e-108
9.324794e-116
-1.5366878e-122
1.9742177e-128
2.3207089e-134
1.2654511e-139
6.663088e-145
1.4578988e-150
1.0948839e-155
9.5688323e-162
1.5650423e-167
2.7957672e-173
2.0874167e-179
2.3315818e-185
2.3839973e-191
3.0190738e-197
5.2015514e-203
3.9920219e-209
4.3615753e-215
1.8933255e-220
5.0434846e-226
3.4666411e-232
2.7034217e-238
6.129775e-244
1.0971294e-249
1.5956682e-254
3.3632649e-260
2.7301951e-266
5.8445691e-273
6.2394564e-280
-7.0629473e-09
3.315866e-20
-1.4773425e-31
8.3980569e-43
-8.2548436e-54
2.1140481e-64
-3.1256259e-74
-1.5414241e-83
-8.6441902e-93
-1.5709681e-101
-2.5249723e-109
1.7010378e-116
-2.3094776e-123
2.3545172e-129
5.0448787e-135
1.0951268e-140
4.9285036e-146
3.6478691e-151
-4.7548759e-156
-5.0969505e-161
-5.8207926e-167
-2.0111548e-172
-3.1197522e-178
-9.0649653e-184
-1.4170291e-189
-4.7281536e-194
-3.4441951e-200
-6.4560031e-206
-1.1174309e-211
-3.0515797e-217
-3.3581877e-223
-5.4836143e-229
-6.2068036e-235
-4.5204709e-241
-1.4350816e-246
-3.4853497e-252
-1.2037078e-257
-6.1532755e-264
-1.1588113e-270
-1.1270997e-277
-6.2633223e-09
2.6125477e-20
-1.0395568e-31
5.2676449e-43
-4.554287e-54
9.9430742e-65
-1.1241709e-74
-6.0250357e-84
-3.0436425e-93
-4.6194774e-102
-5.2323347e-110
3.8816571e-117
-4.5621071e-124
4.1446518e-130
1.4014624e-135
1.9335331e-141
8.1734344e-147
2.9071781e-152
1.068783e-156
1.9715376e-162
2.5102168e-168
8.7796883e-174
2.9220125e-179
-4.8723126e-185
-8.5256582e-191
-1.9889285e-196
-7.35726e-202
-6.2232837e-208
-9.5436365e-214
-7.7081455e-220
-8.0924357e-226
-8.1306629e-232
-1.477686e-237
-2.4060561e-243
-4.2352801e-249
-5.2615585e-254
4.8806659e-258
2.4538691e-264
4.2204159e-271
3.8534634e-278
-5.5629262e-09
2.0623576e-20
-7.33311e-32
3.3171806e-43
-2.5295986e-54
4.7333643e-65
-4.1874764e-75
-2.606525e-84
-1.1978954e-93
-1.5349411e-102
-1.2746766e-110
1.0904875e-117
-1.0547073e-124
4.8609882e-131
3.8267259e-136
1.0648216e-141
-2.1801699e-146
5.5258457e-152
8.4136045e-157
3.378381e-162
5.3844511e-168
1.6385277e-173
5.7073833e-179
1.1820738e-184
1.6992293e-190
6.703595e-196
9.5599329e-202
2.9186117e-207
4.0820594e-213
3.5451946e-219
2.2266361e-224
7.1657188e-230
1.4192348e-235
1.0505087e-240
2.8165172e-246
-1.6271421e-251
-7.9798769e-257
-3.3777115e-263
-5.460771e-270
-4.8243901e-277
-4.9505032e-09
1.63203e-20
-5.1880614e-32
2.0979298e-43
-1.4147534e-54
2.2801308e-65
-1.6071548e-75
-1.3061501e-84
-5.5142256e-94
-6.0255606e-103
-3.8044633e-111
5.321834e-118
-4.7574813e-125
1.6898365e-131
5.6497756e-137
-2.5083608e-142
3.3068644e-146
-2.402693e-151
2.0004142e-156
4.7767706e-161
8.1504768e-166
5.5843388e-171
4.0598191e-176
6.4540609e-182
1.50923e-187
3.2982669e-193
-2.0357086e-198
-3.0192663e-203
-9.2273511e-209
-2.5588979e-214
-6.385039e-220
-7.5900798e-226
-1.5053012e-231
-3.5719954e-237
-9.4612649e-243
4.0443935e-248
-9.8858254e-254
-4.2053522e-260
-6.23807e-267
-5.6757972e-274
-4.4162172e-09