/*--------------------------------*- C++ -*----------------------------------*\
  =========                 |
  \\      /  F ield         | OpenFOAM: The Open Source CFD Toolbox
   \\    /   O peration     | Website:  https://openfoam.org
    \\  /    A nd           | Version:  10
     \\/     M anipulation  |
\*---------------------------------------------------------------------------*/
FoamFile
{
    format      ascii;
    class       volVectorField;
    location    "0.21";
    object      U;
}
// * * * * * * * * * * * * * * * * * * * * * * * * * * * * * * * * * * * * * //

dimensions      [0 1 -1 0 0 0 0];

internalField   nonuniform List<vector> 
4000
(
(0 0.018637426 0.47773158)
(0 0.023509939 0.5088606)
(0 0.0081667957 0.50052522)
(0 0.0056145608 0.50033634)
(0 0.0042545766 0.50025746)
(0 0.0032548984 0.50016898)
(0 0.0025560539 0.50011968)
(0 0.0020545576 0.50009013)
(0 0.0016765702 0.5000698)
(0 0.0013822481 0.50005539)
(0 0.0011472188 0.50004499)
(0 0.00095514321 0.50003733)
(0 0.00079476693 0.50003159)
(0 0.00065811404 0.50002727)
(0 0.00053935599 0.50002398)
(0 0.00043411188 0.5000215)
(0 0.0003389941 0.50001966)
(0 0.00025130047 0.50001833)
(0 0.00016879805 0.50001744)
(0 8.9564631e-05 0.50001693)
(0 1.1866562e-05 0.50001678)
(0 -6.5948467e-05 0.50001698)
(0 -0.00014554298 0.50001754)
(0 -0.00022868179 0.5000185)
(0 -0.00031734271 0.5000199)
(0 -0.00041384714 0.50002185)
(0 -0.00052103187 0.50002446)
(0 -0.00064248835 0.50002793)
(0 -0.00078291063 0.50003252)
(0 -0.00094862507 0.50003863)
(0 -0.0011484416 0.50004688)
(0 -0.0013950189 0.50005824)
(0 -0.0017071036 0.50007414)
(0 -0.0021150452 0.50009709)
(0 -0.0026747583 0.50013482)
(0 -0.0034683558 0.50020238)
(0 -0.0045606182 0.50027144)
(0 -0.0065848292 0.50043366)
(0 -0.017659274 0.50675403)
(0 -0.013590037 0.47975569)
(0 0.037432594 0.44796939)
(0 0.05095555 0.53232614)
(0 0.021969123 0.50804289)
(0 0.016135467 0.50357319)
(0 0.01241591 0.50242315)
(0 0.0095157997 0.50162298)
(0 0.0075204944 0.50115659)
(0 0.006069802 0.5008659)
(0 0.0049645245 0.50066798)
(0 0.0041001288 0.50052898)
(0 0.003407664 0.50042901)
(0 0.0028401819 0.5003555)
(0 0.0023653083 0.50030061)
(0 0.0019599587 0.50025921)
(0 0.0016071723 0.50022786)
(0 0.0012941531 0.5002042)
(0 0.0010109759 0.50018659)
(0 0.00074970181 0.50017392)
(0 0.00050375623 0.50016541)
(0 0.00026746892 0.50016058)
(0 3.5718744e-05 0.50015915)
(0 -0.00019637438 0.50016105)
(0 -0.00043372031 0.5001664)
(0 -0.00068153017 0.50017551)
(0 -0.00094563492 0.50018893)
(0 -0.0012328645 0.50020749)
(0 -0.0015515438 0.50023243)
(0 -0.0019121797 0.50026555)
(0 -0.0023284539 0.50030947)
(0 -0.002818707 0.50036809)
(0 -0.003408315 0.50044735)
(0 -0.0041336546 0.50055671)
(0 -0.0050478058 0.50071127)
(0 -0.0062306351 0.50093663)
(0 -0.0078310265 0.50129441)
(0 -0.010124775 0.50191057)
(0 -0.013106008 0.50282517)
(0 -0.017425452 0.50608122)
(0 -0.038758291 0.5252681)
(0 -0.027894328 0.45021695)
(0 0.039888134 0.40982088)
(0 0.061427804 0.54930819)
(0 0.03198341 0.52188194)
(0 0.024355214 0.51008056)
(0 0.019193355 0.50658855)
(0 0.014976924 0.50452805)
(0 0.012006544 0.50327135)
(0 0.0097718036 0.50245833)
(0 0.0080364624 0.501901)
(0 0.0066648733 0.50150862)
(0 0.0055568146 0.5012254)
(0 0.0046427512 0.50101664)
(0 0.0038739441 0.50086048)
(0 0.0032149965 0.50074256)
(0 0.0026395731 0.50065317)
(0 0.0021276198 0.50058565)
(0 0.0016634584 0.50053539)
(0 0.0012344679 0.50049918)
(0 0.00083014023 0.50047486)
(0 0.00044137506 0.50046104)
(0 5.9930013e-05 0.50045695)
(0 -0.00032205768 0.50046239)
(0 -0.00071249785 0.50047768)
(0 -0.0011197711 0.50050371)
(0 -0.0015532238 0.50054202)
(0 -0.0020237519 0.50059499)
(0 -0.002544555 0.50066613)
(0 -0.0031321674 0.50076051)
(0 -0.0038079203 0.50088552)
(0 -0.0046000548 0.50105208)
(0 -0.005546927 0.50127674)
(0 -0.0067025188 0.50158561)
(0 -0.0081440327 0.50202082)
(0 -0.0099755601 0.50265078)
(0 -0.012369916 0.50361516)
(0 -0.015715066 0.5051993)
(0 -0.019871655 0.50785409)
(0 -0.02518534 0.51641231)
(0 -0.047416067 0.53912746)
(0 -0.030853221 0.41488138)
(0 0.034791402 0.36173071)
(0 0.063838436 0.55456351)
(0 0.039379858 0.53747131)
(0 0.030082932 0.5184926)
(0 0.024112172 0.51197727)
(0 0.019279205 0.50849939)
(0 0.015735844 0.50626416)
(0 0.012953926 0.50475533)
(0 0.010743488 0.50370429)
(0 0.0089678365 0.50295597)
(0 0.0075139403 0.50241091)
(0 0.0063021327 0.50200661)
(0 0.0052746074 0.5017028)
(0 0.004388106 0.50147257)
(0 0.0036098105 0.50129754)
(0 0.0029143358 0.50116506)
(0 0.0022815741 0.50106625)
(0 0.0016951635 0.50099499)
(0 0.0011413618 0.50094707)
(0 0.00060818777 0.50091981)
(0 8.4739021e-05 0.50091174)
(0 -0.00043940683 0.50092245)
(0 -0.00097473263 0.50095257)
(0 -0.0015323103 0.5010038)
(0 -0.0021244205 0.50107914)
(0 -0.0027652709 0.50118316)
(0 -0.0034719022 0.50132259)
(0 -0.0042653935 0.5015071)
(0 -0.0051725263 0.50175069)
(0 -0.0062280815 0.50207384)
(0 -0.0074779292 0.50250702)
(0 -0.0089843028 0.50309723)
(0 -0.010834575 0.50391918)
(0 -0.013135308 0.50508925)
(0 -0.01602216 0.50680694)
(0 -0.019897707 0.50946763)
(0 -0.024729869 0.51427506)
(0 -0.031111693 0.52824704)
(0 -0.050318228 0.54407254)
(0 -0.028437791 0.37238313)
(0 0.027424049 0.31484433)
(0 0.062314229 0.55024109)
(0 0.044613753 0.55146757)
(0 0.033981363 0.52748808)
(0 0.027463427 0.51772237)
(0 0.02245458 0.51291971)
(0 0.018636278 0.50973126)
(0 0.015527712 0.50749242)
(0 0.013005901 0.50589968)
(0 0.010942015 0.50474661)
(0 0.0092246721 0.50389581)
(0 0.0077750174 0.50325882)
(0 0.0065330624 0.50277672)
(0 0.00545238 0.50240931)
(0 0.0044969192 0.50212878)
(0 0.0036382121 0.5019157)
(0 0.0028533121 0.50175636)
(0 0.0021232776 0.50164118)
(0 0.0014320117 0.50156363)
(0 0.00076535187 0.50151945)
(0 0.00011033092 0.50150634)
(0 -0.00054548436 0.50152365)
(0 -0.0012145957 0.50157237)
(0 -0.0019101522 0.50165518)
(0 -0.0026466344 0.50177677)
(0 -0.0034406247 0.50194429)
(0 -0.0043117528 0.50216814)
(0 -0.0052839062 0.50246322)
(0 -0.0063868386 0.50285076)
(0 -0.0076583282 0.50336143)
(0 -0.0091466415 0.50403986)
(0 -0.010914218 0.50495258)
(0 -0.013047896 0.50620242)
(0 -0.015651478 0.50794426)
(0 -0.018812817 0.51040447)
(0 -0.022893423 0.51405507)
(0 -0.028174775 0.52114571)
(0 -0.035704721 0.53932658)
(0 -0.050474704 0.54155684)
(0 -0.024085597 0.33056232)
(0 0.019837675 0.27519937)
(0 0.0579892 0.53974743)
(0 0.047362793 0.5625647)
(0 0.036476714 0.53660443)
(0 0.02963529 0.523507)
(0 0.024675363 0.5174031)
(0 0.020773582 0.51336275)
(0 0.01750925 0.51044421)
(0 0.014813865 0.50832382)
(0 0.012566495 0.50676138)
(0 0.010665612 0.50559231)
(0 0.009039221 0.50470749)
(0 0.0076297019 0.50403198)
(0 0.0063911908 0.50351357)
(0 0.0052872259 0.50311555)
(0 0.0042883352 0.50281186)
(0 0.0033702873 0.50258398)
(0 0.0025127426 0.50241883)
(0 0.0016981743 0.50230738)
(0 0.00091099225 0.5022438)
(0 0.00013681645 0.50222487)
(0 -0.00063818939 0.5022497)
(0 -0.0014279333 0.50231964)
(0 -0.002246973 0.50243842)
(0 -0.0031112069 0.50261248)
(0 -0.0040386253 0.50285162)
(0 -0.0050502067 0.50316997)
(0 -0.0061710199 0.50358753)
(0 -0.0074316177 0.50413248)
(0 -0.0088699319 0.50484476)
(0 -0.010533232 0.50578138)
(0 -0.012479814 0.50702462)
(0 -0.014789895 0.50869765)
(0 -0.017565265 0.5109821)
(0 -0.020859907 0.51412034)
(0 -0.024970093 0.51873065)
(0 -0.030505159 0.52823024)
(0 -0.03862646 0.54872445)
(0 -0.048506247 0.53398767)
(0 -0.019066234 0.29394537)
(0 0.01308293 0.24255714)
(0 0.051797836 0.52520212)
(0 0.047708064 0.57024854)
(0 0.037755826 0.5455247)
(0 0.030849309 0.52928842)
(0 0.026072538 0.52180137)
(0 0.022237129 0.51699751)
(0 0.01895302 0.51347295)
(0 0.016193023 0.51086434)
(0 0.013849326 0.50891177)
(0 0.011835432 0.5074319)
(0 0.010088753 0.50629973)
(0 0.008556664 0.5054275)
(0 0.0071964125 0.50475307)
(0 0.0059731961 0.50423206)
(0 0.0048581941 0.50383256)
(0 0.0038272157 0.50353159)
(0 0.0028595861 0.50331278)
(0 0.0019372147 0.50316477)
(0 0.0010438148 0.50308018)
(0 0.00016423978 0.50305489)
(0 -0.0007161409 0.50308778)
(0 -0.0016120295 0.50318057)
(0 -0.0025387344 0.50333797)
(0 -0.0035128244 0.50356814)
(0 -0.0045528079 0.50388334)
(0 -0.0056799269 0.50430119)
(0 -0.0069190992 0.5048463)
(0 -0.008300034 0.50555295)
(0 -0.0098588059 0.50646892)
(0 -0.011639614 0.50766136)
(0 -0.013694708 0.50922512)
(0 -0.016093599 0.51129818)
(0 -0.018931589 0.5140799)
(0 -0.022240055 0.51783911)
(0 -0.026259791 0.52346848)
(0 -0.031843656 0.5353756)
(0 -0.039754607 0.55589765)
(0 -0.044890894 0.52282892)
(0 -0.014089867 0.26265461)
(0 0.007769844 0.21554408)
(0 0.044824641 0.50801243)
(0 0.046253724 0.57438111)
(0 0.038033678 0.55375093)
(0 0.031286456 0.53496021)
(0 0.026767056 0.5260299)
(0 0.023115568 0.52053788)
(0 0.019919859 0.51648753)
(0 0.017181372 0.5134408)
(0 0.014812888 0.51112967)
(0 0.012745973 0.50935843)
(0 0.010928573 0.5079898)
(0 0.009314783 0.50692618)
(0 0.0078666307 0.50609764)
(0 0.0065523696 0.50545359)
(0 0.0053450401 0.50495718)
(0 0.0042215286 0.50458163)
(0 0.003161701 0.50430768)
(0 0.0021476515 0.5041219)
(0 0.0011630525 0.50401549)
(0 0.00019258535 0.50398354)
(0 -0.00077860809 0.5040247)
(0 -0.0017654554 0.50414101)
(0 -0.0027834145 0.5043381)
(0 -0.0038490604 0.50462565)
(0 -0.0049806605 0.50501815)
(0 -0.006198837 0.50553621)
(0 -0.0075273325 0.50620844)
(0 -0.0089938342 0.50707416)
(0 -0.010631142 0.50818753)
(0 -0.012478841 0.50962381)
(0 -0.014582068 0.51148803)
(0 -0.016997025 0.51392908)
(0 -0.019805383 0.5171557)
(0 -0.023023116 0.52148096)
(0 -0.026872691 0.5281835)
(0 -0.032344638 0.54222079)
(0 -0.039397171 0.56050389)
(0 -0.040324491 0.5090925)
(0 -0.0097071772 0.23586964)
(0 0.0040046555 0.19356022)
(0 0.03789813 0.48949069)
(0 0.043684839 0.57524074)
(0 0.037561843 0.56084463)
(0 0.031152423 0.54036072)
(0 0.02691257 0.53001089)
(0 0.023512689 0.52390114)
(0 0.020479114 0.51941174)
(0 0.017825823 0.5159868)
(0 0.015488847 0.51335776)
(0 0.013417855 0.51132281)
(0 0.011571493 0.50973608)
(0 0.009911596 0.50849293)
(0 0.0084059247 0.50751769)
(0 0.0070266463 0.506755)
(0 0.0057494858 0.50616413)
(0 0.004553157 0.50571522)
(0 0.0034187371 0.50538667)
(0 0.0023291078 0.50516325)
(0 0.0012684493 0.50503498)
(0 0.00022178301 0.50499628)
(0 -0.00082548221 0.50504558)
(0 -0.001888003 0.50518523)
(0 -0.0029808715 0.50542162)
(0 -0.0041201141 0.50576573)
(0 -0.005323149 0.50623391)
(0 -0.0066093006 0.50684927)
(0 -0.0080003832 0.50764362)
(0 -0.0095212573 0.50866029)
(0 -0.011200526 0.50995838)
(0 -0.01307206 0.5116192)
(0 -0.015173382 0.51375541)
(0 -0.01754713 0.51652277)
(0 -0.020257467 0.52013234)
(0 -0.023312267 0.52496431)
(0 -0.026953404 0.532741)
(0 -0.03219489 0.54839121)
(0 -0.037987227 0.5625468)
(0 -0.035410311 0.49380523)
(0 -0.0061994752 0.21326752)
(0 0.0015507693 0.17613828)
(0 0.031497984 0.47076672)
(0 0.040529592 0.57338698)
(0 0.036556191 0.56659791)
(0 0.030634892 0.54537782)
(0 0.026669456 0.5337039)
(0 0.023541102 0.52703136)
(0 0.020708686 0.52218728)
(0 0.018181546 0.51844989)
(0 0.015916205 0.5155495)
(0 0.013878233 0.51328396)
(0 0.01203619 0.51150264)
(0 0.010359774 0.5100965)
(0 0.0088227219 0.50898605)
(0 0.0074014989 0.50811256)
(0 0.0060749847 0.5074325)
(0 0.0048241997 0.5069137)
(0 0.0036318983 0.50653271)
(0 0.0024821969 0.50627294)
(0 0.0013602111 0.50612344)
(0 0.00025171392 0.50607808)
(0 -0.00085721501 0.50613514)
(0 -0.0019805559 0.50629718)
(0 -0.0031326206 0.50657124)
(0 -0.0043284563 0.50696932)
(0 -0.0055841793 0.50750924)
(0 -0.0069173419 0.50821605)
(0 -0.0083473389 0.50912396)
(0 -0.0098957455 0.51027928)
(0 -0.011586576 0.51174457)
(0 -0.013447559 0.51360517)
(0 -0.015508768 0.51597856)
(0 -0.017800833 0.51902329)
(0 -0.02037071 0.52295039)
(0 -0.023225645 0.52823666)
(0 -0.026645888 0.53704142)
(0 -0.03155568 0.55365963)
(0 -0.03589573 0.56231319)
(0 -0.030547898 0.47790842)
(0 -0.0035897513 0.19462852)
(0 7.6357027e-05 0.16253085)
(0 0.025868476 0.4526072)
(0 0.037156213 0.5694354)
(0 0.035187656 0.57098824)
(0 0.029874027 0.54996202)
(0 0.026170731 0.53711294)
(0 0.02330317 0.52991118)
(0 0.020685071 0.5247827)
(0 0.018305919 0.52079637)
(0 0.016137326 0.51767197)
(0 0.014157993 0.51521094)
(0 0.012345058 0.51326111)
(0 0.010675437 0.51171124)
(0 0.0091285091 0.51047964)
(0 0.0076850143 0.50950554)
(0 0.0063271388 0.50874356)
(0 0.0050384386 0.50815995)
(0 0.0038036194 0.50772997)
(0 0.0026083278 0.50743601)
(0 0.0014389178 0.50726641)
(0 0.00028221851 0.50721463)
(0 -0.00087471394 0.50727882)
(0 -0.0020448768 0.50746173)
(0 -0.0032414953 0.50777087)
(0 -0.0044783317 0.508219)
(0 -0.0057699028 0.50882502)
(0 -0.0071317115 0.50961534)
(0 -0.0085804927 0.51062583)
(0 -0.010134396 0.51190473)
(0 -0.011812914 0.51351678)
(0 -0.013637845 0.51554963)
(0 -0.015632412 0.51812304)
(0 -0.017817255 0.52139519)
(0 -0.020224767 0.52558054)
(0 -0.022868523 0.53128384)
(0 -0.026066237 0.5410322)
(0 -0.030557584 0.55793522)
(0 -0.033415962 0.56019833)
(0 -0.025989026 0.46209107)
(0 -0.0017637089 0.17949291)
(0 -0.00071837934 0.15191452)
(0 0.021105776 0.43544399)
(0 0.033815041 0.56393498)
(0 0.03359928 0.57408849)
(0 0.02897049 0.55409265)
(0 0.025515941 0.54026225)
(0 0.022882515 0.53255107)
(0 0.020475213 0.52719002)
(0 0.018251943 0.52301019)
(0 0.016193288 0.5197056)
(0 0.014288514 0.51708294)
(0 0.012521853 0.51499082)
(0 0.010876401 0.51331733)
(0 0.0093365177 0.51197985)
(0 0.0078869101 0.51091658)
(0 0.0065129709 0.51008115)
(0 0.005200816 0.50943887)
(0 0.0039372095 0.50896417)
(0 0.0027094853 0.50863878)
(0 0.001505422 0.50845058)
(0 0.00031310556 0.50839272)
(0 -0.00087922329 0.50846328)
(0 -0.0020833696 0.50866513)
(0 -0.0033112712 0.50900609)
(0 -0.0045752188 0.50949944)
(0 -0.0058879723 0.5101648)
(0 -0.0072628801 0.51102941)
(0 -0.0087139892 0.51213015)
(0 -0.010256123 0.51351633)
(0 -0.011904608 0.51525379)
(0 -0.013675903 0.51743118)
(0 -0.015587171 0.52016865)
(0 -0.017650888 0.52362212)
(0 -0.019888539 0.52801728)
(0 -0.022326274 0.53411197)
(0 -0.02530537 0.54468237)
(0 -0.029315754 0.56120865)
(0 -0.030779456 0.55659751)
(0 -0.02188725 0.44679149)
(0 -0.00056301548 0.16727352)
(0 -0.0010705299 0.143592)
(0 0.017200736 0.41949129)
(0 0.030661671 0.55734507)
(0 0.03190897 0.57601987)
(0 0.027998336 0.55776206)
(0 0.024778608 0.54317769)
(0 0.022345577 0.53497375)
(0 0.02013474 0.52941514)
(0 0.018065378 0.52508731)
(0 0.016121105 0.52164095)
(0 0.014299291 0.51888746)
(0 0.012589776 0.51667772)
(0 0.010980688 0.51490018)
(0 0.0094605808 0.51347212)
(0 0.0080176654 0.51233152)
(0 0.0066402748 0.51143163)
(0 0.0053169609 0.51073735)
(0 0.0040365233 0.51022267)
(0 0.0027880257 0.509869)
(0 0.0015607547 0.50966389)
(0 0.00034416131 0.50960036)
(0 -0.0008722109 0.50967642)
(0 -0.0020988555 0.50989501)
(0 -0.0033463163 0.51026415)
(0 -0.0046253298 0.5107974)
(0 -0.0059468586 0.51151476)
(0 -0.0073221248 0.51244391)
(0 -0.0087626116 0.51362216)
(0 -0.010280073 0.51509922)
(0 -0.011886161 0.51694126)
(0 -0.013592762 0.519237)
(0 -0.015411887 0.52210565)
(0 -0.017349533 0.52570014)
(0 -0.019420316 0.53026758)
(0 -0.021667829 0.53673273)
(0 -0.024436497 0.54797184)
(0 -0.027931873 0.56352388)
(0 -0.028156769 0.55187255)
(0 -0.01831672 0.43227443)
(0 0.00017075118 0.15742436)
(0 -0.0011536547 0.1370119)
(0 0.014075865 0.40482948)
(0 0.027776147 0.55004004)
(0 0.030204759 0.57692989)
(0 0.027009963 0.56097672)
(0 0.024011705 0.5458832)
(0 0.021744218 0.53720618)
(0 0.01970883 0.53147116)
(0 0.017784549 0.52703097)
(0 0.015952871 0.52347543)
(0 0.014216788 0.52061808)
(0 0.012570315 0.51831297)
(0 0.011005499 0.51644951)
(0 0.0095142794 0.51494547)
(0 0.0080878346 0.51373909)
(0 0.0067170814 0.51278372)
(0 0.0053927897 0.51204423)
(0 0.0041056796 0.5114945)
(0 0.0028464991 0.51111581)
(0 0.0016060439 0.51089562)
(0 0.00037515884 0.51082685)
(0 -0.00085526728 0.5109075)
(0 -0.0020943746 0.51114052)
(0 -0.0033512858 0.51153401)
(0 -0.0046351849 0.51210166)
(0 -0.0059552863 0.51286355)
(0 -0.0073208072 0.51384749)
(0 -0.0087408917 0.5150908)
(0 -0.010224574 0.51664309)
(0 -0.011780386 0.51857028)
(0 -0.013416476 0.52096056)
(0 -0.015140692 0.52393126)
(0 -0.016954206 0.52763291)
(0 -0.018868658 0.53234511)
(0 -0.020947724 0.53916024)
(0 -0.023516798 0.55089413)
(0 -0.026488399 0.56496353)
(0 -0.025659133 0.54634135)
(0 -0.015289063 0.41868792)
(0 0.00057571267 0.14948268)
(0 -0.0010860837 0.13173449)
(0 0.011620511 0.39144993)
(0 0.025186296 0.54231366)
(0 0.028545447 0.57697286)
(0 0.026038751 0.56375632)
(0 0.023250574 0.54840165)
(0 0.021116943 0.53927681)
(0 0.019232915 0.53337547)
(0 0.017440668 0.52884913)
(0 0.015715629 0.52521115)
(0 0.014063991 0.52227285)
(0 0.012482661 0.51989176)
(0 0.010966604 0.51795862)
(0 0.0095103693 0.51639198)
(0 0.0081075497 0.51513065)
(0 0.0067512496 0.51412838)
(0 0.0054341879 0.51335026)
(0 0.0041488308 0.51277033)
(0 0.0028875021 0.51236989)
(0 0.0016424455 0.51213643)
(0 0.00040586732 0.51206286)
(0 -0.0008300188 0.51214717)
(0 -0.0020730192 0.51239231)
(0 -0.0033308709 0.51280637)
(0 -0.0046112714 0.51340298)
(0 -0.0059218001 0.51420217)
(0 -0.0072698529 0.51523157)
(0 -0.008662517 0.51652823)
(0 -0.010106508 0.51814133)
(0 -0.011607815 0.5201362)
(0 -0.013171658 0.52260006)
(0 -0.014802715 0.52564788)
(0 -0.016498925 0.52942957)
(0 -0.018272259 0.53426802)
(0 -0.020206569 0.5414111)
(0 -0.022587808 0.55345692)
(0 -0.02504638 0.56563217)
(0 -0.02334922 0.54026983)
(0 -0.012774649 0.40609389)
(0 0.00076097319 0.14305425)
(0 -0.00094425743 0.12741419)
(0 0.0097159016 0.37928664)
(0 0.022888658 0.53438639)
(0 0.026966217 0.5762939)
(0 0.025103424 0.5661281)
(0 0.022516429 0.55075372)
(0 0.020490399 0.54121331)
(0 0.018733428 0.5351477)
(0 0.017058209 0.53055279)
(0 0.015431429 0.52685342)
(0 0.013860251 0.52385305)
(0 0.012343431 0.52141239)
(0 0.010877998 0.51942367)
(0 0.0094604231 0.51780631)
(0 0.0080861831 0.51649984)
(0 0.0067501735 0.51545858)
(0 0.0054467727 0.51464801)
(0 0.0041699847 0.51404245)
(0 0.0029135619 0.51362339)
(0 0.0016710906 0.5133784)
(0 0.00043606029 0.51330046)
(0 -0.00079805663 0.51338755)
(0 -0.0020377995 0.51364259)
(0 -0.0032896018 0.51407357)
(0 -0.0045597849 0.51469401)
(0 -0.0058544493 0.5155237)
(0 -0.0071793887 0.51658995)
(0 -0.0085399418 0.51792934)
(0 -0.0099409213 0.51959043)
(0 -0.01138632 0.52163774)
(0 -0.012879177 0.52415731)
(0 -0.014421889 0.5272617)
(0 -0.016010633 0.53110301)
(0 -0.01766022 0.5360567)
(0 -0.019472518 0.54350285)
(0 -0.021677552 0.55567764)
(0 -0.023647814 0.56563993)
(0 -0.021255075 0.53386961)
(0 -0.01072096 0.39449191)
(0 0.00080684751 0.13780573)
(0 -0.00077566611 0.12378995)
(0 0.0082493811 0.36824274)
(0 0.020862954 0.52641778)
(0 0.025484951 0.57502092)
(0 0.024212762 0.56812168)
(0 0.021820403 0.55295637)
(0 0.019881724 0.54304034)
(0 0.018229125 0.53680759)
(0 0.016655615 0.53215443)
(0 0.01511763 0.52840949)
(0 0.013621357 0.52536214)
(0 0.012166587 0.5228754)
(0 0.010751746 0.52084301)
(0 0.009374632 0.51918519)
(0 0.0080321423 0.51784223)
(0 0.0067205909 0.51676906)
(0 0.0054357289 0.51593165)
(0 0.0041728789 0.51530467)
(0 0.0029270522 0.51486987)
(0 0.0016930459 0.51461499)
(0 0.00046552341 0.51453307)
(0 -0.00076088269 0.51462211)
(0 -0.0019915441 0.51488497)
(0 -0.0032317039 0.51532952)
(0 -0.0044864466 0.51596907)
(0 -0.0057605725 0.51682309)
(0 -0.007058507 0.51791847)
(0 -0.0083841474 0.51929124)
(0 -0.0097407992 0.52098922)
(0 -0.011130957 0.52307609)
(0 -0.012556106 0.52563664)
(0 -0.01401713 0.52878131)
(0 -0.015509733 0.53266792)
(0 -0.017053288 0.5377314)
(0 -0.018763784 0.54545194)
(0 -0.020803564 0.55757875)
(0 -0.022319246 0.56509179)
(0 -0.019381791 0.52730274)
(0 -0.0090652248 0.38384157)
(0 0.00076984138 0.13346479)
(0 -0.00060829663 0.12067154)
(0 0.0071217584 0.3582094)
(0 0.019081158 0.51852004)
(0 0.024107506 0.57326295)
(0 0.023369208 0.56976641)
(0 0.021166934 0.55502251)
(0 0.019300987 0.54477833)
(0 0.017732694 0.53837344)
(0 0.016246302 0.53366663)
(0 0.014787477 0.52988748)
(0 0.013359818 0.52680485)
(0 0.01196355 0.52428287)
(0 0.010597969 0.52221659)
(0 0.0092617359 0.52052697)
(0 0.0079527699 0.51915494)
(0 0.0066684759 0.51805604)
(0 0.0054057113 0.51719675)
(0 0.0041609008 0.51655212)
(0 0.0029301397 0.5161042)
(0 0.0017092893 0.51584089)
(0 0.00049406091 0.51575535)
(0 -0.00071987167 0.51584559)
(0 -0.0019368317 0.51611439)
(0 -0.0031610034 0.51656949)
(0 -0.0043963874 0.51722393)
(0 -0.0056466708 0.51809685)
(0 -0.0069151408 0.51921464)
(0 -0.0082045421 0.52061275)
(0 -0.0095170286 0.52233829)
(0 -0.010854025 0.52445412)
(0 -0.012215974 0.52704386)
(0 -0.013602869 0.53021641)
(0 -0.015011056 0.53413915)
(0 -0.016465445 0.53931058)
(0 -0.018091123 0.54727272)
(0 -0.019975537 0.55918473)
(0 -0.021075121 0.5640826)
(0 -0.017720111 0.52069002)
(0 -0.0077427284 0.37408007)
(0 0.00068836767 0.12981614)
(0 -0.00045707045 0.11792374)
(0 0.0062504493 0.3490772)
(0 0.017513124 0.51076977)
(0 0.022831979 0.57111141)
(0 0.022571382 0.57109034)
(0 0.020556173 0.55696154)
(0 0.018753209 0.54644339)
(0 0.017252231 0.5398614)
(0 0.015839691 0.53510126)
(0 0.01445079 0.53129553)
(0 0.013085305 0.52818647)
(0 0.011743437 0.52563774)
(0 0.010424968 0.52354546)
(0 0.0091290575 0.52183116)
(0 0.0078543302 0.52043631)
(0 0.0065990017 0.51931696)
(0 0.0053607984 0.51844008)
(0 0.0041370466 0.5177811)
(0 0.0029247538 0.51732234)
(0 0.0017206969 0.51705191)
(0 0.00052150079 0.51696308)
(0 -0.00067624702 0.51705385)
(0 -0.0018759507 0.51732696)
(0 -0.0030808737 0.51778995)
(0 -0.0042940897 0.51845561)
(0 -0.0055183548 0.51934272)
(0 -0.0067560339 0.5204772)
(0 -0.0080089776 0.52189393)
(0 -0.0092784941 0.52363938)
(0 -0.01056529 0.5257757)
(0 -0.011869174 0.52838543)
(0 -0.013189737 0.53157685)
(0 -0.014524872 0.53553074)
(0 -0.01590538 0.54081025)
(0 -0.017459828 0.54897727)
(0 -0.019197456 0.5605203)
(0 -0.019920872 0.56269521)
(0 -0.016252746 0.5141191)
(0 -0.006692257 0.36513404)
(0 0.00058760602 0.12669329)
(0 -0.00032845355 0.11545234)
(0 0.0055697153 0.34074236)
(0 0.0161299 0.50321715)
(0 0.021652071 0.56864208)
(0 0.021815876 0.57211956)
(0 0.019985692 0.55878008)
(0 0.01823993 0.54804769)
(0 0.016792447 0.54128519)
(0 0.015442112 0.53646908)
(0 0.014114633 0.53264138)
(0 0.012805107 0.52951239)
(0 0.01151337 0.52694341)
(0 0.010239403 0.52483137)
(0 0.0089826045 0.52309815)
(0 0.0077420557 0.52168561)
(0 0.0065165533 0.52055024)
(0 0.0053044889 0.51965941)
(0 0.0041039102 0.51898889)
(0 0.0029125771 0.51852128)
(0 0.0017280383 0.51824487)
(0 0.00054769871 0.51815303)
(0 -0.00063106938 0.51824377)
(0 -0.0018108811 0.51851976)
(0 -0.0029942175 0.51898837)
(0 -0.0041833756 0.51966213)
(0 -0.0053803512 0.52055947)
(0 -0.0065867814 0.5217059)
(0 -0.0078038455 0.52313576)
(0 -0.0090322606 0.524895)
(0 -0.010272294 0.52704516)
(0 -0.011523432 0.52966798)
(0 -0.012785235 0.53287211)
(0 -0.014057829 0.53685537)
(0 -0.015377743 0.54224374)
(0 -0.016871328 0.55057551)
(0 -0.018469387 0.56160926)
(0 -0.018855756 0.56100022)
(0 -0.014958842 0.50765158)
(0 -0.00585921 0.35692695)
(0 0.00048330279 0.12396962)
(0 -0.00022377829 0.11319293)
(0 0.0050290716 0.33310998)
(0 0.014905377 0.49589318)
(0 0.020559514 0.56591752)
(0 0.021098519 0.57287804)
(0 0.019451723 0.56048259)
(0 0.017760439 0.5496)
(0 0.016355644 0.54265616)
(0 0.015057561 0.53777956)
(0 0.013783901 0.53393212)
(0 0.012524574 0.53078778)
(0 0.011278785 0.52820346)
(0 0.010046511 0.52607646)
(0 0.0088272098 0.52432888)
(0 0.0076202338 0.52290281)
(0 0.0064247768 0.52175505)
(0 0.0052397262 0.52085329)
(0 0.0040636945 0.52017361)
(0 0.0028950502 0.51969883)
(0 0.0017319794 0.51941742)
(0 0.00057253987 0.51932282)
(0 -0.00058523457 0.51941306)
(0 -0.0017432957 0.51969072)
(0 -0.0029034738 0.52016305)
(0 -0.0040674285 0.52084232)
(0 -0.0052365495 0.52174665)
(0 -0.0064119149 0.52290115)
(0 -0.0075942197 0.52433977)
(0 -0.008783793 0.52610802)
(0 -0.0099806742 0.52826701)
(0 -0.011184259 0.5308979)
(0 -0.012394352 0.53411092)
(0 -0.013613779 0.53812413)
(0 -0.014884249 0.54362175)
(0 -0.016324486 0.55207534)
(0 -0.017788955 0.5624737)
(0 -0.017875223 0.55905678)
(0 -0.013816877 0.50132915)
(0 -0.005196917 0.34938385)
(0 0.00038466629 0.12155036)
(0 -0.00014151593 0.11110217)
(0 0.0045908597 0.32609555)
(0 0.013816858 0.48881528)
(0 0.01954561 0.56298935)
(0 0.020415149 0.5733876)
(0 0.018950013 0.56207194)
(0 0.017312705 0.55110626)
(0 0.015942486 0.54398343)
(0 0.014688332 0.53904086)
(0 0.01346183 0.53517408)
(0 0.012247512 0.53201747)
(0 0.011043732 0.52942137)
(0 0.0098503221 0.52728305)
(0 0.0086666857 0.52552467)
(0 0.0074923114 0.52408837)
(0 0.0063266486 0.52293115)
(0 0.0051689426 0.52202094)
(0 0.004018238 0.52133405)
(0 0.0028733855 0.5208535)
(0 0.0017330884 0.5205679)
(0 0.00059594077 0.52047077)
(0 -0.00053947835 0.52056013)
(0 -0.0016745737 0.5208385)
(0 -0.0028106443 0.52131298)
(0 -0.0039488385 0.52199565)
(0 -0.0050900744 0.52290435)
(0 -0.0062350139 0.52406388)
(0 -0.0073840193 0.52550785)
(0 -0.0085371889 0.52728148)
(0 -0.0096944876 0.52944561)
(0 -0.010855383 0.53208112)
(0 -0.012020129 0.53530109)
(0 -0.013194516 0.53934642)
(0 -0.01442459 0.54495254)
(0 -0.015816605 0.55348282)
(0 -0.017152441 0.56313369)
(0 -0.016972657 0.55691395)
(0 -0.012806385 0.49517871)
(0 -0.0046668309 0.3424342)
(0 0.00029652791 0.11936578)
(0 -7.8756618e-05 0.10915105)
(0 0.0042276605 0.31962507)
(0 0.012845047 0.48199147)
(0 0.018602116 0.55990038)
(0 0.019762024 0.57366823)
(0 0.01847635 0.56354998)
(0 0.016894035 0.55257012)
(0 0.015552588 0.54527414)
(0 0.014335513 0.54025984)
(0 0.013150422 0.53637283)
(0 0.011976526 0.53320581)
(0 0.010811147 0.53060048)
(0 0.0096538686 0.52845353)
(0 0.0085039792 0.52668703)
(0 0.0073610087 0.52524308)
(0 0.0062245553 0.52407872)
(0 0.0050941134 0.52316205)
(0 0.0039690498 0.52246955)
(0 0.0028485892 0.52198439)
(0 0.0017318463 0.52169528)
(0 0.00061784728 0.52159581)
(0 -0.00049438833 0.52168399)
(0 -0.0016058234 0.5219623)
(0 -0.0027173316 0.52243769)
(0 -0.0038296609 0.52312208)
(0 -0.0049433723 0.5240331)
(0 -0.0060588289 0.52519529)
(0 -0.0071761795 0.52664205)
(0 -0.0082954095 0.52841841)
(0 -0.0094165132 0.53058509)
(0 -0.010539143 0.53322301)
(0 -0.01166415 0.53644942)
(0 -0.012800379 0.54052993)
(0 -0.013997166 0.54624221)
(0 -0.015344167 0.55480255)
(0 -0.016555552 0.5636072)
(0 -0.016140588 0.55461218)
(0 -0.011908853 0.48921637)
(0 -0.0042380132 0.33601347)
(0 0.00022087214 0.11736532)
(0 -3.2133261e-05 0.10731999)
(0 0.0039199025 0.31363451)
(0 0.011973736 0.47542339)
(0 0.017721657 0.55668634)
(0 0.019135982 0.57373834)
(0 0.018026858 0.56491802)
(0 0.016501506 0.55399354)
(0 0.015184931 0.54653374)
(0 0.01399938 0.54144225)
(0 0.012850786 0.53753312)
(0 0.011713314 0.53435667)
(0 0.010583087 0.53174384)
(0 0.0094593745 0.5295902)
(0 0.0083413195 0.5278176)
(0 0.0072284302 0.52636794)
(0 0.0061203757 0.52519826)
(0 0.0050168152 0.52427671)
(0 0.003917349 0.52357988)
(0 0.0028214847 0.52309104)
(0 0.0017286569 0.52279899)
(0 0.00063823344 0.52269734)
(0 -0.00045041761 0.52278413)
(0 -0.0015379097 0.52306176)
(0 -0.0026247838 0.52353711)
(0 -0.0037114822 0.52422194)
(0 -0.0047983035 0.5251337)
(0 -0.0058854065 0.5262968)
(0 -0.006972818 0.52774446)
(0 -0.0080604944 0.52952168)
(0 -0.0091485261 0.53168918)
(0 -0.010236825 0.53432829)
(0 -0.011326943 0.53756169)
(0 -0.012430728 0.54168086)
(0 -0.013599621 0.54749505)
(0 -0.014903337 0.55603796)
(0 -0.015993932 0.56391035)
(0 -0.015371496 0.55218485)
(0 -0.01110807 0.48345049)
(0 -0.0038862243 0.33006377)
(0 0.00015790442 0.11551273)
(0 1.6371036e-06 0.10559542)
(0 0.003653821 0.30806882)
(0 0.011189391 0.46910843)
(0 0.016897863 0.55337726)
(0 0.01853446 0.57361501)
(0 0.017598139 0.56617715)
(0 0.01613223 0.55537722)
(0 0.01483815 0.54776628)
(0 0.013679669 0.5425928)
(0 0.012563401 0.53865907)
(0 0.011458893 0.53547345)
(0 0.010360931 0.53285423)
(0 0.0092684215 0.53069525)
(0 0.0081803518 0.528918)
(0 0.0070961696 0.52746411)
(0 0.006015561 0.52629049)
(0 0.0049382853 0.52536528)
(0 0.0038641051 0.52466512)
(0 0.002792737 0.52417334)
(0 0.0017238577 0.52387881)
(0 0.00065709928 0.52377515)
(0 -0.00040790049 0.5238604)
(0 -0.0014714853 0.52413691)
(0 -0.0025339424 0.52461148)
(0 -0.0035954874 0.52529578)
(0 -0.0046562339 0.52620714)
(0 -0.00571621 0.52736986)
(0 -0.0067753884 0.52881712)
(0 -0.0078337544 0.53059396)
(0 -0.0088915324 0.53276122)
(0 -0.0099489401 0.53540105)
(0 -0.011008304 0.53864274)
(0 -0.012084303 0.54280405)
(0 -0.013229231 0.54871389)
(0 -0.014490304 0.55719161)
(0 -0.015463476 0.56405756)
(0 -0.014658299 0.54965955)
(0 -0.01039014 0.47788408)
(0 -0.0035928531 0.32453386)
(0 0.00010679442 0.11378217)
(0 2.5475008e-05 0.10396745)
(0 0.0034198187 0.30288084)
(0 0.010480709 0.46304119)
(0 0.016125332 0.54999852)
(0 0.017955436 0.57331421)
(0 0.017187309 0.56732852)
(0 0.015783502 0.556721)
(0 0.014510723 0.54897466)
(0 0.013375785 0.54371537)
(0 0.012288315 0.53975415)
(0 0.01121379 0.53655912)
(0 0.010145546 0.53393414)
(0 0.0090820886 0.53177072)
(0 0.0080222532 0.52998984)
(0 0.0069654044 0.52853279)
(0 0.0059112079 0.52735625)
(0 0.0048594757 0.52642831)
(0 0.003810077 0.5257256)
(0 0.0027628769 0.52523148)
(0 0.0017177302 0.52493483)
(0 0.00067446791 0.52482931)
(0 -0.00036706893 0.52491292)
(0 -0.0014070213 0.52518799)
(0 -0.0024454888 0.52566127)
(0 -0.0034825253 0.52634435)
(0 -0.0045181206 0.5272545)
(0 -0.0055522287 0.52841596)
(0 -0.0065848166 0.52986195)
(0 -0.0076159365 0.53163765)
(0 -0.0086459637 0.53380416)
(0 -0.0096754473 0.53644477)
(0 -0.010707543 0.53969656)
(0 -0.011759495 0.54390316)
(0 -0.01288317 0.54990041)
(0 -0.014101484 0.55826551)
(0 -0.014960498 0.56406184)
(0 -0.013994606 0.54705917)
(0 -0.0097433181 0.47251641)
(0 -0.0033438496 0.31937883)
(0 6.6182813e-05 0.11215525)
(0 4.1830509e-05 0.10242838)
(0 0.0032112108 0.29803018)
(0 0.0098382152 0.45721453)
(0 0.015399503 0.54657166)
(0 0.01739733 0.57285091)
(0 0.016791978 0.5683735)
(0 0.015452871 0.55802418)
(0 0.01420109 0.5501609)
(0 0.013086936 0.54481311)
(0 0.012025285 0.54082134)
(0 0.010978178 0.53761624)
(0 0.0099374139 0.53498579)