/*--------------------------------*- C++ -*----------------------------------*\
  =========                 |
  \\      /  F ield         | OpenFOAM: The Open Source CFD Toolbox
   \\    /   O peration     | Website:  https://openfoam.org
    \\  /    A nd           | Version:  10
     \\/     M anipulation  |
\*---------------------------------------------------------------------------*/
FoamFile
{
    format      ascii;
    class       volVectorField;
    location    "0.21";
    object      U_0;
}
// * * * * * * * * * * * * * * * * * * * * * * * * * * * * * * * * * * * * * //

dimensions      [0 1 -1 0 0 0 0];

internalField   nonuniform List<vector> 
4000
(
(0 0.018637423 0.47773159)
(0 0.023509934 0.5088606)
(0 0.0081667911 0.50052522)
(0 0.0056145563 0.50033634)
(0 0.0042545719 0.50025746)
(0 0.0032548938 0.50016898)
(0 0.0025560496 0.50011968)
(0 0.0020545538 0.50009013)
(0 0.001676567 0.5000698)
(0 0.0013822457 0.50005539)
(0 0.0011472172 0.50004499)
(0 0.00095514253 0.50003733)
(0 0.00079476728 0.50003159)
(0 0.00065811553 0.50002726)
(0 0.00053935871 0.50002398)
(0 0.00043411587 0.5000215)
(0 0.00033899942 0.50001966)
(0 0.00025130712 0.50001833)
(0 0.00016880605 0.50001744)
(0 8.9573998e-05 0.50001693)
(0 1.1877288e-05 0.50001678)
(0 -6.5936428e-05 0.50001698)
(0 -0.00014552968 0.50001754)
(0 -0.00022866728 0.5000185)
(0 -0.00031732707 0.5000199)
(0 -0.00041383044 0.50002185)
(0 -0.00052101426 0.50002446)
(0 -0.00064246996 0.50002793)
(0 -0.0007828916 0.50003252)
(0 -0.00094860558 0.50003863)
(0 -0.0011484218 0.50004688)
(0 -0.001394999 0.50005824)
(0 -0.0017070839 0.50007414)
(0 -0.0021150259 0.50009709)
(0 -0.0026747397 0.50013482)
(0 -0.0034683383 0.50020238)
(0 -0.0045606025 0.50027144)
(0 -0.0065848145 0.50043366)
(0 -0.01765926 0.50675403)
(0 -0.01359003 0.47975569)
(0 0.037432587 0.4479694)
(0 0.050955535 0.53232614)
(0 0.021969107 0.50804289)
(0 0.016135453 0.50357319)
(0 0.012415895 0.50242315)
(0 0.0095157848 0.50162298)
(0 0.0075204805 0.50115659)
(0 0.0060697895 0.5008659)
(0 0.0049645138 0.50066798)
(0 0.0041001203 0.50052898)
(0 0.0034076582 0.50042901)
(0 0.0028401791 0.5003555)
(0 0.0023653087 0.50030061)
(0 0.0019599627 0.50025921)
(0 0.00160718 0.50022786)
(0 0.0012941648 0.50020419)
(0 0.0010109916 0.50018659)
(0 0.00074972167 0.50017392)
(0 0.00050378031 0.50016541)
(0 0.00026749721 0.50016057)
(0 3.5751246e-05 0.50015915)
(0 -0.00019633777 0.50016105)
(0 -0.0004336798 0.5001664)
(0 -0.00068148588 0.50017551)
(0 -0.00094558712 0.50018893)
(0 -0.0012328135 0.50020749)
(0 -0.0015514898 0.50023243)
(0 -0.0019121233 0.50026555)
(0 -0.0023283954 0.50030947)
(0 -0.0028186471 0.50036809)
(0 -0.0034082541 0.50044735)
(0 -0.0041335934 0.50055671)
(0 -0.005047745 0.50071127)
(0 -0.0062305754 0.50093663)
(0 -0.0078309688 0.50129441)
(0 -0.01012472 0.50191057)
(0 -0.013105959 0.50282518)
(0 -0.017425405 0.50608123)
(0 -0.038758247 0.5252681)
(0 -0.027894307 0.45021698)
(0 0.039888123 0.40982091)
(0 0.061427778 0.54930819)
(0 0.031983381 0.52188194)
(0 0.024355188 0.51008056)
(0 0.019193327 0.50658855)
(0 0.014976898 0.50452804)
(0 0.012006519 0.50327135)
(0 0.0097717811 0.50245833)
(0 0.0080364431 0.501901)
(0 0.0066648579 0.50150862)
(0 0.0055568037 0.50122539)
(0 0.0046427454 0.50101663)
(0 0.0038739439 0.50086048)
(0 0.0032150024 0.50074256)
(0 0.0026395855 0.50065317)
(0 0.0021276389 0.50058565)
(0 0.0016634845 0.50053538)
(0 0.0012345013 0.50049917)
(0 0.00083018081 0.50047485)
(0 0.00044142294 0.50046103)
(0 5.9985089e-05 0.50045694)
(0 -0.00032199552 0.50046238)
(0 -0.00071242888 0.50047767)
(0 -0.0011196956 0.5005037)
(0 -0.0015531422 0.50054201)
(0 -0.0020236647 0.50059499)
(0 -0.0025444628 0.50066612)
(0 -0.0031320709 0.5007605)
(0 -0.0038078202 0.50088551)
(0 -0.004599952 0.50105208)
(0 -0.0055468225 0.50127674)
(0 -0.0067024136 0.50158561)
(0 -0.008143928 0.50202083)
(0 -0.0099754572 0.50265078)
(0 -0.012369816 0.50361517)
(0 -0.015714971 0.50519931)
(0 -0.019871569 0.5078541)
(0 -0.025185255 0.51641231)
(0 -0.047415991 0.53912747)
(0 -0.030853188 0.41488146)
(0 0.034791387 0.36173076)
(0 0.063838397 0.55456352)
(0 0.039379812 0.53747131)
(0 0.030082891 0.5184926)
(0 0.024112131 0.51197727)
(0 0.019279165 0.50849938)
(0 0.015735806 0.50626416)
(0 0.012953892 0.50475533)
(0 0.010743458 0.50370428)
(0 0.0089678126 0.50295596)
(0 0.0075139229 0.5024109)
(0 0.0063021227 0.5020066)
(0 0.0052746056 0.50170279)
(0 0.0043881131 0.50147255)
(0 0.0036098269 0.50129753)
(0 0.002914362 0.50116504)
(0 0.0022816105 0.50106624)
(0 0.0016952104 0.50099497)
(0 0.0011414193 0.50094705)
(0 0.00060825581 0.5009198)
(0 8.4817578e-05 0.50091173)
(0 -0.00043931798 0.50092244)
(0 -0.00097463382 0.50095255)
(0 -0.0015322019 0.50100378)
(0 -0.0021243033 0.50107912)
(0 -0.0027651455 0.50118315)
(0 -0.0034717694 0.50132258)
(0 -0.0042652543 0.50150709)
(0 -0.0051723817 0.50175068)
(0 -0.0062279329 0.50207383)
(0 -0.0074777779 0.50250701)
(0 -0.0089841503 0.50309723)
(0 -0.010834422 0.50391918)
(0 -0.013135159 0.50508926)
(0 -0.016022015 0.50680695)
(0 -0.019897568 0.50946764)
(0 -0.024729741 0.51427508)
(0 -0.031111561 0.52824704)
(0 -0.050318118 0.54407259)
(0 -0.028437748 0.37238328)
(0 0.027424032 0.31484441)
(0 0.062314178 0.55024112)
(0 0.044613687 0.55146757)
(0 0.033981304 0.52748808)
(0 0.027463369 0.51772237)
(0 0.022454524 0.5129197)
(0 0.018636225 0.50973126)
(0 0.015527664 0.50749241)
(0 0.013005859 0.50589967)
(0 0.010941981 0.50474659)
(0 0.0092246466 0.50389579)
(0 0.0077750018 0.50325879)
(0 0.0065330578 0.50277669)
(0 0.0054523871 0.50240928)
(0 0.0044969389 0.50212876)
(0 0.003638245 0.50191567)
(0 0.0028533587 0.50175633)
(0 0.0021233381 0.50164115)
(0 0.0014320864 0.5015636)
(0 0.00076544084 0.50151942)
(0 0.00011043398 0.50150632)
(0 -0.00054536748 0.50152363)
(0 -0.0012144655 0.50157234)
(0 -0.0019100091 0.50165515)
(0 -0.0026464793 0.50177674)
(0 -0.0034404585 0.50194427)
(0 -0.0043115766 0.50216812)
(0 -0.0052837212 0.5024632)
(0 -0.0063866464 0.50285075)
(0 -0.0076581302 0.50336142)
(0 -0.0091464396 0.50403985)
(0 -0.010914014 0.50495258)
(0 -0.013047692 0.50620242)
(0 -0.015651277 0.50794427)
(0 -0.01881262 0.51040448)
(0 -0.022893235 0.51405509)
(0 -0.028174598 0.52114573)
(0 -0.035704536 0.53932659)
(0 -0.050474559 0.54155693)
(0 -0.024085547 0.33056256)
(0 0.019837657 0.27519949)
(0 0.057989137 0.53974749)
(0 0.047362704 0.5625647)
(0 0.036476634 0.53660442)
(0 0.029635212 0.52350699)
(0 0.024675288 0.51740309)
(0 0.020773511 0.51336273)
(0 0.017509185 0.51044419)
(0 0.014813808 0.5083238)
(0 0.012566448 0.50676136)
(0 0.010665576 0.50559228)
(0 0.0090391981 0.50470746)
(0 0.0076296928 0.50403195)
(0 0.0063911969 0.50351353)
(0 0.005287248 0.5031155)
(0 0.0042883741 0.50281182)
(0 0.0033703437 0.50258394)
(0 0.0025128169 0.50241878)
(0 0.0016982667 0.50230733)
(0 0.00091110289 0.50224375)
(0 0.00013694514 0.50222483)
(0 -0.00063804298 0.50224966)
(0 -0.0014277698 0.5023196)
(0 -0.0022467929 0.50243838)
(0 -0.0031110114 0.50261245)
(0 -0.0040384154 0.50285159)
(0 -0.0050499839 0.50316994)
(0 -0.0061707857 0.50358751)
(0 -0.0074313739 0.50413246)
(0 -0.0088696804 0.50484475)
(0 -0.010532975 0.50578137)
(0 -0.012479554 0.50702462)
(0 -0.014789634 0.50869765)
(0 -0.017565007 0.51098211)
(0 -0.020859655 0.51412036)
(0 -0.02496985 0.51873068)
(0 -0.030504924 0.52823027)
(0 -0.038626214 0.54872448)
(0 -0.048506066 0.53398785)
(0 -0.019066179 0.29394572)
(0 0.013082912 0.2425573)
(0 0.051797761 0.52520224)
(0 0.04770795 0.57024855)
(0 0.037755718 0.54552469)
(0 0.030849208 0.52928841)
(0 0.026072441 0.52180136)
(0 0.022237037 0.51699749)
(0 0.018952936 0.51347293)
(0 0.016192949 0.51086431)
(0 0.013849264 0.50891173)
(0 0.011835384 0.50743186)
(0 0.010088721 0.50629968)
(0 0.0085566488 0.50542744)
(0 0.007196416 0.50475301)
(0 0.0059732195 0.504232)
(0 0.0048582384 0.5038325)
(0 0.0038272816 0.50353153)
(0 0.0028596742 0.50331272)
(0 0.0019373253 0.50316471)
(0 0.0010439479 0.50308011)
(0 0.00016439534 0.50305483)
(0 -0.00071596331 0.50308772)
(0 -0.0016118305 0.50318051)
(0 -0.0025385149 0.50333792)
(0 -0.0035125856 0.50356808)
(0 -0.0045525511 0.50388329)
(0 -0.0056796537 0.50430114)
(0 -0.0069188116 0.50484627)
(0 -0.008299734 0.50555292)
(0 -0.009858496 0.5064689)
(0 -0.011639297 0.50766135)
(0 -0.013694387 0.50922512)
(0 -0.016093276 0.51129819)
(0 -0.018931268 0.51407992)
(0 -0.022239741 0.51783914)
(0 -0.026259485 0.52346852)
(0 -0.031843355 0.53537562)
(0 -0.039754296 0.5558977)
(0 -0.044890679 0.52282922)
(0 -0.014089809 0.26265509)
(0 0.007769825 0.21554429)
(0 0.044824554 0.50801261)
(0 0.046253582 0.57438114)
(0 0.038033538 0.55375092)
(0 0.031286327 0.5349602)
(0 0.026766932 0.52602988)
(0 0.023115451 0.52053785)
(0 0.019919751 0.5164875)
(0 0.017181277 0.51344075)
(0 0.014812807 0.51112961)
(0 0.01274591 0.50935837)
(0 0.010928529 0.50798973)
(0 0.0093147595 0.5069261)
(0 0.0078666299 0.50609756)
(0 0.0065523929 0.50545351)
(0 0.0053450887 0.50495709)
(0 0.0042216035 0.50458154)
(0 0.0031618028 0.50430759)
(0 0.0021477806 0.50412181)
(0 0.001163209 0.50401539)
(0 0.00019276914 0.50398345)
(0 -0.00077839747 0.50402461)
(0 -0.0017652187 0.50414092)
(0 -0.0027831528 0.50433803)
(0 -0.003848775 0.50462558)
(0 -0.004980353 0.50501808)
(0 -0.0061985094 0.50553615)
(0 -0.0075269869 0.50620839)
(0 -0.0089934733 0.50707412)
(0 -0.010630769 0.5081875)
(0 -0.012478458 0.50962379)
(0 -0.014581679 0.51148802)
(0 -0.016996633 0.51392908)
(0 -0.019804993 0.51715573)
(0 -0.023022733 0.521481)
(0 -0.026872315 0.52818355)
(0 -0.03234426 0.54222081)
(0 -0.039396789 0.56050398)
(0 -0.040324242 0.50909295)
(0 -0.0097071161 0.23587026)
(0 0.0040046354 0.19356048)
(0 0.03789803 0.48949094)
(0 0.043684665 0.57524079)
(0 0.037561667 0.56084461)
(0 0.03115226 0.54036069)
(0 0.026912415 0.53001087)
(0 0.023512542 0.5239011)
(0 0.020478979 0.5194117)
(0 0.017825703 0.51598674)
(0 0.015488744 0.51335769)
(0 0.013417773 0.51132273)
(0 0.011571434 0.50973599)
(0 0.0099115618 0.50849283)
(0 0.0084059175 0.50751759)
(0 0.0070266679 0.50675489)
(0 0.0057495376 0.50616401)
(0 0.0045532402 0.50571511)
(0 0.0034188525 0.50538655)
(0 0.0023292558 0.50516313)
(0 0.0012686301 0.50503486)
(0 0.00022199647 0.50499616)
(0 -0.00082523662 0.50504546)
(0 -0.0018877261 0.50518511)
(0 -0.0029805645 0.50542152)
(0 -0.0041197785 0.50576563)
(0 -0.0053227867 0.50623382)
(0 -0.0066089138 0.50684919)
(0 -0.0079999746 0.50764354)
(0 -0.0095208297 0.50866023)
(0 -0.011200083 0.50995834)
(0 -0.013071605 0.51161917)
(0 -0.015172918 0.51375539)
(0 -0.017546663 0.51652277)
(0 -0.020257001 0.52013237)
(0 -0.023311807 0.52496436)
(0 -0.026952949 0.53274105)
(0 -0.032194426 0.54839123)
(0 -0.037986772 0.56254696)
(0 -0.03541003 0.49380588)
(0 -0.0061994112 0.2132683)
(0 0.0015507479 0.17613861)
(0 0.03149787 0.47076706)
(0 0.040529385 0.57338708)
(0 0.036555971 0.56659788)
(0 0.030634689 0.54537779)
(0 0.026669265 0.53370387)
(0 0.023540921 0.52703132)
(0 0.020708519 0.52218722)
(0 0.018181396 0.51844981)
(0 0.015916076 0.51554941)
(0 0.013878128 0.51328386)
(0 0.012036112 0.51150252)
(0 0.010359726 0.51009638)
(0 0.0088227059 0.50898592)
(0 0.0074015169 0.50811242)
(0 0.0060750385 0.50743235)
(0 0.0048242905 0.50691355)
(0 0.003632027 0.50653256)
(0 0.0024823641 0.50627279)
(0 0.0013604172 0.50612329)
(0 0.00025195859 0.50607793)
(0 -0.00085693226 0.50613499)
(0 -0.001980236 0.50629703)
(0 -0.003132265 0.5065711)
(0 -0.0043280666 0.50696919)
(0 -0.0055837577 0.50750913)
(0 -0.006916891 0.50821595)
(0 -0.0083468616 0.50912387)
(0 -0.0098952451 0.51027921)
(0 -0.011586056 0.51174451)
(0 -0.013447024 0.51360513)
(0 -0.015508222 0.51597854)
(0 -0.017800281 0.5190233)
(0 -0.020370158 0.52295042)
(0 -0.023225098 0.52823672)
(0 -0.026645343 0.53704146)
(0 -0.031555121 0.55365965)
(0 -0.035895198 0.56231344)
(0 -0.030547584 0.47790929)
(0 -0.0035896839 0.19462948)
(0 7.6334159e-05 0.16253124)
(0 0.025868347 0.45260766)
(0 0.037155968 0.56943555)
(0 0.035187387 0.57098821)
(0 0.029873777 0.54996198)
(0 0.026170497 0.5371129)
(0 0.023302949 0.52991112)
(0 0.020684866 0.52478262)
(0 0.018305735 0.52079627)
(0 0.016137166 0.51767186)
(0 0.014157861 0.51521081)
(0 0.012344958 0.51326096)
(0 0.010675372 0.51171108)
(0 0.0091284816 0.51047947)
(0 0.0076850266 0.50950536)
(0 0.0063271928 0.50874337)
(0 0.0050385358 0.50815976)
(0 0.0038037611 0.50772977)
(0 0.0026085146 0.50743581)
(0 0.0014391501 0.50726621)
(0 0.00028249601 0.50721443)
(0 -0.00087439175 0.50727863)
(0 -0.0020445109 0.50746155)
(0 -0.0032410873 0.5077707)
(0 -0.0044778836 0.50821883)
(0 -0.0057694169 0.50882487)
(0 -0.0071311907 0.5096152)
(0 -0.0085799404 0.51062571)
(0 -0.010133816 0.51190463)
(0 -0.01181231 0.51351671)
(0 -0.013637222 0.51554958)
(0 -0.015631776 0.51812301)
(0 -0.01781661 0.52139519)
(0 -0.02022412 0.52558057)
(0 -0.02286788 0.5312839)
(0 -0.02606559 0.54103224)
(0 -0.03055692 0.55793524)
(0 -0.033415348 0.56019871)
(0 -0.025988678 0.46209222)
(0 -0.0017636373 0.17949406)
(0 -0.0007184035 0.15191499)
(0 0.021105629 0.43544458)
(0 0.033814756 0.56393521)
(0 0.033598955 0.57408846)
(0 0.028970183 0.55409258)
(0 0.025515656 0.5402622)
(0 0.022882246 0.532551)
(0 0.020474963 0.52718992)
(0 0.018251717 0.52301006)
(0 0.016193092 0.51970545)
(0 0.01428835 0.51708278)
(0 0.012521727 0.51499064)
(0 0.010876315 0.51331713)
(0 0.0093364754 0.51197964)
(0 0.007886914 0.51091636)
(0 0.0065130232 0.51008092)
(0 0.0052009186 0.50943863)
(0 0.0039373636 0.50896392)
(0 0.0027096919 0.50863854)
(0 0.0015056814 0.50845033)
(0 0.00031341758 0.50839248)
(0 -0.00087885923 0.50846304)
(0 -0.0020829546 0.5086649)
(0 -0.003310807 0.50900587)
(0 -0.0045747075 0.50949924)
(0 -0.0058874166 0.51016461)
(0 -0.0072622833 0.51102924)
(0 -0.008713355 0.51213)
(0 -0.010255456 0.5135162)
(0 -0.011903913 0.51525369)
(0 -0.013675184 0.51743111)
(0 -0.015586435 0.52016861)
(0 -0.01765014 0.52362212)
(0 -0.019887787 0.52801731)
(0 -0.022325523 0.53411202)
(0 -0.025304609 0.5446824)
(0 -0.029314974 0.5612087)
(0 -0.030778757 0.55659806)
(0 -0.021886866 0.44679296)
(0 -0.00056293917 0.16727487)
(0 -0.0010705551 0.14359255)
(0 0.017200569 0.41949204)
(0 0.03066134 0.55734539)
(0 0.03190858 0.57601985)
(0 0.027997965 0.55776197)
(0 0.024778265 0.54317761)
(0 0.022345253 0.53497366)
(0 0.020134439 0.52941501)
(0 0.018065105 0.52508715)
(0 0.016120866 0.52164077)
(0 0.014299091 0.51888725)
(0 0.012589618 0.5166775)
(0 0.010980577 0.51489993)
(0 0.0094605201 0.51347186)
(0 0.0080176579 0.51233124)
(0 0.0066403232 0.51143134)
(0 0.0053170673 0.51073705)
(0 0.0040366892 0.51022237)
(0 0.0027882521 0.50986869)
(0 0.0015610422 0.50966359)
(0 0.00034450958 0.50960006)
(0 -0.00087180235 0.50967613)
(0 -0.0020983879 0.50989473)
(0 -0.0033457916 0.51026388)
(0 -0.0046247502 0.51079714)
(0 -0.0059462273 0.51151452)
(0 -0.0073214452 0.51244369)
(0 -0.008761888 0.51362197)
(0 -0.01027931 0.51509906)
(0 -0.011885364 0.51694113)
(0 -0.013591937 0.5192369)
(0 -0.01541104 0.52210559)
(0 -0.017348671 0.52570012)
(0 -0.019419447 0.53026761)
(0 -0.021666957 0.53673278)
(0 -0.024435607 0.54797185)
(0 -0.027930966 0.56352396)
(0 -0.028155977 0.55187331)
(0 -0.018316296 0.43227626)
(0 0.00017083229 0.15742593)
(0 -0.0011536807 0.13701254)
(0 0.014075675 0.40483041)
(0 0.027775765 0.55004049)
(0 0.030204297 0.57692989)
(0 0.027009518 0.56097661)
(0 0.024011293 0.5458831)
(0 0.021743831 0.53720606)
(0 0.01970847 0.53147101)
(0 0.017784222 0.52703078)
(0 0.015952582 0.52347522)
(0 0.014216544 0.52061783)
(0 0.01257012 0.5183127)
(0 0.011005358 0.51644922)
(0 0.0095141961 0.51494516)
(0 0.0080878125 0.51373876)
(0 0.0067171234 0.51278338)
(0 0.0053928981 0.51204387)
(0 0.0041058564 0.51149414)
(0 0.0028467454 0.51111544)
(0 0.0016063602 0.51089525)
(0 0.00037554521 0.51082649)
(0 -0.00085481155 0.51090714)
(0 -0.0020938509 0.51114017)
(0 -0.0033506959 0.51153368)
(0 -0.0046345316 0.51210134)
(0 -0.0059545729 0.51286326)
(0 -0.0073200376 0.51384723)
(0 -0.0087400704 0.51509056)
(0 -0.010223706 0.51664288)
(0 -0.011779478 0.51857011)
(0 -0.013415534 0.52096043)
(0 -0.015139723 0.52393118)
(0 -0.016953218 0.52763288)
(0 -0.018867659 0.53234513)
(0 -0.020946717 0.53916028)
(0 -0.023515765 0.55089412)
(0 -0.026487353 0.56496366)
(0 -0.025658243 0.54634236)
(0 -0.015288596 0.41869017)
(0 0.00057579836 0.1494845)
(0 -0.0010861103 0.13173523)
(0 0.011620296 0.39145108)
(0 0.025185859 0.54231425)
(0 0.028544904 0.57697289)
(0 0.02603822 0.56375619)
(0 0.023250083 0.54840152)
(0 0.021116483 0.53927666)
(0 0.019232486 0.53337529)
(0 0.017440277 0.52884891)
(0 0.015715283 0.52521089)
(0 0.014063696 0.52227255)
(0 0.012482423 0.51989143)
(0 0.010966427 0.51795827)
(0 0.0095102586 0.5163916)
(0 0.0081075089 0.51513025)
(0 0.0067512821 0.51412797)
(0 0.0054342965 0.51334984)
(0 0.0041490174 0.51276989)
(0 0.0028877682 0.51236945)
(0 0.0016427917 0.51213598)
(0 0.00040629362 0.51206242)
(0 -0.000829513 0.51214674)
(0 -0.0020724353 0.5123919)
(0 -0.0033302111 0.51280597)
(0 -0.0046105384 0.5134026)
(0 -0.0059209976 0.51420181)
(0 -0.0072689852 0.51523124)
(0 -0.0086615891 0.51652794)
(0 -0.010105526 0.51814109)
(0 -0.011606785 0.520136)
(0 -0.013170587 0.5225999)
(0 -0.014801611 0.52564777)
(0 -0.016497797 0.52942952)
(0 -0.018271115 0.53426803)
(0 -0.020205411 0.54141112)
(0 -0.022586614 0.55345688)
(0 -0.025045181 0.56563238)
(0 -0.023348222 0.54027116)
(0 -0.012774134 0.40609661)
(0 0.00076106299 0.14305633)
(0 -0.00094428426 0.12741505)
(0 0.0097156579 0.37928803)
(0 0.022888158 0.53438717)
(0 0.026965584 0.57629399)
(0 0.025102795 0.56612794)
(0 0.022515847 0.55075355)
(0 0.020489855 0.54121313)
(0 0.018732921 0.53514748)
(0 0.017057746 0.53055253)
(0 0.015431017 0.5268531)
(0 0.013859898 0.5238527)
(0 0.012343142 0.521412)
(0 0.01087778 0.51942325)
(0 0.0094602797 0.51780586)
(0 0.0080861194 0.51649937)
(0 0.0067501932 0.51545808)
(0 0.0054468789 0.5146475)
(0 0.0041701797 0.51404193)
(0 0.0029138473 0.51362286)
(0 0.0016714674 0.51337787)
(0 0.00043652843 0.51329994)
(0 -0.00079749774 0.51338703)
(0 -0.0020371514 0.51364208)
(0 -0.0032888666 0.51407309)
(0 -0.0045589659 0.51469355)
(0 -0.0058535502 0.51552327)
(0 -0.0071784143 0.51658955)
(0 -0.0085388975 0.51792899)
(0 -0.0099398136 0.51959013)
(0 -0.011385156 0.52163749)
(0 -0.012877964 0.52415711)
(0 -0.014420637 0.52726156)
(0 -0.01600935 0.53110294)
(0 -0.017658915 0.53605669)
(0 -0.019471191 0.54350284)
(0 -0.02167618 0.55567758)
(0 -0.023646448 0.56564024)
(0 -0.021253961 0.53387129)
(0 -0.010720391 0.39449515)
(0 0.00080694082 0.1378081)
(0 -0.00077569303 0.12379093)
(0 0.0082491057 0.3682444)
(0 0.020862385 0.52641877)
(0 0.025484216 0.57502107)
(0 0.024212022 0.56812148)
(0 0.021819717 0.55295616)
(0 0.019881084 0.54304012)
(0 0.018228529 0.53680732)
(0 0.016655069 0.53215411)
(0 0.015117143 0.52840912)
(0 0.013620936 0.52536172)
(0 0.01216624 0.52287494)
(0 0.010751478 0.52084251)
(0 0.00937445 0.51918466)
(0 0.0080320507 0.51784167)
(0 0.0067205939 0.51676847)
(0 0.00543583 0.51593104)
(0 0.0041730807 0.51530406)
(0 0.0029273567 0.51486925)
(0 0.001693454 0.51461436)
(0 0.00046603534 0.51453245)
(0 -0.00076026759 0.5146215)
(0 -0.0019908273 0.51488437)
(0 -0.0032308878 0.51532895)
(0 -0.0044855346 0.51596852)
(0 -0.0057595688 0.51682258)
(0 -0.0070574166 0.51791801)
(0 -0.0083829763 0.51929082)
(0 -0.0097395543 0.52098886)
(0 -0.011129646 0.52307578)
(0 -0.012554738 0.5256364)
(0 -0.014015713 0.52878114)
(0 -0.015508279 0.53266782)
(0 -0.017051805 0.53773136)
(0 -0.018762269 0.54545189)
(0 -0.020801995 0.55757868)
(0 -0.022317697 0.56509223)
(0 -0.019380551 0.52730486)
(0 -0.0090645971 0.3838454)
(0 0.00076993763 0.13346747)
(0 -0.00060832349 0.12067267)
(0 0.0071214482 0.35821137)
(0 0.019080512 0.5185213)
(0 0.024106657 0.57326319)
(0 0.023368342 0.56976619)
(0 0.021166128 0.55502225)
(0 0.019300236 0.54477806)
(0 0.017731996 0.53837313)
(0 0.016245662 0.53366625)
(0 0.014786904 0.52988705)
(0 0.013359321 0.52680436)
(0 0.011963136 0.52428233)
(0 0.010597645 0.522216)
(0 0.0092615087 0.52052634)
(0 0.0079526449 0.51915428)
(0 0.0066684579 0.51805535)
(0 0.0054058041 0.51719604)
(0 0.0041611076 0.5165514)
(0 0.0029304625 0.51610346)
(0 0.0017097294 0.51584015)
(0 0.00049461859 0.51575462)
(0 -0.00071919702 0.51584486)
(0 -0.0019360417 0.51611369)
(0 -0.0031601004 0.51656882)
(0 -0.0043953751 0.51722329)
(0 -0.0056455537 0.51809624)
(0 -0.0069139243 0.51921408)
(0 -0.0082032328 0.52061224)
(0 -0.0095156338 0.52233785)
(0 -0.010852553 0.52445375)
(0 -0.012214435 0.52704355)
(0 -0.013601272 0.53021619)
(0 -0.015009413 0.53413902)
(0 -0.016463765 0.53931051)
(0 -0.018089397 0.54727262)
(0 -0.01997375 0.55918464)
(0 -0.021073372 0.56408322)
(0 -0.017718733 0.52069263)
(0 -0.0077420358 0.37408456)
(0 0.00068846635 0.12981915)
(0 -0.00045709712 0.11792503)
(0 0.0062501013 0.34907954)
(0 0.017512394 0.51077133)
(0 0.022831004 0.57111176)
(0 0.022570374 0.5710901)
(0 0.020555231 0.55696122)
(0 0.018752333 0.54644306)
(0 0.017251416 0.53986103)
(0 0.015838943 0.53510081)
(0 0.014450118 0.53129502)
(0 0.013084719 0.5281859)
(0 0.011742946 0.5256371)
(0 0.010424579 0.52354478)
(0 0.0091287777 0.52183043)
(0 0.0078541657 0.52043554)
(0 0.0065989578 0.51931616)
(0 0.0053608795 0.51843925)
(0 0.0041372561 0.51778025)
(0 0.0029250941 0.51732148)
(0 0.0017211696 0.51705105)
(0 0.00052210622 0.51696223)
(0 -0.00067550937 0.51705301)
(0 -0.0018750824 0.51732614)
(0 -0.0030798775 0.51778916)
(0 -0.0042929692 0.51845485)
(0 -0.0055171149 0.519342)
(0 -0.0067546805 0.52047654)
(0 -0.0080075176 0.52189333)
(0 -0.0092769356 0.52363885)
(0 -0.010563642 0.52577524)
(0 -0.011867447 0.52838506)
(0 -0.013187942 0.53157657)
(0 -0.014523021 0.53553055)
(0 -0.01590348 0.54081014)
(0 -0.017457869 0.54897712)
(0 -0.019195427 0.56052019)
(0 -0.019918904 0.56269603)
(0 -0.016251217 0.51412227)
(0 -0.0066914937 0.36513925)
(0 0.00058770675 0.12669668)
(0 -0.00032847995 0.11545381)
(0 0.0055693264 0.34074509)
(0 0.016129077 0.50321906)
(0 0.021650956 0.56864258)
(0 0.021814709 0.5721193)
(0 0.019984595 0.55877969)
(0 0.018238913 0.54804729)
(0 0.016791501 0.54128475)
(0 0.015441242 0.53646856)
(0 0.01411385 0.53264078)
(0 0.012804421 0.52951172)
(0 0.011512791 0.52694268)
(0 0.01023894 0.52483057)
(0 0.008982264 0.5230973)
(0 0.007741845 0.52168472)
(0 0.0065164782 0.52054931)
(0 0.0053045543 0.51965844)
(0 0.00410412 0.51898791)
(0 0.0029129341 0.51852028)
(0 0.0017285441 0.51824387)
(0 0.00054835396 0.51815204)
(0 -0.00063026511 0.51824279)
(0 -0.0018099294 0.5185188)
(0 -0.0029931212 0.51898744)
(0 -0.0041821385 0.51966124)
(0 -0.0053789785 0.52055864)
(0 -0.0065852794 0.52170512)
(0 -0.0078022217 0.52313505)
(0 -0.0090305236 0.52489437)
(0 -0.010270453 0.52704462)
(0 -0.011521499 0.52966753)
(0 -0.012783222 0.53287176)
(0 -0.014055747 0.53685513)
(0 -0.015375601 0.54224357)
(0 -0.016869112 0.55057529)
(0 -0.018467093 0.56160915)
(0 -0.018853549 0.5610013)
(0 -0.01495715 0.5076554)
(0 -0.0058583698 0.35693297)
(0 0.00048340526 0.12397342)
(0 -0.00022380436 0.1131946)
(0 0.0050286387 0.33311317)
(0 0.014904451 0.4958955)
(0 0.020558244 0.5659182)
(0 0.021097174 0.57287777)
(0 0.019450453 0.56048211)
(0 0.017759261 0.54959953)
(0 0.01635455 0.54265564)
(0 0.015056555 0.53777896)
(0 0.013782993 0.53393142)
(0 0.012523776 0.530787)
(0 0.011278107 0.5282026)
(0 0.010045963 0.52607553)
(0 0.0088267996 0.5243279)
(0 0.0076199693 0.52290178)
(0 0.0064246645 0.52175397)
(0 0.0052397715 0.52085218)
(0 0.0040639017 0.52017247)
(0 0.0028954224 0.51969767)
(0 0.0017325188 0.51941626)
(0 0.00057324689 0.51932166)
(0 -0.00058436003 0.51941192)
(0 -0.0017422549 0.51968961)
(0 -0.0029022701 0.52016197)
(0 -0.0040660658 0.52084128)
(0 -0.0052350333 0.52174567)
(0 -0.0064102518 0.52290024)
(0 -0.0075924177 0.52433894)
(0 -0.0087818613 0.52610727)
(0 -0.0099786232 0.52826636)
(0 -0.0111821 0.53089735)
(0 -0.012392099 0.53411049)
(0 -0.013611444 0.53812382)
(0 -0.014881838 0.5436215)
(0 -0.016321984 0.55207503)
(0 -0.017786368 0.5624736)
(0 -0.017872755 0.55905818)
(0 -0.013815007 0.50133372)
(0 -0.005195994 0.34939076)
(0 0.0003847703 0.1215546)
(0 -0.00014154157 0.11110406)
(0 0.0045903795 0.32609924)
(0 0.01381582 0.48881806)
(0 0.01954417 0.56299025)
(0 0.020413606 0.57338732)
(0 0.018948547 0.56207138)
(0 0.017311346 0.55110569)
(0 0.015941225 0.54398282)
(0 0.014687171 0.53904015)
(0 0.01346078 0.53517328)
(0 0.012246586 0.53201657)
(0 0.011042942 0.52942038)
(0 0.0098496775 0.52728199)
(0 0.008666196 0.52552353)
(0 0.0074919849 0.52408718)
(0 0.0063264924 0.52292991)
(0 0.0051689628 0.52201965)
(0 0.0040184393 0.52133274)
(0 0.0028737714 0.52085217)
(0 0.0017336616 0.52056657)
(0 0.00059670164 0.52046943)
(0 -0.00053852965 0.52055881)
(0 -0.0016734384 0.52083721)
(0 -0.0028093258 0.52131173)
(0 -0.0039473408 0.52199445)
(0 -0.0050884033 0.52290321)
(0 -0.0062331765 0.52406281)
(0 -0.0073820239 0.52550687)
(0 -0.0085350454 0.5272806)
(0 -0.0096922071 0.52944484)
(0 -0.010852978 0.53208047)
(0 -0.012017613 0.53530057)
(0 -0.013191903 0.53934602)
(0 -0.014421883 0.5449522)
(0 -0.015813787 0.55348242)
(0 -0.017149533 0.5631336)
(0 -0.016969906 0.55691571)
(0 -0.012804322 0.49518412)
(0 -0.0046658189 0.34244209)
(0 0.00029663334 0.11937051)
(0 -7.8781743e-05 0.10915318)
(0 0.0042271296 0.31962933)
(0 0.012843885 0.4819948)
(0 0.018600488 0.55990155)
(0 0.01976026 0.57366797)
(0 0.018474664 0.56354932)
(0 0.016892473 0.55256945)
(0 0.01555114 0.54527342)
(0 0.014334179 0.54025902)
(0 0.013149214 0.53637189)
(0 0.011975458 0.53320477)
(0 0.01081023 0.53059934)
(0 0.009653115 0.52845231)
(0 0.0085033989 0.52668573)
(0 0.0073606109 0.52524171)
(0 0.0062243477 0.52407729)
(0 0.0050941026 0.52316058)
(0 0.0039692413 0.52246805)
(0 0.0028489869 0.52198286)
(0 0.0017324531 0.52169375)
(0 0.00061866401 0.52159428)
(0 -0.00049336146 0.52168248)
(0 -0.0016045876 0.52196081)
(0 -0.0027158903 0.52243625)
(0 -0.0038280183 0.52312069)
(0 -0.0049415343 0.52403178)
(0 -0.0060568029 0.52519406)
(0 -0.0071739745 0.52664091)
(0 -0.0082930358 0.52841738)
(0 -0.0094139826 0.53058418)
(0 -0.010536469 0.53322224)
(0 -0.011661347 0.53644879)
(0 -0.012797461 0.54052943)
(0 -0.013994133 0.54624176)
(0 -0.015341002 0.55480205)
(0 -0.016552292 0.56360715)
(0 -0.016137529 0.55461438)
(0 -0.011906581 0.48922271)
(0 -0.0042369061 0.33602245)
(0 0.00022097895 0.11737058)
(0 -3.2157731e-05 0.10732239)
(0 0.0039193175 0.31363941)
(0 0.011972441 0.47542734)
(0 0.017719823 0.55668783)
(0 0.019133973 0.5737381)
(0 0.018024927 0.56491726)
(0 0.016499716 0.55399274)
(0 0.015183273 0.5465329)
(0 0.013997852 0.5414413)
(0 0.0128494 0.53753205)
(0 0.011712085 0.53435548)
(0 0.010582028 0.53174253)
(0 0.0094584982 0.5295888)
(0 0.0083406367 0.52781611)
(0 0.0072279508 0.52636638)
(0 0.0061201084 0.52519663)
(0 0.0050167673 0.52427503)
(0 0.0039175263 0.52357816)
(0 0.0028218918 0.52308929)
(0 0.0017292968 0.52279723)
(0 0.00063910779 0.52269559)
(0 -0.00044930868 0.5227824)
(0 -0.0015365676 0.52306006)
(0 -0.0026232116 0.52353545)
(0 -0.0037096842 0.52422034)
(0 -0.004796286 0.52513218)
(0 -0.0058831771 0.52629537)
(0 -0.0069703861 0.52774313)
(0 -0.0080578709 0.52952048)
(0 -0.0091457236 0.5316881)
(0 -0.010233858 0.53432737)
(0 -0.011323826 0.53756093)
(0 -0.012427475 0.54168024)
(0 -0.013596231 0.54749446)
(0 -0.014899791 0.55603733)
(0 -0.015990288 0.56391035)
(0 -0.015368102 0.55218757)
(0 -0.011105571 0.48345789)
(0 -0.0038850157 0.33007395)
(0 0.00015801253 0.11551856)
(0 1.6134692e-06 0.10559812)
(0 0.0036531783 0.30807443)
(0 0.011187949 0.46911307)
(0 0.016895803 0.55337913)
(0 0.018532181 0.57361482)
(0 0.017595935 0.56617627)
(0 0.016130185 0.55537627)
(0 0.014836257 0.5477653)
(0 0.013677924 0.54259171)
(0 0.012561817 0.53865784)
(0 0.011457485 0.53547209)
(0 0.010359713 0.53285274)
(0 0.0092674073 0.53069365)
(0 0.0081795532 0.5289163)
(0 0.0070955976 0.52746233)
(0 0.0060152248 0.52628863)
(0 0.004938193 0.52536336)
(0 0.0038642633 0.52466316)
(0 0.0027931507 0.52417135)
(0 0.0017245303 0.5238768)
(0 0.00065803279 0.52377315)
(0 -0.00040670569 0.52385842)
(0 -0.0014700305 0.52413496)
(0 -0.0025322305 0.52460958)
(0 -0.0035935231 0.52529395)
(0 -0.0046540234 0.52620539)
(0 -0.0057137614 0.52736821)
(0 -0.0067727113 0.52881558)
(0 -0.0078308604 0.53059255)
(0 -0.0088884345 0.53275996)
(0 -0.0099456531 0.53539995)
(0 -0.011004845 0.53864182)
(0 -0.012080684 0.54280327)
(0 -0.013225448 0.54871314)
(0 -0.014486339 0.55719085)
(0 -0.015459413 0.56405764)
(0 -0.014654542 0.54966286)
(0 -0.010387395 0.47789266)
(0 -0.0035915364 0.32454536)
(0 0.00010690378 0.11378862)
(0 2.545245e-05 0.10397047)
(0 0.0034191145 0.30288723)
(0 0.010479108 0.46304662)
(0 0.016123025 0.55000084)
(0 0.017952859 0.57331409)
(0 0.017184801 0.56732752)
(0 0.015781172 0.55671989)
(0 0.014508568 0.54897352)
(0 0.013373799 0.54371412)
(0 0.01228651 0.53975274)
(0 0.011212182 0.53655756)
(0 0.010144151 0.53393244)
(0 0.0090809199 0.5317689)
(0 0.0080213245 0.52998791)
(0 0.0069647274 0.52853076)
(0 0.0059107929 0.52735414)
(0 0.0048593313 0.52642614)
(0 0.0038102105 0.52572338)
(0 0.0027632938 0.52522922)
(0 0.0017184345 0.52493256)
(0 0.00067546203 0.52482703)
(0 -0.00036578437 0.52491066)
(0 -0.0014054474 0.52518577)
(0 -0.0024436285 0.5256591)
(0 -0.0034803832 0.52634225)
(0 -0.0045157031 0.52725249)
(0 -0.0055495441 0.52841406)
(0 -0.006581875 0.52986018)
(0 -0.0076127498 0.53163603)
(0 -0.0086425456 0.53380269)
(0 -0.0096718133 0.53644348)
(0 -0.01070371 0.53969546)
(0 -0.011755475 0.54390222)
(0 -0.012878956 0.54989948)
(0 -0.014097061 0.55826459)
(0 -0.014955978 0.56406203)
(0 -0.013990456 0.54706317)
(0 -0.0097403082 0.47252631)
(0 -0.0033424181 0.31939177)
(0 6.6293362e-05 0.11216237)
(0 4.1809326e-05 0.10243175)
(0 0.003210441 0.29803745)
(0 0.0098364422 0.45722086)
(0 0.015396927 0.5465745)
(0 0.017394425 0.57285089)
(0 0.016789134 0.56837236)
(0 0.015450225 0.55802289)
(0 0.014198644 0.55015958)
(0 0.013084682 0.54481167)
(0 0.012023234 0.54081973)
(0 0.010976347 0.53761446)