/*--------------------------------*- C++ -*----------------------------------*\
  =========                 |
  \\      /  F ield         | OpenFOAM: The Open Source CFD Toolbox
   \\    /   O peration     | Website:  https://openfoam.org
    \\  /    A nd           | Version:  10
     \\/     M anipulation  |
\*---------------------------------------------------------------------------*/
FoamFile
{
    format      ascii;
    class       surfaceScalarField;
    location    "0.1";
    object      phi;
}
// * * * * * * * * * * * * * * * * * * * * * * * * * * * * * * * * * * * * * //

dimensions      [1 0 -1 0 0 0 0];

internalField   nonuniform List<scalar> 
7860
(
3.9888013e-08
5.2882003e-07
1.2186602e-08
5.9640918e-07
7.4215868e-09
5.7347275e-07
5.4922089e-09
5.7063707e-07
4.107515e-09
5.7009236e-07
3.1936499e-09
5.6962151e-07
2.5517886e-09
5.6934948e-07
2.0722353e-09
5.6918716e-07
1.7026465e-09
5.6907719e-07
1.4104827e-09
5.6899975e-07
1.1739361e-09
5.6894413e-07
9.7823292e-10
5.6890328e-07
8.1301942e-10
5.6887278e-07
6.7079572e-10
5.6884979e-07
5.4597925e-10
5.6883238e-07
4.3430049e-10
5.6881924e-07
3.3239696e-10
5.6880946e-07
2.3753272e-10
5.6880242e-07
1.4739612e-10
5.6879769e-07
5.9947189e-11
5.68795e-07
-2.6705676e-11
5.687942e-07
-1.1441291e-10
5.6879526e-07
-2.05091e-10
5.6879823e-07
-3.0082739e-10
5.6880329e-07
-4.0401327e-10
5.6881074e-07
-5.1750692e-10
5.6882105e-07
-6.4485446e-10
5.6883491e-07
-7.9060319e-10
5.6885331e-07
-9.6076219e-10
5.6887773e-07
-1.1635096e-09
5.6891032e-07
-1.4103661e-09
5.6895443e-07
-1.7181659e-09
5.6901539e-07
-2.1119179e-09
5.6910135e-07
-2.6315374e-09
5.6922723e-07
-3.3594599e-09
5.6943555e-07
-4.4514058e-09
5.6979959e-07
-5.9983298e-09
5.7025459e-07
-9.4983262e-09
5.7220769e-07
-2.9563937e-08
5.8877335e-07
5.3914398e-07
5.9653664e-08
4.6916649e-07
3.6643689e-08
6.1941911e-07
2.2606683e-08
5.8750974e-07
1.623081e-08
5.7701295e-07
1.2267061e-08
5.7405611e-07
9.5827635e-09
5.723058e-07
7.6544268e-09
5.7127782e-07
6.2139665e-09
5.7062762e-07
5.1057289e-09
5.7018542e-07
4.2295977e-09
5.6987588e-07
3.5202017e-09
5.6965352e-07
2.9333388e-09
5.6949014e-07
2.4379319e-09
5.6936819e-07
2.0114759e-09
5.6927624e-07
1.6372276e-09
5.6920662e-07
1.3023817e-09
5.6915408e-07
9.9685376e-10
5.6911499e-07
7.1243861e-10
5.6908683e-07
4.4220376e-10
5.6906792e-07
1.8003065e-10
5.6905717e-07
-7.9754495e-11
5.6905399e-07
-3.4270298e-10
5.6905821e-07
-6.1455622e-10
5.6907008e-07
-9.0157733e-10
5.6909031e-07
-1.2109382e-09
5.691201e-07
-1.551211e-09
5.6916132e-07
-1.9330311e-09
5.6921673e-07
-2.3700361e-09
5.6929032e-07
-2.8802556e-09
5.6938795e-07
-3.4882338e-09
5.695183e-07
-4.2284494e-09
5.6969465e-07
-5.1513363e-09
5.6993827e-07
-6.3336058e-09
5.7028362e-07
-7.8940922e-09
5.7078771e-07
-1.0036138e-08
5.7157759e-07
-1.3166113e-08
5.7292956e-07
-1.8099021e-08
5.751875e-07
-2.8142141e-08
5.8225081e-07
-4.5773048e-08
6.0640426e-07
4.9337093e-07
5.9980139e-08
4.0918667e-07
5.044601e-08
6.2895322e-07
3.3331243e-08
6.0462444e-07
2.4777451e-08
5.8556673e-07
1.928202e-08
5.7955154e-07
1.5290294e-08
5.7629753e-07
1.2320386e-08
5.7424773e-07
1.006283e-08
5.7288518e-07
8.3041634e-09
5.7194409e-07
6.901196e-09
5.7127885e-07
5.7577886e-09
5.7079693e-07
4.8071194e-09
5.7044081e-07
4.0013702e-09
5.7017394e-07
3.3055047e-09
5.6997211e-07
2.6932103e-09
5.6981892e-07
2.1442074e-09
5.6970308e-07
1.6424244e-09
5.6961677e-07
1.1747165e-09
5.6955454e-07
7.2993116e-10
5.6951271e-07
2.981946e-10
5.6948891e-07
-1.2966623e-10
5.6948185e-07
-5.6262978e-10
5.6949117e-07
-1.0099741e-09
5.6951743e-07
-1.4817977e-09
5.6956213e-07
-1.9896229e-09
5.6962793e-07
-2.5471563e-09
5.6971886e-07
-3.1713009e-09
5.6984087e-07
-3.8835691e-09
5.7000258e-07
-4.7121332e-09
5.7021651e-07
-5.6948915e-09
5.7050106e-07
-6.8841293e-09
5.7088389e-07
-8.3541596e-09
5.714083e-07
-1.0214518e-08
5.7214398e-07
-1.2627257e-08
5.7320045e-07
-1.5825764e-08
5.747761e-07
-2.0172278e-08
5.7727608e-07
-2.6643999e-08
5.8165922e-07
-3.8883572e-08
5.9449039e-07
-4.8119165e-08
6.1563985e-07
4.4525176e-07
5.484197e-08
3.5434527e-07
5.7389336e-08
6.26406e-07
4.0406119e-08
6.2160752e-07
3.0718319e-08
5.9525451e-07
2.4581644e-08
5.8568822e-07
1.9891062e-08
5.8098811e-07
1.6253127e-08
5.7788566e-07
1.3409174e-08
5.7572913e-07
1.1146971e-08
5.7420629e-07
9.3147231e-09
5.731111e-07
7.804462e-09
5.7230719e-07
6.537619e-09
5.7170765e-07
5.4562721e-09
5.7125528e-07
4.5170367e-09
5.7091134e-07
3.6867487e-09
5.7064921e-07
2.939484e-09
5.7045035e-07
2.2544595e-09
5.7030179e-07
1.6145158e-09
5.7019448e-07
1.0049837e-09
5.7012224e-07
4.1280464e-10
5.7008109e-07
-1.7419416e-10
5.7006885e-07
-7.6793997e-10
5.7008492e-07
-1.3807367e-09
5.7013022e-07
-2.0259205e-09
5.7020732e-07
-2.7186111e-09
5.7032062e-07
-3.4766414e-09
5.7047689e-07
-4.3217653e-09
5.70686e-07
-5.2812925e-09
5.7096211e-07
-6.3903708e-09
5.7132559e-07
-7.6952487e-09
5.7180593e-07
-9.2578459e-09
5.7244649e-07
-1.1162142e-08
5.733126e-07
-1.3524582e-08
5.7450642e-07
-1.6506747e-08
5.7618262e-07
-2.0306779e-08
5.7857613e-07
-2.5191563e-08
5.8216086e-07
-3.2417835e-08
5.8888549e-07
-4.5001169e-08
6.0707372e-07
-4.6482871e-08
6.1712156e-07
3.9876889e-07
4.7921849e-08
3.0642433e-07
5.9990671e-08
6.1433763e-07
4.5312007e-08
6.3628602e-07
3.4791002e-08
6.0577543e-07
2.8315319e-08
5.921639e-07
2.3335572e-08
5.8596786e-07
1.9352372e-08
5.8186886e-07
1.6150707e-08
5.789308e-07
1.3545901e-08
5.768111e-07
1.1398437e-08
5.7525856e-07
9.6030811e-09
5.7410255e-07
8.0796904e-09
5.7323104e-07
6.7671433e-09
5.7256783e-07
5.6183334e-09
5.7206015e-07
4.596395e-09
5.7167115e-07
3.6719543e-09
5.7137479e-07
2.8210876e-09
5.7115266e-07
2.023782e-09
5.7099179e-07
1.2627501e-09
5.7088327e-07
5.2248347e-10
5.7082136e-07
-2.1154086e-10
5.7080287e-07
-9.5357171e-10
5.7082695e-07
-1.7182751e-09
5.7089493e-07
-2.5214585e-09
5.710105e-07
-3.3808877e-09
5.7118005e-07
-4.3172728e-09
5.7141327e-07
-5.3555088e-09
5.7172423e-07
-6.526288e-09
5.7213289e-07
-7.8682281e-09
5.7266753e-07
-9.4307485e-09
5.7336845e-07
-1.1277849e-08
5.7429359e-07
-1.3492541e-08
5.7552729e-07
-1.6183345e-08
5.7719722e-07
-1.9494156e-08
5.7949343e-07
-2.3595727e-08
5.826777e-07
-2.8790461e-08
5.873556e-07
-3.6649478e-08
5.9674451e-07
-4.8324222e-08
6.1874847e-07
-4.3109903e-08
6.1190724e-07
3.5565899e-07
4.0286209e-08
2.6613942e-07
5.888461e-08
5.9574016e-07
4.8210669e-08
6.4695982e-07
3.7475325e-08
6.1651061e-07
3.0817718e-08
5.9882149e-07
2.5783938e-08
5.9100165e-07
2.1672957e-08
5.8597985e-07
1.8289724e-08
5.8231403e-07
1.5481355e-08
5.7961947e-07
1.3125667e-08
5.7761425e-07
1.112659e-08
5.7610162e-07
9.4087045e-09
5.7494893e-07
7.9127482e-09
5.7406379e-07
6.5917e-09
5.733812e-07
5.4078213e-09
5.7285502e-07
4.3303863e-09
5.7245223e-07
3.3339027e-09
5.7214914e-07
2.3967099e-09
5.7192898e-07
1.4998611e-09
5.7178012e-07
6.2620129e-10
5.7169502e-07
-2.4042516e-10
5.716695e-07
-1.1158924e-09
5.7170241e-07
-2.0164975e-09
5.7179553e-07
-2.9596909e-09
5.7195369e-07
-3.9648833e-09
5.7218524e-07
-5.0543944e-09
5.7250278e-07
-6.2546059e-09
5.7292444e-07
-7.5973986e-09
5.7347568e-07
-9.121952e-09
5.7419208e-07
-1.0877054e-08
5.7512356e-07
-1.2924138e-08
5.7634067e-07
-1.5340704e-08
5.7794386e-07
-1.8224412e-08
5.8008093e-07
-2.16998e-08
5.8296882e-07
-2.5923157e-08
5.8690106e-07
-3.1302058e-08
5.927345e-07
-3.9462869e-08
6.0490532e-07
-4.8989445e-08
6.2827504e-07
-3.8476902e-08
6.0139469e-07
3.1718209e-07
3.2807499e-08
2.3333365e-07
5.511639e-08
5.7343288e-07
4.9077132e-08
6.5299909e-07
3.8915087e-08
6.2667239e-07
3.2288613e-08
6.0544792e-07
2.7378888e-08
5.9591138e-07
2.3302943e-08
5.9005579e-07
1.987335e-08
5.8574362e-07
1.697325e-08
5.8251957e-07
1.4500245e-08
5.8008726e-07
1.2370394e-08
5.7823148e-07
1.0516296e-08
5.7680303e-07
8.8835655e-09
5.7569652e-07
7.4278706e-09
5.748369e-07
6.1127479e-09
5.7417015e-07
4.9078428e-09
5.7365713e-07
3.7874665e-09
5.7326952e-07
2.7294177e-09
5.7298703e-07
1.714005e-09
5.7279553e-07
7.2321469e-10
5.7268581e-07
-2.6002333e-10
5.7265274e-07
-1.2525114e-09
5.726949e-07
-2.2714517e-09
5.7281447e-07
-3.335132e-09
5.7301737e-07
-4.4636692e-09
5.7331378e-07
-5.6798586e-09
5.7371897e-07
-7.0101733e-09
5.7425476e-07
-8.4859676e-09
5.7495148e-07
-1.0144929e-08
5.7585104e-07
-1.2032857e-08
5.7701148e-07
-1.4206051e-08
5.7851387e-07
-1.673421e-08
5.8047202e-07
-1.9702483e-08
5.830492e-07
-2.3212108e-08
5.8647844e-07
-2.740479e-08
5.9109374e-07
-3.2794962e-08
5.9812467e-07
-4.0761501e-08
6.1287186e-07
-4.7458713e-08
6.3497226e-07
-3.3258124e-08
5.871941e-07
2.8392396e-07
2.6128678e-08
2.0720716e-07
4.9974209e-08
5.4958981e-07
4.8298429e-08
6.5467519e-07
3.9305038e-08
6.3566541e-07
3.2899547e-08
6.118533e-07
2.8237997e-08
6.0057294e-07
2.4324365e-08
5.9396943e-07
2.0957655e-08
5.8911033e-07
1.8056618e-08
5.8542061e-07
1.5541796e-08
5.8260208e-07
1.3343872e-08
5.804294e-07
1.1405493e-08
5.7874141e-07
9.6789722e-09
5.7742304e-07
8.1243576e-09
5.7639151e-07
6.7079618e-09
5.7558654e-07
5.4010907e-09
5.74964e-07
4.1789543e-09
5.7449166e-07
3.0197417e-09
5.7414624e-07
1.903822e-09
5.7391145e-07
8.130393e-10
5.7377659e-07
-2.6992593e-10
5.737357e-07
-1.3621546e-09
5.7378713e-07
-2.481084e-09
5.739334e-07
-3.6451139e-09
5.741814e-07
-4.8742508e-09
5.7454291e-07
-6.1908264e-09
5.7503555e-07
-7.6203116e-09
5.7568424e-07
-9.1922673e-09
5.7652343e-07
-1.0941454e-08
5.7760023e-07
-1.2909103e-08
5.7897913e-07
-1.5144564e-08
5.8074933e-07
-1.770743e-08
5.8303488e-07
-2.0667524e-08
5.860093e-07
-2.4100597e-08
5.8991152e-07
-2.8141882e-08
5.9513503e-07
-3.3390321e-08
6.0337311e-07
-4.0748568e-08
6.2023011e-07
-4.4519618e-08
6.3874331e-07
-2.8070793e-08
5.7074528e-07
2.5585317e-07
2.0505383e-08
1.8670445e-07
4.4398756e-08
5.2569995e-07
4.6403382e-08
6.5267138e-07
3.892107e-08
6.4314726e-07
3.2864234e-08
6.1790993e-07
2.850442e-08
6.0493275e-07
2.4832181e-08
5.9764168e-07
2.1607868e-08
5.9233465e-07
1.8775821e-08
5.8825266e-07
1.6279681e-08
5.8509822e-07
1.4065736e-08
5.8264335e-07
1.2087604e-08
5.8071954e-07
1.0305308e-08
5.7920534e-07
8.6843039e-09
5.7801252e-07
7.1946601e-09
5.7707619e-07
5.8102401e-09
5.7634842e-07
4.5079646e-09
5.7579393e-07
3.2671431e-09
5.7538707e-07
2.0688649e-09
5.7510973e-07
8.9544082e-10
5.7495001e-07
-2.7012072e-10
5.7490126e-07
-1.4446115e-09
5.7496162e-07
-2.645124e-09
5.7513392e-07
-3.8895555e-09
5.7542584e-07
-5.1971359e-09
5.7585049e-07
-6.5889969e-09
5.7642741e-07
-8.088792e-09
5.7718404e-07
-9.7233848e-09
5.7815803e-07
-1.1523618e-08
5.7940046e-07
-1.3525112e-08
5.8098063e-07
-1.576917e-08
5.8299339e-07
-1.8303988e-08
5.855697e-07
-2.1183124e-08
5.8888843e-07
-2.4461208e-08
5.931896e-07
-2.8283147e-08
5.9895697e-07
-3.3287896e-08
6.0837786e-07
-3.9757459e-08
6.2669967e-07
-4.0830275e-08
6.3981612e-07
-2.326808e-08
5.5318309e-07
2.3258509e-07
1.5944367e-08
1.7076331e-07
3.8931999e-08
5.0271707e-07
4.3830008e-08
6.4777491e-07
3.8004338e-08
6.4897245e-07
3.2385925e-08
6.2352801e-07
2.8333471e-08
6.0898517e-07
2.4934953e-08
6.0104021e-07
2.1899812e-08
5.9536979e-07
1.9183984e-08
5.9096848e-07
1.6751017e-08
5.8753119e-07
1.4561681e-08
5.8483268e-07
1.2580149e-08
5.8270107e-07
1.0774286e-08
5.810112e-07
9.1153601e-09
5.7967144e-07
7.5776955e-09
5.7861385e-07
6.138256e-09
5.7778786e-07
4.7762153e-09
5.7715597e-07
3.4725284e-09
5.7669075e-07
2.2095075e-09
5.7637275e-07
9.7041167e-10
5.7618911e-07
-2.6095376e-10
5.7613263e-07
-1.5006266e-09
5.762013e-07
-2.7648831e-09
5.7639817e-07
-4.0706324e-09
5.7673159e-07
-5.4358192e-09
5.7721568e-07
-6.8798426e-09
5.7787143e-07
-8.4239869e-09
5.7872818e-07
-1.0091863e-08
5.798259e-07
-1.190987e-08
5.8121847e-07
-1.3907612e-08
5.8297837e-07
-1.6118265e-08
5.8520404e-07
-1.8578975e-08
5.8803041e-07
-2.1328429e-08
5.9163789e-07
-2.4407658e-08
5.9626883e-07
-2.7982808e-08
6.0253212e-07
-3.2671359e-08
6.1306641e-07
-3.8083005e-08
6.3211132e-07
-3.6832914e-08
6.3856603e-07
-1.9018911e-08
5.3536908e-07
2.1356618e-07
1.2346427e-08
1.5842075e-07
3.3872516e-08
4.8119721e-07
4.0907115e-08
6.4074282e-07
3.6732401e-08
6.5314675e-07
3.161785e-08
6.2864207e-07
2.7859068e-08
6.1274388e-07
2.4735653e-08
6.0416364e-07
2.1910148e-08
5.981953e-07
1.933768e-08
5.9354095e-07
1.6997189e-08
5.8987168e-07
1.4861734e-08
5.8696814e-07
1.2904745e-08
5.8465806e-07
1.1101335e-08
5.8281461e-07
9.4284121e-09
5.8134437e-07
7.8646363e-09
5.8017763e-07
6.3902874e-09
5.7926221e-07
4.9870846e-09
5.7855918e-07
3.6379571e-09
5.7803988e-07
2.3267848e-09
5.7768393e-07
1.038126e-09
5.7747777e-07
-2.4306492e-10
5.7741382e-07
-1.5317186e-09
5.7748995e-07
-2.8429413e-09
5.777094e-07
-4.1923001e-09
5.7808095e-07
-5.5961054e-09
5.7861949e-07
-7.0716894e-09
5.7934702e-07
-8.6376698e-09
5.8029416e-07
-1.0314186e-08
5.8150242e-07
-1.2123112e-08
5.830274e-07
-1.408822e-08
5.8494348e-07
-1.6235212e-08
5.8735103e-07
-1.8591424e-08
5.9038662e-07
-2.1183008e-08
5.9422947e-07
-2.4044486e-08
5.9913031e-07
-2.7365907e-08
6.0585354e-07
-3.1682691e-08
6.1738319e-07
-3.5966978e-08
6.363956e-07
-3.282824e-08
6.3542729e-07
-1.5384408e-08
5.1792525e-07
1.9818177e-07
9.5728011e-09
1.4885259e-07
2.9372125e-08
4.6140581e-07
3.7880827e-08
6.322379e-07
3.5242771e-08
6.5578457e-07
3.0670255e-08
6.3321392e-07
2.7184703e-08
6.1622928e-07
2.4320139e-08
6.0702822e-07
2.1707035e-08
6.0080842e-07
1.929023e-08
5.9595776e-07
1.7059224e-08
5.9210268e-07
1.4997032e-08
5.8903033e-07
1.3084781e-08
5.8657031e-07
1.130386e-08
5.8459553e-07
9.6362813e-09
5.8301195e-07
8.0647965e-09
5.8174911e-07
6.5729586e-09
5.8075405e-07
5.1451113e-09
5.7998703e-07
3.7663129e-09
5.7941868e-07
2.4222109e-09
5.7902803e-07
1.0988875e-09
5.7880109e-07
-2.1731498e-10
5.7873002e-07
-1.5399778e-09
5.7881261e-07
-2.8827983e-09
5.7905222e-07
-4.2597751e-09
5.7945792e-07
-5.6853828e-09
5.800451e-07
-7.1747306e-09
5.8083637e-07
-8.7436899e-09
5.8186312e-07
-1.0408976e-08
5.8316771e-07
-1.218818e-08
5.848066e-07
-1.4099766e-08
5.8685507e-07
-1.6162896e-08
5.8941416e-07
-1.8396564e-08
5.9262029e-07
-2.0817028e-08
5.9664993e-07
-2.3458301e-08
6.0177158e-07
-2.6530254e-08
6.0892549e-07
-3.043927e-08
6.2129221e-07
-3.3612909e-08
6.3956924e-07
-2.902068e-08
6.3083506e-07
-1.2359447e-08
5.0126402e-07
1.8582233e-07
7.4746033e-09
1.4138362e-07
2.5478093e-08
4.4341227e-07
3.4921466e-08
6.2279988e-07
3.3644599e-08
6.5706155e-07
2.9625164e-08
6.3723251e-07
2.6389431e-08
6.1946477e-07
2.3757327e-08
6.0966033e-07
2.13476e-08
6.0321816e-07
1.9088343e-08
5.9821702e-07
1.6974679e-08
5.9421635e-07
1.4997281e-08
5.9100773e-07
1.3143441e-08
5.8842415e-07
1.1399739e-08
5.8633923e-07
9.7525746e-09
5.8465911e-07
8.1883695e-09
5.8331332e-07
6.6937275e-09
5.8224869e-07
5.2555373e-09
5.8142522e-07
3.8610003e-09
5.8081322e-07
2.4976077e-09
5.8039142e-07
1.1530803e-09
5.8014562e-07
-1.8471751e-10
5.8006782e-07
-1.5278762e-09
5.8015577e-07
-2.8885495e-09
5.8041289e-07
-4.2790536e-09
5.8084843e-07
-5.711952e-09
5.8147799e-07
-7.2001172e-09
5.8232453e-07
-8.7567555e-09
5.8341976e-07
-1.0395379e-08
5.8480633e-07
-1.2129719e-08
5.8654094e-07
-1.3973613e-08
5.8869896e-07
-1.5940704e-08
5.9138125e-07
-1.8043179e-08
5.9472277e-07
-2.0290351e-08
5.9889711e-07
-2.2720579e-08
6.0420181e-07
-2.5555131e-08
6.1176004e-07
-2.9041315e-08
6.2477839e-07
-3.1181695e-08
6.4170962e-07
-2.5531847e-08
6.2518522e-07
-9.8969828e-09
4.8562916e-07
1.7592534e-07
5.911248e-09
1.3547924e-07
2.2168314e-08
4.2716751e-07
3.2130315e-08
6.1284519e-07
3.2017569e-08
6.5717495e-07
2.8541677e-08
6.4070737e-07
2.5532437e-08
6.2247363e-07
2.3101737e-08
6.1209102e-07
2.087874e-08
6.0544118e-07
1.877162e-08
6.0032414e-07
1.6776482e-08
5.9621149e-07
1.4889422e-08
5.9289479e-07
1.3102442e-08
5.9021113e-07
1.1406226e-08
5.8803545e-07
9.7907969e-09
5.8627454e-07
8.2457285e-09
5.8485839e-07
6.7603537e-09
5.8373407e-07
5.3239193e-09
5.8286165e-07
3.9256823e-09
5.8221146e-07
2.5549571e-09
5.8176215e-07
1.2011259e-09
5.8149945e-07
-1.4637771e-10
5.8141533e-07
-1.4980988e-09
5.8150749e-07
-2.8646017e-09
5.8177939e-07
-4.2564983e-09
5.8224032e-07
-5.6844635e-09
5.8290596e-07
-7.1592235e-09
5.8379929e-07
-8.6915082e-09
5.8495205e-07
-1.0291952e-08
5.8640678e-07
-1.1970943e-08
5.8821993e-07
-1.3738447e-08
5.9046646e-07
-1.5603645e-08
5.9324645e-07
-1.7573505e-08
5.9669263e-07
-1.9653406e-08
6.0097701e-07
-2.1889351e-08
6.0643776e-07
-2.4503053e-08
6.1437375e-07
-2.7568532e-08
6.2784387e-07
-2.8786748e-08
6.4292784e-07
-2.2416314e-08
6.1881478e-07
-7.9282481e-09
4.7114109e-07
1.679971e-07
4.7600678e-09
1.3072766e-07
1.9383968e-08
4.1255872e-07
2.9555065e-08
6.0268377e-07
3.0413228e-08
6.5631823e-07
2.745827e-08
6.4366115e-07
2.4654986e-08
6.2527636e-07
2.2394639e-08
6.1435133e-07
2.0337801e-08
6.0749804e-07
1.8372737e-08
6.0228921e-07
1.6492674e-08
5.9809155e-07
1.4697084e-08
5.9469038e-07
1.2981366e-08
5.9192685e-07
1.1339289e-08
5.8967753e-07
9.7637413e-09
5.8785009e-07
8.2469106e-09
5.8637522e-07
6.7804835e-09
5.852005e-07
5.355816e-09
5.8428632e-07
3.9640647e-09
5.8360321e-07
2.5962769e-09
5.8312994e-07
1.243449e-09
5.8285228e-07
-1.034396e-10
5.8276222e-07
-1.4534014e-09
5.8285746e-07
-2.8154372e-09
5.8314143e-07
-4.1985034e-09
5.8362339e-07
-5.6114797e-09
5.8431894e-07
-7.0631074e-09
5.8525092e-07
-8.5618949e-09
5.8645084e-07
-1.0115983e-08
5.8796086e-07
-1.1732968e-08
5.8983692e-07
-1.3419719e-08
5.9215322e-07
-1.5181981e-08
5.9500871e-07
-1.7023023e-08
5.9853367e-07
-1.8947005e-08
6.0290099e-07
-2.1009058e-08
6.0849981e-07
-2.3419703e-08
6.1678439e-07
-2.6078755e-08
6.3050292e-07
-2.649935e-08
6.4334844e-07
-1.968281e-08
6.1199824e-07
-6.3773616e-09
4.5783564e-07
1.6161974e-07
3.9187915e-09
1.2681944e-07
1.7052364e-08
3.994436e-07
2.7209115e-08
5.9253956e-07
2.8861387e-08
6.5466847e-07
2.6397105e-08
6.4612415e-07
2.3783209e-08
6.2788949e-07
2.1665285e-08
6.1646916e-07
1.9753132e-08
6.0941022e-07
1.7917655e-08
6.041247e-07
1.6146369e-08
5.9986284e-07
1.4440362e-08
5.9639638e-07
1.2797319e-08
5.935699e-07
1.1213213e-08
5.9126163e-07
9.6831008e-09
5.893802e-07
8.2012623e-09
5.8785706e-07
6.7613507e-09
5.8664041e-07
5.3565536e-09
5.8569112e-07
3.9797306e-09
5.8498003e-07
2.6235253e-09
5.8448614e-07
1.2804518e-09
5.8419535e-07
-5.7041459e-11
5.8409971e-07
-1.3964954e-09
5.8419691e-07
-2.7454289e-09
5.8449036e-07
-4.1112395e-09
5.849892e-07
-5.5011544e-09
5.8570885e-07
-6.9221339e-09
5.866719e-07
-8.3807537e-09
5.8790946e-07
-9.8830614e-09
5.8946317e-07
-1.1434409e-08
5.9138827e-07
-1.3039287e-08
5.9375809e-07
-1.4700932e-08
5.9667036e-07
-1.6420261e-08
6.00253e-07
-1.8202398e-08
6.0468313e-07
-2.011148e-08
6.1040889e-07
-2.2336053e-08
6.1900896e-07
-2.4610824e-08
6.3277769e-07
-2.4358439e-08
6.4309605e-07
-1.7312227e-08
6.0495203e-07
-5.1698004e-09
4.4569322e-07
1.5644994e-07
3.3048794e-09
1.2352791e-07
1.5099519e-08
3.8767143e-07
2.5085297e-08
5.8256976e-07
2.7376622e-08
6.5238109e-07
2.5368988e-08
6.4813047e-07
2.2931907e-08
6.3032557e-07
2.0933067e-08
6.1846784e-07
1.9145218e-08
6.111981e-07
1.7426188e-08
6.0584374e-07
1.575597e-08
6.0153306e-07
1.4135816e-08
5.9801654e-07
1.2564808e-08
5.951409e-07
1.1040408e-08
5.9278603e-07
9.5592465e-09
5.9086136e-07
8.1172195e-09
5.8929909e-07
6.7095798e-09
5.8804805e-07
5.3310646e-09
5.8706963e-07
3.9760232e-09
5.8633507e-07
2.6385324e-09
5.8582363e-07
1.3124971e-09
5.8552139e-07
-8.2613272e-12
5.8542047e-07
-1.3299616e-09
5.8551861e-07
-2.6587042e-09
5.8581911e-07
-4.000473e-09
5.8633097e-07
-5.3610136e-09
5.8706939e-07
-6.7457279e-09
5.8805661e-07
-8.1595543e-09
5.8932328e-07
-9.6068333e-09
5.9091045e-07
-1.109117e-08
5.928726e-07
-1.2615306e-08
5.9528223e-07
-1.4180748e-08
5.982358e-07
-1.5787201e-08
6.0185945e-07
-1.7442349e-08
6.0633828e-07
-1.921797e-08
6.1218451e-07
-2.1271648e-08
6.2106264e-07
-2.3188734e-08
6.3469478e-07
-2.23801e-08
6.4228742e-07
-1.5270085e-08
5.9784201e-07
-4.2370625e-09
4.3466019e-07
1.5221287e-07
2.8538627e-09
1.2069103e-07
1.3456824e-08
3.7709581e-07
2.3165202e-08
5.7288144e-07
2.5963232e-08
6.4958882e-07
2.4377228e-08
6.4971525e-07
2.2107997e-08
6.3259353e-07
2.0209909e-08
6.2036566e-07
1.8528199e-08
6.1287984e-07
1.6912929e-08
6.0745903e-07
1.5335678e-08
6.0311031e-07
1.3796706e-08
5.9955551e-07
1.2295809e-08
5.966418e-07
1.083138e-08
5.9425047e-07
9.4011401e-09
5.922916e-07
8.0021981e-09
5.9069803e-07
6.6310748e-09
5.8941917e-07
5.2837911e-09
5.8841692e-07
3.9559728e-09
5.8766289e-07
2.6429559e-09
5.8713665e-07
1.3398866e-09
5.8682446e-07
4.1816637e-11
5.8671854e-07
-1.2562041e-09
5.8681663e-07
-2.5590583e-09
5.8712196e-07
-3.871452e-09
5.8764337e-07
-5.1978237e-09
5.8839577e-07
-6.5422399e-09
5.8940103e-07
-7.9082812e-09
5.9068932e-07
-9.2989297e-09
5.923011e-07
-1.0716474e-08
5.9429015e-07
-1.2162423e-08
5.9672818e-07
-1.3637187e-08
5.9971057e-07
-1.5140184e-08
6.0336245e-07
-1.6682676e-08
6.0788077e-07
-1.8341853e-08
6.1384369e-07
-2.0237517e-08
6.2295831e-07
-2.1825203e-08
6.3628247e-07
-2.0564846e-08
6.4102706e-07
-1.3514912e-08
5.9079208e-07
-3.5191897e-09
4.2466447e-07
1.4869369e-07
2.5170548e-09
1.1819561e-07
1.2064398e-08
3.6758178e-07
2.1425524e-08
5.6354526e-07
2.461899e-08
6.4640341e-07
2.3420347e-08
6.5091288e-07
2.1313083e-08
6.3469922e-07
1.9502292e-08
6.2217605e-07
1.7911336e-08
6.1447081e-07
1.6388266e-08
6.0898213e-07
1.4896157e-08
6.0460242e-07
1.3433398e-08
6.0101827e-07
1.1999982e-08
5.9807522e-07
1.0594821e-08
5.9565563e-07
9.2163548e-09
5.9367007e-07
7.8625716e-09
5.9205181e-07
6.5309781e-09
5.9075077e-07
5.2186406e-09
5.8972925e-07
3.9222603e-09
5.8895927e-07
2.6382629e-09
5.8842065e-07
1.3628899e-09
5.8809983e-07
9.2292885e-11
5.8798914e-07
-1.1773822e-09
5.8808631e-07
-2.4498996e-09
5.8839448e-07
-3.7288466e-09
5.8892231e-07
-5.0175357e-09
5.8968445e-07
-6.3189084e-09
5.907024e-07
-7.6354382e-09
5.9200586e-07
-8.9690494e-09
5.9363471e-07
-1.0321066e-08
5.9564217e-07
-1.1692173e-08
5.9809929e-07
-1.308218e-08
6.0110058e-07
-1.4490925e-08
6.047712e-07
-1.5933733e-08
6.0932358e-07
-1.7490449e-08
6.1540041e-07
-1.9238476e-08
6.2470633e-07
-2.0524742e-08
6.3756873e-07
-1.890345e-08
6.3940577e-07
-1.2003943e-08
5.8389257e-07
-2.9657298e-09
4.1562626e-07
1.4572796e-07
2.2588127e-09
1.1596415e-07
1.0872166e-08
3.5900907e-07
1.9842131e-08
5.5460607e-07
2.3338034e-08
6.4291843e-07
2.2494098e-08
6.5175621e-07
2.0545361e-08
6.3664606e-07
1.8812836e-08
6.2390801e-07
1.7300229e-08
6.1598341e-07
1.5859308e-08
6.1042308e-07
1.4445205e-08
6.0601653e-07
1.3053824e-08
6.0240965e-07
1.1684971e-08
5.9944407e-07
1.0337794e-08
5.970028e-07
9.0111735e-09
5.9499669e-07
7.7037168e-09
5.9335927e-07
6.4136847e-09
5.920408e-07
5.138984e-09
5.9100396e-07
3.8772114e-09
5.9022105e-07
2.6257226e-09
5.8967214e-07
1.3817096e-09
5.8934385e-07
1.4228546e-10
5.8922856e-07
-1.0954317e-09
5.8932403e-07
-2.3342342e-09
5.8963328e-07
-3.5767363e-09
5.9016482e-07
-4.825289e-09
5.9093301e-07
-6.0818964e-09
5.9195901e-07
-7.3481415e-09
5.932721e-07
-8.625137e-09
5.9491171e-07
-9.9135195e-09
5.9693055e-07
-1.1213453e-08
5.9939922e-07
-1.2524514e-08
6.0241164e-07
-1.3847465e-08
6.0609415e-07
-1.5201707e-08
6.1067782e-07
-1.6666763e-08
6.1686546e-07
-1.8275074e-08
6.2631464e-07
-1.9286392e-08
6.3858005e-07
-1.7381465e-08
6.3750085e-07
-1.0696639e-08
5.7720775e-07
-2.5355575e-09
4.0746518e-07
1.431924e-07
2.0537641e-09
1.1394446e-07
9.8394671e-09
3.5127302e-07
1.8392346e-08
5.4609095e-07
2.2112926e-08
6.3921228e-07
2.1592955e-08
6.5227621e-07
1.980108e-08
6.3843573e-07
1.8141577e-08
6.2556674e-07
1.669783e-08
6.1742711e-07
1.5330679e-08
6.1179027e-07
1.3988366e-08
6.0735886e-07
1.266393e-08
6.0373409e-07
1.1356726e-08
6.0075128e-07
1.0065951e-08
5.9829358e-07
8.7907312e-09
5.9627191e-07
7.5301015e-09
5.946199e-07
6.2828929e-09
5.9328801e-07
5.0476831e-09
5.9223917e-07
3.8228091e-09
5.9144592e-07
2.6064132e-09
5.9088854e-07
1.3965044e-09
5.9055376e-07
1.9103046e-10
5.9043404e-07
-1.0120464e-09
5.905271e-07
-2.2146744e-09
5.9083591e-07
-3.4186323e-09
5.9136877e-07
-4.6254571e-09
5.9213983e-07
-5.8363773e-09
5.9316993e-07
-7.0522624e-09
5.9448799e-07
-8.273607e-09
5.9613305e-07
-9.5005646e-09
5.9815751e-07
-1.0732991e-08
6.0063165e-07
-1.197048e-08
6.0364913e-07
-1.3215038e-08
6.0733871e-07
-1.4489783e-08
6.1195257e-07
-1.5870937e-08
6.1824662e-07
-1.734525e-08
6.2778896e-07
-1.8105999e-08
6.393408e-07
-1.5982486e-08
6.3537733e-07
-9.5569305e-09
5.7078219e-07
-2.1961094e-09
4.0010436e-07
1.4099629e-07
1.8843249e-09
1.1210192e-07
8.9339194e-09
3.4428409e-07
1.7056001e-08
5.3801495e-07
2.0935959e-08
6.3535104e-07
2.071113e-08
6.5250197e-07
1.90756e-08
6.4006874e-07
1.7486973e-08
6.2715435e-07
1.6105286e-08
6.1880871e-07
1.4805198e-08
6.130904e-07
1.3529467e-08
6.086346e-07
1.2268099e-08
6.0499546e-07
1.1019819e-08
6.0199956e-07
9.7837628e-09
5.9952964e-07
8.5591791e-09
5.974965e-07
7.3453967e-09
5.9583368e-07
6.1416786e-09
5.9449173e-07
4.9471383e-09
5.9343371e-07
3.7607237e-09
5.9263234e-07
2.5812402e-09
5.9206802e-07
1.4073949e-09
5.917276e-07
2.3785468e-10
5.9160358e-07
-9.2869036e-10
5.9169365e-07
-2.0934605e-09
5.9200068e-07
-3.2575205e-09
5.9253284e-07
-4.4217204e-09
5.9330403e-07
-5.5866465e-09
5.9433486e-07
-6.752595e-09
5.9565394e-07
-7.9195854e-09
5.9730005e-07
-9.0874289e-09
5.9932535e-07
-1.0255806e-08
6.0180003e-07
-1.1424485e-08
6.0481781e-07
-1.2596864e-08
6.0851109e-07
-1.3799138e-08
6.1315484e-07
-1.5101451e-08
6.1954893e-07
-1.6445648e-08
6.2913316e-07
-1.697793e-08
6.3987309e-07
-1.4690179e-08
6.3308958e-07
-8.5537735e-09
5.6464579e-07
-1.9221989e-09
3.9347279e-07
1.390741e-07
1.7386198e-09
1.1041373e-07
8.130057e-09
3.3796671e-07
1.5815748e-08
5.3038534e-07
1.9799903e-08
6.3139079e-07
1.9843193e-08
6.5246086e-07
1.836412e-08
6.4154502e-07
1.6846658e-08
6.2867051e-07
1.5522609e-08
6.2013259e-07
1.4284453e-08
6.143286e-07
1.3071099e-08
6.0984797e-07
1.1869531e-08
6.0619703e-07
1.0677739e-08
6.0319135e-07
9.4947436e-09
6.0071263e-07
8.3198518e-09
5.9867139e-07
7.1525985e-09
5.9700094e-07
5.9925813e-09
5.9565174e-07
4.8393471e-09
5.9458694e-07
3.6923508e-09
5.9377933e-07
2.5509576e-09
5.9320941e-07
1.4144702e-09
5.9286409e-07
2.8217297e-10
5.9273588e-07
-8.4661755e-10
5.9282244e-07
-1.9724963e-09
5.9312656e-07
-3.0959182e-09
5.9365626e-07
-4.2171519e-09
5.9442527e-07
-5.336248e-09
5.9545396e-07
-6.453034e-09
5.9677072e-07
-7.5671534e-09
5.9841417e-07
-8.6781605e-09
6.0043636e-07
-9.7856321e-09
6.029075e-07
-1.0889585e-08
6.0592176e-07
-1.1994824e-08
6.0961633e-07
-1.3129776e-08
6.1428979e-07
-1.435604e-08
6.207752e-07
-1.5572589e-08
6.3034971e-07
-1.5896305e-08
6.401968e-07
-1.3489554e-08
6.3068283e-07
-7.6612914e-09
5.5881753e-07
-1.6948434e-09
3.8750634e-07
1.3737925e-07
1.6088027e-09
1.0886497e-07
7.4079786e-09
3.3225773e-07
1.4656977e-08
5.2320437e-07
1.8698401e-08
6.2737951e-07
1.8984438e-08
6.5217866e-07
1.7662157e-08
6.4286427e-07
1.6217984e-08
6.3011305e-07
1.494919e-08
6.2140113e-07
1.3769259e-08
6.1550858e-07
1.2615009e-08
6.1100225e-07
1.1470574e-08
6.0734147e-07
1.0333162e-08
6.0432876e-07
9.2016657e-09
6.0184413e-07
8.0754299e-09
5.9979763e-07
6.9541495e-09
5.9812222e-07
5.8376927e-09
5.967682e-07
4.7259661e-09
5.9569867e-07
3.6188516e-09
5.9488645e-07
2.5161904e-09
5.9431208e-07
1.4177953e-09
5.9396249e-07
3.2348148e-10
5.9383019e-07
-7.6689491e-10
5.9391282e-07
-1.8533912e-09
5.9421306e-07
-2.9359389e-09
5.9473881e-07
-4.0143107e-09
5.9550364e-07
-5.0881027e-09
5.9652775e-07
-6.1567482e-09
5.9783937e-07
-7.219576e-09
5.9947699e-07
-8.2759257e-09
6.0149271e-07
-9.3252905e-09
6.0395686e-07
-1.0367952e-08
6.0696442e-07
-1.1410012e-08
6.1065839e-07
-1.2481163e-08
6.1536094e-07
-1.3632389e-08
6.2192642e-07
-1.4722777e-08
6.3144009e-07
-1.4855851e-08
6.4032988e-07
-1.2367711e-08
6.2819469e-07
-6.8585483e-09
5.5330837e-07
-1.5001771e-09
3.8214797e-07
1.3587907e-07
1.4897455e-09
1.0744588e-07
6.7521397e-09
3.2710485e-07
1.3567571e-08
5.1647123e-07
1.7626159e-08
6.2335854e-07
1.8131094e-08
6.516797e-07
1.696586e-08
6.4402631e-07
1.559842e-08
6.314785e-07
1.4384192e-08
6.2261499e-07
1.3260019e-08
6.1663279e-07
1.2162427e-08
6.1209987e-07
1.1073007e-08
6.0843089e-07
9.988184e-09
6.0541359e-07
8.9067482e-09
6.0292556e-07
7.8280918e-09
6.0087628e-07
6.7520557e-09
5.9919826e-07
5.6787442e-09
5.9784151e-07
4.6083741e-09
5.9676904e-07
3.5411951e-09
5.9595363e-07
2.4774592e-09
5.9537581e-07
1.4174195e-09
5.9502253e-07
3.613501e-10
5.9488626e-07
-6.9042624e-10
5.949646e-07
-1.7375018e-09
5.9526014e-07
-2.779356e-09
5.9578066e-07
-3.8153315e-09
5.9653962e-07
-4.8446305e-09
5.9755705e-07
-5.8663403e-09
5.9886108e-07
-6.8795072e-09
6.0049016e-07
-7.8832641e-09
6.0249647e-07
-8.8770049e-09
6.0495061e-07
-9.8612422e-09
6.0794866e-07
-1.084317e-08
6.1164031e-07
-1.1852727e-08
6.163705e-07
-1.2928636e-08
6.2300233e-07
-1.3893806e-08
6.3240526e-07
-1.3852489e-08
6.4028856e-07
-1.1314222e-08
6.2565643e-07
-6.1290832e-09
5.4812323e-07
-1.3284017e-09
3.7734729e-07
1.3455067e-07
1.3780589e-09
1.0615002e-07
6.1503503e-09
3.2246489e-07
1.2537618e-08
5.1018323e-07
1.6579039e-08
6.1936363e-07
1.7280461e-08
6.5098694e-07
1.6272234e-08
6.450313e-07
1.4985842e-08
6.327625e-07
1.3826852e-08
6.2377347e-07
1.2757014e-08
6.1770265e-07
1.1714332e-08
6.1314258e-07
1.0678272e-08
6.0946696e-07
9.6445266e-09
6.0644733e-07
8.611827e-09
6.0395826e-07
7.5796512e-09
6.0190846e-07
6.5479971e-09
6.0022991e-07
5.5171924e-09
5.9887232e-07
4.4877354e-09
5.977985e-07
3.4602029e-09
5.9698116e-07
2.4352078e-09
5.9640081e-07
1.4133884e-09
5.9604435e-07
3.9541896e-10
5.9590423e-07
-6.179713e-10
5.9597799e-07
-1.6259694e-09
5.9626813e-07
-2.6276587e-09
5.9678235e-07
-3.6220038e-09
5.9753396e-07
-4.6078549e-09
5.985429e-07
-5.5839825e-09
5.9983721e-07
-6.54916e-09
6.0145534e-07
-7.5022972e-09
6.0344961e-07
-8.4426484e-09
6.0589096e-07
-9.3708852e-09
6.088769e-07
-1.0295023e-08
6.1256445e-07
-1.1244216e-08
6.173197e-07
-1.224373e-08
6.2400185e-07
-1.3084492e-08
6.3324603e-07
-1.2883698e-08
6.4008777e-07
-1.0321282e-08
6.2309401e-07
-5.4604095e-09
5.4326236e-07
-1.1726388e-09
3.7305952e-07
1.3337802e-07
1.2714034e-09
1.0497311e-07
5.5930048e-09
3.1830225e-07
1.1559168e-08
5.0433637e-07
1.5554132e-08
6.1542571e-07
1.6431024e-08
6.5012205e-07
1.5579318e-08
6.4587986e-07
1.4378774e-08
6.3396023e-07
1.3276728e-08
6.2487482e-07
1.2260637e-08
6.1871874e-07
1.1271667e-08
6.1413159e-07