/*--------------------------------*- C++ -*----------------------------------*\
  =========                 |
  \\      /  F ield         | OpenFOAM: The Open Source CFD Toolbox
   \\    /   O peration     | Website:  https://openfoam.org
    \\  /    A nd           | Version:  10
     \\/     M anipulation  |
\*---------------------------------------------------------------------------*/
FoamFile
{
    format      ascii;
    class       surfaceScalarField;
    location    "0.1";
    object      phi_0;
}
// * * * * * * * * * * * * * * * * * * * * * * * * * * * * * * * * * * * * * //

dimensions      [1 0 -1 0 0 0 0];

internalField   nonuniform List<scalar> 
7860
(
3.9887612e-08
5.2882043e-07
1.2186296e-08
5.9640909e-07
7.4212736e-09
5.7347276e-07
5.491852e-09
5.7063712e-07
4.1071453e-09
5.7009237e-07
3.1932798e-09
5.6962151e-07
2.5514244e-09
5.6934948e-07
2.0718833e-09
5.6918715e-07
1.702312e-09
5.6907717e-07
1.4101703e-09
5.6899973e-07
1.1736497e-09
5.689441e-07
9.7797607e-10
5.6890325e-07
8.1279507e-10
5.6887275e-07
6.7060644e-10
5.6884975e-07
5.4582732e-10
5.6883234e-07
4.3418779e-10
5.688192e-07
3.323251e-10
5.6880942e-07
2.3750303e-10
5.6880237e-07
1.4740969e-10
5.6879764e-07
6.0004871e-11
5.6879495e-07
-2.660329e-11
5.6879416e-07
-1.1426551e-10
5.6879521e-07
-2.0489856e-10
5.6879818e-07
-3.0059018e-10
5.6880324e-07
-4.0373191e-10
5.688107e-07
-5.1718241e-10
5.6882101e-07
-6.444883e-10
5.6883486e-07
-7.9019737e-10
5.6885327e-07
-9.6031937e-10
5.6887769e-07
-1.1630332e-09
5.6891029e-07
-1.4098603e-09
5.6895441e-07
-1.7176363e-09
5.6901536e-07
-2.1113714e-09
5.6910133e-07
-2.6309826e-09
5.6922722e-07
-3.358907e-09
5.6943555e-07
-4.4508727e-09
5.6979961e-07
-5.9978597e-09
5.7025465e-07
-9.4978934e-09
5.7220773e-07
-2.9563395e-08
5.8877325e-07
5.3914452e-07
5.9652715e-08
4.6916785e-07
3.6642574e-08
6.1941917e-07
2.2605615e-08
5.875097e-07
1.6229682e-08
5.7701305e-07
1.2265901e-08
5.7405615e-07
9.581602e-09
5.7230581e-07
7.6532855e-09
5.712778e-07
6.2128646e-09
5.7062757e-07
5.1046827e-09
5.7018535e-07
4.228621e-09
5.6987579e-07
3.5193068e-09
5.6965342e-07
2.932536e-09
5.6949002e-07
2.4372305e-09
5.6936805e-07
2.0108839e-09
5.692761e-07
1.6367517e-09
5.6920647e-07
1.3020279e-09
5.6915392e-07
9.9662696e-10
5.6911482e-07
7.1234293e-10
5.6908666e-07
4.4224257e-10
5.6906774e-07
1.8020654e-10
5.6905699e-07
-7.943966e-11
5.690538e-07
-3.422482e-10
5.6905802e-07
-6.1396125e-10
5.690699e-07
-9.0084297e-10
5.6909013e-07
-1.2100662e-09
5.6911992e-07
-1.5502043e-09
5.6916114e-07
-1.9318941e-09
5.6921655e-07
-2.368775e-09
5.6929015e-07
-2.8788782e-09
5.6938779e-07
-3.4867506e-09
5.6951816e-07
-4.2268733e-09
5.6969453e-07
-5.149684e-09
5.6993817e-07
-6.3318982e-09
5.7028355e-07
-7.8923564e-09
5.7078768e-07
-1.0034407e-08
5.715776e-07
-1.3164433e-08
5.7292963e-07
-1.809745e-08
5.7518767e-07
-2.8140584e-08
5.8225087e-07
-4.5771694e-08
6.0640436e-07
4.9337282e-07
5.997869e-08
4.0918949e-07
5.0443939e-08
6.2895391e-07
3.3329277e-08
6.0462429e-07
2.4775453e-08
5.8556687e-07
1.9279977e-08
5.7955163e-07
1.5288254e-08
5.7629753e-07
1.2318386e-08
5.7424766e-07
1.0060903e-08
5.7288506e-07
8.3023348e-09
5.7194392e-07
6.89949e-09
5.7127864e-07
5.7562259e-09
5.7079668e-07
4.8057176e-09
5.7044053e-07
4.0001449e-09
5.7017363e-07
3.3044692e-09
5.6997177e-07
2.6923763e-09
5.6981856e-07
2.1435848e-09
5.6970271e-07
1.6420216e-09
5.6961638e-07
1.1745405e-09
5.6955414e-07
7.2998767e-10
5.695123e-07
2.9848811e-10
5.6948849e-07
-1.2913242e-10
5.6948143e-07
-5.6185378e-10
5.6949074e-07
-1.0089553e-09
5.69517e-07
-1.4805372e-09
5.6956171e-07
-1.9881233e-09
5.696275e-07
-2.5454222e-09
5.6971844e-07
-3.1693396e-09
5.6984047e-07
-3.8813903e-09
5.700022e-07
-4.7097501e-09
5.7021615e-07
-5.6923211e-09
5.7050073e-07
-6.8813933e-09
5.708836e-07
-8.3512855e-09
5.7140807e-07
-1.021154e-08
5.721438e-07
-1.262422e-08
5.7320036e-07
-1.5822723e-08
5.747761e-07
-2.0169308e-08
5.7727622e-07
-2.6641134e-08
5.816595e-07
-3.8880663e-08
5.944904e-07
-4.8116964e-08
6.1564066e-07
4.4525586e-07
5.4840093e-08
3.5435e-07
5.7386171e-08
6.2640798e-07
4.0403047e-08
6.2160727e-07
3.0715313e-08
5.9525457e-07
2.4578599e-08
5.8568835e-07
1.988803e-08
5.809881e-07
1.6250164e-08
5.7788553e-07
1.3406324e-08
5.757289e-07
1.1144271e-08
5.7420597e-07
9.3122068e-09
5.731107e-07
7.8021582e-09
5.7230673e-07
6.5355528e-09
5.7170713e-07
5.4544654e-09
5.7125472e-07
4.5155083e-09
5.7091073e-07
3.6855149e-09
5.7064856e-07
2.9385587e-09
5.7044967e-07
2.2538547e-09
5.7030109e-07
1.6142415e-09
5.7019375e-07
1.0050481e-09
5.7012149e-07
4.1321417e-10
5.7008033e-07
-1.7343463e-10
5.7006807e-07
-7.6682731e-10
5.7008414e-07
-1.3792697e-09
5.7012944e-07
-2.0241e-09
5.7020654e-07
-2.7164405e-09
5.7031985e-07
-3.4741266e-09
5.7047613e-07
-4.3189155e-09
5.7068526e-07
-5.2781208e-09
5.7096141e-07
-6.386895e-09
5.7132493e-07
-7.6914917e-09
5.7180533e-07
-9.2538376e-09
5.7244595e-07
-1.115792e-08
5.7331215e-07
-1.3520193e-08
5.7450607e-07
-1.6502251e-08
5.7618242e-07
-2.0302254e-08
5.785761e-07
-2.5187102e-08
5.8216107e-07
-3.2413387e-08
5.8888578e-07
-4.499663e-08
6.0707364e-07
-4.6479805e-08
6.1712383e-07
3.9877606e-07
4.791962e-08
3.0643135e-07
5.9986334e-08
6.1434174e-07
4.5307587e-08
6.3628584e-07
3.47868e-08
6.0577528e-07
2.8311126e-08
5.9216402e-07
2.3331413e-08
5.8596781e-07
1.934832e-08
5.8186862e-07
1.6146818e-08
5.789304e-07
1.3542224e-08
5.7681057e-07
1.1395014e-08
5.7525791e-07
9.5999502e-09
5.7410179e-07
8.0768833e-09
5.732302e-07
6.764688e-09
5.7256691e-07
5.6162542e-09
5.7205917e-07
4.5947128e-09
5.716701e-07
3.6706871e-09
5.7137369e-07
2.8202506e-09
5.7115152e-07
2.0233882e-09
5.7099062e-07
1.2628102e-09
5.7088207e-07
5.2300626e-10
5.7082013e-07
-2.1054874e-10
5.7080163e-07
-9.5210574e-10
5.7082569e-07
-1.7163331e-09
5.7089367e-07
-2.5190406e-09
5.7100925e-07
-3.3779973e-09
5.711788e-07
-4.3139164e-09
5.7141205e-07
-5.3516972e-09
5.7172304e-07
-6.5220367e-09
5.7213175e-07
-7.8635584e-09
5.7266645e-07
-9.4256885e-09
5.7336746e-07
-1.1272436e-08
5.7429269e-07
-1.3486821e-08
5.7552653e-07
-1.6177376e-08
5.7719663e-07
-1.9488011e-08
5.7949305e-07
-2.3589505e-08
5.826776e-07
-2.8784244e-08
5.873558e-07
-3.6643088e-08
5.9674463e-07
-4.8317815e-08
6.1874836e-07
-4.310598e-08
6.11912e-07
3.5567008e-07
4.0283674e-08
2.6614904e-07
5.8879065e-08
5.9574734e-07
4.8204666e-08
6.469601e-07
3.74697e-08
6.1651007e-07
3.0812201e-08
5.988215e-07
2.5778494e-08
5.9100153e-07
2.1667669e-08
5.8597945e-07
1.8284663e-08
5.823134e-07
1.547658e-08
5.7961865e-07
1.3121228e-08
5.7761326e-07
1.1122533e-08
5.7610049e-07
9.4050692e-09
5.7494766e-07
7.9095681e-09
5.7406241e-07
6.5890046e-09
5.7337973e-07
5.4056356e-09
5.7285347e-07
4.3287323e-09
5.724506e-07
3.3327988e-09
5.7214746e-07
2.3961721e-09
5.7192724e-07
1.4999027e-09
5.7177834e-07
6.2683325e-10
5.716932e-07
-2.3919403e-10
5.7166766e-07
-1.1140558e-09
5.7170055e-07
-2.0140518e-09
5.7179367e-07
-2.956635e-09
5.7195183e-07
-3.9612198e-09
5.7218339e-07
-5.0501296e-09
5.7250096e-07
-6.2497511e-09
5.7292266e-07
-7.5919705e-09
5.7347397e-07
-9.1159746e-09
5.7419045e-07
-1.0870559e-08
5.7512204e-07
-1.2917167e-08
5.763393e-07
-1.5333312e-08
5.7794268e-07
-1.8216665e-08
5.8007998e-07
-2.1691785e-08
5.8296817e-07
-2.5914988e-08
5.869008e-07
-3.1293766e-08
5.9273458e-07
-3.9454162e-08
6.0490502e-07
-4.8980983e-08
6.2827518e-07
-3.8472138e-08
6.0140315e-07
3.1719794e-07
3.2804689e-08
2.3334618e-07
5.5109608e-08
5.7344412e-07
4.9069318e-08
6.530004e-07
3.8907775e-08
6.2667133e-07
3.2281566e-08
6.0544766e-07
2.7371978e-08
5.9591112e-07
2.329625e-08
5.9005518e-07
1.9866962e-08
5.8574269e-07
1.6967234e-08
5.8251838e-07
1.4494663e-08
5.8008583e-07
1.2365298e-08
5.7822985e-07
1.0511732e-08
5.7680123e-07
8.8795731e-09
5.7569457e-07
7.4244835e-09
5.7483482e-07
6.1099953e-09
5.7416796e-07
4.90575e-09
5.7365484e-07
3.7860551e-09
5.7326715e-07
2.7287062e-09
5.7298459e-07
1.7140095e-09
5.7279304e-07
7.2394857e-10
5.7268326e-07
-2.5854899e-10
5.7265015e-07
-1.2502881e-09
5.7269229e-07
-2.2684736e-09
5.7281185e-07
-3.3313963e-09
5.7301475e-07
-4.4591766e-09
5.7331117e-07
-5.6746143e-09
5.737164e-07
-7.0041876e-09
5.7425224e-07
-8.4792575e-09
5.7494904e-07
-1.0137519e-08
5.7584871e-07
-1.2024781e-08
5.770093e-07
-1.4197355e-08
5.7851188e-07
-1.6724953e-08
5.8047028e-07
-1.9692739e-08
5.8304777e-07
-2.3201976e-08
5.8647741e-07
-2.7394389e-08
5.9109322e-07
-3.2784232e-08
5.9812443e-07
-4.07501e-08
6.1287089e-07
-4.7448037e-08
6.3497312e-07
-3.3252546e-08
5.8720766e-07
2.8394539e-07
2.6125607e-08
2.0722289e-07
4.996615e-08
5.4960618e-07
4.8288583e-08
6.546783e-07
3.929574e-08
6.3566378e-07
3.2890723e-08
6.1185256e-07
2.8229409e-08
6.0057244e-07
2.4316074e-08
5.9396852e-07
2.0949761e-08
5.8910901e-07
1.8049202e-08
5.8541894e-07
1.5534927e-08
5.8260011e-07
1.3337609e-08
5.8042717e-07
1.1399886e-08
5.7873895e-07
9.6740678e-09
5.7742039e-07
8.1201928e-09
5.763887e-07
6.7045693e-09
5.7558358e-07
5.3984987e-09
5.7496091e-07
4.1771873e-09
5.7448846e-07
3.0188208e-09
5.7414296e-07
1.9037656e-09
5.7390809e-07
8.1386336e-10
5.7377316e-07
-2.6820775e-10
5.7373223e-07
-1.3595311e-09
5.7378362e-07
-2.4775466e-09
5.7392987e-07
-3.6406568e-09
5.7417786e-07
-4.8688722e-09
5.7453938e-07
-6.1845287e-09
5.7503205e-07
-7.613103e-09
5.7568081e-07
-9.1841628e-09
5.765201e-07
-1.0932477e-08
5.7759703e-07
-1.2899288e-08
5.7897611e-07
-1.5133958e-08
5.8074655e-07
-1.7696094e-08
5.8303241e-07
-2.065554e-08
5.8600721e-07
-2.4088074e-08
5.8990994e-07
-2.8128925e-08
5.9513407e-07
-3.3376748e-08
6.0337225e-07
-4.0734098e-08
6.2022824e-07
-4.4506581e-08
6.3874561e-07
-2.8064425e-08
5.707655e-07
2.5588097e-07
2.0502053e-08
1.8672367e-07
4.4389365e-08
5.2572259e-07
4.6391275e-08
6.5267725e-07
3.8909456e-08
6.4314512e-07
3.2853344e-08
6.1790846e-07
2.8493913e-08
6.0493187e-07
2.4822072e-08
5.9764037e-07
2.1598269e-08
5.9233281e-07
1.8766824e-08
5.8825038e-07
1.6271361e-08
5.8509557e-07
1.4058159e-08
5.8264037e-07
1.2080827e-08
5.8071628e-07
1.0299379e-08
5.7920184e-07
8.679265e-09
5.7800881e-07
7.1905457e-09
5.770723e-07
5.8070809e-09
5.7634438e-07
4.5057872e-09
5.7578976e-07
3.2659707e-09
5.7538278e-07
2.0687185e-09
5.7510534e-07
8.9633888e-10
5.7494554e-07
-2.6816169e-10
5.7489673e-07
-1.4415772e-09
5.7495703e-07
-2.641002e-09
5.7512929e-07
-3.8843364e-09
5.754212e-07
-5.1908138e-09
5.7584586e-07
-6.58157e-09
5.7642281e-07
-8.0802643e-09
5.7717951e-07
-9.7137677e-09
5.781536e-07
-1.1512932e-08
5.7939619e-07
-1.3513388e-08
5.8097657e-07
-1.5756454e-08
5.8298961e-07
-1.8290342e-08
5.855663e-07
-2.1168634e-08
5.8888551e-07
-2.444599e-08
5.931873e-07
-2.8267268e-08
5.9895535e-07
-3.3271036e-08
6.0837602e-07
-3.9739544e-08
6.2669675e-07
-4.0814734e-08
6.398208e-07
-2.326094e-08
5.5321171e-07
2.3262003e-07
1.5940762e-08
1.7078633e-07
3.89212e-08
5.0274718e-07
4.3815405e-08
6.4778468e-07
3.7990051e-08
6.4896996e-07
3.2372639e-08
6.2352552e-07
2.8320768e-08
6.0898371e-07
2.4922779e-08
6.0103837e-07
2.1888283e-08
5.9536731e-07
1.9173204e-08
5.9096546e-07
1.6741068e-08
5.8752771e-07
1.4552633e-08
5.8482881e-07
1.2572063e-08
5.8269686e-07
1.0767213e-08
5.8100669e-07
9.109342e-09
5.7966668e-07
7.57277e-09
5.7860887e-07
6.1344551e-09
5.7778269e-07
4.7735672e-09
5.7715065e-07
3.4710581e-09
5.7668529e-07
2.2092379e-09
5.7636716e-07
9.7136391e-10
5.7618342e-07
-2.5876006e-10
5.7612685e-07
-1.4971732e-09
5.7619545e-07
-2.7601534e-09
5.7639227e-07
-4.0646119e-09
5.7672566e-07
-5.4284963e-09
5.7720975e-07
-6.8712096e-09
5.7786552e-07
-8.4140415e-09
5.7872234e-07
-1.0080611e-08
5.7982017e-07
-1.1897324e-08
5.8121291e-07
-1.3893799e-08
5.8297305e-07
-1.6103226e-08
5.8519904e-07
-1.8562768e-08
5.8802584e-07
-2.1311142e-08
5.9163388e-07
-2.4389409e-08
5.9626557e-07
-2.7963598e-08
6.0252953e-07
-3.2650735e-08
6.1306315e-07
-3.8061265e-08
6.3210728e-07
-3.6814717e-08
6.3857425e-07
-1.9011e-08
5.3540799e-07
2.1360903e-07
1.2342524e-08
1.5844791e-07
3.3860206e-08
4.8123609e-07
4.088976e-08
6.4075778e-07
3.6715055e-08
6.5314422e-07
3.1601795e-08
6.2863826e-07
2.7843857e-08
6.1274157e-07
2.4721142e-08
6.0416111e-07
2.1896444e-08
5.9819201e-07
1.9324897e-08
5.9353701e-07
1.6985414e-08
5.8986719e-07
1.4851043e-08
5.8696318e-07
1.2895199e-08
5.846527e-07
1.1092985e-08
5.828089e-07
9.4213025e-09
5.8133836e-07
7.8588045e-09
5.8017137e-07
6.3857655e-09
5.7925573e-07
4.9839013e-09
5.7855251e-07
3.6361384e-09
5.7803305e-07
2.3263555e-09
5.7767695e-07
1.0391095e-09
5.7747066e-07
-2.4064549e-10
5.7740661e-07
-1.5278406e-09
5.7748264e-07
-2.8375828e-09
5.7770202e-07
-4.1854403e-09
5.7807351e-07
-5.5877254e-09
5.7861203e-07
-7.0617733e-09
5.7933957e-07
-8.6262064e-09
5.8028677e-07
-1.0301171e-08
5.8149514e-07
-1.210855e-08
5.8302029e-07
-1.4072128e-08
5.8493663e-07
-1.6217622e-08
5.8734454e-07
-1.857239e-08
5.9038061e-07
-2.1162613e-08
5.942241e-07
-2.4022837e-08
5.9912579e-07
-2.7342912e-08
6.0584961e-07
-3.1657795e-08
6.1737804e-07
-3.5941018e-08
6.363905e-07
-3.2807209e-08
6.3544044e-07
-1.5375702e-08
5.1797649e-07
1.9823333e-07
9.5685718e-09
1.4888429e-07
2.935818e-08
4.6145489e-07
3.7860439e-08
6.3225951e-07
3.5221949e-08
6.5578247e-07
3.0651014e-08
6.3320849e-07
2.7166632e-08
6.162258e-07
2.4302987e-08
6.0702477e-07
2.1690885e-08
6.0080413e-07
1.9275204e-08
5.9595269e-07
1.7045414e-08
5.9209698e-07
1.4984513e-08
5.8902408e-07
1.3073614e-08
5.865636e-07
1.1294096e-08
5.8458842e-07
9.627962e-09
5.830045e-07
8.057958e-09
5.8174138e-07
6.5676317e-09
5.8074606e-07
5.1413243e-09
5.7997882e-07
3.764092e-09
5.7941028e-07
2.4215816e-09
5.7901946e-07
1.0998759e-09
5.7879237e-07
-2.1468227e-10
5.7872117e-07
-1.5356733e-09
5.7880363e-07
-2.8767936e-09
5.7904314e-07
-4.2520414e-09
5.7944876e-07
-5.6758921e-09
5.8003588e-07
-7.1634563e-09
5.8082714e-07
-8.730609e-09
5.8185393e-07
-1.0394071e-08
5.831586e-07
-1.2171442e-08
5.8479766e-07
-1.4081199e-08
5.8684638e-07
-1.6142519e-08
5.8940586e-07
-1.8374417e-08
5.9261251e-07
-2.0793189e-08
5.9664288e-07
-2.343285e-08
6.0176545e-07
-2.6502978e-08
6.0891974e-07
-3.040956e-08
6.2128462e-07
-3.3582305e-08
6.3956325e-07
-2.8996606e-08
6.3085474e-07
-1.2349901e-08
5.0132978e-07
1.8588343e-07
7.4700164e-09
1.4142027e-07
2.5462369e-08
4.4347308e-07
3.4897738e-08
6.2282982e-07
3.3619849e-08
6.5706047e-07
2.9602276e-08
6.3722517e-07
2.6368109e-08
6.194597e-07
2.3737201e-08
6.0965569e-07
2.1328712e-08
6.0321263e-07
1.9070816e-08
5.9821059e-07
1.6958608e-08
5.9420919e-07
1.4982739e-08
5.9099995e-07
1.3130484e-08
5.8841585e-07
1.1388414e-08
5.8633049e-07
9.7429215e-09
5.8464999e-07
8.1804193e-09
5.8330388e-07
6.6875081e-09
5.8223897e-07
5.2510745e-09
5.8141525e-07
3.8583194e-09
5.8080304e-07
2.4967347e-09
5.8038104e-07
1.154043e-09
5.8013506e-07
-1.8188858e-10
5.800571e-07
-1.523148e-09
5.8014489e-07
-2.8818863e-09
5.8040187e-07
-4.270417e-09
5.8083729e-07
-5.7013024e-09
5.8146677e-07
-7.1874147e-09
5.8231325e-07
-8.7419618e-09
5.8340847e-07
-1.037846e-08
5.847951e-07
-1.2110648e-08
5.8652985e-07
-1.3952373e-08
5.8868811e-07
-1.5917295e-08
5.9137078e-07
-1.8017625e-08
5.9471284e-07
-2.0262713e-08
5.9888796e-07
-2.269089e-08
6.0419363e-07
-2.5523038e-08
6.1175189e-07
-2.9006215e-08
6.247678e-07
-3.1145996e-08
6.4170303e-07
-2.5504488e-08
6.2521323e-07
-9.8865317e-09
4.8571183e-07
1.759969e-07
5.9062759e-09
1.3552134e-07
2.2150653e-08
4.2724177e-07
3.2102914e-08
6.128853e-07
3.1988405e-08
6.5717567e-07
2.8514634e-08
6.4069785e-07
2.5507428e-08
6.224665e-07
2.3078271e-08
6.1208483e-07
2.0856797e-08
6.0543412e-07
1.8751317e-08
6.0031607e-07
1.6757911e-08
5.962026e-07
1.4872649e-08
5.9288521e-07
1.3087518e-08
5.9020099e-07
1.1393191e-08
5.8802482e-07
9.7796814e-09
5.862635e-07
8.2365579e-09
5.84847e-07
6.7531504e-09
5.8372238e-07
5.3187051e-09
5.828497e-07
3.9224799e-09
5.8219926e-07
2.553792e-09
5.8174973e-07
1.2020274e-09
5.8148683e-07
-1.433754e-10
5.814025e-07
-1.4929565e-09
5.8149448e-07
-2.8572749e-09
5.8176619e-07
-4.2469375e-09
5.8222696e-07
-5.6726151e-09
5.8289245e-07
-7.1450311e-09
5.8378567e-07
-8.6749142e-09
5.8493836e-07
-1.0272901e-08
5.8639308e-07
-1.1949384e-08
5.8820633e-07
-1.3714338e-08
5.9045306e-07
-1.5576959e-08
5.932334e-07
-1.754424e-08
5.9668012e-07
-1.9621598e-08
6.0096532e-07
-2.1854959e-08
6.0642699e-07
-2.4465569e-08
6.143625e-07
-2.7527435e-08
6.2782966e-07
-2.8745469e-08
6.4292107e-07
-2.23854e-08
6.1885317e-07
-7.9168141e-09
4.7124324e-07
1.6808008e-07
4.7546889e-09
1.3077575e-07
1.9364201e-08
4.1264831e-07
2.9523625e-08
6.0273613e-07
3.0379127e-08
6.563217e-07
2.7426522e-08
6.4364921e-07
2.4625814e-08
6.2526663e-07
2.2367435e-08
6.1434317e-07
2.0312462e-08
6.0748912e-07
1.8349363e-08
6.0227918e-07
1.647135e-08
5.9808061e-07
1.4677866e-08
5.946787e-07
1.2964292e-08
5.9191456e-07
1.1324388e-08
5.8966472e-07
9.7510319e-09
5.8783686e-07
8.2364087e-09
5.8636163e-07
6.7722029e-09
5.8518659e-07
5.3497722e-09
5.8427213e-07
3.9602761e-09
5.8358876e-07
2.5947672e-09
5.8311524e-07
1.2442484e-09
5.8283735e-07
-1.0029344e-10
5.8274704e-07
-1.4478623e-09
5.8284204e-07
-2.807451e-09
5.8312578e-07
-4.1880075e-09
5.8360751e-07
-5.5984039e-09
5.8430284e-07
-7.0473754e-09
5.8523464e-07
-8.5434256e-09
5.8643441e-07
-1.0094694e-08
5.8794435e-07
-1.1708777e-08
5.8982041e-07
-1.3392552e-08
5.9213684e-07
-1.5151776e-08
5.9499262e-07
-1.6989743e-08
5.9851809e-07
-1.8910642e-08
6.0288622e-07
-2.0969475e-08
6.0848583e-07
-2.3376223e-08
6.1676925e-07
-2.6031024e-08
6.3048446e-07
-2.6451976e-08
6.4334202e-07
-1.964804e-08
6.1204923e-07
-6.364854e-09
4.5796006e-07
1.6171523e-07
3.9129939e-09
1.2687413e-07
1.703031e-08
3.9955063e-07
2.7173247e-08
5.9260649e-07
2.8821784e-08
6.5467582e-07
2.6360053e-08
6.4610958e-07
2.3749352e-08
6.2787652e-07
2.1633913e-08
6.1645851e-07
1.9724037e-08
6.0939903e-07
1.7890903e-08
6.0411232e-07
1.6122032e-08
5.9984948e-07
1.4418479e-08
5.9638225e-07
1.277791e-08
5.9355513e-07
1.1196289e-08
5.9124635e-07
9.668666e-09
5.8936448e-07
8.1893179e-09
5.8784098e-07
6.751899e-09
5.8662401e-07
5.3496006e-09
5.8567443e-07
3.9752885e-09
5.8496307e-07
2.6216145e-09
5.8446892e-07
1.2811025e-09
5.8417786e-07
-5.3788507e-11
5.8408193e-07
-1.3905863e-09
5.8417884e-07
-2.7367986e-09
5.84472e-07
-4.0998106e-09
5.8497053e-07
-5.4868375e-09
5.8568987e-07
-6.9048286e-09
5.8665263e-07
-8.3603508e-09
5.8788993e-07
-9.8594451e-09
5.8944345e-07
-1.140746e-08
5.9136843e-07
-1.300889e-08
5.9373827e-07
-1.4666978e-08
5.9665071e-07
-1.6382666e-08
6.0023378e-07
-1.8161095e-08
6.0466465e-07
-2.0066202e-08
6.1039093e-07
-2.2285948e-08
6.1898899e-07
-2.45558e-08
6.3275432e-07
-2.4304431e-08
6.4309065e-07
-1.7273277e-08
6.0501808e-07
-5.1561188e-09
4.458429e-07
1.5655911e-07
3.2986631e-09
1.235899e-07
1.5074992e-08
3.8779823e-07
2.5044579e-08
5.8265385e-07
2.7330915e-08
6.5239365e-07
2.5325988e-08
6.4811312e-07
2.2892803e-08
6.3030865e-07
2.0897067e-08
6.1845407e-07
1.9111986e-08
6.1118414e-07
1.7395741e-08
6.0582858e-07
1.5728355e-08
6.0151687e-07
1.4111046e-08
5.9799956e-07
1.2542881e-08
5.951233e-07
1.1021309e-08
5.9276792e-07
9.542958e-09
5.9084283e-07
8.1037246e-09
5.8928021e-07
6.6988649e-09
5.8802887e-07
5.3231234e-09
5.8705017e-07
3.9708591e-09
5.8631534e-07
2.6361609e-09
5.8580362e-07
1.3129475e-09
5.8550107e-07
-4.9434849e-12
5.8539983e-07
-1.3237191e-09
5.8549762e-07
-2.6494583e-09
5.8579774e-07
-3.988129e-09
5.863092e-07
-5.3454597e-09
5.870472e-07
-6.7268363e-09
5.8803401e-07
-8.1371822e-09
5.8930028e-07
-9.5808253e-09
5.9088709e-07
-1.1061362e-08
5.9284897e-07
-1.2581529e-08
5.9525844e-07
-1.4142836e-08
5.9821202e-07
-1.5745009e-08
6.0183595e-07
-1.7395726e-08
6.0631537e-07
-1.9166489e-08
6.121617e-07
-2.1214282e-08
6.2103678e-07
-2.3125747e-08
6.3466578e-07
-2.2318897e-08
6.422838e-07
-1.522661e-08
5.9792579e-07
-4.2220973e-09
4.3483839e-07
1.5233702e-07
2.8472372e-09
1.2076109e-07
1.3429629e-08
3.7724503e-07
2.3119184e-08
5.729856e-07
2.5910781e-08
6.4960815e-07
2.4327595e-08
6.49695e-07
2.2063046e-08
6.3257185e-07
2.0168799e-08
6.2034804e-07
1.8490439e-08
6.1286253e-07
1.6878464e-08
6.0744058e-07
1.5304519e-08
6.0309082e-07
1.3768833e-08
5.9953525e-07
1.2271185e-08
5.9662094e-07
1.0809958e-08
5.9422915e-07
9.3828764e-09
5.9226992e-07
7.9870503e-09
5.9067604e-07
6.6190091e-09
5.8939691e-07
5.2747851e-09
5.8839439e-07
3.9500181e-09
5.876401e-07
2.6400609e-09
5.8711357e-07
1.340078e-09
5.8680106e-07
4.5140397e-11
5.8669476e-07
-1.2496783e-09
5.8679244e-07
-2.5492408e-09
5.870973e-07
-3.8582295e-09
5.8761819e-07
-5.1810594e-09
5.8837003e-07
-6.5217744e-09
5.8937472e-07
-7.8839327e-09
5.9066244e-07
-9.2704964e-09
5.9227366e-07
-1.0683736e-08
5.9426221e-07
-1.2125149e-08
5.9669985e-07
-1.3595142e-08
5.9968201e-07
-1.5093142e-08
6.0333395e-07
-1.6630375e-08
6.078526e-07
-1.8283674e-08
6.13815e-07
-2.0172259e-08
6.2292537e-07
-2.1753584e-08
6.3624711e-07
-2.0495884e-08
6.410261e-07
-1.3466552e-08
5.9089646e-07
-3.5028198e-09
4.2487465e-07
1.488342e-07
2.5100306e-09
1.1827461e-07
1.2034327e-08
3.6775637e-07
2.1373724e-08
5.6367271e-07
2.4559113e-08
6.4643129e-07
2.3363356e-08
6.5088969e-07
2.1261652e-08
6.3467189e-07
1.9455566e-08
6.221537e-07
1.7868648e-08
6.1444946e-07
1.6349464e-08
6.0895979e-07
1.4861198e-08
6.0457909e-07
1.3402217e-08
6.0099423e-07
1.1972495e-08
5.9805067e-07
1.0570944e-08
5.956307e-07
9.1960063e-09
5.9364485e-07
7.8456788e-09
5.9202636e-07
6.5174817e-09
5.9072511e-07
5.208498e-09
5.8970338e-07
3.9154483e-09
5.8893315e-07
2.6347804e-09
5.8839424e-07
1.3627598e-09
5.8807308e-07
9.5563303e-11
5.8796196e-07
-1.1706348e-09
5.8805864e-07
-2.4395713e-09
5.8836624e-07
-3.7148035e-09
5.8889342e-07
-4.9996136e-09
5.8965484e-07
-6.2969118e-09
5.9067202e-07
-7.6091412e-09
5.9197467e-07
-8.9381963e-09
5.9360271e-07
-1.0285374e-08
5.9560939e-07
-1.1651333e-08
5.9806581e-07
-1.3035873e-08
6.0106655e-07
-1.4438825e-08
6.047369e-07
-1.5875436e-08
6.0928921e-07
-1.7425108e-08
6.1536467e-07
-1.9164726e-08
6.2466499e-07
-2.0443849e-08
6.3752623e-07
-1.8826175e-08
6.3940843e-07
-1.1950332e-08
5.8402062e-07
-2.9478206e-09
4.1587214e-07
1.4588638e-07
2.2513882e-09
1.1605302e-07
1.0838993e-08
3.5921234e-07
1.978403e-08
5.5476042e-07
2.3270015e-08
6.4295688e-07
2.242899e-08
6.5173006e-07
2.0486792e-08
6.3661209e-07
1.8759978e-08
6.2387992e-07
1.7252217e-08
6.1595722e-07
1.5815861e-08
6.1039618e-07
1.4406207e-08
6.0598875e-07
1.3019148e-08
6.0238129e-07
1.1654477e-08
5.9941534e-07
1.0311348e-08
5.9697383e-07
8.9886477e-09
5.9496755e-07
7.6850013e-09
5.9333001e-07
6.398689e-09
5.9201142e-07
5.1276407e-09
5.9097443e-07
3.8694792e-09
5.9019132e-07
2.6215882e-09
5.8964213e-07
1.3811903e-09
5.8931348e-07
1.4543059e-10
5.8919772e-07
-1.0885389e-09
5.8929261e-07
-2.3234752e-09
5.8960117e-07
-3.5619553e-09
5.901319e-07
-4.8062914e-09
5.9089918e-07
-6.0584477e-09
5.9192418e-07
-7.319966e-09
5.9323618e-07
-8.5919179e-09
5.9487466e-07
-9.8748995e-09
5.9689237e-07
-1.1169037e-08
5.9935995e-07
-1.2473879e-08
6.023714e-07
-1.3790163e-08
6.0605319e-07
-1.513716e-08
6.1063621e-07
-1.6593857e-08
6.1682137e-07
-1.8192294e-08
6.2626343e-07
-1.919564e-08
6.3852958e-07
-1.7295359e-08
6.3750815e-07
-1.0637417e-08
5.7736268e-07
-2.5159583e-09
4.0775069e-07
1.4337042e-07
2.0459114e-09
1.140442e-07
9.8029386e-09
3.5150866e-07
1.8327393e-08
5.4627618e-07
2.2036019e-08
6.3926355e-07
2.1518953e-08
6.5224714e-07
1.9734702e-08
6.38394e-07
1.8082076e-08
6.2553173e-07
1.6644114e-08
6.1739514e-07
1.5282304e-08
6.1175803e-07
1.3945117e-08
6.0732595e-07
1.2625603e-08
6.037008e-07
1.132311e-08
6.0071783e-07
1.0036848e-08
5.9826009e-07
8.7659595e-09
5.9623844e-07
7.5095054e-09
5.9458647e-07
6.2663447e-09
5.9325458e-07
5.0350858e-09
5.9220569e-07
3.8140995e-09
5.914123e-07
2.6015636e-09
5.9085467e-07
1.3955245e-09
5.9051952e-07
1.939692e-10
5.9039928e-07
-1.0050992e-09
5.9049168e-07
-2.2035855e-09
5.9079966e-07
-3.4032229e-09
5.9133154e-07
-4.6055006e-09
5.9210146e-07
-5.8115964e-09
5.9313028e-07
-7.0223271e-09
5.9444692e-07
-8.2381325e-09
5.9609047e-07
-9.4591104e-09
5.9811335e-07
-1.0685062e-08
6.005859e-07
-1.1915533e-08
6.0360187e-07
-1.3152478e-08
6.0729013e-07
-1.4418819e-08
6.1190255e-07
-1.5790157e-08
6.181927e-07
-1.7252999e-08
6.2772627e-07
-1.8004898e-08
6.3928148e-07
-1.5887099e-08
6.3539035e-07
-9.4917593e-09
5.7096734e-07
-2.1746577e-09
4.0043359e-07
1.4119577e-07
1.8759774e-09
1.1221361e-07
8.8937467e-09
3.445562e-07
1.6983614e-08
5.3823547e-07
2.0849402e-08
6.3541762e-07
2.0627452e-08
6.5247006e-07
1.9000753e-08
6.4001803e-07
1.7420338e-08
6.2711108e-07
1.604552e-08
6.1876986e-07
1.4751653e-08
6.1305194e-07
1.3481802e-08
6.0859581e-07
1.2226008e-08
6.049566e-07
1.0983005e-08
6.0196083e-07
9.7519506e-09
5.9949115e-07
8.5321233e-09
5.9745827e-07
7.3228874e-09
5.957957e-07
6.1235442e-09
5.9445392e-07
4.9332478e-09
5.9339598e-07
3.7509884e-09
5.9259456e-07
2.5756148e-09
5.9203004e-07
1.4058797e-09
5.9168925e-07
2.4049671e-10
5.9156466e-07
-9.2179522e-10
5.9165397e-07
-2.0821646e-09
5.9196003e-07
-3.2416217e-09
5.92491e-07
-4.4009586e-09
5.932608e-07
-5.5606994e-09
5.9429002e-07
-6.7210741e-09
5.9560729e-07
-7.8820322e-09
5.9725143e-07
-9.0433106e-09
5.9927463e-07
-1.0204515e-08
6.0174711e-07
-1.1365341e-08
6.047627e-07
-1.25291e-08
6.0845389e-07
-1.3721712e-08
6.1309517e-07
-1.5012619e-08
6.1948361e-07
-1.6343634e-08
6.2905729e-07
-1.6866141e-08
6.3980398e-07
-1.4585181e-08
6.3310939e-07
-8.4823734e-09
5.6486453e-07
-1.8987381e-09
3.9384995e-07
1.3929703e-07
1.7296642e-09
1.1053859e-07
8.085911e-09
3.382798e-07
1.5735322e-08
5.3064595e-07
1.9702942e-08
6.3147537e-07
1.9749084e-08
6.5242621e-07
1.828018e-08
6.4148397e-07
1.6772444e-08
6.2861744e-07
1.5456504e-08
6.2008563e-07
1.4225558e-08
6.1428293e-07
1.301891e-08
6.0980248e-07
1.182362e-08
6.0615189e-07
1.0637702e-08
6.0314675e-07
9.4602153e-09
6.0066863e-07
8.2905113e-09
5.9862798e-07
7.1281738e-09
5.9695804e-07
5.9728509e-09
5.9560925e-07
4.824141e-09
5.945447e-07
3.6815513e-09
5.9373715e-07
2.5444995e-09
5.931671e-07
1.4123421e-09
5.9282141e-07
2.8441858e-10
5.9269259e-07
-8.3989731e-10
5.9277829e-07
-1.9611402e-09
5.9308127e-07
-3.079701e-09
5.9360956e-07
-4.1957793e-09
5.9437688e-07
-5.3093515e-09
5.9540359e-07
-6.420164e-09
5.967181e-07
-7.5277727e-09
5.9835904e-07
-8.6316374e-09
6.0037849e-07
-9.7312353e-09
6.028467e-07
-1.0826482e-08
6.0585794e-07
-1.1922048e-08
6.0954946e-07
-1.3045999e-08
6.1421912e-07
-1.4259159e-08
6.2069677e-07
-1.5460724e-08
6.3025885e-07
-1.5773701e-08
6.4011696e-07
-1.3374793e-08
6.3071048e-07
-7.5834866e-09
5.5907322e-07
-1.6692522e-09
3.8793572e-07
1.3762777e-07
1.5990727e-09
1.0900442e-07
7.3594894e-09
3.3261674e-07
1.4567913e-08
5.2351028e-07
1.8590325e-08
6.2748497e-07
1.887921e-08
6.5214135e-07
1.7568574e-08
6.427914e-07
1.6135828e-08
6.3004846e-07
1.4876539e-08
6.2134465e-07
1.3704916e-08
6.154546e-07
1.2558269e-08
6.1094915e-07
1.1420858e-08
6.0728931e-07
1.028994e-08
6.0427767e-07
9.1644684e-09
6.0179411e-07
8.0438493e-09
5.997486e-07
6.9278434e-09
5.9807405e-07
5.8163841e-09
5.9672071e-07
4.7094418e-09
5.9565164e-07
3.6069617e-09
5.9483964e-07
2.5088474e-09
5.9426521e-07
1.4149745e-09
5.9391528e-07
3.2522159e-10
5.9378234e-07
-7.6048931e-10
5.93864e-07
-1.8421465e-09
5.9416293e-07
-2.9196077e-09
5.9468702e-07
-3.9925655e-09
5.9544983e-07
-5.0605286e-09
5.9647155e-07
-6.1228335e-09
5.9778041e-07
-7.1787025e-09
5.9941491e-07
-8.2273576e-09
6.0142715e-07
-9.2681648e-09
6.0388751e-07
-1.030127e-08
6.0689105e-07
-1.1332582e-08
6.1058077e-07
-1.2391342e-08
6.1527788e-07
-1.3527693e-08
6.2183312e-07
-1.4601245e-08
6.313324e-07
-1.4722596e-08
6.4023831e-07
-1.224329e-08
6.2823118e-07
-6.7743164e-09
5.5360425e-07
-1.4724044e-09
3.8263381e-07
1.3615537e-07
1.4790165e-09
1.0760153e-07
6.6989051e-09
3.2751511e-07
1.3469307e-08
5.1682799e-07
1.7506356e-08
6.234879e-07
1.8014185e-08
6.516398e-07
1.6862212e-08
6.4393999e-07
1.5508081e-08
6.3140049e-07
1.4304909e-08
6.2254744e-07
1.3190245e-08
6.165693e-07
1.2101212e-08
6.1203822e-07
1.1019592e-08
6.0837093e-07
9.9418952e-09
6.0535537e-07
8.866995e-09
6.0286901e-07
7.79437e-09
6.0082122e-07
6.723946e-09
5.9914447e-07
5.6559089e-09
5.9778875e-07
4.5905534e-09
5.96717e-07
3.5282047e-09
5.9590199e-07
2.4691873e-09
5.9532423e-07
1.4138265e-09
5.9497065e-07
3.6246841e-10
5.948337e-07
-6.844902e-10
5.9491096e-07
-1.7265639e-09
5.9520501e-07
-2.7631485e-09
5.9572361e-07
-3.7934957e-09
5.9648018e-07
-4.8167069e-09
5.9749477e-07
-5.8317566e-09
5.9879546e-07
-6.8375644e-09
6.0042072e-07
-7.8331204e-09
6.024227e-07
-8.817661e-09
6.0487205e-07
-9.7915218e-09
6.0786491e-07
-1.0761642e-08
6.1155089e-07
-1.1757403e-08
6.1627364e-07
-1.2816644e-08
6.2289237e-07
-1.376313e-08
6.3227889e-07
-1.370912e-08
6.401843e-07
-1.1180583e-08
6.2570264e-07
-6.0386134e-09
5.4846228e-07
-1.2984663e-09
3.7789366e-07
1.348569e-07
1.3660462e-09
1.0632375e-07
6.0919566e-09
3.2293209e-07
1.2429689e-08
5.1059662e-07
1.6447072e-08
6.1951997e-07
1.7151511e-08
6.5094449e-07
1.6158295e-08
6.4492977e-07
1.4887261e-08
6.3266901e-07
1.3741016e-08
6.2369314e-07
1.2681974e-08
6.1762837e-07
1.1648849e-08
6.1307138e-07
1.0621379e-08
6.0939841e-07
9.5953846e-09
6.0638136e-07
8.5697124e-09
6.0389468e-07
7.5439541e-09
6.0184698e-07
6.5182152e-09
6.0017021e-07
5.4929239e-09
5.9881404e-07
4.4686721e-09
5.9774125e-07
3.4461244e-09
5.9692453e-07
2.4259772e-09
5.9634438e-07
1.40895e-09
5.9598767e-07
3.9579734e-10
5.9584685e-07
-6.1266964e-10
5.9591943e-07
-1.615552e-09
5.9620789e-07
-2.6118408e-09
5.967199e-07
-3.600399e-09
5.9746874e-07
-4.5799629e-09
5.9847433e-07
-5.5491743e-09
5.9976467e-07
-6.5066592e-09
6.013782e-07
-7.4511593e-09
6.0336721e-07
-8.3817379e-09
6.0580263e-07
-9.2988452e-09
6.0878202e-07
-1.021017e-08
6.1246222e-07
-1.1144204e-08
6.1720768e-07
-1.2125301e-08
6.2387346e-07
-1.2945613e-08
6.330992e-07
-1.2731215e-08
6.3996991e-07
-1.0179302e-08
6.2315073e-07
-5.3641904e-09
5.4364717e-07
-1.140576e-09
3.7367004e-07
1.3371632e-07
1.2577689e-09
1.0516705e-07
5.5290671e-09
3.1883228e-07
1.1441293e-08
5.0481231e-07
1.5409847e-08
6.1561208e-07
1.6289977e-08
6.50077e-07
1.5455143e-08
6.4576125e-07
1.4272136e-08
6.3384905e-07
1.3184635e-08
6.2477992e-07
1.2180689e-08
6.1863231e-07
1.120229e-08
6.1404982e-07
1.0227663e-08
6.1037305e-07
9.2520418e-09
6.0735698e-07
8.2743168e-09