/*--------------------------------*- C++ -*----------------------------------*\
  =========                 |
  \\      /  F ield         | OpenFOAM: The Open Source CFD Toolbox
   \\    /   O peration     | Website:  https://openfoam.org
    \\  /    A nd           | Version:  10
     \\/     M anipulation  |
\*---------------------------------------------------------------------------*/
FoamFile
{
    format      ascii;
    class       volScalarField;
    location    "0.1";
    object      T;
}
// * * * * * * * * * * * * * * * * * * * * * * * * * * * * * * * * * * * * * //

dimensions      [0 0 0 1 0 0 0];

internalField   nonuniform List<scalar> 
4000
(
303.10121
299.34303
299.99042
300.00082
299.99993
300
300
300
300
300
300
300
300
300
300
300
300
300
300
300
300
300
300
300
300
300
300
300
300
300
300
300
300
300
300
300
300
300
300
300.00001
309.66258
298.49328
299.77933
300.00184
300.0008
299.99999
300
300
300
300
300
300
300
300
300
300
300
300
300
300
300
300
300
300
300
300
300
300
300
300
300
300
300
300
300
300
300
300
299.99999
300.00002
316.00203
298.68465
299.39263
299.97573
300.00405
300.00025
299.99999
300
300
300
300
300
300
300
300
300
300
300
300
300
300
300
300
300
300
300
300
300
300
300
300
300
300
300
300
300
300
299.99999
299.99999
300.00002
321.73804
299.845
298.98562
299.89509
300.00714
300.00138
300
299.99999
300
300
300
300
300
300
300
300
300
300
300
300
300
300
300
300
300
300
300
300
300
300
300
300
300
300
300
300
299.99999
299.99999
299.99999
300.00003
326.6642
301.69755
298.71106
299.75364
300.00322
300.00377
300.00017
299.99998
300
300
300
300
300
300
300
300
300
300
300
300
300
300
300
300
300
300
300
300
300
300
300
300
300
300
299.99999
299.99999
299.99999
299.99998
299.99999
300.00004
330.675
303.94185
298.66412
299.56935
299.98435
300.00693
300.00071
299.99996
299.99999
300
300
300
300
300
300
300
300
300
300
300
300
300
300
300
300
300
300
300
300
300
300
300
300
299.99999
299.99999
299.99999
299.99999
299.99998
300
300.00004
333.76086
306.32007
298.87079
299.3754
299.94548
300.00933
300.00179
300
299.99998
299.99999
300
300
300
300
300
300
300
300
300
300
300
300
300
300
300
300
300
300
300
300
300
300
299.99999
299.99999
299.99999
299.99999
299.99998
299.99998
300
300.00004
336.00466
308.64763
299.30571
299.20619
299.88649
300.00886
300.00341
300.00013
299.99996
299.99999
300
300
300
300
300
300
300
300
300
300
300
300
300
300
300
300
300
300
300
300
300
299.99999
299.99999
299.99999
299.99999
299.99999
299.99998
299.99998
300.00001
300.00004
337.55298
310.81369
299.91891
299.0875
299.81181
300.00354
300.00535
300.00045
299.99995
299.99998
299.99999
300
300
300
300
300
300
300
300
300
300
300
300
300
300
300
300
300
300
299.99999
299.99999
299.99999
299.99999
299.99999
299.99999
299.99998
299.99998
299.99998
300.00001
300.00004
338.57704
312.76542
300.65565
299.03359
299.72846
299.9921
300.00715
300.00097
299.99996
299.99998
299.99999
299.99999
299.99999
300
300
300
300
300
300
300
300
300
300
300
300
300
300
300
299.99999
299.99999
299.99999
299.99999
299.99999
299.99999
299.99999
299.99998
299.99998
299.99998
300.00001
300.00004
339.23928
314.48984
301.46709
299.04866
299.64416
299.97416
300.00829
300.00171
300
299.99996
299.99999
299.99999
299.99999
299.99999
300
300
300
300
300
300
300
300
300
300
300
300
299.99999
299.99999
299.99999
299.99999
299.99999
299.99999
299.99999
299.99999
299.99998
299.99998
299.99997
299.99998
300.00002
300.00004
339.67268
315.99802
302.31464
299.12984
299.56586
299.9502
300.00823
300.00261
300.0001
299.99995
299.99999
299.99999
299.99999
299.99999
299.99999
299.99999
299.99999
300
300
300
300
300
300
300
299.99999
299.99999
299.99999
299.99999
299.99999
299.99999
299.99999
299.99999
299.99999
299.99999
299.99998
299.99998
299.99997
299.99999
300.00002
300.00004
339.97346
317.31313
303.17043
299.27018
299.49909
299.92133
300.00655
300.00357
300.00028
299.99995
299.99998
299.99999
299.99999
299.99999
299.99999
299.99999
299.99999
299.99999
299.99999
299.99999
299.99999
299.99999
299.99999
299.99999
299.99999
299.99999
299.99999
299.99999
299.99999
299.99999
299.99999
299.99999
299.99999
299.99998
299.99998
299.99998
299.99997
299.99999
300.00002
300.00003
340.20392
318.46232
304.01577
299.46107
299.44769
299.88904
300.00298
300.00447
300.00053
299.99995
299.99998
299.99999
299.99999
299.99999
299.99999
299.99999
299.99999
299.99999
299.99999
299.99999
299.99999
299.99999
299.99999
299.99999
299.99999
299.99999
299.99999
299.99999
299.99999
299.99999
299.99999
299.99999
299.99999
299.99998
299.99998
299.99997
299.99998
299.99999
300.00003
300.00003
340.40011
319.47197
304.83896
299.69365
299.414
299.85494
299.99741
300.00517
300.00085
299.99997
299.99997
299.99999
299.99999
299.99999
299.99999
299.99999
299.99999
299.99999
299.99999
299.99999
299.99999
299.99999
299.99999
299.99999
299.99999
299.99999
299.99999
299.99999
299.99999
299.99999
299.99999
299.99999
299.99998
299.99998
299.99998
299.99997
299.99998
300
300.00003
300.00003
340.5803
320.36538
305.63323
299.95972
299.39912
299.82062
299.98988
300.00554
300.00122
300.00001
299.99996
299.99999
299.99999
299.99999
299.99999
299.99999
299.99999
299.99999
299.99999
299.99999
299.99999
299.99999
299.99999
299.99999
299.99999
299.99999
299.99999
299.99999
299.99999
299.99999
299.99999
299.99999
299.99998
299.99998
299.99998
299.99997
299.99998
300
300.00003
300.00003
340.75187
321.16191
306.39502
300.25198
299.40323
299.78754
299.98055
300.00547
300.00163
300.00007
299.99996
299.99998
299.99999
299.99999
299.99999
299.99999
299.99999
299.99999
299.99999
299.99999
299.99999
299.99999
299.99999
299.99999
299.99999
299.99999
299.99999
299.99999
299.99999
299.99999
299.99999
299.99998
299.99998
299.99998
299.99998
299.99997
299.99998
300
300.00003
300.00003
340.9163
321.87693
307.12273
300.56416
299.42587
299.75695
299.96968
300.00486
300.00203
300.00016
299.99996
299.99998
299.99999
299.99999
299.99999
299.99999
299.99999
299.99999
299.99999
299.99999
299.99999
299.99999
299.99999
299.99999
299.99999
299.99999
299.99999
299.99999
299.99999
299.99999
299.99999
299.99998
299.99998
299.99998
299.99997
299.99997
299.99998
300.00001
300.00003
300.00003
341.07237
322.52225
307.81585
300.89089
299.46612
299.72991
299.9576
300.00366
300.00239
300.00027
299.99996
299.99998
299.99999
299.99999
299.99999
299.99999
299.99999
299.99999
299.99999
299.99999
299.99999
299.99999
299.99999
299.99999
299.99999
299.99999
299.99999
299.99999
299.99999
299.99999
299.99998
299.99998
299.99998
299.99998
299.99997
299.99997
299.99998
300.00001
300.00003
300.00002
341.21802
323.1066
308.47438
301.22759
299.52278
299.70725
299.94467
300.00185
300.00269
300.0004
299.99997
299.99997
299.99999
299.99999
299.99999
299.99999
299.99999
299.99999
299.99999
299.99999
299.99999
299.99999
299.99999
299.99999
299.99999
299.99999
299.99999
299.99999
299.99999
299.99999
299.99998
299.99998
299.99998
299.99998
299.99997
299.99997
299.99998
300.00001
300.00003
300.00002
341.35133
323.63626
309.09847
301.57032
299.59446
299.68962
299.93127
299.99942
300.00288
300.00054
299.99999
299.99997
299.99998
299.99999
299.99999
299.99999
299.99999
299.99999
299.99999
299.99999
299.99999
299.99999
299.99999
299.99999
299.99999
299.99999
299.99999
299.99999
299.99999
299.99998
299.99998
299.99998
299.99998
299.99998
299.99997
299.99997
299.99999
300.00001
300.00003
300.00002
341.47083
324.11556
309.68819
301.91562
299.67966
299.67747
299.9178
299.9964
300.00295
300.00069
300.00001
299.99997
299.99998
299.99999
299.99999
299.99999
299.99999
299.99999
299.99999
299.99999
299.99999
299.99999
299.99999
299.99999
299.99999
299.99999
299.99999
299.99999
299.99998
299.99998
299.99998
299.99998
299.99998
299.99998
299.99997
299.99997
299.99999
300.00001
300.00003
300.00002
341.57542
324.54731
310.24343
302.26041
299.77682
299.67108
299.90461
299.99285
300.00285
300.00084
300.00004
299.99997
299.99998
299.99998
299.99999
299.99999
299.99999
299.99999
299.99999
299.99999
299.99999
299.99999
299.99999
299.99999
299.99999
299.99999
299.99999
299.99998
299.99998
299.99998
299.99998
299.99998
299.99998
299.99997
299.99997
299.99997
299.99999
300.00001
300.00003
300.00003
341.66423
324.9331
310.7638
302.60187
299.88433
299.67061
299.89206
299.98884
300.00258
300.00098
300.00008
299.99997
299.99998
299.99998
299.99998
299.99999
299.99999
299.99999
299.99999
299.99999
299.99999
299.99999
299.99999
299.99999
299.99999
299.99999
299.99998
299.99998
299.99998
299.99998
299.99998
299.99998
299.99998
299.99997
299.99997
299.99997
299.99999
300.00001
300.00003
300.00003
341.73656
325.27356
311.24862
302.93739
300.00055
299.67606
299.88048
299.98446
300.00213
300.0011
300.00012
299.99997
299.99998
299.99998
299.99998
299.99998
299.99998
299.99999
299.99999
299.99999
299.99999
299.99999
299.99999
299.99999
299.99999
299.99998
299.99998
299.99998
299.99998
299.99998
299.99998
299.99998
299.99998
299.99997
299.99997
299.99997
299.99999
300.00002
300.00003
300.00004
341.79191
325.56859
311.69687
303.26449
300.12384
299.6873
299.87014
299.97982
300.00149
300.00119
300.00017
299.99998
299.99998
299.99998
299.99998
299.99998
299.99998
299.99998
299.99998
299.99998
299.99998
299.99998
299.99998
299.99998
299.99998
299.99998
299.99998
299.99998
299.99998
299.99998
299.99998
299.99998
299.99998
299.99997
299.99997
299.99998
299.99999
300.00002
300.00003
300.00004
341.83009
325.81753
312.10724
303.58073
300.25253
299.70413
299.86129
299.97501
300.00067
300.00125
300.00022
299.99999
299.99998
299.99998
299.99998
299.99998
299.99998
299.99998
299.99998
299.99998
299.99998
299.99998
299.99998
299.99998
299.99998
299.99998
299.99998
299.99998
299.99998
299.99998
299.99998
299.99998
299.99997
299.99997
299.99997
299.99998
299.99999
300.00002
300.00003
300.00005
341.85138
326.01952
312.47811
303.88377
300.38497
299.72621
299.85413
299.97016
299.99967
300.00126
300.00027
299.99999
299.99998
299.99998
299.99998
299.99998
299.99998
299.99998
299.99998
299.99998
299.99998
299.99998
299.99998
299.99998
299.99998
299.99998
299.99998
299.99998
299.99998
299.99998
299.99998
299.99998
299.99997
299.99997
299.99997
299.99998
299.99999
300.00002
300.00003
300.00005
341.85662
326.17378
312.80775
304.17128
300.51948
299.75314
299.8488
299.96539
299.99852
300.00123
300.00031
300
299.99997
299.99998
299.99998
299.99998
299.99998
299.99998
299.99998
299.99998
299.99998
299.99998
299.99998
299.99998
299.99998
299.99998
299.99998
299.99998
299.99998
299.99998
299.99998
299.99998
299.99997
299.99997
299.99997
299.99998
300
300.00002
300.00003
300.00005
341.84725
326.28011
313.09436
304.44099
300.65442
299.78443
299.84543
299.96079
299.99723
300.00114
300.00035
300.00002
299.99997
299.99998
299.99998
299.99998
299.99998
299.99998
299.99998
299.99998
299.99998
299.99998
299.99998
299.99998
299.99998
299.99998
299.99998
299.99998
299.99998
299.99998
299.99998
299.99997
299.99997
299.99997
299.99997
299.99998
300
300.00002
300.00004
300.00005
341.82536
326.33936
313.33644
304.69075
300.78817
299.81955
299.84405
299.95648
299.99584
300.001
300.00039
300.00003
299.99998
299.99998
299.99998
299.99998
299.99998
299.99998
299.99998
299.99998
299.99998
299.99998
299.99998
299.99998
299.99998
299.99998
299.99998
299.99998
299.99998
299.99998
299.99998
299.99997
299.99997
299.99997
299.99997
299.99998
300
300.00002
300.00004
300.00006
341.79362
326.35393
313.53303
304.91862
300.91915
299.85788
299.84467
299.95255
299.99438
300.00081
300.00041
300.00004
299.99998
299.99998
299.99998
299.99998
299.99998
299.99998
299.99998
299.99998
299.99998
299.99998
299.99998
299.99998
299.99998
299.99998
299.99998
299.99998
299.99998
299.99998
299.99997
299.99997
299.99997
299.99997
299.99997
299.99998
300
300.00002
300.00004
300.00006
341.75516
326.3281
313.6841
305.12299
301.04589
299.89881
299.84726
299.94907
299.99287
300.00057
300.00042
300.00005
299.99998
299.99998
299.99998
299.99998
299.99998
299.99998
299.99998
299.99998
299.99998
299.99998
299.99998
299.99998
299.99998
299.99998
299.99998
299.99998
299.99998
299.99998
299.99997
299.99997
299.99997
299.99997
299.99997
299.99998
300
300.00002
300.00004
300.00006
341.71333
326.26836
313.79089
305.30272
301.16706
299.94166
299.85173
299.94612
299.99135
300.00028
300.00043
300.00007
299.99998
299.99997
299.99998
299.99998
299.99998
299.99998
299.99998
299.99998
299.99998
299.99998
299.99998
299.99998
299.99998
299.99998
299.99998
299.99998
299.99998
299.99997
299.99997
299.99997
299.99997
299.99997
299.99997
299.99998
300
300.00002
300.00004
300.00007
341.6714
326.18326
313.85621
305.45735
301.28154
299.98579
299.85795
299.94372
299.98985
299.99995
300.00041
300.00008
299.99998
299.99997
299.99997
299.99998
299.99998
299.99998
299.99998
299.99998
299.99998
299.99998
299.99998
299.99998
299.99998
299.99998
299.99998
299.99997
299.99997
299.99997
299.99997
299.99997
299.99997
299.99997
299.99997
299.99998
300
300.00002
300.00005
300.00007
341.6322
326.08285
313.88452
305.58712
301.38843
300.03055
299.86574
299.94192
299.9884
299.99958
300.00039
300.00009
299.99998
299.99997
299.99997
299.99997
299.99997
299.99998
299.99998
299.99998
299.99998
299.99998
299.99998
299.99998
299.99997
299.99997
299.99997
299.99997
299.99997
299.99997
299.99997
299.99997
299.99997
299.99997
299.99997
299.99998
300
300.00002
300.00005
300.00007
341.59777
325.9777
313.88185
305.6931
301.48713
300.07535
299.8749
299.94069
299.98703
299.99919
300.00035
300.00009
299.99999
299.99997
299.99997
299.99997
299.99997
299.99997
299.99997
299.99997
299.99997
299.99997
299.99997
299.99997
299.99997
299.99997
299.99997
299.99997
299.99997
299.99997
299.99997
299.99997
299.99997
299.99996
299.99997
299.99998
300
300.00002
300.00005
300.00007
341.56915
325.87743
313.85552
305.77715
301.57736
300.11968
299.88523
299.94005
299.98574
299.99878
300.0003
300.0001
299.99999
299.99997
299.99997
299.99997
299.99997
299.99997
299.99997
299.99997
299.99997
299.99997
299.99997
299.99997
299.99997
299.99997
299.99997
299.99997
299.99997
299.99997
299.99997
299.99997
299.99996
299.99996
299.99997
299.99998
300
300.00002
300.00005
300.00008
341.54636
325.78937
313.8135
305.84183
301.65911
300.16312
299.89657
299.93999
299.98458
299.99835
300.00023
300.0001
299.99999
299.99997
299.99997
299.99997
299.99997
299.99997
299.99997
299.99997
299.99997
299.99997
299.99997
299.99997
299.99997
299.99997
299.99997
299.99997
299.99997
299.99997
299.99997
299.99997
299.99996
299.99996
299.99997
299.99998
300
300.00003
300.00005
300.00008
341.52851
325.71744
313.76375
305.89031
301.73268
300.20535
299.90876
299.94051
299.98356
299.99793
300.00016
300.0001
299.99999
299.99997
299.99997
299.99997
299.99997
299.99997
299.99997
299.99997
299.99997
299.99997
299.99997
299.99997
299.99997
299.99997
299.99997
299.99997
299.99997
299.99997
299.99997
299.99996
299.99996
299.99996
299.99997
299.99998
300
300.00003
300.00005
300.00008
341.51416
325.66186
313.71329
305.92616
301.79863
300.24617
299.92168
299.94161
299.9827
299.99751
300.00007
300.0001
300
299.99997
299.99997
299.99997
299.99997
299.99997
299.99997
299.99997
299.99997
299.99997
299.99997
299.99997
299.99997
299.99997
299.99997
299.99997
299.99997
299.99997
299.99997
299.99996
299.99996
299.99996
299.99996
299.99998
300
300.00003
300.00005
300.00008
341.50163
325.61959
313.66729
305.95311
301.8578
300.28541
299.93515
299.94325
299.98201
299.9971
299.99998
300.00009
300
299.99997
299.99997
299.99997
299.99997
299.99997
299.99997
299.99997
299.99997
299.99997
299.99997
299.99997
299.99997
299.99997
299.99997
299.99997
299.99997
299.99997
299.99997
299.99996
299.99996
299.99996
299.99997
299.99998
300
300.00003
300.00006
300.00009
341.48946
325.58548
313.62843
305.97465
301.91121
300.32294
299.94893
299.94533
299.98147
299.99671
299.99988
300.00008
300
299.99997
299.99997
299.99997
299.99997
299.99997
299.99997
299.99997
299.99997
299.99997
299.99997
299.99997
299.99997
299.99997
299.99997
299.99997
299.99997
299.99997
299.99997
299.99996
299.99996
299.99996
299.99997
299.99998
300
300.00003
300.00006
300.00009
341.47655
325.55371
313.59642
305.9935
301.96002
300.35865
299.96267
299.94764
299.98103
299.99633
299.99977
300.00007
300
299.99997
299.99997
299.99997
299.99997
299.99997
299.99997
299.99997
299.99997
299.99997
299.99997
299.99997
299.99997
299.99997
299.99997
299.99997
299.99997
299.99997
299.99996
299.99996
299.99996
299.99996
299.99997
299.99998
300
300.00003
300.00006
300.00009
341.4624
325.51917
313.56825
306.01109
302.00528
300.3925
299.97598
299.94993
299.98058
299.99594
299.99966
300.00005
300
299.99997
299.99996
299.99996
299.99996
299.99996
299.99996
299.99996
299.99996
299.99996
299.99996
299.99996
299.99996
299.99996
299.99996
299.99996
299.99996
299.99996
299.99996
299.99996
299.99996
299.99996
299.99997
299.99998
300
300.00002
300.00006
300.00009
341.44699
325.47846
313.53892
306.02704
302.04769
300.42452
299.98852
299.95193
299.98004
299.99552
299.99955
300.00004
299.99999
299.99996
299.99995
299.99995
299.99995
299.99995
299.99995
299.99995
299.99995
299.99995
299.99995
299.99995
299.99995
299.99995
299.99995
299.99995
299.99995
299.99995
299.99995
299.99995
299.99995
299.99996
299.99996
299.99998
300
300.00002
300.00007
300.00009
341.43073
325.4303
313.50273
306.03914
302.08727
300.45485
300.00017
299.95349
299.97931
299.99506
299.99943
300.00002
299.99999
299.99995
299.99994
299.99994
299.99994
299.99994
299.99994
299.99994
299.99994
299.99994
299.99994
299.99994
299.99994
299.99994
299.99994
299.99994
299.99994
299.99994
299.99994
299.99994
299.99995
299.99995
299.99996
299.99997
299.99999
300.00002
300.00007
300.00009
341.41426
325.37544
313.4548
306.0437
302.12317
300.48367
300.01114
299.95469
299.97842
299.99454
299.99929
300
299.99998
299.99994
299.99993
299.99993
299.99993
299.99993
299.99993
299.99993
299.99993
299.99993
299.99993
299.99993
299.99993
299.99993
299.99993
299.99993
299.99993
299.99993
299.99993
299.99993
299.99993
299.99994
299.99995
299.99996
299.99998
300.00002
300.00007
300.00009
341.39829
325.31616
313.39244
306.03653
302.15368
300.51105
300.02196
299.95586
299.97748
299.99399
299.99916
299.99998
299.99997
299.99993
299.99992
299.99992
299.99992
299.99992
299.99992
299.99992
299.99992
299.99992
299.99992
299.99992
299.99992
299.99992
299.99992
299.99992
299.99992
299.99992
299.99992
299.99992
299.99992
299.99993
299.99994
299.99995
299.99998
300.00002
300.00008
300.0001
341.38348
325.25561
313.31587
306.01413
302.17653
300.53685
300.03334
299.9576
299.97675
299.99348
299.99902
299.99997
299.99997
299.99992
299.99991
299.99991
299.99991
299.99991
299.99991
299.99991
299.99991
299.99991
299.99991
299.99991
299.99991
299.99991
299.99991
299.99991
299.99991
299.99991
299.99991
299.99991
299.99991
299.99992
299.99993
299.99994
299.99998
300.00003
300.00008
300.0001
341.37032
325.19706
313.22825
305.97487
302.18954
300.56061
300.04592
299.96059
299.97655
299.9931
299.9989
299.99995
299.99996
299.99992
299.9999
299.9999
299.9999
299.9999
299.99991
299.99991
299.99991
299.99991
299.99991
299.99991
299.99991
299.99991
299.99991
299.99991
299.99991
299.9999
299.9999
299.9999
299.9999
299.99991
299.99992
299.99994
299.99998
300.00004
300.00008
300.0001
341.35912
325.14339
313.13489
305.91969
302.19127
300.58158
300.06001
299.96535
299.97721
299.99296
299.99881
299.99993
299.99997
299.99992
299.99991
299.99991
299.99991
299.99991
299.99991
299.99991
299.99991
299.99991
299.99991
299.99991
299.99991
299.99991
299.99991
299.99991
299.99991
299.99991
299.99991
299.9999
299.9999
299.99991
299.99992
299.99994
299.99998
300.00004
300.00009
300.0001
341.34998
325.09666
313.04199
305.85202
302.18157
300.59895
300.07541
299.97208
299.97891
299.99312
299.99877
299.99992
299.99997
299.99993
299.99992
299.99992
299.99992
299.99992
299.99992
299.99992
299.99992
299.99992
299.99992
299.99992
299.99992
299.99992
299.99992
299.99992
299.99992
299.99992
299.99991
299.99991
299.99991
299.99991
299.99992
299.99995
299.99999
300.00005
300.00009
300.0001
341.34282
325.05796
312.95537
305.77714
302.16172
300.61203
300.09139
299.98052
299.98164
299.99363
299.99879
299.99991
299.99998
299.99994
299.99993
299.99993
299.99993
299.99993
299.99993
299.99993
299.99993
299.99994
299.99994
299.99993
299.99993
299.99993
299.99993
299.99993
299.99993
299.99993
299.99993
299.99992
299.99992
299.99992
299.99993
299.99996
300.00001
300.00006
300.00009
300.0001
341.33746
325.02745
312.87943
305.70097
302.13423
300.62051
300.10694
299.99002
299.98516
299.99444
299.99887
299.9999
299.99998
299.99996
299.99995
299.99995
299.99995
299.99995
299.99995
299.99995
299.99995
299.99995
299.99995
299.99995
299.99995
299.99995
299.99995
299.99995
299.99995
299.99995
299.99994
299.99994
299.99994
299.99994
299.99995
299.99997
300.00002
300.00007
300.00009
300.0001
341.33362
325.00456
312.81664
305.62896
302.10229
300.62453
300.121
299.9997
299.98911
299.99546
299.99901
299.9999
299.99999
299.99997
299.99996
299.99996
299.99997
299.99997
299.99997
299.99997
299.99997
299.99997
299.99997
299.99997
299.99997
299.99997
299.99997
299.99997
299.99996
299.99996
299.99996
299.99996
299.99996
299.99996
299.99997
299.99999
300.00003
300.00007
300.00009
300.0001
341.331
324.98819
312.76754
305.56522
302.06911
300.62466
300.13273
300.00872
299.99306
299.99656
299.99918
299.99991
300
299.99999
299.99998
299.99998
299.99998
299.99998
299.99998
299.99998
299.99998
299.99998
299.99998
299.99998
299.99998
299.99998
299.99998
299.99998
299.99998
299.99998
299.99998
299.99997
299.99997
299.99997
299.99998
300
300.00004
300.00008
300.00009
300.0001
341.3293
324.97702
312.73111
305.51205
302.03743
300.6218
300.14168
300.01643
299.99664
299.99763
299.99937
299.99992
300
300
299.99999
299.99999
299.99999
299.99999
299.99999
299.99999
299.99999
299.99999
299.99999
299.99999
299.99999
299.99999
299.99999
299.99999
299.99999
299.99999
299.99999
299.99999
299.99999
299.99999
300
300.00002
300.00005
300.00008
300.00009
300.0001
341.32825
324.96973
312.70534
305.47005
302.00918
300.61696
300.14787
300.02251
299.99963
299.99856
299.99955
299.99994
300
300
300
300
300
300
300
300
300
300
300
300
300
300
300
300
300
300
300
300
300
300
300.00001
300.00002
300.00005
300.00008
300.00009
300.0001
341.32765
324.96515
312.68783
305.43843
301.98539
300.61112
300.15161
300.02693
300.00193
299.99932
299.99971
299.99995
300.00001
300.00001
300.00001
300.00001
300.00001
300.00001
300.00001
300.00001
300.00001
300.00001
300.00001
300.00001
300.00001
300.00001
300.00001
300.00001
300.00001
300.00001
300.00001
300.00001
300.00001
300.00001
300.00001
300.00003
300.00005
300.00008
300.00009
300.0001
341.32732
324.96232
312.67623
305.41556
301.96632
300.60511
300.15346
300.02988
300.00358
299.9999
299.99984
299.99997
300.00001
300.00001
300.00001
300.00001
300.00001
300.00001
300.00001
300.00001
300.00001
300.00001
300.00001
300.00001
300.00001
300.00001
300.00001
300.00001
300.00001
300.00001
300.00001
300.00001
300.00001
300.00001
300.00002
300.00003
300.00005
300.00008
300.00009
300.0001
341.32715
324.96057
312.66857
305.39946
301.95163
300.59951
300.154
300.03169
300.00468
300.0003
299.99994
299.99998
300.00001
300.00001
300.00001
300.00001
300.00001
300.00001
300.00001
300.00001
300.00001
300.00001
300.00001
300.00001
300.00001
300.00001
300.00001
300.00001
300.00001
300.00001
300.00001
300.00001
300.00001
300.00001
300.00002
300.00003
300.00005
300.00008
300.00009
300.00009
341.32707
324.95941
312.66336
305.38823
301.94062
300.59464
300.15377
300.03269
300.00538
300.00057
300.00001
300
300.00001
300.00001
300.00001
300.00001
300.00001
300.00001
300.00001
300.00001
300.00001
300.00001
300.00001
300.00001
300.00001
300.00001
300.00001
300.00001
300.00001
300.00001
300.00001
300.00001
300.00001
300.00001
300.00002
300.00003
300.00005
300.00008
300.00009
300.00009
341.32703
324.95857
312.65958
305.38029
301.9325
300.59064
300.15317
300.03318
300.00579
300.00075
300.00006
300
300.00001
300.00001
300.00001
300.00001
300.00001
300.00001
300.00001
300.00001
300.00001
300.00001
300.00001
300.00001
300.00001
300.00001
300.00001
300.00001
300.00001
300.00001
300.00001
300.00001
300.00001
300.00001
300.00002
300.00003
300.00005
300.00008
300.00009
300.00009
341.327
324.95789
312.65661
305.37443
301.92649
300.58747
300.15248
300.03338
300.00602
300.00085
300.00009
300.00001
300.00001
300.00001
300.00001
300.00001
300.00001
300.00001
300.00001
300.00001
300.00001
300.00001
300.00001
300.00001
300.00001
300.00001
300.00001
300.00001
300.00001
300.00001
300.00001
300.00001
300.00001
300.00001
300.00002
300.00003
300.00005
300.00008
300.00009
300.00009
341.32697
324.95729
312.65412
305.36988
301.92195
300.585
300.15183
300.03343
300.00616
300.00092
300.00011
300.00001
300.00001
300.00001
300.00001
300.00001
300.00001
300.00001
300.00001
300.00001
300.00001
300.00001
300.00001
300.00001
300.00001
300.00001
300.00001
300.00001
300.00001
300.00001
300.00001
300.00001
300.00001
300.00001
300.00002
300.00003
300.00005
300.00008
300.00009
300.00009
341.32694
324.95674
312.65195
305.36614
301.91842
300.58308
300.15128
300.03343
300.00623
300.00096
300.00012
300.00002
300.00001
300.00001
300.00001
300.00001
300.00001
300.00001
300.00001
300.00001
300.00001
300.00001
300.00001
300.00001
300.00001
300.00001
300.00001
300.00001
300.00001
300.00001
300.00001
300.00001
300.00001
300.00001
300.00002
300.00003
300.00005
300.00008
300.00009
300.00009
341.32692
324.95625
312.65003
305.36296
301.91556
300.58157
300.15085
300.03342
300.00629
300.00099
300.00013
300.00002
300.00001
300.00001
300.00001
300.00001
300.00001
300.00001
300.00001
300.00001
300.00001
300.00001
300.00001
300.00001
300.00001
300.00001
300.00001
300.00001
300.00001
300.00001
300.00001
300.00001
300.00001
300.00001
300.00002
300.00003
300.00005
300.00008
300.00009
300.00009
341.32689
324.95581
312.64833
305.36021
301.91318
300.58036
300.15051
300.03341
300.00632
300.00101
300.00014
300.00002
300.00001
300.00001
300.00001
300.00001
300.00001
300.00001
300.00001
300.00001
300.00001
300.00001
300.00001
300.00001
300.00001
300.00001
300.00001
300.00001
300.00001
300.00001
300.00001
300.00001
300.00001
300.00001
300.00002
300.00003
300.00005
300.00008
300.00009
300.00009
341.32688
324.95542
312.64684
305.35781
301.91117
300.57937
300.15025
300.03341
300.00636
300.00103
300.00014
300.00002
300.00001
300.00001
300.00001
300.00001
300.00001
300.00001
300.00001
300.00001
300.00001
300.00001
300.00001
300.00001
300.00001
300.00001
300.00001
300.00001
300.00001
300.00001
300.00001
300.00001
300.00001
300.00001
300.00002
300.00003
300.00005
300.00007
300.00009
300.00009
341.32686
324.95509
312.64554
305.35573
301.90944
300.57854
300.15004
300.03341
300.00639
300.00104
300.00015
300.00002
300.00001
300.00001
300.00001
300.00001
300.00001
300.00001
300.00001
300.00001
300.00001
300.00001
300.00001
300.00001
300.00001
300.00001
300.00001
300.00001
300.00001
300.00001
300.00001
300.00001
300.00001
300.00001
300.00002
300.00003
300.00005
300.00007
300.00009
300.00009
341.32686
324.95482
312.64443
305.35394
301.90795
300.57784
300.14986
300.03342
300.00641
300.00106
300.00015
300.00002
300.00001
300.00001
300.00001
300.00001
300.00001
300.00001
300.00001
300.00001
300.00001
300.00001
300.00001
300.00001
300.00001
300.00001
300.00001
300.00001
300.00001
300.00001
300.00001
300.00001
300.00001
300.00001
300.00002
300.00003
300.00005
300.00007
300.00009
300.00009
341.32687
324.95459
312.64349
305.3524
301.90667
300.57724
300.14972
300.03343
300.00643
300.00107
300.00016
300.00002
300.00001
300.00001
300.00001
300.00001
300.00001
300.00001
300.00001
300.00001
300.00001
300.00001
300.00001
300.00001
300.00001
300.00001
300.00001
300.00001
300.00001
300.00001
300.00001
300.00001
300.00001
300.00001
300.00002
300.00003
300.00005
300.00007
300.00009
300.00009
341.32689
324.95442
312.64269
305.35109
301.90558
300.57672
300.14959
300.03343
300.00645
300.00108
300.00016
300.00002
300.00001
300.00001
300.00001
300.00001
300.00001
300.00001
300.00001
300.00001
300.00001
300.00001
300.00001
300.00001
300.00001
300.00001
300.00001
300.00001
300.00001
300.00001
300.00001
300.00001
300.00001
300.00001
300.00002
300.00003
300.00005
300.00007
300.00009
300.00009
341.32691
324.9543
312.64202
305.34997
301.90464
300.57628
300.14949
300.03344
300.00647
300.00108
300.00016
300.00002
300.00001
300.00001
300.00001
300.00001
300.00001
300.00001
300.00001
300.00001
300.00001
300.00001
300.00001
300.00001
300.00001
300.00001
300.00001
300.00001
300.00001
300.00001
300.00001
300.00001
300.00001
300.00001
300.00002
300.00003
300.00005
300.00007
300.00009
300.00009
341.32695
324.95422
312.64146
305.34902
301.90385
300.57591
300.14939
300.03344
300.00648
300.00109
300.00016
300.00003
300.00001
300.00001
300.00001
300.00001
300.00001
300.00001
300.00001
300.00001
300.00001
300.00001
300.00001
300.00001
300.00001
300.00001
300.00001
300.00001
300.00001
300.00001
300.00001
300.00001
300.00001
300.00001
300.00002
300.00003
300.00005
300.00007
300.00009
300.00009
341.32701
324.9542
312.64102
305.34822
301.90317
300.57559
300.14931
300.03344
300.00649
300.0011
300.00016
300.00003
300.00001
300.00001
300.00001
300.00001
300.00001
300.00001
300.00001
300.00001
300.00001
300.00001
300.00001
300.00001
300.00001
300.00001
300.00001
300.00001
300.00001
300.00001
300.00001
300.00001
300.00001
300.00001
300.00001
300.00003
300.00005
300.00007
300.00009
300.00009
341.32707
324.95421
312.64067
305.34754
301.90259
300.57531
300.14925
300.03344
300.0065
300.0011
300.00017
300.00003
300.00001
300.00001
300.00001
300.00001
300.00001
300.00001
300.00001
300.00001
300.00001
300.00001
300.00001
300.00001
300.00001
300.00001
300.00001
300.00001
300.00001
300.00001
300.00001
300.00001
300.00001
300.00001
300.00001
300.00003
300.00005
300.00007
300.00009
300.00009
341.32715
324.95428
312.6404
305.34699
301.9021
300.57508
300.14919
300.03344
300.00651
300.0011
300.00017
300.00003
300.00001
300.00001
300.00001
300.00001
300.00001
300.00001
300.00001
300.00001
300.00001
300.00001