/*--------------------------------*- C++ -*----------------------------------*\
  =========                 |
  \\      /  F ield         | OpenFOAM: The Open Source CFD Toolbox
   \\    /   O peration     | Website:  https://openfoam.org
    \\  /    A nd           | Version:  10
     \\/     M anipulation  |
\*---------------------------------------------------------------------------*/
FoamFile
{
    format      ascii;
    class       volScalarField;
    location    "0.1";
    object      T_0;
}
// * * * * * * * * * * * * * * * * * * * * * * * * * * * * * * * * * * * * * //

dimensions      [0 0 0 1 0 0 0];

internalField   nonuniform List<scalar> 
4000
(
303.1012
299.34304
299.99042
300.00082
299.99993
300
300
300
300
300
300
300
300
300
300
300
300
300
300
300
300
300
300
300
300
300
300
300
300
300
300
300
300
300
300
300
300
300
300
300.00001
309.66253
298.4933
299.77934
300.00184
300.0008
299.99999
300
300
300
300
300
300
300
300
300
300
300
300
300
300
300
300
300
300
300
300
300
300
300
300
300
300
300
300
300
300
300
300
299.99999
300.00002
316.00191
298.68466
299.39266
299.97573
300.00405
300.00025
299.99999
300
300
300
300
300
300
300
300
300
300
300
300
300
300
300
300
300
300
300
300
300
300
300
300
300
300
300
300
300
300
299.99999
299.99999
300.00002
321.73781
299.84495
298.98566
299.8951
300.00714
300.00138
300
299.99999
300
300
300
300
300
300
300
300
300
300
300
300
300
300
300
300
300
300
300
300
300
300
300
300
300
300
300
300
299.99999
299.99999
299.99999
300.00003
326.66383
301.6974
298.71111
299.75367
300.00322
300.00377
300.00017
299.99998
300
300
300
300
300
300
300
300
300
300
300
300
300
300
300
300
300
300
300
300
300
300
300
300
300
300
299.99999
299.99999
299.99999
299.99998
299.99999
300.00004
330.67447
303.94152
298.66417
299.5694
299.98436
300.00692
300.0007
299.99996
299.99999
300
300
300
300
300
300
300
300
300
300
300
300
300
300
300
300
300
300
300
300
300
300
300
300
299.99999
299.99999
299.99999
299.99999
299.99998
300
300.00004
333.76013
306.3195
298.87078
299.37549
299.94549
300.00932
300.00178
300
299.99998
299.99999
300
300
300
300
300
300
300
300
300
300
300
300
300
300
300
300
300
300
300
300
300
300
299.99999
299.99999
299.99999
299.99999
299.99998
299.99998
300
300.00004
336.00373
308.64675
299.3056
299.20632
299.88653
300.00886
300.00341
300.00013
299.99996
299.99999
300
300
300
300
300
300
300
300
300
300
300
300
300
300
300
300
300
300
300
300
300
299.99999
299.99999
299.99999
299.99999
299.99999
299.99998
299.99998
300.00001
300.00004
337.55183
310.81241
299.91863
299.08765
299.81188
300.00355
300.00534
300.00045
299.99995
299.99998
299.99999
300
300
300
300
300
300
300
300
300
300
300
300
300
300
300
300
300
300
299.99999
299.99999
299.99999
299.99999
299.99999
299.99999
299.99998
299.99998
299.99998
300.00001
300.00004
338.57564
312.76367
300.65512
299.03375
299.72858
299.99211
300.00715
300.00097
299.99996
299.99998
299.99999
299.99999
299.99999
300
300
300
300
300
300
300
300
300
300
300
300
300
300
300
299.99999
299.99999
299.99999
299.99999
299.99999
299.99999
299.99999
299.99998
299.99998
299.99998
300.00001
300.00004
339.2376
314.48752
301.46623
299.04881
299.64432
299.97418
300.00828
300.00171
300
299.99996
299.99999
299.99999
299.99999
299.99999
299.99999
300
300
300
300
300
300
300
300
300
300
300
299.99999
299.99999
299.99999
299.99999
299.99999
299.99999
299.99999
299.99999
299.99998
299.99998
299.99997
299.99998
300.00002
300.00004
339.67065
315.99503
302.31334
299.12992
299.56609
299.95025
300.00823
300.00261
300.0001
299.99995
299.99999
299.99999
299.99999
299.99999
299.99999
299.99999
299.99999
300
300
300
300
300
300
300
299.99999
299.99999
299.99999
299.99999
299.99999
299.99999
299.99999
299.99999
299.99999
299.99999
299.99998
299.99998
299.99997
299.99999
300.00002
300.00004
339.97099
317.30935
303.16857
299.27015
299.49938
299.92141
300.00655
300.00357
300.00028
299.99995
299.99998
299.99999
299.99999
299.99999
299.99999
299.99999
299.99999
299.99999
299.99999
299.99999
299.99999
299.99999
299.99999
299.99999
299.99999
299.99999
299.99999
299.99999
299.99999
299.99999
299.99999
299.99999
299.99999
299.99998
299.99998
299.99998
299.99997
299.99999
300.00002
300.00003
340.2009
318.4576
304.01322
299.46085
299.44804
299.88917
300.00299
300.00446
300.00053
299.99995
299.99998
299.99999
299.99999
299.99999
299.99999
299.99999
299.99999
299.99999
299.99999
299.99999
299.99999
299.99999
299.99999
299.99999
299.99999
299.99999
299.99999
299.99999
299.99999
299.99999
299.99999
299.99999
299.99999
299.99998
299.99998
299.99997
299.99998
299.99999
300.00003
300.00003
340.39638
319.46613
304.83556
299.69317
299.4144
299.85513
299.99743
300.00516
300.00085
299.99997
299.99997
299.99999
299.99999
299.99999
299.99999
299.99999
299.99999
299.99999
299.99999
299.99999
299.99999
299.99999
299.99999
299.99999
299.99999
299.99999
299.99999
299.99999
299.99999
299.99999
299.99999
299.99999
299.99998
299.99998
299.99998
299.99997
299.99998
300
300.00003
300.00003
340.57562
320.35821
305.6288
299.95887
299.39955
299.82088
299.98991
300.00553
300.00122
300.00001
299.99996
299.99999
299.99999
299.99999
299.99999
299.99999
299.99999
299.99999
299.99999
299.99999
299.99999
299.99999
299.99999
299.99999
299.99999
299.99999
299.99999
299.99999
299.99999
299.99999
299.99999
299.99999
299.99998
299.99998
299.99998
299.99997
299.99998
300
300.00003
300.00003
340.74595
321.15313
306.38935
300.25064
299.40367
299.78788
299.9806
300.00546
300.00162
300.00007
299.99996
299.99998
299.99999
299.99999
299.99999
299.99999
299.99999
299.99999
299.99999
299.99999
299.99999
299.99999
299.99999
299.99999
299.99999
299.99999
299.99999
299.99999
299.99999
299.99999
299.99999
299.99998
299.99998
299.99998
299.99998
299.99997
299.99998
300
300.00003
300.00003
340.90874
321.86619
307.11557
300.56219
299.42628
299.75738
299.96977
300.00485
300.00202
300.00016
299.99996
299.99998
299.99999
299.99999
299.99999
299.99999
299.99999
299.99999
299.99999
299.99999
299.99999
299.99999
299.99999
299.99999
299.99999
299.99999
299.99999
299.99999
299.99999
299.99999
299.99999
299.99998
299.99998
299.99998
299.99997
299.99997
299.99998
300.00001
300.00003
300.00003
341.06272
322.50909
307.80691
300.88813
299.46646
299.73044
299.95773
300.00366
300.00239
300.00027
299.99996
299.99998
299.99999
299.99999
299.99999
299.99999
299.99999
299.99999
299.99999
299.99999
299.99999
299.99999
299.99999
299.99999
299.99999
299.99999
299.99999
299.99999
299.99999
299.99999
299.99998
299.99998
299.99998
299.99998
299.99997
299.99997
299.99998
300.00001
300.00003
300.00002
341.2058
323.09047
308.46329
301.22385
299.52298
299.70789
299.94486
300.00185
300.00268
300.0004
299.99997
299.99997
299.99999
299.99999
299.99999
299.99999
299.99999
299.99999
299.99999
299.99999
299.99999
299.99999
299.99999
299.99999
299.99999
299.99999
299.99999
299.99999
299.99999
299.99999
299.99998
299.99998
299.99998
299.99998
299.99997
299.99997
299.99998
300.00001
300.00003
300.00002
341.33611
323.61646
309.08481
301.56536
299.59445
299.69037
299.93153
299.99943
300.00287
300.00054
299.99999
299.99997
299.99998
299.99999
299.99999
299.99999
299.99999
299.99999
299.99999
299.99999
299.99999
299.99999
299.99999
299.99999
299.99999
299.99999
299.99999
299.99999
299.99999
299.99998
299.99998
299.99998
299.99998
299.99998
299.99997
299.99997
299.99999
300.00001
300.00003
300.00002
341.45218
324.09128
309.67143
301.90917
299.67935
299.67832
299.91814
299.99643
300.00293
300.00069
300.00001
299.99997
299.99998
299.99999
299.99999
299.99999
299.99999
299.99999
299.99999
299.99999
299.99999
299.99999
299.99999
299.99999
299.99999
299.99999
299.99999
299.99999
299.99998
299.99998
299.99998
299.99998
299.99998
299.99998
299.99997
299.99997
299.99999
300.00001
300.00003
300.00002
341.55293
324.51756
310.22295
302.25215
299.77609
299.67203
299.90505
299.99291
300.00284
300.00084
300.00004
299.99997
299.99998
299.99998
299.99999
299.99999
299.99999
299.99999
299.99999
299.99999
299.99999
299.99999
299.99999
299.99999
299.99999
299.99999
299.99999
299.99998
299.99998
299.99998
299.99998
299.99998
299.99998
299.99997
299.99997
299.99997
299.99999
300.00001
300.00003
300.00003
341.63748
324.89676
310.73886
302.59143
299.88303
299.67164
299.89262
299.98893
300.00257
300.00097
300.00008
299.99997
299.99998
299.99998
299.99998
299.99999
299.99999
299.99999
299.99999
299.99999
299.99999
299.99999
299.99999
299.99999
299.99999
299.99999
299.99998
299.99998
299.99998
299.99998
299.99998
299.99998
299.99998
299.99997
299.99997
299.99997
299.99999
300.00001
300.00003
300.00003
341.70512
325.22935
311.21834
302.92434
299.99853
299.67714
299.88115
299.98459
300.00212
300.00109
300.00012
299.99997
299.99998
299.99998
299.99998
299.99998
299.99998
299.99999
299.99999
299.99999
299.99999
299.99999
299.99999
299.99999
299.99998
299.99998
299.99998
299.99998
299.99998
299.99998
299.99998
299.99998
299.99998
299.99997
299.99997
299.99997
299.99999
300.00002
300.00003
300.00004
341.7554
325.51507
311.66023
303.2483
300.1209
299.6884
299.87095
299.97999
300.00148
300.00118
300.00017
299.99998
299.99998
299.99998
299.99998
299.99998
299.99998
299.99998
299.99998
299.99998
299.99998
299.99998
299.99998
299.99998
299.99998
299.99998
299.99998
299.99998
299.99998
299.99998
299.99998
299.99998
299.99998
299.99997
299.99997
299.99997
299.99999
300.00002
300.00003
300.00004
341.7882
325.75319
312.06307
303.56084
300.24846
299.7052
299.86224
299.97525
300.00067
300.00124
300.00021
299.99998
299.99998
299.99998
299.99998
299.99998
299.99998
299.99998
299.99998
299.99998
299.99998
299.99998
299.99998
299.99998
299.99998
299.99998
299.99998
299.99998
299.99998
299.99998
299.99998
299.99998
299.99997
299.99997
299.99997
299.99998
299.99999
300.00002
300.00003
300.00005
341.80397
325.94283
312.42514
303.85952
300.3795
299.72719
299.85523
299.97047
299.99968
300.00125
300.00026
299.99999
299.99997
299.99998
299.99998
299.99998
299.99998
299.99998
299.99998
299.99998
299.99998
299.99998
299.99998
299.99998
299.99998
299.99998
299.99998
299.99998
299.99998
299.99998
299.99998
299.99998
299.99997
299.99997
299.99997
299.99998
299.99999
300.00002
300.00003
300.00005
341.80375
326.08335
312.7446
304.14195
300.51234
299.75396
299.85005
299.96577
299.99855
300.00121
300.00031
300
299.99997
299.99998
299.99998
299.99998
299.99998
299.99998
299.99998
299.99998
299.99998
299.99998
299.99998
299.99998
299.99998
299.99998
299.99998
299.99998
299.99998
299.99998
299.99998
299.99998
299.99997
299.99997
299.99997
299.99998
300
300.00002
300.00003
300.00005
341.78923
326.17487
313.0197
304.40583
300.64531
299.785
299.84682
299.96126
299.99728
300.00113
300.00035
300.00001
299.99997
299.99998
299.99998
299.99998
299.99998
299.99998
299.99998
299.99998
299.99998
299.99998
299.99998
299.99998
299.99998
299.99998
299.99998
299.99998
299.99998
299.99998
299.99998
299.99997
299.99997
299.99997
299.99997
299.99998
300
300.00002
300.00004
300.00006
341.76278
326.21875
313.24902
304.649
300.77674
299.81977
299.84557
299.95704
299.99591
300.00099
300.00038
300.00003
299.99998
299.99998
299.99998
299.99998
299.99998
299.99998
299.99998
299.99998
299.99998
299.99998
299.99998
299.99998
299.99998
299.99998
299.99998
299.99998
299.99998
299.99998
299.99998
299.99997
299.99997
299.99997
299.99997
299.99998
300
300.00002
300.00004
300.00006
341.72733
326.21807
313.43189
304.86957
300.90508
299.85764
299.84631
299.95321
299.99448
300.0008
300.0004
300.00004
299.99998
299.99998
299.99998
299.99998
299.99998
299.99998
299.99998
299.99998
299.99998
299.99998
299.99998
299.99998
299.99998
299.99998
299.99998
299.99998
299.99998
299.99998
299.99997
299.99997
299.99997
299.99997
299.99997
299.99998
300
300.00002
300.00004
300.00006
341.68622
326.17803
313.56869
305.06602
301.02887
299.89798
299.84899
299.94984
299.993
300.00056
300.00042
300.00005
299.99998
299.99997
299.99998
299.99998
299.99998
299.99998
299.99998
299.99998
299.99998
299.99998
299.99998
299.99998
299.99998
299.99998
299.99998
299.99998
299.99998
299.99997
299.99997
299.99997
299.99997
299.99997
299.99997
299.99998
300
300.00002
300.00004
300.00006
341.64291
326.10607
313.66122
305.23743
301.14681
299.94012
299.8535
299.94699
299.99152
300.00028
300.00042
300.00006
299.99998
299.99997
299.99998
299.99998
299.99998
299.99998
299.99998
299.99998
299.99998
299.99998
299.99998
299.99998
299.99998
299.99998
299.99998
299.99998
299.99997
299.99997
299.99997
299.99997
299.99997
299.99997
299.99997
299.99998
300
300.00002
300.00004
300.00007
341.60065
326.01162
313.71296
305.38355
301.25782
299.9834
299.85972
299.94469
299.99006
299.99995
300.0004
300.00007
299.99998
299.99997
299.99997
299.99998
299.99998
299.99998
299.99998
299.99998
299.99998
299.99998
299.99998
299.99998
299.99998
299.99998
299.99997
299.99997
299.99997
299.99997
299.99997
299.99997
299.99997
299.99997
299.99997
299.99998
300
300.00002
300.00005
300.00007
341.5621
325.90541
313.72907
305.50493
301.36111
300.02719
299.86744
299.94296
299.98865
299.99959
300.00038
300.00008
299.99998
299.99997
299.99997
299.99997
299.99997
299.99997
299.99997
299.99997
299.99997
299.99997
299.99997
299.99997
299.99997
299.99997
299.99997
299.99997
299.99997
299.99997
299.99997
299.99997
299.99997
299.99997
299.99997
299.99998
300
300.00002
300.00005
300.00007
341.529
325.79817
313.71625
305.60293
301.45615
300.07091
299.87648
299.9418
299.98731
299.99921
300.00034
300.00009
299.99999
299.99997
299.99997
299.99997
299.99997
299.99997
299.99997
299.99997
299.99997
299.99997
299.99997
299.99997
299.99997
299.99997
299.99997
299.99997
299.99997
299.99997
299.99997
299.99997
299.99997
299.99996
299.99997
299.99998
300
300.00002
300.00005
300.00007
341.50203
325.69914
313.68231
305.6797
301.54275
300.11408
299.88666
299.94122
299.98607
299.99881
300.00029
300.00009
299.99999
299.99997
299.99997
299.99997
299.99997
299.99997
299.99997
299.99997
299.99997
299.99997
299.99997
299.99997
299.99997
299.99997
299.99997
299.99997
299.99997
299.99997
299.99997
299.99997
299.99996
299.99996
299.99997
299.99998
300
300.00002
300.00005
300.00008
341.48081
325.61469
313.63552
305.73808
301.62101
300.15633
299.89782
299.94123
299.98495
299.9984
300.00023
300.0001
299.99999
299.99997
299.99997
299.99997
299.99997
299.99997
299.99997
299.99997
299.99997
299.99997
299.99997
299.99997
299.99997
299.99997
299.99997
299.99997
299.99997
299.99997
299.99997
299.99996
299.99996
299.99996
299.99997
299.99998
300
300.00003
300.00005
300.00008
341.46417
325.54741
313.58378
305.78149
301.69131
300.19736
299.90982
299.94182
299.98399
299.99799
300.00015
300.0001
299.99999
299.99997
299.99997
299.99997
299.99997
299.99997
299.99997
299.99997
299.99997
299.99997
299.99997
299.99997
299.99997
299.99997
299.99997
299.99997
299.99997
299.99997
299.99997
299.99996
299.99996
299.99996
299.99996
299.99998
300
300.00003
300.00005
300.00008
341.45048
325.49614
313.53363
305.81366
301.75434
300.23698
299.92252
299.94297
299.98318
299.99759
300.00007
300.00009
300
299.99997
299.99997
299.99997
299.99997
299.99997
299.99997
299.99997
299.99997
299.99997
299.99997
299.99997
299.99997
299.99997
299.99997
299.99997
299.99997
299.99997
299.99997
299.99996
299.99996
299.99996
299.99996
299.99998
300
300.00003
300.00006
300.00008
341.43804
325.45668
313.4894
305.83834
301.81102
300.27501
299.9357
299.94462
299.98253
299.9972
299.99998
300.00009
300
299.99997
299.99997
299.99997
299.99997
299.99997
299.99997
299.99997
299.99997
299.99997
299.99997
299.99997
299.99997
299.99997
299.99997
299.99997
299.99997
299.99997
299.99997
299.99996
299.99996
299.99996
299.99997
299.99998
300
300.00003
300.00006
300.00009
341.42548
325.42322
313.45255
305.8588
301.86243
300.3113
299.94902
299.94661
299.98199
299.99681
299.99988
300.00008
300
299.99997
299.99997
299.99997
299.99997
299.99997
299.99997
299.99997
299.99997
299.99997
299.99997
299.99997
299.99997
299.99997
299.99997
299.99997
299.99997
299.99997
299.99997
299.99996
299.99996
299.99996
299.99997
299.99998
300
300.00003
300.00006
300.00009
341.41193
325.3899
313.42151
305.87723
301.90971
300.34573
299.96209
299.94867
299.98149
299.99643
299.99978
300.00007
300
299.99997
299.99997
299.99997
299.99997
299.99997
299.99997
299.99997
299.99997
299.99997
299.99997
299.99997
299.99996
299.99996
299.99996
299.99996
299.99996
299.99996
299.99996
299.99996
299.99996
299.99996
299.99997
299.99998
300
300.00002
300.00006
300.00009
341.39707
325.3521
313.39216
305.89424
301.95373
300.37826
299.9745
299.95055
299.98093
299.99603
299.99968
300.00005
299.99999
299.99996
299.99996
299.99996
299.99996
299.99996
299.99996
299.99996
299.99996
299.99996
299.99996
299.99996
299.99996
299.99996
299.99996
299.99996
299.99996
299.99996
299.99996
299.99996
299.99996
299.99996
299.99996
299.99998
300
300.00002
300.00007
300.00009
341.38111
325.30727
313.3589
305.90849
301.99487
300.40898
299.98603
299.95203
299.98022
299.99559
299.99956
300.00004
299.99999
299.99995
299.99995
299.99995
299.99995
299.99995
299.99995
299.99995
299.99995
299.99995
299.99995
299.99995
299.99995
299.99995
299.99995
299.99995
299.99995
299.99995
299.99995
299.99995
299.99995
299.99995
299.99996
299.99997
299.99999
300.00002
300.00007
300.00009
341.36458
325.25509
313.3162
305.91693
302.03271
300.43808
299.99675
299.9531
299.97933
299.9951
299.99944
300.00002
299.99998
299.99994
299.99993
299.99993
299.99993
299.99993
299.99993
299.99993
299.99993
299.99993
299.99993
299.99993
299.99993
299.99993
299.99993
299.99993
299.99993
299.99994
299.99994
299.99994
299.99994
299.99994
299.99995
299.99996
299.99998
300.00002
300.00007
300.00009
341.34821
325.19717
313.2601
305.91549
302.06592
300.46574
300.00711
299.95399
299.97834
299.99457
299.99932
300
299.99997
299.99993
299.99992
299.99992
299.99992
299.99992
299.99992
299.99992
299.99992
299.99992
299.99992
299.99992
299.99992
299.99992
299.99992
299.99992
299.99992
299.99992
299.99992
299.99992
299.99993
299.99993
299.99994
299.99995
299.99998
300.00002
300.00008
300.0001
341.33271
325.13638
313.18938
305.90024
302.09251
300.49201
300.01781
299.95524
299.97747
299.99405
299.99919
299.99999
299.99997
299.99992
299.99991
299.99991
299.99991
299.99991
299.99991
299.99991
299.99991
299.99991
299.99991
299.99991
299.99991
299.99991
299.99991
299.99991
299.99991
299.99991
299.99991
299.99991
299.99991
299.99992
299.99993
299.99995
299.99997
300.00003
300.00008
300.0001
341.31867
325.07612
313.10589
305.86865
302.11027
300.51663
300.02961
299.95752
299.977
299.99362
299.99907
299.99998
299.99996
299.99992
299.9999
299.9999
299.9999
299.99991
299.99991
299.99991
299.99991
299.99991
299.99991
299.99991
299.99991
299.99991
299.99991
299.99991
299.99991
299.99991
299.99991
299.99991
299.99991
299.99991
299.99992
299.99994
299.99997
300.00003
300.00008
300.0001
341.30649
325.01958
313.01414
305.82056
302.11744
300.53902
300.043
299.96144
299.97727
299.99338
299.99897
299.99996
299.99996
299.99992
299.99991
299.9999
299.99991
299.99991
299.99991
299.99991
299.99991
299.99991
299.99991
299.99991
299.99991
299.99991
299.99991
299.99991
299.99991
299.99991
299.9999
299.9999
299.9999
299.99991
299.99992
299.99994
299.99998
300.00004
300.00009
300.0001
341.29638
324.96929
312.92018
305.75841
302.11334
300.55841
300.05799
299.96735
299.97853
299.99341
299.99891
299.99995
299.99997
299.99992
299.99991
299.99991
299.99991
299.99991
299.99992
299.99992
299.99992
299.99992
299.99992
299.99992
299.99992
299.99992
299.99992
299.99991
299.99991
299.99991
299.99991
299.99991
299.99991
299.99991
299.99992
299.99994
299.99999
300.00005
300.00009
300.0001
341.28834
324.9268
312.8302
305.68682
302.09866
300.57401
300.07405
299.97515
299.98082
299.99377
299.9989
299.99994
299.99998
299.99994
299.99992
299.99992
299.99993
299.99993
299.99993
299.99993
299.99993
299.99993
299.99993
299.99993
299.99993
299.99993
299.99993
299.99993
299.99993
299.99992
299.99992
299.99992
299.99992
299.99992
299.99993
299.99995
300
300.00006
300.00009
300.0001
341.28222
324.89268
312.74935
305.61158
302.07541
300.58528
300.09019
299.9843
299.984
299.99444
299.99895
299.99993
299.99998
299.99995
299.99994
299.99994
299.99994
299.99994
299.99994
299.99995
299.99995
299.99995
299.99995
299.99995
299.99995
299.99995
299.99994
299.99994
299.99994
299.99994
299.99994
299.99993
299.99993
299.99993
299.99994
299.99997
300.00001
300.00006
300.00009
300.0001
341.27776
324.86659
312.68097
305.53843
302.04649
300.59209
300.10528
299.99398
299.98773
299.99534
299.99906
299.99992
299.99999
299.99997
299.99996
299.99996
299.99996
299.99996
299.99996
299.99996
299.99996
299.99996
299.99996
299.99996
299.99996
299.99996
299.99996
299.99996
299.99996
299.99996
299.99995
299.99995
299.99995
299.99995
299.99996
299.99998
300.00003
300.00007
300.00009
300.0001
341.27466
324.84762
312.62637
305.47205
302.01507
300.59477
300.11833
300.00328
299.99161
299.99636
299.9992
299.99992
300
299.99998
299.99997
299.99998
299.99998
299.99998
299.99998
299.99998
299.99998
299.99998
299.99998
299.99998
299.99998
299.99998
299.99998
299.99998
299.99998
299.99997
299.99997
299.99997
299.99997
299.99997
299.99998
300
300.00004
300.00007
300.00009
300.0001
341.27262
324.83446
312.58508
305.41545
301.98404
300.59401
300.1287
300.01148
299.99524
299.99738
299.99937
299.99993
300
299.99999
299.99999
299.99999
299.99999
299.99999
299.99999
299.99999
299.99999
299.99999
299.99999
299.99999
299.99999
299.99999
299.99999
299.99999
299.99999
299.99999
299.99999
299.99998
299.99998
299.99999
299.99999
300.00001
300.00004
300.00008
300.00009
300.0001
341.27133
324.82574
312.55539
305.36984
301.9556
300.59075
300.13621
300.01813
299.99835
299.99831
299.99953
299.99994
300
300
300
300
300
300
300
300
300
300
300
300
300
300
300
300
300
300
300
300
300
300
300
300.00002
300.00005
300.00008
300.00009
300.0001
341.27057
324.82018
312.53494
305.33492
301.9311
300.58598
300.14106
300.0231
300.00081
299.99909
299.99968
299.99996
300.00001
300.00001
300.00001
300.00001
300.00001
300.00001
300.00001
300.00001
300.00001
300.00001
300.00001
300.00001
300.00001
300.00001
300.00001
300.00001
300.00001
300.00001
300
300
300
300.00001
300.00001
300.00003
300.00005
300.00008
300.00009
300.0001
341.27014
324.81674
312.52129
305.3093
301.91108
300.5806
300.14376
300.02653
300.00262
299.99969
299.99981
299.99997
300.00001
300.00001
300.00001
300.00001
300.00001
300.00001
300.00001
300.00001
300.00001
300.00001
300.00001
300.00001
300.00001
300.00001
300.00001
300.00001
300.00001
300.00001
300.00001
300.00001
300.00001
300.00001
300.00002
300.00003
300.00005
300.00008
300.00009
300.0001
341.26992
324.81459
312.51228
305.2911
301.89541
300.57529
300.14489
300.0287
300.00385
300.00012
299.99991
299.99998
300.00001
300.00001
300.00001
300.00001
300.00001
300.00001
300.00001
300.00001
300.00001
300.00001
300.00001
300.00001
300.00001
300.00001
300.00001
300.00001
300.00001
300.00001
300.00001
300.00001
300.00001
300.00001
300.00002
300.00003
300.00005
300.00008
300.00009
300.0001
341.2698
324.8132
312.50622
305.27839
301.88354
300.57051
300.14504
300.02995
300.00464
300.00041
299.99998
299.99999
300.00001
300.00001
300.00001
300.00001
300.00001
300.00001
300.00001
300.00001
300.00001
300.00001
300.00001
300.00001
300.00001
300.00001
300.00001
300.00001
300.00001
300.00001
300.00001
300.00001
300.00001
300.00001
300.00002
300.00003
300.00005
300.00008
300.00009
300.00009
341.26973
324.81221
312.50192
305.26944
301.87473
300.56647
300.14465
300.0306
300.00512
300.0006
300.00003
300
300.00001
300.00001
300.00001
300.00001
300.00001
300.00001
300.00001
300.00001
300.00001
300.00001
300.00001
300.00001
300.00001
300.00001
300.00001
300.00001
300.00001
300.00001
300.00001
300.00001
300.00001
300.00001
300.00002
300.00003
300.00005
300.00008
300.00009
300.00009
341.26969
324.81143
312.49862
305.26293
301.86821
300.5632
300.14407
300.0309
300.0054
300.00072
300.00007
300.00001
300.00001
300.00001
300.00001
300.00001
300.00001
300.00001
300.00001
300.00001
300.00001
300.00001
300.00001
300.00001
300.00001
300.00001
300.00001
300.00001
300.00001
300.00001
300.00001
300.00001
300.00001
300.00001
300.00002
300.00003
300.00005
300.00008
300.00009
300.00009
341.26965
324.81075
312.49589
305.25796
301.86333
300.56064
300.14347
300.03101
300.00556
300.0008
300.00009
300.00001
300.00001
300.00001
300.00001
300.00001
300.00001
300.00001
300.00001
300.00001
300.00001
300.00001
300.00001
300.00001
300.00001
300.00001
300.00001
300.00001
300.00001
300.00001
300.00001
300.00001
300.00001
300.00001
300.00002
300.00003
300.00005
300.00008
300.00009
300.00009
341.26961
324.81014
312.49353
305.25394
301.85956
300.55865
300.14294
300.03104
300.00565
300.00084
300.0001
300.00001
300.00001
300.00001
300.00001
300.00001
300.00001
300.00001
300.00001
300.00001
300.00001
300.00001
300.00001
300.00001
300.00001
300.00001
300.00001
300.00001
300.00001
300.00001
300.00001
300.00001
300.00001
300.00001
300.00002
300.00003
300.00005
300.00008
300.00009
300.00009
341.26957
324.80959
312.49145
305.25055
301.85655
300.5571
300.14252
300.03105
300.00571
300.00087
300.00011
300.00002
300.00001
300.00001
300.00001
300.00001
300.00001
300.00001
300.00001
300.00001
300.00001
300.00001
300.00001
300.00001
300.00001
300.00001
300.00001
300.00001
300.00001
300.00001
300.00001
300.00001
300.00001
300.00001
300.00002
300.00003
300.00005
300.00008
300.00009
300.00009
341.26954
324.80909
312.4896
305.24763
301.85407
300.55586
300.14219
300.03105
300.00576
300.0009
300.00012
300.00002
300.00001
300.00001
300.00001
300.00001
300.00001
300.00001
300.00001
300.00001
300.00001
300.00001
300.00001
300.00001
300.00001
300.00001
300.00001
300.00001
300.00001
300.00001
300.00001
300.00001
300.00001
300.00001
300.00002
300.00003
300.00005
300.00007
300.00009
300.00009
341.26951
324.80864
312.48798
305.24509
301.85197
300.55485
300.14194
300.03105
300.00579
300.00092
300.00012
300.00002
300.00001
300.00001
300.00001
300.00001
300.00001
300.00001
300.00001
300.00001
300.00001
300.00001
300.00001
300.00001
300.00001
300.00001
300.00001
300.00001
300.00001
300.00001
300.00001
300.00001
300.00001
300.00001
300.00002
300.00003
300.00005
300.00007
300.00009
300.00009
341.26949
324.80826
312.48657
305.24288
301.85017
300.55402
300.14174
300.03107
300.00582
300.00093
300.00013
300.00002
300.00001
300.00001
300.00001
300.00001
300.00001
300.00001
300.00001
300.00001
300.00001
300.00001
300.00001
300.00001
300.00001
300.00001
300.00001
300.00001
300.00001
300.00001
300.00001
300.00001
300.00001
300.00001
300.00002
300.00003
300.00005
300.00007
300.00009
300.00009
341.26947
324.80794
312.48535
305.24097
301.84863
300.55331
300.14157
300.03108
300.00585
300.00094
300.00013
300.00002
300.00001
300.00001
300.00001
300.00001
300.00001
300.00001
300.00001
300.00001
300.00001
300.00001
300.00001
300.00001
300.00001
300.00001
300.00001
300.00001
300.00001
300.00001
300.00001
300.00001
300.00001
300.00001
300.00002
300.00003
300.00005
300.00007
300.00009
300.00009
341.26947
324.80767
312.48431
305.23933
301.8473
300.55271
300.14144
300.03109
300.00588
300.00095
300.00014
300.00002
300.00001
300.00001
300.00001
300.00001
300.00001
300.00001
300.00001
300.00001
300.00001
300.00001
300.00001
300.00001
300.00001
300.00001
300.00001
300.00001
300.00001
300.00001
300.00001
300.00001
300.00001
300.00001
300.00002
300.00003
300.00005
300.00007
300.00009
300.00009
341.26947
324.80745
312.48342
305.23792
301.84617
300.55219
300.14132
300.0311
300.0059
300.00096
300.00014
300.00002
300.00001
300.00001
300.00001
300.00001
300.00001
300.00001
300.00001
300.00001
300.00001
300.00001
300.00001
300.00001
300.00001
300.00001
300.00001
300.00001
300.00001
300.00001
300.00001
300.00001
300.00001
300.00001
300.00002
300.00003
300.00005
300.00007
300.00009
300.00009
341.26949
324.80729
312.48267
305.23673
301.8452
300.55175
300.14122
300.03111
300.00591
300.00097
300.00014
300.00002
300.00001
300.00001
300.00001
300.00001
300.00001
300.00001
300.00001
300.00001
300.00001
300.00001
300.00001
300.00001
300.00001
300.00001
300.00001
300.00001
300.00001
300.00001
300.00001
300.00001
300.00001
300.00001
300.00002
300.00003
300.00005
300.00007
300.00009
300.00009
341.26952
324.80717
312.48205
305.23571
301.84437
300.55137
300.14113
300.03111
300.00593
300.00098
300.00014
300.00002
300.00001
300.00001
300.00001
300.00001
300.00001
300.00001
300.00001
300.00001
300.00001
300.00001
300.00001
300.00001
300.00001
300.00001
300.00001
300.00001
300.00001
300.00001
300.00001
300.00001
300.00001
300.00001
300.00002
300.00003
300.00005
300.00007
300.00009
300.00009
341.26956
324.8071
312.48154
305.23484
301.84366
300.55105
300.14106
300.03112
300.00594
300.00098
300.00014
300.00002
300.00001
300.00001
300.00001
300.00001
300.00001
300.00001
300.00001
300.00001
300.00001
300.00001
300.00001
300.00001
300.00001
300.00001
300.00001
300.00001
300.00001
300.00001
300.00001
300.00001
300.00001
300.00001
300.00001
300.00003
300.00005
300.00007
300.00009
300.00009
341.26961
324.80708
312.48112
305.23411
301.84306
300.55077
300.14099
300.03112
300.00595
300.00099
300.00015
300.00002
300.00001
300.00001
300.00001
300.00001
300.00001
300.00001
300.00001
300.00001
300.00001
300.00001
300.00001
300.00001
300.00001
300.00001
300.00001
300.00001
300.00001
300.00001
300.00001
300.00001
300.00001
300.00001
300.00001
300.00003
300.00005
300.00007
300.00009
300.00009
341.26968
324.80711
312.4808
305.2335
301.84254
300.55053
300.14094
300.03113
300.00596
300.00099
300.00015
300.00002
300.00001
300.00001
300.00001
300.00001
300.00001
300.00001
300.00001
300.00001
300.00001
300.00001
300.00001
300.00001
300.00001
300.00001
300.00001
300.00001
300.00001
300.00001
300.00001
300.00001
300.00001
300.00001
300.00001
300.00003
300.00005
300.00007
300.00009
300.00009
341.26976
324.80718
312.48057
305.23299
301.84211
300.55033
300.14089
300.03113
300.00596
300.00099
300.00015
300.00002
300.00001
300.00001
300.00001
300.00001
300.00001
300.00001
300.00001
300.00001
300.00001
300.00001
300.00001