/*--------------------------------*- C++ -*----------------------------------*\
  =========                 |
  \\      /  F ield         | OpenFOAM: The Open Source CFD Toolbox
   \\    /   O peration     | Website:  https://openfoam.org
    \\  /    A nd           | Version:  10
     \\/     M anipulation  |
\*---------------------------------------------------------------------------*/
FoamFile
{
    format      ascii;
    class       volScalarField;
    location    "0.1";
    object      TporMedia_0;
}
// * * * * * * * * * * * * * * * * * * * * * * * * * * * * * * * * * * * * * //

dimensions      [0 0 0 1 0 0 0];

internalField   nonuniform List<scalar> 
4000
(
-5.5755152e-06
2.8311771e-06
-0.0004636972
-0.00051843182
0.00079635619
0.0045570005
0.0020609571
0.0012879938
0.0063578521
0.0041674779
0.064308527
-0.0024524377
-0.0063140889
-0.016120436
-0.010406032
-0.0036638157
-0.001533176
-0.00097152187
-0.003242725
-0.00096869068
0.012013404
-0.0071916394
-0.011922858
-0.001214992
-0.0033261818
-0.0021577953
0.033842197
-0.0016606756
0.011962229
0.016150018
0.014666452
-0.0052360489
-0.0040867919
0.0027610271
0.0044605832
-0.008944242
0.0018306557
0.0022746223
0.0028455448
0.0027778742
-4.9150018e-07
4.1902481e-15
-2.1492141e-12
6.8202667e-11
-3.1277157e-10
4.0053043e-08
-4.7633142e-09
-6.2759295e-09
-7.0814975e-09
-2.5176063e-08
-1.2336205e-07
1.9632246e-08
2.6149619e-08
1.9481776e-08
1.7828212e-08
1.1499628e-08
2.3396329e-09
1.8109308e-09
7.4512966e-08
1.1166868e-09
-8.5891875e-09
6.9870447e-09
3.5350802e-08
1.3171817e-09
5.3961541e-09
4.278211e-09
-7.4765161e-08
3.8019078e-09
-1.4937068e-08
-2.3631127e-08
-2.0494093e-08
9.1094905e-09
3.2412881e-08
-5.5457702e-09
5.3080514e-08
2.3094222e-08
3.7238986e-09
-2.1549171e-08
2.0810592e-08
-1.8751205e-07
-1.9963706e-07
-1.2473991e-15
-2.8275985e-21
1.193077e-18
2.0139537e-17
-4.355787e-14
-5.2104998e-14
7.3495346e-14
2.7810237e-14
5.1192663e-13
-5.2576446e-13
-3.8238789e-14
-1.229489e-13
-5.4337955e-14
-5.0787964e-14
-3.0704068e-14
-3.0839798e-15
-2.1913184e-15
-2.0847557e-13
-8.2587956e-16
1.9294985e-14
-1.4385037e-14
-1.5756461e-13
-1.7930369e-15
-3.0826147e-14
-1.1462782e-14
3.3566236e-13
-8.0253225e-14
-1.952449e-13
-7.9923018e-14
9.2170357e-14
-1.860077e-14
6.5943658e-13
-7.0177539e-14
-2.9658723e-13
3.1854964e-13
-1.182022e-14
-8.098684e-14
1.2962638e-13
-8.6196691e-13
-1.0775756e-07
6.8202617e-17
4.6702431e-26
3.676388e-27
-6.7760617e-25
4.9749714e-21
3.9927203e-19
-4.1407201e-19
-6.3258957e-20
1.0504166e-16
-2.2346574e-18
2.2648562e-19
1.8386309e-19
1.155322e-18
4.2104996e-19
3.8092493e-20
2.3912658e-20
3.3340441e-21
5.4466453e-19
4.0394976e-21
-1.6688519e-19
1.5412929e-20
5.7994396e-19
1.7449927e-21
2.3557005e-19
4.8071113e-20
-1.5679614e-18
2.12945e-19
5.9017707e-19
1.0712207e-19
-1.6025546e-19
3.2683307e-19
6.8272845e-18
1.9883544e-19
-6.141673e-19
9.4257629e-19
6.0002878e-17
-9.3391017e-19
8.5243053e-19
-7.3915683e-18
-6.8129548e-08
1.3403469e-17
7.0506736e-27
1.174546e-35
-2.2313255e-31
-1.7405717e-28
-2.3079738e-25
-1.0457092e-24
5.0075419e-25
-2.1383747e-22
3.2780668e-24
8.218304e-25
-1.0048379e-24
-1.3399562e-24
-5.9132202e-25
-5.19776e-26
-2.9007618e-26
-3.890398e-26
-1.1459148e-24
-7.4748211e-27
2.506005e-25
-2.5369931e-26
-9.1544297e-25
-2.0875499e-27
-2.6003306e-25
-7.8453027e-26
2.5240762e-24
-2.0765449e-25
-6.4183483e-25
4.922045e-24
5.0178984e-25
-5.2508412e-25
-8.6727773e-24
-3.1083333e-25
-4.735733e-24
-2.2064362e-24
1.225445e-21
-2.7519315e-24
5.131704e-24
7.941462e-23
-4.7686149e-08
4.5065237e-18
2.9112472e-27
1.5750894e-36
-1.3669588e-39
2.9613807e-36
2.471609e-32
-2.7552937e-30
-5.7512957e-31
3.0895499e-28
-3.614855e-30
-8.669048e-31
2.0778003e-30
1.519247e-30
5.8819955e-31
5.9025123e-32
2.9129305e-32
3.7134545e-32
1.0472362e-29
8.8379587e-33
-2.2975751e-31
6.8834939e-32
9.4808445e-31
2.3848721e-33
1.9133016e-31
8.9686052e-32
-3.0814779e-30
7.8549021e-31
5.0507197e-31
-6.3060452e-30
-6.4827424e-31
1.0064103e-30
2.1148804e-29
4.8718593e-31
1.0832267e-29
1.458406e-29
-3.0810997e-27
-2.568436e-27
-2.1192613e-29
-2.8050255e-28
-3.5822003e-08
1.9713284e-18
-1.5863587e-26
-5.2438712e-36
-9.5014305e-45
-3.6011871e-44
-9.0341597e-40
7.0638421e-36
1.3941209e-36
-5.2760871e-34
3.4090411e-36
7.7528482e-37
-3.6229597e-36
-1.6200885e-36
-7.2166e-37
-4.4321841e-38
-3.1620448e-38
-3.8054585e-38
-9.6280454e-36
-6.358379e-39
1.7878594e-37
-6.5330659e-38
-6.6474515e-37
-3.6566343e-39
-1.6736276e-37
-6.5005986e-38
3.4649678e-36
-5.3441467e-37
-5.5448988e-37
4.9742575e-36
6.3911099e-37
-8.8006781e-37
-2.3434585e-35
-4.432237e-37
-9.6645993e-35
-1.1748394e-35
1.4721768e-32
3.1056013e-33
1.9233103e-35
3.2195137e-34
-2.827972e-08
1.0143983e-18
-2.8330972e-28
-6.7064633e-38
-5.3428305e-47
5.9273445e-52
1.5625053e-47
-1.5582687e-42
2.0985097e-42
5.0800132e-40
-3.4368815e-42
-7.0972086e-43
2.275783e-42
1.4268068e-42
8.752486e-43
2.2489976e-44
3.3388295e-44
1.8061679e-44
6.1993377e-42
3.3017318e-45
-1.334093e-43
4.2495343e-44
5.355281e-43
2.0917402e-45
1.6608351e-43
4.4562378e-44
-2.2634552e-42
4.1747036e-43
2.9544679e-43
-3.5929446e-42
-5.5961056e-43
9.5857178e-43
2.4136139e-41
5.2209997e-43
1.0573034e-40
1.1295949e-41
-2.7990878e-38
-1.9880193e-38
-2.7220493e-41
-3.6778153e-40
-2.3056635e-08
5.8016792e-19
-6.2934428e-29
-1.2228714e-38
-5.2622264e-48
-9.1251639e-56
-1.5560961e-55
1.1224499e-49
-3.0595107e-48
-7.551931e-46
2.7376974e-48
7.4910641e-49
-1.1955036e-48
-7.921246e-49
-4.1955896e-49
-1.5275542e-50
-2.4310257e-50
-9.9007661e-51
-3.9123279e-48
-1.7618962e-51
6.585547e-50
-2.1203554e-50
-3.1993095e-49
-1.3973302e-51
-7.7070447e-50
-3.1594435e-50
1.3463807e-48
-2.790802e-49
-1.4362137e-49
2.0946792e-48
3.3883984e-49
-6.0082723e-49
-1.8561021e-47
-5.8455406e-49
-1.2915961e-46
-1.3708332e-47
3.1135914e-44
2.2586906e-44
4.987365e-47
2.4268159e-46
-1.9121916e-08
3.5496801e-19
-2.0411001e-29
-3.7492229e-39
-9.9635222e-49
-2.9520728e-57
1.0913441e-63
-3.5424898e-57
4.5099063e-54
5.960917e-52
-2.0200859e-54
-4.8062263e-55
8.805441e-55
4.780742e-55
2.9702788e-55
9.3082948e-57
1.0517848e-56
5.2001268e-57
1.8188429e-54
1.0242858e-57
-3.1715001e-56
1.0048017e-56
1.5225323e-55
6.4121182e-58
3.3725847e-56
1.4316853e-56
-7.4133171e-55
1.8135477e-55
8.6114252e-56
-1.028791e-54
-2.7190989e-55
3.7796773e-55
1.2041334e-53
9.2599911e-55
8.1570921e-53
1.5198381e-53
-2.6077098e-50
-3.3326646e-50
-3.6892938e-53
-1.408174e-52
-1.5933695e-08
2.2603737e-19
-7.9480847e-30
-1.6764957e-39
-3.0323667e-49
-3.584817e-58
1.9921569e-66
5.6919307e-65
-1.6090633e-60
-2.7191522e-57
1.4826591e-60
1.9160864e-61
-3.5819159e-61
-2.5235206e-61
-1.8786184e-61
-3.9602565e-63
-7.6409002e-63
-1.8789538e-63
-7.1586429e-61
-4.2796599e-64
1.3066286e-62
-4.1030049e-63
-6.8837908e-62
-2.7694051e-64
-1.8208148e-62
-5.8952556e-63
3.9022193e-61
-8.8231749e-62
-4.0891936e-62
4.8695529e-61
1.1729632e-61
-2.563932e-61
-6.5000856e-60
-4.8882756e-61
-5.0090135e-59
-1.4549667e-59
1.9577412e-56
2.9006533e-56
1.8422338e-59
5.1478011e-59
-1.3229354e-08
1.470309e-19
-3.4407051e-30
-1.3003429e-39
-1.7277119e-49
-1.0498369e-58
6.1067429e-67
-5.5120668e-73
1.7817979e-67
1.3414988e-62
-6.8697237e-67
-8.0991058e-68
1.7413665e-67
9.6600476e-68
7.172962e-68
1.4600929e-69
3.0204884e-69
8.4938721e-70
3.2017408e-67
1.7509267e-70
-5.5818516e-69
1.7070086e-69
2.6960017e-68
1.1580088e-70
7.0506645e-69
3.7028185e-69
-1.3963924e-67
2.7870562e-68
2.5141716e-68
-2.6979003e-67
-4.2012892e-68
1.2842568e-67
4.4593787e-66
2.5947841e-67
3.1234038e-65
9.0554758e-66
-1.3289975e-62
-1.9382088e-62
-1.2550819e-65
-1.5863904e-65
-1.090045e-08
9.6587661e-20
-1.5913032e-30
1.26732e-39
1.3171516e-49
4.71978e-59
-5.2875405e-67
3.3064572e-75
-6.1232382e-75
-5.4502098e-68
4.5745919e-73
3.3555535e-74
-6.841696e-74
-4.207515e-74
-2.699053e-74
-4.6603544e-76
-9.9754746e-76
-3.5253794e-76
-1.0093188e-73
-5.7917006e-77
1.6776733e-75
-6.9187534e-76
-9.3542098e-75
-4.3463814e-77
-2.2217775e-75
-1.4551742e-75
6.0380622e-74
-1.1963281e-74
-1.1169396e-74
1.312356e-73
1.6733861e-74
-5.7761831e-74
-1.6716247e-72
-1.6860902e-73
-1.4422979e-71
-4.1793546e-72
8.1780087e-69
8.5624298e-69
6.1384476e-72
4.9461578e-72
-8.9013499e-09
6.3656874e-20
-7.6838998e-31
1.0372459e-40
8.9131311e-51
2.0629865e-60
1.8928569e-68
-8.5596312e-77
-1.0197693e-79
4.1363429e-72
-3.3230001e-78
-1.4089711e-80
2.4782679e-80
1.5415987e-80
9.0080056e-81
1.8508113e-82
3.1471143e-82
1.0627502e-82
3.5369316e-80
1.6559082e-83
-5.835543e-82
2.1148429e-82
3.2305764e-81
1.3022267e-83
8.268573e-82
4.9001627e-82
-2.1822115e-80
3.3806659e-81
3.9535152e-81
-4.8585844e-80
-6.9905899e-81
2.1998935e-80
7.0900432e-79
6.784794e-80
6.9653535e-78
1.7540521e-78
-3.8391808e-75
-4.3295675e-75
-2.5508229e-78
-1.2001673e-78
-7.1955927e-09
4.1876838e-20
-3.81404e-31
2.3397399e-41
1.7516482e-51
2.7990489e-61
5.9762084e-70
-2.1329699e-78
6.2633357e-86
-2.19065e-78
5.5056734e-84
4.9840519e-87
-9.0655094e-87
-4.2005111e-87
-2.9440879e-87
-5.3109915e-89
-8.4172602e-89
-3.1174049e-89
-9.5060206e-87
-4.9803412e-90
1.8528031e-88
-6.2959344e-89
-8.4255035e-88
-3.8926417e-90
-2.5016058e-88
-1.4947575e-88
6.6053016e-87
-1.031076e-87
-1.2888532e-87
2.0044076e-86
2.0722272e-87
-7.4428862e-87
-2.6086493e-85
-2.5719856e-86
-2.5329743e-84
-6.3503315e-85
2.3667176e-81
1.5309554e-81
7.9947608e-85
2.3429873e-85
-5.7474422e-09
2.7361015e-20
-1.9226193e-31
6.75087e-42
4.6471791e-52
5.3991389e-62
5.2048488e-71
-1.6056531e-79
1.4752152e-87
3.016598e-85
-6.1511508e-90
-2.0178326e-93
2.7159944e-93
1.1009806e-93
9.6334621e-94
1.4797351e-95
2.707753e-95
7.2166987e-96
2.5860954e-93
1.240379e-96
-5.2658825e-95
1.7134042e-95
2.497068e-94
1.0703145e-96
5.6208742e-95
3.8305224e-95
-2.129364e-93
3.3867953e-94
3.3849137e-94
-6.0623285e-93
-6.0485078e-94
2.4756662e-93
8.9774193e-92
1.0695457e-92
8.9322632e-91
2.5682163e-91
-1.1338569e-87
-5.5696417e-88
-2.2724147e-91
-3.1142696e-92
-4.5341403e-09
1.769921e-20
-9.761489e-32
2.1905867e-42
1.4756251e-52
1.3000375e-62
6.9621503e-72
-2.0820755e-80
1.2995536e-88
-1.9160414e-92
-1.0278268e-95
7.5434324e-100
-7.0723914e-100
-3.3022696e-100
-2.5485472e-100
-3.8748963e-102
-6.8802577e-102
-1.8297217e-102
-5.9900517e-100
-3.372323e-103
1.1870135e-101
-4.2519299e-102
-5.5715699e-101
-2.6780842e-103
-1.6551676e-101
-8.9823492e-102
5.1166585e-100
-8.5736858e-101
-9.2519228e-101
1.6871468e-99
1.4230359e-100
-6.8266719e-100
-2.7413627e-98
-3.8508415e-99
-2.6760895e-97
-1.1661595e-97
3.1033873e-94
1.8296502e-94
5.0076672e-98
2.8907543e-99
-3.5477594e-09
1.1357618e-20
-4.9820022e-32
7.63548e-43
5.467617e-53
3.7847658e-63
1.2587986e-72
-4.3540033e-81
1.966003e-89
-6.8512088e-97
7.2888236e-101
-2.7642825e-106
1.9079243e-106
7.2867286e-107
6.5373944e-107
9.0703465e-109
1.4050446e-108
3.9661109e-109
1.4416661e-106
7.3228578e-110
-2.6632751e-108
9.1059458e-109
1.2734434e-107
6.0709581e-110
3.6394212e-108
2.277945e-108
-1.014076e-106
1.8965102e-107
2.2864664e-107
-4.0878229e-106
-3.873611e-107
1.6013659e-106
7.8944443e-105
1.0722306e-105
7.649747e-104
3.7197434e-104
-9.9861742e-101
-4.9763585e-101
-1.0237766e-104
-1.7962874e-106
-2.7772953e-09
7.2824407e-21
-2.5666034e-32
2.809629e-43
2.4453816e-53
1.3717367e-63
3.0470622e-73
-1.8816615e-81
6.5240158e-90
-1.3541857e-97
1.158769e-103
-4.0621024e-110
-4.8931556e-113
-1.4884566e-113
-1.3599123e-113
-2.1215846e-115
-2.9364554e-115
-8.039341e-116
-2.7662954e-113
-1.5614693e-116
5.2174509e-115
-1.7501283e-115
-2.6176159e-114
-1.3512534e-116
-7.1913135e-115
-4.7149081e-115
2.0337917e-113
-3.8530058e-114
-4.6218705e-114
8.4374387e-113
9.1908797e-114
-4.0639392e-113
-1.8494534e-111
-2.873808e-112
-2.4267115e-110
-9.0971413e-111
2.5695056e-107
1.1235279e-107
1.4734753e-111
9.1393062e-114
-2.1955245e-09
4.7075634e-21
-1.3433311e-32
1.0849693e-43
1.5580043e-53
7.2825393e-64
1.1392341e-73
1.4657306e-81
-4.0865476e-90
5.422314e-98
-1.6125644e-104
6.1973674e-111
-1.4389231e-117
2.8572516e-120
2.7718724e-120
3.860467e-122
5.4476294e-122
1.5918454e-122
4.9521513e-120
3.3660612e-123
-8.8779985e-122
3.735088e-122
5.144523e-121
2.6579638e-123
1.3679297e-121
9.1920268e-122
-3.8201275e-120
7.5499497e-121
8.638224e-121
-1.8574985e-119
-1.9261861e-120
8.4090019e-120
4.3517517e-118
6.258411e-119
6.5438385e-117
2.3712152e-117
-5.8955274e-114
-2.0453583e-114
-1.7838361e-118
-5.2725283e-121
-1.7632867e-09
3.0882742e-21
-7.1765593e-33
4.3826614e-44
-3.3597579e-52
-1.3429883e-62
-1.5412743e-72
-3.3269557e-81
7.8470701e-90
-7.1458893e-98
9.5235303e-105
-4.1385899e-111
8.213883e-118
-1.4604785e-124
-4.9005119e-127
-7.3343173e-129
-9.4641673e-129
-2.6509717e-129
-8.4336513e-127
-5.940756e-130
1.5485913e-128
-6.0627042e-129
-8.8141747e-128
-4.7465115e-130
-2.4775146e-128
-1.5338901e-128
6.5512438e-127
-1.4457805e-127
-1.6004219e-127
3.7660376e-126
3.6527876e-127
-1.691638e-126
-9.1733853e-125
-1.3780082e-125
-1.454181e-123
-5.5296625e-124
1.0936059e-120
3.4529377e-121
1.9535981e-125
7.3487434e-128
-1.4410944e-09
2.0617741e-21
-3.9188515e-33
1.8444373e-44
-1.7761614e-54
-6.2251802e-65
-5.4203585e-75
-5.2636162e-84
1.1121504e-92
-7.2607777e-101
5.557573e-108
-2.7471122e-114
5.2725179e-121
-9.6842492e-128
1.0265414e-133
1.1957769e-135
1.7141485e-135
4.6030521e-136
1.4440777e-133
1.0273747e-136
-2.33677e-135
1.0156777e-135
1.3396378e-134
7.5068226e-137
3.8316202e-135
2.3757106e-135
-1.059624e-133
2.3423768e-134
2.4473577e-134
-6.4891773e-133
-6.7855187e-134
2.8591765e-133
1.7727455e-131
2.8274703e-132
3.0198828e-130
1.0657417e-130
-1.7595995e-127
-4.831971e-128
-2.3017632e-132
9.5083566e-135
-1.1968828e-09
1.4006828e-21
-2.1851691e-33
8.0483456e-45
-3.2894479e-55
-1.0365792e-65
-7.0435267e-76
-3.88546e-85
7.8386888e-94
-3.8508909e-102
1.6804493e-109
-6.3763232e-116
1.1387389e-122
-1.6426011e-129
2.4899531e-136
-2.1086159e-142
-2.487294e-142
-7.3626272e-143
-2.1733571e-140
-1.6110643e-143
3.3660716e-142
-1.6047195e-142
-2.0049692e-141
-1.1626557e-143
-5.7995928e-142
-3.3984028e-142
1.5944577e-140
-3.6148119e-141
-3.6312204e-141
9.9951968e-140
1.0567953e-140
-4.537194e-140
-3.2214834e-138
-5.1532682e-139
-5.249618e-137
-1.8558584e-137
2.3981823e-134
6.6119677e-135
3.3570086e-139
4.493382e-142
-1.0078788e-09
9.673157e-22
-1.242367e-33
3.6260057e-45
-8.4067421e-56
-2.4452569e-66
-1.3290039e-76
-4.6674286e-86
9.8114613e-95
-3.7560068e-103
1.0440352e-110
-3.853463e-117
6.4436363e-124
-1.0689417e-130
1.488366e-137
-2.0351428e-144
3.4627645e-149
1.0978692e-149
2.9767565e-147
2.1824823e-150
-4.8112966e-149
2.076688e-149
2.6081356e-148
1.5391426e-150
8.0547684e-149
4.7641271e-149
-2.1365749e-147
5.2457517e-148
5.0984817e-148
-1.465995e-146
-1.6754167e-147
6.5771749e-147
5.0795181e-145
8.7597139e-146
1.0383295e-143
2.5809745e-144
-3.0073051e-141
-7.896475e-142
-8.9925172e-146
1.4901152e-149
-8.5912813e-10
6.7883305e-22
-7.1987745e-34
1.6826432e-45
-2.5033661e-56
-6.9188604e-67
-3.0745377e-77
-7.382206e-87
1.8530057e-95
-5.7695535e-104
1.09412e-111
-2.8009143e-118
5.3967138e-125
-6.8595019e-132
8.9253714e-139
-1.2145078e-145
1.6109986e-152
-1.4315927e-156
-3.6341994e-154
-2.9148317e-157
6.3461489e-156
-2.4993613e-156
-3.3682738e-155
-2.0785103e-157
-9.9294646e-156
-6.095713e-156
2.8024931e-154
-6.2763785e-155
-6.5250651e-155
1.989461e-153
2.3923663e-154
-9.01615e-154
-7.125677e-152
-1.2269079e-152
-1.5961108e-150
-3.4142015e-151
3.6419727e-148
8.4775723e-149
9.1515967e-152
4.6752504e-157
-7.4101674e-10
4.8455231e-22
-4.2564927e-34
8.0420888e-46
-8.237267e-57
-2.2382009e-67
-8.2984136e-78
-1.4335539e-87
5.8556605e-96
-1.5279314e-104
2.0267204e-112
-3.0220021e-119
5.3490655e-126
-7.1500945e-133
9.2045259e-140
-1.1168245e-146
1.3350938e-153
-1.5831115e-160
4.3787953e-161
3.6452595e-164
-7.6578034e-163
3.0287462e-163
4.008267e-162
2.528279e-164
1.2066669e-162
7.1432576e-163
-3.2120143e-161
7.7567851e-162
7.7491781e-162
-2.4075203e-160
-2.8415198e-161
1.0866363e-160
1.0437037e-158
1.7965674e-159
2.3011006e-157
3.9206672e-158
-3.6938431e-155
-8.5279943e-156
4.4005752e-158
1.6410952e-164
-6.4713466e-10
3.525918e-22
-2.5756186e-34
3.9670069e-46
-2.9308722e-57
-8.1734631e-68
-2.5772975e-78
-3.3321139e-88
-1.3380916e-94
3.0462828e-103
-2.9927551e-111
2.9478519e-118
-5.0287163e-125
5.9436854e-132
-6.8663694e-139
7.4412325e-146
-9.1988759e-153
1.0734023e-159
-1.2473121e-166
-3.8489474e-171
8.1293469e-170
-3.179465e-170
-4.3365439e-169
-2.8981708e-171
-1.3083505e-169
-7.7857796e-170
3.5402305e-168
-8.5148559e-169
-8.9359625e-169
2.8432698e-167
3.2910761e-168
-1.265119e-167
-1.3249838e-165
-2.3169756e-166
-2.9451256e-164
-4.1681481e-165
3.2164211e-162
8.8041557e-163
1.1101077e-164
9.9021262e-172
-5.7290696e-10
2.62372e-22
-1.6015836e-34
2.0273202e-46
-1.1177023e-57
-3.3953203e-68
-9.2754704e-79
-9.2681047e-89
-2.5586615e-97
5.268065e-106
-3.9965527e-114
2.5149638e-121
-4.0884213e-128
4.6206533e-135
-4.7535104e-142
5.0780473e-149
-5.1820607e-156
5.1904753e-163
-5.7563433e-170
6.5254017e-177
-8.6152359e-177
3.3552164e-177
4.3675276e-176
2.7959408e-178
1.3781643e-176
8.1835597e-177
-3.5048539e-175
8.4157556e-176
9.1972185e-176
-2.885664e-174
-3.4500054e-175
1.434284e-174
1.5252827e-172
2.7735505e-173
3.3449853e-171
4.1567203e-172
-2.4789812e-169
-8.2254873e-170
2.3408479e-171
1.2875516e-178
-5.1487118e-10
2.0036688e-22
-1.0285268e-34
1.0788079e-46
-4.5580481e-58
-1.6555548e-68
-3.9892255e-79
-3.1661982e-89
-3.7293479e-98
7.2627245e-107
-4.3581159e-115
1.9698789e-122
-2.737185e-129
2.8708254e-136
-2.8869564e-143
2.8193271e-150
-2.6237161e-157
2.4598864e-164
-2.2853043e-171
2.1642406e-178
8.0824058e-184
-3.0909821e-184
-4.0764318e-183
-2.6297838e-185
-1.2878575e-183
-8.0166659e-184
3.4519208e-182
-7.5741424e-183
-8.8172576e-183
2.9050973e-181
3.3316817e-182
-1.4076833e-181
-1.5802066e-179
-3.0630815e-180
-3.2802111e-178
-3.6248081e-179
1.7738312e-176
7.6870049e-177
4.1550396e-178
2.197593e-185
-4.7033663e-10
1.5760342e-22
-6.858104e-35
6.0127483e-47
-1.990628e-58
-1.0339733e-68
-2.2366364e-79
-1.4438722e-89
-9.7617996e-99
1.8815358e-107
-9.343849e-116
3.0527792e-123
-3.4755652e-130
3.7268604e-137
-3.4619787e-144
3.1520806e-151
-2.9267877e-158
2.7081025e-165
-2.3992243e-172
2.1798961e-179
-1.8857783e-186
2.8833361e-191
3.5934597e-190
2.2770932e-192
1.151968e-190
7.120205e-191
-3.0050719e-189
6.7789863e-190
7.9224547e-190
-2.7933121e-188
-2.9837117e-189
1.2988827e-188
1.5607488e-186
2.9956002e-187
3.0249876e-185
2.6577941e-186
-1.1690869e-183
-7.1309029e-184
7.0288258e-185
3.6219866e-192
-4.3721432e-10
1.2811428e-22
-4.7734087e-35
3.5319146e-47
-9.343938e-59
-1.2182899e-68
-2.4077938e-79
-1.2915837e-89
-5.7173313e-99
1.1658513e-107
-4.8999668e-116
1.206357e-123
-1.2601584e-130
1.2437088e-137
-1.1313533e-144
9.7368663e-152
-8.4167039e-159
7.0882152e-166
-6.2885411e-173
5.3094968e-180
-4.5228613e-187
3.8684964e-194
-3.2053536e-197
-1.8994136e-199
-9.6405336e-198
-6.1766063e-198
2.6576335e-196
-5.9856827e-197
-6.5356683e-197
2.3517925e-195
2.6133021e-196
-1.1481034e-195
-1.4497892e-193
-2.7027065e-194
-2.4639258e-192
-1.8297655e-193
6.9920488e-191
6.4293325e-191
9.8654558e-192
5.432404e-199
-4.1389385e-10
1.079419e-22
-3.4852685e-35
2.1999264e-47
-4.73599e-59
6.2448213e-69
1.1487636e-79
5.2265728e-90
1.6389425e-99
-3.8730085e-108
1.4240186e-116
-2.7141219e-124
2.3418248e-131
-2.1589829e-138
1.8568126e-145
-1.4785359e-152
1.1465945e-159
-9.0852698e-167
7.1449696e-174
-5.7274983e-181
4.4796487e-188
-3.4423027e-195
2.6455847e-202
1.5057598e-206
7.5819396e-205
4.8861279e-205
-2.0231372e-203
4.6894359e-204
5.1942925e-204
-1.9288105e-202
-2.1333029e-203
9.4413899e-203
1.2722042e-200
2.4385822e-201
1.8860238e-199
1.1917995e-200
-3.871618e-198
-5.4684372e-198
1.325798e-198
7.2737234e-206
-3.9911914e-10
9.4476699e-23
-2.680649e-35
1.4609457e-47
-2.6041305e-59
9.702818e-70
1.6967685e-80
6.6866995e-91
1.5713653e-100
-5.0616037e-109
1.6823557e-117
-2.5346112e-125
1.7945009e-132
-1.433473e-139
1.0732396e-146
-7.6796078e-154
5.2990975e-161
-3.6798028e-168
2.5047748e-175
-1.6940285e-182
1.1422677e-189
-7.6965228e-197
5.0367648e-204
-3.4170593e-211
-5.1160499e-212
-3.341873e-212
1.4109381e-210
-3.3304863e-211
-3.709209e-211
1.3679827e-209
1.5781826e-210
-7.3890137e-210
-1.0666225e-207
-2.039759e-208
-1.4328264e-206
-7.0409584e-208
2.0435985e-205
4.2249247e-205
1.8690499e-205
1.0352808e-212
-3.9184305e-10
8.6007555e-23
-2.1782135e-35
1.0386343e-47
-1.5590909e-59
3.0958445e-70
5.2786215e-81
1.8426565e-91
3.3969835e-101
-2.3372268e-109
7.2424082e-118
-8.8272175e-126
4.3862344e-133
-2.7285193e-140
1.630687e-147
-9.0585993e-155
5.0795043e-162
-2.7915998e-169
1.540123e-176
-8.3224827e-184
4.4862477e-191
-2.3722829e-198
1.3152472e-205
-7.3540719e-213
3.3200973e-219
1.8685905e-219
-7.7070752e-218
1.9179735e-218
2.1434298e-218
-8.4259354e-217
-9.9422598e-218
4.8226467e-217
7.3815202e-215
1.5221747e-215
9.7189201e-214
3.8180782e-215
-9.7826358e-213
-3.0112979e-212
3.0900512e-212
1.6348959e-219
-3.9105202e-10
8.1407988e-23
-1.8717194e-35
7.9198578e-48
-1.0179331e-59
1.3009148e-70
2.2296063e-81
7.0562473e-92
1.0594284e-101
1.4396976e-109
-4.3372907e-118
4.3856207e-126
-1.6332231e-133
8.2966499e-141
-3.8565514e-148
1.7497514e-155
-7.9502012e-163
3.5636559e-170
-1.6125888e-177
7.168854e-185
-3.2017136e-192
1.4252957e-199
-6.2968254e-207
2.8140919e-214
-1.2849703e-221
-8.0295227e-227
3.529696e-225
-9.0550885e-226
-1.037099e-225
4.0410105e-224
4.9414031e-225
-2.5541497e-224
-4.1467471e-222
-9.0633132e-223
-5.5521638e-221
-1.8783391e-222
4.3568775e-220
1.9410381e-219
8.510508e-219
3.9524061e-226
-3.9557108e-10
7.9903705e-23
-1.6979543e-35
6.470111e-48
-7.236787e-60
6.5641071e-71
1.1703107e-81
3.4297486e-92
4.3186356e-102
1.2442451e-110
-3.7861472e-119
3.2920892e-127
-9.4956984e-135
3.8404512e-142
-1.5235128e-149
5.8771359e-157
-2.2952389e-164
8.9565523e-172
-3.4598801e-179
1.333967e-186
-5.1550801e-194
1.9890068e-201
-7.7771983e-209
3.0148725e-216
-1.1920445e-223
4.571758e-231
-1.3909844e-232
3.4749408e-233
4.142013e-233
-1.6239955e-231
-2.0272383e-232
1.1022408e-231
1.8450838e-229
4.1764248e-230
2.532587e-228
7.7988553e-230
-1.6897963e-227
-1.1388889e-226
7.0113626e-225
2.9009807e-232
-4.0388259e-10
8.0881387e-23
-1.6180582e-35
5.6362698e-48
-5.572712e-60
3.8268417e-71
7.3459661e-82
2.0237622e-92
2.1795126e-102
3.2126436e-111
-1.0387867e-119
8.1205216e-128
-2.0744626e-135
8.112894e-143
-3.1583796e-150
1.24699e-157
-4.978973e-165
2.0046583e-172
-8.1754071e-180
3.3199537e-187
-1.3765493e-194
5.5358071e-202
-2.2463552e-209
9.0608359e-217
-3.6407043e-224
1.4078854e-231
-4.9741451e-239
-1.3508486e-240
-1.5820228e-240
6.216923e-239
7.8653855e-240
-4.2439628e-239
-7.1036284e-237
-1.6344206e-237
-9.639951e-236
-2.7226316e-237
5.8874433e-235
6.6789574e-234
-4.7410187e-231
-1.6459368e-238
-4.1404929e-10
8.3716506e-23
-1.6059702e-35
5.1912701e-48
-4.6060634e-60
2.5145773e-71
5.3482777e-82
1.3928477e-92
1.2947847e-102
1.208314e-111
-4.401174e-120
3.2368364e-128
-8.3704728e-136
4.2478585e-143
-2.3639661e-150
1.2880221e-157
-7.1740764e-165
4.2738331e-172
-2.5434354e-179
1.4947182e-186
-9.1434065e-194
5.3907716e-201
-2.9384172e-208
1.4171116e-215
-2.3606826e-223
-8.4283283e-230
1.6865849e-236
-2.4768775e-243
7.8093994e-248
-2.8664074e-246
-3.4706695e-247
1.8223283e-246
2.9225809e-244
6.2511257e-245
3.4017687e-243
8.4955741e-245
-1.9712711e-242
-4.2211223e-241
2.2076132e-237
7.29468e-245
-4.2386381e-10
8.763493e-23
-1.6407745e-35
4.996287e-48
-4.036336e-60
1.8215801e-71
4.3792609e-82
1.0755954e-92
8.6627534e-103
5.6580574e-112
-2.5260831e-120
1.8343051e-128
-5.8719673e-136
7.9177804e-143
-1.4945375e-149
3.1079754e-156
-7.4666829e-163
1.626806e-169
-4.5472136e-176
1.1882933e-182
-3.831705e-189
1.2119365e-195
-2.8698266e-202
6.4275269e-209
-1.3550576e-215
2.4586245e-222
-3.8014743e-229
5.003557e-236
-5.8923131e-243
5.7153586e-250
2.9942944e-254
-1.312345e-253
-1.790075e-251
-3.0174202e-252
-1.3223866e-250
-2.8618794e-252
7.5086279e-250
3.0315644e-248
-3.9619393e-243
-1.3690179e-250
-4.3128188e-10
9.1667301e-23
-1.7017217e-35
4.9549899e-48
-3.6967729e-60
1.4221904e-71
3.9486104e-82
9.1372356e-93
6.4254995e-103
3.1418134e-112
-1.9697822e-120
1.4700281e-128
-7.0002278e-136
-1.1496884e-142
-1.3393861e-149
-1.5490485e-156
-1.7079263e-163
-1.8544301e-170
-1.9757624e-177
-2.2552257e-184
-2.4067758e-191
-2.9129279e-198
-3.4835652e-205
-4.3408562e-212
-5.5414619e-219
-7.8921955e-226
-1.1672646e-232
-2.0118524e-239
-3.8996779e-246
-8.3385931e-253
-3.855894e-259
-3.3338329e-259
7.2307681e-258
3.9445772e-259
8.8150739e-258
1.4246654e-259
-3.9942295e-257
-2.239683e-255
-1.6370141e-249
-6.0772839e-257
-4.3499627e-10
9.4775095e-23
-1.7662333e-35
4.98965e-48
-3.4865216e-60
1.1693951e-71
3.9938572e-82
8.8425867e-93
5.5611193e-103
2.1650738e-112
-2.8340012e-120
2.2143096e-128
-1.3571708e-135
-1.0323235e-142
-6.5638929e-150
-4.6915887e-157
-3.5716215e-164
-2.8600287e-171
-2.3719168e-178
-2.0625955e-185
-1.773781e-192
-1.8810368e-199
-1.5728188e-206
-1.5983821e-213
-1.3422328e-220
-1.5623596e-227
-7.2966039e-235
-3.1671374e-241
-5.7305522e-245
-1.8619438e-251
-3.1213738e-258
-3.6126144e-265
6.8281375e-265
5.5729771e-266
-1.2444285e-263
-1.8874405e-266
3.2622648e-264
1.4552418e-262
-2.3351395e-256
-1.0011548e-263
-4.3483038e-10
9.6153992e-23
-1.8116513e-35
5.0312879e-48
-3.3385179e-60
9.9069103e-72
5.1936393e-82
1.1535627e-92
6.8217388e-103
2.268003e-112
1.0767813e-119
-8.7228063e-128
3.4068181e-135
1.0143389e-140
8.9887985e-147
-4.9584992e-153
1.408419e-159
-2.428707e-166
3.7323533e-173
-5.0611562e-180
6.3091658e-187
-7.5054572e-194
8.7666463e-201
-1.0211401e-207
1.4135874e-214
-2.3692828e-221
5.4052251e-228
-2.2557206e-234
-6.7831538e-238
-2.2471634e-244
-3.7941287e-251
-3.8790463e-258
-2.9747341e-265
-1.7304651e-272
-1.2382928e-270
-2.20006e-272
-2.518881e-271
-3.8779048e-270
-1.6834666e-263
-9.1108957e-271
-4.3167798e-10
9.5552157e-23
-1.8201784e-35
5.0193367e-48
-3.2038012e-60
8.4868604e-72
3.3264294e-81
8.1524241e-92
4.9336256e-102
1.5306931e-111
1.1582178e-119
-9.84564e-128
1.7309914e-135
-4.5042114e-143
1.112871e-150
-2.4583853e-158
4.8021723e-166
-4.6822258e-174
-6.2265029e-181
1.0419862e-187
-1.3245014e-194
1.5943142e-201
-1.8975499e-208
2.2493453e-215
-3.1101919e-222
5.3551787e-229
-1.2643463e-235
5.5454997e-242
1.817993e-245
6.3384935e-252
1.2658354e-258
1.580769e-265
2.0380906e-272
1.6298612e-279
-2.9002435e-277
4.6105859e-279
8.5885468e-279
1.1394055e-277
-8.320256e-271
-6.0075294e-278
-4.2704557e-10
9.3356738e-23
-1.7842983e-35
4.9073365e-48
-3.0441868e-60
7.2462717e-72
-3.2763876e-82
-1.0565727e-92
-7.4784229e-103
-2.4276464e-112
-9.77049e-121
9.252154e-129
-8.6281596e-137
8.2596797e-145
-7.5921015e-153
6.6587289e-161
-5.6191994e-169
4.6367728e-177
-3.7594298e-185
3.015416e-193
-2.3105487e-201
5.7193199e-210
1.4768337e-216
-1.955702e-223
2.7351398e-230
-4.7927035e-237
1.1571746e-243
-5.2277421e-250
-1.7935489e-253
-6.6047224e-260
-1.4382286e-266
-2.0462572e-273
-3.3426156e-280
-3.3798184e-287
1.0379973e-284
-1.2826321e-286
-1.3698069e-286
-1.0566865e-285
-2.9632235e-278
-3.3714944e-285
-4.2249533e-10
9.0367171e-23
-1.7092882e-35
4.6724887e-48
-2.831695e-60
6.1038188e-72
-1.1307999e-82
-7.1632155e-93
-7.4290317e-103
-2.9344237e-112
-7.9962822e-121
1.0000702e-128
-6.0404467e-137
3.2722725e-145
-1.7176142e-153
8.8275036e-162
-4.4591732e-170
2.2275935e-178
-1.101482e-186
5.4490483e-195
-2.6870748e-203
1.3275541e-211
-6.5867412e-220
3.2948654e-228
-1.6835925e-236
1.1155895e-244
-6.6601363e-252
2.8685574e-258
1.0048635e-261
3.8260098e-268
8.7768464e-275
1.3529187e-281
2.5550783e-288
3.0063052e-295
-1.1967445e-292
1.4226754e-294
1.2757429e-294
3.3120109e-293
-7.8033883e-286
-1.6570141e-292
-4.1926161e-10
8.743881e-23
-1.6111001e-35
4.3258123e-48
-2.5551681e-60
5.0403311e-72
-5.7039934e-83
2.5983369e-92
6.6517002e-102
3.8866773e-111
7.9004959e-120
-2.9344656e-127
1.3888121e-135
-5.42618e-144
2.0700456e-152
-7.8473808e-161
2.9663135e-169
-1.1174754e-177
4.2070906e-186
-1.5855771e-194
5.9774202e-203
-2.2575733e-211
8.5915789e-220
-3.2816254e-228
1.2636771e-236
-4.9008099e-245
1.9236472e-253
-7.6479289e-262
-9.7528968e-271
-1.5873685e-276
-3.7184873e-283
-5.959385e-290
-1.2271018e-296
-1.5746667e-303
7.3422477e-301
-9.0539904e-303
-8.6313581e-303
-9.7043195e-302
-1.6115536e-293
-7.9676706e-300
-4.1810269e-10
8.5231758e-23
-1.510429e-35
3.9139118e-48
-2.2287869e-60
4.0734396e-72
-3.4637213e-83
1.9498745e-93
-1.6603254e-102
-1.6530141e-111
-2.5592792e-120
-4.8703398e-128
2.1442897e-136
-7.2892095e-145
2.4382083e-153
-8.20879e-162
2.788739e-170
-9.5522116e-179
3.2871489e-187
-1.1382919e-195
3.9527182e-204
-1.3784489e-212
4.8239731e-221
-1.6943924e-229
5.9703083e-238
-2.1048766e-246
7.4231014e-255
-2.6225265e-263
9.3136838e-272
-3.3189286e-280
1.1963296e-288
-4.1679593e-297
6.2364361e-305
5.9851147e-312
-3.1524738e-309
4.215019e-311
5.1801368e-311
2.1395833e-308
-2.8254432e-301
-4.282278e-307
-4.1932097e-10
8.4138021e-23
-1.4260782e-35
3.5039013e-48
-1.8906225e-60
3.2372002e-72
-2.4246726e-83
9.8956114e-94
-3.3479152e-103
-3.2674857e-112
-3.7279046e-121
-2.4387343e-129
1.216055e-137
-4.3129287e-146
1.5292326e-154
-5.5767917e-163
2.0752791e-171
-7.8688317e-180
3.0183883e-188
-1.172437e-196
4.5927292e-205
-1.8098225e-213
7.1522946e-222
-2.8202115e-230
1.1073109e-238
-4.327857e-247
1.6757487e-255
-6.4140217e-264
2.4197048e-272
-8.9681845e-281
3.2769234e-289
-1.178236e-297
4.1995644e-306
-2.0465095e-315
5.2290532e-314
8.3758958e-314
-8.3323558e-314
1.117765e-313
-4.5296328e-309
-3.0554891e-313
-4.2284882e-10
8.431853e-23
-1.3710086e-35
3.1580141e-48
-1.5859396e-60
2.5602803e-72
-1.9563891e-83
1.1443059e-93
1.0329372e-102
4.2167243e-112
3.3684875e-121
1.3106288e-129
-9.6734971e-138
4.584749e-146
-2.2294503e-154
1.1525402e-162
-6.2204404e-171
3.4940908e-179
-2.0165957e-187
1.1891685e-195
-7.1081881e-204
4.3000727e-212
-2.6000642e-220
1.5633754e-228
-9.3376946e-237
5.5413256e-245
-3.303528e-253
2.0759934e-261
-1.4416092e-269
1.1123692e-277
-8.8296297e-286
6.5815795e-294
-4.4080282e-302
2.6544567e-310
-5.4024236e-316
-1.6088458e-314
-1.6272051e-313
5.9263537e-315
9.5197857e-315
-2.2251257e-313
-4.2834489e-10
8.5765856e-23
-1.3520089e-35
2.9162196e-48
-1.3472614e-60
2.0505923e-72
-1.8602907e-83
-3.0479685e-93
-2.4751639e-103