/*--------------------------------*- C++ -*----------------------------------*\
  =========                 |
  \\      /  F ield         | OpenFOAM: The Open Source CFD Toolbox
   \\    /   O peration     | Website:  https://openfoam.org
    \\  /    A nd           | Version:  10
     \\/     M anipulation  |
\*---------------------------------------------------------------------------*/
FoamFile
{
    format      ascii;
    class       volScalarField;
    location    "0.1";
    object      TporMedia;
}
// * * * * * * * * * * * * * * * * * * * * * * * * * * * * * * * * * * * * * //

dimensions      [0 0 0 1 0 0 0];

internalField   nonuniform List<scalar> 
4000
(
-5.8828215e-06
2.9794284e-06
-0.00044077821
-0.00056974774
0.00065196313
0.0033886284
0.0021166214
-0.010623269
0.00092368129
0.001849133
0.0023320664
0.0031025151
-0.0099089489
0.0024398339
0.0063035973
0.013970569
-0.05328735
0.0016641198
-0.0034419669
-0.002267205
-0.0039483187
0.00211835
0.0089238818
0.0099549963
-0.0038038192
-0.0074981494
-0.010769506
0.062009801
-0.0036577151
-0.14484662
0.0011993436
0.014838446
0.0014150371
0.0015273807
0.0027977258
0.0018806836
0.00076596844
0.00073568222
0.0027924747
0.001631349
-5.1854312e-07
4.6537927e-15
-2.1481618e-12
8.8544302e-11
-2.5414577e-10
-8.411496e-09
-1.8737106e-08
-4.2370634e-08
-5.9978436e-09
9.1873575e-09
9.0722336e-09
-1.294249e-08
-4.0325892e-08
-9.8970972e-09
-1.6055664e-08
-3.8959791e-08
2.7860106e-07
-5.4326706e-07
1.3578275e-08
4.8652971e-09
1.2027663e-08
2.1982283e-07
-1.6603963e-08
-1.4833765e-08
3.8669703e-08
-3.738258e-06
5.3185945e-08
-2.2516629e-07
-1.7980059e-08
5.0557738e-07
-1.9956304e-09
5.7571132e-08
-7.7264604e-09
3.7505131e-09
1.1514817e-08
4.1277781e-09
-2.0635405e-08
-9.0502718e-09
-8.294386e-09
6.1466845e-09
-2.1065114e-07
-1.3995062e-15
-2.9818192e-21
1.6471903e-18
1.7231698e-17
7.7409871e-15
-4.1243487e-14
6.2198513e-13
-3.3586296e-14
-5.140546e-13
-3.4252894e-14
-1.4174443e-13
1.3863282e-13
1.6344714e-14
1.0159564e-13
1.4605078e-13
-3.829026e-13
-2.2826297e-12
-2.2461408e-14
-1.458942e-14
-1.4503116e-14
7.7377725e-12
4.5811027e-13
4.4421272e-14
5.1550995e-13
7.1787859e-10
-3.1338516e-13
-2.5722061e-12
7.4455822e-14
-6.6333058e-12
4.8672775e-15
-3.1632257e-13
-3.2442504e-14
-3.6919092e-14
1.3174764e-13
-9.4087182e-15
3.2420701e-13
-2.4711536e-14
-1.6628478e-14
1.7107525e-14
-1.1373967e-07
7.5949615e-17
5.4830549e-26
5.3494413e-27
-6.2242815e-25
-9.53699e-22
-7.476455e-20
-9.4649873e-18
1.5294759e-19
1.1606028e-18
1.6340691e-19
-3.4052751e-19
-2.4086687e-19
6.8750162e-20
-1.0089053e-18
-1.9066753e-18
3.0096529e-18
9.3899657e-18
6.3477858e-20
1.949856e-20
-3.7496979e-18
-1.8540625e-17
-9.089969e-19
-6.6768647e-20
-1.1801754e-18
-3.1050169e-15
3.9929194e-19
5.0279641e-18
-1.4022436e-18
2.6417354e-17
8.7838856e-21
5.0143053e-18
2.5284821e-19
-1.6061969e-19
-5.9544661e-18
-1.1429671e-19
-2.726719e-18
-4.3428144e-19
-2.4419462e-20
4.8641925e-20
-7.1957596e-08
1.4942707e-17
8.2956307e-27
1.573984e-35
-2.6446643e-31
3.5148961e-29
4.2398351e-26
-1.4415464e-23
3.6126281e-25
-2.4007099e-24
-5.8797975e-25
6.0154135e-25
3.9191806e-25
-1.9235107e-25
8.8188553e-24
3.5229811e-24
-6.7002838e-24
-1.161343e-23
-1.204597e-25
-3.6570941e-26
4.4340582e-24
3.8634783e-23
2.5432705e-24
1.3248797e-25
1.0795074e-24
7.8549874e-21
-1.3074354e-24
-2.1844752e-23
-7.254771e-23
-4.0776621e-23
-1.1629312e-26
-1.7750246e-23
-8.5733609e-25
-6.1129884e-23
2.8547968e-22
2.2021449e-25
-1.7774919e-23
1.244583e-23
-7.5688226e-26
-2.9331926e-25
-5.0398999e-08
5.0292434e-18
3.4282247e-27
1.9566999e-36
-1.7089677e-39
-6.3120757e-37
-4.9550852e-33
-2.263229e-29
2.6401716e-30
4.5550056e-30
1.1143012e-30
7.6360035e-30
-5.3072314e-31
2.686585e-31
-1.8937307e-29
-5.6592517e-30
9.6096439e-30
4.2451611e-29
2.3292828e-30
6.9283896e-32
-1.1359801e-29
-8.2258265e-29
-1.6005218e-29
-9.7988113e-32
-1.2325119e-30
-1.0265636e-26
2.7125331e-30
8.4620913e-29
1.2376821e-28
3.3642623e-29
4.023132e-32
-8.6488912e-29
1.9495443e-30
-1.7928486e-28
9.6728563e-27
-2.7992041e-30
3.8858246e-28
2.0206244e-28
-1.0420423e-31
1.1542589e-29
-3.7893236e-08
2.2032911e-18
-1.8455598e-26
-6.4383998e-36
-1.2296044e-44
8.1751826e-45
1.9971796e-40
2.6413233e-35
-5.7617265e-36
-3.4067654e-36
9.4030354e-36
-7.5250585e-36
5.3127224e-37
-7.5678176e-37
4.4890557e-35
8.9559422e-36
-1.3108856e-35
-4.5269834e-35
-1.8835074e-36
-2.208563e-37
1.0841751e-35
1.4990302e-34
1.4309906e-35
3.3087103e-37
2.2347505e-36
1.13253e-32
-3.9590118e-36
-2.3387229e-34
-1.6374247e-34
-4.9964064e-35
-8.4513811e-38
1.0480889e-34
-2.8338243e-36
2.6097568e-34
-1.6844024e-31
8.9222728e-36
-4.8960854e-34
3.7079019e-34
1.6903135e-36
-2.7484632e-35
-2.9941994e-08
1.1353952e-18
-3.3489227e-28
-8.3698346e-38
-7.0350922e-47
-1.408045e-52
-3.542897e-48
-6.6139651e-42
-2.0321376e-41
4.710581e-42
-6.7808203e-42
6.8703605e-42
-5.1831093e-43
8.0662966e-43
-3.8862235e-41
-8.5327848e-42
1.3495666e-41
3.3838477e-41
1.868303e-42
1.8298834e-43
-8.3006885e-42
-9.7445306e-41
-1.3284671e-41
-2.5402723e-43
-2.5191598e-42
-1.0136474e-38
2.9553801e-42
3.1200041e-40
1.5668053e-40
1.0833419e-40
7.5398221e-44
-1.1697383e-40
2.8021807e-42
-5.3950805e-40
2.8856987e-37
-7.4647311e-41
4.7117839e-40
-1.0908173e-38
-3.6614581e-42
6.1946043e-41
-2.443799e-08
6.5044186e-19
-7.4553983e-29
-1.5303295e-38
-6.9507436e-48
-1.2747679e-55
3.2897563e-56
5.2347301e-49
-7.4247449e-47
-3.7753705e-48
8.2061135e-48
-1.2971208e-47
5.2452745e-49
-7.0230073e-49
2.1826529e-47
5.9437536e-48
-8.9761508e-48
-2.4282203e-47
-1.3369634e-48
-1.1273034e-49
4.4114741e-48
6.3260639e-47
8.0232946e-48
1.3910623e-49
1.6083631e-48
6.2424237e-45
-2.8629955e-48
-2.8170848e-46
-1.5725806e-46
-1.1298255e-46
-4.2985772e-50
8.0968775e-47
-7.875637e-48
4.0452638e-46
-4.5068665e-43
7.5118563e-47
-2.6574418e-45
1.3842313e-44
4.0307272e-48
-5.0928395e-47
-2.0292561e-08
3.9869375e-19
-2.4235315e-29
-4.7063596e-39
-1.3205731e-48
-4.126511e-57
-1.2149408e-64
-1.7295402e-56
1.3939616e-52
5.472325e-54
-5.735857e-54
6.3191989e-54
-3.4167491e-55
4.694178e-55
-1.6581002e-53
-3.4436882e-54
4.7051607e-54
1.4310436e-53
9.5686436e-55
5.8597728e-56
-1.8892747e-54
-4.4537591e-53
-3.9284e-54
-1.122007e-55
-9.2944802e-55
-2.6391427e-51
2.0545293e-54
2.0516318e-52
1.373063e-52
7.544681e-53
4.4161074e-56
-8.6321601e-53
5.336399e-54
-3.1967455e-52
5.9256075e-49
-1.1283328e-52
4.8522634e-51
-1.8220035e-50
-4.1335613e-54
4.0906533e-53
-1.6932182e-08
2.5438904e-19
-9.460527e-30
-2.1115163e-39
-4.0347217e-49
-5.0369263e-58
2.956393e-66
2.9664105e-64
-4.1583476e-59
-1.5195613e-59
3.26913e-60
-3.5721145e-60
1.4477018e-61
-2.6026704e-61
1.2052811e-59
2.0898611e-60
-2.3218517e-60
-6.9306481e-60
-4.8805085e-61
-2.4004404e-62
8.8855039e-61
2.5677364e-59
2.3819838e-60
7.6033647e-62
6.1948567e-61
1.5251572e-57
-1.1491481e-60
-1.4639371e-58
-7.2817476e-59
-2.920544e-59
-2.2883568e-62
5.7449532e-59
-3.520305e-60
1.9663428e-58
-3.2254894e-55
7.3601779e-59
-2.9886819e-57
1.5725558e-56
3.0838918e-60
-2.2601118e-59
-1.4080236e-08
1.6584507e-19
-4.1065783e-30
-1.6460561e-39
-2.3109827e-49
-1.4818988e-58
9.1293908e-67
-3.0383216e-72
4.9093002e-66
-2.0190857e-65
-2.0841052e-66
1.9769886e-66
-9.3275052e-68
1.3283908e-67
-6.7394763e-66
-8.7660332e-67
1.1318273e-66
3.4233758e-66
1.9071041e-67
8.7416039e-69
-2.979821e-67
-1.3198295e-65
-1.1845673e-66
-3.2113678e-68
-2.794076e-67
-6.7299438e-64
4.2866921e-67
6.2577486e-65
4.4037114e-65
1.372176e-65
1.0319292e-68
-3.8362464e-65
2.1272871e-66
-1.3087886e-64
1.9152899e-61
-6.0602507e-65
2.7257485e-63
-9.5515369e-63
-1.642541e-66
8.1732343e-66
-1.1622155e-08
1.0922187e-19
-1.904962e-30
1.5901775e-39
1.747296e-49
6.6093231e-59
-7.8279219e-67
5.1906203e-75
-2.4734721e-73
-4.879627e-71
1.2387113e-72
-7.5970376e-73
4.1256972e-74
-5.2189722e-74
2.5662623e-72
3.454141e-73
-4.2903796e-73
-1.0510606e-72
-7.2160734e-74
-4.8072801e-75
1.3772263e-73
5.049034e-72
4.2525048e-73
1.2756228e-74
1.2264479e-73
2.9810612e-70
-1.7667503e-73
-3.181899e-71
-2.1235024e-71
-5.2416663e-72
-4.7046119e-75
1.9913483e-71
-1.2639641e-72
7.2578561e-71
-1.2342438e-67
3.5275587e-71
-1.4761413e-69
3.9703173e-69
9.2498364e-73
-2.4626563e-72
-9.5112823e-09
7.220031e-20
-9.230693e-31
1.3151065e-40
1.1952302e-50
2.9215894e-60
2.8289343e-68
-1.3492104e-76
6.5756292e-81
-3.5581506e-76
-6.8651673e-79
3.8087231e-79
-1.4548423e-80
2.0869951e-80
-9.4623429e-79
-1.3960492e-79
1.4942426e-79
4.4824926e-79
2.2655468e-80
1.843345e-81
-4.4518855e-80
-1.8295099e-78
-2.0255987e-79
-5.6331573e-81
-3.7850393e-80
-1.2907457e-76
5.7535338e-80
1.1199773e-77
8.0938488e-78
2.1014464e-78
2.0046072e-81
-8.5189342e-78
5.7259156e-79
-3.3382976e-77
7.7298066e-74
-2.1825856e-77
8.5208875e-76
-2.0452593e-75
-3.7552197e-79
7.2977381e-79
-7.7114033e-09
4.7684807e-20
-4.6023089e-31
2.9834028e-41
2.3635346e-51
3.9897011e-61
8.9796122e-70
-3.3786263e-78
5.1508792e-86
1.7543146e-82
7.664157e-85
-1.6593321e-85
6.6606226e-87
-6.5347075e-87
2.8802888e-85
4.536779e-86
-5.8354532e-86
-1.3891836e-85
-7.5063843e-87
-5.6842867e-88
1.4357661e-86
6.4862435e-85
7.1891563e-86
2.0215138e-87
1.1559502e-86
4.161356e-83
-2.405612e-86
-3.1578732e-84
-3.0554865e-84
-6.9106819e-85
-8.2707979e-88
2.8191628e-84
-2.354298e-85
1.4784874e-83
-4.0010365e-80
1.3594378e-83
-4.2732329e-82
1.0482308e-81
1.8080149e-85
-1.5299705e-85
-6.1840406e-09
3.1318069e-20
-2.3333988e-31
8.6636894e-42
6.3154156e-52
7.7528686e-62
7.8822112e-71
-2.5701854e-79
2.4780357e-87
-2.6198275e-89
-2.6293449e-90
5.5347323e-92
-2.1754795e-93
2.3196632e-93
-1.1101126e-91
-1.3120557e-92
1.9479574e-92
3.7150301e-92
2.3041375e-93
1.7992158e-94
-4.0665139e-93
-2.0035575e-91
-2.1114222e-92
-5.554746e-94
-3.5822808e-93
-1.325096e-89
7.9742457e-93
1.0045241e-90
8.9664451e-91
2.3547478e-91
2.7536807e-94
-9.2199217e-91
7.7128532e-92
-6.0143731e-90
1.5428532e-86
-5.9215005e-90
1.9955799e-88
-4.4174247e-88
-5.2610096e-92
2.3651823e-92
-4.9012543e-09
2.0384294e-20
-1.192807e-31
2.831898e-42
2.0219625e-52
1.8826365e-62
1.0631868e-71
-3.354264e-80
2.2022296e-88
-1.4122812e-95
1.0359594e-94
-1.8768364e-98
6.3998027e-100
-6.2464862e-100
2.9311845e-98
3.5155228e-99
-4.8937623e-99
-1.0698574e-98
-6.471122e-100
-4.4216284e-101
9.9090818e-100
5.1287856e-98
5.197649e-99
1.5647432e-100
8.8469278e-100
3.0608953e-96
-2.0820574e-99
-3.0309402e-97
-2.5984402e-97
-6.3850435e-98
-8.2851238e-101
2.5546053e-97
-2.4120835e-98
2.3870142e-96
-7.2954936e-93
2.0604504e-96
-6.6171939e-95
1.4259065e-94
1.2145533e-98
-2.4579878e-99
-3.8512767e-09
1.3160871e-20
-6.1296856e-32
9.9434909e-43
7.5576571e-53
5.5308732e-63
1.9404152e-72
-7.0804416e-81
3.3724755e-89
-1.2568928e-96
-1.9876464e-100
6.6128102e-105
-1.7741759e-106
1.9021667e-106
-7.023383e-105
-1.0113686e-105
1.2304837e-105
2.7724696e-105
1.6574552e-106
1.1798676e-107
-2.412024e-106
-1.2142154e-104
-1.5979426e-105
-4.1012251e-107
-2.0345499e-106
-7.2750526e-103
5.3403424e-106
7.3545429e-104
6.0029666e-104
1.7959067e-104
2.5591966e-107
-6.3869764e-104
7.281094e-105
-7.2514407e-103
3.0803572e-99
-9.7890995e-103
2.022957e-101
-4.2675911e-101
-2.6476143e-105
1.6950801e-106
-3.0230897e-09
8.4799157e-21
-3.1761607e-32
3.6817795e-43
3.4108143e-53
2.0233394e-63
4.7417054e-73
-3.1011027e-81
1.1269281e-89
-2.4830637e-97
5.0642126e-103
-2.0241126e-109
4.918103e-113
-4.4391381e-113
1.805767e-111
2.2279355e-112
-3.160059e-112
-6.2454876e-112
-3.4926562e-113
-3.1089728e-114
5.6807134e-113
2.7680723e-111
3.827578e-112
8.2638186e-114
5.2265645e-113
1.539929e-109
-1.2023081e-112
-1.7305725e-110
-1.4368954e-110
-4.3195247e-111
-7.6796489e-114
1.5154564e-110
-1.8511201e-111
2.0550085e-109
-1.0407584e-105
2.7288013e-109
-5.0320226e-108
1.1053974e-107
3.9922143e-112
-9.2023817e-114
-2.3916796e-09
5.4982985e-21
-1.6691873e-32
1.4282768e-43
2.2014201e-53
1.0885699e-63
1.7960482e-73
2.388261e-81
-7.0023062e-90
9.8541577e-98
-3.1382186e-104
1.283801e-110
-2.7069361e-117
9.6650803e-120
-3.7465696e-118
-4.6861005e-119
6.2704747e-119
1.3418902e-118
7.2948944e-120
6.6068226e-121
-1.1025955e-119
-5.5717308e-118
-7.9023503e-119
-1.7228949e-120
-9.8660385e-120
-3.4649506e-116
2.5895206e-119
4.1793202e-117
3.1967095e-117
1.089293e-117
1.6135872e-120
-3.6299065e-117
4.4535734e-118
-5.1647246e-116
2.8740285e-112
-6.502621e-116
1.2987113e-114
-2.1409441e-114
-4.8956788e-119
5.2285089e-121
-1.9191551e-09
3.6116714e-21
-8.939743e-33
5.7870432e-44
-2.2972454e-52
-9.7179023e-63
-1.1764734e-72
-2.6640497e-81
6.6165634e-90
-6.3485944e-98
9.65214e-105
-4.6027295e-111
1.0596542e-117
-2.3744514e-124
6.9483317e-125
9.1649593e-126
-1.1385382e-125
-2.7484102e-125
-1.33314e-126
-1.1913152e-127
2.0769803e-126
9.9084605e-125
1.6417041e-125
2.9202558e-127
1.8899531e-126
6.4730149e-123
-5.1955016e-126
-7.6788315e-124
-6.3677227e-124
-2.335185e-124
-2.9672771e-127
8.1924228e-124
-9.510155e-125
1.3583459e-122
-6.2508973e-119
1.5496359e-122
-2.8365927e-121
3.7140106e-121
5.1042263e-126
-6.3682346e-128
-1.5655122e-09
2.411198e-21
-4.8881191e-33
2.4401725e-44
-2.4439203e-54
-9.0685352e-65
-8.3277135e-75
-8.4897386e-84
1.8861932e-92
-1.2935448e-100
1.054942e-107
-6.2950691e-114
1.3504103e-120
-2.5175071e-127
-1.2595033e-131
-1.5937175e-132
2.1935159e-132
4.7866714e-132
2.325306e-133
2.2464649e-134
-3.5502486e-133
-1.683174e-131
-2.6651218e-132
-4.9011652e-134
-3.3781698e-133
-1.0981623e-129
9.0491645e-133
1.4755316e-130
1.1411299e-130
4.0690964e-131
5.5909266e-134
-1.5777137e-130
1.9778105e-131
-2.8960267e-129
1.3461176e-125
-3.9176133e-129
5.3833717e-128
-5.8567235e-128
-6.1223937e-133
-1.3497774e-134
-1.2970659e-09
1.636579e-21
-2.7268801e-33
1.0659637e-44
-4.5665825e-55
-1.5243542e-65
-1.0922662e-75
-6.325655e-85
1.3417463e-93
-6.9005618e-102
3.1763836e-109
-1.3147609e-115
2.7589797e-122
-4.194347e-129
6.9779797e-136
2.737318e-139
-3.455991e-139
-7.8341208e-139
-4.0882825e-140
-3.4482485e-141
5.6115387e-140
2.6557306e-138
3.9623418e-139
7.9551387e-141
5.4561411e-140
1.6905283e-136
-1.3973288e-139
-2.6154936e-137
-1.8858834e-137
-6.2107915e-138
-1.0073491e-140
2.6176415e-137
-3.8166195e-138
5.8686776e-136
-2.5466169e-132
6.6055562e-136
-8.6050647e-135
7.8966524e-135
9.3069864e-140
-7.084799e-142
-1.0892726e-09
1.1283463e-21
-1.5498074e-33
4.8039079e-45
-1.1704816e-55
-3.6088732e-66
-2.0679107e-76
-7.6240651e-86
1.6846642e-94
-6.7788048e-103
1.9821739e-110
-6.8280303e-117
1.3984566e-123
-2.158061e-130
3.4953544e-137
-5.2869895e-144
5.5043264e-146
1.1748042e-145
5.7467771e-147
4.8547187e-148
-8.7481723e-147
-3.9965465e-145
-6.5245007e-146
-1.1435731e-147
-7.6037102e-147
-2.38574e-143
2.2225653e-146
3.8575227e-144
3.1042572e-144
9.8329403e-145
1.657272e-147
-4.2675209e-144
6.4214248e-145
-9.265626e-143
4.9560986e-139
-1.100747e-142
1.258458e-141
-9.650032e-142
-2.5687833e-146
-2.5480539e-149
-9.2571111e-10
7.8986493e-22
-8.9681774e-34
2.2276051e-45
-3.4873254e-56
-1.0226206e-66
-4.7892084e-77
-1.2064296e-86
3.1859061e-95
-1.0375763e-103
2.0364008e-111
-5.2677818e-118
1.0842806e-124
-1.6560664e-131
2.3714911e-138
-3.3856844e-145
4.2246528e-152
-1.7109654e-152
-7.8832587e-154
-6.6992498e-155
1.1253531e-153
5.3754294e-152
8.8368266e-153
1.6223865e-154
9.7776459e-154
3.2637476e-150
-3.1189251e-153
-5.1925062e-151
-4.4953052e-151
-1.4400545e-151
-2.3846409e-154
6.5058594e-151
-9.9766178e-152
1.4654033e-149
-7.8472955e-146
1.5355951e-149
-1.4322314e-148
1.0803192e-148
3.1004093e-152
-7.9975784e-157
-7.9572279e-10
5.6182391e-22
-5.2887499e-34
1.0623882e-45
-1.1458042e-56
-3.3070572e-67
-1.2915641e-77
-2.3389602e-87
1.0062278e-95
-2.7445715e-104
3.8168496e-112
-6.354345e-119
1.2710284e-125
-1.7646724e-132
2.3615517e-139
-2.9888051e-146
3.9470596e-153
1.5635104e-159
1.0367065e-160
8.4892361e-162
-1.4034414e-160
-6.710881e-159
-1.0327569e-159
-2.0140784e-161
-1.2762668e-160
-4.1244739e-157
3.7061315e-160
6.2309092e-158
5.3995975e-158
1.9893113e-158
3.3536591e-161
-8.6662648e-158
1.3971553e-158
-2.1603376e-156
1.1225308e-152
-1.9192358e-156
1.5124022e-155
-1.2555679e-155
1.9567859e-158
-2.5577278e-164
-6.9218793e-10
4.0687342e-22
-3.1865719e-34
5.2197213e-46
-4.0618673e-57
-1.205178e-67
-4.0000219e-78
-5.4140186e-88
-1.2072661e-94
2.8630984e-103
-2.9355282e-111
3.1013015e-118
-5.0996794e-125
7.0983548e-132
-9.1368452e-139
1.1843981e-145
-1.427401e-152
1.6747239e-159
-2.1831536e-166
-9.6784659e-169
1.6872294e-167
8.4369631e-166
1.1963788e-166
2.3589924e-168
1.4174899e-167
4.7171e-164
-4.5427862e-167
-7.281035e-165
-6.4971643e-165
-2.5530677e-165
-4.1981417e-168
1.100052e-164
-1.8320758e-165
2.7812352e-163
-1.4931604e-159
2.0638907e-163
-1.4075492e-162
1.3366099e-162
6.2587443e-165
-6.9816266e-172
-6.1004929e-10
3.0089542e-22
-1.9691645e-34
2.6509745e-46
-1.5393802e-57
-4.9879947e-68
-1.4329108e-78
-1.4968961e-88
-4.2889443e-97
9.194621e-106
-7.2078982e-114
4.9770283e-121
-7.9555653e-128
9.9638939e-135
-1.1472199e-141
1.3506381e-148
-1.4698968e-155
1.6055153e-162
-1.6675577e-169
1.1700922e-175
-1.8459271e-174
-8.5541184e-173
-1.3404833e-173
-2.5206038e-175
-1.5455979e-174
-4.8082992e-171
4.9072336e-174
7.9201523e-172
6.9751574e-172
2.9489329e-172
4.7095439e-175
-1.1954319e-171
2.1837804e-172
-3.8197784e-170
1.853491e-166
-2.0161914e-170
1.2074007e-169
-1.3884622e-169
1.4014776e-171
2.7536623e-179
-5.4548428e-10
2.2802173e-22
-1.2539461e-34
1.3982835e-46
-6.2202957e-58
-2.4222601e-68
-6.1315802e-79
-5.0817003e-89
-6.2100047e-98
1.2539462e-106
-7.817857e-115
3.6609557e-122
-5.5260429e-129
6.0717306e-136
-6.5201708e-143
6.5259488e-150
-6.6748784e-157
6.6487036e-164
-6.4952844e-171
6.3415555e-178
1.9364173e-181
8.7219895e-180
1.3566628e-180
2.5094989e-182
1.5420921e-181
4.6683927e-178
-4.962246e-181
-8.0638992e-179
-7.1989709e-179
-3.0918998e-179
-4.8051909e-182
1.2620641e-178
-2.3401572e-179
4.3763184e-177
-1.8743043e-173
1.724215e-177
-9.0371945e-177
1.3501461e-176
2.3673713e-178
1.0599294e-185
-4.955216e-10
1.7771002e-22
-8.2714906e-35
7.7027817e-47
-2.6828765e-58
-1.5144622e-68
-3.4382719e-79
-2.3148628e-89
-1.6254289e-98
3.245597e-107
-1.6630353e-115
5.6097037e-123
-7.5611755e-130
7.8777929e-137
-8.0186302e-144
7.6212648e-151
-6.9194185e-158
6.5945809e-165
-5.9873965e-172
5.5327204e-179
-5.1965847e-186
-8.2180259e-187
-1.3105771e-187
-2.2333493e-189
-1.4067394e-188
-4.3296585e-185
4.6311363e-188
7.3597684e-186
6.9167272e-186
2.8254981e-186
4.723594e-189
-1.2306262e-185
2.4149244e-186
-4.7627642e-184
1.784197e-180
-1.4163193e-184
6.2349014e-184
-1.309022e-183
3.7359239e-185
1.9374675e-192
-4.5784289e-10
1.4292965e-22
-5.682146e-35
4.4587034e-47
-1.2393301e-58
-1.8929255e-68
-3.9227786e-79
-2.1914427e-89
-1.0058008e-98
2.1176993e-107
-9.188702e-116
2.3303755e-123
-2.5403254e-130
2.6269264e-137
-2.309916e-144
2.135616e-151
-1.9588862e-158
1.7296359e-165
-1.5504544e-172
1.4239716e-179
-1.2421423e-186
1.8521401e-193
1.1806393e-194
1.9081574e-196
1.2161513e-195
3.9857533e-192
-4.1900207e-195
-6.3600711e-193
-6.2856503e-193
-2.4819478e-193
-4.3708841e-196
1.1236598e-192
-2.2540898e-193
4.5790613e-191
-1.6100189e-187
9.6786781e-192
-3.962459e-191
1.2586874e-190
5.0840833e-192
2.7842278e-199
-4.3065424e-10
1.189995e-22
-4.0857819e-35
2.7286952e-47
-6.1599123e-59
7.5246479e-69
1.4493683e-79
6.8522042e-90
2.2211891e-99
-5.4009111e-108
2.046224e-116
-3.9543281e-124
3.571632e-131
-3.4837659e-138
3.1968833e-145
-2.7478963e-152
2.3897251e-159
-2.0800006e-166
1.8074527e-173
-1.5666953e-180
1.349861e-187
-1.1625077e-194
-1.5211791e-203
-1.5914834e-203
-1.0536992e-202
-3.4179582e-199
3.6210017e-202
5.4291468e-200
5.2696462e-200
2.163901e-200
3.7188459e-203
-1.0090898e-199
2.1095298e-200
-4.1081952e-198
1.2900719e-194
-6.5772911e-199
2.2693201e-198
-1.1861517e-197
6.845981e-199
3.7350887e-206
-4.1256525e-10
1.0281751e-22
-3.088984e-35
1.7757315e-47
-3.3106519e-59
1.2353549e-69
2.2560539e-80
9.2056205e-91
2.2282054e-100
-7.358814e-109
2.501795e-117
-3.8991429e-125
3.0566388e-132
-2.8200264e-139
2.2532604e-146
-1.839867e-153
1.3866441e-160
-1.0648175e-167
8.2556407e-175
-6.430955e-182
4.6901445e-189
-3.6744701e-196
2.8631913e-203
-9.6976954e-211
8.1738648e-210
2.5823017e-206
-2.7681643e-209
-4.3463678e-207
-4.0954013e-207
-1.6781557e-207
-3.1697665e-210
8.563271e-207
-1.7987023e-207
3.5598078e-205
-1.0123674e-201
4.0211463e-206
-1.2707868e-205
1.042753e-204
9.9590692e-206
5.4731561e-213
-4.0245048e-10
9.2340207e-23
-2.4638306e-35
1.2345264e-47
-1.932291e-59
3.9003691e-70
6.9137814e-81
2.4862868e-91
4.6953685e-101
-3.2483343e-109
1.0251704e-117
-1.2809517e-125
7.2823641e-133
-5.4469135e-140
3.7824759e-147
-2.5636093e-154
1.6502339e-161
-1.0647721e-168
7.0000152e-176
-4.507959e-183
2.8963247e-190
-1.8978345e-197
1.2122053e-204
-8.0344216e-212
-4.8886965e-217
-1.6731549e-213
1.7934133e-216
2.8060495e-214
2.6508302e-214
1.1579337e-214
2.2836429e-217
-6.0490545e-214
1.4143822e-214
-3.0676868e-212
7.1217254e-209
-2.329549e-213
6.6908674e-213
-8.2084442e-212
1.4336506e-212
7.8715355e-220
-3.9928631e-10
8.622276e-23
-2.0768589e-35
9.19471e-48
-1.2279395e-59
1.604007e-70
2.8403632e-81
9.2053951e-92
1.408777e-101
2.083042e-109
-6.3328395e-118
6.6576822e-126
-2.7813291e-133
1.6510785e-140
-8.9845543e-148
4.6755989e-155
-2.4305396e-162
1.2675472e-169
-6.4263744e-177
3.2164585e-184
-1.6186332e-191
7.9920968e-199
-4.0069783e-206
1.9989378e-213
-1.0189704e-220
8.3055479e-221
-9.4225094e-224
-1.4404149e-221
-1.4563113e-221
-6.419893e-222
-1.3069753e-224
3.6320567e-221
-8.9450315e-222
2.1097009e-219
-4.5676244e-216
1.210903e-220
-3.168932e-220
5.9149573e-219
2.8175363e-219
1.4539481e-226
-4.0196209e-10
8.3559013e-23
-1.848896e-35
7.3371017e-48
-8.4948628e-60
7.8841553e-71
1.4438782e-81
4.3133506e-92
5.5225568e-102
1.6599169e-110
-5.0872094e-119
4.553416e-127
-1.4343978e-134
6.5841761e-142
-2.8857826e-149
1.2500338e-156
-5.3347675e-164
2.2473788e-171
-9.2997584e-179
3.8730544e-186
-1.6072836e-193
6.6054393e-201
-2.7568543e-208
1.1382516e-215
-4.7806937e-223
-3.4730676e-228
3.9669524e-231
6.3312791e-229
6.3766457e-229
2.8369298e-229
5.9334768e-232
-1.7712034e-228
4.7308222e-229
-1.1766671e-226
2.4121671e-223
-5.6243097e-228
1.328427e-227
-3.6907722e-226
8.6925123e-226
4.0512464e-233
-4.0908736e-10
8.3675751e-23
-1.7318499e-35
6.2518785e-48
-6.3736242e-60
4.4686491e-71
8.7989717e-82
2.4697305e-92
2.7086566e-102
4.1506543e-111
-1.3406759e-119
1.0616448e-127
-2.7645528e-135
1.1003461e-142
-4.2942108e-150
1.6487646e-157
-6.4175344e-165
2.4721065e-172
-9.424371e-180
3.6965842e-187
-1.4670282e-194
5.752263e-202
-2.2156075e-209
8.7184697e-217
-3.3611221e-224
1.2971233e-231
-2.0013216e-238
-2.4488352e-236
-2.502199e-236
-1.0984583e-236
-2.3764674e-239
7.2547679e-236
-1.9469479e-236
5.0826382e-234
-1.0266659e-230
2.155517e-235
-4.9614846e-235
2.2554783e-233
6.073958e-231
2.3604951e-238
-4.1886631e-10
8.5952404e-23
-1.6946912e-35
5.6484348e-48
-5.1469495e-60
2.8554833e-71
6.2845864e-82
1.6766477e-92
1.5974576e-102
1.5496764e-111
-5.6371479e-120
4.1131957e-128
-9.9004766e-136
4.0577637e-143
-1.7786249e-150
8.0040179e-158
-3.4445045e-165
1.5060889e-172
-6.7450915e-180
2.9328136e-187
-1.3226498e-194
5.9458015e-202
-2.6215322e-209
1.1727773e-216
4.7815965e-225
-2.2694985e-229
1.7488765e-235
-6.5139459e-242
1.0392875e-243
4.4668298e-244
9.4837962e-247
-2.8146645e-243
7.5318084e-244
-1.9392877e-241
3.6940163e-238
-7.0949493e-243
1.6950488e-242
-1.4047398e-240
-5.7590298e-237
-2.1170716e-244
-4.2914676e-10
8.9663739e-23
-1.7143514e-35
5.3542894e-48
-4.4238531e-60
2.0170291e-71
5.131199e-82
1.3034333e-92
1.0840824e-102
7.3529281e-112
-3.2637778e-120
2.3208141e-128
-5.9819456e-136
3.7204282e-143
-2.8067621e-150
2.1639395e-157
-1.6392814e-164
1.3109282e-171
-1.1166162e-178
6.9843962e-186
-1.691454e-192
-4.4239266e-199
-3.9044284e-205
-3.8497441e-211
-1.2638158e-216
5.3474803e-222
-4.0812972e-228
1.544435e-234
-5.5357696e-241
1.044587e-247
-6.5679233e-254
1.3938709e-250
-3.3844213e-251
8.0381745e-249
-1.3244838e-245
2.2950048e-250
-6.1358119e-250
9.6847353e-248
5.1470542e-243
1.7319142e-250
-4.3774745e-10
9.3890115e-23
-1.7696648e-35
5.2558389e-48
-3.9924496e-60
1.5435518e-71
4.6737861e-82
1.1259585e-92
8.1930875e-103
4.1302302e-112
-2.5966067e-120
1.8665124e-128
-6.2546288e-136
2.0719571e-142
2.9991191e-148
3.1619731e-154
1.812007e-160
9.5984823e-167
4.4185466e-173
2.2446679e-179
1.2132285e-185
5.9705384e-192
4.8335167e-198
4.8916924e-204
1.6494365e-209
-7.6144114e-215
5.7293247e-221
-2.3718874e-227
9.0295464e-234
-1.8236013e-240
2.9540931e-247
-3.2367442e-254
3.0114508e-258
-4.8437342e-256
5.9870603e-253
-8.5013987e-258
2.6717873e-257
-7.7670881e-255
2.2780552e-249
8.7891129e-257
-4.4300238e-10
9.7571485e-23
-1.8381037e-35
5.2668061e-48
-3.7288236e-60
1.2530823e-71
4.7448382e-82
1.0868006e-92
6.9959604e-103
2.7584812e-112
-3.5788483e-120
2.6852776e-128
-1.2718303e-135
-1.3385774e-142
-1.048797e-149
-8.0351422e-157
-6.4313615e-164
-5.1491203e-171
-4.2057175e-178
-3.3705486e-185
-1.875464e-192
3.4996441e-199
4.5772414e-205
4.8944125e-211
1.5591902e-216
-7.2236905e-222
5.2856249e-228
-1.9480298e-234
8.0710038e-241
-1.2357949e-247
2.3475263e-254
-1.5055142e-261
1.0778024e-264
2.2482867e-262
-6.2532115e-260
5.5797868e-265
-1.6925169e-264
5.1694366e-262
3.7174447e-256
1.5794125e-263
-4.4426171e-10
9.9751895e-23
-1.8960345e-35
5.3134506e-48
-3.5541631e-60
1.0570393e-71
5.8684237e-82
1.310586e-92
7.701753e-103
2.5168072e-112
1.2429427e-119
-9.934763e-128
4.8960267e-135
4.8495895e-142
3.7398638e-149
3.4171338e-156
3.3846568e-163
3.8978023e-170
5.1146958e-177
6.9433921e-184
1.1220733e-190
1.7156556e-197
2.8108687e-204
4.582459e-211
6.5869156e-218
1.0125029e-224
1.3475879e-231
1.4752746e-238
1.5434176e-245
1.4219753e-252
1.2303886e-259
9.5461154e-267
8.7765638e-272
1.9922684e-269
-1.2840273e-266
-1.4831822e-271
1.4321054e-271
-2.7329685e-269
3.5152531e-263
1.7560506e-270
-4.4202447e-10
9.9920449e-23
-1.9225537e-35
5.3307201e-48
-3.4138643e-60
9.0935099e-72
1.7159275e-81
3.9822203e-92
2.2714289e-102
6.6197543e-112
5.1469444e-120
-4.3594427e-128
1.1702937e-135
-1.1475698e-142
1.0628651e-149
-7.7711364e-157
4.55586e-164
-2.3916024e-171
1.162245e-178
-5.2772467e-186
2.3056373e-193
-9.9362783e-201
4.3860482e-208
-1.9355486e-215
9.5509221e-223
-5.0516358e-230
2.8899192e-237
-2.0474279e-244
1.7765284e-251
-2.792671e-258
1.3011076e-264
4.2513787e-271
5.98541e-278
1.6652841e-276
-1.3024845e-273
-1.8768964e-277
-8.1860301e-279
6.8103809e-277
2.1026881e-270
1.3416152e-277
-4.3761487e-10
9.8214025e-23
-1.904993e-35
5.2649881e-48
-3.2666004e-60
7.8551385e-72
-5.4963807e-82
-1.4987543e-92
-9.1794348e-103
-2.6289204e-112
-1.0984194e-120
1.0131783e-128
-1.3553612e-136
2.2542644e-144
-3.6420549e-152
5.3963446e-160
-7.6027276e-168
1.0313054e-175
-1.3571407e-183
1.7465455e-191
-2.2409427e-199
2.9878963e-207
-4.3862563e-215
8.2984306e-223
-2.3757944e-230
1.029255e-237
-5.6956279e-245
4.0791891e-252
-3.7227375e-259
6.1120954e-266
-3.1642552e-272
-1.1834177e-278
-2.3263673e-285
-1.7372741e-283
2.8177661e-280
1.3108915e-284
2.03723e-286
-1.5945106e-284
9.0370478e-278
8.3758018e-285
-4.3263462e-10
9.5309878e-23
-1.8428782e-35
5.0809187e-48
-3.0796056e-60
6.7309949e-72
-1.6143221e-82
-6.5886786e-93
-5.0991914e-103
-1.6352676e-112
-4.7289595e-121
5.2807532e-129
-4.1515909e-137
3.149382e-145
-2.2947856e-153
1.6232662e-161
-1.1120891e-169
7.4713511e-178
-4.9599577e-186
3.2528192e-194
-2.1316327e-202
1.399191e-210
-9.2429608e-219
6.1453189e-227
-4.1706718e-235
2.8767342e-243
-2.0084058e-251
1.1897409e-259
1.9774543e-267
-5.2964325e-274
2.9700207e-280
1.2161448e-286
2.8438304e-293
2.9671037e-291
-6.0327611e-288
-2.463105e-292
-2.6164741e-294
1.7532181e-292
2.8245637e-285
4.3573989e-292
-4.2849113e-10
9.2091857e-23
-1.7479174e-35
4.7713121e-48
-2.8311439e-60
5.6696091e-72
-7.5870492e-83
-1.0030324e-92
-1.33114e-102
-5.7340452e-112
-1.2919899e-120
2.5224893e-128
-1.407776e-136
6.706153e-145
-3.0910673e-153
1.4037924e-161
-6.3096952e-170
2.8062556e-178
-1.23898e-186
5.4717343e-195
-2.42209e-203
1.072965e-211
-4.7745093e-220
2.1370506e-228
-9.6609855e-237
4.4326848e-245
-2.0705052e-253
9.8693006e-262
-4.8538021e-270
2.4868569e-278
-1.358258e-286
8.3030916e-296
-1.8754652e-301
-2.2799637e-299
5.358614e-296
2.1734757e-300
2.1559505e-302
-4.3517538e-300
6.7779728e-293
2.1286238e-299
-4.2615925e-10
8.9335945e-23
-1.6397457e-35
4.3650174e-48
-2.5195765e-60
4.6677112e-72
-4.3332183e-83
4.1140554e-93
2.8760023e-102
2.1445776e-111
3.906518e-120
2.6445817e-127
-1.2418264e-135
4.5843154e-144
-1.6491009e-152
5.9182725e-161
-2.1295072e-169
7.6640646e-178
-2.7587969e-186
9.9467721e-195
-3.6015654e-203
1.3076734e-211
-4.7741151e-220
1.7468896e-228
-6.414298e-237
2.3759454e-245
-8.8792549e-254
3.3443808e-262
-1.277307e-270
4.9664383e-279
-1.9815616e-287
8.2268118e-296
-3.65355e-304
1.1053935e-307
-2.8538027e-304
-1.2194522e-308
-1.3927277e-310
4.1348558e-308
1.3382935e-300
1.089562e-306
-4.2614171e-10
8.7563003e-23
-1.5392745e-35
3.9220389e-48
-2.170103e-60
3.7543163e-72
-2.8255299e-83
1.1765125e-93
-3.7877255e-103
-5.5089787e-112
-7.8603135e-121
-7.4193097e-129
3.5152146e-137
-1.2051292e-145
4.0527264e-154
-1.3829093e-162
4.7723269e-171
-1.665851e-179
5.8642287e-188
-2.0803185e-196
7.4291249e-205
-2.6538182e-213
9.5294902e-222
-3.4256505e-230
1.2345645e-238
-4.4364506e-247
1.5930613e-255
-5.7057355e-264
2.0470998e-272
-7.5134256e-281
3.0054581e-289
-1.3680077e-297
6.842228e-306
-6.2815144e-314
1.2055565e-312
8.381332e-314
-8.3322342e-314
1.032791e-313
2.2743809e-308
-2.1283746e-313
-4.2853663e-10
8.7039297e-23
-1.4630961e-35
3.5121694e-48
-1.8273377e-60
2.9705471e-72
-2.0756416e-83
7.7940839e-94
-2.3717981e-103
-2.2187257e-112
-2.2851107e-121
-1.0648585e-129
6.3547997e-138
-2.4647304e-146
9.4819481e-155
-3.7851069e-163
1.5534844e-171
-6.510551e-180
2.7819596e-188
-1.2031021e-196
5.2680367e-205
-2.3179528e-213
1.0235266e-221
-4.4229258e-230
2.9390947e-238
2.3222996e-245
-1.0220133e-251
8.7044712e-259
-3.5656159e-266
8.6718743e-274
-1.3869274e-281
1.5018717e-289
-1.1595825e-297
7.3852006e-306
-7.1245506e-314
-1.6088457e-314
1.193119e-313
5.9263017e-315
9.9512122e-315
-2.2251256e-313
-4.3312873e-10
8.7835036e-23
-1.4213379e-35
3.1906271e-48
-1.5347635e-60
2.3461302e-72
-1.7333774e-83
1.2250748e-93
3.8561951e-103
1.218851e-112
8.4479047e-122