/*--------------------------------*- C++ -*----------------------------------*\
  =========                 |
  \\      /  F ield         | OpenFOAM: The Open Source CFD Toolbox
   \\    /   O peration     | Website:  https://openfoam.org
    \\  /    A nd           | Version:  10
     \\/     M anipulation  |
\*---------------------------------------------------------------------------*/
FoamFile
{
    format      ascii;
    class       volVectorField;
    location    "0.1";
    object      U;
}
// * * * * * * * * * * * * * * * * * * * * * * * * * * * * * * * * * * * * * //

dimensions      [0 1 -1 0 0 0 0];

internalField   nonuniform List<vector> 
4000
(
(0 0.01863399 0.47773331)
(0 0.023503493 0.50885966)
(0 0.0081608499 0.50052545)
(0 0.0056086141 0.50033653)
(0 0.0042481904 0.50025751)
(0 0.0032483535 0.50016898)
(0 0.0025495553 0.50011966)
(0 0.0020482352 0.50009008)
(0 0.0016705368 0.50006973)
(0 0.0013766063 0.5000553)
(0 0.0011420593 0.50004488)
(0 0.00095054675 0.5000372)
(0 0.00079080526 0.50003145)
(0 0.00065485036 0.50002711)
(0 0.00053684532 0.50002382)
(0 0.00043240136 0.50002133)
(0 0.00033812323 0.50001948)
(0 0.00025130124 0.50001814)
(0 0.00016969492 0.50001725)
(0 9.1374544e-05 0.50001674)
(0 1.4599255e-05 0.50001659)
(0 -6.2291328e-05 0.50001679)
(0 -0.00014096788 0.50001735)
(0 -0.00022320325 0.50001831)
(0 -0.00031098422 0.50001972)
(0 -0.00040664169 0.50002167)
(0 -0.00051302269 0.5000243)
(0 -0.00063372977 0.50002778)
(0 -0.00077346929 0.50003238)
(0 -0.00093858132 0.50003851)
(0 -0.0011378913 0.50004679)
(0 -0.0013840764 0.50005817)
(0 -0.0016959054 0.5000741)
(0 -0.0021037516 0.50009709)
(0 -0.0026635648 0.50013486)
(0 -0.0034575757 0.50020249)
(0 -0.004550693 0.50027175)
(0 -0.0065753144 0.50043406)
(0 -0.017649557 0.50675268)
(0 -0.013585058 0.47975843)
(0 0.03742313 0.44798105)
(0 0.050936078 0.53232499)
(0 0.02194952 0.50804326)
(0 0.016116602 0.50357445)
(0 0.012395676 0.50242361)
(0 0.0094952205 0.50162302)
(0 0.0075001127 0.50115636)
(0 0.0060499844 0.50086541)
(0 0.0049456237 0.50066726)
(0 0.00408246 0.50052806)
(0 0.003391506 0.50042791)
(0 0.0028257832 0.50035425)
(0 0.0023528896 0.50029921)
(0 0.0019497146 0.50025769)
(0 0.001599272 0.50022623)
(0 0.001288742 0.50020248)
(0 0.0010081756 0.5001848)
(0 0.00074961118 0.50017207)
(0 0.00050645111 0.50016352)
(0 0.00027300219 0.50015866)
(0 4.4120757e-05 0.50015722)
(0 -0.0001850973 0.50015913)
(0 -0.00041958669 0.5001645)
(0 -0.00066458343 0.50017365)
(0 -0.00092594591 0.50018712)
(0 -0.0012105332 0.50020576)
(0 -0.0015267012 0.5002308)
(0 -0.0018849914 0.50026404)
(0 -0.0022991231 0.50030812)
(0 -0.0027874792 0.50036692)
(0 -0.0033754833 0.50044639)
(0 -0.0040995675 0.50055601)
(0 -0.0050128811 0.50071089)
(0 -0.0061953705 0.50093662)
(0 -0.0077959801 0.50129483)
(0 -0.010090773 0.50191163)
(0 -0.013074634 0.50282751)
(0 -0.017394524 0.50608263)
(0 -0.038728505 0.52526636)
(0 -0.027880016 0.45023601)
(0 0.039873845 0.40985246)
(0 0.061394407 0.54931227)
(0 0.031946914 0.52188145)
(0 0.024321544 0.51008311)
(0 0.019157605 0.50658978)
(0 0.014940754 0.50452813)
(0 0.011970809 0.50327061)
(0 0.0097370957 0.50245684)
(0 0.0080033869 0.50189885)
(0 0.0066339632 0.50150589)
(0 0.0055285426 0.50122214)
(0 0.0046175409 0.50101292)
(0 0.003852172 0.50085635)
(0 0.0031969945 0.50073807)
(0 0.0026256303 0.50064837)
(0 0.0021179841 0.50058058)
(0 0.0016583383 0.5005301)
(0 0.0012340327 0.50049372)
(0 0.00083452058 0.50046927)
(0 0.00045066287 0.50045536)
(0 7.4178602e-05 0.50045124)
(0 -0.00030283489 0.50045669)
(0 -0.00068832923 0.50047204)
(0 -0.0010907276 0.50049818)
(0 -0.0015194225 0.50053666)
(0 -0.001985359 0.50058986)
(0 -0.0025017896 0.50066129)
(0 -0.0030853065 0.50075603)
(0 -0.003757305 0.50088149)
(0 -0.0045460975 0.50104858)
(0 -0.0054901205 0.50127387)
(0 -0.0066434462 0.5015835)
(0 -0.0080833908 0.50201961)
(0 -0.0099141919 0.50265065)
(0 -0.012308718 0.50361631)
(0 -0.015655293 0.50520223)
(0 -0.019816038 0.50785945)
(0 -0.025128306 0.51641394)
(0 -0.047364047 0.53913314)
(0 -0.03083034 0.41493279)
(0 0.034773723 0.36179262)
(0 0.063790366 0.55458178)
(0 0.039322608 0.53746953)
(0 0.030031526 0.51849564)
(0 0.024058813 0.51197948)
(0 0.019225436 0.50849945)
(0 0.015682841 0.50626251)
(0 0.01290253 0.50475217)
(0 0.010694567 0.50369979)
(0 0.0089221422 0.50295028)
(0 0.0074721445 0.50240415)
(0 0.0062648406 0.5019989)
(0 0.0052423571 0.50169425)
(0 0.0043613719 0.50146328)
(0 0.0035890065 0.50128762)
(0 0.0028998173 0.50115459)
(0 0.0022736401 0.50105534)
(0 0.0016940576 0.50098372)
(0 0.0011472733 0.50093554)
(0 0.00062125068 0.50090811)
(0 0.000105033 0.50089996)
(0 -0.00041185801 0.50091069)
(0 -0.0009399641 0.50094092)
(0 -0.0014904176 0.50099238)
(0 -0.0020755642 0.50106805)
(0 -0.0027096807 0.50117254)
(0 -0.0034098826 0.50131256)
(0 -0.0041973312 0.5014978)
(0 -0.0050988978 0.50174228)
(0 -0.006149464 0.5020665)
(0 -0.0073950128 0.50250096)
(0 -0.0088979011 0.50309269)
(0 -0.010745649 0.50391645)
(0 -0.013045042 0.5050887)
(0 -0.015931799 0.506809)
(0 -0.019808892 0.50947314)
(0 -0.024645729 0.5142831)
(0 -0.031022335 0.52824812)
(0 -0.050241534 0.54409849)
(0 -0.028407488 0.37248416)
(0 0.027404349 0.31494508)
(0 0.062251458 0.55028519)
(0 0.044532215 0.55146582)
(0 0.033908304 0.52748981)
(0 0.027389835 0.51772537)
(0 0.022380764 0.51291957)
(0 0.018563658 0.50972817)
(0 0.015457436 0.50748679)
(0 0.012939103 0.5058918)
(0 0.010879663 0.50473671)
(0 0.0091676441 0.50388411)
(0 0.0077241058 0.5032455)
(0 0.0064889718 0.50276198)
(0 0.0054157322 0.50239332)
(0 0.0044682572 0.50211171)
(0 0.0036180029 0.5018977)
(0 0.0028419491 0.5017376)
(0 0.0021210824 0.50162182)
(0 0.0014392356 0.50154381)
(0 0.0007821752 0.50149934)
(0 0.00013686327 0.50148609)
(0 -0.00050920471 0.50150342)
(0 -0.0011686064 0.50155233)
(0 -0.0018545689 0.50163551)
(0 -0.0025816563 0.50175765)
(0 -0.0033665404 0.50192594)
(0 -0.0042289473 0.50215078)
(0 -0.0051928706 0.50244708)
(0 -0.0062881797 0.50283612)
(0 -0.0075527815 0.50334859)
(0 -0.0090350879 0.50402916)
(0 -0.010797694 0.50494442)
(0 -0.012927608 0.50619725)
(0 -0.015528928 0.50794269)
(0 -0.018689633 0.51040733)
(0 -0.02277157 0.51406322)
(0 -0.028056443 0.52115436)
(0 -0.035576673 0.53932772)
(0 -0.050371694 0.54162008)
(0 -0.024049341 0.3307289)
(0 0.019816971 0.27534584)
(0 0.057912208 0.53983108)
(0 0.047254041 0.56256693)
(0 0.036377411 0.53660249)
(0 0.029538224 0.52350986)
(0 0.024578625 0.5174024)
(0 0.020678585 0.51335755)
(0 0.017417515 0.51043516)
(0 0.014726802 0.50831139)
(0 0.012485288 0.50674589)
(0 0.010591352 0.50557407)
(0 0.0089728924 0.5046868)
(0 0.0075721794 0.50400912)
(0 0.006343248 0.50348881)
(0 0.0052495384 0.50308913)
(0 0.004261485 0.50278404)
(0 0.0033547655 0.502555)
(0 0.0025089524 0.50238892)
(0 0.0017064326 0.50227677)
(0 0.00093152966 0.50221273)
(0 0.00016977701 0.50219358)
(0 -0.00059274804 0.50221842)
(0 -0.001370046 0.50228863)
(0 -0.0021767694 0.50240795)
(0 -0.0030289186 0.50258284)
(0 -0.0039445925 0.50282311)
(0 -0.0049448876 0.50314293)
(0 -0.0060550019 0.50356232)
(0 -0.0073056296 0.50410951)
(0 -0.0087348582 0.50482449)
(0 -0.010390134 0.50576431)
(0 -0.012329942 0.50701134)
(0 -0.014634681 0.50868883)
(0 -0.017406505 0.51097862)
(0 -0.020699661 0.51412351)
(0 -0.024810455 0.51874043)
(0 -0.030345948 0.52823601)
(0 -0.038453984 0.5487292)
(0 -0.048376106 0.53410877)
(0 -0.019025419 0.29419205)
(0 0.013061674 0.24275576)
(0 0.051707171 0.52534086)
(0 0.047569588 0.57026167)
(0 0.037625276 0.54551694)
(0 0.030724813 0.52928936)
(0 0.025949541 0.52179944)
(0 0.022116575 0.51698936)
(0 0.018836848 0.51345935)
(0 0.016082935 0.51084596)
(0 0.013746729 0.50888906)
(0 0.011741636 0.50740531)
(0 0.010004937 0.50626967)
(0 0.0084838775 0.50539436)
(0 0.0071355835 0.50471723)
(0 0.0059251359 0.50419388)
(0 0.0048236019 0.50379239)
(0 0.0038066833 0.50348976)
(0 0.0028536011 0.50326962)
(0 0.0019461632 0.50312062)
(0 0.0010679818 0.50303534)
(0 0.00020380864 0.50300972)
(0 -0.00066108741 0.50304261)
(0 -0.0015415167 0.50313575)
(0 -0.0024528987 0.50329388)
(0 -0.0034119209 0.50352518)
(0 -0.0044372193 0.50384194)
(0 -0.0055501745 0.50426182)
(0 -0.006775856 0.50480948)
(0 -0.0081441394 0.50551924)
(0 -0.0096912817 0.50643895)
(0 -0.011461688 0.50763584)
(0 -0.013507835 0.50920487)
(0 -0.015899421 0.5112841)
(0 -0.018732181 0.51407323)
(0 -0.022037948 0.51784156)
(0 -0.026056802 0.52347758)
(0 -0.031636182 0.5353745)
(0 -0.039532678 0.55591354)
(0 -0.044733302 0.52303169)
(0 -0.014045442 0.26299549)
(0 0.0077480523 0.21580104)
(0 0.044720612 0.50822353)
(0 0.046083183 0.574415)
(0 0.037866611 0.55373611)
(0 0.031129782 0.53495665)
(0 0.026613922 0.52602563)
(0 0.02296583 0.52052573)
(0 0.019775841 0.51646799)
(0 0.017045104 0.51341482)
(0 0.014686006 0.51109787)
(0 0.012630012 0.5093214)
(0 0.010824911 0.5079481)
(0 0.0092246454 0.50688033)
(0 0.0077911021 0.50604815)
(0 0.0064923982 0.50540094)
(0 0.0053014441 0.50490183)
(0 0.0041950022 0.50452404)
(0 0.0031528187 0.50424829)
(0 0.0021568717 0.50406114)
(0 0.0011907187 0.50395379)
(0 0.00023892568 0.50392136)
(0 -0.00071347923 0.50396247)
(0 -0.001681546 0.50407922)
(0 -0.0026808584 0.50427724)
(0 -0.0037281257 0.50456625)
(0 -0.0048417606 0.50496079)
(0 -0.0060425433 0.50548151)
(0 -0.0073543897 0.50615709)
(0 -0.0088051783 0.50702691)
(0 -0.010427917 0.50814522)
(0 -0.012262425 0.50958738)
(0 -0.014354104 0.51145853)
(0 -0.01675936 0.51390771)
(0 -0.019560373 0.51714416)
(0 -0.022773747 0.52148104)
(0 -0.026619869 0.52818832)
(0 -0.032081037 0.54220934)
(0 -0.039121308 0.56054275)
(0 -0.040139355 0.50940385)
(0 -0.0096596014 0.23631855)
(0 0.0039822106 0.19388124)
(0 0.037780628 0.48979294)
(0 0.043479859 0.57530808)
(0 0.037352775 0.56082286)
(0 0.030958011 0.54034941)
(0 0.026724781 0.53000262)
(0 0.023329639 0.52388368)
(0 0.020303379 0.51938464)
(0 0.017659792 0.5159513)
(0 0.015334403 0.51331473)
(0 0.013276758 0.51127299)
(0 0.011445321 0.50968019)
(0 0.0098017507 0.50843165)
(0 0.0083136478 0.50745168)
(0 0.0069530228 0.50668488)
(0 0.005695453 0.5060905)
(0 0.0045195121 0.50563867)
(0 0.0034061429 0.50530776)
(0 0.0023380977 0.50508254)
(0 0.0012994294 0.50495302)
(0 0.00027503175 0.50491364)
(0 -0.00074981139 0.50496283)
(0 -0.0017898917 0.50510297)
(0 -0.0028604394 0.5053405)
(0 -0.00397763 0.50568642)
(0 -0.0051590423 0.50615714)
(0 -0.0064241766 0.50677585)
(0 -0.0077950409 0.50757442)
(0 -0.0092967107 0.50859629)
(0 -0.010958023 0.50990065)
(0 -0.01281311 0.51156893)
(0 -0.014899799 0.51371393)
(0 -0.017260955 0.51649165)
(0 -0.019961351 0.52011378)
(0 -0.023009545 0.52495952)
(0 -0.02664331 0.53273669)
(0 -0.031866983 0.54836719)
(0 -0.037653283 0.56262473)
(0 -0.035197466 0.49425473)
(0 -0.0061488028 0.21383765)
(0 0.0015276396 0.17652893)
(0 0.031366343 0.4711803)
(0 0.040287584 0.57350321)
(0 0.036299396 0.56657096)
(0 0.030396403 0.54535502)
(0 0.026441773 0.53368922)
(0 0.023320058 0.52700692)
(0 0.020496866 0.52215068)
(0 0.01798172 0.51840265)
(0 0.015730515 0.51549276)
(0 0.013708667 0.51321866)
(0 0.011884522 0.51142968)
(0 0.010227583 0.51001675)
(0 0.008711403 0.50890033)
(0 0.0073122715 0.50802166)
(0 0.0060089032 0.50733717)
(0 0.004782163 0.50681467)
(0 0.003614658 0.50643068)
(0 0.0024903631 0.5061686)
(0 0.0013942565 0.50601748)
(0 0.00031197302 0.5059712)
(0 -0.0007705416 0.50602804)
(0 -0.0018674127 0.50619062)
(0 -0.0029931007 0.506466)
(0 -0.0041628132 0.50686623)
(0 -0.0053928408 0.50740923)
(0 -0.0067009275 0.5081201)
(0 -0.0081066803 0.50903317)
(0 -0.0096319116 0.51019486)
(0 -0.011300895 0.51166785)
(0 -0.013141647 0.51353764)
(0 -0.015184586 0.51592186)
(0 -0.017460607 0.51897942)
(0 -0.020017395 0.52292208)
(0 -0.022862711 0.52822348)
(0 -0.026270145 0.53702211)
(0 -0.031155032 0.55362269)
(0 -0.035499596 0.56245036)
(0 -0.030306754 0.47852802)
(0 -0.0035357753 0.1953326)
(0 5.2693444e-05 0.16299708)
(0 0.025721434 0.4531537)
(0 0.036874212 0.56961865)
(0 0.034877076 0.57095976)
(0 0.029584371 0.54992373)
(0 0.025897132 0.53708865)
(0 0.023038837 0.52987761)
(0 0.02043227 0.52473432)
(0 0.018067788 0.52073479)
(0 0.015916282 0.51759867)
(0 0.013956249 0.5151271)
(0 0.01216458 0.51316783)
(0 0.010517973 0.5116096)
(0 0.0089956031 0.51037066)
(0 0.0075780146 0.50939017)
(0 0.0062472122 0.50862273)
(0 0.0049865832 0.50803455)
(0 0.0037806737 0.50760085)
(0 0.0026149797 0.507304)
(0 0.0014757095 0.50713235)
(0 0.00034954664 0.50707935)
(0 -0.00077659288 0.50714318)
(0 -0.0019158583 0.50732663)
(0 -0.0030816305 0.50763724)
(0 -0.0042878409 0.50808786)
(0 -0.005549191 0.50869747)
(0 -0.0068813882 0.50949258)
(0 -0.0083013956 0.5105092)
(0 -0.00982762 0.5117957)
(0 -0.011479839 0.51341697)
(0 -0.013280161 0.51546084)
(0 -0.015252195 0.51804728)
(0 -0.017416907 0.52133497)
(0 -0.019807528 0.52553903)
(0 -0.022437682 0.53125757)
(0 -0.02561556 0.54099126)
(0 -0.030075442 0.55788726)
(0 -0.032953252 0.56041891)
(0 -0.025718311 0.46291508)
(0 -0.0017061761 0.18034384)
(0 -0.00074221418 0.15246307)
(0 0.020941555 0.43614659)
(0 0.033489617 0.56420619)
(0 0.03322841 0.57406413)
(0 0.02862183 0.5540348)
(0 0.025189564 0.54022423)
(0 0.022568935 0.5325056)
(0 0.020175978 0.52712716)
(0 0.017970498 0.52293123)
(0 0.015932341 0.51961245)
(0 0.014050495 0.51697708)
(0 0.01230891 0.51487357)
(0 0.010690441 0.51319)
(0 0.009179224 0.51184365)
(0 0.0077597502 0.51077269)
(0 0.0064172167 0.50993066)
(0 0.0051375583 0.50928285)
(0 0.0039073706 0.50880362)
(0 0.0027138297 0.5084747)
(0 0.0015445641 0.50828393)
(0 0.00038750973 0.5082245)
(0 -0.00076923508 0.50829449)
(0 -0.0019376305 0.50849682)
(0 -0.0031297733 0.50883937)
(0 -0.0043581278 0.50933551)
(0 -0.0056356449 0.51000495)
(0 -0.006975887 0.51087507)
(0 -0.0083931414 0.5119829)
(0 -0.0099025064 0.51337792)
(0 -0.011519615 0.51512617)
(0 -0.013261259 0.51731649)
(0 -0.015145028 0.52006932)
(0 -0.017183802 0.52354126)
(0 -0.019399977 0.52795822)
(0 -0.021818936 0.53406657)
(0 -0.024769584 0.54461265)
(0 -0.02874291 0.56115405)
(0 -0.030245262 0.55692949)
(0 -0.021584933 0.44785671)
(0 -0.00050186247 0.16828499)
(0 -0.0010939855 0.14423045)
(0 0.017017215 0.42037502)
(0 0.030288887 0.55772801)
(0 0.031470768 0.57600748)
(0 0.02758209 0.55768073)
(0 0.024391708 0.54312088)
(0 0.021976072 0.53491288)
(0 0.019783025 0.52933455)
(0 0.017735094 0.52498746)
(0 0.015815249 0.5215242)
(0 0.014020505 0.51875562)
(0 0.012340368 0.51653239)
(0 0.010762712 0.51474289)
(0 0.0092758422 0.51330433)
(0 0.0078677377 0.51215461)
(0 0.006526523 0.5112469)
(0 0.0052405591 0.51054603)
(0 0.0039984715 0.51002595)
(0 0.0027891623 0.50966801)
(0 0.0016017674 0.50945977)
(0 0.00042558774 0.50939424)
(0 -0.00074997341 0.50946945)
(0 -0.0019355631 0.50968839)
(0 -0.0031418822 0.51005916)
(0 -0.0043798406 0.51059543)
(0 -0.0056605932 0.51131731)
(0 -0.0069955802 0.51225264)
(0 -0.0083965331 0.51343891)
(0 -0.0098754923 0.51492604)
(0 -0.011444436 0.51678043)
(0 -0.013115605 0.51909105)
(0 -0.014901475 0.52197747)
(0 -0.01680854 0.52559354)
(0 -0.018852317 0.53018554)
(0 -0.021074462 0.53666076)
(0 -0.023804543 0.54786592)
(0 -0.027258547 0.56346961)
(0 -0.027545512 0.55234771)
(0 -0.017980074 0.43362041)
(0 0.00023525063 0.1586111)
(0 -0.0011760626 0.1377488)
(0 0.013870737 0.40592146)
(0 0.02735156 0.55056153)
(0 0.02969159 0.57693965)
(0 0.026516781 0.5608683)
(0 0.023555618 0.54580157)
(0 0.02131134 0.5371255)
(0 0.019297967 0.53136898)
(0 0.017399361 0.52690617)
(0 0.015596634 0.52333078)
(0 0.013892336 0.52045577)
(0 0.012280097 0.51813491)
(0 0.010751689 0.51625751)
(0 0.0092987838 0.51474123)
(0 0.0079123134 0.51352421)
(0 0.0065829757 0.51255971)
(0 0.0053013438 0.5118125)
(0 0.0040579614 0.51125642)
(0 0.0028434159 0.51087266)
(0 0.001648356 0.51064868)
(0 0.00046348231 0.51057741)
(0 -0.00072044969 0.51065684)
(0 -0.0019127258 0.51089001)
(0 -0.0031226182 0.5112851)
(0 -0.0043594778 0.51185589)
(0 -0.0056327063 0.51262265)
(0 -0.0069517368 0.51361334)
(0 -0.008325963 0.51486552)
(0 -0.0097647116 0.51642904)
(0 -0.011276856 0.51837009)
(0 -0.01287091 0.52077717)
(0 -0.014555232 0.52376812)
(0 -0.016331585 0.52749451)
(0 -0.018212376 0.53223341)
(0 -0.020257844 0.53905273)
(0 -0.022776757 0.55074449)
(0 -0.025704134 0.56491923)
(0 -0.024964493 0.5469953)
(0 -0.014914777 0.42035724)
(0 0.00064294699 0.15086072)
(0 -0.0011067229 0.13257946)
(0 0.011391425 0.39277965)
(0 0.024704973 0.54300375)
(0 0.02794905 0.57701748)
(0 0.025458494 0.56361766)
(0 0.022715688 0.54828817)
(0 0.020612432 0.53917091)
(0 0.018755583 0.53324712)
(0 0.01699396 0.52869466)
(0 0.015303065 0.52503366)
(0 0.013688571 0.522075)
(0 0.012146943 0.51967578)
(0 0.010672849 0.51772661)
(0 0.0092605551 0.51614591)
(0 0.0079033964 0.51487235)
(0 0.0065942517 0.51385958)
(0 0.0053256414 0.51307256)
(0 0.004089858 0.51248524)
(0 0.0028790713 0.51207887)
(0 0.0016853874 0.5118409)
(0 0.00050087941 0.51176423)
(0 -0.00068235743 0.51184687)
(0 -0.0018722604 0.51209185)
(0 -0.0030767026 0.51250733)
(0 -0.0043035337 0.5131071)
(0 -0.0055605072 0.51391136)
(0 -0.0068552251 0.51494795)
(0 -0.0081950177 0.51625419)
(0 -0.0095868915 0.51787956)
(0 -0.011037179 0.51988969)
(0 -0.012551481 0.52237218)
(0 -0.01413502 0.52544268)
(0 -0.01578642 0.52925222)
(0 -0.01751811 0.53411848)
(0 -0.019408751 0.5412575)
(0 -0.021726918 0.55325606)
(0 -0.024139995 0.5656102)
(0 -0.02256411 0.54114216)
(0 -0.012358949 0.40813248)
(0 0.0008301064 0.14464118)
(0 -0.00096237904 0.1283779)
(0 0.0094605733 0.38088624)
(0 0.022345192 0.53527866)
(0 0.026277687 0.57638886)
(0 0.024425128 0.56595668)
(0 0.021892164 0.55060034)
(0 0.019905151 0.54107559)
(0 0.018181631 0.53498768)
(0 0.016542805 0.5303632)
(0 0.014956119 0.52663747)
(0 0.013428163 0.52361392)
(0 0.011957187 0.52115267)
(0 0.010539905 0.51914577)
(0 0.0091724904 0.51751247)
(0 0.0078501564 0.51619215)
(0 0.006567571 0.51513897)
(0 0.0053189179 0.51431827)
(0 0.0040980363 0.51370426)
(0 0.0028985374 0.51327833)
(0 0.0017138864 0.51302803)
(0 0.00053745736 0.51294631)
(0 -0.00063737231 0.51303115)
(0 -0.0018172499 0.51328558)
(0 -0.0030087241 0.51371768)
(0 -0.0042182443 0.51434113)
(0 -0.0054520625 0.51517591)
(0 -0.0067161587 0.5162496)
(0 -0.008016098 0.51759908)
(0 -0.009356971 0.51927326)
(0 -0.01074311 0.52133702)
(0 -0.01217793 0.52387688)
(0 -0.013664416 0.52700626)
(0 -0.015199489 0.53087826)
(0 -0.016797914 0.53585948)
(0 -0.01855443 0.54329095)
(0 -0.020682236 0.5554182)
(0 -0.022607392 0.56565545)
(0 -0.020371675 0.53500402)
(0 -0.010259728 0.39694946)
(0 0.00087696491 0.13962087)
(0 -0.00079048822 0.12488412)
(0 0.0079656791 0.37014737)
(0 0.020251489 0.52754965)
(0 0.024694726 0.57518468)
(0 0.02342461 0.56791576)
(0 0.021095193 0.55275406)
(0 0.019205756 0.54286286)
(0 0.017594173 0.5366094)
(0 0.01606378 0.53192343)
(0 0.014572691 0.52814868)
(0 0.013126515 0.52507525)
(0 0.011724473 0.52256544)
(0 0.010364657 0.5205127)
(0 0.0090445604 0.51883706)
(0 0.007760814 0.51747861)
(0 0.0065095102 0.51639209)
(0 0.0052862161 0.5155433)
(0 0.0040861054 0.51490677)
(0 0.0029040692 0.51446412)
(0 0.0017348092 0.51420304)
(0 0.00057289262 0.51411656)
(0 -0.00058710098 0.51420267)
(0 -0.0017506191 0.51446432)
(0 -0.002922999 0.51490951)
(0 -0.0041094106 0.51555169)
(0 -0.0053147742 0.51641061)
(0 -0.0065436694 0.51751342)
(0 -0.0078001911 0.51889651)
(0 -0.0090878959 0.5206081)
(0 -0.0104096 0.52271232)
(0 -0.011767149 0.52529452)
(0 -0.013162043 0.52846624)
(0 -0.014590758 0.53238586)
(0 -0.016071878 0.5374748)
(0 -0.017712256 0.5451678)
(0 -0.019659482 0.55725357)
(0 -0.021132169 0.5651629)
(0 -0.018391605 0.52874734)
(0 -0.0085541121 0.38677187)
(0 0.00084007236 0.13552926)
(0 -0.00061899855 0.12190892)
(0 0.006807749 0.36045751)
(0 0.018395405 0.51993308)
(0 0.023205353 0.57351726)
(0 0.022458501 0.56952521)
(0 0.020328215 0.55476119)
(0 0.018523427 0.54455169)
(0 0.017005196 0.53812939)
(0 0.01556975 0.53338695)
(0 0.01416558 0.52957453)
(0 0.012795778 0.52646293)
(0 0.011459931 0.52391541)
(0 0.010156992 0.52182666)
(0 0.0088853103 0.52011738)
(0 0.0076425484 0.51872827)
(0 0.0064259015 0.51761462)
(0 0.0052320625 0.51674271)
(0 0.0040573324 0.51608741)
(0 0.002897715 0.51563062)
(0 0.001749012 0.51536017)
(0 0.00060687595 0.51526918)
(0 -0.00053303507 0.51535566)
(0 -0.001675077 0.51562249)
(0 -0.0028234812 0.51607751)
(0 -0.0039822883 0.51673398)
(0 -0.0051552602 0.51761128)
(0 -0.006345792 0.51873616)
(0 -0.0075567813 0.52014445)
(0 -0.0087905904 0.52188374)
(0 -0.010048928 0.5240174)
(0 -0.011332571 0.52662973)
(0 -0.012642135 0.52983098)
(0 -0.013974702 0.53378824)
(0 -0.01535342 0.53898082)
(0 -0.016892251 0.54690061)
(0 -0.01866767 0.55878691)
(0 -0.019728149 0.56423038)
(0 -0.016614044 0.52249748)
(0 -0.0071772561 0.37754134)
(0 0.00075798177 0.13215294)
(0 -0.00046281109 0.11931813)
(0 0.0059043958 0.35171089)
(0 0.016746371 0.51251004)
(0 0.021806981 0.57148152)
(0 0.021524522 0.57081418)
(0 0.019590385 0.55663013)
(0 0.017862286 0.54615654)
(0 0.016422103 0.53956242)
(0 0.015069609 0.53476456)
(0 0.013744197 0.5309222)
(0 0.012445298 0.52778134)
(0 0.011172428 0.52520473)
(0 0.0099250106 0.52308798)
(0 0.0087019037 0.52135229)
(0 0.0075014906 0.51993885)
(0 0.0063218011 0.51880344)
(0 0.0051604268 0.51791274)
(0 0.0040146054 0.51724198)
(0 0.0028812932 0.51677332)
(0 0.001757252 0.51649474)
(0 0.00063910131 0.51639946)
(0 -0.00047654422 0.51648551)
(0 -0.0015930658 0.51675566)
(0 -0.0027137099 0.51721761)
(0 -0.0038415341 0.51788438)
(0 -0.0049793088 0.51877502)
(0 -0.0061294437 0.51991583)
(0 -0.0072938799 0.52134214)
(0 -0.0084740714 0.52310096)
(0 -0.00967095 0.52525501)
(0 -0.01088461 0.52788772)
(0 -0.012115246 0.53110885)
(0 -0.013361361 0.53509761)
(0 -0.014650786 0.5403913)
(0 -0.016099123 0.54849964)
(0 -0.017710237 0.56004325)
(0 -0.018400267 0.56294383)
(0 -0.015021198 0.51634686)
(0 -0.0060678741 0.3691892)
(0 0.00065607254 0.12932735)
(0 -0.00032842436 0.11701858)
(0 0.0051900332 0.34380768)
(0 0.015275006 0.50533558)
(0 0.020492607 0.56915707)
(0 0.020618358 0.57181002)
(0 0.018878292 0.55836646)
(0 0.017222991 0.5476878)
(0 0.015848935 0.54092066)
(0 0.014569202 0.53606577)
(0 0.013315247 0.53219834)
(0 0.012082098 0.52903492)
(0 0.010868886 0.52643593)
(0 0.0096752276 0.52429761)
(0 0.0085002354 0.52254147)
(0 0.0073427809 0.52110901)
(0 0.0062015106 0.51995638)
(0 0.0050747239 0.51905063)
(0 0.0039604275 0.51836728)
(0 0.0028563828 0.51788872)
(0 0.0017601787 0.51760311)
(0 0.00066927991 0.51750373)
(0 -0.00041885566 0.51758859)
(0 -0.0015067518 0.51786042)
(0 -0.0025967967 0.51832674)
(0 -0.0036911998 0.51900032)
(0 -0.0047918924 0.51989991)
(0 -0.005900475 0.52105141)
(0 -0.0070181345 0.52248968)
(0 -0.008145647 0.52426125)
(0 -0.0092834208 0.52642836)
(0 -0.010431153 0.52907376)
(0 -0.011588949 0.53230775)
(0 -0.012757309 0.53632463)
(0 -0.013968364 0.54171714)
(0 -0.015333915 0.5499729)
(0 -0.016786888 0.56104676)
(0 -0.017147439 0.56137699)
(0 -0.013591851 0.51036205)
(0 -0.0051713696 0.36164385)
(0 0.00055036152 0.12692786)
(0 -0.00021728031 0.11494694)
(0 0.0046142475 0.33665733)
(0 0.013954756 0.49844592)
(0 0.019253237 0.56661048)
(0 0.019734938 0.57253809)
(0 0.018187222 0.5599736)
(0 0.016603983 0.54915225)
(0 0.015287375 0.54221369)
(0 0.014072104 0.53729864)
(0 0.012883335 0.53340887)
(0 0.011711335 0.53022779)
(0 0.010554617 0.52761164)
(0 0.0094127982 0.52545689)
(0 0.0082850844 0.52368514)
(0 0.0071706645 0.52223806)
(0 0.0060686343 0.52107204)
(0 0.0049778458 0.52015442)
(0 0.0038969329 0.51946095)
(0 0.0028243317 0.51897421)
(0 0.0017583381 0.5186825)
(0 0.00069714644 0.51857915)
(0 -0.00036104951 0.51866219)
(0 -0.0014180276 0.51893424)
(0 -0.0024754361 0.5194027)
(0 -0.0035347579 0.52008008)
(0 -0.0045972207 0.52098485)
(0 -0.0056637641 0.52214258)
(0 -0.0067349833 0.52358773)
(0 -0.0078111528 0.52536649)
(0 -0.0088923387 0.52754074)
(0 -0.0099780393 0.53019286)
(0 -0.011068494 0.53343471)
(0 -0.012166528 0.53747824)
(0 -0.013307831 0.54296648)
(0 -0.01459537 0.55132637)
(0 -0.015895152 0.56181989)
(0 -0.015965008 0.55959215)
(0 -0.012304298 0.50458966)
(0 -0.0044411257 0.35483538)
(0 0.00045034901 0.12486181)
(0 -0.00012803516 0.11306092)
(0 0.0041393412 0.33017997)
(0 0.012762468 0.49186403)
(0 0.018079446 0.56389761)
(0 0.018869243 0.57302172)
(0 0.017512044 0.56145333)
(0 0.016002465 0.55055368)
(0 0.014737549 0.54344867)
(0 0.01358028 0.53846976)
(0 0.01245151 0.53455883)
(0 0.011336718 0.53136364)
(0 0.010233636 0.5287344)
(0 0.0091417543 0.52656729)
(0 0.0080602816 0.52478387)
(0 0.0069886087 0.52332582)
(0 0.0059261575 0.52214963)
(0 0.0048722127 0.52122281)
(0 0.0038259193 0.52052131)
(0 0.0027862772 0.52002786)
(0 0.0017521833 0.51973085)
(0 0.00072245926 0.51962367)
(0 -0.00030406585 0.51970432)
(0 -0.0013285254 0.51997534)
(0 -0.0023519324 0.52044399)
(0 -0.0033751506 0.5211226)
(0 -0.0043988187 0.52202935)
(0 -0.0054233356 0.52318953)
(0 -0.0064488298 0.52463735)
(0 -0.0074752009 0.52641871)
(0 -0.0085022897 0.52859533)
(0 -0.0095295223 0.5312495)
(0 -0.010557403 0.53449575)
(0 -0.011591196 0.53856551)
(0 -0.012669139 0.54414489)
(0 -0.013881014 0.5525642)
(0 -0.015031574 0.56238311)
(0 -0.01484658 0.55764142)
(0 -0.011138123 0.49906141)
(0 -0.0038386776 0.34869831)
(0 0.00036111137 0.12306169)
(0 -5.8016655e-05 0.11133269)
(0 0.0037377262 0.32430655)
(0 0.011678371 0.48560374)
(0 0.016962286 0.56106565)
(0 0.018016759 0.57328245)
(0 0.016847792 0.56280637)
(0 0.015415096 0.55189342)
(0 0.01419866 0.54463054)
(0 0.013094621 0.53958427)
(0 0.012021714 0.53565233)
(0 0.01096088 0.53244564)
(0 0.0099089543 0.52980648)
(0 0.0088652307 0.52763031)
(0 0.0078288802 0.52583846)
(0 0.0067994271 0.52437244)
(0 0.0057765354 0.52318877)
(0 0.0047598344 0.52225504)
(0 0.0037488884 0.5215473)
(0 0.0027431704 0.52104839)
(0 0.0017420884 0.52074677)
(0 0.00074500112 0.52063586)
(0 -0.00024871499 0.52071363)
(0 -0.0012396387 0.52098256)
(0 -0.0022282383 0.52144974)
(0 -0.0032148498 0.52212735)
(0 -0.004199617 0.52303337)
(0 -0.0051824906 0.52419285)
(0 -0.0061632237 0.52563978)
(0 -0.007141424 0.52741996)
(0 -0.0081167715 0.52959506)
(0 -0.0090886878 0.53224759)
(0 -0.010058005 0.53549581)
(0 -0.011032336 0.53959176)
(0 -0.012051304 0.54525573)
(0 -0.013187983 0.55368909)
(0 -0.014192592 0.56275481)
(0 -0.013785343 0.55556819)
(0 -0.010075177 0.49379803)
(0 -0.0033332416 0.34317302)
(0 0.00028477061 0.12147919)
(0 -4.1271112e-06 0.10974408)
(0 0.0033895203 0.31897829)
(0 0.010685797 0.47967276)
(0 0.015893753 0.55815479)
(0 0.01717371 0.57334024)
(0 0.016190025 0.5640328)
(0 0.014838497 0.55317089)
(0 0.013669457 0.54576231)
(0 0.012615377 0.54064597)
(0 0.011595166 0.53669263)
(0 0.010585699 0.53347639)
(0 0.0095828459 0.53082991)
(0 0.0085856731 0.5286474)
(0 0.0075933169 0.52684979)
(0 0.0066054021 0.52537835)
(0 0.0056217837 0.52418948)
(0 0.0046423744 0.52325076)
(0 0.0036670899 0.52253832)
(0 0.0026958035 0.52203503)
(0 0.00172836 0.5217294)
(0 0.00076457955 0.52161486)
(0 -0.00019569005 0.52168933)
(0 -0.00115255 0.52195523)
(0 -0.0021060003 0.52241955)
(0 -0.003055925 0.52309428)
(0 -0.0040020466 0.52399724)
(0 -0.0049439368 0.52515333)
(0 -0.0058810345 0.5265964)
(0 -0.0068127032 0.52837222)
(0 -0.0077384847 0.53054255)
(0 -0.0086578171 0.53319044)
(0 -0.0095718669 0.53643884)
(0 -0.010490348 0.54056074)
(0 -0.011453018 0.54630056)
(0 -0.012513614 0.55470266)
(0 -0.013375151 0.56295154)
(0 -0.01277498 0.55340856)
(0 -0.0091000327 0.48881209)
(0 -0.0029008854 0.33820618)
(0 0.00022149953 0.12008025)
(0 3.6615829e-05 0.10828326)
(0 0.0030805032 0.31414564)
(0 0.0097707977 0.47407462)
(0 0.014867002 0.55519946)
(0 0.016337172 0.57321369)
(0 0.015535058 0.56513244)
(0 0.01426959 0.55438409)
(0 0.013148587 0.54684539)
(0 0.012142488 0.54165752)
(0 0.011172661 0.53768221)
(0 0.010212561 0.53445797)
(0 0.0092570681 0.53180639)
(0 0.0083050234 0.52961986)
(0 0.0073555607 0.52781881)
(0 0.006408401 0.52634412)
(0 0.0054635665 0.525152)
(0 0.0045212159 0.52420998)
(0 0.0035815668 0.52349415)
(0 0.0026448385 0.52298742)
(0 0.0017112523 0.52267831)
(0 0.00078102758 0.52256023)
(0 -0.00014558028 0.52263107)
(0 -0.0010682595 0.52289316)
(0 -0.0019866049 0.52335339)
(0 -0.0029001095 0.52402364)
(0 -0.0038081307 0.52492157)
(0 -0.0047099103 0.52607196)
(0 -0.0056046094 0.52750862)
(0 -0.0064913683 0.52927736)
(0 -0.0073695808 0.53144011)
(0 -0.0082386876 0.53408079)
(0 -0.009100154 0.53732787)
(0 -0.0099654194 0.54147489)
(0 -0.01087311 0.54727958)
(0 -0.011855882 0.55560589)
(0 -0.012577143 0.56298825)
(0 -0.011810277 0.55119253)
(0 -0.0082001021 0.4841102)
(0 -0.0025235502 0.33375062)
(0 0.00017021177 0.11884103)
(0 6.6783105e-05 0.10694257)
(0 0.0028004871 0.30976718)
(0 0.008921769 0.46881004)
(0 0.013876424 0.5522293)
(0 0.015505141 0.57292017)
(0 0.014880124 0.56610504)
(0 0.013705848 0.55553004)
(0 0.012634866 0.54787987)
(0 0.01167585 0.54262056)
(0 0.01075482 0.53862286)
(0 0.0098425841 0.53539203)
(0 0.0089330568 0.53273736)
(0 0.0080248834 0.53054892)
(0 0.0071172476 0.52874647)
(0 0.0062099846 0.52727046)
(0 0.005303282 0.52607682)
(0 0.0043975251 0.52513296)
(0 0.0034932024 0.52441492)
(0 0.0025908381 0.52390558)
(0 0.001690984 0.52359346)
(0 0.00079420735 0.52347194)
(0 -9.8880598e-05 0.52353887)
(0 -0.00098760861 0.52379649)
(0 -0.0018712178 0.52425161)
(0 -0.0027488581 0.52491599)
(0 -0.0036195641 0.52580719)
(0 -0.0044822798 0.5269499)
(0 -0.005335907 0.52837791)
(0 -0.0061793627 0.53013715)
(0 -0.0070118621 0.53228981)
(0 -0.0078328088 0.53492094)
(0 -0.0086438982 0.53816523)
(0 -0.0094578311 0.54233565)
(0 -0.010310872 0.5481921)
(0 -0.011213696 0.55639945)
(0 -0.011797693 0.56287855)
(0 -0.010887523 0.54894502)
(0 -0.0073655608 0.47969435)
(0 -0.0021881767 0.32976476)
(0 0.00012911424 0.11774496)
(0 8.8407389e-05 0.10571706)
(0 0.0025420971 0.3058084)
(0 0.0081291462 0.46387774)
(0 0.01291768 0.54926978)
(0 0.014676607 0.57247586)
(0 0.014223498 0.56695053)
(0 0.013145493 0.55660509)
(0 0.012127492 0.54886482)
(0 0.011215525 0.54353592)
(0 0.010342288 0.53951583)
(0 0.0094768014 0.53627983)