/*--------------------------------*- C++ -*----------------------------------*\
  =========                 |
  \\      /  F ield         | OpenFOAM: The Open Source CFD Toolbox
   \\    /   O peration     | Website:  https://openfoam.org
    \\  /    A nd           | Version:  10
     \\/     M anipulation  |
\*---------------------------------------------------------------------------*/
FoamFile
{
    format      ascii;
    class       volVectorField;
    location    "0.1";
    object      U_0;
}
// * * * * * * * * * * * * * * * * * * * * * * * * * * * * * * * * * * * * * //

dimensions      [0 1 -1 0 0 0 0];

internalField   nonuniform List<vector> 
4000
(
(0 0.018633816 0.47773339)
(0 0.023503167 0.50885961)
(0 0.0081605518 0.50052546)
(0 0.0056083173 0.50033653)
(0 0.0042478727 0.50025751)
(0 0.0032480284 0.50016898)
(0 0.0025492327 0.50011966)
(0 0.0020479207 0.50009008)
(0 0.0016702354 0.50006973)
(0 0.0013763223 0.50005529)
(0 0.0011417964 0.50004487)
(0 0.0009503083 0.50003719)
(0 0.00079059403 0.50003145)
(0 0.0006546688 0.5000271)
(0 0.00053669557 0.50002381)
(0 0.00043228525 0.50002132)
(0 0.00033804228 0.50001947)
(0 0.00025125676 0.50001813)
(0 0.00016968796 0.50001724)
(0 9.140598e-05 0.50001673)
(0 1.4669703e-05 0.50001658)
(0 -6.2181452e-05 0.50001678)
(0 -0.00014081847 0.50001734)
(0 -0.00022301439 0.5000183)
(0 -0.00031075631 0.50001971)
(0 -0.00040637546 0.50002167)
(0 -0.00051271922 0.50002429)
(0 -0.0006333906 0.50002777)
(0 -0.00077309649 0.50003237)
(0 -0.00093817755 0.50003851)
(0 -0.00113746 0.50004678)
(0 -0.0013836216 0.50005817)
(0 -0.0016954328 0.5000741)
(0 -0.0021032678 0.50009709)
(0 -0.0026630783 0.50013486)
(0 -0.0034571007 0.5002025)
(0 -0.00455025 0.50027176)
(0 -0.0065748837 0.50043408)
(0 -0.017649111 0.50675262)
(0 -0.013584826 0.47975856)
(0 0.037422648 0.44798164)
(0 0.05093509 0.53232493)
(0 0.021948533 0.50804328)
(0 0.016115657 0.50357451)
(0 0.012394666 0.50242363)
(0 0.0094941956 0.50162303)
(0 0.0074990982 0.50115635)
(0 0.0060489966 0.50086539)
(0 0.0049446778 0.50066723)
(0 0.0040815694 0.50052802)
(0 0.003390682 0.50042786)
(0 0.0028250359 0.50035419)
(0 0.0023522275 0.50029915)
(0 0.0019491452 0.50025762)
(0 0.0015988019 0.50022616)
(0 0.0012883768 0.50020241)
(0 0.0010079199 0.50018473)
(0 0.00074946905 0.50017199)
(0 0.00050642583 0.50016344)
(0 0.00027309636 0.50015858)
(0 4.433634e-05 0.50015714)
(0 -0.00018475903 0.50015904)
(0 -0.00041912519 0.50016442)
(0 -0.00066399892 0.50017356)
(0 -0.00092523951 0.50018704)
(0 -0.0012097069 0.50020568)
(0 -0.0015257583 0.50023072)
(0 -0.0018839365 0.50026397)
(0 -0.0022979623 0.50030805)
(0 -0.0027862205 0.50036686)
(0 -0.003374137 0.50044634)
(0 -0.0040981464 0.50055597)
(0 -0.0050114017 0.50071086)
(0 -0.0061938536 0.5009366)
(0 -0.0077944498 0.50129484)
(0 -0.010089267 0.50191166)
(0 -0.013073226 0.5028276)
(0 -0.017393115 0.50608268)
(0 -0.038727126 0.52526626)
(0 -0.027879347 0.45023689)
(0 0.039873114 0.40985406)
(0 0.061392707 0.54931247)
(0 0.031945069 0.52188141)
(0 0.024319854 0.51008323)
(0 0.019155817 0.50658983)
(0 0.01493895 0.50452813)
(0 0.011969028 0.50327058)
(0 0.0097353648 0.50245677)
(0 0.0080017317 0.50189876)
(0 0.0066324061 0.50150577)
(0 0.0055271028 0.501222)
(0 0.0046162352 0.50101275)
(0 0.003851015 0.50085617)
(0 0.0031959988 0.50073788)
(0 0.0026248069 0.50064817)
(0 0.0021173425 0.50058037)
(0 0.0016578864 0.50052988)
(0 0.0012337773 0.50049349)
(0 0.0008344673 0.50046903)
(0 0.00045081617 0.50045512)
(0 7.454189e-05 0.500451)
(0 -0.00030225928 0.50045645)
(0 -0.00068754021 0.5004718)
(0 -0.0010897253 0.50049794)
(0 -0.0015182086 0.50053642)
(0 -0.0019839366 0.50058963)
(0 -0.0025001639 0.50066107)
(0 -0.0030834849 0.50075582)
(0 -0.0037552974 0.50088128)
(0 -0.0045439171 0.5010484)
(0 -0.0054877841 0.50127371)
(0 -0.0066409752 0.50158336)
(0 -0.0080808124 0.50201951)
(0 -0.0099115409 0.5026506)
(0 -0.012306033 0.50361632)
(0 -0.01565263 0.50520232)
(0 -0.019813526 0.50785966)
(0 -0.025125687 0.51641398)
(0 -0.047361622 0.53913337)
(0 -0.030829262 0.41493518)
(0 0.034772814 0.36179577)
(0 0.06378791 0.55458268)
(0 0.039319703 0.53746941)
(0 0.030028938 0.51849577)
(0 0.024056139 0.51197958)
(0 0.019222751 0.50849944)
(0 0.015680198 0.50626243)
(0 0.012899967 0.50475202)
(0 0.010692121 0.50369958)
(0 0.0089198439 0.50295002)
(0 0.007470021 0.50240385)
(0 0.0062629156 0.50199857)
(0 0.0052406511 0.50169389)
(0 0.0043599028 0.50146288)
(0 0.0035877896 0.5012872)
(0 0.002898866 0.50115415)
(0 0.0022729657 0.50105488)
(0 0.0016936696 0.50098325)
(0 0.0011471797 0.50093506)
(0 0.00062145802 0.50090762)
(0 0.00010554625 0.50089946)
(0 -0.00041103537 0.50091019)
(0 -0.00093883012 0.50094042)
(0 -0.0014889721 0.50099188)
(0 -0.0020738089 0.50106756)
(0 -0.0027076196 0.50117205)
(0 -0.0034075224 0.50131208)
(0 -0.0041946815 0.50149735)
(0 -0.0050959721 0.50174186)
(0 -0.0061462799 0.50206611)
(0 -0.0073915933 0.50250062)
(0 -0.0088942754 0.5030924)
(0 -0.010741854 0.50391623)
(0 -0.013041125 0.50508857)
(0 -0.015927814 0.50680899)
(0 -0.019804913 0.5094733)
(0 -0.024641902 0.51428338)
(0 -0.031018197 0.52824808)
(0 -0.05023793 0.54409963)
(0 -0.028406047 0.37248889)
(0 0.027403333 0.31495023)
(0 0.06224824 0.5502874)
(0 0.044528063 0.55146568)
(0 0.033904617 0.52748986)
(0 0.027386142 0.51772549)
(0 0.022377075 0.51291955)
(0 0.018560038 0.50972802)
(0 0.015453934 0.50748652)
(0 0.012935768 0.50589144)
(0 0.010876535 0.50473627)
(0 0.0091647568 0.50388359)
(0 0.00772149 0.50324492)
(0 0.0064866537 0.50276134)
(0 0.0054137347 0.50239264)
(0 0.0044666001 0.50211099)
(0 0.0036167033 0.50189694)
(0 0.0028410215 0.50173681)
(0 0.0021205392 0.50162101)
(0 0.0014390872 0.50154298)
(0 0.00078243006 0.50149849)
(0 0.00013752819 0.50148523)
(0 -0.00050812476 0.50150256)
(0 -0.0011671084 0.50155146)
(0 -0.0018526519 0.50163464)
(0 -0.0025793219 0.5017568)
(0 -0.0033637927 0.50192509)
(0 -0.0042257938 0.50214996)
(0 -0.0051893226 0.50244629)
(0 -0.0062842533 0.50283538)
(0 -0.0075484982 0.50334791)
(0 -0.0090304759 0.50402855)
(0 -0.010792789 0.50494391)
(0 -0.012922455 0.50619686)
(0 -0.015523587 0.50794245)
(0 -0.018684173 0.51040729)
(0 -0.022766077 0.51406341)
(0 -0.028051021 0.52115458)
(0 -0.035570694 0.5393276)
(0 -0.050366813 0.54162292)
(0 -0.024047597 0.33073673)
(0 0.019815899 0.27535334)
(0 0.05790825 0.5398353)
(0 0.047248487 0.56256695)
(0 0.036372388 0.53660231)
(0 0.029533348 0.52350995)
(0 0.02457379 0.51740233)
(0 0.020673853 0.51335728)
(0 0.017412952 0.51043472)
(0 0.014722467 0.50831081)
(0 0.012481228 0.50674518)
(0 0.010587609 0.50557326)
(0 0.0089695039 0.50468589)
(0 0.0075691773 0.50400814)
(0 0.0063406599 0.50348775)
(0 0.0052473882 0.50308801)
(0 0.0042597932 0.50278287)
(0 0.0033535498 0.50255379)
(0 0.002508228 0.50238766)
(0 0.0017062122 0.50227549)
(0 0.00093182388 0.50221142)
(0 0.00017059458 0.50219225)
(0 -0.00059140045 0.50221708)
(0 -0.0013681639 0.50228729)
(0 -0.0021743507 0.50240661)
(0 -0.0030259638 0.50258151)
(0 -0.0039411055 0.5028218)
(0 -0.0049408758 0.50314165)
(0 -0.0060504775 0.50356109)
(0 -0.0073006102 0.50410835)
(0 -0.008729368 0.50482341)
(0 -0.010384205 0.50576334)
(0 -0.012323616 0.50701051)
(0 -0.014628009 0.50868817)
(0 -0.017399556 0.51097819)
(0 -0.020692521 0.51412337)
(0 -0.024803216 0.51874059)
(0 -0.030338598 0.52823599)
(0 -0.038445864 0.54872914)
(0 -0.048369887 0.53411429)
(0 -0.019023433 0.29420371)
(0 0.013060573 0.24276594)
(0 0.051702498 0.52534789)
(0 0.047562497 0.57026221)
(0 0.037618658 0.54551642)
(0 0.030718555 0.52928932)
(0 0.025943394 0.52179928)
(0 0.022110576 0.51698893)
(0 0.01883108 0.51345868)
(0 0.016077469 0.51084509)
(0 0.01374162 0.50888802)
(0 0.011736932 0.50740412)
(0 0.010000683 0.50626835)
(0 0.008480109 0.50539292)
(0 0.0071323332 0.50471569)
(0 0.0059224315 0.50419226)
(0 0.0048214672 0.5037907)
(0 0.0038051388 0.50348801)
(0 0.0028526645 0.50326782)
(0 0.0019458496 0.50311876)
(0 0.001068304 0.50303346)
(0 0.00020477745 0.50300781)
(0 -0.00065946333 0.50304068)
(0 -0.001539231 0.50313381)
(0 -0.0024499474 0.50329194)
(0 -0.0034083031 0.50352325)
(0 -0.0044329373 0.50384004)
(0 -0.0055452349 0.50425996)
(0 -0.0067702706 0.50480768)
(0 -0.0081379261 0.50551753)
(0 -0.0096844658 0.50643736)
(0 -0.011454304 0.5076344)
(0 -0.013499929 0.50920361)
(0 -0.015891048 0.51128308)
(0 -0.018723419 0.51407252)
(0 -0.022028901 0.51784125)
(0 -0.026047545 0.52347756)
(0 -0.031626536 0.535374)
(0 -0.039522148 0.55591385)
(0 -0.044725708 0.52304104)
(0 -0.014043255 0.26301169)
(0 0.007746928 0.21581424)
(0 0.044715239 0.50823427)
(0 0.046074428 0.57441654)
(0 0.037858124 0.55373516)
(0 0.031121899 0.53495633)
(0 0.02660627 0.52602533)
(0 0.022958387 0.52052507)
(0 0.019768705 0.51646702)
(0 0.017038358 0.51341358)
(0 0.014679713 0.51109641)
(0 0.012624228 0.50931974)
(0 0.010819684 0.50794626)
(0 0.0092200165 0.50687834)
(0 0.007787108 0.50604603)
(0 0.0064890698 0.5053987)
(0 0.005298808 0.5048995)
(0 0.0041930813 0.50452162)
(0 0.003151633 0.50424581)
(0 0.0021564386 0.5040586)
(0 0.0011910533 0.5039512)
(0 0.00024004076 0.50391873)
(0 -0.00071157258 0.50395982)
(0 -0.001678839 0.50407655)
(0 -0.0026773446 0.50427457)
(0 -0.0037238017 0.50456359)
(0 -0.0048366264 0.50495815)
(0 -0.0060366033 0.50547893)
(0 -0.0073476537 0.50615458)
(0 -0.0087976631 0.50702451)
(0 -0.010419647 0.50814297)
(0 -0.012253436 0.50958532)
(0 -0.014344444 0.51145671)
(0 -0.016749086 0.5139062)
(0 -0.019549571 0.51714305)
(0 -0.022762536 0.52148042)
(0 -0.026608278 0.5281879)
(0 -0.032068699 0.54220813)
(0 -0.039108121 0.56054396)
(0 -0.040130363 0.50941833)
(0 -0.009657234 0.23634001)
(0 0.0039810626 0.19389775)
(0 0.037774552 0.48980837)
(0 0.043469313 0.57531127)
(0 0.037342134 0.56082147)
(0 0.030948221 0.54034862)
(0 0.0267154 0.53000205)
(0 0.023320551 0.52388272)
(0 0.020294691 0.51938327)
(0 0.0176516 0.5159496)
(0 0.015326775 0.51331273)
(0 0.013269757 0.51127073)
(0 0.011439 0.50967771)
(0 0.0097961564 0.50842898)
(0 0.0083088186 0.50744885)
(0 0.0069489922 0.5066819)
(0 0.0056922496 0.5060874)
(0 0.0045171609 0.50563547)
(0 0.0034046658 0.50530446)
(0 0.0023375139 0.50507917)
(0 0.0012997563 0.50494958)
(0 0.00027628459 0.50491015)
(0 -0.00074761894 0.50495931)
(0 -0.0017867479 0.50509943)
(0 -0.0028563346 0.50533694)
(0 -0.0039725571 0.50568287)
(0 -0.0051529977 0.50615363)
(0 -0.006417161 0.50677239)
(0 -0.0077870608 0.50757105)
(0 -0.0092877794 0.50859305)
(0 -0.010948163 0.50989758)
(0 -0.012802354 0.51156609)
(0 -0.014888194 0.5137114)
(0 -0.017248562 0.51648949)
(0 -0.01994826 0.52011212)
(0 -0.022995883 0.52495843)
(0 -0.026629023 0.53273559)
(0 -0.031851539 0.54836511)
(0 -0.037637209 0.56262756)
(0 -0.035187051 0.4942758)
(0 -0.0061462597 0.21386505)
(0 0.0015264738 0.17654903)
(0 0.031359532 0.47120148)
(0 0.040275108 0.57350882)
(0 0.036286301 0.56656918)
(0 0.030384384 0.54535355)
(0 0.026430404 0.53368826)
(0 0.023309097 0.52700556)
(0 0.020486418 0.52214881)
(0 0.017971893 0.51840035)
(0 0.015721385 0.5154901)
(0 0.013700301 0.51321569)
(0 0.011876978 0.51142643)
(0 0.010220908 0.51001327)
(0 0.0087056392 0.50889664)
(0 0.0073074533 0.50801779)
(0 0.0060050607 0.50733315)
(0 0.0047793224 0.50681052)
(0 0.0036128425 0.50642642)
(0 0.0024895937 0.50616425)
(0 0.0013945525 0.50601305)
(0 0.0003133521 0.5059667)
(0 -0.00076806264 0.50602349)
(0 -0.0018638185 0.50618603)
(0 -0.0029883774 0.50646139)
(0 -0.0041569491 0.50686163)
(0 -0.0053858272 0.50740466)
(0 -0.0066927597 0.50811559)
(0 -0.0080973589 0.50902876)
(0 -0.0096214445 0.51019059)
(0 -0.0112893 0.51166377)
(0 -0.013128952 0.51353383)
(0 -0.015170834 0.51591841)
(0 -0.017445857 0.51897642)
(0 -0.020001741 0.52291969)
(0 -0.02284628 0.5282217)
(0 -0.026252757 0.53701997)
(0 -0.031136055 0.55361963)
(0 -0.035480408 0.56245575)
(0 -0.030294873 0.47855727)
(0 -0.0035330505 0.19536661)
(0 5.1526695e-05 0.16302109)
(0 0.025713828 0.45318176)
(0 0.03685965 0.56962763)
(0 0.034861213 0.57095775)
(0 0.029569764 0.54992133)
(0 0.025883479 0.5370871)
(0 0.023025752 0.52987571)
(0 0.020419835 0.52473182)
(0 0.018056122 0.52073176)
(0 0.015905469 0.5175952)
(0 0.013946358 0.51512326)
(0 0.01215567 0.51316366)
(0 0.010510095 0.51160515)
(0 0.0089887983 0.51036597)
(0 0.007572318 0.50938527)
(0 0.0062426541 0.50861765)
(0 0.00498319 0.50802932)
(0 0.0037784694 0.50759548)
(0 0.0026139864 0.50729852)
(0 0.0014759483 0.50712676)
(0 0.00035103784 0.50707368)
(0 -0.00077382909 0.50713744)
(0 -0.0019118023 0.50732083)
(0 -0.0030762633 0.50763141)
(0 -0.0042811448 0.50808202)
(0 -0.0055411503 0.50869165)
(0 -0.0068719907 0.50948682)
(0 -0.0082906339 0.51050353)
(0 -0.0098154937 0.51179018)
(0 -0.011466357 0.51341168)
(0 -0.013265344 0.51545585)
(0 -0.01523608 0.51804269)
(0 -0.017399546 0.52133091)
(0 -0.019789017 0.52553568)
(0 -0.022418128 0.53125479)
(0 -0.025594626 0.54098767)
(0 -0.030052489 0.55788321)
(0 -0.03293071 0.56042796)
(0 -0.025704889 0.46295423)
(0 -0.0017032631 0.18038513)
(0 -0.00074335177 0.15249131)
(0 0.020933071 0.43618277)
(0 0.03347279 0.56421959)
(0 0.033209443 0.57406214)
(0 0.02860424 0.55403122)
(0 0.02517329 0.54022185)
(0 0.022553443 0.53250301)
(0 0.020161304 0.52712386)
(0 0.01795677 0.52292731)
(0 0.015919646 0.51960802)
(0 0.014038906 0.5169722)
(0 0.012298484 0.51486831)
(0 0.010681229 0.51318441)
(0 0.0091712656 0.51183779)
(0 0.0077530794 0.51076658)
(0 0.0064118623 0.50992435)
(0 0.0051335459 0.50927635)
(0 0.0039047238 0.50879697)
(0 0.0027125713 0.50846791)
(0 0.0015447165 0.50827702)
(0 0.00038909594 0.50821748)
(0 -0.00076619123 0.50828738)
(0 -0.0019331044 0.50848963)
(0 -0.0031237396 0.50883212)
(0 -0.0043505612 0.50932823)
(0 -0.0056265212 0.50999767)
(0 -0.0069651839 0.51086784)
(0 -0.0083808405 0.51197576)
(0 -0.0098885957 0.51337093)
(0 -0.011504091 0.51511941)
(0 -0.013244131 0.51731005)
(0 -0.015126321 0.52006333)
(0 -0.01716356 0.52353588)
(0 -0.01937829 0.52795362)
(0 -0.02179587 0.53406243)
(0 -0.024744619 0.54460717)
(0 -0.028715519 0.56114912)
(0 -0.030219103 0.55694353)
(0 -0.021569864 0.44790763)
(0 -0.00049876511 0.16833428)
(0 -0.0010950515 0.14426329)
(0 0.017007751 0.42042064)
(0 0.030269592 0.55774707)
(0 0.031448333 0.57600586)
(0 0.027561085 0.55767572)
(0 0.024372438 0.54311736)
(0 0.021957859 0.53490937)
(0 0.019765839 0.52933027)
(0 0.017719061 0.52498246)
(0 0.015800461 0.5215186)
(0 0.014007032 0.5187495)
(0 0.012328267 0.51652584)
(0 0.010752029 0.51473597)
(0 0.0092666124 0.5132971)
(0 0.0078599923 0.51214711)
(0 0.0065202879 0.51123916)
(0 0.0052358575 0.51053809)
(0 0.0039953254 0.51001783)
(0 0.0027875941 0.50965973)
(0 0.0016018006 0.50945134)
(0 0.00042724789 0.50938568)
(0 -0.00074665847 0.50946077)
(0 -0.001930563 0.50967961)
(0 -0.0031351641 0.5100503)
(0 -0.0043713702 0.5105865)
(0 -0.0056503351 0.51130835)
(0 -0.0069834995 0.51224369)
(0 -0.0083825972 0.51343004)
(0 -0.0098596737 0.51491731)
(0 -0.011426715 0.51677192)
(0 -0.013095972 0.51908287)
(0 -0.01487994 0.52196977)
(0 -0.016785132 0.5255865)
(0 -0.018827113 0.53017935)
(0 -0.021047459 0.53665478)
(0 -0.023775025 0.54785805)
(0 -0.027226231 0.56346399)
(0 -0.027515445 0.55236824)
(0 -0.017963216 0.4336851)
(0 0.00023851134 0.15866916)
(0 -0.0011770051 0.13778666)
(0 0.013860187 0.40597797)
(0 0.027329567 0.55058764)
(0 0.029665294 0.57693887)
(0 0.026491894 0.56086161)
(0 0.023532932 0.54579656)
(0 0.021290062 0.53712082)
(0 0.019277972 0.53136351)
(0 0.017380764 0.52689986)
(0 0.015579526 0.52332379)
(0 0.013876784 0.52044821)
(0 0.012266152 0.51812686)
(0 0.01073939 0.51624905)
(0 0.0092881601 0.51473242)
(0 0.0079033898 0.51351511)
(0 0.0065757725 0.51255036)
(0 0.0052958799 0.51180292)
(0 0.004054256 0.51124663)
(0 0.0028414899 0.51086269)
(0 0.0016482334 0.51063854)
(0 0.00046519069 0.51056711)
(0 -0.00071687805 0.51064639)
(0 -0.001907254 0.51087942)
(0 -0.0031152048 0.51127438)
(0 -0.0043500773 0.51184508)
(0 -0.0056212699 0.51261176)
(0 -0.0069382139 0.51360243)
(0 -0.008310303 0.51485464)
(0 -0.0097468669 0.51641826)
(0 -0.011256785 0.51835952)
(0 -0.01284858 0.52076692)
(0 -0.014530628 0.52375835)
(0 -0.016304718 0.52748546)
(0 -0.018183294 0.5322252)
(0 -0.020226448 0.53904436)
(0 -0.022742134 0.55073372)
(0 -0.025666382 0.56491324)
(0 -0.024930192 0.54702401)
(0 -0.014895963 0.42043787)
(0 0.00064633322 0.15092838)
(0 -0.0011074834 0.13262279)
(0 0.011379683 0.39284861)
(0 0.024680029 0.54303846)
(0 0.02791847 0.57701815)
(0 0.025429218 0.56360904)
(0 0.022689125 0.54828123)
(0 0.02058771 0.53916472)
(0 0.018732458 0.53324016)
(0 0.01697252 0.52868677)
(0 0.015283398 0.52502501)
(0 0.013670736 0.52206573)
(0 0.01213098 0.51966599)
(0 0.010658786 0.51771638)
(0 0.0092484124 0.5161353)
(0 0.0078931885 0.51486143)
(0 0.006585991 0.51384838)
(0 0.0053193403 0.51306112)
(0 0.0040855308 0.51247359)
(0 0.0028767362 0.51206701)
(0 0.0016850678 0.51182884)
(0 0.00050260496 0.51175198)
(0 -0.00067854996 0.51183443)
(0 -0.0018663268 0.51207923)
(0 -0.0030685914 0.51249454)
(0 -0.0042931864 0.51309415)
(0 -0.005547859 0.51389828)
(0 -0.0068402062 0.51493479)
(0 -0.0081775553 0.516241)
(0 -0.0095669126 0.51786641)
(0 -0.011014614 0.5198767)
(0 -0.012526266 0.52235947)
(0 -0.014107111 0.52543044)
(0 -0.015755796 0.52924071)
(0 -0.017484774 0.53410774)
(0 -0.019372475 0.54124608)
(0 -0.021686611 0.55324184)
(0 -0.024096268 0.56560426)
(0 -0.022525219 0.54118092)
(0 -0.012337989 0.40823142)
(0 0.00083357028 0.14471933)
(0 -0.00096289309 0.12842721)
(0 0.0094475398 0.3809694)
(0 0.022317018 0.53532373)
(0 0.026242367 0.57639169)
(0 0.024390919 0.56594591)
(0 0.021861222 0.55059099)
(0 0.019876571 0.54106749)
(0 0.018155032 0.53497892)
(0 0.016518231 0.53035343)
(0 0.014933645 0.52662687)
(0 0.013407836 0.52360265)
(0 0.011939029 0.52114085)
(0 0.01052393 0.51913349)
(0 0.0091587032 0.51749981)
(0 0.0078385585 0.51617917)
(0 0.0065581635 0.5151257)
(0 0.0053117038 0.51430475)
(0 0.004093023 0.51369051)
(0 0.0028957389 0.51326436)
(0 0.0017133247 0.51301383)
(0 0.00053916322 0.51293188)
(0 -0.00063335722 0.5130165)
(0 -0.0018108733 0.51327069)
(0 -0.0029999234 0.51370256)
(0 -0.0042069458 0.51432578)
(0 -0.0054381825 0.51516036)
(0 -0.0066996046 0.51623388)
(0 -0.0079967701 0.51758324)
(0 -0.009334765 0.51925738)
(0 -0.010717921 0.52132122)
(0 -0.012149657 0.52386128)
(0 -0.013632971 0.52699109)
(0 -0.015164811 0.53086379)
(0 -0.016759939 0.53584561)
(0 -0.018512772 0.54327572)
(0 -0.020635649 0.55539995)
(0 -0.022557133 0.56565009)
(0 -0.020327809 0.53505489)
(0 -0.010236413 0.39706924)
(0 0.00088045785 0.13971051)
(0 -0.00079068532 0.12493995)
(0 0.0079512656 0.37024659)
(0 0.020219782 0.52760702)
(0 0.024654174 0.57519055)
(0 0.023384884 0.56790262)
(0 0.021059325 0.55274171)
(0 0.019172876 0.54285237)
(0 0.017563738 0.53659844)
(0 0.016035768 0.53191141)
(0 0.014547155 0.52813579)
(0 0.013103483 0.52506167)
(0 0.011703944 0.5225513)
(0 0.010346622 0.52049809)
(0 0.0090290058 0.51882208)
(0 0.0077477231 0.51746331)
(0 0.0064988686 0.51637651)
(0 0.0052780144 0.51552747)
(0 0.0040803417 0.51489069)
(0 0.0029007513 0.51444781)
(0 0.0017339565 0.51418648)
(0 0.00057453594 0.51409973)
(0 -0.00058291479 0.51418556)
(0 -0.0017438284 0.51444692)
(0 -0.0029135295 0.51489179)
(0 -0.0040971715 0.51553367)
(0 -0.0052996597 0.51639228)
(0 -0.0065255601 0.51749481)
(0 -0.007778955 0.51887766)
(0 -0.0090633915 0.5205891)
(0 -0.010381679 0.52269326)
(0 -0.011735662 0.52527556)
(0 -0.01312685 0.52844761)
(0 -0.014551742 0.53236784)
(0 -0.016028883 0.53745708)
(0 -0.017664703 0.54514789)
(0 -0.019606009 0.55723069)
(0 -0.021074807 0.56515874)
(0 -0.018342353 0.52881257)
(0 -0.0085282222 0.38691523)
(0 0.00084355496 0.13563146)
(0 -0.00061880607 0.1219719)
(0 0.0067918775 0.36057489)
(0 0.018359835 0.52000492)
(0 0.023159047 0.57352718)
(0 0.022412637 0.56950952)
(0 0.02028684 0.55474521)
(0 0.018485774 0.54453823)
(0 0.016970545 0.53811576)
(0 0.015537988 0.53337228)
(0 0.014136727 0.52955895)
(0 0.01276983 0.52644665)
(0 0.011436859 0.5238986)
(0 0.010136757 0.52180941)
(0 0.0088678721 0.52009978)
(0 0.0076278672 0.51871037)
(0 0.0064139432 0.51759647)
(0 0.0052228017 0.51672432)
(0 0.0040507549 0.51606878)
(0 0.0028938204 0.51561173)
(0 0.0017478149 0.51534101)
(0 0.00060840906 0.51524971)
(0 -0.00052872181 0.51533586)
(0 -0.0016679144 0.51560232)
(0 -0.002813379 0.51605694)
(0 -0.003969137 0.51671299)
(0 -0.0051389293 0.51758986)
(0 -0.006326131 0.51871432)
(0 -0.007533621 0.52012222)
(0 -0.0087637446 0.52186118)
(0 -0.010018197 0.52399461)
(0 -0.011297745 0.52660686)
(0 -0.01260301 0.52980828)
(0 -0.013931087 0.53376598)
(0 -0.015305035 0.53895841)
(0 -0.016838297 0.54687504)
(0 -0.018606711 0.55875877)
(0 -0.019663111 0.56422815)
(0 -0.016558981 0.52257951)
(0 -0.007148562 0.37771124)
(0 0.00076143316 0.13226889)
(0 -0.00046216492 0.11938894)
(0 0.0058869931 0.35184869)
(0 0.016706581 0.51259876)
(0 0.021754359 0.57149667)
(0 0.02147186 0.57079576)
(0 0.019542886 0.55660979)
(0 0.017819364 0.54613942)
(0 0.016382846 0.53954558)
(0 0.015033785 0.53474675)
(0 0.013711776 0.53090349)
(0 0.012416234 0.52776198)
(0 0.011146651 0.52518487)
(0 0.0099024462 0.52306774)
(0 0.0086824765 0.52133176)
(0 0.0074851316 0.51991807)
(0 0.0063084516 0.51878244)
(0 0.005150041 0.51789153)
(0 0.0040071539 0.51722055)
(0 0.0028767649 0.51675162)
(0 0.0017556554 0.51647275)
(0 0.00064046845 0.51637713)
(0 -0.00047215948 0.51646277)
(0 -0.0015855851 0.51673246)
(0 -0.0027030277 0.51719391)
(0 -0.00382752 0.51786013)
(0 -0.0049618045 0.51875018)
(0 -0.0061082637 0.51989039)
(0 -0.007268812 0.52131612)
(0 -0.0084448777 0.52307439)
(0 -0.0096373698 0.52522798)
(0 -0.010846362 0.52786037)
(0 -0.012072046 0.53108143)
(0 -0.013312924 0.53507033)
(0 -0.014596676 0.54036324)
(0 -0.016038289 0.54846728)
(0 -0.017641219 0.56000919)
(0 -0.018326999 0.56294433)
(0 -0.014959893 0.51644832)
(0 -0.0060361396 0.36938881)
(0 0.00065949653 0.12945833)
(0 -0.00032728412 0.11709799)
(0 0.0051710213 0.34396843)
(0 0.015230609 0.50544384)
(0 0.020433073 0.56917878)
(0 0.020558206 0.57178875)
(0 0.018824024 0.55834095)
(0 0.017174287 0.54766621)
(0 0.01580468 0.54089995)
(0 0.014529012 0.53604426)
(0 0.01327902 0.532176)
(0 0.012049735 0.529012)
(0 0.010840263 0.52641261)
(0 0.0096502218 0.52427401)
(0 0.0084787301 0.52251766)
(0 0.0073246708 0.52108504)
(0 0.0061867066 0.51993225)
(0 0.0050631556 0.51902634)
(0 0.0039520467 0.5183428)
(0 0.0028511651 0.51786399)
(0 0.0017581252 0.51757806)
(0 0.00067041975 0.51747829)
(0 -0.00041446475 0.51756268)
(0 -0.0014990216 0.51783395)
(0 -0.0025856065 0.51829964)
(0 -0.0036763962 0.51897251)
(0 -0.0047732867 0.51987132)
(0 -0.0058778429 0.521022)
(0 -0.0069912153 0.52245944)
(0 -0.0081141437 0.52423018)
(0 -0.0092470019 0.52639653)
(0 -0.010389454 0.52904129)
(0 -0.011541589 0.53227487)
(0 -0.012703884 0.53629148)
(0 -0.013908246 0.54168235)
(0 -0.015265774 0.54993254)
(0 -0.016709293 0.56100606)
(0 -0.01706543 0.56138112)
(0 -0.013523885 0.51048569)
(0 -0.0051363558 0.36187652)
(0 0.00055378664 0.1270753)
(0 -0.00021564266 0.11503577)
(0 0.0045935298 0.33684378)
(0 0.013905333 0.49857663)
(0 0.019186163 0.56664025)
(0 0.019666578 0.57251382)
(0 0.018125525 0.55994199)
(0 0.016548981 0.54912527)
(0 0.015237737 0.54218837)
(0 0.014027263 0.5372728)
(0 0.012843091 0.53338234)
(0 0.011675514 0.53020082)
(0 0.010523031 0.52758443)
(0 0.0093852642 0.52542953)
(0 0.0082614342 0.52365771)
(0 0.0071507492 0.52221058)
(0 0.0060523281 0.52104451)
(0 0.0049650493 0.52012678)
(0 0.0038875751 0.51943316)
(0 0.0028183723 0.51894619)
(0 0.0017557685 0.51865415)
(0 0.0006979922 0.51855037)
(0 -0.00035672792 0.51863286)
(0 -0.0014101326 0.51890425)
(0 -0.0024638309 0.51937192)
(0 -0.0035192648 0.52004842)
(0 -0.0045776185 0.52095219)
(0 -0.0056397861 0.52210883)
(0 -0.0067063155 0.52355284)
(0 -0.0077774321 0.52533042)
(0 -0.008853153 0.52750352)
(0 -0.0099329281 0.53015458)
(0 -0.011016961 0.53339557)
(0 -0.012108027 0.53743823)
(0 -0.013241503 0.54292373)
(0 -0.014519579 0.55127666)
(0 -0.01580855 0.56177181)
(0 -0.015873823 0.55960083)
(0 -0.012229296 0.50473838)
(0 -0.0044026 0.35510465)
(0 0.00045382042 0.12502728)
(0 -0.00012594 0.11316011)
(0 0.0041167874 0.33039515)
(0 0.012707567 0.49202035)
(0 0.018004177 0.56393708)
(0 0.018791947 0.57299431)
(0 0.017442261 0.56141461)
(0 0.015940659 0.55052022)
(0 0.014682171 0.54341785)
(0 0.013530537 0.53843886)
(0 0.012407073 0.53452747)
(0 0.01129732 0.53133208)
(0 0.010199006 0.5287028)
(0 0.0091116387 0.52653576)
(0 0.0080344492 0.52475245)
(0 0.0069668587 0.5232945)
(0 0.0059083213 0.52211839)
(0 0.0048581569 0.52119157)
(0 0.0038155467 0.52048999)
(0 0.0027795285 0.51999633)
(0 0.0017490385 0.51969899)
(0 0.00072293865 0.51959134)
(0 -0.00029989997 0.51967135)
(0 -0.0013205665 0.5199416)
(0 -0.0023400275 0.5204093)
(0 -0.0033590971 0.52108679)
(0 -0.0043783614 0.52199228)
(0 -0.0053981626 0.52315107)
(0 -0.0064185696 0.52459737)
(0 -0.0074394177 0.52637713)
(0 -0.0084604821 0.52855211)
(0 -0.0094811213 0.53120469)
(0 -0.01050178 0.53444948)
(0 -0.011527633 0.53851758)
(0 -0.012596509 0.54409284)
(0 -0.013797357 0.55250368)
(0 -0.01493567 0.56232685)
(0 -0.014745908 0.55765559)
(0 -0.011055787 0.49923819)
(0 -0.0037964298 0.34900786)
(0 0.00036467254 0.12324689)
(0 -5.5546209e-05 0.11144329)
(0 0.0037131587 0.32455377)
(0 0.011617516 0.48578912)
(0 0.016878157 0.5611166)
(0 0.017929812 0.57325176)
(0 0.016769294 0.56275938)
(0 0.01534602 0.55185224)
(0 0.01413723 0.5445932)
(0 0.013039779 0.53954748)
(0 0.011972965 0.53561546)
(0 0.010917838 0.53240887)
(0 0.0098712495 0.52976999)
(0 0.0088325221 0.52759417)
(0 0.0078008643 0.52580267)
(0 0.0067758428 0.52433697)
(0 0.0057571652 0.52315355)
(0 0.0047445059 0.52221995)
(0 0.0037374749 0.52151221)
(0 0.0027355911 0.52101315)
(0 0.0017383095 0.5207112)
(0 0.00074503644 0.52059977)
(0 -0.00024480247 0.52067683)
(0 -0.0012317345 0.52094483)
(0 -0.0022161734 0.52141088)
(0 -0.0031983969 0.52208714)
(0 -0.0041784858 0.52299159)
(0 -0.0051563228 0.5241493)
(0 -0.0061315869 0.52559428)
(0 -0.0071038051 0.52737235)
(0 -0.008072572 0.52954523)
(0 -0.0090372186 0.53219551)
(0 -0.0099984879 0.53544152)
(0 -0.010963853 0.53953476)
(0 -0.011972426 0.54519293)
(0 -0.01309641 0.5536162)
(0 -0.01408728 0.56268954)
(0 -0.013675053 0.55558882)
(0 -0.0099853391 0.49400584)
(0 -0.0032871128 0.34352661)
(0 0.00028843726 0.12168597)
(0 -1.4025651e-06 0.1098673)
(0 0.0033627027 0.31926114)
(0 0.010618498 0.47989083)
(0 0.015800116 0.55821908)
(0 0.017076449 0.5733061)
(0 0.016102247 0.56397626)
(0 0.01476175 0.55312059)
(0 0.013601737 0.54571731)
(0 0.012555314 0.54060239)
(0 0.011542057 0.53664948)
(0 0.010539013 0.53343378)
(0 0.0095420932 0.53078799)
(0 0.008550412 0.52860618)
(0 0.0075631599 0.52680925)
(0 0.0065800196 0.5253384)
(0 0.0056009034 0.52414999)
(0 0.0046257809 0.52321157)
(0 0.0036546234 0.52249925)
(0 0.0026873598 0.52199587)
(0 0.0017238895 0.52168993)
(0 0.00076408813 0.52157483)
(0 -0.00019214003 0.5216485)
(0 -0.0011448371 0.52191333)
(0 -0.0020939406 0.5223763)
(0 -0.0030392673 0.52304941)
(0 -0.0039804661 0.52395047)
(0 -0.0049170281 0.52510436)
(0 -0.005848303 0.52654497)
(0 -0.0067735556 0.52831809)
(0 -0.0076922197 0.53048549)
(0 -0.0086036168 0.53313032)
(0 -0.0095087881 0.53637557)
(0 -0.010417246 0.54049347)
(0 -0.011368134 0.54622547)
(0 -0.0124143 0.5546158)
(0 -0.01326058 0.56287641)
(0 -0.01265519 0.55343655)
(0 -0.0090027152 0.48905387)
(0 -0.0028508057 0.33860758)
(0 0.00022522842 0.12031052)
(0 3.9435893e-05 0.1084205)
(0 0.003051135 0.31446799)
(0 0.0096965737 0.47432922)
(0 0.014763272 0.55527902)
(0 0.016229035 0.57317587)
(0 0.015437548 0.56506493)
(0 0.014184882 0.55432311)
(0 0.013074445 0.54679145)
(0 0.012077185 0.54160614)
(0 0.01111524 0.53763197)
(0 0.010162316 0.53440885)
(0 0.0092133697 0.53175848)
(0 0.0082673138 0.52957312)
(0 0.007323358 0.52777315)
(0 0.0063812996 0.52629938)
(0 0.005441234 0.52510799)
(0 0.0045033901 0.52416647)
(0 0.0035680531 0.52345091)
(0 0.0026355069 0.52294418)
(0 0.0017060364 0.52263479)
(0 0.00077992372 0.52251612)
(0 -0.00014251161 0.52258606)
(0 -0.0010608915 0.52284692)
(0 -0.0019747405 0.52330558)
(0 -0.0028834751 0.5239739)
(0 -0.0037863689 0.52486955)
(0 -0.0046825702 0.52601727)
(0 -0.0055711351 0.52745089)
(0 -0.0064510855 0.52921623)
(0 -0.0073216832 0.53137524)
(0 -0.0081822227 0.5340119)
(0 -0.0090340017 0.53725469)
(0 -0.0098881884 0.54139612)
(0 -0.010782685 0.54719063)
(0 -0.011749279 0.55550341)
(0 -0.012453787 0.56290239)
(0 -0.011681433 0.55122871)
(0 -0.0080955792 0.4843887)
(0 -0.0024696017 0.33420353)
(0 0.00017387767 0.11909674)
(0 6.9502468e-05 0.1070955)
(0 0.0027682089 0.31013317)
(0 0.0088401914 0.4691051)
(0 0.013762141 0.55232603)
(0 0.015385743 0.57287834)
(0 0.014772609 0.56602501)
(0 0.013613054 0.55545665)
(0 0.012554321 0.54781558)
(0 0.011605426 0.54256028)
(0 0.01069326 0.53856467)
(0 0.0097889742 0.53533571)
(0 0.0088866079 0.53268291)
(0 0.0079849077 0.53049622)
(0 0.0070831593 0.52869533)
(0 0.006181296 0.52722064)
(0 0.0052795968 0.52602806)
(0 0.0043785324 0.52508495)
(0 0.0034786708 0.52436735)
(0 0.0025806113 0.52385813)
(0 0.0016849774 0.52354577)
(0 0.00079240727 0.52342363)
(0 -9.6417221e-05 0.52348957)
(0 -0.00098075145 0.5237458)
(0 -0.0018597589 0.5241991)
(0 -0.0027325046 0.52486122)
(0 -0.0035979292 0.52574971)
(0 -0.0044548705 0.52688922)
(0 -0.0053021097 0.52831355)
(0 -0.0061384252 0.53006859)
(0 -0.0069628746 0.53221658)
(0 -0.0077746837 0.53484259)
(0 -0.0085753329 0.53808121)
(0 -0.0093771728 0.54224414)
(0 -0.010215641 0.54808772)
(0 -0.011100588 0.55627975)
(0 -0.011666424 0.56278112)
(0 -0.010750483 0.54899014)
(0 -0.007254433 0.48001207)
(0 -0.0021306999 0.33027264)
(0 0.00013254331 0.11802804)
(0 9.0794659e-05 0.10588765)
(0 0.0025065137 0.30622237)
(0 0.0080398984 0.46421723)
(0 0.0127926 0.54938549)
(0 0.014545831 0.57242961)
(0 0.014105967 0.56685629)
(0 0.013044721 0.55651743)
(0 0.012040771 0.54878863)
(0 0.011140279 0.54346559)
(0 0.010276917 0.53944879)