/*--------------------------------*- C++ -*----------------------------------*\
  =========                 |
  \\      /  F ield         | OpenFOAM: The Open Source CFD Toolbox
   \\    /   O peration     | Website:  https://openfoam.org
    \\  /    A nd           | Version:  10
     \\/     M anipulation  |
\*---------------------------------------------------------------------------*/
FoamFile
{
    format      ascii;
    class       surfaceScalarField;
    location    "0.01";
    object      phi;
}
// * * * * * * * * * * * * * * * * * * * * * * * * * * * * * * * * * * * * * //

dimensions      [1 0 -1 0 0 0 0];

internalField   nonuniform List<scalar> 
7860
(
4.2978444e-08
5.2572959e-07
1.210091e-08
5.9958536e-07
6.9581592e-09
5.7385051e-07
5.4073462e-09
5.7025853e-07
4.106533e-09
5.700085e-07
3.195849e-09
5.6961835e-07
2.5561955e-09
5.693473e-07
2.0778621e-09
5.6918597e-07
1.7084516e-09
5.6907703e-07
1.416072e-09
5.6899999e-07
1.1790743e-09
5.689446e-07
9.8277545e-10
5.689039e-07
8.1687207e-10
5.688735e-07
6.7387992e-10
5.6885058e-07
5.482276e-10
5.6883324e-07
4.356594e-10
5.6882015e-07
3.3282624e-10
5.6881041e-07
2.3700414e-10
5.688034e-07
1.4589308e-10
5.6879869e-07
5.7466107e-11
5.68796e-07
-3.0155269e-11
5.687952e-07
-1.1881346e-10
5.6879623e-07
-2.1041077e-10
5.6879917e-07
-3.070187e-10
5.6880418e-07
-4.1101255e-10
5.6881157e-07
-5.2523313e-10
5.688218e-07
-6.5320799e-10
5.6883556e-07
-7.9946673e-10
5.6885385e-07
-9.6999963e-10
5.6887812e-07
-1.1729465e-09
5.6891054e-07
-1.4197674e-09
5.6895442e-07
-1.7272054e-09
5.6901505e-07
-2.1198845e-09
5.691003e-07
-2.6377635e-09
5.6922551e-07
-3.3635285e-09
5.6943341e-07
-4.3993526e-09
5.6974349e-07
-5.672765e-09
5.699811e-07
-9.4383598e-09
5.7247332e-07
-3.2635915e-08
5.9190533e-07
5.3607202e-07
5.8461948e-08
4.6726764e-07
3.6842527e-08
6.2120478e-07
2.2751834e-08
5.879412e-07
1.6273135e-08
5.7673723e-07
1.2268328e-08
5.7401331e-07
9.5873289e-09
5.7229935e-07
7.6660411e-09
5.7126859e-07
6.2281594e-09
5.7062385e-07
5.1208129e-09
5.7018438e-07
4.2445543e-09
5.6987625e-07
3.5342555e-09
5.696549e-07
2.9459761e-09
5.6949218e-07
2.4487644e-09
5.6937071e-07
2.020182e-09
5.6927916e-07
1.6435482e-09
5.6920987e-07
1.3061151e-09
5.6915758e-07
9.9784802e-10
5.6911868e-07
7.1058586e-10
5.6909066e-07
4.3743839e-10
5.6907183e-07
1.7232889e-10
5.6906111e-07
-9.0374182e-11
5.690579e-07
-3.5617889e-10
5.6906204e-07
-6.3078087e-10
5.6907377e-07
-9.2039304e-10
5.690938e-07
-1.2321329e-09
5.6912331e-07
-1.5745108e-09
5.6916418e-07
-1.9580926e-09
5.6921914e-07
-2.3964404e-09
5.6929219e-07
-2.9075061e-09
5.6938919e-07
-3.5157272e-09
5.6951876e-07
-4.2553993e-09
5.696941e-07
-5.1768127e-09
5.6993646e-07
-6.3563512e-09
5.7027984e-07
-7.9111306e-09
5.7078029e-07
-1.0050431e-08
5.7157271e-07
-1.3211674e-08
5.7290473e-07
-1.8216929e-08
5.7498636e-07
-2.8394922e-08
5.8265131e-07
-4.547758e-08
6.0898799e-07
4.9059444e-07
5.9019198e-08
4.0824844e-07
5.0172132e-08
6.3005185e-07
3.3278291e-08
6.0483504e-07
2.4744829e-08
5.8527069e-07
1.9278951e-08
5.7947919e-07
1.5303166e-08
5.7627513e-07
1.2339814e-08
5.7423194e-07
1.008591e-08
5.7287775e-07
8.3291522e-09
5.7194114e-07
6.9262064e-09
5.712792e-07
5.7815036e-09
5.707996e-07
4.8286233e-09
5.7044506e-07
4.0199145e-09
5.7017942e-07
3.3204802e-09
5.699786e-07
2.7041413e-09
5.6982621e-07
2.1507273e-09
5.69711e-07
1.6442561e-09
5.6962515e-07
1.1716621e-09
5.6956326e-07
7.2186805e-10
5.6952163e-07
2.850733e-10
5.6949791e-07
-1.4782082e-10
5.6949079e-07
-5.8571606e-10
5.6949993e-07
-1.0378093e-09
5.6952587e-07
-1.5141118e-09
5.695701e-07
-2.0260498e-09
5.6963525e-07
-2.5872203e-09
5.6972535e-07
-3.2143978e-09
5.6984632e-07
-3.9289428e-09
5.7000674e-07
-4.7588673e-09
5.7021911e-07
-5.7418972e-09
5.7050179e-07
-6.9300095e-09
5.7088221e-07
-8.3971145e-09
5.7140357e-07
-1.0252927e-08
5.7213565e-07
-1.2659065e-08
5.7318643e-07
-1.5845426e-08
5.7475907e-07
-2.0174214e-08
5.7723352e-07
-2.6642836e-08
5.8145498e-07
-3.8849029e-08
5.948575e-07
-4.7561923e-08
6.1770089e-07
4.4303252e-07
5.448348e-08
3.5376496e-07
5.7348588e-08
6.2718674e-07
4.034714e-08
6.2183649e-07
3.0630369e-08
5.9498746e-07
2.4559939e-08
5.8554962e-07
1.9903511e-08
5.8093156e-07
1.6278683e-08
5.7785677e-07
1.3442076e-08
5.7571436e-07
1.118307e-08
5.7420014e-07
9.3509857e-09
5.7311128e-07
7.8390641e-09
5.7231153e-07
6.5691565e-09
5.7171496e-07
5.4835669e-09
5.7126501e-07
4.5391691e-09
5.7092299e-07
3.703016e-09
5.7066236e-07
2.9493426e-09
5.7046467e-07
2.2574959e-09
5.70317e-07
1.6104329e-09
5.7021032e-07
9.9359457e-10
5.7013847e-07
3.9402831e-10
5.7009747e-07
-2.0033175e-10
5.7008515e-07
-8.0130187e-10
5.701009e-07
-1.4210689e-09
5.7014564e-07
-2.0728427e-09
5.7022187e-07
-2.7716031e-09
5.7033401e-07
-3.5350232e-09
5.7048877e-07
-4.3846672e-09
5.7069596e-07
-5.3476041e-09
5.7096968e-07
-6.4586968e-09
5.7133021e-07
-7.7639199e-09
5.7180702e-07
-9.3248058e-09
5.7244309e-07
-1.1224425e-08
5.7330319e-07
-1.3578369e-08
5.7448959e-07
-1.6547234e-08
5.7615529e-07
-2.0319248e-08
5.7853109e-07
-2.5153971e-08
5.8206824e-07
-3.2408963e-08
5.8870997e-07
-4.5089164e-08
6.075377e-07
-4.6057992e-08
6.1866971e-07
3.9697452e-07
4.7815491e-08
3.0594947e-07
6.0096979e-08
6.1490526e-07
4.5376882e-08
6.3655659e-07
3.4767416e-08
6.0559693e-07
2.832064e-08
5.9199639e-07
2.3363889e-08
5.8588831e-07
1.9392909e-08
5.8182775e-07
1.6198808e-08
5.7890846e-07
1.3596708e-08
5.7680224e-07
1.1448874e-08
5.7525911e-07
9.6510612e-09
5.7410934e-07
8.123327e-09
5.732427e-07
6.8048858e-09
5.7258345e-07
5.6490131e-09
5.7207887e-07
4.6191108e-09
5.7169227e-07
3.6859949e-09
5.7139779e-07
2.8259054e-09
5.7117709e-07
2.0189808e-09
5.7101724e-07
1.2480763e-09
5.7090937e-07
4.9782079e-10
5.7084773e-07
-2.4617133e-10
5.7082915e-07
-9.9800596e-10
5.7085274e-07
-1.7721981e-09
5.7091983e-07
-2.5843917e-09
5.7103407e-07
-3.4521705e-09
5.7120179e-07
-4.3960392e-09
5.7143264e-07
-5.4406541e-09
5.7174058e-07
-6.6163984e-09
5.7214542e-07
-7.961476e-09
5.7267528e-07
-9.5248856e-09
5.7337043e-07
-1.1370287e-08
5.742885e-07
-1.3579826e-08
5.7551273e-07
-1.6260507e-08
5.7717028e-07
-1.9555925e-08
5.7945071e-07
-2.3631988e-08
5.8260715e-07
-2.8793524e-08
5.8722978e-07
-3.6719298e-08
5.9663575e-07
-4.8450875e-08
6.1926928e-07
-4.2746928e-08
6.1296577e-07
3.542276e-07
4.0256609e-08
2.6569286e-07
5.8993903e-08
5.9616796e-07
4.8325771e-08
6.4722472e-07
3.7522451e-08
6.1640025e-07
3.0871046e-08
5.986478e-07
2.5847523e-08
5.9091184e-07
2.1742054e-08
5.8593322e-07
1.8361414e-08
5.822891e-07
1.555277e-08
5.7961089e-07
1.319493e-08
5.7761695e-07
1.1191604e-08
5.7611266e-07
9.4673076e-09
5.74967e-07
7.9632379e-09
5.7408752e-07
6.6327869e-09
5.7340932e-07
5.4384598e-09
5.7288659e-07
4.3497235e-09
5.7248652e-07
3.3412731e-09
5.7218554e-07
2.3916275e-09
5.7196689e-07
1.482009e-09
5.7181899e-07
5.9542524e-10
5.7173431e-07
-2.8411563e-10
5.7170869e-07
-1.1723174e-09
5.7174094e-07
-2.0852975e-09
5.7183281e-07
-3.0403113e-09
5.7198908e-07
-4.0565516e-09
5.7221803e-07
-5.156096e-09
5.7253218e-07
-6.3650588e-09
5.7294954e-07
-7.7149954e-09
5.7349536e-07
-9.244614e-09
5.742049e-07
-1.1002133e-08
5.7512795e-07
-1.3048708e-08
5.7633507e-07
-1.5461668e-08
5.7792569e-07
-1.8337557e-08
5.8004616e-07
-2.1800058e-08
5.8291321e-07
-2.6002361e-08
5.8680945e-07
-3.1357275e-08
5.9258469e-07
-3.9568112e-08
6.0484658e-07
-4.9080759e-08
6.2878193e-07
-3.8202054e-08
6.0208706e-07
3.1602554e-07
3.2815015e-08
2.3287785e-07
5.5229259e-08
5.7375372e-07
4.9211935e-08
6.5324204e-07
3.9005526e-08
6.2660666e-07
3.2380347e-08
6.0527298e-07
2.7479701e-08
5.9581248e-07
2.3405785e-08
5.9000714e-07
1.9974281e-08
5.8572061e-07
1.7070881e-08
5.8251429e-07
1.4593209e-08
5.8009463e-07
1.2456339e-08
5.7824953e-07
1.0592999e-08
5.7683034e-07
8.9493888e-09
5.7573113e-07
7.4814894e-09
5.7487722e-07
6.1530037e-09
5.7421508e-07
4.9337651e-09
5.7370576e-07
3.7982916e-09
5.7332101e-07
2.7245806e-09
5.730406e-07
1.6931287e-09
5.7285044e-07
6.8610476e-10
5.7274134e-07
-3.1337682e-10
5.7270817e-07
-1.3219263e-09
5.7274949e-07
-2.3565437e-09
5.7286742e-07
-3.4352973e-09
5.7306783e-07
-4.5780594e-09
5.7336079e-07
-5.8073529e-09
5.7376148e-07
-7.1493639e-09
5.7429155e-07
-8.6351453e-09
5.7498114e-07
-1.0301953e-08
5.7587171e-07
-1.2194897e-08
5.7702089e-07
-1.4369772e-08
5.7850995e-07
-1.6896473e-08
5.8045239e-07
-1.985964e-08
5.8300933e-07
-2.3357914e-08
5.8641149e-07
-2.7528518e-08
5.9098006e-07
-3.2896398e-08
5.9795257e-07
-4.0895972e-08
6.1284616e-07
-4.7551114e-08
6.3543707e-07
-3.3085136e-08
5.8762108e-07
2.8294041e-07
2.6148463e-08
2.0672939e-07
5.0115571e-08
5.4978661e-07
4.8474994e-08
6.5488262e-07
3.9441782e-08
6.3563987e-07
3.3028271e-08
6.1168649e-07
2.8374382e-08
6.0046637e-07
2.446151e-08
5.9392001e-07
2.109107e-08
5.8909104e-07
1.818486e-08
5.854205e-07
1.5662573e-08
5.8261691e-07
1.3454282e-08
5.8045783e-07
1.1503397e-08
5.7878122e-07
9.7628393e-09
5.7747168e-07
8.1927927e-09
5.7644726e-07
6.7596815e-09
5.7564819e-07
5.4350192e-09
5.7503042e-07
4.1942437e-09
5.7456179e-07
3.0157555e-09
5.7421909e-07
1.8801239e-09
5.7398607e-07
7.6939016e-10
5.7385207e-07
-3.3356501e-10
5.7381112e-07
-1.445614e-09
5.7386154e-07
-2.583975e-09
5.7400579e-07
-3.7668112e-09
5.7425067e-07
-5.0138661e-09
5.7460785e-07
-6.3471722e-09
5.7509478e-07
-7.7918836e-09
5.7573626e-07
-9.3772731e-09
5.7656653e-07
-1.1137769e-08
5.7763221e-07
-1.3113894e-08
5.7899701e-07
-1.5354025e-08
5.8075008e-07
-1.7917576e-08
5.8301594e-07
-2.087441e-08
5.8596616e-07
-2.4297539e-08
5.8983461e-07
-2.8318621e-08
5.9500114e-07
-3.3554382e-08
6.0318833e-07
-4.0944368e-08
6.2023614e-07
-4.4660763e-08
6.3915346e-07
-2.798263e-08
5.7094295e-07
2.5495777e-07
2.052177e-08
1.8620762e-07
4.4568449e-08
5.2573993e-07
4.6635079e-08
6.5281599e-07
3.9117122e-08
6.4315783e-07
3.3039951e-08
6.1776366e-07
2.868159e-08
6.0482473e-07
2.5007886e-08
5.9759371e-07
2.1778541e-08
5.9232039e-07
1.8939118e-08
5.8825992e-07
1.643204e-08
5.8512399e-07
1.4204028e-08
5.8268584e-07
1.2209921e-08
5.8077533e-07
1.0410109e-08
5.792715e-07
8.770018e-09
5.7808736e-07
7.2598547e-09
5.7715835e-07
5.8537434e-09
5.7643653e-07
4.5288525e-09
5.7588668e-07
3.2647094e-09
5.7548323e-07
2.0426117e-09
5.7520817e-07
8.4507721e-10
5.750496e-07
-3.4467327e-10
5.7500087e-07
-1.5432114e-09
5.7506008e-07
-2.7673981e-09
5.7522997e-07
-4.0348838e-09
5.7551816e-07
-5.3646242e-09
5.7593759e-07
-6.7774327e-09
5.7650759e-07
-8.2966011e-09
5.7725543e-07
-9.9486698e-09
5.782186e-07
-1.1764247e-08
5.7944778e-07
-1.3778424e-08
5.8101119e-07
-1.603126e-08
5.8300291e-07
-1.8570023e-08
5.855547e-07
-2.1448487e-08
5.8884463e-07
-2.4719958e-08
5.9310609e-07
-2.852893e-08
5.9881011e-07
-3.3536014e-08
6.0819542e-07
-4.0038209e-08
6.2673834e-07
-4.1039869e-08
6.4015512e-07
-2.324864e-08
5.5315172e-07
2.3170913e-07
1.5956667e-08
1.7025095e-07
3.912412e-08
5.0257248e-07
4.411564e-08
6.4782447e-07
3.8265141e-08
6.4900833e-07
3.261757e-08
6.2341123e-07
2.8559649e-08
6.0888265e-07
2.5156996e-08
6.0099637e-07
2.2114427e-08
5.9536296e-07
1.9387398e-08
5.9098695e-07
1.6939076e-08
5.8757231e-07
1.4731696e-08
5.8489322e-07
1.2730476e-08
5.8277655e-07
1.0903197e-08
5.8109878e-07
9.2210338e-09
5.7976952e-07
7.6585625e-09
5.7872082e-07
6.1930667e-09
5.7790203e-07
4.8039746e-09
5.7727577e-07
3.4724582e-09
5.7681475e-07
2.1810428e-09
5.7649959e-07
9.1320241e-10
5.7631744e-07
-3.4703773e-10
5.7626111e-07
-1.6154873e-09
5.7632853e-07
-2.908184e-09
5.7652267e-07
-4.2417839e-09
5.7685176e-07
-5.6339558e-09
5.7732976e-07
-7.1037755e-09
5.7797741e-07
-8.6721263e-09
5.7882378e-07
-1.0362214e-08
5.7990868e-07
-1.220023e-08
5.812858e-07
-1.421558e-08
5.8302654e-07
-1.6440404e-08
5.8522774e-07
-1.8910278e-08
5.8802458e-07
-2.1663432e-08
5.9159778e-07
-2.4740709e-08
5.9618336e-07
-2.8311869e-08
6.0238127e-07
-3.3017018e-08
6.1290057e-07
-3.8458251e-08
6.3217957e-07
-3.7114834e-08
6.3881171e-07
-1.9055067e-08
5.3509195e-07
2.1265407e-07
1.2361229e-08
1.5788972e-07
3.409037e-08
4.8084334e-07
4.1248028e-08
6.4066681e-07
3.7061379e-08
6.5319498e-07
3.1911702e-08
6.2856091e-07
2.8141642e-08
6.1265271e-07
2.5011577e-08
6.0412643e-07
2.2175048e-08
5.9819949e-07
1.9586269e-08
5.9357573e-07
1.7225558e-08
5.8993302e-07
1.506792e-08
5.8705086e-07
1.3087126e-08
5.8475734e-07
1.125782e-08
5.8292808e-07
9.5569431e-09
5.814704e-07
7.9635623e-09
5.803142e-07
6.4583048e-09
5.7940729e-07
5.0231284e-09
5.7871095e-07
3.6411736e-09
5.781967e-07
2.2965366e-09
5.7784422e-07
9.7399549e-10
5.7763999e-07
-3.4127136e-10
5.7757638e-07
-1.6639636e-09
5.7765122e-07
-3.0089458e-09
5.7786765e-07
-4.3915307e-09
5.7823434e-07
-5.8277581e-09
5.7876599e-07
-7.3346516e-09
5.794843e-07
-8.9304193e-09
5.8041955e-07
-1.0634698e-08
5.8161296e-07
-1.2469057e-08
5.8312016e-07
-1.4457332e-08
5.8501482e-07
-1.6624765e-08
5.8739517e-07
-1.8996937e-08
5.9039675e-07
-2.1598272e-08
5.9419912e-07
-2.4463207e-08
5.990483e-07
-2.7789715e-08
6.0570778e-07
-3.2136073e-08
6.1724692e-07
-3.644515e-08
6.3648865e-07
-3.318664e-08
6.355532e-07
-1.5467442e-08
5.1737275e-07
1.9718663e-07
9.5980216e-09
1.482917e-07
2.9624873e-08
4.6081648e-07
3.828485e-08
6.3200684e-07
3.5647263e-08
6.5583256e-07
3.1034191e-08
6.3317398e-07
2.7531125e-08
6.1615578e-07
2.4656334e-08
6.0700122e-07
2.2027481e-08
6.0082834e-07
1.9588911e-08
5.960143e-07
1.7332993e-08
5.9218894e-07
1.5244332e-08
5.8913952e-07
1.3303571e-08
5.866981e-07
1.1491594e-08
5.8474006e-07
9.7907595e-09
5.8317123e-07
8.1843528e-09
5.8192061e-07
6.6562475e-09
5.8093539e-07
5.1909936e-09
5.801762e-07
3.7738549e-09
5.7961384e-07
2.390698e-09
5.7922738e-07
1.0278274e-09
5.7900286e-07
-3.2819181e-10
5.789324e-07
-1.6907118e-09
5.7901374e-07
-3.07319e-09
5.7925013e-07
-4.4893725e-09
5.7965052e-07
-5.9534725e-09
5.8023009e-07
-7.48032e-09
5.8101115e-07
-9.0854109e-09
5.8202464e-07
-1.0784892e-08
5.8331244e-07
-1.2595838e-08
5.8493111e-07
-1.4536771e-08
5.8695575e-07
-1.6627011e-08
5.8948541e-07
-1.8884218e-08
5.9265395e-07
-2.1321948e-08
5.9663685e-07
-2.3973669e-08
6.0170002e-07
-2.7060996e-08
6.0879511e-07
-3.1012556e-08
6.2119848e-07
-3.4205704e-08
6.396818e-07
-2.9462644e-08
6.3081014e-07
-1.2485707e-08
5.0039582e-07
1.8470092e-07
7.5179701e-09
1.4077373e-07
2.5774071e-08
4.4256038e-07
3.5397164e-08
6.2238374e-07
3.4134356e-08
6.5709537e-07
3.0069642e-08
6.3723869e-07
2.680846e-08
6.1941696e-07
2.4160299e-08
6.0964938e-07
2.1729044e-08
6.032596e-07
1.9442713e-08
5.9830063e-07
1.7299626e-08
5.9433203e-07
1.5291019e-08
5.9114813e-07
1.340318e-08
5.8858594e-07
1.1622563e-08
5.8652068e-07
9.9362816e-09
5.8485751e-07
8.3313202e-09
5.8352557e-07
6.7945254e-09
5.8247219e-07
5.3129587e-09
5.8165777e-07
3.8740289e-09
5.8105277e-07
2.4654498e-09
5.8063596e-07
1.0751622e-09
5.8039314e-07
-3.0875278e-10
5.8031631e-07
-1.6981647e-09
5.8040315e-07
-3.1049947e-09
5.8065696e-07
-4.5413114e-09
5.8108684e-07
-6.0194243e-09
5.817082e-07
-7.5519588e-09
5.8254369e-07
-9.1518175e-09
5.836245e-07
-1.0831958e-08
5.8499258e-07
-1.260536e-08
5.8670451e-07
-1.4485625e-08
5.8883602e-07
-1.6486897e-08
5.9148668e-07
-1.8620887e-08
5.9478794e-07
-2.0894151e-08
5.9891011e-07
-2.334423e-08
6.041501e-07
-2.6206653e-08
6.1165753e-07
-2.9748098e-08
6.2473993e-07
-3.1900628e-08
6.4183433e-07
-2.6063791e-08
6.249733e-07
-1.0066436e-08
4.8439846e-07
1.7463448e-07
5.9776006e-09
1.3479613e-07
2.2512219e-08
4.2602576e-07
3.2683559e-08
6.122124e-07
3.2602115e-08
6.5717681e-07
2.9078001e-08
6.4076281e-07
2.6033694e-08
6.2246127e-07
2.3578981e-08
6.121041e-07
2.1328049e-08
6.0551053e-07
1.9188658e-08
6.0044002e-07
1.7159208e-08
5.9636148e-07
1.5235254e-08
5.9307208e-07
1.340785e-08
5.9041335e-07
1.1668188e-08
5.8826034e-07
1.0007246e-08
5.8651845e-07
8.4150535e-09
5.8511776e-07
6.8810814e-09
5.8400616e-07
5.3947349e-09
5.8314411e-07
3.9454899e-09
5.8250202e-07
2.5228853e-09
5.8205856e-07
1.1165152e-09
5.8179951e-07
-2.8398298e-10
5.8171681e-07
-1.6889484e-09
5.8180812e-07
-3.1087266e-09
5.8207674e-07
-4.553692e-09
5.825318e-07
-6.03427e-09
5.8318878e-07
-7.5609619e-09
5.8407038e-07
-9.144282e-09
5.8520782e-07
-1.0794425e-08
5.8664273e-07
-1.2520907e-08
5.8843099e-07
-1.4333006e-08
5.9064811e-07
-1.6240296e-08
5.9339397e-07
-1.8250095e-08
5.9679774e-07
-2.0365862e-08
6.0102588e-07
-2.2633292e-08
6.0641753e-07
-2.5289489e-08
6.1431373e-07
-2.842176e-08
6.278722e-07
-2.9640679e-08
6.4305325e-07
-2.304164e-08
6.1837426e-07
-8.1402897e-09
4.6949711e-07
1.6649419e-07
4.8491215e-09
1.2994701e-07
1.9777455e-08
4.1109743e-07
3.0191029e-08
6.0179883e-07
3.1102066e-08
6.5626578e-07
2.8097645e-08
6.4376723e-07
2.5248311e-08
6.253106e-07
2.2954677e-08
6.1439773e-07
2.0863354e-08
6.0760185e-07
1.8860605e-08
6.0244277e-07
1.6940332e-08
5.9828175e-07
1.5100889e-08
5.9491152e-07
1.3337383e-08
5.9217685e-07
1.1644716e-08
5.8995301e-07
1.0016721e-08
5.8814645e-07
8.4458201e-09
5.8668867e-07
6.923749e-09
5.8552823e-07
5.4420383e-09
5.8462582e-07
3.9920807e-09
5.8395197e-07
2.5651434e-09
5.834855e-07
1.152418e-09
5.8321224e-07
-2.5493171e-10
5.8312416e-07
-1.6657373e-09
5.8321892e-07
-3.0888012e-09
5.834998e-07
-4.5328615e-09
5.8397587e-07
-6.0065545e-09
5.8466247e-07
-7.5184012e-09
5.8558222e-07
-9.0767708e-09
5.8676619e-07
-1.0689556e-08
5.8825551e-07
-1.2363558e-08
5.9010499e-07
-1.4104552e-08
5.9238911e-07
-1.5918137e-08
5.9520756e-07
-1.7808267e-08
5.9868787e-07
-1.9778464e-08
6.0299608e-07
-2.1885179e-08
6.0852424e-07
-2.4354703e-08
6.1678325e-07
-2.7090742e-08
6.3060824e-07
-2.7495613e-08
6.4345812e-07
-2.0402486e-08
6.1128113e-07
-6.6279408e-09
4.5572257e-07
1.5986625e-07
4.0268691e-09
1.2592014e-07
1.7495979e-08
3.9762832e-07
2.7934125e-08
5.9136068e-07
2.9665145e-08
6.5453476e-07
2.7151153e-08
6.4628122e-07
2.4478971e-08
6.2798278e-07
2.2317647e-08
6.1655905e-07
2.036429e-08
6.0955521e-07
1.8484977e-08
6.0432208e-07
1.6666185e-08
6.0010054e-07
1.490811e-08
5.966696e-07
1.3209141e-08
5.9387582e-07
1.1566756e-08
5.9159539e-07
9.9766849e-09
5.8973652e-07
8.4331869e-09
5.8823216e-07
6.9299386e-09
5.8703148e-07
5.4603474e-09
5.8609542e-07
4.0175223e-09
5.853948e-07
2.5943096e-09
5.8490871e-07
1.1833916e-09
5.8462316e-07
-2.2262379e-10
5.8453018e-07
-1.6311366e-09
5.8462743e-07
-3.0494918e-09
5.8491816e-07
-4.484904e-09
5.8541128e-07
-5.9443708e-09
5.8612194e-07
-7.4346225e-09
5.8707248e-07
-8.9621295e-09
5.8829369e-07
-1.0532898e-08
5.8982628e-07
-1.2151749e-08
5.9172384e-07
-1.3821902e-08
5.9405926e-07
-1.5545694e-08
5.9693135e-07
-1.732441e-08
6.0046659e-07
-1.916377e-08
6.0483544e-07
-2.1131903e-08
6.1049237e-07
-2.3433421e-08
6.1908477e-07
-2.5794647e-08
6.3296947e-07
-2.5505407e-08
6.4316888e-07
-1.8127178e-08
6.039029e-07
-5.4530323e-09
4.4304842e-07
1.5441322e-07
3.4288525e-09
1.2249128e-07
1.559482e-08
3.8546235e-07
2.5907479e-08
5.8104803e-07
2.8307401e-08
6.5213484e-07
2.6250493e-08
6.4833813e-07
2.3741813e-08
6.3049146e-07
2.1688521e-08
6.1861234e-07
1.9851924e-08
6.113918e-07
1.808154e-08
6.0609247e-07
1.635501e-08
6.0182707e-07
1.4673565e-08
5.9835104e-07
1.3037935e-08
5.9551145e-07
1.1447044e-08
5.9318628e-07
9.8977596e-09
5.912858e-07
8.3857767e-09
5.8974415e-07
6.9064294e-09
5.8851083e-07
5.4547365e-09
5.8754711e-07
4.0252938e-09
5.8682424e-07
2.6123465e-09
5.8632166e-07
1.2099288e-09
5.8602558e-07
-1.8802546e-10
5.8592813e-07
-1.5875956e-09
5.86027e-07
-2.9947912e-09
5.8632535e-07
-4.4154516e-09
5.8683194e-07
-5.8551231e-09
5.8756161e-07
-7.3189654e-09
5.8853632e-07
-8.8117896e-09
5.8978652e-07
-1.0338039e-08
5.9135253e-07
-1.1901165e-08
5.9328697e-07
-1.3502779e-08
5.9566087e-07
-1.5142852e-08
5.9857142e-07
-1.6820662e-08
6.021444e-07
-1.854534e-08
6.0656011e-07
-2.039588e-08
6.1234291e-07
-2.2546268e-08
6.2123516e-07
-2.4558973e-08
6.3498217e-07
-2.3688234e-08
6.4229814e-07
-1.6183407e-08
5.9639808e-07
-4.5492506e-09
4.3141426e-07
1.4986397e-07
2.9932377e-09
1.1949805e-07
1.4007397e-08
3.7444819e-07
2.409398e-08
5.7096144e-07
2.7034038e-08
6.4919478e-07
2.5400285e-08
6.4997188e-07
2.3045503e-08
6.3284624e-07
2.1080588e-08
6.2057726e-07
1.9340895e-08
6.131315e-07
1.7664868e-08
6.077685e-07
1.6021063e-08
6.0347088e-07
1.4410831e-08
5.9996127e-07
1.2836137e-08
5.9708614e-07
1.1296397e-08
5.9472602e-07
9.7891121e-09
5.9279309e-07
8.3111543e-09
5.9122211e-07
6.8592589e-09
5.8996272e-07
5.4297801e-09
5.8897659e-07
4.0185592e-09
5.8823546e-07
2.6210502e-09
5.8771917e-07
1.2324829e-09
5.8741414e-07
-1.5201974e-10
5.8731264e-07
-1.5373502e-09
5.8741233e-07
-2.9283237e-09
5.8771633e-07
-4.3295708e-09
5.8823318e-07
-5.7453928e-09
5.8897743e-07
-7.1796195e-09
5.8997055e-07
-8.6356409e-09
5.9124254e-07
-1.0116577e-08
5.9283347e-07
-1.1624935e-08
5.9479533e-07
-1.3161541e-08
5.9719748e-07
-1.4725018e-08
6.001349e-07
-1.6313457e-08
6.0373284e-07
-1.7939915e-08
6.0818657e-07
-1.9691886e-08
6.1409489e-07
-2.1705563e-08
6.2324883e-07
-2.3397549e-08
6.3667416e-07
-2.204626e-08
6.4094685e-07
-1.4532619e-08
5.8888444e-07
-3.8610132e-09
4.2074266e-07
1.4600296e-07
2.6729504e-09
1.168251e-07
1.2675293e-08
3.6444585e-07
2.2470845e-08
5.6116589e-07
2.5843168e-08
6.4582245e-07
2.4600111e-08
6.5121494e-07
2.2393148e-08
6.3505321e-07
2.0501425e-08
6.2246898e-07
1.8840935e-08
6.1479199e-07
1.7245655e-08
6.0936378e-07
1.5675503e-08
6.0504103e-07
1.4130884e-08
6.0150589e-07
1.2613901e-08
5.9860313e-07
1.1123802e-08
5.9621612e-07
9.6584794e-09
5.9425841e-07
8.2158147e-09
5.9266477e-07
6.7936888e-09
5.9138485e-07
5.3895109e-09
5.9038077e-07
4.0001318e-09
5.8962484e-07
2.622027e-09
5.8909728e-07
1.2514638e-09
5.8878471e-07
-1.153923e-10
5.8867949e-07
-1.4823895e-09
5.8877933e-07
-2.8532986e-09
5.8908724e-07
-4.2317111e-09
5.896116e-07
-5.6208914e-09
5.9036661e-07
-7.0235919e-09
5.9137325e-07
-8.442031e-09
5.9266098e-07
-9.8781961e-09
5.9426963e-07
-1.1333889e-08
5.9625102e-07
-1.2809735e-08
5.9867333e-07
-1.4303992e-08
6.0162915e-07
-1.5814528e-08
6.0524337e-07
-1.7358445e-08
6.0973049e-07
-1.9028311e-08
6.1576475e-07
-2.0916964e-08
6.2513749e-07
-2.2315263e-08
6.3807245e-07
-2.0570947e-08
6.3920253e-07
-1.3134104e-08
5.8144759e-07
-3.340972e-09
4.1094953e-07
1.4266198e-07
2.4317504e-09
1.1439335e-07
1.1548474e-08
3.5532913e-07
2.1013976e-08
5.5170039e-07
2.4729291e-08
6.4210714e-07
2.384665e-08
6.5209758e-07
2.1783962e-08
6.3711589e-07
1.9954268e-08
6.2429868e-07
1.8358022e-08
6.1638823e-07
1.6831569e-08
6.1089023e-07
1.5326927e-08
6.0654567e-07
1.38424e-08
6.0299042e-07
1.2379348e-08
6.0006618e-07
1.0936553e-08
5.9765892e-07
9.5122629e-09
5.956827e-07
8.1052334e-09
5.940718e-07
6.714221e-09
5.9277586e-07
5.3374161e-09
5.9175757e-07
3.9724627e-09
5.9098979e-07
2.6166856e-09
5.9045305e-07
1.2672366e-09
5.9013415e-07
-7.8823037e-11
5.9002555e-07
-1.4244417e-09
5.9012495e-07
-2.7724944e-09
5.9043529e-07
-4.1256957e-09
5.909648e-07
-5.4864703e-09
5.9172738e-07
-6.8567422e-09
5.9274352e-07
-8.2378234e-09
5.9404206e-07
-9.63075e-09
5.9566256e-07
-1.1036713e-08
5.9765698e-07
-1.2456419e-08
6.0009303e-07
-1.3888529e-08
6.0306126e-07
-1.5331703e-08
6.0668655e-07
-1.6807082e-08
6.1120587e-07
-1.8408484e-08
6.1736615e-07
-2.0181361e-08
6.2691036e-07
-2.1311185e-08
6.3920228e-07
-1.9247842e-08
6.3713919e-07
-1.194782e-08
5.7414757e-07
-2.9481477e-09
4.0194985e-07
1.3971384e-07
2.2425457e-09
1.121508e-07
1.0585248e-08
3.4698643e-07
1.9700633e-08
5.42585e-07
2.3685779e-08
6.3812199e-07
2.3135475e-08
6.5264788e-07
2.1214948e-08
6.3903642e-07
1.9439471e-08
6.2607416e-07
1.7895421e-08
6.1793229e-07
1.6427858e-08
6.1235779e-07
1.4981649e-08
6.0799188e-07
1.3551911e-08
6.0442016e-07
1.2138708e-08
6.0147938e-07
1.0740391e-08
5.9905723e-07
9.3556438e-09
5.9706745e-07
7.9839411e-09
5.954435e-07
6.6246365e-09
5.9413517e-07
5.2764541e-09
5.9310575e-07
3.9376475e-09
5.923286e-07
2.6062397e-09
5.9178446e-07
1.2801236e-09
5.9146027e-07
-4.28837e-11
5.9134856e-07
-1.3649716e-09
5.9144704e-07
-2.6882609e-09
5.9175858e-07
-4.0147372e-09
5.9229127e-07
-5.3461583e-09
5.9305881e-07
-6.6838472e-09
5.9408121e-07
-8.0284802e-09
5.9538669e-07
-9.3803394e-09
5.9701442e-07
-1.0740021e-08
5.9901666e-07
-1.2108334e-08
6.0146134e-07
-1.3484783e-08
6.0443771e-07
-1.486975e-08
6.0807152e-07
-1.6288447e-08
6.1262457e-07
-1.7832306e-08
6.1891001e-07
-1.9496798e-08
6.2857486e-07
-2.0381265e-08
6.4008675e-07
-1.8060233e-08
6.3481816e-07
-1.0936692e-08
5.6702403e-07
-2.6480394e-09
3.936612e-07
1.370658e-07
2.0866411e-09
1.1006416e-07
9.7522263e-09
3.3932084e-07
1.8510796e-08
5.3382643e-07
2.270613e-08
6.3392666e-07
2.2462108e-08
6.5289191e-07
2.0682254e-08
6.4081628e-07
1.8955875e-08
6.2780053e-07
1.7454685e-08
6.1943347e-07
1.6037913e-08
6.1377456e-07
1.4643997e-08
6.093858e-07
1.326401e-08
6.0580014e-07
1.1896516e-08
6.0284688e-07
1.0539686e-08
6.0041406e-07
9.1927178e-09
5.9841442e-07
7.8556118e-09
5.9678061e-07
6.528049e-09
5.9546273e-07
5.2090859e-09
5.9442472e-07
3.897444e-09
5.9364024e-07
2.5917166e-09
5.9309019e-07
1.2904082e-09
5.9276158e-07
-8.0389526e-12
5.9264701e-07
-1.3051877e-09
5.9274419e-07
-2.6025354e-09
5.9305592e-07
-3.9014679e-09
5.9359021e-07
-5.2032171e-09
5.9436056e-07
-6.5086921e-09
5.9538668e-07
-7.8181874e-09
5.9669619e-07
-9.1314573e-09
5.9832769e-07
-1.0448524e-08
6.0033373e-07
-1.1770144e-08
6.0278296e-07
-1.3096798e-08
6.0576437e-07
-1.4431301e-08
6.0940602e-07
-1.5802991e-08
6.1399626e-07
-1.7297775e-08
6.204048e-07
-1.8859903e-08
6.3013698e-07
-1.9520036e-08
6.4074688e-07
-1.699148e-08
6.322896e-07
-1.0068425e-08
5.6010097e-07
-2.4135942e-09
3.8600637e-07
1.346522e-07
1.9525494e-09
1.0811161e-07
9.0239214e-09
3.3224947e-07
1.7427699e-08
5.2542265e-07
2.1784394e-08
6.2956996e-07
2.1822383e-08
6.5285392e-07
2.0181959e-08
6.424567e-07
1.8501757e-08
6.2948074e-07
1.7036431e-08
6.208988e-07
1.5663802e-08
6.1514719e-07
1.4316712e-08
6.1073289e-07
1.2981701e-08
6.0713515e-07
1.1655925e-08
6.0417265e-07
1.0337673e-08
6.0173232e-07
9.0266601e-09
5.9972543e-07
7.7231676e-09
5.980841e-07
6.4269708e-09
5.9675893e-07
5.137318e-09
5.9571437e-07
3.8532989e-09
5.9492426e-07
2.5739728e-09
5.9436951e-07
1.2983404e-09
5.9403721e-07
2.5348699e-11
5.9392e-07
-1.2460575e-09
5.9401559e-07
-2.5168697e-09
5.9432674e-07
-3.7879858e-09
5.9486132e-07
-5.0602177e-09
5.9563279e-07
-6.334196e-09
5.9666066e-07
-7.6100479e-09
5.9797204e-07
-8.8872498e-09
5.9960489e-07
-1.0165334e-08
6.0161182e-07
-1.1444821e-08
6.0406245e-07
-1.272705e-08
6.070466e-07
-1.4017655e-08
6.1069662e-07
-1.535004e-08
6.1532864e-07
-1.680201e-08
6.2185677e-07
-1.8266635e-08
6.3160161e-07
-1.8721455e-08
6.412017e-07
-1.6026297e-08
6.2959444e-07
-9.316511e-09
5.5339119e-07
-2.2254238e-09
3.7891528e-07
1.3242678e-07
1.834023e-09
1.0627759e-07
8.3816229e-09
3.2570187e-07
1.6437795e-08
5.1736648e-07
2.0915258e-08
6.250925e-07
2.1212473e-08
6.525567e-07
1.9710347e-08
6.4395883e-07
1.8075249e-08
6.3111583e-07
1.6640732e-08
6.2233332e-07
1.5306662e-08
6.1648126e-07
1.4001375e-08
6.1203817e-07
1.2706843e-08
6.0842969e-07
1.1419089e-08
6.0546041e-07
1.0136743e-08
6.0301466e-07
8.8599148e-09
6.0100226e-07
7.5889005e-09
5.9935512e-07
6.3233939e-09
5.9802443e-07
5.0627573e-09
5.96975e-07
3.8063843e-09
5.9618063e-07
2.5537137e-09
5.9562218e-07
1.3041409e-09
5.9528678e-07
5.7011181e-11
5.9516713e-07
-1.188329e-09
5.9526093e-07
-2.4324702e-09
5.9557088e-07
-3.6759172e-09
5.9610477e-07
-4.9191384e-09
5.9687601e-07
-6.1625687e-09
5.9790409e-07
-7.406325e-09
5.992158e-07
-8.649857e-09
6.0084842e-07
-9.892385e-09
6.0285434e-07
-1.1134078e-08
6.0530415e-07
-1.2376878e-08
6.082894e-07
-1.3629256e-08
6.11949e-07
-1.4928336e-08
6.1662772e-07
-1.6341744e-08
6.2327018e-07
-1.7712623e-08
6.3297249e-07
-1.7979324e-08
6.414684e-07
-1.5151294e-08
6.2676642e-07
-8.6601607e-09
5.4690006e-07
-2.0706745e-09
3.723258e-07
1.303561e-07
1.7278257e-09
1.0454976e-07
7.8116697e-09
3.1961802e-07
1.5530292e-08
5.0964786e-07
2.0094092e-08
6.205287e-07
2.0628925e-08
6.5202187e-07
1.9263975e-08
6.4532378e-07
1.7674404e-08
6.327054e-07
1.6267205e-08
6.2374051e-07
1.4966904e-08
6.1778156e-07
1.3698759e-08
6.1330632e-07
1.2440558e-08
6.0968789e-07
1.1187524e-08
6.0671344e-07
9.9387079e-09
6.0426348e-07
8.6943777e-09
6.0224659e-07
7.4545975e-09
6.005949e-07
6.218879e-09
5.9926015e-07
4.9866736e-09
5.9820721e-07
3.7576381e-09
5.9740967e-07
2.5315163e-09
5.9684831e-07
1.3080073e-09
5.9651029e-07
8.6762919e-11
5.9638837e-07
-1.1325615e-09
5.9648026e-07
-2.3502469e-09
5.9678856e-07
-3.566489e-09
5.9732101e-07
-4.7814703e-09
5.9809099e-07
-5.9954679e-09
5.9911809e-07
-7.2086781e-09
6.0042901e-07
-8.4207419e-09
6.0206048e-07
-9.6308164e-09
6.0406442e-07
-1.0838731e-08
6.0651206e-07
-1.2046746e-08
6.0949741e-07
-1.3265858e-08
6.1316811e-07
-1.4536199e-08
6.1789806e-07
-1.5913529e-08
6.246475e-07
-1.7193401e-08
6.3425236e-07
-1.7287602e-08
6.415626e-07
-1.4355019e-08
6.2383383e-07
-8.0833478e-09
5.4062838e-07
-1.9410374e-09
3.6618349e-07
1.2841507e-07
1.6319401e-09
1.0291782e-07
7.3036012e-09
3.1394636e-07
1.4696407e-08
5.0225505e-07
1.9316944e-08
6.1590817e-07
2.006877e-08
6.5127004e-07
1.8839726e-08
6.4655282e-07
1.7297162e-08
6.3424797e-07
1.5914992e-08
6.2512269e-07
1.4644317e-08
6.1905224e-07
1.3409066e-08
6.1454157e-07
1.2183514e-08
6.1091344e-07
1.0962362e-08
6.0793459e-07
9.744988e-09
6.0548085e-07
8.5315315e-09
6.0346004e-07
7.3216447e-09
6.0180478e-07
6.1146364e-09
6.0046716e-07
4.910061e-09
5.9941179e-07
3.707807e-09
5.9861192e-07
2.5078518e-09
5.9804826e-07
1.3101191e-09
5.9770803e-07
1.1448801e-10
5.97584e-07
-1.0791555e-09
5.976739e-07
-2.2708643e-09
5.9798027e-07
-3.4606005e-09
5.9851075e-07
-4.6483112e-09
5.992787e-07
-5.8341231e-09
6.003039e-07
-7.0183335e-09
6.0161322e-07
-8.200922e-09
6.0324307e-07
-9.3812506e-09
6.0524475e-07
-1.0558948e-08
6.0768976e-07
-1.1736382e-08
6.1067485e-07
-1.2926553e-08
6.1435828e-07
-1.4171562e-08
6.1914307e-07
-1.5513892e-08
6.2598983e-07
-1.6704694e-08
6.3544316e-07
-1.6640676e-08
6.4149858e-07
-1.3627691e-08
6.2082085e-07
-7.5734435e-09
5.3457414e-07
-1.8307786e-09
3.6044082e-07
1.2658429e-07
1.5445862e-09
1.0137323e-07
6.8487179e-09
3.0864223e-07
1.392861e-08
4.9517516e-07
1.8580466e-08
6.1125631e-07
1.9529649e-08
6.5032086e-07
1.843491e-08
6.4764756e-07
1.6941397e-08
6.3574148e-07
1.5582792e-08
6.2648129e-07
1.4338178e-08
6.2029685e-07
1.3132099e-08
6.1574765e-07
1.1936096e-08
6.1210944e-07
1.0744471e-08