/*--------------------------------*- C++ -*----------------------------------*\
  =========                 |
  \\      /  F ield         | OpenFOAM: The Open Source CFD Toolbox
   \\    /   O peration     | Website:  https://openfoam.org
    \\  /    A nd           | Version:  10
     \\/     M anipulation  |
\*---------------------------------------------------------------------------*/
FoamFile
{
    format      ascii;
    class       volScalarField;
    location    "0.01";
    object      T;
}
// * * * * * * * * * * * * * * * * * * * * * * * * * * * * * * * * * * * * * //

dimensions      [0 0 0 1 0 0 0];

internalField   nonuniform List<scalar> 
4000
(
302.75021
299.67204
299.99368
300.00065
299.99995
300
300
300
300
300
300
300
300
300
300
300
300
300
300
300
300
300
300
300
300
300
300
300
300
300
300
300
300
300
300
300
300
300
300
300
308.87704
299.06161
299.81833
299.99949
300.00058
299.99999
300
300
300
300
300
300
300
300
300
300
300
300
300
300
300
300
300
300
300
300
300
300
300
300
300
300
300
300
300
300
300
300
300
300
315.06149
299.17469
299.48555
299.9747
300.00298
300.00022
299.99999
300
300
300
300
300
300
300
300
300
300
300
300
300
300
300
300
300
300
300
300
300
300
300
300
300
300
300
300
300
300
300
300
300
320.84981
300.16135
299.12464
299.90254
300.0051
300.00118
300.00001
299.99999
300
300
300
300
300
300
300
300
300
300
300
300
300
300
300
300
300
300
300
300
300
300
300
300
300
300
300
300
300
300
300
300
325.95929
301.86571
298.87519
299.77509
300.00095
300.00322
300.00017
299.99998
300
300
300
300
300
300
300
300
300
300
300
300
300
300
300
300
300
300
300
300
300
300
300
300
300
300
300
300
300
300
300
300
330.19827
304.02615
298.83336
299.60673
299.98321
300.00592
300.00065
299.99998
299.99999
300
300
300
300
300
300
300
300
300
300
300
300
300
300
300
300
300
300
300
300
300
300
300
300
300
300
300
300
300
300
300
333.49386
306.38008
299.03409
299.42749
299.94693
300.0079
300.00163
300.00001
299.99998
300
300
300
300
300
300
300
300
300
300
300
300
300
300
300
300
300
300
300
300
300
300
300
300
300
300
300
300
300
300
300
335.90278
308.72366
299.46132
299.2701
299.89166
300.0072
300.00309
300.00014
299.99997
300
300
300
300
300
300
300
300
300
300
300
300
300
300
300
300
300
300
300
300
300
300
300
300
300
300
300
300
300
300
300
337.56922
310.92751
300.07082
299.1602
299.82125
300.00194
300.00484
300.00044
299.99996
299.99999
300
300
300
300
300
300
300
300
300
300
300
300
300
300
300
300
300
300
300
300
300
300
300
300
300
300
300
300
300
300
338.67166
312.92539
300.80996
299.11284
299.74223
299.99084
300.00646
300.00093
299.99997
299.99999
300
300
300
300
300
300
300
300
300
300
300
300
300
300
300
300
300
300
300
300
300
300
300
300
300
300
300
300
300
300
339.3826
314.69609
301.6298
299.13327
299.66196
299.97347
300.00743
300.00163
300.00002
299.99998
300
300
300
300
300
300
300
300
300
300
300
300
300
300
300
300
300
300
300
300
300
300
300
300
300
300
300
300
300
300
339.84473
316.24677
302.4908
299.21961
299.58727
299.95023
300.00725
300.00247
300.00012
299.99997
300
300
300
300
300
300
300
300
300
300
300
300
300
300
300
300
300
300
300
300
300
300
300
300
300
300
300
300
300
300
340.16224
317.59962
303.36412
299.36577
299.52368
299.92211
300.0055
300.00338
300.00029
299.99996
299.99999
300
300
300
300
300
300
300
300
300
300
300
300
300
300
300
300
300
300
300
300
300
300
300
300
300
300
300
300
300
340.40328
318.78245
304.23035
299.56374
299.47518
299.89052
300.00187
300.00422
300.00054
299.99997
299.99999
300
300
300
300
300
300
300
300
300
300
300
300
300
300
300
300
300
300
300
300
300
300
300
300
300
300
300
300
300
340.60778
319.82305
305.07737
299.80515
299.4443
299.85702
299.99625
300.00487
300.00085
299.99999
299.99998
300
300
300
300
300
300
300
300
300
300
300
300
300
300
300
300
300
300
300
300
300
300
300
300
300
300
300
300
300
340.79638
320.74618
305.89825
300.0821
299.43239
299.82315
299.98863
300.00519
300.00122
300.00003
299.99998
300
300
300
300
300
300
300
300
300
300
300
300
300
300
300
300
300
300
300
300
300
300
300
300
300
300
300
300
300
340.97801
321.57259
306.68956
300.38764
299.43983
299.79032
299.97915
300.00507
300.00162
300.0001
299.99998
300
300
300
300
300
300
300
300
300
300
300
300
300
300
300
300
300
300
300
300
300
300
300
300
300
300
300
300
300
341.15556
322.3191
307.45008
300.71584
299.4664
299.75981
299.96803
300.0044
300.00203
300.00019
299.99998
299.99999
300
300
300
300
300
300
300
300
300
300
300
300
300
300
300
300
300
300
300
300
300
300
300
300
300
300
300
300
341.32938
322.99931
308.17994
301.06174
299.51146
299.7327
299.95556
300.00312
300.0024
300.0003
299.99998
299.99999
300
300
300
300
300
300
300
300
300
300
300
300
300
300
300
300
300
300
300
300
300
300
300
300
300
300
300
300
341.49905
323.6242
308.88006
301.42123
299.57411
299.70988
299.94206
300.00118
300.00271
300.00044
299.99999
299.99999
300
300
300
300
300
300
300
300
300
300
300
300
300
300
300
300
300
300
300
300
300
300
300
300
300
300
300
300
341.66391
324.20255
309.55174
301.79086
299.65327
299.6921
299.9279
299.99856
300.00291
300.00059
300.00001
299.99999
300
300
300
300
300
300
300
300
300
300
300
300
300
300
300
300
300
300
300
300
300
300
300
300
300
300
300
300
341.8231
324.7411
310.19638
302.16778
299.74781
299.67993
299.91345
299.99526
300.00297
300.00076
300.00004
299.99999
300
300
300
300
300
300
300
300
300
300
300
300
300
300
300
300
300
300
300
300
300
300
300
300
300
300
300
300
341.97567
325.24479
310.81522
302.54959
299.85654
299.67378
299.89907
299.99133
300.00286
300.00093
300.00007
299.99999
300
300
300
300
300
300
300
300
300
300
300
300
300
300
300
300
300
300
300
300
300
300
300
300
300
300
300
300
342.12076
325.71713
311.40934
302.93429
299.97829
299.67394
299.88509
299.9868
300.00257
300.0011
300.00012
299.99999
300
300
300
300
300
300
300
300
300
300
300
300
300
300
300
300
300
300
300
300
300
300
300
300
300
300
300
300
342.25799
326.16082
311.97967
303.3202
300.11192
299.68058
299.87185
299.98175
300.00205
300.00125
300.00017
299.99999
299.99999
300
300
300
300
300
300
300
300
300
300
300
300
300
300
300
300
300
300
300
300
300
300
300
300
300
300
300
342.38757
326.57826
312.52716
303.70592
300.25635
299.6938
299.85963
299.97624
300.00131
300.00137
300.00023
300
299.99999
300
300
300
300
300
300
300
300
300
300
300
300
300
300
300
300
300
300
300
300
300
300
300
300
300
300
300
342.51026
326.97191
313.0529
304.09033
300.41056
299.71362
299.84873
299.97037
300.00032
300.00145
300.00029
300.00001
299.99999
300
300
300
300
300
300
300
300
300
300
300
300
300
300
300
300
300
300
300
300
300
300
300
300
300
300
300
342.62703
327.34435
313.55815
304.47251
300.57355
299.74
299.83939
299.96423
299.9991
300.00149
300.00036
300.00002
299.99999
300
300
300
300
300
300
300
300
300
300
300
300
300
300
300
300
300
300
300
300
300
300
300
300
300
300
300
342.73876
327.69807
314.04427
304.85175
300.7444
299.77286
299.83187
299.95793
299.99763
300.00147
300.00043
300.00004
299.99999
300
300
300
300
300
300
300
300
300
300
300
300
300
300
300
300
300
300
300
300
300
300
300
300
300
300
300
342.84594
328.03517
314.51256
305.22746
300.92223
299.81206
299.82637
299.95157
299.99592
300.00139
300.00049
300.00005
300
300
300
300
300
300
300
300
300
300
300
300
300
300
300
300
300
300
300
300
300
300
300
300
300
300
300
300
342.94869
328.35712
314.96408
305.59914
301.10621
299.85743
299.82307
299.94527
299.99399
300.00123
300.00055
300.00007
300
300
300
300
300
300
300
300
300
300
300
300
300
300
300
300
300
300
300
300
300
300
300
300
300
300
300
300
343.0468
328.6648
315.3996
305.96633
301.29559
299.90877
299.82211
299.93914
299.99186
300.00099
300.00061
300.0001
300
300
300
300
300
300
300
300
300
300
300
300
300
300
300
300
300
300
300
300
300
300
300
300
300
300
300
300
343.14008
328.9586
315.81962
306.32859
301.48966
299.96586
299.8236
299.93326
299.98954
300.00066
300.00065
300.00012
300
300
300
300
300
300
300
300
300
300
300
300
300
300
300
300
300
300
300
300
300
300
300
300
300
300
300
300
343.22848
329.23881
316.22447
306.68549
301.68779
300.02847
299.82765
299.92774
299.98706
300.00025
300.00068
300.00015
300.00001
300
300
300
300
300
300
300
300
300
300
300
300
300
300
300
300
300
300
300
300
300
300
300
300
300
300
300
343.31232
329.5059
316.61453
307.03669
301.88939
300.09637
299.83433
299.92268
299.98444
299.99974
300.00068
300.00017
300.00001
300
300
300
300
300
300
300
300
300
300
300
300
300
300
300
300
300
300
300
300
300
300
300
300
300
300
300
343.39223
329.76074
316.99037
307.38197
302.09393
300.16933
299.84369
299.91816
299.98172
299.99915
300.00067
300.0002
300.00002
300
300
300
300
300
300
300
300
300
300
300
300
300
300
300
300
300
300
300
300
300
300
300
300
300
300
300
343.46902
330.00459
317.35282
307.72125
302.30093
300.2471
299.85578
299.91428
299.97892
299.99846
300.00063
300.00022
300.00003
300
300
300
300
300
300
300
300
300
300
300
300
300
300
300
300
300
300
300
300
300
300
300
300
300
300
300
343.54347
330.23897
317.70294
308.0546
302.50997
300.32944
299.87063
299.91112
299.97609
299.99768
300.00057
300.00025
300.00004
300
300
300
300
300
300
300
300
300
300
300
300
300
300
300
300
300
300
300
300
300
300
300
300
300
300
300
343.61615
330.46535
318.0419
308.38219
302.72068
300.4161
299.88827
299.90876
299.97325
299.99681
300.00047
300.00027
300.00005
300
300
300
300
300
300
300
300
300
300
300
300
300
300
300
300
300
300
300
300
300
300
300
300
300
300
300
343.68727
330.68489
318.3708
308.70424
302.93271
300.50681
299.90868
299.9073
299.97046
299.99587
300.00035
300.00028
300.00005
300
300
300
300
300
300
300
300
300
300
300
300
300
300
300
300
300
300
300
300
300
300
300
300
300
300
300
343.7567
330.89824
318.69049
309.02095
303.14575
300.60132
299.93186
299.90679
299.96774
299.99485
300.00019
300.00029
300.00006
300.00001
300
300
300
300
300
300
300
300
300
300
300
300
300
300
300
300
300
300
300
300
300
300
300
300
300
300
343.82404
331.10547
319.00145
309.33238
303.35951
300.6994
299.95778
299.9073
299.96514
299.99376
299.99999
300.00029
300.00007
300.00001
300
300
300
300
300
300
300
300
300
300
300
300
300
300
300
300
300
300
300
300
300
300
300
300
300
300
343.8888
331.30621
319.30379
309.63848
303.57367
300.80081
299.98641
299.90888
299.96269
299.99262
299.99976
300.00029
300.00008
300.00001
300
300
300
300
300
300
300
300
300
300
300
300
300
300
300
300
300
300
300
300
300
300
300
300
300
300
343.95058
331.49987
319.59735
309.93909
303.78795
300.90532
300.01771
299.91157
299.96042
299.99143
299.9995
300.00028
300.00009
300.00001
300
300
300
300
300
300
300
300
300
300
300
300
300
300
300
300
300
300
300
300
300
300
300
300
300
300
344.00924
331.68594
319.88184
310.23397
304.00202
301.01273
300.05162
299.91542
299.95838
299.9902
299.99919
300.00025
300.0001
300.00002
300
300
300
300
300
300
300
300
300
300
300
300
300
300
300
300
300
300
300
300
300
300
300
300
300
300
344.06495
331.86424
320.15709
310.52288
304.2156
301.12284
300.08812
299.92046
299.95658
299.98894
299.99886
300.00022
300.00011
300.00002
300
300
300
300
300
300
300
300
300
300
300
300
300
300
300
300
300
300
300
300
300
300
300
300
300
300
344.11818
332.03509
320.42317
310.80571
304.42846
301.23545
300.12716
299.92672
299.95508
299.98767
299.99848
300.00017
300.00012
300.00002
300
300
300
300
300
300
300
300
300
300
300
300
300
300
300
300
300
300
300
300
300
300
300
300
300
300
344.16962
332.1993
320.6805
311.08249
304.64039
301.3504
300.16867
299.93423
299.95389
299.9864
299.99807
300.00011
300.00012
300.00003
300
300
300
300
300
300
300
300
300
300
300
300
300
300
300
300
300
300
300
300
300
300
300
300
300
300
344.21999
332.35809
320.92987
311.35347
304.85127
301.4675
300.2126
299.94303
299.95305
299.98513
299.99764
300.00004
300.00012
300.00003
300
300
300
300
300
300
300
300
300
300
300
300
300
300
300
300
300
300
300
300
300
300
300
300
300
300
344.26993
332.5128
321.17233
311.61905
305.06107
301.58659
300.25889
299.95312
299.9526
299.98389
299.99717
299.99996
300.00012
300.00003
300
300
300
300
300
300
300
300
300
300
300
300
300
300
300
300
300
300
300
300
300
300
300
300
300
300
344.31979
332.66467
321.40899
311.87978
305.26978
301.70753
300.30746
299.96453
299.95257
299.9827
299.99667
299.99986
300.00011
300.00004
300.00001
300
300
300
300
300
300
300
300
300
300
300
300
300
300
300
300
300
300
300
300
300
300
300
300
300
344.36963
332.81456
321.64089
312.13618
305.47744
301.83016
300.35824
299.97728
299.953
299.98156
299.99615
299.99974
300.00011
300.00004
300.00001
300
300
300
300
300
300
300
300
300
300
300
300
300
300
300
300
300
300
300
300
300
300
300
300
300
344.41918
332.9628
321.86874
312.38873
305.68411
301.95435
300.41113
299.99136
299.95391
299.9805
299.99562
299.99961
300.00009
300.00004
300.00001
300
300
300
300
300
300
300
300
300
300
300
300
300
300
300
300
300
300
300
300
300
300
300
300
300
344.46791
333.10911
322.09285
312.6377
305.88977
302.07995
300.46606
300.00677
299.95533
299.97953
299.99506
299.99947
300.00008
300.00005
300.00001
300
300
300
300
300
300
300
300
300
300
300
300
300
300
300
300
300
300
300
300
300
300
300
300
300
344.5152
333.25275
322.31308
312.88314
306.09436
302.20685
300.52295
300.02352
299.95728
299.97866
299.9945
299.99931
300.00006
300.00005
300.00001
300
300
300
300
300
300
300
300
300
300
300
300
300
300
300
300
300
300
300
300
300
300
300
300
300
344.56042
333.39266
322.52889
313.12487
306.29774
302.33488
300.58171
300.0416
299.95979
299.97792
299.99393
299.99914
300.00003
300.00005
300.00001
300
300
300
300
300
300
300
300
300
300
300
300
300
300
300
300
300
300
300
300
300
300
300
300
300
344.60315
333.52774
322.7395
313.36253
306.49969
302.46391
300.64229
300.061
299.96286
299.97731
299.99336
299.99895
300
300.00005
300.00001
300
300
300
300
300
300
300
300
300
300
300
300
300
300
300
300
300
300
300
300
300
300
300
300
300
344.64323
333.65713
322.9441
313.59562
306.69995
302.59378
300.70461
300.08172
299.96653
299.97684
299.9928
299.99875
299.99996
300.00005
300.00001
300
300
300
300
300
300
300
300
300
300
300
300
300
300
300
300
300
300
300
300
300
300
300
300
300
344.68082
333.78039
323.14204
313.82369
306.89823
302.72434
300.76862
300.10376
299.97079
299.97653
299.99224
299.99854
299.99992
300.00004
300.00002
300
300
300
300
300
300
300
300
300
300
300
300
300
300
300
300
300
300
300
300
300
300
300
300
300
344.71637
333.8977
323.33304
314.0464
307.09428
302.85544
300.83426
300.12712
299.97568
299.97639
299.99169
299.99832
299.99987
300.00004
300.00002
300
300
300
300
300
300
300
300
300
300
300
300
300
300
300
300
300
300
300
300
300
300
300
300
300
344.75058
334.00977
323.51725
314.26364
307.28795
302.98696
300.90147
300.15178
299.9812
299.97644
299.99116
299.99809
299.99982
300.00003
300.00002
300
300
300
300
300
300
300
300
300
300
300
300
300
300
300
300
300
300
300
300
300
300
300
300
300
344.78423
334.11784
323.69532
314.47557
307.47916
303.11879
300.97019
300.17775
299.98737
299.97668
299.99066
299.99785
299.99976
300.00003
300.00002
300
300
300
300
300
300
300
300
300
300
300
300
300
300
300
300
300
300
300
300
300
300
300
300
300
344.81807
334.22341
323.86832
314.68267
307.66801
303.25086
301.04036
300.205
299.99421
299.97714
299.99019
299.9976
299.99969
300.00002
300.00002
300
300
300
300
300
300
300
300
300
300
300
300
300
300
300
300
300
300
300
300
300
300
300
300
300
344.8527
334.32802
324.03754
314.88561
307.85469
303.38315
301.11191
300.23353
300.00172
299.97783
299.98975
299.99734
299.99962
300
300.00002
300.00001
300
300
300
300
300
300
300
300
300
300
300
300
300
300
300
300
300
300
300
300
300
300
300
300
344.88843
334.43299
324.20436
315.08524
308.0395
303.51565
301.18478
300.26329
300.00993
299.97876
299.98937
299.99708
299.99954
299.99999
300.00002
300.00001
300
300
300
300
300
300
300
300
300
300
300
300
300
300
300
300
300
300
300
300
300
300
300
300
344.92525
334.53917
324.36998
315.2824
308.2228
303.64839
301.2589
300.29427
300.01882
299.97995
299.98903
299.99682
299.99946
299.99998
300.00002
300.00001
300
300
300
300
300
300
300
300
300
300
300
300
300
300
300
300
300
300
300
300
300
300
300
300
344.96282
334.64682
324.53524
315.47782
308.4049
303.7814
301.33422
300.32643
300.02842
299.98141
299.98876
299.99657
299.99937
299.99996
300.00001
300.00001
300
300
300
300
300
300
300
300
300
300
300
300
300
300
300
300
300
300
300
300
300
300
300
300
345.00055
334.75553
324.70049
315.67201
308.5861
303.91472
301.41068
300.35973
300.03871
299.98316
299.98856
299.99631
299.99927
299.99994
300.00001
300.00001
300
300
300
300
300
300
300
300
300
300
300
300
300
300
300
300
300
300
300
300
300
300
300
300
345.03766
334.86434
324.8655
315.86514
308.76653
304.04835
301.48822
300.39413
300.04971
299.9852
299.98844
299.99606
299.99917
299.99991
300.00001
300.00001
300
300
300
300
300
300
300
300
300
300
300
300
300
300
300
300
300
300
300
300
300
300
300
300
345.07334
334.97182
325.02954
316.05705
308.94617
304.18223
301.56677
300.42962
300.0614
299.98754
299.9884
299.99582
299.99907
299.99989
300.00001
300.00001
300
300
300
300
300
300
300
300
300
300
300
300
300
300
300
300
300
300
300
300
300
300
300
300
345.10689
335.07637
325.19145
316.24723
309.12486
304.3163
301.64629
300.46615
300.07379
299.99019
299.98845
299.99559
299.99896
299.99986
300
300.00001
300
300
300
300
300
300
300
300
300
300
300
300
300
300
300
300
300
300
300
300
300
300
300
300
345.1378
335.17646
325.34985
316.43492
309.30225
304.45039
301.72671
300.50372
300.08687
299.99316
299.9886
299.99538
299.99885
299.99983
300
300.00001
300
300
300
300
300
300
300
300
300
300
300
300
300
300
300
300
300
300
300
300
300
300
300
300
345.16585
335.27087
325.50335
316.61921
309.47789
304.58433
301.80796
300.5423
300.10066
299.99646
299.98884
299.99518
299.99874
299.9998
299.99999
300.00001
300
300
300
300
300
300
300
300
300
300
300
300
300
300
300
300
300
300
300
300
300
300
300
300
345.19115
335.35892
325.6508
316.79919
309.65128
304.7179
301.88997
300.58189
300.11516
300.0001
299.98919
299.99499
299.99863
299.99976
299.99999
300.00001
300
300
300
300
300
300
300
300
300
300
300
300
300
300
300
300
300
300
300
300
300
300
300
300
345.21414
335.44058
325.79148
316.9741
309.82193
304.85087
301.97268
300.62248
300.13038
300.00407
299.98965
299.99483
299.99851
299.99973
299.99998
300
300
300
300
300
300
300
300
300
300
300
300
300
300
300
300
300
300
300
300
300
300
300
300
300
345.23554
335.51651
325.92522
317.14348
309.98945
304.98303
302.056
300.66405
300.14632
300.0084
299.99022
299.99469
299.99839
299.99969
299.99997
300
300
300
300
300
300
300
300
300
300
300
300
300
300
300
300
300
300
300
300
300
300
300
300
300
345.25622
335.58798
326.0525
317.30722
310.15362
305.11423
302.13988
300.7066
300.163
300.01309
299.99092
299.99457
299.99828
299.99964
299.99996
300
300
300
300
300
300
300
300
300
300
300
300
300
300
300
300
300
300
300
300
300
300
300
300
300
345.27713
335.65671
326.17438
317.46566
310.31443
305.24438
302.22425
300.7501
300.18041
300.01815
299.99175
299.99448
299.99816
299.9996
299.99995
300
300
300
300
300
300
300
300
300
300
300
300
300
300
300
300
300
300
300
300
300
300
300
300
300
345.29915
335.72468
326.29237
317.61952
310.47209
305.37349
302.30908
300.79454
300.19857
300.0236
299.99271
299.99442
299.99805
299.99955
299.99994
300
300
300
300
300
300
300
300
300
300
300
300
300
300
300
300
300
300
300
300
300
300
300
300
300
345.32298
335.79385
326.40829
317.76987
310.62704
305.50164
302.39435
300.83989
300.21745
300.02943
299.99382
299.9944
299.99794
299.99951
299.99993
300
300
300
300
300
300
300
300
300
300
300
300
300
300
300
300
300
300
300
300
300
300
300
300
300
345.34903
335.8659
326.52405
317.91798
310.77988
305.62903
302.48005
300.88612
300.23706
300.03565
299.99509
299.99442
299.99783
299.99946
299.99991
299.99999
300
300
300
300
300
300
300
300
300
300
300
300
300
300
300
300
300
300
300
300
300
300
300
300
345.37739
335.94201
326.64134
318.06518
310.93134
305.75589
302.5662
300.9332
300.25737
300.04227
299.99651
299.99448
299.99773
299.99941
299.9999
299.99999
300
300
300
300
300
300
300
300
300
300
300
300
300
300
300
300
300
300
300
300
300
300
300
300
345.40777
336.02271
326.76149
318.21272
311.08215
305.88251
302.65285
300.98109
300.27837
300.04928
299.99809
299.99459
299.99764
299.99935
299.99988
299.99999
300
300
300
300
300
300
300
300
300
300
300
300
300
300
300
300
300
300
300
300
300
300
300
300
345.43959
336.10777
326.88526
318.36157
311.23299
306.00918
302.74004
301.02977
300.30004
300.05669
299.99985
299.99476
299.99756
299.9993
299.99986
299.99999
300
300
300
300
300
300
300
300
300
300
300
300
300
300
300
300
300
300
300
300
300
300
300
300
345.47199
336.19623
327.01272
318.51233
311.38438
306.13615
302.8278
301.0792
300.32235
300.06449
300.00178
299.99498
299.99749
299.99925
299.99985
299.99998
300
300
300
300
300
300
300
300
300
300
300
300
300
300
300
300
300
300
300
300
300
300
300
300
345.50397
336.2865
327.14325
318.66513
311.53664
306.2636
302.91617
301.12936
300.34527
300.07267
300.00388
299.99526
299.99743
299.9992
299.99983
299.99998
300
300
300
300
300
300
300
300
300
300
300
300
300
300
300
300
300
300
300
300
300
300
300
300
345.53451
336.37654
327.27554
318.81961
311.68979
306.39161
303.00517
301.18022
300.36881
300.08124
300.00617
299.9956
299.99738
299.99915
299.99981
299.99997
300
300
300
300
300
300
300
300
300
300
300
300
300
300
300
300
300
300
300
300
300
300
300
300
345.56265
336.4641
327.40779
318.97489
311.84358
306.52012
303.09478
301.23177
300.39293
300.09019
300.00865
299.996
299.99735
299.9991
299.99979
299.99997
300
300
300
300
300
300
300
300
300
300
300
300
300
300
300
300
300
300
300
300
300
300
300
300
345.58765
336.54699
327.53785
319.12974
311.99747
306.64896
303.18493
301.28399
300.41764
300.09953
300.01131
299.99647
299.99734
299.99905
299.99977
299.99996
300
300
300
300
300
300
300
300
300
300
300
300
300
300
300
300
300
300
300
300
300
300
300
300
345.60904
336.62333
327.66353
319.28262
312.15069
306.77782
303.27555
301.33686
300.44294
300.10925
300.01417
299.99702
299.99734
299.999
299.99975
299.99995
300
300
300
300
300
300
300
300
300
300
300
300
300
300
300
300
300
300
300
300
300
300
300
300
345.62669
336.69175
327.78279
319.43191
312.30231
306.90631
303.3665
301.39036
300.46884
300.11937
300.01722
299.99763
299.99736
299.99896
299.99972
299.99995
299.99999
300
300
300
300
300
300
300
300
300
300
300
300
300
300
300
300
300
300
300
300
300
300
300
345.64082
336.7516
327.89404
319.57607
312.45134
307.03394
303.45762
301.44446
300.49535
300.12991
300.02048
299.99832
299.9974
299.99892
299.9997
299.99994
299.99999
300
300
300
300
300
300
300
300
300
300
300
300
300
300
300
300
300
300
300
300
300
300
300
345.65197
336.80298
327.99628
319.71383
312.59684
307.16022
303.54873
301.49913
300.52247
300.14086
300.02394
299.99909
299.99746
299.99888
299.99968
299.99993
299.99999
300
300
300
300
300
300
300
300
300
300
300
300
300
300
300
300
300
300
300
300
300
300
300
345.66093
336.84676
328.08926
319.84433
312.73803
307.28471
303.63967
301.55435
300.55023
300.15225
300.02763
299.99994
299.99754
299.99884
299.99965
299.99993
299.99999
300
300
300
300
300
300
300
300
300
300
300
300
300
300
300
300
300
300
300
300
300
300
300
345.6687
336.88445
328.17345
319.96721
312.87436
307.407
303.73025
301.61007
300.57863
300.1641
300.03154
300.00087
299.99765
299.99881
299.99963
299.99992
299.99999
300
300
300
300
300
300
300
300
300
300
300
300
300
300
300
300
300
300
300
300
300
300
300
345.67636
336.91809
328.25014
320.0828
313.00574
307.52698
303.82043
301.66632
300.60771
300.17642
300.03569
300.0019
299.99778
299.99878
299.99961
299.99991
299.99998
300
300
300
300
300
300
300
300
300
300
300
300
300
300
300
300
300
300
300
300
300
300
300
345.68481
336.94968
328.32081
320.19143
313.13173
307.64397
303.90965
301.72272
300.63727
300.18913
300.04005
300.00301
299.99794
299.99876
299.99958
299.9999
299.99998
300
300
300
300
300
300
300
300
300
300
300
300
300
300
300
300
300
300
300
300
300
300
300
345.69497
336.98209
328.38893
320.29667
313.2559
307.76126
304.00051
301.78105
300.66832
300.20271
300.04481
300.00426
299.99813
299.99874
299.99956
299.99989
299.99998
300
300
300
300
300
300
300
300
300
300
300
300
300
300
300
300
300
300
300
300
300
300
300
345.70615
337.01332
328.44888
320.38737
313.36284
307.86272
304.07959
301.83216
300.69573
300.21479
300.04908
300.0054
299.99832
299.99873
299.99954
299.99988
299.99998
300
300
300
300
300
300
300
300
300
300
300
300
300
300
300
300
300
300
300
300
300
300
300
345.72429
337.06744
328.54783
320.53584
313.54065
308.03484
304.21649
301.92245
300.74521
300.23718
300.05727
300.00771
299.99874
299.99873
299.9995
299.99986
299.99997
300
300
300
300
300
300
300
300
300
300
300
300
300
300
300
300
300
300
300
300
300
300
300
)
;

boundaryField
{
    wall
    {
        type            fixedValue;
        value           uniform 350;
    }
    sides
    {
        type            zeroGradient;
    }
    frontAndBack
    {
        type            empty;
    }
    inlet
    {
        type            fixedValue;
        value           uniform 300;
    }
    outlet
    {
        type            zeroGradient;
    }
}


// ************************************************************************* //
