/*--------------------------------*- C++ -*----------------------------------*\
  =========                 |
  \\      /  F ield         | OpenFOAM: The Open Source CFD Toolbox
   \\    /   O peration     | Website:  https://openfoam.org
    \\  /    A nd           | Version:  10
     \\/     M anipulation  |
\*---------------------------------------------------------------------------*/
FoamFile
{
    format      ascii;
    class       volVectorField;
    location    "0.01";
    object      U;
}
// * * * * * * * * * * * * * * * * * * * * * * * * * * * * * * * * * * * * * //

dimensions      [0 1 -1 0 0 0 0];

internalField   nonuniform List<vector> 
4000
(
(0 0.016387172 0.4763309)
(0 0.022568633 0.51041136)
(0 0.0094575002 0.50059807)
(0 0.0055123246 0.50022476)
(0 0.0041821426 0.50023686)
(0 0.0032403439 0.50016739)
(0 0.0025495461 0.50011818)
(0 0.002049868 0.5000891)
(0 0.0016733448 0.50006916)
(0 0.0013799171 0.50005491)
(0 0.0011454735 0.50004462)
(0 0.00095381004 0.50003704)
(0 0.00079373175 0.50003136)
(0 0.00065730597 0.50002706)
(0 0.00053872921 0.50002381)
(0 0.00043363502 0.50002135)
(0 0.00033864646 0.50001952)
(0 0.0002510701 0.5000182)
(0 0.00016868052 0.50001731)
(0 8.9562795e-05 0.50001681)
(0 1.1989575e-05 0.50001666)
(0 -6.5685929e-05 0.50001685)
(0 -0.00014512182 0.5000174)
(0 -0.00022807635 0.50001835)
(0 -0.00031651761 0.50001973)
(0 -0.00041275746 0.50002166)
(0 -0.00051962156 0.50002424)
(0 -0.0006406881 0.50002767)
(0 -0.00078063133 0.50003222)
(0 -0.00094574797 0.50003827)
(0 -0.0011448116 0.50004643)
(0 -0.0013904054 0.50005766)
(0 -0.0017011319 0.50007331)
(0 -0.0021075314 0.50009594)
(0 -0.0026617531 0.50013366)
(0 -0.0034157262 0.50018857)
(0 -0.0044825201 0.50019262)
(0 -0.0074746761 0.50048011)
(0 -0.017198413 0.50802666)
(0 -0.012232128 0.47870785)
(0 0.034167611 0.44480166)
(0 0.049235919 0.53555749)
(0 0.023596058 0.50849962)
(0 0.015823124 0.50327244)
(0 0.012358081 0.50236313)
(0 0.0095087239 0.50161735)
(0 0.0075041841 0.50115059)
(0 0.0060575718 0.50086246)
(0 0.0049559193 0.50066587)
(0 0.0040936931 0.50052743)
(0 0.0034028083 0.50042787)
(0 0.002836442 0.50035462)
(0 0.0023623789 0.50029988)
(0 0.0019576613 0.50025858)
(0 0.001605385 0.50022731)
(0 0.0012927883 0.50020371)
(0 0.001009976 0.50018614)
(0 0.00074903444 0.50017349)
(0 0.00050341005 0.50016499)
(0 0.00026745248 0.50016015)
(0 3.6059822e-05 0.5001587)
(0 -0.00019563239 0.50016057)
(0 -0.00043252123 0.50016587)
(0 -0.00067979719 0.50017491)
(0 -0.00094326407 0.50018824)
(0 -0.0012297243 0.50020669)
(0 -0.0015474707 0.5002315)
(0 -0.0019069751 0.50026447)
(0 -0.0023218718 0.5003082)
(0 -0.0028104135 0.50036656)
(0 -0.0033978738 0.50044547)
(0 -0.0041205789 0.50055444)
(0 -0.0050311419 0.50070822)
(0 -0.0062101619 0.5009321)
(0 -0.0078165835 0.50129082)
(0 -0.010080998 0.5018733)
(0 -0.012869612 0.50261253)
(0 -0.018563568 0.50639514)
(0 -0.037887631 0.52797416)
(0 -0.025889101 0.44800718)
(0 0.037576841 0.4064216)
(0 0.059885301 0.55197411)
(0 0.033040248 0.52247947)
(0 0.023870026 0.50982082)
(0 0.019156424 0.50654304)
(0 0.014963372 0.50452465)
(0 0.011979161 0.50326522)
(0 0.0097532831 0.50245528)
(0 0.0080226609 0.50189896)
(0 0.0066544292 0.50150725)
(0 0.0055489316 0.50122457)
(0 0.0046366099 0.50101603)
(0 0.0038691038 0.50085997)
(0 0.0032111969 0.50074213)
(0 0.0026366107 0.5006528)
(0 0.0021253448 0.50058532)
(0 0.0016617751 0.50053506)
(0 0.0012333236 0.50049885)
(0 0.00082951573 0.5004745)
(0 0.0004412833 0.50046063)
(0 6.0416837e-05 0.50045647)
(0 -0.00032092089 0.50046182)
(0 -0.0007106187 0.500477)
(0 -0.0011170215 0.50050288)
(0 -0.0015494312 0.50054101)
(0 -0.0020186976 0.50059378)
(0 -0.0025379629 0.50066467)
(0 -0.0031237016 0.50075877)
(0 -0.0037971847 0.50088349)
(0 -0.0045865207 0.50104969)
(0 -0.0055298059 0.50127383)
(0 -0.0066810369 0.50158222)
(0 -0.0081172153 0.50201706)
(0 -0.0099405428 0.50264574)
(0 -0.012342234 0.50361405)
(0 -0.015682724 0.50517821)
(0 -0.019497512 0.50767394)
(0 -0.025925734 0.5168628)
(0 -0.046679684 0.54156809)
(0 -0.029430663 0.41240034)
(0 0.033329046 0.35918013)
(0 0.062614014 0.55602591)
(0 0.040119836 0.53795987)
(0 0.029633552 0.51829084)
(0 0.024073189 0.51191224)
(0 0.019240046 0.50848309)
(0 0.01569582 0.50625424)
(0 0.012928087 0.50474932)
(0 0.01072394 0.50369999)
(0 0.0089534385 0.50295348)
(0 0.0075029874 0.50240943)
(0 0.0062934661 0.5020055)
(0 0.0052677713 0.50170192)
(0 0.0043827495 0.50147189)
(0 0.00360562 0.50129701)
(0 0.0029110919 0.50116459)
(0 0.0022791429 0.50106581)
(0 0.0016934708 0.50099452)
(0 0.0011403794 0.50094655)
(0 0.00060793101 0.50091919)
(0 8.527019e-05 0.50091098)
(0 -0.00043798961 0.50092151)
(0 -0.00097230183 0.50095139)
(0 -0.001528687 0.50100233)
(0 -0.002119365 0.50107732)
(0 -0.0027584781 0.50118093)
(0 -0.0034629777 0.50131985)
(0 -0.0042538411 0.50150376)
(0 -0.0051577797 0.50174671)
(0 -0.0062094709 0.50206913)
(0 -0.0074542934 0.50250124)
(0 -0.0089540252 0.50308999)
(0 -0.01079652 0.50391098)
(0 -0.013083649 0.50507951)
(0 -0.015965141 0.50679622)
(0 -0.019854134 0.50943598)
(0 -0.024356103 0.51413813)
(0 -0.031575158 0.52866315)
(0 -0.049814805 0.54570217)
(0 -0.027645955 0.37035106)
(0 0.026200739 0.31334121)
(0 0.061205806 0.55103109)
(0 0.045266742 0.55192454)
(0 0.033676395 0.52732864)
(0 0.027435677 0.51759821)
(0 0.022407339 0.51287081)
(0 0.018592282 0.50970571)
(0 0.015497069 0.50747515)
(0 0.012982847 0.5058885)
(0 0.01092511 0.50473988)
(0 0.0092112436 0.50389111)
(0 0.0077641946 0.50325517)
(0 0.0065245498 0.50277393)
(0 0.0054456953 0.50240717)
(0 0.0044916372 0.50212707)
(0 0.0036340697 0.50191423)
(0 0.0028501547 0.50175502)
(0 0.0021210174 0.50163988)
(0 0.0014306147 0.50156227)
(0 0.00076483637 0.50151796)
(0 0.00011077463 0.50150463)
(0 -0.00054395881 0.50152162)
(0 -0.0012118287 0.50156992)
(0 -0.0019059192 0.50165221)
(0 -0.0026406372 0.50177314)
(0 -0.0034324872 0.50193986)
(0 -0.0043009836 0.50216272)
(0 -0.0052698519 0.50245654)
(0 -0.0063687325 0.50284262)
(0 -0.007635454 0.50335162)
(0 -0.0091178717 0.50402778)
(0 -0.010877059 0.50493672)
(0 -0.013000568 0.50618197)
(0 -0.015588928 0.50791863)
(0 -0.018737232 0.51036631)
(0 -0.022844287 0.51397707)
(0 -0.027879959 0.5210301)
(0 -0.036013365 0.53973458)
(0 -0.050074735 0.54266425)
(0 -0.023626085 0.3292493)
(0 0.018609484 0.27434147)
(0 0.05689312 0.54034308)
(0 0.047944885 0.56308891)
(0 0.036279263 0.53652807)
(0 0.029618013 0.5233522)
(0 0.024635174 0.51732659)
(0 0.020733584 0.51331854)
(0 0.017479824 0.51041411)
(0 0.014791948 0.50830513)
(0 0.012549188 0.50674917)
(0 0.01065075 0.50558302)
(0 0.0090271418 0.50470033)
(0 0.0076202323 0.50402661)
(0 0.006383652 0.50350944)
(0 0.005281148 0.50311221)
(0 0.0042834766 0.50280902)
(0 0.0033665027 0.50258143)
(0 0.0025099434 0.5024164)
(0 0.0016963269 0.50230491)
(0 0.00091012173 0.50224116)
(0 0.00013701523 0.50222191)
(0 -0.00063677732 0.50224626)
(0 -0.0014251215 0.50231556)
(0 -0.0022425005 0.50243351)
(0 -0.0031047313 0.50260654)
(0 -0.0040297263 0.50284438)
(0 -0.005038348 0.5031611)
(0 -0.0061554501 0.50357656)
(0 -0.0074113449 0.50411888)
(0 -0.0088441642 0.50482811)
(0 -0.010501476 0.50576107)
(0 -0.012439782 0.5069983)
(0 -0.014738514 0.50866202)
(0 -0.017498614 0.51093577)
(0 -0.020777421 0.51405355)
(0 -0.02491585 0.51861704)
(0 -0.030276335 0.52815548)
(0 -0.03879939 0.54916927)
(0 -0.048133178 0.53485106)
(0 -0.018770021 0.29314755)
(0 0.011895804 0.24195396)
(0 0.050740579 0.52573883)
(0 0.048209077 0.57081501)
(0 0.03761423 0.5455421)
(0 0.030826249 0.52913828)
(0 0.026034137 0.52171003)
(0 0.022201826 0.51694209)
(0 0.018929356 0.51343681)
(0 0.016174825 0.51084135)
(0 0.013832311 0.5088947)
(0 0.011820004 0.50741825)
(0 0.010076487 0.50628944)
(0 0.0085470146 0.50541987)
(0 0.0071884827 0.50474717)
(0 0.0059666125 0.50422727)
(0 0.004852807 0.50382849)
(0 0.0038229073 0.50352796)
(0 0.0028562742 0.50330934)
(0 0.0019348726 0.50316131)
(0 0.0010424776 0.50307648)
(0 0.00016401399 0.50305076)
(0 -0.00071509371 0.50308299)
(0 -0.0016095026 0.50317488)
(0 -0.0025344405 0.50333113)
(0 -0.0035063902 0.50355983)
(0 -0.0045437903 0.50387321)
(0 -0.0056678022 0.50428878)
(0 -0.0069031319 0.50483097)
(0 -0.0082790331 0.50553376)
(0 -0.0098316021 0.50644507)
(0 -0.011606335 0.50763252)
(0 -0.013654713 0.5091895)
(0 -0.016042916 0.51125074)
(0 -0.018863918 0.51401632)
(0 -0.02215053 0.51774921)
(0 -0.026192143 0.52333704)
(0 -0.031657151 0.53534581)
(0 -0.039822007 0.55635607)
(0 -0.044561894 0.5235319)
(0 -0.013926275 0.26209434)
(0 0.0067134677 0.21509473)
(0 0.043848902 0.50852043)
(0 0.0466807 0.57493502)
(0 0.037928895 0.55382927)
(0 0.031250992 0.53481638)
(0 0.026726409 0.52592665)
(0 0.023086472 0.52047896)
(0 0.019903147 0.51645158)
(0 0.017165356 0.51341524)
(0 0.014795306 0.51110812)
(0 0.012730762 0.5093412)
(0 0.010917111 0.5079772)
(0 0.0093055047 0.50691681)
(0 0.0078586047 0.50609025)
(0 0.0065454927 0.50544751)
(0 0.0053392764 0.50495202)
(0 0.0042167759 0.50457704)
(0 0.0031578824 0.50430335)
(0 0.0021447517 0.50411753)
(0 0.0011611188 0.50401081)
(0 0.00019173689 0.5039783)
(0 -0.00077819663 0.5040186)
(0 -0.0017635636 0.50413375)
(0 -0.0027797387 0.50432934)
(0 -0.0038432054 0.50461498)
(0 -0.0049721641 0.50500511)
(0 -0.0061872142 0.50552027)
(0 -0.0075119958 0.50618883)
(0 -0.008973566 0.50704966)
(0 -0.010604042 0.50815667)
(0 -0.012444683 0.5095862)
(0 -0.014542433 0.51144352)
(0 -0.016949649 0.51387314)
(0 -0.01974085 0.51707935)
(0 -0.022928826 0.52136847)
(0 -0.026790905 0.52803213)
(0 -0.032193533 0.54221316)
(0 -0.039404809 0.56094312)
(0 -0.040071598 0.50967551)
(0 -0.0096730228 0.23546198)
(0 0.0031299861 0.19329211)
(0 0.03701554 0.4900108)
(0 0.044031175 0.57576332)
(0 0.037483838 0.56095398)
(0 0.031111561 0.54021882)
(0 0.02687814 0.52989865)
(0 0.023494533 0.52384265)
(0 0.02046729 0.51937585)
(0 0.017808614 0.51595672)
(0 0.015470445 0.51333145)
(0 0.013404177 0.51130291)
(0 0.011561627 0.5097219)
(0 0.0099029117 0.5084821)
(0 0.0083979401 0.5075089)
(0 0.0070196431 0.50674771)
(0 0.0057434795 0.50615794)
(0 0.0045480243 0.50570972)
(0 0.0034144034 0.50538146)
(0 0.0023255731 0.50515799)
(0 0.0012657751 0.50502934)
(0 0.0002200987 0.50498993)
(0 -0.00082599352 0.50503817)
(0 -0.0018871139 0.50517637)
(0 -0.0029782722 0.5054109)
(0 -0.0041153967 0.50575265)
(0 -0.0053158215 0.5062179)
(0 -0.0065988877 0.50682971)
(0 -0.0079865293 0.50761974)
(0 -0.0095030807 0.50863074)
(0 -0.01117549 0.50992092)
(0 -0.013038261 0.5115724)
(0 -0.015133423 0.51370027)
(0 -0.017503406 0.51645763)
(0 -0.020202078 0.52004562)
(0 -0.023224304 0.52483148)
(0 -0.02686675 0.53256744)
(0 -0.032073915 0.54838795)
(0 -0.037961597 0.5629608)
(0 -0.035236954 0.49432246)
(0 -0.0062704593 0.21303143)
(0 0.0008757169 0.17602731)
(0 0.03070436 0.4713171)
(0 0.040780074 0.57388062)
(0 0.036495919 0.56673079)
(0 0.030601139 0.54525033)
(0 0.026651228 0.53359333)
(0 0.023533881 0.5269738)
(0 0.020696618 0.52214674)
(0 0.018161395 0.51841268)
(0 0.015899018 0.51551911)
(0 0.013867886 0.51326272)
(0 0.01202827 0.51148745)
(0 0.010351603 0.51008435)
(0 0.0088148625 0.50897596)
(0 0.0073945457 0.5081042)
(0 0.0060688664 0.50742543)
(0 0.0048187375 0.50690741)
(0 0.0036270272 0.50652675)
(0 0.0024779383 0.50626689)
(0 0.0013566413 0.50611692)
(0 0.00024896975 0.50607069)
(0 -0.00085894641 0.50612647)
(0 -0.0019810467 0.50628679)
(0 -0.0031315668 0.50655863)
(0 -0.0043254525 0.5069539)
(0 -0.0055786967 0.50749032)
(0 -0.0069088392 0.5081929)
(0 -0.0083356441 0.50909585)
(0 -0.0098807163 0.51024501)
(0 -0.011565844 0.51170138)
(0 -0.01341694 0.51354977)
(0 -0.015469084 0.51591117)
(0 -0.017758944 0.51894575)
(0 -0.020326273 0.52285381)
(0 -0.023154791 0.52809212)
(0 -0.026567182 0.53685823)
(0 -0.031458701 0.55366116)
(0 -0.035846058 0.56270813)
(0 -0.030439794 0.47839404)
(0 -0.003729794 0.19454283)
(0 -0.00040709047 0.16251442)
(0 0.025159866 0.45317189)
(0 0.037309709 0.56990419)
(0 0.035146099 0.57114892)
(0 0.029858355 0.54986618)
(0 0.026168396 0.53701185)
(0 0.023298272 0.52985013)
(0 0.020667422 0.52473279)
(0 0.018284763 0.52075248)
(0 0.016125035 0.51764015)
(0 0.014152172 0.51518988)
(0 0.01233869 0.51324523)
(0 0.010667528 0.51169784)
(0 0.0091209232 0.51046848)
(0 0.007678322 0.50949641)
(0 0.006321024 0.50873589)
(0 0.0050326721 0.50815313)
(0 0.0037981687 0.50772347)
(0 0.0026032424 0.50742937)
(0 0.0014342873 0.5072592)
(0 0.00027818404 0.5072064)
(0 -0.00087796541 0.50726911)
(0 -0.002047122 0.50745002)
(0 -0.0032424478 0.50775659)
(0 -0.0044776131 0.50820148)
(0 -0.005766966 0.50880345)
(0 -0.0071258659 0.50958882)
(0 -0.0085715241 0.51059362)
(0 -0.010123033 0.51186604)
(0 -0.011798173 0.51346906)
(0 -0.01361415 0.51548784)
(0 -0.015596093 0.51804442)
(0 -0.017775274 0.52130274)
(0 -0.020186408 0.52547159)
(0 -0.022816552 0.53113411)
(0 -0.026006206 0.54085592)
(0 -0.030485862 0.55795052)
(0 -0.033353331 0.56057902)
(0 -0.025932676 0.4625502)
(0 -0.0019401274 0.17949752)
(0 -0.001037279 0.1519614)
(0 0.020480187 0.43600517)
(0 0.033888085 0.56438646)
(0 0.03358487 0.57428022)
(0 0.028976293 0.55403198)
(0 0.025519061 0.54016523)
(0 0.022869634 0.53247808)
(0 0.020451743 0.52712928)
(0 0.018235291 0.52296361)
(0 0.016188985 0.51967568)
(0 0.014286677 0.51706286)
(0 0.01251595 0.51497407)
(0 0.010868599 0.51330274)
(0 0.0093295106 0.51196795)
(0 0.0078807108 0.51090706)
(0 0.0065069391 0.51007321)
(0 0.0051947371 0.5094318)
(0 0.0039311165 0.5089574)
(0 0.0027034581 0.50863182)
(0 0.0014995589 0.50844293)
(0 0.00030754788 0.50838391)
(0 -0.000884292 0.50845277)
(0 -0.0020877335 0.50865235)
(0 -0.0033146684 0.50899041)
(0 -0.0045773262 0.50948014)
(0 -0.0058882799 0.51014094)
(0 -0.007260522 0.5109999)
(0 -0.0087083648 0.51209407)
(0 -0.010248444 0.51347329)
(0 -0.011896197 0.51520231)
(0 -0.013662118 0.51736574)
(0 -0.015559476 0.5200825)
(0 -0.017610517 0.523515)
(0 -0.019850231 0.52789084)
(0 -0.022286796 0.5339538)
(0 -0.025268191 0.54451887)
(0 -0.029275885 0.56124488)
(0 -0.030720989 0.55697053)
(0 -0.021874282 0.44722585)
(0 -0.00075176352 0.1673325)
(0 -0.0012589379 0.14370375)
(0 0.016656189 0.42004666)
(0 0.030675819 0.55779131)
(0 0.031924408 0.57624007)
(0 0.028018303 0.55772544)
(0 0.024775088 0.54307198)
(0 0.022322328 0.53488323)
(0 0.020112818 0.52934726)
(0 0.018059783 0.5250435)
(0 0.016125196 0.52161479)
(0 0.014299104 0.5188677)
(0 0.012583209 0.5166595)
(0 0.010973271 0.51488454)
(0 0.0094546362 0.51345994)
(0 0.0080121653 0.51232202)
(0 0.0066343498 0.51142375)
(0 0.0053105304 0.51073031)
(0 0.0040297121 0.5102159)
(0 0.0027809356 0.50986197)
(0 0.0015534846 0.50965608)
(0 0.00033684786 0.50959122)
(0 -0.00087938962 0.50966538)
(0 -0.0021056903 0.50988144)
(0 -0.0033525691 0.51024738)
(0 -0.0046307524 0.51077665)
(0 -0.0059510638 0.51148904)
(0 -0.0073241625 0.51241191)
(0 -0.0087612116 0.51358257)
(0 -0.01027606 0.51505172)
(0 -0.011883106 0.51688584)
(0 -0.013589683 0.51916955)
(0 -0.015398317 0.52201657)
(0 -0.017317702 0.52558237)
(0 -0.01938203 0.53012107)
(0 -0.021633102 0.53655799)
(0 -0.024417592 0.5478161)
(0 -0.02792495 0.56358299)
(0 -0.028116455 0.55224816)
(0 -0.018341174 0.43269575)
(0 -1.5498106e-05 0.15753512)
(0 -0.0012443875 0.13718409)
(0 0.013609227 0.4053804)
(0 0.027747297 0.55048876)
(0 0.030240882 0.57716993)
(0 0.027030506 0.56095051)
(0 0.023996335 0.54576324)
(0 0.021718833 0.53710289)
(0 0.019699565 0.5314047)
(0 0.017793475 0.52699423)
(0 0.015962275 0.52345236)
(0 0.014215274 0.52059695)
(0 0.01256283 0.5182929)
(0 0.010999366 0.5164334)
(0 0.0095099564 0.51493367)
(0 0.0080831375 0.5137301)
(0 0.0067112181 0.51277627)
(0 0.0053859464 0.51203757)
(0 0.0040980692 0.51148807)
(0 0.0028382235 0.51110906)
(0 0.0015971922 0.51088798)
(0 0.00036585953 0.51081773)
(0 -0.00086484329 0.51089627)
(0 -0.0021040215 0.51112653)
(0 -0.0033607785 0.51151653)
(0 -0.004644348 0.51207989)
(0 -0.0059639399 0.5128365)
(0 -0.0073281433 0.51381369)
(0 -0.0087449613 0.51504841)
(0 -0.010224811 0.51659127)
(0 -0.011781306 0.51851013)
(0 -0.013422293 0.52089093)
(0 -0.01514401 0.52384287)
(0 -0.016939909 0.52751193)
(0 -0.018837906 0.53218393)
(0 -0.020914945 0.53896714)
(0 -0.023506336 0.55073992)
(0 -0.0265052 0.56504233)
(0 -0.025641206 0.54672558)
(0 -0.015345627 0.4191064)
(0 0.00039911582 0.14963977)
(0 -0.0011098974 0.13194241)
(0 0.011225207 0.39198787)
(0 0.025122932 0.54276113)
(0 0.028587868 0.57722103)
(0 0.026050348 0.56373493)
(0 0.02322864 0.54827614)
(0 0.021102765 0.5391753)
(0 0.019243547 0.53331997)
(0 0.017461264 0.5288206)
(0 0.015724725 0.52518852)
(0 0.014059165 0.52224894)
(0 0.012475421 0.51987044)
(0 0.010963083 0.51794324)
(0 0.0095080664 0.51638146)
(0 0.0081035752 0.51512276)
(0 0.0067453335 0.51412185)
(0 0.0054268579 0.51334447)
(0 0.0041403384 0.51276472)
(0 0.0028779171 0.5123639)
(0 0.0016318384 0.51212944)
(0 0.00039435621 0.51205425)
(0 -0.00084227098 0.51213627)
(0 -0.0020858071 0.51237841)
(0 -0.0033439639 0.51278871)
(0 -0.0046245325 0.51338076)
(0 -0.0059352947 0.51417444)
(0 -0.0072832147 0.51519688)
(0 -0.0086735022 0.51648425)
(0 -0.010112517 0.51808614)
(0 -0.011612089 0.52007091)
(0 -0.013182778 0.52252685)
(0 -0.014820731 0.52556143)
(0 -0.01650742 0.5293133)
(0 -0.018259465 0.5341048)
(0 -0.020180289 0.54120903)
(0 -0.022578964 0.55330409)
(0 -0.025073833 0.56572356)
(0 -0.02335009 0.54065709)
(0 -0.0128575 0.40650505)
(0 0.00059758463 0.14323071)
(0 -0.0009306188 0.12762971)
(0 0.0093793348 0.37979636)
(0 0.02279529 0.53482195)
(0 0.027005942 0.57654107)
(0 0.025108285 0.56611586)
(0 0.022501033 0.55063977)
(0 0.020497537 0.54112859)
(0 0.018762033 0.53510752)
(0 0.017081698 0.5305294)
(0 0.015434586 0.52682809)
(0 0.01385241 0.5238264)
(0 0.012338802 0.52139165)
(0 0.010878289 0.51941063)
(0 0.0094601042 0.51779801)
(0 0.008082631 0.51649367)
(0 0.0067440455 0.51545354)
(0 0.0054388842 0.51464366)
(0 0.0041605282 0.51403826)
(0 0.0029025415 0.51361874)
(0 0.0016585548 0.51337265)
(0 0.00042211768 0.51329295)
(0 -0.00081325234 0.51337757)
(0 -0.0020540432 0.5136294)
(0 -0.0033066384 0.51405638)
(0 -0.0045774501 0.51467199)
(0 -0.0058729978 0.51549602)
(0 -0.0071991408 0.51655536)
(0 -0.0085590737 0.51788531)
(0 -0.0099549347 0.51953372)
(0 -0.011394953 0.52156808)
(0 -0.012892139 0.52407897)
(0 -0.01444801 0.52717542)
(0 -0.016039734 0.53099515)
(0 -0.017672448 0.5359037)
(0 -0.019462703 0.54330678)
(0 -0.021673076 0.5555323)
(0 -0.023678819 0.5657365)
(0 -0.021268948 0.53424588)
(0 -0.010821825 0.3948798)
(0 0.0006608823 0.13796942)
(0 -0.00074970802 0.12399897)
(0 0.0079543542 0.36871462)
(0 0.020743924 0.52683502)
(0 0.025522844 0.57526602)
(0 0.024223285 0.56812837)
(0 0.021825105 0.55286787)
(0 0.019911457 0.54297751)
(0 0.018265364 0.53677788)
(0 0.016671682 0.53212949)
(0 0.015112387 0.52837921)
(0 0.013613507 0.52533454)
(0 0.012167296 0.52285773)
(0 0.010756283 0.52083375)
(0 0.009375688 0.51917974)
(0 0.0080285591 0.51783821)
(0 0.0067141101 0.516766)
(0 0.0054272357 0.51592929)
(0 0.0041623826 0.51530247)
(0 0.002914471 0.51486715)
(0 0.0016784116 0.51461107)
(0 0.00044893814 0.51452725)
(0 -0.00077927633 0.51461367)
(0 -0.0020115463 0.51487312)
(0 -0.0032530245 0.51531343)
(0 -0.0045088134 0.51594787)
(0 -0.005784262 0.51679606)
(0 -0.0070845726 0.51788473)
(0 -0.008412 0.51924853)
(0 -0.009765103 0.52093326)
(0 -0.011146784 0.5230041)
(0 -0.012569932 0.52555235)
(0 -0.01404395 0.52869077)
(0 -0.015550981 0.5325648)
(0 -0.017090565 0.53759232)
(0 -0.018780564 0.54527297)
(0 -0.020814828 0.5574495)
(0 -0.02235646 0.56519094)
(0 -0.019404564 0.52765663)
(0 -0.0091728392 0.38419267)
(0 0.00064680263 0.13360054)
(0 -0.00058538645 0.1208741)
(0 0.0068530316 0.35864583)
(0 0.018943046 0.51892328)
(0 0.024150647 0.57351358)
(0 0.023398788 0.56980122)
(0 0.021197724 0.55496261)
(0 0.019345253 0.54472953)
(0 0.01776353 0.53834191)
(0 0.016248944 0.53363274)
(0 0.014776708 0.52985202)
(0 0.013357008 0.52677923)
(0 0.011971611 0.52427042)
(0 0.010606074 0.52221175)
(0 0.0092631228 0.5205244)
(0 0.0079487363 0.51915321)
(0 0.0066616102 0.51805531)
(0 0.00539662 0.51719683)
(0 0.0041493044 0.51655237)
(0 0.0029158784 0.51610387)
(0 0.001692394 0.51583927)
(0 0.00047463144 0.51575172)
(0 -0.00074170651 0.51583919)
(0 -0.001960888 0.51610441)
(0 -0.0031869646 0.51655502)
(0 -0.0044238091 0.51720405)
(0 -0.005675604 0.51807083)
(0 -0.0069471323 0.51918202)
(0 -0.0082408317 0.52057204)
(0 -0.0095532049 0.52228494)
(0 -0.010881152 0.52438247)
(0 -0.012233707 0.52695423)
(0 -0.013626762 0.53011667)
(0 -0.015054627 0.53403132)
(0 -0.016520988 0.53917859)
(0 -0.018138739 0.54711279)
(0 -0.020014716 0.55907897)
(0 -0.021126921 0.56418902)
(0 -0.017750638 0.52102077)
(0 -0.0078461559 0.37439238)
(0 0.00059152438 0.1299285)
(0 -0.00044050605 0.11812342)
(0 0.0060016786 0.34948782)
(0 0.017365559 0.51117)
(0 0.022886878 0.57137804)
(0 0.022625007 0.57115703)
(0 0.020607492 0.55692305)
(0 0.018798504 0.54639362)
(0 0.017268644 0.53981552)
(0 0.015830911 0.53505474)
(0 0.014442371 0.53125757)
(0 0.013092902 0.52816609)
(0 0.011759261 0.52563157)
(0 0.010434962 0.52354464)
(0 0.0091296947 0.52183104)
(0 0.0078497065 0.52043688)
(0 0.0065919065 0.51931886)
(0 0.0053511826 0.51844298)
(0 0.0041243085 0.51778421)
(0 0.0029087036 0.51732483)
(0 0.0017013877 0.51705304)
(0 0.0004990347 0.51696208)
(0 -0.00070175813 0.51704995)
(0 -0.0019043539 0.5173193)
(0 -0.0031118601 0.51777757)
(0 -0.004327033 0.51843747)
(0 -0.0055528325 0.51931796)
(0 -0.0067935742 0.52044565)
(0 -0.0080527263 0.52185512)
(0 -0.0093268519 0.52358955)
(0 -0.010607811 0.52570705)
(0 -0.011897481 0.52829307)
(0 -0.01321354 0.53146586)
(0 -0.014564839 0.53540886)
(0 -0.015968794 0.54067337)
(0 -0.017533279 0.54883064)
(0 -0.01926903 0.56044181)
(0 -0.019994407 0.56281768)
(0 -0.016292836 0.51443469)
(0 -0.0067863033 0.3654143)
(0 0.00051413556 0.1267927)
(0 -0.00031333509 0.11564808)
(0 0.0053446641 0.34113447)
(0 0.015984339 0.50362196)
(0 0.021720165 0.56892949)
(0 0.021887146 0.57221418)
(0 0.020043087 0.55875113)
(0 0.018273538 0.54798456)
(0 0.016793573 0.54122014)
(0 0.015431365 0.53641335)
(0 0.014118363 0.53260665)
(0 0.012826485 0.52950019)
(0 0.011535298 0.52694338)
(0 0.010249115 0.52483353)
(0 0.008981862 0.52310001)
(0 0.0077371659 0.52168866)
(0 0.0065095852 0.52055522)
(0 0.0052944698 0.51966563)
(0 0.0040899987 0.51899534)
(0 0.0028946378 0.51852708)
(0 0.0017061713 0.51824923)
(0 0.00052201079 0.51815517)
(0 -0.00066048523 0.51824288)
(0 -0.0018439185 0.51851495)
(0 -0.0030306312 0.51897863)
(0 -0.0042224306 0.51964627)
(0 -0.0054210029 0.52053637)
(0 -0.0066298728 0.52167532)
(0 -0.0078538247 0.52309826)
(0 -0.0090916095 0.5248486)
(0 -0.010332593 0.52698176)
(0 -0.011570076 0.52957761)
(0 -0.012817408 0.53275339)
(0 -0.014094967 0.53671676)
(0 -0.015439639 0.5420931)
(0 -0.016958164 0.55043389)
(0 -0.018567146 0.56155657)
(0 -0.018952561 0.56114417)
(0 -0.015012526 0.50795942)
(0 -0.0059471651 0.35718109)
(0 0.00042442669 0.12405914)
(0 -0.00020460839 0.11337854)
(0 0.0048356594 0.33348267)
(0 0.014771823 0.49629937)
(0 0.020636815 0.56621949)
(0 0.021174135 0.57298973)
(0 0.01949972 0.56045295)
(0 0.017776403 0.54952067)
(0 0.016349007 0.54257833)
(0 0.015057543 0.53772502)
(0 0.013807086 0.533908)
(0 0.01255917 0.53078575)
(0 0.011303248 0.52820858)
(0 0.010053974 0.52608062)
(0 0.008825258 0.52433279)
(0 0.0076158722 0.52290904)
(0 0.0064184063 0.52176391)
(0 0.0052294146 0.52086359)
(0 0.0040485642 0.52018412)
(0 0.0028751213 0.51970863)
(0 0.0017074154 0.51942571)
(0 0.00054345019 0.5193288)
(0 -0.00061877537 0.5194159)
(0 -0.0017812361 0.51968951)
(0 -0.0029456965 0.52015674)
(0 -0.0041132441 0.52082959)
(0 -0.0052843237 0.52172599)
(0 -0.0064611784 0.52287194)
(0 -0.0076494859 0.52430318)
(0 -0.0088516547 0.52606444)
(0 -0.010058043 0.52821034)
(0 -0.011254586 0.53081538)
(0 -0.012445255 0.53399341)
(0 -0.013655159 0.53797536)
(0 -0.014940611 0.54345696)
(0 -0.016411192 0.55193256)
(0 -0.017899993 0.56243976)
(0 -0.017991256 0.55921807)
(0 -0.013888519 0.50162746)
(0 -0.0052876346 0.34960964)
(0 0.00033031946 0.12162312)
(0 -0.00011817319 0.11127047)
(0 0.0044324721 0.32644096)
(0 0.01369998 0.48920956)
(0 0.019625141 0.56329064)
(0 0.020482944 0.57350279)
(0 0.018980626 0.56203711)
(0 0.01731507 0.55101829)
(0 0.015940939 0.54390756)
(0 0.014709541 0.53900068)
(0 0.013505762 0.53516679)
(0 0.01229029 0.53202594)
(0 0.011066137 0.52943032)
(0 0.0098544562 0.52728899)
(0 0.0086645722 0.52553158)
(0 0.0074895451 0.52409908)
(0 0.006321288 0.52294508)
(0 0.0051583584 0.52203632)
(0 0.0040018027 0.52134956)
(0 0.0028513575 0.52086823)
(0 0.0017056891 0.52058106)
(0 0.00056327302 0.52048152)
(0 -0.00057735304 0.52056763)
(0 -0.0017176512 0.52084184)
(0 -0.0028589825 0.52131113)
(0 -0.0040019941 0.52198721)
(0 -0.0051460712 0.52288745)
(0 -0.0062916973 0.52403716)
(0 -0.0074443873 0.52547244)
(0 -0.0086105148 0.52724006)
(0 -0.0097848485 0.52939599)
(0 -0.010949662 0.53201129)
(0 -0.012097572 0.53519566)
(0 -0.013250717 0.5392005)
(0 -0.014479263 0.54478157)
(0 -0.015896024 0.55333703)
(0 -0.017264809 0.56310777)
(0 -0.017101214 0.55707852)
(0 -0.012897839 0.49545475)
(0 -0.0047678406 0.34262108)
(0 0.00024106125 0.11941096)
(0 -5.7219586e-05 0.10929783)
(0 0.004098029 0.31993432)
(0 0.012742172 0.48235794)
(0 0.018676933 0.56018454)
(0 0.019817245 0.57377662)
(0 0.018493444 0.56351242)
(0 0.016895808 0.55248716)
(0 0.01556953 0.54521611)
(0 0.01438215 0.54024379)
(0 0.013209482 0.53638421)
(0 0.012019389 0.53322279)
(0 0.010827399 0.53061192)
(0 0.0096550169 0.52846195)
(0 0.0085034367 0.52669871)
(0 0.0073608507 0.52525999)
(0 0.0062203717 0.52409905)
(0 0.005083124 0.52318362)
(0 0.0039511701 0.52249108)
(0 0.0028243416 0.52200506)
(0 0.0017014735 0.52171432)
(0 0.00058142975 0.52161237)
(0 -0.00053679268 0.5216972)
(0 -0.0016542292 0.52197125)
(0 -0.0027719743 0.52244141)
(0 -0.0038905311 0.52311925)
(0 -0.0050085842 0.52402159)
(0 -0.0061246047 0.52517285)
(0 -0.0072425493 0.52660892)
(0 -0.0083717391 0.52837867)
(0 -0.0095136822 0.53054121)
(0 -0.010652161 0.5331672)
(0 -0.011770366 0.53636372)
(0 -0.012881733 0.54040003)
(0 -0.014061184 0.54607704)
(0 -0.015419729 0.55465637)
(0 -0.01666457 0.56357927)
(0 -0.01627557 0.55476207)
(0 -0.012017254 0.4894521)
(0 -0.0043495814 0.33614791)
(0 0.00016565485 0.11737508)
(0 -2.0422299e-05 0.10744523)
(0 0.0038048858 0.31390338)
(0 0.011876457 0.47575219)
(0 0.017787138 0.55694436)
(0 0.019182805 0.57383798)
(0 0.018044267 0.56488612)
(0 0.016519553 0.55392921)
(0 0.015229484 0.54650339)
(0 0.014068005 0.54145184)
(0 0.012914524 0.537559)
(0 0.011748069 0.53437788)
(0 0.010591337 0.53175663)
(0 0.0094595757 0.52960254)
(0 0.0083444001 0.52783613)
(0 0.0072315226 0.5263927)
(0 0.0061171807 0.52522616)
(0 0.0050051351 0.52430544)
(0 0.0038978522 0.52360837)
(0 0.0027948982 0.52311861)
(0 0.0016951783 0.52282488)
(0 0.00059789982 0.52272069)
(0 -0.00049753995 0.52280403)
(0 -0.001591806 0.52307732)
(0 -0.0026858073 0.52354743)
(0 -0.0037801655 0.52422587)
(0 -0.0048733807 0.52512913)
(0 -0.0059620584 0.52628061)
(0 -0.0070472937 0.52771529)
(0 -0.0081392491 0.52948338)
(0 -0.0092466707 0.53164811)
(0 -0.010359939 0.534283)
(0 -0.011458043 0.53749625)
(0 -0.012543822 0.54157423)
(0 -0.013687298 0.54734638)
(0 -0.014987825 0.55589757)
(0 -0.016103951 0.56387584)
(0 -0.015509506 0.55230656)
(0 -0.011226044 0.48363108)
(0 -0.0040004171 0.3301356)
(0 0.00010928769 0.11548527)
(0 -1.1389189e-06 0.10570198)
(0 0.0035385606 0.30829966)
(0 0.011088368 0.4694)
(0 0.016952947 0.55361182)
(0 0.018582988 0.57371353)
(0 0.01763298 0.56616244)
(0 0.016180247 0.55534028)
(0 0.014911785 0.5477637)
(0 0.013760664 0.54262036)
(0 0.012620524 0.53869015)
(0 0.011480589 0.53549349)
(0 0.010362865 0.53286777)
(0 0.0092712724 0.53071333)
(0 0.0081889916 0.52894526)
(0 0.0071025939 0.52749787)
(0 0.0060128382 0.52632668)
(0 0.0049255566 0.52540182)
(0 0.0038428418 0.52470129)
(0 0.0027637212 0.52420859)
(0 0.0016871575 0.52391235)
(0 0.00061268791 0.5238061)
(0 -0.0004599369 0.52388781)
(0 -0.0015310452 0.52415986)
(0 -0.0026013757 0.52462915)
(0 -0.0036718473 0.52530728)
(0 -0.0047413705 0.5262106)
(0 -0.0058053041 0.52736161)
(0 -0.0068611089 0.52879375)
(0 -0.0079171465 0.53055728)
(0 -0.0089878338 0.53271924)
(0 -0.010073582 0.53535882)
(0 -0.011156007 0.53859046)
(0 -0.012229691 0.54271935)
(0 -0.013352448 0.54858759)
(0 -0.014600019 0.55706525)
(0 -0.015585044 0.56401993)
(0 -0.014799357 0.54974972)
(0 -0.010508845 0.47800361)
(0 -0.0036980081 0.32453955)
(0 7.1176097e-05 0.11372055)
(0 1.0041219e-05 0.10405875)
(0 0.003296559 0.30308022)
(0 0.010371234 0.46330428)
(0 0.016172823 0.55022162)
(0 0.018016646 0.57342527)
(0 0.017252219 0.56734178)
(0 0.015866174 0.55671321)
(0 0.014606432 0.54899116)
(0 0.01345672 0.54374734)
(0 0.012330855 0.53977967)
(0 0.011223019 0.53657365)
(0 0.010146579 0.53394899)
(0 0.009092093 0.53179648)
(0 0.0080378332 0.53002708)
(0 0.0069746622 0.52857599)
(0 0.0059082763 0.52740095)
(0 0.0048454121 0.526473)
(0 0.0037869972 0.52576995)
(0 0.0027314025 0.525275)
(0 0.0016777195 0.52497668)
(0 0.00062581921 0.52486852)
(0 -0.00042424408 0.52494849)
(0 -0.0014724847 0.52521894)
(0 -0.0025194281 0.52568678)
(0 -0.0035663386 0.52636378)
(0 -0.0046130915 0.52726648)
(0 -0.0056548242 0.52841674)
(0 -0.0066854259 0.52984613)
(0 -0.0077089943 0.53160354)
(0 -0.0087423205 0.53375848)
(0 -0.0097965479 0.53639723)
(0 -0.010862211 0.53964583)
(0 -0.011931282 0.54383193)
(0 -0.013046355 0.54979662)
(0 -0.014249014 0.55816131)
(0 -0.015105223 0.56403105)
(0 -0.014141911 0.54712444)
(0 -0.0098568772 0.47257811)
(0 -0.0034314351 0.31932054)
(0 4.5475531e-05 0.11206405)
(0 2.1300841e-05 0.10250641)
(0 0.0030831867 0.2982043)
(0 0.0097235725 0.4574596)
(0 0.01544548 0.54679729)
(0 0.017478709 0.57298741)
(0 0.016890011 0.56842069)
(0 0.015563792 0.55804067)
(0 0.014305502 0.55018332)
(0 0.013156617 0.54483587)
(0 0.012051431 0.54083369)
(0 0.010981414 0.53762443)
(0 0.0099455225 0.53500433)