/*--------------------------------*- C++ -*----------------------------------*\
  =========                 |
  \\      /  F ield         | OpenFOAM: The Open Source CFD Toolbox
   \\    /   O peration     | Website:  https://openfoam.org
    \\  /    A nd           | Version:  10
     \\/     M anipulation  |
\*---------------------------------------------------------------------------*/
FoamFile
{
    format      ascii;
    class       surfaceScalarField;
    location    "0.19";
    object      phi;
}
// * * * * * * * * * * * * * * * * * * * * * * * * * * * * * * * * * * * * * //

dimensions      [1 0 -1 0 0 0 0];

internalField   nonuniform List<scalar> 
7860
(
3.9895766e-08
5.2881226e-07
1.2192561e-08
5.96411e-07
7.4277409e-09
5.7347256e-07
5.4992438e-09
5.706362e-07
4.1148233e-09
5.7009209e-07
3.2009805e-09
5.6962149e-07
2.5590023e-09
5.6934961e-07
2.0791956e-09
5.6918742e-07
1.7092314e-09
5.6907757e-07
1.4165856e-09
5.6900024e-07
1.1794625e-09
5.6894471e-07
9.8309852e-10
5.6890394e-07
8.1714974e-10
5.6887352e-07
6.7412549e-10
5.6885059e-07
5.4845206e-10
5.6883324e-07
4.3586832e-10
5.6882015e-07
3.3302016e-10
5.6881041e-07
2.3717976e-10
5.688034e-07
1.4604363e-10
5.6879869e-07
5.7580174e-11
5.6879602e-07
-3.00939e-11
5.6879523e-07
-1.1882127e-10
5.6879628e-07
-2.1050895e-10
5.6879925e-07
-3.0723484e-10
5.6880428e-07
-4.1138034e-10
5.6881171e-07
-5.2579286e-10
5.6882198e-07
-6.5400693e-10
5.6883578e-07
-8.0055691e-10
5.6885412e-07
-9.7143764e-10
5.6887845e-07
-1.1748111e-09
5.6891095e-07
-1.4221794e-09
5.6895495e-07
-1.7303549e-09
5.6901577e-07
-2.1243169e-09
5.6910157e-07
-2.6439484e-09
5.6922725e-07
-3.3716633e-09
5.6943535e-07
-4.4630213e-09
5.6979901e-07
-6.0084569e-09
5.7025311e-07
-9.5075273e-09
5.7220678e-07
-2.9575267e-08
5.8877549e-07
5.3913266e-07
5.9671977e-08
4.6914029e-07
3.6665348e-08
6.1941763e-07
2.2627565e-08
5.8751034e-07
1.625296e-08
5.770108e-07
1.2289908e-08
5.7405515e-07
9.6056908e-09
5.7230571e-07
7.6769638e-09
5.7127834e-07
6.2356896e-09
5.706287e-07
5.1262699e-09
5.7018699e-07
4.2486308e-09
5.6987788e-07
3.5374359e-09
5.696559e-07
2.9485151e-09
5.6949286e-07
2.4508215e-09
5.6937122e-07
2.021878e-09
5.6927954e-07
1.6449685e-09
5.6921015e-07
1.3073137e-09
5.691578e-07
9.9885464e-10
5.6911887e-07
7.114111e-10
5.6909084e-07
4.3807535e-10
5.6907203e-07
1.7275393e-10
5.6906134e-07
-9.0201545e-11
5.6905819e-07
-3.5631629e-10
5.690624e-07
-6.3130444e-10
5.6907423e-07
-9.2140036e-10
5.6909438e-07
-1.2337453e-09
5.6912405e-07
-1.5768783e-09
5.6916511e-07
-1.9613989e-09
5.692203e-07
-2.4009051e-09
5.6929363e-07
-2.9133823e-09
5.6939093e-07
-3.5233251e-09
5.695209e-07
-4.265155e-09
5.6969678e-07
-5.1892399e-09
5.6993985e-07
-6.3722076e-09
5.7028453e-07
-7.93278e-09
5.7078782e-07
-1.0074184e-08
5.7157675e-07
-1.3202554e-08
5.7292738e-07
-1.8132665e-08
5.7518322e-07
-2.8175014e-08
5.8224912e-07
-4.5801275e-08
6.0640175e-07
4.9333138e-07
6.0007993e-08
4.0913231e-07
5.0486076e-08
6.2893955e-07
3.3369552e-08
6.0462687e-07
2.4816575e-08
5.8556378e-07
1.9322176e-08
5.7954954e-07
1.5330501e-08
5.7629738e-07
1.2359832e-08
5.74249e-07
1.0100811e-08
5.7288772e-07
8.3400594e-09
5.7194774e-07
6.9344537e-09
5.7128349e-07
5.7879122e-09
5.7080245e-07
4.8336677e-09
5.7044711e-07
4.0239526e-09
5.7018093e-07
3.3237788e-09
5.6997971e-07
2.7068793e-09
5.6982705e-07
2.1530191e-09
5.6971166e-07
1.6461695e-09
5.6962572e-07
1.1732279e-09
5.6956378e-07
7.2308377e-10
5.6952217e-07
2.8590549e-10
5.6949852e-07
-1.4743696e-10
5.6949153e-07
-5.8587796e-10
5.6950084e-07
-1.0386497e-09
5.69527e-07
-1.5158019e-09
5.6957153e-07
-2.0288053e-09
5.6963705e-07
-2.5913104e-09
5.6972761e-07
-3.2201595e-09
5.6984915e-07
-3.9367976e-09
5.7001026e-07
-4.7693228e-09
5.7022346e-07
-5.7555493e-09
5.7050712e-07
-6.9476663e-09
5.708889e-07
-8.4198765e-09
5.7141206e-07
-1.0281583e-08
5.7214624e-07
-1.2694665e-08
5.732009e-07
-1.5892288e-08
5.7477437e-07
-2.0236354e-08
5.7727144e-07
-2.6704944e-08
5.8165181e-07
-3.8944552e-08
5.9448873e-07
-4.8164712e-08
6.1562191e-07
4.4516667e-07
5.4877952e-08
3.5425437e-07
5.7450332e-08
6.2636717e-07
4.0465769e-08
6.2161142e-07
3.0777059e-08
5.9525249e-07
2.4641396e-08
5.8568521e-07
1.995074e-08
5.8098804e-07
1.631154e-08
5.778882e-07
1.3465336e-08
5.7573392e-07
1.1200007e-08
5.7421307e-07
9.3638465e-09
5.7311965e-07
7.8489655e-09
5.7231733e-07
6.5768723e-09
5.717192e-07
5.4897171e-09
5.7126809e-07
4.5441834e-09
5.7092524e-07
3.7071725e-09
5.7066406e-07
2.952823e-09
5.7046601e-07
2.2604133e-09
5.7031813e-07
1.6128434e-09
5.7021135e-07
9.9550369e-10
5.7013951e-07
3.953949e-10
5.7009863e-07
-1.9959512e-10
5.7008652e-07
-8.0133149e-10
5.7010258e-07
-1.4220534e-09
5.7014773e-07
-2.0750284e-09
5.7022451e-07
-2.7753034e-09
5.7033733e-07
-3.540632e-09
5.7049294e-07
-4.392682e-09
5.707012e-07
-5.3586685e-09
5.7097625e-07
-6.4736341e-09
5.7133842e-07
-7.7837097e-09
5.718172e-07
-9.350681e-09
5.7245587e-07
-1.1258375e-08
5.7331976e-07
-1.3623062e-08
5.7451093e-07
-1.6606095e-08
5.7618393e-07
-2.0405261e-08
5.7857354e-07
-2.528724e-08
5.8215342e-07
-3.2511788e-08
5.8887636e-07
-4.5095558e-08
6.070725e-07
-4.6545864e-08
6.1707222e-07
3.986208e-07
4.7964441e-08
3.0628996e-07
6.0073968e-08
6.1425766e-07
4.5397553e-08
6.3628783e-07
3.4872929e-08
6.0577711e-07
2.8397508e-08
5.9216063e-07
2.3417393e-08
5.8596815e-07
1.9432271e-08
5.8187332e-07
1.6227397e-08
5.789388e-07
1.3618249e-08
5.7682222e-07
1.1465416e-08
5.7527248e-07
9.663769e-09
5.7411897e-07
8.133262e-09
5.7324971e-07
6.8128674e-09
5.7258848e-07
5.6555678e-09
5.7208254e-07
4.6245825e-09
5.7169504e-07
3.6906195e-09
5.7139997e-07
2.8298345e-09
5.7117891e-07
2.022292e-09
5.710189e-07
1.2507811e-09
5.7091102e-07
4.9987019e-10
5.7084954e-07
-2.4488602e-10
5.7083127e-07
-9.9765637e-10
5.7085535e-07
-1.7730236e-09
5.7092309e-07
-2.5867071e-09
5.7103819e-07
-3.4563784e-09
5.71207e-07
-4.4026456e-09
5.7143921e-07
-5.4502928e-09
5.7174885e-07
-6.6298901e-09
5.7215585e-07
-7.9799198e-09
5.7268845e-07
-9.5496508e-09
5.7338693e-07
-1.1402914e-08
5.7430913e-07
-1.3622528e-08
5.7553937e-07
-1.6316801e-08
5.772052e-07
-1.9629346e-08
5.7949648e-07
-2.3730446e-08
5.8267464e-07
-2.8922981e-08
5.8734596e-07
-3.6783437e-08
5.9673681e-07
-4.8456402e-08
6.1874547e-07
-4.3189853e-08
6.1180567e-07
3.5543095e-07
4.033453e-08
2.6595548e-07
5.8990797e-08
5.9560142e-07
4.8326544e-08
6.4695208e-07
3.75848e-08
6.1651885e-07
3.0925759e-08
5.9881967e-07
2.5891039e-08
5.9100287e-07
2.1777305e-08
5.8598706e-07
1.8389701e-08
5.823264e-07
1.5575562e-08
5.7963635e-07
1.3212834e-08
5.7763521e-07
1.1205572e-08
5.7612624e-07
9.4784785e-09
5.749768e-07
7.9724055e-09
5.7409455e-07
6.6404422e-09
5.7341451e-07
5.4449549e-09
5.7289053e-07
4.355319e-09
5.7248961e-07
3.3461393e-09
5.7218809e-07
2.3958503e-09
5.7196918e-07
1.4855987e-09
5.7182127e-07
5.983225e-10
5.7173681e-07
-2.820391e-10
5.7171164e-07
-1.1712632e-09
5.7174457e-07
-2.0855458e-09
5.7183738e-07
-3.0422301e-09
5.7199487e-07
-4.0606122e-09
5.7222538e-07
-5.1628877e-09
5.7254148e-07
-6.3753027e-09
5.7296126e-07
-7.7295889e-09
5.7351013e-07
-9.2647613e-09
5.7422362e-07
-1.1029426e-08
5.7515159e-07
-1.3084811e-08
5.7636452e-07
-1.5508191e-08
5.7796275e-07
-1.8396975e-08
5.8009398e-07
-2.187535e-08
5.8297485e-07
-2.609912e-08
5.8689841e-07
-3.1477687e-08
5.9272452e-07
-3.9644068e-08
6.049032e-07
-4.9162672e-08
6.2826407e-07
-3.85732e-08
6.0121619e-07
3.1685775e-07
3.2860993e-08
2.3309454e-07
5.524593e-08
5.7321654e-07
4.9227558e-08
6.5297045e-07
3.9057157e-08
6.2668924e-07
3.2426553e-08
6.0545027e-07
2.7514887e-08
5.9591454e-07
2.343516e-08
5.9006678e-07
1.9999804e-08
5.8576176e-07
1.7092255e-08
5.825439e-07
1.4610285e-08
5.8011718e-07
1.2470099e-08
5.7826642e-07
1.060444e-08
5.7684246e-07
8.9590589e-09
5.7573993e-07
7.489756e-09
5.7488381e-07
6.1601932e-09
5.7422009e-07
4.9401357e-09
5.7370967e-07
3.8040101e-09
5.7332422e-07
2.7297266e-09
5.7304347e-07
1.6977038e-09
5.728533e-07
6.9003688e-10
5.7274448e-07
-3.1023373e-10
5.7271191e-07
-1.3197972e-09
5.7275413e-07
-2.3557379e-09
5.7287332e-07
-3.4362185e-09
5.7307535e-07
-4.5812217e-09
5.7337038e-07
-5.8133975e-09
5.7377366e-07
-7.1590599e-09
5.7430692e-07
-8.6493882e-09
5.7500046e-07
-1.0321877e-08
5.7589611e-07
-1.222211e-08
5.7705182e-07
-1.4406154e-08
5.7854856e-07
-1.6943445e-08
5.8050004e-07
-1.9918836e-08
5.8306937e-07
-2.343312e-08
5.8648914e-07
-2.7627725e-08
5.9109301e-07
-3.3020848e-08
5.9811765e-07
-4.0997095e-08
6.1287944e-07
-4.7675646e-08
6.3494262e-07
-3.3370016e-08
5.8691056e-07
2.8348773e-07
2.6187097e-08
2.0690751e-07
5.0127772e-08
5.4927594e-07
4.8487552e-08
6.5461068e-07
3.9485389e-08
6.3569139e-07
3.3072169e-08
6.1186349e-07
2.840706e-08
6.0057965e-07
2.4488357e-08
5.9398549e-07
2.1114228e-08
5.8913589e-07
1.8203779e-08
5.8545435e-07
1.5677773e-08
5.8264318e-07
1.3467068e-08
5.8047713e-07
1.1514474e-08
5.7879505e-07
9.772468e-09
5.7748194e-07
8.20125e-09
5.7645503e-07
6.7672785e-09
5.7565406e-07
5.4419983e-09
5.7503495e-07
4.2007517e-09
5.7456546e-07
3.0218558e-09
5.7422236e-07
1.8858045e-09
5.7398935e-07
7.7456559e-10
5.7385572e-07
-3.2905577e-10
5.7381553e-07
-1.4420126e-09
5.7386709e-07
-2.5816093e-09
5.7401291e-07
-3.766104e-09
5.7425985e-07
-5.0153515e-09
5.7461963e-07
-6.3515179e-09
5.7510983e-07
-7.799893e-09
5.757553e-07
-9.3898375e-09
5.765904e-07
-1.1155891e-08
5.7766216e-07
-1.3139038e-08
5.7903497e-07
-1.5388363e-08
5.8079789e-07
-1.7963162e-08
5.8307484e-07
-2.0932901e-08
5.8603911e-07
-2.4372792e-08
5.8992903e-07
-2.8418339e-08
5.9513856e-07
-3.367445e-08
6.0337376e-07
-4.104563e-08
6.2025062e-07
-4.478267e-08
6.3867966e-07
-2.8197589e-08
5.7032548e-07
2.5529015e-07
2.0568794e-08
1.863388e-07
4.4577346e-08
5.2526751e-07
4.6635395e-08
6.5255266e-07
3.9145964e-08
6.431808e-07
3.3077131e-08
6.1793231e-07
2.8711349e-08
6.0494543e-07
2.5032389e-08
5.9766445e-07
2.1798696e-08
5.9236958e-07
1.8954941e-08
5.8829811e-07
1.6445061e-08
5.8515306e-07
1.4215547e-08
5.8270664e-07
1.2220207e-08
5.8079039e-07
1.0419251e-08
5.792829e-07
8.7783085e-09
5.7809597e-07
7.2676145e-09
5.7716476e-07
5.8611897e-09
5.7644137e-07
4.5361036e-09
5.7589055e-07
3.2718082e-09
5.7548666e-07
2.0495319e-09
5.7521162e-07
8.517214e-10
5.7505353e-07
-3.384776e-10
5.7500573e-07
-1.5377166e-09
5.7506633e-07
-2.7629418e-09
5.7523814e-07
-4.031895e-09
5.755288e-07
-5.3636385e-09
5.7595137e-07
-6.7791206e-09
5.7652531e-07
-8.3017927e-09
5.7727797e-07
-9.9582948e-09
5.7824691e-07
-1.1779221e-08
5.7948309e-07
-1.3799916e-08
5.8105567e-07
-1.6061382e-08
5.8305935e-07
-1.8611482e-08
5.8562494e-07
-2.150334e-08
5.8893097e-07
-2.4790994e-08
5.9321668e-07
-2.862058e-08
5.9896814e-07
-3.3638995e-08
6.0839217e-07
-4.0123002e-08
6.2673463e-07
-4.1141805e-08
6.3969846e-07
-2.3409279e-08
5.5259296e-07
2.3188087e-07
1.6013135e-08
1.7032576e-07
3.9137065e-08
5.0214373e-07
4.4109311e-08
6.4758047e-07
3.8280578e-08
6.4900952e-07
3.2645534e-08
6.2356735e-07
2.8583776e-08
6.0900719e-07
2.5176399e-08
6.0107182e-07
2.2129553e-08
5.9541642e-07
1.939934e-08
5.9102832e-07
1.6949688e-08
5.8760271e-07
1.4741609e-08
5.8491472e-07
1.2739491e-08
5.8279251e-07
1.0911411e-08
5.8111098e-07
9.2288335e-09
5.7977855e-07
7.6662691e-09
5.7872732e-07
6.2008561e-09
5.7790678e-07
4.8119323e-09
5.7727947e-07
3.4806084e-09
5.7681798e-07
2.1893468e-09
5.7650289e-07
9.2155339e-10
5.7632132e-07
-3.3881961e-10
5.762661e-07
-1.6076599e-09
5.7633517e-07
-2.9010873e-09
5.7653156e-07
-4.2358441e-09
5.7686356e-07
-5.6296943e-09
5.7734522e-07
-7.1018383e-09
5.7799745e-07
-8.67334e-09
5.7884947e-07
-1.0367565e-08
5.7994113e-07
-1.2210637e-08
5.8132616e-07
-1.4231856e-08
5.8307689e-07
-1.6464064e-08
5.8529156e-07
-1.8944026e-08
5.881049e-07
-2.1709905e-08
5.9169685e-07
-2.4802192e-08
5.9630897e-07
-2.8389609e-08
6.0255556e-07
-3.309882e-08
6.1310138e-07
-3.8524138e-08
6.3215995e-07
-3.7195528e-08
6.3836985e-07
-1.9174451e-08
5.3457188e-07
2.1270641e-07
1.2421149e-08
1.5790473e-07
3.4106008e-08
4.8045907e-07
4.1238492e-08
6.4044807e-07
3.7067356e-08
6.5318064e-07
3.1931471e-08
6.2870321e-07
2.8159032e-08
6.1277962e-07
2.502399e-08
6.0420687e-07
2.2184016e-08
5.982564e-07
1.9594047e-08
5.9361829e-07
1.723348e-08
5.8996328e-07
1.5075668e-08
5.8707253e-07
1.3094284e-08
5.8477389e-07
1.1264674e-08
5.8294059e-07
9.5639681e-09
5.8147925e-07
7.9710311e-09
5.8032026e-07
6.4663329e-09
5.7941148e-07
5.0317704e-09
5.7871403e-07
3.6504393e-09
5.7819931e-07
2.3063788e-09
5.7784695e-07
9.8430102e-10
5.776434e-07
-3.3068581e-10
5.7758108e-07
-1.6533562e-09
5.7765784e-07
-2.9986532e-09
5.7787686e-07
-4.3819695e-09
5.7824687e-07
-5.8194253e-09
5.7878268e-07
-7.3281422e-09
5.7950617e-07
-8.9265022e-09
5.8044783e-07
-1.063438e-08
5.8164901e-07
-1.2473352e-08
5.8316513e-07
-1.4466856e-08
5.8507039e-07
-1.6640226e-08
5.8746493e-07
-1.9020369e-08
5.9048504e-07
-2.1632804e-08
5.9430928e-07
-2.451173e-08
5.9918789e-07
-2.7851432e-08
6.0589526e-07
-3.2196583e-08
6.1744653e-07
-3.6491158e-08
6.3645452e-07
-3.3245076e-08
6.3512377e-07
-1.5554752e-08
5.1688156e-07
1.9715166e-07
9.6542096e-09
1.4825065e-07
2.9636467e-08
4.6047707e-07
3.8269568e-08
6.3181509e-07
3.5644434e-08
6.5580577e-07
3.1046077e-08
6.3330155e-07
2.7541442e-08
6.1628425e-07
2.4661693e-08
6.0708662e-07
2.2030827e-08
6.0088726e-07
1.95929e-08
5.9605621e-07
1.7337922e-08
5.9221826e-07
1.5249263e-08
5.8916119e-07
1.3308322e-08
5.8671483e-07
1.1496748e-08
5.8475216e-07
9.7967948e-09
5.8317921e-07
8.1914375e-09
5.8192562e-07
6.6644333e-09
5.8093849e-07
5.2003144e-09
5.8017815e-07
3.7843136e-09
5.7961531e-07
2.4022426e-09
5.7922902e-07
1.0403419e-09
5.790053e-07
-3.1489063e-10
5.7893632e-07
-1.676878e-09
5.7901983e-07
-3.0591521e-09
5.7925914e-07
-4.475534e-09
5.7966326e-07
-5.9403037e-09
5.8024745e-07
-7.4683519e-09
5.8103422e-07
-9.0753039e-09
5.8205478e-07
-1.0777594e-08
5.833513e-07
-1.2592497e-08
5.8498004e-07
-1.4538115e-08
5.8701601e-07
-1.663321e-08
5.8956002e-07
-1.8896281e-08
5.9274812e-07
-2.1342868e-08
5.9675587e-07
-2.4007078e-08
6.018521e-07
-2.7104858e-08
6.0899304e-07
-3.1050405e-08
6.2139208e-07
-3.4228161e-08
6.3963228e-07
-2.9495551e-08
6.3039116e-07
-1.2545512e-08
4.9993152e-07
1.8460615e-07
7.5634897e-09
1.4068732e-07
2.5776087e-08
4.4226478e-07
3.5373373e-08
6.2221798e-07
3.4121632e-08
6.5705751e-07
3.0072295e-08
6.3735086e-07
2.6810948e-08
6.1954559e-07
2.415915e-08
6.0973841e-07
2.1727724e-08
6.0331869e-07
1.9443145e-08
5.9834079e-07
1.7301039e-08
5.9436036e-07
1.5292505e-08
5.9116972e-07
1.3405142e-08
5.886022e-07
1.1625813e-08
5.8653149e-07
9.9411809e-09
5.8486384e-07
8.3379047e-09
5.8352889e-07
6.802805e-09
5.8247358e-07
5.3229662e-09
5.8165799e-07
3.8857682e-09
5.8105251e-07
2.4788677e-09
5.8063592e-07
1.0901427e-09
5.8039403e-07
-2.9238944e-10
5.8031885e-07
-1.6806645e-09
5.804081e-07
-3.0866742e-09
5.8066514e-07
-4.5225598e-09
5.8109914e-07
-6.0006911e-09
5.8172558e-07
-7.5337207e-09
5.8256724e-07
-9.1346033e-09
5.8365566e-07
-1.0816561e-08
5.8503326e-07
-1.259299e-08
5.8675647e-07
-1.4477348e-08
5.8890037e-07
-1.6482842e-08
5.9156552e-07
-1.8621097e-08
5.9488637e-07
-2.090065e-08
5.9903542e-07
-2.3360617e-08
6.0431207e-07
-2.6230188e-08
6.1186261e-07
-2.9761306e-08
6.249232e-07
-3.1896757e-08
6.4176773e-07
-2.6069259e-08
6.2456366e-07
-1.0100062e-08
4.8396232e-07
1.7450609e-07
6.0084125e-09
1.346791e-07
2.2503072e-08
4.257705e-07
3.2651737e-08
6.1206955e-07
3.2579351e-08
6.5712992e-07
2.9070166e-08
6.4086001e-07
2.6027667e-08
6.2258808e-07
2.3571651e-08
6.1219443e-07
2.1322246e-08
6.0556809e-07
1.9184935e-08
6.0047811e-07
1.7156235e-08
5.9638906e-07
1.5232745e-08
5.9309321e-07
1.3406813e-08
5.9042813e-07
1.1669427e-08
5.8826887e-07
1.0010889e-08
5.8652237e-07
8.4210268e-09
5.8511875e-07
6.889396e-09
5.8400522e-07
5.4054427e-09
5.8314194e-07
3.9586019e-09
5.8249935e-07
2.5383494e-09
5.8205617e-07
1.1342176e-09
5.8179816e-07
-2.642155e-10
5.8171728e-07
-1.6673507e-09
5.8181124e-07
-3.0856e-09
5.8208339e-07
-4.5294102e-09
5.8254295e-07
-6.0092705e-09
5.8320544e-07
-7.5356934e-09
5.8409367e-07
-9.1191586e-09
5.8523913e-07
-1.0770008e-08
5.8668411e-07
-1.2498286e-08
5.8848474e-07
-1.4313562e-08
5.9071564e-07
-1.6224551e-08
5.9347651e-07
-1.8237586e-08
5.968994e-07
-2.0357282e-08
6.0115512e-07
-2.26313e-08
6.0658609e-07
-2.5290953e-08
6.1452227e-07
-2.8409835e-08
6.2804208e-07
-2.9611097e-08
6.4296899e-07
-2.3021429e-08
6.1797399e-07
-8.1499369e-09
4.6909083e-07
1.6635615e-07
4.8662721e-09
1.2981305e-07
1.9758858e-08
4.1087838e-07
3.0152904e-08
6.0167582e-07
3.1069895e-08
6.5621298e-07
2.8079133e-08
6.4385073e-07
2.5233839e-08
6.2543335e-07
2.2941273e-08
6.1448699e-07
2.0852398e-08
6.0765697e-07
1.8851505e-08
6.02479e-07
1.6932031e-08
5.9830854e-07
1.5094022e-08
5.9493122e-07
1.3333262e-08
5.9218889e-07
1.1643849e-08
5.8995829e-07
1.0018964e-08
5.8814726e-07
8.4510548e-09
5.8668666e-07
6.9320365e-09
5.8552423e-07
5.4534619e-09
5.8462052e-07
4.0066586e-09
5.8394616e-07
2.5828251e-09
5.8348e-07
1.1730944e-09
5.8320789e-07
-2.314252e-10
5.831218e-07
-1.639622e-09
5.8321943e-07
-3.0603602e-09
5.8350413e-07
-4.5024498e-09
5.8398504e-07
-5.9746022e-09
5.8467759e-07
-7.4853595e-09
5.8560442e-07
-9.0429915e-09
5.8679676e-07
-1.0655352e-08
5.8829647e-07
-1.2329696e-08
5.9015909e-07
-1.4072486e-08
5.9245843e-07
-1.5888978e-08
5.95293e-07
-1.7781737e-08
5.9879216e-07
-1.9754261e-08
6.0312764e-07
-2.186448e-08
6.0869631e-07
-2.4333828e-08
6.1699161e-07
-2.7054688e-08
6.3076294e-07
-2.7443245e-08
6.4335755e-07
-2.0361395e-08
6.1089214e-07
-6.6194755e-09
4.5534891e-07
1.5973668e-07
4.0347073e-09
1.257786e-07
1.7470953e-08
3.9744269e-07
2.7890807e-08
5.9125636e-07
2.9623853e-08
6.5448002e-07
2.7122345e-08
6.463522e-07
2.4456596e-08
6.2809908e-07
2.2298109e-08
6.1664548e-07
2.0347209e-08
6.0960787e-07
1.8469383e-08
6.0435682e-07
1.6652018e-08
6.001259e-07
1.4896828e-08
5.9668641e-07
1.3201931e-08
5.9388379e-07
1.1563647e-08
5.9159657e-07
9.9773343e-09
5.8973357e-07
8.4375381e-09
5.8822646e-07
6.9381361e-09
5.8702364e-07
5.4725041e-09
5.8608615e-07
4.0336593e-09
5.85385e-07
2.6143777e-09
5.8489928e-07
1.2072883e-09
5.8461498e-07
-1.9505266e-10
5.8452414e-07
-1.6000973e-09
5.8462448e-07
-3.0152467e-09
5.8491928e-07
-4.4477842e-09
5.8541758e-07
-5.9047958e-09
5.861346e-07
-7.3930682e-09
5.870927e-07
-8.9189614e-09
5.8832265e-07
-1.0488254e-08
5.8986576e-07
-1.2105969e-08
5.917768e-07
-1.3776198e-08
5.9412866e-07
-1.5501664e-08
5.9701847e-07
-1.7282536e-08
6.0057303e-07
-1.9123492e-08
6.049686e-07
-2.1092814e-08
6.1066563e-07
-2.3390738e-08
6.1928954e-07
-2.573557e-08
6.3310777e-07
-2.5432917e-08
6.4305489e-07
-1.8070595e-08
6.0352982e-07
-5.4342979e-09
4.4271261e-07
1.5430238e-07
3.4310419e-09
1.2234787e-07
1.5565531e-08
3.8530886e-07
2.5858804e-08
5.8096359e-07
2.8256599e-08
6.5208236e-07
2.6211613e-08
6.4839714e-07
2.3711769e-08
6.3059889e-07
2.1662413e-08
6.1869483e-07
1.9827846e-08
6.1144244e-07
1.805894e-08
6.0612573e-07
1.6335056e-08
6.0184979e-07
1.4658101e-08
5.9836337e-07
1.3027639e-08
5.9551425e-07
1.1441489e-08
5.9318272e-07
9.8965897e-09
5.9127847e-07
8.3890983e-09
5.8973395e-07
6.9144815e-09
5.8849825e-07
5.467648e-09
5.8753298e-07
4.043082e-09
5.8680957e-07
2.6349653e-09
5.863074e-07
1.2372846e-09
5.8601266e-07
-1.5607447e-10
5.859175e-07
-1.5512406e-09
5.8601964e-07
-2.9542736e-09
5.8632231e-07
-4.3710741e-09
5.8683438e-07
-5.8072843e-09
5.8757081e-07
-7.2681717e-09
5.8855358e-07
-8.7584955e-09
5.8981298e-07
-1.0282361e-08
5.9138962e-07
-1.1843071e-08
5.9333751e-07
-1.3442988e-08
5.9572858e-07
-1.5083101e-08
5.9865858e-07
-1.6762346e-08
6.0225228e-07
-1.8488324e-08
6.0669458e-07
-2.033846e-08
6.1251576e-07
-2.248211e-08
6.2143319e-07
-2.4477282e-08
6.3510294e-07
-2.3596903e-08
6.4217451e-07
-1.6115024e-08
5.9604794e-07
-4.5259885e-09
4.3112357e-07
1.4977639e-07
2.990645e-09
1.193576e-07
1.3974115e-08
3.7432617e-07
2.4039007e-08
5.7089933e-07
2.6973244e-08
6.4914831e-07
2.5351268e-08
6.5001908e-07
2.3007318e-08
6.3294279e-07
2.1046986e-08
6.2065515e-07
1.9309133e-08
6.1318029e-07
1.7635307e-08
6.0779956e-07
1.5995781e-08
6.0348931e-07
1.4391451e-08
5.999677e-07
1.282264e-08
5.9708306e-07
1.1288108e-08
5.9471725e-07
9.7858799e-09
5.927807e-07
8.3133121e-09
5.9120652e-07
6.8671198e-09
5.8994444e-07
5.4434686e-09
5.8895663e-07
4.0380862e-09
5.8821495e-07
2.6463766e-09
5.8769911e-07
1.2635282e-09
5.8739551e-07
-1.1538393e-10
5.8729641e-07
-1.495301e-09
5.8739956e-07
-2.8810844e-09
5.877081e-07
-4.2774148e-09
5.8823071e-07
-5.6886849e-09
5.8898208e-07
-7.1188814e-09
5.8998378e-07
-8.5714592e-09
5.9126556e-07
-1.0049217e-08
5.9286738e-07
-1.1554188e-08
5.9484248e-07
-1.3087541e-08
5.9726193e-07
-1.4649182e-08
6.0022022e-07
-1.6237786e-08
6.0384088e-07
-1.786506e-08
6.0832185e-07
-1.9615443e-08
6.1426615e-07
-2.1619739e-08
6.2343748e-07
-2.3293251e-08
6.3677645e-07
-2.193633e-08
6.4081759e-07
-1.4453618e-08
5.8856523e-07
-3.8346474e-09
4.205046e-07
1.4594174e-07
2.6646782e-09
1.1669335e-07
1.2636947e-08
3.6435483e-07
2.2408641e-08
5.6112841e-07
2.5772381e-08
6.4578484e-07
2.4540854e-08
6.5125057e-07
2.2345891e-08
6.351377e-07
2.0459179e-08
6.2254185e-07
1.8800992e-08
6.1483848e-07
1.7209376e-08
6.0939117e-07
1.5645246e-08
6.0505344e-07
1.4107546e-08
6.015054e-07
1.259683e-08
5.9859377e-07
1.1112381e-08
5.962017e-07
9.6529281e-09
5.9424015e-07
8.2166815e-09
5.9264276e-07
6.8013108e-09
5.9135981e-07
5.4039882e-09
5.9035396e-07
4.0214723e-09
5.8959746e-07
2.6502065e-09
5.8907038e-07
1.2864192e-09
5.8875929e-07
-7.3774687e-11
5.8865661e-07
-1.4342751e-09
5.8876006e-07
-2.7988982e-09
5.8907272e-07
-4.1712729e-09
5.8960308e-07
-5.5547357e-09
5.9036555e-07
-6.9522205e-09
5.9138126e-07
-8.3661486e-09
5.9267948e-07
-9.7983332e-09
5.9429957e-07
-1.1249916e-08
5.9629406e-07
-1.2721302e-08
5.9873332e-07
-1.4211837e-08
6.0171075e-07
-1.5720712e-08
6.0534976e-07
-1.7264393e-08
6.0986553e-07
-1.8931622e-08
6.1593338e-07
-2.0809043e-08
6.253149e-07
-2.2188549e-08
6.3815596e-07
-2.0442451e-08
6.390715e-07
-1.3043846e-08
5.8116663e-07
-3.3098687e-09
4.1077062e-07
1.4263187e-07
2.4174009e-09
1.1427645e-07
1.15041e-08
3.5526921e-07
2.0944122e-08
5.5168933e-07
2.4648977e-08
6.4208034e-07
2.3777137e-08
6.521224e-07
2.1726712e-08
6.3718806e-07
1.9902458e-08
6.2436608e-07
1.8309646e-08
6.1643129e-07
1.6788708e-08
6.1091211e-07
1.529158e-08
6.0655057e-07
1.3814556e-08
6.0298242e-07
1.2358026e-08
6.000503e-07
1.09215e-08
5.9763823e-07
9.504117e-09
5.9565754e-07
8.1046688e-09
5.9404221e-07
6.7215324e-09
5.9274295e-07
5.3526674e-09
5.9172282e-07
3.9956694e-09
5.9095446e-07
2.6478475e-09
5.904182e-07
1.3063122e-09
5.9010083e-07
-3.1931667e-11
5.8999485e-07
-1.3698911e-09
5.9009802e-07
-2.7104895e-09
5.9041332e-07
-4.0564688e-09
5.9094906e-07
-5.410293e-09
5.9171937e-07
-6.7740512e-09
5.9274502e-07
-8.1493697e-09
5.940548e-07
-9.5373485e-09
5.9568754e-07
-1.0938541e-08
5.9769526e-07
-1.2352926e-08
6.001477e-07
-1.3779686e-08
6.0313751e-07
-1.5219124e-08
6.0678919e-07
-1.6692663e-08
6.1133907e-07
-1.8290328e-08
6.1753104e-07
-2.0050945e-08
6.2707552e-07
-2.1162565e-08
6.3926758e-07
-1.9101174e-08
6.370101e-07
-1.184552e-08
5.7391097e-07
-2.9106442e-09
4.0183575e-07
1.3972123e-07
2.2234324e-09
1.1205361e-07
1.0535104e-08
3.4695881e-07
1.9623351e-08
5.4260222e-07
2.3596422e-08
6.3810774e-07
2.3055572e-08
6.5266325e-07
2.1147007e-08
6.3909655e-07
1.9377655e-08
6.2613541e-07
1.7838604e-08
6.1797034e-07
1.6378297e-08
6.1237242e-07
1.4940568e-08
6.079883e-07
1.3518584e-08
6.044044e-07
1.2112272e-08
6.0145661e-07
1.0721172e-08
5.9902933e-07
9.344618e-09
5.9703409e-07
7.981774e-09
5.9540506e-07
6.6315231e-09
5.940932e-07
5.2924263e-09
5.9306192e-07
3.9627446e-09
5.9228414e-07
2.6404943e-09
5.9174045e-07
1.323519e-09
5.914178e-07
9.570655e-12
5.913088e-07
-1.3036081e-09
5.914112e-07
-2.6181929e-09
5.917279e-07
-3.9361942e-09
5.9226706e-07
-5.2593708e-09
5.9304255e-07
-6.5891513e-09
5.940748e-07
-7.9265698e-09
5.9539222e-07
-9.2722357e-09
5.9703321e-07
-1.0626352e-08
5.9904937e-07
-1.1988717e-08
6.0151007e-07
-1.3358653e-08
6.0450745e-07
-1.4737993e-08
6.0816853e-07
-1.6152951e-08
6.1275403e-07
-1.7691751e-08
6.1906984e-07
-1.9343454e-08
6.2872722e-07
-2.0211198e-08
6.4013532e-07
-1.78962e-08
6.3469511e-07
-1.082274e-08
5.6683751e-07
-2.6045193e-09
3.9361753e-07
1.3711671e-07
2.0652864e-09
1.0998901e-07
9.6978355e-09
3.3932774e-07
1.8426758e-08
5.3387465e-07
2.2607803e-08
6.3392731e-07
2.2371278e-08
6.5289982e-07
2.0603028e-08
6.4086472e-07
1.8883927e-08
6.2785447e-07
1.7389468e-08
6.194648e-07
1.5981222e-08
6.1378067e-07
1.4596171e-08
6.0937335e-07
1.3224058e-08
6.0577652e-07
1.1864135e-08
6.0281654e-07
1.0515833e-08
6.0037763e-07
9.1785406e-09
5.9837138e-07
7.851635e-09
5.9673196e-07
6.5343469e-09
5.9541049e-07
5.2256843e-09
5.9437058e-07
3.9244262e-09
5.935854e-07
2.6291553e-09
5.9303572e-07
1.3383126e-09
5.9270865e-07
5.0264175e-11
5.9259685e-07
-1.2366273e-09
5.9269809e-07
-2.5239269e-09
5.930152e-07
-3.8130532e-09
5.9355619e-07
-5.1052087e-09
5.943347e-07
-6.4013191e-09
5.9537091e-07
-7.7019945e-09
5.9669289e-07
-9.0075292e-09
5.9833874e-07
-1.0317953e-08
6.003598e-07
-1.1633063e-08
6.0282517e-07
-1.2952534e-08
6.0582692e-07
-1.4280008e-08
6.0949601e-07
-1.5646029e-08
6.1412005e-07
-1.7134053e-08
6.2055786e-07
-1.8682883e-08
6.3027605e-07
-1.9328469e-08
6.4078091e-07
-1.6810966e-08
6.321776e-07
-9.9444156e-09
5.5997096e-07
-2.3663801e-09
3.8603949e-07
1.3475033e-07
1.9312901e-09
1.0805851e-07
8.9671558e-09
3.322936e-07
1.7337588e-08
5.2550583e-07
2.1676619e-08
6.2958904e-07
2.1719611e-08
6.5285692e-07
2.0090724e-08
6.4249351e-07
1.8419465e-08
6.2952568e-07
1.6962554e-08
6.209217e-07
1.5599181e-08
6.1514404e-07
1.4260963e-08
6.1071157e-07
1.2934088e-08
6.0710339e-07
1.1616973e-08
6.0413365e-07
1.0308856e-08
6.0168575e-07
9.009085e-09
5.9967115e-07
7.7171376e-09
5.9802391e-07
6.4324697e-09
5.9669516e-07
5.1544115e-09
5.9564864e-07
3.8821359e-09
5.9485768e-07
2.6146702e-09
5.9430318e-07
1.3509327e-09
5.9397238e-07
8.9785062e-11
5.9385799e-07
-1.1699105e-09
5.9395778e-07
-2.4292278e-09
5.9427452e-07
-3.689118e-09
5.9481608e-07
-4.9503549e-09
5.9559594e-07
-6.2134939e-09
5.9663405e-07
-7.478856e-09
5.9795826e-07
-8.7465548e-09
5.9960644e-07
-1.0016576e-08
6.0162982e-07
-1.1288831e-08
6.0409743e-07
-1.2563502e-08
6.0710159e-07
-1.3846191e-08
6.107787e-07
-1.5171108e-08
6.1544497e-07
-1.6614202e-08
6.2200096e-07
-1.806471e-08
6.3172656e-07
-1.8507631e-08
6.4122383e-07
-1.5829827e-08
6.294998e-07
-9.1843932e-09
5.5332553e-07
-2.1772524e-09
3.7903235e-07
1.3257308e-07
1.8139004e-09
1.0624552e-07
8.3235612e-09
3.2578594e-07
1.6341791e-08
5.174895e-07
2.0797097e-08
6.251347e-07
2.1096446e-08
6.5255771e-07
1.9606138e-08
6.4398372e-07
1.7981966e-08
6.3114979e-07
1.6557359e-08
6.223463e-07
1.5232902e-08
6.164685e-07
1.393649e-08
6.1200798e-07
1.2650768e-08
6.0838911e-07
1.1373187e-08
6.0541123e-07
1.0102744e-08
6.0295619e-07
8.8386907e-09
6.009352e-07
7.5805263e-09
5.9928207e-07
6.3278397e-09
5.9794784e-07
5.0801844e-09
5.9689629e-07
3.8370248e-09
5.9610083e-07
2.5977292e-09
5.9554248e-07
1.3615897e-09
5.9520852e-07
1.278589e-10
5.9509172e-07
-1.1042057e-09
5.9518985e-07
-2.3352925e-09
5.9550561e-07
-3.5659919e-09
5.9604678e-07
-4.7967569e-09
5.968267e-07
-6.0278802e-09
5.9786517e-07
-7.2594994e-09
5.9918988e-07
-8.4916475e-09
6.0083859e-07
-9.7243517e-09
6.0286252e-07
-1.0957718e-08
6.053308e-07
-1.2192533e-08
6.0833641e-07
-1.343641e-08
6.1202257e-07
-1.472642e-08
6.1673498e-07
-1.6128573e-08
6.2340311e-07
-1.7484173e-08
6.3308216e-07
-1.7741903e-08
6.4148156e-07
-1.4938685e-08
6.2669658e-07
-8.5211275e-09
5.4690797e-07
-2.0231348e-09
3.7253436e-07
1.3054994e-07
1.7083945e-09
1.0453818e-07
7.7519587e-09
3.1974468e-07
1.5427704e-08
5.09816e-07
1.9964295e-08
6.2059929e-07
2.0498285e-08
6.5202395e-07
1.9145629e-08
6.4533627e-07
1.756895e-08
6.327264e-07
1.6172877e-08
6.2374236e-07
1.4882451e-08
6.1775893e-07
1.3623558e-08
6.1326688e-07
1.2375416e-08
6.0963726e-07
1.1134422e-08
6.0665223e-07
9.8992991e-09
6.0419131e-07
8.6691724e-09
6.0216533e-07
7.44351e-09
6.0050774e-07
6.2219668e-09
5.9916939e-07
5.0042426e-09
5.9811402e-07
3.7900108e-09
5.9731507e-07
2.5788942e-09
5.9675359e-07
1.3704702e-09
5.9641695e-07
1.6429368e-10
5.962979e-07
-1.0400729e-09
5.9639421e-07
-2.2430228e-09
5.9670855e-07
-3.4448756e-09
5.9724863e-07
-4.6458521e-09
5.9802768e-07
-5.8460688e-09
5.9906539e-07
-7.0455602e-09
6.0038937e-07
-8.2443495e-09
6.0203738e-07
-9.4425618e-09
6.0406073e-07
-1.0640542e-08
6.0652878e-07
-1.1839745e-08
6.0953561e-07
-1.3049764e-08
6.1323259e-07
-1.4309635e-08
6.1799485e-07
-1.5673357e-08
6.2476683e-07
-1.693665e-08
6.3434545e-07
-1.7024911e-08
6.4156982e-07
-1.4125231e-08
6.237969e-07
-7.9371451e-09
5.4071988e-07
-1.8939229e-09
3.6649113e-07
1.2865602e-07
1.6118998e-09
1.0292749e-07
7.2406317e-09
3.1411861e-07
1.4585664e-08
5.0247359e-07
1.9174051e-08
6.1601235e-07
1.9922252e-08
6.5127607e-07
1.8705969e-08
6.4655246e-07
1.7177945e-08
6.3425434e-07
1.5807831e-08
6.2511245e-07
1.4547463e-08
6.1901929e-07
1.3322442e-08
6.144919e-07
1.2108779e-08
6.1085092e-07
1.0901746e-08
6.0785926e-07
9.699772e-09
6.0539328e-07
8.5018405e-09
6.0336326e-07
7.3073577e-09
6.0170222e-07
6.1159959e-09
6.0036075e-07
4.9275427e-09
5.9930247e-07
3.7418141e-09
5.9850079e-07
2.5586171e-09
5.9793679e-07
1.3777412e-09
5.9759782e-07
1.9896772e-10
5.9747667e-07
-9.7791129e-10
5.9757109e-07
-2.1530698e-09
5.9788371e-07
-3.3266306e-09
5.9842219e-07
-4.4986546e-09
5.991997e-07
-5.6691486e-09
6.0023588e-07
-6.8381042e-09
6.0155832e-07
-8.0055824e-09
6.0320486e-07
-9.1718389e-09
6.0522699e-07
-1.0337482e-08
6.0769442e-07
-1.1504668e-08
6.1070279e-07
-1.2684875e-08
6.144128e-07
-1.3918169e-08
6.1922814e-07
-1.5244826e-08
6.2609349e-07
-1.6417884e-08
6.3551851e-07
-1.6350917e-08
6.4150285e-07
-1.337894e-08
6.2082492e-07
-7.4184322e-09
5.3475938e-07
-1.7824793e-09
3.6085518e-07
1.2687354e-07
1.522705e-09
1.0140618e-07
6.7804079e-09
3.0886398e-07
1.3807626e-08
4.9544942e-07
1.8422877e-08
6.1139885e-07
1.9366026e-08
6.5033336e-07
1.8284367e-08
6.4763402e-07
1.6806605e-08
6.35732e-07
1.546081e-08
6.2645822e-07
1.4227294e-08
6.2025281e-07
1.3033052e-08
6.1568614e-07
1.1851185e-08
6.1203279e-07
1.0675788e-08