/*--------------------------------*- C++ -*----------------------------------*\
  =========                 |
  \\      /  F ield         | OpenFOAM: The Open Source CFD Toolbox
   \\    /   O peration     | Website:  https://openfoam.org
    \\  /    A nd           | Version:  10
     \\/     M anipulation  |
\*---------------------------------------------------------------------------*/
FoamFile
{
    format      ascii;
    class       surfaceScalarField;
    location    "0.19";
    object      phi_0;
}
// * * * * * * * * * * * * * * * * * * * * * * * * * * * * * * * * * * * * * //

dimensions      [1 0 -1 0 0 0 0];

internalField   nonuniform List<scalar> 
7860
(
3.9895752e-08
5.2881228e-07
1.219255e-08
5.96411e-07
7.4277302e-09
5.7347256e-07
5.4992318e-09
5.706362e-07
4.1148109e-09
5.7009209e-07
3.2009684e-09
5.6962149e-07
2.5589908e-09
5.6934961e-07
2.079185e-09
5.6918742e-07
1.709222e-09
5.6907757e-07
1.4165776e-09
5.6900024e-07
1.1794562e-09
5.6894471e-07
9.8309415e-10
5.6890394e-07
8.1714753e-10
5.6887352e-07
6.7412557e-10
5.6885059e-07
5.4845457e-10
5.6883324e-07
4.3587338e-10
5.6882014e-07
3.3302783e-10
5.6881041e-07
2.3719011e-10
5.688034e-07
1.4605669e-10
5.6879869e-07
5.7595952e-11
5.6879602e-07
-3.0075416e-11
5.6879523e-07
-1.1880014e-10
5.6879628e-07
-2.1048525e-10
5.6879924e-07
-3.0720876e-10
5.6880428e-07
-4.1135198e-10
5.688117e-07
-5.2576243e-10
5.6882197e-07
-6.5397462e-10
5.6883578e-07
-8.00523e-10
5.6885412e-07
-9.7140244e-10
5.6887845e-07
-1.1747749e-09
5.6891095e-07
-1.4221426e-09
5.6895495e-07
-1.7303179e-09
5.6901577e-07
-2.1242803e-09
5.6910157e-07
-2.6439125e-09
5.6922725e-07
-3.3716289e-09
5.6943535e-07
-4.4629892e-09
5.6979901e-07
-6.0084295e-09
5.7025311e-07
-9.507503e-09
5.7220678e-07
-2.9575238e-08
5.8877549e-07
5.3913268e-07
5.9671945e-08
4.6914034e-07
3.666531e-08
6.1941763e-07
2.2627528e-08
5.8751034e-07
1.6252922e-08
5.7701081e-07
1.2289869e-08
5.7405515e-07
9.6056525e-09
5.7230571e-07
7.6769272e-09
5.7127833e-07
6.2356558e-09
5.7062869e-07
5.1262398e-09
5.7018698e-07
4.2486051e-09
5.6987787e-07
3.5374155e-09
5.696559e-07
2.9485006e-09
5.6949286e-07
2.4508135e-09
5.6937121e-07
2.0218771e-09
5.6927953e-07
1.6449751e-09
5.6921014e-07
1.3073281e-09
5.6915779e-07
9.9887724e-10
5.6911886e-07
7.1144196e-10
5.6909083e-07
4.3811469e-10
5.6907202e-07
1.7280167e-10
5.6906133e-07
-9.0145463e-11
5.6905817e-07
-3.5625202e-10
5.6906239e-07
-6.3123226e-10
5.6907422e-07
-9.213207e-10
5.6909437e-07
-1.2336586e-09
5.6912404e-07
-1.5767852e-09
5.691651e-07
-1.9612999e-09
5.6922029e-07
-2.4008011e-09
5.6929362e-07
-2.9132742e-09
5.6939093e-07
-3.5232139e-09
5.6952089e-07
-4.2650419e-09
5.6969678e-07
-5.1891261e-09
5.6993985e-07
-6.3720946e-09
5.7028453e-07
-7.9326694e-09
5.7078782e-07
-1.0074077e-08
5.7157675e-07
-1.3202454e-08
5.7292739e-07
-1.8132576e-08
5.7518324e-07
-2.8174928e-08
5.8224913e-07
-4.5801203e-08
6.0640176e-07
4.9333148e-07
6.0007944e-08
4.091324e-07
5.0486006e-08
6.2893957e-07
3.3369485e-08
6.0462686e-07
2.4816507e-08
5.8556378e-07
1.9322107e-08
5.7954955e-07
1.5330433e-08
5.7629738e-07
1.2359768e-08
5.74249e-07
1.0100751e-08
5.7288771e-07
8.340006e-09
5.7194773e-07
6.934408e-09
5.7128347e-07
5.7878756e-09
5.7080243e-07
4.8336413e-09
5.7044709e-07
4.0239375e-09
5.7018091e-07
3.3237757e-09
5.6997969e-07
2.7068892e-09
5.6982703e-07
2.1530425e-09
5.6971164e-07
1.6462069e-09
5.6962569e-07
1.1732797e-09
5.6956376e-07
7.2315007e-10
5.6952215e-07
2.8598629e-10
5.6949849e-07
-1.4734177e-10
5.694915e-07
-5.8576865e-10
5.6950081e-07
-1.0385267e-09
5.6952698e-07
-1.515666e-09
5.6957151e-07
-2.0286572e-09
5.6963703e-07
-2.591151e-09
5.6972759e-07
-3.21999e-09
5.6984913e-07
-3.9366194e-09
5.7001025e-07
-4.7691374e-09
5.7022344e-07
-5.7553584e-09
5.7050711e-07
-6.9474718e-09
5.7088889e-07
-8.4196806e-09
5.7141206e-07
-1.0281388e-08
5.7214624e-07
-1.2694474e-08
5.7320091e-07
-1.5892104e-08
5.7477438e-07
-2.0236181e-08
5.7727146e-07
-2.6704783e-08
5.8165184e-07
-3.8944395e-08
5.9448874e-07
-4.8164597e-08
6.1562196e-07
4.4516688e-07
5.4877889e-08
3.5425453e-07
5.7450225e-08
6.2636724e-07
4.0465664e-08
6.2161142e-07
3.0776956e-08
5.9525249e-07
2.4641292e-08
5.8568521e-07
1.9950638e-08
5.8098803e-07
1.6311444e-08
5.7788819e-07
1.3465246e-08
5.7573391e-07
1.1199927e-08
5.7421305e-07
9.3637775e-09
5.7311962e-07
7.8489096e-09
5.723173e-07
6.5768313e-09
5.7171917e-07
5.4896924e-09
5.7126805e-07
4.5441764e-09
5.7092521e-07
3.7071843e-09
5.7066402e-07
2.9528545e-09
5.7046597e-07
2.2604651e-09
5.7031808e-07
1.6129161e-09
5.7021131e-07
9.9559752e-10
5.7013947e-07
3.9550988e-10
5.7009858e-07
-1.9945913e-10
5.7008647e-07
-8.0117495e-10
5.7010253e-07
-1.4218769e-09
5.7014768e-07
-2.074833e-09
5.7022447e-07
-2.7750901e-09
5.7033729e-07
-3.5404022e-09
5.704929e-07
-4.3924374e-09
5.7070117e-07
-5.358411e-09
5.7097622e-07
-6.4733658e-09
5.713384e-07
-7.7834331e-09
5.7181718e-07
-9.3503988e-09
5.7245586e-07
-1.125809e-08
5.7331975e-07
-1.3622778e-08
5.7451093e-07
-1.6605816e-08
5.7618394e-07
-2.0404991e-08
5.7857356e-07
-2.5286984e-08
5.8215346e-07
-3.2511543e-08
5.888764e-07
-4.5095318e-08
6.0707252e-07
-4.6545707e-08
6.1707235e-07
3.9862118e-07
4.7964366e-08
3.062902e-07
6.0073821e-08
6.142578e-07
4.5397402e-08
6.3628783e-07
3.4872785e-08
6.057771e-07
2.8397365e-08
5.9216063e-07
2.3417253e-08
5.8596815e-07
1.9432137e-08
5.8187331e-07
1.6227272e-08
5.7893877e-07
1.3618137e-08
5.7682218e-07
1.146532e-08
5.7527244e-07
9.6636903e-09
5.7411893e-07
8.1332032e-09
5.7324966e-07
6.8128306e-09
5.7258842e-07
5.6555546e-09
5.7208248e-07
4.6245945e-09
5.7169498e-07
3.690658e-09
5.713999e-07
2.8299002e-09
5.7117884e-07
2.0223857e-09
5.7101882e-07
1.2509031e-09
5.7091095e-07
5.0002061e-10
5.7084946e-07
-2.4470739e-10
5.708312e-07
-9.9745014e-10
5.7085527e-07
-1.7727906e-09
5.7092302e-07
-2.5864484e-09
5.7103812e-07
-3.4560956e-09
5.7120694e-07
-4.4023404e-09
5.7143915e-07
-5.4499675e-09
5.7174879e-07
-6.6295471e-09
5.721558e-07
-7.979562e-09
5.7268841e-07
-9.5492814e-09
5.733869e-07
-1.1402537e-08
5.7430911e-07
-1.3622146e-08
5.7553936e-07
-1.6316419e-08
5.772052e-07
-1.962897e-08
5.794965e-07
-2.3730081e-08
5.8267467e-07
-2.892263e-08
5.87346e-07
-3.6783092e-08
5.9673686e-07
-4.8456071e-08
6.187455e-07
-4.3189656e-08
6.1180594e-07
3.5543152e-07
4.0334445e-08
2.659558e-07
5.8990609e-08
5.9560167e-07
4.8326338e-08
6.469521e-07
3.7584606e-08
6.1651883e-07
3.0925569e-08
5.9881967e-07
2.5890853e-08
5.9100286e-07
2.1777128e-08
5.8598703e-07
1.8389537e-08
5.8232636e-07
1.5575414e-08
5.796363e-07
1.3212705e-08
5.7763515e-07
1.1205466e-08
5.7612617e-07
9.478398e-09
5.7497672e-07
7.9723531e-09
5.7409447e-07
6.6404201e-09
5.7341441e-07
5.444965e-09
5.7289043e-07
4.3553629e-09
5.7248951e-07
3.3462181e-09
5.7218798e-07
2.3959649e-09
5.7196907e-07
1.4857495e-09
5.7182116e-07
5.9850965e-10
5.717367e-07
-2.8181584e-10
5.7171152e-07
-1.1710045e-09
5.7174446e-07
-2.0852527e-09
5.7183727e-07
-3.041904e-09
5.7199477e-07
-4.060255e-09
5.7222529e-07
-5.1625016e-09
5.725414e-07
-6.3748904e-09
5.7296118e-07
-7.7291535e-09
5.7351006e-07
-9.2643064e-09
5.7422357e-07
-1.1028955e-08
5.7515155e-07
-1.3084329e-08
5.7636449e-07
-1.5507703e-08
5.7796274e-07
-1.8396486e-08
5.8009399e-07
-2.1874866e-08
5.8297487e-07
-2.6098647e-08
5.8689845e-07
-3.1477228e-08
5.9272458e-07
-3.9643608e-08
6.0490324e-07
-4.9162244e-08
6.2826413e-07
-3.8572967e-08
6.0121666e-07
3.1685855e-07
3.2860898e-08
2.3309496e-07
5.5245699e-08
5.7321692e-07
4.9227289e-08
6.5297051e-07
3.9056904e-08
6.2668921e-07
3.2426308e-08
6.0545026e-07
2.7514649e-08
5.9591452e-07
2.3434933e-08
5.9006675e-07
1.9999592e-08
5.857617e-07
1.7092064e-08
5.8254383e-07
1.4610118e-08
5.8011709e-07
1.246996e-08
5.7826632e-07
1.0604333e-08
5.7684235e-07
8.958987e-09
5.7573981e-07
7.4897217e-09
5.7488368e-07
6.1601988e-09
5.7421995e-07
4.9401831e-09
5.7370952e-07
3.8041008e-09
5.7332407e-07
2.7298617e-09
5.7304331e-07
1.6978838e-09
5.7285314e-07
6.9026213e-10
5.7274432e-07
-3.0996364e-10
5.7271175e-07
-1.319483e-09
5.7275398e-07
-2.3553808e-09
5.7287317e-07
-3.4358202e-09
5.7307521e-07
-4.5807845e-09
5.7337025e-07
-5.812924e-09
5.7377353e-07
-7.1585534e-09
5.7430681e-07
-8.6488525e-09
5.7500036e-07
-1.0321316e-08
5.7589603e-07
-1.2221529e-08
5.7705176e-07
-1.4405558e-08
5.7854852e-07
-1.6942839e-08
5.8050002e-07
-1.9918228e-08
5.8306937e-07
-2.3432516e-08
5.8648916e-07
-2.7627132e-08
5.9109307e-07
-3.3020265e-08
5.9811772e-07
-4.0996505e-08
6.1287948e-07
-4.7675117e-08
6.3494274e-07
-3.3369749e-08
5.8691129e-07
2.834888e-07
2.6186992e-08
2.0690804e-07
5.0127497e-08
5.492765e-07
4.8487213e-08
6.546108e-07
3.9485065e-08
6.3569134e-07
3.307186e-08
6.1186346e-07
2.840676e-08
6.0057962e-07
2.4488071e-08
5.9398544e-07
2.1113962e-08
5.8913581e-07
1.8203537e-08
5.8545426e-07
1.5677562e-08
5.8264307e-07
1.3466891e-08
5.8047699e-07
1.1514335e-08
5.7879491e-07
9.772372e-09
5.7748178e-07
8.2011995e-09
5.7645485e-07
6.7672765e-09
5.7565388e-07
5.442047e-09
5.7503475e-07
4.200853e-09
5.7456526e-07
3.022011e-09
5.7422216e-07
1.8860144e-09
5.7398914e-07
7.7483031e-10
5.7385551e-07
-3.2873647e-10
5.7381532e-07
-1.4416396e-09
5.7386688e-07
-2.581184e-09
5.7401271e-07
-3.7656283e-09
5.7425966e-07
-5.0148281e-09
5.7461945e-07
-6.35095e-09
5.7510966e-07
-7.7992843e-09
5.7575514e-07
-9.3891925e-09
5.7659027e-07
-1.1155214e-08
5.7766205e-07
-1.3138336e-08
5.7903488e-07
-1.5387641e-08
5.8079782e-07
-1.7962427e-08
5.830748e-07
-2.0932161e-08
5.8603911e-07
-2.4372054e-08
5.8992906e-07
-2.8417611e-08
5.9513862e-07
-3.3673724e-08
6.0337383e-07
-4.1044895e-08
6.2025065e-07
-4.4782036e-08
6.3867989e-07
-2.819729e-08
5.7032654e-07
2.5529151e-07
2.0568679e-08
1.8633945e-07
4.4577025e-08
5.2526827e-07
4.6634976e-08
6.5255288e-07
3.9145558e-08
6.4318074e-07
3.3076747e-08
6.1793226e-07
2.8710977e-08
6.0494539e-07
2.5032035e-08
5.9766438e-07
2.1798366e-08
5.9236948e-07
1.8954641e-08
5.8829798e-07
1.6444797e-08
5.8515291e-07
1.4215324e-08
5.8270647e-07
1.2220031e-08
5.807902e-07
1.0419125e-08
5.7928268e-07
8.7782375e-09
5.7809574e-07
7.2676014e-09
5.7716451e-07
5.8612372e-09
5.7644111e-07
4.5362139e-09
5.7589028e-07
3.271983e-09
5.7548639e-07
2.049772e-09
5.7521135e-07
8.5202711e-10
5.7505325e-07
-3.3810649e-10
5.7500545e-07
-1.5372811e-09
5.7506606e-07
-2.7624435e-09
5.7523787e-07
-4.0313362e-09
5.7552855e-07
-5.3630221e-09
5.7595114e-07
-6.7784502e-09
5.7652508e-07
-8.3010728e-09
5.7727777e-07
-9.9575304e-09
5.7824673e-07
-1.1778418e-08
5.7948294e-07
-1.3799081e-08
5.8105554e-07
-1.6060521e-08
5.8305926e-07
-1.8610604e-08
5.8562488e-07
-2.1502452e-08
5.8893095e-07
-2.4790107e-08
5.9321671e-07
-2.8619701e-08
5.9896822e-07
-3.3638108e-08
6.0839224e-07
-4.0122108e-08
6.2673465e-07
-4.1141065e-08
6.3969884e-07
-2.340895e-08
5.5259443e-07
2.3188256e-07
1.6013009e-08
1.7032654e-07
3.9136694e-08
5.0214475e-07
4.4108804e-08
6.4758082e-07
3.8280075e-08
6.4900946e-07
3.2645061e-08
6.2356727e-07
2.8583322e-08
6.0900713e-07
2.5175966e-08
6.0107174e-07
2.2129149e-08
5.954163e-07
1.9398972e-08
5.9102816e-07
1.6949363e-08
5.8760252e-07
1.4741333e-08
5.849145e-07
1.273927e-08
5.8279226e-07
1.091125e-08
5.811107e-07
9.2287367e-09
5.7977825e-07
7.6662408e-09
5.7872701e-07
6.2008993e-09
5.7790645e-07
4.8120497e-09
5.7727913e-07
3.4808018e-09
5.7681763e-07
2.1896175e-09
5.7650253e-07
9.2190168e-10
5.7632097e-07
-3.3839393e-10
5.7626575e-07
-1.6071579e-09
5.7633482e-07
-2.9005108e-09
5.7653123e-07
-4.2351956e-09
5.7686323e-07
-5.6289771e-09
5.7734492e-07
-7.1010566e-09
5.7799716e-07
-8.6724988e-09
5.7884921e-07
-1.036667e-08
5.799409e-07
-1.2209695e-08
5.8132596e-07
-1.4230874e-08
5.8307672e-07
-1.646305e-08
5.8529144e-07
-1.894299e-08
5.8810482e-07
-2.1708855e-08
5.9169682e-07
-2.4801139e-08
5.96309e-07
-2.8388557e-08
6.0255563e-07
-3.3097752e-08
6.1310143e-07
-3.8523071e-08
6.3215997e-07
-3.7194675e-08
6.3837045e-07
-1.9174093e-08
5.3457385e-07
2.1270847e-07
1.242101e-08
1.5790565e-07
3.4105583e-08
4.8046039e-07
4.1237888e-08
6.404486e-07
3.7066742e-08
6.5318059e-07
3.1930895e-08
6.287031e-07
2.8158482e-08
6.1277954e-07
2.5023466e-08
6.0420675e-07
2.2183527e-08
5.9825624e-07
1.95936e-08
5.9361808e-07
1.7233084e-08
5.8996304e-07
1.507533e-08
5.8707225e-07
1.309401e-08
5.8477358e-07
1.126447e-08
5.8294024e-07
9.5638399e-09
5.8147888e-07
7.9709829e-09
5.8031987e-07
6.4663685e-09
5.7941107e-07
5.0318927e-09
5.7871361e-07
3.6506506e-09
5.7819888e-07
2.3066804e-09
5.778465e-07
9.8469362e-10
5.7764295e-07
-3.302025e-10
5.7758064e-07
-1.6527833e-09
5.776574e-07
-2.9979927e-09
5.7787644e-07
-4.3812242e-09
5.7824647e-07
-5.8185989e-09
5.7878229e-07
-7.3272394e-09
5.795058e-07
-8.9255286e-09
5.804475e-07
-1.0633342e-08
5.8164871e-07
-1.2472257e-08
5.8316488e-07
-1.4465713e-08
5.8507018e-07
-1.6639043e-08
5.8746477e-07
-1.9019156e-08
5.9048494e-07
-2.1631573e-08
5.9430924e-07
-2.4510492e-08
5.9918791e-07
-2.7850187e-08
6.0589533e-07
-3.2195311e-08
6.1744655e-07
-3.6489903e-08
6.3645456e-07
-3.3244106e-08
6.3512465e-07
-1.5554363e-08
5.168841e-07
1.9715411e-07
9.6540563e-09
1.4825174e-07
2.9635982e-08
4.6047872e-07
3.8268855e-08
6.3181586e-07
3.5643693e-08
6.5580574e-07
3.104538e-08
6.3330139e-07
2.754078e-08
6.1628413e-07
2.4661064e-08
6.0708647e-07
2.2030238e-08
6.0088706e-07
1.9592362e-08
5.9605596e-07
1.7337444e-08
5.9221795e-07
1.5248852e-08
5.8916084e-07
1.3307986e-08
5.8671445e-07
1.1496494e-08
5.8475173e-07
9.7966285e-09
5.8317875e-07
8.1913641e-09
5.8192513e-07
6.6644572e-09
5.8093798e-07
5.200439e-09
5.8017763e-07
3.7845415e-09
5.7961477e-07
2.4025755e-09
5.7922847e-07
1.0407805e-09
5.7900475e-07
-3.1434653e-10
5.7893577e-07
-1.6762295e-09
5.7901928e-07
-3.0584014e-09
5.7925861e-07
-4.4746842e-09
5.7966275e-07
-5.9393588e-09
5.8024697e-07
-7.4673173e-09
5.8103376e-07
-9.0741856e-09
5.8205437e-07
-1.07764e-08
5.8335093e-07
-1.2591234e-08
5.8497971e-07
-1.4536793e-08
5.8701574e-07
-1.6631839e-08
5.8955981e-07
-1.8894873e-08
5.9274797e-07
-2.1341435e-08
5.967558e-07
-2.4005632e-08
6.0185211e-07
-2.7103395e-08
6.0899309e-07
-3.1048904e-08
6.2139206e-07
-3.4226703e-08
6.3963236e-07
-2.9494456e-08
6.303924e-07
-1.2545089e-08
4.9993474e-07
1.8460902e-07
7.5633198e-09
1.4068858e-07
2.5775537e-08
4.4226683e-07
3.537254e-08
6.2221904e-07
3.4120746e-08
6.5705754e-07
3.0071459e-08
6.3735064e-07
2.6810158e-08
6.1954542e-07
2.41584e-08
6.0973823e-07
2.1727023e-08
6.0331844e-07
1.9442502e-08
5.9834048e-07
1.7300465e-08
5.9435999e-07
1.529201e-08
5.911693e-07
1.3404734e-08
5.8860172e-07
1.16255e-08
5.8653097e-07
9.940969e-09
5.8486328e-07
8.3378e-09
5.835283e-07
6.8028126e-09
5.8247296e-07
5.32309e-09
5.8165735e-07
3.8860112e-09
5.8105185e-07
2.4792319e-09
5.8063525e-07
1.0906289e-09
5.8039335e-07
-2.917812e-10
5.8031818e-07
-1.6799354e-09
5.8040744e-07
-3.0858267e-09
5.806645e-07
-4.5215972e-09
5.8109852e-07
-5.9996178e-09
5.8172499e-07
-7.5325424e-09
5.8256669e-07
-9.133327e-09
5.8365515e-07
-1.0815194e-08
5.8503279e-07
-1.2591543e-08
5.8675606e-07
-1.447583e-08
5.8890002e-07
-1.6481265e-08
5.9156525e-07
-1.8619473e-08
5.9488618e-07
-2.0898993e-08
5.9903532e-07
-2.3358939e-08
6.0431206e-07
-2.6228481e-08
6.1186263e-07
-2.9759552e-08
6.2492313e-07
-3.1895075e-08
6.4176788e-07
-2.6068031e-08
6.2456536e-07
-1.0099603e-08
4.8396631e-07
1.7450942e-07
6.0082237e-09
1.3468056e-07
2.2502449e-08
4.2577301e-07
3.265077e-08
6.1207096e-07
3.2578301e-08
6.5713003e-07
2.906917e-08
6.4085974e-07
2.602673e-08
6.2258785e-07
2.3570763e-08
6.1219419e-07
2.1321414e-08
6.0556779e-07
1.9184172e-08
6.0047772e-07
1.7155552e-08
5.9638861e-07
1.5232154e-08
5.930927e-07
1.3406321e-08
5.9042755e-07
1.1669044e-08
5.8826824e-07
1.0010623e-08
5.865217e-07
8.4208839e-09
5.8511804e-07
6.8893819e-09
5.8400446e-07
5.405562e-09
5.8314117e-07
3.958858e-09
5.8249855e-07
2.5387445e-09
5.8205536e-07
1.134753e-09
5.8179734e-07
-2.6353979e-10
5.8171647e-07
-1.6665359e-09
5.8181043e-07
-3.0846486e-09
5.8208261e-07
-4.5283259e-09
5.8254219e-07
-6.0080581e-09
5.8320472e-07
-7.534359e-09
5.8409299e-07
-9.1177099e-09
5.852385e-07
-1.0768454e-08
5.8668354e-07
-1.2496636e-08
5.8848424e-07
-1.4311828e-08
5.9071521e-07
-1.6222745e-08
5.9347617e-07
-1.8235722e-08
5.9689915e-07
-2.0355376e-08
6.0115497e-07
-2.2629362e-08
6.0658604e-07
-2.5288971e-08
6.1452224e-07
-2.8407799e-08
6.2804196e-07
-2.9609173e-08
6.4296925e-07
-2.3020056e-08
6.1797624e-07
-8.1494374e-09
4.6909569e-07
1.6635998e-07
4.866062e-09
1.2981473e-07
1.9758155e-08
4.108814e-07
3.0151787e-08
6.0167766e-07
3.106866e-08
6.5621321e-07
2.8077953e-08
6.438504e-07
2.5232732e-08
6.2543305e-07
2.2940226e-08
6.144867e-07
2.0851418e-08
6.076566e-07
1.8850605e-08
6.0247854e-07
1.6931224e-08
5.9830799e-07
1.5093319e-08
5.949306e-07
1.3332674e-08
5.921882e-07
1.1643386e-08
5.8995753e-07
1.0018634e-08
5.8814645e-07
8.4508656e-09
5.8668581e-07
6.9319945e-09
5.8552334e-07
5.4535722e-09
5.8461959e-07
4.0069253e-09
5.839452e-07
2.5832508e-09
5.8347903e-07
1.1736804e-09
5.8320691e-07
-2.3067868e-10
5.8312083e-07
-1.6387161e-09
5.8321847e-07
-3.0592976e-09
5.8350319e-07
-4.5012343e-09
5.8398413e-07
-5.973239e-09
5.8467672e-07
-7.4838554e-09
5.856036e-07
-9.0413546e-09
5.86796e-07
-1.0653592e-08
5.8829577e-07
-1.2327823e-08
5.9015847e-07
-1.4070514e-08
5.9245791e-07
-1.588692e-08
5.9529257e-07
-1.7779608e-08
5.9879184e-07
-1.9752078e-08
6.0312744e-07
-2.1862253e-08
6.0869622e-07
-2.4331539e-08
6.1699153e-07
-2.705234e-08
6.3076276e-07
-2.7441057e-08
6.4335797e-07
-2.0359864e-08
6.1089505e-07
-6.6189309e-09
4.5535475e-07
1.5974105e-07
4.0344737e-09
1.2578053e-07
1.7470161e-08
3.9744629e-07
2.7889527e-08
5.9125871e-07
2.9622409e-08
6.5448042e-07
2.7120955e-08
6.4635181e-07
2.4455294e-08
6.2809868e-07
2.2296882e-08
6.1664511e-07
2.0346059e-08
6.0960742e-07
1.8468326e-08
6.0435627e-07
1.6651067e-08
6.0012525e-07
1.4895997e-08
5.9668567e-07
1.3201232e-08
5.9388296e-07
1.156309e-08
5.9159567e-07
9.9769294e-09
5.8973261e-07
8.4372937e-09
5.8822544e-07
6.9380592e-09
5.8702257e-07
5.4726006e-09
5.8608505e-07
4.0339335e-09
5.8538387e-07
2.6148329e-09
5.8489813e-07
1.2079261e-09
5.8461382e-07
-1.9423185e-10
5.8452299e-07
-1.5990946e-09
5.8462333e-07
-3.0140649e-09
5.8491816e-07
-4.4464273e-09
5.8541649e-07
-5.9032695e-09
5.8613356e-07
-7.3913796e-09
5.8709171e-07
-8.9171194e-09
5.8832174e-07
-1.0486269e-08
5.8986492e-07
-1.2103853e-08
5.9177606e-07
-1.3773964e-08
5.9412802e-07
-1.5499328e-08
5.9701794e-07
-1.7280114e-08
6.0057263e-07
-1.9121003e-08
6.0496833e-07
-2.1090263e-08
6.1066548e-07
-2.3388106e-08
6.1928937e-07
-2.5732876e-08
6.3310753e-07
-2.5430439e-08
6.4305553e-07
-1.8068894e-08
6.035335e-07
-5.433703e-09
4.4271956e-07
1.5430734e-07
3.4307824e-09
1.2235007e-07
1.5564643e-08
3.8531312e-07
2.5857342e-08
5.8096654e-07
2.8254921e-08
6.5208298e-07
2.6209985e-08
6.483967e-07
2.3710246e-08
6.3059839e-07
2.166098e-08
6.1869437e-07
1.9826504e-08
6.114419e-07
1.8057705e-08
6.0612507e-07
1.6333944e-08
6.0184901e-07
1.4657125e-08
5.9836249e-07
1.3026813e-08
5.9551327e-07
1.1440825e-08
5.9318166e-07
9.8960982e-09
5.9127734e-07
8.3887888e-09
5.8973275e-07
6.9143621e-09
5.88497e-07
5.4677251e-09
5.8753168e-07
4.0433606e-09
5.8680823e-07
2.6354491e-09
5.8630605e-07
1.2379756e-09
5.8601129e-07
-1.5517566e-10
5.8591614e-07
-1.5501351e-09
5.8601829e-07
-2.9529641e-09
5.8632099e-07
-4.3695649e-09
5.8683309e-07
-5.8055814e-09
5.8756958e-07
-7.2662828e-09
5.8855241e-07
-8.75643e-09
5.8981189e-07
-1.028013e-08
5.9138862e-07
-1.1840688e-08
5.9333661e-07
-1.3440468e-08
5.9572779e-07
-1.5080459e-08
5.9865793e-07
-1.67596e-08
6.0225177e-07
-1.8485494e-08
6.0669422e-07
-2.0335549e-08
6.1251553e-07
-2.2479095e-08
6.2143292e-07
-2.4474207e-08
6.3510264e-07
-2.3594109e-08
6.4217544e-07
-1.6113136e-08
5.9605253e-07
-4.5253383e-09
4.3113176e-07
1.49782e-07
2.9903574e-09
1.193601e-07
1.397312e-08
3.7433117e-07
2.4037345e-08
5.7090297e-07
2.6971305e-08
6.4914922e-07
2.5349371e-08
6.500186e-07
2.3005543e-08
6.3294217e-07
2.104532e-08
6.2065458e-07
1.9307574e-08
6.1317964e-07
1.763387e-08
6.0779877e-07
1.5994484e-08
6.034884e-07
1.4390311e-08
5.9996666e-07
1.282167e-08
5.9708191e-07
1.1287321e-08
5.9471601e-07
9.7852889e-09
5.9277937e-07
8.3129269e-09
5.9120511e-07
6.8669495e-09
5.8994297e-07
5.4435203e-09
5.8895511e-07
4.0383657e-09
5.8821339e-07
2.6468879e-09
5.8769752e-07
1.2642739e-09
5.8739391e-07
-1.1440319e-10
5.8729481e-07
-1.4940861e-09
5.8739798e-07
-2.8796381e-09
5.8770654e-07
-4.2757415e-09
5.882292e-07
-5.686791e-09
5.8898063e-07
-7.116775e-09
5.899824e-07
-8.5691504e-09
5.9126426e-07
-1.0046717e-08
5.9286619e-07
-1.1551512e-08
5.9484141e-07
-1.3084704e-08
5.9726099e-07
-1.4646202e-08
6.0021942e-07
-1.6234684e-08
6.0384025e-07
-1.7861852e-08
6.0832139e-07
-1.9612131e-08
6.1426581e-07
-2.16163e-08
6.2343708e-07
-2.3289756e-08
6.367761e-07
-2.1933191e-08
6.4081887e-07
-1.4451527e-08
5.8857086e-07
-3.8339367e-09
4.2051417e-07
1.4594807e-07
2.6643603e-09
1.1669619e-07
1.2635837e-08
3.6436066e-07
2.2406759e-08
5.6113286e-07
2.5770152e-08
6.457861e-07
2.4538654e-08
6.5125007e-07
2.2343831e-08
6.3513694e-07
2.0457249e-08
6.2254115e-07
1.8799188e-08
6.1483771e-07
1.7207713e-08
6.0939025e-07
1.5643742e-08
6.0505237e-07
1.410622e-08
6.0150418e-07
1.2595697e-08
5.9859244e-07
1.1111456e-08
5.9620025e-07
9.6522234e-09
5.942386e-07
8.216209e-09
5.9264113e-07
6.8010804e-09
5.913581e-07
5.4040079e-09
5.9035219e-07
4.0217487e-09
5.8959565e-07
2.650744e-09
5.8906853e-07
1.2872209e-09
5.8875743e-07
-7.2707782e-11
5.8865474e-07
-1.4329438e-09
5.8875821e-07
-2.7973052e-09
5.890709e-07
-4.1694228e-09
5.8960131e-07
-5.5526352e-09
5.9036384e-07
-6.949878e-09
5.9137964e-07
-8.3635749e-09
5.9267796e-07
-9.7955411e-09
5.9429816e-07
-1.124692e-08
5.9629279e-07
-1.271812e-08
5.9873219e-07
-1.4208486e-08
6.0170979e-07
-1.5717215e-08
6.0534898e-07
-1.7260768e-08
6.0986494e-07
-1.8927865e-08
6.1593291e-07
-2.0805133e-08
6.2531435e-07
-2.2184591e-08
6.3815556e-07
-2.0438936e-08
6.3907321e-07
-1.3041535e-08
5.8117346e-07
-3.3090922e-09
4.1078173e-07
1.4263897e-07
2.4170506e-09
1.1427966e-07
1.1502864e-08
3.5527598e-07
2.0942e-08
5.516947e-07
2.4646428e-08
6.4208205e-07
2.3774598e-08
6.5212188e-07
2.1724331e-08
6.3718714e-07
1.9900232e-08
6.2436522e-07
1.8307567e-08
6.1643037e-07
1.6786791e-08
6.1091103e-07
1.5289844e-08
6.0654931e-07
1.3813021e-08
6.0298101e-07
1.2356709e-08
6.0004875e-07
1.0920418e-08
5.9763654e-07
9.5032832e-09
5.9565574e-07
8.1040962e-09
5.9404031e-07
6.7212319e-09
5.9274097e-07
5.3526479e-09
5.9172077e-07
3.9959382e-09
5.9095236e-07
2.6484097e-09
5.9041606e-07
1.3071713e-09
5.9009867e-07
-3.077431e-11
5.8999269e-07
-1.3684361e-09
5.9009587e-07
-2.7087394e-09
5.9041121e-07
-4.0544284e-09
5.90947e-07
-5.4079691e-09
5.9171738e-07
-6.7714529e-09
5.9274312e-07
-8.1465081e-09
5.9405301e-07
-9.5342372e-09
5.9568588e-07
-1.0935196e-08
5.9769374e-07
-1.2349364e-08
6.0014635e-07
-1.3775929e-08
6.0313635e-07
-1.5215193e-08
6.0678824e-07
-1.6688576e-08
6.1133833e-07
-1.8286078e-08
6.1753041e-07
-2.0046513e-08
6.2707479e-07
-2.1158099e-08
6.3926714e-07
-1.9097248e-08
6.3701236e-07
-1.184297e-08
5.7391918e-07
-2.9097966e-09
4.0184856e-07
1.3972918e-07
2.2230476e-09
1.1205723e-07
1.0533732e-08
3.4696662e-07
1.9620966e-08
5.4260865e-07
2.3593518e-08
6.3810999e-07
2.3052652e-08
6.5266275e-07
2.1144266e-08
6.3909545e-07
1.9375096e-08
6.2613436e-07
1.7836217e-08
6.1796925e-07
1.6376095e-08
6.1237115e-07
1.4938572e-08
6.0798684e-07
1.3516815e-08
6.0440276e-07
1.211075e-08
6.0145481e-07
1.0719913e-08
5.9902738e-07
9.3436383e-09
5.9703201e-07
7.9810873e-09
5.9540286e-07
6.6311414e-09
5.9409091e-07
5.2923595e-09
5.9305955e-07
3.9630006e-09
5.9228171e-07
2.6410791e-09
5.9173798e-07
1.3244365e-09
5.9141531e-07
1.0822584e-11
5.913063e-07
-1.3020219e-09
5.9140872e-07
-2.6162751e-09
5.9172546e-07
-3.9339494e-09
5.9226468e-07
-5.2568061e-09
5.9304024e-07
-6.586276e-09
5.9407259e-07
-7.9233957e-09
5.9539013e-07
-9.2687769e-09
5.9703127e-07
-1.0622625e-08
5.9904759e-07
-1.1984741e-08
6.0150847e-07
-1.335445e-08
6.0450606e-07
-1.4733586e-08
6.0816738e-07
-1.6148356e-08
6.127531e-07
-1.7686956e-08
6.1906901e-07
-1.9338448e-08
6.2872628e-07
-2.0206176e-08
6.4013487e-07
-1.7891828e-08
6.3469801e-07
-1.081993e-08
5.6684729e-07
-2.6035954e-09
3.9363222e-07
1.3712558e-07
2.0648649e-09
1.0999308e-07
9.6963143e-09
3.3933672e-07
1.8424085e-08
5.338823e-07
2.2604508e-08
6.339302e-07
2.2367936e-08
6.5289937e-07
2.0599883e-08
6.4086341e-07
1.8880996e-08
6.2785321e-07
1.7386736e-08
6.194635e-07
1.5978702e-08
6.1377919e-07
1.4593884e-08
6.0937166e-07
1.3222027e-08
6.0577462e-07
1.1862382e-08
6.0281446e-07
1.0514376e-08
6.0037538e-07
9.1773962e-09
5.9836899e-07
7.8508186e-09
5.9672944e-07
6.5338715e-09
5.9540786e-07
5.2255609e-09
5.9436786e-07
3.9246635e-09
5.9358261e-07
2.62976e-09
5.9303288e-07
1.3392892e-09
5.9270578e-07
5.1614906e-11
5.9259398e-07
-1.2349024e-09
5.9269523e-07
-2.5218301e-09
5.9301239e-07
-3.8105893e-09
5.9355344e-07
-5.1023848e-09
5.9433203e-07
-6.3981448e-09
5.9536835e-07
-7.698482e-09
5.9669047e-07
-9.0036933e-09
5.9833648e-07
-1.0313811e-08
6.0035771e-07
-1.1628635e-08
6.0282329e-07
-1.2947843e-08
6.0582527e-07
-1.4275077e-08
6.0949461e-07
-1.5640874e-08
6.1411889e-07
-1.7128656e-08
6.2055679e-07
-1.8677244e-08
6.3027486e-07
-1.9322839e-08
6.4078047e-07
-1.6806109e-08
6.3218128e-07
-9.9413254e-09
5.599825e-07
-2.3653746e-09
3.8605627e-07
1.3476021e-07
1.9308298e-09
1.0806308e-07
8.9654741e-09
3.3230387e-07
1.7334602e-08
5.2551485e-07
2.1672894e-08
6.2959271e-07
2.1715799e-08
6.5285655e-07
2.0087128e-08
6.4249198e-07
1.8416117e-08
6.2952418e-07
1.6959438e-08
6.2092017e-07
1.5596306e-08
6.1514232e-07
1.4258352e-08
6.1070961e-07
1.2931766e-08
6.0710121e-07
1.1614962e-08
6.0413126e-07
1.0307177e-08
6.0168317e-07
9.0077554e-09
5.9966841e-07
7.7161742e-09
5.9802102e-07
6.4318867e-09
5.9669215e-07
5.1542209e-09
5.9564553e-07
3.8823474e-09
5.9485448e-07
2.6152912e-09
5.9429994e-07
1.3519684e-09
5.939691e-07
9.1238262e-11
5.9385471e-07
-1.1680394e-09
5.9395451e-07
-2.4269409e-09
5.9427129e-07
-3.6864199e-09
5.9481292e-07
-4.9472527e-09
5.9559287e-07
-6.2099974e-09
5.966311e-07
-7.4749777e-09
5.9795545e-07
-8.7423101e-09
5.9960381e-07
-1.0011983e-08
6.0162738e-07
-1.128391e-08
6.0409522e-07
-1.2558278e-08
6.0709964e-07
-1.3840687e-08
6.1077702e-07
-1.5165338e-08
6.1544354e-07
-1.6608144e-08
6.219996e-07
-1.8058376e-08
6.317251e-07
-1.8501337e-08
6.4122343e-07
-1.5824445e-08
6.2950439e-07
-9.1810008e-09
5.5333906e-07
-2.1761601e-09
3.7905143e-07
1.3258405e-07
1.8133989e-09
1.0625063e-07
8.3217062e-09
3.2579765e-07
1.6338465e-08
5.1750008e-07
2.0792901e-08
6.2513927e-07
2.1092114e-08
6.5255749e-07
1.9602039e-08
6.4398196e-07
1.7978154e-08
6.31148e-07
1.6553814e-08
6.223445e-07
1.5229632e-08
6.164665e-07
1.3933519e-08
6.1200572e-07
1.2648121e-08
6.083866e-07
1.1370888e-08
6.0540849e-07
1.0100816e-08
6.0295324e-07
8.8371534e-09
6.0093207e-07
7.579397e-09
5.9927878e-07
6.3271338e-09
5.9794441e-07
5.0799149e-09
5.9689275e-07
3.8372025e-09
5.960972e-07
2.5983624e-09
5.9553878e-07
1.362684e-09
5.9520478e-07
1.2941793e-10
5.9508797e-07
-1.1021811e-09
5.9518611e-07
-2.3328041e-09
5.9550191e-07
-3.563044e-09
5.9604315e-07
-4.7933565e-09
5.9682318e-07
-6.0240374e-09
5.9786178e-07
-7.2552268e-09
5.9918664e-07
-8.4869609e-09
6.0083554e-07
-9.7192695e-09
6.0285969e-07
-1.0952262e-08
6.0532821e-07
-1.2186728e-08
6.083341e-07
-1.343028e-08
6.1202057e-07
-1.4719974e-08
6.1673324e-07
-1.6121788e-08
6.2340141e-07
-1.7477078e-08
6.3308039e-07
-1.7734886e-08
6.4148124e-07
-1.4932735e-08
6.2670224e-07
-8.5174098e-09
5.4692373e-07
-2.0219503e-09
3.7255597e-07
1.305621e-07
1.7078497e-09
1.0454388e-07
7.7499169e-09
3.1975799e-07
1.5424008e-08
5.0982833e-07
1.9959582e-08
6.2060493e-07
2.0493379e-08
6.5202393e-07
1.9140971e-08
6.4533426e-07
1.756462e-08
6.3272427e-07
1.6168857e-08
6.2374025e-07
1.4878743e-08
6.1775662e-07
1.3620187e-08
6.1326428e-07
1.2372408e-08
6.0963438e-07
1.1131804e-08
6.066491e-07
9.8970948e-09
6.0418795e-07
8.6674028e-09
6.0216176e-07
7.442194e-09
6.0050399e-07
6.221121e-09
5.9916548e-07
5.0038812e-09
5.9810998e-07
3.7901455e-09
5.9731093e-07
2.5795341e-09
5.9674939e-07
1.3716221e-09
5.9641269e-07
1.6596154e-10
5.9629363e-07
-1.0378876e-09
5.9638996e-07
-2.2403214e-09
5.9670434e-07
-3.4416619e-09
5.9724449e-07
-4.6421332e-09
5.9802365e-07
-5.8418544e-09
5.990615e-07
-7.0408634e-09
6.0038565e-07
-8.239186e-09
6.0203386e-07
-9.4369506e-09
6.0405746e-07
-1.0634506e-08
6.0652577e-07
-1.1833308e-08
6.0953291e-07
-1.3042951e-08
6.1323022e-07
-1.4302451e-08
6.1799274e-07
-1.5665775e-08
6.2476473e-07
-1.6928724e-08
6.3434333e-07
-1.7017109e-08
6.4156962e-07
-1.4118667e-08
6.238038e-07
-7.933078e-09
5.4073814e-07
-1.8926409e-09
3.6651553e-07
1.2866946e-07
1.6113092e-09
1.0293384e-07
7.2383892e-09
3.141337e-07
1.4581566e-08
5.0248789e-07
1.9168774e-08
6.1601923e-07
1.9916714e-08
6.5127632e-07
1.8700693e-08
6.4655018e-07
1.7173042e-08
6.3425183e-07
1.5803283e-08
6.2510999e-07
1.454327e-08
6.1901663e-07
1.3318628e-08
6.1448892e-07
1.2105372e-08
6.1084764e-07
1.0898775e-08
6.078557e-07
9.6972604e-09
6.0538947e-07
8.499812e-09
6.0335921e-07
7.3058325e-09
6.0169797e-07
6.1149918e-09
6.0035632e-07
4.927075e-09
5.992979e-07
3.7418956e-09
5.9849611e-07
2.5592579e-09
5.9793202e-07
1.3789488e-09
5.97593e-07
2.0074704e-10
5.9747183e-07
-9.7555824e-10
5.9756626e-07
-2.1501437e-09
5.9787893e-07
-3.3231351e-09
5.9841749e-07
-4.4945961e-09
5.9919511e-07
-5.6645367e-09
6.0023144e-07
-6.8329518e-09
6.0155406e-07
-7.9999054e-09
6.0320082e-07
-9.1656567e-09
6.0522321e-07
-1.0330817e-08
6.0769093e-07
-1.1497546e-08
6.1069963e-07
-1.2677319e-08
6.1440999e-07
-1.3910179e-08
6.192256e-07
-1.5236374e-08
6.2609093e-07
-1.6409051e-08
6.3551601e-07
-1.6342264e-08
6.4150283e-07
-1.3371713e-08
6.2083325e-07
-7.4139904e-09
5.3478042e-07
-1.7810942e-09
3.6088264e-07
1.2688836e-07
1.5220663e-09
1.0141323e-07
6.7779501e-09
3.0888101e-07
1.3803095e-08
4.9546593e-07
1.8416986e-08
6.1140717e-07
1.9359794e-08
6.5033397e-07
1.8278407e-08
6.4763147e-07
1.6801067e-08
6.3572907e-07
1.5455679e-08
6.2645535e-07
1.4222565e-08
6.2024974e-07
1.3028748e-08
6.1568274e-07
1.1847337e-08
6.1202905e-07
1.0672425e-08