/*--------------------------------*- C++ -*----------------------------------*\
  =========                 |
  \\      /  F ield         | OpenFOAM: The Open Source CFD Toolbox
   \\    /   O peration     | Website:  https://openfoam.org
    \\  /    A nd           | Version:  10
     \\/     M anipulation  |
\*---------------------------------------------------------------------------*/
FoamFile
{
    format      ascii;
    class       volScalarField;
    location    "0.19";
    object      TporMedia;
}
// * * * * * * * * * * * * * * * * * * * * * * * * * * * * * * * * * * * * * //

dimensions      [0 0 0 1 0 0 0];

internalField   nonuniform List<scalar> 
4000
(
-0.00014686054
6.3381226e-05
0.00057715715
0.00054211336
0.00063934714
0.0004847203
0.00070002341
0.00045445436
0.00063012829
0.00054953773
0.00051251074
0.00054675534
0.00056473129
0.00045827667
0.00062749562
0.00084963752
0.0005542322
0.00045533148
0.00052033284
0.00038071903
0.0006123684
0.00040730735
0.00048372343
0.00057778933
0.00045660038
0.00065609784
0.00048773803
0.00060256688
0.00044144161
0.00052899559
0.00050992878
0.00073898213
0.00059062677
0.00068681814
0.00070331255
0.00044479336
0.00058831725
0.00055358365
0.00045705037
0.00047202396
-1.5384632e-05
2.518609e-12
6.8380106e-11
4.1688574e-10
5.2604084e-10
4.656565e-10
4.4126513e-10
3.744424e-10
5.9107219e-10
4.4198758e-10
3.022178e-10
4.6155721e-10
3.5275694e-10
4.350998e-10
4.4926564e-10
7.7579711e-10
2.9520101e-10
3.2880725e-10
7.1044767e-10
2.7226074e-10
4.264074e-10
2.3138632e-10
3.4529594e-10
3.9946866e-10
5.8343907e-10
4.2225338e-10
9.0416641e-10
4.1662057e-10
2.2192256e-10
3.5108709e-10
2.8900647e-10
4.8868509e-10
6.1395327e-10
3.6986767e-10
3.6886066e-10
3.1972169e-10
4.6987829e-10
3.2266438e-10
4.1255202e-10
3.7014576e-10
-6.2050091e-06
-9.3969117e-13
2.6035933e-18
1.4261926e-16
9.6062065e-16
3.3936822e-16
4.102819e-16
2.6162805e-16
7.5144638e-16
3.2529866e-16
1.9998334e-16
4.8805227e-16
2.224982e-16
3.1084599e-16
2.7316789e-16
8.094204e-16
2.9524719e-16
3.4949896e-16
5.6970808e-16
2.6217798e-16
4.4985708e-16
2.7340537e-16
2.8289105e-16
2.2537375e-16
4.7257576e-16
3.7455623e-16
9.5526135e-16
6.5442433e-16
1.9915533e-16
1.8719625e-16
1.9092943e-16
2.9811138e-16
4.0604155e-16
3.8069121e-16
2.3142226e-16
2.6645766e-16
3.1528605e-16
2.8974089e-16
2.7530484e-16
3.7571015e-16
-3.3780425e-06
6.7458542e-14
1.4098397e-21
1.2133852e-23
3.2213862e-21
3.3151655e-22
3.3868721e-22
3.1372644e-22
7.8407963e-22
2.6322151e-22
1.2135712e-22
3.6569856e-22
2.2227862e-22
3.5057196e-22
2.2322969e-22
4.4882802e-22
2.6690232e-22
2.1140139e-22
4.9782854e-22
2.4054654e-22
3.327036e-22
1.8918801e-22
4.0434186e-22
1.388696e-22
4.860327e-22
2.9935793e-22
8.9181564e-22
4.8257499e-22
1.5624074e-22
2.9008942e-22
1.2388927e-22
1.7581687e-22
2.2596966e-22
3.0804109e-22
2.4967084e-22
2.4062694e-22
1.887789e-22
2.4347974e-22
1.7173383e-22
3.0193807e-22
-2.1584547e-06
1.3432287e-14
2.1979082e-22
7.669756e-30
5.723511e-27
8.1143934e-28
3.9663934e-28
1.9544025e-28
5.4721302e-28
1.7927168e-28
1.0823969e-28
2.7092389e-28
1.3203267e-28
5.7276344e-28
1.5883831e-28
4.1944761e-28
3.496232e-28
1.8719294e-28
4.6345704e-28
1.7135672e-28
2.7326422e-28
2.7780644e-28
4.4847855e-28
8.3502479e-29
4.594185e-28
1.5378512e-28
7.3463335e-28
3.3506943e-28
1.4486343e-28
1.7347443e-28
9.4808535e-29
1.3110345e-28
2.0446251e-28
3.3407389e-28
1.5055412e-28
1.4643632e-28
1.6132158e-28
1.7540912e-28
1.0681324e-28
2.7065377e-28
-1.5310424e-06
4.5738467e-15
9.2188868e-23
1.5366691e-30
8.4463306e-34
-1.471044e-33
6.9123803e-34
1.6295812e-34
7.162617e-34
1.3876977e-34
1.0015775e-34
2.7355683e-34
9.2404483e-35
5.6701759e-34
1.2099076e-34
4.6177527e-34
2.8527088e-34
1.4912155e-34
4.8756707e-34
1.3121896e-34
1.7886869e-34
1.6803173e-34
4.1055708e-34
7.3903532e-35
3.2883239e-34
9.5635111e-35
5.061122e-34
3.2199451e-34
1.6625935e-34
1.3747447e-34
8.0159122e-35
6.8582512e-35
2.6155981e-34
2.523967e-34
6.9717448e-35
9.9808814e-35
1.0800406e-34
9.5979329e-35
1.3774075e-34
1.6738028e-34
-1.1653979e-06
2.0416215e-15
-5.399671e-22
-5.5134645e-30
-2.9301779e-37
1.0023815e-39
1.4921255e-39
9.6929113e-41
3.6620763e-40
9.6835736e-41
1.491162e-40
1.568666e-40
8.1361223e-41
4.3938487e-40
9.4723218e-41
2.5549318e-40
3.3217277e-40
1.1490911e-40
2.5232466e-40
1.3764981e-40
1.0862449e-40
1.1756454e-40
5.5852292e-40
6.9022151e-41
2.4560494e-40
8.5391555e-41
4.2224651e-40
1.9408905e-40
1.2925846e-40
7.1164826e-41
4.5340289e-41
5.6381171e-41
1.7158476e-40
1.9148667e-40
4.8933424e-41
4.4633734e-41
8.9504924e-41
6.5178066e-41
7.275379e-41
1.1959593e-40
-9.3578332e-07
1.0762302e-15
-9.4844091e-24
-7.0198059e-32
-1.7079486e-39
7.5377501e-46
-1.3523726e-45
1.0666283e-46
2.8939428e-46
1.003356e-46
1.3208894e-46
1.8224221e-46
7.905686e-47
2.7740987e-46
5.5841321e-47
3.286818e-46
2.8068963e-46
8.0640606e-47
2.4374603e-46
1.0801352e-46
1.1370732e-46
1.7621208e-46
3.1227149e-46
7.9639523e-47
2.3050548e-46
5.016163e-47
3.6614671e-46
1.7553632e-46
1.1359182e-46
4.5754312e-47
5.1404042e-47
3.2292201e-47
1.0656445e-46
1.4812425e-46
3.2936321e-47
3.9669215e-47
5.0809453e-47
3.9155402e-47
6.3396685e-47
8.894649e-47
-7.7849564e-07
6.331867e-16
-2.177834e-24
-1.3305812e-32
-1.7672307e-40
-5.2949998e-47
8.0631069e-52
1.1265704e-52
2.450439e-52
1.1230941e-52
1.6264352e-52
1.230042e-52
6.6298838e-53
1.7599543e-52
4.4057637e-53
3.2506051e-52
2.5549686e-52
1.0984612e-52
2.3316633e-52
8.7966763e-53
8.536232e-53
1.165341e-52
2.4724718e-52
1.0342563e-52
2.440796e-52
4.0602232e-53
2.4826449e-52
1.1969738e-52
1.372473e-52
2.8874573e-53
2.9865958e-53
3.0397947e-53
7.1762495e-53
1.5327589e-52
4.2984786e-53
4.3969377e-53
3.9071762e-53
2.9888028e-53
3.7956249e-53
6.7625843e-53
-6.6096966e-07
4.0002601e-16
-7.3333998e-25
-4.2678206e-33
-3.5174016e-41
-2.6763584e-48
6.7918328e-55
6.7255045e-58
2.1374036e-58
1.546662e-58
1.5640829e-58
8.8896023e-59
7.813646e-59
1.3334152e-58
4.9120776e-59
2.2465662e-58
2.6759713e-58
5.0835679e-59
2.057325e-58
5.9906203e-59
5.1312205e-59
1.2427286e-58
2.1429482e-58
6.7753864e-59
1.2884702e-58
3.3956759e-59
1.3265329e-58
9.9017299e-59
7.027407e-59
1.758196e-59
2.7396997e-59
2.6161529e-59
5.0560339e-59
1.0411028e-58
2.9788139e-59
2.4226962e-59
3.4030108e-59
3.2805859e-59
2.3022744e-59
4.8553689e-59
-5.6555782e-07
2.6420629e-16
-2.9747645e-25
-2.0194491e-33
-1.1395909e-41
-4.0212631e-49
8.2675874e-56
-1.0259526e-61
1.5235017e-64
1.4231689e-64
1.2660532e-64
6.8721064e-65
4.8316917e-65
8.5203684e-65
4.3089125e-65
2.1330287e-64
2.6200491e-64
4.4386272e-65
1.8495964e-64
6.3675989e-65
6.7138981e-65
9.341021e-65
1.6975336e-64
7.6874894e-65
1.4560841e-64
2.6577517e-65
7.720894e-65
7.8298521e-65
5.9284373e-65
9.812117e-66
2.2071498e-65
1.8415259e-65
3.2373544e-65
7.24621e-65
2.9428841e-65
1.7985152e-65
2.825772e-65
2.0883688e-65
1.2449795e-65
3.1919206e-65
-4.8344036e-07
1.788957e-16
-1.3490615e-25
-1.7045758e-33
-7.1234487e-42
-1.3060064e-49
3.2280959e-56
-1.5573618e-62
-1.3906597e-68
1.0582911e-70
6.5264372e-71
8.1293805e-71
5.2256884e-71
5.2355892e-71
4.0044291e-71
1.194292e-70
2.4508284e-70
4.10931e-71
1.6633302e-70
4.618743e-71
3.6211621e-71
2.3525948e-70
1.5059443e-70
4.9986601e-71
1.2633349e-70
2.074362e-71
8.8063638e-71
4.4119822e-71
4.7413152e-71
6.6567715e-72
1.5415269e-71
1.7662042e-71
2.260822e-71
5.2070881e-71
2.0634923e-71
1.2569095e-71
1.5551214e-71
1.0255909e-71
9.2159042e-72
1.9952178e-71
-4.1123223e-07
1.2282399e-16
-6.5613553e-26
1.3794685e-33
4.5256009e-42
4.9811411e-50
-2.9839478e-56
8.8916094e-63
1.8888102e-68
1.0329906e-74
5.0595129e-77
6.9028631e-77
6.6870195e-77
3.6190522e-77
3.6140245e-77
7.9585477e-77
2.1467277e-76
4.0667957e-77
1.4139751e-76
5.5804733e-77
3.370575e-77
4.3978283e-76
1.5319041e-76
5.8040646e-77
9.5635209e-77
2.0069526e-77
7.2256557e-77
3.1340824e-77
3.2925996e-77
5.919827e-78
1.6852471e-77
1.5415592e-77
1.2098397e-77
5.4047409e-77
1.3423225e-77
8.4666273e-78
1.3678657e-77
7.262135e-78
6.3158727e-78
1.2285777e-77
-3.4818373e-07
8.5108465e-17
-3.3532306e-26
1.3790659e-34
3.7639236e-43
2.6704052e-51
5.3288396e-58
-8.5818534e-65
6.5288048e-70
7.5599784e-76
7.105819e-82
7.4965199e-83
4.0646509e-83
3.9501367e-83
3.4001593e-83
6.5007913e-83
2.3215656e-82
4.351946e-83
1.6546915e-82
5.1351551e-83
4.5051169e-83
5.3202051e-82
1.2028024e-82
4.2561578e-83
8.0724183e-83
2.2548926e-83
9.5284647e-83
2.3416229e-83
2.3958194e-83
4.9995877e-84
1.0760349e-83
1.060547e-83
1.0772557e-83
4.4150704e-83
9.3652876e-84
6.2209306e-84
8.5290027e-84
7.1951229e-84
5.2171867e-84
1.0295133e-83
-2.9400154e-07
5.9427228e-17
-1.7793859e-26
3.3905697e-35
8.1166395e-44
4.0036085e-52
2.42808e-59
-3.1594997e-66
2.4335775e-72
3.1380382e-78
3.1175097e-84
1.0393108e-88
2.5896025e-89
4.7126934e-89
4.3789133e-89
7.0275363e-89
2.1234075e-88
6.2649076e-89
2.348151e-88
4.2137604e-89
3.4517175e-89
3.6940811e-88
8.1215971e-89
3.0129686e-89
1.2184822e-88
2.6334447e-89
8.6563681e-89
1.3107883e-89
2.7548875e-89
4.1050234e-90
7.0182287e-90
3.5363514e-89
1.1242231e-89
3.1896862e-89
1.2465738e-89
4.5116651e-90
8.6570561e-90
4.0959867e-90
4.0399607e-90
8.5972169e-90
-2.4815692e-07
4.1812875e-17
-9.7404013e-27
1.0728708e-35
2.3859988e-44
8.5833623e-53
2.3889469e-60
-2.5875444e-67
9.9898651e-74
1.1458738e-79
1.2084136e-85
1.1730149e-91
2.1374113e-95
6.2323682e-95
3.8108789e-95
6.134843e-95
1.7084223e-94
4.8355947e-95
3.1381838e-94
3.2506519e-95
3.0140207e-95
3.9869449e-94
8.1842393e-95
2.6215828e-95
9.0838428e-95
1.9354232e-95
9.1213088e-95
8.833e-96
2.180522e-95
2.5802068e-96
4.8834509e-96
1.7745044e-95
1.4304355e-95
2.2586265e-95
1.1459809e-95
3.4809609e-96
7.5851058e-96
3.667513e-96
2.6113307e-96
8.0777878e-96
-2.0983994e-07
2.9667906e-17
-5.4747674e-27
3.8829669e-36
8.575768e-45
2.3403904e-53
3.7218192e-61
-3.8879328e-68
9.7049842e-75
1.2354674e-80
8.4172715e-87
8.5329645e-93
1.1971336e-98
6.8210321e-101
5.5442189e-101
4.4165527e-101
2.2093689e-100
3.5042395e-101
2.9606091e-100
2.3987583e-101
2.9083741e-101
3.2600206e-100
5.3655226e-101
2.9513816e-101
6.4155126e-101
1.8753008e-101
9.2640505e-101
7.1052947e-102
1.4667121e-101
2.7451856e-102
2.4841595e-102
1.3127247e-101
9.5301878e-102
5.1450043e-101
1.222654e-101
2.5879123e-102
6.0076695e-102
3.5043911e-102
2.325086e-102
6.6391001e-102
-1.7798901e-07
2.1232662e-17
-3.1506691e-27
1.5355704e-36
3.7099831e-45
7.9735956e-54
7.8884086e-62
-9.7759405e-69
1.4648972e-75
4.9914224e-81
5.3955706e-87
5.2119014e-93
6.4348586e-99
5.4299374e-105
5.095747e-107
4.7586421e-107
3.8902342e-106
3.1999404e-107
6.8248078e-106
2.0801895e-107
2.0495395e-107
3.266778e-106
6.7339761e-107
2.4974485e-107
4.8462282e-107
2.0225129e-107
9.0029032e-107
4.950984e-108
1.9560825e-107
2.0895501e-108
4.7328104e-108
1.0035334e-107
5.3289803e-108
3.8395111e-107
1.5127833e-107
1.6925928e-108
5.3992597e-108
3.5185796e-108
1.5576581e-108
7.7198098e-108
-1.5155979e-07
1.5326283e-17
-1.8512861e-27
6.4819814e-37
2.0064779e-45
3.5065689e-54
2.3062443e-62
-7.2071602e-69
8.30509e-76
7.0340258e-81
3.9566797e-87
3.7881848e-93
3.8528719e-99
3.0211296e-105
2.6598105e-111
3.409422e-113
3.63139e-112
1.5697268e-113
7.7844897e-112
1.4586556e-113
1.2439286e-113
3.5492116e-112
5.5045581e-113
1.9331882e-113
3.1049901e-113
2.2725904e-113
6.262061e-113
5.3145745e-114
1.672987e-113
1.324928e-114
3.1604348e-114
1.2398047e-113
3.9834333e-114
3.5925486e-113
9.4626861e-114
1.3970105e-114
5.4272947e-114
3.4770167e-114
1.3050757e-114
7.5104984e-114
-1.2954219e-07
1.115178e-17
-1.1077383e-27
2.8805225e-37
1.7871483e-45
2.6148403e-54
1.2066985e-62
3.2663703e-69
-2.8509563e-76
2.3743695e-82
3.8479907e-88
2.3455417e-94
2.3629193e-100
2.9299534e-106
2.4723575e-112
2.4382525e-118
2.6630506e-118
1.0093684e-119
4.8022734e-118
1.153059e-119
1.0599808e-119
7.0286097e-118
3.9107317e-119
1.1989692e-119
1.8589081e-119
2.0308821e-119
4.8561257e-119
4.1464199e-120
1.7236269e-119
8.4844844e-121
2.3802462e-120
9.1256791e-120
2.4870406e-120
2.4479402e-119
4.6773229e-120
1.2083702e-120
5.8251504e-120
2.4559536e-120
1.4497365e-120
6.0159998e-120
-1.1115214e-07
8.1752798e-18
-6.7373767e-28
1.3344236e-37
-1.5304981e-45
-1.9254291e-54
-6.5007376e-63
-3.518716e-70
2.4690542e-77
-8.0125028e-84
-5.1522887e-90
-5.1133075e-96
-3.5524613e-102
-2.4923865e-108
-2.8999237e-114
-3.1229422e-120
2.4155434e-124
7.605895e-126
4.0510462e-124
8.9665201e-126
1.0315744e-125
5.4008442e-124
2.899e-125
9.0022491e-126
1.6955387e-125
1.9539299e-125
3.3091178e-125
3.3861733e-126
1.4059532e-125
6.3806308e-127
9.7031787e-127
7.4411283e-126
2.001784e-126
2.2228355e-125
3.5663992e-126
6.0545066e-127
5.1685145e-126
1.5834057e-126
8.1822655e-127
6.6706675e-126
-9.5681671e-08
6.0333465e-18
-4.1557947e-28
6.3958877e-38
-1.4453593e-46
-1.6063126e-55
-4.1107039e-64
-1.0447174e-71
6.7362388e-79
-1.4920548e-85
-2.0040503e-91
-2.3202228e-97
-2.7806569e-103
-2.1013026e-109
-2.1968996e-115
-1.8275063e-121
-1.5659886e-127
6.0708202e-132
3.5617355e-130
7.2308586e-132
7.8336928e-132
3.9785456e-130
3.6859178e-131
6.7911681e-132
1.1301424e-131
1.786712e-131
3.2938361e-131
2.150455e-132
8.3408341e-132
1.0144914e-132
6.4101043e-133
4.1651531e-132
1.4953068e-132
1.485449e-131
2.3722113e-132
4.8723412e-133
3.1799626e-132
1.419542e-132
5.6807868e-133
4.2445554e-131
-8.2607348e-08
4.4797842e-18
-2.5960264e-28
3.1562974e-38
-3.4077586e-47
-3.4395211e-56
-6.8472704e-65
-1.0046166e-72
6.0239088e-80
-9.7213716e-87
-3.4150325e-92
-2.4307309e-98
-2.0904604e-104
-1.7266331e-110
-1.1117226e-116
-1.328793e-122
-9.7723256e-129
-1.2629572e-134
2.9784381e-136
8.297722e-138
5.2858875e-138
3.303548e-136
2.6977723e-137
6.8915565e-138
7.9500628e-138
1.9269317e-137
3.0623476e-137
1.3530644e-138
5.8579052e-138
8.5880057e-139
4.5686676e-139
2.7760774e-138
1.0611427e-138
9.4027723e-138
1.4577101e-138
2.9045788e-139
3.1116411e-138
7.9837442e-139
4.858464e-139
-4.0342576e-136
-7.15053e-08
3.3447045e-18
-1.6401298e-28
1.5969758e-38
-1.0208036e-47
-9.6542695e-57
-1.5313001e-65
-1.4332377e-73
8.8019477e-81
-1.0690352e-87
-3.872487e-91
-3.2690037e-97
-1.8262039e-103
-1.3978365e-109
-8.2056902e-116
-7.4765486e-122
-4.2079529e-128
-2.9548582e-134
-2.5019539e-140
5.8050095e-144
3.5271946e-144
4.9555746e-142
1.7323715e-143
6.5839721e-144
7.034848e-144
1.5044885e-143
3.1393116e-143
3.3658967e-144
3.6632861e-144
6.0802556e-145
3.0459719e-145
1.859283e-144
7.4281875e-145
8.4367176e-144
9.3871676e-145
1.5868915e-145
3.3818953e-144
6.4110713e-145
5.02587e-145
1.6987929e-141
-6.2026808e-08
2.5091748e-18
-1.0464875e-28
8.2572829e-39
-3.4615443e-48
-3.1793451e-57
-4.1034244e-66
-2.6074555e-74
2.0187749e-81
-1.765377e-88
1.6880325e-94
1.5908612e-100
1.0458014e-106
8.6878343e-113
7.9713974e-119
1.7010645e-124
1.6394848e-130
1.1644467e-136
1.0290157e-142
1.096801e-148
3.5755051e-150
3.6997423e-148
1.6004851e-149
7.0526487e-150
8.0843393e-150
1.3404846e-149
1.8650815e-149
2.1640749e-150
3.3586468e-150
5.8635157e-151
1.8948555e-151
1.3924231e-150
3.7039426e-151
6.0060737e-150
5.6480245e-151
1.0318033e-151
3.3353053e-150
6.2568625e-151
3.8547567e-151
-6.9069431e-147
-5.3903169e-08
1.8904839e-18
-6.7368042e-29
4.3509089e-39
-1.2720778e-48
-1.1857763e-57
-1.2692837e-66
-5.7092261e-75
8.160784e-82
-5.6375191e-89
2.9239483e-95
2.609684e-101
1.9851524e-107
2.0896986e-113
1.4021359e-119
1.0890799e-125
8.3572622e-132
6.2834988e-138
5.9974988e-144
3.6253598e-150
5.453193e-156
3.4430645e-154
1.5755561e-155
4.708794e-156
8.3223513e-156
9.5288372e-156
1.3191059e-155
1.5335973e-156
3.2894911e-156
5.1993159e-157
1.4626748e-157
8.6338703e-157
5.0350071e-157
2.5181432e-156
3.3713854e-157
9.1180739e-158
2.8738619e-156
4.9324129e-157
3.4301647e-157
9.3601882e-153
-4.6921334e-08
1.4300218e-18
-4.3724939e-29
2.3318795e-39
-4.95671e-49
-5.0029713e-58
-4.5224778e-67
-1.5003644e-75
-4.8702568e-82
2.7516783e-89
-8.8948082e-96
-5.6785516e-102
-4.105618e-108
-3.0142506e-114
-2.0360555e-120
-1.925318e-126
-1.7069555e-132
-1.229299e-138
-8.8526318e-145
-8.0851858e-151
-9.9852429e-157
3.7114401e-160
1.5487861e-161
3.6912218e-162
8.5796382e-162
6.2215932e-162
1.6463226e-161
1.0741491e-162
3.674531e-162
6.2051198e-163
9.4585987e-164
6.4937379e-163
3.470846e-163
1.8764991e-162
2.7136219e-163
5.6471328e-164
2.4429804e-162
4.1974227e-163
-1.1541187e-162
-7.7453066e-159
-4.089329e-08
1.0852971e-18
-2.8579842e-29
1.2685526e-39
-2.0206676e-49
-2.4444711e-58
-1.8998508e-67
-4.7780283e-76
-2.4182658e-83
1.2152544e-90
-2.5503018e-97
-2.5146906e-103
-2.9003802e-109
-2.6167197e-115
-1.4359234e-121
-9.6410067e-128
-7.0534101e-134
-6.2397366e-140
-8.284667e-146
-8.1168297e-152
-8.8008206e-158
-5.800751e-164
1.2717043e-167
4.2510284e-168
7.6149049e-168
5.6666185e-168
1.5020664e-167
9.8111494e-169
3.2754743e-168
7.7786358e-169
5.6866639e-170
3.8562227e-169
2.1787258e-169
1.4692926e-168
1.2911119e-169
3.5571783e-170
1.9978493e-168
2.6605984e-169
-3.2417349e-168
4.6822337e-165
-3.568145e-08
8.2623761e-19
-1.8804408e-29
6.9947815e-40
-8.5470897e-50
-1.5295877e-58
-1.0383793e-67
-2.0281678e-76
-4.9052183e-84
2.2099278e-91
-3.4502343e-98
-5.7525433e-103
-5.8646633e-109
-3.4657779e-115
-2.803752e-121
-1.6723799e-127
-1.7903105e-133
-2.8417796e-139
-3.2174811e-145
-3.1319342e-151
-4.0561967e-157
-6.0895995e-163
-5.0553858e-169
3.9607938e-174
4.7704137e-174
3.3417412e-174
1.3059446e-173
7.1403849e-175
4.4126735e-174
6.7881037e-175
3.3357669e-176
2.4828954e-175
1.3619683e-175
7.600706e-175
1.3850598e-175
2.2336965e-176
1.5262783e-174
1.6886565e-175
-4.2802224e-173
-2.0149468e-171
-3.1162729e-08
6.3070222e-19
-1.2445585e-29
3.903947e-40
-3.7288257e-50
-2.2928515e-58
-1.3836148e-67
-2.1398605e-76
-2.9674628e-84
1.2609089e-91
-1.3258447e-98
4.4968762e-104
3.9571218e-110
5.1051826e-116
4.0839101e-122
5.3454451e-128
4.3121563e-134
5.6819666e-140
4.4558412e-146
5.5445856e-152
5.1498461e-158
4.5108336e-164
3.6215696e-170
2.7830978e-176
4.9411812e-180
2.1576595e-180
1.0815407e-179
4.7223636e-181
3.9860667e-180
7.6248442e-181
3.0816271e-182
2.177824e-181
1.0922575e-181
5.2070461e-181
1.1352278e-181
1.370012e-182
8.9941814e-181
1.2747229e-181
-3.1424397e-178
6.0184803e-178
-2.7237376e-08
4.8256826e-19
-8.280254e-30
2.2027121e-40
-1.6701824e-50
4.2931393e-59
2.3421076e-68
2.924884e-77
2.6177176e-85
-1.1354743e-92
9.8601534e-100
-7.7915346e-106
-6.7783887e-112
-7.2604166e-118
-1.267737e-123
-1.2708589e-129
-7.6355008e-135
-1.2394025e-140
-7.2197699e-147
-6.6779315e-153
-5.786264e-159
-9.0606808e-165
-1.5053374e-170
-2.984451e-176
-3.7025556e-182
1.8840346e-186
1.0020041e-185
3.4585875e-187
6.9506263e-186
7.7176809e-187
2.5431511e-188
1.4219803e-187
6.8916129e-188
4.1773854e-187
8.8501064e-188
1.2912758e-188
6.2178233e-187
1.4536987e-187
1.107019e-183
-3.098808e-184
-2.382259e-08
3.6999878e-19
-5.5353621e-30
1.2552281e-40
-7.6543783e-51
6.7888884e-60
3.4084234e-69
3.4933444e-78
2.1316623e-86
-1.0378136e-93
7.0698771e-101
-4.4829371e-107
-3.6125427e-113
-3.7523723e-119
-4.4790376e-125
-5.6662005e-131
-8.7414884e-137
-5.9541636e-143
-1.017689e-148
-9.99706e-155
-1.6362288e-160
-1.9192499e-166
-2.064462e-172
-2.8057804e-178
-2.5800498e-184
-4.8714996e-190
8.3603148e-192
4.0207961e-193
7.0451189e-192
7.1755798e-193
3.1405621e-194
1.0025211e-193
5.0522386e-194
3.6144604e-193
6.0542801e-194
1.2781878e-194
4.477323e-193
1.3630923e-193
-2.0070911e-189
4.4728981e-190
-2.084652e-08
2.8418557e-19
-3.7160503e-30
7.2168079e-41
-3.5791019e-51
1.7158113e-60
8.0885715e-70
6.9005632e-79
3.0204676e-87
-1.8655174e-94
1.0818106e-101
-3.7660012e-108
-2.8299202e-114
-5.0316666e-120
-7.3511403e-126
-9.6911215e-132
-1.150926e-137
-2.3137424e-143
-4.6767174e-149
-7.5719867e-155
-6.2574433e-161
-5.4490389e-167
-8.590237e-173
-9.7850376e-179
-8.989402e-185
-7.6481198e-191
-6.9248409e-197
3.882659e-199
6.9503953e-198
6.6474514e-199
2.574606e-200
1.7288908e-199
7.9728422e-200
3.6526189e-199
5.134788e-200
1.7430633e-200
2.9427599e-199
2.5738595e-199
2.4900639e-195
8.4280353e-196
-1.8249584e-08
2.1859961e-19
-2.5040446e-30
4.182788e-41
-1.7036284e-51
5.153934e-61
2.3335205e-70
1.6807033e-79
5.4636116e-88
-7.907917e-95
3.9690905e-102
-8.5719125e-109
-2.865217e-114
-3.3950749e-120
-4.4168983e-126
-8.9475219e-132
-1.4291796e-137
-1.6326176e-143
-1.4592117e-149
-3.2467681e-155
-5.6240696e-161
-6.4817605e-167
-8.2576678e-173
-7.0087121e-179
-6.7300569e-185
-5.4011249e-191
-7.0813955e-197
-5.2634941e-203
4.7701985e-204
1.9032355e-204
4.0709586e-206
2.2515609e-205
6.168302e-206
2.9735208e-205
6.7397859e-206
2.8489398e-206
1.0999223e-204
4.1946357e-205
-9.5390154e-201
3.5607213e-202
-1.5981496e-08
1.6835892e-19
-1.6929208e-30
2.4419637e-41
-8.2386267e-52
1.7065499e-61
7.628693e-71
4.6988126e-80
1.1671517e-88
1.945335e-95
-8.389905e-103
1.5687494e-109
7.3108363e-115
1.2234177e-120
3.4424885e-126
2.9460796e-131
3.052135e-137
9.7797484e-143
9.3072793e-149
1.2230279e-154
1.9390987e-160
1.9718201e-166
1.9923225e-172
2.6940889e-178
2.6090942e-184
3.7854246e-190
2.80284e-196
2.191261e-201
2.4792574e-207
2.1487422e-210
5.8646614e-212
2.6940238e-211
5.3710469e-212
2.0494323e-211
5.188173e-212
5.8136921e-212
1.4854321e-210
1.2031495e-210
-5.4567394e-206
9.3212698e-209
-1.3998921e-08
1.2979667e-19
-1.1478747e-30
1.4350123e-41
-4.0411538e-52
6.0322202e-62
2.754646e-71
1.4693936e-80
2.8501943e-89
1.1410618e-96
-4.505266e-104
5.7900377e-111
-1.0690132e-116
-7.5863537e-122
-9.249252e-128
-1.7124891e-133
-3.4462102e-139
-3.6976418e-145
-1.08636e-150
-2.2716519e-156
-2.507375e-162
-4.4389453e-168
-4.9351821e-174
-1.6935305e-179
-1.4723482e-185
-2.5246074e-191
-3.1983943e-197
-3.6660749e-203
-3.1382651e-209
-2.5622313e-215
6.5296691e-218
2.6316018e-217
4.5271732e-218
1.5040859e-217
7.0585822e-218
5.043775e-218
1.8423124e-216
4.4983874e-216
-3.9064947e-212
1.685869e-215
-1.2265003e-08
1.0015041e-19
-7.8028027e-31
8.4826809e-42
-2.0077345e-52
2.237044e-62
1.0932797e-71
5.1124231e-81
7.8819068e-90
1.5770297e-97
-5.8425479e-105
6.0706638e-112
-5.5144664e-118
-6.9015417e-124
-1.0174475e-129
-1.4407448e-135
-1.4232927e-141
3.3123604e-147
1.6149327e-152
1.7922992e-158
2.8488983e-164
1.2078424e-169
1.7712407e-175
1.6562681e-181
7.9328569e-187
2.1709321e-192
1.8147467e-198
2.4492735e-204
1.5634447e-210
1.8725388e-216
1.5155148e-222
3.1876384e-223
4.0539843e-224
2.7397087e-223
5.9127997e-224
8.3131236e-224
4.1746255e-222
4.3660226e-222
-2.7512995e-218
2.6290148e-222
-1.0748139e-08
7.7328873e-20
-5.3158533e-31
5.0411665e-42
-1.0090449e-52
8.6164361e-63
4.8396951e-72
2.0081993e-81
2.5027527e-90
2.9941693e-98
-1.0594371e-105
9.2541839e-113
-5.2497281e-119
-9.8039687e-125
-1.6190969e-129
-1.7512445e-134
-2.9653398e-138
-6.083481e-144
-7.8582673e-150
-1.2448477e-155
-3.3686921e-161
3.6597936e-166
5.0195576e-172
1.1461074e-177
7.1193221e-183
9.8064996e-189
8.8215402e-195
1.5941129e-200
4.6844891e-206
5.0118842e-212
4.4908097e-218
8.409727e-224
8.8064996e-230
2.0659501e-229
5.8772963e-230
7.0914649e-230
2.823659e-227
2.5459237e-227
-1.3152922e-224
3.5152344e-229
-9.4217128e-09
5.9746001e-20
-3.6288199e-31
3.0105604e-42
-5.125086e-53
3.423816e-63
2.5058495e-72
9.3369944e-82
9.5526345e-91
7.6011228e-99
-2.7916322e-106
1.9381019e-113
-9.7237459e-120
-3.15494e-125
-4.989705e-131
-4.0963319e-136
1.1112741e-141
3.999464e-147
5.6108514e-153
4.5056564e-159
1.0978359e-164
3.9251992e-170
5.6279119e-176
2.7185632e-181
5.6593968e-187
7.951304e-193
2.3797477e-198
2.6919295e-204
4.736932e-210
1.02223e-215
1.2538743e-221
1.4610731e-227
2.0522036e-233
1.5790147e-235
1.2630396e-235
3.8880297e-235
1.7353283e-232
3.3358218e-233
-5.1027421e-231
4.3321804e-236
-8.262334e-09
4.6191283e-20
-2.4817716e-31
1.8060407e-42
-2.6284492e-53
1.396773e-63
1.8053497e-72
6.1152091e-82
5.2036223e-91
2.9152494e-99
-1.165568e-106
6.8463886e-114
-2.0808472e-120
2.4077042e-124
6.5552862e-130
2.9475555e-135
4.6835909e-141
1.3574523e-146
2.2593057e-152
5.1154343e-158
1.0942544e-163
3.8237872e-169
4.5648529e-175
-1.3089043e-179
-2.4644379e-185
1.754545e-190
9.6850214e-196
7.2454337e-201
1.1032698e-206
2.0435167e-212
7.5221855e-218
1.2365931e-223
1.9880557e-229
2.2992266e-235
1.3259836e-240
1.1508917e-240
-3.9274503e-238
1.2220466e-238
-1.2068458e-237
4.979772e-243
-7.2499593e-09
3.5738864e-20
-1.7003474e-31
1.0880564e-42
-1.3602097e-53
5.8296892e-64
-1.8419376e-71
-5.7455583e-81
-4.1153346e-90
-1.6911193e-98
8.633447e-106
-4.5076154e-113
1.1136929e-119
-3.5030968e-125
-1.6187757e-130
-3.0274554e-136
-4.9659117e-141
-8.6292403e-145
6.244718e-150
1.7182e-155
5.1549302e-161
1.3483251e-166
2.3114735e-172
4.9871566e-178
8.5120966e-184
3.0478547e-189
6.5993547e-195
4.2468241e-200
8.7753278e-206
7.9295184e-211
1.3488966e-216
1.7486384e-222
1.3841576e-228
1.1429707e-234
1.8090301e-240
8.2479218e-246
8.7733814e-244
1.5960436e-244
-4.1343229e-244
4.5603133e-250
-6.3669023e-09
2.7677945e-20
-1.1671148e-31
6.5819762e-43
-7.0989498e-54
2.4826967e-64
-2.2811603e-73
-6.6439342e-83
-4.0522037e-92
-1.2586628e-100
1.1365742e-107
-5.1205077e-115
8.9082466e-122
-2.0593365e-127
-7.8029571e-133
1.0359877e-137
6.7108795e-143
8.0868871e-149
1.5270631e-154
7.1590238e-160
2.7287217e-165
6.6656031e-171
4.2900845e-176
1.9196102e-181
7.7583472e-187
-1.8671037e-191
1.9948434e-195
6.3798087e-200
9.7173745e-206
3.2010616e-211
4.5114055e-217
1.0245845e-221
1.2892318e-227
3.8630736e-233
-9.0447544e-239
2.8826159e-244
7.2369724e-249
1.7636418e-250
-8.5665392e-251
3.7011613e-257
-5.5978237e-09
2.1462495e-20
-8.0272176e-32
3.9979145e-43
-3.7351945e-54
1.0768443e-64
-4.4186603e-74
-1.2198082e-83
-6.4051294e-93
-1.5425926e-101
-8.8065241e-108
3.6100933e-115
-5.4256623e-122
1.061152e-127
1.320679e-131
6.5684206e-137
-1.7785282e-142
-1.1221198e-147
4.9544367e-152
1.4742614e-157
-3.585945e-163
9.8690944e-169
2.5934371e-174
2.8703035e-179
4.0294408e-185
8.2085248e-191
-5.0703099e-196
-7.3894044e-202
-9.9355798e-207
-2.5974832e-212
-2.991173e-218
-5.1430193e-224
-1.1955124e-229
-3.7576604e-235
-1.6766314e-240
4.7677276e-246
2.6004464e-251
2.1836924e-256
-1.5974718e-257
2.0105605e-264
-4.9292761e-09
1.6671653e-20
-5.5340004e-32
2.4386951e-43
-1.9811132e-54
4.7503249e-65
-1.1517807e-74
-3.0646532e-84
-1.3997088e-93
-2.6701308e-102
-1.4180841e-109
5.4521183e-117
-6.7787148e-124
6.3521317e-130
-2.2131491e-135
4.2425094e-141
-1.0562149e-146
-7.1447825e-152
6.1793819e-158
-7.022194e-163
-6.2458619e-167
-1.2688827e-172
1.6339316e-178
9.1633535e-184
-1.9895466e-189
-5.4663919e-195
-2.118362e-200
4.7021954e-206
8.6086858e-211
-3.1648069e-215
2.6540938e-220
1.0137581e-225
3.1226452e-231
-1.5828997e-236
6.5098506e-242
3.7825459e-247
-4.9127252e-253
-5.0164738e-259
-2.8427574e-264
-7.4425584e-272
-4.3492306e-09
1.2980101e-20
-3.8259205e-32
1.4943359e-43
-1.0592131e-54
2.1291082e-65
-3.4342612e-75
-8.983748e-85
-3.6040156e-94
-5.5357606e-103
-1.3181203e-110
4.742245e-118
-4.9339772e-125
2.3236303e-131
-1.305469e-136
3.8201192e-142
-1.0732419e-147
2.1919982e-153
-5.7816252e-159
8.6883567e-165
5.8367897e-170
-4.6971198e-175
1.651031e-180
-8.0318446e-186
1.0481205e-189
2.4276117e-195
-6.4156371e-201
3.4906781e-206
1.1150571e-211
-1.1283118e-216
-6.7323782e-222
-3.9490116e-227
1.0048777e-232
-2.9055537e-238
-6.7537052e-244
1.57271e-249
-3.9545279e-255
-3.0709201e-261
-4.6569213e-268
-3.8402252e-275
-3.8472316e-09
1.0136908e-20
-2.6543145e-32
9.2031016e-44
-5.7102535e-55
9.6904976e-66
-1.1117587e-75
-2.9285814e-85
-1.0422704e-94
-1.3100134e-103
-1.8576408e-111
6.6195168e-119
-5.6082401e-126
2.3716722e-132
-6.0980255e-138
1.3304852e-143
-3.603899e-149
9.7636186e-155
-2.3391861e-160
5.6635886e-166
4.5361391e-171
-4.2077817e-176
9.5919129e-181
1.0189557e-185
8.8396846e-191
-2.1756753e-196
8.1841583e-202
-4.2671026e-207
-1.5726473e-212
-1.380781e-217
-2.6587032e-223
-1.8801578e-228
-8.9572332e-234
1.3679295e-238
-1.6261662e-244
1.7780559e-250
-3.5820644e-256
-1.8013838e-262
-2.6508297e-269
-2.1445067e-276
-3.4138621e-09
7.9478081e-21
-1.8495295e-32
5.7006568e-44
-3.1055384e-55
4.4780145e-66
-3.8164734e-76
-1.0434421e-85
-3.3260595e-95
-3.4649778e-104
-3.2344842e-112
1.2011404e-119
-8.7756381e-127
2.9212674e-133
-2.8843202e-139
1.0799244e-144
-2.4314211e-149
7.0124813e-155
-3.1799476e-160
3.2876934e-165
-4.1823211e-171
-1.0784345e-176
1.0759812e-182
-1.6093946e-188
3.0308869e-194
1.1474461e-199
-2.7339546e-205
-4.627503e-211
-9.2324584e-217
1.1839081e-221
-5.4618938e-227
2.4510071e-232
6.8099843e-238
-7.9532829e-243
-1.0695516e-247
1.1670463e-253
-2.5367974e-259
-2.2214566e-265
-2.9004715e-272
-2.2230609e-279
-3.0408348e-09
6.262735e-21
-1.2957773e-32
3.5549413e-44
-1.7051135e-55
2.1013343e-66
-1.372224e-76
-4.0587373e-86
-1.1700031e-95
-1.0232563e-104
-6.750247e-113
2.7549229e-120
-1.7072148e-127
4.804334e-134
-4.2078583e-140
1.6736318e-145
-2.1207072e-151
3.7150591e-157
-4.4808204e-163
8.6778841e-169
-7.7716978e-175
7.706194e-181
-1.2681437e-186
3.650945e-192
-6.5894257e-198
-5.2193769e-203
-1.1625308e-208
1.602625e-214
-9.0368204e-220
2.7943622e-225
-7.0273296e-231
1.1008298e-235
3.4470605e-241
-6.2077308e-247
1.1118186e-252
-1.2782203e-258
1.3068456e-264
6.2786138e-271
7.5299307e-278
5.7241282e-285
-2.7207755e-09
4.9656987e-21
-9.139602e-33
2.2344812e-44
-9.4611553e-56
1.0018762e-66
-5.1320535e-77
-1.7457127e-86
-4.5948461e-96
-3.4130376e-105
-1.658705e-113
8.1221027e-121
-4.6328232e-128
1.0231133e-134
-3.3149279e-140
4.0992846e-146
-6.400104e-152
5.354416e-158
-3.547193e-164
3.6326976e-170
-5.1877014e-176
6.993079e-182
-3.871661e-187
5.1817345e-193
-4.210165e-198
4.9785924e-204
-1.147913e-208
2.9078892e-214
-1.0279496e-219
-8.6695814e-225
1.6116129e-230
-1.9389082e-235
5.3521452e-241
-1.1602893e-246
1.4018625e-252
-1.0645442e-258
2.4167656e-264
1.0769875e-270
1.2719878e-277
9.7654516e-285
-2.4471878e-09
3.9672757e-21
-6.5001513e-33
1.4177653e-44
-5.3123939e-56
4.8578442e-67
-1.9886122e-77
-8.6317746e-87
-2.09618e-96
-1.3354288e-105
-4.9410643e-114
3.7926441e-121
-1.9385683e-128
3.2839752e-135
-2.1179175e-141
1.813985e-147
-2.0919795e-153
3.1538985e-159
-2.7887035e-165
3.1236857e-171
-2.5982404e-177
4.8504227e-183
-6.2423107e-189
7.0920417e-195
-7.0562757e-201
9.9886217e-207
-2.8331182e-211
6.0077563e-217
-1.7312466e-222
2.4685908e-228
-8.4198625e-233
3.7949264e-238
-7.2597543e-244
9.852691e-250
-7.3375632e-256
3.7011324e-262
-5.0086238e-268
-2.163004e-274
-2.5419484e-281