/*--------------------------------*- C++ -*----------------------------------*\
  =========                 |
  \\      /  F ield         | OpenFOAM: The Open Source CFD Toolbox
   \\    /   O peration     | Website:  https://openfoam.org
    \\  /    A nd           | Version:  10
     \\/     M anipulation  |
\*---------------------------------------------------------------------------*/
FoamFile
{
    format      ascii;
    class       volScalarField;
    location    "0.19";
    object      TporMedia_0;
}
// * * * * * * * * * * * * * * * * * * * * * * * * * * * * * * * * * * * * * //

dimensions      [0 0 0 1 0 0 0];

internalField   nonuniform List<scalar> 
4000
(
-0.00014071759
6.1028034e-05
0.00053148551
0.00061273319
0.00046050311
0.00053100584
0.00057385019
0.00059989154
0.00056326263
0.00043989515
0.00067298571
0.00052389094
0.00058034313
0.00062857688
0.0004293219
0.0005382939
0.00047458575
0.00050216276
0.00048651326
0.00072743234
0.00046761258
0.00068184798
0.00049776247
0.00047031819
0.00046283105
0.00048972566
0.00066294943
0.00038491546
0.0005749417
0.00049049181
0.00062586059
0.00050133677
0.00058155436
0.00043010079
0.00049810092
0.000521645
0.0004365977
0.00047701941
0.00054921449
0.00039565986
-1.4657258e-05
2.3380891e-12
5.9838506e-11
1.0846769e-09
3.6325793e-10
3.49792e-10
3.3157171e-10
6.7086094e-10
4.1884536e-10
2.9603864e-10
5.2307017e-10
6.8266983e-10
4.3848035e-10
4.8320388e-10
3.9747978e-10
4.8670191e-10
3.5059474e-10
6.1780968e-10
4.0667656e-10
6.7963406e-10
4.6822625e-10
5.3797392e-10
3.5719726e-10
4.3204925e-10
3.3566957e-10
3.3065325e-10
3.8259289e-10
4.1214635e-10
4.8021663e-10
2.6974702e-10
5.2402009e-10
4.0277615e-10
5.0625629e-10
2.8110852e-10
2.7800125e-10
4.0670641e-10
2.6120267e-10
2.2068271e-10
4.1398499e-10
3.4867491e-10
-5.9185873e-06
-8.4365111e-13
2.2260855e-18
3.4264436e-16
7.0091352e-16
2.9119172e-16
2.4016223e-16
8.5207005e-16
2.8002343e-16
2.7667248e-16
4.4999363e-16
6.5537933e-16
2.4468365e-16
5.7061389e-16
2.8775536e-16
4.8284095e-16
3.0932422e-16
5.789613e-16
3.7125786e-16
3.995394e-16
3.4730697e-16
4.2618705e-16
3.0600966e-16
2.9808059e-16
1.9456655e-16
2.7719031e-16
3.0482389e-16
4.8621284e-16
2.679495e-16
1.5769894e-16
2.887714e-16
2.9779103e-16
3.7896248e-16
2.3933607e-16
1.8581504e-16
3.2802864e-16
1.6589403e-16
1.871331e-16
5.3160046e-16
2.3844918e-16
-3.2275905e-06
6.1681331e-14
1.2256681e-21
2.733638e-23
2.5871011e-21
2.2676776e-22
1.2832968e-22
7.7685105e-22
2.1427796e-22
1.846244e-22
5.2567372e-22
3.9167514e-22
2.5922342e-22
4.1601987e-22
2.7023784e-22
3.0791898e-22
1.7512253e-22
4.7822519e-22
2.918275e-22
3.7159712e-22
2.0861065e-22
3.9091241e-22
2.0902057e-22
1.9619082e-22
1.3962541e-22
2.6806247e-22
3.7872203e-22
4.5948202e-22
1.8488489e-22
1.3572357e-22
3.385806e-22
3.0808096e-22
3.6900698e-22
1.5690941e-22
1.0756087e-22
3.4370137e-22
1.2620564e-22
1.07961e-22
4.2418599e-22
1.9608577e-22
-2.0632495e-06
1.222446e-14
1.8809523e-22
6.7219112e-30
1.5430006e-27
1.4132148e-27
7.6937778e-29
5.5771419e-28
1.4837861e-28
1.2577737e-28
3.1356885e-28
3.0879992e-28
2.9668172e-28
5.0474599e-28
3.5007213e-28
2.5520115e-28
1.4877658e-28
2.7280129e-28
1.6095186e-28
3.1641926e-28
2.0627509e-28
3.9206009e-28
1.1826433e-28
1.4195209e-28
1.4895339e-28
1.8472801e-28
2.6475218e-28
3.3099326e-28
1.2941122e-28
1.0393971e-28
3.1177559e-28
2.2510565e-28
2.9055585e-28
1.0294108e-28
7.1521916e-29
3.1010651e-28
7.1774338e-29
5.1303323e-29
3.0811864e-28
1.2351974e-28
-1.4625501e-06
4.1795446e-15
8.0415129e-23
1.2751787e-30
2.2800234e-34
-1.7879768e-33
1.135261e-34
2.9859938e-34
1.0458744e-34
7.07e-35
4.3180224e-34
1.7876707e-34
3.2771062e-34
3.2289233e-34
2.3184858e-34
2.173112e-34
1.0981252e-34
2.3016443e-34
9.0641762e-35
3.0041409e-34
1.0526099e-34
3.1851819e-34
5.9935301e-35
9.7205816e-35
1.3859374e-34
1.2255468e-34
3.2993821e-34
3.3024646e-34
1.8550701e-34
8.3771823e-35
3.3855933e-34
1.6589674e-34
1.2581478e-34
6.4043897e-35
1.1305908e-34
2.5765696e-34
3.5459235e-35
4.8556448e-35
2.2421567e-34
1.152893e-34
-1.1140206e-06
1.8644536e-15
-4.9756185e-22
-4.8875077e-30
-2.4793648e-37
1.0869116e-39
1.1312822e-40
2.465081e-40
7.5347021e-41
7.445353e-41
3.69133e-40
2.1343513e-40
2.8774128e-40
3.1524803e-40
2.0927412e-40
2.3515943e-40
9.2557077e-41
2.3287541e-40
9.5704599e-41
1.6912945e-40
6.9928085e-41
2.5361961e-40
5.8179414e-41
5.4248737e-41
9.1493225e-41
1.0128484e-40
2.2688364e-40
3.3912213e-40
1.7866379e-40
1.0880883e-40
5.2244261e-40
1.1886273e-40
9.2726162e-41
3.1882791e-41
6.817211e-41
2.3569022e-40
3.703222e-41
4.9722432e-41
1.3694843e-40
6.6382723e-41
-8.9450607e-07
9.8273747e-16
-8.2871793e-24
-5.8602899e-32
-1.3633432e-39
4.0276328e-46
-1.3341164e-46
1.7674686e-46
5.8161721e-47
4.7040164e-47
2.7750668e-46
2.1761238e-46
2.2666562e-46
3.4706978e-46
1.6555401e-46
1.2888194e-46
7.5383686e-47
1.7854969e-46
5.7824763e-47
1.503729e-46
8.8250873e-47
1.8935455e-46
3.7991033e-47
3.2034226e-47
5.69092e-47
6.9570403e-47
2.0680444e-46
2.0300844e-46
1.6249411e-46
6.8884591e-47
3.3839676e-46
7.5768528e-47
8.1313884e-47
2.3176204e-47
6.0510228e-47
1.306082e-46
5.7321472e-47
2.5067259e-47
8.7788845e-47
4.5941686e-47
-7.4481658e-07
5.78788e-16
-1.9060352e-24
-1.1138993e-32
-1.4013494e-40
-4.5124048e-47
8.4699492e-53
5.0113367e-52
4.9889074e-53
2.7368319e-53
1.5060358e-52
1.6720507e-52
2.280989e-52
6.6013669e-52
1.3178491e-52
8.4503207e-53
4.8602432e-53
1.1037237e-52
3.7663943e-53
9.3307095e-53
4.6665267e-53
1.2231811e-52
2.3436956e-53
2.3429924e-53
5.2192507e-53
5.4597568e-53
1.2728381e-52
1.6898855e-52
9.732311e-53
5.5620895e-53
2.4631666e-52
7.3644862e-53
4.7597624e-53
1.404681e-53
3.5526849e-53
8.1357807e-53
2.4385394e-53
2.007188e-53
4.5339357e-53
3.1560477e-53
-6.3225894e-07
3.6582984e-16
-6.4068939e-25
-3.5709534e-33
-2.8246223e-41
-2.3107622e-48
6.3185878e-55
1.2094389e-57
4.0980269e-59
1.1613623e-59
1.9400967e-58
1.2509002e-58
1.4819382e-58
5.0748207e-58
9.1486473e-59
7.9189984e-59
4.3993602e-59
8.9096164e-59
4.4789316e-59
6.0543553e-59
2.902092e-59
7.7966639e-59
2.0494156e-59
2.0949438e-59
5.1589035e-59
3.0455983e-59
8.6383448e-59
1.4877058e-58
1.0825982e-58
3.5360184e-59
2.0601551e-58
5.3455923e-59
4.7073444e-59
1.0193013e-59
2.035192e-59
7.2176116e-59
1.7141202e-59
8.9889604e-60
2.9379198e-59
1.9554013e-59
-5.4069819e-07
2.4149996e-16
-2.5993747e-25
-1.6827446e-33
-9.0801313e-42
-3.0465812e-49
6.3533123e-56
-8.1958102e-62
3.6566223e-65
9.553928e-66
2.0434597e-64
9.012906e-65
1.1015747e-64
5.9810821e-64
7.9731091e-65
1.1800099e-64
2.8599506e-65
6.160223e-65
3.1242071e-65
8.085897e-65
3.4113374e-65
6.6526958e-65
1.6616735e-65
1.1483461e-65
5.085598e-65
2.0227347e-65
6.8101592e-65
8.9477618e-65
8.7377126e-65
2.87479e-65
1.1922676e-64
3.6380834e-65
3.7505122e-65
5.3161716e-66
1.1678939e-65
7.4189392e-65
1.6349424e-65
7.590813e-66
3.3823962e-65
1.0931605e-65
-4.622199e-07
1.6356952e-16
-1.1788866e-25
-1.4187763e-33
-5.6638453e-42
-9.9546174e-50
2.199519e-56
-1.209541e-62
-1.8432238e-68
4.9964396e-72
2.612095e-70
7.4631331e-71
1.1205782e-70
3.6844484e-70
6.5430197e-71
1.2734217e-70
2.1488277e-71
6.0941585e-71
2.0890664e-71
5.9510305e-71
3.0706294e-71
5.1693384e-71
1.0447858e-71
1.0595521e-71
4.626981e-71
2.6765845e-71
5.0412411e-71
1.2589827e-70
5.6712032e-71
2.120105e-71
1.1979402e-70
2.5011767e-71
2.3754692e-71
5.4631052e-72
1.1242382e-71
3.8904747e-71
1.0202356e-71
5.2291929e-72
2.2198313e-71
9.1445974e-72
-3.9364832e-07
1.1244972e-16
-5.7439635e-26
1.170032e-33
3.668806e-42
3.8514859e-50
-1.7405222e-56
4.1213715e-63
9.1673424e-69
7.6992236e-75
3.7163514e-76
6.0057892e-77
1.0908903e-76
3.4509877e-76
5.1680416e-77
1.0346063e-76
1.270924e-77
3.4662715e-77
1.4414728e-77
4.5435259e-77
2.2939933e-77
3.948789e-77
8.7329428e-78
8.2997422e-78
3.0662453e-77
2.4284783e-77
3.2592594e-77
9.8600805e-77
3.4898277e-77
2.6912678e-77
8.0471867e-77
1.6952638e-77
1.2078199e-77
4.3031517e-78
9.0958057e-78
2.6151343e-77
5.9284477e-78
4.549013e-78
1.3555471e-77
6.1887779e-78
-3.3318485e-07
7.7906645e-17
-2.9355064e-26
1.1540953e-34
3.0123985e-43
2.0543836e-51
4.2737577e-58
-6.1114616e-65
2.9639126e-70
1.8442549e-76
3.904419e-82
4.2770405e-83
9.2924209e-83
6.2736117e-82
4.0240575e-83
6.7882891e-83
9.6023337e-84
3.6240869e-83
1.1108992e-83
4.3288778e-83
1.9199335e-83
2.8205026e-83
8.2331601e-84
4.4572672e-84
4.0587053e-83
2.0299331e-83
2.7861554e-83
6.5239249e-83
4.6053759e-83
1.9093023e-83
4.9553943e-83
1.0988884e-83
1.0578994e-83
2.7074782e-84
6.257619e-84
2.1868712e-83
4.4595585e-84
3.7986826e-84
2.1212384e-83
4.3337006e-84
-2.8135779e-07
5.4413028e-17
-1.5590921e-26
2.8419922e-35
6.5126735e-44
3.0715622e-52
1.732694e-59
-2.0786005e-66
1.2751394e-72
1.4942967e-78
2.5119218e-84
1.1134508e-88
6.3022696e-89
5.7146015e-88
2.4733822e-89
6.9896924e-89
1.117464e-89
5.3575335e-89
8.3929562e-90
7.1404595e-89
3.8386697e-89
2.6497878e-89
1.1470741e-89
3.8898065e-90
6.1912579e-89
1.7584481e-89
3.0344221e-89
4.5382353e-89
4.794314e-89
3.1956842e-89
4.9245669e-89
1.6510595e-89
6.556157e-90
2.9937948e-90
3.9693887e-90
1.6428836e-89
3.126251e-90
2.3598957e-90
1.861506e-89
4.1877948e-90
-2.3752771e-07
3.8305997e-17
-8.5385922e-27
8.9942578e-36
1.9149468e-44
6.5893032e-53
1.7870779e-60
-1.770038e-67
6.3336133e-74
8.2933385e-80
9.4636573e-86
6.8027978e-92
3.5613256e-95
8.961809e-94
2.6378419e-95
4.0239308e-95
9.688722e-96
4.2743495e-95
7.151074e-96
8.5801076e-95
3.9306482e-95
2.8658958e-95
8.0205122e-96
3.3923042e-96
4.1664368e-95
1.7186422e-95
2.6313138e-95
4.0239803e-95
3.7000063e-95
2.7536522e-95
4.1826978e-95
1.1106697e-95
6.6833863e-96
1.6387169e-96
2.6235693e-96
2.6305296e-95
2.3010808e-96
1.8934749e-96
1.3397143e-95
3.7953792e-96
-2.0088343e-07
2.7187951e-17
-4.8025075e-27
3.2609572e-36
6.8961661e-45
1.8034456e-53
2.7143844e-61
-2.558444e-68
5.8549798e-75
1.3306942e-80
9.4082623e-87
1.0316335e-92
1.2732487e-98
8.0578092e-100
1.7427333e-101
4.3809613e-101
7.2828947e-102
3.1110489e-101
7.2422601e-102
6.5371918e-101
4.4705979e-101
2.5895463e-101
6.8120313e-102
2.0535382e-102
3.6262809e-101
1.1238852e-101
3.2901009e-101
3.6016815e-101
5.0523941e-101
3.0698754e-101
3.6470561e-101
9.5457328e-102
6.1611166e-102
1.2427451e-102
2.060419e-102
1.9957516e-101
1.7238207e-102
1.0911557e-102
1.1472169e-101
1.9435879e-102
-1.7039962e-07
1.9462272e-17
-2.7648861e-27
1.2895146e-36
2.9756692e-45
6.1203716e-54
5.7598963e-62
-6.546216e-69
9.8355726e-76
1.4104402e-79
1.6697819e-85
2.3624455e-91
1.8628273e-97
1.7084118e-103
1.4097979e-107
2.8236434e-107
7.4271951e-108
2.7654272e-107
6.4432659e-108
5.8124273e-107
3.9314613e-107
2.3496999e-107
4.8421138e-108
1.8531385e-108
3.195208e-107
1.1064768e-107
1.9681788e-107
2.7548954e-107
3.367768e-107
3.4859926e-107
2.7634948e-107
4.7571197e-108
3.9052817e-108
8.1684162e-109
1.6099989e-108
1.1603696e-107
1.2120272e-108
6.3578367e-109
7.9982378e-108
2.1425849e-108
-1.4510113e-07
1.4049915e-17
-1.6251169e-27
5.4483503e-37
1.6154873e-45
2.7005119e-54
1.6981555e-62
-4.2176526e-69
4.6887818e-76
-7.066735e-81
-3.7240829e-87
-3.1008637e-93
-2.4762883e-99
-2.2265778e-105
-2.1529331e-111
2.1137851e-113
7.2821551e-114
1.7646022e-113
6.3829008e-114
4.1858158e-113
5.3423786e-113
1.738362e-113
3.6673716e-114
1.5314521e-114
2.3659541e-113
8.5505906e-114
1.3134887e-113
1.5247015e-113
4.2621896e-113
2.9817604e-113
2.2699067e-113
3.904601e-114
3.2779206e-114
3.9773905e-115
1.6545912e-114
1.2106612e-113
7.1803974e-115
3.5338753e-115
6.2202248e-114
1.9547023e-114
-1.2403506e-07
1.0225455e-17
-9.7283769e-28
2.4233136e-37
1.4389557e-45
2.0152731e-54
8.9303232e-63
1.6836129e-69
-1.3428476e-76
7.5492146e-83
1.040647e-88
6.9015032e-95
3.4620685e-101
2.1908146e-107
2.2865746e-113
5.9720867e-119
5.3184394e-120
1.3160469e-119
3.7480402e-120
4.377332e-119
4.9988094e-119
2.9832176e-119
2.1247138e-120
1.3070095e-120
2.1171813e-119
6.3143025e-120
7.1170391e-120
1.1536557e-119
2.8337844e-119
2.3265883e-119
1.2805744e-119
3.102187e-120
1.9629269e-120
3.3086388e-121
1.0359104e-120
7.5532641e-120
5.5275664e-121
2.770814e-121
3.8014716e-120
1.7666296e-120
-1.0639794e-07
7.4950628e-18
-5.9167354e-28
1.1226292e-37
-1.2399433e-45
-1.4939045e-54
-4.8501989e-63
-2.6103391e-70
1.7792134e-77
-5.4303787e-84
-3.2983822e-90
-2.88968e-96
-3.0482478e-102
-2.3633751e-108
-1.4806707e-114
-1.4958678e-120
4.3617701e-126
1.1679957e-125
2.1356442e-126
2.8349173e-125
3.0849054e-125
1.5452251e-125
1.268906e-126
1.7984407e-126
1.4771644e-125
4.1520733e-126
6.7298248e-126
8.8516971e-126
1.819197e-125
1.2492923e-125
7.1935773e-126
1.8899445e-126
1.7619187e-126
1.85028e-127
5.5310046e-127
5.1060983e-126
3.8669032e-127
1.6045766e-127
3.2316707e-126
1.8944945e-126
-9.1601437e-08
5.5324422e-18
-3.6507596e-28
5.3830059e-38
-1.1675337e-46
-1.2435336e-55
-3.0503865e-64
-7.4187221e-72
4.5922323e-79
-9.8188965e-86
-9.9323179e-92
-1.0092295e-97
-9.2599788e-104
-9.4720103e-110
-8.2217429e-116
-6.4535976e-122
-8.0172688e-128
9.948785e-132
1.7545715e-132
1.8163315e-131
2.5477078e-131
1.3607344e-131
1.4125177e-132
1.4246409e-132
1.6282263e-131
2.8523011e-132
5.1053164e-132
5.0305792e-132
1.7085133e-131
9.0655673e-132
4.222545e-132
1.3811552e-132
8.3217227e-133
1.5384178e-133
3.1052438e-133
3.7101717e-132
2.4527223e-133
1.245219e-133
2.1685108e-132
3.7444656e-132
-7.9076693e-08
4.107663e-18
-2.2807481e-28
2.6571756e-38
-2.7493416e-47
-2.6580128e-56
-5.0712746e-65
-7.1382238e-73
4.2050259e-80
-5.9224455e-87
-8.133873e-93
-1.0395101e-98
-1.1638389e-104
-7.8116682e-111
-6.7670893e-117
-6.4296863e-123
-6.8079174e-129
-7.6008366e-135
1.0719164e-138
1.1083494e-137
1.5490399e-137
1.8627759e-137
1.4302843e-138
7.245721e-139
1.4755117e-137
2.1725112e-138
4.4438668e-138
3.2035991e-138
1.2394131e-137
8.6996235e-138
2.8858476e-138
9.3553276e-139
5.3037168e-139
1.2794273e-139
2.063876e-139
2.2007001e-138
1.2579717e-139
1.1662876e-139
2.6805979e-138
3.5561316e-137
-6.8441384e-08
3.0664733e-18
-1.4408138e-28
1.3445494e-38
-8.2390517e-48
-7.4706571e-57
-1.1354063e-65
-1.0166539e-73
6.1809703e-81
-6.6930041e-88
-1.8563189e-93
-1.0016994e-99
-9.9896202e-106
-1.377201e-111
-1.0364408e-117
-6.4910053e-124
-4.6604289e-130
-3.5865412e-136
-3.5518083e-142
6.6604512e-144
1.304046e-143
1.8585617e-143
7.565088e-145
6.4120469e-145
1.243231e-143
1.9384974e-144
2.6954791e-144
2.7676183e-144
6.5241335e-144
7.0905318e-144
1.5363538e-144
4.7284275e-145
3.3647675e-145
7.5932485e-146
1.1297985e-145
1.53317e-144
8.468537e-146
8.087396e-146
1.5433186e-144
5.3427832e-141
-5.9362291e-08
2.3002437e-18
-9.1930826e-29
6.9524176e-39
-2.79442e-48
-2.4599422e-57
-3.0426092e-66
-1.8508016e-74
1.4111596e-81
-1.1455726e-88
1.1199131e-94
7.2495606e-101
4.7039491e-107
3.0082943e-113
2.2158026e-119
2.2427548e-125
1.2632449e-131
8.218863e-138
6.5133348e-144
1.3573973e-149
1.3823123e-149
1.3325373e-149
6.0229011e-151
4.9124001e-151
9.1662455e-150
1.3851366e-150
1.89079e-150
1.5195739e-150
5.9568643e-150
6.6880898e-150
8.7319251e-151
2.8382933e-151
2.2053057e-151
4.4779095e-152
6.734611e-152
8.7848863e-151
5.5859236e-152
5.4312655e-152
1.5414476e-150
-1.0305755e-146
-5.1582315e-08
1.7329431e-18
-5.9181145e-29
3.6638359e-39
-1.0270789e-48
-9.1762489e-58
-9.4117808e-67
-4.0635276e-75
6.0438139e-82
-4.0029768e-89
2.3173795e-95
2.2157335e-101
2.7937862e-107
3.4308667e-113
2.1546365e-119
3.3896677e-125
2.268765e-131
1.5579579e-137
1.4199565e-143
1.1462724e-149
1.6510847e-155
8.8610705e-156
5.4946772e-157
3.2740586e-157
8.6549461e-156
1.0756935e-156
1.3922553e-156
1.0528247e-156
4.6058103e-156
1.1169453e-155
5.1061172e-157
3.5518126e-157
3.6371134e-157
2.6327412e-158
3.9856464e-158
9.6387242e-157
3.0674712e-158
4.1433665e-158
1.7290616e-156
9.6491616e-153
-4.489217e-08
1.3105452e-18
-3.8403586e-29
1.9634757e-39
-4.0020826e-49
-3.8710666e-58
-3.3552335e-67
-1.0669041e-75
-2.6032843e-82
1.446914e-89
-3.8613626e-96
-3.155219e-102
-2.3077406e-108
-1.9983959e-114
-1.8262323e-120
-1.8789999e-126
-2.3654292e-132
-2.8928008e-138
-2.549882e-144
-1.7890616e-150
-1.9519746e-156
4.2079015e-162
4.9483703e-163
2.1631231e-163
1.1612483e-161
1.0843755e-162
1.346606e-162
7.1900875e-163
4.9922372e-162
8.3137544e-162
3.0288005e-163
3.4857297e-163
1.8563526e-163
1.9017227e-164
2.2552115e-164
7.3781605e-163
2.1623396e-164
5.7701722e-164
1.5943417e-161
-7.4626722e-159
-3.9116454e-08
9.9436996e-19
-2.5097388e-29
1.068024e-39
-1.6312079e-49
-1.8911813e-58
-1.4090358e-67
-3.4010529e-76
-1.652439e-83
7.7919001e-91
-1.6924583e-97
-3.1843322e-103
-1.7394671e-109
-1.8081751e-115
-1.5278009e-121
-1.1534085e-127
-1.2539735e-133
-9.7525573e-140
-7.0935749e-146
-4.7556451e-152
-3.8711539e-158
-2.6113825e-164
4.0756388e-169
1.7697468e-169
7.939154e-168
8.7577327e-169
1.220493e-168
6.1945623e-169
5.4393509e-168
1.053987e-167
1.9630483e-169
2.7391098e-169
1.2908416e-169
2.0583896e-170
2.0127376e-170
5.6056215e-169
2.1768685e-170
7.6737232e-170
-2.2512325e-166
3.6081843e-165
-3.4121319e-08
7.5674478e-19
-1.6507933e-29
5.8876776e-40
-6.8997193e-50
-1.1837097e-58
-7.7068414e-68
-1.4435361e-76
-3.3062605e-84
1.4517919e-91
-1.9689567e-98
2.8570584e-103
1.5180827e-109
1.7614449e-115
1.9958271e-121
1.4866135e-127
1.5857394e-133
3.1357841e-139
3.6259345e-145
3.1306999e-151
3.4818486e-157
3.1938693e-163
3.2899566e-169
9.3073703e-175
9.2567014e-174
8.6478717e-175
9.8428857e-175
3.744774e-175
5.011431e-174
1.0354293e-173
1.4913816e-175
2.0058649e-175
8.8402631e-176
1.0373698e-176
1.4510966e-176
4.0184253e-175
2.2387976e-176
6.6663698e-176
5.6666668e-172
-1.5839897e-171
-2.9791437e-08
5.7743028e-19
-1.0921693e-29
3.2851504e-40
-3.0098172e-50
-1.7697828e-58
-1.0237648e-67
-1.5205726e-76
-2.0264558e-84
8.3112738e-92
-8.6012662e-99
9.4245375e-105
7.1517359e-111
9.9768661e-117
7.9193307e-123
1.3128794e-128
1.0152864e-134
2.6185175e-140
2.9937541e-146
3.3675099e-152
2.7875067e-158
2.2448422e-164
3.3551389e-170
2.5363323e-176
2.39803e-179
6.2750212e-181
9.6320264e-181
4.0513282e-181
2.8630484e-180
6.6217677e-180
1.5455924e-181
2.1339346e-181
6.3225513e-182
8.7913389e-183
1.5322588e-182
2.7804814e-181
2.7458385e-182
1.4806601e-181
4.5095696e-177
6.6360713e-178
-2.6028554e-08
4.415873e-19
-7.2628244e-30
1.8528862e-40
-1.3477394e-50
3.3321878e-59
1.7429292e-68
2.0884542e-77
1.7765051e-85
-7.309152e-93
5.8776384e-100
-5.2437828e-106
-7.9722333e-112
-8.9374875e-118
-1.3192309e-123
-1.2725011e-129
-1.0116208e-135
-9.1319657e-142
-1.4222149e-147
-1.7346889e-153
-1.2456491e-159
-1.2035254e-165
-8.5853708e-172
-1.2739324e-177
-1.1435335e-183
8.6867644e-187
8.9577479e-187
3.3432819e-187
2.861897e-186
7.1289918e-186
2.0342191e-187
1.9611704e-187
6.7160121e-188
5.1710566e-189
1.2759759e-188
2.1955321e-187
1.9803209e-188
8.6388801e-188
-1.1401824e-182
-3.7816901e-184
-2.2756527e-08
3.3839431e-19
-4.8526383e-30
1.0553709e-40
-6.1742123e-51
5.2655095e-60
2.5356091e-69
2.49327e-78
1.4635269e-86
-6.923743e-94
4.6019654e-101
-2.4676153e-107
-1.721846e-113
-2.3985107e-119
-3.9815197e-125
-3.6383852e-131
-2.9076351e-137
-2.5973043e-143
-2.5316486e-149
-3.088641e-155
-2.5068611e-161
-2.4995902e-167
-2.4776909e-173
-1.8785479e-179
-1.4463038e-185
-1.268179e-191
1.0635053e-192
4.3014069e-193
2.3034741e-192
9.087409e-192
1.4547895e-193
1.8661918e-193
6.8107811e-194
3.9894909e-195
8.0874526e-195
2.804796e-193
2.5396082e-194
1.6642425e-193
8.7644197e-189
4.5886693e-190
-1.9904852e-08
2.5974509e-19
-3.2555769e-30
6.0642385e-41
-2.885922e-51
1.3286872e-60
6.0084198e-70
4.9180352e-79
2.0652956e-87
-1.2395186e-94
6.7882442e-102
-2.2236018e-108
-7.5690266e-113
-6.6446657e-119
-6.5084541e-125
-1.0365977e-130
-6.8995419e-137
-8.8664607e-143
-1.0891805e-148
-1.134877e-154
-2.0478934e-160
-1.7919986e-166
-2.3562484e-172
-3.2858502e-178
-4.5234756e-184
-5.8762539e-190
-6.7176765e-196
3.238646e-199
2.3580443e-198
6.5707928e-198
1.427781e-199
1.8466159e-199
6.4128743e-200
2.7094603e-201
4.6015499e-201
2.4224466e-199
7.284673e-200
2.2275469e-199
-1.7246723e-194
5.6542664e-196
-1.7417702e-08
1.9966651e-19
-2.192224e-30
3.5125642e-41
-1.3729396e-51
3.9896527e-61
1.7329895e-70
1.197565e-79
3.7411593e-88
-4.9462497e-95
2.3723532e-102
-6.7575133e-109
-8.9431335e-115
-2.8753036e-120
-6.2253211e-126
-9.1036374e-132
-8.436527e-138
-6.8246171e-144
-8.5633808e-150
-1.2643507e-155
-2.7842877e-161
-4.7457813e-167
-8.7254508e-173
-1.7144635e-178
-1.2550107e-184
-3.9905267e-190
-3.9219222e-196
-5.6434606e-202
2.1076326e-204
9.0444731e-204
1.3536104e-205
1.7149535e-205
5.004668e-206
2.0188125e-207
4.9978903e-207
2.7105707e-205
4.8983575e-206
4.8270488e-205
4.3162149e-200
2.0956386e-202
-1.524517e-08
1.5365964e-19
-1.4809023e-30
2.0491287e-41
-6.6353237e-52
1.320254e-61
5.6618035e-71
3.3484167e-80
7.9837207e-89
1.2796836e-95
-5.3115971e-103
8.2232793e-110
-2.0451348e-115
-2.3140907e-121
-2.2435088e-127
-1.8394833e-132
-2.1666584e-138
-3.5849628e-144
-8.1543826e-150
-1.1421085e-155
-1.2484186e-161
-3.5548113e-167
-5.8651105e-173
-7.9878776e-179
-7.8702796e-185
-1.0266702e-190
-1.8126392e-196
-1.3723504e-202
-1.3819952e-208
1.2909856e-209
1.390171e-211
1.7766316e-211
2.9307814e-212
2.3556264e-213
4.3144532e-213
4.9241492e-211
4.2228551e-212
9.500445e-211
-1.2015367e-205
4.0170681e-209
-1.3347066e-08
1.1836748e-19
-1.0032172e-30
1.2031392e-41
-3.252295e-52
4.6634067e-62
2.0432559e-71
1.0465887e-80
1.950211e-89
7.5326944e-97
-2.7893503e-104
3.5013126e-111
-8.8402869e-117
-1.6281887e-122
-2.6796924e-128
-9.4423685e-134
-1.0847392e-139
-2.0160744e-145
-2.7838443e-151
-1.7386011e-156
-2.9867807e-162
-6.2495161e-168
-6.5050859e-174
-1.5213311e-179
-2.5928143e-185
-4.3242321e-191
-3.5048023e-197
-3.9138283e-203
-8.1588156e-209
-6.6585357e-215
1.5391565e-217
1.5944503e-217
2.0181236e-218
1.6706611e-219
4.2304962e-219
6.0509192e-217
5.499375e-218
5.9367809e-216
-8.8600719e-212
7.2203189e-216
-1.168785e-08
9.1252479e-20
-6.8129469e-31
7.1055242e-42
-1.6144664e-52
1.7282348e-62
8.1012276e-72
3.6374836e-81
5.3872838e-90
1.0282991e-97
-3.5748017e-105
3.6405693e-112
-6.2541651e-118
-4.9248656e-123
4.3910101e-128
-1.4393076e-132
-3.2513662e-138
-7.1999501e-144
-7.9512239e-149
-2.1192244e-154
-3.1118763e-160
-3.8959041e-166
-6.6216068e-172
-5.0329934e-178
-1.6188638e-183
-2.3818552e-189
-5.6059998e-194
-1.4450164e-199
-1.3299611e-205
-1.5113948e-211
-3.1231523e-217
-3.3958595e-223
2.6000357e-224
1.2154726e-225
4.7908014e-225
6.2898522e-223
6.1013009e-224
2.0056058e-221
-8.2800542e-218
9.9989834e-223
-1.0237193e-08
7.0395945e-20
-4.6367648e-31
4.2185427e-42
-8.1069564e-53
6.6523488e-63
3.5821004e-72
1.4278084e-81
1.7094009e-90
1.9897966e-98
-6.8235903e-106
5.6748057e-113
-2.9383021e-119
-3.7836489e-125
-1.3221593e-130
-1.3144772e-136
6.3683841e-140
4.0502462e-145
8.4339116e-151
-1.5293991e-155
-4.7819371e-161
-7.0535689e-167
-1.8277895e-172
-3.1924147e-178
-1.5588291e-183
-6.5509304e-189
-4.935604e-194
-3.2812911e-200
-4.2505682e-206
-1.0272809e-211
-2.7175379e-217
-3.0993736e-223
-5.2165168e-229
1.6747159e-231
5.1359536e-231
1.782132e-228
1.2468432e-229
2.4460097e-226
-4.5359272e-224
1.2553863e-229
-8.969472e-09
5.4339695e-20
-3.1618328e-31
2.5166187e-42
-4.113667e-53
2.6410674e-63
1.8520461e-72
6.6278208e-82
6.5184723e-91
4.9846717e-99
-1.7238672e-106
1.1492927e-113
-7.3293457e-120
-1.6235506e-125
-4.4629849e-131
-1.1699152e-136
-1.678871e-142
2.9611276e-147
-1.1613742e-151
-5.5063812e-157
-1.014806e-162
-8.1862264e-168
-2.8797811e-173
2.8261832e-178
4.570097e-184
4.9109239e-190
-3.596566e-195
-9.4395347e-201
-1.1519326e-206
-2.9557671e-212
-3.7025054e-218
-5.9821871e-224
-7.6473258e-230
-1.0021479e-235
8.2199285e-236
5.3004282e-234
4.1230435e-235
1.0356341e-231
-1.3598062e-230
1.313188e-236
-7.862279e-09
4.197394e-20
-2.160037e-31
1.5080664e-42
-2.1076319e-53
1.076482e-63
1.3280528e-72
4.3227293e-82
3.5351512e-91
1.9101847e-99
-7.4600045e-107
4.2192511e-114
-1.2953212e-120
-1.3019272e-124
-9.5367122e-130
-1.6845987e-135
-3.3064457e-141
-3.1588188e-146
-1.1390044e-151
3.5656698e-157
9.3959307e-163
1.7289624e-167
-1.5133984e-171
-3.7808386e-177
-5.0065632e-183
-1.0104845e-188
-7.2849086e-195
1.0813577e-199
9.2029195e-206
1.9813474e-211
2.6361073e-217
3.2484235e-223
4.3001399e-229
8.9513436e-235
1.5096736e-240
1.894051e-238
-1.6855335e-240
5.9462471e-237
-4.1291102e-237
1.00175e-243
-6.8963098e-09
3.2447876e-20
-1.4783131e-31
9.0753505e-43
-1.0895752e-53
4.4889308e-64
-1.6770967e-71
-5.0267456e-81
-3.4629383e-90
-1.3700563e-98
6.9364976e-106
-3.4070102e-113
7.6920662e-120
-1.4483141e-124
1.4919705e-129
6.6790756e-135
-3.8493925e-139
2.1811524e-144
1.2258216e-149
1.6960129e-155
7.2454333e-160
4.6678697e-165
7.7298604e-171
1.2509346e-176
-5.62086e-182
-1.165877e-187
-8.1924698e-193
-3.0908101e-198
-5.9563527e-204
-1.1417255e-209
-4.5416638e-215
-1.1479901e-220
-9.7498332e-227
-2.9052868e-232
2.0594182e-237
7.7097105e-243
4.2873356e-246
1.3545039e-242
-1.0860213e-243
-8.4459602e-252
-6.0546029e-09
2.5109814e-20
-1.0136575e-31
5.4840144e-43
-5.6808641e-54
1.9101337e-64
-1.7013881e-73
-4.7624948e-83
-2.7942454e-92
-8.3475813e-101
7.418636e-108
-3.2612454e-115
5.9258115e-122
-7.8820453e-128
-4.6152714e-133
-1.8251414e-138
2.2813668e-143
8.7821451e-149
-4.905641e-154
1.371467e-159
-5.1211967e-165
-7.9866105e-172
4.8052888e-176
-9.3251457e-182
-1.1859173e-186
-1.8441001e-192
-1.2741242e-197
-1.4905783e-203
-9.6963514e-209
-1.3912861e-214
-4.6761866e-220
-6.0744567e-226
-1.5326504e-231
-2.7572536e-237
-5.3372886e-243
-1.7779601e-247
-1.9881494e-251
2.1221307e-248
-2.2865492e-250
-2.3039193e-257
-5.3224304e-09
1.9458605e-20
-6.9652395e-32
3.3277011e-43
-2.9863039e-54
8.2784261e-65
-3.2797749e-74
-8.7015979e-84
-4.3962863e-93
-1.0193759e-101
-5.230569e-108
2.060224e-115
-2.8445916e-122
4.1058493e-128
-1.2814289e-133
3.3299589e-139
-7.571995e-145
1.6957504e-150
-2.0080621e-155
3.1892952e-161
-1.9235569e-166
-9.8202153e-172
-1.581818e-176
2.2038899e-181
-1.3869571e-186
-4.5002793e-192
-1.3062529e-197
2.7567474e-203
6.7142903e-209
2.898684e-214
2.879596e-220
2.4018659e-226
2.5915078e-232
2.5552921e-237
1.1822377e-242
-2.8607198e-248
1.6077245e-253
1.6840226e-254
-4.428904e-257
-6.234175e-264
-4.686692e-09
1.5107702e-20
-4.7979441e-32
2.0280179e-43
-1.5825726e-54
3.6493176e-65
-8.5351473e-75
-2.1829066e-84
-9.5951993e-94
-1.7624665e-102
-8.9936646e-110
3.2614527e-117
-3.6689318e-124
4.2640689e-130
7.548281e-135
1.4159503e-139
-3.9827348e-145
6.700688e-151
-3.5462739e-156
3.8053477e-161
-1.1642974e-166
-3.4892041e-172
-2.4516792e-177
-1.6696616e-182
1.7236418e-187
8.0498834e-193
-3.6602034e-198
-1.3963431e-203
5.791276e-209
2.5983721e-214
6.5230535e-220
1.1219645e-225
2.4811034e-231
1.2211993e-236
-7.1837034e-242
1.3262965e-247
2.9262522e-252
2.2906427e-258
-6.5489522e-264
-1.1327472e-270
-4.1359038e-09
1.1759541e-20
-3.3150582e-32
1.2418013e-43
-8.4556577e-55
1.6348145e-65
-2.5429841e-75
-6.3939826e-85
-2.4697444e-94
-3.6545138e-103
-8.5025255e-111
2.9508183e-118
-2.915808e-125
2.2276396e-131
-7.5704822e-137
1.1210484e-142
2.1148463e-147
1.2436736e-152
-2.7599558e-158
6.8393853e-164
-6.1363968e-169
-5.4226344e-174
5.4338118e-179
-1.4462466e-184
4.8243183e-190
5.0301769e-195
1.0678724e-200
-1.4750351e-205
-6.2152239e-211
2.014225e-216
5.0323332e-222
-1.4873027e-226
-5.248456e-232
-7.4974128e-238
1.4221466e-243
-2.1208934e-249
3.9800802e-255
2.4374843e-261
3.7747296e-268
3.087609e-275
-3.6598748e-09
9.1839112e-21
-2.2990936e-32
7.6440862e-44
-4.5564446e-55
7.4385545e-66
-8.2285507e-76
-2.0835263e-85
-7.1406066e-95
-8.653094e-104
-1.1834081e-111
4.1176677e-119
-3.1289102e-126
1.2229839e-132
-2.0572414e-138
2.5713754e-144
-1.7599684e-149
3.4522812e-155
-4.2894921e-161
2.093718e-166
-8.7026497e-172
3.6098506e-177
-6.7038075e-183
-4.1343625e-188
-2.1576828e-193
3.3927984e-199
2.9057282e-204
5.7261016e-210
-6.8928477e-215
4.6784261e-218
-1.9895063e-223
-2.3370478e-229
9.61157e-234
-6.4704055e-238
7.8659865e-244
-1.6716328e-249
1.1682323e-254
7.3964571e-261
1.1000035e-267
8.3762912e-275
-3.2495572e-09
7.2032257e-21
-1.6019971e-32
4.7341479e-44
-2.477698e-55
3.4374671e-66
-2.8249364e-76
-7.4233505e-86
-2.2791839e-95
-2.2888512e-104
-2.0651426e-112
7.4119288e-120
-4.992438e-127
1.7189142e-133
-2.0565588e-139
3.0619551e-145
-7.303977e-151
9.0941229e-157
-2.4879836e-162
3.5795463e-168
-8.169653e-174
1.1356452e-179
-2.9462757e-185
5.581872e-191
-6.6920273e-196
1.6817193e-201
-9.409521e-207
7.2809687e-212
-1.2244174e-216
-2.7197384e-222
-7.6358261e-228
1.5020484e-233
5.3636974e-239
9.8825509e-244
-3.3206861e-249
4.0716917e-255
-1.9419848e-260
-6.3472179e-267
-6.9880903e-274
-4.6745225e-281
-2.8969596e-09
5.680381e-21
-1.1228231e-32
2.9529036e-44
-1.3607419e-55
1.6137505e-66
-1.0162487e-76
-2.8871801e-86
-8.0176299e-96
-6.7630639e-105
-4.2962508e-113
1.6814919e-120
-1.0219412e-127
2.6375997e-134
-2.7053446e-140
2.6025215e-145
-6.9011514e-151
1.8985539e-156
-6.7269343e-162
1.7689529e-167
-1.815772e-173
6.5301959e-179
-6.8369283e-185
8.9109736e-191
-1.7260206e-196
1.5284466e-202
4.2461771e-207
2.4264675e-212
1.4970756e-217
-9.37992e-223
6.5396457e-227
9.9714026e-232
-3.4361386e-237
6.5519023e-243
-7.3341614e-249
7.754057e-255
-9.1027837e-261
-3.1618933e-267
-3.7913554e-274
-2.9005252e-281
-2.5949888e-09
4.509532e-21
-7.927048e-33
1.8574396e-44
-7.5560569e-56
7.7011496e-67
-3.804976e-77
-1.2422825e-86
-3.1518266e-96
-2.2578111e-105
-1.0595234e-113
5.0288805e-121
-2.7165351e-128
5.3451268e-135
-5.4878523e-141
9.9701943e-147
-1.0496549e-152
4.0769839e-158
-6.985046e-164
8.0433665e-170
-1.0158029e-175
1.822589e-181
-1.9648683e-187
2.1497728e-193
1.2957898e-198
-1.8419941e-203
3.3738255e-209
-6.8002159e-215
2.7712958e-220
2.8384e-225
-8.5733579e-231
2.1154588e-236
-3.1284371e-242
3.9049346e-248
-4.3811382e-254
2.3043856e-260
-1.089008e-266
-6.1369062e-273
-8.4545329e-280
-6.4693617e-287
-2.3373572e-09
3.6091588e-21
-5.6463778e-33
1.1801077e-44
-4.2484117e-56
3.7397891e-67
-1.4769506e-77
-6.1407958e-87
-1.4376091e-96
-8.8416619e-106
-3.1655428e-114
2.2888149e-121
-1.1291416e-128
1.8678907e-135
-1.1782258e-141
1.0603554e-147
-9.0852717e-154
1.4604836e-159
-1.7798847e-165
1.7863193e-171
-2.6736014e-177
2.6376641e-183
-3.6532639e-189
3.6854079e-195
-6.2870314e-201
7.4701758e-207
-7.4258823e-213
8.4543287e-219
-1.2561123e-224
-3.7662837e-230
8.6855398e-236
1.3603863e-240
1.7569896e-244