/*--------------------------------*- C++ -*----------------------------------*\
  =========                 |
  \\      /  F ield         | OpenFOAM: The Open Source CFD Toolbox
   \\    /   O peration     | Website:  https://openfoam.org
    \\  /    A nd           | Version:  10
     \\/     M anipulation  |
\*---------------------------------------------------------------------------*/
FoamFile
{
    format      ascii;
    class       volVectorField;
    location    "0.19";
    object      U;
}
// * * * * * * * * * * * * * * * * * * * * * * * * * * * * * * * * * * * * * //

dimensions      [0 1 -1 0 0 0 0];

internalField   nonuniform List<vector> 
4000
(
(0 0.018637362 0.47773162)
(0 0.023509818 0.50886058)
(0 0.0081666851 0.50052522)
(0 0.0056144519 0.50033635)
(0 0.004254462 0.50025746)
(0 0.0032547842 0.50016898)
(0 0.002555945 0.50011968)
(0 0.0020544574 0.50009013)
(0 0.0016764817 0.5000698)
(0 0.0013821744 0.50005538)
(0 0.0011471623 0.50004498)
(0 0.00095510641 0.50003732)
(0 0.00079475185 0.50003159)
(0 0.00065812257 0.50002726)
(0 0.0005393897 0.50002398)
(0 0.00043417206 0.5000215)
(0 0.00033908176 0.50001965)
(0 0.00025141633 0.50001832)
(0 0.00016894247 0.50001743)
(0 8.9737743e-05 0.50001692)
(0 1.2068157e-05 0.50001678)
(0 -6.5718933e-05 0.50001697)
(0 -0.00014528642 0.50001754)
(0 -0.00022839941 0.50001849)
(0 -0.00031703606 0.5000199)
(0 -0.00041351813 0.50002184)
(0 -0.00052068274 0.50002446)
(0 -0.00064212175 0.50002792)
(0 -0.00078252952 0.50003251)
(0 -0.00094823284 0.50003863)
(0 -0.001148042 0.50004688)
(0 -0.0013946161 0.50005824)
(0 -0.0017067026 0.50007414)
(0 -0.0021146512 0.50009709)
(0 -0.0026743774 0.50013482)
(0 -0.0034679975 0.50020239)
(0 -0.0045602956 0.50027145)
(0 -0.0065845272 0.50043367)
(0 -0.017658974 0.50675399)
(0 -0.013589886 0.47975578)
(0 0.037432416 0.44796961)
(0 0.050955184 0.53232612)
(0 0.021968755 0.5080429)
(0 0.016135118 0.50357321)
(0 0.012415541 0.50242316)
(0 0.0095154345 0.50162297)
(0 0.0075201456 0.50115658)
(0 0.0060694798 0.50086588)
(0 0.0049642384 0.50066795)
(0 0.0040998879 0.50052895)
(0 0.0034074764 0.50042897)
(0 0.0028400549 0.50035546)
(0 0.0023652485 0.50030056)
(0 0.0019599719 0.50025916)
(0 0.0016072633 0.5002278)
(0 0.0012943261 0.50020414)
(0 0.0010112339 0.50018654)
(0 0.0007500472 0.50017386)
(0 0.00050419025 0.50016535)
(0 0.00026799194 0.50016052)
(0 3.6330154e-05 0.50015909)
(0 -0.00019567619 0.500161)
(0 -0.00043293813 0.50016635)
(0 -0.0006806676 0.50017546)
(0 -0.00094469675 0.50018888)
(0 -0.0012318566 0.50020744)
(0 -0.0015504729 0.50023239)
(0 -0.001911054 0.50026552)
(0 -0.0023272825 0.50030945)
(0 -0.0028175003 0.50036807)
(0 -0.0034070845 0.50044733)
(0 -0.0041324134 0.50055671)
(0 -0.0050465683 0.50071128)
(0 -0.0062294179 0.50093665)
(0 -0.0078298471 0.50129444)
(0 -0.010123658 0.50191062)
(0 -0.013105 0.50282526)
(0 -0.017424483 0.50608128)
(0 -0.038757382 0.52526806)
(0 -0.027893898 0.45021753)
(0 0.039887864 0.40982148)
(0 0.061427173 0.54930826)
(0 0.031982722 0.52188192)
(0 0.024354586 0.51008059)
(0 0.019192699 0.50658856)
(0 0.014976276 0.50452802)
(0 0.012005925 0.50327131)
(0 0.0097712308 0.50245827)
(0 0.0080359522 0.50190092)
(0 0.0066644411 0.50150852)
(0 0.0055564742 0.50122528)
(0 0.0046425153 0.50101651)
(0 0.0038738239 0.50086034)
(0 0.003215002 0.50074241)
(0 0.0026397129 0.50065301)
(0 0.0021279006 0.50058549)
(0 0.001663886 0.50053522)
(0 0.0012350461 0.500499)
(0 0.0008308713 0.50047468)
(0 0.0004422597 0.50046086)
(0 6.0967193e-05 0.50045678)
(0 -0.00032087066 0.50046222)
(0 -0.00071116558 0.50047752)
(0 -0.0011182998 0.50050355)
(0 -0.0015516215 0.50054187)
(0 -0.0020220285 0.50059486)
(0 -0.0025427223 0.50066601)
(0 -0.003130239 0.50076041)
(0 -0.0038059118 0.50088544)
(0 -0.0045979837 0.50105202)
(0 -0.0055448131 0.5012767)
(0 -0.0067003838 0.50158561)
(0 -0.0081419013 0.50202085)
(0 -0.0099734601 0.50265084)
(0 -0.012367875 0.50361526)
(0 -0.015713123 0.50519945)
(0 -0.019869889 0.50785431)
(0 -0.025183578 0.51641241)
(0 -0.0474145 0.53912768)
(0 -0.030852544 0.41488294)
(0 0.034791066 0.36173188)
(0 0.063837525 0.55456385)
(0 0.039378774 0.53747127)
(0 0.030081966 0.51849264)
(0 0.024111184 0.51197728)
(0 0.019278231 0.50849934)
(0 0.015734914 0.50626408)
(0 0.012953063 0.5047552)
(0 0.010742717 0.50370412)
(0 0.0089671791 0.50295577)
(0 0.0075134166 0.50241067)
(0 0.006301761 0.50200635)
(0 0.005274404 0.50170252)
(0 0.0043880854 0.50147226)
(0 0.0036099849 0.50129722)
(0 0.0029147154 0.50116471)
(0 0.002282167 0.5010659)
(0 0.0016959754 0.50099463)
(0 0.0011423962 0.50094671)
(0 0.00060944565 0.50091945)
(0 8.6219052e-05 0.50091139)
(0 -0.00043770843 0.5009221)
(0 -0.0009728223 0.50095223)
(0 -0.0015301968 0.50100348)
(0 -0.0021221154 0.50107884)
(0 -0.0027627884 0.50118289)
(0 -0.0034692589 0.50132235)
(0 -0.004262609 0.50150689)
(0 -0.0051696227 0.50175052)
(0 -0.006225084 0.50207371)
(0 -0.0074748656 0.50250694)
(0 -0.0089812043 0.5030972)
(0 -0.010831475 0.50391922)
(0 -0.013132248 0.50508936)
(0 -0.016019178 0.50680713)
(0 -0.019894852 0.50946792)
(0 -0.024727231 0.51427542)
(0 -0.031108973 0.52824718)
(0 -0.050315951 0.54407341)
(0 -0.028436909 0.37238616)
(0 0.027423673 0.31484624)
(0 0.062313034 0.55024192)
(0 0.044612201 0.55146752)
(0 0.033979978 0.52748808)
(0 0.02746205 0.51772237)
(0 0.022453226 0.51291963)
(0 0.018634984 0.50973111)
(0 0.01552651 0.5074922)
(0 0.013004823 0.50589939)
(0 0.01094109 0.50474626)
(0 0.0092239273 0.50389541)
(0 0.0077744765 0.50325837)
(0 0.0065327473 0.50277623)
(0 0.0054523098 0.50240878)
(0 0.0044971104 0.50212822)
(0 0.0036386783 0.50191511)
(0 0.0028540642 0.50175575)
(0 0.0021243233 0.50164057)
(0 0.0014333558 0.501563)
(0 0.0007669959 0.50151883)
(0 0.00011227321 0.50150573)
(0 -0.00054324863 0.50152305)
(0 -0.0012120748 0.50157179)
(0 -0.0019073577 0.50165463)
(0 -0.0026435813 0.50177625)
(0 -0.0034373315 0.50194382)
(0 -0.0043082414 0.50216772)
(0 -0.0052802022 0.50246285)
(0 -0.0063829711 0.50285047)
(0 -0.0076543299 0.50336121)
(0 -0.0091425489 0.50403972)
(0 -0.010910071 0.50495254)
(0 -0.013043739 0.50620247)
(0 -0.015647361 0.50794443)
(0 -0.018808793 0.51040478)
(0 -0.02288955 0.51405553)
(0 -0.028171115 0.52114617)
(0 -0.035700882 0.5393268)
(0 -0.05047169 0.54155886)
(0 -0.024084562 0.33056726)
(0 0.019837275 0.27520215)
(0 0.057987725 0.53974901)
(0 0.047360711 0.56256472)
(0 0.036474816 0.53660435)
(0 0.029633454 0.52350697)
(0 0.024673565 0.51740298)
(0 0.020771862 0.5133625)
(0 0.01750765 0.51044386)
(0 0.014812426 0.50832338)
(0 0.012565253 0.50676085)
(0 0.0106646 0.50559169)
(0 0.0090384705 0.5047068)
(0 0.0076292401 0.50403122)
(0 0.0063910423 0.50351275)
(0 0.0052874115 0.50311468)
(0 0.0042888724 0.50281096)
(0 0.0033711899 0.50258305)
(0 0.0025140207 0.50241787)
(0 0.001699834 0.50230641)
(0 0.00091303584 0.50224284)
(0 0.00013924201 0.50222392)
(0 -0.00063538764 0.50224877)
(0 -0.0014247656 0.50231874)
(0 -0.0022434535 0.50243756)
(0 -0.0031073544 0.50261168)
(0 -0.0040344628 0.50285089)
(0 -0.0050457614 0.50316932)
(0 -0.0061663236 0.50358696)
(0 -0.0074267067 0.50413202)
(0 -0.0088648467 0.50484441)
(0 -0.010528018 0.50578116)
(0 -0.012474521 0.50702454)
(0 -0.014784576 0.50869772)
(0 -0.017559982 0.51098234)
(0 -0.020854728 0.51412079)
(0 -0.024965079 0.51873129)
(0 -0.030500302 0.52823074)
(0 -0.038621365 0.54872491)
(0 -0.048502496 0.53399144)
(0 -0.019065094 0.29395263)
(0 0.013082514 0.24256092)
(0 0.051796088 0.52520477)
(0 0.047705395 0.57024877)
(0 0.037753309 0.5455245)
(0 0.030846927 0.52928833)
(0 0.02607022 0.52180118)
(0 0.022234909 0.51699716)
(0 0.018950953 0.51347245)
(0 0.016191158 0.5108637)
(0 0.013847706 0.50891099)
(0 0.011834099 0.50743101)
(0 0.010087745 0.50629873)
(0 0.008556014 0.5054264)
(0 0.0071961509 0.50475189)
(0 0.0059733489 0.50423082)
(0 0.0048587828 0.50383126)
(0 0.0038282574 0.50353025)
(0 0.0028610933 0.50331141)
(0 0.0019391953 0.50316338)
(0 0.0010462718 0.50307878)
(0 0.00016717124 0.50305352)
(0 -0.00071274173 0.50308644)
(0 -0.0016081746 0.50317927)
(0 -0.002534441 0.50333674)
(0 -0.0035081149 0.50356698)
(0 -0.0045477097 0.50388228)
(0 -0.005674473 0.50430023)
(0 -0.0069133279 0.50484548)
(0 -0.0082939889 0.50555227)
(0 -0.0098525358 0.5064684)
(0 -0.011633173 0.50766101)
(0 -0.013688157 0.50922498)
(0 -0.016087 0.51129825)
(0 -0.018925015 0.51408021)
(0 -0.022233589 0.51783971)
(0 -0.026253488 0.52346926)
(0 -0.031837413 0.53537607)
(0 -0.039748146 0.55589859)
(0 -0.04488642 0.52283512)
(0 -0.014088652 0.26266454)
(0 0.0077694091 0.21554899)
(0 0.044822618 0.50801648)
(0 0.046250414 0.57438174)
(0 0.038030429 0.55375058)
(0 0.031283424 0.53496001)
(0 0.02676413 0.52602962)
(0 0.023112764 0.52053738)
(0 0.019917243 0.51648683)
(0 0.017179005 0.5134399)
(0 0.014810821 0.5111286)
(0 0.012744255 0.5093572)
(0 0.01092725 0.50798843)
(0 0.0093138955 0.50692467)
(0 0.0078662149 0.50609602)
(0 0.0065524567 0.50545187)
(0 0.0053456562 0.50495538)
(0 0.0042226944 0.50457977)
(0 0.0031634319 0.50430579)
(0 0.0021499572 0.50411999)
(0 0.001165937 0.50401357)
(0 0.00019604681 0.50398164)
(0 -0.00077457737 0.50402284)
(0 -0.0017608692 0.50413921)
(0 -0.002778293 0.5043364)
(0 -0.0038434295 0.50462404)
(0 -0.0049745527 0.50501667)
(0 -0.006192291 0.50553488)
(0 -0.0075203932 0.50620728)
(0 -0.0089865531 0.5070732)
(0 -0.010623577 0.50818679)
(0 -0.012471055 0.5096233)
(0 -0.014574131 0.51148778)
(0 -0.01698901 0.51392912)
(0 -0.019797377 0.51715608)
(0 -0.023015217 0.5214817)
(0 -0.026864929 0.52818438)
(0 -0.032336811 0.54222118)
(0 -0.039389251 0.56050569)
(0 -0.040319313 0.50910187)
(0 -0.0097059004 0.23588258)
(0 0.0040041966 0.19356639)
(0 0.037895823 0.4894965)
(0 0.04368083 0.57524203)
(0 0.037557743 0.56084414)
(0 0.031148618 0.54036034)
(0 0.026908931 0.53001049)
(0 0.023509203 0.52390047)
(0 0.020475857 0.5194108)
(0 0.017822866 0.5159856)
(0 0.015486251 0.51335633)
(0 0.013415679 0.51132117)
(0 0.01156979 0.50973425)
(0 0.0099104139 0.50849093)
(0 0.0084053065 0.50751554)
(0 0.0070266291 0.50675272)
(0 0.0057501005 0.50616174)
(0 0.0045544286 0.50571276)
(0 0.0034206839 0.50538415)
(0 0.0023317417 0.5051607)
(0 0.0012717755 0.50503243)
(0 0.00022579996 0.50499376)
(0 -0.00082078304 0.50504311)
(0 -0.0018826373 0.50518284)
(0 -0.002974862 0.50541934)
(0 -0.0041134909 0.50576358)
(0 -0.0053159494 0.50623193)
(0 -0.0066015692 0.50684748)
(0 -0.0079921721 0.50764205)
(0 -0.0095126258 0.50865898)
(0 -0.011191541 0.50995735)
(0 -0.013062794 0.51161848)
(0 -0.015163916 0.51375503)
(0 -0.01753755 0.51652277)
(0 -0.020247872 0.52013277)
(0 -0.023302769 0.52496517)
(0 -0.026943988 0.53274188)
(0 -0.032185275 0.54839152)
(0 -0.037977767 0.56254996)
(0 -0.035404442 0.49381858)
(0 -0.0061981353 0.2132838)
(0 0.0015502823 0.17614584)
(0 0.031495372 0.47077471)
(0 0.040524821 0.57338923)
(0 0.03655111 0.56659732)
(0 0.030630172 0.5453772)
(0 0.026664982 0.53370332)
(0 0.023536822 0.52703048)
(0 0.020704681 0.52218605)
(0 0.018177898 0.51844833)
(0 0.015912987 0.51554765)
(0 0.013875513 0.51328184)
(0 0.012034031 0.51150027)
(0 0.010358231 0.51009391)
(0 0.0088218454 0.50898327)
(0 0.0074013322 0.50810961)
(0 0.0060755642 0.50742942)
(0 0.0048255547 0.50691052)
(0 0.0036340506 0.50652946)
(0 0.0024851608 0.50626965)
(0 0.0013639935 0.50612014)
(0 0.00025631332 0.50607481)
(0 -0.00085180764 0.50613193)
(0 -0.001974358 0.50629407)
(0 -0.0031256579 0.50656827)
(0 -0.0043207626 0.50696652)
(0 -0.0055757971 0.50750666)
(0 -0.0069083221 0.50821371)
(0 -0.0083377407 0.50912191)
(0 -0.0098856366 0.51027755)
(0 -0.011576032 0.51174319)
(0 -0.013436664 0.51360418)
(0 -0.015497615 0.515978)
(0 -0.017789518 0.51902321)
(0 -0.020359349 0.52295084)
(0 -0.023214358 0.5282376)
(0 -0.026634596 0.5370422)
(0 -0.031544072 0.55365992)
(0 -0.035884649 0.5623183)
(0 -0.030541335 0.47792658)
(0 -0.0035883372 0.19464845)
(0 7.5840864e-05 0.16253992)
(0 0.025865524 0.45261781)
(0 0.037150608 0.56943897)
(0 0.035181459 0.57098763)
(0 0.029868232 0.54996108)
(0 0.026165281 0.53711213)
(0 0.023297967 0.52991004)
(0 0.020680195 0.52478112)
(0 0.018301467 0.52079439)
(0 0.016133381 0.51766962)
(0 0.014154634 0.51520824)
(0 0.012342356 0.5132581)
(0 0.010673458 0.51170795)
(0 0.0091273103 0.51047611)
(0 0.0076846461 0.5095018)
(0 0.0063276433 0.50873965)
(0 0.0050398501 0.50815592)
(0 0.0038059637 0.50772584)
(0 0.002611622 0.50743183)
(0 0.0014431704 0.50726222)
(0 0.00028742867 0.50721048)
(0 -0.0008685558 0.50727475)
(0 -0.0020377898 0.50745779)
(0 -0.0032335079 0.50776709)
(0 -0.004469482 0.50821543)
(0 -0.0057602383 0.50882171)
(0 -0.0071212895 0.50961233)
(0 -0.0085693801 0.51062317)
(0 -0.010122669 0.51190247)
(0 -0.011800659 0.51351497)
(0 -0.013625156 0.51554831)
(0 -0.015619394 0.51812224)
(0 -0.017804018 0.52139498)
(0 -0.020211442 0.52558099)
(0 -0.022855232 0.5312848)
(0 -0.026052822 0.54103278)
(0 -0.030543772 0.55793563)
(0 -0.03340317 0.5602061)
(0 -0.025981745 0.46211493)
(0 -0.0017622064 0.17951679)
(0 -0.00071892245 0.15192527)
(0 0.021102438 0.43545768)
(0 0.033808518 0.56394031)
(0 0.033591816 0.57408798)
(0 0.02896344 0.55409132)
(0 0.025509352 0.54026113)
(0 0.022876242 0.53254962)
(0 0.020469328 0.52718804)
(0 0.018246556 0.5230077)
(0 0.016188496 0.51970265)
(0 0.014284406 0.51707958)
(0 0.012518511 0.51498707)
(0 0.0108739 0.51331323)
(0 0.0093349235 0.51197545)
(0 0.0078862806 0.51091193)
(0 0.0065133547 0.51007628)
(0 0.0052022528 0.50943384)
(0 0.0039397293 0.50895903)
(0 0.0027131084 0.50863358)
(0 0.0015101589 0.50844536)
(0 0.00031895618 0.50838755)
(0 -0.0008722688 0.5084582)
(0 -0.002075332 0.50866019)
(0 -0.0033021818 0.50900136)
(0 -0.0045651196 0.50949497)
(0 -0.0058769162 0.51016064)
(0 -0.007250931 0.51102562)
(0 -0.0087012218 0.51212679)
(0 -0.010242623 0.51351345)
(0 -0.011890472 0.51525145)
(0 -0.013661236 0.51742943)
(0 -0.015572091 0.52016755)
(0 -0.01763552 0.52362174)
(0 -0.019873031 0.52801767)
(0 -0.022310737 0.53411285)
(0 -0.025289564 0.54468265)
(0 -0.029299511 0.56120941)
(0 -0.030764847 0.55660874)
(0 -0.021879204 0.44682199)
(0 -0.00056141442 0.16730169)
(0 -0.0010710948 0.14360461)
(0 0.017196958 0.41950859)
(0 0.030654135 0.55735264)
(0 0.031900074 0.57601963)
(0 0.027989833 0.55776027)
(0 0.024770695 0.54317615)
(0 0.022338067 0.5349719)
(0 0.020127691 0.52941267)
(0 0.018058911 0.52508423)
(0 0.016115331 0.52163731)
(0 0.014294312 0.51888331)
(0 0.012585684 0.51667311)
(0 0.010977568 0.51489514)
(0 0.0094585087 0.51346672)
(0 0.0080167067 0.5123258)
(0 0.0066404855 0.51142566)
(0 0.0053183863 0.51073117)
(0 0.0040391983 0.51021636)
(0 0.0027919742 0.5098626)
(0 0.0015659894 0.50965748)
(0 0.00035068333 0.509594)
(0 -0.00086441158 0.50967017)
(0 -0.0020898011 0.50988893)
(0 -0.0033360408 0.51025831)
(0 -0.0046138794 0.51079187)
(0 -0.0059342917 0.5115096)
(0 -0.0073085119 0.51243919)
(0 -0.0087480358 0.51361796)
(0 -0.010264629 0.5150956)
(0 -0.011869956 0.51693828)
(0 -0.013575915 0.51923473)
(0 -0.015394528 0.52210415)
(0 -0.017331803 0.5256995)
(0 -0.019402377 0.53026785)
(0 -0.021649774 0.53673343)
(0 -0.024418003 0.54797171)
(0 -0.02791296 0.56352528)
(0 -0.028140216 0.55188813)
(0 -0.018307838 0.43231255)
(0 0.00017245294 0.15745718)
(0 -0.0011542351 0.13702658)
(0 0.014071587 0.40485096)
(0 0.027767489 0.55005042)
(0 0.030194253 0.57693015)
(0 0.026999787 0.56097442)
(0 0.024002259 0.54588114)
(0 0.021735284 0.53720386)
(0 0.019700442 0.53146813)
(0 0.017776839 0.52702721)
(0 0.015945964 0.523471)
(0 0.0142108 0.52061303)
(0 0.012565349 0.51830736)
(0 0.011001652 0.51644339)
(0 0.0095116362 0.51493891)
(0 0.00808647 0.51373215)
(0 0.006717059 0.51277648)
(0 0.0053941614 0.51203674)
(0 0.0041084856 0.51148684)
(0 0.002850767 0.51110805)
(0 0.0016117893 0.51088783)
(0 0.00038238425 0.51081911)
(0 -0.00084657187 0.51089988)
(0 -0.0020842327 0.51113311)
(0 -0.0033397339 0.51152688)
(0 -0.0046222734 0.51209489)
(0 -0.0059410791 0.51285723)
(0 -0.0073053818 0.51384169)
(0 -0.0087243394 0.5150856)
(0 -0.010207 0.51663858)
(0 -0.011761909 0.51856653)
(0 -0.013397226 0.52095765)
(0 -0.015120813 0.52392928)
(0 -0.016933858 0.52763194)
(0 -0.018848015 0.53234517)
(0 -0.020926846 0.53916062)
(0 -0.023495296 0.55089353)
(0 -0.026466554 0.56496596)
(0 -0.025640487 0.54636226)
(0 -0.015279261 0.41873473)
(0 0.00057750919 0.14952056)
(0 -0.0010866732 0.13175149)
(0 0.01161567 0.3914762)
(0 0.025176397 0.54232746)
(0 0.028533136 0.5769739)
(0 0.02602666 0.56375346)
(0 0.023239358 0.54839895)
(0 0.021106372 0.53927391)
(0 0.019222992 0.53337178)
(0 0.017431531 0.52884457)
(0 0.015707419 0.5252058)
(0 0.014056838 0.52226676)
(0 0.012476683 0.519885)
(0 0.010961907 0.51795127)
(0 0.00950705 0.5163841)
(0 0.0081056923 0.51512231)
(0 0.006750926 0.51411967)
(0 0.005435457 0.51334126)
(0 0.0041517384 0.51276112)
(0 0.0028920806 0.51236056)
(0 0.0016487134 0.51212706)
(0 0.00041382876 0.51205355)
(0 -0.00082037333 0.512138)
(0 -0.0020617143 0.51238337)
(0 -0.0033179458 0.51279776)
(0 -0.0045967803 0.51339479)
(0 -0.0059058124 0.51419449)
(0 -0.0072524534 0.5152245)
(0 -0.0086438054 0.51652188)
(0 -0.0100866 0.51813578)
(0 -0.01158684 0.52013154)
(0 -0.01314976 0.52259638)
(0 -0.014780053 0.52564529)
(0 -0.016475678 0.52942817)
(0 -0.018248606 0.53426775)
(0 -0.020182532 0.541411)
(0 -0.022562947 0.55345579)
(0 -0.02502132 0.56563609)
(0 -0.023328307 0.54029716)
(0 -0.012763825 0.40615051)
(0 0.00076285323 0.14309763)
(0 -0.00094485027 0.12743377)
(0 0.0097104327 0.37931839)
(0 0.022877384 0.53440434)
(0 0.026951886 0.57629607)
(0 0.025089155 0.56612467)
(0 0.022503181 0.55075022)
(0 0.020477954 0.54120971)
(0 0.018721752 0.53514324)
(0 0.017047442 0.53054732)
(0 0.015421729 0.526847)
(0 0.013851763 0.52384577)
(0 0.012336285 0.52140432)
(0 0.010872315 0.5194149)
(0 0.0094563103 0.51779691)
(0 0.0080837352 0.51648991)
(0 0.0067494714 0.5154482)
(0 0.0054478829 0.51463729)
(0 0.0041729594 0.51403148)
(0 0.0029184384 0.51361226)
(0 0.001677891 0.51336723)
(0 0.00044479087 0.51328934)
(0 -0.00078740479 0.51337659)
(0 -0.0020252519 0.5136319)
(0 -0.0032751998 0.51406326)
(0 -0.0045435869 0.51468418)
(0 -0.0058365301 0.51551447)
(0 -0.0071598402 0.51658142)
(0 -0.0085188726 0.51792164)
(0 -0.0099184571 0.51958366)
(0 -0.011362603 0.52163201)
(0 -0.012854364 0.52415272)
(0 -0.014396156 0.52725836)
(0 -0.015984174 0.53110106)
(0 -0.017633221 0.53605596)
(0 -0.019444948 0.54350209)
(0 -0.021648952 0.55567596)
(0 -0.023619228 0.5656459)
(0 -0.0212317 0.53390454)
(0 -0.010709004 0.39455956)
(0 0.00080879779 0.13785512)
(0 -0.00077625749 0.12381241)
(0 0.0082432192 0.36828071)
(0 0.020850158 0.52644066)
(0 0.025468368 0.57502463)
(0 0.024196025 0.56811766)
(0 0.02180483 0.55295193)
(0 0.019867139 0.54303589)
(0 0.018215452 0.53680222)
(0 0.016642991 0.5321479)
(0 0.01510623 0.52840186)
(0 0.013611341 0.5253535)
(0 0.012158102 0.52286584)
(0 0.010744924 0.52083262)
(0 0.0093695945 0.51917407)
(0 0.0080289943 0.51783048)
(0 0.006719423 0.51675679)
(0 0.0054366161 0.51591897)
(0 0.0041758802 0.5152917)
(0 0.0029322104 0.51485671)
(0 0.001700387 0.51460176)
(0 0.00047505645 0.5145199)
(0 -0.00074916578 0.51460912)
(0 -0.0019776693 0.51487228)
(0 -0.0032157149 0.51531726)
(0 -0.0044684053 0.51595736)
(0 -0.0057405594 0.51681207)
(0 -0.0070366209 0.51790826)
(0 -0.008360506 0.51928197)
(0 -0.0097155387 0.52098102)
(0 -0.011104232 0.52306909)
(0 -0.012528087 0.52563095)
(0 -0.013988009 0.52877708)
(0 -0.015479724 0.53266526)
(0 -0.01702257 0.53773002)
(0 -0.01873227 0.54545031)
(0 -0.020770814 0.55757653)
(0 -0.022286797 0.56510046)
(0 -0.019355736 0.52734658)
(0 -0.0090520188 0.38392156)
(0 0.00077184894 0.13352074)
(0 -0.00060888259 0.12069722)
(0 0.0071148388 0.35825443)
(0 0.019066681 0.51854875)
(0 0.024088419 0.5732687)
(0 0.023349687 0.56976186)
(0 0.021148713 0.55501695)
(0 0.019283965 0.54477286)
(0 0.017716752 0.53836702)
(0 0.01623157 0.53365888)
(0 0.014774144 0.52987846)
(0 0.013348063 0.52679466)
(0 0.011953534 0.52427161)
(0 0.010589841 0.52220437)
(0 0.0092556282 0.52051389)
(0 0.0079488001 0.51914114)
(0 0.0066667449 0.51804163)
(0 0.005406303 0.51718185)
(0 0.0041638819 0.51653688)
(0 0.002935559 0.51608873)
(0 0.0017171775 0.51582534)
(0 0.00050442989 0.51573986)
(0 -0.00070702856 0.51583028)
(0 -0.0019215407 0.51609943)
(0 -0.0031433099 0.51655501)
(0 -0.0043763571 0.51721008)
(0 -0.0056243893 0.51808377)
(0 -0.0068907142 0.51920249)
(0 -0.0081780969 0.52060167)
(0 -0.0094887115 0.52232843)
(0 -0.010824002 0.52444563)
(0 -0.012184432 0.52703687)
(0 -0.013570016 0.53021108)
(0 -0.014977122 0.5341356)
(0 -0.016430601 0.53930835)
(0 -0.018055217 0.54726998)
(0 -0.019938193 0.55918201)
(0 -0.021038445 0.56409473)
(0 -0.017691134 0.52074419)
(0 -0.0077281503 0.37417383)
(0 0.00069042114 0.12987926)
(0 -0.00045764787 0.117953)
(0 0.0062427077 0.34913021)
(0 0.017496796 0.5108053)
(0 0.022810116 0.57111978)
(0 0.022548733 0.57108531)
(0 0.020534947 0.55695468)
(0 0.018733422 0.5464367)
(0 0.017233721 0.53985375)
(0 0.015822573 0.53509211)
(0 0.014435269 0.53128492)
(0 0.013071578 0.52817452)
(0 0.011731681 0.52562455)
(0 0.010415347 0.52353117)
(0 0.0091217187 0.52181588)
(0 0.0078494033 0.52042018)
(0 0.0065965989 0.51930013)
(0 0.0053610134 0.51842269)
(0 0.0041399542 0.5177633)
(0 0.0029304094 0.51730427)
(0 0.0017291363 0.51703374)
(0 0.00053273937 0.51694496)
(0 -0.00066221414 0.51703594)
(0 -0.0018591495 0.51730942)
(0 -0.0030613513 0.51777295)
(0 -0.0042719148 0.51843932)
(0 -0.0054936182 0.5193273)
(0 -0.0067288485 0.52046283)
(0 -0.0079794788 0.52188077)
(0 -0.0092468394 0.52362761)
(0 -0.010531658 0.52576547)
(0 -0.011833766 0.52837691)
(0 -0.013152778 0.53157022)
(0 -0.014486608 0.53552609)
(0 -0.015865962 0.54080691)
(0 -0.017419042 0.54897318)
(0 -0.019155036 0.56051717)
(0 -0.019879573 0.56271165)
(0 -0.016220585 0.51418516)
(0 -0.0066761817 0.36524311)
(0 0.00058969564 0.12676425)
(0 -0.00032901985 0.11548557)
(0 0.0055610873 0.34080434)
(0 0.016111537 0.50326061)
(0 0.02162714 0.56865376)
(0 0.021789727 0.57211417)
(0 0.01996107 0.55877173)
(0 0.018217017 0.54803955)
(0 0.016771039 0.54127611)
(0 0.015422303 0.53645834)
(0 0.014096643 0.53262896)
(0 0.012789151 0.52949843)
(0 0.011499643 0.52692805)
(0 0.010228086 0.52481473)
(0 0.0089738576 0.52308039)
(0 0.007736023 0.52166687)
(0 0.0065133587 0.52053069)
(0 0.0053042366 0.5196392)
(0 0.0041066838 0.5189682)
(0 0.0029184393 0.51850028)
(0 0.0017370305 0.51822374)
(0 0.00055984042 0.51813194)
(0 -0.00061578073 0.51822291)
(0 -0.0017924709 0.5184993)
(0 -0.002972734 0.51896851)
(0 -0.0041588902 0.51964306)
(0 -0.0053529597 0.52054139)
(0 -0.0065566034 0.52168898)
(0 -0.007771025 0.52312021)
(0 -0.0089969655 0.52488101)
(0 -0.010234716 0.52703291)
(0 -0.011483786 0.52965766)
(0 -0.012743764 0.53286392)
(0 -0.014014789 0.53684937)
(0 -0.015333263 0.542239)
(0 -0.016825131 0.55056982)
(0 -0.018421372 0.56160585)
(0 -0.01880941 0.56102195)
(0 -0.014923214 0.50773125)
(0 -0.0058415112 0.35705302)
(0 0.0004854213 0.12404914)
(0 -0.00022433108 0.11323057)
(0 0.0050194923 0.33318204)
(0 0.014884782 0.49594579)
(0 0.020531199 0.56593328)
(0 0.021068464 0.57287244)
(0 0.019423278 0.56047254)
(0 0.017733999 0.54959016)
(0 0.016330974 0.54264541)
(0 0.015034728 0.537767)
(0 0.013763134 0.53391765)
(0 0.012506108 0.53077156)
(0 0.011262835 0.52818563)
(0 0.010033273 0.52605718)
(0 0.0088168607 0.52430832)
(0 0.0076129313 0.52288114)
(0 0.0064206577 0.52173244)
(0 0.0052389059 0.52082993)
(0 0.004066266 0.52014969)
(0 0.0029010838 0.51967454)
(0 0.001741523 0.51939296)
(0 0.00058561811 0.51929839)
(0 -0.00056862186 0.51938887)
(0 -0.0017231731 0.51966699)
(0 -0.0028798896 0.52013997)
(0 -0.0040404568 0.52082011)
(0 -0.0052062904 0.52172553)
(0 -0.0063784943 0.52288135)
(0 -0.0075577898 0.52432149)
(0 -0.0087445322 0.52609148)
(0 -0.0099387865 0.52825242)
(0 -0.011139973 0.53088548)
(0 -0.012347928 0.53410089)
(0 -0.013565484 0.53811648)
(0 -0.014834175 0.54361527)
(0 -0.016272303 0.55206774)
(0 -0.017734786 0.56247021)
(0 -0.017823372 0.55908491)
(0 -0.013777479 0.50142431)
(0 -0.0051774683 0.34952875)
(0 0.00038680872 0.12163922)
(0 -0.00014205272 0.11114466)
(0 0.0045802627 0.32617889)
(0 0.013793822 0.4888784)
(0 0.019513573 0.5630101)
(0 0.020380752 0.57338202)
(0 0.01891728 0.56206)
(0 0.017282301 0.55109443)
(0 0.015914156 0.54397076)
(0 0.014662108 0.53902621)
(0 0.013437949 0.5351573)
(0 0.01222623 0.53199869)
(0 0.011025282 0.52940078)
(0 0.0098349182 0.52726081)
(0 0.0086545216 0.52550097)
(0 0.0074835595 0.5240634)
(0 0.0063214591 0.52290511)
(0 0.0051674425 0.52199404)
(0 0.0040205305 0.52130651)
(0 0.0028795497 0.52082553)
(0 0.0017431787 0.52053973)
(0 0.00060998762 0.52044261)
(0 -0.00052147189 0.52053222)
(0 -0.0016526309 0.52081107)
(0 -0.0027848127 0.52128627)
(0 -0.0039191945 0.5219699)
(0 -0.0050567218 0.52287981)
(0 -0.0061980845 0.52404079)
(0 -0.0073436731 0.52548646)
(0 -0.008493614 0.52726203)
(0 -0.0096479001 0.52942834)
(0 -0.010806026 0.53206627)
(0 -0.011968278 0.5352889)
(0 -0.013140443 0.53933678)
(0 -0.014368347 0.54494394)
(0 -0.015757814 0.55347304)
(0 -0.017091517 0.56313035)
(0 -0.016914813 0.55694971)
(0 -0.012762893 0.49529141)
(0 -0.004645505 0.34259991)
(0 0.00029869089 0.11946482)
(0 -7.9274349e-05 0.10919889)
(0 0.0042159774 0.31972102)
(0 0.012819346 0.48206662)
(0 0.018565993 0.55992714)
(0 0.019722813 0.57366295)
(0 0.018438821 0.56353595)
(0 0.016859186 0.55255597)
(0 0.015520159 0.54525924)
(0 0.014305498 0.54024283)
(0 0.01312306 0.53635342)
(0 0.011952093 0.53318416)
(0 0.010789896 0.53057677)
(0 0.0096360317 0.52842797)
(0 0.0084897676 0.52665982)
(0 0.0073506104 0.52521442)
(0 0.0062181345 0.52404886)
(0 0.0050918095 0.52313121)
(0 0.0039709771 0.52243797)
(0 0.0028548362 0.52195231)
(0 0.0017424742 0.52166295)
(0 0.00063289305 0.52156347)
(0 -0.00047491754 0.52165191)
(0 -0.0015819484 0.52193073)
(0 -0.0026890991 0.52240691)
(0 -0.0037971488 0.52309236)
(0 -0.0049066873 0.5240047)
(0 -0.006018108 0.52516849)
(0 -0.0071315901 0.52661713)
(0 -0.0082471486 0.52839564)
(0 -0.0093648083 0.53056472)
(0 -0.010484252 0.53320534)
(0 -0.011606361 0.53643468)
(0 -0.012739966 0.5405179)
(0 -0.013934131 0.54623104)
(0 -0.0152781 0.55479027)
(0 -0.016487229 0.56360435)
(0 -0.016076228 0.55465697)
(0 -0.011860924 0.48934884)
(0 -0.0042146811 0.33620217)
(0 0.0002230532 0.11747543)
(0 -3.2627974e-05 0.1073737)
(0 0.0039070624 0.31374451)
(0 0.011945133 0.47551223)
(0 0.01768106 0.55672028)
(0 0.019091449 0.57373372)
(0 0.017983985 0.56490169)
(0 0.016461689 0.55397671)
(0 0.015147925 0.54651627)
(0 0.013965136 0.54142254)
(0 0.012819542 0.53751076)
(0 0.011685364 0.53433179)
(0 0.010558706 0.53171664)
(0 0.0094388134 0.52956092)
(0 0.0083248068 0.52778646)
(0 0.0072161701 0.52633518)
(0 0.0061125473 0.52516413)
(0 0.0050135708 0.52424147)
(0 0.0039188144 0.52354379)
(0 0.0028277585 0.52305437)
(0 0.0017398084 0.52276201)
(0 0.00065430615 0.52266034)
(0 -0.00042941139 0.52274739)
(0 -0.0015119874 0.52302558)
(0 -0.0025939907 0.52350177)
(0 -0.0036758968 0.52418774)
(0 -0.0047580347 0.52510096)
(0 -0.0058405956 0.52626581)
(0 -0.0069236386 0.52771553)
(0 -0.0080071521 0.52949512)
(0 -0.0090912587 0.53166527)
(0 -0.010175903 0.53430736)
(0 -0.011262668 0.53754397)
(0 -0.012363367 0.54166599)
(0 -0.013529122 0.54748083)
(0 -0.014829277 0.55602285)
(0 -0.015917523 0.56390837)
(0 -0.015300063 0.55224023)
(0 -0.011055339 0.48360519)
(0 -0.0038607544 0.33027779)
(0 0.00016010136 0.11563485)
(0 1.1704263e-06 0.10565556)
(0 0.0036397501 0.30819446)
(0 0.011157633 0.46921277)
(0 0.016852374 0.55341969)
(0 0.018484059 0.5736115)
(0 0.017549327 0.56615833)
(0 0.016086872 0.55535731)
(0 0.014796046 0.54774584)
(0 0.013640721 0.54257003)
(0 0.012527841 0.53863337)
(0 0.011427031 0.53544494)
(0 0.010333064 0.53282313)
(0 0.0092448196 0.53066182)
(0 0.0081612619 0.52888248)
(0 0.0070818129 0.52742678)
(0 0.0060061315 0.52625161)
(0 0.0049339493 0.52532514)
(0 0.0038650005 0.52462401)
(0 0.002798973 0.52413157)
(0 0.0017355128 0.52383667)
(0 0.00067422393 0.52373296)
(0 -0.00038528794 0.52381847)
(0 -0.0014433979 0.52409556)
(0 -0.0025004234 0.52457104)
(0 -0.0035566147 0.52525658)
(0 -0.0046121174 0.52616952)
(0 -0.0056669944 0.52733415)
(0 -0.0067212525 0.52878366)
(0 -0.0077749112 0.53056309)
(0 -0.0088282289 0.53273328)
(0 -0.0098814585 0.53537636)
(0 -0.010936956 0.53862156)
(0 -0.012009344 0.54278581)
(0 -0.013150547 0.54869606)
(0 -0.014407483 0.55717335)
(0 -0.015378249 0.56405693)
(0 -0.014579201 0.54972723)
(0 -0.010332222 0.47806366)
(0 -0.0035651105 0.32477575)
(0 0.00010900492 0.11391731)
(0 2.5042707e-05 0.1040346)
(0 0.0034044402 0.30302383)
(0 0.010445531 0.46316305)
(0 0.016074506 0.5500509)
(0 0.017898581 0.57331233)
(0 0.017131916 0.56730703)
(0 0.015731983 0.55669757)
(0 0.014462952 0.54895083)
(0 0.013331616 0.54368912)
(0 0.012247966 0.5397247)
(0 0.011177587 0.53652654)
(0 0.010113806 0.53389868)
(0 0.0090551024 0.53173266)
(0 0.0080002863 0.52994945)
(0 0.0069486952 0.52849036)
(0 0.0058999662 0.5273121)
(0 0.0048538821 0.52638274)
(0 0.003810282 0.52567894)
(0 0.0027690009 0.52518405)
(0 0.0017298619 0.52488697)
(0 0.00069266546 0.52478135)
(0 -0.00034278027 0.52486521)
(0 -0.0013766493 0.5251409)
(0 -0.0024090736 0.52561514)
(0 -0.0034401429 0.52629955)
(0 -0.0044698809 0.52721141)
(0 -0.0054982785 0.52837495)
(0 -0.0065253384 0.5298234)
(0 -0.0075511491 0.53160192)
(0 -0.0085761222 0.53377161)
(0 -0.0096008441 0.53641579)
(0 -0.010628496 0.53967136)
(0 -0.01167624 0.54388097)
(0 -0.012795528 0.54987837)
(0 -0.014009081 0.55824376)
(0 -0.014865674 0.56406313)
(0 -0.013907218 0.54714108)
(0 -0.0096798067 0.47272378)
(0 -0.0033136957 0.31965133)
(0 6.8403904e-05 0.11230448)
(0 4.1440464e-05 0.10250318)
(0 0.0031944448 0.29819239)
(0 0.0097993368 0.45735611)
(0 0.015342867 0.54663565)
(0 0.017333394 0.5728513)
(0 0.016729312 0.56834918)
(0 0.015394519 0.55799676)
(0 0.014147039 0.55013318)
(0 0.013036987 0.54478292)
(0 0.011979635 0.54078767)
(0 0.010937168 0.53757911)
(0 0.0099013823 0.53494548)