/*--------------------------------*- C++ -*----------------------------------*\
  =========                 |
  \\      /  F ield         | OpenFOAM: The Open Source CFD Toolbox
   \\    /   O peration     | Website:  https://openfoam.org
    \\  /    A nd           | Version:  10
     \\/     M anipulation  |
\*---------------------------------------------------------------------------*/
FoamFile
{
    format      ascii;
    class       volVectorField;
    location    "0.19";
    object      U_0;
}
// * * * * * * * * * * * * * * * * * * * * * * * * * * * * * * * * * * * * * //

dimensions      [0 1 -1 0 0 0 0];

internalField   nonuniform List<vector> 
4000
(
(0 0.018637356 0.47773162)
(0 0.023509807 0.50886058)
(0 0.008166675 0.50052522)
(0 0.0056144419 0.50033635)
(0 0.0042544513 0.50025746)
(0 0.0032547735 0.50016898)
(0 0.0025559346 0.50011968)
(0 0.0020544477 0.50009013)
(0 0.001676473 0.5000698)
(0 0.0013821668 0.50005538)
(0 0.0011471561 0.50004498)
(0 0.00095510176 0.50003732)
(0 0.00079474899 0.50003159)
(0 0.00065812165 0.50002726)
(0 0.00053939085 0.50002398)
(0 0.00043417539 0.5000215)
(0 0.00033908737 0.50001965)
(0 0.00025142425 0.50001832)
(0 0.00016895276 0.50001743)
(0 8.975042e-05 0.50001692)
(0 1.208322e-05 0.50001677)
(0 -6.5701518e-05 0.50001697)
(0 -0.00014526673 0.50001754)
(0 -0.00022837754 0.50001849)
(0 -0.00031701214 0.5000199)
(0 -0.00041349231 0.50002184)
(0 -0.0005206552 0.50002446)
(0 -0.00064209266 0.50002792)
(0 -0.00078249917 0.50003251)
(0 -0.0009482015 0.50003863)
(0 -0.00114801 0.50004688)
(0 -0.0013945838 0.50005824)
(0 -0.0017066703 0.50007414)
(0 -0.0021146193 0.50009709)
(0 -0.0026743466 0.50013482)
(0 -0.0034679684 0.50020239)
(0 -0.0045602693 0.50027145)
(0 -0.0065845025 0.50043367)
(0 -0.01765895 0.50675399)
(0 -0.013589874 0.47975578)
(0 0.037432399 0.44796963)
(0 0.05095515 0.53232612)
(0 0.021968721 0.5080429)
(0 0.016135085 0.50357321)
(0 0.012415507 0.50242316)
(0 0.0095154002 0.50162297)
(0 0.0075201126 0.50115658)
(0 0.0060694487 0.50086588)
(0 0.0049642102 0.50066795)
(0 0.0040998632 0.50052895)
(0 0.003407456 0.50042897)
(0 0.0028400395 0.50035546)
(0 0.0023652386 0.50030056)
(0 0.0019599679 0.50025915)
(0 0.0016072658 0.5002278)
(0 0.0012943353 0.50020414)
(0 0.0010112502 0.50018653)
(0 0.00075007069 0.50017386)
(0 0.00050422112 0.50016535)
(0 0.00026803022 0.50016051)
(0 3.6375808e-05 0.50015909)
(0 -0.00019562326 0.50016099)
(0 -0.00043287811 0.50016634)
(0 -0.00068060082 0.50017546)
(0 -0.00094462356 0.50018888)
(0 -0.0012317775 0.50020744)
(0 -0.0015503884 0.50023239)
(0 -0.0019109647 0.50026551)
(0 -0.0023271892 0.50030944)
(0 -0.0028174038 0.50036807)
(0 -0.0034069858 0.50044733)
(0 -0.0041323134 0.50055671)
(0 -0.0050464685 0.50071128)
(0 -0.0062293194 0.50093665)
(0 -0.0078297514 0.50129445)
(0 -0.010123567 0.50191062)
(0 -0.013104918 0.50282527)
(0 -0.017424404 0.50608129)
(0 -0.038757308 0.52526806)
(0 -0.027893863 0.45021758)
(0 0.03988784 0.40982153)
(0 0.061427116 0.54930827)
(0 0.031982659 0.52188192)
(0 0.024354529 0.5100806)
(0 0.019192638 0.50658856)
(0 0.014976216 0.50452802)
(0 0.012005867 0.50327131)
(0 0.0097711759 0.50245826)
(0 0.0080359022 0.50190092)
(0 0.0066643973 0.50150852)
(0 0.0055564378 0.50122528)
(0 0.0046424874 0.5010165)
(0 0.0038738055 0.50086033)
(0 0.0032149939 0.5007424)
(0 0.0026397158 0.500653)
(0 0.0021279152 0.50058547)
(0 0.0016639127 0.5005352)
(0 0.0012350853 0.50049899)
(0 0.00083092318 0.50047467)
(0 0.00044232438 0.50046084)
(0 6.1044598e-05 0.50045676)
(0 -0.00032078072 0.50046221)
(0 -0.00071106338 0.5004775)
(0 -0.0011181859 0.50050354)
(0 -0.0015514965 0.50054186)
(0 -0.0020218932 0.50059485)
(0 -0.0025425775 0.500666)
(0 -0.0031300859 0.5007604)
(0 -0.0038057517 0.50088543)
(0 -0.004597818 0.50105202)
(0 -0.0055446433 0.5012767)
(0 -0.0067002119 0.5015856)
(0 -0.0081417291 0.50202085)
(0 -0.00997329 0.50265084)
(0 -0.01236771 0.50361527)
(0 -0.015712965 0.50519946)
(0 -0.019869745 0.50785433)
(0 -0.025183434 0.51641241)
(0 -0.047414372 0.53912769)
(0 -0.030852488 0.41488306)
(0 0.034791036 0.36173199)
(0 0.063837442 0.55456388)
(0 0.039378675 0.53747127)
(0 0.030081877 0.51849264)
(0 0.024111093 0.51197728)
(0 0.01927814 0.50849934)
(0 0.015734826 0.50626407)
(0 0.012952981 0.50475519)
(0 0.010742642 0.50370411)
(0 0.0089671131 0.50295575)
(0 0.0075133614 0.50241066)
(0 0.0063017181 0.50200633)
(0 0.0052743749 0.50170249)
(0 0.0043880713 0.50147223)
(0 0.0036099869 0.50129719)
(0 0.0029147343 0.50116469)
(0 0.0022822035 0.50106587)
(0 0.0016960301 0.5009946)
(0 0.0011424694 0.50094668)
(0 0.00060953744 0.50091942)
(0 8.6329429e-05 0.50091136)
(0 -0.00043757975 0.50092207)
(0 -0.00097267578 0.5009522)
(0 -0.0015300331 0.50100345)
(0 -0.0021219355 0.50107881)
(0 -0.0027625934 0.50118287)
(0 -0.0034690501 0.50132233)
(0 -0.0042623879 0.50150687)
(0 -0.0051693912 0.50175051)
(0 -0.006224844 0.5020737)
(0 -0.0074746195 0.50250693)
(0 -0.0089809545 0.5030972)
(0 -0.010831225 0.50391922)
(0 -0.013131999 0.50508937)
(0 -0.016018935 0.50680715)
(0 -0.019894619 0.50946795)
(0 -0.024727015 0.51427545)
(0 -0.03110875 0.52824719)
(0 -0.050315764 0.54407348)
(0 -0.028436836 0.37238641)
(0 0.027423639 0.31484641)
(0 0.062312925 0.550242)
(0 0.04461206 0.55146752)
(0 0.033979852 0.52748808)
(0 0.027461923 0.51772237)
(0 0.0224531 0.51291963)
(0 0.018634863 0.5097311)
(0 0.015526396 0.50749218)
(0 0.013004719 0.50589937)
(0 0.010940998 0.50474623)
(0 0.0092238499 0.50389538)
(0 0.0077744157 0.50325833)
(0 0.006532705 0.50277619)
(0 0.0054522875 0.50240874)
(0 0.0044971096 0.50212818)
(0 0.0036387003 0.50191506)
(0 0.0028541099 0.5017557)
(0 0.0021243933 0.50164051)
(0 0.0014334506 0.50156295)
(0 0.00076711569 0.50151878)
(0 0.00011241793 0.50150568)
(0 -0.00054307932 0.501523)
(0 -0.0012118815 0.50157174)
(0 -0.0019071413 0.50165458)
(0 -0.0026433429 0.50177621)
(0 -0.0034370727 0.50194378)
(0 -0.0043079639 0.50216769)
(0 -0.005279908 0.50246282)
(0 -0.0063826625 0.50285044)
(0 -0.0076540096 0.50336119)
(0 -0.0091422198 0.50403971)
(0 -0.010909737 0.50495253)
(0 -0.013043403 0.50620248)
(0 -0.015647027 0.50794444)
(0 -0.018808465 0.5104048)
(0 -0.022889234 0.51405557)
(0 -0.028170816 0.52114621)
(0 -0.035700567 0.53932682)
(0 -0.050471442 0.54155902)
(0 -0.024084477 0.33056767)
(0 0.019837239 0.2752024)
(0 0.057987592 0.53974916)
(0 0.047360522 0.56256473)
(0 0.036474643 0.53660434)
(0 0.029633285 0.52350697)
(0 0.024673399 0.51740297)
(0 0.020771701 0.51336249)
(0 0.017507499 0.51044383)
(0 0.014812288 0.50832334)
(0 0.01256513 0.5067608)
(0 0.010664497 0.50559164)
(0 0.009038388 0.50470674)
(0 0.0076291813 0.50403116)
(0 0.0063910092 0.50351269)
(0 0.0052874059 0.50311461)
(0 0.0042888959 0.50281088)
(0 0.0033712436 0.50258297)
(0 0.0025141056 0.50241779)
(0 0.0016999506 0.50230633)
(0 0.0009131844 0.50224276)
(0 0.00013942251 0.50222384)
(0 -0.00063517564 0.50224869)
(0 -0.0014245228 0.50231867)
(0 -0.002243181 0.50243749)
(0 -0.0031070536 0.50261162)
(0 -0.0040341355 0.50285083)
(0 -0.0050454099 0.50316926)
(0 -0.0061659504 0.50358692)
(0 -0.0074263146 0.50413198)
(0 -0.0088644391 0.50484438)
(0 -0.010527598 0.50578113)
(0 -0.012474093 0.50702452)
(0 -0.014784145 0.50869772)
(0 -0.017559553 0.51098236)
(0 -0.020854306 0.51412082)
(0 -0.024964669 0.51873134)
(0 -0.030499905 0.52823078)
(0 -0.038620946 0.54872494)
(0 -0.048502188 0.53399175)
(0 -0.019064999 0.29395322)
(0 0.013082477 0.24256126)
(0 0.05179593 0.52520501)
(0 0.047705154 0.5702488)
(0 0.03775308 0.54552448)
(0 0.03084671 0.52928833)
(0 0.026070007 0.52180117)
(0 0.022234703 0.51699713)
(0 0.018950759 0.51347241)
(0 0.01619098 0.51086365)
(0 0.013847548 0.50891093)
(0 0.011833964 0.50743094)
(0 0.010087636 0.50629865)
(0 0.0085559349 0.50542631)
(0 0.0071961037 0.50475179)
(0 0.0059733358 0.50423071)
(0 0.0048588058 0.50383115)
(0 0.0038283178 0.50353013)
(0 0.0028611924 0.50331129)
(0 0.0019393337 0.50316327)
(0 0.0010464499 0.50307867)
(0 0.00016738908 0.5030534)
(0 -0.00071248469 0.50308633)
(0 -0.0016078793 0.50317916)
(0 -0.0025341085 0.50333663)
(0 -0.0035077471 0.50356688)
(0 -0.0045473089 0.50388219)
(0 -0.0056740416 0.50430015)
(0 -0.006912869 0.5048454)
(0 -0.008293506 0.50555221)
(0 -0.0098520329 0.50646835)
(0 -0.011632655 0.50766098)
(0 -0.013687628 0.50922496)
(0 -0.016086465 0.51129825)
(0 -0.01892448 0.51408023)
(0 -0.022233062 0.51783975)
(0 -0.026252973 0.52346932)
(0 -0.031836901 0.5353761)
(0 -0.039747615 0.55589866)
(0 -0.044886052 0.52283563)
(0 -0.014088551 0.26266535)
(0 0.0077693702 0.21554944)
(0 0.044822436 0.50801684)
(0 0.046250115 0.5743818)
(0 0.038030135 0.55375055)
(0 0.031283149 0.53496)
(0 0.026763862 0.5260296)
(0 0.023112506 0.52053735)
(0 0.019916999 0.51648678)
(0 0.017178781 0.51343983)
(0 0.014810621 0.51112851)
(0 0.012744084 0.5093571)
(0 0.010927111 0.50798831)
(0 0.0093137918 0.50692455)
(0 0.0078661499 0.50609589)
(0 0.0065524332 0.50545173)
(0 0.0053456763 0.50495524)
(0 0.00422276 0.50457962)
(0 0.0031635444 0.50430563)
(0 0.0021501176 0.50411983)
(0 0.0011661456 0.50401341)
(0 0.00019630366 0.50398149)
(0 -0.00077427281 0.50402269)
(0 -0.0017605179 0.50413906)
(0 -0.0027778964 0.50433625)
(0 -0.0038429898 0.50462391)
(0 -0.0049740723 0.50501654)
(0 -0.006191773 0.50553477)
(0 -0.0075198411 0.50620718)
(0 -0.0089859711 0.50707311)
(0 -0.010622969 0.50818672)
(0 -0.012470427 0.50962325)
(0 -0.014573489 0.51148776)
(0 -0.01698836 0.51392912)
(0 -0.019796725 0.5171561)
(0 -0.023014572 0.52148175)
(0 -0.026864294 0.52818444)
(0 -0.032336168 0.5422212)
(0 -0.039388599 0.56050583)
(0 -0.040318886 0.50910264)
(0 -0.0097057946 0.23588365)
(0 0.0040041557 0.19356695)
(0 0.037895616 0.48949703)
(0 0.043680469 0.57524215)
(0 0.037557372 0.5608441)
(0 0.031148273 0.54036031)
(0 0.026908599 0.53001046)
(0 0.023508883 0.52390042)
(0 0.020475555 0.51941073)
(0 0.017822588 0.51598551)
(0 0.015486002 0.51335622)
(0 0.013415464 0.51132104)
(0 0.011569614 0.5097341)
(0 0.0099102804 0.50849076)
(0 0.0084052194 0.50751536)
(0 0.0070265915 0.50675253)
(0 0.0057501151 0.50616154)
(0 0.0045544975 0.50571256)
(0 0.0034208089 0.50538394)
(0 0.0023319239 0.50516049)
(0 0.0012720155 0.50503222)
(0 0.00022609762 0.50499354)
(0 -0.0008204282 0.5050429)
(0 -0.0018822264 0.50518263)
(0 -0.0029743968 0.50541915)
(0 -0.0041129736 0.5057634)
(0 -0.0053153829 0.50623176)
(0 -0.0066009571 0.50684733)
(0 -0.0079915185 0.50764191)
(0 -0.0095119354 0.50865887)
(0 -0.011190819 0.50995726)
(0 -0.013062047 0.51161841)
(0 -0.01516315 0.51375499)
(0 -0.017536772 0.51652276)
(0 -0.02024709 0.52013279)
(0 -0.023301993 0.52496523)
(0 -0.026943216 0.53274194)
(0 -0.032184485 0.54839153)
(0 -0.037976987 0.56255021)
(0 -0.035403956 0.49381967)
(0 -0.006198024 0.21328514)
(0 0.0015502392 0.17614652)
(0 0.031495138 0.47077543)
(0 0.040524393 0.57338944)
(0 0.036550653 0.56659727)
(0 0.030629746 0.54537715)
(0 0.026664576 0.53370328)
(0 0.023536431 0.52703041)
(0 0.020704311 0.52218595)
(0 0.018177558 0.51844821)
(0 0.015912681 0.5155475)
(0 0.013875248 0.51328167)
(0 0.012033811 0.51150008)
(0 0.010358062 0.5100937)
(0 0.0088217312 0.50898304)
(0 0.0074012765 0.50810937)
(0 0.0060755702 0.50742916)
(0 0.0048256248 0.50691025)
(0 0.0036341869 0.50652919)
(0 0.0024853647 0.50626938)
(0 0.0013642655 0.50611987)
(0 0.00025665369 0.50607454)
(0 -0.00085139953 0.50613166)
(0 -0.0019738834 0.50629381)
(0 -0.0031251187 0.50656802)
(0 -0.0043201615 0.50696628)
(0 -0.0055751373 0.50750644)
(0 -0.0069076076 0.50821351)
(0 -0.0083369762 0.50912173)
(0 -0.0098848276 0.51027739)
(0 -0.011575185 0.51174306)
(0 -0.013435785 0.51360409)
(0 -0.015496712 0.51597795)
(0 -0.017788598 0.51902319)
(0 -0.020358422 0.52295086)
(0 -0.023213434 0.52823767)
(0 -0.026633669 0.53704225)
(0 -0.031543116 0.55365994)
(0 -0.035883734 0.56231871)
(0 -0.030540792 0.47792807)
(0 -0.0035882196 0.19465009)
(0 7.5795294e-05 0.16254074)
(0 0.02586526 0.45261876)
(0 0.037150106 0.5694393)
(0 0.035180902 0.57098758)
(0 0.029867711 0.54996101)
(0 0.026164788 0.53711206)
(0 0.023297494 0.52990995)
(0 0.020679747 0.524781)
(0 0.018301054 0.52079423)
(0 0.016133009 0.51766943)
(0 0.014154309 0.51520803)
(0 0.012342086 0.51325785)
(0 0.010673246 0.51170768)
(0 0.0091271634 0.51047582)
(0 0.0076845677 0.50950149)
(0 0.006327637 0.50873933)
(0 0.005039919 0.50815558)
(0 0.00380611 0.5077255)
(0 0.0026118473 0.50743148)
(0 0.0014434756 0.50726188)
(0 0.00028781385 0.50721013)
(0 -0.00086809116 0.50727441)
(0 -0.0020372471 0.50745745)
(0 -0.0032328892 0.50776677)
(0 -0.0044687902 0.50821513)
(0 -0.0057594771 0.50882143)
(0 -0.0071204634 0.50961207)
(0 -0.0085684943 0.51062294)
(0 -0.01012173 0.51190228)
(0 -0.011799673 0.51351481)
(0 -0.013624131 0.51554818)
(0 -0.015618339 0.51812216)
(0 -0.017802941 0.52139495)
(0 -0.020210354 0.52558101)
(0 -0.022854143 0.53128486)
(0 -0.02605172 0.54103281)
(0 -0.030542632 0.55793566)
(0 -0.033402112 0.56020673)
(0 -0.025981142 0.46211689)
(0 -0.0017620814 0.17951876)
(0 -0.00071897024 0.15192624)
(0 0.021102141 0.43545892)
(0 0.033807936 0.5639408)
(0 0.033591148 0.57408794)
(0 0.028962807 0.55409121)
(0 0.025508758 0.54026104)
(0 0.022875673 0.5325495)
(0 0.02046879 0.52718788)
(0 0.018246059 0.5230075)
(0 0.016188047 0.51970241)
(0 0.014284013 0.5170793)
(0 0.012518181 0.51498676)
(0 0.010873639 0.5133129)
(0 0.0093347376 0.51197509)
(0 0.0078861742 0.51091154)
(0 0.0065133322 0.51007588)
(0 0.0052023174 0.50943343)
(0 0.0039398838 0.5089586)
(0 0.0027133547 0.50863315)
(0 0.0015104979 0.50844492)
(0 0.00031938832 0.50838711)
(0 -0.00087174419 0.50845777)
(0 -0.0020747164 0.50865978)
(0 -0.0033014774 0.50900096)
(0 -0.0045643297 0.50949459)
(0 -0.0058760448 0.51016028)
(0 -0.0072499832 0.5110253)
(0 -0.0087002034 0.5121265)
(0 -0.010241541 0.5135132)
(0 -0.011889334 0.51525124)
(0 -0.01366005 0.51742927)
(0 -0.015570867 0.52016744)
(0 -0.017634269 0.52362168)
(0 -0.019871763 0.52801768)
(0 -0.022309463 0.53411291)
(0 -0.025288263 0.54468265)
(0 -0.02929817 0.56120946)
(0 -0.030763637 0.55660966)
(0 -0.021878536 0.4468245)
(0 -0.00056128121 0.16730402)
(0 -0.0010711444 0.14360574)
(0 0.017196623 0.41951014)
(0 0.030653465 0.55735333)
(0 0.031899281 0.57601962)
(0 0.027989072 0.55776012)
(0 0.024769985 0.54317603)
(0 0.02233739 0.53497176)
(0 0.02012705 0.52941248)
(0 0.018058318 0.52508398)
(0 0.016114795 0.52163702)
(0 0.014293841 0.51888297)
(0 0.012585285 0.51667273)
(0 0.01097725 0.51489473)
(0 0.0094582765 0.51346627)
(0 0.0080165664 0.51232533)
(0 0.0066404419 0.51142516)
(0 0.0053184434 0.51073066)
(0 0.0040393591 0.51021584)
(0 0.0027922408 0.50986207)
(0 0.0015663632 0.50965694)
(0 0.0003511646 0.50959346)
(0 -0.00086382335 0.50966964)
(0 -0.0020891074 0.50988842)
(0 -0.0033352442 0.51025781)
(0 -0.0046129833 0.5107914)
(0 -0.0059333006 0.51150916)
(0 -0.0073074313 0.51243879)
(0 -0.0087468723 0.51361759)
(0 -0.01026339 0.51509528)
(0 -0.01186865 0.51693801)
(0 -0.013574551 0.51923452)
(0 -0.015393118 0.52210401)
(0 -0.017330358 0.52569943)
(0 -0.019400909 0.53026785)
(0 -0.021648291 0.53673347)
(0 -0.02441648 0.54797168)
(0 -0.027911396 0.56352537)
(0 -0.028138843 0.5518894)
(0 -0.0183071 0.4323157)
(0 0.00017259446 0.15745989)
(0 -0.0011542858 0.1370279)
(0 0.014071209 0.40485288)
(0 0.027766721 0.55005136)
(0 0.030193319 0.57693018)
(0 0.026998879 0.56097423)
(0 0.024001414 0.54588098)
(0 0.021734481 0.53720367)
(0 0.019699684 0.53146789)
(0 0.017776136 0.52702691)
(0 0.015945326 0.52347064)
(0 0.014210237 0.52061262)
(0 0.012564871 0.5183069)
(0 0.011001266 0.51644289)
(0 0.0095113494 0.51493837)
(0 0.0080862889 0.51373158)
(0 0.0067169889 0.51277588)
(0 0.0053942068 0.51203611)
(0 0.00410865 0.5114862)
(0 0.0028510529 0.5111074)
(0 0.0016121983 0.51088718)
(0 0.00038291679 0.51081847)
(0 -0.00084591626 0.51089924)
(0 -0.0020834556 0.51113249)
(0 -0.0033388381 0.51152628)
(0 -0.0046212625 0.51209432)
(0 -0.005939958 0.51285669)
(0 -0.0073041566 0.51384119)
(0 -0.0087230172 0.51508515)
(0 -0.010205589 0.51663818)
(0 -0.011760419 0.5185662)
(0 -0.013395667 0.52095739)
(0 -0.015119197 0.52392908)
(0 -0.016932198 0.52763183)
(0 -0.018846324 0.53234515)
(0 -0.02092513 0.53916063)
(0 -0.023493522 0.55089345)
(0 -0.026464746 0.56496613)
(0 -0.025638938 0.54636397)
(0 -0.015278445 0.4187386)
(0 0.00057765845 0.14952369)
(0 -0.0010867245 0.13175301)
(0 0.011615243 0.39147856)
(0 0.025175521 0.54232871)
(0 0.028532044 0.57697401)
(0 0.026025585 0.56375323)
(0 0.023238358 0.54839873)
(0 0.021105426 0.53927368)
(0 0.019222098 0.53337149)
(0 0.017430702 0.52884421)
(0 0.015706666 0.52520536)
(0 0.014056171 0.52226626)
(0 0.012476113 0.51988445)
(0 0.010961442 0.51795066)
(0 0.0095066994 0.51638345)
(0 0.0081054626 0.51512163)
(0 0.0067508231 0.51411895)
(0 0.0054354861 0.51334052)
(0 0.0041519035 0.51276035)
(0 0.0028923845 0.51235978)
(0 0.0016491579 0.51212627)
(0 0.00041441464 0.51205277)
(0 -0.00081964655 0.51213723)
(0 -0.0020608483 0.51238262)
(0 -0.0033169433 0.51279703)
(0 -0.0045956454 0.51339409)
(0 -0.0059045504 0.51419384)
(0 -0.0072510707 0.5152239)
(0 -0.0086423099 0.51652132)
(0 -0.010085001 0.5181353)
(0 -0.011585147 0.52013113)
(0 -0.013147985 0.52259605)
(0 -0.014778209 0.52564504)
(0 -0.016473779 0.52942802)
(0 -0.018246667 0.5342677)
(0 -0.020180554 0.54141096)
(0 -0.022560894 0.55345566)
(0 -0.025019243 0.56563638)
(0 -0.023326569 0.5402994)
(0 -0.012762923 0.40615519)
(0 0.00076300921 0.14310122)
(0 -0.0009449016 0.12743551)
(0 0.0097099518 0.37932123)
(0 0.022876388 0.53440595)
(0 0.026950618 0.57629628)
(0 0.02508789 0.56612438)
(0 0.022502003 0.55074994)
(0 0.020476844 0.54120942)
(0 0.018720704 0.53514288)
(0 0.017046469 0.53054687)
(0 0.015420843 0.52684648)
(0 0.013850977 0.52384517)
(0 0.01233561 0.52140366)
(0 0.010871761 0.51941417)
(0 0.0094558856 0.51779614)
(0 0.0080834481 0.51648909)
(0 0.0067493287 0.51544734)
(0 0.0054478904 0.5146364)
(0 0.0041731216 0.51403057)
(0 0.0029187585 0.51361134)
(0 0.0016783713 0.51336629)
(0 0.0004454322 0.51328841)
(0 -0.00078660279 0.51337567)
(0 -0.0020242909 0.513631)
(0 -0.0032740828 0.51406238)
(0 -0.004542318 0.51468334)
(0 -0.0058351151 0.51551368)
(0 -0.0071582861 0.51658069)
(0 -0.0085171878 0.51792097)
(0 -0.0099166515 0.51958306)
(0 -0.011360688 0.5216315)
(0 -0.012852351 0.5241523)
(0 -0.014394061 0.52725805)
(0 -0.015982012 0.53110085)
(0 -0.017631005 0.53605586)
(0 -0.019442677 0.54350198)
(0 -0.021646589 0.55567578)
(0 -0.023616857 0.56564635)
(0 -0.021229755 0.5339074)
(0 -0.010708007 0.39456516)
(0 0.00080895931 0.13785921)
(0 -0.00077630841 0.12381441)
(0 0.0082426787 0.3682841)
(0 0.020849031 0.52644271)
(0 0.025466904 0.57502498)
(0 0.024194544 0.56811733)
(0 0.02180345 0.55295156)
(0 0.019865841 0.54303553)
(0 0.018214229 0.53680178)
(0 0.016641855 0.53214737)
(0 0.015105194 0.52840124)
(0 0.013610419 0.52535279)
(0 0.012157307 0.52286506)
(0 0.010744267 0.52083176)
(0 0.0093690843 0.51917315)
(0 0.0080286404 0.51782951)
(0 0.0067192329 0.51675577)
(0 0.0054365963 0.51591792)
(0 0.0041760356 0.51529062)
(0 0.002932545 0.51485562)
(0 0.0017009032 0.51460066)
(0 0.00047575542 0.5145188)
(0 -0.0007482843 0.51460803)
(0 -0.001976607 0.51487121)
(0 -0.0032144747 0.51531622)
(0 -0.0044669918 0.51595636)
(0 -0.0057389786 0.51681113)
(0 -0.0070348804 0.51790739)
(0 -0.0083586148 0.51928117)
(0 -0.0097135074 0.52098031)
(0 -0.011102073 0.52306846)
(0 -0.012525814 0.52563044)
(0 -0.013985636 0.52877668)
(0 -0.015477269 0.53266499)
(0 -0.017020048 0.53772985)
(0 -0.018729673 0.54545012)
(0 -0.020768105 0.5575763)
(0 -0.022284103 0.56510113)
(0 -0.019353566 0.52735018)
(0 -0.0090509175 0.38392819)
(0 0.00077201482 0.13352538)
(0 -0.00060893271 0.1206995)
(0 0.0071142333 0.35825844)
(0 0.019065409 0.51855132)
(0 0.024086738 0.57326923)
(0 0.023347965 0.56976148)
(0 0.021147102 0.55501649)
(0 0.019282455 0.54477242)
(0 0.017715332 0.5383665)
(0 0.016230249 0.53365825)
(0 0.014772939 0.52987772)
(0 0.013346989 0.52679382)
(0 0.011952603 0.52427068)
(0 0.010589066 0.52220336)
(0 0.0092550202 0.52051282)
(0 0.0079483688 0.51914)
(0 0.0066664989 0.51804043)
(0 0.0054062494 0.51718062)
(0 0.0041640265 0.51653561)
(0 0.002935906 0.51608744)
(0 0.0017177298 0.51582404)
(0 0.00050518885 0.51573856)
(0 -0.00070606296 0.515829)
(0 -0.0019203701 0.51609817)
(0 -0.0031419374 0.51655379)
(0 -0.0043747874 0.5172089)
(0 -0.0056226288 0.51808265)
(0 -0.0068887708 0.51920144)
(0 -0.0081759805 0.52060071)
(0 -0.0094864334 0.52232757)
(0 -0.010821576 0.52444488)
(0 -0.012181871 0.52703624)
(0 -0.013567338 0.53021059)
(0 -0.014974345 0.53413525)
(0 -0.016427738 0.5393081)
(0 -0.018052256 0.54726969)
(0 -0.019935101 0.55918172)
(0 -0.021035397 0.56409568)
(0 -0.017688719 0.52074865)
(0 -0.007726934 0.3741816)
(0 0.00069059034 0.12988449)
(0 -0.00045769683 0.11795559)
(0 0.0062420319 0.34913492)
(0 0.017495364 0.51080847)
(0 0.022808195 0.57112054)
(0 0.02254674 0.57108489)
(0 0.020533075 0.55695411)
(0 0.018731673 0.54643615)
(0 0.017232078 0.53985313)
(0 0.015821045 0.53509137)
(0 0.014433873 0.53128405)
(0 0.01307033 0.52817353)
(0 0.011730597 0.52562346)
(0 0.010414439 0.52352999)
(0 0.0091209994 0.52181462)
(0 0.0078488835 0.52041885)
(0 0.006596288 0.51929874)
(0 0.0053609193 0.51842125)
(0 0.0041400832 0.51776182)
(0 0.0029307664 0.51730277)
(0 0.0017297246 0.51703222)
(0 0.00053356078 0.51694344)
(0 -0.00066115951 0.51703444)
(0 -0.0018578632 0.51730794)
(0 -0.0030598364 0.51777151)
(0 -0.0042701764 0.51843793)
(0 -0.0054916629 0.51932598)
(0 -0.0067266848 0.5204616)
(0 -0.007977117 0.52187963)
(0 -0.0092442916 0.52362658)
(0 -0.010528939 0.52576456)
(0 -0.01183089 0.52837614)
(0 -0.013149763 0.5315696)
(0 -0.014483474 0.53552563)
(0 -0.015862721 0.54080656)
(0 -0.017415676 0.54897277)
(0 -0.019151521 0.56051683)
(0 -0.019876138 0.56271294)
(0 -0.016217902 0.51419061)
(0 -0.00667484 0.36525216)
(0 0.0005898673 0.12677014)
(0 -0.00032906736 0.11548851)
(0 0.005560336 0.34080983)
(0 0.016109931 0.50326447)
(0 0.021624954 0.56865482)
(0 0.021787431 0.57211373)
(0 0.019958905 0.55877103)
(0 0.018214997 0.54803889)
(0 0.016769145 0.54127537)
(0 0.015420542 0.53645746)
(0 0.014095032 0.53262794)
(0 0.012787709 0.52949728)
(0 0.011498386 0.52692678)
(0 0.010227028 0.52481336)
(0 0.0089730124 0.52307892)
(0 0.0077354022 0.52166532)
(0 0.0065129728 0.52052907)
(0 0.0053040942 0.51963753)
(0 0.0041067921 0.51896649)
(0 0.0029188037 0.51849853)
(0 0.0017376548 0.51822198)
(0 0.00056072677 0.51813018)
(0 -0.000614632 0.51822116)
(0 -0.0017910612 0.51849758)
(0 -0.0029710664 0.51896683)
(0 -0.00415697 0.51964145)
(0 -0.0053507937 0.52053985)
(0 -0.0065542004 0.52168753)
(0 -0.0077683961 0.52311887)
(0 -0.0089941234 0.52487979)
(0 -0.010231675 0.52703183)
(0 -0.011480564 0.52965674)
(0 -0.012740379 0.53286317)
(0 -0.014011263 0.53684879)
(0 -0.015329604 0.54223852)
(0 -0.016821316 0.55056926)
(0 -0.01841739 0.56160548)
(0 -0.018805552 0.56102367)
(0 -0.014920241 0.50773783)
(0 -0.0058400336 0.35706349)
(0 0.00048559473 0.12405574)
(0 -0.0002243769 0.11323389)
(0 0.0050186601 0.33318841)
(0 0.014882985 0.49595046)
(0 0.020528722 0.5659347)
(0 0.021065832 0.57287198)
(0 0.019420783 0.5604717)
(0 0.017731676 0.54958935)
(0 0.016328799 0.54264453)
(0 0.015032706 0.53776597)
(0 0.013761284 0.53391646)
(0 0.012504449 0.53077022)
(0 0.011261384 0.52818416)
(0 0.010032046 0.52605559)
(0 0.0088158733 0.52430662)
(0 0.007612196 0.52287934)
(0 0.0064201857 0.52173057)
(0 0.0052387068 0.52082799)
(0 0.0040663476 0.5201477)
(0 0.0029014524 0.51967252)
(0 0.0017421828 0.51939092)
(0 0.00058657172 0.51929635)
(0 -0.00056737383 0.51938685)
(0 -0.0017216319 0.51966499)
(0 -0.0028780584 0.52013802)
(0 -0.0040383408 0.52081823)
(0 -0.0052038966 0.52172374)
(0 -0.0063758321 0.52287965)
(0 -0.0075548706 0.52431992)
(0 -0.0087413695 0.52609004)
(0 -0.0099353959 0.52825114)
(0 -0.011136372 0.53088437)
(0 -0.012344137 0.53409997)
(0 -0.013561524 0.53811576)
(0 -0.014830053 0.54361464)
(0 -0.01626799 0.55206701)
(0 -0.017730291 0.56246981)
(0 -0.017819054 0.55908715)
(0 -0.013774189 0.50143218)
(0 -0.0051758444 0.3495408)
(0 0.00038698341 0.1216466)
(0 -0.00014209652 0.11114841)
(0 0.0045793442 0.32618625)
(0 0.013791816 0.48888399)
(0 0.019510777 0.56301196)
(0 0.020377747 0.57338157)
(0 0.018914416 0.562059)
(0 0.017279636 0.55109345)
(0 0.015911666 0.54396971)
(0 0.014659794 0.53902501)
(0 0.013435831 0.53515592)
(0 0.012224327 0.53199715)
(0 0.011023615 0.52939908)
(0 0.0098335029 0.52725898)
(0 0.0086533744 0.52549901)
(0 0.0074826946 0.52406134)
(0 0.0063208886 0.52290296)
(0 0.0051671771 0.52199181)
(0 0.0040205789 0.52130422)
(0 0.0028799187 0.52082321)
(0 0.0017438731 0.52053738)
(0 0.00061101051 0.52044026)
(0 -0.00052011956 0.52052988)
(0 -0.0016509501 0.52080877)
(0 -0.0027828065 0.52128402)
(0 -0.0039168681 0.52196773)
(0 -0.0050540825 0.52287772)
(0 -0.0061951419 0.52403882)
(0 -0.0073404391 0.52548462)
(0 -0.0084901027 0.52726034)
(0 -0.0096441279 0.52942682)
(0 -0.010802011 0.53206494)
(0 -0.011964043 0.53528778)
(0 -0.013136008 0.53933587)
(0 -0.014363715 0.54494311)
(0 -0.015752953 0.5534721)
(0 -0.017086458 0.56312996)
(0 -0.016909993 0.55695258)
(0 -0.01275926 0.49530073)
(0 -0.0046437243 0.34261371)
(0 0.00029886647 0.11947305)
(0 -7.9315825e-05 0.10920309)
(0 0.004214967 0.31972948)
(0 0.012817112 0.48207326)
(0 0.018562847 0.55992953)
(0 0.019719394 0.57366253)
(0 0.018435546 0.56353477)
(0 0.01685614 0.5525548)
(0 0.015517318 0.54525801)
(0 0.014302859 0.54024142)
(0 0.013120642 0.53635182)
(0 0.011949919 0.53318237)
(0 0.010787986 0.53057482)
(0 0.0096344051 0.52842586)
(0 0.008488441 0.52665757)
(0 0.0073495992 0.52521205)
(0 0.0062174519 0.52404639)
(0 0.0050914671 0.52312865)
(0 0.0039709845 0.52243535)
(0 0.0028552008 0.52194964)
(0 0.0017432017 0.52166026)
(0 0.00063398686 0.52156077)
(0 -0.00047345597 0.52164923)
(0 -0.0015801198 0.52192809)
(0 -0.0026869064 0.52240432)
(0 -0.0037945971 0.52308984)
(0 -0.004903784 0.52400228)
(0 -0.006014863 0.5251662)
(0 -0.0071280155 0.52661498)
(0 -0.0082432592 0.52839366)
(0 -0.0093606211 0.53056294)
(0 -0.010479786 0.53320376)
(0 -0.011601639 0.53643334)
(0 -0.012735009 0.54051678)
(0 -0.013928938 0.54622998)
(0 -0.015272635 0.55478911)
(0 -0.016481554 0.56360397)
(0 -0.016070863 0.55466058)
(0 -0.011856919 0.48935981)
(0 -0.004212733 0.33621788)
(0 0.00022322937 0.11748458)
(0 -3.2666702e-05 0.10737841)
(0 0.0039059544 0.3137542)
(0 0.011942651 0.47552006)
(0 0.01767753 0.5567233)
(0 0.019087574 0.57373336)
(0 0.017980252 0.56490031)
(0 0.016458217 0.5539753)
(0 0.015144693 0.54651482)
(0 0.013962135 0.54142091)
(0 0.012816792 0.53750891)
(0 0.011682889 0.53432973)
(0 0.010556527 0.5317144)
(0 0.0094369511 0.5295585)
(0 0.0083232795 0.52778388)
(0 0.0072149943 0.52633247)
(0 0.0061117374 0.52516131)
(0 0.0050131395 0.52423855)
(0 0.003918772 0.52354079)
(0 0.0028281134 0.52305132)
(0 0.0017405668 0.52275893)
(0 0.00065547214 0.52265726)
(0 -0.0004278359 0.52274432)
(0 -0.0015100028 0.52302254)
(0 -0.0025915996 0.52349879)
(0 -0.0036731042 0.52418485)
(0 -0.0047548481 0.52509818)
(0 -0.0058370248 0.52626316)
(0 -0.0069196962 0.52771304)
(0 -0.0080028532 0.52949281)
(0 -0.0090866209 0.53166318)
(0 -0.010170947 0.5343055)
(0 -0.011257416 0.53754237)
(0 -0.01235784 0.54166461)
(0 -0.013523314 0.54747949)
(0 -0.014823149 0.55602143)
(0 -0.015911175 0.56390804)
(0 -0.015294107 0.5522447)
(0 -0.011050931 0.48361801)
(0 -0.0038586281 0.33029563)
(0 0.00016027785 0.115645)
(0 1.1349403e-06 0.10566082)
(0 0.0036385387 0.3082055)
(0 0.011154883 0.46922196)
(0 0.016848427 0.55342345)
(0 0.018479682 0.57361123)
(0 0.017545086 0.56615674)
(0 0.016082928 0.55535564)
(0 0.014792378 0.54774415)
(0 0.013637319 0.54256814)
(0 0.012524722 0.53863124)
(0 0.011424221 0.53544258)
(0 0.010330585 0.53282056)
(0 0.0092426949 0.53065906)
(0 0.0081595105 0.52887955)
(0 0.0070804525 0.52742369)
(0 0.0060051779 0.52624839)
(0 0.0049334159 0.52532182)
(0 0.0038648986 0.52462061)
(0 0.0027993119 0.5241281)
(0 0.0017362993 0.52383317)
(0 0.00067546292 0.52372944)
(0 -0.00038359405 0.52381497)
(0 -0.0014412491 0.5240921)
(0 -0.0024978219 0.52456764)
(0 -0.0035535652 0.52525327)
(0 -0.0046086274 0.52616633)
(0 -0.0056630738 0.5273311)
(0 -0.0067169139 0.52878079)
(0 -0.00777017 0.53056042)
(0 -0.0088231032 0.53273083)
(0 -0.0098759693 0.53537417)
(0 -0.010931127 0.53861965)
(0 -0.012003193 0.54278413)
(0 -0.013144064 0.5486944)
(0 -0.014400629 0.55717164)
(0 -0.015371167 0.56405669)
(0 -0.014572604 0.54973272)
(0 -0.01032738 0.47807856)
(0 -0.0035627951 0.32479592)
(0 0.00010918144 0.11392854)
(0 2.5011112e-05 0.10404047)
(0 0.0034031191 0.30303638)
(0 0.01044249 0.46317376)
(0 0.016070104 0.55005553)
(0 0.017893653 0.57331221)
(0 0.017127112 0.56730521)
(0 0.015727513 0.5566956)
(0 0.014458802 0.54894884)
(0 0.01332777 0.54368694)
(0 0.012244439 0.53972226)
(0 0.011174406 0.53652384)
(0 0.010110996 0.53389575)
(0 0.0090526867 0.53172951)
(0 0.0079982858 0.52994612)
(0 0.0069471287 0.52848686)
(0 0.0058988507 0.52730845)
(0 0.004853232 0.52637897)
(0 0.0038101098 0.52567507)
(0 0.0027693166 0.52518012)
(0 0.0017306731 0.52488299)
(0 0.00069397782 0.52477736)
(0 -0.00034096378 0.52486123)
(0 -0.0013743281 0.52513696)
(0 -0.0024062495 0.52561127)
(0 -0.0034368202 0.52629578)
(0 -0.0044660669 0.52720776)
(0 -0.0054939828 0.52837145)
(0 -0.0065205738 0.52982009)
(0 -0.007545931 0.53159883)
(0 -0.008570469 0.53376877)
(0 -0.0095947772 0.53641322)
(0 -0.010622039 0.5396691)
(0 -0.011669409 0.54387894)
(0 -0.012788306 0.54987633)
(0 -0.014001435 0.55824173)
(0 -0.014857794 0.56406302)
(0 -0.013899929 0.54714773)
(0 -0.0096744982 0.47274099)
(0 -0.0033111799 0.31967406)
(0 6.8580124e-05 0.11231688)
(0 4.1413523e-05 0.1025097)
(0 0.0031930078 0.2982066)
(0 0.0097959821 0.45736853)
(0 0.01533797 0.54664128)
(0 0.017327862 0.57285138)
(0 0.016723889 0.56834712)
(0 0.015389468 0.55799445)
(0 0.014142354 0.55013086)
(0 0.013032649 0.54478041)
(0 0.011975658 0.54078488)
(0 0.010933578 0.53757604)
(0 0.0098982062 0.53494214)