/*--------------------------------*- C++ -*----------------------------------*\
  =========                 |
  \\      /  F ield         | OpenFOAM: The Open Source CFD Toolbox
   \\    /   O peration     | Website:  https://openfoam.org
    \\  /    A nd           | Version:  10
     \\/     M anipulation  |
\*---------------------------------------------------------------------------*/
FoamFile
{
    format      ascii;
    class       surfaceScalarField;
    location    "0.15";
    object      phi;
}
// * * * * * * * * * * * * * * * * * * * * * * * * * * * * * * * * * * * * * //

dimensions      [1 0 -1 0 0 0 0];

internalField   nonuniform List<scalar> 
7860
(
3.9894793e-08
5.2881323e-07
1.2191807e-08
5.9641077e-07
7.4269597e-09
5.7347258e-07
5.4983512e-09
5.7063631e-07
4.1138981e-09
5.7009212e-07
3.2000572e-09
5.6962148e-07
2.5581017e-09
5.6934958e-07
2.0783383e-09
5.6918737e-07
1.7084362e-09
5.690775e-07
1.4158695e-09
5.6900016e-07
1.1788407e-09
5.6894461e-07
9.8258481e-10
5.6890383e-07
8.1675642e-10
5.688734e-07
6.7386333e-10
5.6885046e-07
5.483303e-10
5.6883309e-07
4.3589469e-10
5.6881999e-07
3.3320076e-10
5.6881025e-07
2.3751914e-10
5.6880323e-07
1.4654469e-10
5.6879853e-07
5.8244113e-11
5.6879585e-07
-2.9267618e-11
5.6879506e-07
-1.1783469e-10
5.6879612e-07
-2.0936601e-10
5.6879908e-07
-3.0594144e-10
5.6880413e-07
-4.0994406e-10
5.6881156e-07
-5.2422337e-10
5.6882184e-07
-6.5231583e-10
5.6883565e-07
-7.9875791e-10
5.6885401e-07
-9.6954664e-10
5.6887836e-07
-1.1728463e-09
5.6891087e-07
-1.4201617e-09
5.689549e-07
-1.7283081e-09
5.6901573e-07
-2.1222687e-09
5.6910156e-07
-2.6419305e-09
5.6922727e-07
-3.3697098e-09
5.694354e-07
-4.4611891e-09
5.6979912e-07
-6.0068802e-09
5.7025336e-07
-9.5061166e-09
5.7220694e-07
-2.9573561e-08
5.8877519e-07
5.3913435e-07
5.9669686e-08
4.6914357e-07
3.6662626e-08
6.1941783e-07
2.2624932e-08
5.8751027e-07
1.6250168e-08
5.7701107e-07
1.2287035e-08
5.7405525e-07
9.6028234e-09
5.723057e-07
7.6741708e-09
5.7127823e-07
6.2330345e-09
5.7062851e-07
5.1238096e-09
5.7018673e-07
4.2464168e-09
5.6987755e-07
3.5355152e-09
5.6965551e-07
2.94693e-09
5.6949242e-07
2.4496095e-09
5.6937072e-07
2.0210724e-09
5.6927899e-07
1.6445975e-09
5.6920957e-07
1.3074011e-09
5.6915719e-07
9.9941934e-10
5.6911823e-07
7.1246698e-10
5.6909019e-07
4.3963142e-10
5.6907136e-07
1.7481396e-10
5.6906067e-07
-8.7638974e-11
5.6905752e-07
-3.5325788e-10
5.6906174e-07
-6.2776243e-10
5.6907359e-07
-9.1739262e-10
5.6909376e-07
-1.2292954e-09
5.6912346e-07
-1.5720159e-09
5.6916456e-07
-1.9561595e-09
5.692198e-07
-2.3953311e-09
5.6929318e-07
-2.9075225e-09
5.6939055e-07
-3.5172357e-09
5.6952059e-07
-4.2589001e-09
5.6969656e-07
-5.1828923e-09
5.6993973e-07
-6.3658509e-09
5.7028452e-07
-7.9265122e-09
5.7078793e-07
-1.0068117e-08
5.7157701e-07
-1.3196832e-08
5.7292784e-07
-1.8127461e-08
5.7518399e-07
-2.8170013e-08
5.8224949e-07
-4.5797046e-08
6.0640222e-07
4.9333731e-07
6.0004517e-08
4.0913909e-07
5.0481055e-08
6.2894129e-07
3.3364733e-08
6.0462659e-07
2.4811649e-08
5.8556415e-07
1.931713e-08
5.7954977e-07
1.5325472e-08
5.7629735e-07
1.235494e-08
5.7424876e-07
1.0096162e-08
5.7288729e-07
8.3357492e-09
5.7194714e-07
6.9305706e-09
5.7128273e-07
5.7845365e-09
5.7080155e-07
4.8308718e-09
5.7044608e-07
4.0218012e-09
5.7017979e-07
3.3223285e-09
5.6997847e-07
2.7061792e-09
5.6982572e-07
2.1531099e-09
5.6971026e-07
1.6470837e-09
5.6962426e-07
1.1749897e-09
5.6956228e-07
7.2570865e-10
5.6952064e-07
2.8940041e-10
5.6949698e-07
-1.4307412e-10
5.6948999e-07
-5.8065843e-10
5.6949932e-07
-1.032594e-09
5.6952552e-07
-1.5089402e-09
5.695701e-07
-2.0211776e-09
5.696357e-07
-2.5829669e-09
5.6972635e-07
-3.2111607e-09
5.6984799e-07
-3.9272154e-09
5.7000923e-07
-4.7592402e-09
5.7022257e-07
-5.7450616e-09
5.7050641e-07
-6.9368821e-09
5.7088838e-07
-8.4089188e-09
5.7141176e-07
-1.0270592e-08
5.7214619e-07
-1.2683802e-08
5.7320114e-07
-1.5881742e-08
5.7477495e-07
-2.0226359e-08
5.7727245e-07
-2.6695591e-08
5.8165322e-07
-3.8935357e-08
5.9448925e-07
-4.8157943e-08
6.1562481e-07
4.4517937e-07
5.4873469e-08
3.5426571e-07
5.7442705e-08
6.2637207e-07
4.0458276e-08
6.21611e-07
3.0769666e-08
5.9525276e-07
2.4633884e-08
5.8568555e-07
1.9943267e-08
5.8098797e-07
1.6304282e-08
5.7788775e-07
1.3458441e-08
5.7573313e-07
1.1193612e-08
5.7421197e-07
9.3580783e-09
5.7311826e-07
7.8439393e-09
5.7231568e-07
6.5726924e-09
5.7171733e-07
5.4864768e-09
5.71266e-07
4.5419647e-09
5.7092298e-07
3.7060462e-09
5.7066164e-07
2.9528481e-09
5.7046346e-07
2.261637e-09
5.7031547e-07
1.6153009e-09
5.7020862e-07
9.9921804e-10
5.7013673e-07
4.0037651e-10
5.7009582e-07
-1.9334871e-10
5.7008371e-07
-7.9383572e-10
5.7009981e-07
-1.4133372e-09
5.7014502e-07
-2.0651344e-09
5.702219e-07
-2.7642884e-09
5.7033485e-07
-3.5285673e-09
5.7049062e-07
-4.379654e-09
5.7069908e-07
-5.3447792e-09
5.7097436e-07
-6.4590018e-09
5.7133679e-07
-7.7684697e-09
5.7181587e-07
-9.3349872e-09
5.724549e-07
-1.1242401e-08
5.7331918e-07
-1.3607004e-08
5.7451079e-07
-1.6590176e-08
5.7618431e-07
-2.038975e-08
5.7857452e-07
-2.5272425e-08
5.8215513e-07
-3.2497494e-08
5.8887829e-07
-4.508146e-08
6.0707322e-07
-4.6536589e-08
6.1707994e-07
3.9864278e-07
4.7959139e-08
3.0630669e-07
6.0063568e-08
6.1426771e-07
4.5386819e-08
6.3628772e-07
3.4862617e-08
6.0577695e-07
2.8387164e-08
5.9216101e-07
2.3407127e-08
5.8596801e-07
1.9422312e-08
5.8187257e-07
1.6217941e-08
5.789375e-07
1.3609477e-08
5.7682043e-07
1.1457494e-08
5.7527024e-07
9.656848e-09
5.7411633e-07
8.1274809e-09
5.7324669e-07
6.8083498e-09
5.7258513e-07
5.6524227e-09
5.7207891e-07
4.622904e-09
5.7169115e-07
3.6904863e-09
5.7139587e-07
2.8313098e-09
5.7117464e-07
2.0254231e-09
5.710145e-07
1.2555991e-09
5.7090655e-07
5.0638977e-10
5.7084503e-07
-2.366671e-10
5.7082677e-07
-9.8775756e-10
5.708509e-07
-1.7614821e-09
5.7091875e-07
-2.5735779e-09
5.71034e-07
-3.4417355e-09
5.7120301e-07
-4.3865817e-09
5.7143547e-07
-5.4329208e-09
5.7174541e-07
-6.6113428e-09
5.7215278e-07
-7.9603516e-09
5.726858e-07
-9.529238e-09
5.7338476e-07
-1.1381856e-08
5.7430751e-07
-1.3601049e-08
5.7553837e-07
-1.6295152e-08
5.7720489e-07
-1.9607811e-08
5.7949697e-07
-2.370937e-08
5.8267608e-07
-2.890262e-08
5.8734838e-07
-3.6763245e-08
5.9673891e-07
-4.8436851e-08
6.1874683e-07
-4.3178197e-08
6.1182128e-07
3.5546458e-07
4.0328516e-08
2.6597836e-07
5.8977552e-08
5.956188e-07
4.8312015e-08
6.4695324e-07
3.7571014e-08
6.1651792e-07
3.0912139e-08
5.9881988e-07
2.5877565e-08
5.9100258e-07
2.1764249e-08
5.8598588e-07
1.8377313e-08
5.8232444e-07
1.5564065e-08
5.7963368e-07
1.3202436e-08
5.7763187e-07
1.1196466e-08
5.761223e-07
9.4708377e-09
5.7497232e-07
7.966386e-09
5.7408959e-07
6.6361819e-09
5.7340911e-07
5.4425727e-09
5.7288476e-07
4.3549148e-09
5.7248353e-07
3.3477935e-09
5.7218176e-07
2.3996235e-09
5.7196267e-07
1.4915311e-09
5.7181464e-07
6.0643389e-10
5.7173012e-07
-2.7175018e-10
5.7170495e-07
-1.1588198e-09
5.7173797e-07
-2.070993e-09
5.7183092e-07
-3.0256356e-09
5.7198864e-07
-4.042067e-09
5.7221944e-07
-5.1425065e-09
5.7253591e-07
-6.3532249e-09
5.7295613e-07
-7.7059793e-09
5.7350553e-07
-9.2398108e-09
5.7421963e-07
-1.1003352e-08
5.751483e-07
-1.305786e-08
5.7636202e-07
-1.5480638e-08
5.7796115e-07
-1.8369125e-08
5.8009338e-07
-2.1847551e-08
5.829754e-07
-2.6071776e-08
5.8690031e-07
-3.1450915e-08
5.9272752e-07
-3.9617005e-08
6.04905e-07
-4.9137295e-08
6.2826712e-07
-3.85593e-08
6.0124329e-07
3.1690528e-07
3.2854327e-08
2.3312427e-07
5.5229779e-08
5.7324358e-07
4.9208703e-08
6.5297432e-07
3.9039253e-08
6.2668733e-07
3.2409129e-08
6.0545e-07
2.7497725e-08
5.9591399e-07
2.3418546e-08
5.9006506e-07
1.9984046e-08
5.8575894e-07
1.7077627e-08
5.825401e-07
1.4597039e-08
5.8011246e-07
1.2458468e-08
5.7826087e-07
1.0594636e-08
5.7683615e-07
8.9512736e-09
5.7573295e-07
7.4841575e-09
5.7487623e-07
6.1569272e-09
5.7421199e-07
4.9393249e-09
5.7370113e-07
3.8057535e-09
5.7331534e-07
2.7340993e-09
5.7303433e-07
1.7047564e-09
5.7284398e-07
6.9979508e-10
5.7273509e-07
-2.9776997e-10
5.7270252e-07
-1.3046539e-09
5.7274485e-07
-2.3379677e-09
5.7286423e-07
-3.4159014e-09
5.7306657e-07
-4.5584659e-09
5.73362e-07
-5.7883399e-09
5.7376578e-07
-7.1318671e-09
5.7429966e-07
-8.6202571e-09
5.7499392e-07
-1.0291036e-08
5.7589041e-07
-1.2189819e-08
5.7704709e-07
-1.4372706e-08
5.7854491e-07
-1.6909166e-08
5.8049761e-07
-1.9884089e-08
5.830683e-07
-2.339832e-08
5.8648963e-07
-2.7593311e-08
5.910953e-07
-3.2986684e-08
5.9812089e-07
-4.0962221e-08
6.1288054e-07
-4.764416e-08
6.3494906e-07
-3.3354021e-08
5.8695315e-07
2.8355126e-07
2.6179799e-08
2.0694476e-07
5.0108622e-08
5.493151e-07
4.8463846e-08
6.5461914e-07
3.9462639e-08
6.3568849e-07
3.3050314e-08
6.1186231e-07
2.8385651e-08
6.0057865e-07
2.4467653e-08
5.9398306e-07
2.1094597e-08
5.8913199e-07
1.8185549e-08
5.8544914e-07
1.5661246e-08
5.8263676e-07
1.3452519e-08
5.804696e-07
1.1502157e-08
5.7878651e-07
9.762611e-09
5.7747249e-07
8.1940539e-09
5.7644478e-07
6.7629181e-09
5.7564313e-07
5.4406207e-09
5.7502343e-07
4.2024763e-09
5.7455348e-07
3.0267736e-09
5.7421003e-07
1.8939775e-09
5.7397678e-07
7.8602635e-10
5.7384304e-07
-3.1430478e-10
5.7380285e-07
-1.4239998e-09
5.7385455e-07
-2.5603943e-09
5.7400063e-07
-3.7417789e-09
5.7424796e-07
-4.9880416e-09
5.7460827e-07
-6.3213823e-09
5.7509912e-07
-7.7671258e-09
5.757454e-07
-9.3546684e-09
5.7658146e-07
-1.1118586e-08
5.7765433e-07
-1.3099902e-08
5.790284e-07
-1.5347736e-08
5.8079274e-07
-1.7921423e-08
5.8307129e-07
-2.0890473e-08
5.8603735e-07
-2.4330162e-08
5.8992932e-07
-2.8375932e-08
5.9514107e-07
-3.3631801e-08
6.0337676e-07
-4.1002031e-08
6.2025077e-07
-4.4744829e-08
6.3869185e-07
-2.8179628e-08
5.7038795e-07
2.5537163e-07
2.0560842e-08
1.8638428e-07
4.455506e-08
5.2532136e-07
4.6606301e-08
6.5256801e-07
3.9117563e-08
6.4317716e-07
3.305011e-08
6.1792973e-07
2.8685045e-08
6.0494371e-07
2.5006984e-08
5.9766112e-07
2.1774616e-08
5.9236436e-07
1.8932573e-08
5.8829119e-07
1.6424756e-08
5.8514458e-07
1.419763e-08
5.8269672e-07
1.2204975e-08
5.8077917e-07
1.040697e-08
5.792705e-07
8.7692163e-09
5.7808254e-07
7.2619161e-09
5.7715043e-07
5.8590586e-09
5.7642629e-07
4.5376811e-09
5.7587486e-07
3.2772028e-09
5.7547051e-07
2.0588184e-09
5.7519516e-07
8.6494045e-10
5.7503691e-07
-3.213201e-10
5.7498911e-07
-1.5166505e-09
5.7504988e-07
-2.7380333e-09
5.7522201e-07
-4.0032477e-09
5.7551317e-07
-5.3313945e-09
5.7593641e-07
-6.7434612e-09
5.7651119e-07
-8.2629398e-09
5.7726488e-07
-9.9165115e-09
5.7823504e-07
-1.1734813e-08
5.7947263e-07
-1.3753231e-08
5.8104682e-07
-1.6012811e-08
5.8305232e-07
-1.8561459e-08
5.8561994e-07
-2.1452352e-08
5.8892825e-07
-2.4739599e-08
5.9321656e-07
-2.8569128e-08
5.989706e-07
-3.358667e-08
6.083943e-07
-4.0069783e-08
6.2673388e-07
-4.1097365e-08
6.3971943e-07
-2.3389442e-08
5.5268003e-07
2.3198218e-07
1.6004464e-08
1.7038023e-07
3.9111444e-08
5.0221503e-07
4.4074264e-08
6.4760541e-07
3.8245646e-08
6.4900571e-07
3.2612498e-08
6.2356283e-07
2.8551833e-08
6.0900437e-07
2.51456e-08
6.0106735e-07
2.2100368e-08
5.9540959e-07
1.9372222e-08
5.9101933e-07
1.6925044e-08
5.8759176e-07
1.4719812e-08
5.8490195e-07
1.2720887e-08
5.8277809e-07
1.0896307e-08
5.8109508e-07
9.217504e-09
5.7976134e-07
7.658953e-09
5.7870898e-07
6.1977555e-09
5.7788749e-07
4.8132121e-09
5.772594e-07
3.4863962e-09
5.7679732e-07
2.1997316e-09
5.7648183e-07
9.3658536e-10
5.7630006e-07
-3.1913003e-10
5.7624483e-07
-1.583343e-09
5.7631409e-07
-2.8722151e-09
5.7651088e-07
-4.2025311e-09
5.7684349e-07
-5.5920988e-09
5.7732598e-07
-7.0601639e-09
5.7797925e-07
-8.6278363e-09
5.7883255e-07
-1.0318529e-08
5.7992573e-07
-1.2158414e-08
5.8131252e-07
-1.417684e-08
5.8306524e-07
-1.6406696e-08
5.8528218e-07
-1.8884799e-08
5.8809805e-07
-2.1649376e-08
5.9169282e-07
-2.4740977e-08
5.9630817e-07
-2.8327919e-08
6.0255754e-07
-3.3035539e-08
6.1310192e-07
-3.8460392e-08
6.3215873e-07
-3.7144201e-08
6.3840324e-07
-1.9152756e-08
5.3468858e-07
2.1282943e-07
1.2411663e-08
1.5796905e-07
3.4076787e-08
4.8055074e-07
4.1196871e-08
6.4048567e-07
3.7024937e-08
6.5317759e-07
3.1891452e-08
6.2869624e-07
2.8120593e-08
6.1277522e-07
2.4987008e-08
6.0420094e-07
2.2148984e-08
5.9824762e-07
1.9561487e-08
5.9360683e-07
1.7203859e-08
5.8994939e-07
1.5049414e-08
5.870564e-07
1.3071789e-08
5.8475572e-07
1.1246293e-08
5.8292057e-07
9.5500147e-09
5.8145762e-07
7.9617792e-09
5.8029722e-07
6.4620152e-09
5.7938725e-07
5.0325776e-09
5.7868884e-07
3.6565196e-09
5.7817338e-07
2.3178371e-09
5.7782051e-07
1.0011984e-09
5.776167e-07
-3.083331e-10
5.7755436e-07
-1.6255778e-09
5.7763133e-07
-2.9655257e-09
5.7785083e-07
-4.3436175e-09
5.7822158e-07
-5.7760231e-09
5.7875839e-07
-7.2799148e-09
5.7948315e-07
-8.873727e-09
5.8042637e-07
-1.0577388e-08
5.8162939e-07
-1.2412528e-08
5.8314766e-07
-1.4402642e-08
5.8505536e-07
-1.6573116e-08
5.8745265e-07
-1.8950916e-08
5.9047584e-07
-2.156164e-08
5.9430355e-07
-2.4439511e-08
5.9918604e-07
-2.7778167e-08
6.0589619e-07
-3.212097e-08
6.1744472e-07
-3.6415929e-08
6.3645369e-07
-3.3186489e-08
6.351738e-07
-1.553113e-08
5.1703322e-07
1.972983e-07
9.6437913e-09
1.4832583e-07
2.9603315e-08
4.6059227e-07
3.8220683e-08
6.3186882e-07
3.5593485e-08
6.5580476e-07
3.0997985e-08
6.3329165e-07
2.7495532e-08
6.1627766e-07
2.4617637e-08
6.0707884e-07
2.1989113e-08
6.0087614e-07
1.9554122e-08
5.9604182e-07
1.730261e-08
5.922009e-07
1.5217902e-08
5.8914111e-07
1.3281357e-08
5.8669226e-07
1.1474581e-08
5.8472735e-07
9.7797815e-09
5.8315242e-07
8.1798899e-09
5.8189711e-07
6.6586167e-09
5.8090852e-07
5.2004471e-09
5.8014701e-07
3.7905663e-09
5.7958326e-07
2.414738e-09
5.7919634e-07
1.0591534e-09
5.7897228e-07
-2.8973938e-10
5.7890325e-07
-1.6454146e-09
5.7898701e-07
-3.0214566e-09
5.7922687e-07
-4.4317402e-09
5.7963186e-07
-5.8906005e-09
5.8021725e-07
-7.4129855e-09
5.8100553e-07
-9.014579e-09
5.8202796e-07
-1.0711876e-08
5.8332669e-07
-1.252221e-08
5.8495799e-07
-1.4463749e-08
5.869969e-07
-1.6555314e-08
5.8954422e-07
-1.8815472e-08
5.92736e-07
-2.1259854e-08
5.9674793e-07
-2.3922527e-08
6.0184871e-07
-2.7018527e-08
6.0899219e-07
-3.0960976e-08
6.2138717e-07
-3.4140408e-08
6.3963312e-07
-2.9429229e-08
6.3046262e-07
-1.2519826e-08
5.0012382e-07
1.8477847e-07
7.5520096e-09
1.4077449e-07
2.5738622e-08
4.4240696e-07
3.5316464e-08
6.222917e-07
3.4061015e-08
6.5706022e-07
3.0014911e-08
6.3733764e-07
2.6756463e-08
6.1953607e-07
2.4107019e-08
6.0972828e-07
2.1678396e-08
6.0330477e-07
1.9397279e-08
5.9832294e-07
1.7259237e-08
5.9433894e-07
1.5255312e-08
5.9114503e-07
1.3373058e-08
5.8857452e-07
1.1599289e-08
5.8650112e-07
9.9206192e-09
5.8483109e-07
8.3236566e-09
5.8349407e-07
6.7951705e-09
5.8243701e-07
5.3221933e-09
5.8161998e-07
3.8920522e-09
5.810134e-07
2.4923507e-09
5.8059604e-07
1.1109122e-09
5.8035372e-07
-2.6430085e-10
5.8027846e-07
-1.6452808e-09
5.8036799e-07
-3.0440774e-09
5.8062567e-07
-4.4728913e-09
5.8106068e-07
-5.9441535e-09
5.8168851e-07
-7.4705802e-09
5.8253196e-07
-9.0651912e-09
5.8362257e-07
-1.0741275e-08
5.8500277e-07
-1.2512298e-08
5.8672901e-07
-1.4391785e-08
5.8887638e-07
-1.6393013e-08
5.9154545e-07
-1.8527685e-08
5.9487067e-07
-2.0804439e-08
5.9902468e-07
-2.3262249e-08
6.0430652e-07
-2.6129138e-08
6.1185908e-07
-2.9656454e-08
6.2491449e-07
-3.1795327e-08
6.41772e-07
-2.599462e-08
6.2466192e-07
-1.0072115e-08
4.8420131e-07
1.7470636e-07
5.9957337e-09
1.3477955e-07
2.2460864e-08
4.2594342e-07
3.2585965e-08
6.1216758e-07
3.2507827e-08
6.5713846e-07
2.9002135e-08
6.4084319e-07
2.5963366e-08
6.2257478e-07
2.3510321e-08
6.1218133e-07
2.126426e-08
6.0555083e-07
1.9131015e-08
6.0045618e-07
1.7107055e-08
5.963629e-07
1.5188915e-08
5.9306317e-07
1.3368888e-08
5.9039454e-07
1.1637912e-08
5.882321e-07
9.9862344e-09
5.8648276e-07
8.4036253e-09
5.8507668e-07
6.8795849e-09
5.8396105e-07
5.4035017e-09
5.8309607e-07
3.9647526e-09
5.8245215e-07
2.5527552e-09
5.8200804e-07
1.1569822e-09
5.8174949e-07
-2.3304872e-10
5.8166849e-07
-1.6278004e-09
5.8176274e-07
-3.0377483e-09
5.8203562e-07
-4.4734045e-09
5.8249633e-07
-5.9453256e-09
5.8316043e-07
-7.4640938e-09
5.8405073e-07
-9.0402611e-09
5.8519874e-07
-1.0684243e-08
5.8664675e-07
-1.240616e-08
5.8845093e-07
-1.4215658e-08
5.9068588e-07
-1.612153e-08
5.9345132e-07
-1.8130201e-08
5.9687934e-07
-2.0246384e-08
6.0114086e-07
-2.2517464e-08
6.065776e-07
-2.517336e-08
6.1451498e-07
-2.8287816e-08
6.2802894e-07
-2.9494724e-08
6.429789e-07
-2.293779e-08
6.1810498e-07
-8.1194884e-09
4.6938301e-07
1.6658687e-07
4.8522548e-09
1.2992823e-07
1.9711438e-08
4.1108616e-07
3.0077352e-08
6.0180296e-07
3.0986116e-08
6.5622989e-07
2.7998959e-08
6.4383018e-07
2.5158332e-08
6.2541533e-07
2.286949e-08
6.1447016e-07
2.0784598e-08
6.0763573e-07
1.8788458e-08
6.0245232e-07
1.6874489e-08
5.9827687e-07
1.504266e-08
5.94895e-07
1.3288697e-08
5.9214851e-07
1.1606641e-08
5.8991415e-07
9.9896107e-09
5.8809979e-07
8.4299958e-09
5.8663629e-07
6.9196472e-09
5.854714e-07
5.4500558e-09
5.8456566e-07
4.0124859e-09
5.8388972e-07
2.5980722e-09
5.8342245e-07
1.1978832e-09
5.8314968e-07
-1.9703857e-10
5.8306342e-07
-1.5956487e-09
5.8316135e-07
-3.0068804e-09
5.8344685e-07
-4.4396149e-09
5.8392907e-07
-5.902637e-09
5.8462345e-07
-7.4045651e-09
5.8555265e-07
-8.9537479e-09
5.8674792e-07
-1.0558121e-08
5.8825112e-07
-1.2225021e-08
5.9011783e-07
-1.3960998e-08
5.9242186e-07
-1.5771393e-08
5.9526171e-07
-1.7658878e-08
5.9876683e-07
-1.9627033e-08
6.0310902e-07
-2.1733348e-08
6.0868391e-07
-2.4197692e-08
6.1697932e-07
-2.6913613e-08
6.3074487e-07
-2.7310533e-08
6.4337582e-07
-2.0267979e-08
6.1106243e-07
-6.5862517e-09
4.5570128e-07
1.6000062e-07
4.0192129e-09
1.2591014e-07
1.7417815e-08
3.9768987e-07
2.7804482e-08
5.9141795e-07
2.9526356e-08
6.5450837e-07
2.7028384e-08
6.4632798e-07
2.4368337e-08
6.2807527e-07
2.2214477e-08
6.1662401e-07
2.0268311e-08
6.0958189e-07
1.8396025e-08
6.0432461e-07
1.6585026e-08
6.0008787e-07
1.4836949e-08
5.9664308e-07
1.3149844e-08
5.9383561e-07
1.1519968e-08
5.9154403e-07
9.9426152e-09
5.8967714e-07
8.4122629e-09
5.8816664e-07
6.9227217e-09
5.8696094e-07
5.4672994e-09
5.8602108e-07
4.0389449e-09
5.8531808e-07
2.6303653e-09
5.8483103e-07
1.2341201e-09
5.8454593e-07
-1.5730561e-10
5.8445484e-07
-1.5514362e-09
5.8455548e-07
-2.9557475e-09
5.8485116e-07
-4.3775995e-09
5.8535092e-07
-5.824158e-09
5.8607001e-07
-7.3022923e-09
5.8703079e-07
-8.8184482e-09
5.8826407e-07
-1.0378494e-08
5.8981117e-07
-1.1987542e-08
5.9172688e-07
-1.3649778e-08
5.9408409e-07
-1.5368022e-08
5.9697996e-07
-1.7142562e-08
6.0054137e-07
-1.897813e-08
6.0494459e-07
-2.0942372e-08
6.1064815e-07
-2.3233875e-08
6.1927082e-07
-2.5573387e-08
6.3308438e-07
-2.5282336e-08
6.4308477e-07
-1.7966541e-08
6.0374663e-07
-5.3980051e-09
4.4313275e-07
1.5460261e-07
3.413936e-09
1.2249753e-07
1.550614e-08
3.8560041e-07
2.5760632e-08
5.8116554e-07
2.8143803e-08
6.5212574e-07
2.6102068e-08
6.4836954e-07
2.3609046e-08
6.3056815e-07
2.1565387e-08
6.1866764e-07
1.9736438e-08
6.1141085e-07
1.7973966e-08
6.0608708e-07
1.6257421e-08
6.0180441e-07
1.4588623e-08
5.9831188e-07
1.2967062e-08
5.9545717e-07
1.1390487e-08
5.931206e-07
9.8557687e-09
5.9121186e-07
8.3589904e-09
5.8966342e-07
6.8955462e-09
5.8842438e-07
5.4602714e-09
5.8745636e-07
4.047577e-09
5.8673077e-07
2.6515712e-09
5.8622704e-07
1.2661658e-09
5.8593133e-07
-1.1482944e-10
5.8583584e-07
-1.4976205e-09
5.8593827e-07
-2.888347e-09
5.8624189e-07
-4.292992e-09
5.8675556e-07
-5.7172833e-09
5.874943e-07
-7.1665775e-09
5.8848008e-07
-8.6457263e-09
5.8974322e-07
-1.0158931e-08
5.9132437e-07
-1.1709595e-08
5.9327754e-07
-1.3300181e-08
5.9567468e-07
-1.4931785e-08
5.9861156e-07
-1.6603474e-08
6.0221306e-07
-1.8322855e-08
6.0666397e-07
-2.0166504e-08
6.124918e-07
-2.2302143e-08
6.2140646e-07
-2.4291774e-08
6.3507401e-07
-2.3426792e-08
6.4221979e-07
-1.599939e-08
5.9631923e-07
-4.4863233e-09
4.3161968e-07
1.5011629e-07
2.9717998e-09
1.195273e-07
1.3907903e-08
3.7466756e-07
2.3927837e-08
5.711482e-07
2.6843443e-08
6.4921091e-07
2.5224178e-08
6.4998865e-07
2.2888245e-08
6.3290391e-07
2.093486e-08
6.2062099e-07
1.9203659e-08
6.1314205e-07
1.7537287e-08
6.0775346e-07
1.5906192e-08
6.0343551e-07
1.4311188e-08
5.9990688e-07
1.2752511e-08
5.9701585e-07
1.1228849e-08
5.9464426e-07
9.73815e-09
5.9270256e-07
8.2776932e-09
5.9112388e-07
6.8441154e-09
5.8985796e-07
5.4335039e-09
5.8886697e-07
4.0415083e-09
5.8812276e-07
2.6634539e-09
5.8760509e-07
1.29445e-09
5.8730034e-07
-7.050918e-11
5.8720079e-07
-1.4364464e-09
5.8730421e-07
-2.8083082e-09
5.8761375e-07
-4.1908626e-09
5.8813812e-07
-5.5885936e-09
5.8889203e-07
-7.0055831e-09
5.8989707e-07
-8.4453855e-09
5.9118303e-07
-9.9109026e-09
5.9278989e-07
-1.1404275e-08
5.9477091e-07
-1.2926781e-08
5.9719718e-07
-1.4478446e-08
6.0016323e-07
-1.6058085e-08
6.037927e-07
-1.7677334e-08
6.0828322e-07
-1.9419565e-08
6.1423403e-07
-2.1414095e-08
6.2340099e-07
-2.3082031e-08
6.3674194e-07
-2.1744897e-08
6.4088266e-07
-1.4325392e-08
5.8889973e-07
-3.7913033e-09
4.2108559e-07
1.4632498e-07
2.6439731e-09
1.1688517e-07
1.2563322e-08
3.6475205e-07
2.2283243e-08
5.6143146e-07
2.5623743e-08
6.458715e-07
2.439409e-08
6.5121817e-07
2.2208398e-08
6.3508938e-07
2.0330075e-08
6.2249926e-07
1.8679747e-08
6.1479238e-07
1.7096745e-08
6.0933647e-07
1.5542274e-08
6.0498998e-07
1.4015203e-08
6.0143395e-07
1.2515991e-08
5.9851506e-07
1.1043844e-08
5.9611641e-07
9.5974067e-09
5.94149e-07
8.1748079e-09
5.9254648e-07
6.7736337e-09
5.9125913e-07
5.3909731e-09
5.9024963e-07
4.023502e-09
5.8949024e-07
2.6675806e-09
5.8896101e-07
1.3193543e-09
5.8864856e-07
-2.5146533e-11
5.885453e-07
-1.3699096e-09
5.8864897e-07
-2.7188389e-09
5.8896268e-07
-4.0756557e-09
5.8949493e-07
-5.4437931e-09
5.9026017e-07
-6.826286e-09
5.9127956e-07
-8.2256613e-09
5.925824e-07
-9.643843e-09
5.9420807e-07
-1.1082087e-08
5.9620916e-07
-1.2540916e-08
5.9865601e-07
-1.4019808e-08
6.0164212e-07
-1.5518095e-08
6.0529098e-07
-1.705208e-08
6.098172e-07
-1.8709212e-08
6.1589116e-07
-2.0574945e-08
6.2526673e-07
-2.1949053e-08
6.3811605e-07
-2.0227775e-08
6.3916138e-07
-1.2901968e-08
5.8157392e-07
-3.2625424e-09
4.1144616e-07
1.4306244e-07
2.394722e-09
1.1449263e-07
1.1422441e-08
3.5572885e-07
2.0803186e-08
5.5205457e-07
2.4479536e-08
6.4219661e-07
2.3608394e-08
6.5208925e-07
2.1568535e-08
6.3712898e-07
1.9754318e-08
6.2431339e-07
1.8170764e-08
6.1637593e-07
1.665976e-08
6.1084747e-07
1.5173668e-08
6.0647607e-07
1.3708725e-08
6.0289889e-07
1.2265218e-08
5.9995857e-07
1.0842574e-08
5.9753906e-07
9.4398424e-09
5.9555173e-07
8.0557282e-09
5.9393059e-07
6.6885202e-09
5.9262634e-07
5.3360904e-09
5.9160206e-07
3.9959473e-09
5.9083038e-07
2.6653132e-09
5.9029164e-07
1.3412116e-09
5.8997266e-07
2.0559169e-11
5.8986595e-07
-1.2997414e-09
5.8996927e-07
-2.6227059e-09
5.9028564e-07
-3.9511729e-09
5.908234e-07
-5.2877075e-09
5.915967e-07
-6.6345047e-09
5.9262636e-07
-7.9933024e-09
5.939412e-07
-9.3653177e-09
5.9558009e-07
-1.0751225e-08
5.9759507e-07
-1.215113e-08
6.0005592e-07
-1.356436e-08
6.0305535e-07
-1.4991348e-08
6.0671797e-07
-1.6453244e-08
6.112791e-07
-1.8038565e-08
6.1747649e-07
-1.978541e-08
6.2701357e-07
-2.0892049e-08
6.3922269e-07
-1.8861199e-08
6.3713053e-07
-1.1688847e-08
5.7440157e-07
-2.8590289e-09
4.0261635e-07
1.4020341e-07
2.1986722e-09
1.1229651e-07
1.0444763e-08
3.4748807e-07
1.9465484e-08
5.4303851e-07
2.3404075e-08
6.3825994e-07
2.286236e-08
6.52631e-07
2.0965679e-08
6.3902536e-07
1.9208229e-08
6.2607073e-07
1.7680051e-08
6.1790411e-07
1.6231177e-08
6.1229635e-07
1.4806025e-08
6.0790122e-07
1.3397736e-08
6.0430718e-07
1.2006131e-08
6.0135017e-07
1.0630653e-08
5.9891453e-07
9.2705463e-09
5.9691184e-07
7.9248824e-09
5.9527626e-07
6.5924519e-09
5.9395877e-07
5.2717237e-09
5.9292278e-07
3.9608685e-09
5.9214123e-07
2.6578125e-09
5.915947e-07
1.3603091e-09
5.9127017e-07
6.6019161e-11
5.9116024e-07
-1.2274065e-09
5.912627e-07
-2.52224e-09
5.9158047e-07
-3.8205915e-09
5.9212175e-07
-5.1243245e-09
5.9290043e-07
-6.4349778e-09
5.9393701e-07
-7.7537022e-09
5.9525992e-07
-9.0812298e-09
5.9690762e-07
-1.0417891e-08
5.9893173e-07
-1.176362e-08
6.0140165e-07
-1.3117894e-08
6.0440962e-07
-1.448266e-08
6.0808274e-07
-1.588372e-08
6.1268016e-07
-1.74076e-08
6.1900036e-07
-1.9043288e-08
6.2864926e-07
-1.9906742e-08
6.4008614e-07
-1.7628744e-08
6.3485253e-07
-1.0650073e-08
5.674229e-07
-2.5483125e-09
3.9451459e-07
1.376551e-07
2.0383426e-09
1.1026117e-07
9.5981362e-09
3.3993447e-07
1.8250485e-08
5.3439172e-07
2.239031e-08
6.3412258e-07
2.2150921e-08
6.5287055e-07
2.0395872e-08
6.4078007e-07
1.8690766e-08
6.2777569e-07
1.7209032e-08
6.1938583e-07
1.5813919e-08
6.1369147e-07
1.4443169e-08
6.0927198e-07
1.3086544e-08
6.0566381e-07
1.1743184e-08
6.0269353e-07
1.0412419e-08
6.002453e-07
9.0935427e-09
5.9823071e-07
7.7858343e-09
5.9658396e-07
6.4884285e-09
5.9525618e-07
5.2002381e-09
5.9421097e-07
3.9199485e-09
5.9342152e-07
2.6460502e-09
5.928686e-07
1.376892e-09
5.9253933e-07
1.1074737e-10
5.9242638e-07
-1.154116e-09
5.9252756e-07
-2.4193602e-09
5.9284572e-07
-3.6865058e-09
5.933889e-07
-4.9568624e-09
5.9417079e-07
-6.2314695e-09
5.9521162e-07
-7.5110579e-09
5.9653951e-07
-8.7960491e-09
5.9819261e-07
-1.0086607e-08
6.0022228e-07
-1.138267e-08
6.0269771e-07
-1.2684078e-08
6.0571103e-07
-1.3994559e-08
6.0939322e-07
-1.5344087e-08
6.1402969e-07
-1.6814264e-08
6.2047054e-07
-1.8344681e-08
6.3017968e-07
-1.8986971e-08
6.4072843e-07
-1.6513722e-08
6.3237928e-07
-9.754503e-09
5.6066368e-07
-2.3052845e-09
3.8706537e-07
1.3534982e-07
1.9020654e-09
1.0836262e-07
8.8573962e-09
3.3298638e-07
1.7141348e-08
5.2611439e-07
2.1431591e-08
6.2983545e-07
2.1469237e-08
6.5283324e-07
1.9854843e-08
6.4239409e-07
1.8199907e-08
6.2943044e-07
1.675784e-08
6.2082787e-07
1.5409522e-08
6.150398e-07
1.408753e-08
6.1059397e-07
1.277813e-08
6.0697321e-07
1.1479626e-08
6.0399203e-07
1.0191148e-08
6.0153378e-07
8.9119453e-09
5.9950992e-07
7.6413939e-09
5.9785452e-07
6.3788502e-09
5.9651872e-07
5.1235468e-09
5.9546628e-07
3.8745609e-09
5.9467051e-07
2.6308261e-09
5.9411233e-07
1.3911677e-09
5.9377898e-07
1.5435428e-10
5.936632e-07
-1.0808474e-09
5.9376276e-07
-2.3156088e-09
5.9408048e-07
-3.5509837e-09
5.9462427e-07
-4.7878542e-09
5.9540766e-07
-6.0268915e-09
5.9645066e-07
-7.2685395e-09
5.9778116e-07
-8.5130431e-09
5.9943711e-07
-9.7605253e-09
6.0146977e-07
-1.1011049e-08
6.0394823e-07
-1.2264962e-08
6.0696494e-07
-1.3527914e-08
6.1065617e-07
-1.4833367e-08
6.1533514e-07
-1.6255314e-08
6.2189249e-07
-1.7684861e-08
6.3160922e-07
-1.8125816e-08
6.4116939e-07
-1.5500367e-08
6.2975383e-07
-8.9759311e-09
5.5413924e-07
-2.1109735e-09
3.8020041e-07
1.3323884e-07
1.7823022e-09
1.0658444e-07
8.2030139e-09
3.2657409e-07
1.612394e-08
5.1820128e-07
2.0522003e-08
6.2544127e-07
2.0812983e-08
6.5254284e-07
1.9338408e-08
6.4386826e-07
1.7733133e-08
6.3103548e-07
1.6325778e-08
6.2223518e-07
1.5018548e-08
6.1634703e-07
1.3740508e-08
6.1187201e-07
1.2474458e-08
6.0823926e-07
1.1217742e-08
6.0524875e-07
9.9692418e-09
6.0278228e-07
8.7281058e-09
6.0075105e-07
7.493729e-09
5.9908889e-07
6.2655984e-09
5.9774685e-07
5.0431684e-09
5.9668871e-07
3.8258069e-09
5.9588787e-07
2.6127883e-09
5.9532535e-07
1.403312e-09
5.9498846e-07
1.965386e-10
5.9486997e-07
-1.0083686e-09
5.9496767e-07
-2.2121946e-09
5.9528431e-07
-3.4156314e-09
5.9582771e-07
-4.6192399e-09
5.9661127e-07
-5.8234286e-09
5.9765485e-07
-7.0284591e-09
5.9898619e-07
-8.234497e-09
6.0064315e-07
-9.4417107e-09
6.0267698e-07
-1.0650362e-08
6.0515688e-07
-1.1861404e-08
6.0817598e-07
-1.3082442e-08
6.118772e-07
-1.4349605e-08
6.166023e-07
-1.5726914e-08
6.232698e-07
-1.705886e-08
6.3294117e-07
-1.7316324e-08
6.4142685e-07
-1.4574465e-08
6.2701197e-07
-8.2927611e-09
5.4785754e-07
-1.951378e-09
3.7385903e-07
1.3128747e-07
1.674336e-09
1.0491492e-07
7.6198727e-09
3.2063835e-07
1.518651e-08
5.1064385e-07
1.9656453e-08
6.2097611e-07
2.0178458e-08
6.5202172e-07
1.8842697e-08
6.4520361e-07
1.7287737e-08
6.3259015e-07
1.5911642e-08
6.2361122e-07
1.4640893e-08
6.1761779e-07
1.340276e-08
6.1311015e-07
1.2176718e-08
6.094653e-07
1.0959064e-08
6.064664e-07
9.7484028e-09
6.0399294e-07
8.543751e-09
6.019557e-07
7.3444714e-09
6.0028817e-07
6.1501155e-09
5.9894121e-07
4.9602834e-09
5.9787854e-07
3.7745526e-09
5.970736e-07
2.5924534e-09
5.9650745e-07
1.4134728e-09
5.9616744e-07
2.3707597e-10
5.9604637e-07
-9.3726541e-10
5.9614201e-07
-2.1100382e-09
5.9645708e-07
-3.2816604e-09
5.9699933e-07
-4.4524583e-09
5.9778207e-07
-5.622662e-09
5.9882505e-07
-6.7924289e-09
6.0015596e-07
-7.9619144e-09
6.0181263e-07
-9.131386e-09
6.0384645e-07
-1.0301347e-08
6.0632684e-07
-1.1473415e-08
6.0934805e-07
-1.2657102e-08
6.1306089e-07
-1.3890295e-08
6.178355e-07
-1.5225055e-08
6.2460456e-07
-1.6461863e-08
6.3417798e-07
-1.6551958e-08
6.4151695e-07
-1.3723591e-08
6.2418361e-07
-7.687471e-09
5.4182142e-07
-1.8163912e-09
3.6798795e-07
1.2947107e-07
1.5753007e-09
1.0334527e-07
7.096235e-09
3.1512879e-07
1.4319313e-08
5.0343156e-07
1.883063e-08
6.1647064e-07
1.9562581e-08
6.5129104e-07
1.8364244e-08
6.4640154e-07
1.6861019e-08
6.3409302e-07
1.551395e-08
6.2495821e-07
1.4276014e-08
6.1885573e-07
1.3074411e-08
6.1431176e-07
1.1885525e-08
6.1065419e-07
1.0704547e-08
6.0764738e-07
9.5297819e-09
6.051677e-07
8.3601046e-09
6.0312538e-07
7.1948141e-09
6.0145346e-07
6.0334793e-09
6.0010254e-07
4.8757888e-09
5.9903623e-07
3.7214652e-09
5.9822792e-07
2.5702261e-09
5.9765869e-07
1.4217746e-09
5.9731589e-07
2.7580744e-10
5.9719233e-07
-8.6796914e-10
5.9728579e-07
-2.009817e-09
5.9759893e-07
-3.1499521e-09
5.9813947e-07
-4.2885353e-09
5.9892065e-07
-5.4256827e-09
5.999622e-07
-6.5615048e-09
6.0129178e-07
-7.696192e-09
6.0294732e-07
-8.8301407e-09
6.049804e-07
-9.9641176e-09
6.0746082e-07
-1.1100431e-08
6.1048437e-07
-1.2250384e-08
6.1421084e-07
-1.3452686e-08
6.190378e-07
-1.4745819e-08
6.2589769e-07
-1.5889426e-08
6.3532158e-07
-1.5826826e-08
6.4145435e-07
-1.2937116e-08
6.212939e-07
-7.1460002e-09
5.360303e-07
-1.6988696e-09
3.6254082e-07
1.2777221e-07
1.4834933e-09
1.0186839e-07
6.6229107e-09
3.1000257e-07
1.3514221e-08
4.9655285e-07
1.8040896e-08
6.1195103e-07
1.8962822e-08
6.5037085e-07
1.7900017e-08
6.4746397e-07
1.6450395e-08
6.3554224e-07
1.5131087e-08
6.262774e-07
1.3923095e-08
6.2006372e-07
1.275522e-08
6.1547964e-07
1.1601077e-08