/*--------------------------------*- C++ -*----------------------------------*\
  =========                 |
  \\      /  F ield         | OpenFOAM: The Open Source CFD Toolbox
   \\    /   O peration     | Website:  https://openfoam.org
    \\  /    A nd           | Version:  10
     \\/     M anipulation  |
\*---------------------------------------------------------------------------*/
FoamFile
{
    format      ascii;
    class       surfaceScalarField;
    location    "0.15";
    object      phi_0;
}
// * * * * * * * * * * * * * * * * * * * * * * * * * * * * * * * * * * * * * //

dimensions      [1 0 -1 0 0 0 0];

internalField   nonuniform List<scalar> 
7860
(
3.9894735e-08
5.2881329e-07
1.2191762e-08
5.9641076e-07
7.4269127e-09
5.7347259e-07
5.4982974e-09
5.7063631e-07
4.1138421e-09
5.7009212e-07
3.2000011e-09
5.6962148e-07
2.5580466e-09
5.6934958e-07
2.0782854e-09
5.6918737e-07
1.7083865e-09
5.690775e-07
1.4158239e-09
5.6900015e-07
1.1788001e-09
5.689446e-07
9.8255002e-10
5.6890382e-07
8.1672805e-10
5.6887339e-07
6.7384203e-10
5.6885045e-07
5.4831653e-10
5.6883309e-07
4.3588892e-10
5.6881999e-07
3.3320334e-10
5.6881024e-07
2.3753032e-10
5.6880323e-07
1.4656466e-10
5.6879852e-07
5.8272965e-11
5.6879584e-07
-2.9229858e-11
5.6879505e-07
-1.1778812e-10
5.6879611e-07
-2.093108e-10
5.6879907e-07
-3.0587785e-10
5.6880412e-07
-4.0987247e-10
5.6881155e-07
-5.2414423e-10
5.6882183e-07
-6.522297e-10
5.6883565e-07
-7.9866548e-10
5.68854e-07
-9.6944875e-10
5.6887835e-07
-1.1727439e-09
5.6891087e-07
-1.4200559e-09
5.6895489e-07
-1.7282001e-09
5.6901573e-07
-2.12216e-09
5.6910156e-07
-2.6418228e-09
5.6922727e-07
-3.369605e-09
5.6943541e-07
-4.4610903e-09
5.6979913e-07
-6.0067949e-09
5.7025337e-07
-9.5060398e-09
5.7220695e-07
-2.9573468e-08
5.8877517e-07
5.3913445e-07
5.9669548e-08
4.6914376e-07
3.6662462e-08
6.1941784e-07
2.2624773e-08
5.8751027e-07
1.6249999e-08
5.7701109e-07
1.228686e-08
5.7405526e-07
9.6026483e-09
5.723057e-07
7.6739989e-09
5.7127823e-07
6.2328695e-09
5.706285e-07
5.1236547e-09
5.7018671e-07
4.2462748e-09
5.6987753e-07
3.5353888e-09
5.6965549e-07
2.9468214e-09
5.6949239e-07
2.4495209e-09
5.6937069e-07
2.0210055e-09
5.6927897e-07
1.6445541e-09
5.6920954e-07
1.3073824e-09
5.6915716e-07
9.9942647e-10
5.691182e-07
7.1250078e-10
5.6909015e-07
4.3969245e-10
5.6907133e-07
1.7490251e-10
5.6906063e-07
-8.7522827e-11
5.6905748e-07
-3.5311444e-10
5.690617e-07
-6.2759216e-10
5.6907355e-07
-9.1719633e-10
5.6909372e-07
-1.2290742e-09
5.6912343e-07
-1.5717712e-09
5.6916453e-07
-1.9558932e-09
5.6921977e-07
-2.3950451e-09
5.6929315e-07
-2.9072195e-09
5.6939053e-07
-3.5169186e-09
5.6952057e-07
-4.2585721e-09
5.6969655e-07
-5.1825573e-09
5.6993972e-07
-6.3655134e-09
5.7028451e-07
-7.9261777e-09
5.7078794e-07
-1.0067792e-08
5.7157702e-07
-1.3196524e-08
5.7292786e-07
-1.8127179e-08
5.7518403e-07
-2.816974e-08
5.8224951e-07
-4.5796815e-08
6.0640225e-07
4.9333763e-07
6.0004307e-08
4.091395e-07
5.0480753e-08
6.2894139e-07
3.3364442e-08
6.0462657e-07
2.4811351e-08
5.8556417e-07
1.9316823e-08
5.7954979e-07
1.5325165e-08
5.7629735e-07
1.2354639e-08
5.7424875e-07
1.0095873e-08
5.7288727e-07
8.3354784e-09
5.7194711e-07
6.9303222e-09
5.7128269e-07
5.7843151e-09
5.708015e-07
4.8306813e-09
5.7044603e-07
4.0216451e-09
5.7017973e-07
3.3222102e-09
5.699784e-07
2.7061013e-09
5.6982565e-07
2.1530747e-09
5.6971018e-07
1.6470931e-09
5.6962418e-07
1.1750451e-09
5.695622e-07
7.2581111e-10
5.6952056e-07
2.8955043e-10
5.6949689e-07
-1.4287642e-10
5.6948991e-07
-5.8041349e-10
5.6949924e-07
-1.0323026e-09
5.6952544e-07
-1.5086038e-09
5.6957002e-07
-2.0207981e-09
5.6963562e-07
-2.5825466e-09
5.6972627e-07
-3.2107027e-09
5.6984792e-07
-3.9267232e-09
5.7000917e-07
-4.7587181e-09
5.7022252e-07
-5.7445146e-09
5.7050636e-07
-6.9363158e-09
5.7088835e-07
-8.4083397e-09
5.7141174e-07
-1.0270008e-08
5.7214618e-07
-1.2683221e-08
5.7320115e-07
-1.5881175e-08
5.7477497e-07
-2.0225819e-08
5.772725e-07
-2.6695082e-08
5.8165329e-07
-3.8934855e-08
5.9448928e-07
-4.8157571e-08
6.1562496e-07
4.4518006e-07
5.4873199e-08
3.5426639e-07
5.7442245e-08
6.2637237e-07
4.0457824e-08
6.2161097e-07
3.0769219e-08
5.9525278e-07
2.4633428e-08
5.8568558e-07
1.9942812e-08
5.8098797e-07
1.6303836e-08
5.7788773e-07
1.3458014e-08
5.7573309e-07
1.1193212e-08
5.7421191e-07
9.3577107e-09
5.7311819e-07
7.8436112e-09
5.723156e-07
6.5724096e-09
5.7171723e-07
5.4862443e-09
5.7126589e-07
4.5417872e-09
5.7092286e-07
3.7059275e-09
5.7066151e-07
2.9527917e-09
5.7046332e-07
2.2616456e-09
5.7031532e-07
1.6153766e-09
5.7020847e-07
9.9936222e-10
5.7013657e-07
4.0058999e-10
5.7009566e-07
-1.9306571e-10
5.7008356e-07
-7.934838e-10
5.7009966e-07
-1.4129175e-09
5.7014487e-07
-2.0646489e-09
5.7022176e-07
-2.7637397e-09
5.7033471e-07
-3.5279588e-09
5.7049049e-07
-4.37899e-09
5.7069895e-07
-5.3440648e-09
5.7097425e-07
-6.458243e-09
5.713367e-07
-7.7676735e-09
5.7181579e-07
-9.3341616e-09
5.7245483e-07
-1.1241555e-08
5.7331913e-07
-1.3606148e-08
5.7451077e-07
-1.6589323e-08
5.7618432e-07
-2.0388914e-08
5.7857457e-07
-2.5271622e-08
5.8215521e-07
-3.2496715e-08
5.8887838e-07
-4.5080687e-08
6.0707325e-07
-4.6536079e-08
6.1708036e-07
3.9864398e-07
4.7958821e-08
3.063077e-07
6.0062942e-08
6.1426831e-07
4.5386173e-08
6.3628772e-07
3.4861995e-08
6.0577694e-07
2.8386538e-08
5.9216104e-07
2.3406503e-08
5.85968e-07
1.9421702e-08
5.8187253e-07
1.6217358e-08
5.7893743e-07
1.3608929e-08
5.7682034e-07
1.1456991e-08
5.7527013e-07
9.6563989e-09
5.7411619e-07
8.1270928e-09
5.7324653e-07
6.8080297e-09
5.7258496e-07
5.6521765e-09
5.7207871e-07
4.6227369e-09
5.7169094e-07
3.6904029e-09
5.7139565e-07
2.8313136e-09
5.7117441e-07
2.0255169e-09
5.7101426e-07
1.2557849e-09
5.7090631e-07
5.0666869e-10
5.7084478e-07
-2.3629478e-10
5.7082652e-07
-9.8729251e-10
5.7085065e-07
-1.7609257e-09
5.7091851e-07
-2.5729328e-09
5.7103376e-07
-3.441005e-09
5.7120278e-07
-4.3857704e-09
5.7143526e-07
-5.4320341e-09
5.7174522e-07
-6.6103874e-09
5.721526e-07
-7.9593353e-09
5.7268565e-07
-9.5281697e-09
5.7338463e-07
-1.1380746e-08
5.7430741e-07
-1.359991e-08
5.755383e-07
-1.6293996e-08
5.7720486e-07
-1.9606655e-08
5.7949698e-07
-2.3708231e-08
5.8267614e-07
-2.8901513e-08
5.8734849e-07
-3.6762141e-08
5.9673901e-07
-4.8435776e-08
6.1874689e-07
-4.3177553e-08
6.1182213e-07
3.5546643e-07
4.0328155e-08
2.6597974e-07
5.8976756e-08
5.9561985e-07
4.8311141e-08
6.4695331e-07
3.7570184e-08
6.1651787e-07
3.0911316e-08
5.988199e-07
2.5876748e-08
5.9100257e-07
2.1763453e-08
5.8598583e-07
1.8376551e-08
5.8232433e-07
1.556335e-08
5.7963354e-07
1.320178e-08
5.776317e-07
1.1195879e-08
5.7612209e-07
9.4703293e-09
5.7497208e-07
7.9659649e-09
5.7408932e-07
6.6358556e-09
5.7340882e-07
5.4423479e-09
5.7288445e-07
4.3547972e-09
5.724832e-07
3.3477875e-09
5.7218142e-07
2.3997328e-09
5.7196232e-07
1.4917582e-09
5.7181428e-07
6.0678022e-10
5.7172976e-07
-2.7128422e-10
5.7170459e-07
-1.1582349e-09
5.717376e-07
-2.0702909e-09
5.7183056e-07
-3.0248193e-09
5.7198829e-07
-4.0411407e-09
5.722191e-07
-5.1414757e-09
5.7253559e-07
-6.3520964e-09
5.7295584e-07
-7.7047613e-09
5.7350526e-07
-9.2385128e-09
5.742194e-07
-1.1001985e-08
5.751481e-07
-1.3056437e-08
5.7636186e-07
-1.5479174e-08
5.7796103e-07
-1.8367635e-08
5.8009332e-07
-2.1846054e-08
5.829754e-07
-2.6070295e-08
5.8690038e-07
-3.1449456e-08
5.9272765e-07
-3.961552e-08
6.0490507e-07
-4.9135895e-08
6.2826726e-07
-3.855853e-08
6.0124477e-07
3.169079e-07
3.2853928e-08
2.3312606e-07
5.5228809e-08
5.732452e-07
4.920757e-08
6.5297455e-07
3.9038177e-08
6.2668723e-07
3.2408079e-08
6.0544999e-07
2.7496686e-08
5.9591397e-07
2.3417535e-08
5.9006498e-07
1.998308e-08
5.8575879e-07
1.7076721e-08
5.825399e-07
1.4596207e-08
5.8011221e-07
1.2457723e-08
5.7826057e-07
1.059399e-08
5.7683581e-07
8.950736e-09
5.7573257e-07
7.483738e-09
5.7487582e-07
6.1566338e-09
5.7421156e-07
4.9391646e-09
5.7370067e-07
3.8057318e-09
5.7331485e-07
2.7342207e-09
5.7303383e-07
1.7050239e-09
5.7284348e-07
7.0021066e-10
5.7273457e-07
-2.9720575e-10
5.72702e-07
-1.3039417e-09
5.7274434e-07
-2.3371096e-09
5.7286373e-07
-3.4149009e-09
5.7306608e-07
-4.5573279e-09
5.7336153e-07
-5.787071e-09
5.7376534e-07
-7.1304752e-09
5.7429924e-07
-8.618752e-09
5.7499354e-07
-1.0289429e-08
5.7589007e-07
-1.2188124e-08
5.7704679e-07
-1.4370937e-08
5.7854468e-07
-1.6907341e-08
5.8049744e-07
-1.9882226e-08
5.8306821e-07
-2.3396443e-08
5.8648962e-07
-2.7591442e-08
5.9109538e-07
-3.2984817e-08
5.9812103e-07
-4.0960303e-08
6.1288056e-07
-4.7642418e-08
6.3494937e-07
-3.3353132e-08
5.8695548e-07
2.8355477e-07
2.6179363e-08
2.06947e-07
5.0107474e-08
5.4931745e-07
4.8462424e-08
6.5461965e-07
3.9461273e-08
6.3568832e-07
3.3049e-08
6.1186225e-07
2.8384359e-08
6.0057861e-07
2.4466397e-08
5.9398294e-07
2.1093399e-08
5.8913179e-07
1.8184426e-08
5.8544887e-07
1.5660214e-08
5.8263642e-07
1.3451594e-08
5.8046919e-07
1.1501352e-08
5.7878606e-07
9.761939e-09
5.7747199e-07
8.1935259e-09
5.7644423e-07
6.7625435e-09
5.7564254e-07
5.4404078e-09
5.7502281e-07
4.2024318e-09
5.7455283e-07
3.0269028e-09
5.7420936e-07
1.8942842e-09
5.7397609e-07
7.8651297e-10
5.7384234e-07
-3.1363744e-10
5.7380215e-07
-1.4231524e-09
5.7385385e-07
-2.5593692e-09
5.7399995e-07
-3.74058e-09
5.7424729e-07
-4.9866745e-09
5.7460763e-07
-6.3198545e-09
5.7509851e-07
-7.7654465e-09
5.7574483e-07
-9.3528489e-09
5.7658094e-07
-1.111664e-08
5.7765386e-07
-1.3097844e-08
5.79028e-07
-1.5345584e-08
5.8079242e-07
-1.7919197e-08
5.8307105e-07
-2.0888194e-08
5.860372e-07
-2.4327857e-08
5.8992928e-07
-2.8373625e-08
5.9514115e-07
-3.3629464e-08
6.0337687e-07
-4.0999626e-08
6.2025072e-07
-4.4742729e-08
6.3869248e-07
-2.8178627e-08
5.7039138e-07
2.5537614e-07
2.0560367e-08
1.86387e-07
4.4553726e-08
5.253246e-07
4.6604558e-08
6.5256894e-07
3.911586e-08
6.4317695e-07
3.3048488e-08
6.1792959e-07
2.8683462e-08
6.0494363e-07
2.5005449e-08
5.9766095e-07
2.1773151e-08
5.9236409e-07
1.8931201e-08
5.8829082e-07
1.6423495e-08
5.8514413e-07
1.4196498e-08
5.8269619e-07
1.2203989e-08
5.8077857e-07
1.0406143e-08
5.7926983e-07
8.7685621e-09
5.7808181e-07
7.2614457e-09
5.7714965e-07
5.8587816e-09
5.7642547e-07
4.5376054e-09
5.7587401e-07
3.2773348e-09
5.7546963e-07
2.0591625e-09
5.7519427e-07
8.6549969e-10
5.7503601e-07
-3.2054463e-10
5.749882e-07
-1.5156594e-09
5.7504897e-07
-2.7368291e-09
5.7522112e-07
-4.0018347e-09
5.755123e-07
-5.3297789e-09
5.7593557e-07
-6.7416515e-09
5.7651039e-07
-8.2609463e-09
5.7726413e-07
-9.9143471e-09
5.7823434e-07
-1.1732493e-08
5.7947201e-07
-1.3750772e-08
5.8104628e-07
-1.6010234e-08
5.8305188e-07
-1.8558786e-08
5.856196e-07
-2.1449608e-08
5.8892803e-07
-2.4736814e-08
5.9321648e-07
-2.8566322e-08
5.9897066e-07
-3.3583796e-08
6.0839434e-07
-4.0066839e-08
6.2673376e-07
-4.1094892e-08
6.3972053e-07
-2.3388334e-08
5.5268482e-07
2.319878e-07
1.6003948e-08
1.7038349e-07
3.9109913e-08
5.0221931e-07
4.4072167e-08
6.4760691e-07
3.8243556e-08
6.4900549e-07
3.2610519e-08
6.2356258e-07
2.8549915e-08
6.0900423e-07
2.5143744e-08
6.0106713e-07
2.2098599e-08
5.9540923e-07
1.9370565e-08
5.9101885e-07
1.6923521e-08
5.8759117e-07
1.4718445e-08
5.8490127e-07
1.2719692e-08
5.8277732e-07
1.0895302e-08
5.8109422e-07
9.2167038e-09
5.7976041e-07
7.6583703e-09
5.7870799e-07
6.1974013e-09
5.7788644e-07
4.8130957e-09
5.7725831e-07
3.4865248e-09
5.767962e-07
2.2001108e-09
5.7648068e-07
9.3721858e-10
5.762989e-07
-3.1824131e-10
5.7624366e-07
-1.5821993e-09
5.7631293e-07
-2.8708188e-09
5.7650974e-07
-4.2008869e-09
5.7684237e-07
-5.5902138e-09
5.773249e-07
-7.0580471e-09
5.7797822e-07
-8.6254994e-09
5.7883158e-07
-1.0315986e-08
5.7992483e-07
-1.2155682e-08
5.813117e-07
-1.4173938e-08
5.8306453e-07
-1.6403647e-08
5.8528159e-07
-1.8881629e-08
5.8809758e-07
-2.1646113e-08
5.9169251e-07
-2.4737654e-08
5.9630803e-07
-2.8324546e-08
6.0255755e-07
-3.3032055e-08
6.1310185e-07
-3.8456857e-08
6.3215857e-07
-3.7141337e-08
6.3840501e-07
-1.9151541e-08
5.3469502e-07
2.1283626e-07
1.24111e-08
1.579729e-07
3.4075043e-08
4.8055624e-07
4.1194386e-08
6.4048793e-07
3.7022404e-08
6.5317741e-07
3.188906e-08
6.2869585e-07
2.8118291e-08
6.1277499e-07
2.4984786e-08
6.0420063e-07
2.2146869e-08
5.9824715e-07
1.9559507e-08
5.9360621e-07
1.7202039e-08
5.8994864e-07
1.5047778e-08
5.8705553e-07
1.3070357e-08
5.8475474e-07
1.1245084e-08
5.8291949e-07
9.549046e-09
5.8145645e-07
7.9610654e-09
5.8029597e-07
6.4615689e-09
5.7938594e-07
5.0324093e-09
5.7868747e-07
3.6566379e-09
5.7817197e-07
2.3182482e-09
5.7781907e-07
1.0019066e-09
5.7761524e-07
-3.0732588e-10
5.7755289e-07
-1.6242718e-09
5.7762987e-07
-2.9639234e-09
5.7784939e-07
-4.341724e-09
5.7822017e-07
-5.7738457e-09
5.7875702e-07
-7.2774635e-09
5.7948184e-07
-8.8710147e-09
5.8042513e-07
-1.057443e-08
5.8162824e-07
-1.2409344e-08
5.8314662e-07
-1.4399252e-08
5.8505444e-07
-1.6569546e-08
5.8745188e-07
-1.8947193e-08
5.9047523e-07
-2.1557798e-08
5.9430311e-07
-2.4435584e-08
5.9918581e-07
-2.7774154e-08
6.0589612e-07
-3.2116797e-08
6.1744449e-07
-3.6411747e-08
6.3645352e-07
-3.3183213e-08
6.3517648e-07
-1.5529805e-08
5.1704162e-07
1.9730646e-07
9.6431749e-09
1.4833032e-07
2.9601341e-08
4.6059918e-07
3.8217768e-08
6.3187204e-07
3.5590447e-08
6.558047e-07
3.0995117e-08
6.3329108e-07
2.749279e-08
6.162773e-07
2.4614999e-08
6.0707843e-07
2.1986604e-08
6.0087554e-07
1.9551774e-08
5.9604104e-07
1.7300452e-08
5.9219996e-07
1.521596e-08
5.8914002e-07
1.3279654e-08
5.8669104e-07
1.1473138e-08
5.8472601e-07
9.7786191e-09
5.8315097e-07
8.1790239e-09
5.8189556e-07
6.6580613e-09
5.809069e-07
5.2002144e-09
5.8014532e-07
3.790666e-09
5.7958152e-07
2.4151773e-09
5.7919456e-07
1.0599373e-09
5.7897048e-07
-2.8860844e-10
5.7890144e-07
-1.6439365e-09
5.789852e-07
-3.0196338e-09
5.7922508e-07
-4.4295777e-09
5.7963011e-07
-5.8881062e-09
5.8021555e-07
-7.4101702e-09
5.810039e-07
-9.0114563e-09
5.8202642e-07
-1.0708463e-08
5.8332525e-07
-1.2518527e-08
5.8495668e-07
-1.4459819e-08
5.8699573e-07
-1.6551165e-08
5.8954322e-07
-1.8811135e-08
5.927352e-07
-2.1255365e-08
5.9674734e-07
-2.3917921e-08
6.0184837e-07
-2.7013789e-08
6.0899199e-07
-3.095603e-08
6.2138673e-07
-3.4135519e-08
6.39633e-07
-2.9425513e-08
6.3046647e-07
-1.2518382e-08
5.0013448e-07
1.8478808e-07
7.5513325e-09
1.4077969e-07
2.5736394e-08
4.4241549e-07
3.5313076e-08
6.2229612e-07
3.4057407e-08
6.5706039e-07
3.0011496e-08
6.3733687e-07
2.6753218e-08
6.1953554e-07
2.4103907e-08
6.0972774e-07
2.1675439e-08
6.0330401e-07
1.9394514e-08
5.9832197e-07
1.7256696e-08
5.9433778e-07
1.5253023e-08
5.9114369e-07
1.3371048e-08
5.8857302e-07
1.1597581e-08
5.8649948e-07
9.9192352e-09
5.8482931e-07
8.3226149e-09
5.8349218e-07
6.7944873e-09
5.8243503e-07
5.3218819e-09
5.8161792e-07
3.8921237e-09
5.8101128e-07
2.4928133e-09
5.8059387e-07
1.1117718e-09
5.8035152e-07
-2.6304103e-10
5.8027625e-07
-1.6436203e-09
5.8036578e-07
-3.0420184e-09
5.8062348e-07
-4.470439e-09
5.8105853e-07
-5.9413161e-09
5.8168642e-07
-7.4673689e-09
5.8252995e-07
-9.0616206e-09
5.8362067e-07
-1.0737363e-08
5.8500099e-07
-1.2508067e-08
5.8672739e-07
-1.438726e-08
5.8887493e-07
-1.6388224e-08
5.9154419e-07
-1.8522666e-08
5.9486964e-07
-2.079923e-08
5.9902391e-07
-2.3256883e-08
6.0430602e-07
-2.6123583e-08
6.1185869e-07
-2.9650644e-08
6.249138e-07
-3.1789665e-08
6.4177202e-07
-2.599043e-08
6.2466723e-07
-1.0070543e-08
4.842146e-07
1.7471753e-07
5.9949885e-09
1.3478554e-07
2.245836e-08
4.2595378e-07
3.2582056e-08
6.1217345e-07
3.2503577e-08
6.5713897e-07
2.8998095e-08
6.408422e-07
2.5959546e-08
6.2257403e-07
2.350667e-08
6.1218061e-07
2.1260797e-08
6.0554989e-07
1.9127778e-08
6.0045499e-07
1.710408e-08
5.9636147e-07
1.5186233e-08
5.9306154e-07
1.3366529e-08
5.9039272e-07
1.1635903e-08
5.882301e-07
9.9845976e-09
5.8648062e-07
8.4023818e-09
5.850744e-07
6.8787525e-09
5.8395866e-07
5.4030955e-09
5.8309358e-07
3.964785e-09
5.8244959e-07
2.5532355e-09
5.8200542e-07
1.1579173e-09
5.8174684e-07
-2.3165501e-10
5.8166582e-07
-1.6259469e-09
5.8176007e-07
-3.035437e-09
5.8203297e-07
-4.4706405e-09
5.8249373e-07
-5.9421171e-09
5.831579e-07
-7.4604525e-09
5.8404829e-07
-9.0362022e-09
5.8519642e-07
-1.0679786e-08
5.8664458e-07
-1.2401328e-08
5.8844893e-07
-1.4210478e-08
5.9068408e-07
-1.6116034e-08
5.9344974e-07
-1.8124426e-08
5.9687803e-07
-2.0240373e-08
6.0113985e-07
-2.2511245e-08
6.0657689e-07
-2.5166885e-08
6.1451433e-07
-2.8281043e-08
6.2802795e-07
-2.9488216e-08
6.429792e-07
-2.2933087e-08
6.181121e-07
-8.1177746e-09
4.6939929e-07
1.6659976e-07
4.8514337e-09
1.2993509e-07
1.9708629e-08
4.110986e-07
3.0072869e-08
6.0181056e-07
3.0981147e-08
6.562309e-07
2.7994208e-08
6.4382897e-07
2.5153857e-08
6.254143e-07
2.286523e-08
6.1446923e-07
2.0780563e-08
6.0763456e-07
1.8784689e-08
6.0245086e-07
1.6871024e-08
5.9827514e-07
1.5039536e-08
5.9489303e-07
1.3285946e-08
5.9214631e-07
1.160429e-08
5.8991176e-07
9.9876871e-09
5.8809722e-07
8.4285217e-09
5.8663356e-07
6.9186425e-09
5.8546853e-07
5.4495369e-09
5.8456269e-07
4.0124667e-09
5.8388666e-07
2.5985633e-09
5.8341932e-07
1.1988925e-09
5.8314651e-07
-1.9550633e-10
5.8306022e-07
-1.5935918e-09
5.8315816e-07
-3.0043002e-09
5.8344368e-07
-4.4365161e-09
5.8392595e-07
-5.8990278e-09
5.8462041e-07
-7.4004575e-09
5.8554972e-07
-8.9491577e-09
5.8674512e-07
-1.0553068e-08
5.8824849e-07
-1.221953e-08
5.9011539e-07
-1.3955098e-08
5.9241964e-07
-1.5765117e-08
5.9525976e-07
-1.7652266e-08
5.9876518e-07
-1.9620131e-08
6.0310772e-07
-2.1726177e-08
6.0868294e-07
-2.4190186e-08
6.1697833e-07
-2.6905769e-08
6.3074354e-07
-2.7303099e-08
6.4337653e-07
-2.0262718e-08
6.1107172e-07
-6.5843812e-09
4.5572095e-07
1.6001538e-07
4.0183084e-09
1.2591795e-07
1.7414674e-08
3.9770465e-07
2.7799368e-08
5.914276e-07
2.9520583e-08
6.5451005e-07
2.7022827e-08
6.4632654e-07
2.4363119e-08
6.280739e-07
2.2209529e-08
6.1662281e-07
2.0263632e-08
6.0958046e-07
1.8391657e-08
6.0432284e-07
1.6581012e-08
6.0008578e-07
1.4833327e-08
5.9664071e-07
1.314665e-08
5.9383299e-07
1.1517233e-08
5.9154117e-07
9.9403672e-09
5.8967409e-07
8.4105266e-09
5.881634e-07
6.9215186e-09
5.8695754e-07
5.4666478e-09
5.8601756e-07
4.03886e-09
5.8531445e-07
2.6308592e-09
5.8482732e-07
1.2352017e-09
5.8454217e-07
-1.5563051e-10
5.8445105e-07
-1.5491651e-09
5.8455169e-07
-2.952881e-09
5.848474e-07
-4.374142e-09
5.8534721e-07
-5.8201173e-09
5.8606639e-07
-7.2976803e-09
5.8702728e-07
-8.813281e-09
5.8826072e-07
-1.0372792e-08
5.89808e-07
-1.1981331e-08
5.9172393e-07
-1.3643087e-08
5.940814e-07
-1.5360888e-08
5.9697756e-07
-1.7135027e-08
6.0053932e-07
-1.897024e-08
6.0494293e-07
-2.0934138e-08
6.1064684e-07
-2.3225216e-08
6.1926941e-07
-2.5564357e-08
6.3308268e-07
-2.5273889e-08
6.4308606e-07
-1.7960673e-08
6.0375851e-07
-5.3959619e-09
4.4315624e-07
1.5461941e-07
3.4129411e-09
1.225064e-07
1.5502636e-08
3.8561783e-07
2.5754826e-08
5.811776e-07
2.8137136e-08
6.521283e-07
2.6095603e-08
6.483679e-07
2.3602988e-08
6.3056636e-07
2.1559663e-08
6.1866611e-07
1.9731036e-08
6.1140909e-07
1.7968927e-08
6.0608495e-07
1.6252791e-08
6.0180192e-07
1.4584444e-08
5.9830906e-07
1.2963372e-08
5.9545406e-07
1.1387321e-08
5.9311723e-07
9.8531553e-09
5.9120825e-07
8.356957e-09
5.896596e-07
6.8941162e-09
5.8842038e-07
5.4594649e-09
5.8745221e-07
4.0474107e-09
5.867265e-07
2.6520584e-09
5.8622267e-07
1.2673168e-09
5.8592691e-07
-1.1300779e-10
5.8583138e-07
-1.4951246e-09
5.8593381e-07
-2.8851768e-09
5.8623745e-07
-4.2891509e-09
5.8675118e-07
-5.7127788e-09
5.8749001e-07
-7.1614209e-09
5.8847592e-07
-8.6399338e-09
5.8973923e-07
-1.0152524e-08
5.9132059e-07
-1.1702598e-08
5.93274e-07
-1.3292625e-08
5.9567143e-07
-1.4923708e-08
5.9860865e-07
-1.659492e-08
6.0221053e-07
-1.831387e-08
6.0666188e-07
-2.0157085e-08
6.1249005e-07
-2.22922e-08
6.2140453e-07
-2.4281435e-08
6.3507191e-07
-2.3417238e-08
6.4222186e-07
-1.5992864e-08
5.9633413e-07
-4.4840909e-09
4.3164746e-07
1.5013532e-07
2.9707079e-09
1.1953734e-07
1.3904006e-08
3.7468794e-07
2.3921274e-08
5.7116304e-07
2.6835785e-08
6.4921461e-07
2.5216692e-08
6.4998682e-07
2.2881241e-08
6.3290163e-07
2.0928264e-08
6.2061904e-07
1.9197447e-08
6.1313991e-07
1.7531496e-08
6.077509e-07
1.5900874e-08
6.0343254e-07
1.4306387e-08
5.9990355e-07
1.2748268e-08
5.9701218e-07
1.1225199e-08
5.9464029e-07
9.7351265e-09
5.9269832e-07
8.275325e-09
5.911194e-07
6.8424276e-09
5.8985328e-07
5.4325182e-09
5.8886212e-07
4.0412429e-09
5.8811777e-07
2.6639236e-09
5.8759999e-07
1.2956663e-09
5.8729516e-07
-6.8538e-11
5.8719558e-07
-1.4337155e-09
5.8729898e-07
-2.8048165e-09
5.8760855e-07
-4.1866127e-09
5.8813298e-07
-5.5835918e-09
5.8888699e-07
-6.9998404e-09
5.8989217e-07
-8.4389171e-09
5.9117831e-07
-9.903729e-09
5.927854e-07
-1.1396422e-08
5.947667e-07
-1.291828e-08
5.9719328e-07
-1.4469336e-08
6.001597e-07
-1.604841e-08
6.0378961e-07
-1.7667138e-08
6.0828061e-07
-1.9408832e-08
6.1423174e-07
-2.1402725e-08
6.2339842e-07
-2.3070247e-08
6.3673944e-07
-2.1734135e-08
6.4088575e-07
-1.4318149e-08
5.8891815e-07
-3.788865e-09
4.2111818e-07
1.4634646e-07
2.6427783e-09
1.168965e-07
1.2558998e-08
3.6477575e-07
2.2275853e-08
5.6144951e-07
2.5614989e-08
6.4587662e-07
2.4385463e-08
6.5121622e-07
2.220033e-08
6.3508653e-07
2.0322502e-08
6.2249681e-07
1.867263e-08
6.1478979e-07
1.7090118e-08
6.0933342e-07
1.553619e-08
6.0498647e-07
1.4009709e-08
6.0143003e-07
1.2511131e-08
5.9851076e-07
1.1039655e-08
5.9611177e-07
9.593925e-09
5.9414405e-07
8.1720638e-09
5.9254127e-07
6.7716541e-09
5.9125369e-07
5.3897814e-09
5.9024399e-07
4.0231178e-09
5.8948444e-07
2.6680203e-09
5.8895509e-07
1.3206308e-09
5.8864255e-07
-2.3023504e-11
5.8853923e-07
-1.3669341e-09
5.8864289e-07
-2.7150084e-09
5.8895662e-07
-4.0709712e-09
5.8948894e-07
-5.43826e-09
5.9025428e-07
-6.8199138e-09
5.9127383e-07
-8.2184645e-09
5.9257686e-07
-9.6358411e-09
5.9420278e-07
-1.1073305e-08
5.9620416e-07
-1.2531386e-08
5.9865137e-07
-1.4009568e-08
6.0163788e-07
-1.5507191e-08
6.0528723e-07
-1.704055e-08
6.0981397e-07
-1.8697022e-08
6.1588822e-07
-2.0561995e-08
6.2526339e-07
-2.1935682e-08
6.3811312e-07
-2.0215696e-08
6.3916576e-07
-1.289395e-08
5.815964e-07
-3.259882e-09
4.1148411e-07
1.4308658e-07
2.3934191e-09
1.1450537e-07
1.1417656e-08
3.5575625e-07
2.0794895e-08
5.5207632e-07
2.4469575e-08
6.4220347e-07
2.3598495e-08
6.5208723e-07
2.1559275e-08
6.3712548e-07
1.9745655e-08
6.2431035e-07
1.8162639e-08
6.163728e-07
1.6652203e-08
6.1084386e-07
1.5166732e-08
6.0647194e-07
1.3702461e-08
6.028943e-07
1.2259673e-08
5.9995355e-07
1.0837787e-08
5.9753366e-07
9.4358505e-09
5.9554599e-07
8.052564e-09
5.9392455e-07
6.6862123e-09
5.9262004e-07
5.3346635e-09
5.9159554e-07
3.9954228e-09
5.9082368e-07
2.6657087e-09
5.902848e-07
1.3425415e-09
5.8996572e-07
2.2834723e-11
5.8985894e-07
-1.2965124e-09
5.8996224e-07
-2.6185193e-09
5.9027863e-07
-3.9460283e-09
5.9081645e-07
-5.2816083e-09
5.9158986e-07
-6.6274589e-09
5.9261968e-07
-7.9853229e-09
5.9393472e-07
-9.3564225e-09
5.9557387e-07
-1.0741438e-08
5.9758917e-07
-1.2140482e-08
6.0005041e-07
-1.3552888e-08
6.0305029e-07
-1.4979098e-08
6.0671344e-07
-1.6440247e-08
6.1127512e-07
-1.8024767e-08
6.1747274e-07
-1.9770716e-08
6.2700934e-07
-2.087694e-08
6.3921935e-07
-1.884769e-08
6.3713651e-07
-1.1679989e-08
5.744287e-07
-2.8561299e-09
4.0266025e-07
1.4023045e-07
2.1972565e-09
1.123108e-07
1.0439482e-08
3.4751958e-07
1.9456216e-08
5.4306446e-07
2.3392789e-08
6.382689e-07
2.285105e-08
6.52629e-07
2.095509e-08
6.3902113e-07
1.919835e-08
6.2606697e-07
1.7670807e-08
6.1790034e-07
1.6222588e-08
6.1229209e-07
1.4798147e-08
6.0789638e-07
1.3390622e-08
6.0430182e-07
1.1999827e-08
6.0134434e-07
1.0625203e-08
5.9890828e-07
9.2659885e-09
5.969052e-07
7.9212506e-09
5.9526929e-07
6.5897761e-09
5.9395152e-07
5.2700301e-09
5.9291528e-07
3.9601797e-09
5.9213353e-07
2.6581477e-09
5.9158684e-07
1.3616843e-09
5.9126218e-07
6.844725e-11
5.9115218e-07
-1.223916e-09
5.912546e-07
-2.517681e-09
5.9157239e-07
-3.8149613e-09
5.9211373e-07
-5.1176245e-09
5.9289252e-07
-6.4272137e-09
5.9392927e-07
-7.7448845e-09
5.9525239e-07
-9.0713743e-09
5.9690036e-07
-1.040702e-08
5.9892482e-07
-1.1751762e-08
6.0139515e-07
-1.3105084e-08
6.0440361e-07
-1.4468942e-08
6.080773e-07
-1.5869115e-08
6.1267529e-07
-1.7392032e-08
6.1899565e-07
-1.9026678e-08
6.2864398e-07
-1.9889733e-08
6.400824e-07
-1.7613683e-08
6.3486046e-07
-1.064031e-08
5.6745532e-07
-2.5451587e-09
3.945651e-07
1.3768529e-07
2.0368102e-09
1.1027715e-07
9.5923234e-09
3.3997057e-07
1.8240156e-08
5.3442245e-07
2.2377573e-08
6.3413406e-07
2.2138049e-08
6.5286869e-07
2.0383805e-08
6.4077501e-07
1.8679536e-08
6.2777108e-07
1.7198549e-08
6.1938131e-07
1.5804191e-08
6.1368645e-07
1.4434251e-08
6.0926633e-07
1.3078491e-08
6.0565758e-07
1.1736045e-08
6.0268679e-07
1.0406239e-08
6.0023809e-07
9.0883597e-09
5.9822308e-07
7.7816842e-09
5.9657596e-07
6.4853425e-09
5.9524786e-07
5.1982435e-09
5.9420238e-07
3.9190693e-09
5.934127e-07
2.646307e-09
5.928596e-07
1.3783024e-09
5.9253019e-07
1.1332608e-10
5.9241715e-07
-1.1503575e-09
5.9251829e-07
-2.4144132e-09
5.9283645e-07
-3.6803654e-09
5.9337968e-07
-4.9495271e-09
5.9416169e-07
-6.2229421e-09
5.9520268e-07
-7.5013458e-09
5.965308e-07
-8.7851651e-09
5.9818418e-07
-1.007457e-08
6.0021422e-07
-1.1369505e-08
6.0269009e-07
-1.2669819e-08
6.0570393e-07
-1.3979244e-08
6.0938672e-07
-1.5327723e-08
6.1402377e-07
-1.6796756e-08
6.2046469e-07
-1.8325973e-08
6.301732e-07
-1.8967894e-08
6.4072432e-07
-1.6496983e-08
6.3238955e-07
-9.7437657e-09
5.6070211e-07
-2.3018602e-09
3.871232e-07
1.3538343e-07
1.9004131e-09
1.0838044e-07
8.8510144e-09
3.3302756e-07
1.7129874e-08
5.2615053e-07
2.1417271e-08
6.2984993e-07
2.1454643e-08
6.5283168e-07
1.9841137e-08
6.4238813e-07
1.818718e-08
6.2942484e-07
1.6745988e-08
6.2082248e-07
1.5398539e-08
6.1503391e-07
1.4077468e-08
6.105874e-07
1.2769045e-08
6.06966e-07
1.1471569e-08
6.0398426e-07
1.0184164e-08
6.0152549e-07
8.906074e-09
5.9950117e-07
7.6366716e-09
5.9784537e-07
6.3753089e-09
5.9650922e-07
5.1212147e-09
5.9545648e-07
3.873463e-09
5.9466045e-07
2.6309844e-09
5.9410208e-07
1.3926015e-09
5.9376857e-07
1.5708002e-10
5.9365268e-07
-1.0768158e-09
5.9375218e-07
-2.31026e-09
5.9406989e-07
-3.5443097e-09
5.9461373e-07
-4.7798502e-09
5.9539723e-07
-6.0175565e-09
5.9644039e-07
-7.257877e-09
5.9777112e-07
-8.5010616e-09
5.9942737e-07
-9.7472391e-09
6.014604e-07
-1.0996479e-08
6.0393933e-07
-1.2249139e-08
6.0695659e-07
-1.3510867e-08
6.1064845e-07
-1.4815088e-08
6.1532799e-07
-1.6235684e-08
6.2188528e-07
-1.7663861e-08
6.3160138e-07
-1.8104494e-08
6.4116495e-07
-1.5481818e-08
6.2976688e-07
-8.9641484e-09
5.5418444e-07
-2.1072632e-09
3.8026631e-07
1.3327616e-07
1.7805274e-09
1.0660425e-07
8.1960251e-09
3.2662091e-07
1.6111229e-08
5.1824352e-07
2.0505959e-08
6.2545926e-07
2.0796498e-08
6.5254174e-07
1.9322893e-08
6.4386131e-07
1.7718754e-08
6.3102874e-07
1.6312418e-08
6.2222877e-07
1.5006186e-08
6.1634014e-07
1.3729192e-08
6.118644e-07
1.2464243e-08
6.0823095e-07
1.1208679e-08
6.0523983e-07
9.9613774e-09
6.0277279e-07
8.7214798e-09
6.0074107e-07
7.4883776e-09
5.9907847e-07
6.2615539e-09
5.9773604e-07
5.0404597e-09
5.9667757e-07
3.8244597e-09
5.9587645e-07
2.6128258e-09
5.9531371e-07
1.404755e-09
5.9497664e-07
1.9940574e-10
5.9485802e-07
-1.0040609e-09
5.9495565e-07
-2.2064321e-09
5.9527227e-07
-3.4084023e-09
5.958157e-07
-4.6105353e-09
5.9659936e-07
-5.813243e-09
5.9764309e-07
-7.0167909e-09
5.9897466e-07
-8.2213493e-09
6.0063193e-07
-9.4270922e-09
6.0266614e-07
-1.0634287e-08
6.0514652e-07
-1.1843898e-08
6.081662e-07
-1.3063526e-08
6.1186808e-07
-1.4329248e-08
6.1659371e-07
-1.5704974e-08
6.2326101e-07
-1.703537e-08
6.3293177e-07
-1.7292573e-08
6.4142216e-07
-1.4553968e-08
6.2702827e-07
-8.27986e-09
5.4791033e-07
-1.9473662e-09
3.7393382e-07
1.313288e-07
1.6724368e-09
1.0493691e-07
7.6122384e-09
3.2069139e-07
1.5172469e-08
5.1069293e-07
1.9638537e-08
6.209982e-07
2.0159902e-08
6.520213e-07
1.8825188e-08
6.451956e-07
1.7271538e-08
6.3258209e-07
1.5896627e-08
6.2360362e-07
1.4627021e-08
6.1760976e-07
1.3390072e-08
6.1310135e-07
1.2165269e-08
6.0945576e-07
1.0948905e-08
6.0645619e-07
9.7395781e-09
6.0398212e-07
8.5363007e-09
6.0194435e-07
7.3384313e-09
6.0027634e-07
6.1455176e-09
5.9892896e-07
4.9571567e-09
5.9786593e-07
3.7729232e-09
5.9706069e-07
2.5923456e-09
5.9649429e-07
1.4149088e-09
5.9615408e-07
2.400766e-10
5.9603286e-07
-9.3268094e-10
5.9612841e-07
-2.1038522e-09
5.9644344e-07
-3.2738569e-09
5.9698571e-07
-4.4430236e-09
5.9776853e-07
-5.6115849e-09
5.9881165e-07
-6.7797017e-09
6.0014278e-07
-7.9475333e-09
6.0179976e-07
-9.1153522e-09
6.0383396e-07
-1.0283668e-08
6.0631484e-07
-1.1454106e-08
6.0933663e-07
-1.2636171e-08
6.1305014e-07
-1.386769e-08
6.1782523e-07
-1.5200609e-08
6.2459393e-07
-1.6435674e-08
6.3416684e-07
-1.6525589e-08
6.4151207e-07
-1.3701006e-08
6.2420369e-07
-7.6733762e-09
5.418827e-07
-1.8120622e-09
3.680725e-07
1.2951674e-07
1.5732762e-09
1.033696e-07
7.0879159e-09
3.1518871e-07
1.4303842e-08
5.0348831e-07
1.8810687e-08
6.1649748e-07
1.9541763e-08
6.5129155e-07
1.8344548e-08
6.4639238e-07
1.6842822e-08
6.3408345e-07
1.5497123e-08
6.2494923e-07
1.4260493e-08
6.1884639e-07
1.3060228e-08
6.1430162e-07
1.1872733e-08
6.1064325e-07
1.0693195e-08
6.0763573e-07
9.5199135e-09
6.051554e-07
8.3517579e-09
6.031125e-07
7.1880234e-09
6.0144007e-07
6.0282757e-09
6.000887e-07
4.8722008e-09
5.9902201e-07
3.719519e-09
5.9821337e-07
2.5699465e-09
5.9764386e-07
1.4231853e-09
5.9730084e-07
2.7893123e-10
5.9717711e-07
-8.6310992e-10
5.9727045e-07
-2.0032007e-09
5.9758353e-07
-3.1415581e-09
5.9812407e-07
-4.2783441e-09
5.9890531e-07
-5.4136764e-09
5.9994699e-07
-6.547668e-09
6.0127677e-07
-7.6805127e-09
6.029326e-07
-8.812611e-09
6.0496606e-07
-9.9447353e-09
6.0744696e-07
-1.10792e-08
6.104711e-07
-1.2227297e-08
6.1419824e-07
-1.3427659e-08
6.1902559e-07
-1.4718667e-08
6.2588493e-07
-1.5860326e-08
6.353085e-07
-1.5797645e-08
6.4144939e-07
-1.2912297e-08
6.2131834e-07
-7.1306349e-09
5.3610104e-07
-1.6942071e-09
3.6263607e-07
1.2782253e-07
1.481343e-09
1.0189525e-07
6.6138674e-09
3.1007005e-07
1.3497219e-08
4.9661816e-07
1.8018763e-08
6.1198333e-07
1.8939542e-08
6.5037259e-07
1.7877928e-08
6.474536e-07
1.6430011e-08
6.3553094e-07
1.5112281e-08
6.2626685e-07
1.390578e-08
6.2005289e-07
1.2739415e-08
6.15468e-07
1.158683e-08
6.1179584e-07
1.0442064e-08