/*--------------------------------*- C++ -*----------------------------------*\
  =========                 |
  \\      /  F ield         | OpenFOAM: The Open Source CFD Toolbox
   \\    /   O peration     | Website:  https://openfoam.org
    \\  /    A nd           | Version:  10
     \\/     M anipulation  |
\*---------------------------------------------------------------------------*/
FoamFile
{
    format      ascii;
    class       volScalarField;
    location    "0.15";
    object      T;
}
// * * * * * * * * * * * * * * * * * * * * * * * * * * * * * * * * * * * * * //

dimensions      [0 0 0 1 0 0 0];

internalField   nonuniform List<scalar> 
4000
(
303.10134
299.34292
299.99042
300.00082
299.99993
300
300
300
300
300
300
300
300
300
300
300
300
300
300
300
300
300
300
300
300
300
300
300
300
300
300
300
300
300
300
300
300
300
300
300.00001
309.66335
298.493
299.77922
300.00184
300.0008
299.99999
300
300
300
300
300
300
300
300
300
300
300
300
300
300
300
300
300
300
300
300
300
300
300
300
300
300
300
300
300
300
300
300
299.99999
300.00002
316.00399
298.68457
299.39225
299.9757
300.00406
300.00025
299.99999
300
300
300
300
300
300
300
300
300
300
300
300
300
300
300
300
300
300
300
300
300
300
300
300
300
300
300
300
300
300
299.99999
299.99999
300.00002
321.74178
299.8458
298.98489
299.89493
300.00716
300.00138
300
299.99999
300
300
300
300
300
300
300
300
300
300
300
300
300
300
300
300
300
300
300
300
300
300
300
300
300
300
300
300
299.99999
299.99999
299.99999
300.00003
326.67027
301.70013
298.71011
299.75318
300.00322
300.00378
300.00017
299.99998
300
300
300
300
300
300
300
300
300
300
300
300
300
300
300
300
300
300
300
300
300
300
300
300
300
300
299.99999
299.99999
299.99999
299.99998
299.99999
300.00004
330.68383
303.94727
298.66335
299.56842
299.98427
300.00696
300.00071
299.99996
299.99999
300
300
300
300
300
300
300
300
300
300
300
300
300
300
300
300
300
300
300
300
300
300
300
300
299.99999
299.99999
299.99999
299.99999
299.99998
300
300.00004
333.77274
306.32948
298.87085
299.37389
299.9452
300.00937
300.0018
300
299.99998
300
300
300
300
300
300
300
300
300
300
300
300
300
300
300
300
300
300
300
300
300
300
300
299.99999
299.99999
299.99999
299.99999
299.99998
299.99998
300
300.00004
336.01976
308.66221
299.30749
299.2041
299.88586
300.00889
300.00344
300.00014
299.99996
299.99999
300
300
300
300
300
300
300
300
300
300
300
300
300
300
300
300
300
300
300
300
300
299.99999
299.99999
299.99999
299.99999
299.99999
299.99998
299.99998
300.00001
300.00004
337.57147
310.83464
299.92348
299.08496
299.81065
300.00352
300.0054
300.00045
299.99995
299.99999
299.99999
300
300
300
300
300
300
300
300
300
300
300
300
300
300
300
300
300
300
300
299.99999
299.99999
299.99999
299.99999
299.99999
299.99998
299.99998
299.99998
300.00001
300.00004
338.5992
312.79401
300.66428
299.03092
299.72659
299.99193
300.00723
300.00099
299.99996
299.99998
299.99999
299.99999
300
300
300
300
300
300
300
300
300
300
300
300
300
300
300
300
300
299.99999
299.99999
299.99999
299.99999
299.99999
299.99999
299.99998
299.99998
299.99998
300.00002
300.00004
339.26563
314.52743
301.48121
299.04636
299.64141
299.97373
300.00838
300.00174
300
299.99996
299.99999
299.99999
299.99999
300
300
300
300
300
300
300
300
300
300
300
300
300
300
300
299.99999
299.99999
299.99999
299.99999
299.99999
299.99999
299.99998
299.99998
299.99998
299.99999
300.00002
300.00004
339.70402
316.04613
302.33588
299.12858
299.56215
299.94937
300.00832
300.00266
300.00011
299.99995
299.99999
299.99999
299.99999
299.99999
300
300
300
300
300
300
300
300
300
300
300
300
300
299.99999
299.99999
299.99999
299.99999
299.99999
299.99999
299.99999
299.99998
299.99998
299.99998
299.99999
300.00002
300.00004
340.01096
317.37354
303.20063
299.27086
299.49436
299.91994
300.0066
300.00365
300.00029
299.99995
299.99998
299.99999
299.99999
299.99999
299.99999
299.99999
300
300
300
300
300
300
300
300
300
299.99999
299.99999
299.99999
299.99999
299.99999
299.99999
299.99999
299.99999
299.99999
299.99998
299.99998
299.99998
299.99999
300.00003
300.00004
340.24906
318.53711
304.05701
299.46477
299.442
299.88689
300.00293
300.00458
300.00055
299.99995
299.99998
299.99999
299.99999
299.99999
299.99999
299.99999
299.99999
299.99999
300
300
300
300
300
299.99999
299.99999
299.99999
299.99999
299.99999
299.99999
299.99999
299.99999
299.99999
299.99999
299.99998
299.99998
299.99998
299.99998
300
300.00003
300.00004
340.45476
319.56362
304.89363
299.70171
299.4075
299.85183
299.99718
300.00531
300.00088
299.99997
299.99997
299.99999
299.99999
299.99999
299.99999
299.99999
299.99999
299.99999
299.99999
299.99999
299.99999
299.99999
299.99999
299.99999
299.99999
299.99999
299.99999
299.99999
299.99999
299.99999
299.99999
299.99999
299.99999
299.99998
299.99998
299.99997
299.99998
300
300.00003
300.00003
340.64677
320.47688
305.70407
299.97373
299.39209
299.81636
299.98936
300.0057
300.00128
300.00001
299.99996
299.99999
299.99999
299.99999
299.99999
299.99999
299.99999
299.99999
299.99999
299.99999
299.99999
299.99999
299.99999
299.99999
299.99999
299.99999
299.99999
299.99999
299.99999
299.99999
299.99999
299.99999
299.99999
299.99998
299.99998
299.99997
299.99998
300
300.00003
300.00003
340.83311
321.29684
306.48519
300.27383
299.39611
299.78194
299.97961
300.00564
300.00171
300.00008
299.99996
299.99998
299.99999
299.99999
299.99999
299.99999
299.99999
299.99999
299.99999
299.99999
299.99999
299.99999
299.99999
299.99999
299.99999
299.99999
299.99999
299.99999
299.99999
299.99999
299.99999
299.99999
299.99998
299.99998
299.99998
299.99997
299.99998
300
300.00003
300.00003
341.01607
322.03966
307.23589
300.59607
299.41926
299.74984
299.96817
300.00501
300.00214
300.00017
299.99996
299.99998
299.99999
299.99999
299.99999
299.99999
299.99999
299.99999
299.99999
299.99999
299.99999
299.99999
299.99999
299.99999
299.99999
299.99999
299.99999
299.99999
299.99999
299.99999
299.99999
299.99999
299.99998
299.99998
299.99998
299.99997
299.99998
300.00001
300.00003
300.00003
341.19529
322.71809
307.95624
300.93547
299.46082
299.72117
299.95534
300.00374
300.00254
300.00029
299.99996
299.99998
299.99999
299.99999
299.99999
299.99999
299.99999
299.99999
299.99999
299.99999
299.99999
299.99999
299.99999
299.99999
299.99999
299.99999
299.99999
299.99999
299.99999
299.99999
299.99999
299.99999
299.99998
299.99998
299.99998
299.99997
299.99998
300.00001
300.00003
300.00003
341.36948
323.34204
308.64697
301.28788
299.51982
299.6968
299.94146
300.0018
300.00288
300.00044
299.99997
299.99998
299.99999
299.99999
299.99999
299.99999
299.99999
299.99999
299.99999
299.99999
299.99999
299.99999
299.99999
299.99999
299.99999
299.99999
299.99999
299.99999
299.99999
299.99999
299.99999
299.99998
299.99998
299.99998
299.99998
299.99997
299.99999
300.00001
300.00003
300.00003
341.53731
323.91918
309.30906
301.64986
299.59511
299.67744
299.9269
299.99917
300.0031
300.0006
299.99999
299.99997
299.99999
299.99999
299.99999
299.99999
299.99999
299.99999
299.99999
299.99999
299.99999
299.99999
299.99999
299.99999
299.99999
299.99999
299.99999
299.99999
299.99999
299.99999
299.99999
299.99998
299.99998
299.99998
299.99997
299.99998
299.99999
300.00001
300.00003
300.00003
341.69773
324.45544
309.9436
302.0185
299.68551
299.66365
299.91202
299.99586
300.00319
300.00077
300.00002
299.99997
299.99998
299.99999
299.99999
299.99999
299.99999
299.99999
299.99999
299.99999
299.99999
299.99999
299.99999
299.99999
299.99999
299.99999
299.99999
299.99999
299.99999
299.99999
299.99998
299.99998
299.99998
299.99998
299.99997
299.99998
299.99999
300.00002
300.00003
300.00003
341.85009
324.95548
310.5517
302.3914
299.78976
299.6558
299.89721
299.9919
300.00311
300.00095
300.00006
299.99997
299.99998
299.99999
299.99999
299.99999
299.99999
299.99999
299.99999
299.99999
299.99999
299.99999
299.99999
299.99999
299.99999
299.99999
299.99999
299.99999
299.99999
299.99999
299.99998
299.99998
299.99998
299.99998
299.99997
299.99998
299.99999
300.00002
300.00003
300.00003
341.99408
325.42297
311.1344
302.7665
299.90664
299.65418
299.8828
299.98735
300.00283
300.00112
300.0001
299.99997
299.99998
299.99999
299.99999
299.99999
299.99999
299.99999
299.99999
299.99999
299.99999
299.99999
299.99999
299.99999
299.99999
299.99999
299.99999
299.99999
299.99999
299.99999
299.99998
299.99998
299.99998
299.99998
299.99997
299.99998
299.99999
300.00002
300.00003
300.00003
342.12966
325.86089
311.69267
303.14203
300.03493
299.65894
299.86913
299.98227
300.00234
300.00128
300.00015
299.99998
299.99998
299.99999
299.99999
299.99999
299.99999
299.99999
299.99999
299.99999
299.99999
299.99999
299.99999
299.99999
299.99999
299.99999
299.99999
299.99999
299.99999
299.99998
299.99998
299.99998
299.99998
299.99998
299.99997
299.99998
300
300.00002
300.00003
300.00003
342.25695
326.27166
312.2274
303.51651
300.17344
299.67014
299.85651
299.97675
300.00161
300.00141
300.00021
299.99998
299.99998
299.99999
299.99999
299.99999
299.99999
299.99999
299.99999
299.99999
299.99999
299.99999
299.99999
299.99999
299.99999
299.99999
299.99999
299.99999
299.99999
299.99998
299.99998
299.99998
299.99998
299.99998
299.99997
299.99998
300
300.00002
300.00003
300.00003
342.3762
326.65734
312.73943
303.88861
300.32105
299.68776
299.84521
299.97088
300.00065
300.0015
300.00028
299.99999
299.99998
299.99998
299.99999
299.99999
299.99999
299.99999
299.99999
299.99999
299.99999
299.99999
299.99999
299.99999
299.99999
299.99999
299.99999
299.99999
299.99998
299.99998
299.99998
299.99998
299.99998
299.99997
299.99997
299.99998
300
300.00002
300.00003
300.00003
342.48769
327.01962
313.2295
304.25722
300.47666
299.71171
299.83549
299.96477
299.99945
300.00154
300.00034
300
299.99998
299.99998
299.99999
299.99999
299.99999
299.99999
299.99999
299.99999
299.99999
299.99999
299.99999
299.99999
299.99999
299.99999
299.99999
299.99999
299.99998
299.99998
299.99998
299.99998
299.99998
299.99997
299.99997
299.99998
300
300.00002
300.00003
300.00003
342.5917
327.35997
313.6983
304.62134
300.63923
299.74184
299.82755
299.95851
299.99802
300.00153
300.00041
300.00002
299.99998
299.99998
299.99999
299.99999
299.99999
299.99999
299.99999
299.99999
299.99999
299.99999
299.99999
299.99999
299.99999
299.99999
299.99999
299.99998
299.99998
299.99998
299.99998
299.99998
299.99998
299.99997
299.99997
299.99998
300
300.00002
300.00003
300.00003
342.68847
327.67958
314.14645
304.98009
300.80775
299.77795
299.82159
299.95223
299.99636
300.00145
300.00048
300.00003
299.99998
299.99998
299.99998
299.99999
299.99999
299.99999
299.99999
299.99999
299.99999
299.99999
299.99999
299.99999
299.99999
299.99999
299.99998
299.99998
299.99998
299.99998
299.99998
299.99998
299.99998
299.99997
299.99997
299.99998
300
300.00002
300.00003
300.00003
342.77821
327.97947
314.57447
305.33269
300.98127
299.81979
299.81776
299.94602
299.9945
300.0013
300.00054
300.00005
299.99998
299.99998
299.99998
299.99998
299.99999
299.99999
299.99999
299.99999
299.99999
299.99999
299.99999
299.99999
299.99999
299.99998
299.99998
299.99998
299.99998
299.99998
299.99998
299.99998
299.99998
299.99997
299.99997
299.99998
300
300.00003
300.00003
300.00003
342.86106
328.26043
314.98284
305.67842
301.15889
299.8671
299.81618
299.94
299.99244
300.00108
300.00059
300.00007
299.99998
299.99998
299.99998
299.99998
299.99998
299.99999
299.99999
299.99999
299.99999
299.99999
299.99999
299.99999
299.99998
299.99998
299.99998
299.99998
299.99998
299.99998
299.99998
299.99998
299.99998
299.99997
299.99997
299.99998
300.00001
300.00003
300.00003
300.00004
342.93709
328.52307
315.37192
306.01664
301.33973
299.91956
299.81695
299.93427
299.99023
300.00077
300.00063
300.0001
299.99998
299.99998
299.99998
299.99998
299.99998
299.99998
299.99998
299.99999
299.99999
299.99999
299.99999
299.99998
299.99998
299.99998
299.99998
299.99998
299.99998
299.99998
299.99998
299.99998
299.99997
299.99997
299.99997
299.99999
300.00001
300.00003
300.00003
300.00004
343.00633
328.76781
315.742
306.34674
301.52295
299.97684
299.82014
299.92894
299.98788
300.00038
300.00065
300.00012
299.99999
299.99998
299.99998
299.99998
299.99998
299.99998
299.99998
299.99998
299.99998
299.99998
299.99998
299.99998
299.99998
299.99998
299.99998
299.99998
299.99998
299.99998
299.99998
299.99998
299.99997
299.99997
299.99997
299.99999
300.00001
300.00003
300.00003
300.00004
343.06875
328.99488
316.09324
306.66813
301.70775
300.03859
299.82579
299.92409
299.98543
299.99991
300.00066
300.00014
299.99999
299.99998
299.99998
299.99998
299.99998
299.99998
299.99998
299.99998
299.99998
299.99998
299.99998
299.99998
299.99998
299.99998
299.99998
299.99998
299.99998
299.99998
299.99998
299.99998
299.99997
299.99997
299.99997
299.99999
300.00001
300.00003
300.00003
300.00004
343.12427
329.20435
316.42572
306.98023
301.89334
300.10442
299.83391
299.91982
299.98291
299.99935
300.00064
300.00017
300
299.99998
299.99998
299.99998
299.99998
299.99998
299.99998
299.99998
299.99998
299.99998
299.99998
299.99998
299.99998
299.99998
299.99998
299.99998
299.99998
299.99998
299.99998
299.99998
299.99997
299.99997
299.99997
299.99999
300.00001
300.00003
300.00004
300.00004
343.17282
329.39609
316.73937
307.28249
302.07896
300.17395
299.84448
299.91621
299.98036
299.99872
300.0006
300.00019
300
299.99998
299.99998
299.99998
299.99998
299.99998
299.99998
299.99998
299.99998
299.99998
299.99998
299.99998
299.99998
299.99998
299.99998
299.99998
299.99998
299.99998
299.99998
299.99998
299.99997
299.99997
299.99998
299.99999
300.00001
300.00003
300.00004
300.00005
343.21429
329.56985
317.03402
307.57432
302.26388
300.24677
299.85747
299.91333
299.97782
299.99802
300.00054
300.00021
300.00001
299.99998
299.99998
299.99998
299.99998
299.99998
299.99998
299.99998
299.99998
299.99998
299.99998
299.99998
299.99998
299.99998
299.99998
299.99998
299.99998
299.99998
299.99998
299.99997
299.99997
299.99997
299.99998
299.99999
300.00001
300.00003
300.00004
300.00005
343.24864
329.72525
317.30936
307.85512
302.44735
300.32246
299.87283
299.91123
299.97531
299.99725
300.00045
300.00022
300.00002
299.99998
299.99998
299.99998
299.99998
299.99998
299.99998
299.99998
299.99998
299.99998
299.99998
299.99998
299.99998
299.99998
299.99998
299.99998
299.99998
299.99998
299.99998
299.99997
299.99997
299.99997
299.99998
299.99999
300.00001
300.00003
300.00004
300.00005
343.27587
329.86183
317.56493
308.12424
302.62866
300.40059
299.89048
299.90999
299.9729
299.99642
300.00034
300.00023
300.00003
299.99998
299.99998
299.99998
299.99998
299.99998
299.99998
299.99998
299.99998
299.99998
299.99998
299.99998
299.99998
299.99998
299.99998
299.99998
299.99998
299.99998
299.99998
299.99997
299.99997
299.99997
299.99998
299.99999
300.00001
300.00003
300.00004
300.00005
343.29606
329.97913
317.8002
308.38102
302.80709
300.48073
299.9103
299.90962
299.97059
299.99554
300.00019
300.00024
300.00003
299.99998
299.99998
299.99998
299.99998
299.99998
299.99998
299.99998
299.99998
299.99998
299.99998
299.99998
299.99998
299.99998
299.99998
299.99998
299.99998
299.99998
299.99998
299.99997
299.99997
299.99997
299.99998
299.99999
300.00001
300.00003
300.00004
300.00005
343.30944
330.07675
318.01453
308.62474
302.9819
300.56241
299.9322
299.91018
299.96845
299.99463
300.00002
300.00024
300.00004
299.99998
299.99998
299.99998
299.99998
299.99998
299.99998
299.99998
299.99998
299.99998
299.99998
299.99998
299.99998
299.99998
299.99998
299.99998
299.99998
299.99998
299.99997
299.99997
299.99997
299.99997
299.99998
299.99999
300.00001
300.00003
300.00004
300.00006
343.31639
330.15452
318.20724
308.85467
303.15239
300.64519
299.95601
299.91168
299.96649
299.99369
299.99982
300.00023
300.00005
299.99999
299.99998
299.99998
299.99998
299.99998
299.99998
299.99998
299.99998
299.99998
299.99998
299.99998
299.99998
299.99998
299.99998
299.99998
299.99998
299.99998
299.99997
299.99997
299.99997
299.99997
299.99998
299.99999
300.00001
300.00003
300.00004
300.00006
343.31746
330.21254
318.37769
309.07002
303.31784
300.72859
299.98161
299.91412
299.96476
299.99274
299.9996
300.00021
300.00005
299.99999
299.99998
299.99998
299.99998
299.99998
299.99998
299.99998
299.99998
299.99998
299.99998
299.99998
299.99998
299.99998
299.99998
299.99998
299.99998
299.99998
299.99997
299.99997
299.99997
299.99997
299.99998
299.99999
300.00001
300.00003
300.00005
300.00006
343.31337
330.25137
318.52536
309.27005
303.47753
300.81214
300.00881
299.91752
299.96327
299.99178
299.99935
300.00019
300.00006
299.99999
299.99998
299.99998
299.99998
299.99998
299.99998
299.99998
299.99998
299.99998
299.99998
299.99998
299.99998
299.99998
299.99998
299.99998
299.99998
299.99997
299.99997
299.99997
299.99997
299.99997
299.99998
299.99999
300.00001
300.00003
300.00005
300.00006
343.30502
330.27211
318.64996
309.45403
303.63078
300.89539
300.03743
299.92185
299.96206
299.99084
299.99908
300.00015
300.00006
299.99999
299.99998
299.99998
299.99998
299.99998
299.99998
299.99998
299.99998
299.99998
299.99998
299.99998
299.99998
299.99998
299.99998
299.99998
299.99998
299.99997
299.99997
299.99997
299.99997
299.99997
299.99998
299.99999
300.00002
300.00003
300.00005
300.00006
343.29341
330.27645
318.75154
309.62136
303.77693
300.97787
300.06728
299.9271
299.96114
299.98992
299.9988
300.00011
300.00006
299.99999
299.99998
299.99998
299.99998
299.99998
299.99998
299.99998
299.99998
299.99998
299.99998
299.99998
299.99998
299.99998
299.99998
299.99998
299.99997
299.99997
299.99997
299.99997
299.99997
299.99997
299.99998
299.99999
300.00002
300.00003
300.00005
300.00006
343.27961
330.26668
318.83062
309.77156
303.91537
301.05912
300.09816
299.93323
299.96054
299.98905
299.99849
300.00006
300.00006
300
299.99998
299.99998
299.99998
299.99998
299.99998
299.99998
299.99998
299.99998
299.99998
299.99998
299.99998
299.99998
299.99998
299.99998
299.99997
299.99997
299.99997
299.99997
299.99997
299.99997
299.99998
300
300.00002
300.00004
300.00005
300.00007
343.26467
330.24558
318.88828
309.9044
304.04556
301.13873
300.12986
299.94021
299.96026
299.98822
299.99818
300
300.00006
300
299.99998
299.99998
299.99998
299.99998
299.99998
299.99998
299.99998
299.99998
299.99998
299.99998
299.99998
299.99998
299.99998
299.99997
299.99997
299.99997
299.99997
299.99997
299.99997
299.99997
299.99998
300
300.00002
300.00004
300.00005
300.00007
343.24955
330.21628
318.92618
310.01995
304.16708
301.21629
300.16218
299.94797
299.96033
299.98745
299.99786
299.99994
300.00006
300
299.99998
299.99998
299.99998
299.99998
299.99998
299.99998
299.99998
299.99998
299.99998
299.99998
299.99998
299.99998
299.99997
299.99997
299.99997
299.99997
299.99997
299.99997
299.99997
299.99997
299.99998
300
300.00002
300.00004
300.00005
300.00007
343.23504
330.182
318.9466
310.11859
304.27962
301.29144
300.19492
299.95646
299.96073
299.98676
299.99753
299.99986
300.00005
300
299.99998
299.99997
299.99997
299.99998
299.99998
299.99998
299.99998
299.99998
299.99998
299.99998
299.99998
299.99997
299.99997
299.99997
299.99997
299.99997
299.99997
299.99997
299.99997
299.99997
299.99998
300
300.00002
300.00004
300.00006
300.00007
343.22173
330.1458
318.95231
310.20114
304.38307
301.36388
300.22786
299.96563
299.96147
299.98615
299.9972
299.99978
300.00004
300
299.99998
299.99997
299.99997
299.99997
299.99998
299.99998
299.99998
299.99998
299.99998
299.99997
299.99997
299.99997
299.99997
299.99997
299.99997
299.99997
299.99997
299.99997
299.99997
299.99997
299.99998
300
300.00002
300.00004
300.00006
300.00007
343.20996
330.11034
318.94647
310.26875
304.47744
301.43335
300.26084
299.97539
299.96255
299.98563
299.99688
299.99969
300.00003
300
299.99998
299.99997
299.99997
299.99997
299.99997
299.99997
299.99997
299.99997
299.99997
299.99997
299.99997
299.99997
299.99997
299.99997
299.99997
299.99997
299.99997
299.99997
299.99997
299.99997
299.99998
300
300.00002
300.00004
300.00006
300.00007
343.19984
330.07767
318.9324
310.32298
304.56298
301.49969
300.29366
299.98568
299.96395
299.9852
299.99656
299.9996
300.00001
300
299.99998
299.99997
299.99997
299.99997
299.99997
299.99997
299.99997
299.99997
299.99997
299.99997
299.99997
299.99997
299.99997
299.99997
299.99997
299.99997
299.99997
299.99997
299.99997
299.99997
299.99998
300
300.00002
300.00004
300.00006
300.00008
343.19124
330.0491
318.91341
310.36567
304.64009
301.56277
300.32619
299.99644
299.96567
299.98487
299.99626
299.9995
300
300
299.99998
299.99997
299.99997
299.99997
299.99997
299.99997
299.99997
299.99997
299.99997
299.99997
299.99997
299.99997
299.99997
299.99997
299.99997
299.99997
299.99997
299.99997
299.99997
299.99997
299.99998
300
300.00002
300.00004
300.00006
300.00008
343.1839
330.02521
318.89252
310.39887
304.70937
301.62258
300.35828
300.00758
299.96768
299.98464
299.99597
299.9994
299.99998
300
299.99998
299.99997
299.99997
299.99997
299.99997
299.99997
299.99997
299.99997
299.99997
299.99997
299.99997
299.99997
299.99997
299.99997
299.99997
299.99997
299.99997
299.99997
299.99997
299.99997
299.99998
300
300.00002
300.00004
300.00006
300.00008
343.1774
330.00586
318.87227
310.42474
304.77155
301.67914
300.38983
300.01904
299.96998
299.98453
299.9957
299.99929
299.99995
299.99999
299.99998
299.99997
299.99997
299.99997
299.99997
299.99997
299.99997
299.99997
299.99997
299.99997
299.99997
299.99997
299.99997
299.99997
299.99997
299.99997
299.99997
299.99997
299.99996
299.99997
299.99998
300
300.00002
300.00004
300.00006
300.00008
343.17129
329.9903
318.85455
310.44538
304.82751
301.73257
300.42075
300.03075
299.97255
299.98451
299.99545
299.99919
299.99993
299.99999
299.99998
299.99997
299.99997
299.99997
299.99997
299.99997
299.99997
299.99997
299.99997
299.99997
299.99997
299.99997
299.99997
299.99997
299.99997
299.99997
299.99997
299.99996
299.99996
299.99997
299.99998
300
300.00002
300.00004
300.00006
300.00008
343.16512
329.97736
318.84048
310.46274
304.87815
301.78304
300.45099
300.04267
299.97536
299.98461
299.99522
299.99908
299.9999
299.99999
299.99998
299.99997
299.99997
299.99997
299.99997
299.99997
299.99997
299.99997
299.99997
299.99997
299.99997
299.99997
299.99997
299.99997
299.99997
299.99997
299.99997
299.99996
299.99996
299.99997
299.99998
300
300.00002
300.00004
300.00007
300.00008
343.15849
329.9656
318.83039
310.47842
304.92441
301.83077
300.48049
300.05472
299.97839
299.9848
299.99502
299.99897
299.99987
299.99998
299.99998
299.99997
299.99997
299.99997
299.99997
299.99997
299.99997
299.99997
299.99997
299.99997
299.99997
299.99997
299.99997
299.99997
299.99997
299.99997
299.99996
299.99996
299.99996
299.99997
299.99998
300
300.00002
300.00004
300.00007
300.00008
343.15106
329.95349
318.82379
310.49361
304.96715
301.87601
300.50925
300.06686
299.98162
299.9851
299.99484
299.99887
299.99984
299.99998
299.99997
299.99997
299.99997
299.99997
299.99997
299.99997
299.99997
299.99997
299.99997
299.99997
299.99997
299.99997
299.99997
299.99997
299.99997
299.99996
299.99996
299.99996
299.99996
299.99997
299.99998
300
300.00002
300.00004
300.00007
300.00008
343.14262
329.93959
318.81955
310.509
305.00713
301.919
300.53727
300.07905
299.98503
299.98548
299.99468
299.99877
299.99981
299.99997
299.99997
299.99997
299.99997
299.99997
299.99997
299.99997
299.99997
299.99997
299.99997
299.99997
299.99997
299.99997
299.99997
299.99997
299.99996
299.99996
299.99996
299.99996
299.99996
299.99997
299.99998
300
300.00002
300.00005
300.00007
300.00008
343.13308
329.92266
318.81597
310.52473
305.04487
301.95996
300.56454
300.09125
299.98859
299.98596
299.99456
299.99867
299.99978
299.99996
299.99997
299.99997
299.99997
299.99997
299.99997
299.99997
299.99997
299.99997
299.99997
299.99997
299.99997
299.99997
299.99996
299.99996
299.99996
299.99996
299.99996
299.99996
299.99996
299.99997
299.99998
300
300.00002
300.00005
300.00007
300.00009
343.12246
329.90179
318.81106
310.54044
305.0807
301.99905
300.59107
300.10343
299.9923
299.98653
299.99446
299.99858
299.99975
299.99996
299.99997
299.99997
299.99997
299.99997
299.99997
299.99997
299.99997
299.99997
299.99997
299.99997
299.99996
299.99996
299.99996
299.99996
299.99996
299.99996
299.99996
299.99996
299.99996
299.99997
299.99998
300
300.00002
300.00005
300.00007
300.00009
343.1109
329.87646
318.80274
310.55537
305.11475
302.03637
300.61684
300.11556
299.99614
299.98719
299.9944
299.99849
299.99972
299.99995
299.99997
299.99997
299.99996
299.99996
299.99996
299.99996
299.99996
299.99996
299.99996
299.99996
299.99996
299.99996
299.99996
299.99996
299.99996
299.99996
299.99996
299.99996
299.99996
299.99997
299.99998
300
300.00002
300.00005
300.00007
300.00009
343.09863
329.8466
318.78907
310.56848
305.14697
302.07195
300.64184
300.12762
300.00013
299.98796
299.99438
299.99841
299.99968
299.99994
299.99997
299.99997
299.99996
299.99996
299.99996
299.99996
299.99996
299.99996
299.99996
299.99996
299.99996
299.99996
299.99996
299.99996
299.99996
299.99996
299.99996
299.99996
299.99996
299.99997
299.99998
300
300.00002
300.00005
300.00007
300.00009
343.08593
329.81251
318.76843
310.57852
305.1772
302.10584
300.66603
300.13959
300.00425
299.98883
299.9944
299.99835
299.99965
299.99993
299.99997
299.99997
299.99996
299.99996
299.99996
299.99996
299.99996
299.99996
299.99996
299.99996
299.99996
299.99996
299.99996
299.99996
299.99996
299.99996
299.99996
299.99996
299.99996
299.99997
299.99998
300
300.00002
300.00005
300.00007
300.00009
343.07311
329.77485
318.73972
310.58417
305.20526
302.13813
300.68943
300.15145
300.00849
299.9898
299.99446
299.99829
299.99962
299.99992
299.99996
299.99997
299.99996
299.99996
299.99996
299.99996
299.99996
299.99996
299.99996
299.99996
299.99996
299.99996
299.99996
299.99996
299.99996
299.99996
299.99996
299.99996
299.99996
299.99997
299.99998
300
300.00002
300.00005
300.00007
300.00009
343.06048
329.73455
318.7024
310.58407
305.23089
302.16898
300.71211
300.16315
300.01279
299.99084
299.99455
299.99824
299.99959
299.99991
299.99996
299.99996
299.99996
299.99996
299.99996
299.99996
299.99996
299.99996
299.99996
299.99996
299.99996
299.99996
299.99996
299.99996
299.99996
299.99996
299.99996
299.99996
299.99996
299.99997
299.99998
300
300.00002
300.00005
300.00008
300.00009
343.04834
329.69268
318.65653
310.57684
305.25368
302.19862
300.7342
300.17468
300.01711
299.99192
299.99466
299.99819
299.99956
299.9999
299.99996
299.99996
299.99996
299.99996
299.99996
299.99996
299.99996
299.99996
299.99996
299.99996
299.99996
299.99996
299.99996
299.99996
299.99996
299.99996
299.99996
299.99996
299.99996
299.99997
299.99998
300
300.00002
300.00005
300.00008
300.00009
343.03692
329.65038
318.60276
310.56113
305.27299
302.2272
300.7559
300.18607
300.02138
299.99298
299.99475
299.99813
299.99953
299.99989
299.99995
299.99996
299.99996
299.99996
299.99996
299.99996
299.99996
299.99996
299.99996
299.99996
299.99996
299.99996
299.99996
299.99996
299.99996
299.99996
299.99996
299.99996
299.99996
299.99996
299.99998
299.99999
300.00002
300.00005
300.00008
300.00009
343.02641
329.60873
318.54226
310.53568
305.28772
302.25468
300.7774
300.19733
300.02553
299.99396
299.9948
299.99806
299.99949
299.99988
299.99995
299.99995
299.99995
299.99995
299.99995
299.99995
299.99995
299.99995
299.99995
299.99995
299.99995
299.99995
299.99995
299.99995
299.99995
299.99995
299.99995
299.99995
299.99996
299.99996
299.99997
299.99999
300.00002
300.00005
300.00008
300.00009
343.01692
329.56873
318.4766
310.49954
305.29637
302.28063
300.79879
300.20855
300.02955
299.99481
299.99479
299.99797
299.99944
299.99986
299.99994
299.99994
299.99994
299.99994
299.99994
299.99994
299.99994
299.99994
299.99994
299.99994
299.99994
299.99994
299.99994
299.99994
299.99994
299.99994
299.99994
299.99995
299.99995
299.99996
299.99997
299.99999
300.00001
300.00005
300.00008
300.00009
343.00853
329.53119
318.40768
310.45224
305.29705
302.30406
300.81993
300.2198
300.03346
299.99553
299.9947
299.99784
299.99939
299.99984
299.99993
299.99993
299.99993
299.99993
299.99993
299.99993
299.99993
299.99993
299.99993
299.99993
299.99993
299.99993
299.99993
299.99993
299.99993
299.99993
299.99994
299.99994
299.99994
299.99995
299.99996
299.99998
300.00001
300.00005
300.00008
300.00009
343.00123
329.49674
318.33756
310.39407
305.28776
302.32343
300.84036
300.23109
300.03736
299.99617
299.99455
299.99769
299.99932
299.99982
299.99991
299.99992
299.99992
299.99992
299.99992
299.99992
299.99992
299.99992
299.99992
299.99992
299.99992
299.99992
299.99992
299.99992
299.99992
299.99992
299.99993
299.99993
299.99993
299.99994
299.99996
299.99998
300.00001
300.00006
300.00009
300.00009
342.99499
329.46581
318.26838
310.32619
305.26687
302.33683
300.85924
300.24234
300.04137
299.99683
299.99438
299.99752
299.99926
299.99979
299.9999
299.99992
299.99991
299.99991
299.99991
299.99991
299.99991
299.99991
299.99991
299.99991
299.99991
299.99991
299.99991
299.99991
299.99992
299.99992
299.99992
299.99992
299.99993
299.99994
299.99995
299.99998
300.00001
300.00006
300.00009
300.00009
342.98975
329.43865
318.20211
310.25072
305.23352
302.3423
300.87543
300.25332
300.04562
299.99765
299.99426
299.99737
299.99919
299.99978
299.9999
299.99991
299.99991
299.99991
299.99991
299.99991
299.99991
299.99991
299.99991
299.99991
299.99991
299.99991
299.99991
299.99991
299.99991
299.99991
299.99991
299.99991
299.99992
299.99993
299.99995
299.99997
300.00002
300.00006
300.00009
300.00009
342.98544
329.41533
318.14052
310.17056
305.188
302.33828
300.88766
300.26364
300.05018
299.99879
299.99429
299.99726
299.99914
299.99976
299.99989
299.99991
299.99991
299.99991
299.99991
299.99991
299.99991
299.99991
299.99991
299.99991
299.99991
299.99991
299.99991
299.99991
299.99991
299.99991
299.99991
299.99991
299.99991
299.99992
299.99994
299.99998
300.00002
300.00007
300.00009
300.00009
342.98194
329.39577
318.08499
310.08907
305.13192
302.32402
300.8948
300.27276
300.05503
300.00034
299.99454
299.99723
299.99911
299.99975
299.99989
299.99991
299.99991
299.99991
299.99991
299.99991
299.99991
299.99991
299.99991
299.99991
299.99991
299.99991
299.99991
299.99991
299.99991
299.99991
299.99991
299.99991
299.99991