/*--------------------------------*- C++ -*----------------------------------*\
  =========                 |
  \\      /  F ield         | OpenFOAM: The Open Source CFD Toolbox
   \\    /   O peration     | Website:  https://openfoam.org
    \\  /    A nd           | Version:  10
     \\/     M anipulation  |
\*---------------------------------------------------------------------------*/
FoamFile
{
    format      ascii;
    class       volScalarField;
    location    "0.15";
    object      T_0;
}
// * * * * * * * * * * * * * * * * * * * * * * * * * * * * * * * * * * * * * //

dimensions      [0 0 0 1 0 0 0];

internalField   nonuniform List<scalar> 
4000
(
303.10134
299.34292
299.99042
300.00082
299.99993
300
300
300
300
300
300
300
300
300
300
300
300
300
300
300
300
300
300
300
300
300
300
300
300
300
300
300
300
300
300
300
300
300
300
300.00001
309.66334
298.493
299.77922
300.00184
300.0008
299.99999
300
300
300
300
300
300
300
300
300
300
300
300
300
300
300
300
300
300
300
300
300
300
300
300
300
300
300
300
300
300
300
300
299.99999
300.00002
316.00397
298.68457
299.39225
299.9757
300.00406
300.00025
299.99999
300
300
300
300
300
300
300
300
300
300
300
300
300
300
300
300
300
300
300
300
300
300
300
300
300
300
300
300
300
300
299.99999
299.99999
300.00002
321.74175
299.84579
298.98489
299.89493
300.00716
300.00138
300
299.99999
300
300
300
300
300
300
300
300
300
300
300
300
300
300
300
300
300
300
300
300
300
300
300
300
300
300
300
300
299.99999
299.99999
299.99999
300.00003
326.67022
301.70011
298.71012
299.75319
300.00322
300.00378
300.00017
299.99998
300
300
300
300
300
300
300
300
300
300
300
300
300
300
300
300
300
300
300
300
300
300
300
300
300
300
299.99999
299.99999
299.99999
299.99998
299.99999
300.00004
330.68376
303.94722
298.66336
299.56843
299.98427
300.00696
300.00071
299.99996
299.99999
300
300
300
300
300
300
300
300
300
300
300
300
300
300
300
300
300
300
300
300
300
300
300
300
299.99999
299.99999
299.99999
299.99999
299.99998
300
300.00004
333.77264
306.3294
298.87085
299.3739
299.9452
300.00937
300.0018
300
299.99998
300
300
300
300
300
300
300
300
300
300
300
300
300
300
300
300
300
300
300
300
300
300
300
299.99999
299.99999
299.99999
299.99999
299.99998
299.99998
300
300.00004
336.01964
308.66209
299.30747
299.20411
299.88587
300.00889
300.00344
300.00014
299.99996
299.99999
300
300
300
300
300
300
300
300
300
300
300
300
300
300
300
300
300
300
300
300
300
299.99999
299.99999
299.99999
299.99999
299.99999
299.99998
299.99998
300.00001
300.00004
337.57132
310.83447
299.92345
299.08498
299.81066
300.00352
300.0054
300.00045
299.99995
299.99999
299.99999
300
300
300
300
300
300
300
300
300
300
300
300
300
300
300
300
300
300
300
299.99999
299.99999
299.99999
299.99999
299.99999
299.99998
299.99998
299.99998
300.00001
300.00004
338.59902
312.79378
300.66421
299.03094
299.7266
299.99193
300.00723
300.00099
299.99996
299.99998
299.99999
299.99999
300
300
300
300
300
300
300
300
300
300
300
300
300
300
300
300
300
299.99999
299.99999
299.99999
299.99999
299.99999
299.99999
299.99998
299.99998
299.99998
300.00002
300.00004
339.26542
314.52712
301.48109
299.04638
299.64144
299.97374
300.00838
300.00174
300
299.99996
299.99999
299.99999
299.99999
300
300
300
300
300
300
300
300
300
300
300
300
300
300
300
299.99999
299.99999
299.99999
299.99999
299.99999
299.99999
299.99998
299.99998
299.99998
299.99999
300.00002
300.00004
339.70378
316.04574
302.3357
299.12859
299.56218
299.94938
300.00832
300.00266
300.00011
299.99995
299.99999
299.99999
299.99999
299.99999
300
300
300
300
300
300
300
300
300
300
300
300
300
299.99999
299.99999
299.99999
299.99999
299.99999
299.99999
299.99999
299.99998
299.99998
299.99998
299.99999
300.00002
300.00004
340.01067
317.37305
303.20038
299.27085
299.4944
299.91995
300.0066
300.00365
300.00029
299.99995
299.99998
299.99999
299.99999
299.99999
299.99999
299.99999
300
300
300
300
300
300
300
300
300
299.99999
299.99999
299.99999
299.99999
299.99999
299.99999
299.99999
299.99999
299.99999
299.99998
299.99998
299.99998
299.99999
300.00003
300.00004
340.24872
318.5365
304.05666
299.46473
299.44205
299.88691
300.00293
300.00458
300.00055
299.99995
299.99998
299.99999
299.99999
299.99999
299.99999
299.99999
299.99999
299.99999
300
300
300
300
300
299.99999
299.99999
299.99999
299.99999
299.99999
299.99999
299.99999
299.99999
299.99999
299.99999
299.99998
299.99998
299.99998
299.99998
300
300.00003
300.00004
340.45435
319.56288
304.89318
299.70164
299.40755
299.85186
299.99718
300.00531
300.00088
299.99997
299.99997
299.99999
299.99999
299.99999
299.99999
299.99999
299.99999
299.99999
299.99999
299.99999
299.99999
299.99999
299.99999
299.99999
299.99999
299.99999
299.99999
299.99999
299.99999
299.99999
299.99999
299.99999
299.99999
299.99998
299.99998
299.99997
299.99998
300
300.00003
300.00003
340.64628
320.47599
305.70349
299.97361
299.39215
299.8164
299.98936
300.0057
300.00128
300.00001
299.99996
299.99999
299.99999
299.99999
299.99999
299.99999
299.99999
299.99999
299.99999
299.99999
299.99999
299.99999
299.99999
299.99999
299.99999
299.99999
299.99999
299.99999
299.99999
299.99999
299.99999
299.99999
299.99999
299.99998
299.99998
299.99997
299.99998
300
300.00003
300.00003
340.83253
321.29578
306.48445
300.27365
299.39617
299.78199
299.97962
300.00563
300.00171
300.00008
299.99996
299.99998
299.99999
299.99999
299.99999
299.99999
299.99999
299.99999
299.99999
299.99999
299.99999
299.99999
299.99999
299.99999
299.99999
299.99999
299.99999
299.99999
299.99999
299.99999
299.99999
299.99999
299.99998
299.99998
299.99998
299.99997
299.99998
300
300.00003
300.00003
341.01539
322.0384
307.23497
300.59581
299.41932
299.7499
299.96818
300.005
300.00214
300.00017
299.99996
299.99998
299.99999
299.99999
299.99999
299.99999
299.99999
299.99999
299.99999
299.99999
299.99999
299.99999
299.99999
299.99999
299.99999
299.99999
299.99999
299.99999
299.99999
299.99999
299.99999
299.99999
299.99998
299.99998
299.99998
299.99997
299.99998
300.00001
300.00003
300.00003
341.19448
322.71659
307.95511
300.9351
299.46086
299.72124
299.95535
300.00374
300.00254
300.00029
299.99996
299.99998
299.99999
299.99999
299.99999
299.99999
299.99999
299.99999
299.99999
299.99999
299.99999
299.99999
299.99999
299.99999
299.99999
299.99999
299.99999
299.99999
299.99999
299.99999
299.99999
299.99999
299.99998
299.99998
299.99998
299.99997
299.99998
300.00001
300.00003
300.00003
341.36853
323.34027
308.64559
301.28738
299.51984
299.69688
299.94148
300.00181
300.00287
300.00044
299.99997
299.99998
299.99999
299.99999
299.99999
299.99999
299.99999
299.99999
299.99999
299.99999
299.99999
299.99999
299.99999
299.99999
299.99999
299.99999
299.99999
299.99999
299.99999
299.99999
299.99999
299.99998
299.99998
299.99998
299.99998
299.99997
299.99999
300.00001
300.00003
300.00003
341.53619
323.91709
309.30739
301.6492
299.5951
299.67754
299.92693
299.99918
300.0031
300.0006
299.99999
299.99997
299.99999
299.99999
299.99999
299.99999
299.99999
299.99999
299.99999
299.99999
299.99999
299.99999
299.99999
299.99999
299.99999
299.99999
299.99999
299.99999
299.99999
299.99999
299.99999
299.99998
299.99998
299.99998
299.99997
299.99998
299.99999
300.00001
300.00003
300.00003
341.69641
324.45299
309.9416
302.01766
299.68545
299.66376
299.91207
299.99587
300.00319
300.00077
300.00002
299.99997
299.99998
299.99999
299.99999
299.99999
299.99999
299.99999
299.99999
299.99999
299.99999
299.99999
299.99999
299.99999
299.99999
299.99999
299.99999
299.99999
299.99999
299.99999
299.99998
299.99998
299.99998
299.99998
299.99997
299.99998
299.99999
300.00002
300.00003
300.00003
341.84854
324.95261
310.54931
302.39034
299.78965
299.65593
299.89727
299.99191
300.00311
300.00095
300.00006
299.99997
299.99998
299.99999
299.99999
299.99999
299.99999
299.99999
299.99999
299.99999
299.99999
299.99999
299.99999
299.99999
299.99999
299.99999
299.99999
299.99999
299.99999
299.99999
299.99998
299.99998
299.99998
299.99998
299.99997
299.99998
299.99999
300.00002
300.00003
300.00003
341.99227
325.41962
311.13156
302.76516
299.90645
299.65432
299.88288
299.98736
300.00283
300.00112
300.0001
299.99997
299.99998
299.99999
299.99999
299.99999
299.99999
299.99999
299.99999
299.99999
299.99999
299.99999
299.99999
299.99999
299.99999
299.99999
299.99999
299.99999
299.99999
299.99999
299.99998
299.99998
299.99998
299.99998
299.99997
299.99998
299.99999
300.00002
300.00003
300.00003
342.12753
325.85698
311.68931
303.14038
300.03463
299.65908
299.86923
299.98229
300.00234
300.00128
300.00015
299.99998
299.99998
299.99999
299.99999
299.99999
299.99999
299.99999
299.99999
299.99999
299.99999
299.99999
299.99999
299.99999
299.99999
299.99999
299.99999
299.99999
299.99999
299.99998
299.99998
299.99998
299.99998
299.99998
299.99997
299.99998
300
300.00002
300.00003
300.00003
342.25445
326.26711
312.22345
303.51449
300.17302
299.67028
299.85663
299.97678
300.00161
300.0014
300.00021
299.99998
299.99998
299.99999
299.99999
299.99999
299.99999
299.99999
299.99999
299.99999
299.99999
299.99999
299.99999
299.99999
299.99999
299.99999
299.99999
299.99999
299.99999
299.99998
299.99998
299.99998
299.99998
299.99998
299.99997
299.99998
300
300.00002
300.00003
300.00003
342.37328
326.65204
312.7348
303.88616
300.32046
299.68789
299.84535
299.97092
300.00065
300.00149
300.00027
299.99999
299.99998
299.99998
299.99999
299.99999
299.99999
299.99999
299.99999
299.99999
299.99999
299.99999
299.99999
299.99999
299.99999
299.99999
299.99999
299.99999
299.99998
299.99998
299.99998
299.99998
299.99998
299.99997
299.99997
299.99998
300
300.00002
300.00003
300.00003
342.48426
327.01347
313.2241
304.25427
300.47588
299.71182
299.83565
299.96481
299.99946
300.00154
300.00034
300
299.99998
299.99998
299.99999
299.99999
299.99999
299.99999
299.99999
299.99999
299.99999
299.99999
299.99999
299.99999
299.99999
299.99999
299.99999
299.99999
299.99998
299.99998
299.99998
299.99998
299.99998
299.99997
299.99997
299.99998
300
300.00002
300.00003
300.00003
342.58769
327.35282
313.69201
304.61781
300.63821
299.74191
299.82773
299.95857
299.99802
300.00153
300.00041
300.00002
299.99998
299.99998
299.99999
299.99999
299.99999
299.99999
299.99999
299.99999
299.99999
299.99999
299.99999
299.99999
299.99999
299.99999
299.99999
299.99998
299.99998
299.99998
299.99998
299.99998
299.99998
299.99997
299.99997
299.99998
300
300.00002
300.00003
300.00003
342.68378
327.67128
314.13914
304.9759
300.80644
299.77797
299.82179
299.9523
299.99637
300.00145
300.00047
300.00003
299.99998
299.99998
299.99998
299.99999
299.99999
299.99999
299.99999
299.99999
299.99999
299.99999
299.99999
299.99999
299.99999
299.99999
299.99998
299.99998
299.99998
299.99998
299.99998
299.99998
299.99998
299.99997
299.99997
299.99998
300
300.00002
300.00003
300.00003
342.77273
327.96983
314.56601
305.32774
300.97963
299.81976
299.81798
299.94612
299.99451
300.0013
300.00053
300.00005
299.99998
299.99998
299.99998
299.99998
299.99999
299.99999
299.99999
299.99999
299.99999
299.99999
299.99999
299.99999
299.99999
299.99998
299.99998
299.99998
299.99998
299.99998
299.99998
299.99998
299.99998
299.99997
299.99997
299.99998
300
300.00003
300.00003
300.00003
342.85466
328.24924
314.97305
305.6726
301.15685
299.86698
299.81643
299.94012
299.99246
300.00107
300.00058
300.00007
299.99998
299.99998
299.99998
299.99998
299.99998
299.99999
299.99999
299.99999
299.99999
299.99999
299.99999
299.99999
299.99998
299.99998
299.99998
299.99998
299.99998
299.99998
299.99998
299.99998
299.99998
299.99997
299.99997
299.99998
300.00001
300.00003
300.00003
300.00004
342.92964
328.51008
315.3606
306.00982
301.33722
299.91933
299.81722
299.93441
299.99026
300.00077
300.00062
300.0001
299.99998
299.99998
299.99998
299.99998
299.99998
299.99998
299.99998
299.99999
299.99999
299.99999
299.99998
299.99998
299.99998
299.99998
299.99998
299.99998
299.99998
299.99998
299.99998
299.99998
299.99997
299.99997
299.99997
299.99999
300.00001
300.00003
300.00003
300.00004
342.99767
328.75273
315.72894
306.33877
301.5199
299.97646
299.82042
299.92911
299.98792
300.00038
300.00065
300.00012
299.99999
299.99998
299.99998
299.99998
299.99998
299.99998
299.99998
299.99998
299.99998
299.99998
299.99998
299.99998
299.99998
299.99998
299.99998
299.99998
299.99998
299.99998
299.99998
299.99998
299.99997
299.99997
299.99997
299.99999
300.00001
300.00003
300.00003
300.00004
343.05872
328.97739
316.07818
306.65886
301.70406
300.03803
299.82607
299.92429
299.98548
299.99991
300.00065
300.00014
299.99999
299.99998
299.99998
299.99998
299.99998
299.99998
299.99998
299.99998
299.99998
299.99998
299.99998
299.99998
299.99998
299.99998
299.99998
299.99998
299.99998
299.99998
299.99998
299.99998
299.99997
299.99997
299.99997
299.99999
300.00001
300.00003
300.00004
300.00004
343.11269
329.18406
316.40837
306.96948
301.88892
300.10364
299.83418
299.92005
299.98297
299.99936
300.00064
300.00017
300
299.99998
299.99998
299.99998
299.99998
299.99998
299.99998
299.99998
299.99998
299.99998
299.99998
299.99998
299.99998
299.99998
299.99998
299.99998
299.99998
299.99998
299.99998
299.99998
299.99997
299.99997
299.99997
299.99999
300.00001
300.00003
300.00004
300.00004
343.15952
329.37258
316.7194
307.27006
302.07371
300.17291
299.84474
299.91646
299.98043
299.99873
300.0006
300.00019
300
299.99998
299.99998
299.99998
299.99998
299.99998
299.99998
299.99998
299.99998
299.99998
299.99998
299.99998
299.99998
299.99998
299.99998
299.99998
299.99998
299.99998
299.99998
299.99998
299.99997
299.99997
299.99997
299.99999
300.00001
300.00003
300.00004
300.00005
343.19911
329.54266
317.01104
307.55997
302.25767
300.24541
299.85771
299.91361
299.97791
299.99803
300.00054
300.00021
300.00001
299.99998
299.99998
299.99998
299.99998
299.99998
299.99998
299.99998
299.99998
299.99998
299.99998
299.99998
299.99998
299.99998
299.99998
299.99998
299.99998
299.99998
299.99998
299.99997
299.99997
299.99997
299.99998
299.99999
300.00001
300.00003
300.00004
300.00005
343.23142
329.69387
317.28294
307.83859
302.44005
300.32073
299.87302
299.91155
299.97542
299.99726
300.00045
300.00022
300.00002
299.99998
299.99998
299.99998
299.99998
299.99998
299.99998
299.99998
299.99998
299.99998
299.99998
299.99998
299.99998
299.99998
299.99998
299.99998
299.99998
299.99998
299.99998
299.99997
299.99997
299.99997
299.99998
299.99999
300.00001
300.00003
300.00004
300.00005
343.25648
329.82574
317.5346
308.10526
302.62011
300.39843
299.8906
299.91033
299.97303
299.99644
300.00034
300.00023
300.00003
299.99998
299.99998
299.99998
299.99998
299.99998
299.99998
299.99998
299.99998
299.99998
299.99998
299.99998
299.99998
299.99998
299.99998
299.99998
299.99998
299.99998
299.99998
299.99997
299.99997
299.99997
299.99998
299.99999
300.00001
300.00003
300.00004
300.00005
343.27442
329.93781
317.76544
308.35926
302.79713
300.47806
299.91035
299.90999
299.97075
299.99557
300.00019
300.00024
300.00003
299.99998
299.99998
299.99998
299.99998
299.99998
299.99998
299.99998
299.99998
299.99998
299.99998
299.99998
299.99998
299.99998
299.99998
299.99998
299.99998
299.99998
299.99998
299.99997
299.99997
299.99997
299.99998
299.99999
300.00001
300.00003
300.00004
300.00005
343.28554
330.02974
317.97478
308.59986
302.97035
300.55915
299.93213
299.91057
299.96863
299.99466
300.00002
300.00023
300.00004
299.99998
299.99998
299.99998
299.99998
299.99998
299.99998
299.99998
299.99998
299.99998
299.99998
299.99998
299.99998
299.99998
299.99998
299.99998
299.99998
299.99998
299.99997
299.99997
299.99997
299.99997
299.99998
299.99999
300.00001
300.00003
300.00004
300.00006
343.29026
330.10142
318.16194
308.82627
303.13906
300.64125
299.95581
299.91209
299.96669
299.99373
299.99982
300.00023
300.00005
299.99999
299.99998
299.99998
299.99998
299.99998
299.99998
299.99998
299.99998
299.99998
299.99998
299.99998
299.99998
299.99998
299.99998
299.99998
299.99998
299.99998
299.99997
299.99997
299.99997
299.99997
299.99998
299.99999
300.00001
300.00003
300.00004
300.00006
343.28923
330.15311
318.32629
309.03773
303.30252
300.72389
299.98124
299.91455
299.96498
299.99279
299.9996
300.00021
300.00005
299.99999
299.99998
299.99998
299.99998
299.99998
299.99998
299.99998
299.99998
299.99998
299.99998
299.99998
299.99998
299.99998
299.99998
299.99998
299.99998
299.99998
299.99997
299.99997
299.99997
299.99997
299.99998
299.99999
300.00001
300.00003
300.00005
300.00006
343.28325
330.18555
318.46736
309.23346
303.46001
300.80658
300.00823
299.91795
299.96353
299.99185
299.99936
300.00018
300.00006
299.99999
299.99998
299.99998
299.99998
299.99998
299.99998
299.99998
299.99998
299.99998
299.99998
299.99998
299.99998
299.99998
299.99998
299.99998
299.99998
299.99997
299.99997
299.99997
299.99997
299.99997
299.99998
299.99999
300.00001
300.00003
300.00005
300.00006
343.27328
330.20006
318.58496
309.41276
303.61083
300.88887
300.03661
299.92228
299.96234
299.99092
299.99909
300.00015
300.00006
299.99999
299.99998
299.99998
299.99998
299.99998
299.99998
299.99998
299.99998
299.99998
299.99998
299.99998
299.99998
299.99998
299.99998
299.99998
299.99998
299.99997
299.99997
299.99997
299.99997
299.99997
299.99998
299.99999
300.00002
300.00003
300.00005
300.00006
343.26038
330.19861
318.67931
309.57504
303.75434
300.97027
300.06617
299.92752
299.96145
299.99001
299.99881
300.00011
300.00006
299.99999
299.99998
299.99998
299.99998
299.99998
299.99998
299.99998
299.99998
299.99998
299.99998
299.99998
299.99998
299.99998
299.99998
299.99998
299.99997
299.99997
299.99997
299.99997
299.99997
299.99997
299.99998
299.99999
300.00002
300.00003
300.00005
300.00007
343.24565
330.18372
318.75111
309.71992
303.88993
301.05036
300.09673
299.93362
299.96088
299.98915
299.99851
300.00006
300.00006
299.99999
299.99998
299.99998
299.99998
299.99998
299.99998
299.99998
299.99998
299.99998
299.99998
299.99998
299.99998
299.99998
299.99998
299.99998
299.99997
299.99997
299.99997
299.99997
299.99997
299.99997
299.99998
299.99999
300.00002
300.00004
300.00005
300.00007
343.23015
330.15842
318.80169
309.84724
304.0171
301.1287
300.12806
299.94055
299.96062
299.98834
299.9982
300
300.00006
300
299.99998
299.99998
299.99998
299.99998
299.99998
299.99998
299.99998
299.99998
299.99998
299.99998
299.99998
299.99998
299.99998
299.99997
299.99997
299.99997
299.99997
299.99997
299.99997
299.99997
299.99998
300
300.00002
300.00004
300.00005
300.00007
343.2148
330.12598
318.83296
309.95719
304.13545
301.20489
300.15997
299.94826
299.96071
299.98759
299.99788
299.99993
300.00006
300
299.99998
299.99998
299.99998
299.99998
299.99998
299.99998
299.99998
299.99998
299.99998
299.99998
299.99998
299.99998
299.99997
299.99997
299.99997
299.99997
299.99997
299.99997
299.99997
299.99997
299.99998
300
300.00002
300.00004
300.00005
300.00007
343.20036
330.08967
318.84745
310.05031
304.24475
301.27861
300.19224
299.95667
299.96112
299.98691
299.99756
299.99986
300.00005
300
299.99998
299.99997
299.99997
299.99998
299.99998
299.99998
299.99998
299.99998
299.99998
299.99998
299.99998
299.99997
299.99997
299.99997
299.99997
299.99997
299.99997
299.99997
299.99997
299.99997
299.99998
300
300.00002
300.00004
300.00006
300.00007
343.18732
330.05254
318.84815
310.12756
304.34491
301.34955
300.22469
299.96574
299.96188
299.98631
299.99724
299.99978
300.00004
300
299.99998
299.99997
299.99997
299.99997
299.99997
299.99997
299.99998
299.99998
299.99997
299.99997
299.99997
299.99997
299.99997
299.99997
299.99997
299.99997
299.99997
299.99997
299.99997
299.99997
299.99998
300
300.00002
300.00004
300.00006
300.00007
343.17595
330.01708
318.83838
310.19027
304.43604
301.41749
300.25712
299.97539
299.96296
299.98581
299.99692
299.99969
300.00003
300
299.99998
299.99997
299.99997
299.99997
299.99997
299.99997
299.99997
299.99997
299.99997
299.99997
299.99997
299.99997
299.99997
299.99997
299.99997
299.99997
299.99997
299.99997
299.99997
299.99997
299.99998
300
300.00002
300.00004
300.00006
300.00007
343.16624
329.98513
318.82156
310.24013
304.51843
301.48226
300.28938
299.98555
299.96436
299.98539
299.99661
299.9996
300.00001
300
299.99998
299.99997
299.99997
299.99997
299.99997
299.99997
299.99997
299.99997
299.99997
299.99997
299.99997
299.99997
299.99997
299.99997
299.99997
299.99997
299.99997
299.99997
299.99997
299.99997
299.99998
300
300.00002
300.00004
300.00006
300.00008
343.15802
329.95774
318.80097
310.27911
304.59259
301.5438
300.32131
299.99615
299.96607
299.98508
299.99631
299.9995
299.99999
300
299.99998
299.99997
299.99997
299.99997
299.99997
299.99997
299.99997
299.99997
299.99997
299.99997
299.99997
299.99997
299.99997
299.99997
299.99997
299.99997
299.99997
299.99997
299.99997
299.99997
299.99998
300
300.00002
300.00004
300.00006
300.00008
343.15093
329.9352
318.77954
310.30934
304.65916
301.60208
300.35279
300.00713
299.96807
299.98486
299.99603
299.9994
299.99997
300
299.99998
299.99997
299.99997
299.99997
299.99997
299.99997
299.99997
299.99997
299.99997
299.99997
299.99997
299.99997
299.99997
299.99997
299.99997
299.99997
299.99997
299.99997
299.99997
299.99997
299.99998
300
300.00002
300.00004
300.00006
300.00008
343.14453
329.91708
318.75961
310.33302
304.71893
301.65718
300.38371
300.0184
299.97034
299.98475
299.99576
299.9993
299.99995
299.99999
299.99998
299.99997
299.99997
299.99997
299.99997
299.99997
299.99997
299.99997
299.99997
299.99997
299.99997
299.99997
299.99997
299.99997
299.99997
299.99997
299.99997
299.99996
299.99996
299.99997
299.99998
300
300.00002
300.00004
300.00006
300.00008
343.13834
329.90241
318.74281
310.35221
304.77282
301.70923
300.414
300.02992
299.97288
299.98475
299.99552
299.9992
299.99993
299.99999
299.99998
299.99997
299.99997
299.99997
299.99997
299.99997
299.99997
299.99997
299.99997
299.99997
299.99997
299.99997
299.99997
299.99997
299.99997
299.99997
299.99997
299.99996
299.99996
299.99997
299.99998
300
300.00002
300.00004
300.00006
300.00008
343.13192
329.88986
318.72997
310.36878
304.82175
301.75842
300.44361
300.04162
299.97565
299.98485
299.9953
299.99909
299.9999
299.99999
299.99998
299.99997
299.99997
299.99997
299.99997
299.99997
299.99997
299.99997
299.99997
299.99997
299.99997
299.99997
299.99997
299.99997
299.99997
299.99997
299.99996
299.99996
299.99996
299.99997
299.99998
300
300.00002
300.00004
300.00007
300.00008
343.12488
329.87787
318.72107
310.38418
304.86664
301.80498
300.4725
300.05345
299.97863
299.98504
299.9951
299.99899
299.99988
299.99998
299.99997
299.99997
299.99997
299.99997
299.99997
299.99997
299.99997
299.99997
299.99997
299.99997
299.99997
299.99997
299.99997
299.99997
299.99997
299.99997
299.99996
299.99996
299.99996
299.99997
299.99998
300
300.00002
300.00004
300.00007
300.00008
343.11692
329.86489
318.71532
310.39942
304.90831
301.84917
300.50066
300.06535
299.9818
299.98533
299.99492
299.99889
299.99985
299.99998
299.99997
299.99997
299.99997
299.99997
299.99997
299.99997
299.99997
299.99997
299.99997
299.99997
299.99997
299.99997
299.99997
299.99997
299.99997
299.99996
299.99996
299.99996
299.99996
299.99997
299.99998
300
300.00002
300.00004
300.00007
300.00008
343.10789
329.84953
318.7113
310.41495
304.94743
301.8912
300.52809
300.0773
299.98513
299.98571
299.99477
299.99879
299.99982
299.99997
299.99997
299.99997
299.99997
299.99997
299.99997
299.99997
299.99997
299.99997
299.99997
299.99997
299.99997
299.99997
299.99997
299.99996
299.99996
299.99996
299.99996
299.99996
299.99996
299.99997
299.99998
300
300.00002
300.00005
300.00007
300.00008
343.09775
329.83064
318.70714
310.43071
304.98444
301.93128
300.55479
300.08924
299.98862
299.98618
299.99465
299.9987
299.99978
299.99996
299.99997
299.99997
299.99997
299.99997
299.99997
299.99997
299.99997
299.99997
299.99997
299.99997
299.99997
299.99996
299.99996
299.99996
299.99996
299.99996
299.99996
299.99996
299.99996
299.99997
299.99998
300
300.00002
300.00005
300.00007
300.00009
343.08658
329.80748
318.70072
310.44615
305.01959
301.96951
300.58074
300.10116
299.99226
299.98674
299.99456
299.99861
299.99975
299.99996
299.99997
299.99997
299.99996
299.99996
299.99997
299.99997
299.99997
299.99997
299.99997
299.99996
299.99996
299.99996
299.99996
299.99996
299.99996
299.99996
299.99996
299.99996
299.99996
299.99997
299.99998
300
300.00002
300.00005
300.00007
300.00009
343.07455
329.77971
318.68996
310.46039
305.05292
302.00597
300.60594
300.11304
299.99604
299.9874
299.99451
299.99852
299.99972
299.99995
299.99997
299.99997
299.99996
299.99996
299.99996
299.99996
299.99997
299.99996
299.99996
299.99996
299.99996
299.99996
299.99996
299.99996
299.99996
299.99996
299.99996
299.99996
299.99996
299.99996
299.99998
300
300.00002
300.00005
300.00007
300.00009
343.06194
329.74745
318.67298
310.47226
305.08436
302.04072
300.63035
300.12486
299.99997
299.98817
299.99449
299.99845
299.99969
299.99994
299.99997
299.99997
299.99996
299.99996
299.99996
299.99997
299.99997
299.99997
299.99996
299.99996
299.99996
299.99996
299.99996
299.99996
299.99996
299.99996
299.99996
299.99996
299.99996
299.99996
299.99998
300
300.00002
300.00005
300.00007
300.00009
343.04904
329.71118
318.64835
310.48046
305.11375
302.07383
300.65398
300.13657
300.00402
299.98904
299.99452
299.99838
299.99966
299.99993
299.99997
299.99997
299.99996
299.99996
299.99996
299.99996
299.99997
299.99996
299.99996
299.99996
299.99996
299.99996
299.99996
299.99996
299.99996
299.99996
299.99996
299.99996
299.99996
299.99997
299.99998
300
300.00002
300.00005
300.00007
300.00009
343.03619
329.67172
318.61517
310.4836
305.1409
302.10544
300.67686
300.14816
300.00817
299.99
299.99458
299.99833
299.99963
299.99992
299.99996
299.99997
299.99996
299.99996
299.99996
299.99996
299.99996
299.99996
299.99996
299.99996
299.99996
299.99996
299.99996
299.99996
299.99996
299.99996
299.99996
299.99996
299.99996
299.99997
299.99998
300
300.00002
300.00005
300.00008
300.00009
343.02368
329.63009
318.57318
310.48025
305.16548
302.13578
300.69912
300.1596
300.01236
299.991
299.99467
299.99828
299.9996
299.99991
299.99996
299.99996
299.99996
299.99996
299.99996
299.99996
299.99996
299.99996
299.99996
299.99996
299.99996
299.99996
299.99996
299.99996
299.99996
299.99996
299.99996
299.99996
299.99996
299.99997
299.99998
300
300.00002
300.00005
300.00008
300.00009
343.0118
329.58745
318.52272
310.46895
305.18695
302.16504
300.7209
300.17088
300.01652
299.99201
299.99475
299.99822
299.99957
299.9999
299.99996
299.99996
299.99996
299.99996
299.99996
299.99996
299.99996
299.99996
299.99996
299.99996
299.99996
299.99996
299.99996
299.99996
299.99996
299.99996
299.99996
299.99996
299.99996
299.99997
299.99998
300
300.00002
300.00005
300.00008
300.00009
343.00076
329.54495
318.46472
310.44831
305.20438
302.1933
300.74243
300.18201
300.02059
299.99295
299.9948
299.99815
299.99953
299.99989
299.99995
299.99995
299.99995
299.99995
299.99995
299.99995
299.99995
299.99995
299.99995
299.99995
299.99995
299.99995
299.99995
299.99995
299.99995
299.99995
299.99995
299.99995
299.99996
299.99996
299.99998
299.99999
300.00002
300.00005
300.00008
300.00009
342.99071
329.50366
318.40061
310.41715
305.21638
302.22026
300.76382
300.19306
300.02451
299.99378
299.99479
299.99807
299.99949
299.99987
299.99994
299.99995
299.99995
299.99994
299.99994
299.99994
299.99994
299.99994
299.99994
299.99994
299.99994
299.99994
299.99994
299.99994
299.99995
299.99995
299.99995
299.99995
299.99995
299.99996
299.99997
299.99999
300.00001
300.00005
300.00008
300.00009
342.98175
329.46451
318.33222
310.37472
305.22113
302.24516
300.78505
300.2041
300.02829
299.99447
299.9947
299.99795
299.99944
299.99985
299.99993
299.99994
299.99994
299.99993
299.99993
299.99993
299.99993
299.99993
299.99993
299.99993
299.99993
299.99993
299.99994
299.99994
299.99994
299.99994
299.99994
299.99994
299.99995
299.99995
299.99997
299.99998
300.00001
300.00005
300.00008
300.00009
342.9739
329.42824
318.26163
310.32094
305.21659
302.26665
300.80578
300.21517
300.03202
299.99506
299.99455
299.9978
299.99938
299.99983
299.99992
299.99993
299.99993
299.99992
299.99992
299.99992
299.99992
299.99992
299.99992
299.99992
299.99992
299.99993
299.99993
299.99993
299.99993
299.99993
299.99993
299.99993
299.99994
299.99995
299.99996
299.99998
300.00001
300.00006
300.00008
300.00009
342.96715
329.39539
318.19104
310.25662
305.20089
302.28291
300.82533
300.22626
300.03581
299.99563
299.99436
299.99764
299.99932
299.99981
299.99991
299.99992
299.99992
299.99992
299.99992
299.99992
299.99992
299.99992
299.99992
299.99992
299.99992
299.99992
299.99992
299.99992
299.99992
299.99992
299.99992
299.99992
299.99993
299.99994
299.99995
299.99998
300.00001
300.00006
300.00009
300.00009
342.96144
329.36631
318.12258
310.18357
305.1728
302.29195
300.84266
300.2372
300.03981
299.9963
299.9942
299.99748
299.99925
299.99979
299.9999
299.99991
299.99991
299.99991
299.99991
299.99991
299.99991
299.99991
299.99991
299.99991
299.99991
299.99991
299.99991
299.99991
299.99991
299.99991
299.99991
299.99991
299.99992
299.99993
299.99995
299.99997
300.00002
300.00006
300.00009
300.00009
342.95671
329.34113
318.0582
310.10447
305.13215
302.292
300.85656
300.24767
300.04412
299.99724
299.99415
299.99735
299.9992
299.99978
299.9999
299.99991
299.99991
299.99991
299.99991
299.99991
299.99991
299.99991
299.99991
299.99991
299.99991
299.99991
299.99991
299.99991
299.99991
299.99991
299.99991
299.99991
299.99991
299.99992
299.99994
299.99997
300.00002
300.00007
300.00009
300.00009
342.95286
329.31983
317.99949
310.02262
305.08008
302.28199
300.86581
300.25722
300.04877
299.99858
299.9943
299.99729
299.99916
299.99977
299.99989
299.99991
299.99991
299.99991
299.99991
299.99991
299.99991
299.99991
299.99991
299.99991
299.99991
299.99991
299.99991
299.99991
299.99991
299.99991
299.99991
299.99991
299.99991
299.99992
299.99994
299.99998
300.00003
300.00007
300.00009
300.00009
342.94979
329.30226
317.9476
309.94158
305.01897
302.26187
300.86956
300.26532
300.05368
300.0004
299.99472
299.99733
299.99915
299.99976
299.9999
299.99991
299.99991
299.99991
299.99991
299.99991
299.99991
299.99991
299.99991
299.99991
299.99991
299.99991
299.99991
299.99991
299.99991
299.99991