/*--------------------------------*- C++ -*----------------------------------*\
  =========                 |
  \\      /  F ield         | OpenFOAM: The Open Source CFD Toolbox
   \\    /   O peration     | Website:  https://openfoam.org
    \\  /    A nd           | Version:  10
     \\/     M anipulation  |
\*---------------------------------------------------------------------------*/
FoamFile
{
    format      ascii;
    class       volScalarField;
    location    "0.15";
    object      TporMedia_0;
}
// * * * * * * * * * * * * * * * * * * * * * * * * * * * * * * * * * * * * * //

dimensions      [0 0 0 1 0 0 0];

internalField   nonuniform List<scalar> 
4000
(
-4.4657669e-05
1.7734868e-05
0.00019469104
0.00018169449
0.00015277771
0.00016784368
0.00016327436
0.00016196035
0.00018313547
0.000168647
0.00014981345
0.00016374978
0.00017308377
0.00015204819
0.00017782202
0.00017027235
0.00015891721
0.00017471584
0.00016973053
0.00016071899
0.00016621397
0.00015802893
0.00016191408
0.00017410612
0.00016786172
0.00018242412
0.00019047444
0.00017761248
0.00015868563
0.00016301147
0.00015874818
0.00017856237
0.00015372686
0.00015798015
0.00017024831
0.00017101357
0.00016032753
0.00014297067
0.0001615419
0.00016454696
-3.4840748e-06
1.703318e-13
5.5472401e-12
7.3891429e-11
4.9648995e-11
4.3661173e-11
4.4832024e-11
4.6773266e-11
5.0371127e-11
5.3132368e-11
4.9137111e-11
4.3418344e-11
5.2904871e-11
3.8133488e-11
5.154379e-11
4.5759224e-11
4.7584551e-11
5.026109e-11
5.7926451e-11
4.520132e-11
5.0191176e-11
4.8871521e-11
4.9394216e-11
4.6038193e-11
5.0521658e-11
5.7380799e-11
6.1752138e-11
5.1572261e-11
4.4066313e-11
5.0696037e-11
4.8535765e-11
4.5499151e-11
4.5115072e-11
4.6307509e-11
4.7874489e-11
4.4000198e-11
3.808111e-11
4.2448793e-11
5.1630149e-11
4.373774e-11
-1.4114681e-06
-5.6228511e-14
4.8473285e-20
6.0571897e-18
6.2840009e-17
1.6589156e-17
1.0890904e-17
1.501949e-17
1.3097134e-17
1.408362e-17
1.171967e-17
1.1366974e-17
1.2360043e-17
1.1899371e-17
1.2302984e-17
1.2164207e-17
1.5200065e-17
1.4178838e-17
1.6912878e-17
1.4102119e-17
1.5303877e-17
1.4629761e-17
1.2476119e-17
1.1624921e-17
1.3147333e-17
1.4782035e-17
1.9220387e-17
1.4017099e-17
1.2369886e-17
1.2721173e-17
1.2113433e-17
1.3606246e-17
1.1892944e-17
1.1348174e-17
1.3905585e-17
1.2049537e-17
1.043415e-17
1.1320758e-17
1.5193995e-17
1.1716304e-17
-7.6640861e-07
3.4412042e-15
1.6188991e-23
1.1868028e-25
-1.0942929e-22
7.6127034e-24
2.765071e-24
4.0257551e-24
4.7517943e-24
3.9650879e-24
3.3784785e-24
2.9553828e-24
3.4218292e-24
3.8707063e-24
3.5166989e-24
3.8004876e-24
4.1565482e-24
4.3373009e-24
4.8854346e-24
4.4103196e-24
4.0201624e-24
3.7719796e-24
3.8889526e-24
3.5055328e-24
4.0601948e-24
4.2341905e-24
5.5133623e-24
4.2813353e-24
3.7299954e-24
3.569725e-24
3.4824941e-24
3.6871489e-24
3.4273611e-24
3.210725e-24
3.8560878e-24
3.6266065e-24
2.8892523e-24
3.0358461e-24
4.3907318e-24
3.0480576e-24
-4.8920123e-07
6.8361934e-16
2.4980952e-24
1.938964e-32
-2.7181253e-29
-1.0386371e-29
1.001147e-30
1.1274075e-30
1.3295787e-30
1.2175021e-30
9.4722587e-31
8.1254793e-31
9.5364724e-31
1.0364291e-30
1.1277871e-30
1.2658188e-30
1.1451638e-30
1.2567266e-30
1.2873009e-30
1.2694272e-30
1.0092491e-30
1.0551992e-30
1.1107642e-30
1.0361554e-30
1.2043169e-30
1.3833165e-30
1.7131948e-30
1.2511351e-30
9.2785468e-31
1.087076e-30
1.0400832e-30
1.0514526e-30
8.5143446e-31
9.4674534e-31
1.0484828e-30
9.5863779e-31
9.0563097e-31
9.8877582e-31
1.2093994e-30
8.7752016e-31
-3.4655625e-07
2.3411461e-16
1.0602715e-24
3.980034e-33
-9.9789401e-37
2.3953627e-36
4.0343003e-37
3.5621642e-37
4.1975974e-37
3.4252587e-37
3.1755859e-37
2.4795096e-37
2.7715e-37
3.2619177e-37
3.1824347e-37
3.5711816e-37
3.0427231e-37
3.5173937e-37
3.9454285e-37
3.6861283e-37
3.2259625e-37
2.9697465e-37
3.2616095e-37
2.6536714e-37
3.0840738e-37
3.6702189e-37
4.7637329e-37
3.1304919e-37
2.682408e-37
2.9639682e-37
2.8078263e-37
2.9068812e-37
2.3334745e-37
2.5982883e-37
2.969295e-37
2.9949484e-37
2.5188769e-37
2.8715212e-37
3.4214986e-37
2.3826519e-37
-2.6425083e-07
1.0478978e-16
-6.1497888e-24
-1.4231329e-32
-1.7215193e-40
-2.7567931e-43
-7.7247998e-43
9.1041562e-44
1.2557902e-43
1.1225896e-43
1.0551746e-43
7.6712603e-44
7.4278999e-44
9.1584969e-44
8.1840697e-44
1.0861485e-43
9.8514469e-44
1.1742299e-43
1.1394914e-43
1.1297878e-43
8.5909981e-44
9.3126816e-44
9.874294e-44
7.9465087e-44
1.0896083e-43
1.0896377e-43
1.462362e-43
1.0564889e-43
7.1781612e-44
8.9577059e-44
6.1748186e-44
8.4262771e-44
6.5155555e-44
9.216895e-44
7.9260112e-44
8.5860197e-44
7.2571373e-44
8.4190823e-44
8.3283572e-44
6.4371395e-44
-2.1234532e-07
5.5424787e-17
-1.1089267e-25
-1.8582243e-34
-1.0197262e-42
2.6484221e-49
1.485887e-49
2.8891399e-50
2.9749036e-50
3.0687731e-50
3.1823726e-50
2.2854545e-50
2.7447615e-50
2.3290449e-50
2.5210464e-50
3.4275802e-50
2.6363657e-50
3.9601039e-50
3.7813579e-50
3.6670322e-50
2.3263945e-50
2.8335654e-50
2.8834694e-50
2.22549e-50
2.7822047e-50
3.2461975e-50
4.3691599e-50
3.3265421e-50
2.2614086e-50
2.2389971e-50
1.9564716e-50
2.6459132e-50
1.9490771e-50
2.6682226e-50
2.3674967e-50
2.2270331e-50
2.2020401e-50
2.3967291e-50
2.3896981e-50
1.8844039e-50
-1.7678038e-07
3.2692134e-17
-2.554823e-26
-3.547111e-35
-1.0671423e-43
-9.2987361e-51
-1.2317229e-56
2.5452831e-56
8.1666766e-57
9.7539435e-57
9.2891782e-57
8.2712791e-57
8.4318042e-57
6.5384416e-57
7.335575e-57
9.028167e-57
8.0505292e-57
1.1399199e-56
1.081e-56
1.0282127e-56
9.1221199e-57
1.0085658e-56
1.1078075e-56
7.393763e-57
8.6348601e-57
9.6807761e-57
1.3470869e-56
8.8332517e-57
7.733041e-57
6.7428435e-57
6.5590682e-57
8.0702819e-57
5.09109e-57
8.4791176e-57
7.5565024e-57
5.6694625e-57
5.7168911e-57
6.894383e-57
6.9278438e-57
5.6530726e-57
-1.5008597e-07
2.0700855e-17
-8.6479599e-27
-1.1474349e-35
-2.1539663e-44
-4.1806648e-52
2.3969188e-59
-3.9679926e-62
2.4333144e-63
3.4823492e-63
3.2131601e-63
3.8724322e-63
2.745771e-63
2.47991e-63
2.3826934e-63
2.8757678e-63
2.6147995e-63
3.6216871e-63
4.0325295e-63
3.8231764e-63
4.6224004e-63
3.8596417e-63
3.63326e-63
2.2448635e-63
2.800932e-63
2.963637e-63
4.4525678e-63
2.8386039e-63
2.4500563e-63
1.7885336e-63
1.9175445e-63
2.6303249e-63
1.5546985e-63
2.2194913e-63
2.0983085e-63
1.5411355e-63
1.5103307e-63
2.2042813e-63
2.0307556e-63
1.5916956e-63
-1.2834384e-07
1.36902e-17
-3.5257529e-27
-5.4505607e-36
-7.0266862e-45
-5.6989152e-53
2.6496871e-60
-4.8305833e-67
1.0230996e-69
1.4652939e-69
1.695841e-69
3.1751515e-69
1.3983052e-69
8.5518437e-70
7.3220217e-70
1.47558e-69
8.6191286e-70
1.2277127e-69
1.4666315e-69
1.4260765e-69
3.2114904e-69
1.6560919e-69
1.6739904e-69
4.2947192e-68
1.0520984e-69
1.0952539e-69
1.4926998e-69
9.5744397e-70
7.9726837e-70
6.0288302e-70
5.2626039e-70
8.7536228e-70
5.1195792e-70
7.3698464e-70
6.9223325e-70
5.270299e-70
4.9323003e-70
7.0417482e-70
7.2239813e-70
5.0668706e-70
-1.0963796e-07
9.2800217e-18
-1.604225e-27
-4.628712e-36
-4.4205252e-45
-1.8728118e-53
8.9811321e-61
-7.5251601e-68
-2.891493e-74
6.9665489e-76
2.4647657e-75
6.2703727e-75
1.1093761e-75
3.9806629e-76
3.8171453e-76
2.1916989e-75
3.5175005e-76
5.8033391e-76
5.5888758e-76
6.510358e-76
4.5402089e-75
1.2100564e-75
9.5516446e-76
1.5881405e-73
4.0380229e-76
5.6718366e-76
5.7279456e-76
3.283913e-76
3.335481e-76
2.8304207e-76
1.6240789e-76
6.1719833e-76
8.402897e-76
2.1820636e-76
2.5502587e-76
1.6797396e-76
2.1789148e-76
2.0343134e-76
2.3060383e-76
1.6423013e-76
-9.3163805e-08
6.3752838e-18
-7.8275403e-28
3.9321344e-36
2.9610689e-45
7.466534e-54
-8.4898974e-61
4.3778746e-68
1.3733714e-73
3.3040559e-80
5.2765333e-81
7.1075671e-81
1.4891847e-81
5.0890463e-82
8.7706198e-82
4.4838052e-81
2.4496621e-82
3.9250974e-82
4.2779394e-82
6.029296e-82
9.0665942e-81
1.9227285e-81
8.1103075e-82
2.3664942e-79
1.6320723e-82
3.9588441e-82
5.1879688e-82
1.2376624e-82
1.819879e-82
2.1711855e-82
9.7064749e-83
6.1059819e-82
1.6443937e-81
1.0533169e-82
9.5653915e-83
7.0684466e-83
9.3030418e-83
7.1682646e-83
1.1643415e-82
5.5950285e-83
-7.8747002e-08
4.4158388e-18
-4.0088491e-28
3.8307401e-37
2.4060638e-46
3.9470983e-55
2.0555493e-62
-7.1555736e-70
3.2602683e-76
8.1732923e-83
9.3175204e-87
1.9696357e-86
2.8003086e-87
7.8410947e-88
1.9467582e-87
5.8345074e-87
2.2209175e-88
7.2175546e-88
5.3534931e-88
6.5374151e-88
1.4338679e-86
4.4255788e-87
7.6646865e-88
2.6140319e-85
1.786143e-88
5.0164209e-88
7.2281131e-88
5.5190092e-89
2.7961754e-88
2.6228315e-88
8.2899731e-89
7.3614674e-88
2.6591693e-87
6.2883078e-89
1.3875989e-88
6.3457309e-89
5.7378558e-89
3.3389092e-89
1.6404554e-88
2.1488276e-89
-6.6342863e-08
3.0796781e-18
-2.1300196e-28
9.4349784e-38
5.2120651e-47
5.9448336e-56
8.3970056e-64
-2.2588923e-71
3.4379807e-78
1.0363261e-84
3.4322459e-91
2.9774366e-92
6.960159e-93
7.5113754e-94
9.7490369e-93
7.0882165e-93
3.9136394e-94
1.9473543e-93
2.9684983e-93
6.7116843e-94
5.6460258e-92
6.0996859e-93
6.903935e-94
4.5958295e-90
3.2757104e-94
5.3908919e-94
8.1266211e-94
6.9064901e-95
3.7001236e-94
3.1494451e-94
8.4633697e-95
7.9880748e-94
2.9628224e-93
5.5736344e-95
1.3304858e-94
8.6794064e-95
4.9580122e-95
2.5174181e-95
2.1025569e-94
8.6911118e-96
-5.5844867e-08
2.1624097e-18
-1.1658545e-28
2.9903614e-38
1.5381033e-47
1.2826181e-56
8.4303284e-65
-1.9706652e-72
1.5699991e-79
6.2450066e-86
1.8621428e-92
8.1943457e-98
1.1026171e-98
1.3703311e-99
2.8076096e-98
2.6600143e-98
1.4328767e-99
8.903355e-99
6.2774603e-99
1.3928615e-99
9.0980353e-98
2.2781865e-98
9.7819091e-100
6.5878273e-96
1.9685209e-99
-8.6883428e-99
9.4563884e-100
1.2394601e-100
5.8596103e-100
7.4551075e-100
6.6539103e-101
2.3852617e-99
3.7284329e-99
1.1228971e-100
1.5226836e-100
1.149568e-100
5.6089623e-101
3.1337829e-101
3.3572526e-99
4.2885354e-102
-4.7061427e-08
1.5292267e-18
-6.5436624e-29
1.0827787e-38
5.5411763e-48
3.5220043e-57
1.3009991e-65
-2.9378145e-73
1.4886548e-80
9.5445562e-87
2.7936162e-93
9.3857483e-100
1.688177e-104
2.1623198e-105
4.5611438e-103
5.1839999e-104
2.586095e-105
1.3945421e-104
2.3398806e-104
2.2909412e-105
2.0482617e-103
5.6095737e-104
1.391904e-105
6.2783398e-102
3.5703392e-105
-1.757197e-104
2.2749612e-105
4.1310859e-106
2.8806939e-105
1.3036598e-105
6.8669363e-107
3.1044996e-105
5.7959425e-105
1.3301013e-106
1.7520849e-106
1.6540393e-106
1.8336407e-106
6.5615184e-107
-6.9402122e-104
2.2677586e-108
-3.9754054e-08
1.0893885e-18
-3.7538215e-29
4.2779083e-39
2.3881752e-48
1.1994554e-57
2.7684841e-66
-7.4865805e-74
2.5434699e-81
-8.2746885e-87
-2.1639617e-93
-6.5385138e-100
-2.4826769e-106
1.7542611e-110
2.8118708e-108
1.7557445e-109
-9.3193105e-111
2.5455401e-110
6.3595349e-109
8.5755278e-111
1.0599443e-108
1.40197e-109
3.0350289e-111
1.3482743e-107
3.0139074e-111
-6.9684035e-110
6.9395653e-111
5.4135444e-112
4.0830902e-111
1.8380535e-111
8.3375937e-113
1.4569131e-110
1.3281875e-110
1.93485e-112
1.4588568e-112
4.5433875e-112
2.4540434e-112
1.4386124e-112
7.5520971e-110
1.362161e-114
-3.3669497e-08
7.8129251e-19
-2.1938023e-29
1.8000329e-39
1.2847413e-48
5.2595055e-58
8.1461933e-67
-4.4449765e-74
1.1160254e-81
-3.1004632e-88
-9.4081417e-95
-2.8981322e-101
-9.2740087e-108
-4.1723981e-114
6.9044403e-114
6.7565625e-115
-2.5431961e-116
-8.7734486e-116
7.8776982e-114
1.183648e-116
4.5247375e-114
2.5201192e-115
4.327446e-117
3.6549942e-113
1.8596961e-116
-2.1520008e-115
1.5395299e-116
-1.5527647e-115
9.5908804e-117
3.5345567e-117
9.758856e-119
4.0501288e-116
2.3245171e-116
2.4647332e-118
2.5426869e-118
6.0219113e-118
5.1660007e-118
-3.5626266e-117
-3.6944264e-115
7.6241653e-121
-2.8591343e-08
5.6381907e-19
-1.3028964e-29
7.9533496e-40
1.1042407e-48
3.7919395e-58
4.1394632e-67
2.3607523e-74
-4.6745717e-82
6.0892183e-89
1.7051173e-95
5.7409269e-102
1.7373229e-108
5.6038962e-115
-1.0904561e-119
7.5975453e-121
-6.1844432e-122
-1.6581482e-121
6.7324926e-119
1.9122237e-122
2.0559409e-119
3.2389307e-121
6.0356501e-123
-4.620974e-119
5.2406202e-122
-1.781708e-120
7.257479e-122
-2.9905265e-121
1.7896352e-122
5.5066083e-121
1.1286307e-124
8.8680946e-122
4.8190296e-122
3.9097066e-124
5.9717395e-124
1.2255586e-123
8.4376418e-124
-1.2256917e-122
2.9893734e-121
2.6703505e-126
-2.4327175e-08
4.0894442e-19
-7.8424908e-30
3.6521086e-40
-1.1318853e-48
-3.3493911e-58
-2.6844897e-67
-3.5170683e-75
5.8233301e-83
-4.2417178e-90
-1.8075898e-96
-6.0075618e-103
-2.2095004e-109
-8.5125813e-116
-2.915549e-122
-3.2562104e-127
-8.8869662e-127
-5.8456461e-126
4.8987944e-124
-1.7992869e-127
6.6429432e-125
1.5588597e-126
1.0423903e-128
1.0418725e-124
2.4995089e-127
-4.0971874e-126
-2.0040055e-127
-5.9819863e-127
1.4498862e-127
1.0390825e-126
3.0651641e-130
4.9456007e-127
1.7386477e-127
3.7539483e-130
1.2557195e-129
3.0103928e-129
-1.206564e-129
-5.9162491e-128
-5.9440332e-128
-1.3967335e-131
-2.0725358e-08
2.9778891e-19
-4.7735184e-30
1.7298544e-40
-9.5615342e-50
-2.5038644e-59
-1.5221603e-68
-9.3902817e-77
1.3775828e-84
-6.6601057e-92
-4.9828586e-98
-1.3424383e-104
-5.1471961e-111
-2.1066642e-117
-6.9668208e-124
-2.6209366e-130
2.690511e-131
-3.3646924e-131
-9.1694481e-130
-6.6390351e-133
1.1234345e-129
-2.5826318e-131
-1.7371756e-134
-1.0443475e-129
7.2111509e-132
-7.4920887e-131
1.1884635e-132
-1.3144262e-132
1.5186864e-132
4.585065e-132
-7.1477677e-136
2.3977575e-132
2.0187957e-133
1.4379166e-135
2.0227404e-135
3.8883863e-135
-3.813698e-135
5.2100597e-134
4.501183e-134
1.374154e-137
-1.766862e-08
2.174955e-19
-2.9323438e-30
8.4055017e-41
-2.1961029e-50
-5.2304167e-60
-2.4801883e-69
-8.789033e-78
1.2256595e-85
-4.2043915e-93
1.3346891e-96
3.7326543e-103
1.7314275e-109
5.9823182e-116
2.1900334e-122
9.1046044e-129
3.6055831e-135
1.5268091e-136
-5.4089965e-135
3.0458417e-138
-2.7339204e-135
1.5068474e-136
1.7470337e-139
-3.4231678e-134
-3.265083e-137
-6.1109649e-136
-5.0175265e-138
-5.5893408e-138
-2.3126209e-138
5.7937289e-138
1.6093565e-140
6.4434178e-137
2.3373455e-139
-2.9438167e-141
3.3539705e-141
1.3066058e-140
-5.5947666e-141
-9.2446763e-139
-2.710594e-141
-5.5674113e-144
-1.5065917e-08
1.5918821e-19
-1.8149205e-30
4.171571e-41
-6.4361587e-51
-1.4365367e-60
-5.4418723e-70
-1.2265097e-78
1.7936775e-86
-4.6339961e-94
2.1200084e-100
5.9827403e-107
1.9981259e-113
7.4632696e-120
2.8601258e-126
1.2101197e-132
4.9608839e-139
-3.4840223e-142
-1.0469642e-139
-5.1653744e-144
-3.8904334e-140
-5.2956756e-142
7.3589384e-145
6.4549922e-140
1.8127642e-142
5.176251e-141
-1.8704148e-143
1.658045e-143
-1.6979372e-143
2.8730303e-143
7.1004786e-145
2.0073465e-142
3.7575412e-145
3.9524403e-146
7.7159178e-147
2.9922404e-146
2.441161e-147
1.3067916e-144
1.0904143e-146
1.4982198e-150
-1.2848363e-08
1.1670985e-19
-1.130564e-30
2.1079913e-41
-2.1325086e-51
-4.6166513e-61
-1.4267698e-70
-2.1894811e-79
3.8932473e-87
-7.7799877e-95
1.4457695e-101
5.2366136e-108
1.9727292e-114
8.0119596e-121
3.6250067e-127
1.1732506e-133
5.7674456e-140
2.195895e-146
1.5416315e-143
-1.2945293e-149
3.086217e-145
2.3849476e-147
-2.4893144e-151
4.5416088e-145
-3.5470854e-148
6.8846453e-146
3.5945369e-148
5.7104794e-149
1.5442206e-147
-3.5651187e-147
-3.3250495e-150
7.1339077e-148
1.6598561e-150
6.4129321e-152
2.4646944e-152
1.2523702e-151
-3.2637356e-152
-1.0828279e-150
1.2814497e-152
-3.8146145e-157
-1.0959659e-08
8.568777e-20
-7.0817284e-31
1.0818337e-41
-7.6384471e-52
-1.6752109e-61
-4.3082587e-71
-4.7135264e-80
1.5462001e-87
-2.5204051e-95
2.4570927e-102
1.0782938e-108
4.0297322e-115
2.1206816e-121
7.523955e-128
3.0376383e-134
1.3108518e-140
7.0125661e-147
-2.2293865e-149
1.7888364e-154
-1.1646727e-150
-1.0260154e-152
4.4467445e-156
-8.365015e-151
-2.8655308e-153
-2.0695477e-151
-1.7643159e-153
-3.1905749e-154
5.2731693e-153
9.9121434e-153
3.3505545e-155
-2.7976813e-153
-9.3430419e-156
3.9696929e-157
4.3455847e-158
3.7032648e-157
4.1434409e-157
1.4031525e-156
-6.7301208e-158
1.2552453e-163
-9.3525663e-09
6.2994191e-20
-4.4578003e-31
5.6281235e-42
-2.8925507e-52
-6.8199478e-62
-1.4856003e-71
-1.2024021e-80
-1.0156729e-87
1.3808229e-95
-8.8968458e-103
-3.5863005e-109
-1.3424174e-115
-6.3901676e-122
-2.5088863e-128
-1.2824899e-134
-5.5282003e-141
-2.9249051e-147
-1.6115083e-153
-9.8773842e-160
1.249301e-156
2.6856832e-158
-2.249485e-162
6.6566208e-157
-5.7993816e-159
2.5552548e-156
7.2240528e-159
5.9543524e-160
-1.219145e-158
-5.3022628e-158
-2.4323662e-159
5.1780319e-159
-8.7738701e-161
2.4945177e-162
-2.8552338e-163
-5.3393608e-163
-1.596105e-162
1.7567957e-163
8.5087637e-164
-1.6134057e-169
-7.9857592e-09
4.6367164e-20
-2.8183368e-31
2.9630926e-42
-1.1430268e-52
-3.1828677e-62
-5.9733247e-72
-3.6795427e-81
-4.8793643e-89
5.858078e-97
-2.8256127e-104
-2.9721089e-110
-8.4503348e-117
-3.6865057e-123
-1.6124327e-129
-7.9659814e-136
-4.5990719e-142
-1.8983719e-148
-1.1449351e-154
-5.8856249e-161
-2.7520372e-162
-1.3717268e-163
1.1658187e-167
-1.8230917e-162
4.9806777e-165
-1.1452232e-161
-6.4760763e-165
-7.084666e-166
1.1984879e-163
2.0133776e-163
1.4074803e-164
3.9258269e-164
1.0526225e-165
1.3720659e-166
5.8611729e-169
3.6439295e-169
1.242296e-168
4.4316107e-169
2.5077631e-169
3.8454557e-176
-6.8233766e-09
3.4165472e-20
-1.7885529e-31
1.5764428e-42
-4.6735767e-53
-1.8482598e-62
-3.038667e-72
-1.4592582e-81
-8.8347211e-90
9.7039929e-98
-3.3331281e-105
6.2580857e-111
2.202195e-117
8.625391e-124
3.5368659e-130
1.9544408e-136
1.1211592e-142
5.074229e-149
3.0388696e-155
1.236353e-161
9.3841293e-168
2.3233168e-169
-1.1903724e-173
2.6543771e-168
-4.2143351e-170
4.437556e-168
1.4740688e-170
2.9225485e-171
-5.163661e-169
-3.058854e-169
4.9361615e-170
-1.0403219e-169
5.3203637e-171
6.8931998e-172
-1.7292293e-174
-7.9557966e-175
-4.7206859e-175
2.0559275e-175
4.9198283e-175
7.2338532e-182
-5.8349359e-09
2.5200227e-20
-1.1388066e-31
8.4649234e-43
-1.9653155e-53
-2.0452109e-62
-2.9936792e-72
-1.1448047e-81
-3.9915125e-90
4.2249336e-98
-1.1464766e-105
5.4702588e-112
2.6031458e-118
1.0471933e-124
6.9712942e-131
3.4033043e-137
2.1003695e-143
1.3685711e-149
7.0860233e-156
4.452099e-162
2.9379542e-168
1.0926804e-174
3.0736598e-179
-2.2545517e-173
2.7116659e-176
-1.368334e-173
-4.2412104e-176
-2.5321397e-177
7.7005434e-175
-2.2356256e-174
-1.6785815e-175
7.8659056e-175
-6.1351608e-177
-6.6851248e-178
1.2678114e-180
1.7193167e-180
2.8279766e-181
2.9428561e-181
5.142949e-181
5.7185034e-188
-4.9947513e-09
1.860717e-20
-7.2727527e-32
4.5830304e-43
-8.4630617e-54
6.9728127e-63
9.2420018e-73
2.8661358e-82
6.4615573e-91
-6.8776076e-99
1.4590481e-106
-2.8675873e-113
-1.6035013e-119
-6.871366e-126
-3.4110928e-132
-2.6306525e-138
-2.5401444e-144
-1.9351962e-150
-1.6981385e-156
-1.4299185e-162
-1.0676093e-168
-9.2887418e-175
-8.7535342e-181
1.7448314e-179
-2.6827232e-182
3.337597e-179
4.4236895e-182
3.0107135e-183
-9.2349815e-181
1.2478653e-178
1.0201341e-181
-3.3236803e-180
-1.1725096e-181
7.9381275e-183
-6.5095124e-186
-4.7386036e-187
-2.0745565e-186
3.0104805e-187
2.9651778e-187
2.6095478e-194
-4.2812966e-09
1.3756803e-20
-4.6580275e-32
2.5001934e-43
-3.7201978e-54
9.0506987e-64
1.1054083e-73
2.8266204e-83
4.3898559e-92
-5.3023635e-100
9.2552256e-108
-1.1425444e-114
-5.575374e-121
-3.3269743e-127
-1.7727337e-133
-1.3013604e-139
-1.1575543e-145
-1.0133491e-151
-1.2961173e-157
-1.1112401e-163
-9.6460015e-170
-9.1443172e-176
-6.6658815e-182
-4.1371742e-185
1.0270684e-187
-1.4715648e-185
-8.5059477e-188
-6.0721914e-189
5.6917134e-187
-7.628709e-185
-5.6248461e-187
6.3269975e-186
1.3984805e-187
-8.8146919e-189
3.3318138e-192
1.6036012e-192
1.3916461e-191
3.7394411e-193
8.0497751e-194
7.2597534e-201
-3.6764111e-09
1.0188418e-20
-2.9923895e-32
1.3737642e-43
-1.6655227e-54
2.1192042e-64
2.4303684e-74
5.2015658e-84
5.8367559e-93
-9.2008194e-101
1.344753e-108
-1.1103834e-115
-9.6540882e-122
-7.2421115e-128
-4.1375608e-134
-4.151575e-140
-4.8761456e-146
-6.3515442e-152
-4.7840391e-158
-3.7593682e-164
-4.8600126e-170
-5.4792424e-176
-4.2530315e-182
-5.3868545e-188
-1.4188494e-193
6.2274518e-191
5.1836989e-194
4.5535859e-195
-1.902751e-192
8.3571198e-191
1.609835e-192
-1.7386308e-191
-1.3167949e-193
1.2446123e-194
-6.8391862e-198
5.9994439e-199
-1.4232979e-196
3.2987061e-199
1.7936637e-200
1.5911682e-207
-3.1646671e-09
7.563881e-21
-1.9289782e-32
7.6024232e-44
-7.5824944e-55
6.0186911e-65
6.6203719e-75
1.2024047e-84
1.009796e-93
-3.3079167e-101
4.1960619e-109
-2.5064431e-116
-6.3327758e-122
-3.9037848e-128
-8.3922997e-134
-8.2858154e-140
-1.2767339e-145
-1.1033509e-151
-2.0531394e-157
-5.1457906e-163
-1.3931334e-168
-9.9817732e-175
-3.4395616e-180
2.1543547e-185
1.2217177e-190
2.3453081e-196
-2.2442145e-200
2.3245013e-201
2.6896067e-198
-1.3153137e-196
-1.2680596e-198
1.5636081e-197
2.6808029e-199
-3.1724984e-200
3.3466268e-204
9.7003983e-204
-3.0453987e-201
1.3374007e-204
3.449967e-207
3.1298693e-214
-2.7327347e-09
5.6340538e-21
-1.2486008e-32
4.2384175e-44
-3.5071309e-55
1.8975543e-65
2.0522864e-75
3.2053464e-85
2.0703071e-94
1.0633945e-101
-1.2039134e-109
5.3202428e-117
-5.7862878e-123
-4.1797122e-129
-6.9658905e-135
-1.1293098e-140
-1.8735889e-146
-1.7718619e-151
-8.8761131e-157
-1.562718e-162
3.9108959e-168
5.207176e-174
1.7632678e-178
3.7830285e-184
3.557718e-190
-5.0056285e-195
-3.3719897e-200
-3.7621208e-206
8.5649256e-204
-3.1869843e-203
1.0495678e-204
-1.8984907e-203
-3.1507164e-205
1.2184532e-206
-3.7847781e-210
4.8783447e-209
3.3266595e-207
2.5223253e-210
5.4046195e-214
5.285437e-221
-2.3691183e-09
4.2152738e-21
-8.1231887e-33
2.3819428e-44
-1.6474379e-55
6.415154e-66
7.0331067e-76
9.5656243e-86
4.8600122e-95
5.4924494e-103
-5.7462561e-111
2.0049409e-118
-8.546658e-125
-1.3009317e-130
-7.1751302e-136
2.6617427e-141
6.887968e-147
1.4773328e-152
3.86547e-158
-1.5485482e-163
7.2510374e-169
-3.6393964e-174
4.4156767e-179
2.8799673e-184
-2.2053034e-189
1.3692034e-194
-1.4879474e-199
-2.8914942e-204
3.7864402e-209
-5.2417295e-208
1.7927764e-210
-1.2976577e-210
2.2639058e-211
-2.939606e-212
-2.2498699e-216
-5.1814227e-215
-3.5059898e-213
-1.5687968e-215
6.6767128e-221
6.9857198e-228
-2.0639023e-09
3.1721713e-21
-5.3186679e-33
1.3507143e-44
-7.8607899e-56
2.2868576e-66
2.6458319e-76
3.1723989e-86
1.29402e-95
7.105119e-104
-7.0070376e-112
1.9646022e-119
-5.0736152e-126
-6.3696577e-132
3.9915989e-137
3.6341306e-142
-8.3282879e-148
4.0640485e-153
-1.0036693e-158
-6.2624357e-164
1.3682796e-168
-8.9463144e-174
1.512786e-178
6.7907498e-184
-1.3280204e-189
1.7128072e-195
1.915237e-200
-4.8794393e-205
1.1944451e-210
6.0050029e-213
2.3512803e-215
2.498348e-214
2.04603e-217
-2.1051628e-218
4.5390678e-221
4.5388761e-221
3.052453e-219
-1.2489489e-221
6.7696895e-228
7.7542461e-235
-1.808538e-09
2.4050107e-21
-3.5105073e-33
7.7394235e-45
-3.8128177e-56
8.5185301e-67
1.1015797e-76
1.1784323e-86
3.9245405e-96
1.3038857e-104
-1.2744682e-112
2.9532538e-120
-5.2892621e-127
3.7590683e-132
2.2260017e-137
-4.9473927e-142
6.169877e-148
-2.1178523e-153
2.3952511e-159
-1.9029749e-165
7.1381458e-171
-1.0389669e-176
2.734554e-181
-2.0674875e-186
2.6667852e-192
-5.5178326e-198
5.1637428e-204
-3.2860821e-209
1.2089191e-214
-6.1960015e-219
4.3907237e-221
-5.0514946e-220
-6.8231612e-222
-3.7144998e-222
-6.5559839e-227
-3.8407902e-227
-1.7693307e-225
-1.1388803e-227
-5.016232e-235
1.4946462e-242
-1.5956987e-09
1.8404404e-21
-2.3405392e-33
4.489275e-45
-1.8824632e-56
3.3000519e-67
5.2379203e-77
5.0608393e-87
1.3972172e-96
3.1060272e-105
-3.1833876e-113
6.2505684e-121
-7.2074125e-128
-1.8678297e-133
3.7876404e-139
-8.0736065e-145
5.5521635e-151
-9.2706886e-157
8.4333951e-163
-7.8293661e-169
1.5139199e-174
-1.3793683e-180
1.7186903e-186
3.1702866e-193
-2.9533248e-198
1.6233517e-203
-6.590498e-209
1.4569852e-214
-2.7245858e-220
8.3195658e-225
-2.471794e-226
2.8403611e-225
7.800975e-227
1.3731395e-226
-7.3382114e-233
1.8119314e-233
8.3525133e-232
-1.0477892e-233
-1.1503062e-240
-5.9605068e-248
-1.4191224e-09
1.4245745e-21
-1.5801653e-33
2.6423367e-45
-9.4786002e-57
1.3266913e-67
3.1212084e-77
2.7572148e-87
6.4027477e-97
1.0131459e-105
-1.1832014e-113
1.9911572e-121
-1.8268673e-128
1.4445703e-134
-2.7214095e-140
7.3194637e-146
-9.1663834e-152
9.196487e-158
-7.2982659e-164
7.2769868e-170
-6.5042817e-176
6.2746045e-182
-4.7853661e-188
5.8214456e-194
-5.8040157e-200
4.700579e-206
-4.7196966e-212
5.2976152e-218
-4.1515447e-224
3.6609881e-230
5.9754114e-232
-2.031635e-231
-8.7120249e-233
-1.3427207e-232
1.4178149e-238
-7.4899046e-240
-4.5383872e-238
-7.4445753e-240
-8.4980013e-247
-5.0276105e-254
-1.2734989e-09
1.1179118e-21
-1.0833234e-33
1.5826531e-45
-4.8798632e-57
5.5333921e-68
3.7377874e-77
3.0582651e-87
6.0518982e-97
7.1132045e-106
-1.0734673e-113
1.6151973e-121
-1.0444046e-128
6.4265779e-135
-6.6116083e-141
4.9391842e-147
-2.4505258e-153
2.2183828e-159
-1.3662185e-165
1.1305437e-171
-6.1730846e-178
4.0100033e-184
-3.1585994e-190
2.0174312e-196
-9.322115e-203
5.8993688e-209
-4.4171359e-215
2.8859376e-221
-3.063256e-227
3.0726878e-233
-4.6560424e-238
1.6473324e-237
8.1840483e-239
1.2327226e-238
-1.123197e-244
2.306149e-246
1.5981596e-244
-5.9985322e-246
-6.0967297e-253
-3.528382e-260
-1.1543388e-09
8.9154329e-22
-7.565838e-34
9.6785615e-46
-2.5767318e-57
2.3968685e-68
-1.1315451e-77
-8.6922104e-88
-1.4841979e-97
-1.3407839e-106
3.7761995e-114
-5.1150721e-122
2.7975841e-129
-9.4737134e-136
8.6073055e-142
-7.0656625e-148
4.7888967e-154
-2.4303458e-160
1.5511975e-166
-7.4090249e-173
3.6127433e-179
-2.4347478e-185
1.2344174e-191
-5.8982114e-198
3.0240693e-204
-1.4371381e-210
8.5764644e-217
-4.0987095e-223
2.3078946e-229
-1.2899559e-235
1.0320221e-241
-1.2612345e-243
-7.5449814e-245
-1.1192429e-244
7.8731759e-251
-6.0519677e-253
-5.4563358e-251
-3.5766656e-252
-3.8522063e-259
-2.3013748e-266
-1.0578711e-09
7.2435783e-22
-5.4009593e-34
6.0655984e-46
-1.4005647e-57
1.0806307e-68
-1.6233961e-78
-1.1882642e-88
-1.7719344e-98
-1.262588e-107
-1.7341781e-114
2.2044436e-122
-9.8587145e-130
2.6438443e-136
-1.0774002e-142
5.4147787e-149
-2.6641473e-155
1.1777188e-161
-5.1566519e-168
2.4362297e-174
-1.2988243e-180
6.4454172e-187
-3.3458767e-193
1.5303303e-199
-6.5090961e-206
3.0631397e-212
-1.7832141e-218
8.7925518e-225
-3.3217171e-231
1.5913194e-237
-1.2025663e-243
1.3596085e-249
5.6673899e-251
5.9569884e-251
-4.1953374e-257
1.2502695e-259
1.5191316e-257
-2.1643596e-258
-2.3038313e-265
-1.3216118e-272
-9.8094113e-10
6.0097643e-22
-3.9546258e-34
3.9110077e-46
-7.8676159e-58
5.0857741e-69
-4.1531664e-79
-2.9444161e-89
-3.8795328e-99
-2.2298439e-108
-3.5419052e-116
4.2621853e-124
-1.5823183e-131
3.0997009e-138
-1.1873075e-144
4.2835641e-151
-1.8634323e-157
9.6019139e-164
-4.9651611e-170
2.8112496e-176
-1.0508194e-182
3.4002186e-189
-1.5320525e-195
5.8583651e-202
-2.1778141e-208
8.6407088e-215
-3.4579058e-221
1.0759774e-227
-3.8138206e-234
1.8042882e-240
-7.8963496e-247
3.808136e-253
-2.9587044e-257
-2.6749392e-257
1.9744539e-263
-2.6310424e-266
-4.2332472e-264
-1.2135359e-264
-1.2678531e-271
-7.4523563e-279
-9.2090902e-10
5.1022314e-22
-2.9799925e-34
2.6048939e-46
-4.5866304e-58
2.5070195e-69
-1.3199032e-79
-9.2335217e-90
-1.0874261e-99
-5.1392545e-109
-3.8420929e-117
4.631715e-125
-1.466568e-132
2.1823534e-139
-8.8583279e-146
4.1640879e-152
-1.8866035e-158
6.0639264e-165
-2.3821116e-171
7.2249276e-178
-2.7606294e-184
9.3691082e-191
-4.2373043e-197
1.5373426e-203
-5.350918e-210
2.2347519e-216
-7.9766873e-223
2.6416179e-229
-9.1750038e-236
4.2519522e-242
-2.6560495e-248
-6.4818645e-254
1.8419755e-259
9.049949e-264
-7.586028e-270
4.9607796e-273
9.0290366e-271
-5.829974e-271
-5.8943982e-278
-3.4850736e-285
-8.7556095e-10
4.439994e-22
-2.3179514e-34
1.7989845e-46
-2.7863151e-58
1.2990957e-69
-4.8116988e-80
-3.3950514e-90
-3.6147077e-100
-1.4302053e-109
-6.4652693e-118
8.0256838e-126
-2.215711e-133
2.8369781e-140
-9.4845391e-147
3.1805681e-153
-9.9412497e-160
3.4041885e-166
-9.903613e-173
3.1894191e-179
-8.733519e-186
2.4414928e-192
-6.7048234e-199
2.0560181e-205
-6.72686e-212
1.9165862e-218
-5.4562392e-225
2.0045782e-231
-6.5045325e-238
2.1168713e-244
-7.8413144e-251
3.2028142e-257
-1.0288927e-263
8.2906079e-271
1.0039631e-276
-8.6383349e-280
-1.7421808e-277
-3.717249e-277
-3.8509514e-284
-2.1805794e-291
-8.430085e-10
3.9644674e-22
-1.8655957e-34
1.2925289e-46
-1.7703764e-58
7.1003201e-70
-1.9536352e-80
-1.4278188e-90
-1.3903335e-100
-4.6754155e-110
-1.4296376e-118
1.8997775e-126
-4.7417465e-134
4.7657065e-141
-1.3731192e-147
3.921658e-154
-1.048772e-160
3.0031657e-167
-7.9535839e-174
2.1700005e-180
-6.1335706e-187
1.6722996e-193
-4.0319831e-200
1.0234176e-206
-2.5056397e-213
6.1718686e-220
-1.6231002e-226
4.4622404e-233
-1.3140611e-239
3.5447092e-246
-9.9543753e-253
3.1169545e-259
-9.7230633e-266
2.1519174e-272
-4.5054874e-279
7.7723663e-286
-2.7405242e-284
-1.9936534e-283
-2.0990753e-290
-1.2532308e-297
-8.2158216e-10
3.6332385e-22
-1.5560716e-34
9.6856041e-47
-1.1800794e-58
4.1050232e-70
-8.7169499e-81
-6.8277775e-91
-6.1528459e-101
-1.7846199e-110
-3.9701374e-119
6.2630534e-127
-1.4050122e-134
1.1791243e-141
-2.6446244e-148
6.9549788e-155
-1.6813833e-161
4.065775e-168
-9.2431167e-175
2.4993929e-181
-7.2558629e-188
1.8196239e-194
-4.6411078e-201
1.2753039e-207
-2.7676643e-214
7.7398963e-221
-1.8012081e-227
4.7829432e-234
-1.0881451e-240
3.0849022e-247
-8.5303219e-254
2.3567913e-260
-5.9123795e-267
1.3641608e-273
-2.1509966e-280
2.8350938e-287
6.8157775e-290
-1.5077825e-289
-1.4207173e-296
-8.4188235e-304
-8.0973305e-10
3.4154155e-22
-1.3457151e-34
7.5809869e-47
-8.2688887e-59
2.5154384e-70
-4.2436211e-81
-3.7323532e-91
-3.1501185e-101
-7.9917142e-111
-1.3545589e-119
2.8400674e-127
-6.0842485e-135
4.1969154e-142
-7.63974e-149
1.6163077e-155
-3.4259286e-162
8.4535418e-169
-1.8400834e-175
4.2143244e-182
-9.0586048e-189
2.278294e-195
-4.8780573e-202
9.9646948e-209
-1.9883306e-215
4.0733291e-222
-1.0088884e-228
2.021902e-235
-4.466462e-242
1.1102149e-248
-2.6227418e-255
6.8424808e-262
-1.5469053e-268
3.2940156e-275
-4.793681e-282
5.9181452e-289
-2.033163e-295
-1.142458e-295
-1.1392704e-302
-6.8163187e-310
-8.0591889e-10
3.2879934e-22
-1.205762e-34
6.1988801e-47
-6.0953523e-59
1.6350023e-70
-2.2430018e-81
-2.3757106e-91
-1.9019256e-101
-4.2759229e-111
-5.7168929e-120
2.3422158e-127
-4.7003037e-135
2.8548125e-142
-4.6357671e-149
8.6043349e-156
-1.7847857e-162
3.7148739e-169
-7.36521e-176
1.4000452e-182
-2.8962451e-189
6.0459134e-196
-1.1975889e-202
2.332561e-209