/*--------------------------------*- C++ -*----------------------------------*\
  =========                 |
  \\      /  F ield         | OpenFOAM: The Open Source CFD Toolbox
   \\    /   O peration     | Website:  https://openfoam.org
    \\  /    A nd           | Version:  10
     \\/     M anipulation  |
\*---------------------------------------------------------------------------*/
FoamFile
{
    format      ascii;
    class       volScalarField;
    location    "0.15";
    object      TporMedia;
}
// * * * * * * * * * * * * * * * * * * * * * * * * * * * * * * * * * * * * * //

dimensions      [0 0 0 1 0 0 0];

internalField   nonuniform List<scalar> 
4000
(
-4.6961077e-05
1.8590742e-05
0.00016216817
0.00017189075
0.00016374287
0.00016189187
0.00017512151
0.00017672142
0.00016275763
0.00017414781
0.00015758031
0.00016497074
0.00016379288
0.00017091774
0.00016127743
0.00016245474
0.00017871925
0.00016522331
0.00015345816
0.00015833805
0.00016287198
0.00018513748
0.00016323691
0.00015492036
0.00017013086
0.00018672531
0.0001715975
0.00016510282
0.00017643959
0.00017760391
0.00015502462
0.00017171952
0.00015885609
0.00017451538
0.00015963145
0.00018080249
0.00015793458
0.0001626739
0.00015810975
0.00016453103
-3.6479448e-06
1.8660468e-13
4.8104208e-12
6.7187096e-11
4.8394813e-11
4.492876e-11
5.4652018e-11
5.4285682e-11
4.698143e-11
4.954258e-11
4.6055614e-11
4.4726036e-11
4.4576515e-11
5.2207113e-11
4.3088018e-11
4.9051992e-11
4.9362899e-11
3.7611251e-11
4.7210573e-11
5.26492e-11
5.1295279e-11
5.6048195e-11
4.5243003e-11
4.2799976e-11
4.1092339e-11
5.4048942e-11
4.7600627e-11
4.1405537e-11
5.6369579e-11
5.6110716e-11
3.8156987e-11
4.8407647e-11
4.681018e-11
4.2287999e-11
5.2390574e-11
4.8936061e-11
5.3443159e-11
4.760602e-11
4.7048775e-11
4.3889988e-11
-1.4785404e-06
-6.0430095e-14
4.3595551e-20
5.8026914e-18
2.2592453e-17
9.8634e-18
1.4660178e-17
1.4240624e-17
1.1497832e-17
1.6191899e-17
1.2486483e-17
1.1249325e-17
1.3391217e-17
1.3635845e-17
1.3774009e-17
1.1646106e-17
1.615822e-17
1.0835766e-17
1.3057172e-17
1.5447475e-17
1.7157232e-17
1.7846514e-17
1.2949587e-17
1.480943e-17
1.3204489e-17
1.3853981e-17
1.4057842e-17
1.0679288e-17
1.507558e-17
1.6632538e-17
1.180667e-17
1.2507353e-17
1.1865788e-17
1.1384849e-17
1.5034951e-17
1.4368956e-17
1.5163162e-17
1.1592295e-17
1.3838898e-17
1.1779351e-17
-8.0213999e-07
3.7819363e-15
1.8594283e-23
1.1943363e-25
-1.1013432e-22
3.9956452e-24
3.711168e-24
4.447128e-24
2.9761323e-24
4.5606142e-24
3.485426e-24
3.3013352e-24
3.7159097e-24
4.4137248e-24
3.881219e-24
3.1943021e-24
4.1811324e-24
3.2585537e-24
3.6470285e-24
4.427366e-24
5.0700019e-24
5.2324671e-24
3.2527654e-24
3.7908461e-24
3.8126302e-24
3.7755422e-24
4.1400331e-24
3.2100866e-24
4.8707151e-24
4.6918274e-24
3.1341377e-24
3.2227714e-24
3.1527753e-24
3.0899973e-24
4.0625316e-24
4.1457921e-24
3.9178338e-24
3.1789329e-24
3.8372264e-24
3.3336964e-24
-5.1205473e-07
7.4882544e-16
2.8683415e-24
2.3016538e-32
-3.4013194e-29
-7.0148084e-30
1.1761711e-30
1.1301255e-30
9.1058122e-31
1.4386441e-30
9.8201532e-31
9.2288485e-31
9.8649449e-31
1.219719e-30
1.0109843e-30
8.1380723e-31
1.1659903e-30
1.0356554e-30
1.0626599e-30
1.1974261e-30
1.4099823e-30
1.4605672e-30
9.6802938e-31
1.0682256e-30
1.0835028e-30
1.084497e-30
1.1185205e-30
8.2323151e-31
1.4807671e-30
1.411564e-30
1.0774145e-30
9.0370572e-31
7.9037841e-31
8.366377e-31
1.2143682e-30
1.0742069e-30
9.427687e-31
8.5759502e-31
1.110539e-30
8.5233825e-31
-3.6279001e-07
2.5649844e-16
1.2161174e-24
4.7565523e-33
-1.3150864e-36
1.5314013e-36
5.0266177e-37
2.7839592e-37
2.7907998e-37
4.3769188e-37
2.5662113e-37
2.6781851e-37
2.7166779e-37
3.1895122e-37
3.0059792e-37
2.6447561e-37
3.0918153e-37
2.7321421e-37
3.38709e-37
3.3410708e-37
4.5289645e-37
4.5442698e-37
2.8937932e-37
2.8153161e-37
3.4050298e-37
2.9956217e-37
3.2003349e-37
2.1948978e-37
3.8522508e-37
3.7335105e-37
2.9581455e-37
2.486023e-37
2.2304658e-37
2.4249656e-37
3.4073986e-37
2.9387269e-37
2.4050519e-37
2.4110265e-37
3.348667e-37
2.3711154e-37
-2.7671677e-07
1.1489808e-16
-7.399402e-24
-1.7914219e-32
-2.2681558e-40
-2.0634477e-43
2.0213305e-42
7.5064851e-44
8.026608e-44
1.2194484e-43
6.315142e-44
8.0798101e-44
7.7826537e-44
8.8333648e-44
8.4466859e-44
7.3246419e-44
9.6013588e-44
7.9394219e-44
8.5670906e-44
1.0856285e-43
1.3231935e-43
1.2737127e-43
8.9169598e-44
8.4780927e-44
9.4741856e-44
8.3447128e-44
9.1687527e-44
6.4798249e-44
1.0621644e-43
1.0305032e-43
9.5867732e-44
7.6928104e-44
5.7682602e-44
6.6526969e-44
1.0059081e-43
8.0685913e-44
6.5995559e-44
6.5430715e-44
8.4518456e-44
6.3652862e-44
-2.2235384e-07
6.0748316e-17
-1.2705774e-25
-2.2260119e-34
-1.27378e-42
3.0333533e-49
-4.3080367e-49
2.6994196e-50
2.0242755e-50
3.4177766e-50
1.8769516e-50
2.0111178e-50
2.1958438e-50
2.8485977e-50
2.2836717e-50
2.1249456e-50
2.6986011e-50
2.2919961e-50
2.726085e-50
2.7670862e-50
3.2939574e-50
4.3116653e-50
2.6644218e-50
2.3327899e-50
2.5175204e-50
2.6318763e-50
2.5956741e-50
2.0160726e-50
2.9119459e-50
2.9700697e-50
2.8862005e-50
2.2955279e-50
1.5414857e-50
2.0751755e-50
2.7218436e-50
2.5116627e-50
1.6092147e-50
1.7753945e-50
2.5305517e-50
1.7985935e-50
-1.8514021e-07
3.5843603e-17
-2.9346431e-26
-4.2608959e-35
-1.3412691e-43
-1.1575103e-50
4.4336778e-56
2.0131081e-56
6.2140825e-57
9.6206677e-57
4.868402e-57
5.6265884e-57
6.3570282e-57
8.9601576e-57
6.6783042e-57
6.3931521e-57
7.2420331e-57
6.2336782e-57
8.0178437e-57
8.8805125e-57
1.0257709e-56
1.3086644e-56
8.8275078e-57
6.9810558e-57
8.9762193e-57
8.4649413e-57
9.6797137e-57
5.3474603e-57
8.6628104e-57
7.7542083e-57
7.809851e-57
6.274061e-57
4.4474428e-57
6.1647699e-57
8.0322243e-57
6.5617812e-57
4.9901728e-57
5.2672797e-57
7.318646e-57
5.6895618e-57
-1.5719365e-07
2.2701721e-17
-9.9269499e-27
-1.3780491e-35
-2.7067315e-44
-5.4570164e-52
3.2156466e-59
-4.5698062e-62
1.64532e-63
2.6856806e-63
1.4144638e-63
1.5778597e-63
1.8012021e-63
2.973239e-63
2.0941895e-63
1.7020738e-63
2.1190983e-63
1.8416379e-63
2.4363241e-63
2.7578904e-63
3.3320387e-63
4.5303294e-63
2.5370415e-63
2.1054606e-63
2.9319784e-63
2.8862322e-63
2.7455958e-63
1.7281785e-63
2.5219329e-63
2.3962085e-63
2.3983291e-63
1.8801119e-63
1.2246989e-63
1.8099464e-63
2.4729313e-63
1.7309838e-63
1.4973632e-63
1.3703604e-63
2.051937e-63
2.1761968e-63
-1.3447976e-07
1.5018587e-17
-4.0488788e-27
-6.5570508e-36
-8.8397035e-45
-7.4989126e-53
3.579312e-60
-7.3190378e-67
7.05366e-70
6.9606369e-70
1.1458509e-69
6.5209919e-70
6.0936807e-70
9.0758016e-70
1.153732e-69
5.123426e-70
6.9939526e-70
7.3297217e-70
8.3802028e-70
9.6835998e-70
1.0456553e-69
1.4034988e-69
9.2364788e-70
6.5032292e-70
8.4690844e-70
1.4442961e-69
9.246341e-70
7.1124955e-70
7.9684904e-70
7.9239566e-70
7.2846952e-70
5.5756486e-70
3.1250157e-70
5.7969117e-70
8.8307297e-70
4.1998365e-70
4.8980632e-70
4.0535439e-70
6.3783161e-70
5.9990758e-70
-1.1488591e-07
1.0181936e-17
-1.8423584e-27
-5.5565652e-36
-5.5504014e-45
-2.4533607e-53
1.2645794e-60
-1.1305666e-67
-3.6975887e-74
2.2904585e-76
1.0414388e-75
6.3747875e-76
3.6320343e-76
2.7153671e-76
8.7117622e-76
1.9159948e-76
3.2917291e-76
4.1993243e-76
3.3029636e-76
4.8962046e-76
3.4197416e-76
6.5431664e-76
5.080377e-76
2.344237e-76
3.2737259e-76
2.3966729e-75
3.0697442e-76
5.650351e-76
2.498374e-76
3.2038764e-76
2.2853527e-76
2.3165425e-76
9.5550817e-77
2.2142903e-76
3.2800158e-76
1.3050685e-76
1.5554734e-76
1.1520886e-76
1.7963347e-76
1.6481637e-76
-9.7640539e-08
6.9966247e-18
-8.9923398e-28
4.7244372e-36
3.7214405e-45
9.8182681e-54
-1.1765993e-60
6.4001991e-68
-6.2165869e-73
-1.6286371e-79
1.3103606e-81
8.1811248e-81
7.0439148e-82
1.7192777e-82
8.5383843e-82
1.3514388e-82
3.9894362e-82
4.0763488e-82
1.821684e-82
3.1267497e-82
1.6540316e-82
3.5422691e-82
4.7285072e-82
1.1075528e-82
3.0215677e-82
3.5540551e-81
1.1240426e-82
8.1236483e-82
1.1442473e-82
1.7509403e-82
3.4825282e-82
1.3234815e-82
3.2432004e-83
1.0467618e-82
1.4007624e-82
4.0824521e-83
6.550509e-83
4.2399217e-83
6.6377652e-83
6.0564355e-83
-8.2558148e-08
4.8482587e-18
-4.6074631e-28
4.6056511e-37
3.0261531e-46
5.1982269e-55
2.7599279e-62
-1.0085108e-69
4.1152613e-76
1.3110022e-82
1.6850968e-87
7.4053401e-86
2.0904085e-87
3.4421152e-88
1.1005552e-87
2.0031414e-88
6.3528702e-88
1.0751679e-87
1.599692e-88
2.7563921e-88
1.5351715e-88
2.4042545e-88
6.1241226e-88
6.6640655e-88
3.3818472e-88
8.6401595e-86
1.1584094e-88
1.7667566e-87
2.0150826e-88
9.6558356e-89
3.9651185e-88
8.9683019e-89
1.4308021e-89
7.1982307e-89
9.3444877e-89
1.5885888e-89
3.5607913e-89
1.9062984e-89
4.5799988e-89
2.2244725e-89
-6.9573632e-08
3.3824107e-18
-2.4490894e-28
1.1350696e-37
6.5643048e-47
7.8311164e-56
1.1525104e-63
-3.2586566e-71
5.3678999e-78
1.8500857e-84
5.2228556e-91
1.6634118e-91
2.970448e-93
7.8034292e-94
1.3300619e-93
2.5590363e-94
2.3217738e-93
1.3220806e-93
2.3587745e-94
-3.7250549e-93
1.530376e-94
3.4305571e-94
1.6702337e-93
1.3150559e-93
5.3357514e-94
9.642507e-92
2.8419856e-94
2.3218917e-93
3.0518406e-94
6.8566294e-95
5.1879915e-94
6.5763639e-95
1.2106333e-95
7.5314234e-95
-2.6893053e-94
6.6102658e-96
3.408292e-95
1.7228734e-95
-1.3947905e-93
9.6898256e-96
-5.8577165e-08
2.3758712e-18
-1.3410321e-28
3.5999342e-38
1.9376488e-47
1.6898913e-56
1.1580475e-64
-2.8172746e-72
2.371133e-79
8.6408122e-86
2.2380547e-92
2.489462e-97
6.3966343e-99
2.6177771e-99
2.1000816e-99
1.5116785e-99
4.0277359e-99
1.4659604e-99
3.0796583e-100
-5.9380318e-99
2.4920309e-100
4.9498681e-100
1.5561087e-99
1.9301167e-99
7.4476227e-100
1.0560869e-97
1.2583518e-99
2.2968754e-99
6.3475824e-100
7.8224859e-101
1.145355e-99
1.0252124e-100
1.2958095e-101
3.1235942e-100
-4.788445e-100
5.5407614e-102
2.7483922e-101
1.3320178e-101
-6.8818239e-99
3.7208438e-102
-4.9381291e-08
1.6810397e-18
-7.5311668e-29
1.3040555e-38
6.9847745e-48
4.6475797e-57
1.7897806e-65
-4.261088e-73
2.2374976e-80
1.5362719e-86
4.157388e-93
1.4072279e-99
3.0790577e-104
3.6395485e-105
2.5953728e-105
4.3322353e-105
5.0908694e-105
1.7110969e-105
3.9877139e-106
-8.2495414e-105
5.3233053e-106
6.1447006e-106
2.407887e-105
2.6704516e-105
9.6799242e-106
1.4939627e-102
-3.7899335e-105
3.1396395e-105
1.834484e-105
8.542019e-107
3.2052785e-105
9.5529411e-107
1.9566568e-107
4.4967851e-106
-6.6427214e-106
4.9107623e-108
2.9465988e-107
1.4517148e-107
-5.1841688e-104
1.7954952e-108
-4.1722789e-08
1.1979833e-18
-4.3222536e-29
5.1550592e-39
3.0121335e-48
1.5827679e-57
3.8177832e-66
-1.0539142e-73
3.8183649e-81
-7.2073169e-87
-2.0652793e-93
-6.5574874e-100
-1.921489e-106
6.8479897e-111
7.3258282e-111
-4.3503242e-110
8.9393641e-111
5.8488087e-111
6.1456762e-112
-1.7028428e-110
8.7162371e-112
1.3953995e-111
3.4750215e-111
2.2831287e-111
5.7962477e-111
3.0184836e-108
-1.000345e-110
6.0989639e-111
2.8631789e-111
4.249548e-112
6.5869711e-111
1.0285361e-112
3.5160647e-113
6.7154297e-112
-9.5633445e-112
4.8473605e-114
4.2070162e-113
5.4513183e-113
-3.8562663e-109
6.8365808e-115
-3.5352882e-08
8.5971188e-19
-2.5277444e-29
2.1708885e-39
1.622824e-48
6.9518272e-58
1.1245482e-66
-6.4987603e-74
1.7128443e-81
-5.3699213e-88
-1.5303946e-94
-4.5727716e-101
-1.6604525e-107
-6.4049085e-114
-8.0405704e-114
-6.7166815e-116
3.1629866e-116
1.7867932e-116
8.6527935e-118
-3.8940835e-116
-1.5168037e-116
3.6222548e-117
7.7806387e-117
7.6782999e-116
1.2367003e-116
9.0314775e-114
-1.637177e-116
1.0226253e-116
6.771771e-117
2.146401e-117
3.3670236e-116
1.4339085e-118
3.3328891e-119
1.053093e-117
-1.6612967e-117
7.3725201e-120
5.0733836e-119
-4.3074283e-118
1.0034149e-114
9.984026e-121
-3.0037917e-08
6.20874e-19
-1.5024732e-29
9.5997704e-40
1.3980519e-48
5.0233752e-58
5.7347468e-67
3.2540456e-74
-6.8381738e-82
8.7828325e-89
2.8249415e-95
9.7200887e-102
3.0454337e-108
9.6383095e-115
-5.4910789e-119
4.4441207e-121
1.3822255e-121
3.2807358e-122
-2.7134161e-122
-8.5619978e-122
-3.0327084e-122
6.7574475e-123
4.3245812e-122
2.5700411e-121
5.6871905e-122
-1.1340674e-117
-5.6951967e-122
1.332854e-122
1.6916454e-122
3.1604667e-123
5.8835708e-122
3.848429e-124
4.0802943e-125
1.6576419e-123
-2.5218368e-123
8.5959008e-126
1.1851481e-124
5.793947e-123
-8.0087864e-121
6.5496442e-127
-2.5574309e-08
4.5072972e-19
-9.0528135e-30
4.4123026e-40
-1.4192891e-48
-4.3942034e-58
-3.6807383e-67
-5.0779588e-75
8.8033337e-83
-6.7291982e-90
-2.4500578e-96
-7.3825007e-103
-2.4127183e-109
-9.5156581e-116
-3.0769902e-122
-1.9262628e-126
3.6089196e-126
5.460255e-128
-1.6450083e-127
-2.2389365e-127
2.370555e-127
2.7447821e-128
6.3599591e-128
1.1393399e-125
1.244702e-127
-1.7088708e-123
-2.6832781e-127
4.3892356e-128
5.6886989e-128
4.0613807e-129
8.6525465e-128
4.3249209e-130
1.0850655e-130
1.5676582e-129
-5.9399557e-129
1.2812075e-131
1.7652265e-130
1.481977e-127
3.3560507e-127
4.9082415e-132
-2.1806754e-08
3.2859105e-19
-5.5170349e-30
2.0926185e-40
-1.2085217e-49
-3.3116761e-59
-2.1055325e-68
-1.3481305e-76
2.0639729e-84
-1.0712725e-91
-6.1411326e-98
-1.8160923e-104
-6.0817121e-111
-3.1265741e-117
-1.165403e-123
-3.2004357e-130
1.6929202e-131
7.272973e-133
-6.1516742e-133
9.0683765e-133
6.0173491e-133
7.5857235e-134
-2.3762861e-133
-1.1744449e-130
-1.4932092e-133
-3.3426252e-129
-3.9945029e-133
1.5100996e-133
1.7644554e-133
6.2289787e-135
-2.996641e-132
8.6370893e-136
2.7834926e-136
5.1451409e-135
-1.5197423e-134
2.3383982e-137
-2.1090542e-135
-8.2575862e-133
-4.4218594e-133
-3.8430975e-138
-1.8607921e-08
2.4029855e-19
-3.3938127e-30
1.0182842e-40
-2.7808179e-50
-6.930177e-60
-3.4361578e-69
-1.271148e-77
1.8651815e-85
-6.722368e-93
1.8889189e-98
5.6768573e-105
2.100731e-111
7.4436068e-118
2.9489316e-124
1.1060313e-130
-5.1945965e-138
2.0014336e-138
2.526437e-138
-3.5401766e-138
1.5722318e-138
-2.0235168e-139
-7.4463854e-139
-6.0673413e-136
3.5570065e-139
-6.3485581e-135
-1.0608209e-138
4.9647115e-139
1.1269269e-138
9.3950252e-141
-8.3154386e-138
3.6238305e-141
2.2089191e-141
7.2321562e-141
1.3262282e-138
4.7086492e-143
-1.0595104e-140
4.1326667e-138
-6.4916363e-140
1.7021812e-144
-1.5883735e-08
1.7613919e-19
-2.1039674e-30
5.0621743e-41
-8.1654155e-51
-1.9071856e-60
-7.5554096e-70
-1.7790783e-78
2.7100858e-86
-7.2590685e-94
3.5711451e-100
1.1214526e-106
3.8477696e-113
1.624593e-119
6.2212568e-126
2.7072061e-132
1.0740514e-138
-6.4930412e-144
8.6017425e-144
-1.2376359e-143
-2.3199215e-144
-2.7144478e-144
4.8284016e-144
-3.7676967e-141
-1.6912128e-144
-1.7570912e-139
-6.1976985e-144
1.386215e-144
3.8840505e-144
2.559461e-146
1.1114959e-143
1.6330239e-146
4.0118118e-147
5.0952257e-146
2.4561138e-144
8.3523392e-148
-6.0167568e-146
-1.0274894e-143
-1.5934386e-145
-3.6183208e-151
-1.3560215e-08
1.2933656e-19
-1.312845e-30
2.5624242e-41
-2.7105576e-51
-6.1430402e-61
-1.9857296e-70
-3.1834264e-79
5.944472e-87
-1.2467586e-94
2.4354628e-101
8.2877686e-108
2.8176704e-114
9.5862777e-121
4.1755785e-127
1.520889e-133
6.3551165e-140
2.8906309e-146
-9.0375804e-148
2.1936469e-149
-1.5054998e-148
1.054555e-149
2.9246486e-149
-3.5699838e-146
-1.8127849e-147
-2.0755558e-144
-2.7484881e-149
5.9277545e-150
-4.7814465e-150
-2.9261795e-151
1.0708501e-148
2.6532464e-152
4.6752018e-153
5.8162699e-151
3.9447718e-150
1.3139499e-153
4.1157738e-151
2.3162505e-150
7.5803819e-151
-9.3718733e-158
-1.1579284e-08
9.5113871e-20
-8.2386818e-31
1.3175815e-41
-9.7276504e-52
-2.2339278e-61
-6.0071811e-71
-6.8641395e-80
2.3193024e-87
-3.9650212e-95
4.208408e-102
1.6115915e-108
7.2443627e-115
3.2178538e-121
1.3554085e-127
5.2232198e-134
2.2318251e-140
1.1000047e-146
6.3890583e-153
-1.7473283e-154
1.0914375e-153
1.0876505e-154
-2.00033e-153
-1.3072668e-150
-9.4866848e-153
1.3139276e-149
-1.2553174e-154
1.1868912e-154
-1.3450736e-154
1.4073208e-156
5.5379332e-154
5.9585494e-158
1.7839852e-158
4.7060429e-156
2.4205949e-155
2.8154018e-159
-1.4030024e-156
-2.8404933e-156
1.7711996e-154
-4.7000312e-161
-9.8914211e-09
7.0039944e-20
-5.1959406e-31
6.8679309e-42
-3.6908951e-52
-9.1180862e-62
-2.0767135e-71
-1.7563064e-80
-1.5640043e-87
2.2631289e-95
-1.6148425e-102
-5.9545422e-109
-2.4988004e-115
-9.108296e-122
-3.8992325e-128
-1.344755e-134
-6.1423742e-141
-2.4817579e-147
-1.4405876e-153
-3.4362085e-160
-4.0356964e-159
6.7509719e-160
4.3960555e-159
2.3950045e-156
-9.4411886e-158
-3.306636e-155
-1.5609671e-159
8.7347893e-160
3.3114131e-160
6.848896e-162
2.0573811e-159
4.286508e-163
7.4852e-164
1.1135998e-161
9.5855922e-161
9.6747121e-165
4.0203107e-162
2.0936129e-163
1.2544844e-159
-1.0904675e-165
-8.4538335e-09
5.163812e-20
-3.2913466e-31
3.6231176e-42
-1.4615499e-52
-4.2671785e-62
-8.3749654e-72
-5.3868053e-81
-7.4302957e-89
9.3813792e-97
-4.7030373e-104
-3.9239027e-110
-1.5156637e-116
-4.9914577e-123
-2.7000966e-129
-1.133477e-135
-6.5887131e-142
-2.9038392e-148
-1.5549437e-154
-7.6304563e-161
8.5735441e-165
-5.1213298e-165
-6.5300394e-165
-9.2468802e-161
3.8585493e-163
3.3226827e-161
4.8338452e-165
-6.7605396e-165
-1.3870847e-165
1.5343257e-166
-4.7453682e-165
1.7735628e-168
-1.8706243e-169
3.6925331e-167
-8.984863e-166
-1.0807102e-169
-3.4225363e-168
-8.4692187e-169
-1.9772442e-165
-1.1330838e-171
-7.2294332e-09
3.8110992e-20
-2.0928076e-31
1.931533e-42
-5.9880289e-53
-2.4883089e-62
-4.2770685e-72
-2.1453738e-81
-1.3526313e-89
1.556385e-97
-5.5843059e-105
-2.8207374e-110
-1.1568863e-116
-5.4245568e-123
-2.6673755e-129
-1.4325687e-135
-5.9176608e-142
-2.6524397e-148
-1.0810981e-154
-4.1070296e-161
-2.268953e-167
5.1514687e-171
-3.661923e-170
4.0448263e-166
-6.8377461e-169
-8.1861523e-167
-3.4760815e-170
5.6396877e-171
1.5241972e-171
2.0444609e-171
-3.8964596e-170
-1.0947838e-173
6.3106517e-175
1.0830855e-171
1.2572736e-171
4.3641528e-175
3.6346104e-174
8.5999873e-178
1.3030265e-170
1.9314318e-177
-6.1868426e-09
2.8154697e-20
-1.3351493e-31
1.0393382e-42
-2.5233637e-53
-2.7903355e-62
-4.2713055e-72
-1.705822e-81
-6.2004333e-90
6.8016948e-98
-1.9154938e-105
1.0535342e-111
3.312454e-118
1.8058828e-124
8.3518584e-131
4.3592647e-137
2.9848849e-143
1.5316279e-149
9.9688979e-156
6.7271426e-162
4.5785192e-168
2.3108169e-174
3.4759495e-176
-6.5922042e-172
2.8161793e-174
8.1369012e-173
9.7244351e-175
-9.4290294e-177
-4.4321481e-176
-2.0127495e-176
1.3854074e-175
7.3078584e-179
1.4753074e-179
-2.4717406e-177
-3.0568779e-177
-2.2653122e-181
-5.1477244e-180
1.0222938e-180
2.1842047e-176
2.4397272e-183
-5.2993005e-09
2.0819627e-20
-8.54314e-32
5.6388973e-43
-1.0889066e-53
9.2238541e-63
1.2783396e-72
4.140138e-82
9.7166599e-91
-1.0868115e-98
2.3946822e-106
-5.5336747e-113
-3.2903451e-119
-1.3968986e-125
-9.3807478e-132
-5.23897e-138
-2.7413732e-144
-2.8830772e-150
-2.4417333e-156
-1.3621531e-162
-8.6357953e-169
-5.0656511e-175
-5.5173376e-181
2.0257726e-177
-1.711074e-180
-3.4501179e-178
-1.09644e-180
2.6897027e-182
2.9062208e-182
1.0643997e-181
-1.9399887e-181
-5.4151845e-185
-1.431068e-185
-2.8737705e-182
2.1534744e-183
7.9714528e-187
4.0504069e-186
-2.8903914e-187
1.2207802e-182
1.1729217e-189
-4.5444439e-09
1.5413295e-20
-5.4818047e-32
3.0824418e-43
-4.7964294e-54
1.2118919e-63
1.5477375e-73
4.1323538e-83
6.6890576e-92
-8.386624e-100
1.5228426e-107
-2.1278517e-114
-9.40037e-121
-4.2509027e-127
-2.1564751e-133
-1.0142178e-139
-6.2745171e-146
-4.507164e-152
-2.9186543e-158
-1.8927826e-164
-1.1421041e-170
-1.2898112e-176
-7.5729334e-183
-4.0404741e-183
3.7329547e-186
5.4443257e-184
2.4874198e-187
-3.2574384e-188
-7.7108117e-188
-1.5827633e-187
9.2544659e-187
7.7293386e-191
1.2728942e-191
3.9861081e-188
-2.9711549e-189
-3.1452745e-193
-6.1325346e-192
-6.2519659e-191
3.1239136e-189
3.1143204e-196
-3.9034471e-09
1.1428453e-20
-3.5276294e-32
1.6969614e-43
-2.1515356e-54
2.849613e-64
3.4177698e-74
7.6352668e-84
8.9276892e-93
-1.4632138e-100
2.25308e-108
-1.928773e-115
-1.3174313e-121
-7.1583243e-128
-3.8767398e-134
-3.4431212e-140
-2.3333071e-146
-2.1957871e-152
-2.3037638e-158
-3.2469591e-164
-3.1896647e-170
-3.1403735e-176
-2.3936694e-182
-1.5875164e-188
1.5939413e-193
-8.9597351e-191
-1.9539881e-192
4.8842673e-194
2.3223871e-193
6.624418e-194
-1.5298373e-192
-8.4979775e-197
-2.1887698e-197
-1.81119e-194
6.0755065e-195
3.2087989e-199
1.3485651e-198
-1.6618643e-196
6.2982175e-196
6.1093946e-203
-3.3601743e-09
8.4919422e-21
-2.2773855e-32
9.4072907e-44
-9.8124624e-55
8.1139144e-65
9.3359013e-75
1.7696665e-84
1.5488171e-93
-5.4169906e-101
7.1919804e-109
-4.5194946e-116
-4.6436677e-121
-4.0657978e-127
-6.1982345e-133
-7.3567818e-139
-6.2892035e-145
-9.1114331e-151
-1.696793e-156
-1.3553291e-162
8.2758552e-167
1.5307398e-172
2.5538715e-178
3.9736026e-184
7.0861222e-190
9.9636789e-196
2.7057899e-198
-1.3452605e-200
-1.594664e-199
-1.9009189e-199
8.2540472e-199
1.6085437e-202
2.6543427e-203
1.1357218e-199
-8.0761719e-201
-2.1791772e-204
-2.1049472e-204
-1.9315525e-202
1.2069789e-202
1.140088e-209
-2.9007954e-09
6.3286339e-21
-1.4758389e-32
5.2522539e-44
-4.5453576e-55
2.562811e-65
2.8999581e-75
4.7259451e-85
3.1799567e-94
1.6698759e-101
-1.9685073e-109
9.3495014e-117
-2.1893854e-122
-1.4913411e-128
-1.5141128e-134
-2.1364496e-140
-6.3273685e-146
-7.9372516e-152
-1.1990663e-157
-2.1869051e-163
-2.9482884e-169
-6.3914771e-175
-7.9498049e-181
-1.9870558e-186
-3.6940878e-192
-2.7983248e-198
-1.60879e-203
2.4637421e-206
1.3141899e-205
1.5052298e-205
-2.6311218e-205
-3.6975266e-208
-6.1743684e-209
-4.2851802e-206
5.1803375e-207
-2.4539292e-210
2.5940658e-210
-3.5500143e-208
2.0004977e-209
2.0287589e-216
-2.5133719e-09
4.7353807e-21
-9.6088708e-33
2.9548821e-44
-2.1375258e-55
8.6754427e-66
9.9562962e-76
1.4128707e-85
7.4793933e-95
8.7807456e-103
-9.5269349e-111
3.5102184e-118
-1.8650227e-124
-1.6617949e-130
-2.9102588e-136
-5.2653001e-142
-1.240335e-147
-2.2251721e-153
-1.7652827e-158
-8.9038875e-164
-3.5650111e-169
-6.0533345e-175
2.9609422e-179
1.2341332e-184
2.3731392e-190
-1.7453225e-195
-2.8392991e-201
-7.8518986e-207
-6.8890645e-211
-9.5219799e-211
1.5500215e-210
3.3838061e-213
2.056287e-214
1.6024675e-211
1.5468499e-212
6.2920714e-216
-2.2391737e-219
-3.4676802e-214
2.9027169e-216
2.9015184e-223
-2.1875369e-09
3.5620308e-21
-6.292885e-33
1.6765696e-44
-1.0205632e-55
3.0946683e-66
3.7505163e-76
4.6904893e-86
1.9916151e-95
1.136145e-103
-1.1652956e-111
3.4323424e-119
-9.7865616e-126
-3.3481052e-131
-4.4052521e-137
-1.1709847e-142
1.2298402e-147
7.9973101e-153
-1.2079022e-157
1.937311e-163
6.3161862e-169
-1.3626285e-174
1.8823508e-179
-5.6140694e-185
1.2683337e-190
1.0163728e-195
1.53459e-201
3.6968156e-207
2.1867133e-212
3.5668316e-214
1.6391547e-216
3.032634e-219
-6.208202e-220
3.0537896e-217
-7.8345494e-219
-1.2529724e-221
2.3556238e-223
-3.1649303e-220
3.5788414e-223
3.7846169e-230
-1.9143577e-09
2.6977406e-21
-4.1517401e-33
9.6057612e-45
-4.9499948e-56
1.1527214e-66
1.5638406e-76
1.7446716e-86
6.0462285e-96
2.0852217e-104
-2.123473e-112
5.1113719e-120
-8.6830201e-127
-1.2356734e-132
-2.9180859e-138
5.3852199e-143
-5.9884077e-149
-1.3980724e-154
3.035265e-160
-2.3872125e-165
4.6546452e-171
-8.7225276e-176
3.0403946e-181
-4.7112349e-187
7.7171776e-193
3.1351621e-198
-8.1601289e-204
1.8774833e-209
3.5801974e-214
-2.7833672e-219
1.0945703e-221
-2.1989841e-223
-5.4573924e-226
-1.6102766e-221
1.7750597e-224
1.1856705e-227
-4.1898725e-229
-3.2122332e-226
4.1214106e-230
4.3950267e-237
-1.6861547e-09
2.0607906e-21
-2.7646463e-33
5.5668693e-45
-2.4417992e-56
4.4613564e-67
7.4482234e-77
7.5020881e-87
2.154316e-96
4.9693181e-105
-5.3030693e-113
1.0790698e-120
-1.3155526e-127
2.153906e-133
5.9268234e-139
-5.6313027e-145
-6.2087697e-150
7.5887745e-156
-8.4543037e-161
8.2383693e-167
-3.0420905e-172
5.1831899e-178
-1.1023693e-183
1.2749774e-189
-1.4449728e-195
3.4159061e-201
-3.0692173e-207
2.2520234e-212
-2.8853801e-218
5.2934489e-224
-1.1845227e-227
1.426629e-228
-8.103201e-230
-6.003615e-227
-2.2511382e-230
-8.408442e-234
2.9457456e-235
-6.2349367e-232
4.209441e-237
4.7341547e-244
-1.4963466e-09
1.5910128e-21
-1.8623985e-33
3.2704143e-45
-1.2271893e-56
1.7899047e-67
4.461096e-77
4.1072777e-87
9.9142159e-97
1.6255103e-105
-1.965684e-113
3.4830384e-121
-3.3500417e-128
5.3998709e-134
-5.7215826e-140
6.4668214e-146
-5.7021334e-152
5.6637243e-158
-6.3100518e-164
8.3278994e-170
-9.849906e-176
1.1941121e-181
-1.0198275e-187
1.5664906e-193
-1.2806643e-199
2.3907633e-205
-1.94064e-211
1.4179979e-217
-1.1882151e-223
1.282553e-229
3.9209662e-233
-6.8235678e-234
8.1936361e-236
1.4729805e-232
2.4382951e-236
3.3894365e-240
-1.9533881e-241
-3.4852315e-238
3.8116391e-244
4.6268871e-251
-1.3393302e-09
1.24418e-21
-1.2725993e-33
1.9528269e-45
-6.2982184e-57
7.4402448e-68
5.5500433e-77
4.7309146e-87
9.7244962e-97
1.1846331e-105
-1.8610208e-113
2.9217209e-121
-2.0339718e-128
1.2619846e-134
-3.2396658e-140
6.2503317e-146
-6.867776e-152
6.7896547e-158
-5.880754e-164
1.3983736e-169
-1.6775512e-175
1.0221914e-181
-6.1781293e-188
5.4742021e-194
-5.5207601e-200
3.8896583e-206
-3.6976747e-212
3.5654095e-218
-2.8025651e-224
2.1125285e-230
-1.6740351e-236
1.1285162e-239
-2.3323926e-241
-1.1872505e-238
-1.0967779e-242
-1.1500311e-246
1.8618516e-247
-2.0935483e-244
1.7913128e-251
3.4144801e-258
-1.2103552e-09
9.8784867e-22
-8.8473038e-34
1.188931e-45
-3.3105352e-57
3.2072158e-68
-1.5042081e-77
-1.203372e-87
-2.1329607e-97
-1.994815e-106
5.7570171e-114
-8.1079653e-122
4.5589813e-129
-1.995172e-135
1.7805562e-141
-1.2521825e-147
8.4377432e-154
-4.3621933e-160
3.0515308e-166
-1.4444687e-172
8.3505324e-179
-7.6016048e-185
4.9035033e-191
-2.3212996e-197
1.1713027e-203
-7.4218237e-210
4.5631401e-216
-3.4655815e-222
2.8078482e-228
-1.9892228e-234
1.1524757e-240
-1.0739346e-245
1.5508898e-247
1.0609813e-244
4.2980957e-249
4.0400223e-253
-2.0052248e-253
-1.5979996e-250
-1.1893818e-257
-4.6018799e-265
-1.1054221e-09
7.9826946e-22
-6.2785533e-34
7.4066799e-46
-1.7883019e-57
1.4364519e-68
-2.2049174e-78
-1.6799331e-88
-2.5983834e-98
-1.915885e-107
-2.8685756e-114
3.751495e-122
-1.7427378e-129
4.79321e-136
-8.2538464e-142
4.3818273e-148
-2.1500897e-154
1.6647682e-160
-8.7326657e-167
3.6986773e-173
-1.8826084e-179
1.3684692e-185
-5.6867248e-192
5.0630816e-198
-1.997738e-204
1.1558943e-210
-6.4274521e-217
3.0065758e-223
-2.0834914e-229
1.1936149e-235
-6.919515e-242
9.0961893e-248
-1.6975741e-253
-5.3759364e-251
-1.4039632e-255
-8.3270837e-260
2.6989625e-259
-1.0340349e-256
-1.0310137e-263
-5.6866064e-271
-1.021168e-09
6.5808935e-22
-4.563719e-34
4.7394422e-46
-9.9658086e-58
6.7030518e-69
-5.6249731e-79
-4.1489084e-89
-5.6646853e-99
-3.3651696e-108
-5.5309962e-116
6.9291859e-124
-2.6664859e-131
5.7151752e-138
-3.305787e-144
1.5443929e-150
-7.2082555e-157
2.8214649e-163
-1.5591867e-169
9.2430789e-176
-3.5860223e-182
1.4151971e-188
-5.874535e-195
3.1353105e-201
-1.3820238e-207
6.3646432e-214
-2.6972962e-220
1.177849e-226
-4.1494638e-233
1.9091921e-239
-8.9351778e-246
5.8550507e-252
-3.4143503e-258
2.3004094e-257
3.7818293e-262
1.8560402e-266
-3.6085589e-265
-5.0543193e-263
-5.5486736e-270
-3.239002e-277
-9.5478349e-10
5.5467051e-22
-3.4092001e-34
3.1274164e-46
-5.7528795e-58
3.2697159e-69
-1.7724839e-79
-1.2893773e-89
-1.5719423e-99
-7.673277e-109
-5.9081701e-117
7.289673e-125
-2.3493516e-132
3.572536e-139
-1.3844369e-145
7.2908453e-152
-2.4494479e-158
1.1240643e-164
-3.8568932e-171
1.638508e-177
-8.1388926e-184
2.8083271e-190
-1.0192213e-196
3.3138743e-203
-1.3928058e-209
6.2294354e-216
-2.0023832e-222
7.865199e-229
-3.5099004e-235
4.9199328e-242
2.882224e-247
2.309417e-253
2.2182369e-259
-8.8303881e-264
-1.0138828e-268
-3.3514631e-273
3.9817026e-271
-2.7212523e-269
-2.826297e-276
-1.6504657e-283
-9.0390771e-10
4.788266e-22
-2.6254648e-34
2.1363121e-46
-3.4540809e-58
1.6731881e-69
-6.3851631e-80
-4.6821715e-90
-5.1541144e-100
-2.1032623e-109
-9.7774873e-118
1.2341785e-125
-3.5697012e-133
4.5265993e-140
-1.4022136e-146
6.5742578e-153
-2.1154527e-159
8.5654207e-166
-2.8428823e-172
1.0143705e-178
-3.4468104e-185
1.0898885e-191
-3.156721e-198
1.1454818e-204
-3.9901282e-211
1.174248e-217
-4.0061966e-224
1.1416794e-230
-4.9400165e-237
2.0896177e-243
-7.6985402e-250
4.9767651e-256
-5.4397825e-262
1.7179434e-267
-2.0556016e-273
1.3441592e-279
-8.1529103e-277
-1.3378513e-275
-1.3550281e-282
-8.2290311e-290
-8.6653783e-10
4.2389679e-22
-2.0898044e-34
1.5158793e-46
-2.1652606e-58
9.0133736e-70
-2.5549294e-80
-1.9395681e-90
-1.950402e-100
-6.7560439e-110
-2.1263425e-118
2.9000253e-126
-7.4245335e-134
8.264912e-141
-2.2348786e-147
7.3305748e-154
-2.1614118e-160
6.271594e-167
-1.6837561e-173
5.4475832e-180
-1.4437016e-186
3.9802743e-193
-1.2839848e-199
3.7927138e-206
-9.8024391e-213
2.944281e-219
-8.1420661e-226
2.4562218e-232
-7.1760832e-239
2.4969773e-245
-8.9587554e-252
2.7660577e-258
-1.0159749e-264
2.186993e-271
-2.6407124e-278
-1.2806155e-286
1.8271387e-282
-7.2075747e-282
-7.0702586e-289
-4.2307082e-296
-8.4093221e-10
3.8505597e-22
-1.7224706e-34
1.1204667e-46
-1.4217803e-58
5.127144e-70
-1.1210392e-80
-9.1173072e-91
-8.4714878e-101
-2.5273416e-110
-5.7696811e-119
9.1418981e-127
-2.1158102e-134
1.8879936e-141
-5.1444874e-148
1.4459574e-154
-3.7304492e-161
8.7203541e-168
-2.4959652e-174
7.4132985e-181
-1.9737274e-187
5.0344141e-194
-1.5330775e-200
3.792957e-207
-1.0169731e-213
3.0421949e-220
-7.7262733e-227
2.0626367e-233
-5.8507488e-240
1.8369195e-246
-5.8820448e-253
1.8186447e-259
-4.9107916e-266
1.0786365e-272
-1.8918847e-279
3.0076094e-286
-6.8597368e-288
-4.10326e-288
-4.2785122e-295
-2.5281412e-302
-8.2550157e-10
3.5879301e-22
-1.4713609e-34
8.6430335e-47
-9.802333e-59
3.0868509e-70
-5.3574545e-81
-4.8917898e-91
-4.250334e-101
-1.1070793e-110
-1.9260306e-119
4.1489436e-127
-8.910561e-135
6.6929988e-142
-1.275026e-148
3.0499248e-155
-6.7466327e-162
1.958553e-168
-5.0064813e-175
1.2290547e-181
-3.1256305e-188
8.1658274e-195
-1.9042768e-201
4.5796096e-208
-1.1351807e-214
2.5997697e-221
-6.0173439e-228
1.3762874e-234
-3.4583609e-241
8.2526224e-248
-2.0079915e-254
5.7781745e-261
-1.5394657e-267
3.7017243e-274
-5.8091076e-281
7.682176e-288
3.040451e-293
-2.4061567e-294
-2.4394072e-301
-1.5024367e-308
-8.1870979e-10
3.4251703e-22
-1.3022069e-34
6.9622414e-47
-7.1044735e-59
1.9694924e-70
-2.776439e-81
-3.0541176e-91
-2.5126904e-101
-5.7906859e-111
-7.9350887e-120
3.1154069e-127
-6.3906357e-135
4.0969501e-142
-6.6717306e-149
1.4563782e-155
-3.3281934e-162
6.9985865e-169
-1.4423143e-175
2.9435307e-182
-5.7901873e-189
1.0849506e-195
-2.2942e-202
4.549415e-209