/*--------------------------------*- C++ -*----------------------------------*\
  =========                 |
  \\      /  F ield         | OpenFOAM: The Open Source CFD Toolbox
   \\    /   O peration     | Website:  https://openfoam.org
    \\  /    A nd           | Version:  10
     \\/     M anipulation  |
\*---------------------------------------------------------------------------*/
FoamFile
{
    format      ascii;
    class       volVectorField;
    location    "0.15";
    object      U;
}
// * * * * * * * * * * * * * * * * * * * * * * * * * * * * * * * * * * * * * //

dimensions      [0 1 -1 0 0 0 0];

internalField   nonuniform List<vector> 
4000
(
(0 0.018636939 0.47773183)
(0 0.023509022 0.50886047)
(0 0.0081659462 0.50052525)
(0 0.0056137114 0.50033637)
(0 0.0042536674 0.50025747)
(0 0.0032539725 0.50016898)
(0 0.0025551441 0.50011968)
(0 0.0020536861 0.50009012)
(0 0.0016757569 0.50006979)
(0 0.0013815117 0.50005537)
(0 0.0011465758 0.50004497)
(0 0.00095460874 0.5000373)
(0 0.00079435452 0.50003157)
(0 0.00065783567 0.50002724)
(0 0.00053922201 0.50002395)
(0 0.00043413105 0.50002147)
(0 0.00033917347 0.50001962)
(0 0.00025164542 0.50001829)
(0 0.00016931225 0.5000174)
(0 9.0249968e-05 0.50001689)
(0 1.2723236e-05 0.50001674)
(0 -6.4922192e-05 0.50001694)
(0 -0.00014435076 0.50001751)
(0 -0.0002273291 0.50001846)
(0 -0.00031583701 0.50001987)
(0 -0.00041219793 0.50002182)
(0 -0.00051925073 0.50002443)
(0 -0.00064058904 0.5000279)
(0 -0.00078090911 0.5000325)
(0 -0.00094653971 0.50003862)
(0 -0.0011462933 0.50004687)
(0 -0.0013928314 0.50005823)
(0 -0.0017049044 0.50007414)
(0 -0.0021128648 0.5000971)
(0 -0.0026726326 0.50013483)
(0 -0.0034663404 0.50020241)
(0 -0.00455879 0.5002715)
(0 -0.0065831044 0.50043373)
(0 -0.017657546 0.5067538)
(0 -0.013589161 0.47975618)
(0 0.037431256 0.44797104)
(0 0.05095279 0.53232599)
(0 0.021966334 0.50804295)
(0 0.016132783 0.50357336)
(0 0.01241304 0.50242321)
(0 0.0095128987 0.50162297)
(0 0.0075176505 0.50115654)
(0 0.0060670789 0.5008658)
(0 0.0049619843 0.50066784)
(0 0.0040978282 0.5005288)
(0 0.0034056544 0.5004288)
(0 0.0028385098 0.50035526)
(0 0.0023640155 0.50030034)
(0 0.001959082 0.50025892)
(0 0.0016067436 0.50022755)
(0 0.0012941995 0.50020387)
(0 0.001011519 0.50018625)
(0 0.00075075853 0.50017357)
(0 0.0005053379 0.50016505)
(0 0.00026958144 0.50016022)
(0 3.8362658e-05 0.50015879)
(0 -0.00019320423 0.5001607)
(0 -0.00043003511 0.50016606)
(0 -0.00067734671 0.50017519)
(0 -0.00094097615 0.50018862)
(0 -0.0012277597 0.5002072)
(0 -0.0015460283 0.50023217)
(0 -0.001906296 0.50026532)
(0 -0.002322251 0.50030928)
(0 -0.0028122414 0.50036794)
(0 -0.003401651 0.50044724)
(0 -0.0041268652 0.50055665)
(0 -0.0050409745 0.50071128)
(0 -0.0062238571 0.5009367)
(0 -0.0078244047 0.50129456)
(0 -0.010118455 0.50191083)
(0 -0.013100266 0.50282566)
(0 -0.017419889 0.50608154)
(0 -0.03875303 0.52526785)
(0 -0.027891828 0.45022032)
(0 0.039886119 0.40982536)
(0 0.061423078 0.54930879)
(0 0.031978225 0.52188188)
(0 0.024350425 0.51008091)
(0 0.019188282 0.5065887)
(0 0.014971821 0.50452801)
(0 0.012001549 0.50327118)
(0 0.0097670214 0.50245803)
(0 0.0080319998 0.50190058)
(0 0.006660827 0.50150809)
(0 0.0055532721 0.50122477)
(0 0.0046397922 0.50101592)
(0 0.0038716402 0.50085969)
(0 0.003213411 0.5007417)
(0 0.002638761 0.50065225)
(0 0.0021276274 0.50058469)
(0 0.0016643236 0.50053438)
(0 0.0012362195 0.50049815)
(0 0.00083279803 0.50047381)
(0 0.00044494957 0.50045998)
(0 6.4422363e-05 0.5004559)
(0 -0.00031665594 0.50046135)
(0 -0.0007062053 0.50047667)
(0 -0.0011126162 0.50050274)
(0 -0.0015452454 0.5005411)
(0 -0.0020149994 0.50059414)
(0 -0.0025350889 0.50066535)
(0 -0.0031220594 0.50075982)
(0 -0.003797254 0.50088494)
(0 -0.004588926 0.50105162)
(0 -0.0055354448 0.50127641)
(0 -0.0066908062 0.50158544)
(0 -0.0081322299 0.50202083)
(0 -0.0099638289 0.50265099)
(0 -0.012358422 0.5036156)
(0 -0.015704032 0.50520005)
(0 -0.019861553 0.50785525)
(0 -0.025175175 0.51641279)
(0 -0.047406959 0.53912863)
(0 -0.030849263 0.41489041)
(0 0.034788912 0.36173947)
(0 0.063831643 0.55456613)
(0 0.039371736 0.53747109)
(0 0.030075618 0.51849302)
(0 0.024104593 0.51197753)
(0 0.019271604 0.50849931)
(0 0.015728413 0.50626379)
(0 0.012946816 0.5047547)
(0 0.010736852 0.50370342)
(0 0.0089618119 0.50295488)
(0 0.0075086529 0.50240962)
(0 0.0062976973 0.50200514)
(0 0.0052711273 0.50170117)
(0 0.0043856728 0.50147079)
(0 0.0036085036 0.50129565)
(0 0.0029142224 0.50116306)
(0 0.002282709 0.50106418)
(0 0.0016975888 0.50099286)
(0 0.0011451066 0.50094491)
(0 0.00061326767 0.50091764)
(0 9.1156276e-05 0.50090958)
(0 -0.0004316637 0.50092032)
(0 -0.00096568955 0.50095049)
(0 -0.0015220074 0.5010018)
(0 -0.0021129131 0.50107724)
(0 -0.0027526293 0.5011814)
(0 -0.0034582123 0.50132098)
(0 -0.0042507575 0.50150567)
(0 -0.0051570631 0.50174948)
(0 -0.0062119275 0.50207287)
(0 -0.0074612392 0.50250632)
(0 -0.0089672509 0.50309685)
(0 -0.010817356 0.50391916)
(0 -0.013118152 0.50508964)
(0 -0.016005299 0.5068078)
(0 -0.019881431 0.50946909)
(0 -0.024714715 0.51427693)
(0 -0.031095926 0.52824766)
(0 -0.050304929 0.54407741)
(0 -0.028432611 0.37240077)
(0 0.027421276 0.31485857)
(0 0.062305367 0.55024739)
(0 0.044602194 0.55146739)
(0 0.033970963 0.52748832)
(0 0.027452956 0.51772272)
(0 0.022444115 0.51291954)
(0 0.018626057 0.5097306)
(0 0.015517939 0.50749131)
(0 0.012996778 0.50589817)
(0 0.010933722 0.50474472)
(0 0.0092173756 0.50389359)
(0 0.007768869 0.50325629)
(0 0.006528199 0.50277392)
(0 0.005448923 0.50240627)
(0 0.0044949744 0.50212554)
(0 0.0036378692 0.50191228)
(0 0.0028546443 0.5017528)
(0 0.0021263412 0.50163753)
(0 0.0014368461 0.50155991)
(0 0.00077197874 0.50151571)
(0 0.00011875404 0.50150262)
(0 -0.00053527905 0.50151998)
(0 -0.0012026414 0.50156879)
(0 -0.0018965008 0.50165173)
(0 -0.0026313577 0.5017735)
(0 -0.0034238143 0.50194124)
(0 -0.0042935208 0.50216536)
(0 -0.0052643861 0.50246075)
(0 -0.0063661855 0.50284866)
(0 -0.0076367198 0.50335973)
(0 -0.0091242794 0.50403863)
(0 -0.010891328 0.50495188)
(0 -0.013024727 0.5062023)
(0 -0.015628324 0.50794482)
(0 -0.018789985 0.51040584)
(0 -0.022871261 0.51405736)
(0 -0.028153656 0.52114804)
(0 -0.035682359 0.53932756)
(0 -0.050457022 0.54156838)
(0 -0.024079483 0.3305912)
(0 0.019834755 0.27522006)
(0 0.057978333 0.53975934)
(0 0.047347381 0.56256513)
(0 0.036462567 0.53660418)
(0 0.029621447 0.52350731)
(0 0.024661602 0.5174028)
(0 0.02076015 0.51336168)
(0 0.017496417 0.51044246)
(0 0.014801884 0.50832147)
(0 0.01255559 0.50675846)
(0 0.010655992 0.50558887)
(0 0.0090310774 0.50470358)
(0 0.0076232074 0.50402765)
(0 0.0063864991 0.50350887)
(0 0.0052844708 0.50311053)
(0 0.0042876305 0.50280658)
(0 0.0033717261 0.50257849)
(0 0.0025163971 0.50241318)
(0 0.001704095 0.50230164)
(0 0.00091920777 0.50223802)
(0 0.00014733287 0.50221911)
(0 -0.00062538823 0.50224402)
(0 -0.0014128875 0.5023141)
(0 -0.0022297463 0.50243308)
(0 -0.0030918876 0.50260742)
(0 -0.0040173267 0.50284689)
(0 -0.0050270677 0.50316564)
(0 -0.0061462057 0.50358368)
(0 -0.0074053207 0.50412917)
(0 -0.0088423719 0.50484208)
(0 -0.010504658 0.5057794)
(0 -0.012450504 0.50702343)
(0 -0.014760153 0.50869735)
(0 -0.017535447 0.51098282)
(0 -0.020830405 0.51412226)
(0 -0.024941281 0.51873372)
(0 -0.030477005 0.52823257)
(0 -0.038596643 0.54872655)
(0 -0.048484137 0.5340094)
(0 -0.01905945 0.29398785)
(0 0.013079916 0.24258519)
(0 0.051785032 0.52522185)
(0 0.047688438 0.57025059)
(0 0.037737207 0.54552368)
(0 0.030831509 0.52928846)
(0 0.026054975 0.52180083)
(0 0.022219997 0.51699591)
(0 0.018936661 0.51347039)
(0 0.016177748 0.51086091)
(0 0.013835405 0.50890752)
(0 0.01182312 0.50742692)
(0 0.010078283 0.50629407)
(0 0.0085482471 0.50542124)
(0 0.0071902369 0.50474628)
(0 0.005969426 0.50422483)
(0 0.0048569691 0.50382495)
(0 0.0038286505 0.50352368)
(0 0.0028637699 0.50330464)
(0 0.0019442106 0.50315649)
(0 0.0010536593 0.50307183)
(0 0.00017694229 0.50304658)
(0 -0.00070059812 0.50307958)
(0 -0.0015936931 0.50317256)
(0 -0.0025176796 0.50333025)
(0 -0.0034891563 0.50356079)
(0 -0.0045266615 0.50387647)
(0 -0.0056514683 0.50429489)
(0 -0.0068885263 0.50484067)
(0 -0.008267577 0.5055481)
(0 -0.009824728 0.50646494)
(0 -0.011604213 0.50765838)
(0 -0.013658316 0.50922325)
(0 -0.016056573 0.51129756)
(0 -0.018894351 0.51408069)
(0 -0.022203089 0.51784157)
(0 -0.026223429 0.5234721)
(0 -0.031807299 0.53537743)
(0 -0.039716617 0.55590231)
(0 -0.044864395 0.52286483)
(0 -0.014082589 0.26271291)
(0 0.0077667237 0.21558038)
(0 0.044809927 0.50804241)
(0 0.046229539 0.57438621)
(0 0.038009822 0.553749)
(0 0.031263991 0.53495963)
(0 0.026745097 0.52602898)
(0 0.023094172 0.52053559)
(0 0.019899437 0.51648393)
(0 0.017162299 0.51343601)
(0 0.014795483 0.51112378)
(0 0.012730541 0.50935153)
(0 0.010915392 0.50798199)
(0 0.0093041052 0.50691755)
(0 0.007858681 0.50608829)
(0 0.0065473446 0.50544362)
(0 0.0053431074 0.50494669)
(0 0.0042228262 0.50457073)
(0 0.0031663368 0.50429648)
(0 0.0021557026 0.5041105)
(0 0.0011745646 0.504004)
(0 0.00020757183 0.50397208)
(0 -0.00076016572 0.50401338)
(0 -0.0017436097 0.50412995)
(0 -0.002758252 0.50432744)
(0 -0.0038207026 0.50461549)
(0 -0.0049492645 0.50500862)
(0 -0.0061645966 0.50552746)
(0 -0.0074904786 0.50620059)
(0 -0.0089546362 0.50706735)
(0 -0.010589908 0.5081819)
(0 -0.012435917 0.50961951)
(0 -0.014537842 0.51148522)
(0 -0.016951912 0.51392793)
(0 -0.019759874 0.51715646)
(0 -0.022977789 0.52148385)
(0 -0.026827731 0.52818725)
(0 -0.032298848 0.54222175)
(0 -0.039350391 0.56051328)
(0 -0.040293671 0.50914706)
(0 -0.0096994831 0.23594591)
(0 0.0040013954 0.19360561)
(0 0.03788147 0.48953357)
(0 0.043655742 0.5752507)
(0 0.037531948 0.56084185)
(0 0.031124465 0.5403591)
(0 0.026885524 0.53000937)
(0 0.023486382 0.52389797)
(0 0.020454013 0.51940685)
(0 0.017802373 0.51598034)
(0 0.015467422 0.51334987)
(0 0.013398813 0.51131359)
(0 0.01155516 0.50972567)
(0 0.0098982683 0.50848144)
(0 0.0083958664 0.50750525)
(0 0.0070200889 0.50674174)
(0 0.005746627 0.50615018)
(0 0.0045541601 0.50570073)
(0 0.0034237305 0.50537177)
(0 0.002338184 0.50514809)
(0 0.0012816644 0.5050197)
(0 0.00023915569 0.50498103)
(0 -0.00080397029 0.50503051)
(0 -0.0018624098 0.50517049)
(0 -0.0029512941 0.50540739)
(0 -0.0040866904 0.50575215)
(0 -0.0052860582 0.50622115)
(0 -0.0065687643 0.50683751)
(0 -0.0079566663 0.50763302)
(0 -0.0094746688 0.50865105)
(0 -0.011151419 0.50995068)
(0 -0.013020833 0.51161322)
(0 -0.015120481 0.51375136)
(0 -0.017493031 0.51652086)
(0 -0.020202735 0.52013289)
(0 -0.023257562 0.52496743)
(0 -0.026898641 0.53274429)
(0 -0.032138401 0.5483912)
(0 -0.0379311 0.56256381)
(0 -0.035375215 0.49388325)
(0 -0.0061913621 0.21336375)
(0 0.0015473444 0.17619359)
(0 0.031479257 0.47082536)
(0 0.040495193 0.57340403)
(0 0.036519411 0.5665946)
(0 0.030600491 0.54537468)
(0 0.026636514 0.53370147)
(0 0.023509146 0.5270271)
(0 0.020678204 0.52218081)
(0 0.01815306 0.51844142)
(0 0.015890151 0.5155392)
(0 0.013855023 0.51327197)
(0 0.012016203 0.51148911)
(0 0.010343352 0.5100816)
(0 0.0088101726 0.50896993)
(0 0.0073930906 0.50809539)
(0 0.0060709476 0.50741445)
(0 0.0048247245 0.50689495)
(0 0.0036371355 0.50651343)
(0 0.0024922563 0.50625332)
(0 0.0013751607 0.50610365)
(0 0.00027157875 0.50605832)
(0 -0.00083245191 0.5061156)
(0 -0.0019509571 0.50627806)
(0 -0.0030982932 0.50655274)
(0 -0.0042895542 0.50695164)
(0 -0.0055409035 0.5074926)
(0 -0.0068699422 0.50820067)
(0 -0.0082961144 0.50911005)
(0 -0.009841046 0.51026708)
(0 -0.011528802 0.5117343)
(0 -0.013387161 0.51359708)
(0 -0.015446252 0.51597289)
(0 -0.01773674 0.51902032)
(0 -0.020305691 0.5229505)
(0 -0.023160406 0.52823966)
(0 -0.026579961 0.53704354)
(0 -0.031487196 0.55365893)
(0 -0.035829705 0.56234134)
(0 -0.030508483 0.47801502)
(0 -0.003581163 0.19474664)
(0 7.276392e-05 0.16259699)
(0 0.02584747 0.45268465)
(0 0.037116061 0.56946214)
(0 0.035143094 0.570985)
(0 0.029832117 0.54995686)
(0 0.026130962 0.53710919)
(0 0.023264722 0.52990552)
(0 0.020648412 0.52477433)
(0 0.018271651 0.5207855)
(0 0.016105952 0.5176588)
(0 0.014129985 0.51519566)
(0 0.012320848 0.5132439)
(0 0.010655419 0.51169231)
(0 0.0091130351 0.51045919)
(0 0.0076743927 0.50948377)
(0 0.0063216345 0.50872068)
(0 0.0050382721 0.50813619)
(0 0.0038089655 0.50770553)
(0 0.002619315 0.50741113)
(0 0.0014556279 0.50724132)
(0 0.00030468425 0.50718956)
(0 -0.0008465071 0.50725402)
(0 -0.0020109947 0.50743743)
(0 -0.0032020545 0.50774733)
(0 -0.0044335013 0.50819647)
(0 -0.0057199055 0.50880376)
(0 -0.0070768252 0.50959562)
(0 -0.0085210511 0.51060793)
(0 -0.01007079 0.51188894)
(0 -0.011745593 0.51350338)
(0 -0.013567313 0.51553891)
(0 -0.015559238 0.51811529)
(0 -0.01774205 0.52139079)
(0 -0.020148271 0.52557991)
(0 -0.022791442 0.53128622)
(0 -0.025987633 0.54103239)
(0 -0.030475761 0.5579345)
(0 -0.033339434 0.56024178)
(0 -0.025945126 0.46223169)
(0 -0.0017545738 0.17963485)
(0 -0.00072211838 0.15199254)
(0 0.021082199 0.43554354)
(0 0.033768615 0.56397443)
(0 0.033545963 0.5740862)
(0 0.028919885 0.55408498)
(0 0.025468275 0.54025665)
(0 0.022836619 0.53254367)
(0 0.020431482 0.52717937)
(0 0.018211054 0.52299644)
(0 0.016155817 0.51968903)
(0 0.014254998 0.51706379)
(0 0.012492782 0.5149693)
(0 0.010852222 0.51329369)
(0 0.0093176297 0.51195433)
(0 0.0078736651 0.51088944)
(0 0.0065056712 0.51005264)
(0 0.0051997138 0.50940926)
(0 0.003942506 0.50893373)
(0 0.00272133 0.50860779)
(0 0.0015239117 0.50841931)
(0 0.0003382826 0.50836146)
(0 -0.00084736963 0.50843232)
(0 -0.0020449074 0.50863477)
(0 -0.0032663252 0.50897663)
(0 -0.0045239725 0.50947121)
(0 -0.0058306695 0.5101381)
(0 -0.0071998265 0.51100458)
(0 -0.0086455533 0.51210752)
(0 -0.010182738 0.51349624)
(0 -0.011826772 0.5152366)
(0 -0.013594176 0.51741723)
(0 -0.015502185 0.52015831)
(0 -0.017563332 0.52361584)
(0 -0.019799241 0.52801548)
(0 -0.022235878 0.53411307)
(0 -0.025212423 0.54467986)
(0 -0.029219172 0.56120909)
(0 -0.030691725 0.55666104)
(0 -0.021838561 0.44697189)
(0 -0.00055328758 0.16744137)
(0 -0.0010743711 0.14368309)
(0 0.017174242 0.41961648)
(0 0.030608368 0.55740064)
(0 0.031845839 0.57601977)
(0 0.027937732 0.55775143)
(0 0.024721834 0.54316959)
(0 0.022291155 0.53496414)
(0 0.020082933 0.52940175)
(0 0.018016929 0.52507017)
(0 0.01607667 0.5216204)
(0 0.014259475 0.51886378)
(0 0.012555129 0.51665118)
(0 0.010951714 0.51487106)
(0 0.0094377304 0.51344073)
(0 0.0080013359 0.51229815)
(0 0.0066308085 0.51139661)
(0 0.0053146442 0.51070098)
(0 0.0040415859 0.51018529)
(0 0.00280064 0.50983092)
(0 0.0015810346 0.50962547)
(0 0.00037216046 0.50956193)
(0 -0.00083649776 0.50963833)
(0 -0.0020554972 0.50985762)
(0 -0.0032954444 0.51022782)
(0 -0.0045671413 0.51076251)
(0 -0.0058816176 0.51148169)
(0 -0.007250164 0.51241306)
(0 -0.0086843341 0.51359393)
(0 -0.010195954 0.51507403)
(0 -0.011796747 0.51691951)
(0 -0.013498672 0.51921912)
(0 -0.015313818 0.52209208)
(0 -0.017248257 0.52569143)
(0 -0.019316737 0.53026406)
(0 -0.021562464 0.53673172)
(0 -0.024327384 0.54796587)
(0 -0.027819013 0.56352709)
(0 -0.028057014 0.55196149)
(0 -0.018262814 0.43250075)
(0 0.00018106793 0.15762038)
(0 -0.0011575435 0.13711742)
(0 0.014046071 0.40498418)
(0 0.027715283 0.5501156)
(0 0.030130659 0.57693356)
(0 0.026937927 0.56096277)
(0 0.023944456 0.54587187)
(0 0.021680053 0.53719381)
(0 0.019647825 0.53145452)
(0 0.017727492 0.52700986)
(0 0.015900502 0.52345024)
(0 0.014169787 0.52058914)
(0 0.012529295 0.51828061)
(0 0.010971024 0.51641407)
(0 0.0094868544 0.5149073)
(0 0.0080679047 0.51369856)
(0 0.0067050313 0.5127412)
(0 0.0053889424 0.51200009)
(0 0.0041102958 0.51144913)
(0 0.0028597758 0.5110696)
(0 0.0016281145 0.51084896)
(0 0.00040609003 0.51078016)
(0 -0.00081547356 0.51086118)
(0 -0.0020457861 0.511095)
(0 -0.0032940393 0.51148973)
(0 -0.0045694894 0.51205905)
(0 -0.0058814248 0.51282308)
(0 -0.0072391385 0.51380962)
(0 -0.0086518524 0.51505601)
(0 -0.010128681 0.51661186)
(0 -0.011678237 0.51854311)
(0 -0.013308744 0.52093795)
(0 -0.015028143 0.52391374)
(0 -0.016837699 0.52762112)
(0 -0.018749157 0.53233918)
(0 -0.020825546 0.53915612)
(0 -0.023389535 0.55088405)
(0 -0.026357615 0.56497164)
(0 -0.025546401 0.54646165)
(0 -0.015229411 0.41896673)
(0 0.00058656372 0.14970936)
(0 -0.0010899647 0.131856)
(0 0.011587018 0.39163833)
(0 0.025117109 0.54241353)
(0 0.028459119 0.57698227)
(0 0.025953718 0.56373878)
(0 0.023171322 0.54838621)
(0 0.021041672 0.53926099)
(0 0.019161461 0.53335497)
(0 0.017373838 0.52882336)
(0 0.015654253 0.52518055)
(0 0.014008824 0.52223782)
(0 0.012434386 0.51985269)
(0 0.010925845 0.51791591)
(0 0.0094776892 0.51634604)
(0 0.0080834445 0.51508191)
(0 0.0067361489 0.51407727)
(0 0.0054284538 0.51329723)
(0 0.0041527568 0.51271582)
(0 0.0029013125 0.51231436)
(0 0.0016662949 0.51208034)
(0 0.00043983777 0.5120067)
(0 -0.00078591607 0.51209142)
(0 -0.0020188488 0.51233746)
(0 -0.003266773 0.51275293)
(0 -0.0045374651 0.51335147)
(0 -0.0058385854 0.51415312)
(0 -0.0071776133 0.51518554)
(0 -0.0085617214 0.51648578)
(0 -0.009997714 0.51810303)
(0 -0.011491668 0.52010262)
(0 -0.01304889 0.52257178)
(0 -0.01467416 0.52562554)
(0 -0.01636553 0.52941391)
(0 -0.018135017 0.5342588)
(0 -0.020065533 0.54140268)
(0 -0.022440241 0.55344216)
(0 -0.024895887 0.56564783)
(0 -0.023222416 0.54042807)
(0 -0.01270864 0.40643223)
(0 0.00077227042 0.14331435)
(0 -0.00094807926 0.12755344)
(0 0.0096783043 0.37951333)
(0 0.022810305 0.53451544)
(0 0.026866295 0.57631146)
(0 0.025003688 0.56610682)
(0 0.022423476 0.55073319)
(0 0.020402501 0.54119322)
(0 0.018650137 0.53512261)
(0 0.016980319 0.5305216)
(0 0.015359858 0.52681655)
(0 0.013795836 0.52381101)
(0 0.012286924 0.52136562)
(0 0.01083009 0.51937264)
(0 0.0094217353 0.51775149)
(0 0.0080572652 0.51644173)
(0 0.0067315025 0.51539768)
(0 0.0054387518 0.51458485)
(0 0.0041729428 0.51397754)
(0 0.0029277528 0.51355725)
(0 0.0016966924 0.51331158)
(0 0.00047317269 0.51323351)
(0 -0.00074941082 0.51332103)
(0 -0.0019776794 0.51357707)
(0 -0.0032181486 0.51400965)
(0 -0.0044772255 0.51463228)
(0 -0.0057610983 0.51546479)
(0 -0.007075652 0.51653449)
(0 -0.0084263187 0.51787799)
(0 -0.0098180076 0.51954385)
(0 -0.011254809 0.5215966)
(0 -0.012739856 0.52412229)
(0 -0.014275663 0.52723355)
(0 -0.015858531 0.53108255)
(0 -0.017503234 0.53604311)
(0 -0.019310373 0.54348878)
(0 -0.021507348 0.55565779)
(0 -0.023475674 0.56566629)
(0 -0.02111297 0.53407302)
(0 -0.010647924 0.39489739)
(0 0.0008184895 0.13810233)
(0 -0.00077938291 0.12394887)
(0 0.0082072813 0.36851275)
(0 0.020774516 0.52658141)
(0 0.025369955 0.57504948)
(0 0.024096466 0.56809669)
(0 0.021711874 0.55292968)
(0 0.019779508 0.543015)
(0 0.018132461 0.53677707)
(0 0.016565244 0.53211693)
(0 0.015034556 0.52836541)
(0 0.013546499 0.52531205)
(0 0.012100774 0.52281983)
(0 0.010695735 0.52078248)
(0 0.0093291064 0.51912026)
(0 0.0079977072 0.51777347)
(0 0.0066977728 0.51669705)
(0 0.0054249746 0.51585698)
(0 0.0041745547 0.51522795)
(0 0.0029414437 0.5147917)
(0 0.0017203569 0.51453598)
(0 0.0005058738 0.51445386)
(0 -0.00070745599 0.51454334)
(0 -0.001925092 0.51480731)
(0 -0.0031523657 0.51525364)
(0 -0.004394454 0.51589566)
(0 -0.0056562521 0.51675287)
(0 -0.0069422839 0.51785217)
(0 -0.0082565484 0.51922961)
(0 -0.0096024558 0.52093303)
(0 -0.010982608 0.5230261)
(0 -0.012398591 0.52559365)
(0 -0.013851422 0.52874619)
(0 -0.015336942 0.53264153)
(0 -0.016874358 0.53771213)
(0 -0.018578062 0.54543069)
(0 -0.020608202 0.55755355)
(0 -0.022123362 0.56513259)
(0 -0.019223021 0.5275593)
(0 -0.0089844494 0.38432242)
(0 0.00078172794 0.13380127)
(0 -0.00061186788 0.12085227)
(0 0.0070747682 0.35852825)
(0 0.01898164 0.51872428)
(0 0.023975843 0.57330591)
(0 0.023234338 0.56973794)
(0 0.021040765 0.55498849)
(0 0.019182583 0.54474658)
(0 0.017620962 0.53833653)
(0 0.016141888 0.53362183)
(0 0.014691462 0.52983511)
(0 0.01327321 0.52674555)
(0 0.011887253 0.52421725)
(0 0.01053281 0.52214527)
(0 0.0092084611 0.52045057)
(0 0.0079120425 0.51907412)
(0 0.0066408739 0.51797146)
(0 0.0053917269 0.51710908)
(0 0.0041609401 0.51646206)
(0 0.0029445219 0.51601242)
(0 0.0017382469 0.5157481)
(0 0.00053773615 0.51566228)
(0 -0.00066142467 0.51575296)
(0 -0.0018636526 0.51602296)
(0 -0.0030732262 0.51648003)
(0 -0.0042942452 0.51713722)
(0 -0.0055304984 0.5180137)
(0 -0.0067853787 0.5191359)
(0 -0.0080617409 0.52053927)
(0 -0.0093618514 0.52227096)
(0 -0.010687251 0.52439382)
(0 -0.012038495 0.52699148)
(0 -0.013415721 0.53017298)
(0 -0.014815419 0.53410549)
(0 -0.016262167 0.53928408)
(0 -0.017879136 0.54724258)
(0 -0.019752301 0.55915409)
(0 -0.020853231 0.56414218)
(0 -0.017543183 0.52100846)
(0 -0.0076534773 0.37464524)
(0 0.00070040785 0.13019621)
(0 -0.00046046025 0.11812858)
(0 0.0061981922 0.34945095)
(0 0.017401459 0.5110213)
(0 0.022681935 0.57117271)
(0 0.022415756 0.57105883)
(0 0.020410106 0.55691894)
(0 0.018616555 0.54640389)
(0 0.017123566 0.53981693)
(0 0.015719522 0.53504803)
(0 0.014340262 0.53123364)
(0 0.012985515 0.52811667)
(0 0.011655367 0.52556071)
(0 0.010349516 0.52346191)
(0 0.0090670357 0.5217418)
(0 0.0078064603 0.52034188)
(0 0.0065659147 0.51921821)
(0 0.0053430337 0.51833777)
(0 0.0041350518 0.51767601)
(0 0.0029388843 0.51721524)
(0 0.0017512159 0.51694361)
(0 0.00056857586 0.51685438)
(0 -0.00061254149 0.51694558)
(0 -0.0017956392 0.51721997)
(0 -0.0029840819 0.5176851)
(0 -0.0041810473 0.51835381)
(0 -0.0053894002 0.51924487)
(0 -0.0066116186 0.52038427)
(0 -0.0078496705 0.52180688)
(0 -0.0091049851 0.52355921)
(0 -0.010378393 0.52570341)
(0 -0.011669828 0.52832206)
(0 -0.012979038 0.53152357)
(0 -0.014304051 0.53548824)
(0 -0.015675136 0.54077468)
(0 -0.017218661 0.54893639)
(0 -0.018943423 0.56048437)
(0 -0.019670549 0.56277856)
(0 -0.016056046 0.51450902)
(0 -0.0065937796 0.36579321)
(0 0.00059971858 0.127121)
(0 -0.00033162877 0.11568377)
(0 0.0055118242 0.34117762)
(0 0.016004949 0.50352337)
(0 0.021481809 0.56872631)
(0 0.021637141 0.57208576)
(0 0.019817263 0.55872757)
(0 0.018082761 0.5479989)
(0 0.016644805 0.54123184)
(0 0.015304316 0.53640613)
(0 0.013987876 0.53256861)
(0 0.012690575 0.52943063)
(0 0.011412123 0.52685346)
(0 0.010152413 0.524734)
(0 0.0089107476 0.52299417)
(0 0.0076861144 0.52157586)
(0 0.0064772127 0.52043556)
(0 0.005282337 0.51954065)
(0 0.0040994377 0.51886693)
(0 0.0029261775 0.51839699)
(0 0.001760008 0.51811915)
(0 0.00059823387 0.51802677)
(0 -0.00056187096 0.51811791)
(0 -0.0017230253 0.51839524)
(0 -0.0028878164 0.51886617)
(0 -0.0040586508 0.51954325)
(0 -0.0052376393 0.52044496)
(0 -0.0064265387 0.52159681)
(0 -0.0076266532 0.5230332)
(0 -0.0088388284 0.52480008)
(0 -0.010063465 0.52695902)
(0 -0.011300183 0.5295918)
(0 -0.012548716 0.53280719)
(0 -0.013809299 0.5368022)
(0 -0.015117697 0.54219697)
(0 -0.016597833 0.55052186)
(0 -0.018181423 0.56156843)
(0 -0.018574402 0.56111304)
(0 -0.014740642 0.50812352)
(0 -0.0057507561 0.35769068)
(0 0.00049542185 0.12444931)
(0 -0.00022670529 0.11345362)
(0 0.004965186 0.33361401)
(0 0.014765929 0.49626229)
(0 0.020367069 0.56602991)
(0 0.020894139 0.57284298)
(0 0.019258257 0.5604188)
(0 0.017580273 0.54954017)
(0 0.016186789 0.5425924)
(0 0.014900101 0.53770543)
(0 0.01363905 0.53384696)
(0 0.012393604 0.53069247)
(0 0.011162837 0.52809889)
(0 0.0099466286 0.52596351)
(0 0.0087443353 0.52420847)
(0 0.0075552096 0.52277586)
(0 0.0063783429 0.52162251)
(0 0.0052125201 0.52071611)
(0 0.0040562513 0.52003276)
(0 0.0029078028 0.51955529)
(0 0.0017652602 0.51927218)
(0 0.00062657726 0.51917689)
(0 -0.00051031632 0.51926747)
(0 -0.0016474801 0.51954653)
(0 -0.0027868534 0.52002133)
(0 -0.0039302111 0.5207042)
(0 -0.0050790633 0.52161328)
(0 -0.0062346139 0.52277374)
(0 -0.0073976895 0.52421953)
(0 -0.0085687549 0.52599621)
(0 -0.0097479915 0.5281649)
(0 -0.010934938 0.53080684)
(0 -0.012129585 0.53403235)
(0 -0.013334825 0.53805816)
(0 -0.014591341 0.54356133)
(0 -0.016015277 0.55200673)
(0 -0.017463709 0.56242865)
(0 -0.017560066 0.55920552)
(0 -0.013575337 0.50189464)
(0 -0.0050777421 0.35026358)
(0 0.00039674042 0.12208672)
(0 -0.00014415714 0.11139494)
(0 0.0045206222 0.32667627)
(0 0.013661634 0.48925631)
(0 0.019328886 0.56313588)
(0 0.020182398 0.5733527)
(0 0.01872861 0.56199545)
(0 0.017106837 0.55103339)
(0 0.01574998 0.5439075)
(0 0.01450899 0.53895389)
(0 0.013296861 0.53507483)
(0 0.012098267 0.53190681)
(0 0.010911434 0.52930033)
(0 0.0097360824 0.52715261)
(0 0.0085715128 0.52538583)
(0 0.0074171074 0.52394217)
(0 0.0062722079 0.52277865)
(0 0.0051359522 0.52186319)
(0 0.0040072785 0.52117213)
(0 0.0028849311 0.52068849)
(0 0.001767509 0.52040089)
(0 0.00065349993 0.52030287)
(0 -0.00045862555 0.52039249)
(0 -0.0015703832 0.52067228)
(0 -0.0026831835 0.52114938)
(0 -0.0037982948 0.52183591)
(0 -0.0049167599 0.52274975)
(0 -0.0060393717 0.52391575)
(0 -0.0071666297 0.52536755)
(0 -0.0082987746 0.52715041)
(0 -0.0094359209 0.52932519)
(0 -0.010577691 0.53197286)
(0 -0.011724528 0.53520654)
(0 -0.01288223 0.53926517)
(0 -0.014095532 0.54487567)
(0 -0.015468059 0.55339692)
(0 -0.016786344 0.56308539)
(0 -0.016620756 0.55710586)
(0 -0.012539559 0.49585034)
(0 -0.0045361939 0.34344235)
(0 0.00030851645 0.11996381)
(0 -8.1066813e-05 0.10947889)
(0 0.0041507141 0.32029112)
(0 0.012672698 0.48251438)
(0 0.018358879 0.56008784)
(0 0.019497983 0.57363531)
(0 0.018223879 0.56345936)
(0 0.016659522 0.55248199)
(0 0.01533378 0.54518402)
(0 0.014131889 0.54015816)
(0 0.012963148 0.53625756)
(0 0.011807025 0.53307783)
(0 0.010660717 0.53046091)
(0 0.0095236919 0.52830346)
(0 0.0083951262 0.52652759)
(0 0.0072744394 0.52507539)
(0 0.0061611173 0.52390397)
(0 0.0050545429 0.52298139)
(0 0.003953973 0.52228417)
(0 0.002858523 0.52179547)
(0 0.0017671997 0.52150404)
(0 0.00067892182 0.52140345)
(0 -0.00040740217 0.52149177)
(0 -0.0014928481 0.52177149)
(0 -0.0025784036 0.52224962)
(0 -0.0036649393 0.52293811)
(0 -0.0047531441 0.52385464)
(0 -0.0058435159 0.52502381)
(0 -0.0069363457 0.52647904)
(0 -0.0080317663 0.52826543)
(0 -0.0091299285 0.53044371)
(0 -0.01023065 0.53309493)
(0 -0.011334971 0.53633625)
(0 -0.01245166 0.54043057)
(0 -0.013628443 0.54614572)
(0 -0.014952421 0.55469687)
(0 -0.016144819 0.56355699)
(0 -0.015748831 0.55485539)
(0 -0.011614692 0.49000788)
(0 -0.0040951725 0.3371635)
(0 0.00023274153 0.11803033)
(0 -3.4056476e-05 0.1076861)
(0 0.0038358893 0.31439527)
(0 0.011782846 0.47603911)
(0 0.017449533 0.55692238)
(0 0.01883753 0.57370968)
(0 0.017739951 0.56481184)
(0 0.016235161 0.55388768)
(0 0.014936949 0.54642714)
(0 0.01376888 0.54132374)
(0 0.012638851 0.53739974)
(0 0.011521423 0.53420917)
(0 0.010412612 0.53158347)
(0 0.0093115635 0.52941818)
(0 0.0082173012 0.52763515)
(0 0.0071292195 0.52617633)
(0 0.0060468715 0.52499876)
(0 0.0049698012 0.5240706)
(0 0.0038974963 0.52336845)
(0 0.0028293533 0.52287559)
(0 0.001764697 0.52258083)
(0 0.0007027872 0.52247781)
(0 -0.00035711976 0.52256459)
(0 -0.001415751 0.5228436)
(0 -0.0024737623 0.52332176)
(0 -0.00353172 0.5240109)
(0 -0.004590052 0.52492851)
(0 -0.0056490542 0.52609906)
(0 -0.0067088992 0.52755583)
(0 -0.0077696944 0.52934386)
(0 -0.0088316924 0.53152391)
(0 -0.0098949798 0.53417744)
(0 -0.010961289 0.53742691)
(0 -0.012042282 0.54156015)
(0 -0.013187489 0.54737537)
(0 -0.014464293 0.55590987)
(0 -0.015534562 0.56385994)
(0 -0.014936605 0.55248843)
(0 -0.010784424 0.48437687)
(0 -0.0037304341 0.33137022)
(0 0.0001696252 0.11625036)
(0 1.6977829e-07 0.10600315)
(0 0.003562382 0.30893449)
(0 0.010978477 0.46982892)
(0 0.016594336 0.55367045)
(0 0.018198273 0.57359342)
(0 0.017273179 0.56605399)
(0 0.015830608 0.55525088)
(0 0.01455789 0.54764059)
(0 0.013419499 0.54245509)
(0 0.012324273 0.53850519)
(0 0.011242325 0.53530401)
(0 0.010168364 0.53267058)
(0 0.0091011592 0.53049873)
(0 0.0080395781 0.52870995)
(0 0.0069829499 0.52724592)
(0 0.0059308414 0.52606354)
(0 0.0048828945 0.52513097)
(0 0.0038387577 0.52442485)
(0 0.0027980358 0.52392853)
(0 0.0017602957 0.52363087)
(0 0.00072506182 0.52352553)
(0 -0.00030813852 0.52361057)
(0 -0.0013397615 0.52388838)
(0 -0.0023702087 0.52436581)
(0 -0.0033998186 0.52505458)
(0 -0.0044288338 0.5259721)
(0 -0.0054574203 0.52714271)
(0 -0.0064856976 0.52859966)
(0 -0.0075138045 0.53038806)
(0 -0.0085421307 0.5325688)
(0 -0.0095710761 0.53522415)
(0 -0.010603132 0.53848296)
(0 -0.011652652 0.5426583)
(0 -0.012769724 0.54856704)
(0 -0.013999632 0.55703835)
(0 -0.014951259 0.5640091)
(0 -0.014176835 0.55003354)
(0 -0.010034763 0.47896158)
(0 -0.0034233596 0.32601244)
(0 0.00011833956 0.11459836)
(0 2.4546929e-05 0.10442035)
(0 0.0033205945 0.30386244)
(0 0.010248226 0.46387955)
(0 0.015787738 0.55035843)
(0 0.01757798 0.57330304)
(0 0.016820429 0.56718703)
(0 0.015442898 0.55657118)
(0 0.014194843 0.54882694)
(0 0.013082944 0.54355577)
(0 0.012019284 0.53957716)
(0 0.010970103 0.53636506)
(0 0.0099286995 0.53372447)
(0 0.0088934382 0.53154691)
(0 0.0078630292 0.52975336)
(0 0.006836716 0.52828512)
(0 0.0058140433 0.52709893)
(0 0.0047947045 0.52616283)
(0 0.0037784546 0.52545349)
(0 0.0027650479 0.52495426)
(0 0.0017542312 0.52465402)
(0 0.00074572982 0.52454646)
(0 -0.00026072214 0.52462962)
(0 -0.001265375 0.52490586)
(0 -0.0022684398 0.52538198)
(0 -0.0032700899 0.52606965)
(0 -0.0042704415 0.52698619)
(0 -0.0052695849 0.52815594)
(0 -0.0062676328 0.52961217)
(0 -0.0072647902 0.53140013)
(0 -0.0082615996 0.53358098)
(0 -0.0092587967 0.53623816)
(0 -0.010259672 0.53950799)
(0 -0.011280982 0.54372823)
(0 -0.012372108 0.54972198)
(0 -0.013554633 0.5580842)
(0 -0.014391024 0.56401791)
(0 -0.013462975 0.54751467)
(0 -0.0093538746 0.47376266)
(0 -0.0031598881 0.32104643)
(0 7.7527081e-05 0.11305629)
(0 4.1540243e-05 0.1029302)
(0 0.0031038441 0.29913962)
(0 0.00958256 0.45818505)
(0 0.015025037 0.54700896)
(0 0.016974858 0.57285416)
(0 0.016379053 0.5682124)
(0 0.015069311 0.5578476)
(0 0.013846004 0.54998784)
(0 0.012758215 0.54462861)
(0 0.01172346 0.5406183)
(0 0.010704772 0.53739461)