/*--------------------------------*- C++ -*----------------------------------*\
  =========                 |
  \\      /  F ield         | OpenFOAM: The Open Source CFD Toolbox
   \\    /   O peration     | Website:  https://openfoam.org
    \\  /    A nd           | Version:  10
     \\/     M anipulation  |
\*---------------------------------------------------------------------------*/
FoamFile
{
    format      ascii;
    class       volVectorField;
    location    "0.15";
    object      U_0;
}
// * * * * * * * * * * * * * * * * * * * * * * * * * * * * * * * * * * * * * //

dimensions      [0 1 -1 0 0 0 0];

internalField   nonuniform List<vector> 
4000
(
(0 0.018636914 0.47773184)
(0 0.023508974 0.50886046)
(0 0.0081659017 0.50052525)
(0 0.0056136668 0.50033637)
(0 0.0042536194 0.50025747)
(0 0.0032539233 0.50016898)
(0 0.0025550952 0.50011968)
(0 0.0020536387 0.50009012)
(0 0.0016757119 0.50006979)
(0 0.0013814699 0.50005537)
(0 0.001146538 0.50004497)
(0 0.0009545757 0.5000373)
(0 0.00079432684 0.50003157)
(0 0.00065781391 0.50002723)
(0 0.00053920666 0.50002395)
(0 0.0004341225 0.50002147)
(0 0.0003391721 0.50001962)
(0 0.00025165151 0.50001829)
(0 0.00016932596 0.5000174)
(0 9.0271448e-05 0.50001689)
(0 1.2752515e-05 0.50001674)
(0 -6.4885123e-05 0.50001694)
(0 -0.00014430604 0.50001751)
(0 -0.00022727691 0.50001846)
(0 -0.00031577763 0.50001987)
(0 -0.00041213172 0.50002182)
(0 -0.00051917815 0.50002443)
(0 -0.00064051062 0.5000279)
(0 -0.00078082553 0.5000325)
(0 -0.00094645176 0.50003862)
(0 -0.0011462019 0.50004687)
(0 -0.0013927375 0.50005823)
(0 -0.0017048092 0.50007414)
(0 -0.0021127697 0.5000971)
(0 -0.0026725393 0.50013483)
(0 -0.0034662513 0.50020241)
(0 -0.0045587087 0.5002715)
(0 -0.0065830272 0.50043374)
(0 -0.017657468 0.50675379)
(0 -0.013589121 0.4797562)
(0 0.037431187 0.44797113)
(0 0.050952645 0.53232598)
(0 0.021966188 0.50804295)
(0 0.016132642 0.50357337)
(0 0.012412888 0.50242321)
(0 0.0095127442 0.50162297)
(0 0.0075174976 0.50115654)
(0 0.0060669305 0.5008658)
(0 0.0049618433 0.50066783)
(0 0.0040976974 0.50052879)
(0 0.0034055362 0.50042879)
(0 0.0028384063 0.50035525)
(0 0.0023639286 0.50030033)
(0 0.0019590135 0.5002589)
(0 0.0016066949 0.50022753)
(0 0.001294172 0.50020385)
(0 0.0010115139 0.50018624)
(0 0.00075077645 0.50017355)
(0 0.00050537954 0.50016504)
(0 0.00026964717 0.5001602)
(0 3.8452663e-05 0.50015878)
(0 -0.00019309009 0.50016069)
(0 -0.00042989713 0.50016605)
(0 -0.00067718547 0.50017517)
(0 -0.00094079251 0.5001886)
(0 -0.0012275547 0.50020719)
(0 -0.0015458035 0.50023215)
(0 -0.0019060529 0.50026531)
(0 -0.0023219918 0.50030927)
(0 -0.0028119685 0.50036793)
(0 -0.0034013671 0.50044723)
(0 -0.0041265734 0.50055665)
(0 -0.0050406784 0.50071128)
(0 -0.0062235611 0.50093671)
(0 -0.0078241134 0.50129457)
(0 -0.010118175 0.50191084)
(0 -0.01310001 0.50282568)
(0 -0.017419639 0.50608155)
(0 -0.038752792 0.52526784)
(0 -0.027891714 0.45022047)
(0 0.039886013 0.40982559)
(0 0.061422832 0.54930882)
(0 0.031977954 0.52188188)
(0 0.024350174 0.51008093)
(0 0.019188015 0.50658871)
(0 0.01497155 0.50452801)
(0 0.012001281 0.50327117)
(0 0.0097667616 0.50245802)
(0 0.0080317532 0.50190056)
(0 0.006660598 0.50150807)
(0 0.0055530649 0.50122474)
(0 0.0046396105 0.50101589)
(0 0.0038714873 0.50085966)
(0 0.0032132899 0.50074166)
(0 0.0026386744 0.50065221)
(0 0.0021275774 0.50058464)
(0 0.001664312 0.50053434)
(0 0.0012362479 0.5004981)
(0 0.00083286733 0.50047376)
(0 0.00044506051 0.50045993)
(0 6.4575249e-05 0.50045585)
(0 -0.00031646127 0.50046131)
(0 -0.00070596937 0.50047662)
(0 -0.00111234 0.50050269)
(0 -0.0015449303 0.50054106)
(0 -0.0020146474 0.5005941)
(0 -0.0025347023 0.50066531)
(0 -0.0031216411 0.50075979)
(0 -0.0037968074 0.50088491)
(0 -0.0045884552 0.5010516)
(0 -0.0055349544 0.50127639)
(0 -0.0066903015 0.50158543)
(0 -0.0081317172 0.50202082)
(0 -0.0099633154 0.50265099)
(0 -0.012357915 0.50361562)
(0 -0.015703541 0.50520008)
(0 -0.019861101 0.5078553)
(0 -0.025174717 0.51641281)
(0 -0.047406546 0.53912868)
(0 -0.030849082 0.41489082)
(0 0.034788782 0.36173993)
(0 0.063831289 0.55456627)
(0 0.039371312 0.53747108)
(0 0.030075235 0.51849305)
(0 0.024104195 0.51197755)
(0 0.019271201 0.50849931)
(0 0.015728016 0.50626378)
(0 0.012946431 0.50475467)
(0 0.010736486 0.50370338)
(0 0.008961473 0.50295483)
(0 0.007508346 0.50240956)
(0 0.0062974278 0.50200508)
(0 0.0052709 0.5017011)
(0 0.0043854918 0.50147071)
(0 0.0036083727 0.50129557)
(0 0.0029141449 0.50116297)
(0 0.0022826876 0.50106409)
(0 0.0016976255 0.50099276)
(0 0.001145203 0.50094481)
(0 0.00061342482 0.50091754)
(0 9.1374556e-05 0.50090948)
(0 -0.00043138445 0.50092022)
(0 -0.00096535007 0.50095039)
(0 -0.0015216091 0.5010017)
(0 -0.0021124579 0.50107715)
(0 -0.0027521199 0.50118131)
(0 -0.0034576521 0.5013209)
(0 -0.0042501506 0.5015056)
(0 -0.0051564144 0.50174942)
(0 -0.0062112426 0.50207282)
(0 -0.0074605248 0.50250628)
(0 -0.0089665144 0.50309682)
(0 -0.010816606 0.50391914)
(0 -0.013117399 0.50508965)
(0 -0.016004553 0.50680783)
(0 -0.019880705 0.50946915)
(0 -0.024714035 0.51427701)
(0 -0.031095213 0.52824768)
(0 -0.050304323 0.54407763)
(0 -0.028432374 0.37240157)
(0 0.027421132 0.31485932)
(0 0.062304906 0.55024772)
(0 0.044601592 0.55146738)
(0 0.03397042 0.52748834)
(0 0.027452406 0.51772275)
(0 0.022443562 0.51291954)
(0 0.018625513 0.50973058)
(0 0.015517413 0.50749127)
(0 0.012996279 0.50589811)
(0 0.010933259 0.50474464)
(0 0.0092169558 0.50389349)
(0 0.0077684996 0.50325618)
(0 0.0065278865 0.50277379)
(0 0.005448673 0.50240613)
(0 0.0044947918 0.50212539)
(0 0.0036377583 0.50191212)
(0 0.0028546087 0.50175264)
(0 0.0021263837 0.50163736)
(0 0.0014369688 0.50155974)
(0 0.00077218291 0.50151554)
(0 0.00011904035 0.50150245)
(0 -0.00053491077 0.50151981)
(0 -0.001202192 0.50156862)
(0 -0.0018959721 0.50165157)
(0 -0.0026307523 0.50177334)
(0 -0.0034231356 0.50194109)
(0 -0.0042927733 0.50216523)
(0 -0.005263575 0.50246062)
(0 -0.0063653171 0.50284855)
(0 -0.0076358016 0.50335964)
(0 -0.0091233199 0.50403856)
(0 -0.010890337 0.50495183)
(0 -0.013023715 0.50620228)
(0 -0.015627305 0.50794483)
(0 -0.018788971 0.51040588)
(0 -0.02287027 0.51405745)
(0 -0.028152705 0.52114813)
(0 -0.035681343 0.53932759)
(0 -0.050456213 0.54156889)
(0 -0.024079202 0.33059252)
(0 0.019834603 0.27522114)
(0 0.057977768 0.53975996)
(0 0.04734658 0.56256516)
(0 0.03646183 0.53660417)
(0 0.029620723 0.52350734)
(0 0.024660878 0.5174028)
(0 0.020759438 0.51336164)
(0 0.017495729 0.51044239)
(0 0.014801233 0.50832137)
(0 0.012554985 0.50675833)
(0 0.010655443 0.50558872)
(0 0.009030594 0.50470341)
(0 0.0076227972 0.50402746)
(0 0.0063861692 0.50350866)
(0 0.0052842274 0.50311031)
(0 0.0042874791 0.50280634)
(0 0.003371671 0.50257825)
(0 0.0025164419 0.50241293)
(0 0.0017042425 0.50230138)
(0 0.00091945965 0.50223776)
(0 0.00014768997 0.50221885)
(0 -0.00062492602 0.50224376)
(0 -0.0014123213 0.50231384)
(0 -0.0022290781 0.50243283)
(0 -0.0030911207 0.50260718)
(0 -0.0040164652 0.50284666)
(0 -0.005026117 0.50316543)
(0 -0.0061451725 0.50358348)
(0 -0.0074042127 0.50412901)
(0 -0.0088411981 0.50484194)
(0 -0.010503429 0.50577929)
(0 -0.012449232 0.50702336)
(0 -0.01475885 0.50869731)
(0 -0.017534131 0.51098282)
(0 -0.020829092 0.51412233)
(0 -0.024939988 0.51873384)
(0 -0.030475732 0.52823265)
(0 -0.038595283 0.54872662)
(0 -0.048483122 0.53401037)
(0 -0.019059136 0.29398979)
(0 0.01307976 0.24258665)
(0 0.051784368 0.52522288)
(0 0.047687419 0.57025071)
(0 0.03773624 0.54552364)
(0 0.03083058 0.52928848)
(0 0.026054054 0.52180082)
(0 0.022219092 0.51699585)
(0 0.018935789 0.51347029)
(0 0.016176923 0.51086076)
(0 0.013834639 0.50890734)
(0 0.011822424 0.5074267)
(0 0.010077669 0.50629382)
(0 0.0085477246 0.50542096)
(0 0.0071898144 0.50474598)
(0 0.0059691112 0.5042245)
(0 0.0048567685 0.50382461)
(0 0.0038285695 0.50352332)
(0 0.0028638129 0.50330428)
(0 0.001944381 0.50315612)
(0 0.0010539594 0.50307145)
(0 0.00017737301 0.5030462)
(0 -0.00070003673 0.5030792)
(0 -0.0015930022 0.50317219)
(0 -0.0025168618 0.50332989)
(0 -0.0034882151 0.50356044)
(0 -0.004525602 0.50387614)
(0 -0.0056502969 0.50429458)
(0 -0.0068872507 0.50484039)
(0 -0.0082662065 0.50554785)
(0 -0.0098232734 0.50646473)
(0 -0.011602686 0.50765821)
(0 -0.013656733 0.50922313)
(0 -0.016054947 0.51129749)
(0 -0.018892701 0.51408069)
(0 -0.022201438 0.51784164)
(0 -0.026221792 0.52347222)
(0 -0.031805648 0.53537747)
(0 -0.039714877 0.55590249)
(0 -0.044863173 0.52286646)
(0 -0.01408225 0.26271558)
(0 0.0077665639 0.21558227)
(0 0.044809166 0.50804397)
(0 0.046228287 0.57438648)
(0 0.038008585 0.55374891)
(0 0.031262824 0.53495962)
(0 0.026743951 0.52602896)
(0 0.023093047 0.5205355)
(0 0.019898354 0.51648378)
(0 0.017161275 0.5134358)
(0 0.014794532 0.51112352)
(0 0.012729678 0.50935123)
(0 0.010914629 0.50798165)
(0 0.0093034537 0.50691717)
(0 0.0078581515 0.50608788)
(0 0.006546946 0.50544318)
(0 0.0053428477 0.50494622)
(0 0.0042227119 0.50457024)
(0 0.0031663731 0.50429597)
(0 0.0021558937 0.50410999)
(0 0.001174913 0.50400347)
(0 0.00020807908 0.50397156)
(0 -0.00075949955 0.50401286)
(0 -0.0017427859 0.50412944)
(0 -0.0027572734 0.50432694)
(0 -0.0038195733 0.50461501)
(0 -0.0049479902 0.50500817)
(0 -0.0061631847 0.50552703)
(0 -0.007488938 0.5062002)
(0 -0.0089529778 0.507067)
(0 -0.010588144 0.50818161)
(0 -0.012434062 0.50961927)
(0 -0.014535913 0.51148504)
(0 -0.016949926 0.51392783)
(0 -0.019757852 0.51715644)
(0 -0.022975759 0.52148393)
(0 -0.0268257 0.52818737)
(0 -0.032296761 0.54222174)
(0 -0.03934824 0.56051367)
(0 -0.040292245 0.50914953)
(0 -0.009699123 0.23594941)
(0 0.0040012296 0.19360796)
(0 0.037880611 0.4895358)
(0 0.043654239 0.57525123)
(0 0.037530402 0.56084172)
(0 0.031123016 0.54035903)
(0 0.026884117 0.53000932)
(0 0.023485006 0.52389785)
(0 0.020452689 0.51940665)
(0 0.017801121 0.51598007)
(0 0.015466261 0.51334952)
(0 0.013397758 0.51131319)
(0 0.011554226 0.50972521)
(0 0.0098974685 0.50848093)
(0 0.008395213 0.5075047)
(0 0.0070195924 0.50674115)
(0 0.0057462967 0.50614956)
(0 0.0045540037 0.50570008)
(0 0.0034237542 0.5053711)
(0 0.0023383925 0.5051474)
(0 0.0012820611 0.505019)
(0 0.00023974237 0.50498033)
(0 -0.0008031934 0.50502982)
(0 -0.0018614441 0.50516981)
(0 -0.0029501425 0.50540672)
(0 -0.0040853576 0.5057515)
(0 -0.0052845505 0.50622054)
(0 -0.0065670901 0.50683693)
(0 -0.0079548357 0.5076325)
(0 -0.009472694 0.50865058)
(0 -0.011149315 0.50995027)
(0 -0.013018615 0.51161289)
(0 -0.015118168 0.5137511)
(0 -0.017490643 0.5165207)
(0 -0.020200298 0.52013285)
(0 -0.023255104 0.52496749)
(0 -0.026896159 0.53274436)
(0 -0.032135817 0.54839113)
(0 -0.03792851 0.56256452)
(0 -0.035373583 0.4938868)
(0 -0.006190981 0.21336818)
(0 0.0015471715 0.17619646)
(0 0.031478295 0.4708284)
(0 0.04049342 0.57340492)
(0 0.036517515 0.56659444)
(0 0.030598714 0.54537454)
(0 0.026634808 0.53370138)
(0 0.023507481 0.52702693)
(0 0.020676604 0.52218054)
(0 0.018151549 0.51844106)
(0 0.015888749 0.51553875)
(0 0.013853749 0.51327144)
(0 0.012015073 0.51148851)
(0 0.010342382 0.51008094)
(0 0.0088093763 0.50896921)
(0 0.0073924802 0.50809462)
(0 0.0060705337 0.50741364)
(0 0.004824516 0.5068941)
(0 0.0036371396 0.50651256)
(0 0.0024924786 0.50625243)
(0 0.0013756053 0.50610275)
(0 0.00027224768 0.50605742)
(0 -0.00083155812 0.5061147)
(0 -0.0019498397 0.50627717)
(0 -0.0030969555 0.50655187)
(0 -0.004288001 0.5069508)
(0 -0.0055391421 0.50749181)
(0 -0.0068679817 0.50819992)
(0 -0.0082939661 0.50910936)
(0 -0.0098387235 0.51026645)
(0 -0.011526321 0.51173375)
(0 -0.01338454 0.51359663)
(0 -0.015443513 0.51597254)
(0 -0.017733905 0.51902009)
(0 -0.020302788 0.52295041)
(0 -0.023157467 0.52823969)
(0 -0.026576964 0.53704354)
(0 -0.031484052 0.55365879)
(0 -0.035826647 0.56234255)
(0 -0.030506645 0.47801989)
(0 -0.0035807586 0.19475209)
(0 7.2584141e-05 0.16260041)
(0 0.025846394 0.45268866)
(0 0.037113997 0.56946353)
(0 0.035140802 0.57098485)
(0 0.02982996 0.54995662)
(0 0.026128909 0.53710904)
(0 0.023262728 0.52990529)
(0 0.020646498 0.52477397)
(0 0.018269845 0.52078502)
(0 0.016104276 0.51765822)
(0 0.014128461 0.51519498)
(0 0.012319495 0.51324314)
(0 0.010654254 0.51169146)
(0 0.0091120746 0.51045827)
(0 0.0076736502 0.50948279)
(0 0.0063211221 0.50871965)
(0 0.005038 0.50813512)
(0 0.003808942 0.50770443)
(0 0.0026195467 0.50741)
(0 0.0014561193 0.50724018)
(0 0.00030543818 0.50718841)
(0 -0.00084548991 0.50725287)
(0 -0.0020097154 0.5074363)
(0 -0.0032005165 0.50774622)
(0 -0.0044317099 0.5081954)
(0 -0.0057178684 0.50880274)
(0 -0.0070745522 0.50959466)
(0 -0.0085185548 0.51060704)
(0 -0.010068086 0.51188813)
(0 -0.011742698 0.51350267)
(0 -0.013564248 0.51553832)
(0 -0.015556025 0.51811483)
(0 -0.017738716 0.52139046)
(0 -0.020144848 0.52557975)
(0 -0.022787961 0.5312862)
(0 -0.025984049 0.54103227)
(0 -0.030471993 0.55793434)
(0 -0.033335878 0.56024368)
(0 -0.025943072 0.46223814)
(0 -0.0017541434 0.17964142)
(0 -0.00072230366 0.15199656)
(0 0.021080996 0.43554869)
(0 0.033766234 0.56397647)
(0 0.033543228 0.5740861)
(0 0.028917289 0.55408461)
(0 0.025465825 0.54025641)
(0 0.022834251 0.53254336)
(0 0.020429211 0.5271789)
(0 0.018208912 0.52299584)
(0 0.016153831 0.5196883)
(0 0.01425319 0.51706294)
(0 0.012491175 0.51496834)
(0 0.010850835 0.51329263)
(0 0.0093164811 0.51195319)
(0 0.0078727702 0.51088822)
(0 0.0065050436 0.51005136)
(0 0.0051993651 0.50940793)
(0 0.0039424458 0.50893235)
(0 0.0027215656 0.50860638)
(0 0.0015244486 0.50841788)
(0 0.00033912407 0.50836003)
(0 -0.00084622241 0.50843089)
(0 -0.0020434554 0.50863336)
(0 -0.0032645718 0.50897525)
(0 -0.0045219234 0.50946987)
(0 -0.0058283328 0.51013682)
(0 -0.0071972129 0.51100337)
(0 -0.0086426762 0.5121064)
(0 -0.010179614 0.51349522)
(0 -0.01182342 0.51523569)
(0 -0.013590618 0.51741646)
(0 -0.015498447 0.5201577)
(0 -0.017559443 0.5236154)
(0 -0.019795236 0.52801524)
(0 -0.022231786 0.53411295)
(0 -0.025208174 0.54467957)
(0 -0.029214711 0.56120894)
(0 -0.030687637 0.55666384)
(0 -0.021836276 0.4469802)
(0 -0.00055282968 0.16744915)
(0 -0.0010745593 0.14368778)
(0 0.017172895 0.41962294)
(0 0.030605642 0.55740351)
(0 0.031842609 0.57601978)
(0 0.027934632 0.55775092)
(0 0.024718926 0.54316924)
(0 0.022288358 0.53496373)
(0 0.020080257 0.52940116)
(0 0.018014406 0.52506941)
(0 0.01607433 0.52161949)
(0 0.014257345 0.51886272)
(0 0.012553233 0.51664999)
(0 0.010950075 0.51486976)
(0 0.009436367 0.51343932)
(0 0.0080002658 0.51229666)
(0 0.0066300471 0.51139503)
(0 0.0053142044 0.51069934)
(0 0.0040414785 0.5101836)
(0 0.0028008733 0.5098292)
(0 0.001581615 0.50962372)
(0 0.00037309182 0.50956017)
(0 -0.00083521376 0.50963657)
(0 -0.0020538613 0.50985588)
(0 -0.0032934598 0.51022612)
(0 -0.0045648139 0.51076086)
(0 -0.0058789558 0.51148011)
(0 -0.0072471791 0.51241156)
(0 -0.0086810405 0.51359253)
(0 -0.010192369 0.51507275)
(0 -0.011792892 0.51691837)
(0 -0.01349457 0.51921814)
(0 -0.015309498 0.52209128)
(0 -0.017243751 0.52569084)
(0 -0.019312083 0.5302637)
(0 -0.021557683 0.53673147)
(0 -0.024322383 0.54796539)
(0 -0.027813786 0.56352703)
(0 -0.028052352 0.55196545)
(0 -0.018260278 0.4325112)
(0 0.00018155239 0.15762948)
(0 -0.0011577312 0.13712284)
(0 0.014044562 0.40499215)
(0 0.027712179 0.5501195)
(0 0.030126878 0.57693376)
(0 0.026934253 0.56096209)
(0 0.023941024 0.54587135)
(0 0.02167677 0.53719326)
(0 0.019644689 0.53145378)
(0 0.017724538 0.52700891)
(0 0.015897764 0.52344911)
(0 0.014167294 0.52058784)
(0 0.012527074 0.51827916)
(0 0.010969099 0.51641248)
(0 0.0094852468 0.51490559)
(0 0.0080666344 0.51369674)
(0 0.0067041153 0.51273929)
(0 0.0053883951 0.5119981)
(0 0.0041101292 0.51144708)
(0 0.0028599995 0.5110675)
(0 0.0016287355 0.51084684)
(0 0.00040711323 0.51077802)
(0 -0.00081404599 0.51085905)
(0 -0.0020439545 0.51109289)
(0 -0.0032918067 0.51148765)
(0 -0.0045668617 0.51205703)
(0 -0.0058784107 0.51282114)
(0 -0.0072357497 0.51380778)
(0 -0.0086481041 0.51505428)
(0 -0.010124591 0.51661028)
(0 -0.011673829 0.51854169)
(0 -0.013304044 0.52093671)
(0 -0.01502318 0.52391272)
(0 -0.016832508 0.52762034)
(0 -0.018743778 0.53233866)
(0 -0.020819991 0.53915567)
(0 -0.023383689 0.55088332)
(0 -0.026351542 0.56497176)
(0 -0.025541119 0.54646704)
(0 -0.0152266 0.41897963)
(0 0.00058707136 0.1497199)
(0 -0.0010901487 0.13186223)
(0 0.011585327 0.39164803)
(0 0.02511359 0.54241868)
(0 0.028454726 0.57698277)
(0 0.025949394 0.56373792)
(0 0.023167291 0.54838548)
(0 0.021037836 0.53926028)
(0 0.019157805 0.53335405)
(0 0.017370398 0.5288222)
(0 0.015651065 0.52517917)
(0 0.01400592 0.52223625)
(0 0.012431796 0.51985093)
(0 0.010923596 0.517914)
(0 0.0094758051 0.51634398)
(0 0.0080819463 0.51507972)
(0 0.0067350554 0.51407498)
(0 0.0054277807 0.51329484)
(0 0.0041525176 0.51271336)
(0 0.002901518 0.51231185)
(0 0.0016669532 0.51207779)
(0 0.00044095436 0.51200414)
(0 -0.00078433825 0.51208885)
(0 -0.0020168096 0.51233492)
(0 -0.0032642751 0.51275043)
(0 -0.0045345141 0.51334904)
(0 -0.0058351901 0.51415078)
(0 -0.0071737858 0.5151833)
(0 -0.0085574774 0.51648367)
(0 -0.009993073 0.51810109)
(0 -0.011486653 0.52010087)
(0 -0.013043529 0.52257024)
(0 -0.014668485 0.52562425)
(0 -0.016359579 0.52941291)
(0 -0.018128831 0.53425807)
(0 -0.02005911 0.54140198)
(0 -0.022433447 0.55344115)
(0 -0.024888883 0.56564823)
(0 -0.023216462 0.5404352)
(0 -0.012705525 0.40644793)
(0 0.00077279623 0.14332646)
(0 -0.0009482564 0.12756055)
(0 0.0096764131 0.37952499)
(0 0.02280633 0.53452207)
(0 0.026861223 0.57631237)
(0 0.02499863 0.56610577)
(0 0.022418765 0.55073221)
(0 0.02039804 0.54119231)
(0 0.018645896 0.53512148)
(0 0.016976332 0.53052019)
(0 0.015356164 0.52681489)
(0 0.013792471 0.52380911)
(0 0.012283921 0.52136351)
(0 0.010827477 0.51937034)
(0 0.009419539 0.51774903)
(0 0.0080555086 0.51643912)
(0 0.006730206 0.51539495)
(0 0.0054379328 0.514582)
(0 0.0041726162 0.51397461)
(0 0.0029279304 0.51355426)
(0 0.0016973835 0.51330855)
(0 0.00047438368 0.51323046)
(0 -0.00074767619 0.51331797)
(0 -0.0019754203 0.51357404)
(0 -0.0032153672 0.51400666)
(0 -0.004473927 0.51462937)
(0 -0.0057572915 0.51546197)
(0 -0.007071349 0.5165318)
(0 -0.0084215355 0.51787545)
(0 -0.0098127642 0.5195415)
(0 -0.01124913 0.52159446)
(0 -0.01273377 0.5241204)
(0 -0.014269204 0.52723194)
(0 -0.015851739 0.53108126)
(0 -0.01749615 0.53604211)
(0 -0.019302977 0.54348775)
(0 -0.021499498 0.55565647)
(0 -0.023467647 0.56566712)
(0 -0.021106284 0.53408223)
(0 -0.010644473 0.39491626)
(0 0.00081902773 0.13811616)
(0 -0.00077955026 0.12395696)
(0 0.0082051714 0.36852661)
(0 0.020770041 0.5265898)
(0 0.025364133 0.57505095)
(0 0.024090585 0.56809544)
(0 0.021706391 0.55292839)
(0 0.019774341 0.54301383)
(0 0.018127562 0.53677568)
(0 0.016560643 0.53211523)
(0 0.015030295 0.52836342)
(0 0.013542618 0.52530978)
(0 0.012097308 0.52281732)
(0 0.010692714 0.52077975)
(0 0.0093265592 0.51911734)
(0 0.007995659 0.51777038)
(0 0.0066962457 0.51669381)
(0 0.0054239876 0.51585363)
(0 0.0041741239 0.51522449)
(0 0.0029415822 0.51478817)
(0 0.0017210753 0.5145324)
(0 0.00050717949 0.51445026)
(0 -0.00070555835 0.51453973)
(0 -0.0019226007 0.51480372)
(0 -0.0031492822 0.5152501)
(0 -0.0043907831 0.5158922)
(0 -0.005652002 0.51674952)
(0 -0.0069374665 0.51784896)
(0 -0.0082511799 0.51922657)
(0 -0.0095965563 0.52093019)
(0 -0.010976203 0.52302351)
(0 -0.01239171 0.52559133)
(0 -0.0138441 0.5287442)
(0 -0.015329222 0.5326399)
(0 -0.016866276 0.5377108)
(0 -0.018569581 0.54542924)
(0 -0.020599178 0.55755189)
(0 -0.022114211 0.56513402)
(0 -0.019215538 0.52757096)
(0 -0.0089806296 0.38434485)
(0 0.00078227292 0.13381698)
(0 -0.00061202273 0.12086144)
(0 0.007072422 0.35854459)
(0 0.018976618 0.51873474)
(0 0.023969194 0.57330811)
(0 0.023227537 0.56973651)
(0 0.021034413 0.55498683)
(0 0.019176621 0.54474509)
(0 0.017615325 0.53833483)
(0 0.0161366 0.53361978)
(0 0.014686568 0.52983272)
(0 0.013268753 0.52674286)
(0 0.011883268 0.52421429)
(0 0.010529332 0.52214205)
(0 0.0092055208 0.52044713)
(0 0.0079096664 0.51907049)
(0 0.0066390858 0.51796766)
(0 0.0053905473 0.51710515)
(0 0.0041603865 0.51645801)
(0 0.0029446089 0.51600828)
(0 0.001738986 0.5157439)
(0 0.00053913604 0.51565805)
(0 -0.00065935824 0.51574872)
(0 -0.0018609169 0.51601875)
(0 -0.0030698219 0.51647586)
(0 -0.0042901762 0.51713314)
(0 -0.005525772 0.51800974)
(0 -0.0067800066 0.51913209)
(0 -0.0080557386 0.52053565)
(0 -0.0093552391 0.52226757)
(0 -0.010680053 0.52439069)
(0 -0.012030743 0.52698867)
(0 -0.013407452 0.53017053)
(0 -0.014806675 0.53410345)
(0 -0.016252979 0.53928233)
(0 -0.017869446 0.54724063)
(0 -0.019741975 0.55915207)
(0 -0.020842851 0.5641444)
(0 -0.017534834 0.52102299)
(0 -0.0076492544 0.37467166)
(0 0.00070095429 0.13021397)
(0 -0.00046060004 0.11813895)
(0 0.0061955932 0.34947007)
(0 0.01739584 0.51103416)
(0 0.022674377 0.57117583)
(0 0.022407931 0.57105724)
(0 0.020402776 0.55691684)
(0 0.018609701 0.54640202)
(0 0.017117104 0.53981487)
(0 0.015713468 0.53504558)
(0 0.014334662 0.53123081)
(0 0.012980415 0.5281135)
(0 0.011650806 0.52555722)
(0 0.01034553 0.52345814)
(0 0.0090636566 0.52173778)
(0 0.0078037171 0.52033763)
(0 0.0065638327 0.51921378)
(0 0.005341635 0.51833318)
(0 0.0041343552 0.51767129)
(0 0.0029389055 0.51721042)
(0 0.001751968 0.51693872)
(0 0.00057006856 0.51684945)
(0 -0.00061030116 0.51694064)
(0 -0.0017926473 0.51721504)
(0 -0.0029803379 0.51768023)
(0 -0.0041765539 0.51834903)
(0 -0.0053841638 0.51924022)
(0 -0.0066056497 0.52037978)
(0 -0.007842984 0.5218026)
(0 -0.0090976004 0.52355518)
(0 -0.010370335 0.52569967)
(0 -0.011661127 0.52831867)
(0 -0.012969731 0.53152058)
(0 -0.014294183 0.5354857)
(0 -0.015664726 0.54077241)
(0 -0.01720763 0.54893382)
(0 -0.018931661 0.56048198)
(0 -0.019658825 0.56278178)
(0 -0.016046754 0.51452687)
(0 -0.0065891191 0.36582409)
(0 0.00060026167 0.12714099)
(0 -0.00033175091 0.11569546)
(0 0.0055089568 0.34119985)
(0 0.01599868 0.503539)
(0 0.021473256 0.56873057)
(0 0.021628179 0.57208404)
(0 0.019808838 0.55872497)
(0 0.018074907 0.54799656)
(0 0.016637424 0.54122935)
(0 0.01529741 0.53640322)
(0 0.013981493 0.53256527)
(0 0.012684762 0.52942691)
(0 0.011406923 0.52684938)
(0 0.010147862 0.5247296)
(0 0.0089068807 0.52298949)
(0 0.0076829618 0.52157093)
(0 0.0064748013 0.52043042)
(0 0.0052806901 0.51953533)
(0 0.0040985756 0.51886146)
(0 0.0029261172 0.5183914)
(0 0.0017607638 0.51811347)
(0 0.00059981686 0.51802105)
(0 -0.00055945236 0.51811217)
(0 -0.0017197657 0.51838952)
(0 -0.0028837139 0.5188605)
(0 -0.0040537065 0.51953768)
(0 -0.0052318582 0.52043952)
(0 -0.0064199298 0.52159155)
(0 -0.00761923 0.52302816)
(0 -0.0088306093 0.52479531)
(0 -0.010054474 0.52695458)
(0 -0.011290449 0.52958774)
(0 -0.012538277 0.53280358)
(0 -0.013798197 0.53679906)
(0 -0.015105941 0.54219406)
(0 -0.016585318 0.55051857)
(0 -0.01816808 0.56156567)
(0 -0.018561212 0.56111752)
(0 -0.014730325 0.50814519)
(0 -0.0057456237 0.35772652)
(0 0.00049595761 0.12447174)
(0 -0.00022680703 0.11346674)
(0 0.0049620354 0.33363971)
(0 0.014758953 0.49628109)
(0 0.020357427 0.56603558)
(0 0.020883919 0.57284117)
(0 0.019248611 0.56041561)
(0 0.017571306 0.54953727)
(0 0.016178384 0.54258939)
(0 0.014892249 0.53770198)
(0 0.013631798 0.53384303)
(0 0.012387002 0.53068811)
(0 0.011156929 0.52809414)
(0 0.0099414529 0.52595841)
(0 0.0087399279 0.52420305)
(0 0.0075516024 0.52277017)
(0 0.0063755639 0.52161657)
(0 0.0052105939 0.52070997)
(0 0.0040551993 0.52002645)
(0 0.0029076435 0.51954885)
(0 0.0017660091 0.51926564)
(0 0.00062824679 0.51917029)
(0 -0.00050771614 0.51926084)
(0 -0.0016439422 0.51953992)
(0 -0.0027823741 0.52001477)
(0 -0.0039247897 0.52069774)
(0 -0.0050727028 0.52160697)
(0 -0.0062273212 0.52276761)
(0 -0.0073894761 0.52421364)
(0 -0.0085596373 0.52599061)
(0 -0.0097379916 0.52815965)
(0 -0.010924084 0.530802)
(0 -0.012117913 0.53402799)
(0 -0.013322374 0.5380543)
(0 -0.014578105 0.54355765)
(0 -0.016001128 0.55200258)
(0 -0.017448634 0.56242553)
(0 -0.017545283 0.55921155)
(0 -0.01356391 0.50192067)
(0 -0.005072104 0.35030493)
(0 0.00039726559 0.12211181)
(0 -0.00014423527 0.11140962)
(0 0.0045171742 0.32670582)
(0 0.013653892 0.48927874)
(0 0.019318056 0.56314326)
(0 0.020170793 0.57335087)
(0 0.018717606 0.5619916)
(0 0.017096629 0.55102983)
(0 0.015740441 0.54390389)
(0 0.014500093 0.53894982)
(0 0.013288651 0.53507024)
(0 0.012090795 0.53190174)
(0 0.010904745 0.52929483)
(0 0.0097302177 0.52714671)
(0 0.0085665089 0.52537958)
(0 0.0074129972 0.52393562)
(0 0.0062690204 0.52277182)
(0 0.0051337131 0.52185614)
(0 0.0040060103 0.52116489)
(0 0.0028846533 0.5206811)
(0 0.0017682385 0.52039339)
(0 0.00065525076 0.5202953)
(0 -0.00045584177 0.52038488)
(0 -0.0015665574 0.52066468)
(0 -0.00267831 0.52114183)
(0 -0.0037923704 0.52182845)
(0 -0.0049097852 0.52274244)
(0 -0.0060313509 0.52390863)
(0 -0.0071575716 0.52536069)
(0 -0.0082886929 0.52714386)
(0 -0.0094248347 0.52931901)
(0 -0.010565625 0.53196713)
(0 -0.011711518 0.53520133)
(0 -0.012868309 0.53926046)
(0 -0.014080675 0.54487107)
(0 -0.015452115 0.55339179)
(0 -0.016769375 0.56308193)
(0 -0.016604245 0.55711377)
(0 -0.012526933 0.49588133)
(0 -0.0045300169 0.34348981)
(0 0.00030902845 0.11999178)
(0 -8.1117423e-05 0.10949528)
(0 0.0041469556 0.32032495)
(0 0.012664127 0.48254093)
(0 0.018346758 0.56009725)
(0 0.019484855 0.57363355)
(0 0.018211372 0.56345478)
(0 0.016647939 0.55247766)
(0 0.015322987 0.54517971)
(0 0.01412184 0.54015338)
(0 0.012953883 0.53625222)
(0 0.011798596 0.53307195)
(0 0.010653171 0.53045455)
(0 0.0095170701 0.52829668)
(0 0.0083894662 0.52652041)
(0 0.0072697748 0.52506788)
(0 0.0061574779 0.52389616)
(0 0.005051955 0.52297333)
(0 0.00395246 0.5222759)
(0 0.0028581054 0.52178703)
(0 0.0017678958 0.52149547)
(0 0.00068074709 0.52139479)
(0 -0.00040443421 0.52148307)
(0 -0.0014887263 0.52176279)
(0 -0.0025731196 0.52224097)
(0 -0.0036584871 0.52292955)
(0 -0.0047455212 0.52384622)
(0 -0.0058347231 0.52501559)
(0 -0.0069263882 0.52647109)
(0 -0.0080206539 0.5282578)
(0 -0.0091176766 0.53043648)
(0 -0.01021728 0.53308817)
(0 -0.011320513 0.53633004)
(0 -0.01243614 0.54042487)
(0 -0.013611814 0.54614002)
(0 -0.014934514 0.55469061)
(0 -0.016125788 0.56355322)
(0 -0.015730452 0.55486554)
(0 -0.011600774 0.49004447)
(0 -0.0040884237 0.33721771)
(0 0.0002332383 0.11806144)
(0 -3.40749e-05 0.10770434)
(0 0.0038318075 0.31443384)
(0 0.011773383 0.47607031)
(0 0.01743601 0.5569342)
(0 0.018822735 0.57370809)
(0 0.017725785 0.56480644)
(0 0.016222056 0.55388244)
(0 0.014924771 0.54642201)
(0 0.013757563 0.54131815)
(0 0.012628428 0.53739353)
(0 0.011511945 0.53420238)
(0 0.010404127 0.53157616)
(0 0.0093041127 0.5294104)
(0 0.0082109225 0.52762695)
(0 0.0071239465 0.52616776)
(0 0.0060427342 0.52498986)
(0 0.0049668263 0.52406143)
(0 0.0038957078 0.52335904)
(0 0.0028287727 0.52286599)
(0 0.0017653436 0.52257109)
(0 0.00070467822 0.52246797)
(0 -0.00035396885 0.52255469)
(0 -0.0014113267 0.52283369)
(0 -0.0024680531 0.52331188)
(0 -0.0035247167 0.5240011)
(0 -0.0045817482 0.52491887)
(0 -0.0056394465 0.52608961)
(0 -0.0066979881 0.52754665)
(0 -0.0077574848 0.52933502)
(0 -0.0088181945 0.53151548)
(0 -0.0098802102 0.53416951)
(0 -0.010945272 0.53741955)
(0 -0.012025032 0.54155328)
(0 -0.013168934 0.54736839)
(0 -0.014444248 0.55590233)
(0 -0.015513293 0.56385591)
(0 -0.014916212 0.55250122)
(0 -0.010769116 0.48441975)
(0 -0.0037230807 0.33143188)
(0 0.00017010518 0.11628486)
(0 1.891603e-07 0.10602339)
(0 0.0035579649 0.30897829)
(0 0.010968056 0.46986536)
(0 0.016579296 0.55368509)
(0 0.018181657 0.57359213)
(0 0.017257189 0.5660477)
(0 0.015815827 0.5552446)
(0 0.014544191 0.5476345)
(0 0.013406793 0.54244856)
(0 0.012312584 0.53849801)
(0 0.011231702 0.5352962)
(0 0.010158854 0.53266219)
(0 0.0090928041 0.53048983)
(0 0.0080324149 0.5287006)
(0 0.0069770118 0.52723616)
(0 0.005926158 0.52605343)
(0 0.0048794925 0.52512056)
(0 0.0038366613 0.52441419)
(0 0.0027972671 0.52391766)
(0 0.001760875 0.52361984)
(0 0.00072700794 0.52351438)
(0 -0.00030480794 0.52359934)
(0 -0.0013350302 0.52387713)
(0 -0.0023640618 0.52435458)
(0 -0.0033922429 0.52504343)
(0 -0.0044198183 0.52596108)
(0 -0.0054469565 0.52713189)
(0 -0.0064737801 0.52858911)
(0 -0.0075004321 0.53037785)
(0 -0.0085273069 0.53255901)
(0 -0.0095548106 0.53521487)
(0 -0.010585441 0.53847427)
(0 -0.011633536 0.54265007)
(0 -0.012749081 0.54855857)
(0 -0.013977266 0.55702937)
(0 -0.01492757 0.56400487)
(0 -0.014154276 0.55004941)
(0 -0.010017967 0.47901152)
(0 -0.0034153691 0.32608228)
(0 0.00011880176 0.11463653)
(0 2.4610625e-05 0.10444276)
(0 0.0033158309 0.30391202)
(0 0.010236779 0.46392188)
(0 0.01577106 0.55037637)
(0 0.017559381 0.5733022)
(0 0.016802438 0.56717977)
(0 0.015426273 0.55656369)
(0 0.014179475 0.54881975)
(0 0.01306872 0.54354817)
(0 0.012006213 0.53956887)
(0 0.010958233 0.53635609)
(0 0.0099180754 0.53371489)
(0 0.0088841004 0.53153678)
(0 0.0078550133 0.52974274)
(0 0.006830054 0.52827407)
(0 0.0058087638 0.52708749)
(0 0.0047908336 0.52615107)
(0 0.0037760161 0.52544145)
(0 0.0027640641 0.52494198)
(0 0.0017547233 0.52464156)
(0 0.00074771837 0.52453386)
(0 -0.00025721738 0.52461693)
(0 -0.0012603347 0.52489313)
(0 -0.0022618453 0.52536926)
(0 -0.0032619234 0.52605699)
(0 -0.0042606864 0.52697365)
(0 -0.0052582265 0.52814359)
(0 -0.0062546587 0.52960008)
(0 -0.0072501914 0.53138838)
(0 -0.0082453713 0.53356965)
(0 -0.0092409397 0.53622736)
(0 -0.010240192 0.53949778)
(0 -0.01125986 0.54371841)
(0 -0.012349212 0.54971176)
(0 -0.01352976 0.55807359)
(0 -0.01436473 0.56401357)
(0 -0.013438096 0.5475341)
(0 -0.0093354877 0.47382047)
(0 -0.0031512275 0.32112525)
(0 7.7971159e-05 0.1130984)
(0 4.1655578e-05 0.10295494)
(0 0.0030987236 0.29919555)
(0 0.0095700146 0.45823398)
(0 0.015006592 0.54703071)
(0 0.016954106 0.57285395)
(0 0.016358876 0.56820408)
(0 0.015050667 0.55783873)
(0 0.013828812 0.54997938)
(0 0.012742336 0.54461978)
(0 0.011708889 0.54060876)
(0 0.010691549 0.53738435)
(0 0.0096821345 0.53473619)