/*--------------------------------*- C++ -*----------------------------------*\
  =========                 |
  \\      /  F ield         | OpenFOAM: The Open Source CFD Toolbox
   \\    /   O peration     | Website:  https://openfoam.org
    \\  /    A nd           | Version:  10
     \\/     M anipulation  |
\*---------------------------------------------------------------------------*/
FoamFile
{
    format      ascii;
    class       surfaceScalarField;
    location    "0.21";
    object      phi;
}
// * * * * * * * * * * * * * * * * * * * * * * * * * * * * * * * * * * * * * //

dimensions      [1 0 -1 0 0 0 0];

internalField   nonuniform List<scalar> 
7860
(
3.9895902e-08
5.2881213e-07
1.2192674e-08
5.9641103e-07
7.4278578e-09
5.7347256e-07
5.4993756e-09
5.7063619e-07
4.114957e-09
5.7009209e-07
3.20111e-09
5.696215e-07
2.5591239e-09
5.6934962e-07
2.0793055e-09
5.6918744e-07
1.7093261e-09
5.6907759e-07
1.416662e-09
5.6900026e-07
1.1795178e-09
5.6894473e-07
9.8313014e-10
5.6890397e-07
8.1715546e-10
5.6887355e-07
6.7410334e-10
5.6885062e-07
5.4840039e-10
5.6883327e-07
4.3578585e-10
5.6882018e-07
3.3290585e-10
5.6881044e-07
2.3703301e-10
5.6880343e-07
1.4586412e-10
5.6879873e-07
5.7368011e-11
5.6879606e-07
-3.0338306e-11
5.6879527e-07
-1.1909712e-10
5.6879632e-07
-2.1081502e-10
5.6879928e-07
-3.0756965e-10
5.6880432e-07
-4.1174183e-10
5.6881173e-07
-5.2617869e-10
5.68822e-07
-6.5441434e-10
5.688358e-07
-8.009827e-10
5.6885414e-07
-9.7187821e-10
5.6887847e-07
-1.1752623e-09
5.6891097e-07
-1.4226368e-09
5.6895496e-07
-1.7308133e-09
5.6901577e-07
-2.1247706e-09
5.6910156e-07
-2.6443905e-09
5.6922724e-07
-3.372087e-09
5.6943533e-07
-4.4634146e-09
5.6979898e-07
-6.0087921e-09
5.7025305e-07
-9.5078226e-09
5.7220674e-07
-2.9575607e-08
5.8877554e-07
5.3913232e-07
5.9672313e-08
4.6913982e-07
3.6665758e-08
6.1941758e-07
2.2627963e-08
5.8751036e-07
1.6253378e-08
5.7701077e-07
1.2290329e-08
5.7405514e-07
9.6061007e-09
5.7230573e-07
7.6773495e-09
5.7127837e-07
6.2360393e-09
5.7062875e-07
5.126573e-09
5.7018705e-07
4.2488776e-09
5.6987796e-07
3.5376177e-09
5.6965599e-07
2.9486239e-09
5.6949296e-07
2.4508503e-09
5.6937133e-07
2.0218209e-09
5.6927965e-07
1.6448202e-09
5.6921027e-07
1.3070702e-09
5.6915793e-07
9.9851289e-10
5.69119e-07
7.1096902e-10
5.6909098e-07
4.3753206e-10
5.6907217e-07
1.7210952e-10
5.6906148e-07
-9.0945763e-11
5.6905832e-07
-3.5715786e-10
5.6906253e-07
-6.3223971e-10
5.6907436e-07
-9.2242461e-10
5.690945e-07
-1.2348524e-09
5.6912416e-07
-1.5780612e-09
5.6916521e-07
-1.9626489e-09
5.6922039e-07
-2.4022125e-09
5.692937e-07
-2.9147361e-09
5.69391e-07
-3.5247127e-09
5.6952094e-07
-4.2665625e-09
5.6969681e-07
-5.1906517e-09
5.6993986e-07
-6.373606e-09
5.7028452e-07
-7.9341445e-09
5.7078778e-07
-1.0075491e-08
5.7157668e-07
-1.3203774e-08
5.7292726e-07
-1.8133764e-08
5.7518304e-07
-2.8176052e-08
5.8224903e-07
-4.5802133e-08
6.0640162e-07
4.9333018e-07
6.0008519e-08
4.091313e-07
5.0486837e-08
6.2893926e-07
3.3370284e-08
6.0462691e-07
2.4817316e-08
5.8556374e-07
1.9322921e-08
5.7954954e-07
1.5331226e-08
5.7629742e-07
1.2360515e-08
5.7424908e-07
1.0101432e-08
5.7288783e-07
8.3405995e-09
5.7194788e-07
6.9348968e-09
5.7128366e-07
5.7882435e-09
5.7080265e-07
4.8338733e-09
5.7044733e-07
4.0240207e-09
5.7018118e-07
3.3236987e-09
5.6997998e-07
2.7066424e-09
5.6982733e-07
2.1526182e-09
5.6971195e-07
1.6455993e-09
5.6962602e-07
1.1724848e-09
5.6956409e-07
7.2216612e-10
5.6952248e-07
2.8481348e-10
5.6949883e-07
-1.4870118e-10
5.6949183e-07
-5.8731028e-10
5.6950114e-07
-1.0402439e-09
5.6952729e-07
-1.5175501e-09
5.6957181e-07
-2.0306971e-09
5.6963731e-07
-2.5933334e-09
5.6972785e-07
-3.2222994e-09
5.6984936e-07
-3.9390378e-09
5.7001044e-07
-4.7716444e-09
5.702236e-07
-5.757931e-09
5.7050723e-07
-6.9500845e-09
5.7088897e-07
-8.4223048e-09
5.7141208e-07
-1.0283992e-08
5.721462e-07
-1.269702e-08
5.732008e-07
-1.5894551e-08
5.7477421e-07
-2.0238477e-08
5.7727119e-07
-2.6706909e-08
5.8165148e-07
-3.8946455e-08
5.9448857e-07
-4.8166093e-08
6.1562126e-07
4.4516409e-07
5.4878644e-08
3.5425267e-07
5.7451498e-08
6.2636641e-07
4.0466913e-08
6.2161149e-07
3.0778177e-08
5.9525247e-07
2.4642514e-08
5.856852e-07
1.9951827e-08
5.8098811e-07
1.6312565e-08
5.7788834e-07
1.346627e-08
5.7573413e-07
1.1200824e-08
5.7421333e-07
9.3645223e-09
5.7311996e-07
7.8494784e-09
5.7231769e-07
6.5772028e-09
5.7171961e-07
5.4898475e-09
5.7126853e-07
4.5440987e-09
5.7092572e-07
3.7068598e-09
5.7066457e-07
2.9522721e-09
5.7046654e-07
2.2596162e-09
5.7031867e-07
1.6117949e-09
5.7021191e-07
9.9420127e-10
5.7014008e-07
3.9383876e-10
5.7009919e-07
-2.0140207e-10
5.7008708e-07
-8.0338344e-10
5.7010312e-07
-1.4243417e-09
5.7014825e-07
-2.0775415e-09
5.7022501e-07
-2.7780267e-09
5.7033779e-07
-3.5435478e-09
5.7049337e-07
-4.3957699e-09
5.7070158e-07
-5.3619047e-09
5.7097658e-07
-6.4769916e-09
5.7133869e-07
-7.7871583e-09
5.718174e-07
-9.3541872e-09
5.7245599e-07
-1.1261901e-08
5.733198e-07
-1.3626567e-08
5.7451087e-07
-1.6609532e-08
5.7618377e-07
-2.0408575e-08
5.7857325e-07
-2.5290372e-08
5.8215298e-07
-3.2514774e-08
5.8887588e-07
-4.5098463e-08
6.0707226e-07
-4.6547759e-08
6.1707055e-07
3.9861633e-07
4.7965269e-08
3.0628741e-07
6.0075572e-08
6.1425611e-07
4.5399203e-08
6.3628786e-07
3.4874501e-08
6.0577718e-07
2.8399061e-08
5.9216064e-07
2.3418903e-08
5.8596827e-07
1.9433695e-08
5.8187355e-07
1.6228697e-08
5.7893912e-07
1.3619392e-08
5.7682263e-07
1.146637e-08
5.7527298e-07
9.6645039e-09
5.7411956e-07
8.1337522e-09
5.7325036e-07
6.8130896e-09
5.725892e-07
5.6555017e-09
5.7208331e-07
4.624211e-09
5.7169586e-07
3.6899288e-09
5.7140082e-07
2.8288139e-09
5.7117979e-07
2.0209344e-09
5.7101979e-07
1.249083e-09
5.7091193e-07
4.9783152e-10
5.7085044e-07
-2.4726149e-10
5.7083217e-07
-1.0003612e-09
5.7085622e-07
-1.7760465e-09
5.7092394e-07
-2.5900329e-09
5.7103899e-07
-3.4599881e-09
5.7120775e-07
-4.4065161e-09
5.714399e-07
-5.4543973e-09
5.7174946e-07
-6.6341973e-09
5.7215638e-07
-7.9843946e-09
5.7268889e-07
-9.5542537e-09
5.7338725e-07
-1.1407601e-08
5.7430934e-07
-1.3627251e-08
5.7553944e-07
-1.6321507e-08
5.7720513e-07
-1.9633976e-08
5.7949624e-07
-2.3734929e-08
5.826742e-07
-2.8927263e-08
5.8734532e-07
-3.6787633e-08
5.9673625e-07
-4.8460415e-08
6.1874504e-07
-4.319223e-08
6.1180237e-07
3.554241e-07
4.0335479e-08
2.6595195e-07
5.8992861e-08
5.9559875e-07
4.8328795e-08
6.4695192e-07
3.7586919e-08
6.1651905e-07
3.0927824e-08
5.9881973e-07
2.5893042e-08
5.9100305e-07
2.1779197e-08
5.859874e-07
1.8391433e-08
5.8232689e-07
1.5577091e-08
5.7963698e-07
1.3214119e-08
5.7763595e-07
1.1206577e-08
5.761271e-07
9.4791711e-09
5.7497777e-07
7.9727555e-09
5.7409561e-07
6.6404238e-09
5.7341564e-07
5.4445462e-09
5.7289173e-07
4.3545023e-09
5.7249087e-07
3.3449009e-09
5.7218939e-07
2.3941811e-09
5.7197051e-07
1.4834938e-09
5.7182262e-07
5.9578174e-10
5.7173816e-07
-2.8501132e-10
5.7171296e-07
-1.1746578e-09
5.7174587e-07
-2.0893488e-09
5.7183863e-07
-3.0464228e-09
5.7199607e-07
-4.065171e-09
5.722265e-07
-5.1677838e-09
5.7254251e-07
-6.3805025e-09
5.7296218e-07
-7.7350538e-09
5.7351093e-07
-9.2704474e-09
5.7422428e-07
-1.1035284e-08
5.7515209e-07
-1.3090787e-08
5.7636484e-07
-1.5514226e-08
5.7796288e-07
-1.8403004e-08
5.800939e-07
-2.18813e-08
5.8297453e-07
-2.6104907e-08
5.8689781e-07
-3.1483289e-08
5.927237e-07
-3.9649662e-08
6.0490262e-07
-4.9167859e-08
6.2826324e-07
-3.8576026e-08
6.0121054e-07
3.1684807e-07
3.2862054e-08
2.3308993e-07
5.5248469e-08
5.7321236e-07
4.9230504e-08
6.5296988e-07
3.9059934e-08
6.2668961e-07
3.2429221e-08
6.0545044e-07
2.7517469e-08
5.959148e-07
2.34376e-08
5.9006726e-07
2.0002042e-08
5.8576244e-07
1.709424e-08
5.8254478e-07
1.4611967e-08
5.8011823e-07
1.2471433e-08
5.7826763e-07
1.0605386e-08
5.7684381e-07
8.9595799e-09
5.7574142e-07
7.4898204e-09
5.748854e-07
6.1597738e-09
5.7422178e-07
4.9392106e-09
5.7371143e-07
3.8025622e-09
5.7332604e-07
2.7277445e-09
5.7304533e-07
1.6951812e-09
5.7285518e-07
6.8697327e-10
5.7274636e-07
-3.1383348e-10
5.7271377e-07
-1.3239223e-09
5.7275595e-07
-2.3603718e-09
5.7287508e-07
-3.4413387e-09
5.7307703e-07
-4.5867998e-09
5.7337196e-07
-5.8193991e-09
5.7377511e-07
-7.1654445e-09
5.7430822e-07
-8.6561091e-09
5.7500159e-07
-1.0328881e-08
5.7589705e-07
-1.2229339e-08
5.7705255e-07
-1.4413543e-08
5.7854905e-07
-1.6950923e-08
5.8050026e-07
-1.9926326e-08
5.8306931e-07
-2.3440535e-08
5.8648874e-07
-2.7634974e-08
5.9109225e-07
-3.3027961e-08
5.9811669e-07
-4.1004267e-08
6.1287893e-07
-4.7682053e-08
6.3494103e-07
-3.3373254e-08
5.8690174e-07
2.8347482e-07
2.6188267e-08
2.0690169e-07
5.013081e-08
5.4926985e-07
4.8491288e-08
6.5460941e-07
3.9488948e-08
6.3569195e-07
3.307555e-08
6.1186384e-07
2.8410319e-08
6.0058003e-07
2.4491439e-08
5.9398614e-07
2.1117063e-08
5.8913682e-07
1.8206303e-08
5.8545554e-07
1.5679928e-08
5.826446e-07
1.3468799e-08
5.8047876e-07
1.1515733e-08
5.7879688e-07
9.7732113e-09
5.7748394e-07
8.2014389e-09
5.7645718e-07
6.7668805e-09
5.7565634e-07
5.4409866e-09
5.7503732e-07
4.1991059e-09
5.7456792e-07
3.0195615e-09
5.7422487e-07
1.8828539e-09
5.7399189e-07
7.7095737e-10
5.7385826e-07
-3.3331609e-10
5.7381804e-07
-1.4469128e-09
5.7386955e-07
-2.58713e-09
5.7401529e-07
-3.7722191e-09
5.7426212e-07
-5.0220276e-09
5.7462177e-07
-6.3587146e-09
5.7511179e-07
-7.8075627e-09
5.7575707e-07
-9.3979253e-09
5.7659195e-07
-1.1164334e-08
5.7766346e-07
-1.3147769e-08
5.7903598e-07
-1.5397305e-08
5.8079858e-07
-1.7972232e-08
5.8307519e-07
-2.0942009e-08
5.8603908e-07
-2.4381836e-08
5.8992857e-07
-2.8427231e-08
5.9513764e-07
-3.3683285e-08
6.0337274e-07
-4.1054551e-08
6.2025019e-07
-4.4790335e-08
6.3867681e-07
-2.8201208e-08
5.7031261e-07
2.5527361e-07
2.057008e-08
1.8633165e-07
4.4580913e-08
5.2525907e-07
4.6640019e-08
6.5255032e-07
3.9150448e-08
6.4318151e-07
3.3081354e-08
6.1793293e-07
2.8715398e-08
6.0494598e-07
2.5036222e-08
5.9766532e-07
2.180223e-08
5.9237081e-07
1.89581e-08
5.8829967e-07
1.6447776e-08
5.8515492e-07
1.4217754e-08
5.8270878e-07
1.222185e-08
5.8079278e-07
1.0420276e-08
5.7928551e-07
8.7786714e-09
5.7809878e-07
7.2672763e-09
5.7716773e-07
5.8601184e-09
5.7644448e-07
4.5342746e-09
5.7589376e-07
3.2692043e-09
5.7548994e-07
2.0461433e-09
5.7521495e-07
8.4754599e-10
5.7505686e-07
-3.4343399e-10
5.7500902e-07
-1.5434402e-09
5.7506956e-07
-2.7694108e-09
5.7524126e-07
-4.0390793e-09
5.7553179e-07
-5.3714997e-09
5.7595419e-07
-6.7876121e-09
5.7652791e-07
-8.3108594e-09
5.7728032e-07
-9.9678734e-09
5.7824897e-07
-1.178924e-08
5.7948483e-07
-1.3810295e-08
5.8105704e-07
-1.6072033e-08
5.8306032e-07
-1.8622311e-08
5.8562547e-07
-2.1514241e-08
5.8893101e-07
-2.480185e-08
5.9321618e-07
-2.863132e-08
5.9896711e-07
-3.3649782e-08
6.083912e-07
-4.0133839e-08
6.2673425e-07
-4.1150765e-08
6.3969373e-07
-2.3413257e-08
5.525751e-07
2.3186035e-07
1.6014549e-08
1.7031715e-07
3.9141199e-08
5.021325e-07
4.4114928e-08
6.4757661e-07
3.8286141e-08
6.4901029e-07
3.2650749e-08
6.2356832e-07
2.8588751e-08
6.0900798e-07
2.5181108e-08
6.0107296e-07
2.2133903e-08
5.9541802e-07
1.9403244e-08
5.9103033e-07
1.6953064e-08
5.876051e-07
1.4744384e-08
5.8491746e-07
1.2741598e-08
5.8279557e-07
1.0912788e-08
5.8111432e-07
9.2294277e-09
5.7978214e-07
7.6660355e-09
5.7873113e-07
6.1997571e-09
5.7791076e-07
4.8099388e-09
5.7728358e-07
3.4776998e-09
5.7682218e-07
2.185511e-09
5.7650714e-07
9.167873e-10
5.7632558e-07
-3.4451001e-10
5.7627032e-07
-1.6142595e-09
5.7633931e-07
-2.9085716e-09
5.7653558e-07
-4.2441791e-09
5.768674e-07
-5.6388366e-09
5.7734884e-07
-7.1117347e-09
5.780008e-07
-8.683928e-09
5.7885251e-07
-1.0378772e-08
5.7994381e-07
-1.2222382e-08
5.8132844e-07
-1.4244047e-08
5.830787e-07
-1.64766e-08
5.8529288e-07
-1.89568e-08
5.8810567e-07
-2.1722796e-08
5.9169701e-07
-2.4815069e-08
5.9630845e-07
-2.8402428e-08
6.0255447e-07
-3.3111805e-08
6.1310058e-07
-3.8537057e-08
6.321595e-07
-3.7205829e-08
6.3836251e-07
-1.9178783e-08
5.3454805e-07
2.1268157e-07
1.2422708e-08
1.578945e-07
3.4110762e-08
4.8044454e-07
4.1245218e-08
6.404422e-07
3.7074171e-08
6.5318133e-07
3.1937849e-08
6.2870463e-07
2.8165085e-08
6.1278074e-07
2.5029716e-08
6.0420833e-07
2.2189318e-08
5.9825842e-07
1.959882e-08
5.9362083e-07
1.7237632e-08
5.8996629e-07
1.5079114e-08
5.8707598e-07
1.3096945e-08
5.8477774e-07
1.1266481e-08
5.8294478e-07
9.5648598e-09
5.8148376e-07
7.9709542e-09
5.8032503e-07
6.4652439e-09
5.7941647e-07
5.0296352e-09
5.7871919e-07
3.6472334e-09
5.7820458e-07
2.3020876e-09
5.7785228e-07
9.7892011e-10
5.7764875e-07
-3.3715051e-10
5.7758639e-07
-1.6608883e-09
5.7766304e-07
-3.0072256e-09
5.7788191e-07
-4.3915445e-09
5.7825172e-07
-5.8299541e-09
5.7878725e-07
-7.339565e-09
5.7951041e-07
-8.9387485e-09
5.8045169e-07
-1.0647368e-08
5.8165243e-07
-1.2486989e-08
5.8316806e-07
-1.448104e-08
5.8507275e-07
-1.6654843e-08
5.8746668e-07
-1.9035296e-08
5.9048612e-07
-2.1647904e-08
5.9430962e-07
-2.4526863e-08
5.9918741e-07
-2.7866592e-08
6.058942e-07
-3.2212028e-08
6.1744602e-07
-3.6506335e-08
6.3645381e-07
-3.3256782e-08
6.3511295e-07
-1.555945e-08
5.1685072e-07
1.9712212e-07
9.6559365e-09
1.4823863e-07
2.9641903e-08
4.604587e-07
3.8277531e-08
6.3180663e-07
3.5652688e-08
6.5580617e-07
3.1053813e-08
6.333035e-07
2.7548749e-08
6.1628581e-07
2.4668599e-08
6.0708848e-07
2.2037231e-08
6.0088978e-07
1.9598684e-08
5.9605937e-07
1.734298e-08
5.9222199e-07
1.5253497e-08
5.8916546e-07
1.3311643e-08
5.8671959e-07
1.1499076e-08
5.8475735e-07
9.7980591e-09
5.8318478e-07
8.1915772e-09
5.8193151e-07
6.6633981e-09
5.8094465e-07
5.1980647e-09
5.8018452e-07
3.7808206e-09
5.7962183e-07
2.3974889e-09
5.7923561e-07
1.0343213e-09
5.7901191e-07
-3.2217243e-10
5.7894288e-07
-1.6854035e-09
5.7902627e-07
-3.0688918e-09
5.792654e-07
-4.4864461e-09
5.7966927e-07
-5.9523341e-09
5.8025314e-07
-7.4814343e-09
5.8103951e-07
-9.0893593e-09
5.8205962e-07
-1.0792531e-08
5.833556e-07
-1.2608212e-08
5.8498374e-07
-1.4554493e-08
5.8701903e-07
-1.6650123e-08
5.8956231e-07
-1.8913592e-08
5.9274959e-07
-2.136042e-08
5.9675644e-07
-2.4024729e-08
6.0185172e-07
-2.712265e-08
6.0899212e-07
-3.1068594e-08
6.2139196e-07
-3.424579e-08
6.39631e-07
-2.9508749e-08
6.3037591e-07
-1.2550604e-08
4.9989258e-07
1.8457152e-07
7.5654092e-09
1.406733e-07
2.5782277e-08
4.4224198e-07
3.5382714e-08
6.2220628e-07
3.4131531e-08
6.5705735e-07
3.008161e-08
6.373534e-07
2.6819709e-08
6.195477e-07
2.4167419e-08
6.0974077e-07
2.1735403e-08
6.033218e-07
1.94501e-08
5.9834467e-07
1.7307149e-08
5.9436495e-07
1.529766e-08
5.9117495e-07
1.3409241e-08
5.8860801e-07
1.1628764e-08
5.8653783e-07
9.9429035e-09
5.8487064e-07
8.3383296e-09
5.8353609e-07
6.8018744e-09
5.824811e-07
5.3206343e-09
5.8166576e-07
3.8820017e-09
5.8106046e-07
2.4736457e-09
5.8064397e-07
1.0834571e-09
5.804021e-07
-3.0053347e-10
5.8032687e-07
-1.6902485e-09
5.8041599e-07
-3.0976664e-09
5.8067282e-07
-4.5349146e-09
5.8110652e-07
-6.0143488e-09
5.8173258e-07
-7.548608e-09
5.8257377e-07
-9.1506328e-09
5.8366164e-07
-1.0833631e-08
5.850386e-07
-1.2610986e-08
5.8676109e-07
-1.4496141e-08
5.8890419e-07
-1.6502291e-08
5.9156846e-07
-1.8641046e-08
5.9488834e-07
-2.0920927e-08
5.9903632e-07
-2.338108e-08
6.0431187e-07
-2.6250935e-08
6.1186197e-07
-2.9782546e-08
6.2492357e-07
-3.191705e-08
6.4176551e-07
-2.6084056e-08
6.2454292e-07
-1.0105588e-08
4.8391411e-07
1.7446593e-07
6.0105509e-09
1.3466284e-07
2.2510097e-08
4.2574262e-07
3.2662612e-08
6.1205388e-07
3.2591122e-08
6.5712885e-07
2.9081304e-08
6.4086321e-07
2.6038109e-08
6.2259089e-07
2.358149e-08
6.1219739e-07
2.1331392e-08
6.055719e-07
1.919324e-08
6.0048282e-07
1.7163563e-08
5.9639462e-07
1.5238971e-08
5.9309954e-07
1.3411822e-08
5.9043516e-07
1.1673116e-08
5.8827653e-07
1.0013167e-08
5.8653059e-07
8.4218146e-09
5.8512744e-07
6.8886281e-09
5.8401429e-07
5.4030668e-09
5.8315132e-07
3.9545793e-09
5.8250895e-07
2.5326553e-09
5.8206589e-07
1.1268417e-09
5.8180792e-07
-2.7326897e-10
5.8172698e-07
-1.6780626e-09
5.8182078e-07
-3.0979363e-09
5.8209269e-07
-4.5433214e-09
5.825519e-07
-6.0246916e-09
5.8321395e-07
-7.5525439e-09
5.8410163e-07
-9.1373424e-09
5.8524644e-07
-1.0789414e-08
5.8669067e-07
-1.2518786e-08
5.8849046e-07
-1.4335014e-08
5.9072042e-07
-1.6246799e-08
5.9348024e-07
-1.8260456e-08
5.96902e-07
-2.0380585e-08
6.0115645e-07
-2.2654905e-08
6.0658619e-07
-2.5315011e-08
6.1452208e-07
-2.843446e-08
6.2804302e-07
-2.9634293e-08
6.4296534e-07
-2.3037953e-08
6.1794658e-07
-8.1559467e-09
4.690321e-07
1.6630998e-07
4.8686568e-09
1.2979429e-07
1.9766806e-08
4.108447e-07
3.0165483e-08
6.0165535e-07
3.1083785e-08
6.5621058e-07
2.8092367e-08
6.438546e-07
2.5246216e-08
6.2543703e-07
2.2952914e-08
6.1449069e-07
2.0863226e-08
6.0766159e-07
1.8861361e-08
6.0248469e-07
1.6940761e-08
5.9831522e-07
1.5101485e-08
5.9493882e-07
1.333933e-08
5.9219731e-07
1.1648406e-08
5.8996746e-07
1.0021906e-08
5.8815709e-07
8.452294e-09
5.8669705e-07
6.9314983e-09
5.8553509e-07
5.4510866e-09
5.8463173e-07
4.0024017e-09
5.8395763e-07
2.5766576e-09
5.8349164e-07
1.1650031e-09
5.8321957e-07
-2.4143717e-10
5.8313342e-07
-1.6515352e-09
5.8323088e-07
-3.0741383e-09
5.8351529e-07
-4.5180397e-09
5.839958e-07
-5.9919336e-09
5.8468784e-07
-7.5043446e-09
5.8561404e-07
-9.0635253e-09
5.8680562e-07
-1.0677312e-08
5.8830446e-07
-1.2352942e-08
5.9016609e-07
-1.4096863e-08
5.9246434e-07
-1.5914314e-08
5.9529769e-07
-1.7807839e-08
5.9879552e-07
-1.9780924e-08
6.0312954e-07
-2.1891592e-08
6.0869686e-07
-2.4361589e-08
6.1699208e-07
-2.7083061e-08
6.3076449e-07
-2.7469608e-08
6.4335189e-07
-2.0379793e-08
6.1085676e-07
-6.626025e-09
4.5527833e-07
1.5968396e-07
4.0373662e-09
1.2575706e-07
1.7479921e-08
3.9740242e-07
2.7905278e-08
5.9123019e-07
2.9640132e-08
6.5447576e-07
2.7137976e-08
6.4635674e-07
2.4471193e-08
6.281038e-07
2.2311812e-08
6.1665007e-07
2.035996e-08
6.0961344e-07
1.8481013e-08
6.0436364e-07
1.6662354e-08
6.0013388e-07
1.4905714e-08
5.9669546e-07
1.3209223e-08
5.938938e-07
1.1569215e-08
5.9160747e-07
9.9810635e-09
5.8974524e-07
8.4393285e-09
5.8823879e-07
6.9379037e-09
5.8703651e-07
5.4701813e-09
5.8609946e-07
4.029195e-09
5.8539862e-07
2.6077382e-09
5.8491309e-07
1.1984573e-09
5.8462885e-07
-2.0607378e-10
5.8453795e-07
-1.6132889e-09
5.846381e-07
-3.0305707e-09
5.8493258e-07
-4.465184e-09
5.8543042e-07
-5.9241956e-09
5.8614685e-07
-7.414373e-09
5.8710421e-07
-8.9420572e-09
5.8833331e-07
-1.0513008e-08
5.8987541e-07
-1.2132228e-08
5.9178531e-07
-1.3803791e-08
5.941359e-07
-1.5530404e-08
5.9702431e-07
-1.731221e-08
6.0057733e-07
-1.9153883e-08
6.0497121e-07
-2.1123836e-08
6.1066681e-07
-2.3422632e-08
6.1929087e-07
-2.5768086e-08
6.3310994e-07
-2.5462736e-08
6.4304654e-07
-1.8091034e-08
6.0348506e-07
-5.4414473e-09
4.4262875e-07
1.5424251e-07
3.4340026e-09
1.2232321e-07
1.5575622e-08
3.8526113e-07
2.5875368e-08
5.809307e-07
2.8275561e-08
6.5207564e-07
2.6229974e-08
6.4840231e-07
2.3728904e-08
6.3060485e-07
2.1678468e-08
6.187005e-07
1.9842788e-08
6.1144912e-07
1.8072593e-08
6.0613383e-07
1.6347228e-08
6.0185925e-07
1.4668617e-08
5.9837407e-07
1.303634e-08
5.9552608e-07
1.144823e-08
5.9319558e-07
9.9012428e-09
5.9129222e-07
8.3915518e-09
5.8974848e-07
6.9146411e-09
5.8851342e-07
5.4654372e-09
5.8754866e-07
4.0384428e-09
5.8682561e-07
2.6278586e-09
5.8632368e-07
1.2276902e-09
5.8602902e-07
-1.6815697e-10
5.859338e-07
-1.565792e-09
5.8603573e-07
-2.9712542e-09
5.8633804e-07
-4.3904239e-09
5.8684959e-07
-5.8289223e-09
5.8758535e-07
-7.2919958e-09
5.8856729e-07
-8.7843825e-09
5.8982569e-07
-1.0310166e-08
5.9140119e-07
-1.187263e-08
5.9334778e-07
-1.3474115e-08
5.9573739e-07
-1.5115589e-08
5.9866578e-07
-1.6795965e-08
6.022577e-07
-1.8522848e-08
6.0669809e-07
-2.0373836e-08
6.125178e-07
-2.2518605e-08
6.2143564e-07
-2.4514369e-08
6.3510571e-07
-2.3630497e-08
6.4216266e-07
-1.6137684e-08
5.9599225e-07
-4.5338004e-09
4.3102486e-07
1.4970871e-07
2.993935e-09
1.1932946e-07
1.3985437e-08
3.7427001e-07
2.4057882e-08
5.7085857e-07
2.6995208e-08
6.491384e-07
2.5372723e-08
6.5002477e-07
2.3027344e-08
6.3295021e-07
2.1065715e-08
6.2066213e-07
1.9326563e-08
6.1318827e-07
1.7651256e-08
6.0780914e-07
1.6010039e-08
6.0350046e-07
1.4403826e-08
5.9998028e-07
1.2832954e-08
5.9709695e-07
1.12962e-08
5.9473233e-07
9.7916091e-09
5.9279682e-07
8.3165533e-09
5.9122353e-07
6.8677677e-09
5.8996221e-07
5.4414375e-09
5.8897499e-07
4.0333102e-09
5.8823374e-07
2.6388106e-09
5.8771818e-07
1.2531477e-09
5.8741468e-07
-1.2858187e-10
5.8731553e-07
-1.5112977e-09
5.8741845e-07
-2.8998392e-09
5.8772658e-07
-4.2988645e-09
5.8824861e-07
-5.7127434e-09
5.8899923e-07
-7.1454397e-09
5.8999998e-07
-8.600385e-09
5.9128064e-07
-1.0080354e-08
5.9288116e-07
-1.1587359e-08
5.9485478e-07
-1.3122545e-08
5.9727257e-07
-1.4685795e-08
6.0022903e-07
-1.6275759e-08
6.0384767e-07
-1.7904161e-08
6.083265e-07
-1.9655659e-08
6.142693e-07
-2.1661345e-08
6.2344133e-07
-2.3335375e-08
6.3677974e-07
-2.1974043e-08
6.4080133e-07
-1.4478696e-08
5.884969e-07
-3.8431852e-09
4.2038935e-07
1.4586552e-07
2.6683243e-09
1.1666135e-07
1.2649617e-08
3.6428918e-07
2.243006e-08
5.6107851e-07
2.5797691e-08
6.4577091e-07
2.4565803e-08
6.5125665e-07
2.2369197e-08
6.3514679e-07
2.0480939e-08
6.2255038e-07
1.8821238e-08
6.1484797e-07
1.7227925e-08
6.0940245e-07
1.5661869e-08
6.0506652e-07
1.4122031e-08
6.0152012e-07
1.2608981e-08
5.9861e-07
1.1122022e-08
5.9621929e-07
9.6599009e-09
5.9425894e-07
8.2208483e-09
5.9266258e-07
6.8025544e-09
5.913805e-07
5.4022126e-09
5.9037533e-07
4.0166034e-09
5.8961935e-07
2.6421922e-09
5.8909259e-07
1.2752304e-09
5.8878164e-07
-8.814406e-11
5.886789e-07
-1.4518074e-09
5.8878211e-07
-2.8195521e-09
5.8909432e-07
-4.1949823e-09
5.8962404e-07
-5.58141e-09
5.9038565e-07
-6.9817437e-09
5.9140032e-07
-8.3983795e-09
5.9269727e-07
-9.8331052e-09
5.9431589e-07
-1.1287037e-08
5.9630871e-07
-1.2760557e-08
5.9874609e-07
-1.4252983e-08
6.0172145e-07
-1.5763483e-08
6.0535817e-07
-1.7308557e-08
6.0987157e-07
-1.897721e-08
6.1593795e-07
-2.0856313e-08
6.2532043e-07
-2.2236211e-08
6.3815964e-07
-2.0484657e-08
6.3904978e-07
-1.3071552e-08
5.810838e-07
-3.3191957e-09
4.1063699e-07
1.4254633e-07
2.4214298e-09
1.1424017e-07
1.1518242e-08
3.5519292e-07
2.0968337e-08
5.5162888e-07
2.4678007e-08
6.4206142e-07
2.3806014e-08
6.5212863e-07
2.1753727e-08
6.3719905e-07
1.9927643e-08
6.2437645e-07
1.8333068e-08
6.1644255e-07
1.6810189e-08
6.1092533e-07
1.5310873e-08
6.0656583e-07
1.3831428e-08
6.0299957e-07
1.2372261e-08
6.0006917e-07
1.0932905e-08
5.9765864e-07
9.5125178e-09
5.9567932e-07
8.1099132e-09
5.9406519e-07
6.7234904e-09
5.9276692e-07
5.3512322e-09
5.9174759e-07
3.9907577e-09
5.9097982e-07
2.6394e-09
5.9044394e-07
1.2942942e-09
5.9012675e-07
-4.7530442e-11
5.9002073e-07
-1.3890537e-09
5.9012363e-07
-2.7331747e-09
5.9043844e-07
-4.0826084e-09
5.9097347e-07
-5.4397918e-09
5.9174284e-07
-6.8067869e-09
5.9276731e-07
-8.1851922e-09
5.9407568e-07
-9.5760804e-09
5.9570678e-07
-1.0979978e-08
5.9771261e-07
-1.2396836e-08
6.0016295e-07
-1.3825809e-08
6.0315043e-07
-1.5267176e-08
6.0679953e-07
-1.674242e-08
6.1134681e-07
-1.8341868e-08
6.175374e-07
-2.0104479e-08
6.2708304e-07
-2.1216307e-08
6.3927146e-07
-1.9148274e-08
6.3698174e-07
-1.1876079e-08
5.738116e-07
-2.9208251e-09
4.0168174e-07
1.396255e-07
2.2278707e-09
1.120126e-07
1.0550848e-08
3.4687058e-07
1.9650631e-08
5.4252967e-07
2.362957e-08
6.3808271e-07
2.3088848e-08
6.5266936e-07
2.1178201e-08
6.3910966e-07
1.9406698e-08
6.2614794e-07
1.7865599e-08
6.1798364e-07
1.6403075e-08
6.1238786e-07
1.4962865e-08
6.0800604e-07
1.3538144e-08
6.0442429e-07
1.2128862e-08
6.0147845e-07
1.0734578e-08
5.9905293e-07
9.3546492e-09
5.9705925e-07
7.9882632e-09
5.9543157e-07
6.634327e-09
5.9412086e-07
5.2914263e-09
5.9309049e-07
3.9578474e-09
5.923134e-07
2.6316328e-09
5.9177016e-07
1.3106526e-09
5.9144773e-07
-7.3144388e-12
5.913387e-07
-1.3244995e-09
5.9144082e-07
-2.643049e-09
5.9175699e-07
-3.9649445e-09
5.9229537e-07
-5.2919164e-09
5.9306981e-07
-6.6253636e-09
5.9410076e-07
-7.9662906e-09
5.9541661e-07
-9.3152768e-09
5.9705576e-07
-1.0672496e-08
5.9906983e-07
-1.2037717e-08
6.0152817e-07
-1.3410232e-08
6.0452294e-07
-1.4791852e-08
6.0818115e-07
-1.6208878e-08
6.1276384e-07
-1.7749872e-08
6.1907839e-07
-1.9403899e-08
6.2873707e-07
-2.0271602e-08
6.4013917e-07
-1.7948627e-08
6.3465877e-07
-1.0856391e-08
5.6671936e-07
-2.6156186e-09
3.9344097e-07
1.3700988e-07
2.070161e-09
1.0994278e-07
9.7153183e-09
3.3922617e-07
1.845739e-08
5.3378828e-07
2.2645502e-08
6.3389491e-07
2.2409466e-08
6.5290541e-07
2.0638916e-08
6.4088016e-07
1.8917305e-08
6.2786953e-07
1.742047e-08
6.1948048e-07
1.6009696e-08
6.1379863e-07
1.4621837e-08
6.093939e-07
1.3246637e-08
6.0579949e-07
1.1883373e-08
6.0284171e-07
1.0531498e-08
6.004048e-07
9.190424e-09
5.9840033e-07
7.859553e-09
5.9676245e-07
6.538142e-09
5.9544227e-07
5.2252254e-09
5.9440341e-07
3.9196094e-09
5.9361902e-07
2.6199045e-09
5.9306986e-07
1.3245801e-09
5.9274305e-07
3.2030792e-11
5.9263124e-07
-1.2593505e-09
5.927322e-07
-2.5510997e-09
5.9304874e-07
-3.8446046e-09
5.9358887e-07
-5.1410363e-09
5.9436624e-07
-6.441289e-09
5.9540101e-07
-7.7459406e-09
5.9672126e-07
-9.0552533e-09
5.9836507e-07
-1.0369226e-08
6.003838e-07
-1.1687622e-08
6.0284657e-07
-1.3010085e-08
6.0584541e-07
-1.4340239e-08
6.0951131e-07
-1.570875e-08
6.1413235e-07
-1.7199437e-08
6.2056908e-07
-1.8750936e-08
6.3028857e-07
-1.9396158e-08
6.4078439e-07
-1.6869179e-08
6.3213179e-07
-9.9814112e-09
5.598316e-07
-2.3784621e-09
3.8583802e-07
1.3463142e-07
1.9366288e-09
1.0800655e-07
8.9865241e-09
3.3217714e-07
1.7371881e-08
5.2540374e-07
2.1719329e-08
6.2954785e-07
2.1763265e-08
6.5286152e-07
2.0131867e-08
6.4251151e-07
1.8457699e-08
6.2954368e-07
1.6998039e-08
6.2094014e-07
1.5631786e-08
6.1516488e-07
1.4290396e-08
6.1073529e-07
1.2960048e-08
6.0712983e-07
1.1639183e-08
6.0416258e-07
1.0327064e-08
6.0171692e-07
9.0230638e-09
5.9970433e-07
7.7266869e-09
5.9805882e-07
6.4374167e-09
5.9673154e-07
5.154612e-09
5.9568621e-07
3.8774747e-09
5.9489615e-07
2.6050616e-09
5.9434228e-07
1.3363213e-09
5.9401179e-07
7.0146385e-11
5.9389742e-07
-1.19457e-09
5.9399691e-07
-2.4588691e-09
5.9431304e-07
-3.7236699e-09
5.9485368e-07
-4.9897126e-09
5.9563228e-07
-6.2575187e-09
5.9666882e-07
-7.5273746e-09
5.9799111e-07
-8.79936e-09
5.9963706e-07
-1.0073426e-08
6.0165787e-07
-1.134945e-08
6.0412259e-07
-1.2627579e-08
6.0712353e-07
-1.3913407e-08
6.1079714e-07
-1.5241298e-08
6.1546024e-07
-1.6687584e-08
6.2201536e-07
-1.8141119e-08
6.317421e-07
-1.8583273e-08
6.4122654e-07
-1.5894316e-08
6.2944283e-07
-9.2249993e-09
5.5316228e-07
-2.1903818e-09
3.788034e-07
1.3244104e-07
1.8197316e-09
1.0618728e-07
8.3449694e-09
3.2565291e-07
1.6380073e-08
5.173696e-07
2.0845317e-08
6.2508309e-07
2.1146165e-08
6.5256075e-07
1.9653147e-08
6.4400448e-07
1.8025626e-08
6.3117117e-07
1.6597846e-08
6.2236791e-07
1.5270114e-08
6.1649262e-07
1.3970125e-08
6.1203528e-07
1.2680502e-08
6.0841946e-07
1.139872e-08
6.0544436e-07
1.0123804e-08
6.0299184e-07
8.8550313e-09
6.009731e-07
7.5919294e-09
5.9932192e-07
6.3341166e-09
5.9798935e-07
5.081177e-09
5.9693915e-07
3.8326056e-09
5.9614473e-07
2.5878025e-09
5.9558708e-07
1.3460913e-09
5.952535e-07
1.0675792e-10
5.9513675e-07
-1.1309075e-09
5.9523458e-07
-2.3675589e-09
5.9554969e-07
-3.6037522e-09
5.9608987e-07
-4.8399047e-09
5.9686844e-07
-6.076273e-09
5.9790518e-07
-7.3129581e-09
5.992278e-07
-8.5499562e-09
6.0087406e-07
-9.787258e-09
6.0289517e-07
-1.1024933e-08
6.0536027e-07
-1.226373e-08
6.0836233e-07
-1.3511267e-08
6.1204467e-07
-1.4804804e-08
6.1675378e-07
-1.6210743e-08
6.234213e-07
-1.7569739e-08
6.331011e-07
-1.7826207e-08
6.4148301e-07
-1.5009972e-08
6.266266e-07
-8.5656236e-09
5.4671793e-07
-2.0373771e-09
3.7227515e-07
1.3040366e-07
1.7147479e-09
1.0447306e-07
7.7755696e-09
3.1959326e-07
1.5470325e-08
5.0967598e-07
2.0018556e-08
6.2053546e-07
2.0554715e-08
6.520247e-07
1.9199168e-08
6.4535998e-07
1.7618658e-08
6.3275164e-07
1.6218935e-08
6.2376763e-07
1.4924788e-08
6.1778676e-07
1.3661868e-08
6.132982e-07
1.2409352e-08
6.0967197e-07
1.1163662e-08
6.0669005e-07
9.9235491e-09
6.0423195e-07
8.6881659e-09
6.0220848e-07
7.4570108e-09
6.0055308e-07
6.2297699e-09
5.9921659e-07
5.006175e-09
5.9816275e-07
3.7859323e-09
5.9736497e-07
2.5686978e-09
5.9680431e-07
1.3540826e-09
5.9646812e-07
1.4167622e-10
5.9634916e-07
-1.0689239e-09
5.9644518e-07
-2.2780748e-09
5.9675884e-07
-3.4860596e-09
5.9729785e-07
-4.6930614e-09
5.9807544e-07
-5.8991583e-09
5.9911128e-07
-7.1043459e-09
6.0043298e-07
-8.3086084e-09
6.0207832e-07
-9.512032e-09
6.0409859e-07
-1.0714923e-08
6.0656316e-07
-1.1918697e-08
6.0956611e-07
-1.3132966e-08
6.1325894e-07
-1.4396996e-08
6.1801781e-07
-1.5765162e-08
6.2478947e-07
-1.7032229e-08
6.3436817e-07
-1.7118634e-08
6.4156941e-07
-1.4203867e-08
6.2371183e-07
-7.9858248e-09
5.4049989e-07
-1.9093452e-09
3.6619867e-07
1.2849432e-07
1.6188059e-09
1.0285486e-07
7.2666164e-09
3.139468e-07
1.4632996e-08
5.0231094e-07
1.923492e-08
6.1593427e-07
1.9986087e-08
6.512737e-07
1.8766758e-08
6.4657925e-07
1.7234378e-08
6.3428398e-07
1.5860076e-08
6.2514192e-07
1.4595488e-08
6.1905135e-07
1.336594e-08
6.1452775e-07
1.2147383e-08
6.1089053e-07
1.093511e-08
6.0790232e-07
9.7275785e-09
6.0543948e-07
8.5238038e-09
6.0341226e-07
7.3232228e-09
6.0175366e-07
6.1255408e-09
6.0041427e-07
4.930579e-09
5.9935771e-07
3.738188e-09
5.9855736e-07
2.5482096e-09
5.9799429e-07
1.3604688e-09
5.9765586e-07
1.7478328e-10
5.9753484e-07
-1.009018e-09
5.9762898e-07
-2.1910713e-09
5.979409e-07
-3.3714608e-09
5.9847824e-07
-4.5502077e-09
5.9925418e-07
-5.7272784e-09
6.0028835e-07
-6.9026233e-09
6.0160833e-07
-8.0762623e-09
6.0325196e-07
-9.24841e-09
6.0527074e-07
-1.0419633e-08
6.0773438e-07
-1.159205e-08
6.1073852e-07
-1.2777174e-08
6.1444406e-07
-1.4015341e-08
6.1925597e-07
-1.5347173e-08
6.261213e-07
-1.6524387e-08
6.3554538e-07
-1.6454862e-08
6.4149989e-07
-1.3465507e-08
6.2072248e-07
-7.4716032e-09
5.3450598e-07
-1.7991504e-09
3.6052622e-07
1.2669516e-07
1.530195e-09
1.0132537e-07
6.8089458e-09
3.086696e-07
1.3860064e-08
4.9526138e-07
1.8490959e-08
6.1130427e-07
1.943801e-08
6.5032687e-07
1.8353183e-08
6.4766403e-07
1.6870498e-08
6.3576661e-07
1.5519912e-08
6.2649249e-07
1.4281618e-08
6.2028965e-07
1.3082294e-08
6.1572708e-07
1.1894959e-08