/*--------------------------------*- C++ -*----------------------------------*\
  =========                 |
  \\      /  F ield         | OpenFOAM: The Open Source CFD Toolbox
   \\    /   O peration     | Website:  https://openfoam.org
    \\  /    A nd           | Version:  10
     \\/     M anipulation  |
\*---------------------------------------------------------------------------*/
FoamFile
{
    format      ascii;
    class       surfaceScalarField;
    location    "0.21";
    object      phi_0;
}
// * * * * * * * * * * * * * * * * * * * * * * * * * * * * * * * * * * * * * //

dimensions      [1 0 -1 0 0 0 0];

internalField   nonuniform List<scalar> 
7860
(
3.9895895e-08
5.2881214e-07
1.2192669e-08
5.9641103e-07
7.427853e-09
5.7347256e-07
5.4993702e-09
5.7063619e-07
4.1149516e-09
5.7009209e-07
3.2011049e-09
5.696215e-07
2.5591193e-09
5.6934962e-07
2.0793015e-09
5.6918744e-07
1.7093228e-09
5.6907759e-07
1.4166597e-09
5.6900026e-07
1.1795164e-09
5.6894473e-07
9.8312995e-10
5.6890397e-07
8.1715653e-10
5.6887355e-07
6.7410575e-10
5.6885062e-07
5.4840422e-10
5.6883327e-07
4.3579113e-10
5.6882018e-07
3.3291267e-10
5.6881044e-07
2.3704135e-10
5.6880343e-07
1.4587402e-10
5.6879873e-07
5.7379448e-11
5.6879605e-07
-3.0325343e-11
5.6879526e-07
-1.1908268e-10
5.6879632e-07
-2.1079919e-10
5.6879928e-07
-3.0755244e-10
5.6880431e-07
-4.1172341e-10
5.6881173e-07
-5.2615916e-10
5.68822e-07
-6.5439382e-10
5.688358e-07
-8.0096139e-10
5.6885414e-07
-9.7185623e-10
5.6887847e-07
-1.1752399e-09
5.6891097e-07
-1.4226141e-09
5.6895496e-07
-1.7307907e-09
5.6901577e-07
-2.1247483e-09
5.6910156e-07
-2.6443688e-09
5.6922724e-07
-3.3720662e-09
5.6943533e-07
-4.4633954e-09
5.6979898e-07
-6.0087758e-09
5.7025306e-07
-9.5078081e-09
5.7220674e-07
-2.9575589e-08
5.8877553e-07
5.3913233e-07
5.9672299e-08
4.6913984e-07
3.666574e-08
6.1941758e-07
2.2627946e-08
5.8751035e-07
1.6253361e-08
5.7701077e-07
1.2290312e-08
5.7405514e-07
9.6060842e-09
5.7230573e-07
7.6773343e-09
5.7127837e-07
6.2360259e-09
5.7062874e-07
5.1265621e-09
5.7018705e-07
4.2488694e-09
5.6987795e-07
3.5376127e-09
5.6965599e-07
2.9486225e-09
5.6949296e-07
2.4508528e-09
5.6937132e-07
2.0218275e-09
5.6927965e-07
1.6448312e-09
5.6921027e-07
1.3070858e-09
5.6915792e-07
9.9853315e-10
5.6911899e-07
7.1099404e-10
5.6909097e-07
4.3756189e-10
5.6907216e-07
1.7214414e-10
5.6906147e-07
-9.0906454e-11
5.6905831e-07
-3.5711397e-10
5.6906252e-07
-6.3219145e-10
5.6907435e-07
-9.2237217e-10
5.6909449e-07
-1.2347962e-09
5.6912416e-07
-1.5780014e-09
5.6916521e-07
-1.9625861e-09
5.6922039e-07
-2.4021472e-09
5.692937e-07
-2.9146687e-09
5.6939099e-07
-3.5246439e-09
5.6952094e-07
-4.266493e-09
5.6969681e-07
-5.1905822e-09
5.6993986e-07
-6.3735373e-09
5.7028452e-07
-7.9340777e-09
5.7078778e-07
-1.0075427e-08
5.7157668e-07
-1.3203715e-08
5.7292727e-07
-1.8133711e-08
5.7518305e-07
-2.8176002e-08
5.8224903e-07
-4.5802091e-08
6.0640162e-07
4.9333024e-07
6.0008496e-08
4.0913135e-07
5.0486805e-08
6.2893927e-07
3.3370253e-08
6.0462691e-07
2.4817285e-08
5.8556374e-07
1.9322891e-08
5.7954954e-07
1.5331197e-08
5.7629742e-07
1.2360488e-08
5.7424908e-07
1.0101408e-08
5.7288782e-07
8.3405797e-09
5.7194788e-07
6.9348818e-09
5.7128365e-07
5.7882339e-09
5.7080264e-07
4.8338699e-09
5.7044732e-07
4.0240239e-09
5.7018117e-07
3.323709e-09
5.6997996e-07
2.7066603e-09
5.6982731e-07
2.1526439e-09
5.6971194e-07
1.6456331e-09
5.69626e-07
1.1725269e-09
5.6956408e-07
7.2221647e-10
5.6952247e-07
2.8487205e-10
5.6949882e-07
-1.486345e-10
5.6949182e-07
-5.8723569e-10
5.6950112e-07
-1.0401617e-09
5.6952728e-07
-1.5174607e-09
5.6957179e-07
-2.0306011e-09
5.696373e-07
-2.5932314e-09
5.6972784e-07
-3.222192e-09
5.6984935e-07
-3.9389259e-09
5.7001043e-07
-4.771529e-09
5.7022359e-07
-5.7578131e-09
5.7050722e-07
-6.9499652e-09
5.7088896e-07
-8.4221853e-09
5.7141208e-07
-1.0283874e-08
5.7214621e-07
-1.2696905e-08
5.7320081e-07
-1.5894441e-08
5.7477421e-07
-2.0238374e-08
5.772712e-07
-2.6706813e-08
5.8165149e-07
-3.8946362e-08
5.9448858e-07
-4.8166026e-08
6.1562129e-07
4.4516422e-07
5.4878614e-08
3.5425274e-07
5.7451448e-08
6.2636644e-07
4.0466864e-08
6.2161149e-07
3.077813e-08
5.9525247e-07
2.4642468e-08
5.856852e-07
1.9951783e-08
5.809881e-07
1.6312524e-08
5.7788834e-07
1.3466233e-08
5.7573412e-07
1.1200794e-08
5.7421332e-07
9.3644987e-09
5.7311995e-07
7.8494628e-09
5.7231767e-07
6.577196e-09
5.7171959e-07
5.4898505e-09
5.7126851e-07
4.544112e-09
5.709257e-07
3.7068841e-09
5.7066454e-07
2.9523077e-09
5.7046652e-07
2.2596636e-09
5.7031865e-07
1.6118543e-09
5.7021189e-07
9.9427271e-10
5.7014005e-07
3.9392216e-10
5.7009917e-07
-2.0130684e-10
5.7008705e-07
-8.0327668e-10
5.7010309e-07
-1.4242239e-09
5.7014823e-07
-2.0774132e-09
5.7022498e-07
-2.7778886e-09
5.7033777e-07
-3.5434009e-09
5.7049335e-07
-4.3956151e-09
5.7070156e-07
-5.3617433e-09
5.7097656e-07
-6.4768249e-09
5.7133868e-07
-7.7869877e-09
5.7181739e-07
-9.3540143e-09
5.7245599e-07
-1.1261728e-08
5.7331979e-07
-1.3626395e-08
5.7451087e-07
-1.6609364e-08
5.7618378e-07
-2.0408414e-08
5.7857326e-07
-2.529022e-08
5.8215301e-07
-3.2514628e-08
5.888759e-07
-4.5098321e-08
6.0707227e-07
-4.6547667e-08
6.1707063e-07
3.9861655e-07
4.7965234e-08
3.0628752e-07
6.0075503e-08
6.1425618e-07
4.5399133e-08
6.3628785e-07
3.4874434e-08
6.0577717e-07
2.8398997e-08
5.9216064e-07
2.3418841e-08
5.8596826e-07
1.9433638e-08
5.8187354e-07
1.6228646e-08
5.7893911e-07
1.3619348e-08
5.7682261e-07
1.1466335e-08
5.7527296e-07
9.6644804e-09
5.7411953e-07
8.1337407e-09
5.7325033e-07
6.813091e-09
5.7258916e-07
5.655517e-09
5.7208328e-07
4.6242409e-09
5.7169582e-07
3.689974e-09
5.7140078e-07
2.8288748e-09
5.7117975e-07
2.0210114e-09
5.7101975e-07
1.2491761e-09
5.7091189e-07
4.9794076e-10
5.708504e-07
-2.4713638e-10
5.7083213e-07
-1.0002206e-09
5.7085618e-07
-1.775891e-09
5.709239e-07
-2.5898633e-09
5.7103895e-07
-3.4598053e-09
5.7120771e-07
-4.4063214e-09
5.7143986e-07
-5.4541918e-09
5.7174943e-07
-6.6339827e-09
5.7215635e-07
-7.9841726e-09
5.7268887e-07
-9.5540262e-09
5.7338724e-07
-1.140737e-08
5.7430933e-07
-1.3627019e-08
5.7553944e-07
-1.6321276e-08
5.7720513e-07
-1.963375e-08
5.7949625e-07
-2.373471e-08
5.8267422e-07
-2.8927055e-08
5.8734535e-07
-3.678743e-08
5.9673627e-07
-4.846022e-08
6.1874506e-07
-4.3192115e-08
6.1180253e-07
3.5542444e-07
4.0335439e-08
2.6595211e-07
5.8992772e-08
5.9559886e-07
4.8328699e-08
6.4695192e-07
3.7586829e-08
6.1651904e-07
3.0927737e-08
5.9881973e-07
2.5892959e-08
5.9100304e-07
2.1779119e-08
5.8598738e-07
1.8391364e-08
5.8232686e-07
1.5577031e-08
5.7963695e-07
1.3214072e-08
5.7763592e-07
1.1206544e-08
5.7612705e-07
9.4791529e-09
5.7497772e-07
7.9727538e-09
5.7409556e-07
6.6404398e-09
5.7341559e-07
5.4445809e-09
5.7289168e-07
4.3545565e-09
5.7249081e-07
3.3449753e-09
5.7218933e-07
2.3942759e-09
5.7197045e-07
1.4836093e-09
5.7182255e-07
5.9591786e-10
5.7173809e-07
-2.8485482e-10
5.717129e-07
-1.1744814e-09
5.717458e-07
-2.0891534e-09
5.7183857e-07
-3.0462092e-09
5.7199601e-07
-4.0649404e-09
5.7222645e-07
-5.1675376e-09
5.7254246e-07
-6.3802425e-09
5.7296214e-07
-7.7347818e-09
5.7351089e-07
-9.2701656e-09
5.7422425e-07
-1.1034995e-08
5.7515207e-07
-1.3090493e-08
5.7636483e-07
-1.551393e-08
5.7796288e-07
-1.8402709e-08
5.8009391e-07
-2.188101e-08
5.8297455e-07
-2.6104625e-08
5.8689784e-07
-3.1483017e-08
5.9272374e-07
-3.9649391e-08
6.0490265e-07
-4.9167608e-08
6.2826328e-07
-3.857589e-08
6.0121081e-07
3.1684855e-07
3.2862008e-08
2.3309013e-07
5.524836e-08
5.7321254e-07
4.9230377e-08
6.5296991e-07
3.9059815e-08
6.2668959e-07
3.2429108e-08
6.0545043e-07
2.7517361e-08
5.9591478e-07
2.3437499e-08
5.9006724e-07
2.0001952e-08
5.8576241e-07
1.7094162e-08
5.8254474e-07
1.4611904e-08
5.8011817e-07
1.2471387e-08
5.7826757e-07
1.0605358e-08
5.7684375e-07
8.9595732e-09
5.7574134e-07
7.4898356e-09
5.7488533e-07
6.1598122e-09
5.742217e-07
4.9392732e-09
5.7371135e-07
3.8026498e-09
5.7332595e-07
2.7278575e-09
5.7304524e-07
1.6953199e-09
5.7285509e-07
6.871375e-10
5.7274627e-07
-3.1364393e-10
5.7271368e-07
-1.3237081e-09
5.7275587e-07
-2.3601337e-09
5.7287499e-07
-3.441078e-09
5.7307695e-07
-4.5865178e-09
5.7337189e-07
-5.8190976e-09
5.7377504e-07
-7.1651255e-09
5.7430816e-07
-8.6557749e-09
5.7500154e-07
-1.0328534e-08
5.7589701e-07
-1.2228983e-08
5.7705252e-07
-1.441318e-08
5.7854903e-07
-1.6950556e-08
5.8050026e-07
-1.992596e-08
5.8306931e-07
-2.3440174e-08
5.8648877e-07
-2.7634622e-08
5.9109229e-07
-3.3027617e-08
5.9811674e-07
-4.100392e-08
6.1287895e-07
-4.7681744e-08
6.349411e-07
-3.3373099e-08
5.8690216e-07
2.8347545e-07
2.6188217e-08
2.0690194e-07
5.0130678e-08
5.4927011e-07
4.8491127e-08
6.5460946e-07
3.9488796e-08
6.3569192e-07
3.3075406e-08
6.1186382e-07
2.8410181e-08
6.0058001e-07
2.4491311e-08
5.9398611e-07
2.1116947e-08
5.8913677e-07
1.8206202e-08
5.8545548e-07
1.5679846e-08
5.8264453e-07
1.3468738e-08
5.8047868e-07
1.1515694e-08
5.7879679e-07
9.7731975e-09
5.7748384e-07
8.2014517e-09
5.7645707e-07
6.7669214e-09
5.7565623e-07
5.4410569e-09
5.7503721e-07
4.1992064e-09
5.745678e-07
3.0196928e-09
5.7422475e-07
1.8830164e-09
5.7399177e-07
7.7115096e-10
5.7385814e-07
-3.3309173e-10
5.7381792e-07
-1.4466583e-09
5.7386943e-07
-2.5868465e-09
5.7401518e-07
-3.7719079e-09
5.7426202e-07
-5.0216904e-09
5.7462167e-07
-6.3583534e-09
5.751117e-07
-7.8071797e-09
5.7575699e-07
-9.3975234e-09
5.7659188e-07
-1.1163917e-08
5.776634e-07
-1.3147339e-08
5.7903594e-07
-1.5396866e-08
5.8079856e-07
-1.7971788e-08
5.8307518e-07
-2.0941565e-08
5.8603909e-07
-2.4381396e-08
5.899286e-07
-2.8426799e-08
5.9513769e-07
-3.3682858e-08
6.033728e-07
-4.1054121e-08
6.2025021e-07
-4.4789965e-08
6.3867695e-07
-2.8201035e-08
5.7031323e-07
2.5527441e-07
2.0570024e-08
1.8633196e-07
4.4580758e-08
5.2525944e-07
4.6639818e-08
6.5255041e-07
3.9150255e-08
6.4318148e-07
3.3081173e-08
6.179329e-07
2.8715227e-08
6.0494595e-07
2.5036061e-08
5.9766528e-07
2.1802084e-08
5.9237075e-07
1.8957973e-08
5.8829959e-07
1.6447671e-08
5.8515483e-07
1.4217674e-08
5.8270868e-07
1.2221797e-08
5.8079267e-07
1.0420252e-08
5.7928539e-07
8.7786796e-09
5.7809864e-07
7.267318e-09
5.7716759e-07
5.8601952e-09
5.7644433e-07
4.5343875e-09
5.7589361e-07
3.2693541e-09
5.7548979e-07
2.0463303e-09
5.7521479e-07
8.4777027e-10
5.750567e-07
-3.4317286e-10
5.7500886e-07
-1.543143e-09
5.750694e-07
-2.7690786e-09
5.7524112e-07
-4.0387138e-09
5.7553165e-07
-5.3711028e-09
5.7595406e-07
-6.787186e-09
5.7652779e-07
-8.3104071e-09
5.7728021e-07
-9.9673978e-09
5.7824887e-07
-1.1788745e-08
5.7948475e-07
-1.3809784e-08
5.8105698e-07
-1.6071511e-08
5.8306028e-07
-1.8621782e-08
5.8562545e-07
-2.1513709e-08
5.8893102e-07
-2.4801323e-08
5.9321621e-07
-2.8630799e-08
5.9896717e-07
-3.3649261e-08
6.0839126e-07
-4.0133317e-08
6.2673427e-07
-4.1150335e-08
6.3969397e-07
-2.3413067e-08
5.5257596e-07
2.3186134e-07
1.6014487e-08
1.7031753e-07
3.9141019e-08
5.0213298e-07
4.4114683e-08
6.4757678e-07
3.82859e-08
6.4901025e-07
3.2650524e-08
6.2356827e-07
2.8588539e-08
6.0900794e-07
2.5180909e-08
6.0107291e-07
2.2133722e-08
5.9541794e-07
1.9403085e-08
5.9103023e-07
1.6952931e-08
5.8760499e-07
1.474428e-08
5.8491733e-07
1.2741526e-08
5.8279542e-07
1.0912752e-08
5.8111416e-07
9.2294289e-09
5.7978197e-07
7.6660762e-09
5.7873094e-07
6.1998393e-09
5.7791057e-07
4.8100636e-09
5.7728338e-07
3.4778681e-09
5.7682198e-07
2.1857234e-09
5.7650693e-07
9.1704367e-10
5.7632538e-07
-3.4421e-10
5.7627012e-07
-1.6139167e-09
5.7633911e-07
-2.9081873e-09
5.7653539e-07
-4.2437552e-09
5.7686722e-07
-5.6383751e-09
5.7734868e-07
-7.1112385e-09
5.7800065e-07
-8.6834e-09
5.7885237e-07
-1.0378216e-08
5.7994369e-07
-1.2221801e-08
5.8132833e-07
-1.4243447e-08
5.8307862e-07
-1.6475986e-08
5.8529282e-07
-1.8956177e-08
5.8810564e-07
-2.1722168e-08
5.9169701e-07
-2.4814444e-08
5.9630849e-07
-2.8401808e-08
6.0255453e-07
-3.3111178e-08
6.1310063e-07
-3.8536435e-08
6.3215953e-07
-3.7205335e-08
6.3836286e-07
-1.9178576e-08
5.3454921e-07
2.1268277e-07
1.242264e-08
1.5789494e-07
3.4110554e-08
4.8044517e-07
4.1244924e-08
6.4044245e-07
3.7073875e-08
6.5318129e-07
3.1937573e-08
6.2870456e-07
2.8164826e-08
6.1278068e-07
2.5029473e-08
6.0420826e-07
2.2189096e-08
5.9825831e-07
1.9598624e-08
5.936207e-07
1.7237466e-08
5.8996614e-07
1.5078982e-08
5.8707581e-07
1.3096852e-08
5.8477755e-07
1.1266429e-08
5.8294458e-07
9.5648511e-09
5.8148354e-07
7.9709918e-09
5.803248e-07
6.4653299e-09
5.7941623e-07
5.0297711e-09
5.7871894e-07
3.6474202e-09
5.7820433e-07
2.3023259e-09
5.7785203e-07
9.7921006e-10
5.7764849e-07
-3.3680939e-10
5.7758614e-07
-1.6604969e-09
5.776628e-07
-3.0067855e-09
5.7788168e-07
-4.3910575e-09
5.7825149e-07
-5.8294228e-09
5.7878704e-07
-7.3389925e-09
5.7951022e-07
-8.9381382e-09
5.8045152e-07
-1.0646724e-08
5.8165228e-07
-1.2486316e-08
5.8316793e-07
-1.4480343e-08
5.8507265e-07
-1.6654127e-08
5.874666e-07
-1.9034567e-08
5.9048608e-07
-2.1647169e-08
5.9430961e-07
-2.4526129e-08
5.9918745e-07
-2.786586e-08
6.0589426e-07
-3.2211284e-08
6.1744605e-07
-3.6505606e-08
6.3645385e-07
-3.3256222e-08
6.3511348e-07
-1.5559226e-08
5.1685221e-07
1.9712354e-07
9.6558605e-09
1.4823915e-07
2.9641664e-08
4.604595e-07
3.8277182e-08
6.3180699e-07
3.5652328e-08
6.5580614e-07
3.1053477e-08
6.333034e-07
2.7548434e-08
6.1628572e-07
2.4668304e-08
6.0708839e-07
2.2036961e-08
6.0088966e-07
1.9598445e-08
5.9605922e-07
1.7342776e-08
5.9222181e-07
1.5253332e-08
5.8916525e-07
1.3311523e-08
5.8671936e-07
1.1499003e-08
5.847571e-07
9.7980373e-09
5.8318451e-07
8.1916092e-09
5.8193123e-07
6.6634862e-09
5.8094435e-07
5.1982108e-09
5.8018422e-07
3.7810258e-09
5.7962152e-07
2.3977539e-09
5.792353e-07
1.0346463e-09
5.790116e-07
-3.2178786e-10
5.7894257e-07
-1.6849604e-09
5.7902597e-07
-3.0683917e-09
5.7926511e-07
-4.4858913e-09
5.7966899e-07
-5.9517273e-09
5.8025288e-07
-7.4807789e-09
5.8103927e-07
-9.0886591e-09
5.820594e-07
-1.0791791e-08
5.8335541e-07
-1.2607436e-08
5.8498357e-07
-1.4553688e-08
5.870189e-07
-1.6649296e-08
5.8956221e-07
-1.8912748e-08
5.9274953e-07
-2.1359568e-08
5.9675643e-07
-2.4023874e-08
6.0185175e-07
-2.7121791e-08
6.0899218e-07
-3.1067718e-08
6.2139198e-07
-3.4244944e-08
6.3963107e-07
-2.9508118e-08
6.3037665e-07
-1.2550361e-08
4.9989445e-07
1.8457318e-07
7.5653243e-09
1.4067391e-07
2.5782004e-08
4.4224297e-07
3.5382303e-08
6.2220678e-07
3.4131097e-08
6.5705735e-07
3.0081204e-08
6.3735328e-07
2.6819329e-08
6.1954759e-07
2.4167064e-08
6.0974065e-07
2.1735077e-08
6.0332165e-07
1.9449809e-08
5.9834448e-07
1.73069e-08
5.9436472e-07
1.5297457e-08
5.911747e-07
1.3409088e-08
5.8860773e-07
1.1628666e-08
5.8653752e-07
9.9428648e-09
5.8487031e-07
8.338353e-09
5.8353574e-07
6.8019625e-09
5.8248074e-07
5.3207893e-09
5.8166539e-07
3.8822249e-09
5.8106008e-07
2.473938e-09
5.8064359e-07
1.0838187e-09
5.8040172e-07
-3.0010291e-10
5.8032649e-07
-1.6897502e-09
5.8041562e-07
-3.097102e-09
5.8067246e-07
-4.5342864e-09
5.8110617e-07
-6.0136601e-09
5.8173225e-07
-7.5478624e-09
5.8257347e-07
-9.1498347e-09
5.8366137e-07
-1.0832785e-08
5.8503836e-07
-1.2610099e-08
5.8676088e-07
-1.4495219e-08
5.8890402e-07
-1.650134e-08
5.9156833e-07
-1.8640074e-08
5.9488826e-07
-2.0919943e-08
5.990363e-07
-2.338009e-08
6.043119e-07
-2.6249935e-08
6.1186202e-07
-2.9781525e-08
6.2492357e-07
-3.1916078e-08
6.4176563e-07
-2.6083349e-08
6.2454393e-07
-1.0105324e-08
4.8391643e-07
1.7446786e-07
6.010456e-09
1.3466355e-07
2.2509786e-08
4.2574384e-07
3.2662132e-08
6.1205456e-07
3.2590604e-08
6.5712889e-07
2.9080816e-08
6.4086305e-07
2.6037655e-08
6.2259075e-07
2.3581065e-08
6.1219724e-07
2.1331001e-08
6.0557171e-07
1.919289e-08
6.0048259e-07
1.716326e-08
5.9639435e-07
1.5238722e-08
5.9309924e-07
1.3411631e-08
5.9043482e-07
1.1672988e-08
5.8827616e-07
1.0013107e-08
5.8653019e-07
8.4218261e-09
5.8512702e-07
6.8887139e-09
5.8401386e-07
5.4032293e-09
5.8315088e-07
3.9548201e-09
5.8250849e-07
2.5329755e-09
5.8206543e-07
1.1272416e-09
5.8180745e-07
-2.727898e-10
5.8172652e-07
-1.6775054e-09
5.8182033e-07
-3.0973028e-09
5.8209226e-07
-4.5426142e-09
5.8255148e-07
-6.0239142e-09
5.8321355e-07
-7.5517002e-09
5.8410126e-07
-9.1364375e-09
5.8524611e-07
-1.0788453e-08
5.8669037e-07
-1.2517776e-08
5.8849021e-07
-1.4333961e-08
5.9072021e-07
-1.6245712e-08
5.9348008e-07
-1.8259343e-08
5.9690189e-07
-2.0379455e-08
6.0115641e-07
-2.2653764e-08
6.0658621e-07
-2.5313852e-08
6.1452211e-07
-2.8433278e-08
6.2804299e-07
-2.9633184e-08
6.4296553e-07
-2.3037165e-08
6.1794791e-07
-8.1556603e-09
4.6903492e-07
1.663122e-07
4.8685505e-09
1.2979512e-07
1.9766454e-08
4.1084617e-07
3.0164926e-08
6.0165624e-07
3.1083172e-08
6.5621067e-07
2.8091785e-08
6.4385442e-07
2.5245675e-08
6.2543685e-07
2.2952409e-08
6.1449051e-07
2.0862761e-08
6.0766136e-07
1.8860943e-08
6.0248441e-07
1.6940397e-08
5.983149e-07
1.5101182e-08
5.9493845e-07
1.3339094e-08
5.9219691e-07
1.1648242e-08
5.8996702e-07
1.002182e-08
5.8815661e-07
8.4522897e-09
5.8669655e-07
6.9315788e-09
5.8553457e-07
5.4512547e-09
5.846312e-07
4.0026595e-09
5.8395709e-07
2.5770061e-09
5.8349108e-07
1.1654427e-09
5.8321902e-07
-2.409067e-10
5.8313287e-07
-1.6509151e-09
5.8323034e-07
-3.0734307e-09
5.8351477e-07
-4.5172473e-09
5.839953e-07
-5.99106e-09
5.8468736e-07
-7.5033945e-09
5.8561359e-07
-9.0625039e-09
5.8680522e-07
-1.0676226e-08
5.883041e-07
-1.2351798e-08
5.9016578e-07
-1.4095668e-08
5.9246408e-07
-1.5913077e-08
5.9529749e-07
-1.7806569e-08
5.9879539e-07
-1.9779632e-08
6.0312947e-07
-2.1890283e-08
6.0869686e-07
-2.4360253e-08
6.1699208e-07
-2.7081701e-08
6.3076444e-07
-2.7468348e-08
6.4335218e-07
-2.0378917e-08
6.1085847e-07
-6.6257131e-09
4.5528172e-07
1.5968648e-07
4.0372473e-09
1.25758e-07
1.7479521e-08
3.9740419e-07
2.7904636e-08
5.9123134e-07
2.9639411e-08
6.5447594e-07
2.7137286e-08
6.4635652e-07
2.4470553e-08
6.2810357e-07
2.2311214e-08
6.1664984e-07
2.0359409e-08
6.0961316e-07
1.8480516e-08
6.043633e-07
1.6661919e-08
6.0013349e-07
1.4905349e-08
5.9669502e-07
1.3208935e-08
5.9389332e-07
1.1569009e-08
5.9160694e-07
9.9809461e-09
5.8974468e-07
8.4393038e-09
5.882382e-07
6.9379757e-09
5.8703589e-07
5.4703529e-09
5.8609882e-07
4.0294687e-09
5.8539797e-07
2.6081152e-09
5.8491244e-07
1.1989382e-09
5.8462819e-07
-2.0548929e-10
5.845373e-07
-1.612602e-09
5.8463745e-07
-3.0297837e-09
5.8493195e-07
-4.4642998e-09
5.8542982e-07
-5.9232181e-09
5.8614628e-07
-7.4133072e-09
5.8710368e-07
-8.9409089e-09
5.8833282e-07
-1.0511784e-08
5.8987497e-07
-1.2130936e-08
5.9178493e-07
-1.3802439e-08
5.9413558e-07
-1.5529002e-08
5.9702405e-07
-1.7310768e-08
6.0057715e-07
-1.9152412e-08
6.0497112e-07
-2.1122339e-08
6.1066679e-07
-2.3421099e-08
6.1929084e-07
-2.5766528e-08
6.3310987e-07
-2.5461313e-08
6.4304696e-07
-1.8090061e-08
6.0348722e-07
-5.4411068e-09
4.4263277e-07
1.5424538e-07
3.4338698e-09
1.223243e-07
1.5575171e-08
3.8526323e-07
2.587463e-08
5.8093214e-07
2.8274719e-08
6.5207591e-07
2.6229161e-08
6.4840206e-07
2.3728149e-08
6.3060457e-07
2.1677765e-08
6.1870022e-07
1.9842139e-08
6.1144879e-07
1.8072005e-08
6.0613344e-07
1.6346712e-08
6.0185879e-07
1.4668181e-08
5.9837355e-07
1.3035991e-08
5.9552551e-07
1.1447975e-08
5.9319496e-07
9.9010876e-09
5.9129156e-07
8.3915017e-09
5.8974778e-07
6.9147006e-09
5.885127e-07
5.4656098e-09
5.8754791e-07
4.038731e-09
5.8682485e-07
2.6282641e-09
5.863229e-07
1.2282138e-09
5.8602824e-07
-1.6751569e-10
5.8593303e-07
-1.5650342e-09
5.8603497e-07
-2.9703822e-09
5.863373e-07
-4.3894408e-09
5.8684888e-07
-5.8278325e-09
5.8758467e-07
-7.2908046e-09
5.8856665e-07
-8.7830962e-09
5.8982511e-07
-1.0308792e-08
5.9140067e-07
-1.1871176e-08
5.9334731e-07
-1.3472591e-08
5.9573699e-07
-1.5114006e-08
5.9866547e-07
-1.6794333e-08
6.0225748e-07
-1.8521178e-08
6.0669796e-07
-2.0372131e-08
6.1251774e-07
-2.2516852e-08
6.2143556e-07
-2.4512595e-08
6.3510561e-07
-2.3628895e-08
6.4216326e-07
-1.6136607e-08
5.9599493e-07
-4.5334284e-09
4.3102959e-07
1.4971195e-07
2.9937869e-09
1.193307e-07
1.398493e-08
3.7427249e-07
2.4057039e-08
5.7086036e-07
2.699423e-08
6.4913882e-07
2.537177e-08
6.500245e-07
2.3026458e-08
6.3294986e-07
2.1064891e-08
6.2066179e-07
1.9325801e-08
6.1318788e-07
1.7650566e-08
6.0780867e-07
1.600943e-08
6.0349992e-07
1.4403307e-08
5.9997968e-07
1.2832534e-08
5.9709628e-07
1.1295887e-08
5.947316e-07
9.7914087e-09
5.9279604e-07
8.316472e-09
5.9122272e-07
6.8678103e-09
5.8996136e-07
5.4416078e-09
5.8897412e-07
4.0336114e-09
5.8823285e-07
2.6392444e-09
5.8771727e-07
1.2537152e-09
5.8741377e-07
-1.2788107e-10
5.8731463e-07
-1.5104647e-09
5.8741756e-07
-2.8988764e-09
5.8772571e-07
-4.2977753e-09
5.8824777e-07
-5.7115324e-09
5.8899843e-07
-7.1441125e-09
5.8999923e-07
-8.5989485e-09
5.9127994e-07
-1.0078816e-08
5.9288053e-07
-1.1585729e-08
5.9485423e-07
-1.3120832e-08
5.972721e-07
-1.4684011e-08
6.0022865e-07
-1.6273917e-08
6.0384738e-07
-1.7902271e-08
6.0832632e-07
-1.9653722e-08
6.1426919e-07
-2.1659349e-08
6.2344119e-07
-2.3333362e-08
6.3677962e-07
-2.1972247e-08
6.4080215e-07
-1.4477504e-08
5.8850019e-07
-3.8427788e-09
4.2039486e-07
1.4586917e-07
2.6681597e-09
1.1666277e-07
1.2649048e-08
3.6429209e-07
2.2429101e-08
5.6108071e-07
2.5796561e-08
6.457715e-07
2.4564691e-08
6.5125635e-07
2.2368163e-08
6.3514636e-07
2.0479977e-08
6.2254996e-07
1.8820349e-08
6.1484751e-07
1.7227118e-08
6.094019e-07
1.5661154e-08
6.0506589e-07
1.4121418e-08
6.0151941e-07
1.260848e-08
5.9860922e-07
1.1121641e-08
5.9621844e-07
9.6596476e-09
5.9425804e-07
8.2207291e-09
5.9266164e-07
6.8025749e-09
5.9137951e-07
5.4023772e-09
5.9037431e-07
4.0169154e-09
5.8961831e-07
2.6426539e-09
5.8909153e-07
1.275843e-09
5.8878058e-07
-8.7380927e-11
5.8867785e-07
-1.4508948e-09
5.8878107e-07
-2.8184923e-09
5.8909331e-07
-4.1937791e-09
5.8962306e-07
-5.5800682e-09
5.9038472e-07
-6.9802694e-09
5.9139943e-07
-8.39678e-09
5.9269645e-07
-9.831389e-09
5.9431514e-07
-1.1285214e-08
5.9630805e-07
-1.2758638e-08
5.9874552e-07
-1.425098e-08
6.0172099e-07
-1.5761409e-08
6.0535781e-07
-1.7306424e-08
6.0987133e-07
-1.8975016e-08
6.1593778e-07
-2.0854048e-08
6.2532022e-07
-2.2233935e-08
6.3815951e-07
-2.0482648e-08
6.3905086e-07
-1.3070236e-08
5.8108778e-07
-3.3187518e-09
4.1064338e-07
1.4255042e-07
2.4212473e-09
1.1424178e-07
1.1517605e-08
3.551963e-07
2.096725e-08
5.5163155e-07
2.4676706e-08
6.4206223e-07
2.3804723e-08
6.5212833e-07
2.1752523e-08
6.3719852e-07
1.9926526e-08
6.2437595e-07
1.8332035e-08
6.16442e-07
1.6809249e-08
6.1092469e-07
1.5310037e-08
6.065651e-07
1.3830707e-08
6.0299874e-07
1.2371667e-08
6.0006826e-07
1.0932447e-08
5.9765766e-07
9.5122028e-09
5.9567828e-07
8.1097491e-09
5.9406409e-07
6.7234834e-09
5.9276578e-07
5.3513872e-09
5.9174641e-07
3.9910784e-09
5.9097862e-07
2.6398891e-09
5.9044272e-07
1.2949531e-09
5.9012552e-07
-4.670198e-11
5.900195e-07
-1.3880565e-09
5.9012242e-07
-2.7320113e-09
5.9043726e-07
-4.0812826e-09
5.9097233e-07
-5.4383089e-09
5.9174174e-07
-6.8051532e-09
5.9276628e-07
-8.1834156e-09
5.9407472e-07
-9.57417e-09
5.957059e-07
-1.0977944e-08
5.9771183e-07
-1.239469e-08
6.0016227e-07
-1.3823565e-08
6.0314986e-07
-1.5264848e-08
6.067991e-07
-1.6740018e-08
6.113465e-07
-1.833939e-08
6.1753715e-07
-2.0101915e-08
6.2708274e-07
-2.1213743e-08
6.3927134e-07
-1.9146034e-08
6.3698315e-07
-1.1874628e-08
5.7381637e-07
-2.9203405e-09
4.0168909e-07
1.3963007e-07
2.2276692e-09
1.1201442e-07
1.0550137e-08
3.468745e-07
1.9649404e-08
5.4253288e-07
2.3628081e-08
6.380838e-07
2.3087357e-08
6.5266905e-07
2.1176807e-08
6.3910903e-07
1.9405405e-08
6.2614734e-07
1.7864403e-08
6.17983e-07
1.6401984e-08
6.1238711e-07
1.4961893e-08
6.0800519e-07
1.3537302e-08
6.0442333e-07
1.2128162e-08
6.014774e-07
1.073403e-08
5.9905179e-07
9.3542631e-09
5.9705805e-07
7.9880465e-09
5.9543031e-07
6.6342864e-09
5.9411954e-07
5.2915674e-09
5.9308913e-07
3.9581745e-09
5.9231201e-07
2.6321488e-09
5.9176875e-07
1.3113593e-09
5.9144631e-07
-6.4166262e-12
5.9133728e-07
-1.3234124e-09
5.9143942e-07
-2.6417748e-09
5.9175563e-07
-3.9634871e-09
5.9229404e-07
-5.2902812e-09
5.9306854e-07
-6.6235575e-09
5.9409955e-07
-7.9643218e-09
5.9541548e-07
-9.3131551e-09
5.9705473e-07
-1.0670232e-08
5.990689e-07
-1.2035325e-08
6.0152736e-07
-1.3407724e-08
6.0452226e-07
-1.4789244e-08
6.0818062e-07
-1.620618e-08
6.1276344e-07
-1.774708e-08
6.1907805e-07
-1.9401007e-08
6.2873667e-07
-2.0268722e-08
6.4013905e-07
-1.7946135e-08
6.3466057e-07
-1.0854794e-08
5.6672503e-07
-2.6150902e-09
3.9344938e-07
1.3701498e-07
2.069939e-09
1.0994484e-07
9.7145275e-09
3.3923069e-07
1.8456009e-08
5.3379211e-07
2.2643805e-08
6.3389633e-07
2.240775e-08
6.5290513e-07
2.0637307e-08
6.4087943e-07
1.8915813e-08
6.2786881e-07
1.741909e-08
6.1947972e-07
1.6008436e-08
6.1379776e-07
1.4620711e-08
6.0939291e-07
1.3245658e-08
6.0579838e-07
1.1882554e-08
6.0284051e-07
1.053085e-08
6.004035e-07
9.1899566e-09
5.9839894e-07
7.8592753e-09
5.9676099e-07
6.5380614e-09
5.9544075e-07
5.2253481e-09
5.9440184e-07
3.9199402e-09
5.9361742e-07
2.6204468e-09
5.9306824e-07
1.3253357e-09
5.9274142e-07
3.3000195e-11
5.9262962e-07
-1.2581682e-09
5.9273059e-07
-2.5497071e-09
5.9304716e-07
-3.8430057e-09
5.9358734e-07
-5.1392369e-09
5.9436477e-07
-6.4392962e-09
5.9539961e-07
-7.7437632e-09
5.9671995e-07
-9.0529017e-09
5.9836387e-07
-1.0366712e-08
6.0038271e-07
-1.1684959e-08
6.0284561e-07
-1.3007288e-08
6.0584459e-07
-1.4337324e-08
6.0951065e-07
-1.5705726e-08
6.1413184e-07
-1.7196297e-08
6.2056862e-07
-1.8747681e-08
6.3028805e-07
-1.9392934e-08
6.4078431e-07
-1.6866414e-08
6.3213405e-07
-9.9796564e-09
5.5983827e-07
-2.3778868e-09
3.8584761e-07
1.346371e-07
1.936385e-09
1.0800887e-07
8.9856461e-09
3.3218233e-07
1.7370331e-08
5.2540828e-07
2.1717403e-08
6.2954966e-07
2.1761298e-08
6.5286128e-07
2.0130017e-08
6.4251066e-07
1.8455984e-08
6.2954282e-07
1.6996454e-08
6.2093925e-07
1.5630337e-08
6.1516388e-07
1.4289098e-08
6.1073415e-07
1.2958916e-08
6.0712856e-07
1.163823e-08
6.0416119e-07
1.0326302e-08
6.0171543e-07
9.022504e-09
5.9970274e-07
7.726339e-09
5.9805715e-07
6.4372891e-09
5.967298e-07
5.1547113e-09
5.9568442e-07
3.8778063e-09
5.9489432e-07
2.6056293e-09
5.9434042e-07
1.3371274e-09
5.9400992e-07
7.1191735e-11
5.9389555e-07
-1.1932865e-09
5.9399507e-07
-2.4573499e-09
5.9431123e-07
-3.7219191e-09
5.9485191e-07
-4.9877361e-09
5.9563059e-07
-6.2553241e-09
5.966672e-07
-7.5249712e-09
5.9798959e-07
-8.7967586e-09
5.9963565e-07
-1.0070639e-08
6.0165659e-07
-1.1346492e-08
6.0412146e-07
-1.2624466e-08
6.0712256e-07
-1.3910155e-08
6.1079634e-07
-1.5237915e-08
6.154596e-07
-1.6684062e-08
6.2201477e-07
-1.8137467e-08
6.3174146e-07
-1.8579671e-08
6.4122651e-07
-1.5891254e-08
6.2944563e-07
-9.2230737e-09
5.5317009e-07
-2.1897565e-09
3.788143e-07
1.3244734e-07
1.8194646e-09
1.0618989e-07
8.3439969e-09
3.2565885e-07
1.637834e-08
5.1737494e-07
2.0843137e-08
6.2508537e-07
2.114392e-08
6.5256058e-07
1.9651028e-08
6.4400351e-07
1.8023663e-08
6.3117015e-07
1.6596031e-08
6.2236687e-07
1.5268454e-08
6.1649146e-07
1.3968635e-08
6.1203397e-07
1.2679197e-08
6.08418e-07
1.1397616e-08
6.0544277e-07
1.0122914e-08
6.0299013e-07
8.854367e-09
6.0097128e-07
7.5915013e-09
5.9932002e-07
6.3339339e-09
5.9798737e-07
5.0812471e-09
5.969371e-07
3.8329347e-09
5.9614263e-07
2.5883946e-09
5.9558496e-07
1.3469492e-09
5.9525137e-07
1.0788273e-10
5.9513462e-07
-1.1295167e-09
5.9523246e-07
-2.3659045e-09
5.9554761e-07
-3.6018384e-09
5.9608784e-07
-4.8377375e-09
5.9686648e-07
-6.0738605e-09
5.9790332e-07
-7.3103098e-09
5.9922604e-07
-8.5470837e-09
6.0087243e-07
-9.7841746e-09
6.0289368e-07
-1.1021654e-08
6.0535894e-07
-1.2260272e-08
6.0836118e-07
-1.3507646e-08
6.1204371e-07
-1.4801028e-08
6.1675298e-07
-1.6206801e-08
6.2342054e-07
-1.7565651e-08
6.3310031e-07
-1.7822194e-08
6.4148305e-07
-1.5006588e-08
6.2663002e-07
-8.5635138e-09
5.4672702e-07
-2.0366986e-09
3.7228748e-07
1.3041064e-07
1.7144563e-09
1.0447598e-07
7.7744948e-09
3.1960004e-07
1.5468391e-08
5.0968223e-07
2.0016098e-08
6.2053829e-07
2.0552161e-08
6.5202463e-07
1.9196748e-08
6.4535886e-07
1.7616416e-08
6.3275045e-07
1.6216864e-08
6.2376642e-07
1.4922893e-08
6.1778543e-07
1.3660164e-08
6.132967e-07
1.2407856e-08
6.0967031e-07
1.116239e-08
6.0668824e-07
9.9225153e-09
6.0423e-07
8.6873836e-09
6.0220642e-07
7.4564914e-09
6.0055091e-07
6.2295234e-09
5.9921433e-07
5.0062098e-09
5.9816042e-07
3.7862547e-09
5.9736259e-07
2.5693129e-09
5.968019e-07
1.3549934e-09
5.9646569e-07
1.4288399e-10
5.9634673e-07
-1.0674195e-09
5.9644277e-07
-2.2762764e-09
5.9675647e-07
-3.4839713e-09
5.9729554e-07
-4.6906895e-09
5.980732e-07
-5.8965108e-09
5.9910914e-07
-7.1014331e-09
6.0043097e-07
-8.3054422e-09
6.0207644e-07
-9.5086265e-09
6.0409687e-07
-1.0711294e-08
6.0656161e-07
-1.1914862e-08
6.0956475e-07
-1.3128941e-08
6.1325779e-07
-1.4392788e-08
6.1801683e-07
-1.5760758e-08
6.2478851e-07
-1.7027664e-08
6.3436721e-07
-1.7114174e-08
6.4156956e-07
-1.4200135e-08
6.2371598e-07
-7.9835167e-09
5.405104e-07
-1.9086102e-09
3.6621258e-07
1.2850203e-07
1.618488e-09
1.0285813e-07
7.2654311e-09
3.139545e-07
1.4630844e-08
5.0231821e-07
1.9232157e-08
6.1593775e-07
1.9983192e-08
6.5127377e-07
1.8764005e-08
6.46578e-07
1.7231826e-08
6.3428258e-07
1.5857719e-08
6.2514051e-07
1.459333e-08
6.1904982e-07
1.3363997e-08
6.1452604e-07
1.2145673e-08
6.1088863e-07
1.0933649e-08
6.0790026e-07
9.7263838e-09
6.0543727e-07
8.5228887e-09
6.0340991e-07
7.3225999e-09
6.017512e-07
6.1252209e-09
6.0041171e-07
4.9305711e-09
5.9935507e-07
3.7384993e-09
5.9855466e-07
2.5488456e-09
5.9799155e-07
1.3614331e-09
5.976531e-07
1.7607749e-10
5.9753208e-07
-1.007394e-09
5.9762624e-07
-2.1891199e-09
5.979382e-07
-3.3691862e-09
5.9847561e-07
-4.5476161e-09
5.9925163e-07
-5.7243783e-09
6.0028591e-07
-6.8994251e-09
6.0160601e-07
-8.0727786e-09
6.0324979e-07
-9.2446553e-09
6.0526874e-07
-1.0415623e-08
6.0773257e-07
-1.1587805e-08
6.1073693e-07
-1.2772709e-08
6.144427e-07
-1.401066e-08
6.1925478e-07
-1.5342264e-08
6.2612012e-07
-1.65193e-08
6.3554425e-07
-1.6449916e-08
6.4150018e-07
-1.34614e-08
6.2072747e-07
-7.469082e-09
5.3451808e-07
-1.7983556e-09
3.6054185e-07
1.2670368e-07
1.5298493e-09
1.0132901e-07
6.8076412e-09
3.0867833e-07
1.3857675e-08
4.952698e-07
1.8487862e-08
6.1130849e-07
1.9434739e-08
6.5032712e-07
1.8350058e-08
6.4766263e-07
1.6867601e-08
6.3576498e-07
1.5517239e-08
6.2649086e-07
1.4279169e-08
6.2028789e-07
1.3080086e-08
6.1572512e-07