/*--------------------------------*- C++ -*----------------------------------*\
  =========                 |
  \\      /  F ield         | OpenFOAM: The Open Source CFD Toolbox
   \\    /   O peration     | Website:  https://openfoam.org
    \\  /    A nd           | Version:  10
     \\/     M anipulation  |
\*---------------------------------------------------------------------------*/
FoamFile
{
    format      ascii;
    class       volScalarField;
    location    "0.21";
    object      T;
}
// * * * * * * * * * * * * * * * * * * * * * * * * * * * * * * * * * * * * * //

dimensions      [0 0 0 1 0 0 0];

internalField   nonuniform List<scalar> 
4000
(
303.10135
299.3429
299.99042
300.00082
299.99993
300
300
300
300
300
300
300
300
300
300
300
300
300
300
300
300
300
300
300
300
300
300
300
300
300
300
300
300
300
300
300
300
300
300
300
309.66346
298.49297
299.77921
300.00184
300.0008
299.99999
300
300
300
300
300
300
300
300
300
300
300
300
300
300
300
300
300
300
300
300
300
300
300
300
300
300
300
300
300
300
300
300
300
300
316.00429
298.68458
299.3922
299.9757
300.00406
300.00025
299.99999
300
300
300
300
300
300
300
300
300
300
300
300
300
300
300
300
300
300
300
300
300
300
300
300
300
300
300
300
300
300
300
300
300
321.74237
299.84594
298.98478
299.89491
300.00716
300.00139
300
299.99999
300
300
300
300
300
300
300
300
300
300
300
300
300
300
300
300
300
300
300
300
300
300
300
300
300
300
300
300
300
300
300
300
326.67123
301.70056
298.70998
299.75312
300.00323
300.00379
300.00017
299.99998
300
300
300
300
300
300
300
300
300
300
300
300
300
300
300
300
300
300
300
300
300
300
300
300
300
300
300
300
300
300
300
300
330.68523
303.94816
298.66325
299.56828
299.98427
300.00697
300.00072
299.99997
299.99999
300
300
300
300
300
300
300
300
300
300
300
300
300
300
300
300
300
300
300
300
300
300
300
300
300
300
300
300
300
300
300
333.77462
306.331
298.87089
299.37367
299.94517
300.00938
300.00181
300
299.99998
300
300
300
300
300
300
300
300
300
300
300
300
300
300
300
300
300
300
300
300
300
300
300
300
300
300
300
300
300
300
300
336.02215
308.66456
299.3078
299.20378
299.88578
300.00891
300.00346
300.00014
299.99997
300
300
300
300
300
300
300
300
300
300
300
300
300
300
300
300
300
300
300
300
300
300
300
300
300
300
300
300
300
300
300
337.57437
310.838
299.92425
299.08457
299.81048
300.00353
300.00542
300.00046
299.99996
299.99999
300
300
300
300
300
300
300
300
300
300
300
300
300
300
300
300
300
300
300
300
300
300
300
300
300
300
300
300
300
300
338.60263
312.79858
300.6657
299.03052
299.7263
299.99192
300.00725
300.001
299.99996
299.99998
300
300
300
300
300
300
300
300
300
300
300
300
300
300
300
300
300
300
300
300
300
300
300
300
300
300
300
300
300
300
339.26965
314.5334
301.48351
299.04602
299.64099
299.97368
300.00841
300.00176
300.00001
299.99997
300
300
300
300
300
300
300
300
300
300
300
300
300
300
300
300
300
300
300
300
300
300
300
300
300
300
300
300
300
300
339.70874
316.05373
302.33931
299.12841
299.56157
299.94926
300.00835
300.00269
300.00012
299.99996
300
300
300
300
300
300
300
300
300
300
300
300
300
300
300
300
300
300
300
300
300
300
300
300
300
300
300
300
300
300
340.01651
317.38302
303.20548
299.271
299.49362
299.91973
300.00662
300.00368
300.0003
299.99996
299.99999
300
300
300
300
300
300
300
300
300
300
300
300
300
300
300
300
300
300
300
300
300
300
300
300
300
300
300
300
300
340.25563
318.54876
304.0636
299.46541
299.44111
299.88656
300.00294
300.00462
300.00057
299.99996
299.99999
300
300
300
300
300
300
300
300
300
300
300
300
300
300
300
300
300
300
300
300
300
300
300
300
300
300
300
300
300
340.46255
319.57779
304.90233
299.70306
299.40648
299.85135
299.99716
300.00535
300.0009
299.99998
299.99998
300
300
300
300
300
300
300
300
300
300
300
300
300
300
300
300
300
300
300
300
300
300
300
300
300
300
300
300
300
340.65602
320.49396
305.7153
299.97604
299.391
299.81569
299.98929
300.00575
300.0013
300.00003
299.99998
300
300
300
300
300
300
300
300
300
300
300
300
300
300
300
300
300
300
300
300
300
300
300
300
300
300
300
300
300
340.84407
321.31729
306.49941
300.2774
299.39501
299.78105
299.97947
300.00568
300.00174
300.0001
299.99997
300
300
300
300
300
300
300
300
300
300
300
300
300
300
300
300
300
300
300
300
300
300
300
300
300
300
300
300
300
341.02903
322.06401
307.25364
300.60126
299.41825
299.74871
299.96794
300.00505
300.00218
300.00019
299.99997
299.99999
300
300
300
300
300
300
300
300
300
300
300
300
300
300
300
300
300
300
300
300
300
300
300
300
300
300
300
300
341.21055
322.74694
307.97813
300.94268
299.46004
299.71977
299.95498
300.00378
300.00258
300.00031
299.99998
299.99999
300
300
300
300
300
300
300
300
300
300
300
300
300
300
300
300
300
300
300
300
300
300
300
300
300
300
300
300
341.38739
323.37607
308.67368
301.29759
299.51944
299.69512
299.94094
300.00182
300.00292
300.00046
299.99999
299.99999
300
300
300
300
300
300
300
300
300
300
300
300
300
300
300
300
300
300
300
300
300
300
300
300
300
300
300
300
341.55825
323.95918
309.34138
301.66261
299.59535
299.67549
299.92619
299.99915
300.00316
300.00062
300.00001
299.99999
300
300
300
300
300
300
300
300
300
300
300
300
300
300
300
300
300
300
300
300
300
300
300
300
300
300
300
300
341.72217
324.5023
309.98242
302.03494
299.68662
299.66144
299.91108
299.99579
300.00325
300.0008
300.00004
299.99998
300
300
300
300
300
300
300
300
300
300
300
300
300
300
300
300
300
300
300
300
300
300
300
300
300
300
300
300
341.87855
325.0102
310.59802
302.41224
299.79207
299.65337
299.89599
299.99176
300.00317
300.00099
300.00007
299.99998
300
300
300
300
300
300
300
300
300
300
300
300
300
300
300
300
300
300
300
300
300
300
300
300
300
300
300
300
342.02717
325.48669
311.18934
302.79256
299.91053
299.65159
299.88127
299.98711
300.00289
300.00116
300.00012
299.99999
300
300
300
300
300
300
300
300
300
300
300
300
300
300
300
300
300
300
300
300
300
300
300
300
300
300
300
300
342.16807
325.93491
311.7575
303.17424
300.04084
299.65627
299.86725
299.98191
300.00239
300.00133
300.00017
299.99999
299.99999
300
300
300
300
300
300
300
300
300
300
300
300
300
300
300
300
300
300
300
300
300
300
300
300
300
300
300
342.30151
326.35748
312.30357
303.55592
300.18191
299.66751
299.85423
299.97623
300.00166
300.00146
300.00024
300
299.99999
300
300
300
300
300
300
300
300
300
300
300
300
300
300
300
300
300
300
300
300
300
300
300
300
300
300
300
342.42785
326.75663
312.82853
303.93643
300.3327
299.68532
299.84252
299.97017
300.00067
300.00156
300.0003
300.00001
299.99999
300
300
300
300
300
300
300
300
300
300
300
300
300
300
300
300
300
300
300
300
300
300
300
300
300
300
300
342.54752
327.13431
313.33336
304.31478
300.49219
299.70967
299.83235
299.96382
299.99943
300.00161
300.00038
300.00002
299.99999
300
300
300
300
300
300
300
300
300
300
300
300
300
300
300
300
300
300
300
300
300
300
300
300
300
300
300
342.66095
327.49227
313.81896
304.69015
300.65946
299.74044
299.82396
299.95729
299.99794
300.00161
300.00045
300.00003
299.99999
300
300
300
300
300
300
300
300
300
300
300
300
300
300
300
300
300
300
300
300
300
300
300
300
300
300
300
342.7686
327.83201
314.2862
305.06185
300.83363
299.77751
299.81755
299.95068
299.99621
300.00153
300.00052
300.00005
299.99999
300
300
300
300
300
300
300
300
300
300
300
300
300
300
300
300
300
300
300
300
300
300
300
300
300
300
300
342.87087
328.15493
314.73591
305.4293
301.01387
299.82069
299.81329
299.9441
299.99425
300.00138
300.00059
300.00007
300
300
300
300
300
300
300
300
300
300
300
300
300
300
300
300
300
300
300
300
300
300
300
300
300
300
300
300
342.96815
328.46225
315.16889
305.79201
301.19942
299.86977
299.81133
299.93766
299.99207
300.00115
300.00064
300.0001
300
300
300
300
300
300
300
300
300
300
300
300
300
300
300
300
300
300
300
300
300
300
300
300
300
300
300
300
343.06079
328.75507
315.58588
306.14958
301.38956
299.92454
299.81179
299.93146
299.98971
300.00083
300.00069
300.00012
300
300
300
300
300
300
300
300
300
300
300
300
300
300
300
300
300
300
300
300
300
300
300
300
300
300
300
300
343.14909
329.03439
315.9876
306.50169
301.58364
299.98474
299.81476
299.92561
299.98717
300.00042
300.00072
300.00015
300.00001
300
300
300
300
300
300
300
300
300
300
300
300
300
300
300
300
300
300
300
300
300
300
300
300
300
300
300
343.23334
329.30108
316.37472
306.84805
301.78102
300.05013
299.82033
299.92021
299.98449
299.99992
300.00073
300.00018
300.00001
300
300
300
300
300
300
300
300
300
300
300
300
300
300
300
300
300
300
300
300
300
300
300
300
300
300
300
343.31376
329.55594
316.74787
307.18846
301.98114
300.12044
299.82855
299.91534
299.98171
299.99932
300.00073
300.00021
300.00002
300
300
300
300
300
300
300
300
300
300
300
300
300
300
300
300
300
300
300
300
300
300
300
300
300
300
300
343.39057
329.79966
317.10763
307.52271
302.18348
300.19539
299.83945
299.91111
299.97885
299.99863
300.00069
300.00023
300.00003
300
300
300
300
300
300
300
300
300
300
300
300
300
300
300
300
300
300
300
300
300
300
300
300
300
300
300
343.46396
330.03287
317.45456
307.85068
302.38752
300.27472
299.85305
299.90759
299.97595
299.99785
300.00063
300.00026
300.00004
300
300
300
300
300
300
300
300
300
300
300
300
300
300
300
300
300
300
300
300
300
300
300
300
300
300
300
343.53406
330.25611
317.78914
308.17224
302.59282
300.35815
299.86935
299.90485
299.97304
299.99698
300.00054
300.00028
300.00005
300
300
300
300
300
300
300
300
300
300
300
300
300
300
300
300
300
300
300
300
300
300
300
300
300
300
300
343.60101
330.46985
318.11185
308.48728
302.79895
300.4454
299.88835
299.90298
299.97017
299.99603
300.00042
300.00029
300.00006
300
300
300
300
300
300
300
300
300
300
300
300
300
300
300
300
300
300
300
300
300
300
300
300
300
300
300
343.66491
330.67451
318.4231
308.79574
303.00549
300.53621
299.91002
299.90203
299.96737
299.99501
300.00026
300.00031
300.00007
300
300
300
300
300
300
300
300
300
300
300
300
300
300
300
300
300
300
300
300
300
300
300
300
300
300
300
343.72586
330.87044
318.72328
309.09753
303.21208
300.63029
299.93431
299.90206
299.96467
299.99392
300.00007
300.00031
300.00008
300.00001
300
300
300
300
300
300
300
300
300
300
300
300
300
300
300
300
300
300
300
300
300
300
300
300
300
300
343.7839
331.05793
319.0127
309.39259
303.41835
300.72738
299.96119
299.90313
299.96213
299.99277
299.99985
300.00031
300.00009
300.00001
300
300
300
300
300
300
300
300
300
300
300
300
300
300
300
300
300
300
300
300
300
300
300
300
300
300
343.83908
331.23724
319.29168
309.68088
303.62398
300.8272
299.99058
299.90526
299.95976
299.99158
299.99958
300.00029
300.0001
300.00001
300
300
300
300
300
300
300
300
300
300
300
300
300
300
300
300
300
300
300
300
300
300
300
300
300
300
343.89144
331.40854
319.56045
309.96232
303.82864
300.92951
300.02242
299.90851
299.95761
299.99035
299.99929
300.00027
300.0001
300.00002
300
300
300
300
300
300
300
300
300
300
300
300
300
300
300
300
300
300
300
300
300
300
300
300
300
300
343.94097
331.57199
319.81924
310.23687
304.03204
301.03402
300.05663
299.9129
299.95572
299.9891
299.99895
300.00024
300.00011
300.00002
300
300
300
300
300
300
300
300
300
300
300
300
300
300
300
300
300
300
300
300
300
300
300
300
300
300
343.98767
331.72768
320.06821
310.50446
304.23387
301.14048
300.09313
299.91846
299.95412
299.98784
299.99859
300.0002
300.00012
300.00002
300
300
300
300
300
300
300
300
300
300
300
300
300
300
300
300
300
300
300
300
300
300
300
300
300
300
344.03151
331.87565
320.30748
310.76502
304.43386
301.24864
300.13182
299.9252
299.95283
299.98658
299.99819
300.00014
300.00012
300.00003
300
300
300
300
300
300
300
300
300
300
300
300
300
300
300
300
300
300
300
300
300
300
300
300
300
300
344.07246
332.0159
320.53715
311.01847
304.63174
301.35823
300.1726
299.93313
299.9519
299.98534
299.99777
300.00007
300.00012
300.00003
300
300
300
300
300
300
300
300
300
300
300
300
300
300
300
300
300
300
300
300
300
300
300
300
300
300
344.11048
332.14839
320.75724
311.26472
304.82724
301.46901
300.21537
299.94225
299.95134
299.98414
299.99731
299.99999
300.00012
300.00003
300
300
300
300
300
300
300
300
300
300
300
300
300
300
300
300
300
300
300
300
300
300
300
300
300
300
344.14551
332.27304
320.96775
311.50365
305.02009
301.58073
300.26
299.95257
299.95119
299.98298
299.99684
299.99989
300.00012
300.00004
300.00001
300
300
300
300
300
300
300
300
300
300
300
300
300
300
300
300
300
300
300
300
300
300
300
300
300
344.17749
332.38973
321.16864
311.73515
305.21004
301.69313
300.30638
299.96407
299.95146
299.98188
299.99634
299.99978
300.00011
300.00004
300.00001
300
300
300
300
300
300
300
300
300
300
300
300
300
300
300
300
300
300
300
300
300
300
300
300
300
344.20638
332.49829
321.35979
311.95907
305.39683
301.80596
300.3544
299.97674
299.95218
299.98086
299.99583
299.99966
300.0001
300.00004
300.00001
300
300
300
300
300
300
300
300
300
300
300
300
300
300
300
300
300
300
300
300
300
300
300
300
300
344.23214
332.59856
321.54107
312.17524
305.58018
301.91897
300.4039
299.99057
299.95337
299.97993
299.99531
299.99952
300.00008
300.00004
300.00001
300
300
300
300
300
300
300
300
300
300
300
300
300
300
300
300
300
300
300
300
300
300
300
300
300
344.25473
332.69035
321.71229
312.38347
305.75985
302.03192
300.45477
300.00551
299.95505
299.9791
299.99479
299.99937
300.00006
300.00005
300.00001
300
300
300
300
300
300
300
300
300
300
300
300
300
300
300
300
300
300
300
300
300
300
300
300
300
344.27416
332.77348
321.87324
312.58354
305.93556
302.14455
300.50686
300.02154
299.95721
299.97839
299.99426
299.99921
300.00004
300.00005
300.00001
300
300
300
300
300
300
300
300
300
300
300
300
300
300
300
300
300
300
300
300
300
300
300
300
300
344.29047
332.8478
322.02367
312.77521
306.10702
302.25661
300.56002
300.03863
299.95989
299.97782
299.99374
299.99904
300.00001
300.00005
300.00001
300
300
300
300
300
300
300
300
300
300
300
300
300
300
300
300
300
300
300
300
300
300
300
300
300
344.30372
332.9132
322.1633
312.95822
306.27397
302.36785
300.61412
300.05672
299.96307
299.97738
299.99323
299.99886
299.99997
300.00004
300.00001
300
300
300
300
300
300
300
300
300
300
300
300
300
300
300
300
300
300
300
300
300
300
300
300
300
344.31402
332.96966
322.29188
313.13228
306.43611
302.47801
300.66899
300.07577
299.96678
299.97711
299.99274
299.99867
299.99993
300.00004
300.00001
300
300
300
300
300
300
300
300
300
300
300
300
300
300
300
300
300
300
300
300
300
300
300
300
300
344.32154
333.01723
322.40915
313.29708
306.59313
302.58683
300.72447
300.09573
299.97099
299.977
299.99226
299.99848
299.99989
300.00004
300.00002
300
300
300
300
300
300
300
300
300
300
300
300
300
300
300
300
300
300
300
300
300
300
300
300
300
344.32648
333.05611
322.51492
313.45232
306.74475
302.69407
300.78042
300.11654
299.97572
299.97707
299.99182
299.99828
299.99984
300.00003
300.00002
300
300
300
300
300
300
300
300
300
300
300
300
300
300
300
300
300
300
300
300
300
300
300
300
300
344.32909
333.08661
322.60907
313.59771
306.89066
302.79945
300.83666
300.13813
299.98096
299.97732
299.99141
299.99807
299.99979
300.00002
300.00002
300
300
300
300
300
300
300
300
300
300
300
300
300
300
300
300
300
300
300
300
300
300
300
300
300
344.32967
333.10921
322.69156
313.73295
307.03055
302.90273
300.89304
300.16044
299.9867
299.97777
299.99103
299.99786
299.99973
300.00001
300.00002
300
300
300
300
300
300
300
300
300
300
300
300
300
300
300
300
300
300
300
300
300
300
300
300
300
344.32852
333.12451
322.7625
313.85783
307.16413
303.00366
300.94939
300.1834
299.99292
299.97841
299.9907
299.99766
299.99967
300
300.00002
300
300
300
300
300
300
300
300
300
300
300
300
300
300
300
300
300
300
300
300
300
300
300
300
300
344.32599
333.13326
322.82215
313.97216
307.29113
303.10199
301.00555
300.20693
299.99961
299.97926
299.99043
299.99745
299.9996
299.99999
300.00001
300
300
300
300
300
300
300
300
300
300
300
300
300
300
300
300
300
300
300
300
300
300
300
300
300
344.3224
333.13631
322.87095
314.07585
307.4113
303.19748
301.06135
300.23097
300.00676
299.98032
299.9902
299.99725
299.99953
299.99998
300.00001
300
300
300
300
300
300
300
300
300
300
300
300
300
300
300
300
300
300
300
300
300
300
300
300
300
344.31808
333.13461
322.9095
314.16893
307.52445
303.28992
301.11663
300.25543
300.01434
299.98158
299.99004
299.99705
299.99946
299.99996
300.00001
300.00001
300
300
300
300
300
300
300
300
300
300
300
300
300
300
300
300
300
300
300
300
300
300
300
300
344.31335
333.12914
322.93862
314.25154
307.63041
303.3791
301.17126
300.28023
300.02233
299.98305
299.98993
299.99686
299.99939
299.99994
300.00001
300.00001
300
300
300
300
300
300
300
300
300
300
300
300
300
300
300
300
300
300
300
300
300
300
300
300
344.30846
333.1209
322.95928
314.32399
307.7291
303.46486
301.22507
300.3053
300.0307
299.98474
299.9899
299.99669
299.99931
299.99993
300.00001
300.00001
300
300
300
300
300
300
300
300
300
300
300
300
300
300
300
300
300
300
300
300
300
300
300
300
344.30365
333.11086
322.9726
314.38673
307.82051
303.54704
301.27795
300.33056
300.03944
299.98663
299.98994
299.99652
299.99923
299.99991
300
300.00001
300
300
300
300
300
300
300
300
300
300
300
300
300
300
300
300
300
300
300
300
300
300
300
300
344.29909
333.09992
322.97982
314.44036
307.90473
303.62553
301.32976
300.35593
300.0485
299.98872
299.99004
299.99637
299.99915
299.99988
300
300
300
300
300
300
300
300
300
300
300
300
300
300
300
300
300
300
300
300
300
300
300
300
300
300
344.29489
333.08885
322.98225
314.48564
307.98192
303.70028
301.38039
300.38135
300.05787
299.99101
299.99023
299.99624
299.99908
299.99986
300
300
300
300
300
300
300
300
300
300
300
300
300
300
300
300
300
300
300
300
300
300
300
300
300
300
344.29112
333.0783
322.9812
314.52349
308.05236
303.77125
301.42977
300.40675
300.06751
299.99349
299.99049
299.99612
299.999
299.99984
299.99999
300
300
300
300
300
300
300
300
300
300
300
300
300
300
300
300
300
300
300
300
300
300
300
300
300
344.28777
333.06873
322.97795
314.55489
308.11642
303.83847
301.47782
300.43206
300.0774
299.99617
299.99083
299.99603
299.99893
299.99981
299.99999
300
300
300
300
300
300
300
300
300
300
300
300
300
300
300
300
300
300
300
300
300
300
300
300
300
344.28479
333.06044
322.97365
314.58092
308.17455
303.90201
301.52447
300.45723
300.0875
299.99902
299.99124
299.99595
299.99885
299.99978
299.99998
300
300
300
300
300
300
300
300
300
300
300
300
300
300
300
300
300
300
300
300
300
300
300
300
300
344.28209
333.05352
322.96932
314.60269
308.22729
303.96199
301.56971
300.48221
300.09779
300.00204
299.99174
299.9959
299.99878
299.99976
299.99997
300
300
300
300
300
300
300
300
300
300
300
300
300
300
300
300
300
300
300
300
300
300
300
300
300
344.27954
333.04789
322.96573
314.62127
308.27522
304.01858
301.61351
300.50694
300.10824
300.00523
299.99231
299.99587
299.99872
299.99973
299.99997
300
300
300
300
300
300
300
300
300
300
300
300
300
300
300
300
300
300
300
300
300
300
300
300
300
344.27699
333.04331
322.96343
314.63769
308.31899
304.07196
301.65588
300.5314
300.11883
300.00856
299.99297
299.99586
299.99866
299.9997
299.99996
300
300
300
300
300
300
300
300
300
300
300
300
300
300
300
300
300
300
300
300
300
300
300
300
300
344.27427
333.03939
322.9627
314.65283
308.35922
304.12238
301.69684
300.55556
300.12953
300.01205
299.9937
299.99588
299.9986
299.99967
299.99995
300
300
300
300
300
300
300
300
300
300
300
300
300
300
300
300
300
300
300
300
300
300
300
300
300
344.27124
333.03567
322.96353
314.66743
308.39655
304.17007
301.73642
300.57938
300.14032
300.01567
299.9945
299.99593
299.99855
299.99965
299.99994
300
300
300
300
300
300
300
300
300
300
300
300
300
300
300
300
300
300
300
300
300
300
300
300
300
344.26774
333.03161
322.96566
314.68202
308.43155
304.21531
301.77469
300.60284
300.15117
300.01942
299.99538
299.99601
299.9985
299.99962
299.99993
299.99999
300
300
300
300
300
300
300
300
300
300
300
300
300
300
300
300
300
300
300
300
300
300
300
300
344.26368
333.02666
322.96862
314.69693
308.46474
304.25836
301.81169
300.62595
300.16207
300.02329
299.99633
299.99611
299.99846
299.99959
299.99992
299.99999
300
300
300
300
300
300
300
300
300
300
300
300
300
300
300
300
300
300
300
300
300
300
300
300
344.25896
333.02033
322.97175
314.71225
308.49653
304.29945
301.84748
300.64867
300.17301
300.02726
299.99736
299.99624
299.99843
299.99957
299.99991
299.99999
300
300
300
300
300
300
300
300
300
300
300
300
300
300
300
300
300
300
300
300
300
300
300
300
344.25355
333.01218
322.97427
314.72784
308.52724
304.33883
301.88214
300.67102
300.18395
300.03134
299.99845
299.99639
299.99841
299.99954
299.99991
299.99999
300
300
300
300
300
300
300
300
300
300
300
300
300
300
300
300
300
300
300
300
300
300
300
300
344.24744
333.00185
322.97536
314.74338
308.55705
304.37667
301.91572
300.69297
300.1949
300.03551
299.99961
299.99658
299.99839
299.99952
299.9999
299.99998
300
300
300
300
300
300
300
300
300
300
300
300
300
300
300
300
300
300
300
300
300
300
300
300
344.24067
332.98914
322.97422
314.75836
308.586
304.41313
301.94828
300.71454
300.20582
300.03976
300.00083
299.99679
299.99838
299.99949
299.99989
299.99998
300
300
300
300
300
300
300
300
300
300
300
300
300
300
300
300
300
300
300
300
300
300
300
300
344.23331
332.97395
322.97012
314.77215
308.61405
304.44832
301.97987
300.7357
300.21671
300.04409
300.00211
299.99704
299.99838
299.99947
299.99988
299.99998
300
300
300
300
300
300
300
300
300
300
300
300
300
300
300
300
300
300
300
300
300
300
300
300
344.22544
332.95633
322.96247
314.78408
308.64099
304.48228
302.01053
300.75647
300.22756
300.04849
300.00345
299.99731
299.99839
299.99945
299.99987
299.99998
300
300
300
300
300
300
300
300
300
300
300
300
300
300
300
300
300
300
300
300
300
300
300
300
344.21718
332.93643
322.95086
314.79343
308.66657
304.51504
302.04028
300.77684
300.23835
300.05294
300.00485
299.99761
299.99841
299.99944
299.99986
299.99997
300
300
300
300
300
300
300
300
300
300
300
300
300
300
300
300
300
300
300
300
300
300
300
300
344.20865
332.91451
322.93505
314.79952
308.69041
304.54654
302.06915
300.79681
300.24907
300.05745
300.0063
299.99793
299.99844
299.99942
299.99985
299.99997
300
300
300
300
300
300
300
300
300
300
300
300
300
300
300
300
300
300
300
300
300
300
300
300
344.2
332.89089
322.91501
314.80179
308.71213
304.57669
302.09715
300.81637
300.25971
300.06199
300.0078
299.99828
299.99848
299.99941
299.99984
299.99997
300
300
300
300
300
300
300
300
300
300
300
300
300
300
300
300
300
300
300
300
300
300
300
300
344.19133
332.86597
322.89092
314.79979
308.73128
304.60538
302.12427
300.83554
300.27027
300.06658
300.00935
299.99866
299.99852
299.9994
299.99983
299.99996
299.99999
300
300
300
300
300
300
300
300
300
300
300
300
300
300
300
300
300
300
300
300
300
300
300
344.18277
332.84014
322.86307
314.79322
308.74746
304.6324
302.15046
300.8543
300.28074
300.07119
300.01093
299.99906
299.99858
299.99939
299.99982
299.99996
299.99999
300
300
300
300
300
300
300
300
300
300
300
300
300
300
300
300
300
300
300
300
300
300
300
344.17444
332.81382
322.8319
314.78197
308.76028
304.65755
302.17568
300.87263
300.2911
300.07582
300.01256
299.99949
299.99865
299.99939
299.99981
299.99996
299.99999
300
300
300
300
300
300
300
300
300
300
300
300
300
300
300
300
300
300
300
300
300
300
300
344.16643
332.78739
322.79792
314.76609
308.76945
304.68059
302.1998
300.8905
300.30133
300.08047
300.01423
299.99994
299.99872
299.99938
299.99981
299.99995
299.99999
300
300
300
300
300
300
300
300
300
300
300
300
300
300
300
300
300
300
300
300
300
300
300
344.15883
332.76123
322.76169
314.74576
308.77476
304.7013
302.22273
300.90786
300.31143
300.08512
300.01593
300.00041
299.99881
299.99938
299.9998
299.99995
299.99999
300
300
300
300
300
300
300
300
300
300
300
300
300
300
300
300
300
300
300
300
300
300
300
344.15169
332.73564
322.72379
314.72142
308.77627
304.71949
302.24425
300.92455
300.32129
300.08975
300.01765
300.00091
299.99891
299.99939
299.99979
299.99995
299.99999
300
300
300
300
300
300
300
300
300
300
300
300
300
300
300
300
300
300
300
300
300
300
300
344.14514
332.71096
322.68431
314.69259
308.77356
304.73518
302.26466
300.94091
300.33116
300.09445
300.01945
300.00145
299.99902
299.9994
299.99979
299.99994
299.99999
300
300
300
300
300
300
300
300
300
300
300
300
300
300
300
300
300
300
300
300
300
300
300
344.13901
332.68796
322.64722
314.66451
308.76914
304.74759
302.28171
300.95479
300.33962
300.09854
300.02103
300.00193
299.99913
299.99941
299.99979
299.99994
299.99999
300
300
300
300
300
300
300
300
300
300
300
300
300
300
300
300
300
300
300
300
300
300
300
344.13343
332.65869
322.58875
314.61027
308.7523
304.76249
302.30757
300.9771
300.35366
300.10553
300.02384
300.00284
299.99935
299.99944
299.99978
299.99994
299.99999
300
300
300
300
300
300
300
300
300
300
300
300
300
300
300
300
300
300
300
300
300
300
300
)
;

boundaryField
{
    wall
    {
        type            fixedValue;
        value           uniform 350;
    }
    sides
    {
        type            zeroGradient;
    }
    frontAndBack
    {
        type            empty;
    }
    inlet
    {
        type            fixedValue;
        value           uniform 300;
    }
    outlet
    {
        type            zeroGradient;
    }
}


// ************************************************************************* //
