/*--------------------------------*- C++ -*----------------------------------*\
  =========                 |
  \\      /  F ield         | OpenFOAM: The Open Source CFD Toolbox
   \\    /   O peration     | Website:  https://openfoam.org
    \\  /    A nd           | Version:  10
     \\/     M anipulation  |
\*---------------------------------------------------------------------------*/
FoamFile
{
    format      ascii;
    class       volVectorField;
    location    "0.21";
    object      U;
}
// * * * * * * * * * * * * * * * * * * * * * * * * * * * * * * * * * * * * * //

dimensions      [0 1 -1 0 0 0 0];

internalField   nonuniform List<vector> 
4000
(
(0 0.018637419 0.47773158)
(0 0.023509933 0.5088606)
(0 0.008166797 0.50052522)
(0 0.005614562 0.50033634)
(0 0.0042545779 0.50025746)
(0 0.0032548997 0.50016898)
(0 0.0025560551 0.50011968)
(0 0.0020545589 0.50009013)
(0 0.0016765714 0.5000698)
(0 0.0013822493 0.50005539)
(0 0.0011472199 0.50004499)
(0 0.00095514433 0.50003733)
(0 0.000794768 0.50003159)
(0 0.00065811511 0.50002727)
(0 0.00053935703 0.50002398)
(0 0.00043411291 0.5000215)
(0 0.00033899512 0.50001966)
(0 0.00025130147 0.50001833)
(0 0.00016879902 0.50001744)
(0 8.9565567e-05 0.50001693)
(0 1.1867489e-05 0.50001678)
(0 -6.5947564e-05 0.50001698)
(0 -0.00014554209 0.50001754)
(0 -0.00022868096 0.5000185)
(0 -0.00031734191 0.5000199)
(0 -0.00041384638 0.50002185)
(0 -0.00052103115 0.50002446)
(0 -0.00064248767 0.50002793)
(0 -0.00078291 0.50003252)
(0 -0.00094862448 0.50003863)
(0 -0.0011484411 0.50004688)
(0 -0.0013950183 0.50005824)
(0 -0.0017071032 0.50007414)
(0 -0.0021150448 0.50009709)
(0 -0.0026747578 0.50013482)
(0 -0.0034683552 0.50020238)
(0 -0.0045606175 0.50027144)
(0 -0.0065848281 0.50043366)
(0 -0.017659266 0.50675403)
(0 -0.013590029 0.47975569)
(0 0.037432582 0.44796939)
(0 0.050955539 0.53232614)
(0 0.021969124 0.5080429)
(0 0.016135469 0.50357319)
(0 0.012415912 0.50242316)
(0 0.009515802 0.50162298)
(0 0.0075204966 0.5011566)
(0 0.0060698041 0.50086591)
(0 0.0049645264 0.50066798)
(0 0.0041001305 0.50052898)
(0 0.0034076656 0.50042901)
(0 0.0028401834 0.5003555)
(0 0.0023653096 0.50030061)
(0 0.00195996 0.50025921)
(0 0.0016071734 0.50022786)
(0 0.0012941543 0.5002042)
(0 0.0010109769 0.50018659)
(0 0.00074970278 0.50017392)
(0 0.00050375712 0.50016541)
(0 0.00026746977 0.50016058)
(0 3.5719533e-05 0.50015915)
(0 -0.0001963736 0.50016105)
(0 -0.00043371964 0.5001664)
(0 -0.00068152954 0.50017551)
(0 -0.00094563436 0.50018893)
(0 -0.001232864 0.50020749)
(0 -0.0015515433 0.50023243)
(0 -0.0019121793 0.50026555)
(0 -0.0023284535 0.50030947)
(0 -0.0028187067 0.50036809)
(0 -0.0034083148 0.50044735)
(0 -0.0041336544 0.50055671)
(0 -0.0050478056 0.50071127)
(0 -0.0062306347 0.50093663)
(0 -0.0078310259 0.50129441)
(0 -0.010124774 0.50191057)
(0 -0.013106006 0.50282518)
(0 -0.017425448 0.50608123)
(0 -0.038758273 0.52526809)
(0 -0.027894312 0.45021695)
(0 0.039888124 0.40982089)
(0 0.061427792 0.54930819)
(0 0.031983408 0.52188194)
(0 0.024355216 0.51008056)
(0 0.019193357 0.50658856)
(0 0.014976927 0.50452805)
(0 0.012006547 0.50327136)
(0 0.0097718064 0.50245833)
(0 0.0080364649 0.50190101)
(0 0.0066648757 0.50150862)
(0 0.0055568167 0.5012254)
(0 0.0046427531 0.50101664)
(0 0.0038739459 0.50086048)
(0 0.0032149981 0.50074256)
(0 0.0026395747 0.50065317)
(0 0.0021276212 0.50058565)
(0 0.0016634597 0.50053539)
(0 0.0012344692 0.50049918)
(0 0.00083014134 0.50047486)
(0 0.00044137611 0.50046104)
(0 5.9930941e-05 0.50045695)
(0 -0.0003220568 0.50046239)
(0 -0.0007124971 0.50047768)
(0 -0.0011197704 0.50050371)
(0 -0.0015532232 0.50054202)
(0 -0.0020237514 0.50059499)
(0 -0.0025445546 0.50066613)
(0 -0.003132167 0.50076051)
(0 -0.00380792 0.50088552)
(0 -0.0046000546 0.50105208)
(0 -0.0055469268 0.50127674)
(0 -0.0067025186 0.50158561)
(0 -0.0081440324 0.50202083)
(0 -0.0099755596 0.50265078)
(0 -0.012369914 0.50361516)
(0 -0.015715064 0.5051993)
(0 -0.019871651 0.50785409)
(0 -0.025185332 0.51641231)
(0 -0.047416046 0.53912746)
(0 -0.030853205 0.41488139)
(0 0.034791396 0.36173073)
(0 0.063838424 0.55456352)
(0 0.039379854 0.53747132)
(0 0.030082932 0.51849261)
(0 0.024112175 0.51197728)
(0 0.019279208 0.50849939)
(0 0.015735847 0.50626417)
(0 0.012953929 0.50475534)
(0 0.010743491 0.5037043)
(0 0.0089678391 0.50295598)
(0 0.0075139427 0.50241091)
(0 0.0063021349 0.50200661)
(0 0.0052746094 0.50170281)
(0 0.0043881078 0.50147257)
(0 0.0036098122 0.50129755)
(0 0.0029143373 0.50116506)
(0 0.0022815755 0.50106625)
(0 0.0016951647 0.50099499)
(0 0.001141363 0.50094707)
(0 0.00060818879 0.50091981)
(0 8.4739934e-05 0.50091175)
(0 -0.000439406 0.50092245)
(0 -0.00097473192 0.50095257)
(0 -0.0015323096 0.5010038)
(0 -0.00212442 0.50107914)
(0 -0.0027652705 0.50118316)
(0 -0.0034719018 0.50132259)
(0 -0.0042653932 0.5015071)
(0 -0.0051725261 0.50175069)
(0 -0.0062280814 0.50207384)
(0 -0.007477929 0.50250702)
(0 -0.0089843026 0.50309723)
(0 -0.010834574 0.50391918)
(0 -0.013135307 0.50508926)
(0 -0.016022159 0.50680694)
(0 -0.019897704 0.50946763)
(0 -0.024729863 0.51427507)
(0 -0.031111681 0.52824704)
(0 -0.050318207 0.54407254)
(0 -0.028437778 0.37238315)
(0 0.027424048 0.31484435)
(0 0.06231422 0.5502411)
(0 0.044613747 0.55146758)
(0 0.033981362 0.52748809)
(0 0.027463428 0.51772238)
(0 0.022454582 0.51291972)
(0 0.01863628 0.50973127)
(0 0.015527715 0.50749243)
(0 0.013005903 0.50589969)
(0 0.010942017 0.50474661)
(0 0.0092246745 0.50389582)
(0 0.0077750196 0.50325882)
(0 0.0065330645 0.50277672)
(0 0.0054523818 0.50240931)
(0 0.0044969208 0.50212879)
(0 0.0036382136 0.5019157)
(0 0.0028533135 0.50175636)
(0 0.0021232788 0.50164119)
(0 0.0014320128 0.50156363)
(0 0.00076535289 0.50151945)
(0 0.00011033179 0.50150635)
(0 -0.00054548358 0.50152366)
(0 -0.0012145951 0.50157237)
(0 -0.0019101516 0.50165518)
(0 -0.0026466339 0.50177677)
(0 -0.0034406244 0.50194429)
(0 -0.0043117525 0.50216815)
(0 -0.005283906 0.50246322)
(0 -0.0063868385 0.50285077)
(0 -0.0076583281 0.50336143)
(0 -0.0091466412 0.50403986)
(0 -0.010914218 0.50495258)
(0 -0.013047895 0.50620242)
(0 -0.015651476 0.50794426)
(0 -0.018812814 0.51040447)
(0 -0.022893419 0.51405508)
(0 -0.028174768 0.52114571)
(0 -0.035704707 0.53932657)
(0 -0.050474684 0.54155684)
(0 -0.024085589 0.33056234)
(0 0.019837678 0.27519939)
(0 0.057989194 0.53974745)
(0 0.047362786 0.56256471)
(0 0.036476711 0.53660445)
(0 0.02963529 0.52350701)
(0 0.024675365 0.51740311)
(0 0.020773584 0.51336276)
(0 0.017509252 0.51044421)
(0 0.014813867 0.50832383)
(0 0.012566497 0.50676139)
(0 0.010665614 0.50559232)
(0 0.0090392231 0.50470749)
(0 0.0076297037 0.50403199)
(0 0.0063911926 0.50351357)
(0 0.0052872275 0.50311555)
(0 0.0042883367 0.50281186)
(0 0.0033702886 0.50258398)
(0 0.0025127438 0.50241883)
(0 0.0016981754 0.50230738)
(0 0.00091099322 0.5022438)
(0 0.0001368173 0.50222488)
(0 -0.00063818863 0.5022497)
(0 -0.0014279327 0.50231964)
(0 -0.0022469724 0.50243842)
(0 -0.0031112064 0.50261249)
(0 -0.004038625 0.50285163)
(0 -0.0050502064 0.50316997)
(0 -0.0061710197 0.50358753)
(0 -0.0074316175 0.50413249)
(0 -0.0088699316 0.50484477)
(0 -0.010533231 0.50578139)
(0 -0.012479813 0.50702462)
(0 -0.014789893 0.50869765)
(0 -0.017565263 0.5109821)
(0 -0.020859904 0.51412035)
(0 -0.024970088 0.51873066)
(0 -0.03050515 0.52823024)
(0 -0.038626444 0.54872445)
(0 -0.048506231 0.53398768)
(0 -0.019066231 0.29394541)
(0 0.013082936 0.24255716)
(0 0.051797833 0.52520215)
(0 0.047708056 0.57024856)
(0 0.037755821 0.54552472)
(0 0.030849307 0.52928844)
(0 0.026072538 0.52180138)
(0 0.02223713 0.51699753)
(0 0.018953021 0.51347297)
(0 0.016193025 0.51086435)
(0 0.013849328 0.50891178)
(0 0.011835434 0.50743191)
(0 0.010088755 0.50629974)
(0 0.0085566656 0.5054275)
(0 0.007196414 0.50475307)
(0 0.0059731976 0.50423207)
(0 0.0048581955 0.50383257)
(0 0.003827217 0.5035316)
(0 0.0028595873 0.50331279)
(0 0.0019372157 0.50316478)
(0 0.0010438157 0.50308018)
(0 0.00016424059 0.5030549)
(0 -0.00071614019 0.50308779)
(0 -0.0016120288 0.50318057)
(0 -0.0025387338 0.50333798)
(0 -0.0035128239 0.50356814)
(0 -0.0045528075 0.50388335)
(0 -0.0056799265 0.50430119)
(0 -0.0069190988 0.50484631)
(0 -0.0083000335 0.50555296)
(0 -0.0098588053 0.50646893)
(0 -0.011639613 0.50766137)
(0 -0.013694707 0.50922513)
(0 -0.016093597 0.51129819)
(0 -0.018931586 0.51407991)
(0 -0.022240051 0.51783912)
(0 -0.026259785 0.52346848)
(0 -0.031843647 0.5353756)
(0 -0.039754592 0.55589765)
(0 -0.044890881 0.52282893)
(0 -0.014089868 0.26265465)
(0 0.00776985 0.21554411)
(0 0.044824639 0.50801246)
(0 0.046253715 0.57438113)
(0 0.038033671 0.55375095)
(0 0.031286453 0.53496023)
(0 0.026767054 0.52602991)
(0 0.023115567 0.52053789)
(0 0.019919859 0.51648755)
(0 0.017181373 0.51344081)
(0 0.014812889 0.51112968)
(0 0.012745974 0.50935844)
(0 0.010928574 0.50798981)
(0 0.0093147841 0.50692618)
(0 0.0078666318 0.50609765)
(0 0.0065523707 0.50545359)
(0 0.0053450412 0.50495718)
(0 0.0042215296 0.50458163)
(0 0.003161702 0.50430769)
(0 0.0021476524 0.50412191)
(0 0.0011630533 0.50401549)
(0 0.00019258613 0.50398354)
(0 -0.00077860741 0.5040247)
(0 -0.0017654547 0.50414101)
(0 -0.0027834139 0.50433811)
(0 -0.0038490599 0.50462565)
(0 -0.00498066 0.50501815)
(0 -0.0061988365 0.50553622)
(0 -0.0075273319 0.50620845)
(0 -0.0089938336 0.50707417)
(0 -0.010631141 0.50818754)
(0 -0.01247884 0.50962382)
(0 -0.014582066 0.51148803)
(0 -0.016997023 0.51392908)
(0 -0.019805379 0.51715571)
(0 -0.023023112 0.52148097)
(0 -0.026872684 0.52818351)
(0 -0.032344628 0.5422208)
(0 -0.039397157 0.56050389)
(0 -0.040324483 0.50909252)
(0 -0.0097071811 0.23586968)
(0 0.0040046606 0.19356024)
(0 0.03789813 0.48949072)
(0 0.04368483 0.57524076)
(0 0.037561835 0.56084465)
(0 0.031152418 0.54036074)
(0 0.026912567 0.53001091)
(0 0.023512687 0.52390115)
(0 0.020479113 0.51941176)
(0 0.017825823 0.51598681)
(0 0.015488847 0.51335777)
(0 0.013417855 0.51132282)
(0 0.011571494 0.50973609)
(0 0.0099115966 0.50849294)
(0 0.0084059253 0.5075177)
(0 0.007026647 0.506755)
(0 0.0057494866 0.50616413)
(0 0.0045531578 0.50571523)
(0 0.003418738 0.50538667)
(0 0.0023291086 0.50516325)
(0 0.00126845 0.50503498)
(0 0.00022178375 0.50499628)
(0 -0.00082548155 0.50504558)
(0 -0.0018880024 0.50518523)
(0 -0.0029808708 0.50542163)
(0 -0.0041201135 0.50576573)
(0 -0.0053231483 0.50623391)
(0 -0.0066092998 0.50684928)
(0 -0.0080003824 0.50764362)
(0 -0.0095212563 0.5086603)
(0 -0.011200525 0.50995839)
(0 -0.013072058 0.51161921)
(0 -0.01517338 0.51375542)
(0 -0.017547128 0.51652278)
(0 -0.020257464 0.52013236)
(0 -0.023312262 0.52496432)
(0 -0.026953397 0.53274101)
(0 -0.032194879 0.54839121)
(0 -0.037987214 0.56254681)
(0 -0.035410306 0.49380526)
(0 -0.0061994802 0.21326756)
(0 0.001550773 0.17613831)
(0 0.031497985 0.47076676)
(0 0.040529583 0.57338701)
(0 0.03655618 0.56659793)
(0 0.030634885 0.54537784)
(0 0.026669451 0.53370392)
(0 0.023541099 0.52703138)
(0 0.020708684 0.5221873)
(0 0.018181544 0.5184499)
(0 0.015916204 0.51554951)
(0 0.013878232 0.51328397)
(0 0.01203619 0.51150265)
(0 0.010359774 0.51009651)
(0 0.008822722 0.50898606)
(0 0.0074014992 0.50811257)
(0 0.0060749852 0.50743251)
(0 0.0048242003 0.50691371)
(0 0.0036318989 0.50653272)
(0 0.0024821975 0.50627295)
(0 0.0013602118 0.50612345)
(0 0.0002517146 0.50607809)
(0 -0.00085721433 0.50613514)
(0 -0.0019805552 0.50629718)
(0 -0.0031326199 0.50657125)
(0 -0.0043284555 0.50696932)
(0 -0.0055841784 0.50750925)
(0 -0.006917341 0.50821606)
(0 -0.0083473378 0.50912397)
(0 -0.0098957441 0.51027929)
(0 -0.011586574 0.51174457)
(0 -0.013447557 0.51360518)
(0 -0.015508765 0.51597857)
(0 -0.017800829 0.5190233)
(0 -0.020370706 0.5229504)
(0 -0.02322564 0.52823668)
(0 -0.026645881 0.53704143)
(0 -0.031555668 0.55365963)
(0 -0.035895719 0.5623132)
(0 -0.030547896 0.47790845)
(0 -0.0035897563 0.19462856)
(0 7.6359239e-05 0.16253087)
(0 0.025868477 0.45260724)
(0 0.037156203 0.56943543)
(0 0.035187644 0.57098826)
(0 0.029874018 0.54996205)
(0 0.026170725 0.53711296)
(0 0.023303165 0.5299112)
(0 0.020685067 0.52478272)
(0 0.018305916 0.52079639)
(0 0.016137324 0.51767198)
(0 0.014157991 0.51521095)
(0 0.012345057 0.51326112)
(0 0.010675436 0.51171125)
(0 0.0091285087 0.51047965)
(0 0.0076850142 0.50950555)
(0 0.0063271388 0.50874356)
(0 0.0050384388 0.50815996)
(0 0.0038036198 0.50772997)
(0 0.0026083282 0.50743601)
(0 0.0014389184 0.50726641)
(0 0.00028221916 0.50721464)
(0 -0.00087471325 0.50727883)
(0 -0.002044876 0.50746174)
(0 -0.0032414944 0.50777088)
(0 -0.0044783308 0.50821901)
(0 -0.0057699018 0.50882503)
(0 -0.0071317103 0.50961534)
(0 -0.0085804913 0.51062583)
(0 -0.010134394 0.51190474)
(0 -0.011812912 0.51351679)
(0 -0.013637842 0.51554964)
(0 -0.015632409 0.51812305)
(0 -0.017817251 0.5213952)
(0 -0.020224762 0.52558056)
(0 -0.022868517 0.53128386)
(0 -0.026066228 0.54103221)
(0 -0.030557573 0.55793522)
(0 -0.033415952 0.56019834)
(0 -0.025989026 0.4620911)
(0 -0.0017637132 0.17949295)
(0 -0.00071837835 0.15191455)
(0 0.021105776 0.43544404)
(0 0.033815031 0.56393501)
(0 0.033599267 0.57408851)
(0 0.028970479 0.55409267)
(0 0.025515933 0.54026228)
(0 0.022882508 0.53255109)
(0 0.020475207 0.52719004)
(0 0.018251938 0.5230102)
(0 0.016193284 0.51970561)
(0 0.014288511 0.51708295)
(0 0.012521851 0.51499083)
(0 0.0108764 0.51331734)
(0 0.0093365166 0.51197986)
(0 0.0078869094 0.51091659)
(0 0.0065129705 0.51008116)
(0 0.0052008159 0.50943888)
(0 0.0039372096 0.50896417)
(0 0.0027094856 0.50863879)
(0 0.0015054224 0.50845058)
(0 0.00031310615 0.50839273)
(0 -0.00087922261 0.50846329)
(0 -0.0020833688 0.50866513)
(0 -0.0033112703 0.5090061)
(0 -0.0045752177 0.50949945)
(0 -0.005887971 0.51016481)
(0 -0.0072628787 0.51102942)
(0 -0.0087139875 0.51213016)
(0 -0.010256121 0.51351634)
(0 -0.011904606 0.5152538)
(0 -0.0136759 0.51743119)
(0 -0.015587167 0.52016866)
(0 -0.017650884 0.52362214)
(0 -0.019888534 0.5280173)
(0 -0.022326267 0.53411198)
(0 -0.025305361 0.54468238)
(0 -0.029315743 0.56120866)
(0 -0.030779448 0.55659753)
(0 -0.021887252 0.44679153)
(0 -0.00056301876 0.16727356)
(0 -0.0010705298 0.14359202)
(0 0.017200735 0.41949133)
(0 0.030661661 0.5573451)
(0 0.031908955 0.57601989)
(0 0.027998323 0.55776208)
(0 0.024778598 0.54317771)
(0 0.022345568 0.53497377)
(0 0.020134733 0.52941515)
(0 0.018065372 0.52508732)
(0 0.0161211 0.52164096)
(0 0.014299288 0.51888747)
(0 0.012589773 0.51667773)
(0 0.010980686 0.51490019)
(0 0.0094605792 0.51347213)
(0 0.0080176642 0.51233153)
(0 0.006640274 0.51143164)
(0 0.0053169604 0.51073736)
(0 0.0040365232 0.51022268)
(0 0.0027880258 0.509869)
(0 0.0015607551 0.5096639)
(0 0.00034416186 0.50960037)
(0 -0.00087221014 0.50967643)
(0 -0.0020988546 0.50989502)
(0 -0.0033463152 0.51026416)
(0 -0.0046253285 0.51079741)
(0 -0.0059468571 0.51151477)
(0 -0.007322123 0.51244392)
(0 -0.0087626095 0.51362217)
(0 -0.010280071 0.51509923)
(0 -0.011886158 0.51694127)
(0 -0.013592758 0.51923701)
(0 -0.015411883 0.52210566)
(0 -0.017349528 0.52570015)
(0 -0.01942031 0.5302676)
(0 -0.021667822 0.53673275)
(0 -0.024436487 0.54797185)
(0 -0.027931862 0.56352388)
(0 -0.028156762 0.55187257)
(0 -0.018316722 0.43227447)
(0 0.00017074897 0.1574244)
(0 -0.0011536551 0.13701193)
(0 0.014075863 0.40482953)
(0 0.027776136 0.55004008)
(0 0.030204742 0.57692991)
(0 0.027009948 0.56097674)
(0 0.024011693 0.54588323)
(0 0.021744208 0.5372062)
(0 0.019708822 0.53147118)
(0 0.017784542 0.52703099)
(0 0.015952865 0.52347545)
(0 0.014216784 0.52061809)
(0 0.012570311 0.51831298)
(0 0.011005496 0.51644952)
(0 0.0095142772 0.51494548)
(0 0.008087833 0.5137391)
(0 0.0067170803 0.51278373)
(0 0.005392789 0.51204424)
(0 0.0041056794 0.51149451)
(0 0.0028464992 0.51111582)
(0 0.0016060443 0.51089563)
(0 0.00037515947 0.51082686)
(0 -0.00085526637 0.51090751)
(0 -0.0020943735 0.51114053)
(0 -0.0033512844 0.51153402)
(0 -0.0046351833 0.51210167)
(0 -0.0059552845 0.51286356)
(0 -0.0073208051 0.5138475)
(0 -0.0087408892 0.51509081)
(0 -0.010224571 0.5166431)
(0 -0.011780383 0.51857029)
(0 -0.013416472 0.52096057)
(0 -0.015140687 0.52393127)
(0 -0.016954201 0.52763292)
(0 -0.018868652 0.53234513)
(0 -0.020947716 0.53916026)
(0 -0.023516789 0.55089414)
(0 -0.026488388 0.56496353)
(0 -0.025659127 0.54634137)
(0 -0.015289066 0.41868797)
(0 0.00057571145 0.14948272)
(0 -0.0010860845 0.13173452)
(0 0.011620509 0.39144999)
(0 0.025186285 0.5423137)
(0 0.02854543 0.57697288)
(0 0.026038734 0.56375635)
(0 0.02325056 0.54840168)
(0 0.021116931 0.53927683)
(0 0.019232905 0.53337549)
(0 0.01744066 0.52884915)
(0 0.015715622 0.52521117)
(0 0.014063985 0.52227286)
(0 0.012482657 0.51989177)
(0 0.0109666 0.51795864)
(0 0.0095103667 0.51639199)
(0 0.0081075479 0.51513066)
(0 0.0067512484 0.51412839)
(0 0.0054341873 0.51335027)
(0 0.0041488307 0.51277034)
(0 0.0028875024 0.5123699)
(0 0.0016424462 0.51213644)
(0 0.00040586821 0.51206287)
(0 -0.0008300176 0.51214718)
(0 -0.0020730177 0.51239232)
(0 -0.0033308692 0.51280638)
(0 -0.0046112694 0.51340299)
(0 -0.0059217978 0.51420218)
(0 -0.0072698503 0.51523158)
(0 -0.008662514 0.51652824)
(0 -0.010106505 0.51814135)
(0 -0.011607811 0.52013622)
(0 -0.013171654 0.52260007)
(0 -0.01480271 0.52564789)
(0 -0.01649892 0.52942958)
(0 -0.018272252 0.53426804)
(0 -0.020206561 0.54141112)
(0 -0.022587798 0.55345693)
(0 -0.02504637 0.56563218)
(0 -0.023349214 0.54026986)
(0 -0.012774651 0.40609394)
(0 0.00076097286 0.14305428)
(0 -0.0009442583 0.12741422)
(0 0.0097158984 0.37928671)
(0 0.022888646 0.53438643)
(0 0.026966198 0.57629393)
(0 0.025103406 0.56612812)
(0 0.022516414 0.55075374)
(0 0.020490387 0.54121333)
(0 0.018733417 0.53514772)
(0 0.0170582 0.53055281)
(0 0.015431421 0.52685343)
(0 0.013860245 0.52385306)
(0 0.012343426 0.5214124)
(0 0.010877995 0.51942368)
(0 0.0094604205 0.51780632)
(0 0.0080861813 0.51649985)
(0 0.0067501725 0.51545859)
(0 0.0054467722 0.51464802)
(0 0.0041699848 0.51404246)
(0 0.0029135625 0.5136234)
(0 0.0016710916 0.51337841)
(0 0.00043606165 0.51330047)
(0 -0.00079805495 0.51338756)
(0 -0.0020377975 0.5136426)
(0 -0.0032895995 0.51407358)
(0 -0.0045597823 0.51469402)
(0 -0.0058544463 0.51552371)
(0 -0.0071793855 0.51658996)
(0 -0.0085399381 0.51792935)
(0 -0.0099409174 0.51959045)
(0 -0.011386316 0.52163776)
(0 -0.012879172 0.52415732)
(0 -0.014421884 0.52726171)
(0 -0.016010627 0.53110303)
(0 -0.017660213 0.53605671)
(0 -0.01947251 0.54350287)
(0 -0.021677542 0.55567765)
(0 -0.023647805 0.56563994)
(0 -0.02125507 0.53386963)
(0 -0.010720962 0.39449196)
(0 0.00080684786 0.13780576)
(0 -0.00077566703 0.12378998)
(0 0.0082493769 0.3682428)
(0 0.020862941 0.52641783)
(0 0.025484931 0.57502095)
(0 0.024212742 0.56812169)
(0 0.021820386 0.55295639)
(0 0.01988171 0.54304036)
(0 0.018229114 0.5368076)
(0 0.016655606 0.53215444)
(0 0.015117622 0.52840951)
(0 0.01362135 0.52536215)
(0 0.012166582 0.52287542)
(0 0.010751742 0.52084302)
(0 0.0093746294 0.5191852)
(0 0.0080321406 0.51784224)
(0 0.00672059 0.51676907)
(0 0.0054357288 0.51593166)
(0 0.0041728793 0.51530468)
(0 0.0029270532 0.51486988)
(0 0.0016930473 0.514615)
(0 0.00046552526 0.51453308)
(0 -0.00076088046 0.51462212)
(0 -0.0019915415 0.51488498)
(0 -0.003231701 0.51532953)
(0 -0.0044864434 0.51596908)
(0 -0.005760569 0.5168231)
(0 -0.0070585031 0.51791849)
(0 -0.0083841431 0.51929125)
(0 -0.0097407945 0.52098924)
(0 -0.011130952 0.52307611)
(0 -0.012556101 0.52563666)
(0 -0.014017124 0.52878133)
(0 -0.015509727 0.53266794)
(0 -0.01705328 0.53773141)
(0 -0.018763776 0.54545196)
(0 -0.020803554 0.55757876)
(0 -0.022319237 0.5650918)
(0 -0.019381788 0.52730277)
(0 -0.0090652265 0.38384162)
(0 0.00076984226 0.13346482)
(0 -0.00060829756 0.12067157)
(0 0.0071217532 0.35820947)
(0 0.019081143 0.5185201)
(0 0.024107484 0.57326298)
(0 0.023369186 0.56976643)
(0 0.021166916 0.55502253)
(0 0.019300971 0.54477835)
(0 0.017732682 0.53837346)
(0 0.016246292 0.53366664)
(0 0.014787468 0.5298875)
(0 0.013359812 0.52680486)
(0 0.011963545 0.52428288)
(0 0.010597965 0.5222166)
(0 0.0092617332 0.52052698)
(0 0.0079527682 0.51915495)
(0 0.0066684751 0.51805605)
(0 0.0054057112 0.51719676)
(0 0.0041609014 0.51655214)
(0 0.0029301409 0.51610421)
(0 0.001709291 0.5158409)
(0 0.00049406307 0.51575536)
(0 -0.00071986906 0.5158456)
(0 -0.0019368288 0.51611441)
(0 -0.003161 0.51656951)
(0 -0.0043963837 0.51722394)
(0 -0.0056466667 0.51809686)
(0 -0.0069151364 0.51921465)
(0 -0.0082045373 0.52061276)
(0 -0.0095170234 0.5223383)
(0 -0.010854019 0.52445414)
(0 -0.012215968 0.52704387)
(0 -0.013602862 0.53021643)
(0 -0.015011049 0.53413917)
(0 -0.016465438 0.5393106)
(0 -0.018091114 0.54727273)
(0 -0.019975528 0.55918474)
(0 -0.021075113 0.56408262)
(0 -0.017720108 0.52069005)
(0 -0.0077427296 0.37408012)
(0 0.00068836887 0.12981617)
(0 -0.0004570714 0.11792378)
(0 0.0062504431 0.34907728)
(0 0.017513108 0.51076984)
(0 0.022831955 0.57111144)
(0 0.022571357 0.57109035)
(0 0.020556153 0.55696156)
(0 0.018753192 0.5464434)
(0 0.017252217 0.53986142)
(0 0.01583968 0.53510127)
(0 0.014450781 0.53129554)
(0 0.013085298 0.52818649)
(0 0.011743431 0.52563775)
(0 0.010424964 0.52354548)
(0 0.0091290542 0.52183117)
(0 0.0078543279 0.52043632)
(0 0.0065990004 0.51931697)
(0 0.0053607979 0.51844009)
(0 0.0041370468 0.51778111)
(0 0.0029247546 0.51732235)
(0 0.0017206982 0.51705193)
(0 0.00052150271 0.51696309)
(0 -0.00067624464 0.51705387)
(0 -0.0018759479 0.51732697)
(0 -0.0030808705 0.51778996)
(0 -0.0042940861 0.51845563)
(0 -0.0055183507 0.51934273)
(0 -0.0067560294 0.52047722)
(0 -0.0080089727 0.52189395)
(0 -0.0092784888 0.5236394)
(0 -0.010565284 0.52577571)
(0 -0.011869168 0.52838545)
(0 -0.013189731 0.53157687)
(0 -0.014524865 0.53553075)
(0 -0.015905372 0.54081027)
(0 -0.017459819 0.54897728)
(0 -0.019197447 0.56052031)
(0 -0.019920865 0.56269522)
(0 -0.016252744 0.51411913)
(0 -0.006692258 0.36513408)
(0 0.00058760747 0.12669332)
(0 -0.00032845459 0.11545238)
(0 0.0055697082 0.34074245)
(0 0.016129883 0.50321722)
(0 0.021652045 0.56864211)
(0 0.02181585 0.57211958)
(0 0.019985669 0.5587801)
(0 0.018239912 0.5480477)
(0 0.016792432 0.5412852)
(0 0.015442099 0.53646909)
(0 0.014114622 0.53264139)
(0 0.012805098 0.5295124)
(0 0.011513363 0.52694343)
(0 0.010239397 0.52483138)
(0 0.0089825998 0.52309816)
(0 0.0077420521 0.52168562)
(0 0.0065165505 0.52055025)
(0 0.005304487 0.51965942)
(0 0.004103909 0.5189889)
(0 0.0029125767 0.51852129)
(0 0.0017280384 0.51824489)
(0 0.00054769943 0.51815304)
(0 -0.00063106813 0.51824379)
(0 -0.0018108793 0.51851977)
(0 -0.0029942152 0.51898838)
(0 -0.0041833728 0.51966214)
(0 -0.0053803479 0.52055949)
(0 -0.0065867776 0.52170591)
(0 -0.0078038412 0.52313578)
(0 -0.0090322558 0.52489501)
(0 -0.010272288 0.52704518)
(0 -0.011523426 0.529668)
(0 -0.012785229 0.53287212)
(0 -0.014057822 0.53685539)
(0 -0.015377736 0.54224376)
(0 -0.01687132 0.55057553)
(0 -0.018469379 0.56160927)
(0 -0.018855749 0.56100024)
(0 -0.014958841 0.50765161)
(0 -0.0058592105 0.356927)
(0 0.00048330434 0.12396965)
(0 -0.00022377941 0.11319298)
(0 0.0050290638 0.33311008)
(0 0.014905358 0.49589326)
(0 0.020559486 0.56591756)
(0 0.02109849 0.57287805)
(0 0.019451698 0.5604826)
(0 0.017760418 0.54960001)
(0 0.016355627 0.54265617)
(0 0.015057546 0.53777957)
(0 0.013783888 0.53393213)
(0 0.012524563 0.53078779)
(0 0.011278775 0.52820347)
(0 0.010046503 0.52607647)
(0 0.0088272026 0.52432889)
(0 0.0076202275 0.52290283)
(0 0.0064247714 0.52175506)
(0 0.0052397218 0.5208533)
(0 0.0040636908 0.52017362)
(0 0.0028950472 0.51969884)
(0 0.001731977 0.51941743)
(0 0.00057253826 0.51932283)
(0 -0.00058523555 0.51941307)
(0 -0.001743296 0.51969074)
(0 -0.0029034735 0.52016306)
(0 -0.0040674276 0.52084233)
(0 -0.005236548 0.52174666)
(0 -0.0064119127 0.52290117)
(0 -0.0075942169 0.52433979)
(0 -0.0087837895 0.52610803)
(0 -0.00998067 0.52826702)
(0 -0.011184254 0.53089791)
(0 -0.012394347 0.53411093)
(0 -0.013613772 0.53812415)
(0 -0.014884241 0.54362177)
(0 -0.016324478 0.55207535)
(0 -0.017788947 0.56247372)
(0 -0.017875217 0.5590568)
(0 -0.013816876 0.50132919)
(0 -0.0051969172 0.34938389)
(0 0.00038466781 0.12155039)
(0 -0.00014151712 0.11110222)
(0 0.0045908513 0.32609566)
(0 0.013816838 0.48881537)
(0 0.01954558 0.56298939)
(0 0.020415118 0.5733876)
(0 0.018949985 0.56207194)
(0 0.017312681 0.55110627)
(0 0.015942466 0.54398344)
(0 0.014688314 0.53904087)
(0 0.013461814 0.5351741)
(0 0.012247497 0.53201748)
(0 0.011043719 0.52942138)
(0 0.0098503101 0.52728307)
(0 0.0086666748 0.52552468)
(0 0.0074923015 0.52408838)
(0 0.0063266395 0.52293116)
(0 0.0051689344 0.52202095)
(0 0.0040182307 0.52133406)
(0 0.0028733789 0.52085351)
(0 0.0017330826 0.52056791)
(0 0.00059593572 0.52047078)
(0 -0.00053948268 0.52056014)
(0 -0.0016745773 0.52083851)
(0 -0.0028106471 0.52131299)
(0 -0.0039488405 0.52199566)
(0 -0.0050900756 0.52290436)
(0 -0.0062350143 0.52406389)
(0 -0.0073840188 0.52550787)
(0 -0.0085371876 0.5272815)
(0 -0.0096944854 0.52944563)
(0 -0.01085538 0.53208114)
(0 -0.012020125 0.53530111)
(0 -0.013194511 0.53934643)
(0 -0.014424584 0.54495256)
(0 -0.015816598 0.55348284)
(0 -0.017152434 0.5631337)
(0 -0.016972653 0.55691397)
(0 -0.012806385 0.49517875)
(0 -0.0046668308 0.34243424)
(0 0.00029652936 0.11936582)
(0 -7.8757887e-05 0.1091511)
(0 0.0042276519 0.31962519)
(0 0.012845026 0.48199157)
(0 0.018602084 0.55990042)
(0 0.01976199 0.57366823)
(0 0.018476319 0.56354999)
(0 0.016894008 0.55257013)
(0 0.015552565 0.54527415)
(0 0.014335492 0.54025985)
(0 0.013150402 0.53637284)
(0 0.011976507 0.53320582)
(0 0.01081113 0.53060049)
(0 0.0096538521 0.52845354)
(0 0.0085039637 0.52668704)
(0 0.0073609942 0.52524309)
(0 0.0062245416 0.52407873)
(0 0.0050941006 0.52316206)
(0 0.0039690379 0.52246956)
(0 0.0028485782 0.5219844)
(0 0.0017318361 0.5216953)
(0 0.00061783796 0.52159582)
(0 -0.00049439679 0.52168401)
(0 -0.001605831 0.52196231)
(0 -0.0027173382 0.5224377)
(0 -0.0038296666 0.5231221)
(0 -0.0049433769 0.52403311)
(0 -0.0060588325 0.52519531)
(0 -0.0071761821 0.52664207)
(0 -0.0082954109 0.52841843)
(0 -0.0094165134 0.5305851)
(0 -0.010539142 0.53322303)
(0 -0.011664148 0.53644944)
(0 -0.012800376 0.54052995)
(0 -0.013997161 0.54624223)
(0 -0.015344161 0.55480257)
(0 -0.016555546 0.56360722)
(0 -0.016140585 0.5546122)
(0 -0.011908853 0.4892164)
(0 -0.0042380128 0.33601351)
(0 0.00022087354 0.11736536)
(0 -3.2134557e-05 0.10732005)
(0 0.0039198939 0.31363464)
(0 0.011973716 0.4754235)
(0 0.017721625 0.55668639)
(0 0.019135945 0.57373834)
(0 0.018026824 0.56491802)
(0 0.016501476 0.55399354)
(0 0.015184904 0.54653375)
(0 0.013999354 0.54144226)
(0 0.012850761 0.53753313)
(0 0.01171329 0.53435668)
(0 0.010583064 0.53174385)
(0 0.0094593533 0.52959021)
(0 0.0083412992 0.52781761)
(0 0.0072284108 0.52636795)
(0 0.0061203572 0.52519827)
(0 0.0050167976 0.52427672)
(0 0.0039173323 0.52357989)
(0 0.002821469 0.52309105)
(0 0.001728642 0.522799)
(0 0.00063821961 0.52269735)
(0 -0.00045043044 0.52278415)
(0 -0.0015379215 0.52306178)
(0 -0.0026247946 0.52353712)
(0 -0.0037114918 0.52422195)
(0 -0.0047983119 0.52513372)
(0 -0.0058854137 0.52629681)
(0 -0.0069728239 0.52774447)
(0 -0.0080604989 0.5295217)
(0 -0.0091485292 0.53168919)
(0 -0.010236827 0.53432831)
(0 -0.011326943 0.53756171)
(0 -0.012430726 0.54168088)
(0 -0.013599618 0.54749507)
(0 -0.014903333 0.55603798)
(0 -0.015993927 0.56391037)
(0 -0.015371494 0.55218487)
(0 -0.011108071 0.48345053)
(0 -0.0038862236 0.33006381)
(0 0.0001579057 0.11551276)
(0 1.6358615e-06 0.10559549)
(0 0.0036538127 0.30806896)
(0 0.011189371 0.46910855)
(0 0.016897831 0.55337732)
(0 0.018534422 0.57361502)
(0 0.017598103 0.56617715)
(0 0.016132197 0.55537722)
(0 0.014838119 0.54776628)
(0 0.013679639 0.54259281)
(0 0.012563373 0.53865908)
(0 0.011458866 0.53547346)
(0 0.010360905 0.53285424)
(0 0.0092683958 0.53069526)
(0 0.008180327 0.52891801)
(0 0.0070961457 0.52746412)
(0 0.006015538 0.5262905)
(0 0.0049382632 0.52536529)
(0 0.003864084 0.52466513)
(0 0.0027927169 0.52417335)
(0 0.0017238386 0.52387882)
(0 0.0006570813 0.52377516)
(0 -0.00040791734 0.52386041)
(0 -0.001471501 0.52413692)
(0 -0.0025339569 0.52461149)
(0 -0.0035955006 0.52529579)
(0 -0.0046562458 0.52620716)
(0 -0.0057162205 0.52736987)
(0 -0.0067753974 0.52881713)
(0 -0.0078337619 0.53059397)
(0 -0.0088915383 0.53276124)
(0 -0.0099489443 0.53540106)
(0 -0.011008307 0.53864275)
(0 -0.012084304 0.54280406)
(0 -0.01322923 0.5487139)
(0 -0.014490302 0.55719163)
(0 -0.015463473 0.56405758)
(0 -0.014658297 0.54965957)
(0 -0.010390141 0.47788411)
(0 -0.0035928521 0.3245339)
(0 0.00010679564 0.1137822)
(0 2.5473804e-05 0.10396752)
(0 0.0034198108 0.30288099)
(0 0.01048069 0.46304133)
(0 0.0161253 0.54999858)
(0 0.017955397 0.57331422)
(0 0.01718727 0.56732851)
(0 0.015783465 0.556721)
(0 0.014510688 0.54897467)
(0 0.013375752 0.54371538)
(0 0.012288283 0.53975416)
(0 0.011213759 0.53655913)
(0 0.010145516 0.53393415)
(0 0.0090820593 0.53177073)
(0 0.0080222248 0.52998985)
(0 0.0069653769 0.5285328)
(0 0.0059111814 0.52735626)
(0 0.0048594502 0.52642832)
(0 0.0038100525 0.52572561)
(0 0.0027628534 0.5252315)
(0 0.0017177078 0.52493485)
(0 0.00067444674 0.52482932)
(0 -0.00036708889 0.52491293)
(0 -0.00140704 0.525188)
(0 -0.0024455062 0.52566128)
(0 -0.0034825414 0.52634436)
(0 -0.0045181351 0.52725451)
(0 -0.0055522418 0.52841597)
(0 -0.0065848281 0.52986197)
(0 -0.0076159463 0.53163767)
(0 -0.0086459718 0.53380417)
(0 -0.0096754535 0.53644478)
(0 -0.010707547 0.53969657)
(0 -0.011759497 0.54390318)
(0 -0.01288317 0.54990043)
(0 -0.014101483 0.55826552)
(0 -0.014960496 0.56406186)
(0 -0.013994605 0.54705919)
(0 -0.0097433181 0.47251644)
(0 -0.0033438484 0.31937887)
(0 6.6183981e-05 0.11215528)
(0 4.1829439e-05 0.10242846)
(0 0.0032112034 0.29803034)
(0 0.0098381982 0.45721468)
(0 0.015399473 0.54657173)
(0 0.017397291 0.57285091)
(0 0.016791938 0.56837349)
(0 0.015452833 0.55802418)
(0 0.014201054 0.55016091)
(0 0.013086901 0.54481312)
(0 0.01202525 0.54082135)
(0 0.010978144 0.53761625)
(0 0.0099373814 0.5349858)