/*--------------------------------*- C++ -*----------------------------------*\
  =========                 |
  \\      /  F ield         | OpenFOAM: The Open Source CFD Toolbox
   \\    /   O peration     | Website:  https://openfoam.org
    \\  /    A nd           | Version:  10
     \\/     M anipulation  |
\*---------------------------------------------------------------------------*/
FoamFile
{
    format      ascii;
    class       volVectorField;
    location    "0.21";
    object      U_0;
}
// * * * * * * * * * * * * * * * * * * * * * * * * * * * * * * * * * * * * * //

dimensions      [0 1 -1 0 0 0 0];

internalField   nonuniform List<vector> 
4000
(
(0 0.018637416 0.47773159)
(0 0.023509928 0.5088606)
(0 0.0081667924 0.50052522)
(0 0.0056145575 0.50033634)
(0 0.0042545732 0.50025746)
(0 0.0032548951 0.50016898)
(0 0.0025560509 0.50011968)
(0 0.002054555 0.50009013)
(0 0.0016765682 0.5000698)
(0 0.0013822469 0.50005539)
(0 0.0011472183 0.50004499)
(0 0.00095514367 0.50003733)
(0 0.0007947684 0.50003159)
(0 0.00065811664 0.50002726)
(0 0.00053935979 0.50002398)
(0 0.00043411693 0.5000215)
(0 0.00033900045 0.50001966)
(0 0.00025130814 0.50001833)
(0 0.00016880703 0.50001744)
(0 8.9574958e-05 0.50001693)
(0 1.187821e-05 0.50001678)
(0 -6.593552e-05 0.50001698)
(0 -0.00014552879 0.50001754)
(0 -0.00022866644 0.5000185)
(0 -0.00031732625 0.5000199)
(0 -0.00041382971 0.50002185)
(0 -0.00052101356 0.50002446)
(0 -0.00064246929 0.50002793)
(0 -0.00078289099 0.50003252)
(0 -0.00094860498 0.50003863)
(0 -0.0011484213 0.50004688)
(0 -0.0013949985 0.50005824)
(0 -0.0017070834 0.50007414)
(0 -0.0021150254 0.50009709)
(0 -0.0026747392 0.50013482)
(0 -0.0034683377 0.50020238)
(0 -0.0045606017 0.50027144)
(0 -0.0065848134 0.50043366)
(0 -0.017659252 0.50675403)
(0 -0.013590022 0.4797557)
(0 0.037432574 0.4479694)
(0 0.050955524 0.53232614)
(0 0.021969109 0.5080429)
(0 0.016135454 0.50357319)
(0 0.012415897 0.50242316)
(0 0.0095157871 0.50162298)
(0 0.0075204826 0.50115659)
(0 0.0060697915 0.5008659)
(0 0.0049645157 0.50066798)
(0 0.0041001221 0.50052898)
(0 0.0034076598 0.50042901)
(0 0.0028401805 0.5003555)
(0 0.0023653101 0.50030061)
(0 0.0019599639 0.50025921)
(0 0.0016071812 0.50022786)
(0 0.0012941659 0.50020419)
(0 0.0010109926 0.50018659)
(0 0.00074972268 0.50017392)
(0 0.00050378124 0.50016541)
(0 0.0002674981 0.50016058)
(0 3.5752036e-05 0.50015915)
(0 -0.00019633702 0.50016105)
(0 -0.00043367912 0.5001664)
(0 -0.00068148524 0.50017551)
(0 -0.00094558654 0.50018893)
(0 -0.001232813 0.50020749)
(0 -0.0015514894 0.50023243)
(0 -0.0019121229 0.50026555)
(0 -0.0023283951 0.50030947)
(0 -0.0028186468 0.50036809)
(0 -0.0034082539 0.50044735)
(0 -0.0041335932 0.50055671)
(0 -0.0050477447 0.50071127)
(0 -0.0062305751 0.50093663)
(0 -0.0078309683 0.50129441)
(0 -0.010124719 0.50191057)
(0 -0.013105957 0.50282518)
(0 -0.017425401 0.50608123)
(0 -0.038758229 0.52526809)
(0 -0.027894291 0.45021698)
(0 0.039888112 0.40982091)
(0 0.061427765 0.54930819)
(0 0.031983379 0.52188194)
(0 0.024355189 0.51008056)
(0 0.01919333 0.50658856)
(0 0.014976901 0.50452805)
(0 0.012006522 0.50327135)
(0 0.0097717839 0.50245833)
(0 0.0080364456 0.501901)
(0 0.0066648602 0.50150862)
(0 0.0055568058 0.50122539)
(0 0.0046427473 0.50101663)
(0 0.0038739457 0.50086048)
(0 0.003215004 0.50074256)
(0 0.002639587 0.50065317)
(0 0.0021276403 0.50058565)
(0 0.0016634858 0.50053538)
(0 0.0012345025 0.50049917)
(0 0.00083018197 0.50047485)
(0 0.000441424 0.50046103)
(0 5.9986027e-05 0.50045694)
(0 -0.00032199466 0.50046238)
(0 -0.00071242812 0.50047767)
(0 -0.001119695 0.5005037)
(0 -0.0015531417 0.50054201)
(0 -0.0020236642 0.50059499)
(0 -0.0025444624 0.50066612)
(0 -0.0031320705 0.5007605)
(0 -0.00380782 0.50088551)
(0 -0.0045999519 0.50105208)
(0 -0.0055468223 0.50127674)
(0 -0.0067024134 0.50158561)
(0 -0.0081439277 0.50202083)
(0 -0.0099754567 0.50265078)
(0 -0.012369815 0.50361517)
(0 -0.015714969 0.50519931)
(0 -0.019871565 0.5078541)
(0 -0.025185247 0.51641231)
(0 -0.04741597 0.53912747)
(0 -0.030853172 0.41488146)
(0 0.034791382 0.36173078)
(0 0.063838385 0.55456353)
(0 0.039379808 0.53747132)
(0 0.030082891 0.51849261)
(0 0.024112133 0.51197728)
(0 0.019279168 0.50849939)
(0 0.015735809 0.50626417)
(0 0.012953895 0.50475533)
(0 0.010743461 0.50370429)
(0 0.0089678151 0.50295597)
(0 0.0075139253 0.5024109)
(0 0.0063021249 0.5020066)
(0 0.0052746076 0.50170279)
(0 0.0043881149 0.50147255)
(0 0.0036098286 0.50129753)
(0 0.0029143635 0.50116504)
(0 0.0022816119 0.50106624)
(0 0.0016952116 0.50099497)
(0 0.0011414205 0.50094705)
(0 0.00060825688 0.5009198)
(0 8.4818497e-05 0.50091173)
(0 -0.00043931715 0.50092244)
(0 -0.00097463312 0.50095255)
(0 -0.0015322013 0.50100378)
(0 -0.0021243028 0.50107912)
(0 -0.0027651451 0.50118315)
(0 -0.0034717691 0.50132258)
(0 -0.0042652541 0.50150709)
(0 -0.0051723816 0.50175068)
(0 -0.0062279328 0.50207383)
(0 -0.0074777777 0.50250702)
(0 -0.0089841501 0.50309723)
(0 -0.010834422 0.50391919)
(0 -0.013135158 0.50508926)
(0 -0.016022013 0.50680695)
(0 -0.019897565 0.50946765)
(0 -0.024729735 0.51427508)
(0 -0.031111549 0.52824704)
(0 -0.050318097 0.54407258)
(0 -0.028437736 0.3723833)
(0 0.027424032 0.31484443)
(0 0.062314169 0.55024113)
(0 0.044613681 0.55146758)
(0 0.033981303 0.52748809)
(0 0.027463371 0.51772238)
(0 0.022454526 0.51291971)
(0 0.018636228 0.50973126)
(0 0.015527667 0.50749241)
(0 0.013005861 0.50589967)
(0 0.010941983 0.5047466)
(0 0.009224649 0.5038958)
(0 0.007775004 0.5032588)
(0 0.0065330598 0.5027767)
(0 0.005452389 0.50240929)
(0 0.0044969406 0.50212876)
(0 0.0036382465 0.50191567)
(0 0.0028533601 0.50175633)
(0 0.0021233394 0.50164116)
(0 0.0014320876 0.5015636)
(0 0.00076544187 0.50151942)
(0 0.00011043487 0.50150632)
(0 -0.00054536667 0.50152363)
(0 -0.0012144648 0.50157234)
(0 -0.0019100085 0.50165515)
(0 -0.0026464788 0.50177674)
(0 -0.0034404582 0.50194427)
(0 -0.0043115763 0.50216813)
(0 -0.0052837211 0.5024632)
(0 -0.0063866462 0.50285075)
(0 -0.0076581301 0.50336142)
(0 -0.0091464393 0.50403986)
(0 -0.010914014 0.50495258)
(0 -0.013047691 0.50620242)
(0 -0.015651275 0.50794427)
(0 -0.018812618 0.51040449)
(0 -0.022893231 0.5140551)
(0 -0.02817459 0.52114574)
(0 -0.035704521 0.53932659)
(0 -0.050474539 0.54155694)
(0 -0.024085539 0.33056258)
(0 0.019837661 0.27519951)
(0 0.05798913 0.53974751)
(0 0.047362697 0.56256471)
(0 0.03647663 0.53660444)
(0 0.029635212 0.52350701)
(0 0.024675289 0.51740311)
(0 0.020773513 0.51336274)
(0 0.017509187 0.5104442)
(0 0.014813811 0.50832381)
(0 0.01256645 0.50676136)
(0 0.010665579 0.50559229)
(0 0.0090392001 0.50470746)
(0 0.0076296947 0.50403195)
(0 0.0063911986 0.50351353)
(0 0.0052872496 0.50311551)
(0 0.0042883756 0.50281182)
(0 0.003370345 0.50258394)
(0 0.0025128182 0.50241878)
(0 0.0016982679 0.50230733)
(0 0.00091110387 0.50224376)
(0 0.00013694601 0.50222483)
(0 -0.00063804221 0.50224966)
(0 -0.0014277691 0.5023196)
(0 -0.0022467924 0.50243838)
(0 -0.0031110109 0.50261245)
(0 -0.0040384151 0.50285159)
(0 -0.0050499836 0.50316994)
(0 -0.0061707854 0.50358751)
(0 -0.0074313736 0.50413247)
(0 -0.0088696801 0.50484475)
(0 -0.010532974 0.50578138)
(0 -0.012479553 0.50702462)
(0 -0.014789633 0.50869766)
(0 -0.017565005 0.51098212)
(0 -0.020859652 0.51412037)
(0 -0.024969845 0.51873069)
(0 -0.030504915 0.52823027)
(0 -0.038626198 0.54872447)
(0 -0.04850605 0.53398786)
(0 -0.019066176 0.29394576)
(0 0.013082918 0.24255733)
(0 0.051797757 0.52520226)
(0 0.047707941 0.57024857)
(0 0.037755713 0.54552471)
(0 0.030849206 0.52928843)
(0 0.026072441 0.52180137)
(0 0.022237037 0.51699751)
(0 0.018952937 0.51347294)
(0 0.01619295 0.51086432)
(0 0.013849266 0.50891174)
(0 0.011835386 0.50743187)
(0 0.010088722 0.50629969)
(0 0.0085566504 0.50542745)
(0 0.0071964175 0.50475301)
(0 0.005973221 0.50423201)
(0 0.0048582398 0.50383251)
(0 0.0038272829 0.50353153)
(0 0.0028596754 0.50331272)
(0 0.0019373263 0.50316471)
(0 0.0010439489 0.50308011)
(0 0.00016439618 0.50305483)
(0 -0.00071596256 0.50308772)
(0 -0.0016118298 0.50318051)
(0 -0.0025385143 0.50333792)
(0 -0.0035125851 0.50356809)
(0 -0.0045525506 0.5038833)
(0 -0.0056796533 0.50430115)
(0 -0.0069188112 0.50484627)
(0 -0.0082997336 0.50555293)
(0 -0.0098584955 0.5064689)
(0 -0.011639296 0.50766135)
(0 -0.013694386 0.50922513)
(0 -0.016093275 0.51129819)
(0 -0.018931266 0.51407992)
(0 -0.022239737 0.51783915)
(0 -0.02625948 0.52346852)
(0 -0.031843345 0.53537563)
(0 -0.039754281 0.5558977)
(0 -0.044890666 0.52282923)
(0 -0.01408981 0.26265513)
(0 0.007769831 0.21554432)
(0 0.044824552 0.50801264)
(0 0.046253572 0.57438116)
(0 0.038033531 0.55375094)
(0 0.031286323 0.53496022)
(0 0.02676693 0.5260299)
(0 0.02311545 0.52053787)
(0 0.019919751 0.51648751)
(0 0.017181277 0.51344076)
(0 0.014812808 0.51112962)
(0 0.012745911 0.50935838)
(0 0.01092853 0.50798974)
(0 0.0093147606 0.50692611)
(0 0.007866631 0.50609757)
(0 0.0065523941 0.50545351)
(0 0.0053450898 0.5049571)
(0 0.0042216045 0.50458154)
(0 0.0031618038 0.5043076)
(0 0.0021477816 0.50412182)
(0 0.0011632099 0.5040154)
(0 0.00019276995 0.50398345)
(0 -0.00077839675 0.50402461)
(0 -0.001765218 0.50414093)
(0 -0.0027831522 0.50433803)
(0 -0.0038487745 0.50462558)
(0 -0.0049803525 0.50501808)
(0 -0.0061985088 0.50553616)
(0 -0.0075269863 0.5062084)
(0 -0.0089934726 0.50707412)
(0 -0.010630768 0.50818751)
(0 -0.012478457 0.5096238)
(0 -0.014581677 0.51148803)
(0 -0.016996631 0.51392909)
(0 -0.01980499 0.51715574)
(0 -0.023022728 0.52148101)
(0 -0.026872309 0.52818356)
(0 -0.03234425 0.54222082)
(0 -0.039396775 0.56050398)
(0 -0.040324234 0.50909297)
(0 -0.0097071201 0.23587031)
(0 0.0040046404 0.19356051)
(0 0.03789803 0.48949097)
(0 0.043684656 0.57524082)
(0 0.037561658 0.56084463)
(0 0.031152254 0.54036072)
(0 0.026912412 0.53001089)
(0 0.02351254 0.52390112)
(0 0.020478978 0.51941171)
(0 0.017825702 0.51598675)
(0 0.015488744 0.5133577)
(0 0.013417773 0.51132274)
(0 0.011571434 0.509736)
(0 0.0099115623 0.50849284)
(0 0.0084059182 0.5075176)
(0 0.0070266687 0.50675489)
(0 0.0057495384 0.50616402)
(0 0.004553241 0.50571511)
(0 0.0034188533 0.50538655)
(0 0.0023292566 0.50516313)
(0 0.0012686309 0.50503486)
(0 0.00022199724 0.50499616)
(0 -0.0008252359 0.50504547)
(0 -0.0018877254 0.50518512)
(0 -0.0029805638 0.50542152)
(0 -0.0041197779 0.50576563)
(0 -0.005322786 0.50623382)
(0 -0.0066089131 0.50684919)
(0 -0.0079999738 0.50764355)
(0 -0.0095208288 0.50866024)
(0 -0.011200082 0.50995834)
(0 -0.013071603 0.51161918)
(0 -0.015172916 0.5137554)
(0 -0.01754666 0.51652278)
(0 -0.020256997 0.52013238)
(0 -0.023311802 0.52496437)
(0 -0.026952942 0.53274106)
(0 -0.032194415 0.54839123)
(0 -0.037986759 0.56254696)
(0 -0.035410025 0.4938059)
(0 -0.0061994162 0.21326834)
(0 0.0015507515 0.17613863)
(0 0.03149787 0.4707671)
(0 0.040529375 0.5733871)
(0 0.03655596 0.5665979)
(0 0.030634681 0.54537781)
(0 0.02666926 0.53370389)
(0 0.023540917 0.52703134)
(0 0.020708516 0.52218723)
(0 0.018181394 0.51844982)
(0 0.015916075 0.51554942)
(0 0.013878127 0.51328387)
(0 0.012036112 0.51150253)
(0 0.010359726 0.51009639)
(0 0.0088227061 0.50898593)
(0 0.0074015173 0.50811243)
(0 0.0060750389 0.50743236)
(0 0.004824291 0.50691356)
(0 0.0036320276 0.50653256)
(0 0.0024823648 0.50627279)
(0 0.0013604179 0.50612329)
(0 0.00025195932 0.50607793)
(0 -0.00085693155 0.50613499)
(0 -0.0019802353 0.50629704)
(0 -0.0031322642 0.50657111)
(0 -0.0043280658 0.50696919)
(0 -0.0055837568 0.50750913)
(0 -0.00691689 0.50821595)
(0 -0.0083468605 0.50912388)
(0 -0.0098952438 0.51027921)
(0 -0.011586054 0.51174452)
(0 -0.013447022 0.51360514)
(0 -0.01550822 0.51597855)
(0 -0.017800278 0.51902331)
(0 -0.020370154 0.52295043)
(0 -0.023225093 0.52823673)
(0 -0.026645335 0.53704147)
(0 -0.03155511 0.55365965)
(0 -0.035895187 0.56231345)
(0 -0.030547582 0.47790932)
(0 -0.0035896888 0.19462952)
(0 7.6336372e-05 0.16253126)
(0 0.025868347 0.4526077)
(0 0.037155959 0.56943558)
(0 0.035187375 0.57098823)
(0 0.029873767 0.549962)
(0 0.02617049 0.53711292)
(0 0.023302943 0.52991114)
(0 0.020684862 0.52478264)
(0 0.018305732 0.52079629)
(0 0.016137164 0.51767187)
(0 0.01415786 0.51521082)
(0 0.012344957 0.51326097)
(0 0.010675371 0.51171109)
(0 0.0091284812 0.51047948)
(0 0.0076850265 0.50950537)
(0 0.0063271928 0.50874338)
(0 0.0050385361 0.50815977)
(0 0.0038037615 0.50772978)
(0 0.0026085151 0.50743582)
(0 0.0014391507 0.50726622)
(0 0.00028249671 0.50721444)
(0 -0.00087439103 0.50727864)
(0 -0.0020445101 0.50746155)
(0 -0.0032410865 0.5077707)
(0 -0.0044778826 0.50821884)
(0 -0.0057694159 0.50882488)
(0 -0.0071311895 0.50961521)
(0 -0.008579939 0.51062571)
(0 -0.010133814 0.51190464)
(0 -0.011812308 0.51351671)
(0 -0.01363722 0.51554959)
(0 -0.015631773 0.51812302)
(0 -0.017816606 0.5213952)
(0 -0.020224116 0.52558059)
(0 -0.022867874 0.53128391)
(0 -0.026065581 0.54103225)
(0 -0.030556909 0.55793525)
(0 -0.033415339 0.56019872)
(0 -0.025988678 0.46209225)
(0 -0.0017636416 0.1794941)
(0 -0.0007184025 0.15191501)
(0 0.021105629 0.43544463)
(0 0.033814746 0.56393524)
(0 0.033598941 0.57408848)
(0 0.028970172 0.55409261)
(0 0.025515648 0.54026222)
(0 0.022882239 0.53255102)
(0 0.020474958 0.52718994)
(0 0.018251713 0.52301008)
(0 0.016193088 0.51970547)
(0 0.014288348 0.51708279)
(0 0.012521724 0.51499065)
(0 0.010876314 0.51331714)
(0 0.0093364744 0.51197965)
(0 0.0078869134 0.51091636)
(0 0.0065130229 0.51008092)
(0 0.0052009185 0.50943864)
(0 0.0039373638 0.50896393)
(0 0.0027096922 0.50863854)
(0 0.0015056819 0.50845034)
(0 0.00031341822 0.50839248)
(0 -0.00087885848 0.50846305)
(0 -0.0020829538 0.5086649)
(0 -0.003310806 0.50900588)
(0 -0.0045747064 0.50949924)
(0 -0.0058874153 0.51016461)
(0 -0.0072622818 0.51102925)
(0 -0.0087133532 0.51213001)
(0 -0.010255454 0.51351621)
(0 -0.01190391 0.5152537)
(0 -0.013675181 0.51743112)
(0 -0.015586431 0.52016862)
(0 -0.017650136 0.52362213)
(0 -0.019887782 0.52801733)
(0 -0.022325517 0.53411204)
(0 -0.0253046 0.54468241)
(0 -0.029314963 0.5612087)
(0 -0.030778749 0.55659807)
(0 -0.021886867 0.446793)
(0 -0.00056294248 0.16727491)
(0 -0.001070555 0.14359257)
(0 0.017200568 0.41949208)
(0 0.03066133 0.55734543)
(0 0.031908565 0.57601987)
(0 0.027997952 0.55776199)
(0 0.024778254 0.54317763)
(0 0.022345245 0.53497368)
(0 0.020134432 0.52941503)
(0 0.0180651 0.52508717)
(0 0.016120861 0.52164078)
(0 0.014299087 0.51888727)
(0 0.012589615 0.51667751)
(0 0.010980575 0.51489994)
(0 0.0094605185 0.51347187)
(0 0.0080176568 0.51233125)
(0 0.0066403226 0.51143135)
(0 0.0053170669 0.51073706)
(0 0.0040366892 0.51022238)
(0 0.0027882524 0.5098687)
(0 0.0015610426 0.5096636)
(0 0.00034451025 0.50960007)
(0 -0.00087180149 0.50967614)
(0 -0.0020983869 0.50989474)
(0 -0.0033457904 0.51026388)
(0 -0.0046247489 0.51079715)
(0 -0.0059462257 0.51151453)
(0 -0.0073214434 0.5124437)
(0 -0.0087618859 0.51362198)
(0 -0.010279308 0.51509907)
(0 -0.011885361 0.51694114)
(0 -0.013591933 0.51923692)
(0 -0.015411036 0.5221056)
(0 -0.017348666 0.52570013)
(0 -0.019419441 0.53026762)
(0 -0.02166695 0.53673279)
(0 -0.024435598 0.54797186)
(0 -0.027930956 0.56352396)
(0 -0.02815597 0.55187333)
(0 -0.018316298 0.4322763)
(0 0.00017083008 0.15742597)
(0 -0.0011536811 0.13701257)
(0 0.014075674 0.40483047)
(0 0.027775754 0.55004053)
(0 0.03020428 0.57692991)
(0 0.027009502 0.56097663)
(0 0.024011281 0.54588312)
(0 0.021743821 0.53720608)
(0 0.019708462 0.53147102)
(0 0.017784215 0.5270308)
(0 0.015952577 0.52347523)
(0 0.01421654 0.52061785)
(0 0.012570116 0.51831271)
(0 0.011005355 0.51644923)
(0 0.0095141941 0.51494517)
(0 0.0080878111 0.51373877)
(0 0.0067171225 0.51278339)
(0 0.0053928977 0.51204388)
(0 0.0041058564 0.51149415)
(0 0.0028467457 0.51111545)
(0 0.0016063608 0.51089526)
(0 0.00037554605 0.5108265)
(0 -0.00085481045 0.51090715)
(0 -0.0020938496 0.51114018)
(0 -0.0033506944 0.51153369)
(0 -0.0046345299 0.51210135)
(0 -0.0059545709 0.51286327)
(0 -0.0073200353 0.51384724)
(0 -0.0087400678 0.51509057)
(0 -0.010223703 0.5166429)
(0 -0.011779475 0.51857012)
(0 -0.01341553 0.52096045)
(0 -0.015139718 0.5239312)
(0 -0.016953212 0.52763289)
(0 -0.018867653 0.53234515)
(0 -0.020946709 0.53916029)
(0 -0.023515755 0.55089413)
(0 -0.026487342 0.56496367)
(0 -0.025658237 0.54634238)
(0 -0.015288599 0.41869022)
(0 0.00057579717 0.14948453)
(0 -0.001086111 0.13173526)
(0 0.011620293 0.39145114)
(0 0.025185847 0.5423143)
(0 0.028544886 0.57697292)
(0 0.026038203 0.56375621)
(0 0.023250069 0.54840154)
(0 0.021116471 0.53927668)
(0 0.019232477 0.53337531)
(0 0.017440269 0.52884892)
(0 0.015715277 0.5252109)
(0 0.014063691 0.52227257)
(0 0.012482419 0.51989144)
(0 0.010966424 0.51795828)
(0 0.0095102563 0.51639161)
(0 0.0081075074 0.51513026)
(0 0.0067512813 0.51412798)
(0 0.0054342961 0.51334984)
(0 0.0041490176 0.5127699)
(0 0.0028877687 0.51236946)
(0 0.0016427926 0.51213599)
(0 0.00040629483 0.51206243)
(0 -0.0008295115 0.51214675)
(0 -0.0020724336 0.5123919)
(0 -0.003330209 0.51280598)
(0 -0.0046105362 0.51340261)
(0 -0.0059209951 0.51420182)
(0 -0.0072689824 0.51523125)
(0 -0.0086615859 0.51652795)
(0 -0.010105523 0.5181411)
(0 -0.011606781 0.52013601)
(0 -0.013170583 0.52259991)
(0 -0.014801606 0.52564779)
(0 -0.016497791 0.52942954)
(0 -0.018271108 0.53426804)
(0 -0.020205403 0.54141113)
(0 -0.022586605 0.55345689)
(0 -0.025045171 0.56563239)
(0 -0.023348217 0.54027118)
(0 -0.012774136 0.40609665)
(0 0.00076106267 0.14305636)
(0 -0.00094428511 0.12741508)
(0 0.0097156543 0.37928809)
(0 0.022888146 0.53438721)
(0 0.026965564 0.57629401)
(0 0.025102776 0.56612796)
(0 0.022515831 0.55075357)
(0 0.020489843 0.54121315)
(0 0.018732911 0.5351475)
(0 0.017057737 0.53055254)
(0 0.01543101 0.52685312)
(0 0.013859892 0.52385271)
(0 0.012343138 0.52141201)
(0 0.010877777 0.51942326)
(0 0.0094602775 0.51780587)
(0 0.008086118 0.51649938)
(0 0.0067501925 0.51545809)
(0 0.0054468788 0.51464751)
(0 0.0041701802 0.51404194)
(0 0.0029138483 0.51362287)
(0 0.0016714687 0.51337788)
(0 0.00043653016 0.51329995)
(0 -0.00079749571 0.51338704)
(0 -0.002037149 0.5136421)
(0 -0.003288864 0.5140731)
(0 -0.004558963 0.51469356)
(0 -0.005853547 0.51552328)
(0 -0.0071784108 0.51658957)
(0 -0.0085388937 0.517929)
(0 -0.0099398094 0.51959014)
(0 -0.011385151 0.5216375)
(0 -0.012877959 0.52415713)
(0 -0.014420631 0.52726158)
(0 -0.016009344 0.53110296)
(0 -0.017658908 0.5360567)
(0 -0.019471183 0.54350286)
(0 -0.021676171 0.55567759)
(0 -0.023646439 0.56564025)
(0 -0.021253957 0.53387132)
(0 -0.010720393 0.3944952)
(0 0.00080694119 0.13780813)
(0 -0.00077569396 0.12379096)
(0 0.0082491011 0.36824447)
(0 0.020862371 0.52641883)
(0 0.025484194 0.5750211)
(0 0.024212001 0.5681215)
(0 0.021819699 0.55295618)
(0 0.019881069 0.54304014)
(0 0.018228517 0.53680734)
(0 0.01665506 0.53215413)
(0 0.015117136 0.52840914)
(0 0.01362093 0.52536173)
(0 0.012166236 0.52287496)
(0 0.010751475 0.52084252)
(0 0.0093744477 0.51918467)
(0 0.0080320493 0.51784168)
(0 0.0067205933 0.51676848)
(0 0.0054358302 0.51593105)
(0 0.0041730815 0.51530407)
(0 0.002927358 0.51486926)
(0 0.0016934557 0.51461437)
(0 0.00046603747 0.51453246)
(0 -0.00076026506 0.51462151)
(0 -0.0019908245 0.51488438)
(0 -0.0032308847 0.51532896)
(0 -0.0044855311 0.51596853)
(0 -0.005759565 0.51682259)
(0 -0.0070574124 0.51791802)
(0 -0.0083829718 0.51929083)
(0 -0.0097395495 0.52098887)
(0 -0.011129641 0.5230758)
(0 -0.012554732 0.52563641)
(0 -0.014015707 0.52878115)
(0 -0.015508272 0.53266784)
(0 -0.017051797 0.53773138)
(0 -0.01876226 0.54545191)
(0 -0.020801985 0.55757869)
(0 -0.022317688 0.56509224)
(0 -0.019380548 0.52730488)
(0 -0.0090645989 0.38384545)
(0 0.00076993852 0.1334675)
(0 -0.00060832445 0.1206727)
(0 0.0071214426 0.35821145)
(0 0.019080497 0.51852136)
(0 0.024106634 0.57326322)
(0 0.023368319 0.56976621)
(0 0.021166109 0.55502226)
(0 0.019300221 0.54477808)
(0 0.017731983 0.53837314)
(0 0.016245651 0.53366626)
(0 0.014786895 0.52988706)
(0 0.013359314 0.52680437)
(0 0.01196313 0.52428234)
(0 0.010597641 0.52221602)
(0 0.009261506 0.52052635)
(0 0.0079526433 0.51915429)
(0 0.0066684571 0.51805536)
(0 0.0054058041 0.51719605)
(0 0.0041611081 0.51655141)
(0 0.0029304637 0.51610347)
(0 0.0017097311 0.51584016)
(0 0.00049462074 0.51575463)
(0 -0.00071919442 0.51584488)
(0 -0.0019360387 0.5161137)
(0 -0.0031600971 0.51656883)
(0 -0.0043953714 0.5172233)
(0 -0.0056455496 0.51809625)
(0 -0.0069139199 0.51921409)
(0 -0.008203228 0.52061225)
(0 -0.0095156286 0.52233786)
(0 -0.010852547 0.52445376)
(0 -0.012214428 0.52704357)
(0 -0.013601265 0.5302162)
(0 -0.015009406 0.53413903)
(0 -0.016463757 0.53931053)
(0 -0.018089389 0.54727264)
(0 -0.01997374 0.55918465)
(0 -0.021073364 0.56408323)
(0 -0.01771873 0.52069266)
(0 -0.0077420372 0.3740846)
(0 0.00068846758 0.12981918)
(0 -0.00045709815 0.11792507)
(0 0.0062500947 0.34907962)
(0 0.017512377 0.5107714)
(0 0.022830978 0.57111179)
(0 0.022570348 0.57109011)
(0 0.02055521 0.55696123)
(0 0.018752316 0.54644308)
(0 0.017251402 0.53986104)
(0 0.015838931 0.53510083)
(0 0.014450109 0.53129503)
(0 0.013084711 0.52818591)
(0 0.01174294 0.52563711)
(0 0.010424574 0.52354479)
(0 0.0091287739 0.52183044)
(0 0.0078541629 0.52043555)
(0 0.0065989559 0.51931617)
(0 0.0053608784 0.51843926)
(0 0.0041372557 0.51778026)
(0 0.0029250944 0.51732149)
(0 0.0017211704 0.51705106)
(0 0.00052210757 0.51696224)
(0 -0.00067550754 0.51705302)
(0 -0.0018750801 0.51732615)
(0 -0.0030798747 0.51778917)
(0 -0.0042929661 0.51845487)
(0 -0.0055171113 0.51934202)
(0 -0.0067546765 0.52047656)
(0 -0.0080075131 0.52189335)
(0 -0.0092769307 0.52363887)
(0 -0.010563636 0.52577526)
(0 -0.011867441 0.52838508)
(0 -0.013187935 0.53157659)
(0 -0.014523014 0.53553057)
(0 -0.015903472 0.54081015)
(0 -0.017457861 0.54897713)
(0 -0.019195418 0.5605202)
(0 -0.019918897 0.56269605)
(0 -0.016251216 0.5141223)
(0 -0.0066914947 0.36513929)
(0 0.00058770819 0.12669671)
(0 -0.0003284811 0.11545385)
(0 0.0055693189 0.34074519)
(0 0.016129058 0.50321913)
(0 0.021650929 0.56864261)
(0 0.021814681 0.57211931)
(0 0.019984572 0.5587797)
(0 0.018238894 0.54804731)
(0 0.016791485 0.54128476)
(0 0.015441228 0.53646857)
(0 0.014113838 0.53264079)
(0 0.012804411 0.52951173)
(0 0.011512783 0.52694269)
(0 0.010238933 0.52483058)
(0 0.008982258 0.52309731)
(0 0.00774184 0.52168473)
(0 0.0065164741 0.52054932)
(0 0.0053045511 0.51965845)
(0 0.0041041175 0.51898792)
(0 0.0029129323 0.51852029)
(0 0.0017285429 0.51824388)
(0 0.00054835339 0.51815205)
(0 -0.00063026514 0.5182428)
(0 -0.0018099288 0.51851881)
(0 -0.0029931201 0.51898745)
(0 -0.0041821368 0.51966125)
(0 -0.0053789763 0.52055865)
(0 -0.0065852766 0.52170513)
(0 -0.0078022183 0.52313507)
(0 -0.0090305196 0.52489438)
(0 -0.010270448 0.52704463)
(0 -0.011521494 0.52966755)
(0 -0.012783216 0.53287178)
(0 -0.014055741 0.53685515)
(0 -0.015375593 0.54224358)
(0 -0.016869104 0.55057531)
(0 -0.018467084 0.56160916)
(0 -0.018853543 0.56100132)
(0 -0.014957149 0.50765543)
(0 -0.0058583704 0.35693301)
(0 0.00048340679 0.12397345)
(0 -0.00022380559 0.11319465)
(0 0.0050286305 0.33311327)
(0 0.014904431 0.49589558)
(0 0.020558214 0.56591824)
(0 0.021097143 0.57287777)
(0 0.019450426 0.56048212)
(0 0.017759239 0.54959954)
(0 0.016354531 0.54265565)
(0 0.015056538 0.53777897)
(0 0.013782978 0.53393143)
(0 0.012523763 0.53078701)
(0 0.011278095 0.52820261)
(0 0.010045952 0.52607554)
(0 0.0088267903 0.52432791)
(0 0.0076199609 0.52290179)
(0 0.006424657 0.52175398)
(0 0.0052397649 0.52085219)
(0 0.0040638959 0.52017248)
(0 0.0028954173 0.51969768)
(0 0.0017325144 0.51941627)
(0 0.00057324324 0.51932167)
(0 -0.00058436301 0.51941193)
(0 -0.0017422572 0.51968962)
(0 -0.0029022717 0.52016198)
(0 -0.0040660667 0.52084129)
(0 -0.0052350335 0.52174568)
(0 -0.0064102513 0.52290026)
(0 -0.0075924164 0.52433895)
(0 -0.0087818592 0.52610728)
(0 -0.0099786203 0.52826637)
(0 -0.011182096 0.53089737)
(0 -0.012392094 0.53411051)
(0 -0.013611439 0.53812384)
(0 -0.014881831 0.54362152)
(0 -0.016321976 0.55207505)
(0 -0.017786361 0.56247361)
(0 -0.01787275 0.55905819)
(0 -0.013815007 0.50133375)
(0 -0.0051959943 0.3493908)
(0 0.0003847718 0.12155464)
(0 -0.00014154289 0.11110411)
(0 0.0045903708 0.32609936)
(0 0.013815799 0.48881816)
(0 0.019544138 0.56299029)
(0 0.020413572 0.57338733)
(0 0.018948517 0.56207138)
(0 0.017311321 0.5511057)
(0 0.015941203 0.54398283)
(0 0.01468715 0.53904016)
(0 0.013460762 0.53517329)
(0 0.012246569 0.53201658)
(0 0.011042926 0.5294204)
(0 0.0098496628 0.527282)
(0 0.0086661823 0.52552354)
(0 0.0074919722 0.52408719)
(0 0.0063264806 0.52292992)
(0 0.0051689518 0.52201967)
(0 0.0040184292 0.52133275)
(0 0.0028737621 0.52085218)
(0 0.0017336531 0.52056658)
(0 0.00059669394 0.52046945)
(0 -0.00053853656 0.52055882)
(0 -0.0016734445 0.52083722)
(0 -0.002809331 0.52131174)
(0 -0.0039473452 0.52199446)
(0 -0.0050884068 0.52290322)
(0 -0.006233179 0.52406283)
(0 -0.0073820254 0.52550689)
(0 -0.0085350459 0.52728062)
(0 -0.0096922066 0.52944486)
(0 -0.010852976 0.53208049)
(0 -0.012017611 0.53530059)
(0 -0.013191899 0.53934604)
(0 -0.014421878 0.54495222)
(0 -0.015813781 0.55348244)
(0 -0.017149527 0.56313361)
(0 -0.016969902 0.55691573)
(0 -0.012804322 0.49518415)
(0 -0.0046658188 0.34244213)
(0 0.0002966348 0.11937054)
(0 -7.8783093e-05 0.10915324)
(0 0.0042271208 0.31962946)
(0 0.012843865 0.4819949)
(0 0.018600455 0.55990159)
(0 0.019760224 0.57366797)
(0 0.018474631 0.56354932)
(0 0.016892444 0.55256945)
(0 0.015551114 0.54527343)
(0 0.014334155 0.54025903)
(0 0.013149191 0.5363719)
(0 0.011975436 0.53320478)
(0 0.01081021 0.53059935)
(0 0.0096530955 0.52845232)
(0 0.0085033804 0.52668574)
(0 0.0073605933 0.52524172)
(0 0.006224331 0.5240773)
(0 0.0050940868 0.52316059)
(0 0.0039692263 0.52246806)
(0 0.0028489728 0.52198288)
(0 0.0017324399 0.52169376)
(0 0.00061865177 0.52159429)
(0 -0.00049337277 0.52168249)
(0 -0.001604598 0.52196082)
(0 -0.0027158996 0.52243626)
(0 -0.0038280265 0.52312071)
(0 -0.0049415415 0.52403179)
(0 -0.006056809 0.52519407)
(0 -0.0071739794 0.52664092)
(0 -0.0082930393 0.52841739)
(0 -0.0094139848 0.53058419)
(0 -0.01053647 0.53322225)
(0 -0.011661346 0.53644881)
(0 -0.012797459 0.54052945)
(0 -0.01399413 0.54624177)
(0 -0.015340997 0.55480206)
(0 -0.016552287 0.56360716)
(0 -0.016137526 0.5546144)
(0 -0.011906581 0.48922274)
(0 -0.0042369057 0.33602249)
(0 0.00022098033 0.11737061)
(0 -3.2159087e-05 0.10732245)
(0 0.0039193089 0.31363954)
(0 0.01197242 0.47542745)
(0 0.01771979 0.55668788)
(0 0.019133935 0.57373811)
(0 0.018024891 0.56491725)
(0 0.016499684 0.55399274)
(0 0.015183243 0.54653291)
(0 0.013997823 0.54144131)
(0 0.012849373 0.53753206)
(0 0.011712059 0.53435549)
(0 0.010582003 0.53174254)
(0 0.009458474 0.52958881)
(0 0.0083406135 0.52781612)
(0 0.0072279284 0.52636639)
(0 0.006120087 0.52519664)
(0 0.0050167467 0.52427504)
(0 0.0039175067 0.52357817)
(0 0.0028218731 0.5230893)
(0 0.0017292792 0.52279724)
(0 0.00063909117 0.5226956)
(0 -0.00044932423 0.52278241)
(0 -0.001536582 0.52306007)
(0 -0.0026232249 0.52353546)
(0 -0.0037096962 0.52422035)
(0 -0.0047962968 0.52513219)
(0 -0.0058831866 0.52629538)
(0 -0.0069703942 0.52774315)
(0 -0.0080578775 0.52952049)
(0 -0.0091457286 0.53168812)
(0 -0.010233861 0.53432738)
(0 -0.011323828 0.53756094)
(0 -0.012427475 0.54168025)
(0 -0.013596229 0.54749448)
(0 -0.014899787 0.55603735)
(0 -0.015990284 0.56391037)
(0 -0.015368101 0.55218759)
(0 -0.011105571 0.48345792)
(0 -0.0038850149 0.33007399)
(0 0.00015801382 0.11551859)
(0 1.6122054e-06 0.10559818)
(0 0.0036531701 0.30807457)
(0 0.01118793 0.4691132)
(0 0.016895771 0.55337919)
(0 0.018532142 0.57361483)
(0 0.017595897 0.56617626)
(0 0.01613015 0.55537628)
(0 0.014836223 0.54776531)
(0 0.013677892 0.54259172)
(0 0.012561786 0.53865785)
(0 0.011457455 0.5354721)
(0 0.010359684 0.53285275)
(0 0.0092673791 0.53069366)
(0 0.008179526 0.52891631)
(0 0.0070955712 0.52746234)
(0 0.0060151994 0.52628864)
(0 0.0049381686 0.52536337)
(0 0.0038642398 0.52466317)
(0 0.0027931283 0.52417137)
(0 0.0017245089 0.52387682)
(0 0.00065801256 0.52377316)
(0 -0.00040672476 0.52385843)
(0 -0.0014700484 0.52413497)
(0 -0.0025322471 0.52460959)
(0 -0.0035935383 0.52529396)
(0 -0.0046540372 0.52620541)
(0 -0.0057137737 0.52736822)
(0 -0.0067727222 0.5288156)
(0 -0.0078308696 0.53059257)
(0 -0.0088884421 0.53275998)
(0 -0.0099456588 0.53539997)
(0 -0.011004848 0.53864183)
(0 -0.012080686 0.54280329)
(0 -0.013225448 0.54871316)
(0 -0.014486337 0.55719086)
(0 -0.01545941 0.56405766)
(0 -0.01465454 0.54966288)
(0 -0.010387396 0.47789269)
(0 -0.0035915353 0.3245454)
(0 0.00010690503 0.11378865)
(0 2.5451248e-05 0.10397054)
(0 0.0034191067 0.30288739)
(0 0.01047909 0.46304676)
(0 0.016122993 0.5500009)
(0 0.01795282 0.5733141)
(0 0.017184761 0.56732751)
(0 0.015781135 0.55671989)
(0 0.014508532 0.54897353)
(0 0.013373764 0.54371413)
(0 0.012286477 0.53975275)
(0 0.01121215 0.53655757)
(0 0.010144119 0.53393245)
(0 0.0090808889 0.53176891)
(0 0.0080212945 0.52998792)
(0 0.0069646983 0.52853077)
(0 0.0059107647 0.52735415)
(0 0.0048593042 0.52642615)
(0 0.0038101845 0.52572339)
(0 0.0027632689 0.52522924)
(0 0.0017184108 0.52493257)
(0 0.00067543945 0.52482704)
(0 -0.00036580574 0.52491067)
(0 -0.0014054675 0.52518578)
(0 -0.0024436472 0.52565911)
(0 -0.0034804006 0.52634226)
(0 -0.0045157189 0.5272525)
(0 -0.0055495585 0.52841407)
(0 -0.0065818878 0.52986019)
(0 -0.0076127608 0.53163604)
(0 -0.0086425548 0.5338027)
(0 -0.0096718206 0.53644349)
(0 -0.010703715 0.53969547)
(0 -0.011755478 0.54390223)
(0 -0.012878957 0.54989949)
(0 -0.01409706 0.55826461)
(0 -0.014955977 0.56406204)
(0 -0.013990455 0.54706318)
(0 -0.0097403081 0.47252634)
(0 -0.0033424168 0.31939181)
(0 6.6294521e-05 0.1121624)
(0 4.1808304e-05 0.10243182)
(0 0.0032104338 0.29803761)
(0 0.0098364259 0.45722101)
(0 0.015396898 0.54657457)
(0 0.017394387 0.5728509)
(0 0.016789093 0.56837236)
(0 0.015450187 0.55802289)
(0 0.014198608 0.55015959)
(0 0.013084647 0.54481168)
(0 0.012023199 0.54081974)
(0 0.010976313 0.53761447)
(0 0.0099357873 0.53498387)