/*--------------------------------*- C++ -*----------------------------------*\
  =========                 |
  \\      /  F ield         | OpenFOAM: The Open Source CFD Toolbox
   \\    /   O peration     | Website:  https://openfoam.org
    \\  /    A nd           | Version:  10
     \\/     M anipulation  |
\*---------------------------------------------------------------------------*/
FoamFile
{
    format      ascii;
    class       surfaceScalarField;
    location    "0.03";
    object      phi;
}
// * * * * * * * * * * * * * * * * * * * * * * * * * * * * * * * * * * * * * //

dimensions      [1 0 -1 0 0 0 0];

internalField   nonuniform List<scalar> 
7860
(
3.9624186e-08
5.2908515e-07
1.2007357e-08
5.963234e-07
7.2549075e-09
5.7346027e-07
5.3161501e-09
5.7064652e-07
3.939119e-09
5.7008475e-07
3.03798e-09
5.6960884e-07
2.4095616e-09
5.693361e-07
1.943732e-09
5.691735e-07
1.5877022e-09
5.6906369e-07
1.3085564e-09
5.689868e-07
1.0843322e-09
5.6893187e-07
9.0022011e-10
5.6889175e-07
7.458918e-10
5.6886196e-07
6.1391339e-10
5.6883961e-07
4.9879478e-10
5.6882274e-07
3.9637488e-10
5.6881004e-07
3.0340967e-10
5.6880058e-07
2.1728808e-10
5.6879374e-07
1.3582777e-10
5.6878908e-07
5.7121731e-11
5.6878632e-07
-2.058578e-11
5.6878532e-07
-9.9008617e-11
5.6878604e-07
-1.7992167e-10
5.6878853e-07
-2.6527046e-10
5.6879297e-07
-3.5730543e-10
5.6879965e-07
-4.5874835e-10
5.6880906e-07
-5.7301959e-10
5.6882189e-07
-7.0456166e-10
5.6883917e-07
-8.5931665e-10
5.6886239e-07
-1.0454585e-09
5.6889378e-07
-1.2746019e-09
5.6893678e-07
-1.5638506e-09
5.689969e-07
-1.9387966e-09
5.690826e-07
-2.4401972e-09
5.6920907e-07
-3.1515021e-09
5.6941899e-07
-4.2333147e-09
5.6978951e-07
-5.7903745e-09
5.7026478e-07
-9.2892992e-09
5.7220668e-07
-2.9272222e-08
5.8869072e-07
5.3943574e-07
5.9005796e-08
4.7008975e-07
3.5953566e-08
6.1937168e-07
2.2014525e-08
5.8739802e-07
1.5658164e-08
5.7700292e-07
1.1727142e-08
5.7401579e-07
9.085644e-09
5.7225034e-07
7.2026225e-09
5.7121913e-07
5.807918e-09
5.7056821e-07
4.7441236e-09
5.7012749e-07
3.9101583e-09
5.6982077e-07
3.2403063e-09
5.6960172e-07
2.6903211e-09
5.6944174e-07
2.2292688e-09
5.6932302e-07
1.8349098e-09
5.6923397e-07
1.4908402e-09
5.6916682e-07
1.1846372e-09
5.6911625e-07
9.0662495e-10
5.690786e-07
6.4902241e-10
5.6905135e-07
4.053322e-10
5.6903277e-07
1.6987961e-10
5.6902178e-07
-6.2557078e-11
5.6901777e-07
-2.970689e-10
5.6902056e-07
-5.3892816e-10
5.6903039e-07
-7.9392252e-10
5.6904797e-07
-1.068747e-09
5.6907448e-07
-1.3715061e-09
5.6911183e-07
-1.7123944e-09
5.6916279e-07
-2.1046676e-09
5.6923145e-07
-2.5660814e-09
5.693238e-07
-3.1210962e-09
5.694488e-07
-3.8044112e-09
5.696201e-07
-4.6671668e-09
5.6985966e-07
-5.7876695e-09
5.7020311e-07
-7.2876738e-09
5.7070908e-07
-9.374483e-09
5.715058e-07
-1.2463746e-08
5.7287878e-07
-1.7382413e-08
5.7518345e-07
-2.7357348e-08
5.8218162e-07
-4.5019882e-08
6.0635326e-07
4.9441587e-07
5.8943015e-08
4.1117448e-07
4.9101436e-08
6.292109e-07
3.220062e-08
6.0429387e-07
2.3738048e-08
5.8546518e-07
1.831479e-08
5.7943913e-07
1.4407943e-08
5.761572e-07
1.1525239e-08
5.7410184e-07
9.3532363e-09
5.7274022e-07
7.6759139e-09
5.7180482e-07
6.3489467e-09
5.7114774e-07
5.2759145e-09
5.7067476e-07
4.3901438e-09
5.7032752e-07
3.6442492e-09
5.7006892e-07
3.0038021e-09
5.6987442e-07
2.4431944e-09
5.6972743e-07
1.9429035e-09
5.6961655e-07
1.487643e-09
5.6953387e-07
1.0650681e-09
5.6947393e-07
6.6483639e-10
5.6943301e-07
2.7789421e-10
5.6940873e-07
-1.0409917e-10
5.6939976e-07
-4.8927506e-10
5.6940574e-07
-8.8604484e-10
5.6942717e-07
-1.3036218e-09
5.6946555e-07
-1.7526291e-09
5.695235e-07
-2.2458729e-09
5.6960508e-07
-2.7993815e-09
5.697163e-07
-3.4338629e-09
5.6986593e-07
-4.176833e-09
5.7006678e-07
-5.0658095e-09
5.7033778e-07
-6.153166e-09
5.7070747e-07
-7.5140363e-09
5.7122053e-07
-9.2600683e-09
5.7194915e-07
-1.1557654e-08
5.7300667e-07
-1.4646946e-08
5.745951e-07
-1.8904369e-08
5.7713621e-07
-2.5297074e-08
5.8157616e-07
-3.7353119e-08
5.9423767e-07
-4.6838438e-08
6.1583858e-07
4.4757743e-07
5.3432723e-08
3.5779579e-07
5.5240944e-08
6.2741171e-07
3.8571707e-08
6.2095294e-07
2.9117316e-08
5.9491776e-07
2.3119881e-08
5.8543673e-07
1.8571752e-08
5.8070537e-07
1.5076414e-08
5.7759718e-07
1.2368101e-08
5.7544854e-07
1.0231821e-08
5.739411e-07
8.5151269e-09
5.7286444e-07
7.1102425e-09
5.7207965e-07
5.9392722e-09
5.7149849e-07
4.9452864e-09
5.7106291e-07
4.086061e-09
5.7073366e-07
3.3296695e-09
5.7048383e-07
2.6514559e-09
5.7029477e-07
2.0319121e-09
5.7015342e-07
1.4551498e-09
5.700507e-07
9.0776936e-10
5.699804e-07
3.7798506e-10
5.6993852e-07
-1.450892e-10
5.6992285e-07
-6.7206986e-10
5.6993272e-07
-1.2139148e-09
5.6996902e-07
-1.782572e-09
5.7003421e-07
-2.3917292e-09
5.7013266e-07
-3.0577524e-09
5.7027111e-07
-3.8009183e-09
5.7045948e-07
-4.6470994e-09
5.7071212e-07
-5.6301328e-09
5.7104982e-07
-6.7952372e-09
5.7150289e-07
-8.2038376e-09
5.7211607e-07
-9.9402839e-09
5.7295699e-07
-1.2122811e-08
5.7413168e-07
-1.4917736e-08
5.758016e-07
-1.8533275e-08
5.7821064e-07
-2.3249149e-08
5.8185209e-07
-3.0257414e-08
5.8858444e-07
-4.2508399e-08
6.0648866e-07
-4.4610339e-08
6.1794053e-07
4.029671e-07
4.6181407e-08
3.1170671e-07
5.6924735e-08
6.1670515e-07
4.2575643e-08
6.3528809e-07
3.2506958e-08
6.049811e-07
2.6284105e-08
5.9165958e-07
2.1525957e-08
5.8546365e-07
1.7756974e-08
5.8136618e-07
1.4753232e-08
5.7845228e-07
1.2327818e-08
5.7636652e-07
1.0341777e-08
5.7485049e-07
8.6911203e-09
5.7373032e-07
7.2973729e-09
5.7289225e-07
6.1013263e-09
5.7225896e-07
5.0578635e-09
5.7177712e-07
4.1321047e-09
5.714096e-07
3.2966252e-09
5.7113025e-07
2.5294012e-09
5.7092065e-07
1.8122738e-09
5.7076783e-07
1.1297775e-09
5.706629e-07
4.6821438e-10
5.7060009e-07
-1.8511832e-10
5.7057618e-07
-8.4261378e-10
5.7059023e-07
-1.5170231e-09
5.7064344e-07
-2.2221582e-09
5.7073935e-07
-2.9736929e-09
5.708842e-07
-3.7901424e-09
5.7108756e-07
-4.6941154e-09
5.7136345e-07
-5.7139625e-09
5.7173198e-07
-6.8859813e-09
5.7222185e-07
-8.2574366e-09
5.7287435e-07
-9.8906175e-09
5.7374926e-07
-1.186765e-08
5.7493403e-07
-1.4297479e-08
5.7656152e-07
-1.7327756e-08
5.7883188e-07
-2.1141085e-08
5.8202398e-07
-2.6036991e-08
5.86748e-07
-3.3446527e-08
5.9599398e-07
-4.4655932e-08
6.1769807e-07
-4.059387e-08
6.1387847e-07
3.6237323e-07
3.8219443e-08
2.7363003e-07
5.4804622e-08
6.0020508e-07
4.4371131e-08
6.4570897e-07
3.4367299e-08
6.1497345e-07
2.813907e-08
5.9788692e-07
2.3435452e-08
5.9016751e-07
1.9629184e-08
5.8517248e-07
1.6520157e-08
5.8156132e-07
1.3954547e-08
5.7893214e-07
1.1812791e-08
5.7699225e-07
1.0001918e-08
5.755412e-07
8.4497941e-09
5.7444438e-07
7.1004501e-09
5.7360832e-07
5.9100306e-09
5.7296755e-07
4.8437967e-09
5.7247584e-07
3.873856e-09
5.721002e-07
2.9773972e-09
5.7181712e-07
2.1353195e-09
5.7160992e-07
1.3311516e-09
5.7146708e-07
5.501714e-10
5.7138108e-07
-2.2134194e-10
5.7134771e-07
-9.9678113e-10
5.7136567e-07
-1.7898693e-09
5.7143653e-07
-2.6153453e-09
5.7156484e-07
-3.4897309e-09
5.717586e-07
-4.4322448e-09
5.7203009e-07
-5.4659337e-09
5.7239715e-07
-6.6191112e-09
5.7288516e-07
-7.9271955e-09
5.7352994e-07
-9.4351111e-09
5.7438228e-07
-1.1200559e-08
5.7551472e-07
-1.3297832e-08
5.7703131e-07
-1.5822385e-08
5.7908608e-07
-1.8900086e-08
5.8190959e-07
-2.2696464e-08
5.8582036e-07
-2.7580995e-08
5.9163254e-07
-3.4972791e-08
6.0338578e-07
-4.3945743e-08
6.2667103e-07
-3.5256405e-08
6.0518914e-07
3.2711683e-07
3.0396365e-08
2.4346471e-07
4.9918704e-08
5.808417e-07
4.393789e-08
6.5168576e-07
3.4825779e-08
6.2406491e-07
2.8879794e-08
6.0382981e-07
2.4447324e-08
5.9460035e-07
2.0788433e-08
5.8883149e-07
1.7725021e-08
5.8462474e-07
1.5141751e-08
5.8151542e-07
1.2941931e-08
5.7919208e-07
1.104763e-08
5.7743551e-07
9.3971317e-09
5.7609488e-07
7.9412954e-09
5.7506416e-07
6.6405528e-09
5.742683e-07
5.4627685e-09
5.7365363e-07
4.3815364e-09
5.7318144e-07
3.3748014e-09
5.7282386e-07
2.423756e-09
5.7256097e-07
1.5119372e-09
5.723789e-07
6.2446845e-10
5.7226855e-07
-2.525986e-10
5.7222478e-07
-1.1328856e-09
5.7224597e-07
-2.0302791e-09
5.7233393e-07
-2.9595375e-09
5.724941e-07
-3.9369563e-09
5.7273602e-07
-4.9811388e-09
5.7307427e-07
-6.1139187e-09
5.7352994e-07
-7.3614994e-09
5.7413275e-07
-8.7558677e-09
5.7492431e-07
-1.0336561e-08
5.7596298e-07
-1.2153163e-08
5.7733133e-07
-1.4268477e-08
5.7914663e-07
-1.6761221e-08
5.8157883e-07
-1.9729837e-08
5.8487821e-07
-2.3314718e-08
5.8940525e-07
-2.7936873e-08
5.962547e-07
-3.4741458e-08
6.1019037e-07
-4.0845038e-08
6.3277461e-07
-2.9261651e-08
5.9360576e-07
2.9785519e-07
2.3327854e-08
2.2056856e-07
4.3548057e-08
5.608992e-07
4.1674457e-08
6.5357383e-07
3.4064487e-08
6.3164242e-07
2.8667466e-08
6.092198e-07
2.4676635e-08
5.9859157e-07
2.1316472e-08
5.9219188e-07
1.8423759e-08
5.8751747e-07
1.5923708e-08
5.8401547e-07
1.3747021e-08
5.8136877e-07
1.1834576e-08
5.7934795e-07
1.0138035e-08
5.7779143e-07
8.6175669e-09
5.7658463e-07
7.2400522e-09
5.7564582e-07
5.9777913e-09
5.7491589e-07
4.8073839e-09
5.7435185e-07
3.7087867e-09
5.7392246e-07
2.6645276e-09
5.7360523e-07
1.659035e-09
5.733844e-07
6.7805108e-10
5.7324954e-07
-2.9188569e-10
5.7319472e-07
-1.2639295e-09
5.7321801e-07
-2.2514056e-09
5.7332141e-07
-3.2682916e-09
5.7351099e-07
-4.3297325e-09
5.7379746e-07
-5.4526166e-09
5.7419716e-07
-6.656233e-09
5.7473356e-07
-7.9630537e-09
5.7543957e-07
-9.3996759e-09
5.7636094e-07
-1.0997912e-08
5.7756122e-07
-1.2796304e-08
5.7912972e-07
-1.4842255e-08
5.8119258e-07
-1.71928e-08
5.8392938e-07
-1.9913864e-08
5.8759928e-07
-2.3117349e-08
5.9260874e-07
-2.7238584e-08
6.0037594e-07
-3.2987367e-08
6.1593916e-07
-3.6156497e-08
6.3594375e-07
-2.3175207e-08
5.8062447e-07
2.7468e-07
1.7252104e-08
2.0409379e-07
3.6664727e-08
5.4195961e-07
3.8156216e-08
6.5213501e-07
3.2380168e-08
6.3737473e-07
2.7725311e-08
6.1386217e-07
2.4277169e-08
6.0203981e-07
2.1317043e-08
5.9515239e-07
1.8686015e-08
5.9014852e-07
1.6344539e-08
5.8635694e-07
1.4252779e-08
5.8346052e-07
1.2372806e-08
5.8122793e-07
1.0671582e-08
5.7949265e-07
9.1202565e-09
5.7813595e-07
7.6936243e-09
5.7707245e-07
6.3696755e-09
5.7623984e-07
5.1290814e-09
5.7559244e-07
3.9547201e-09
5.7509682e-07
2.8312361e-09
5.7472871e-07
1.744628e-09
5.74471e-07
6.8186631e-10
5.743123e-07
-3.6945552e-10
5.7424604e-07
-1.4214679e-09
5.7427003e-07
-2.4863617e-09
5.7438631e-07
-3.5767119e-09
5.7460134e-07
-4.7058139e-09
5.7492657e-07
-5.8880287e-09
5.7537938e-07
-7.1391407e-09
5.7598467e-07
-8.4767338e-09
5.7677717e-07
-9.9206011e-09
5.7780481e-07
-1.1493101e-08
5.7913371e-07
-1.3219546e-08
5.8085617e-07
-1.5129006e-08
5.8310204e-07
-1.7253307e-08
5.8605368e-07
-1.9625411e-08
5.8997139e-07
-2.2331769e-08
5.953151e-07
-2.5771288e-08
6.0381546e-07
-3.0149565e-08
6.2031744e-07
-3.0620765e-08
6.3641495e-07
-1.7329121e-08
5.6733284e-07
2.573509e-07
1.2191542e-08
1.9306835e-07
2.9903575e-08
5.2501097e-07
3.3943435e-08
6.482227e-07
3.0122947e-08
6.4114675e-07
2.6342558e-08
6.1762382e-07
2.348062e-08
6.0490094e-07
2.0965768e-08
5.9766768e-07
1.8643326e-08
5.9247102e-07
1.6502413e-08
5.8849785e-07
1.453193e-08
5.8543101e-07
1.271536e-08
5.830445e-07
1.1035441e-08
5.8117258e-07
9.4749571e-09
5.7969644e-07
8.0172927e-09
5.7853012e-07
6.6467583e-09
5.7761038e-07
5.3486739e-09
5.7689053e-07
4.1093609e-09
5.7633614e-07
2.9160509e-09
5.7592203e-07
1.7567404e-09
5.7563032e-07
6.2002275e-10
5.7544902e-07
-5.0508285e-10
5.7537115e-07
-1.6293208e-09
5.7539427e-07
-2.7633803e-09
5.7552037e-07
-3.9180524e-09
5.7575602e-07
-5.1043731e-09
5.7611289e-07
-6.3337263e-09
5.7660874e-07
-7.6178922e-09
5.7726884e-07
-8.9690026e-09
5.7812828e-07
-1.0399392e-08
5.792352e-07
-1.1921232e-08
5.8065556e-07
-1.3545841e-08
5.8248078e-07
-1.5283121e-08
5.8483933e-07
-1.7138836e-08
5.879094e-07
-1.911439e-08
5.9194695e-07
-2.1270465e-08
5.9747118e-07
-2.3909323e-08
6.0645432e-07
-2.6733376e-08
6.2314149e-07
-2.4864406e-08
6.3454598e-07
-1.1974447e-08
5.5444289e-07
2.4537648e-07
8.1193956e-09
1.8638839e-07
2.3703765e-08
5.1055798e-07
2.9573931e-08
6.4260173e-07
2.7695248e-08
6.4298239e-07
2.4871056e-08
6.2042235e-07
2.2599734e-08
6.0716956e-07
2.0527415e-08
5.9974033e-07
1.851716e-08
5.9448139e-07
1.6583725e-08
5.9043132e-07
1.4742864e-08
5.872719e-07
1.2998275e-08
5.8478912e-07
1.1347699e-08
5.8282318e-07
9.7851511e-09
5.8125902e-07
8.3024509e-09
5.8001285e-07
6.8902145e-09
5.7902264e-07
5.5384906e-09
5.7824228e-07
4.2371776e-09
5.7763748e-07
2.9762529e-09
5.7718298e-07
1.7458824e-09
5.7686072e-07
5.3645554e-10
5.7665848e-07
-6.61417e-10
5.7656905e-07
-1.8569363e-09
5.7658982e-07
-3.0591431e-09
5.767226e-07
-4.2769189e-09
5.7697382e-07
-5.5189438e-09
5.7735494e-07
-6.7935721e-09
5.7788339e-07
-8.1085961e-09
5.7858389e-07
-9.4708189e-09
5.7949053e-07
-1.0885388e-08
5.806498e-07
-1.2354783e-08
5.8212498e-07
-1.3877169e-08
5.8400319e-07
-1.5444497e-08
5.8640668e-07
-1.7038114e-08
5.8950304e-07
-1.8629559e-08
5.9353841e-07
-2.0247441e-08
5.9908908e-07
-2.2041665e-08
6.0824856e-07
-2.3249779e-08
6.2434962e-07
-1.943313e-08
6.3072935e-07
-7.3889884e-09
5.4239877e-07
2.3798748e-07
5.0135302e-09
1.8289835e-07
1.8357822e-08
4.9873168e-07
2.5529148e-08
6.3583402e-07
2.5507947e-08
6.4297086e-07
2.3675114e-08
6.2221962e-07
2.1968358e-08
6.0887039e-07
2.0298719e-08
6.0141004e-07
1.8570631e-08
5.9620966e-07
1.6824089e-08
5.9217793e-07
1.5098844e-08
5.889972e-07
1.3416777e-08
5.8647124e-07
1.1788994e-08
5.8445102e-07
1.0219531e-08
5.8282854e-07
8.7078091e-09
5.8152462e-07
7.2502073e-09
5.804803e-07
5.841178e-09
5.7965137e-07
4.4740159e-09
5.7900469e-07
3.141359e-09
5.7851569e-07
1.8355156e-09
5.7816661e-07
5.4867691e-10
5.7794537e-07
-7.2694261e-10
5.7784472e-07
-1.9989969e-09
5.7786192e-07
-3.2749009e-09
5.7799856e-07
-4.5616991e-09
5.7826067e-07
-5.865868e-09
5.7865917e-07
-7.1930051e-09
5.7921058e-07
-8.5473608e-09
5.799383e-07
-9.9311139e-09
5.8087434e-07
-1.1343283e-08
5.8206202e-07
-1.2778197e-08
5.8355995e-07
-1.4223052e-08
5.854481e-07
-1.5654727e-08
5.8783841e-07
-1.7034368e-08
5.9088273e-07
-1.8307168e-08
5.9481126e-07
-1.9459206e-08
6.0024117e-07
-2.0447244e-08
6.0923665e-07
-2.0098254e-08
6.2400067e-07
-1.4725429e-08
6.2535656e-07
-3.8325394e-09
5.3150592e-07
2.3415492e-07
2.8315312e-09
1.8152587e-07
1.400404e-08
4.8939547e-07
2.2121159e-08
6.2826823e-07
2.3831337e-08
6.4123035e-07
2.2987605e-08
6.2301097e-07
2.1799228e-08
6.1004779e-07
2.0471054e-08
6.0273803e-07
1.897849e-08
5.9770257e-07
1.7386412e-08
5.9377013e-07
1.5754275e-08
5.906294e-07
1.4119271e-08
5.8810631e-07
1.2503601e-08
5.8606675e-07
1.0919625e-08
5.8441258e-07
9.3731387e-09
5.8307118e-07
7.8654494e-09
5.8198805e-07
6.3948644e-09
5.8112202e-07
4.9577288e-09
5.804419e-07
3.5491344e-09
5.7992435e-07
2.163415e-09
5.795524e-07
7.9449763e-10
5.7931435e-07
-5.6384306e-10
5.7920313e-07
-1.9177661e-09
5.7921591e-07
-3.2731453e-09
5.7935401e-07
-4.6353384e-09
5.7962293e-07
-6.0088695e-09
5.8003276e-07
-7.3969932e-09
5.8059877e-07
-8.8010566e-09
5.8134243e-07
-1.0219583e-08
5.8229293e-07
-1.16469e-08
5.834894e-07
-1.3071238e-08
5.8498435e-07
-1.4471766e-08
5.8684869e-07
-1.5814254e-08
5.8918096e-07
-1.7045645e-08
5.9211419e-07
-1.8090705e-08
5.9585639e-07
-1.8880928e-08
6.0103145e-07
-1.9161584e-08
6.0951737e-07
-1.7432755e-08
6.2227191e-07
-1.0908251e-08
6.1883212e-07
-1.4361884e-09
5.2203389e-07
2.3271871e-07
1.4761963e-09
1.8138326e-07
1.064313e-08
4.8223712e-07
1.9401766e-08
6.2015738e-07
2.2646869e-08
6.3793936e-07
2.2756556e-08
6.2282363e-07
2.2038221e-08
6.1074811e-07
2.0993315e-08
6.0378257e-07
1.9695614e-08
5.9900088e-07
1.823356e-08
5.9523234e-07
1.6681089e-08
5.9218193e-07
1.5087172e-08
5.8970028e-07
1.3482553e-08
5.8767142e-07
1.18861e-08
5.8600908e-07
1.0308707e-08
5.8464862e-07
8.7557433e-09
5.8354107e-07
7.2288162e-09
5.82649e-07
5.7269782e-09
5.8194378e-07
4.2475818e-09
5.814038e-07
2.7868923e-09
5.8101314e-07
1.3405363e-09
5.8076076e-07
-9.6156914e-11
5.8063987e-07
-1.527857e-09
5.8064766e-07
-2.958934e-09
5.8078513e-07
-4.3931534e-09
5.810572e-07
-5.8332762e-09
5.8147293e-07
-7.280551e-09
5.8204609e-07
-8.7339714e-09
5.8279589e-07
-1.0189265e-08
5.8374827e-07
-1.1637375e-08
5.8493755e-07
-1.3062346e-08
5.8640937e-07
-1.4438137e-08
5.8822453e-07
-1.5723427e-08
5.904663e-07
-1.6856648e-08
5.9324746e-07
-1.774861e-08
5.967484e-07
-1.8267932e-08
6.0155083e-07
-1.7961532e-08
6.0921102e-07
-1.5144466e-08
6.194549e-07
-7.9390458e-09
6.1162675e-07
-8.178431e-11
5.1417665e-07
2.326369e-07
7.9051245e-10
1.8180894e-07
8.1818415e-09
4.7685626e-07
1.718627e-08
6.1182495e-07
2.1647392e-08
6.3340197e-07
2.2629604e-08
6.2173501e-07
2.2346134e-08
6.1100563e-07
2.1553454e-08
6.0457475e-07
2.0435919e-08
6.0011936e-07
1.9103485e-08
5.9656495e-07
1.7639728e-08
5.936457e-07
1.6101862e-08
5.9123815e-07
1.4526876e-08
5.8924642e-07
1.293861e-08
5.8759736e-07
1.1352022e-08
5.8623522e-07
9.7758878e-09
5.8511721e-07
8.2147105e-09
5.8421018e-07
6.6700352e-09
5.8348846e-07
5.1413879e-09
5.8293245e-07
3.6269631e-09
5.8252757e-07
2.1241389e-09
5.8226358e-07
6.2988149e-10
5.8213413e-07
-8.5890092e-10
5.8213645e-07
-2.3450025e-09
5.8227124e-07
-3.8305592e-09
5.8254276e-07
-5.3166037e-09
5.8295898e-07
-6.8025091e-09
5.83532e-07
-8.2852001e-09
5.8427859e-07
-9.7581062e-09
5.8522118e-07
-1.1209611e-08
5.8638906e-07
-1.2620844e-08
5.8782061e-07
-1.3962499e-08
5.8956619e-07
-1.5189202e-08
5.9169301e-07
-1.6234573e-08
5.9429284e-07
-1.7000382e-08
5.9751422e-07
-1.7295785e-08
6.0184625e-07
-1.6519932e-08
6.0843519e-07
-1.299733e-08
6.1593232e-07
-5.6816686e-09
6.0431111e-07
5.3366602e-10
5.0796131e-07
2.3317056e-07
5.9434382e-10
1.8235307e-07
6.4731774e-09
4.7286308e-07
1.5198305e-08
6.0373933e-07
2.0419611e-08
6.2807578e-07
2.2129263e-08
6.1989713e-07
2.2257547e-08
6.1084489e-07
2.1720865e-08
6.051107e-07
2.0800437e-08
6.0104101e-07
1.9624597e-08
5.9774098e-07
1.8282956e-08
5.949873e-07
1.6838025e-08
5.9268304e-07
1.5331352e-08
5.9075305e-07
1.379072e-08
5.8913795e-07
1.2234502e-08
5.8779139e-07
1.0674508e-08
5.8667716e-07
9.1179474e-09
5.857667e-07
7.5687953e-09
5.8503757e-07
6.0287796e-09
5.8447242e-07
4.4981128e-09
5.8405819e-07
2.9760531e-09
5.837856e-07
1.4613563e-09
5.8364879e-07
-4.7325563e-11
5.8364509e-07
-1.5510525e-09
5.8377492e-07
-3.0501922e-09
5.8404186e-07
-4.5439391e-09
5.8445269e-07
-6.0297306e-09
5.8501775e-07
-7.502449e-09
5.8575127e-07
-8.9533586e-09
5.8667205e-07
-1.0368595e-08
5.8780426e-07
-1.1726949e-08
5.8917892e-07
-1.2996769e-08
5.9083597e-07
-1.4130445e-08
5.9282665e-07
-1.5058658e-08
5.9522101e-07
-1.5677518e-08
5.9813304e-07
-1.5756037e-08
6.0192473e-07
-1.462914e-08
6.0730826e-07
-1.0827589e-08
6.1213075e-07
-4.0204326e-09
5.9750393e-07
5.8795092e-10
5.0335289e-07
2.3375851e-07
6.9237462e-10
1.8276317e-07
5.3393572e-09
4.6993132e-07
1.3240964e-08
5.9642615e-07
1.8688902e-08
6.2251505e-07
2.0913678e-08
6.1753879e-07
2.1424137e-08
6.1029933e-07
2.1165759e-08
6.0536803e-07
2.0477479e-08
6.0173061e-07
1.9500359e-08
5.9871829e-07
1.8327203e-08
5.9616038e-07
1.70235e-08
5.9398666e-07
1.5634157e-08
5.9214232e-07
1.4190223e-08
5.9058181e-07
1.2713112e-08
5.8926843e-07
1.1217478e-08
5.8817273e-07
9.7131691e-09
5.8727094e-07
8.2066058e-09
5.8654407e-07
6.7017883e-09
5.8597717e-07
5.2010576e-09
5.8555885e-07
3.7056894e-09
5.852809e-07
2.2163831e-09
5.8513803e-07
7.3369697e-10
5.851277e-07
-7.4153405e-10
5.8525008e-07
-2.2077484e-09
5.85508e-07
-3.6621718e-09
5.8590704e-07
-5.1001881e-09
5.864557e-07
-6.5145649e-09
5.8716558e-07
-7.894384e-09
5.880518e-07
-9.2236039e-09
5.8913341e-07
-1.0478911e-08
5.9043416e-07
-1.1626747e-08
5.9198374e-07
-1.2618387e-08
5.9381822e-07
-1.338317e-08
5.9598573e-07
-1.3815038e-08
5.9856484e-07
-1.3672716e-08
6.0178234e-07
-1.2320113e-08
6.0595559e-07
-8.6284998e-09
6.0843907e-07
-2.8112641e-09
5.9168664e-07
4.2157889e-10
5.0012001e-07
2.3418008e-07
8.9181509e-10
1.8296578e-07
4.5999375e-09
4.6779125e-07
1.128447e-08
5.9029362e-07
1.6461065e-08
6.1724678e-07
1.8948415e-08
6.1493139e-07
1.9783503e-08
6.0943129e-07
1.9814438e-08
6.0533573e-07
1.9386432e-08
6.0215979e-07
1.8644086e-08
5.9946082e-07
1.7680139e-08
5.9712425e-07
1.656086e-08
5.9510586e-07
1.5333285e-08
5.9336982e-07
1.4031004e-08
5.9188402e-07
1.2678066e-08
5.906213e-07
1.1291738e-08
5.8955898e-07
9.8843844e-09
5.8867822e-07
8.4648194e-09
5.8796356e-07
7.0393158e-09
5.874026e-07
5.6123768e-09
5.8698572e-07
4.1873515e-09
5.8670586e-07
2.7669505e-09
5.8655836e-07
1.3537104e-09
5.8654087e-07
-4.9567802e-11
5.8665329e-07
-1.4393401e-09
5.868977e-07
-2.8108162e-09
5.8727845e-07
-4.1573261e-09
5.8780214e-07
-5.4695561e-09
5.8847774e-07
-6.7345093e-09
5.8931668e-07
-7.9341602e-09
5.9033299e-07
-9.0434765e-09
5.915434e-07
-1.0027637e-08
5.9296783e-07
-1.0838014e-08
5.9462852e-07
-1.1405149e-08
5.9655279e-07
-1.1625889e-08
5.9878551e-07
-1.1278406e-08
6.0143478e-07
-9.8298205e-09
6.0450692e-07
-6.5328793e-09
6.0514205e-07
-1.9486312e-09
5.8710232e-07
2.174238e-10
4.9795391e-07
2.3439751e-07
1.0741348e-09
1.8299057e-07
4.110186e-09
4.6622931e-07
9.4379795e-09
5.8550739e-07
1.3986678e-08
6.1265006e-07
1.6491408e-08
6.1233339e-07
1.7558667e-08
6.0833687e-07
1.7855548e-08
6.0503733e-07
1.7687752e-08
6.0232847e-07
1.7191873e-08
5.9995686e-07
1.6456272e-08
5.9785979e-07
1.5545434e-08
5.9601663e-07
1.4506828e-08
5.9440837e-07
1.3375475e-08
5.9301532e-07
1.2177346e-08
5.9181937e-07
1.0931834e-08
5.9080444e-07
9.6534807e-09
5.8995652e-07
8.3532603e-09
5.8926373e-07
7.0395496e-09
5.8871626e-07
5.7188914e-09
5.8830633e-07
4.396615e-09
5.8802808e-07
3.0773636e-09
5.8787756e-07
1.7655748e-09
5.8785261e-07
4.6593232e-10
5.8795288e-07
-8.1614657e-10
5.8817973e-07
-2.0740052e-09
5.8853625e-07
-3.2991124e-09
5.8902719e-07
-4.480348e-09
5.8965892e-07
-5.6030273e-09
5.9043931e-07
-6.647683e-09
5.913776e-07
-7.5883636e-09
5.9248403e-07
-8.3902014e-09
5.9376961e-07
-9.0063942e-09
5.9524466e-07
-9.3721689e-09
5.9691851e-07
-9.3936959e-09
5.9880698e-07
-8.8892989e-09
6.0093032e-07
-7.4665931e-09
6.0308416e-07
-4.7159486e-09
6.0239134e-07
-1.349501e-09
5.8373583e-07
6.6996445e-11
4.965374e-07
2.3446451e-07
1.1899293e-09
1.8290635e-07
3.7714582e-09
4.6507696e-07
7.8476391e-09
5.8198057e-07
1.1602412e-08
6.0889836e-07
1.3932536e-08
6.0994075e-07
1.5118322e-08
6.0713117e-07
1.5620857e-08
6.0453332e-07
1.5678976e-08
6.0227091e-07
1.5410578e-08
6.0022538e-07
1.4894906e-08
5.9837544e-07
1.4191762e-08
5.9671974e-07
1.334689e-08
5.9525321e-07
1.2395219e-08
5.9396696e-07
1.1363554e-08
5.9285101e-07
1.0272614e-08
5.9189535e-07
9.1385202e-09
5.9109058e-07
7.973942e-09
5.9042828e-07
6.7889951e-09
5.8990118e-07
5.5919618e-09
5.8950333e-07
4.3898934e-09
5.8923012e-07
3.1891285e-09
5.8907829e-07
1.9957712e-09
5.8904594e-07
8.1614207e-10
5.8913249e-07
-3.4274955e-10
5.893386e-07
-1.4727004e-09
5.8966618e-07
-2.5637362e-09
5.901182e-07
-3.6034398e-09
5.906986e-07
-4.5761038e-09
5.9141195e-07
-5.4616902e-09
5.9226316e-07
-6.2344851e-09
5.932568e-07
-6.8611997e-09
5.943963e-07
-7.2989184e-09
5.9568235e-07
-7.490986e-09
5.9711055e-07
-7.3586845e-09
5.9867465e-07
-6.7685442e-09
6.0034015e-07
-5.4678077e-09
6.0178338e-07
-3.2926578e-09
6.0021616e-07
-9.4607683e-10
5.8138922e-07
-2.984638e-11
4.9562117e-07
2.3443467e-07
1.2383553e-09
1.8277829e-07
3.5247195e-09
4.6420461e-07
6.6032573e-09
5.7946373e-07
9.5696496e-09
6.0597953e-07
1.1611147e-08
6.0786371e-07
1.2805988e-08
6.059231e-07
1.3433166e-08
6.0390489e-07
1.3658481e-08
6.020459e-07
1.3574522e-08
6.0030943e-07
1.3247628e-08
5.9870233e-07
1.273026e-08
5.972371e-07
1.2064265e-08
5.959192e-07
1.1282807e-08
5.9474841e-07
1.0412243e-08
5.9372156e-07
9.4736162e-09
5.9283397e-07
8.4838385e-09
5.9208036e-07
7.4566458e-09
5.9145547e-07
6.4033741e-09
5.9095445e-07
5.3336067e-09
5.905731e-07
4.2557287e-09
5.90308e-07
3.1774154e-09
5.901566e-07
2.1060843e-09
5.9011727e-07
1.0493285e-09
5.9018924e-07
1.5353018e-11
5.9037257e-07
-9.8655113e-10
5.9066808e-07
-1.9454981e-09
5.9107715e-07
-2.8484225e-09
5.9160152e-07
-3.679393e-09
5.9224291e-07
-4.4187967e-09
5.9300255e-07
-5.0423864e-09
5.9388038e-07
-5.5200224e-09
5.9487393e-07
-5.8144909e-09
5.9597681e-07
-5.8795134e-09
5.9717556e-07
-5.654612e-09
5.9844974e-07
-5.0516188e-09
5.9973715e-07
-3.9304607e-09
6.0066222e-07
-2.273704e-09
5.9855939e-07
-6.7312612e-10
5.7978864e-07
-5.4551059e-11
4.9500261e-07
2.3438013e-07
1.2418313e-09
1.8264844e-07
3.3374731e-09
4.6351968e-07
5.7057703e-09
5.7766478e-07
7.9979621e-09
6.0376568e-07
9.7125004e-09
6.0613308e-07
1.0833019e-08
6.0479444e-07
1.1505503e-08
6.0323142e-07
1.1832228e-08
6.0171931e-07
1.1879243e-08
6.0026247e-07
1.1698224e-08
5.9888336e-07
1.1332577e-08
5.9760275e-07
1.0818594e-08
5.9643318e-07
1.018625e-08
5.9538076e-07
9.4602469e-09
5.9444757e-07
8.6609583e-09
5.9363326e-07
7.8052672e-09
5.9293605e-07
6.9072913e-09
5.9235345e-07
5.9790079e-09
5.9188274e-07
5.0307991e-09
5.9152131e-07
4.0719337e-09
5.9126687e-07
3.1110039e-09
5.9111754e-07
2.1563325e-09
5.9107195e-07
1.216367e-09
5.9112921e-07
3.0006672e-10
5.9128887e-07
-5.8268104e-10
5.9155083e-07
-1.4206354e-09
5.9191511e-07
-2.2007275e-09
5.9238161e-07
-2.9075534e-09
5.9294974e-07
-3.5228056e-09
5.9361781e-07
-4.0246964e-09
5.9438228e-07
-4.387323e-09
5.9523656e-07
-4.5802158e-09
5.9616971e-07
-4.5680543e-09
5.971634e-07
-4.3084175e-09
5.9819011e-07
-3.7492393e-09
5.9917797e-07
-2.8268828e-09
5.9973986e-07
-1.5911234e-09
5.9732364e-07
-4.879729e-10
5.786855e-07
-4.408153e-11
4.9455873e-07
2.3433605e-07
1.2249893e-09
1.8253521e-07
3.1913023e-09
4.6296247e-07
5.0902241e-09
5.7633597e-07
6.8612681e-09
6.0209009e-07
8.2650415e-09
6.0472514e-07
9.263046e-09
6.0379163e-07
9.9195801e-09
6.0257416e-07
1.0290096e-08
6.0134884e-07
1.0417274e-08
6.0013533e-07
1.0338593e-08
5.9896205e-07
1.0087965e-08
5.9785339e-07
9.6953242e-09
5.9682583e-07
9.1865488e-09
5.9588954e-07
8.5837995e-09
5.9505033e-07
7.9059782e-09
5.943111e-07
7.1692302e-09
5.9367281e-07
6.3874343e-09
5.9313525e-07
5.5726635e-09
5.9269752e-07
4.7356115e-09
5.9235837e-07
3.8859873e-09
5.921165e-07
3.032883e-09
5.9197065e-07
2.1851228e-09
5.9191971e-07
1.351601e-09
5.9196274e-07
5.4161119e-10
5.9209887e-07
-2.3481318e-10
5.9232727e-07
-9.6656175e-10
5.9264686e-07
-1.6410963e-09
5.9305616e-07
-2.2441144e-09
5.9355277e-07
-2.7592164e-09
5.9413292e-07
-3.1676497e-09
5.9479072e-07
-3.4481743e-09
5.9551709e-07
-3.5771628e-09
5.9629871e-07
-3.5293602e-09
5.9711561e-07
-3.2776935e-09
5.9793845e-07
-2.7953297e-09
5.9869562e-07
-2.0624884e-09
5.9900703e-07
-1.1463799e-09
5.9640754e-07
-3.5944216e-10
5.7789858e-07
-2.4225356e-11
4.9422353e-07
2.3431183e-07
1.2043649e-09
1.8244159e-07
3.0744454e-09
4.624983e-07
4.6694831e-09
5.7530715e-07
6.0614185e-09
6.0080096e-07
7.1986875e-09
6.0359005e-07
8.0575857e-09
6.0292985e-07
8.6606504e-09
6.0197057e-07
9.0333376e-09
6.0097616e-07
9.2004043e-09
5.9996829e-07
9.1872032e-09
5.9897526e-07
9.0188609e-09
5.9802174e-07
8.7189965e-09
5.9712571e-07
8.3090797e-09
5.9629947e-07
7.8082629e-09
5.9555116e-07
7.2334632e-09
5.948859e-07
6.5995795e-09
5.943067e-07
5.9197707e-09
5.9381507e-07
5.2057584e-09
5.9341154e-07
4.4681334e-09
5.9309601e-07
3.716657e-09
5.9286799e-07
2.9605532e-09
5.9272676e-07
2.2087901e-09
5.9267149e-07
1.4703561e-09
5.9270118e-07
7.5452338e-10
5.9281471e-07
7.1109259e-11
5.9301069e-07
-5.6927474e-10
5.9328726e-07
-1.1549898e-09
5.9364188e-07
-1.6731809e-09
5.9407097e-07
-2.1096403e-09
5.9456939e-07
-2.4487933e-09
5.9512988e-07
-2.673897e-09
5.9574221e-07
-2.7674936e-09
5.9639231e-07
-2.7126115e-09
5.9706074e-07
-2.4936816e-09
5.9771953e-07
-2.0995313e-09
5.9830148e-07
-1.5311649e-09
5.9843867e-07
-8.4920932e-10
5.957256e-07
-2.6553169e-10
5.7731491e-07
-7.1629204e-12
4.9396517e-07
2.3430467e-07
1.1871782e-09
1.8236409e-07
2.9788243e-09
4.6210806e-07
4.3683436e-09
5.7447838e-07
5.4897603e-09
5.9978448e-07
6.4115218e-09
6.0267348e-07
7.1359754e-09
6.0220356e-07
7.6687998e-09
6.0143736e-07
8.0186134e-09
6.0062634e-07
8.1979261e-09
5.9978899e-07
8.2227358e-09
5.9895046e-07
8.1108032e-09
5.9813368e-07
7.8800868e-09
5.9735643e-07
7.5478283e-09
5.9663173e-07
7.1300894e-09
5.959689e-07
6.64158e-09
5.9537442e-07
6.0956628e-09
5.9485262e-07
5.5044599e-09
5.9440628e-07
4.8790201e-09
5.9403698e-07
4.2295152e-09
5.9374552e-07
3.5654522e-09
5.9353205e-07
2.8958901e-09
5.9339633e-07
2.2296537e-09
5.9333773e-07
1.5755449e-09
5.933553e-07
9.4254147e-10
5.9344772e-07
3.3998521e-10
5.9361325e-07
-2.2225303e-10
5.938495e-07
-7.3363814e-10
5.9415327e-07
-1.1828985e-09
5.9452024e-07
-1.5580335e-09
5.9494453e-07
-1.846456e-09
5.9541831e-07
-2.035369e-09
5.9593113e-07
-2.1123857e-09
5.9646933e-07
-2.0667663e-09
5.9701512e-07
-1.8906824e-09
5.9754345e-07
-1.5815974e-09
5.979924e-07
-1.1479492e-09
5.9800503e-07
-6.3663932e-10
5.9521429e-07
-1.9294463e-10
5.7687123e-07
4.795024e-12
4.9376744e-07
2.3430947e-07
1.1745609e-09
1.8229835e-07
2.899027e-09
4.617803e-07
4.1370322e-09
5.737961e-07
5.061616e-09
5.9896497e-07
5.8133986e-09
6.019283e-07
6.4185026e-09
6.0159717e-07
6.8782753e-09
6.0097728e-07
7.1930957e-09
6.0031151e-07
7.3679064e-09
5.9961418e-07
7.4120629e-09
5.9890631e-07
7.3376093e-09
5.9820813e-07
7.1578024e-09
5.9753624e-07
6.8861447e-09
5.9690339e-07
6.5357995e-09
5.9631925e-07
6.1192771e-09
5.9579095e-07
5.6483007e-09
5.9532361e-07
5.1337898e-09
5.9492079e-07
4.5859196e-09
5.9458486e-07
4.0142269e-09
5.9431721e-07
3.4277431e-09
5.9411854e-07
2.8351415e-09
5.9398894e-07
2.2448889e-09
5.9392798e-07
1.6653956e-09
5.9393479e-07
1.1051545e-09
5.9400797e-07
5.7286499e-10
5.9414554e-07
7.7527401e-11
5.9434484e-07
-3.7149902e-10
5.946023e-07
-7.6450591e-10
5.9491325e-07
-1.091536e-09
5.9527157e-07
-1.3426089e-09
5.9566939e-07
-1.5081569e-09
5.9609668e-07
-1.579672e-09
5.9654085e-07
-1.5507722e-09
5.9698623e-07
-1.4183689e-09
5.9741105e-07
-1.1841081e-09
5.9775814e-07
-8.5762411e-10
5.9767855e-07
-4.7316911e-10
5.9482985e-07
-1.3507717e-10
5.7653315e-07
1.045399e-11
4.9362192e-07
2.3431993e-07
1.1652369e-09
1.8224133e-07
2.831624e-09
4.6150644e-07
3.9487728e-09
5.7323083e-07
4.7238388e-09
5.9829481e-07
5.3414999e-09
6.0131805e-07
5.8450486e-09
6.0109266e-07
6.2363164e-09
6.0058576e-07
6.5122671e-09
6.0003554e-07
6.6735712e-09
5.9945289e-07
6.7251724e-09
5.9885471e-07
6.6749323e-09
5.9825838e-07
6.5324133e-09
5.9767876e-07