/*--------------------------------*- C++ -*----------------------------------*\
  =========                 |
  \\      /  F ield         | OpenFOAM: The Open Source CFD Toolbox
   \\    /   O peration     | Website:  https://openfoam.org
    \\  /    A nd           | Version:  10
     \\/     M anipulation  |
\*---------------------------------------------------------------------------*/
FoamFile
{
    format      ascii;
    class       surfaceScalarField;
    location    "0.03";
    object      phi_0;
}
// * * * * * * * * * * * * * * * * * * * * * * * * * * * * * * * * * * * * * //

dimensions      [1 0 -1 0 0 0 0];

internalField   nonuniform List<scalar> 
7860
(
3.9595746e-08
5.2911391e-07
1.1989994e-08
5.9631209e-07
7.2399011e-09
5.7345791e-07
5.3013474e-09
5.7064632e-07
3.9259119e-09
5.7008316e-07
3.0267348e-09
5.6960688e-07
2.4000425e-09
5.6933438e-07
1.9357454e-09
5.6917197e-07
1.5810659e-09
5.6906234e-07
1.303077e-09
5.6898564e-07
1.0798266e-09
5.689309e-07
8.9652539e-10
5.6889094e-07
7.4286637e-10
5.6886129e-07
6.1143755e-10
5.6883906e-07
4.9677008e-10
5.688223e-07
3.9472301e-10
5.6880967e-07
3.0207135e-10
5.6880027e-07
2.1622201e-10
5.6879347e-07
1.350099e-10
5.6878883e-07
5.6544764e-11
5.6878608e-07
-2.0912458e-11
5.6878508e-07
-9.9058903e-11
5.6878577e-07
-1.7965181e-10
5.6878821e-07
-2.6461841e-10
5.6879259e-07
-3.5618949e-10
5.6879919e-07
-4.5706589e-10
5.688085e-07
-5.7064567e-10
5.6882121e-07
-7.0134775e-10
5.6883833e-07
-8.5509054e-10
5.6886138e-07
-1.0400253e-09
5.6889257e-07
-1.267748e-09
5.6893537e-07
-1.555355e-09
5.6899526e-07
-1.9284577e-09
5.6908076e-07
-2.4278341e-09
5.6920705e-07
-3.1369463e-09
5.694168e-07
-4.2169356e-09
5.6978769e-07
-5.7736756e-09
5.7026447e-07
-9.2714335e-09
5.7220551e-07
-2.9244396e-08
5.8868076e-07
5.3946357e-07
5.8932461e-08
4.7019409e-07
3.5883475e-08
6.1935619e-07
2.1961443e-08
5.8737843e-07
1.5609349e-08
5.7699845e-07
1.1684391e-08
5.7400813e-07
9.049393e-09
5.7224188e-07
7.1722113e-09
5.7121157e-07
5.7827101e-09
5.7056148e-07
4.7234138e-09
5.7012164e-07
3.8932458e-09
5.6981582e-07
3.2265518e-09
5.695976e-07
2.6791608e-09
5.6943834e-07
2.2202177e-09
5.6932024e-07
1.8275607e-09
5.6923172e-07
1.4848596e-09
5.69165e-07
1.1797611e-09
5.6911478e-07
9.0265341e-10
5.6907739e-07
6.4581606e-10
5.6905031e-07
4.0280879e-10
5.6903185e-07
1.6801226e-10
5.6902089e-07
-6.3740477e-11
5.6901684e-07
-2.9748491e-10
5.6901952e-07
-5.3843581e-10
5.6902917e-07
-7.9232005e-10
5.6904648e-07
-1.0657674e-09
5.6907265e-07
-1.3668116e-09
5.6910955e-07
-1.7055717e-09
5.6915997e-07
-2.0952222e-09
5.6922799e-07
-2.5534352e-09
5.693196e-07
-3.1045901e-09
5.6944373e-07
-3.7833149e-09
5.696141e-07
-4.6407045e-09
5.6985265e-07
-5.7550918e-09
5.7019516e-07
-7.2483726e-09
5.7070033e-07
-9.3280013e-09
5.7149643e-07
-1.2410664e-08
5.7287036e-07
-1.7325382e-08
5.7517919e-07
-2.7287862e-08
5.82168e-07
-4.4944663e-08
6.0633757e-07
4.9451891e-07
5.8825958e-08
4.1139989e-07
4.8963824e-08
6.2921498e-07
3.2097295e-08
6.0423931e-07
2.3649126e-08
5.8544629e-07
1.8238337e-08
5.7941902e-07
1.4343776e-08
5.7613646e-07
1.1472137e-08
5.7408321e-07
9.3098044e-09
5.7272382e-07
7.6406806e-09
5.7179077e-07
6.3205285e-09
5.7113598e-07
5.2530776e-09
5.7066505e-07
4.3718153e-09
5.7031961e-07
3.6295171e-09
5.7006255e-07
2.991908e-09
5.6986934e-07
2.4335222e-09
5.6972339e-07
1.9349677e-09
5.6961334e-07
1.4810774e-09
5.6953129e-07
1.0596171e-09
5.6947178e-07
6.6034784e-10
5.6943112e-07
2.7431556e-10
5.6940693e-07
-1.0672254e-10
5.6939788e-07
-4.9079846e-10
5.694036e-07
-8.8622049e-10
5.694246e-07
-1.3020919e-09
5.6946236e-07
-1.7489166e-09
5.6951948e-07
-2.2393704e-09
5.6960001e-07
-2.7893383e-09
5.6970995e-07
-3.4193727e-09
5.6985803e-07
-4.1568234e-09
5.7005705e-07
-5.0390392e-09
5.7032596e-07
-6.118235e-09
5.706933e-07
-7.4694163e-09
5.7120384e-07
-9.2041903e-09
5.7192994e-07
-1.1489122e-08
5.7298527e-07
-1.4564716e-08
5.7457203e-07
-1.8808537e-08
5.7711419e-07
-2.5188207e-08
5.8155886e-07
-3.721554e-08
5.9419534e-07
-4.6710057e-08
6.1583209e-07
4.4780886e-07
5.327584e-08
3.581855e-07
5.501975e-08
6.2748114e-07
3.8400453e-08
6.2084727e-07
2.8980756e-08
5.9486399e-07
2.3005551e-08
5.853944e-07
1.8477396e-08
5.8066466e-07
1.4999815e-08
5.775608e-07
1.2306572e-08
5.7541707e-07
1.0182779e-08
5.7391457e-07
8.4762616e-09
5.728425e-07
7.0795439e-09
5.7206178e-07
5.9150239e-09
5.7148413e-07
4.9260518e-09
5.7105153e-07
4.0706603e-09
5.7072474e-07
3.3171536e-09
5.7047691e-07
2.6410826e-09
5.7028942e-07
2.0231244e-09
5.7014925e-07
1.4475596e-09
5.7004735e-07
9.0114417e-10
5.6997754e-07
3.7224074e-10
5.6993584e-07
-1.4989175e-10
5.6992002e-07
-6.7572289e-10
5.6992944e-07
-1.2160571e-09
5.6996494e-07
-1.7826771e-09
5.7002898e-07
-2.3890893e-09
5.701259e-07
-3.0514569e-09
5.7026239e-07
-3.7898301e-09
5.7044833e-07
-4.6298269e-09
5.7069803e-07
-5.605004e-09
5.7103224e-07
-6.7602784e-09
5.7148124e-07
-8.156769e-09
5.720898e-07
-9.8785366e-09
5.7292562e-07
-1.204359e-08
5.74095e-07
-1.4818241e-08
5.7575993e-07
-1.8411263e-08
5.7816506e-07
-2.3103064e-08
5.8180599e-07
-3.0079628e-08
5.8853543e-07
-4.2281002e-08
6.0639672e-07
-4.4423363e-08
6.1797446e-07
4.033855e-07
4.5986705e-08
3.1230391e-07
5.6603517e-08
6.1690691e-07
4.2315971e-08
6.351194e-07
3.2313459e-08
6.0486051e-07
2.6128601e-08
5.9157923e-07
2.1401145e-08
5.8539225e-07
1.765845e-08
5.8130351e-07
1.4676349e-08
5.7839917e-07
1.2268401e-08
5.7632253e-07
1.0296233e-08
5.7481467e-07
8.656409e-09
5.7370161e-07
7.270957e-09
5.7286959e-07
6.0811238e-09
5.7224137e-07
5.0421916e-09
5.7176368e-07
4.1196275e-09
5.7139948e-07
3.2863089e-09
5.7112274e-07
2.5204763e-09
5.7091509e-07
1.8042053e-09
5.7076363e-07
1.1222441e-09
5.7065951e-07
4.6109457e-10
5.7059699e-07
-1.9175183e-10
5.7057287e-07
-8.4849166e-10
5.7058618e-07
-1.5216695e-09
5.7063812e-07
-2.2248723e-09
5.7073219e-07
-2.9735224e-09
5.7087455e-07
-3.7858484e-09
5.7107472e-07
-4.6841282e-09
5.7134661e-07
-5.6963304e-09
5.7171024e-07
-6.8583133e-09
5.7219423e-07
-8.2168437e-09
5.7283978e-07
-9.8336663e-09
5.7370663e-07
-1.1790334e-08
5.7488229e-07
-1.4195229e-08
5.764999e-07
-1.7195599e-08
5.7876031e-07
-2.0974352e-08
5.8194382e-07
-2.583021e-08
5.8666186e-07
-3.3178435e-08
5.9588367e-07
-4.4313555e-08
6.1753184e-07
-4.0338046e-08
6.1399895e-07
3.6304746e-07
3.7977631e-08
2.7448978e-07
5.4364523e-08
6.0061713e-07
4.4001936e-08
6.454674e-07
3.4104649e-08
6.1474469e-07
2.7938296e-08
5.9774455e-07
2.3280199e-08
5.9005062e-07
1.9511169e-08
5.8507258e-07
1.6431924e-08
5.8147843e-07
1.3889641e-08
5.7886482e-07
1.1765844e-08
5.7693848e-07
9.9685239e-09
5.7549894e-07
8.4263759e-09
5.7441175e-07
7.0841399e-09
5.7358361e-07
5.898555e-09
5.7294927e-07
4.8353811e-09
5.7246266e-07
3.8671457e-09
5.7209099e-07
2.9713941e-09
5.7181085e-07
2.129334e-09
5.716057e-07
1.3247681e-09
5.7146409e-07
5.4322684e-10
5.7137854e-07
-2.2876785e-10
5.7134488e-07
-1.0043632e-09
5.7136179e-07
-1.7970228e-09
5.7143079e-07
-2.6211995e-09
5.7155638e-07
-3.4930882e-09
5.7174645e-07
-4.4315251e-09
5.7201316e-07
-5.4591022e-09
5.723742e-07
-6.6035885e-09
5.7285474e-07
-7.899749e-09
5.734904e-07
-9.3917284e-09
5.7433176e-07
-1.1136317e-08
5.7545122e-07
-1.3206763e-08
5.7695274e-07
-1.569737e-08
5.7899051e-07
-1.8732936e-08
5.8179588e-07
-2.2478321e-08
5.8568921e-07
-2.7299178e-08
5.9148272e-07
-3.4590676e-08
6.0317517e-07
-4.3462208e-08
6.2640338e-07
-3.4915565e-08
6.0545232e-07
3.281319e-07
3.009446e-08
2.4467434e-07
4.9342004e-08
5.8155073e-07
4.3438731e-08
6.5136367e-07
3.4477587e-08
6.2368208e-07
2.8625449e-08
6.0359329e-07
2.425773e-08
5.9441878e-07
2.0649486e-08
5.8868095e-07
1.7625431e-08
5.8450249e-07
1.5071989e-08
5.8141827e-07
1.2894342e-08
5.7911613e-07
1.101613e-08
5.7737716e-07
9.3769282e-09
5.7605096e-07
7.9286451e-09
5.750319e-07
6.632556e-09
5.7424536e-07
5.4572068e-09
5.7363802e-07
4.3767448e-09
5.7317145e-07
3.3695697e-09
5.7281803e-07
2.4172559e-09
5.7255802e-07
1.503671e-09
5.7237768e-07
6.142363e-10
5.7226798e-07
-2.6471183e-10
5.7222383e-07
-1.146509e-09
5.7224359e-07
-2.0447373e-09
5.7232903e-07
-2.9738141e-09
5.7248546e-07
-3.949636e-09
5.7272228e-07
-4.9903269e-09
5.7305386e-07
-6.1171303e-09
5.7350101e-07
-7.3555157e-09
5.7409313e-07
-8.736551e-09
5.7487144e-07
-1.0298621e-08
5.7589384e-07
-1.2089876e-08
5.7724249e-07
-1.4171359e-08
5.7903423e-07
-1.6619656e-08
5.8143882e-07
-1.9531e-08
5.8470723e-07
-2.3043168e-08
5.8920139e-07
-2.7568654e-08
5.9600822e-07
-3.422656e-08
6.0983308e-07
-4.0198557e-08
6.3237539e-07
-2.8812616e-08
5.9406638e-07
2.9931929e-07
2.2952224e-08
2.2226114e-07
4.2828704e-08
5.6199745e-07
4.1035112e-08
6.5316998e-07
3.3619503e-08
6.3106102e-07
2.8354087e-08
6.088513e-07
2.4450201e-08
5.9832316e-07
2.1154798e-08
5.919766e-07
1.8310576e-08
5.8734672e-07
1.584583e-08
5.8388301e-07
1.3694249e-08
5.8126771e-07
1.1799091e-08
5.7927231e-07
1.0113882e-08
5.7773617e-07
8.6002362e-09
5.7654555e-07
7.2261437e-09
5.7561946e-07
5.9647681e-09
5.7489939e-07
4.7933826e-09
5.7434284e-07
3.6924783e-09
5.7391894e-07
2.6450175e-09
5.7360548e-07
1.6357931e-09
5.733869e-07
6.5086829e-10
5.7325291e-07
-3.229156e-10
5.7319761e-07
-1.2984095e-09
5.7321908e-07
-2.2886143e-09
5.7331923e-07
-3.307136e-09
5.7350398e-07
-4.3686753e-09
5.7378382e-07
-5.4895684e-09
5.7417475e-07
-6.6884017e-09
5.7469984e-07
-7.9867371e-09
5.7539146e-07
-9.4099826e-09
5.7629468e-07
-1.0988384e-08
5.7747224e-07
-1.2758418e-08
5.7901252e-07
-1.4764802e-08
5.8104062e-07
-1.7061032e-08
5.8373505e-07
-1.9708899e-08
5.873551e-07
-2.281442e-08
5.9230691e-07
-2.6797473e-08
5.9999127e-07
-3.2345623e-08
6.1538123e-07
-3.5343896e-08
6.3537366e-07
-2.2586755e-08
5.8130924e-07
2.7673256e-07
1.6797169e-08
2.0641091e-07
3.5823967e-08
5.4353178e-07
3.7400033e-08
6.516538e-07
3.1861864e-08
6.3655198e-07
2.737873e-08
6.133216e-07
2.4039007e-08
6.0166302e-07
2.1154435e-08
5.9486153e-07
1.8576659e-08
5.8992452e-07
1.6271551e-08
5.8618811e-07
1.4203715e-08
5.8333555e-07
1.2338527e-08
5.811375e-07
1.0645412e-08
5.7942928e-07
9.0973264e-09
5.7809363e-07
7.6703908e-09
5.7704639e-07
6.3435811e-09
5.762262e-07
5.0983052e-09
5.7558811e-07
3.9180009e-09
5.7509924e-07
2.7877489e-09
5.7473573e-07
1.6939006e-09
5.7448075e-07
6.2372708e-10
5.7432308e-07
-4.3490106e-10
5.7425624e-07
-1.4938384e-09
5.7427802e-07
-2.5649771e-09
5.7439037e-07
-3.6605434e-09
5.7459955e-07
-4.7934012e-09
5.7491668e-07
-5.9773553e-09
5.7535871e-07
-7.2274541e-09
5.7594994e-07
-8.5602872e-09
5.767243e-07
-9.9942868e-09
5.7772868e-07
-1.154993e-08
5.7902789e-07
-1.3249902e-08
5.8071249e-07
-1.5119674e-08
5.8291039e-07
-1.7185973e-08
5.8580135e-07
-1.9474944e-08
5.8964407e-07
-2.2062506e-08
5.9489447e-07
-2.5321377e-08
6.0325014e-07
-2.9436165e-08
6.1949602e-07
-2.9680651e-08
6.3561815e-07
-1.659417e-08
5.6822277e-07
2.6013842e-07
1.1673941e-08
1.960925e-07
2.8996538e-08
5.2711487e-07
3.3148436e-08
6.4765465e-07
2.9621079e-08
6.4002938e-07
2.6052283e-08
6.16871e-07
2.3314456e-08
6.0439983e-07
2.0877601e-08
5.9729876e-07
1.8604473e-08
5.9219771e-07
1.6493114e-08
5.8829949e-07
1.4538457e-08
5.8529022e-07
1.2728157e-08
5.8294782e-07
1.1047885e-08
5.8110957e-07
9.4824469e-09
5.7965909e-07
8.0166453e-09
5.7851221e-07
6.6357849e-09
5.7760708e-07
5.3258904e-09
5.7689803e-07
4.0737897e-09
5.7635136e-07
2.8670859e-09
5.7594245e-07
1.6940582e-09
5.7565379e-07
5.4352707e-10
5.7547363e-07
-5.9528916e-10
5.7539507e-07
-1.7329403e-09
5.7541569e-07
-2.8799013e-09
5.7553735e-07
-4.0467041e-09
5.7576637e-07
-5.2440489e-09
5.7611404e-07
-6.4828622e-09
5.7659754e-07
-7.7742862e-09
5.7724138e-07
-9.129544e-09
5.7807957e-07
-1.0559657e-08
5.7915881e-07
-1.2074882e-08
5.8054313e-07
-1.3683697e-08
5.8232132e-07
-1.5391887e-08
5.846186e-07
-1.719907e-08
5.8760855e-07
-1.9097153e-08
5.9154217e-07
-2.1130589e-08
5.9692792e-07
-2.3559501e-08
6.0567906e-07
-2.605093e-08
6.2198746e-07
-2.3880178e-08
6.334474e-07
-1.1144791e-08
5.554874e-07
2.4899364e-07
7.5870149e-09
1.9010348e-07
2.2805716e-08
5.1321325e-07
2.8859695e-08
6.4189274e-07
2.7353485e-08
6.4148999e-07
2.4779945e-08
6.1941615e-07
2.2639023e-08
6.0653736e-07
2.0635942e-08
5.993021e-07
1.8661112e-08
5.9417268e-07
1.6742228e-08
5.9021842e-07
1.4902323e-08
5.8713017e-07
1.3149815e-08
5.8470037e-07
1.1485556e-08
5.8277387e-07
9.9055762e-09
5.8123911e-07
8.4030276e-09
5.800148e-07
6.9694034e-09
5.7904075e-07
5.5953333e-09
5.7827214e-07
4.271101e-09
5.7767563e-07
2.9869399e-09
5.7722666e-07
1.7331875e-09
5.7690759e-07
5.0035362e-10
5.7670651e-07
-7.2086258e-10
5.7661633e-07
-1.9395827e-09
5.7663445e-07
-3.1647569e-09
5.7676257e-07
-4.4051469e-09
5.770068e-07
-5.6692577e-09
5.7737819e-07
-6.9651761e-09
5.778935e-07
-8.3002808e-09
5.7857653e-07
-9.680733e-09
5.7946007e-07
-1.1110673e-08
5.805888e-07
-1.2591007e-08
5.820235e-07
-1.4117393e-08
5.8384775e-07
-1.5677857e-08
5.861791e-07
-1.72477e-08
5.8917843e-07
-1.8787507e-08
5.9308201e-07
-2.0303284e-08
5.9844374e-07
-2.1882977e-08
6.0725879e-07
-2.2696412e-08
6.2280093e-07
-1.8497941e-08
6.2924896e-07
-6.5743676e-09
5.4356386e-07
2.4241927e-07
4.5352991e-09
1.8719814e-07
1.7537698e-08
5.0192036e-07
2.4997396e-08
6.3488096e-07
2.5443066e-08
6.4100014e-07
2.389837e-08
6.2091772e-07
2.2320307e-08
6.081081e-07
2.0703256e-08
6.0091927e-07
1.8991773e-08
5.9588442e-07
1.7241997e-08
5.9196829e-07
1.5501343e-08
5.8887089e-07
1.3796444e-08
5.8640534e-07
1.2141329e-08
5.8442905e-07
1.0541823e-08
5.8283868e-07
8.9984571e-09
5.8155824e-07
7.5082947e-09
5.8053098e-07
6.066207e-09
5.7971429e-07
4.6657385e-09
5.7907617e-07
3.2996678e-09
5.7859279e-07
1.9603741e-09
5.7824695e-07
6.400749e-10
5.7802687e-07
-6.690193e-10
5.7792549e-07
-1.9745813e-09
5.7794008e-07
-3.2840456e-09
5.7807209e-07
-4.6044672e-09
5.7832729e-07
-5.9423068e-09
5.787161e-07
-7.3030991e-09
5.7925436e-07
-8.6909439e-09
5.7996444e-07
-1.0107723e-08
5.8087691e-07
-1.1551902e-08
5.8203304e-07
-1.3016825e-08
5.8348849e-07
-1.4487959e-08
5.8531895e-07
-1.5939119e-08
5.8763033e-07
-1.7326625e-08
5.90566e-07
-1.8585153e-08
5.943406e-07
-1.9671972e-08
5.9953062e-07
-2.0464764e-08
6.0805165e-07
-1.9692294e-08
6.2202852e-07
-1.3893612e-08
6.2345034e-07
-3.1552614e-09
5.3282555e-07
2.3926398e-07
2.47191e-09
1.8625003e-07
1.3305848e-08
4.9307017e-07
2.1784516e-08
6.2697394e-07
2.4027822e-08
6.3869907e-07
2.3501826e-08
6.2137743e-07
2.2439711e-08
6.0915712e-07
2.1150405e-08
6.0220867e-07
1.9661773e-08
5.9737353e-07
1.8056187e-08
5.93574e-07
1.6400182e-08
5.9052696e-07
1.4735226e-08
5.8807036e-07
1.3086023e-08
5.8607832e-07
1.1466404e-08
5.8445837e-07
9.8830473e-09
5.8314166e-07
8.3377801e-09
5.8207631e-07
6.8292202e-09
5.8122292e-07
5.3538908e-09
5.8055156e-07
3.9069772e-09
5.8003977e-07
2.4828534e-09
5.7967113e-07
1.0754501e-09
5.7943434e-07
-3.2148075e-10
5.7932249e-07
-1.7141395e-09
5.793328e-07
-3.1084511e-09
5.7946647e-07
-4.5098313e-09
5.7972873e-07
-5.9228593e-09
5.8012918e-07
-7.3508374e-09
5.8068239e-07
-8.7951256e-09
5.8140879e-07
-1.0254197e-08
5.8233604e-07
-1.1722192e-08
5.8350109e-07
-1.3186893e-08
5.8495325e-07
-1.4626549e-08
5.8675866e-07
-1.6004938e-08
5.8900877e-07
-1.7265691e-08
5.9182681e-07
-1.8324912e-08
5.9539989e-07
-1.9081618e-08
6.0028739e-07
-1.9198406e-08
6.081685e-07
-1.708104e-08
6.1991122e-07
-1.0180627e-08
6.1654999e-07
-9.9126138e-10
5.2363622e-07
2.3827269e-07
1.2712583e-09
1.8635853e-07
1.0085039e-08
4.8633482e-07
1.9160411e-08
6.1852547e-07
2.291714e-08
6.348541e-07
2.335157e-08
6.2084772e-07
2.2764451e-08
6.0972406e-07
2.1760922e-08
6.0321236e-07
2.0472426e-08
5.9866281e-07
1.9004164e-08
5.9504241e-07
1.7436046e-08
5.9209511e-07
1.5820611e-08
5.8968582e-07
1.4190706e-08
5.8770826e-07
1.2566479e-08
5.8608262e-07
1.0959615e-08
5.8474855e-07
9.3759912e-09
5.8365996e-07
7.8175533e-09
5.8278138e-07
6.283587e-09
5.8208555e-07
4.7716098e-09
5.8155177e-07
3.2780062e-09
5.8116476e-07
1.7984908e-09
5.8091388e-07
3.2845747e-10
5.8079254e-07
-1.1367168e-09
5.80798e-07
-2.6013687e-09
5.8093114e-07
-4.0692412e-09
5.8119662e-07
-5.5430755e-09
5.8160304e-07
-7.0241076e-09
5.8216345e-07
-8.5113074e-09
5.8289601e-07
-1.0000356e-08
5.8382511e-07
-1.1482088e-08
5.8498285e-07
-1.2940294e-08
5.8641148e-07
-1.434842e-08
5.8816682e-07
-1.5663892e-08
5.9032427e-07
-1.6822748e-08
5.929857e-07
-1.7729311e-08
5.9630648e-07
-1.8222233e-08
6.0078034e-07
-1.7784232e-08
6.0773053e-07
-1.4690824e-08
6.1681785e-07
-7.2815397e-09
6.0914074e-07
1.9942421e-10
5.1615526e-07
2.384721e-07
7.4221351e-10
1.8688017e-07
7.7640998e-09
4.8131877e-07
1.6882456e-08
6.1002138e-07
2.1710875e-08
6.2990355e-07
2.2984445e-08
6.1945314e-07
2.2844936e-08
6.0983675e-07
2.211805e-08
6.0393943e-07
2.1037263e-08
5.9974468e-07
1.9726578e-08
5.9635323e-07
1.8274424e-08
5.9354723e-07
1.6740939e-08
5.9121928e-07
1.5165036e-08
5.8928414e-07
1.3571877e-08
5.8767576e-07
1.1977342e-08
5.8634306e-07
1.0390888e-08
5.8524639e-07
8.8175464e-09
5.843547e-07
7.2592859e-09
5.8364379e-07
5.7159866e-09
5.8309505e-07
4.1861467e-09
5.8269458e-07
2.6674136e-09
5.8243258e-07
1.1569992e-09
5.8230293e-07
-3.4795773e-10
5.8230293e-07
-1.8500303e-09
5.8243319e-07
-3.3511342e-09
5.826977e-07
-4.8520789e-09
5.8310396e-07
-6.352002e-09
5.8366335e-07
-7.8475734e-09
5.8439156e-07
-9.3319319e-09
5.8530945e-07
-1.079312e-08
5.8644401e-07
-1.2211815e-08
5.8783015e-07
-1.3558089e-08
5.8951307e-07
-1.4785555e-08
5.9155172e-07
-1.5825666e-08
5.9402579e-07
-1.6575755e-08
5.9705655e-07
-1.6826107e-08
6.0103067e-07
-1.5952568e-08
6.0685698e-07
-1.2330886e-08
6.1319616e-07
-5.1065729e-09
6.0191642e-07
5.9726848e-10
5.104514e-07
2.3906936e-07
6.752296e-10
1.8740322e-07
6.1835895e-09
4.7765105e-07
1.4714718e-08
6.0205783e-07
2.0056296e-08
6.2442311e-07
2.1975019e-08
6.1740167e-07
2.2256831e-08
6.0952427e-07
2.1823295e-08
6.0437298e-07
2.0981312e-08
6.0058792e-07
1.9868432e-08
5.9746625e-07
1.8577937e-08
5.9483766e-07
1.7174682e-08
5.9262246e-07
1.5702103e-08
5.9075665e-07
1.4189485e-08
5.8918831e-07
1.2656384e-08
5.878761e-07
1.1115574e-08
5.8678713e-07
9.575071e-09
5.8589514e-07
8.0395384e-09
5.8517925e-07
6.5113053e-09
5.8462321e-07
4.9911224e-09
5.842147e-07
3.478742e-09
5.839449e-07
1.9733867e-09
5.8380822e-07
4.7416209e-10
5.8380209e-07
-1.0195424e-09
5.8392683e-07
-2.5076334e-09
5.8418573e-07
-3.9888221e-09
5.8458509e-07
-5.4600237e-09
5.8513449e-07
-6.9155533e-09
5.8584702e-07
-8.3460386e-09
5.8673987e-07
-9.7369046e-09
5.8783482e-07
-1.1066132e-08
5.8915932e-07
-1.2301133e-08
5.9074801e-07
-1.3393319e-08
5.9264384e-07
-1.4271541e-08
5.9490395e-07
-1.4829876e-08
5.9761482e-07
-1.4836051e-08
6.0103679e-07
-1.3653013e-08
6.0567388e-07
-9.9473674e-09
6.0949046e-07
-3.5273216e-09
5.9549633e-07
5.4937361e-10
5.0637466e-07
2.3961873e-07
8.4064603e-10
1.8773776e-07
5.1551764e-09
4.7500573e-07
1.2568966e-08
5.9517056e-07
1.7858431e-08
6.1900827e-07
2.0172022e-08
6.1496272e-07
2.0826802e-08
6.088392e-07
2.070205e-08
6.0449741e-07
2.0130742e-08
6.0116042e-07
1.9256171e-08
5.9834096e-07
1.8172982e-08
5.9592076e-07
1.6948187e-08
5.9384717e-07
1.562835e-08
5.9207641e-07
1.4246062e-08
5.9057052e-07
1.2824094e-08
5.8929798e-07
1.1378287e-08
5.8823286e-07
9.9195265e-09
5.8735382e-07
8.4551424e-09
5.8664356e-07
6.9899496e-09
5.8608833e-07
5.5270284e-09
5.8567754e-07
4.0683415e-09
5.8540351e-07
2.6152428e-09
5.8526125e-07
1.1689307e-09
5.8524833e-07
-2.6912022e-10
5.8536481e-07
-1.6966876e-09
5.8561322e-07
-3.11031e-09
5.8599864e-07
-4.5046227e-09
5.8652873e-07
-5.8715892e-09
5.8721392e-07
-7.1994089e-09
5.8806762e-07
-8.4710868e-09
5.8910642e-07
-9.6623205e-09
5.9035048e-07
-1.0738556e-08
5.9182417e-07
-1.1650417e-08
5.9355562e-07
-1.2326636e-08
5.9558009e-07
-1.2662505e-08
5.9795062e-07
-1.2433586e-08
6.0080779e-07
-1.1075476e-08
6.0431569e-07
-7.6404849e-09
6.0605539e-07
-2.412837e-09
5.9026861e-07
3.457212e-10
5.0361605e-07
2.3996445e-07
1.0544812e-09
1.8785885e-07
4.4990129e-09
4.7310565e-07
1.0519823e-08
5.8966123e-07
1.5310121e-08
6.1413363e-07
1.7755824e-08
6.1241479e-07
1.8699027e-08
6.0786989e-07
1.8869279e-08
6.0432649e-07
1.8576921e-08
6.0145374e-07
1.7960589e-08
5.9895741e-07
1.7112025e-08
5.9676925e-07
1.6097621e-08
5.948615e-07
1.4965339e-08
5.9320862e-07
1.3749957e-08
5.9178583e-07
1.247676e-08
5.9057112e-07
1.116419e-08
5.8954537e-07
9.825697e-09
5.8869225e-07
8.4710828e-09
5.8799811e-07
7.1075245e-09
5.8745183e-07
5.7403595e-09
5.8704465e-07
4.3737192e-09
5.8677009e-07
3.0110632e-09
5.8662384e-07
1.6556603e-09
5.8660367e-07
3.1104155e-10
5.8670936e-07
-1.0185046e-09
5.8694271e-07
-2.3274158e-09
5.8730749e-07
-3.6082104e-09
5.8780946e-07
-4.8507226e-09
5.8845637e-07
-6.0410688e-09
5.892579e-07
-7.1603364e-09
5.9022563e-07
-8.1827155e-09
5.9137279e-07
-9.072864e-09
5.9271425e-07
-9.7824024e-09
5.942651e-07
-1.0243433e-08
5.9604106e-07
-1.0358357e-08
5.9806547e-07
-9.935115e-09
6.0038448e-07
-8.5355372e-09
6.0291604e-07
-5.5892477e-09
6.0310903e-07
-1.6535926e-09
5.863329e-07
1.4811753e-10
5.0181432e-07
2.4011258e-07
1.2206299e-09
1.878218e-07
4.0745386e-09
4.7172831e-07
8.7168795e-09
5.8553812e-07
1.2755433e-08
6.1006466e-07
1.5109215e-08
6.0998881e-07
1.6227239e-08
6.0673196e-07
1.6639438e-08
6.0391342e-07
1.659923e-08
6.014946e-07
1.6229845e-08
5.993269e-07
1.5615214e-08
5.9738384e-07
1.4818025e-08
5.9565865e-07
1.388541e-08
5.941412e-07
1.2852785e-08
5.9281842e-07
1.1746867e-08
5.91677e-07
1.058792e-08
5.9070428e-07
9.3913775e-09
5.8988875e-07
8.1690857e-09
5.8922037e-07
6.930252e-09
5.8869063e-07
5.6822081e-09
5.8829265e-07
4.4310354e-09
5.8802123e-07
3.182102e-09
5.8787274e-07
1.9405525e-09
5.8784518e-07
7.1177019e-10
5.8793811e-07
-4.9813033e-10
5.8815257e-07
-1.6817928e-09
5.8849111e-07
-2.8299821e-09
5.8895761e-07
-3.9308905e-09
5.8955724e-07
-4.9692018e-09
5.9029618e-07
-5.9249479e-09
5.9118134e-07
-6.7719856e-09
5.9221979e-07
-7.4758549e-09
5.9341809e-07
-7.9913378e-09
5.9478055e-07
-8.2576656e-09
5.9630735e-07
-8.1904541e-09
5.9799822e-07
-7.6427911e-09
5.9983678e-07
-6.3166115e-09
6.0158982e-07
-3.9387694e-09
6.0073114e-07
-1.1534171e-09
5.8354751e-07
9.3120282e-12
5.0065159e-07
2.4012189e-07
1.3110253e-09
1.8770146e-07
3.7860315e-09
4.7070303e-07
7.2749388e-09
5.8258459e-07
1.0505493e-08
6.068542e-07
1.2617393e-08
6.0783294e-07
1.3791601e-08
6.0554407e-07
1.4365094e-08
6.0333903e-07
1.4521074e-08
6.0133901e-07
1.4359502e-08
5.9948856e-07
1.3952184e-08
5.9779114e-07
1.3355136e-08
5.9625568e-07
1.2612294e-08
5.9488403e-07
1.1757932e-08
5.9367277e-07
1.0818855e-08
5.9261606e-07
9.8161155e-09
5.91707e-07
8.7663409e-09
5.9093852e-07
7.6827861e-09
5.9030391e-07
6.5761813e-09
5.8979722e-07
5.4554267e-09
5.894134e-07
4.3281827e-09
5.8914846e-07
3.2013841e-09
5.8899953e-07
2.0817152e-09
5.8896484e-07
9.7606188e-10
5.8904376e-07
-1.0802535e-10
5.8923665e-07
-1.1618283e-09
5.8954491e-07
-2.174915e-09
5.8997069e-07
-3.1344941e-09
5.9051681e-07
-4.0246483e-09
5.9118632e-07
-4.8254087e-09
5.9198209e-07
-5.5116311e-09
5.9290601e-07
-6.0514874e-09
5.9395793e-07
-6.4049848e-09
5.9513403e-07
-6.5213253e-09
5.9642367e-07
-6.3335209e-09
5.978104e-07
-5.7406102e-09
5.9924385e-07
-4.5666678e-09
6.0041586e-07
-2.7307494e-09
5.9889521e-07
-8.2663708e-10
5.8164339e-07
-5.8669015e-11
4.9988363e-07
2.4006323e-07
1.3388273e-09
1.8755698e-07
3.5759969e-09
4.6990869e-07
6.2173081e-09
5.8049105e-07
8.7236504e-09
6.0440515e-07
1.0525328e-08
6.0600869e-07
1.1657723e-08
6.0440299e-07
1.2307023e-08
6.0268894e-07
1.2590882e-08
6.0105534e-07
1.2583072e-08
5.9949643e-07
1.2340811e-08
5.9803341e-07
1.1911309e-08
5.9668518e-07
1.1333346e-08
5.9546199e-07
1.0638434e-08
5.9436768e-07
9.8521344e-09
5.9340237e-07
8.995212e-09
5.9256393e-07
8.0846097e-09
5.9184912e-07
7.1342754e-09
5.9125425e-07
6.15586e-09
5.9077564e-07
5.1593174e-09
5.9040994e-07
4.1534284e-09
5.9015435e-07
3.1462698e-09
5.9000669e-07
2.1456509e-09
5.8996547e-07
1.1595342e-09
5.9002988e-07
1.9645263e-10
5.9019974e-07
-7.3403709e-10
5.904754e-07
-1.6208868e-09
5.9085754e-07
-2.451023e-09
5.9134695e-07
-3.2087579e-09
5.9194406e-07
-3.8751172e-09
5.9264845e-07
-4.4271157e-09
5.9345801e-07
-4.8369046e-09
5.9436772e-07
-5.0710996e-09
5.9536823e-07
-5.0900422e-09
5.9644262e-07
-4.8451099e-09
5.9756547e-07
-4.274025e-09
5.9867277e-07
-3.2892452e-09
5.9943108e-07
-1.9091764e-09
5.9751514e-07
-6.069457e-10
5.8034117e-07
-6.4086806e-11
4.9934078e-07
2.3999915e-07
1.3309232e-09
1.8742122e-07
3.4131142e-09
4.6926783e-07
5.4864677e-09
5.7896979e-07
7.4166296e-09
6.025543e-07
8.9049648e-09
6.0451146e-07
9.932571e-09
6.0337013e-07
1.0587137e-08
6.0203376e-07
1.09354e-08
6.0070716e-07
1.1026798e-08
5.9940507e-07
1.0903805e-08
5.9815642e-07
1.0603977e-08
5.9698502e-07
1.0159814e-08
5.9590616e-07
9.5989277e-09
5.9492858e-07
8.9445892e-09
5.9405671e-07
8.2163564e-09
5.9329217e-07
7.4306959e-09
5.9263479e-07
6.6015659e-09
5.9208339e-07
5.7409484e-09
5.9163627e-07
4.8593304e-09
5.9129157e-07
3.9661425e-09
5.9104755e-07
3.070163e-09
5.9090268e-07
2.179899e-09
5.9085574e-07
1.3039564e-09
5.9090583e-07
4.5139986e-10
5.910523e-07
-3.6786572e-10
5.9129468e-07
-1.1427183e-09
5.9163241e-07
-1.8604071e-09
5.9206465e-07
-2.5061473e-09
5.9258981e-07
-3.0626964e-09
5.9320501e-07
-3.5099838e-09
5.939053e-07
-3.8248166e-09
5.9468256e-07
-3.9808297e-09
5.9552425e-07
-3.9490188e-09
5.9641082e-07
-3.6971849e-09
5.9731365e-07
-3.1913159e-09
5.9816691e-07
-2.3979231e-09
5.986377e-07
-1.3714943e-09
5.9648872e-07
-4.541282e-10
5.7942381e-07
-4.6727252e-11
4.9893339e-07
2.3995243e-07
1.3101663e-09
1.8730549e-07
3.2810223e-09
4.6873592e-07
4.9892425e-09
5.7781153e-07
6.4941909e-09
6.0113902e-07
7.7043902e-09
6.032999e-07
8.5992867e-09
6.0247202e-07
9.2126438e-09
6.0141993e-07
9.577065e-09
6.0034276e-07
9.7224792e-09
5.9925968e-07
9.6783303e-09
5.9820058e-07
9.4729326e-09
5.9719043e-07
9.1322963e-09
5.9624681e-07
8.6796187e-09
5.9538127e-07
8.1352586e-09
5.9460108e-07
7.5169335e-09
5.9391051e-07
6.8400332e-09
5.933117e-07
6.1179753e-09
5.9280546e-07
5.3625704e-09
5.9239168e-07
4.5843797e-09
5.9206977e-07
3.7930589e-09
5.9183888e-07
2.9976863e-09
5.9169806e-07
2.207078e-09
5.9164636e-07
1.4300953e-09
5.9168282e-07
6.7594044e-10
5.9180647e-07
-4.554363e-11
5.9201617e-07
-7.2358568e-10
5.9231046e-07
-1.3462024e-09
5.9268727e-07
-1.8999524e-09
5.9314357e-07
-2.3697281e-09
5.9367479e-07
-2.7386637e-09
5.9427425e-07
-2.9882363e-09
5.9493215e-07
-3.0986341e-09
5.9563466e-07
-3.0499044e-09
5.963621e-07
-2.8226931e-09
5.9708645e-07
-2.4012929e-09
5.9774552e-07
-1.7799288e-09
5.9801635e-07
-1.0153556e-09
5.9572416e-07
-3.4173142e-10
5.787502e-07
-2.617175e-11
4.9861785e-07
2.3992626e-07
1.289386e-09
1.8720942e-07
3.1710422e-09
4.6828907e-07
4.6385865e-09
5.7688895e-07
5.8397374e-09
6.0003114e-07
6.8207755e-09
6.0232118e-07
7.5807862e-09
6.0170993e-07
8.1294678e-09
6.008709e-07
8.4793844e-09
5.9999285e-07
8.6466089e-09
5.9909247e-07
8.6502436e-09
5.9819695e-07
8.5106439e-09
5.9733004e-07
8.2478344e-09
5.9650962e-07
7.8806428e-09
5.9574847e-07
7.4263108e-09
5.9505542e-07
6.900394e-09
5.9443643e-07
6.3168341e-09
5.9389527e-07
5.6881246e-09
5.9343417e-07
5.0255291e-09
5.9305428e-07
4.3393216e-09
5.9275599e-07
3.6390368e-09
5.9253917e-07
2.9337207e-09
5.9240339e-07
2.2321761e-09
5.9234791e-07
1.5432035e-09
5.923718e-07
8.758312e-10
5.9247385e-07
2.395355e-10
5.9265247e-07
-3.5555834e-10
5.9290556e-07
-8.9850106e-10
5.9323022e-07
-1.3774041e-09
5.9362248e-07
-1.7793975e-09
5.9407679e-07
-2.0907252e-09
5.9458558e-07
-2.2970761e-09
5.951385e-07
-2.3841747e-09
5.9572176e-07
-2.3390641e-09
5.9631699e-07
-2.1513622e-09
5.9689875e-07
-1.8159334e-09
5.974101e-07
-1.3383481e-09
5.9753877e-07
-7.6483251e-10
5.9515066e-07
-2.5435952e-10
5.7823974e-07
-1.0412778e-11
4.9837391e-07
2.3991586e-07
1.2729226e-09
1.8712881e-07
3.0782994e-09
4.679136e-07
4.3737565e-09
5.7613331e-07
5.3558082e-09
5.9914309e-07
6.1546879e-09
6.0152635e-07
6.7917688e-09
6.0107135e-07
7.2688565e-09
6.0039353e-07
7.5881906e-09
5.9967351e-07
7.7569712e-09
5.989237e-07
7.7867747e-09
5.9816715e-07
7.6916444e-09
5.9742517e-07
7.486527e-09
5.9671475e-07
7.1862982e-09
5.960487e-07
6.8051995e-09
5.9543653e-07
6.3565622e-09
5.9488507e-07
5.8527142e-09
5.9439912e-07
5.3050051e-09
5.9398189e-07
4.7239037e-09
5.9363539e-07
4.11914e-09
5.9336075e-07
3.4998701e-09
5.9315845e-07
2.8748532e-09
5.9302841e-07
2.2526315e-09
5.9297013e-07
1.6417071e-09
5.9298273e-07
1.0507081e-09
5.9306485e-07
4.885402e-10
5.9321464e-07
-3.5489699e-11
5.9342959e-07
-5.1158486e-10
5.9370632e-07
-9.2943956e-10
5.9404034e-07
-1.278308e-09
5.9442567e-07
-1.5472079e-09
5.9485449e-07
-1.7253469e-09
5.9531665e-07
-1.8027779e-09
5.957992e-07
-1.7715518e-09
5.9628577e-07
-1.6269756e-09
5.9675418e-07
-1.3693373e-09
5.9715246e-07
-1.0072565e-09
5.9717669e-07
-5.7493628e-10
5.9471834e-07
-1.8397267e-10
5.7784879e-07
3.0762213e-13
4.9818964e-07
2.3991617e-07
1.2606165e-09
1.8705974e-07
2.9997748e-09
4.6759974e-07
4.1607295e-09
5.7550807e-07
4.9784778e-09
5.9841938e-07
5.6335334e-09
6.0087627e-07
6.1646212e-09
6.0053911e-07
6.5725661e-09
5.9998535e-07
6.8550041e-09
5.9939107e-07
7.0139441e-09
5.9876476e-07
7.0558508e-09
5.9812525e-07
6.9900664e-09
5.9749096e-07
6.8274838e-09
5.9687733e-07
6.5796247e-09
5.9629656e-07
6.2580393e-09
5.9575811e-07
5.8739484e-09
5.9526917e-07
5.4380553e-09
5.9483502e-07
4.9604759e-09
5.9445947e-07
4.450748e-09
5.9414512e-07
3.9178939e-09
5.9389361e-07
3.3705146e-09
5.9370583e-07
2.816903e-09
5.9358202e-07
2.2651642e-09
5.9352188e-07
1.7233354e-09
5.9352456e-07
1.1994957e-09
5.9358869e-07
7.0185955e-10
5.9371228e-07
2.3883894e-10
5.9389262e-07
-1.8093364e-10
5.941261e-07
-5.4864802e-10
5.9440806e-07
-8.5545024e-10
5.9473247e-07
-1.0926922e-09
5.9509173e-07
-1.2523632e-09
5.9547632e-07
-1.3277098e-09
5.9587455e-07
-1.3141563e-09
5.9627222e-07
-1.2103252e-09
5.9665035e-07
-1.0189222e-09
5.9696106e-07
-7.4831763e-10
5.9690609e-07
-4.2337133e-10
5.943934e-07
-1.2674966e-10
5.7755217e-07
6.8471941e-12
4.9805605e-07
2.3992302e-07
1.2510362e-09
1.8699972e-07
2.9333067e-09
4.6733889e-07
3.9833625e-09
5.749908e-07
4.6721312e-09
5.9782479e-07
5.2123278e-09
6.0034172e-07
5.6541075e-09
6.0009641e-07
5.9993775e-09
5.9963988e-07
6.244097e-09
5.9914635e-07
6.3874775e-09
5.9862139e-07
6.4326935e-09
5.9808004e-07
6.3857422e-09
5.9753791e-07
6.2544162e-09
5.9700866e-07