/*--------------------------------*- C++ -*----------------------------------*\
  =========                 |
  \\      /  F ield         | OpenFOAM: The Open Source CFD Toolbox
   \\    /   O peration     | Website:  https://openfoam.org
    \\  /    A nd           | Version:  10
     \\/     M anipulation  |
\*---------------------------------------------------------------------------*/
FoamFile
{
    format      ascii;
    class       volScalarField;
    location    "0.03";
    object      TporMedia;
}
// * * * * * * * * * * * * * * * * * * * * * * * * * * * * * * * * * * * * * //

dimensions      [0 0 0 1 0 0 0];

internalField   nonuniform List<scalar> 
4000
(
-9.589791e-08
4.4016867e-08
-1.6405286e-06
-4.7044206e-06
-1.449067e-05
-1.0673509e-05
-1.0553622e-05
-1.0359362e-05
-1.0237185e-05
-1.0124393e-05
-1.0019267e-05
-9.9973332e-06
-9.9049277e-06
-9.9394518e-06
-9.8734084e-06
-9.8071444e-06
-9.8227681e-06
-9.7718822e-06
-9.7196196e-06
-9.8020386e-06
-9.7817179e-06
-9.7369167e-06
-9.7227475e-06
-9.7202236e-06
-9.7596076e-06
-9.7616686e-06
-9.8039653e-06
-9.7960595e-06
-9.9044369e-06
-9.9405653e-06
-1.0019315e-05
-1.0204438e-05
-1.0316686e-05
-1.0461706e-05
-1.0713756e-05
-1.0913953e-05
-1.1225573e-05
-1.1586681e-05
-1.1957248e-05
-1.2569783e-05
-6.288768e-09
8.9305957e-19
-1.1902565e-16
1.102881e-14
9.0124868e-14
2.0835256e-13
1.7954834e-13
1.7172348e-13
1.6933809e-13
1.6697511e-13
1.6340456e-13
1.6157263e-13
1.5886088e-13
1.5890169e-13
1.5807087e-13
1.5539278e-13
1.5598737e-13
1.5367533e-13
1.5351683e-13
1.5486735e-13
1.5464069e-13
1.524543e-13
1.5255626e-13
1.521473e-13
1.5355837e-13
1.5474405e-13
1.554386e-13
1.5670041e-13
1.5869113e-13
1.5863327e-13
1.61028e-13
1.6550152e-13
1.7216761e-13
1.787064e-13
1.8257912e-13
1.9275095e-13
2.0497536e-13
2.1620376e-13
2.3424166e-13
2.5802783e-13
-2.3576835e-09
-9.3423498e-20
-2.2382567e-27
3.3669542e-24
-1.0385146e-22
-1.8072032e-21
-3.1877983e-21
-2.8147128e-21
-2.7402965e-21
-2.6711251e-21
-2.6108672e-21
-2.5451693e-21
-2.4769568e-21
-2.4731945e-21
-2.4577603e-21
-2.419404e-21
-2.4325564e-21
-2.3927429e-21
-2.3704368e-21
-2.3901697e-21
-2.3944356e-21
-2.3408836e-21
-2.3475816e-21
-2.3534646e-21
-2.3700766e-21
-2.4232091e-21
-2.4166351e-21
-2.4313868e-21
-2.4998595e-21
-2.5069402e-21
-2.5701922e-21
-2.6325664e-21
-2.7832514e-21
-2.9605408e-21
-3.0728952e-21
-3.3195411e-21
-3.6251727e-21
-3.948696e-21
-4.5123869e-21
-5.1594861e-21
-1.2103886e-09
1.252519e-20
1.1511339e-31
1.7327263e-34
5.9697654e-32
3.7888055e-30
5.3427224e-29
4.6413503e-29
4.3190375e-29
4.1469883e-29
4.0282295e-29
3.9352423e-29
3.7675011e-29
3.7774251e-29
3.7472775e-29
3.6627967e-29
3.6867007e-29
3.5999057e-29
3.5744679e-29
3.6091064e-29
3.6120154e-29
3.5015646e-29
3.5481047e-29
3.5163892e-29
3.5900906e-29
3.6232908e-29
3.6386524e-29
3.6776558e-29
3.7924172e-29
3.7654231e-29
3.9606466e-29
4.0593507e-29
4.336117e-29
4.7077317e-29
4.975108e-29
5.5349027e-29
6.2198357e-29
7.0655225e-29
8.4919264e-29
9.2599298e-29
-7.0846549e-10
1.8002947e-21
1.2068114e-32
2.1408562e-43
-1.9577338e-39
-2.8266428e-39
-4.0479292e-37
-7.6488591e-37
-6.141631e-37
-5.7866282e-37
-5.545717e-37
-5.3676983e-37
-5.141838e-37
-5.1560939e-37
-5.1307e-37
-4.9620618e-37
-4.9818754e-37
-4.8864261e-37
-4.8209945e-37
-4.9064573e-37
-4.9224858e-37
-4.7165622e-37
-4.7979778e-37
-4.7623797e-37
-4.8557483e-37
-4.8794416e-37
-4.9286691e-37
-4.9909129e-37
-5.1166804e-37
-5.1379024e-37
-5.4452661e-37
-5.6453568e-37
-6.1143976e-37
-6.6455392e-37
-7.152613e-37
-8.3024699e-37
-9.6740876e-37
-1.1564384e-36
-1.4838053e-36
-1.7458804e-36
-4.581167e-10
5.0295504e-22
3.7265726e-33
3.0316617e-44
-2.0567465e-49
1.0769632e-48
9.4223151e-46
1.0962701e-44
7.739765e-45
6.9488011e-45
6.6493341e-45
6.4111773e-45
6.1399823e-45
6.1468589e-45
6.1732673e-45
5.9329174e-45
5.951185e-45
5.851151e-45
5.7833932e-45
5.8804422e-45
5.8651667e-45
5.6432095e-45
5.7163557e-45
5.6527451e-45
5.8053855e-45
5.7849462e-45
5.8703279e-45
5.9319108e-45
6.0995108e-45
6.2011169e-45
6.5754517e-45
6.8305574e-45
7.4207412e-45
8.2175315e-45
8.9756614e-45
1.0612728e-44
1.2814064e-44
1.6249232e-44
2.4418473e-44
5.1997578e-44
-2.8309859e-10
1.6641079e-22
3.8663832e-33
1.7497073e-44
5.2755693e-55
-2.7472018e-58
-7.9672185e-55
-1.1631373e-52
-1.2250039e-52
-9.4244461e-53
-8.8755019e-53
-8.5891951e-53
-8.236054e-53
-8.3360344e-53
-8.259742e-53
-8.0130605e-53
-7.9622291e-53
-7.8686326e-53
-7.7855921e-53
-7.923658e-53
-7.9566791e-53
-7.5789668e-53
-7.6104296e-53
-7.5339065e-53
-7.7943732e-53
-7.7210497e-53
-7.810267e-53
-7.8482698e-53
-8.1008493e-53
-8.1833757e-53
-8.6789603e-53
-9.0232465e-53
-9.8348188e-53
-1.0912257e-52
-1.1914429e-52
-1.4194539e-52
-1.7069539e-52
-2.1661084e-52
-3.8790398e-52
-7.8944811e-52
-1.515043e-10
5.0974738e-23
-3.2918756e-34
-9.4770422e-46
-1.2600641e-56
3.0765534e-66
3.161038e-64
7.4381891e-61
3.7697765e-59
3.6593987e-60
3.0984855e-60
3.0470506e-60
2.905494e-60
2.9945028e-60
2.9293785e-60
2.8355574e-60
2.7743444e-60
2.6976436e-60
2.7169106e-60
2.7477294e-60
2.6955064e-60
2.5444444e-60
2.5569691e-60
2.4471308e-60
2.548739e-60
2.4173723e-60
2.4122355e-60
2.4200043e-60
2.4325989e-60
2.4379936e-60
2.5409707e-60
2.5782812e-60
2.7902221e-60
3.0179553e-60
3.1017291e-60
3.6541087e-60
4.017111e-60
4.3174109e-60
5.7712675e-60
4.0305309e-60
-8.4142497e-11
1.6620587e-23
-2.9487163e-35
-6.2988051e-47
-4.7113903e-58
4.2894703e-67
-7.8211568e-74
-2.3561561e-69
7.0209935e-67
1.824553e-67
2.378461e-67
2.4549708e-67
2.4706644e-67
2.7135048e-67
2.778747e-67
2.9045165e-67
2.9464398e-67
2.7747838e-67
3.2712736e-67
3.2673659e-67
3.5546141e-67
3.6816491e-67
3.9098043e-67
4.2616961e-67
4.3908051e-67
5.6456996e-67
6.1370931e-67
8.4279385e-67
8.1106258e-67
1.1734848e-66
1.4661431e-66
1.8688329e-66
2.0024471e-66
2.0237448e-66
1.1482539e-66
7.1374583e-67
6.6085839e-67
-4.8929511e-67
-7.5466757e-68
-1.377623e-68
-5.6090088e-11
6.8653239e-24
-5.0291768e-36
-9.6960358e-48
-4.8365096e-59
-5.5400156e-69
1.1789461e-78
3.7440001e-78
-4.0823931e-74
-4.4592514e-75
-4.6515393e-75
-4.5193573e-75
-4.3866217e-75
-4.7935981e-75
-4.7628153e-75
-4.9658739e-75
-4.9247636e-75
-4.6114204e-75
-5.3770343e-75
-5.2983334e-75
-5.7487833e-75
-5.8699548e-75
-6.1991787e-75
-6.7493602e-75
-6.9809501e-75
-8.8571187e-75
-9.6264762e-75
-1.3200646e-74
-1.2870111e-74
-1.8675037e-74
-2.3684996e-74
-3.1093642e-74
-3.5434423e-74
-3.8625524e-74
-2.5660043e-74
-2.2481172e-74
-6.3651625e-74
2.4931397e-74
6.093845e-76
7.059964e-77
-4.5438824e-11
3.7527051e-24
-1.4071262e-36
-3.0543246e-48
-1.1119943e-59
-3.8547946e-70
1.095314e-79
-3.364033e-87
1.2987607e-82
1.6244884e-83
1.6521789e-83
1.5850727e-83
1.5271766e-83
1.658201e-83
1.6455529e-83
1.7141996e-83
1.6998946e-83
1.5915382e-83
1.8538085e-83
1.8301344e-83
1.9908231e-83
2.0316943e-83
2.1490909e-83
2.3484155e-83
2.4296897e-83
3.1016061e-83
3.3753492e-83
4.66287e-83
4.5673917e-83
6.6907123e-83
8.5752093e-83
1.14579e-82
1.3375133e-82
1.5093846e-82
1.0557791e-82
1.0341968e-82
3.6350758e-82
-1.5003068e-82
-2.488176e-84
1.669347e-84
-4.2932124e-11
2.6426228e-24
-6.1177239e-37
-1.7463276e-48
-4.5884996e-60
-7.2372034e-71
9.0820768e-80
-4.4733003e-89
-1.6533481e-91
-2.7543062e-92
-2.8398773e-92
-2.7149906e-92
-2.6162443e-92
-2.8441442e-92
-2.8254805e-92
-2.9503553e-92
-2.9384567e-92
-2.7559191e-92
-3.2205838e-92
-3.1843221e-92
-3.4813541e-92
-3.5624456e-92
-3.7807293e-92
-4.1461494e-92
-4.2996406e-92
-5.5102162e-92
-6.0157819e-92
-8.3385709e-92
-8.1991722e-92
-1.207884e-91
-1.5567967e-91
-2.0970347e-91
-2.4696261e-91
-2.8330364e-91
-2.023989e-91
-2.0690823e-91
-7.8977122e-91
3.4830078e-91
6.3589082e-93
7.2227416e-93
-4.4827963e-11
2.2810138e-24
-3.865801e-37
-1.1910016e-48
-2.1245402e-60
-1.8072692e-71
-8.9622491e-81
2.4204166e-90
-1.7814547e-99
3.6305155e-101
3.8831579e-101
3.7113056e-101
3.5971517e-101
3.9396639e-101
3.9380064e-101
4.1359412e-101
4.1406486e-101
3.9047814e-101
4.5852758e-101
4.5532515e-101
4.9973926e-101
5.1332176e-101
5.4702714e-101
6.0184127e-101
6.2561594e-101
8.0441439e-101
8.7968538e-101
1.2221414e-100
1.2021758e-100
1.7712854e-100
2.2829199e-100
3.0744681e-100
3.6147999e-100
4.1341759e-100
2.9482561e-100
3.0073908e-100
1.1549154e-99
-5.4214147e-100
-1.5045916e-101
2.6317608e-101
-4.9045887e-11
2.281584e-24
-3.2909755e-37
-6.7010301e-49
-8.0633411e-61
-4.183916e-72
-1.0748333e-81
1.6483415e-91
-1.0117612e-100
1.098608e-109
-7.0247537e-110
-6.6562247e-110
-6.5447346e-110
-7.273664e-110
-7.3709822e-110
-7.8287567e-110
-7.9071734e-110
-7.5340365e-110
-8.9248738e-110
-8.9095943e-110
-9.8413254e-110
-1.0151959e-109
-1.0864466e-109
-1.2000042e-109
-1.2509294e-109
-1.606858e-109
-1.7586424e-109
-2.4359444e-109
-2.3877088e-109
-3.4939001e-109
-4.4611709e-109
-5.9201434e-109
-6.8342045e-109
-7.6148342e-109
-5.2573847e-109
-5.0902622e-109
-1.8247146e-108
9.1363245e-109
6.3181732e-110
1.263421e-109
-5.3779613e-11
2.4994364e-24
-3.4753333e-37
-4.2576134e-49
-3.7385465e-61
-1.34608e-72
-2.4996236e-82
2.4764142e-92
-1.3210519e-101
1.1916297e-109
-6.5173953e-118
6.9931153e-118
7.3196271e-118
8.9717518e-118
9.8223765e-118
1.12533e-117
1.2176952e-117
1.2135804e-117
1.5373482e-117
1.5709592e-117
1.7910786e-117
1.8906749e-117
2.0666227e-117
2.2566353e-117
2.3604601e-117
3.0099188e-117
3.1475541e-117
4.114238e-117
3.7669295e-117
5.0746154e-117
5.8444621e-117
6.8470272e-117
6.82292e-117
6.3978685e-117
3.6455464e-117
2.7220501e-117
7.2115212e-117
-3.9118858e-117
7.0126362e-118
1.0753402e-117
-5.7451233e-11
2.8468265e-24
-4.1594745e-37
-3.705619e-49
-2.7002999e-61
-7.7728751e-73
-1.0021435e-82
7.6569547e-93
-3.7591194e-102
-8.5004649e-111
-1.7806729e-119
1.5761105e-126
1.698162e-126
2.0675379e-126
2.2457765e-126
2.5691936e-126
2.7725834e-126
2.7562668e-126
3.4922009e-126
3.5698724e-126
4.0719137e-126
4.2999294e-126
4.7141704e-126
5.1636164e-126
5.4201173e-126
6.9229882e-126
7.2813193e-126
9.5728774e-126
8.8415959e-126
1.2015496e-125
1.4031441e-125
1.6736082e-125
1.7067551e-125
1.6518576e-125
9.8443392e-126
8.0292111e-126
2.5612671e-125
-1.496416e-125
1.8509518e-126
2.451245e-125
-5.9326868e-11
3.2318772e-24
-5.1319501e-37
-4.2513517e-49
-2.9740883e-61
-7.9181184e-73
-7.0503463e-83
5.0137331e-93
-2.3999952e-102
-3.0167016e-111
-3.5849135e-120
-4.6211325e-129
2.2134212e-135
2.7125339e-135
2.9581312e-135
3.4002001e-135
3.6860988e-135
3.6780586e-135
4.6768251e-135
4.7946111e-135
5.4855163e-135
5.806229e-135
6.3793004e-135
7.0108524e-135
7.3647234e-135
9.4232851e-135
9.9193024e-135
1.3055283e-134
1.2061601e-134
1.638895e-134
1.9136375e-134
2.2836576e-134
2.3297635e-134
2.2543643e-134
1.3413114e-134
1.1020462e-134
3.6744928e-134
-2.388027e-134
3.8828434e-135
-5.2844385e-132
-5.9763095e-11
3.5612036e-24
-6.0281267e-37
-6.1439695e-49
-4.7819864e-61
-1.3557976e-72
-9.2991402e-83
7.389595e-93
-3.7403223e-102
-4.5325648e-111
-5.0813101e-120
-6.1932479e-129
-7.7183018e-138
3.407787e-144
3.7641996e-144
4.3629057e-144
4.7673825e-144
4.7846458e-144
6.1234574e-144
6.3034055e-144
7.2432112e-144
7.686278e-144
8.4701881e-144
9.3179323e-144
9.8032102e-144
1.2529917e-143
1.3183488e-143
1.7308415e-143
1.5921191e-143
2.1538199e-143
2.4956152e-143
2.9529139e-143
2.9793259e-143
2.836261e-143
1.6548382e-143
1.3306618e-143
4.5001674e-143
-3.3927545e-143
1.0342104e-143
1.5233932e-139
-5.9518653e-11
3.7726287e-24
-6.5090838e-37
-1.2665219e-48
-1.2687415e-60
-4.3647384e-72
-2.6799312e-82
2.8309252e-92
-1.6653278e-101
-2.7738865e-110
-4.0670276e-119
-6.5452388e-128
-1.0866482e-136
-1.8348355e-145
6.1383474e-153
7.5741176e-153
8.377493e-153
8.4812614e-153
1.0949097e-152
1.133935e-152
1.3092179e-152
1.3952298e-152
1.5411529e-152
1.6958823e-152
1.7831833e-152
2.2748328e-152
2.3852645e-152
3.1139689e-152
2.8434609e-152
3.8020972e-152
4.3472489e-152
5.0599968e-152
4.9986088e-152
4.6250772e-152
2.6037466e-152
2.0139441e-152
6.8451232e-152
-6.4019278e-152
5.8507374e-152
-2.8089244e-147
-5.9153487e-11
3.8673891e-24
-6.5778193e-37
2.0006803e-47
2.9905082e-59
1.4027918e-70
8.9046564e-81
-1.4774939e-90
1.1101661e-99
3.849593e-108
1.0349043e-116
3.1322282e-125
9.9371952e-134
3.2422741e-142
1.0831635e-150
3.7134185e-159
2.8956739e-161
2.9709969e-161
3.884566e-161
4.0643129e-161
4.7262642e-161
5.0544001e-161
5.5939801e-161
6.149762e-161
6.4602634e-161
8.205057e-161
8.5385293e-161
1.1032573e-160
9.9224069e-161
1.303339e-160
1.456298e-160
1.6462027e-160
1.565494e-160
1.3867102e-160
7.389838e-161
5.3916606e-161
1.8632688e-160
-2.5147101e-160
-9.6584406e-159
4.391611e-155
-5.890961e-11
3.8927382e-24
-6.4754914e-37
1.2722037e-48
3.3444529e-60
2.3628353e-71
1.7517441e-81
-5.4051028e-91
5.6566069e-100
1.6091613e-107
1.5153434e-115
1.7994885e-123
2.4069111e-131
3.3971465e-139
5.1002409e-147
8.0123937e-155
1.3106789e-162
5.29295e-169
6.8511261e-169
7.2596762e-169
8.6028186e-169
9.309992e-169
1.0437865e-168
1.1475518e-168
1.1903583e-168
1.4854737e-168
1.5080166e-168
1.8831544e-168
1.6274677e-168
2.0351375e-168
2.1219937e-168
2.213661e-168
1.9354384e-168
1.5509621e-168
7.3022375e-169
4.8172734e-169
1.8310639e-168
-1.2476263e-167
8.553024e-167
-6.7116921e-163
-5.8819579e-11
3.8958906e-24
-6.3937134e-37
7.6249892e-49
4.4281714e-60
5.0837554e-71
4.833216e-81
-3.3595146e-90
5.2897844e-99
-5.2649879e-107
1.131101e-114
-2.0438166e-122
3.4243916e-130
-5.6025609e-138
9.0761076e-146
-1.4199878e-153
2.1881926e-161
-3.3956691e-169
-5.29813e-177
-1.1017205e-176
-1.2985632e-176
-1.4172754e-176
-1.6001197e-176
-1.7402851e-176
-1.8090871e-176
-2.2555441e-176
-2.3434334e-176
-2.9186691e-176
-2.5927611e-176
-3.2668009e-176
-3.4982098e-176
-3.7595755e-176
-3.4644936e-176
-2.9403232e-176
-1.510204e-176
-1.0497401e-176
-3.0847375e-176
1.1471529e-175
-5.7771732e-175
1.0560278e-170
-5.8831489e-11
3.9011339e-24
-6.393677e-37
6.2587237e-49
1.4041921e-59
2.7274474e-70
3.5256976e-80
-7.3422416e-89
1.8659142e-97
-1.3968931e-105
1.4201364e-113
-1.4230933e-121
1.414118e-129
-1.4021588e-137
1.3994224e-145
-1.4026561e-153
1.4067956e-161
-1.4224112e-169
1.431576e-177
9.7042302e-185
1.3179819e-184
1.4215426e-184
1.6248517e-184
1.7633855e-184
1.8415393e-184
2.2841977e-184
2.3612243e-184
2.9302003e-184
2.5954375e-184
3.2598974e-184
3.5124906e-184
3.730662e-184
3.46855e-184
2.9340751e-184
1.5044096e-184
1.0232595e-184
2.6451465e-184
-7.7999857e-184
4.1209145e-183
-1.7676901e-178
-5.8885151e-11
3.9135497e-24
-6.4581946e-37
5.8696786e-49
-2.5250641e-59
-8.2032192e-70
-1.4654926e-79
2.3250331e-87
-1.007266e-95
8.961894e-104
-9.8452651e-112
1.0999355e-119
-1.225445e-127
1.3825538e-135
-1.5759941e-143
1.8038786e-151
-2.0843299e-159
2.4150159e-167
-2.8159929e-175
3.285452e-183
-3.9773104e-191
-1.6698263e-192
-1.8983565e-192
-2.059875e-192
-2.1208597e-192
-2.6328807e-192
-2.7151673e-192
-3.3279261e-192
-2.9354739e-192
-3.6790963e-192
-3.8909734e-192
-4.1303105e-192
-3.8003699e-192
-3.1512601e-192
-1.5953983e-192
-1.0301992e-192
-2.3514468e-192
5.7609544e-192
-3.4165643e-191
3.1399062e-186
-5.8942083e-11
3.9299192e-24
-6.5485214e-37
5.8312161e-49
-1.0499581e-59
-5.3368602e-70
-1.2820904e-79
-1.6328926e-87
1.2084969e-95
-1.521202e-103
2.2826232e-111
-3.5089998e-119
5.4284276e-127
-8.4667177e-135
1.3485024e-142
-2.1409818e-150
3.4099948e-158
-5.4608921e-166
8.831183e-174
-1.4401969e-181
2.3382585e-189
-3.7556248e-197
3.0567576e-200
3.3068212e-200
3.3859642e-200
4.2285868e-200
4.2797869e-200
5.224568e-200
4.5706805e-200
5.6423894e-200
5.9321755e-200
6.1285094e-200
5.579393e-200
4.5851299e-200
2.2420413e-200
1.3661616e-200
2.6663846e-200
-5.1980228e-200
3.2251647e-199
-5.9392727e-194
-5.898721e-11
3.9461866e-24
-6.6349647e-37
5.8997945e-49
-8.3440069e-60
-6.0574217e-70
-1.8507689e-79
-1.6768489e-87
1.9587244e-95
-3.6228598e-103
7.8481372e-111
-1.7078463e-118
3.7282657e-126
-8.196333e-134
1.8146889e-141
-4.0198795e-149
9.023018e-157
-2.0233331e-164
4.5750701e-172
-1.0260597e-179
2.2933661e-187
-5.1443551e-195
1.1470604e-202
-7.3942875e-208
-7.5409421e-208
-9.3071153e-208
-9.2303871e-208
-1.1413362e-207
-9.6621918e-208
-1.1937161e-207
-1.2395096e-207
-1.2596663e-207
-1.1235256e-207
-9.0219137e-208
-4.3462837e-208
-2.4739533e-208
-3.89043e-208
5.5947131e-208
-3.251796e-207
1.1390524e-201
-5.9019629e-11
3.9601771e-24
-6.7049446e-37
5.9719957e-49
-7.5324069e-60
-7.3032777e-70
-2.677649e-79
-2.4209202e-87
3.8223522e-95
-9.0327126e-103
2.4034925e-110
-6.5040964e-118
1.7538321e-125
-4.7513263e-133
1.2793765e-140
-3.4802849e-148
9.4795769e-156
-2.5939099e-163
7.0656557e-171
-1.9143586e-178
5.1940626e-186
-1.3911004e-193
3.7351678e-201
-1.0110121e-208
2.2578767e-215
2.4714483e-215
2.3987827e-215
2.9647378e-215
2.4894909e-215
3.0550497e-215
3.1784299e-215
3.1417875e-215
2.7649022e-215
2.189598e-215
1.0395357e-215
5.3770304e-216
6.7774127e-216
-6.5517371e-216
3.3770296e-215
-2.2243128e-209
-5.9043258e-11
3.9714846e-24
-6.7582176e-37
6.0181037e-49
-7.0122731e-60
-8.8900464e-70
-3.7509078e-79
-3.5054111e-87
6.506252e-95
-1.7038845e-102
4.809596e-110
-1.3799955e-117
4.0597881e-125
-1.1574426e-132
3.3874137e-140
-9.6950736e-148
2.7879923e-155
-8.103851e-163
2.3174402e-170
-6.6441118e-178
1.8849387e-185
-5.3461276e-193
1.4891062e-200
-4.2273216e-208
1.1656622e-215
-1.004824e-222
-6.6807093e-223
-8.1736918e-223
-6.6117329e-223
-8.1781151e-223
-8.5643742e-223
-8.3395758e-223
-7.2166395e-223
-5.6310947e-223
-2.6610365e-223
-1.2632802e-223
-1.2310403e-223
7.9213852e-224
-3.5498976e-223
4.4387138e-217
-5.9061791e-11
3.9805457e-24
-6.7992307e-37
6.0420244e-49
-6.5942536e-60
-1.1104021e-69
-5.2721363e-79
-4.8738238e-87
9.9030824e-95
-2.6380778e-102
7.5184818e-110
-2.1330163e-117
6.1360688e-125
-1.7217005e-132
4.8961379e-140
-1.406433e-147
3.9741868e-155
-1.1333617e-162
3.2287248e-170
-9.1199562e-178
2.5492636e-185
-7.1291193e-193
1.9683065e-200
-5.4018226e-208
1.4999233e-215
-4.1016979e-223
2.8887598e-230
2.1930423e-230
1.775172e-230
2.2121293e-230
2.2714933e-230
2.2307981e-230
1.8865222e-230
1.4550567e-230
6.85231e-231
2.9862675e-231
2.2638134e-231
-9.581094e-232
3.8249058e-231
-9.0941481e-225
-5.9077302e-11
3.9879354e-24
-6.83225e-37
6.0550327e-49
-6.2570584e-60
-1.4571643e-69
-7.6957747e-79
-7.0478507e-87
1.564623e-94
-4.140087e-102
1.1717902e-109
-3.2718133e-117
9.1244735e-125
-2.5693437e-132
7.2787763e-140
-2.0395933e-147
5.7727257e-155
-1.605062e-162
4.4629626e-170
-1.2314045e-177
3.3650865e-185
-9.2959717e-193
2.5503547e-200
-6.9093065e-208
1.842447e-215
-4.9910963e-223
1.3232934e-230
-9.454124e-238
-4.6450966e-238
-5.8017175e-238
-6.0202888e-238
-5.8542827e-238
-4.8660366e-238
-3.7953741e-238
-1.7539455e-238
-6.9691405e-239
-4.1277701e-239
1.1636975e-239
-4.2832514e-239
1.8870421e-232
-5.9090653e-11
3.9940883e-24
-6.8598993e-37
6.0648585e-49
-5.9967034e-60
-2.0563481e-69
-1.1989574e-78
-1.0835138e-86
2.5580412e-94
-6.8447018e-102
1.9178317e-109
-5.4680883e-117
1.5444607e-124
-4.412754e-132
1.2290407e-139
-3.4629272e-147
9.8209673e-155
-2.7617302e-162
7.5663599e-170
-2.0839014e-177
5.7635669e-185
-1.605744e-192
4.3258246e-200
-1.1983552e-207
3.2202599e-215
-8.8264075e-223
2.3769767e-230
-6.3300514e-238
2.9148271e-245
1.5660028e-245
1.5958897e-245
1.5387791e-245
1.2693036e-245
9.903611e-246
4.4552008e-246
1.6400312e-246
7.6328723e-247
-1.4182754e-247
5.1452137e-247
-4.0410319e-240
-5.9102155e-11
3.9992792e-24
-6.8834873e-37
6.0744519e-49
-5.8013274e-60
-3.2610144e-69
-2.0835891e-78
-1.8912407e-86
4.901952e-94
-1.3386881e-101
3.8265306e-109
-1.0826674e-116
3.1249743e-124
-8.9415904e-132
2.5864616e-139
-7.3757922e-147
2.1242319e-154
-5.9437776e-162
1.6805419e-169
-4.6690814e-177
1.2986983e-184
-3.6496765e-192
1.0264107e-199
-2.7928214e-207
7.6247545e-215
-2.0999953e-222
5.7670958e-230
-1.5588923e-237
4.1797576e-245
-1.5484494e-252
-4.2784022e-253
-4.0255837e-253
-3.4172112e-253
-2.6090464e-253
-1.1512184e-253
-3.9169684e-254
-1.4191023e-254
1.7511224e-255
-6.9709593e-255
8.7066032e-248
-5.9112006e-11
4.003683e-24
-6.9036768e-37
6.0841337e-49
-5.6549751e-60
-6.6529504e-69
-4.6230215e-78
-4.1913619e-86
1.1588505e-93
-3.2725132e-101
9.6209161e-109
-2.8226216e-116
8.2469282e-124
-2.3769395e-131
7.0377116e-139
-2.0560405e-146
5.9429983e-154
-1.7373651e-161
5.1019767e-169
-1.4762253e-176
4.1872885e-184
-1.1760756e-191
3.3225293e-199
-9.3495581e-207
2.6216693e-214
-7.35146e-222
2.0353285e-229
-5.6522741e-237
1.5825407e-244
-4.4067462e-252
1.3186108e-259
1.1138447e-260
9.1269133e-261
7.1165731e-261
3.0586554e-261
9.5119118e-262
2.6980528e-262
-2.1821266e-263
1.0750834e-262
-1.923306e-255
-5.9120393e-11
4.0074272e-24
-6.9209284e-37
6.0934249e-49
-5.5435679e-60
-6.0645219e-68
-4.5411484e-77
-4.1631493e-85
1.2733173e-92
-3.6595533e-100
1.078851e-107
-3.2807014e-115
9.8065359e-123
-2.9085658e-130
8.6575054e-138
-2.5630078e-145
7.6861412e-153
-2.2631708e-160
6.6459363e-168
-1.9455202e-175
5.6392643e-183
-1.637991e-190
4.7522543e-198
-1.3620929e-205
3.9192735e-213
-1.1310345e-220
3.2210881e-228
-9.1921885e-236
2.5994046e-243
-7.3154829e-251
2.0248537e-258
-5.6489742e-266
-2.5145724e-268
-1.9647035e-268
-8.3277312e-269
-2.4000393e-269
-5.248645e-270
2.7574998e-271
-1.914219e-270
4.3142465e-263
-5.9127534e-11
4.0106145e-24
-6.9356522e-37
6.1019308e-49
-5.4567533e-60
1.0243024e-68
8.2063141e-78
7.623721e-86
-2.4197351e-93
7.2282666e-101
-2.206739e-108
6.6831514e-116
-2.0744031e-123
6.2309971e-131
-1.884152e-138
5.7690653e-146
-1.7392617e-153
5.1820928e-161
-1.5509153e-168
4.6777152e-176
-1.3849754e-183
4.1947287e-191
-1.2450881e-198
3.679713e-206
-1.0801396e-213
3.1261235e-221
-9.2619188e-229
2.6876282e-236
-7.7214212e-244
2.2331717e-251
-6.4396891e-259
1.8703919e-266
-5.2353488e-274
5.5868186e-276
2.326909e-276
6.1727603e-277
1.035704e-277
-3.5204587e-279
3.8147705e-278
-9.9722781e-271
-5.9133615e-11
4.0133325e-24
-6.9482279e-37
6.1095204e-49
-5.3876251e-60
5.1312335e-69
4.3650269e-78
4.0735517e-86
-1.3741038e-93
4.3150595e-101
-1.3607165e-108
4.255841e-116
-1.355839e-123
4.201403e-131
-1.3115439e-138
4.035531e-146
-1.25753e-153
3.9231336e-161
-1.2062554e-168
3.6445675e-176
-1.101068e-183
3.3442962e-191
-1.0002977e-198
3.012479e-206
-9.0843127e-214
2.6841167e-221
-8.0110722e-229
2.388103e-236
-6.9528957e-244
2.0492776e-251
-6.1370369e-259
1.7847307e-266
-5.1289811e-274
1.4582439e-281
-6.5782589e-284
-1.6211339e-284
-2.0976482e-285
4.542604e-287
-8.3430499e-286
2.337801e-278
-5.9138809e-11
4.0156554e-24
-6.9589955e-37
6.1162146e-49
-5.3317032e-60
3.5945834e-69
3.2285414e-78
3.0386356e-86
-1.0831271e-93
3.5324101e-101
-1.1295122e-108
3.6592387e-116
-1.1972665e-123
3.7895391e-131
-1.2222762e-138
3.8860708e-146
-1.2189676e-153
3.835489e-161
-1.2084393e-168
3.7304368e-176
-1.1713759e-183
3.5938624e-191
-1.12474e-198
3.4902627e-206
-1.0472574e-213
3.1989033e-221
-9.8258225e-229
2.9713013e-236
-8.9261229e-244
2.7312277e-251
-8.1239449e-259
2.41589e-266
-7.2307704e-274
2.1522068e-281
-6.2212765e-289
4.3191011e-292
4.2508442e-293
-5.9433133e-295
1.9362135e-293
-5.662258e-286
-5.9143249e-11
4.0176449e-24
-6.9682397e-37
6.1221072e-49
-5.2858961e-60
2.859926e-69
2.6916973e-78
2.5818048e-86
-9.6883715e-94
3.1402082e-101
-1.0329974e-108
3.4640671e-116
-1.1191685e-123
3.6471933e-131
-1.2060773e-138
3.9108796e-146
-1.2638728e-153
4.067063e-161
-1.2927224e-168
4.130311e-176
-1.3014616e-183
4.1636368e-191
-1.3376205e-198
4.2004462e-206
-1.317841e-213
4.0485408e-221
-1.2670569e-228
3.9108176e-236
-1.1980726e-243
3.7052041e-251
-1.1312046e-258
3.4624691e-266
-1.0418621e-273
3.1592378e-281
-9.4838192e-289
2.6154188e-296
-8.7221154e-301
7.8576651e-303
-4.6424369e-301
1.3599247e-293
-5.9147054e-11
4.0193533e-24
-6.9761945e-37
6.1273004e-49
-5.2480908e-60
2.4338287e-69
2.3908133e-78
2.3175735e-86
-9.0288719e-94
3.0214521e-101
-1.0203229e-108
3.4412811e-116
-1.1419922e-123
3.7994744e-131
-1.2573526e-138
4.2053695e-146
-1.3852543e-153
4.6239281e-161
-1.5318508e-168
4.9612085e-176
-1.5990907e-183
5.1591095e-191
-1.6788985e-198
5.4218464e-206
-1.7097984e-213
5.4487095e-221
-1.7126373e-228
5.4713897e-236
-1.7139859e-243
5.3667805e-251
-1.6706458e-258
5.2791831e-266
-1.6383161e-273
5.0289736e-281
-1.551667e-288
4.3662423e-296
-9.2208317e-304
-9.1829141e-311
1.1601966e-308
-3.4045275e-301
-5.9150319e-11
4.0208234e-24
-6.9830575e-37
6.1318861e-49
-5.2166905e-60
2.1564364e-69
2.2002782e-78
2.1330849e-86
-8.7584606e-94
3.0614856e-101
-1.0875106e-108
3.7368233e-116
-1.3032232e-123
4.4581944e-131
-1.5291814e-138
5.2402215e-146
-1.7182073e-153
5.8396124e-161
-1.968205e-168
6.6705332e-176
-2.1965342e-183
7.3143586e-191
-2.4516914e-198
7.8873385e-206
-2.5475973e-213
8.3464019e-221
-2.672498e-228
8.6638766e-236
-2.7671608e-243
8.8348901e-251
-2.8489296e-258
9.117856e-266
-2.8941283e-273
9.1592651e-281
-2.8370337e-288
8.1253106e-296
-1.7295321e-303
2.300486e-311
1.2752968e-313
8.4834719e-309
-5.9153117e-11
4.0220904e-24
-6.9889904e-37
6.1359332e-49
-5.1904155e-60
1.9638932e-69
2.0711625e-78
2.0128325e-86
-8.7182861e-94
3.0393776e-101
-1.0966979e-108
3.884987e-116
-1.3924841e-123
4.9345357e-131
-1.7325204e-138
6.0000571e-146
-2.0620027e-153
7.1032219e-161
-2.4310766e-168
8.3739682e-176
-2.8256271e-183
9.6889598e-191
-3.2665612e-198
1.1124475e-205
-3.7222643e-213
1.2462086e-220
-4.104073e-228
1.341558e-235
-4.3969989e-243
1.4343537e-250
-4.7425856e-258
1.5546363e-265
-5.0710041e-273
1.6639667e-280
-5.2933293e-288
1.5160621e-295
-3.2961406e-303
4.4079053e-311
-1.5541858e-313
-6.1855427e-313
-5.9155527e-11
4.0231849e-24
-6.9941289e-37
6.1395043e-49
-5.1683466e-60
1.8239951e-69
1.9804545e-78
1.9311148e-86
-8.6729732e-94
3.1251618e-101
-1.1562199e-108
4.2353542e-116
-1.5294032e-123
5.4926803e-131
-1.9831597e-138
7.0738389e-146
-2.4393422e-153
8.5627718e-161
-3.0150372e-168
1.046394e-175
-3.735521e-183
1.2620357e-190
-4.3518208e-198
1.4910669e-205
-5.0832139e-213
1.733613e-220
-5.8855281e-228
1.9576961e-235
-6.6746595e-243
2.2647689e-250
-7.6136625e-258
2.5433707e-265
-8.3604109e-273
2.7793e-280
-9.0734917e-288
2.6846245e-295
-5.9436188e-303
8.1951563e-311
-2.0588492e-313
-3.1531024e-313
-5.9157595e-11
4.0241322e-24
-6.9985903e-37
6.142661e-49
-5.1497495e-60
1.7176132e-69
1.915068e-78
1.8867807e-86
-8.7429676e-94
3.2529749e-101
-1.2304098e-108
4.624508e-116
-1.7512137e-123
6.3994154e-131
-2.3807965e-138
8.5581936e-146
-3.1081218e-153
1.136402e-160
-4.0686708e-168
1.4617101e-175
-5.2179939e-183
1.8842703e-190
-6.6305723e-198
2.294885e-205
-8.2419284e-213
2.8309475e-220
-9.854631e-228
3.4307355e-235
-1.1849687e-242
4.0480455e-250
-1.3899662e-257
4.8139299e-265
-1.6307449e-272
5.5710098e-280
-1.8568247e-287
5.6224143e-295
-1.2561782e-302
1.7470516e-310
4.8189611e-314
-4.3205162e-313
-5.9159373e-11
4.0249531e-24
-7.0024707e-37
6.1454567e-49
-5.1339319e-60
1.6357567e-69
1.8655833e-78
1.8428705e-86
-9.1803003e-94
3.5525301e-101
-1.3917002e-108
5.4487653e-116
-2.1235344e-123
8.0555988e-131
-3.0450786e-138
1.134727e-145
-4.2243077e-153
1.5617835e-160
-5.7550641e-168
2.1075444e-175
-7.6033866e-183
2.7679602e-190
-9.9788204e-198
3.6423778e-205
-1.3317458e-212
4.7986286e-220
-1.6959559e-227
6.0461612e-235
-2.1308729e-242
7.6513542e-250
-2.7317651e-257
9.4816584e-265
-3.3290175e-272
1.1506323e-279
-3.9090419e-287
1.2139648e-294
-2.7680551e-302
3.8761768e-310
1.1755769e-313
3.9756903e-313
-5.91609e-11
4.0256657e-24
-7.0058508e-37
6.1479276e-49
-5.1204496e-60
1.5703735e-69
1.8266104e-78
1.7920166e-86
-9.1012625e-94
3.6168648e-101
-1.4419236e-108
5.7334682e-116
-2.303712e-123
9.1768695e-131
-3.5448781e-138
1.3357441e-145
-5.123654e-153
1.9528127e-160
-7.4485494e-168
2.7729338e-175
-1.0359004e-182
3.8494403e-190
-1.4792601e-197
5.4534511e-205
-2.0469062e-212
7.6068192e-220
-2.7541828e-227
9.9365387e-235
-3.5706467e-242
1.2870118e-249
-4.558738e-257
1.6328234e-264
-5.7618287e-272
2.0507224e-279
-6.9994262e-287
2.237579e-294
-5.2000534e-302
7.3518303e-310
7.1045827e-314
5.3805427e-313
-5.9162213e-11
4.0262855e-24
-7.0088031e-37
6.1501226e-49
-5.1089785e-60
1.5176536e-69
1.7969438e-78
1.7753214e-86
-9.4288569e-94
3.8564468e-101
-1.5686896e-108
6.4432793e-116
-2.5463205e-123
9.9728077e-131
-3.8933081e-138
1.5447375e-145
-6.199554e-153
2.4464775e-160
-9.4724489e-168
3.6559999e-175
-1.3735597e-182
5.2016202e-190
-1.9542994e-197
7.2701128e-205
-2.7267694e-212
1.0322139e-219
-3.8170142e-227
1.4338078e-234
-5.2733651e-242
1.9372192e-249
-7.0904127e-257
2.5943393e-264
-9.6351589e-272
3.4906257e-279
-1.2506754e-286
3.9890817e-294
-9.4527609e-302
1.3547126e-309
2.7100406e-313
5.1916224e-313
-5.916333e-11
4.0268243e-24
-7.0113832e-37
6.1520697e-49
-5.0991335e-60
1.4745847e-69
1.7743011e-78
1.75429e-86
-9.5997205e-94
4.0595654e-101
-1.7055856e-108
7.1458898e-116
-3.0026428e-123
1.2462892e-130
-5.0055774e-138
2.0622606e-145
-8.4281796e-153
3.329383e-160
-1.3245154e-167
5.2950356e-175
-2.0949781e-182
8.3010776e-190
-3.2546407e-197
1.2350188e-204
-4.7934661e-212
1.815762e-219
-7.004381e-227
2.6835328e-234
-1.047318e-241
4.0049157e-249
-1.5395099e-256
5.8288847e-264
-2.2419987e-271
8.4337088e-279
-3.104303e-286
1.0191233e-293
-2.4288624e-301
3.5280388e-309
1.3505912e-313
5.743235e-313
-5.9164288e-11
4.0272937e-24
-7.0136437e-37
6.1538045e-49
-5.0906669e-60
1.4390301e-69
1.7553535e-78
1.7297313e-86
-1.0504366e-93
4.6337188e-101
-1.9715198e-108
8.5200948e-116
-3.6862105e-123
1.5562849e-130
-6.4622924e-138
2.6376506e-145
-1.0874442e-152
4.4902918e-160
-1.8461488e-167
7.4957897e-175
-3.0099563e-182
1.2206334e-189
-4.9445288e-197
1.9424616e-204
-7.5858695e-212
3.0065454e-219
-1.1792329e-226
4.6042002e-234
-1.8048679e-241
7.1733814e-249
-2.7552747e-256
1.065014e-263
-4.0287302e-271
1.5751172e-278
-5.7542027e-286
1.9116063e-293
-4.6474969e-301
6.7748828e-309
-2.4308975e-313
5.6210152e-313
-5.9165097e-11
4.0277027e-24
-7.0156264e-37
6.1553506e-49
-5.0833547e-60
1.4094661e-69
1.7413474e-78
1.7059521e-86
-1.03647e-93
4.6887932e-101
-2.0995889e-108
9.2323135e-116
-4.0409014e-123
1.7928842e-130
-7.6945289e-138
3.3877351e-145
-1.4512748e-152
6.1901177e-160
-2.6206954e-167
1.1131325e-174
-4.5721711e-182
1.8860021e-189
-7.7081681e-197
3.166578e-204
-1.2942892e-211
5.3576066e-219
-2.1534675e-226
8.9001633e-234
-3.5788405e-241
1.4353864e-248
-5.6917788e-256
2.2256131e-263
-8.72856e-271
3.4551032e-278
-1.3272842e-285
4.5467925e-293
-1.1189503e-300
1.6381173e-308
-2.5752609e-313
4.913333e-313
-5.9165775e-11
4.028059e-24