/*--------------------------------*- C++ -*----------------------------------*\
  =========                 |
  \\      /  F ield         | OpenFOAM: The Open Source CFD Toolbox
   \\    /   O peration     | Website:  https://openfoam.org
    \\  /    A nd           | Version:  10
     \\/     M anipulation  |
\*---------------------------------------------------------------------------*/
FoamFile
{
    format      ascii;
    class       volScalarField;
    location    "0.03";
    object      TporMedia_0;
}
// * * * * * * * * * * * * * * * * * * * * * * * * * * * * * * * * * * * * * //

dimensions      [0 0 0 1 0 0 0];

internalField   nonuniform List<scalar> 
4000
(
-7.6556702e-08
3.7309481e-08
-2.0304975e-06
-4.6059562e-06
-1.4325179e-05
-1.0121455e-05
-9.8485948e-06
-9.7346777e-06
-9.6109632e-06
-9.4688312e-06
-9.4619008e-06
-9.4140621e-06
-9.2681268e-06
-9.240346e-06
-9.2699263e-06
-9.1838748e-06
-9.1979004e-06
-9.1570752e-06
-9.2326844e-06
-9.1684106e-06
-9.1782933e-06
-9.1986739e-06
-9.1930589e-06
-9.1405198e-06
-9.1490705e-06
-9.1559586e-06
-9.1934302e-06
-9.2704809e-06
-9.2912719e-06
-9.323578e-06
-9.3824111e-06
-9.5231024e-06
-9.610133e-06
-9.8318842e-06
-9.9142881e-06
-1.023868e-05
-1.0550181e-05
-1.0852549e-05
-1.1262505e-05
-1.1836702e-05
-5.1728392e-09
6.1357032e-19
-1.255104e-16
9.7768154e-15
7.9688344e-14
1.8247347e-13
1.5811636e-13
1.5334831e-13
1.4849623e-13
1.4672378e-13
1.4471359e-13
1.4305508e-13
1.419381e-13
1.392595e-13
1.3960458e-13
1.3686397e-13
1.3732301e-13
1.3708591e-13
1.3814922e-13
1.3738052e-13
1.3713841e-13
1.3795109e-13
1.3609391e-13
1.3555219e-13
1.3622053e-13
1.3602518e-13
1.3791448e-13
1.3794627e-13
1.4040286e-13
1.4198761e-13
1.4354105e-13
1.4705744e-13
1.4974816e-13
1.5700149e-13
1.5996917e-13
1.7250908e-13
1.8099713e-13
1.9103863e-13
2.0675215e-13
2.2829887e-13
-2.0594396e-09
-5.7545121e-20
-2.0777767e-27
2.768952e-24
-8.0802671e-23
-1.4410405e-21
-2.6720746e-21
-2.3796415e-21
-2.2790025e-21
-2.2204813e-21
-2.1762716e-21
-2.1417652e-21
-2.099877e-21
-2.0710581e-21
-2.0536576e-21
-2.0174821e-21
-2.0186183e-21
-2.011873e-21
-2.015799e-21
-2.0108272e-21
-2.0066546e-21
-2.0267882e-21
-1.9873741e-21
-1.9719201e-21
-2.0007052e-21
-1.9963921e-21
-2.0090343e-21
-2.0310043e-21
-2.0662728e-21
-2.0914187e-21
-2.1463683e-21
-2.203784e-21
-2.2723215e-21
-2.4428058e-21
-2.5301815e-21
-2.7724028e-21
-3.024093e-21
-3.2923154e-21
-3.7512017e-21
-4.2565925e-21
-1.0643868e-09
9.8667064e-21
8.1332631e-32
1.290939e-34
4.251284e-32
2.8318198e-30
4.2327017e-29
3.6636198e-29
3.2995746e-29
3.1906683e-29
3.1108149e-29
3.0374116e-29
2.9422062e-29
2.8928008e-29
2.8850622e-29
2.8179141e-29
2.8246238e-29
2.8248772e-29
2.813385e-29
2.7894409e-29
2.7946786e-29
2.8090747e-29
2.7537468e-29
2.7236607e-29
2.7704536e-29
2.7802304e-29
2.8120712e-29
2.8581599e-29
2.8837251e-29
2.9204735e-29
3.0538241e-29
3.1496371e-29
3.2581912e-29
3.5728744e-29
3.7815953e-29
4.2451596e-29
4.8640238e-29
5.4720469e-29
6.5247452e-29
7.1463677e-29
-6.2224557e-10
1.365654e-21
8.276227e-33
1.3111955e-43
1.7294691e-40
-1.9871338e-39
-2.8750905e-37
-5.3029352e-37
-4.1367769e-37
-3.9505553e-37
-3.8405742e-37
-3.767041e-37
-3.61831e-37
-3.5239411e-37
-3.541382e-37
-3.4399478e-37
-3.4610947e-37
-3.4394496e-37
-3.4253708e-37
-3.4070392e-37
-3.4040437e-37
-3.416043e-37
-3.3503048e-37
-3.3222738e-37
-3.3611352e-37
-3.4100905e-37
-3.4148974e-37
-3.5072231e-37
-3.5243512e-37
-3.5763164e-37
-3.7718262e-37
-3.904641e-37
-4.0961979e-37
-4.5588913e-37
-4.9137643e-37
-5.6401669e-37
-6.7431401e-37
-7.9847585e-37
-1.0399173e-36
-1.4093225e-36
-4.0003682e-10
3.8487845e-22
2.4644821e-33
1.7573816e-44
1.5669648e-50
6.8033529e-49
5.9064382e-46
7.0673222e-45
5.0310909e-45
4.5933944e-45
4.4474186e-45
4.3464452e-45
4.1651909e-45
4.066e-45
4.0594441e-45
3.9332219e-45
3.9812943e-45
3.9877339e-45
3.9227338e-45
3.9287154e-45
3.9083799e-45
3.9447177e-45
3.8630501e-45
3.8326137e-45
3.8626204e-45
3.9223871e-45
3.9147443e-45
4.0290077e-45
4.0586331e-45
4.1127258e-45
4.3715682e-45
4.5260231e-45
4.7526704e-45
5.3834165e-45
5.8388699e-45
6.7751098e-45
8.3088681e-45
1.026596e-44
1.6091094e-44
4.3215134e-44
-2.344182e-10
1.2091911e-22
1.6146418e-33
6.3506001e-45
1.7450845e-55
-1.4483891e-58
-4.5040771e-55
-9.2125468e-53
-1.0946341e-52
-7.9865382e-53
-7.5212e-53
-7.3629465e-53
-7.1088987e-53
-6.9064424e-53
-7.0020314e-53
-6.7737279e-53
-6.8054834e-53
-6.8335239e-53
-6.6637727e-53
-6.6575545e-53
-6.6064613e-53
-6.6046879e-53
-6.5324701e-53
-6.4245269e-53
-6.4537744e-53
-6.5554321e-53
-6.4414561e-53
-6.5895301e-53
-6.5902916e-53
-6.6657528e-53
-7.0368996e-53
-7.2813786e-53
-7.6725092e-53
-8.6359239e-53
-9.2841936e-53
-1.0701251e-52
-1.2608337e-52
-1.487913e-52
-2.5374483e-52
-4.4800827e-52
-1.2134153e-10
3.5079845e-23
-2.5768712e-34
-6.5671095e-46
-8.2795723e-57
1.5840961e-66
1.7111752e-64
8.245568e-61
-4.1482199e-60
-1.0374207e-57
2.7572078e-59
2.1820475e-59
2.3119809e-59
2.2431072e-59
2.0329702e-59
1.810468e-59
1.7189229e-59
1.4954504e-59
1.3759457e-59
1.3512238e-59
1.2142059e-59
1.1672312e-59
9.6405073e-60
8.5764104e-60
8.4917664e-60
7.978706e-60
7.3157019e-60
6.5767107e-60
6.5753711e-60
6.0110324e-60
6.0712877e-60
6.0898853e-60
5.8713324e-60
6.4403062e-60
6.7322863e-60
7.4422612e-60
7.6961929e-60
5.5146013e-60
3.9312487e-60
1.7841555e-60
-6.9071625e-11
1.1501699e-23
-1.794792e-35
-3.5522347e-47
-2.5875028e-58
1.7062427e-67
-4.4341134e-74
-2.986766e-69
-1.0567379e-67
-3.0814607e-64
-1.0094383e-65
-6.1785564e-66
-4.1372237e-66
-3.52762e-66
-2.948451e-66
-2.5310093e-66
-2.1288933e-66
-1.6330712e-66
-1.4455331e-66
-1.4280518e-66
-1.0943826e-66
-1.1446904e-66
-8.1231801e-67
-7.2569693e-67
-6.3994579e-67
-5.9543482e-67
-5.1465501e-67
-4.4393078e-67
-4.4114635e-67
-4.0365081e-67
-4.0494199e-67
-4.1934857e-67
-4.3625382e-67
-6.0157017e-67
-8.6274888e-67
-8.6221547e-66
7.0422155e-67
9.5338479e-66
-4.3095092e-68
-5.7524987e-69
-4.8251397e-11
4.9779801e-24
-3.0450012e-36
-5.6954016e-48
-2.7426212e-59
-2.4992746e-69
6.2197708e-79
4.4030229e-78
7.2497189e-76
1.9768711e-72
6.1637461e-74
3.7277421e-74
2.4583021e-74
2.0776552e-74
1.7328724e-74
1.4770447e-74
1.2370402e-74
9.4991223e-75
8.4013778e-75
8.2739332e-75
6.3549234e-75
6.6291326e-75
4.7130557e-75
4.2012902e-75
3.7080525e-75
3.4531309e-75
2.9895135e-75
2.5995311e-75
2.5871839e-75
2.4055358e-75
2.425916e-75
2.5676048e-75
2.7421733e-75
3.966414e-75
6.0886504e-75
7.0940805e-74
-7.9805017e-75
-1.1626463e-73
2.3217294e-76
3.9694698e-77
-4.0930394e-11
2.9037302e-24
-9.2894788e-37
-1.9032053e-48
-6.2636438e-60
-1.7282265e-70
6.185913e-80
-3.1174824e-87
-1.3190799e-84
-4.2298315e-81
-1.3138887e-82
-7.9127917e-83
-5.2086361e-83
-4.4001122e-83
-3.6729834e-83
-3.1316887e-83
-2.626273e-83
-2.0199343e-83
-1.7921268e-83
-1.7710024e-83
-1.3612948e-83
-1.4249257e-83
-1.0154843e-83
-9.083424e-84
-8.03499e-84
-7.5006143e-84
-6.5241253e-84
-5.6887576e-84
-5.6956665e-84
-5.3247638e-84
-5.4125219e-84
-5.7910149e-84
-6.2689109e-84
-9.2513836e-84
-1.4666948e-83
-1.810558e-82
2.2993109e-83
3.6201025e-82
-6.678637e-85
3.3262302e-85
-4.0127717e-11
2.1932978e-24
-4.5753346e-37
-9.6776478e-49
-2.0969054e-60
-2.6737915e-71
2.0884463e-80
-7.4670938e-90
1.2945301e-93
5.7551379e-90
1.8151393e-91
1.0922615e-91
7.2164904e-92
6.1240945e-92
5.1309201e-92
4.3960325e-92
3.7017106e-92
2.8580004e-92
2.5477776e-92
2.5277017e-92
1.9483598e-92
2.0484839e-92
1.4643205e-92
1.3141163e-92
1.165294e-92
1.0912281e-92
9.5274025e-93
8.3320667e-93
8.360683e-93
7.8344523e-93
7.9780178e-93
8.5557727e-93
9.2982495e-93
1.3781232e-92
2.2005189e-92
2.753651e-91
-3.6118622e-92
-6.0446107e-91
1.4432161e-93
1.1783828e-93
-4.2923291e-11
2.0217571e-24
-3.3046612e-37
-5.345489e-49
-7.535517e-61
-5.3768053e-72
5.7631454e-81
-1.1232496e-90
8.2679815e-100
-8.1417805e-99
-2.6225591e-100
-1.5762461e-100
-1.0516629e-100
-9.0128633e-101
-7.6250118e-101
-6.5894382e-101
-5.5884199e-101
-4.3461307e-101
-3.8964074e-101
-3.887521e-101
-3.0117662e-101
-3.1810502e-101
-2.2830081e-101
-2.055561e-101
-1.8278008e-101
-1.7145584e-101
-1.4991246e-101
-1.3101482e-101
-1.3136188e-101
-1.2268639e-101
-1.2445054e-101
-1.3258663e-101
-1.4277175e-101
-2.089648e-101
-3.2773441e-101
-3.988075e-100
5.0373597e-101
8.8573541e-100
-3.8307541e-102
4.1614547e-102
-4.7404262e-11
2.1311062e-24
-3.1763409e-37
-3.3634086e-49
-3.2983182e-61
-1.5274742e-72
8.7964846e-82
-1.0488904e-91
7.0014282e-101
2.6657955e-107
8.7454754e-109
5.0648866e-109
3.4749724e-109
3.0666805e-109
2.6544025e-109
2.3387567e-109
2.0201882e-109
1.5929345e-109
1.4469578e-109
1.4594188e-109
1.1400803e-109
1.2151764e-109
8.7705514e-110
7.918786e-110
7.049459e-110
6.5994688e-110
5.7434506e-110
4.9879976e-110
4.933272e-110
4.5234833e-110
4.4783281e-110
4.6168683e-110
4.761458e-110
6.60038e-110
9.6473613e-110
1.0507882e-108
-1.1406207e-109
-2.0876699e-108
5.3586739e-110
2.2074398e-110
-5.1751762e-11
2.410755e-24
-3.6670691e-37
-2.8055195e-49
-2.1662719e-61
-7.5477393e-73
3.797885e-82
-3.2689071e-92
2.1516385e-101
7.2529076e-110
3.3940329e-117
2.0393083e-117
1.3803099e-117
1.1962472e-117
1.0183465e-117
8.8657339e-118
7.6030855e-118
5.9570066e-118
5.3880144e-118
5.4080359e-118
4.2211742e-118
4.4955934e-118
3.2507765e-118
2.9479644e-118
2.6285463e-118
2.470776e-118
2.1744013e-118
1.9052818e-118
1.9102532e-118
1.7841264e-118
1.8137909e-118
1.9427394e-118
2.1071053e-118
3.122289e-118
5.07852e-118
6.7891043e-117
-1.2640993e-117
-2.7162593e-116
1.8898487e-118
2.5615519e-118
-5.4583893e-11
2.7708747e-24
-4.5615927e-37
-3.0694333e-49
-2.1604555e-61
-6.5825612e-73
3.9573076e-81
-2.9586059e-91
1.9735199e-100
2.5256149e-109
3.3450938e-118
3.3823427e-126
1.9824108e-126
1.7196392e-126
1.4689725e-126
1.2815761e-126
1.1016532e-126
8.6575524e-127
7.8516533e-127
7.8984132e-127
6.1818391e-127
6.6008673e-127
4.7850047e-127
4.3474972e-127
3.8803283e-127
3.6587065e-127
3.2241201e-127
2.8325519e-127
2.8477811e-127
2.6631511e-127
2.7170414e-127
2.9193774e-127
3.1849273e-127
4.7496119e-127
7.8030546e-127
1.0635723e-125
-2.1109578e-126
-5.0030059e-125
3.8868133e-127
2.3240247e-125
-5.565638e-11
3.1154984e-24
-5.5288125e-37
-4.1205605e-49
-3.0713731e-61
-9.4742525e-73
-2.7464076e-82
2.144259e-92
-1.4890552e-101
-1.5879614e-110
-1.7186215e-119
-2.0026839e-128
2.3240858e-135
2.0517888e-135
1.766803e-135
1.5530837e-135
1.3431061e-135
1.0613899e-135
9.6689177e-136
9.7727707e-136
7.6866571e-136
8.2225348e-136
5.97468e-136
5.4388818e-136
4.8635535e-136
4.5833502e-136
4.0360119e-136
3.5434196e-136
3.5545241e-136
3.3133926e-136
3.3646314e-136
3.5970124e-136
3.8899656e-136
5.7446755e-136
9.3076024e-136
1.2505303e-134
-2.5199829e-135
-6.7638565e-134
8.4884209e-136
-7.1486519e-133
-5.5637807e-11
3.3660408e-24
-6.149145e-37
-6.8122141e-49
-6.2264481e-61
-2.2286559e-72
-3.1151971e-82
3.0256097e-92
-2.305168e-101
-2.9896395e-110
-3.8275322e-119
-5.3162838e-128
-7.5595604e-137
2.8534812e-144
2.5814173e-144
2.2957179e-144
2.0031928e-144
1.5962268e-144
1.4649202e-144
1.4895419e-144
1.1763297e-144
1.2638403e-144
9.2031702e-145
8.3892351e-145
7.4969719e-145
7.0618876e-145
6.2024408e-145
5.4232966e-145
5.4020597e-145
4.9992501e-145
5.0198108e-145
5.2966882e-145
5.6246266e-145
8.1184218e-145
1.2773609e-144
1.6589143e-143
-3.3437509e-144
-1.0676037e-142
3.1323966e-144
1.2368012e-140
-5.5261707e-11
3.4969864e-24
-6.2929385e-37
-1.9329625e-48
-2.5017492e-60
-1.1740282e-71
-1.2545841e-81
1.7867591e-91
-1.6065842e-100
-3.6297403e-109
-7.6607654e-118
-1.7903491e-126
-4.3403184e-135
-1.0753188e-143
-2.0584543e-152
5.8822317e-153
5.2126316e-153
4.2009471e-153
3.8885369e-153
3.992493e-153
3.1705099e-153
3.4152848e-153
2.4934125e-153
2.2784027e-153
2.030047e-153
1.9068298e-153
1.6655821e-153
1.4468328e-153
1.4225455e-153
1.2998464e-153
1.2795655e-153
1.3180622e-153
1.360548e-153
1.8927342e-153
2.8436208e-153
3.50649e-152
-7.0752694e-153
-2.9757971e-151
5.5716479e-152
-1.8414167e-148
-5.4932042e-11
3.540496e-24
-6.1792117e-37
2.8725689e-48
6.103799e-60
4.1681494e-71
4.3446801e-81
-1.0606846e-90
1.2169624e-99
9.1411578e-108
5.2863622e-116
3.6045627e-124
2.6372576e-132
2.0158052e-140
1.5954778e-148
1.3087466e-156
4.3824009e-161
3.6175779e-161
3.4098534e-161
3.5423588e-161
2.8362122e-161
3.086893e-161
2.2648539e-161
2.0624154e-161
1.8427915e-161
1.7051632e-161
1.4687017e-161
1.252098e-161
1.2087801e-161
1.0583883e-161
1.0043379e-161
9.877488e-162
9.6487371e-162
1.2456868e-161
1.7144314e-161
1.9416324e-160
-4.0733309e-161
-3.4242945e-159
-6.1020666e-160
2.5883918e-156
-5.4763024e-11
3.5464458e-24
-6.0494477e-37
9.8675536e-49
4.0853522e-60
4.3993685e-71
5.2395478e-81
-2.5641078e-90
4.075184e-99
-7.0189286e-107
3.4280804e-114
-1.0506954e-121
2.7881064e-129
-7.0486939e-137
1.7115317e-144
-4.0092468e-152
9.1883236e-160
-2.1647595e-167
-7.5730049e-169
-7.6430575e-169
-6.0759756e-169
-6.5310585e-169
-4.8287536e-169
-4.4068373e-169
-3.9536728e-169
-3.7340996e-169
-3.2390307e-169
-2.8230242e-169
-2.7932246e-169
-2.5506392e-169
-2.5477175e-169
-2.6750026e-169
-2.9003783e-169
-4.3291505e-169
-7.7345841e-169
-1.1283501e-167
1.4436136e-168
4.0224981e-167
4.0228595e-168
-3.7527323e-164
-5.4726481e-11
3.5477948e-24
-6.0043789e-37
7.0732495e-49
7.4304302e-60
1.3199555e-70
1.9872589e-80
-2.3138085e-89
5.5295701e-98
-4.3470648e-106
4.4422039e-114
-4.3645558e-122
4.250206e-130
-4.1193974e-138
4.0075442e-146
-3.9101644e-154
3.8260975e-162
-3.7555098e-170
7.8084148e-177
7.4889789e-177
5.9713726e-177
6.4189274e-177
4.7401853e-177
4.3133714e-177
3.8824654e-177
3.6439678e-177
3.1702148e-177
2.7808415e-177
2.7226335e-177
2.4942117e-177
2.4904636e-177
2.6228427e-177
2.8607078e-177
4.2918143e-177
7.7615592e-177
1.1135268e-175
-1.2613519e-176
-2.6947167e-175
-2.6079001e-176
5.7479601e-172
-5.4758912e-11
3.5557599e-24
-6.0411401e-37
6.2948782e-49
4.3146572e-59
1.2565167e-69
2.511292e-79
-8.7492681e-88
3.3642661e-96
-2.8069794e-104
2.7747783e-112
-2.7546207e-120
2.7496365e-128
-2.7725499e-136
2.816582e-144
-2.8640523e-152
2.9516185e-160
-3.0576067e-168
3.1786511e-176
-4.0775874e-184
-6.2212774e-185
-6.6434072e-185
-4.9176586e-185
-4.4902041e-185
-4.0101454e-185
-3.7702323e-185
-3.2759624e-185
-2.845333e-185
-2.7583645e-185
-2.5202843e-185
-2.4911476e-185
-2.6073904e-185
-2.8034898e-185
-4.1737724e-185
-7.3986066e-185
-1.0270349e-183
1.0392882e-184
1.8525986e-183
1.9327793e-184
-9.4024998e-180
-5.4810715e-11
3.5694097e-24
-6.1200645e-37
6.1312877e-49
-2.4693673e-59
-1.10626e-69
-2.9281411e-79
5.0549614e-87
-3.2543901e-95
3.6907377e-103
-4.8285855e-111
6.4595403e-119
-8.7431132e-127
1.177831e-134
-1.6254235e-142
2.2472527e-150
-3.1188664e-158
4.3594704e-166
-6.1105086e-174
8.6511646e-182
-1.2201124e-189
9.3260361e-193
6.922699e-193
6.2942016e-193
5.5973752e-193
5.1976476e-193
4.5206891e-193
3.9156994e-193
3.7164149e-193
3.359079e-193
3.3167386e-193
3.3830034e-193
3.6060366e-193
5.2913618e-193
9.2104769e-193
1.2076965e-191
-1.0647965e-192
-1.5260449e-191
-1.665754e-192
1.5908366e-187
-5.4857148e-11
3.5846501e-24
-6.204768e-37
6.1674717e-49
-1.4231745e-59
-8.9213878e-70
-3.0001587e-79
-1.6942064e-86
1.7329992e-94
-2.8860851e-102
5.4151947e-110
-1.0435066e-117
2.0245183e-125
-3.9523371e-133
7.7947215e-141
-1.5433299e-148
3.0421118e-156
-6.0904756e-164
1.2132596e-171
-2.4049768e-179
4.8232279e-187
-9.5460732e-195
-1.3753756e-200
-1.2391038e-200
-1.1034432e-200
-1.0058817e-200
-8.7334769e-201
-7.5110478e-201
-7.0633809e-201
-6.225317e-201
-6.1098481e-201
-6.1360508e-201
-6.4580056e-201
-9.358344e-201
-1.5915176e-200
-1.9564729e-199
1.4363252e-200
1.5363465e-199
1.5691979e-200
-2.7904703e-195
-5.4891848e-11
3.598531e-24
-6.2763549e-37
6.2361187e-49
-1.1702661e-59
-9.4905775e-70
-3.8320152e-79
-1.0042341e-86
1.411629e-94
-3.1267473e-102
7.6406805e-110
-1.8850024e-117
4.682583e-125
-1.1583374e-132
2.878733e-140
-7.3337529e-148
1.8378794e-155
-4.6228007e-163
1.17065e-170
-2.8942372e-178
7.1774912e-186
-1.7853687e-193
4.3859719e-201
1.9863463e-208
2.6957796e-208
2.4410273e-208
2.1177331e-208
1.7873727e-208
1.6708024e-208
1.4542975e-208
1.4242198e-208
1.4218615e-208
1.4614073e-208
2.107404e-208
3.4863669e-208
3.9918506e-207
-2.3333092e-208
-1.7430095e-207
-1.5347432e-208
5.0058568e-203
-5.4916847e-11
3.6100029e-24
-6.3311657e-37
6.2814638e-49
-1.0397004e-59
-1.0498085e-69
-4.8627721e-79
-1.0792136e-86
1.8113458e-94
-4.4845372e-102
1.2082643e-109
-3.2545386e-117
8.8617913e-125
-2.4291552e-132
6.6016941e-140
-1.7732574e-147
4.7600144e-155
-1.2797114e-162
3.4519873e-170
-9.1971855e-178
2.4690655e-185
-6.5446911e-193
1.732815e-200
-4.5655577e-208
4.8512504e-216
-6.3734644e-216
-5.5282767e-216
-4.6017254e-216
-4.2495772e-216
-3.6708462e-216
-3.5970823e-216
-3.5119225e-216
-3.6586974e-216
-5.1070927e-216
-8.3770705e-216
-8.9430589e-215
4.1284842e-216
2.051569e-215
1.5132371e-216
-9.2314698e-211
-5.4935788e-11
3.6191997e-24
-6.3727529e-37
6.3007957e-49
-9.4633821e-60
-1.1821295e-69
-6.1134126e-79
-1.1647075e-86
2.1371238e-94
-5.4287663e-102
1.4604614e-109
-3.9339862e-117
1.0684463e-124
-2.8551055e-132
7.7250496e-140
-2.0884002e-147
5.6054407e-155
-1.5286076e-162
4.0159287e-170
-1.0590574e-177
2.8500377e-185
-7.4964319e-193
1.9823881e-200
-5.2194689e-208
1.3509518e-215
-1.8268569e-223
1.4044722e-223
1.1690321e-223
1.0655032e-223
9.2562475e-224
9.0010308e-224
8.7284636e-224
9.0121147e-224
1.2672907e-223
2.0192616e-223
1.9960381e-222
-7.4225828e-224
-2.4198091e-223
-1.4968054e-224
1.7202727e-218
-5.4951229e-11
3.6266347e-24
-6.4056495e-37
6.3067443e-49
-8.7542021e-60
-1.3639282e-69
-7.7685868e-79
-1.3329033e-86
2.6378603e-94
-6.6263457e-102
1.7592209e-109
-4.7046933e-117
1.2546658e-124
-3.3135303e-132
8.7939139e-140
-2.3312674e-147
6.134294e-155
-1.6003156e-162
4.2242941e-170
-1.11374e-177
2.8734931e-185
-7.4799944e-193
1.9371052e-200
-4.9422171e-208
1.2523214e-215
-3.1634419e-223
4.4699008e-231
-2.9692251e-231
-2.6267542e-231
-2.2603519e-231
-2.2520913e-231
-2.1566851e-231
-2.2176567e-231
-3.0911838e-231
-4.7999842e-231
-4.4780941e-230
1.3096477e-231
2.8490287e-231
1.5120184e-232
-3.2360733e-226
-5.4964377e-11
3.6327712e-24
-6.4329171e-37
6.3094227e-49
-8.2262408e-60
-1.6173338e-69
-1.005722e-78
-1.5758778e-86
3.3460393e-94
-8.5104327e-102
2.2717098e-109
-5.9737266e-117
1.5770997e-124
-4.2026555e-132
1.0984435e-139
-2.9062961e-147
7.5304529e-155
-1.9643341e-162
5.156178e-170
-1.3292636e-177
3.4774428e-185
-8.984854e-193
2.3514669e-200
-6.0534299e-208
1.5380456e-215
-3.9036279e-223
9.9359413e-231
-1.7521448e-238
6.6374088e-239
5.5306242e-239
5.5184849e-239
5.3705306e-239
5.503654e-239
7.5459202e-239
1.1563811e-238
1.0098435e-237
-2.3492593e-239
-3.3772006e-239
-1.5822528e-240
6.3225078e-234
-5.497571e-11
3.6379223e-24
-6.4561157e-37
6.3130544e-49
-7.8398697e-60
-1.9672668e-69
-1.3261684e-78
-1.933876e-86
4.3539619e-94
-1.1291365e-101
3.0661665e-109
-8.2390833e-117
2.1766921e-124
-5.8194817e-132
1.545212e-139
-4.1117706e-147
1.1015709e-154
-2.9703019e-162
7.8366471e-170
-2.0749126e-177
5.4744014e-185
-1.4334944e-192
3.6958266e-200
-9.5898656e-208
2.4996487e-215
-6.3744361e-223
1.6441977e-230
-4.2476826e-238
9.1433273e-246
-1.3935965e-246
-1.3953425e-246
-1.3384107e-246
-1.3746772e-246
-1.8532986e-246
-2.8526102e-246
-2.298464e-245
4.290611e-247
4.0265287e-247
1.7432365e-248
-1.2535901e-241
-5.4985442e-11
3.642284e-24
-6.4759888e-37
6.3181203e-49
-7.5562357e-60
-2.4488925e-69
-1.7776585e-78
-2.5069243e-86
6.0980787e-94
-1.6265713e-101
4.493991e-109
-1.2317968e-116
3.4087673e-124
-9.4359587e-132
2.597841e-139
-7.0295612e-147
1.8989431e-154
-5.1824473e-162
1.4171411e-169
-3.8149386e-177
1.0269642e-184
-2.7570752e-192
7.2941985e-200
-1.9395376e-207
5.0905356e-215
-1.3414479e-222
3.5247019e-230
-9.0594593e-238
2.3213088e-245
-5.6168791e-253
3.5750443e-254
3.3652987e-254
3.5271808e-254
4.6158168e-254
7.1021317e-254
5.403827e-253
-7.8582462e-255
-4.8741851e-255
-2.0688367e-256
2.5419457e-249
-5.499375e-11
3.6459898e-24
-6.4929884e-37
6.3238961e-49
-7.3439014e-60
-3.1240909e-69
-2.4219805e-78
-3.3143633e-86
8.5811937e-94
-2.3677492e-101
6.6612532e-109
-1.8500254e-116
5.1689755e-124
-1.471561e-131
4.0292111e-139
-1.1395898e-146
3.137857e-154
-8.7363333e-162
2.4021339e-169
-6.6685971e-177
1.8395435e-184
-5.029378e-192
1.3856232e-199
-3.7215134e-207
1.009437e-214
-2.7094467e-222
7.2955298e-230
-1.9407014e-237
5.1247749e-245
-1.3564726e-252
3.550897e-260
-8.7933252e-262
-9.0784071e-262
-1.1923139e-261
-1.8015641e-261
-1.2833516e-260
1.4863028e-262
6.0090997e-263
2.7455368e-264
-5.2355581e-257
-5.5000828e-11
3.6491437e-24
-6.5075017e-37
6.3296501e-49
-7.1806389e-60
-4.109709e-69
-3.3771905e-78
-4.5599558e-86
1.2545713e-93
-3.5146461e-101
1.0212254e-108
-2.9189619e-116
8.2919746e-124
-2.3713806e-131
6.7519634e-139
-1.9370017e-146
5.374934e-154
-1.5056591e-161
4.2609373e-169
-1.1884599e-176
3.3419123e-184
-9.1596382e-192
2.5260352e-199
-7.0345932e-207
1.9275621e-214
-5.3340971e-222
1.4473089e-229
-4.0298832e-237
1.08143e-244
-2.9000762e-252
7.7557063e-260
-2.0409365e-267
2.40678e-269
3.190207e-269
4.6880568e-269
3.1261398e-268
-2.8346321e-270
-7.4805254e-271
-4.1827843e-272
1.1043967e-264
-5.5006853e-11
3.6518314e-24
-6.519897e-37
6.3350234e-49
-7.0521125e-60
-5.6558398e-69
-4.8993133e-78
-6.5497223e-86
1.9171764e-93
-5.4978035e-101
1.6524513e-108
-4.8812469e-116
1.4589727e-123
-4.2477846e-131
1.2454439e-138
-3.6296391e-146
1.0507985e-153
-3.031143e-161
8.6599385e-169
-2.4754449e-176
7.0968364e-184
-1.9969579e-191
5.6791235e-199
-1.6170697e-206
4.5283952e-214
-1.2611406e-221
3.5589302e-229
-9.7545035e-237
2.6813506e-244
-7.2755164e-252
1.9904903e-259
-5.4801291e-267
1.4812706e-274
-8.5536362e-277
-1.2633394e-276
-7.7077666e-276
5.5169766e-278
9.4244278e-279
7.2803217e-280
-2.3853483e-272
-5.5012001e-11
3.6541272e-24
-6.5305033e-37
6.3398883e-49
-6.9489302e-60
-8.3782282e-69
-7.5969036e-78
-1.01373e-85
3.1157452e-93
-9.3216695e-101
2.8191573e-108
-8.6782768e-116
2.6428819e-123
-7.8599054e-131
2.3401688e-138
-7.1252593e-146
2.1121486e-153
-6.1976246e-161
1.7909128e-168
-5.2072212e-176
1.5482778e-183
-4.5022425e-191
1.29583e-198
-3.6859465e-206
1.0727953e-213
-3.0377222e-221
8.6364269e-229
-2.4381214e-236
6.9139095e-244
-1.9311995e-251
5.4723728e-259
-1.5276622e-266
4.2558502e-274
-1.1756681e-281
3.4312621e-284
1.9286664e-283
-1.0904486e-285
-1.2059899e-286
-1.4185399e-287
5.2987519e-280
-5.5016399e-11
3.6560922e-24
-6.5396015e-37
6.3442699e-49
-6.865149e-60
-1.4380101e-68
-1.3580847e-77
-1.8139237e-85
5.8118258e-93
-1.8126637e-100
5.5950486e-108
-1.7376269e-115
5.1881709e-123
-1.6198852e-130
4.8915194e-138
-1.5147912e-145
4.6124884e-153
-1.3875596e-160
4.1429332e-168
-1.2370303e-175
3.6745279e-183
-1.0990479e-190
3.2415978e-198
-9.4972853e-206
2.806207e-213
-8.3613629e-221
2.4125238e-228
-6.9275855e-236
1.996741e-243
-5.8055413e-251
1.6400485e-258
-4.7339151e-266
1.3279005e-273
-3.7474605e-281
1.0515685e-288
-5.0193181e-291
2.183188e-293
1.5613125e-294
2.9333444e-295
-1.177924e-287
-5.502017e-11
3.6577783e-24
-6.5474291e-37
6.3481975e-49
-6.7962841e-60
-3.7402632e-68
-3.6586601e-77
-4.8499298e-85
1.6071153e-92
-4.9752537e-100
1.6174249e-107
-5.169303e-115
1.6301427e-122
-5.1445576e-130
1.6126471e-137
-5.1167565e-145
1.5811986e-152
-4.8991549e-160
1.5016469e-167
-4.6213199e-175
1.4154491e-182
-4.2788184e-190
1.2772732e-197
-3.8415449e-205
1.1492184e-212
-3.4528576e-220
1.0077187e-227
-2.9974314e-235
8.6605894e-243
-2.549523e-250
7.4828518e-258
-2.1949143e-265
6.3356448e-273
-1.8376762e-280
5.2086089e-288
-1.3906753e-295
-4.4901711e-301
-2.0452943e-302
-6.5403298e-303
2.6686241e-295
-5.5023405e-11
3.6592281e-24
-6.5541777e-37
6.3517146e-49
-6.7392858e-60
9.5283406e-68
9.618112e-77
1.2711878e-84
-4.3790987e-92
1.4260468e-99
-4.7189877e-107
1.5369052e-114
-4.9517326e-122
1.6204728e-129
-5.1490587e-137
1.6678825e-144
-5.2423038e-152
1.6564532e-159
-5.309095e-167
1.6939806e-174
-5.2910894e-182
1.6171683e-189
-4.9944797e-197
1.5383044e-204
-4.670364e-212
1.4434563e-219
-4.3770348e-227
1.3357106e-234
-4.0348268e-242
1.222394e-249
-3.6506713e-257
1.0756931e-264
-3.2240523e-272
9.6066498e-280
-2.7737065e-287
7.4865869e-295
-1.5729987e-302
4.7890278e-310
1.5158701e-310
-6.294855e-303
-5.5026179e-11
3.6604771e-24
-6.5600089e-37
6.3548638e-49
-6.6918374e-60
2.3431775e-68
2.4317964e-77
3.1957896e-85
-1.151695e-92
3.8025802e-100
-1.2939825e-107
4.3389869e-115
-1.4289058e-122
4.7132989e-130
-1.5578073e-137
5.0725273e-145
-1.6611281e-152
5.4101631e-160
-1.7785346e-167
5.7677657e-175
-1.8504803e-182
5.8670001e-190
-1.8556908e-197
5.7983491e-205
-1.8090202e-212
5.6461255e-220
-1.7310197e-227
5.2818167e-235
-1.6239581e-242
4.9258174e-250
-1.5357914e-257
4.6862637e-265
-1.4260579e-272
4.335053e-280
-1.278193e-287
3.5622919e-295
-7.5484268e-303
9.9839677e-311
-1.9934223e-313
1.4928479e-310
-5.5028564e-11
3.6615554e-24
-6.5650577e-37
6.3576741e-49
-6.6520118e-60
1.4181194e-68
1.5088183e-77
1.9855127e-85
-7.4586751e-93
2.5757929e-100
-8.966892e-108
3.1013213e-115
-1.0631715e-122
3.6077293e-130
-1.2069781e-137
4.0596082e-145
-1.3335874e-152
4.4018507e-160
-1.4672126e-167
4.7721479e-175
-1.5612229e-182
5.0537119e-190
-1.6621482e-197
5.2997882e-205
-1.7116065e-212
5.4575227e-220
-1.7285787e-227
5.5261851e-235
-1.7258147e-242
5.4759285e-250
-1.687756e-257
5.3135765e-265
-1.663644e-272
5.2071803e-280
-1.6063632e-287
4.5160022e-295
-9.6600788e-303
1.3049569e-310
1.829048e-313
-6.5483851e-314
-5.5030614e-11
3.6624881e-24
-6.5694391e-37
6.3601901e-49
-6.6185196e-60
1.0563867e-68
1.1474123e-77
1.5070613e-85
-5.9217082e-93
2.0759871e-100
-7.4886776e-108
2.6286181e-115
-9.2880445e-123
3.2103079e-130
-1.0980552e-137
3.7965347e-145
-1.2953157e-152
4.3976397e-160
-1.5106533e-167
5.1183969e-175
-1.6860212e-182
5.5971725e-190
-1.8633071e-197
6.1373936e-205
-2.00954e-212
6.6325738e-220
-2.1566123e-227
7.0059264e-235
-2.2540156e-242
7.1348106e-250
-2.2893956e-257
7.3304041e-265
-2.321389e-272
7.4318385e-280
-2.3132068e-287
6.7071512e-295
-1.4572497e-302
1.9744888e-310
1.4075551e-313
-3.0471645e-314
-5.5032378e-11
3.6632961e-24
-6.5732483e-37
6.3624357e-49
-6.5901236e-60
8.6504634e-69
9.5733217e-78
1.2400947e-85
-5.0569093e-93
1.8023838e-100
-6.6845267e-108
2.4173142e-115
-8.6282416e-123
3.0500913e-130
-1.1165688e-137
3.9141868e-145
-1.4025117e-152
4.8320234e-160
-1.6842727e-167
5.7930441e-175
-1.9728264e-182
6.7684031e-190
-2.2999132e-197
7.7918067e-205
-2.6390413e-212
8.8256862e-220
-2.9764164e-227
9.799506e-235
-3.2613244e-242
1.070509e-249
-3.5075772e-257
1.1414199e-264
-3.6848689e-272
1.2048682e-279
-3.8425436e-287
1.1455027e-294
-2.5447546e-302
3.4925709e-310
1.9330666e-314
-2.8948212e-313
-5.5033893e-11
3.6639973e-24
-6.5765651e-37
6.364435e-49
-6.5659889e-60
7.4685856e-69
8.4037979e-78
1.0888478e-85
-4.6483204e-93
1.7772367e-100
-6.609585e-108
2.4959986e-115
-9.1096146e-123
3.3938769e-130
-1.231593e-137
4.3925316e-145
-1.5534374e-152
5.6006065e-160
-2.0227179e-167
7.2003339e-175
-2.5645401e-182
9.0971037e-190
-3.1319493e-197
1.0982699e-204
-3.8106395e-212
1.3102565e-219
-4.4478358e-227
1.5183537e-234
-5.1748249e-242
1.7596932e-249
-5.913732e-257
1.9994419e-264
-6.6553382e-272
2.2173031e-279
-7.3368734e-287
2.2260434e-294
-5.0483856e-302
6.9777804e-310
1.0681914e-313
-1.9690438e-313
-5.5035196e-11
3.6646068e-24
-6.5794611e-37
6.3662311e-49
-6.5453564e-60
6.6825782e-69
7.6277993e-78
9.8509794e-86
-4.2418855e-93
1.6207626e-100
-6.3541572e-108
2.343871e-115
-9.0270406e-123
3.3972325e-130
-1.2687709e-137
4.7230175e-145
-1.7893384e-152
6.6065459e-160
-2.3955027e-167
8.8106551e-175
-3.2435546e-182
1.1682646e-189
-4.1492149e-197
1.4994313e-204
-5.2167604e-212
1.859895e-219
-6.4829385e-227
2.2675042e-234
-8.0332582e-242
2.793615e-249
-9.5569752e-257
3.3016318e-264
-1.1460871e-271
3.9830543e-279
-1.3322853e-286
4.0732637e-294
-9.3453869e-302
1.3000304e-309
9.2969906e-314
-1.4791293e-313
-5.5036313e-11
3.6651371e-24
-6.5819921e-37
6.3678365e-49
-6.5277051e-60
6.1191752e-69
7.0775772e-78
9.0717189e-86
-4.2786916e-93
1.6958227e-100
-6.7383653e-108
2.7002103e-115
-1.0625725e-122
4.1049679e-130
-1.6130771e-137
6.2972924e-145
-2.377502e-152
8.9554909e-160
-3.4499375e-167
1.3202791e-174
-4.9628089e-182
1.8337332e-189
-6.7476452e-197
2.4694489e-204
-8.914957e-212
3.1652518e-219
-1.1755554e-226
4.1974811e-234
-1.5052764e-241
5.3158926e-249
-1.9047829e-256
6.7972944e-264
-2.4034729e-271
8.4451153e-279
-2.856629e-286
8.9601714e-294
-2.1008391e-301
2.9736678e-309
3.9935964e-314
-4.0522041e-314
-5.5037265e-11
3.6655989e-24
-6.5842075e-37
6.3692705e-49
-6.5125155e-60
5.6985228e-69
6.6652136e-78
8.4685692e-86
-3.9740571e-93
1.6192723e-100
-6.4748728e-108
2.6243445e-115
-1.0489289e-122
4.1672515e-130
-1.6678571e-137
6.5589816e-145
-2.5655823e-152
1.0027104e-159
-3.807029e-167
1.4506946e-174
-5.5061675e-182
2.0877431e-189
-7.9011177e-197
2.9749193e-204
-1.1062871e-211
4.0308085e-219
-1.5017696e-226
5.5101207e-234
-2.022771e-241
7.2721013e-249
-2.6443648e-256
9.6155584e-264
-3.4946024e-271
1.268914e-278
-4.4604656e-286
1.444621e-293
-3.4316358e-301
4.9076187e-309
-2.6059063e-313
-1.5825037e-313
-5.5038079e-11
3.6660015e-24
-6.586152e-37
6.3705593e-49
-6.4994016e-60
5.37499e-69
6.3464069e-78
8.0817982e-86
-3.9846306e-93
1.6769003e-100
-7.1002317e-108
2.9837318e-115
-1.2052778e-122
5.0114674e-130
-2.0395839e-137
8.3560811e-145
-3.4528767e-152
1.3670802e-159
-5.4575704e-167
2.1316483e-174
-8.4817629e-182
3.318086e-189
-1.2928765e-196
4.924596e-204
-1.9285645e-211
7.22652e-219
-2.679096e-226
9.9368754e-234
-3.7871601e-241
1.3940113e-248
-5.2162229e-256
1.970805e-263
-7.3436631e-271
2.7473877e-278
-9.7884752e-286
3.3492898e-293
-8.0545655e-301
1.1608167e-308
2.8732699e-314
4.4523052e-313
-5.5038763e-11
3.6663525e-24
-6.5878604e-37
6.3717217e-49
-6.488125e-60
5.1203435e-69
6.094086e-78
7.7023743e-86
-3.9230421e-93
1.7002215e-100
-7.5499369e-108
3.2959628e-115
-1.3897444e-122
5.9594187e-130
-2.5217136e-137
1.0524689e-144
-4.2829441e-152
1.7465233e-159
-7.1920476e-167
2.9355021e-174
-1.1935466e-181
4.8156709e-189
-1.9334171e-196
7.6492234e-204
-3.0097043e-211
1.1843364e-218
-4.5519613e-226
1.7873997e-233
-7.0018562e-241
2.7336191e-248
-1.0484602e-255
4.0061164e-263
-1.5306983e-270
5.7824878e-278
-2.1567814e-285
7.195594e-293
-1.7818881e-300
2.599721e-308