/*--------------------------------*- C++ -*----------------------------------*\
  =========                 |
  \\      /  F ield         | OpenFOAM: The Open Source CFD Toolbox
   \\    /   O peration     | Website:  https://openfoam.org
    \\  /    A nd           | Version:  10
     \\/     M anipulation  |
\*---------------------------------------------------------------------------*/
FoamFile
{
    format      ascii;
    class       volVectorField;
    location    "0.03";
    object      U;
}
// * * * * * * * * * * * * * * * * * * * * * * * * * * * * * * * * * * * * * //

dimensions      [0 1 -1 0 0 0 0];

internalField   nonuniform List<vector> 
4000
(
(0 0.018518371 0.47778772)
(0 0.023299504 0.50882432)
(0 0.007993133 0.50052959)
(0 0.0054565798 0.50033878)
(0 0.0040976404 0.50025612)
(0 0.0031057807 0.50016683)
(0 0.0024183416 0.50011736)
(0 0.0019290421 0.50008768)
(0 0.001563345 0.50006734)
(0 0.0012810948 0.50005298)
(0 0.0010576966 0.50004267)
(0 0.00087671121 0.5000351)
(0 0.00072686782 0.50002947)
(0 0.00060022136 0.50002523)
(0 0.00049100405 0.50002203)
(0 0.00039491484 0.50001961)
(0 0.00030865793 0.50001781)
(0 0.00022963044 0.50001651)
(0 0.00015570375 0.50001562)
(0 8.5063327e-05 0.5000151)
(0 1.6085343e-05 0.50001491)
(0 -5.2769052e-05 0.50001505)
(0 -0.00012304732 0.50001552)
(0 -0.00019639939 0.50001637)
(0 -0.00027468774 0.50001765)
(0 -0.00036012169 0.50001945)
(0 -0.0004554337 0.5000219)
(0 -0.00056412619 0.50002518)
(0 -0.00069083182 0.50002958)
(0 -0.00084186152 0.50003552)
(0 -0.0010260848 0.50004361)
(0 -0.0012563473 0.50005486)
(0 -0.0015517774 0.50007077)
(0 -0.0019433113 0.5000939)
(0 -0.0024879719 0.50013196)
(0 -0.0032713208 0.50020065)
(0 -0.0043624445 0.50027404)
(0 -0.0063754603 0.50043934)
(0 -0.017420004 0.50671431)
(0 -0.013459769 0.47982397)
(0 0.03708222 0.44836401)
(0 0.050286543 0.53224209)
(0 0.021372055 0.50801801)
(0 0.01561753 0.503579)
(0 0.011904895 0.5024068)
(0 0.0090375325 0.50159931)
(0 0.0070826562 0.50113116)
(0 0.0056729375 0.50083973)
(0 0.0046083058 0.50064205)
(0 0.0037832875 0.50050395)
(0 0.0031282881 0.50040515)
(0 0.0025961601 0.50033289)
(0 0.0021545623 0.5002792)
(0 0.0017805712 0.50023889)
(0 0.0014574705 0.50020846)
(0 0.0011727601 0.50018554)
(0 0.00091684033 0.50016847)
(0 0.0006821165 0.50015611)
(0 0.00046236929 0.50014769)
(0 0.00025229221 0.50014271)
(0 4.713349e-05 0.5001409)
(0 -0.00015760802 0.50014218)
(0 -0.000366457 0.50014666)
(0 -0.00058423591 0.50015466)
(0 -0.00081638315 0.50016671)
(0 -0.0010693408 0.50018367)
(0 -0.001351063 0.5002068)
(0 -0.0016717247 0.50023793)
(0 -0.0020447504 0.50027975)
(0 -0.002488354 0.50033628)
(0 -0.0030279959 0.50041363)
(0 -0.0037004984 0.50052159)
(0 -0.0045600392 0.50067579)
(0 -0.0056882768 0.50090249)
(0 -0.0072362903 0.50126377)
(0 -0.0094884169 0.50189019)
(0 -0.012461038 0.50283335)
(0 -0.016719989 0.50606905)
(0 -0.037990747 0.52516982)
(0 -0.02749652 0.45070806)
(0 0.03932432 0.41093272)
(0 0.060219926 0.54932021)
(0 0.030819487 0.52173749)
(0 0.023403193 0.51005546)
(0 0.018270364 0.5065313)
(0 0.014124212 0.50445175)
(0 0.011233597 0.50319072)
(0 0.0090761128 0.50237671)
(0 0.007415928 0.50182125)
(0 0.006115845 0.50143238)
(0 0.0050748028 0.50115329)
(0 0.0042232225 0.50094876)
(0 0.0035126159 0.50079662)
(0 0.0029080119 0.50068228)
(0 0.0023836182 0.50059593)
(0 0.0019199879 0.50053082)
(0 0.0015020846 0.5004823)
(0 0.0011179464 0.50044714)
(0 0.00075773485 0.50042316)
(0 0.0004130278 0.50040895)
(0 7.6267824e-05 0.50040374)
(0 -0.00025970804 0.5004073)
(0 -0.00060209654 0.50041994)
(0 -0.00095855262 0.50044254)
(0 -0.0013376822 0.50047665)
(0 -0.001749636 0.50052467)
(0 -0.0022068803 0.50059013)
(0 -0.0027252584 0.50067823)
(0 -0.0033255073 0.50079653)
(0 -0.0040354592 0.5009563)
(0 -0.0048933677 0.50117458)
(0 -0.0059536115 0.50147834)
(0 -0.0072948713 0.50191122)
(0 -0.0090241433 0.50254375)
(0 -0.011316171 0.50351736)
(0 -0.014571447 0.50512888)
(0 -0.018694604 0.50783722)
(0 -0.02382704 0.51629592)
(0 -0.046006825 0.53911589)
(0 -0.030175569 0.41625396)
(0 0.034054846 0.36400089)
(0 0.062015982 0.55494772)
(0 0.037462808 0.53710407)
(0 0.028586174 0.51835058)
(0 0.022707868 0.5118351)
(0 0.017998432 0.5083263)
(0 0.014587145 0.50608455)
(0 0.011928896 0.5045771)
(0 0.0098361917 0.50353277)
(0 0.0081701392 0.50279382)
(0 0.0068172063 0.50225894)
(0 0.0056982275 0.50186469)
(0 0.0047561103 0.50157021)
(0 0.0039484918 0.50134819)
(0 0.0032435614 0.50118007)
(0 0.002616986 0.50105305)
(0 0.0020497223 0.50095822)
(0 0.0015264736 0.50088939)
(0 0.0010345595 0.50084235)
(0 0.00056306072 0.50081439)
(0 0.00010214126 0.50080401)
(0 -0.00035753579 0.50081077)
(0 -0.00082534341 0.50083527)
(0 -0.0013112147 0.50087918)
(0 -0.0018262542 0.50094548)
(0 -0.0023834608 0.50103877)
(0 -0.0029986482 0.50116581)
(0 -0.0036916815 0.50133646)
(0 -0.004488199 0.50156505)
(0 -0.0054220213 0.50187264)
(0 -0.006538395 0.50229071)
(0 -0.0078994113 0.50286785)
(0 -0.0095935729 0.50368155)
(0 -0.011731208 0.50485262)
(0 -0.014448764 0.50658546)
(0 -0.018163961 0.50929403)
(0 -0.022896076 0.51414814)
(0 -0.028878861 0.5279024)
(0 -0.048132557 0.54442979)
(0 -0.027481857 0.37518487)
(0 0.026552317 0.31867062)
(0 0.059827881 0.55139902)
(0 0.041755972 0.55081052)
(0 0.031793253 0.52707867)
(0 0.025498668 0.51742145)
(0 0.020689267 0.51259082)
(0 0.017070386 0.50939674)
(0 0.014144487 0.50716751)
(0 0.011792481 0.50559217)
(0 0.0098829497 0.5044595)
(0 0.0083052282 0.50362953)
(0 0.00698197 0.50301238)
(0 0.0058546888 0.50254829)
(0 0.0048786014 0.50219653)
(0 0.0040193449 0.50192904)
(0 0.0032501126 0.50172624)
(0 0.0025495779 0.5015744)
(0 0.0019003764 0.50146389)
(0 0.0012879539 0.50138816)
(0 0.0006996707 0.50134296)
(0 0.00012407799 0.50132592)
(0 -0.00044971678 0.50133636)
(0 -0.0010326345 0.50137518)
(0 -0.0016361886 0.501445)
(0 -0.0022731477 0.50155043)
(0 -0.0029582973 0.50169859)
(0 -0.0037093876 0.50189993)
(0 -0.0045483627 0.50216951)
(0 -0.0055030117 0.50252902)
(0 -0.0066092366 0.50300993)
(0 -0.0079137069 0.50365837)
(0 -0.0094775723 0.50454328)
(0 -0.011387357 0.50577157)
(0 -0.013750693 0.50750545)
(0 -0.016655148 0.5099823)
(0 -0.020476213 0.51369064)
(0 -0.025522614 0.52074711)
(0 -0.032350282 0.53862513)
(0 -0.047386919 0.54270178)
(0 -0.022856222 0.33535988)
(0 0.01885034 0.28094265)
(0 0.054802299 0.54219693)
(0 0.043388209 0.56161967)
(0 0.033424051 0.53571394)
(0 0.027023425 0.52292705)
(0 0.022371287 0.5168381)
(0 0.018753994 0.51280247)
(0 0.015746321 0.50991166)
(0 0.013283424 0.50782846)
(0 0.01124232 0.50630514)
(0 0.0095245106 0.505174)
(0 0.0080610488 0.50432423)
(0 0.0067970428 0.50367985)
(0 0.0056893829 0.50318813)
(0 0.0047042394 0.50281214)
(0 0.0038146114 0.50252578)
(0 0.0029985973 0.50231052)
(0 0.0022380677 0.50215333)
(0 0.0015176153 0.50204522)
(0 0.00082371434 0.50198035)
(0 0.00014402713 0.50195546)
(0 -0.00053321754 0.50196957)
(0 -0.0012198014 0.5020239)
(0 -0.0019280643 0.50212202)
(0 -0.0026715511 0.50227019)
(0 -0.0034657311 0.50247806)
(0 -0.004328871 0.50275967)
(0 -0.0052831276 0.50313513)
(0 -0.0063559444 0.503633)
(0 -0.0075820107 0.50429414)
(0 -0.0090054442 0.50517738)
(0 -0.010681394 0.50636807)
(0 -0.012687014 0.50799459)
(0 -0.0151264 0.5102491)
(0 -0.018052818 0.51339309)
(0 -0.0217685 0.51803589)
(0 -0.026845172 0.52731253)
(0 -0.033903562 0.54756752)
(0 -0.044397605 0.53646836)
(0 -0.017558564 0.3013265)
(0 0.011964481 0.25058768)
(0 0.047864544 0.52956698)
(0 0.042445902 0.56908945)
(0 0.033650222 0.54389166)
(0 0.027493204 0.52824877)
(0 0.023176342 0.52089004)
(0 0.019732566 0.51612235)
(0 0.016796076 0.51265841)
(0 0.014342757 0.51011986)
(0 0.012264774 0.50823597)
(0 0.010482106 0.50682001)
(0 0.008937421 0.50574524)
(0 0.0075826332 0.504923)
(0 0.0063792982 0.50429086)
(0 0.0052965025 0.50380446)
(0 0.0043089375 0.50343202)
(0 0.0033956253 0.50315077)
(0 0.0025388628 0.50294454)
(0 0.0017233536 0.50280209)
(0 0.00093549449 0.50271609)
(0 0.00016277155 0.5026824)
(0 -0.00060679313 0.50269975)
(0 -0.001385163 0.50276965)
(0 -0.0021847669 0.50289649)
(0 -0.0030190766 0.50308806)
(0 -0.0039032185 0.50335625)
(0 -0.0048547019 0.50371832)
(0 -0.005894302 0.50419869)
(0 -0.0070471127 0.50483174)
(0 -0.0083440791 0.50566597)
(0 -0.0098239674 0.50677029)
(0 -0.011533145 0.50824291)
(0 -0.01353395 0.51022771)
(0 -0.015920251 0.512938)
(0 -0.018721557 0.51666766)
(0 -0.022166799 0.52223756)
(0 -0.026971951 0.53361662)
(0 -0.033427364 0.55423569)
(0 -0.039638249 0.52731347)
(0 -0.012261187 0.27326652)
(0 0.0064585212 0.22629014)
(0 0.040083546 0.51500671)
(0 0.039539692 0.57314145)
(0 0.032686041 0.55108396)
(0 0.027074264 0.53321283)
(0 0.023220306 0.5246241)
(0 0.020094232 0.5192374)
(0 0.017354251 0.51530152)
(0 0.01500778 0.51237564)
(0 0.012971302 0.51017744)
(0 0.011187444 0.50850769)
(0 0.0096124963 0.50722797)
(0 0.0082076123 0.50624039)
(0 0.0069411738 0.50547534)
(0 0.0057869127 0.50488275)
(0 0.0047226625 0.50442637)
(0 0.0037295722 0.50407998)
(0 0.002791356 0.50382479)
(0 0.0018936583 0.50364766)
(0 0.0010235107 0.50353996)
(0 0.00016886383 0.50349678)
(0 -0.00068185985 0.50351656)
(0 -0.0015401921 0.50360101)
(0 -0.0024179948 0.50375522)
(0 -0.0033279243 0.50398818)
(0 -0.0042838917 0.50431362)
(0 -0.005301596 0.50475131)
(0 -0.0063991547 0.50532907)
(0 -0.0075977706 0.5060857)
(0 -0.0089226809 0.50707534)
(0 -0.010404925 0.50837431)
(0 -0.01207992 0.51009048)
(0 -0.013991127 0.51237876)
(0 -0.016212583 0.51546518)
(0 -0.01875294 0.51968437)
(0 -0.021792462 0.5261355)
(0 -0.026075092 0.5392437)
(0 -0.031261044 0.55833567)
(0 -0.03380295 0.51635138)
(0 -0.0074401411 0.2504736)
(0 0.0024303407 0.20759769)
(0 0.032284947 0.49988776)
(0 0.035391932 0.57410029)
(0 0.030820001 0.55684118)
(0 0.025978158 0.53759303)
(0 0.022665658 0.52792003)
(0 0.019952326 0.52204285)
(0 0.017495625 0.51775086)
(0 0.015326778 0.51452087)
(0 0.013391003 0.51206764)
(0 0.011654873 0.51018616)
(0 0.010089498 0.50873089)
(0 0.0086670307 0.50759829)
(0 0.0073640902 0.50671417)
(0 0.0061602007 0.50602466)
(0 0.0050373489 0.50549038)
(0 0.0039796724 0.50508265)
(0 0.0029730341 0.50478072)
(0 0.0020046506 0.50457001)
(0 0.0010627446 0.50444087)
(0 0.00013624071 0.50438774)
(0 -0.00078555504 0.50440883)
(0 -0.0017132529 0.50450592)
(0 -0.0026576334 0.50468459)
(0 -0.003629967 0.50495467)
(0 -0.0046422968 0.50533115)
(0 -0.0057077425 0.50583552)
(0 -0.0068408443 0.50649783)
(0 -0.0080578343 0.5073597)
(0 -0.0093768691 0.50847876)
(0 -0.010819384 0.5099357)
(0 -0.012408176 0.51184422)
(0 -0.014165967 0.514365)
(0 -0.016140821 0.51772854)
(0 -0.018319564 0.52231537)
(0 -0.02085622 0.52951832)
(0 -0.024432948 0.54378368)
(0 -0.02793135 0.55990017)
(0 -0.027520439 0.50464279)
(0 -0.0033405691 0.23276928)
(0 -0.00027851696 0.19422217)
(0 0.024969618 0.48534592)
(0 0.030636977 0.57255745)
(0 0.028381746 0.56096262)
(0 0.024470209 0.54122687)
(0 0.021743773 0.53069807)
(0 0.019483134 0.52446534)
(0 0.017351436 0.51994099)
(0 0.015398551 0.51650123)
(0 0.013597685 0.51386152)
(0 0.011938611 0.51181788)
(0 0.010407439 0.51022279)
(0 0.0089880523 0.5089708)
(0 0.0076658617 0.50798585)
(0 0.006426721 0.50721221)
(0 0.0052573064 0.5066089)
(0 0.0041452238 0.50614578)
(0 0.0030789142 0.50580095)
(0 0.0020475563 0.50555886)
(0 0.0010409205 0.50540917)
(0 4.9237219e-05 0.50534586)
(0 -0.00093698834 0.5053669)
(0 -0.0019271274 0.50547409)
(0 -0.0029305563 0.50567321)
(0 -0.0039568162 0.50597453)
(0 -0.0050157118 0.50639367)
(0 -0.0061173729 0.50695292)
(0 -0.0072722941 0.5076833)
(0 -0.0084912367 0.50862752)
(0 -0.0097847293 0.50984429)
(0 -0.011163748 0.51141531)
(0 -0.012637858 0.51345546)
(0 -0.014209178 0.51612504)
(0 -0.015898551 0.51965265)
(0 -0.017669043 0.52446944)
(0 -0.019647742 0.53222435)
(0 -0.022396703 0.54699024)
(0 -0.024004234 0.5592132)
(0 -0.02126774 0.49303877)
(0 -0.00011064276 0.22003322)
(0 -0.0018533806 0.18546306)
(0 0.018431558 0.47209621)
(0 0.025827143 0.56912888)
(0 0.025744023 0.56343481)
(0 0.022872042 0.54403635)
(0 0.020753352 0.53293625)
(0 0.018938104 0.52648242)
(0 0.017132007 0.52184689)
(0 0.015400276 0.51829358)
(0 0.013741346 0.51553845)
(0 0.012166847 0.51338483)
(0 0.01067711 0.51168819)
(0 0.0092674097 0.51034477)
(0 0.0079316597 0.50927926)
(0 0.0066619696 0.50843609)
(0 0.0054497542 0.50777409)
(0 0.0042861811 0.50726277)
(0 0.0031623994 0.50687978)
(0 0.0020696947 0.50660919)
(0 0.00099953684 0.50644027)
(0 -5.6390122e-05 0.50636673)
(0 -0.0011062401 0.50638634)
(0 -0.002158013 0.5065008)
(0 -0.0032195618 0.50671587)
(0 -0.0042985999 0.50704184)
(0 -0.0054026268 0.5074943)
(0 -0.0065387674 0.50809548)
(0 -0.0077135166 0.50887608)
(0 -0.0089323316 0.50987814)
(0 -0.010198511 0.51115908)
(0 -0.011512999 0.51279823)
(0 -0.012872925 0.51490705)
(0 -0.01426136 0.51763914)
(0 -0.015673984 0.5212166)
(0 -0.01705171 0.52612348)
(0 -0.018468338 0.53417892)
(0 -0.020331632 0.54876856)
(0 -0.020040066 0.55663529)
(0 -0.015425238 0.48203738)
(0 0.0020923646 0.21175314)
(0 -0.0024658265 0.18033338)
(0 0.012849518 0.46049434)
(0 0.021417783 0.56430249)
(0 0.023276592 0.56431191)
(0 0.021518378 0.54599221)
(0 0.02000609 0.53465364)
(0 0.018592453 0.52811748)
(0 0.017081476 0.52348356)
(0 0.015549619 0.51990651)
(0 0.014017931 0.517103)
(0 0.012518061 0.51488919)
(0 0.011062948 0.51312799)
(0 0.0096580997 0.51172058)
(0 0.0083049958 0.51059473)
(0 0.0070014322 0.50969681)
(0 0.0057432058 0.50898681)
(0 0.0045248312 0.50843485)
(0 0.0033400566 0.50801885)
(0 0.0021822306 0.50772295)
(0 0.0010445181 0.50753639)
(0 -7.9934806e-05 0.50745278)
(0 -0.0011979274 0.50746973)
(0 -0.0023160973 0.50758877)
(0 -0.0034408107 0.50781542)
(0 -0.0045780463 0.50815959)
(0 -0.0057331752 0.50863635)
(0 -0.0069106253 0.50926701)
(0 -0.0081133736 0.51008089)
(0 -0.0093423011 0.51111781)
(0 -0.010594658 0.51243183)
(0 -0.01186288 0.51409704)
(0 -0.013133783 0.51621736)
(0 -0.014374509 0.51893439)
(0 -0.01555913 0.52245904)
(0 -0.016614672 0.52732161)
(0 -0.017521703 0.53538772)
(0 -0.018500161 0.54912578)
(0 -0.016486055 0.55251168)
(0 -0.010301872 0.47190309)
(0 0.003184434 0.20706707)
(0 -0.0023311151 0.17781891)
(0 0.0083366514 0.45069021)
(0 0.017686906 0.55841141)
(0 0.02122374 0.56365946)
(0 0.02062704 0.54708802)
(0 0.019697197 0.53589039)
(0 0.018621908 0.52942188)
(0 0.017359733 0.52489099)
(0 0.015993885 0.52136854)
(0 0.014566044 0.51857549)
(0 0.013124705 0.51634552)
(0 0.011693134 0.51455294)
(0 0.010285418 0.51310651)
(0 0.008909285 0.51193908)
(0 0.007567365 0.51100042)
(0 0.0062592513 0.51025275)
(0 0.0049824257 0.50966762)
(0 0.0037330067 0.50922383)
(0 0.0025062722 0.508906)
(0 0.0012970097 0.50870361)
(0 9.9781858e-05 0.50861033)
(0 -0.0010908892 0.50862371)
(0 -0.0022803362 0.50874502)
(0 -0.003473534 0.50897937)
(0 -0.0046748947 0.50933605)
(0 -0.0058879383 0.50982912)
(0 -0.007114842 0.51047845)
(0 -0.008355749 0.5113111)
(0 -0.0096079524 0.51236354)
(0 -0.010864199 0.51368494)
(0 -0.012110539 0.51534204)
(0 -0.013326286 0.51742802)
(0 -0.014467446 0.52006878)
(0 -0.015489966 0.52345862)
(0 -0.016318697 0.52815243)
(0 -0.016808906 0.53591924)
(0 -0.0169463 0.54816145)
(0 -0.013541264 0.54717903)
(0 -0.0061186946 0.46285836)
(0 0.0032756345 0.20494781)
(0 -0.0017298722 0.17700318)
(0 0.0049669424 0.44270528)
(0 0.014683529 0.55170642)
(0 0.019595948 0.56157527)
(0 0.020159658 0.54733616)
(0 0.019773647 0.53669263)
(0 0.018979434 0.53045385)
(0 0.017923982 0.52611292)
(0 0.016696233 0.52270932)
(0 0.015356729 0.51997573)
(0 0.013966085 0.51776668)
(0 0.012555441 0.51597118)
(0 0.01114564 0.51450771)
(0 0.0097492858 0.51331563)
(0 0.0083729606 0.51234922)
(0 0.0070194484 0.51157374)
(0 0.0056888203 0.51096278)
(0 0.0043793448 0.51049645)
(0 0.0030881129 0.51016023)
(0 0.0018114848 0.50994406)
(0 0.00054542796 0.50984181)
(0 -0.00071421508 0.509851)
(0 -0.0019714824 0.50997264)
(0 -0.0032300095 0.51021135)
(0 -0.004492756 0.51057556)
(0 -0.005761608 0.51107812)
(0 -0.0070368644 0.51173698)
(0 -0.0083164365 0.51257647)
(0 -0.0095949137 0.51362904)
(0 -0.010861931 0.51493797)
(0 -0.012099221 0.51656139)
(0 -0.013281101 0.51857961)
(0 -0.014357924 0.52110093)
(0 -0.01527013 0.5242976)
(0 -0.015947712 0.52871104)
(0 -0.016118184 0.53587695)
(0 -0.015495112 0.54608027)
(0 -0.011132748 0.5410167)
(0 -0.0030091693 0.45516722)
(0 0.0026586107 0.2044294)
(0 -0.00096394801 0.17712417)
(0 0.0027524387 0.43643892)
(0 0.012277244 0.54448338)
(0 0.018180675 0.55825183)
(0 0.019807518 0.54677954)
(0 0.019921333 0.53709878)
(0 0.01937968 0.53125585)
(0 0.018511401 0.52717621)
(0 0.01741571 0.52394174)
(0 0.01616974 0.5213073)
(0 0.014840988 0.51915011)
(0 0.013466467 0.51737621)
(0 0.01207214 0.51591524)
(0 0.010674379 0.51471409)
(0 0.009283026 0.51373228)
(0 0.0079036036 0.51293866)
(0 0.0065385193 0.51230926)
(0 0.0051880718 0.51182587)
(0 0.0038511339 0.51147505)
(0 0.0025256669 0.51124738)
(0 0.0012091087 0.51113707)
(0 -0.00010130094 0.51114164)
(0 -0.0014082239 0.51126185)
(0 -0.0027139106 0.51150175)
(0 -0.0040198533 0.51186885)
(0 -0.0053263673 0.51237455)
(0 -0.0066320414 0.51303474)
(0 -0.0079328858 0.51387072)
(0 -0.0092213229 0.51491053)
(0 -0.010484731 0.51619117)
(0 -0.011702047 0.51776158)
(0 -0.012844044 0.51968805)
(0 -0.013859895 0.52206058)
(0 -0.014676989 0.52502477)
(0 -0.015228475 0.52906147)
(0 -0.01514897 0.53536972)
(0 -0.01389609 0.54318964)
(0 -0.0090469883 0.53448723)
(0 -0.0010116285 0.44896295)
(0 0.001742371 0.204721)
(0 -0.00028243241 0.17760812)
(0 0.0015815933 0.43168741)
(0 0.010284358 0.53717392)
(0 0.016685074 0.55402257)
(0 0.01915144 0.54551285)
(0 0.019715298 0.53713369)
(0 0.019430117 0.53183923)
(0 0.018757792 0.52807861)
(0 0.017814209 0.52505273)
(0 0.016689615 0.52255013)
(0 0.01545412 0.52047165)
(0 0.014149303 0.51874153)
(0 0.012805014 0.51730142)
(0 0.011440705 0.51610634)
(0 0.010069071 0.51512147)
(0 0.0086981345 0.51431961)
(0 0.0073325447 0.51367954)
(0 0.0059746238 0.51318495)
(0 0.0046250852 0.51282364)
(0 0.0032835903 0.51258702)
(0 0.001949177 0.51246966)
(0 0.00062062332 0.51246919)
(0 -0.00070320877 0.5125861)
(0 -0.0020230513 0.51282383)
(0 -0.0033388121 0.51318889)
(0 -0.0046491581 0.51369119)
(0 -0.0059509416 0.51434436)
(0 -0.0072383306 0.51516658)
(0 -0.0085017679 0.51618137)
(0 -0.0097266601 0.51741925)
(0 -0.010889997 0.51891991)
(0 -0.011959546 0.52073533)
(0 -0.012885631 0.5229367)
(0 -0.013586464 0.52563974)
(0 -0.01399051 0.5292238)
(0 -0.013698271 0.53450161)
(0 -0.012006136 0.53986633)
(0 -0.0071453145 0.52813946)
(0 3.5092084e-05 0.44422518)
(0 0.00093848392 0.205264)
(0 0.0001860527 0.17808644)
(0 0.0012037263 0.42819923)
(0 0.0085773227 0.53030688)
(0 0.014918149 0.54934158)
(0 0.017898151 0.5436968)
(0 0.018844718 0.53681838)
(0 0.018832528 0.53218804)
(0 0.018381448 0.52879283)
(0 0.017625049 0.52600796)
(0 0.01666169 0.52366553)
(0 0.015561406 0.52169052)
(0 0.014369365 0.52002554)
(0 0.01311838 0.51862449)
(0 0.011830601 0.51745085)
(0 0.010521353 0.51647573)
(0 0.0092010536 0.51567608)
(0 0.0078765831 0.51503364)
(0 0.0065523297 0.51453417)
(0 0.0052309319 0.51416688)
(0 0.0039138633 0.51392406)
(0 0.0026018933 0.51380077)
(0 0.0012954789 0.51379474)
(0 -4.848383e-06 0.51390622)
(0 -0.001298159 0.51413802)
(0 -0.0025826479 0.51449561)
(0 -0.0038552176 0.51498727)
(0 -0.0051108921 0.51562439)
(0 -0.0063419501 0.51642189)
(0 -0.0075368909 0.51739877)
(0 -0.008679172 0.51857906)
(0 -0.0097442827 0.5199933)
(0 -0.010697412 0.52167961)
(0 -0.011490495 0.52368985)
(0 -0.012038378 0.52610828)
(0 -0.012259385 0.52919265)
(0 -0.011777996 0.53337966)
(0 -0.009866816 0.53649028)
(0 -0.0053992443 0.52249869)
(0 0.0003948599 0.44083502)
(0 0.00039477395 0.20572508)
(0 0.00043842084 0.17838899)
(0 0.0012990976 0.42570712)
(0 0.0071166974 0.52435293)
(0 0.012894211 0.54469219)
(0 0.016031621 0.54154633)
(0 0.017264766 0.53619016)
(0 0.017525156 0.53228224)
(0 0.017314244 0.52928594)
(0 0.016774845 0.52676862)
(0 0.016007125 0.5246113)
(0 0.015079312 0.52276299)
(0 0.014038865 0.52118392)
(0 0.012920626 0.51984012)
(0 0.011749048 0.51870358)
(0 0.010541811 0.51775142)
(0 0.0093115885 0.5169649)
(0 0.0080674233 0.51632884)
(0 0.0068157529 0.51583121)
(0 0.0055611596 0.51546273)
(0 0.0043069713 0.51521668)
(0 0.0030557468 0.51508867)
(0 0.0018096861 0.51507655)
(0 0.000571053 0.51518034)
(0 -0.00065749825 0.51540219)
(0 -0.0018724097 0.51574649)
(0 -0.003068793 0.51621987)
(0 -0.004239849 0.51683139)
(0 -0.005376018 0.5175927)
(0 -0.0064640003 0.51851831)
(0 -0.0074854766 0.51962592)
(0 -0.0084148839 0.52093718)
(0 -0.0092158799 0.52247731)
(0 -0.0098419447 0.52427904)
(0 -0.010211153 0.52639568)
(0 -0.010233992 0.52896853)
(0 -0.0095985413 0.53211813)
(0 -0.0076763065 0.53336907)
(0 -0.0038717208 0.51790243)
(0 0.00035931514 0.43853932)
(0 0.00010071498 0.20600194)
(0 0.00053315574 0.17849444)
(0 0.0015738236 0.42394687)
(0 0.0059214436 0.5195743)
(0 0.010803294 0.54047214)
(0 0.013792054 0.53929155)
(0 0.015190066 0.53531671)
(0 0.015686785 0.53212481)
(0 0.015708982 0.52954277)
(0 0.015393487 0.52731116)
(0 0.014835512 0.52535882)
(0 0.014099651 0.52365744)
(0 0.013233668 0.52218329)
(0 0.012273212 0.52091391)
(0 0.011244324 0.51982957)
(0 0.010166522 0.51891332)
(0 0.0090543886 0.51815076)
(0 0.0079188872 0.51752987)
(0 0.0067683332 0.5170409)
(0 0.0056091308 0.51667617)
(0 0.0044463713 0.51643001)
(0 0.0032843303 0.51629861)
(0 0.0021268877 0.51627999)
(0 0.00097796656 0.51637395)
(0 -0.00015812839 0.51658199)
(0 -0.0012761991 0.51690737)
(0 -0.0023697104 0.51735509)
(0 -0.0034302405 0.51793185)
(0 -0.0044466705 0.5186461)
(0 -0.0054043089 0.51950798)
(0 -0.0062836225 0.5205292)
(0 -0.0070587291 0.52172308)
(0 -0.0076935206 0.52310343)
(0 -0.0081436646 0.52468553)
(0 -0.0083361551 0.52649462)
(0 -0.0081824895 0.52857933)
(0 -0.0074503709 0.53083083)
(0 -0.0056782956 0.53069334)
(0 -0.0026461481 0.51443761)
(0 0.00018151591 0.43703482)
(0 -9.4475419e-06 0.20611779)
(0 0.00054064113 0.17845608)
(0 0.0018314518 0.42269035)
(0 0.0050121482 0.51598063)
(0 0.0088877976 0.5369162)
(0 0.011525638 0.53713074)
(0 0.012961274 0.53429258)
(0 0.01362474 0.53175444)
(0 0.013841883 0.52957925)
(0 0.013728436 0.52763914)
(0 0.013368743 0.52590353)
(0 0.012821423 0.52436366)
(0 0.012132085 0.52300954)
(0 0.011335645 0.52182905)
(0 0.010458641 0.52081011)
(0 0.0095216094 0.5199414)
(0 0.0085404444 0.51921273)
(0 0.0075275761 0.5186152)
(0 0.0064928408 0.51814135)
(0 0.0054441788 0.51778513)
(0 0.0043882046 0.51754196)
(0 0.0033306965 0.51740865)
(0 0.0022770137 0.51738342)
(0 0.0012325275 0.51746584)
(0 0.00020297346 0.5176568)
(0 -0.00080507745 0.51795848)
(0 -0.0017837615 0.51837424)
(0 -0.0027234273 0.51890855)
(0 -0.0036119042 0.51956681)
(0 -0.004433766 0.52035511)
(0 -0.005169175 0.52127974)
(0 -0.0057929571 0.52234669)
(0 -0.0062712633 0.52356022)
(0 -0.0065635031 0.52492144)
(0 -0.006609208 0.52643283)
(0 -0.0063308999 0.52808107)
(0 -0.0055726096 0.52961643)
(0 -0.0040468926 0.52853428)
(0 -0.0017592611 0.51198451)
(0 2.4911242e-05 0.43606084)
(0 -1.2827762e-05 0.20612574)
(0 0.00051693696 0.17834332)
(0 0.0019899583 0.42176363)
(0 0.0043726044 0.5133915)
(0 0.0073208305 0.53408521)
(0 0.0095210166 0.53519749)
(0 0.01088716 0.53321985)
(0 0.011633509 0.53123783)
(0 0.011986346 0.52943972)
(0 0.012031205 0.52778239)
(0 0.011837729 0.52626488)
(0 0.011456205 0.52489328)
(0 0.010927759 0.52366851)
(0 0.010284972 0.52258706)
(0 0.0095535926 0.5216435)
(0 0.0087541807 0.52083158)
(0 0.0079031779 0.52014497)
(0 0.007013865 0.51957775)
(0 0.0060971039 0.51912463)
(0 0.0051619565 0.51878119)
(0 0.0042162037 0.5185439)
(0 0.0032668026 0.51841023)
(0 0.0023202842 0.5183786)
(0 0.0013831566 0.51844841)
(0 0.00046225633 0.51861997)
(0 -0.0004348392 0.51889445)
(0 -0.0012993716 0.5192737)
(0 -0.0021209689 0.51976015)
(0 -0.0028870383 0.52035645)
(0 -0.0035821851 0.52106514)
(0 -0.004187282 0.52188794)
(0 -0.0046789636 0.52282486)
(0 -0.0050273225 0.52387282)
(0 -0.0051972722 0.5250229)
(0 -0.0051421158 0.52626169)
(0 -0.0048018 0.52754159)
(0 -0.0040822654 0.52854363)
(0 -0.0028351932 0.52686936)
(0 -0.0011728608 0.51031111)
(0 -5.8434748e-05 0.43542138)
(0 1.2711961e-05 0.20608427)
(0 0.00049353991 0.17821026)
(0 0.0020498706 0.42104719)
(0 0.0039488753 0.51154671)
(0 0.0061545164 0.53191051)
(0 0.0079225648 0.53355276)
(0 0.009149384 0.53218532)
(0 0.0099025673 0.53064979)
(0 0.010327673 0.52918275)
(0 0.010478704 0.52778651)
(0 0.010409431 0.52647804)
(0 0.010160274 0.52527314)
(0 0.0097662716 0.52418044)
(0 0.00925635 0.52320305)
(0 0.0086542956 0.52234086)
(0 0.0079797334 0.5215919)
(0 0.0072488626 0.52095322)
(0 0.00647516 0.52042152)
(0 0.0056699648 0.51999355)
(0 0.004842991 0.51966636)
(0 0.0040027727 0.51943747)
(0 0.003157068 0.51930493)
(0 0.0023132202 0.51926742)
(0 0.001478516 0.51932421)
(0 0.00066051572 0.5194751)
(0 -0.00013259539 0.51972037)
(0 -0.00089162537 0.52006056)
(0 -0.0016060044 0.52049632)
(0 -0.0022633289 0.52102801)
(0 -0.0028489394 0.52165524)
(0 -0.0033452777 0.52237617)
(0 -0.003731673 0.52318641)
(0 -0.0039831237 0.52407782)
(0 -0.0040711909 0.52503557)
(0 -0.003962194 0.52603717)
(0 -0.0036147833 0.52702073)
(0 -0.0029790421 0.52764492)
(0 -0.0019970182 0.5256213)
(0 -0.00080859788 0.50917161)
(0 -7.8948821e-05 0.43497507)
(0 3.1855201e-05 0.20603934)
(0 0.00048089844 0.17808655)
(0 0.0020470415 0.42046749)
(0 0.0036719538 0.51020206)
(0 0.0053406918 0.53026059)
(0 0.0067354723 0.53219856)
(0 0.0077928713 0.53124616)
(0 0.0084987427 0.53005428)
(0 0.008942797 0.52886512)
(0 0.0091520153 0.52769966)
(0 0.0091655098 0.52658308)
(0 0.0090136011 0.52553614)
(0 0.0087246189 0.52457223)
(0 0.0083230578 0.52369894)
(0 0.0078299218 0.52292011)
(0 0.0072631576 0.52223709)
(0 0.0066380557 0.52164969)
(0 0.005967707 0.52115685)
(0 0.0052634187 0.52075705)
(0 0.0045351061 0.52044866)
(0 0.0037916514 0.52023012)
(0 0.003041239 0.52010007)
(0 0.0022916658 0.52005743)
(0 0.0015506461 0.52010138)
(0 0.00082609888 0.52023132)
(0 0.00012644177 0.52044677)
(0 -0.00053910988 0.52074723)
(0 -0.0011602392 0.5211319)
(0 -0.0017252188 0.52159934)
(0 -0.0022206432 0.52214696)
(0 -0.0026310677 0.52277038)
(0 -0.002939002 0.52346238)
(0 -0.0031245447 0.52421185)
(0 -0.00316606 0.52500136)
(0 -0.0030408699 0.52580499)
(0 -0.0027237387 0.52655829)
(0 -0.0021927493 0.52692178)
(0 -0.0014378661 0.5246965)
(0 -0.00058467645 0.5083725)
(0 -6.4908142e-05 0.43464221)
(0 3.8629655e-05 0.20600997)
(0 0.00047796348 0.17798202)
(0 0.0020178639 0.41998422)
(0 0.0034813783 0.50917769)
(0 0.004785005 0.52899801)
(0 0.0058828502 0.53110175)
(0 0.0067713803 0.5304284)
(0 0.007400664 0.52949463)
(0 0.0078271569 0.52853119)
(0 0.0080578725 0.52756287)
(0 0.0081199827 0.52661636)
(0 0.0080346609 0.52571381)
(0 0.0078237941 0.52487083)
(0 0.0075072694 0.52409768)
(0 0.0071029302 0.52340076)
(0 0.0066265996 0.52278383)
(0 0.0060922027 0.52224878)
(0 0.005512006 0.52179632)
(0 0.0048968766 0.52142635)
(0 0.0042565532 0.52113835)
(0 0.0035999147 0.52093156)
(0 0.0029352415 0.52080514)
(0 0.0022704668 0.52075823)
(0 0.0016134229 0.52078998)
(0 0.00097207612 0.52089948)
(0 0.00035476031 0.5210857)
(0 -0.0002296027 0.52134731)
(0 -0.00077128151 0.52168243)
(0 -0.001259543 0.52208834)
(0 -0.0016825255 0.52256094)
(0 -0.002027104 0.52309427)
(0 -0.0022790321 0.52367957)
(0 -0.0024231087 0.5243045)
(0 -0.002443803 0.52495137)
(0 -0.0023269094 0.52559451)
(0 -0.0020590307 0.52617245)
(0 -0.0016339551 0.52635625)
(0 -0.0010612538 0.52401031)
(0 -0.00043774056 0.50778806)
(0 -4.036291e-05 0.43438563)
(0 3.6437741e-05 0.20599732)
(0 0.00048029642 0.1778958)
(0 0.0019848849 0.41957672)
(0 0.0033368514 0.5083625)
(0 0.0043948931 0.52801093)
(0 0.005266499 0.53021644)
(0 0.0060040603 0.52973445)
(0 0.0065474357 0.52899328)
(0 0.0069362817 0.52820972)
(0 0.0071645271 0.52740587)
(0 0.0072506124 0.52660626)
(0 0.0072082124 0.52583212)
(0 0.0070536217 0.52509949)
(0 0.0068024252 0.52441974)
(0 0.0064693146 0.52380076)
(0 0.0060678357 0.52324785)
(0 0.0056103102 0.52276436)
(0 0.0051079078 0.52235229)
(0 0.004570771 0.52201264)
(0 0.0040081807 0.52174578)
(0 0.0034287378 0.5215516)
(0 0.0028405543 0.52142969)
(0 0.0022514425 0.52137941)
(0 0.0016691039 0.52139991)
(0 0.0011013087 0.5214901)
(0 0.00055606949 0.52164853)
(0 4.1795813e-05 0.5218733)
(0 -0.000432571 0.52216182)
(0 -0.00085744943 0.5225105)
(0 -0.0012226046 0.52291437)
(0 -0.0015171697 0.52336666)
(0 -0.0017298831 0.5238581)
(0 -0.00184951 0.5243763)
(0 -0.0018654593 0.52490473)
(0 -0.001769534 0.5254199)
(0 -0.0015559785 0.52586509)
(0 -0.0012261851 0.52592228)
(0 -0.00079442046 0.52349725)
(0 -0.00032960309 0.5073462)
(0 -1.8081346e-05 0.43418774)
(0 3.0172611e-05 0.20599727)
(0 0.00048421952 0.17782365)
(0 0.0019570149 0.41923347)
(0 0.0032175133 0.5076954)
(0 0.0041034558 0.5272211)
(0 0.0048042823 0.52949855)
(0 0.0054147164 0.52915342)
(0 0.0058751485 0.52855719)
(0 0.0062184549 0.527916)
(0 0.0064308062 0.52724752)
(0 0.0065248448 0.52657268)
(0 0.0065085643 0.52591059)
(0 0.0063937628 0.52527649)
(0 0.0061923109 0.5246819)
(0 0.0059160197 0.52413531)
(0 0.0055762251 0.52364284)
(0 0.0051835907 0.52320875)
(0 0.0047480628 0.52283593)
(0 0.0042788933 0.52252617)
(0 0.0037847186 0.52228049)
(0 0.0032736681 0.52209931)
(0 0.0027534895 0.52198256)
(0 0.0022316822 0.5219298)
(0 0.0017156315 0.52194021)
(0 0.0012127364 0.52201259)
(0 0.00073052822 0.52214526)
(0 0.00027676951 0.52233595)
(0 -0.00014048044 0.52258164)
(0 -0.00051282647 0.52287828)
(0 -0.00083159448 0.52322053)
(0 -0.001087949 0.52360136)
(0 -0.001273177 0.52401166)
(0 -0.0013791773 0.52443982)
(0 -0.0013990461 0.52487104)
(0 -0.001328547 0.52528477)
(0 -0.0011663301 0.52562886)
(0 -0.0009167506 0.52559367)
(0 -0.00059291571 0.52311125)
(0 -0.00024258053 0.50700813)
(0 -1.2903933e-06 0.43403886)
(0 2.3967055e-05 0.20600466)
(0 0.00048784867 0.17776179)
(0 0.001935264 0.41894605)
(0 0.0031150911 0.50714347)
(0 0.0038717044 0.52657813)
(0 0.0044415388 0.52891218)
(0 0.0049477005 0.52866957)
(0 0.0053337658 0.52818435)
(0 0.0056309447 0.52765605)