/*--------------------------------*- C++ -*----------------------------------*\
  =========                 |
  \\      /  F ield         | OpenFOAM: The Open Source CFD Toolbox
   \\    /   O peration     | Website:  https://openfoam.org
    \\  /    A nd           | Version:  10
     \\/     M anipulation  |
\*---------------------------------------------------------------------------*/
FoamFile
{
    format      ascii;
    class       volVectorField;
    location    "0.03";
    object      U_0;
}
// * * * * * * * * * * * * * * * * * * * * * * * * * * * * * * * * * * * * * //

dimensions      [0 1 -1 0 0 0 0];

internalField   nonuniform List<vector> 
4000
(
(0 0.018505672 0.47779292)
(0 0.023278442 0.50882022)
(0 0.0079776224 0.50053012)
(0 0.005443352 0.50033869)
(0 0.0040854023 0.50025583)
(0 0.0030950187 0.50016651)
(0 0.0024091602 0.50011707)
(0 0.0019213066 0.50008742)
(0 0.0015568818 0.50006711)
(0 0.0012757357 0.50005278)
(0 0.0010532778 0.50004249)
(0 0.00087308107 0.50003496)
(0 0.0007238922 0.50002935)
(0 0.00059778525 0.50002513)
(0 0.00048901129 0.50002194)
(0 0.00039328748 0.50001954)
(0 0.00030733525 0.50001775)
(0 0.00022856806 0.50001645)
(0 0.00015487279 0.50001557)
(0 8.4449961e-05 0.50001505)
(0 1.5690412e-05 0.50001486)
(0 -5.2929873e-05 0.50001499)
(0 -0.00012294309 0.50001546)
(0 -0.00019598346 0.5000163)
(0 -0.00027389669 0.50001757)
(0 -0.00035887422 0.50001934)
(0 -0.00045362948 0.50002177)
(0 -0.00056164481 0.50002503)
(0 -0.00068753215 0.5000294)
(0 -0.00083758223 0.5000353)
(0 -0.001020647 0.50004336)
(0 -0.0012495617 0.50005457)
(0 -0.0015434575 0.50007045)
(0 -0.0019332826 0.50009355)
(0 -0.002476121 0.50013159)
(0 -0.003257798 0.50020031)
(0 -0.0043478404 0.50027392)
(0 -0.0063591294 0.50043983)
(0 -0.017399144 0.50671044)
(0 -0.013447547 0.47982975)
(0 0.03703992 0.44840562)
(0 0.050214903 0.53222908)
(0 0.021319313 0.50801268)
(0 0.015573761 0.50357747)
(0 0.011864662 0.50240348)
(0 0.0090026423 0.50159568)
(0 0.0070533851 0.50112792)
(0 0.0056485688 0.50083684)
(0 0.0045881895 0.50063953)
(0 0.0037668135 0.50050181)
(0 0.0031148666 0.50040335)
(0 0.0025852599 0.50033139)
(0 0.0021457219 0.50027797)
(0 0.0017733987 0.50023788)
(0 0.0014516406 0.50020764)
(0 0.0011680107 0.50018487)
(0 0.00091296787 0.50016791)
(0 0.00067897219 0.50015562)
(0 0.00045985595 0.50014725)
(0 0.00025036203 0.50014228)
(0 4.5786819e-05 0.50014046)
(0 -0.00015832239 0.50014169)
(0 -0.00036644061 0.50014609)
(0 -0.0005833385 0.50015397)
(0 -0.00081439907 0.50016587)
(0 -0.0010660048 0.50018264)
(0 -0.0013460452 0.50020554)
(0 -0.0016646265 0.50023639)
(0 -0.0020351001 0.50027789)
(0 -0.0024756069 0.50033405)
(0 -0.0030115378 0.500411)
(0 -0.0036796637 0.50051854)
(0 -0.0045341591 0.50067235)
(0 -0.0056567047 0.50089871)
(0 -0.0071984163 0.5012597)
(0 -0.0094445513 0.50188653)
(0 -0.01241327 0.50283176)
(0 -0.016665509 0.5060652)
(0 -0.03791977 0.52515623)
(0 -0.02745482 0.45075361)
(0 0.039260697 0.41105468)
(0 0.060091082 0.54930834)
(0 0.030711113 0.52171142)
(0 0.023323246 0.51004802)
(0 0.018197457 0.50652059)
(0 0.014062004 0.50444027)
(0 0.011182307 0.50318047)
(0 0.0090339204 0.50236765)
(0 0.0073815565 0.50181343)
(0 0.0060880649 0.50142579)
(0 0.0050524513 0.50114782)
(0 0.0042052811 0.50094427)
(0 0.0034982128 0.50079297)
(0 0.0028964143 0.50067934)
(0 0.0023742237 0.50059357)
(0 0.001912314 0.50052892)
(0 0.0014957585 0.50048074)
(0 0.0011126959 0.50044583)
(0 0.00075338161 0.50042199)
(0 0.00040948238 0.50040782)
(0 7.3527085e-05 0.50040256)
(0 -0.00026156104 0.50040598)
(0 -0.00060289005 0.50041838)
(0 -0.00095802165 0.50044063)
(0 -0.0013354614 0.50047428)
(0 -0.0017452504 0.50052171)
(0 -0.0021997348 0.50058645)
(0 -0.0027146263 0.50067369)
(0 -0.0033105194 0.50079099)
(0 -0.0040150978 0.5009496)
(0 -0.0048664654 0.5011666)
(0 -0.0059188649 0.501469)
(0 -0.0072509243 0.50190054)
(0 -0.0089696754 0.50253192)
(0 -0.011249576 0.50350462)
(0 -0.01449268 0.50511711)
(0 -0.018607883 0.50782996)
(0 -0.02371722 0.51627467)
(0 -0.045875362 0.53909978)
(0 -0.030107859 0.41638503)
(0 0.033977041 0.36424907)
(0 0.061825224 0.55496018)
(0 0.037276426 0.53704216)
(0 0.028460841 0.51832519)
(0 0.022597159 0.51181012)
(0 0.017906386 0.50830108)
(0 0.014512652 0.50606198)
(0 0.011868627 0.50455738)
(0 0.0097879951 0.503516)
(0 0.0081318813 0.50277984)
(0 0.0067869611 0.50224746)
(0 0.005674356 0.50185539)
(0 0.0047372308 0.50156275)
(0 0.0039334579 0.50134227)
(0 0.0032314417 0.50117541)
(0 0.002607041 0.50104938)
(0 0.0020413844 0.50095529)
(0 0.00151933 0.50088698)
(0 0.0010283393 0.50084025)
(0 0.00055762576 0.5008124)
(0 9.7481548e-05 0.50080192)
(0 -0.0003613031 0.50080838)
(0 -0.00082796974 0.50083237)
(0 -0.0013123123 0.50087555)
(0 -0.0018252838 0.50094087)
(0 -0.0023797151 0.50103291)
(0 -0.0029912315 0.50115842)
(0 -0.0036794867 0.50132722)
(0 -0.0044698826 0.50155362)
(0 -0.0053959831 0.50185868)
(0 -0.0065027617 0.50227391)
(0 -0.0078520229 0.50284795)
(0 -0.0095320591 0.50365849)
(0 -0.01165323 0.50482671)
(0 -0.014351239 0.50655733)
(0 -0.018045128 0.50926664)
(0 -0.022761459 0.51412378)
(0 -0.028690724 0.52784703)
(0 -0.047929046 0.54443118)
(0 -0.02738978 0.37545323)
(0 0.026456524 0.31908536)
(0 0.059565479 0.55147611)
(0 0.041471211 0.55070051)
(0 0.03160892 0.52701325)
(0 0.0253459 0.51737152)
(0 0.020566404 0.51254404)
(0 0.016973337 0.50935527)
(0 0.014068149 0.50713193)
(0 0.011733283 0.50556238)
(0 0.0098374521 0.50443501)
(0 0.008270486 0.50360968)
(0 0.0069555438 0.50299654)
(0 0.0058345596 0.50253582)
(0 0.0048631232 0.50218685)
(0 0.0040071999 0.50192161)
(0 0.0032402672 0.50172057)
(0 0.0025412457 0.50157005)
(0 0.0018929891 0.50146047)
(0 0.0012811386 0.50138529)
(0 0.00069323455 0.50134028)
(0 0.00011800011 0.50132309)
(0 -0.00045528751 0.50133302)
(0 -0.001037373 0.50137096)
(0 -0.0016395821 0.5014395)
(0 -0.0022744753 0.50154322)
(0 -0.0029566034 0.5016892)
(0 -0.0037034465 0.50188782)
(0 -0.0045366365 0.50215409)
(0 -0.0054836009 0.50250965)
(0 -0.0065798295 0.50298593)
(0 -0.0078715335 0.50362908)
(0 -0.0094193366 0.5045081)
(0 -0.011309234 0.50573014)
(0 -0.013648711 0.50745797)
(0 -0.01652428 0.50992985)
(0 -0.020311545 0.51363633)
(0 -0.025326501 0.52068428)
(0 -0.032059676 0.53851611)
(0 -0.047094659 0.54275562)
(0 -0.022733269 0.33581974)
(0 0.01872995 0.28156736)
(0 0.054453425 0.54239276)
(0 0.042984688 0.5614496)
(0 0.033163795 0.53557741)
(0 0.026823607 0.52283569)
(0 0.022216283 0.51675889)
(0 0.018635592 0.51273373)
(0 0.015656956 0.50985391)
(0 0.013217282 0.50778098)
(0 0.011194143 0.50626676)
(0 0.0094899957 0.50514347)
(0 0.0080367241 0.50430034)
(0 0.006780098 0.50366147)
(0 0.0056775771 0.50317425)
(0 0.0046958111 0.50280187)
(0 0.0038081995 0.50251831)
(0 0.0029931788 0.50230515)
(0 0.0022329092 0.50214942)
(0 0.0015122366 0.50204218)
(0 0.00081786448 0.50197763)
(0 0.00013767026 0.50195252)
(0 -0.00053990533 0.50196586)
(0 -0.0012264242 0.50201884)
(0 -0.0019339889 0.50211499)
(0 -0.0026758779 0.50226051)
(0 -0.0034672518 0.50246495)
(0 -0.0043260128 0.50274226)
(0 -0.0052738819 0.50311243)
(0 -0.006337778 0.50360391)
(0 -0.0075517618 0.50425744)
(0 -0.0089592194 0.5051318)
(0 -0.010614409 0.50631235)
(0 -0.012593437 0.50792769)
(0 -0.014999726 0.51017066)
(0 -0.017885061 0.51330426)
(0 -0.021550506 0.51793795)
(0 -0.026569983 0.52718051)
(0 -0.033485351 0.54738175)
(0 -0.043995681 0.53662077)
(0 -0.017396009 0.30204237)
(0 0.01180545 0.2514756)
(0 0.047414212 0.52994113)
(0 0.041903445 0.56884658)
(0 0.033295815 0.54364659)
(0 0.027237216 0.52809199)
(0 0.022984172 0.52076346)
(0 0.019590783 0.51601553)
(0 0.016693303 0.51257058)
(0 0.014270103 0.51004914)
(0 0.012214626 0.50817996)
(0 0.010448464 0.50677639)
(0 0.0089155796 0.5057119)
(0 0.0075688816 0.50489807)
(0 0.006370753 0.5042727)
(0 0.0052909451 0.50379166)
(0 0.0043046844 0.50342337)
(0 0.0033914304 0.5031452)
(0 0.0025338429 0.5029411)
(0 0.0017169349 0.50279994)
(0 0.00092737513 0.50271441)
(0 0.0001529025 0.50268043)
(0 -0.00061821402 0.5026967)
(0 -0.0013976814 0.50276468)
(0 -0.0021976486 0.50288872)
(0 -0.0030312672 0.50307648)
(0 -0.0039132825 0.50333971)
(0 -0.00486074 0.50369547)
(0 -0.0058938413 0.50416801)
(0 -0.0070369618 0.50479143)
(0 -0.0083201406 0.50561399)
(0 -0.0097810358 0.50670438)
(0 -0.011464601 0.50816063)
(0 -0.013431349 0.51012669)
(0 -0.01577354 0.51281658)
(0 -0.018517946 0.51652587)
(0 -0.021891152 0.52207157)
(0 -0.026603947 0.53337755)
(0 -0.032860689 0.55394856)
(0 -0.039105497 0.5276167)
(0 -0.012035591 0.27432396)
(0 0.0062414437 0.22752897)
(0 0.039522915 0.51561826)
(0 0.038847126 0.57281416)
(0 0.03222775 0.55069108)
(0 0.026755433 0.53296003)
(0 0.022988014 0.52443136)
(0 0.019927679 0.51907965)
(0 0.017236497 0.51517467)
(0 0.014926302 0.51227579)
(0 0.012915793 0.51010013)
(0 0.0111501 0.50844891)
(0 0.0095873903 0.50718425)
(0 0.0081902143 0.50620876)
(0 0.0069280688 0.5054533)
(0 0.0057755388 0.50486821)
(0 0.0047111199 0.50441756)
(0 0.0037164831 0.5040754)
(0 0.0027757608 0.50382313)
(0 0.0018749429 0.50364775)
(0 0.0010013566 0.50354072)
(0 0.00014322295 0.50349716)
(0 -0.00071077516 0.50351552)
(0 -0.0015718969 0.50359743)
(0 -0.002451704 0.50374789)
(0 -0.0033625007 0.50397571)
(0 -0.0043177684 0.50429439)
(0 -0.0053326643 0.50472342)
(0 -0.0064246112 0.50529025)
(0 -0.0076139081 0.50603322)
(0 -0.0089245939 0.50700596)
(0 -0.010386161 0.50828425)
(0 -0.012031971 0.5099754)
(0 -0.013902619 0.51223388)
(0 -0.016069256 0.51528626)
(0 -0.01853519 0.5194681)
(0 -0.021475803 0.52586815)
(0 -0.025624798 0.53885414)
(0 -0.030545591 0.55792046)
(0 -0.033125587 0.51685233)
(0 -0.0071138964 0.25199112)
(0 0.0021559549 0.20931885)
(0 0.031615414 0.5007849)
(0 0.034566657 0.57367717)
(0 0.030281016 0.55626296)
(0 0.02561808 0.53721025)
(0 0.022416696 0.52764099)
(0 0.019782166 0.52182199)
(0 0.017380189 0.51757772)
(0 0.015249836 0.51438804)
(0 0.013339682 0.51196746)
(0 0.011619929 0.51011211)
(0 0.01006417 0.5086776)
(0 0.00864635 0.50756134)
(0 0.0073444514 0.50668998)
(0 0.0061389864 0.5060103)
(0 0.0050126796 0.50548345)
(0 0.0039502256 0.50508113)
(0 0.0029379148 0.50478292)
(0 0.0019633034 0.50457443)
(0 0.0010148943 0.50444613)
(0 8.1861808e-05 0.50439255)
(0 -0.00084625234 0.50441186)
(0 -0.0017798092 0.50450578)
(0 -0.0027293117 0.50467972)
(0 -0.003705695 0.50494329)
(0 -0.004720579 0.50531114)
(0 -0.0057865288 0.50580432)
(0 -0.0069173439 0.50645229)
(0 -0.0081282534 0.50729595)
(0 -0.0094360164 0.50839201)
(0 -0.010860153 0.50982008)
(0 -0.01242084 0.51169258)
(0 -0.01413679 0.51416878)
(0 -0.016051836 0.51747884)
(0 -0.01814401 0.522002)
(0 -0.020555902 0.52911066)
(0 -0.023958509 0.54319356)
(0 -0.027111172 0.55931874)
(0 -0.026702517 0.50535413)
(0 -0.0029099399 0.23488551)
(0 -0.00056545794 0.19654989)
(0 0.024203859 0.4865522)
(0 0.029742864 0.57201675)
(0 0.027840677 0.5601579)
(0 0.024147901 0.54067986)
(0 0.021555987 0.53031569)
(0 0.019379575 0.52417464)
(0 0.017300621 0.51972047)
(0 0.015381122 0.51633739)
(0 0.013599005 0.5137421)
(0 0.011948865 0.51173306)
(0 0.010419763 0.51016476)
(0 0.0089976627 0.50893343)
(0 0.0076694565 0.50796431)
(0 0.0064220145 0.50720268)
(0 0.0052427368 0.5066083)
(0 0.0041197451 0.50615164)
(0 0.0030418546 0.50581118)
(0 0.0019985229 0.50557168)
(0 0.00097973732 0.50542296)
(0 -2.4088179e-05 0.5053591)
(0 -0.0010222831 0.50537805)
(0 -0.0020240422 0.50548152)
(0 -0.0030385408 0.50567508)
(0 -0.0040750666 0.5059687)
(0 -0.005143087 0.50637755)
(0 -0.0062522663 0.50692332)
(0 -0.0074124415 0.50763619)
(0 -0.0086334403 0.5085578)
(0 -0.0099244184 0.50974543)
(0 -0.011294329 0.51127893)
(0 -0.012749927 0.51327092)
(0 -0.014288504 0.51587866)
(0 -0.015925662 0.51932828)
(0 -0.017613293 0.52404534)
(0 -0.01945401 0.53164161)
(0 -0.021997288 0.54614076)
(0 -0.023173548 0.55840534)
(0 -0.020336628 0.49391939)
(0 0.000349527 0.22285968)
(0 -0.0020737295 0.18845094)
(0 0.01759606 0.47361288)
(0 0.024965103 0.5684197)
(0 0.025319937 0.56234348)
(0 0.022715251 0.54329125)
(0 0.020750066 0.53244114)
(0 0.019013131 0.52612487)
(0 0.017248562 0.52158733)
(0 0.015537161 0.51810897)
(0 0.013883588 0.51541056)
(0 0.012305186 0.51329983)
(0 0.010805393 0.51163556)
(0 0.009381639 0.51031655)
(0 0.0080292587 0.50926938)
(0 0.0067412786 0.50843988)
(0 0.0055097296 0.50778791)
(0 0.0043261855 0.50728373)
(0 0.0031820649 0.50690553)
(0 0.0020688327 0.50663772)
(0 0.00097808131 0.50646982)
(0 -9.8417615e-05 0.50639564)
(0 -0.0011687492 0.50641296)
(0 -0.0022408429 0.50652335)
(0 -0.0033224645 0.50673235)
(0 -0.0044212045 0.50704987)
(0 -0.0055443775 0.50749097)
(0 -0.0066988252 0.50807709)
(0 -0.0078905985 0.5088379)
(0 -0.0091244742 0.509814)
(0 -0.010402681 0.51106084)
(0 -0.011724405 0.51265504)
(0 -0.013084341 0.51470455)
(0 -0.014460761 0.51735802)
(0 -0.015843618 0.52083137)
(0 -0.017163448 0.52559533)
(0 -0.018450804 0.53340377)
(0 -0.02008948 0.54759644)
(0 -0.01930415 0.55552235)
(0 -0.014430461 0.48302347)
(0 0.0024537582 0.21532105)
(0 -0.0025480615 0.1839429)
(0 0.011994996 0.46232256)
(0 0.020679602 0.56333651)
(0 0.023062654 0.5628466)
(0 0.021631863 0.54501415)
(0 0.020285766 0.53404529)
(0 0.018935752 0.52770602)
(0 0.01745008 0.52320134)
(0 0.015922186 0.51971756)
(0 0.014380752 0.51698224)
(0 0.01286327 0.51481853)
(0 0.011385571 0.5130942)
(0 0.0099551729 0.51171398)
(0 0.0085747496 0.51060817)
(0 0.0072428333 0.50972494)
(0 0.0059556819 0.50902555)
(0 0.0047080856 0.50848103)
(0 0.0034939533 0.50806995)
(0 0.0023067188 0.50777688)
(0 0.001139586 0.50759134)
(0 -1.429371e-05 0.50750705)
(0 -0.0011617308 0.50752166)
(0 -0.0023093848 0.50763657)
(0 -0.0034636377 0.50785703)
(0 -0.0046304707 0.50819258)
(0 -0.0058152263 0.50865765)
(0 -0.0070222523 0.5092727)
(0 -0.0082543433 0.51006582)
(0 -0.0095120395 0.51107511)
(0 -0.010791995 0.51235219)
(0 -0.012085438 0.51396768)
(0 -0.013377527 0.51602074)
(0 -0.014631687 0.51864618)
(0 -0.01581605 0.52204387)
(0 -0.016851205 0.52671778)
(0 -0.017656834 0.53442687)
(0 -0.018403537 0.5475816)
(0 -0.015892923 0.55102469)
(0 -0.0093148343 0.47297516)
(0 0.0033423934 0.21129903)
(0 -0.0022533246 0.18193487)
(0 0.0075492593 0.45284887)
(0 0.017102213 0.55709403)
(0 0.021207898 0.56172811)
(0 0.020993413 0.5458428)
(0 0.020237011 0.5351725)
(0 0.019212425 0.52897269)
(0 0.017964096 0.52460263)
(0 0.016591945 0.52119001)
(0 0.015146267 0.51847501)
(0 0.01368058 0.51630092)
(0 0.01222063 0.51454856)
(0 0.010782236 0.51313127)
(0 0.0093740613 0.51198496)
(0 0.0079993106 0.51106155)
(0 0.0066579217 0.51032477)
(0 0.0053475749 0.50974719)
(0 0.0040644997 0.50930834)
(0 0.0028040264 0.50899334)
(0 0.0015609597 0.50879198)
(0 0.00032984976 0.50869808)
(0 -0.00089480875 0.5087092)
(0 -0.0021183924 0.50882652)
(0 -0.0033459258 0.5090549)
(0 -0.0045818733 0.5094032)
(0 -0.0058298025 0.50988486)
(0 -0.0070919268 0.51051882)
(0 -0.0083683822 0.51133084)
(0 -0.0096563707 0.5123555)
(0 -0.010948447 0.51363923)
(0 -0.01223001 0.51524473)
(0 -0.01347942 0.51725934)
(0 -0.014650697 0.51980082)
(0 -0.015693549 0.52304729)
(0 -0.016530677 0.52750814)
(0 -0.01695095 0.53479743)
(0 -0.016863165 0.54624014)
(0 -0.013045432 0.54531029)
(0 -0.0052306948 0.46409739)
(0 0.0032087667 0.20967198)
(0 -0.00153148 0.18146669)
(0 0.0043552801 0.44522475)
(0 0.014206751 0.55001102)
(0 0.019636447 0.55913655)
(0 0.020596112 0.54580069)
(0 0.020387174 0.53586489)
(0 0.019645475 0.52997402)
(0 0.018607899 0.52582344)
(0 0.017379312 0.52254394)
(0 0.016029126 0.51989688)
(0 0.014621562 0.51774868)
(0 0.013189926 0.51599636)
(0 0.011756564 0.5145638)
(0 0.010334888 0.51339393)
(0 0.008932023 0.51244344)
(0 0.0075511072 0.51167926)
(0 0.0061924503 0.51107611)
(0 0.0048544897 0.51061492)
(0 0.003534436 0.51028166)
(0 0.0022287389 0.51006664)
(0 0.00093342978 0.50996389)
(0 -0.00035560096 0.50997098)
(0 -0.0016423553 0.51008881)
(0 -0.002930449 0.51032176)
(0 -0.0042228216 0.51067788)
(0 -0.0055213466 0.51116934)
(0 -0.0068263144 0.51181321)
(0 -0.0081356112 0.51263246)
(0 -0.0094437549 0.51365756)
(0 -0.010740294 0.51492892)
(0 -0.012006609 0.51650032)
(0 -0.01321625 0.51844541)
(0 -0.014319138 0.52086334)
(0 -0.01524926 0.52390578)
(0 -0.015935937 0.52804624)
(0 -0.016054458 0.53462425)
(0 -0.015234725 0.54384659)
(0 -0.010622862 0.53886376)
(0 -0.0023300727 0.45670536)
(0 0.0024190295 0.20946793)
(0 -0.00072237288 0.1817691)
(0 0.002399656 0.43934172)
(0 0.011829927 0.54252216)
(0 0.018071065 0.55537094)
(0 0.020034345 0.54496051)
(0 0.020323299 0.53615224)
(0 0.019855434 0.53073319)
(0 0.019028688 0.52687054)
(0 0.017956686 0.52377332)
(0 0.016724682 0.52123381)
(0 0.015402424 0.51914299)
(0 0.014029028 0.51741604)
(0 0.012631898 0.51598865)
(0 0.0112283 0.51481166)
(0 0.0098287729 0.51384723)
(0 0.0084393515 0.513066)
(0 0.0070628529 0.51244525)
(0 0.005699912 0.51196762)
(0 0.0043496862 0.51162022)
(0 0.0030103858 0.51139401)
(0 0.0016796723 0.51128339)
(0 0.00035499233 0.51128593)
(0 -0.00096611498 0.51140232)
(0 -0.0022857161 0.51163637)
(0 -0.0036051027 0.51199517)
(0 -0.0049243904 0.51248952)
(0 -0.0062419625 0.51313435)
(0 -0.007553591 0.51394961)
(0 -0.008851414 0.51496135)
(0 -0.010122496 0.51620355)
(0 -0.011345377 0.51772067)
(0 -0.012489761 0.51957182)
(0 -0.013505119 0.5218369)
(0 -0.014313083 0.52463793)
(0 -0.014844647 0.52836932)
(0 -0.014713412 0.53401528)
(0 -0.013326236 0.54078028)
(0 -0.0084524935 0.5322688)
(0 -0.00058960627 0.45090766)
(0 0.0014772435 0.20989756)
(0 -6.9753552e-05 0.18229331)
(0 0.0014981473 0.43497875)
(0 0.0098166704 0.53519824)
(0 0.01627071 0.55088335)
(0 0.01893837 0.5434623)
(0 0.01966213 0.53605618)
(0 0.019481591 0.53124337)
(0 0.018886754 0.52772321)
(0 0.018003747 0.5248481)
(0 0.016928942 0.52245016)
(0 0.015733738 0.52044541)
(0 0.014461836 0.51876793)
(0 0.013144556 0.51736582)
(0 0.011802474 0.51619838)
(0 0.010449233 0.51523367)
(0 0.0090936156 0.51444638)
(0 0.0077409223 0.51381666)
(0 0.0063940358 0.5133291)
(0 0.0050541655 0.51297212)
(0 0.0037214225 0.51273752)
(0 0.0023952635 0.51262011)
(0 0.0010748667 0.51261757)
(0 -0.00024050611 0.51273031)
(0 -0.0015511992 0.51296155)
(0 -0.0028567 0.51331736)
(0 -0.0041552366 0.51380701)
(0 -0.005443194 0.51444317)
(0 -0.0067142082 0.51524261)
(0 -0.0079581322 0.5162268)
(0 -0.0091596851 0.51742317)
(0 -0.010295247 0.51886676)
(0 -0.011331189 0.5206022)
(0 -0.012218085 0.52268959)
(0 -0.01287066 0.52521999)
(0 -0.013213759 0.52847941)
(0 -0.012862634 0.53307789)
(0 -0.011124337 0.53745898)
(0 -0.0064698282 0.52614189)
(0 0.00021457699 0.44664923)
(0 0.00073399945 0.21044394)
(0 0.00033836104 0.18272295)
(0 0.0013275083 0.43185791)
(0 0.0080969213 0.528618)
(0 0.014182576 0.54619877)
(0 0.017186668 0.54151088)
(0 0.018256473 0.53560806)
(0 0.018370113 0.53148495)
(0 0.018028748 0.52834845)
(0 0.017368089 0.52572814)
(0 0.016489271 0.5235016)
(0 0.015462795 0.52160971)
(0 0.014335644 0.5200051)
(0 0.013141994 0.51864838)
(0 0.011905266 0.51750757)
(0 0.010641914 0.51655679)
(0 0.0093633217 0.51577507)
(0 0.0080772206 0.5151456)
(0 0.0067887519 0.51465513)
(0 0.005501232 0.51429357)
(0 0.0042167568 0.51405363)
(0 0.0029366815 0.51393065)
(0 0.0016620263 0.51392241)
(0 0.00039388792 0.51402908)
(0 -0.0008662457 0.51425323)
(0 -0.0021159739 0.51459987)
(0 -0.0033515688 0.51507661)
(0 -0.004567384 0.5156938)
(0 -0.0057549488 0.5164649)
(0 -0.0069019667 0.51740677)
(0 -0.0079909742 0.51854028)
(0 -0.0089967485 0.51989124)
(0 -0.0098832482 0.52149055)
(0 -0.010602489 0.52337845)
(0 -0.011069359 0.52561546)
(0 -0.011200093 0.52837382)
(0 -0.010661491 0.53192774)
(0 -0.0087979483 0.53425237)
(0 -0.0047140997 0.52096268)
(0 0.00039667285 0.44372209)
(0 0.00027358466 0.21084552)
(0 0.00053311606 0.1829454)
(0 0.0015316065 0.42967764)
(0 0.0066754014 0.52318234)
(0 0.011959909 0.54179009)
(0 0.014952302 0.53934411)
(0 0.016250571 0.53486732)
(0 0.016632808 0.53145355)
(0 0.01654475 0.52872484)
(0 0.016120715 0.52638354)
(0 0.015459358 0.52435304)
(0 0.014628169 0.5225979)
(0 0.013675492 0.521088)
(0 0.012637069 0.51979602)
(0 0.011538474 0.51869858)
(0 0.010398464 0.51777593)
(0 0.0092307043 0.51701153)
(0 0.0080451505 0.51639176)
(0 0.0068490683 0.51590566)
(0 0.005647801 0.51554472)
(0 0.0044453826 0.51530269)
(0 0.0032450421 0.51517547)
(0 0.0020496251 0.515161)
(0 0.00086203865 0.51525921)
(0 -0.00031442205 0.51547201)
(0 -0.0014755345 0.51580327)
(0 -0.0026157121 0.51625891)
(0 -0.00372743 0.51684691)
(0 -0.0048003516 0.5175774)
(0 -0.005820405 0.51846269)
(0 -0.0067684501 0.51951733)
(0 -0.0076184261 0.52075834)
(0 -0.0083335743 0.52220422)
(0 -0.0088678415 0.52387663)
(0 -0.0091430886 0.52580786)
(0 -0.0090724346 0.52807294)
(0 -0.0083994179 0.53068614)
(0 -0.0066033374 0.53141588)
(0 -0.0032700866 0.51694481)
(0 0.00027207959 0.44180212)
(0 5.2794413e-05 0.21105483)
(0 0.00058981349 0.18297864)
(0 0.0018257751 0.4281532)
(0 0.0055761789 0.51901283)
(0 0.0098557205 0.53797555)
(0 0.012579745 0.53718446)
(0 0.01397456 0.53392472)
(0 0.014562064 0.53117924)
(0 0.014695289 0.52886034)
(0 0.014492925 0.52681006)
(0 0.014044407 0.52499223)
(0 0.013411844 0.52339237)
(0 0.012642408 0.52199539)
(0 0.011771804 0.52078506)
(0 0.01082667 0.51974612)
(0 0.0098272605 0.51886471)
(0 0.0087889468 0.51812869)
(0 0.0077234767 0.51752764)
(0 0.0066399145 0.51705296)
(0 0.0055453766 0.51669778)
(0 0.0044456296 0.51645695)
(0 0.0033455966 0.51632697)
(0 0.0022497847 0.51630599)
(0 0.0011627332 0.5163937)
(0 8.9360375e-05 0.51659134)
(0 -0.00096452342 0.51690168)
(0 -0.0019917609 0.51732894)
(0 -0.0029833175 0.51787875)
(0 -0.003927476 0.51855802)
(0 -0.0048090389 0.51937476)
(0 -0.0056080835 0.52033771)
(0 -0.0062987732 0.52145592)
(0 -0.0068457898 0.52273735)
(0 -0.0072063346 0.52418796)
(0 -0.0073140761 0.52581628)
(0 -0.0070886914 0.52762815)
(0 -0.0063528185 0.52946585)
(0 -0.0047557994 0.52907296)
(0 -0.0021930377 0.51404309)
(0 8.329056e-05 0.44056574)
(0 -7.8920064e-06 0.21111369)
(0 0.00058150303 0.18289184)
(0 0.0020513599 0.42705597)
(0 0.004791229 0.51598339)
(0 0.0080829984 0.53488388)
(0 0.010402661 0.53519768)
(0 0.01177347 0.53288687)
(0 0.012480727 0.53072501)
(0 0.012777688 0.52879435)
(0 0.012756461 0.52703203)
(0 0.012492477 0.52543289)
(0 0.012039986 0.52399898)
(0 0.011442395 0.52272742)
(0 0.010733635 0.52161148)
(0 0.0099400657 0.52064307)
(0 0.0090824098 0.51981378)
(0 0.0081769601 0.51911557)
(0 0.0072366412 0.51854114)
(0 0.0062718244 0.51808418)
(0 0.0052909957 0.51773947)
(0 0.004301311 0.51750297)
(0 0.0033090786 0.51737183)
(0 0.0023201762 0.51734438)
(0 0.0013404771 0.51742014)
(0 0.00037620851 0.51759973)
(0 -0.00056559477 0.51788483)
(0 -0.0014766351 0.51827806)
(0 -0.0023468818 0.51878287)
(0 -0.003163887 0.51940321)
(0 -0.0039121352 0.52014322)
(0 -0.0045720008 0.52100659)
(0 -0.0051190638 0.52199572)
(0 -0.0055214278 0.52311021)
(0 -0.0057413407 0.52434437)
(0 -0.0057264547 0.52568918)
(0 -0.0054111604 0.52710964)
(0 -0.0046850831 0.52835411)
(0 -0.0033497868 0.52723598)
(0 -0.0014642947 0.51204748)
(0 -4.7000473e-05 0.43976268)
(0 4.2173028e-06 0.21108476)
(0 0.00055737688 0.18275384)
(0 0.0021650594 0.42622563)
(0 0.0042675609 0.51383411)
(0 0.0067331967 0.5324864)
(0 0.0086200951 0.53347486)
(0 0.009879748 0.53185206)
(0 0.01062275 0.53016877)
(0 0.011016803 0.52858557)
(0 0.011123451 0.52709372)
(0 0.011002095 0.52570802)
(0 0.010697269 0.52444187)
(0 0.010246641 0.52330136)
(0 0.0096808447 0.52228724)
(0 0.0090246611 0.52139734)
(0 0.0082982287 0.52062795)
(0 0.0075179172 0.51997469)
(0 0.006697135 0.51943309)
(0 0.0058469891 0.51899897)
(0 0.0049768508 0.5186687)
(0 0.0040948436 0.51843929)
(0 0.0032082781 0.51830855)
(0 0.0023240384 0.51827503)
(0 0.0014489681 0.51833809)
(0 0.00059021742 0.5184978)
(0 -0.00024436912 0.51875486)
(0 -0.001045839 0.51911049)
(0 -0.0018037246 0.51956617)
(0 -0.002505514 0.52012331)
(0 -0.00313616 0.5207828)
(0 -0.0036773193 0.52154426)
(0 -0.0041070237 0.52240502)
(0 -0.0043981003 0.52335869)
(0 -0.0045192636 0.52439223)
(0 -0.0044319463 0.52548576)
(0 -0.004088663 0.52658546)
(0 -0.0034283162 0.5274014)
(0 -0.0023605161 0.52584499)
(0 -0.0010048741 0.5106954)
(0 -9.9775095e-05 0.43921444)
(0 2.5874318e-05 0.21102736)
(0 0.00053979303 0.18261062)
(0 0.0021901671 0.42556274)
(0 0.0039279465 0.51228998)
(0 0.0057788292 0.53066459)
(0 0.0072747516 0.53203956)
(0 0.0083775017 0.53089128)
(0 0.0090918204 0.52958213)
(0 0.0095234675 0.52829505)
(0 0.0097059402 0.52704562)
(0 0.0096832342 0.52585871)
(0 0.0094895444 0.52475408)
(0 0.0091558186 0.52374362)
(0 0.0087084001 0.52283338)
(0 0.0081694976 0.52202572)
(0 0.0075578027 0.52132066)
(0 0.0068890113 0.52071687)
(0 0.0061763716 0.52021234)
(0 0.0054311717 0.51980478)
(0 0.0046631847 0.51949196)
(0 0.0038810707 0.5192719)
(0 0.0030927465 0.51914299)
(0 0.0023057241 0.51910405)
(0 0.0015274457 0.5191543)
(0 0.00076559445 0.51929336)
(0 2.842062e-05 0.51952113)
(0 -0.0006749208 0.5198376)
(0 -0.0013340304 0.52024265)
(0 -0.0019368932 0.52073563)
(0 -0.002469547 0.52131492)
(0 -0.0029156195 0.52197713)
(0 -0.0032562456 0.52271614)
(0 -0.0034694421 0.52352182)
(0 -0.0035308785 0.52437746)
(0 -0.0034139766 0.52525826)
(0 -0.0030882264 0.52610534)
(0 -0.0025247381 0.52662238)
(0 -0.0016958099 0.52480944)
(0 -0.00072264878 0.50975929)
(0 -9.8630603e-05 0.43881064)
(0 3.7541865e-05 0.21097817)
(0 0.00053297316 0.18248343)
(0 0.0021682896 0.42501297)
(0 0.0036994985 0.51113406)
(0 0.0051265278 0.52927641)
(0 0.00630332 0.53087022)
(0 0.0072388905 0.53004243)
(0 0.0078861232 0.52901703)
(0 0.0083122211 0.52797312)
(0 0.0085288216 0.52693296)
(0 0.0085669543 0.52592422)
(0 0.0084511328 0.52496903)
(0 0.0082056002 0.52408234)
(0 0.0078520387 0.5232735)
(0 0.0074095496 0.52254797)
(0 0.0068948136 0.52190855)
(0 0.0063223038 0.52135629)
(0 0.0057046005 0.52089115)
(0 0.0050527105 0.52051241)
(0 0.0043763881 0.52021907)
(0 0.0036844439 0.52001002)
(0 0.0029850403 0.51988418)
(0 0.002285972 0.51984061)
(0 0.001594942 0.51987848)
(0 0.00091982203 0.51999705)
(0 0.00026891753 0.52019556)
(0 -0.00034877849 0.52047306)
(0 -0.00092332492 0.52082819)
(0 -0.0014435938 0.52125877)
(0 -0.0018970898 0.52176138)
(0 -0.0022697393 0.52233068)
(0 -0.0025459822 0.52295848)
(0 -0.0027087918 0.52363286)
(0 -0.0027403318 0.52433612)
(0 -0.0026234836 0.52504275)
(0 -0.0023409905 0.52569583)
(0 -0.0018827087 0.52600628)
(0 -0.0012500729 0.52404015)
(0 -0.0005412151 0.50908306)
(0 -7.3685175e-05 0.43849882)
(0 3.867558e-05 0.21094715)
(0 0.00053351025 0.18237689)
(0 0.0021319099 0.42454946)
(0 0.0035308112 0.51022638)
(0 0.0046735593 0.52819854)
(0 0.0056042162 0.52992473)
(0 0.0063848122 0.52931578)
(0 0.0069492937 0.52850303)
(0 0.0073443473 0.52765418)
(0 0.0075666297 0.52678988)
(0 0.0076374056 0.52593629)
(0 0.007573029 0.52511521)
(0 0.0073917609 0.52434258)
(0 0.0071107986 0.52362937)
(0 0.0067460286 0.52298295)
(0 0.0063118709 0.52240797)
(0 0.0058212591 0.52190721)
(0 0.005285768 0.52148209)
(0 0.004715787 0.52113318)
(0 0.0041207268 0.52086044)
(0 0.0035092374 0.52066347)
(0 0.0028894299 0.52054169)
(0 0.0022690942 0.52049436)
(0 0.0016559149 0.52052064)
(0 0.0010576764 0.52061955)
(0 0.00048246522 0.52078985)
(0 -6.1147597e-05 0.52102991)
(0 -0.00056393587 0.52133747)
(0 -0.0010158751 0.52170933)
(0 -0.0014060902 0.52214091)
(0 -0.0017228266 0.52262578)
(0 -0.0019536585 0.52315487)
(0 -0.0020858502 0.5237158)
(0 -0.002106989 0.52429162)
(0 -0.0020068234 0.52485858)
(0 -0.0017770861 0.52536422)
(0 -0.0014172047 0.52552971)
(0 -0.00093828852 0.52346494)
(0 -0.00041147469 0.50857498)
(0 -4.5429956e-05 0.43825595)
(0 3.3766524e-05 0.2109322)
(0 0.00053708092 0.18228818)
(0 0.0020975226 0.42415847)
(0 0.0033938764 0.5094887)
(0 0.0043407658 0.52734149)
(0 0.0050852495 0.52915848)
(0 0.0057327699 0.52870449)
(0 0.0062139046 0.52805173)
(0 0.006566374 0.52735774)
(0 0.0067775902 0.52663885)
(0 0.0068621437 0.52591777)
(0 0.0068300649 0.52521445)
(0 0.0066947018 0.52454444)
(0 0.0064692946 0.52391916)
(0 0.0061667189 0.52334687)
(0 0.0057991364 0.52283335)
(0 0.0053778278 0.52238247)
(0 0.0049131849 0.52199673)
(0 0.0044147692 0.52167759)
(0 0.0038914234 0.52142578)
(0 0.0033514095 0.52124148)
(0 0.0028025613 0.52112449)
(0 0.0022524427 0.52107428)
(0 0.0017085066 0.52109004)
(0 0.0011782452 0.52117061)
(0 0.0006693336 0.52131446)
(0 0.00018975308 0.52151949)
(0 -0.00025211798 0.5217829)
(0 -0.0006474352 0.52210085)
(0 -0.000986923 0.52246819)
(0 -0.0012609625 0.52287803)
(0 -0.0014598642 0.52332122)
(0 -0.0015743485 0.52378588)
(0 -0.001596156 0.52425666)
(0 -0.001519669 0.52471256)
(0 -0.0013420423 0.5251059)
(0 -0.0010668028 0.52516643)
(0 -0.00070598102 0.52303166)
(0 -0.00030876838 0.50818556)
(0 -2.2459672e-05 0.43807)
(0 2.6977575e-05 0.21092861)
(0 0.00054096567 0.18221303)
(0 0.0020697988 0.42383069)
(0 0.0032770217 0.50887975)
(0 0.0040798438 0.52664675)
(0 0.0046821461 0.52853341)
(0 0.0052195337 0.52819425)
(0 0.0056243294 0.52766366)
(0 0.0059315141 0.52709257)
(0 0.006123252 0.52649303)
(0 0.0062099574 0.52588382)
(0 0.0061970631 0.52528243)
(0 0.0060941241 0.52470321)
(0 0.0059111005 0.52415727)
(0 0.0056582318 0.52365307)
(0 0.0053455889 0.52319686)
(0 0.0049828327 0.5227932)
(0 0.0045791192 0.52244523)
(0 0.0041430771 0.52215504)
(0 0.0036828456 0.52192391)
(0 0.0032061466 0.52175245)
(0 0.0027203786 0.52164078)
(0 0.0022327216 0.52158853)
(0 0.0017502441 0.52159494)
(0 0.0012800063 0.5216588)
(0 0.00082915069 0.52177839)
(0 0.0004049759 0.52195137)
(0 1.4971573e-05 0.52217462)
(0 -0.00033317596 0.52244405)
(0 -0.0006316636 0.52275431)
(0 -0.00087272373 0.52309854)
(0 -0.0010489178 0.52346801)
(0 -0.001153608 0.52385185)
(0 -0.0011815128 0.5242366)
(0 -0.0011299486 0.52460425)
(0 -0.00099901535 0.5249111)
(0 -0.00079349579 0.52489299)
(0 -0.00052366716 0.5227048)
(0 -0.00022357888 0.50788771)
(0 -5.7023728e-06 0.4379324)
(0 2.0870118e-05 0.2109324)
(0 0.00054411866 0.1821482)
(0 0.0020479597 0.42355774)
(0 0.0031764976 0.50837572)
(0 0.0038660082 0.52607729)
(0 0.0043569211 0.52802029)
(0 0.0048040911 0.52776956)
(0 0.005142049 0.527334)