/*--------------------------------*- C++ -*----------------------------------*\
  =========                 |
  \\      /  F ield         | OpenFOAM: The Open Source CFD Toolbox
   \\    /   O peration     | Website:  https://openfoam.org
    \\  /    A nd           | Version:  10
     \\/     M anipulation  |
\*---------------------------------------------------------------------------*/
FoamFile
{
    format      ascii;
    class       surfaceScalarField;
    location    "0.27";
    object      phi;
}
// * * * * * * * * * * * * * * * * * * * * * * * * * * * * * * * * * * * * * //

dimensions      [1 0 -1 0 0 0 0];

internalField   nonuniform List<scalar> 
7860
(
3.989601e-08
5.2881203e-07
1.2192743e-08
5.9641107e-07
7.4279227e-09
5.7347257e-07
5.4994435e-09
5.7063619e-07
4.1150188e-09
5.7009211e-07
3.2011609e-09
5.6962152e-07
2.5591604e-09
5.6934964e-07
2.0793238e-09
5.6918746e-07
1.7093231e-09
5.6907761e-07
1.4166347e-09
5.6900029e-07
1.1794635e-09
5.6894477e-07
9.830464e-10
5.6890401e-07
8.1704028e-10
5.6887359e-07
6.7395496e-10
5.6885066e-07
5.4821741e-10
5.6883331e-07
4.3556725e-10
5.6882022e-07
3.3265102e-10
5.6881049e-07
2.3674163e-10
5.6880348e-07
1.4553636e-10
5.6879877e-07
5.7004437e-11
5.687961e-07
-3.0736698e-11
5.6879531e-07
-1.1952897e-10
5.6879636e-07
-2.1127851e-10
5.6879932e-07
-3.0806247e-10
5.6880435e-07
-4.1226126e-10
5.6881177e-07
-5.2672161e-10
5.6882203e-07
-6.5497714e-10
5.6883583e-07
-8.0156135e-10
5.6885416e-07
-9.7246819e-10
5.6887849e-07
-1.1758586e-09
5.6891098e-07
-1.4232339e-09
5.6895497e-07
-1.7314051e-09
5.6901577e-07
-2.1253501e-09
5.6910156e-07
-2.64495e-09
5.6922722e-07
-3.3726185e-09
5.6943531e-07
-4.4639048e-09
5.6979894e-07
-6.0092081e-09
5.7025299e-07
-9.5081901e-09
5.722067e-07
-2.9576055e-08
5.8877563e-07
5.3913188e-07
5.9672558e-08
4.6913947e-07
3.6666025e-08
6.1941761e-07
2.2628199e-08
5.875104e-07
1.6253609e-08
5.7701078e-07
1.2290542e-08
5.7405517e-07
9.606282e-09
5.7230578e-07
7.6774874e-09
5.7127843e-07
6.2361228e-09
5.7062883e-07
5.126592e-09
5.7018715e-07
4.2488226e-09
5.6987806e-07
3.5374804e-09
5.6965611e-07
2.9483968e-09
5.6949309e-07
2.4505268e-09
5.6937146e-07
2.0213954e-09
5.692798e-07
1.6442884e-09
5.6921042e-07
1.3064287e-09
5.6915808e-07
9.9775962e-10
5.6911916e-07
7.1010306e-10
5.6909113e-07
4.3655363e-10
5.6907232e-07
1.7102025e-10
5.6906163e-07
-9.2143038e-11
5.6905847e-07
-3.5845895e-10
5.6906267e-07
-6.336391e-10
5.690745e-07
-9.2391543e-10
5.6909463e-07
-1.2364265e-09
5.6912428e-07
-1.5797089e-09
5.6916531e-07
-1.9643594e-09
5.6922048e-07
-2.4039733e-09
5.6929378e-07
-2.9165335e-09
5.6939105e-07
-3.5265315e-09
5.6952098e-07
-4.2683858e-09
5.6969682e-07
-5.192461e-09
5.6993985e-07
-6.3753806e-09
5.7028448e-07
-7.9358606e-09
5.707877e-07
-1.0077122e-08
5.7157657e-07
-1.3205288e-08
5.7292711e-07
-1.8135121e-08
5.7518282e-07
-2.8177341e-08
5.8224892e-07
-4.5803219e-08
6.064015e-07
4.9332866e-07
6.0008886e-08
4.0913058e-07
5.0487346e-08
6.2893915e-07
3.3370737e-08
6.0462701e-07
2.4817743e-08
5.8556377e-07
1.9323316e-08
5.795496e-07
1.5331567e-08
5.7629752e-07
1.2360781e-08
5.7424922e-07
1.0101605e-08
5.72888e-07
8.3406622e-09
5.7194809e-07
6.9348329e-09
5.7128389e-07
5.7880383e-09
5.708029e-07
4.833514e-09
5.7044761e-07
4.0234959e-09
5.7018148e-07
3.3229989e-09
5.6998029e-07
2.7057599e-09
5.6982766e-07
2.1515471e-09
5.6971229e-07
1.6443359e-09
5.6962637e-07
1.1710274e-09
5.6956444e-07
7.2051508e-10
5.6952283e-07
2.8297136e-10
5.6949917e-07
-1.5072957e-10
5.6949217e-07
-5.8951791e-10
5.6950146e-07
-1.0426215e-09
5.695276e-07
-1.5200859e-09
5.6957209e-07
-2.0333773e-09
5.6963757e-07
-2.5961418e-09
5.6972808e-07
-3.2252173e-09
5.6984956e-07
-3.9420443e-09
5.700106e-07
-4.7747161e-09
5.7022372e-07
-5.7610421e-09
5.705073e-07
-6.9532064e-09
5.7088899e-07
-8.4254061e-09
5.7141205e-07
-1.0287038e-08
5.7214611e-07
-1.2699973e-08
5.7320064e-07
-1.5897365e-08
5.7477396e-07
-2.02411e-08
5.7727084e-07
-2.6709326e-08
5.8165105e-07
-3.8948799e-08
5.9448839e-07
-4.8167802e-08
6.1562051e-07
4.4516085e-07
5.487912e-08
3.5425146e-07
5.7452293e-08
6.2636597e-07
4.0467648e-08
6.2161165e-07
3.077885e-08
5.9525257e-07
2.4643137e-08
5.8568531e-07
1.9952372e-08
5.8098829e-07
1.6313002e-08
5.7788859e-07
1.3466571e-08
5.7573443e-07
1.1200966e-08
5.7421369e-07
9.3644806e-09
5.7312038e-07
7.8492324e-09
5.7231815e-07
6.5767335e-09
5.7172011e-07
5.4891386e-09
5.7126907e-07
4.5431361e-09
5.7092629e-07
3.7056323e-09
5.7066516e-07
2.9507711e-09
5.7046716e-07
2.257836e-09
5.703193e-07
1.6097329e-09
5.7021255e-07
9.9185784e-10
5.7014071e-07
3.9121736e-10
5.7009981e-07
-2.042947e-10
5.7008768e-07
-8.0653736e-10
5.701037e-07
-1.4277437e-09
5.7014881e-07
-2.081175e-09
5.7022552e-07
-2.7818719e-09
5.7033827e-07
-3.5475816e-09
5.7049379e-07
-4.3999656e-09
5.7070194e-07
-5.3662325e-09
5.7097687e-07
-6.4814182e-09
5.7133891e-07
-7.7916469e-09
5.7181753e-07
-9.3586973e-09
5.7245604e-07
-1.1266389e-08
5.7331974e-07
-1.3630984e-08
5.745107e-07
-1.6613825e-08
5.7618348e-07
-2.0412681e-08
5.7857282e-07
-2.5294225e-08
5.8215239e-07
-3.251843e-08
5.8887525e-07
-4.5102014e-08
6.0707197e-07
-4.6550065e-08
6.1706856e-07
3.9861079e-07
4.7965842e-08
3.0628562e-07
6.0076686e-08
6.1425513e-07
4.54003e-08
6.3628804e-07
3.4875485e-08
6.0577739e-07
2.8399968e-08
5.9216083e-07
2.3419705e-08
5.8596855e-07
1.9434353e-08
5.8187394e-07
1.6229174e-08
5.7893961e-07
1.3619655e-08
5.7682321e-07
1.1466389e-08
5.7527364e-07
9.6642501e-09
5.7412029e-07
8.1332004e-09
5.7325116e-07
6.8122176e-09
5.7259006e-07
5.6542908e-09
5.7208422e-07
4.6226458e-09
5.7169681e-07
3.6879978e-09
5.714018e-07
2.8265093e-09
5.7118079e-07
2.0182524e-09
5.710208e-07
1.2460238e-09
5.7091294e-07
4.9439959e-10
5.7085144e-07
-2.5105765e-10
5.7083314e-07
-1.0045087e-09
5.7085716e-07
-1.7805281e-09
5.7092482e-07
-2.5948269e-09
5.7103982e-07
-3.4650687e-09
5.7120851e-07
-4.4118529e-09
5.7144057e-07
-5.4599553e-09
5.7175004e-07
-6.6399375e-09
5.7215685e-07
-7.9902733e-09
5.7268924e-07
-9.560223e-09
5.7338748e-07
-1.1413608e-08
5.7430942e-07
-1.3633239e-08
5.7553937e-07
-1.6327414e-08
5.7720488e-07
-1.9639734e-08
5.794958e-07
-2.3740457e-08
5.8267354e-07
-2.8932508e-08
5.8734444e-07
-3.6792742e-08
5.9673548e-07
-4.846528e-08
6.1874451e-07
-4.3195087e-08
6.1179836e-07
3.554157e-07
4.0336147e-08
2.6594948e-07
5.8994319e-08
5.9559696e-07
4.8330335e-08
6.4695202e-07
3.7588297e-08
6.1651943e-07
3.0929084e-08
5.9882004e-07
2.5894168e-08
5.9100347e-07
2.1780138e-08
5.8598797e-07
1.8392144e-08
5.823276e-07
1.5577529e-08
5.7963783e-07
1.3214246e-08
5.7763692e-07
1.1206357e-08
5.7612818e-07
9.4785713e-09
5.7497895e-07
7.9717477e-09
5.7409688e-07
6.6389839e-09
5.7341699e-07
5.4426546e-09
5.7289314e-07
4.352144e-09
5.7249231e-07
3.3420658e-09
5.7219087e-07
2.3908639e-09
5.71972e-07
1.4796945e-09
5.7182411e-07
5.9150535e-10
5.7173963e-07
-2.8975432e-10
5.717144e-07
-1.1798515e-09
5.7174725e-07
-2.0949719e-09
5.7183994e-07
-3.0524485e-09
5.719973e-07
-4.0715668e-09
5.7222763e-07
-5.1745121e-09
5.7254352e-07
-6.3875198e-09
5.7296305e-07
-7.7423112e-09
5.7351164e-07
-9.2778907e-09
5.7422482e-07
-1.1042853e-08
5.7515244e-07
-1.3098418e-08
5.7636499e-07
-1.5521848e-08
5.779628e-07
-1.8410541e-08
5.8009357e-07
-2.1888669e-08
5.8297393e-07
-2.6112014e-08
5.8689689e-07
-3.1490116e-08
5.9272254e-07
-3.9656433e-08
6.049018e-07
-4.9174098e-08
6.2826218e-07
-3.8579388e-08
6.0120365e-07
3.1683631e-07
3.2862816e-08
2.3308666e-07
5.52503e-08
5.7320947e-07
4.9232574e-08
6.5296974e-07
3.9061802e-08
6.266902e-07
3.2430918e-08
6.0545092e-07
2.7518995e-08
5.9591539e-07
2.3438899e-08
5.9006807e-07
2.0003056e-08
5.8576345e-07
1.7094917e-08
5.8254596e-07
1.461226e-08
5.8011958e-07
1.2471297e-08
5.7826914e-07
1.060478e-08
5.7684546e-07
8.9584698e-09
5.7574319e-07
7.4881761e-09
5.7488728e-07
6.1575709e-09
5.7422374e-07
4.9364303e-09
5.7371345e-07
3.7991916e-09
5.7332811e-07
2.7237767e-09
5.7304742e-07
1.6906156e-09
5.7285727e-07
6.818155e-10
5.7274843e-07
-3.1957107e-10
5.7271579e-07
-1.3302209e-09
5.727579e-07
-2.3672058e-09
5.7287693e-07
-3.4486759e-09
5.7307877e-07
-4.5946013e-09
5.7337355e-07
-5.8276193e-09
5.7377653e-07
-7.174031e-09
5.7430946e-07
-8.6650031e-09
5.7500261e-07
-1.0338017e-08
5.7589784e-07
-1.2238646e-08
5.7705307e-07
-1.4422942e-08
5.7854928e-07
-1.696033e-08
5.8050019e-07
-1.9935652e-08
5.8306889e-07
-2.344968e-08
5.8648796e-07
-2.7643837e-08
5.9109104e-07
-3.3036586e-08
5.9811529e-07
-4.1012897e-08
6.1287811e-07
-4.7689704e-08
6.3493898e-07
-3.3377076e-08
5.8689103e-07
2.8345924e-07
2.6189128e-08
2.0689753e-07
5.0133045e-08
5.4926556e-07
4.849398e-08
6.5460881e-07
3.949142e-08
6.3569276e-07
3.3077783e-08
6.1186456e-07
2.8412336e-08
6.0058084e-07
2.4493182e-08
5.9398722e-07
2.1118461e-08
5.8913817e-07
1.8207294e-08
5.8545713e-07
1.5680453e-08
5.8264642e-07
1.3468805e-08
5.8048079e-07
1.1515171e-08
5.787991e-07
9.7720395e-09
5.7748632e-07
8.1996207e-09
5.764597e-07
6.7643859e-09
5.7565898e-07
5.4377926e-09
5.7504005e-07
4.1951964e-09
5.745707e-07
3.0149277e-09
5.7422769e-07
1.8774944e-09
5.739947e-07
7.6487837e-10
5.7386104e-07
-3.4010058e-10
5.7382076e-07
-1.4543809e-09
5.7387218e-07
-2.595252e-09
5.740178e-07
-3.780957e-09
5.7426447e-07
-5.0313358e-09
5.7462393e-07
-6.3685394e-09
5.7511374e-07
-7.8178423e-09
5.7575876e-07
-9.4085904e-09
5.7659336e-07
-1.1175308e-08
5.7766455e-07
-1.3158967e-08
5.7903673e-07
-1.5408635e-08
5.8079895e-07
-1.7983597e-08
5.8307515e-07
-2.0953303e-08
5.860386e-07
-2.4392941e-08
5.8992759e-07
-2.8438051e-08
5.9513615e-07
-3.3693944e-08
6.0337118e-07
-4.1065224e-08
6.2024939e-07
-4.4799427e-08
6.3867319e-07
-2.8205452e-08
5.7029705e-07
2.5525378e-07
2.0571049e-08
1.8632649e-07
4.4583592e-08
5.2525302e-07
4.664343e-08
6.5254897e-07
3.9153653e-08
6.4318253e-07
3.3084243e-08
6.1793397e-07
2.8718015e-08
6.0494707e-07
2.5038509e-08
5.9766673e-07
2.1804107e-08
5.9237257e-07
1.8959492e-08
5.8830175e-07
1.6448613e-08
5.851573e-07
1.4217973e-08
5.8271143e-07
1.2221392e-08
5.8079568e-07
1.0419091e-08
5.7928862e-07
8.776716e-09
5.7810207e-07
7.2645145e-09
5.7717118e-07
5.8565225e-09
5.7644804e-07
4.5298248e-09
5.758974e-07
3.2638896e-09
5.7549362e-07
2.0399611e-09
5.7521863e-07
8.4050295e-10
5.750605e-07
-3.5132225e-10
5.7501259e-07
-1.5521488e-09
5.7507301e-07
-2.7789056e-09
5.7524456e-07
-4.0493168e-09
5.7553488e-07
-5.382427e-09
5.7595704e-07
-6.799167e-09
5.7653048e-07
-8.3229705e-09
5.7728257e-07
-9.9804602e-09
5.7825085e-07
-1.1802213e-08
5.7948631e-07
-1.3823557e-08
5.8105807e-07
-1.6085478e-08
5.8306087e-07
-1.8635826e-08
5.856255e-07
-2.1527703e-08
5.8893048e-07
-2.4815125e-08
5.9321502e-07
-2.8644328e-08
5.9896535e-07
-3.366273e-08
6.0838958e-07
-4.0146731e-08
6.2673339e-07
-4.1161329e-08
6.3968778e-07
-2.3417897e-08
5.5255362e-07
2.3183589e-07
1.6015639e-08
1.7031085e-07
3.914437e-08
5.0212429e-07
4.4119165e-08
6.4757418e-07
3.8290225e-08
6.4901147e-07
3.2654431e-08
6.2356976e-07
2.8592091e-08
6.0900941e-07
2.5184058e-08
6.0107476e-07
2.213637e-08
5.9542026e-07
1.9405138e-08
5.9103298e-07
1.6954305e-08
5.8760813e-07
1.4744895e-08
5.8492084e-07
1.2741313e-08
5.8279926e-07
1.0911647e-08
5.8111829e-07
9.2273791e-09
5.7978634e-07
7.6630368e-09
5.7873552e-07
6.1957752e-09
5.779153e-07
4.8049498e-09
5.7728822e-07
3.4716898e-09
5.7682688e-07
2.1784764e-09
5.7651184e-07
9.0873467e-10
5.7633024e-07
-3.5356349e-10
5.7627489e-07
-1.624286e-09
5.7634373e-07
-2.9195325e-09
5.765398e-07
-4.256025e-09
5.7687138e-07
-5.6515072e-09
5.7735252e-07
-7.1251591e-09
5.7800413e-07
-8.6980242e-09
5.7885543e-07
-1.0393448e-08
5.7994628e-07
-1.2237535e-08
5.8133039e-07
-1.4259566e-08
5.830801e-07
-1.6492365e-08
5.8529367e-07
-1.897268e-08
5.8810581e-07
-2.173865e-08
5.9169645e-07
-2.4830748e-08
5.9630711e-07
-2.8417886e-08
6.0255249e-07
-3.3127314e-08
6.1309901e-07
-3.8552345e-08
6.3215842e-07
-3.7217908e-08
6.3835335e-07
-1.9183812e-08
5.3451952e-07
2.1265207e-07
1.2423938e-08
1.5788692e-07
3.4114481e-08
4.8043376e-07
4.1250399e-08
6.4043826e-07
3.7079296e-08
6.5318258e-07
3.1942486e-08
6.2870657e-07
2.8169293e-08
6.127826e-07
2.5033463e-08
6.0421059e-07
2.2192499e-08
5.9826122e-07
1.9601333e-08
5.9362415e-07
1.7239381e-08
5.8997009e-07
1.5080012e-08
5.8708021e-07
1.3096914e-08
5.8478236e-07
1.1265451e-08
5.8294975e-07
9.5627699e-09
5.8148902e-07
7.967755e-09
5.8033053e-07
6.4608963e-09
5.7942216e-07
5.0241107e-09
5.7872501e-07
3.640515e-09
5.7821048e-07
2.2941698e-09
5.7785819e-07
9.6980952e-10
5.776546e-07
-3.4743539e-10
5.7759213e-07
-1.6723167e-09
5.7766861e-07
-3.0197544e-09
5.7788724e-07
-4.4051181e-09
5.7825674e-07
-5.8445046e-09
5.7879191e-07
-7.3550122e-09
5.7951464e-07
-8.9549998e-09
5.8045542e-07
-1.0664319e-08
5.816556e-07
-1.2504524e-08
5.831706e-07
-1.4499032e-08
5.8507461e-07
-1.6673155e-08
5.8746779e-07
-1.9053781e-08
5.9048644e-07
-2.16664e-08
5.9430907e-07
-2.454521e-08
5.9918592e-07
-2.7884792e-08
6.0589207e-07
-3.2230388e-08
6.1744461e-07
-3.6524204e-08
6.3645224e-07
-3.3270439e-08
6.3509958e-07
-1.5564884e-08
5.1681397e-07
1.9708719e-07
9.6573266e-09
1.482296e-07
2.9646237e-08
4.6044485e-07
3.8283787e-08
6.3180071e-07
3.5659035e-08
6.5580733e-07
3.1059588e-08
6.3330602e-07
2.7553991e-08
6.162882e-07
2.4673296e-08
6.0709128e-07
2.2041272e-08
6.0089324e-07
1.9601949e-08
5.9606347e-07
1.7345359e-08
5.9222668e-07
1.5254889e-08
5.8917068e-07
1.3311958e-08
5.8672529e-07
1.1498233e-08
5.8476347e-07
9.7959887e-09
5.8319126e-07
8.1882212e-09
5.819383e-07
6.6587104e-09
5.8095167e-07
5.1920118e-09
5.8019171e-07
3.7733818e-09
5.7962911e-07
2.3886567e-09
5.7924291e-07
1.0241017e-09
5.7901916e-07
-3.3375959e-10
5.7894999e-07
-1.6983246e-09
5.7903318e-07
-3.083099e-09
5.7927202e-07
-4.5018777e-09
5.7967552e-07
-5.9689141e-09
5.8025894e-07
-7.4990728e-09
5.810448e-07
-9.1079524e-09
5.820643e-07
-1.0811962e-08
5.833596e-07
-1.2628349e-08
5.8498698e-07
-1.4575194e-08
5.8702146e-07
-1.6671235e-08
5.8956383e-07
-1.8934948e-08
5.9275015e-07
-2.1381838e-08
5.9675596e-07
-2.4046042e-08
6.0185013e-07
-2.7143917e-08
6.0898995e-07
-3.1090116e-08
6.2139081e-07
-3.4266445e-08
6.3962857e-07
-2.9524074e-08
6.3035721e-07
-1.2556474e-08
4.9984637e-07
1.8453072e-07
7.5669832e-09
1.4066262e-07
2.5787301e-08
4.4222455e-07
3.539019e-08
6.2219783e-07
3.4139302e-08
6.5705822e-07
3.0088732e-08
6.3735659e-07
2.6826176e-08
6.1955075e-07
2.4173242e-08
6.0974422e-07
2.1740466e-08
6.0332602e-07
1.9454267e-08
5.9834967e-07
1.7310295e-08
5.9437065e-07
1.5299668e-08
5.911813e-07
1.3410008e-08
5.8861495e-07
1.1628197e-08
5.8654528e-07
9.940923e-09
5.8487854e-07
8.3348678e-09
5.8354436e-07
6.796878e-09
5.8248966e-07
5.3140638e-09
5.8167452e-07
3.8738321e-09
5.8106934e-07
2.4638672e-09
5.8065288e-07
1.0720749e-09
5.8041095e-07
-3.1349853e-10
5.8033557e-07
-1.70476e-09
5.8042444e-07
-3.1136719e-09
5.8068093e-07
-4.5523458e-09
5.8111419e-07
-6.0331216e-09
5.8173972e-07
-7.5686223e-09
5.825803e-07
-9.171773e-09
5.8366745e-07
-1.0855766e-08
5.850436e-07
-1.2633971e-08
5.8676519e-07
-1.4519815e-08
5.889073e-07
-1.6526483e-08
5.915705e-07
-1.8665568e-08
5.9488923e-07
-2.0945575e-08
5.9903596e-07
-2.3405692e-08
6.0431024e-07
-2.627563e-08
6.1185988e-07
-2.9807568e-08
6.2492274e-07
-3.1940721e-08
6.4176172e-07
-2.6101165e-08
6.2451765e-07
-1.0111942e-08
4.8385715e-07
1.7441877e-07
6.0123345e-09
1.3465029e-07
2.2515894e-08
4.25721e-07
3.2671467e-08
6.1204226e-07
3.2600539e-08
6.5712914e-07
2.9090009e-08
6.4086712e-07
2.6046019e-08
6.2259474e-07
2.3588638e-08
6.122016e-07
2.1337663e-08
6.05577e-07
1.9198481e-08
6.0048885e-07
1.7167631e-08
5.964015e-07
1.5241734e-08
5.931072e-07
1.3413162e-08
5.9044352e-07
1.1672927e-08
5.8828552e-07
1.0011358e-08
5.8654011e-07
8.4183072e-09
5.8513741e-07
6.883361e-09
5.8402461e-07
5.3959939e-09
5.8316189e-07
3.9456709e-09
5.8251966e-07
2.5218986e-09
5.8207665e-07
1.1142408e-09
5.8181861e-07
-2.8769242e-10
5.817375e-07
-1.6942694e-09
5.8183101e-07
-3.1158695e-09
5.8210253e-07
-4.562906e-09
5.8256123e-07
-6.0458349e-09
5.8322265e-07
-7.5751353e-09
5.841096e-07
-9.1612539e-09
5.8525357e-07
-1.08145e-08
5.8669684e-07
-1.2544885e-08
5.8849557e-07
-1.4361948e-08
5.9072436e-07
-1.6274378e-08
5.9348293e-07
-1.8288469e-08
5.9690333e-07
-2.0408808e-08
6.011563e-07
-2.2683187e-08
6.0658462e-07
-2.5343532e-08
6.1452023e-07
-2.8463347e-08
6.2804256e-07
-2.9661235e-08
6.4295961e-07
-2.3056984e-08
6.179134e-07
-8.1628423e-09
4.68963e-07
1.6625593e-07
4.8706771e-09
1.2977963e-07
1.9773469e-08
4.1081823e-07
3.0175893e-08
6.0163985e-07
3.1095096e-08
6.5620994e-07
2.810292e-08
6.4385929e-07
2.5255815e-08
6.2544184e-07
2.2961612e-08
6.144958e-07
2.0870915e-08
6.0766769e-07
1.8867869e-08
6.0249189e-07
1.6945926e-08
5.9832344e-07
1.5105159e-08
5.9494797e-07
1.3341379e-08
5.922073e-07
1.164871e-08
5.8997819e-07
1.002036e-08
5.8816846e-07
8.4488105e-09
5.8670896e-07
6.9260057e-09
5.8554741e-07
5.4435315e-09
5.8464436e-07
3.9927491e-09
5.8397044e-07
2.5648911e-09
5.8350451e-07
1.1511253e-09
5.8323237e-07
-2.5740416e-10
5.8314603e-07
-1.6695495e-09
5.8324316e-07
-3.0941384e-09
5.8352712e-07
-4.5399439e-09
5.8400703e-07
-6.0156402e-09
5.8469835e-07
-7.5297321e-09
5.8562369e-07
-9.0904526e-09
5.8681429e-07
-1.0705619e-08
5.8831201e-07
-1.238245e-08
5.901724e-07
-1.4127376e-08
5.9246929e-07
-1.5945618e-08
5.9530117e-07
-1.7839703e-08
5.9879741e-07
-1.9813103e-08
6.031297e-07
-2.1923957e-08
6.0869547e-07
-2.4394373e-08
6.1699065e-07
-2.7116211e-08
6.307644e-07
-2.7500104e-08
6.433435e-07
-2.0400907e-08
6.108142e-07
-6.6335264e-09
4.5519562e-07
1.596224e-07
4.0396517e-09
1.2573999e-07
1.7487548e-08
3.9737036e-07
2.7917434e-08
5.9120998e-07
2.9653605e-08
6.5447378e-07
2.7150672e-08
6.4636222e-07
2.4482759e-08
6.2810976e-07
2.2322314e-08
6.1665625e-07
2.03693e-08
6.0962071e-07
1.8489005e-08
6.0437219e-07
1.6668815e-08
6.0014363e-07
1.4910477e-08
5.967063e-07
1.3212137e-08
5.9390564e-07
1.1570143e-08
5.9162018e-07
9.9798882e-09
5.8975871e-07
8.4359494e-09
5.8825289e-07
6.9322395e-09
5.8705112e-07
5.4621704e-09
5.8611443e-07
4.0187962e-09
5.8541382e-07
2.594931e-09
5.8492837e-07
1.1832424e-09
5.8464406e-07
-2.2367401e-10
5.8455294e-07
-1.6332302e-09
5.8465272e-07
-3.052787e-09
5.8494667e-07
-4.4895866e-09
5.8544383e-07
-5.9506738e-09
5.8615943e-07
-7.442794e-09
5.8711581e-07
-8.9722662e-09
5.8834376e-07
-1.0544829e-08
5.8988457e-07
-1.2165465e-08
5.9179304e-07
-1.3838228e-08
5.9414205e-07
-1.5565805e-08
5.9702875e-07
-1.7348319e-08
6.0057992e-07
-1.919044e-08
6.0497182e-07
-2.1160738e-08
6.1066577e-07
-2.3460158e-08
6.1929006e-07
-2.5805931e-08
6.3311017e-07
-2.5497101e-08
6.4303467e-07
-1.8114411e-08
6.0343151e-07
-5.4496236e-09
4.4253084e-07
1.5417278e-07
3.4365827e-09
1.2230342e-07
1.5584321e-08
3.8522265e-07
2.5889479e-08
5.8090485e-07
2.8291494e-08
6.5207176e-07
2.6245143e-08
6.4840857e-07
2.374275e-08
6.3061215e-07
2.169106e-08
6.1870794e-07
1.9854044e-08
6.1145772e-07
1.8082312e-08
6.0614392e-07
1.6355206e-08
6.0187074e-07
1.4674667e-08
5.9838684e-07
1.3040292e-08
5.9554002e-07
1.1449931e-08
5.9321054e-07
9.900559e-09
5.9130808e-07
8.3883699e-09
5.8976508e-07
6.9088687e-09
5.8853062e-07
5.4570038e-09
5.875663e-07
4.0273001e-09
5.8684352e-07
2.6139815e-09
5.8634169e-07
1.2110769e-09
5.8604697e-07
-1.8748425e-10
5.8595151e-07
-1.5877869e-09
5.8605302e-07
-2.995846e-09
5.8635473e-07
-4.4175169e-09
5.868655e-07
-5.8583966e-09
5.8760031e-07
-7.3237068e-09
5.8858112e-07
-8.8181614e-09
5.8983821e-07
-1.0345821e-08
5.9141223e-07
-1.1909945e-08
5.9335716e-07
-1.3512854e-08
5.9574496e-07
-1.5155494e-08
5.9867139e-07
-1.6836754e-08
6.0226118e-07
-1.8564247e-08
6.0669932e-07
-2.0415779e-08
6.125173e-07
-2.2561395e-08
6.2143568e-07
-2.4557381e-08
6.3510616e-07
-2.3669076e-08
6.4214637e-07
-1.6163524e-08
5.9592596e-07
-4.5427234e-09
4.3091003e-07
1.4963006e-07
2.9968392e-09
1.193066e-07
1.3995324e-08
3.742242e-07
2.4074174e-08
5.7082602e-07
2.7013925e-08
6.4913202e-07
2.5390728e-08
6.5003177e-07
2.3043819e-08
6.3295905e-07
2.1080717e-08
6.2067104e-07
1.9340029e-08
6.1319841e-07
1.7662975e-08
6.0782097e-07
1.6019784e-08
6.0351393e-07
1.4411386e-08
5.9999524e-07
1.283814e-08
5.9711326e-07
1.1298841e-08
5.9474984e-07
9.7915541e-09
5.9281537e-07
8.3136752e-09
5.9124296e-07
6.8619617e-09
5.8998233e-07
5.4326229e-09
5.8899563e-07
4.0214312e-09
5.8825471e-07
2.6238364e-09
5.8773928e-07
1.2350739e-09
5.8743573e-07
-1.497339e-10
5.8733631e-07
-1.5354797e-09
5.8743876e-07
-2.9269758e-09
5.8774623e-07
-4.3288532e-09
5.8826738e-07
-5.7454548e-09
5.8901691e-07
-7.1807171e-09
5.9001638e-07
-8.638045e-09
5.9129554e-07
-1.0120187e-08
5.9289437e-07
-1.1629131e-08
5.9486611e-07
-1.3165997e-08
5.9728183e-07
-1.4730645e-08
6.0023604e-07
-1.63217e-08
6.0385224e-07
-1.7950911e-08
6.0832853e-07
-1.9703194e-08
6.1426959e-07
-2.1709968e-08
6.2344245e-07
-2.3384063e-08
6.3678025e-07
-2.2017213e-08
6.4077952e-07
-1.4507216e-08
5.8841596e-07
-3.8529277e-09
4.2025575e-07
1.4577713e-07
2.6715831e-09
1.1663504e-07
1.2660815e-08
3.6423501e-07
2.2448778e-08
5.610381e-07
2.5819546e-08
6.4576127e-07
2.4587046e-08
6.5126427e-07
2.2388692e-08
6.3515741e-07
2.0498709e-08
6.2256102e-07
1.8837244e-08
6.1485988e-07
1.7241948e-08
6.0941627e-07
1.5673657e-08
6.0508222e-07
1.413135e-08
6.0153755e-07
1.261562e-08
5.9862899e-07
1.1125791e-08
5.9623967e-07
9.6606306e-09
5.9428053e-07
8.2183957e-09
5.926852e-07
6.7968014e-09
5.9140393e-07
5.3930675e-09
5.9039937e-07
4.0040016e-09
5.8964378e-07
2.6260971e-09
5.8911719e-07
1.2556336e-09
5.8880619e-07
-1.1122204e-10
5.8870317e-07
-1.4783169e-09
5.8880586e-07
-2.8494133e-09
5.8911732e-07
-4.228086e-09
5.8964605e-07
-5.6176169e-09
5.9040644e-07
-7.0208849e-09
5.9141965e-07
-8.4402565e-09
5.9271491e-07
-9.8774909e-09
5.9433161e-07
-1.1333677e-08
5.9632229e-07
-1.280917e-08
5.9875732e-07
-1.4303262e-08
6.0173013e-07
-1.5815095e-08
6.0536407e-07
-1.7361217e-08
6.0987465e-07
-1.9030939e-08
6.1593931e-07
-2.0911387e-08
6.253229e-07
-2.2291128e-08
6.3815999e-07
-2.0532823e-08
6.3902121e-07
-1.3102981e-08
5.8098612e-07
-3.3298303e-09
4.104826e-07
1.424473e-07
2.4250739e-09
1.1420999e-07
1.1530881e-08
3.5512926e-07
2.0989745e-08
5.5157928e-07
2.4703383e-08
6.4204764e-07
2.3830937e-08
6.5213671e-07
2.1776674e-08
6.3721167e-07
1.9948581e-08
6.2438911e-07
1.835198e-08
6.1645648e-07
1.6826853e-08
6.109414e-07
1.5325012e-08
6.0658406e-07
1.3842784e-08
6.0301978e-07
1.2380598e-08
6.0009118e-07
1.0938012e-08
5.9768226e-07
9.5142071e-09
5.9570434e-07
8.1080242e-09
5.9409138e-07
6.7178904e-09
5.9279406e-07
5.3418173e-09
5.9177544e-07
3.9774536e-09
5.9100814e-07
2.6221631e-09
5.9047248e-07
1.2731117e-09
5.9015524e-07
-7.2639098e-11
5.9004892e-07
-1.4180383e-09
5.9015126e-07
-2.765951e-09
5.9046524e-07
-4.1190603e-09
5.9099916e-07
-5.4797706e-09
5.9176715e-07
-6.8501109e-09
5.9278999e-07
-8.2316476e-09
5.9409645e-07
-9.6254218e-09
5.9572538e-07
-1.103193e-08
5.977288e-07
-1.2451094e-08
6.0017648e-07
-1.388204e-08
6.0316107e-07
-1.5325022e-08
6.0680705e-07
-1.6801598e-08
6.1135122e-07
-1.8402449e-08
6.1754016e-07
-2.0166673e-08
6.2708712e-07
-2.127805e-08
6.3927137e-07
-1.920188e-08
6.3694504e-07
-1.1910668e-08
5.7369491e-07
-2.9324262e-09
4.0150435e-07
1.3951487e-07
2.2319316e-09
1.119781e-07
1.056507e-08
3.4679619e-07
1.9675014e-08
5.424694e-07
2.3658885e-08
6.380638e-07
2.3117937e-08
6.5267766e-07
2.1205081e-08
6.3912452e-07
1.9431247e-08
6.2616295e-07
1.7887824e-08
6.179999e-07
1.6422753e-08
6.1240647e-07
1.4979698e-08
6.0802711e-07
1.3551844e-08
6.0444763e-07
1.213917e-08
6.0150385e-07
1.0741258e-08
5.9908017e-07
9.357494e-09
5.970881e-07
7.9870935e-09
5.9546178e-07
6.6289941e-09
5.9415216e-07
5.2818128e-09
5.9312262e-07
3.9438686e-09
5.9234608e-07
2.613237e-09
5.9180311e-07
1.2878218e-09
5.9148066e-07
-3.4564483e-11
5.913713e-07
-1.3561142e-09
5.9147281e-07
-2.678942e-09
5.9178806e-07
-4.0049934e-09
5.9232521e-07
-5.3359625e-09
5.9309812e-07
-6.6732127e-09
5.9412724e-07
-8.017713e-09
5.9544095e-07
-9.3700086e-09
5.9707768e-07
-1.073024e-08
5.9908903e-07
-1.2098146e-08
6.0154439e-07
-1.3472983e-08
6.0453591e-07
-1.4856545e-08
6.0819061e-07
-1.627524e-08
6.1276992e-07
-1.781802e-08
6.1908294e-07
-1.9473939e-08
6.2874304e-07
-2.0340815e-08
6.4013825e-07
-1.8008146e-08
6.3461237e-07
-1.0894406e-08
5.6658117e-07
-2.628261e-09
3.9323821e-07
1.3688661e-07
2.0746713e-09
1.0990347e-07
9.7312736e-09
3.3913967e-07
1.8485053e-08
5.3371569e-07
2.2679208e-08
6.3386967e-07
2.244325e-08
6.5291362e-07
2.0670258e-08
6.4089751e-07
1.8945955e-08
6.2788725e-07
1.7446458e-08
6.1949939e-07
1.6032803e-08
6.1382012e-07
1.4641741e-08
6.0941818e-07
1.3263023e-08
6.0582635e-07
1.1895953e-08
6.0287092e-07
1.0540012e-08
6.0043611e-07
9.1946425e-09
5.9843347e-07
7.8592769e-09
5.9679714e-07
6.5332052e-09
5.9547823e-07
5.2154961e-09
5.9444033e-07
3.9049911e-09
5.9365659e-07
2.6003369e-09
5.9310776e-07
1.3000398e-09
5.9278095e-07
2.5328943e-12
5.9266881e-07
-1.2937567e-09
5.927691e-07
-2.5903227e-09
5.9308463e-07
-3.8885148e-09
5.9362341e-07
-5.1894653e-09
5.9439907e-07
-6.4940297e-09
5.954318e-07
-7.8027474e-09
5.9674967e-07
-9.1158432e-09
5.9839077e-07
-1.043328e-08
6.0040647e-07
-1.1754787e-08
6.028659e-07
-1.3079972e-08
6.058611e-07
-1.4412446e-08
6.0952309e-07
-1.5783018e-08
6.1414049e-07
-1.7275928e-08
6.2057585e-07
-1.8829605e-08
6.3029672e-07
-1.9473535e-08
6.4078218e-07
-1.6935122e-08
6.3207396e-07
-1.0023136e-08
5.5966918e-07
-2.3922211e-09
3.8560729e-07
1.3449439e-07
1.9416223e-09
1.0796189e-07
9.0043721e-09
3.3207702e-07
1.7403154e-08
5.2531699e-07
2.1757915e-08
6.2951495e-07
2.1802323e-08
6.5286921e-07
2.0168253e-08
6.4253157e-07
1.8490992e-08
6.295645e-07
1.7028286e-08
6.209621e-07
1.5658778e-08
6.1518963e-07
1.4313787e-08
6.1076317e-07
1.2979494e-08
6.0716064e-07
1.1654367e-08
6.0419605e-07
1.03377e-08
6.0175277e-07
9.0288978e-09
5.9974227e-07
7.7274984e-09
5.9809854e-07
6.4330212e-09
5.9677271e-07
5.1448619e-09
5.9572849e-07
3.8622606e-09
5.9493919e-07
2.5843132e-09
5.9438571e-07
1.3100083e-09
5.9405526e-07
3.8278793e-11
5.9394054e-07
-1.2319396e-09
5.9403931e-07
-2.501648e-09
5.9435434e-07
-3.7717225e-09
5.9489348e-07
-5.0428611e-09
5.9567021e-07
-6.315543e-09
5.9670448e-07
-7.5900133e-09
5.9802414e-07
-8.8663106e-09
5.9966707e-07
-1.0144347e-08
6.016845e-07
-1.1423963e-08
6.0414551e-07
-1.2705267e-08
6.071424e-07
-1.3993849e-08
6.1081167e-07
-1.5324257e-08
6.154709e-07
-1.677326e-08
6.2202485e-07
-1.8229261e-08
6.3175272e-07
-1.8669558e-08
6.4122247e-07
-1.596723e-08
6.2937163e-07
-9.2707329e-09
5.5297269e-07
-2.2053338e-09
3.7854189e-07
1.3228905e-07
1.825244e-09
1.061367e-07
8.3648805e-09
3.255375e-07
1.6415311e-08
5.1726667e-07
2.0889308e-08
6.2504101e-07
2.1191124e-08
6.5256741e-07
1.9695216e-08
6.4402748e-07
1.8064159e-08
6.3119556e-07
1.66329e-08
6.2239336e-07
1.5301491e-08
6.1652104e-07
1.3997461e-08
6.120672e-07
1.270342e-08
6.0845468e-07
1.1416874e-08
6.0548259e-07
1.0136879e-08
6.0303277e-07
8.8627479e-09
6.010164e-07
7.5940442e-09
5.9936725e-07
6.3304251e-09
5.9803633e-07
5.0715143e-09
5.969874e-07
3.8168486e-09
5.9619386e-07
2.5658697e-09
5.9563669e-07
1.3179449e-09
5.9530318e-07
7.240362e-11
5.9518608e-07
-1.1714187e-09
5.9528314e-07
-2.4141316e-09
5.9559705e-07
-3.656245e-09
5.9613559e-07
-4.8981307e-09
5.969121e-07
-6.1399996e-09
5.9794635e-07
-7.3819075e-09
5.9926604e-07
-8.6238066e-09
6.0090897e-07
-9.8656455e-09
6.0292634e-07
-1.1107453e-08
6.0538732e-07
-1.2349938e-08
6.0838489e-07
-1.3600726e-08
6.1206246e-07
-1.4897305e-08
6.1676748e-07
-1.6306514e-08
6.2343406e-07
-1.7668264e-08
6.3311447e-07
-1.7922199e-08
6.4147641e-07
-1.5090439e-08
6.2653987e-07
-8.6156839e-09
5.4649793e-07
-2.0536009e-09
3.7197981e-07
1.3023545e-07
1.7208165e-09
1.0441595e-07
7.7977254e-09
3.1946074e-07
1.5509906e-08
5.0955462e-07
2.006852e-08
6.2048246e-07
2.0606258e-08
6.5202968e-07
1.9247618e-08
6.4538611e-07
1.7663085e-08
6.3278009e-07
1.6259394e-08
6.2379705e-07
1.4961101e-08
6.1781933e-07
1.369365e-08
6.1333465e-07
1.2436195e-08
6.0971213e-07
1.1185187e-08
6.067336e-07
9.9394119e-09
6.0427854e-07
8.6980597e-09
6.0225775e-07
7.4606679e-09
6.0060464e-07
6.2269641e-09
5.9927003e-07
4.9967232e-09
5.9821764e-07
3.7696957e-09
5.9742088e-07
2.5455832e-09
5.968608e-07
1.3240433e-09
5.9652472e-07
1.0471283e-10
5.9640541e-07
-1.1127624e-09
5.9650061e-07
-2.3286915e-09
5.9681298e-07
-3.5433077e-09
5.9735021e-07
-4.7567453e-09
5.9812553e-07
-5.9690328e-09
5.9915864e-07
-7.1801174e-09
6.0047713e-07
-8.3899356e-09
6.0211879e-07
-9.5985282e-09
6.0413494e-07
-1.0806156e-08
6.0659495e-07
-1.2014197e-08
6.0959293e-07
-1.3232284e-08
6.1328055e-07
-1.4499956e-08
6.1803515e-07
-1.587201e-08
6.2480611e-07
-1.7142113e-08
6.3438457e-07
-1.7225188e-08
6.4155948e-07
-1.4292512e-08
6.2360719e-07
-8.040548e-09
5.4024597e-07
-1.9269223e-09
3.6586619e-07
1.2830853e-07
1.62547e-09
1.0279056e-07
7.2912099e-09
3.1379516e-07
1.4677325e-08
5.0216867e-07
1.9291468e-08
6.1586841e-07
2.0044953e-08
6.5127621e-07
1.8822352e-08
6.4660871e-07
1.7285419e-08
6.3431702e-07
1.5906599e-08
6.2517587e-07
1.4637337e-08
6.1908859e-07
1.3402717e-08
6.1456927e-07
1.2178646e-08
6.1093621e-07
1.0960446e-08
6.079518e-07
9.7466122e-09
6.0549238e-07
8.5361994e-09
6.0346817e-07
7.3286866e-09
6.0181215e-07
6.1238236e-09
6.0047489e-07
4.9214777e-09
5.9941999e-07
3.7215473e-09
5.9862081e-07
2.5239231e-09
5.9805843e-07
1.3284801e-09
5.9772017e-07
1.3508652e-10
5.9759881e-07
-1.0563767e-09
5.9769207e-07
-2.2459939e-09
5.980026e-07
-3.4337962e-09
5.9853801e-07
-4.6197519e-09
5.9931149e-07
-5.8037743e-09
6.0034266e-07
-6.9857615e-09
6.0165912e-07
-8.1656822e-09
6.0329871e-07
-9.3437022e-09
6.0531296e-07
-1.0520339e-08
6.0777158e-07
-1.1697674e-08
6.1077026e-07
-1.2887261e-08
6.1447013e-07
-1.4129753e-08
6.1927764e-07
-1.5466155e-08
6.2614252e-07
-1.6646678e-08
6.355651e-07
-1.6572892e-08
6.414857e-07
-1.3562995e-08
6.205973e-07
-7.5313449e-09
5.3421431e-07
-1.8181655e-09
3.6015301e-07
1.2649037e-07
1.5374961e-09
1.0125315e-07
6.8361818e-09
3.0849667e-07
1.3909577e-08
4.9509546e-07
1.8554747e-08
6.1122334e-07
1.9504997e-08
6.5032599e-07
1.841675e-08
6.4769695e-07
1.6928938e-08
6.3580482e-07
1.557322e-08
6.2653158e-07
1.4329662e-08
6.2033215e-07
1.3124666e-08
6.1577426e-07
1.1931184e-08
6.1212969e-07
1.0743354e-08