/*--------------------------------*- C++ -*----------------------------------*\
  =========                 |
  \\      /  F ield         | OpenFOAM: The Open Source CFD Toolbox
   \\    /   O peration     | Website:  https://openfoam.org
    \\  /    A nd           | Version:  10
     \\/     M anipulation  |
\*---------------------------------------------------------------------------*/
FoamFile
{
    format      ascii;
    class       surfaceScalarField;
    location    "0.27";
    object      phi_0;
}
// * * * * * * * * * * * * * * * * * * * * * * * * * * * * * * * * * * * * * //

dimensions      [1 0 -1 0 0 0 0];

internalField   nonuniform List<scalar> 
7860
(
3.989601e-08
5.2881203e-07
1.2192743e-08
5.9641107e-07
7.4279227e-09
5.7347257e-07
5.4994437e-09
5.7063619e-07
4.1150191e-09
5.7009211e-07
3.2011614e-09
5.6962152e-07
2.559161e-09
5.6934964e-07
2.0793247e-09
5.6918746e-07
1.7093242e-09
5.6907761e-07
1.416636e-09
5.6900029e-07
1.179465e-09
5.6894477e-07
9.8304831e-10
5.6890401e-07
8.1704246e-10
5.6887359e-07
6.7395745e-10
5.6885066e-07
5.4822022e-10
5.6883331e-07
4.3557039e-10
5.6882022e-07
3.3265448e-10
5.6881049e-07
2.3674543e-10
5.6880348e-07
1.4554051e-10
5.6879877e-07
5.700887e-11
5.687961e-07
-3.0731937e-11
5.6879531e-07
-1.1952396e-10
5.6879636e-07
-2.1127323e-10
5.6879932e-07
-3.0805694e-10
5.6880435e-07
-4.1225555e-10
5.6881177e-07
-5.2671572e-10
5.6882203e-07
-6.5497113e-10
5.6883583e-07
-8.0155526e-10
5.6885416e-07
-9.7246203e-10
5.6887849e-07
-1.1758525e-09
5.6891098e-07
-1.4232278e-09
5.6895497e-07
-1.7313991e-09
5.6901577e-07
-2.1253443e-09
5.6910156e-07
-2.6449444e-09
5.6922722e-07
-3.3726132e-09
5.6943531e-07
-4.4638999e-09
5.6979895e-07
-6.0092041e-09
5.7025299e-07
-9.5081865e-09
5.722067e-07
-2.9576051e-08
5.8877562e-07
5.3913188e-07
5.9672558e-08
4.6913947e-07
3.6666025e-08
6.1941761e-07
2.26282e-08
5.875104e-07
1.6253609e-08
5.7701078e-07
1.2290543e-08
5.7405517e-07
9.6062834e-09
5.7230577e-07
7.6774894e-09
5.7127843e-07
6.2361254e-09
5.7062883e-07
5.1265953e-09
5.7018714e-07
4.2488267e-09
5.6987806e-07
3.5374853e-09
5.6965611e-07
2.9484026e-09
5.6949309e-07
2.4505335e-09
5.6937146e-07
2.0214031e-09
5.6927979e-07
1.6442971e-09
5.6921042e-07
1.3064384e-09
5.6915808e-07
9.9777031e-10
5.6911915e-07
7.1011474e-10
5.6909113e-07
4.3656633e-10
5.6907232e-07
1.7103389e-10
5.6906163e-07
-9.2128487e-11
5.6905847e-07
-3.5844351e-10
5.6906267e-07
-6.3362287e-10
5.6907449e-07
-9.2389847e-10
5.6909463e-07
-1.2364089e-09
5.6912428e-07
-1.5796908e-09
5.6916531e-07
-1.9643408e-09
5.6922048e-07
-2.4039545e-09
5.6929378e-07
-2.9165145e-09
5.6939105e-07
-3.5265125e-09
5.6952098e-07
-4.268367e-09
5.6969682e-07
-5.1924424e-09
5.6993985e-07
-6.3753625e-09
5.7028448e-07
-7.9358433e-09
5.7078771e-07
-1.0077106e-08
5.7157657e-07
-1.3205273e-08
5.7292711e-07
-1.8135108e-08
5.7518282e-07
-2.8177329e-08
5.8224892e-07
-4.5803209e-08
6.064015e-07
4.9332867e-07
6.0008886e-08
4.0913058e-07
5.0487345e-08
6.2893915e-07
3.3370737e-08
6.04627e-07
2.4817743e-08
5.8556377e-07
1.9323318e-08
5.795496e-07
1.5331569e-08
5.7629752e-07
1.2360784e-08
5.7424922e-07
1.0101609e-08
5.72888e-07
8.3406676e-09
5.7194809e-07
6.9348397e-09
5.7128389e-07
5.7880465e-09
5.708029e-07
4.8335237e-09
5.7044761e-07
4.0235072e-09
5.7018147e-07
3.3230118e-09
5.6998029e-07
2.7057745e-09
5.6982766e-07
2.1515635e-09
5.6971229e-07
1.644354e-09
5.6962636e-07
1.1710472e-09
5.6956444e-07
7.2053657e-10
5.6952283e-07
2.8299451e-10
5.6949917e-07
-1.5070488e-10
5.6949217e-07
-5.8949168e-10
5.6950146e-07
-1.0425939e-09
5.695276e-07
-1.5200571e-09
5.6957209e-07
-2.0333474e-09
5.6963757e-07
-2.5961109e-09
5.6972808e-07
-3.2251857e-09
5.6984955e-07
-3.9420121e-09
5.700106e-07
-4.7746836e-09
5.7022372e-07
-5.7610095e-09
5.705073e-07
-6.9531741e-09
5.7088899e-07
-8.4253743e-09
5.7141205e-07
-1.0287007e-08
5.7214611e-07
-1.2699943e-08
5.7320064e-07
-1.5897337e-08
5.7477396e-07
-2.0241074e-08
5.7727085e-07
-2.6709302e-08
5.8165105e-07
-3.8948776e-08
5.9448839e-07
-4.8167786e-08
6.1562051e-07
4.4516088e-07
5.4879119e-08
3.5425147e-07
5.7452292e-08
6.2636597e-07
4.0467648e-08
6.2161165e-07
3.077885e-08
5.9525257e-07
2.4643138e-08
5.8568531e-07
1.9952375e-08
5.8098829e-07
1.6313006e-08
5.7788859e-07
1.3466577e-08
5.7573443e-07
1.1200973e-08
5.7421369e-07
9.3644899e-09
5.7312037e-07
7.8492438e-09
5.7231815e-07
6.5767471e-09
5.7172011e-07
5.4891545e-09
5.7126907e-07
4.5431544e-09
5.7092629e-07
3.705653e-09
5.7066516e-07
2.9507943e-09
5.7046715e-07
2.2578617e-09
5.703193e-07
1.6097611e-09
5.7021254e-07
9.9188849e-10
5.701407e-07
3.912504e-10
5.7009981e-07
-2.0425937e-10
5.7008768e-07
-8.0649985e-10
5.701037e-07
-1.4277041e-09
5.701488e-07
-2.0811337e-09
5.7022552e-07
-2.7818289e-09
5.7033826e-07
-3.5475372e-09
5.7049378e-07
-4.3999201e-09
5.7070194e-07
-5.3661862e-09
5.7097687e-07
-6.4813714e-09
5.7133891e-07
-7.7916e-09
5.7181753e-07
-9.3586506e-09
5.7245604e-07
-1.1266343e-08
5.7331974e-07
-1.3630939e-08
5.7451071e-07
-1.6613781e-08
5.7618348e-07
-2.0412639e-08
5.7857282e-07
-2.5294187e-08
5.821524e-07
-3.2518394e-08
5.8887526e-07
-4.5101979e-08
6.0707198e-07
-4.6550043e-08
6.1706858e-07
3.9861084e-07
4.7965841e-08
3.0628562e-07
6.0076684e-08
6.1425513e-07
4.5400299e-08
6.3628803e-07
3.4875485e-08
6.0577738e-07
2.839997e-08
5.9216082e-07
2.3419708e-08
5.8596855e-07
1.9434358e-08
5.8187394e-07
1.6229181e-08
5.7893961e-07
1.3619664e-08
5.7682321e-07
1.14664e-08
5.7527363e-07
9.6642646e-09
5.7412028e-07
8.1332178e-09
5.7325115e-07
6.8122381e-09
5.7259005e-07
5.6543144e-09
5.7208421e-07
4.6226728e-09
5.716968e-07
3.688028e-09
5.7140179e-07
2.8265429e-09
5.7118078e-07
2.0182894e-09
5.7102079e-07
1.246064e-09
5.7091293e-07
4.9444296e-10
5.7085143e-07
-2.510112e-10
5.7083313e-07
-1.0044593e-09
5.7085715e-07
-1.780476e-09
5.7092482e-07
-2.5947724e-09
5.7103982e-07
-3.4650119e-09
5.712085e-07
-4.4117942e-09
5.7144057e-07
-5.4598951e-09
5.7175004e-07
-6.6398762e-09
5.7215685e-07
-7.9902113e-09
5.7268924e-07
-9.5601607e-09
5.7338748e-07
-1.1413546e-08
5.7430942e-07
-1.3633177e-08
5.7553937e-07
-1.6327354e-08
5.7720488e-07
-1.9639676e-08
5.794958e-07
-2.3740402e-08
5.8267355e-07
-2.8932456e-08
5.8734445e-07
-3.6792692e-08
5.9673549e-07
-4.8465233e-08
6.1874452e-07
-4.319506e-08
6.117984e-07
3.5541578e-07
4.0336145e-08
2.6594948e-07
5.8994316e-08
5.9559696e-07
4.8330333e-08
6.4695202e-07
3.7588296e-08
6.1651942e-07
3.0929085e-08
5.9882004e-07
2.5894171e-08
5.9100346e-07
2.1780143e-08
5.8598796e-07
1.8392152e-08
5.823276e-07
1.557754e-08
5.7963782e-07
1.321426e-08
5.7763691e-07
1.1206375e-08
5.7612817e-07
9.4785924e-09
5.7497894e-07
7.9717726e-09
5.7409687e-07
6.639013e-09
5.7341697e-07
5.4426878e-09
5.7289312e-07
4.3521815e-09
5.724923e-07
3.3421075e-09
5.7219085e-07
2.3909098e-09
5.7197199e-07
1.4797446e-09
5.7182409e-07
5.9155953e-10
5.7173962e-07
-2.8969618e-10
5.7171439e-07
-1.1797896e-09
5.7174724e-07
-2.0949066e-09
5.7183993e-07
-3.0523799e-09
5.7199729e-07
-4.0714955e-09
5.7222762e-07
-5.1744382e-09
5.7254351e-07
-6.387444e-09
5.7296304e-07
-7.7422339e-09
5.7351164e-07
-9.2778124e-09
5.7422482e-07
-1.1042775e-08
5.7515244e-07
-1.3098339e-08
5.7636499e-07
-1.552177e-08
5.779628e-07
-1.8410465e-08
5.8009358e-07
-2.1888596e-08
5.8297394e-07
-2.6111944e-08
5.868969e-07
-3.1490049e-08
5.9272255e-07
-3.9656367e-08
6.0490181e-07
-4.9174038e-08
6.2826219e-07
-3.8579356e-08
6.0120372e-07
3.1683643e-07
3.2862814e-08
2.3308667e-07
5.5250295e-08
5.7320948e-07
4.923257e-08
6.5296974e-07
3.9061799e-08
6.2669019e-07
3.2430918e-08
6.0545092e-07
2.7518997e-08
5.9591538e-07
2.3438904e-08
5.9006806e-07
2.0003065e-08
5.8576344e-07
1.7094929e-08
5.8254595e-07
1.4612276e-08
5.8011957e-07
1.2471317e-08
5.7826913e-07
1.0604804e-08
5.7684545e-07
8.9584992e-09
5.7574317e-07
7.4882105e-09
5.7488726e-07
6.1576105e-09
5.7422372e-07
4.936475e-09
5.7371344e-07
3.7992416e-09
5.7332809e-07
2.7238319e-09
5.730474e-07
1.690676e-09
5.7285725e-07
6.8188099e-10
5.7274841e-07
-3.1950069e-10
5.7271577e-07
-1.3301458e-09
5.7275789e-07
-2.3671264e-09
5.7287691e-07
-3.4485926e-09
5.7307875e-07
-4.5945144e-09
5.7337354e-07
-5.8275292e-09
5.7377652e-07
-7.1739384e-09
5.7430945e-07
-8.6649085e-09
5.7500261e-07
-1.0337921e-08
5.7589783e-07
-1.2238549e-08
5.7705307e-07
-1.4422845e-08
5.7854929e-07
-1.6960235e-08
5.8050019e-07
-1.9935558e-08
5.830689e-07
-2.3449589e-08
5.8648797e-07
-2.7643749e-08
5.9109106e-07
-3.3036501e-08
5.9811531e-07
-4.1012813e-08
6.1287812e-07
-4.768963e-08
6.34939e-07
-3.337704e-08
5.8689113e-07
2.8345939e-07
2.6189126e-08
2.0689754e-07
5.0133038e-08
5.4926557e-07
4.8493974e-08
6.546088e-07
3.9491416e-08
6.3569275e-07
3.3077782e-08
6.1186455e-07
2.8412337e-08
6.0058083e-07
2.4493186e-08
5.9398721e-07
2.1118469e-08
5.8913815e-07
1.8207306e-08
5.8545711e-07
1.5680471e-08
5.826464e-07
1.3468828e-08
5.8048077e-07
1.1515199e-08
5.7879908e-07
9.7720732e-09
5.774863e-07
8.1996604e-09
5.7645967e-07
6.7644318e-09
5.7565895e-07
5.4378448e-09
5.7504002e-07
4.1952549e-09
5.7457068e-07
3.0149926e-09
5.7422766e-07
1.8775656e-09
5.7399468e-07
7.6495572e-10
5.7386102e-07
-3.4001728e-10
5.7382074e-07
-1.4542919e-09
5.7387216e-07
-2.5951577e-09
5.7401778e-07
-3.7808579e-09
5.7426445e-07
-5.0312323e-09
5.7462391e-07
-6.368432e-09
5.7511372e-07
-7.8177317e-09
5.7575875e-07
-9.4084772e-09
5.7659335e-07
-1.1175193e-08
5.7766455e-07
-1.3158851e-08
5.7903673e-07
-1.5408519e-08
5.8079895e-07
-1.7983481e-08
5.8307515e-07
-2.0953189e-08
5.8603861e-07
-2.4392831e-08
5.8992761e-07
-2.8437944e-08
5.9513617e-07
-3.3693839e-08
6.033712e-07
-4.106512e-08
6.202494e-07
-4.4799339e-08
6.3867322e-07
-2.8205411e-08
5.702972e-07
2.5525397e-07
2.0571045e-08
1.863265e-07
4.4583583e-08
5.2525303e-07
4.664342e-08
6.5254897e-07
3.9153646e-08
6.4318252e-07
3.3084238e-08
6.1793396e-07
2.8718014e-08
6.0494705e-07
2.5038513e-08
5.9766671e-07
2.1804115e-08
5.9237255e-07
1.8959505e-08
5.8830172e-07
1.6448631e-08
5.8515728e-07
1.4217997e-08
5.827114e-07
1.2221423e-08
5.8079565e-07
1.0419129e-08
5.7928859e-07
8.776761e-09
5.7810204e-07
7.2645669e-09
5.7717115e-07
5.8565823e-09
5.7644801e-07
4.5298922e-09
5.7589737e-07
3.2639646e-09
5.7549359e-07
2.0400436e-09
5.752186e-07
8.4059278e-10
5.7506047e-07
-3.5122532e-10
5.7501256e-07
-1.5520451e-09
5.7507298e-07
-2.7787954e-09
5.7524453e-07
-4.0492007e-09
5.7553486e-07
-5.3823056e-09
5.7595702e-07
-6.7990409e-09
5.7653046e-07
-8.3228405e-09
5.7728255e-07
-9.980327e-09
5.7825084e-07
-1.1802078e-08
5.794863e-07
-1.382342e-08
5.8105807e-07
-1.6085341e-08
5.8306087e-07
-1.8635689e-08
5.856255e-07
-2.1527568e-08
5.8893049e-07
-2.4814993e-08
5.9321503e-07
-2.86442e-08
5.9896538e-07
-3.3662604e-08
6.083896e-07
-4.0146606e-08
6.2673341e-07
-4.1161228e-08
6.3968784e-07
-2.3417852e-08
5.5255383e-07
2.3183612e-07
1.6015635e-08
1.7031087e-07
3.9144359e-08
5.0212431e-07
4.4119152e-08
6.4757418e-07
3.8290214e-08
6.4901146e-07
3.2654424e-08
6.2356975e-07
2.8592088e-08
6.0900939e-07
2.5184059e-08
6.0107474e-07
2.2136376e-08
5.9542023e-07
1.940515e-08
5.9103295e-07
1.6954324e-08
5.876081e-07
1.4744921e-08
5.8492081e-07
1.2741346e-08
5.8279922e-07
1.0911689e-08
5.8111825e-07
9.2274292e-09
5.797863e-07
7.6630955e-09
5.7873548e-07
6.1958426e-09
5.7791526e-07
4.8050262e-09
5.7728818e-07
3.4717752e-09
5.7682684e-07
2.1785707e-09
5.765118e-07
9.088376e-10
5.763302e-07
-3.5345215e-10
5.7627485e-07
-1.6241666e-09
5.7634369e-07
-2.9194055e-09
5.7653977e-07
-4.2558909e-09
5.7687134e-07
-5.6513667e-09
5.7735249e-07
-7.1250129e-09
5.780041e-07
-8.6978732e-09
5.7885541e-07
-1.0393293e-08
5.7994626e-07
-1.2237378e-08
5.8133038e-07
-1.4259407e-08
5.830801e-07
-1.6492204e-08
5.8529367e-07
-1.897252e-08
5.8810582e-07
-2.1738492e-08
5.9169646e-07
-2.4830593e-08
5.9630713e-07
-2.8417734e-08
6.0255252e-07
-3.3127163e-08
6.1309903e-07
-3.8552198e-08
6.3215844e-07
-3.7217792e-08
6.3835344e-07
-1.9183764e-08
5.345198e-07
2.1265236e-07
1.2423933e-08
1.5788694e-07
3.4114466e-08
4.8043379e-07
4.1250381e-08
6.4043826e-07
3.7079279e-08
6.5318256e-07
3.1942474e-08
6.2870655e-07
2.8169286e-08
6.1278258e-07
2.5033461e-08
6.0421056e-07
2.2192504e-08
5.9826119e-07
1.9601344e-08
5.9362411e-07
1.72394e-08
5.8997005e-07
1.5080039e-08
5.8708017e-07
1.309695e-08
5.8478231e-07
1.1265496e-08
5.829497e-07
9.5628249e-09
5.8148897e-07
7.9678201e-09
5.8033048e-07
6.4609716e-09
5.7942211e-07
5.0241964e-09
5.7872496e-07
3.6406112e-09
5.7821043e-07
2.2942764e-09
5.7785813e-07
9.6992623e-10
5.7765455e-07
-3.4730881e-10
5.7759208e-07
-1.6721806e-09
5.7766857e-07
-3.0196094e-09
5.778872e-07
-4.4049647e-09
5.782567e-07
-5.8443436e-09
5.7879187e-07
-7.3548443e-09
5.7951461e-07
-8.9548261e-09
5.8045539e-07
-1.0664141e-08
5.8165557e-07
-1.2504342e-08
5.8317058e-07
-1.4498847e-08
5.850746e-07
-1.6672969e-08
5.8746779e-07
-1.9053595e-08
5.9048644e-07
-2.1666216e-08
5.9430908e-07
-2.4545029e-08
5.9918595e-07
-2.7884614e-08
6.058921e-07
-3.223021e-08
6.1744463e-07
-3.6524033e-08
6.3645226e-07
-3.3270309e-08
6.3509972e-07
-1.5564832e-08
5.1681432e-07
1.9708753e-07
9.6573203e-09
1.4822963e-07
2.9646218e-08
4.604449e-07
3.8283763e-08
6.3180072e-07
3.5659013e-08
6.5580731e-07
3.1059571e-08
6.3330599e-07
2.7553979e-08
6.1628817e-07
2.4673291e-08
6.0709125e-07
2.2041273e-08
6.0089321e-07
1.9601958e-08
5.9606342e-07
1.7345377e-08
5.9222663e-07
1.5254917e-08
5.8917063e-07
1.3311996e-08
5.8672523e-07
1.1498282e-08
5.8476342e-07
9.7960483e-09
5.831912e-07
8.1882925e-09
5.8193824e-07
6.6587936e-09
5.8095161e-07
5.192107e-09
5.8019164e-07
3.7734891e-09
5.7962904e-07
2.388776e-09
5.7924285e-07
1.0242329e-09
5.790191e-07
-3.336169e-10
5.7894993e-07
-1.6981708e-09
5.7903312e-07
-3.0829348e-09
5.7927196e-07
-4.5017036e-09
5.7967547e-07
-5.9687311e-09
5.802589e-07
-7.4988817e-09
5.8104476e-07
-9.1077543e-09
5.8206426e-07
-1.0811758e-08
5.8335958e-07
-1.2628141e-08
5.8498696e-07
-1.4574983e-08
5.8702144e-07
-1.6671022e-08
5.8956383e-07
-1.8934734e-08
5.9275015e-07
-2.1381626e-08
5.9675597e-07
-2.4045833e-08
6.0185015e-07
-2.714371e-08
6.0898998e-07
-3.1089909e-08
6.2139083e-07
-3.4266248e-08
6.396286e-07
-2.9523929e-08
6.303574e-07
-1.2556419e-08
4.9984681e-07
1.8453111e-07
7.5669757e-09
1.4066266e-07
2.5787278e-08
4.4222461e-07
3.5390158e-08
6.2219785e-07
3.4139272e-08
6.570582e-07
3.0088708e-08
6.3735656e-07
2.6826159e-08
6.1955072e-07
2.4173232e-08
6.0974418e-07
2.1740464e-08
6.0332597e-07
1.9454274e-08
5.9834961e-07
1.7310311e-08
5.9437059e-07
1.5299696e-08
5.9118124e-07
1.3410047e-08
5.8861488e-07
1.1628249e-08
5.8654521e-07
9.940987e-09
5.8487847e-07
8.3349452e-09
5.8354428e-07
6.796969e-09
5.8248958e-07
5.3141687e-09
5.8167444e-07
3.873951e-09
5.8106926e-07
2.4639999e-09
5.806528e-07
1.0722213e-09
5.8041087e-07
-3.1333884e-10
5.8033549e-07
-1.7045875e-09
5.8042437e-07
-3.1134871e-09
5.8068086e-07
-4.5521495e-09
5.8111413e-07
-6.0329148e-09
5.8173966e-07
-7.568406e-09
5.8258025e-07
-9.1715483e-09
5.8366741e-07
-1.0855534e-08
5.8504356e-07
-1.2633733e-08
5.8676516e-07
-1.4519574e-08
5.8890728e-07
-1.6526239e-08
5.915705e-07
-1.8665324e-08
5.9488924e-07
-2.0945332e-08
5.9903598e-07
-2.3405452e-08
6.0431027e-07
-2.6275391e-08
6.1185992e-07
-2.9807329e-08
6.2492276e-07
-3.1940496e-08
6.4176177e-07
-2.6101003e-08
6.245179e-07
-1.0111883e-08
4.8385769e-07
1.7441922e-07
6.0123255e-09
1.3465034e-07
2.2515867e-08
4.2572108e-07
3.2671427e-08
6.120423e-07
3.26005e-08
6.5712912e-07
2.9089976e-08
6.4086708e-07
2.6045994e-08
6.225947e-07
2.358862e-08
6.1220155e-07
2.1337655e-08
6.0557694e-07
1.9198483e-08
6.0048879e-07
1.7167644e-08
5.9640143e-07
1.524176e-08
5.9310713e-07
1.3413201e-08
5.9044344e-07
1.167298e-08
5.8828543e-07
1.0011425e-08
5.8654002e-07
8.4183904e-09
5.8513732e-07
6.8834598e-09
5.8402451e-07
5.3961086e-09
5.831618e-07
3.9458016e-09
5.8251957e-07
2.5220452e-09
5.8207655e-07
1.1144032e-09
5.8181852e-07
-2.8751468e-10
5.8173741e-07
-1.6940769e-09
5.8183093e-07
-3.1156627e-09
5.8210245e-07
-4.562686e-09
5.8256115e-07
-6.0456026e-09
5.8322258e-07
-7.5748918e-09
5.8410954e-07
-9.1610006e-09
5.8525352e-07
-1.0814238e-08
5.866968e-07
-1.2544616e-08
5.8849554e-07
-1.4361675e-08
5.9072434e-07
-1.6274101e-08
5.9348292e-07
-1.8288191e-08
5.9690333e-07
-2.0408531e-08
6.0115632e-07
-2.2682912e-08
6.0658465e-07
-2.5343257e-08
6.1452026e-07
-2.8463071e-08
6.2804258e-07
-2.966098e-08
6.4295968e-07
-2.3056805e-08
6.1791373e-07
-8.1627777e-09
4.6896366e-07
1.6625645e-07
4.8706666e-09
1.2977968e-07
1.9773436e-08
4.1081833e-07
3.0175844e-08
6.016399e-07
3.1095045e-08
6.5620992e-07
2.8102877e-08
6.4385924e-07
2.525578e-08
6.2544179e-07
2.2961587e-08
6.1449574e-07
2.0870899e-08
6.0766763e-07
1.8867866e-08
6.0249182e-07
1.6945936e-08
5.9832336e-07
1.5105183e-08
5.9494788e-07
1.3341418e-08
5.9220721e-07
1.1648764e-08
5.8997809e-07
1.0020432e-08
5.8816835e-07
8.4488993e-09
5.8670885e-07
6.9261123e-09
5.855473e-07
5.4436563e-09
5.8464425e-07
3.9928921e-09
5.8397033e-07
2.5650523e-09
5.8350439e-07
1.1513045e-09
5.8323226e-07
-2.5720729e-10
5.8314592e-07
-1.6693356e-09
5.8324306e-07
-3.0939082e-09
5.8352702e-07
-4.5396983e-09
5.8400694e-07
-6.0153803e-09
5.8469826e-07
-7.5294593e-09
5.8562361e-07
-9.0901682e-09
5.8681422e-07
-1.0705325e-08
5.8831196e-07
-1.2382147e-08
5.9017236e-07
-1.4127067e-08
5.9246926e-07
-1.5945305e-08
5.9530116e-07
-1.7839388e-08
5.9879741e-07
-1.9812788e-08
6.0312972e-07
-2.1923643e-08
6.0869551e-07
-2.4394059e-08
6.1699068e-07
-2.7115896e-08
6.3076442e-07
-2.7499817e-08
6.433436e-07
-2.0400709e-08
6.1081462e-07
-6.6334563e-09
4.5519641e-07
1.5962299e-07
4.0396394e-09
1.2574006e-07
1.7487508e-08
3.9737049e-07
2.7917374e-08
5.9121005e-07
2.9653542e-08
6.5447376e-07
2.7150617e-08
6.4636217e-07
2.4482714e-08
6.2810969e-07
2.2322279e-08
6.1665618e-07
2.0369276e-08
6.0962063e-07
1.8488995e-08
6.043721e-07
1.6668819e-08
6.0014354e-07
1.4910497e-08
5.967062e-07
1.3212174e-08
5.9390553e-07
1.1570198e-08
5.9162006e-07
9.9799626e-09
5.8975859e-07
8.4360434e-09
5.8825277e-07
6.9323538e-09
5.8705099e-07
5.4623053e-09
5.861143e-07
4.0189519e-09
5.8541368e-07
2.5951075e-09
5.8492824e-07
1.1834394e-09
5.8464393e-07
-2.2345682e-10
5.8455282e-07
-1.6329935e-09
5.8465259e-07
-3.0525316e-09
5.8494656e-07
-4.4893135e-09
5.8544372e-07
-5.9503841e-09
5.8615933e-07
-7.4424892e-09
5.8711572e-07
-8.971948e-09
5.8834368e-07
-1.0544499e-08
5.8988451e-07
-1.2165125e-08
5.9179299e-07
-1.383788e-08
5.9414202e-07
-1.5565452e-08
5.9702873e-07
-1.7347963e-08
6.0057992e-07
-1.9190084e-08
6.0497184e-07
-2.1160382e-08
6.1066581e-07
-2.3459799e-08
6.1929009e-07
-2.5805573e-08
6.3311019e-07
-2.5496779e-08
6.430348e-07
-1.8114193e-08
6.0343203e-07
-5.4495475e-09
4.4253177e-07
1.5417344e-07
3.4365683e-09
1.2230351e-07
1.5584274e-08
3.8522281e-07
2.5889405e-08
5.8090494e-07
2.8291416e-08
6.5207175e-07
2.6245072e-08
6.4840851e-07
2.3742691e-08
6.3061207e-07
2.1691013e-08
6.1870786e-07
1.985401e-08
6.1145763e-07
1.8082293e-08
6.0614382e-07
1.6355204e-08
6.0187062e-07
1.4674683e-08
5.9838672e-07
1.3040327e-08
5.9553988e-07
1.1449986e-08
5.932104e-07
9.9006358e-09
5.9130794e-07
8.3884689e-09
5.8976493e-07
6.9089907e-09
5.8853047e-07
5.4571492e-09
5.8756614e-07
4.0274691e-09
5.8684336e-07
2.614174e-09
5.8634153e-07
1.2112929e-09
5.8604681e-07
-1.8724542e-10
5.8595136e-07
-1.5875258e-09
5.8605287e-07
-2.9955634e-09
5.8635459e-07
-4.4172141e-09
5.8686538e-07
-5.8580747e-09
5.8760019e-07
-7.3233675e-09
5.8858101e-07
-8.8178064e-09
5.8983812e-07
-1.0345452e-08
5.9141215e-07
-1.1909564e-08
5.933571e-07
-1.3512464e-08
5.9574492e-07
-1.5155097e-08
5.9867137e-07
-1.6836353e-08
6.0226118e-07
-1.8563845e-08
6.0669933e-07
-2.0415376e-08
6.1251734e-07
-2.2560987e-08
6.2143571e-07
-2.4556976e-08
6.3510618e-07
-2.3668715e-08
6.4214654e-07
-1.6163284e-08
5.959266e-07
-4.5426405e-09
4.3091112e-07
1.496308e-07
2.9968226e-09
1.193067e-07
1.3995269e-08
3.7422441e-07
2.4074086e-08
5.7082616e-07
2.7013828e-08
6.4913202e-07
2.539064e-08
6.500317e-07
2.3043744e-08
6.3295897e-07
2.1080656e-08
6.2067095e-07
1.9339983e-08
6.131983e-07
1.7662946e-08
6.0782085e-07
1.6019773e-08
6.035138e-07
1.4411395e-08
5.999951e-07
1.2838171e-08
5.9711311e-07
1.1298895e-08
5.9474968e-07
9.7916327e-09
5.928152e-07
8.3137789e-09
5.9124279e-07
6.8620914e-09
5.8998215e-07
5.432779e-09
5.8899545e-07
4.0216139e-09
5.8825453e-07
2.6240458e-09
5.877391e-07
1.2353098e-09
5.8743555e-07
-1.4947199e-10
5.8733614e-07
-1.5351924e-09
5.8743859e-07
-2.9266641e-09
5.8774607e-07
-4.3285184e-09
5.8826723e-07
-5.7450982e-09
5.8901677e-07
-7.1803403e-09
5.9001625e-07
-8.63765e-09
5.9129543e-07
-1.0119776e-08
5.9289428e-07
-1.1628706e-08
5.9486603e-07
-1.3165561e-08
5.9728177e-07
-1.4730201e-08
6.00236e-07
-1.632125e-08
6.0385223e-07
-1.7950458e-08
6.0832854e-07
-1.9702738e-08
6.1426962e-07
-2.1709507e-08
6.2344247e-07
-2.3383606e-08
6.3678028e-07
-2.2016811e-08
6.4077975e-07
-1.4506952e-08
5.8841674e-07
-3.8528374e-09
4.2025701e-07
1.4577796e-07
2.671564e-09
1.1663517e-07
1.266075e-08
3.6423527e-07
2.2448674e-08
5.6103827e-07
2.5819429e-08
6.4576128e-07
2.4586938e-08
6.5126419e-07
2.2388598e-08
6.351573e-07
2.0498631e-08
6.2256091e-07
1.8837183e-08
6.1485975e-07
1.7241906e-08
6.0941613e-07
1.5673636e-08
6.0508207e-07
1.4131352e-08
6.0153738e-07
1.2615646e-08
5.9862881e-07
1.1125843e-08
5.9623948e-07
9.66071e-09
5.9428033e-07
8.2185035e-09
5.9268499e-07
6.7969385e-09
5.9140372e-07
5.3932343e-09
5.9039916e-07
4.0041985e-09
5.8964356e-07
2.6263241e-09
5.8911698e-07
1.2558905e-09
5.8880598e-07
-1.1093559e-10
5.8870296e-07
-1.4780017e-09
5.8880566e-07
-2.8490704e-09
5.8911713e-07
-4.2277167e-09
5.8964588e-07
-5.6172227e-09
5.9040628e-07
-7.0204675e-09
5.914195e-07
-8.4398182e-09
5.9271478e-07
-9.8770339e-09
5.9433149e-07
-1.1333204e-08
5.963222e-07
-1.2808684e-08
5.9875725e-07
-1.4302765e-08
6.0173009e-07
-1.5814591e-08
6.0536405e-07
-1.7360708e-08
6.0987466e-07
-1.9030426e-08
6.1593933e-07
-2.0910866e-08
6.2532291e-07
-2.2290615e-08
6.3816003e-07
-2.0532377e-08
6.3902151e-07
-1.3102691e-08
5.8098706e-07
-3.3297319e-09
4.1048405e-07
1.4244823e-07
2.425052e-09
1.1421014e-07
1.1530807e-08
3.5512957e-07
2.0989622e-08
5.5157951e-07
2.4703243e-08
6.4204768e-07
2.3830805e-08
6.5213662e-07
2.1776559e-08
6.3721155e-07
1.9948484e-08
6.2438899e-07
1.8351902e-08
6.1645633e-07
1.6826796e-08
6.1094124e-07
1.5324979e-08
6.0658388e-07
1.3842776e-08
6.0301958e-07
1.2380618e-08
6.0009097e-07
1.0938061e-08
5.9768204e-07
9.5142864e-09
5.9570411e-07
8.1081354e-09
5.9409114e-07
6.7180344e-09
5.9279382e-07
5.3419947e-09
5.917752e-07
3.977665e-09
5.9100789e-07
2.6224083e-09
5.9047223e-07
1.2733907e-09
5.90155e-07
-7.2326742e-11
5.9004868e-07
-1.4176934e-09
5.9015103e-07
-2.7655747e-09
5.9046501e-07
-4.118654e-09
5.9099895e-07
-5.4793359e-09
5.9176696e-07
-6.8496497e-09
5.9278981e-07
-8.2311623e-09
5.9409629e-07
-9.6249149e-09
5.9572525e-07
-1.1031404e-08
5.9772869e-07
-1.2450553e-08
6.001764e-07
-1.3881486e-08
6.0316102e-07
-1.5324459e-08
6.0680703e-07
-1.6801029e-08
6.1135123e-07
-1.8401872e-08
6.1754018e-07
-2.0166087e-08
6.2708713e-07
-2.1277474e-08
6.3927141e-07
-1.9201384e-08
6.3694542e-07
-1.191035e-08
5.7369602e-07
-2.9323192e-09
4.0150602e-07
1.3951591e-07
2.2319066e-09
1.1197827e-07
1.0564984e-08
3.4679657e-07
1.967487e-08
5.4246968e-07
2.3658719e-08
6.3806385e-07
2.3117777e-08
6.5267756e-07
2.120494e-08
6.3912438e-07
1.9431127e-08
6.261628e-07
1.7887726e-08
6.1799973e-07
1.6422678e-08
6.1240628e-07
1.4979649e-08
6.0802691e-07
1.3551824e-08
6.0444741e-07
1.2139181e-08
6.0150362e-07
1.0741302e-08
5.9907992e-07
9.357572e-09
5.9708784e-07
7.9872071e-09
5.9546151e-07
6.6291444e-09
5.9415188e-07
5.2820007e-09
5.9312234e-07
3.9440945e-09
5.923458e-07
2.6135011e-09
5.9180283e-07
1.2881239e-09
5.9148038e-07
-3.4224811e-11
5.9137103e-07
-1.3557379e-09
5.9147254e-07
-2.6785301e-09
5.9178781e-07
-4.0045474e-09
5.9232497e-07
-5.3354843e-09
5.930979e-07
-6.6727043e-09
5.9412703e-07
-8.0171769e-09
5.9544077e-07
-9.3694475e-09
5.9707752e-07
-1.0729657e-08
5.990889e-07
-1.2097544e-08
6.0154429e-07
-1.3472367e-08
6.0453584e-07
-1.4855917e-08
6.0819058e-07
-1.6274603e-08
6.1276991e-07
-1.7817373e-08
6.1908295e-07
-1.9473281e-08
6.2874304e-07
-2.0340172e-08
6.401383e-07
-1.8007598e-08
6.3461284e-07
-1.0894058e-08
5.6658248e-07
-2.6281445e-09
3.932401e-07
1.3688777e-07
2.0746429e-09
1.0990367e-07
9.731175e-09
3.3914012e-07
1.8484887e-08
5.3371605e-07
2.2679011e-08
6.3386976e-07
2.2443059e-08
6.5291352e-07
2.0670088e-08
6.4089735e-07
1.8945808e-08
6.2788707e-07
1.7446335e-08
6.1949921e-07
1.6032707e-08
6.1381991e-07
1.4641674e-08
6.0941795e-07
1.3262988e-08
6.0582609e-07
1.1895953e-08
6.0287065e-07
1.0540049e-08
6.0043582e-07
9.1947174e-09
5.9843317e-07
7.8593917e-09
5.9679683e-07
6.533361e-09
5.9547791e-07
5.215694e-09
5.9444001e-07
3.9052315e-09
5.9365626e-07
2.6006202e-09
5.9310744e-07
1.3003658e-09
5.9278063e-07
2.9009718e-12
5.9266849e-07
-1.2933472e-09
5.9276879e-07
-2.5898731e-09
5.9308433e-07
-3.8880266e-09
5.9362312e-07
-5.1889405e-09
5.9439881e-07
-6.4934705e-09
5.9543156e-07
-7.8021565e-09
5.9674945e-07
-9.1152235e-09
5.9839058e-07
-1.0432635e-08
6.0040631e-07
-1.175412e-08
6.0286577e-07
-1.3079287e-08
6.0586101e-07
-1.4411747e-08
6.0952304e-07
-1.5782307e-08
6.1414047e-07
-1.7275204e-08
6.2057584e-07
-1.8828868e-08
6.302967e-07
-1.9472818e-08
6.4078225e-07
-1.6934517e-08
6.3207454e-07
-1.0022754e-08
5.5967072e-07
-2.3920944e-09
3.8560944e-07
1.3449567e-07
1.9415903e-09
1.0796213e-07
9.0042594e-09
3.3207756e-07
1.7402962e-08
5.2531744e-07
2.1757683e-08
6.2951508e-07
2.1802095e-08
6.5286911e-07
2.0168049e-08
6.4253139e-07
1.8490814e-08
6.2956431e-07
1.7028136e-08
6.2096189e-07
1.5658657e-08
6.1518939e-07
1.4313699e-08
6.107629e-07
1.2979442e-08
6.0716035e-07
1.1654354e-08
6.0419574e-07
1.0337727e-08
6.0175245e-07
9.0289678e-09
5.9974193e-07
7.727613e-09
5.9809819e-07
6.4331817e-09
5.9677234e-07
5.1450694e-09
5.9572812e-07
3.8625157e-09
5.9493882e-07
2.5846163e-09
5.9438534e-07
1.3103593e-09
5.9405489e-07
3.867713e-11
5.9394018e-07
-1.2314949e-09
5.9403896e-07
-2.5011581e-09
5.94354e-07
-3.771189e-09
5.9489316e-07
-5.0422861e-09
5.9566991e-07
-6.3149291e-09
5.967042e-07
-7.5893632e-09
5.9802389e-07
-8.8656275e-09
5.9966685e-07
-1.0143634e-08
6.0168432e-07
-1.1423225e-08
6.0414536e-07
-1.2704508e-08
6.0714229e-07
-1.3993072e-08
6.108116e-07
-1.5323465e-08
6.1547086e-07
-1.6772451e-08
6.2202483e-07
-1.8228438e-08
6.3175269e-07
-1.866876e-08
6.4122257e-07
-1.5966562e-08
6.2937234e-07
-9.2703157e-09
5.5297447e-07
-2.2051964e-09
3.7854432e-07
1.3229048e-07
1.8252079e-09
1.0613698e-07
8.3647524e-09
3.2553814e-07
1.6415089e-08
5.1726722e-07
2.0889038e-08
6.2504119e-07
2.1190856e-08
6.525673e-07
1.9694972e-08
6.4402727e-07
1.8063946e-08
6.3119533e-07
1.6632717e-08
6.2239311e-07
1.5301342e-08
6.1652077e-07
1.3997349e-08
6.120669e-07
1.2703347e-08
6.0845435e-07
1.1416844e-08
6.0548224e-07
1.0136894e-08
6.030324e-07
8.862811e-09
6.0101601e-07
7.594157e-09
5.9936684e-07
6.3305892e-09
5.9803591e-07
5.0717308e-09
5.9698698e-07
3.8171183e-09
5.9619343e-07
2.566193e-09
5.9563626e-07
1.3183217e-09
5.9530276e-07
7.283348e-11
5.9518566e-07
-1.1709368e-09
5.9528273e-07
-2.4135989e-09
5.9559666e-07
-3.6556632e-09
5.9613522e-07
-4.8975021e-09
5.9691175e-07
-6.1393268e-09
5.9794603e-07
-7.3811935e-09
5.9926575e-07
-8.6230548e-09
6.0090871e-07
-9.8648599e-09
6.0292612e-07
-1.1106637e-08
6.0538714e-07
-1.2349097e-08
6.0838475e-07
-1.3599864e-08
6.1206237e-07
-1.4896424e-08
6.1676742e-07
-1.6305613e-08
6.2343402e-07
-1.7667347e-08
6.3311442e-07
-1.7921315e-08
6.4147654e-07
-1.5089704e-08
6.2654073e-07
-8.6152282e-09
5.465e-07
-2.0534519e-09
3.7198255e-07
1.3023702e-07
1.720776e-09
1.0441628e-07
7.7975802e-09
3.1946148e-07
1.5509651e-08
5.0955528e-07
2.0068206e-08
6.2048271e-07
2.0605942e-08
6.5202958e-07
1.924733e-08
6.4538587e-07
1.7662831e-08
6.3277983e-07
1.6259175e-08
6.2379677e-07
1.4960919e-08
6.1781902e-07
1.3693509e-08
6.1333431e-07
1.2436098e-08
6.0971176e-07
1.1185138e-08
6.067332e-07
9.9394131e-09
6.0427812e-07
8.6981139e-09
6.0225731e-07
7.4607774e-09
6.0060418e-07
6.2271306e-09
5.9926956e-07
4.9969481e-09
5.9821716e-07
3.7699799e-09
5.974204e-07
2.5459272e-09
5.9686031e-07
1.3244471e-09
5.9652424e-07
1.0517589e-10
5.9640493e-07
-1.112241e-09
5.9650015e-07
-2.3281131e-09
5.9681253e-07
-3.5426742e-09
5.9734978e-07
-4.7560589e-09
5.9812513e-07
-5.9682965e-09
5.9915827e-07
-7.1793344e-09
6.0047679e-07
-8.3891095e-09
6.0211848e-07
-9.5976631e-09
6.0413468e-07
-1.0805257e-08
6.0659473e-07
-1.2013267e-08
6.0959276e-07
-1.323133e-08
6.1328043e-07
-1.4498978e-08
6.1803507e-07
-1.5871007e-08
6.2480605e-07
-1.7141093e-08
6.3438451e-07
-1.7224209e-08
6.4155966e-07
-1.4291704e-08
6.2360823e-07
-8.0400508e-09
5.4024834e-07
-1.926761e-09
3.6586926e-07
1.2831026e-07
1.6254248e-09
1.0279093e-07
7.2910461e-09
3.1379603e-07
1.4677035e-08
5.0216946e-07
1.9291106e-08
6.1586873e-07
2.0044584e-08
6.5127612e-07
1.8822013e-08
6.4660844e-07
1.7285118e-08
6.3431671e-07
1.5906337e-08
6.2517555e-07
1.4637117e-08
6.1908824e-07
1.3402543e-08
6.1456888e-07
1.2178521e-08
6.1093578e-07
1.0960374e-08
6.0795135e-07
9.7465961e-09
6.054919e-07
8.5362423e-09
6.0346766e-07
7.3287909e-09
6.0181163e-07
6.1239913e-09
6.0047436e-07
4.9217103e-09
5.9941944e-07
3.7218459e-09
5.9862026e-07
2.5242884e-09
5.9805787e-07
1.3289119e-09
5.9771961e-07
1.3558461e-10
5.9759826e-07
-1.0558134e-09
5.9769154e-07
-2.2453668e-09
5.9800208e-07
-3.4331073e-09
5.9853752e-07
-4.6190036e-09
5.9931103e-07
-5.8029696e-09
6.0034223e-07
-6.9849039e-09
6.0165872e-07
-8.1647757e-09
6.0329836e-07
-9.3427511e-09
6.0531265e-07
-1.0519348e-08
6.0777133e-07
-1.1696648e-08
6.1077006e-07
-1.2886205e-08
6.1446999e-07
-1.4128669e-08
6.1927753e-07
-1.546504e-08
6.2614242e-07
-1.6645545e-08
6.3556501e-07
-1.657181e-08
6.4148592e-07
-1.3562108e-08
6.2059853e-07
-7.5308029e-09
5.3421704e-07
-1.8179911e-09
3.6015645e-07
1.2649227e-07
1.5374458e-09
1.0125358e-07
6.8359977e-09
3.0849768e-07
1.3909248e-08
4.9509641e-07
1.8554331e-08
6.1122375e-07
1.9504569e-08
6.5032591e-07
1.8416354e-08
6.4769665e-07
1.6928584e-08
6.3580448e-07
1.557291e-08
6.2653122e-07
1.4329399e-08
6.2033175e-07
1.3124454e-08
6.1577382e-07
1.1931026e-08