/*--------------------------------*- C++ -*----------------------------------*\
  =========                 |
  \\      /  F ield         | OpenFOAM: The Open Source CFD Toolbox
   \\    /   O peration     | Website:  https://openfoam.org
    \\  /    A nd           | Version:  10
     \\/     M anipulation  |
\*---------------------------------------------------------------------------*/
FoamFile
{
    format      ascii;
    class       volScalarField;
    location    "0.27";
    object      TporMedia_0;
}
// * * * * * * * * * * * * * * * * * * * * * * * * * * * * * * * * * * * * * //

dimensions      [0 0 0 1 0 0 0];

internalField   nonuniform List<scalar> 
4000
(
0.000314614
0.0001735352
0.00015906542
0.00017539337
0.00018092418
0.00016191902
0.00018663624
0.00015833099
0.00016034472
0.00016613298
0.00017232724
0.00016985201
0.00016009192
0.00015969787
0.00016769401
0.00016110811
0.00016957904
0.00016316735
0.00017761955
0.00018078198
0.00015668738
0.00017444201
0.00016397571
0.00014862854
0.00016605068
0.00015764541
0.00016135865
0.00016673332
0.00015399865
0.00016095932
0.00015037482
0.00017282047
0.00014811835
0.00015491762
0.00016188591
0.00016095854
0.0001649492
0.00015742594
0.00016793807
0.00016776724
0.00020238517
1.1493869e-10
4.6204522e-11
5.2150906e-11
5.4313804e-11
5.6433569e-11
6.0986743e-11
4.2434197e-11
4.8584972e-11
4.7662755e-11
5.3478845e-11
4.8815185e-11
5.6382018e-11
4.6289001e-11
5.0188598e-11
4.9208239e-11
5.2843179e-11
4.7143193e-11
5.4912661e-11
5.597338e-11
5.1522125e-11
5.0919892e-11
3.8612895e-11
4.3327714e-11
4.3569105e-11
4.3350724e-11
4.3244507e-11
5.0546798e-11
5.2408828e-11
4.8128959e-11
4.5692724e-11
5.5283364e-11
4.3395319e-11
4.2133812e-11
5.4275474e-11
4.8096728e-11
4.7467307e-11
4.8387657e-11
5.4016336e-11
5.2283583e-11
0.00024990044
6.3933973e-11
3.0544552e-17
1.3087337e-17
1.4452823e-17
1.4204448e-17
1.5829371e-17
1.1309583e-17
1.3704842e-17
1.3366593e-17
1.3898598e-17
1.4010963e-17
1.4977312e-17
1.4964204e-17
1.1859421e-17
1.3211383e-17
1.2677031e-17
1.3027501e-17
1.5984388e-17
1.5418541e-17
1.4222208e-17
1.6059809e-17
1.0621621e-17
1.131757e-17
1.2749511e-17
1.2752007e-17
1.13424e-17
1.3750547e-17
1.3284185e-17
1.1532342e-17
1.2103827e-17
1.677538e-17
1.4202028e-17
1.1348641e-17
1.3341089e-17
1.179759e-17
1.3357278e-17
1.29386e-17
1.60329e-17
1.3453482e-17
0.00056755323
1.5112414e-10
3.6708647e-17
1.2692713e-23
3.8582238e-24
3.9582902e-24
4.1552451e-24
2.9589146e-24
3.8225445e-24
3.6841481e-24
3.8431658e-24
4.7006085e-24
4.3103867e-24
3.6651568e-24
3.7054534e-24
3.2836149e-24
3.1145398e-24
3.7073537e-24
4.5678812e-24
3.8547074e-24
3.6209197e-24
4.7280295e-24
3.0224825e-24
3.3613405e-24
3.4950983e-24
3.597368e-24
3.6727502e-24
3.9339341e-24
3.5460469e-24
3.6048816e-24
3.0249819e-24
4.2030467e-24
4.121959e-24
2.988251e-24
3.7324679e-24
3.3792404e-24
3.7940294e-24
3.2016803e-24
4.2591491e-24
3.4129255e-24
-0.0013384727
-7.7578877e-10
-1.8760091e-16
-4.931416e-23
-1.3760666e-29
8.9922449e-31
1.1823174e-30
8.8783318e-31
1.059989e-30
9.372482e-31
1.0353587e-30
1.2049162e-30
1.143729e-30
7.9942908e-32
8.4385045e-31
1.2386019e-29
7.3918334e-31
1.0110891e-30
1.2781878e-30
1.0447501e-30
1.0822772e-30
8.5474035e-31
8.108725e-31
9.7862409e-31
1.0311944e-30
1.0198156e-30
9.9111835e-31
9.5414462e-31
9.8261994e-31
9.4117936e-31
7.8774061e-31
2.5386591e-30
1.1934216e-30
7.332793e-31
1.0376652e-30
8.4579403e-31
9.3768476e-31
-1.5966746e-30
1.0894601e-30
9.8518014e-31
-0.00015015092
9.0617944e-11
1.9417297e-17
4.1547957e-24
1.0955706e-30
5.1105717e-37
3.9962114e-37
2.2930439e-37
-1.0213602e-37
2.1392095e-37
3.0856878e-37
3.1841588e-37
2.3904783e-38
-3.3991253e-36
2.0726971e-37
1.3541689e-35
1.2816235e-37
-1.2145381e-37
2.676933e-37
2.5456752e-37
2.9226671e-37
-3.7065202e-37
3.2624712e-37
2.9052302e-37
1.7779226e-37
2.5256585e-37
3.0020187e-37
5.2740002e-38
2.8044686e-37
3.2912384e-37
2.3287668e-37
5.4397883e-36
4.1968786e-37
1.7686978e-37
2.7965774e-37
2.9147897e-37
2.329561e-37
5.3320516e-36
-8.3605278e-39
2.7162611e-37
-7.3312391e-05
1.0017501e-11
2.9995234e-18
5.877629e-25
1.5579098e-31
3.7707864e-38
1.7546595e-42
2.4052928e-43
2.120366e-42
-3.3718295e-44
3.569488e-45
1.8207472e-43
-4.780192e-41
-5.3376122e-42
1.6612036e-42
6.2907989e-41
-3.0670236e-43
3.8256104e-42
3.4257488e-44
3.5529458e-44
-2.4101181e-43
-1.5309474e-42
2.5272756e-43
-1.2698479e-44
-7.5881996e-43
1.5724313e-43
1.3521163e-43
-8.1151529e-43
7.0625242e-45
6.4582675e-43
1.2312802e-43
-8.5130218e-42
1.2466507e-42
3.5653195e-44
1.4273883e-43
1.4530483e-43
4.9124879e-44
2.6979609e-41
-8.3623512e-43
7.2638117e-44
-4.2356628e-05
2.6798038e-12
2.0753028e-18
3.6265085e-25
8.4144385e-32
2.4226938e-38
6.4700677e-45
2.1099941e-48
8.0765843e-48
-1.0552696e-48
1.3660185e-49
3.9615433e-49
2.2318943e-46
6.4903547e-47
3.2826836e-48
4.1001149e-46
5.3939733e-49
1.62749e-47
1.5293495e-49
-3.8635877e-49
-7.9064979e-49
-3.5054043e-48
4.0695355e-49
-1.1610156e-49
-2.402568e-48
3.6033482e-49
-5.5048101e-48
4.1565437e-48
-9.4736002e-50
9.648835e-49
1.3278823e-49
-8.6374876e-47
7.712519e-48
-1.2419914e-49
2.1855947e-49
1.2750404e-49
5.4770784e-49
8.3672857e-47
-1.7852665e-48
2.1161012e-50
-2.8980323e-05
1.0337695e-12
-3.3020271e-19
-4.3603312e-26
-9.3558037e-33
-2.5458867e-39
-7.0643904e-46
-2.7716472e-52
-4.5804818e-53
-4.7233931e-54
2.3585956e-54
7.9770007e-55
-1.1581166e-51
1.6912802e-52
1.4168848e-53
7.9816002e-52
5.2074764e-54
3.9450824e-53
3.2860679e-55
-9.390089e-55
-2.8352388e-53
-9.4404106e-53
1.2724324e-54
-2.9147145e-55
-4.1790278e-53
7.5978598e-55
-7.9971412e-53
-1.5117432e-52
-3.5509894e-55
-5.631322e-54
-3.4711742e-55
-2.1240369e-52
1.624439e-53
-1.9614306e-55
6.303177e-55
2.0392949e-55
4.7715172e-54
2.2993892e-52
-8.7435281e-54
5.9122729e-57
-2.1312412e-05
4.801773e-13
-4.6329393e-20
-5.7920533e-27
-9.2640777e-34
-2.2967291e-40
-5.7891667e-47
-1.4941941e-53
2.126528e-57
-1.3936322e-59
1.0287249e-59
-4.7100773e-60
-3.9938755e-57
5.3145903e-58
3.3611385e-59
1.3548446e-57
2.9536343e-59
8.1488821e-59
-1.6581243e-60
-7.3091434e-60
-5.5608191e-59
-7.3878353e-58
-1.994242e-59
-6.4783073e-61
1.0278137e-58
2.8077584e-60
-1.4149848e-58
-3.6336221e-58
-1.2173199e-60
-2.2895067e-59
-4.7280234e-61
-7.5132568e-58
7.3181116e-59
-1.1535406e-60
-1.1491942e-59
3.4415847e-61
8.0857591e-60
8.533776e-58
-1.3521273e-59
1.7725554e-63
-1.5981953e-05
2.4414077e-13
-1.0961217e-20
-1.5153086e-27
-1.8882898e-34
-4.7071117e-41
-1.5591568e-47
-4.3549977e-54
-1.414778e-60
-8.8848672e-65
-4.5445983e-65
-4.377361e-65
3.0741283e-62
3.2178065e-63
1.5173689e-64
1.073634e-62
3.5117851e-65
-3.1996059e-64
-1.6717005e-65
-9.2227814e-66
-8.0091647e-65
4.3469304e-63
-5.8594445e-65
-1.0104359e-64
1.9586704e-64
-1.7686393e-65
4.8788206e-63
-6.0871768e-64
-8.3576402e-66
-5.6283084e-65
5.1014626e-66
-4.1581094e-63
9.2243271e-63
-1.8140336e-66
-2.8247266e-65
4.1677008e-67
1.0260472e-65
1.5191447e-63
3.8851109e-65
5.812614e-70
-1.2323428e-05
1.3562663e-13
-3.4290849e-21
-5.3023752e-28
-4.9471371e-35
-9.8806372e-42
-2.7673507e-48
-8.4329839e-55
-2.350562e-61
-5.4863868e-68
1.6328953e-70
-1.0387432e-70
1.922033e-67
2.3158254e-68
8.557929e-70
4.1088415e-68
3.9255186e-70
-4.9278349e-70
-4.4116693e-71
-4.4924118e-71
-2.1603548e-70
2.4379312e-68
-2.3910807e-69
-1.8351311e-70
-8.1839555e-69
-4.1878716e-71
8.292735e-69
-3.6439717e-69
-1.7265825e-71
-9.4662655e-71
2.4361748e-71
-1.5018764e-68
5.1081756e-68
-6.8191187e-72
-4.7068098e-71
6.2244645e-73
1.7334334e-71
-1.8003749e-68
-2.2687256e-70
8.8520728e-77
-9.7519406e-06
7.89278e-14
-1.2772299e-21
-5.1003354e-28
-3.8950735e-35
-6.0254827e-42
-1.6968581e-48
-4.4706363e-55
-1.4356968e-61
-3.9142896e-68
-7.5306098e-75
-1.2013078e-76
-8.8756337e-72
1.0634699e-73
-5.7761514e-74
2.5580185e-73
8.1051791e-76
-8.9968977e-75
-1.1946793e-76
-1.1070192e-76
-2.2755584e-76
7.1789822e-74
-8.8032708e-75
-2.5592655e-76
-3.0405391e-74
-1.2998207e-75
2.2820133e-74
-1.0110185e-74
-4.4914639e-77
2.5595898e-76
1.4229154e-76
-3.8410213e-74
8.3925524e-74
-2.2155799e-76
-4.4502829e-76
1.0304772e-78
2.9112492e-76
1.1294894e-73
-7.2833094e-76
-1.8119403e-82
-7.6887566e-06
4.7087935e-14
-5.081711e-22
1.1030797e-28
6.8932822e-36
8.4754715e-43
2.0867015e-49
5.5396095e-56
1.3626553e-62
3.259309e-69
1.0252688e-75
9.4718952e-82
4.2950896e-77
2.8936171e-79
-1.6146807e-79
1.0378558e-77
-1.3843069e-81
-1.2212819e-80
-7.1362441e-82
6.7123225e-82
-5.8208962e-81
2.7660443e-79
-2.3272691e-80
-5.9957019e-82
-6.6137994e-80
-9.5141744e-81
-5.5842384e-80
-1.9010052e-80
-9.6807826e-83
1.2151559e-81
-1.53818e-81
-5.6756626e-79
2.2999899e-79
-3.6116129e-81
-9.4973411e-82
2.4849124e-84
6.3712535e-82
2.5319368e-79
-6.7944875e-81
-2.0107647e-87
-6.0851473e-06
2.878126e-14
-2.1828914e-22
1.3428633e-29
7.1169955e-37
6.7837987e-44
1.7007366e-50
4.3337078e-57
1.3491934e-63
3.3710632e-70
8.7944712e-77
2.222792e-83
5.1865792e-82
3.4810513e-83
-7.0821945e-85
4.5528019e-83
-5.5179438e-87
-1.8763417e-85
-3.9191729e-87
3.0287693e-87
-2.837594e-86
8.2230437e-85
-7.7230656e-86
-2.5003235e-87
-1.9483097e-85
-2.2318302e-85
-1.4971061e-85
4.3724642e-86
-1.2916285e-88
6.3896047e-87
-1.9594803e-87
-1.8007644e-84
9.7806291e-85
-8.7650867e-87
-8.1498545e-87
-1.508111e-89
2.5324804e-87
6.5168544e-85
-1.8264466e-86
-4.7940366e-93
-4.9263324e-06
1.8355316e-14
-1.0089667e-22
3.0674306e-30
1.450429e-37
1.0545968e-44
2.08103e-51
6.0962972e-58
1.6481355e-64
4.3924855e-71
1.0036714e-77
2.3415674e-84
1.1343027e-87
1.078598e-88
-1.4236299e-90
6.467181e-89
-1.2405272e-92
-5.6237868e-91
-1.0374818e-92
8.0580465e-93
-5.7705217e-92
-4.7076226e-90
-1.4920561e-91
-4.6748038e-93
-6.0756288e-91
-4.4581083e-91
5.5637226e-91
7.166915e-92
2.1133654e-94
6.5894002e-93
-2.0595791e-93
1.0385935e-89
3.3785326e-90
-1.0910647e-92
-1.2428815e-92
8.3514717e-95
4.3501775e-93
1.2614337e-90
-3.7066877e-91
-1.1338435e-97
-3.982627e-06
1.1838081e-14
-4.8699424e-23
8.4632658e-31
3.8001076e-38
2.0951937e-45
3.3904545e-52
1.0579014e-58
3.0456633e-65
8.899552e-72
2.6568403e-78
6.9891963e-85
1.5105891e-91
2.9364958e-94
5.5115258e-94
1.9004783e-94
-6.6532582e-98
-2.1138422e-96
-4.3419316e-97
6.2504491e-98
-6.3156204e-97
-2.3382906e-95
-6.6877967e-97
-1.9821441e-98
-1.1523666e-96
-5.9422156e-96
6.9024325e-96
1.4201094e-97
1.1636929e-99
2.3355003e-98
-4.0123813e-99
4.16251e-95
1.5112289e-95
-2.3675522e-98
-2.9674259e-98
3.4240134e-100
1.8772416e-98
3.5221372e-96
2.4634819e-96
7.9529152e-103
-3.2629736e-06
7.7857519e-15
-2.4432256e-23
2.7035955e-31
1.2377446e-38
5.4427436e-46
7.032176e-53
1.8311744e-59
5.1502163e-66
1.1848751e-72
2.9077409e-79
9.7153944e-86
3.0186484e-92
2.0318083e-98
5.9499084e-98
-2.1081055e-99
-1.4859939e-103
-4.2282576e-102
9.8833639e-103
-5.115416e-103
-1.8750287e-102
-7.2325869e-101
-1.8866543e-102
-1.8179743e-103
-5.9654191e-102
-1.061054e-101
5.4513769e-101
6.5056934e-102
1.805375e-105
9.6907419e-104
-1.3789709e-104
7.3621399e-101
3.9164844e-101
-3.2815884e-104
-6.2301999e-104
1.3001966e-104
2.7846349e-104
1.1127395e-101
-6.7749634e-102
-1.8096329e-108
-2.6758985e-06
5.1801729e-15
-1.2632396e-23
9.44095e-32
5.0445573e-39
1.7541593e-46
1.7510418e-53
4.7281562e-60
1.4227772e-66
3.3297176e-73
8.080384e-80
2.5616412e-86
-1.2087035e-92
-1.3407545e-97
-1.3214066e-103
-6.1035759e-105
-6.0740379e-109
-9.6675369e-108
1.4511911e-108
-2.0086975e-108
1.3046735e-107
-5.6483355e-106
1.7129846e-106
-2.114363e-108
-8.7445602e-107
-3.7848144e-107
-3.3144867e-106
3.8330399e-106
6.8804618e-111
7.3494843e-109
4.4881041e-109
1.2918679e-105
8.6591736e-107
-2.1180688e-109
-1.0311531e-109
5.5748077e-109
6.3934467e-110
9.3418111e-107
3.0288477e-107
8.1214139e-114
-2.2164806e-06
3.5072407e-15
-6.7268281e-24
3.5505883e-32
3.1508072e-39
9.0779097e-47
6.709024e-54
1.8198784e-60
5.2729413e-67
1.505176e-73
4.9043969e-80
1.2715851e-86
3.3369739e-93
6.2282139e-100
-8.4386111e-106
-3.2974768e-110
-1.6290414e-114
4.5257861e-112
3.203975e-114
-9.298859e-113
4.5543628e-113
-1.125715e-111
4.2746948e-112
-6.7750066e-114
-5.1028811e-112
4.0258741e-112
-1.7719122e-110
-2.4720632e-111
8.4019754e-117
1.9562873e-114
1.7237404e-114
8.8453231e-111
1.1088258e-112
-1.4857973e-114
-3.8469728e-115
3.8284484e-114
2.9103576e-114
-1.019451e-111
-2.2497122e-112
-5.5765324e-119
-1.8478396e-06
2.4049579e-15
-3.6777177e-24
1.4064586e-32
-9.6360975e-39
-2.2690675e-46
-1.3469901e-53
-3.4270438e-60
-1.080379e-66
-2.6848547e-73
-7.3360396e-80
-1.9640327e-86
-6.8937558e-93
-1.8151934e-99
-4.7540548e-108
-2.7589794e-111
1.221084e-115
1.6648319e-117
-3.3699586e-119
-6.5348628e-118
-1.0879587e-118
-4.3007721e-117
-1.0364268e-117
-3.0778827e-119
-4.03172e-117
1.4130969e-117
6.7820782e-116
-7.1316607e-117
3.3090995e-124
2.3767656e-119
1.4137145e-119
4.7125124e-116
-1.7959901e-118
8.297836e-120
-3.5733144e-120
1.4353383e-119
4.6654876e-120
6.9005473e-117
3.1512434e-117
8.9818416e-124
-1.5542766e-06
1.6759789e-15
-2.0610544e-24
5.8795578e-33
-2.9570731e-40
-5.977956e-48
-2.7262223e-55
-5.3410387e-62
-1.7903457e-68
-5.5813449e-75
-1.3573971e-81
-4.1945265e-88
-1.4965727e-94
-4.9951506e-101
-1.4473886e-107
-6.600235e-114
2.047633e-119
-5.7609863e-123
-1.1773887e-124
-1.7802392e-122
-3.3218596e-123
-1.4279264e-122
2.857648e-123
-2.9729481e-124
2.1090574e-122
2.981184e-123
1.4703768e-121
1.7959954e-122
8.6559175e-128
3.2675601e-125
8.5577652e-125
2.6473488e-121
1.6638751e-123
3.9140965e-125
3.0312954e-124
2.821624e-125
-1.5020178e-125
1.5786153e-121
-1.6400324e-122
-4.8689536e-129
-1.3119317e-06
1.1804785e-15
-1.1799706e-24
2.5558042e-33
-5.2993004e-41
-9.5717858e-49
-3.2706161e-56
-5.3155848e-63
-2.4123299e-69
-8.4040111e-76
-2.7140704e-82
-1.0504756e-88
-2.7425327e-95
-9.8570082e-102
-2.9466395e-108
-8.1851156e-115
-8.4698692e-121
9.9069645e-127
3.6124933e-130
2.4112428e-128
-2.4092126e-128
2.2773291e-127
-1.0848547e-128
-2.6420662e-129
5.5144421e-128
-1.103209e-128
1.1877192e-126
9.3663507e-128
5.6064707e-133
7.1410429e-130
-2.5268995e-130
1.4133204e-126
4.1760461e-129
2.0362633e-130
3.2300898e-129
1.5920732e-130
-3.6755984e-131
-1.3821504e-126
1.2818554e-127
3.1643884e-134
-1.1129896e-06
8.3971953e-16
-6.8766006e-25
1.1508668e-33
-1.3278571e-41
-2.1852228e-49
-5.9097315e-57
-6.2082966e-64
-2.0652033e-70
-6.0834381e-77
-1.8215269e-83
-5.022528e-90
-1.4486667e-96
-4.6437352e-103
1.1118271e-108
-6.6813913e-114
5.5804339e-119
-1.091175e-124
-3.1382221e-129
-9.3850408e-134
6.2219736e-134
-1.5233688e-132
-3.0887698e-133
7.7986039e-135
-7.0730465e-133
2.7639316e-134
-5.1997827e-132
2.1072869e-133
5.9529304e-138
-5.2730551e-135
3.9798598e-135
-2.3386743e-132
1.4534608e-134
-1.1886536e-135
-1.1732577e-134
7.9311293e-136
2.2545385e-137
5.9716171e-132
6.1919638e-133
1.8894027e-139
-9.4840502e-07
6.0379633e-16
-4.083463e-25
5.3587976e-34
-3.866827e-42
-5.9417795e-50
-1.3004492e-57
-1.1114143e-64
-4.0694636e-71
-1.4371074e-77
-4.8640921e-84
-1.5069373e-90
-4.1959411e-97
-1.4687569e-103
-4.3621573e-110
-1.2688257e-116
-2.2639264e-123
4.0574613e-130
5.2453177e-135
1.4301728e-139
-4.9945502e-139
-2.4060759e-137
4.3938367e-138
-3.9080182e-140
9.1639608e-138
-6.8012645e-139
-5.254771e-137
-5.9139036e-139
-7.0913783e-143
2.2699685e-140
-3.449498e-140
-9.3209006e-138
8.8821936e-140
3.5749046e-141
-4.1497245e-140
9.6590749e-142
1.1888148e-140
-7.2360792e-138
-2.4212353e-138
-6.8070825e-145
-8.1242135e-07
4.385278e-16
-2.4680777e-25
2.5716013e-34
-1.245864e-42
-1.879588e-50
-3.3089666e-58
-2.102267e-65
-7.0310596e-72
-2.388078e-78
-7.7861886e-85
-2.3069223e-91
-7.0375988e-98
-3.6183029e-104
-3.6627545e-110
6.921111e-116
-8.3122292e-121
1.252433e-126
-2.2640036e-132
4.0398991e-137
-3.1004388e-142
7.7659197e-143
-1.8620977e-143
3.9118338e-145
5.5297186e-143
1.142622e-144
2.8101334e-142
1.3929415e-143
3.6781434e-148
-6.3197918e-146
5.5456828e-146
3.6820296e-143
-7.4477516e-145
-1.530492e-145
2.6698451e-145
-6.4731393e-147
-1.0074196e-145
-6.3157398e-143
-1.7874234e-143
-4.8878982e-150
-6.9769933e-07
3.2076927e-16
-1.51182e-25
1.2667739e-34
-4.327153e-43
-6.8615134e-51
-9.985187e-59
-4.7810514e-66
-1.3285342e-72
-5.2013924e-79
-1.8515725e-85
-6.215456e-92
-2.3116723e-98
-6.547693e-105
-2.3719777e-111
-7.0186644e-118
-3.2550289e-124
2.22041e-129
-1.0024146e-133
-9.3834527e-139
-2.0517534e-143
-1.3394775e-148
5.4391783e-149
2.8927077e-150
-2.1621843e-147
-1.0200832e-148
3.2198247e-146
-8.625938e-148
3.7291704e-155
-9.6430578e-151
-7.4999986e-151
-2.8815542e-149
-4.793408e-150
1.8253488e-151
7.6407151e-151
3.3228674e-152
-2.0974914e-151
6.7133957e-149
-1.0701699e-148
-3.3212924e-155
-6.0143112e-07
2.3655533e-16
-9.3885208e-26
6.3846923e-35
-1.5885701e-43
-2.9477015e-51
-3.5788342e-59
-1.3544076e-66
-2.8229741e-73
-1.3504989e-79
-4.6932904e-86
-1.3746126e-92
-3.8612506e-99
-1.1255078e-105
-3.1700863e-112
-9.9511318e-119
-2.7917484e-125
-1.445558e-131
2.2439281e-137
-1.3337878e-142
2.4706798e-148
-5.3140678e-154
-8.9669644e-155
-1.3421782e-155
-1.0049272e-151
9.0361082e-155
-1.9824021e-151
2.3321347e-153
2.2736155e-157
4.3094531e-156
6.0782379e-156
6.4031241e-154
5.8185678e-155
-1.6990546e-156
4.1304093e-156
-1.0824793e-157
1.3460659e-156
2.0318106e-154
3.8574034e-154
8.891035e-161
-5.2011198e-07
1.7567282e-16
-5.905053e-26
3.2874623e-35
-6.1115819e-44
-1.609999e-51
-1.67843e-59
-4.7730187e-67
-7.4152464e-74
-3.6018023e-80
-1.0402375e-86
-3.0138671e-93
-9.4815826e-100
-3.2152783e-106
-9.7830351e-113
-2.4174441e-119
-3.7539194e-125
9.1080139e-131
-3.6456118e-135
5.3523538e-141
-5.9620369e-147
9.8749305e-153
-8.2390205e-159
3.6251426e-161
1.0472573e-157
-8.741281e-160
-7.807858e-157
-1.4933978e-158
-9.0442024e-163
1.0414046e-160
-4.9687636e-161
1.5570919e-159
-5.4707155e-160
3.574539e-162
1.5825698e-161
2.498545e-163
-1.8065401e-161
2.3563185e-159
3.3608663e-159
1.3227477e-165
-4.5119719e-07
1.313287e-16
-3.7563857e-26
1.7267948e-35
-2.448555e-44
-2.0880107e-51
-1.891702e-59
-4.3197394e-67
-6.1058221e-74
-3.7748697e-80
-1.2938923e-86
-4.3492686e-93
-1.4893983e-99
-4.8632776e-106
-1.4156691e-112
-9.7240704e-119
5.4026181e-125
3.1214174e-130
-1.9883443e-136
1.8813945e-141
-1.0800325e-147
3.0062169e-153
-4.6947906e-159
1.1624375e-164
1.0711331e-162
-2.1757864e-163
4.0694027e-162
2.6539894e-164
2.3868315e-168
2.6067174e-166
-6.8242779e-166
1.3573299e-164
2.6929023e-165
-7.2435252e-168
-8.02643e-167
1.005772e-168
3.0293439e-167
-9.8747683e-165
-1.5636818e-164
-3.3639213e-171
-3.9232324e-07
9.872775e-17
-2.4140412e-26
9.226061e-36
-1.0150498e-44
3.9586458e-52
3.1677797e-60
5.7154722e-68
5.5057351e-75
2.4656118e-81
9.2788651e-88
2.4695649e-94
8.2741705e-101
3.1418788e-107
9.3891859e-114
2.5077241e-120
7.5085963e-127
2.1138872e-133
1.2082972e-140
7.1942529e-146
6.6036149e-151
-7.969657e-157
3.6019437e-162
-1.6196181e-166
-2.1406045e-168
3.8298223e-169
-1.1845273e-167
2.1218959e-169
1.2517455e-173
-2.9104499e-172
-2.463196e-171
-8.6396924e-170
-2.0021155e-170
8.5753848e-173
-1.6054444e-171
-1.0813291e-173
-4.3867558e-171
-7.8267443e-170
-1.587427e-169
-5.5277778e-176
-3.4202678e-07
7.4657736e-17
-1.5666081e-26
5.0096338e-36
-4.3411039e-45
5.5275944e-53
3.9997787e-61
5.8716881e-69
4.139986e-76
2.7035406e-82
1.1643702e-88
3.3620357e-95
9.9738081e-102
2.9900248e-108
9.1701035e-115
3.570362e-121
1.2398567e-127
2.8735905e-134
9.2477263e-140
-1.3689127e-145
1.21181e-150
-2.4340316e-156
2.3178194e-161
-3.3890615e-167
1.3280542e-172
-9.0353469e-175
1.6137512e-172
-4.1313353e-175
4.1958964e-179
5.2502082e-178
1.747043e-176
7.873278e-175
6.9591572e-176
7.430709e-178
3.0487685e-177
5.6445871e-180
1.4945244e-176
3.3176115e-175
5.2040076e-174
1.4760759e-180
-2.9871468e-07
5.6698221e-17
-1.0250168e-26
2.7586606e-36
-1.906209e-45
1.279283e-53
8.5463646e-62
1.026715e-69
5.3763721e-77
2.7419799e-83
1.2700427e-89
4.9431382e-96
1.6259576e-102
5.9317521e-109
1.8946697e-115
5.2010102e-122
1.5110713e-128
4.8826204e-135
2.0327885e-141
-1.2565433e-145
1.7497846e-150
-2.3758306e-156
1.715245e-161
-2.0970461e-167
1.91141e-172
-2.9341203e-178
-9.0471303e-177
5.5170456e-181
-1.9268553e-184
-8.0513006e-184
-4.2975917e-182
6.3644882e-180
-5.0258299e-182
-7.1189496e-184
-1.0401872e-182
5.8494783e-185
-2.0742785e-182
-5.1780924e-181
-1.6204985e-179
-3.9070738e-186
-2.6156255e-07
4.3289025e-17
-6.7658813e-27
1.5409164e-36
-8.5811344e-46
3.5577869e-54
2.2442746e-62
2.2328715e-70
9.0199521e-78
3.2642758e-84
1.8089471e-90
5.5231029e-97
1.7290472e-103
4.3736035e-110
1.2536055e-116
3.4442162e-123
9.7327607e-130
-8.4501264e-135
1.8547893e-140
-4.3802613e-146
8.5402378e-151
-1.8777002e-156
-4.9374669e-161
1.0278412e-166
-3.2585821e-172
-3.7197243e-177
2.0439509e-182
-1.5636824e-186
1.7389267e-190
-1.067841e-188
9.2309404e-188
-1.7610884e-184
2.1364793e-187
1.9515631e-189
8.1163247e-188
-8.4138509e-191
1.0448225e-187
-5.9052244e-186
-1.8646645e-184
-5.5233596e-191
-2.2951382e-07
3.3199721e-17
-4.5005459e-27
8.7157809e-37
-3.952777e-46
1.0986601e-54
6.7113725e-63
5.6132068e-71
1.7632539e-78
5.0946097e-85
2.6544897e-91
9.0682341e-98
2.7191591e-104
7.3844449e-111
2.2691699e-117
6.2171547e-124
1.6759218e-130
5.2399639e-137
4.2018719e-144
2.2230629e-149
-3.1542263e-155
-3.42027e-160
3.8868961e-165
1.0474349e-170
-7.7965727e-177
1.0619886e-182
2.5689549e-186
5.5891138e-192
-7.6216553e-196
1.2571541e-194
-1.8933613e-193
3.2917441e-190
-2.3891494e-192
1.2482374e-194
-1.5753745e-193
1.8977631e-196
-4.8789386e-193
-1.5668199e-190
4.8073879e-190
1.7558287e-196
-2.0175258e-07
2.5570726e-17
-3.0154528e-27
4.9887535e-37
-1.8570561e-46
3.6522176e-55
2.2455185e-63
1.6011891e-71
3.9991845e-79
7.0495781e-86
3.6735038e-92
1.1537688e-98
4.3693939e-105
1.2537531e-111
3.3991601e-118
1.0446148e-124
2.9670496e-131
8.038173e-138
2.7814792e-144
5.0742151e-151
2.0259162e-156
2.1739282e-161
-7.2277083e-167
3.0773154e-172
-1.0578129e-177
-5.8712689e-183
1.1422176e-188
-4.6442088e-194
5.9054434e-200
-1.1222554e-200
-3.5935871e-198
9.594883e-196
3.7313775e-197
-6.9851697e-200
6.2041144e-199
-1.5908142e-201
1.2933012e-198
2.3646315e-196
-8.4440987e-196
-3.0778698e-202
-1.7764909e-07
1.9767399e-17
-2.0336614e-27
2.8861903e-37
-8.8866226e-47
1.2833314e-55
8.3453869e-64
5.1408516e-72
1.0119592e-79
1.6201116e-86
1.0366342e-92
3.9203548e-99
1.3352901e-105
3.9528803e-112
1.33007e-118
4.0541489e-125
1.10962e-131
3.8492052e-138
1.1696982e-144
2.8784731e-151
1.6235085e-157
-8.6085118e-164
2.3365405e-169
-4.6948709e-175
6.3419253e-181
-1.4894344e-186
2.2284109e-192
-5.2278241e-198
6.4662177e-204
2.9687036e-206
1.5033913e-203
-1.6889862e-201
-6.2736873e-203
1.395694e-205
-1.711791e-204
2.7375719e-207
-5.3377388e-204
-3.9863285e-202
1.0793565e-201
2.7071544e-208
-1.5672204e-07
1.5342604e-17
-1.3807217e-27
1.6877212e-37
-4.3275723e-47
4.7059499e-56
3.4889011e-64
1.8789008e-72
2.9683974e-80
2.9248571e-87
3.5934492e-93
1.6015975e-99
5.5319591e-106
1.7451988e-112
5.4332661e-119
1.6997489e-125
4.7007036e-132
1.600253e-138
5.4537262e-145
1.5132205e-151
-6.5106214e-157
1.6051198e-162
-3.8623017e-168
2.1010568e-173
1.9089133e-178
-6.5704394e-184
4.2165847e-189
-5.5124627e-195
6.3759869e-200
2.4307546e-204
-4.6637905e-209
1.6651007e-206
1.1564615e-208
2.0993122e-210
1.2160618e-209
-3.6829733e-213
6.89339e-210
5.261257e-208
-1.8427002e-207
-8.9635818e-214
-1.3849555e-07
1.1952159e-17
-9.4317283e-28
9.965729e-38
-2.1421324e-47
1.7928651e-56
1.742047e-64
8.2758255e-73
1.0527393e-80
8.0193415e-88
5.5698836e-94
2.1783116e-100
5.958896e-107
1.6813873e-113
5.69934e-120
1.7392135e-126
5.5324558e-133
1.549841e-139
6.2957257e-146
-2.8138112e-151
3.6455122e-157
-1.9903253e-162
2.411146e-168
-7.8523583e-174
1.9616147e-179
-2.2693245e-184
3.3985926e-190
-2.7252245e-195
1.4160409e-200
7.1864778e-204
-1.3014514e-209
-7.8455175e-212
3.4128408e-214
-4.8764809e-216
-1.9627148e-214
1.303829e-218
-1.4687163e-215
-1.7261952e-213
4.0907354e-214
-1.8673553e-220
-1.225683e-07
9.341393e-18
-6.479434e-28
5.9382836e-38
-1.0760941e-47
7.0526199e-57
1.2805199e-64
5.4331163e-73
5.6743726e-81
3.26079e-88
1.9387397e-94
8.2826632e-101
2.5081049e-107
7.1870742e-114
2.1467639e-120
6.4909787e-127
1.6088997e-133
4.4674966e-140
-2.5232993e-147
9.7758675e-152
-1.371617e-157
5.1831394e-163
-2.7999969e-168
3.9206859e-174
4.1628257e-179
-4.7600139e-185
5.4681897e-191
-2.5361307e-195
2.3736252e-201
-1.3988517e-206
7.9305761e-212
-5.2147981e-217
2.5675528e-219
-2.403996e-221
5.2989865e-220
-1.7097468e-224
-6.793513e-221
2.8172561e-218
-6.7950445e-220
-2.9944643e-226
-1.0862453e-07
7.3238301e-18
-4.4750163e-28
3.5687264e-38
-5.4804887e-48
2.8532219e-57
-2.3289288e-64
-8.9929593e-73
-7.8384552e-81
-3.5383226e-88
-1.3730029e-94
-7.3013671e-101
-2.1346002e-107
-6.4922823e-114
-2.2416557e-120
-7.0775599e-127
-1.9193112e-133
-6.0258751e-140
-1.8840704e-146
-4.6421351e-153
-4.6910499e-159
3.750352e-165
-8.6629833e-171
5.5707527e-176
-5.4620431e-182
-4.099706e-187
4.0571683e-193
-1.1283311e-198
1.1461544e-204
-1.0320477e-210
4.2860978e-216
1.1390003e-221
-6.9390856e-225
5.4926884e-226
-5.8465894e-226
-3.0462105e-229
3.581065e-226
-3.8146154e-224
9.7736639e-226
3.3715388e-232
-9.6405471e-08
5.7604009e-18
-3.1071158e-28
2.1625575e-38
-2.8284829e-48
1.1835697e-57
-1.1536173e-65
-4.0957747e-74
-2.9950549e-82
-9.9941673e-90
-5.1248908e-96
-2.6665541e-102
-7.0757346e-109
-2.2077715e-115
-6.4328713e-122
-1.6837219e-128
-4.6452774e-135
-1.4523805e-141
-4.7221329e-148
2.7144597e-156
-1.8182834e-159
1.283692e-165
-3.2333759e-171
1.107806e-176
-4.4642094e-180
6.4232724e-186
-3.8440767e-192
1.1790805e-197
-1.0085076e-202
-3.3950943e-208
7.7961294e-214
1.6795945e-217
-8.0477985e-223
1.3734524e-228
1.2171413e-231
1.8333542e-234
-8.7942327e-232
6.9762072e-230
-1.3097319e-231
-2.9753985e-238
-8.5675496e-08
4.543407e-18
-2.1677395e-28
1.3206338e-38
-1.4776524e-48
5.0226186e-58
-2.2630907e-66
-7.5247505e-75
-4.6529963e-83
-1.2381045e-90
-3.3876161e-97
-2.2044131e-103
-7.1329344e-110
-1.6223277e-116
-4.1354057e-123
-1.086671e-129
-3.0332106e-136
-8.9380672e-143
-3.0159278e-149
-1.0716471e-155
-1.0090191e-162
-9.580561e-167
1.4964907e-172
-1.6367121e-178
2.675771e-184
-5.3555492e-190
1.5129652e-195
-1.7829318e-201
9.7404327e-207
9.2617876e-212
-3.9659861e-217
2.6881055e-223
4.5345687e-229
-3.0920187e-233
-3.6276166e-237
-9.4347918e-239
9.1514956e-238
-5.4387604e-235
4.5734988e-237
1.0068765e-243
-7.6232481e-08
3.593357e-18
-1.5193552e-28
8.1230384e-39
-7.8088285e-49
2.1762796e-58
-5.8114423e-67
-1.8384653e-75
-9.7551491e-84
-2.032735e-91
-3.7765795e-98
-5.1461218e-104
-1.7858957e-110
-5.2175424e-117
-1.3979189e-123
-4.0076538e-130
-1.0294931e-136
-3.1638224e-143
-9.9670913e-150
-2.5582194e-156
-5.7649183e-163
-6.8835199e-169
8.0901106e-175
-2.6896369e-180
-3.1012377e-185
5.1157056e-191
-1.0239207e-196
9.1287477e-202
-2.5201124e-207
1.8411374e-212
4.9806188e-217
-2.4517456e-222
2.2516119e-227
-5.2081711e-233
-1.2774412e-237
-6.2398108e-243
-1.5848557e-243
2.8219135e-240
2.5341448e-242
6.4597444e-249
-6.7903346e-08
2.8489749e-18
-1.0694787e-28
5.0307205e-39
-4.1712208e-49
9.6081568e-59
-1.695981e-67
-5.2081848e-76
-2.3913078e-84
-4.0266187e-92
-5.2747851e-99
-4.1921115e-105
-1.5391492e-111
-4.2620596e-118
-1.070737e-124
-2.7596385e-131
-7.4948541e-138
-2.0386576e-144
-5.9998323e-151
-1.5641846e-157
-5.1698162e-164
-2.2098077e-169
2.0227441e-175
-3.3452268e-181
1.4188604e-186
-1.0792407e-191
2.0207027e-196
-1.0044061e-201
1.9555722e-206
-8.0919186e-212
1.4226538e-217
-7.685373e-223
-3.4141976e-228
3.6750994e-234
-4.8724403e-240
5.906511e-245
6.1470213e-249
-3.6733458e-246
3.3102627e-248
9.5237882e-255
-6.0555372e-08
2.264527e-18
-7.5600429e-29
3.1363878e-39
-2.2513472e-49
4.3178951e-59
-5.3702367e-68
-1.6482248e-76
-6.6121814e-85
-9.0505079e-93
-9.0179513e-100
-1.5198368e-105
-6.8818704e-112
-1.879173e-118
-5.5496117e-125
-1.8089471e-131
-4.8441878e-138
-1.3745113e-144
-4.4136188e-151
-1.0291853e-157
-6.7099241e-164
-1.8842172e-169
4.0824432e-175
2.4503088e-180
-4.7588453e-185
-1.7776206e-190
1.2788644e-196
-2.0223631e-202
6.5808512e-208
-2.3775052e-213
4.2093288e-219
1.3037905e-224
-1.5162116e-229
6.631789e-235
1.0176426e-239
5.3952867e-244
-1.2593179e-249
-1.0715887e-251
2.2157773e-254
6.0815259e-261
-5.4052743e-08
1.803865e-18
-5.3644961e-29
1.9673086e-39
-1.2267757e-49
1.9721823e-59
-1.8002671e-68
-5.7031038e-77
-2.0157332e-85
-2.2600326e-93
-1.6458208e-100
-1.9374627e-106
-8.020071e-113
-2.5779505e-119
-6.9300083e-126
-1.8662555e-132
-4.8377767e-139
-1.4159289e-145
-3.5454357e-152
-1.2017658e-158
6.9033564e-166
-9.6543103e-171
1.2143371e-175
1.671043e-180
-1.6836796e-186
7.1704834e-192
3.5341312e-197
-1.6408013e-202
7.2448744e-208
-1.7606135e-213
-3.5897609e-218
9.0726046e-224
3.2202339e-229
-1.6789412e-234
-8.025124e-240
3.7055484e-245
-1.4271745e-250
2.4623479e-256
1.2365629e-260
5.1865008e-267
-4.8293348e-08
1.4399715e-18
-3.8205211e-29
1.2412601e-39
-6.7465564e-50
9.145574e-60
-6.3133392e-69
-2.1671284e-77
-6.8126198e-86
-6.3029087e-94
-3.5514461e-101
-2.1497466e-107
-9.1037291e-114
-3.0101135e-120
-8.279273e-127
-2.2278352e-133
-6.116215e-140
-1.881806e-146
-5.5874348e-153
-1.5320099e-159
-4.2870675e-166
-1.4458396e-172
1.0565992e-179
-5.1815411e-185
1.1504259e-190
5.6876309e-196
3.3868528e-201
4.5221645e-206
-1.6951351e-210
5.6139949e-216
-2.7145138e-221
1.8334408e-226
-7.3505718e-232
3.6299224e-237
-3.4040722e-242
8.1575006e-248
2.8200257e-252
-3.3758562e-258
-2.8065784e-263
-3.0018664e-269
-4.3184901e-08
1.1517661e-18
-2.73034e-29
7.874724e-40
-3.742143e-50
4.3013782e-60
-2.2966112e-69
-9.1687924e-78
-2.5915779e-86
-1.9959357e-94
-8.9538645e-102
-4.3270392e-108
-1.8003586e-114
-5.1278002e-121
-1.4165878e-127
-4.121919e-134
-9.9473806e-141
-2.4498916e-147
-6.4005817e-154
-1.9151084e-160
-4.020341e-167
-3.3563611e-173
5.4193468e-179
-1.5425805e-184
2.0857896e-190
1.3740912e-195
-1.7525643e-201
4.7287663e-207
-1.3659207e-212
2.9072475e-218
-6.0009988e-224
-1.2810589e-229
1.6946814e-235
3.9293814e-241
-9.1972794e-247
7.6382113e-252
-7.534766e-257
9.2257482e-262
-9.1556409e-268
-1.474731e-273
-3.8647189e-08
9.2289504e-19
-1.9574184e-29
5.0216849e-40
-2.09249e-50
2.0497001e-60
-8.6233866e-70
-4.6070049e-78
-1.1824853e-86
-7.7216037e-95
-2.6337986e-102
-1.0445414e-108
-5.6412708e-115
-1.6413196e-121
-4.1144684e-128
-1.2218119e-134
-3.4444074e-141
-1.010906e-147
-2.769927e-154