/*--------------------------------*- C++ -*----------------------------------*\
  =========                 |
  \\      /  F ield         | OpenFOAM: The Open Source CFD Toolbox
   \\    /   O peration     | Website:  https://openfoam.org
    \\  /    A nd           | Version:  10
     \\/     M anipulation  |
\*---------------------------------------------------------------------------*/
FoamFile
{
    format      ascii;
    class       volScalarField;
    location    "0.27";
    object      TporMedia;
}
// * * * * * * * * * * * * * * * * * * * * * * * * * * * * * * * * * * * * * //

dimensions      [0 0 0 1 0 0 0];

internalField   nonuniform List<scalar> 
4000
(
0.0003007799
0.00017151959
0.00017340657
0.00016245782
0.00016771115
0.00016544109
0.00017098081
0.00015430839
0.00016145184
0.00016868076
0.00017406606
0.00015273498
0.00016319014
0.00017279363
0.00016754334
0.00017152754
0.00017238717
0.00015893436
0.00016317509
0.00015987927
0.00017555028
0.00016717685
0.00015826729
0.00017362595
0.00015414791
0.00017754971
0.00016178031
0.00015801364
0.00017772223
0.00015731037
0.00017808012
0.00015708288
0.00016205671
0.00015960715
0.00016540566
0.00015154303
0.00015402432
0.00018149903
0.00016972289
0.00016322241
0.00019393457
1.0407975e-10
4.8172906e-11
4.6120562e-11
4.9778475e-11
5.889665e-11
4.7065874e-11
4.7539637e-11
4.8945832e-11
4.432679e-11
5.0652343e-11
3.8948118e-11
5.5444445e-11
4.7156231e-11
5.1694244e-11
5.3116e-11
4.6186265e-11
4.6683951e-11
5.2116852e-11
5.0810196e-11
5.5900516e-11
5.4644444e-11
4.808041e-11
5.072779e-11
4.5268234e-11
4.3385443e-11
5.1006046e-11
4.4582173e-11
6.0928911e-11
4.9739032e-11
5.1819701e-11
4.7233047e-11
4.536698e-11
4.6197605e-11
4.9678254e-11
5.3087832e-11
4.3957659e-11
5.1765507e-11
4.6877203e-11
4.9592165e-11
0.00023259482
5.9942393e-11
3.0562088e-17
1.1397582e-17
1.3850123e-17
1.7819831e-17
1.3512711e-17
1.3229088e-17
1.2097921e-17
1.4064398e-17
1.421713e-17
1.2157029e-17
1.3958266e-17
1.29388e-17
1.2860315e-17
1.7295107e-17
1.2027575e-17
1.3302304e-17
1.5429785e-17
1.6500989e-17
1.4162442e-17
1.4716597e-17
1.3955121e-17
1.3230683e-17
1.252424e-17
1.1584113e-17
1.2523574e-17
1.3985604e-17
1.9394184e-17
1.1831991e-17
1.4355648e-17
1.207976e-17
1.1792381e-17
1.4232293e-17
1.3887254e-17
1.3185286e-17
1.2283582e-17
1.3989494e-17
1.3357367e-17
1.3541051e-17
0.00032879541
9.124768e-11
2.5778004e-17
1.0516976e-23
3.4716943e-24
4.8052796e-24
4.1071527e-24
3.7896182e-24
4.1787742e-24
3.4294295e-24
3.9079927e-24
3.3549668e-24
4.2304459e-24
3.4974525e-24
3.5516207e-24
4.7590923e-24
3.1441921e-24
3.4908184e-24
4.5110219e-24
3.931596e-24
3.3820123e-24
3.730311e-24
3.93857e-24
3.634176e-24
3.3757482e-24
2.9877919e-24
3.3413379e-24
3.6615671e-24
5.2743257e-24
3.3620124e-24
3.9693695e-24
3.1652311e-24
3.9762682e-24
3.9798486e-24
3.2027251e-24
4.0706115e-24
3.1332808e-24
4.3381297e-24
4.1663383e-24
3.6529946e-24
-0.0022080356
-1.0956839e-09
-2.7032656e-16
-6.9840883e-23
-1.8919491e-29
1.3348518e-30
1.0013963e-30
9.3220955e-31
1.1834321e-30
9.5409072e-31
1.0951274e-30
3.923365e-30
1.0486898e-30
1.0302706e-30
1.0990883e-30
1.3863722e-30
7.1292454e-31
8.6192703e-31
7.6754461e-31
9.7147884e-31
8.8107041e-31
1.1628195e-30
1.2343571e-30
9.8255894e-31
9.3989817e-31
4.4205984e-31
9.2860764e-31
1.3109337e-30
1.6046129e-30
9.9690569e-31
1.2242193e-30
7.5340766e-31
1.0612221e-30
1.0754182e-30
9.4170747e-31
1.2317728e-30
8.7412731e-31
1.1941435e-30
1.1458402e-30
1.0088208e-30
-0.00018634333
1.9653142e-10
4.1870652e-17
1.0650969e-23
2.7498682e-30
6.735763e-37
2.9875741e-37
2.8518283e-37
3.4949237e-37
4.0617055e-37
-9.684898e-37
4.5300716e-36
-2.0226587e-36
2.5532177e-37
2.5696755e-37
5.6536958e-37
-1.9557692e-37
2.7214667e-37
6.47185e-35
3.8032003e-37
2.7309191e-37
3.2555379e-37
3.9146686e-37
3.3240435e-37
2.2498176e-37
-6.5348336e-36
1.1341469e-37
-1.0421759e-35
4.5226637e-37
2.9441222e-37
2.8015257e-37
8.2541472e-38
2.9268133e-37
2.6762736e-37
2.3406325e-37
3.9678653e-37
4.6967782e-37
4.4146721e-37
7.1479838e-37
2.905982e-37
-8.231676e-05
1.342038e-11
3.9359611e-18
8.9826256e-25
2.1881795e-31
5.7402115e-38
4.6064555e-44
1.2247156e-43
-2.3800101e-45
5.8042353e-43
-3.6840429e-42
9.1631712e-42
-3.2274895e-42
-4.948348e-44
-1.4500769e-43
9.9086345e-43
-2.9563077e-42
7.1810581e-44
6.9070195e-41
2.8773899e-43
2.6709213e-43
1.9579272e-43
1.326122e-42
3.4411989e-43
3.965595e-44
-7.35698e-41
3.9416518e-42
-2.8248337e-41
3.6843613e-44
1.1558914e-43
4.3977721e-45
1.5319344e-42
1.0802869e-43
8.5500581e-44
6.8286658e-44
1.3453098e-43
8.3924061e-43
5.2016764e-43
1.0436922e-41
7.7511716e-44
-4.9555029e-05
3.5666476e-12
1.5637405e-18
2.5692685e-25
5.935377e-32
1.7784951e-38
4.8985813e-45
2.8023541e-49
-6.9565434e-49
6.8981479e-48
4.5091713e-47
1.8957631e-47
-1.5053437e-47
-2.8059739e-49
-2.0959355e-48
-1.5319457e-48
-1.0114611e-47
5.0775392e-50
3.8597591e-46
3.5239254e-49
5.7152891e-49
6.6655471e-49
3.4056014e-48
5.9714281e-49
1.1755575e-49
-2.4667095e-46
2.3941775e-47
-1.1368738e-46
-2.288346e-49
2.6418661e-49
4.2463471e-49
2.5363579e-48
1.2552907e-49
3.2966881e-50
2.5839474e-50
6.4011826e-49
7.5197251e-49
1.5256505e-48
4.5524686e-47
2.3489954e-50
-3.2494164e-05
1.31651e-12
-6.470439e-19
-9.1052608e-26
-1.9555562e-32
-5.3381187e-39
-1.4264803e-45
-4.2552702e-52
-1.2780552e-54
1.4176436e-52
1.1846347e-52
1.5654433e-52
-6.1246929e-53
8.720152e-54
-1.2787255e-53
-8.2620674e-54
-1.9581483e-53
-2.1630462e-55
1.8235042e-51
-7.9008199e-54
1.6867851e-54
3.5269064e-54
1.0458157e-53
1.0656246e-54
6.6017558e-55
-1.6752518e-51
2.99854e-52
-4.001126e-51
1.8791714e-54
-6.1172532e-55
1.3853002e-54
4.285552e-54
2.9493763e-55
4.2031529e-56
3.4718193e-56
-2.3024028e-54
3.9532666e-54
-1.4644036e-53
7.7145877e-53
6.0475262e-57
-2.3170333e-05
5.7414832e-13
-6.0356225e-20
-8.2636477e-27
-1.3952998e-33
-3.2841119e-40
-9.9406424e-47
-2.9197641e-53
-2.6419397e-59
3.0850668e-57
1.7629296e-58
4.707058e-58
-9.4690632e-59
-1.3685625e-58
-2.0222096e-58
4.0657835e-59
-4.5394318e-59
-1.9370059e-60
7.6217433e-57
1.8105579e-59
3.7015093e-60
5.3681753e-60
-9.8381276e-60
-6.0902984e-60
3.7332256e-60
-2.6548896e-57
-5.1860286e-58
-1.9601104e-56
1.2571068e-59
-2.3964244e-60
4.5477568e-60
2.9485106e-59
-2.445414e-60
5.5457922e-60
1.7982053e-61
-4.1979103e-60
1.5522993e-59
-1.9485268e-58
1.6617133e-58
1.7092022e-63
-1.7284352e-05
2.9048006e-13
-1.4089374e-20
-1.9638854e-27
-2.7668532e-34
-6.1785607e-41
-1.7324522e-47
-4.7223705e-54
-1.4791436e-60
1.0750494e-62
2.0682808e-63
3.0475907e-63
-2.8588364e-64
-2.2120367e-64
-4.7206971e-64
4.6147859e-65
-7.9133861e-65
2.5838089e-65
9.6965818e-63
7.8926763e-65
3.760726e-65
-2.0787231e-65
-7.4048676e-65
-3.0948388e-65
1.7503809e-65
-7.3467501e-63
5.7333075e-63
-1.0004586e-61
2.8414837e-65
-9.5252587e-66
5.304544e-66
1.5609566e-64
-4.1847787e-66
4.6156088e-65
-1.5567997e-66
-4.9451994e-66
1.1366999e-64
-4.011219e-64
-3.6164103e-63
-5.0711803e-70
-1.3330193e-05
1.5764854e-13
-4.3451677e-21
-8.2185635e-28
-8.5368798e-35
-1.6456949e-41
-4.1093821e-48
-1.3653277e-54
-3.9116504e-61
-5.6865692e-68
-8.0569588e-69
9.9627625e-69
-2.5528047e-69
-5.8493356e-70
-4.9691883e-70
9.9692808e-71
-1.3961551e-70
1.2450949e-70
5.1839214e-68
1.7720534e-70
9.3054074e-71
-6.7754536e-71
-5.0034997e-70
-1.4324581e-70
2.7694337e-71
-4.6693271e-68
2.8038927e-68
-8.4012919e-67
4.4429425e-71
1.0814063e-70
6.8644715e-72
7.7822347e-70
-2.265115e-71
1.2886714e-70
-6.4933451e-72
-1.8849253e-71
-7.9554701e-70
-9.8583738e-70
-1.1961521e-68
-3.4544674e-75
-1.0340699e-05
8.9708229e-14
-1.5521897e-21
-8.5057433e-28
-7.0200327e-35
-1.147798e-41
-3.2869517e-48
-8.1027965e-55
-1.9673019e-61
-6.1901568e-68
-5.0094676e-74
1.0215128e-73
-4.5737004e-75
-1.793552e-75
-5.2387927e-76
1.4799966e-75
1.7403871e-76
1.0515442e-75
2.8710229e-73
3.0422886e-76
-8.8634025e-76
-9.9987872e-77
8.6502187e-75
-6.6422014e-76
5.6624838e-77
-1.3635178e-73
-1.1214825e-73
3.865621e-72
4.0695752e-75
1.8274711e-75
1.9344645e-77
-1.4084669e-74
-5.2342672e-77
-7.1307328e-75
-2.8269909e-77
-3.6637692e-77
9.3669926e-75
-3.5086155e-74
4.2358635e-74
1.2650638e-80
-8.1699166e-06
5.3716816e-14
-6.2608799e-22
1.4856504e-28
9.917887e-36
1.3652566e-42
3.1545226e-49
8.3704295e-56
2.1663404e-62
5.0545019e-69
1.3960962e-75
2.8000552e-79
-1.6565184e-80
-3.5574207e-81
-9.6760592e-82
-1.3466131e-80
3.5036255e-82
2.2100964e-81
1.1386417e-78
6.6006166e-82
-7.1898542e-81
-2.4007606e-81
2.2680205e-79
-3.594817e-81
1.4800111e-82
-1.4025284e-79
-2.6087343e-79
-8.4273418e-78
6.1779699e-81
4.4230472e-81
7.0320211e-83
-6.1757145e-80
-2.937971e-82
-1.1541364e-80
-1.1161723e-82
-7.5512771e-83
5.7254925e-79
-7.7773189e-80
5.5878333e-79
1.8700112e-85
-6.5118398e-06
3.2956239e-14
-2.6876348e-22
1.8099166e-29
1.0148339e-36
9.8867231e-44
2.4741967e-50
6.1437432e-57
1.6176113e-63
3.9377424e-70
1.0322638e-76
2.2932121e-83
-2.9100968e-86
-6.117114e-87
2.0051154e-84
8.243767e-86
-6.2572341e-88
3.0924341e-87
2.4739003e-84
3.187996e-87
-1.2710307e-86
4.2299727e-86
-1.8762222e-84
-1.1772773e-86
3.5864727e-88
-2.3710013e-85
3.8605107e-85
-1.421385e-83
1.8508755e-86
5.3181841e-86
2.8876592e-88
-1.0560298e-85
3.0013881e-87
-2.7655789e-86
1.933993e-87
-1.2218034e-88
1.0807798e-84
-3.0599559e-85
-1.047958e-84
-2.7613651e-91
-5.2040346e-06
2.0682739e-14
-1.2189853e-22
3.9086713e-30
1.9261915e-37
1.4667771e-44
2.9044708e-51
8.6763014e-58
2.1560877e-64
5.789808e-71
1.6508266e-77
4.7298436e-84
1.6062193e-90
-4.6044227e-92
7.406953e-90
8.1948917e-91
-1.1599676e-93
3.6688847e-93
3.499529e-90
-3.5270535e-92
-1.9401605e-92
8.7710732e-92
-5.4386443e-90
-1.6231313e-92
5.7223641e-94
-4.7048252e-91
1.4757334e-90
-8.8065698e-89
2.1325504e-91
2.2129833e-91
3.5687815e-94
-1.512697e-91
7.8844761e-93
-1.4000655e-91
1.0212784e-92
-2.8239264e-94
1.8292249e-90
-4.9928283e-91
5.4759116e-90
1.8726705e-96
-4.2183523e-06
1.3269818e-14
-5.7994348e-23
1.083494e-30
5.1128902e-38
3.023939e-45
5.2035361e-52
1.5217341e-58
3.7867116e-65
8.9663553e-72
2.3915247e-78
5.9797295e-85
1.7337724e-91
3.8836821e-95
-4.2847083e-95
1.1511466e-96
-1.3105846e-99
5.827815e-99
6.2668037e-96
-2.5794005e-97
-9.7357744e-98
8.1093427e-97
-3.666383e-95
-3.021505e-98
2.0430725e-99
-1.0226691e-96
3.168745e-96
-4.9351716e-94
4.262075e-97
6.6587155e-97
6.2239235e-100
-2.4740056e-97
1.5356654e-98
-3.1751284e-97
9.5802142e-98
-8.9660573e-100
7.9439067e-96
-1.0273642e-96
4.520358e-95
1.3394383e-101
-3.4377686e-06
8.6937211e-15
-2.9001176e-23
3.4217657e-31
1.6432493e-38
7.5533813e-46
1.0168935e-52
2.7090424e-59
8.386684e-66
2.2339365e-72
5.7814756e-79
8.2253511e-86
-1.4494089e-91
1.1771208e-96
-1.0848702e-100
1.6675653e-102
-3.7179108e-105
1.6902534e-104
1.4303301e-101
-9.2233265e-103
-4.3393713e-103
1.8258704e-102
-4.633892e-100
-1.0729718e-103
4.0834045e-105
4.456186e-102
1.4238553e-101
-1.0242145e-99
-2.213015e-102
1.2405948e-100
7.7064815e-105
-1.6313829e-102
2.4612112e-104
-4.2210266e-103
2.0714073e-103
-5.72581e-105
2.3026064e-101
-1.0535908e-101
-1.5856805e-100
-5.1095518e-107
-2.8215041e-06
5.7753271e-15
-1.493571e-23
1.1862059e-31
6.6178903e-39
2.4063965e-46
2.5374924e-53
6.3794039e-60
2.0521334e-66
5.3996683e-73
1.6444403e-79
4.2586622e-86
1.2459943e-92
4.812302e-99
3.4145112e-105
3.4837097e-108
-4.8248051e-111
2.4850191e-110
3.9780134e-107
-1.4337601e-108
-1.1159326e-108
3.882819e-108
-1.127314e-105
-1.6387064e-109
7.3252044e-111
-6.3352491e-107
4.24234e-107
-2.1406e-105
-6.1628927e-108
1.7317943e-106
1.6700063e-110
-6.3005233e-108
4.2730692e-110
-1.6223747e-108
3.8815632e-109
-1.451517e-110
1.6827564e-106
-1.8451834e-107
2.0104963e-106
3.5734221e-113
-2.338158e-06
3.9033832e-15
-7.93256e-24
4.4134722e-32
4.1008541e-39
1.2440034e-46
9.8382919e-54
2.2663593e-60
7.1718425e-67
1.8808494e-73
5.0583242e-80
1.2268014e-86
3.5152511e-93
1.1724987e-99
3.5660084e-105
-2.1390784e-110
-1.9311783e-115
3.9252706e-116
7.2520507e-113
-4.8967577e-114
-3.3271114e-113
4.809178e-114
-4.3431658e-111
-6.1381511e-115
1.0944768e-116
-1.7827185e-112
7.3689587e-113
-1.3077438e-110
-2.1077756e-113
3.0913513e-112
-8.1157134e-116
-1.8015548e-113
5.0169664e-114
-2.2170076e-114
5.0684868e-115
-2.9939444e-116
-3.2053053e-112
-5.1346548e-113
-1.9614303e-111
-6.4439929e-118
-1.9479905e-06
2.6727723e-15
-4.3152268e-24
1.7496243e-32
-3.7189273e-38
-9.4013361e-46
-5.5968202e-53
-1.2771444e-59
-3.7374375e-66
-1.2686186e-72
-3.7242791e-79
-1.1456252e-85
-2.654665e-92
-7.1886096e-99
-1.9969696e-105
-5.4965277e-112
-1.2718742e-118
5.0791498e-121
6.2361092e-118
-2.0752131e-119
-6.2729766e-119
9.4672301e-119
-1.9894976e-116
1.0246107e-119
9.4798315e-122
2.9493848e-117
1.1974534e-118
-2.5666182e-116
-4.6047538e-119
-4.554271e-117
-2.9649532e-121
-6.2087317e-119
1.5812525e-119
-1.029451e-119
1.487785e-120
-2.8092697e-121
-4.0432551e-118
3.8906201e-117
-1.0821438e-116
-2.9781896e-123
-1.6329673e-06
1.8546574e-15
-2.4057233e-24
7.2398188e-33
-3.7510101e-40
-8.1429232e-48
-3.7468317e-55
-7.6332131e-62
-2.3858567e-68
-7.6696999e-75
-2.2757298e-81
-6.1193061e-88
-1.8918053e-94
-5.1831259e-101
-1.3214808e-107
-5.6763072e-114
-8.7759057e-119
1.7263271e-123
-5.2712916e-123
-2.1235851e-125
1.5103326e-124
-1.7654055e-122
-7.7597716e-122
-3.9854801e-124
6.4243137e-130
-6.1615892e-122
1.3342592e-124
-3.3812147e-120
-3.7781349e-124
-1.776104e-120
3.3913885e-125
-1.4159599e-124
5.069134e-125
-7.2939945e-125
1.0031104e-125
1.4285506e-125
-6.4439107e-124
-1.3292484e-122
1.6133852e-122
3.6066323e-129
-1.3746637e-06
1.300136e-15
-1.3687281e-24
3.125353e-33
-6.9707254e-41
-1.3118412e-48
-4.7174551e-56
-7.1188693e-63
-2.4264018e-69
-8.7401908e-76
-2.6139515e-82
-7.4248029e-89
-2.2688244e-95
-6.7112555e-102
-2.0302228e-108
-2.5859333e-114
-2.2387924e-118
4.4693991e-124
-4.3070037e-126
-1.9393573e-130
6.2927564e-129
1.6212821e-127
-1.6271048e-127
4.9810472e-129
-7.4726429e-133
-2.3519441e-127
2.6281484e-129
2.9907966e-125
6.815267e-130
-4.0585421e-126
3.8885655e-130
-4.7021538e-130
1.1247214e-130
-1.0662515e-128
2.3958633e-131
1.2437525e-130
1.4257739e-128
-5.5974977e-128
-1.1602463e-127
-3.0955973e-134
-1.1655189e-06
9.2346958e-16
-7.9587091e-25
1.4039621e-33
-1.7138822e-41
-2.949624e-49
-8.3271867e-57
-1.0162325e-63
-3.8704134e-70
-1.16647e-76
-3.3931197e-83
-1.0672805e-89
-3.4960805e-96
-1.1059513e-102
-3.0983307e-109
-1.3598142e-115
6.2719254e-122
-1.5687019e-127
2.1500256e-131
8.3353727e-135
4.6514179e-134
-2.1240602e-133
-1.1383623e-132
-8.6041455e-135
4.889961e-137
2.2363288e-132
6.0060122e-135
9.4431571e-131
3.349533e-135
-5.9079087e-132
4.7739537e-135
2.8436812e-135
-1.32926e-135
-1.6183901e-134
5.083182e-137
5.1491133e-135
-4.7329669e-134
-6.3356684e-133
-3.1122067e-133
-1.154635e-139
-9.926166e-07
6.6320165e-16
-4.7134636e-25
6.5089834e-34
-4.9895318e-42
-8.0223632e-50
-1.8318081e-57
-1.6550448e-64
-5.8151606e-71
-2.3341808e-77
-7.930071e-84
-2.7118368e-90
-9.1215615e-97
-2.9973336e-103
-9.9767265e-110
-1.958534e-116
9.180536e-122
-1.0669146e-126
2.1131596e-132
-4.7124628e-138
3.6457082e-139
4.2605425e-139
-3.0639846e-138
-9.1807202e-140
-2.5811856e-143
5.3620627e-138
-4.443223e-140
5.1149394e-136
1.3756393e-140
1.0046594e-137
6.4896242e-140
7.5968851e-140
2.5666106e-140
1.0113224e-139
7.2969923e-142
-1.6337334e-140
-9.5408535e-140
8.7212117e-139
-6.1494323e-138
0
-8.4981638e-07
4.8080394e-16
-2.8400761e-25
3.113964e-34
-1.5900618e-42
-2.5336894e-50
-4.7102835e-58
-3.1291695e-65
-1.0973865e-71
-4.2614387e-78
-1.3571231e-84
-3.6057161e-91
-9.4140632e-98
-2.7992427e-104
-8.932799e-111
-4.0101379e-117
1.7154268e-123
-7.2315079e-129
8.3699876e-134
2.0484453e-139
-2.291375e-143
-5.8271048e-145
5.9643533e-143
3.8885407e-145
-1.8294295e-148
-3.6837492e-143
-2.1745679e-145
-9.357633e-142
3.0383175e-146
-4.4144973e-143
-6.9287179e-146
7.6030109e-145
1.4119401e-145
9.6566522e-145
-6.027084e-147
-1.0905792e-145
3.6585082e-145
-1.1524746e-143
6.199616e-142
1.9551593e-148
-7.3002287e-07
3.5151596e-16
-1.7372645e-25
1.5285056e-34
-5.510292e-43
-9.2586678e-51
-1.4226566e-58
-7.3823688e-66
-2.4715099e-72
-9.4868732e-79
-3.1826704e-85
-8.4284379e-92
-2.7397233e-98
-7.3930269e-105
-2.2286265e-111
-5.4256207e-118
-4.2105311e-124
2.8687279e-130
-8.8909778e-136
-4.2195935e-141
6.1620668e-147
1.6986569e-150
-2.5481563e-149
-5.8396635e-150
-1.5208023e-154
1.0973761e-148
9.2353021e-151
2.136138e-146
2.6797818e-151
5.4618535e-148
7.0730731e-150
-7.3016879e-151
-2.5534135e-151
3.0396027e-149
2.5189817e-152
-3.9480688e-151
-1.1843211e-150
1.1419334e-148
-1.78118e-147
-4.8479215e-154
-6.28491e-07
2.587723e-16
-1.0763108e-25
7.6816287e-35
-2.0094471e-43
-3.8504535e-51
-4.9194343e-59
-1.9196304e-66
-3.8654445e-73
-1.2803457e-79
-3.9023114e-86
-1.2743944e-92
-3.3916094e-99
-9.3172145e-106
-2.5636286e-112
-2.0216772e-118
7.4580435e-123
-1.5660325e-128
8.0110733e-134
-4.3260651e-139
3.1835943e-144
-9.223197e-150
1.0738466e-154
6.069008e-155
-8.0019315e-160
-1.9461867e-154
-1.7393287e-156
-3.3089325e-152
-3.6963945e-156
-1.6923223e-153
-2.1748805e-155
2.6464644e-156
6.3959631e-156
-9.0683544e-155
3.5101362e-157
1.9546875e-156
3.5714533e-155
-1.4304951e-153
-1.2298269e-152
-4.054312e-159
-5.4335305e-07
1.9191752e-16
-6.754684e-26
3.9429357e-35
-7.6839573e-44
-2.1321825e-51
-2.3343213e-59
-7.1967704e-67
-1.3107033e-73
-7.0966684e-80
-2.4215202e-86
-7.2022951e-93
-2.359197e-99
-6.981372e-106
-2.2076158e-112
-8.7548315e-119
9.2203284e-125
-3.0712487e-130
7.6394979e-136
-4.1814532e-140
6.6647886e-146
-9.2752406e-152
-4.830077e-157
-1.2960919e-159
1.2040395e-165
1.2433237e-159
5.7129591e-161
-2.0430595e-156
9.1688798e-162
3.9925756e-159
4.6949233e-161
-1.4765245e-161
7.796991e-161
5.7424873e-160
-9.390385e-163
1.5169576e-161
6.2592328e-158
1.3824271e-159
-6.3696518e-158
-2.0621297e-164
-4.7105444e-07
1.4331231e-16
-4.2889681e-26
2.0654655e-35
-3.0682202e-44
-2.5574334e-51
-2.439796e-59
-5.8827477e-67
-7.5041659e-74
-3.1457256e-80
-1.2858137e-86
-3.9441488e-93
-1.330319e-99
-4.2192916e-106
-1.3347478e-112
-4.4025275e-119
-3.2591847e-126
-1.8376958e-131
5.0348973e-137
-1.2007994e-142
-2.6657117e-147
7.7782359e-153
-2.3315194e-158
2.4828361e-163
-5.5634083e-169
-6.9980461e-165
-2.3864401e-166
2.0938262e-162
-1.5020685e-166
-4.6145897e-165
9.7545178e-167
1.3709949e-166
-1.0986395e-166
-1.1356952e-165
2.1649249e-167
-5.9724311e-167
-1.7374964e-163
-6.4105202e-165
-2.1960593e-163
-7.4523794e-170
-4.0944955e-07
1.0763963e-16
-2.7520611e-26
1.1005835e-35
-1.2684815e-44
5.2646098e-52
4.4367634e-60
8.3976978e-68
8.3520088e-75
3.2109702e-81
1.3032811e-87
3.4632179e-94
1.0131069e-100
2.6163769e-107
7.734622e-114
2.52695e-120
6.459761e-127
2.0122751e-133
-1.4062952e-140
4.9317426e-145
2.6417163e-150
-4.1087962e-156
7.2320517e-161
8.0127777e-166
8.3942149e-171
2.7512093e-170
2.3793746e-171
5.7657865e-168
6.5055627e-172
7.7796701e-170
-3.7438603e-172
-3.2322307e-171
9.0608394e-172
1.0241846e-171
-4.9217149e-173
4.2933519e-172
-1.1156838e-168
5.0200182e-170
1.4425708e-169
2.171627e-176
-3.5669694e-07
8.1286975e-17
-1.7824798e-26
5.9613146e-36
-5.4062882e-45
7.2542533e-53
5.4855781e-61
8.3688099e-69
6.2747247e-76
3.0537045e-82
1.5923935e-88
5.4607794e-95
1.7817253e-101
4.8444832e-108
1.4163933e-114
4.7638039e-121
1.3386216e-127
4.7010079e-134
3.5627688e-141
2.8214796e-146
2.3948415e-151
-2.2679633e-156
2.0070163e-162
-2.6027209e-167
4.7630813e-173
-5.8993061e-176
-3.4509464e-177
-6.8931255e-174
-2.0897213e-176
-9.7494272e-176
-2.3109173e-177
1.2204474e-176
-8.5545942e-178
3.4761315e-176
3.8794344e-178
-3.5292358e-178
4.9277194e-174
3.5544776e-175
-8.1582198e-175
-2.6735049e-181
-3.1154769e-07
6.1714286e-17
-1.1653538e-26
3.2782563e-36
-2.3693288e-45
1.6689131e-53
1.1605954e-61
1.4622462e-69
8.3445656e-77
4.1654278e-83
1.7041331e-89
4.5463351e-96
1.2938918e-102
3.3300505e-109
1.0606371e-115
3.4416605e-122
9.9813038e-129
2.9395962e-135
1.6378984e-141
-7.0327081e-148
1.6799188e-151
-3.0353061e-157
-1.4231688e-162
1.135655e-168
-1.356834e-173
2.7847683e-179
-1.3962209e-182
9.8086093e-180
1.4507654e-181
-4.702854e-180
7.9433682e-183
-2.4592469e-181
1.1778836e-182
-6.0738049e-182
-6.8171075e-184
-6.45445e-183
2.2413812e-179
-2.016165e-181
-4.1560636e-180
-1.368194e-186
-2.7271509e-07
4.7081235e-17
-7.6815014e-27
1.827245e-36
-1.0638301e-45
4.6107489e-54
3.0296499e-62
3.1515383e-70
1.3381034e-77
5.6805014e-84
2.3579863e-90
9.1137077e-97
2.7175884e-103
7.790423e-110
2.244844e-116
6.0716316e-123
1.7981108e-129
7.203524e-136
-1.8338223e-142
1.769929e-147
-5.6291063e-153
2.6209675e-158
-7.3904481e-164
1.5262529e-169
-8.7688374e-175
2.3713373e-180
-1.4732923e-185
4.1735038e-185
-2.4083864e-187
4.8505992e-185
-8.0119399e-188
-1.4172544e-186
-2.4644215e-188
1.011426e-186
-3.6556195e-189
2.1483066e-188
-1.2129035e-184
-6.5678532e-187
1.922739e-186
1.9178332e-193
-2.3917987e-07
3.6080656e-17
-5.1032599e-27
1.0318774e-36
-4.885907e-46
1.4220639e-54
9.0929155e-63
8.0140724e-71
2.6382913e-78
6.2579793e-85
2.9308612e-91
9.4592656e-98
2.5817985e-104
9.3141665e-111
2.5720303e-117
9.4201657e-124
3.5152249e-130
3.1924372e-137
3.8181963e-142
-8.9621828e-148
1.5906662e-153
-1.1449006e-158
8.0682614e-164
-2.4947894e-169
-2.8827719e-174
2.2488935e-180
-2.4212235e-185
2.2595254e-190
-8.8876622e-193
-2.2417884e-190
1.8535531e-193
1.4388118e-192
-5.4748892e-193
-1.5278413e-192
1.1978018e-194
-4.4212371e-194
-3.9690764e-189
1.0691626e-192
-6.3773475e-192
-2.4168773e-198
-2.1021611e-07
2.7772812e-17
-3.415847e-27
5.8975356e-37
-2.2914312e-46
4.7123459e-55
3.0273261e-63
2.2638737e-71
5.7990368e-79
1.1986823e-85
6.216266e-92
1.9451132e-98
5.2110217e-105
1.5493657e-111
5.3518085e-118
1.5540696e-124
5.0936622e-131
1.6066412e-137
4.6010959e-144
3.6233039e-150
-4.8027771e-156
3.7828141e-161
-3.2102677e-167
1.0085825e-172
1.5949904e-177
-1.9533358e-183
2.1091781e-189
-8.0171139e-194
2.0342136e-198
3.6063823e-195
-4.6291162e-199
3.4064903e-198
5.1642647e-197
1.8800935e-197
-5.8570128e-200
-8.8616641e-200
7.8204321e-195
-5.6616984e-198
5.8768043e-198
1.4701613e-204
-1.8505431e-07
2.1458257e-17
-2.301664e-27
3.4077266e-37
-1.0949986e-46
1.6492033e-55
1.1210803e-63
7.2074049e-72
1.4715315e-79
2.3072521e-86
1.2859126e-92
5.1765922e-99
1.6259924e-105
5.9929317e-112
1.9209759e-118
6.5344077e-125
2.2322332e-131
6.2244331e-138
2.6069851e-144
-8.5083262e-149
5.1068949e-154
-2.0971483e-159
1.9773362e-164
-8.3613027e-170
1.2364498e-175
-3.3299895e-181
6.9567219e-187
-9.8573388e-193
7.4202796e-198
1.0303141e-200
2.5067398e-204
-6.9230639e-204
5.8112046e-202
-3.2915475e-203
3.1727788e-205
6.155249e-206
7.3606733e-200
2.468516e-203
-7.4119955e-204
-2.3169553e-210
-1.6320689e-07
1.664398e-17
-1.5609692e-27
1.9893966e-37
-5.3214945e-47
6.0397242e-56
4.6866733e-64
2.629409e-72
4.315512e-80
4.6752395e-87
4.241066e-93
1.858646e-99
6.4473208e-106
2.0296356e-112
6.3599045e-119
1.6281665e-125
4.8734525e-132
1.4476902e-138
3.2644561e-145
6.3438432e-151
2.1232725e-156
-3.6641806e-162
3.4568043e-167
-2.2442284e-173
1.0413631e-178
-3.1767149e-184
3.6486263e-190
-6.5219108e-196
7.4462422e-202
-7.8436186e-207
-2.7831312e-210
1.1091823e-209
-3.2692986e-207
2.6956791e-209
-7.6360833e-211
9.251491e-211
-5.8730675e-205
-5.3491964e-209
1.0790366e-209
5.0877935e-216
-1.4418963e-07
1.2958144e-17
-1.0653529e-27
1.1732843e-37
-2.6295762e-47
2.2957554e-56
2.3353859e-64
1.1556369e-72
1.5384483e-80
1.2464134e-87
1.3504902e-93
6.2766209e-100
1.889769e-106
5.4975263e-113
1.6148595e-119
4.8733854e-126
1.3300228e-132
4.0724481e-139
1.201556e-145
3.2620226e-152
4.1220657e-158
-2.31091e-164
9.3572138e-170
3.930881e-174
-6.5399676e-180
-6.8708117e-185
-2.4099001e-190
-1.0998931e-195
1.7322365e-201
-5.919056e-207
-2.1329905e-212
2.619485e-214
-1.8023245e-212
-1.1246102e-214
3.2778691e-216
8.8099149e-216
-1.2193423e-209
3.1727888e-215
-6.5716771e-216
-6.0516145e-223
-1.2757656e-07
1.0123189e-17
-7.3132712e-28
6.9830376e-38
-1.3188296e-47
9.0099082e-57
1.6889935e-64
7.5029445e-73
8.214966e-81
4.8447067e-88
2.7334491e-94
1.1987626e-100
4.663197e-107
1.2396457e-113
3.0348029e-120
8.8460065e-127
2.3146133e-133
7.9684509e-140
-8.2514994e-147
3.2001699e-152
-2.4597401e-157
6.3014679e-163
3.1000358e-168
-4.4259377e-174
5.8212846e-180
-1.9019007e-185
3.3314459e-191
-9.3176754e-197
7.0342889e-202
-2.6561945e-207
5.1067154e-213
-2.5359333e-217
4.3529967e-218
1.797934e-220
-1.3732072e-220
-2.803122e-219
1.1484118e-214
-1.3175229e-220
6.1739337e-222
2.4940128e-228
-1.1305507e-07
7.9350325e-18
-5.0481857e-28
4.1930874e-38
-6.7084707e-48
3.6391112e-57
-3.098016e-64
-1.2460119e-72
-1.1301953e-80
-5.1468402e-88
-2.2306445e-94
-1.1762263e-100
-3.4670838e-107
-1.0886463e-113
-2.9956911e-120
-8.5528918e-127
-2.4654466e-133
-8.7602875e-140
-2.7274867e-146
-7.1072447e-153
-3.050019e-159
3.1386607e-165
-4.5287109e-171
3.2119397e-176
-1.3125392e-181
6.5132574e-187
-1.0230317e-192
-3.4587139e-198
2.0032094e-203
5.6101365e-208
-5.8775205e-214
1.1067437e-219
-7.5466262e-224
-5.6657118e-226
6.6383839e-226
1.6477692e-225
-2.2248763e-220
8.2974363e-226
-5.0682607e-228
-1.022155e-234
-1.0031641e-07
6.2372781e-18
-3.5019542e-28
2.5377598e-38
-3.4563214e-48
1.5064032e-57
-1.526487e-65
-5.6527294e-74
-4.2953418e-82
-1.5171193e-89
-5.3171443e-96
-3.0136082e-102
-1.1558836e-108
-3.1495352e-115
-1.1975277e-121
-3.7128373e-128
-1.2929103e-134
-4.1635255e-141
-1.1915842e-147
5.7083488e-155
-7.626516e-160
3.9854728e-164
-1.2632938e-169
3.0684318e-174
-2.4397272e-179
2.5652267e-185
-1.4251505e-190
1.1546043e-196
2.5774483e-201
5.0911621e-206
-4.0491353e-212
1.9012142e-217
-4.6834252e-223
-7.6633361e-228
-6.0328998e-232
-2.3392168e-231
6.9860897e-226
-8.5546507e-232
1.5005818e-233
4.6865525e-240
-8.9147698e-08
4.9188789e-18
-2.4422406e-28
1.5485283e-38
-1.8037529e-48
6.384497e-58
-2.9968883e-66
-1.0355613e-74
-6.6775159e-83
-1.8412089e-90
-5.4959837e-97
-4.2981979e-103
-1.5069039e-109
-4.4736282e-116
-1.5366021e-122
-4.6106854e-129
-1.4138505e-135
-4.4186192e-142
-1.2434827e-148
-9.7755602e-155
1.2258194e-160
-1.7529368e-166
2.3228512e-172
3.9430808e-177
-7.4328114e-182
2.978704e-187
-1.0876086e-192
1.5922442e-198
-3.1795255e-204
8.45206e-210
-2.5449237e-215
5.0259469e-221
-2.2988202e-226
-1.5892937e-231
-7.5089819e-238
-3.5105377e-236
-4.9406479e-231
-1.1594456e-236
-2.5994842e-239
-6.8650672e-246
-7.930889e-08
3.8887914e-18
-1.7106309e-28
9.5162617e-39
-9.5205362e-49
2.7613624e-58
-7.6920168e-67
-2.5364638e-75
-1.4054753e-83
-3.0396154e-91
-5.3504315e-98
-5.1490722e-104
-2.0855091e-110
-5.8308187e-117
-1.7716249e-123
-4.6760648e-130
-1.3007578e-136
-3.9422214e-143
-1.1814522e-149
-7.3239537e-156
2.2619176e-162
-1.0235325e-167
2.5454761e-173
-9.2704957e-179
6.6506978e-184
-1.2191426e-189
7.1333089e-195
-1.0230432e-199
2.2576509e-204
4.6164836e-209
-7.9251922e-215
-1.1441584e-219
-4.6060834e-225
6.9649111e-231
3.1759987e-236
-3.1973354e-241
-1.2859414e-236
1.7040012e-241
-3.7820945e-244
-8.8385017e-251
-7.0639445e-08
3.0827106e-18
-1.2036212e-28
5.8894869e-39
-5.0806602e-49
1.2178714e-58
-2.2378991e-67
-7.1723857e-76
-3.427174e-84
-6.01719e-92
-8.619148e-99
-5.6720482e-105
-2.199441e-111
-6.2270136e-118
-1.9471779e-124
-5.4126623e-131
-1.5744364e-137
-4.1622367e-144
-1.5629389e-150
-4.0036954e-157
-1.9846841e-163
4.7341866e-169
-5.2568392e-174
-1.1297257e-179
3.2026145e-185
-2.8293844e-190
2.6065573e-195
3.3998501e-200
-7.0765092e-206
3.6251361e-211
-4.1417443e-216
2.2002078e-221
6.4351609e-226
5.2610689e-231
2.2944386e-236
-1.1416833e-241
1.4740419e-242
-3.7389699e-247
-9.4942711e-250
-2.7264341e-256
-6.2989379e-08
2.4496387e-18
-8.5042581e-29
3.6690158e-39
-2.7392803e-49
5.4650798e-59
-7.0705208e-68
-2.2588291e-76
-9.4431781e-85
-1.3361951e-92
-1.4388726e-99
-1.0660947e-105
-4.1237666e-112
-1.1005697e-118
-3.5621967e-125
-1.0833921e-131
-3.3839212e-138
-8.6030317e-145
-2.340751e-151
-7.1287184e-158
-1.5644163e-164
-1.7105645e-170
2.3566546e-176
-8.3820407e-182
1.1157493e-187
1.2645077e-192
3.9878119e-197
-3.1715204e-201
-5.0896069e-206
3.9161914e-211
1.1797728e-216
2.6914298e-222
-1.1066991e-227
3.9012542e-233
-3.59685e-238
6.7287687e-244
-6.0171832e-248
1.4971661e-252
-1.121142e-255
-2.1535429e-262
-5.6222777e-08
1.9509902e-18
-6.0320287e-29
2.2999255e-39
-1.4913023e-49
2.4930545e-59
-2.3669693e-68
-7.8157557e-77
-2.873238e-85
-3.3484159e-93
-2.5976387e-100
-1.524441e-106
-6.8045621e-113
-2.001637e-119
-6.4847411e-126
-1.7479191e-132
-4.7003562e-139
-1.3412516e-145
-4.4768919e-152
-1.3018643e-158
-7.3403022e-165
4.9954488e-171
6.1894397e-176
-7.4699035e-182
2.9534554e-186
-9.3881887e-192
9.9202388e-195
1.3594817e-200
-8.9571009e-205
4.4036711e-210
-1.9628973e-215
7.2852979e-221
-2.6783582e-226
9.0857179e-231
2.1099444e-236
4.0262647e-241
-4.9731802e-247
2.0012397e-252
-2.3728915e-258
5.4062598e-264
-5.023195e-08
1.55723e-18
-4.2946352e-29
1.450289e-39
-8.1940611e-50
1.1548104e-59
-8.2861585e-69
-2.9535669e-77
-9.6752215e-86
-9.2342197e-94
-5.597173e-101
-2.8776753e-107
-1.4411811e-113
-3.5162872e-120
-1.0837361e-126
-2.5754311e-133
-8.2206697e-140
-2.2782842e-146
-6.7664512e-153
-1.8751968e-159
1.1581396e-165
-9.8046707e-171
8.2801978e-177
5.6932837e-182
-9.0396944e-188
1.2932264e-193
-5.5328936e-199
-2.8593391e-204
9.4519896e-209
1.5688081e-213
-6.3371124e-218
3.9156677e-223
9.2515025e-229
-3.4345697e-234
3.6640639e-239
2.2217275e-244
-5.4816229e-249
4.9619499e-254
1.9041517e-259
2.2177144e-265
-4.4918854e-08
1.2454352e-18
-3.0683311e-29
9.1961537e-40
-4.5413666e-50
5.4250414e-60
-3.0106313e-69
-1.2509294e-77
-3.6829919e-86
-2.9537452e-94
-1.3452991e-101
-9.1617523e-108
-4.9115971e-114
-1.1847976e-120
-3.0638372e-127
-8.5261403e-134
-2.6831077e-140
-8.9812958e-147
-3.157666e-153
-1.1232865e-159
5.1361133e-166
-3.797131e-171
5.153571e-177
1.6173149e-182
-1.9269871e-188
2.9724441e-194
1.1013322e-199
-6.5615035e-206
4.2967176e-211
-9.3875244e-216
-4.7179359e-220
-1.5546331e-225
-6.3331738e-231
-6.6776175e-236
7.3671296e-241
-1.074822e-245
-3.14626e-251
3.3403869e-257
1.9899978e-262
3.5561775e-268
-4.0197851e-08
9.9786789e-19
-2.1992439e-29
5.8617095e-40
-2.5376537e-50
2.5826419e-60
-1.1287564e-69
-6.2700632e-78
-1.6720573e-86
-1.1346652e-94
-4.0625581e-102
-1.7218995e-108
-7.302549e-115
-2.3185669e-121
-6.2821196e-128
-1.906068e-134
-6.0345653e-141
-1.4781898e-147
1.3318845e-152
-1.0576183e-157
1.3714079e-163