/*--------------------------------*- C++ -*----------------------------------*\
  =========                 |
  \\      /  F ield         | OpenFOAM: The Open Source CFD Toolbox
   \\    /   O peration     | Website:  https://openfoam.org
    \\  /    A nd           | Version:  10
     \\/     M anipulation  |
\*---------------------------------------------------------------------------*/
FoamFile
{
    format      ascii;
    class       volVectorField;
    location    "0.27";
    object      U;
}
// * * * * * * * * * * * * * * * * * * * * * * * * * * * * * * * * * * * * * //

dimensions      [0 1 -1 0 0 0 0];

internalField   nonuniform List<vector> 
4000
(
(0 0.018637468 0.47773156)
(0 0.023510014 0.50886061)
(0 0.0081668608 0.50052521)
(0 0.0056146205 0.50033634)
(0 0.0042546342 0.50025746)
(0 0.003254949 0.50016898)
(0 0.0025560932 0.50011969)
(0 0.0020545826 0.50009013)
(0 0.0016765777 0.50006981)
(0 0.0013822356 0.50005539)
(0 0.0011471837 0.50004499)
(0 0.0009550833 0.50003733)
(0 0.00079468028 0.5000316)
(0 0.00065799899 0.50002727)
(0 0.00053921119 0.50002399)
(0 0.00043393623 0.50002151)
(0 0.0003387869 0.50001967)
(0 0.00025106131 0.50001834)
(0 0.00016852686 0.50001744)
(0 8.9261731e-05 0.50001694)
(0 1.153262e-05 0.50001679)
(0 -6.6312416e-05 0.50001699)
(0 -0.00014593549 0.50001755)
(0 -0.0002291011 0.5000185)
(0 -0.00031778659 0.50001991)
(0 -0.00041431305 0.50002185)
(0 -0.00052151683 0.50002446)
(0 -0.00064298902 0.50002793)
(0 -0.00078342326 0.50003252)
(0 -0.0009491455 0.50003863)
(0 -0.0011489652 0.50004688)
(0 -0.0013955405 0.50005824)
(0 -0.0017076176 0.50007414)
(0 -0.0021155453 0.50009709)
(0 -0.0026752373 0.50013481)
(0 -0.0034688027 0.50020237)
(0 -0.0045610176 0.50027143)
(0 -0.0065852001 0.50043364)
(0 -0.017659639 0.50675408)
(0 -0.013590221 0.47975559)
(0 0.037432711 0.44796925)
(0 0.050955786 0.53232616)
(0 0.021969349 0.5080429)
(0 0.01613567 0.50357318)
(0 0.012416109 0.50242316)
(0 0.0095159769 0.501623)
(0 0.0075206381 0.50115662)
(0 0.0060699024 0.50086594)
(0 0.0049645724 0.50066802)
(0 0.0041001155 0.50052903)
(0 0.0034075818 0.50042906)
(0 0.0028400238 0.50035556)
(0 0.0023650681 0.50030067)
(0 0.0019596312 0.50025927)
(0 0.001606753 0.50022792)
(0 0.0012936387 0.50020426)
(0 0.0010103639 0.50018666)
(0 0.00074899098 0.50017399)
(0 0.00050294623 0.50016548)
(0 0.00026656061 0.50016064)
(0 3.4714044e-05 0.50015922)
(0 -0.00019747239 0.50016112)
(0 -0.00043490735 0.50016646)
(0 -0.0006828008 0.50017557)
(0 -0.00094698254 0.50018898)
(0 -0.0012342813 0.50020753)
(0 -0.0015530207 0.50023247)
(0 -0.0019137065 0.50026558)
(0 -0.0023300192 0.5003095)
(0 -0.002820298 0.5003681)
(0 -0.0034099176 0.50044735)
(0 -0.0041352533 0.5005567)
(0 -0.0050493832 0.50071125)
(0 -0.0062321718 0.50093659)
(0 -0.0078325022 0.50129436)
(0 -0.010126161 0.50191049)
(0 -0.013107249 0.50282506)
(0 -0.017426636 0.50608115)
(0 -0.038759392 0.52526814)
(0 -0.027894846 0.45021625)
(0 0.039888315 0.4098205)
(0 0.061428218 0.54930815)
(0 0.031983846 0.52188197)
(0 0.024355591 0.51008056)
(0 0.019193723 0.50658858)
(0 0.014977254 0.5045281)
(0 0.012006816 0.50327143)
(0 0.0097720022 0.50245843)
(0 0.0080365711 0.50190112)
(0 0.0066648773 0.50150875)
(0 0.0055567004 0.50122554)
(0 0.0046425067 0.5010168)
(0 0.0038735588 0.50086065)
(0 0.0032144611 0.50074274)
(0 0.0026388801 0.50065336)
(0 0.0021267631 0.50058585)
(0 0.0016624339 0.50053558)
(0 0.0012332732 0.50049938)
(0 0.00082877465 0.50047505)
(0 0.00043984001 0.50046123)
(0 5.8228644e-05 0.50045714)
(0 -0.00032392014 0.50046257)
(0 -0.00071451423 0.50047785)
(0 -0.0011219322 0.50050387)
(0 -0.0015555184 0.50054216)
(0 -0.0020261667 0.50059512)
(0 -0.0025470747 0.50066624)
(0 -0.0031347746 0.50076059)
(0 -0.0038105956 0.50088558)
(0 -0.0046027765 0.50105212)
(0 -0.0055496712 0.50127675)
(0 -0.0067052592 0.50158559)
(0 -0.0081467404 0.50202076)
(0 -0.0099782022 0.50265068)
(0 -0.012372459 0.50361501)
(0 -0.015717469 0.50519909)
(0 -0.019873821 0.5078538)
(0 -0.025187484 0.51641217)
(0 -0.047417959 0.53912719)
(0 -0.030854035 0.4148795)
(0 0.034791631 0.36172995)
(0 0.063839047 0.55456331)
(0 0.039380566 0.53747139)
(0 0.030083532 0.51849263)
(0 0.024112749 0.51197733)
(0 0.019279727 0.5084995)
(0 0.015736282 0.50626432)
(0 0.012954258 0.50475553)
(0 0.010743689 0.50370452)
(0 0.0089678866 0.50295624)
(0 0.0075138195 0.5024112)
(0 0.0063018233 0.50200693)
(0 0.005274094 0.50170315)
(0 0.0043873751 0.50147293)
(0 0.0036088511 0.50129793)
(0 0.002913139 0.50116545)
(0 0.0022801338 0.50106666)
(0 0.0016934759 0.50099539)
(0 0.001139426 0.50094747)
(0 0.00060600544 0.50092021)
(0 8.231464e-05 0.50091213)
(0 -0.00044206596 0.50092283)
(0 -0.00097761635 0.50095292)
(0 -0.0015354055 0.50100413)
(0 -0.0021277112 0.50107944)
(0 -0.0027687383 0.50118343)
(0 -0.0034755242 0.50132282)
(0 -0.0042691454 0.50150728)
(0 -0.0051763803 0.50175083)
(0 -0.0062320069 0.50207392)
(0 -0.0074818919 0.50250704)
(0 -0.0089882658 0.50309718)
(0 -0.010838497 0.50391906)
(0 -0.013139144 0.50508905)
(0 -0.016025864 0.50680665)
(0 -0.019901223 0.50946722)
(0 -0.02473309 0.51427458)
(0 -0.031114986 0.52824682)
(0 -0.050320966 0.54407147)
(0 -0.028438844 0.37237948)
(0 0.027424314 0.31484306)
(0 0.06231505 0.55024057)
(0 0.044614794 0.55146768)
(0 0.033982252 0.52748818)
(0 0.027464263 0.51772248)
(0 0.022455341 0.5129199)
(0 0.018636928 0.50973153)
(0 0.01552822 0.50749275)
(0 0.013006235 0.50590008)
(0 0.010942147 0.50474706)
(0 0.009224576 0.50389632)
(0 0.0077746696 0.50325937)
(0 0.0065324422 0.50277731)
(0 0.0054514692 0.50240994)
(0 0.0044957028 0.50212944)
(0 0.0036366784 0.50191637)
(0 0.0028514526 0.50175704)
(0 0.0021210871 0.50164188)
(0 0.0014294887 0.50156432)
(0 0.0007624983 0.50152014)
(0 0.00010715249 0.50150701)
(0 -0.00054897824 0.5015243)
(0 -0.0012183918 0.50157298)
(0 -0.0019142334 0.50165575)
(0 -0.0026509798 0.50177729)
(0 -0.0034452096 0.50194475)
(0 -0.0043165484 0.50216854)
(0 -0.0052888801 0.50246354)
(0 -0.0063919544 0.502851)
(0 -0.0076635455 0.50336158)
(0 -0.009151916 0.5040399)
(0 -0.010919502 0.50495252)
(0 -0.013053137 0.50620223)
(0 -0.015656616 0.50794393)
(0 -0.018817793 0.51040399)
(0 -0.02289817 0.51405441)
(0 -0.028179223 0.52114506)
(0 -0.035709345 0.53932623)
(0 -0.050478309 0.54155436)
(0 -0.024086824 0.33055637)
(0 0.019837965 0.27519749)
(0 0.057990237 0.5397464)
(0 0.047364227 0.56256479)
(0 0.036477974 0.53660463)
(0 0.029636447 0.52350719)
(0 0.024676422 0.5174034)
(0 0.0207745 0.51336316)
(0 0.017509986 0.51044472)
(0 0.01481438 0.50832443)
(0 0.012566753 0.50676208)
(0 0.01066558 0.50559309)
(0 0.0090388681 0.50470834)
(0 0.0076290018 0.50403289)
(0 0.0063901206 0.50351454)
(0 0.0052857662 0.50311655)
(0 0.0042864708 0.5028129)
(0 0.0033680071 0.50258504)
(0 0.0025100398 0.5024199)
(0 0.0016950465 0.50230845)
(0 0.00090744172 0.50224486)
(0 0.00013285003 0.5022259)
(0 -0.00064256023 0.50225069)
(0 -0.0014326922 0.50232058)
(0 -0.0022520987 0.5024393)
(0 -0.0031166734 0.50261329)
(0 -0.0040444019 0.50285234)
(0 -0.0050562575 0.50317059)
(0 -0.0061773044 0.50358804)
(0 -0.0074380906 0.50413286)
(0 -0.008876543 0.50484501)
(0 -0.010539926 0.50578147)
(0 -0.012486532 0.50702454)
(0 -0.014796574 0.50869739)
(0 -0.017571832 0.51098163)
(0 -0.020866286 0.51411964)
(0 -0.024976212 0.51872973)
(0 -0.030511033 0.5282295)
(0 -0.038632565 0.54872379)
(0 -0.04851071 0.53398307)
(0 -0.019067577 0.29393668)
(0 0.013083241 0.24255454)
(0 0.051799096 0.52520037)
(0 0.047709949 0.57024853)
(0 0.037757548 0.54552505)
(0 0.030850865 0.52928873)
(0 0.026073963 0.5218018)
(0 0.022238382 0.5169981)
(0 0.018954048 0.51347369)
(0 0.016193778 0.51086522)
(0 0.013849763 0.50891277)
(0 0.01183551 0.50743302)
(0 0.010088435 0.50630095)
(0 0.0085559173 0.50542881)
(0 0.0071952083 0.50475445)
(0 0.0059715105 0.50423351)
(0 0.0048560079 0.50383406)
(0 0.0038245149 0.50353312)
(0 0.002856362 0.50331433)
(0 0.0019334639 0.50316632)
(0 0.0010395395 0.5030817)
(0 0.00015944812 0.50305638)
(0 -0.00072143548 0.50308922)
(0 -0.0016178074 0.50318194)
(0 -0.0025449702 0.50333925)
(0 -0.003519487 0.50356931)
(0 -0.00455986 0.50388439)
(0 -0.0056873254 0.50430209)
(0 -0.0069267952 0.50484705)
(0 -0.0083079728 0.50555352)
(0 -0.0098669272 0.50646929)
(0 -0.011647852 0.50766151)
(0 -0.013702991 0.50922504)
(0 -0.016101852 0.51129784)
(0 -0.018939727 0.51407928)
(0 -0.022247983 0.51783817)
(0 -0.026267447 0.52346732)
(0 -0.03185117 0.53537484)
(0 -0.039762311 0.55589636)
(0 -0.04489619 0.52282141)
(0 -0.014091288 0.26264276)
(0 0.0077701784 0.21554065)
(0 0.044826133 0.50800968)
(0 0.046256119 0.57438086)
(0 0.038035966 0.55375145)
(0 0.031288505 0.53496068)
(0 0.026768929 0.52603049)
(0 0.023117234 0.52053868)
(0 0.019921253 0.51648855)
(0 0.017182435 0.513442)
(0 0.014813566 0.51113104)
(0 0.012746218 0.50935996)
(0 0.010928339 0.50799148)
(0 0.0093140297 0.50692797)
(0 0.0078653238 0.50609954)
(0 0.0065504799 0.50545558)
(0 0.0053425443 0.50495923)
(0 0.0042184093 0.50458373)
(0 0.0031579473 0.50430981)
(0 0.0021432589 0.50412403)
(0 0.0011580229 0.50401758)
(0 0.00018692795 0.50398559)
(0 -0.00078487785 0.50402668)
(0 -0.0017723147 0.50414289)
(0 -0.0027908337 0.50433987)
(0 -0.0038570027 0.50462727)
(0 -0.0049890821 0.5050196)
(0 -0.0062076872 0.50553748)
(0 -0.0075365536 0.50620949)
(0 -0.0090033618 0.50707497)
(0 -0.010640905 0.50818807)
(0 -0.012488762 0.50962406)
(0 -0.014592063 0.51148796)
(0 -0.017007007 0.51392867)
(0 -0.019815252 0.51715492)
(0 -0.023032758 0.52147976)
(0 -0.026882076 0.52818216)
(0 -0.032354012 0.54222005)
(0 -0.039406566 0.56050151)
(0 -0.040330589 0.50908121)
(0 -0.0097086607 0.23585424)
(0 0.0040050165 0.19355585)
(0 0.037899873 0.48948664)
(0 0.043687807 0.57524007)
(0 0.037564809 0.56084533)
(0 0.031155077 0.54036141)
(0 0.026914989 0.53001169)
(0 0.023514859 0.52390221)
(0 0.02048096 0.51941309)
(0 0.017827274 0.51598839)
(0 0.01548984 0.51335958)
(0 0.013418331 0.51132484)
(0 0.011571399 0.5097383)
(0 0.0099108835 0.50849531)
(0 0.0084045526 0.50752022)
(0 0.0070245796 0.50675764)
(0 0.0057466964 0.50616685)
(0 0.004549624 0.50571801)
(0 0.0034144468 0.50538948)
(0 0.0023240541 0.50516607)
(0 0.001262634 0.50503777)
(0 0.00021521605 0.50499901)
(0 -0.00083278338 0.50504822)
(0 -0.0018960123 0.50518774)
(0 -0.0029895547 0.50542398)
(0 -0.004129429 0.5057679)
(0 -0.0053330448 0.50623586)
(0 -0.0066197186 0.50685097)
(0 -0.0080112566 0.50764504)
(0 -0.0095325112 0.5086614)
(0 -0.011212078 0.50995915)
(0 -0.013083821 0.51161959)
(0 -0.015185254 0.51375539)
(0 -0.017559014 0.51652231)
(0 -0.020269246 0.52013139)
(0 -0.023323812 0.52496286)
(0 -0.026964739 0.53273956)
(0 -0.032206347 0.54839047)
(0 -0.037998395 0.56254274)
(0 -0.035417188 0.49378923)
(0 -0.0062010229 0.2132482)
(0 0.0015511596 0.17613286)
(0 0.031500002 0.47076105)
(0 0.040533204 0.57338565)
(0 0.036559957 0.56659877)
(0 0.030638281 0.54537881)
(0 0.026672534 0.53370496)
(0 0.023543882 0.52703275)
(0 0.020711084 0.52218901)
(0 0.018183478 0.51845194)
(0 0.015917597 0.51555185)
(0 0.013879016 0.51328658)
(0 0.012036302 0.5115055)
(0 0.010359158 0.51009958)
(0 0.0088213291 0.50898931)
(0 0.0073992879 0.50811597)
(0 0.0060719222 0.50743602)
(0 0.0048202604 0.5069173)
(0 0.0036270655 0.50653636)
(0 0.0024764628 0.50627659)
(0 0.001353577 0.50612705)
(0 0.00024419033 0.50608162)
(0 -0.00086560856 0.50613856)
(0 -0.0019897901 0.50630045)
(0 -0.0031426568 0.50657431)
(0 -0.0043392462 0.50697215)
(0 -0.0055956651 0.5075118)
(0 -0.0069294566 0.50821829)
(0 -0.0083600058 0.50912585)
(0 -0.0099088791 0.51028077)
(0 -0.011600082 0.51174561)
(0 -0.013461335 0.51360574)
(0 -0.015522703 0.51597862)
(0 -0.017814812 0.5190228)
(0 -0.0203846 0.52294927)
(0 -0.023239305 0.52823499)
(0 -0.026659419 0.53703996)
(0 -0.031569446 0.55365878)
(0 -0.03590875 0.56230672)
(0 -0.03055555 0.47788673)
(0 -0.0035913775 0.19460495)
(0 7.6777335e-05 0.16252423)
(0 0.025870806 0.45259953)
(0 0.037160545 0.56943312)
(0 0.035192357 0.57098922)
(0 0.029878301 0.54996338)
(0 0.0261746 0.53711433)
(0 0.023306681 0.52991293)
(0 0.020688136 0.52478489)
(0 0.018308439 0.52079897)
(0 0.016139216 0.51767494)
(0 0.014159171 0.51521425)
(0 0.012345452 0.51326472)
(0 0.010674982 0.51171513)
(0 0.009127148 0.51048376)
(0 0.0076826981 0.50950985)
(0 0.006323828 0.50874801)
(0 0.0050341035 0.50816451)
(0 0.00379824 0.50773458)
(0 0.002601894 0.50744063)
(0 0.0014314301 0.50727099)
(0 0.00027368798 0.50721912)
(0 -0.00088426592 0.50728317)
(0 -0.0020554176 0.50746589)
(0 -0.0032529816 0.50777479)
(0 -0.0044907092 0.50822262)
(0 -0.0057831063 0.5088283)
(0 -0.007145665 0.50961822)
(0 -0.0085951096 0.51062827)
(0 -0.010149579 0.51190668)
(0 -0.011828557 0.51351819)
(0 -0.013653831 0.51555045)
(0 -0.015648616 0.51812322)
(0 -0.017833545 0.52139468)
(0 -0.020240991 0.52557928)
(0 -0.02288454 0.531282)
(0 -0.026082239 0.54103083)
(0 -0.030573892 0.55793408)
(0 -0.033430924 0.56018863)
(0 -0.025997475 0.46206269)
(0 -0.001765432 0.17946475)
(0 -0.00071793075 0.15190656)
(0 0.021108462 0.43543391)
(0 0.033820183 0.56393141)
(0 0.033605063 0.5740895)
(0 0.028975817 0.55409444)
(0 0.025520754 0.54026405)
(0 0.022886896 0.53255327)
(0 0.020479075 0.52719275)
(0 0.018255173 0.52301341)
(0 0.016195786 0.51970929)
(0 0.014290188 0.51708706)
(0 0.012522618 0.51499531)
(0 0.010876183 0.51332216)
(0 0.0093352488 0.51198497)
(0 0.0078845345 0.51092194)
(0 0.0065094425 0.51008669)
(0 0.0051960997 0.50944454)
(0 0.0039312814 0.50896991)
(0 0.0027023329 0.50864454)
(0 0.0014970445 0.50845629)
(0 0.00030351451 0.50839832)
(0 -0.00089000479 0.50846872)
(0 -0.0020953056 0.50867033)
(0 -0.0033243136 0.509011)
(0 -0.004589307 0.509504)
(0 -0.0059030334 0.51016894)
(0 -0.0072788289 0.51103307)
(0 -0.0087307283 0.51213327)
(0 -0.010273544 0.51351884)
(0 -0.01192259 0.51525564)
(0 -0.013694315 0.51743231)
(0 -0.015605872 0.52016901)
(0 -0.017669728 0.52362164)
(0 -0.019907348 0.5280159)
(0 -0.022344921 0.53411003)
(0 -0.025324144 0.54468119)
(0 -0.029334845 0.56120694)
(0 -0.030796469 0.55658366)
(0 -0.021896547 0.44675537)
(0 -0.00056484966 0.1672404)
(0 -0.0010700568 0.14358253)
(0 0.017203833 0.41947833)
(0 0.030667723 0.5573398)
(0 0.031915997 0.5760208)
(0 0.028004908 0.55776436)
(0 0.024784543 0.54317998)
(0 0.022350988 0.53497646)
(0 0.020139549 0.52941848)
(0 0.018069457 0.52509126)
(0 0.016124339 0.52164547)
(0 0.014301576 0.5188925)
(0 0.012591013 0.51668323)
(0 0.010980792 0.5149061)
(0 0.0094594745 0.5134784)
(0 0.0080152841 0.51233809)
(0 0.0066365653 0.51143843)
(0 0.0053118822 0.51074431)
(0 0.0040300469 0.51022972)
(0 0.0027801363 0.50987607)
(0 0.00155145 0.50967091)
(0 0.00033345296 0.50960726)
(0 -0.00088429805 0.50968312)
(0 -0.0021122823 0.50990143)
(0 -0.0033610297 0.51027022)
(0 -0.0046412628 0.51080305)
(0 -0.0059639303 0.5115199)
(0 -0.0073402401 0.51244848)
(0 -0.0087816622 0.51362608)
(0 -0.010299937 0.51510241)
(0 -0.011906704 0.51694365)
(0 -0.013613838 0.51923854)
(0 -0.015433338 0.52210626)
(0 -0.017371189 0.52569974)
(0 -0.019441988 0.53026613)
(0 -0.021689412 0.5367308)
(0 -0.024458371 0.54797092)
(0 -0.027954008 0.56352122)
(0 -0.028175964 0.55185351)
(0 -0.01832694 0.43222945)
(0 0.00016880092 0.15738587)
(0 -0.001153162 0.13700072)
(0 0.01407943 0.40481314)
(0 0.02778322 0.5500326)
(0 0.030213211 0.57693055)
(0 0.027017991 0.5609796)
(0 0.024018961 0.54588611)
(0 0.021750841 0.5372095)
(0 0.019714754 0.53147521)
(0 0.017789634 0.52703577)
(0 0.015956985 0.52348092)
(0 0.014219812 0.52062419)
(0 0.012572138 0.51831964)
(0 0.011006022 0.51645669)
(0 0.0095134161 0.51495308)
(0 0.00808551 0.51374705)
(0 0.0067132341 0.51279196)
(0 0.0053873721 0.51205267)
(0 0.0040986584 0.51150306)
(0 0.0028378553 0.5111244)
(0 0.0015957735 0.51090415)
(0 0.00036327333 0.51083524)
(0 -0.00086874154 0.51091565)
(0 -0.0021093952 0.51114835)
(0 -0.0033677947 0.51154143)
(0 -0.0046531085 0.51210857)
(0 -0.0059745352 0.51286987)
(0 -0.0073412764 0.51385313)
(0 -0.0087624608 0.51509566)
(0 -0.010247108 0.51664709)
(0 -0.011803736 0.51857334)
(0 -0.013440479 0.5209626)
(0 -0.015165171 0.5239322)
(0 -0.016978972 0.52763265)
(0 -0.018893507 0.53234367)
(0 -0.020972586 0.53915845)
(0 -0.023542129 0.55089352)
(0 -0.02651386 0.56495945)
(0 -0.025680669 0.54631597)
(0 -0.015300303 0.41863291)
(0 0.00057365042 0.14943838)
(0 -0.001085576 0.13172137)
(0 0.011624609 0.39142964)
(0 0.025194515 0.54230349)
(0 0.028555522 0.57697305)
(0 0.026048471 0.56375983)
(0 0.023259379 0.54840529)
(0 0.021124983 0.53928084)
(0 0.019240144 0.53338036)
(0 0.017446936 0.5288549)
(0 0.015720786 0.52521774)
(0 0.014067901 0.52228018)
(0 0.0124852 0.51989977)
(0 0.010967658 0.51796723)
(0 0.009509841 0.51640111)
(0 0.0081053536 0.51514021)
(0 0.0067473154 0.51413827)
(0 0.0054284607 0.5133604)
(0 0.0041412714 0.51278061)
(0 0.0028780879 0.51238021)
(0 0.0016311702 0.51214669)
(0 0.00039274177 0.51207296)
(0 -0.00084496671 0.512157)
(0 -0.0020897439 0.51240177)
(0 -0.0033493095 0.51281534)
(0 -0.0046313432 0.51341136)
(0 -0.0059434072 0.51420986)
(0 -0.0072928797 0.51523845)
(0 -0.0086868308 0.51653421)
(0 -0.01013196 0.51814631)
(0 -0.011634239 0.52014007)
(0 -0.013198876 0.52260273)
(0 -0.01483053 0.52564925)
(0 -0.016527126 0.52942954)
(0 -0.01830063 0.53426667)
(0 -0.02023509 0.54140959)
(0 -0.022616983 0.55345664)
(0 -0.025075475 0.5656261)
(0 -0.023373281 0.5402369)
(0 -0.01278702 0.40602758)
(0 0.00075880902 0.14300363)
(0 -0.00094373881 0.12739887)
(0 0.0097205966 0.37926177)
(0 0.022898161 0.53437287)
(0 0.026978131 0.57629333)
(0 0.025115098 0.56613228)
(0 0.022527041 0.55075824)
(0 0.02050009 0.54121819)
(0 0.018742178 0.53515353)
(0 0.017065859 0.53055967)
(0 0.015437812 0.52686126)
(0 0.013865213 0.52386178)
(0 0.012346831 0.52142192)
(0 0.01087971 0.51943392)
(0 0.0094603348 0.51781717)
(0 0.0080841981 0.51651121)
(0 0.0067462118 0.51547035)
(0 0.0054407713 0.51466008)
(0 0.0041618982 0.5140547)
(0 0.0029033631 0.51363569)
(0 0.0016587705 0.51339064)
(0 0.00042162914 0.51331252)
(0 -0.00081456995 0.5133993)
(0 -0.0020563463 0.51365391)
(0 -0.0033101141 0.51408434)
(0 -0.0045821752 0.51470409)
(0 -0.0058786104 0.51553297)
(0 -0.0072051942 0.51659829)
(0 -0.0085672461 0.51793663)
(0 -0.0099695606 0.51959655)
(0 -0.011416112 0.52164257)
(0 -0.012909925 0.52416074)
(0 -0.014453377 0.52726362)
(0 -0.016042625 0.53110331)
(0 -0.017692497 0.53605557)
(0 -0.019505117 0.54350179)
(0 -0.021710992 0.55567767)
(0 -0.023680879 0.56563119)
(0 -0.021281873 0.53382775)
(0 -0.010734587 0.39441296)
(0 0.0008045935 0.13774824)
(0 -0.00077513975 0.12377213)
(0 0.008254741 0.36821257)
(0 0.020873892 0.5264002)
(0 0.025498942 0.57501923)
(0 0.024226677 0.56812655)
(0 0.021833108 0.55296192)
(0 0.019893326 0.54304622)
(0 0.018239636 0.53681451)
(0 0.016664871 0.53216257)
(0 0.015125444 0.52841877)
(0 0.013627555 0.52537246)
(0 0.012171013 0.52288667)
(0 0.010754257 0.52085511)
(0 0.0093751023 0.51919802)
(0 0.0080304628 0.51785566)
(0 0.0067166707 0.51678296)
(0 0.0054294963 0.51594591)
(0 0.0041642812 0.51531915)
(0 0.0029160572 0.51488443)
(0 0.0016796414 0.51462948)
(0 0.00044971852 0.51454737)
(0 -0.0007790582 0.51463606)
(0 -0.0020120386 0.51489842)
(0 -0.0032544444 0.51534234)
(0 -0.0045113384 0.5159811)
(0 -0.0057874992 0.5168342)
(0 -0.0070873308 0.51792851)
(0 -0.0084147094 0.51930006)
(0 -0.00977292 0.52099668)
(0 -0.011164438 0.52308207)
(0 -0.01259073 0.52564101)
(0 -0.01405266 0.52878393)
(0 -0.01554591 0.53266867)
(0 -0.017089895 0.53773065)
(0 -0.018800921 0.54545152)
(0 -0.020841722 0.55757904)
(0 -0.022356646 0.56507961)
(0 -0.019411563 0.5272505)
(0 -0.009080239 0.38374854)
(0 0.0007675093 0.13339979)
(0 -0.00060776494 0.12065091)
(0 0.007127852 0.35817316)
(0 0.019093695 0.51849759)
(0 0.024123831 0.57325972)
(0 0.023385682 0.56977198)
(0 0.021182054 0.55502927)
(0 0.019314794 0.54478538)
(0 0.017745235 0.53838162)
(0 0.016257413 0.5336762)
(0 0.014796951 0.52989839)
(0 0.013367461 0.52681697)
(0 0.011969186 0.52429609)
(0 0.01060144 0.52223079)
(0 0.0092628991 0.52054202)
(0 0.0079515033 0.5191707)
(0 0.006664677 0.51807236)
(0 0.0053992983 0.51721349)
(0 0.0041518135 0.51656913)
(0 0.0029183399 0.51612131)
(0 0.0016947611 0.51585794)
(0 0.00047681189 0.51577218)
(0 -0.00073981112 0.51586203)
(0 -0.0019594073 0.51613028)
(0 -0.003186137 0.51658466)
(0 -0.0044239772 0.5172382)
(0 -0.0056765909 0.51811005)
(0 -0.0069472416 0.51922662)
(0 -0.0082386509 0.52062333)
(0 -0.0095529498 0.52234732)
(0 -0.010891541 0.52446146)
(0 -0.01225485 0.52704934)
(0 -0.013642843 0.53021989)
(0 -0.015051848 0.53414052)
(0 -0.016506848 0.53931041)
(0 -0.018133303 0.54727314)
(0 -0.020018908 0.55918515)
(0 -0.021117256 0.56406608)
(0 -0.017753119 0.52062578)
(0 -0.007759267 0.37397138)
(0 0.0006859674 0.12974295)
(0 -0.00045653502 0.11789994)
(0 0.0062573468 0.34903403)
(0 0.017527439 0.51074154)
(0 0.022850918 0.57110613)
(0 0.022590762 0.57109656)
(0 0.020574064 0.55696969)
(0 0.01876955 0.54645181)
(0 0.017267102 0.53987102)
(0 0.015852935 0.53511246)
(0 0.014462179 0.53130828)
(0 0.013094623 0.52820063)
(0 0.011750489 0.52565317)
(0 0.010429577 0.52356204)
(0 0.0091310645 0.52184872)
(0 0.0078535981 0.5204547)
(0 0.0065954153 0.51933602)
(0 0.0053542652 0.51845963)
(0 0.0041274975 0.51780096)
(0 0.0029121441 0.51734234)
(0 0.0017050065 0.51707186)
(0 0.00050273525 0.51698279)
(0 -0.00069805716 0.51707313)
(0 -0.0019007486 0.51734561)
(0 -0.0031085764 0.51780779)
(0 -0.0043245879 0.51847244)
(0 -0.005551513 0.51935834)
(0 -0.0067916906 0.52049142)
(0 -0.0080469455 0.52190657)
(0 -0.0093185613 0.52365025)
(0 -0.01060722 0.52578463)
(0 -0.011912711 0.52839225)
(0 -0.013234596 0.53158138)
(0 -0.014570751 0.53553291)
(0 -0.015952089 0.54081089)
(0 -0.017507601 0.54897876)
(0 -0.019246571 0.5605207)
(0 -0.019968172 0.56267333)
(0 -0.016289276 0.51404111)
(0 -0.0067104609 0.36500798)
(0 0.00058514563 0.12661116)
(0 -0.0003279154 0.11542498)
(0 0.0055774884 0.34069128)
(0 0.016146187 0.5031821)
(0 0.02167393 0.56863415)
(0 0.021838545 0.57212636)
(0 0.020006748 0.55878982)
(0 0.018259172 0.54805771)
(0 0.016809984 0.54129646)
(0 0.015457798 0.53648214)
(0 0.014128221 0.53265621)
(0 0.012816358 0.52952885)
(0 0.011522068 0.52696135)
(0 0.01024535 0.52485062)
(0 0.0089856243 0.52311854)
(0 0.0077419954 0.52170697)
(0 0.0065132834 0.52057237)
(0 0.0052979052 0.51968211)
(0 0.0040939341 0.51901197)
(0 0.0028991567 0.51854453)
(0 0.0017111483 0.51826808)
(0 0.00052734227 0.51817599)
(0 -0.00065486194 0.51826625)
(0 -0.0018380508 0.51854154)
(0 -0.0030246765 0.51900923)
(0 -0.0042170072 0.51968186)
(0 -0.0054170103 0.52057784)
(0 -0.006626294 0.52172269)
(0 -0.0078460096 0.52315076)
(0 -0.0090768471 0.524908)
(0 -0.010319047 0.52705596)
(0 -0.011572074 0.52967639)
(0 -0.012835456 0.53287793)
(0 -0.014109307 0.53685858)
(0 -0.015430317 0.54224545)
(0 -0.016925294 0.5505783)
(0 -0.018524823 0.56160941)
(0 -0.018908687 0.56097184)
(0 -0.014999206 0.50755792)
(0 -0.0058792214 0.35678169)
(0 0.00048078739 0.12387773)
(0 -0.0002232381 0.11316158)
(0 0.0050377942 0.33304993)
(0 0.014923843 0.49585015)
(0 0.020584622 0.56590622)
(0 0.021124893 0.57288529)
(0 0.01947638 0.56049412)
(0 0.017782987 0.54961189)
(0 0.016376218 0.54266932)
(0 0.015076032 0.53779472)
(0 0.013800003 0.5339493)
(0 0.012538043 0.53080683)
(0 0.011289382 0.5282242)
(0 0.010054018 0.52609871)
(0 0.0088314311 0.52435245)
(0 0.0076209988 0.5229275)
(0 0.0064219411 0.52178063)
(0 0.0052331727 0.52087955)
(0 0.004053334 0.52020031)
(0 0.0028808225 0.51972574)
(0 0.0017138536 0.5194443)
(0 0.00055051655 0.51934943)
(0 -0.00061112624 0.51943915)
(0 -0.0017729951 0.51971604)
(0 -0.002936888 0.52018734)
(0 -0.0041044337 0.52086534)
(0 -0.0052769908 0.52176814)
(0 -0.0064556057 0.52292088)
(0 -0.0076409428 0.52435748)
(0 -0.0088333017 0.52612348)
(0 -0.010032693 0.52827999)
(0 -0.011238486 0.53090819)
(0 -0.012450455 0.53411829)
(0 -0.013671418 0.53812865)
(0 -0.014943296 0.54362485)
(0 -0.016385294 0.55207966)
(0 -0.017851334 0.56247331)
(0 -0.017934289 0.55902061)
(0 -0.013861409 0.50121773)
(0 -0.0052188793 0.34921737)
(0 0.00038209833 0.12144783)
(0 -0.00014097446 0.11106637)
(0 0.0046006087 0.32602534)
(0 0.013837729 0.48876298)
(0 0.019574325 0.56297386)
(0 0.020445682 0.57339513)
(0 0.018978749 0.56208547)
(0 0.017339009 0.5511203)
(0 0.015966509 0.54399876)
(0 0.014709964 0.53905839)
(0 0.013480792 0.53519392)
(0 0.012263515 0.53203943)
(0 0.011056511 0.52944527)
(0 0.0098596355 0.52730868)
(0 0.008672318 0.5255518)
(0 0.0074940735 0.52411678)
(0 0.0063243796 0.5229606)
(0 0.0051625114 0.52205117)
(0 0.0040075441 0.52136481)
(0 0.0028583596 0.52088452)
(0 0.0017136931 0.52059891)
(0 0.00057217235 0.52050149)
(0 -0.00056759144 0.52059028)
(0 -0.001706969 0.52086781)
(0 -0.0028472246 0.52134115)
(0 -0.0039894734 0.5220224)
(0 -0.0051345987 0.5229294)
(0 -0.0062832286 0.52408695)
(0 -0.0074356916 0.52552867)
(0 -0.0085920541 0.52729978)
(0 -0.0097522497 0.52946113)
(0 -0.010915717 0.53209362)
(0 -0.012082677 0.53531033)
(0 -0.013258926 0.53935256)
(0 -0.014490774 0.54495739)
(0 -0.015884958 0.55348893)
(0 -0.017222433 0.56313239)
(0 -0.017038399 0.55686853)
(0 -0.012855444 0.49504725)
(0 -0.0046908896 0.34224432)
(0 0.00029390802 0.11925167)
(0 -7.821499e-05 0.1091103)
(0 0.0042385162 0.31954341)
(0 0.012868562 0.48192846)
(0 0.018634822 0.55987975)
(0 0.019797208 0.57367581)
(0 0.01850969 0.56356574)
(0 0.016924592 0.55258664)
(0 0.015580515 0.54529195)
(0 0.014360726 0.54028006)
(0 0.013172628 0.53639564)
(0 0.01199541 0.53323104)
(0 0.010826417 0.53062791)
(0 0.0096652606 0.52848293)
(0 0.0085112548 0.52671815)
(0 0.0073639588 0.52527566)
(0 0.0062230016 0.52411249)
(0 0.0050879095 0.52319673)
(0 0.0039580826 0.52250485)
(0 0.0028327798 0.52202)
(0 0.0017111495 0.52173091)
(0 0.00059225505 0.52163114)
(0 -0.00052484924 0.52171871)
(0 -0.0016410895 0.52199608)
(0 -0.0027573015 0.52247023)
(0 -0.0038741976 0.52315305)
(0 -0.0049923007 0.52406218)
(0 -0.0061119372 0.52522217)
(0 -0.0072332194 0.52666641)
(0 -0.0083560978 0.52843996)
(0 -0.009480533 0.53060354)
(0 -0.010606145 0.53323809)
(0 -0.011733751 0.53646087)
(0 -0.012872221 0.54053807)
(0 -0.014071207 0.54624922)
(0 -0.015420825 0.55481071)
(0 -0.016633879 0.56360455)
(0 -0.016213587 0.55455591)
(0 -0.011962824 0.48906237)
(0 -0.0042643172 0.33579782)
(0 0.00021819977 0.11723861)
(0 -3.1593257e-05 0.10727375)
(0 0.0039319494 0.31353996)
(0 0.012000154 0.47534807)
(0 0.017758771 0.55665949)
(0 0.019176353 0.57374566)
(0 0.018065377 0.56493621)
(0 0.016536864 0.5540129)
(0 0.015217262 0.54655439)
(0 0.014028631 0.5414655)
(0 0.012876656 0.53755929)
(0 0.011735461 0.53438557)
(0 0.010601191 0.53177522)
(0 0.0094731453 0.52962382)
(0 0.0083504954 0.52785317)
(0 0.0072327807 0.52640518)
(0 0.0061197036 0.52523686)
(0 0.0050109579 0.52431636)
(0 0.0039061795 0.52362024)
(0 0.0028049133 0.52313179)
(0 0.0017066301 0.52283978)
(0 0.00061073802 0.52273783)
(0 -0.00048335735 0.52282396)
(0 -0.0015762298 0.52310058)
(0 -0.0026683792 0.52357455)
(0 -0.0037602094 0.52425765)
(0 -0.0048519778 0.52516733)
(0 -0.0059438033 0.52632798)
(0 -0.0070356734 0.52777286)
(0 -0.0081275066 0.52954696)
(0 -0.0092193569 0.53171101)
(0 -0.010311101 0.53434637)
(0 -0.011404257 0.53757577)
(0 -0.012510718 0.54169143)
(0 -0.013682299 0.54750467)
(0 -0.014989121 0.55604841)
(0 -0.016081368 0.56390579)
(0 -0.015452375 0.55211593)
(0 -0.011167362 0.48327124)
(0 -0.003914927 0.32981976)
(0 0.00015517845 0.11537233)
(0 2.1728326e-06 0.10554312)
(0 0.0036671482 0.30795981)
(0 0.011218986 0.46901902)
(0 0.016939833 0.55334293)
(0 0.018580599 0.57362168)
(0 0.017642463 0.56619798)
(0 0.016172989 0.55539983)
(0 0.014875435 0.54779016)
(0 0.013713464 0.54261948)
(0 0.012593399 0.53868899)
(0 0.011484723 0.53550645)
(0 0.010382245 0.53289003)
(0 0.0092849016 0.53073358)
(0 0.0081917115 0.52895854)
(0 0.0071021558 0.52750654)
(0 0.0060159561 0.52633447)
(0 0.0049329092 0.52541046)
(0 0.003852816 0.52471113)
(0 0.0027754331 0.52421981)
(0 0.0017004766 0.52392536)
(0 0.00062762133 0.52382139)
(0 -0.00044345406 0.52390594)
(0 -0.0015130505 0.52418135)
(0 -0.0025814113 0.52465443)
(0 -0.0036487105 0.52533683)
(0 -0.0047150168 0.52624589)
(0 -0.0057803158 0.52740591)
(0 -0.0068445374 0.52885009)
(0 -0.0079076265 0.53062348)
(0 -0.0089697677 0.53278694)
(0 -0.01003114 0.5354226)
(0 -0.011094039 0.5386599)
(0 -0.012173216 0.54281753)
(0 -0.013321388 0.54872664)
(0 -0.014586096 0.55720461)
(0 -0.015560852 0.56405046)
(0 -0.014747723 0.54957599)
(0 -0.010455189 0.47767662)
(0 -0.0036241135 0.32425871)
(0 0.00010401381 0.11362693)
(0 2.6002762e-05 0.10390845)
(0 0.0034345202 0.30275565)
(0 0.010513774 0.46293571)
(0 0.01617264 0.5499553)
(0 0.018007969 0.57331973)
(0 0.017238119 0.56735219)
(0 0.01583032 0.5567473)
(0 0.014553568 0.54900222)
(0 0.013414676 0.54374591)
(0 0.012322946 0.53978828)
(0 0.011243764 0.5365967)
(0 0.010170483 0.53397487)
(0 0.0091016411 0.53181429)
(0 0.0080361091 0.53003591)
(0 0.0069732864 0.52858099)
(0 0.0059128769 0.52740622)
(0 0.0048547327 0.52647964)
(0 0.0037987642 0.5257779)
(0 0.0027448792 0.52528432)
(0 0.0016929755 0.5249878)
(0 0.00064292906 0.52488197)
(0 -0.00040537459 0.52496484)
(0 -0.0014520304 0.52523872)
(0 -0.0024970915 0.52571037)
(0 -0.0035405661 0.52639138)
(0 -0.0045823963 0.52729901)
(0 -0.0056224903 0.52845751)
(0 -0.006660769 0.52990012)
(0 -0.0076972408 0.53167202)
(0 -0.0087322387 0.53383432)
(0 -0.0097662696 0.53647034)
(0 -0.010802463 0.53971735)
(0 -0.011858164 0.54392013)
(0 -0.012985715 0.54991687)
(0 -0.014208232 0.55828129)
(0 -0.015068704 0.56405143)
(0 -0.014093286 0.54695877)
(0 -0.0098145861 0.47227751)
(0 -0.0033778334 0.31906951)
(0 6.334691e-05 0.11198395)
(0 4.2345574e-05 0.10236202)
(0 0.0032273855 0.29788693)
(0 0.0098750624 0.45709082)
(0 0.015452667 0.54651797)
(0 0.017456933 0.57285469)
(0 0.016850015 0.5684002)
(0 0.015506469 0.55805465)
(0 0.014250159 0.55019265)
(0 0.01313153 0.54484799)
(0 0.012065103 0.54086018)
(0 0.011012797 0.53765893)
(0 0.0099664237 0.53503202)