/*--------------------------------*- C++ -*----------------------------------*\
  =========                 |
  \\      /  F ield         | OpenFOAM: The Open Source CFD Toolbox
   \\    /   O peration     | Website:  https://openfoam.org
    \\  /    A nd           | Version:  10
     \\/     M anipulation  |
\*---------------------------------------------------------------------------*/
FoamFile
{
    format      ascii;
    class       volVectorField;
    location    "0.27";
    object      U_0;
}
// * * * * * * * * * * * * * * * * * * * * * * * * * * * * * * * * * * * * * //

dimensions      [0 1 -1 0 0 0 0];

internalField   nonuniform List<vector> 
4000
(
(0 0.018637468 0.47773156)
(0 0.023510014 0.50886061)
(0 0.0081668608 0.50052521)
(0 0.0056146206 0.50033634)
(0 0.0042546344 0.50025746)
(0 0.0032549493 0.50016898)
(0 0.0025560937 0.50011969)
(0 0.0020545832 0.50009013)
(0 0.0016765786 0.50006981)
(0 0.0013822367 0.50005539)
(0 0.001147185 0.50004499)
(0 0.00095508484 0.50003733)
(0 0.00079468207 0.5000316)
(0 0.00065800104 0.50002727)
(0 0.00053921352 0.50002399)
(0 0.00043393885 0.50002151)
(0 0.0003387898 0.50001967)
(0 0.0002510645 0.50001834)
(0 0.00016853035 0.50001744)
(0 8.9265506e-05 0.50001694)
(0 1.1536663e-05 0.50001679)
(0 -6.6308131e-05 0.50001699)
(0 -0.00014593097 0.50001755)
(0 -0.00022909634 0.5000185)
(0 -0.00031778165 0.50001991)
(0 -0.00041430794 0.50002185)
(0 -0.00052151159 0.50002446)
(0 -0.00064298371 0.50002793)
(0 -0.00078341788 0.50003252)
(0 -0.00094914009 0.50003863)
(0 -0.0011489598 0.50004688)
(0 -0.0013955352 0.50005824)
(0 -0.0017076124 0.50007414)
(0 -0.0021155403 0.50009709)
(0 -0.0026752325 0.50013481)
(0 -0.0034687982 0.50020237)
(0 -0.0045610137 0.50027143)
(0 -0.0065851965 0.50043364)
(0 -0.017659636 0.50675408)
(0 -0.013590219 0.47975559)
(0 0.037432711 0.44796925)
(0 0.050955786 0.53232616)
(0 0.021969349 0.5080429)
(0 0.01613567 0.50357318)
(0 0.012416109 0.50242316)
(0 0.0095159779 0.501623)
(0 0.0075206395 0.50115662)
(0 0.0060699044 0.50086594)
(0 0.004964575 0.50066802)
(0 0.0041001188 0.50052903)
(0 0.0034075858 0.50042906)
(0 0.0028400285 0.50035556)
(0 0.0023650736 0.50030067)
(0 0.0019596375 0.50025927)
(0 0.0016067602 0.50022792)
(0 0.0012936468 0.50020426)
(0 0.0010103729 0.50018666)
(0 0.00074900082 0.50017399)
(0 0.00050295695 0.50016548)
(0 0.00026657219 0.50016064)
(0 3.4726439e-05 0.50015921)
(0 -0.00019745919 0.50016112)
(0 -0.00043489342 0.50016646)
(0 -0.0006827862 0.50017557)
(0 -0.00094696734 0.50018898)
(0 -0.0012342656 0.50020753)
(0 -0.0015530046 0.50023247)
(0 -0.0019136901 0.50026558)
(0 -0.0023300025 0.50030949)
(0 -0.0028202813 0.5003681)
(0 -0.0034099009 0.50044735)
(0 -0.0041352368 0.5005567)
(0 -0.005049367 0.50071125)
(0 -0.0062321562 0.50093659)
(0 -0.0078324874 0.50129436)
(0 -0.010126147 0.50191049)
(0 -0.013107237 0.50282506)
(0 -0.017426624 0.50608115)
(0 -0.038759381 0.52526814)
(0 -0.027894841 0.45021626)
(0 0.039888314 0.4098205)
(0 0.061428218 0.54930815)
(0 0.031983845 0.52188197)
(0 0.024355591 0.51008056)
(0 0.019193724 0.50658858)
(0 0.014977256 0.5045281)
(0 0.012006819 0.50327143)
(0 0.0097720055 0.50245843)
(0 0.0080365753 0.50190112)
(0 0.0066648826 0.50150875)
(0 0.005556707 0.50122554)
(0 0.0046425146 0.50101679)
(0 0.003873568 0.50086065)
(0 0.0032144717 0.50074274)
(0 0.0026388922 0.50065336)
(0 0.0021267767 0.50058584)
(0 0.001662449 0.50053558)
(0 0.0012332898 0.50049937)
(0 0.00082879281 0.50047505)
(0 0.00043985965 0.50046123)
(0 5.8249688e-05 0.50045714)
(0 -0.00032389773 0.50046257)
(0 -0.00071449055 0.50047785)
(0 -0.0011219074 0.50050387)
(0 -0.0015554925 0.50054216)
(0 -0.0020261399 0.50059512)
(0 -0.0025470472 0.50066624)
(0 -0.0031347465 0.50076059)
(0 -0.0038105671 0.50088558)
(0 -0.0046027478 0.50105212)
(0 -0.0055496426 0.50127675)
(0 -0.0067052309 0.50158559)
(0 -0.0081467127 0.50202077)
(0 -0.0099781754 0.50265068)
(0 -0.012372434 0.50361502)
(0 -0.015717445 0.50519909)
(0 -0.0198738 0.5078538)
(0 -0.025187463 0.51641217)
(0 -0.04741794 0.53912719)
(0 -0.030854027 0.41487952)
(0 0.034791631 0.36172995)
(0 0.063839046 0.55456331)
(0 0.039380565 0.53747138)
(0 0.030083532 0.51849263)
(0 0.02411275 0.51197733)
(0 0.019279729 0.5084995)
(0 0.015736285 0.50626432)
(0 0.012954262 0.50475553)
(0 0.010743695 0.50370452)
(0 0.008967894 0.50295624)
(0 0.0075138286 0.5024112)
(0 0.0063018343 0.50200693)
(0 0.0052741069 0.50170315)
(0 0.0043873902 0.50147293)
(0 0.0036088682 0.50129792)
(0 0.0029131583 0.50116545)
(0 0.0022801553 0.50106665)
(0 0.0016934996 0.50099539)
(0 0.0011394519 0.50094747)
(0 0.00060603345 0.50092021)
(0 8.2344714e-05 0.50091213)
(0 -0.00044203392 0.50092282)
(0 -0.00097758246 0.50095292)
(0 -0.0015353699 0.50100413)
(0 -0.0021276741 0.50107944)
(0 -0.0027686998 0.50118343)
(0 -0.0034754847 0.50132282)
(0 -0.004269105 0.50150728)
(0 -0.0051763394 0.50175083)
(0 -0.0062319656 0.50207392)
(0 -0.0074818507 0.50250704)
(0 -0.008988225 0.50309718)
(0 -0.010838457 0.50391906)
(0 -0.013139106 0.50508906)
(0 -0.016025827 0.50680665)
(0 -0.019901188 0.50946723)
(0 -0.024733058 0.51427458)
(0 -0.031114953 0.52824683)
(0 -0.050320939 0.54407148)
(0 -0.028438834 0.37237951)
(0 0.027424313 0.31484306)
(0 0.062315049 0.55024057)
(0 0.044614793 0.55146767)
(0 0.033982252 0.52748817)
(0 0.027464264 0.51772248)
(0 0.022455343 0.5129199)
(0 0.018636932 0.50973153)
(0 0.015528225 0.50749275)
(0 0.013006242 0.50590007)
(0 0.010942156 0.50474706)
(0 0.0092245875 0.50389631)
(0 0.0077746836 0.50325936)
(0 0.0065324588 0.50277731)
(0 0.0054514885 0.50240993)
(0 0.0044957251 0.50212943)
(0 0.0036367035 0.50191636)
(0 0.0028514807 0.50175704)
(0 0.0021211181 0.50164187)
(0 0.0014295226 0.50156431)
(0 0.00076253505 0.50152013)
(0 0.000107192 0.50150701)
(0 -0.00054893608 0.50152429)
(0 -0.0012183472 0.50157297)
(0 -0.0019141864 0.50165574)
(0 -0.0026509308 0.50177728)
(0 -0.0034451588 0.50194475)
(0 -0.0043164961 0.50216854)
(0 -0.0052888266 0.50246354)
(0 -0.0063919001 0.502851)
(0 -0.0076634908 0.50336158)
(0 -0.0091518613 0.5040399)
(0 -0.010919447 0.50495252)
(0 -0.013053083 0.50620223)
(0 -0.015656564 0.50794394)
(0 -0.018817743 0.51040399)
(0 -0.022898123 0.51405442)
(0 -0.028179179 0.52114507)
(0 -0.0357093 0.53932623)
(0 -0.050478274 0.54155438)
(0 -0.024086812 0.33055643)
(0 0.019837964 0.27519749)
(0 0.057990235 0.5397464)
(0 0.047364225 0.56256479)
(0 0.036477973 0.53660463)
(0 0.029636447 0.52350719)
(0 0.024676423 0.51740339)
(0 0.020774504 0.51336315)
(0 0.017509992 0.51044471)
(0 0.014814388 0.50832443)
(0 0.012566764 0.50676207)
(0 0.010665594 0.50559308)
(0 0.009038885 0.50470833)
(0 0.007629022 0.50403288)
(0 0.0063901443 0.50351453)
(0 0.0052857935 0.50311654)
(0 0.0042865018 0.50281289)
(0 0.0033680418 0.50258503)
(0 0.0025100783 0.50241989)
(0 0.0016950887 0.50230844)
(0 0.00090748759 0.50224485)
(0 0.00013289944 0.5022259)
(0 -0.00064250744 0.50225069)
(0 -0.0014326362 0.50232058)
(0 -0.0022520397 0.50243929)
(0 -0.0031166119 0.50261328)
(0 -0.004044338 0.50285234)
(0 -0.0050561916 0.50317059)
(0 -0.006177237 0.50358803)
(0 -0.007438022 0.50413286)
(0 -0.0088764738 0.504845)
(0 -0.010539857 0.50578147)
(0 -0.012486463 0.50702454)
(0 -0.014796506 0.50869739)
(0 -0.017571766 0.51098164)
(0 -0.020866222 0.51411965)
(0 -0.024976152 0.51872974)
(0 -0.030510975 0.52822951)
(0 -0.038632505 0.5487238)
(0 -0.048510667 0.53398312)
(0 -0.019067564 0.29393676)
(0 0.01308324 0.24255454)
(0 0.051799092 0.52520037)
(0 0.047709945 0.57024853)
(0 0.037757546 0.54552504)
(0 0.030850864 0.52928872)
(0 0.026073964 0.52180179)
(0 0.022238385 0.51699809)
(0 0.018954054 0.51347368)
(0 0.016193786 0.51086521)
(0 0.013849775 0.50891276)
(0 0.011835526 0.50743301)
(0 0.010088455 0.50630094)
(0 0.0085559411 0.50542879)
(0 0.0071952363 0.50475444)
(0 0.005971543 0.5042335)
(0 0.004856045 0.50383405)
(0 0.0038245565 0.50353311)
(0 0.0028564082 0.50331431)
(0 0.0019335147 0.5031663)
(0 0.0010395949 0.50308169)
(0 0.00015950789 0.50305637)
(0 -0.00072137151 0.50308921)
(0 -0.0016177395 0.50318192)
(0 -0.0025448986 0.50333924)
(0 -0.003519412 0.5035693)
(0 -0.0045597821 0.50388438)
(0 -0.005687245 0.50430208)
(0 -0.0069267128 0.50484704)
(0 -0.0083078889 0.50555352)
(0 -0.0098668424 0.50646929)
(0 -0.011647767 0.50766151)
(0 -0.013702907 0.50922505)
(0 -0.016101769 0.51129785)
(0 -0.018939645 0.51407929)
(0 -0.022247904 0.51783818)
(0 -0.026267371 0.52346733)
(0 -0.031851096 0.53537485)
(0 -0.039762236 0.55589637)
(0 -0.044896138 0.52282148)
(0 -0.014091275 0.26264287)
(0 0.007770177 0.21554066)
(0 0.044826129 0.50800969)
(0 0.046256113 0.57438086)
(0 0.038035961 0.55375144)
(0 0.031288502 0.53496068)
(0 0.026768929 0.52603048)
(0 0.023117236 0.52053867)
(0 0.019921258 0.51648853)
(0 0.017182444 0.51344198)
(0 0.014813579 0.51113103)
(0 0.012746235 0.50935994)
(0 0.010928361 0.50799146)
(0 0.0093140567 0.50692796)
(0 0.007865356 0.50609953)
(0 0.0065505175 0.50545556)
(0 0.0053425874 0.50495921)
(0 0.004218458 0.50458371)
(0 0.0031580016 0.50430979)
(0 0.0021433187 0.50412401)
(0 0.0011580883 0.50401757)
(0 0.00018699862 0.50398557)
(0 -0.00078480207 0.50402666)
(0 -0.001772234 0.50414288)
(0 -0.0027907485 0.50433986)
(0 -0.0038569135 0.50462726)
(0 -0.0049889892 0.50501959)
(0 -0.0062075912 0.50553747)
(0 -0.007536455 0.50620948)
(0 -0.0090032614 0.50707496)
(0 -0.010640804 0.50818807)
(0 -0.01248866 0.50962406)
(0 -0.014591961 0.51148797)
(0 -0.017006906 0.51392868)
(0 -0.019815153 0.51715493)
(0 -0.023032662 0.52147978)
(0 -0.026881984 0.52818218)
(0 -0.03235392 0.54222006)
(0 -0.039406475 0.56050153)
(0 -0.040330531 0.50908132)
(0 -0.0097086466 0.23585438)
(0 0.0040050148 0.19355586)
(0 0.037899867 0.48948665)
(0 0.043687798 0.57524006)
(0 0.037564801 0.56084532)
(0 0.031155072 0.5403614)
(0 0.026914987 0.53001168)
(0 0.02351486 0.52390219)
(0 0.020480965 0.51941307)
(0 0.017827283 0.51598837)
(0 0.015489853 0.51335956)
(0 0.01341835 0.51132482)
(0 0.011571423 0.50973828)
(0 0.0099109137 0.50849529)
(0 0.0084045889 0.50752019)
(0 0.0070246224 0.50675761)
(0 0.0057467457 0.50616683)
(0 0.0045496798 0.50571798)
(0 0.0034145094 0.50538946)
(0 0.0023241234 0.50516604)
(0 0.0012627098 0.50503774)
(0 0.00021529821 0.50499898)
(0 -0.00083269509 0.5050482)
(0 -0.0018959182 0.50518772)
(0 -0.0029894552 0.50542397)
(0 -0.0041293245 0.50576789)
(0 -0.0053329359 0.50623585)
(0 -0.0066196058 0.50685096)
(0 -0.0080111407 0.50764503)
(0 -0.0095323929 0.5086614)
(0 -0.011211958 0.50995914)
(0 -0.0130837 0.51161959)
(0 -0.015185134 0.51375539)
(0 -0.017558895 0.51652232)
(0 -0.020269129 0.5201314)
(0 -0.023323698 0.52496288)
(0 -0.026964628 0.53273957)
(0 -0.032206236 0.54839048)
(0 -0.037998287 0.56254278)
(0 -0.035417123 0.49378938)
(0 -0.0062010082 0.21324839)
(0 0.0015511578 0.17613287)
(0 0.031499995 0.47076106)
(0 0.040533191 0.57338565)
(0 0.036559945 0.56659876)
(0 0.030638273 0.5453788)
(0 0.026672529 0.53370495)
(0 0.023543881 0.52703273)
(0 0.020711088 0.52218899)
(0 0.018183486 0.51845192)
(0 0.015917611 0.51555182)
(0 0.013879036 0.51328656)
(0 0.012036328 0.51150547)
(0 0.010359191 0.51009955)
(0 0.0088213694 0.50898928)
(0 0.0073993357 0.50811594)
(0 0.0060719776 0.50743599)
(0 0.0048203236 0.50691727)
(0 0.0036271366 0.50653632)
(0 0.0024765418 0.50627656)
(0 0.0013536637 0.50612702)
(0 0.00024428458 0.50608159)
(0 -0.00086550705 0.50613853)
(0 -0.0019896817 0.50630042)
(0 -0.0031425419 0.50657429)
(0 -0.0043391254 0.50697213)
(0 -0.0055955389 0.50751179)
(0 -0.0069293257 0.50821828)
(0 -0.0083598711 0.50912584)
(0 -0.0099087414 0.51028076)
(0 -0.011599942 0.51174561)
(0 -0.013461194 0.51360574)
(0 -0.015522562 0.51597862)
(0 -0.017814672 0.51902281)
(0 -0.020384462 0.52294929)
(0 -0.023239171 0.52823501)
(0 -0.026659287 0.53703998)
(0 -0.031569313 0.5536588)
(0 -0.035908625 0.56230679)
(0 -0.030555477 0.47788695)
(0 -0.0035913622 0.19460518)
(0 7.6775231e-05 0.16252425)
(0 0.025870796 0.45259955)
(0 0.037160529 0.56943312)
(0 0.035192341 0.57098921)
(0 0.029878289 0.54996336)
(0 0.026174592 0.53711431)
(0 0.023306677 0.52991291)
(0 0.020688137 0.52478486)
(0 0.018308446 0.52079894)
(0 0.016139229 0.51767491)
(0 0.014159192 0.51521422)
(0 0.01234548 0.51326469)
(0 0.010675018 0.51171509)
(0 0.009127192 0.51048372)
(0 0.0076827508 0.50950981)
(0 0.0063238897 0.50874797)
(0 0.0050341743 0.50816447)
(0 0.00379832 0.50773454)
(0 0.0026019832 0.50744059)
(0 0.0014315283 0.50727095)
(0 0.00027379501 0.50721908)
(0 -0.00088415039 0.50728314)
(0 -0.0020552939 0.50746586)
(0 -0.0032528503 0.50777476)
(0 -0.0044905709 0.5082226)
(0 -0.0057829616 0.50882828)
(0 -0.0071455147 0.5096182)
(0 -0.0085949546 0.51062825)
(0 -0.01014942 0.51190667)
(0 -0.011828395 0.51351818)
(0 -0.013653668 0.51555045)
(0 -0.015648452 0.51812322)
(0 -0.017833382 0.52139469)
(0 -0.02024083 0.5255793)
(0 -0.022884383 0.53128202)
(0 -0.026082083 0.54103085)
(0 -0.030573735 0.5579341)
(0 -0.033430781 0.56018873)
(0 -0.025997395 0.46206297)
(0 -0.0017654158 0.17946502)
(0 -0.00071793307 0.15190659)
(0 0.02110845 0.43543394)
(0 0.033820162 0.56393141)
(0 0.033605041 0.57408949)
(0 0.028975799 0.55409442)
(0 0.025520742 0.54026403)
(0 0.022886888 0.53255324)
(0 0.020479073 0.52719272)
(0 0.018255177 0.52301338)
(0 0.016195798 0.51970925)
(0 0.014290208 0.51708702)
(0 0.012522647 0.51499527)
(0 0.01087622 0.51332212)
(0 0.0093352963 0.51198492)
(0 0.007884592 0.51092189)
(0 0.0065095104 0.51008664)
(0 0.0051961782 0.50944449)
(0 0.0039313705 0.50896986)
(0 0.0027024326 0.50864449)
(0 0.0014971547 0.50845624)
(0 0.00030363499 0.50839828)
(0 -0.00088987437 0.50846867)
(0 -0.0020951657 0.50867029)
(0 -0.0033241647 0.50901096)
(0 -0.0045891499 0.50950396)
(0 -0.0059028687 0.5101689)
(0 -0.0072786575 0.51103304)
(0 -0.0087305513 0.51213324)
(0 -0.010273362 0.51351883)
(0 -0.011922405 0.51525563)
(0 -0.013694127 0.51743231)
(0 -0.015605684 0.52016902)
(0 -0.017669541 0.52362166)
(0 -0.019907162 0.52801592)
(0 -0.022344739 0.53411006)
(0 -0.025323963 0.54468121)
(0 -0.029334662 0.56120697)
(0 -0.030796308 0.5565838)
(0 -0.021896459 0.44675572)
(0 -0.0005648325 0.16724072)
(0 -0.0010700594 0.14358256)
(0 0.017203818 0.41947837)
(0 0.030667696 0.55733981)
(0 0.031915969 0.57602078)
(0 0.028004884 0.55776434)
(0 0.024784524 0.54317996)
(0 0.022350975 0.53497643)
(0 0.020139543 0.52941844)
(0 0.018069458 0.52509122)
(0 0.016124349 0.52164543)
(0 0.014301594 0.51889245)
(0 0.012591042 0.51668318)
(0 0.010980831 0.51490604)
(0 0.009459525 0.51347834)
(0 0.0080153461 0.51233803)
(0 0.0066366393 0.51143837)
(0 0.0053119683 0.51074424)
(0 0.0040301453 0.51022966)
(0 0.0027802469 0.50987601)
(0 0.0015515728 0.50967085)
(0 0.0003335876 0.5096072)
(0 -0.00088415188 0.50968306)
(0 -0.002112125 0.50990138)
(0 -0.0033608621 0.51027017)
(0 -0.0046410854 0.510803)
(0 -0.005963744 0.51151986)
(0 -0.007340046 0.51244844)
(0 -0.0087814613 0.51362605)
(0 -0.010299731 0.5151024)
(0 -0.011906493 0.51694364)
(0 -0.013613624 0.51923853)
(0 -0.015433123 0.52210626)
(0 -0.017370975 0.52569975)
(0 -0.019441775 0.53026616)
(0 -0.021689203 0.53673083)
(0 -0.02445816 0.54797094)
(0 -0.027953797 0.56352125)
(0 -0.028175783 0.55185369)
(0 -0.018326844 0.43222988)
(0 0.00016881913 0.15738624)
(0 -0.0011531646 0.13700076)
(0 0.014079413 0.4048132)
(0 0.027783187 0.55003261)
(0 0.030213174 0.57693054)
(0 0.027017959 0.56097957)
(0 0.024018936 0.54588608)
(0 0.021750822 0.53720946)
(0 0.019714743 0.53147517)
(0 0.017789631 0.52703572)
(0 0.015956992 0.52348087)
(0 0.014219829 0.52062413)
(0 0.012572166 0.51831958)
(0 0.011006063 0.51645662)
(0 0.0095134693 0.51495301)
(0 0.0080855763 0.51374698)
(0 0.0067133141 0.51279189)
(0 0.0053874659 0.51205259)
(0 0.0040987663 0.51150298)
(0 0.0028379773 0.51112432)
(0 0.0015959094 0.51090408)
(0 0.00036342293 0.51083517)
(0 -0.00086857862 0.51091558)
(0 -0.0021092195 0.51114829)
(0 -0.0033676069 0.51154137)
(0 -0.0046529094 0.51210852)
(0 -0.0059743258 0.51286983)
(0 -0.0073410577 0.51385309)
(0 -0.0087622341 0.51509563)
(0 -0.010246874 0.51664707)
(0 -0.011803497 0.51857332)
(0 -0.013440236 0.52096259)
(0 -0.015164927 0.52393221)
(0 -0.016978728 0.52763266)
(0 -0.018893264 0.53234369)
(0 -0.020972345 0.53915848)
(0 -0.023541886 0.55089354)
(0 -0.026513618 0.5649595)
(0 -0.025680466 0.54631622)
(0 -0.015300198 0.41863343)
(0 0.00057366968 0.14943881)
(0 -0.0010855789 0.13172142)
(0 0.011624587 0.39142972)
(0 0.025194475 0.54230352)
(0 0.028555476 0.57697303)
(0 0.02604843 0.5637598)
(0 0.023259345 0.54840525)
(0 0.021124956 0.5392808)
(0 0.019240126 0.5333803)
(0 0.017446927 0.52885484)
(0 0.015720788 0.52521767)
(0 0.014067915 0.52228011)
(0 0.012485227 0.51989969)
(0 0.010967699 0.51796715)
(0 0.0095098963 0.51640102)
(0 0.0081054239 0.51514012)
(0 0.0067474012 0.51413818)
(0 0.0054285623 0.51336031)
(0 0.0041413891 0.51278052)
(0 0.0028782217 0.51238012)
(0 0.0016313199 0.5121466)
(0 0.0003929072 0.51207288)
(0 -0.000844786 0.51215692)
(0 -0.0020895485 0.51240169)
(0 -0.0033491001 0.51281527)
(0 -0.0046311208 0.5134113)
(0 -0.0059431727 0.5142098)
(0 -0.0072926343 0.5152384)
(0 -0.0086865759 0.51653417)
(0 -0.010131697 0.51814628)
(0 -0.01163397 0.52014005)
(0 -0.013198602 0.52260272)
(0 -0.014830253 0.52564925)
(0 -0.016526849 0.52942955)
(0 -0.018300354 0.5342667)
(0 -0.020234815 0.54140962)
(0 -0.022616705 0.55345665)
(0 -0.025075199 0.56562617)
(0 -0.023373055 0.54023722)
(0 -0.012786905 0.40602821)
(0 0.00075882923 0.14300411)
(0 -0.00094374178 0.12739893)
(0 0.0097205712 0.37926187)
(0 0.022898113 0.53437291)
(0 0.026978074 0.57629331)
(0 0.025115045 0.56613224)
(0 0.022526996 0.55075819)
(0 0.020500054 0.54121814)
(0 0.018742152 0.53515347)
(0 0.017065844 0.5305596)
(0 0.015437809 0.52686118)
(0 0.013865223 0.52386169)
(0 0.012346856 0.52142183)
(0 0.010879751 0.51943382)
(0 0.0094603916 0.51781707)
(0 0.008084272 0.51651111)
(0 0.0067463033 0.51547024)
(0 0.0054408808 0.51465997)
(0 0.004162026 0.51405459)
(0 0.0029035092 0.51363558)
(0 0.0016589348 0.51339054)
(0 0.00042181134 0.51331242)
(0 -0.00081437028 0.51339921)
(0 -0.0020561298 0.51365382)
(0 -0.0033098815 0.51408425)
(0 -0.0045819275 0.51470401)
(0 -0.0058783488 0.5155329)
(0 -0.00720492 0.51659823)
(0 -0.0085669608 0.51793658)
(0 -0.0099692657 0.51959651)
(0 -0.01141581 0.52164254)
(0 -0.012909616 0.52416073)
(0 -0.014453065 0.52726362)
(0 -0.016042312 0.53110332)
(0 -0.017692184 0.5360556)
(0 -0.019504804 0.54350182)
(0 -0.021710674 0.55567769)
(0 -0.023680567 0.56563129)
(0 -0.021281622 0.53382816)
(0 -0.01073446 0.39441372)
(0 0.00080461458 0.13774879)
(0 -0.00077514285 0.12377221)
(0 0.0082547111 0.3682127)
(0 0.020873834 0.52640026)
(0 0.025498871 0.57501921)
(0 0.02422661 0.5681265)
(0 0.021833052 0.55296187)
(0 0.019893279 0.54304616)
(0 0.0182396 0.53681443)
(0 0.016664848 0.53216248)
(0 0.015125434 0.52841868)
(0 0.01362756 0.52537236)
(0 0.012171035 0.52288656)
(0 0.010754296 0.520855)
(0 0.0093751601 0.5191979)
(0 0.0080305399 0.51785554)
(0 0.0067167678 0.51678284)
(0 0.0054296138 0.51594578)
(0 0.0041644194 0.51531902)
(0 0.0029162161 0.5148843)
(0 0.001679821 0.51462936)
(0 0.00044991855 0.51454725)
(0 -0.00077883825 0.51463594)
(0 -0.0020117994 0.51489831)
(0 -0.0032541868 0.51534224)
(0 -0.0045110635 0.51598101)
(0 -0.0057872083 0.51683411)
(0 -0.0070870252 0.51792843)
(0 -0.0084143908 0.51929999)
(0 -0.0097725902 0.52099664)
(0 -0.011164099 0.52308203)
(0 -0.012590384 0.52564099)
(0 -0.014052309 0.52878393)
(0 -0.015545557 0.53266869)
(0 -0.017089541 0.53773068)
(0 -0.018800566 0.54545155)
(0 -0.020841361 0.55757905)
(0 -0.022356295 0.56507974)
(0 -0.019411286 0.52725101)
(0 -0.0090801001 0.38374942)
(0 0.00076753118 0.13340041)
(0 -0.00060776811 0.120651)
(0 0.007127817 0.35817332)
(0 0.019093626 0.51849768)
(0 0.024123745 0.57325971)
(0 0.023385599 0.56977192)
(0 0.021181982 0.5550292)
(0 0.019314735 0.54478531)
(0 0.017745187 0.53838153)
(0 0.01625738 0.5336761)
(0 0.014796932 0.52989828)
(0 0.01336746 0.52681685)
(0 0.011969204 0.52429597)
(0 0.010601477 0.52223066)
(0 0.0092629573 0.52054188)
(0 0.0079515833 0.51917056)
(0 0.0066647795 0.51807222)
(0 0.0053994238 0.51721334)
(0 0.0041519624 0.51656898)
(0 0.0029185122 0.51612116)
(0 0.0016949569 0.51585779)
(0 0.00047703085 0.51577204)
(0 -0.00073956952 0.51586189)
(0 -0.0019591438 0.51613015)
(0 -0.0031858525 0.51658454)
(0 -0.0044236729 0.51723809)
(0 -0.0056762681 0.51810995)
(0 -0.0069469019 0.51922653)
(0 -0.0082382961 0.52062326)
(0 -0.0095525819 0.52234726)
(0 -0.010891162 0.52446141)
(0 -0.012254462 0.52704932)
(0 -0.013642449 0.53021988)
(0 -0.01505145 0.53414053)
(0 -0.016506449 0.53931044)
(0 -0.018132901 0.54727316)
(0 -0.020018498 0.55918517)
(0 -0.021116862 0.56406626)
(0 -0.017752813 0.5206264)
(0 -0.0077591144 0.37397241)
(0 0.00068598999 0.12974364)
(0 -0.0004565383 0.11790005)
(0 0.0062573061 0.34903423)
(0 0.017527358 0.51074165)
(0 0.022850815 0.57110612)
(0 0.022590661 0.57109649)
(0 0.020573975 0.55696961)
(0 0.018769475 0.54645172)
(0 0.017267041 0.53987092)
(0 0.015852889 0.53511235)
(0 0.014462151 0.53130815)
(0 0.013094614 0.5282005)
(0 0.011750501 0.52565303)
(0 0.010429611 0.52356188)
(0 0.0091311221 0.52184856)
(0 0.0078536803 0.52045453)
(0 0.0065955228 0.51933585)
(0 0.0053543986 0.51845945)
(0 0.0041276573 0.51780079)
(0 0.0029123304 0.51734216)
(0 0.0017052193 0.51707169)
(0 0.00050297426 0.51698262)
(0 -0.00069779251 0.51707297)
(0 -0.001900459 0.51734546)
(0 -0.003108263 0.51780764)
(0 -0.0043242519 0.5184723)
(0 -0.0055511558 0.51935822)
(0 -0.006791314 0.52049132)
(0 -0.0080465514 0.52190648)
(0 -0.0093181518 0.52365018)
(0 -0.010606798 0.52578457)
(0 -0.011912278 0.52839222)
(0 -0.013234155 0.53158137)
(0 -0.014570305 0.53553292)
(0 -0.01595164 0.54081091)
(0 -0.017507147 0.54897877)
(0 -0.019246109 0.56052072)
(0 -0.019967731 0.56267356)
(0 -0.016288939 0.51404185)
(0 -0.0067102935 0.36500917)
(0 0.00058516889 0.12661194)
(0 -0.00032791879 0.11542511)
(0 0.0055774414 0.34069152)
(0 0.016146092 0.50318225)
(0 0.021673807 0.56863416)
(0 0.021838422 0.57212629)
(0 0.020006639 0.55878972)
(0 0.018259078 0.54805761)
(0 0.016809907 0.54129634)
(0 0.015457738 0.53648201)
(0 0.014128181 0.53265606)
(0 0.012816339 0.52952869)
(0 0.011522072 0.52696118)
(0 0.01024538 0.52485044)
(0 0.0089856804 0.52311836)
(0 0.0077420789 0.52170677)
(0 0.0065133954 0.52057217)
(0 0.0052980464 0.51968191)
(0 0.004094105 0.51901177)
(0 0.0028993574 0.51854433)
(0 0.0017113788 0.51826789)
(0 0.0005276024 0.51817579)
(0 -0.00065457285 0.51826607)
(0 -0.0018377335 0.51854136)
(0 -0.0030243321 0.51900906)
(0 -0.004216637 0.5196817)
(0 -0.005416616 0.5205777)
(0 -0.0066258774 0.52172256)
(0 -0.0078455729 0.52315065)
(0 -0.0090763925 0.52490791)
(0 -0.010318577 0.5270559)
(0 -0.011571591 0.52967635)
(0 -0.012834964 0.53287791)
(0 -0.014108809 0.53685858)
(0 -0.015429813 0.54224547)
(0 -0.016924783 0.55057831)
(0 -0.018524304 0.56160944)
(0 -0.018908196 0.56097213)
(0 -0.014998835 0.50755881)
(0 -0.0058790378 0.35678306)
(0 0.00048081127 0.1238786)
(0 -0.0002232416 0.11316174)
(0 0.0050377403 0.33305022)
(0 0.014923733 0.49585034)
(0 0.020584476 0.56590625)
(0 0.021124745 0.57288521)
(0 0.019476248 0.56049401)
(0 0.017782872 0.54961177)
(0 0.016376122 0.54266918)
(0 0.015075955 0.53779457)
(0 0.013799948 0.53394913)
(0 0.012538013 0.53080665)
(0 0.011289378 0.52822401)
(0 0.010054042 0.52609851)
(0 0.0088314842 0.52435224)
(0 0.0076210827 0.52292727)
(0 0.0064220569 0.5217804)
(0 0.0052333212 0.52087931)
(0 0.0040535159 0.52020008)
(0 0.0028810379 0.51972551)
(0 0.0017141026 0.51944407)
(0 0.0005507988 0.5193492)
(0 -0.00061081129 0.51943893)
(0 -0.0017726483 0.51971584)
(0 -0.0029365105 0.52018715)
(0 -0.004104027 0.52086516)
(0 -0.0052765566 0.52176798)
(0 -0.006455146 0.52292073)
(0 -0.0076404599 0.52435735)
(0 -0.0088327981 0.52612337)
(0 -0.010032172 0.52827991)
(0 -0.01123795 0.53090813)
(0 -0.012449907 0.53411826)
(0 -0.013670862 0.53812865)
(0 -0.014942732 0.54362486)
(0 -0.016384719 0.55207966)
(0 -0.017850751 0.56247336)
(0 -0.017933742 0.55902098)
(0 -0.013861001 0.5012188)
(0 -0.0052186783 0.34921893)
(0 0.00038212287 0.1214488)
(0 -0.00014097809 0.11106655)
(0 0.0046005472 0.3260257)
(0 0.013837601 0.48876323)
(0 0.019574154 0.56297391)
(0 0.020445506 0.57339505)
(0 0.01897859 0.56208534)
(0 0.01733887 0.55112016)
(0 0.015966391 0.5439986)
(0 0.014709868 0.53905822)
(0 0.013480721 0.53519373)
(0 0.01226347 0.53203922)
(0 0.011056495 0.52944505)
(0 0.0098596512 0.52730844)
(0 0.0086723666 0.52555156)
(0 0.0074941565 0.52411653)
(0 0.0063244984 0.52296034)
(0 0.0051626668 0.5220509)
(0 0.0040077367 0.52136454)
(0 0.0028585899 0.52088425)
(0 0.001713961 0.52059864)
(0 0.00057247775 0.52050123)
(0 -0.00056724924 0.52059003)
(0 -0.001706591 0.52086757)
(0 -0.0028468119 0.52134092)
(0 -0.0039890275 0.52202219)
(0 -0.0051341216 0.52292921)
(0 -0.0062827223 0.52408678)
(0 -0.0074351587 0.52552851)
(0 -0.0085914973 0.52729965)
(0 -0.0097516721 0.52946103)
(0 -0.010915121 0.53209355)
(0 -0.012082067 0.53531029)
(0 -0.013258306 0.53935255)
(0 -0.014490144 0.54495739)
(0 -0.015884315 0.55348892)
(0 -0.017221782 0.56313245)
(0 -0.017037792 0.55686899)
(0 -0.012854995 0.4950485)
(0 -0.0046906698 0.34224609)
(0 0.00029393319 0.11925274)
(0 -7.8218753e-05 0.10911051)
(0 0.0042384463 0.31954384)
(0 0.012868415 0.48192877)
(0 0.018634623 0.55987982)
(0 0.019797 0.57367572)
(0 0.018509499 0.56356559)
(0 0.016924424 0.55258648)
(0 0.01558037 0.54529177)
(0 0.014360606 0.54027987)
(0 0.013172536 0.53639542)
(0 0.011995348 0.5332308)
(0 0.010826388 0.53062765)
(0 0.0096652661 0.52848266)
(0 0.0085112971 0.52671787)
(0 0.0073640397 0.52527537)
(0 0.0062231222 0.52411219)
(0 0.0050880711 0.52319643)
(0 0.0039582859 0.52250454)
(0 0.0028330251 0.5220197)
(0 0.001711437 0.52173061)
(0 0.00059258459 0.52163084)
(0 -0.00052447839 0.52171842)
(0 -0.0016406783 0.52199581)
(0 -0.0027568513 0.52246996)
(0 -0.0038737099 0.5231528)
(0 -0.0049917775 0.52406195)
(0 -0.0061113808 0.52522196)
(0 -0.0072326326 0.52666623)
(0 -0.0083554834 0.52843981)
(0 -0.0094798944 0.53060342)
(0 -0.010605486 0.533238)
(0 -0.011733075 0.53646082)
(0 -0.012871531 0.54053805)
(0 -0.014070504 0.54624921)
(0 -0.015420106 0.55481069)
(0 -0.016633152 0.56360462)
(0 -0.016212916 0.55455648)
(0 -0.011962331 0.48906382)
(0 -0.0042640773 0.33579982)
(0 0.00021822562 0.11723979)
(0 -3.1597167e-05 0.107274)
(0 0.0039318705 0.31354047)
(0 0.011999985 0.47534846)
(0 0.01775854 0.55665959)
(0 0.019176108 0.57374556)
(0 0.01806515 0.56493604)
(0 0.016536663 0.55401272)
(0 0.015217087 0.54655418)
(0 0.014028485 0.54146528)
(0 0.012876541 0.53755904)
(0 0.011735379 0.5343853)
(0 0.010601145 0.53177493)
(0 0.0094731384 0.52962351)
(0 0.0083505295 0.52785285)
(0 0.0072328577 0.52640485)
(0 0.0061198251 0.52523652)
(0 0.005011125 0.52431601)
(0 0.0039063931 0.52361989)
(0 0.0028051739 0.52313143)
(0 0.0017069379 0.52283943)
(0 0.00061109279 0.52273748)
(0 -0.00048295626 0.52282363)
(0 -0.0015757834 0.52310026)
(0 -0.0026678888 0.52357425)
(0 -0.0037596768 0.52425736)
(0 -0.004851405 0.52516707)
(0 -0.0059431929 0.52632774)
(0 -0.0070350282 0.52777265)
(0 -0.0081268299 0.52954678)
(0 -0.0092186521 0.53171087)
(0 -0.010310372 0.53434626)
(0 -0.011403507 0.5375757)
(0 -0.012509952 0.54169139)
(0 -0.013681516 0.54750465)
(0 -0.014988318 0.55604837)
(0 -0.016080558 0.5639059)
(0 -0.015451633 0.55211662)
(0 -0.011166822 0.48327293)
(0 -0.0039146656 0.32982203)
(0 0.00015520501 0.11537364)
(0 2.1687969e-06 0.10554341)
(0 0.0036670594 0.30796041)
(0 0.011218793 0.46901949)
(0 0.016939567 0.55334308)
(0 0.018580312 0.57362157)
(0 0.017642195 0.56619779)
(0 0.01617275 0.55539961)
(0 0.014875227 0.54778993)
(0 0.013713286 0.54261923)
(0 0.012593256 0.53868871)
(0 0.011484618 0.53550615)
(0 0.01038218 0.5328897)
(0 0.0092848798 0.53073323)
(0 0.0081917353 0.52895818)
(0 0.0071022273 0.52750617)
(0 0.0060160771 0.52633408)
(0 0.004933081 0.52541006)
(0 0.0038530397 0.52471073)
(0 0.0027757092 0.52421941)
(0 0.0017008053 0.52392496)
(0 0.00062800255 0.523821)
(0 -0.000443021 0.52390556)
(0 -0.0015125666 0.52418099)
(0 -0.0025808781 0.52465408)
(0 -0.0036481297 0.5253365)
(0 -0.0047143907 0.52624559)
(0 -0.0057796472 0.52740564)
(0 -0.0068438292 0.52884985)
(0 -0.0079068822 0.53062327)
(0 -0.0089689909 0.53278677)
(0 -0.010030335 0.53542247)
(0 -0.01109321 0.53865981)
(0 -0.012172366 0.54281747)
(0 -0.013320518 0.5487266)
(0 -0.014585202 0.55720456)
(0 -0.015559953 0.56405059)
(0 -0.014746905 0.54957682)
(0 -0.010454598 0.47767857)
(0 -0.0036238292 0.32426126)
(0 0.00010404113 0.11362838)
(0 2.5998615e-05 0.10390879)
(0 0.0034344207 0.30275636)
(0 0.010513555 0.46293629)
(0 0.016172334 0.5499555)
(0 0.018007636 0.57331963)
(0 0.017237805 0.56735198)
(0 0.015830038 0.55674705)
(0 0.014553321 0.54900196)
(0 0.013414463 0.54374562)
(0 0.012322772 0.53978796)
(0 0.011243631 0.53659635)
(0 0.010170395 0.5339745)
(0 0.0091016016 0.5318139)
(0 0.0080361203 0.5300355)
(0 0.0069733506 0.52858056)
(0 0.0059129961 0.52740577)
(0 0.0048549084 0.52647919)
(0 0.0037989975 0.52577744)
(0 0.002745171 0.52528387)
(0 0.0016933259 0.52498734)
(0 0.00064333802 0.52488152)
(0 -0.00040490773 0.5249644)
(0 -0.0014515067 0.5252383)
(0 -0.0024965125 0.52570997)
(0 -0.0035399337 0.526391)
(0 -0.0045817129 0.52729866)
(0 -0.0056217588 0.52845719)
(0 -0.0066599926 0.52989983)
(0 -0.0076964232 0.53167177)
(0 -0.0087313839 0.53383411)
(0 -0.0097653819 0.53647018)
(0 -0.010801547 0.53971723)
(0 -0.011857223 0.54392005)
(0 -0.012984749 0.5499168)
(0 -0.014207238 0.55828123)
(0 -0.015067707 0.56405161)
(0 -0.014092386 0.54695976)
(0 -0.00981394 0.47227975)
(0 -0.0033775247 0.31907236)
(0 6.3375028e-05 0.11198554)
(0 4.2341334e-05 0.1023624)
(0 0.0032272744 0.29788776)
(0 0.0098748151 0.45709151)
(0 0.015452317 0.54651823)
(0 0.017456548 0.5728546)
(0 0.016849648 0.56839996)
(0 0.015506138 0.55805437)
(0 0.014249867 0.55019235)
(0 0.013131277 0.54484767)
(0 0.012064893 0.54085982)
(0 0.011012634 0.53765854)