/*--------------------------------*- C++ -*----------------------------------*\
  =========                 |
  \\      /  F ield         | OpenFOAM: The Open Source CFD Toolbox
   \\    /   O peration     | Website:  https://openfoam.org
    \\  /    A nd           | Version:  10
     \\/     M anipulation  |
\*---------------------------------------------------------------------------*/
FoamFile
{
    format      ascii;
    class       surfaceScalarField;
    location    "0.24";
    object      phi;
}
// * * * * * * * * * * * * * * * * * * * * * * * * * * * * * * * * * * * * * //

dimensions      [1 0 -1 0 0 0 0];

internalField   nonuniform List<scalar> 
7860
(
3.9895984e-08
5.2881205e-07
1.2192735e-08
5.9641105e-07
7.4279183e-09
5.7347256e-07
5.4994415e-09
5.7063618e-07
4.1150208e-09
5.700921e-07
3.2011678e-09
5.6962151e-07
2.5591731e-09
5.6934963e-07
2.0793435e-09
5.6918745e-07
1.7093504e-09
5.690776e-07
1.4166706e-09
5.6900028e-07
1.1795085e-09
5.6894475e-07
9.8310136e-10
5.6890399e-07
8.1710557e-10
5.6887358e-07
6.7403105e-10
5.6885065e-07
5.4830467e-10
5.688333e-07
4.3566584e-10
5.6882021e-07
3.3276104e-10
5.6881047e-07
2.3686307e-10
5.6880346e-07
1.4566908e-10
5.6879876e-07
5.7148107e-11
5.6879608e-07
-3.0582452e-11
5.6879529e-07
-1.1936473e-10
5.6879634e-07
-2.1110493e-10
5.687993e-07
-3.0788038e-10
5.6880434e-07
-4.1207166e-10
5.6881176e-07
-5.2652555e-10
5.6882202e-07
-6.5477586e-10
5.6883582e-07
-8.0135621e-10
5.6885416e-07
-9.7226071e-10
5.6887848e-07
-1.1756505e-09
5.6891097e-07
-1.4230269e-09
5.6895497e-07
-1.7312013e-09
5.6901577e-07
-2.1251516e-09
5.6910156e-07
-2.6447595e-09
5.6922723e-07
-3.3724383e-09
5.6943532e-07
-4.4637392e-09
5.6979896e-07
-6.0090678e-09
5.7025301e-07
-9.5080655e-09
5.7220671e-07
-2.9575895e-08
5.8877559e-07
5.3913203e-07
5.967251e-08
4.6913954e-07
3.6665985e-08
6.1941758e-07
2.2628174e-08
5.8751038e-07
1.6253592e-08
5.7701077e-07
1.2290536e-08
5.7405515e-07
9.6062907e-09
5.7230575e-07
7.6775134e-09
5.7127841e-07
6.236169e-09
5.706288e-07
5.1266612e-09
5.7018711e-07
4.2489174e-09
5.6987802e-07
3.537603e-09
5.6965607e-07
2.9485493e-09
5.6949305e-07
2.4507109e-09
5.6937141e-07
2.0216125e-09
5.6927975e-07
1.6445397e-09
5.6921037e-07
1.3067149e-09
5.6915803e-07
9.9808098e-10
5.6911911e-07
7.104596e-10
5.6909108e-07
4.3694502e-10
5.6907227e-07
1.7144566e-10
5.6906158e-07
-9.1684806e-11
5.6905842e-07
-3.5796951e-10
5.6906263e-07
-6.331205e-10
5.6907445e-07
-9.2337011e-10
5.6909459e-07
-1.2358574e-09
5.6912424e-07
-1.5791192e-09
5.6916528e-07
-1.9637529e-09
5.6922046e-07
-2.4033542e-09
5.6929376e-07
-2.9159062e-09
5.6939104e-07
-3.5259012e-09
5.6952097e-07
-4.267758e-09
5.6969682e-07
-5.1918416e-09
5.6993986e-07
-6.3747763e-09
5.7028449e-07
-7.9352791e-09
5.7078773e-07
-1.0076572e-08
5.7157661e-07
-1.3204779e-08
5.7292716e-07
-1.8134665e-08
5.7518289e-07
-2.8176905e-08
5.8224895e-07
-4.5802844e-08
6.0640153e-07
4.9332919e-07
6.0008821e-08
4.0913072e-07
5.0487265e-08
6.2893913e-07
3.337068e-08
6.0462696e-07
2.4817703e-08
5.8556374e-07
1.9323296e-08
5.7954956e-07
1.5331571e-08
5.7629748e-07
1.2360815e-08
5.7424916e-07
1.0101673e-08
5.7288794e-07
8.3407694e-09
5.7194801e-07
6.9349838e-09
5.7128381e-07
5.788237e-09
5.7080282e-07
4.8337639e-09
5.7044752e-07
4.0237999e-09
5.7018138e-07
3.3233596e-09
5.6998019e-07
2.7061792e-09
5.6982755e-07
2.1520263e-09
5.6971219e-07
1.6448756e-09
5.6962626e-07
1.1716277e-09
5.6956433e-07
7.2117533e-10
5.6952272e-07
2.8369024e-10
5.6949907e-07
-1.4995407e-10
5.6949207e-07
-5.8868852e-10
5.6950136e-07
-1.0417416e-09
5.6952751e-07
-1.5191598e-09
5.6957201e-07
-2.0324097e-09
5.6963749e-07
-2.5951384e-09
5.6972801e-07
-3.2241844e-09
5.698495e-07
-3.9409889e-09
5.7001056e-07
-4.7736459e-09
5.7022369e-07
-5.7599658e-09
5.7050729e-07
-6.9521332e-09
5.7088899e-07
-8.4243462e-09
5.7141207e-07
-1.0286003e-08
5.7214615e-07
-1.2698974e-08
5.732007e-07
-1.5896417e-08
5.7477405e-07
-2.0240219e-08
5.7727096e-07
-2.6708515e-08
5.8165119e-07
-3.8948009e-08
5.9448844e-07
-4.8167223e-08
6.1562074e-07
4.4516196e-07
5.4879039e-08
3.5425168e-07
5.745216e-08
6.2636601e-07
4.0467544e-08
6.2161158e-07
3.0778774e-08
5.9525251e-07
2.4643089e-08
5.8568525e-07
1.9952359e-08
5.8098821e-07
1.6313032e-08
5.7788849e-07
1.3466651e-08
5.7573432e-07
1.1201102e-08
5.7421356e-07
9.3646801e-09
5.7312023e-07
7.8495008e-09
5.7231799e-07
6.5770759e-09
5.7171994e-07
5.4895594e-09
5.7126889e-07
4.5436389e-09
5.7092611e-07
3.7062199e-09
5.7066497e-07
2.9514455e-09
5.7046696e-07
2.2585983e-09
5.703191e-07
1.6105831e-09
5.7021235e-07
9.927952e-10
5.7014051e-07
3.9224e-10
5.7009962e-07
-2.031896e-10
5.700875e-07
-8.0535367e-10
5.7010353e-07
-1.4264862e-09
5.7014864e-07
-2.0798498e-09
5.7022537e-07
-2.7804858e-09
5.7033813e-07
-3.5461426e-09
5.7049367e-07
-4.3984827e-09
5.7070184e-07
-5.3647157e-09
5.7097679e-07
-6.4798787e-09
5.7133886e-07
-7.7900967e-09
5.7181751e-07
-9.3571496e-09
5.7245604e-07
-1.1264858e-08
5.7331978e-07
-1.3629485e-08
5.7451078e-07
-1.6612375e-08
5.7618359e-07
-2.04113e-08
5.7857298e-07
-2.5292934e-08
5.821526e-07
-3.2517206e-08
5.8887546e-07
-4.5100823e-08
6.0707206e-07
-4.6549294e-08
6.1706921e-07
3.9861267e-07
4.7965746e-08
3.0628594e-07
6.0076494e-08
6.1425526e-07
4.540013e-08
6.3628794e-07
3.4875358e-08
6.0577728e-07
2.8399879e-08
5.9216072e-07
2.3419662e-08
5.8596842e-07
1.9434366e-08
5.8187379e-07
1.6229254e-08
5.7893943e-07
1.361981e-08
5.7682301e-07
1.1466628e-08
5.7527341e-07
9.6645808e-09
5.7412004e-07
8.1336298e-09
5.732509e-07
6.8127516e-09
5.7258977e-07
5.6549342e-09
5.7208393e-07
4.6234026e-09
5.716965e-07
3.6888706e-09
5.7140149e-07
2.8274996e-09
5.7118047e-07
2.0193604e-09
5.7102049e-07
1.2472485e-09
5.7091262e-07
4.9573867e-10
5.7085113e-07
-2.4960784e-10
5.7083284e-07
-1.0029531e-09
5.7085687e-07
-1.7788732e-09
5.7092456e-07
-2.5930804e-09
5.7103958e-07
-3.4632396e-09
5.7120829e-07
-4.4099517e-09
5.7144038e-07
-5.4579938e-09
5.7174988e-07
-6.6379289e-09
5.7215673e-07
-7.988232e-09
5.7268916e-07
-9.5581648e-09
5.7338744e-07
-1.1411551e-08
5.7430943e-07
-1.36312e-08
5.7553943e-07
-1.6325413e-08
5.7720499e-07
-1.9637793e-08
5.7949597e-07
-2.3738602e-08
5.8267378e-07
-2.8930755e-08
5.8734475e-07
-3.6791038e-08
5.9673575e-07
-4.8463658e-08
6.1874468e-07
-4.319414e-08
6.1179969e-07
3.5541853e-07
4.0336031e-08
2.6594992e-07
5.8994058e-08
5.9559724e-07
4.833008e-08
6.4695192e-07
3.7588097e-08
6.1651927e-07
3.0928935e-08
5.9881989e-07
2.5894076e-08
5.9100328e-07
2.1780118e-08
5.8598775e-07
1.8392208e-08
5.8232734e-07
1.5577689e-08
5.7963752e-07
1.3214513e-08
5.7763659e-07
1.1206741e-08
5.7612781e-07
9.47908e-09
5.7497856e-07
7.9723894e-09
5.7409646e-07
6.6397651e-09
5.7341655e-07
5.4435802e-09
5.7289269e-07
4.3532175e-09
5.7249185e-07
3.3432891e-09
5.721904e-07
2.3922376e-09
5.7197154e-07
1.4812173e-09
5.7182364e-07
5.9317449e-10
5.7173917e-07
-2.8794326e-10
5.7171396e-07
-1.1779047e-09
5.7174683e-07
-2.0928974e-09
5.7183955e-07
-3.0502557e-09
5.7199694e-07
-4.0692672e-09
5.722273e-07
-5.1721185e-09
5.7254323e-07
-6.3850471e-09
5.7296281e-07
-7.7397758e-09
5.7351146e-07
-9.2753106e-09
5.7422469e-07
-1.1040248e-08
5.7515238e-07
-1.3095809e-08
5.7636499e-07
-1.5519257e-08
5.7796288e-07
-1.8407993e-08
5.8009373e-07
-2.1886191e-08
5.8297417e-07
-2.6109635e-08
5.8689723e-07
-3.148784e-08
5.9272295e-07
-3.9654182e-08
6.0490209e-07
-4.9172029e-08
6.2826253e-07
-3.8578282e-08
6.0120594e-07
3.1684025e-07
3.2862678e-08
2.3308725e-07
5.524996e-08
5.7320996e-07
4.923221e-08
6.5296967e-07
3.9061504e-08
6.2668997e-07
3.2430687e-08
6.054507e-07
2.7518835e-08
5.9591513e-07
2.3438826e-08
5.9006775e-07
2.0003088e-08
5.8576308e-07
1.7095066e-08
5.8254555e-07
1.461254e-08
5.8011912e-07
1.2471721e-08
5.7826863e-07
1.0605358e-08
5.7684492e-07
8.9592125e-09
5.7574261e-07
7.4890909e-09
5.7488667e-07
6.1586641e-09
5.7422311e-07
4.9377063e-09
5.7371281e-07
3.800653e-09
5.7332745e-07
2.7254242e-09
5.7304677e-07
1.692448e-09
5.7285662e-07
6.8382961e-10
5.7274779e-07
-3.1738058e-10
5.7271517e-07
-1.3278614e-09
5.7275731e-07
-2.3646868e-09
5.7287638e-07
-3.4460089e-09
5.7307826e-07
-4.5918e-09
5.7337309e-07
-5.8246993e-09
5.7377613e-07
-7.1710101e-09
5.7430912e-07
-8.6619012e-09
5.7500235e-07
-1.0334856e-08
5.7589765e-07
-1.2235449e-08
5.7705297e-07
-1.4419734e-08
5.7854928e-07
-1.6957139e-08
5.8050028e-07
-1.9932507e-08
5.8306909e-07
-2.3446612e-08
5.8648828e-07
-2.7640877e-08
5.9109149e-07
-3.3033718e-08
5.9811579e-07
-4.1010038e-08
6.1287841e-07
-4.7687179e-08
6.3493967e-07
-3.3375826e-08
5.8689459e-07
2.8346442e-07
2.6188965e-08
2.0689829e-07
5.0132614e-08
5.4926633e-07
4.8493481e-08
6.546088e-07
3.9490996e-08
6.3569245e-07
3.3077444e-08
6.1186425e-07
2.8412084e-08
6.0058049e-07
2.4493035e-08
5.939868e-07
2.1118438e-08
5.8913768e-07
1.8207412e-08
5.8545657e-07
1.568073e-08
5.826458e-07
1.3469255e-08
5.8048011e-07
1.1515808e-08
5.7879836e-07
9.7728744e-09
5.7748554e-07
8.2006635e-09
5.7645888e-07
6.7656444e-09
5.7565813e-07
5.4392723e-09
5.7503918e-07
4.1969007e-09
5.7456983e-07
3.0168577e-09
5.7422681e-07
1.8796488e-09
5.7399383e-07
7.6725351e-10
5.7386019e-07
-3.3751078e-10
5.7381993e-07
-1.451585e-09
5.7387139e-07
-2.592261e-09
5.7401705e-07
-3.7777847e-09
5.7426378e-07
-5.0279981e-09
5.746233e-07
-6.3650548e-09
5.7511319e-07
-7.8142318e-09
5.757583e-07
-9.4048773e-09
5.7659299e-07
-1.1171518e-08
5.7766429e-07
-1.3155127e-08
5.7903658e-07
-1.5404776e-08
5.8079892e-07
-1.797975e-08
5.8307525e-07
-2.0949502e-08
5.8603885e-07
-2.4389224e-08
5.89928e-07
-2.8434447e-08
5.9513672e-07
-3.369041e-08
6.0337176e-07
-4.1061701e-08
6.202497e-07
-4.479644e-08
6.3867441e-07
-2.820407e-08
5.7030222e-07
2.5526035e-07
2.0570857e-08
1.8632745e-07
4.4583056e-08
5.2525414e-07
4.6642768e-08
6.5254909e-07
3.9153068e-08
6.4318215e-07
3.3083764e-08
6.1793356e-07
2.8717642e-08
6.0494662e-07
2.503826e-08
5.9766618e-07
2.1804004e-08
5.9237193e-07
1.8959557e-08
5.8830102e-07
1.6448866e-08
5.8515649e-07
1.4218431e-08
5.8271054e-07
1.2222072e-08
5.8079472e-07
1.0420007e-08
5.7928761e-07
8.7778795e-09
5.7810101e-07
7.2659348e-09
5.7717008e-07
5.8582063e-09
5.7644691e-07
4.5317765e-09
5.7589626e-07
3.2661107e-09
5.7549247e-07
2.0424504e-09
5.7521749e-07
8.4325639e-10
5.7505938e-07
-3.4831152e-10
5.750115e-07
-1.5488906e-09
5.7507197e-07
-2.7754126e-09
5.7524357e-07
-4.0456047e-09
5.7553397e-07
-5.3785145e-09
5.7595621e-07
-6.7950753e-09
5.7652975e-07
-8.3187241e-09
5.7728195e-07
-9.9760861e-09
5.7825035e-07
-1.1797741e-08
5.7948594e-07
-1.3819019e-08
5.8105786e-07
-1.6080909e-08
5.8306081e-07
-1.8631261e-08
5.8562561e-07
-2.1523183e-08
5.8893077e-07
-2.4810693e-08
5.9321551e-07
-2.8640007e-08
5.9896603e-07
-3.365845e-08
6.083902e-07
-4.014249e-08
6.2673374e-07
-4.1157873e-08
6.3968979e-07
-2.3416391e-08
5.5256074e-07
2.3184396e-07
1.6015414e-08
1.7031205e-07
3.9143713e-08
5.0212586e-07
4.4118309e-08
6.475745e-07
3.828944e-08
6.4901102e-07
3.2653777e-08
6.2356922e-07
2.8591563e-08
6.0900883e-07
2.5183674e-08
6.0107407e-07
2.2136158e-08
5.9541945e-07
1.9405122e-08
5.9103205e-07
1.695451e-08
5.876071e-07
1.4745341e-08
5.8491971e-07
1.2742019e-08
5.8279804e-07
1.0912631e-08
5.81117e-07
9.2286539e-09
5.7978499e-07
7.6646137e-09
5.7873412e-07
6.1976625e-09
5.7791386e-07
4.8071529e-09
5.7728676e-07
3.4742107e-09
5.7682542e-07
2.1813141e-09
5.7651038e-07
9.1188478e-10
5.7632881e-07
-3.501086e-10
5.762735e-07
-1.6205374e-09
5.763424e-07
-2.9155045e-09
5.7653854e-07
-4.2517355e-09
5.768702e-07
-5.6469774e-09
5.7735146e-07
-7.1204135e-09
5.7800318e-07
-8.6930907e-09
5.7885462e-07
-1.0388358e-08
5.7994562e-07
-1.2232322e-08
5.8132991e-07
-1.4254267e-08
5.830798e-07
-1.6487018e-08
5.8529357e-07
-1.896733e-08
5.8810592e-07
-2.173334e-08
5.9169678e-07
-2.4825526e-08
5.9630769e-07
-2.8412765e-08
6.0255327e-07
-3.3122202e-08
6.1309964e-07
-3.8547332e-08
6.3215887e-07
-3.721397e-08
6.3835643e-07
-1.9182185e-08
5.3452895e-07
2.1266177e-07
1.2423674e-08
1.5788839e-07
3.4113685e-08
4.8043588e-07
4.1249315e-08
6.4043888e-07
3.7078266e-08
6.5318206e-07
3.1941612e-08
6.2870587e-07
2.8168571e-08
6.1278187e-07
2.5032909e-08
6.0420973e-07
2.2192144e-08
5.9826021e-07
1.9601206e-08
5.9362299e-07
1.723951e-08
5.899688e-07
1.5080422e-08
5.870788e-07
1.3097627e-08
5.8478084e-07
1.1266486e-08
5.8294814e-07
9.5641445e-09
5.8148733e-07
7.969482e-09
5.8032878e-07
6.4629855e-09
5.7942036e-07
5.0265686e-09
5.7872318e-07
3.6433444e-09
5.7820864e-07
2.29737e-09
5.7785636e-07
9.7337587e-10
5.776528e-07
-3.4351129e-10
5.7759038e-07
-1.6680471e-09
5.7766693e-07
-3.0151555e-09
5.7788565e-07
-4.4002099e-09
5.7825526e-07
-5.8393111e-09
5.7879056e-07
-7.3495611e-09
5.7951343e-07
-8.9493227e-09
5.8045439e-07
-1.0658451e-08
5.8165475e-07
-1.2498504e-08
5.8316996e-07
-1.4492901e-08
5.850742e-07
-1.6666959e-08
5.8746762e-07
-1.9047566e-08
5.9048652e-07
-2.166022e-08
5.9430943e-07
-2.4539115e-08
5.9918659e-07
-2.7878779e-08
6.0589293e-07
-3.2224354e-08
6.1744521e-07
-3.6518364e-08
6.3645288e-07
-3.3266001e-08
6.3510407e-07
-1.556313e-08
5.1682608e-07
1.9709864e-07
9.6570192e-09
1.4823139e-07
2.9645281e-08
4.6044766e-07
3.8282435e-08
6.3180175e-07
3.5657711e-08
6.5580679e-07
3.1058444e-08
6.3330514e-07
2.7553029e-08
6.1628728e-07
2.4672529e-08
6.0709023e-07
2.2040734e-08
6.0089201e-07
1.9601675e-08
5.9606205e-07
1.734538e-08
5.9222509e-07
1.5255234e-08
5.8916894e-07
1.3312654e-08
5.8672342e-07
1.1499302e-08
5.8476149e-07
9.7974493e-09
5.8318918e-07
8.1900896e-09
5.8193614e-07
6.6609984e-09
5.8094945e-07
5.1947272e-09
5.8018945e-07
3.7765284e-09
5.7962684e-07
2.392234e-09
5.7924065e-07
1.028105e-09
5.7901693e-07
-3.2933944e-10
5.7894783e-07
-1.693501e-09
5.7903109e-07
-3.0778901e-09
5.7927004e-07
-4.4963058e-09
5.7967367e-07
-5.963006e-09
5.8025726e-07
-7.4928597e-09
5.8104329e-07
-9.1014697e-09
5.82063e-07
-1.0805249e-08
5.8335853e-07
-1.262145e-08
5.8498616e-07
-1.4568155e-08
5.870209e-07
-1.6664107e-08
5.8956357e-07
-1.8927785e-08
5.927502e-07
-2.1374699e-08
5.9675635e-07
-2.4038979e-08
6.0185087e-07
-2.7136909e-08
6.0899086e-07
-3.1083064e-08
6.2139137e-07
-3.4259714e-08
6.3962953e-07
-2.9519109e-08
6.3036346e-07
-1.2554583e-08
4.9986156e-07
1.8454406e-07
7.5666254e-09
1.4066479e-07
2.5786164e-08
4.4222817e-07
3.5388528e-08
6.2219941e-07
3.4137625e-08
6.5705769e-07
3.0087261e-08
6.373555e-07
2.6824922e-08
6.1954962e-07
2.4172214e-08
6.0974294e-07
2.1739701e-08
6.0332452e-07
1.9453804e-08
5.9834795e-07
1.731017e-08
5.9436873e-07
1.5299917e-08
5.911792e-07
1.3410659e-08
5.8861268e-07
1.1629277e-08
5.8654287e-07
9.9424531e-09
5.84876e-07
8.3368671e-09
5.8354172e-07
6.7993603e-09
5.8248696e-07
5.3170387e-09
5.8167177e-07
3.8773043e-09
5.8106657e-07
2.4678368e-09
5.8065012e-07
1.076537e-09
5.8040823e-07
-3.0855367e-10
5.8033292e-07
-1.6993471e-09
5.8042189e-07
-3.1078108e-09
5.806785e-07
-4.5460612e-09
5.8111192e-07
-6.0264434e-09
5.8173764e-07
-7.5615852e-09
5.8257843e-07
-9.1644164e-09
5.8366583e-07
-1.0848134e-08
5.8504225e-07
-1.2626112e-08
5.8676414e-07
-1.4511783e-08
5.8890657e-07
-1.6518333e-08
5.9157012e-07
-1.8657362e-08
5.9488923e-07
-2.0937379e-08
5.9903636e-07
-2.3397557e-08
6.0431104e-07
-2.6267514e-08
6.1186082e-07
-2.9799392e-08
6.2492324e-07
-3.193303e-08
6.4176316e-07
-2.6095637e-08
6.2452607e-07
-1.0109899e-08
4.8387582e-07
1.7443416e-07
6.0119193e-09
1.346529e-07
2.2514551e-08
4.257256e-07
3.2669448e-08
6.1204455e-07
3.2598447e-08
6.5712869e-07
2.9088145e-08
6.4086579e-07
2.6044412e-08
6.2259335e-07
2.3587293e-08
6.1220006e-07
2.1336619e-08
6.0557519e-07
1.9197782e-08
6.0048678e-07
1.7167319e-08
5.9639919e-07
1.5241848e-08
5.9310467e-07
1.3413736e-08
5.9044079e-07
1.1673991e-08
5.8828261e-07
1.0012938e-08
5.8653706e-07
8.4204244e-09
5.8513424e-07
6.8860316e-09
5.8402135e-07
5.3992292e-09
5.8315858e-07
3.9494769e-09
5.8251632e-07
2.526276e-09
5.8207332e-07
1.1191848e-09
5.8181532e-07
-2.8219223e-10
5.8173429e-07
-1.688229e-09
5.8182792e-07
-3.1093104e-09
5.8209958e-07
-4.5558557e-09
5.8255847e-07
-6.0383262e-09
5.8322011e-07
-7.5672066e-09
5.8410731e-07
-9.1529491e-09
5.8525157e-07
-1.0805868e-08
5.8669517e-07
-1.253598e-08
5.8849425e-07
-1.435283e-08
5.9072342e-07
-1.6265108e-08
5.934824e-07
-1.8279117e-08
5.9690324e-07
-2.0399445e-08
6.0115669e-07
-2.2673861e-08
6.0658546e-07
-2.5334182e-08
6.1452114e-07
-2.8453933e-08
6.2804299e-07
-2.9652505e-08
6.4296174e-07
-2.3050851e-08
6.1792441e-07
-8.1606276e-09
4.689856e-07
1.6627353e-07
4.8701968e-09
1.2978274e-07
1.9771891e-08
4.1082398e-07
3.0173465e-08
6.0164303e-07
3.1092517e-08
6.5620965e-07
2.8100589e-08
6.4385771e-07
2.5253787e-08
6.2544015e-07
2.2959888e-08
6.1449396e-07
2.0869533e-08
6.0766555e-07
1.8866881e-08
6.0248943e-07
1.6945379e-08
5.9832069e-07
1.5105097e-08
5.9494495e-07
1.334184e-08
5.9220405e-07
1.1649729e-08
5.8997472e-07
1.0021967e-08
5.8816482e-07
8.4510299e-09
5.8670517e-07
6.9288564e-09
5.8554352e-07
5.4470269e-09
5.8464041e-07
3.9968966e-09
5.8396645e-07
2.5696921e-09
5.8350053e-07
1.1565753e-09
5.8322844e-07
-2.5131616e-10
5.8314219e-07
-1.6628407e-09
5.8323945e-07
-3.0868323e-09
5.8352357e-07
-4.5320703e-09
5.8400371e-07
-6.0072353e-09
5.8469527e-07
-7.5208383e-09
5.8562091e-07
-9.0811183e-09
5.8681185e-07
-1.0695899e-08
5.8830995e-07
-1.2372403e-08
5.9017075e-07
-1.4117068e-08
5.9246809e-07
-1.5935119e-08
5.9530045e-07
-1.7829088e-08
5.9879721e-07
-1.9802452e-08
6.0313005e-07
-2.191331e-08
6.0869632e-07
-2.4383653e-08
6.1699148e-07
-2.7105436e-08
6.3076478e-07
-2.7490248e-08
6.4334655e-07
-2.0394118e-08
6.1082828e-07
-6.63112e-09
4.552226e-07
1.5964241e-07
4.0390982e-09
1.2574369e-07
1.7485707e-08
3.9737746e-07
2.7914541e-08
5.9121426e-07
2.9650463e-08
6.5447374e-07
2.7147791e-08
6.4636038e-07
2.4480232e-08
6.2810771e-07
2.2320139e-08
6.1665405e-07
2.0367516e-08
6.0961817e-07
1.8487667e-08
6.0436928e-07
1.6667977e-08
6.0014038e-07
1.4910189e-08
5.9670274e-07
1.3212443e-08
5.9390179e-07
1.1571083e-08
5.9161608e-07
9.9814955e-09
5.8975441e-07
8.4382523e-09
5.8824842e-07
6.9352599e-09
5.8704651e-07
5.4659241e-09
5.8610974e-07
4.0232922e-09
5.8540909e-07
2.6001718e-09
5.8492365e-07
1.1892236e-09
5.8463939e-07
-2.1696384e-10
5.8454837e-07
-1.6258094e-09
5.8464829e-07
-3.044681e-09
5.8494245e-07
-4.4808279e-09
5.8543985e-07
-5.9413019e-09
5.8615575e-07
-7.4328553e-09
5.8711247e-07
-8.9618141e-09
5.8834081e-07
-1.0533923e-08
5.8988205e-07
-1.2154171e-08
5.91791e-07
-1.3826618e-08
5.9414053e-07
-1.5553957e-08
5.9702779e-07
-1.7336317e-08
6.0057957e-07
-1.9178367e-08
6.049721e-07
-2.1148627e-08
6.1066658e-07
-2.3447916e-08
6.1929077e-07
-2.579366e-08
6.3311052e-07
-2.5486022e-08
6.4303891e-07
-1.810691e-08
6.0344917e-07
-5.4470034e-09
4.4256269e-07
1.5419541e-07
3.4359472e-09
1.223078e-07
1.5582186e-08
3.8523133e-07
2.5886058e-08
5.8091047e-07
2.8287702e-08
6.5207212e-07
2.6241618e-08
6.4840646e-07
2.3739635e-08
6.3060968e-07
2.1688354e-08
6.1870533e-07
1.9851782e-08
6.1145475e-07
1.8080555e-08
6.0614051e-07
1.6354016e-08
6.0186692e-07
1.4674099e-08
5.9838265e-07
1.3040396e-08
5.9553549e-07
1.1450752e-08
5.9320573e-07
9.9021356e-09
5.9130302e-07
8.3907341e-09
5.8975982e-07
6.9120459e-09
5.885252e-07
5.4610121e-09
5.8756077e-07
4.0321508e-09
5.8683795e-07
2.6196779e-09
5.8633612e-07
1.2176152e-09
5.8604145e-07
-1.8011586e-10
5.859461e-07
-1.5796079e-09
5.8604778e-07
-2.9868837e-09
5.8634972e-07
-4.4078066e-09
5.8686078e-07
-5.8479812e-09
5.8759592e-07
-7.3126371e-09
5.8857712e-07
-8.8064957e-09
5.8983467e-07
-1.0333624e-08
5.9140918e-07
-1.189729e-08
5.9335467e-07
-1.349982e-08
5.9574306e-07
-1.5142166e-08
5.9867014e-07
-1.6823224e-08
6.0226062e-07
-1.8550605e-08
6.0669948e-07
-2.0402044e-08
6.1251802e-07
-2.2547469e-08
6.214362e-07
-2.4543468e-08
6.3510652e-07
-2.3656667e-08
6.4215211e-07
-1.615525e-08
5.9594775e-07
-4.5398665e-09
4.3094731e-07
1.4965554e-07
2.996113e-09
1.1931175e-07
1.3992859e-08
3.7423471e-07
2.407016e-08
5.7083327e-07
2.7009388e-08
6.4913292e-07
2.5386455e-08
6.5002938e-07
2.3040018e-08
6.3295611e-07
2.1077389e-08
6.2066796e-07
1.9337205e-08
6.1319493e-07
1.7660723e-08
6.0781699e-07
1.6018171e-08
6.0350947e-07
1.4410475e-08
5.9999035e-07
1.2837988e-08
5.9710798e-07
1.1299498e-08
5.9474422e-07
9.7930642e-09
5.9280946e-07
8.3160746e-09
5.9123681e-07
6.8652795e-09
5.89976e-07
5.4368802e-09
5.8898917e-07
4.0266413e-09
5.8824819e-07
2.6300042e-09
5.8773276e-07
1.2421959e-09
5.8742926e-07
-1.4166946e-10
5.8732997e-07
-1.5264935e-09
5.8743261e-07
-2.9170971e-09
5.8774033e-07
-4.3181201e-09
5.882618e-07
-5.7339138e-09
5.8901172e-07
-7.1684233e-09
5.9001163e-07
-8.625062e-09
5.912913e-07
-1.0106587e-08
5.9289071e-07
-1.1614992e-08
5.9486307e-07
-1.3151406e-08
5.9727948e-07
-1.4715695e-08
6.0023443e-07
-1.6306493e-08
6.0385142e-07
-1.7935537e-08
6.0832853e-07
-1.9687661e-08
6.1427014e-07
-2.1694179e-08
6.2344272e-07
-2.3368349e-08
6.3678069e-07
-2.2003358e-08
6.4078712e-07
-1.44981e-08
5.8844249e-07
-3.849811e-09
4.2029902e-07
1.4580573e-07
2.6707568e-09
1.1664106e-07
1.2657984e-08
3.6424764e-07
2.2444098e-08
5.6104729e-07
2.5814161e-08
6.457629e-07
2.4581908e-08
6.5126163e-07
2.2384092e-08
6.3515392e-07
2.0494655e-08
6.2255739e-07
1.8833764e-08
6.1485582e-07
1.7239113e-08
6.0941164e-07
1.5671543e-08
6.0507704e-07
1.4130027e-08
6.0153187e-07
1.2615151e-08
5.9862286e-07
1.1126233e-08
5.9623314e-07
9.662033e-09
5.9427365e-07
8.2207998e-09
5.9267804e-07
6.8002402e-09
5.9139656e-07
5.3975656e-09
5.9039185e-07
4.0095746e-09
5.8963618e-07
2.6327515e-09
5.8910958e-07
1.2633668e-09
5.8879864e-07
-1.0242202e-10
5.8869576e-07
-1.4684718e-09
5.8879866e-07
-2.8385543e-09
5.8911041e-07
-4.2162538e-09
5.896395e-07
-5.6048619e-09
5.9040032e-07
-7.0072668e-09
5.9141403e-07
-8.4258443e-09
5.9270988e-07
-9.8623626e-09
5.9432723e-07
-1.1317919e-08
5.9631863e-07
-1.2792877e-08
5.9875444e-07
-1.4286534e-08
6.0172808e-07
-1.5798043e-08
6.0536293e-07
-1.7343934e-08
6.0987442e-07
-1.9013418e-08
6.1593962e-07
-2.089354e-08
6.2532284e-07
-2.2273442e-08
6.3816059e-07
-2.0517396e-08
6.3903107e-07
-1.3092952e-08
5.8101805e-07
-3.3264308e-09
4.105325e-07
1.424793e-07
2.424138e-09
1.1421701e-07
1.1527646e-08
3.5514432e-07
2.098432e-08
5.5159077e-07
2.4697037e-08
6.4205025e-07
2.3824807e-08
6.5213386e-07
2.1771151e-08
6.3720757e-07
1.9943687e-08
6.2438485e-07
1.834774e-08
6.1645177e-07
1.6823339e-08
6.1093604e-07
1.5322309e-08
6.0657807e-07
1.3840969e-08
6.030132e-07
1.2379744e-08
6.0008408e-07
1.0938181e-08
5.976747e-07
9.5154551e-09
5.9569638e-07
8.1103977e-09
5.940831e-07
6.7214271e-09
5.9278553e-07
5.3465452e-09
5.9176673e-07
3.9833913e-09
5.9099933e-07
2.6293189e-09
5.9046365e-07
1.2814841e-09
5.9014648e-07
-6.3062161e-11
5.900403e-07
-1.4072795e-09
5.9014287e-07
-2.7540435e-09
5.9045717e-07
-4.1060476e-09
5.909915e-07
-5.4657068e-09
5.9175998e-07
-6.8350606e-09
5.9278339e-07
-8.2156855e-09
5.9409051e-07
-9.6086323e-09
5.9572017e-07
-1.1014407e-08
5.977244e-07
-1.243294e-08
6.0017297e-07
-1.3863366e-08
6.0315851e-07
-1.5305945e-08
6.0680551e-07
-1.6782212e-08
6.1135068e-07
-1.8382731e-08
6.1754014e-07
-2.0146559e-08
6.2708667e-07
-2.1258205e-08
6.3927224e-07
-1.9184743e-08
6.3695761e-07
-1.1899648e-08
5.7373296e-07
-2.9287202e-09
4.0156157e-07
1.3955058e-07
2.2308763e-09
1.1198624e-07
1.0561387e-08
3.4681403e-07
1.9668759e-08
5.424836e-07
2.3651456e-08
6.3806763e-07
2.3110673e-08
6.5267464e-07
2.1198495e-08
6.3911973e-07
1.9425385e-08
6.2615796e-07
1.7882705e-08
6.1799445e-07
1.6418452e-08
6.124003e-07
1.4976307e-08
6.0802022e-07
1.3549451e-08
6.0444006e-07
1.2137853e-08
6.0149568e-07
1.0741089e-08
5.9907146e-07
9.3585347e-09
5.9707894e-07
7.9893963e-09
5.9545224e-07
6.6326015e-09
5.9414232e-07
5.2867571e-09
5.9311257e-07
3.9501714e-09
5.9233592e-07
2.6209088e-09
5.9179291e-07
1.2968621e-09
5.9147052e-07
-2.4167022e-11
5.9136133e-07
-1.3443839e-09
5.9146309e-07
-2.6659134e-09
5.917787e-07
-3.9907129e-09
5.923163e-07
-5.3204882e-09
5.9308976e-07
-6.656614e-09
5.9411951e-07
-8.0000706e-09
5.9543396e-07
-9.3514137e-09
5.9707151e-07
-1.0710794e-08
5.9908378e-07
-1.207796e-08
6.0154013e-07
-1.3452178e-08
6.0453273e-07
-1.4835247e-08
6.0818858e-07
-1.6253538e-08
6.1276898e-07
-1.779588e-08
6.1908248e-07
-1.9451331e-08
6.2874212e-07
-2.0318611e-08
6.4013952e-07
-1.7989152e-08
6.3462815e-07
-1.0882312e-08
5.6662612e-07
-2.6242247e-09
3.9330348e-07
1.3692636e-07
2.0734862e-09
1.0991288e-07
9.7270981e-09
3.3916068e-07
1.8477877e-08
5.3373306e-07
2.2670561e-08
6.3387505e-07
2.2434697e-08
6.5291051e-07
2.0662455e-08
6.4089196e-07
1.8938982e-08
6.2788142e-07
1.7440329e-08
6.194931e-07
1.6027594e-08
6.1381303e-07
1.4637553e-08
6.0941026e-07
1.3259953e-08
6.0581766e-07
1.1894089e-08
6.0286154e-07
1.0539433e-08
6.0042612e-07
9.1954165e-09
5.9842295e-07
7.8614634e-09
5.9678619e-07
6.5368522e-09
5.9546693e-07
5.2206403e-09
5.9442879e-07
3.9116574e-09
5.936449e-07
2.6085385e-09
5.9309603e-07
1.3097774e-09
5.9276929e-07
1.3794184e-11
5.9265731e-07
-1.280994e-09
5.9275788e-07
-2.5760959e-09
5.930738e-07
-3.8728734e-09
5.9361308e-07
-5.1724715e-09
5.9438935e-07
-6.4757579e-09
5.954228e-07
-7.7832843e-09
5.9674149e-07
-9.0952873e-09
5.9838352e-07
-1.041174e-08
6.0040024e-07
-1.1732384e-08
6.0286078e-07
-1.3056836e-08
6.0585718e-07
-1.4388712e-08
6.0952045e-07
-1.575877e-08
6.1413903e-07
-1.7251119e-08
6.2057483e-07
-1.8804255e-08
6.3029525e-07
-1.9448755e-08
6.4078402e-07
-1.6914112e-08
6.3209351e-07
-1.0009878e-08
5.5972188e-07
-2.3878303e-09
3.8568143e-07
1.3453852e-07
1.9402967e-09
1.0797272e-07
8.9996553e-09
3.3210163e-07
1.7394958e-08
5.2533804e-07
2.1747905e-08
6.2952224e-07
2.1792311e-08
6.5286612e-07
2.0159064e-08
6.4252519e-07
1.848275e-08
6.2955773e-07
1.7021003e-08
6.2095484e-07
1.5652529e-08
6.151815e-07
1.4308682e-08
6.107541e-07
1.297564e-08
6.071507e-07
1.1651861e-08
6.0418532e-07
1.0336629e-08
6.0174135e-07
9.0293387e-09
5.9973024e-07
7.7295174e-09
5.9808601e-07
6.4366721e-09
5.9675978e-07
5.1501862e-09
5.9571527e-07
3.8692873e-09
5.949258e-07
2.5930581e-09
5.9437226e-07
1.3204741e-09
5.9404187e-07
5.0454675e-11
5.9392733e-07
-1.2180788e-09
5.9402641e-07
-2.4861406e-09
5.9434186e-07
-3.7546206e-09
5.9488156e-07
-5.0242308e-09
5.9565896e-07
-6.295464e-09
5.9669403e-07
-7.5685785e-09
5.980146e-07
-8.8436258e-09
5.9965856e-07
-1.012053e-08
6.0167714e-07
-1.1399144e-08
6.0413939e-07
-1.2679585e-08
6.0713762e-07
-1.3967446e-08
6.1080831e-07
-1.5297212e-08
6.154688e-07
-1.6745515e-08
6.2202313e-07
-1.8200904e-08
6.3175064e-07
-1.8641968e-08
6.4122508e-07
-1.5944032e-08
6.2939557e-07
-9.2562182e-09
5.5303407e-07
-2.2005641e-09
3.7862578e-07
1.3233796e-07
1.8237664e-09
1.0614912e-07
8.3595704e-09
3.2556618e-07
1.6405987e-08
5.1729196e-07
2.0877778e-08
6.2505062e-07
2.1179467e-08
6.5256446e-07
1.9684453e-08
6.4402019e-07
1.8054473e-08
6.311877e-07
1.6624301e-08
6.2238502e-07
1.5294055e-08
6.1651175e-07
1.3991306e-08
6.1205685e-07
1.2698661e-08
6.0844335e-07
1.141362e-08
6.0547036e-07
1.0135226e-08
6.0301974e-07
8.8627818e-09
6.0100269e-07
7.595838e-09
5.9935295e-07
6.3340391e-09
5.9802158e-07
5.0769955e-09
5.9697231e-07
3.82423e-09
5.9617856e-07
2.5751704e-09
5.9562132e-07
1.3291695e-09
5.9528787e-07
8.5541811e-11
5.9517096e-07
-1.156392e-09
5.9526835e-07
-2.3972565e-09
5.9558273e-07
-3.6375766e-09
5.9612188e-07
-4.8777391e-09
5.9689913e-07
-6.1179697e-09
5.9793426e-07
-7.3583387e-09
5.9925497e-07
-8.5988123e-09
6.0089904e-07
-9.8393522e-09
6.0291768e-07
-1.1079999e-08
6.0538004e-07
-1.2321475e-08
6.083791e-07
-1.3571401e-08
6.1205824e-07
-1.4867191e-08
6.1676459e-07
-1.6275545e-08
6.2343149e-07
-1.7636613e-08
6.3311171e-07
-1.7891549e-08
6.4148002e-07
-1.5064872e-08
6.2656889e-07
-8.5998117e-09
5.4656901e-07
-2.0484267e-09
3.7207439e-07
1.3028953e-07
1.7191747e-09
1.0443014e-07
7.7917661e-09
3.1949401e-07
1.5499341e-08
5.0958479e-07
2.0055299e-08
6.2049487e-07
2.0592753e-08
6.5202704e-07
1.9235075e-08
6.4537785e-07
1.7651763e-08
6.32771e-07
1.6249304e-08
6.2378747e-07
1.4952316e-08
6.1780874e-07
1.3686296e-08
6.1332287e-07
1.24304e-08
6.0969924e-07
1.1181069e-08
6.0671969e-07
9.937078e-09
6.0426373e-07
8.6976041e-09
6.0224216e-07
7.4621718e-09
6.0058839e-07
6.2304948e-09
5.9925325e-07
5.0023336e-09
5.9820048e-07
3.7774235e-09
5.9740347e-07
2.5554509e-09
5.9684329e-07
1.3360578e-09
5.9650726e-07
1.1886489e-10
5.9638815e-07
-1.0964982e-09
5.9648371e-07
-2.3103566e-09
5.9679659e-07
-3.5229601e-09
5.9733448e-07
-4.7344591e-09
5.9811063e-07
-5.9448984e-09
5.991447e-07
-7.1542408e-09
6.0046431e-07
-8.3624378e-09
6.0210723e-07
-9.5695447e-09
6.0412479e-07
-1.0775836e-08
6.0658633e-07
-1.1982701e-08
6.0958596e-07
-1.3199765e-08
6.132753e-07
-1.4466478e-08
6.180313e-07
-1.5837503e-08
6.2480251e-07
-1.710686e-08
6.3438107e-07
-1.719121e-08
6.4156437e-07
-1.4264378e-08
6.2364206e-07
-8.023212e-09
5.4032784e-07
-1.9213172e-09
3.659725e-07
1.2836822e-07
1.6236512e-09
1.0280671e-07
7.2845418e-09
3.1383361e-07
1.4665395e-08
5.0220442e-07
1.9276373e-08
6.1588416e-07
2.0029379e-08
6.5127409e-07
1.8807801e-08
6.4659941e-07
1.7272246e-08
6.3430654e-07
1.5894821e-08
6.2516489e-07
1.4627025e-08
6.1907653e-07
1.3394003e-08
6.145559e-07
1.2171669e-08
6.1092158e-07
1.0955336e-08
6.0793603e-07
9.7434867e-09
6.0547558e-07
8.5351625e-09
6.0345048e-07
7.3298282e-09
6.0179372e-07
6.1272184e-09
6.0045586e-07
4.9271849e-09
5.9940051e-07
3.7296099e-09
5.9860105e-07
2.5343676e-09
5.9803853e-07
1.3413156e-09
5.9770031e-07
1.5030545e-10
5.9757916e-07
-1.0387999e-09
5.9767281e-07
-2.226102e-09
5.9798389e-07
-3.41165e-09
5.9852003e-07
-4.5954296e-09
5.9929441e-07
-5.7773716e-09
6.0032664e-07
-6.9573911e-09
6.0164433e-07
-8.1354732e-09
6.0328532e-07
-9.3117991e-09
6.0530111e-07
-1.0486902e-08
6.0776143e-07
-1.1662873e-08
6.1076193e-07
-1.2851252e-08
6.1446368e-07
-1.4092591e-08
6.1927264e-07
-1.5427772e-08
6.2613769e-07
-1.6607489e-08
6.3556078e-07
-1.6535297e-08
6.4149217e-07
-1.3532086e-08
6.2063885e-07
-7.5124322e-09
5.3430819e-07
-1.8121019e-09
3.6027217e-07
1.2655611e-07
1.5354867e-09
1.0127148e-07
6.8287412e-09
3.0854092e-07
1.3896148e-08
4.9513757e-07
1.8537578e-08
6.1124305e-07
1.9487115e-08
6.5032464e-07
1.8399944e-08
6.4768656e-07
1.691368e-08
6.3579278e-07
1.555954e-08
6.2651903e-07
1.4317626e-08
6.2031845e-07
1.3114413e-08
6.1575911e-07
1.1922864e-08