/*--------------------------------*- C++ -*----------------------------------*\
  =========                 |
  \\      /  F ield         | OpenFOAM: The Open Source CFD Toolbox
   \\    /   O peration     | Website:  https://openfoam.org
    \\  /    A nd           | Version:  10
     \\/     M anipulation  |
\*---------------------------------------------------------------------------*/
FoamFile
{
    format      ascii;
    class       surfaceScalarField;
    location    "0.24";
    object      phi_0;
}
// * * * * * * * * * * * * * * * * * * * * * * * * * * * * * * * * * * * * * //

dimensions      [1 0 -1 0 0 0 0];

internalField   nonuniform List<scalar> 
7860
(
3.9895982e-08
5.2881205e-07
1.2192734e-08
5.9641105e-07
7.4279173e-09
5.7347256e-07
5.4994405e-09
5.7063618e-07
4.1150199e-09
5.700921e-07
3.2011671e-09
5.6962151e-07
2.5591727e-09
5.6934963e-07
2.0793435e-09
5.6918745e-07
1.7093508e-09
5.690776e-07
1.4166715e-09
5.6900028e-07
1.1795099e-09
5.6894475e-07
9.8310331e-10
5.6890399e-07
8.1710813e-10
5.6887358e-07
6.7403426e-10
5.6885065e-07
5.4830852e-10
5.688333e-07
4.356704e-10
5.6882021e-07
3.3276631e-10
5.6881047e-07
2.3686903e-10
5.6880346e-07
1.4567574e-10
5.6879876e-07
5.7155467e-11
5.6879608e-07
-3.0574417e-11
5.6879529e-07
-1.1935605e-10
5.6879634e-07
-2.1109568e-10
5.687993e-07
-3.078706e-10
5.6880434e-07
-4.1206139e-10
5.6881176e-07
-5.2651486e-10
5.6882202e-07
-6.5476479e-10
5.6883582e-07
-8.0134488e-10
5.6885416e-07
-9.7224917e-10
5.6887848e-07
-1.1756389e-09
5.6891097e-07
-1.4230152e-09
5.6895497e-07
-1.7311897e-09
5.6901577e-07
-2.1251404e-09
5.6910156e-07
-2.6447486e-09
5.6922723e-07
-3.372428e-09
5.6943532e-07
-4.4637298e-09
5.6979896e-07
-6.0090598e-09
5.7025301e-07
-9.5080584e-09
5.7220671e-07
-2.9575887e-08
5.8877559e-07
5.3913204e-07
5.9672506e-08
4.6913955e-07
3.6665981e-08
6.1941758e-07
2.2628171e-08
5.8751037e-07
1.6253589e-08
5.7701077e-07
1.2290533e-08
5.7405515e-07
9.6062882e-09
5.7230575e-07
7.6775118e-09
5.7127841e-07
6.2361685e-09
5.7062879e-07
5.126662e-09
5.7018711e-07
4.2489197e-09
5.6987802e-07
3.5376069e-09
5.6965607e-07
2.9485549e-09
5.6949304e-07
2.4507184e-09
5.6937141e-07
2.021622e-09
5.6927975e-07
1.6445512e-09
5.6921037e-07
1.3067285e-09
5.6915803e-07
9.9809676e-10
5.691191e-07
7.1047752e-10
5.6909108e-07
4.369651e-10
5.6907227e-07
1.7146784e-10
5.6906158e-07
-9.1660567e-11
5.6905842e-07
-3.5794329e-10
5.6906263e-07
-6.3309248e-10
5.6907445e-07
-9.2334036e-10
5.6909459e-07
-1.2358261e-09
5.6912424e-07
-1.5790866e-09
5.6916528e-07
-1.963719e-09
5.6922045e-07
-2.4033195e-09
5.6929376e-07
-2.9158709e-09
5.6939103e-07
-3.5258655e-09
5.6952097e-07
-4.2677223e-09
5.6969682e-07
-5.1918062e-09
5.6993986e-07
-6.3747417e-09
5.702845e-07
-7.9352457e-09
5.7078773e-07
-1.007654e-08
5.7157661e-07
-1.3204749e-08
5.7292717e-07
-1.8134639e-08
5.751829e-07
-2.817688e-08
5.8224895e-07
-4.5802824e-08
6.0640153e-07
4.9332922e-07
6.0008815e-08
4.0913073e-07
5.0487257e-08
6.2893913e-07
3.3370673e-08
6.0462696e-07
2.4817697e-08
5.8556374e-07
1.932329e-08
5.7954956e-07
1.5331566e-08
5.7629748e-07
1.2360811e-08
5.7424916e-07
1.0101671e-08
5.7288793e-07
8.3407702e-09
5.7194801e-07
6.9349871e-09
5.712838e-07
5.788243e-09
5.7080281e-07
4.833773e-09
5.7044751e-07
4.0238122e-09
5.7018137e-07
3.3233753e-09
5.6998018e-07
2.7061983e-09
5.6982755e-07
2.1520491e-09
5.6971218e-07
1.6449021e-09
5.6962625e-07
1.1716579e-09
5.6956432e-07
7.2120923e-10
5.6952272e-07
2.8372777e-10
5.6949906e-07
-1.4991298e-10
5.6949206e-07
-5.8864406e-10
5.6950136e-07
-1.041694e-09
5.695275e-07
-1.5191092e-09
5.69572e-07
-2.0323565e-09
5.6963749e-07
-2.5950828e-09
5.6972801e-07
-3.2241267e-09
5.698495e-07
-3.9409296e-09
5.7001056e-07
-4.7735856e-09
5.7022369e-07
-5.7599047e-09
5.7050729e-07
-6.9520721e-09
5.7088899e-07
-8.4242857e-09
5.7141207e-07
-1.0285943e-08
5.7214615e-07
-1.2698917e-08
5.7320071e-07
-1.5896363e-08
5.7477406e-07
-2.0240168e-08
5.7727097e-07
-2.6708468e-08
5.816512e-07
-3.8947964e-08
5.9448845e-07
-4.8167191e-08
6.1562076e-07
4.4516203e-07
5.4879032e-08
3.542517e-07
5.7452148e-08
6.2636602e-07
4.0467533e-08
6.2161157e-07
3.0778764e-08
5.9525251e-07
2.4643079e-08
5.8568524e-07
1.9952351e-08
5.809882e-07
1.6313026e-08
5.7788849e-07
1.3466648e-08
5.7573431e-07
1.1201102e-08
5.7421356e-07
9.3646839e-09
5.7312022e-07
7.8495086e-09
5.7231799e-07
6.577088e-09
5.7171993e-07
5.4895762e-09
5.7126888e-07
4.5436606e-09
5.709261e-07
3.7062468e-09
5.7066496e-07
2.9514776e-09
5.7046695e-07
2.2586357e-09
5.7031909e-07
1.6106259e-09
5.7021233e-07
9.9284335e-10
5.701405e-07
3.9229345e-10
5.7009961e-07
-2.0313104e-10
5.7008749e-07
-8.0529015e-10
5.7010352e-07
-1.4264181e-09
5.7014863e-07
-2.0797773e-09
5.7022536e-07
-2.7804094e-09
5.7033812e-07
-3.5460627e-09
5.7049366e-07
-4.3983999e-09
5.7070183e-07
-5.3646305e-09
5.7097679e-07
-6.4797917e-09
5.7133885e-07
-7.7900087e-09
5.718175e-07
-9.3570614e-09
5.7245604e-07
-1.126477e-08
5.7331978e-07
-1.3629399e-08
5.7451078e-07
-1.6612292e-08
5.761836e-07
-2.0411221e-08
5.7857298e-07
-2.5292859e-08
5.8215261e-07
-3.2517136e-08
5.8887548e-07
-4.5100755e-08
6.0707207e-07
-4.6549249e-08
6.1706925e-07
3.9861278e-07
4.7965736e-08
3.0628597e-07
6.0076475e-08
6.1425528e-07
4.5400112e-08
6.3628793e-07
3.4875342e-08
6.0577728e-07
2.8399865e-08
5.9216072e-07
2.341965e-08
5.8596842e-07
1.9434357e-08
5.8187378e-07
1.6229248e-08
5.7893942e-07
1.3619809e-08
5.7682299e-07
1.1466631e-08
5.752734e-07
9.6645897e-09
5.7412003e-07
8.1336445e-09
5.7325088e-07
6.8127725e-09
5.7258976e-07
5.6549617e-09
5.7208391e-07
4.6234369e-09
5.7169648e-07
3.6889119e-09
5.7140147e-07
2.8275481e-09
5.7118045e-07
2.0194162e-09
5.7102047e-07
1.2473114e-09
5.709126e-07
4.9580863e-10
5.7085111e-07
-2.4953098e-10
5.7083282e-07
-1.0028696e-09
5.7085685e-07
-1.7787834e-09
5.7092454e-07
-2.5929848e-09
5.7103956e-07
-3.4631387e-09
5.7120827e-07
-4.409846e-09
5.7144037e-07
-5.4578841e-09
5.7174987e-07
-6.6378159e-09
5.7215672e-07
-7.9881166e-09
5.7268915e-07
-9.5580479e-09
5.7338744e-07
-1.1411433e-08
5.7430943e-07
-1.3631083e-08
5.7553943e-07
-1.6325298e-08
5.77205e-07
-1.9637682e-08
5.7949598e-07
-2.3738495e-08
5.826738e-07
-2.8930653e-08
5.8734477e-07
-3.6790939e-08
5.9673576e-07
-4.8463565e-08
6.1874469e-07
-4.3194086e-08
6.1179977e-07
3.5541869e-07
4.0336019e-08
2.6594996e-07
5.8994034e-08
5.9559727e-07
4.8330054e-08
6.4695191e-07
3.7588074e-08
6.1651926e-07
3.0928915e-08
5.9881988e-07
2.5894059e-08
5.9100327e-07
2.1780105e-08
5.8598773e-07
1.8392199e-08
5.8232733e-07
1.5577686e-08
5.7963751e-07
1.3214516e-08
5.7763657e-07
1.120675e-08
5.7612779e-07
9.4790968e-09
5.7497853e-07
7.9724141e-09
5.7409644e-07
6.639798e-09
5.7341652e-07
5.4436219e-09
5.7289266e-07
4.3532681e-09
5.7249183e-07
3.3433489e-09
5.7219037e-07
2.3923065e-09
5.7197151e-07
1.4812954e-09
5.7182362e-07
5.932617e-10
5.7173915e-07
-2.8784724e-10
5.7171393e-07
-1.1778002e-09
5.7174681e-07
-2.0927848e-09
5.7183953e-07
-3.0501356e-09
5.7199691e-07
-4.0691402e-09
5.7222728e-07
-5.1719854e-09
5.7254321e-07
-6.3849087e-09
5.729628e-07
-7.739633e-09
5.7351144e-07
-9.2751645e-09
5.7422468e-07
-1.10401e-08
5.7515237e-07
-1.309566e-08
5.7636499e-07
-1.5519109e-08
5.7796288e-07
-1.8407847e-08
5.8009373e-07
-2.1886048e-08
5.8297418e-07
-2.6109497e-08
5.8689725e-07
-3.1487708e-08
5.9272298e-07
-3.9654052e-08
6.049021e-07
-4.917191e-08
6.2826255e-07
-3.8578218e-08
6.0120608e-07
3.1684047e-07
3.2862664e-08
2.330873e-07
5.5249929e-08
5.7321001e-07
4.9232175e-08
6.5296967e-07
3.9061473e-08
6.2668996e-07
3.243066e-08
6.0545069e-07
2.7518811e-08
5.9591512e-07
2.3438807e-08
5.9006774e-07
2.0003074e-08
5.8576306e-07
1.7095059e-08
5.8254552e-07
1.4612541e-08
5.8011909e-07
1.2471729e-08
5.782686e-07
1.0605376e-08
5.7684489e-07
8.9592403e-09
5.7574257e-07
7.489129e-09
5.7488664e-07
6.1587128e-09
5.7422308e-07
4.9377661e-09
5.7371277e-07
3.8007242e-09
5.7332741e-07
2.7255068e-09
5.7304673e-07
1.6925419e-09
5.7285658e-07
6.8393476e-10
5.7274775e-07
-3.1726443e-10
5.7271513e-07
-1.3277347e-09
5.7275728e-07
-2.36455e-09
5.7287634e-07
-3.4458627e-09
5.7307823e-07
-4.5916452e-09
5.7337306e-07
-5.8245367e-09
5.737761e-07
-7.1708409e-09
5.743091e-07
-8.6617263e-09
5.7500233e-07
-1.0334677e-08
5.7589763e-07
-1.2235267e-08
5.7705296e-07
-1.4419551e-08
5.7854927e-07
-1.6956956e-08
5.8050028e-07
-1.9932325e-08
5.830691e-07
-2.3446435e-08
5.8648829e-07
-2.7640706e-08
5.9109152e-07
-3.3033552e-08
5.9811582e-07
-4.1009872e-08
6.1287843e-07
-4.7687032e-08
6.3493971e-07
-3.3375753e-08
5.868948e-07
2.8346472e-07
2.618895e-08
2.0689836e-07
5.0132576e-08
5.492664e-07
4.8493435e-08
6.5460881e-07
3.9490955e-08
6.3569244e-07
3.3077408e-08
6.1186424e-07
2.8412052e-08
6.0058048e-07
2.4493008e-08
5.9398678e-07
2.1118418e-08
5.8913765e-07
1.82074e-08
5.8545654e-07
1.5680727e-08
5.8264576e-07
1.3469262e-08
5.8048007e-07
1.1515826e-08
5.7879832e-07
9.7729045e-09
5.774855e-07
8.2007061e-09
5.7645883e-07
6.7657e-09
5.7565808e-07
5.4393413e-09
5.7503913e-07
4.1969833e-09
5.7456977e-07
3.0169542e-09
5.7422675e-07
1.8797591e-09
5.7399377e-07
7.6737743e-10
5.7386014e-07
-3.3737349e-10
5.7381988e-07
-1.4514348e-09
5.7387134e-07
-2.5920986e-09
5.7401701e-07
-3.7776107e-09
5.7426374e-07
-5.0278136e-09
5.7462326e-07
-6.3648607e-09
5.7511315e-07
-7.8140293e-09
5.7575827e-07
-9.4046677e-09
5.7659297e-07
-1.1171303e-08
5.7766427e-07
-1.3154908e-08
5.7903657e-07
-1.5404555e-08
5.8079892e-07
-1.7979529e-08
5.8307526e-07
-2.0949283e-08
5.8603886e-07
-2.4389009e-08
5.8992802e-07
-2.8434238e-08
5.9513675e-07
-3.3690204e-08
6.0337179e-07
-4.1061495e-08
6.2024972e-07
-4.4796265e-08
6.3867448e-07
-2.8203989e-08
5.7030252e-07
2.5526073e-07
2.057084e-08
1.8632753e-07
4.458301e-08
5.2525424e-07
4.664271e-08
6.5254911e-07
3.9153014e-08
6.4318213e-07
3.3083716e-08
6.1793354e-07
2.8717599e-08
6.0494659e-07
2.5038224e-08
5.9766616e-07
2.1803977e-08
5.923719e-07
1.8959539e-08
5.8830098e-07
1.6448858e-08
5.8515644e-07
1.4218436e-08
5.8271049e-07
1.222209e-08
5.8079467e-07
1.0420039e-08
5.7928755e-07
8.7779259e-09
5.7810095e-07
7.2659967e-09
5.7717001e-07
5.8582842e-09
5.7644684e-07
4.5318707e-09
5.7589619e-07
3.2662214e-09
5.754924e-07
2.0425776e-09
5.7521742e-07
8.4339995e-10
5.7505931e-07
-3.4815198e-10
5.7501143e-07
-1.5487156e-09
5.750719e-07
-2.7752229e-09
5.7524351e-07
-4.0454011e-09
5.7553391e-07
-5.378298e-09
5.7595616e-07
-6.7948472e-09
5.765297e-07
-8.3184858e-09
5.7728191e-07
-9.975839e-09
5.7825032e-07
-1.1797487e-08
5.7948592e-07
-1.381876e-08
5.8105784e-07
-1.6080647e-08
5.8306081e-07
-1.8630999e-08
5.8562561e-07
-2.1522922e-08
5.8893078e-07
-2.4810436e-08
5.9321553e-07
-2.8639756e-08
5.9896607e-07
-3.36582e-08
6.0839023e-07
-4.0142242e-08
6.2673376e-07
-4.115767e-08
6.3968991e-07
-2.3416302e-08
5.5256115e-07
2.3184443e-07
1.6015394e-08
1.7031216e-07
3.9143658e-08
5.02126e-07
4.4118236e-08
6.4757454e-07
3.8289371e-08
6.4901099e-07
3.2653715e-08
6.2356919e-07
2.8591508e-08
6.090088e-07
2.5183627e-08
6.0107404e-07
2.213612e-08
5.954194e-07
1.9405096e-08
5.91032e-07
1.6954496e-08
5.8760704e-07
1.4745342e-08
5.8491964e-07
1.2742035e-08
5.8279797e-07
1.0912663e-08
5.8111692e-07
9.2287035e-09
5.7978491e-07
7.6646816e-09
5.7873403e-07
6.1977491e-09
5.7791378e-07
4.8072587e-09
5.7728668e-07
3.474336e-09
5.7682533e-07
2.1814589e-09
5.765103e-07
9.1204889e-10
5.7632872e-07
-3.4992557e-10
5.7627341e-07
-1.620336e-09
5.7634231e-07
-2.9152856e-09
5.7653846e-07
-4.2515001e-09
5.7687013e-07
-5.6467266e-09
5.7735139e-07
-7.1201487e-09
5.7800312e-07
-8.6928135e-09
5.7885457e-07
-1.038807e-08
5.7994558e-07
-1.2232026e-08
5.8132987e-07
-1.4253964e-08
5.8307978e-07
-1.6486712e-08
5.8529355e-07
-1.8967021e-08
5.8810592e-07
-2.1733033e-08
5.9169679e-07
-2.4825223e-08
5.9630772e-07
-2.8412467e-08
6.0255331e-07
-3.3121904e-08
6.1309967e-07
-3.8547038e-08
6.3215889e-07
-3.7213738e-08
6.3835661e-07
-1.9182089e-08
5.345295e-07
2.1266234e-07
1.2423652e-08
1.5788852e-07
3.411362e-08
4.8043607e-07
4.1249225e-08
6.4043895e-07
3.7078178e-08
6.5318204e-07
3.1941533e-08
6.2870583e-07
2.81685e-08
6.1278183e-07
2.5032848e-08
6.0420969e-07
2.2192094e-08
5.9826016e-07
1.9601169e-08
5.9362293e-07
1.7239488e-08
5.8996872e-07
1.5080416e-08
5.8707872e-07
1.3097639e-08
5.8478075e-07
1.1266518e-08
5.8294804e-07
9.5641963e-09
5.8148723e-07
7.9695551e-09
5.8032867e-07
6.4630805e-09
5.7942025e-07
5.026686e-09
5.7872307e-07
3.6434846e-09
5.7820853e-07
2.297533e-09
5.7785625e-07
9.7356149e-10
5.7765269e-07
-3.4330346e-10
5.7759027e-07
-1.6678177e-09
5.7766683e-07
-3.0149054e-09
5.7788555e-07
-4.3999403e-09
5.7825516e-07
-5.8390232e-09
5.7879047e-07
-7.3492566e-09
5.7951336e-07
-8.9490033e-09
5.8045432e-07
-1.0658119e-08
5.8165469e-07
-1.2498161e-08
5.8316991e-07
-1.4492551e-08
5.8507417e-07
-1.6666603e-08
5.8746761e-07
-1.9047208e-08
5.9048652e-07
-2.1659862e-08
5.9430945e-07
-2.453876e-08
5.9918662e-07
-2.7878428e-08
6.0589298e-07
-3.2224001e-08
6.1744524e-07
-3.6518021e-08
6.3645291e-07
-3.3265739e-08
6.3510433e-07
-1.5563026e-08
5.1682679e-07
1.9709931e-07
9.6569945e-09
1.4823155e-07
2.9645205e-08
4.604479e-07
3.8282326e-08
6.3180185e-07
3.5657601e-08
6.5580676e-07
3.1058345e-08
6.3330509e-07
2.755294e-08
6.1628724e-07
2.4672451e-08
6.0709018e-07
2.2040669e-08
6.0089194e-07
1.9601625e-08
5.9606197e-07
1.7345347e-08
5.92225e-07
1.5255221e-08
5.8916884e-07
1.3312661e-08
5.8672331e-07
1.1499331e-08
5.8476137e-07
9.7975023e-09
5.8318906e-07
8.1901672e-09
5.8193601e-07
6.6611014e-09
5.8094932e-07
5.1948562e-09
5.8018932e-07
3.7766838e-09
5.796267e-07
2.3924159e-09
5.7924051e-07
1.0283132e-09
5.790168e-07
-3.2910541e-10
5.7894769e-07
-1.6932418e-09
5.7903096e-07
-3.0776068e-09
5.7926991e-07
-4.4959995e-09
5.7967356e-07
-5.9626783e-09
5.8025715e-07
-7.4925122e-09
5.8104319e-07
-9.1011046e-09
5.8206291e-07
-1.0804869e-08
5.8335846e-07
-1.2621057e-08
5.849861e-07
-1.4567752e-08
5.8702086e-07
-1.6663697e-08
5.8956355e-07
-1.8927371e-08
5.9275019e-07
-2.1374284e-08
5.9675636e-07
-2.4038568e-08
6.018509e-07
-2.7136499e-08
6.0899091e-07
-3.108265e-08
6.2139139e-07
-3.4259318e-08
6.3962958e-07
-2.9518815e-08
6.3036382e-07
-1.2554471e-08
4.9986244e-07
1.8454484e-07
7.5665974e-09
1.4066498e-07
2.5786075e-08
4.4222847e-07
3.5388396e-08
6.2219955e-07
3.413749e-08
6.5705767e-07
3.0087138e-08
6.3735543e-07
2.6824811e-08
6.1954956e-07
2.4172116e-08
6.0974287e-07
2.1739618e-08
6.0332444e-07
1.9453739e-08
5.9834785e-07
1.7310125e-08
5.9436861e-07
1.5299893e-08
5.9117907e-07
1.3410659e-08
5.8861254e-07
1.1629302e-08
5.8654273e-07
9.9425058e-09
5.8487585e-07
8.3369482e-09
5.8354157e-07
6.7994708e-09
5.8248679e-07
5.3171791e-09
5.8167161e-07
3.8774752e-09
5.810664e-07
2.4680382e-09
5.8064995e-07
1.0767688e-09
5.8040807e-07
-3.0829191e-10
5.8033275e-07
-1.6990562e-09
5.8042173e-07
-3.1074917e-09
5.8067835e-07
-4.5457154e-09
5.8111178e-07
-6.0260725e-09
5.8173751e-07
-7.5611912e-09
5.8257831e-07
-9.1640017e-09
5.8366572e-07
-1.0847701e-08
5.8504216e-07
-1.2625664e-08
5.8676406e-07
-1.4511322e-08
5.8890652e-07
-1.6517864e-08
5.9157009e-07
-1.8656887e-08
5.9488922e-07
-2.0936902e-08
5.9903637e-07
-2.3397082e-08
6.0431108e-07
-2.6267039e-08
6.1186087e-07
-2.9798911e-08
6.2492327e-07
-3.1932576e-08
6.4176324e-07
-2.6095309e-08
6.2452656e-07
-1.0109777e-08
4.8387691e-07
1.7443507e-07
6.0118874e-09
1.3465312e-07
2.2514448e-08
4.2572597e-07
3.2669291e-08
6.1204475e-07
3.2598282e-08
6.5712868e-07
2.9087994e-08
6.4086572e-07
2.6044276e-08
6.2259328e-07
2.3587172e-08
6.1219998e-07
2.1336514e-08
6.0557509e-07
1.9197698e-08
6.0048666e-07
1.7167257e-08
5.9639905e-07
1.5241812e-08
5.9310452e-07
1.3413726e-08
5.9044063e-07
1.1674011e-08
5.8828244e-07
1.0012989e-08
5.8653687e-07
8.420508e-09
5.8513405e-07
6.8861488e-09
5.8402115e-07
5.3993808e-09
5.8315837e-07
3.9496634e-09
5.8251612e-07
2.5264976e-09
5.8207312e-07
1.1194414e-09
5.8181512e-07
-2.8190113e-10
5.8173409e-07
-1.6879043e-09
5.8182773e-07
-3.1089532e-09
5.820994e-07
-4.5554674e-09
5.8255829e-07
-6.0379088e-09
5.8321995e-07
-7.5667622e-09
5.8410716e-07
-9.1524803e-09
5.8525144e-07
-1.0805378e-08
5.8669505e-07
-1.2535471e-08
5.8849416e-07
-1.4352306e-08
5.9072335e-07
-1.6264573e-08
5.9348236e-07
-1.8278574e-08
5.9690322e-07
-2.03989e-08
6.011567e-07
-2.2673316e-08
6.065855e-07
-2.5333634e-08
6.1452118e-07
-2.8453378e-08
6.2804301e-07
-2.9651989e-08
6.4296185e-07
-2.3050486e-08
6.1792505e-07
-8.1604955e-09
4.6898692e-07
1.6627457e-07
4.8701606e-09
1.29783e-07
1.9771773e-08
4.1082444e-07
3.017328e-08
6.0164329e-07
3.1092317e-08
6.5620965e-07
2.8100404e-08
6.4385762e-07
2.525362e-08
6.2544006e-07
2.2959739e-08
6.1449386e-07
2.0869404e-08
6.0766543e-07
1.8866774e-08
6.0248929e-07
1.6945298e-08
5.9832053e-07
1.5105044e-08
5.9494477e-07
1.3341819e-08
5.9220385e-07
1.1649741e-08
5.8997452e-07
1.0022015e-08
5.881646e-07
8.4511148e-09
5.8670495e-07
6.9289796e-09
5.8554329e-07
5.4471894e-09
5.8464016e-07
3.9970991e-09
5.8396621e-07
2.5699347e-09
5.8350028e-07
1.1568579e-09
5.832282e-07
-2.5099403e-10
5.8314195e-07
-1.6624799e-09
5.8323922e-07
-3.0864341e-09
5.8352335e-07
-4.5316364e-09
5.840035e-07
-6.0067676e-09
5.8469508e-07
-7.5203393e-09
5.8562073e-07
-9.0805908e-09
5.8681169e-07
-1.0695346e-08
5.8830981e-07
-1.2371828e-08
5.9017064e-07
-1.4116475e-08
5.92468e-07
-1.5934512e-08
5.9530039e-07
-1.7828472e-08
5.9879718e-07
-1.9801831e-08
6.0313006e-07
-2.1912686e-08
6.0869635e-07
-2.4383023e-08
6.1699152e-07
-2.71048e-08
6.3076479e-07
-2.7489664e-08
6.4334672e-07
-2.0393714e-08
6.108291e-07
-6.6309764e-09
4.5522418e-07
1.5964359e-07
4.0390571e-09
1.2574399e-07
1.7485571e-08
3.9737802e-07
2.7914324e-08
5.9121461e-07
2.9650224e-08
6.5447377e-07
2.7147567e-08
6.4636027e-07
2.448003e-08
6.2810759e-07
2.2319958e-08
6.1665393e-07
2.0367356e-08
6.0961803e-07
1.8487534e-08
6.0436912e-07
1.6667873e-08
6.0014019e-07
1.4910118e-08
5.9670253e-07
1.3212407e-08
5.9390156e-07
1.1571085e-08
5.9161584e-07
9.9815382e-09
5.8975415e-07
8.438337e-09
5.8824815e-07
6.9353883e-09
5.8704624e-07
5.4660971e-09
5.8610946e-07
4.0235106e-09
5.854088e-07
2.600436e-09
5.8492336e-07
1.1895333e-09
5.846391e-07
-2.1660887e-10
5.8454809e-07
-1.6254102e-09
5.8464802e-07
-3.0442389e-09
5.8494218e-07
-4.4803447e-09
5.854396e-07
-5.9407798e-09
5.8615551e-07
-7.4322971e-09
5.8711225e-07
-8.9612226e-09
5.8834061e-07
-1.0533302e-08
5.8988189e-07
-1.2153524e-08
5.9179086e-07
-1.3825949e-08
5.9414043e-07
-1.5553271e-08
5.9702772e-07
-1.7335619e-08
6.0057953e-07
-1.9177662e-08
6.049721e-07
-2.1147916e-08
6.1066661e-07
-2.3447196e-08
6.192908e-07
-2.5792935e-08
6.3311053e-07
-2.5485365e-08
6.4303915e-07
-1.8106463e-08
6.034502e-07
-5.446847e-09
4.4256457e-07
1.5419675e-07
3.4359007e-09
1.2230814e-07
1.5582029e-08
3.85232e-07
2.5885806e-08
5.8091092e-07
2.8287418e-08
6.5207218e-07
2.6241349e-08
6.4840633e-07
2.3739392e-08
6.3060954e-07
2.1688134e-08
6.1870519e-07
1.9851588e-08
6.1145458e-07
1.8080391e-08
6.0614031e-07
1.6353885e-08
6.018667e-07
1.4674005e-08
5.9838241e-07
1.3040342e-08
5.9553523e-07
1.1450741e-08
5.9320544e-07
9.9021708e-09
5.9130272e-07
8.390817e-09
5.897595e-07
6.9121782e-09
5.8852487e-07
5.4611951e-09
5.8756044e-07
4.0323853e-09
5.8683761e-07
2.6199643e-09
5.8633578e-07
1.2179536e-09
5.8604111e-07
-1.7972613e-10
5.8594577e-07
-1.5791678e-09
5.8604746e-07
-2.9863946e-09
5.8634941e-07
-4.4072705e-09
5.8686048e-07
-5.8474005e-09
5.8759564e-07
-7.3120146e-09
5.8857686e-07
-8.8058347e-09
5.8983443e-07
-1.0332929e-08
5.9140898e-07
-1.1896564e-08
5.933545e-07
-1.3499068e-08
5.9574293e-07
-1.5141394e-08
5.9867004e-07
-1.6822436e-08
6.0226057e-07
-1.8549807e-08
6.0669947e-07
-2.0401237e-08
6.1251804e-07
-2.2546647e-08
6.2143621e-07
-2.4542644e-08
6.3510652e-07
-2.3655929e-08
6.4215243e-07
-1.6154756e-08
5.9594903e-07
-4.5396959e-09
4.3094951e-07
1.4965705e-07
2.9960605e-09
1.1931215e-07
1.3992681e-08
3.7423552e-07
2.4069868e-08
5.7083384e-07
2.7009053e-08
6.4913303e-07
2.5386134e-08
6.5002925e-07
2.3039726e-08
6.3295594e-07
2.1077125e-08
6.2066778e-07
1.9336972e-08
6.1319473e-07
1.7660523e-08
6.0781676e-07
1.6018009e-08
6.0350921e-07
1.4410355e-08
5.9999006e-07
1.2837913e-08
5.9710767e-07
1.1299472e-08
5.9474388e-07
9.7930895e-09
5.928091e-07
8.3161538e-09
5.9123644e-07
6.8654145e-09
5.8997561e-07
5.4370725e-09
5.8898878e-07
4.0268919e-09
5.8824779e-07
2.6303136e-09
5.8773235e-07
1.2425641e-09
5.8742886e-07
-1.4124298e-10
5.8732957e-07
-1.5260097e-09
5.8743222e-07
-2.9165576e-09
5.8773996e-07
-4.317527e-09
5.8826145e-07
-5.7332696e-09
5.8901138e-07
-7.1677312e-09
5.9001132e-07
-8.6243256e-09
5.9129103e-07
-1.010581e-08
5.9289046e-07
-1.161418e-08
5.9486287e-07
-1.3150563e-08
5.9727931e-07
-1.4714827e-08
6.002343e-07
-1.6305606e-08
6.0385135e-07
-1.7934636e-08
6.083285e-07
-1.9686747e-08
6.1427015e-07
-2.1693246e-08
6.2344271e-07
-2.3367418e-08
6.3678069e-07
-2.2002533e-08
6.4078755e-07
-1.4497556e-08
5.8844405e-07
-3.8496248e-09
4.2030158e-07
1.4580743e-07
2.6706977e-09
1.1664153e-07
1.2657782e-08
3.642486e-07
2.2443761e-08
5.61048e-07
2.5813769e-08
6.4576306e-07
2.4581529e-08
6.5126148e-07
2.2383745e-08
6.3515372e-07
2.0494342e-08
6.2255719e-07
1.8833485e-08
6.1485559e-07
1.7238871e-08
6.0941137e-07
1.5671344e-08
6.0507674e-07
1.4129875e-08
6.0153153e-07
1.2615051e-08
5.9862249e-07
1.1126187e-08
5.9623274e-07
9.6620456e-09
5.9427324e-07
8.220873e-09
5.9267761e-07
6.8003764e-09
5.9139611e-07
5.3977664e-09
5.9039139e-07
4.0098412e-09
5.8963571e-07
2.6330845e-09
5.8910911e-07
1.2637662e-09
5.8879818e-07
-1.0195667e-10
5.886953e-07
-1.4679415e-09
5.8879821e-07
-2.8379607e-09
5.8910997e-07
-4.2155993e-09
5.8963908e-07
-5.6041492e-09
5.9039993e-07
-7.0064992e-09
5.9141367e-07
-8.4250258e-09
5.9270955e-07
-9.8614975e-09
5.9432694e-07
-1.1317012e-08
5.9631838e-07
-1.2791934e-08
5.9875423e-07
-1.4285562e-08
6.0172793e-07
-1.5797047e-08
6.0536283e-07
-1.734292e-08
6.0987437e-07
-1.9012385e-08
6.1593961e-07
-2.0892485e-08
6.2532281e-07
-2.2272391e-08
6.381606e-07
-2.0516476e-08
6.3903163e-07
-1.3092352e-08
5.8101993e-07
-3.3262276e-09
4.1053545e-07
1.424812e-07
2.4240717e-09
1.1421755e-07
1.1527417e-08
3.5514545e-07
2.0983933e-08
5.5159165e-07
2.4696581e-08
6.4205048e-07
2.3824361e-08
6.521337e-07
2.1770741e-08
6.3720733e-07
1.9943316e-08
6.2438461e-07
1.8347407e-08
6.164515e-07
1.6823049e-08
6.1093573e-07
1.5322067e-08
6.0657772e-07
1.3840781e-08
6.0301282e-07
1.2379614e-08
6.0008366e-07
1.0938113e-08
5.9767425e-07
9.5154518e-09
5.956959e-07
8.1104627e-09
5.940826e-07
6.7215628e-09
5.9278501e-07
5.3467536e-09
5.917662e-07
3.9836737e-09
5.9099879e-07
2.6296761e-09
5.9046311e-07
1.2819161e-09
5.9014594e-07
-6.2555703e-11
5.9003977e-07
-1.4066997e-09
5.9014235e-07
-2.7533921e-09
5.9045667e-07
-4.105327e-09
5.9099102e-07
-5.46492e-09
5.9175953e-07
-6.8342112e-09
5.9278297e-07
-8.2147777e-09
5.9409012e-07
-9.607671e-09
5.9571983e-07
-1.1013397e-08
5.9772411e-07
-1.2431888e-08
6.0017273e-07
-1.3862279e-08
6.0315832e-07
-1.530483e-08
6.0680538e-07
-1.6781073e-08
6.1135062e-07
-1.8381568e-08
6.1754011e-07
-2.0145368e-08
6.2708661e-07
-2.1257024e-08
6.3927226e-07
-1.918372e-08
6.3695833e-07
-1.1898989e-08
5.7373519e-07
-2.9284986e-09
4.0156496e-07
1.395527e-07
2.2308023e-09
1.1198686e-07
1.0561129e-08
3.4681536e-07
1.9668318e-08
5.4248466e-07
2.3650927e-08
6.3806795e-07
2.311015e-08
6.5267448e-07
2.1198013e-08
6.3911945e-07
1.9424947e-08
6.2615767e-07
1.7882312e-08
6.1799413e-07
1.6418108e-08
6.1239994e-07
1.4976017e-08
6.0801981e-07
1.3549221e-08
6.0443961e-07
1.2137688e-08
6.0149519e-07
1.0740993e-08
5.9907094e-07
9.358512e-09
5.9707838e-07
7.9894502e-09
5.9545166e-07
6.6327348e-09
5.9414172e-07
5.286972e-09
5.9311196e-07
3.9504693e-09
5.9233529e-07
2.6212907e-09
5.9179229e-07
1.2973282e-09
5.914699e-07
-2.3617123e-11
5.9136071e-07
-1.3437514e-09
5.9146249e-07
-2.6652001e-09
5.9177811e-07
-3.9899213e-09
5.9231574e-07
-5.3196215e-09
5.9308923e-07
-6.6556761e-09
5.9411902e-07
-7.999066e-09
5.9543351e-07
-9.3503477e-09
5.9707111e-07
-1.0709673e-08
5.9908343e-07
-1.2076789e-08
6.0153984e-07
-1.3450966e-08
6.045325e-07
-1.4834e-08
6.0818842e-07
-1.6252262e-08
6.1276888e-07
-1.7794572e-08
6.1908242e-07
-1.9449989e-08
6.2874202e-07
-2.0317288e-08
6.4013956e-07
-1.7988016e-08
6.3462906e-07
-1.0881587e-08
5.6662877e-07
-2.6239832e-09
3.9330736e-07
1.3692872e-07
2.0734038e-09
1.0991358e-07
9.7268079e-09
3.3916223e-07
1.8477376e-08
5.3373434e-07
2.2669951e-08
6.3387549e-07
2.2434088e-08
6.5291035e-07
2.0661892e-08
6.4089163e-07
1.893847e-08
6.2788108e-07
1.7439867e-08
6.1949273e-07
1.6027187e-08
6.1381262e-07
1.4637208e-08
6.0940979e-07
1.3259675e-08
6.0581714e-07
1.1893883e-08
6.0286098e-07
1.0539305e-08
6.0042552e-07
9.1953705e-09
5.9842232e-07
7.8615031e-09
5.9678553e-07
6.5369808e-09
5.9546625e-07
5.2208602e-09
5.9442808e-07
3.9119705e-09
5.9364418e-07
2.6089457e-09
5.9309531e-07
1.310279e-09
5.9276857e-07
1.4389867e-11
5.926566e-07
-1.2803054e-09
5.9275718e-07
-2.5753163e-09
5.9307313e-07
-3.8720054e-09
5.9361243e-07
-5.1715186e-09
5.9438874e-07
-6.4747241e-09
5.9542223e-07
-7.7821747e-09
5.9674096e-07
-9.0941074e-09
5.9838304e-07
-1.0410497e-08
6.0039982e-07
-1.1731083e-08
6.0286043e-07
-1.3055486e-08
6.058569e-07
-1.438732e-08
6.0952025e-07
-1.5757342e-08
6.141389e-07
-1.7249651e-08
6.2057473e-07
-1.8802749e-08
6.3029512e-07
-1.9447277e-08
6.4078408e-07
-1.6912854e-08
6.3209463e-07
-1.0009083e-08
5.5972499e-07
-2.3875675e-09
3.8568584e-07
1.3454115e-07
1.9402052e-09
1.0797353e-07
8.99933e-09
3.3210342e-07
1.739439e-08
5.2533958e-07
2.1747205e-08
6.2952282e-07
2.1791604e-08
6.5286596e-07
2.0158408e-08
6.4252481e-07
1.8482153e-08
6.2955733e-07
1.7020463e-08
6.2095442e-07
1.5652051e-08
6.1518103e-07
1.4308273e-08
6.1075357e-07
1.2975306e-08
6.0715011e-07
1.1651608e-08
6.0418468e-07
1.0336463e-08
6.0174066e-07
9.029265e-09
5.9972952e-07
7.7295394e-09
5.9808525e-07
6.4367935e-09
5.9675899e-07
5.1504097e-09
5.9571447e-07
3.8696148e-09
5.9492498e-07
2.593491e-09
5.9437143e-07
1.3210128e-09
5.9404104e-07
5.1098679e-11
5.9392652e-07
-1.2173306e-09
5.9402561e-07
-2.4852901e-09
5.9434108e-07
-3.7536706e-09
5.9488081e-07
-5.0231849e-09
5.9565825e-07
-6.2943267e-09
5.9669337e-07
-7.567355e-09
5.9801399e-07
-8.8423221e-09
5.9965801e-07
-1.0119153e-08
6.0167665e-07
-1.1397701e-08
6.0413898e-07
-1.2678085e-08
6.0713729e-07
-1.3965895e-08
6.1080806e-07
-1.5295617e-08
6.1546862e-07
-1.6743872e-08
6.2202298e-07
-1.8199218e-08
6.3175047e-07
-1.864032e-08
6.4122519e-07
-1.5942642e-08
6.2939695e-07
-9.2553467e-09
5.530377e-07
-2.2002785e-09
3.7863077e-07
1.3234087e-07
1.8236651e-09
1.0615003e-07
8.3592067e-09
3.2556826e-07
1.6405346e-08
5.172938e-07
2.0876979e-08
6.2505136e-07
2.1178652e-08
6.5256432e-07
1.9683692e-08
6.4401975e-07
1.8053779e-08
6.3118723e-07
1.6623673e-08
6.2238453e-07
1.5293497e-08
6.165112e-07
1.3990825e-08
6.1205624e-07
1.2698265e-08
6.0844267e-07
1.1413314e-08
6.0546963e-07
1.0135017e-08
6.0301896e-07
8.8626753e-09
6.0100186e-07
7.5958385e-09
5.9935209e-07
6.3341504e-09
5.9802068e-07
5.0772206e-09
5.969714e-07
3.8245713e-09
5.9617763e-07
2.5756293e-09
5.9562038e-07
1.3297465e-09
5.9528693e-07
8.6236705e-11
5.9517003e-07
-1.1555804e-09
5.9526743e-07
-2.3963302e-09
5.9558183e-07
-3.6365386e-09
5.9612102e-07
-4.8765931e-09
5.9689831e-07
-6.1167205e-09
5.9793349e-07
-7.3569919e-09
5.9925426e-07
-8.5973743e-09
6.0089839e-07
-9.8378303e-09
6.0291711e-07
-1.1078401e-08
6.0537955e-07
-1.231981e-08
6.0837869e-07
-1.3569677e-08
6.1205793e-07
-1.4865413e-08
6.1676436e-07
-1.6273708e-08
6.2343128e-07
-1.7634728e-08
6.3311149e-07
-1.7889717e-08
6.4148017e-07
-1.5063338e-08
6.2657057e-07
-8.598858e-09
5.4657322e-07
-2.0481169e-09
3.7208003e-07
1.3029275e-07
1.719063e-09
1.0443117e-07
7.7913605e-09
3.194964e-07
1.5498618e-08
5.0958697e-07
2.0054389e-08
6.2049581e-07
2.0591817e-08
6.5202693e-07
1.9234196e-08
6.4537735e-07
1.765096e-08
6.3277046e-07
1.6248576e-08
6.2378691e-07
1.4951668e-08
6.1780811e-07
1.3685734e-08
6.1332217e-07
1.2429932e-08
6.0969847e-07
1.1180703e-08
6.0671886e-07
9.9368195e-09
6.0426284e-07
8.6974596e-09
6.0224122e-07
7.4621464e-09
6.005874e-07
6.2305928e-09
5.9925223e-07
5.0025583e-09
5.9819943e-07
3.7777776e-09
5.9740241e-07
2.555936e-09
5.9684222e-07
1.3366747e-09
5.9650619e-07
1.1961331e-10
5.9638709e-07
-1.0956193e-09
5.9648266e-07
-2.3093494e-09
5.9679556e-07
-3.5218277e-09
5.973335e-07
-4.7332055e-09
5.9810969e-07
-5.9435286e-09
5.9914382e-07
-7.1527606e-09
6.0046349e-07
-8.3608542e-09
6.0210649e-07
-9.5678654e-09
6.0412412e-07
-1.077407e-08
6.0658575e-07
-1.1980857e-08
6.0958548e-07
-1.3197852e-08
6.1327492e-07
-1.4464499e-08
6.1803101e-07
-1.5835454e-08
6.2480223e-07
-1.7104758e-08
6.3438079e-07
-1.7189176e-08
6.4156459e-07
-1.4262689e-08
6.2364409e-07
-8.0221697e-09
5.403327e-07
-1.9209815e-09
3.6597884e-07
1.2837177e-07
1.6235283e-09
1.0280787e-07
7.2840906e-09
3.1383634e-07
1.4664584e-08
5.0220697e-07
1.9275341e-08
6.1588533e-07
2.0028307e-08
6.5127402e-07
1.8806791e-08
6.4659885e-07
1.7271321e-08
6.3430591e-07
1.5893982e-08
6.2516424e-07
1.4626275e-08
6.1907582e-07
1.3393349e-08
6.145551e-07
1.217112e-08
6.109207e-07
1.09549e-08
6.0793508e-07
9.7431714e-09
6.0547457e-07
8.534974e-09
6.0344941e-07
7.3297721e-09
6.017926e-07
6.1272994e-09
6.0045471e-07
4.9274069e-09
5.9939932e-07
3.7299757e-09
5.9859984e-07
2.534879e-09
5.9803731e-07
1.3419737e-09
5.9769909e-07
1.5111009e-10
5.9757795e-07
-1.0378498e-09
5.9767162e-07
-2.2250087e-09
5.9798272e-07
-3.4104166e-09
5.985189e-07
-4.5940602e-09
5.9929333e-07
-5.7758716e-09
6.0032563e-07
-6.9557668e-09
6.0164339e-07
-8.1337319e-09
6.0328445e-07
-9.3099489e-09
6.0530033e-07
-1.0484952e-08
6.0776075e-07
-1.1660833e-08
6.1076136e-07
-1.2849132e-08
6.1446322e-07
-1.4090392e-08
6.1927227e-07
-1.5425491e-08
6.2613733e-07
-1.6605151e-08
6.3556045e-07
-1.6533045e-08
6.4149249e-07
-1.3530229e-08
6.2064127e-07
-7.5112945e-09
5.3431377e-07
-1.8117386e-09
3.6027929e-07
1.2656003e-07
1.5353517e-09
1.0127279e-07
6.8282404e-09
3.0854404e-07
1.389524e-08
4.9514056e-07
1.8536411e-08
6.1124449e-07
1.9485892e-08
6.5032463e-07
1.8398786e-08
6.4768594e-07
1.6912618e-08
6.3579206e-07
1.5558575e-08
6.2651828e-07
1.4316761e-08
6.2031763e-07
1.3113656e-08
6.1575821e-07
1.1922225e-08