/*--------------------------------*- C++ -*----------------------------------*\
  =========                 |
  \\      /  F ield         | OpenFOAM: The Open Source CFD Toolbox
   \\    /   O peration     | Website:  https://openfoam.org
    \\  /    A nd           | Version:  10
     \\/     M anipulation  |
\*---------------------------------------------------------------------------*/
FoamFile
{
    format      ascii;
    class       volScalarField;
    location    "0.24";
    object      T;
}
// * * * * * * * * * * * * * * * * * * * * * * * * * * * * * * * * * * * * * //

dimensions      [0 0 0 1 0 0 0];

internalField   nonuniform List<scalar> 
4000
(
303.10135
299.3429
299.99042
300.00082
299.99993
300
300
300
300
300
300
300
300
300
300
300
300
300
300
300
300
300
300
300
300
300
300
300
300
300
300
300
300
300
300
300
300
300
300
300
309.66347
298.49296
299.77921
300.00184
300.0008
299.99999
300
300
300
300
300
300
300
300
300
300
300
300
300
300
300
300
300
300
300
300
300
300
300
300
300
300
300
300
300
300
300
300
300
300
316.00432
298.68457
299.39219
299.9757
300.00406
300.00025
299.99999
300
300
300
300
300
300
300
300
300
300
300
300
300
300
300
300
300
300
300
300
300
300
300
300
300
300
300
300
300
300
300
300
300
321.74242
299.84595
298.98477
299.89491
300.00716
300.00139
300
299.99999
300
300
300
300
300
300
300
300
300
300
300
300
300
300
300
300
300
300
300
300
300
300
300
300
300
300
300
300
300
300
300
300
326.67131
301.7006
298.70997
299.75312
300.00323
300.00379
300.00017
299.99998
300
300
300
300
300
300
300
300
300
300
300
300
300
300
300
300
300
300
300
300
300
300
300
300
300
300
300
300
300
300
300
300
330.68534
303.94823
298.66324
299.56827
299.98427
300.00697
300.00072
299.99997
299.99999
300
300
300
300
300
300
300
300
300
300
300
300
300
300
300
300
300
300
300
300
300
300
300
300
300
300
300
300
300
300
300
333.77477
306.33112
298.87089
299.37365
299.94516
300.00939
300.00181
300
299.99998
300
300
300
300
300
300
300
300
300
300
300
300
300
300
300
300
300
300
300
300
300
300
300
300
300
300
300
300
300
300
300
336.02234
308.66475
299.30783
299.20375
299.88577
300.00891
300.00346
300.00014
299.99997
300
300
300
300
300
300
300
300
300
300
300
300
300
300
300
300
300
300
300
300
300
300
300
300
300
300
300
300
300
300
300
337.57461
310.83828
299.92431
299.08454
299.81046
300.00353
300.00542
300.00046
299.99996
299.99999
300
300
300
300
300
300
300
300
300
300
300
300
300
300
300
300
300
300
300
300
300
300
300
300
300
300
300
300
300
300
338.60292
312.79896
300.66581
299.03048
299.72628
299.99192
300.00725
300.001
299.99996
299.99998
300
300
300
300
300
300
300
300
300
300
300
300
300
300
300
300
300
300
300
300
300
300
300
300
300
300
300
300
300
300
339.26999
314.5339
301.4837
299.04599
299.64095
299.97368
300.00841
300.00176
300.00001
299.99997
300
300
300
300
300
300
300
300
300
300
300
300
300
300
300
300
300
300
300
300
300
300
300
300
300
300
300
300
300
300
339.70914
316.05438
302.3396
299.1284
299.56152
299.94925
300.00835
300.00269
300.00012
299.99996
300
300
300
300
300
300
300
300
300
300
300
300
300
300
300
300
300
300
300
300
300
300
300
300
300
300
300
300
300
300
340.017
317.38383
303.20589
299.27101
299.49356
299.91971
300.00662
300.00368
300.0003
299.99996
299.99999
300
300
300
300
300
300
300
300
300
300
300
300
300
300
300
300
300
300
300
300
300
300
300
300
300
300
300
300
300
340.25621
318.54977
304.06417
299.46546
299.44103
299.88653
300.00294
300.00462
300.00057
299.99996
299.99999
300
300
300
300
300
300
300
300
300
300
300
300
300
300
300
300
300
300
300
300
300
300
300
300
300
300
300
300
300
340.46324
319.57903
304.90309
299.70317
299.40639
299.85131
299.99715
300.00535
300.0009
299.99998
299.99998
300
300
300
300
300
300
300
300
300
300
300
300
300
300
300
300
300
300
300
300
300
300
300
300
300
300
300
300
300
340.65684
320.49546
305.71628
299.97623
299.3909
299.81563
299.98928
300.00575
300.0013
300.00003
299.99998
300
300
300
300
300
300
300
300
300
300
300
300
300
300
300
300
300
300
300
300
300
300
300
300
300
300
300
300
300
340.84505
321.31911
306.50067
300.27771
299.39491
299.78097
299.97946
300.00568
300.00174
300.0001
299.99997
300
300
300
300
300
300
300
300
300
300
300
300
300
300
300
300
300
300
300
300
300
300
300
300
300
300
300
300
300
341.03019
322.06619
307.25522
300.60172
299.41816
299.74861
299.96792
300.00505
300.00218
300.00019
299.99997
299.99999
300
300
300
300
300
300
300
300
300
300
300
300
300
300
300
300
300
300
300
300
300
300
300
300
300
300
300
300
341.21192
322.74954
307.98011
300.94333
299.45997
299.71964
299.95495
300.00378
300.00259
300.00031
299.99998
299.99999
300
300
300
300
300
300
300
300
300
300
300
300
300
300
300
300
300
300
300
300
300
300
300
300
300
300
300
300
341.389
323.37916
308.67611
301.29847
299.5194
299.69497
299.9409
300.00182
300.00293
300.00046
299.99999
299.99999
300
300
300
300
300
300
300
300
300
300
300
300
300
300
300
300
300
300
300
300
300
300
300
300
300
300
300
300
341.56014
323.96283
309.34434
301.66378
299.59537
299.67531
299.92612
299.99915
300.00316
300.00063
300.00001
299.99999
300
300
300
300
300
300
300
300
300
300
300
300
300
300
300
300
300
300
300
300
300
300
300
300
300
300
300
300
341.72437
324.5066
309.986
302.03646
299.68673
299.66123
299.91099
299.99578
300.00326
300.0008
300.00004
299.99998
300
300
300
300
300
300
300
300
300
300
300
300
300
300
300
300
300
300
300
300
300
300
300
300
300
300
300
300
341.88111
325.01524
310.60232
302.41418
299.79229
299.65315
299.89588
299.99175
300.00318
300.00099
300.00007
299.99998
300
300
300
300
300
300
300
300
300
300
300
300
300
300
300
300
300
300
300
300
300
300
300
300
300
300
300
300
342.03013
325.49258
311.19447
302.795
299.91089
299.65135
299.88112
299.98709
300.0029
300.00117
300.00012
299.99999
300
300
300
300
300
300
300
300
300
300
300
300
300
300
300
300
300
300
300
300
300
300
300
300
300
300
300
300
342.1715
325.94177
311.76359
303.17728
300.0414
299.65602
299.86707
299.98187
300.0024
300.00133
300.00017
299.99999
299.99999
300
300
300
300
300
300
300
300
300
300
300
300
300
300
300
300
300
300
300
300
300
300
300
300
300
300
300
342.30546
326.36543
312.31075
303.55967
300.18272
299.66726
299.85402
299.97618
300.00166
300.00147
300.00024
300
299.99999
300
300
300
300
300
300
300
300
300
300
300
300
300
300
300
300
300
300
300
300
300
300
300
300
300
300
300
342.43239
326.76582
312.83697
303.941
300.33382
299.68509
299.84226
299.9701
300.00067
300.00157
300.0003
300.00001
299.99999
300
300
300
300
300
300
300
300
300
300
300
300
300
300
300
300
300
300
300
300
300
300
300
300
300
300
300
342.55272
327.14492
313.34323
304.32031
300.4937
299.70947
299.83204
299.96373
299.99943
300.00162
300.00038
300.00002
299.99999
300
300
300
300
300
300
300
300
300
300
300
300
300
300
300
300
300
300
300
300
300
300
300
300
300
300
300
342.66691
327.50447
313.83045
304.6968
300.66144
299.74031
299.82361
299.95716
299.99793
300.00161
300.00045
300.00003
299.99999
300
300
300
300
300
300
300
300
300
300
300
300
300
300
300
300
300
300
300
300
300
300
300
300
300
300
300
342.77541
327.84602
314.29954
305.06979
300.83617
299.77747
299.81715
299.95052
299.9962
300.00154
300.00052
300.00005
299.99999
300
300
300
300
300
300
300
300
300
300
300
300
300
300
300
300
300
300
300
300
300
300
300
300
300
300
300
342.87864
328.17098
314.75134
305.43872
301.01709
299.82079
299.81285
299.94391
299.99422
300.00139
300.00059
300.00007
300
300
300
300
300
300
300
300
300
300
300
300
300
300
300
300
300
300
300
300
300
300
300
300
300
300
300
300
342.97701
328.48059
315.18668
305.80313
301.20345
299.87005
299.81085
299.93742
299.99204
300.00116
300.00065
300.0001
300
300
300
300
300
300
300
300
300
300
300
300
300
300
300
300
300
300
300
300
300
300
300
300
300
300
300
300
343.07087
328.77599
315.60633
306.16264
301.39454
299.92506
299.81127
299.93118
299.98965
300.00084
300.00069
300.00013
300
300
300
300
300
300
300
300
300
300
300
300
300
300
300
300
300
300
300
300
300
300
300
300
300
300
300
300
343.16055
329.05821
316.01105
306.51696
301.58973
299.98557
299.81422
299.92527
299.98709
300.00042
300.00073
300.00015
300.00001
300
300
300
300
300
300
300
300
300
300
300
300
300
300
300
300
300
300
300
300
300
300
300
300
300
300
300
343.24634
329.32816
316.40154
306.86584
301.78842
300.05134
299.81978
299.91981
299.98439
299.99992
300.00074
300.00018
300.00001
300
300
300
300
300
300
300
300
300
300
300
300
300
300
300
300
300
300
300
300
300
300
300
300
300
300
300
343.32851
329.58668
316.77847
307.20908
301.99006
300.12212
299.82801
299.91488
299.98158
299.99932
300.00073
300.00021
300.00002
300
300
300
300
300
300
300
300
300
300
300
300
300
300
300
300
300
300
300
300
300
300
300
300
300
300
300
343.40728
329.8345
317.14247
307.54656
302.19415
300.19765
299.83895
299.91058
299.97869
299.99862
300.0007
300.00024
300.00003
300
300
300
300
300
300
300
300
300
300
300
300
300
300
300
300
300
300
300
300
300
300
300
300
300
300
300
343.48286
330.0723
317.49413
307.87814
302.40021
300.27768
299.85261
299.90699
299.97575
299.99783
300.00064
300.00026
300.00004
300
300
300
300
300
300
300
300
300
300
300
300
300
300
300
300
300
300
300
300
300
300
300
300
300
300
300
343.55544
330.30068
317.83402
308.20377
302.60781
300.36196
299.86903
299.90418
299.9728
299.99695
300.00055
300.00028
300.00005
300
300
300
300
300
300
300
300
300
300
300
300
300
300
300
300
300
300
300
300
300
300
300
300
300
300
300
343.62518
330.52018
318.16264
308.52338
302.81657
300.45021
299.88818
299.90224
299.96987
299.99599
300.00043
300.0003
300.00006
300
300
300
300
300
300
300
300
300
300
300
300
300
300
300
300
300
300
300
300
300
300
300
300
300
300
300
343.69222
330.73128
318.48049
308.83695
303.02611
300.5422
299.91005
299.90122
299.96701
299.99495
300.00027
300.00031
300.00007
300
300
300
300
300
300
300
300
300
300
300
300
300
300
300
300
300
300
300
300
300
300
300
300
300
300
300
343.75669
330.93443
318.78802
309.14446
303.23609
300.63767
299.93463
299.90119
299.96425
299.99384
300.00008
300.00032
300.00008
300.00001
300
300
300
300
300
300
300
300
300
300
300
300
300
300
300
300
300
300
300
300
300
300
300
300
300
300
343.81869
331.12999
319.08563
309.4459
303.4462
300.73638
299.96186
299.9022
299.96163
299.99267
299.99985
300.00031
300.00009
300.00001
300
300
300
300
300
300
300
300
300
300
300
300
300
300
300
300
300
300
300
300
300
300
300
300
300
300
343.87833
331.31833
319.37371
309.74129
303.65616
300.83809
299.9917
299.9043
299.95919
299.99144
299.99958
300.0003
300.0001
300.00001
300
300
300
300
300
300
300
300
300
300
300
300
300
300
300
300
300
300
300
300
300
300
300
300
300
300
343.93568
331.49974
319.65261
310.03064
303.86569
300.94255
300.0241
299.90753
299.95696
299.99018
299.99928
300.00028
300.00011
300.00002
300
300
300
300
300
300
300
300
300
300
300
300
300
300
300
300
300
300
300
300
300
300
300
300
300
300
343.99083
331.6745
319.92266
310.31397
304.07454
301.04956
300.059
299.91193
299.95498
299.98889
299.99894
300.00025
300.00011
300.00002
300
300
300
300
300
300
300
300
300
300
300
300
300
300
300
300
300
300
300
300
300
300
300
300
300
300
344.04383
331.84284
320.18414
310.59129
304.28248
301.15887
300.09632
299.91752
299.95328
299.98758
299.99856
300.0002
300.00012
300.00002
300
300
300
300
300
300
300
300
300
300
300
300
300
300
300
300
300
300
300
300
300
300
300
300
300
300
344.09472
332.00497
320.43731
310.86264
304.48928
301.27026
300.136
299.92433
299.9519
299.98627
299.99815
300.00015
300.00013
300.00003
300
300
300
300
300
300
300
300
300
300
300
300
300
300
300
300
300
300
300
300
300
300
300
300
300
300
344.14356
332.16107
320.68242
311.12803
304.69474
301.38354
300.17796
299.93239
299.95087
299.98498
299.99771
300.00007
300.00013
300.00003
300
300
300
300
300
300
300
300
300
300
300
300
300
300
300
300
300
300
300
300
300
300
300
300
300
300
344.19036
332.31129
320.91966
311.38749
304.89867
301.49848
300.22211
299.94169
299.95022
299.9837
299.99724
299.99999
300.00013
300.00003
300
300
300
300
300
300
300
300
300
300
300
300
300
300
300
300
300
300
300
300
300
300
300
300
300
300
344.23514
332.45574
321.14921
311.64102
305.10088
301.61487
300.26836
299.95226
299.94998
299.98247
299.99674
299.99989
300.00012
300.00004
300.00001
300
300
300
300
300
300
300
300
300
300
300
300
300
300
300
300
300
300
300
300
300
300
300
300
300
344.27792
332.59451
321.37124
311.88863
305.30118
301.73253
300.31662
299.96408
299.95017
299.9813
299.99622
299.99978
300.00012
300.00004
300.00001
300
300
300
300
300
300
300
300
300
300
300
300
300
300
300
300
300
300
300
300
300
300
300
300
300
344.31869
332.72768
321.58586
312.13033
305.49942
301.85126
300.3668
299.97717
299.95082
299.98019
299.99568
299.99965
300.0001
300.00004
300.00001
300
300
300
300
300
300
300
300
300
300
300
300
300
300
300
300
300
300
300
300
300
300
300
300
300
344.35744
332.85529
321.79318
312.36612
305.69541
301.97085
300.41879
299.99152
299.95196
299.97917
299.99513
299.99951
300.00009
300.00005
300.00001
300
300
300
300
300
300
300
300
300
300
300
300
300
300
300
300
300
300
300
300
300
300
300
300
300
344.39416
332.97734
321.99327
312.59597
305.88901
302.09112
300.4725
300.0071
299.9536
299.97825
299.99456
299.99935
300.00007
300.00005
300.00001
300
300
300
300
300
300
300
300
300
300
300
300
300
300
300
300
300
300
300
300
300
300
300
300
300
344.42881
333.09382
322.18617
312.81986
306.08004
302.21189
300.52782
300.02391
299.95576
299.97744
299.99399
299.99918
300.00004
300.00005
300.00001
300
300
300
300
300
300
300
300
300
300
300
300
300
300
300
300
300
300
300
300
300
300
300
300
300
344.46138
333.2047
322.37191
313.03775
306.26837
302.33296
300.58465
300.04193
299.95845
299.97676
299.99342
299.999
300.00001
300.00005
300.00001
300
300
300
300
300
300
300
300
300
300
300
300
300
300
300
300
300
300
300
300
300
300
300
300
300
344.49182
333.30993
322.55047
313.2496
306.45382
302.45416
300.64286
300.06114
299.9617
299.97623
299.99286
299.99881
299.99998
300.00005
300.00001
300
300
300
300
300
300
300
300
300
300
300
300
300
300
300
300
300
300
300
300
300
300
300
300
300
344.5201
333.40941
322.72181
313.45534
306.63624
302.5753
300.70236
300.08149
299.96551
299.97585
299.9923
299.9986
299.99993
300.00004
300.00002
300
300
300
300
300
300
300
300
300
300
300
300
300
300
300
300
300
300
300
300
300
300
300
300
300
344.54618
333.50305
322.88588
313.6549
306.81547
302.69621
300.76302
300.10297
299.9699
299.97564
299.99176
299.99838
299.99989
300.00004
300.00002
300
300
300
300
300
300
300
300
300
300
300
300
300
300
300
300
300
300
300
300
300
300
300
300
300
344.57003
333.59075
323.04258
313.84816
306.99135
302.81669
300.82473
300.12553
299.97486
299.97562
299.99125
299.99816
299.99984
300.00004
300.00002
300
300
300
300
300
300
300
300
300
300
300
300
300
300
300
300
300
300
300
300
300
300
300
300
300
344.59163
333.67238
323.1918
314.03503
307.16372
302.93658
300.88736
300.14913
299.9804
299.97579
299.99076
299.99793
299.99978
300.00003
300.00002
300
300
300
300
300
300
300
300
300
300
300
300
300
300
300
300
300
300
300
300
300
300
300
300
300
344.61096
333.74783
323.33339
314.21538
307.3324
303.05569
300.9508
300.17374
299.98653
299.97616
299.99031
299.99769
299.99971
300.00002
300.00002
300
300
300
300
300
300
300
300
300
300
300
300
300
300
300
300
300
300
300
300
300
300
300
300
300
344.62802
333.81699
323.46719
314.38905
307.49722
303.17383
301.01492
300.19929
299.99323
299.97674
299.9899
299.99745
299.99965
300.00001
300.00002
300
300
300
300
300
300
300
300
300
300
300
300
300
300
300
300
300
300
300
300
300
300
300
300
300
344.64284
333.87977
323.59305
314.55588
307.658
303.29084
301.07959
300.22575
300.00052
299.97755
299.98954
299.99721
299.99957
299.99999
300.00002
300.00001
300
300
300
300
300
300
300
300
300
300
300
300
300
300
300
300
300
300
300
300
300
300
300
300
344.65545
333.93611
323.71077
314.71569
307.81454
303.40651
301.14469
300.25305
300.00838
299.9786
299.98923
299.99697
299.99949
299.99998
300.00002
300.00001
300
300
300
300
300
300
300
300
300
300
300
300
300
300
300
300
300
300
300
300
300
300
300
300
344.66592
333.98601
323.8202
314.86829
307.96666
303.52067
301.21009
300.28114
300.0168
299.97988
299.98898
299.99674
299.99941
299.99996
300.00001
300.00001
300
300
300
300
300
300
300
300
300
300
300
300
300
300
300
300
300
300
300
300
300
300
300
300
344.67434
334.02951
323.92116
315.01346
308.11414
303.63313
301.27564
300.30995
300.02577
299.9814
299.98879
299.9965
299.99932
299.99994
300.00001
300.00001
300
300
300
300
300
300
300
300
300
300
300
300
300
300
300
300
300
300
300
300
300
300
300
300
344.68083
334.06671
324.01354
315.15101
308.25678
303.74371
301.34122
300.33943
300.03528
299.98318
299.98868
299.99628
299.99923
299.99992
300.00001
300.00001
300
300
300
300
300
300
300
300
300
300
300
300
300
300
300
300
300
300
300
300
300
300
300
300
344.68553
334.09779
324.09724
315.28073
308.39436
303.8522
301.4067
300.3695
300.0453
299.9852
299.98864
299.99607
299.99914
299.9999
300.00001
300.00001
300
300
300
300
300
300
300
300
300
300
300
300
300
300
300
300
300
300
300
300
300
300
300
300
344.68861
334.12301
324.17224
315.40242
308.52669
303.95843
301.47193
300.4001
300.05583
299.98749
299.98868
299.99587
299.99905
299.99987
300
300.00001
300
300
300
300
300
300
300
300
300
300
300
300
300
300
300
300
300
300
300
300
300
300
300
300
344.69024
334.1427
324.23859
315.51592
308.65354
304.0622
301.53678
300.43116
300.06684
299.99002
299.98881
299.99568
299.99895
299.99985
300
300.00001
300
300
300
300
300
300
300
300
300
300
300
300
300
300
300
300
300
300
300
300
300
300
300
300
344.69063
334.15728
324.29641
315.62109
308.77472
304.16333
301.60112
300.4626
300.07831
299.99282
299.98903
299.99551
299.99885
299.99982
299.99999
300.00001
300
300
300
300
300
300
300
300
300
300
300
300
300
300
300
300
300
300
300
300
300
300
300
300
344.68999
334.16723
324.34593
315.71784
308.89005
304.26164
301.6648
300.49435
300.0902
299.99586
299.98934
299.99536
299.99876
299.99979
299.99999
300
300
300
300
300
300
300
300
300
300
300
300
300
300
300
300
300
300
300
300
300
300
300
300
300
344.68853
334.17309
324.3875
315.80616
308.99936
304.35697
301.7277
300.52634
300.1025
299.99916
299.98975
299.99524
299.99866
299.99975
299.99998
300
300
300
300
300
300
300
300
300
300
300
300
300
300
300
300
300
300
300
300
300
300
300
300
300
344.68646
334.17547
324.42155
315.88609
309.10252
304.44914
301.7897
300.55848
300.11518
300.0027
299.99026
299.99513
299.99857
299.99972
299.99997
300
300
300
300
300
300
300
300
300
300
300
300
300
300
300
300
300
300
300
300
300
300
300
300
300
344.68397
334.17498
324.44866
315.95778
309.19943
304.53802
301.85066
300.59072
300.1282
300.00649
299.99087
299.99506
299.99848
299.99969
299.99996
300
300
300
300
300
300
300
300
300
300
300
300
300
300
300
300
300
300
300
300
300
300
300
300
300
344.68125
334.17227
324.46948
316.02146
309.29006
304.62347
301.91047
300.62296
300.14154
300.01051
299.99158
299.99501
299.99839
299.99965
299.99995
300
300
300
300
300
300
300
300
300
300
300
300
300
300
300
300
300
300
300
300
300
300
300
300
300
344.67846
334.16795
324.48477
316.07748
309.37442
304.70541
301.96903
300.65515
300.15516
300.01475
299.9924
299.995
299.99831
299.99961
299.99994
300
300
300
300
300
300
300
300
300
300
300
300
300
300
300
300
300
300
300
300
300
300
300
300
300
344.67572
334.16261
324.49535
316.12628
309.45257
304.78375
302.02625
300.68722
300.16904
300.01922
299.99332
299.99502
299.99823
299.99958
299.99993
300
300
300
300
300
300
300
300
300
300
300
300
300
300
300
300
300
300
300
300
300
300
300
300
300
344.67314
334.1568
324.5021
316.16841
309.52467
304.85845
302.08203
300.7191
300.18313
300.0239
299.99435
299.99507
299.99816
299.99954
299.99992
299.99999
300
300
300
300
300
300
300
300
300
300
300
300
300
300
300
300
300
300
300
300
300
300
300
300
344.67077
334.15097
324.50589
316.20451
309.59092
304.92951
302.13631
300.75073
300.19741
300.02878
299.99548
299.99516
299.99809
299.9995
299.99991
299.99999
300
300
300
300
300
300
300
300
300
300
300
300
300
300
300
300
300
300
300
300
300
300
300
300
344.66864
334.14549
324.50759
316.23529
309.65161
304.99694
302.18904
300.78206
300.21185
300.03384
299.99672
299.99528
299.99804
299.99947
299.9999
299.99999
300
300
300
300
300
300
300
300
300
300
300
300
300
300
300
300
300
300
300
300
300
300
300
300
344.66674
334.14062
324.50802
316.26152
309.70709
305.06083
302.24017
300.81304
300.22642
300.03909
299.99806
299.99545
299.99799
299.99943
299.99989
299.99999
300
300
300
300
300
300
300
300
300
300
300
300
300
300
300
300
300
300
300
300
300
300
300
300
344.66504
334.13652
324.50791
316.28401
309.75777
305.12126
302.28969
300.84362
300.24109
300.04451
299.9995
299.99565
299.99796
299.99939
299.99987
299.99998
300
300
300
300
300
300
300
300
300
300
300
300
300
300
300
300
300
300
300
300
300
300
300
300
344.66347
334.13322
324.50787
316.30355
309.80411
305.17838
302.3376
300.87378
300.25583
300.05008
300.00104
299.99589
299.99793
299.99936
299.99986
299.99998
300
300
300
300
300
300
300
300
300
300
300
300
300
300
300
300
300
300
300
300
300
300
300
300
344.66195
334.13065
324.50837
316.32092
309.84662
305.23237
302.3839
300.90347
300.27063
300.0558
300.00268
299.99618
299.99792
299.99933
299.99985
299.99998
300
300
300
300
300
300
300
300
300
300
300
300
300
300
300
300
300
300
300
300
300
300
300
300
344.66039
334.12866
324.50971
316.33683
309.88579
305.28343
302.42862
300.93268
300.28544
300.06166
300.00441
299.9965
299.99791
299.9993
299.99983
299.99997
300
300
300
300
300
300
300
300
300
300
300
300
300
300
300
300
300
300
300
300
300
300
300
300
344.65867
334.12699
324.51205
316.35189
309.92217
305.33177
302.47182
300.9614
300.30027
300.06764
300.00623
299.99687
299.99792
299.99927
299.99982
299.99997
300
300
300
300
300
300
300
300
300
300
300
300
300
300
300
300
300
300
300
300
300
300
300
300
344.6567
334.12534
324.51536
316.36661
309.95623
305.37763
302.51354
300.9896
300.31508
300.07373
300.00815
299.99727
299.99795
299.99924
299.9998
299.99996
300
300
300
300
300
300
300
300
300
300
300
300
300
300
300
300
300
300
300
300
300
300
300
300
344.65439
334.1234
324.51945
316.38135
309.98845
305.42127
302.55385
301.01728
300.32985
300.07994
300.01015
299.99772
299.99798
299.99922
299.99979
299.99996
299.99999
300
300
300
300
300
300
300
300
300
300
300
300
300
300
300
300
300
300
300
300
300
300
300
344.65167
334.1208
324.52402
316.39633
310.01924
305.46291
302.59283
301.04445
300.34459
300.08623
300.01223
299.99821
299.99803
299.9992
299.99978
299.99995
299.99999
300
300
300
300
300
300
300
300
300
300
300
300
300
300
300
300
300
300
300
300
300
300
300
344.64847
334.11723
324.52863
316.41162
310.04893
305.5028
302.63054
301.07111
300.35926
300.09262
300.01439
299.99874
299.9981
299.99919
299.99976
299.99995
299.99999
300
300
300
300
300
300
300
300
300
300
300
300
300
300
300
300
300
300
300
300
300
300
300
344.64477
334.11239
324.5328
316.42713
310.07778
305.54115
302.66707
301.09725
300.37386
300.09908
300.01663
299.99931
299.99818
299.99917
299.99975
299.99994
299.99999
300
300
300
300
300
300
300
300
300
300
300
300
300
300
300
300
300
300
300
300
300
300
300
344.64055
334.10607
324.536
316.44264
310.10595
305.57814
302.7025
301.12289
300.38837
300.1056
300.01894
299.99992
299.99827
299.99916
299.99974
299.99994
299.99999
300
300
300
300
300
300
300
300
300
300
300
300
300
300
300
300
300
300
300
300
300
300
300
344.63583
334.0981
324.53771
316.45783
310.13353
305.61395
302.73692
301.14805
300.4028
300.11219
300.02132
300.00057
299.99838
299.99916
299.99973
299.99993
299.99999
300
300
300
300
300
300
300
300
300
300
300
300
300
300
300
300
300
300
300
300
300
300
300
344.63065
334.08837
324.53746
316.47226
310.1604
305.64854
302.77024
301.17264
300.41707
300.11881
300.02376
300.00125
299.99851
299.99916
299.99972
299.99993
299.99999
300
300
300
300
300
300
300
300
300
300
300
300
300
300
300
300
300
300
300
300
300
300
300
344.62516
334.07701
324.53478
316.48558
310.18696
305.68278
302.80334
301.19729
300.43157
300.12563
300.02632
300.002
299.99865
299.99917
299.99971
299.99992
299.99998
300
300
300
300
300
300
300
300
300
300
300
300
300
300
300
300
300
300
300
300
300
300
300
344.61914
334.06423
324.53019
316.49663
310.21013
305.71243
302.83191
301.21862
300.44417
300.13161
300.02859
300.00266
299.99879
299.99917
299.9997
299.99992
299.99998
300
300
300
300
300
300
300
300
300
300
300
300
300
300
300
300
300
300
300
300
300
300
300
344.61322
334.04515
324.51739
316.50943
310.24607
305.76051
302.87898
301.25437
300.46576
300.14212
300.03271
300.00393
299.99907
299.9992
299.99969
299.99991
299.99998
300
300
300
300
300
300
300
300
300
300
300
300
300
300
300
300
300
300
300
300
300
300
300
)
;

boundaryField
{
    wall
    {
        type            fixedValue;
        value           uniform 350;
    }
    sides
    {
        type            zeroGradient;
    }
    frontAndBack
    {
        type            empty;
    }
    inlet
    {
        type            fixedValue;
        value           uniform 300;
    }
    outlet
    {
        type            zeroGradient;
    }
}


// ************************************************************************* //
