/*--------------------------------*- C++ -*----------------------------------*\
  =========                 |
  \\      /  F ield         | OpenFOAM: The Open Source CFD Toolbox
   \\    /   O peration     | Website:  https://openfoam.org
    \\  /    A nd           | Version:  10
     \\/     M anipulation  |
\*---------------------------------------------------------------------------*/
FoamFile
{
    format      ascii;
    class       volVectorField;
    location    "0.24";
    object      U;
}
// * * * * * * * * * * * * * * * * * * * * * * * * * * * * * * * * * * * * * //

dimensions      [0 1 -1 0 0 0 0];

internalField   nonuniform List<vector> 
4000
(
(0 0.018637455 0.47773157)
(0 0.023509999 0.50886061)
(0 0.0081668557 0.50052521)
(0 0.0056146178 0.50033634)
(0 0.0042546344 0.50025746)
(0 0.003254953 0.50016898)
(0 0.002556102 0.50011969)
(0 0.0020545969 0.50009013)
(0 0.0016765985 0.50006981)
(0 0.0013822635 0.50005539)
(0 0.0011472194 0.50004499)
(0 0.00095512739 0.50003733)
(0 0.00079473322 0.5000316)
(0 0.00065806121 0.50002727)
(0 0.00053928304 0.50002399)
(0 0.00043401797 0.50002151)
(0 0.00033887862 0.50001966)
(0 0.00025116306 0.50001833)
(0 0.00016863857 0.50001744)
(0 8.9383197e-05 0.50001694)
(0 1.1663547e-05 0.50001679)
(0 -6.6172454e-05 0.50001699)
(0 -0.00014578706 0.50001755)
(0 -0.00022894482 0.5000185)
(0 -0.00031762331 0.50001991)
(0 -0.00041414362 0.50002185)
(0 -0.00052134228 0.50002446)
(0 -0.0006428105 0.50002793)
(0 -0.00078324203 0.50003252)
(0 -0.00094896294 0.50003863)
(0 -0.0011487829 0.50004688)
(0 -0.00139536 0.50005824)
(0 -0.0017074409 0.50007414)
(0 -0.0021153744 0.50009709)
(0 -0.0026750744 0.50013482)
(0 -0.0034686512 0.50020238)
(0 -0.0045608826 0.50027143)
(0 -0.0065850749 0.50043364)
(0 -0.01765951 0.50675406)
(0 -0.013590152 0.47975562)
(0 0.037432682 0.44796927)
(0 0.050955742 0.53232616)
(0 0.021969323 0.5080429)
(0 0.016135653 0.50357318)
(0 0.012416099 0.50242316)
(0 0.009515978 0.50162299)
(0 0.007520653 0.50115661)
(0 0.0060699339 0.50086593)
(0 0.0049646229 0.500668)
(0 0.0041001874 0.50052901)
(0 0.0034076772 0.50042904)
(0 0.0028401446 0.50035554)
(0 0.002365216 0.50030065)
(0 0.0019598074 0.50025925)
(0 0.0016069588 0.5002279)
(0 0.001293875 0.50020424)
(0 0.001010631 0.50018664)
(0 0.00074928902 0.50017397)
(0 0.00050327508 0.50016546)
(0 0.00026691974 0.50016062)
(0 3.5102633e-05 0.5001592)
(0 -0.0001970556 0.5001611)
(0 -0.00043446401 0.50016645)
(0 -0.00068233284 0.50017555)
(0 -0.00094649231 0.50018896)
(0 -0.0012337716 0.50020752)
(0 -0.0015524945 0.50023246)
(0 -0.0019131673 0.50026557)
(0 -0.0023294707 0.50030949)
(0 -0.0028197447 0.5003681)
(0 -0.0034093639 0.50044735)
(0 -0.0041347044 0.50055671)
(0 -0.0050488446 0.50071126)
(0 -0.0062316497 0.50093661)
(0 -0.0078320031 0.50129438)
(0 -0.010125694 0.50191052)
(0 -0.013106831 0.5028251)
(0 -0.017426237 0.50608117)
(0 -0.038759009 0.52526812)
(0 -0.027894659 0.45021648)
(0 0.039888276 0.40982056)
(0 0.061428145 0.54930815)
(0 0.031983786 0.52188196)
(0 0.024355551 0.51008055)
(0 0.019193696 0.50658857)
(0 0.014977247 0.50452808)
(0 0.012006832 0.5032714)
(0 0.0097720461 0.50245839)
(0 0.0080366475 0.50190108)
(0 0.0066649902 0.50150871)
(0 0.0055568536 0.50122549)
(0 0.0046427034 0.50101674)
(0 0.0038738018 0.5008606)
(0 0.003214753 0.50074268)
(0 0.0026392227 0.5006533)
(0 0.0021271579 0.50058579)
(0 0.0016628817 0.50053552)
(0 0.0012337744 0.50049931)
(0 0.00082932893 0.50047499)
(0 0.00044044648 0.50046117)
(0 5.8885919e-05 0.50045708)
(0 -0.00032321419 0.50046252)
(0 -0.00071376231 0.5004778)
(0 -0.0011211376 0.50050382)
(0 -0.0015546852 0.50054212)
(0 -0.0020252994 0.50059509)
(0 -0.0025461786 0.50066621)
(0 -0.0031338555 0.50076057)
(0 -0.00380966 0.50088557)
(0 -0.0046018316 0.50105212)
(0 -0.0055487248 0.50127675)
(0 -0.00670432 0.50158561)
(0 -0.0081458175 0.50202079)
(0 -0.0099773062 0.50265072)
(0 -0.0123716 0.50361507)
(0 -0.01571666 0.50519917)
(0 -0.019873093 0.5078539)
(0 -0.025186763 0.51641222)
(0 -0.047417311 0.53912728)
(0 -0.03085375 0.41488013)
(0 0.034791588 0.36173007)
(0 0.06383894 0.55456334)
(0 0.039380458 0.53747137)
(0 0.030083457 0.51849262)
(0 0.024112695 0.5119773)
(0 0.019279699 0.50849946)
(0 0.015736289 0.50626426)
(0 0.012954305 0.50475546)
(0 0.010743783 0.50370444)
(0 0.0089680333 0.50295615)
(0 0.0075140243 0.50241111)
(0 0.0063020911 0.50200683)
(0 0.0052744288 0.50170304)
(0 0.0043877807 0.50147281)
(0 0.00360933 0.50129781)
(0 0.0029136936 0.50116533)
(0 0.0022807653 0.50106653)
(0 0.0016941849 0.50099527)
(0 0.001140212 0.50094735)
(0 0.00060686742 0.50092009)
(0 8.3250547e-05 0.50091202)
(0 -0.0004410591 0.50092272)
(0 -0.00097654236 0.50095282)
(0 -0.0015342691 0.50100403)
(0 -0.0021265181 0.50107935)
(0 -0.0027674949 0.50118336)
(0 -0.0034742382 0.50132276)
(0 -0.0042678251 0.50150724)
(0 -0.0051750349 0.5017508)
(0 -0.0062306466 0.50207391)
(0 -0.0074805278 0.50250705)
(0 -0.00898691 0.50309721)
(0 -0.010837163 0.50391912)
(0 -0.013137846 0.50508914)
(0 -0.016024616 0.50680676)
(0 -0.019900042 0.50946737)
(0 -0.02473201 0.51427475)
(0 -0.031113881 0.5282469)
(0 -0.050320039 0.54407183)
(0 -0.028438484 0.37238071)
(0 0.027424267 0.31484328)
(0 0.062314905 0.55024065)
(0 0.044614624 0.55146764)
(0 0.033982127 0.52748814)
(0 0.027464167 0.51772243)
(0 0.022455281 0.51291983)
(0 0.018636914 0.50973143)
(0 0.015528259 0.50749264)
(0 0.013006336 0.50589994)
(0 0.010942319 0.50474691)
(0 0.0092248252 0.50389615)
(0 0.0077750026 0.50325919)
(0 0.0065328647 0.50277712)
(0 0.005451986 0.50240973)
(0 0.0044963178 0.50212923)
(0 0.0036373944 0.50191616)
(0 0.0028522714 0.50175683)
(0 0.0021220095 0.50164166)
(0 0.0014305144 0.50156411)
(0 0.00076362584 0.50151993)
(0 0.00010837925 0.50150681)
(0 -0.00054765609 0.50152411)
(0 -0.0012169793 0.5015728)
(0 -0.0019127366 0.50165558)
(0 -0.0026494062 0.50177714)
(0 -0.0034435678 0.50194462)
(0 -0.0043148482 0.50216843)
(0 -0.0052871324 0.50246346)
(0 -0.0063901714 0.50285095)
(0 -0.0076617405 0.50336156)
(0 -0.0091501035 0.50403992)
(0 -0.010917697 0.50495256)
(0 -0.013051357 0.50620232)
(0 -0.01565488 0.50794407)
(0 -0.018816119 0.51040417)
(0 -0.02289658 0.51405465)
(0 -0.028177736 0.5211453)
(0 -0.035707801 0.53932635)
(0 -0.050477101 0.54155519)
(0 -0.024086414 0.33055836)
(0 0.019837915 0.27519781)
(0 0.057990049 0.53974657)
(0 0.04736398 0.56256475)
(0 0.036477778 0.53660456)
(0 0.029636294 0.52350711)
(0 0.024676314 0.51740328)
(0 0.02077445 0.51336301)
(0 0.017510004 0.51044454)
(0 0.014814477 0.50832422)
(0 0.012566939 0.50676184)
(0 0.010665864 0.50559283)
(0 0.0090392589 0.50470806)
(0 0.0076295063 0.5040326)
(0 0.0063907451 0.50351423)
(0 0.0052865157 0.50311623)
(0 0.004287349 0.50281257)
(0 0.0033690165 0.50258471)
(0 0.0025111815 0.50241956)
(0 0.0016963201 0.50230812)
(0 0.00090884554 0.50224453)
(0 0.00013438089 0.50222559)
(0 -0.000640907 0.5022504)
(0 -0.0014309228 0.50232031)
(0 -0.0022502208 0.50243904)
(0 -0.0031146963 0.50261306)
(0 -0.0040423362 0.50285214)
(0 -0.0050541155 0.50317043)
(0 -0.0061750997 0.50358791)
(0 -0.0074358383 0.50413278)
(0 -0.0088742597 0.50484497)
(0 -0.01053763 0.50578148)
(0 -0.012484242 0.50702461)
(0 -0.01479431 0.50869751)
(0 -0.017569618 0.51098183)
(0 -0.020864145 0.51411991)
(0 -0.024974167 0.51873007)
(0 -0.030509076 0.52822977)
(0 -0.038630535 0.54872403)
(0 -0.048509227 0.53398461)
(0 -0.019067136 0.29393958)
(0 0.013083186 0.24255499)
(0 0.05179886 0.52520066)
(0 0.047709607 0.57024849)
(0 0.037757259 0.54552493)
(0 0.030850635 0.5292886)
(0 0.02607379 0.52180163)
(0 0.022238278 0.51699788)
(0 0.018954028 0.51347343)
(0 0.016193854 0.51086492)
(0 0.013849949 0.50891243)
(0 0.011835818 0.50743265)
(0 0.010088874 0.50630055)
(0 0.0085564966 0.50542838)
(0 0.0071959357 0.50475401)
(0 0.0059723922 0.50423305)
(0 0.0048570487 0.50383359)
(0 0.0038257179 0.50353264)
(0 0.0028577287 0.50331385)
(0 0.0019349941 0.50316584)
(0 0.0010412313 0.50308123)
(0 0.00016129763 0.50305593)
(0 -0.00071943372 0.50308879)
(0 -0.0016156608 0.50318153)
(0 -0.0025426881 0.50333888)
(0 -0.0035170803 0.50356897)
(0 -0.0045573417 0.5038841)
(0 -0.0056847102 0.50430185)
(0 -0.0069240997 0.50484686)
(0 -0.0083052151 0.50555339)
(0 -0.0098641273 0.50646923)
(0 -0.011645031 0.50766152)
(0 -0.013700173 0.50922513)
(0 -0.016099061 0.51129801)
(0 -0.018936989 0.51407954)
(0 -0.022245329 0.51783853)
(0 -0.026264895 0.52346775)
(0 -0.031848675 0.53537513)
(0 -0.03975976 0.55589682)
(0 -0.044894441 0.52282391)
(0 -0.014090827 0.2626467)
(0 0.0077701161 0.21554126)
(0 0.044825844 0.50801016)
(0 0.046255665 0.57438085)
(0 0.038035556 0.55375128)
(0 0.031288173 0.5349605)
(0 0.026768668 0.52603026)
(0 0.023117055 0.52053839)
(0 0.019921175 0.51648819)
(0 0.017182474 0.51344158)
(0 0.014813737 0.51113058)
(0 0.012746535 0.50935945)
(0 0.010928814 0.50799093)
(0 0.0093146745 0.50692739)
(0 0.0078661476 0.50609893)
(0 0.0065514903 0.50545495)
(0 0.0053437472 0.50495859)
(0 0.0042198086 0.50458307)
(0 0.003159545 0.50430915)
(0 0.0021450549 0.50412337)
(0 0.0011600151 0.50401694)
(0 0.00018911194 0.50398497)
(0 -0.00078250841 0.50402608)
(0 -0.0017697684 0.50414234)
(0 -0.0027881214 0.50433936)
(0 -0.0038541375 0.50462681)
(0 -0.0049860792 0.5050192)
(0 -0.0062045639 0.50553713)
(0 -0.0075333294 0.50620922)
(0 -0.0090000582 0.50707478)
(0 -0.010637546 0.50818798)
(0 -0.012485372 0.50962406)
(0 -0.014588669 0.51148806)
(0 -0.017003638 0.51392888)
(0 -0.019811939 0.51715525)
(0 -0.023029538 0.52148023)
(0 -0.026878957 0.52818267)
(0 -0.032350909 0.54222035)
(0 -0.039403469 0.56050234)
(0 -0.040328588 0.50908496)
(0 -0.0097081842 0.23585934)
(0 0.0040049454 0.19355665)
(0 0.037899522 0.48948737)
(0 0.04368722 0.57524012)
(0 0.037564248 0.56084509)
(0 0.031154614 0.54036115)
(0 0.026914614 0.53001138)
(0 0.023514581 0.52390181)
(0 0.020480801 0.51941261)
(0 0.017827254 0.51598784)
(0 0.015489976 0.51335897)
(0 0.013418641 0.51132417)
(0 0.011571897 0.50973758)
(0 0.0099115829 0.50849454)
(0 0.0084054648 0.50751941)
(0 0.0070257139 0.5067568)
(0 0.0057480599 0.50616599)
(0 0.0045512216 0.50571714)
(0 0.0034162811 0.50538861)
(0 0.0023261253 0.5051652)
(0 0.0012649398 0.50503691)
(0 0.0002177516 0.50499818)
(0 -0.00083002533 0.50504743)
(0 -0.0018930417 0.505187)
(0 -0.002986384 0.5054233)
(0 -0.0041260732 0.50576728)
(0 -0.0053295216 0.50623532)
(0 -0.0066160481 0.50685051)
(0 -0.0080074614 0.50764467)
(0 -0.0095286163 0.50866114)
(0 -0.011208111 0.509959)
(0 -0.01307981 0.51161956)
(0 -0.015181232 0.5137555)
(0 -0.017555013 0.51652256)
(0 -0.020265302 0.5201318)
(0 -0.023319967 0.52496343)
(0 -0.026960982 0.53274012)
(0 -0.032202567 0.54839078)
(0 -0.037994727 0.56254414)
(0 -0.035414943 0.49379454)
(0 -0.0062005287 0.21325458)
(0 0.0015510789 0.17613387)
(0 0.031499581 0.47076211)
(0 0.040532462 0.57338582)
(0 0.036559211 0.56659847)
(0 0.030637652 0.54537845)
(0 0.026672014 0.53370455)
(0 0.023543477 0.52703224)
(0 0.020710818 0.5221884)
(0 0.018183374 0.51845124)
(0 0.015917677 0.51555106)
(0 0.013879299 0.51328572)
(0 0.012036805 0.51150457)
(0 0.010359898 0.51009859)
(0 0.0088223196 0.50898827)
(0 0.0074005397 0.50811489)
(0 0.0060734438 0.50743491)
(0 0.0048220578 0.50691618)
(0 0.0036291421 0.50653523)
(0 0.002478819 0.50627547)
(0 0.0013562104 0.50612595)
(0 0.00024709574 0.50608055)
(0 -0.00086243934 0.50613753)
(0 -0.0019863683 0.50629948)
(0 -0.0031389965 0.50657341)
(0 -0.0043353647 0.50697134)
(0 -0.0055915825 0.50751108)
(0 -0.0069251958 0.50821768)
(0 -0.0083555928 0.50912536)
(0 -0.0099043424 0.51028041)
(0 -0.011595453 0.5117454)
(0 -0.013456647 0.51360569)
(0 -0.015517992 0.51597873)
(0 -0.017810115 0.51902309)
(0 -0.02037996 0.52294976)
(0 -0.023234767 0.52823566)
(0 -0.026654947 0.53704055)
(0 -0.031564919 0.55365916)
(0 -0.03590449 0.56230893)
(0 -0.030553063 0.47789391)
(0 -0.0035908596 0.19461271)
(0 7.6686891e-05 0.1625255)
(0 0.025870303 0.45260101)
(0 0.037159626 0.56943346)
(0 0.035191389 0.57098886)
(0 0.029877466 0.5499629)
(0 0.0261739 0.5371138)
(0 0.023306115 0.52991229)
(0 0.02068773 0.52478412)
(0 0.018308222 0.52079808)
(0 0.016139212 0.51767394)
(0 0.014159404 0.51521316)
(0 0.012345942 0.51326354)
(0 0.010675747 0.51171387)
(0 0.0091282047 0.51048244)
(0 0.0076840594 0.50950848)
(0 0.0063255041 0.50874661)
(0 0.0050361016 0.50816309)
(0 0.0038005642 0.50773315)
(0 0.0026045453 0.50743921)
(0 0.001434406 0.50726959)
(0 0.00027698286 0.50721776)
(0 -0.00088066111 0.50728187)
(0 -0.0020515153 0.50746466)
(0 -0.0032487978 0.50777364)
(0 -0.0044862633 0.50822158)
(0 -0.005778421 0.50882738)
(0 -0.0071407664 0.50961743)
(0 -0.008590027 0.51062763)
(0 -0.010144345 0.5119062)
(0 -0.011823206 0.51351789)
(0 -0.013648402 0.51555035)
(0 -0.015643151 0.51812332)
(0 -0.017828085 0.52139501)
(0 -0.020235585 0.52557985)
(0 -0.022879233 0.53128275)
(0 -0.026076965 0.54103142)
(0 -0.030568546 0.55793458)
(0 -0.033426045 0.56019191)
(0 -0.025994739 0.46207205)
(0 -0.0017648833 0.17947399)
(0 -0.0007180303 0.15190812)
(0 0.021107864 0.4354359)
(0 0.033819059 0.56393201)
(0 0.03360383 0.5740891)
(0 0.02897473 0.55409383)
(0 0.025519832 0.54026338)
(0 0.022886131 0.53255247)
(0 0.020478494 0.52719179)
(0 0.01825481 0.52301231)
(0 0.016195669 0.51970805)
(0 0.014290344 0.5170857)
(0 0.012523071 0.51499385)
(0 0.010876954 0.5133206)
(0 0.0093363573 0.51198333)
(0 0.0078859953 0.51092024)
(0 0.0065112678 0.51008495)
(0 0.0051982982 0.50944277)
(0 0.0039338581 0.50896813)
(0 0.0027052893 0.50864277)
(0 0.0015003784 0.50845454)
(0 0.00030721973 0.50839663)
(0 -0.00088593805 0.50846708)
(0 -0.0020908912 0.50866878)
(0 -0.0033195694 0.50900956)
(0 -0.0045842546 0.50950268)
(0 -0.0058976981 0.51016776)
(0 -0.0072732402 0.51103206)
(0 -0.0087249191 0.51213244)
(0 -0.010267551 0.51351822)
(0 -0.011916452 0.51525524)
(0 -0.013688076 0.51743215)
(0 -0.015599579 0.5201691)
(0 -0.017663428 0.523622)
(0 -0.019901096 0.52801655)
(0 -0.022338758 0.53411085)
(0 -0.025317974 0.54468175)
(0 -0.029328605 0.56120766)
(0 -0.03079094 0.55658832)
(0 -0.021893546 0.44676725)
(0 -0.00056426492 0.16725124)
(0 -0.0010701643 0.14358443)
(0 0.017203124 0.41948096)
(0 0.030666363 0.55734074)
(0 0.031914453 0.57602037)
(0 0.028003515 0.55776358)
(0 0.02478335 0.54317915)
(0 0.022349979 0.53497548)
(0 0.020138752 0.52941731)
(0 0.01806891 0.52508992)
(0 0.016124075 0.52164396)
(0 0.014301624 0.51889084)
(0 0.012591403 0.51668144)
(0 0.010981547 0.51490419)
(0 0.0094606176 0.51347639)
(0 0.0080168324 0.51233601)
(0 0.0066385332 0.51143629)
(0 0.0053142798 0.51074213)
(0 0.0040328807 0.51022754)
(0 0.0027834082 0.50987389)
(0 0.0015551582 0.50966876)
(0 0.00033759076 0.50960517)
(0 -0.00087974121 0.50968111)
(0 -0.0021073217 0.50989952)
(0 -0.0033556849 0.51026843)
(0 -0.0046355578 0.51080141)
(0 -0.0059578934 0.51151844)
(0 -0.0073339041 0.51244721)
(0 -0.0087750638 0.51362503)
(0 -0.010293117 0.51510161)
(0 -0.011899707 0.51694312)
(0 -0.013606712 0.51923828)
(0 -0.015426135 0.5221063)
(0 -0.017363965 0.52570011)
(0 -0.019434802 0.53026684)
(0 -0.021682297 0.53673166)
(0 -0.024451201 0.54797143)
(0 -0.027946794 0.56352228)
(0 -0.028169744 0.55185988)
(0 -0.01832365 0.43224421)
(0 0.00016942383 0.15739845)
(0 -0.0011532762 0.13700301)
(0 0.014078594 0.40481654)
(0 0.027781591 0.55003401)
(0 0.030211303 0.57693014)
(0 0.027016234 0.56097864)
(0 0.024017442 0.54588507)
(0 0.021749539 0.5372083)
(0 0.019713695 0.5314738)
(0 0.017788859 0.52703414)
(0 0.015956533 0.52347909)
(0 0.014219718 0.52062218)
(0 0.012572434 0.51831748)
(0 0.011006737 0.51645438)
(0 0.0095145738 0.51495065)
(0 0.0080871315 0.51374453)
(0 0.0067153361 0.51278937)
(0 0.0053899666 0.51205003)
(0 0.0041017531 0.5115004)
(0 0.0028414532 0.51112175)
(0 0.0015998728 0.51090154)
(0 0.0003678673 0.5108327)
(0 -0.00086366435 0.5109132)
(0 -0.0021038514 0.51114602)
(0 -0.0033618058 0.51153925)
(0 -0.0046467009 0.51210656)
(0 -0.0059677404 0.51286807)
(0 -0.0073341305 0.51385156)
(0 -0.0087550048 0.51509436)
(0 -0.010239387 0.51664607)
(0 -0.0117958 0.51857263)
(0 -0.013432382 0.52096223)
(0 -0.01515697 0.52393219)
(0 -0.016970729 0.52763302)
(0 -0.018885287 0.53234442)
(0 -0.020964411 0.53915931)
(0 -0.023533848 0.55089398)
(0 -0.026505585 0.56496101)
(0 -0.02567371 0.54632442)
(0 -0.015296694 0.41865091)
(0 0.00057431059 0.14945282)
(0 -0.0010856956 0.13172412)
(0 0.011623627 0.39143397)
(0 0.025192581 0.5423055)
(0 0.028553193 0.57697269)
(0 0.026046284 0.56375867)
(0 0.023257471 0.54840402)
(0 0.02112333 0.5392794)
(0 0.019238769 0.53337866)
(0 0.017445884 0.52885295)
(0 0.015720102 0.52521555)
(0 0.014067624 0.52227778)
(0 0.012485367 0.51989717)
(0 0.010968302 0.51796447)
(0 0.0095109901 0.5163982)
(0 0.0081070313 0.51513718)
(0 0.006749541 0.51413516)
(0 0.0054312484 0.51335723)
(0 0.0041446304 0.51277742)
(0 0.0028820221 0.51237703)
(0 0.0016356783 0.51214355)
(0 0.0003978168 0.5120699)
(0 -0.00083933696 0.51215404)
(0 -0.0020835773 0.51239895)
(0 -0.0033426296 0.5128127)
(0 -0.0046241791 0.51340892)
(0 -0.0059357932 0.51420766)
(0 -0.0072848559 0.51523653)
(0 -0.0086784424 0.51653259)
(0 -0.010123257 0.51814503)
(0 -0.011625277 0.52013916)
(0 -0.013189714 0.52260221)
(0 -0.014821232 0.52564915)
(0 -0.016517761 0.52942989)
(0 -0.018291267 0.53426745)
(0 -0.020225734 0.54141041)
(0 -0.02260747 0.55345704)
(0 -0.025066044 0.56562836)
(0 -0.023365526 0.54024782)
(0 -0.012783055 0.40604923)
(0 0.00075950348 0.1430201)
(0 -0.00094386286 0.12740215)
(0 0.0097194514 0.37926719)
(0 0.02289588 0.53437565)
(0 0.026975318 0.5762931)
(0 0.025112405 0.5661309)
(0 0.022524671 0.55075669)
(0 0.02049802 0.54121647)
(0 0.018740427 0.53515152)
(0 0.017064475 0.53055735)
(0 0.015436845 0.52685866)
(0 0.013864708 0.52385892)
(0 0.01234683 0.52141883)
(0 0.010880251 0.51943063)
(0 0.0094614482 0.51781371)
(0 0.008085912 0.51650761)
(0 0.0067485482 0.51546665)
(0 0.0054437468 0.51465631)
(0 0.0041655237 0.5140509)
(0 0.0029076437 0.5136319)
(0 0.0016637054 0.51338689)
(0 0.00042721136 0.51330886)
(0 -0.00080835335 0.51339576)
(0 -0.0020495147 0.51365053)
(0 -0.0033026929 0.51408116)
(0 -0.004574196 0.51470115)
(0 -0.0058701111 0.51553031)
(0 -0.0071962186 0.51659595)
(0 -0.008557844 0.51793465)
(0 -0.0099597874 0.51959496)
(0 -0.011406029 0.52164141)
(0 -0.012899596 0.52416004)
(0 -0.014442875 0.52726341)
(0 -0.016032025 0.53110362)
(0 -0.01768187 0.53605634)
(0 -0.019494449 0.54350253)
(0 -0.021700115 0.55567803)
(0 -0.023670189 0.56563437)
(0 -0.021273257 0.53384158)
(0 -0.010730227 0.39443867)
(0 0.00080531868 0.13776691)
(0 -0.00077526756 0.12377602)
(0 0.008253412 0.36821927)
(0 0.020871219 0.52640392)
(0 0.025495575 0.5750192)
(0 0.024223397 0.56812493)
(0 0.021830196 0.55296005)
(0 0.019890766 0.54304417)
(0 0.018237441 0.53681213)
(0 0.016663092 0.53215983)
(0 0.015124137 0.5284157)
(0 0.013626771 0.52536909)
(0 0.0121708 0.52288303)
(0 0.010754655 0.52085123)
(0 0.0093761492 0.51919393)
(0 0.0080321893 0.51785141)
(0 0.0067191024 0.51677859)
(0 0.0054326521 0.51594145)
(0 0.0041681742 0.51531466)
(0 0.0029206938 0.51487994)
(0 0.0016850215 0.51462504)
(0 0.0004558352 0.51454302)
(0 -0.0007722186 0.51463185)
(0 -0.0020044967 0.5148944)
(0 -0.0032462277 0.51533855)
(0 -0.0045024813 0.51597759)
(0 -0.005778043 0.51683101)
(0 -0.0070773233 0.51792568)
(0 -0.0084042052 0.51929764)
(0 -0.0097619798 0.52099473)
(0 -0.011153128 0.5230806)
(0 -0.012579123 0.52564007)
(0 -0.014040833 0.52878356)
(0 -0.015533949 0.53266891)
(0 -0.017077868 0.53773137)
(0 -0.018788796 0.54545212)
(0 -0.02082934 0.55757939)
(0 -0.022344584 0.56508396)
(0 -0.019402013 0.52726771)
(0 -0.0090754431 0.38377876)
(0 0.00076826169 0.13342087)
(0 -0.00060789602 0.1206555)
(0 0.0071263188 0.35818136)
(0 0.019090582 0.51850248)
(0 0.024119835 0.57326001)
(0 0.023381723 0.56977011)
(0 0.021178507 0.55502702)
(0 0.019311661 0.54478296)
(0 0.017742518 0.53837883)
(0 0.016255168 0.533673)
(0 0.014795238 0.52989479)
(0 0.013366339 0.52681302)
(0 0.011968708 0.52429182)
(0 0.010601652 0.52222624)
(0 0.0092638437 0.52053723)
(0 0.0079532153 0.51916572)
(0 0.0066671852 0.51806724)
(0 0.0054026248 0.51720826)
(0 0.0041559736 0.51656385)
(0 0.0029233415 0.51611603)
(0 0.0017006051 0.51585271)
(0 0.00048349136 0.51576706)
(0 -0.00073231034 0.51585706)
(0 -0.0019511072 0.51612553)
(0 -0.0031770672 0.51658017)
(0 -0.0044141747 0.51723403)
(0 -0.0056661006 0.51810625)
(0 -0.0069361157 0.51922323)
(0 -0.0082269489 0.52062042)
(0 -0.009540738 0.52234493)
(0 -0.010878893 0.52445963)
(0 -0.012241843 0.52704812)
(0 -0.013629564 0.53021932)
(0 -0.015038388 0.53414064)
(0 -0.016493274 0.53931102)
(0 -0.018119561 0.54727355)
(0 -0.020004866 0.55918554)
(0 -0.021103698 0.5640719)
(0 -0.017742553 0.52064687)
(0 -0.0077539915 0.37400661)
(0 0.00068674413 0.12976665)
(0 -0.00045666913 0.11790533)
(0 0.0062555882 0.34904397)
(0 0.017523834 0.51074783)
(0 0.022846211 0.57110685)
(0 0.022586023 0.57109445)
(0 0.020569781 0.55696701)
(0 0.018765749 0.54644894)
(0 0.017263779 0.53986776)
(0 0.015850143 0.53510873)
(0 0.014459988 0.53130409)
(0 0.013093098 0.52819603)
(0 0.011749689 0.5256482)
(0 0.010429554 0.52355674)
(0 0.0091318661 0.52184315)
(0 0.0078552638 0.52044889)
(0 0.006597978 0.51933003)
(0 0.0053577501 0.51845352)
(0 0.0041319225 0.5177948)
(0 0.0029175189 0.51733616)
(0 0.001711333 0.51706574)
(0 0.00051000688 0.51697679)
(0 -0.00068985513 0.5170673)
(0 -0.0018916394 0.51734002)
(0 -0.0030985918 0.51780249)
(0 -0.0043137677 0.5184675)
(0 -0.0055399059 0.51935382)
(0 -0.006779353 0.52048739)
(0 -0.0080339422 0.52190307)
(0 -0.0093049644 0.52364735)
(0 -0.010593109 0.52578237)
(0 -0.011898172 0.52839069)
(0 -0.013219723 0.53158057)
(0 -0.014555642 0.53553286)
(0 -0.015936806 0.54081133)
(0 -0.017492069 0.54897891)
(0 -0.019230704 0.56052118)
(0 -0.019952985 0.56268095)
(0 -0.016277606 0.51406664)
(0 -0.0067046616 0.36504876)
(0 0.00058594444 0.12663772)
(0 -0.00032805248 0.11543128)
(0 0.0055754825 0.34070322)
(0 0.016142031 0.50319007)
(0 0.021668421 0.56863547)
(0 0.021832914 0.57212402)
(0 0.020001615 0.55878665)
(0 0.018254597 0.54805434)
(0 0.016805957 0.54129266)
(0 0.015454371 0.5364778)
(0 0.014125471 0.53265135)
(0 0.012814357 0.52952351)
(0 0.01152088 0.52695558)
(0 0.010245037 0.52484447)
(0 0.0089862368 0.52311207)
(0 0.0077435787 0.52170023)
(0 0.0065158748 0.52056543)
(0 0.0053015336 0.51967502)
(0 0.00409862 0.51900481)
(0 0.002904912 0.51853735)
(0 0.0017179761 0.51826096)
(0 0.00053523654 0.51816899)
(0 -0.00064591644 0.51825945)
(0 -0.0018280785 0.518535)
(0 -0.0030137112 0.51900303)
(0 -0.0042050918 0.51967606)
(0 -0.005404197 0.52057252)
(0 -0.006612644 0.52171791)
(0 -0.0078315931 0.52314659)
(0 -0.0090617424 0.5249045)
(0 -0.010303341 0.5270532)
(0 -0.011555859 0.52967441)
(0 -0.012818836 0.53287679)
(0 -0.014092386 0.53685829)
(0 -0.015413149 0.54224564)
(0 -0.016907784 0.55057813)
(0 -0.018506951 0.56161008)
(0 -0.018891726 0.56098162)
(0 -0.014986335 0.50758849)
(0 -0.0058728534 0.35682858)
(0 0.00048160704 0.12390741)
(0 -0.00022337813 0.11316892)
(0 0.0050355182 0.33306418)
(0 0.014919075 0.49586012)
(0 0.020578213 0.56590832)
(0 0.021118249 0.57288274)
(0 0.01947027 0.56049039)
(0 0.017777521 0.54960793)
(0 0.01637138 0.54266491)
(0 0.015071871 0.53778971)
(0 0.013796602 0.53394368)
(0 0.012535483 0.53080067)
(0 0.011287736 0.52821754)
(0 0.010053351 0.52609161)
(0 0.0088318025 0.52434498)
(0 0.0076224587 0.52291971)
(0 0.0064245315 0.52177261)
(0 0.0052369265 0.52087135)
(0 0.004058275 0.52019202)
(0 0.0028869648 0.51971743)
(0 0.0017212018 0.51943604)
(0 0.00055906512 0.51934131)
(0 -0.00060139272 0.51943124)
(0 -0.0017621024 0.51970843)
(0 -0.0029248718 0.52018011)
(0 -0.00409134 0.52085856)
(0 -0.0052628756 0.5217619)
(0 -0.0064405351 0.52291524)
(0 -0.0076249924 0.52435253)
(0 -0.0088165564 0.52611928)
(0 -0.010015246 0.52827662)
(0 -0.01122044 0.53090571)
(0 -0.012431919 0.53411677)
(0 -0.013652505 0.53812805)
(0 -0.014924048 0.54362471)
(0 -0.0163656 0.55207912)
(0 -0.017831262 0.56247427)
(0 -0.017915397 0.55903298)
(0 -0.013847233 0.50125401)
(0 -0.0052118974 0.34927101)
(0 0.0003829384 0.12148091)
(0 -0.00014111743 0.11107487)
(0 0.0045980387 0.32604223)
(0 0.013832282 0.48877531)
(0 0.01956691 0.56297696)
(0 0.020437891 0.57339242)
(0 0.018971524 0.56208113)
(0 0.017332522 0.55111567)
(0 0.01596074 0.54399366)
(0 0.01470496 0.53905262)
(0 0.013476641 0.53518746)
(0 0.012260305 0.53203234)
(0 0.011054325 0.52943761)
(0 0.0098585458 0.52730051)
(0 0.0086723901 0.5255432)
(0 0.0074953638 0.52410783)
(0 0.0063269352 0.52295136)
(0 0.0051663697 0.52204173)
(0 0.0040127321 0.52135525)
(0 0.0028648942 0.52087494)
(0 0.0017215804 0.52058938)
(0 0.0005814084 0.5204921)
(0 -0.00055702279 0.52058114)
(0 -0.0016950951 0.52085899)
(0 -0.0028340826 0.52133275)
(0 -0.0039751124 0.52201451)
(0 -0.0051190788 0.5229221)
(0 -0.0062666206 0.52408034)
(0 -0.007418077 0.52552282)
(0 -0.0085735245 0.52729478)
(0 -0.0097329062 0.52945707)
(0 -0.010895669 0.53209055)
(0 -0.012062044 0.53530833)
(0 -0.013237826 0.53935156)
(0 -0.014469236 0.54495681)
(0 -0.01586286 0.55348795)
(0 -0.017199952 0.56313376)
(0 -0.017017408 0.55688395)
(0 -0.012839851 0.49508996)
(0 -0.0046832477 0.34230538)
(0 0.0002947688 0.11928844)
(0 -7.8360789e-05 0.10912011)
(0 0.0042356271 0.3195633)
(0 0.012862364 0.48194355)
(0 0.018626287 0.5598841)
(0 0.019788125 0.57367298)
(0 0.018501195 0.56356071)
(0 0.016916938 0.55258125)
(0 0.015573681 0.54528607)
(0 0.014354755 0.54027343)
(0 0.013167613 0.53638823)
(0 0.01199145 0.53322291)
(0 0.010823602 0.53061913)
(0 0.0096636705 0.52847358)
(0 0.0085109628 0.5267083)
(0 0.0073650277 0.52526539)
(0 0.0062254841 0.5241019)
(0 0.0050918477 0.5231859)
(0 0.0039635076 0.52249388)
(0 0.0028397112 0.52200899)
(0 0.0017195953 0.52171996)
(0 0.00060221241 0.52162034)
(0 -0.0005133965 0.52170817)
(0 -0.0016281696 0.5219859)
(0 -0.0027429538 0.52246051)
(0 -0.0038584742 0.52314389)
(0 -0.0049752656 0.52405368)
(0 -0.0060936664 0.52521444)
(0 -0.0072138005 0.52665954)
(0 -0.0083356291 0.52843404)
(0 -0.0094591234 0.53059866)
(0 -0.010583913 0.53323433)
(0 -0.011710825 0.5364583)
(0 -0.012848721 0.54053657)
(0 -0.014047149 0.54624809)
(0 -0.015396081 0.55480921)
(0 -0.016608761 0.5636065)
(0 -0.016190316 0.5545749)
(0 -0.011945693 0.48911228)
(0 -0.0042559682 0.33586704)
(0 0.00021908196 0.11727941)
(0 -3.1741596e-05 0.10728503)
(0 0.0039287146 0.31356327)
(0 0.011993126 0.47536636)
(0 0.017748991 0.55666538)
(0 0.019165818 0.57374278)
(0 0.018055443 0.56493043)
(0 0.016527882 0.55400664)
(0 0.015209217 0.54654762)
(0 0.014021559 0.54145791)
(0 0.012870656 0.53755082)
(0 0.011730639 0.53437628)
(0 0.010597647 0.5317652)
(0 0.009470969 0.52961313)
(0 0.008349767 0.52784192)
(0 0.0072335701 0.52639346)
(0 0.0061220696 0.52522476)
(0 0.0050149477 0.52430398)
(0 0.0039118285 0.5236077)
(0 0.0028122444 0.52311918)
(0 0.0017156536 0.52282723)
(0 0.00062145188 0.52272544)
(0 -0.00047096885 0.52281185)
(0 -0.0015621956 0.52308887)
(0 -0.0026527408 0.52356335)
(0 -0.003743022 0.52424707)
(0 -0.0048333095 0.52515749)
(0 -0.0059237353 0.52631899)
(0 -0.0070142993 0.52776482)
(0 -0.008104932 0.52953998)
(0 -0.0091956987 0.53170518)
(0 -0.010286487 0.53434179)
(0 -0.011378824 0.5375725)
(0 -0.012484588 0.54168931)
(0 -0.013655472 0.54750287)
(0 -0.014961472 0.55604634)
(0 -0.016053371 0.56390851)
(0 -0.015426629 0.55213907)
(0 -0.011148564 0.48332921)
(0 -0.0039058219 0.32989796)
(0 0.00015608297 0.11541749)
(0 2.0223973e-06 0.10555602)
(0 0.0036635395 0.30798698)
(0 0.011211046 0.46904101)
(0 0.016928673 0.55335072)
(0 0.01856844 0.57361886)
(0 0.017630905 0.56619138)
(0 0.016162502 0.55539257)
(0 0.014866017 0.54778238)
(0 0.013705142 0.54261081)
(0 0.012586276 0.53867933)
(0 0.011478917 0.53549587)
(0 0.010377864 0.53287861)
(0 0.0092820441 0.53072141)
(0 0.0081904666 0.52894573)
(0 0.0071026009 0.52749319)
(0 0.0060181567 0.52632068)
(0 0.0049369181 0.52539635)
(0 0.0038586732 0.52469682)
(0 0.0027831652 0.52420543)
(0 0.0017100963 0.52391102)
(0 0.00063912804 0.52380723)
(0 -0.00043007566 0.52389208)
(0 -0.0014978299 0.52416792)
(0 -0.0025643922 0.52464155)
(0 -0.0036299509 0.52532464)
(0 -0.0046945892 0.52623452)
(0 -0.0057583065 0.52739548)
(0 -0.0068210464 0.52884072)
(0 -0.0078827667 0.53061528)
(0 -0.0089436642 0.53278002)
(0 -0.01000393 0.53541707)
(0 -0.011065869 0.53865582)
(0 -0.012144206 0.54281465)
(0 -0.013291524 0.54872401)
(0 -0.014555263 0.55720192)
(0 -0.015529714 0.56405417)
(0 -0.014719293 0.54960391)
(0 -0.010434588 0.47774357)
(0 -0.0036142015 0.32434675)
(0 0.00010494165 0.11367682)
(0 2.5851001e-05 0.10392318)
(0 0.0034305074 0.30278717)
(0 0.010504832 0.46296196)
(0 0.016159954 0.54996536)
(0 0.017993998 0.5733171)
(0 0.017224734 0.56734472)
(0 0.015818134 0.55673892)
(0 0.014542597 0.5489933)
(0 0.01340494 0.54373603)
(0 0.012314551 0.5397773)
(0 0.011236837 0.53658467)
(0 0.010165143 0.5339619)
(0 0.0090979973 0.53180047)
(0 0.0080342587 0.53002136)
(0 0.0069733149 0.52856582)
(0 0.005914857 0.52739055)
(0 0.0048587232 0.52646361)
(0 0.0038048102 0.52576163)
(0 0.0027530113 0.52526796)
(0 0.0017032093 0.52497147)
(0 0.00065526556 0.52486582)
(0 -0.00039095003 0.52494901)
(0 -0.0014355479 0.52522337)
(0 -0.0024785966 0.52569563)
(0 -0.0035201198 0.52637739)
(0 -0.0045600751 0.52728591)
(0 -0.0055983859 0.52844545)
(0 -0.0066349879 0.52988923)
(0 -0.0076699035 0.53166242)
(0 -0.0087034788 0.53382614)
(0 -0.0097362336 0.5364637)
(0 -0.010771305 0.53971228)
(0 -0.011826004 0.54391633)
(0 -0.012952521 0.54991325)
(0 -0.014173912 0.55827792)
(0 -0.015034144 0.56405639)
(0 -0.014061948 0.54699217)
(0 -0.0097920357 0.47235446)
(0 -0.0033670612 0.31916833)
(0 6.4298934e-05 0.11203896)
(0 4.2193476e-05 0.10237876)
(0 0.0032229368 0.29792335)
(0 0.0098650238 0.45712194)
(0 0.015438299 0.54653075)
(0 0.017440947 0.57285241)
(0 0.016834582 0.56839178)
(0 0.015492368 0.55804502)
(0 0.014237437 0.55018244)
(0 0.013120199 0.54483675)
(0 0.012055271 0.54084772)
(0 0.011004601 0.53764529)
(0 0.0099599927 0.53501731)