/*--------------------------------*- C++ -*----------------------------------*\
  =========                 |
  \\      /  F ield         | OpenFOAM: The Open Source CFD Toolbox
   \\    /   O peration     | Website:  https://openfoam.org
    \\  /    A nd           | Version:  10
     \\/     M anipulation  |
\*---------------------------------------------------------------------------*/
FoamFile
{
    format      ascii;
    class       volVectorField;
    location    "0.24";
    object      U_0;
}
// * * * * * * * * * * * * * * * * * * * * * * * * * * * * * * * * * * * * * //

dimensions      [0 1 -1 0 0 0 0];

internalField   nonuniform List<vector> 
4000
(
(0 0.018637454 0.47773157)
(0 0.023509998 0.50886061)
(0 0.0081668547 0.50052521)
(0 0.005614617 0.50033634)
(0 0.0042546335 0.50025746)
(0 0.0032549523 0.50016898)
(0 0.0025561015 0.50011969)
(0 0.0020545968 0.50009013)
(0 0.0016765987 0.50006981)
(0 0.0013822641 0.50005539)
(0 0.0011472204 0.50004499)
(0 0.00095512885 0.50003733)
(0 0.00079473521 0.5000316)
(0 0.00065806376 0.50002727)
(0 0.00053928614 0.50002399)
(0 0.00043402167 0.50002151)
(0 0.00033888295 0.50001966)
(0 0.000251168 0.50001833)
(0 0.00016864412 0.50001744)
(0 8.9389365e-05 0.50001694)
(0 1.1670305e-05 0.50001679)
(0 -6.6165118e-05 0.50001698)
(0 -0.00014577919 0.50001755)
(0 -0.00022893646 0.5000185)
(0 -0.0003176145 0.50001991)
(0 -0.00041413442 0.50002185)
(0 -0.00052133272 0.50002446)
(0 -0.00064280066 0.50002793)
(0 -0.00078323198 0.50003252)
(0 -0.00094895275 0.50003863)
(0 -0.0011487726 0.50004688)
(0 -0.0013953498 0.50005824)
(0 -0.0017074309 0.50007414)
(0 -0.0021153646 0.50009709)
(0 -0.0026750651 0.50013482)
(0 -0.0034686426 0.50020238)
(0 -0.0045608749 0.50027143)
(0 -0.0065850677 0.50043365)
(0 -0.017659503 0.50675406)
(0 -0.013590148 0.47975563)
(0 0.03743268 0.44796927)
(0 0.050955738 0.53232616)
(0 0.021969319 0.5080429)
(0 0.016135649 0.50357318)
(0 0.012416096 0.50242316)
(0 0.0095159755 0.50162299)
(0 0.0075206512 0.50115661)
(0 0.006069933 0.50086593)
(0 0.004964623 0.500668)
(0 0.0041001887 0.50052901)
(0 0.0034076799 0.50042904)
(0 0.0028401487 0.50035554)
(0 0.0023652217 0.50030065)
(0 0.0019598149 0.50025925)
(0 0.001606968 0.5002279)
(0 0.001293886 0.50020424)
(0 0.0010106439 0.50018664)
(0 0.00074930383 0.50017396)
(0 0.00050329178 0.50016546)
(0 0.00026693833 0.50016062)
(0 3.5123047e-05 0.50015919)
(0 -0.00019703341 0.5001611)
(0 -0.00043444016 0.50016644)
(0 -0.00068230742 0.50017555)
(0 -0.00094646547 0.50018896)
(0 -0.0012337435 0.50020752)
(0 -0.0015524652 0.50023246)
(0 -0.0019131372 0.50026557)
(0 -0.00232944 0.50030949)
(0 -0.0028197134 0.5003681)
(0 -0.0034093325 0.50044735)
(0 -0.0041346731 0.50055671)
(0 -0.0050488138 0.50071126)
(0 -0.0062316198 0.50093661)
(0 -0.0078319744 0.50129438)
(0 -0.010125667 0.50191052)
(0 -0.013106807 0.5028251)
(0 -0.017426214 0.50608118)
(0 -0.038758988 0.52526812)
(0 -0.027894649 0.4502165)
(0 0.039888273 0.40982056)
(0 0.061428138 0.54930816)
(0 0.031983779 0.52188196)
(0 0.024355545 0.51008055)
(0 0.01919369 0.50658857)
(0 0.014977242 0.50452808)
(0 0.012006828 0.5032714)
(0 0.009772044 0.50245839)
(0 0.0080366472 0.50190108)
(0 0.006664992 0.50150871)
(0 0.0055568577 0.50122549)
(0 0.0046427101 0.50101674)
(0 0.0038738112 0.50086059)
(0 0.0032147652 0.50074268)
(0 0.002639238 0.5006533)
(0 0.0021271763 0.50058578)
(0 0.0016629034 0.50053552)
(0 0.0012337993 0.50049931)
(0 0.00082935711 0.50047499)
(0 0.0004404779 0.50046117)
(0 5.8920492e-05 0.50045708)
(0 -0.00032317657 0.50046251)
(0 -0.00071372179 0.5004778)
(0 -0.0011210944 0.50050382)
(0 -0.0015546395 0.50054212)
(0 -0.0020252515 0.50059508)
(0 -0.0025461287 0.50066621)
(0 -0.0031338041 0.50076057)
(0 -0.0038096074 0.50088557)
(0 -0.0046017782 0.50105212)
(0 -0.0055486711 0.50127675)
(0 -0.0067042664 0.50158561)
(0 -0.0081457647 0.50202079)
(0 -0.0099772547 0.50265072)
(0 -0.012371551 0.50361507)
(0 -0.015716613 0.50519917)
(0 -0.019873051 0.50785391)
(0 -0.025186721 0.51641222)
(0 -0.047417274 0.53912728)
(0 -0.030853734 0.41488017)
(0 0.034791584 0.36173009)
(0 0.063838929 0.55456334)
(0 0.039380447 0.53747137)
(0 0.030083447 0.51849261)
(0 0.024112686 0.5119773)
(0 0.019279692 0.50849945)
(0 0.015736283 0.50626426)
(0 0.012954301 0.50475546)
(0 0.010743782 0.50370444)
(0 0.008968035 0.50295614)
(0 0.0075140293 0.5024111)
(0 0.0063020998 0.50200682)
(0 0.0052744415 0.50170303)
(0 0.0043877975 0.50147281)
(0 0.0036093513 0.5012978)
(0 0.0029137194 0.50116532)
(0 0.0022807958 0.50106652)
(0 0.0016942201 0.50099526)
(0 0.001140252 0.50094734)
(0 0.0006069121 0.50092008)
(0 8.3299813e-05 0.50091201)
(0 -0.0004410054 0.50092271)
(0 -0.00097648442 0.50095281)
(0 -0.0015342072 0.50100403)
(0 -0.0021264525 0.50107935)
(0 -0.0027674261 0.50118335)
(0 -0.0034741666 0.50132275)
(0 -0.0042677511 0.50150723)
(0 -0.0051749591 0.50175079)
(0 -0.0062305695 0.5020739)
(0 -0.0074804502 0.50250705)
(0 -0.0089868326 0.50309721)
(0 -0.010837086 0.50391912)
(0 -0.013137771 0.50508914)
(0 -0.016024544 0.50680677)
(0 -0.019899974 0.50946738)
(0 -0.024731948 0.51427476)
(0 -0.031113817 0.52824691)
(0 -0.050319986 0.54407185)
(0 -0.028438464 0.37238078)
(0 0.027424262 0.3148433)
(0 0.062314891 0.55024066)
(0 0.044614607 0.55146764)
(0 0.033982112 0.52748813)
(0 0.027464154 0.51772243)
(0 0.022455269 0.51291982)
(0 0.018636904 0.50973143)
(0 0.015528253 0.50749263)
(0 0.013006333 0.50589994)
(0 0.01094232 0.5047469)
(0 0.0092248306 0.50389614)
(0 0.007775013 0.50325918)
(0 0.0065328803 0.50277711)
(0 0.0054520072 0.50240972)
(0 0.0044963449 0.50212922)
(0 0.0036374276 0.50191614)
(0 0.0028523109 0.50175682)
(0 0.0021220554 0.50164165)
(0 0.0014305665 0.50156409)
(0 0.00076368427 0.50151992)
(0 0.00010844383 0.5015068)
(0 -0.00054758553 0.50152409)
(0 -0.001216903 0.50157279)
(0 -0.001912655 0.50165557)
(0 -0.0026493197 0.50177713)
(0 -0.0034434769 0.50194461)
(0 -0.0043147534 0.50216843)
(0 -0.0052870344 0.50246345)
(0 -0.0063900708 0.50285095)
(0 -0.0076616381 0.50336155)
(0 -0.0091500002 0.50403992)
(0 -0.010917594 0.50495257)
(0 -0.013051255 0.50620232)
(0 -0.01565478 0.50794407)
(0 -0.018816023 0.51040418)
(0 -0.022896488 0.51405467)
(0 -0.02817765 0.52114531)
(0 -0.035707711 0.53932636)
(0 -0.050477031 0.54155524)
(0 -0.02408639 0.33055848)
(0 0.01983791 0.27519784)
(0 0.057990031 0.53974658)
(0 0.047363956 0.56256474)
(0 0.036477757 0.53660455)
(0 0.029636275 0.5235071)
(0 0.024676298 0.51740327)
(0 0.020774436 0.513363)
(0 0.017509994 0.51044453)
(0 0.014814471 0.50832421)
(0 0.012566938 0.50676183)
(0 0.010665869 0.50559282)
(0 0.0090392702 0.50470804)
(0 0.0076295244 0.50403258)
(0 0.0063907704 0.50351421)
(0 0.0052865484 0.50311621)
(0 0.0042873896 0.50281255)
(0 0.003369065 0.50258469)
(0 0.0025112381 0.50241954)
(0 0.0016963848 0.5023081)
(0 0.00090891824 0.50224451)
(0 0.00013446148 0.50222557)
(0 -0.00064081877 0.50225038)
(0 -0.0014308273 0.50232029)
(0 -0.0022501184 0.50243903)
(0 -0.0031145876 0.50261304)
(0 -0.0040422217 0.50285213)
(0 -0.0050539959 0.50317041)
(0 -0.0061749759 0.5035879)
(0 -0.0074357111 0.50413277)
(0 -0.0088741301 0.50484496)
(0 -0.010537499 0.50578148)
(0 -0.01248411 0.50702461)
(0 -0.01479418 0.50869752)
(0 -0.01756949 0.51098183)
(0 -0.020864022 0.51411992)
(0 -0.024974049 0.51873009)
(0 -0.030508962 0.52822979)
(0 -0.038630417 0.54872404)
(0 -0.048509141 0.5339847)
(0 -0.01906711 0.29393975)
(0 0.013083181 0.24255504)
(0 0.051798839 0.52520069)
(0 0.047709575 0.57024849)
(0 0.03775723 0.54552492)
(0 0.030850609 0.52928859)
(0 0.026073767 0.52180162)
(0 0.022238259 0.51699787)
(0 0.018954013 0.51347342)
(0 0.016193845 0.5108649)
(0 0.013849946 0.50891241)
(0 0.011835822 0.50743263)
(0 0.010088886 0.50630053)
(0 0.0085565166 0.50542836)
(0 0.0071959645 0.50475398)
(0 0.0059724303 0.50423303)
(0 0.0048570965 0.50383356)
(0 0.0038257755 0.50353261)
(0 0.0028577963 0.50331382)
(0 0.0019350717 0.50316581)
(0 0.0010413188 0.50308121)
(0 0.00016139497 0.5030559)
(0 -0.00071932689 0.50308876)
(0 -0.0016155449 0.50318151)
(0 -0.0025425636 0.50333886)
(0 -0.0035169479 0.50356895)
(0 -0.004557202 0.50388408)
(0 -0.0056845642 0.50430183)
(0 -0.0069239482 0.50484685)
(0 -0.0083050592 0.50555338)
(0 -0.0098639682 0.50646922)
(0 -0.01164487 0.50766152)
(0 -0.013700012 0.50922513)
(0 -0.0160989 0.51129802)
(0 -0.018936831 0.51407955)
(0 -0.022245175 0.51783855)
(0 -0.026264747 0.52346777)
(0 -0.03184853 0.53537515)
(0 -0.039759612 0.55589684)
(0 -0.04489434 0.52282406)
(0 -0.0140908 0.26264693)
(0 0.0077701102 0.21554132)
(0 0.044825818 0.50801021)
(0 0.046255624 0.57438085)
(0 0.038035517 0.55375127)
(0 0.031288139 0.53496049)
(0 0.026768637 0.52603024)
(0 0.023117029 0.52053837)
(0 0.019921154 0.51648817)
(0 0.01718246 0.51344156)
(0 0.014813731 0.51113055)
(0 0.012746536 0.50935942)
(0 0.010928825 0.5079909)
(0 0.0093146957 0.50692736)
(0 0.0078661795 0.5060989)
(0 0.0065515334 0.50545491)
(0 0.0053438019 0.50495855)
(0 0.0042198752 0.50458303)
(0 0.0031596237 0.50430911)
(0 0.0021451458 0.50412333)
(0 0.0011601181 0.5040169)
(0 0.00018922683 0.50398493)
(0 -0.00078238194 0.50402605)
(0 -0.0017696309 0.5041423)
(0 -0.0027879734 0.50433932)
(0 -0.0038539797 0.50462678)
(0 -0.0049859125 0.50501917)
(0 -0.0062043893 0.50553711)
(0 -0.007533148 0.5062092)
(0 -0.0089998713 0.50707477)
(0 -0.010637355 0.50818797)
(0 -0.012485178 0.50962405)
(0 -0.014588475 0.51148806)
(0 -0.017003444 0.51392889)
(0 -0.019811748 0.51715527)
(0 -0.023029352 0.52148025)
(0 -0.026878775 0.5281827)
(0 -0.032350728 0.54222037)
(0 -0.039403288 0.56050238)
(0 -0.040328471 0.50908518)
(0 -0.0097081557 0.23585964)
(0 0.004004939 0.19355672)
(0 0.037899492 0.48948744)
(0 0.043687169 0.57524013)
(0 0.037564198 0.56084508)
(0 0.031154569 0.54036114)
(0 0.026914574 0.53001136)
(0 0.023514546 0.52390179)
(0 0.020480773 0.51941259)
(0 0.017827233 0.51598781)
(0 0.015489965 0.51335893)
(0 0.013418639 0.51132413)
(0 0.011571906 0.50973753)
(0 0.0099116044 0.5084945)
(0 0.008405499 0.50751936)
(0 0.0070257614 0.50675675)
(0 0.0057481214 0.50616594)
(0 0.0045512972 0.50571708)
(0 0.0034163712 0.50538855)
(0 0.0023262299 0.50516515)
(0 0.0012650589 0.50503686)
(0 0.00021788492 0.50499813)
(0 -0.00082987814 0.50504738)
(0 -0.0018928812 0.50518695)
(0 -0.0029862109 0.50542325)
(0 -0.0041258883 0.50576724)
(0 -0.0053293259 0.50623528)
(0 -0.0066158428 0.50685048)
(0 -0.0080072477 0.50764464)
(0 -0.0095283957 0.50866112)
(0 -0.011207885 0.50995898)
(0 -0.013079581 0.51161956)
(0 -0.015181001 0.5137555)
(0 -0.017554782 0.51652257)
(0 -0.020265074 0.52013182)
(0 -0.023319743 0.52496346)
(0 -0.026960763 0.53274015)
(0 -0.032202346 0.5483908)
(0 -0.037994513 0.56254421)
(0 -0.035414811 0.49379485)
(0 -0.006200499 0.21325495)
(0 0.0015510719 0.17613396)
(0 0.031499546 0.4707622)
(0 0.0405324 0.57338584)
(0 0.036559146 0.56659845)
(0 0.030637594 0.54537843)
(0 0.026671962 0.53370453)
(0 0.023543431 0.52703221)
(0 0.02071078 0.52218837)
(0 0.018183345 0.5184512)
(0 0.015917659 0.51555101)
(0 0.013879293 0.51328566)
(0 0.012036812 0.51150451)
(0 0.010359919 0.51009853)
(0 0.0088223554 0.5089882)
(0 0.0074005912 0.50811482)
(0 0.0060735116 0.50743485)
(0 0.0048221424 0.50691611)
(0 0.0036292437 0.50653516)
(0 0.0024789378 0.5062754)
(0 0.0013563463 0.50612588)
(0 0.00024724843 0.50608048)
(0 -0.00086227022 0.50613747)
(0 -0.0019861834 0.50629942)
(0 -0.0031387966 0.50657336)
(0 -0.0043351507 0.50697129)
(0 -0.0055913555 0.50751104)
(0 -0.0069249572 0.50821764)
(0 -0.008355344 0.50912532)
(0 -0.0099040852 0.51028039)
(0 -0.011595189 0.51174538)
(0 -0.013456378 0.51360568)
(0 -0.015517721 0.51597873)
(0 -0.017809844 0.5190231)
(0 -0.020379691 0.52294979)
(0 -0.023234503 0.5282357)
(0 -0.026654686 0.53704058)
(0 -0.031564654 0.55365918)
(0 -0.03590424 0.56230905)
(0 -0.030552916 0.47789433)
(0 -0.0035908284 0.19461317)
(0 7.6679315e-05 0.16252561)
(0 0.025870262 0.45260114)
(0 0.03715955 0.5694335)
(0 0.035191307 0.57098884)
(0 0.029877393 0.54996288)
(0 0.026173835 0.53711377)
(0 0.023306056 0.52991225)
(0 0.020687681 0.52478408)
(0 0.018308184 0.52079803)
(0 0.016139186 0.51767389)
(0 0.014159391 0.51521309)
(0 0.012345945 0.51326347)
(0 0.010675766 0.5117138)
(0 0.0091282411 0.51048236)
(0 0.0076841141 0.5095084)
(0 0.0063255779 0.50874653)
(0 0.0050361949 0.508163)
(0 0.0038006774 0.50773306)
(0 0.0026046786 0.50743912)
(0 0.0014345594 0.5072695)
(0 0.00027715592 0.50721767)
(0 -0.00088046874 0.50728178)
(0 -0.0020513043 0.50746458)
(0 -0.0032485691 0.50777357)
(0 -0.004486018 0.50822151)
(0 -0.0057781602 0.50882732)
(0 -0.0071404917 0.50961738)
(0 -0.0085897402 0.51062758)
(0 -0.010144048 0.51190617)
(0 -0.011822901 0.51351787)
(0 -0.013648091 0.51555034)
(0 -0.015642836 0.51812332)
(0 -0.017827769 0.52139502)
(0 -0.020235271 0.52557988)
(0 -0.022878923 0.53128279)
(0 -0.026076656 0.54103145)
(0 -0.030568232 0.5579346)
(0 -0.033425758 0.5601921)
(0 -0.025994577 0.4620726)
(0 -0.0017648503 0.17947453)
(0 -0.00071803839 0.15190826)
(0 0.021107816 0.43543607)
(0 0.033818968 0.56393207)
(0 0.033603729 0.57408908)
(0 0.028974638 0.55409379)
(0 0.02551975 0.54026335)
(0 0.022886057 0.53255242)
(0 0.020478431 0.52719174)
(0 0.018254759 0.52301225)
(0 0.016195633 0.51970798)
(0 0.014290323 0.51708562)
(0 0.012523068 0.51499376)
(0 0.01087697 0.51332051)
(0 0.0093363932 0.51198323)
(0 0.0078860525 0.51092013)
(0 0.006511347 0.51008484)
(0 0.0051984001 0.50944266)
(0 0.0039339831 0.50896802)
(0 0.0027054376 0.50864266)
(0 0.00150055 0.50845443)
(0 0.00030741423 0.50839652)
(0 -0.00088572104 0.50846698)
(0 -0.0020906525 0.50866869)
(0 -0.0033193099 0.50900947)
(0 -0.0045839755 0.5095026)
(0 -0.0058974009 0.51016769)
(0 -0.0072729265 0.51103199)
(0 -0.0087245909 0.51213239)
(0 -0.01026721 0.51351818)
(0 -0.011916102 0.51525521)
(0 -0.013687718 0.51743213)
(0 -0.015599215 0.52016909)
(0 -0.017663063 0.52362201)
(0 -0.019900732 0.52801658)
(0 -0.022338399 0.53411089)
(0 -0.025317612 0.54468178)
(0 -0.029328238 0.5612077)
(0 -0.030790613 0.55658859)
(0 -0.021893368 0.44676795)
(0 -0.00056422979 0.16725188)
(0 -0.0010701729 0.14358459)
(0 0.017203069 0.41948118)
(0 0.030666256 0.55734083)
(0 0.03191433 0.57602035)
(0 0.028003401 0.55776354)
(0 0.024783247 0.5431791)
(0 0.022349887 0.53497542)
(0 0.020138672 0.52941724)
(0 0.018068844 0.52508984)
(0 0.016124025 0.52164387)
(0 0.014301593 0.51889074)
(0 0.012591392 0.51668133)
(0 0.010981558 0.51490408)
(0 0.0094606518 0.51347627)
(0 0.0080168911 0.51233588)
(0 0.0066386172 0.51143616)
(0 0.00531439 0.510742)
(0 0.0040330175 0.5102274)
(0 0.0027835719 0.50987375)
(0 0.0015553487 0.50966863)
(0 0.00033780786 0.50960504)
(0 -0.00087949807 0.50968098)
(0 -0.0021070533 0.5098994)
(0 -0.0033553923 0.51026832)
(0 -0.0046352424 0.51080131)
(0 -0.0059575567 0.51151835)
(0 -0.0073335481 0.51244713)
(0 -0.0087746906 0.51362496)
(0 -0.010292729 0.51510156)
(0 -0.011899307 0.51694307)
(0 -0.013606303 0.51923826)
(0 -0.015425719 0.5221063)
(0 -0.017363545 0.52570012)
(0 -0.019434383 0.53026687)
(0 -0.021681881 0.5367317)
(0 -0.02445078 0.54797145)
(0 -0.027946369 0.56352234)
(0 -0.028169376 0.55186025)
(0 -0.018323455 0.43224507)
(0 0.00016946118 0.15739919)
(0 -0.0011532851 0.13700321)
(0 0.014078531 0.40481683)
(0 0.027781465 0.55003413)
(0 0.030211154 0.57693012)
(0 0.027016094 0.56097858)
(0 0.024017316 0.54588501)
(0 0.021749425 0.53720824)
(0 0.019713595 0.53147372)
(0 0.017788776 0.52703405)
(0 0.015956469 0.52347899)
(0 0.014219675 0.52062206)
(0 0.012572413 0.51831735)
(0 0.011006741 0.51645424)
(0 0.0095146048 0.5149505)
(0 0.0080871905 0.51374438)
(0 0.0067154242 0.51278922)
(0 0.0053900847 0.51204987)
(0 0.0041019017 0.51150024)
(0 0.0028416326 0.51112159)
(0 0.0016000831 0.51090138)
(0 0.0003681082 0.51083254)
(0 -0.00086339342 0.51091304)
(0 -0.0021035513 0.51114587)
(0 -0.0033614777 0.51153911)
(0 -0.0046463463 0.51210644)
(0 -0.0059673611 0.51286796)
(0 -0.0073337285 0.51385146)
(0 -0.0087545825 0.51509427)
(0 -0.010238947 0.516646)
(0 -0.011795345 0.51857258)
(0 -0.013431915 0.5209622)
(0 -0.015156496 0.52393218)
(0 -0.01697025 0.52763303)
(0 -0.018884807 0.53234446)
(0 -0.020963932 0.53915935)
(0 -0.023533361 0.550894)
(0 -0.026505097 0.5649611)
(0 -0.025673297 0.54632491)
(0 -0.015296479 0.41865197)
(0 0.00057435009 0.14945368)
(0 -0.0010857049 0.13172435)
(0 0.011623554 0.39143432)
(0 0.025192434 0.54230568)
(0 0.028553015 0.57697268)
(0 0.026046112 0.5637586)
(0 0.023257317 0.54840395)
(0 0.021123191 0.53927932)
(0 0.019238646 0.53337857)
(0 0.01744578 0.52885283)
(0 0.015720019 0.52521542)
(0 0.014067565 0.52227764)
(0 0.012485335 0.51989702)
(0 0.010968298 0.5179643)
(0 0.0095110162 0.51639802)
(0 0.0081070894 0.515137)
(0 0.0067496322 0.51413497)
(0 0.0054313738 0.51335704)
(0 0.0041447908 0.51277722)
(0 0.0028822177 0.51237683)
(0 0.0016359092 0.51214335)
(0 0.00039808279 0.5120697)
(0 -0.00083903653 0.51215386)
(0 -0.0020832434 0.51239877)
(0 -0.0033422634 0.51281253)
(0 -0.0046237823 0.51340877)
(0 -0.0059353677 0.51420752)
(0 -0.007284404 0.5152364)
(0 -0.0086779667 0.51653248)
(0 -0.010122761 0.51814494)
(0 -0.011624763 0.52013909)
(0 -0.013189186 0.52260216)
(0 -0.014820693 0.52564913)
(0 -0.016517216 0.5294299)
(0 -0.01829072 0.53426748)
(0 -0.020225185 0.54141045)
(0 -0.02260691 0.55345705)
(0 -0.025065487 0.56562848)
(0 -0.023365065 0.54024846)
(0 -0.012782819 0.4060505)
(0 0.00075954498 0.14302107)
(0 -0.00094387233 0.12740242)
(0 0.0097193669 0.37926762)
(0 0.02289571 0.53437588)
(0 0.026975106 0.5762931)
(0 0.025112199 0.56613081)
(0 0.022524484 0.5507566)
(0 0.020497851 0.54121638)
(0 0.018740276 0.5351514)
(0 0.017064346 0.53055721)
(0 0.01543674 0.52685851)
(0 0.013864631 0.52385875)
(0 0.012346783 0.52141865)
(0 0.010880235 0.51943043)
(0 0.0094614676 0.5178135)
(0 0.0080859676 0.5165074)
(0 0.0067486416 0.51546643)
(0 0.005443879 0.51465608)
(0 0.0041656957 0.51405066)
(0 0.0029078558 0.51363166)
(0 0.0016639578 0.51338666)
(0 0.00042750374 0.51330863)
(0 -0.00080802158 0.51339554)
(0 -0.0020491445 0.51365031)
(0 -0.0033022857 0.51408096)
(0 -0.0045737536 0.51470096)
(0 -0.0058696356 0.51553014)
(0 -0.0071957126 0.5165958)
(0 -0.0085573102 0.51793451)
(0 -0.009959229 0.51959485)
(0 -0.011405449 0.52164132)
(0 -0.012899 0.52415998)
(0 -0.014442265 0.52726338)
(0 -0.016031407 0.53110362)
(0 -0.017681247 0.53605637)
(0 -0.019493822 0.54350255)
(0 -0.021699473 0.55567804)
(0 -0.023669556 0.56563454)
(0 -0.021272744 0.53384239)
(0 -0.010729967 0.39444019)
(0 0.00080536191 0.13776802)
(0 -0.00077527722 0.12377634)
(0 0.0082533154 0.3682198)
(0 0.020871023 0.52640423)
(0 0.025495325 0.57501923)
(0 0.024223149 0.56812483)
(0 0.021829971 0.55295994)
(0 0.019890563 0.54304406)
(0 0.018237258 0.536812)
(0 0.016662934 0.53215967)
(0 0.015124006 0.52841552)
(0 0.013626672 0.52536889)
(0 0.012170734 0.52288281)
(0 0.010754626 0.520851)
(0 0.0093761596 0.51919369)
(0 0.0080322408 0.51785116)
(0 0.0067191966 0.51677833)
(0 0.0054327905 0.51594118)
(0 0.0041683576 0.51531438)
(0 0.0029209228 0.51487966)
(0 0.0016852962 0.51462477)
(0 0.00045615541 0.51454275)
(0 -0.00077185354 0.51463158)
(0 -0.0020040879 0.51489415)
(0 -0.0032457766 0.51533831)
(0 -0.0045019898 0.51597736)
(0 -0.0057775134 0.5168308)
(0 -0.0070767584 0.5179255)
(0 -0.008403608 0.51929748)
(0 -0.0097613539 0.52099459)
(0 -0.011152478 0.5230805)
(0 -0.012578452 0.52564)
(0 -0.014040146 0.52878352)
(0 -0.01553325 0.53266891)
(0 -0.017077163 0.53773139)
(0 -0.018788082 0.54545214)
(0 -0.020828608 0.55757939)
(0 -0.022343868 0.5650842)
(0 -0.019401444 0.52726871)
(0 -0.0090751564 0.38378055)
(0 0.00076830645 0.13342212)
(0 -0.00060790581 0.12065587)
(0 0.0071262086 0.358182)
(0 0.019090357 0.51850287)
(0 0.024119543 0.57326006)
(0 0.023381428 0.56977)
(0 0.021178239 0.55502689)
(0 0.019311417 0.54478282)
(0 0.017742299 0.53837867)
(0 0.016254976 0.53367281)
(0 0.014795078 0.52989458)
(0 0.013366214 0.52681279)
(0 0.011968621 0.52429157)
(0 0.010601607 0.52222597)
(0 0.0092638427 0.52053694)
(0 0.0079532607 0.51916542)
(0 0.006667279 0.51806692)
(0 0.0054027684 0.51720794)
(0 0.0041561681 0.51656353)
(0 0.0029235876 0.5161157)
(0 0.001700903 0.51585239)
(0 0.00048384086 0.51576674)
(0 -0.00073190992 0.51585675)
(0 -0.001950657 0.51612523)
(0 -0.0031765688 0.51657988)
(0 -0.0044136302 0.51723376)
(0 -0.0056655125 0.518106)
(0 -0.0069354869 0.51922301)
(0 -0.0082262827 0.52062022)
(0 -0.0095400385 0.52234477)
(0 -0.010878164 0.5244595)
(0 -0.01224109 0.52704803)
(0 -0.013628791 0.53021927)
(0 -0.015037601 0.53414062)
(0 -0.016492477 0.53931104)
(0 -0.01811875 0.54727355)
(0 -0.020004035 0.55918554)
(0 -0.021102892 0.56407223)
(0 -0.017741923 0.52064811)
(0 -0.0077536759 0.3740087)
(0 0.00068679025 0.12976805)
(0 -0.00045667903 0.11790576)
(0 0.0062554631 0.34904473)
(0 0.017523575 0.51074832)
(0 0.02284587 0.57110694)
(0 0.022585676 0.57109432)
(0 0.020569461 0.55696685)
(0 0.018765459 0.54644878)
(0 0.017263517 0.53986757)
(0 0.015849913 0.53510851)
(0 0.014459793 0.53130384)
(0 0.013092944 0.52819576)
(0 0.011749578 0.5256479)
(0 0.010429489 0.52355642)
(0 0.009131851 0.52184281)
(0 0.0078553011 0.52044854)
(0 0.0065980696 0.51932967)
(0 0.0053578979 0.51845315)
(0 0.0041321277 0.51779442)
(0 0.0029177824 0.51733578)
(0 0.001711655 0.51706536)
(0 0.0005103872 0.51697641)
(0 -0.00068941718 0.51706694)
(0 -0.001891145 0.51733967)
(0 -0.0030980426 0.51780216)
(0 -0.004313166 0.51846719)
(0 -0.0055392543 0.51935353)
(0 -0.0067786548 0.52048713)
(0 -0.008033201 0.52190284)
(0 -0.0093041845 0.52364715)
(0 -0.010592295 0.52578221)
(0 -0.011897329 0.52839057)
(0 -0.013218856 0.53158049)
(0 -0.014554758 0.53553283)
(0 -0.015935908 0.54081133)
(0 -0.017491152 0.54897889)
(0 -0.019229764 0.56052119)
(0 -0.019952081 0.56268138)
(0 -0.016276909 0.51406814)
(0 -0.0067043143 0.36505117)
(0 0.00058599177 0.1266393)
(0 -0.00032806249 0.11543177)
(0 0.0055753412 0.34070413)
(0 0.016141737 0.50319069)
(0 0.021668027 0.5686356)
(0 0.021832507 0.57212389)
(0 0.020001238 0.55878646)
(0 0.018254254 0.54805414)
(0 0.016805647 0.54129244)
(0 0.015454096 0.53647755)
(0 0.014125236 0.53265106)
(0 0.012814167 0.52952319)
(0 0.01152074 0.52695523)
(0 0.010244948 0.5248441)
(0 0.0089862045 0.52311168)
(0 0.0077436052 0.52169982)
(0 0.0065159625 0.520565)
(0 0.0053016845 0.51967459)
(0 0.0040988356 0.51900437)
(0 0.002905193 0.51853691)
(0 0.0017183231 0.51826052)
(0 0.00053564927 0.51816855)
(0 -0.00064543863 0.51825902)
(0 -0.0018275369 0.51853459)
(0 -0.0030131075 0.51900264)
(0 -0.0042044284 0.51967569)
(0 -0.0054034768 0.52057218)
(0 -0.0066118706 0.5217176)
(0 -0.0078307704 0.52314631)
(0 -0.0090608749 0.52490426)
(0 -0.010302433 0.527053)
(0 -0.011554917 0.52967427)
(0 -0.012817866 0.5328767)
(0 -0.014091394 0.53685824)
(0 -0.015412138 0.54224563)
(0 -0.016906748 0.55057809)
(0 -0.01850589 0.56161009)
(0 -0.018890715 0.56098218)
(0 -0.014985566 0.50759029)
(0 -0.0058724717 0.35683136)
(0 0.0004816555 0.12390917)
(0 -0.00022338824 0.11316948)
(0 0.0050353593 0.33306525)
(0 0.01491874 0.49586088)
(0 0.020577759 0.56590851)
(0 0.021117773 0.5728826)
(0 0.019469827 0.56049017)
(0 0.017777118 0.5496077)
(0 0.016371014 0.54266466)
(0 0.015071546 0.53778941)
(0 0.013796322 0.53394335)
(0 0.012535254 0.5308003)
(0 0.011287561 0.52821714)
(0 0.010053236 0.52609119)
(0 0.0088317495 0.52434453)
(0 0.0076224717 0.52291924)
(0 0.0064246132 0.52177212)
(0 0.0052370792 0.52087085)
(0 0.0040585001 0.52019151)
(0 0.0028872635 0.51971692)
(0 0.0017215746 0.51943553)
(0 0.00055951191 0.5193408)
(0 -0.00060087262 0.51943075)
(0 -0.0017615103 0.51970796)
(0 -0.0029242096 0.52017965)
(0 -0.0040906102 0.52085813)
(0 -0.0052620813 0.5217615)
(0 -0.00643968 0.52291488)
(0 -0.007624081 0.52435221)
(0 -0.0088155933 0.526119)
(0 -0.010014237 0.52827639)
(0 -0.01121939 0.53090553)
(0 -0.012430836 0.53411664)
(0 -0.013651395 0.53812798)
(0 -0.014922913 0.54362467)
(0 -0.016364434 0.55207905)
(0 -0.017830069 0.56247429)
(0 -0.017914269 0.55903368)
(0 -0.013846384 0.50125615)
(0 -0.0052114786 0.34927419)
(0 0.00038298798 0.12148288)
(0 -0.00014112763 0.11107551)
(0 0.0045978607 0.32604348)
(0 0.013831902 0.48877624)
(0 0.01956639 0.56297723)
(0 0.020437339 0.57339227)
(0 0.018971006 0.56208087)
(0 0.01733205 0.5511154)
(0 0.015960311 0.54399336)
(0 0.014704576 0.53905228)
(0 0.013476309 0.53518708)
(0 0.01226003 0.53203192)
(0 0.011054111 0.52943715)
(0 0.0098583981 0.52730002)
(0 0.0086723127 0.52554269)
(0 0.0074953603 0.52410728)
(0 0.0063270086 0.5229508)
(0 0.0051665224 0.52204116)
(0 0.0040129661 0.52135467)
(0 0.0028652106 0.52087435)
(0 0.0017219799 0.52058879)
(0 0.00058189096 0.52049152)
(0 -0.00055645788 0.52058057)
(0 -0.0016944492 0.52085844)
(0 -0.0028333577 0.52133222)
(0 -0.003974311 0.52201401)
(0 -0.0051182044 0.52292163)
(0 -0.0062656772 0.52407991)
(0 -0.0074170692 0.52552244)
(0 -0.0085724575 0.52729445)
(0 -0.0097317859 0.52945679)
(0 -0.010894502 0.53209033)
(0 -0.012060837 0.53530817)
(0 -0.013236586 0.53935147)
(0 -0.014467964 0.54495674)
(0 -0.015861549 0.55348785)
(0 -0.017198613 0.56313381)
(0 -0.017016154 0.55688483)
(0 -0.012838916 0.49509248)
(0 -0.004682789 0.34230901)
(0 0.00029481948 0.11929063)
(0 -7.8371083e-05 0.10912084)
(0 0.0042354285 0.31956476)
(0 0.012861935 0.48194467)
(0 0.018625693 0.55988446)
(0 0.019787487 0.57367283)
(0 0.018500592 0.56356041)
(0 0.016916388 0.55258093)
(0 0.01557318 0.54528573)
(0 0.014354306 0.54027304)
(0 0.013167222 0.53638779)
(0 0.011991122 0.53322243)
(0 0.010823343 0.5306186)
(0 0.0096634857 0.52847301)
(0 0.0085108566 0.52670771)
(0 0.0073650042 0.52526477)
(0 0.0062255465 0.52410126)
(0 0.0050919987 0.52318524)
(0 0.0039637494 0.52249321)
(0 0.0028400452 0.52200832)
(0 0.0017200224 0.52171928)
(0 0.00060273246 0.52161967)
(0 -0.00051278413 0.52170751)
(0 -0.0016274663 0.52198526)
(0 -0.0027421616 0.5224599)
(0 -0.0038575959 0.52314331)
(0 -0.0049743048 0.52405314)
(0 -0.0060926274 0.52521394)
(0 -0.0072126882 0.52665909)
(0 -0.0083344491 0.52843365)
(0 -0.009457882 0.53059832)
(0 -0.010582617 0.53323406)
(0 -0.011709483 0.5364581)
(0 -0.012847338 0.54053644)
(0 -0.014045727 0.54624798)
(0 -0.015394613 0.55480908)
(0 -0.016607264 0.56360657)
(0 -0.016188924 0.55457599)
(0 -0.011944664 0.48911523)
(0 -0.0042554668 0.33587116)
(0 0.00021913378 0.11728183)
(0 -3.1751947e-05 0.10728586)
(0 0.0039284937 0.31356496)
(0 0.011992644 0.4753677)
(0 0.017748315 0.55666585)
(0 0.019165085 0.57374263)
(0 0.018054745 0.56493008)
(0 0.016527243 0.55400627)
(0 0.015208635 0.54654722)
(0 0.014021036 0.54145746)
(0 0.012870197 0.53755031)
(0 0.011730251 0.53437573)
(0 0.010597337 0.53176459)
(0 0.0094707417 0.52961249)
(0 0.0083496274 0.52784124)
(0 0.0072335226 0.52639274)
(0 0.006122118 0.52522402)
(0 0.005015095 0.52430322)
(0 0.0039120771 0.52360693)
(0 0.002812596 0.52311841)
(0 0.0017161089 0.52282645)
(0 0.00062201119 0.52272467)
(0 -0.00047030624 0.5228111)
(0 -0.0015614311 0.52308813)
(0 -0.0026518765 0.52356264)
(0 -0.003742061 0.5242464)
(0 -0.0048322555 0.52515686)
(0 -0.0059225928 0.52631841)
(0 -0.0070130736 0.52776429)
(0 -0.0081036291 0.52953951)
(0 -0.0091943254 0.53170479)
(0 -0.01028505 0.53434147)
(0 -0.011377332 0.53757226)
(0 -0.012483048 0.54168913)
(0 -0.013653885 0.54750271)
(0 -0.014959829 0.55604617)
(0 -0.0160517 0.56390863)
(0 -0.015425086 0.55214041)
(0 -0.011147435 0.48333264)
(0 -0.0039052749 0.32990262)
(0 0.00015613593 0.11542018)
(0 2.0120388e-06 0.10555697)
(0 0.0036632946 0.30798894)
(0 0.011210505 0.46904261)
(0 0.016927908 0.55335132)
(0 0.0185676 0.57361872)
(0 0.017630099 0.56619099)
(0 0.016161764 0.55539214)
(0 0.014865344 0.54778192)
(0 0.013704535 0.5426103)
(0 0.012585742 0.53867876)
(0 0.011478462 0.53549524)
(0 0.010377495 0.53287792)
(0 0.009281768 0.53072068)
(0 0.0081902883 0.52894495)
(0 0.0071025252 0.52749237)
(0 0.0060181878 0.52631984)
(0 0.0049370593 0.52539549)
(0 0.0038589272 0.52469595)
(0 0.0027835338 0.52420455)
(0 0.0017105807 0.52391014)
(0 0.00063972836 0.52380635)
(0 -0.00042935997 0.52389122)
(0 -0.0014970003 0.52416708)
(0 -0.0025634509 0.52464075)
(0 -0.0036289011 0.52532387)
(0 -0.0046934347 0.5262338)
(0 -0.0057570522 0.52739481)
(0 -0.006819698 0.52884011)
(0 -0.0078813305 0.53061474)
(0 -0.0089421475 0.53277955)
(0 -0.01000234 0.53541668)
(0 -0.011064215 0.53865552)
(0 -0.012142495 0.54281442)
(0 -0.013289755 0.5487238)
(0 -0.014553428 0.5572017)
(0 -0.015527854 0.56405433)
(0 -0.014717588 0.54960553)
(0 -0.010433349 0.47774754)
(0 -0.0036136058 0.324352)
(0 0.0001049958 0.1136798)
(0 2.5840706e-05 0.10392424)
(0 0.0034302366 0.30278943)
(0 0.010504226 0.46296385)
(0 0.016159089 0.54996613)
(0 0.01799304 0.57331698)
(0 0.017223809 0.56734427)
(0 0.015817283 0.55673842)
(0 0.014541821 0.54899277)
(0 0.01340424 0.54373544)
(0 0.012313932 0.53977665)
(0 0.011236306 0.53658395)
(0 0.010164708 0.53396112)
(0 0.0090976656 0.53179964)
(0 0.0080340359 0.53002048)
(0 0.0069732063 0.5285649)
(0 0.005914867 0.5273896)
(0 0.0048588557 0.52646263)
(0 0.003805068 0.52576063)
(0 0.0027533966 0.52526695)
(0 0.0017037233 0.52497047)
(0 0.00065590871 0.52486482)
(0 -0.00039017829 0.52494803)
(0 -0.0014346491 0.52522241)
(0 -0.0024775729 0.52569471)
(0 -0.0035189746 0.52637651)
(0 -0.0045588125 0.52728508)
(0 -0.005597011 0.52844468)
(0 -0.0066335067 0.52988852)
(0 -0.0076683228 0.53166179)
(0 -0.0087018061 0.53382559)
(0 -0.0097344775 0.53646324)
(0 -0.010769474 0.53971192)
(0 -0.011824106 0.54391604)
(0 -0.012950553 0.54991297)
(0 -0.014171868 0.55827765)
(0 -0.015032077 0.56405662)
(0 -0.014060067 0.54699412)
(0 -0.0097906789 0.47235903)
(0 -0.0033664135 0.31917423)
(0 6.435432e-05 0.11204224)
(0 4.2183301e-05 0.10237996)
(0 0.0032226383 0.29792594)
(0 0.0098643471 0.45712417)
(0 0.015437325 0.5465317)
(0 0.017439857 0.57285232)
(0 0.016833522 0.56839127)
(0 0.015491392 0.55804444)
(0 0.014236546 0.55018183)
(0 0.013119393 0.54483608)
(0 0.012054556 0.54084697)
(0 0.011003985 0.53764448)
(0 0.0099594838 0.53501643)
(0 0.0089191497 0.53285129)