/*--------------------------------*- C++ -*----------------------------------*\
  =========                 |
  \\      /  F ield         | OpenFOAM: The Open Source CFD Toolbox
   \\    /   O peration     | Website:  https://openfoam.org
    \\  /    A nd           | Version:  10
     \\/     M anipulation  |
\*---------------------------------------------------------------------------*/
FoamFile
{
    format      ascii;
    class       surfaceScalarField;
    location    "0.28";
    object      phi;
}
// * * * * * * * * * * * * * * * * * * * * * * * * * * * * * * * * * * * * * //

dimensions      [1 0 -1 0 0 0 0];

internalField   nonuniform List<scalar> 
7860
(
3.9895995e-08
5.2881204e-07
1.2192741e-08
5.9641106e-07
7.4279202e-09
5.7347257e-07
5.4994399e-09
5.7063619e-07
4.1150139e-09
5.7009211e-07
3.2011543e-09
5.6962152e-07
2.5591519e-09
5.6934964e-07
2.0793135e-09
5.6918747e-07
1.7093107e-09
5.6907762e-07
1.4166201e-09
5.690003e-07
1.1794466e-09
5.6894477e-07
9.8302722e-10
5.6890401e-07
8.170187e-10
5.6887359e-07
6.7393096e-10
5.6885067e-07
5.4819101e-10
5.6883332e-07
4.3553845e-10
5.6882023e-07
3.3261982e-10
5.6881049e-07
2.3670809e-10
5.6880348e-07
1.4550059e-10
5.6879878e-07
5.6966526e-11
5.687961e-07
-3.0776595e-11
5.6879531e-07
-1.1957075e-10
5.6879636e-07
-2.1132198e-10
5.6879932e-07
-3.0810745e-10
5.6880435e-07
-4.1230754e-10
5.6881177e-07
-5.2676891e-10
5.6882203e-07
-6.5502516e-10
5.6883583e-07
-8.0160983e-10
5.6885416e-07
-9.7251674e-10
5.6887849e-07
-1.1759069e-09
5.6891098e-07
-1.4232815e-09
5.6895497e-07
-1.7314515e-09
5.6901577e-07
-2.125395e-09
5.6910156e-07
-2.6449927e-09
5.6922722e-07
-3.3726584e-09
5.6943531e-07
-4.4639408e-09
5.6979894e-07
-6.0092378e-09
5.7025298e-07
-9.5082139e-09
5.7220669e-07
-2.957607e-08
5.8877562e-07
5.3913186e-07
5.967254e-08
4.691395e-07
3.6666015e-08
6.1941759e-07
2.2628194e-08
5.8751039e-07
1.6253602e-08
5.7701078e-07
1.2290531e-08
5.7405518e-07
9.6062673e-09
5.7230578e-07
7.677468e-09
5.7127844e-07
6.2360982e-09
5.7062883e-07
5.1265618e-09
5.7018715e-07
4.2487864e-09
5.6987807e-07
3.5374378e-09
5.6965612e-07
2.9483475e-09
5.694931e-07
2.4504707e-09
5.6937147e-07
2.0213322e-09
5.6927981e-07
1.6442181e-09
5.6921043e-07
1.3063513e-09
5.6915809e-07
9.9767497e-10
5.6911917e-07
7.1001131e-10
5.6909114e-07
4.3645499e-10
5.6907233e-07
1.7091497e-10
5.6906164e-07
-9.225466e-11
5.6905848e-07
-3.5857649e-10
5.6906268e-07
-6.3376211e-10
5.690745e-07
-9.2404333e-10
5.6909464e-07
-1.2365587e-09
5.6912429e-07
-1.5798446e-09
5.6916532e-07
-1.9644978e-09
5.6922049e-07
-2.4041136e-09
5.6929378e-07
-2.9166746e-09
5.6939105e-07
-3.5266724e-09
5.6952098e-07
-4.2685253e-09
5.6969682e-07
-5.1925977e-09
5.6993985e-07
-6.3755131e-09
5.7028447e-07
-7.9359873e-09
5.707877e-07
-1.0077241e-08
5.7157656e-07
-1.3205396e-08
5.729271e-07
-1.8135215e-08
5.751828e-07
-2.8177422e-08
5.822489e-07
-4.5803273e-08
6.0640147e-07
4.9332859e-07
6.0008872e-08
4.0913063e-07
5.0487329e-08
6.2893913e-07
3.3370726e-08
6.04627e-07
2.4817731e-08
5.8556378e-07
1.9323299e-08
5.7954961e-07
1.5331543e-08
5.7629754e-07
1.236075e-08
5.7424924e-07
1.0101565e-08
5.7288802e-07
8.3406129e-09
5.7194811e-07
6.9347735e-09
5.7128391e-07
5.7879682e-09
5.7080292e-07
4.8334326e-09
5.7044764e-07
4.0234028e-09
5.701815e-07
3.3228938e-09
5.6998032e-07
2.7056425e-09
5.6982768e-07
2.1514175e-09
5.6971232e-07
1.644194e-09
5.6962639e-07
1.1708734e-09
5.6956446e-07
7.2034918e-10
5.6952286e-07
2.82794e-10
5.694992e-07
-1.5091784e-10
5.6949219e-07
-5.8971642e-10
5.6950148e-07
-1.0428294e-09
5.6952762e-07
-1.5203023e-09
5.6957211e-07
-2.0336012e-09
5.6963758e-07
-2.5963719e-09
5.6972809e-07
-3.2254521e-09
5.6984957e-07
-3.9422824e-09
5.7001061e-07
-4.7749558e-09
5.7022373e-07
-5.7612816e-09
5.705073e-07
-6.9534437e-09
5.7088899e-07
-8.4256391e-09
5.7141204e-07
-1.0287265e-08
5.721461e-07
-1.2700189e-08
5.7320062e-07
-1.5897569e-08
5.7477394e-07
-2.0241286e-08
5.7727081e-07
-2.6709491e-08
5.8165101e-07
-3.8948947e-08
5.9448835e-07
-4.8167901e-08
6.1562042e-07
4.4516069e-07
5.4879113e-08
3.5425152e-07
5.7452273e-08
6.2636597e-07
4.0467633e-08
6.2161164e-07
3.0778834e-08
5.9525258e-07
2.4643114e-08
5.8568533e-07
1.9952341e-08
5.8098831e-07
1.631296e-08
5.7788862e-07
1.3466517e-08
5.7573446e-07
1.1200898e-08
5.7421372e-07
9.364399e-09
5.7312041e-07
7.8491356e-09
5.7231819e-07
6.5766206e-09
5.7172015e-07
5.4890089e-09
5.7126911e-07
4.5429891e-09
5.7092633e-07
3.7054678e-09
5.706652e-07
2.9505888e-09
5.704672e-07
2.257636e-09
5.7031934e-07
1.6095154e-09
5.7021259e-07
9.9162315e-10
5.7014075e-07
3.9096602e-10
5.7009985e-07
-2.0456191e-10
5.7008772e-07
-8.0681951e-10
5.7010374e-07
-1.4280396e-09
5.7014884e-07
-2.0814834e-09
5.7022555e-07
-2.7821912e-09
5.7033829e-07
-3.54791e-09
5.7049381e-07
-4.4003012e-09
5.7070196e-07
-5.3665732e-09
5.7097688e-07
-6.4817616e-09
5.7133891e-07
-7.7919903e-09
5.7181753e-07
-9.359038e-09
5.7245603e-07
-1.1266723e-08
5.7331973e-07
-1.3631309e-08
5.7451068e-07
-1.6614137e-08
5.7618345e-07
-2.0412975e-08
5.7857278e-07
-2.5294496e-08
5.8215233e-07
-3.2518678e-08
5.8887519e-07
-4.5102241e-08
6.0707192e-07
-4.655021e-08
6.1706839e-07
3.9861048e-07
4.7965842e-08
3.0628568e-07
6.0076669e-08
6.1425514e-07
4.5400283e-08
6.3628802e-07
3.4875467e-08
6.057774e-07
2.8399942e-08
5.9216085e-07
2.3419668e-08
5.8596859e-07
1.9434302e-08
5.8187398e-07
1.6229108e-08
5.7893966e-07
1.3619571e-08
5.7682326e-07
1.1466286e-08
5.7527369e-07
9.6641271e-09
5.7412035e-07
8.1330561e-09
5.7325122e-07
6.8120512e-09
5.7259012e-07
5.6541015e-09
5.7208428e-07
4.6224332e-09
5.7169687e-07
3.6877616e-09
5.7140187e-07
2.8262495e-09
5.7118085e-07
2.0179692e-09
5.7102087e-07
1.2457177e-09
5.70913e-07
4.9407117e-10
5.708515e-07
-2.5140735e-10
5.708332e-07
-1.0048784e-09
5.7085721e-07
-1.7809164e-09
5.7092487e-07
-2.5952321e-09
5.7103987e-07
-3.4654887e-09
5.7120855e-07
-4.4122854e-09
5.7144061e-07
-5.4603978e-09
5.7175007e-07
-6.6403871e-09
5.7215687e-07
-7.9907269e-09
5.7268925e-07
-9.5606772e-09
5.7338748e-07
-1.141406e-08
5.7430941e-07
-1.3633683e-08
5.7553935e-07
-1.6327846e-08
5.7720485e-07
-1.964015e-08
5.7949575e-07
-2.3740851e-08
5.8267348e-07
-2.8932874e-08
5.8734436e-07
-3.6793089e-08
5.967354e-07
-4.8465598e-08
6.1874443e-07
-4.3195276e-08
6.1179807e-07
3.554152e-07
4.0336152e-08
2.6594952e-07
5.8994309e-08
5.9559698e-07
4.8330321e-08
6.4695201e-07
3.7588278e-08
6.1651944e-07
3.0929056e-08
5.9882007e-07
2.5894126e-08
5.9100352e-07
2.1780079e-08
5.8598803e-07
1.8392066e-08
5.8232767e-07
1.557743e-08
5.796379e-07
1.3214123e-08
5.77637e-07
1.1206209e-08
5.7612826e-07
9.4783961e-09
5.7497903e-07
7.9715445e-09
5.7409697e-07
6.6387518e-09
5.7341708e-07
5.4423931e-09
5.7289323e-07
4.3518525e-09
5.7249241e-07
3.3417443e-09
5.7219096e-07
2.3905126e-09
5.719721e-07
1.4793139e-09
5.718242e-07
5.9109637e-10
5.7173972e-07
-2.9019052e-10
5.7171448e-07
-1.1803134e-09
5.7174733e-07
-2.0954577e-09
5.7184002e-07
-3.052956e-09
5.7199737e-07
-4.0720936e-09
5.7222769e-07
-5.1750551e-09
5.7254357e-07
-6.388076e-09
5.7296309e-07
-7.7428771e-09
5.7351167e-07
-9.2784623e-09
5.7422484e-07
-1.1043427e-08
5.7515245e-07
-1.3098988e-08
5.7636498e-07
-1.552241e-08
5.7796277e-07
-1.841109e-08
5.8009353e-07
-2.1889199e-08
5.8297386e-07
-2.6112518e-08
5.868968e-07
-3.1490591e-08
5.9272243e-07
-3.9656892e-08
6.049017e-07
-4.9174511e-08
6.2826205e-07
-3.8579617e-08
6.0120317e-07
3.1683558e-07
3.2862826e-08
2.330867e-07
5.5250301e-08
5.7320951e-07
4.9232566e-08
6.5296974e-07
3.9061787e-08
6.2669022e-07
3.2430892e-08
6.0545097e-07
2.7518952e-08
5.9591546e-07
2.3438835e-08
5.9006814e-07
2.000297e-08
5.8576353e-07
1.7094805e-08
5.8254606e-07
1.4612118e-08
5.8011969e-07
1.2471124e-08
5.7826925e-07
1.0604575e-08
5.7684558e-07
8.9582305e-09
5.7574331e-07
7.4879014e-09
5.7488741e-07
6.1572599e-09
5.7422387e-07
4.9360824e-09
5.7371359e-07
3.7988068e-09
5.7332824e-07
2.7233551e-09
5.7304755e-07
1.6901578e-09
5.7285739e-07
6.8132252e-10
5.7274855e-07
-3.2009782e-10
5.727159e-07
-1.3307797e-09
5.7275801e-07
-2.3677943e-09
5.7287703e-07
-3.4492917e-09
5.7307886e-07
-4.5952412e-09
5.7337364e-07
-5.8282799e-09
5.7377661e-07
-7.1747085e-09
5.7430952e-07
-8.6656932e-09
5.7500266e-07
-1.0338715e-08
5.7589786e-07
-1.2239347e-08
5.7705308e-07
-1.442364e-08
5.7854927e-07
-1.696102e-08
5.8050015e-07
-1.9936327e-08
5.8306883e-07
-2.3450334e-08
5.8648787e-07
-2.7644461e-08
5.9109092e-07
-3.3037183e-08
5.9811515e-07
-4.1013482e-08
6.12878e-07
-4.7690215e-08
6.3493878e-07
-3.337734e-08
5.868903e-07
2.8345824e-07
2.6189143e-08
2.0689755e-07
5.0133059e-08
5.4926559e-07
4.8493984e-08
6.5460882e-07
3.9491413e-08
6.3569279e-07
3.3077762e-08
6.1186462e-07
2.8412296e-08
6.0058092e-07
2.4493118e-08
5.9398732e-07
2.1118369e-08
5.8913828e-07
1.820717e-08
5.8545726e-07
1.5680296e-08
5.8264656e-07
1.3468611e-08
5.8048094e-07
1.1514938e-08
5.7879926e-07
9.7717653e-09
5.7748648e-07
8.1993039e-09
5.7645987e-07
6.7640255e-09
5.7565915e-07
5.4373878e-09
5.7504022e-07
4.194747e-09
5.7457088e-07
3.0144338e-09
5.7422786e-07
1.8769567e-09
5.7399487e-07
7.6429799e-10
5.7386121e-07
-3.4072202e-10
5.7382092e-07
-1.4550413e-09
5.7387233e-07
-2.5959488e-09
5.7401794e-07
-3.7816872e-09
5.742646e-07
-5.0320958e-09
5.7462404e-07
-6.3693251e-09
5.7511383e-07
-7.8186492e-09
5.7575884e-07
-9.4094135e-09
5.7659342e-07
-1.1176142e-08
5.7766459e-07
-1.3159805e-08
5.7903674e-07
-1.5409472e-08
5.8079894e-07
-1.7984425e-08
5.830751e-07
-2.0954116e-08
5.8603852e-07
-2.439373e-08
5.8992748e-07
-2.8438809e-08
5.95136e-07
-3.3694679e-08
6.0337102e-07
-4.1065947e-08
6.2024927e-07
-4.4800038e-08
6.3867287e-07
-2.8205746e-08
5.7029601e-07
2.552525e-07
2.0571067e-08
1.8632649e-07
4.4583623e-08
5.2525304e-07
4.6643452e-08
6.5254899e-07
3.915366e-08
6.4318258e-07
3.3084232e-08
6.1793405e-07
2.8717982e-08
6.0494717e-07
2.5038449e-08
5.9766686e-07
2.1804014e-08
5.9237272e-07
1.8959362e-08
5.8830191e-07
1.6448443e-08
5.8515748e-07
1.421776e-08
5.8271162e-07
1.2221133e-08
5.8079588e-07
1.0418783e-08
5.7928883e-07
8.7763582e-09
5.7810229e-07
7.264105e-09
5.771714e-07
5.8560603e-09
5.7644827e-07
4.5293096e-09
5.7589763e-07
3.2633215e-09
5.7549385e-07
2.0393408e-09
5.7521885e-07
8.3983159e-10
5.7506072e-07
-3.5204281e-10
5.750128e-07
-1.5529162e-09
5.7507321e-07
-2.7797168e-09
5.7524474e-07
-4.0501683e-09
5.7553505e-07
-5.3833147e-09
5.7595719e-07
-6.8000862e-09
5.7653061e-07
-8.3239161e-09
5.7728267e-07
-9.9814262e-09
5.7825093e-07
-1.1803193e-08
5.7948635e-07
-1.3824544e-08
5.8105809e-07
-1.6086466e-08
5.8306086e-07
-1.8636805e-08
5.8562544e-07
-2.1528666e-08
5.8893038e-07
-2.4816063e-08
5.9321488e-07
-2.8645235e-08
5.9896517e-07
-3.3663619e-08
6.0838941e-07
-4.0147603e-08
6.2673325e-07
-4.1162042e-08
6.3968731e-07
-2.3418218e-08
5.5255218e-07
2.3183428e-07
1.6015662e-08
1.7031083e-07
3.914442e-08
5.0212428e-07
4.4119212e-08
6.475742e-07
3.8290253e-08
6.4901154e-07
3.2654438e-08
6.2356986e-07
2.8592071e-08
6.0900954e-07
2.5184006e-08
6.0107492e-07
2.2136281e-08
5.9542044e-07
1.9405006e-08
5.9103319e-07
1.6954126e-08
5.8760836e-07
1.4744666e-08
5.8492108e-07
1.274103e-08
5.8279952e-07
1.0911308e-08
5.8111856e-07
9.2269813e-09
5.7978662e-07
7.6625784e-09
5.787358e-07
6.195255e-09
5.7791559e-07
4.8043673e-09
5.7728852e-07
3.4710451e-09
5.7682717e-07
2.1777701e-09
5.7651213e-07
9.0796813e-10
5.7633052e-07
-3.5438829e-10
5.7627515e-07
-1.6251663e-09
5.7634398e-07
-2.920465e-09
5.7654004e-07
-4.2570057e-09
5.7687159e-07
-5.6525314e-09
5.7735272e-07
-7.1262214e-09
5.780043e-07
-8.6991187e-09
5.7885557e-07
-1.0394568e-08
5.7994638e-07
-1.2238674e-08
5.8133046e-07
-1.4260715e-08
5.8308013e-07
-1.6493516e-08
5.8529366e-07
-1.8973825e-08
5.8810575e-07
-2.1739778e-08
5.9169634e-07
-2.483185e-08
5.9630695e-07
-2.8418958e-08
6.0255228e-07
-3.3128374e-08
6.1309882e-07
-3.8553377e-08
6.3215826e-07
-3.7218722e-08
6.3835265e-07
-1.9184159e-08
5.3451762e-07
2.1265012e-07
1.2423966e-08
1.5788686e-07
3.4114553e-08
4.8043369e-07
4.1250478e-08
6.4043827e-07
3.7079353e-08
6.5318266e-07
3.1942516e-08
6.287067e-07
2.8169293e-08
6.1278276e-07
2.5033426e-08
6.0421079e-07
2.2192419e-08
5.9826145e-07
1.9601204e-08
5.936244e-07
1.7239199e-08
5.8997037e-07
1.5079771e-08
5.8708051e-07
1.3096611e-08
5.8478268e-07
1.1265082e-08
5.8295008e-07
9.5623332e-09
5.8148937e-07
7.967248e-09
5.8033089e-07
6.4603173e-09
5.7942252e-07
5.0234591e-09
5.7872537e-07
3.6397908e-09
5.7821084e-07
2.2933737e-09
5.7785854e-07
9.6894289e-10
5.7765495e-07
-3.4837035e-10
5.7759247e-07
-1.6733169e-09
5.7766893e-07
-3.0208163e-09
5.7788754e-07
-4.406237e-09
5.7825701e-07
-5.8456752e-09
5.7879215e-07
-7.3562286e-09
5.7951485e-07
-8.9562551e-09
5.8045559e-07
-1.0665606e-08
5.8165573e-07
-1.2505834e-08
5.8317069e-07
-1.4500357e-08
5.8507465e-07
-1.6674485e-08
5.8746779e-07
-1.9055105e-08
5.9048637e-07
-2.1667709e-08
5.9430894e-07
-2.4546492e-08
5.9918573e-07
-2.7886048e-08
6.0589184e-07
-3.2231638e-08
6.1744441e-07
-3.6525408e-08
6.3645203e-07
-3.3271358e-08
6.350986e-07
-1.5565255e-08
5.1681152e-07
1.9708487e-07
9.6573607e-09
1.482295e-07
2.9646334e-08
4.6044472e-07
3.8283904e-08
6.3180071e-07
3.5659131e-08
6.5580744e-07
3.1059651e-08
6.3330618e-07
2.7554018e-08
6.162884e-07
2.4673281e-08
6.0709152e-07
2.2041207e-08
6.0089352e-07
1.9601828e-08
5.9606378e-07
1.7345177e-08
5.9222702e-07
1.525464e-08
5.8917105e-07
1.3311638e-08
5.8672568e-07
1.1497838e-08
5.8476388e-07
9.7955142e-09
5.8319169e-07
8.1876654e-09
5.8193874e-07
6.6580717e-09
5.8095211e-07
5.191289e-09
5.8019216e-07
3.7725749e-09
5.7962955e-07
2.3877663e-09
5.7924335e-07
1.0231294e-09
5.7901959e-07
-3.348115e-10
5.7895041e-07
-1.6994527e-09
5.7903357e-07
-3.0842993e-09
5.7927239e-07
-4.503145e-09
5.7967586e-07
-5.9702426e-09
5.8025925e-07
-7.5004556e-09
5.8104506e-07
-9.109382e-09
5.8206452e-07
-1.081343e-08
5.8335978e-07
-1.2629846e-08
5.849871e-07
-1.4576711e-08
5.8702152e-07
-1.667276e-08
5.8956383e-07
-1.893647e-08
5.9275008e-07
-2.1383346e-08
5.9675582e-07
-2.4047524e-08
6.0184991e-07
-2.7145377e-08
6.0898969e-07
-3.1091575e-08
6.2139061e-07
-3.4267832e-08
6.3962828e-07
-2.9525102e-08
6.3035587e-07
-1.2556873e-08
4.9984329e-07
1.8452799e-07
7.5670246e-09
1.4066248e-07
2.5787427e-08
4.4222433e-07
3.5390353e-08
6.2219778e-07
3.4139446e-08
6.5705834e-07
3.0088837e-08
6.3735679e-07
2.6826239e-08
6.1955099e-07
2.4173256e-08
6.0974451e-07
2.1740424e-08
6.0332635e-07
1.9454161e-08
5.9835004e-07
1.7310118e-08
5.9437106e-07
1.5299416e-08
5.9118175e-07
1.3409674e-08
5.8861542e-07
1.1627777e-08
5.8654578e-07
9.940412e-09
5.8487905e-07
8.3342637e-09
5.8354489e-07
6.7961784e-09
5.824902e-07
5.3132676e-09
5.8167507e-07
3.872939e-09
5.8106988e-07
2.4628778e-09
5.8065341e-07
1.0709908e-09
5.8041147e-07
-3.1467472e-10
5.8033607e-07
-1.7060247e-09
5.8042492e-07
-3.1150205e-09
5.8068138e-07
-4.5537727e-09
5.8111461e-07
-6.0346202e-09
5.817401e-07
-7.5701851e-09
5.8258063e-07
-9.1733915e-09
5.8366773e-07
-1.0857431e-08
5.8504382e-07
-1.2635672e-08
5.8676535e-07
-1.4521541e-08
5.8890739e-07
-1.6528222e-08
5.9157052e-07
-1.8667308e-08
5.9488917e-07
-2.0947302e-08
5.9903581e-07
-2.3407396e-08
6.0431e-07
-2.6277318e-08
6.1185961e-07
-2.9809258e-08
6.2492255e-07
-3.1942304e-08
6.4176133e-07
-2.6102308e-08
6.2451588e-07
-1.0112371e-08
4.8385335e-07
1.7441562e-07
6.0123844e-09
1.346501e-07
2.2516053e-08
4.2572066e-07
3.2671685e-08
6.1204215e-07
3.2600742e-08
6.5712928e-07
2.9090167e-08
6.4086736e-07
2.6046127e-08
6.2259503e-07
2.358869e-08
6.1220194e-07
2.1337651e-08
6.0557739e-07
1.9198397e-08
6.0048929e-07
1.7167467e-08
5.9640199e-07
1.5241483e-08
5.9310773e-07
1.3412818e-08
5.9044409e-07
1.1672484e-08
5.8828611e-07
1.0010812e-08
5.8654073e-07
8.4176552e-09
5.8513804e-07
6.8825999e-09
5.8402525e-07
5.3951222e-09
5.8316254e-07
3.9446881e-09
5.8252032e-07
2.5208053e-09
5.820773e-07
1.1130387e-09
5.8181924e-07
-2.8900065e-10
5.8173811e-07
-1.6956798e-09
5.818316e-07
-3.117377e-09
5.8210308e-07
-4.5645045e-09
5.8256174e-07
-6.0475172e-09
5.8322311e-07
-7.5768929e-09
5.8411e-07
-9.1630775e-09
5.8525391e-07
-1.0816379e-08
5.8669712e-07
-1.2546808e-08
5.8849577e-07
-1.4363904e-08
5.9072448e-07
-1.6276351e-08
5.9348296e-07
-1.8290448e-08
5.9690326e-07
-2.0410776e-08
6.0115614e-07
-2.2685135e-08
6.0658436e-07
-2.5345472e-08
6.1451995e-07
-2.8465289e-08
6.2804237e-07
-2.966303e-08
6.4295907e-07
-2.305825e-08
6.179111e-07
-8.1633042e-09
4.689584e-07
1.6625232e-07
4.870737e-09
1.2977937e-07
1.9773665e-08
4.1081775e-07
3.0176174e-08
6.0163965e-07
3.1095369e-08
6.5621009e-07
2.8103143e-08
6.4385959e-07
2.5255979e-08
6.254422e-07
2.2961713e-08
6.1449621e-07
2.0870943e-08
6.0766816e-07
1.8867816e-08
6.0249242e-07
1.6945782e-08
5.9832402e-07
1.5104917e-08
5.949486e-07
1.3341031e-08
5.9220797e-07
1.164825e-08
5.8997889e-07
1.0019783e-08
5.8816919e-07
8.4481119e-09
5.8670971e-07
6.9251829e-09
5.8554818e-07
5.4425826e-09
5.8464514e-07
3.9916734e-09
5.8397122e-07
2.563689e-09
5.8350528e-07
1.1497985e-09
5.8323313e-07
-2.588525e-10
5.8314676e-07
-1.6711153e-09
5.8324386e-07
-3.0958161e-09
5.8352778e-07
-4.5417268e-09
5.8400765e-07
-6.0175203e-09
5.846989e-07
-7.5317004e-09
5.8562418e-07
-9.0924985e-09
5.8681471e-07
-1.0707731e-08
5.8831235e-07
-1.2384615e-08
5.9017266e-07
-1.4129581e-08
5.9246945e-07
-1.5947849e-08
5.9530123e-07
-1.7841944e-08
5.9879736e-07
-1.9815338e-08
6.0312953e-07
-2.1926176e-08
6.086952e-07
-2.4396594e-08
6.1699037e-07
-2.7118431e-08
6.307642e-07
-2.7502129e-08
6.4334277e-07
-2.0402305e-08
6.1081127e-07
-6.6340258e-09
4.5519012e-07
1.5961829e-07
4.0397231e-09
1.2573966e-07
1.7487787e-08
3.9736969e-07
2.7917789e-08
5.9120966e-07
2.9653964e-08
6.5447392e-07
2.7150974e-08
6.4636258e-07
2.4482994e-08
6.2811018e-07
2.2322476e-08
6.1665673e-07
2.036938e-08
6.0962126e-07
1.8488993e-08
6.0437281e-07
1.66687e-08
6.0014432e-07
1.491025e-08
5.9670705e-07
1.321179e-08
5.9390643e-07
1.156967e-08
5.9162102e-07
9.9792825e-09
5.8975958e-07
8.4352062e-09
5.8825379e-07
6.9313553e-09
5.8705203e-07
5.4611429e-09
5.8611536e-07
4.0176245e-09
5.8541474e-07
2.5936154e-09
5.8492929e-07
1.1817846e-09
5.8464496e-07
-2.2527081e-10
5.8455382e-07
-1.6349615e-09
5.8465355e-07
-3.0546468e-09
5.8494746e-07
-4.4915676e-09
5.8544457e-07
-5.9527673e-09
5.861601e-07
-7.4449899e-09
5.871164e-07
-8.9745531e-09
5.8834427e-07
-1.0547194e-08
5.8988499e-07
-1.2167894e-08
5.9179336e-07
-1.3840707e-08
5.9414226e-07
-1.5568317e-08
5.9702884e-07
-1.7350848e-08
6.0057989e-07
-1.9192968e-08
6.0497165e-07
-2.1163259e-08
6.1066549e-07
-2.3462689e-08
6.192898e-07
-2.5808455e-08
6.3310997e-07
-2.5499374e-08
6.4303369e-07
-1.8115952e-08
6.0342785e-07
-5.4501652e-09
4.4252434e-07
1.5416813e-07
3.4366672e-09
1.22303e-07
1.5584608e-08
3.8522177e-07
2.5889917e-08
5.8090436e-07
2.8291953e-08
6.5207188e-07
2.6245541e-08
6.4840899e-07
2.3743069e-08
6.3061265e-07
2.1691296e-08
6.187085e-07
1.9854188e-08
6.1145837e-07
1.8082352e-08
6.0614464e-07
1.635513e-08
6.0187154e-07
1.4674466e-08
5.9838771e-07
1.3039955e-08
5.9554094e-07
1.1449451e-08
5.9321152e-07
9.8999293e-09
5.913091e-07
8.3875848e-09
5.8976613e-07
6.9079241e-09
5.8853169e-07
5.4558968e-09
5.8756738e-07
4.0260296e-09
5.8684461e-07
2.6125475e-09
5.8634277e-07
1.2094814e-09
5.8604803e-07
-1.8923822e-10
5.8595254e-07
-1.5896943e-09
5.8605401e-07
-2.9979004e-09
5.8635567e-07
-4.4197105e-09
5.8686638e-07
-5.8607198e-09
5.8760111e-07
-7.3261486e-09
5.8858183e-07
-8.8207093e-09
5.8983883e-07
-1.0348461e-08
5.9141274e-07
-1.1912662e-08
5.9335756e-07
-1.3515631e-08
5.9574523e-07
-1.5158315e-08
5.9867152e-07
-1.6839598e-08
6.0226117e-07
-1.8567098e-08
6.0669915e-07
-2.0418631e-08
6.1251703e-07
-2.2564269e-08
6.2143543e-07
-2.4560238e-08
6.3510594e-07
-2.3671616e-08
6.4214506e-07
-1.6165221e-08
5.9592146e-07
-4.5433117e-09
4.3090243e-07
1.4962481e-07
2.9969386e-09
1.1930607e-07
1.3995665e-08
3.7422307e-07
2.4074709e-08
5.7082533e-07
2.70145e-08
6.491321e-07
2.539124e-08
6.5003225e-07
2.304424e-08
6.3295965e-07
2.1081044e-08
6.206717e-07
1.9340251e-08
6.1319916e-07
1.766308e-08
6.0782181e-07
1.6019759e-08
6.0351486e-07
1.4411219e-08
5.9999625e-07
1.2837821e-08
5.9711434e-07
1.1298361e-08
5.9475098e-07
9.7909058e-09
5.9281656e-07
8.3128516e-09
5.9124419e-07
6.8609581e-09
5.8998359e-07
5.4314359e-09
5.8899691e-07
4.0200592e-09
5.8825599e-07
2.6222795e-09
5.8774055e-07
1.2333335e-09
5.8743697e-07
-1.5165418e-10
5.8733753e-07
-1.5375746e-09
5.8743993e-07
-2.9292384e-09
5.8774733e-07
-4.331275e-09
5.8826842e-07
-5.7480254e-09
5.8901786e-07
-7.1834246e-09
5.9001723e-07
-8.6408758e-09
5.9129628e-07
-1.0123126e-08
5.9289499e-07
-1.1632161e-08
5.9486659e-07
-1.3169101e-08
5.9728217e-07
-1.4733803e-08
6.0023623e-07
-1.6324892e-08
6.0385226e-07
-1.7954117e-08
6.0832838e-07
-1.9706413e-08
6.1426932e-07
-2.1713221e-08
6.2344224e-07
-2.3387284e-08
6.3678e-07
-2.2020045e-08
6.4077783e-07
-1.450908e-08
5.8841049e-07
-3.8535676e-09
4.2024691e-07
1.4577125e-07
2.6716991e-09
1.1663439e-07
1.2661216e-08
3.6423358e-07
2.2449423e-08
5.6103715e-07
2.5820257e-08
6.4576127e-07
2.4587692e-08
6.5126481e-07
2.2389235e-08
6.351581e-07
2.0499144e-08
6.2256179e-07
1.8837561e-08
6.1486074e-07
1.7242133e-08
6.0941724e-07
1.5673697e-08
6.050833e-07
1.4131231e-08
6.0153872e-07
1.261533e-08
5.9863024e-07
1.1125319e-08
5.9624099e-07
9.6599695e-09
5.9428191e-07
8.2175375e-09
5.9268662e-07
6.7957405e-09
5.9140538e-07
5.3918e-09
5.9040085e-07
4.0025255e-09
5.8964526e-07
2.624412e-09
5.8911866e-07
1.2537411e-09
5.8880764e-07
-1.1331843e-10
5.8870458e-07
-1.4806113e-09
5.8880722e-07
-2.8518984e-09
5.8911862e-07
-4.2307527e-09
5.8964727e-07
-5.620454e-09
5.9040756e-07
-7.0238795e-09
5.9142066e-07
-8.4433937e-09
5.927158e-07
-9.8807542e-09
5.9433235e-07
-1.1337048e-08
5.9632289e-07
-1.281263e-08
5.9875775e-07
-1.4306789e-08
6.0173038e-07
-1.5818666e-08
6.0536414e-07
-1.7364814e-08
6.0987453e-07
-1.9034563e-08
6.1593907e-07
-2.0915057e-08
6.2532273e-07
-2.2294747e-08
6.3815969e-07
-2.0535971e-08
6.3901905e-07
-1.3105027e-08
5.8097955e-07
-3.3305265e-09
4.1047241e-07
1.4244072e-07
2.4252083e-09
1.142092e-07
1.1531351e-08
3.5512747e-07
2.0990513e-08
5.5157801e-07
2.4704249e-08
6.4204754e-07
2.383174e-08
6.5213732e-07
2.177736e-08
6.3721248e-07
1.9949143e-08
6.2439e-07
1.835241e-08
6.1645747e-07
1.6827135e-08
6.1094252e-07
1.5325131e-08
6.065853e-07
1.3842724e-08
6.0302112e-07
1.2380348e-08
6.0009262e-07
1.0937558e-08
5.9768378e-07
9.5135402e-09
5.9570593e-07
8.107136e-09
5.9409302e-07
6.7167745e-09
5.9279575e-07
5.3404691e-09
5.9177715e-07
3.9758707e-09
5.9100986e-07
2.6203448e-09
5.9047419e-07
1.2710593e-09
5.9015693e-07
-7.4922528e-11
5.9005057e-07
-1.4205452e-09
5.9015284e-07
-2.7686741e-09
5.9046675e-07
-4.1219901e-09
5.9100058e-07
-5.482895e-09
5.9176847e-07
-6.8534158e-09
5.9279118e-07
-8.2351169e-09
5.940975e-07
-9.6290377e-09
5.9572627e-07
-1.1035672e-08
5.9772952e-07
-1.2454942e-08
6.0017702e-07
-1.3885971e-08
6.0316141e-07
-1.532901e-08
6.0680718e-07
-1.6805626e-08
6.1135114e-07
-1.840652e-08
6.1753996e-07
-2.0170802e-08
6.2708701e-07
-2.1282104e-08
6.3927099e-07
-1.920537e-08
6.3694232e-07
-1.1912912e-08
5.7368709e-07
-2.9331836e-09
4.0149268e-07
1.3950754e-07
2.2320864e-09
1.1197713e-07
1.0565615e-08
3.4679398e-07
1.967592e-08
5.4246774e-07
2.365993e-08
6.3806355e-07
2.3118922e-08
6.5267833e-07
2.1205934e-08
6.3912547e-07
1.9431959e-08
6.2616398e-07
1.7888388e-08
6.1800104e-07
1.6423151e-08
6.1240775e-07
1.4979913e-08
6.0802854e-07
1.355186e-08
6.0444917e-07
1.2138971e-08
6.0150551e-07
1.0740832e-08
5.9908192e-07
9.3568291e-09
5.9708993e-07
7.9861806e-09
5.9546367e-07
6.6278258e-09
5.941541e-07
5.2803841e-09
5.9312459e-07
3.9421763e-09
5.9234807e-07
2.6112803e-09
5.9180508e-07
1.2856018e-09
5.9148261e-07
-3.7047434e-11
5.9137322e-07
-1.358847e-09
5.9147464e-07
-2.6819198e-09
5.9178982e-07
-4.0082057e-09
5.9232687e-07
-5.3393964e-09
5.9309966e-07
-6.6768529e-09
5.9412863e-07
-8.0215422e-09
5.9544219e-07
-9.3740073e-09
5.9707874e-07
-1.0734387e-08
5.990899e-07
-1.2102417e-08
6.0154505e-07
-1.3477355e-08
6.0453635e-07
-1.4860991e-08
6.0819081e-07
-1.6279741e-08
6.1276989e-07
-1.7822584e-08
6.1908281e-07
-1.9478572e-08
6.28743e-07
-2.0345343e-08
6.4013776e-07
-1.8012008e-08
6.3460898e-07
-1.0896864e-08
5.6657194e-07
-2.6290845e-09
3.9322491e-07
1.3687845e-07
2.0748485e-09
1.0990231e-07
9.7319028e-09
3.3913698e-07
1.8486116e-08
5.3371358e-07
2.2680454e-08
6.3386923e-07
2.2444445e-08
6.5291434e-07
2.0671306e-08
6.408986e-07
1.8946843e-08
6.2788844e-07
1.7447177e-08
6.1950071e-07
1.6033337e-08
6.1382159e-07
1.464207e-08
6.094198e-07
1.3263129e-08
6.0582811e-07
1.189582e-08
6.0287281e-07
1.0539625e-08
6.0043811e-07
9.1939885e-09
5.9843556e-07
7.8583455e-09
5.9679931e-07
6.5319881e-09
5.9548046e-07
5.2139873e-09
5.9444259e-07
3.903187e-09
5.9365887e-07
2.5982366e-09
5.9311004e-07
1.2976464e-09
5.927832e-07
-1.4369002e-13
5.92671e-07
-1.2967275e-09
5.9277123e-07
-2.5935725e-09
5.9308667e-07
-3.8920305e-09
5.9362533e-07
-5.1932327e-09
5.9440086e-07
-6.4980323e-09
5.9543343e-07
-7.8069664e-09
5.9675112e-07
-9.1202576e-09
5.9839203e-07
-1.0437866e-08
6.0040751e-07
-1.1759521e-08
6.0286671e-07
-1.3084826e-08
6.0586165e-07
-1.4417392e-08
6.0952338e-07
-1.5788039e-08
6.1414054e-07
-1.7281033e-08
6.205758e-07
-1.8834791e-08
6.3029676e-07
-1.9478581e-08
6.4078155e-07
-1.6939387e-08
6.3206979e-07
-1.0025825e-08
5.5965838e-07
-2.3931155e-09
3.855922e-07
1.3448533e-07
1.9418241e-09
1.0796052e-07
9.0050944e-09
3.3207378e-07
1.740439e-08
5.2531434e-07
2.1759389e-08
6.2951425e-07
2.1803757e-08
6.5286997e-07
2.0169526e-08
6.4253283e-07
1.8492083e-08
6.2956588e-07
1.7029188e-08
6.2096361e-07
1.5659471e-08
6.1519131e-07
1.4314252e-08
6.1076502e-07
1.297971e-08
6.0716266e-07
1.1654316e-08
6.0419821e-07
1.0337365e-08
6.0175506e-07
9.0282651e-09
5.9974466e-07
7.726556e-09
5.9810102e-07
6.4317597e-09
5.9677525e-07
5.1432743e-09
5.9573108e-07
3.8603425e-09
5.949418e-07
2.582063e-09
5.9438831e-07
1.3074261e-09
5.9405783e-07
3.5366268e-11
5.9394306e-07
-1.2351704e-09
5.9404176e-07
-2.5051897e-09
5.9435668e-07
-3.7755639e-09
5.948957e-07
-5.0469874e-09
5.9567228e-07
-6.3199368e-09
5.9670638e-07
-7.5946542e-09
5.9802584e-07
-8.871176e-09
5.9966855e-07
-1.0149412e-08
6.0168575e-07
-1.1429201e-08
6.0414649e-07
-1.2710648e-08
6.071431e-07
-1.3999343e-08
6.1081208e-07
-1.5329848e-08
6.1547104e-07
-1.6778961e-08
6.2202491e-07
-1.8235054e-08
6.3175285e-07
-1.8675166e-08
6.4122166e-07
-1.597193e-08
6.2936655e-07
-9.2736719e-09
5.5296012e-07
-2.2063043e-09
3.7852483e-07
1.3227903e-07
1.8254725e-09
1.0613509e-07
8.3657059e-09
3.2553362e-07
1.641674e-08
5.1726337e-07
2.0891039e-08
6.2503999e-07
2.1192832e-08
6.5256819e-07
1.9696747e-08
6.4402891e-07
1.8065484e-08
6.3119714e-07
1.6634011e-08
6.2239508e-07
1.530237e-08
6.1652295e-07
1.3998085e-08
6.1206931e-07
1.2703766e-08
6.0845698e-07
1.1416923e-08
6.0548505e-07
1.0136611e-08
6.0303537e-07
8.8621484e-09
6.0101913e-07
7.5930995e-09
5.9937007e-07
6.3291245e-09
5.9803923e-07
5.0698497e-09
5.9699035e-07
3.8148149e-09
5.9619683e-07
2.5634645e-09
5.9563966e-07
1.3151687e-09
5.9530613e-07
6.9260209e-11
5.9518897e-07
-1.1749221e-09
5.9528595e-07
-2.4179851e-09
5.9559975e-07
-3.6604359e-09
5.9613815e-07
-4.9026434e-09
5.9691449e-07
-6.1448154e-09
5.9794855e-07
-7.3870046e-09
5.9926803e-07
-8.6291608e-09
6.0091071e-07
-9.8712299e-09
6.0292781e-07
-1.1113238e-08
6.053885e-07
-1.2355892e-08
6.0838576e-07
-1.3606819e-08
6.12063e-07
-1.4903522e-08
6.1676774e-07
-1.6312868e-08
6.2343426e-07
-1.767472e-08
6.331147e-07
-1.792842e-08
6.4147536e-07
-1.5095612e-08
6.2653374e-07
-8.6188927e-09
5.464834e-07
-2.0546526e-09
3.7196059e-07
1.3022438e-07
1.7210742e-09
1.0441406e-07
7.7986644e-09
3.1945612e-07
1.551155e-08
5.0955057e-07
2.0070539e-08
6.2048104e-07
2.0608276e-08
6.5203046e-07
1.9249445e-08
6.4538774e-07
1.7664679e-08
6.327819e-07
1.6260747e-08
6.2379901e-07
1.4962194e-08
6.178215e-07
1.3694459e-08
6.1333704e-07
1.2436696e-08
6.0971474e-07
1.1185356e-08
6.0673639e-07
9.939229e-09
6.042815e-07
8.6975073e-09
6.0226085e-07
7.4597312e-09
6.0060785e-07
6.225631e-09
5.9927333e-07
4.9949847e-09
5.98221e-07
3.7675456e-09
5.9742427e-07
2.5430187e-09
5.9686419e-07
1.3210648e-09
5.9652808e-07
1.0132362e-10
5.9640871e-07
-1.1165547e-09
5.9650382e-07
-2.3328769e-09
5.9681607e-07
-3.5478727e-09
5.9735315e-07
-4.761673e-09
5.9812829e-07
-5.9743033e-09
5.9916118e-07
-7.1857074e-09
6.0047943e-07
-8.3958191e-09
6.0212082e-07
-9.6046762e-09
6.0413667e-07
-1.0812538e-08
6.0659636e-07
-1.2020777e-08
6.0959399e-07
-1.3239032e-08
6.1328126e-07
-1.4506858e-08
6.1803557e-07
-1.587908e-08
6.2480648e-07
-1.7149294e-08
6.3438492e-07
-1.7232075e-08
6.4155814e-07
-1.4298196e-08
6.2359986e-07
-8.0440478e-09
5.4022926e-07
-1.9280606e-09
3.658446e-07
1.2829632e-07
1.6257595e-09
1.0278835e-07
7.2922739e-09
3.1378972e-07
1.4679208e-08
5.0216375e-07
1.929381e-08
6.158665e-07
2.0047322e-08
6.5127696e-07
1.8824516e-08
6.4661054e-07
1.7287321e-08
6.343191e-07
1.5908229e-08
6.251781e-07
1.4638678e-08
6.1909105e-07
1.3403741e-08
6.1457198e-07
1.2179327e-08
6.1093915e-07
1.0960758e-08
6.0795496e-07
9.7465332e-09
6.0549572e-07
8.5357098e-09
6.0347167e-07
7.3277699e-09
6.0181579e-07
6.1224661e-09
6.0047863e-07
4.9196692e-09
5.994238e-07
3.7192808e-09
5.9862466e-07
2.5211951e-09
5.9806228e-07
1.3252903e-09
5.9772399e-07
1.3143848e-10
5.9760257e-07
-1.0604755e-09
5.9769574e-07
-2.2505329e-09
5.9800613e-07
-3.4387613e-09
5.9854138e-07
-4.625125e-09
5.9931465e-07
-5.8095342e-09
6.0034559e-07
-6.9918835e-09
6.0166178e-07
-8.1721384e-09
6.0330107e-07
-9.3504615e-09
6.0531499e-07
-1.0527368e-08
6.0777327e-07
-1.1704936e-08
6.1077156e-07
-1.2894724e-08
6.1447105e-07
-1.4137405e-08
6.1927825e-07
-1.5474008e-08
6.2614308e-07
-1.6654649e-08
6.3556556e-07
-1.6580501e-08
6.41484e-07
-1.3569231e-08
6.2058859e-07
-7.5351581e-09
5.3419518e-07
-1.8193962e-09
3.6012884e-07
1.2647692e-07
1.5378201e-09
1.0125059e-07
6.8373832e-09
3.0849029e-07
1.3911723e-08
4.9508953e-07
1.8557449e-08
6.1122084e-07
1.9507762e-08
6.5032666e-07
1.8419297e-08
6.47699e-07
1.693119e-08
6.358072e-07
1.5575167e-08
6.2653412e-07
1.4331285e-08
6.2033494e-07
1.3125937e-08
6.1577733e-07
1.1932073e-08
6.1213302e-07